/*--------------------------------*- C++ -*----------------------------------*\
  =========                 |
  \\      /  F ield         | OpenFOAM: The Open Source CFD Toolbox
   \\    /   O peration     | Website:  https://openfoam.org
    \\  /    A nd           | Version:  12
     \\/     M anipulation  |
\*---------------------------------------------------------------------------*/
FoamFile
{
    format      ascii;
    class       volScalarField;
    location    "2";
    object      nut;
}
// * * * * * * * * * * * * * * * * * * * * * * * * * * * * * * * * * * * * * //

dimensions      [0 2 -1 0 0 0 0];

internalField   nonuniform List<scalar> 
5625
(
5.21163e-15
2.60188e-14
5.67795e-14
9.34116e-14
1.3398e-13
1.77258e-13
2.22323e-13
2.6843e-13
3.14955e-13
3.61371e-13
4.07235e-13
4.5218e-13
4.95913e-13
5.3821e-13
5.78912e-13
6.1792e-13
6.55189e-13
6.9072e-13
7.24552e-13
7.56748e-13
7.8739e-13
8.16565e-13
8.44358e-13
8.70841e-13
8.96071e-13
9.2008e-13
9.42875e-13
9.64434e-13
9.84707e-13
1.00362e-12
1.02106e-12
1.0369e-12
1.051e-12
1.0632e-12
1.07331e-12
1.08116e-12
1.08655e-12
1.08925e-12
1.08928e-12
1.08638e-12
1.0804e-12
1.07124e-12
1.05882e-12
1.0431e-12
1.02407e-12
1.00178e-12
9.76308e-13
9.47784e-13
9.16383e-13
8.82317e-13
8.45843e-13
8.07246e-13
7.66842e-13
7.24968e-13
6.81974e-13
6.38215e-13
5.94043e-13
5.49801e-13
5.05813e-13
4.62377e-13
4.19766e-13
3.78216e-13
3.3793e-13
2.99078e-13
2.61794e-13
2.26185e-13
1.92344e-13
1.60336e-13
1.30235e-13
1.02134e-13
7.61695e-14
5.25661e-14
3.17283e-14
1.44818e-14
2.89795e-15
2.60503e-14
2.36368e-12
7.99773e-12
1.47086e-11
2.19495e-11
2.95554e-11
3.74049e-11
4.53902e-11
5.3416e-11
6.13987e-11
6.92672e-11
7.6962e-11
8.44354e-11
9.16513e-11
9.85842e-11
1.05219e-10
1.11551e-10
1.1758e-10
1.23317e-10
1.28772e-10
1.33962e-10
1.38903e-10
1.43611e-10
1.48099e-10
1.52379e-10
1.56456e-10
1.60333e-10
1.64006e-10
1.67467e-10
1.70703e-10
1.73697e-10
1.76425e-10
1.78864e-10
1.80984e-10
1.82756e-10
1.84146e-10
1.85121e-10
1.85631e-10
1.8568e-10
1.85227e-10
1.84247e-10
1.82722e-10
1.80636e-10
1.77982e-10
1.74757e-10
1.70969e-10
1.66632e-10
1.61766e-10
1.56401e-10
1.50575e-10
1.44331e-10
1.37719e-10
1.30793e-10
1.23613e-10
1.1624e-10
1.08735e-10
1.01161e-10
9.35758e-11
8.60367e-11
7.85956e-11
7.12991e-11
6.41878e-11
5.72962e-11
5.06523e-11
4.42782e-11
3.819e-11
3.23989e-11
2.69158e-11
2.17485e-11
1.69043e-11
1.23929e-11
8.22913e-12
4.45163e-12
1.31376e-12
1.44726e-14
5.71294e-14
8.01945e-12
4.04615e-11
9.06264e-11
1.48208e-10
2.08921e-10
2.71071e-10
3.33723e-10
3.96187e-10
4.5789e-10
5.1835e-10
5.77166e-10
6.34022e-10
6.88682e-10
7.40994e-10
7.90878e-10
8.38325e-10
8.83382e-10
9.26143e-10
9.66733e-10
1.0053e-09
1.04198e-09
1.07693e-09
1.11027e-09
1.14209e-09
1.17245e-09
1.20137e-09
1.22885e-09
1.25481e-09
1.27918e-09
1.3018e-09
1.32252e-09
1.34115e-09
1.35745e-09
1.37119e-09
1.38213e-09
1.39002e-09
1.39437e-09
1.39539e-09
1.39264e-09
1.3859e-09
1.37502e-09
1.35985e-09
1.34033e-09
1.31642e-09
1.28817e-09
1.25566e-09
1.21906e-09
1.17858e-09
1.1345e-09
1.08717e-09
1.03698e-09
9.84342e-10
9.29729e-10
8.73617e-10
8.16495e-10
7.58846e-10
7.01137e-10
6.43807e-10
5.8726e-10
5.31852e-10
4.77891e-10
4.2563e-10
3.75268e-10
3.26948e-10
2.80765e-10
2.36766e-10
1.94971e-10
1.55368e-10
1.17951e-10
8.27916e-11
5.0334e-11
2.24409e-11
4.4475e-12
3.16227e-14
9.47881e-14
1.48512e-11
9.10304e-11
2.39952e-10
4.35238e-10
6.52598e-10
8.78674e-10
1.10667e-09
1.33279e-09
1.55456e-09
1.77023e-09
1.97851e-09
2.17843e-09
2.36937e-09
2.55098e-09
2.72317e-09
2.8861e-09
3.04011e-09
3.18569e-09
3.32343e-09
3.45397e-09
3.57796e-09
3.69598e-09
3.80855e-09
3.91609e-09
4.01886e-09
4.117e-09
4.21048e-09
4.29913e-09
4.38264e-09
4.46053e-09
4.53225e-09
4.59708e-09
4.65426e-09
4.70292e-09
4.74215e-09
4.77122e-09
4.78799e-09
4.79367e-09
4.78635e-09
4.76524e-09
4.7297e-09
4.67922e-09
4.61346e-09
4.53229e-09
4.43578e-09
4.32421e-09
4.19812e-09
4.05827e-09
3.90563e-09
3.7414e-09
3.56695e-09
3.38383e-09
3.19368e-09
2.99822e-09
2.79921e-09
2.59836e-09
2.39736e-09
2.19775e-09
2.00096e-09
1.80822e-09
1.62059e-09
1.4389e-09
1.26377e-09
1.09561e-09
9.34633e-10
7.80878e-10
6.343e-10
4.94891e-10
3.63047e-10
2.40484e-10
1.32361e-10
5.02639e-11
8.19237e-12
5.21304e-14
1.37603e-13
2.24147e-11
1.5023e-10
4.38513e-10
8.6493e-10
1.37643e-09
1.92906e-09
2.49509e-09
3.05827e-09
3.60903e-09
4.1415e-09
4.652e-09
5.13828e-09
5.59911e-09
6.03413e-09
6.44364e-09
6.82854e-09
7.19016e-09
7.53016e-09
7.85039e-09
8.15278e-09
8.4392e-09
8.71136e-09
8.97074e-09
9.21851e-09
9.45546e-09
9.68203e-09
9.89824e-09
1.01037e-08
1.02978e-08
1.04793e-08
1.06469e-08
1.0799e-08
1.09335e-08
1.10485e-08
1.11416e-08
1.12114e-08
1.12518e-08
1.12667e-08
1.12508e-08
1.12024e-08
1.11197e-08
1.10015e-08
1.0847e-08
1.06557e-08
1.04279e-08
1.01641e-08
9.86561e-09
9.53424e-09
9.17233e-09
8.78275e-09
8.36879e-09
7.93413e-09
7.48273e-09
7.01873e-09
6.5463e-09
6.06958e-09
5.59254e-09
5.11887e-09
4.6519e-09
4.19453e-09
3.74915e-09
3.31763e-09
2.90128e-09
2.50093e-09
2.11694e-09
1.7494e-09
1.39853e-09
1.0654e-09
7.53619e-10
4.72286e-10
2.39818e-10
8.23098e-11
1.22571e-11
7.49804e-14
1.84901e-13
3.06482e-11
2.14776e-10
6.65793e-10
1.39276e-09
2.3261e-09
3.37998e-09
4.48584e-09
5.59806e-09
6.68862e-09
7.74026e-09
8.74305e-09
9.69163e-09
1.05837e-08
1.14192e-08
1.21996e-08
1.29276e-08
1.36068e-08
1.42413e-08
1.48356e-08
1.53942e-08
1.59213e-08
1.64207e-08
1.68956e-08
1.73486e-08
1.77815e-08
1.81954e-08
1.85902e-08
1.89655e-08
1.93199e-08
1.96512e-08
1.99569e-08
2.02338e-08
2.04782e-08
2.0686e-08
2.08532e-08
2.09761e-08
2.10443e-08
2.10647e-08
2.10274e-08
2.09288e-08
2.0766e-08
2.05367e-08
2.02395e-08
1.98738e-08
1.94399e-08
1.89391e-08
1.8374e-08
1.77478e-08
1.70652e-08
1.63314e-08
1.55527e-08
1.4736e-08
1.38884e-08
1.30178e-08
1.21318e-08
1.12381e-08
1.03438e-08
9.45575e-09
8.58001e-09
7.72175e-09
6.88526e-09
6.07381e-09
5.28969e-09
4.53433e-09
3.80858e-09
3.11327e-09
2.45043e-09
1.82536e-09
1.25037e-09
7.49501e-10
3.59733e-10
1.16327e-10
1.65621e-11
9.95583e-14
2.36322e-13
3.95319e-11
2.83909e-10
9.12597e-10
1.98584e-09
3.43796e-09
5.14424e-09
6.98247e-09
8.85853e-09
1.07085e-08
1.24926e-08
1.41882e-08
1.57832e-08
1.7273e-08
1.86579e-08
1.99415e-08
2.11298e-08
2.22303e-08
2.32515e-08
2.42019e-08
2.50902e-08
2.59243e-08
2.67113e-08
2.74572e-08
2.81666e-08
2.88427e-08
2.94873e-08
3.01008e-08
3.06822e-08
3.12292e-08
3.17385e-08
3.22057e-08
3.26255e-08
3.29921e-08
3.3299e-08
3.35395e-08
3.37064e-08
3.37884e-08
3.37923e-08
3.37032e-08
3.35157e-08
3.32258e-08
3.28302e-08
3.23271e-08
3.1716e-08
3.0998e-08
3.01754e-08
2.92527e-08
2.82353e-08
2.71307e-08
2.59473e-08
2.4695e-08
2.33844e-08
2.20269e-08
2.06344e-08
1.92186e-08
1.77913e-08
1.63634e-08
1.49453e-08
1.3546e-08
1.21734e-08
1.0834e-08
9.53263e-09
8.27285e-09
7.05713e-09
5.88753e-09
4.7671e-09
3.70229e-09
2.70697e-09
1.80799e-09
1.04924e-09
4.8523e-10
1.51476e-10
2.10526e-11
1.25428e-13
2.91665e-13
4.90548e-11
3.5753e-10
1.1758e-09
2.62735e-09
4.66795e-09
7.14373e-09
9.87337e-09
1.27e-08
1.55086e-08
1.82238e-08
2.08002e-08
2.32137e-08
2.54548e-08
2.75239e-08
2.94274e-08
3.11763e-08
3.27837e-08
3.42644e-08
3.5633e-08
3.69039e-08
3.80902e-08
3.92036e-08
4.02535e-08
4.12473e-08
4.21901e-08
4.30846e-08
4.39314e-08
4.47291e-08
4.54742e-08
4.61619e-08
4.67857e-08
4.7338e-08
4.78104e-08
4.81939e-08
4.84793e-08
4.86514e-08
4.871e-08
4.86521e-08
4.84596e-08
4.81264e-08
4.76475e-08
4.70197e-08
4.62413e-08
4.53127e-08
4.4236e-08
4.30159e-08
4.16587e-08
4.0173e-08
3.85693e-08
3.68597e-08
3.50577e-08
3.31782e-08
3.12367e-08
2.9249e-08
2.72311e-08
2.51986e-08
2.31662e-08
2.11475e-08
1.91545e-08
1.71976e-08
1.52853e-08
1.34242e-08
1.16192e-08
9.87431e-09
8.19383e-09
6.58473e-09
5.06075e-09
3.64813e-09
2.39204e-09
1.35755e-09
6.12959e-10
1.87338e-10
2.56822e-11
1.52257e-13
3.50813e-13
5.92107e-11
4.35689e-10
1.45466e-09
3.31043e-09
5.99163e-09
9.32567e-09
1.30718e-08
1.70008e-08
2.0933e-08
2.47441e-08
2.83573e-08
3.1731e-08
3.48481e-08
3.77083e-08
4.03217e-08
4.27053e-08
4.48801e-08
4.68684e-08
4.86931e-08
5.03758e-08
5.1936e-08
5.33907e-08
5.47539e-08
5.6036e-08
5.72443e-08
5.83827e-08
5.94519e-08
6.04499e-08
6.13721e-08
6.22118e-08
6.29604e-08
6.36082e-08
6.41441e-08
6.4557e-08
6.48352e-08
6.49515e-08
6.49271e-08
6.47467e-08
6.43839e-08
6.38363e-08
6.30992e-08
6.217e-08
6.10483e-08
5.97359e-08
5.82373e-08
5.65593e-08
5.47112e-08
5.27047e-08
5.05537e-08
4.82738e-08
4.58823e-08
4.33978e-08
4.08395e-08
3.82269e-08
3.55796e-08
3.29164e-08
3.02551e-08
2.7612e-08
2.50015e-08
2.24361e-08
1.99259e-08
1.74789e-08
1.51015e-08
1.27996e-08
1.05804e-08
8.45637e-09
6.45039e-09
4.60336e-09
2.98024e-09
1.66654e-09
7.41157e-10
2.23632e-10
3.04131e-11
1.79793e-13
4.13694e-13
6.99954e-11
5.18456e-10
1.74926e-09
4.0327e-09
7.39744e-09
1.16594e-08
1.65193e-08
2.16696e-08
2.68553e-08
3.18932e-08
3.66667e-08
4.11113e-08
4.51998e-08
4.89301e-08
5.23167e-08
5.5384e-08
5.8162e-08
6.06829e-08
6.29787e-08
6.50797e-08
6.70131e-08
6.88021e-08
7.04655e-08
7.20174e-08
7.34674e-08
7.48205e-08
7.60778e-08
7.72366e-08
7.82913e-08
7.92333e-08
8.00522e-08
8.07363e-08
8.12725e-08
8.16476e-08
8.18486e-08
8.18362e-08
8.16523e-08
8.12835e-08
8.0678e-08
7.98454e-08
7.87823e-08
7.74879e-08
7.59637e-08
7.4214e-08
7.22457e-08
7.00685e-08
6.76948e-08
6.51395e-08
6.24197e-08
5.95543e-08
5.65641e-08
5.34706e-08
5.02962e-08
4.70635e-08
4.37947e-08
4.05112e-08
3.72329e-08
3.39782e-08
3.07633e-08
2.76017e-08
2.4505e-08
2.14821e-08
1.85407e-08
1.56885e-08
1.29362e-08
1.0302e-08
7.81902e-09
5.54328e-09
3.55925e-09
1.97182e-09
8.68806e-10
2.60153e-10
3.52154e-11
2.07844e-13
4.80253e-13
8.14052e-11
6.05881e-10
2.05986e-09
4.79373e-09
8.88055e-09
1.41286e-08
2.01802e-08
2.66448e-08
3.31843e-08
3.95485e-08
4.55744e-08
5.11702e-08
5.62963e-08
6.09487e-08
6.51464e-08
6.89224e-08
7.23172e-08
7.53741e-08
7.81358e-08
8.06424e-08
8.29294e-08
8.50269e-08
8.69592e-08
8.87443e-08
9.03942e-08
9.19154e-08
9.33092e-08
9.45727e-08
9.5699e-08
9.66785e-08
9.74993e-08
9.81482e-08
9.86108e-08
9.88728e-08
9.89197e-08
9.87009e-08
9.82847e-08
9.76552e-08
9.67438e-08
9.55619e-08
9.41143e-08
9.24025e-08
9.04305e-08
8.82055e-08
8.57372e-08
8.30383e-08
8.01243e-08
7.70129e-08
7.37242e-08
7.02802e-08
6.6704e-08
6.30201e-08
5.9253e-08
5.54276e-08
5.15681e-08
4.76974e-08
4.38373e-08
4.0007e-08
3.62239e-08
3.25024e-08
2.88544e-08
2.52897e-08
2.18168e-08
1.84451e-08
1.51883e-08
1.20705e-08
9.13439e-09
6.45046e-09
4.12152e-09
2.27093e-09
9.95294e-10
2.96757e-10
4.00676e-11
2.36274e-13
5.50432e-13
9.3434e-11
6.9798e-10
2.38665e-09
5.59353e-09
1.04394e-08
1.67245e-08
2.40332e-08
3.18864e-08
3.9857e-08
4.76215e-08
5.49656e-08
6.17671e-08
6.79724e-08
7.35753e-08
7.86002e-08
8.30896e-08
8.70958e-08
9.06744e-08
9.388e-08
9.67634e-08
9.93692e-08
1.01735e-07
1.03891e-07
1.0586e-07
1.07655e-07
1.09286e-07
1.10753e-07
1.12055e-07
1.13183e-07
1.14128e-07
1.14877e-07
1.15415e-07
1.15728e-07
1.15802e-07
1.15617e-07
1.1512e-07
1.14415e-07
1.13447e-07
1.12183e-07
1.106e-07
1.08722e-07
1.06556e-07
1.04106e-07
1.01384e-07
9.84023e-08
9.51758e-08
9.1723e-08
8.80644e-08
8.42226e-08
8.02215e-08
7.60868e-08
7.18445e-08
6.75211e-08
6.31429e-08
5.87354e-08
5.43226e-08
4.99271e-08
4.55689e-08
4.12657e-08
3.70323e-08
3.28809e-08
2.88213e-08
2.48626e-08
2.10155e-08
1.72961e-08
1.37336e-08
1.03789e-08
7.31567e-09
4.66316e-09
2.56261e-09
1.12028e-09
3.33353e-10
4.49559e-11
2.64996e-13
6.24164e-13
1.06072e-10
7.94725e-10
2.72965e-09
6.43218e-09
1.20725e-08
1.94418e-08
2.80643e-08
3.73673e-08
4.68293e-08
5.60484e-08
6.47556e-08
7.27963e-08
8.01023e-08
8.66652e-08
9.25155e-08
9.77064e-08
1.02303e-07
1.06375e-07
1.0999e-07
1.13209e-07
1.16087e-07
1.18671e-07
1.20996e-07
1.23089e-07
1.24967e-07
1.26642e-07
1.28115e-07
1.29384e-07
1.30442e-07
1.31279e-07
1.31881e-07
1.32236e-07
1.32328e-07
1.32146e-07
1.31653e-07
1.30831e-07
1.29779e-07
1.28416e-07
1.26759e-07
1.24739e-07
1.22403e-07
1.19759e-07
1.16817e-07
1.13591e-07
1.10096e-07
1.0635e-07
1.02373e-07
9.81872e-08
9.3818e-08
8.92909e-08
8.46329e-08
7.98715e-08
7.50342e-08
7.01482e-08
6.52396e-08
6.03334e-08
5.54524e-08
5.0617e-08
4.5845e-08
4.11511e-08
3.65476e-08
3.20443e-08
2.76503e-08
2.33769e-08
1.92423e-08
1.52791e-08
1.15452e-08
8.13509e-09
5.18267e-09
2.8464e-09
1.24363e-09
3.69901e-10
4.98733e-11
2.93975e-13
7.01353e-13
1.19306e-10
8.96037e-10
3.08869e-09
7.30927e-09
1.37784e-08
2.22762e-08
3.22629e-08
4.30671e-08
5.40676e-08
6.47805e-08
7.48797e-08
8.41768e-08
9.2589e-08
1.00106e-07
1.06766e-07
1.12634e-07
1.17789e-07
1.22314e-07
1.26293e-07
1.29798e-07
1.32895e-07
1.35638e-07
1.38071e-07
1.40225e-07
1.4212e-07
1.43771e-07
1.4518e-07
1.46346e-07
1.47264e-07
1.47923e-07
1.48311e-07
1.48415e-07
1.48224e-07
1.47725e-07
1.46866e-07
1.45685e-07
1.44238e-07
1.42447e-07
1.4035e-07
1.37888e-07
1.35075e-07
1.31945e-07
1.28511e-07
1.24787e-07
1.2079e-07
1.16542e-07
1.12063e-07
1.07379e-07
1.02514e-07
9.7497e-08
9.23546e-08
8.71154e-08
8.18076e-08
7.64588e-08
7.10957e-08
6.57433e-08
6.04248e-08
5.51607e-08
4.99687e-08
4.48636e-08
3.98573e-08
3.49596e-08
3.01794e-08
2.55283e-08
2.10255e-08
1.6706e-08
1.26327e-08
8.90854e-09
5.68014e-09
3.12241e-09
1.3654e-09
4.06414e-10
5.48204e-11
3.23214e-13
7.81875e-13
1.33116e-10
1.00178e-09
3.46338e-09
8.22383e-09
1.55549e-08
2.52224e-08
3.66186e-08
4.89674e-08
6.15435e-08
7.37777e-08
8.5285e-08
9.58431e-08
1.05355e-07
1.13809e-07
1.21252e-07
1.27761e-07
1.33433e-07
1.38365e-07
1.42655e-07
1.4639e-07
1.49647e-07
1.52488e-07
1.54965e-07
1.57114e-07
1.5896e-07
1.60519e-07
1.61798e-07
1.62796e-07
1.63508e-07
1.63926e-07
1.6404e-07
1.63839e-07
1.63311e-07
1.62448e-07
1.6118e-07
1.59616e-07
1.57741e-07
1.55504e-07
1.52942e-07
1.50036e-07
1.46744e-07
1.43133e-07
1.39216e-07
1.35009e-07
1.30532e-07
1.25806e-07
1.20855e-07
1.15704e-07
1.10379e-07
1.04909e-07
9.93209e-08
9.36443e-08
8.79073e-08
8.21379e-08
7.63627e-08
7.0607e-08
6.48939e-08
5.92441e-08
5.36754e-08
4.82026e-08
4.28374e-08
3.75893e-08
3.24673e-08
2.74827e-08
2.2655e-08
1.80205e-08
1.36452e-08
9.63829e-09
6.15678e-09
3.3912e-09
1.48582e-09
4.42952e-10
5.98053e-11
3.52753e-13
8.65569e-13
1.47473e-10
1.11176e-09
3.85304e-09
9.17425e-09
1.73983e-08
2.8274e-08
4.11198e-08
5.50498e-08
6.92298e-08
8.30032e-08
9.59249e-08
1.07739e-07
1.18333e-07
1.27698e-07
1.35889e-07
1.42999e-07
1.49138e-07
1.54425e-07
1.5897e-07
1.62875e-07
1.6623e-07
1.69107e-07
1.71564e-07
1.73644e-07
1.75377e-07
1.76782e-07
1.77868e-07
1.78637e-07
1.79087e-07
1.79212e-07
1.79003e-07
1.78452e-07
1.77552e-07
1.76282e-07
1.74583e-07
1.72622e-07
1.70303e-07
1.67614e-07
1.64579e-07
1.61233e-07
1.57476e-07
1.53399e-07
1.49017e-07
1.44351e-07
1.39419e-07
1.34245e-07
1.28853e-07
1.23269e-07
1.17519e-07
1.11631e-07
1.05635e-07
9.95578e-08
9.34287e-08
8.72755e-08
8.1125e-08
7.50023e-08
6.89309e-08
6.29315e-08
5.70221e-08
5.12176e-08
4.55299e-08
3.99685e-08
3.45421e-08
2.92618e-08
2.41468e-08
1.92336e-08
1.45897e-08
1.03283e-08
6.61463e-09
3.65366e-09
1.60522e-09
4.79614e-10
6.48412e-11
3.82668e-13
9.52232e-13
1.62344e-10
1.22572e-09
4.25675e-09
1.01582e-08
1.9304e-08
3.14222e-08
4.57528e-08
6.12938e-08
7.70988e-08
9.24212e-08
1.06755e-07
1.19811e-07
1.31465e-07
1.41708e-07
1.50606e-07
1.58269e-07
1.64825e-07
1.7041e-07
1.75151e-07
1.79167e-07
1.82558e-07
1.85408e-07
1.87784e-07
1.89734e-07
1.91295e-07
1.92488e-07
1.93327e-07
1.93818e-07
1.93959e-07
1.93748e-07
1.9318e-07
1.92249e-07
1.90951e-07
1.89239e-07
1.87128e-07
1.84749e-07
1.81986e-07
1.78851e-07
1.75355e-07
1.71562e-07
1.67379e-07
1.62855e-07
1.58035e-07
1.52937e-07
1.47581e-07
1.4199e-07
1.3619e-07
1.30204e-07
1.24062e-07
1.1779e-07
1.11417e-07
1.04971e-07
9.84814e-08
9.1975e-08
8.54789e-08
7.90186e-08
7.26174e-08
6.62965e-08
6.00744e-08
5.39662e-08
4.79844e-08
4.21385e-08
3.64374e-08
3.08918e-08
2.55203e-08
2.03589e-08
1.54748e-08
1.09835e-08
7.05629e-09
3.91097e-09
1.72408e-09
5.16535e-10
6.99461e-11
4.13064e-13
1.04162e-12
1.77687e-10
1.34332e-09
4.67331e-09
1.11726e-08
2.12658e-08
3.46566e-08
5.05011e-08
6.76765e-08
8.51203e-08
1.01994e-07
1.17732e-07
1.32011e-07
1.44695e-07
1.55778e-07
1.6534e-07
1.73506e-07
1.80424e-07
1.86249e-07
1.91128e-07
1.95194e-07
1.98562e-07
2.01327e-07
2.03563e-07
2.05329e-07
2.06665e-07
2.07598e-07
2.08145e-07
2.08316e-07
2.08113e-07
2.07537e-07
2.06585e-07
2.05255e-07
2.03544e-07
2.01383e-07
1.98886e-07
1.96078e-07
1.92883e-07
1.89315e-07
1.85388e-07
1.8116e-07
1.76585e-07
1.71643e-07
1.66413e-07
1.60914e-07
1.55165e-07
1.49189e-07
1.4301e-07
1.36653e-07
1.30147e-07
1.23518e-07
1.16795e-07
1.10007e-07
1.0318e-07
9.63439e-08
8.95246e-08
8.27479e-08
7.60376e-08
6.94155e-08
6.29005e-08
5.65086e-08
5.02529e-08
4.41435e-08
3.81895e-08
3.24014e-08
2.67972e-08
2.14114e-08
1.63104e-08
1.16096e-08
7.48472e-09
4.16448e-09
1.84292e-09
5.53874e-10
7.51416e-11
4.44071e-13
1.13343e-12
1.93449e-10
1.46416e-09
5.10123e-09
1.22138e-08
2.32761e-08
3.79644e-08
5.53457e-08
7.41718e-08
9.32614e-08
1.11683e-07
1.28811e-07
1.44288e-07
1.57969e-07
1.69852e-07
1.80031e-07
1.88648e-07
1.95874e-07
2.01884e-07
2.06843e-07
2.10902e-07
2.14191e-07
2.16816e-07
2.18862e-07
2.20394e-07
2.2146e-07
2.22093e-07
2.22314e-07
2.22137e-07
2.21567e-07
2.20609e-07
2.19263e-07
2.17531e-07
2.154e-07
2.12807e-07
2.09944e-07
2.0672e-07
2.03115e-07
1.99142e-07
1.94815e-07
1.90176e-07
1.85241e-07
1.79918e-07
1.74313e-07
1.68444e-07
1.62332e-07
1.55998e-07
1.49467e-07
1.42765e-07
1.35918e-07
1.28953e-07
1.219e-07
1.14786e-07
1.07639e-07
1.00488e-07
9.33601e-08
8.62805e-08
7.9274e-08
7.23629e-08
6.55672e-08
5.89038e-08
5.23866e-08
4.6027e-08
3.98343e-08
3.38193e-08
2.79991e-08
2.24068e-08
1.71065e-08
1.22127e-08
7.9031e-09
4.41565e-09
1.96235e-09
5.91809e-10
8.04526e-11
4.75836e-13
1.22734e-12
2.09574e-10
1.58779e-09
5.53877e-09
1.32772e-08
2.53261e-08
4.13307e-08
6.02648e-08
8.07509e-08
1.01486e-07
1.21447e-07
1.39945e-07
1.56592e-07
1.71235e-07
1.83876e-07
1.94623e-07
2.03641e-07
2.11122e-07
2.17262e-07
2.22247e-07
2.26247e-07
2.29405e-07
2.31842e-07
2.33653e-07
2.34913e-07
2.35675e-07
2.35978e-07
2.3585e-07
2.35306e-07
2.34359e-07
2.33015e-07
2.3128e-07
2.29157e-07
2.266e-07
2.23635e-07
2.20412e-07
2.16803e-07
2.12822e-07
2.08481e-07
2.03794e-07
1.98779e-07
1.93503e-07
1.87853e-07
1.81903e-07
1.75695e-07
1.69247e-07
1.62581e-07
1.5572e-07
1.4869e-07
1.41517e-07
1.3423e-07
1.26857e-07
1.19427e-07
1.11969e-07
1.0451e-07
9.70787e-08
8.97017e-08
8.24039e-08
7.52086e-08
6.81369e-08
6.1207e-08
5.44339e-08
4.78303e-08
4.14063e-08
3.51732e-08
2.91474e-08
2.33603e-08
1.78734e-08
1.27987e-08
8.31466e-09
4.66598e-09
2.08297e-09
6.30529e-10
8.59053e-11
5.08516e-13
1.32296e-12
2.25993e-10
1.71364e-09
5.98394e-09
1.43578e-08
2.74057e-08
4.47387e-08
6.52339e-08
8.73818e-08
1.09757e-07
1.31241e-07
1.51086e-07
1.68873e-07
1.8444e-07
1.97796e-07
2.09066e-07
2.18436e-07
2.2612e-07
2.32339e-07
2.37301e-07
2.41194e-07
2.44177e-07
2.46386e-07
2.47927e-07
2.48883e-07
2.49316e-07
2.49271e-07
2.48782e-07
2.47868e-07
2.46547e-07
2.44827e-07
2.42716e-07
2.40219e-07
2.37266e-07
2.33995e-07
2.30423e-07
2.26472e-07
2.22157e-07
2.17491e-07
2.12484e-07
2.0715e-07
2.01547e-07
1.95623e-07
1.8936e-07
1.8284e-07
1.7608e-07
1.691e-07
1.61924e-07
1.54577e-07
1.47086e-07
1.39481e-07
1.31791e-07
1.24044e-07
1.16272e-07
1.08504e-07
1.00767e-07
9.30898e-08
8.54981e-08
7.80164e-08
7.06666e-08
6.34685e-08
5.64387e-08
4.95911e-08
4.29372e-08
3.64887e-08
3.02618e-08
2.42863e-08
1.86207e-08
1.33735e-08
8.72252e-09
4.91691e-09
2.2054e-09
6.70226e-10
9.15272e-11
5.42278e-13
1.41985e-12
2.42632e-10
1.84114e-09
6.43446e-09
1.54498e-08
2.95034e-08
4.81697e-08
7.02265e-08
9.40302e-08
1.18032e-07
1.4102e-07
1.62185e-07
1.8108e-07
1.97532e-07
2.11562e-07
2.2331e-07
2.32985e-07
2.40827e-07
2.4708e-07
2.51974e-07
2.55718e-07
2.5849e-07
2.60438e-07
2.61682e-07
2.62314e-07
2.62405e-07
2.62006e-07
2.61156e-07
2.59881e-07
2.582e-07
2.56128e-07
2.53675e-07
2.50824e-07
2.47532e-07
2.44002e-07
2.40123e-07
2.35879e-07
2.31283e-07
2.26341e-07
2.21064e-07
2.1546e-07
2.09564e-07
2.034e-07
1.96861e-07
1.90056e-07
1.83003e-07
1.75722e-07
1.68238e-07
1.60576e-07
1.52765e-07
1.44836e-07
1.36819e-07
1.28747e-07
1.2065e-07
1.12559e-07
1.04505e-07
9.65169e-08
8.8621e-08
8.08432e-08
7.32069e-08
6.57331e-08
5.84399e-08
5.13429e-08
4.4455e-08
3.77887e-08
3.13603e-08
2.51981e-08
1.93574e-08
1.39424e-08
9.12961e-09
5.16982e-09
2.33021e-09
7.11083e-10
9.73449e-11
5.77285e-13
1.51756e-12
2.59409e-10
1.96961e-09
6.88787e-09
1.65469e-08
3.16068e-08
5.16035e-08
7.52137e-08
1.0066e-07
1.26269e-07
1.50736e-07
1.73192e-07
1.9316e-07
2.10462e-07
2.25125e-07
2.37309e-07
2.47247e-07
2.55205e-07
2.61451e-07
2.66241e-07
2.69804e-07
2.72335e-07
2.74e-07
2.7493e-07
2.75228e-07
2.74973e-07
2.74226e-07
2.73028e-07
2.71412e-07
2.69402e-07
2.67012e-07
2.64258e-07
2.61088e-07
2.57554e-07
2.53787e-07
2.49662e-07
2.45186e-07
2.40366e-07
2.35207e-07
2.29714e-07
2.23892e-07
2.1775e-07
2.11342e-07
2.04593e-07
1.9752e-07
1.90187e-07
1.82612e-07
1.74819e-07
1.66835e-07
1.58692e-07
1.50422e-07
1.4206e-07
1.33639e-07
1.25196e-07
1.16761e-07
1.08369e-07
1.00049e-07
9.18306e-08
8.37401e-08
7.58024e-08
6.80396e-08
6.04715e-08
5.31149e-08
4.59844e-08
3.90936e-08
3.24589e-08
2.61074e-08
2.00914e-08
1.45106e-08
9.53848e-09
5.4259e-09
2.45791e-09
7.53271e-10
1.03384e-10
6.13694e-13
1.61559e-12
2.76236e-10
2.09835e-09
7.34149e-09
1.76423e-08
3.37028e-08
5.50188e-08
8.01655e-08
1.07232e-07
1.34423e-07
1.6034e-07
1.84055e-07
2.05063e-07
2.23178e-07
2.38437e-07
2.5102e-07
2.61184e-07
2.69222e-07
2.75429e-07
2.80085e-07
2.83441e-07
2.85712e-07
2.8708e-07
2.87689e-07
2.87654e-07
2.87063e-07
2.85983e-07
2.84464e-07
2.8254e-07
2.80239e-07
2.7758e-07
2.74573e-07
2.71153e-07
2.67455e-07
2.63497e-07
2.59195e-07
2.54554e-07
2.49577e-07
2.44262e-07
2.38609e-07
2.32618e-07
2.2629e-07
2.19655e-07
2.12724e-07
2.05409e-07
1.97806e-07
1.89936e-07
1.81825e-07
1.73504e-07
1.65006e-07
1.56369e-07
1.4763e-07
1.38829e-07
1.30004e-07
1.21193e-07
1.1243e-07
1.03749e-07
9.5181e-08
8.67536e-08
7.8493e-08
7.04224e-08
6.25627e-08
5.4932e-08
4.75464e-08
4.04204e-08
3.35711e-08
2.70245e-08
2.083e-08
1.50826e-08
9.95118e-09
5.68617e-09
2.58895e-09
7.96942e-10
1.09668e-10
6.51653e-13
1.71339e-12
2.93019e-10
2.2266e-09
7.7925e-09
1.8729e-08
3.57773e-08
5.83929e-08
8.50503e-08
1.13707e-07
1.42448e-07
1.69782e-07
1.94724e-07
2.16737e-07
2.35632e-07
2.51454e-07
2.64403e-07
2.74762e-07
2.8285e-07
2.88992e-07
2.93492e-07
2.96625e-07
2.98626e-07
2.99693e-07
2.99986e-07
2.99629e-07
2.98722e-07
2.97338e-07
2.95533e-07
2.93347e-07
2.90809e-07
2.8794e-07
2.84739e-07
2.81152e-07
2.77356e-07
2.73278e-07
2.68875e-07
2.64144e-07
2.59081e-07
2.53678e-07
2.47928e-07
2.41823e-07
2.3536e-07
2.2854e-07
2.21407e-07
2.13904e-07
2.06033e-07
1.97863e-07
1.89419e-07
1.80736e-07
1.71851e-07
1.62808e-07
1.5365e-07
1.44423e-07
1.35172e-07
1.25937e-07
1.16761e-07
1.07679e-07
9.8724e-08
8.99272e-08
8.1315e-08
7.29117e-08
6.47389e-08
5.68155e-08
4.91585e-08
4.17837e-08
3.47083e-08
2.79578e-08
2.15789e-08
1.56616e-08
1.03697e-08
5.9515e-09
2.7237e-09
8.42223e-10
1.16216e-10
6.91291e-13
1.8104e-12
3.09659e-10
2.35357e-09
8.23795e-09
1.97994e-08
3.78161e-08
6.17028e-08
8.98361e-08
1.20046e-07
1.50299e-07
1.79014e-07
2.05147e-07
2.28134e-07
2.47776e-07
2.64132e-07
2.77419e-07
2.87948e-07
2.96066e-07
3.02125e-07
3.06457e-07
3.09359e-07
3.11089e-07
3.11862e-07
3.11851e-07
3.11196e-07
3.10002e-07
3.08353e-07
3.06309e-07
3.03915e-07
3.01203e-07
2.98195e-07
2.94874e-07
2.91211e-07
2.87383e-07
2.8327e-07
2.78849e-07
2.7411e-07
2.69039e-07
2.6362e-07
2.57837e-07
2.51676e-07
2.45124e-07
2.38177e-07
2.30842e-07
2.23164e-07
2.15043e-07
2.06562e-07
1.97765e-07
1.88687e-07
1.79376e-07
1.69878e-07
1.60247e-07
1.50537e-07
1.40799e-07
1.31083e-07
1.21437e-07
1.11901e-07
1.02512e-07
9.33037e-08
8.43034e-08
7.55359e-08
6.70229e-08
5.87839e-08
5.0836e-08
4.31956e-08
3.58801e-08
2.89145e-08
2.23427e-08
1.62504e-08
1.07956e-08
6.22267e-09
2.86241e-09
8.89211e-10
1.23046e-10
7.32719e-13
1.90607e-12
3.26057e-10
2.47845e-09
8.67482e-09
2.0846e-08
3.98046e-08
6.49254e-08
9.44907e-08
1.26208e-07
1.5793e-07
1.87986e-07
2.15275e-07
2.39203e-07
2.59566e-07
2.76431e-07
2.90036e-07
3.00716e-07
3.0885e-07
3.14816e-07
3.18976e-07
3.2165e-07
3.23117e-07
3.23611e-07
3.23321e-07
3.22397e-07
3.20958e-07
3.19092e-07
3.16866e-07
3.14328e-07
3.11512e-07
3.0844e-07
3.05096e-07
3.01453e-07
2.97659e-07
2.93603e-07
2.89255e-07
2.84595e-07
2.79599e-07
2.74241e-07
2.68496e-07
2.6234e-07
2.55752e-07
2.48719e-07
2.41235e-07
2.33332e-07
2.25005e-07
2.16204e-07
2.07027e-07
1.97519e-07
1.87732e-07
1.77723e-07
1.67555e-07
1.57291e-07
1.46995e-07
1.36726e-07
1.26539e-07
1.16484e-07
1.06601e-07
9.69282e-08
8.74935e-08
7.83225e-08
6.94365e-08
6.0854e-08
5.25919e-08
4.46663e-08
3.70944e-08
2.99002e-08
2.31256e-08
1.68513e-08
1.12293e-08
6.50057e-09
3.00523e-09
9.37971e-10
1.3017e-10
7.76025e-13
1.99979e-12
3.4211e-10
2.60042e-09
9.1001e-09
2.18613e-08
4.17283e-08
6.80375e-08
9.89822e-08
1.32154e-07
1.65295e-07
1.96649e-07
2.25059e-07
2.49899e-07
2.70958e-07
2.88312e-07
3.0222e-07
3.13042e-07
3.21185e-07
3.27059e-07
3.3105e-07
3.33507e-07
3.34729e-07
3.34968e-07
3.34431e-07
3.33281e-07
3.31644e-07
3.29618e-07
3.27274e-07
3.24664e-07
3.21822e-07
3.18767e-07
3.15504e-07
3.11986e-07
3.08297e-07
3.04397e-07
3.00216e-07
2.95726e-07
2.90893e-07
2.8568e-07
2.80048e-07
2.73963e-07
2.67394e-07
2.6032e-07
2.52729e-07
2.44618e-07
2.36045e-07
2.26955e-07
2.17372e-07
2.07393e-07
1.97078e-07
1.86493e-07
1.75714e-07
1.64816e-07
1.53877e-07
1.42969e-07
1.32158e-07
1.21503e-07
1.11054e-07
1.0085e-07
9.09238e-08
8.13009e-08
7.20013e-08
6.30421e-08
5.44384e-08
4.62048e-08
3.83577e-08
3.09198e-08
2.39306e-08
1.74661e-08
1.1672e-08
6.78511e-09
3.15223e-09
9.88536e-10
1.37596e-10
8.2127e-13
2.091e-12
3.57716e-10
2.71867e-09
9.51079e-09
2.28379e-08
4.3573e-08
7.10166e-08
1.0328e-07
1.37845e-07
1.72352e-07
2.04959e-07
2.34452e-07
2.60177e-07
2.81912e-07
2.99742e-07
3.13944e-07
3.24905e-07
3.3306e-07
3.38848e-07
3.42685e-07
3.44943e-07
3.45945e-07
3.45964e-07
3.4522e-07
3.43891e-07
3.42112e-07
3.3999e-07
3.376e-07
3.34997e-07
3.32214e-07
3.29269e-07
3.26166e-07
3.22892e-07
3.19403e-07
3.15751e-07
3.11835e-07
3.07613e-07
3.03035e-07
2.98052e-07
2.92613e-07
2.86671e-07
2.80183e-07
2.73118e-07
2.65455e-07
2.57184e-07
2.4833e-07
2.38952e-07
2.28957e-07
2.18469e-07
2.07571e-07
1.96343e-07
1.84872e-07
1.73251e-07
1.61573e-07
1.49927e-07
1.38393e-07
1.27044e-07
1.15939e-07
1.05125e-07
9.46376e-08
8.45034e-08
7.47411e-08
6.5365e-08
5.63872e-08
4.78195e-08
3.9676e-08
3.19774e-08
2.47603e-08
1.80963e-08
1.21244e-08
7.0763e-09
3.30336e-09
1.0409e-09
1.45328e-10
8.68493e-13
2.17911e-12
3.72775e-10
2.83241e-09
9.90399e-09
2.37686e-08
4.53252e-08
7.38415e-08
1.07354e-07
1.43245e-07
1.79058e-07
2.12871e-07
2.43411e-07
2.69995e-07
2.9239e-07
3.10688e-07
3.25183e-07
3.36287e-07
3.44464e-07
3.50182e-07
3.53885e-07
3.55972e-07
3.56789e-07
3.56626e-07
3.55724e-07
3.5427e-07
3.52412e-07
3.50263e-07
3.47903e-07
3.45389e-07
3.42754e-07
3.40014e-07
3.37167e-07
3.34198e-07
3.3108e-07
3.27756e-07
3.24194e-07
3.20338e-07
3.16112e-07
3.11448e-07
3.06287e-07
3.00565e-07
2.94227e-07
2.87229e-07
2.7954e-07
2.71145e-07
2.62046e-07
2.52309e-07
2.41934e-07
2.30899e-07
2.19365e-07
2.07424e-07
1.95179e-07
1.82739e-07
1.70218e-07
1.57723e-07
1.45354e-07
1.33201e-07
1.21336e-07
1.09817e-07
9.86845e-08
8.79673e-08
7.76828e-08
6.78416e-08
5.84511e-08
4.95189e-08
4.10549e-08
3.30766e-08
2.5617e-08
1.8743e-08
1.25866e-08
7.37405e-09
3.45849e-09
1.09504e-09
1.53364e-10
9.17702e-13
2.26357e-12
3.8719e-10
2.94088e-09
1.0277e-08
2.46468e-08
4.69724e-08
7.64922e-08
1.11177e-07
1.48321e-07
1.85376e-07
2.20343e-07
2.51895e-07
2.79314e-07
3.02357e-07
3.21119e-07
3.35912e-07
3.47172e-07
3.55389e-07
3.61061e-07
3.64659e-07
3.66609e-07
3.6728e-07
3.66984e-07
3.65975e-07
3.64456e-07
3.62585e-07
3.60481e-07
3.5823e-07
3.5589e-07
3.53493e-07
3.51052e-07
3.48559e-07
3.45992e-07
3.4331e-07
3.40461e-07
3.3739e-07
3.33955e-07
3.3018e-07
3.25925e-07
3.21131e-07
3.15711e-07
3.09597e-07
3.02731e-07
2.95071e-07
2.86592e-07
2.7729e-07
2.67184e-07
2.56393e-07
2.44824e-07
2.32602e-07
2.19881e-07
2.06778e-07
1.93423e-07
1.79948e-07
1.66485e-07
1.53159e-07
1.40078e-07
1.27334e-07
1.14999e-07
1.03122e-07
9.1736e-08
8.08576e-08
7.04933e-08
6.06446e-08
5.13121e-08
4.25001e-08
3.42208e-08
2.65027e-08
1.9407e-08
1.30589e-08
7.67815e-09
3.6174e-09
1.15088e-09
1.61698e-10
9.68882e-13
2.34386e-12
4.00871e-10
3.04336e-09
1.06272e-08
2.54663e-08
4.85029e-08
7.89505e-08
1.14724e-07
1.5304e-07
1.91269e-07
2.27338e-07
2.59865e-07
2.88098e-07
3.11781e-07
3.31011e-07
3.46113e-07
3.57546e-07
3.65828e-07
3.71484e-07
3.75014e-07
3.76868e-07
3.7744e-07
3.77062e-07
3.76003e-07
3.74483e-07
3.72667e-07
3.70683e-07
3.6862e-07
3.66537e-07
3.64466e-07
3.62416e-07
3.60372e-07
3.58302e-07
3.56156e-07
3.53868e-07
3.5136e-07
3.48536e-07
3.45303e-07
3.41499e-07
3.37168e-07
3.32133e-07
3.26322e-07
3.19659e-07
3.12089e-07
3.03574e-07
2.94101e-07
2.83682e-07
2.72416e-07
2.60337e-07
2.47398e-07
2.33841e-07
2.19803e-07
2.05436e-07
1.90896e-07
1.76343e-07
1.61927e-07
1.47784e-07
1.34029e-07
1.20751e-07
1.08015e-07
9.58597e-08
8.43023e-08
7.33458e-08
6.29842e-08
5.32097e-08
4.40178e-08
3.54136e-08
2.7419e-08
2.00891e-08
1.35413e-08
7.98835e-09
3.77984e-09
1.20834e-09
1.70322e-10
1.02199e-12
2.41948e-12
4.13732e-10
3.13921e-09
1.09523e-08
2.62218e-08
4.99066e-08
8.12005e-08
1.17973e-07
1.57376e-07
1.96705e-07
2.33822e-07
2.67287e-07
2.96315e-07
3.20633e-07
3.40337e-07
3.55766e-07
3.67399e-07
3.75777e-07
3.81455e-07
3.84957e-07
3.86763e-07
3.87287e-07
3.86881e-07
3.85834e-07
3.84376e-07
3.82684e-07
3.80893e-07
3.79095e-07
3.77351e-07
3.75691e-07
3.74118e-07
3.72613e-07
3.71132e-07
3.69615e-07
3.67982e-07
3.66139e-07
3.63981e-07
3.61396e-07
3.58272e-07
3.54389e-07
3.49816e-07
3.44388e-07
3.38007e-07
3.30597e-07
3.22107e-07
3.12514e-07
3.01827e-07
2.90085e-07
2.77459e-07
2.63838e-07
2.49398e-07
2.34361e-07
2.18896e-07
2.03186e-07
1.8742e-07
1.7178e-07
1.56432e-07
1.41521e-07
1.27162e-07
1.13436e-07
1.00395e-07
8.80592e-08
7.64288e-08
6.54898e-08
5.52238e-08
4.56152e-08
3.66588e-08