/*--------------------------------*- C++ -*----------------------------------*\
  =========                 |
  \\      /  F ield         | OpenFOAM: The Open Source CFD Toolbox
   \\    /   O peration     | Website:  https://openfoam.org
    \\  /    A nd           | Version:  12
     \\/     M anipulation  |
\*---------------------------------------------------------------------------*/
FoamFile
{
    format      ascii;
    class       volScalarField;
    location    "2";
    object      p;
}
// * * * * * * * * * * * * * * * * * * * * * * * * * * * * * * * * * * * * * //

dimensions      [0 2 -2 0 0 0 0];

internalField   nonuniform List<scalar> 
5625
(
2.27444e-07
-9.32681e-06
-5.55604e-05
-0.00014101
-0.00025609
-0.000391581
-0.000539852
-0.000694718
-0.000851331
-0.00100605
-0.00115621
-0.00129992
-0.00143581
-0.0015629
-0.00168042
-0.00178772
-0.00188417
-0.00196906
-0.00204165
-0.00210107
-0.00214635
-0.00217645
-0.00219025
-0.00218662
-0.00216445
-0.00212267
-0.00206035
-0.00197672
-0.0018712
-0.00174353
-0.00159372
-0.00142218
-0.0012297
-0.00101752
-0.000787321
-0.000541362
-0.000282232
-1.28685e-05
0.000262992
0.000541452
0.000818279
0.00108896
0.0013488
0.00159306
0.00181703
0.00201618
0.00218627
0.00232348
0.0024245
0.00248669
0.00250815
0.00248778
0.00242535
0.00232154
0.00217796
0.00199705
0.00178214
0.00153732
0.00126733
0.000977531
0.000673719
0.000362046
4.88987e-05
-0.000259224
-0.000555819
-0.000834471
-0.00108896
-0.00131336
-0.00150225
-0.00165092
-0.00175586
-0.00181547
-0.00183111
-0.00181028
-0.00177672
9.68009e-06
-1.38921e-07
-4.17405e-05
-0.000117559
-0.000219391
-0.000339617
-0.00047188
-0.000610955
-0.000752603
-0.000893517
-0.0010312
-0.00116378
-0.00128987
-0.00140843
-0.00151862
-0.00161969
-0.00171096
-0.00179169
-0.00186113
-0.00191842
-0.00196262
-0.00199276
-0.00200778
-0.00200663
-0.00198829
-0.00195178
-0.00189624
-0.00182095
-0.00172543
-0.0016094
-0.0014729
-0.00131632
-0.00114039
-0.000946268
-0.000735533
-0.00051029
-0.000272837
-2.60351e-05
0.000226663
0.000481685
0.000735087
0.000982674
0.0012201
0.00144296
0.00164689
0.0018277
0.00198147
0.00210466
0.00219425
0.00224781
0.00226362
0.0022407
0.0021789
0.00207892
0.00194229
0.00177136
0.00156926
0.00133986
0.0010876
0.000817493
0.000534938
0.000245648
-4.44867e-05
-0.000329493
-0.000603429
-0.000860494
-0.00109513
-0.00130215
-0.00147687
-0.00161538
-0.00171488
-0.00177416
-0.0017937
-0.00177701
-0.00174328
5.60615e-05
4.08139e-05
-1.4821e-06
-7.20469e-05
-0.000164218
-0.00027201
-0.000390427
-0.00051521
-0.000642818
-0.000770413
-0.000895775
-0.0010172
-0.00113335
-0.00124321
-0.00134592
-0.00144071
-0.00152686
-0.00160366
-0.00167031
-0.001726
-0.00176982
-0.00180084
-0.00181806
-0.00182051
-0.00180721
-0.00177725
-0.00172982
-0.00166425
-0.00158007
-0.001477
-0.00135508
-0.00121461
-0.00105628
-0.000881117
-0.000690573
-0.000486519
-0.000271109
-4.70703e-05
0.000182543
0.000414379
0.000644776
0.00086984
0.00108553
0.00128775
0.00147245
0.00163572
0.00177392
0.00188375
0.00196243
0.0020077
0.002018
0.00199244
0.00193095
0.00183421
0.00170372
0.00154172
0.00135121
0.00113581
0.000899733
0.000647662
0.000384643
0.000115973
-0.000152912
-0.000416546
-0.00066954
-0.000906688
-0.00112307
-0.00131415
-0.00147593
-0.00160509
-0.00169926
-0.00175722
-0.00177802
-0.00176073
-0.00172207
0.000143513
0.000116976
6.7203e-05
-4.66288e-06
-9.36829e-05
-0.000195254
-0.000305416
-0.000420759
-0.000538428
-0.000656104
-0.000771945
-0.000884504
-0.000992641
-0.00109543
-0.0011921
-0.00128193
-0.00136424
-0.00143831
-0.0015034
-0.0015587
-0.00160333
-0.00163639
-0.00165692
-0.00166395
-0.00165654
-0.0016338
-0.00159491
-0.00153921
-0.00146617
-0.00137551
-0.00126718
-0.00114141
-0.000998778
-0.000840197
-0.000666967
-0.000480777
-0.000283674
-7.81514e-05
0.000132951
0.000346468
0.000558945
0.000766697
0.000965889
0.00115262
0.00132302
0.00147337
0.00160016
0.00170025
0.00177097
0.00181016
0.00181633
0.00178866
0.00172707
0.00163226
0.00150569
0.00134955
0.00116672
0.000960705
0.000735553
0.000495739
0.000246064
-8.4604e-06
-0.000262724
-0.000511632
-0.000750204
-0.000973677
-0.00117759
-0.00135789
-0.00151098
-0.00163384
-0.00172421
-0.00178053
-0.00180051
-0.00178028
-0.00173625
0.000263551
0.000220851
0.000158173
8.00907e-05
-1.04405e-05
-0.000110177
-0.000216057
-0.000325454
-0.000436189
-0.000546497
-0.000654969
-0.000760493
-0.000862181
-0.000959297
-0.00105119
-0.00113726
-0.00121688
-0.00128939
-0.00135409
-0.00141018
-0.00145683
-0.00149312
-0.00151811
-0.00153084
-0.00153034
-0.0015157
-0.00148609
-0.00144076
-0.00137917
-0.00130091
-0.00120587
-0.00109415
-0.000966215
-0.000822833
-0.000665153
-0.000494706
-0.000313397
-0.000123538
7.21966e-05
0.000270796
0.000468953
0.000663127
0.000849609
0.00102462
0.00118438
0.00132525
0.0014438
0.00153695
0.00160205
0.001637
0.00164029
0.00161112
0.00154941
0.00145584
0.00133182
0.00117952
0.00100176
0.000801958
0.000584065
0.000352424
0.000111679
-0.000133354
-0.000377795
-0.000616818
-0.000845747
-0.00106015
-0.00125591
-0.0014293
-0.001577
-0.00169619
-0.00178459
-0.00184033
-0.00186027
-0.00183909
-0.00179307
0.0004073
0.000344921
0.000265371
0.000177431
8.19499e-05
-1.91928e-05
-0.000123774
-0.000229912
-0.0003361
-0.000441139
-0.000544089
-0.000644216
-0.000740928
-0.000833723
-0.000922132
-0.00100568
-0.00108383
-0.00115602
-0.00122157
-0.00127973
-0.00132966
-0.00137047
-0.00140119
-0.00142083
-0.00142839
-0.00142291
-0.00140348
-0.00136929
-0.00131968
-0.00125415
-0.00117244
-0.00107454
-0.000960756
-0.000831706
-0.000688383
-0.000532158
-0.000364794
-0.000188448
-5.65944e-06
0.000180683
0.000367381
0.000550979
0.000727842
0.000894235
0.00104642
0.00118076
0.00129384
0.00138256
0.00144423
0.00147672
0.0014785
0.00144872
0.00138726
0.00129476
0.00117261
0.00102293
0.000848497
0.000652699
0.000439419
0.00021293
-2.22224e-05
-0.000261342
-0.000499706
-0.000732673
-0.000955785
-0.00116485
-0.00135601
-0.00152578
-0.00167104
-0.00178911
-0.0018777
-0.00193477
-0.00195683
-0.00193804
-0.00189415
0.000566754
0.000482285
0.000383064
0.000282541
0.000179448
7.4325e-05
-3.13947e-05
-0.000136545
-0.000240279
-0.000341971
-0.000441165
-0.000537528
-0.000630797
-0.00072073
-0.000807062
-0.000889474
-0.000967559
-0.00104082
-0.00110863
-0.00117027
-0.00122493
-0.00127167
-0.00130952
-0.00133743
-0.00135434
-0.00135921
-0.00135102
-0.00132886
-0.00129193
-0.00123961
-0.00117146
-0.00108734
-0.00098737
-0.00087201
-0.000742087
-0.000598816
-0.000443813
-0.000279102
-0.000107107
6.93776e-05
0.000247222
0.000423018
0.00059315
0.00075388
0.000901443
0.00103216
0.00114253
0.00122938
0.00128996
0.00132203
0.00132396
0.00129483
0.00123444
0.00114336
0.00102294
0.000875252
0.000703044
0.000509676
0.000299005
7.52749e-05
-0.000157013
-0.000393226
-0.000628727
-0.000858987
-0.00107969
-0.0012868
-0.00147664
-0.0016459
-0.00179162
-0.0019112
-0.00200241
-0.00206315
-0.00208986
-0.0020769
-0.00203884
0.000734448
0.000626336
0.000505532
0.000390452
0.00027774
0.00016663
5.78027e-05
-4.82647e-05
-0.000151373
-0.00025147
-0.000348588
-0.000442809
-0.000534211
-0.00062283
-0.000708623
-0.000791438
-0.000870998
-0.000946887
-0.00101855
-0.00108528
-0.00114626
-0.00120054
-0.00124709
-0.00128479
-0.00131251
-0.00132908
-0.00133338
-0.00132433
-0.00130098
-0.00126255
-0.00120842
-0.00113826
-0.00105201
-0.000949954
-0.000832738
-0.000701417
-0.000557463
-0.000402777
-0.000239681
-7.09002e-05
0.000100479
0.000271059
0.000437204
0.000595123
0.000740973
0.000870969
0.000981496
0.00106924
0.00113129
0.00116526
0.0011694
0.00114263
0.00108463
0.000995896
0.00087767
0.000731973
0.000561526
0.000369665
0.000160243
-6.25002e-05
-0.000294064
-0.000529828
-0.00076518
-0.000995639
-0.00121695
-0.00142519
-0.00161676
-0.00178847
-0.00193748
-0.00206126
-0.00215762
-0.00222449
-0.00225848
-0.00225445
-0.00222534
0.000903386
0.000770682
0.000627063
0.00049607
0.000372289
0.00025368
0.000140196
3.16429e-05
-7.24189e-05
-0.000172502
-0.000269132
-0.000362802
-0.00045394
-0.000542866
-0.000629762
-0.000714653
-0.000797389
-0.000877643
-0.000954909
-0.00102851
-0.0010976
-0.00116121
-0.00121823
-0.00126747
-0.00130766
-0.00133752
-0.00135575
-0.00136113
-0.00135252
-0.00132892
-0.00128953
-0.00123381
-0.00116149
-0.00107265
-0.000967758
-0.000847699
-0.000713793
-0.000567822
-0.000412015
-0.00024904
-8.19612e-05
8.58073e-05
0.000250576
0.000408465
0.000555509
0.000687769
0.000801453
0.00089305
0.000959445
0.000998047
0.00100688
0.000984701
0.00093101
0.000846139
0.00073123
0.000588214
0.000419758
0.000229174
2.0312e-05
-0.000202568
-0.000434937
-0.000672145
-0.000909553
-0.00114267
-0.00136724
-0.00157936
-0.00177547
-0.00195243
-0.00210746
-0.00223808
-0.00234215
-0.00241763
-0.00246142
-0.00246906
-0.00245143
0.00106696
0.000909151
0.000741994
0.000594217
0.000458372
0.00033116
0.000211821
9.94961e-05
-6.88218e-06
-0.000108388
-0.00020603
-0.000300716
-0.000393218
-0.000484138
-0.000573883
-0.00066265
-0.000750417
-0.00083694
-0.000921758
-0.0010042
-0.00108341
-0.00115835
-0.00122784
-0.00129057
-0.00134515
-0.00139012
-0.00142403
-0.00144543
-0.00145299
-0.00144548
-0.00142188
-0.0013814
-0.00132355
-0.0012482
-0.0011556
-0.00104646
-0.000921939
-0.000783691
-0.000633855
-0.000475046
-0.000310319
-0.00014312
2.27833e-05
0.000183392
0.000334578
0.000472205
0.000592255
0.000690963
0.000764949
0.000811346
0.000827914
0.000813137
0.000766297
0.000687515
0.000577764
0.000438848
0.000273347
8.45303e-05
-0.000123759
-0.000347236
-0.000581324
-0.000821305
-0.00106247
-0.00130026
-0.00153036
-0.00174882
-0.00195205
-0.00213689
-0.00230056
-0.00244061
-0.00255489
-0.00264139
-0.00269735
-0.00271904
-0.00271495
0.00121883
0.00103574
0.000844715
0.000679665
0.000531119
0.000394527
0.000268414
0.000151263
4.13799e-05
-6.28635e-05
-0.000162954
-0.000260206
-0.000355727
-0.000450395
-0.000544836
-0.000639412
-0.000734219
-0.00082909
-0.000923597
-0.00101707
-0.00110862
-0.00119714
-0.00128134
-0.00135979
-0.00143094
-0.00149315
-0.00154477
-0.00158412
-0.00160963
-0.00161983
-0.00161342
-0.00158937
-0.00154693
-0.00148572
-0.00140578
-0.0013076
-0.00119216
-0.00106099
-0.000916123
-0.000760111
-0.000596002
-0.000427285
-0.00025782
-9.1749e-05
6.66074e-05
0.000212875
0.00034276
0.000452189
0.000537451
0.000595335
0.000623259
0.000619375
0.000582653
0.000512939
0.00041097
0.000278366
0.000117574
-6.82162e-05
-0.000275186
-0.000499031
-0.000735113
-0.000978624
-0.00122474
-0.00146879
-0.00170633
-0.00193328
-0.00214597
-0.00234115
-0.00251597
-0.00266794
-0.00279488
-0.00289474
-0.00296505
-0.00300291
-0.00301406
0.00135288
0.00114458
0.000929659
0.000747145
0.000585547
0.000439053
0.00030547
0.000182619
6.81802e-05
-4.00246e-05
-0.000143953
-0.000245314
-0.000345545
-0.000445787
-0.000546872
-0.00064932
-0.000753333
-0.000858809
-0.000965345
-0.00107226
-0.00117861
-0.00128319
-0.00138463
-0.00148132
-0.00157154
-0.00165346
-0.00172517
-0.00178477
-0.0018304
-0.00186032
-0.00187295
-0.00186695
-0.0018413
-0.00179535
-0.00172887
-0.00164212
-0.0015359
-0.00141154
-0.00127098
-0.00111669
-0.000951704
-0.000779547
-0.000604178
-0.000429899
-0.000261246
-0.000102868
4.06198e-05
0.000164778
0.000265497
0.000339149
0.000382726
0.000393959
0.00037142
0.000314589
0.000223889
0.000100677
-5.27953e-05
-0.000233466
-0.000437579
-0.000660824
-0.000898501
-0.00114569
-0.00139743
-0.00164886
-0.00189537
-0.00213268
-0.00235695
-0.00256476
-0.00275311
-0.00291941
-0.00306135
-0.00317683
-0.00326357
-0.0033195
-0.00334737
0.0014631
0.0012299
0.000991301
0.000791372
0.000616589
0.000459873
0.000318296
0.000189007
6.90614e-05
-4.42646e-05
-0.000153392
-0.000260416
-0.000367089
-0.000474805
-0.00058459
-0.000697106
-0.000812652
-0.000931176
-0.00105229
-0.00117528
-0.00129914
-0.00142258
-0.00154406
-0.00166184
-0.00177398
-0.00187843
-0.00197302
-0.00205558
-0.00212395
-0.00217608
-0.00221006
-0.00222424
-0.00221727
-0.0021882
-0.00213649
-0.00206215
-0.00196574
-0.00184838
-0.00171187
-0.00155857
-0.00139148
-0.00121416
-0.00103065
-0.000845431
-0.000663262
-0.000489097
-0.000327922
-0.000184596
-6.36977e-05
3.06448e-05
9.49032e-05
0.00012629
0.000122875
8.36686e-05
8.67322e-06
-0.000101108
-0.000243703
-0.000416248
-0.000615096
-0.000835965
-0.0010741
-0.00132447
-0.00158193
-0.00184139
-0.002098
-0.00234721
-0.00258493
-0.00280747
-0.00301161
-0.00319454
-0.00335378
-0.00348704
-0.00359225
-0.00366799
-0.00371392
0.00154362
0.001286
0.00102416
0.00080706
0.000619137
0.000452029
0.000302058
0.000165692
3.93581e-05
-8.02115e-05
-0.000195893
-0.000310156
-0.000425058
-0.00054223
-0.00066288
-0.000787798
-0.000917367
-0.00105157
-0.00119003
-0.00133197
-0.00147633
-0.00162169
-0.00176637
-0.00190843
-0.00204573
-0.00217594
-0.00229664
-0.00240535
-0.00249957
-0.0025769
-0.0026351
-0.00267215
-0.00268633
-0.00267634
-0.0026413
-0.00258091
-0.00249544
-0.00238578
-0.00225351
-0.00210088
-0.0019308
-0.00174684
-0.00155311
-0.00135426
-0.00115528
-0.000961465
-0.000778201
-0.000610828
-0.000464465
-0.000343831
-0.000253074
-0.000195615
-0.00017401
-0.000189841
-0.000243648
-0.0003349
-0.000462012
-0.000622404
-0.000812613
-0.00102843
-0.00126508
-0.00151739
-0.00178003
-0.00204763
-0.00231504
-0.00257736
-0.00283012
-0.00306931
-0.00329136
-0.00349315
-0.00367191
-0.00382508
-0.00395072
-0.00404798
-0.00411328
0.00158864
0.00130727
0.00102283
0.000788958
0.000588074
0.000410519
0.000251845
0.000107827
-2.57384e-05
-0.00015266
-0.000276261
-0.000399379
-0.000524359
-0.000653058
-0.000786853
-0.00092665
-0.0010729
-0.00122562
-0.0013844
-0.00154844
-0.00171656
-0.00188722
-0.00205859
-0.00222851
-0.0023946
-0.00255427
-0.00270479
-0.00284333
-0.00296706
-0.00307319
-0.00315908
-0.0032223
-0.00326075
-0.00327268
-0.00325687
-0.00321261
-0.00313983
-0.00303915
-0.00291187
-0.00276006
-0.00258651
-0.00239475
-0.00218895
-0.00197388
-0.00175479
-0.00153731
-0.00132727
-0.00113055
-0.000952871
-0.000799644
-0.000675748
-0.000585367
-0.000531817
-0.000517422
-0.000543411
-0.000609867
-0.000715721
-0.000858796
-0.0010359
-0.00124298
-0.00147526
-0.00172746
-0.00199403
-0.00226929
-0.00254769
-0.00282391
-0.00309304
-0.00335056
-0.00359249
-0.00381528
-0.00401573
-0.00419095
-0.00433899
-0.00445949
-0.0045455
0.00159249
0.00128822
0.000981982
0.000731881
0.000518326
0.000330351
0.000162724
1.05162e-05
-0.00013111
-0.000266499
-0.000399416
-0.000533051
-0.000670031
-0.000812426
-0.000961767
-0.00111906
-0.00128483
-0.00145909
-0.00164141
-0.00183094
-0.00202638
-0.00222607
-0.00242796
-0.00262972
-0.00282868
-0.00302197
-0.00320653
-0.00337917
-0.00353666
-0.0036758
-0.0037935
-0.0038869
-0.00395342
-0.00399086
-0.00399753
-0.00397231
-0.0039147
-0.00382494
-0.00370402
-0.00355376
-0.00337678
-0.00317648
-0.00295705
-0.00272337
-0.00248094
-0.00223571
-0.00199398
-0.00176222
-0.00154685
-0.00135404
-0.00118953
-0.00105841
-0.000964907
-0.000912259
-0.000902556
-0.000936664
-0.00101419
-0.00113351
-0.00129184
-0.00148533
-0.0017093
-0.0019584
-0.00222682
-0.00250855
-0.00279757
-0.00308805
-0.00337449
-0.00365182
-0.00391544
-0.00416125
-0.00438553
-0.00458492
-0.00475735
-0.00490291
-0.00501106
0.00154963
0.0012235
0.00089643
0.000630761
0.000404908
0.000206602
2.98053e-05
-0.000131117
-0.000281637
-0.000426633
-0.000570303
-0.000716182
-0.000867164
-0.00102552
-0.00119293
-0.0013705
-0.00155878
-0.00175781
-0.00196713
-0.0021858
-0.00241243
-0.00264518
-0.00288184
-0.00311982
-0.00335619
-0.00358777
-0.00381113
-0.0040227
-0.00421883
-0.00439585
-0.00455021
-0.00467852
-0.00477768
-0.00484499
-0.00487821
-0.00487571
-0.00483651
-0.00476038
-0.00464795
-0.00450065
-0.00432085
-0.0041118
-0.00387762
-0.00362327
-0.00335443
-0.00307739
-0.00279895
-0.00252617
-0.00226625
-0.00202622
-0.00181282
-0.00163217
-0.0014896
-0.00138943
-0.00133484
-0.00132765
-0.00136837
-0.00145609
-0.00158856
-0.00176233
-0.00197285
-0.00221475
-0.00248199
-0.00276818
-0.00306679
-0.00337135
-0.00367566
-0.00397394
-0.00426087
-0.00453163
-0.00478186
-0.00500755
-0.00520638
-0.00537901
-0.00551082
0.00145473
0.00110793
0.000761162
0.000480694
0.000242988
3.44759e-05
-0.000151687
-0.000321852
-0.000482122
-0.000637901
-0.000793813
-0.000953729
-0.0011208
-0.0012975
-0.00148562
-0.00168637
-0.00190035
-0.00212758
-0.00236758
-0.00261931
-0.00288128
-0.00315149
-0.00342751
-0.00370652
-0.00398531
-0.00426034
-0.00452783
-0.00478377
-0.00502406
-0.00524454
-0.00544111
-0.00560984
-0.00574703
-0.00584939
-0.00591408
-0.00593886
-0.00592218
-0.00586327
-0.00576222
-0.00562007
-0.00543881
-0.00522144
-0.00497196
-0.00469531
-0.00439732
-0.0040846
-0.00376441
-0.00344448
-0.00313279
-0.00283737
-0.00256604
-0.00232614
-0.00212428
-0.00196608
-0.00185599
-0.0017971
-0.00179098
-0.00183768
-0.00193571
-0.00208212
-0.00227268
-0.00250203
-0.00276395
-0.00305165
-0.00335799
-0.00367581
-0.00399808
-0.00431812
-0.00462974
-0.00492726
-0.00520547
-0.00545961
-0.00568701
-0.00588883
-0.00604599
0.00130265
0.000936585
0.000571401
0.000277
2.79404e-05
-0.000190622
-0.000386348
-0.000566298
-0.000737205
-0.00090499
-0.00107469
-0.00125051
-0.00143584
-0.00163335
-0.00184496
-0.00207195
-0.00231496
-0.00257402
-0.00284859
-0.00313756
-0.00343931
-0.00375169
-0.00407205
-0.00439732
-0.00472397
-0.00504814
-0.00536562
-0.00567198
-0.00596261
-0.00623282
-0.00647791
-0.00669334
-0.00687477
-0.00701822
-0.00712018
-0.0071777
-0.00718857
-0.00715135
-0.00706554
-0.0069316
-0.00675109
-0.00652663
-0.00626199
-0.00596203
-0.00563264
-0.00528072
-0.00491395
-0.00454072
-0.00416988
-0.00381049
-0.00347158
-0.00316187
-0.00288944
-0.00266144
-0.00248387
-0.00236129
-0.00229667
-0.00229125
-0.00234455
-0.00245435
-0.00261686
-0.00282687
-0.00307804
-0.00336315
-0.00367446
-0.00400395
-0.00434365
-0.00468584
-0.00502326
-0.00534918
-0.00565736
-0.00594213
-0.00620038
-0.00643364
-0.0066181
0.00108861
0.000704822
0.000322666
1.52873e-05
-0.000244578
-0.00047302
-0.000678508
-0.000868813
-0.00105128
-0.00123234
-0.00141744
-0.00161109
-0.00181695
-0.00203782
-0.0022758
-0.00253221
-0.00280775
-0.00310243
-0.00341568
-0.00374631
-0.00409256
-0.00445211
-0.00482213
-0.00519926
-0.00557967
-0.00595913
-0.00633302
-0.00669642
-0.00704419
-0.00737106
-0.00767171
-0.0079409
-0.00817359
-0.00836505
-0.00851096
-0.00860763
-0.00865202
-0.00864195
-0.00857618
-0.00845452
-0.0082779
-0.0080485
-0.00776971
-0.00744621
-0.00708387
-0.00668977
-0.006272
-0.00583958
-0.00540221
-0.00497007
-0.00455351
-0.00416276
-0.00380756
-0.00349684
-0.00323842
-0.00303863
-0.00290214
-0.00283172
-0.00282817
-0.00289027
-0.00301488
-0.00319712
-0.00343061
-0.00370776
-0.00402014
-0.00435883
-0.00471474
-0.00507894
-0.0054429
-0.00579864
-0.00613871
-0.00645631
-0.00674778
-0.00701492
-0.00722886
0.000808161
0.00040838
1.08373e-05
-0.000308482
-0.000578565
-0.000816703
-0.00103217
-0.00123342
-0.00142841
-0.00162407
-0.00182622
-0.00203971
-0.00226841
-0.00251531
-0.00278262
-0.00307176
-0.00338344
-0.0037177
-0.0040739
-0.00445079
-0.00484649
-0.00525852
-0.00568381
-0.00611876
-0.00655922
-0.00700055
-0.00743772
-0.0078653
-0.00827759
-0.00866869
-0.00903261
-0.00936336
-0.00965511
-0.00990229
-0.0100997
-0.0102428
-0.0103277
-0.0103512
-0.0103113
-0.010207
-0.0100385
-0.00980734
-0.00951643
-0.00917012
-0.00877417
-0.00833571
-0.00786318
-0.00736616
-0.00685521
-0.00634163
-0.00583718
-0.0053537
-0.00490282
-0.00449548
-0.00414156
-0.00384955
-0.00362614
-0.00347599
-0.00340152
-0.00340286
-0.00347781
-0.00362202
-0.00382921
-0.00409149
-0.00439975
-0.00474407
-0.00511412
-0.00549955
-0.00589037
-0.0062771
-0.00665084
-0.00700347
-0.00733064
-0.00763428
-0.00788015
0.000457305
4.34281e-05
-0.000367779
-0.000697922
-0.000977599
-0.00122524
-0.0014509
-0.00166372
-0.00187224
-0.00208384
-0.00230477
-0.00254014
-0.00279406
-0.00306971
-0.0033694
-0.00369464
-0.00404619
-0.00442408
-0.00482765
-0.00525558
-0.00570587
-0.00617587
-0.00666232
-0.00716132
-0.00766842
-0.00817859
-0.00868632
-0.00918567
-0.00967035
-0.0101338
-0.0105693
-0.01097
-0.0113293
-0.0116407
-0.011898
-0.0120957
-0.0122289
-0.0122935
-0.0122863
-0.0122055
-0.0120504
-0.0118217
-0.0115219
-0.0111546
-0.0107255
-0.0102415
-0.00971144
-0.00914523
-0.00855428
-0.00795099
-0.00734855
-0.00676057
-0.00620067
-0.00568204
-0.00521696
-0.00481635
-0.00448934
-0.00424289
-0.00408146
-0.00400691
-0.00401833
-0.00411221
-0.00428257
-0.00452137
-0.00481881
-0.00516394
-0.00554504
-0.00595017
-0.00636761
-0.00678615
-0.00719518
-0.00758502
-0.00795041
-0.00829346
-0.00857395
3.25558e-05
-0.000393365
-0.000816381
-0.00115616
-0.00144477
-0.00170172
-0.00193781
-0.00216283
-0.00238589
-0.00261484
-0.00285627
-0.00311561
-0.00339717
-0.00370431
-0.00403948
-0.00440425
-0.00479944
-0.0052251
-0.00568055
-0.00616439
-0.00667452
-0.00720815
-0.00776179
-0.0083313
-0.00891186
-0.00949807
-0.0100839
-0.010663
-0.0112283
-0.0117726
-0.0122884
-0.0127681
-0.013204
-0.0135886
-0.0139149
-0.0141762
-0.0143663
-0.0144802
-0.0145136
-0.0144634
-0.0143282
-0.0141075
-0.0138031
-0.013418
-0.0129575
-0.0124282
-0.0118389
-0.0112001
-0.0105237
-0.00982326
-0.00911334
-0.00840937
-0.0077271
-0.00708215
-0.00648948
-0.00596281
-0.0055141
-0.00515305
-0.00488667
-0.00471897
-0.00465081
-0.00467986
-0.00480078
-0.00500551
-0.00528373
-0.00562337
-0.00601124
-0.00643361
-0.00687677
-0.00732751
-0.00777322
-0.00820235
-0.00860861
-0.00899418
-0.00931217
-0.000468994
-0.000904759
-0.00133761
-0.00168576
-0.00198262
-0.00224866
-0.00249541
-0.00273329
-0.00297192
-0.00321961
-0.0034833
-0.00376868
-0.00408031
-0.0044217
-0.00479542
-0.00520317
-0.00564579
-0.00612337
-0.00663521
-0.00717988
-0.00775516
-0.00835812
-0.00898508
-0.00963161
-0.0102926
-0.0109622
-0.0116339
-0.0123008
-0.0129552
-0.0135891
-0.0141943
-0.0147621
-0.0152841
-0.0157516
-0.0161564
-0.0164906
-0.0167471
-0.0169194
-0.017002
-0.0169907
-0.0168827
-0.0166768
-0.0163735
-0.0159751
-0.0154862
-0.0149133
-0.0142648
-0.0135514
-0.0127856
-0.0119818
-0.0111559
-0.0103252
-0.0095077
-0.00872152
-0.00798455
-0.00731364
-0.00672401
-0.00622857
-0.00583739
-0.00555722
-0.00539118
-0.00533861
-0.0053952
-0.00555317
-0.00580179
-0.00612798
-0.00651695
-0.006953
-0.00742019
-0.00790297
-0.00838642
-0.00885685
-0.00930664
-0.00973803
-0.0100966
-0.0010496
-0.00149288
-0.00193347
-0.00228869
-0.00259306
-0.00286796
-0.0031256
-0.00337697
-0.0036322
-0.00390002
-0.00418769
-0.00450119
-0.00484527
-0.00522363
-0.00563896
-0.00609306
-0.00658684
-0.00712044
-0.00769315
-0.00830349
-0.00894918
-0.00962714
-0.0103335
-0.0110635
-0.0118118
-0.0125722
-0.0133375
-0.0141003
-0.0148523
-0.0155847
-0.0162883
-0.0169538
-0.0175713
-0.0181314
-0.0186246
-0.0190417
-0.0193743
-0.0196145
-0.0197557
-0.0197923
-0.0197201
-0.0195367
-0.0192413
-0.0188356
-0.0183231
-0.0177098
-0.0170038
-0.0162157
-0.0153582
-0.0144466
-0.0134979
-0.0125312
-0.0115666
-0.0106249
-0.00972719
-0.00889367
-0.00814322
-0.00749246
-0.0069551
-0.00654122
-0.00625682
-0.00610352
-0.0060785
-0.0061747
-0.00638124
-0.00668411
-0.00706691
-0.0075118
-0.00800035
-0.00851437
-0.00903624
-0.00954976
-0.0100458
-0.0105264
-0.010929
-0.00171081
-0.00215916
-0.00260531
-0.00296621
-0.00327734
-0.00356085
-0.00382956
-0.00409504
-0.00436788
-0.00465717
-0.00497051
-0.00531412
-0.00569297
-0.00611092
-0.00657081
-0.00707453
-0.0076231
-0.00821667
-0.00885457
-0.00953529
-0.0102565
-0.0110149
-0.0118066
-0.0126264
-0.0134688
-0.014327
-0.0151935
-0.0160601
-0.016918
-0.0177575
-0.0185686
-0.0193409
-0.0200636
-0.0207259
-0.0213173
-0.0218272
-0.0222459
-0.0225641
-0.0227737
-0.0228677
-0.0228405
-0.0226883
-0.0224091
-0.0220031
-0.0214734
-0.0208248
-0.0200649
-0.0192039
-0.0182549
-0.0172331
-0.0161569
-0.0150467
-0.0139248
-0.0128148
-0.0117408
-0.0107268
-0.00979559
-0.00896799
-0.00826191
-0.00769146
-0.00726623
-0.0069908
-0.00686451
-0.00688151
-0.00703117
-0.00729876
-0.00766632
-0.00811375
-0.00861988
-0.00916351
-0.00972396
-0.0102821
-0.0108269
-0.0113604
-0.0118106
-0.00245343
-0.00290431
-0.00335375
-0.0037189
-0.00403598
-0.0043278
-0.00460776
-0.00488792
-0.00517929
-0.00549133
-0.00583193
-0.00620754
-0.00662335
-0.00708338
-0.00759061
-0.00814706
-0.00875382
-0.00941111
-0.0101183
-0.0108738
-0.0116753
-0.0125194
-0.0134019
-0.0143176
-0.0152604
-0.0162232
-0.017198
-0.018176
-0.0191476
-0.0201025
-0.0210296
-0.0219175
-0.0227544
-0.0235284
-0.0242275
-0.02484
-0.0253546
-0.0257607
-0.0260487
-0.02621
-0.0262376
-0.0261261
-0.0258719
-0.025474
-0.0249349
-0.0242582
-0.0234499
-0.0225202
-0.0214821
-0.0203506
-0.0191446
-0.017886
-0.0165991
-0.01531
-0.014046
-0.0128349
-0.0117036
-0.0106777
-0.00977979
-0.00902878
-0.0084386
-0.00801759
-0.00776801
-0.00768593
-0.00776148
-0.00797958
-0.00832083
-0.00876282
-0.00928143
-0.00985212
-0.0104507
-0.0110547
-0.0116509
-0.0122408
-0.0127423
-0.00327744
-0.00372824
-0.00417865
-0.00454656
-0.00486875
-0.00516854
-0.00545986
-0.00575519
-0.00606595
-0.0064019
-0.00677122
-0.00718058
-0.00763536
-0.00813975
-0.00869687
-0.00930887
-0.00997694
-0.0107014
-0.0114816
-0.012316
-0.0132022
-0.0141367
-0.0151152
-0.0161321
-0.0171811
-0.0182546
-0.0193443
-0.0204405
-0.0215331
-0.0226108
-0.0236617
-0.0246734
-0.025633
-0.0265273
-0.027343
-0.0280672
-0.0286871
-0.0291907
-0.0295667
-0.0298052
-0.0298976
-0.0298367
-0.0296172
-0.0292359
-0.0286956
-0.0280004
-0.0271531
-0.0261616
-0.0250392
-0.0238007
-0.0224657
-0.0210568
-0.0196001
-0.018124
-0.0166588
-0.015236
-0.0138869
-0.0126421
-0.0115296
-0.0105736
-0.00979315
-0.0092014
-0.0088044
-0.00860098
-0.00858274
-0.00873474
-0.00903646
-0.00946319
-0.0099877
-0.0105818
-0.0112172
-0.0118678
-0.0125177
-0.0131677
-0.0137246
-0.00418202
-0.00463009
-0.00507907
-0.00544824
-0.00577463
-0.006082
-0.00638469
-0.00669559
-0.00702646
-0.00738735
-0.00778667
-0.00823131
-0.00872683
-0.00927759
-0.00988686
-0.0105569
-0.011289
-0.0120836
-0.0129401
-0.0138569
-0.0148317
-0.0158608
-0.0169397
-0.0180626
-0.0192229
-0.0204126
-0.0216227
-0.0228432
-0.024063
-0.02527
-0.0264516
-0.0275942
-0.0286838
-0.029706
-0.0306463
-0.0314904
-0.0322241
-0.032834
-0.0333073
-0.0336325
-0.0337994
-0.0337994
-0.0336254
-0.0332713
-0.0327354
-0.03203
-0.0311607
-0.03012
-0.0289181
-0.0275771
-0.0261164
-0.0245585
-0.0229308
-0.0212634
-0.0195892
-0.0179431
-0.0163612
-0.0148789
-0.0135299
-0.0123447
-0.0113483
-0.0105595
-0.00998923
-0.00964003
-0.00950593
-0.00957281
-0.00981945
-0.0102191
-0.0107412
-0.0113537
-0.012024
-0.0127214
-0.013427
-0.0141409
-0.0147571
-0.00516548
-0.00560815
-0.00605331
-0.00642217
-0.00675182
-0.00706628
-0.00738028
-0.00770703
-0.00805857
-0.00844522
-0.0088756
-0.00935679
-0.00989452
-0.0104933
-0.0111566
-0.0118868
-0.0126852
-0.0135524
-0.0144879
-0.0154901
-0.0165566
-0.0176837
-0.0188666
-0.0200995
-0.0213752
-0.0226854
-0.0240206
-0.0253702
-0.0267223
-0.0280641
-0.0293819
-0.0306611
-0.0318867
-0.0330432
-0.0341148
-0.0350857
-0.0359405
-0.0366644
-0.0372431
-0.0376637
-0.0379146
-0.0379858
-0.0378699
-0.0375617
-0.0370548
-0.0363433
-0.0354374
-0.0343565
-0.033098
-0.031663
-0.0300826
-0.0283806
-0.0265848
-0.0247261
-0.0228394
-0.0209627
-0.0191362
-0.0174006
-0.0157958
-0.0143585
-0.0131209
-0.0121082
-0.0113376
-0.0108163
-0.0105421
-0.0105025
-0.0106762
-0.0110347
-0.0115445
-0.012169
-0.012871
-0.0136146
-0.0143776
-0.0151589
-0.0158386
-0.00622532
-0.00665991
-0.00709886
-0.00746581
-0.00779773
-0.00811872
-0.00844382
-0.00878653
-0.00915912
-0.00957212
-0.0100343
-0.010553
-0.0111341
-0.0117822
-0.0125009
-0.0132927
-0.0141592
-0.0151009
-0.0161174
-0.0172072
-0.0183677
-0.0195953
-0.020885
-0.0222307
-0.0236249
-0.0250589
-0.0265226
-0.0280048
-0.0294929
-0.0309733
-0.0324313
-0.0338515
-0.0352177
-0.0365131
-0.0377209
-0.038824
-0.0398057
-0.0406497
-0.0413406
-0.0418639
-0.0422064
-0.0423569
-0.0423061
-0.0420475
-0.041576
-0.0408853
-0.0399764
-0.0388559
-0.0375305
-0.0360192
-0.0343352
-0.032501
-0.0305456
-0.0285007
-0.0264029
-0.0242928
-0.0222147
-0.0202141
-0.0183371
-0.0166274
-0.0151246
-0.0138618
-0.0128632
-0.0121425
-0.011702
-0.0115322
-0.0116128
-0.011914
-0.0123993
-0.013028
-0.0137573
-0.014546
-0.0153677
-0.0162198
-0.016967
-0.00735817
-0.00778209
-0.00821243
-0.00857588
-0.00890899
-0.00923585
-0.00957171
-0.0099303
-0.0103241
-0.0107637
-0.0112582
-0.011815
-0.0124401
-0.0131383
-0.0139133
-0.0147677
-0.0157033
-0.0167207
-0.0178194
-0.0189981
-0.0202542
-0.0215838
-0.0229819
-0.024442
-0.0259565
-0.0275162
-0.0291104
-0.0307272
-0.0323535
-0.0339747
-0.0355754
-0.0371391
-0.0386484
-0.0400857
-0.0414329
-0.0426717
-0.0437842
-0.0447529
-0.045561
-0.0461928
-0.0466336
-0.0468707
-0.046893
-0.0466918
-0.0462604
-0.0455933
-0.0446882
-0.0435467
-0.0421865
-0.0406163
-0.0388394
-0.0368888
-0.0347868
-0.0325656
-0.0302632
-0.0279225
-0.0255908
-0.0233185
-0.0211573
-0.0191584
-0.0173693
-0.0158316
-0.0145779
-0.0136296
-0.0129953
-0.0126699
-0.0126349
-0.0128605
-0.0133073
-0.0139304
-0.0146814
-0.0155131
-0.0163942
-0.0173203
-0.0181391
-0.00855991
-0.00897061
-0.00939001
-0.00974835
-0.0100815
-0.0104135
-0.0107596
-0.0111338
-0.0115486
-0.0120149
-0.0125417
-0.0131367
-0.013806
-0.0145545
-0.0153861
-0.0163035
-0.0173085
-0.0184018
-0.0195832
-0.0208512
-0.0222032
-0.0236352
-0.0251422
-0.0267173
-0.0283525
-0.0300382
-0.0317634
-0.0335154
-0.0352803
-0.0370429
-0.0387867
-0.0404944
-0.0421477
-0.0437278
-0.0452155
-0.0465916
-0.0478369
-0.0489328
-0.0498614
-0.0506057
-0.05115
-0.05148
-0.0515832
-0.0514493
-0.0510699
-0.0504389
-0.0495527
-0.0484117
-0.0470238
-0.0454002
-0.0435567
-0.0415054
-0.039272
-0.0368886
-0.0343934
-0.0318304
-0.0292492
-0.0267041
-0.0242524
-0.0219522
-0.0198593
-0.0180246
-0.0164902
-0.0152867
-0.0144304
-0.0139224
-0.0137476
-0.0138769
-0.0142692
-0.0148752
-0.0156409
-0.0165123
-0.0174528
-0.0184557
-0.0193501
-0.00982564
-0.0102207
-0.0106269
-0.0109785
-0.0113106
-0.0116467
-0.0120024
-0.0123916
-0.012827
-0.0133196
-0.0138784
-0.0145113
-0.0152244
-0.0160229
-0.0169106
-0.0178905
-0.0189644
-0.0201332
-0.0213967
-0.0227533
-0.0242005
-0.0257343