/*--------------------------------*- C++ -*----------------------------------*\
  =========                 |
  \\      /  F ield         | OpenFOAM: The Open Source CFD Toolbox
   \\    /   O peration     | Website:  https://openfoam.org
    \\  /    A nd           | Version:  12
     \\/     M anipulation  |
\*---------------------------------------------------------------------------*/
FoamFile
{
    format      ascii;
    class       surfaceScalarField;
    location    "2";
    object      phi;
}
// * * * * * * * * * * * * * * * * * * * * * * * * * * * * * * * * * * * * * //

dimensions      [0 3 -1 0 0 0 0];

internalField   nonuniform List<scalar> 
11100
(
3.81533e-10
-3.84183e-10
9.99782e-10
-6.18193e-10
1.48867e-09
-4.88792e-10
1.64646e-09
-1.57714e-10
1.3855e-09
2.61008e-10
6.82487e-10
7.0304e-10
-4.49596e-10
1.13209e-09
-1.97902e-09
1.52942e-09
-3.86573e-09
1.88669e-09
-6.06757e-09
2.20182e-09
-8.54394e-09
2.47635e-09
-1.12577e-08
2.71376e-09
-1.41761e-08
2.91833e-09
-1.72705e-08
3.0944e-09
-2.05164e-08
3.24588e-09
-2.38924e-08
3.37601e-09
-2.73796e-08
3.48717e-09
-3.09605e-08
3.58084e-09
-3.46181e-08
3.65761e-09
-3.83354e-08
3.71726e-09
-4.20942e-08
3.75883e-09
-4.5875e-08
3.78076e-09
-4.9656e-08
3.78103e-09
-5.34133e-08
3.75727e-09
-5.71202e-08
3.70693e-09
-6.07477e-08
3.6274e-09
-6.42638e-08
3.51615e-09
-6.76347e-08
3.37085e-09
-7.08242e-08
3.18949e-09
-7.37947e-08
2.97049e-09
-7.65075e-08
2.71282e-09
-7.89236e-08
2.41605e-09
-8.10041e-08
2.08052e-09
-8.27114e-08
1.70729e-09
-8.40096e-08
1.29819e-09
-8.48657e-08
8.56082e-10
-8.52519e-08
3.86224e-10
-8.51425e-08
-1.09459e-10
-8.45193e-08
-6.23207e-10
-8.337e-08
-1.14932e-09
-8.16895e-08
-1.68048e-09
-7.94807e-08
-2.20877e-09
-7.67549e-08
-2.72579e-09
-7.35322e-08
-3.22279e-09
-6.98413e-08
-3.69088e-09
-6.57201e-08
-4.12124e-09
-6.12147e-08
-4.50538e-09
-5.63794e-08
-4.83531e-09
-5.12755e-08
-5.10389e-09
-4.59705e-08
-5.30496e-09
-4.05369e-08
-5.4336e-09
-3.50506e-08
-5.48632e-09
-2.95895e-08
-5.46115e-09
-2.42317e-08
-5.3578e-09
-1.9054e-08
-5.17766e-09
-1.41302e-08
-4.92382e-09
-9.52927e-09
-4.60097e-09
-5.31393e-09
-4.21534e-09
-1.5394e-09
-3.77453e-09
1.74793e-09
-3.28734e-09
4.5115e-09
-2.76357e-09
6.72539e-09
-2.21389e-09
8.37501e-09
-1.64963e-09
9.45787e-09
-1.08286e-09
9.9843e-09
-5.26436e-10
9.97851e-09
5.78491e-12
9.47947e-09
4.99032e-10
8.54381e-09
9.35661e-10
7.2483e-09
1.2955e-09
5.69505e-09
1.55325e-09
4.01748e-09
1.67757e-09
2.38777e-09
1.6297e-09
1.02344e-09
1.36433e-09
1.77425e-10
8.46008e-10
1.77423e-10
6.24217e-10
-1.00847e-09
1.46214e-09
-1.45611e-09
1.84292e-09
-8.69506e-10
1.38519e-09
3.00085e-10
-1.04931e-10
1.75117e-09
-2.69507e-09
3.2932e-09
-6.37325e-09
4.81027e-09
-1.10795e-08
6.23567e-09
-1.67285e-08
7.53566e-09
-2.32244e-08
8.69766e-09
-3.04702e-08
9.72216e-09
-3.83736e-08
1.06171e-08
-4.68494e-08
1.13941e-08
-5.58208e-08
1.20658e-08
-6.52188e-08
1.26439e-08
-7.49812e-08
1.31384e-08
-8.50507e-08
1.35567e-08
-9.53732e-08
1.39033e-08
-1.05895e-07
1.41798e-08
-1.16563e-07
1.43853e-08
-1.27321e-07
1.45161e-08
-1.38107e-07
1.45669e-08
-1.48857e-07
1.45306e-08
-1.59498e-07
1.43991e-08
-1.69955e-07
1.41635e-08
-1.80143e-07
1.38152e-08
-1.89972e-07
1.33457e-08
-1.99349e-07
1.27474e-08
-2.08173e-07
1.2014e-08
-2.16344e-07
1.11407e-08
-2.23756e-07
1.0125e-08
-2.30306e-07
8.96635e-09
-2.35893e-07
7.66722e-09
-2.40418e-07
6.23273e-09
-2.43791e-07
4.67095e-09
-2.45928e-07
2.9926e-09
-2.46757e-07
1.21555e-09
-2.46221e-07
-6.45628e-10
-2.44275e-07
-2.5691e-09
-2.40893e-07
-4.53087e-09
-2.36069e-07
-6.50447e-09
-2.29817e-07
-8.46135e-09
-2.22171e-07
-1.03713e-08
-2.13191e-07
-1.22031e-08
-2.02957e-07
-1.39253e-08
-1.91571e-07
-1.55065e-08
-1.7916e-07
-1.6917e-08
-1.65866e-07
-1.81287e-08
-1.51854e-07
-1.91166e-08
-1.37299e-07
-1.98592e-08
-1.22394e-07
-2.03392e-08
-1.07336e-07
-2.05446e-08
-9.23283e-08
-2.04684e-08
-7.75764e-08
-2.01096e-08
-6.32811e-08
-1.94731e-08
-4.96354e-08
-1.85695e-08
-3.6821e-08
-1.74154e-08
-2.50036e-08
-1.60327e-08
-1.43297e-08
-1.44485e-08
-4.92291e-09
-1.26941e-08
3.1183e-09
-1.08048e-08
9.7236e-09
-8.8192e-09
1.48529e-08
-6.77895e-09
1.84985e-08
-4.7285e-09
2.06871e-08
-2.715e-09
2.1482e-08
-7.89089e-10
2.0987e-08
9.94032e-10
1.93499e-08
2.57275e-09
1.67681e-08
3.87722e-09
1.34958e-08
4.82555e-09
9.85073e-09
5.32267e-09
6.21981e-09
5.26061e-09
3.0559e-09
4.52825e-09
8.42816e-10
3.05909e-09
1.02024e-09
5.0139e-10
-1.51001e-09
8.7715e-10
-1.83193e-09
3.90491e-10
-3.82839e-10
-1.39294e-09
2.08355e-09
-4.70565e-09
5.06392e-09
-9.63588e-09
8.22344e-09
-1.61722e-08
1.13466e-08
-2.42396e-08
1.43031e-08
-3.37258e-08
1.70218e-08
-4.45e-08
1.94719e-08
-5.64262e-08
2.16484e-08
-6.9371e-08
2.35619e-08
-8.32082e-08
2.52313e-08
-9.78207e-08
2.66782e-08
-1.13101e-07
2.79238e-08
-1.28948e-07
2.89859e-08
-1.45269e-07
2.98778e-08
-1.61974e-07
3.06074e-08
-1.78971e-07
3.11772e-08
-1.9617e-07
3.15844e-08
-2.13475e-07
3.18214e-08
-2.30785e-07
3.1877e-08
-2.47992e-07
3.17368e-08
-2.64977e-07
3.13845e-08
-2.81616e-07
3.08027e-08
-2.97775e-07
2.99741e-08
-3.13312e-07
2.88824e-08
-3.28078e-07
2.7513e-08
-3.41918e-07
2.58543e-08
-3.54675e-07
2.38983e-08
-3.66192e-07
2.16412e-08
-3.7631e-07
1.90842e-08
-3.84876e-07
1.6234e-08
-3.91747e-07
1.31034e-08
-3.96787e-07
9.71121e-09
-3.99878e-07
6.08296e-09
-4.00914e-07
2.25205e-09
-3.99816e-07
-1.74418e-09
-3.96524e-07
-5.86108e-09
-3.91006e-07
-1.00481e-08
-3.83261e-07
-1.42499e-08
-3.73315e-07
-1.84069e-08
-3.6123e-07
-2.24566e-08
-3.47099e-07
-2.63347e-08
-3.31047e-07
-2.99765e-08
-3.13236e-07
-3.33181e-08
-2.93854e-07
-3.62986e-08
-2.73122e-07
-3.88609e-08
-2.51284e-07
-4.09543e-08
-2.28609e-07
-4.25348e-08
-2.0538e-07
-4.35677e-08
-1.81897e-07
-4.4028e-08
-1.58463e-07
-4.39017e-08
-1.35387e-07
-4.31865e-08
-1.12968e-07
-4.18918e-08
-9.14978e-08
-4.00395e-08
-7.12501e-08
-3.76631e-08
-5.24758e-08
-3.48071e-08
-3.53973e-08
-3.1527e-08
-2.02043e-08
-2.78871e-08
-7.04831e-09
-2.39608e-08
3.96072e-09
-1.98282e-08
1.27584e-08
-1.55766e-08
1.93289e-08
-1.12991e-08
2.37088e-08
-7.09484e-09
2.59898e-08
-3.07012e-09
2.63234e-08
6.60458e-10
2.49245e-08
3.97163e-09
2.20773e-08
6.72436e-09
1.81402e-08
8.76268e-09
1.35498e-08
9.91302e-09
8.82235e-09
9.98809e-09
4.54597e-09
8.80463e-09
1.3649e-09
6.24015e-09
2.38513e-09
1.56792e-10
-1.66694e-09
-3.62144e-10
-1.31308e-09
-2.23261e-09
1.48761e-09
-5.8636e-09
5.71456e-09
-1.14737e-08
1.0674e-08
-1.91408e-08
1.58905e-08
-2.88416e-08
2.10474e-08
-4.04844e-08
2.59459e-08
-5.39352e-08
3.04726e-08
-6.90374e-08
3.4574e-08
-8.56254e-08
3.82364e-08
-1.03534e-07
4.14709e-08
-1.22606e-07
4.43025e-08
-1.42689e-07
4.67615e-08
-1.63643e-07
4.88777e-08
-1.85334e-07
5.0677e-08
-2.07634e-07
5.2178e-08
-2.30418e-07
5.33915e-08
-2.53561e-07
5.43199e-08
-2.76934e-07
5.49574e-08
-3.00404e-07
5.52912e-08
-3.23829e-07
5.53022e-08
-3.47059e-07
5.49672e-08
-3.69935e-07
5.42597e-08
-3.92284e-07
5.31521e-08
-4.13927e-07
5.16172e-08
-4.34674e-07
4.96296e-08
-4.54329e-07
4.71676e-08
-4.72689e-07
4.4214e-08
-4.89548e-07
4.07581e-08
-5.04704e-07
3.67965e-08
-5.17954e-07
3.2334e-08
-5.29104e-07
2.73847e-08
-5.37974e-07
2.19725e-08
-5.44394e-07
1.61318e-08
-5.48219e-07
9.9074e-09
-5.49322e-07
3.3553e-09
-5.47607e-07
-3.45917e-09
-5.43007e-07
-1.04607e-08
-5.35491e-07
-1.75648e-08
-5.25061e-07
-2.46792e-08
-5.11762e-07
-3.17057e-08
-4.95678e-07
-3.8541e-08
-4.76933e-07
-4.50796e-08
-4.55694e-07
-5.12155e-08
-4.32168e-07
-5.68447e-08
-4.06599e-07
-6.18675e-08
-3.79268e-07
-6.61915e-08
-3.50489e-07
-6.97336e-08
-3.20601e-07
-7.24228e-08
-2.89967e-07
-7.4202e-08
-2.58964e-07
-7.50305e-08
-2.27981e-07
-7.4885e-08
-1.97406e-07
-7.3761e-08
-1.67625e-07
-7.16735e-08
-1.39007e-07
-6.86571e-08
-1.11904e-07
-6.47659e-08
-8.6639e-08
-6.00724e-08
-6.34994e-08
-5.46665e-08
-4.27324e-08
-4.86541e-08
-2.45377e-08
-4.21555e-08
-9.06219e-09
-3.53037e-08
3.60441e-09
-2.82432e-08
1.34343e-08
-2.1129e-08
2.04658e-08
-1.41263e-08
2.48068e-08
-7.41114e-09
2.66393e-08
-1.17202e-09
2.62231e-08
4.38782e-09
2.38996e-08
9.0478e-09
2.00951e-08
1.25672e-08
1.5323e-08
1.46851e-08
1.01842e-08
1.5127e-08
5.36582e-09
1.3623e-08
1.65258e-09
9.95338e-09
4.03771e-09
-3.08498e-10
-1.35858e-09
-2.00045e-09
3.78778e-10
-5.61496e-09
5.10208e-09
-1.14797e-08
1.15793e-08
-1.97597e-08
1.8954e-08
-3.04955e-08
2.66264e-08
-4.36355e-08
3.41874e-08
-5.90634e-08
4.13738e-08
-7.66219e-08
4.80312e-08
-9.61309e-08
5.40829e-08
-1.174e-07
5.95058e-08
-1.4024e-07
6.43102e-08
-1.64463e-07
6.85262e-08
-1.89893e-07
7.21916e-08
-2.1636e-07
7.53442e-08
-2.437e-07
7.80165e-08
-2.71753e-07
8.02317e-08
-3.00364e-07
8.20022e-08
-3.29373e-07
8.33288e-08
-3.58617e-07
8.42015e-08
-3.87926e-07
8.46003e-08
-4.17121e-07
8.44973e-08
-4.46013e-07
8.38585e-08
-4.74399e-07
8.26462e-08
-5.02069e-07
8.08216e-08
-5.28798e-07
7.83467e-08
-5.54356e-07
7.5187e-08
-5.78502e-07
7.13133e-08
-6.00992e-07
6.6704e-08
-6.21581e-07
6.1347e-08
-6.40025e-07
5.52409e-08
-6.56088e-07
4.83966e-08
-6.69542e-07
4.08389e-08
-6.80176e-07
3.26064e-08
-6.87797e-07
2.3753e-08
-6.92237e-07
1.43477e-08
-6.93356e-07
4.47456e-09
-6.91047e-07
-5.7681e-09
-6.8524e-07
-1.62683e-08
-6.75903e-07
-2.69015e-08
-6.6305e-07
-3.75325e-08
-6.46738e-07
-4.80177e-08
-6.27072e-07
-5.82072e-08
-6.04203e-07
-6.79478e-08
-5.78333e-07
-7.70862e-08
-5.49705e-07
-8.54721e-08
-5.18611e-07
-9.2962e-08
-4.8538e-07
-9.94222e-08
-4.50381e-07
-1.04733e-07
-4.14012e-07
-1.08792e-07
-3.76699e-07
-1.11515e-07
-3.38885e-07
-1.12844e-07
-3.01026e-07
-1.12744e-07
-2.63579e-07
-1.11207e-07
-2.26999e-07
-1.08253e-07
-1.91725e-07
-1.03931e-07
-1.58173e-07
-9.83176e-08
-1.2673e-07
-9.15158e-08
-9.77414e-08
-8.36552e-08
-7.15065e-08
-7.4889e-08
-4.82703e-08
-6.53917e-08
-2.82167e-08
-5.53573e-08
-1.14628e-08
-4.49971e-08
1.94636e-09
-3.45382e-08
1.20426e-08
-2.42225e-08
1.89387e-08
-1.43072e-08
2.28322e-08
-5.06552e-09
2.40086e-08
3.21141e-09
2.28445e-08
1.02119e-08
1.98094e-08
1.56023e-08
1.54673e-08
1.90271e-08
1.04793e-08
2.0115e-08
5.60946e-09
1.84928e-08
1.75004e-09
1.38128e-08
5.78775e-09
-8.40231e-10
-5.1848e-10
-3.88106e-09
3.41951e-09
-9.48701e-09
1.0708e-08
-1.7867e-08
1.99593e-08
-2.91026e-08
3.01896e-08
-4.31739e-08
4.06977e-08
-5.99846e-08
5.09981e-08
-7.93843e-08
6.07734e-08
-1.01187e-07
6.98343e-08
-1.25189e-07
7.80846e-08
-1.51176e-07
8.54927e-08
-1.78935e-07
9.20693e-08
-2.08258e-07
9.78489e-08
-2.38942e-07
1.02876e-07
-2.70794e-07
1.07196e-07
-3.03623e-07
1.10846e-07
-3.37243e-07
1.13852e-07
-3.71468e-07
1.16227e-07
-4.06108e-07
1.17969e-07
-4.40967e-07
1.19061e-07
-4.75842e-07
1.19475e-07
-5.10518e-07
1.19174e-07
-5.4477e-07
1.1811e-07
-5.78357e-07
1.16234e-07
-6.11031e-07
1.13495e-07
-6.4253e-07
1.09845e-07
-6.72583e-07
1.0524e-07
-7.00914e-07
9.96445e-08
-7.27243e-07
9.30327e-08
-7.51289e-07
8.53931e-08
-7.72777e-07
7.67286e-08
-7.91439e-07
6.70589e-08
-8.07022e-07
5.6422e-08
-8.19291e-07
4.48751e-08
-8.28033e-07
3.24951e-08
-8.33064e-07
1.93792e-08
-8.34234e-07
5.64402e-09
-8.31427e-07
-8.57478e-09
-8.24572e-07
-2.31239e-08
-8.13639e-07
-3.78341e-08
-7.98649e-07
-5.25224e-08
-7.79672e-07
-6.69949e-08
-7.56829e-07
-8.10503e-08
-7.30294e-07
-9.4483e-08
-7.00292e-07
-1.07088e-07
-6.67101e-07
-1.18663e-07
-6.31047e-07
-1.29017e-07
-5.92498e-07
-1.37971e-07
-5.51868e-07
-1.45363e-07
-5.09602e-07
-1.51057e-07
-4.66179e-07
-1.54939e-07
-4.22095e-07
-1.56928e-07
-3.77863e-07
-1.56977e-07
-3.33999e-07
-1.55071e-07
-2.91018e-07
-1.51235e-07
-2.49417e-07
-1.45532e-07
-2.09674e-07
-1.38061e-07
-1.72231e-07
-1.28959e-07
-1.37488e-07
-1.18398e-07
-1.05795e-07
-1.06582e-07
-7.74407e-08
-9.37458e-08
-5.2648e-08
-8.01501e-08
-3.15648e-08
-6.60803e-08
-1.42591e-08
-5.18439e-08
-7.13283e-10
-3.77683e-08
9.17976e-09
-2.42003e-08
1.56207e-08
-1.15065e-08
1.89064e-08
-7.42792e-11
1.9432e-08
9.68626e-09
1.7693e-08
1.73413e-08
1.42868e-08
2.24333e-08
9.91698e-09
2.44848e-08
5.40306e-09
2.30067e-08
1.70759e-09
1.75083e-08
7.49535e-09
-1.40838e-09
8.89779e-10
-5.90755e-09
7.91859e-09
-1.3671e-08
1.84714e-08
-2.47662e-08
3.10545e-08
-3.91692e-08
4.45925e-08
-5.67815e-08
5.831e-08
-7.74481e-08
7.16647e-08
-1.00974e-07
8.42996e-08
-1.2714e-07
9.60001e-08
-1.55713e-07
1.06657e-07
-1.86455e-07
1.16235e-07
-2.19133e-07
1.24747e-07
-2.53516e-07
1.32232e-07
-2.89382e-07
1.38742e-07
-3.26514e-07
1.44328e-07
-3.647e-07
1.49032e-07
-4.0373e-07
1.52881e-07
-4.43389e-07
1.55886e-07
-4.83461e-07
1.58041e-07
-5.23721e-07
1.59321e-07
-5.63934e-07
1.59688e-07
-6.03853e-07
1.59092e-07
-6.43218e-07
1.57475e-07
-6.81758e-07
1.54773e-07
-7.19187e-07
1.50924e-07
-7.5521e-07
1.45869e-07
-7.89524e-07
1.39554e-07
-8.21819e-07
1.31939e-07
-8.51783e-07
1.22997e-07
-8.79107e-07
1.12717e-07
-9.03488e-07
1.01109e-07
-9.24633e-07
8.82045e-08
-9.42268e-07
7.40567e-08
-9.56137e-07
5.87442e-08
-9.66012e-07
4.23705e-08
-9.71697e-07
2.50639e-08
-9.7303e-07
6.97726e-09
-9.69892e-07
-1.17131e-08
-9.62207e-07
-3.08092e-08
-9.49947e-07
-5.00934e-08
-9.33139e-07
-6.93313e-08
-9.11858e-07
-8.82755e-08
-8.86239e-07
-1.06669e-07
-8.56471e-07
-1.24251e-07
-8.22799e-07
-1.40759e-07
-7.85524e-07
-1.55939e-07
-7.44997e-07
-1.69544e-07
-7.0162e-07
-1.81348e-07
-6.55839e-07
-1.91144e-07
-6.08141e-07
-1.98755e-07
-5.59044e-07
-2.04036e-07
-5.09092e-07
-2.0688e-07
-4.58846e-07
-2.07222e-07
-4.08876e-07
-2.05042e-07
-3.59746e-07
-2.00364e-07
-3.12012e-07
-1.93266e-07
-2.66204e-07
-1.83868e-07
-2.22821e-07
-1.72343e-07
-1.82314e-07
-1.58905e-07
-1.45084e-07
-1.43813e-07
-1.11465e-07
-1.27364e-07
-8.17226e-08
-1.09893e-07
-5.6039e-08
-9.17639e-08
-3.45115e-08
-7.33714e-08
-1.71445e-08
-5.51353e-08
-3.84548e-09
-3.74993e-08
5.57902e-09
-2.0931e-08
1.14256e-08
-5.92089e-09
1.40962e-08
7.01568e-09
1.40994e-08
1.73381e-08
1.20528e-08
2.44799e-08
8.68754e-09
2.78501e-08
4.85844e-09
2.68358e-08
1.56574e-09
2.0801e-08
9.06108e-09
-1.99595e-09
2.88562e-09
-8.0198e-09
1.39424e-08
-1.80487e-08
2.85003e-08
-3.19957e-08
4.50015e-08
-4.97165e-08
6.23133e-08
-7.10202e-08
7.96137e-08
-9.56816e-08
9.63261e-08
-1.23453e-07
1.12071e-07
-1.54073e-07
1.2662e-07
-1.87277e-07
1.39862e-07
-2.22805e-07
1.51762e-07
-2.60397e-07
1.6234e-07
-2.99807e-07
1.71642e-07
-3.40792e-07
1.79727e-07
-3.83115e-07
1.86652e-07
-4.26545e-07
1.92462e-07
-4.70848e-07
1.97184e-07
-5.1579e-07
2.00827e-07
-5.61126e-07
2.03378e-07
-6.06607e-07
2.04802e-07
-6.51969e-07
2.0505e-07
-6.96936e-07
2.0406e-07
-7.4122e-07
2.01758e-07
-7.84516e-07
1.9807e-07
-8.26512e-07
1.9292e-07
-8.66881e-07
1.86238e-07
-9.0529e-07
1.77963e-07
-9.41402e-07
1.68051e-07
-9.74878e-07
1.56473e-07
-1.00538e-06
1.43224e-07
-1.03259e-06
1.2832e-07
-1.0562e-06
1.11805e-07
-1.07589e-06
9.37537e-08
-1.09141e-06
7.42664e-08
-1.10252e-06
5.34756e-08
-1.109e-06
3.15434e-08
-1.11068e-06
8.66111e-09
-1.10744e-06
-1.49519e-08
-1.0992e-06
-3.90504e-08
-1.08593e-06
-6.3366e-08
-1.06765e-06
-8.76106e-08
-1.04445e-06
-1.1148e-07
-1.01646e-06
-1.3466e-07
-9.83877e-07
-1.5683e-07
-9.46968e-07
-1.77669e-07
-9.06042e-07
-1.96864e-07
-8.61473e-07
-2.14113e-07
-8.13684e-07
-2.29137e-07
-7.63148e-07
-2.41679e-07
-7.10384e-07
-2.5152e-07
-6.55944e-07
-2.58476e-07
-6.00413e-07
-2.62412e-07
-5.44394e-07
-2.63241e-07
-4.88505e-07
-2.60931e-07
-4.3336e-07
-2.55509e-07
-3.79567e-07
-2.47059e-07
-3.27711e-07
-2.35725e-07
-2.78342e-07
-2.21711e-07
-2.31969e-07
-2.05278e-07
-1.89043e-07
-1.86739e-07
-1.49948e-07
-1.66459e-07
-1.14994e-07
-1.44847e-07
-8.4406e-08
-1.22352e-07
-5.83155e-08
-9.94619e-08
-3.67565e-08
-7.66943e-08
-1.96591e-08
-5.45968e-08
-6.84605e-09
-3.3744e-08
1.9697e-09
-1.47366e-08
7.18703e-09
1.79834e-09
9.31786e-09
1.52073e-08
8.98919e-09
2.48086e-08
6.94719e-09
2.98921e-08
4.06452e-09
2.97185e-08
1.35479e-09
2.35107e-08
1.04159e-08
-2.59301e-09
5.47852e-09
-1.01793e-08
2.15286e-08
-2.25398e-08
4.08607e-08
-3.94259e-08
6.18876e-08
-6.05638e-08
8.34511e-08
-8.56604e-08
1.0471e-07
-1.14411e-07
1.25077e-07
-1.46508e-07
1.44167e-07
-1.81644e-07
1.61756e-07
-2.1952e-07
1.77737e-07
-2.59845e-07
1.92088e-07
-3.02341e-07
2.04836e-07
-3.4674e-07
2.1604e-07
-3.92782e-07
2.25769e-07
-4.40214e-07
2.34084e-07
-4.88786e-07
2.41033e-07
-5.38245e-07
2.46643e-07
-5.88335e-07
2.50918e-07
-6.38793e-07
2.53835e-07
-6.89343e-07
2.55352e-07
-7.39699e-07
2.55406e-07
-7.89558e-07
2.53919e-07
-8.38607e-07
2.50806e-07
-8.86514e-07
2.45978e-07
-9.32941e-07
2.39346e-07
-9.77534e-07
2.30831e-07
-1.01994e-06
2.20366e-07
-1.05979e-06
2.07901e-07
-1.09672e-06
1.9341e-07
-1.13039e-06
1.76891e-07
-1.16045e-06
1.58372e-07
-1.18655e-06
1.37912e-07
-1.2084e-06
1.15603e-07
-1.22571e-06
9.1572e-08
-1.23821e-06
6.59823e-08
-1.2457e-06
3.90307e-08
-1.24799e-06
1.09486e-08
-1.24494e-06
-1.80004e-08
-1.23647e-06
-4.75222e-08
-1.22254e-06
-7.72965e-08
-1.20317e-06
-1.06979e-07
-1.17844e-06
-1.36209e-07
-1.14849e-06
-1.64611e-07
-1.11352e-06
-1.91802e-07
-1.07378e-06
-2.17401e-07
-1.02961e-06
-2.41033e-07
-9.8139e-07
-2.62338e-07
-9.29552e-07
-2.80975e-07
-8.74592e-07
-2.96639e-07
-8.17053e-07
-3.09059e-07
-7.57518e-07
-3.18011e-07
-6.96606e-07
-3.23323e-07
-6.34961e-07
-3.24885e-07
-5.73244e-07
-3.22649e-07
-5.12118e-07
-3.16634e-07
-4.52243e-07
-3.06933e-07
-3.94259e-07
-2.93709e-07
-3.38773e-07
-2.77197e-07
-2.86349e-07
-2.57702e-07
-2.37495e-07
-2.35593e-07
-1.9265e-07
-2.11304e-07
-1.52175e-07
-1.85322e-07
-1.16342e-07
-1.58186e-07
-8.53244e-08
-1.30479e-07
-5.91936e-08
-1.02825e-07
-3.791e-08
-7.58804e-08
-2.13202e-08
-5.03337e-08
-9.15477e-09
-2.69021e-08
-1.02581e-09
-6.33062e-09
3.57358e-09
1.06079e-08
5.27085e-09
2.31113e-08
4.81636e-09
3.03465e-08
3.08756e-09
3.14473e-08
1.09621e-09
2.5502e-08
1.15121e-08
-3.19337e-09
8.6718e-09
-1.23602e-08
3.06954e-08
-2.70868e-08
5.55872e-08
-4.69604e-08
8.17612e-08
-7.1572e-08
1.08063e-07
-1.0052e-07
1.33658e-07
-1.33415e-07
1.57972e-07
-1.69881e-07
1.80634e-07
-2.09563e-07
2.01438e-07
-2.52122e-07
2.20296e-07
-2.97239e-07
2.37204e-07
-3.44612e-07
2.52209e-07
-3.93954e-07
2.65383e-07
-4.44989e-07
2.76804e-07
-4.97448e-07
2.86543e-07
-5.51065e-07
2.94649e-07
-6.05571e-07
3.01149e-07
-6.60692e-07
3.06039e-07
-7.16146e-07
3.09289e-07
-7.71638e-07
3.10844e-07
-8.2686e-07
3.10627e-07
-8.81488e-07
3.08547e-07
-9.35185e-07
3.04503e-07
-9.87598e-07
2.98392e-07
-1.03837e-06
2.90114e-07
-1.08711e-06
2.79579e-07
-1.13346e-06
2.66715e-07
-1.17703e-06
2.5147e-07
-1.21744e-06
2.33819e-07
-1.25431e-06
2.13765e-07
-1.28729e-06
1.91348e-07
-1.31602e-06
1.66642e-07
-1.34018e-06
1.39761e-07
-1.35947e-06
1.10859e-07
-1.37361e-06
8.01279e-08
-1.38238e-06
4.78013e-08
-1.38558e-06
1.41509e-08
-1.38307e-06
-2.05147e-08
-1.37474e-06
-5.58528e-08
-1.36055e-06
-9.14899e-08
-1.3405e-06
-1.27026e-07
-1.31467e-06
-1.6204e-07
-1.28318e-06
-1.96095e-07
-1.24624e-06
-2.28747e-07
-1.20409e-06
-2.59548e-07
-1.15707e-06
-2.88059e-07
-1.10555e-06
-3.13855e-07
-1.04999e-06
-3.36537e-07
-9.90889e-07
-3.55738e-07
-9.28813e-07
-3.71134e-07
-8.64371e-07
-3.82453e-07
-7.9821e-07
-3.89484e-07
-7.31012e-07
-3.92083e-07
-6.63482e-07
-3.9018e-07
-5.96331e-07
-3.83785e-07
-5.30274e-07
-3.72991e-07
-4.66005e-07
-3.57978e-07
-4.04193e-07
-3.39009e-07
-3.45464e-07
-3.16431e-07
-2.90387e-07
-2.9067e-07
-2.39462e-07
-2.62228e-07
-1.93109e-07
-2.31675e-07
-1.51652e-07
-1.99642e-07
-1.15318e-07
-1.66814e-07
-8.42198e-08
-1.33923e-07
-5.83569e-08
-1.01743e-07
-3.76075e-08
-7.10831e-08
-2.17268e-08
-4.27829e-08
-1.03451e-08
-1.77123e-08
-2.96771e-09
3.23044e-09
1.02594e-09
1.91176e-08
2.3826e-09
2.89899e-08
1.97526e-09
3.18546e-08
8.04771e-10
2.66725e-08
1.23169e-08
-3.79266e-09
1.24644e-08
-1.45431e-08
4.14458e-08
-3.16459e-08
7.26899e-08
-5.45234e-08
1.04639e-07
-8.26289e-08
1.36168e-07
-1.15449e-07
1.66478e-07
-1.52503e-07
1.95026e-07
-1.93348e-07
2.21479e-07
-2.37573e-07
2.45663e-07
-2.848e-07
2.67523e-07
-3.3468e-07
2.87083e-07
-3.86885e-07
3.04415e-07
-4.41111e-07
3.19609e-07
-4.97067e-07
3.32759e-07
-5.54467e-07
3.43943e-07
-6.13033e-07
3.53215e-07
-6.72482e-07
3.60598e-07
-7.32526e-07
3.66083e-07
-7.92865e-07
3.69629e-07
-8.53189e-07
3.71168e-07
-9.1317e-07
3.70609e-07
-9.72469e-07
3.67846e-07
-1.03073e-06
3.62762e-07
-1.08758e-06
3.55241e-07
-1.14263e-06
3.45171e-07
-1.19551e-06
3.32454e-07
-1.2458e-06
3.17011e-07
-1.29312e-06
2.98787e-07
-1.33706e-06
2.77761e-07
-1.37724e-06
2.53942e-07
-1.41328e-06
2.27382e-07
-1.44481e-06
1.98172e-07
-1.47149e-06
1.66445e-07
-1.49301e-06
1.32382e-07
-1.50909e-06
9.6205e-08
-1.51947e-06
5.81836e-08
-1.52395e-06
1.86291e-08
-1.52236e-06
-2.21056e-08
-1.51458e-06
-6.36293e-08
-1.50056e-06
-1.05516e-07
-1.48027e-06
-1.47309e-07
-1.45379e-06
-1.88528e-07
-1.42121e-06
-2.28673e-07
-1.38272e-06
-2.67234e-07
-1.33857e-06
-3.03698e-07
-1.28907e-06
-3.37556e-07
-1.23461e-06
-3.68317e-07
-1.17564e-06
-3.95514e-07
-1.11266e-06
-4.18716e-07
-1.04625e-06
-4.37539e-07
-9.77048e-07
-4.51656e-07
-9.05725e-07
-4.60807e-07
-8.33e-07
-4.64809e-07
-7.59617e-07
-4.63562e-07
-6.86341e-07
-4.57061e-07
-6.13938e-07
-4.45393e-07
-5.43168e-07
-4.28748e-07
-4.74764e-07
-4.07414e-07
-4.09417e-07
-3.81777e-07
-3.47768e-07
-3.5232e-07
-2.90383e-07
-3.19613e-07
-2.37749e-07
-2.84309e-07
-1.90254e-07
-2.47136e-07
-1.48182e-07
-2.08886e-07
-1.117e-07
-1.70405e-07
-8.08528e-08
-1.32591e-07
-5.55571e-08
-9.63788e-08
-3.56004e-08
-6.27396e-08
-2.06377e-08
-3.2675e-08
-1.01924e-08
-7.21486e-09
-3.65704e-09
1.25823e-08
-2.94554e-10
2.56274e-08
7.59262e-10
3.08008e-08
4.89968e-10
2.69418e-08
1.28068e-08
-4.3873e-09
1.68516e-08
-1.67124e-08
5.37708e-08
-3.61809e-08
9.21584e-08
-6.20516e-08
1.30509e-07
-9.36392e-08
1.67756e-07
-1.30316e-07
2.03155e-07
-1.71512e-07
2.36222e-07
-2.1671e-07
2.66677e-07
-2.65446e-07
2.94398e-07
-3.17298e-07
3.19375e-07
-3.71885e-07
3.41671e-07
-4.28858e-07
3.61388e-07
-4.87893e-07
3.78644e-07
-5.48683e-07
3.93549e-07
-6.10932e-07
4.06193e-07
-6.74349e-07
4.16632e-07
-7.38638e-07
4.24887e-07
-8.03499e-07
4.30944e-07
-8.6862e-07
4.3475e-07
-9.33676e-07
4.36224e-07
-9.98328e-07
4.3526e-07
-1.06222e-06
4.31736e-07
-1.12498e-06
4.2552e-07
-1.18622e-06
4.16482e-07
-1.24554e-06
4.04498e-07
-1.30255e-06
3.89461e-07
-1.35683e-06
3.71287e-07
-1.40796e-06
3.49921e-07
-1.45554e-06
3.25341e-07
-1.49916e-06
2.97566e-07
-1.53844e-06
2.66657e-07
-1.57299e-06
2.32722e-07
-1.60246e-06
1.95914e-07
-1.62652e-06
1.56439e-07
-1.64486e-06
1.1455e-07
-1.65722e-06
7.05478e-08
-1.66338e-06
2.47838e-08
-1.66314e-06
-2.23466e-08
-1.65636e-06
-7.04046e-08
-1.64297e-06
-1.18913e-07
-1.62292e-06
-1.67359e-07
-1.59624e-06
-2.15203e-07
-1.56303e-06
-2.61881e-07
-1.52345e-06
-3.06817e-07
-1.47772e-06
-3.49428e-07
-1.42614e-06
-3.89135e-07
-1.36908e-06
-4.25373e-07
-1.307e-06
-4.57603e-07
-1.24039e-06
-4.85323e-07
-1.16985e-06
-5.08082e-07
-1.09601e-06
-5.25489e-07
-1.01959e-06
-5.37228e-07
-9.41334e-07
-5.43067e-07
-8.62028e-07
-5.42868e-07
-7.82488e-07
-5.36601e-07
-7.03541e-07
-5.2434e-07
-6.26011e-07
-5.06279e-07
-5.50701e-07
-4.82724e-07
-4.78379e-07
-4.54099e-07
-4.09762e-07
-4.20937e-07
-3.45495e-07
-3.8388e-07
-2.86138e-07
-3.43666e-07
-2.32155e-07
-3.0112e-07
-1.83895e-07
-2.57146e-07
-1.41587e-07
-2.12713e-07
-1.05331e-07
-1.68847e-07
-7.50919e-08
-1.26618e-07
-5.06946e-08
-8.71369e-08
-3.18256e-08
-5.15439e-08
-1.8032e-08
-2.10085e-08
-8.72384e-09
3.27409e-09
-3.17815e-09
2.00817e-08
-5.4136e-10
2.8164e-08
1.57326e-10
2.62431e-08
1.29641e-08
-4.97393e-09
2.18254e-08
-1.88536e-08
6.76504e-08
-4.06594e-08
1.13964e-07
-6.94882e-08
1.59338e-07
-1.04518e-07
2.02785e-07
-1.45006e-07
2.43644e-07
-1.90292e-07
2.81508e-07
-2.39786e-07
3.16171e-07
-2.92968e-07
3.47579e-07
-3.49373e-07
3.7578e-07
-4.08588e-07
4.00886e-07
-4.70242e-07
4.23042e-07
-5.33992e-07
4.42394e-07
-5.99518e-07
4.59075e-07
-6.66511e-07
4.73186e-07
-7.34671e-07
4.84791e-07
-8.03692e-07
4.93909e-07
-8.73265e-07
5.00517e-07
-9.43068e-07
5.04553e-07
-1.01276e-06
5.05921e-07
-1.08201e-06
5.045e-07
-1.15042e-06
5.00152e-07
-1.21763e-06
4.9273e-07
-1.28324e-06
4.82089e-07
-1.34684e-06
4.68094e-07
-1.408e-06
4.5063e-07
-1.46632e-06
4.29607e-07
-1.52137e-06
4.04967e-07
-1.57272e-06
3.76692e-07
-1.61996e-06
3.44808e-07
-1.66269e-06
3.09384e-07
-1.70051e-06
2.70544e-07
-1.73306e-06
2.28461e-07
-1.75998e-06
1.83363e-07
-1.78096e-06
1.35529e-07
-1.79571e-06
8.52943e-08
-1.80397e-06
3.30447e-08
-1.80553e-06
-2.07831e-08
-1.80023e-06
-7.57053e-08
-1.78795e-06
-1.31194e-07
-1.76863e-06
-1.86684e-07
-1.74226e-06
-2.41574e-07
-1.7089e-06
-2.95238e-07
-1.66869e-06
-3.47031e-07
-1.62181e-06
-3.96299e-07
-1.56856e-06
-4.42388e-07
-1.50928e-06
-4.84656e-07
-1.4444e-06
-5.22485e-07
-1.37442e-06
-5.55297e-07
-1.29994e-06
-5.82562e-07
-1.22161e-06
-6.03819e-07
-1.14016e-06
-6.18683e-07
-1.05636e-06
-6.26865e-07
-9.71051e-07
-6.28179e-07
-8.85095e-07
-6.22556e-07
-7.99383e-07
-6.10053e-07
-7.14808e-07
-5.90854e-07
-6.32252e-07
-5.65279e-07
-5.52568e-07
-5.33784e-07
-4.76555e-07
-4.9695e-07
-4.04947e-07
-4.55488e-07
-3.38392e-07
-4.10221e-07
-2.77435e-07
-3.62077e-07
-2.22505e-07
-3.12075e-07
-1.73904e-07
-2.61314e-07
-1.31795e-07
-2.10956e-07
-9.61975e-08
-1.62216e-07
-6.69841e-08
-1.1635e-07
-4.38784e-08
-7.46497e-08
-2.64562e-08
-3.84307e-08
-1.4149e-08
-9.03308e-09
-6.24983e-09
1.21825e-08
-1.91712e-09
2.38313e-08
-1.90274e-10
2.45163e-08
1.27739e-08
-5.5491e-09
2.73745e-08
-2.09531e-08
8.30543e-08
-4.50504e-08
1.38061e-07
-7.67798e-08
1.91067e-07
-1.15184e-07
2.41189e-07
-1.59409e-07
2.87869e-07
-2.08704e-07
3.30802e-07
-2.62405e-07
3.69873e-07
-3.19938e-07
4.05112e-07
-3.80796e-07
4.36638e-07
-4.44536e-07
4.64626e-07
-5.1076e-07
4.89266e-07
-5.79111e-07
5.10745e-07
-6.49255e-07
5.29219e-07
-7.20874e-07
5.44806e-07
-7.93659e-07
5.57575e-07
-8.67297e-07
5.67547e-07
-9.41471e-07
5.74691e-07
-1.01585e-06
5.78934e-07
-1.0901e-06
5.80167e-07
-1.16385e-06
5.78252e-07
-1.23673e-06
5.73034e-07
-1.30835e-06
5.64352e-07
-1.37831e-06
5.52047e-07
-1.44619e-06
5.35973e-07
-1.51156e-06
5.16004e-07
-1.574e-06
4.92046e-07
-1.63308e-06
4.64039e-07
-1.68835e-06
4.31967e-07
-1.7394e-06
3.95858e-07
-1.78581e-06
3.55795e-07
-1.82718e-06
3.11911e-07
-1.86311e-06
2.64397e-07
-1.89325e-06
2.13501e-07
-1.91725e-06
1.59528e-07
-1.93479e-06
1.0284e-07
-1.94561e-06
4.38587e-08
-1.94945e-06
-1.69436e-08
-1.94611e-06
-7.90401e-08
-1.93545e-06
-1.41856e-07
-1.91737e-06
-2.04771e-07
-1.89181e-06
-2.67128e-07
-1.85881e-06
-3.28238e-07
-1.81846e-06
-3.87386e-07
-1.77091e-06
-4.43844e-07
-1.71642e-06
-4.9688e-07
-1.6553e-06
-5.45772e-07
-1.58797e-06
-5.89815e-07
-1.51492e-06
-6.28347e-07
-1.43673e-06
-6.60752e-07
-1.35406e-06
-6.86486e-07
-1.26766e-06
-7.05087e-07
-1.17833e-06
-7.16194e-07
-1.08695e-06
-7.19562e-07
-9.94431e-07
-7.15073e-07
-9.01735e-07
-7.02749e-07
-8.09828e-07
-6.8276e-07
-7.19677e-07
-6.55431e-07
-6.32223e-07
-6.21237e-07
-5.48366e-07
-5.80808e-07
-4.68935e-07
-5.34918e-07
-3.94678e-07
-4.84478e-07
-3.26235e-07
-4.3052e-07
-2.64127e-07
-3.74184e-07
-2.08737e-07
-3.16704e-07
-1.60304e-07
-2.59389e-07
-1.18913e-07
-2.03607e-07
-8.44906e-08
-1.50772e-07
-5.68052e-08
-1.02335e-07
-3.54664e-08
-5.97696e-08
-1.99304e-08
-2.45691e-08
-9.50684e-09
1.75898e-09
-3.3665e-09
1.76909e-08
-5.52656e-10
2.17024e-08
1.22212e-08
-6.10916e-09
3.34836e-08
-2.29965e-08
9.99416e-08
-4.93234e-08
1.64388e-07
-8.38743e-08
2.25618e-07
-1.25561e-07
2.82876e-07
-1.7342e-07
3.35729e-07
-2.26611e-07
3.83993e-07
-2.84403e-07
4.27665e-07
-3.46164e-07
4.66873e-07
-4.11348e-07
5.01822e-07
-4.79479e-07
5.32757e-07
-5.5014e-07
5.59927e-07
-6.22956e-07
5.8356e-07
-6.97582e-07
6.03844e-07
-7.73692e-07
6.20916e-07
-8.50969e-07
6.34852e-07
-9.29096e-07
6.45675e-07
-1.00775e-06
6.53347e-07
-1.0866e-06
6.57784e-07
-1.1653e-06
6.58864e-07
-1.24348e-06
6.56432e-07
-1.32076e-06
6.50319e-07
-1.39676e-06
6.40346e-07
-1.47105e-06
6.26342e-07
-1.54323e-06
6.08147e-07
-1.61285e-06
5.85629e-07
-1.67949e-06
5.58685e-07
-1.7427e-06
5.27253e-07
-1.80206e-06
4.91317e-07
-1.85711e-06
4.50911e-07
-1.90743e-06
4.06121e-07
-1.95262e-06
3.57094e-07
-1.99225e-06
3.04033e-07
-2.02596e-06
2.47204e-07
-2.05336e-06
1.86932e-07
-2.07413e-06
1.23607e-07
-2.08795e-06
5.76767e-08
-2.09454e-06
-1.03506e-08
-2.09367e-06
-7.99096e-08
-2.08515e-06
-1.50381e-07
-2.06882e-06
-2.21094e-07
-2.04461e-06
-2.91336e-07
-2.0125e-06
-3.60354e-07
-1.97252e-06
-4.27365e-07
-1.9248e-06
-4.91566e-07
-1.86953e-06
-5.52144e-07
-1.80702e-06
-6.08288e-07
-1.73763e-06
-6.59206e-07
-1.66183e-06
-7.04139e-07
-1.58021e-06
-7.4238e-07
-1.4934e-06
-7.73287e-07
-1.40218e-06
-7.96311e-07
-1.30737e-06
-8.11005e-07
-1.20988e-06
-8.17049e-07
-1.11069e-06
-8.14264e-07
-1.01082e-06
-8.02624e-07
-9.11308e-07
-7.82271e-07
-8.13219e-07
-7.5352e-07
-7.17593e-07
-7.16862e-07
-6.25435e-07
-6.72966e-07
-5.37687e-07
-6.22667e-07
-4.55206e-07
-5.66959e-07
-3.78742e-07
-5.06984e-07
-3.08919e-07
-4.44007e-07
-2.46218e-07
-3.79405e-07
-1.90964e-07
-3.14642e-07
-1.4332e-07
-2.51251e-07
-1.03275e-07
-1.90817e-07
-7.06488e-08
-1.34961e-07
-4.50906e-08
-8.53277e-08
-2.60849e-08
-4.35748e-08
-1.29588e-08
-1.13672e-08
-4.8935e-09
9.62564e-09
-9.30918e-10
1.77398e-08
1.12903e-08
-6.65019e-09
4.01337e-08
-2.49693e-08
1.18261e-07
-5.34471e-08
1.92866e-07
-9.07194e-08
2.6289e-07
-1.35571e-07
3.27727e-07
-1.86935e-07
3.87093e-07
-2.43884e-07
4.40942e-07
-3.05619e-07
4.894e-07
-3.71456e-07
5.3271e-07
-4.4081e-07
5.71176e-07
-5.13176e-07
6.05123e-07
-5.88115e-07
6.34866e-07
-6.65237e-07
6.60682e-07
-7.44187e-07
6.82795e-07
-8.24633e-07
7.01362e-07
-9.06253e-07
7.16472e-07
-9.88726e-07
7.28148e-07
-1.07173e-06
7.36349e-07
-1.15492e-06
7.40979e-07
-1.23796e-06
7.41903e-07
-1.32048e-06
7.3895e-07
-1.4021e-06
7.31935e-07
-1.48241e-06
7.20664e-07
-1.56102e-06
7.0495e-07
-1.6375e-06
6.84623e-07
-1.71141e-06
6.59541e-07
-1.78232e-06
6.29594e-07
-1.84978e-06
5.94715e-07
-1.91335e-06
5.54888e-07
-1.97259e-06
5.10148e-07
-2.02705e-06
4.60586e-07
-2.07631e-06
4.06355e-07
-2.11995e-06
3.4767e-07
-2.15756e-06
2.8481e-07
-2.18874e-06
2.18118e-07
-2.21314e-06
1.48004e-07
-2.2304e-06
7.49403e-08
-2.24022e-06
-5.33381e-10
-2.24231e-06
-7.78181e-08
-2.23644e-06
-1.56253e-07
-2.22241e-06
-2.35121e-07
-2.2001e-06
-3.13654e-07
-2.16941e-06
-3.9104e-07
-2.13035e-06
-4.66426e-07
-2.08298e-06
-5.38934e-07
-2.02746e-06
-6.07666e-07
-1.96402e-06
-6.71723e-07
-1.89302e-06
-7.30214e-07
-1.81487e-06
-7.8228e-07
-1.73015e-06
-8.27108e-07