/*--------------------------------*- C++ -*----------------------------------*\
  =========                 |
  \\      /  F ield         | OpenFOAM: The Open Source CFD Toolbox
   \\    /   O peration     | Website:  https://openfoam.org
    \\  /    A nd           | Version:  12
     \\/     M anipulation  |
\*---------------------------------------------------------------------------*/
FoamFile
{
    format      ascii;
    class       volScalarField;
    location    "8.5";
    object      epsilon;
}
// * * * * * * * * * * * * * * * * * * * * * * * * * * * * * * * * * * * * * //

dimensions      [0 2 -3 0 0 0 0];

internalField   nonuniform List<scalar> 
18225
(
1.41259e-06
9.56022e-06
2.13126e-05
3.53561e-05
5.10848e-05
6.8114e-05
8.61542e-05
0.000104966
0.000124339
0.000144088
0.000164047
0.000184069
0.000204034
0.000223845
0.000243436
0.000262776
0.000281866
0.000300751
0.000319515
0.000338287
0.000357241
0.0003766
0.000396636
0.000417675
0.000440094
0.00046433
0.000490875
0.000520287
0.000553187
0.000590264
0.00063228
0.000680069
0.00073454
0.000796682
0.000867559
0.000948313
0.00104016
0.00114439
0.00126237
0.00139551
0.00154529
0.00171324
0.00190092
0.00210995
0.00234196
0.00259861
0.00288155
0.00319248
0.00353306
0.00390498
0.00430989
0.00474943
0.00522522
0.00573882
0.00629175
0.00688548
0.00752139
0.00820077
0.00892482
0.00969466
0.0105113
0.0113755
0.0122882
0.01325
0.0142614
0.0153229
0.0164347
0.0175971
0.0188103
0.0200743
0.0213889
0.0227541
0.0241697
0.0256352
0.0271501
0.0287139
0.0303258
0.0319848
0.0336897
0.0354392
0.0372313
0.039064
0.0409347
0.0428402
0.0447768
0.04674
0.0487244
0.0507238
0.0527306
0.0547361
0.05673
0.0587003
0.0606332
0.062513
0.0643218
0.0660396
0.067644
0.0691098
0.0704086
0.0715104
0.0723816
0.0729678
0.0732378
0.0732691
0.0729413
0.0722145
0.0710739
0.0695099
0.0675189
0.0651061
0.0622884
0.0590956
0.0555704
0.0517685
0.0477561
0.0436077
0.0394025
0.0352205
0.0311379
0.0272233
0.0235346
0.0201163
0.0169987
0.0141977
0.0117157
0.00954387
0.00766406
0.00605171
0.00467787
0.00351235
0.00252618
0.00169445
0.00100055
0.000444052
6.5495e-05
2.66924e-06
5.20679e-06
1.0449e-05
1.69583e-05
2.43194e-05
3.23171e-05
4.08034e-05
4.966e-05
5.8786e-05
6.80924e-05
7.75002e-05
8.6941e-05
9.63572e-05
0.000105704
0.00011495
0.00012408
0.000133097
0.00014202
0.00015089
0.000159768
0.000168736
0.000177899
0.000187386
0.000197352
0.000207973
0.000219457
0.000232037
0.000245976
0.000261569
0.00027914
0.00029905
0.000321695
0.000347504
0.000376944
0.00041052
0.000448773
0.000492279
0.000541648
0.000597525
0.000660583
0.000731524
0.000811071
0.000899973
0.000998994
0.00110891
0.00123051
0.0013646
0.00151198
0.00167345
0.00184982
0.00204189
0.00225046
0.00247631
0.00272019
0.00298287
0.00326506
0.00356744
0.00389067
0.00423535
0.00460205
0.00499129
0.00540353
0.00583919
0.00629863
0.00678217
0.00729007
0.00782254
0.00837974
0.0089618
0.00956879
0.0102007
0.0108576
0.0115393
0.0122456
0.0129765
0.0137316
0.0145104
0.0153126
0.0161375
0.0169844
0.0178522
0.0187399
0.0196461
0.020569
0.0215067
0.0224568
0.0234164
0.0243821
0.0253502
0.0263158
0.0272739
0.0282181
0.0291416
0.0300364
0.0308936
0.0317032
0.0324544
0.0331348
0.0337309
0.0342284
0.0346121
0.0348559
0.0349513
0.0349258
0.0347285
0.0343424
0.0337613
0.0329818
0.0320037
0.0308308
0.029472
0.0279421
0.0262617
0.0244568
0.0225581
0.0205999
0.0186183
0.0166497
0.0147289
0.0128871
0.0111508
0.00954044
0.00807012
0.00674735
0.0055736
0.00454502
0.0036535
0.00288791
0.00223495
0.0016808
0.00121227
0.000818393
0.000493109
0.000242463
0.000123705
5.67039e-06
5.06648e-06
8.03549e-06
1.22447e-05
1.71639e-05
2.25738e-05
2.8346e-05
3.43878e-05
4.06244e-05
4.69918e-05
5.34346e-05
5.99051e-05
6.63636e-05
7.27795e-05
7.91317e-05
8.541e-05
9.16161e-05
9.77642e-05
0.000103882
0.000110012
0.00011621
0.000122551
0.000129121
0.000136028
0.000143395
0.000151363
0.000160096
0.000169773
0.0001806
0.000192802
0.000206628
0.000222353
0.000240274
0.000260717
0.000284032
0.000310595
0.000340809
0.0003751
0.000413918
0.000457736
0.000507046
0.00056236
0.000624206
0.000693128
0.00076968
0.000854431
0.000947957
0.00105084
0.00116367
0.00128705
0.00142157
0.00156783
0.00172643
0.00189796
0.002083
0.00228213
0.00249591
0.00272488
0.00296956
0.00323045
0.00350802
0.00380271
0.00411493
0.00444507
0.00479347
0.00516045
0.00554628
0.00595121
0.00637543
0.0068191
0.00728233
0.00776515
0.00826758
0.00878953
0.00933084
0.00989127
0.0104705
0.0110679
0.0116831
0.0123152
0.0129632
0.013626
0.0143021
0.01499
0.0156876
0.0163928
0.0171027
0.0178144
0.0185243
0.0192285
0.0199224
0.020601
0.0212585
0.0218888
0.0224849
0.0230394
0.0235442
0.0239905
0.0243689
0.0246694
0.0248818
0.0249866
0.0249931
0.0249015
0.0246876
0.0243419
0.0238617
0.0232468
0.0224988
0.0216223
0.0206251
0.0195183
0.0183167
0.0170382
0.0157035
0.0143352
0.0129569
0.0115921
0.010263
0.00898991
0.00778971
0.00667572
0.00565711
0.00473892
0.00392229
0.0032049
0.00258162
0.00204527
0.00158728
0.00119877
0.000871552
0.000599641
0.000382547
0.000236159
0.000262313
9.27533e-06
6.0605e-06
7.56881e-06
1.05017e-05
1.41613e-05
1.82836e-05
2.27306e-05
2.74127e-05
3.22626e-05
3.72257e-05
4.22563e-05
4.73157e-05
5.23726e-05
5.74026e-05
6.23895e-05
6.73256e-05
7.22123e-05
7.70613e-05
8.18946e-05
8.67457e-05
9.16599e-05
9.66945e-05
0.00010192
0.000107421
0.000113294
0.000119653
0.000126627
0.000134359
0.000143014
0.000152769
0.000163827
0.000176404
0.000190742
0.000207101
0.000225764
0.000247035
0.000271239
0.000298723
0.000329854
0.00036502
0.000404628
0.000449101
0.00049888
0.000554423
0.000616201
0.0006847
0.000760421
0.000843874
0.000935584
0.00103609
0.00114593
0.00126567
0.00139588
0.00153712
0.00168997
0.00185501
0.00203283
0.00222399
0.00242906
0.00264862
0.0028832
0.00313333
0.00339954
0.0036823
0.00398208
0.00429931
0.00463438
0.00498764
0.00535939
0.00574985
0.00615917
0.00658742
0.00703459
0.00750056
0.00798506
0.00848772
0.009008
0.00954518
0.0100984
0.0106664
0.0112481
0.0118417
0.0124455
0.0130575
0.0136751
0.0142957
0.0149164
0.0155337
0.0161439
0.0167431
0.0173267
0.01789
0.0184279
0.0189347
0.0194047
0.0198316
0.020209
0.02053
0.0207872
0.020973
0.0210751
0.021096
0.0210305
0.0208785
0.0206263
0.0202682
0.0198035
0.0192334
0.0185604
0.0177896
0.0169279
0.0159849
0.0149729
0.0139064
0.0128016
0.0116762
0.0105484
0.00943613
0.00835639
0.00732426
0.00635248
0.00545088
0.00462622
0.00388218
0.00321949
0.00263633
0.00212879
0.00169147
0.00131804
0.0010021
0.000738245
0.000523782
0.000362961
0.000281677
0.000427641
1.33719e-05
7.60475e-06
7.93585e-06
9.95129e-06
1.27695e-05
1.60692e-05
1.9692e-05
2.3542e-05
2.75522e-05
3.1671e-05
3.58569e-05
4.0076e-05
4.43011e-05
4.85115e-05
5.26936e-05
5.68413e-05
6.0956e-05
6.50479e-05
6.9136e-05
7.32489e-05
7.74249e-05
8.17132e-05
8.61737e-05
9.08779e-05
9.59096e-05
0.000101365
0.000107355
0.000114003
0.000121449
0.000129848
0.000139373
0.000150213
0.000162578
0.000176694
0.000192808
0.000211189
0.000232124
0.000255919
0.000282904
0.000313428
0.000347857
0.00038658
0.000430005
0.000478557
0.000532682
0.000592845
0.00065953
0.000733242
0.000814505
0.000903864
0.00100188
0.00110915
0.00122628
0.00135388
0.00149261
0.00164312
0.00180609
0.00198221
0.00217215
0.00237661
0.00259628
0.00283183
0.00308393
0.0033532
0.00364025
0.00394563
0.00426985
0.00461335
0.00497646
0.00535943
0.00576234
0.00618516
0.00662772
0.00708968
0.00757049
0.00806941
0.00858546
0.00911743
0.00966387
0.0102231
0.0107931
0.0113717
0.0119565
0.0125448
0.0131335
0.0137196
0.0142996
0.0148699
0.0154266
0.0159658
0.0164832
0.0169747
0.0174356
0.0178614
0.0182472
0.0185883
0.0188797
0.0191162
0.0192921
0.0193957
0.0194314
0.0193966
0.0192825
0.0190912
0.0188135
0.018445
0.0179854
0.0174355
0.0167977
0.0160763
0.015277
0.0144081
0.0134804
0.0125065
0.0115009
0.0104796
0.00945882
0.00845468
0.00748229
0.006555
0.00568387
0.00487725
0.00414069
0.00347697
0.00288631
0.00236679
0.00191486
0.00152581
0.00119436
0.000915558
0.00068581
0.000505018
0.000381647
0.00035149
0.000613427
1.7882e-05
9.49638e-06
8.7776e-06
1.00446e-05
1.22181e-05
1.49148e-05
1.79514e-05
2.12216e-05
2.46546e-05
2.81987e-05
3.18139e-05
3.54683e-05
3.91372e-05
4.28021e-05
4.64509e-05
5.00785e-05
5.36866e-05
5.72843e-05
6.08889e-05
6.45259e-05
6.82297e-05
7.20441e-05
7.60225e-05
8.0229e-05
8.47385e-05
8.96375e-05
9.50252e-05
0.000101013
0.000107729
0.000115312
0.000123919
0.000133726
0.000144922
0.000157717
0.000172341
0.000189043
0.000208092
0.000229779
0.000254417
0.000282339
0.000313903
0.000349489
0.0003895
0.000434363
0.000484532
0.000540485
0.000602728
0.000671796
0.000748255
0.0008327
0.000925762
0.0010281
0.00114042
0.00126343
0.00139791
0.00154464
0.00170444
0.00187814
0.00206661
0.00227069
0.00249125
0.00272913
0.00298516
0.00326012
0.00355473
0.00386964
0.00420542
0.00456251
0.00494122
0.00534165
0.00576365
0.00620669
0.00667043
0.00715406
0.00765652
0.00817644
0.00871218
0.0092618
0.00982309
0.0103936
0.0109706
0.0115512
0.0121323
0.0127107
0.0132829
0.0138456
0.0143952
0.0149281
0.0154409
0.0159293
0.0163902
0.0168207
0.0172174
0.0175769
0.017896
0.0181713
0.0183996
0.0185779
0.0186985
0.0187518
0.018756
0.0186933
0.0185613
0.0183605
0.0180836
0.0177258
0.0172856
0.0167623
0.0161564
0.0154695
0.0147067
0.0138751
0.0129841
0.0120458
0.0110743
0.0100853
0.00909531
0.00812096
0.00717774
0.00627935
0.00543702
0.00465906
0.00395074
0.00331441
0.00274997
0.00225514
0.00182608
0.00145808
0.00114623
0.000886234
0.000675737
0.000516692
0.000421507
0.00043562
0.000814805
2.2756e-05
1.16436e-05
9.93667e-06
1.05499e-05
1.21889e-05
1.4406e-05
1.69901e-05
1.98227e-05
2.28273e-05
2.59498e-05
2.91501e-05
3.2397e-05
3.5667e-05
3.89428e-05
4.22134e-05
4.54743e-05
4.87273e-05
5.19812e-05
5.5252e-05
5.85636e-05
6.19476e-05
6.54447e-05
6.91042e-05
7.29856e-05
7.71584e-05
8.1703e-05
8.67119e-05
9.229e-05
9.85557e-05
0.000105642
0.000113698
0.000122889
0.000133397
0.000145425
0.000159194
0.000174947
0.000192949
0.000213488
0.000236876
0.000263449
0.000293572
0.000327635
0.000366059
0.000409295
0.000457826
0.00051217
0.000572883
0.000640559
0.000715834
0.000799388
0.000891948
0.000994288
0.00110723
0.00123163
0.00136842
0.00151855
0.00168301
0.00186283
0.00205906
0.00227273
0.00250482
0.00275639
0.0030284
0.00332174
0.0036372
0.00397544
0.00433695
0.00472206
0.00513091
0.00556324
0.00601856
0.00649621
0.00699489
0.00751306
0.00804884
0.0086
0.00916398
0.00973791
0.0103187
0.010903
0.0114873
0.0120682
0.012642
0.0132052
0.0137544
0.0142864
0.0147981
0.0152866
0.0157493
0.0161843
0.0165892
0.0169617
0.0173002
0.017603
0.017868
0.0180936
0.0182785
0.0184211
0.0185136
0.0185505
0.018549
0.0184891
0.0183691
0.0181878
0.0179379
0.0176129
0.0172093
0.0167241
0.0161557
0.0155041
0.0147719
0.0139641
0.0130893
0.012159
0.0111874
0.0101913
0.00918856
0.00819767
0.0072361
0.00631946
0.00546055
0.00466883
0.00395017
0.00330711
0.00273919
0.00224367
0.00181623
0.00145177
0.00114523
0.000892506
0.000692029
0.000547529
0.000474855
0.000529262
0.00102813
2.79627e-05
1.39989e-05
1.13315e-05
1.13493e-05
1.25235e-05
1.43388e-05
1.65554e-05
1.90403e-05
2.17106e-05
2.45089e-05
2.73935e-05
3.03331e-05
3.33044e-05
3.62909e-05
3.92822e-05
4.22742e-05
4.52689e-05
4.82749e-05
5.13078e-05
5.43901e-05
5.75522e-05
6.08327e-05
6.42788e-05
6.7947e-05
7.19038e-05
7.62263e-05
8.10032e-05
8.63359e-05
9.23391e-05
9.91423e-05
0.000106891
0.000115747
0.000125893
0.000137528
0.000150876
0.00016618
0.000183712
0.000203765
0.000226664
0.00025276
0.000282438
0.000316116
0.000354245
0.00039732
0.000445872
0.000500481
0.000561772
0.000630424
0.000707168
0.000792797
0.000888162
0.000994178
0.00111181
0.00124209
0.00138612
0.00154505
0.00172007
0.0019124
0.0021233
0.00235402
0.00260579
0.00287976
0.00317698
0.00349841
0.00384482
0.00421677
0.00461455
0.00503815
0.00548711
0.00596078
0.006458
0.00697723
0.00751635
0.00807285
0.00864381
0.00922594
0.00981566
0.0104091
0.0110024
0.0115914
0.0121723
0.0127411
0.0132943
0.0138287
0.0143414
0.0148299
0.0152921
0.0157267
0.0161324
0.0165086
0.0168548
0.0171706
0.017456
0.0177106
0.017935
0.0181286
0.0182904
0.0184191
0.0185114
0.0185608
0.0185756
0.0185457
0.0184638
0.0183275
0.0181282
0.0178576
0.0175093
0.0170777
0.0165583
0.0159485
0.0152485
0.0144616
0.0135949
0.0126596
0.0116703
0.010645
0.00960359
0.00856721
0.00755631
0.00658949
0.0056823
0.00484635
0.00408905
0.00341369
0.00281995
0.00230473
0.00186308
0.00148922
0.00117751
0.000923787
0.000726889
0.000591775
0.000537582
0.000629677
0.00125057
3.34831e-05
1.65357e-05
1.29157e-05
1.23754e-05
1.3133e-05
1.45999e-05
1.65072e-05
1.87072e-05
2.11082e-05
2.36492e-05
2.62866e-05
2.89882e-05
3.17303e-05
3.44966e-05
3.7277e-05
4.00678e-05
4.28711e-05
4.56957e-05
4.85568e-05
5.14767e-05
5.4485e-05
5.76194e-05
6.09259e-05
6.44599e-05
6.82863e-05
7.2481e-05
7.71314e-05
8.23377e-05
8.8214e-05
9.48895e-05
0.00010251
0.00011124
0.000121263
0.000132785
0.000146035
0.000161266
0.000178762
0.000198833
0.000221823
0.000248111
0.000278112
0.000312284
0.000351126
0.000395188
0.000445069
0.000501426
0.000564973
0.000636492
0.000716835
0.000806926
0.000907766
0.00102044
0.00114611
0.001286
0.00144142
0.00161373
0.00180434
0.00201469
0.0022462
0.0025003
0.00277836
0.00308161
0.00341115
0.00376786
0.00415234
0.00456489
0.0050054
0.0054733
0.00596752
0.00648652
0.00702823
0.00758998
0.00816857
0.00876031
0.00936111
0.00996659
0.0105722
0.0111732
0.0117651
0.0123435
0.0129044
0.0134442
0.0139599
0.0144492
0.0149104
0.0153423
0.0157447
0.0161176
0.0164618
0.0167784
0.0170688
0.0173343
0.0175766
0.0177968
0.0179962
0.0181753
0.0183337
0.0184703
0.0185826
0.0186677
0.0187221
0.0187408
0.0187165
0.0186438
0.0185116
0.0183104
0.0180309
0.0176643
0.0172034
0.0166428
0.0159802
0.0152169
0.0143585
0.0134153
0.0124022
0.0113382
0.0102454
0.00914775
0.00806913
0.00703185
0.00605502
0.00515337
0.00433668
0.00360973
0.00297288
0.00242296
0.00195447
0.00156084
0.0012357
0.000974401
0.000775867
0.000646085
0.00060725
0.000735108
0.00147993
3.93062e-05
1.92387e-05
1.46613e-05
1.35872e-05
1.39631e-05
1.51207e-05
1.67617e-05
1.87222e-05
2.09026e-05
2.32364e-05
2.56771e-05
2.81913e-05
3.07552e-05
3.33521e-05
3.5972e-05
3.86113e-05
4.12726e-05
4.39647e-05
4.6703e-05
4.95098e-05
5.24148e-05
5.54555e-05
5.86779e-05
6.21371e-05
6.58982e-05
7.00372e-05
7.46421e-05
7.98141e-05
8.56691e-05
9.23389e-05
9.99731e-05
0.000108741
0.000118834
0.000130465
0.000143877
0.000159339
0.000177152
0.000197651
0.000221208
0.000248238
0.000279198
0.000314597
0.000354993
0.000401006
0.000453319
0.000512684
0.000579926
0.000655953
0.000741757
0.000838418
0.000947112
0.0010691
0.00120576
0.00135853
0.00152893
0.00171855
0.00192903
0.00216199
0.00241904
0.00270175
0.00301153
0.00334964
0.00371707
0.00411448
0.00454215
0.00499988
0.00548691
0.00600188
0.00654279
0.007107
0.0076912
0.00829147
0.00890332
0.00952179
0.0101417
0.0107576
0.0113641
0.0119562
0.0125292
0.0130788
0.0136015
0.0140949
0.0145569
0.0149868
0.0153845
0.0157509
0.0160875
0.0163963
0.01668
0.0169415
0.0171836
0.0174092
0.017621
0.0178214
0.0180119
0.0181933
0.0183656
0.0185273
0.0186761
0.0188084
0.0189197
0.019004
0.0190446
0.0190466
0.0189906
0.0188675
0.0186647
0.0183709
0.0179761
0.017472
0.0168539
0.0161206
0.0152761
0.0143293
0.0132948
0.0121921
0.0110451
0.00988028
0.00872515
0.00760601
0.00654613
0.0055641
0.0046729
0.00387961
0.0031859
0.00258902
0.00208316
0.001661
0.00131535
0.00104087
0.000836311
0.000708428
0.000682316
0.000844353
0.00171445
4.54268e-05
2.20994e-05
1.65511e-05
1.49586e-05
1.49783e-05
1.58572e-05
1.72653e-05
1.90219e-05
2.10185e-05
2.31835e-05
2.54673e-05
2.78346e-05
3.02599e-05
3.27267e-05
3.52249e-05
3.77512e-05
4.03083e-05
4.29057e-05
4.55591e-05
4.82913e-05
5.11325e-05
5.41207e-05
5.73028e-05
6.07346e-05
6.44826e-05
6.86243e-05
7.32499e-05
7.84633e-05
8.43841e-05
9.11493e-05
9.89148e-05
0.000107858
0.000118181
0.000130112
0.000143908
0.00015986
0.000178293
0.000199573
0.00022411
0.000252362
0.00028484
0.000322112
0.000364811
0.000413642
0.000469382
0.000532894
0.000605133
0.000687148
0.00078009
0.000885218
0.0010039
0.00113761
0.00128794
0.00145655
0.00164521
0.00185572
0.00208991
0.00234959
0.00263651
0.00295228
0.00329832
0.00367573
0.00408526
0.00452718
0.0050012
0.00550639
0.00604108
0.00660286
0.00718849
0.00779401
0.00841473
0.00904531
0.00967994
0.0103125
0.0109368
0.0115468
0.0121368
0.0127017
0.0132373
0.0137403
0.0142082
0.0146401
0.0150359
0.0153966
0.0157243
0.0160218
0.0162925
0.0165405
0.0167698
0.0169848
0.0171896
0.0173884
0.0175838
0.0177781
0.0179733
0.0181703
0.0183688
0.018567
0.018762
0.0189493
0.019123
0.0192753
0.0193958
0.0194711
0.0194931
0.019451
0.0193286
0.0191124
0.0187894
0.0183488
0.0177833
0.0170893
0.0162683
0.0153275
0.0142803
0.0131461
0.0119497
0.0107198
0.00948694
0.00828164
0.00713162
0.00605994
0.00508356
0.0042127
0.00345109
0.00279699
0.00224467
0.0017863
0.00141383
0.00112113
0.000906593
0.00077752
0.000761775
0.000956574
0.00195282
5.18445e-05
2.51136e-05
1.85747e-05
1.64724e-05
1.61551e-05
1.67801e-05
1.79818e-05
1.95634e-05
2.14064e-05
2.34336e-05
2.55919e-05
2.78437e-05
3.0163e-05
3.25319e-05
3.49404e-05
3.73852e-05
3.98694e-05
4.24028e-05
4.5002e-05
4.76908e-05
5.05004e-05
5.347e-05
5.66479e-05
6.00919e-05
6.38704e-05
6.80638e-05
7.27659e-05
7.80852e-05
8.4147e-05
9.10953e-05
9.90953e-05
0.000108336
0.000119032
0.00013143
0.000145808
0.000162482
0.000181808
0.000204191
0.000230083
0.000259996
0.000294502
0.000334243
0.000379936
0.000432381
0.000492469
0.000561191
0.000639644
0.000729037
0.000830703
0.000946094
0.00107679
0.00122449
0.001391
0.00157824
0.00178819
0.00202287
0.00228427
0.00257435
0.0028949
0.00324751
0.00363343
0.0040535
0.00450802
0.00499663
0.00551824
0.00607092
0.00665184
0.00725724
0.00788248
0.00852208
0.00916987
0.00981915
0.0104629
0.0110941
0.011706
0.0122923
0.0128476
0.0133676
0.013849
0.0142901
0.0146902
0.0150504
0.0153726
0.01566
0.0159168
0.0161477
0.0163578
0.0165527
0.0167388
0.0169198
0.0170998
0.0172825
0.0174722
0.0176716
0.0178819
0.0181035
0.0183353
0.0185751
0.0188194
0.0190634
0.0192995
0.0195194
0.0197127
0.0198684
0.0199677
0.0200007
0.0199593
0.0198228
0.0195762
0.0192058
0.0187018
0.0180581
0.0172732
0.0163519
0.0153056
0.0141526
0.0129177
0.0116308
0.0103252
0.00903523
0.00779315
0.00662699
0.0055584
0.00460156
0.00376312
0.00304306
0.00243627
0.00193469
0.00152956
0.00121395
0.000985716
0.000852554
0.000844977
0.00107121
0.0021941
5.85623e-05
2.82803e-05
2.0726e-05
1.81177e-05
1.74776e-05
1.78688e-05
1.88861e-05
2.0317e-05
2.20318e-05
2.39472e-05
2.60065e-05
2.81698e-05
3.04092e-05
3.27065e-05
3.50512e-05
3.74401e-05
3.98768e-05
4.23719e-05
4.4943e-05
4.76149e-05
5.04203e-05
5.34003e-05
5.66052e-05
6.00956e-05
6.3943e-05
6.8232e-05
7.30609e-05
7.85444e-05
8.48151e-05
9.20264e-05
0.000100355
0.000110003
0.000121204
0.000134224
0.000149366
0.000166978
0.000187452
0.000211237
0.000238837
0.000270825
0.000307844
0.000350618
0.000399963
0.000456788
0.000522111
0.000597064
0.000682905
0.000781023
0.000892943
0.00102033
0.00116499
0.00132885
0.00151396
0.00172247
0.00195656
0.00221844
0.00251023
0.00283394
0.00319133
0.00358382
0.00401237
0.00447733
0.00497833
0.00551416
0.00608265
0.00668062
0.00730381
0.00794694
0.0086038
0.00926737
0.00993004
0.0105839
0.0112211
0.0118341
0.0124161
0.0129613
0.0134652
0.0139247
0.0143385
0.0147067
0.015031
0.0153145
0.0155614
0.015777
0.0159672
0.0161391
0.0163002
0.016454
0.016605
0.0167605
0.0169255
0.0171038
0.0172982
0.0175107
0.0177422
0.0179922
0.0182592
0.0185405
0.0188317
0.0191275
0.0194216
0.0197044
0.0199644
0.0201904
0.0203693
0.0204774
0.0205083
0.0204523
0.0202856
0.0199916
0.0195585
0.0189771
0.0182427
0.0173571
0.0163288
0.0151738
0.0139158
0.012585
0.0112167
0.0098482
0.00851647
0.00725471
0.00608989
0.00504101
0.0041185
0.00332489
0.00265636
0.00210506
0.00166173
0.00131865
0.00107311
0.000933052
0.000931527
0.0011879
0.00243772
6.55864e-05
3.16006e-05
2.30021e-05
1.98875e-05
1.89355e-05
1.91092e-05
1.99609e-05
2.12617e-05
2.287e-05
2.46963e-05
2.66794e-05
2.8777e-05
3.09596e-05
3.32079e-05
3.55113e-05
3.78665e-05
4.02779e-05
4.27568e-05
4.5322e-05
4.79999e-05
5.08251e-05
5.38411e-05
5.71011e-05
6.06688e-05
6.462e-05
6.90443e-05
7.4046e-05
7.97474e-05
8.62901e-05
9.38387e-05
0.000102583
0.000112744
0.000124573
0.000138361
0.000154442
0.000173198
0.000195065
0.000220541
0.00025019
0.000284653
0.000324655
0.000371016
0.000424657
0.000486612
0.00055804
0.00064023
0.000734616
0.000842781
0.000966459
0.00110754
0.00126806
0.0014502
0.00165623
0.00188851
0.00214941
0.00244127
0.00276629
0.00312642
0.00352326
0.00395791
0.00443084
0.00494171
0.00548924
0.0060711
0.00668379
0.00732264
0.00798179
0.00865432
0.00933239
0.0100075
0.010671
0.0113139
0.0119281
0.012506
0.0130416
0.01353
0.0139685
0.0143558
0.0146929
0.0149824
0.0152279
0.0154351
0.0156101
0.0157612
0.0158966
0.0160197
0.0161367
0.0162564
0.0163852
0.0165276
0.0166879
0.0168694
0.0170742
0.0173035
0.0175576
0.0178355
0.0181351
0.0184533
0.0187857
0.0191265
0.0194684
0.019803
0.0201217
0.0204116
0.0206585
0.0208471
0.0209468
0.0209647
0.0208806
0.0206687
0.0203154
0.0198086
0.0191401
0.0183078
0.0173167
0.0161794
0.0149173
0.0135596
0.0121424
0.0107056
0.00929027
0.00793498
0.00667252
0.00552749
0.00451507
0.00364125
0.00290425
0.00229699
0.00181002
0.00143498
0.00116853
0.00101878
0.00102123
0.00130649
0.00268345
7.29259e-05
3.50774e-05
2.54023e-05
2.1778e-05
2.05218e-05
2.04911e-05
2.11938e-05
2.23824e-05
2.39034e-05
2.56602e-05
2.75873e-05
2.96394e-05
3.17853e-05
3.40047e-05
3.62864e-05
3.86276e-05
4.10331e-05
4.35154e-05
4.60946e-05
4.87991e-05
5.16659e-05
5.47413e-05
5.80818e-05
6.17555e-05
6.58431e-05
7.044e-05
7.56581e-05
8.16284e-05
8.85033e-05
9.64606e-05
0.000105706
0.000116479
0.000129056
0.000143756
0.000160946
0.000181049
0.000204548
0.000231999
0.000264032
0.000301367
0.000344821
0.000395316
0.000453895
0.000521729
0.000600129
0.00069056
0.000794645
0.000914172
0.0010511
0.00120756
0.00138581
0.00158827
0.00181744
0.00207587
0.00236606
0.00269042
0.00305111
0.00344993
0.00388816
0.00436642
0.00488444
0.00544096
0.00603355
0.0066585
0.00731077
0.00798402
0.00867068
0.00936217
0.0100492
0.010722
0.0113709
0.011987
0.0125621
0.0130894
0.0135641
0.0139834
0.0143462
0.0146541
0.0149102
0.01512
0.0152888
0.0154255
0.0155405
0.015636
0.0157191
0.0158009
0.0158883
0.0159873
0.0161033
0.0162406
0.0164026
0.0165915
0.0168089
0.0170552
0.01733
0.0176319
0.0179584
0.0183064
0.0186713
0.0190477
0.0194286
0.019806
0.0201701
0.0205099
0.0208146
0.021071
0.0212556
0.0213395
0.021337
0.0212117
0.0209462
0.0205258
0.0199382
0.0191772
0.0182434
0.0171452
0.0159002
0.0145356
0.0130866
0.011595
0.0101054
0.00866142
0.00730221
0.00605867
0.00495169
0.00399172
0.00317991
0.00251058
0.00197456
0.00156298
0.00127196
0.00110971
0.00111404
0.00142696
0.00293135
8.05919e-05
3.87152e-05
2.79278e-05
2.37873e-05
2.22323e-05
2.20078e-05
2.25764e-05
2.36684e-05
2.51191e-05
2.68241e-05
2.87131e-05
3.07378e-05
3.2865e-05
3.50733e-05
3.73511e-05
3.96959e-05
4.21131e-05
4.46164e-05
4.72278e-05
4.9978e-05
5.29065e-05
5.60631e-05
5.95084e-05
6.33152e-05
6.75703e-05
7.23759e-05
7.78525e-05
8.41413e-05
9.14074e-05
9.98432e-05
0.000109673
0.000121159
0.000134602
0.000150355
0.000168823
0.000190473
0.000215845
0.000245555
0.00028031
0.000320916
0.000368291
0.000423473
0.000487637
0.000562104
0.000648354
0.000748035
0.000862976
0.000995185
0.00114685
0.00132034
0.00151816
0.00174294
0.00199737
0.00228416
0.00260589
0.00296493
0.00336331
0.00380253
0.00428336
0.00480572
0.0053684
0.00596896
0.00660358
0.00726697
0.00795237
0.00865167
0.0093556
0.010054
0.0107364
0.0113922
0.0120115
0.0125854
0.0131068
0.0135703
0.013973
0.0143142
0.0145957
0.0148213
0.0149967
0.0151304
0.0152335
0.0153096
0.0153649
0.0154119
0.015458
0.0155118
0.0155795
0.0156665
0.0157771
0.0159147
0.0160817
0.0162796
0.0165089
0.0167696
0.0170607
0.0173804
0.0177264
0.0180953
0.0184832
0.0188848
0.0192942
0.0197039
0.0201051
0.0204879
0.0208401
0.0211488
0.0213983
0.0215696
0.0216407
0.0216058
0.0214346
0.0211109
0.0206178
0.0199454
0.019089
0.0180517
0.0168465
0.0154967
0.0140358
0.0125058
0.0109539
0.00942878
0.00797586
0.00663307
0.00542797
0.00437654
0.00348383
0.00274639
0.00215579
0.00170298
0.00138357
0.00120595
0.00121005
0.00154946
0.00318177
8.85977e-05
4.25197e-05
3.0581e-05
2.59155e-05
2.40648e-05
2.36555e-05
2.41028e-05
2.51119e-05
2.65078e-05
2.8177e-05
3.00443e-05
3.2058e-05
3.41828e-05
3.63962e-05
3.86863e-05
4.10507e-05
4.34957e-05
4.60366e-05
4.86972e-05
5.15107e-05
5.452e-05
5.77787e-05
6.13521e-05
6.53185e-05
6.97715e-05
7.48213e-05
8.05981e-05
8.72547e-05
9.49704e-05
0.000103955
0.000114453
0.00012675
0.000141179
0.000158128
0.000178043
0.000201445
0.000228931
0.000261189
0.000299008
0.000343291
0.000395065
0.000455497
0.000525904
0.000607771
0.000702757
0.000812712
0.000939678
0.00108589
0.00125378
0.00144594
0.00166511
0.00191412
0.00219582
0.002513
0.00286824
0.00326379
0.00370138
0.00418203
0.00470584
0.00527178
0.00587749
0.00651911
0.00719122
0.00788676
0.00859718
0.00931261
0.0100222
0.0107145
0.0113782
0.0120024
0.0125776
0.0130957
0.0135512
0.0139407
0.0142638
0.0145225
0.014721
0.0148661
0.0149678
0.0150376
0.0150748
0.0150936
0.0151051
0.0151181
0.0151375
0.0151727
0.0152291
0.0153107
0.0154207
0.0155615
0.0157346
0.0159405
0.0161792
0.0164499
0.0167515
0.0170821
0.0174393
0.0178202
0.0182212
0.018638
0.0190654
0.0194969
0.0199252
0.0203412
0.0207342
0.0210923
0.0214007
0.0216414
0.0217892
0.0218387
0.0217729
0.021554
0.0211672
0.0205985
0.0198383
0.0188834
0.0177408
0.016429
0.0149778
0.0134281
0.0118286
0.0102323
0.00869087
0.00724971
0.00594401
0.00479639
0.00381693
0.00300529
0.00235445
0.00185551
0.00150371
0.00130778
0.00130947
0.00167422
0.00343527
9.69588e-05
4.64975e-05
3.33655e-05
2.8164e-05
2.60188e-05
2.5432e-05
2.5769e-05
2.67079e-05
2.80629e-05
2.9711e-05
3.15716e-05
3.35893e-05
3.57269e-05
3.79604e-05
4.02777e-05
4.26766e-05
4.51646e-05
4.77584e-05
5.04842e-05
5.33781e-05
5.64867e-05
5.98679e-05
6.35922e-05
6.77445e-05
7.24256e-05
7.77551e-05
8.38739e-05
9.0948e-05
9.91723e-05
0.000108776
0.000120026
0.000133236
0.000148773
0.000167062
0.000188599
0.00021396
0.000243807
0.000278908
0.000320142
0.000368517
0.00042518
0.000491436
0.00056876
0.000658809
0.000763437
0.000884702
0.00102487
0.00118641
0.00137199
0.00158443
0.00182668
0.00210173
0.00241254
0.00276191
0.00315232
0.00358575
0.0040635
0.00458591
0.00515219
0.00576014
0.00640601
0.00708434
0.00778791
0.00850786
0.00923381
0.00995426
0.010657
0.0113299
0.011961
0.01254
0.0130582
0.0135092
0.0138896
0.0141986
0.0144384
0.0146141
0.0147319
0.0148077
0.0148397
0.0148443
0.0148297
0.0148063
0.0147847
0.0147753
0.0147768
0.014801
0.0148523
0.014933
0.0150451
0.0151901
0.0153684
0.0155799
0.0158241
0.0160998
0.0164058
0.0167401
0.0171007
0.0174852
0.0178905
0.0183132
0.0187491
0.0191931
0.0196389
0.0200789
0.0205039
0.0209032
0.0212638
0.0215689
0.0218012
0.0219244
0.0219493
0.0218506
0.0215802
0.0211277
0.0204801
0.0196275
0.01857
0.0173196
0.015901
0.0143524
0.0127225
0.0110674
0.00944471
0.00790778
0.00650016
0.00525228
0.00418043
0.00328845
0.00257149
0.00202128
0.00163286
0.00141555
0.00141258
0.0018016
0.00369262
0.000105692
5.06566e-05
3.62858e-05
3.05351e-05
2.8095e-05
2.73368e-05
2.75731e-05
2.84532e-05
2.97803e-05
3.14208e-05
3.32884e-05
3.53243e-05
3.74885e-05
3.97562e-05
4.21146e-05
4.45621e-05
4.71073e-05
4.97688e-05
5.25754e-05
5.55663e-05
5.87923e-05
6.23161e-05
6.62143e-05
7.05786e-05
7.55185e-05
8.11636e-05
8.76669e-05
9.5209e-05
0.000104002
0.000114297
0.000126386
0.000140613
0.000157381
0.00017716
0.000200498
0.000228031
0.000260495
0.000298743
0.000343752
0.000396645
0.0004587
0.000531372
0.000616302
0.000715333
0.000830523
0.000964148
0.0011187
0.0012969
0.00150162
0.0017359
0.00200287
0.00230565
0.00264722
0.0030303
0.00345715
0.00392935
0.00444755
0.00501126
0.00561854
0.00626584
0.00694779
0.00765716
0.00838489
0.00912025
0.00985119
0.0105648
0.0112481
0.0118883
0.0124739
0.0129956
0.0134462
0.0138217
0.0141211
0.0143467
0.0145031
0.014601
0.0146472
0.0146526
0.0146238
0.0145778
0.0145225
0.0144679
0.014423
0.0143991
0.0143921
0.0144106
0.0144613
0.0145436
0.0146589
0.0148075
0.0149892
0.0152032
0.0154487
0.0157244
0.0160288
0.0163605
0.0167177
0.0170984
0.0175005
0.0179213
0.0183577
0.0188058
0.0192606
0.0197161
0.0201647
0.020597
0.0210018
0.0213641
0.0216675
0.0218878
0.0219907
0.0219925
0.0218539
0.0215288
0.0210072
0.0202743
0.0193225
0.0181565
0.0167942
0.0152689
0.0136278
0.0119287
0.0102345
0.0086063
0.00709676
0.00574528
0.0045757
0.00359722
0.00280806
0.00220116
0.00177167
0.00152967
0.00151975
0.00193201
0.00395471
0.000114817
5.50055e-05
3.93473e-05
3.30323e-05
3.02954e-05
2.93703e-05
2.95144e-05
3.03462e-05
3.16572e-05
3.33027e-05
3.51904e-05
3.72574e-05
3.94615e-05
4.17764e-05
4.41893e-05
4.66988e-05
4.93149e-05
5.20584e-05
5.49608e-05
5.80652e-05
6.14266e-05
6.51133e-05
6.92085e-05
7.38116e-05
7.90415e-05
8.50389e-05
9.19704e-05
0.000100033
0.000109457
0.000120517
0.000133534
0.000148885
0.000167014
0.000188437
0.000213759
0.000243685
0.00027903
0.000320738
0.000369896
0.000427748
0.000495715
0.00057541
0.000668652
0.000777482
0.000904169
0.00105121
0.00122134
0.00141749
0.00164277
0.0019004
0.00219363
0.00252565
0.00289939
0.00331738
0.00378152
0.0042928
0.00485107
0.00545476
0.00610061
0.00678348
0.00749627
0.00822985
0.0089733
0.00971415
0.0104389
0.0111337
0.0117849
0.0123802
0.0129089
0.0133634
0.0137386
0.0140331
0.0142491
0.0143918
0.0144705
0.0144962
0.014473
0.0144186
0.014342
0.0142567
0.0141715
0.0140955
0.0140365
0.0140052
0.0139952
0.0140127
0.0140653
0.0141507
0.014269
0.0144199
0.0146025
0.0148159
0.0150588
0.0153299
0.0156281
0.0159519
0.0163001
0.0166714
0.0170643
0.017477
0.0179073
0.0183526
0.0188093
0.0192728
0.0197369
0.0201939
0.0206344
0.0210453
0.0214109
0.0217125
0.0219214
0.022011
0.0219824
0.0218012
0.0214154
0.0208163
0.0199885
0.0189286
0.017646
0.0161674
0.0145363
0.0128104
0.0110567