/*--------------------------------*- C++ -*----------------------------------*\
  =========                 |
  \\      /  F ield         | OpenFOAM: The Open Source CFD Toolbox
   \\    /   O peration     | Website:  https://openfoam.org
    \\  /    A nd           | Version:  12
     \\/     M anipulation  |
\*---------------------------------------------------------------------------*/
FoamFile
{
    format      ascii;
    class       volScalarField;
    location    "8.5";
    object      k;
}
// * * * * * * * * * * * * * * * * * * * * * * * * * * * * * * * * * * * * * //

dimensions      [0 2 -2 0 0 0 0];

internalField   nonuniform List<scalar> 
18225
(
3.87775e-10
2.62441e-09
5.85058e-09
9.70573e-09
1.40235e-08
1.86982e-08
2.36505e-08
2.88145e-08
3.41328e-08
3.95542e-08
4.5033e-08
5.05295e-08
5.601e-08
6.14484e-08
6.68266e-08
7.21356e-08
7.73763e-08
8.25605e-08
8.77115e-08
9.28645e-08
9.80676e-08
1.03382e-07
1.08882e-07
1.14657e-07
1.20812e-07
1.27464e-07
1.34751e-07
1.42824e-07
1.51855e-07
1.62032e-07
1.73565e-07
1.86682e-07
2.01633e-07
2.18689e-07
2.38143e-07
2.60307e-07
2.85516e-07
3.14124e-07
3.46503e-07
3.83043e-07
4.24151e-07
4.70244e-07
5.21754e-07
5.79122e-07
6.42795e-07
7.13229e-07
7.9088e-07
8.76211e-07
9.6968e-07
1.07175e-06
1.18287e-06
1.30349e-06
1.43406e-06
1.57501e-06
1.72676e-06
1.88969e-06
2.0642e-06
2.25064e-06
2.44934e-06
2.6606e-06
2.88469e-06
3.12187e-06
3.37232e-06
3.63625e-06
3.91379e-06
4.20507e-06
4.51017e-06
4.82916e-06
5.16207e-06
5.50891e-06
5.86966e-06
6.24429e-06
6.63273e-06
7.03487e-06
7.45059e-06
7.87971e-06
8.32202e-06
8.77727e-06
9.24512e-06
9.72518e-06
1.0217e-05
1.07199e-05
1.12332e-05
1.17561e-05
1.22875e-05
1.28262e-05
1.33708e-05
1.39194e-05
1.44701e-05
1.50205e-05
1.55676e-05
1.61083e-05
1.66387e-05
1.71545e-05
1.76509e-05
1.81223e-05
1.85626e-05
1.89648e-05
1.93213e-05
1.96236e-05
1.98627e-05
2.00236e-05
2.00977e-05
2.01063e-05
2.00164e-05
1.9817e-05
1.9504e-05
1.90749e-05
1.85285e-05
1.78664e-05
1.70932e-05
1.62171e-05
1.52498e-05
1.42065e-05
1.31054e-05
1.1967e-05
1.08131e-05
9.66544e-06
8.54508e-06
7.47084e-06
6.45856e-06
5.52051e-06
4.66496e-06
3.89627e-06
3.21515e-06
2.61914e-06
2.10326e-06
1.66079e-06
1.28376e-06
9.63906e-07
6.93267e-07
4.65014e-07
2.74584e-07
1.21863e-07
1.7974e-08
2.93097e-09
2.33733e-08
5.25001e-08
8.72389e-08
1.26125e-07
1.68218e-07
2.12806e-07
2.59296e-07
3.07173e-07
3.55977e-07
4.05297e-07
4.54773e-07
5.04105e-07
5.53056e-07
6.01462e-07
6.49244e-07
6.96409e-07
7.43063e-07
7.89415e-07
8.35783e-07
8.82599e-07
9.30411e-07
9.79895e-07
1.03185e-06
1.08721e-06
1.14706e-06
1.2126e-06
1.28523e-06
1.36646e-06
1.45801e-06
1.56176e-06
1.67975e-06
1.81425e-06
1.96769e-06
2.14271e-06
2.34211e-06
2.56891e-06
2.8263e-06
3.11763e-06
3.44641e-06
3.81628e-06
4.23103e-06
4.69453e-06
5.21075e-06
5.78373e-06
6.41754e-06
7.11632e-06
7.88419e-06
8.72532e-06
9.64383e-06
1.06438e-05
1.17294e-05
1.29044e-05
1.41728e-05
1.55384e-05
1.70047e-05
1.85752e-05
2.0253e-05
2.20412e-05
2.39424e-05
2.59591e-05
2.80934e-05
3.03474e-05
3.27225e-05
3.52201e-05
3.78413e-05
4.05869e-05
4.34574e-05
4.64531e-05
4.95741e-05
5.28203e-05
5.61914e-05
5.96866e-05
6.33051e-05
6.70456e-05
7.09068e-05
7.48866e-05
7.89827e-05
8.31921e-05
8.75114e-05
9.19361e-05
9.64609e-05
0.000101079
0.000105784
0.000110565
0.000115412
0.000120312
0.000125248
0.000130203
0.000135155
0.000140078
0.000144944
0.000149717
0.00015436
0.000158828
0.000163072
0.000167036
0.000170659
0.000173869
0.000176594
0.00017874
0.000180172
0.000180818
0.000180883
0.000180059
0.00017825
0.000175419
0.000171546
0.00016662
0.000160655
0.000153694
0.000145809
0.000137106
0.000127723
0.000117822
0.000107587
9.72125e-05
8.68959e-05
7.68245e-05
6.71677e-05
5.80677e-05
4.96345e-05
4.19428e-05
3.50317e-05
2.89075e-05
2.35484e-05
1.89097e-05
1.49298e-05
1.15389e-05
8.66239e-06
6.22853e-06
4.17553e-06
2.46178e-06
1.08455e-06
1.35795e-07
6.22639e-09
5.33926e-08
1.20708e-07
2.00999e-07
2.90863e-07
3.88123e-07
4.91137e-07
5.9854e-07
7.09141e-07
8.21876e-07
9.35796e-07
1.05007e-06
1.164e-06
1.27705e-06
1.38882e-06
1.49914e-06
1.60802e-06
1.71571e-06
1.82268e-06
1.92968e-06
2.03769e-06
2.14799e-06
2.26212e-06
2.38195e-06
2.50962e-06
2.64762e-06
2.79877e-06
2.96624e-06
3.15356e-06
3.36468e-06
3.60394e-06
3.87608e-06
4.18631e-06
4.54026e-06
4.944e-06
5.40405e-06
5.92736e-06
6.52129e-06
7.19359e-06
7.95239e-06
8.80612e-06
9.7635e-06
1.08335e-05
1.20253e-05
1.33483e-05
1.48119e-05
1.64256e-05
1.81991e-05
2.0142e-05
2.22639e-05
2.45742e-05
2.70824e-05
2.97977e-05
3.27293e-05
3.58857e-05
3.92755e-05
4.29066e-05
4.67866e-05
5.09223e-05
5.53203e-05
5.99863e-05
6.49255e-05
7.01424e-05
7.56408e-05
8.14241e-05
8.74948e-05
9.38549e-05
0.000100506
0.000107448
0.000114682
0.000122208
0.000130024
0.000138128
0.00014652
0.000155195
0.000164149
0.000173378
0.000182876
0.000192635
0.000202647
0.000212899
0.00022338
0.000234072
0.000244958
0.000256015
0.000267216
0.00027853
0.00028992
0.000301342
0.000312746
0.000324072
0.000335253
0.000346209
0.000356852
0.000367079
0.000376778
0.000385822
0.000394071
0.000401366
0.00040754
0.000412398
0.000415603
0.000416987
0.000417086
0.000415124
0.000410894
0.000404322
0.000395356
0.000383974
0.000370207
0.00035415
0.00033597
0.000315909
0.000294281
0.000271462
0.000247874
0.000223966
0.00020019
0.000176981
0.000154727
0.000133758
0.000114326
9.66037e-05
8.0681e-05
6.65724e-05
5.42268e-05
4.35413e-05
3.4375e-05
2.65647e-05
1.99386e-05
1.43311e-05
9.59971e-06
5.64866e-06
2.47278e-06
2.8795e-07
1.01848e-08
8.95164e-08
2.03351e-07
3.39305e-07
4.91509e-07
6.56244e-07
8.30717e-07
1.01262e-06
1.19992e-06
1.39083e-06
1.58373e-06
1.77721e-06
1.97009e-06
2.16144e-06
2.35061e-06
2.53729e-06
2.7215e-06
2.90365e-06
3.08456e-06
3.26546e-06
3.44804e-06
3.63444e-06
3.8273e-06
4.02975e-06
4.24543e-06
4.47854e-06
4.73385e-06
5.01673e-06
5.33318e-06
5.68986e-06
6.0941e-06
6.55397e-06
7.07827e-06
7.67652e-06
8.35904e-06
9.13687e-06
1.00218e-05
1.10263e-05
1.21635e-05
1.34472e-05
1.48917e-05
1.65119e-05
1.83229e-05
2.03405e-05
2.25803e-05
2.50587e-05
2.77917e-05
3.07959e-05
3.40875e-05
3.76829e-05
4.15984e-05
4.58501e-05
5.04539e-05
5.54253e-05
6.07793e-05
6.65305e-05
7.26926e-05
7.92786e-05
8.63007e-05
9.37701e-05
0.000101697
0.00011009
0.000118958
0.000128306
0.000138142
0.000148469
0.000159291
0.000170609
0.000182425
0.000194739
0.00020755
0.000220854
0.000234648
0.000248926
0.000263681
0.000278904
0.000294586
0.000310711
0.000327266
0.00034423
0.000361584
0.0003793
0.00039735
0.000415697
0.000434302
0.000453118
0.000472089
0.000491152
0.000510235
0.000529252
0.000548106
0.000566684
0.000584858
0.000602483
0.000619395
0.000635409
0.000650321
0.000663902
0.000675903
0.000686047
0.000694029
0.000699252
0.000701444
0.000701563
0.000698266
0.000691186
0.000680205
0.000665229
0.000646211
0.000623189
0.000596309
0.000565841
0.000532184
0.000495858
0.000457491
0.000417797
0.000377534
0.000337471
0.000298346
0.000260823
0.00022546
0.00019269
0.000162805
0.000135957
0.000112171
9.13612e-05
7.33513e-05
5.79035e-05
4.47412e-05
3.35737e-05
2.41212e-05
1.61439e-05
9.48176e-06
4.13156e-06
4.69436e-07
1.46831e-08
1.3035e-07
2.97139e-07
4.96694e-07
7.2023e-07
9.62215e-07
1.21852e-06
1.48573e-06
1.76086e-06
2.04128e-06
2.32459e-06
2.60872e-06
2.89193e-06
3.17285e-06
3.45051e-06
3.72445e-06
3.99469e-06
4.26184e-06
4.5271e-06
4.79226e-06
5.05981e-06
5.3329e-06
5.61538e-06
5.91185e-06
6.22767e-06
6.569e-06
6.94283e-06
7.35706e-06
7.82048e-06
8.34288e-06
8.93504e-06
9.60881e-06
1.03771e-05
1.1254e-05
1.22545e-05
1.33951e-05
1.46929e-05
1.61664e-05
1.7835e-05
1.97189e-05
2.18393e-05
2.42181e-05
2.68777e-05
2.98412e-05
3.3132e-05
3.6774e-05
4.07914e-05
4.52082e-05
5.00489e-05
5.53378e-05
6.10991e-05
6.73569e-05
7.41349e-05
8.14564e-05
8.93438e-05
9.78192e-05
0.000106903
0.000116616
0.000126975
0.000137997
0.000149699
0.000162093
0.000175192
0.000189006
0.000203542
0.000218806
0.000234804
0.000251535
0.000269001
0.000287197
0.00030612
0.00032576
0.000346109
0.000367151
0.000388871
0.000411249
0.000434262
0.000457884
0.000482083
0.000506825
0.000532071
0.000557777
0.000583892
0.000610361
0.000637122
0.000664104
0.000691228
0.000718405
0.000745532
0.000772495
0.00079916
0.000825379
0.000850979
0.000875768
0.000899527
0.000922009
0.000942938
0.000962004
0.000978873
0.000993171
0.00100445
0.00101192
0.00101509
0.00101535
0.00101089
0.00100104
0.000985626
0.000964493
0.000937539
0.00090478
0.00086639
0.000822724
0.00077433
0.000721945
0.00066647
0.00060894
0.00055047
0.000492196
0.000435212
0.00038051
0.000328925
0.000281105
0.000237488
0.000198306
0.000163596
0.000133233
0.00010696
8.44263e-05
6.52271e-05
4.89362e-05
3.51447e-05
2.35033e-05
1.37822e-05
5.98564e-06
6.7338e-07
1.96354e-08
1.75145e-07
4.00248e-07
6.70065e-07
9.72544e-07
1.30009e-06
1.64706e-06
2.00881e-06
2.38129e-06
2.76088e-06
3.14436e-06
3.52891e-06
3.91213e-06
4.29216e-06
4.6677e-06
5.03809e-06
5.40338e-06
5.76436e-06
6.12265e-06
6.48069e-06
6.84184e-06
7.21036e-06
7.59146e-06
7.99136e-06
8.41732e-06
8.87766e-06
9.38187e-06
9.94061e-06
1.05658e-05
1.12707e-05
1.20699e-05
1.29794e-05
1.40169e-05
1.52012e-05
1.6553e-05
1.80942e-05
1.98486e-05
2.1841e-05
2.40978e-05
2.66466e-05
2.95162e-05
3.27363e-05
3.63376e-05
4.03516e-05
4.48104e-05
4.97465e-05
5.5193e-05
6.1183e-05
6.77501e-05
7.49276e-05
8.27491e-05
9.12478e-05
0.000100456
0.000110407
0.000121132
0.00013266
0.000145022
0.000158244
0.000172351
0.000187368
0.000203316
0.000220212
0.000238072
0.000256909
0.000276732
0.000297547
0.000319355
0.000342154
0.000365938
0.000390696
0.000416412
0.000443067
0.000470635
0.000499085
0.000528383
0.000558488
0.000589356
0.000620935
0.000653173
0.000686008
0.000719379
0.000753216
0.000787446
0.000821992
0.00085677
0.00089169
0.000926655
0.000961557
0.000996277
0.00103068
0.00106463
0.00109793
0.00113041
0.00116183
0.00119195
0.00122048
0.00124707
0.00127137
0.00129297
0.00131139
0.00132606
0.00133612
0.00134062
0.00134132
0.00133632
0.00132431
0.0013051
0.00127843
0.0012441
0.00120207
0.00115249
0.00109577
0.00103258
0.000963839
0.000890731
0.000814619
0.000737001
0.000659417
0.000583369
0.000510226
0.000441153
0.000377057
0.00031856
0.000265994
0.000219424
0.000178687
0.000143442
0.000113216
8.74623e-05
6.56076e-05
4.71022e-05
3.1479e-05
1.84354e-05
7.98801e-06
8.94439e-07
2.49872e-08
2.23453e-07
5.11571e-07
8.57505e-07
1.24565e-06
1.66613e-06
2.11164e-06
2.57616e-06
3.05446e-06
3.54187e-06
4.03421e-06
4.52784e-06
5.01967e-06
5.50728e-06
5.98897e-06
6.4639e-06
6.93211e-06
7.39461e-06
7.85347e-06
8.31185e-06
8.77402e-06
9.24547e-06
9.7329e-06
1.02443e-05
1.07889e-05
1.13776e-05
1.20224e-05
1.2737e-05
1.35368e-05
1.44388e-05
1.54617e-05
1.66262e-05
1.79549e-05
1.94723e-05
2.12047e-05
2.31807e-05
2.54307e-05
2.79868e-05
3.08831e-05
3.41554e-05
3.78408e-05
4.19779e-05
4.66064e-05
5.17672e-05
5.7502e-05
6.38532e-05
7.08636e-05
7.85769e-05
8.70366e-05
9.62867e-05
0.000106371
0.000117333
0.000129216
0.000142063
0.000155915
0.000170812
0.000186793
0.000203892
0.000222144
0.000241577
0.000262219
0.000284092
0.000307212
0.000331593
0.000357241
0.000384157
0.000412335
0.000441761
0.000472416
0.00050427
0.000537287
0.000571424
0.000606627
0.000642838
0.00067999
0.00071801
0.000756818
0.000796333
0.000836468
0.000877132
0.000918235
0.000959685
0.00100139
0.00104325
0.00108518
0.00112707
0.00116883
0.00121035
0.00125152
0.00129221
0.00133227
0.00137153
0.00140981
0.00144688
0.00148247
0.00151628
0.00154793
0.00157702
0.00160306
0.0016255
0.00164365
0.00165674
0.00166313
0.0016647
0.00166005
0.00164688
0.00162496
0.00159392
0.00155342
0.00150331
0.00144368
0.00137494
0.00129782
0.00121341
0.00112313
0.00102865
0.000931852
0.000834698
0.000739126
0.00064693
0.000559653
0.000478516
0.000404367
0.000337679
0.000278568
0.000226851
0.000182103
0.000143727
0.000111028
8.32758e-05
5.97717e-05
3.99248e-05
2.33584e-05
1.01047e-05
1.12861e-06
3.07045e-08
2.74998e-07
6.30417e-07
1.05779e-06
1.53773e-06
2.05791e-06
2.60917e-06
3.18403e-06
3.77594e-06
4.37909e-06
4.98828e-06
5.59895e-06
6.20725e-06
6.81014e-06
7.40551e-06
7.99227e-06
8.57048e-06
9.14139e-06
9.70755e-06
1.02728e-05
1.08426e-05
1.14236e-05
1.20241e-05
1.26541e-05
1.3325e-05
1.40502e-05
1.48446e-05
1.57253e-05
1.67112e-05
1.78234e-05
1.90852e-05
2.05223e-05
2.21625e-05
2.40364e-05
2.61768e-05
2.86191e-05
3.14011e-05
3.45631e-05
3.81473e-05
4.21985e-05
4.6763e-05
5.18892e-05
5.76267e-05
6.40269e-05
7.1142e-05
7.90254e-05
8.77311e-05
9.73139e-05
0.000107829
0.000119332
0.000131879
0.000145525
0.000160324
0.000176331
0.000193599
0.000212177
0.000232114
0.000253453
0.000276236
0.000300497
0.000326266
0.000353566
0.000382413
0.000412814
0.000444766
0.000478257
0.000513265
0.000549753
0.000587677
0.000626975
0.000667577
0.000709399
0.000752349
0.000796322
0.000841208
0.00088689
0.000933246
0.000980154
0.00102749
0.00107514
0.00112299
0.00117093
0.00121886
0.00126668
0.00131431
0.00136166
0.00140867
0.00145524
0.00150129
0.00154673
0.00159144
0.00163529
0.0016781
0.00171967
0.00175974
0.00179799
0.00183404
0.00186742
0.00189762
0.00192399
0.00194577
0.00196218
0.00197116
0.00197405
0.00197067
0.00195748
0.00193411
0.0019001
0.00185495
0.00179837
0.00173034
0.00165123
0.00156178
0.00146317
0.001357
0.00124523
0.00113006
0.00101388
0.000899063
0.000787849
0.000682207
0.000583718
0.000493515
0.000412257
0.000340157
0.000277033
0.000222396
0.000175532
0.000135596
0.000101697
7.29798e-05
4.87273e-05
2.84869e-05
1.23091e-05
1.3728e-06
3.67661e-08
3.29607e-07
7.5636e-07
1.27017e-06
1.84764e-06
2.47383e-06
3.13764e-06
3.82994e-06
4.54281e-06
5.26918e-06
6.00271e-06
6.73788e-06
7.46998e-06
8.19532e-06
8.91133e-06
9.61667e-06
1.03114e-05
1.0997e-05
1.16765e-05
1.23547e-05
1.3038e-05
1.37345e-05
1.44542e-05
1.52091e-05
1.60132e-05
1.68823e-05
1.78346e-05
1.88907e-05
2.00733e-05
2.14081e-05
2.2923e-05
2.46491e-05
2.66202e-05
2.8873e-05
3.14475e-05
3.43865e-05
3.7736e-05
4.15446e-05
4.58639e-05
5.07483e-05
5.62543e-05
6.24407e-05
6.93684e-05
7.71e-05
8.56996e-05
9.52324e-05
0.000105765
0.000117365
0.0001301
0.000144039
0.00015925
0.000175802
0.000193763
0.000213197
0.000234171
0.000256744
0.000280974
0.000306913
0.000334606
0.000364092
0.0003954
0.000428548
0.000463543
0.000500379
0.000539035
0.000579474
0.000621643
0.000665471
0.000710868
0.000757729
0.000805931
0.000855336
0.000905795
0.000957147
0.00100923
0.00106187
0.00111491
0.00116818
0.00122153
0.00127483
0.00132796
0.0013808
0.00143328
0.00148533
0.00153689
0.00158792
0.0016384
0.0016883
0.00173758
0.0017862
0.00183409
0.00188118
0.00192732
0.00197233
0.00201596
0.0020579
0.00209774
0.00213499
0.00216906
0.00219924
0.00222471
0.00224462
0.00225681
0.00226143
0.00226
0.00224782
0.0022242
0.00218861
0.0021404
0.00207912
0.00200461
0.00191714
0.00181741
0.00170663
0.00158652
0.0014592
0.00132719
0.00119322
0.00106009
0.000930499
0.000806848
0.000691131
0.000584819
0.000488816
0.000403482
0.000328684
0.000263894
0.000208298
0.000160911
0.000120678
8.65897e-05
5.77967e-05
3.37702e-05
1.45801e-05
1.62457e-06
4.31601e-08
3.87181e-07
8.89152e-07
1.49417e-06
2.17467e-06
2.91295e-06
3.6958e-06
4.51238e-06
5.35324e-06
6.20996e-06
7.07502e-06
7.94178e-06
8.80467e-06
9.65926e-06
1.05025e-05
1.13327e-05
1.215e-05
1.29561e-05
1.37546e-05
1.45512e-05
1.53533e-05
1.61707e-05
1.70153e-05
1.79011e-05
1.88445e-05
1.98645e-05
2.09826e-05
2.22229e-05
2.36125e-05
2.51815e-05
2.69633e-05
2.89945e-05
3.13152e-05
3.39691e-05
3.70036e-05
4.04695e-05
4.44215e-05
4.89176e-05
5.40195e-05
5.97918e-05
6.63022e-05
7.36212e-05
8.18216e-05
9.09785e-05
0.000101169
0.000112472
0.000124967
0.000138735
0.00015386
0.000170422
0.000188506
0.000208193
0.000229564
0.000252699
0.000277673
0.000304557
0.000333416
0.000364307
0.000397279
0.000432366
0.000469592
0.000508962
0.000550465
0.00059407
0.000639724
0.000687351
0.00073685
0.000788098
0.000840947
0.000895225
0.000950744
0.0010073
0.00106467
0.00112263
0.00118097
0.00123945
0.00129789
0.00135609
0.0014139
0.00147117
0.0015278
0.00158372
0.0016389
0.0016933
0.00174695
0.00179988
0.00185212
0.00190372
0.00195472
0.00200514
0.00205497
0.00210417
0.00215264
0.00220022
0.00224666
0.00229165
0.00233476
0.00237544
0.00241307
0.00244685
0.00247591
0.00249926
0.00251502
0.00252186
0.00252251
0.00251222
0.00248937
0.00245345
0.0024037
0.00233948
0.00226049
0.00216685
0.00205917
0.00193861
0.0018069
0.0016663
0.00151951
0.00136955
0.00121959
0.00107276
0.000931904
0.000799466
0.000677299
0.000566619
0.000467989
0.00038138
0.00030627
0.000241774
0.000186777
0.000140073
0.000100496
6.70632e-05
3.91684e-05
1.6901e-05
1.88201e-06
4.98808e-08
4.47675e-07
1.02868e-06
1.72959e-06
2.51849e-06
3.37476e-06
4.28299e-06
5.23049e-06
6.20619e-06
7.20023e-06
8.20376e-06
9.209e-06
1.02094e-05
1.11997e-05
1.21764e-05
1.31375e-05
1.4083e-05
1.50151e-05
1.59379e-05
1.68579e-05
1.7784e-05
1.87274e-05
1.9702e-05
2.07242e-05
2.1813e-05
2.29906e-05
2.42818e-05
2.57149e-05
2.73214e-05
2.91364e-05
3.11988e-05
3.35511e-05
3.62404e-05
3.93177e-05
4.28382e-05
4.68617e-05
5.14522e-05
5.66778e-05
6.26109e-05
6.93276e-05
7.69075e-05
8.54337e-05
9.49924e-05
0.000105672
0.000117564
0.000130762
0.00014536
0.000161455
0.000179145
0.000198526
0.000219697
0.000242755
0.000267795
0.000294907
0.000324178
0.000355688
0.000389505
0.00042569
0.000464285
0.000505317
0.000548793
0.000594696
0.000642983
0.000693584
0.000746397
0.00080129
0.000858098
0.000916626
0.000976649
0.00103792
0.00110016
0.0011631
0.00122644
0.00128989
0.0013532
0.00141609
0.00147834
0.00153978
0.00160024
0.00165964
0.00171791
0.00177505
0.00183108
0.00188608
0.00194015
0.00199339
0.00204594
0.00209792
0.00214944
0.00220058
0.00225138
0.00230184
0.00235188
0.00240133
0.00244997
0.00249744
0.00254329
0.00258694
0.00262769
0.00266471
0.00269703
0.00272355
0.00274285
0.00275237
0.00275481
0.00274708
0.00272579
0.00269061
0.00264068
0.00257522
0.00249373
0.00239616
0.00228298
0.00215524
0.00201458
0.00186327
0.00170413
0.00154037
0.00137547
0.00121293
0.00105604
0.000907701
0.000770195
0.000645104
0.000533267
0.000434819
0.000349297
0.000275781
0.000213058
0.000159777
0.000114621
7.64748e-05
4.46516e-05
1.9259e-05
2.14367e-06
5.69276e-08
5.11087e-07
1.17494e-06
1.97639e-06
2.879e-06
3.85912e-06
4.899e-06
5.98399e-06
7.10129e-06
8.23948e-06
9.38831e-06
1.05388e-05
1.16832e-05
1.28156e-05
1.39318e-05
1.50295e-05
1.61087e-05
1.71719e-05
1.82239e-05
1.92722e-05
2.0327e-05
2.14013e-05
2.25109e-05
2.36747e-05
2.49148e-05
2.62563e-05
2.77282e-05
2.93627e-05
3.11961e-05
3.32689e-05
3.56256e-05
3.83156e-05
4.13929e-05
4.49165e-05
4.89502e-05
5.35632e-05
5.88295e-05
6.48283e-05
7.16434e-05
7.93634e-05
8.8081e-05
9.7893e-05
0.0001089
0.000121205
0.000134915
0.000150139
0.000166988
0.000185575
0.000206013
0.000228416
0.000252898
0.000279569
0.000308538
0.000339907
0.000373772
0.000410215
0.000449308
0.000491103
0.000535634
0.000582907
0.000632902
0.000685565
0.000740807
0.0007985
0.000858477
0.00092053
0.000984413
0.00104984
0.0011165
0.00118405
0.00125213
0.00132038
0.00138845
0.001456
0.00152273
0.00158836
0.00165268
0.00171553
0.00177682
0.00183651
0.00189463
0.00195127
0.00200655
0.00206065
0.00211375
0.00216608
0.00221784
0.00226922
0.0023204
0.0023715
0.0024226
0.00247369
0.00252471
0.00257548
0.00262575
0.00267513
0.00272314
0.00276917
0.00281247
0.00285217
0.00288726
0.00291659
0.00293891
0.00295121
0.00295531
0.0029504
0.00293128
0.00289776
0.00284889
0.00278374
0.00270166
0.0026024
0.0024862
0.00235392
0.00220707
0.00204783
0.00187899
0.00170389
0.00152621
0.00134977
0.00117828
0.00101509
0.000862961
0.000723885
0.000599044
0.000488808
0.000392833
0.000310215
0.000239668
0.000179723
0.000128914
8.59962e-05
5.01987e-05
2.16451e-05
2.40853e-06
6.4304e-08
5.77452e-07
1.32799e-06
2.23468e-06
3.25635e-06
4.36619e-06
5.54399e-06
6.77303e-06
8.03868e-06
9.32782e-06
1.06287e-05
1.1931e-05
1.32259e-05
1.45066e-05
1.57681e-05
1.7008e-05
1.82263e-05
1.94256e-05
2.06116e-05
2.17928e-05
2.29808e-05
2.41904e-05
2.54399e-05
2.67506e-05
2.81476e-05
2.96597e-05
3.13196e-05
3.31643e-05
3.52349e-05
3.75775e-05
4.02431e-05
4.32879e-05
4.67736e-05
5.07675e-05
5.53429e-05
6.05789e-05
6.65605e-05
7.33785e-05
8.11294e-05
8.99151e-05
9.98424e-05
0.000111023
0.000123573
0.000137612
0.000153263
0.000170651
0.000189906
0.000211158
0.000234535
0.00026017
0.000288191
0.000318723
0.000351885
0.00038779
0.000426536
0.000468208
0.00051287
0.000560561
0.000611293
0.000665041
0.000721742
0.000781289
0.000843531
0.000908263
0.000975233
0.00104414
0.00111464
0.00118635
0.00125884
0.0013317
0.00140447
0.00147672
0.00154806
0.00161811
0.00168657
0.00175318
0.00181777
0.00188027
0.00194064
0.00199898
0.0020554
0.00211011
0.00216335
0.0022154
0.00226656
0.00231712
0.00236735
0.00241751
0.0024678
0.00251837
0.00256928
0.00262054
0.00267204
0.0027236
0.00277492
0.0028256
0.00287512
0.00292282
0.00296796
0.00300963
0.00304682
0.00307839
0.00310313
0.00311807
0.00312372
0.00312157
0.00310511
0.00307399
0.00302727
0.00296389
0.00288301
0.00278416
0.00266735
0.00253318
0.00238292
0.00221856
0.00204279
0.00185893
0.0016708
0.00148246
0.00129798
0.00112117
0.000955265
0.00080274
0.000665179
0.000543259
0.000436822
0.000345032
0.000266574
0.000199879
0.000143349
9.56075e-05
5.57975e-05
2.40537e-05
2.67596e-06
7.20167e-08
6.46832e-07
1.48799e-06
2.5047e-06
3.65086e-06
4.89637e-06
6.21845e-06
7.59816e-06
9.01892e-06
1.04659e-05
1.19256e-05
1.33863e-05
1.48382e-05
1.62732e-05
1.76858e-05
1.90733e-05
2.04357e-05
2.17759e-05
2.31005e-05
2.4419e-05
2.57447e-05
2.70943e-05
2.84884e-05
2.99511e-05
3.15109e-05
3.32002e-05
3.50559e-05
3.71197e-05
3.94383e-05
4.20636e-05
4.50533e-05
4.8471e-05
5.23865e-05
5.68764e-05
6.20237e-05
6.79184e-05
7.46571e-05
8.23433e-05
9.10871e-05
0.000101005
0.000112218
0.000124856
0.000139049
0.000154936
0.000172657
0.000192356
0.00021418
0.000238275
0.000264791
0.000293874
0.000325667
0.000360308
0.000397926
0.000438637
0.00048254
0.000529713
0.000580205
0.000634032
0.000691169
0.000751546
0.000815043
0.000881481
0.000950624
0.00102218
0.00109578
0.00117103
0.00124747
0.0013246
0.00140191
0.00147887
0.00155498
0.00162974
0.00170274
0.00177361
0.00184207
0.00190794
0.00197113
0.00203165
0.00208961
0.00214521
0.0021987
0.00225042
0.00230072
0.00234998
0.00239857
0.00244686
0.00249516
0.00254375
0.00259283
0.00264253
0.00269292
0.00274394
0.00279547
0.00284729
0.00289906
0.00295035
0.00300062
0.00304922
0.00309538
0.00313823
0.00317675
0.00320987
0.00323637
0.00325371
0.00326093
0.00326115
0.00324773
0.00321964
0.00317601
0.00311568
0.00303764
0.00294117
0.00282602
0.00269247
0.00254149
0.00237479
0.00219485
0.00200487
0.00180869
0.00161053
0.00141479
0.00122569
0.00104696
0.000881596
0.000731651
0.00059818
0.000481281
0.000380248
0.000293784
0.000220247
0.000157922
0.000105303
6.14435e-05
2.64826e-05
2.9457e-06
8.00756e-08
7.19317e-07
1.65514e-06
2.78677e-06
4.063e-06
5.45027e-06
6.9231e-06
8.46023e-06
1.0043e-05
1.16546e-05
1.328e-05
1.49059e-05
1.65209e-05
1.81163e-05
1.96859e-05
2.12263e-05
2.27378e-05
2.42237e-05
2.56913e-05
2.71516e-05
2.86193e-05
3.01134e-05
3.16569e-05
3.3277e-05
3.50054e-05
3.68788e-05
3.89384e-05
4.1231e-05
4.38089e-05
4.67304e-05
5.00604e-05
5.38703e-05
5.82387e-05
6.32518e-05
6.90033e-05
7.55947e-05
8.31352e-05
9.1742e-05
0.00010154
0.00011266
0.000125241
0.000139429
0.000155372
0.000173228
0.000193155
0.000215317
0.000239878
0.000267005
0.000296862
0.000329613
0.000365412
0.000404409
0.000446737
0.000492512
0.000541827
0.000594742
0.000651282
0.000711425
0.000775098
0.000842168
0.000912436
0.000985636
0.00106143
0.00113941
0.00121911
0.00129999
0.00138148
0.00146298
0.00154387
0.00162357
0.00170151
0.00177719
0.00185021
0.00192023
0.00198706
0.00205061
0.00211091
0.00216811
0.00222247
0.0022743
0.00232402
0.00237207
0.0024189
0.00246497
0.00251073
0.00255654
0.00260274
0.00264959
0.00269728
0.00274591
0.00279547
0.00284589
0.002897
0.00294852
0.0030001
0.00305129
0.00310154
0.00315021
0.00319656
0.00323976
0.00327884
0.00331276
0.00334036
0.00335974
0.00336883
0.0033707
0.00336064
0.00333607
0.00329631
0.00324013
0.00316635
0.00307402
0.00296259
0.00283199
0.00268281
0.00251642
0.00233498
0.00214148
0.00193966
0.00173382
0.0015286
0.00132859
0.00113805
0.000960501
0.000798535
0.000653653
0.000526289
0.00041593
0.000321346
0.000240859
0.000172651
0.000115091
6.71395e-05
2.89327e-05
3.21783e-06
8.8493e-08
7.95018e-07
1.8297e-06
3.08134e-06
4.4934e-06
6.0287e-06
7.65893e-06
9.36039e-06
1.11122e-05
1.28955e-05
1.46935e-05
1.64911e-05
1.82758e-05
2.00377e-05
2.17698e-05
2.34685e-05
2.5134e-05
2.67703e-05
2.83854e-05
2.99918e-05
3.16059e-05
3.3249e-05
3.49468e-05
3.67297e-05
3.86332e-05
4.06979e-05
4.29699e-05
4.55014e-05
4.83508e-05
5.15831e-05
5.52707e-05
5.94935e-05
6.43395e-05
6.99051e-05
7.62954e-05
8.36243e-05
9.20145e-05
0.000101598
0.000112514
0.000124912
0.000138947
0.000154784
0.00017259
0.000192542
0.000214818
0.000239601
0.000267075
0.000297424
0.00033083
0.000367469
0.000407507
0.000451099
0.000498379
0.000549456
0.000604406
0.000663264
0.000726016
0.000792587
0.000862839
0.000936558
0.00101345
0.00109314
0.00117518
0.00125902
0.00134407
0.00142968
0.00151516
0.0015998
0.00168292
0.00176388
0.0018421
0.0019171
0.00198853
0.00205615
0.00211988
0.00217976
0.00223599
0.00228885
0.00233876
0.00238618
0.00243165
0.0024757
0.00251888
0.00256168
0.00260457
0.0026479
0.00269199
0.00273707
0.00278328
0.00283064
0.00287913
0.00292859
0.00297881
0.00302949
0.00308025
0.00313063
0.00318011
0.00322807
0.00327383
0.0033166
0.00335551
0.00338959
0.00341773
0.00343866
0.00344955
0.00345282
0.0034462
0.00342548
0.0033902
0.00333904
0.00327069
0.00318398
0.00307804
0.00295244
0.00280737
0.00264375
0.00246334
0.00226882
0.00206372
0.00185233
0.00163942
0.00142995
0.00122864
0.00103959
0.00086598
0.000709829
0.000571978
0.000452185
0.00034934
0.000261768
0.000187568
0.00012499
7.28947e-05
3.14075e-05
3.49272e-06
9.72836e-08
8.7407e-07
2.01197e-06
3.38891e-06
4.94277e-06
6.63262e-06
8.42714e-06
1.03e-05
1.22281e-05
1.41903e-05
1.61678e-05
1.81441e-05
2.01049e-05
2.20393e-05
2.39396e-05
2.58019e-05
2.76264e-05
2.94177e-05
3.11848e-05
3.29416e-05
3.47066e-05
3.65034e-05
3.83606e-05
4.03121e-05
4.23971e-05
4.46608e-05
4.71545e-05
4.99359e-05
5.30697e-05
5.66285e-05
6.06924e-05
6.53504e-05
7.07005e-05
7.685e-05
8.39162e-05
9.20261e-05
0.000101317
0.000111936
0.000124041
0.000137796
0.000153377
0.000170967
0.000190754
0.000212935
0.000237708
0.000265276
0.000295843
0.000329608
0.00036677
0.000407516
0.000452019
0.000500434
0.000552889
0.000609478
0.000670249
0.0007352
0.000804261
0.000877292
0.000954068
0.00103428
0.00111751
0.00120328
0.00129098
0.00137995
0.00146947
0.00155874
0.00164699
0.00173343
0.00181733
0.00189803
0.00197499
0.00204779
0.00211617
0.00218004
0.00223945
0.00229461
0.00234589
0.00239375
0.00243874
0.00248145
0.00252253
0.00256258
0.00260218
0.00264183
0.00268198
0.00272297
0.00276505
0.00280839
0.00285306
0.00289903
0.00294618
0.00299434
0.00304324
0.00309256
0.00314192
0.00319086
0.0032389
0.00328546
0.00332994
0.00337163
0.00340975
0.00344342
0.00347169
0.00349351
0.00350616
0.00351069
0.00350738
0.00349071
0.00346028
0.00341478
0.00335274
0.00327279
0.0031738
0.00305495
0.00291597
0.00275731
0.00258027
0.00238709
0.00218101
0.00196616
0.00174738
0.00152991
0.0013189
0.00111906
0.000934187
0.000766896
0.000618519
0.000489153
0.000377874
0.00028305
0.000202722
0.000135029
7.87237e-05
3.39127e-05
3.771e-06
1.06464e-07
9.56623e-07
2.2023e-06
3.71008e-06
5.41199e-06
7.26315e-06
9.22909e-06
1.12808e-05
1.33925e-05
1.5541e-05
1.77054e-05
1.98671e-05
2.20106e-05
2.41237e-05
2.61979e-05
2.82291e-05
3.02176e-05
3.21685e-05
3.40921e-05
3.60038e-05
3.79243e-05
3.98796e-05
4.19015e-05
4.40276e-05
4.63012e-05
4.87722e-05
5.14973e-05
5.45403e-05
5.79727e-05
6.18747e-05
6.63351e-05
7.14523e-05
7.73349e-05
8.4102e-05
9.18838e-05
0.000100822
0.000111068
0.000122786
0.000136152
0.000151349
0.000168572
0.000188025
0.000209916
0.000234464
0.000261887
0.000292409
0.00032625
0.000363627
0.000404751
0.000449816
0.000498998
0.000552446
0.000610274
0.000672549
0.000739282
0.000810414
0.000885809
0.000965239
0.00104838
0.0011348
0.00122396
0.00131524
0.00140789
0.0015011
0.00159403
0.00168579
0.0017755
0.00186233
0.00194554
0.00202451
0.00209876
0.00216798
0.00223206
0.00229105
0.00234522
0.00239494
0.00244076
0.00248327
0.0025232
0.00256123
0.00259806
0.00263432
0.0026706
0.00270738
0.00274507
0.00278393
0.00282415
0.00286581
0.00290892
0.00295336
0.00299898
0.00304554
0.00309275
0.00314027
0.00318773
0.00323472
0.00328077
0.0033254
0.00336805
0.00340813
0.00344496
0.00347777
0.00350573
0.00352794
0.00354222
0.00354801
0.00354756
0.00353505
0.00350961
0.00347009
0.00341494
0.00334256
0.0032516
0.00314085
0.00300961
0.00285782
0.00268623
0.00249658
0.00229169
0.00207543
0.0018526
0.00162859
0.00140901
0.00119911
0.00100337
0.000825068
0.000666104
0.000526996
0.000407074
0.000304797
0.000218175
0.000145243
8.46457e-05
3.64559e-05
4.05349e-06
1.16054e-07
1.04285e-06
2.40109e-06
4.04549e-06
5.90198e-06
7.92153e-06
1.00663e-05
1.23045e-05
1.46076e-05
1.695e-05
1.93086e-05
2.16628e-05
2.39957e-05
2.62937e-05
2.85477e-05
3.07531e-05
3.29105e-05
3.50258e-05
3.71105e-05
3.91816e-05
4.12622e-05
4.33812e-05
4.55735e-05
4.78805e-05
5.03502e-05
5.30374e-05
5.60045e-05
5.93218e-05
6.3068e-05
6.73314e-05
7.22098e-05
7.7812e-05
8.42577e-05
9.16785e-05
0.000100218
0.000110034
0.000121293
0.000134178
0.000148882
0.00016561
0.000184577
0.000206006
0.00023013
0.000257187
0.000287418
0.000321063
0.000358361
0.000399543
0.000444828
0.000494415
0.000548475
0.000607144
0.00067051
0.000738603
0.00081138
0.000888715
0.000970384
0.00105606
0.00114529
0.00123752
0.00133206
0.00142814
0.00152487
0.00162132
0.00171652
0.00180948
0.00189929
0.0019851
0.00206621
0.00214206
0.0022123
0.00227677
0.00233553
0.00238885
0.00243715
0.00248103
0.00252118
0.00255836
0.00259338
0.00262698
0.00265989
0.00269276
0.00272611
0.0027604
0.00279595
0.00283295
0.00287148
0.00291156
0.0029531
0.00299594
0.00303986
0.00308459
0.00312983
0.00317524
0.00322046
0.00326512
0.00330881