/*--------------------------------*- C++ -*----------------------------------*\
  =========                 |
  \\      /  F ield         | OpenFOAM: The Open Source CFD Toolbox
   \\    /   O peration     | Website:  https://openfoam.org
    \\  /    A nd           | Version:  12
     \\/     M anipulation  |
\*---------------------------------------------------------------------------*/
FoamFile
{
    format      ascii;
    class       volScalarField;
    location    "8.5";
    object      nut;
}
// * * * * * * * * * * * * * * * * * * * * * * * * * * * * * * * * * * * * * //

dimensions      [0 2 -1 0 0 0 0];

internalField   nonuniform List<scalar> 
18225
(
9.58046e-15
6.48392e-14
1.44546e-13
2.39792e-13
3.46466e-13
4.61962e-13
5.84314e-13
7.11897e-13
8.43292e-13
9.77233e-13
1.1126e-12
1.24839e-12
1.3838e-12
1.51816e-12
1.65103e-12
1.7822e-12
1.91168e-12
2.03976e-12
2.16702e-12
2.29434e-12
2.42289e-12
2.55418e-12
2.69007e-12
2.83275e-12
2.9848e-12
3.14915e-12
3.32917e-12
3.52862e-12
3.75172e-12
4.00313e-12
4.28803e-12
4.61206e-12
4.98139e-12
5.40272e-12
5.88327e-12
6.43076e-12
7.05347e-12
7.76012e-12
8.55992e-12
9.4625e-12
1.04779e-11
1.16164e-11
1.28887e-11
1.43057e-11
1.58784e-11
1.76181e-11
1.95361e-11
2.16437e-11
2.39523e-11
2.64733e-11
2.92179e-11
3.21973e-11
3.54222e-11
3.89035e-11
4.26513e-11
4.66756e-11
5.09857e-11
5.55904e-11
6.04979e-11
6.57156e-11
7.12503e-11
7.71079e-11
8.32936e-11
8.98119e-11
9.66665e-11
1.0386e-10
1.11395e-10
1.19273e-10
1.27495e-10
1.36061e-10
1.44971e-10
1.54223e-10
1.63816e-10
1.73748e-10
1.84014e-10
1.94612e-10
2.05536e-10
2.16779e-10
2.28334e-10
2.4019e-10
2.52335e-10
2.64755e-10
2.77433e-10
2.90347e-10
3.03471e-10
3.16776e-10
3.30225e-10
3.43775e-10
3.57375e-10
3.70967e-10
3.8448e-10
3.97833e-10
4.10933e-10
4.23673e-10
4.35932e-10
4.47574e-10
4.58448e-10
4.68383e-10
4.77186e-10
4.84654e-10
4.90559e-10
4.94533e-10
4.96365e-10
4.96577e-10
4.94357e-10
4.89433e-10
4.81704e-10
4.71106e-10
4.57613e-10
4.41262e-10
4.22167e-10
4.00529e-10
3.76639e-10
3.50873e-10
3.23679e-10
2.95564e-10
2.67064e-10
2.38721e-10
2.1105e-10
1.84518e-10
1.59517e-10
1.36349e-10
1.15218e-10
9.6233e-11
7.94104e-11
6.46898e-11
5.19482e-11
4.10196e-11
3.17075e-11
2.38075e-11
1.7123e-11
1.14854e-11
6.78195e-12
3.00989e-12
4.43941e-13
2.89653e-13
9.44306e-12
2.37404e-11
4.03905e-11
5.88702e-11
7.88055e-11
9.98878e-11
1.2185e-10
1.44456e-10
1.6749e-10
1.90759e-10
2.14095e-10
2.37356e-10
2.60429e-10
2.83238e-10
3.05742e-10
3.27946e-10
3.49899e-10
3.71699e-10
3.93496e-10
4.15491e-10
4.37945e-10
4.61173e-10
4.85552e-10
5.11522e-10
5.39589e-10
5.70326e-10
6.04379e-10
6.4247e-10
6.85398e-10
7.34048e-10
7.89386e-10
8.52469e-10
9.24444e-10
1.00654e-09
1.10009e-09
1.20651e-09
1.32728e-09
1.46398e-09
1.61826e-09
1.79182e-09
1.98644e-09
2.20393e-09
2.44614e-09
2.71495e-09
3.01227e-09
3.34e-09
3.70008e-09
4.09442e-09
4.52493e-09
4.9935e-09
5.50199e-09
6.05221e-09
6.64593e-09
7.28485e-09
7.97059e-09
8.70467e-09
9.4885e-09
1.03234e-08
1.12105e-08
1.21509e-08
1.31454e-08
1.41949e-08
1.52999e-08
1.64609e-08
1.76784e-08
1.89525e-08
2.02833e-08
2.16709e-08
2.31151e-08
2.46158e-08
2.61727e-08
2.77855e-08
2.94536e-08
3.11764e-08
3.29533e-08
3.47833e-08
3.66654e-08
3.85985e-08
4.05809e-08
4.2611e-08
4.46865e-08
4.68049e-08
4.8963e-08
5.11569e-08
5.33823e-08
5.56337e-08
5.79045e-08
6.01872e-08
6.24726e-08
6.47497e-08
6.7006e-08
6.92265e-08
7.13944e-08
7.34899e-08
7.5491e-08
7.73728e-08
7.9107e-08
8.06604e-08
8.19992e-08
8.30731e-08
8.3819e-08
8.41901e-08
8.43127e-08
8.40209e-08
8.32661e-08
8.20311e-08
8.03022e-08
7.8072e-08
7.53439e-08
7.21349e-08
6.8478e-08
6.44221e-08
6.00317e-08
5.53849e-08
5.05702e-08
4.56822e-08
4.08163e-08
3.60638e-08
3.1507e-08
2.72148e-08
2.32403e-08
1.9619e-08
1.63693e-08
1.34936e-08
1.09807e-08
8.80848e-09
6.94652e-09
5.36168e-09
4.01792e-09
2.88015e-09
1.91736e-09
1.10611e-09
4.36614e-10
1.3416e-11
6.15322e-13
5.06406e-11
1.63193e-10
2.96949e-10
4.43612e-10
6.00588e-10
7.65871e-10
9.37613e-10
1.11409e-09
1.2937e-09
1.47497e-09
1.65659e-09
1.83747e-09
2.01672e-09
2.19374e-09
2.36819e-09
2.54012e-09
2.70987e-09
2.87822e-09
3.0463e-09
3.21568e-09
3.38837e-09
3.56679e-09
3.75387e-09
3.95299e-09
4.16806e-09
4.4035e-09
4.66428e-09
4.95595e-09
5.28469e-09
5.65728e-09
6.08117e-09
6.56447e-09
7.11598e-09
7.74518e-09
8.46224e-09
9.27797e-09
1.02038e-08
1.12517e-08
1.24343e-08
1.37646e-08
1.5256e-08
1.69221e-08
1.87769e-08
2.08346e-08
2.31093e-08
2.56153e-08
2.83666e-08
3.13774e-08
3.46615e-08
3.82324e-08
4.21034e-08
4.62872e-08
5.0796e-08
5.56413e-08
6.0834e-08
6.63839e-08
7.23e-08
7.859e-08
8.52607e-08
9.23177e-08
9.97654e-08
1.07607e-07
1.15845e-07
1.2448e-07
1.33512e-07
1.4294e-07
1.52763e-07
1.62978e-07
1.73583e-07
1.84573e-07
1.95946e-07
2.07697e-07
2.19821e-07
2.32314e-07
2.4517e-07
2.58385e-07
2.71951e-07
2.85862e-07
3.0011e-07
3.14687e-07
3.29581e-07
3.4478e-07
3.60268e-07
3.76024e-07
3.92027e-07
4.08246e-07
4.24646e-07
4.41183e-07
4.57805e-07
4.74444e-07
4.91021e-07
5.07442e-07
5.23595e-07
5.3935e-07
5.54552e-07
5.69027e-07
5.82577e-07
5.94962e-07
6.05934e-07
6.15167e-07
6.22148e-07
6.26134e-07
6.28734e-07
6.28231e-07
6.24236e-07
6.1659e-07
6.05142e-07
5.89777e-07
5.70466e-07
5.47294e-07
5.20476e-07
4.90366e-07
4.57451e-07
4.22342e-07
3.85744e-07
3.4842e-07
3.11148e-07
2.74674e-07
2.39673e-07
2.06709e-07
1.76212e-07
1.48469e-07
1.23625e-07
1.01693e-07
8.25764e-08
6.60926e-08
5.19969e-08
4.00129e-08
2.98467e-08
2.12084e-08
1.38314e-08
7.5067e-09
2.33029e-09
2.84484e-11
1.00651e-12
1.18998e-10
4.91706e-10
9.86646e-10
1.53533e-09
2.11988e-09
2.73236e-09
3.36651e-09
4.01651e-09
4.67677e-09
5.3421e-09
6.00778e-09
6.66976e-09
7.32481e-09
7.97063e-09
8.60602e-09
9.23098e-09
9.8468e-09
1.04562e-08
1.10633e-08
1.16737e-08
1.22947e-08
1.29351e-08
1.36054e-08
1.43179e-08
1.50866e-08
1.59275e-08
1.68584e-08
1.78994e-08
1.90726e-08
2.04022e-08
2.19151e-08
2.36401e-08
2.56088e-08
2.78548e-08
3.04144e-08
3.33258e-08
3.66296e-08
4.03679e-08
4.4585e-08
4.93261e-08
5.46377e-08
6.0567e-08
6.71619e-08
7.447e-08
8.25389e-08
9.14156e-08
1.01146e-07
1.11776e-07
1.23349e-07
1.35905e-07
1.49486e-07
1.64129e-07
1.79867e-07
1.96732e-07
2.14752e-07
2.3395e-07
2.54345e-07
2.75951e-07
2.9878e-07
3.22837e-07
3.48123e-07
3.74634e-07
4.02365e-07
4.31305e-07
4.6144e-07
4.92756e-07
5.25233e-07
5.58853e-07
5.93599e-07
6.29454e-07
6.66402e-07
7.04426e-07
7.43512e-07
7.83649e-07
8.24825e-07
8.67036e-07
9.10274e-07
9.54537e-07
9.99821e-07
1.04612e-06
1.09344e-06
1.14176e-06
1.19107e-06
1.24136e-06
1.29258e-06
1.3447e-06
1.39766e-06
1.45135e-06
1.50568e-06
1.56047e-06
1.61552e-06
1.67058e-06
1.72533e-06
1.77939e-06
1.83227e-06
1.88344e-06
1.93225e-06
1.97795e-06
2.01972e-06
2.05697e-06
2.08598e-06
2.10561e-06
2.12166e-06
2.12747e-06
2.12137e-06
2.10271e-06
2.07076e-06
2.0249e-06
1.96479e-06
1.89053e-06
1.80269e-06
1.70239e-06
1.59127e-06
1.47145e-06
1.34546e-06
1.2161e-06
1.08623e-06
9.58661e-07
8.35929e-07
7.20176e-07
6.13048e-07
5.15644e-07
4.28519e-07
3.51739e-07
2.84949e-07
2.27471e-07
1.78397e-07
1.36688e-07
1.01234e-07
7.09317e-08
4.47826e-08
2.22926e-08
5.45404e-09
4.63784e-11
1.45105e-12
2.01086e-10
1.00131e-09
2.23121e-09
3.65604e-09
5.18553e-09
6.78604e-09
8.43872e-09
1.01283e-08
1.18409e-08
1.35632e-08
1.52832e-08
1.69905e-08
1.86765e-08
2.03353e-08
2.19635e-08
2.35609e-08
2.51307e-08
2.66795e-08
2.82178e-08
2.97599e-08
3.1324e-08
3.29327e-08
3.46124e-08
3.63942e-08
3.83135e-08
4.04105e-08
4.27302e-08
4.53228e-08
4.82436e-08
5.15535e-08
5.53189e-08
5.96121e-08
6.45108e-08
7.00987e-08
7.64645e-08
8.37023e-08
9.19107e-08
1.01192e-07
1.11653e-07
1.23401e-07
1.36547e-07
1.512e-07
1.67471e-07
1.85469e-07
2.05298e-07
2.27062e-07
2.50859e-07
2.76782e-07
3.04918e-07
3.35347e-07
3.68142e-07
4.03367e-07
4.41075e-07
4.81311e-07
5.24108e-07
5.69487e-07
6.17457e-07
6.68016e-07
7.2115e-07
7.76835e-07
8.35036e-07
8.95712e-07
9.58811e-07
1.02428e-06
1.09206e-06
1.16209e-06
1.23431e-06
1.30867e-06
1.38511e-06
1.46361e-06
1.54415e-06
1.62668e-06
1.71122e-06
1.79775e-06
1.8863e-06
1.97689e-06
2.06957e-06
2.16439e-06
2.2614e-06
2.36067e-06
2.46227e-06
2.56627e-06
2.67272e-06
2.78168e-06
2.89317e-06
3.0072e-06
3.12373e-06
3.24268e-06
3.3639e-06
3.48713e-06
3.612e-06
3.73804e-06
3.86461e-06
3.99093e-06
4.11598e-06
4.23852e-06
4.35707e-06
4.47009e-06
4.57705e-06
4.67303e-06
4.75129e-06
4.80933e-06
4.86001e-06
4.88857e-06
4.88951e-06
4.86124e-06
4.80182e-06
4.70946e-06
4.58292e-06
4.42213e-06
4.22808e-06
4.00307e-06
3.75073e-06
3.47593e-06
3.18454e-06
2.88319e-06
2.57882e-06
2.2783e-06
1.98793e-06
1.71314e-06
1.45816e-06
1.2259e-06
1.01792e-06
8.34539e-07
6.75002e-07
5.37705e-07
4.20434e-07
3.20599e-07
2.35406e-07
1.62091e-07
9.84447e-08
4.47938e-08
9.17384e-09
6.65273e-11
1.94046e-12
2.90723e-10
1.64257e-09
4.02296e-09
6.96717e-09
1.01994e-08
1.36008e-08
1.71137e-08
2.06999e-08
2.43281e-08
2.79699e-08
3.15996e-08
3.51949e-08
3.87374e-08
4.22138e-08
4.56166e-08
4.89449e-08
5.22046e-08
5.54093e-08
5.85803e-08
6.17469e-08
6.49469e-08
6.82262e-08
7.16395e-08
7.52505e-08
7.91316e-08
8.33648e-08
8.80419e-08
9.32646e-08
9.9145e-08
1.05806e-07
1.13381e-07
1.22014e-07
1.31862e-07
1.43088e-07
1.5587e-07
1.70391e-07
1.86843e-07
2.05424e-07
2.26337e-07
2.49785e-07
2.75973e-07
3.05104e-07
3.37374e-07
3.72973e-07
4.12083e-07
4.54872e-07
5.01495e-07
5.52093e-07
6.06789e-07
6.65687e-07
7.28871e-07
7.96406e-07
8.68333e-07
9.44669e-07
1.02541e-06
1.11052e-06
1.19996e-06
1.29364e-06
1.39148e-06
1.49337e-06
1.59919e-06
1.7088e-06
1.82209e-06
1.9389e-06
2.05912e-06
2.18263e-06
2.30931e-06
2.43907e-06
2.57185e-06
2.70765e-06
2.84657e-06
2.98853e-06
3.13357e-06
3.28178e-06
3.43326e-06
3.58815e-06
3.74662e-06
3.90886e-06
4.07507e-06
4.24548e-06
4.42032e-06
4.59981e-06
4.7842e-06
4.97368e-06
5.16844e-06
5.36861e-06
5.57425e-06
5.78537e-06
6.00203e-06
6.22374e-06
6.44985e-06
6.67955e-06
6.91174e-06
7.14503e-06
7.37759e-06
7.60708e-06
7.83056e-06
8.04661e-06
8.25402e-06
8.43782e-06
8.595e-06
8.71459e-06
8.81911e-06
8.88744e-06
8.90463e-06
8.8684e-06
8.77528e-06
8.62199e-06
8.40668e-06
8.12834e-06
7.78835e-06
7.39049e-06
6.94088e-06
6.44792e-06
5.92195e-06
5.37478e-06
4.81898e-06
4.26718e-06
3.73123e-06
3.22151e-06
2.74637e-06
2.31178e-06
1.92123e-06
1.57573e-06
1.27426e-06
1.01409e-06
7.91182e-07
6.00638e-07
4.37122e-07
2.95493e-07
1.72604e-07
7.25678e-08
1.31829e-08
8.8367e-11
2.46935e-12
3.85948e-10
2.37035e-09
6.2729e-09
1.1457e-08
1.73428e-08
2.36204e-08
3.01319e-08
3.67839e-08
4.35083e-08
5.02481e-08
5.69533e-08
6.35808e-08
7.00954e-08
7.6471e-08
8.26925e-08
8.87566e-08
9.46732e-08
1.00466e-07
1.06172e-07
1.11845e-07
1.17551e-07
1.23374e-07
1.2941e-07
1.35774e-07
1.42595e-07
1.50018e-07
1.58206e-07
1.67337e-07
1.77609e-07
1.89236e-07
2.0245e-07
2.17502e-07
2.34658e-07
2.54203e-07
2.76432e-07
3.01658e-07
3.30198e-07
3.6238e-07
3.98533e-07
4.38983e-07
4.84052e-07
5.3405e-07
5.89272e-07
6.49992e-07
7.16461e-07
7.88902e-07
8.67507e-07
9.52432e-07
1.0438e-06
1.14169e-06
1.24615e-06
1.35719e-06
1.47477e-06
1.59882e-06
1.72923e-06
1.86584e-06
2.00849e-06
2.15696e-06
2.31104e-06
2.47056e-06
2.63523e-06
2.80483e-06
2.97912e-06
3.1579e-06
3.34099e-06
3.52824e-06
3.71951e-06
3.91468e-06
4.11378e-06
4.31681e-06
4.52375e-06
4.73484e-06
4.95027e-06
5.17028e-06
5.39516e-06
5.62525e-06
5.86093e-06
6.10262e-06
6.35079e-06
6.6059e-06
6.86844e-06
7.13892e-06
7.41779e-06
7.70551e-06
8.00244e-06
8.30888e-06
8.62498e-06
8.95071e-06
9.28565e-06
9.62941e-06
9.98125e-06
1.03399e-05
1.07034e-05
1.10698e-05
1.1436e-05
1.17979e-05
1.21506e-05
1.24925e-05
1.28193e-05
1.31082e-05
1.33608e-05
1.35521e-05
1.3713e-05
1.38265e-05
1.38591e-05
1.38091e-05
1.3672e-05
1.3443e-05
1.31188e-05
1.26984e-05
1.21842e-05
1.15812e-05
1.08984e-05
1.01478e-05
9.34439e-06
8.50529e-06
7.64911e-06
6.79477e-06
5.96042e-06
5.16231e-06
4.41396e-06
3.72545e-06
3.10314e-06
2.54967e-06
2.06427e-06
1.64325e-06
1.28062e-06
9.68758e-07
6.99308e-07
4.64632e-07
2.62012e-07
1.03411e-07
1.73626e-08
1.11502e-10
3.03436e-12
4.86192e-10
3.15653e-09
8.87311e-09
1.69934e-08
2.65817e-08
3.70092e-08
4.79206e-08
5.91047e-08
7.04186e-08
8.17519e-08
9.30121e-08
1.04121e-07
1.15015e-07
1.25648e-07
1.3599e-07
1.46034e-07
1.55792e-07
1.65302e-07
1.74624e-07
1.83843e-07
1.93069e-07
2.02434e-07
2.12097e-07
2.22243e-07
2.33078e-07
2.44837e-07
2.57779e-07
2.72189e-07
2.88379e-07
3.06687e-07
3.27478e-07
3.51139e-07
3.78085e-07
4.08749e-07
4.43583e-07
4.83055e-07
5.27639e-07
5.77815e-07
6.34056e-07
6.96825e-07
7.66566e-07
8.43697e-07
9.28597e-07
1.02161e-06
1.12302e-06
1.23307e-06
1.35195e-06
1.47976e-06
1.61658e-06
1.76239e-06
1.91713e-06
2.08071e-06
2.25294e-06
2.43358e-06
2.62238e-06
2.81901e-06
3.02314e-06
3.23438e-06
3.45233e-06
3.6766e-06
3.90686e-06
4.14279e-06
4.38409e-06
4.63051e-06
4.88187e-06
5.13802e-06
5.39893e-06
5.66468e-06
5.93526e-06
6.21079e-06
6.49144e-06
6.77757e-06
7.06957e-06
7.36791e-06
7.67311e-06
7.98574e-06
8.30648e-06
8.636e-06
8.97507e-06
9.32446e-06
9.68493e-06
1.00573e-05
1.04422e-05
1.08404e-05
1.12524e-05
1.16786e-05
1.21192e-05
1.25741e-05
1.30425e-05
1.35239e-05
1.40167e-05
1.4519e-05
1.5028e-05
1.55396e-05
1.60492e-05
1.65514e-05
1.70396e-05
1.75073e-05
1.79494e-05
1.83435e-05
1.86843e-05
1.89393e-05
1.91362e-05
1.92805e-05
1.93114e-05
1.92281e-05
1.90267e-05
1.87021e-05
1.82506e-05
1.76718e-05
1.69684e-05
1.61474e-05
1.52199e-05
1.42011e-05
1.31098e-05
1.19678e-05
1.07988e-05
9.62749e-06
8.47768e-06
7.37142e-06
6.32754e-06
5.36069e-06
4.4808e-06
3.69283e-06
2.99699e-06
2.38926e-06
1.86208e-06
1.40531e-06
1.00759e-06
6.59446e-07
3.61103e-07
1.35859e-07
2.16559e-08
1.35627e-10
3.63339e-12
5.91307e-10
3.9864e-09
1.17329e-08
2.33944e-08
3.77254e-08
5.36755e-08
7.05699e-08
8.79916e-08
1.0566e-07
1.23368e-07
1.40951e-07
1.58273e-07
1.75226e-07
1.91728e-07
2.07729e-07
2.23209e-07
2.38185e-07
2.52708e-07
2.66868e-07
2.80792e-07
2.94644e-07
3.08624e-07
3.2297e-07
3.37958e-07
3.53899e-07
3.7114e-07
3.90066e-07
4.11097e-07
4.3469e-07
4.61338e-07
4.91568e-07
5.25938e-07
5.65037e-07
6.09479e-07
6.59896e-07
7.16932e-07
7.81237e-07
8.53451e-07
9.34199e-07
1.02408e-06
1.12364e-06
1.2334e-06
1.35378e-06
1.48516e-06
1.62782e-06
1.78197e-06
1.94772e-06
2.1251e-06
2.31403e-06
2.51437e-06
2.72587e-06
2.9482e-06
3.18101e-06
3.42387e-06
3.6763e-06
3.93781e-06
4.20788e-06
4.48602e-06
4.7717e-06
5.06439e-06
5.36369e-06
5.6692e-06
5.98063e-06
6.29772e-06
6.62034e-06
6.94842e-06
7.28201e-06
7.62126e-06
7.96633e-06
8.31749e-06
8.67511e-06
9.03974e-06
9.41197e-06
9.79251e-06
1.01821e-05
1.05817e-05
1.09922e-05
1.14145e-05
1.18498e-05
1.22991e-05
1.27636e-05
1.32441e-05
1.37418e-05
1.42574e-05
1.47914e-05
1.53444e-05
1.59162e-05
1.65064e-05
1.71139e-05
1.77371e-05
1.83737e-05
1.90202e-05
1.96725e-05
2.03247e-05
2.09705e-05
2.16021e-05
2.22106e-05
2.27866e-05
2.33183e-05
2.37923e-05
2.41958e-05
2.4491e-05
2.46874e-05
2.48322e-05
2.48351e-05
2.4693e-05
2.44052e-05
2.39672e-05
2.33762e-05
2.26319e-05
2.17382e-05
2.07033e-05
1.95399e-05
1.82655e-05
1.69016e-05
1.54731e-05
1.40078e-05
1.25344e-05
1.10817e-05
9.67632e-06
8.34203e-06
7.09786e-06
5.95743e-06
4.92849e-06
4.01284e-06
3.20679e-06
2.50183e-06
1.88582e-06
1.34512e-06
8.69736e-07
4.65328e-07
1.69022e-07
2.60264e-08
1.60501e-10
4.26527e-12
7.01285e-10
4.85312e-09
1.47881e-08
3.04824e-08
5.05052e-08
7.334e-08
9.78805e-08
1.23389e-07
1.49366e-07
1.7545e-07
2.01356e-07
2.26856e-07
2.51772e-07
2.75969e-07
2.9936e-07
3.21907e-07
3.43624e-07
3.6458e-07
3.84898e-07
4.04755e-07
4.24383e-07
4.44066e-07
4.64142e-07
4.84998e-07
5.07073e-07
5.30855e-07
5.56881e-07
5.85735e-07
6.18048e-07
6.54495e-07
6.95794e-07
7.42702e-07
7.96005e-07
8.56518e-07
9.2507e-07
1.0025e-06
1.08962e-06
1.18725e-06
1.29616e-06
1.41705e-06
1.55058e-06
1.6973e-06
1.85767e-06
2.03205e-06
2.22065e-06
2.42358e-06
2.64085e-06
2.8723e-06
3.1177e-06
3.37669e-06
3.64884e-06
3.93361e-06
4.23041e-06
4.5386e-06
4.85754e-06
5.18653e-06
5.52491e-06
5.87205e-06
6.22733e-06
6.59016e-06
6.96009e-06
7.33672e-06
7.71975e-06
8.10898e-06
8.50433e-06
8.9058e-06
9.31356e-06
9.72784e-06
1.01489e-05
1.05773e-05
1.10135e-05
1.14582e-05
1.19124e-05
1.23768e-05
1.28526e-05
1.33409e-05
1.38429e-05
1.436e-05
1.48936e-05
1.5445e-05
1.60155e-05
1.66065e-05
1.72188e-05
1.78534e-05
1.85107e-05
1.91908e-05
1.98932e-05
2.06166e-05
2.13591e-05
2.21178e-05
2.2889e-05
2.36676e-05
2.44474e-05
2.52209e-05
2.59793e-05
2.67129e-05
2.74107e-05
2.80606e-05
2.86489e-05
2.91606e-05
2.95816e-05
2.98919e-05
3.00515e-05
3.01556e-05
3.01055e-05
2.98814e-05
2.94894e-05
2.89272e-05
2.81927e-05
2.72865e-05
2.6213e-05
2.49812e-05
2.36047e-05
2.2102e-05
2.04961e-05
1.8814e-05
1.70856e-05
1.53426e-05
1.36172e-05
1.19399e-05
1.03383e-05
8.83522e-06
7.44795e-06
6.18701e-06
5.05618e-06
4.05256e-06
3.16731e-06
2.38697e-06
1.69651e-06
1.08685e-06
5.71367e-07
2.02362e-07
3.04471e-08
1.85935e-10
4.92943e-12
8.16183e-10
5.75407e-09
1.79987e-08
3.81117e-08
6.464e-08
9.56231e-08
1.29441e-07
1.64927e-07
2.0126e-07
2.3784e-07
2.74209e-07
3.10009e-07
3.4495e-07
3.78818e-07
4.11469e-07
4.42833e-07
4.72915e-07
5.01797e-07
5.2964e-07
5.56678e-07
5.83224e-07
6.09662e-07
6.36445e-07
6.64098e-07
6.93209e-07
7.24433e-07
7.58485e-07
7.96139e-07
8.38228e-07
8.85638e-07
9.39299e-07
1.00018e-06
1.0693e-06
1.14767e-06
1.23634e-06
1.33634e-06
1.44866e-06
1.57428e-06
1.71408e-06
1.86887e-06
2.03936e-06
2.22614e-06
2.42963e-06
2.65013e-06
2.88778e-06
3.14255e-06
3.41426e-06
3.70259e-06
4.00707e-06
4.32714e-06
4.66214e-06
5.01132e-06
5.37386e-06
5.74896e-06
6.13576e-06
6.53345e-06
6.94123e-06
7.35837e-06
7.78417e-06
8.21802e-06
8.65943e-06
9.10798e-06
9.56341e-06
1.00255e-05
1.04943e-05
1.09699e-05
1.14524e-05
1.19421e-05
1.24396e-05
1.29454e-05
1.34602e-05
1.39849e-05
1.45207e-05
1.50686e-05
1.56301e-05
1.62065e-05
1.67994e-05
1.74106e-05
1.80416e-05
1.8694e-05
1.93694e-05
2.00691e-05
2.0794e-05
2.15447e-05
2.23211e-05
2.31228e-05
2.39481e-05
2.4795e-05
2.566e-05
2.65385e-05
2.74241e-05
2.83113e-05
2.91919e-05
3.00563e-05
3.08937e-05
3.16923e-05
3.24394e-05
3.31216e-05
3.37247e-05
3.42339e-05
3.46347e-05
3.4909e-05
3.50161e-05
3.50385e-05
3.49176e-05
3.45959e-05
3.40903e-05
3.34013e-05
3.25284e-05
3.14723e-05
3.02378e-05
2.88341e-05
2.72748e-05
2.55784e-05
2.37683e-05
2.18721e-05
1.99209e-05
1.79482e-05
1.59881e-05
1.4074e-05
1.22366e-05
1.05021e-05
8.89082e-06
7.41609e-06
6.0837e-06
4.8919e-06
3.83193e-06
2.88962e-06
2.04934e-06
1.30424e-06
6.76967e-07
2.35554e-07
3.48974e-08
2.11786e-10
5.62582e-12
9.36102e-10
6.6888e-09
2.13418e-08
4.61761e-08
7.98778e-08
1.20123e-07
1.64732e-07
2.12018e-07
2.60738e-07
3.09967e-07
3.58999e-07
4.07279e-07
4.54372e-07
4.9995e-07
5.43789e-07
5.85768e-07
6.25874e-07
6.64195e-07
7.00927e-07
7.3637e-07
7.70924e-07
8.05088e-07
8.39451e-07
8.74694e-07
9.1158e-07
9.50949e-07
9.93723e-07
1.04089e-06
1.09351e-06
1.15269e-06
1.21961e-06
1.29548e-06
1.38152e-06
1.479e-06
1.58917e-06
1.71324e-06
1.8524e-06
2.00775e-06
2.1803e-06
2.37093e-06
2.58038e-06
2.80922e-06
3.05786e-06
3.32648e-06
3.6151e-06
3.92352e-06
4.25139e-06
4.59818e-06
4.9632e-06
5.34566e-06
5.74469e-06
6.15931e-06
6.58854e-06
7.03138e-06
7.48683e-06
7.95394e-06
8.4318e-06
8.91958e-06
9.41653e-06
9.92199e-06
1.04354e-05
1.09564e-05
1.14846e-05
1.20198e-05
1.25621e-05
1.31116e-05
1.36684e-05
1.4233e-05
1.48059e-05
1.53878e-05
1.59797e-05
1.65826e-05
1.71979e-05
1.7827e-05
1.84716e-05
1.91335e-05
1.98146e-05
2.05168e-05
2.12419e-05
2.19919e-05
2.27682e-05
2.3572e-05
2.44038e-05
2.52636e-05
2.61505e-05
2.7063e-05
2.7998e-05
2.89498e-05
2.99154e-05
3.08898e-05
3.1866e-05
3.28334e-05
3.37819e-05
3.47003e-05
3.5577e-05
3.63995e-05
3.71544e-05
3.7828e-05
3.84055e-05
3.88747e-05
3.92218e-05
3.94338e-05
3.94531e-05
3.93661e-05
3.91705e-05
3.87448e-05
3.81243e-05
3.73134e-05
3.63135e-05
3.51254e-05
3.37534e-05
3.22063e-05
3.0497e-05
2.86433e-05
2.66681e-05
2.45985e-05
2.24656e-05
2.03035e-05
1.81477e-05
1.60335e-05
1.39939e-05
1.2058e-05
1.02489e-05
8.58244e-06
7.06657e-06
5.70077e-06
4.47668e-06
3.37984e-06
2.39468e-06
1.51737e-06
7.8069e-07
2.68401e-07
3.9363e-08
2.37953e-10
6.35478e-12
1.06118e-09
7.65803e-09
2.48068e-08
5.46036e-08
9.60179e-08
1.46469e-07
2.03212e-07
2.63975e-07
3.27e-07
3.9095e-07
4.54793e-07
5.17715e-07
5.79082e-07
6.38411e-07
6.95366e-07
7.49752e-07
8.01517e-07
8.50751e-07
8.97685e-07
9.42685e-07
9.8625e-07
1.029e-06
1.07168e-06
1.11515e-06
1.16035e-06
1.20834e-06
1.26028e-06
1.31739e-06
1.38098e-06
1.45241e-06
1.5331e-06
1.62453e-06
1.72817e-06
1.8455e-06
1.978e-06
2.12708e-06
2.29409e-06
2.48026e-06
2.6867e-06
2.91436e-06
3.16399e-06
3.43613e-06
3.73112e-06
4.04904e-06
4.38976e-06
4.75293e-06
5.13797e-06
5.54416e-06
5.9706e-06
6.41627e-06
6.88008e-06
7.36089e-06
7.8575e-06
8.36875e-06
8.89351e-06
9.43068e-06
9.97924e-06
1.05383e-05
1.11069e-05
1.16844e-05
1.22701e-05
1.28635e-05
1.34644e-05
1.40724e-05
1.46874e-05
1.53096e-05
1.59392e-05
1.65766e-05
1.72226e-05
1.78779e-05
1.85436e-05
1.92213e-05
1.99124e-05
2.06188e-05
2.13425e-05
2.20857e-05
2.28505e-05
2.36391e-05
2.44535e-05
2.52957e-05
2.61668e-05
2.70675e-05
2.79977e-05
2.89566e-05
2.99405e-05
3.09437e-05
3.19674e-05
3.30083e-05
3.4056e-05
3.51014e-05
3.61352e-05
3.71473e-05
3.81264e-05
3.90605e-05
3.99375e-05
4.07447e-05
4.14693e-05
4.20986e-05
4.26197e-05
4.3018e-05
4.32839e-05
4.34095e-05
4.33379e-05
4.31131e-05
4.28268e-05
4.23124e-05
4.15821e-05
4.06589e-05
3.95474e-05
3.82472e-05
3.67623e-05
3.51005e-05
3.32734e-05
3.12973e-05
2.91938e-05
2.69887e-05
2.47125e-05
2.23989e-05
2.00839e-05
1.78041e-05
1.55943e-05
1.34859e-05
1.15047e-05
9.66898e-06
7.98876e-06
6.46494e-06
5.08974e-06
3.84873e-06
2.72675e-06
1.72341e-06
8.817e-07
3.00799e-07
4.38356e-08
2.64374e-10
7.11697e-12
1.1916e-09
8.66315e-09
2.83904e-08
6.33512e-08
1.12914e-07
1.74352e-07
2.44378e-07
3.201e-07
3.99173e-07
4.79762e-07
5.60429e-07
6.4004e-07
7.17703e-07
7.92734e-07
8.6465e-07
9.33154e-07
9.98139e-07
1.05968e-06
1.11804e-06
1.17365e-06
1.22712e-06
1.27919e-06
1.33077e-06
1.38292e-06
1.4368e-06
1.4937e-06
1.55502e-06
1.62225e-06
1.69697e-06
1.78081e-06
1.87549e-06
1.98271e-06
2.10423e-06
2.24178e-06
2.39703e-06
2.5716e-06
2.76701e-06
2.98461e-06
3.22561e-06
3.49099e-06
3.78152e-06
4.09772e-06
4.43982e-06
4.8078e-06
5.20138e-06
5.62003e-06
6.06298e-06
6.5293e-06
7.01787e-06
7.52747e-06
8.0568e-06
8.60452e-06
9.16925e-06
9.74966e-06
1.03445e-05
1.09524e-05
1.15722e-05
1.2203e-05
1.28436e-05
1.34933e-05
1.41511e-05
1.48166e-05
1.54891e-05
1.61685e-05
1.68544e-05
1.7547e-05
1.82466e-05
1.89536e-05
1.96688e-05
2.03932e-05
2.11284e-05
2.1876e-05
2.2638e-05
2.34166e-05
2.42143e-05
2.50336e-05
2.58769e-05
2.67464e-05
2.7644e-05
2.85717e-05
2.95298e-05
3.05186e-05
3.15341e-05
3.25721e-05
3.36362e-05
3.47238e-05
3.58234e-05
3.69265e-05
3.80255e-05
3.91099e-05
4.01692e-05
4.11922e-05
4.2167e-05
4.30817e-05
4.39244e-05
4.46833e-05
4.53467e-05
4.59032e-05
4.6342e-05
4.6653e-05
4.68258e-05
4.68483e-05
4.66791e-05
4.63262e-05
4.59133e-05
4.53195e-05
4.4501e-05
4.34772e-05
4.22702e-05
4.08779e-05
3.93033e-05
3.75534e-05
3.56376e-05
3.35704e-05
3.13713e-05
2.90645e-05
2.6679e-05
2.42474e-05
2.18057e-05
1.9391e-05
1.70395e-05
1.47847e-05
1.26547e-05
1.06705e-05
8.84413e-06
7.17802e-06
5.66523e-06
4.29154e-06
3.04242e-06
1.92084e-06
9.79593e-07
3.32715e-07
4.83125e-08
2.91023e-10
7.91337e-12
1.32756e-09
9.70595e-09
3.20943e-08
7.2397e-08
1.30471e-07
2.03533e-07
2.87806e-07
3.7976e-07
4.76408e-07
5.75346e-07
6.74663e-07
7.72832e-07
8.68649e-07
9.61186e-07
1.04977e-06
1.13397e-06
1.21362e-06
1.28874e-06
1.35963e-06
1.42678e-06
1.4909e-06
1.55288e-06
1.61382e-06
1.67496e-06
1.73771e-06
1.80361e-06
1.87434e-06
1.95167e-06
2.03748e-06
2.13368e-06
2.24229e-06
2.3653e-06
2.50474e-06
2.66258e-06
2.84073e-06
3.041e-06
3.26508e-06
3.51445e-06
3.79039e-06
4.09396e-06
4.4259e-06
4.78668e-06
5.17648e-06
5.59514e-06
6.04224e-06
6.51706e-06
7.01865e-06
7.54585e-06
8.09736e-06
8.67172e-06
9.26743e-06
9.88292e-06
1.05166e-05
1.1167e-05
1.18326e-05
1.25119e-05
1.32036e-05
1.39063e-05
1.46189e-05
1.53403e-05
1.60694e-05
1.68056e-05
1.7548e-05
1.82963e-05
1.90502e-05
1.98097e-05
2.0575e-05
2.1347e-05
2.21264e-05
2.29148e-05
2.37138e-05
2.45257e-05
2.53529e-05
2.61981e-05
2.70642e-05
2.7954e-05
2.887e-05
2.98145e-05
3.07884e-05
3.17945e-05
3.28289e-05
3.38855e-05
3.49738e-05
3.60923e-05
3.72276e-05
3.83732e-05
3.95209e-05
4.06611e-05
4.17841e-05
4.28786e-05
4.39332e-05
4.49364e-05
4.58768e-05
4.67429e-05
4.75239e-05
4.82092e-05
4.87888e-05
4.92533e-05
4.95936e-05
4.98013e-05
4.98683e-05
4.97875e-05
4.95326e-05
4.90719e-05
4.85284e-05
4.78202e-05
4.69384e-05
4.58317e-05
4.45444e-05
4.30779e-05
4.14339e-05
3.96186e-05
3.76391e-05
3.55073e-05
3.32405e-05
3.08608e-05
2.83949e-05
2.58741e-05
2.33335e-05
2.08102e-05
1.83416e-05
1.59628e-05
1.37044e-05
1.15898e-05
9.63335e-06
7.83928e-06
6.20166e-06
4.7067e-06
3.34051e-06
2.10915e-06
1.07429e-06
3.64166e-07
5.2797e-08
3.17908e-10
8.74519e-12
1.46932e-09
1.07886e-08
3.59233e-08
8.17348e-08
1.48632e-07
2.33843e-07
3.33166e-07
4.42423e-07
5.5795e-07
6.76722e-07
7.96286e-07
9.14668e-07
1.0303e-06
1.14195e-06
1.24873e-06
1.35005e-06
1.44562e-06
1.53545e-06
1.61982e-06
1.6993e-06
1.7747e-06
1.84705e-06
1.91765e-06
1.98796e-06
2.05964e-06
2.13451e-06
2.21454e-06
2.30181e-06
2.3985e-06
2.50687e-06
2.62922e-06
2.76787e-06
2.92511e-06
3.10319e-06
3.30425e-06
3.53032e-06
3.78322e-06
4.0646e-06
4.37581e-06
4.71794e-06
5.09175e-06
5.49766e-06
5.93576e-06
6.40578e-06
6.90714e-06
7.43894e-06
8.00003e-06
8.58904e-06
9.20444e-06
9.84455e-06
1.05076e-05
1.11919e-05
1.18955e-05
1.26167e-05
1.33537e-05
1.41048e-05
1.48684e-05
1.56429e-05
1.64268e-05
1.72188e-05
1.80176e-05
1.88221e-05
1.96315e-05
2.04452e-05
2.12628e-05
2.20844e-05
2.29104e-05
2.37416e-05
2.45794e-05
2.54256e-05
2.62824e-05
2.71526e-05
2.80391e-05
2.89452e-05
2.9874e-05
3.08288e-05
3.1812e-05
3.2826e-05
3.38688e-05
3.49337e-05
3.60309e-05
3.71646e-05
3.83212e-05
3.94966e-05
4.06802e-05
4.18634e-05
4.30371e-05
4.41903e-05
4.53121e-05
4.63908e-05
4.7415e-05
4.83736e-05
4.92557e-05
5.00514e-05
5.07511e-05
5.13459e-05
5.18277e-05
5.21888e-05
5.24222e-05
5.25211e-05
5.24789e-05
5.22892e-05
5.19426e-05
5.13888e-05
5.07345e-05
4.99511e-05
4.89601e-05
4.77992e-05
4.64426e-05
4.49166e-05
4.32191e-05
4.13568e-05
3.93335e-05
3.71585e-05
3.48468e-05
3.24177e-05
2.98953e-05
2.7309e-05
2.46927e-05
2.20829e-05
1.95178e-05
1.70339e-05
1.46641e-05
1.24343e-05
1.03614e-05
8.45171e-06
6.70059e-06
5.09487e-06
3.62131e-06
2.28853e-06
1.16591e-06
3.95212e-07
5.72968e-08
3.45066e-10
9.61389e-12
1.61713e-09
1.19133e-08
3.98844e-08
9.13695e-08
1.67371e-07
2.65177e-07
3.80224e-07
5.07675e-07
6.43179e-07
7.83042e-07
9.24221e-07
1.06424e-06
1.20111e-06
1.33327e-06
1.45957e-06
1.57923e-06
1.69183e-06
1.79732e-06
1.89598e-06
1.98844e-06
2.07559e-06
2.15866e-06
2.23912e-06
2.31866e-06
2.39922e-06
2.48292e-06
2.57204e-06
2.669e-06
2.77631e-06
2.89658e-06
3.03243e-06
3.18651e-06
3.36141e-06
3.55965e-06
3.78363e-06
4.03556e-06
4.31748e-06
4.63113e-06
4.97797e-06
5.35913e-06
5.77537e-06
6.22707e-06
6.71422e-06
7.23643e-06
7.79295e-06
8.38272e-06
9.00436e-06
9.65628e-06
1.03367e-05
1.10437e-05
1.17752e-05
1.25292e-05
1.33035e-05
1.40961e-05
1.4905e-05
1.5728e-05
1.65632e-05
1.74086e-05
1.82624e-05
1.9123e-05
1.99888e-05
2.08583e-05
2.17307e-05
2.26051e-05
2.34812e-05
2.43592e-05
2.52396e-05
2.61238e-05
2.70135e-05
2.79111e-05
2.88194e-05
2.97419e-05
3.06821e-05
3.16437e-05
3.26302e-05
3.36451e-05
3.469e-05
3.57613e-05
3.6853e-05
3.79895e-05
3.91567e-05
4.03453e-05
4.15485e-05
4.27662e-05
4.3981e-05
4.51829e-05
4.63622e-05
4.75072e-05
4.86065e-05
4.96486e-05
5.06226e-05
5.15181e-05
5.23258e-05
5.3037e-05
5.36436e-05
5.41388e-05
5.4516e-05
5.47694e-05
5.48936e-05
5.48836e-05
5.4734e-05
5.44406e-05
5.39995e-05
5.33603e-05
5.259e-05
5.17344e-05
5.06741e-05
4.94567e-05
4.80553e-05
4.64649e-05
4.47252e-05
4.28292e-05
4.0777e-05
3.85749e-05
3.62355e-05
3.37753e-05
3.12155e-05
2.85831e-05
2.59099e-05
2.32319e-05
2.05872e-05
1.80137e-05
1.55464e-05
1.32139e-05
1.10357e-05
9.02057e-06
7.16549e-06
5.45818e-06
3.88604e-06
2.4597e-06
1.25476e-06
4.2595e-07
6.18238e-08
3.72558e-10
1.05211e-11
1.77131e-09
1.30827e-08
4.3986e-08
1.01314e-07
1.86686e-07
2.97483e-07
4.28827e-07
5.7522e-07
7.31618e-07
8.93627e-07
1.05757e-06
1.22043e-06
1.37975e-06
1.5336e-06
1.68053e-06
1.81955e-06
1.95009e-06
2.07202e-06
2.18563e-06
2.29155e-06
2.39084e-06
2.48484e-06
2.57524e-06
2.664e-06
2.75333e-06
2.84567e-06
2.94363e-06
3.05e-06
3.16765e-06
3.29955e-06
3.44867e-06
3.61801e-06
3.81046e-06
4.02884e-06
4.2758e-06
4.55379e-06
4.86499e-06
5.2113e-06
5.59428e-06
6.01509e-06
6.47448e-06
6.97279e-06
7.50992e-06
8.08534e-06
8.69814e-06
9.34704e-06
1.00304e-05
1.07465e-05
1.14931e-05
1.22681e-05
1.30691e-05
1.38937e-05
1.47394e-05
1.56039e-05
1.64845e-05
1.73789e-05
1.82847e-05
1.91994e-05
2.01209e-05
2.10471e-05
2.19761e-05
2.29063e-05
2.38366e-05
2.47661e-05
2.56945e-05
2.66224e-05
2.75506e-05
2.84811e-05
2.94161e-05
3.03588e-05
3.13129e-05
3.22822e-05
3.32712e-05
3.42838e-05
3.53232e-05
3.63942e-05
3.74803e-05
3.86118e-05
3.97721e-05
4.09644e-05
4.21828e-05
4.34158e-05
4.46482e-05
4.58954e-05
4.71269e-05
4.83307e-05
4.94985e-05
5.06184e-05
5.16791e-05
5.26697e-05
5.35802e-05
5.44016e-05
5.51258e-05
5.57456e-05
5.62547e-05
5.66476e-05
5.69194e-05
5.7066e-05
5.70834e-05
5.69679e-05
5.67154e-05
5.63228e-05
5.57888e-05
5.50755e-05
5.42e-05
5.32676e-05
5.21441e-05
5.08486e-05
4.94307e-05
4.78175e-05
4.60191e-05
4.40941e-05
4.20227e-05
3.98043e-05
3.74495e-05
3.49718e-05
3.23891e-05
2.97255e-05
2.70106e-05
2.42791e-05
2.15686e-05
1.89183e-05
1.63647e-05
1.39393e-05
1.16647e-05
9.55225e-06
7.60092e-06
5.79967e-06
4.13654e-06
2.62363e-06
1.34124e-06
4.56498e-07
6.63928e-08
4.00467e-10
1.14688e-11
1.93218e-09
1.42996e-08
4.82376e-08
1.11586e-07
2.06592e-07
3.3075e-07
4.78894e-07
6.44871e-07
8.22935e-07
1.00797e-06
1.19564e-06
1.38233e-06
1.5651e-06
1.74161e-06
1.91009e-06
2.0693e-06
2.21851e-06
2.35751e-06
2.48654e-06
2.60632e-06
2.71797e-06
2.82303e-06
2.92339e-06
3.02128e-06
3.11922e-06
3.21998e-06
3.32654e-06
3.44205e-06
3.56979e-06
3.7131e-06
3.87534e-06
4.05983e-06
4.26984e-06
4.50845e-06
4.7786e-06
5.08295e-06