/*--------------------------------*- C++ -*----------------------------------*\
  =========                 |
  \\      /  F ield         | OpenFOAM: The Open Source CFD Toolbox
   \\    /   O peration     | Website:  https://openfoam.org
    \\  /    A nd           | Version:  12
     \\/     M anipulation  |
\*---------------------------------------------------------------------------*/
FoamFile
{
    format      ascii;
    class       surfaceScalarField;
    location    "8.5";
    object      phi;
}
// * * * * * * * * * * * * * * * * * * * * * * * * * * * * * * * * * * * * * //

dimensions      [0 3 -1 0 0 0 0];

internalField   nonuniform List<scalar> 
36180
(
-4.68073e-11
4.75754e-11
-7.59824e-11
2.91678e-11
-4.48309e-11
-3.11783e-11
5.84171e-11
-1.03277e-10
2.31658e-10
-1.73267e-10
4.68236e-10
-2.36598e-10
7.5975e-10
-2.91529e-10
1.09733e-09
-3.37585e-10
1.47215e-09
-3.7482e-10
1.87569e-09
-4.03533e-10
2.29984e-09
-4.2415e-10
2.73704e-09
-4.37186e-10
3.18027e-09
-4.43218e-10
3.62316e-09
-4.42876e-10
4.06e-09
-4.36832e-10
4.4858e-09
-4.25793e-10
4.89629e-09
-4.10483e-10
5.28793e-09
-3.91637e-10
5.65791e-09
-3.69986e-10
6.00416e-09
-3.46245e-10
6.32526e-09
-3.211e-10
6.62047e-09
-2.95202e-10
6.88962e-09
-2.69154e-10
7.13313e-09
-2.43507e-10
7.35188e-09
-2.18742e-10
7.54716e-09
-1.95273e-10
7.72062e-09
-1.73448e-10
7.87417e-09
-1.53545e-10
8.00994e-09
-1.35762e-10
8.13016e-09
-1.2022e-10
8.23712e-09
-1.06958e-10
8.33306e-09
-9.59377e-11
8.42011e-09
-8.70445e-11
8.50019e-09
-8.00851e-11
8.57499e-09
-7.47909e-11
8.64581e-09
-7.08194e-11
8.71357e-09
-6.77582e-11
8.77869e-09
-6.51156e-11
8.84107e-09
-6.23848e-11
8.90003e-09
-5.8956e-11
8.9542e-09
-5.41658e-11
9.00159e-09
-4.73956e-11
9.03947e-09
-3.78792e-11
9.06441e-09
-2.49417e-11
9.07223e-09
-7.81908e-12
9.05803e-09
1.42024e-11
9.01619e-09
4.18403e-11
8.94036e-09
7.5836e-11
8.82346e-09
1.16897e-10
8.65773e-09
1.65729e-10
8.4347e-09
2.23037e-10
8.14517e-09
2.89528e-10
7.77925e-09
3.65917e-10
7.32629e-09
4.52966e-10
6.77489e-09
5.51399e-10
6.11292e-09
6.61966e-10
5.32736e-09
7.85563e-10
4.40458e-09
9.22783e-10
3.32997e-09
1.07461e-09
2.08831e-09
1.24166e-09
6.6356e-10
1.42475e-09
-9.60844e-10
1.6244e-09
-2.80203e-09
1.84119e-09
-4.87748e-09
2.07545e-09
-7.20472e-09
2.32724e-09
-9.8011e-09
2.59638e-09
-1.26836e-08
2.8825e-09
-1.58685e-08
3.18488e-09
-1.93709e-08
3.50244e-09
-2.32046e-08
3.83368e-09
-2.73813e-08
4.17673e-09
-3.19106e-08
4.52927e-09
-3.67991e-08
4.88855e-09
-4.20505e-08
5.25139e-09
-4.76647e-08
5.6142e-09
-5.36377e-08
5.97298e-09
-5.99611e-08
6.32337e-09
-6.66217e-08
6.66066e-09
-7.36016e-08
6.97987e-09
-8.08774e-08
7.27581e-09
-8.84205e-08
7.54308e-09
-9.61967e-08
7.77616e-09
-1.04166e-07
7.96948e-09
-1.12284e-07
8.11742e-09
-1.20498e-07
8.21443e-09
-1.28753e-07
8.25499e-09
-1.36987e-07
8.23373e-09
-1.45132e-07
8.14543e-09
-1.53117e-07
7.98508e-09
-1.60865e-07
7.74793e-09
-1.68295e-07
7.42955e-09
-1.75321e-07
7.02592e-09
-1.81854e-07
6.53354e-09
-1.87804e-07
5.94955e-09
-1.93076e-07
5.27188e-09
-1.97574e-07
4.49842e-09
-2.01195e-07
3.62107e-09
-2.03846e-07
2.6508e-09
-2.05466e-07
1.61965e-09
-2.05949e-07
4.83066e-10
-2.05211e-07
-7.37908e-10
-2.03198e-07
-2.01244e-09
-1.99856e-07
-3.34184e-09
-1.95151e-07
-4.70492e-09
-1.89074e-07
-6.07717e-09
-1.81641e-07
-7.43284e-09
-1.72897e-07
-8.7441e-09
-1.62918e-07
-9.97937e-09
-1.51813e-07
-1.11048e-08
-1.39728e-07
-1.20856e-08
-1.2684e-07
-1.28879e-08
-1.13359e-07
-1.34807e-08
-9.95213e-08
-1.38378e-08
-8.55817e-08
-1.39396e-08
-7.1806e-08
-1.37757e-08
-5.84599e-08
-1.3346e-08
-4.57982e-08
-1.26617e-08
-3.40527e-08
-1.17455e-08
-2.34223e-08
-1.06304e-08
-1.40635e-08
-9.3588e-09
-6.08462e-09
-7.97886e-09
4.57417e-10
-6.54204e-09
5.55753e-09
-5.10011e-09
9.25678e-09
-3.69925e-09
1.16383e-08
-2.38153e-09
1.28183e-08
-1.17999e-09
1.2938e-08
-1.19759e-10
1.21545e-08
7.83552e-10
1.06432e-08
1.5113e-09
8.59001e-09
2.05319e-09
6.21011e-09
2.37991e-09
3.76761e-09
2.44249e-09
1.60729e-09
2.16032e-09
2.08083e-10
1.3992e-09
2.08083e-10
-7.80795e-11
1.25674e-10
-9.25602e-11
4.36375e-11
5.04344e-11
-1.74201e-10
3.78597e-10
-4.31472e-10
8.91363e-10
-6.86064e-10
1.57436e-09
-9.19624e-10
2.4072e-09
-1.12439e-09
3.36708e-09
-1.29747e-09
4.43059e-09
-1.43833e-09
5.57465e-09
-1.54759e-09
6.77707e-09
-1.62656e-09
8.01687e-09
-1.67697e-09
9.27453e-09
-1.70086e-09
1.05322e-08
-1.70055e-09
1.17739e-08
-1.67849e-09
1.29854e-08
-1.63732e-09
1.41547e-08
-1.57974e-09
1.52715e-08
-1.50849e-09
1.63279e-08
-1.42634e-09
1.73176e-08
-1.33596e-09
1.82364e-08
-1.23993e-09
1.9082e-08
-1.14073e-09
1.98534e-08
-1.0406e-09
2.05516e-08
-9.4164e-10
2.11785e-08
-8.45668e-10
2.17375e-08
-7.54262e-10
2.22328e-08
-6.68733e-10
2.26694e-08
-5.90112e-10
2.30527e-08
-5.19137e-10
2.33888e-08
-4.56244e-10
2.36834e-08
-4.01566e-10
2.39424e-08
-3.54935e-10
2.41712e-08
-3.15884e-10
2.43748e-08
-2.83642e-10
2.45572e-08
-2.5715e-10
2.47214e-08
-2.35059e-10
2.48694e-08
-2.1575e-10
2.50016e-08
-1.97318e-10
2.51169e-08
-1.77736e-10
2.52126e-08
-1.54643e-10
2.5284e-08
-1.25482e-10
2.53243e-08
-8.77431e-11
2.53249e-08
-3.85058e-11
2.52751e-08
2.49269e-11
2.51618e-08
1.05494e-10
2.49699e-08
2.06062e-10
2.46823e-08
3.29476e-10
2.42795e-08
4.7862e-10
2.37401e-08
6.56313e-10
2.30404e-08
8.65351e-10
2.2155e-08
1.10852e-09
2.10559e-08
1.3886e-09
1.97134e-08
1.70839e-09
1.80956e-08
2.0708e-09
1.61683e-08
2.47865e-09
1.38955e-08
2.93478e-09
1.12388e-08
3.44227e-09
8.15782e-09
4.00378e-09
4.61022e-09
4.62221e-09
5.51979e-10
5.29991e-09
-4.06287e-09
6.0396e-09
-9.28199e-09
6.84353e-09
-1.51534e-08
7.7126e-09
-2.17249e-08
8.64697e-09
-2.90442e-08
9.64655e-09
-3.7158e-08
1.07102e-08
-4.61108e-08
1.18353e-08
-5.59441e-08
1.30182e-08
-6.66953e-08
1.42536e-08
-7.83965e-08
1.55348e-08
-9.10733e-08
1.68535e-08
-1.04744e-07
1.81996e-08
-1.19417e-07
1.95617e-08
-1.35092e-07
2.09266e-08
-1.51757e-07
2.22795e-08
-1.69389e-07
2.36045e-08
-1.8795e-07
2.48843e-08
-2.07389e-07
2.61004e-08
-2.27643e-07
2.72339e-08
-2.48632e-07
2.82647e-08
-2.70262e-07
2.91728e-08
-2.92423e-07
2.99376e-08
-3.14993e-07
3.05389e-08
-3.37832e-07
3.09566e-08
-3.60789e-07
3.11709e-08
-3.83696e-07
3.11628e-08
-4.06377e-07
3.09139e-08
-4.28638e-07
3.04069e-08
-4.50278e-07
2.96254e-08
-4.71085e-07
2.85543e-08
-4.90835e-07
2.718e-08
-5.093e-07
2.54907e-08
-5.26243e-07
2.34768e-08
-5.41425e-07
2.11311e-08
-5.54602e-07
1.84494e-08
-5.65533e-07
1.54296e-08
-5.73978e-07
1.20655e-08
-5.79675e-07
8.34779e-09
-5.82462e-07
4.40647e-09
-5.8213e-07
1.51663e-10
-5.78505e-07
-4.36272e-09
-5.71427e-07
-9.09131e-09
-5.60797e-07
-1.39717e-08
-5.46561e-07
-1.89411e-08
-5.28723e-07
-2.39148e-08
-5.07355e-07
-2.88011e-08
-4.82597e-07
-3.35018e-08
-4.54669e-07
-3.79076e-08
-4.23871e-07
-4.19022e-08
-3.9059e-07
-4.5367e-08
-3.55291e-07
-4.81872e-08
-3.18514e-07
-5.02574e-08
-2.80863e-07
-5.14886e-08
-2.42987e-07
-5.18151e-08
-2.05562e-07
-5.12009e-08
-1.69264e-07
-4.96447e-08
-1.34742e-07
-4.71831e-08
-1.02596e-07
-4.38917e-08
-7.33441e-08
-3.98824e-08
-4.74044e-08
-3.52985e-08
-2.50774e-08
-3.03059e-08
-6.53609e-09
-2.50834e-08
8.17522e-09
-1.98114e-08
1.91356e-08
-1.46596e-08
2.65341e-08
-9.78001e-09
3.0652e-08
-5.29795e-09
3.18453e-08
-1.31301e-09
3.05287e-08
2.10013e-09
2.71675e-08
4.87252e-09
2.22733e-08
6.94741e-09
1.64386e-08
8.2146e-09
1.03677e-08
8.51336e-09
4.9302e-09
7.59784e-09
1.18227e-09
5.14714e-09
1.39035e-09
-6.48086e-11
1.90597e-10
-1.02282e-11
-1.0916e-11
2.81674e-10
-4.66124e-10
8.50819e-10
-1.00065e-09
1.69874e-09
-1.53402e-09
2.80662e-09
-2.02753e-09
4.14549e-09
-2.46327e-09
5.68172e-09
-2.83372e-09
7.37999e-09
-3.1366e-09
9.20492e-09
-3.37251e-09
1.11221e-08
-3.54375e-09
1.30989e-08
-3.65371e-09
1.51046e-08
-3.70658e-09
1.71112e-08
-3.70713e-09
1.90933e-08
-3.66059e-09
2.10285e-08
-3.57251e-09
2.28975e-08
-3.44869e-09
2.4684e-08
-3.29498e-09
2.63749e-08
-3.11727e-09
2.79603e-08
-2.92132e-09
2.9433e-08
-2.71269e-09
3.07889e-08
-2.49663e-09
3.20264e-08
-2.27803e-09
3.31461e-08
-2.06134e-09
3.41509e-08
-1.85049e-09
3.50455e-08
-1.64887e-09
3.58361e-08
-1.45931e-09
3.653e-08
-1.28398e-09
3.71353e-08
-1.12447e-09
3.76607e-08
-9.8167e-10
3.8115e-08
-8.55845e-10
3.85067e-08
-7.46584e-10
3.88436e-08
-6.52817e-10
3.91328e-08
-5.72821e-10
3.93799e-08
-5.04227e-10
3.95889e-08
-4.4404e-10
3.97618e-08
-3.88665e-10
3.98984e-08
-3.339e-10
3.99959e-08
-2.75224e-10
4.00486e-08
-2.07414e-10
4.0048e-08
-1.24873e-10
3.99822e-08
-2.19036e-11
3.98359e-08
1.07782e-10
3.95905e-08
2.7034e-10
3.92238e-08
4.72151e-10
3.87102e-08
7.19651e-10
3.80205e-08
1.01921e-09
3.71219e-08
1.37722e-09
3.59782e-08
1.79997e-09
3.45499e-08
2.2937e-09
3.27938e-08
2.86461e-09
3.06635e-08
3.51886e-09
2.81093e-08
4.26264e-09
2.50778e-08
5.1023e-09
2.15125e-08
6.04389e-09
1.73536e-08
7.09375e-09
1.25382e-08
8.25767e-09
7.00032e-09
9.54164e-09
6.70964e-10
1.09516e-08
-6.52243e-09
1.24933e-08
-1.46536e-08
1.41708e-08
-2.37969e-08
1.59868e-08
-3.40275e-08
1.79432e-08
-4.54204e-08
2.00399e-08
-5.80489e-08
2.2275e-08
-7.19832e-08
2.46444e-08
-8.72888e-08
2.7141e-08
-1.04025e-07
2.97546e-08
-1.22244e-07
3.24722e-08
-1.41986e-07
3.5277e-08
-1.63282e-07
3.8149e-08
-1.86146e-07
4.10646e-08
-2.10581e-07
4.39966e-08
-2.3657e-07
4.69149e-08
-2.64076e-07
4.97859e-08
-2.93045e-07
5.25735e-08
-3.234e-07
5.52393e-08
-3.55042e-07
5.77428e-08
-3.87851e-07
6.00423e-08
-4.21681e-07
6.20951e-08
-4.56367e-07
6.38582e-08
-4.91718e-07
6.52889e-08
-5.27524e-07
6.63449e-08
-5.63553e-07
6.69853e-08
-5.99552e-07
6.71704e-08
-6.35252e-07
6.68626e-08
-6.70364e-07
6.60263e-08
-7.04586e-07
6.46284e-08
-7.37599e-07
6.26387e-08
-7.69075e-07
6.00302e-08
-7.98674e-07
5.67793e-08
-8.2605e-07
5.28666e-08
-8.50851e-07
4.82776e-08
-8.72723e-07
4.30032e-08
-8.91314e-07
3.70408e-08
-9.0628e-07
3.03948e-08
-9.17289e-07
2.30744e-08
-9.2397e-07
1.50297e-08
-9.26102e-07
6.53832e-09
-9.23427e-07
-2.5234e-09
-9.15683e-07
-1.21071e-08
-9.02703e-07
-2.20714e-08
-8.84375e-07
-3.22997e-08
-8.60655e-07
-4.26609e-08
-8.31586e-07
-5.29837e-08
-7.97306e-07
-6.30812e-08
-7.58052e-07
-7.27553e-08
-7.14172e-07
-8.17878e-08
-6.66126e-07
-8.99481e-08
-6.14491e-07
-9.70024e-08
-5.59954e-07
-1.02724e-07
-5.03306e-07
-1.06906e-07
-4.45422e-07
-1.09372e-07
-3.87245e-07
-1.09993e-07
-3.2975e-07
-1.08695e-07
-2.73922e-07
-1.05473e-07
-2.20708e-07
-1.00397e-07
-1.7099e-07
-9.36101e-08
-1.2554e-07
-8.53322e-08
-8.49943e-08
-7.58443e-08
-4.98239e-08
-6.54763e-08
-2.03199e-08
-5.45873e-08
3.41247e-09
-4.35438e-08
2.14501e-08
-3.26973e-08
3.40364e-08
-2.23663e-08
4.15612e-08
-1.28227e-08
4.45354e-08
-4.28727e-09
4.35742e-08
3.06139e-09
3.93764e-08
9.0703e-09
3.2731e-08
1.35928e-08
2.45432e-08
1.64024e-08
1.58684e-08
1.71882e-08
7.95625e-09
1.551e-08
2.22824e-09
1.08751e-08
3.6186e-09
-2.50329e-11
2.15694e-10
1.36136e-10
-1.72065e-10
6.05711e-10
-9.35714e-10
1.42911e-09
-1.82409e-09
2.60932e-09
-2.71426e-09
4.12457e-09
-3.54281e-09
5.93966e-09
-4.27838e-09
8.01251e-09
-4.90658e-09
1.02981e-08
-5.42214e-09
1.27506e-08
-5.82506e-09
1.53253e-08
-6.11848e-09
1.79793e-08
-6.30769e-09
2.06722e-08
-6.39947e-09
2.33668e-08
-6.40171e-09
2.60294e-08
-6.32317e-09
2.86301e-08
-6.1732e-09
3.1143e-08
-5.96155e-09
3.35462e-08
-5.6982e-09
3.58221e-08
-5.39311e-09
3.79568e-08
-5.05606e-09
3.99406e-08
-4.69651e-09
4.17674e-08
-4.3234e-09
4.34344e-08
-3.94505e-09
4.49421e-08
-3.56902e-09
4.62936e-08
-3.20202e-09
4.74946e-08
-2.84982e-09
4.85525e-08
-2.51719e-09
4.94763e-08
-2.20784e-09
5.02763e-08
-1.92441e-09
5.0963e-08
-1.6684e-09
5.15474e-08
-1.44018e-09
5.20397e-08
-1.23896e-09
5.24498e-08
-1.06283e-09
5.27857e-08
-9.08719e-10
5.30539e-08
-7.72444e-10
5.32586e-08
-6.48736e-10
5.34012e-08
-5.31282e-10
5.348e-08
-4.12731e-10
5.34899e-08
-2.85128e-10
5.34218e-08
-1.39291e-10
5.32625e-08
3.4493e-11
5.29941e-08
2.46409e-10
5.25947e-08
5.07214e-10
5.20372e-08
8.27876e-10
5.12897e-08
1.21959e-09
5.03157e-08
1.69366e-09
4.90736e-08
2.26134e-09
4.7517e-08
2.93385e-09
4.55947e-08
3.72229e-09
4.32507e-08
4.63765e-09
4.04245e-08
5.69081e-09
3.70508e-08
6.89259e-09
3.30597e-08
8.25377e-09
2.83767e-08
9.78526e-09
2.29233e-08
1.14973e-08
1.66167e-08
1.34003e-08
9.36987e-09
1.55045e-08
1.09072e-09
1.78208e-08
-8.31532e-09
2.03576e-08
-1.89448e-08
2.31228e-08
-3.08963e-08
2.61224e-08
-4.42698e-08
2.93603e-08
-5.91645e-08
3.28379e-08
-7.56778e-08
3.65532e-08
-9.39033e-08
4.05006e-08
-1.13929e-07
4.467e-08
-1.35835e-07
4.90466e-08
-1.5969e-07
5.361e-08
-1.85552e-07
5.83341e-08
-2.13462e-07
6.31871e-08
-2.43444e-07
6.81311e-08
-2.75502e-07
7.31221e-08
-3.09615e-07
7.81105e-08
-3.45742e-07
8.30413e-08
-3.83811e-07
8.78546e-08
-4.23724e-07
9.24864e-08
-4.65353e-07
9.68692e-08
-5.08543e-07
1.00933e-07
-5.53107e-07
1.04606e-07
-5.98828e-07
1.07816e-07
-6.4546e-07
1.10491e-07
-6.92732e-07
1.12561e-07
-7.40343e-07
1.13956e-07
-7.8797e-07
1.14612e-07
-8.35266e-07
1.14466e-07
-8.81864e-07
1.13461e-07
-9.27379e-07
1.11541e-07
-9.7141e-07
1.08659e-07
-1.01354e-06
1.04772e-07
-1.05336e-06
9.98428e-08
-1.09042e-06
9.38403e-08
-1.12429e-06
8.67415e-08
-1.15455e-06
7.85316e-08
-1.18075e-06
6.92052e-08
-1.20247e-06
5.87675e-08
-1.21932e-06
4.72356e-08
-1.23088e-06
3.46354e-08
-1.23682e-06
2.09722e-08
-1.23679e-06
6.50535e-09
-1.23051e-06
-8.80097e-09
-1.21775e-06
-2.48648e-08
-1.19835e-06
-4.14773e-08
-1.1722e-06
-5.84491e-08
-1.13929e-06
-7.55633e-08
-1.09973e-06
-9.25455e-08
-1.05372e-06
-1.09095e-07
-1.00158e-06
-1.24896e-07
-9.43761e-07
-1.39603e-07
-8.80856e-07
-1.52853e-07
-8.1358e-07
-1.64279e-07
-7.4278e-07
-1.73524e-07
-6.69422e-07
-1.80264e-07
-5.94574e-07
-1.8422e-07
-5.19381e-07
-1.85186e-07
-4.45035e-07
-1.83042e-07
-3.72736e-07
-1.77772e-07
-3.03655e-07
-1.69478e-07
-2.38886e-07
-1.5838e-07
-1.79403e-07
-1.44815e-07
-1.26024e-07
-1.29223e-07
-7.93747e-08
-1.12126e-07
-3.98646e-08
-9.40974e-08
-7.67795e-09
-7.57305e-08
1.72274e-08
-5.76027e-08
3.51074e-08
-4.02463e-08
4.64106e-08
-2.4126e-08
5.17535e-08
-9.63011e-09
5.18958e-08
2.91904e-09
4.77218e-08
1.32443e-08
4.02459e-08
2.10686e-08
3.06217e-08
2.60267e-08
2.01775e-08
2.76324e-08
1.04426e-08
2.52449e-08
3.11976e-09
1.8198e-08
6.73835e-09
3.02404e-11
1.85561e-10
3.22546e-10
-4.64328e-10
9.89973e-10
-1.60315e-09
2.0773e-09
-2.91144e-09
3.58695e-09
-4.22395e-09
5.49459e-09
-5.45048e-09
7.76012e-09
-6.54394e-09
1.03347e-08
-7.48122e-09
1.31655e-08
-8.25286e-09
1.61979e-08
-8.85751e-09
1.93784e-08
-9.29895e-09
2.26551e-08
-9.58441e-09
2.59792e-08
-9.72356e-09
2.93055e-08
-9.72791e-09
3.25926e-08
-9.61034e-09
3.58042e-08
-9.38472e-09
3.89082e-08
-9.06556e-09
4.18777e-08
-8.66771e-09
4.46906e-08
-8.20606e-09
4.73298e-08
-7.69525e-09
4.97827e-08
-7.14941e-09
5.20413e-08
-6.58193e-09
5.41015e-08
-6.00527e-09
5.59632e-08
-5.43074e-09
5.76296e-08
-4.86839e-09
5.91066e-08
-4.32685e-09
6.04027e-08
-3.81324e-09
6.15279e-08
-3.33309e-09
6.24938e-08
-2.89029e-09
6.33124e-08
-2.487e-09
6.39959e-08
-2.12368e-09
6.4556e-08
-1.79902e-09
6.50031e-08
-1.50997e-09
6.53461e-08
-1.25174e-09
6.55915e-08
-1.01784e-09
6.57429e-08
-8.00094e-10
6.58004e-08
-5.8875e-10
6.57602e-08
-3.72546e-10
6.56141e-08
-1.39026e-10
6.53489e-08
1.25928e-10
6.49462e-08
4.37157e-10
6.43821e-08
8.10497e-10
6.36269e-08
1.26247e-09
6.26447e-08
1.81007e-09
6.13937e-08
2.47059e-09
5.98258e-08
3.26151e-09
5.78869e-08
4.20026e-09
5.55165e-08
5.30421e-09
5.26483e-08
6.59053e-09
4.92097e-08
8.07621e-09
4.51225e-08
9.77804e-09
4.03024e-08
1.17127e-08
3.46596e-08
1.38966e-08
2.80992e-08
1.63457e-08
2.05204e-08
1.9076e-08
1.18172e-08
2.21036e-08
1.87854e-09
2.54432e-08
-9.40971e-09
2.9109e-08
-2.21655e-08
3.31134e-08
-3.65091e-08
3.74664e-08
-5.25623e-08
4.21755e-08
-7.04463e-08
4.72443e-08
-9.02804e-08
5.2672e-08
-1.1218e-07
5.84525e-08
-1.36253e-07
6.45736e-08
-1.62599e-07
7.1016e-08
-1.91305e-07
7.77525e-08
-2.22442e-07
8.47476e-08
-2.56065e-07
9.1957e-08
-2.92206e-07
9.93274e-08
-3.30871e-07
1.06796e-07
-3.72041e-07
1.14292e-07
-4.15667e-07
1.21736e-07
-4.61665e-07
1.2904e-07
-5.09921e-07
1.3611e-07
-5.60282e-07
1.42848e-07
-6.12562e-07
1.49149e-07
-6.66536e-07
1.54907e-07
-7.21945e-07
1.60015e-07
-7.78497e-07
1.64367e-07
-8.35865e-07
1.67858e-07
-8.93691e-07
1.70387e-07
-9.5159e-07
1.71855e-07
-1.00915e-06
1.72174e-07
-1.06594e-06
1.71258e-07
-1.12151e-06
1.6903e-07
-1.17539e-06
1.65421e-07
-1.2271e-06
1.6037e-07
-1.27616e-06
1.53826e-07
-1.32206e-06
1.45746e-07
-1.36432e-06
1.361e-07
-1.40244e-06
1.24866e-07
-1.43595e-06
1.12036e-07
-1.46436e-06
9.76161e-08
-1.48722e-06
8.16276e-08
-1.50409e-06
6.41091e-08
-1.51457e-06
4.51167e-08
-1.51832e-06
2.47155e-08
-1.51496e-06
3.14797e-09
-1.50423e-06
-1.95266e-08
-1.48594e-06
-4.31627e-08
-1.45993e-06
-6.74865e-08
-1.42615e-06
-9.22272e-08
-1.38464e-06
-1.17073e-07
-1.33554e-06
-1.41641e-07
-1.27913e-06
-1.65507e-07
-1.2158e-06
-1.88227e-07
-1.14608e-06
-2.09324e-07
-1.07064e-06
-2.28292e-07
-9.90299e-07
-2.44622e-07
-9.06e-07
-2.57823e-07
-8.18825e-07
-2.67438e-07
-7.29964e-07
-2.73082e-07
-6.40693e-07
-2.74457e-07
-5.52345e-07
-2.71389e-07
-4.66274e-07
-2.63843e-07
-3.83806e-07
-2.51946e-07
-3.06197e-07
-2.35989e-07
-2.34581e-07
-2.1643e-07
-1.69931e-07
-1.93873e-07
-1.13011e-07
-1.69046e-07
-6.43534e-08
-1.42755e-07
-2.42346e-08
-1.15849e-07
7.32705e-09
-8.91643e-08
3.0565e-08
-6.34843e-08
4.59465e-08
-3.95074e-08
5.41476e-08
-1.78312e-08
5.60283e-08
1.03834e-09
5.26129e-08
1.66597e-08
4.50875e-08
2.8594e-08
3.4802e-08
3.63123e-08
2.32953e-08
3.9139e-08
1.23132e-08
3.62271e-08
3.80303e-09
2.67081e-08
1.05414e-08
9.34796e-11
9.21545e-11
5.31891e-10
-9.02705e-10
1.41016e-09
-2.48142e-09
2.7672e-09
-4.26852e-09
4.6026e-09
-6.05938e-09
6.88903e-09
-7.73694e-09
9.58218e-09
-9.23711e-09
1.26277e-08
-1.05267e-08
1.59659e-08
-1.15911e-08
1.95353e-08
-1.24269e-08
2.32746e-08
-1.30382e-08
2.71242e-08
-1.3434e-08
3.1028e-08
-1.36273e-08
3.49335e-08
-1.36334e-08
3.87931e-08
-1.34699e-08
4.2564e-08
-1.31557e-08
4.62092e-08
-1.27107e-08
4.96968e-08
-1.21554e-08
5.30009e-08
-1.15102e-08
5.6101e-08
-1.07953e-08
5.89819e-08
-1.00303e-08
6.16335e-08
-9.23357e-09
6.40506e-08
-8.42236e-09
6.62321e-08
-7.61227e-09
6.81809e-08
-6.81717e-09
6.9903e-08
-6.04895e-09
7.14072e-08
-5.3174e-09
7.27042e-08
-4.63011e-09
7.38063e-08
-3.99235e-09
7.47263e-08
-3.40698e-09
7.54771e-08
-2.87448e-09
7.60709e-08
-2.39284e-09
7.65186e-08
-1.9576e-09
7.68287e-08
-1.56186e-09
7.70072e-08
-1.19631e-09
7.70564e-08
-8.49277e-10
7.69745e-08
-5.06845e-10
7.67549e-08
-1.53015e-10
7.63858e-08
2.30106e-10
7.58493e-08
6.62426e-10
7.51213e-08
1.16512e-09
7.41711e-08
1.76071e-09
7.29609e-08
2.47272e-09
7.14456e-08
3.32535e-09
6.95729e-08
4.34326e-09
6.72831e-08
5.55135e-09
6.45088e-08
6.9745e-09
6.11756e-08
8.63744e-09
5.72015e-08
1.05647e-08
5.24973e-08
1.27804e-08
4.6967e-08
1.53083e-08
4.05076e-08
1.8172e-08
3.30096e-08
2.13946e-08
2.43571e-08
2.49983e-08
1.44275e-08
2.90056e-08
3.09356e-09
3.34375e-08
-9.77746e-09
3.83142e-08
-2.43221e-08
4.36537e-08
-4.068e-08
4.94713e-08
-5.89926e-08
5.5779e-08
-7.9401e-08
6.2584e-08
-1.02045e-07
6.98879e-08
-1.27058e-07
7.76855e-08
-1.54569e-07
8.59636e-08
-1.84695e-07
9.46995e-08
-2.17539e-07
1.0386e-07
-2.53188e-07
1.13402e-07
-2.91708e-07
1.23267e-07
-3.33138e-07
1.33388e-07
-3.77493e-07
1.43682e-07
-4.24752e-07
1.54056e-07
-4.74862e-07
1.64403e-07
-5.27732e-07
1.74606e-07
-5.8323e-07
1.84538e-07
-6.41185e-07
1.94065e-07
-7.01383e-07
2.03046e-07
-7.63568e-07
2.11334e-07
-8.27445e-07
2.18783e-07
-8.92676e-07
2.25247e-07
-9.5889e-07
2.30581e-07
-1.02568e-06
2.34647e-07
-1.0926e-06
2.37312e-07
-1.1592e-06
2.38453e-07
-1.22498e-06
2.37956e-07
-1.28944e-06
2.35718e-07
-1.35206e-06
2.31646e-07
-1.4123e-06
2.25663e-07
-1.46963e-06
2.17701e-07
-1.52351e-06
2.07708e-07
-1.57341e-06
1.95644e-07
-1.6188e-06
1.81484e-07
-1.65915e-06
1.65219e-07
-1.69397e-06
1.46856e-07
-1.72277e-06
1.2642e-07
-1.7451e-06
1.03957e-07
-1.76053e-06
7.95356e-08
-1.76866e-06
5.32511e-08
-1.76917e-06
2.52248e-08
-1.76173e-06
-4.29544e-09
-1.74609e-06
-3.51637e-08
-1.7221e-06
-6.71564e-08
-1.68965e-06
-9.99347e-08
-1.64874e-06
-1.33142e-07
-1.59944e-06
-1.66369e-07
-1.54195e-06
-1.99126e-07
-1.4766e-06
-2.30865e-07
-1.40381e-06
-2.61013e-07
-1.32418e-06
-2.88957e-07
-1.23841e-06
-3.14053e-07
-1.14739e-06
-3.35647e-07
-1.05211e-06
-3.53106e-07
-9.53704e-07
-3.65842e-07
-8.53435e-07
-3.7335e-07
-7.52655e-07
-3.75237e-07
-6.52782e-07
-3.71261e-07
-5.55267e-07
-3.61358e-07
-4.61547e-07
-3.45666e-07
-3.72997e-07
-3.24539e-07
-2.90883e-07
-2.98544e-07
-2.16307e-07
-2.68449e-07
-1.50167e-07
-2.35186e-07
-9.31124e-08
-1.99809e-07
-4.55267e-08
-1.63435e-07
-7.50805e-09
-1.27183e-07
2.11269e-08
-9.21192e-08
4.083e-08
-5.92105e-08
5.23003e-08
-2.93016e-08
5.64583e-08
-3.11961e-09
5.44272e-08
1.86908e-08
4.752e-08
3.55012e-08
3.72368e-08
4.65955e-08
2.52803e-08
5.10954e-08
1.35711e-08
4.79363e-08
4.27386e-09
3.60053e-08
1.48152e-08
1.60102e-10
-6.78513e-11
7.52279e-10
-1.49483e-09
1.84834e-09
-3.57748e-09
3.47722e-09
-5.89744e-09
5.63336e-09
-8.21556e-09
8.28563e-09
-1.03892e-08
1.13856e-08
-1.23371e-08
1.48742e-08
-1.40153e-08
1.8686e-08
-1.5403e-08
2.27535e-08
-1.64943e-08
2.70086e-08
-1.72933e-08
3.13855e-08
-1.78109e-08
3.58213e-08
-1.80631e-08
4.02576e-08
-1.80697e-08
4.46407e-08
-1.7853e-08
4.89227e-08
-1.74377e-08
5.30615e-08
-1.68495e-08
5.70213e-08
-1.61151e-08
6.07723e-08
-1.52612e-08
6.42909e-08
-1.43139e-08
6.75596e-08
-1.32989e-08
7.05662e-08
-1.22402e-08
7.3304e-08
-1.11602e-08
7.5771e-08
-1.00793e-08
7.79694e-08
-9.01559e-09
7.9905e-08
-7.98456e-09
8.15866e-08
-6.99893e-09
8.3025e-08
-6.0685e-09
8.42326e-08
-5.20001e-09
8.52227e-08
-4.39705e-09
8.60082e-08
-3.65998e-09
8.66013e-08
-2.98592e-09
8.70124e-08
-2.3687e-09
8.72494e-08
-1.7989e-09
8.7317e-08
-1.26388e-09
8.72156e-08
-7.47868e-10
8.69409e-08
-2.321e-10
8.64828e-08
3.04993e-10
8.58254e-08
8.87582e-10
8.49455e-08
1.54234e-09
8.38128e-08
2.29781e-09
8.23892e-08
3.18432e-09
8.06284e-08
4.2335e-09
7.84758e-08
5.47796e-09
7.58681e-08
6.95092e-09
7.27336e-08
8.68591e-09
6.89916e-08
1.07165e-08
6.45531e-08
1.30759e-08
5.93207e-08
1.57971e-08
5.31884e-08
1.89127e-08
4.60424e-08
2.24543e-08
3.77611e-08
2.64534e-08
2.82154e-08
3.09403e-08
1.72692e-08
3.59445e-08
4.77969e-09
4.14951e-08
-9.4014e-09
4.76186e-08
-2.54273e-08
5.43401e-08
-4.3455e-08
6.16813e-08
-6.36433e-08
6.96597e-08
-8.61518e-08
7.82874e-08
-1.11138e-07
8.757e-08
-1.38754e-07
9.75045e-08
-1.69147e-07
1.08078e-07
-2.0245e-07
1.19266e-07
-2.38782e-07
1.31032e-07
-2.78245e-07
1.43323e-07
-3.20916e-07
1.56072e-07
-3.66845e-07
1.69196e-07
-4.16052e-07
1.82594e-07
-4.68518e-07
1.96149e-07
-5.24189e-07
2.09727e-07
-5.82966e-07
2.2318e-07
-6.44707e-07
2.36346e-07
-7.09222e-07
2.49053e-07
-7.76275e-07
2.61118e-07
-8.45582e-07
2.72353e-07
-9.16816e-07
2.82567e-07
-9.89602e-07
2.9157e-07
-1.06353e-06
2.99173e-07
-1.13814e-06
3.05196e-07
-1.21296e-06
3.09467e-07
-1.28748e-06
3.11826e-07
-1.36115e-06
3.12126e-07
-1.43343e-06
3.10237e-07
-1.50375e-06
3.06042e-07
-1.57155e-06
2.99443e-07
-1.63625e-06
2.90359e-07
-1.69727e-06
2.78726e-07
-1.75406e-06
2.645e-07
-1.80607e-06
2.47653e-07
-1.85276e-06
2.28174e-07
-1.89362e-06
2.06075e-07
-1.92815e-06
1.81386e-07
-1.95589e-06
1.5416e-07
-1.97641e-06
1.24474e-07
-1.98931e-06
9.24338e-08
-1.99423e-06
5.81776e-08
-1.99089e-06
2.18802e-08
-1.979e-06
-1.61878e-08
-1.95836e-06
-5.58009e-08
-1.92886e-06
-9.66582e-08
-1.89044e-06
-1.38356e-07
-1.84312e-06
-1.80452e-07
-1.78705e-06
-2.22443e-07
-1.72244e-06
-2.63739e-07
-1.64963e-06
-3.03672e-07
-1.5691e-06
-3.41546e-07
-1.48144e-06
-3.76616e-07
-1.38739e-06
-4.08101e-07
-1.28783e-06
-4.35205e-07
-1.18379e-06
-4.57154e-07
-1.0764e-06
-4.73224e-07
-9.66967e-07
-4.82786e-07
-8.56862e-07
-4.85342e-07
-7.47553e-07
-4.8057e-07
-6.40551e-07
-4.68361e-07
-5.37367e-07
-4.4885e-07
-4.39469e-07
-4.22437e-07
-3.48226e-07
-3.89787e-07
-2.64858e-07
-3.51817e-07
-1.90383e-07
-3.09662e-07
-1.25573e-07
-2.64619e-07
-7.0922e-08
-2.18086e-07
-2.6624e-08
-1.71481e-07
7.43252e-09
-1.26176e-07
3.16578e-08
-8.34358e-08
4.67429e-08
-4.43867e-08
5.36365e-08
-1.00132e-08
5.35225e-08
1.88048e-08
4.7804e-08
4.12197e-08
3.80949e-08
5.63046e-08
2.62247e-08
6.29656e-08
1.4258e-08
5.9903e-08
4.54777e-09
4.57155e-08
1.9363e-08
2.27063e-10
-2.94842e-10
9.7542e-10
-2.24315e-09
2.29136e-09
-4.89342e-09
4.19091e-09
-7.79701e-09
6.6613e-09
-1.0686e-08
9.66661e-09
-1.33946e-08
1.31542e-08
-1.58247e-08
1.70604e-08
-1.79215e-08
2.1315e-08
-1.96576e-08
2.58449e-08
-2.10242e-08
3.05768e-08
-2.20251e-08
3.54388e-08
-2.2673e-08
4.03627e-08
-2.2987e-08
4.52844e-08
-2.29914e-08
5.01454e-08
-2.27139e-08
5.48927e-08
-2.2185e-08
5.94803e-08
-2.1437e-08
6.38682e-08
-2.0503e-08
6.80234e-08
-1.94164e-08
7.19196e-08
-1.82101e-08
7.55366e-08
-1.6916e-08
7.88606e-08
-1.55642e-08
8.18833e-08
-1.41828e-08
8.46015e-08
-1.27975e-08
8.70165e-08
-1.14306e-08
8.91337e-08
-1.01017e-08
9.09613e-08
-8.82652e-09
9.251e-08
-7.61723e-09
9.37921e-08
-6.48207e-09
9.48203e-08
-5.42531e-09
9.56074e-08
-4.44708e-09
9.61649e-08
-3.54339e-09
9.65023e-08
-2.70604e-09
9.66261e-08
-1.92269e-09
9.6539e-08
-1.17685e-09
9.62392e-08
-4.48065e-10
9.57191e-08
2.87988e-10
9.49649e-08
1.05923e-09
9.39555e-08
1.89696e-09
9.26623e-08
2.83557e-09
9.10481e-08
3.91198e-09
8.90671e-08
5.16536e-09
8.6664e-08
6.63659e-09
8.37742e-08
8.3678e-09
8.03231e-08
1.04019e-08
7.62267e-08
1.27823e-08
7.13909e-08
1.55523e-08
6.5712e-08
1.87548e-08
5.90767e-08
2.24324e-08
5.13626e-08
2.66268e-08
4.24382e-08
3.13787e-08
3.21635e-08
3.6728e-08
2.03906e-08
4.27132e-08
6.96366e-09
4.93714e-08
-8.2793e-09
5.6738e-08
-2.55062e-08
6.48455e-08
-4.48891e-08
7.37231e-08
-6.6603e-08
8.33952e-08
-9.08237e-08
9.38803e-08
-1.17725e-07
1.05189e-07
-1.47477e-07
1.17322e-07
-1.80242e-07
1.30269e-07
-2.16169e-07
1.44006e-07
-2.55395e-07
1.58492e-07
-2.98033e-07
1.7367e-07
-3.44173e-07
1.89464e-07
-3.93877e-07
2.05776e-07
-4.47169e-07
2.22489e-07
-5.04037e-07
2.39462e-07
-5.64425e-07
2.56537e-07
-6.28231e-07
2.73532e-07
-6.95302e-07
2.90251e-07
-7.65436e-07
3.0648e-07
-8.38378e-07
3.21995e-07
-9.13821e-07
3.36561e-07
-9.91407e-07
3.4994e-07
-1.07073e-06
3.61893e-07
-1.15135e-06
3.72185e-07
-1.23276e-06
3.80589e-07
-1.31446e-06
3.8689e-07
-1.39588e-06
3.90887e-07
-1.47645e-06
3.92399e-07
-1.55559e-06
3.91263e-07
-1.63269e-06
3.87337e-07
-1.70715e-06
3.80505e-07
-1.77838e-06
3.70668e-07
-1.84577e-06
3.57756e-07
-1.90876e-06
3.41716e-07
-1.96678e-06
3.22521e-07
-2.01929e-06
3.00164e-07
-2.06578e-06
2.7466e-07
-2.10575e-06
2.46047e-07
-2.13875e-06
2.14387e-07
-2.16436e-06
1.79765e-07
-2.18218e-06
1.42295e-07
-2.19187e-06
1.02124e-07
-2.19313e-06
5.94338e-08
-2.18569e-06
1.44487e-08
-2.16935e-06
-3.25284e-08
-2.14396e-06
-8.11999e-08
-2.10942e-06
-1.31195e-07
-2.06573e-06
-1.82048e-07
-2.01294e-06
-2.33238e-07
-1.95121e-06
-2.84172e-07
-1.88078e-06
-3.34168e-07
-1.802e-06
-3.82454e-07
-1.71534e-06
-4.2821e-07
-1.62138e-06
-4.70569e-07
-1.52087e-06
-5.08616e-07
-1.41465e-06
-5.4142e-07
-1.30375e-06
-5.68062e-07
-1.18929e-06
-5.87683e-07
-1.07255e-06
-5.99522e-07
-9.54927e-07
-6.02965e-07
-8.37899e-07
-5.97599e-07
-7.23007e-07
-5.83252e-07
-6.11817e-07
-5.6004e-07
-5.05866e-07
-5.28388e-07
-4.06612e-07
-4.89041e-07
-3.15377e-07
-4.43051e-07
-2.33295e-07
-3.91744e-07
-1.61257e-07
-3.36657e-07
-9.9874e-08
-2.79469e-07
-4.94454e-08
-2.2191e-07
-9.94745e-09
-1.65674e-07
1.89678e-08
-1.12351e-07
3.79594e-08
-6.33783e-08
4.79764e-08
-2.00302e-08
5.02336e-08
1.65476e-08
4.61939e-08
4.52595e-08
3.75528e-08
6.49457e-08
2.62385e-08
7.42798e-08
1.44343e-08
7.17073e-08
4.64867e-09
5.55011e-08
2.40117e-08
2.92469e-10
-5.87223e-10
1.19566e-09
-3.1463e-09
2.72979e-09
-6.42754e-09
4.896e-09
-9.96325e-09
7.67269e-09
-1.34627e-08
1.10181e-08
-1.674e-08
1.4875e-08
-1.96816e-08
1.91752e-08
-2.22217e-08
2.38442e-08
-2.43266e-08
2.88041e-08
-2.59841e-08
3.39765e-08
-2.71976e-08
3.92849e-08
-2.79814e-08
4.4656e-08
-2.8358e-08
5.0021e-08
-2.83563e-08
5.53167e-08
-2.80096e-08
6.04863e-08
-2.73547e-08
6.54797e-08
-2.64304e-08
7.02536e-08
-2.5277e-08
7.47721e-08
-2.39348e-08
7.9006e-08
-2.2444e-08
8.2933e-08
-2.0843e-08
8.65375e-08
-1.91686e-08
8.98095e-08
-1.74548e-08
9.27446e-08
-1.57326e-08
9.53432e-08
-1.40292e-08
9.76097e-08
-1.23682e-08
9.95517e-08
-1.07686e-08
1.01179e-07
-9.2449e-09
1.02504e-07
-7.80694e-09
1.03539e-07
-6.45952e-09
1.04294e-07
-5.20241e-09
1.04781e-07
-4.03022e-09
1.05007e-07
-2.93243e-09
1.04978e-07
-1.8933e-09
1.04693e-07
-8.92048e-10
1.04148e-07
9.71228e-11
1.03331e-07
1.10477e-09
1.02224e-07
2.16594e-09
1.00801e-07
3.31988e-09
9.90272e-08
4.60965e-09
9.68577e-08
6.08152e-09
9.42385e-08
7.78453e-09
9.11053e-08
9.76987e-09
8.73828e-08
1.20903e-08
8.29851e-08
1.47996e-08
7.78155e-08
1.7952e-08
7.17662e-08
2.16016e-08
6.47188e-08
2.58022e-08
5.65444e-08
3.06068e-08
4.71041e-08
3.60671e-08
3.6249e-08
4.22338e-08
2.38213e-08
4.91557e-08
9.65455e-09
5.68799e-08
-6.42516e-09
6.54512e-08
-2.45983e-08
7.49112e-08
-4.50506e-08
8.52977e-08
-6.7971e-08
9.66435e-08
-9.355e-08
1.08974e-07
-1.21977e-07
1.22307e-07
-1.53437e-07
1.36649e-07
-1.88107e-07
1.51993e-07
-2.26154e-07
1.68316e-07
-2.67727e-07
1.85579e-07
-3.12955e-07
2.0372e-07
-3.6194e-07
2.22655e-07
-4.14754e-07
2.42277e-07
-4.71431e-07
2.62452e-07
-5.31963e-07
2.8302e-07
-5.96296e-07
3.03796e-07
-6.64327e-07
3.24568e-07
-7.35898e-07
3.45103e-07
-8.10795e-07
3.65148e-07
-8.88748e-07
3.84433e-07
-9.6943e-07
4.02677e-07
-1.05246e-06
4.19592e-07
-1.13741e-06
4.34887e-07
-1.22379e-06
4.48276e-07
-1.31109e-06
4.59483e-07
-1.39874e-06
4.68244e-07
-1.48617e-06
4.74316e-07
-1.57276e-06
4.77477e-07
-1.65789e-06
4.77531e-07
-1.74094e-06
4.7431e-07
-1.82128e-06
4.67674e-07
-1.89828e-06
4.57512e-07
-1.97136e-06
4.4374e-07
-2.03991e-06
4.26305e-07
-2.10337e-06
4.05179e-07
-2.16121e-06
3.80361e-07
-2.21292e-06
3.51872e-07
-2.25802e-06
3.19762e-07
-2.29607e-06
2.84101e-07
-2.32667e-06
2.44986e-07
-2.34945e-06
2.02539e-07
-2.36406e-06
1.56914e-07
-2.37024e-06
1.08297e-07
-2.36771e-06
5.69108e-08
-2.35629e-06
3.02645e-09
-2.3358e-06
-5.30189e-08
-2.30613e-06
-1.10867e-07
-2.26724e-06
-1.70085e-07
-2.21914e-06
-2.30153e-07
-2.1619e-06
-2.90479e-07
-2.09568e-06
-3.5039e-07
-2.02073e-06
-4.09122e-07
-1.93737e-06
-4.65811e-07
-1.84606e-06
-5.1952e-07
-1.74736e-06
-5.69268e-07