/*--------------------------------*- C++ -*----------------------------------*\
  =========                 |
  \\      /  F ield         | OpenFOAM: The Open Source CFD Toolbox
   \\    /   O peration     | Website:  https://openfoam.org
    \\  /    A nd           | Version:  12
     \\/     M anipulation  |
\*---------------------------------------------------------------------------*/
FoamFile
{
    format      ascii;
    class       volVectorField;
    location    "8.5";
    object      U;
}
// * * * * * * * * * * * * * * * * * * * * * * * * * * * * * * * * * * * * * //

dimensions      [0 1 -1 0 0 0 0];

internalField   nonuniform List<vector> 
18225
(
(-3.16104e-06 1.19505e-06 0)
(-9.85468e-06 8.81771e-07 0)
(-1.01657e-05 1.09138e-07 0)
(-1.22638e-06 -8.08261e-07 0)
(1.75369e-05 -1.65253e-06 0)
(4.54095e-05 -2.39287e-06 0)
(8.13088e-05 -3.01759e-06 0)
(0.00012404 -3.52976e-06 0)
(0.000172394 -3.93596e-06 0)
(0.000225192 -4.2438e-06 0)
(0.000281308 -4.46049e-06 0)
(0.00033968 -4.59358e-06 0)
(0.000399321 -4.65038e-06 0)
(0.000459326 -4.63869e-06 0)
(0.000518879 -4.56621e-06 0)
(0.000577257 -4.44108e-06 0)
(0.000633832 -4.27132e-06 0)
(0.000688079 -4.06517e-06 0)
(0.00073957 -3.83061e-06 0)
(0.000787974 -3.57557e-06 0)
(0.000833057 -3.30753e-06 0)
(0.000874676 -3.03374e-06 0)
(0.000912769 -2.76089e-06 0)
(0.000947357 -2.49527e-06 0)
(0.000978528 -2.24223e-06 0)
(0.00100643 -2.00623e-06 0)
(0.00103127 -1.79112e-06 0)
(0.00105328 -1.60017e-06 0)
(0.00107274 -1.43568e-06 0)
(0.00108995 -1.29903e-06 0)
(0.00110522 -1.19076e-06 0)
(0.00111885 -1.11063e-06 0)
(0.00113114 -1.05762e-06 0)
(0.00114237 -1.02994e-06 0)
(0.00115278 -1.02501e-06 0)
(0.00116258 -1.03949e-06 0)
(0.00117192 -1.06941e-06 0)
(0.00118089 -1.10956e-06 0)
(0.00118952 -1.15562e-06 0)
(0.00119775 -1.20113e-06 0)
(0.00120545 -1.23914e-06 0)
(0.00121239 -1.26423e-06 0)
(0.00121826 -1.26828e-06 0)
(0.00122263 -1.24516e-06 0)
(0.001225 -1.18735e-06 0)
(0.00122475 -1.08842e-06 0)
(0.00122117 -9.40167e-07 0)
(0.00121346 -7.36149e-07 0)
(0.0012007 -4.69748e-07 0)
(0.0011819 -1.34296e-07 0)
(0.00115596 2.76994e-07 0)
(0.00112168 7.70965e-07 0)
(0.00107779 1.35454e-06 0)
(0.00102289 2.03611e-06 0)
(0.000955487 2.82237e-06 0)
(0.000874005 3.72129e-06 0)
(0.00077674 4.74329e-06 0)
(0.000661896 5.89859e-06 0)
(0.00052756 7.19899e-06 0)
(0.000371723 8.65509e-06 0)
(0.000192269 1.02732e-05 0)
(-1.3009e-05 1.20646e-05 0)
(-0.000246387 1.40352e-05 0)
(-0.000510208 1.6201e-05 0)
(-0.000806852 1.85694e-05 0)
(-0.00113867 2.11423e-05 0)
(-0.001508 2.3924e-05 0)
(-0.00191709 2.69149e-05 0)
(-0.00236808 3.01121e-05 0)
(-0.00286292 3.35092e-05 0)
(-0.00340336 3.70951e-05 0)
(-0.00399084 4.08547e-05 0)
(-0.00462648 4.47677e-05 0)
(-0.00531097 4.88089e-05 0)
(-0.00604458 5.29475e-05 0)
(-0.00682704 5.71477e-05 0)
(-0.00765751 6.13681e-05 0)
(-0.00853457 6.55623e-05 0)
(-0.0094561 6.96789e-05 0)
(-0.0104193 7.36618e-05 0)
(-0.0114207 7.7451e-05 0)
(-0.0124561 8.09825e-05 0)
(-0.0135204 8.41892e-05 0)
(-0.0146079 8.70012e-05 0)
(-0.0157121 8.93463e-05 0)
(-0.0168257 9.11508e-05 0)
(-0.0179408 9.23396e-05 0)
(-0.0190486 9.2837e-05 0)
(-0.0201398 9.25674e-05 0)
(-0.0212043 9.14556e-05 0)
(-0.0222313 8.94281e-05 0)
(-0.0232097 8.6414e-05 0)
(-0.0241277 8.23463e-05 0)
(-0.0249731 7.71634e-05 0)
(-0.0257334 7.08156e-05 0)
(-0.0263958 6.32845e-05 0)
(-0.0269461 5.42229e-05 0)
(-0.027373 4.41622e-05 0)
(-0.0276628 3.30109e-05 0)
(-0.0278065 2.00149e-05 0)
(-0.0277924 6.52427e-06 0)
(-0.0276077 -8.0429e-06 0)
(-0.0272473 -2.37039e-05 0)
(-0.0267045 -4.00308e-05 0)
(-0.0259763 -5.67177e-05 0)
(-0.0250632 -7.34456e-05 0)
(-0.0239693 -8.9862e-05 0)
(-0.0227025 -0.000105542 0)
(-0.0212754 -0.000120021 0)
(-0.0197051 -0.000132817 0)
(-0.0180136 -0.000143451 0)
(-0.0162271 -0.00015148 0)
(-0.0143759 -0.000156525 0)
(-0.0124932 -0.000158305 0)
(-0.0106146 -0.000156664 0)
(-0.00877621 -0.000151599 0)
(-0.00701346 -0.000143268 0)
(-0.00535951 -0.000131994 0)
(-0.00384373 -0.000118246 0)
(-0.00249033 -0.000102615 0)
(-0.00131734 -8.57655e-05 0)
(-0.000335955 -6.83915e-05 0)
(0.000449627 -5.11862e-05 0)
(0.00104196 -3.47154e-05 0)
(0.00144963 -1.94683e-05 0)
(0.00168633 -5.82908e-06 0)
(0.00176963 5.95673e-06 0)
(0.00171968 1.58413e-05 0)
(0.00155935 2.36577e-05 0)
(0.00131237 2.94006e-05 0)
(0.0010058 3.27777e-05 0)
(0.000671206 3.30775e-05 0)
(0.000348662 2.91465e-05 0)
(9.65514e-05 1.77841e-05 0)
(-1.03432e-05 -3.77227e-06 0)
(-5.59326e-06 6.10174e-06 0)
(-1.59494e-05 3.38903e-06 0)
(-8.44507e-06 -4.83162e-06 0)
(2.2943e-05 -1.45971e-05 0)
(7.99594e-05 -2.41601e-05 0)
(0.000161231 -3.28516e-05 0)
(0.000264243 -4.04144e-05 0)
(0.000385997 -4.67698e-05 0)
(0.00052333 -5.1917e-05 0)
(0.000673079 -5.58924e-05 0)
(0.000832172 -5.8752e-05 0)
(0.000997684 -6.05651e-05 0)
(0.00116688 -6.14103e-05 0)
(0.00133722 -6.1374e-05 0)
(0.00150642 -6.05486e-05 0)
(0.00167245 -5.90312e-05 0)
(0.00183352 -5.69215e-05 0)
(0.00198813 -5.4321e-05 0)
(0.00213506 -5.13303e-05 0)
(0.00227335 -4.80481e-05 0)
(0.00240229 -4.45693e-05 0)
(0.00252144 -4.09836e-05 0)
(0.00263059 -3.73743e-05 0)
(0.00272974 -3.38172e-05 0)
(0.0028191 -3.03792e-05 0)
(0.00289903 -2.71178e-05 0)
(0.00297005 -2.40811e-05 0)
(0.00303278 -2.13069e-05 0)
(0.00308794 -1.88227e-05 0)
(0.00313632 -1.66448e-05 0)
(0.0031787 -1.47788e-05 0)
(0.00321589 -1.3219e-05 0)
(0.00324865 -1.19495e-05 0)
(0.0032777 -1.09432e-05 0)
(0.00330364 -1.01626e-05 0)
(0.00332696 -9.56015e-06 0)
(0.00334801 -9.07824e-06 0)
(0.00336694 -8.64886e-06 0)
(0.00338372 -8.20101e-06 0)
(0.0033981 -7.64954e-06 0)
(0.00340957 -6.9039e-06 0)
(0.00341738 -5.87439e-06 0)
(0.00342048 -4.45793e-06 0)
(0.00341756 -2.56103e-06 0)
(0.00340703 -7.60448e-08 0)
(0.00338698 3.09735e-06 0)
(0.00335524 7.05988e-06 0)
(0.00330933 1.19132e-05 0)
(0.00324649 1.77563e-05 0)
(0.00316369 2.4688e-05 0)
(0.0030576 3.28064e-05 0)
(0.00292462 4.22102e-05 0)
(0.00276086 5.29992e-05 0)
(0.00256215 6.52783e-05 0)
(0.00232404 7.9147e-05 0)
(0.00204179 9.47126e-05 0)
(0.00171036 0.000112087 0)
(0.00132446 0.000131379 0)
(0.000878465 0.000152726 0)
(0.000366557 0.000176156 0)
(-0.000217323 0.000201792 0)
(-0.000879515 0.000229751 0)
(-0.00162657 0.0002601 0)
(-0.00246491 0.000292849 0)
(-0.00340101 0.000328008 0)
(-0.00444127 0.00036556 0)
(-0.0055919 0.000405442 0)
(-0.00685873 0.000447548 0)
(-0.00824711 0.000491718 0)
(-0.00976179 0.000537741 0)
(-0.0114067 0.000585347 0)
(-0.0131848 0.000634208 0)
(-0.015098 0.000683935 0)
(-0.0171469 0.000734083 0)
(-0.0193306 0.000784144 0)
(-0.0216468 0.000833562 0)
(-0.0240914 0.000881724 0)
(-0.0266586 0.000927979 0)
(-0.0293404 0.000971634 0)
(-0.0321274 0.00101197 0)
(-0.0350077 0.00104823 0)
(-0.0379676 0.00107968 0)
(-0.0409914 0.00110552 0)
(-0.0440614 0.00112501 0)
(-0.047158 0.00113737 0)
(-0.0502596 0.00114186 0)
(-0.0533429 0.00113775 0)
(-0.056383 0.00112433 0)
(-0.0593531 0.00110093 0)
(-0.0622254 0.00106692 0)
(-0.0649703 0.00102171 0)
(-0.0675573 0.000964778 0)
(-0.0699549 0.000895659 0)
(-0.072131 0.000813995 0)
(-0.074053 0.00071953 0)
(-0.0756879 0.000612035 0)
(-0.0770013 0.000490958 0)
(-0.0779682 0.000356367 0)
(-0.0785405 0.000211398 0)
(-0.0787138 5.76167e-05 0)
(-0.0784535 -0.000110131 0)
(-0.0777332 -0.000285692 0)
(-0.07654 -0.000467963 0)
(-0.074862 -0.000654532 0)
(-0.0726954 -0.00084212 0)
(-0.0700453 -0.00102722 0)
(-0.0669257 -0.00120604 0)
(-0.0633609 -0.00137432 0)
(-0.0593859 -0.00152751 0)
(-0.0550469 -0.00166092 0)
(-0.0504017 -0.00177 0)
(-0.0455185 -0.00185059 0)
(-0.0404749 -0.00189913 0)
(-0.0353559 -0.00191302 0)
(-0.0302518 -0.00189083 0)
(-0.0252544 -0.00183253 0)
(-0.0204543 -0.0017396 0)
(-0.0159364 -0.00161504 0)
(-0.0117769 -0.00146331 0)
(-0.00803971 -0.00129007 0)
(-0.0047738 -0.00110182 0)
(-0.0020113 -0.000905526 0)
(0.000233132 -0.00070816 0)
(0.00196206 -0.000516118 0)
(0.00319409 -0.000335141 0)
(0.00396148 -0.000169783 0)
(0.00430787 -2.3552e-05 0)
(0.00428506 0.000101096 0)
(0.00395415 0.000201773 0)
(0.00337869 0.000276754 0)
(0.00263386 0.000321916 0)
(0.0018053 0.000330779 0)
(0.000997093 0.000292746 0)
(0.000347233 0.000192352 0)
(1.13703e-05 4.06953e-05 0)
(-5.68097e-06 1.09654e-05 0)
(-1.19432e-05 2.56643e-06 0)
(9.63049e-06 -1.88581e-05 0)
(6.71643e-05 -4.41579e-05 0)
(0.000163157 -6.9302e-05 0)
(0.000295983 -9.24534e-05 0)
(0.000462178 -0.000112808 0)
(0.000657389 -0.000130051 0)
(0.000876889 -0.000144108 0)
(0.00111586 -0.000155029 0)
(0.00136957 -0.000162935 0)
(0.00163346 -0.000167994 0)
(0.00190325 -0.000170406 0)
(0.00217497 -0.000170399 0)
(0.002445 -0.000168218 0)
(0.00271012 -0.000164122 0)
(0.00296749 -0.000158382 0)
(0.00321472 -0.000151272 0)
(0.00344984 -0.000143065 0)
(0.00367127 -0.000134028 0)
(0.00387789 -0.00012442 0)
(0.00406892 -0.000114485 0)
(0.00424399 -0.000104449 0)
(0.00440304 -9.45208e-05 0)
(0.00454632 -8.48816e-05 0)
(0.00467436 -7.56891e-05 0)
(0.00478789 -6.7074e-05 0)
(0.00488784 -5.91388e-05 0)
(0.00497526 -5.19567e-05 0)
(0.0050513 -4.55708e-05 0)
(0.00511715 -3.99941e-05 0)
(0.00517398 -3.52091e-05 0)
(0.00522292 -3.11682e-05 0)
(0.00526497 -2.77935e-05 0)
(0.00530102 -2.49781e-05 0)
(0.00533171 -2.25859e-05 0)
(0.00535747 -2.04538e-05 0)
(0.00537842 -1.83904e-05 0)
(0.00539437 -1.61907e-05 0)
(0.00540476 -1.36161e-05 0)
(0.00540863 -1.04102e-05 0)
(0.00540461 -6.32511e-06 0)
(0.00539087 -1.05971e-06 0)
(0.00536512 5.65876e-06 0)
(0.00532462 1.41196e-05 0)
(0.00526613 2.46157e-05 0)
(0.00518596 3.74349e-05 0)
(0.00507992 5.28673e-05 0)
(0.00494335 7.11974e-05 0)
(0.00477114 9.2708e-05 0)
(0.0045577 0.00011768 0)
(0.004297 0.000146393 0)
(0.00398253 0.000179131 0)
(0.00360734 0.000216182 0)
(0.00316403 0.000257829 0)
(0.00264472 0.000304369 0)
(0.00204111 0.00035614 0)
(0.00134452 0.000413293 0)
(0.000545864 0.00047612 0)
(-0.000364444 0.000544985 0)
(-0.0013964 0.000620124 0)
(-0.00255995 0.000701661 0)
(-0.00386518 0.000789686 0)
(-0.00532231 0.000884237 0)
(-0.00694138 0.000985278 0)
(-0.00873214 0.00109266 0)
(-0.0107038 0.00120612 0)
(-0.0128649 0.00132525 0)
(-0.0152228 0.0014495 0)
(-0.0177841 0.00157817 0)
(-0.0205535 0.00171039 0)
(-0.0235342 0.00184513 0)
(-0.0267273 0.00198122 0)
(-0.0301319 0.00211731 0)
(-0.0337445 0.00225191 0)
(-0.0375589 0.00238339 0)
(-0.0415664 0.00251 0)
(-0.0457551 0.0026299 0)
(-0.0501101 0.00274117 0)
(-0.0546136 0.00284182 0)
(-0.0592445 0.00292983 0)
(-0.0639789 0.00300319 0)
(-0.0687895 0.00305988 0)
(-0.0736466 0.00309792 0)
(-0.0785173 0.00311538 0)
(-0.0833663 0.00311041 0)
(-0.088156 0.00308123 0)
(-0.0928464 0.00302616 0)
(-0.0973955 0.00294365 0)
(-0.10176 0.00283227 0)
(-0.105893 0.00269076 0)
(-0.109751 0.00251802 0)
(-0.113284 0.00231319 0)
(-0.116446 0.00207566 0)
(-0.119189 0.00180511 0)
(-0.121465 0.0015015 0)
(-0.123226 0.00116462 0)
(-0.124439 0.000791025 0)
(-0.125029 0.000401504 0)
(-0.125009 -2.41903e-05 0)
(-0.12431 -0.00047215 0)
(-0.122915 -0.000940632 0)
(-0.120803 -0.00142324 0)
(-0.117965 -0.00191378 0)
(-0.114398 -0.00240398 0)
(-0.110116 -0.00288485 0)
(-0.105142 -0.0033468 0)
(-0.0995175 -0.0037792 0)
(-0.0932955 -0.00417079 0)
(-0.0865464 -0.00451009 0)
(-0.0793558 -0.00478599 0)
(-0.0718238 -0.00498831 0)
(-0.0640635 -0.00510845 0)
(-0.0561983 -0.00514003 0)
(-0.0483588 -0.00507952 0)
(-0.0406782 -0.00492676 0)
(-0.0332881 -0.00468522 0)
(-0.0263131 -0.00436213 0)
(-0.0198661 -0.00396829 0)
(-0.014043 -0.0035175 0)
(-0.00891935 -0.00302587 0)
(-0.0045469 -0.0025108 0)
(-0.0009525 -0.00198994 0)
(0.00186216 -0.00148 0)
(0.00391928 -0.000996001 0)
(0.00526226 -0.00055052 0)
(0.00595286 -0.000153611 0)
(0.0060668 0.000186975 0)
(0.00569487 0.000464069 0)
(0.00493478 0.000671881 0)
(0.00390168 0.000799311 0)
(0.00272591 0.000831007 0)
(0.00156045 0.000744153 0)
(0.000597685 0.000511614 0)
(4.37865e-05 0.000155324 0)
(-4.72242e-06 1.44307e-05 0)
(-1.64931e-06 -4.22947e-06 0)
(3.87757e-05 -4.41553e-05 0)
(0.000125374 -9.09309e-05 0)
(0.000261011 -0.000137728 0)
(0.000443941 -0.000181151 0)
(0.000670043 -0.000219586 0)
(0.000933938 -0.000252325 0)
(0.00122965 -0.000279136 0)
(0.00155098 -0.000300049 0)
(0.00189178 -0.00031525 0)
(0.00224611 -0.000325031 0)
(0.00260832 -0.000329753 0)
(0.00297316 -0.000329836 0)
(0.00333584 -0.000325739 0)
(0.00369204 -0.000317952 0)
(0.00403801 -0.000306984 0)
(0.00437051 -0.000293355 0)
(0.00468687 -0.000277585 0)
(0.00498498 -0.000260182 0)
(0.00526325 -0.000241638 0)
(0.00552061 -0.000222419 0)
(0.00575648 -0.000202958 0)
(0.00597072 -0.000183646 0)
(0.00616357 -0.000164834 0)
(0.00633565 -0.000146821 0)
(0.00648785 -0.000129856 0)
(0.0066213 -0.000114133 0)
(0.00673731 -9.97899e-05 0)
(0.00683731 -8.6906e-05 0)
(0.00692275 -7.55028e-05 0)
(0.0069951 -6.55428e-05 0)
(0.00705572 -5.69292e-05 0)
(0.00710583 -4.9507e-05 0)
(0.00714643 -4.30638e-05 0)
(0.00717827 -3.73312e-05 0)
(0.00720173 -3.19875e-05 0)
(0.00721679 -2.66575e-05 0)
(0.00722303 -2.09315e-05 0)
(0.00721948 -1.43534e-05 0)
(0.00720466 -6.41584e-06 0)
(0.00717647 3.40033e-06 0)
(0.00713223 1.5642e-05 0)
(0.00706863 3.08671e-05 0)
(0.00698171 4.96468e-05 0)
(0.00686684 7.25572e-05 0)
(0.00671874 0.000100171 0)
(0.00653147 0.000133058 0)
(0.00629845 0.000171786 0)
(0.00601245 0.000216912 0)
(0.0056656 0.000268991 0)
(0.00524938 0.000328577 0)
(0.00475469 0.000396223 0)
(0.00417177 0.000472489 0)
(0.00349031 0.000557951 0)
(0.00269934 0.000653101 0)
(0.00178752 0.000758376 0)
(0.000742671 0.000874516 0)
(-0.000447879 0.00100199 0)
(-0.001797 0.00114118 0)
(-0.00331788 0.00129244 0)
(-0.00502399 0.00145601 0)
(-0.0069288 0.00163204 0)
(-0.00904566 0.00182048 0)
(-0.0113875 0.00202112 0)
(-0.0139667 0.00223354 0)
(-0.0167946 0.00245706 0)
(-0.0198814 0.00269073 0)
(-0.0232357 0.00293331 0)
(-0.0268643 0.00318327 0)
(-0.0307717 0.00343875 0)
(-0.0349598 0.0036976 0)
(-0.0394275 0.00395736 0)
(-0.0441708 0.00421526 0)
(-0.049182 0.0044683 0)
(-0.0544497 0.00471323 0)
(-0.0599588 0.00494658 0)
(-0.0656901 0.00516477 0)
(-0.0716204 0.00536406 0)
(-0.0777225 0.00554068 0)
(-0.0839652 0.00569086 0)
(-0.0903135 0.00581081 0)
(-0.0967287 0.00589688 0)
(-0.103169 0.00594549 0)
(-0.109588 0.00595323 0)
(-0.115938 0.00591687 0)
(-0.122169 0.0058334 0)
(-0.128227 0.00570002 0)
(-0.134057 0.00551422 0)
(-0.139603 0.00527378 0)
(-0.144806 0.0049768 0)
(-0.149609 0.00462175 0)
(-0.153952 0.00420756 0)
(-0.157776 0.00373361 0)
(-0.161025 0.00319989 0)
(-0.163641 0.00260697 0)
(-0.165569 0.00195587 0)
(-0.166766 0.00124557 0)
(-0.167169 0.00049154 0)
(-0.166755 -0.000308262 0)
(-0.165475 -0.00115156 0)
(-0.163308 -0.00202669 0)
(-0.160234 -0.00292334 0)
(-0.156246 -0.00382997 0)
(-0.15135 -0.00473177 0)
(-0.145564 -0.00561256 0)
(-0.138925 -0.0064552 0)
(-0.131486 -0.00724095 0)
(-0.123316 -0.00795 0)
(-0.114503 -0.0085623 0)
(-0.105153 -0.00905844 0)
(-0.0953894 -0.00942067 0)
(-0.0853494 -0.00963393 0)
(-0.0751835 -0.00968701 0)
(-0.0650505 -0.00957356 0)
(-0.0551132 -0.00929301 0)
(-0.0455329 -0.0088511 0)
(-0.0364638 -0.00826014 0)
(-0.0280471 -0.00753871 0)
(-0.0204048 -0.0067109 0)
(-0.0136354 -0.00580505 0)
(-0.00780929 -0.00485215 0)
(-0.00296687 -0.00388397 0)
(0.000882413 -0.00293121 0)
(0.00375921 -0.00202183 0)
(0.0057118 -0.00117996 0)
(0.00681293 -0.000425422 0)
(0.00715597 0.000225521 0)
(0.00685274 0.000759154 0)
(0.00603045 0.00116155 0)
(0.00483524 0.00141331 0)
(0.00343341 0.00148786 0)
(0.00201487 0.00134893 0)
(0.000812176 0.000957997 0)
(7.29932e-05 0.000337791 0)
(-3.28748e-06 1.44606e-05 0)
(1.24154e-05 -1.91918e-05 0)
(7.49872e-05 -8.2262e-05 0)
(0.00019279 -0.000155326 0)
(0.000368537 -0.000228628 0)
(0.000600329 -0.000296998 0)
(0.00088353 -0.000357818 0)
(0.00121196 -0.000409848 0)
(0.00157862 -0.000452611 0)
(0.0019762 -0.000486071 0)
(0.00239734 -0.000510467 0)
(0.00283489 -0.000526221 0)
(0.00328202 -0.000533885 0)
(0.00373236 -0.000534106 0)
(0.00418007 -0.000527605 0)
(0.00461988 -0.000515154 0)
(0.00504716 -0.000497561 0)
(0.00545795 -0.00047565 0)
(0.00584893 -0.000450248 0)
(0.00621744 -0.000422166 0)
(0.00656151 -0.000392188 0)
(0.00687973 -0.000361055 0)
(0.00717132 -0.000329457 0)
(0.007436 -0.000298022 0)
(0.007674 -0.000267305 0)
(0.00788594 -0.000237786 0)
(0.00807281 -0.00020986 0)
(0.00823589 -0.000183834 0)
(0.00837665 -0.000159925 0)
(0.0084967 -0.000138257 0)
(0.0085977 -0.000118858 0)
(0.00868127 -0.00010166 0)
(0.00874893 -8.65002e-05 0)
(0.00880202 -7.31199e-05 0)
(0.00884157 -6.11672e-05 0)
(0.00886829 -5.0199e-05 0)
(0.00888246 -3.96847e-05 0)
(0.00888383 -2.90082e-05 0)
(0.00887163 -1.75071e-05 0)
(0.0088444 -4.39372e-06 0)
(0.00880004 1.11301e-05 0)
(0.00873569 2.99256e-05 0)
(0.00864775 5.28936e-05 0)
(0.00853179 8.09567e-05 0)
(0.00838257 0.000115055 0)
(0.00819403 0.000156139 0)
(0.00795926 0.000205153 0)
(0.00767053 0.000263043 0)
(0.00731927 0.00033074 0)
(0.00689611 0.000409168 0)
(0.00639086 0.000499243 0)
(0.00579256 0.00060187 0)
(0.00508945 0.000717956 0)
(0.00426901 0.000848417 0)
(0.00331811 0.000994012 0)
(0.00222276 0.00115573 0)
(0.000968218 0.00133445 0)
(-0.000460687 0.00153095 0)
(-0.00207963 0.0017459 0)
(-0.00390478 0.00197996 0)
(-0.00595247 0.00223359 0)
(-0.00823919 0.00250707 0)
(-0.0107812 0.00280046 0)
(-0.0135945 0.00311352 0)
(-0.0166942 0.00344572 0)
(-0.0200944 0.00379613 0)
(-0.0238077 0.0041634 0)
(-0.0278451 0.00454576 0)
(-0.0322151 0.00494091 0)
(-0.0369235 0.0053461 0)
(-0.0419732 0.00575806 0)
(-0.0473634 0.00617302 0)
(-0.0530895 0.00658675 0)
(-0.0591426 0.00699456 0)
(-0.0655094 0.00739141 0)
(-0.0721719 0.00777187 0)
(-0.0791073 0.0081303 0)
(-0.0862877 0.00846084 0)
(-0.0936806 0.00875752 0)
(-0.101249 0.00901439 0)
(-0.10895 0.00922552 0)
(-0.116738 0.00938513 0)
(-0.124563 0.00948764 0)
(-0.132371 0.00952776 0)
(-0.140105 0.0095005 0)
(-0.147704 0.00940124 0)
(-0.155108 0.00922577 0)
(-0.162252 0.00897031 0)
(-0.16907 0.00863159 0)
(-0.175496 0.00820682 0)
(-0.181463 0.00769377 0)
(-0.186905 0.00709085 0)
(-0.191756 0.00639716 0)
(-0.19595 0.00561256 0)
(-0.199426 0.00473782 0)
(-0.202122 0.00377467 0)
(-0.20398 0.00272573 0)
(-0.204953 0.00159337 0)
(-0.204987 0.000393824 0)
(-0.204045 -0.000871101 0)
(-0.20209 -0.0021949 0)
(-0.199103 -0.00356102 0)
(-0.195067 -0.00495407 0)
(-0.189981 -0.00635628 0)
(-0.183858 -0.00774552 0)
(-0.176725 -0.00909746 0)
(-0.168627 -0.0103865 0)
(-0.159626 -0.011585 0)
(-0.149803 -0.0126636 0)
(-0.139259 -0.0135929 0)
(-0.128112 -0.0143444 0)
(-0.1165 -0.0148919 0)
(-0.104577 -0.015213 0)
(-0.0925106 -0.015291 0)
(-0.0804773 -0.015116 0)
(-0.06866 -0.0146866 0)
(-0.057241 -0.0140105 0)
(-0.0463962 -0.0131053 0)
(-0.0362885 -0.0119976 0)
(-0.0270614 -0.0107228 0)
(-0.0188334 -0.0093228 0)
(-0.0116929 -0.007844 0)
(-0.005695 -0.00633462 0)
(-0.000859552 -0.00484188 0)
(0.00282831 -0.00340964 0)
(0.00541653 -0.00207649 0)
(0.00698313 -0.000875046 0)
(0.00763249 0.000167382 0)
(0.0074923 0.00102721 0)
(0.00671166 0.00168074 0)
(0.00546136 0.0020982 0)
(0.00393572 0.00224066 0)
(0.00235293 0.00205809 0)
(0.000977593 0.00149945 0)
(9.54837e-05 0.000574483 0)
(-1.67817e-06 1.0393e-05 0)
(2.85392e-05 -4.36578e-05 0)
(0.000115356 -0.000134267 0)
(0.000265753 -0.000237773 0)
(0.000481786 -0.00034162 0)
(0.000761263 -0.000438802 0)
(0.00109907 -0.000525578 0)
(0.00148836 -0.000600064 0)
(0.0019213 -0.000661462 0)
(0.00238964 -0.000709622 0)
(0.002885 -0.000744815 0)
(0.00339919 -0.000767594 0)
(0.00392437 -0.000778713 0)
(0.00445317 -0.00077908 0)
(0.00497883 -0.00076971 0)
(0.00549523 -0.000751705 0)
(0.00599698 -0.000726215 0)
(0.00647941 -0.00069442 0)
(0.00693863 -0.000657504 0)
(0.00737151 -0.000616631 0)
(0.00777565 -0.000572927 0)
(0.00814935 -0.000527456 0)
(0.0084916 -0.000481209 0)
(0.00880198 -0.000435088 0)
(0.00908063 -0.000389892 0)
(0.00932817 -0.000346307 0)
(0.00954561 -0.000304901 0)
(0.00973431 -0.00026611 0)
(0.00989583 -0.000230243 0)
(0.0100319 -0.00019747 0)
(0.0101442 -0.000167822 0)
(0.0102346 -0.000141192 0)
(0.0103046 -0.000117331 0)
(0.0103555 -9.58503e-05 0)
(0.0103884 -7.62253e-05 0)
(0.0104037 -5.77969e-05 0)
(0.0104017 -3.97779e-05 0)
(0.0103816 -2.12628e-05 0)
(0.0103424 -1.23883e-06 0)
(0.010282 2.14215e-05 0)
(0.0101976 4.79183e-05 0)
(0.0100854 7.95273e-05 0)
(0.00994102 0.00011758 0)
(0.00975869 0.000163447 0)
(0.0095319 0.000218523 0)
(0.00925308 0.000284218 0)
(0.00891366 0.000361939 0)
(0.00850405 0.000453086 0)
(0.00801369 0.000559046 0)
(0.00743104 0.000681188 0)
(0.00674358 0.000820866 0)
(0.00593786 0.000979416 0)
(0.00499954 0.00115816 0)
(0.00391342 0.00135834 0)
(0.00266333 0.00158134 0)
(0.00123244 0.00182833 0)
(-0.000396845 0.00210049 0)
(-0.00224274 0.00239893 0)
(-0.00432392 0.00272459 0)
(-0.00665942 0.00307823 0)
(-0.00926835 0.00346037 0)
(-0.0121697 0.00387123 0)
(-0.0153822 0.00431065 0)
(-0.0189235 0.00477804 0)
(-0.0228103 0.0052723 0)
(-0.0270576 0.00579173 0)
(-0.0316784 0.00633402 0)
(-0.036683 0.00689618 0)
(-0.0420788 0.00747449 0)
(-0.0478695 0.00806452 0)
(-0.0540548 0.0086611 0)
(-0.0606298 0.00925838 0)
(-0.0675848 0.00984983 0)
(-0.0749049 0.0104284 0)
(-0.0825696 0.0109863 0)
(-0.090553 0.0115157 0)
(-0.0988234 0.0120083 0)
(-0.107343 0.0124554 0)
(-0.11607 0.0128487 0)
(-0.124956 0.0131797 0)
(-0.133948 0.0134401 0)
(-0.142989 0.0136221 0)
(-0.152018 0.0137181 0)
(-0.160971 0.0137212 0)
(-0.16978 0.0136249 0)
(-0.178375 0.0134235 0)
(-0.186686 0.0131118 0)
(-0.19464 0.0126855 0)
(-0.202165 0.0121408 0)
(-0.209188 0.0114749 0)
(-0.215636 0.0106856 0)
(-0.221441 0.00977198 0)
(-0.226531 0.00873369 0)
(-0.230841 0.00757169 0)
(-0.234307 0.0062881 0)
(-0.236869 0.00488643 0)
(-0.238471 0.00337167 0)
(-0.239065 0.00175008 0)
(-0.238605 3.80535e-05 0)
(-0.237054 -0.00175743 0)
(-0.234383 -0.00362412 0)
(-0.230574 -0.00554127 0)
(-0.22562 -0.00748774 0)
(-0.219526 -0.00943917 0)
(-0.21231 -0.011366 0)
(-0.204005 -0.0132355 0)
(-0.194663 -0.0150132 0)
(-0.184353 -0.0166624 0)
(-0.173162 -0.0181441 0)
(-0.161198 -0.0194192 0)
(-0.148587 -0.0204496 0)
(-0.135474 -0.0212003 0)
(-0.122021 -0.0216413 0)
(-0.108404 -0.0217494 0)
(-0.0948131 -0.0215107 0)
(-0.0814419 -0.0209223 0)
(-0.068487 -0.0199931 0)
(-0.0561399 -0.0187454 0)
(-0.0445806 -0.0172137 0)
(-0.0339705 -0.0154446 0)
(-0.0244458 -0.013494 0)
(-0.0161123 -0.0114248 0)
(-0.00904044 -0.00930292 0)
(-0.00326286 -0.00719409 0)
(0.0012263 -0.00516027 0)
(0.00447043 -0.00325711 0)
(0.00654801 -0.00153268 0)
(0.00756911 -2.79671e-05 0)
(0.00767207 0.00122096 0)
(0.00702189 0.00217849 0)
(0.00580796 0.00280308 0)
(0.00424628 0.00304249 0)
(0.00257716 0.00283248 0)
(0.00109194 0.00210696 0)
(0.000111003 0.000850173 0)
(-4.20899e-08 1.87359e-06 0)
(4.55874e-05 -7.83534e-05 0)
(0.000157798 -0.000200827 0)
(0.00034151 -0.000338544 0)
(0.00059768 -0.000476434 0)
(0.000923633 -0.000605702 0)
(0.00131375 -0.000721434 0)
(0.00176059 -0.000821036 0)
(0.00225561 -0.000903322 0)
(0.00278975 -0.000967988 0)
(0.00335377 -0.00101531 0)
(0.0039386 -0.00104598 0)
(0.0045355 -0.00106094 0)
(0.00513625 -0.0010614 0)
(0.00573326 -0.00104869 0)
(0.00631967 -0.00102428 0)
(0.00688939 -0.0009897 0)
(0.00743715 -0.000946526 0)
(0.00795852 -0.000896344 0)
(0.00844991 -0.000840713 0)
(0.00890855 -0.000781141 0)
(0.00933244 -0.000719058 0)
(0.00972034 -0.000655793 0)
(0.0100717 -0.000592554 0)
(0.0103864 -0.000530413 0)
(0.0106652 -0.00047029 0)
(0.0109091 -0.00041294 0)
(0.0111193 -0.000358947 0)
(0.0112975 -0.000308716 0)
(0.0114454 -0.000262466 0)
(0.0115648 -0.000220226 0)
(0.0116575 -0.000181835 0)
(0.011725 -0.000146939 0)
(0.0117685 -0.000114994 0)
(0.011789 -8.52681e-05 0)
(0.0117868 -5.68451e-05 0)
(0.0117616 -2.86338e-05 0)
(0.0117126 6.20074e-07 0)
(0.011638 3.23227e-05 0)
(0.0115351 6.80285e-05 0)
(0.0114004 0.000109399 0)
(0.0112293 0.0001582 0)
(0.011016 0.000216274 0)
(0.0107539 0.000285518 0)
(0.0104349 0.000367866 0)
(0.0100498 0.000465271 0)
(0.00958853 0.000579682 0)
(0.0090395 0.000713042 0)
(0.00839015 0.000867269 0)
(0.00762675 0.00104426 0)
(0.00673444 0.00124587 0)
(0.00569734 0.00147394 0)
(0.0044985 0.00173026 0)
(0.00312001 0.00201658 0)
(0.00154301 0.00233461 0)
(-0.000252151 0.00268598 0)
(-0.00228589 0.00307221 0)
(-0.00457916 0.00349465 0)
(-0.00715336 0.00395444 0)
(-0.01003 0.00445241 0)
(-0.0132307 0.00498903 0)
(-0.0167763 0.00556431 0)
(-0.0206872 0.00617769 0)
(-0.0249824 0.00682799 0)
(-0.0296791 0.00751325 0)
(-0.0347923 0.00823072 0)
(-0.0403342 0.00897673 0)
(-0.0463136 0.00974666 0)
(-0.0527353 0.0105349 0)
(-0.0595995 0.0113349 0)
(-0.0669015 0.0121391 0)
(-0.074631 0.012939 0)
(-0.0827717 0.0137254 0)
(-0.0913012 0.0144881 0)
(-0.100191 0.0152167 0)
(-0.109406 0.0159 0)
(-0.118904 0.0165268 0)
(-0.128639 0.0170856 0)
(-0.138557 0.0175653 0)
(-0.148599 0.0179547 0)
(-0.158703 0.0182435 0)
(-0.168801 0.0184215 0)
(-0.178822 0.0184797 0)
(-0.188693 0.0184096 0)
(-0.198338 0.0182037 0)
(-0.20768 0.0178554 0)
(-0.216643 0.0173593 0)
(-0.225148 0.0167107 0)
(-0.233119 0.0159062 0)
(-0.240481 0.0149433 0)
(-0.247161 0.0138208 0)
(-0.253087 0.0125385 0)
(-0.258192 0.0110976 0)
(-0.26241 0.00950056 0)
(-0.26568 0.00775147 0)
(-0.267948 0.00585616 0)
(-0.269162 0.00382241 0)
(-0.269278 0.00166026 0)
(-0.268257 -0.000612942 0)
(-0.266065 -0.00298458 0)
(-0.262683 -0.00543689 0)
(-0.258099 -0.00794479 0)
(-0.252309 -0.0104813 0)
(-0.245324 -0.0130154 0)
(-0.237168 -0.0155106 0)
(-0.227878 -0.0179257 0)
(-0.217509 -0.0202178 0)
(-0.206134 -0.0223411 0)
(-0.193842 -0.0242471 0)
(-0.180742 -0.0258872 0)
(-0.166963 -0.0272136 0)
(-0.152651 -0.0281823 0)
(-0.137972 -0.028755 0)
(-0.123106 -0.0289018 0)
(-0.108247 -0.028604 0)
(-0.093596 -0.0278559 0)
(-0.0793591 -0.026667 0)
(-0.065739 -0.0250632 0)
(-0.0529287 -0.0230862 0)
(-0.0411049 -0.0207931 0)
(-0.0304201 -0.0182539 0)
(-0.0209965 -0.0155479 0)
(-0.0129206 -0.0127599 0)
(-0.00623936 -0.00997525 0)
(-0.000958411 -0.00727589 0)
(0.00295781 -0.00473671 0)
(0.00558431 -0.00242365 0)
(0.00703251 -0.000393925 0)
(0.00744703 0.00130153 0)
(0.00700283 0.00261348 0)
(0.00590374 0.00348674 0)
(0.00438199 0.00385505 0)
(0.00269559 0.00363896 0)
(0.00115827 0.00275428 0)
(0.000120284 0.00115071 0)
(1.53573e-06 -1.11919e-05 0)
(6.28062e-05 -0.000123583 0)
(0.000200823 -0.000282229 0)
(0.000418001 -0.000457674 0)
(0.000713837 -0.000632703 0)
(0.00108498 -0.000796862 0)
(0.00152524 -0.000944081 0)
(0.00202659 -0.00107102 0)
(0.00257987 -0.00117606 0)
(0.0031753 -0.00125872 0)
(0.00380291 -0.00131925 0)
(0.00445286 -0.00135847 0)
(0.00511564 -0.00137754 0)
(0.00578228 -0.00137797 0)
(0.00644448 -0.00136142 0)
(0.00709471 -0.00132977 0)
(0.00772626 -0.00128495 0)
(0.00833332 -0.00122898 0)
(0.00891099 -0.00116388 0)
(0.00945524 -0.00109164 0)
(0.00996295 -0.00101418 0)
(0.0104318 -0.000933341 0)
(0.0108604 -0.000850808 0)
(0.011248 -0.00076813 0)
(0.0115944 -0.000686673 0)
(0.0119001 -0.000607609 0)
(0.012166 -0.000531901 0)
(0.0123935 -0.000460287 0)
(0.0125842 -0.000393273 0)
(0.0127397 -0.000331124 0)
(0.0128618 -0.000273861 0)
(0.0129522 -0.000221254 0)
(0.0130124 -0.000172825 0)
(0.0130433 -0.000127846 0)
(0.0130458 -8.53425e-05 0)
(0.0130199 -4.41021e-05 0)
(0.0129649 -2.6823e-06 0)
(0.0128795 4.05742e-05 0)
(0.0127613 8.7525e-05 0)
(0.0126069 0.000140215 0)
(0.0124121 0.000200838 0)
(0.0121711 0.000271721 0)
(0.0118772 0.000355292 0)
(0.0115223 0.000454057 0)
(0.011097 0.000570565 0)
(0.0105905 0.000707393 0)
(0.00999096 0.000867115 0)
(0.00928488 0.00105229 0)
(0.00845765 0.00126544 0)
(0.00749336 0.00150907 0)
(0.00637485 0.00178559 0)
(0.00508379 0.00209742 0)
(0.0036007 0.00244686 0)
(0.00190509 0.00283615 0)
(-2.45496e-05 0.00326747 0)
(-0.00221051 0.00374283 0)
(-0.00467581 0.00426405 0)
(-0.00744391 0.00483274 0)
(-0.0105386 0.00545011 0)
(-0.0139835 0.00611698 0)
(-0.017802 0.00683362 0)
(-0.0220166 0.00759962 0)
(-0.0266485 0.00841381 0)
(-0.0317171 0.00927411 0)
(-0.0372395 0.0101774 0)
(-0.0432295 0.0111195 0)
(-0.0496975 0.0120949 0)
(-0.0566496 0.0130969 0)
(-0.0640866 0.0141177 0)
(-0.0720042 0.0151479 0)
(-0.0803917 0.016177 0)
(-0.089232 0.0171936 0)
(-0.0985012 0.0181852 0)
(-0.108168 0.0191382 0)
(-0.118196 0.0200388 0)
(-0.128538 0.0208725 0)
(-0.139144 0.021625 0)
(-0.149956 0.0222818 0)
(-0.160911 0.0228288 0)
(-0.171939 0.0232526 0)
(-0.182968 0.0235406 0)
(-0.193923 0.0236811 0)
(-0.204723 0.0236635 0)
(-0.21529 0.0234785 0)
(-0.225541 0.0231179 0)
(-0.235395 0.0225751 0)
(-0.244771 0.0218448 0)
(-0.253592 0.0209228 0)
(-0.261778 0.0198065 0)
(-0.269257 0.0184947 0)
(-0.275956 0.0169873 0)
(-0.281807 0.0152859 0)
(-0.286747 0.0133935 0)
(-0.290717 0.0113147 0)
(-0.29366 0.00905593 0)
(-0.295527 0.0066256 0)
(-0.296275 0.00403456 0)
(-0.295866 0.00129636 0)
(-0.294267 -0.00156974 0)
(-0.291452 -0.00454593 0)
(-0.287408 -0.00760939 0)
(-0.282126 -0.0107307 0)
(-0.27561 -0.0138772 0)
(-0.267873 -0.0170118 0)
(-0.258942 -0.0200914 0)
(-0.248856 -0.0230672 0)
(-0.237671 -0.0258878 0)
(-0.225457 -0.0284989 0)
(-0.212304 -0.0308431 0)
(-0.198319 -0.0328619 0)
(-0.183628 -0.0344984 0)
(-0.168375 -0.0356991 0)
(-0.152726 -0.0364172 0)
(-0.13686 -0.0366154 0)
(-0.120971 -0.0362691 0)
(-0.105265 -0.0353692 0)
(-0.0899531 -0.0339243 0)
(-0.0752463 -0.0319628 0)
(-0.0613484 -0.0295324 0)
(-0.0484491 -0.0267001 0)
(-0.0367159 -0.0235488 0)
(-0.0262869 -0.0201747 0)
(-0.0172649 -0.0166812 0)
(-0.00971209 -0.0131746 0)
(-0.00364744 -0.00975809 0)
(0.000954315 -0.00652765 0)
(0.00416165 -0.00356927 0)
(0.0060838 -0.000958681 0)
(0.00686769 0.00123627 0)
(0.00669434 0.00295041 0)
(0.00577753 0.00411374 0)
(0.0043617 0.00464486 0)
(0.0027191 0.00444779 0)
(0.00118189 0.00341745 0)
(0.000124371 0.00146354 0)
(3.01195e-06 -2.875e-05 0)
(7.97083e-05 -0.000179362 0)
(0.000243391 -0.000378472 0)
(0.000493715 -0.000594983 0)
(0.000828456 -0.000809941 0)
(0.0012434 -0.00101142 0)
(0.0017317 -0.00119226 0)
(0.00228473 -0.00134837 0)
(0.00289273 -0.00147769 0)
(0.00354532 -0.00157953 0)
(0.00423186 -0.00165411 0)
(0.00494185 -0.00170235 0)
(0.0056651 -0.00172566 0)
(0.006392 -0.00172583 0)
(0.00711362 -0.00170491 0)
(0.00782183 -0.00166517 0)
(0.00850941 -0.00160901 0)
(0.00917003 -0.00153889 0)
(0.00979836 -0.0014573 0)
(0.01039 -0.00136669 0)