/*--------------------------------*- C++ -*----------------------------------*\
  =========                 |
  \\      /  F ield         | OpenFOAM: The Open Source CFD Toolbox
   \\    /   O peration     | Website:  https://openfoam.org
    \\  /    A nd           | Version:  12
     \\/     M anipulation  |
\*---------------------------------------------------------------------------*/
FoamFile
{
    format      ascii;
    class       volScalarField;
    location    "9";
    object      epsilon;
}
// * * * * * * * * * * * * * * * * * * * * * * * * * * * * * * * * * * * * * //

dimensions      [0 2 -3 0 0 0 0];

internalField   nonuniform List<scalar> 
5625
(
2.52912e-07
1.71068e-06
3.80749e-06
6.29977e-06
9.07156e-06
1.20505e-05
1.5188e-05
1.8453e-05
2.18299e-05
2.53176e-05
2.8929e-05
3.26903e-05
3.664e-05
4.08288e-05
4.53176e-05
5.01777e-05
5.54888e-05
6.13389e-05
6.78226e-05
7.50408e-05
8.30993e-05
9.21079e-05
0.000102179
0.000113428
0.000125969
0.000139918
0.000155386
0.000172482
0.00019131
0.000211969
0.000234549
0.000259132
0.000285791
0.000314589
0.000345578
0.000378798
0.000414277
0.00045203
0.000492053
0.000534327
0.000578805
0.000625413
0.000674035
0.000724502
0.000776577
0.000829933
0.000884133
0.000938603
0.000992605
0.00104521
0.00109528
0.00114143
0.00118202
0.00121504
0.00123737
0.00124738
0.00124774
0.00123167
0.00119829
0.00114747
0.00107972
0.000996598
0.000900756
0.000795903
0.000686463
0.000577109
0.000472221
0.000375387
0.000289068
0.000214476
0.00015168
9.99199e-05
5.81004e-05
2.5537e-05
3.76137e-06
4.77887e-07
9.3176e-07
1.8669e-06
3.02211e-06
4.31977e-06
5.72004e-06
7.19809e-06
8.73857e-06
1.03338e-05
1.19832e-05
1.36927e-05
1.54747e-05
1.73475e-05
1.93349e-05
2.1466e-05
2.37744e-05
2.62983e-05
2.90793e-05
3.21628e-05
3.55969e-05
3.94323e-05
4.37217e-05
4.85196e-05
5.38814e-05
5.98632e-05
6.65208e-05
7.39096e-05
8.20836e-05
9.10951e-05
0.000100993
0.000111825
0.000123634
0.000136457
0.00015033
0.000165281
0.000181333
0.000198504
0.000216802
0.000236228
0.000256773
0.000278411
0.000301103
0.000324783
0.00034936
0.000374702
0.000400631
0.000426912
0.000453239
0.000479224
0.00050439
0.000528153
0.000549823
0.000568589
0.000583479
0.000593023
0.000596745
0.000595527
0.000586531
0.000569405
0.000544177
0.000511196
0.000471256
0.000425642
0.000376073
0.000324562
0.000273212
0.000223985
0.000178495
0.00013786
0.000102649
7.29318e-05
4.84225e-05
2.87455e-05
1.39806e-05
7.10052e-06
1.01531e-06
9.08076e-07
1.4389e-06
2.18771e-06
3.05767e-06
4.00905e-06
5.02044e-06
6.07951e-06
7.18025e-06
8.32192e-06
9.50855e-06
1.07487e-05
1.20551e-05
1.34444e-05
1.49372e-05
1.65571e-05
1.83313e-05
2.02894e-05
2.24641e-05
2.489e-05
2.76043e-05
3.06455e-05
3.40543e-05
3.78723e-05
4.21423e-05
4.69077e-05
5.22122e-05
5.80994e-05
6.46125e-05
7.17936e-05
7.96834e-05
8.83205e-05
9.77409e-05
0.000107977
0.000119058
0.000131008
0.000143843
0.000157574
0.000172201
0.000187711
0.000204078
0.000221256
0.000239176
0.00025774
0.000276816
0.000296232
0.000315767
0.000335149
0.000354042
0.000372053
0.000388722
0.000403526
0.000415875
0.000425056
0.000429978
0.000431004
0.000428
0.000419527
0.000405459
0.00038593
0.000361292
0.000332174
0.000299497
0.000264432
0.000228309
0.000192492
0.000158242
0.000126597
9.82811e-05
7.36846e-05
5.28991e-05
3.58377e-05
2.24911e-05
1.36497e-05
1.50256e-05
1.66139e-06
1.08854e-06
1.36127e-06
1.88683e-06
2.53925e-06
3.2714e-06
4.0603e-06
4.89367e-06
5.76562e-06
6.67511e-06
7.62521e-06
8.62279e-06
9.67824e-06
1.08053e-05
1.20208e-05
1.33447e-05
1.47996e-05
1.64107e-05
1.8206e-05
2.02156e-05
2.2472e-05
2.50098e-05
2.78658e-05
3.10785e-05
3.46884e-05
3.87373e-05
4.32685e-05
4.83263e-05
5.39556e-05
6.02015e-05
6.71087e-05
7.47203e-05
8.30772e-05
9.22169e-05
0.000102172
0.000112969
0.000124625
0.000137145
0.000150521
0.000164729
0.000179723
0.000195432
0.000211756
0.000228567
0.000245697
0.000262945
0.000280069
0.000296785
0.000312771
0.000327662
0.000341065
0.000352557
0.000361702
0.000367711
0.000370117
0.000369507
0.000365179
0.00035643
0.000343212
0.000325671
0.000304117
0.000279073
0.000251291
0.000221715
0.000191421
0.000161508
0.000132991
0.000106699
8.32106e-05
6.28478e-05
4.57236e-05
3.18791e-05
2.15889e-05
1.62885e-05
2.4411e-05
2.39675e-06
1.36886e-06
1.43516e-06
1.80256e-06
2.31297e-06
2.90934e-06
3.56537e-06
4.26759e-06
5.00961e-06
5.78999e-06
6.61124e-06
7.47939e-06
8.40376e-06
9.39676e-06
1.04738e-05
1.16531e-05
1.29558e-05
1.44057e-05
1.60294e-05
1.78563e-05
1.99182e-05
2.225e-05
2.48892e-05
2.78761e-05
3.12535e-05
3.5067e-05
3.93647e-05
4.41966e-05
4.96143e-05
5.56707e-05
6.24185e-05
6.99085e-05
7.81884e-05
8.73011e-05
9.7282e-05
0.000108156
0.000119932
0.000132604
0.000146144
0.000160497
0.000175582
0.000191288
0.000207469
0.000223946
0.000240511
0.000256927
0.000272936
0.000288257
0.000302589
0.000315625
0.000327047
0.000336543
0.000343808
0.00034798
0.000349251
0.000347919
0.000343214
0.000334678
0.000322203
0.000305826
0.000285754
0.000262399
0.000236405
0.000208641
0.000180131
0.000151952
0.00012511
0.000100428
7.8481e-05
5.95904e-05
4.38979e-05
3.15353e-05
2.30024e-05
2.03139e-05
3.48571e-05
3.20839e-06
1.71313e-06
1.5965e-06
1.83711e-06
2.24185e-06
2.74293e-06
3.30987e-06
3.92753e-06
4.58873e-06
5.29158e-06
6.03826e-06
6.83444e-06
7.68904e-06
8.61409e-06
9.62461e-06
1.07387e-05
1.19774e-05
1.33649e-05
1.49285e-05
1.66987e-05
1.87095e-05
2.09982e-05
2.36061e-05
2.65779e-05
2.99623e-05
3.38115e-05
3.81814e-05
4.31309e-05
4.87213e-05
5.5015e-05
6.20747e-05
6.99585e-05
7.8715e-05
8.83917e-05
9.90207e-05
0.000110616
0.000123171
0.000136651
0.000150993
0.000166099
0.00018184
0.000198053
0.000214538
0.000231072
0.000247414
0.000263314
0.000278522
0.0002928
0.000305904
0.000317611
0.00032771
0.000335994
0.000342279
0.000345855
0.000346971
0.000345882
0.000341746
0.000334117
0.000322754
0.000307524
0.000288455
0.000265816
0.00024017
0.000212369
0.000183501
0.000154759
0.000127295
0.000102066
7.97448e-05
6.0714e-05
4.51568e-05
3.32746e-05
2.5757e-05
2.51513e-05
4.60559e-05
4.08864e-06
2.10541e-06
1.81732e-06
1.94921e-06
2.2691e-06
2.69844e-06
3.20199e-06
3.76251e-06
4.37202e-06
5.02822e-06
5.7331e-06
6.4923e-06
7.31483e-06
8.21294e-06
9.20211e-06
1.03011e-05
1.15321e-05
1.29208e-05
1.44965e-05
1.62926e-05
1.83467e-05
2.07007e-05
2.34013e-05
2.65002e-05
3.00533e-05
3.41213e-05
3.877e-05
4.40687e-05
5.00888e-05
5.69025e-05
6.45816e-05
7.31909e-05
8.27883e-05
9.34124e-05
0.000105083
0.000117794
0.000131505
0.000146142
0.000161586
0.000177682
0.000194232
0.00021101
0.000227773
0.000244268
0.000260247
0.000275481
0.000289771
0.000302948
0.000314896
0.000325523
0.000334752
0.000342504
0.000348651
0.000352811
0.000354685
0.000354737
0.000352099
0.000346172
0.000336496
0.000322696
0.000304596
0.000282306
0.000256303
0.000227452
0.000196955
0.000166205
0.000136599
0.000109337
8.52844e-05
6.49492e-05
4.85851e-05
3.64562e-05
2.94234e-05
3.05271e-05
5.77859e-05
5.03337e-06
2.53777e-06
2.08334e-06
2.11784e-06
2.36654e-06
2.7395e-06
3.1965e-06
3.71826e-06
4.29573e-06
4.92625e-06
5.61178e-06
6.3582e-06
7.17497e-06
8.07507e-06
9.07503e-06
1.0195e-05
1.14591e-05
1.28955e-05
1.45366e-05
1.64197e-05
1.85874e-05
2.10875e-05
2.39737e-05
2.73061e-05
3.11507e-05
3.55794e-05
4.06688e-05
4.64997e-05
5.31548e-05
6.07156e-05
6.92571e-05
7.88471e-05
8.95373e-05
0.000101354
0.000114291
0.000128308
0.000143316
0.00015918
0.000175718
0.000192704
0.000209879
0.000226965
0.000243692
0.000259804
0.000275088
0.000289384
0.000302592
0.000314672
0.000325638
0.000335533
0.000344395
0.000352226
0.000358946
0.000364338
0.000368101
0.000369776
0.000369303
0.000365655
0.000358131
0.000346079
0.000329104
0.000307146
0.000280578
0.000250261
0.000217507
0.000183934
0.000151235
0.000120929
9.41596e-05
7.16334e-05
5.37195e-05
4.07583e-05
3.37764e-05
3.62907e-05
6.98914e-05
6.04079e-06
3.00615e-06
2.3866e-06
2.33097e-06
2.51829e-06
2.84586e-06
3.26857e-06
3.76486e-06
4.32471e-06
4.94514e-06
5.62821e-06
6.38026e-06
7.21149e-06
8.13601e-06
9.17184e-06
1.03411e-05
1.16706e-05
1.31916e-05
1.49409e-05
1.69611e-05
1.93006e-05
2.20147e-05
2.51657e-05
2.88226e-05
3.30623e-05
3.7968e-05
4.36282e-05
5.01347e-05
5.75799e-05
6.60515e-05
7.56272e-05
8.63687e-05
9.83122e-05
0.000111458
0.000125763
0.000141132
0.000157413
0.000174401
0.000191839
0.000209431
0.000226868
0.000243845
0.000260094
0.000275404
0.00028964
0.000302753
0.000314779
0.00032582
0.000336026
0.000345552
0.000354523
0.000362988
0.000370879
0.000377991
0.000384003
0.00038821
0.000389905
0.000388847
0.000383792
0.000373778
0.000358197
0.000336809
0.000309847
0.000278115
0.000242989
0.000206278
0.000169982
0.000135986
0.00010579
8.03768e-05
6.02959e-05
4.59981e-05
3.86881e-05
4.23542e-05
8.2271e-05
7.1107e-06
3.50855e-06
2.72248e-06
2.58143e-06
2.71465e-06
3.00519e-06
3.40313e-06
3.88444e-06
4.43812e-06
5.06093e-06
5.75519e-06
6.52784e-06
7.39015e-06
8.35764e-06
9.45035e-06
1.0693e-05
1.21155e-05
1.37534e-05
1.56482e-05
1.78483e-05
2.04096e-05
2.33954e-05
2.68774e-05
3.09355e-05
3.56578e-05
4.11391e-05
4.74794e-05
5.47803e-05
6.3141e-05
7.26515e-05
8.33846e-05
9.53873e-05
0.000108669
0.00012319
0.000138853
0.000155495
0.000172891
0.000190753
0.000208753
0.00022654
0.000243777
0.000260166
0.000275487
0.000289616
0.000302537
0.000314343
0.000325212
0.000335383
0.000345114
0.000354639
0.000364119
0.000373608
0.000383015
0.000392089
0.000400407
0.000407337
0.000411596
0.000412817
0.000410417
0.000402698
0.000388854
0.000368464
0.000341576
0.000308862
0.00027167
0.000231929
0.000191912
0.000153888
0.000119776
9.09288e-05
6.8153e-05
5.20668e-05
4.40844e-05
4.86694e-05
9.48802e-05
8.24407e-06
4.04429e-06
3.08835e-06
2.86475e-06
2.94934e-06
3.20952e-06
3.5905e-06
4.06551e-06
4.62262e-06
5.25837e-06
5.97544e-06
6.7816e-06
7.68938e-06
8.71612e-06
9.8842e-06
1.12214e-05
1.27614e-05
1.45443e-05
1.66175e-05
1.90361e-05
2.18638e-05
2.5173e-05
2.90458e-05
3.35733e-05
3.88548e-05
4.49969e-05
5.21093e-05
6.03015e-05
6.96751e-05
8.03163e-05
9.22844e-05
0.0001056
0.000120234
0.000136091
0.000153005
0.000170735
0.000188972
0.000207353
0.000225489
0.000243
0.000259553
0.000274903
0.000288921
0.000301606
0.000313087
0.000323603
0.000333463
0.000343009
0.000352567
0.000362394
0.000372646
0.000383344
0.000394348
0.000405348
0.000415849
0.000425163
0.000432251
0.000435503
0.000435596
0.000430399
0.000418678
0.000399841
0.000373706
0.000340727
0.000302114
0.000259804
0.000216268
0.000174145
0.000135826
0.00010312
7.71912e-05
5.88995e-05
4.99233e-05
5.52049e-05
0.000107673
9.44281e-06
4.61347e-06
3.48279e-06
3.17817e-06
3.21823e-06
3.45362e-06
3.82422e-06
4.30045e-06
4.86937e-06
5.5274e-06
6.27764e-06
7.12885e-06
8.09509e-06
9.19577e-06
1.0456e-05
1.1907e-05
1.35869e-05
1.55409e-05
1.78228e-05
2.0495e-05
2.36299e-05
2.73098e-05
3.16273e-05
3.66848e-05
4.2593e-05
4.94686e-05
5.74295e-05
6.65886e-05
7.7045e-05
8.88729e-05
0.000102108
0.000116733
0.000132664
0.000149739
0.000167712
0.000186256
0.000204981
0.000223461
0.00024127
0.000258034
0.000273468
0.00028742
0.000299886
0.000311015
0.000321081
0.00033045
0.000339531
0.000348721
0.00035836
0.000368686
0.00037981
0.000391698
0.000404156
0.000416827
0.000429177
0.000440493
0.00044994
0.000455684
0.000457579
0.000455092
0.000445875
0.00042919
0.000404599
0.000372256
0.00033311
0.000288974
0.000242402
0.000196352
0.00015371
0.000116833
8.73528e-05
6.6461e-05
5.61857e-05
6.19483e-05
0.00012064
1.07095e-05
5.21683e-06
3.90526e-06
3.51998e-06
3.51858e-06
3.73393e-06
4.09991e-06
4.58405e-06
5.17239e-06
5.86119e-06
6.65413e-06
7.56106e-06
8.59779e-06
9.78608e-06
1.11541e-05
1.2737e-05
1.45776e-05
1.6727e-05
1.92457e-05
2.22043e-05
2.56842e-05
2.97778e-05
3.45886e-05
4.023e-05
4.68231e-05
5.44928e-05
6.33619e-05
7.3542e-05
8.51226e-05
9.81567e-05
0.000112645
0.00012852
0.000145631
0.000163736
0.000182503
0.000201523
0.000220335
0.000238472
0.000255507
0.00027111
0.000285086
0.000297411
0.00030823
0.000317837
0.000326637
0.000335091
0.000343654
0.000352729
0.000362624
0.000373523
0.000385472
0.000398373
0.00041199
0.000425943
0.000439703
0.000452593
0.000463851
0.000472026
0.000475627
0.000475635
0.000469247
0.000455274
0.00043302
0.000402279
0.000363634
0.000318621
0.000269731
0.000220146
0.000173238
0.000131984
9.86066e-05
7.47389e-05
6.28697e-05
6.89018e-05
0.000133797
1.20475e-05
5.85549e-06
4.35577e-06
3.88928e-06
3.84864e-06
4.0481e-06
4.41457e-06
4.91276e-06
5.52756e-06
6.25511e-06
7.09969e-06
8.07243e-06
9.19102e-06
1.04799e-05
1.19705e-05
1.37024e-05
1.57234e-05
1.8091e-05
2.08729e-05
2.41483e-05
2.80079e-05
3.25544e-05
3.79019e-05
4.41739e-05
5.15005e-05
6.0012e-05
6.98317e-05
8.10639e-05
9.37803e-05
0.000108003
0.000123685
0.000140698
0.000158813
0.000177704
0.000196951
0.000216071
0.000234557
0.00025193
0.000267802
0.000281926
0.000294234
0.000304848
0.000314064
0.000322308
0.00033008
0.000337885
0.000346179
0.000355325
0.000365565
0.000377006
0.000389625
0.000403271
0.000417682
0.000432485
0.00044719
0.000461184
0.000473761
0.000483883
0.000489717
0.000491492
0.000488163
0.00047734
0.000458117
0.000429902
0.000392827
0.000348011
0.000297706
0.000245178
0.000194228
0.000148503
0.000110938
8.37394e-05
6.99864e-05
7.60781e-05
0.000147172
1.34606e-05
6.53097e-06
4.83476e-06
4.2857e-06
4.20745e-06
4.39453e-06
4.76618e-06
5.28416e-06
5.9321e-06
6.706e-06
7.61079e-06
8.65897e-06
9.87032e-06
1.12721e-05
1.28995e-05
1.47965e-05
1.70167e-05
1.9624e-05
2.26939e-05
2.63142e-05
3.05851e-05
3.56195e-05
4.15413e-05
4.84832e-05
5.65812e-05
6.5968e-05
7.6762e-05
8.90533e-05
0.000102887
0.000118243
0.000135018
0.000153009
0.000171906
0.000191294
0.000210677
0.000229516
0.000247284
0.00026353
0.00027794
0.000290388
0.000300952
0.000309907
0.000317684
0.00032481
0.000331832
0.000339256
0.000347494
0.000356833
0.000367434
0.000379321
0.000392407
0.000406507
0.000421353
0.000436603
0.000451827
0.000466504
0.000480032
0.000491531
0.000499598
0.000503028
0.000502508
0.000495095
0.000479408
0.000454493
0.000419988
0.000376476
0.000325791
0.000271091
0.000216492
0.000166324
0.00012434
9.34784e-05
7.75561e-05
8.3497e-05
0.000160805
1.49529e-05
7.24504e-06
5.34301e-06
4.70931e-06
4.59454e-06
4.77229e-06
5.15347e-06
5.69671e-06
6.38421e-06
7.2118e-06
8.18508e-06
9.31803e-06
1.06326e-05
1.21592e-05
1.3937e-05
1.60146e-05
1.84516e-05
2.13187e-05
2.46994e-05
2.86902e-05
3.34008e-05
3.89535e-05
4.54811e-05
5.31231e-05
6.20192e-05
7.22996e-05
8.4072e-05
9.74044e-05
0.000112306
0.000128705
0.000146432
0.000165204
0.000184624
0.000204199
0.000223369
0.000241566
0.000258276
0.000273113
0.000285874
0.000296574
0.000305447
0.000312907
0.000319493
0.000325788
0.000332346
0.000339634
0.000347983
0.000357587
0.000368521
0.000380736
0.000394094
0.000408392
0.000423374
0.000438733
0.000454116
0.000469102
0.000483197
0.000495645
0.000505565
0.000511089
0.000512589
0.000508642
0.000496757
0.000475681
0.00044458
0.000403422
0.000353451
0.000297497
0.000239818
0.000185367
0.000138812
0.000103977
8.56053e-05
9.11826e-05
0.00017474
1.65291e-05
7.99969e-06
5.88154e-06
5.16047e-06
5.00984e-06
5.18093e-06
5.57577e-06
6.14951e-06
6.88281e-06
7.77123e-06
8.82107e-06
1.00478e-05
1.14758e-05
1.31387e-05
1.50796e-05
1.73525e-05
2.00228e-05
2.31685e-05
2.68808e-05
3.1265e-05
3.64397e-05
4.25359e-05
4.96936e-05
5.80569e-05
6.77652e-05
7.89413e-05
9.16756e-05
0.000106006
0.000121897
0.000139217
0.000157722
0.000177047
0.000196714
0.00021616
0.000234786
0.000252025
0.000267412
0.000280659
0.000291698
0.000300697
0.000308036
0.000314247
0.000319934
0.000325713
0.000332103
0.00033945
0.000348017
0.000357924
0.000369154
0.000381595
0.000395077
0.000409391
0.000424305
0.000439561
0.000454873
0.000469915
0.000484288
0.000497367
0.000508474
0.000516177
0.000519338
0.000518426
0.000510346
0.000493362
0.000466247
0.000428344
0.000380165
0.000323981
0.000263949
0.000205529
0.00015434
0.000115257
9.41635e-05
9.91612e-05
0.000189021
1.81943e-05
8.79713e-06
6.45158e-06
5.63984e-06
5.45357e-06
5.62037e-06
6.03282e-06
6.64217e-06
7.42736e-06
8.38362e-06
9.51787e-06
1.08472e-05
1.23984e-05
1.42084e-05
1.63247e-05
1.88066e-05
2.17255e-05
2.51667e-05
2.92291e-05
3.40264e-05
3.96854e-05
4.63444e-05
5.41488e-05
6.32442e-05
7.37656e-05
8.58228e-05
9.9482e-05
0.000114744
0.000131519
0.00014961
0.000168694
0.000188327
0.000207958
0.000226976
0.000244767
0.000260795
0.000274682
0.00028626
0.000295613
0.000303057
0.000309099
0.000314356
0.000319526
0.000325075
0.000331469
0.000339045
0.000347949
0.00035818
0.000369683
0.00038229
0.000395813
0.000410048
0.000424796
0.00043985
0.000454982
0.000469946
0.000484409
0.000497838
0.000509657
0.000519
0.000523976
0.000525141
0.000520636
0.000507692
0.000484838
0.000450855
0.000405445
0.000350098
0.000288589
0.000226671
0.000170898
0.000127339
0.000103261
0.000107459
0.000203689
1.99538e-05
9.63977e-06
7.05453e-06
6.14825e-06
5.92623e-06
6.09089e-06
6.52472e-06
7.17468e-06
8.01778e-06
9.04873e-06
1.02751e-05
1.17154e-05
1.33992e-05
1.53667e-05
1.76699e-05
2.03732e-05
2.35547e-05
2.73062e-05
3.17346e-05
3.6961e-05
4.31196e-05
5.03544e-05
5.88137e-05
6.86411e-05
7.99626e-05
9.28694e-05
0.000107397
0.0001235
0.000141032
0.000159723
0.000179174
0.000198865
0.00021819
0.00023651
0.000253228
0.000267872
0.000280172
0.000290102
0.000297897
0.000304008
0.000309049
0.000313752
0.000318579
0.000324141
0.000330798
0.00033876
0.000348072
0.000358678
0.000370459
0.00038322
0.000396767
0.000410914
0.000425489
0.000440326
0.000455244
0.000470053
0.000484474
0.000498052
0.00051031
0.000520574
0.000527299
0.000529869
0.000528312
0.000519073
0.000500422
0.000470725
0.000428872
0.0003754
0.000313393
0.000248613
0.000188435
0.000140236
0.000112923
0.0001161
0.000218781
2.18132e-05
1.05301e-05
7.69194e-06
6.68672e-06
6.42856e-06
6.59298e-06
7.05187e-06
7.74738e-06
8.65431e-06
9.76668e-06
1.10925e-05
1.26521e-05
1.44772e-05
1.66118e-05
1.91124e-05
2.20486e-05
2.55046e-05
2.95793e-05
3.43863e-05
4.00538e-05
4.6722e-05
5.45385e-05
6.36518e-05
7.41999e-05
8.62947e-05
0.000100003
0.000115324
0.000132161
0.000150303
0.00016941
0.000189008
0.000208517
0.000227292
0.000244691
0.000260163
0.000273329
0.000284044
0.000292433
0.000298871
0.00030393
0.000308354
0.000312643
0.000317484
0.000323317
0.000330413
0.000338872
0.000348656
0.00035971
0.00037181
0.000384763
0.000398379
0.000412492
0.000426955
0.00044163
0.000456375
0.000471033
0.000485363
0.000498961
0.000511414
0.000522131
0.0005301
0.000533812
0.000534217
0.000528125
0.000513294
0.000487908
0.000450132
0.000399458
0.000337989
0.000271132
0.000206876
0.000153951
0.000123171
0.000125106
0.000234325
2.37785e-05
1.1471e-05
8.3655e-06
7.25642e-06
6.96146e-06
7.12739e-06
7.61492e-06
8.36085e-06
9.33744e-06
1.05378e-05
1.19704e-05
1.36568e-05
1.56316e-05
1.79421e-05
2.06494e-05
2.38284e-05
2.75691e-05
3.19769e-05
3.71719e-05
4.32881e-05
5.047e-05
5.88668e-05
6.8624e-05
7.98699e-05
9.2698e-05
0.000107145
0.000123168
0.000140615
0.00015921
0.000178543
0.000198076
0.000217181
0.000235197
0.000251508
0.000265632
0.000277302
0.000286515
0.000293536
0.000298863
0.000303247
0.000307197
0.000311461
0.00031657
0.000322879
0.000330547
0.000339581
0.000349983
0.000361538
0.000374018
0.000387234
0.000401005
0.000415178
0.000429629
0.000444246
0.00045891
0.000473487
0.000487751
0.000501328
0.000513832
0.00052471
0.000533268
0.000537942
0.000539337
0.000535631
0.000523959
0.000502562
0.000469058
0.000421905
0.000361989
0.000293962
0.000226109
0.000168479
0.000134013
0.000134494
0.000250344
2.58562e-05
1.24652e-05
9.07703e-06
7.85865e-06
7.52594e-06
7.69503e-06
8.21472e-06
9.01591e-06
1.00679e-05
1.13626e-05
1.29087e-05
1.47292e-05
1.68612e-05
1.93555e-05
2.22775e-05
2.57074e-05
2.97408e-05
3.44889e-05
4.00775e-05
4.6645e-05
5.43386e-05
6.33066e-05
7.36883e-05
8.55982e-05
9.91069e-05
0.000114217
0.000130837
0.000148761
0.000167646
0.000187018
0.000206288
0.000224798
0.000241892
0.000257005
0.000269748
0.000279979
0.000287834
0.000293711
0.000298298
0.000302128
0.00030599
0.000310493
0.00031609
0.000323024
0.000331356
0.000341162
0.000352236
0.00036435
0.000377289
0.000390856
0.000404879
0.000419223
0.000433781
0.000448464
0.000463171
0.00047778
0.000492072
0.000505674
0.000518196
0.0005291
0.000537779
0.000542898
0.000544748
0.000542477
0.000533097
0.000515051
0.000485657
0.000442469
0.00038502
0.000316808
0.000245993
0.000183805
0.000145434
0.000144281
0.00026685
2.80533e-05
1.3516e-05
9.82849e-06
8.49481e-06
8.12316e-06
8.29697e-06
8.85231e-06
9.71353e-06
1.08465e-05
1.22416e-05
1.39076e-05
1.58689e-05
1.81647e-05
2.08496e-05
2.3993e-05
2.768e-05
3.20115e-05
3.71038e-05
4.30874e-05
5.01039e-05
5.83009e-05
6.78233e-05
7.88007e-05
9.13305e-05
0.000105456
0.000121142
0.000138247
0.000156507
0.00017552
0.000194757
0.000213588
0.000231348
0.000247408
0.000261275
0.000272667
0.000281574
0.000288266
0.000293316
0.000297289
0.000300952
0.000304996
0.000309969
0.000316218
0.000323873
0.000333101
0.000343721
0.00035552
0.000368268
0.000381741
0.000395742
0.00041011
0.000424727
0.000439507
0.00045438
0.000469262
0.000484045
0.000498504
0.000512255
0.000524869
0.000535774
0.000544354
0.000549433
0.000551347
0.000549575
0.00054151
0.000525922
0.000500124
0.000461009
0.000406752
0.000339355
0.000266348
0.000199876
0.000157435
0.000154473
0.000283849
3.0377e-05
1.46266e-05
1.06219e-05
9.16641e-06
8.7544e-06
8.93441e-06
9.52886e-06
1.04548e-05
1.16742e-05
1.31756e-05
1.49674e-05
1.70751e-05
1.95406e-05
2.24214e-05
2.5791e-05
2.97392e-05
3.43715e-05
3.98086e-05
4.61845e-05
5.36423e-05
6.2328e-05
7.23803e-05
8.39165e-05
9.70128e-05
0.000111682
0.000127848
0.00014532
0.000163778
0.000182765
0.000201708
0.000219956
0.000236851
0.000251816
0.000264444
0.00027457
0.000282316
0.000288089
0.000292492
0.000296198
0.000299963
0.000304426
0.00031005
0.000317039
0.000325675
0.000335828
0.000347311
0.000359895
0.000373335
0.0003874
0.000401898
0.00041668
0.000431648
0.000446738
0.000461907
0.000477092
0.000492195
0.000506994
0.000521079
0.00053396
0.00054498
0.000553427
0.000558159
0.000559857
0.000557791
0.000550056
0.000535866
0.000512837
0.000477537
0.000426933
0.000361288
0.000286966
0.00021661
0.000170015
0.000165077
0.00030134
3.2834e-05
1.58001e-05
1.14593e-05
9.87504e-06
9.42105e-06
9.60869e-06
1.02457e-05
1.1241e-05
1.2552e-05
1.41649e-05
1.60878e-05
1.83471e-05
2.09867e-05
2.40673e-05
2.76662e-05
3.18773e-05
3.68102e-05
4.25891e-05
4.93501e-05
5.72361e-05
6.63896e-05
7.69406e-05
8.89906e-05
0.000102592
0.000117726
0.000134272
0.000151992
0.000170513
0.000189334
0.000207849
0.000225401
0.000241362
0.00025522
0.000266665
0.000275655
0.000282426
0.000287536
0.000291545
0.000295251
0.000299356
0.00030444
0.000310782
0.000318794
0.000328435
0.000339556
0.000351948
0.000365355
0.000379518
0.000394205
0.000409229
0.000424459
0.000439819
0.000455276
0.000470815
0.000486406
0.00050197
0.000517291
0.000531933
0.000545338
0.000556729
0.00056517
0.000569478
0.000570808
0.00056788
0.00055958
0.000545661
0.000524332
0.000492231
0.000445412
0.000382315
0.000307618
0.000233908
0.000183159
0.000176091
0.000319313
3.5432e-05
1.70399e-05
1.2343e-05
1.06224e-05
1.01246e-05
1.03213e-05
1.10042e-05
1.20733e-05
1.34808e-05
1.52103e-05
1.72689e-05
1.96837e-05
2.25006e-05
2.57832e-05
2.96125e-05
3.40857e-05
3.93159e-05
4.54297e-05
5.25642e-05
6.08604e-05
7.04549e-05
8.14667e-05
9.39793e-05
0.000108019
0.000123532
0.000140358
0.00015821
0.000176671
0.000195203
0.000213182
0.000229964
0.000244963
0.000257745
0.000268108
0.000276128
0.000282179
0.000286787
0.000290688
0.000294632
0.000299283
0.00030504
0.000312403
0.00032147
0.00033215
0.000344274
0.000357594
0.000371831
0.000386718
0.000402021
0.000417563
0.000433234
0.000448986
0.000464823
0.000480771
0.000496839
0.00051298
0.000528997
0.000544437
0.000558674
0.000570818
0.000579504
0.000583567
0.000584513
0.000580432
0.000570851
0.000556116
0.000535266
0.000505429
0.000462163
0.000402192
0.000328061
0.000251655
0.000196834
0.000187511
0.000337757
3.8179e-05
1.83498e-05
1.32753e-05
1.14102e-05
1.08667e-05
1.10737e-05
1.18058e-05
1.29532e-05
1.44618e-05
1.63121e-05
1.851e-05
2.10831e-05
2.40792e-05
2.75644e-05
3.16227e-05
3.63546e-05
4.18756e-05
4.8314e-05
5.5806e-05
6.44893e-05
7.44928e-05
8.59221e-05
9.88409e-05
0.000113248
0.000129055
0.00014606
0.000163936
0.000182226
0.000200369
0.000217735
0.000233707
0.000247756
0.000259534
0.000268946
0.000276166
0.000281683
0.000286072
0.000290096
0.000294483
0.000299752
0.000306467
0.000314903
0.000325048
0.000336796
0.000349928
0.000364164
0.000379209
0.000394784
0.000410659
0.000426672
0.000442735
0.000458839
0.000475031
0.000491389
0.00050797
0.00052477
0.000541628
0.000558092
0.000573477
0.000586783
0.000596222
0.000600387
0.000601071
0.00059584
0.000584506
0.000568006
0.000546368
0.000517607
0.000477298
0.000420739
0.000348057
0.000269714
0.000210996
0.000199327
0.00035665
4.10833e-05
1.97334e-05
1.42585e-05
1.22404e-05
1.1649e-05
1.18676e-05
1.26523e-05
1.38819e-05
1.54958e-05
1.74705e-05
1.98104e-05
2.25435e-05
2.57189e-05
2.94052e-05
3.36891e-05
3.86735e-05
4.44759e-05
5.12246e-05
5.90541e-05
6.80971e-05
7.84728e-05
9.02721e-05
0.000103537
0.000118239
0.000134255
0.000151346
0.000169147
0.000187174
0.00020485
0.000221558
0.000236714
0.000249859
0.000260737
0.000269354
0.000276
0.000281167
0.000285558
0.000289907
0.000294833
0.00030096
0.000308733
0.000318254
0.000329501
0.000342312
0.000356427
0.00037154
0.000387335
0.000403529
0.000419898
0.000436299
0.000452674
0.000469055
0.000485543
0.000502272
0.000519364
0.000536869
0.000554675
0.000572353
0.000589176
0.00060404
0.000614912
0.000619696
0.000620373
0.000614281
0.000601013
0.000582019
0.000558384
0.000529346
0.00049106
0.000437865
0.000367381
0.000287933
0.000225592
0.000211525
0.000375971
4.41537e-05
2.11946e-05
1.52952e-05
1.3115e-05
1.24734e-05
1.27047e-05
1.35452e-05
1.4861e-05
1.65838e-05
1.86858e-05
2.11693e-05
2.40624e-05
2.74156e-05
3.12996e-05
3.58032e-05
4.10313e-05
4.71022e-05
5.41437e-05
6.22871e-05
7.16583e-05
8.2366e-05
9.44846e-05
0.000108034
0.000122959
0.000139102
0.000156193
0.000173835
0.000191526
0.000208685
0.000224715
0.000239082
0.000251399
0.000261501
0.00026949
0.000275729
0.000280785
0.000285377
0.000290166
0.000295831
0.000302965
0.000311798
0.000322427
0.000334768
0.00034861
0.000363657
0.000379574
0.000396033
0.000412749
0.000429507
0.000446186
0.000462766
0.000479326
0.000496023
0.000513059
0.000530627
0.000548841
0.000567653
0.000586686
0.000605191
0.000621969
0.000634989
0.000641077
0.000642134
0.000635715
0.000620644
0.000598712
0.000572025
0.000541297
0.000503814
0.000453577
0.000385838
0.000306149
0.000240554
0.000224083
0.000395689
4.73995e-05
2.27377e-05
1.6388e-05
1.40359e-05
1.33417e-05
1.3587e-05
1.44862e-05
1.58917e-05
1.77265e-05
1.99576e-05
2.25852e-05
2.56371e-05
2.91648e-05
3.32409e-05
3.79559e-05
4.34162e-05
4.97401e-05
5.70536e-05
6.54838e-05
7.51489e-05
8.61456e-05
9.85313e-05
0.000112304
0.000127381
0.000143577
0.000160592
0.000178008
0.000195309
0.000211924
0.000227286
0.000240917
0.000252505
0.000261973
0.000269507
0.000275535
0.00028067
0.000285585
0.000290988
0.000297576
0.000305717
0.000315639
0.000327369
0.00034077
0.000355585
0.000371484
0.00038811
0.000405123
0.000422241
0.000439263
0.000456097
0.000472761
0.000489386
0.000506192
0.000523451
0.00054143
0.000560319
0.000580152
0.00060062
0.000620991
0.000640003
0.000655732
0.000663987
0.000665933
0.000659904
0.000643467
0.000618481
0.000587923
0.000554132
0.000516026
0.000467986
0.000403277
0.000324191
0.000255806
0.000236978
0.000415769
5.08302e-05
2.43668e-05
1.75396e-05
1.50055e-05
1.42559e-05
1.45163e-05
1.54772e-05
1.69757e-05
1.89248e-05
2.12859e-05
2.40566e-05
2.72643e-05
3.09614e-05
3.52219e-05
4.01379e-05
4.58162e-05
5.23748e-05
5.99368e-05
6.86242e-05
7.85466e-05
8.97877e-05
0.000102388
0.000116325
0.000131489
0.000147671
0.000164547
0.000181684
0.000198564
0.000214633
0.000229362
0.000242332
0.000253307
0.00026229
0.000269544
0.00027554
0.000280874
0.000286284
0.000292502
0.00030002
0.000309204
0.000320211
0.00033301
0.000347412
0.000363119
0.000379769
0.000396988
0.00041443
0.000431819
0.000448972
0.00046583
0.000482455
0.000499031
0.000515841
0.000533227
0.000551534
0.000571037
0.000591854
0.000613775
0.000636123
0.000657647
0.000676389
0.000687801
0.000691263
0.000686437
0.000669354
0.00064154
0.000606597
0.000568501
0.000528233
0.000481304
0.000419601
0.00034189
0.000271261
0.000250175
0.000436172
5.44561e-05
2.60866e-05
1.8753e-05
1.60258e-05
1.52182e-05
1.54947e-05
1.65201e-05
1.81141e-05
2.01791e-05
2.267e-05
2.55816e-05
2.89405e-05
3.27999e-05
3.72351e-05
4.23393e-05
4.82194e-05
5.49919e-05
6.27768e-05
7.16898e-05
8.18314e-05
9.32723e-05
0.000106036
0.00012008
0.000135273
0.000151384
0.000168072
0.000184896
0.000201344
0.000216885
0.000231037
0.000243439
0.000253927
0.000262574
0.000269693
0.000275787
0.000281515
0.000287617
0.00029467
0.000303162
0.000313394
0.00032546
0.000339272
0.000354594
0.00037109
0.000388375
0.00040606
0.000423797
0.000441321
0.000458475
0.000475233
0.000491703
0.000508123
0.000524837
0.000542255
0.0005608
0.000580831
0.000602558
0.000625887
0.000650229
0.000674389
0.000696388
0.000711851
0.000717595
0.000714769
0.000697997
0.000667922
0.000628424
0.000585001
0.000541009
0.000493835
0.000434781
0.000359083
0.000286826
0.000263638
0.00045685
5.82877e-05
2.79016e-05
2.0031e-05
1.70994e-05
1.62308e-05
1.65243e-05
1.76166e-05
1.93084e-05
2.149e-05
2.41094e-05
2.7158e-05
3.06617e-05
3.46746e-05
3.9273e-05
4.45505e-05
5.06139e-05
5.75778e-05
6.55583e-05
7.46643e-05
8.49868e-05
9.65837e-05
0.000109463
0.000123563
0.000138734
0.000154729
0.000171193
0.000187687
0.000203711
0.000218764
0.00023241
0.00024435
0.000254484
0.000262943
0.000270076
0.000276438
0.000282725
0.000289559
0.000297501
0.000306984
0.000318244
0.000331319
0.000346067
0.000362211
0.000379382
0.000397175
0.000415193
0.000433092
0.000450622
0.000467656
0.000484204
0.00050042
0.000516594
0.000533126
0.00055049
0.000569182
0.000589642
0.000612178
0.000636815
0.000663087
0.000689886
0.00071524
0.000735409
0.000744452
0.000744259
0.000728938
0.000697477
0.000653622
0.000604138