/*--------------------------------*- C++ -*----------------------------------*\
  =========                 |
  \\      /  F ield         | OpenFOAM: The Open Source CFD Toolbox
   \\    /   O peration     | Website:  https://openfoam.org
    \\  /    A nd           | Version:  12
     \\/     M anipulation  |
\*---------------------------------------------------------------------------*/
FoamFile
{
    format      ascii;
    class       volScalarField;
    location    "9";
    object      nut;
}
// * * * * * * * * * * * * * * * * * * * * * * * * * * * * * * * * * * * * * //

dimensions      [0 2 -1 0 0 0 0];

internalField   nonuniform List<scalar> 
5625
(
4.48965e-15
3.03676e-14
6.75897e-14
1.11832e-13
1.61037e-13
2.13919e-13
2.69615e-13
3.27575e-13
3.87521e-13
4.49434e-13
5.13544e-13
5.80313e-13
6.5043e-13
7.24788e-13
8.04474e-13
8.9075e-13
9.85034e-13
1.08889e-12
1.20399e-12
1.33212e-12
1.47518e-12
1.6351e-12
1.81389e-12
2.01359e-12
2.23622e-12
2.48384e-12
2.75843e-12
3.06193e-12
3.39618e-12
3.76292e-12
4.16377e-12
4.60018e-12
5.07344e-12
5.58468e-12
6.13481e-12
6.72455e-12
7.35439e-12
8.02459e-12
8.7351e-12
9.48556e-12
1.02752e-11
1.11026e-11
1.19657e-11
1.28616e-11
1.37861e-11
1.47333e-11
1.56955e-11
1.66625e-11
1.76212e-11
1.85551e-11
1.94439e-11
2.02632e-11
2.09838e-11
2.15698e-11
2.19663e-11
2.2144e-11
2.21505e-11
2.18651e-11
2.12725e-11
2.03703e-11
1.91677e-11
1.7692e-11
1.59906e-11
1.41292e-11
1.21864e-11
1.02451e-11
8.38304e-12
6.66401e-12
5.13165e-12
3.80745e-12
2.69267e-12
1.77381e-12
1.03142e-12
4.53341e-13
6.67732e-14
1.35734e-13
4.42186e-12
1.10986e-11
1.88314e-11
2.73505e-11
3.64679e-11
4.60469e-11
5.59976e-11
6.62745e-11
7.68753e-11
8.78396e-11
9.92472e-11
1.11216e-10
1.23899e-10
1.37483e-10
1.52181e-10
1.68236e-10
1.85912e-10
2.05497e-10
2.27292e-10
2.51616e-10
2.78797e-10
3.09172e-10
3.4308e-10
3.80863e-10
4.22856e-10
4.69388e-10
5.20772e-10
5.77308e-10
6.39272e-10
7.06916e-10
7.80464e-10
8.60112e-10
9.46023e-10
1.03833e-09
1.13712e-09
1.24246e-09
1.35438e-09
1.47286e-09
1.59784e-09
1.7292e-09
1.86674e-09
2.01018e-09
2.15909e-09
2.31286e-09
2.47067e-09
2.63136e-09
2.79341e-09
2.95484e-09
3.11308e-09
3.26495e-09
3.40652e-09
3.53302e-09
3.63857e-09
3.71333e-09
3.74841e-09
3.75728e-09
3.71547e-09
3.62083e-09
3.47251e-09
3.27156e-09
3.02225e-09
2.73257e-09
2.41395e-09
2.08027e-09
1.74633e-09
1.426e-09
1.13064e-09
8.67939e-10
6.41542e-10
4.51411e-10
2.94751e-10
1.67315e-10
6.54879e-11
2.01682e-12
2.88377e-13
2.36769e-11
7.61251e-11
1.38093e-10
2.05482e-10
2.76938e-10
3.5155e-10
4.28698e-10
5.08066e-10
5.89656e-10
6.7378e-10
7.61057e-10
8.52392e-10
9.48958e-10
1.05217e-09
1.16366e-09
1.28526e-09
1.41895e-09
1.56688e-09
1.7313e-09
1.91455e-09
2.11902e-09
2.34717e-09
2.60141e-09
2.88416e-09
3.19774e-09
3.54439e-09
3.92621e-09
4.34513e-09
4.80287e-09
5.30094e-09
5.84063e-09
6.42301e-09
7.04889e-09
7.71885e-09
8.4333e-09
9.19244e-09
9.99631e-09
1.08448e-08
1.17376e-08
1.26742e-08
1.36538e-08
1.46752e-08
1.57363e-08
1.68343e-08
1.79647e-08
1.91213e-08
2.02951e-08
2.1474e-08
2.26416e-08
2.37767e-08
2.48522e-08
2.58347e-08
2.66858e-08
2.7328e-08
2.76626e-08
2.78543e-08
2.76569e-08
2.70565e-08
2.60393e-08
2.46048e-08
2.27791e-08
2.06205e-08
1.82175e-08
1.56814e-08
1.31325e-08
1.06847e-08
8.43062e-09
6.43213e-09
4.71671e-09
3.28044e-09
2.09531e-09
1.12085e-09
3.47232e-10
4.26785e-12
4.71882e-13
5.55493e-11
2.28485e-10
4.56469e-10
7.06782e-10
9.70421e-10
1.24358e-09
1.52408e-09
1.81086e-09
2.10398e-09
2.40459e-09
2.7149e-09
3.03815e-09
3.37847e-09
3.74082e-09
4.1309e-09
4.55499e-09
5.0199e-09
5.53287e-09
6.10141e-09
6.73321e-09
7.43605e-09
8.21766e-09
9.08556e-09
1.0047e-08
1.11088e-08
1.22773e-08
1.35579e-08
1.49557e-08
1.64745e-08
1.81176e-08
1.98875e-08
2.1786e-08
2.3814e-08
2.59724e-08
2.82613e-08
3.06811e-08
3.32323e-08
3.59154e-08
3.87313e-08
4.16809e-08
4.47654e-08
4.79856e-08
5.13409e-08
5.48283e-08
5.8441e-08
6.21661e-08
6.59827e-08
6.98594e-08
7.37506e-08
7.75921e-08
8.12977e-08
8.47531e-08
8.78996e-08
9.03473e-08
9.17405e-08
9.28033e-08
9.25257e-08
9.08582e-08
8.77374e-08
8.31395e-08
7.71371e-08
6.99218e-08
6.18001e-08
5.31646e-08
4.44456e-08
3.60529e-08
2.83215e-08
2.14733e-08
1.56032e-08
1.06883e-08
6.61797e-09
3.26779e-09
8.06799e-10
6.93365e-12
6.80747e-13
9.37749e-11
4.63249e-10
1.02492e-09
1.66753e-09
2.34748e-09
3.04842e-09
3.76295e-09
4.4879e-09
5.22324e-09
5.97178e-09
6.73899e-09
7.53279e-09
8.36327e-09
9.24242e-09
1.01838e-08
1.12023e-08
1.23138e-08
1.35347e-08
1.48821e-08
1.63727e-08
1.80232e-08
1.98498e-08
2.18676e-08
2.40906e-08
2.65313e-08
2.92005e-08
3.21071e-08
3.52579e-08
3.86579e-08
4.23102e-08
4.62167e-08
5.03787e-08
5.47963e-08
5.94697e-08
6.44001e-08
6.95899e-08
7.50432e-08
8.07666e-08
8.67684e-08
9.30589e-08
9.96496e-08
1.06554e-07
1.13783e-07
1.21342e-07
1.29228e-07
1.37426e-07
1.45898e-07
1.54586e-07
1.63392e-07
1.72177e-07
1.80741e-07
1.88813e-07
1.9638e-07
2.02232e-07
2.05717e-07
2.08557e-07
2.08302e-07
2.04832e-07
1.98034e-07
1.87844e-07
1.74422e-07
1.58203e-07
1.39879e-07
1.20339e-07
1.00559e-07
8.14761e-08
6.38576e-08
4.82165e-08
3.47719e-08
2.34684e-08
1.40655e-08
6.42389e-09
1.34583e-09
9.90072e-12
9.11275e-13
1.35535e-10
7.56966e-10
1.83329e-09
3.14169e-09
4.55126e-09
6.00555e-09
7.47982e-09
8.96383e-09
1.0456e-08
1.19612e-08
1.34903e-08
1.50586e-08
1.6686e-08
1.83958e-08
2.02138e-08
2.2168e-08
2.42878e-08
2.66032e-08
2.91439e-08
3.19394e-08
3.50173e-08
3.84037e-08
4.21218e-08
4.61922e-08
5.06321e-08
5.54549e-08
6.06706e-08
6.62854e-08
7.23026e-08
7.87225e-08
8.55466e-08
9.27811e-08
1.00423e-07
1.08475e-07
1.16944e-07
1.25841e-07
1.35181e-07
1.44987e-07
1.55283e-07
1.66098e-07
1.77464e-07
1.89416e-07
2.01986e-07
2.15194e-07
2.29044e-07
2.43513e-07
2.58536e-07
2.74006e-07
2.89745e-07
3.05485e-07
3.20854e-07
3.35331e-07
3.48805e-07
3.5921e-07
3.65263e-07
3.70015e-07
3.69272e-07
3.6269e-07
3.50218e-07
3.31831e-07
3.07868e-07
2.79117e-07
2.46786e-07
2.1239e-07
1.77584e-07
1.43951e-07
1.12801e-07
8.50217e-08
6.1004e-08
4.06743e-08
2.36988e-08
1.01636e-08
1.91606e-09
1.30816e-11
1.16129e-12
1.79997e-10
1.08919e-09
2.83666e-09
5.10328e-09
7.61284e-09
1.02204e-08
1.28574e-08
1.54936e-08
1.81204e-08
2.0744e-08
2.33817e-08
2.60599e-08
2.88121e-08
3.16773e-08
3.46985e-08
3.79214e-08
4.13929e-08
4.51599e-08
4.92681e-08
5.37608e-08
5.86781e-08
6.40557e-08
6.99243e-08
7.63106e-08
8.32358e-08
9.07135e-08
9.87532e-08
1.0736e-07
1.16536e-07
1.26278e-07
1.36587e-07
1.4746e-07
1.58908e-07
1.70942e-07
1.83583e-07
1.96857e-07
2.10803e-07
2.25466e-07
2.40901e-07
2.5717e-07
2.74339e-07
2.92463e-07
3.11593e-07
3.31763e-07
3.52973e-07
3.75177e-07
3.98267e-07
4.22016e-07
4.46087e-07
4.69993e-07
4.93076e-07
5.14523e-07
5.33674e-07
5.48536e-07
5.56376e-07
5.61638e-07
5.58729e-07
5.46869e-07
5.26382e-07
4.97407e-07
4.6056e-07
4.17051e-07
3.68627e-07
3.1742e-07
2.65728e-07
2.15747e-07
1.69306e-07
1.27661e-07
9.1387e-08
6.04297e-08
3.4478e-08
1.41358e-08
2.4984e-09
1.64134e-11
1.42962e-12
2.26982e-10
1.44783e-09
3.9858e-09
7.47932e-09
1.14706e-08
1.56669e-08
1.99131e-08
2.41353e-08
2.83069e-08
3.24311e-08
3.65325e-08
4.06508e-08
4.48375e-08
4.91522e-08
5.36602e-08
5.84294e-08
6.35282e-08
6.90242e-08
7.49816e-08
8.14595e-08
8.85109e-08
9.61819e-08
1.0451e-07
1.13524e-07
1.23245e-07
1.33689e-07
1.44865e-07
1.56778e-07
1.69429e-07
1.82825e-07
1.96967e-07
2.1186e-07
2.27526e-07
2.43991e-07
2.61295e-07
2.79488e-07
2.98635e-07
3.18809e-07
3.40096e-07
3.62588e-07
3.86377e-07
4.11542e-07
4.38144e-07
4.66209e-07
4.95705e-07
5.26518e-07
5.58414e-07
5.91001e-07
6.23705e-07
6.55749e-07
6.86142e-07
7.13708e-07
7.37172e-07
7.5422e-07
7.62341e-07
7.65616e-07
7.58242e-07
7.3873e-07
7.08175e-07
6.66983e-07
6.16085e-07
5.57095e-07
4.92223e-07
4.24108e-07
3.55566e-07
2.89284e-07
2.27518e-07
1.71833e-07
1.22972e-07
8.0932e-08
4.55409e-08
1.81292e-08
3.08424e-09
1.98518e-11
1.71576e-12
2.76513e-10
1.82718e-09
5.24294e-09
1.01859e-08
1.60116e-08
2.22245e-08
2.85305e-08
3.47778e-08
4.09031e-08
4.68991e-08
5.2796e-08
5.86498e-08
6.45346e-08
7.05364e-08
7.67479e-08
8.32647e-08
9.01813e-08
9.75883e-08
1.0557e-07
1.14205e-07
1.23559e-07
1.3369e-07
1.44644e-07
1.56458e-07
1.69155e-07
1.82753e-07
1.97264e-07
2.12694e-07
2.29051e-07
2.46344e-07
2.64586e-07
2.83794e-07
3.04004e-07
3.2526e-07
3.47623e-07
3.71168e-07
3.95984e-07
4.22172e-07
4.49846e-07
4.79122e-07
5.10108e-07
5.42892e-07
5.77523e-07
6.13986e-07
6.52169e-07
6.91824e-07
7.32528e-07
7.73635e-07
8.14268e-07
8.53299e-07
8.89372e-07
9.20946e-07
9.46344e-07
9.63157e-07
9.68022e-07
9.67557e-07
9.53596e-07
9.24547e-07
8.82658e-07
8.28628e-07
7.63657e-07
6.89667e-07
6.09209e-07
5.25277e-07
4.41057e-07
3.59605e-07
2.83503e-07
2.14569e-07
1.53692e-07
1.00941e-07
5.63458e-08
2.20356e-08
3.66884e-09
2.33681e-11
2.01964e-12
3.28683e-10
2.22517e-09
6.58407e-09
1.31513e-08
2.11133e-08
2.97293e-08
3.85144e-08
4.71978e-08
5.56554e-08
6.3858e-08
7.18388e-08
7.96724e-08
8.74605e-08
9.53211e-08
1.03381e-07
1.11768e-07
1.20609e-07
1.30024e-07
1.40122e-07
1.51e-07
1.62745e-07
1.75427e-07
1.89104e-07
2.03818e-07
2.19601e-07
2.36476e-07
2.54461e-07
2.73567e-07
2.93808e-07
3.15203e-07
3.37773e-07
3.6155e-07
3.86582e-07
4.12931e-07
4.40676e-07
4.69911e-07
5.00748e-07
5.33311e-07
5.67732e-07
6.04142e-07
6.42652e-07
6.83335e-07
7.26194e-07
7.71127e-07
8.17882e-07
8.6601e-07
9.14821e-07
9.63359e-07
1.0104e-06
1.05446e-06
1.09387e-06
1.12681e-06
1.15142e-06
1.16558e-06
1.16446e-06
1.15749e-06
1.13655e-06
1.09686e-06
1.04321e-06
9.76575e-07
8.98299e-07
8.10501e-07
7.15933e-07
6.17802e-07
5.19535e-07
4.24451e-07
3.35391e-07
2.54389e-07
1.82478e-07
1.1981e-07
6.66235e-08
2.58079e-08
4.2492e-09
2.69496e-11
2.34155e-12
3.83621e-10
2.64162e-09
7.99641e-09
1.63243e-08
2.66692e-08
3.80178e-08
4.9648e-08
6.11284e-08
7.2247e-08
8.29397e-08
9.3239e-08
1.0324e-07
1.13078e-07
1.2291e-07
1.32903e-07
1.43226e-07
1.54044e-07
1.65509e-07
1.77762e-07
1.90924e-07
2.05103e-07
2.20386e-07
2.36845e-07
2.54533e-07
2.73491e-07
2.93751e-07
3.15336e-07
3.38265e-07
3.62559e-07
3.88244e-07
4.15348e-07
4.43915e-07
4.74002e-07
5.05682e-07
5.39048e-07
5.74209e-07
6.11292e-07
6.50438e-07
6.91789e-07
7.3548e-07
7.81604e-07
8.3019e-07
8.81155e-07
9.34255e-07
9.89035e-07
1.04478e-06
1.10048e-06
1.15485e-06
1.20632e-06
1.25312e-06
1.29337e-06
1.32514e-06
1.34657e-06
1.35585e-06
1.3475e-06
1.33146e-06
1.30336e-06
1.25336e-06
1.1881e-06
1.10956e-06
1.01911e-06
9.18936e-07
8.11877e-07
7.01237e-07
5.90578e-07
4.834e-07
3.82759e-07
2.90895e-07
2.08996e-07
1.37319e-07
7.6287e-08
2.94341e-08
4.82518e-09
3.05832e-11
2.68203e-12
4.4148e-10
3.07736e-09
9.47501e-09
1.96741e-08
3.26001e-08
4.69521e-08
6.17324e-08
7.6311e-08
9.03615e-08
1.03771e-07
1.16569e-07
1.28874e-07
1.40859e-07
1.52729e-07
1.64699e-07
1.76986e-07
1.89799e-07
2.0333e-07
2.17753e-07
2.33222e-07
2.49865e-07
2.67792e-07
2.8709e-07
3.07827e-07
3.30053e-07
3.53809e-07
3.79123e-07
4.06022e-07
4.3453e-07
4.64676e-07
4.96493e-07
5.30028e-07
5.65341e-07
6.02513e-07
6.41643e-07
6.8285e-07
7.26274e-07
7.72065e-07
8.20371e-07
8.71311e-07
9.24945e-07
9.81219e-07
1.03992e-06
1.1006e-06
1.16256e-06
1.22476e-06
1.28588e-06
1.34428e-06
1.39815e-06
1.44554e-06
1.48447e-06
1.51305e-06
1.52954e-06
1.5324e-06
1.51606e-06
1.49081e-06
1.45316e-06
1.39515e-06
1.31868e-06
1.22907e-06
1.12756e-06
1.01634e-06
8.98241e-07
7.76577e-07
6.54963e-07
5.37022e-07
4.25987e-07
3.24308e-07
2.33352e-07
1.53506e-07
8.53563e-08
3.29215e-08
5.39759e-09
3.42664e-11
3.04182e-12
5.02435e-10
3.53369e-09
1.10199e-08
2.31859e-08
3.88549e-08
5.64306e-08
7.46088e-08
9.25278e-08
1.09724e-07
1.26025e-07
1.41452e-07
1.56153e-07
1.70345e-07
1.84287e-07
1.98253e-07
2.12513e-07
2.27326e-07
2.4293e-07
2.59538e-07
2.77336e-07
2.96481e-07
3.17104e-07
3.3931e-07
3.6318e-07
3.88776e-07
4.16144e-07
4.45319e-07
4.76327e-07
5.09192e-07
5.43941e-07
5.80605e-07
6.19226e-07
6.59865e-07
7.026e-07
7.47536e-07
7.94801e-07
8.44544e-07
8.96923e-07
9.52081e-07
1.01011e-06
1.07102e-06
1.13462e-06
1.20053e-06
1.26806e-06
1.33621e-06
1.40363e-06
1.46868e-06
1.52946e-06
1.584e-06
1.63026e-06
1.66632e-06
1.6904e-06
1.70097e-06
1.69653e-06
1.67195e-06
1.63803e-06
1.58982e-06
1.52431e-06
1.43811e-06
1.33805e-06
1.22634e-06
1.10507e-06
9.77021e-07
8.45461e-07
7.13998e-07
5.86322e-07
4.65817e-07
3.55139e-07
2.55866e-07
1.68543e-07
9.39043e-08
3.62874e-08
5.96791e-09
3.80034e-11
3.42185e-12
5.6668e-10
4.01223e-09
1.26342e-08
2.68562e-08
4.54063e-08
6.6388e-08
8.8164e-08
1.09614e-07
1.3012e-07
1.49439e-07
1.67587e-07
1.84741e-07
2.01174e-07
2.17205e-07
2.33171e-07
2.49406e-07
2.66224e-07
2.83913e-07
3.02727e-07
3.22888e-07
3.44584e-07
3.67967e-07
3.9316e-07
4.20258e-07
4.4933e-07
4.80427e-07
5.13582e-07
5.48819e-07
5.86155e-07
6.25605e-07
6.67192e-07
7.1095e-07
7.56931e-07
8.05214e-07
8.55907e-07
9.09148e-07
9.651e-07
1.02393e-06
1.08576e-06
1.15066e-06
1.21853e-06
1.28905e-06
1.3616e-06
1.43523e-06
1.50862e-06
1.58014e-06
1.64787e-06
1.70977e-06
1.76376e-06
1.80785e-06
1.8402e-06
1.8592e-06
1.86352e-06
1.85153e-06
1.81895e-06
1.77703e-06
1.71866e-06
1.64359e-06
1.55042e-06
1.44016e-06
1.31866e-06
1.18786e-06
1.05049e-06
9.09734e-07
7.69144e-07
6.32434e-07
5.03101e-07
3.84e-07
2.76941e-07
1.8266e-07
1.02024e-07
3.95537e-08
6.53803e-09
4.18025e-11
3.8232e-12
6.34427e-10
4.51479e-09
1.43229e-08
3.06892e-08
5.22466e-08
7.67902e-08
1.02328e-07
1.2746e-07
1.51398e-07
1.73825e-07
1.94753e-07
2.14395e-07
2.33083e-07
2.51207e-07
2.69176e-07
2.87389e-07
3.06221e-07
3.26014e-07
3.47066e-07
3.69637e-07
3.93943e-07
4.2016e-07
4.48427e-07
4.78849e-07
5.115e-07
5.46429e-07
5.83663e-07
6.23217e-07
6.65091e-07
7.09287e-07
7.55811e-07
8.04683e-07
8.55948e-07
9.09686e-07
9.66014e-07
1.02509e-06
1.08709e-06
1.15219e-06
1.22052e-06
1.29206e-06
1.3666e-06
1.44365e-06
1.52233e-06
1.60142e-06
1.67929e-06
1.75408e-06
1.82369e-06
1.88597e-06
1.93885e-06
1.9804e-06
2.00891e-06
2.02289e-06
2.02116e-06
2.00178e-06
1.96167e-06
1.91212e-06
1.84438e-06
1.75879e-06
1.65885e-06
1.53924e-06
1.40784e-06
1.2675e-06
1.12094e-06
9.71219e-07
8.21824e-07
6.76451e-07
5.38666e-07
4.11492e-07
2.96982e-07
1.96093e-07
1.09817e-07
4.27437e-08
7.1101e-09
4.56749e-11
4.24706e-12
7.05906e-10
5.04331e-09
1.60923e-08
3.46941e-08
5.93812e-08
8.76275e-08
1.17065e-07
1.45999e-07
1.73461e-07
1.99059e-07
2.22802e-07
2.44948e-07
2.65896e-07
2.86113e-07
3.06084e-07
3.26282e-07
3.47145e-07
3.6907e-07
3.92402e-07
4.17437e-07
4.4442e-07
4.73548e-07
5.04974e-07
5.38808e-07
5.75125e-07
6.13966e-07
6.55348e-07
6.99264e-07
7.45697e-07
7.94625e-07
8.46034e-07
8.99931e-07
9.56359e-07
1.0154e-06
1.0772e-06
1.14194e-06
1.20983e-06
1.28106e-06
1.35571e-06
1.43373e-06
1.51474e-06
1.59804e-06
1.68252e-06
1.76665e-06
1.84856e-06
1.9262e-06
1.99741e-06
2.05995e-06
2.11179e-06
2.15107e-06
2.17616e-06
2.18569e-06
2.17855e-06
2.1523e-06
2.10529e-06
2.04873e-06
1.97186e-06
1.87566e-06
1.76629e-06
1.63916e-06
1.49716e-06
1.34671e-06
1.19054e-06
1.03163e-06
8.73351e-07
7.19367e-07
5.73253e-07
4.38157e-07
3.16361e-07
2.09061e-07
1.17378e-07
4.588e-08
7.68624e-09
4.96329e-11
4.69476e-12
7.81361e-10
5.59981e-09
1.79491e-08
3.88838e-08
6.6825e-08
9.89074e-08
1.32368e-07
1.65203e-07
1.96259e-07
2.25069e-07
2.51646e-07
2.763e-07
2.99504e-07
3.21811e-07
3.43786e-07
3.65979e-07
3.88896e-07
4.12986e-07
4.38644e-07
4.662e-07
4.95927e-07
5.2804e-07
5.627e-07
6.0002e-07
6.40068e-07
6.82873e-07
7.2843e-07
7.7671e-07
8.27667e-07
8.81256e-07
9.37442e-07
9.96223e-07
1.05765e-06
1.12182e-06
1.18892e-06
1.25917e-06
1.33282e-06
1.41007e-06
1.491e-06
1.57543e-06
1.66284e-06
1.75233e-06
1.84241e-06
1.93134e-06
2.01731e-06
2.09802e-06
2.1711e-06
2.23435e-06
2.28579e-06
2.32357e-06
2.34611e-06
2.35204e-06
2.34028e-06
2.30767e-06
2.25422e-06
2.19108e-06
2.10493e-06
1.99888e-06
1.8777e-06
1.74259e-06
1.58972e-06
1.42803e-06
1.26134e-06
1.09254e-06
9.24912e-07
7.62056e-07
6.07502e-07
4.64459e-07
3.35397e-07
2.21756e-07
1.24796e-07
4.89835e-08
8.26844e-09
5.36891e-11
5.16772e-12
8.61054e-10
6.18645e-09
1.99008e-08
4.32735e-08
7.4599e-08
1.1065e-07
1.48249e-07
1.85072e-07
2.19775e-07
2.51824e-07
2.81242e-07
3.08398e-07
3.33852e-07
3.58242e-07
3.82225e-07
4.06426e-07
4.31419e-07
4.57712e-07
4.85742e-07
5.15876e-07
5.48408e-07
5.83567e-07
6.21522e-07
6.62379e-07
7.06195e-07
7.52978e-07
8.02697e-07
8.55293e-07
9.10691e-07
9.68819e-07
1.02963e-06
1.09312e-06
1.15935e-06
1.22847e-06
1.30072e-06
1.37638e-06
1.45575e-06
1.53905e-06
1.6263e-06
1.71724e-06
1.81116e-06
1.90655e-06
2.00245e-06
2.09684e-06
2.1873e-06
2.27153e-06
2.34731e-06
2.41223e-06
2.46434e-06
2.50177e-06
2.52288e-06
2.52626e-06
2.51073e-06
2.47219e-06
2.41251e-06
2.34297e-06
2.24735e-06
2.13141e-06
1.99781e-06
1.85159e-06
1.68846e-06
1.51384e-06
1.33525e-06
1.15543e-06
9.77589e-07
8.05289e-07
6.41961e-07
4.90784e-07
3.54356e-07
2.3434e-07
1.32142e-07
5.20724e-08
8.8584e-09
5.78554e-11
5.66746e-12
9.45258e-10
6.80545e-09
2.19553e-08
4.78795e-08
8.27281e-08
1.22883e-07
1.64734e-07
2.05622e-07
2.44016e-07
2.79319e-07
3.11576e-07
3.41224e-07
3.68914e-07
3.95382e-07
4.21373e-07
4.47594e-07
4.74689e-07
5.03219e-07
5.33665e-07
5.66424e-07
6.01811e-07
6.40065e-07
6.81352e-07
7.25771e-07
7.73358e-07
8.24095e-07
8.77921e-07
9.34742e-07
9.94453e-07
1.05696e-06
1.12221e-06
1.19021e-06
1.26108e-06
1.33501e-06
1.41232e-06
1.49337e-06
1.57851e-06
1.66799e-06
1.76179e-06
1.85945e-06
1.95967e-06
2.06214e-06
2.16451e-06
2.26472e-06
2.3604e-06
2.44925e-06
2.52882e-06
2.59671e-06
2.65087e-06
2.68932e-06
2.71027e-06
2.71218e-06
2.69376e-06
2.64984e-06
2.58416e-06
2.50826e-06
2.40282e-06
2.27616e-06
2.13017e-06
1.96971e-06
1.79537e-06
1.6064e-06
1.41406e-06
1.22168e-06
1.0324e-06
8.49772e-07
6.77104e-07
5.17456e-07
3.73454e-07
2.46943e-07
1.39477e-07
5.51623e-08
9.45749e-09
6.2142e-11
6.19559e-12
1.03426e-09
7.45911e-09
2.41205e-08
5.27193e-08
9.12395e-08
1.35642e-07
1.81856e-07
2.26883e-07
2.69005e-07
3.07571e-07
3.42657e-07
3.74781e-07
4.04691e-07
4.33226e-07
4.61225e-07
4.89477e-07
5.18693e-07
5.4949e-07
5.82386e-07
6.17807e-07
6.56084e-07
6.97459e-07
7.42093e-07
7.90068e-07
8.41396e-07
8.96027e-07
9.53865e-07
1.01478e-06
1.07864e-06
1.14535e-06
1.21485e-06
1.28718e-06
1.36253e-06
1.44118e-06
1.52353e-06
1.61006e-06
1.70118e-06
1.79713e-06
1.89778e-06
2.00214e-06
2.11029e-06
2.22008e-06
2.32959e-06
2.4366e-06
2.53876e-06
2.63369e-06
2.71837e-06
2.79076e-06
2.8485e-06
2.88939e-06
2.91146e-06
2.91294e-06
2.89237e-06
2.84359e-06
2.77221e-06
2.68949e-06
2.57399e-06
2.43585e-06
2.27675e-06
2.10039e-06
1.91197e-06
1.70777e-06
1.49948e-06
1.29266e-06
1.09034e-06
8.96177e-07
7.13362e-07
5.44746e-07
3.92866e-07
2.59668e-07
1.46846e-07
5.82677e-08
1.00667e-08
6.65573e-11
6.7538e-12
1.12836e-09
8.14982e-09
2.64048e-08
5.78109e-08
1.00162e-07
1.48962e-07
1.99656e-07
2.48892e-07
2.94774e-07
3.36604e-07
3.74504e-07
4.09081e-07
4.41192e-07
4.7178e-07
5.01782e-07
5.32072e-07
5.63424e-07
5.96507e-07
6.31878e-07
6.69984e-07
7.11167e-07
7.55668e-07
8.03636e-07
8.55131e-07
9.10136e-07
9.68565e-07
1.03029e-06
1.09514e-06
1.16297e-06
1.23368e-06
1.30724e-06
1.38376e-06
1.46349e-06
1.54685e-06
1.63435e-06
1.72658e-06
1.824e-06
1.92688e-06
2.03439e-06
2.14718e-06
2.26344e-06
2.38146e-06
2.49918e-06
2.61439e-06
2.72474e-06
2.82683e-06
2.91835e-06
2.9969e-06
3.05978e-06
3.10453e-06
3.12889e-06
3.13084e-06
3.10871e-06
3.05551e-06
2.97868e-06
2.88846e-06
2.76265e-06
2.61226e-06
2.43904e-06
2.24608e-06
2.04019e-06
1.81966e-06
1.59309e-06
1.36968e-06
1.15239e-06
9.45173e-07
7.51151e-07
5.72901e-07
4.12739e-07
2.726e-07
1.5428e-07
6.14031e-08
1.06866e-08
7.11072e-11
7.34391e-12
1.22786e-09
8.88005e-09
2.88168e-08
6.3173e-08
1.09527e-07
1.62882e-07
2.18173e-07
2.7169e-07
3.21359e-07
3.66451e-07
4.07144e-07
4.44147e-07
4.78431e-07
5.11053e-07
5.4305e-07
5.75374e-07
6.08869e-07
6.44249e-07
6.82104e-07
7.229e-07
7.66984e-07
8.14592e-07
8.65854e-07
9.20804e-07
9.79391e-07
1.04149e-06
1.10694e-06
1.17556e-06
1.24717e-06
1.3217e-06
1.39917e-06
1.47977e-06
1.56387e-06
1.65201e-06
1.74487e-06
1.84312e-06
1.94732e-06
2.05707e-06
2.17336e-06
2.29484e-06
2.42017e-06
2.54753e-06
2.67493e-06
2.80016e-06
2.91949e-06
3.03058e-06
3.13076e-06
3.21709e-06
3.28659e-06
3.33647e-06
3.36415e-06
3.36733e-06
3.34414e-06
3.28682e-06
3.20428e-06
3.10623e-06
2.96979e-06
2.8064e-06
2.61801e-06
2.40776e-06
2.18262e-06
1.94319e-06
1.69634e-06
1.45399e-06
1.21954e-06
9.97452e-07
7.90895e-07
6.02159e-07
4.33202e-07
2.85804e-07
1.61793e-07
6.45871e-08
1.13174e-08
7.57956e-11
7.96798e-12
1.33304e-09
9.65232e-09
3.13654e-08
6.88251e-08
1.19363e-07
1.77441e-07
2.37452e-07
2.95319e-07
3.48798e-07
3.97143e-07
4.40603e-07
4.79998e-07
5.16424e-07
5.51055e-07
5.85027e-07
6.19377e-07
6.55009e-07
6.92683e-07
7.33018e-07
7.76491e-07
8.2345e-07
8.74121e-07
9.28611e-07
9.86924e-07
1.04897e-06
1.1146e-06
1.18361e-06
1.2558e-06
1.33102e-06
1.4092e-06
1.49047e-06
1.57511e-06
1.66364e-06
1.75677e-06
1.8553e-06
1.96003e-06
2.07113e-06
2.18959e-06
2.31486e-06
2.44598e-06
2.5815e-06
2.71966e-06
2.8586e-06
2.99434e-06
3.12462e-06
3.24657e-06
3.35699e-06
3.45258e-06
3.53001e-06
3.5861e-06
3.61794e-06
3.62297e-06
3.59909e-06
3.53783e-06
3.44908e-06
3.34303e-06
3.19563e-06
3.01865e-06
2.81433e-06
2.58597e-06
2.34054e-06
2.07952e-06
1.8105e-06
1.5468e-06
1.2928e-06
1.05373e-06
8.33044e-07
6.32763e-07
4.54378e-07
2.99346e-07
1.69417e-07
6.78246e-08
1.19589e-08
8.0624e-11
8.62797e-12
1.44426e-09
1.04693e-08
3.40597e-08
7.47868e-08
1.29702e-07
1.92677e-07
2.57535e-07
3.1982e-07
3.77129e-07
4.28713e-07
4.74904e-07
5.16651e-07
5.55181e-07
5.91787e-07
6.27709e-07
6.64065e-07
7.01818e-07
7.41769e-07
7.8456e-07
8.30678e-07
8.80467e-07
9.34134e-07
9.91762e-07
1.05332e-06
1.11869e-06
1.18769e-06
1.26008e-06
1.33567e-06
1.41432e-06
1.49605e-06
1.58106e-06
1.66978e-06
1.7629e-06
1.86129e-06
1.96592e-06
2.07757e-06
2.19687e-06
2.32441e-06
2.45961e-06
2.60144e-06
2.74847e-06
2.89939e-06
3.05006e-06
3.19833e-06
3.34132e-06
3.47567e-06
3.59778e-06
3.70392e-06
3.79035e-06
3.85351e-06
3.89014e-06
3.89744e-06
3.87314e-06
3.80811e-06
3.71255e-06
3.59832e-06
3.43973e-06
3.2487e-06
3.02787e-06
2.78082e-06
2.5145e-06
2.22958e-06
1.93659e-06
1.64915e-06
1.3731e-06
1.11476e-06
8.7808e-07
6.64975e-07
4.76393e-07
3.13282e-07
1.77183e-07
7.11156e-08
1.26108e-08
8.5592e-11
9.32584e-12
1.5619e-09
1.13339e-08
3.69092e-08
8.10782e-08
1.40575e-07
2.08631e-07
2.78463e-07
3.45232e-07
4.06386e-07
4.61186e-07
5.10069e-07
5.5412e-07
5.94705e-07
6.33244e-07
6.71081e-07
7.09412e-07
7.49257e-07
7.91454e-07
8.36663e-07
8.85376e-07
9.37926e-07
9.94502e-07
1.05516e-06
1.11984e-06
1.18838e-06
1.26056e-06
1.33617e-06
1.41499e-06
1.49696e-06
1.58216e-06
1.67092e-06
1.76385e-06
1.8618e-06
1.96585e-06
2.07717e-06
2.19627e-06
2.32467e-06
2.46214e-06
2.60826e-06
2.76193e-06
2.9226e-06
3.08614e-06
3.25049e-06
3.41294e-06
3.57009e-06
3.71819e-06
3.8532e-06
3.97092e-06
4.06718e-06
4.13802e-06
4.17987e-06
4.18971e-06
4.16515e-06
4.0966e-06
3.99363e-06
3.87094e-06
3.70105e-06
3.49565e-06
3.25789e-06
2.99192e-06
2.70442e-06
2.39395e-06
2.07533e-06
1.76192e-06
1.46135e-06
1.18127e-06
9.26516e-07
6.99082e-07
4.99381e-07
3.27673e-07
1.85115e-07
7.44631e-08
1.32728e-08
9.06973e-11
1.00638e-11
1.68632e-09
1.2249e-08
3.99238e-08
8.77195e-08
1.52013e-07
2.25338e-07
3.00274e-07
3.71591e-07
4.36598e-07
4.94586e-07
5.46111e-07
5.92408e-07
6.34993e-07
6.75415e-07
7.15121e-07
7.55384e-07
7.97279e-07
8.41676e-07
8.89248e-07
9.40488e-07
9.95715e-07
1.0551e-06
1.11866e-06
1.18631e-06
1.25786e-06
1.33307e-06
1.41173e-06
1.49366e-06
1.57886e-06
1.66751e-06
1.76011e-06
1.85745e-06
1.96057e-06
2.07073e-06
2.189e-06
2.31691e-06
2.45498e-06
2.6033e-06
2.76136e-06
2.92907e-06
3.10294e-06
3.28083e-06
3.4604e-06
3.63833e-06
3.81088e-06
3.97383e-06
4.12268e-06
4.25273e-06
4.35938e-06
4.43829e-06
4.48561e-06
4.49811e-06
4.47335e-06
4.40173e-06
4.2909e-06
4.15921e-06
3.97811e-06
3.75816e-06
3.50303e-06
3.21841e-06
2.90962e-06
2.57279e-06
2.22708e-06
1.88575e-06
1.55829e-06
1.25398e-06
9.78883e-07
7.35399e-07
5.23488e-07
3.42576e-07
1.93232e-07
7.78711e-08
1.3944e-08
9.59359e-11
1.0844e-11
1.81795e-09
1.32177e-08
4.31136e-08
9.47317e-08
1.64047e-07
2.42837e-07
3.23005e-07
3.98929e-07
4.67789e-07
5.28928e-07
5.83037e-07
6.31515e-07
6.76034e-07
7.18278e-07
7.59797e-07
8.0194e-07
8.4583e-07
8.92366e-07
9.42232e-07
9.95914e-07
1.05372e-06
1.11579e-06
1.18212e-06
1.25259e-06
1.32699e-06
1.40509e-06
1.48667e-06
1.57161e-06
1.66e-06
1.75216e-06
1.84876e-06
1.95077e-06
2.05948e-06
2.17637e-06
2.30253e-06
2.43965e-06
2.58824e-06
2.74834e-06
2.92028e-06
3.10162e-06
3.29008e-06
3.48379e-06
3.67971e-06
3.87422e-06
4.06312e-06
4.24174e-06
4.40506e-06
4.54793e-06
4.66529e-06
4.75246e-06
4.8053e-06
4.82046e-06
4.79542e-06
4.72131e-06
4.60284e-06
4.461e-06
4.26903e-06
4.03461e-06
3.76206e-06
3.45851e-06
3.12881e-06
2.7658e-06
2.39183e-06
2.021e-06
1.66451e-06
1.33352e-06
1.03571e-06
7.7426e-07
5.48876e-07
3.58054e-07
2.01556e-07
8.13439e-08
1.46239e-08
1.01302e-10
1.16689e-11
1.95719e-09
1.42431e-08
4.64891e-08
1.02136e-07
1.76708e-07
2.61162e-07
3.46691e-07
4.27274e-07
4.99981e-07
5.64222e-07
6.20847e-07
6.7143e-07
7.17809e-07
7.61804e-07
8.0507e-07
8.49028e-07
8.94847e-07
9.4345e-07
9.95526e-07
1.05156e-06
1.11183e-06
1.17645e-06
1.24541e-06
1.31856e-06
1.39567e-06
1.47651e-06
1.56091e-06
1.64882e-06
1.74042e-06
1.83621e-06
1.93703e-06
2.04406e-06
2.15879e-06
2.28275e-06
2.41775e-06
2.56485e-06
2.72478e-06
2.89826e-06
3.08402e-06
3.27982e-06
3.48428e-06
3.69477e-06
3.90795e-06
4.11983e-06
4.32575e-06
4.52054e-06
4.69869e-06
4.85458e-06
4.98276e-06
5.0782e-06
5.13654e-06
5.15427e-06
5.12879e-06
5.05282e-06
4.92727e-06
4.77405e-06
4.57166e-06
4.32306e-06
4.0334e-06
3.7102e-06
3.3602e-06
2.97216e-06
2.56921e-06
2.16768e-06
1.78037e-06
1.42042e-06
1.0975e-06
8.16011e-07
5.7572e-07
3.74176e-07
2.10108e-07
8.48856e-08
1.53118e-08
1.0679e-10
1.2541e-11
2.10447e-09
1.53287e-08
5.00612e-08
1.09954e-07
1.90026e-07
2.80347e-07
3.71363e-07
4.5665e-07
5.33185e-07
6.00471e-07
6.59532e-07
7.12134e-07
7.60289e-07
8.05956e-07
8.50893e-07
8.96591e-07
9.44263e-07
9.94849e-07
1.04904e-06
1.10731e-06
1.16993e-06
1.23699e-06
1.30844e-06
1.38412e-06
1.46381e-06
1.5473e-06
1.63445e-06
1.72532e-06
1.82021e-06
1.9198e-06
2.02512e-06
2.13759e-06
2.25885e-06
2.39071e-06
2.53497e-06
2.69278e-06
2.86539e-06
3.05251e-06
3.25232e-06
3.46393e-06
3.68517e-06
3.91317e-06
4.14425e-06
4.37399e-06
4.59727e-06
4.80843e-06
5.00149e-06
5.17038e-06
5.30929e-06
5.4129e-06
5.47665e-06
5.49685e-06
5.47084e-06
5.39356e-06
5.26132e-06
5.09614e-06
4.88359e-06
4.62124e-06
4.3151e-06
3.97152e-06
3.6017e-06
3.19058e-06
2.75842e-06
2.32553e-06
1.90598e-06
1.51505e-06
1.16469e-06
8.61e-07
6.04211e-07
3.91014e-07
2.18908e-07
8.85003e-08
1.6007e-08
1.12391e-10
1.34629e-11
2.26027e-09
1.64779e-08
5.38412e-08
1.18207e-07
2.04032e-07
3.00425e-07
3.97047e-07
4.87074e-07
5.67408e-07
6.37669e-07
6.99076e-07
7.53603e-07
8.0344e-07
8.5069e-07
8.97214e-07
9.44571e-07
9.94009e-07
1.04649e-06
1.1027e-06
1.1631e-06
1.22794e-06
1.2973e-06
1.37111e-06
1.4492e-06
1.53137e-06
1.61743e-06
1.70732e-06
1.80119e-06
1.89951e-06
2.00313e-06
2.1133e-06
2.23162e-06
2.35995e-06
2.50028e-06
2.65445e-06
2.82412e-06
3.00983e-06
3.21039e-06
3.42551e-06
3.65355e-06
3.89213e-06
4.13808e-06
4.38737e-06
4.63514e-06
4.87581e-06
5.10326e-06
5.31103e-06
5.4927e-06
5.64212e-06
5.75372e-06
5.82274e-06
5.84539e-06
5.81884e-06
5.74043e-06
5.60215e-06
5.42483e-06
5.20227e-06
4.92666e-06
4.60465e-06
4.24086e-06
3.85097e-06
3.41922e-06
2.95833e-06
2.49391e-06
2.0412e-06
1.6176e-06
1.23763e-06
9.09551e-07
6.34541e-07
4.08648e-07
2.27981e-07
9.21911e-08
1.67086e-08
1.18095e-10
1.44373e-11
2.42504e-09
1.76945e-08
5.7841e-08
1.26919e-07
2.18756e-07
3.21426e-07
4.23768e-07
5.1856e-07
6.02651e-07
6.75805e-07
7.39457e-07
7.95801e-07
8.47219e-07
8.95957e-07
9.43978e-07
9.92903e-07
1.04402e-06
1.09829e-06
1.15641e-06
1.21882e-06
1.28577e-06
1.35731e-06
1.43337e-06
1.51378e-06
1.59834e-06
1.68693e-06
1.77958e-06
1.87656e-06
1.9785e-06
2.08643e-06
2.20182e-06
2.32646e-06
2.46235e-06
2.6117e-06
2.77685e-06
2.95876e-06
3.15716e-06
3.37231e-06
3.6032e-06
3.84805e-06
4.10424e-06
4.36828e-06
4.63577e-06
4.90143e-06
5.15922e-06
5.40258e-06
5.62468e-06
5.81874e-06
5.97833e-06
6.09768e-06
6.17186e-06
6.19699e-06
6.17027e-06
6.08997e-06
5.9469e-06
5.75764e-06
5.52508e-06
5.23671e-06
4.89924e-06
4.51677e-06
4.10562e-06
3.65577e-06
3.16746e-06
2.67187e-06
2.18558e-06
1.72805e-06
1.31655e-06
9.61949e-07
6.66908e-07
4.27161e-07
2.37349e-07
9.596e-08
1.74159e-08
1.2389e-10
1.54672e-11
2.5993e-09
1.89823e-08
6.20727e-08
1.36111e-07
2.34228e-07
3.43379e-07
4.51546e-07
5.51113e-07
6.38906e-07
7.14856e-07
7.80641e-07
8.3869e-07
8.9158e-07
9.41705e-07
9.91127e-07
1.04153e-06
1.09422e-06
1.15019e-06
1.21011e-06
1.27444e-06
1.34338e-06
1.41699e-06
1.49519e-06
1.57783e-06
1.66476e-06
1.75589e-06
1.85137e-06
1.9516e-06
2.05738e-06
2.16993e-06
2.29094e-06
2.42241e-06
2.56655e-06
2.72575e-06
2.90197e-06
3.09574e-06
3.30782e-06
3.53787e-06
3.78477e-06
4.04655e-06
4.32033e-06
4.60231e-06
4.88768e-06
5.17077e-06
5.44513e-06
5.7038e-06
5.93962e-06
6.14553e-06
6.31487e-06
6.44169e-06
6.52093e-06
6.5486e-06
6.52192e-06
6.43938e-06
6.29271e-06
6.09213e-06
5.84943e-06
5.54892e-06
5.19681e-06
4.79697e-06
4.36342e-06
3.89743e-06
3.38408e-06
2.85816e-06
2.33842e-06
1.84617e-06
1.40155e-06
1.01842e-06
7.01493e-07
4.4664e-07
2.47037e-07
9.98077e-08
1.81278e-08
1.29763e-10
1.65555e-11
2.78357e-09
2.03453e-08
6.6549e-08
1.45807e-07
2.50476e-07
3.66308e-07
4.80394e-07
5.84735e-07
6.76157e-07
7.54795e-07
8.22589e-07
8.82221e-07
9.36469e-07
9.87877e-07
1.0386e-06
1.09038e-06
1.14456e-06
1.20213e-06
1.26376e-06
1.32989e-06
1.40073e-06
1.47632e-06
1.55659e-06
1.64142e-06
1.73069e-06
1.82442e-06
1.92283e-06
2.0265e-06
2.13638e-06
2.2539e-06
2.38093e-06
2.51968e-06
2.67258e-06
2.84183e-06
3.02907e-06
3.23551e-06
3.46147e-06
3.70653e-06
3.96944e-06
4.24799e-06
4.53906e-06
4.83849e-06
5.14114e-06
5.44092e-06
5.73103e-06
6.00419e-06
6.25297e-06
6.47008e-06
6.64869e-06
6.78268e-06
6.86686e-06
6.89713e-06
6.87062e-06
6.78582e-06
6.6366e-06
6.42598e-06
6.17268e-06
5.86077e-06
5.49498e-06
5.07933e-06
4.62281e-06
4.14085e-06
3.60623e-06
3.05125e-06
2.49872e-06