/*--------------------------------*- C++ -*----------------------------------*\
  =========                 |
  \\      /  F ield         | OpenFOAM: The Open Source CFD Toolbox
   \\    /   O peration     | Website:  https://openfoam.org
    \\  /    A nd           | Version:  12
     \\/     M anipulation  |
\*---------------------------------------------------------------------------*/
FoamFile
{
    format      ascii;
    class       volScalarField;
    location    "9";
    object      p;
}
// * * * * * * * * * * * * * * * * * * * * * * * * * * * * * * * * * * * * * //

dimensions      [0 2 -2 0 0 0 0];

internalField   nonuniform List<scalar> 
5625
(
3.80465e-09
3.40541e-05
6.37673e-05
7.33627e-05
5.62827e-05
1.04509e-05
-6.37527e-05
-0.000164831
-0.000290864
-0.000439913
-0.00061025
-0.000800501
-0.00100972
-0.00123741
-0.00148358
-0.00174865
-0.00203354
-0.0023396
-0.00266858
-0.00302258
-0.00340405
-0.00381577
-0.00426069
-0.00474202
-0.00526302
-0.005827
-0.00643715
-0.00709639
-0.00780721
-0.00857137
-0.00938969
-0.0102616
-0.011185
-0.0121551
-0.0131648
-0.0142034
-0.0152561
-0.0163034
-0.0173208
-0.0182776
-0.0191371
-0.0198563
-0.0203861
-0.0206718
-0.0206542
-0.0202712
-0.0194601
-0.0181604
-0.0163173
-0.0138856
-0.0108338
-0.00714832
-0.00285411
0.00200814
0.00739311
0.0131824
0.0192214
0.0253492
0.0313724
0.0370856
0.0422857
0.0467892
0.0504504
0.0531776
0.054945
0.0557972
0.0558439
0.0552477
0.0542043
0.0529205
0.0515951
0.0504061
0.0495017
0.049005
0.0489156
-7.31669e-06
2.1829e-05
4.55777e-05
5.04703e-05
3.07608e-05
-1.58448e-05
-8.93585e-05
-0.000188667
-0.000312175
-0.000458191
-0.00062517
-0.000811858
-0.00101738
-0.00124126
-0.00148351
-0.00174449
-0.00202507
-0.00232648
-0.00265038
-0.00299874
-0.00337385
-0.00377832
-0.00421494
-0.0046867
-0.00519671
-0.00574806
-0.00634372
-0.00698641
-0.00767845
-0.00842147
-0.00921613
-0.0100619
-0.0109564
-0.0118954
-0.0128717
-0.013875
-0.0148911
-0.0159012
-0.0168815
-0.0178026
-0.018629
-0.0193191
-0.0198253
-0.0200946
-0.0200694
-0.0196894
-0.0188935
-0.0176224
-0.0158226
-0.0134497
-0.0104724
-0.00687651
-0.00269114
0.0020524
0.00731883
0.0129675
0.0188666
0.0248575
0.030752
0.0363508
0.041457
0.045893
0.0495179
0.0522435
0.0540451
0.0549655
0.0551108
0.0546367
0.05373
0.0525879
0.0513971
0.0503248
0.0495055
0.0490532
0.0489718
-1.90207e-05
8.3658e-06
2.75359e-05
2.81203e-05
5.83534e-06
-4.15993e-05
-0.000114463
-0.000211972
-0.00033283
-0.000475592
-0.000638893
-0.000821606
-0.00102292
-0.0012424
-0.00148003
-0.00173614
-0.00201149
-0.00230725
-0.00262492
-0.00296634
-0.00333363
-0.0037292
-0.0041557
-0.0046159
-0.00511267
-0.00564888
-0.00622734
-0.00685056
-0.00752068
-0.00823921
-0.00900677
-0.0098228
-0.0106851
-0.0115896
-0.0125295
-0.0134951
-0.0144728
-0.0154448
-0.0163885
-0.0172757
-0.0180723
-0.0187385
-0.0192283
-0.0194903
-0.0194687
-0.0191046
-0.0183381
-0.0171112
-0.0153707
-0.0130725
-0.0101851
-0.00669364
-0.00262906
0.0019972
0.00713393
0.0126409
0.0184057
0.0242683
0.0300457
0.0355439
0.040571
0.0449535
0.0485539
0.0512858
0.053125
0.054113
0.0543524
0.0539937
0.0532166
0.0522091
0.0511483
0.050188
0.0494502
0.0490394
0.0489634
-3.1733e-05
-2.87695e-06
1.45242e-05
1.24302e-05
-1.16869e-05
-5.97957e-05
-0.000132207
-0.000228299
-0.000346967
-0.000486936
-0.000646976
-0.000826056
-0.00102342
-0.00123866
-0.00147172
-0.00172292
-0.00199294
-0.00228284
-0.00259402
-0.00292816
-0.0032873
-0.00367365
-0.00408969
-0.00453801
-0.00502132
-0.00554231
-0.00610363
-0.00670768
-0.00735653
-0.00805164
-0.00879368
-0.00958222
-0.0104154
-0.0112894
-0.012198
-0.0131323
-0.0140795
-0.0150231
-0.0159415
-0.0168078
-0.0175897
-0.0182484
-0.0187396
-0.0190132
-0.0190144
-0.018685
-0.0179658
-0.0167985
-0.0151296
-0.0129143
-0.0101197
-0.00673078
-0.00276972
0.00175705
0.00677878
0.0121837
0.0178542
0.0236331
0.0293409
0.0347861
0.0397784
0.0441451
0.0477488
0.0505024
0.0523805
0.0534233
0.0537317
0.0534538
0.052766
0.0518513
0.0508807
0.0499977
0.0493157
0.048931
0.0488513
-4.26618e-05
-1.09091e-05
6.40645e-06
2.77074e-06
-2.26213e-05
-7.12781e-05
-0.000143386
-0.000238362
-0.000355202
-0.000492743
-0.000649848
-0.000825556
-0.00101915
-0.00123023
-0.00145874
-0.00170495
-0.00196946
-0.00225325
-0.00255765
-0.00288421
-0.00323481
-0.00361155
-0.00401673
-0.00445281
-0.00492237
-0.00542798
-0.00597218
-0.00655734
-0.0071855
-0.00785821
-0.00857631
-0.00933965
-0.0101468
-0.0109944
-0.0118773
-0.0127871
-0.0137125
-0.0146379
-0.0155432
-0.016403
-0.0171862
-0.0178555
-0.0183676
-0.0186732
-0.018718
-0.018444
-0.0177914
-0.0167011
-0.0151183
-0.0129961
-0.0102999
-0.00701209
-0.00314574
0.00128564
0.00621591
0.0115449
0.0171525
0.022884
0.0285619
0.0339951
0.0389924
0.0433796
0.0470163
0.0498123
0.0517396
0.0528361
0.0532014
0.0529831
0.0523569
0.0515042
0.0505922
0.0497593
0.0491104
0.0487351
0.0486391
-4.99172e-05
-1.49655e-05
2.99006e-06
-1.57229e-06
-2.79218e-05
-7.70694e-05
-0.000148995
-0.000243079
-0.000358354
-0.000493723
-0.000648115
-0.00082061
-0.00101052
-0.00121746
-0.00144134
-0.0016824
-0.0019412
-0.00221863
-0.00251589
-0.00283448
-0.00317611
-0.00354277
-0.00393664
-0.00436008
-0.00481554
-0.00530555
-0.00583258
-0.00639903
-0.00700702
-0.0076583
-0.00835401
-0.00909446
-0.00987876
-0.0107045
-0.0115673
-0.0124601
-0.0133726
-0.014291
-0.0151964
-0.0160649
-0.0168668
-0.0175659
-0.0181195
-0.0184789
-0.0185894
-0.0183925
-0.0178272
-0.0168326
-0.0153517
-0.0133351
-0.0107452
-0.00756162
-0.00379023
0.000551829
0.00540487
0.0106747
0.0162415
0.0219527
0.0276315
0.0330862
0.0381233
0.0425649
0.0462656
0.0491301
0.0511254
0.0522859
0.0527094
0.0525436
0.0519649
0.0511552
0.0502807
0.049477
0.0488428
0.0484615
0.0483359
-5.21561e-05
-1.42623e-05
4.52541e-06
-6.71893e-07
-2.78291e-05
-7.74764e-05
-0.000149351
-0.000242744
-0.000356682
-0.000490097
-0.000641964
-0.00081138
-0.000997692
-0.0012005
-0.00141969
-0.00165547
-0.00190836
-0.00217917
-0.002469
-0.00277924
-0.00311152
-0.00346774
-0.00384996
-0.00426045
-0.00470161
-0.00517594
-0.00568595
-0.00623413
-0.00682281
-0.00745405
-0.00812945
-0.00884995
-0.00961549
-0.0104247
-0.0112743
-0.0121586
-0.0130691
-0.0139932
-0.0149138
-0.0158084
-0.0166483
-0.0173983
-0.0180159
-0.0184522
-0.0186518
-0.0185547
-0.0180978
-0.017218
-0.0158553
-0.0139573
-0.0114829
-0.0084084
-0.00473403
-0.000477086
0.00430753
0.00953056
0.0150738
0.0207865
0.0264923
0.0319982
0.0371077
0.0416374
0.0454353
0.0483988
0.0504877
0.051731
0.0522235
0.0521124
0.0515758
0.0507978
0.0499456
0.049154
0.0485189
0.0481173
0.04795
-4.84069e-05
-8.14433e-06
1.13374e-05
5.56985e-06
-2.23782e-05
-7.25978e-05
-0.000144573
-0.000237475
-0.000350293
-0.000481961
-0.00063147
-0.000797941
-0.000980725
-0.00117941
-0.00139388
-0.00162429
-0.0018711
-0.00213507
-0.00241722
-0.00271885
-0.00304152
-0.00338702
-0.00375736
-0.00415477
-0.00458161
-0.00504044
-0.00553387
-0.00606459
-0.00663526
-0.00724841
-0.00790628
-0.00861065
-0.00936251
-0.0101617
-0.0110065
-0.0118928
-0.0128137
-0.0137584
-0.0147113
-0.0156512
-0.0165506
-0.0173743
-0.0180799
-0.0186174
-0.01893
-0.0189555
-0.0186282
-0.0178819
-0.0166534
-0.0148867
-0.0125372
-0.00957755
-0.00600308
-0.00182963
0.00289204
0.00807734
0.0136104
0.0193425
0.0250979
0.030682
0.0358947
0.0405463
0.0444766
0.0475734
0.049787
0.0511387
0.0517184
0.0516719
0.051179
0.0504269
0.0495862
0.0487931
0.0481432
0.0477086
0.0474889
-3.79747e-05
3.88516e-06
2.369e-05
1.72354e-05
-1.16022e-05
-6.25268e-05
-0.000134776
-0.000227389
-0.000339296
-0.000469412
-0.000616723
-0.000780377
-0.000959708
-0.0011543
-0.00136401
-0.00158897
-0.00182959
-0.00208656
-0.00236084
-0.00265367
-0.00296653
-0.00330117
-0.00365954
-0.00404388
-0.00445659
-0.00490033
-0.00537793
-0.0058924
-0.00644685
-0.00704447
-0.00768834
-0.00838129
-0.00912562
-0.00992269
-0.0107724
-0.0116727
-0.0126182
-0.0136001
-0.0146043
-0.0156108
-0.0165923
-0.0175138
-0.018332
-0.0189954
-0.0194449
-0.0196153
-0.0194379
-0.018843
-0.0177637
-0.0161405
-0.0139253
-0.0110869
-0.00761639
-0.00352723
0.00113397
0.00628719
0.0118196
0.0175851
0.0234088
0.0290952
0.0344401
0.039247
0.0433461
0.0466134
0.0489874
0.0504789
0.0511706
0.0512052
0.0507636
0.0500371
0.0492011
0.0483958
0.0477195
0.0472403
0.0469595
-2.03891e-05
2.21828e-05
4.17807e-05
3.43823e-05
4.4611e-06
-4.73544e-05
-0.000120075
-0.000212603
-0.000323799
-0.000452545
-0.000597822
-0.00075877
-0.000934723
-0.00112526
-0.0013302
-0.00154966
-0.00178399
-0.00203385
-0.00230015
-0.00258405
-0.00288701
-0.00321072
-0.00355718
-0.00392862
-0.00432759
-0.00475693
-0.00521978
-0.0057196
-0.00626014
-0.00684541
-0.00747955
-0.00816672
-0.00891075
-0.00971479
-0.0105807
-0.0115083
-0.0124944
-0.0135318
-0.0146077
-0.0157029
-0.0167903
-0.0178342
-0.0187897
-0.019603
-0.0202121
-0.0205486
-0.0205399
-0.0201128
-0.0191968
-0.0177286
-0.0156569
-0.0129468
-0.00958562
-0.00558378
-0.00098361
0.00413965
0.00967706
0.0154858
0.0213928
0.0272021
0.0327059
0.0377005
0.0420051
0.0454824
0.0480562
0.0497239
0.050558
0.0506961
0.050319
0.0496225
0.0487884
0.0479631
0.0472505
0.0467162
0.0463685
4.65698e-06
4.69982e-05
6.57554e-05
5.70521e-05
2.57777e-05
-2.71585e-05
-0.000100567
-0.000193216
-0.000303893
-0.000431445
-0.000574833
-0.00073319
-0.000905843
-0.00109236
-0.00129254
-0.00150647
-0.00173448
-0.00197717
-0.0022354
-0.00251033
-0.00280337
-0.00311623
-0.00345094
-0.00380985
-0.00419569
-0.00461157
-0.00506109
-0.0055483
-0.00607774
-0.00665448
-0.00728396
-0.00797189
-0.00872392
-0.00954523
-0.0104398
-0.0114096
-0.0124535
-0.0135657
-0.0147347
-0.0159416
-0.0171589
-0.0183494
-0.0194662
-0.0204522
-0.0212422
-0.0217639
-0.0219409
-0.0216963
-0.0209561
-0.0196537
-0.0177346
-0.0151605
-0.0119153
-0.00800602
-0.00347037
0.00162159
0.00716567
0.0130234
0.0190247
0.0249738
0.0306602
0.0358729
0.0404195
0.0441473
0.0469632
0.0488475
0.0498595
0.0501288
0.0498346
0.0491769
0.0483453
0.0474949
0.0467382
0.0461403
0.0457198
3.734e-05
7.84881e-05
9.57094e-05
8.52676e-05
5.23141e-05
-2.00638e-06
-7.63333e-05
-0.000169312
-0.000279659
-0.000406181
-0.000547821
-0.000703698
-0.000873134
-0.00105568
-0.00125113
-0.00145954
-0.0016812
-0.0019167
-0.00216687
-0.00243284
-0.00271604
-0.00301823
-0.00334151
-0.00368842
-0.00406195
-0.00446561
-0.00490356
-0.00538061
-0.00590232
-0.00647499
-0.00710562
-0.00780175
-0.0085711
-0.00942106
-0.0103579
-0.0113859
-0.0125057
-0.013713
-0.014997
-0.0163387
-0.0177093
-0.0190697
-0.02037
-0.0215498
-0.0225397
-0.0232636
-0.0236411
-0.0235918
-0.0230385
-0.0219118
-0.0201543
-0.0177245
-0.0146032
-0.0107937
-0.0063288
-0.0012728
0.0042758
0.0101841
0.0162861
0.022388
0.028277
0.0337355
0.0385591
0.0425784
0.0456803
0.0478251
0.0490549
0.0494878
0.0492996
0.0486938
0.0478687
0.0469907
0.0461835
0.0455151
0.0450167
7.77435e-05
0.000116738
0.000131693
0.000119029
8.40305e-05
2.80376e-05
-4.74503e-05
-0.000140968
-0.000251167
-0.000376817
-0.000516843
-0.000670351
-0.000836657
-0.0010153
-0.00120606
-0.00140897
-0.00162432
-0.00185265
-0.0020948
-0.00235191
-0.00262544
-0.00291724
-0.00322956
-0.00356517
-0.00392743
-0.00432038
-0.00474887
-0.00521865
-0.00573648
-0.00631017
-0.00694851
-0.0076611
-0.00845795
-0.0093489
-0.0103426
-0.0114455
-0.01266
-0.0139829
-0.0154037
-0.0169025
-0.0184489
-0.0200009
-0.0215052
-0.0228972
-0.0241036
-0.0250439
-0.0256344
-0.0257912
-0.0254346
-0.0244927
-0.0229055
-0.0206287
-0.0176403
-0.0139395
-0.00955422
-0.00454194
0.00100535
0.00696154
0.0131663
0.0194291
0.0255364
0.0312648
0.036398
0.0407486
0.0441813
0.0466329
0.0481239
0.0487576
0.048703
0.048166
0.0473548
0.0464491
0.0455866
0.0448422
0.0442614
0.000125873
0.000161766
0.000173712
0.000158312
0.000120875
6.29069e-05
-1.3991e-05
-0.000108255
-0.000218483
-0.000343415
-0.000481956
-0.000633205
-0.00079647
-0.000971285
-0.00115742
-0.00135489
-0.00156396
-0.0017852
-0.00201944
-0.00226785
-0.00253197
-0.00281376
-0.00311572
-0.00344092
-0.00379317
-0.00417718
-0.00459864
-0.00506444
-0.00558277
-0.00616314
-0.00681639
-0.00755441
-0.00838972
-0.0093347
-0.0104005
-0.0115954
-0.0129236
-0.0143825
-0.0159611
-0.0176383
-0.0193811
-0.0211443
-0.0228703
-0.0244905
-0.025927
-0.0270956
-0.0279092
-0.028281
-0.0281293
-0.0273803
-0.025972
-0.0238569
-0.021011
-0.0174295
-0.0131347
-0.00817657
-0.00263984
0.00335741
0.00966217
0.0160888
0.022425
0.0284426
0.033914
0.0386334
0.0424414
0.0452474
0.0470464
0.0479219
0.0480329
0.047586
0.0467993
0.0458683
0.0449472
0.0441227
0.0434549
0.000181678
0.000213543
0.000221731
0.000203063
0.000162778
0.000102528
2.39672e-05
-7.12471e-05
-0.000181676
-0.000306035
-0.000443218
-0.000592317
-0.000752638
-0.000923707
-0.00110529
-0.00129739
-0.00150029
-0.00171454
-0.00194102
-0.00218095
-0.00243599
-0.00270829
-0.0030006
-0.00331642
-0.00366013
-0.00403722
-0.00445441
-0.00491991
-0.00544353
-0.00603675
-0.00671267
-0.0074857
-0.00837099
-0.00938352
-0.0105368
-0.0118412
-0.0133017
-0.0149161
-0.0166725
-0.0185477
-0.0205055
-0.0224967
-0.0244595
-0.0263207
-0.0279981
-0.0294041
-0.0304484
-0.0310423
-0.0311022
-0.0305534
-0.0293321
-0.0273868
-0.0246935
-0.0212431
-0.0170509
-0.0121595
-0.00664569
-0.000618122
0.00577903
0.012367
0.0189366
0.0252569
0.0310902
0.0362123
0.0404379
0.0436463
0.0458021
0.0469642
0.047277
0.0469455
0.0461975
0.0452458
0.0442647
0.0433571
0.0425972
0.000245058
0.000271987
0.000275675
0.000253201
0.000209656
0.000146809
6.63373e-05
-3.00258e-05
-0.000140819
-0.000264745
-0.000400692
-0.000547752
-0.000705227
-0.000872645
-0.00104977
-0.0012366
-0.00143344
-0.00164085
-0.00185976
-0.0020915
-0.00233786
-0.00260125
-0.00288475
-0.00319237
-0.00352919
-0.00390161
-0.00431756
-0.00478677
-0.00532087
-0.00593355
-0.00664035
-0.00745836
-0.00840549
-0.00949933
-0.0107556
-0.0121863
-0.0137972
-0.0155856
-0.017538
-0.0196284
-0.0218172
-0.0240506
-0.0262621
-0.0283741
-0.0303005
-0.0319502
-0.0332306
-0.0340515
-0.0343283
-0.0339855
-0.0329572
-0.0311901
-0.02866
-0.0253546
-0.0212759
-0.0164656
-0.0109896
-0.00494603
0.00153124
0.00827236
0.0150734
0.0217032
0.0279155
0.0334687
0.038151
0.0418084
0.044371
0.0458673
0.0464223
0.0462357
0.0455439
0.044579
0.0435383
0.0425449
0.041688
0.000315874
0.000336978
0.000335431
0.000308619
0.000261417
0.000195623
0.000113015
1.53154e-05
-9.5999e-05
-0.000219626
-0.000354457
-0.000499586
-0.000654319
-0.000818186
-0.000990952
-0.00117264
-0.00136354
-0.00156428
-0.00177587
-0.00199974
-0.0022379
-0.00249302
-0.00276866
-0.00306939
-0.00340113
-0.00377133
-0.00418932
-0.0046665
-0.00521659
-0.00585563
-0.00660182
-0.00747506
-0.00849601
-0.00968482
-0.0110593
-0.0126325
-0.0144105
-0.0163896
-0.0185542
-0.0208749
-0.0233077
-0.0257944
-0.0282635
-0.0306331
-0.0328135
-0.0347108
-0.0362304
-0.0372812
-0.0377781
-0.0376437
-0.0368084
-0.0352326
-0.0328772
-0.0297249
-0.0257742
-0.0210617
-0.0156404
-0.00959831
-0.00305754
0.00382283
0.0108467
0.017785
0.0243859
0.0303917
0.0355642
0.0397146
0.0427337
0.0446141
0.0454553
0.0454471
0.044833
0.0438651
0.0427672
0.0416851
0.0407269
0.000393946
0.000408351
0.00040085
0.000369176
0.000317916
0.00024884
0.000163883
6.46653e-05
-4.73186e-05
-0.000170775
-0.000304604
-0.000447911
-0.000600009
-0.000760432
-0.000928955
-0.00110561
-0.00129074
-0.00148501
-0.00168953
-0.00190589
-0.00213635
-0.00238395
-0.00265273
-0.002948
-0.00327658
-0.00364718
-0.00407065
-0.0045603
-0.00513209
-0.0058046
-0.00659884
-0.00753755
-0.00864418
-0.00994125
-0.0114482
-0.0131791
-0.0151396
-0.0173244
-0.0197149
-0.022278
-0.024965
-0.0277128
-0.0304454
-0.0330766
-0.0355133
-0.0376595
-0.0394192
-0.0407005
-0.0414181
-0.0414919
-0.0408606
-0.0394819
-0.037306
-0.0343146
-0.0305081
-0.0259078
-0.0205592
-0.0145383
-0.00795449
-0.000954129
0.00627692
0.0135149
0.0205051
0.0269768
0.0326663
0.0373487
0.0408722
0.0431875
0.0443618
0.0445698
0.0440587
0.0431009
0.04195
0.0407771
0.0397137
0.00047906
0.000485907
0.00047174
0.000434682
0.000378953
0.000306339
0.000218795
0.000117888
5.09461e-06
-0.000118312
-0.000251252
-0.000392844
-0.000542412
-0.000699501
-0.000863898
-0.00103566
-0.00121517
-0.00140317
-0.0016009
-0.00181014
-0.00203345
-0.00227428
-0.00253728
-0.00282856
-0.00315603
-0.00352974
-0.00396227
-0.00446901
-0.0050683
-0.00578147
-0.00663237
-0.00764666
-0.00885043
-0.0102684
-0.0119214
-0.0138237
-0.01598
-0.018383
-0.0210107
-0.0238254
-0.0267738
-0.0297877
-0.0327866
-0.0356804
-0.0383733
-0.0407672
-0.0427655
-0.0442761
-0.0452129
-0.0455001
-0.0450816
-0.0438972
-0.0419048
-0.0390837
-0.0354308
-0.0309575
-0.0256999
-0.0197217
-0.0131182
-0.00602184
0.00139427
0.00891479
0.016286
0.0232271
0.0294517
0.0346987
0.0387708
0.0415715
0.0431283
0.0435937
0.0432147
0.0422835
0.0410855
0.0398207
0.0386481
0.000570965
0.0005694
0.000547864
0.000504915
0.00044433
0.000367927
0.000277575
0.000174817
6.1084e-05
-6.23873e-05
-0.000194544
-0.000334525
-0.000481668
-0.000635531
-0.000795919
-0.000962922
-0.00113697
-0.00131892
-0.00151013
-0.00171265
-0.00192935
-0.0021642
-0.00242252
-0.00271134
-0.00303976
-0.00341936
-0.00386458
-0.00439304
-0.00502567
-0.00578658
-0.00670257
-0.00780214
-0.0091139
-0.0106644
-0.0124755
-0.0145613
-0.0169249
-0.0195563
-0.0224295
-0.0255024
-0.0287163
-0.0319983
-0.0352635
-0.0384184
-0.0413646
-0.0440029
-0.0462364
-0.0479733
-0.049129
-0.0496302
-0.0494153
-0.0484259
-0.046623
-0.0439814
-0.0404919
-0.0361596
-0.0310109
-0.0250972
-0.0184997
-0.0113353
-0.00376208
0.00401609
0.0117504
0.0191544
0.0259221
0.0317579
0.0364174
0.0397516
0.0417411
0.0425086
0.0422948
0.0414097
0.0401726
0.0388156
0.0375303
0.000669369
0.000658544
0.000628946
0.000579613
0.000513814
0.000433361
0.000340007
0.000235251
0.000120457
-3.18582e-06
-0.000134661
-0.000273129
-0.000417947
-0.000568687
-0.000725176
-0.000887542
-0.00105628
-0.00123236
-0.00141733
-0.00161349
-0.00182414
-0.00205379
-0.00230853
-0.00259641
-0.00292786
-0.00331611
-0.00377763
-0.00433242
-0.00500406
-0.00581958
-0.0068087
-0.00800267
-0.00943241
-0.011126
-0.0131058
-0.0153852
-0.0179653
-0.0208327
-0.0239572
-0.0272916
-0.0307724
-0.0343217
-0.0378506
-0.0412625
-0.0444572
-0.0473344
-0.0497973
-0.051755
-0.0531245
-0.0538331
-0.0538185
-0.0530255
-0.0514142
-0.0489566
-0.0456386
-0.0414593
-0.0364363
-0.0306091
-0.0240442
-0.0168423
-0.00914488
-0.00114101
0.00692943
0.0147791
0.022087
0.0285258
0.033804
0.0377161
0.0401884
0.0413047
0.0412928
0.0404766
0.0392108
0.0377621
0.0363612
0.000773947
0.000753006
0.000714666
0.000658473
0.000587116
0.00050236
0.000405831
0.000298944
0.00018298
5.90673e-05
-7.18186e-05
-0.000208867
-0.00035145
-0.00049916
-0.000651845
-0.000809679
-0.000973239
-0.00114362
-0.00132258
-0.00151274
-0.00171784
-0.00194302
-0.00219524
-0.00248367
-0.00282017
-0.00321978
-0.00370111
-0.00428664
-0.00500275
-0.00587937
-0.00694911
-0.00824584
-0.0098025
-0.0116483
-0.0138057
-0.0162867
-0.0190901
-0.0221986
-0.0255774
-0.0291742
-0.0329204
-0.0367338
-0.0405214
-0.0441841
-0.04762
-0.0507285
-0.0534132
-0.0555842
-0.0571601
-0.0580695
-0.058251
-0.0576516
-0.0562307
-0.0539586
-0.0508174
-0.046801
-0.0419185
-0.0361982
-0.0296927
-0.0224855
-0.0147002
-0.00650851
0.00186277
0.0101305
0.0179641
0.025009
0.0309279
0.0354565
0.0384595
0.0399732
0.0402028
0.0394819
0.0381999
0.0366615
0.0351422
0.000884332
0.000852396
0.000804652
0.000741134
0.000663891
0.000574603
0.000474741
0.000365603
0.000248371
0.0001241
-6.28033e-06
-0.000141989
-0.000282416
-0.000427168
-0.000576123
-0.000729503
-0.000887975
-0.00105278
-0.00122593
-0.00141037
-0.00161037
-0.00183176
-0.00208244
-0.00237281
-0.00271629
-0.00312982
-0.00363428
-0.00425474
-0.0050204
-0.0059641
-0.00712126
-0.00852815
-0.0102194
-0.0122251
-0.0145671
-0.0172557
-0.0202868
-0.0236388
-0.0272723
-0.0311297
-0.0351377
-0.0392093
-0.0432486
-0.0471538
-0.050822
-0.0541525
-0.0570494
-0.0594244
-0.0611978
-0.0622998
-0.0626707
-0.0622592
-0.061025
-0.0589374
-0.0559756
-0.052129
-0.0473995
-0.041805
-0.0353842
-0.0282043
-0.0203695
-0.0120321
-0.00340232
0.00524635
0.0135798
0.0212219
0.0277929
0.0329688
0.0365468
0.0385062
0.0390199
0.0384237
0.0371405
0.0355162
0.0338752
0.00100008
0.000956289
0.000898468
0.000827175
0.000743739
0.000649711
0.000546375
0.000434882
0.000316295
0.00019159
6.1643e-05
-7.27915e-05
-0.000211121
-0.000352965
-0.00049823
-0.000647192
-0.000800619
-0.000959925
-0.00112737
-0.00130632
-0.00150158
-0.00171975
-0.00196977
-0.00226334
-0.00261555
-0.00304536
-0.00357601
-0.00423522
-0.00505504
-0.00607117
-0.0073217
-0.00884506
-0.0106773
-0.0128488
-0.0153805
-0.0182805
-0.0215413
-0.025137
-0.0290231
-0.0331371
-0.0374006
-0.0417229
-0.0460048
-0.0501426
-0.0540326
-0.0575741
-0.0606722
-0.0632403
-0.0652006
-0.0664853
-0.0670366
-0.0668053
-0.0657518
-0.0638451
-0.0610627
-0.0573902
-0.0528233
-0.0473705
-0.041058
-0.0339366
-0.0260912
-0.0176532
-0.00881253
0.000171675
0.00896839
0.0171866
0.0244094
0.030254
0.0344456
0.0368978
0.0377398
0.0373007
0.0360342
0.0343289
0.0325634
0.00112071
0.0010642
0.000995612
0.000916115
0.000826198
0.000727242
0.000620309
0.000506372
0.000386359
0.000261156
0.000131587
-1.62054e-06
-0.000137884
-0.000276837
-0.000418408
-0.000562935
-0.000711296
-0.000865091
-0.00102687
-0.00120044
-0.0013912
-0.0016066
-0.00185667
-0.00215454
-0.00251703
-0.00296521
-0.00352477
-0.00422611
-0.00510411
-0.00619727
-0.00754615
-0.00919109
-0.0111692
-0.0135108
-0.0162353
-0.0193483
-0.0228386
-0.0266758
-0.0308103
-0.0351745
-0.0396857
-0.0442492
-0.0487631
-0.0531222
-0.057222
-0.0609623
-0.0642494
-0.0669984
-0.0691336
-0.0705897
-0.0713108
-0.0712501
-0.0703694
-0.0686379
-0.0660322
-0.0625351
-0.0581373
-0.0528392
-0.0466555
-0.0396216
-0.0318036
-0.0233106
-0.0143102
-0.00504237
0.0041715
0.0129331
0.020795
0.0273189
0.0321555
0.0351444
0.0363597
0.0361128
0.0348832
0.0331036
0.0312114
0.00124569
0.00117555
0.00109552
0.0010074
0.000910738
0.000806687
0.000696053
0.000579598
0.000458103
0.000332355
0.000203127
7.11271e-05
-6.30697e-05
-0.000199102
-0.000336923
-0.000476929
-0.00062012
-0.0007683
-0.00092434
-0.00109251
-0.00127887
-0.00149178
-0.00174243
-0.00204545
-0.0024195
-0.00288783
-0.00347859
-0.00422491
-0.00516446
-0.00633839
-0.00778956
-0.00955992
-0.0116873
-0.0142014
-0.0171199
-0.0204455
-0.024163
-0.0282373
-0.0326139
-0.0372204
-0.0419695
-0.0467633
-0.0514974
-0.0560653
-0.060362
-0.064288
-0.0677509
-0.0706676
-0.0729649
-0.0745798
-0.0754589
-0.0755579
-0.0748403
-0.0732763
-0.0708422
-0.067519
-0.0632936
-0.0581596
-0.0521218
-0.0452013
-0.037446
-0.028943
-0.0198354
-0.0103403
-0.000763144
0.00849845
0.0169744
0.0241767
0.0296805
0.0332454
0.0348785
0.0348608
0.0336907
0.0318453
0.0298253
0.0013744
0.00128971
0.00119755
0.00110042
0.000996751
0.00088746
0.000773038
0.000654013
0.000530996
0.000404677
0.00027578
0.000144999
1.29124e-05
-0.000120116
-0.000254059
-0.000389378
-0.000527196
-0.00066954
-0.000819626
-0.000982228
-0.00116413
-0.00137462
-0.00162616
-0.00193492
-0.00232149
-0.00281134
-0.00343513
-0.0042287
-0.00523241
-0.00648994
-0.0080462
-0.00994447
-0.0122229
-0.0149103
-0.0180222
-0.0215578
-0.0254982
-0.0298036
-0.0344143
-0.0392533
-0.0442295
-0.0492416
-0.054183
-0.0589463
-0.0634263
-0.0675242
-0.0711491
-0.0742199
-0.0766657
-0.0784261
-0.0794507
-0.0796973
-0.0791318
-0.077726
-0.0754563
-0.0723031
-0.0682503
-0.0632864
-0.0574074
-0.0506221
-0.0429613
-0.0344905
-0.0253277
-0.0156639
-0.00578318
0.00392575
0.0129793
0.0208469
0.0270298
0.0312036
0.0332971
0.0335471
0.0324616
0.0305601
0.0284122
0.00150616
0.00140595
0.00130099
0.00119444
0.00108355
0.000968893
0.000850619
0.000728988
0.000604432
0.00047754
0.000348994
0.000219484
8.96049e-05
-4.02694e-05
-0.000170127
-0.000300488
-0.000432614
-0.000568765
-0.000712529
-0.000869222
-0.00104638
-0.00125431
-0.00150677
-0.00182158
-0.00222126
-0.00273356
-0.00339169
-0.0042341
-0.00530379
-0.00664677
-0.00830978
-0.0103371
-0.0127668
-0.0156267
-0.0189296
-0.0226708
-0.0268282
-0.0313567
-0.0361921
-0.0412528
-0.0464438
-0.0516613
-0.0567966
-0.0617414
-0.0663907
-0.0706465
-0.0744193
-0.0776302
-0.0802107
-0.0821033
-0.08326
-0.0836418
-0.0832166
-0.0819582
-0.0798441
-0.0768546
-0.0729719
-0.0681803
-0.0624691
-0.0558363
-0.0482973
-0.0398971
-0.0307286
-0.0209547
-0.0108333
-0.000736794
0.00884727
0.0173554
0.0242181
0.0290257
0.0316191
0.0321757
0.0312017
0.0292559
0.026981
0.00164019
0.00152347
0.00140502
0.00128867
0.00117034
0.00105023
0.000928058
0.000803809
0.000677722
0.000550285
0.000422148
0.000294012
0.000166501
4.00108e-05
-8.54536e-05
-0.000210473
-0.000336449
-0.000465893
-0.000602787
-0.000753024
-0.000924937
-0.00112991
-0.00138304
-0.00170383
-0.00211682
-0.00265205
-0.00334522
-0.00423739
-0.00537403
-0.00680331
-0.00857354
-0.0107297
-0.0133096
-0.0163396
-0.0198292
-0.0237701
-0.0281368
-0.0328793
-0.0379286
-0.0431991
-0.0485922
-0.0540014
-0.0593168
-0.064429
-0.0692335
-0.073633
-0.0775398
-0.080877
-0.0835786
-0.0855898
-0.0868655
-0.0873695
-0.0870723
-0.0859498
-0.0839812
-0.0811472
-0.0774293
-0.0728092
-0.0672706
-0.0608027
-0.0534075
-0.0451113
-0.0359824
-0.0261548
-0.0158569
-0.00543751
0.00462138
0.0137341
0.0212655
0.0267226
0.0298508
0.0307525
0.0299188
0.027942
0.0255422
0.00177563
0.00164136
0.00150871
0.00138221
0.00125626
0.0011306
0.00100452
0.000877669
0.000750087
0.00062217
0.000494548
0.000367951
0.000243045
0.000120264
-3.85915e-07
-0.000119543
-0.000238756
-0.000360802
-0.000490078
-0.000633089
-0.000799006
-0.00100032
-0.00125355
-0.00157991
-0.00200598
-0.00256409
-0.00329242
-0.00423452
-0.00543822
-0.00695365
-0.00883041
-0.011114
-0.0138415
-0.0170375
-0.0207085
-0.0248413
-0.0294085
-0.0343546
-0.0396063
-0.0450738
-0.0506556
-0.0562429
-0.0617241
-0.0669897
-0.0719353
-0.0764648
-0.0804919
-0.083942
-0.0867515
-0.0888682
-0.09025
-0.0908634
-0.0906817
-0.0896832
-0.0878489
-0.0851607
-0.0816001
-0.0771474
-0.0717824
-0.0654872
-0.0582524
-0.0500876
-0.0410382
-0.0312096
-0.0207978
-0.0101227
0.000348667
0.0100204
0.0181978
0.0243101
0.028002
0.0292858
0.0286221
0.0266294
0.024108
0.00191149
0.00175861
0.00161105
0.00147404
0.0013403
0.00120905
0.00107907
0.00094966
0.000820656
0.000692368
0.000565425
0.000440602
0.00031863
0.000199993
8.47113e-05
-2.79114e-05
-0.000139574
-0.00025333
-0.000374022
-0.000508791
-0.000667687
-0.000864356
-0.00111676
-0.00144788
-0.00188634
-0.00246677
-0.00322974
-0.00422123
-0.00549125
-0.00709166
-0.00907314
-0.0114813
-0.0143525
-0.0177096
-0.021555
-0.0258707
-0.0306283
-0.0357669
-0.0412086
-0.0468601
-0.0526169
-0.0583682
-0.0640015
-0.0694066
-0.0744798
-0.0791258
-0.0832603
-0.0868104
-0.0897151
-0.0919248
-0.0934003
-0.0941107
-0.0940321
-0.0931454
-0.0914337
-0.0888805
-0.0854681
-0.0811761
-0.075982
-0.0698625
-0.0627991
-0.0547871
-0.0458509
-0.0360683
-0.0256019
-0.0147384
-0.00392108
0.00625627
0.0150457
0.021808
0.0260858
0.027786
0.0273229
0.025331
0.0226925
0.00204668
0.00187408
0.00171089
0.00156303
0.00142136
0.00128449
0.00115066
0.00101877
0.000888457
0.000759962
0.000633929
0.000511202
0.000392598
0.00027867
0.000169457
6.42134e-05
-3.89164e-05
-0.000143279
-0.000254178
-0.000379426
-0.000529987
-0.000720698
-0.000971001
-0.00130567
-0.00175538
-0.00235701
-0.00315349
-0.00419308
-0.00552782
-0.00721109
-0.00929442
-0.0118233
-0.0148331
-0.0183451
-0.022357
-0.026845
-0.0317823
-0.0371016
-0.0427205
-0.0485425
-0.0544606
-0.0603622
-0.0661338
-0.0716651
-0.0768528
-0.0816028
-0.0858323
-0.0894704
-0.0924586
-0.0947497
-0.096307
-0.0971026
-0.0971153
-0.0963283
-0.0947272
-0.0922974
-0.0890225
-0.0848824
-0.0798533
-0.0739084
-0.0670221
-0.0591777
-0.0503815
-0.0406852
-0.0302185
-0.0192314
-0.00813671
0.00248733
0.0118451
0.0192412
0.0241189
0.0262665
0.0260345
0.0240615
0.0213116
0.00218
0.0019865
0.00180693
0.0016479
0.00149819
0.00135572
0.0012181
0.00108386
0.000952409
0.000823936
0.000699127
0.00057892
0.000464241
0.000355728
0.000253454
0.000156624
6.32204e-05
-3.04095e-05
-0.000130054
-0.000244224
-0.000384833
-0.000567942
-0.000814508
-0.0011511
-0.00161045
-0.00223163
-0.00305987
-0.00414558
-0.00554263
-0.00730574
-0.00948702
-0.0121317
-0.0152739
-0.0189338
-0.0231038
-0.0277515
-0.0328574
-0.0383453
-0.0441283
-0.0501074
-0.0561731
-0.0622115
-0.0681082
-0.073753
-0.0790429
-0.0838851
-0.0881982
-0.0919134
-0.0949741
-0.0973358
-0.0989642
-0.099834
-0.0999264
-0.0992275
-0.097725
-0.0954066
-0.0922574
-0.0882586
-0.083386
-0.0776108
-0.0709023
-0.0632343
-0.0545976
-0.0450206
-0.0346009
-0.0235511
-0.012247
-0.00123811
0.00863546
0.0166384
0.0221219
0.0247434
0.0247723
0.0228374
0.0199832
0.00231009
0.00209447
0.00189776
0.00172723
0.0015694
0.00142138
0.00128011
0.00114368
0.00101132
0.000883176
0.00076
0.000642856
0.000532799
0.000430571
0.000336291
0.000249117
0.000166861
8.55525e-05
-1.10587e-06
-0.000102354
-0.000231083
-0.000404611
-0.000645432
-0.000981922
-0.00144883
-0.00208741
-0.00294507
-0.00407422
-0.00553042
-0.00736951
-0.00964395
-0.0123984
-0.0156659
-0.0194665
-0.0237859
-0.028578
-0.0338415
-0.0394861
-0.0454202
-0.0515429
-0.0577429
-0.063905
-0.0699143
-0.0756604
-0.0810411
-0.0859646
-0.090351
-0.0941331
-0.0972567
-0.0996791
-0.101369
-0.102302
-0.102464
-0.101842
-0.100426
-0.0982071
-0.0951714
-0.0913019
-0.0865751
-0.0809614
-0.0744268
-0.0669381
-0.0584734
-0.0490407
-0.0387081
-0.0276501
-0.0162015
-0.00486927
0.00545895
0.0140316
0.020119
0.0232356
0.0235541
0.0216775
0.0187273
0.00243543
0.0021964
0.00198176
0.00179946
0.00163345
0.00147997
0.00133522
0.00119684
0.00106388
0.000936462
0.000815443
0.000702037
0.000597457
0.000502568
0.000417541
0.000341489
0.000272049
0.000204911
0.000133248
4.70621e-05
-6.75452e-05
-0.000229181
-0.000461889
-0.00079585
-0.00126781
-0.00192115
-0.00280532
-0.00397463
-0.00548613
-0.00739655
-0.00975855
-0.012616
-0.0160007
-0.0199348
-0.0243938
-0.0293141
-0.0347239
-0.0405139
-0.0465858
-0.0528388
-0.0591602
-0.0654335
-0.0715434
-0.0773797
-0.0828407
-0.0878355
-0.0922857
-0.0961259
-0.0993035
-0.101778
-0.10352
-0.104508
-0.104729
-0.104173
-0.102833
-0.100701
-0.0977661
-0.094013