/*--------------------------------*- C++ -*----------------------------------*\
  =========                 |
  \\      /  F ield         | OpenFOAM: The Open Source CFD Toolbox
   \\    /   O peration     | Website:  https://openfoam.org
    \\  /    A nd           | Version:  12
     \\/     M anipulation  |
\*---------------------------------------------------------------------------*/
FoamFile
{
    format      ascii;
    class       surfaceScalarField;
    location    "9";
    object      phi;
}
// * * * * * * * * * * * * * * * * * * * * * * * * * * * * * * * * * * * * * //

dimensions      [0 3 -1 0 0 0 0];

internalField   nonuniform List<scalar> 
11100
(
-2.74446e-11
2.74067e-11
4.47729e-10
-4.75214e-10
1.35361e-09
-9.05925e-10
2.52295e-09
-1.16935e-09
3.82082e-09
-1.29788e-09
5.14704e-09
-1.32621e-09
6.43139e-09
-1.28435e-09
7.62674e-09
-1.19535e-09
8.70311e-09
-1.07637e-09
9.64292e-09
-9.3981e-10
1.04372e-08
-7.94276e-10
1.10825e-08
-6.45302e-10
1.15785e-08
-4.96012e-10
1.19261e-08
-3.47559e-10
1.21253e-08
-1.99271e-10
1.21752e-08
-4.98878e-11
1.20712e-08
1.03989e-10
1.18049e-08
2.66325e-10
1.13633e-08
4.41596e-10
1.07279e-08
6.35408e-10
9.87393e-09
8.53966e-10
8.76953e-09
1.1044e-09
7.3755e-09
1.39402e-09
5.64422e-09
1.73128e-09
3.5195e-09
2.12472e-09
9.35838e-10
2.58366e-09
-2.18173e-09
3.11756e-09
-5.91796e-09
3.73623e-09
-1.03673e-08
4.44933e-09
-1.56332e-08
5.26587e-09
-2.18273e-08
6.1941e-09
-2.90682e-08
7.24095e-09
-3.74794e-08
8.41114e-09
-4.71858e-08
9.70641e-09
-5.83103e-08
1.11245e-08
-7.09686e-08
1.26583e-08
-8.52629e-08
1.42943e-08
-1.01275e-07
1.60121e-08
-1.19058e-07
1.77827e-08
-1.38626e-07
1.95685e-08
-1.59948e-07
2.13219e-08
-1.82934e-07
2.29858e-08
-2.07427e-07
2.44935e-08
-2.33197e-07
2.57695e-08
-2.59928e-07
2.67309e-08
-2.87217e-07
2.72894e-08
-3.14571e-07
2.73534e-08
-3.41402e-07
2.68317e-08
-3.67039e-07
2.56371e-08
-3.90731e-07
2.36912e-08
-4.11656e-07
2.0925e-08
-4.28909e-07
1.72538e-08
-4.41621e-07
1.27112e-08
-4.49079e-07
7.45835e-09
-4.50443e-07
1.36384e-09
-4.44991e-07
-5.45132e-09
-4.32359e-07
-1.26324e-08
-4.12371e-07
-1.99883e-08
-3.85206e-07
-2.71649e-08
-3.51439e-07
-3.37668e-08
-3.12071e-07
-3.93678e-08
-2.68521e-07
-4.35501e-08
-2.22568e-07
-4.59532e-08
-1.76241e-07
-4.63268e-08
-1.31662e-07
-4.45794e-08
-9.08525e-08
-4.08093e-08
-5.55447e-08
-3.53078e-08
-2.70142e-08
-2.85305e-08
-5.97533e-09
-2.10388e-08
7.46076e-09
-1.34361e-08
1.37496e-08
-6.28888e-09
1.39185e-08
-1.68834e-10
9.61683e-09
4.30165e-09
3.57967e-09
6.03715e-09
3.57967e-09
2.82993e-10
-2.55656e-10
1.70829e-09
-1.90059e-09
4.13798e-09
-3.33567e-09
7.22175e-09
-4.25314e-09
1.06393e-08
-4.71541e-09
1.41366e-08
-4.82356e-09
1.75265e-08
-4.67424e-09
2.06776e-08
-4.34637e-09
2.35019e-08
-3.90077e-09
2.59445e-08
-3.38239e-09
2.79731e-08
-2.8229e-09
2.95707e-08
-2.24288e-09
3.07287e-08
-1.654e-09
3.14416e-08
-1.0605e-09
3.17024e-08
-4.60051e-10
3.14997e-08
1.528e-10
3.08125e-08
7.91254e-10
2.96087e-08
1.47013e-09
2.78431e-08
2.20714e-09
2.54543e-08
3.02418e-09
2.2363e-08
3.94534e-09
1.84695e-08
4.99784e-09
1.3653e-08
6.21059e-09
7.76908e-09
7.61515e-09
6.49449e-10
9.24435e-09
-7.90042e-09
1.11335e-08
-1.81016e-08
1.33188e-08
-3.02003e-08
1.58349e-08
-4.44664e-08
1.87155e-08
-6.1193e-08
2.19924e-08
-8.06919e-08
2.56931e-08
-1.03288e-07
2.98375e-08
-1.29313e-07
3.44361e-08
-1.59093e-07
3.94864e-08
-1.92938e-07
4.49689e-08
-2.31123e-07
5.08437e-08
-2.73875e-07
5.70464e-08
-3.21347e-07
6.34841e-08
-3.73597e-07
7.00328e-08
-4.30564e-07
7.65351e-08
-4.92041e-07
8.27991e-08
-5.57655e-07
8.85996e-08
-6.26842e-07
9.36802e-08
-6.9883e-07
9.77578e-08
-7.72629e-07
1.00529e-07
-8.47019e-07
1.0168e-07
-9.20561e-07
1.00895e-07
-9.91597e-07
9.7868e-08
-1.05828e-06
9.23218e-08
-1.11861e-06
8.40197e-08
-1.17046e-06
7.27797e-08
-1.21167e-06
5.84611e-08
-1.23993e-06
4.09723e-08
-1.25354e-06
2.10638e-08
-1.25073e-06
-1.44371e-09
-1.23011e-06
-2.60729e-08
-1.19079e-06
-5.19528e-08
-1.1327e-06
-7.80756e-08
-1.05658e-06
-1.03289e-07
-9.64081e-07
-1.26264e-07
-8.57863e-07
-1.45586e-07
-7.4153e-07
-1.59883e-07
-6.19504e-07
-1.67979e-07
-4.96773e-07
-1.69057e-07
-3.78537e-07
-1.62816e-07
-2.69778e-07
-1.49568e-07
-1.74823e-07
-1.30263e-07
-9.69462e-08
-1.06408e-07
-3.80885e-08
-7.98965e-08
1.27522e-09
-5.27998e-08
2.22032e-08
-2.72169e-08
2.71919e-08
-5.15752e-09
2.04384e-08
1.10552e-08
8.30074e-09
1.81748e-08
1.18804e-08
7.24862e-10
-9.80465e-10
3.0842e-09
-4.25994e-09
6.82131e-09
-7.07281e-09
1.14775e-08
-8.90939e-09
1.66101e-08
-9.84798e-09
2.18527e-08
-1.00662e-08
2.69252e-08
-9.74674e-09
3.16246e-08
-9.0457e-09
3.58103e-08
-8.0865e-09
3.93898e-08
-6.9619e-09
4.23049e-08
-5.738e-09
4.452e-08
-4.45802e-09
4.60125e-08
-3.14646e-09
4.6764e-08
-1.812e-09
4.67538e-08
-4.49826e-10
4.59527e-08
9.53825e-10
4.43171e-08
2.4269e-09
4.17855e-08
4.00172e-09
3.82745e-08
5.71811e-09
3.36747e-08
7.62401e-09
2.78474e-08
9.77267e-09
2.06224e-08
1.22228e-08
1.17949e-08
1.50382e-08
1.12251e-09
1.82875e-08
-1.16769e-08
2.20437e-08
-2.69242e-08
2.63808e-08
-4.49788e-08
3.13734e-08
-6.62393e-08
3.70953e-08
-9.11402e-08
4.36164e-08
-1.20147e-07
5.09991e-08
-1.53748e-07
5.92941e-08
-1.92445e-07
6.85341e-08
-2.36737e-07
7.87282e-08
-2.87104e-07
8.98542e-08
-3.43986e-07
1.01851e-07
-4.07751e-07
1.14609e-07
-4.7867e-07
1.27965e-07
-5.56879e-07
1.41693e-07
-6.42345e-07
1.555e-07
-7.34831e-07
1.69021e-07
-8.33856e-07
1.81824e-07
-9.38667e-07
1.9341e-07
-1.04821e-06
2.03223e-07
-1.16111e-06
2.10662e-07
-1.27568e-06
2.15098e-07
-1.3899e-06
2.15894e-07
-1.50143e-06
2.12427e-07
-1.60768e-06
2.04119e-07
-1.70582e-06
1.90462e-07
-1.79285e-06
1.71054e-07
-1.8657e-06
1.4563e-07
-1.92133e-06
1.14086e-07
-1.95655e-06
7.61957e-08
-1.96907e-06
3.35857e-08
-1.9567e-06
-1.38169e-08
-1.91765e-06
-6.51272e-08
-1.85114e-06
-1.18456e-07
-1.7574e-06
-1.7182e-07
-1.63776e-06
-2.22928e-07
-1.49484e-06
-2.69178e-07
-1.33259e-06
-3.0784e-07
-1.15619e-06
-3.3628e-07
-9.71935e-07
-3.52238e-07
-7.86851e-07
-3.54141e-07
-6.08283e-07
-3.41384e-07
-4.43315e-07
-3.14536e-07
-2.98182e-07
-2.75396e-07
-1.77719e-07
-2.26871e-07
-8.49309e-08
-1.72684e-07
-2.07309e-08
-1.17e-07
1.61569e-08
-6.41048e-08
2.92549e-08
-1.82555e-08
2.45063e-08
1.58038e-08
1.06229e-08
3.20583e-08
2.25033e-08
1.16957e-09
-2.15007e-09
4.4021e-09
-7.49251e-09
9.26466e-09
-1.19354e-08
1.52108e-08
-1.48555e-08
2.17133e-08
-1.63506e-08
2.83257e-08
-1.66786e-08
3.46971e-08
-1.61181e-08
4.05661e-08
-1.49148e-08
4.57466e-08
-1.3267e-08
5.01109e-08
-1.13262e-08
5.35738e-08
-9.20089e-09
5.60783e-08
-6.96255e-09
5.75832e-08
-4.6514e-09
5.80524e-08
-2.28116e-09
5.74458e-08
1.56816e-10
5.57104e-08
2.68914e-09
5.2775e-08
5.36236e-09
4.85432e-08
8.23353e-09
4.28882e-08
1.13731e-08
3.56484e-08
1.48638e-08
2.6623e-08
1.87981e-08
1.55675e-08
2.32783e-08
2.1893e-09
2.84164e-08
-1.38525e-08
3.43293e-08
-3.2949e-08
4.11402e-08
-5.55433e-08
4.89751e-08
-8.21298e-08
5.79599e-08
-1.13251e-07
6.82163e-08
-1.49491e-07
7.98568e-08
-1.9147e-07
9.29782e-08
-2.39829e-07
1.07653e-07
-2.95213e-07
1.23918e-07
-3.58252e-07
1.41768e-07
-4.29532e-07
1.61134e-07
-5.09562e-07
1.8188e-07
-5.98736e-07
2.03783e-07
-6.97292e-07
2.26521e-07
-8.05265e-07
2.49666e-07
-9.22441e-07
2.72676e-07
-1.04831e-06
2.94892e-07
-1.18203e-06
3.15546e-07
-1.3224e-06
3.33772e-07
-1.46779e-06
3.48621e-07
-1.61622e-06
3.59092e-07
-1.76529e-06
3.64159e-07
-1.9122e-06
3.6281e-07
-2.05386e-06
3.5409e-07
-2.18689e-06
3.37141e-07
-2.30768e-06
3.1125e-07
-2.41252e-06
2.75901e-07
-2.49771e-06
2.30821e-07
-2.55964e-06
1.76011e-07
-2.5951e-06
1.11654e-07
-2.60106e-06
3.95446e-08
-2.57526e-06
-3.96109e-08
-2.51619e-06
-1.24202e-07
-2.42327e-06
-2.11371e-07
-2.29712e-06
-2.97978e-07
-2.13964e-06
-3.80404e-07
-1.95421e-06
-4.54611e-07
-1.74566e-06
-5.16387e-07
-1.52026e-06
-5.61675e-07
-1.28552e-06
-5.86987e-07
-1.0498e-06
-5.8986e-07
-8.21885e-07
-5.69296e-07
-6.10336e-07
-5.26086e-07
-4.22799e-07
-4.62933e-07
-2.65356e-07
-3.84314e-07
-1.41962e-07
-2.96078e-07
-5.4066e-08
-2.04896e-07
-4.15045e-10
-1.17756e-07
2.31128e-08
-4.17834e-08
2.35054e-08
1.54112e-08
1.10012e-08
4.45624e-08
3.35045e-08
1.57022e-09
-3.72024e-09
5.57614e-09
-1.14984e-08
1.13882e-08
-1.77475e-08
1.83734e-08
-2.18407e-08
2.59406e-08
-2.39177e-08
3.35852e-08
-2.43231e-08
4.09038e-08
-2.34367e-08
4.75894e-08
-2.16004e-08
5.34175e-08
-1.90951e-08
5.82288e-08
-1.61375e-08
6.19119e-08
-1.28839e-08
6.43866e-08
-9.43721e-09
6.55901e-08
-5.85497e-09
6.54646e-08
-2.15562e-09
6.39457e-08
1.67567e-09
6.09529e-08
5.68198e-09
5.63819e-08
9.93333e-09
5.00971e-08
1.45183e-08
4.19246e-08
1.95456e-08
3.16466e-08
2.51417e-08
1.89954e-08
3.14493e-08
3.64974e-09
3.8624e-08
-1.47682e-08
4.68343e-08
-3.66969e-08
5.6258e-08
-6.26367e-08
6.708e-08
-9.31495e-08
7.9488e-08
-1.28857e-07
9.3667e-08
-1.70433e-07
1.09793e-07
-2.186e-07
1.28024e-07
-2.7411e-07
1.48488e-07
-3.3773e-07
1.71273e-07
-4.10219e-07
1.96407e-07
-4.92294e-07
2.23842e-07
-5.84595e-07
2.53436e-07
-6.87644e-07
2.84929e-07
-8.01792e-07
3.17931e-07
-9.27168e-07
3.51897e-07
-1.06362e-06
3.86122e-07
-1.21068e-06
4.19731e-07
-1.36748e-06
4.51689e-07
-1.53273e-06
4.80804e-07
-1.70473e-06
5.05763e-07
-1.88126e-06
5.25159e-07
-2.05971e-06
5.37538e-07
-2.237e-06
5.41448e-07
-2.40969e-06
5.35501e-07
-2.57403e-06
5.18427e-07
-2.72603e-06
4.89143e-07
-2.86158e-06
4.46805e-07
-2.97656e-06
3.90879e-07
-3.06694e-06
3.21197e-07
-3.12894e-06
2.38014e-07
-3.15931e-06
1.42021e-07
-3.15502e-06
3.5256e-08
-3.11394e-06
-8.06838e-08
-3.03487e-06
-2.03273e-07
-2.91758e-06
-3.28667e-07
-2.76304e-06
-4.52516e-07
-2.57362e-06
-5.69819e-07
-2.35318e-06
-6.75052e-07
-2.1071e-06
-7.62468e-07
-1.84226e-06
-8.26516e-07
-1.56686e-06
-8.62386e-07
-1.29011e-06
-8.66616e-07
-1.0217e-06
-8.37697e-07
-7.71246e-07
-7.76543e-07
-5.47463e-07
-6.86715e-07
-3.57479e-07
-5.74298e-07
-2.06138e-07
-4.47419e-07
-9.54987e-08
-3.15535e-07
-2.45289e-08
-1.88726e-07
1.10407e-08
-7.73529e-08
1.88463e-08
7.60557e-09
1.00197e-08
5.33891e-08
4.35242e-08
1.90841e-09
-5.62868e-09
6.56564e-09
-1.61557e-08
1.31502e-08
-2.43321e-08
2.09415e-08
-2.96321e-08
2.92948e-08
-3.2271e-08
3.76626e-08
-3.26909e-08
4.5603e-08
-3.13771e-08
5.27744e-08
-2.87717e-08
5.89212e-08
-2.5242e-08
6.38567e-08
-2.1073e-08
6.74443e-08
-1.64716e-08
6.95802e-08
-1.15731e-08
7.01786e-08
-6.45328e-09
6.91565e-08
-1.1336e-09
6.64221e-08
4.41014e-09
6.18631e-08
1.0241e-08
5.53387e-08
1.64576e-08
4.66699e-08
2.31872e-08
3.56311e-08
3.05844e-08
2.19453e-08
3.88275e-08
5.27783e-09
4.81168e-08
-1.47696e-08
5.86715e-08
-3.86625e-08
7.07272e-08
-6.69361e-08
8.45315e-08
-1.00196e-07
1.0034e-07
-1.39117e-07
1.18409e-07
-1.8444e-07
1.38989e-07
-2.36959e-07
1.62312e-07
-2.97514e-07
1.88579e-07
-3.66971e-07
2.17945e-07
-4.46194e-07
2.50496e-07
-5.36018e-07
2.8623e-07
-6.37203e-07
3.25028e-07
-7.50395e-07
3.66627e-07
-8.76065e-07
4.106e-07
-1.01445e-06
4.5632e-07
-1.16551e-06
5.02952e-07
-1.32882e-06
5.49434e-07
-1.50357e-06
5.94483e-07
-1.68849e-06
6.36601e-07
-1.88179e-06
6.74109e-07
-2.08121e-06
7.05188e-07
-2.28399e-06
7.27933e-07
-2.48687e-06
7.40425e-07
-2.68623e-06
7.40802e-07
-2.87807e-06
7.27339e-07
-3.05817e-06
6.98526e-07
-3.22217e-06
6.53142e-07
-3.36569e-06
5.90327e-07
-3.48446e-06
5.09648e-07
-3.57443e-06
4.1117e-07
-3.63194e-06
2.95519e-07
-3.65385e-06
1.63939e-07
-3.63745e-06
1.88561e-08
-3.58089e-06
-1.37251e-07
-3.48327e-06
-3.00889e-07
-3.34469e-06
-4.67246e-07
-3.16642e-06
-6.30793e-07
-2.95105e-06
-7.85184e-07
-2.70266e-06
-9.23441e-07
-2.42684e-06
-1.03829e-06
-2.13072e-06
-1.12264e-06
-1.82279e-06
-1.17031e-06
-1.51271e-06
-1.1767e-06
-1.21078e-06
-1.13963e-06
-9.27329e-07
-1.05999e-06
-6.71981e-07
-9.42064e-07
-4.52785e-07
-7.93494e-07
-2.7546e-07
-6.24744e-07
-1.42766e-07
-4.48229e-07
-5.40883e-08
-2.77403e-07
-5.23812e-09
-1.26203e-07
1.16422e-08
-9.2747e-09
8.13056e-09
5.69006e-08
5.16547e-08
2.17834e-09
-7.807e-09
7.35443e-09
-2.13318e-08
1.45333e-08
-3.1511e-08
2.29086e-08
-3.80073e-08
3.17881e-08
-4.11505e-08
4.05918e-08
-4.14946e-08
4.88502e-08
-3.96355e-08
5.61961e-08
-3.61176e-08
6.23496e-08
-3.13955e-08
6.71007e-08
-2.58241e-08
7.02896e-08
-1.96605e-08
7.17903e-08
-1.30738e-08
7.14918e-08
-6.15483e-09
6.9284e-08
1.07424e-09
6.50447e-08
8.64946e-09
5.86271e-08
1.66586e-08
4.98496e-08
2.52351e-08
3.84867e-08
3.45501e-08
2.42605e-08
4.48107e-08
6.83274e-09
5.62552e-08
-1.4201e-08
6.91505e-08
-3.9317e-08
8.37875e-08
-6.90671e-08
1.00477e-07
-1.04081e-07
1.19545e-07
-1.45064e-07
1.41324e-07
-1.92799e-07
1.66144e-07
-2.48132e-07
1.94322e-07
-3.11966e-07
2.26146e-07
-3.85241e-07
2.61854e-07
-4.68908e-07
3.01612e-07
-5.639e-07
3.45488e-07
-6.71087e-07
3.93417e-07
-7.9123e-07
4.45171e-07
-9.24923e-07
5.0032e-07
-1.07253e-06
5.58205e-07
-1.23411e-06
6.179e-07
-1.40936e-06
6.78203e-07
-1.59755e-06
7.37623e-07
-1.79745e-06
7.94388e-07
-2.00733e-06
8.4648e-07
-2.2249e-06
8.91679e-07
-2.44735e-06
9.27631e-07
-2.67135e-06
9.51934e-07
-2.89315e-06
9.62227e-07
-3.10864e-06
9.56295e-07
-3.31346e-06
9.32161e-07
-3.50312e-06
8.8818e-07
-3.67309e-06
8.23119e-07
-3.81899e-06
7.36226e-07
-3.93664e-06
6.27298e-07
-4.02221e-06
4.96739e-07
-4.07232e-06
3.45628e-07
-4.08416e-06
1.75782e-07
-4.05541e-06
-9.90045e-09
-3.98454e-06
-2.08116e-07
-3.87097e-06
-4.14463e-07
-3.71498e-06
-6.23236e-07
-3.51796e-06
-8.27812e-07
-3.28254e-06
-1.0206e-06
-3.01273e-06
-1.19325e-06
-2.71405e-06
-1.33697e-06
-2.39353e-06
-1.44316e-06
-2.05972e-06
-1.50412e-06
-1.72242e-06
-1.514e-06
-1.3923e-06
-1.46975e-06
-1.08028e-06
-1.372e-06
-7.96766e-07
-1.22558e-06
-5.50692e-07
-1.03957e-06
-3.48689e-07
-8.26747e-07
-1.94311e-07
-6.02608e-07
-8.75197e-08
-3.84194e-07
-2.44344e-08
-1.89288e-07
2.73537e-09
-3.64445e-08
5.67117e-09
5.39648e-08
5.73259e-08
2.38056e-09
-1.01876e-08
7.94018e-09
-2.68914e-08
1.55355e-08
-3.91063e-08
2.428e-08
-4.67518e-08
3.34395e-08
-5.03101e-08
4.24088e-08
-5.04639e-08
5.06991e-08
-4.79257e-08
5.79252e-08
-4.33437e-08
6.37893e-08
-3.72597e-08
6.80622e-08
-3.0097e-08
7.05638e-08
-2.21621e-08
7.11453e-08
-1.36553e-08
6.96704e-08
-4.67997e-09
6.6001e-08
4.74366e-09
5.99822e-08
1.46683e-08
5.14299e-08
2.52108e-08
4.01208e-08
3.65443e-08
2.57804e-08
4.88904e-08
8.07549e-09
6.25156e-08
-1.33948e-08
7.77255e-08
-3.91049e-08
9.48606e-08
-6.96084e-08
1.14291e-07
-1.05542e-07
1.3641e-07
-1.47625e-07
1.61628e-07
-1.96659e-07
1.90358e-07
-2.53523e-07
2.23008e-07
-3.19159e-07
2.59959e-07
-3.94561e-07
3.01548e-07
-4.80745e-07
3.48039e-07
-5.78725e-07
3.99592e-07
-6.89464e-07
4.56227e-07
-8.13831e-07
5.17784e-07
-9.52537e-07
5.83876e-07
-1.10607e-06
6.53854e-07
-1.27462e-06
7.26759e-07
-1.45802e-06
8.013e-07
-1.65565e-06
8.75832e-07
-1.86639e-06
9.48364e-07
-2.08858e-06
1.01658e-06
-2.31999e-06
1.07789e-06
-2.55783e-06
1.12951e-06
-2.79875e-06
1.16856e-06
-3.03899e-06
1.19217e-06
-3.27436e-06
1.1976e-06
-3.50046e-06
1.18239e-06
-3.7127e-06
1.14441e-06
-3.90655e-06
1.08202e-06
-4.07754e-06
9.94115e-07
-4.22149e-06
8.80172e-07
-4.33452e-06
7.40324e-07
-4.41317e-06
5.75397e-07
-4.4545e-06
3.86957e-07
-4.4561e-06
1.77379e-07
-4.41605e-06
-4.99555e-08
-4.33314e-06
-2.91019e-07
-4.20697e-06
-5.40636e-07
-4.03789e-06
-7.92317e-07
-3.82721e-06
-1.03849e-06
-3.57738e-06
-1.27043e-06
-3.29211e-06
-1.47852e-06
-2.97657e-06
-1.65251e-06
-2.63749e-06
-1.78224e-06
-2.2832e-06
-1.85841e-06
-1.92349e-06
-1.87371e-06
-1.56924e-06
-1.824e-06
-1.23189e-06
-1.70936e-06
-9.22547e-07
-1.53492e-06
-6.51095e-07
-1.31102e-06
-4.25132e-07
-1.05271e-06
-2.4912e-07
-7.7862e-07
-1.23751e-07
-5.09564e-07
-4.5633e-08
-2.67406e-07
-7.26485e-09
-7.48126e-08
2.88077e-09
4.38192e-08
6.02067e-08
2.51871e-09
-1.27063e-08
8.32828e-09
-3.2701e-08
1.61642e-08
-4.69421e-08
2.50692e-08
-5.56568e-08
3.42728e-08
-5.95137e-08
4.31506e-08
-5.93418e-08
5.12013e-08
-5.59765e-08
5.80286e-08
-5.01709e-08
6.33218e-08
-4.25529e-08
6.68366e-08
-3.36118e-08
6.83752e-08
-2.37007e-08
6.77667e-08
-1.30469e-08
6.48503e-08
-1.76352e-09
5.94583e-08
1.01356e-08
5.14023e-08
2.27243e-08
4.04598e-08
3.61533e-08
2.63629e-08
5.06412e-08
8.78711e-09
6.64662e-08
-1.26575e-08
8.39603e-08
-3.84348e-08
1.03503e-07
-6.90889e-08
1.25515e-07
-1.05249e-07
1.50451e-07
-1.47634e-07
1.78795e-07
-1.97047e-07
2.11042e-07
-2.5438e-07
2.4769e-07
-3.20595e-07
2.89223e-07
-3.96718e-07
3.36082e-07
-4.83813e-07
3.88643e-07
-5.82952e-07
4.47178e-07
-6.95177e-07
5.11817e-07
-8.2145e-07
5.825e-07
-9.62592e-07
6.58926e-07
-1.11922e-06
7.40502e-07
-1.29166e-06
8.26293e-07
-1.47988e-06
9.14981e-07
-1.68341e-06
1.00483e-06
-1.90128e-06
1.0937e-06
-2.13194e-06
1.17903e-06
-2.37328e-06
1.25791e-06
-2.62257e-06
1.32718e-06
-2.87653e-06
1.38348e-06
-3.13141e-06
1.42344e-06
-3.38303e-06
1.44379e-06
-3.62697e-06
1.44154e-06
-3.85864e-06
1.41406e-06
-4.07349e-06
1.35926e-06
-4.26709e-06
1.27561e-06
-4.43524e-06
1.16227e-06
-4.57412e-06
1.01906e-06
-4.68032e-06
8.4652e-07
-4.75086e-06
6.45939e-07
-4.78327e-06
4.19365e-07
-4.77556e-06
1.69672e-07
-4.72619e-06
-9.93275e-08
-4.63419e-06
-3.83024e-07
-4.49919e-06
-6.75637e-07
-4.32146e-06
-9.70038e-07
-4.10209e-06
-1.25786e-06
-3.8431e-06
-1.52942e-06
-3.54773e-06
-1.7739e-06
-3.22058e-06
-1.97966e-06
-2.8679e-06
-2.13492e-06
-2.49762e-06
-2.22869e-06
-2.11935e-06
-2.25198e-06
-1.7441e-06
-2.19924e-06
-1.38374e-06
-2.06972e-06
-1.05015e-06
-1.86851e-06
-7.54164e-07
-1.607e-06
-5.04481e-07
-1.30239e-06
-3.06599e-07
-9.76502e-07
-1.6209e-07
-6.54072e-07
-6.82192e-08
-3.61277e-07
-1.79438e-08
-1.25088e-07
-1.01335e-10
2.59767e-08
6.01053e-08
2.59758e-09
-1.53039e-08
8.52789e-09
-3.86313e-08
1.64321e-08
-5.48464e-08
2.52943e-08
-6.45189e-08
3.43142e-08
-6.85335e-08
4.28543e-08
-6.78818e-08
5.04066e-08
-6.35288e-08
5.65691e-08
-5.63334e-08
6.10234e-08
-4.70072e-08
6.3514e-08
-3.61024e-08
6.38274e-08
-2.40141e-08
6.17727e-08
-1.09922e-08
5.71644e-08
2.84481e-09
4.98054e-08
1.74946e-08
3.94729e-08
3.30568e-08
2.59046e-08
4.97216e-08
8.78728e-09
6.77585e-08
-1.22545e-08
8.7508e-08
-3.76677e-08
1.09373e-07
-6.79788e-08
1.33814e-07
-1.038e-07
1.61336e-07
-1.45835e-07
1.92486e-07
-1.94878e-07
2.27837e-07
-2.51812e-07
2.67976e-07
-3.17607e-07
3.13485e-07
-3.93299e-07
3.64915e-07
-4.7998e-07
4.22763e-07
-5.78763e-07
4.87426e-07
-6.90749e-07
5.59164e-07
-8.16979e-07
6.38046e-07
-9.58372e-07
7.23893e-07
-1.11566e-06
8.16216e-07
-1.28932e-06
9.14158e-07
-1.47946e-06
1.01644e-06
-1.68578e-06
1.1213e-06
-1.90748e-06
1.22653e-06
-2.14317e-06
1.32939e-06
-2.39087e-06
1.42674e-06
-2.64801e-06
1.51505e-06
-2.9114e-06
1.59057e-06
-3.17735e-06
1.64943e-06
-3.44176e-06
1.68784e-06
-3.7002e-06
1.70224e-06
-3.94813e-06
1.68947e-06
-4.18101e-06
1.64694e-06
-4.39443e-06
1.57268e-06
-4.58427e-06
1.46545e-06
-4.74677e-06
1.32477e-06
-4.87859e-06
1.15088e-06
-4.97684e-06
9.44776e-07
-5.0391e-06
7.08198e-07
-5.06336e-06
4.43625e-07
-5.04803e-06
1.54345e-07
-4.99186e-06
-1.55498e-07
-4.894e-06
-4.80885e-07
-4.75403e-06
-8.1561e-07
-4.57199e-06
-1.15208e-06
-4.34856e-06
-1.48129e-06
-4.08523e-06
-1.79276e-06
-3.78455e-06
-2.07457e-06
-3.45045e-06
-2.31376e-06
-3.08848e-06
-2.49689e-06
-2.70604e-06
-2.61113e-06
-2.31243e-06
-2.64559e-06
-1.91871e-06
-2.59297e-06
-1.53711e-06
-2.45131e-06
-1.18031e-06
-2.22532e-06
-8.60192e-07
-1.92712e-06
-5.86672e-07
-1.57591e-06
-3.66449e-07
-1.19672e-06
-2.02139e-07
-8.18382e-07
-9.1818e-08
-4.71598e-07
-2.904e-08
-1.87866e-07
-3.1263e-09
6.30067e-11
5.6979e-08
2.62211e-09
-1.7926e-08
8.54954e-09
-4.45588e-08
1.63545e-08
-6.26514e-08
2.49756e-08
-7.314e-08
3.35911e-08
-7.7149e-08
4.15562e-08
-7.58469e-08
4.8362e-08
-7.03346e-08
5.36059e-08
-6.15772e-08
5.69662e-08
-5.03676e-08
5.81796e-08
-3.73158e-08
5.70196e-08
-2.2854e-08
5.32769e-08
-7.24956e-09
4.67421e-08
9.37963e-09
3.71888e-08
2.70478e-08
2.43594e-08
4.58862e-08
7.95157e-09
6.61294e-08
-1.23938e-08
8.81039e-08
-3.71032e-08
1.12217e-07
-6.66802e-08
1.3895e-07
-1.01713e-07
1.68846e-07
-1.42879e-07
2.02503e-07
-1.90952e-07
2.40559e-07
-2.46797e-07
2.83682e-07
-3.11369e-07
3.32549e-07
-3.85703e-07
3.87819e-07
-4.70898e-07
4.5011e-07
-5.68091e-07
5.19955e-07
-6.78422e-07
5.97757e-07
-8.02993e-07
6.83735e-07
-9.42809e-07
7.77862e-07
-1.09871e-06
8.79795e-07
-1.2713e-06
9.88806e-07
-1.46086e-06
1.10371e-06
-1.66725e-06
1.22282e-06
-1.88984e-06
1.3439e-06
-2.12747e-06
1.46415e-06
-2.37834e-06
1.58025e-06
-2.64002e-06
1.68842e-06
-2.90949e-06
1.78453e-06
-3.18319e-06
1.86426e-06
-3.45708e-06
1.92332e-06
-3.72682e-06
1.95758e-06
-3.9879e-06
1.96332e-06
-4.23581e-06
1.93738e-06
-4.46618e-06
1.87731e-06
-4.67495e-06
1.78145e-06
-4.85843e-06
1.64893e-06
-5.01339e-06
1.47972e-06
-5.13705e-06
1.27454e-06
-5.22711e-06
1.03483e-06
-5.28165e-06
7.62739e-07
-5.29911e-06
4.61088e-07
-5.27824e-06
1.33473e-07
-5.21798e-06
-2.15761e-07
-5.1175e-06
-5.81359e-07
-4.97623e-06
-9.5688e-07
-4.79388e-06
-1.33443e-06
-4.57062e-06
-1.70456e-06
-4.30726e-06
-2.05611e-06
-4.00559e-06
-2.37624e-06
-3.6687e-06
-2.65065e-06
-3.30133e-06
-2.86427e-06
-2.91018e-06
-3.00228e-06
-2.50414e-06
-3.05163e-06
-2.09414e-06
-3.00297e-06
-1.69281e-06
-2.85265e-06
-1.31357e-06
-2.60457e-06
-9.69469e-07
-2.27121e-06
-6.71777e-07
-1.87361e-06
-4.28575e-07
-1.43993e-06
-2.43712e-07
-1.00325e-06
-1.16236e-07
-5.99074e-07
-4.0421e-08
-2.63681e-07
-6.18963e-09
-3.41684e-08
5.07894e-08
2.59687e-09
-2.05229e-08
8.40371e-09
-5.03656e-08
1.59469e-08
-7.01945e-08
2.4134e-08
-8.13271e-08
3.21306e-08
-8.51455e-08
3.92915e-08
-8.30078e-08
4.51122e-08
-7.61552e-08
4.91944e-08
-6.56595e-08
5.12176e-08
-5.23907e-08
5.09138e-08
-3.7012e-08
4.80462e-08
-1.99864e-08
4.23888e-08
-1.59219e-09
3.37093e-08
1.80592e-08
2.17524e-08
3.90047e-08
6.22596e-09
6.14126e-08
-1.32125e-08
8.55678e-08
-3.69673e-08
1.11859e-07
-6.55158e-08
1.40766e-07
-9.94164e-08
1.72851e-07
-1.39317e-07
2.08747e-07
-1.85958e-07
2.49144e-07
-2.40176e-07
2.94777e-07
-3.02902e-07
3.46408e-07
-3.75152e-07
4.04798e-07
-4.58016e-07
4.70683e-07
-5.52635e-07
5.4473e-07
-6.60174e-07
6.27494e-07
-7.81776e-07
7.19359e-07
-9.18513e-07
8.20472e-07
-1.07132e-06
9.3067e-07
-1.24092e-06
1.0494e-06
-1.42775e-06
1.17563e-06
-1.63185e-06
1.30781e-06
-1.8528e-06
1.44377e-06
-2.08963e-06
1.58073e-06
-2.34075e-06
1.71528e-06
-2.60398e-06
1.84347e-06
-2.87646e-06
1.9609e-06
-3.15478e-06
2.06285e-06
-3.43506e-06
2.14454e-06
-3.71303e-06
2.20129e-06
-3.98425e-06
2.2288e-06
-4.24424e-06
2.22331e-06
-4.48869e-06
2.18182e-06
-4.71355e-06
2.10218e-06
-4.9152e-06
1.9831e-06
-5.0905e-06
1.82423e-06
-5.2368e-06
1.62602e-06
-5.35192e-06
1.38966e-06
-5.4341e-06
1.11702e-06
-5.48192e-06
8.10562e-07
-5.4942e-06
4.73366e-07
-5.46994e-06
1.09209e-07
-5.4082e-06
-2.77503e-07
-5.3081e-06
-6.81452e-07
-5.16884e-06
-1.09614e-06
-4.98973e-06
-1.51353e-06
-4.77037e-06
-1.92392e-06
-4.51085e-06
-2.31564e-06
-4.21208e-06
-2.675e-06
-3.87622e-06
-2.98651e-06
-3.50707e-06
-3.23342e-06
-3.11051e-06
-3.39884e-06
-2.69483e-06
-3.46731e-06
-2.27075e-06
-3.42704e-06
-1.85115e-06
-3.27226e-06
-1.4502e-06
-3.00551e-06
-1.0822e-06
-2.63921e-06
-7.59915e-07
-2.19589e-06
-4.93009e-07
-1.70683e-06
-2.86772e-07
-1.20948e-06
-1.41411e-07
-7.44436e-07
-5.20408e-08
-3.53051e-07
-9.25658e-09
-7.69526e-08
4.15328e-08
2.52583e-09
-2.30488e-08
8.10006e-09
-5.59399e-08
1.5224e-08
-7.73185e-08
2.27892e-08
-8.88923e-08
2.99582e-08
-9.23145e-08
3.60927e-08
-8.91423e-08
4.06984e-08
-8.07609e-08
4.33863e-08
-6.83474e-08
4.38407e-08
-5.28452e-08
4.17928e-08
-3.49641e-08
3.69974e-08
-1.51911e-08
2.9214e-08
6.19128e-09
1.81883e-08
2.90849e-08
3.63723e-09
5.35557e-08
-1.47653e-08
7.98151e-08
-3.74012e-08
1.08204e-07
-6.47197e-08
1.39177e-07
-9.72469e-08
1.73293e-07
-1.35595e-07
2.11199e-07
-1.80467e-07
2.53619e-07
-2.32662e-07
3.01339e-07
-2.93076e-07
3.55191e-07
-3.62694e-07
4.16026e-07
-4.42583e-07
4.84688e-07
-5.33875e-07
5.61974e-07
-6.37736e-07
6.48591e-07
-7.55335e-07
7.45093e-07
-8.87792e-07
8.51817e-07
-1.03612e-06
9.68802e-07
-1.20116e-06
1.0957e-06
-1.38347e-06
1.23171e-06
-1.58327e-06
1.37544e-06
-1.80036e-06
1.5249e-06
-2.03398e-06
1.67739e-06
-2.28279e-06
1.82954e-06
-2.54484e-06
1.97732e-06
-2.8175e-06
2.11614e-06
-3.09757e-06
2.24097e-06
-3.38132e-06
2.3466e-06
-3.66461e-06
2.42783e-06
-3.94308e-06
2.47976e-06
-4.21231e-06
2.49803e-06
-4.468e-06
2.479e-06
-4.70614e-06
2.41996e-06
-4.92313e-06
2.31917e-06
-5.11588e-06
2.17585e-06
-5.28182e-06
1.99018e-06
-5.41892e-06
1.76311e-06
-5.52557e-06
1.49631e-06
-5.60054e-06
1.19198e-06
-5.64282e-06
8.52841e-07
-5.65153e-06
4.82079e-07
-5.62587e-06
8.35524e-08
-5.56496e-06
-3.38413e-07
-5.46784e-06
-7.7858e-07
-5.33341e-06
-1.23056e-06
-5.16059e-06
-1.68636e-06
-4.94836e-06
-2.13614e-06
-4.69608e-06
-2.56792e-06
-4.40375e-06
-2.96733e-06
-4.07249e-06
-3.31776e-06
-3.70507e-06
-3.60085e-06
-3.30639e-06
-3.79751e-06
-2.88397e-06
-3.88973e-06
-2.44816e-06
-3.86286e-06
-2.01192e-06
-3.70849e-06
-1.59018e-06
-3.42725e-06
-1.19846e-06
-3.03093e-06
-8.5119e-07
-2.54316e-06
-5.59841e-07
-1.99818e-06
-3.31379e-07
-1.43794e-06
-1.67373e-07
-9.08441e-07
-6.39164e-08
-4.56508e-07
-1.23323e-08
-1.28537e-07
2.92005e-08
2.41225e-09
-2.54611e-08
7.64697e-09
-6.11746e-08
1.41994e-08
-8.3871e-08
2.09594e-08
-9.56523e-08
2.70975e-08
-9.84526e-08
3.19901e-08
-9.40349e-08
3.51589e-08
-8.39297e-08
3.62294e-08
-6.94178e-08
3.48947e-08
-5.15105e-08
3.08881e-08
-3.09575e-08
2.39591e-08
-8.26208e-09
1.38539e-08
1.62965e-08
2.98176e-10
4.26406e-08
-1.7018e-08
7.08719e-08
-3.84537e-08
1.01251e-07
-6.44293e-08
1.34179e-07
-9.54368e-08
1.70185e-07
-1.3205e-07
2.09906e-07
-1.7493e-07
2.54079e-07
-2.24834e-07
3.03522e-07
-2.82612e-07
3.59118e-07
-3.49212e-07
4.2179e-07
-4.25664e-07
4.92478e-07
-5.13075e-07
5.72098e-07
-6.12599e-07
6.61499e-07
-7.25412e-07
7.61404e-07
-8.52664e-07
8.72345e-07
-9.95427e-07
9.94579e-07
-1.15462e-06
1.128e-06
-1.33095e-06
1.27203e-06
-1.5248e-06
1.42556e-06
-1.73615e-06
1.58679e-06
-1.96448e-06
1.75323e-06
-2.20872e-06
1.92163e-06
-2.46715e-06
2.08798e-06
-2.73743e-06
2.2476e-06
-3.01658e-06
2.39529e-06
-3.30108e-06
2.52547e-06
-3.58695e-06
2.63247e-06
-3.86993e-06
2.71082e-06
-4.14567e-06
2.7555e-06
-4.40988e-06
2.76224e-06
-4.65856e-06
2.72768e-06
-4.88811e-06
2.64951e-06
-5.09546e-06
2.52651e-06
-5.27807e-06
2.35846e-06
-5.43398e-06
2.14609e-06
-5.56173e-06
1.89086e-06
-5.66025e-06
1.59483e-06
-5.72876e-06
1.2605e-06
-5.76663e-06
8.90714e-07
-5.77322e-06
4.88662e-07
-5.74785e-06
5.81861e-08
-5.68967e-06
-3.96598e-07
-5.59759e-06
-8.70651e-07
-5.4703e-06
-1.35785e-06
-5.30627e-06
-1.85039e-06
-5.10393e-06
-2.33848e-06
-4.86187e-06
-2.80998e-06
-4.57918e-06
-3.25002e-06
-4.25592e-06
-3.64103e-06
-3.89369e-06
-3.96307e-06
-3.49628e-06
-4.19493e-06
-3.07025e-06
-4.31576e-06
-2.62534e-06
-4.30777e-06
-2.17447e-06
-4.15936e-06
-1.73313e-06
-3.86859e-06
-1.31812e-06
-3.44594e-06
-9.45637e-07
-2.91564e-06
-6.29177e-07
-2.31464e-06
-3.77643e-07
-1.68948e-06
-1.94209e-07
-1.09188e-06
-7.61074e-08
-5.74609e-07
-1.54363e-08
-1.89208e-07
1.37642e-08
2.25874e-09
-2.77198e-08
7.05144e-09
-6.59673e-08
1.28845e-08
-8.9704e-08
1.86608e-08
-1.01428e-07
2.35696e-08
-1.03361e-07
2.70108e-08
-9.74761e-08
2.85285e-08
-8.54475e-08
2.77677e-08
-6.86569e-08
2.44345e-08
-4.81774e-08
1.82675e-08
-2.47904e-08
9.01315e-09
9.92253e-10
-3.59337e-09
2.8903e-08
-1.9845e-08
5.88923e-08
-4.00772e-08
9.11041e-08
-6.46804e-08
1.25854e-07
-9.41117e-08
1.63611e-07
-1.28904e-07
2.04977e-07
-1.69676e-07
2.50678e-07
-2.17135e-07
3.01538e-07
-2.72085e-07
3.58472e-07
-3.35423e-07
4.22456e-07
-4.08137e-07
4.94505e-07
-4.91296e-07
5.75637e-07
-5.86028e-07
6.66831e-07
-6.93499e-07
7.68969e-07
-8.14869e-07
8.82774e-07
-9.51249e-07
1.00873e-06
-1.10363e-06
1.14696e-06
-1.27283e-06
1.2972e-06
-1.45937e-06
1.45858e-06
-1.66343e-06
1.62962e-06
-1.88472e-06
1.80808e-06
-2.12242e-06
1.99093e-06
-2.3751e-06
2.1743e-06
-2.64069e-06
2.35357e-06
-2.91649e-06
2.52341e-06
-3.19922e-06
2.67801e-06
-3.48508e-06
2.81133e-06
-3.76997e-06
2.91736e-06
-4.04961e-06
2.99045e-06
-4.31975e-06
3.02564e-06
-4.57636e-06
3.01885e-06
-4.81582e-06
2.96714e-06
-5.03502e-06
2.86871e-06
-5.23143e-06
2.72291e-06
-5.4031e-06
2.53014e-06
-5.54864e-06
2.29164e-06
-5.66712e-06
2.00934e-06
-5.75794e-06
1.68565e-06
-5.82071e-06
1.32327e-06
-5.85513e-06
9.25137e-07
-5.86072e-06
4.94252e-07
-5.83694e-06
3.43992e-08
-5.7829e-06
-4.50633e-07
-5.69744e-06
-9.56106e-07
-5.57904e-06
-1.47626e-06
-5.42579e-06
-2.00363e-06
-5.23561e-06
-2.52867e-06
-5.00636e-06
-3.03923e-06
-4.73623e-06
-3.52015e-06
-4.42418e-06
-3.95307e-06
-4.07059e-06
-4.31666e-06
-3.67797e-06
-4.58755e-06
-3.25172e-06
-4.74201e-06
-2.80075e-06
-4.75875e-06
-2.33766e-06
-4.62245e-06
-1.87837e-06
-4.32788e-06
-1.44086e-06
-3.88345e-06
-1.04319e-06
-3.31331e-06
-7.01095e-07
-2.65674e-06
-4.25692e-07
-1.96488e-06
-2.22032e-07
-1.29554e-06
-8.8694e-08
-7.07948e-07
-1.85992e-08
-2.59302e-07
-4.83504e-09
2.06729e-09
-2.97872e-08
6.31901e-09
-7.02191e-08
1.12887e-08
-9.46737e-08
1.59067e-08
-1.06046e-07
1.93926e-08
-1.06847e-07
2.11787e-08
-9.92621e-08
2.08384e-08
-8.51072e-08
1.80415e-08
-6.586e-08
1.25113e-08
-4.26473e-08
3.99472e-09
-1.62738e-08
-7.76215e-09
1.27491e-08
-2.30332e-08
4.4174e-08
-4.21282e-08
7.79873e-08
-6.54063e-08
1.14382e-07
-9.32879e-08
1.53736e-07
-1.26264e-07
1.96587e-07
-1.64907e-07
2.4362e-07
-2.09875e-07
2.95646e-07
-2.61919e-07
3.53582e-07
-3.21883e-07
4.18436e-07
-3.90703e-07
4.91276e-07
-4.694e-07
5.73202e-07
-5.59066e-07
6.65302e-07
-6.60839e-07
7.68604e-07
-7.75876e-07
8.84006e-07
-9.05305e-07
1.0122e-06
-1.05017e-06
1.15359e-06
-1.21137e-06
1.30816e-06
-1.38957e-06
1.47539e-06
-1.5851e-06
1.65411e-06
-1.79791e-06
1.84242e-06
-2.02742e-06
2.03759e-06
-2.27249e-06
2.236e-06
-2.53135e-06
2.43317e-06
-2.80161e-06
2.62382e-06
-3.08024e-06
2.80204e-06
-3.3637e-06
2.96147e-06
-3.64805e-06
3.09568e-06
-3.92912e-06
3.19843e-06
-4.2027e-06
3.26404e-06
-4.46476e-06
3.2877e-06
-4.71163e-06
3.26572e-06
-4.94012e-06
3.19563e-06
-5.14764e-06
3.07623e-06
-5.33221e-06
2.90749e-06
-5.49246e-06
2.69038e-06
-5.6275e-06
2.42668e-06
-5.73688e-06
2.11872e-06
-5.82039e-06
1.76916e-06
-5.87797e-06
1.38085e-06
-5.90962e-06
9.56781e-07
-5.91501e-06
4.99645e-07
-5.89368e-06
1.3074e-08
-5.84476e-06
-4.99552e-07
-5.76697e-06
-1.0339e-06
-5.6587e-06
-1.58454e-06
-5.51774e-06
-2.14459e-06
-5.34152e-06
-2.70488e-06
-5.12729e-06