/*--------------------------------*- C++ -*----------------------------------*\
  =========                 |
  \\      /  F ield         | OpenFOAM: The Open Source CFD Toolbox
   \\    /   O peration     | Website:  https://openfoam.org
    \\  /    A nd           | Version:  12
     \\/     M anipulation  |
\*---------------------------------------------------------------------------*/
FoamFile
{
    format      ascii;
    class       surfaceScalarField;
    location    "1.7";
    object      phi;
}
// * * * * * * * * * * * * * * * * * * * * * * * * * * * * * * * * * * * * * //

dimensions      [0 3 -1 0 0 0 0];

internalField   nonuniform List<scalar> 
1740
(
1.14314e-10
-1.14302e-10
6.57467e-10
-5.43171e-10
1.62579e-09
-9.68305e-10
2.92364e-09
-1.29786e-09
4.43834e-09
-1.51468e-09
6.06204e-09
-1.62371e-09
7.7007e-09
-1.63864e-09
9.27692e-09
-1.57623e-09
1.07303e-08
-1.45333e-09
1.20155e-08
-1.28519e-09
1.31001e-08
-1.08465e-09
1.39621e-08
-8.61962e-10
1.4587e-08
-6.24867e-10
1.4966e-08
-3.79014e-10
1.50945e-08
-1.28457e-10
1.49708e-08
1.23724e-10
1.4596e-08
3.74765e-10
1.39745e-08
6.21528e-10
1.31147e-08
8.59853e-10
1.20307e-08
1.08394e-09
1.07449e-08
1.28587e-09
9.28966e-09
1.45523e-09
7.71068e-09
1.57902e-09
6.06884e-09
1.64186e-09
4.44203e-09
1.62684e-09
2.92484e-09
1.51723e-09
1.62537e-09
1.29948e-09
6.56536e-10
9.68835e-10
1.13727e-10
5.42808e-10
1.13727e-10
6.24567e-10
-7.38869e-10
2.25591e-09
-2.17453e-09
4.68047e-09
-3.39285e-09
7.67993e-09
-4.29734e-09
1.10369e-08
-4.87163e-09
1.4551e-08
-5.13783e-09
1.80483e-08
-5.1359e-09
2.13846e-08
-4.91257e-09
2.44459e-08
-4.51459e-09
2.71454e-08
-3.98474e-09
2.94204e-08
-3.35958e-09
3.1227e-08
-2.66864e-09
3.25367e-08
-1.93456e-09
3.33318e-08
-1.17405e-09
3.36025e-08
-3.99206e-10
3.33456e-08
3.8068e-10
3.25631e-08
1.15723e-09
3.12637e-08
1.92097e-09
2.94641e-08
2.65943e-09
2.71926e-08
3.35543e-09
2.44928e-08
3.98572e-09
2.14278e-08
4.5202e-09
1.80851e-08
4.92176e-09
1.45797e-08
5.14722e-09
1.1057e-08
5.14956e-09
7.69211e-09
4.88212e-09
4.68636e-09
4.30522e-09
2.2578e-09
3.3974e-09
6.24701e-10
2.17591e-09
7.38427e-10
9.65073e-10
-1.70394e-09
3.34014e-09
-4.5496e-09
6.70392e-09
-6.75663e-09
1.07086e-08
-8.302e-09
1.50582e-08
-9.22125e-09
1.9504e-08
-9.58369e-09
2.38432e-08
-9.47501e-09
2.79159e-08
-8.98527e-09
3.16019e-08
-8.20066e-09
3.48152e-08
-7.19803e-09
3.74975e-08
-6.04187e-09
3.9612e-08
-4.78314e-09
4.11372e-08
-3.45977e-09
4.20615e-08
-2.0984e-09
4.23793e-08
-7.17011e-10
4.20882e-08
6.71787e-10
4.11884e-08
2.05706e-09
3.96835e-08
3.42579e-09
3.75838e-08
4.75922e-09
3.49095e-08
6.02965e-09
3.16973e-08
7.1979e-09
2.80058e-08
8.21168e-09
2.39223e-08
9.00534e-09
1.95684e-08
9.50101e-09
1.5106e-08
9.61194e-09
1.07402e-08
9.24797e-09
6.7215e-09
8.32387e-09
3.34746e-09
6.77143e-09
9.66616e-10
4.55675e-09
1.70504e-09
1.12843e-09
-2.83237e-09
3.84203e-09
-7.26319e-09
7.58387e-09
-1.04985e-08
1.19082e-08
-1.26263e-08
1.64625e-08
-1.37756e-08
2.09752e-08
-1.40964e-08
2.52455e-08
-1.37453e-08
2.91338e-08
-1.28736e-08
3.25514e-08
-1.16183e-08
3.54499e-08
-1.00965e-08
3.78103e-08
-8.40231e-09
3.96331e-08
-6.6059e-09
4.09285e-08
-4.75525e-09
4.17094e-08
-2.87929e-09
4.19849e-08
-9.92535e-10
4.17572e-08
8.99426e-10
4.10205e-08
2.79375e-09
3.97622e-08
4.68409e-09
3.79669e-08
6.55451e-09
3.56224e-08
8.37412e-09
3.27277e-08
1.00926e-08
2.93021e-08
1.16372e-08
2.53957e-08
1.29117e-08
2.10998e-08
1.37969e-08
1.65573e-08
1.41544e-08
1.19727e-08
1.38326e-08
7.62125e-09
1.26753e-08
3.85853e-09
1.05342e-08
1.13231e-09
7.28299e-09
2.83735e-09
1.15122e-09
-3.98358e-09
3.81498e-09
-9.92694e-09
7.34073e-09
-1.40242e-08
1.12246e-08
-1.65101e-08
1.50938e-08
-1.76448e-08
1.86908e-08
-1.76934e-08
2.18566e-08
-1.69111e-08
2.45134e-08
-1.55304e-08
2.66469e-08
-1.37518e-08
2.82883e-08
-1.17379e-08
2.94972e-08
-9.61128e-09
3.03459e-08
-7.45458e-09
3.09051e-08
-5.31443e-09
3.12329e-08
-3.20706e-09
3.13662e-08
-1.12584e-09
3.13158e-08
9.49791e-10
3.10648e-08
3.0447e-09
3.05707e-08
5.17818e-09
2.97709e-08
7.35439e-09
2.85913e-08
9.55372e-09
2.69584e-08
1.17255e-08
2.48132e-08
1.37825e-08
2.21267e-08
1.55981e-08
1.89175e-08
1.70061e-08
1.52687e-08
1.78032e-08
1.13456e-08
1.77556e-08
7.41243e-09
1.66085e-08
3.84754e-09
1.40991e-08
1.15923e-09
9.97133e-09
3.99658e-09
1.02614e-09
-5.00972e-09
3.20067e-09
-1.21015e-08
5.80382e-09
-1.66274e-08
8.31208e-09
-1.90184e-08
1.03792e-08
-1.9712e-08
1.18136e-08
-1.91278e-08
1.25535e-08
-1.76509e-08
1.26401e-08
-1.5617e-08
1.21907e-08
-1.33024e-08
1.13711e-08
-1.09183e-08
1.03697e-08
-8.60987e-09
9.37452e-09
-6.45942e-09
8.55278e-09
-4.49269e-09
8.03439e-09
-2.68866e-09
7.90004e-09
-9.91479e-10
8.17403e-09
6.75813e-10
8.82212e-09
2.39663e-09
9.75446e-09
4.24585e-09
1.08336e-08
6.27531e-09
1.18869e-08
8.50037e-09
1.27239e-08
1.08885e-08
1.31564e-08
1.335e-08
1.30222e-08
1.57324e-08
1.22105e-08
1.78178e-08
1.06887e-08
1.9325e-08
8.52911e-09
1.99152e-08
5.93439e-09
1.92033e-08
3.26117e-09
1.67723e-08
1.04148e-09
1.2191e-08
5.03806e-09
7.09832e-10
-5.71956e-09
1.81917e-09
-1.32108e-08
2.56366e-09
-1.73719e-08
2.44723e-09
-1.8902e-08
1.21216e-09
-1.84769e-08
-1.1955e-09
-1.67202e-08
-4.66302e-09
-1.41834e-08
-8.95045e-09
-1.13296e-08
-1.37308e-08
-8.52198e-09
-1.86298e-08
-6.01931e-09
-2.32623e-08
-3.97733e-09
-2.72663e-08
-2.45542e-09
-3.0331e-08
-1.42797e-09
-3.22201e-08
-7.99561e-10
-3.27884e-08
-4.23224e-10
-3.19916e-08
-1.20945e-10
-2.98897e-08
2.94738e-10
-2.66425e-08
9.98588e-10
-2.24983e-08
2.13119e-09
-1.77769e-08
3.77899e-09
-1.28451e-08
5.95664e-09
-8.08776e-09
8.59266e-09
-3.87446e-09
1.15191e-08
-5.22484e-10
1.44659e-08
1.74193e-09
1.70606e-08
2.82286e-09
1.88343e-08
2.79262e-09
1.92335e-08
1.92705e-09
1.76379e-08
7.37855e-10
1.33802e-08
5.77591e-09
1.21183e-10
-5.84074e-09
-6.43093e-10
-1.24465e-08
-3.06135e-09
-1.49536e-08
-7.53405e-09
-1.44293e-08
-1.41429e-08
-1.18681e-08
-2.27039e-08
-8.15915e-09
-3.28226e-08
-4.06464e-09
-4.39518e-08
-2.00458e-10
-5.54478e-08
2.97409e-09
-6.6628e-08
5.16081e-09
-7.68207e-08
6.21545e-09
-8.54125e-08
6.13639e-09
-9.18868e-08
5.04629e-09
-9.58554e-08
3.16901e-09
-9.70813e-08
8.02718e-10
-9.54923e-08
-1.70989e-09
-9.11848e-08
-4.01275e-09
-8.44181e-08
-5.76812e-09
-7.55994e-08
-6.68757e-09
-6.52593e-08
-6.56108e-09
-5.40196e-08
-5.28303e-09
-4.25528e-08
-2.87413e-09
-3.15355e-08
5.01734e-10
-2.15968e-08
4.52724e-09
-1.32637e-08
8.72746e-09
-6.90419e-09
1.24749e-08
-2.67275e-09
1.5002e-08
-4.57235e-10
1.54223e-08
1.70524e-10
1.27524e-08
5.94643e-09
-8.62333e-10
-4.97841e-09
-4.64976e-09
-8.65912e-09
-1.20636e-08
-7.53976e-09
-2.33049e-08
-3.18799e-09
-3.8153e-08
2.98e-09
-5.60456e-08
9.7335e-09
-7.61596e-08
1.60493e-08
-9.74919e-08
2.11318e-08
-1.18941e-07
2.44232e-08
-1.39382e-07
2.56023e-08
-1.5774e-07
2.45729e-08
-1.73047e-07
2.14435e-08
-1.845e-07
1.64997e-08
-1.91501e-07
1.017e-08
-1.93686e-07
2.98728e-09
-1.90943e-07
-4.4529e-09
-1.83419e-07
-1.15365e-08
-1.71512e-07
-1.76755e-08
-1.55848e-07
-2.2351e-08
-1.37254e-07
-2.51552e-08
-1.16709e-07
-2.5828e-08
-9.52932e-08
-2.42902e-08
-7.41226e-08
-2.06688e-08
-5.42801e-08
-1.53153e-08
-3.67384e-08
-8.81422e-09
-2.22813e-08
-1.98228e-09
-1.14247e-08
4.14538e-09
-4.33978e-09
8.33739e-09
-7.78309e-10
9.19095e-09
5.16812e-09
-2.41074e-09
-2.56766e-09
-1.08384e-08
-2.31433e-10
-2.57966e-08
7.41838e-09
-4.71301e-08
1.81455e-08
-7.41353e-08
2.99852e-08
-1.05677e-07
4.12753e-08
-1.40304e-07
5.0676e-08
-1.7636e-07
5.71882e-08
-2.12098e-07
6.01611e-08
-2.45779e-07
5.92835e-08
-2.75769e-07
5.45629e-08
-3.0062e-07
4.62937e-08
-3.19136e-07
3.50162e-08
-3.30434e-07
2.14684e-08
-3.33979e-07
6.53175e-09
-3.29605e-07
-8.8264e-09
-3.17528e-07
-2.36135e-08
-2.98331e-07
-3.68725e-08
-2.7294e-07
-4.7742e-08
-2.42582e-07
-5.55132e-08
-2.08728e-07
-5.96828e-08
-1.73019e-07
-5.99993e-08
-1.37186e-07
-5.65018e-08
-1.02952e-07
-4.95486e-08
-7.19322e-08
-3.98345e-08
-4.55194e-08
-2.83951e-08
-2.47792e-08
-1.65948e-08
-1.03379e-08
-6.10396e-09
-2.27243e-09
1.1255e-09
2.89569e-09
-4.75081e-09
2.18315e-09
-2.00499e-08
1.50676e-08
-4.60329e-08
3.34014e-08
-8.19581e-08
5.40708e-08
-1.26385e-07
7.44119e-08
-1.7734e-07
9.22301e-08
-2.32476e-07
1.05812e-07
-2.89229e-07
1.13941e-07
-3.44961e-07
1.15893e-07
-3.97099e-07
1.11422e-07
-4.43258e-07
1.00722e-07
-4.81344e-07
8.43793e-08
-5.09643e-07
6.3315e-08
-5.26891e-07
3.87168e-08
-5.32325e-07
1.19659e-08
-5.2571e-07
-1.54415e-08
-5.07349e-07
-4.19751e-08
-4.78069e-07
-6.61521e-08
-4.39193e-07
-8.66181e-08
-3.92482e-07
-1.02225e-07
-3.40063e-07
-1.12102e-07
-2.84338e-07
-1.15724e-07
-2.27875e-07
-1.12964e-07
-1.73283e-07
-1.04141e-07
-1.23072e-07
-9.00457e-08
-7.95092e-08
-7.19578e-08
-4.4467e-08
-5.1637e-08
-1.92685e-08
-3.13025e-08
-4.53052e-09
-1.36124e-08
-1.63483e-09
-8.17472e-09
1.03579e-08
-3.336e-08
4.0253e-08
-7.5024e-08
7.50654e-08
-1.3151e-07
1.10557e-07
-2.00291e-07
1.43193e-07
-2.782e-07
1.70139e-07
-3.61648e-07
1.8926e-07
-4.46828e-07
1.99121e-07
-5.29909e-07
1.98974e-07
-6.07209e-07
1.88722e-07
-6.75351e-07
1.68864e-07
-7.31397e-07
1.40426e-07
-7.72958e-07
1.04876e-07
-7.98277e-07
6.40356e-08
-8.06293e-07
1.9982e-08
-7.96677e-07
-2.50572e-08
-7.69844e-07
-6.88085e-08
-7.26935e-07
-1.0906e-07
-6.69784e-07
-1.43769e-07
-6.00846e-07
-1.71163e-07
-5.23109e-07
-1.89839e-07
-4.3998e-07
-1.98853e-07
-3.55144e-07
-1.978e-07
-2.72404e-07
-1.86881e-07
-1.95503e-07
-1.66947e-07
-1.27927e-07
-1.39534e-07
-7.27015e-08
-1.06862e-07
-3.2183e-08
-7.1821e-08
-7.83626e-09
-3.79591e-08
-9.47109e-09
-1.305e-08
2.34079e-08
-5.21062e-08
7.93091e-08
-1.15548e-07
1.38507e-07
-2.00345e-07
1.95354e-07
-3.02415e-07
2.45262e-07
-4.16931e-07
2.84656e-07
-5.38618e-07
3.10947e-07
-6.62011e-07
3.22514e-07
-7.81708e-07
3.18671e-07
-8.92585e-07
2.99599e-07
-9.89991e-07
2.6627e-07
-1.06991e-06
2.20343e-07
-1.12909e-06
1.64053e-07
-1.16514e-06
1.0009e-07
-1.17663e-06
3.14752e-08
-1.16311e-06
-3.85781e-08
-1.12513e-06
-1.06795e-07
-1.06421e-06
-1.69979e-07
-9.82829e-07
-2.25147e-07
-8.84329e-07
-2.69663e-07
-7.72797e-07
-3.01371e-07
-6.52937e-07
-3.18713e-07
-5.29894e-07
-3.20843e-07
-4.09055e-07
-3.0772e-07
-2.95816e-07
-2.80186e-07
-1.95333e-07
-2.40017e-07
-1.12247e-07
-1.89948e-07
-5.04041e-08
-1.33664e-07
-1.25497e-08
-7.58135e-08
-2.20208e-08
-1.98258e-08
4.32337e-08
-7.79048e-08
1.37388e-07
-1.7093e-07
2.31532e-07
-2.93877e-07
3.18301e-07
-4.40485e-07
3.9187e-07
-6.03674e-07
4.47845e-07
-7.75921e-07
4.83195e-07
-9.49602e-07
4.96194e-07
-1.11729e-06
4.86359e-07
-1.27203e-06
4.54343e-07
-1.40758e-06
4.01816e-07
-1.51856e-06
3.31327e-07
-1.60067e-06
2.46156e-07
-1.65073e-06
1.50155e-07
-1.66685e-06
4.75909e-08
-1.6484e-06
-5.70254e-08
-1.59609e-06
-1.59104e-07
-1.51192e-06
-2.54146e-07
-1.39915e-06
-3.37918e-07
-1.2622e-06
-4.0662e-07
-1.10651e-06
-4.57052e-07
-9.38448e-07
-4.86779e-07
-7.65011e-07
-4.9428e-07
-5.93643e-07
-4.79088e-07
-4.31923e-07
-4.41905e-07
-2.87248e-07
-3.84693e-07
-1.66477e-07
-3.10718e-07
-7.55596e-08
-2.24582e-07
-1.91186e-08
-1.32255e-07
-4.11394e-08
-2.90355e-08
7.22691e-08
-1.12649e-07
2.21002e-07
-2.45023e-07
3.63906e-07
-4.18306e-07
4.91584e-07
-6.23258e-07
5.96821e-07
-8.49796e-07
6.74383e-07
-1.08747e-06
7.20872e-07
-1.3259e-06
7.34622e-07
-1.55512e-06
7.15576e-07
-1.76591e-06
6.65133e-07
-1.95006e-06
5.8597e-07
-2.10059e-06
4.81855e-07
-2.21189e-06
3.57455e-07
-2.27987e-06
2.18138e-07
-2.30206e-06
6.97747e-08
-2.27762e-06
-8.1462e-08
-2.20743e-06
-2.29297e-07
-2.09401e-06
-3.6756e-07
-1.94154e-06
-4.90389e-07
-1.75572e-06
-5.92443e-07
-1.54366e-06
-6.69113e-07
-1.3137e-06
-7.16734e-07
-1.07519e-06
-7.32788e-07
-8.38177e-07
-7.16105e-07
-6.13055e-07
-6.67028e-07
-4.10182e-07
-5.87566e-07
-2.39414e-07
-4.81486e-07
-1.09611e-07
-3.54385e-07
-2.80893e-08
-2.13776e-07
-6.92287e-08
-4.12923e-08
1.13561e-07
-1.58478e-07
3.38187e-07
-3.4211e-07
5.47538e-07
-5.80421e-07
7.29896e-07
-8.60173e-07
8.76574e-07
-1.16736e-06
9.81569e-07
-1.4878e-06
1.04131e-06
-1.80766e-06
1.05448e-06
-2.11389e-06
1.0218e-06
-2.39455e-06
9.45796e-07
-2.63914e-06
8.30556e-07
-2.83877e-06
6.81483e-07
-2.98636e-06
5.05044e-07
-3.07675e-06
3.08528e-07
-3.10679e-06
9.98153e-08
-3.07539e-06
-1.12854e-07
-2.98358e-06
-3.21112e-07
-2.83445e-06
-5.16693e-07
-2.63316e-06
-6.91675e-07
-2.38687e-06
-8.38729e-07
-2.10461e-06
-9.51376e-07
-1.79708e-06
-1.02426e-06
-1.47644e-06
-1.05343e-06
-1.15595e-06
-1.03659e-06
-8.49605e-07
-9.73377e-07
-5.71584e-07
-8.65587e-07
-3.35727e-07
-7.17343e-07
-1.5487e-07
-5.35242e-07
-4.0116e-08
-3.2853e-07
-1.09345e-07
-5.72768e-08
1.70838e-07
-2.17707e-07
4.98617e-07
-4.66726e-07
7.96557e-07
-7.8724e-07
1.05041e-06
-1.16073e-06
1.25007e-06
-1.56816e-06
1.389e-06
-1.99069e-06
1.46385e-06
-2.41032e-06
1.47411e-06
-2.81031e-06
1.4218e-06
-3.17563e-06
1.31112e-06
-3.49319e-06
1.14811e-06
-3.75201e-06
9.40304e-07
-3.94341e-06
6.96446e-07
-4.06107e-06
4.26192e-07
-4.10111e-06
1.39855e-07
-4.06212e-06
-1.51845e-07
-3.94521e-06
-4.38027e-07
-3.75401e-06
-7.07895e-07
-3.49469e-06
-9.50994e-07
-3.17592e-06
-1.1575e-06
-2.8088e-06
-1.3185e-06
-2.40668e-06
-1.42638e-06
-1.985e-06
-1.47511e-06
-1.56089e-06
-1.4607e-06
-1.15275e-06
-1.38152e-06
-7.79668e-07
-1.23867e-06
-4.60685e-07
-1.03632e-06
-2.13998e-07
-7.81929e-07
-5.59691e-08
-4.86559e-07
-1.65314e-07
-7.77177e-08
2.48556e-07
-2.92729e-07
7.13629e-07
-6.23386e-07
1.12721e-06
-1.04545e-06
1.47247e-06
-1.53353e-06
1.73815e-06
-2.06225e-06
1.91771e-06
-2.60709e-06
2.00869e-06
-3.14514e-06
2.01215e-06
-3.65554e-06
1.9322e-06
-4.11987e-06
1.77545e-06
-4.52233e-06
1.55057e-06
-4.84987e-06
1.26784e-06
-5.09222e-06
9.38799e-07
-5.24194e-06
5.75914e-07
-5.29441e-06
1.92321e-07
-5.24783e-06
-1.98419e-07
-5.10331e-06
-5.82547e-07
-4.86487e-06
-9.46338e-07
-4.53951e-06
-1.27635e-06
-4.1373e-06
-1.55971e-06
-3.67133e-06
-1.78446e-06
-3.15775e-06
-1.93996e-06
-2.61555e-06
-2.01731e-06
-2.06632e-06
-2.00993e-06
-1.53377e-06
-1.91407e-06
-1.04307e-06
-1.72937e-06
-6.20036e-07
-1.45936e-06
-2.89993e-07
-1.11197e-06
-7.6543e-08
-7.0001e-07
-2.41857e-07
-1.03375e-07
3.51931e-07
-3.85902e-07
9.96156e-07
-8.16239e-07
1.55755e-06
-1.36065e-06
2.01688e-06
-1.9849e-06
2.3624e-06
-2.65574e-06
2.58855e-06
-3.34193e-06
2.69488e-06
-4.01503e-06
2.68525e-06
-4.64983e-06
2.56699e-06
-5.22456e-06
2.35018e-06
-5.72095e-06
2.04696e-06
-6.12418e-06
1.67108e-06
-6.42275e-06
1.23737e-06
-6.60833e-06
7.6149e-07
-6.67568e-06
2.59676e-07
-6.62263e-06
-2.51467e-07
-6.45008e-06
-7.55102e-07
-6.16209e-06
-1.23432e-06
-5.76609e-06
-1.67235e-06
-5.27303e-06
-2.05277e-06
-4.69762e-06
-2.35988e-06
-4.05846e-06
-2.57912e-06
-3.3781e-06
-2.69766e-06
-2.68294e-06
-2.7051e-06
-2.00279e-06
-2.59422e-06
-1.37028e-06
-2.36188e-06
-8.19804e-07
-2.00984e-06
-3.86164e-07
-1.54561e-06
-1.02872e-07
-9.83302e-07
-3.44728e-07
-1.35055e-07
4.86987e-07
-4.99489e-07
1.36059e-06
-1.04874e-06
2.10681e-06
-1.73647e-06
2.7046e-06
-2.51712e-06
3.14305e-06
-3.34783e-06
3.41926e-06
-4.1897e-06
3.53675e-06
-5.00845e-06
3.50401e-06
-5.77475e-06
3.33329e-06
-6.46413e-06
3.03956e-06
-7.05671e-06
2.63954e-06
-7.53679e-06
2.15116e-06
-7.89243e-06
1.59301e-06
-8.11508e-06
9.84134e-07
-8.19926e-06
3.43854e-07
-8.14244e-06
-3.0828e-07
-7.94506e-06
-9.52483e-07
-7.61065e-06
-1.56873e-06
-7.14619e-06
-2.13682e-06
-6.56249e-06
-2.63646e-06
-5.87479e-06
-3.04758e-06
-5.10319e-06
-3.35072e-06
-4.27311e-06
-3.52774e-06
-3.41557e-06
-3.56265e-06
-2.56699e-06
-3.44279e-06
-1.76875e-06
-3.16012e-06
-1.06602e-06
-2.71257e-06
-5.06129e-07
-2.10551e-06
-1.36168e-07
-1.35326e-06
-4.80896e-07
-1.73709e-07
6.60696e-07
-6.35809e-07
1.82269e-06
-1.32356e-06
2.79456e-06
-2.17371e-06
3.55475e-06
-3.12623e-06
4.09558e-06
-4.12681e-06
4.41984e-06
-5.12818e-06
4.53813e-06
-6.09068e-06
4.4665e-06
-6.982e-06
4.22462e-06
-7.77661e-06
3.83417e-06
-8.45486e-06
3.31779e-06
-9.002e-06
2.69829e-06
-9.40723e-06
1.99824e-06
-9.66298e-06
1.23989e-06
-9.76429e-06
4.45168e-07
-9.7085e-06
-3.64072e-07
-9.49518e-06
-1.16581e-06
-9.12643e-06
-1.93749e-06
-8.60736e-06
-2.65589e-06
-7.94686e-06
-3.29696e-06
-7.15859e-06
-3.83585e-06
-6.26205e-06
-4.24726e-06
-5.28371e-06
-4.50607e-06
-4.25795e-06
-4.58841e-06
-3.22753e-06
-4.47321e-06
-2.24354e-06
-4.1441e-06
-1.36442e-06
-3.59169e-06
-6.53917e-07
-2.81601e-06
-1.77927e-07
-1.82925e-06
-6.58823e-07
-2.2075e-07
8.81446e-07
-7.9786e-07
2.3998e-06
-1.64289e-06
3.63958e-06
-2.6695e-06
4.58136e-06
-3.79912e-06
5.2252e-06
-4.96417e-06
5.58489e-06
-6.10929e-06
5.68324e-06
-7.19115e-06
5.54836e-06
-8.17727e-06
5.21074e-06
-9.04433e-06
4.70123e-06
-9.77626e-06
4.04972e-06
-1.03624e-05
3.28438e-06
-1.07956e-05
2.43152e-06
-1.10715e-05
1.51575e-06
-1.11868e-05
5.60464e-07
-1.11392e-05
-4.11689e-07
-1.09269e-05
-1.37806e-06
-1.05493e-05
-2.31508e-06
-1.00076e-05
-3.19758e-06
-9.30609e-06
-3.99851e-06
-8.45333e-06
-4.6886e-06
-7.46445e-06
-5.23615e-06
-6.36322e-06
-5.60729e-06
-5.18425e-06
-5.76738e-06
-3.97469e-06
-5.68277e-06
-2.79528e-06
-5.32351e-06
-1.72006e-06
-4.66691e-06
-8.34297e-07
-3.70177e-06
-2.30182e-07
-2.43337e-06
-8.89005e-07
-2.78823e-07
1.16027e-06
-9.90851e-07
3.11183e-06
-2.00958e-06
4.65831e-06
-3.21625e-06
5.78803e-06
-4.50867e-06
6.51762e-06
-5.80505e-06
6.88128e-06
-7.04424e-06
6.92244e-06
-8.18367e-06
6.68778e-06
-9.19614e-06
6.22321e-06
-1.00662e-05
5.57134e-06
-1.07869e-05
4.77033e-06
-1.13561e-05
3.85361e-06
-1.17745e-05
2.8499e-06
-1.20432e-05
1.78446e-06
-1.21627e-05
6.79971e-07
-1.21319e-05
-4.42484e-07
-1.19478e-05
-1.56214e-06
-1.16057e-05
-2.65723e-06
-1.10998e-05
-3.70345e-06
-1.04255e-05
-4.67276e-06
-9.58163e-06
-5.5325e-06
-8.57308e-06
-6.2447e-06
-7.41453e-06
-6.76585e-06
-6.13443e-06
-7.04748e-06
-4.77912e-06
-7.03808e-06
-3.41635e-06
-6.68629e-06
-2.13691e-06
-5.94635e-06
-1.05363e-06
-4.78504e-06
-2.96116e-07
-3.19089e-06
-1.18512e-06
-3.53518e-07
1.51379e-06
-1.22518e-06
3.98349e-06
-2.42844e-06
5.86158e-06
-3.79785e-06
7.15744e-06
-5.20245e-06
7.92222e-06
-6.54858e-06
8.22741e-06
-7.77632e-06
8.15018e-06
-8.85307e-06
7.76453e-06
-9.7666e-06
7.13674e-06
-1.05183e-05
6.323e-06
-1.11172e-05
5.36926e-06
-1.15762e-05
4.31263e-06
-1.19085e-05
3.18214e-06
-1.21244e-05
2.00039e-06
-1.22299e-05
7.8552e-07
-1.22258e-05
-4.46613e-07
-1.21074e-05
-1.68059e-06
-1.18648e-05
-2.89977e-06
-1.14838e-05
-4.08444e-06
-1.09471e-05
-5.20949e-06
-1.02373e-05
-6.24234e-06
-9.34089e-06
-7.14108e-06
-8.25353e-06
-7.8532e-06
-6.98636e-06
-8.31466e-06
-5.57378e-06
-8.45066e-06
-4.08217e-06
-8.17789e-06
-2.61605e-06
-7.41248e-06
-1.32144e-06
-6.07965e-06
-3.814e-07
-4.13093e-06
-1.56652e-06
-4.57088e-07
1.97087e-06
-1.52087e-06
5.04727e-06
-2.90373e-06
7.24444e-06
-4.37388e-06
8.62758e-06
-5.77109e-06
9.31943e-06
-7.00184e-06
9.45816e-06
-8.02444e-06
9.17278e-06
-8.83328e-06
8.57337e-06
-9.44601e-06
7.74947e-06
-9.89283e-06
6.76982e-06
-1.02083e-05
5.68473e-06
-1.04251e-05
4.52943e-06
-1.05712e-05
3.32822e-06
-1.06678e-05
2.09705e-06
-1.07284e-05
8.4613e-07
-1.07574e-05
-4.17693e-07
-1.07493e-05
-1.68861e-06
-1.06895e-05
-2.95965e-06
-1.05537e-05
-4.22021e-06
-1.03099e-05
-5.45329e-06
-9.91997e-06
-6.63226e-06
-9.34366e-06
-7.71739e-06
-8.54488e-06
-8.65198e-06
-7.5008e-06
-9.35874e-06
-6.21434e-06
-9.73711e-06
-4.72887e-06
-9.66337e-06
-3.14879e-06
-8.99256e-06
-1.6526e-06
-7.57584e-06
-4.97284e-07
-5.28624e-06
-2.06381e-06
-6.14241e-07
2.58512e-06
-1.90672e-06
6.33974e-06
-3.41419e-06
8.75191e-06
-4.8204e-06
1.00338e-05
-5.95741e-06
1.04564e-05
-6.76691e-06
1.02677e-05
-7.26129e-06
9.66716e-06
-7.49111e-06
8.80319e-06
-7.52157e-06
7.77992e-06
-7.41959e-06
6.66784e-06
-7.24734e-06
5.51248e-06
-7.05874e-06
4.34083e-06
-6.89713e-06
3.1666e-06
-6.79434e-06
1.99426e-06
-6.77038e-06
8.22171e-07
-6.83319e-06
-3.54887e-07
-6.97832e-06
-1.54348e-06
-7.18854e-06
-2.74943e-06
-7.43331e-06
-3.97544e-06
-7.66831e-06
-5.21829e-06
-7.83553e-06
-6.46504e-06
-7.86497e-06
-7.68795e-06
-7.6791e-06
-8.83785e-06
-7.20194e-06
-9.83589e-06
-6.37504e-06
-1.0564e-05
-5.18345e-06
-1.0855e-05
-3.68603e-06
-1.049e-05
-2.06381e-06
-9.19806e-06
-6.65927e-07
-6.68413e-06
-2.72973e-06
-8.552e-07
3.44032e-06
-2.37196e-06
7.85651e-06
-3.787e-06
1.01669e-05
-4.72449e-06
1.09713e-05
-5.10256e-06
1.08345e-05
-4.98363e-06
1.01487e-05
-4.48369e-06
9.16722e-06
-3.73147e-06
8.05097e-06
-2.84771e-06
6.89615e-06
-1.93639e-06
5.75653e-06
-1.08176e-06
4.65785e-06
-3.48707e-07
3.60778e-06
2.1527e-07
2.60263e-06
5.77468e-07
1.63207e-06
7.17722e-07
6.81917e-07
6.26995e-07
-2.6416e-07
3.07092e-07
-1.22358e-06
-2.28534e-07
-2.2138e-06
-9.52946e-07
-3.25102e-06
-1.82286e-06
-4.34837e-06
-2.77509e-06
-5.51282e-06
-3.723e-06
-6.74005e-06
-4.55444e-06
-8.00641e-06
-5.13386e-06
-9.25648e-06
-5.31284e-06
-1.0385e-05
-4.95668e-06
-1.12111e-05
-3.99372e-06
-1.14529e-05
-2.51214e-06
-1.06796e-05
-9.07373e-07
-8.28889e-06
-3.63711e-06
-1.16982e-06
4.61014e-06
-2.62969e-06
9.31638e-06
-3.20983e-06
1.07471e-05
-2.76312e-06
1.05246e-05
-1.5158e-06
9.58719e-06
2.49555e-07
8.38337e-06
2.27954e-06
7.13724e-06
4.37338e-06
5.95713e-06
6.38264e-06
4.88689e-06
8.20408e-06
3.93508e-06
9.76987e-06
3.09206e-06
1.10373e-05
2.34034e-06
1.19801e-05
1.65985e-06
1.25822e-05
1.02992e-06
1.28341e-05
4.30054e-07
1.27301e-05
-1.60145e-07
1.22678e-05
-7.613e-07
1.1449e-05
-1.39498e-06
1.02815e-05
-2.08354e-06
8.7837e-06
-2.85057e-06
6.99109e-06
-3.72021e-06
4.96571e-06
-4.71467e-06
2.80807e-06
-5.84876e-06
6.70611e-07
-7.11902e-06
-1.23128e-06
-8.48315e-06
-2.61735e-06
-9.82504e-06
-3.17405e-06
-1.08962e-05
-2.65083e-06
-1.12029e-05
-1.19376e-06
-9.74597e-06
-4.83086e-06
-1.72915e-06
6.33929e-06
-1.19907e-06
8.78629e-06
1.45193e-06
8.09609e-06
5.1253e-06
6.8512e-06
9.12908e-06
5.58342e-06
1.3065e-05
4.44746e-06
1.67099e-05
3.49234e-06
1.99493e-05
2.71772e-06
2.27368e-05
2.09941e-06
2.50657e-05
1.60614e-06
2.69488e-05
1.20899e-06
2.84058e-05
8.8337e-07
2.94566e-05
6.08989e-07
3.01175e-05
3.69061e-07
3.03982e-05
1.49331e-07
3.03012e-05
-6.31231e-08
2.98202e-05
-2.80342e-07
2.89422e-05
-5.16963e-07
2.76457e-05
-7.87006e-07
2.59036e-05
-1.10849e-06
2.36872e-05
-1.50383e-06
2.0973e-05
-2.00048e-06
1.77554e-05
-2.63112e-06
1.40676e-05
-3.43122e-06
1.00148e-05
-4.43033e-06
5.82242e-06
-5.63268e-06
1.9117e-06
-6.98552e-06
-9.75325e-07
-8.31583e-06
-1.67887e-06
-9.04242e-06
-6.50973e-06
6.33929e-06
1.51256e-05
2.32217e-05
3.00729e-05
3.56563e-05
4.01037e-05
4.35961e-05
4.63138e-05
4.84132e-05
5.00194e-05
5.12283e-05
5.21117e-05
5.27207e-05
5.30898e-05
5.32391e-05
5.3176e-05
5.28956e-05
5.23787e-05
5.15917e-05
5.04832e-05
4.89793e-05
4.69789e-05
4.43477e-05
4.09165e-05
3.64862e-05
3.08535e-05
2.3868e-05
1.55522e-05
6.50973e-06
)
;

boundaryField
{
    movingWall
    {
        type            calculated;
        value           uniform 0;
    }
    fixedWalls
    {
        type            calculated;
        value           uniform 0;
    }
    frontAndBack
    {
        type            empty;
    }
}


// ************************************************************************* //
