/*--------------------------------*- C++ -*----------------------------------*\
  =========                 |
  \\      /  F ield         | OpenFOAM: The Open Source CFD Toolbox
   \\    /   O peration     | Website:  https://openfoam.org
    \\  /    A nd           | Version:  12
     \\/     M anipulation  |
\*---------------------------------------------------------------------------*/
FoamFile
{
    format      ascii;
    class       volScalarField;
    location    "8";
    object      epsilon;
}
// * * * * * * * * * * * * * * * * * * * * * * * * * * * * * * * * * * * * * //

dimensions      [0 2 -3 0 0 0 0];

internalField   nonuniform List<scalar> 
18225
(
4.6173e-09
8.72219e-09
1.85099e-08
3.02323e-08
4.34979e-08
5.80215e-08
7.36058e-08
9.01092e-08
1.07424e-07
1.25464e-07
1.44158e-07
1.63445e-07
1.83269e-07
2.03583e-07
2.24342e-07
2.45506e-07
2.67036e-07
2.88897e-07
3.11054e-07
3.33474e-07
3.56127e-07
3.78982e-07
4.02008e-07
4.25177e-07
4.48461e-07
4.71831e-07
4.9526e-07
5.18721e-07
5.42188e-07
5.65633e-07
5.89031e-07
6.12356e-07
6.35582e-07
6.58683e-07
6.81634e-07
7.0441e-07
7.26987e-07
7.49339e-07
7.71443e-07
7.93273e-07
8.14806e-07
8.36018e-07
8.56885e-07
8.77385e-07
8.97494e-07
9.17189e-07
9.36447e-07
9.55247e-07
9.73567e-07
9.91383e-07
1.00868e-06
1.02542e-06
1.04161e-06
1.0572e-06
1.07219e-06
1.08655e-06
1.10027e-06
1.11332e-06
1.12569e-06
1.13736e-06
1.1483e-06
1.15851e-06
1.16797e-06
1.17665e-06
1.18455e-06
1.19164e-06
1.19792e-06
1.20337e-06
1.20797e-06
1.21171e-06
1.21459e-06
1.21658e-06
1.21768e-06
1.21787e-06
1.21715e-06
1.21551e-06
1.21295e-06
1.20945e-06
1.205e-06
1.19962e-06
1.19328e-06
1.186e-06
1.17777e-06
1.16859e-06
1.15846e-06
1.14739e-06
1.13538e-06
1.12243e-06
1.10857e-06
1.09378e-06
1.0781e-06
1.06152e-06
1.04407e-06
1.02575e-06
1.0066e-06
9.86617e-07
9.65837e-07
9.44279e-07
9.21968e-07
8.98932e-07
8.75199e-07
8.508e-07
8.25767e-07
8.00134e-07
7.73939e-07
7.47218e-07
7.20012e-07
6.92362e-07
6.64312e-07
6.35907e-07
6.07194e-07
5.78223e-07
5.49043e-07
5.19708e-07
4.90273e-07
4.60795e-07
4.31332e-07
4.01947e-07
3.72702e-07
3.43666e-07
3.14907e-07
2.86499e-07
2.5852e-07
2.31053e-07
2.04187e-07
1.7802e-07
1.52658e-07
1.28224e-07
1.0486e-07
8.27359e-08
6.20724e-08
4.31662e-08
2.64389e-08
1.24611e-08
6.59679e-09
3.12416e-08
1.69935e-08
1.65264e-08
1.97453e-08
2.47264e-08
3.07911e-08
3.76223e-08
4.50453e-08
5.29515e-08
6.1267e-08
6.99381e-08
7.89226e-08
8.81864e-08
9.77007e-08
1.0744e-07
1.17383e-07
1.27508e-07
1.37798e-07
1.48233e-07
1.58799e-07
1.69478e-07
1.80257e-07
1.9112e-07
2.02053e-07
2.13042e-07
2.24075e-07
2.35137e-07
2.46216e-07
2.57298e-07
2.68372e-07
2.79425e-07
2.90443e-07
3.01416e-07
3.12331e-07
3.23175e-07
3.33938e-07
3.44606e-07
3.5517e-07
3.65616e-07
3.75933e-07
3.8611e-07
3.96136e-07
4.06e-07
4.1569e-07
4.25196e-07
4.34506e-07
4.43611e-07
4.52499e-07
4.61159e-07
4.69583e-07
4.77759e-07
4.85678e-07
4.93329e-07
5.00704e-07
5.07791e-07
5.14583e-07
5.21069e-07
5.27241e-07
5.3309e-07
5.38608e-07
5.43784e-07
5.48613e-07
5.53084e-07
5.57191e-07
5.60926e-07
5.64281e-07
5.6725e-07
5.69826e-07
5.72003e-07
5.73773e-07
5.75132e-07
5.76074e-07
5.76593e-07
5.76684e-07
5.76345e-07
5.7557e-07
5.74355e-07
5.72699e-07
5.70598e-07
5.6805e-07
5.65055e-07
5.61611e-07
5.57718e-07
5.53376e-07
5.48586e-07
5.4335e-07
5.37671e-07
5.31551e-07
5.24995e-07
5.18006e-07
5.1059e-07
5.02753e-07
4.94503e-07
4.85846e-07
4.76792e-07
4.6735e-07
4.57529e-07
4.47342e-07
4.36801e-07
4.25917e-07
4.14705e-07
4.0318e-07
3.91357e-07
3.79252e-07
3.66882e-07
3.54267e-07
3.41424e-07
3.28374e-07
3.15137e-07
3.01736e-07
2.88193e-07
2.74531e-07
2.60776e-07
2.46952e-07
2.33086e-07
2.19205e-07
2.0534e-07
1.91519e-07
1.77775e-07
1.64141e-07
1.50652e-07
1.37347e-07
1.24267e-07
1.11455e-07
9.89643e-08
8.6851e-08
7.51845e-08
6.40509e-08
5.35639e-08
4.38867e-08
3.52766e-08
2.81934e-08
2.36121e-08
2.42868e-08
4.46472e-08
6.95831e-08
3.40871e-08
2.62213e-08
2.46923e-08
2.58497e-08
2.85091e-08
3.21432e-08
3.64715e-08
4.13267e-08
4.66002e-08
5.22175e-08
5.81246e-08
6.42801e-08
7.06519e-08
7.72133e-08
8.39421e-08
9.08192e-08
9.78276e-08
1.04952e-07
1.12179e-07
1.19495e-07
1.26888e-07
1.34347e-07
1.41862e-07
1.49421e-07
1.57014e-07
1.64632e-07
1.72266e-07
1.79905e-07
1.87542e-07
1.95166e-07
2.02769e-07
2.10342e-07
2.17878e-07
2.25367e-07
2.328e-07
2.4017e-07
2.47469e-07
2.54688e-07
2.61819e-07
2.68855e-07
2.75787e-07
2.82608e-07
2.89309e-07
2.95885e-07
3.02325e-07
3.08625e-07
3.14775e-07
3.20769e-07
3.266e-07
3.3226e-07
3.37743e-07
3.43041e-07
3.48148e-07
3.53058e-07
3.57763e-07
3.62257e-07
3.66535e-07
3.70589e-07
3.74413e-07
3.78002e-07
3.81351e-07
3.84452e-07
3.87302e-07
3.89894e-07
3.92224e-07
3.94286e-07
3.96076e-07
3.97589e-07
3.98822e-07
3.99769e-07
4.00427e-07
4.00793e-07
4.00863e-07
4.00634e-07
4.00104e-07
3.99269e-07
3.98128e-07
3.9668e-07
3.94922e-07
3.92854e-07
3.90476e-07
3.87786e-07
3.84787e-07
3.81477e-07
3.77859e-07
3.73934e-07
3.69704e-07
3.65173e-07
3.60343e-07
3.55218e-07
3.49803e-07
3.44102e-07
3.38121e-07
3.31866e-07
3.25343e-07
3.18561e-07
3.11527e-07
3.04249e-07
2.96737e-07
2.89e-07
2.81049e-07
2.72895e-07
2.64549e-07
2.56025e-07
2.47334e-07
2.3849e-07
2.29509e-07
2.20405e-07
2.11193e-07
2.0189e-07
1.92514e-07
1.83082e-07
1.73613e-07
1.64128e-07
1.54647e-07
1.45192e-07
1.35788e-07
1.26459e-07
1.17233e-07
1.0814e-07
9.92133e-08
9.04906e-08
8.20159e-08
7.38415e-08
6.6032e-08
5.86705e-08
5.18692e-08
4.57882e-08
4.06719e-08
3.69258e-08
3.53075e-08
3.75146e-08
4.87711e-08
9.9541e-08
1.15329e-07
5.52841e-08
3.99524e-08
3.42884e-08
3.24716e-08
3.26989e-08
3.42016e-08
3.65829e-08
3.96102e-08
4.31352e-08
4.70571e-08
5.13038e-08
5.58219e-08
6.05704e-08
6.55167e-08
7.06342e-08
7.5901e-08
8.12982e-08
8.68094e-08
9.24202e-08
9.81176e-08
1.0389e-07
1.09726e-07
1.15615e-07
1.21549e-07
1.27518e-07
1.33513e-07
1.39526e-07
1.45549e-07
1.51574e-07
1.57593e-07
1.636e-07
1.69587e-07
1.75546e-07
1.81471e-07
1.87355e-07
1.93191e-07
1.98973e-07
2.04693e-07
2.10345e-07
2.15924e-07
2.21422e-07
2.26833e-07
2.32152e-07
2.37371e-07
2.42485e-07
2.47488e-07
2.52374e-07
2.57137e-07
2.61772e-07
2.66272e-07
2.70632e-07
2.74847e-07
2.78911e-07
2.82818e-07
2.86564e-07
2.90144e-07
2.93551e-07
2.96782e-07
2.99832e-07
3.02694e-07
3.05366e-07
3.07842e-07
3.10119e-07
3.12191e-07
3.14054e-07
3.15706e-07
3.17141e-07
3.18356e-07
3.19348e-07
3.20114e-07
3.2065e-07
3.20953e-07
3.21022e-07
3.20853e-07
3.20444e-07
3.19793e-07
3.18899e-07
3.1776e-07
3.16375e-07
3.14744e-07
3.12866e-07
3.10741e-07
3.08369e-07
3.05752e-07
3.0289e-07
2.99784e-07
2.96436e-07
2.92849e-07
2.89026e-07
2.84969e-07
2.80683e-07
2.76171e-07
2.71438e-07
2.66488e-07
2.61329e-07
2.55965e-07
2.50403e-07
2.4465e-07
2.38715e-07
2.32604e-07
2.26327e-07
2.19894e-07
2.13313e-07
2.06596e-07
1.99752e-07
1.92795e-07
1.85735e-07
1.78587e-07
1.71363e-07
1.64078e-07
1.56746e-07
1.49384e-07
1.42009e-07
1.34639e-07
1.27293e-07
1.19992e-07
1.12758e-07
1.05617e-07
9.85958e-08
9.17264e-08
8.50445e-08
7.85924e-08
7.24211e-08
6.65935e-08
6.11904e-08
5.63185e-08
5.21259e-08
4.88283e-08
4.67617e-08
4.64978e-08
4.91396e-08
5.72731e-08
7.92409e-08
1.65268e-07
1.665e-07
7.92273e-08
5.59862e-08
4.62544e-08
4.17191e-08
3.98543e-08
3.96103e-08
4.04586e-08
4.20961e-08
4.43324e-08
4.70393e-08
5.01263e-08
5.35266e-08
5.71892e-08
6.10744e-08
6.51501e-08
6.939e-08
7.37723e-08
7.82783e-08
8.28917e-08
8.75982e-08
9.2385e-08
9.72407e-08
1.02155e-07
1.07117e-07
1.12119e-07
1.17152e-07
1.22208e-07
1.27279e-07
1.32358e-07
1.37438e-07
1.42512e-07
1.47573e-07
1.52615e-07
1.57631e-07
1.62616e-07
1.67563e-07
1.72467e-07
1.77321e-07
1.8212e-07
1.86858e-07
1.9153e-07
1.96131e-07
2.00654e-07
2.05094e-07
2.09447e-07
2.13707e-07
2.17869e-07
2.21927e-07
2.25878e-07
2.29716e-07
2.33435e-07
2.37032e-07
2.40502e-07
2.43839e-07
2.47041e-07
2.50101e-07
2.53015e-07
2.5578e-07
2.58391e-07
2.60844e-07
2.63135e-07
2.65259e-07
2.67214e-07
2.68995e-07
2.70599e-07
2.72023e-07
2.73263e-07
2.74315e-07
2.75178e-07
2.75847e-07
2.76321e-07
2.76597e-07
2.76673e-07
2.76547e-07
2.76216e-07
2.75679e-07
2.74934e-07
2.73981e-07
2.72819e-07
2.71447e-07
2.69865e-07
2.68072e-07
2.66069e-07
2.63858e-07
2.61438e-07
2.58811e-07
2.55979e-07
2.52943e-07
2.49708e-07
2.46274e-07
2.42646e-07
2.38828e-07
2.34823e-07
2.30636e-07
2.26272e-07
2.21737e-07
2.17037e-07
2.12178e-07
2.07166e-07
2.02011e-07
1.96718e-07
1.91298e-07
1.85758e-07
1.8011e-07
1.74361e-07
1.68525e-07
1.62611e-07
1.56632e-07
1.50601e-07
1.44532e-07
1.38438e-07
1.32336e-07
1.26243e-07
1.20176e-07
1.14154e-07
1.082e-07
1.02338e-07
9.65926e-08
9.09959e-08
8.55822e-08
8.03927e-08
7.54764e-08
7.08937e-08
6.67203e-08
6.30549e-08
6.00301e-08
5.7832e-08
5.67363e-08
5.718e-08
5.99238e-08
6.64767e-08
8.04691e-08
1.13845e-07
2.39187e-07
2.21859e-07
1.05225e-07
7.36141e-08
5.97343e-08
5.25502e-08
4.87346e-08
4.69229e-08
4.64388e-08
4.69007e-08
4.80725e-08
4.97974e-08
5.19654e-08
5.44962e-08
5.73289e-08
6.04162e-08
6.37202e-08
6.72102e-08
7.08606e-08
7.46496e-08
7.8559e-08
8.25727e-08
8.66765e-08
9.08579e-08
9.51056e-08
9.94091e-08
1.03759e-07
1.08146e-07
1.12563e-07
1.17001e-07
1.21453e-07
1.25912e-07
1.30372e-07
1.34825e-07
1.39266e-07
1.43689e-07
1.48088e-07
1.52458e-07
1.56791e-07
1.61085e-07
1.65332e-07
1.69528e-07
1.73667e-07
1.77745e-07
1.81757e-07
1.85697e-07
1.89562e-07
1.93346e-07
1.97045e-07
2.00653e-07
2.04167e-07
2.07582e-07
2.10894e-07
2.14099e-07
2.17191e-07
2.20167e-07
2.23023e-07
2.25755e-07
2.28359e-07
2.3083e-07
2.33166e-07
2.35362e-07
2.37414e-07
2.3932e-07
2.41075e-07
2.42676e-07
2.44121e-07
2.45405e-07
2.46526e-07
2.47482e-07
2.48269e-07
2.48884e-07
2.49326e-07
2.49592e-07
2.4968e-07
2.49589e-07
2.49316e-07
2.4886e-07
2.48219e-07
2.47394e-07
2.46382e-07
2.45184e-07
2.438e-07
2.42229e-07
2.40471e-07
2.38529e-07
2.36401e-07
2.34091e-07
2.31599e-07
2.28927e-07
2.26079e-07
2.23056e-07
2.19862e-07
2.16501e-07
2.12976e-07
2.09292e-07
2.05454e-07
2.01466e-07
1.97336e-07
1.93068e-07
1.8867e-07
1.84149e-07
1.79513e-07
1.74769e-07
1.69927e-07
1.64995e-07
1.59985e-07
1.54906e-07
1.4977e-07
1.44588e-07
1.39374e-07
1.34142e-07
1.28905e-07
1.23681e-07
1.18487e-07
1.1334e-07
1.08263e-07
1.03278e-07
9.84112e-08
9.36915e-08
8.9153e-08
8.48348e-08
8.07837e-08
7.70566e-08
7.37239e-08
7.08752e-08
6.86281e-08
6.7142e-08
6.66442e-08
6.74758e-08
7.01877e-08
7.57554e-08
8.61463e-08
1.06157e-07
1.51695e-07
3.19747e-07
2.80506e-07
1.32815e-07
9.24305e-08
7.42884e-08
6.4457e-08
5.87507e-08
5.54639e-08
5.3759e-08
5.31686e-08
5.3407e-08
5.42861e-08
5.56757e-08
5.74813e-08
5.96317e-08
6.20719e-08
6.47582e-08
6.76553e-08
7.0734e-08
7.39697e-08
7.73415e-08
8.08313e-08
8.44233e-08
8.81035e-08
9.18595e-08
9.56801e-08
9.95551e-08
1.03475e-07
1.07432e-07
1.11416e-07
1.15422e-07
1.19441e-07
1.23467e-07
1.27493e-07
1.31513e-07
1.35522e-07
1.39512e-07
1.4348e-07
1.47419e-07
1.51324e-07
1.5519e-07
1.59013e-07
1.62786e-07
1.66506e-07
1.70168e-07
1.73767e-07
1.77298e-07
1.80757e-07
1.84141e-07
1.87444e-07
1.90662e-07
1.93791e-07
1.96827e-07
1.99766e-07
2.02604e-07
2.05338e-07
2.07962e-07
2.10474e-07
2.1287e-07
2.15145e-07
2.17298e-07
2.19323e-07
2.21218e-07
2.22979e-07
2.24604e-07
2.26088e-07
2.2743e-07
2.28625e-07
2.29672e-07
2.30568e-07
2.31309e-07
2.31894e-07
2.32321e-07
2.32587e-07
2.32691e-07
2.3263e-07
2.32404e-07
2.3201e-07
2.31448e-07
2.30717e-07
2.29816e-07
2.28744e-07
2.27503e-07
2.26091e-07
2.2451e-07
2.22759e-07
2.20841e-07
2.18755e-07
2.16505e-07
2.14092e-07
2.11519e-07
2.08787e-07
2.05901e-07
2.02865e-07
1.99681e-07
1.96354e-07
1.9289e-07
1.89293e-07
1.85569e-07
1.81725e-07
1.77767e-07
1.73702e-07
1.69538e-07
1.65283e-07
1.60946e-07
1.56536e-07
1.52065e-07
1.47541e-07
1.42978e-07
1.38386e-07
1.33781e-07
1.29175e-07
1.24584e-07
1.20026e-07
1.15518e-07
1.11081e-07
1.06737e-07
1.02511e-07
9.84306e-08
9.45289e-08
9.08435e-08
8.74186e-08
8.43073e-08
8.15744e-08
7.93005e-08
7.75894e-08
7.65785e-08
7.64571e-08
7.7497e-08
8.01125e-08
8.49798e-08
9.33111e-08
1.07575e-07
1.33829e-07
1.92235e-07
4.05887e-07
3.41723e-07
1.61641e-07
1.12152e-07
8.96377e-08
7.71374e-08
6.9565e-08
6.48544e-08
6.19966e-08
6.04324e-08
5.98224e-08
5.99455e-08
6.06495e-08
6.18251e-08
6.33904e-08
6.52825e-08
6.74517e-08
6.98579e-08
7.24683e-08
7.52553e-08
7.81954e-08
8.12687e-08
8.44576e-08
8.77469e-08
9.11229e-08
9.45732e-08
9.8087e-08
1.01654e-07
1.05265e-07
1.08911e-07
1.12584e-07
1.16278e-07
1.19984e-07
1.23697e-07
1.27409e-07
1.31116e-07
1.34811e-07
1.38488e-07
1.42143e-07
1.45769e-07
1.49363e-07
1.52918e-07
1.56431e-07
1.59896e-07
1.63309e-07
1.66666e-07
1.69962e-07
1.73193e-07
1.76355e-07
1.79443e-07
1.82453e-07
1.85382e-07
1.88226e-07
1.9098e-07
1.93642e-07
1.96206e-07
1.9867e-07
2.0103e-07
2.03283e-07
2.05424e-07
2.07451e-07
2.0936e-07
2.11149e-07
2.12813e-07
2.1435e-07
2.15756e-07
2.1703e-07
2.18168e-07
2.19168e-07
2.20026e-07
2.20742e-07
2.21311e-07
2.21733e-07
2.22005e-07
2.22125e-07
2.22093e-07
2.21906e-07
2.21563e-07
2.21063e-07
2.20406e-07
2.1959e-07
2.18616e-07
2.17483e-07
2.16192e-07
2.14742e-07
2.13136e-07
2.11374e-07
2.09457e-07
2.07387e-07
2.05167e-07
2.02798e-07
2.00284e-07
1.97627e-07
1.94833e-07
1.91903e-07
1.88844e-07
1.85659e-07
1.82355e-07
1.78937e-07
1.75411e-07
1.71784e-07
1.68064e-07
1.64259e-07
1.60376e-07
1.56426e-07
1.52417e-07
1.4836e-07
1.44267e-07
1.4015e-07
1.36021e-07
1.31894e-07
1.27784e-07
1.23708e-07
1.19684e-07
1.15731e-07
1.1187e-07
1.08127e-07
1.04528e-07
1.01104e-07
9.78916e-08
9.49316e-08
9.22733e-08
8.99758e-08
8.81124e-08
8.67751e-08
8.6083e-08
8.61951e-08
8.73323e-08
8.98157e-08
9.41384e-08
1.01113e-07
1.12206e-07
1.30421e-07
1.63155e-07
2.35069e-07
4.96818e-07
4.04904e-07
1.91408e-07
1.32557e-07
1.05578e-07
9.03841e-08
8.09556e-08
7.48526e-08
7.08867e-08
6.84023e-08
6.70038e-08
6.64347e-08
6.652e-08
6.71341e-08
6.81844e-08
6.95997e-08
7.13239e-08
7.33124e-08
7.55282e-08
7.79409e-08
8.05246e-08
8.3257e-08
8.61191e-08
8.9094e-08
9.21669e-08
9.53243e-08
9.85545e-08
1.01846e-07
1.0519e-07
1.08577e-07
1.11998e-07
1.15446e-07
1.18912e-07
1.22391e-07
1.25875e-07
1.29358e-07
1.32835e-07
1.36299e-07
1.39745e-07
1.43168e-07
1.46563e-07
1.49924e-07
1.53248e-07
1.5653e-07
1.59764e-07
1.62947e-07
1.66074e-07
1.69141e-07
1.72145e-07
1.7508e-07
1.77943e-07
1.8073e-07
1.83438e-07
1.86062e-07
1.88599e-07
1.91045e-07
1.93397e-07
1.95651e-07
1.97804e-07
1.99852e-07
2.01792e-07
2.03622e-07
2.05337e-07
2.06936e-07
2.08414e-07
2.09769e-07
2.10999e-07
2.121e-07
2.1307e-07
2.13907e-07
2.14609e-07
2.15172e-07
2.15596e-07
2.15878e-07
2.16016e-07
2.1601e-07
2.15857e-07
2.15557e-07
2.15108e-07
2.1451e-07
2.13762e-07
2.12864e-07
2.11816e-07
2.10619e-07
2.09273e-07
2.07778e-07
2.06136e-07
2.04349e-07
2.02418e-07
2.00346e-07
1.98135e-07
1.95788e-07
1.93308e-07
1.90699e-07
1.87966e-07
1.85113e-07
1.82145e-07
1.79067e-07
1.75887e-07
1.72609e-07
1.69241e-07
1.65792e-07
1.62269e-07
1.5868e-07
1.55036e-07
1.51347e-07
1.47623e-07
1.43876e-07
1.40119e-07
1.36365e-07
1.32629e-07
1.28927e-07
1.25277e-07
1.21698e-07
1.1821e-07
1.14838e-07
1.11608e-07
1.08547e-07
1.05692e-07
1.03079e-07
1.00755e-07
9.87753e-08
9.7205e-08
9.61263e-08
9.5643e-08
9.58906e-08
9.70513e-08
9.93806e-08
1.03252e-07
1.09242e-07
1.1831e-07
1.32191e-07
1.54453e-07
1.93895e-07
2.79886e-07
5.91909e-07
4.6952e-07
2.21864e-07
1.5346e-07
1.21948e-07
1.0404e-07
9.2761e-08
8.52876e-08
8.02463e-08
7.68818e-08
7.47397e-08
7.3527e-08
7.30445e-08
7.31502e-08
7.37394e-08
7.47327e-08
7.60676e-08
7.76942e-08
7.95721e-08
8.16674e-08
8.39517e-08
8.64008e-08
8.89937e-08
9.17121e-08
9.45399e-08
9.74628e-08
1.00468e-07
1.03543e-07
1.06678e-07
1.09864e-07
1.1309e-07
1.16349e-07
1.19633e-07
1.22935e-07
1.26247e-07
1.29564e-07
1.32878e-07
1.36185e-07
1.39479e-07
1.42754e-07
1.46005e-07
1.49227e-07
1.52415e-07
1.55564e-07
1.58671e-07
1.6173e-07
1.64737e-07
1.67689e-07
1.7058e-07
1.73408e-07
1.76167e-07
1.78855e-07
1.81467e-07
1.84e-07
1.8645e-07
1.88814e-07
1.91088e-07
1.93269e-07
1.95353e-07
1.97338e-07
1.99219e-07
2.00995e-07
2.02661e-07
2.04216e-07
2.05655e-07
2.06978e-07
2.08179e-07
2.09258e-07
2.10212e-07
2.11037e-07
2.11733e-07
2.12297e-07
2.12727e-07
2.13021e-07
2.13177e-07
2.13195e-07
2.13073e-07
2.12809e-07
2.12402e-07
2.11853e-07
2.1116e-07
2.10324e-07
2.09345e-07
2.08222e-07
2.06957e-07
2.0555e-07
2.04004e-07
2.02319e-07
2.00497e-07
1.98541e-07
1.96453e-07
1.94237e-07
1.91896e-07
1.89434e-07
1.86855e-07
1.84165e-07
1.81368e-07
1.7847e-07
1.75478e-07
1.72398e-07
1.69238e-07
1.66005e-07
1.62708e-07
1.59357e-07
1.55962e-07
1.52533e-07
1.49081e-07
1.4562e-07
1.42162e-07
1.38723e-07
1.35317e-07
1.31962e-07
1.28675e-07
1.25478e-07
1.22392e-07
1.19444e-07
1.1666e-07
1.14073e-07
1.11719e-07
1.09642e-07
1.0789e-07
1.06525e-07
1.0562e-07
1.05265e-07
1.05577e-07
1.0671e-07
1.08869e-07
1.12348e-07
1.17574e-07
1.25215e-07
1.36381e-07
1.5309e-07
1.79495e-07
2.25857e-07
3.26433e-07
6.90637e-07
5.351e-07
2.52782e-07
1.74699e-07
1.3861e-07
1.17977e-07
1.04855e-07
9.60297e-08
8.99395e-08
8.57271e-08
8.28776e-08
8.10604e-08
8.00513e-08
7.96912e-08
7.98633e-08
8.0479e-08
8.14696e-08
8.278e-08
8.43656e-08
8.61893e-08
8.82203e-08
9.04321e-08
9.2802e-08
9.53102e-08
9.79392e-08
1.00673e-07
1.03499e-07
1.06404e-07
1.09376e-07
1.12406e-07
1.15483e-07
1.18599e-07
1.21746e-07
1.24916e-07
1.28101e-07
1.31295e-07
1.34491e-07
1.37684e-07
1.40868e-07
1.44036e-07
1.47184e-07
1.50306e-07
1.53398e-07
1.56455e-07
1.59472e-07
1.62445e-07
1.65369e-07
1.6824e-07
1.71054e-07
1.73808e-07
1.76496e-07
1.79116e-07
1.81663e-07
1.84135e-07
1.86526e-07
1.88835e-07
1.91057e-07
1.9319e-07
1.95229e-07
1.97172e-07
1.99016e-07
2.00757e-07
2.02393e-07
2.0392e-07
2.05336e-07
2.06639e-07
2.07825e-07
2.08892e-07
2.09838e-07
2.1066e-07
2.11357e-07
2.11925e-07
2.12364e-07
2.12672e-07
2.12846e-07
2.12886e-07
2.1279e-07
2.12557e-07
2.12187e-07
2.11678e-07
2.11031e-07
2.10245e-07
2.0932e-07
2.08257e-07
2.07057e-07
2.05721e-07
2.04249e-07
2.02645e-07
2.00909e-07
1.99045e-07
1.97055e-07
1.94942e-07
1.92711e-07
1.90365e-07
1.87909e-07
1.85348e-07
1.82687e-07
1.79933e-07
1.77092e-07
1.74172e-07
1.7118e-07
1.68125e-07
1.65016e-07
1.61862e-07
1.58673e-07
1.55462e-07
1.5224e-07
1.4902e-07
1.45817e-07
1.42644e-07
1.3952e-07
1.36462e-07
1.3349e-07
1.30625e-07
1.27892e-07
1.25317e-07
1.22931e-07
1.20767e-07
1.18867e-07
1.17275e-07
1.16048e-07
1.1525e-07
1.14962e-07
1.15286e-07
1.16352e-07
1.1833e-07
1.21455e-07
1.26055e-07
1.32619e-07
1.41906e-07
1.55184e-07
1.74765e-07
2.05409e-07
2.58882e-07
3.74493e-07
7.92552e-07
6.01218e-07
2.83961e-07
1.96132e-07
1.55445e-07
1.32086e-07
1.17133e-07
1.06975e-07
9.98596e-08
9.48272e-08
9.13014e-08
8.89129e-08
8.74121e-08
8.66224e-08
8.64145e-08
8.66904e-08
8.73747e-08
8.84072e-08
8.9739e-08
9.13299e-08
9.31462e-08
9.51594e-08
9.73448e-08
9.96812e-08
1.0215e-07
1.04734e-07
1.07419e-07
1.10191e-07
1.13038e-07
1.1595e-07
1.18915e-07
1.21925e-07
1.24971e-07
1.28045e-07
1.31139e-07
1.34246e-07
1.3736e-07
1.40473e-07
1.4358e-07
1.46676e-07
1.49754e-07
1.5281e-07
1.55837e-07
1.58832e-07
1.6179e-07
1.64706e-07
1.67576e-07
1.70395e-07
1.7316e-07
1.75866e-07
1.78509e-07
1.81085e-07
1.83592e-07
1.86025e-07
1.8838e-07
1.90655e-07
1.92845e-07
1.94948e-07
1.9696e-07
1.98879e-07
2.007e-07
2.02421e-07
2.0404e-07
2.05553e-07
2.06957e-07
2.0825e-07
2.0943e-07
2.10493e-07
2.11438e-07
2.12262e-07
2.12963e-07
2.13539e-07
2.13988e-07
2.14309e-07
2.145e-07
2.1456e-07
2.14488e-07
2.14282e-07
2.13941e-07
2.13465e-07
2.12855e-07
2.12109e-07
2.11229e-07
2.10214e-07
2.09065e-07
2.07785e-07
2.06374e-07
2.04833e-07
2.03166e-07
2.01375e-07
1.99463e-07
1.97433e-07
1.9529e-07
1.93037e-07
1.9068e-07
1.88223e-07
1.85673e-07
1.83036e-07
1.80319e-07
1.7753e-07
1.74676e-07
1.71767e-07
1.68811e-07
1.6582e-07
1.62804e-07
1.59776e-07
1.56747e-07
1.53732e-07
1.50745e-07
1.47803e-07
1.44923e-07
1.42125e-07
1.39428e-07
1.36858e-07
1.34438e-07
1.32198e-07
1.3017e-07
1.28392e-07
1.26905e-07
1.25762e-07
1.2502e-07
1.24752e-07
1.25046e-07
1.26015e-07
1.27803e-07
1.306e-07
1.34665e-07
1.4037e-07
1.48262e-07
1.59198e-07
1.74608e-07
1.97105e-07
2.32075e-07
2.92834e-07
4.23876e-07
8.97256e-07
6.67488e-07
3.15216e-07
2.17629e-07
1.72347e-07
1.46275e-07
1.29506e-07
1.18035e-07
1.09919e-07
1.04093e-07
9.99189e-08
9.69889e-08
9.50272e-08
9.38397e-08
9.32841e-08
9.32535e-08
9.36647e-08
9.44527e-08
9.55644e-08
9.6956e-08
9.85912e-08
1.00439e-07
1.02474e-07
1.04672e-07
1.07013e-07
1.0948e-07
1.12056e-07
1.14728e-07
1.17482e-07
1.20308e-07
1.23193e-07
1.26128e-07
1.29104e-07
1.32113e-07
1.35146e-07
1.38196e-07
1.41256e-07
1.44319e-07
1.47378e-07
1.50429e-07
1.53465e-07
1.5648e-07
1.5947e-07
1.62429e-07
1.65353e-07
1.68237e-07
1.71076e-07
1.73866e-07
1.76603e-07
1.79283e-07
1.81902e-07
1.84455e-07
1.8694e-07
1.89353e-07
1.9169e-07
1.93947e-07
1.96122e-07
1.9821e-07
2.00209e-07
2.02116e-07
2.03928e-07
2.05641e-07
2.07253e-07
2.08761e-07
2.10162e-07
2.11453e-07
2.12633e-07
2.13698e-07
2.14647e-07
2.15477e-07
2.16186e-07
2.16772e-07
2.17233e-07
2.17568e-07
2.17776e-07
2.17854e-07
2.17802e-07
2.17619e-07
2.17303e-07
2.16856e-07
2.16275e-07
2.15562e-07
2.14717e-07
2.13741e-07
2.12634e-07
2.11397e-07
2.10033e-07
2.08543e-07
2.0693e-07
2.05196e-07
2.03345e-07
2.0138e-07
1.99306e-07
1.97127e-07
1.94847e-07
1.92474e-07
1.90012e-07
1.87469e-07
1.84852e-07
1.82168e-07
1.79427e-07
1.76638e-07
1.7381e-07
1.70955e-07
1.68084e-07
1.6521e-07
1.62345e-07
1.59506e-07
1.56706e-07
1.53964e-07
1.51298e-07
1.48728e-07
1.46277e-07
1.43969e-07
1.41831e-07
1.39894e-07
1.38193e-07
1.36767e-07
1.35664e-07
1.34937e-07
1.3465e-07
1.34883e-07
1.35732e-07
1.3732e-07
1.39806e-07
1.434e-07
1.4839e-07
1.55189e-07
1.64405e-07
1.76996e-07
1.94559e-07
2.20016e-07
2.59392e-07
3.27588e-07
4.74409e-07
1.00439e-06
7.33558e-07
3.46382e-07
2.39073e-07
1.89223e-07
1.60459e-07
1.41898e-07
1.29138e-07
1.20045e-07
1.13451e-07
1.08655e-07
1.05211e-07
1.02817e-07
1.0126e-07
1.00386e-07
1.00079e-07
1.00247e-07
1.0082e-07
1.01742e-07
1.02964e-07
1.04448e-07
1.06161e-07
1.08074e-07
1.10163e-07
1.12406e-07
1.14785e-07
1.17282e-07
1.19882e-07
1.22571e-07
1.25338e-07
1.28171e-07
1.31059e-07
1.33992e-07
1.36962e-07
1.3996e-07
1.42979e-07
1.4601e-07
1.49047e-07
1.52083e-07
1.55113e-07
1.58129e-07
1.61127e-07
1.64101e-07
1.67046e-07
1.69957e-07
1.72829e-07
1.75657e-07
1.78438e-07
1.81166e-07
1.83838e-07
1.8645e-07
1.88997e-07
1.91476e-07
1.93884e-07
1.96217e-07
1.9847e-07
2.00642e-07
2.02729e-07
2.04726e-07
2.06633e-07
2.08444e-07
2.10159e-07
2.11772e-07
2.13283e-07
2.14688e-07
2.15984e-07
2.17169e-07
2.18241e-07
2.19198e-07
2.20036e-07
2.20755e-07
2.21352e-07
2.21826e-07
2.22175e-07
2.22397e-07
2.22491e-07
2.22457e-07
2.22294e-07
2.21999e-07
2.21574e-07
2.21018e-07
2.20331e-07
2.19513e-07
2.18567e-07
2.17491e-07
2.16289e-07
2.14961e-07
2.1351e-07
2.11938e-07
2.10248e-07
2.08444e-07
2.06529e-07
2.04508e-07
2.02386e-07
2.00168e-07
1.97859e-07
1.95468e-07
1.92999e-07
1.90462e-07
1.87864e-07
1.85215e-07
1.82524e-07
1.79802e-07
1.7706e-07
1.74311e-07
1.71567e-07
1.68843e-07
1.66154e-07
1.63517e-07
1.6095e-07
1.58472e-07
1.56104e-07
1.53871e-07
1.51799e-07
1.49916e-07
1.48256e-07
1.46855e-07
1.45757e-07
1.45011e-07
1.44675e-07
1.44819e-07
1.45528e-07
1.4691e-07
1.49096e-07
1.52262e-07
1.56638e-07
1.62541e-07
1.70427e-07
1.80967e-07
1.95221e-07
2.14958e-07
2.43414e-07
2.87267e-07
3.63035e-07
5.25936e-07
1.11362e-06
7.9911e-07
3.77307e-07
2.6036e-07
2.05987e-07
1.74565e-07
1.5424e-07
1.40218e-07
1.30175e-07
1.22838e-07
1.17447e-07
1.13515e-07
1.10715e-07
1.08817e-07
1.07652e-07
1.07094e-07
1.07047e-07
1.07434e-07
1.08192e-07
1.09273e-07
1.10633e-07
1.12238e-07
1.14057e-07
1.16063e-07
1.18234e-07
1.20551e-07
1.22994e-07
1.25548e-07
1.28198e-07
1.30932e-07
1.33736e-07
1.36601e-07
1.39515e-07
1.4247e-07
1.45456e-07
1.48465e-07
1.5149e-07
1.54523e-07
1.57557e-07
1.60587e-07
1.63604e-07
1.66605e-07
1.69582e-07
1.72531e-07
1.75447e-07
1.78325e-07
1.8116e-07
1.83947e-07
1.86682e-07
1.89361e-07
1.91981e-07
1.94536e-07
1.97023e-07
1.99438e-07
2.01779e-07
2.0404e-07
2.0622e-07
2.08315e-07
2.10321e-07
2.12236e-07
2.14056e-07
2.15779e-07
2.17401e-07
2.1892e-07
2.20334e-07
2.2164e-07
2.22835e-07
2.23917e-07
2.24884e-07
2.25734e-07
2.26464e-07
2.27073e-07
2.27559e-07
2.27921e-07
2.28157e-07
2.28266e-07
2.28246e-07
2.28099e-07
2.27821e-07
2.27413e-07
2.26876e-07
2.26209e-07
2.25412e-07
2.24487e-07
2.23436e-07
2.22258e-07
2.20957e-07
2.19534e-07
2.17992e-07
2.16335e-07
2.14566e-07
2.12688e-07
2.10707e-07
2.08628e-07
2.06456e-07
2.04198e-07
2.0186e-07
1.9945e-07
1.96975e-07
1.94446e-07
1.9187e-07
1.89259e-07
1.86624e-07
1.83976e-07
1.81328e-07
1.78694e-07
1.7609e-07
1.73531e-07
1.71034e-07
1.68619e-07
1.66307e-07
1.6412e-07
1.62083e-07
1.60225e-07
1.58575e-07
1.57168e-07
1.56045e-07
1.55252e-07
1.5484e-07
1.54874e-07
1.55429e-07
1.56596e-07
1.58492e-07
1.6126e-07
1.65091e-07
1.70236e-07
1.77045e-07
1.86012e-07
1.97879e-07
2.13804e-07
2.35734e-07
2.67224e-07
3.15615e-07
3.99071e-07
5.78308e-07
1.22463e-06
8.63858e-07
4.07857e-07
2.81397e-07
2.22565e-07
1.88529e-07
1.66475e-07
1.5122e-07
1.40255e-07
1.32202e-07
1.26242e-07
1.21849e-07
1.18669e-07
1.16454e-07
1.15024e-07
1.14242e-07
1.14005e-07
1.1423e-07
1.14852e-07
1.15816e-07
1.17078e-07
1.18599e-07
1.20348e-07
1.22297e-07
1.24421e-07
1.26699e-07
1.29112e-07
1.31644e-07
1.34278e-07
1.37e-07
1.39799e-07
1.42662e-07
1.45579e-07
1.48539e-07
1.51534e-07
1.54555e-07
1.57593e-07
1.60641e-07
1.63692e-07
1.6674e-07
1.69776e-07
1.72796e-07
1.75794e-07
1.78764e-07
1.81701e-07
1.846e-07
1.87456e-07
1.90264e-07
1.9302e-07
1.9572e-07
1.98359e-07
2.00934e-07
2.0344e-07
2.05875e-07
2.08233e-07
2.10513e-07
2.1271e-07
2.14821e-07
2.16844e-07
2.18774e-07
2.20609e-07
2.22347e-07
2.23984e-07
2.25517e-07
2.26945e-07
2.28264e-07
2.29472e-07
2.30567e-07
2.31546e-07
2.32408e-07
2.33151e-07
2.33772e-07
2.3427e-07
2.34644e-07
2.34892e-07
2.35013e-07
2.35006e-07
2.34871e-07
2.34606e-07
2.34212e-07
2.33688e-07
2.33035e-07
2.32253e-07
2.31343e-07
2.30308e-07
2.29147e-07
2.27864e-07
2.2646e-07
2.24939e-07
2.23304e-07
2.21558e-07
2.19707e-07
2.17754e-07
2.15705e-07
2.13567e-07
2.11345e-07
2.09047e-07
2.0668e-07
2.04254e-07
2.01777e-07
1.99259e-07
1.96711e-07
1.94145e-07
1.91574e-07
1.8901e-07
1.86468e-07
1.83965e-07
1.81517e-07
1.79142e-07
1.76861e-07
1.74696e-07
1.72669e-07
1.70809e-07
1.69144e-07
1.67707e-07
1.66535e-07
1.65671e-07
1.65163e-07
1.65068e-07
1.65453e-07
1.66401e-07
1.6801e-07
1.70404e-07
1.73741e-07
1.78225e-07
1.84131e-07
1.91837e-07
2.01884e-07
2.15077e-07
2.32683e-07
2.56822e-07
2.91376e-07
3.44358e-07
4.35597e-07
6.31386e-07
1.33714e-06
9.27552e-07
4.37913e-07
3.02101e-07
2.3889e-07
2.02294e-07
1.7855e-07
1.62097e-07
1.50239e-07
1.41499e-07
1.34996e-07
1.30167e-07
1.26633e-07
1.24127e-07
1.22456e-07
1.21475e-07
1.21073e-07
1.21161e-07
1.21669e-07
1.2254e-07
1.23727e-07
1.25189e-07
1.26892e-07
1.28805e-07
1.30905e-07
1.33167e-07
1.35572e-07
1.38102e-07
1.40741e-07
1.43474e-07
1.46287e-07
1.49169e-07
1.52108e-07
1.55094e-07
1.58116e-07
1.61166e-07
1.64236e-07
1.67317e-07
1.70401e-07
1.73483e-07
1.76555e-07
1.7961e-07
1.82643e-07
1.85649e-07
1.88621e-07
1.91554e-07
1.94444e-07
1.97286e-07
2.00075e-07
2.02807e-07
2.05477e-07
2.08082e-07
2.10617e-07
2.1308e-07
2.15466e-07
2.17772e-07
2.19994e-07
2.22129e-07
2.24175e-07
2.26127e-07
2.27983e-07
2.29741e-07
2.31397e-07
2.32948e-07
2.34393e-07
2.35729e-07
2.36952e-07
2.38062e-07
2.39055e-07
2.39931e-07
2.40686e-07
2.41319e-07
2.41829e-07
2.42214e-07
2.42472e-07
2.42603e-07
2.42605e-07
2.4248e-07
2.42224e-07
2.41838e-07
2.41323e-07
2.40679e-07
2.39906e-07
2.39005e-07
2.37979e-07
2.36828e-07
2.35554e-07
2.34162e-07
2.32652e-07
2.3103e-07
2.29298e-07
2.27462e-07
2.25527e-07
2.23497e-07
2.2138e-07
2.19183e-07
2.16912e-07
2.14576e-07
2.12184e-07
2.09745e-07
2.07271e-07
2.04772e-07
2.02261e-07
1.9975e-07
1.97255e-07
1.94789e-07
1.92371e-07
1.90017e-07
1.87747e-07
1.85583e-07
1.83547e-07
1.81664e-07
1.79963e-07
1.78474e-07
1.77233e-07
1.76278e-07
1.75655e-07
1.75416e-07
1.75621e-07
1.76343e-07
1.77669e-07
1.79705e-07
1.82585e-07
1.86478e-07
1.91606e-07
1.98264e-07
2.06863e-07
2.17986e-07
2.32508e-07
2.518e-07
2.78162e-07
3.15805e-07
3.73419e-07
4.72521e-07
6.85037e-07
1.45085e-06
9.89971e-07
4.67372e-07
3.224e-07
2.54907e-07
2.1581e-07
1.90423e-07
1.72809e-07
1.6009e-07
1.50692e-07
1.43673e-07
1.38434e-07
1.3457e-07
1.31798e-07
1.2991e-07
1.28754e-07
1.28209e-07
1.28184e-07
1.28602e-07
1.29403e-07
1.30538e-07
1.31962e-07
1.3364e-07
1.3554e-07
1.37636e-07
1.39904e-07
1.42321e-07
1.4487e-07
1.47534e-07
1.50296e-07
1.53143e-07
1.56062e-07
1.59041e-07
1.6207e-07
1.65137e-07
1.68233e-07
1.71351e-07
1.7448e-07
1.77614e-07
1.80745e-07
1.83866e-07
1.86971e-07
1.90053e-07
1.93107e-07
1.96127e-07
1.99107e-07
2.02043e-07
2.04929e-07
2.07761e-07
2.10535e-07
2.13246e-07
2.1589e-07
2.18463e-07
2.20962e-07
2.23383e-07
2.25722e-07
2.27976e-07
2.30141e-07
2.32216e-07
2.34195e-07
2.36077e-07
2.37859e-07
2.39538e-07
2.41111e-07
2.42576e-07
2.4393e-07
2.45171e-07
2.46297e-07
2.47305e-07
2.48195e-07
2.48962e-07
2.49607e-07
2.50128e-07
2.50522e-07
2.50789e-07
2.50927e-07
2.50937e-07
2.50818e-07
2.50567e-07
2.50186e-07
2.49675e-07
2.49034e-07
2.48264e-07
2.47367e-07
2.46343e-07
2.45195e-07
2.43925e-07
2.42535e-07
2.41029e-07
2.39411e-07
2.37684e-07
2.35854e-07
2.33926e-07
2.31905e-07
2.29799e-07
2.27615e-07
2.25359e-07
2.23042e-07
2.20672e-07
2.1826e-07
2.15816e-07
2.13352e-07
2.10882e-07
2.08419e-07
2.05977e-07
2.03573e-07
2.01225e-07
1.9895e-07
1.9677e-07
1.94707e-07
1.92785e-07
1.9103e-07
1.89472e-07
1.88144e-07
1.87083e-07
1.86331e-07
1.85935e-07
1.8595e-07
1.8644e-07
1.87485e-07
1.89175e-07
1.91627e-07
1.94981e-07
1.9942e-07
2.05182e-07
2.12586e-07
2.22071e-07
2.34268e-07
2.50119e-07
2.71102e-07
2.99698e-07
3.40447e-07
4.02728e-07
5.09753e-07
7.3913e-07
1.5655e-06
1.05093e-06
4.96147e-07
3.42235e-07
2.70568e-07
2.29038e-07
2.02057e-07
1.83321e-07
1.69775e-07
1.59749e-07
1.52243e-07
1.4662e-07
1.42452e-07
1.39437e-07
1.37357e-07
1.36048e-07
1.35384e-07
1.35268e-07
1.35617e-07
1.36371e-07
1.37474e-07
1.38882e-07
1.40556e-07
1.42464e-07
1.44576e-07
1.46869e-07
1.49318e-07
1.51905e-07
1.54612e-07
1.57422e-07
1.6032e-07
1.63294e-07
1.6633e-07
1.69418e-07
1.72546e-07
1.75704e-07
1.78884e-07
1.82077e-07
1.85274e-07