/*--------------------------------*- C++ -*----------------------------------*\
  =========                 |
  \\      /  F ield         | OpenFOAM: The Open Source CFD Toolbox
   \\    /   O peration     | Website:  https://openfoam.org
    \\  /    A nd           | Version:  12
     \\/     M anipulation  |
\*---------------------------------------------------------------------------*/
FoamFile
{
    format      ascii;
    class       volScalarField;
    location    "8";
    object      k;
}
// * * * * * * * * * * * * * * * * * * * * * * * * * * * * * * * * * * * * * //

dimensions      [0 2 -2 0 0 0 0];

internalField   nonuniform List<scalar> 
18225
(
1.26066e-12
9.52565e-12
2.0215e-11
3.30171e-11
4.75048e-11
6.33662e-11
8.03861e-11
9.84097e-11
1.1732e-10
1.37022e-10
1.57438e-10
1.785e-10
2.00151e-10
2.22336e-10
2.45007e-10
2.68121e-10
2.91634e-10
3.15509e-10
3.39707e-10
3.64193e-10
3.88932e-10
4.13892e-10
4.39039e-10
4.64342e-10
4.89771e-10
5.15294e-10
5.40881e-10
5.66503e-10
5.92131e-10
6.17736e-10
6.4329e-10
6.68763e-10
6.94128e-10
7.19357e-10
7.44422e-10
7.69296e-10
7.93953e-10
8.18364e-10
8.42503e-10
8.66344e-10
8.8986e-10
9.13026e-10
9.35816e-10
9.58203e-10
9.80164e-10
1.00167e-09
1.02271e-09
1.04324e-09
1.06324e-09
1.0827e-09
1.10159e-09
1.11988e-09
1.13755e-09
1.15458e-09
1.17095e-09
1.18664e-09
1.20162e-09
1.21587e-09
1.22938e-09
1.24212e-09
1.25407e-09
1.26522e-09
1.27555e-09
1.28503e-09
1.29366e-09
1.30141e-09
1.30826e-09
1.31421e-09
1.31923e-09
1.32332e-09
1.32646e-09
1.32863e-09
1.32983e-09
1.33004e-09
1.32926e-09
1.32747e-09
1.32467e-09
1.32084e-09
1.31599e-09
1.31011e-09
1.30319e-09
1.29524e-09
1.28625e-09
1.27622e-09
1.26516e-09
1.25307e-09
1.23995e-09
1.22581e-09
1.21067e-09
1.19452e-09
1.17739e-09
1.15929e-09
1.14023e-09
1.12023e-09
1.09931e-09
1.07749e-09
1.05479e-09
1.03125e-09
1.00688e-09
9.81725e-10
9.55806e-10
9.29159e-10
9.01821e-10
8.73827e-10
8.45219e-10
8.16037e-10
7.86325e-10
7.56129e-10
7.25495e-10
6.94474e-10
6.63117e-10
6.31477e-10
5.9961e-10
5.67573e-10
5.35427e-10
5.03234e-10
4.71058e-10
4.38966e-10
4.07028e-10
3.75317e-10
3.43909e-10
3.12885e-10
2.82329e-10
2.52333e-10
2.22993e-10
1.94415e-10
1.66718e-10
1.40033e-10
1.14517e-10
9.03557e-11
6.77892e-11
4.71418e-11
2.88739e-11
1.36088e-11
1.80109e-12
8.52986e-12
7.59492e-11
1.73306e-10
2.90123e-10
4.21633e-10
5.65109e-10
7.1876e-10
8.81287e-10
1.05169e-09
1.22915e-09
1.41298e-09
1.6026e-09
1.79747e-09
1.99713e-09
2.20115e-09
2.40913e-09
2.62069e-09
2.8355e-09
3.0532e-09
3.27349e-09
3.49606e-09
3.7206e-09
3.94682e-09
4.17444e-09
4.40319e-09
4.63278e-09
4.86295e-09
5.09344e-09
5.32397e-09
5.5543e-09
5.78416e-09
6.0133e-09
6.24146e-09
6.46841e-09
6.69388e-09
6.91763e-09
7.13942e-09
7.35901e-09
7.57616e-09
7.79062e-09
8.00217e-09
8.21056e-09
8.41557e-09
8.61697e-09
8.81453e-09
9.00802e-09
9.19723e-09
9.38194e-09
9.56193e-09
9.73698e-09
9.90689e-09
1.00714e-08
1.02304e-08
1.03837e-08
1.0531e-08
1.06721e-08
1.08069e-08
1.09352e-08
1.10567e-08
1.11714e-08
1.12789e-08
1.13793e-08
1.14722e-08
1.15576e-08
1.16352e-08
1.1705e-08
1.17667e-08
1.18202e-08
1.18655e-08
1.19023e-08
1.19306e-08
1.19502e-08
1.1961e-08
1.19629e-08
1.19559e-08
1.19398e-08
1.19146e-08
1.18803e-08
1.18367e-08
1.17838e-08
1.17216e-08
1.16501e-08
1.15692e-08
1.14791e-08
1.13796e-08
1.12709e-08
1.11529e-08
1.10257e-08
1.08895e-08
1.07443e-08
1.05902e-08
1.04274e-08
1.02559e-08
1.0076e-08
9.88782e-09
9.69154e-09
9.48738e-09
9.27559e-09
9.05639e-09
8.83006e-09
8.59688e-09
8.35715e-09
8.11119e-09
7.85933e-09
7.60194e-09
7.33938e-09
7.07205e-09
6.80036e-09
6.52473e-09
6.2456e-09
5.96344e-09
5.67873e-09
5.39198e-09
5.10369e-09
4.81441e-09
4.52469e-09
4.23512e-09
3.94629e-09
3.65883e-09
3.3734e-09
3.09069e-09
2.8114e-09
2.5363e-09
2.2662e-09
2.00197e-09
1.74455e-09
1.49498e-09
1.25443e-09
1.02425e-09
8.06047e-10
6.01843e-10
4.14353e-10
2.47606e-10
1.08532e-10
1.21898e-11
1.89982e-11
1.70435e-10
3.91448e-10
6.58481e-10
9.60307e-10
1.29033e-09
1.64416e-09
2.01866e-09
2.41142e-09
2.82049e-09
3.24428e-09
3.68139e-09
4.13062e-09
4.59087e-09
5.06114e-09
5.54053e-09
6.02817e-09
6.52326e-09
7.02503e-09
7.53274e-09
8.04569e-09
8.56318e-09
9.08454e-09
9.60913e-09
1.01363e-08
1.06654e-08
1.11959e-08
1.17271e-08
1.22584e-08
1.27892e-08
1.33189e-08
1.3847e-08
1.43729e-08
1.48959e-08
1.54156e-08
1.59313e-08
1.64425e-08
1.69486e-08
1.74491e-08
1.79435e-08
1.84311e-08
1.89114e-08
1.9384e-08
1.98483e-08
2.03037e-08
2.07498e-08
2.1186e-08
2.16119e-08
2.20269e-08
2.24305e-08
2.28223e-08
2.32018e-08
2.35684e-08
2.39219e-08
2.42616e-08
2.45871e-08
2.4898e-08
2.51939e-08
2.54744e-08
2.57389e-08
2.59872e-08
2.62188e-08
2.64333e-08
2.66304e-08
2.68097e-08
2.69709e-08
2.71135e-08
2.72374e-08
2.73421e-08
2.74273e-08
2.74929e-08
2.75385e-08
2.75638e-08
2.75687e-08
2.7553e-08
2.75164e-08
2.74587e-08
2.73799e-08
2.72798e-08
2.71583e-08
2.70153e-08
2.68509e-08
2.66649e-08
2.64574e-08
2.62284e-08
2.5978e-08
2.57063e-08
2.54136e-08
2.50998e-08
2.47653e-08
2.44103e-08
2.4035e-08
2.36399e-08
2.32253e-08
2.27915e-08
2.23391e-08
2.18685e-08
2.13802e-08
2.08749e-08
2.03531e-08
1.98154e-08
1.92626e-08
1.86955e-08
1.81147e-08
1.75211e-08
1.69156e-08
1.6299e-08
1.56723e-08
1.50366e-08
1.43927e-08
1.37419e-08
1.30851e-08
1.24236e-08
1.17585e-08
1.10911e-08
1.04227e-08
9.75457e-09
9.08815e-09
8.42488e-09
7.76625e-09
7.11386e-09
6.46935e-09
5.8345e-09
5.21116e-09
4.60135e-09
4.00726e-09
3.43132e-09
2.87628e-09
2.34532e-09
1.8423e-09
1.37212e-09
9.41373e-10
5.59827e-10
2.43797e-10
2.71772e-11
3.14883e-11
2.82952e-10
6.5124e-10
1.09774e-09
1.60383e-09
2.1583e-09
2.75364e-09
3.38435e-09
4.04624e-09
4.73593e-09
5.45062e-09
6.18792e-09
6.94574e-09
7.72221e-09
8.51565e-09
9.32449e-09
1.01473e-08
1.09826e-08
1.18293e-08
1.2686e-08
1.35515e-08
1.44247e-08
1.53044e-08
1.61896e-08
1.70791e-08
1.7972e-08
1.88671e-08
1.97635e-08
2.066e-08
2.15558e-08
2.24498e-08
2.3341e-08
2.42285e-08
2.51113e-08
2.59883e-08
2.68587e-08
2.77216e-08
2.85759e-08
2.94208e-08
3.02552e-08
3.10784e-08
3.18894e-08
3.26873e-08
3.34711e-08
3.42401e-08
3.49934e-08
3.573e-08
3.64492e-08
3.71501e-08
3.78319e-08
3.84937e-08
3.91348e-08
3.97543e-08
4.03515e-08
4.09255e-08
4.14757e-08
4.20013e-08
4.25015e-08
4.29757e-08
4.34232e-08
4.38431e-08
4.4235e-08
4.45981e-08
4.49318e-08
4.52354e-08
4.55085e-08
4.57503e-08
4.59604e-08
4.61382e-08
4.62833e-08
4.6395e-08
4.64731e-08
4.6517e-08
4.65264e-08
4.6501e-08
4.64404e-08
4.63441e-08
4.62122e-08
4.60442e-08
4.58402e-08
4.55998e-08
4.53232e-08
4.50101e-08
4.46607e-08
4.4275e-08
4.38531e-08
4.33952e-08
4.29016e-08
4.23725e-08
4.18084e-08
4.12095e-08
4.05765e-08
3.99098e-08
3.921e-08
3.8478e-08
3.77143e-08
3.69198e-08
3.60955e-08
3.52422e-08
3.4361e-08
3.3453e-08
3.25194e-08
3.15614e-08
3.05804e-08
2.95776e-08
2.85547e-08
2.7513e-08
2.64542e-08
2.538e-08
2.4292e-08
2.31922e-08
2.20823e-08
2.09644e-08
1.98404e-08
1.87124e-08
1.75827e-08
1.64535e-08
1.53271e-08
1.4206e-08
1.30928e-08
1.19901e-08
1.09008e-08
9.82778e-09
8.77435e-09
7.74391e-09
6.74023e-09
5.76749e-09
4.83046e-09
3.93468e-09
3.08687e-09
2.29552e-09
1.57204e-09
9.32968e-10
4.05445e-10
4.51223e-11
4.54593e-11
4.08744e-10
9.41631e-10
1.58887e-09
2.32374e-09
3.13008e-09
3.99687e-09
4.91602e-09
5.88129e-09
6.88764e-09
7.93088e-09
9.00746e-09
1.01142e-08
1.12485e-08
1.24076e-08
1.35894e-08
1.47916e-08
1.60123e-08
1.72496e-08
1.85015e-08
1.97665e-08
2.10426e-08
2.23285e-08
2.36223e-08
2.49225e-08
2.62276e-08
2.75361e-08
2.88464e-08
3.01571e-08
3.14667e-08
3.27737e-08
3.40767e-08
3.53743e-08
3.66651e-08
3.79476e-08
3.92205e-08
4.04823e-08
4.17317e-08
4.29674e-08
4.4188e-08
4.53921e-08
4.65785e-08
4.77458e-08
4.88927e-08
5.00179e-08
5.11202e-08
5.21983e-08
5.32509e-08
5.42769e-08
5.5275e-08
5.6244e-08
5.71827e-08
5.809e-08
5.89647e-08
5.98057e-08
6.06119e-08
6.13822e-08
6.21155e-08
6.28107e-08
6.34669e-08
6.4083e-08
6.46581e-08
6.51911e-08
6.56812e-08
6.61275e-08
6.6529e-08
6.68849e-08
6.71944e-08
6.74568e-08
6.76713e-08
6.78371e-08
6.79536e-08
6.80202e-08
6.80363e-08
6.80014e-08
6.7915e-08
6.77765e-08
6.75857e-08
6.73423e-08
6.70459e-08
6.66964e-08
6.62937e-08
6.58377e-08
6.53284e-08
6.4766e-08
6.41505e-08
6.34822e-08
6.27616e-08
6.19889e-08
6.11648e-08
6.02898e-08
5.93646e-08
5.83901e-08
5.73671e-08
5.62965e-08
5.51797e-08
5.40176e-08
5.28116e-08
5.15631e-08
5.02737e-08
4.89449e-08
4.75785e-08
4.61762e-08
4.474e-08
4.3272e-08
4.17742e-08
4.02489e-08
3.86985e-08
3.71253e-08
3.5532e-08
3.39212e-08
3.22956e-08
3.06581e-08
2.90117e-08
2.73595e-08
2.57047e-08
2.40506e-08
2.24006e-08
2.07585e-08
1.91279e-08
1.75128e-08
1.59174e-08
1.43462e-08
1.28038e-08
1.12955e-08
9.8267e-09
8.4038e-09
7.03387e-09
5.72519e-09
4.48776e-09
3.33413e-09
2.28099e-09
1.35232e-09
5.87143e-10
6.5304e-11
6.0574e-11
5.44803e-10
1.25568e-09
2.12002e-09
3.10245e-09
4.18154e-09
5.34259e-09
6.57475e-09
7.86955e-09
9.22017e-09
1.06209e-08
1.20669e-08
1.35539e-08
1.50781e-08
1.6636e-08
1.82246e-08
1.98409e-08
2.14822e-08
2.31459e-08
2.48296e-08
2.65308e-08
2.82472e-08
2.99767e-08
3.17171e-08
3.34662e-08
3.52219e-08
3.69823e-08
3.87453e-08
4.05088e-08
4.2271e-08
4.40298e-08
4.57834e-08
4.75298e-08
4.92671e-08
5.09934e-08
5.27068e-08
5.44056e-08
5.60878e-08
5.77516e-08
5.93952e-08
6.10168e-08
6.26146e-08
6.41869e-08
6.57319e-08
6.72479e-08
6.87331e-08
7.01859e-08
7.16047e-08
7.29876e-08
7.43332e-08
7.56398e-08
7.69057e-08
7.81296e-08
7.93097e-08
8.04445e-08
8.15326e-08
8.25726e-08
8.35628e-08
8.4502e-08
8.53887e-08
8.62216e-08
8.69994e-08
8.77207e-08
8.83842e-08
8.89888e-08
8.95333e-08
9.00165e-08
9.04372e-08
9.07945e-08
9.10874e-08
9.13147e-08
9.14758e-08
9.15695e-08
9.15953e-08
9.15525e-08
9.14402e-08
9.12578e-08
9.10048e-08
9.06808e-08
9.02854e-08
8.98185e-08
8.92797e-08
8.86689e-08
8.79863e-08
8.72319e-08
8.64059e-08
8.55087e-08
8.45406e-08
8.35023e-08
8.23945e-08
8.12179e-08
7.99734e-08
7.86623e-08
7.72855e-08
7.58446e-08
7.43409e-08
7.2776e-08
7.11518e-08
6.94701e-08
6.77329e-08
6.59424e-08
6.41009e-08
6.2211e-08
6.02751e-08
5.82961e-08
5.62768e-08
5.42202e-08
5.21295e-08
5.00081e-08
4.78593e-08
4.56869e-08
4.34944e-08
4.12858e-08
3.90651e-08
3.68365e-08
3.46044e-08
3.23733e-08
3.01479e-08
2.7933e-08
2.5734e-08
2.3556e-08
2.14049e-08
1.92867e-08
1.72078e-08
1.51753e-08
1.31969e-08
1.12811e-08
9.4375e-09
7.67751e-09
6.01464e-09
4.4658e-09
3.05333e-09
1.80917e-09
7.85121e-10
8.72987e-11
7.65864e-11
6.88928e-10
1.58831e-09
2.68256e-09
3.92723e-09
5.29534e-09
6.76837e-09
8.33257e-09
9.97721e-09
1.16936e-08
1.34743e-08
1.53132e-08
1.72048e-08
1.91442e-08
2.1127e-08
2.31491e-08
2.52069e-08
2.72967e-08
2.94153e-08
3.15595e-08
3.37263e-08
3.59127e-08
3.8116e-08
4.03332e-08
4.25618e-08
4.47991e-08
4.70424e-08
4.92891e-08
5.15368e-08
5.3783e-08
5.6025e-08
5.82606e-08
6.04871e-08
6.27023e-08
6.49037e-08
6.70889e-08
6.92555e-08
7.14012e-08
7.35238e-08
7.56207e-08
7.76899e-08
7.9729e-08
8.17357e-08
8.37079e-08
8.56433e-08
8.75398e-08
8.93951e-08
9.12072e-08
9.2974e-08
9.46933e-08
9.63631e-08
9.79814e-08
9.95461e-08
1.01055e-07
1.02507e-07
1.03899e-07
1.05231e-07
1.06499e-07
1.07702e-07
1.08838e-07
1.09906e-07
1.10903e-07
1.11829e-07
1.12682e-07
1.13459e-07
1.1416e-07
1.14782e-07
1.15325e-07
1.15788e-07
1.16168e-07
1.16464e-07
1.16676e-07
1.16803e-07
1.16842e-07
1.16794e-07
1.16657e-07
1.16431e-07
1.16114e-07
1.15707e-07
1.15208e-07
1.14618e-07
1.13936e-07
1.13162e-07
1.12297e-07
1.11339e-07
1.10289e-07
1.09149e-07
1.07917e-07
1.06596e-07
1.05186e-07
1.03687e-07
1.02102e-07
1.0043e-07
9.86754e-08
9.68378e-08
9.49198e-08
9.29234e-08
9.08507e-08
8.87042e-08
8.64865e-08
8.42004e-08
8.18489e-08
7.9435e-08
7.69622e-08
7.44339e-08
7.18539e-08
6.92261e-08
6.65544e-08
6.38432e-08
6.10969e-08
5.83201e-08
5.55177e-08
5.26945e-08
4.98559e-08
4.70071e-08
4.41539e-08
4.1302e-08
3.84574e-08
3.56266e-08
3.28162e-08
3.00332e-08
2.72848e-08
2.45789e-08
2.19239e-08
1.93289e-08
1.68037e-08
1.43594e-08
1.20084e-08
9.76519e-09
7.64709e-09
5.67559e-09
3.87897e-09
2.29757e-09
9.96791e-10
1.10817e-10
9.33005e-11
8.39358e-10
1.93547e-09
3.26965e-09
4.78797e-09
6.45775e-09
8.2565e-09
1.01675e-08
1.21777e-08
1.42764e-08
1.64546e-08
1.87046e-08
2.10198e-08
2.33941e-08
2.5822e-08
2.82986e-08
3.08192e-08
3.33795e-08
3.59755e-08
3.86031e-08
4.12588e-08
4.39388e-08
4.66397e-08
4.93581e-08
5.20907e-08
5.48341e-08
5.75853e-08
6.03409e-08
6.3098e-08
6.58535e-08
6.86042e-08
7.13473e-08
7.40796e-08
7.67982e-08
7.95002e-08
8.21826e-08
8.48427e-08
8.74774e-08
9.00839e-08
9.26594e-08
9.52011e-08
9.77063e-08
1.00172e-07
1.02596e-07
1.04975e-07
1.07306e-07
1.09588e-07
1.11816e-07
1.1399e-07
1.16105e-07
1.1816e-07
1.20152e-07
1.22079e-07
1.23938e-07
1.25727e-07
1.27443e-07
1.29084e-07
1.30649e-07
1.32133e-07
1.33536e-07
1.34856e-07
1.36089e-07
1.37234e-07
1.3829e-07
1.39253e-07
1.40123e-07
1.40897e-07
1.41573e-07
1.4215e-07
1.42627e-07
1.43001e-07
1.43271e-07
1.43435e-07
1.43493e-07
1.43444e-07
1.43285e-07
1.43016e-07
1.42637e-07
1.42146e-07
1.41542e-07
1.40826e-07
1.39996e-07
1.39054e-07
1.37997e-07
1.36828e-07
1.35546e-07
1.34151e-07
1.32644e-07
1.31026e-07
1.29298e-07
1.27462e-07
1.25518e-07
1.23468e-07
1.21314e-07
1.19059e-07
1.16704e-07
1.14252e-07
1.11705e-07
1.09068e-07
1.06342e-07
1.03532e-07
1.00641e-07
9.76727e-08
9.46314e-08
9.15215e-08
8.83475e-08
8.51144e-08
8.1827e-08
7.84906e-08
7.51108e-08
7.16933e-08
6.82441e-08
6.47692e-08
6.12752e-08
5.77688e-08
5.42569e-08
5.07468e-08
4.7246e-08
4.37623e-08
4.0304e-08
3.68798e-08
3.34988e-08
3.01707e-08
2.6906e-08
2.37158e-08
2.06124e-08
1.76094e-08
1.47223e-08
1.19688e-08
9.37002e-09
6.95238e-09
4.75035e-09
2.81306e-09
1.22022e-09
1.35644e-10
1.10551e-10
9.94608e-10
2.29373e-09
3.87548e-09
5.67618e-09
7.65725e-09
9.79217e-09
1.20612e-08
1.44488e-08
1.69424e-08
1.95313e-08
2.22064e-08
2.49595e-08
2.77837e-08
3.06722e-08
3.36193e-08
3.66192e-08
3.9667e-08
4.27576e-08
4.58864e-08
4.9049e-08
5.2241e-08
5.54583e-08
5.86968e-08
6.19526e-08
6.52217e-08
6.85004e-08
7.17849e-08
7.50715e-08
7.83565e-08
8.16363e-08
8.49073e-08
8.8166e-08
9.14088e-08
9.46321e-08
9.78327e-08
1.01007e-07
1.04151e-07
1.07263e-07
1.10338e-07
1.13373e-07
1.16364e-07
1.1931e-07
1.22206e-07
1.25048e-07
1.27835e-07
1.30563e-07
1.33228e-07
1.35827e-07
1.38358e-07
1.40818e-07
1.43202e-07
1.4551e-07
1.47737e-07
1.4988e-07
1.51938e-07
1.53906e-07
1.55783e-07
1.57566e-07
1.59251e-07
1.60837e-07
1.62321e-07
1.637e-07
1.64972e-07
1.66135e-07
1.67186e-07
1.68122e-07
1.68943e-07
1.69645e-07
1.70227e-07
1.70687e-07
1.71023e-07
1.71233e-07
1.71316e-07
1.7127e-07
1.71094e-07
1.70786e-07
1.70345e-07
1.69771e-07
1.69063e-07
1.6822e-07
1.67241e-07
1.66126e-07
1.64875e-07
1.63489e-07
1.61967e-07
1.6031e-07
1.58519e-07
1.56594e-07
1.54537e-07
1.5235e-07
1.50034e-07
1.4759e-07
1.45022e-07
1.42331e-07
1.3952e-07
1.36593e-07
1.33553e-07
1.30402e-07
1.27146e-07
1.23787e-07
1.20332e-07
1.16783e-07
1.13146e-07
1.09427e-07
1.05631e-07
1.01763e-07
9.78302e-08
9.38383e-08
8.97941e-08
8.57045e-08
8.15767e-08
7.74182e-08
7.32367e-08
6.90403e-08
6.48375e-08
6.06368e-08
5.64476e-08
5.22792e-08
4.81416e-08
4.40453e-08
4.00013e-08
3.60213e-08
3.21178e-08
2.83044e-08
2.45957e-08
2.10082e-08
1.75601e-08
1.42728e-08
1.11715e-08
8.28738e-09
5.66148e-09
3.35208e-09
1.45386e-09
1.61606e-10
1.28193e-10
1.15338e-09
2.66011e-09
4.49501e-09
6.58444e-09
8.88382e-09
1.13625e-08
1.39977e-08
1.67714e-08
1.9669e-08
2.26782e-08
2.57883e-08
2.899e-08
3.22749e-08
3.56355e-08
3.90647e-08
4.25562e-08
4.61038e-08
4.9702e-08
5.33451e-08
5.70281e-08
6.07459e-08
6.44937e-08
6.82667e-08
7.20603e-08
7.58701e-08
7.96914e-08
8.35201e-08
8.73517e-08
9.1182e-08
9.50068e-08
9.88219e-08
1.02623e-07
1.06406e-07
1.10168e-07
1.13903e-07
1.17608e-07
1.21279e-07
1.24912e-07
1.28503e-07
1.32049e-07
1.35544e-07
1.38986e-07
1.42371e-07
1.45695e-07
1.48954e-07
1.52144e-07
1.55262e-07
1.58305e-07
1.61268e-07
1.64149e-07
1.66943e-07
1.69647e-07
1.72258e-07
1.74772e-07
1.77187e-07
1.79498e-07
1.81703e-07
1.83798e-07
1.85781e-07
1.87648e-07
1.89396e-07
1.91022e-07
1.92524e-07
1.93898e-07
1.95142e-07
1.96253e-07
1.97229e-07
1.98067e-07
1.98765e-07
1.9932e-07
1.9973e-07
1.99993e-07
2.00108e-07
2.00072e-07
1.99884e-07
1.99542e-07
1.99045e-07
1.98391e-07
1.9758e-07
1.9661e-07
1.95482e-07
1.94195e-07
1.92748e-07
1.91141e-07
1.89376e-07
1.87452e-07
1.8537e-07
1.83131e-07
1.80738e-07
1.7819e-07
1.75491e-07
1.72642e-07
1.69646e-07
1.66506e-07
1.63225e-07
1.59806e-07
1.56254e-07
1.52573e-07
1.48766e-07
1.4484e-07
1.40798e-07
1.36647e-07
1.32393e-07
1.28041e-07
1.23598e-07
1.19071e-07
1.14467e-07
1.09793e-07
1.05058e-07
1.00269e-07
9.54354e-08
9.05656e-08
8.56687e-08
8.07544e-08
7.58325e-08
7.09135e-08
6.60081e-08
6.11274e-08
5.62833e-08
5.14881e-08
4.67547e-08
4.20971e-08
3.75298e-08
3.30688e-08
2.87314e-08
2.45367e-08
2.05062e-08
1.66647e-08
1.30416e-08
9.67326e-09
6.60736e-09
3.91169e-09
1.69642e-09
1.88561e-10
1.46098e-10
1.31452e-09
3.03193e-09
5.12373e-09
7.50615e-09
1.01285e-08
1.2956e-08
1.59628e-08
1.91283e-08
2.24361e-08
2.5872e-08
2.94239e-08
3.30812e-08
3.68342e-08
4.06744e-08
4.45939e-08
4.85851e-08
5.26412e-08
5.67557e-08
6.09224e-08
6.51352e-08
6.93885e-08
7.36767e-08
7.79945e-08
8.23364e-08
8.66974e-08
9.10724e-08
9.54564e-08
9.98445e-08
1.04232e-07
1.08613e-07
1.12985e-07
1.17341e-07
1.21677e-07
1.25989e-07
1.30272e-07
1.34521e-07
1.38732e-07
1.429e-07
1.47021e-07
1.5109e-07
1.55103e-07
1.59056e-07
1.62943e-07
1.66762e-07
1.70507e-07
1.74175e-07
1.77761e-07
1.81261e-07
1.84671e-07
1.87987e-07
1.91204e-07
1.9432e-07
1.97329e-07
2.00229e-07
2.03015e-07
2.05683e-07
2.0823e-07
2.10652e-07
2.12945e-07
2.15106e-07
2.17132e-07
2.19018e-07
2.20762e-07
2.22361e-07
2.2381e-07
2.25108e-07
2.2625e-07
2.27235e-07
2.28059e-07
2.28719e-07
2.29213e-07
2.29538e-07
2.29693e-07
2.29675e-07
2.29482e-07
2.29112e-07
2.28563e-07
2.27835e-07
2.26924e-07
2.25832e-07
2.24557e-07
2.23098e-07
2.21455e-07
2.19628e-07
2.17618e-07
2.15424e-07
2.13048e-07
2.10491e-07
2.07755e-07
2.04841e-07
2.01751e-07
1.98488e-07
1.95055e-07
1.91455e-07
1.87691e-07
1.83769e-07
1.79692e-07
1.75464e-07
1.71092e-07
1.66581e-07
1.61936e-07
1.57164e-07
1.52273e-07
1.47268e-07
1.42158e-07
1.3695e-07
1.31653e-07
1.26275e-07
1.20826e-07
1.15315e-07
1.09751e-07
1.04146e-07
9.851e-08
9.28536e-08
8.71886e-08
8.1527e-08
7.58812e-08
7.02645e-08
6.46902e-08
5.91728e-08
5.37272e-08
4.83695e-08
4.31166e-08
3.79869e-08
3.30003e-08
2.81788e-08
2.3547e-08
1.91335e-08
1.49718e-08
1.11037e-08
7.5837e-09
4.48933e-09
1.94682e-09
2.16386e-10
1.64151e-10
1.47697e-09
3.40679e-09
5.75756e-09
8.43532e-09
1.13833e-08
1.45624e-08
1.79437e-08
2.15043e-08
2.52255e-08
2.90917e-08
3.30891e-08
3.72059e-08
4.14313e-08
4.57555e-08
5.01697e-08
5.46655e-08
5.92351e-08
6.38713e-08
6.85669e-08
7.33154e-08
7.81101e-08
8.2945e-08
8.78139e-08
9.27109e-08
9.76302e-08
1.02566e-07
1.07513e-07
1.12465e-07
1.17417e-07
1.22364e-07
1.273e-07
1.32219e-07
1.37117e-07
1.41989e-07
1.46829e-07
1.51631e-07
1.56392e-07
1.61105e-07
1.65766e-07
1.7037e-07
1.74911e-07
1.79386e-07
1.83788e-07
1.88113e-07
1.92356e-07
1.96513e-07
2.00579e-07
2.04548e-07
2.08417e-07
2.12181e-07
2.15834e-07
2.19374e-07
2.22794e-07
2.26092e-07
2.29262e-07
2.323e-07
2.35202e-07
2.37963e-07
2.4058e-07
2.43049e-07
2.45365e-07
2.47524e-07
2.49523e-07
2.51358e-07
2.53026e-07
2.54521e-07
2.55842e-07
2.56985e-07
2.57945e-07
2.58721e-07
2.5931e-07
2.59707e-07
2.59911e-07
2.59919e-07
2.59731e-07
2.5934e-07
2.58747e-07
2.5795e-07
2.56946e-07
2.55736e-07
2.54318e-07
2.52691e-07
2.50855e-07
2.48809e-07
2.46555e-07
2.44091e-07
2.4142e-07
2.38543e-07
2.35461e-07
2.32176e-07
2.28691e-07
2.25008e-07
2.2113e-07
2.17063e-07
2.12808e-07
2.08372e-07
2.03758e-07
1.98974e-07
1.94023e-07
1.88913e-07
1.83651e-07
1.78244e-07
1.72699e-07
1.67025e-07
1.6123e-07
1.55323e-07
1.49314e-07
1.43214e-07
1.37031e-07
1.30778e-07
1.24465e-07
1.18104e-07
1.11707e-07
1.05288e-07
9.88586e-08
9.24334e-08
8.60266e-08
7.9653e-08
7.33281e-08
6.70683e-08
6.08907e-08
5.48135e-08
4.88561e-08
4.30393e-08
3.73856e-08
3.19201e-08
2.66707e-08
2.16696e-08
1.69547e-08
1.25732e-08
8.58669e-09
5.08276e-09
2.20406e-09
2.44973e-10
1.82244e-10
1.6398e-09
3.78249e-09
6.3928e-09
9.36653e-09
1.26407e-08
1.61722e-08
1.99288e-08
2.38853e-08
2.80209e-08
3.23183e-08
3.67624e-08
4.13398e-08
4.60387e-08
5.08484e-08
5.57589e-08
6.07609e-08
6.58459e-08
7.10057e-08
7.62325e-08
8.15189e-08
8.68577e-08
9.22421e-08
9.76652e-08
1.0312e-07
1.08601e-07
1.14102e-07
1.19615e-07
1.25136e-07
1.30657e-07
1.36174e-07
1.41679e-07
1.47168e-07
1.52634e-07
1.58071e-07
1.63474e-07
1.68836e-07
1.74153e-07
1.79419e-07
1.84627e-07
1.89773e-07
1.94851e-07
1.99855e-07
2.0478e-07
2.09621e-07
2.14372e-07
2.19027e-07
2.23582e-07
2.28031e-07
2.32369e-07
2.36591e-07
2.40692e-07
2.44667e-07
2.4851e-07
2.52217e-07
2.55783e-07
2.59203e-07
2.62471e-07
2.65585e-07
2.68538e-07
2.71326e-07
2.73945e-07
2.7639e-07
2.78656e-07
2.8074e-07
2.82637e-07
2.84343e-07
2.85854e-07
2.87167e-07
2.88276e-07
2.89179e-07
2.89873e-07
2.90353e-07
2.90617e-07
2.90662e-07
2.90486e-07
2.90084e-07
2.89455e-07
2.88597e-07
2.87508e-07
2.86187e-07
2.84632e-07
2.82842e-07
2.80817e-07
2.78556e-07
2.7606e-07
2.7333e-07
2.70365e-07
2.67168e-07
2.63739e-07
2.60082e-07
2.56199e-07
2.52093e-07
2.47767e-07
2.43226e-07
2.38474e-07
2.33517e-07
2.2836e-07
2.23008e-07
2.1747e-07
2.11751e-07
2.0586e-07
1.99804e-07
1.93593e-07
1.87236e-07
1.80742e-07
1.74122e-07
1.67386e-07
1.60546e-07
1.53613e-07
1.46601e-07
1.3952e-07
1.32386e-07
1.25212e-07
1.18012e-07
1.108e-07
1.03594e-07
9.64079e-08
8.92597e-08
8.21665e-08
7.51469e-08
6.82201e-08
6.14067e-08
5.47283e-08
4.82083e-08
4.18722e-08
3.57479e-08
2.98665e-08
2.42642e-08
1.89834e-08
1.40767e-08
9.61291e-09
5.68993e-09
2.46727e-09
2.74223e-10
2.00283e-10
1.80213e-09
4.15705e-09
7.02608e-09
1.02949e-08
1.38943e-08
1.7777e-08
2.19077e-08
2.62587e-08
3.08074e-08
3.55346e-08
4.04239e-08
4.54606e-08
5.06317e-08
5.59255e-08
6.1331e-08
6.68381e-08
7.24374e-08
7.81198e-08
8.3877e-08
8.97007e-08
9.55831e-08
1.01517e-07
1.07494e-07
1.13507e-07
1.1955e-07
1.25616e-07
1.31697e-07
1.37787e-07
1.43879e-07
1.49967e-07
1.56044e-07
1.62103e-07
1.68139e-07
1.74145e-07
1.80114e-07
1.8604e-07
1.91918e-07
1.9774e-07
2.03501e-07
2.09194e-07
2.14814e-07
2.20353e-07
2.25808e-07
2.3117e-07
2.36435e-07
2.41597e-07
2.46649e-07
2.51586e-07
2.56402e-07
2.61091e-07
2.65649e-07
2.70068e-07
2.74344e-07
2.78471e-07
2.82443e-07
2.86255e-07
2.89902e-07
2.93379e-07
2.9668e-07
2.99799e-07
3.02733e-07
3.05475e-07
3.08021e-07
3.10366e-07
3.12506e-07
3.14435e-07
3.16148e-07
3.17643e-07
3.18913e-07
3.19956e-07
3.20766e-07
3.21341e-07
3.21676e-07
3.21769e-07
3.21616e-07
3.21214e-07
3.20559e-07
3.1965e-07
3.18484e-07
3.17059e-07
3.15375e-07
3.13429e-07
3.11222e-07
3.08752e-07
3.0602e-07
3.03026e-07
2.9977e-07
2.96255e-07
2.92482e-07
2.88454e-07
2.84173e-07
2.79642e-07
2.74867e-07
2.6985e-07
2.64597e-07
2.59114e-07
2.53408e-07
2.47484e-07
2.4135e-07
2.35014e-07
2.28485e-07
2.21772e-07
2.14884e-07
2.07833e-07
2.00628e-07
1.93282e-07
1.85806e-07
1.78214e-07
1.70518e-07
1.62731e-07
1.5487e-07
1.46948e-07
1.3898e-07
1.30984e-07
1.22976e-07
1.14972e-07
1.06992e-07
9.90539e-08
9.11774e-08
8.3383e-08
7.56924e-08
6.81282e-08
6.07148e-08
5.34781e-08
4.64462e-08
3.96501e-08
3.31246e-08
2.69094e-08
2.10517e-08
1.56096e-08
1.06592e-08
6.30897e-09
2.73562e-09
3.04045e-10
2.18181e-10
1.96319e-09
4.52865e-09
7.65437e-09
1.12158e-08
1.51378e-08
1.93689e-08
2.38706e-08
2.8613e-08
3.35714e-08
3.8725e-08
4.40558e-08
4.95482e-08
5.51878e-08
6.09619e-08
6.68587e-08
7.28671e-08
7.89769e-08
8.51784e-08
9.14624e-08
9.78199e-08
1.04242e-07
1.10722e-07
1.1725e-07
1.23819e-07
1.30421e-07
1.37049e-07
1.43696e-07
1.50353e-07
1.57015e-07
1.63672e-07
1.7032e-07
1.7695e-07
1.83555e-07
1.9013e-07
1.96666e-07
2.03157e-07
2.09596e-07
2.15976e-07
2.22291e-07
2.28534e-07
2.34699e-07
2.40778e-07
2.46765e-07
2.52654e-07
2.58438e-07
2.64111e-07
2.69667e-07
2.75098e-07
2.80399e-07
2.85563e-07
2.90584e-07
2.95456e-07
3.00173e-07
3.04729e-07
3.09118e-07
3.13332e-07
3.17368e-07
3.21218e-07
3.24878e-07
3.2834e-07
3.316e-07
3.34652e-07
3.3749e-07
3.40108e-07
3.42502e-07
3.44667e-07
3.46596e-07
3.48285e-07
3.49729e-07
3.50924e-07
3.51864e-07
3.52545e-07
3.52964e-07
3.53116e-07
3.52998e-07
3.52607e-07
3.51937e-07
3.50987e-07
3.49755e-07
3.48237e-07
3.46433e-07
3.4434e-07
3.41959e-07
3.39287e-07
3.36325e-07
3.33073e-07
3.29533e-07
3.25705e-07
3.21591e-07
3.17194e-07
3.12517e-07
3.07564e-07
3.02338e-07
2.96845e-07
2.9109e-07
2.8508e-07
2.78821e-07
2.7232e-07
2.65586e-07
2.58628e-07
2.51455e-07
2.44077e-07
2.36506e-07
2.28752e-07
2.20827e-07
2.12746e-07
2.0452e-07
1.96164e-07
1.87693e-07
1.79122e-07
1.70467e-07
1.61744e-07
1.52972e-07
1.44167e-07
1.35348e-07
1.26535e-07
1.17748e-07
1.09007e-07
1.00335e-07
9.17531e-08
8.32862e-08
7.49591e-08
6.67987e-08
5.88334e-08
5.10945e-08
4.36158e-08
3.64357e-08
2.95977e-08
2.31536e-08
1.71674e-08
1.17225e-08
6.93813e-09
3.00836e-09
3.34355e-10
2.3586e-10
2.12228e-09
4.8957e-09
8.27491e-09
1.21254e-08
1.6366e-08
2.0941e-08
2.58092e-08
3.0938e-08
3.63008e-08
4.18754e-08
4.76423e-08
5.35845e-08
5.96868e-08
6.59353e-08
7.23173e-08
7.8821e-08
8.54353e-08
9.21497e-08
9.89544e-08
1.0584e-07
1.12797e-07
1.19816e-07
1.2689e-07
1.34009e-07
1.41165e-07
1.48351e-07
1.55558e-07
1.62778e-07
1.70004e-07
1.77228e-07
1.84442e-07
1.91639e-07
1.98811e-07
2.05952e-07
2.13052e-07
2.20106e-07
2.27105e-07
2.34043e-07
2.40912e-07
2.47705e-07
2.54415e-07
2.61035e-07
2.67557e-07
2.73975e-07
2.80281e-07
2.86469e-07
2.92531e-07
2.98461e-07
3.04252e-07
3.09897e-07
3.15388e-07
3.20721e-07
3.25886e-07
3.30879e-07
3.35692e-07
3.40318e-07
3.44752e-07
3.48986e-07
3.53014e-07
3.5683e-07
3.60428e-07
3.638e-07
3.66942e-07
3.69846e-07
3.72507e-07
3.74919e-07
3.77077e-07
3.78974e-07
3.80604e-07
3.81964e-07
3.83047e-07
3.83848e-07
3.84364e-07
3.84588e-07
3.84518e-07
3.8415e-07
3.83478e-07
3.82499e-07
3.81212e-07
3.79612e-07
3.77698e-07
3.75469e-07
3.72922e-07
3.70058e-07
3.66875e-07
3.63374e-07
3.59555e-07
3.55421e-07
3.50972e-07
3.46212e-07
3.41143e-07
3.3577e-07
3.30097e-07
3.24129e-07
3.17873e-07
3.11335e-07
3.04522e-07
2.97443e-07
2.90107e-07
2.82523e-07
2.74702e-07
2.66655e-07
2.58394e-07
2.49932e-07
2.41281e-07
2.32457e-07
2.23473e-07
2.14346e-07
2.05091e-07
1.95726e-07
1.86268e-07
1.76736e-07
1.67148e-07
1.57524e-07
1.47885e-07
1.38252e-07
1.28647e-07
1.19093e-07
1.09614e-07
1.00235e-07
9.09811e-08
8.18811e-08
7.29637e-08
6.42603e-08
5.58049e-08
4.76346e-08
3.9791e-08
3.23219e-08
2.52838e-08
1.87461e-08
1.28001e-08
7.57573e-09
3.28477e-09
3.65072e-10
2.5325e-10
2.27876e-09
5.25674e-09
8.8853e-09
1.30201e-08
1.75739e-08
2.24872e-08
2.77157e-08
3.32244e-08
3.89849e-08
4.49734e-08
5.1169e-08
5.75536e-08
6.41107e-08
7.08258e-08
7.7685e-08
8.46758e-08
9.17864e-08
9.90055e-08
1.06323e-07
1.13728e-07
1.21211e-07
1.28762e-07
1.36373e-07
1.44034e-07
1.51737e-07
1.59472e-07
1.67232e-07
1.75008e-07
1.82792e-07
1.90576e-07
1.98351e-07
2.06109e-07
2.13842e-07
2.21544e-07
2.29204e-07
2.36816e-07
2.44373e-07
2.51865e-07
2.59285e-07
2.66626e-07
2.7388e-07
2.81039e-07
2.88096e-07
2.95043e-07
3.01872e-07
3.08576e-07
3.15148e-07
3.2158e-07
3.27864e-07
3.33993e-07
3.3996e-07
3.45758e-07
3.51378e-07
3.56814e-07
3.62059e-07
3.67105e-07
3.71945e-07
3.76572e-07
3.80979e-07
3.85158e-07
3.89104e-07
3.92809e-07
3.96265e-07
3.99467e-07
4.02408e-07
4.05081e-07
4.07479e-07
4.09597e-07
4.11428e-07
4.12966e-07
4.14205e-07
4.1514e-07
4.15766e-07
4.16076e-07
4.16067e-07
4.15737e-07
4.15075e-07
4.14081e-07
4.1275e-07
4.11081e-07
4.0907e-07
4.06716e-07
4.04015e-07
4.00969e-07
3.97575e-07
3.93833e-07
3.89746e-07
3.85312e-07
3.80536e-07
3.75419e-07
3.69964e-07
3.64177e-07
3.58061e-07
3.51622e-07
3.44868e-07
3.37804e-07
3.30439e-07
3.22783e-07
3.14844e-07
3.06634e-07
2.98163e-07
2.89445e-07
2.80491e-07
2.71316e-07
2.61935e-07
2.52363e-07
2.42616e-07
2.32711e-07
2.22667e-07
2.12501e-07
2.02233e-07
1.91883e-07
1.81472e-07
1.71021e-07
1.60554e-07
1.50093e-07
1.39662e-07
1.29286e-07
1.18992e-07
1.08806e-07
9.8758e-08
8.88768e-08
7.91944e-08
6.97451e-08
6.05656e-08
5.16962e-08
4.31823e-08
3.50754e-08
2.74367e-08
2.03417e-08
1.38893e-08
8.22018e-09
3.56415e-09
3.9612e-10
2.70293e-10
2.43212e-09
5.61056e-09
9.48345e-09
1.38967e-08
1.87576e-08
2.40022e-08
2.95836e-08
3.54644e-08
4.16145e-08
4.80083e-08
5.46238e-08
6.14415e-08
6.84442e-08
7.56161e-08
8.29428e-08
9.04108e-08
9.80076e-08
1.05721e-07
1.13541e-07
1.21455e-07
1.29454e-07
1.37527e-07
1.45665e-07
1.53858e-07
1.62097e-07
1.70373e-07
1.78677e-07
1.86999e-07
1.95332e-07
2.03666e-07
2.11993e-07
2.20304e-07
2.28592e-07
2.36846e-07
2.4506e-07
2.53225e-07
2.61331e-07
2.69373e-07
2.7734e-07
2.85224e-07
2.93019e-07
3.00714e-07
3.08303e-07
3.15778e-07
3.23129e-07
3.30349e-07
3.37431e-07
3.44365e-07
3.51145e-07
3.57761e-07
3.64207e-07
3.70473e-07
3.76553e-07
3.82438e-07
3.88121e-07
3.93593e-07
3.98848e-07
4.03876e-07
4.0867e-07
4.13223e-07
4.17527e-07
4.21574e-07
4.25357e-07
4.28868e-07
4.32101e-07
4.35046e-07
4.37699e-07
4.40051e-07
4.42095e-07
4.43825e-07
4.45235e-07
4.46318e-07
4.47067e-07
4.47478e-07
4.47545e-07
4.47265e-07
4.46628e-07
4.45632e-07
4.44273e-07
4.42548e-07
4.40453e-07
4.37985e-07
4.35144e-07
4.31927e-07
4.28333e-07
4.24362e-07
4.20016e-07
4.15294e-07
4.10199e-07
4.04733e-07
3.98901e-07
3.92706e-07
3.86153e-07
3.79249e-07
3.72001e-07
3.64416e-07
3.56503e-07
3.48271e-07
3.39732e-07
3.30896e-07
3.21776e-07
3.12386e-07
3.02739e-07
2.9285e-07
2.82736e-07
2.72414e-07
2.619e-07
2.51214e-07
2.40375e-07
2.29404e-07
2.18321e-07
2.07148e-07
1.95909e-07
1.84626e-07
1.73324e-07
1.62028e-07
1.50765e-07
1.39561e-07
1.28446e-07
1.17448e-07
1.06598e-07
9.59294e-08
8.5476e-08
7.52747e-08
6.53652e-08
5.57912e-08
4.66013e-08
3.78514e-08
2.96073e-08
2.19505e-08
1.49874e-08
8.86994e-09
3.84582e-09
4.27423e-10
2.86938e-10
2.5819e-09
5.95611e-09
1.00676e-08
1.47529e-08
1.99133e-08
2.54816e-08
3.14074e-08
3.76514e-08
4.41817e-08
5.09711e-08
5.79963e-08
6.52367e-08
7.26742e-08
8.02919e-08
8.80747e-08
9.60084e-08
1.0408e-07
1.12276e-07
1.20586e-07
1.28998e-07
1.375e-07
1.46083e-07
1.54736e-07
1.6345e-07
1.72213e-07
1.81018e-07
1.89853e-07
1.98711e-07
2.07581e-07
2.16455e-07
2.25324e-07
2.34178e-07
2.43009e-07
2.51808e-07