/*--------------------------------*- C++ -*----------------------------------*\
  =========                 |
  \\      /  F ield         | OpenFOAM: The Open Source CFD Toolbox
   \\    /   O peration     | Website:  https://openfoam.org
    \\  /    A nd           | Version:  12
     \\/     M anipulation  |
\*---------------------------------------------------------------------------*/
FoamFile
{
    format      ascii;
    class       surfaceScalarField;
    location    "8";
    object      phi;
}
// * * * * * * * * * * * * * * * * * * * * * * * * * * * * * * * * * * * * * //

dimensions      [0 3 -1 0 0 0 0];

internalField   nonuniform List<scalar> 
36180
(
-5.28713e-12
5.16827e-12
-1.85814e-11
1.32627e-11
-3.67751e-11
1.81793e-11
-5.67889e-11
2.00182e-11
-7.61553e-11
1.93695e-11
-9.29285e-11
1.67765e-11
-1.05622e-10
1.26974e-11
-1.13128e-10
7.50867e-12
-1.14636e-10
1.51156e-12
-1.09578e-10
-5.05567e-12
-9.75725e-11
-1.20017e-11
-7.83898e-11
-1.91802e-11
-5.19132e-11
-2.64737e-11
-1.81224e-11
-3.37886e-11
2.29301e-11
-4.10502e-11
7.11297e-11
-4.81979e-11
1.26314e-10
-5.51824e-11
1.88278e-10
-6.19631e-11
2.56786e-10
-6.85063e-11
3.31571e-10
-7.47839e-11
4.12344e-10
-8.07722e-11
4.98796e-10
-8.64512e-11
5.906e-10
-9.18042e-11
6.87418e-10
-9.6817e-11
7.88896e-10
-1.01478e-10
8.94673e-10
-1.05777e-10
1.00438e-09
-1.09706e-10
1.11764e-09
-1.13259e-10
1.23407e-09
-1.16431e-10
1.35329e-09
-1.19219e-10
1.47491e-09
-1.21621e-10
1.59854e-09
-1.23636e-10
1.72381e-09
-1.25264e-10
1.85032e-09
-1.26507e-10
1.97768e-09
-1.27367e-10
2.10553e-09
-1.27849e-10
2.23349e-09
-1.27956e-10
2.36118e-09
-1.27695e-10
2.48825e-09
-1.27071e-10
2.61435e-09
-1.26093e-10
2.73911e-09
-1.24768e-10
2.86222e-09
-1.23106e-10
2.98333e-09
-1.21115e-10
3.10214e-09
-1.18806e-10
3.21833e-09
-1.16191e-10
3.33161e-09
-1.13279e-10
3.44169e-09
-1.10085e-10
3.54831e-09
-1.06619e-10
3.65121e-09
-1.02895e-10
3.75013e-09
-9.89265e-11
3.84486e-09
-9.47265e-11
3.93517e-09
-9.03091e-11
4.02086e-09
-8.56884e-11
4.10174e-09
-8.08788e-11
4.17763e-09
-7.58945e-11
4.24838e-09
-7.07502e-11
4.31384e-09
-6.54603e-11
4.37388e-09
-6.00396e-11
4.42838e-09
-5.45025e-11
4.47725e-09
-4.88634e-11
4.52038e-09
-4.31369e-11
4.55772e-09
-3.7337e-11
4.5892e-09
-3.14779e-11
4.61477e-09
-2.55735e-11
4.63441e-09
-1.96374e-11
4.64809e-09
-1.3683e-11
4.65581e-09
-7.72356e-12
4.65759e-09
-1.77188e-12
4.65343e-09
4.15939e-12
4.64337e-09
1.00581e-11
4.62745e-09
1.59122e-11
4.60574e-09
2.17101e-11
4.5783e-09
2.74402e-11
4.54521e-09
3.30917e-11
4.50656e-09
3.86538e-11
4.46244e-09
4.41162e-11
4.41297e-09
4.94688e-11
4.35827e-09
5.47017e-11
4.29846e-09
5.98054e-11
4.23369e-09
6.47708e-11
4.1641e-09
6.95888e-11
4.08985e-09
7.42507e-11
4.01111e-09
7.8748e-11
3.92803e-09
8.30724e-11
3.84082e-09
8.72158e-11
3.74965e-09
9.11701e-11
3.65472e-09
9.49276e-11
3.55624e-09
9.84807e-11
3.45442e-09
1.01822e-10
3.34947e-09
1.04943e-10
3.24163e-09
1.07837e-10
3.13114e-09
1.10497e-10
3.01822e-09
1.12915e-10
2.90314e-09
1.15084e-10
2.78614e-09
1.16996e-10
2.6675e-09
1.18645e-10
2.54747e-09
1.20022e-10
2.42635e-09
1.2112e-10
2.30442e-09
1.21932e-10
2.18197e-09
1.22451e-10
2.0593e-09
1.22668e-10
1.93673e-09
1.22576e-10
1.81456e-09
1.22168e-10
1.69312e-09
1.21435e-10
1.57275e-09
1.20372e-10
1.45378e-09
1.1897e-10
1.33656e-09
1.17222e-10
1.22144e-09
1.15122e-10
1.10877e-09
1.12663e-10
9.98934e-10
1.09838e-10
8.92291e-10
1.06643e-10
7.89219e-10
1.03072e-10
6.90096e-10
9.91226e-11
5.95304e-10
9.47914e-11
5.05227e-10
9.00778e-11
4.20243e-10
8.49829e-11
3.40733e-10
7.95106e-11
2.67065e-10
7.36676e-11
1.996e-10
6.74651e-11
1.3868e-10
6.09194e-11
8.46262e-11
5.4054e-11
3.77252e-11
4.69008e-11
-1.77866e-12
3.95037e-11
-3.37007e-11
3.19219e-11
-5.79348e-11
2.4234e-11
-7.44809e-11
1.65459e-11
-8.34795e-11
8.99854e-12
-8.52619e-11
1.7822e-12
-8.03983e-11
-4.86372e-12
-6.98003e-11
-1.05981e-11
-5.48032e-11
-1.49973e-11
-3.72975e-11
-1.75058e-11
-1.98828e-11
-1.74149e-11
-6.0515e-12
-1.38315e-11
-6.05152e-12
-1.057e-11
1.57182e-11
-3.35574e-11
3.62424e-11
-6.2289e-11
4.69088e-11
-9.13925e-11
4.9123e-11
-1.16377e-10
4.43575e-11
-1.33559e-10
3.39612e-11
-1.39966e-10
1.9108e-11
-1.33249e-10
7.94434e-13
-1.11587e-10
-2.01473e-11
-7.36131e-11
-4.30274e-11
-1.83354e-11
-6.72767e-11
5.49126e-11
-9.24263e-11
1.4653e-10
-1.18089e-10
2.56687e-10
-1.43944e-10
3.85363e-10
-1.69724e-10
5.32374e-10
-1.95207e-10
6.97397e-10
-2.20204e-10
8.79991e-10
-2.44557e-10
1.07962e-09
-2.68131e-10
1.29565e-09
-2.90812e-10
1.52738e-09
-3.12502e-10
1.77404e-09
-3.33118e-10
2.03483e-09
-3.52587e-10
2.30886e-09
-3.70849e-10
2.59523e-09
-3.87853e-10
2.89301e-09
-4.03554e-10
3.20122e-09
-4.17918e-10
3.51888e-09
-4.30916e-10
3.84497e-09
-4.42523e-10
4.17848e-09
-4.52725e-10
4.51836e-09
-4.61508e-10
4.86359e-09
-4.68867e-10
5.21313e-09
-4.748e-10
5.56593e-09
-4.79309e-10
5.92097e-09
-4.82402e-10
6.27721e-09
-4.8409e-10
6.63364e-09
-4.84388e-10
6.98926e-09
-4.83316e-10
7.34308e-09
-4.80894e-10
7.69414e-09
-4.7715e-10
8.04148e-09
-4.72111e-10
8.38419e-09
-4.6581e-10
8.72136e-09
-4.58282e-10
9.05211e-09
-4.49562e-10
9.37561e-09
-4.39691e-10
9.69104e-09
-4.28711e-10
9.99762e-09
-4.16665e-10
1.02946e-08
-4.036e-10
1.05813e-08
-3.89561e-10
1.08569e-08
-3.74599e-10
1.1121e-08
-3.58764e-10
1.13728e-08
-3.42106e-10
1.16118e-08
-3.24677e-10
1.18374e-08
-3.06532e-10
1.20492e-08
-2.87722e-10
1.22468e-08
-2.68303e-10
1.24297e-08
-2.48329e-10
1.25975e-08
-2.27853e-10
1.27499e-08
-2.0693e-10
1.28867e-08
-1.85615e-10
1.30075e-08
-1.63961e-10
1.31122e-08
-1.42022e-10
1.32005e-08
-1.1985e-10
1.32725e-08
-9.74975e-11
1.33278e-08
-7.50168e-11
1.33666e-08
-5.24582e-11
1.33888e-08
-2.98715e-11
1.33943e-08
-7.30565e-12
1.33833e-08
1.51915e-11
1.33557e-08
3.75733e-11
1.33119e-08
5.97938e-11
1.32518e-08
8.18086e-11
1.31756e-08
1.03574e-10
1.30837e-08
1.25048e-10
1.29761e-08
1.46189e-10
1.28533e-08
1.66957e-10
1.27155e-08
1.87314e-10
1.25629e-08
2.0722e-10
1.23961e-08
2.26641e-10
1.22153e-08
2.45539e-10
1.2021e-08
2.63879e-10
1.18137e-08
2.81629e-10
1.15937e-08
2.98755e-10
1.13615e-08
3.15224e-10
1.11177e-08
3.31005e-10
1.08628e-08
3.46067e-10
1.05974e-08
3.60381e-10
1.03219e-08
3.73915e-10
1.00371e-08
3.86641e-10
9.74352e-09
3.98531e-10
9.44181e-09
4.09555e-10
9.13262e-09
4.19685e-10
8.81664e-09
4.28894e-10
8.49457e-09
4.37154e-10
8.16713e-09
4.44438e-10
7.83506e-09
4.50717e-10
7.49911e-09
4.55965e-10
7.16008e-09
4.60155e-10
6.81875e-09
4.63259e-10
6.47595e-09
4.65252e-10
6.13251e-09
4.66106e-10
5.78929e-09
4.65796e-10
5.44716e-09
4.64296e-10
5.10702e-09
4.61581e-10
4.76976e-09
4.57627e-10
4.43632e-09
4.52411e-10
4.10763e-09
4.4591e-10
3.78465e-09
4.38105e-10
3.46833e-09
4.28977e-10
3.15966e-09
4.1851e-10
2.85961e-09
4.06693e-10
2.56917e-09
3.93516e-10
2.28931e-09
3.78977e-10
2.02103e-09
3.63075e-10
1.76528e-09
3.45822e-10
1.52303e-09
3.27235e-10
1.2952e-09
3.07342e-10
1.08268e-09
2.86186e-10
8.86321e-10
2.63826e-10
7.06902e-10
2.40339e-10
5.45125e-10
2.1583e-10
4.01592e-10
1.90434e-10
2.76771e-10
1.64325e-10
1.70967e-10
1.37726e-10
8.42793e-11
1.10921e-10
1.65508e-11
8.42742e-11
-3.26948e-11
5.8244e-11
-6.43261e-11
3.34133e-11
-7.97069e-11
1.05169e-11
-8.07866e-11
-9.5186e-12
-7.02469e-11
-2.5537e-11
-5.16452e-11
-3.61077e-11
-2.95775e-11
-3.94828e-11
-9.84906e-12
-3.35601e-11
-1.59006e-11
-9.99486e-12
2.57116e-11
-3.00264e-11
5.62772e-11
-5.22549e-11
6.91397e-11
-7.04297e-11
6.73009e-11
-7.93749e-11
5.33046e-11
-7.47758e-11
2.93642e-11
-5.30666e-11
-2.59968e-12
-1.13423e-11
-4.09284e-11
5.27212e-11
-8.42096e-11
1.40932e-10
-1.31237e-10
2.54644e-10
-1.80988e-10
3.94811e-10
-2.32592e-10
5.62035e-10
-2.85313e-10
7.56614e-10
-3.38522e-10
9.78574e-10
-3.91684e-10
1.22771e-09
-4.4434e-10
1.5036e-09
-4.96098e-10
1.80567e-09
-5.4662e-10
2.13315e-09
-5.95614e-10
2.48517e-09
-6.42829e-10
2.86071e-09
-6.88047e-10
3.25868e-09
-7.31079e-10
3.67785e-09
-7.71764e-10
4.11697e-09
-8.09963e-10
4.57467e-09
-8.45555e-10
5.04955e-09
-8.7844e-10
5.54017e-09
-9.08533e-10
6.04502e-09
-9.35765e-10
6.56258e-09
-9.60081e-10
7.09129e-09
-9.81438e-10
7.62959e-09
-9.99806e-10
8.17588e-09
-1.01516e-09
8.72859e-09
-1.02751e-09
9.28611e-09
-1.03683e-09
9.84687e-09
-1.04315e-09
1.04093e-08
-1.04649e-09
1.09718e-08
-1.04688e-09
1.15328e-08
-1.04434e-09
1.20908e-08
-1.03893e-09
1.26444e-08
-1.0307e-09
1.3192e-08
-1.01971e-09
1.37322e-08
-1.00602e-09
1.42636e-08
-9.89712e-10
1.47849e-08
-9.70852e-10
1.52947e-08
-9.49528e-10
1.57919e-08
-9.25826e-10
1.6275e-08
-8.99839e-10
1.67431e-08
-8.71663e-10
1.71949e-08
-8.41397e-10
1.76295e-08
-8.09146e-10
1.80457e-08
-7.75014e-10
1.84427e-08
-7.39111e-10
1.88196e-08
-7.01546e-10
1.91755e-08
-6.62433e-10
1.95097e-08
-6.21885e-10
1.98214e-08
-5.80018e-10
2.011e-08
-5.36946e-10
2.03749e-08
-4.92786e-10
2.06156e-08
-4.47653e-10
2.08317e-08
-4.01664e-10
2.10227e-08
-3.54934e-10
2.11882e-08
-3.07578e-10
2.13281e-08
-2.59708e-10
2.1442e-08
-2.11438e-10
2.15299e-08
-1.62878e-10
2.15916e-08
-1.14137e-10
2.1627e-08
-6.53234e-11
2.16363e-08
-1.65423e-11
2.16193e-08
3.21027e-11
2.15764e-08
8.05103e-11
2.15076e-08
1.28581e-10
2.14132e-08
1.76219e-10
2.12935e-08
2.23329e-10
2.11487e-08
2.69818e-10
2.09793e-08
3.15598e-10
2.07856e-08
3.60581e-10
2.05683e-08
4.04681e-10
2.03277e-08
4.47816e-10
2.00644e-08
4.89905e-10
1.97791e-08
5.3087e-10
1.94723e-08
5.70634e-10
1.91448e-08
6.09123e-10
1.87973e-08
6.46265e-10
1.84306e-08
6.81988e-10
1.80453e-08
7.16224e-10
1.76425e-08
7.48905e-10
1.72229e-08
7.79964e-10
1.67875e-08
8.09338e-10
1.63372e-08
8.36962e-10
1.58729e-08
8.62773e-10
1.53958e-08
8.86711e-10
1.49068e-08
9.08714e-10
1.44069e-08
9.28722e-10
1.38974e-08
9.46677e-10
1.33793e-08
9.62519e-10
1.28538e-08
9.76191e-10
1.23222e-08
9.87635e-10
1.17855e-08
9.96796e-10
1.12452e-08
1.00362e-09
1.07024e-08
1.00805e-09
1.01585e-08
1.01003e-09
9.61475e-09
1.00951e-09
9.0726e-09
1.00644e-09
8.53341e-09
1.00077e-09
7.99858e-09
9.92463e-10
7.46952e-09
9.81464e-10
6.94769e-09
9.67739e-10
6.43454e-09
9.51252e-10
5.93155e-09
9.31974e-10
5.44017e-09
9.09882e-10
4.96191e-09
8.84961e-10
4.49822e-09
8.57205e-10
4.05057e-09
8.2662e-10
3.62042e-09
7.93225e-10
3.20919e-09
7.57057e-10
2.81825e-09
7.18172e-10
2.44895e-09
6.76648e-10
2.10254e-09
6.32594e-10
1.78021e-09
5.86153e-10
1.48304e-09
5.37509e-10
1.21197e-09
4.86897e-10
9.67797e-10
4.34611e-10
7.511e-10
3.81022e-10
5.62236e-10
3.26589e-10
4.01278e-10
2.7188e-10
2.67955e-10
2.17596e-10
1.61599e-10
1.64601e-10
8.10618e-11
1.1395e-10
2.46402e-11
6.69384e-11
-1.00202e-11
2.51415e-11
-2.60291e-11
-9.52822e-12
-2.73692e-11
-3.47678e-11
-1.90392e-11
-4.7813e-11
-7.27013e-12
-4.53293e-11
-2.31707e-11
-5.88701e-12
3.15995e-11
-1.48887e-11
6.52819e-11
-1.96582e-11
7.39114e-11
-1.40665e-11
6.17118e-11
7.04711e-12
3.21922e-11
4.80458e-11
-1.16329e-11
1.12588e-10
-6.71408e-11
2.03708e-10
-1.32048e-10
3.2387e-10
-2.04372e-10
4.75026e-10
-2.82392e-10
6.58657e-10
-3.64618e-10
8.75825e-10
-4.4976e-10
1.12721e-09
-5.36695e-10
1.41314e-09
-6.24454e-10
1.73365e-09
-7.1219e-10
2.08848e-09
-7.99169e-10
2.47713e-09
-8.84749e-10
2.89888e-09
-9.68372e-10
3.35281e-09
-1.04955e-09
3.83783e-09
-1.12785e-09
4.35269e-09
-1.2029e-09
4.89599e-09
-1.27438e-09
5.46623e-09
-1.34201e-09
6.0618e-09
-1.40553e-09
6.68098e-09
-1.46473e-09
7.32199e-09
-1.51945e-09
7.98296e-09
-1.56951e-09
8.662e-09
-1.6148e-09
9.35713e-09
-1.65521e-09
1.00664e-08
-1.69067e-09
1.07877e-08
-1.72111e-09
1.1519e-08
-1.74649e-09
1.22583e-08
-1.7668e-09
1.30035e-08
-1.78203e-09
1.37525e-08
-1.79219e-09
1.45033e-08
-1.79731e-09
1.52539e-08
-1.79744e-09
1.60022e-08
-1.79264e-09
1.67462e-08
-1.78297e-09
1.7484e-08
-1.76853e-09
1.82137e-08
-1.7494e-09
1.89334e-08
-1.72571e-09
1.96413e-08
-1.69755e-09
2.03355e-08
-1.66507e-09
2.10144e-08
-1.62841e-09
2.16762e-08
-1.5877e-09
2.23195e-08
-1.5431e-09
2.29426e-08
-1.49477e-09
2.35441e-08
-1.44289e-09
2.41226e-08
-1.38761e-09
2.46767e-08
-1.32913e-09
2.52052e-08
-1.26762e-09
2.57069e-08
-1.20327e-09
2.61808e-08
-1.13628e-09
2.66257e-08
-1.06683e-09
2.70408e-08
-9.9511e-10
2.74252e-08
-9.21327e-10
2.77781e-08
-8.45674e-10
2.80988e-08
-7.68348e-10
2.83866e-08
-6.89545e-10
2.86412e-08
-6.09461e-10
2.88619e-08
-5.28291e-10
2.90484e-08
-4.46229e-10
2.92004e-08
-3.63466e-10
2.93177e-08
-2.80191e-10
2.94002e-08
-1.96592e-10
2.94477e-08
-1.12851e-10
2.94603e-08
-2.915e-11
2.94381e-08
5.43339e-11
2.93812e-08
1.37427e-10
2.92898e-08
2.19959e-10
2.91643e-08
3.01762e-10
2.90049e-08
3.82676e-10
2.88122e-08
4.6254e-10
2.85866e-08
5.412e-10
2.83287e-08
6.18505e-10
2.8039e-08
6.94309e-10
2.77184e-08
7.68467e-10
2.73674e-08
8.4084e-10
2.6987e-08
9.11293e-10
2.6578e-08
9.79694e-10
2.61412e-08
1.04591e-09
2.56776e-08
1.10983e-09
2.51883e-08
1.17131e-09
2.46743e-08
1.23024e-09
2.41367e-08
1.28651e-09
2.35766e-08
1.34e-09
2.29954e-08
1.39059e-09
2.23941e-08
1.43819e-09
2.17742e-08
1.48267e-09
2.1137e-08
1.52395e-09
2.04838e-08
1.5619e-09
1.98161e-08
1.59643e-09
1.91353e-08
1.62745e-09
1.8443e-08
1.65485e-09
1.77407e-08
1.67853e-09
1.70299e-08
1.6984e-09
1.63123e-08
1.71437e-09
1.55896e-08
1.72634e-09
1.48634e-08
1.73423e-09
1.41355e-08
1.73795e-09
1.34076e-08
1.73742e-09
1.26815e-08
1.73256e-09
1.1959e-08
1.72329e-09
1.12419e-08
1.70954e-09
1.05321e-08
1.69126e-09
9.83146e-09
1.66838e-09
9.14186e-09
1.64085e-09
8.46519e-09
1.60864e-09
7.80335e-09
1.57173e-09
7.15821e-09
1.5301e-09
6.53165e-09
1.48376e-09
5.92553e-09
1.43274e-09
5.34167e-09
1.37709e-09
4.78184e-09
1.31688e-09
4.24777e-09
1.25224e-09
3.7411e-09
1.18331e-09
3.26339e-09
1.1103e-09
2.81608e-09
1.03347e-09
2.40047e-09
9.53121e-10
2.0177e-09
8.69669e-10
1.66871e-09
7.83602e-10
1.35421e-09
6.95522e-10
1.07464e-09
6.06159e-10
8.30117e-10
5.16398e-10
6.20407e-10
4.27306e-10
4.44842e-10
3.40165e-10
3.02281e-10
2.56511e-10
1.91041e-10
1.78178e-10
1.0883e-10
1.07352e-10
5.26733e-11
4.66287e-11
1.88252e-11
-9.19825e-13
2.69527e-12
-3.16833e-11
-1.31908e-12
-4.13151e-11
-2.44898e-11
-1.39416e-13
3.17395e-11
6.34553e-12
5.87993e-11
2.56192e-11
5.46398e-11
6.30603e-11
2.42729e-11
1.23329e-10
-2.80753e-11
2.1044e-10
-9.87426e-11
3.27811e-10
-1.84511e-10
4.78306e-10
-2.82543e-10
6.64276e-10
-3.90342e-10
8.87593e-10
-5.05708e-10
1.14968e-09
-6.26705e-10
1.45155e-09
-7.51628e-10
1.79383e-09
-8.78974e-10
2.17679e-09
-1.00742e-09
2.60039e-09
-1.13579e-09
3.06428e-09
-1.26305e-09
3.56783e-09
-1.38831e-09
4.1102e-09
-1.51073e-09
4.69028e-09
-1.62963e-09
5.3068e-09
-1.74436e-09
5.95827e-09
-1.85438e-09
6.64309e-09
-1.95919e-09
7.35945e-09
-2.05837e-09
8.10547e-09
-2.15154e-09
8.87912e-09
-2.23839e-09
9.67829e-09
-2.31862e-09
1.05008e-08
-2.392e-09
1.13443e-08
-2.45834e-09
1.22066e-08
-2.51747e-09
1.30852e-08
-2.56926e-09
1.39777e-08
-2.61362e-09
1.48817e-08
-2.65048e-09
1.57947e-08
-2.6798e-09
1.67142e-08
-2.70157e-09
1.76378e-08
-2.7158e-09
1.85631e-08
-2.72253e-09
1.94874e-08
-2.72182e-09
2.04086e-08
-2.71375e-09
2.1324e-08
-2.69843e-09
2.22315e-08
-2.67597e-09
2.31286e-08
-2.64652e-09
2.40131e-08
-2.61023e-09
2.48828e-08
-2.56728e-09
2.57356e-08
-2.51786e-09
2.65694e-08
-2.46216e-09
2.73821e-08
-2.40041e-09
2.81718e-08
-2.33283e-09
2.89367e-08
-2.25965e-09
2.9675e-08
-2.18114e-09
3.03849e-08
-2.09753e-09
3.10649e-08
-2.00911e-09
3.17134e-08
-1.91614e-09
3.2329e-08
-1.8189e-09
3.29104e-08
-1.71767e-09
3.34563e-08
-1.61273e-09
3.39656e-08
-1.50439e-09
3.44372e-08
-1.39292e-09
3.48701e-08
-1.27863e-09
3.52636e-08
-1.16181e-09
3.56168e-08
-1.04275e-09
3.59291e-08
-9.21747e-10
3.61999e-08
-7.99093e-10
3.64287e-08
-6.75079e-10
3.66152e-08
-5.49991e-10
3.67592e-08
-4.24115e-10
3.68603e-08
-2.97731e-10
3.69186e-08
-1.71116e-10
3.6934e-08
-4.45419e-11
3.69066e-08
8.17226e-11
3.68366e-08
2.07415e-10
3.67243e-08
3.32279e-10
3.657e-08
4.56062e-10
3.63741e-08
5.78518e-10
3.61373e-08
6.99407e-10
3.586e-08
8.18493e-10
3.55429e-08
9.35548e-10
3.51869e-08
1.05035e-09
3.47927e-08
1.16268e-09
3.43612e-08
1.27232e-09
3.38934e-08
1.37908e-09
3.33903e-08
1.48274e-09
3.28531e-08
1.58312e-09
3.22829e-08
1.68002e-09
3.1681e-08
1.77326e-09
3.10486e-08
1.86265e-09
3.03871e-08
1.94801e-09
2.96979e-08
2.02919e-09
2.89825e-08
2.10599e-09
2.82424e-08
2.17827e-09
2.74792e-08
2.24586e-09
2.66946e-08
2.30859e-09
2.58902e-08
2.36632e-09
2.50677e-08
2.41889e-09
2.4229e-08
2.46615e-09
2.33759e-08
2.50797e-09
2.25102e-08
2.54418e-09
2.1634e-08
2.57466e-09
2.07491e-08
2.59927e-09
1.98575e-08
2.61788e-09
1.89614e-08
2.63036e-09
1.80627e-08
2.63659e-09
1.71637e-08
2.63645e-09
1.62664e-08
2.62983e-09
1.53731e-08
2.61663e-09
1.44859e-08
2.59676e-09
1.3607e-08
2.57012e-09
1.27387e-08
2.53666e-09
1.18833e-08
2.49631e-09
1.10429e-08
2.44904e-09
1.02198e-08
2.39481e-09
9.41624e-09
2.33365e-09
8.63444e-09
2.26556e-09
7.87656e-09
2.19062e-09
7.14473e-09
2.10892e-09
6.44103e-09
2.02059e-09
5.76745e-09
1.92582e-09
5.1259e-09
1.82486e-09
4.51818e-09
1.71802e-09
3.94597e-09
1.60568e-09
3.41076e-09
1.48833e-09
2.9139e-09
1.36653e-09
2.45649e-09
1.24101e-09
2.03942e-09
1.11259e-09
1.66328e-09
9.823e-10
1.32835e-09
8.5133e-10
1.03455e-09
7.21104e-10
7.81418e-10
5.933e-10
5.68038e-10
4.69891e-10
3.93024e-10
3.53192e-10
2.54465e-10
2.45912e-10
1.49884e-10
1.51209e-10
7.62106e-11
7.27538e-11
2.97162e-11
1.4811e-11
6.00905e-12
-1.76082e-11
-1.84808e-11
6.33904e-12
2.54009e-11
3.05425e-11
3.45975e-11
7.7441e-11
7.74329e-12
1.51413e-10
-4.96969e-11
2.56358e-10
-1.3302e-10
3.95702e-10
-2.38085e-10
5.72396e-10
-3.61204e-10
7.88937e-10
-4.99083e-10
1.04738e-09
-6.4878e-10
1.34934e-09
-8.07672e-10
1.69605e-09
-9.73415e-10
2.08834e-09
-1.14392e-09
2.52667e-09
-1.31731e-09
3.01117e-09
-1.49191e-09
3.54163e-09
-1.66625e-09
4.11756e-09
-1.83898e-09
4.73817e-09
-2.00892e-09
5.40244e-09
-2.175e-09
6.10908e-09
-2.33627e-09
6.8566e-09
-2.49189e-09
7.64333e-09
-2.64111e-09
8.46739e-09
-2.78326e-09
9.32677e-09
-2.91775e-09
1.02193e-08
-3.04406e-09
1.11426e-08
-3.16175e-09
1.20945e-08
-3.27042e-09
1.30722e-08
-3.36974e-09
1.40733e-08
-3.45942e-09
1.5095e-08
-3.53924e-09
1.61348e-08
-3.609e-09
1.71897e-08
-3.66857e-09
1.82571e-08
-3.71784e-09
1.9334e-08
-3.75676e-09
2.04178e-08
-3.7853e-09
2.15054e-08
-3.80347e-09
2.25942e-08
-3.81132e-09
2.36813e-08
-3.80892e-09
2.47639e-08
-3.79638e-09
2.58393e-08
-3.77383e-09
2.69048e-08
-3.74145e-09
2.79577e-08
-3.69941e-09
2.89954e-08
-3.64794e-09
3.00154e-08
-3.58726e-09
3.10151e-08
-3.51763e-09
3.19923e-08
-3.43933e-09
3.29446e-08
-3.35265e-09
3.38696e-08
-3.25791e-09
3.47654e-08
-3.15543e-09
3.56298e-08
-3.04555e-09
3.64609e-08
-2.92862e-09
3.72568e-08
-2.805e-09
3.80157e-08
-2.67508e-09
3.87361e-08
-2.53923e-09
3.94163e-08
-2.39784e-09
4.00548e-08
-2.25131e-09
4.06505e-08
-2.10004e-09
4.1202e-08
-1.94442e-09
4.17082e-08
-1.78487e-09
4.21682e-08
-1.6218e-09
4.25811e-08
-1.4556e-09
4.2946e-08
-1.28669e-09
4.32624e-08
-1.11546e-09
4.35296e-08
-9.42336e-10
4.37473e-08
-7.67698e-10
4.39152e-08
-5.91947e-10
4.40329e-08
-4.15472e-10
4.41005e-08
-2.38657e-10
4.41178e-08
-6.18815e-11
4.4085e-08
1.14482e-10
4.40024e-08
2.90068e-10
4.38701e-08
4.64518e-10
4.36887e-08
6.37481e-10
4.34586e-08
8.08613e-10
4.31805e-08
9.77579e-10
4.28549e-08
1.14405e-09
4.24827e-08
1.30771e-09
4.20649e-08
1.46824e-09
4.16022e-08
1.62534e-09
4.10958e-08
1.77871e-09
4.05468e-08
1.92807e-09
3.99564e-08
2.07313e-09
3.93259e-08
2.21362e-09
3.86567e-08
2.34927e-09
3.79501e-08
2.47982e-09
3.72078e-08
2.60501e-09
3.64312e-08
2.72461e-09
3.5622e-08
2.83837e-09
3.47819e-08
2.94605e-09
3.39128e-08
3.04743e-09
3.30164e-08
3.14227e-09
3.20946e-08
3.23036e-09
3.11494e-08
3.31149e-09
3.01829e-08
3.38544e-09
2.9197e-08
3.45201e-09
2.8194e-08
3.511e-09
2.71759e-08
3.56223e-09
2.61451e-08
3.60549e-09
2.51038e-08
3.64061e-09
2.40542e-08
3.66741e-09
2.29989e-08
3.68572e-09
2.19401e-08
3.69538e-09
2.08803e-08
3.69624e-09
1.9822e-08
3.68816e-09
1.87676e-08
3.671e-09
1.77197e-08
3.64466e-09
1.66808e-08
3.60902e-09
1.56535e-08
3.56401e-09
1.46402e-08
3.50956e-09
1.36436e-08
3.44563e-09
1.26662e-08
3.37221e-09
1.17105e-08
3.28933e-09
1.07791e-08
3.19704e-09
9.87425e-09
3.09544e-09
8.9985e-09
2.98467e-09
8.15414e-09
2.86495e-09
7.34342e-09
2.73654e-09
6.56849e-09
2.59979e-09
5.8314e-09
2.45512e-09
5.13402e-09
2.30306e-09
4.4781e-09
2.14425e-09
3.86518e-09
1.97945e-09
3.2966e-09
1.80959e-09
2.77345e-09
1.63574e-09
2.29658e-09
1.45917e-09
1.86652e-09
1.28138e-09
1.48351e-09
1.10412e-09
1.1474e-09
9.29406e-10
8.57701e-10
7.5959e-10
6.13506e-10
5.97386e-10
4.13498e-10
4.4592e-10
2.55925e-10
3.08781e-10
1.38602e-10
1.90077e-10
5.89115e-11
9.4501e-11
1.38322e-11
2.74709e-11
-4.64861e-12
1.30553e-11
1.23452e-11
5.59147e-11
-8.26143e-12
1.32144e-10
-6.84847e-11
2.45083e-10
-1.62635e-10
3.9778e-10
-2.85715e-10
5.92948e-10
-4.33253e-10
8.32951e-10
-6.01207e-10
1.11979e-09
-7.85919e-10
1.45509e-09
-9.84081e-10
1.84012e-09
-1.1927e-09
2.27578e-09
-1.40908e-09
2.76263e-09
-1.63076e-09
3.30088e-09
-1.85555e-09
3.89042e-09
-2.08145e-09
4.53082e-09
-2.30665e-09
5.22138e-09
-2.52954e-09
5.96109e-09
-2.74864e-09
6.74872e-09
-2.96263e-09
7.58278e-09
-3.17032e-09
8.46154e-09
-3.37065e-09
9.38309e-09
-3.56266e-09
1.03453e-08
-3.7455e-09
1.1346e-08
-3.91841e-09
1.23827e-08
-4.08072e-09
1.34527e-08
-4.23183e-09
1.45536e-08
-4.37125e-09
1.56824e-08
-4.49852e-09
1.68362e-08
-4.61327e-09
1.80122e-08
-4.7152e-09
1.92072e-08
-4.80406e-09
2.04183e-08
-4.87965e-09
2.16423e-08
-4.94183e-09
2.2876e-08
-4.99052e-09
2.41164e-08
-5.02568e-09
2.53603e-08
-5.04732e-09
2.66045e-08
-5.05549e-09
2.78458e-08
-5.05029e-09
2.90813e-08
-5.03185e-09
3.03078e-08
-5.00033e-09
3.15223e-08
-4.95596e-09
3.27219e-08
-4.89898e-09
3.39036e-08
-4.82965e-09
3.50646e-08
-4.74827e-09
3.62022e-08
-4.65519e-09
3.73136e-08
-4.55076e-09
3.83963e-08
-4.43536e-09
3.94478e-08
-4.30939e-09
4.04656e-08
-4.17328e-09
4.14475e-08
-4.02747e-09
4.23913e-08
-3.87242e-09
4.32949e-08
-3.7086e-09
4.41564e-08
-3.5365e-09
4.49738e-08
-3.35663e-09
4.57454e-08
-3.16948e-09
4.64696e-08
-2.97557e-09
4.7145e-08
-2.77543e-09
4.77702e-08
-2.56958e-09
4.83439e-08
-2.35856e-09
4.8865e-08
-2.14289e-09
4.93325e-08
-1.92311e-09
4.97456e-08
-1.69975e-09
5.01034e-08
-1.47334e-09
5.04055e-08
-1.24441e-09
5.06513e-08
-1.01349e-09
5.08404e-08
-7.81084e-10
5.09727e-08
-5.47712e-10
5.10479e-08
-3.13879e-10
5.10661e-08
-8.00837e-11
5.10274e-08
1.53185e-10
5.0932e-08
3.85445e-10
5.07803e-08
6.16223e-10
5.05727e-08
8.45058e-10
5.03099e-08
1.0715e-09
4.99923e-08
1.29509e-09
4.9621e-08
1.51542e-09
4.91966e-08
1.73205e-09
4.87203e-08
1.94457e-09
4.81931e-08
2.15258e-09
4.76161e-08
2.35569e-09
4.69906e-08
2.55351e-09
4.63181e-08
2.74568e-09
4.55999e-08
2.93183e-09
4.48375e-08
3.11161e-09
4.40326e-08
3.28468e-09
4.3187e-08
3.4507e-09
4.23022e-08
3.60934e-09
4.13803e-08
3.76029e-09
4.04231e-08
3.90323e-09
3.94327e-08
4.03787e-09
3.8411e-08
4.16391e-09
3.73603e-08
4.28106e-09
3.62828e-08
4.38905e-09
3.51806e-08
4.4876e-09
3.40562e-08
4.57644e-09
3.29119e-08
4.65532e-09
3.17501e-08
4.72399e-09
3.05734e-08
4.78221e-09
2.93843e-08
4.82974e-09
2.81853e-08
4.86636e-09
2.69792e-08
4.89186e-09
2.57685e-08
4.90604e-09
2.4556e-08
4.9087e-09
2.33445e-08
4.89968e-09
2.21367e-08
4.87881e-09
2.09354e-08
4.84597e-09
1.97434e-08
4.80102e-09
1.85635e-08
4.74387e-09
1.73986e-08
4.67447e-09
1.62515e-08
4.59277e-09
1.51249e-08
4.49878e-09
1.40217e-08
4.39253e-09
1.29446e-08
4.27413e-09
1.18964e-08
4.14371e-09
1.08795e-08
4.00149e-09
9.89677e-09
3.84772e-09
8.95052e-09
3.68278e-09
8.0432e-09
3.50711e-09
7.17708e-09
3.32124e-09
6.35429e-09
3.12585e-09
5.5768e-09
2.92173e-09
4.84643e-09
2.70983e-09
4.16478e-09
2.49124e-09
3.53324e-09
2.26728e-09
2.95296e-09
2.03945e-09
2.42484e-09
1.8095e-09
1.94949e-09
1.57946e-09
1.52726e-09
1.35164e-09
1.15815e-09
1.1287e-09
8.41877e-10
9.13656e-10
5.77844e-10
7.09953e-10
3.65137e-10
5.21489e-10
2.02553e-10
3.5266e-10
8.86332e-11
2.08421e-10
2.17099e-11
9.43941e-11
1.70613e-11
1.97586e-11
-7.41428e-12
8.14877e-11
-6.99909e-11
1.8764e-10
-1.74637e-10
3.40581e-10
-3.15576e-10
5.42508e-10
-4.87641e-10
7.95396e-10
-6.86141e-10
1.10096e-09
-9.06775e-10
1.46065e-09
-1.1456e-09
1.87558e-09
-1.39901e-09
2.34658e-09
-1.66371e-09
2.87417e-09
-1.93667e-09
3.45855e-09
-2.21513e-09
4.09959e-09
-2.4966e-09
4.79689e-09
-2.77875e-09
5.54974e-09
-3.05951e-09
6.35717e-09
-3.33696e-09
7.21791e-09
-3.60938e-09
8.13047e-09
-3.87519e-09
9.09311e-09
-4.13296e-09
1.01039e-08
-4.3814e-09
1.11605e-08
-4.61935e-09
1.22608e-08
-4.84578e-09
1.34022e-08
-5.05974e-09
1.45818e-08
-5.26041e-09
1.57971e-08
-5.44706e-09
1.70449e-08
-5.61904e-09
1.83222e-08
-5.77582e-09
1.96258e-08
-5.91692e-09
2.09526e-08
-6.04194e-09
2.22991e-08
-6.15058e-09
2.3662e-08
-6.24259e-09
2.5038e-08
-6.31779e-09
2.64235e-08
-6.37607e-09
2.78152e-08
-6.41737e-09
2.92096e-08
-6.4417e-09
3.06032e-08
-6.44912e-09
3.19927e-08
-6.43974e-09
3.33746e-08
-6.41373e-09
3.47455e-08
-6.37131e-09
3.61023e-08
-6.31273e-09
3.74416e-08
-6.23828e-09
3.87603e-08
-6.14831e-09
4.00552e-08
-6.04321e-09
4.13234e-08
-5.92337e-09
4.25619e-08
-5.78925e-09
4.37678e-08
-5.64133e-09
4.49386e-08
-5.48011e-09
4.60714e-08
-5.30612e-09
4.71638e-08
-5.11991e-09
4.82135e-08
-4.92207e-09
4.92181e-08
-4.71318e-09
5.01754e-08
-4.49386e-09
5.10835e-08
-4.26473e-09
5.19405e-08
-4.02643e-09
5.27445e-08
-3.77961e-09
5.3494e-08
-3.52493e-09
5.41875e-08
-3.26304e-09
5.48235e-08
-2.99463e-09
5.5401e-08
-2.72034e-09
5.59187e-08
-2.44087e-09
5.63759e-08
-2.15687e-09
5.67715e-08
-1.86902e-09
5.71051e-08
-1.57798e-09
5.7376e-08
-1.28441e-09
5.75839e-08
-9.88969e-10
5.77285e-08
-6.92297e-10
5.78097e-08
-3.95034e-10
5.78274e-08
-9.78111e-11
5.77818e-08
1.98753e-10
5.76732e-08
4.9405e-10
5.7502e-08
7.87482e-10
5.72686e-08
1.07846e-09
5.69736e-08
1.36642e-09
5.66179e-08
1.65079e-09
5.62023e-08
1.93103e-09
5.57278e-08
2.2066e-09
5.51953e-08
2.47698e-09
5.46063e-08
2.74165e-09
5.39618e-08
3.00013e-09
5.32634e-08
3.25193e-09
5.25125e-08
3.49657e-09
5.17107e-08
3.7336e-09
5.08598e-08
3.96258e-09
4.99614e-08
4.18305e-09
4.90175e-08
4.39461e-09
4.803e-08
4.59684e-09
4.70009e-08
4.78934e-09
4.59325e-08
4.97171e-09
4.48268e-08
5.14358e-09
4.36861e-08
5.30458e-09
4.25128e-08
5.45434e-09
4.13093e-08
5.59252e-09
4.00782e-08
5.71877e-09
3.88218e-08
5.83277e-09
3.7543e-08
5.93419e-09
3.62442e-08
6.02273e-09
3.49283e-08
6.09809e-09
3.35981e-08
6.15997e-09
3.22564e-08
6.20812e-09
3.09059e-08
6.24227e-09
2.95498e-08
6.26218e-09
2.81909e-08
6.26761e-09
2.68322e-08
6.25838e-09
2.54767e-08
6.23428e-09
2.41275e-08
6.19516e-09
2.27877e-08
6.14088e-09
2.14602e-08
6.07134e-09
2.01482e-08
5.98647e-09
1.88547e-08
5.88625e-09
1.75828e-08
5.77069e-09
1.63355e-08
5.63985e-09
1.51158e-08
5.49387e-09
1.39265e-08
5.33292e-09
1.27707e-08
5.15728e-09
1.16512e-08
4.96729e-09
1.05706e-08
4.76338e-09
9.5316e-09
4.54609e-09
8.53675e-09
4.31609e-09
7.58843e-09
4.07417e-09
6.68891e-09
3.82125e-09
5.84029e-09
3.55845e-09
5.04448e-09
3.28705e-09
4.30324e-09
3.00853e-09
3.61808e-09
2.72461e-09
2.99033e-09
2.43726e-09
2.42108e-09
2.14871e-09
1.91119e-09
1.86153e-09
1.46128e-09
1.5786e-09
1.07176e-09
1.30318e-09
7.42792e-10
1.03892e-09
4.74342e-10
7.89939e-10
2.66204e-10
5.60797e-10
1.18041e-10
3.56584e-10
2.94371e-11
1.82997e-10
4.64983e-11
2.63303e-11
-3.37459e-11
1.06767e-10
-1.50429e-10
2.42817e-10
-3.10687e-10
4.35973e-10
-5.08733e-10
6.87641e-10
-7.39309e-10
9.99077e-10
-9.97577e-10
1.37135e-09
-1.27905e-09
1.8053e-09
-1.57956e-09
2.30154e-09
-1.89525e-09
2.8604e-09
-2.22257e-09
3.48195e-09
-2.55821e-09
4.16598e-09
-2.89916e-09
4.91199e-09
-3.24261e-09
5.71922e-09
-3.58599e-09
6.58664e-09
-3.92693e-09
7.51294e-09
-4.26326e-09
8.49657e-09
-4.59301e-09
9.53573e-09
-4.91434e-09
1.06284e-08
-5.22561e-09
1.17723e-08
-5.52531e-09
1.2965e-08
-5.81207e-09
1.42039e-08
-6.08466e-09
1.54861e-08
-6.34198e-09
1.68088e-08
-6.58305e-09
1.81687e-08
-6.80698e-09
1.95627e-08
-7.01301e-09
2.09873e-08
-7.20048e-09
2.24393e-08
-7.36883e-09
2.39149e-08
-7.51758e-09
2.54107e-08
-7.64635e-09
2.69229e-08
-7.75484e-09
2.84479e-08
-7.84283e-09
2.9982e-08
-7.91018e-09
3.15215e-08
-7.95683e-09
3.30626e-08
-7.98278e-09
3.46016e-08
-7.9881e-09
3.61348e-08
-7.97294e-09
3.76585e-08
-7.93748e-09
3.91692e-08
-7.88198e-09
4.06632e-08
-7.80677e-09
4.21372e-08
-7.7122e-09
4.35875e-08
-7.59868e-09
4.5011e-08
-7.46667e-09
4.64043e-08
-7.31668e-09
4.77643e-08
-7.14926e-09
4.90879e-08
-6.96497e-09
5.03723e-08
-6.76444e-09
5.16145e-08
-6.54832e-09
5.28118e-08
-6.31727e-09
5.39618e-08
-6.07201e-09
5.50619e-08
-5.81325e-09
5.61097e-08
-5.54174e-09
5.71033e-08
-5.25825e-09
5.80404e-08
-4.96355e-09
5.89192e-08
-4.65844e-09
5.9738e-08
-4.34371e-09
6.04951e-08
-4.02018e-09
6.11891e-08
-3.68866e-09
6.18188e-08
-3.34997e-09
6.23828e-08
-3.00493e-09
6.28803e-08
-2.65436e-09
6.33104e-08
-2.29907e-09
6.36723e-08
-1.93989e-09
6.39655e-08
-1.57762e-09
6.41895e-08
-1.21305e-09
6.43442e-08
-8.46984e-10
6.44294e-08
-4.80199e-10
6.44451e-08
-1.13467e-10
6.43914e-08
2.52453e-10
6.42686e-08
6.16816e-10
6.40772e-08
9.78888e-10
6.38177e-08
1.33795e-09
6.34908e-08
1.6933e-09
6.30974e-08
2.04425e-09
6.26383e-08
2.39013e-09
6.21146e-08
2.73028e-09
6.15275e-08
3.06405e-09
6.08783e-08
3.39083e-09
6.01685e-08
3.71e-09
5.93994e-08
4.02097e-09
5.85728e-08
4.32315e-09
5.76904e-08
4.616e-09
5.67541e-08
4.89895e-09
5.57657e-08
5.17148e-09
5.47272e-08
5.43306e-09
5.36409e-08
5.68319e-09
5.25088e-08
5.92139e-09
5.13334e-08
6.14716e-09
5.01169e-08
6.36006e-09
4.88618e-08
6.55962e-09
4.75708e-08
6.7454e-09
4.62463e-08
6.917e-09
4.48911e-08
7.07398e-09
4.35079e-08
7.21595e-09
4.20996e-08
7.34253e-09
4.0669e-08
7.45334e-09
3.9219e-08
7.54803e-09
3.77527e-08
7.62625e-09
3.62732e-08
7.68769e-09
3.47834e-08
7.73203e-09
3.32866e-08
7.75899e-09
3.17859e-08
7.76831e-09
3.02846e-08
7.75973e-09
2.87858e-08
7.73306e-09
2.72928e-08
7.68809e-09
2.5809e-08
7.6247e-09
2.43376e-08
7.54275e-09
2.28819e-08
7.44218e-09
2.14452e-08
7.32297e-09
2.00307e-08
7.18515e-09
1.86418e-08
7.02879e-09
1.72816e-08
6.85407e-09
1.59533e-08
6.66121e-09
1.46601e-08
6.45052e-09
1.34049e-08
6.22241e-09
1.21909e-08
5.9774e-09
1.10209e-08
5.71611e-09
9.89767e-09
5.43931e-09
8.82395e-09
5.14788e-09
7.8023e-09
4.8429e-09
6.83515e-09
4.5256e-09
5.92478e-09
4.19741e-09
5.07332e-09
3.85998e-09
4.28274e-09
3.51519e-09
3.55482e-09
3.16517e-09
2.89118e-09
2.81235e-09
2.29327e-09
2.45945e-09
1.76234e-09