/*--------------------------------*- C++ -*----------------------------------*\
  =========                 |
  \\      /  F ield         | OpenFOAM: The Open Source CFD Toolbox
   \\    /   O peration     | Website:  https://openfoam.org
    \\  /    A nd           | Version:  12
     \\/     M anipulation  |
\*---------------------------------------------------------------------------*/
FoamFile
{
    format      ascii;
    class       volVectorField;
    location    "8";
    object      U;
}
// * * * * * * * * * * * * * * * * * * * * * * * * * * * * * * * * * * * * * //

dimensions      [0 1 -1 0 0 0 0];

internalField   nonuniform List<vector> 
18225
(
(-9.97647e-08 2.03968e-07 0)
(-7.48735e-07 5.14002e-07 0)
(-1.82186e-06 7.10297e-07 0)
(-3.14748e-06 8.02263e-07 0)
(-4.5128e-06 8.16979e-07 0)
(-5.76004e-06 7.7527e-07 0)
(-6.77498e-06 6.93391e-07 0)
(-7.47195e-06 5.84248e-07 0)
(-7.78731e-06 4.5756e-07 0)
(-7.67533e-06 3.20366e-07 0)
(-7.10462e-06 1.77637e-07 0)
(-6.05509e-06 3.29272e-08 0)
(-4.51544e-06 -1.1126e-07 0)
(-2.4814e-06 -2.53169e-07 0)
(4.57062e-08 -3.91569e-07 0)
(3.06002e-06 -5.25589e-07 0)
(6.55204e-06 -6.54611e-07 0)
(1.05093e-05 -7.78188e-07 0)
(1.49167e-05 -8.95999e-07 0)
(1.97572e-05 -1.00781e-06 0)
(2.50121e-05 -1.11344e-06 0)
(3.0661e-05 -1.21276e-06 0)
(3.66825e-05 -1.30567e-06 0)
(4.30541e-05 -1.39211e-06 0)
(4.97524e-05 -1.47202e-06 0)
(5.67532e-05 -1.54536e-06 0)
(6.40318e-05 -1.61213e-06 0)
(7.15631e-05 -1.67232e-06 0)
(7.93214e-05 -1.72593e-06 0)
(8.72809e-05 -1.77299e-06 0)
(9.54156e-05 -1.81354e-06 0)
(0.000103699 -1.84762e-06 0)
(0.000112106 -1.8753e-06 0)
(0.00012061 -1.89665e-06 0)
(0.000129184 -1.91176e-06 0)
(0.000137804 -1.92072e-06 0)
(0.000146443 -1.92365e-06 0)
(0.000155077 -1.92066e-06 0)
(0.000163682 -1.9119e-06 0)
(0.000172232 -1.8975e-06 0)
(0.000180704 -1.87762e-06 0)
(0.000189075 -1.85242e-06 0)
(0.000197323 -1.82209e-06 0)
(0.000205425 -1.78679e-06 0)
(0.000213362 -1.74673e-06 0)
(0.000221111 -1.70211e-06 0)
(0.000228654 -1.65312e-06 0)
(0.000235972 -1.59999e-06 0)
(0.000243047 -1.54293e-06 0)
(0.000249863 -1.48216e-06 0)
(0.000256402 -1.4179e-06 0)
(0.000262651 -1.3504e-06 0)
(0.000268594 -1.27987e-06 0)
(0.000274218 -1.20655e-06 0)
(0.000279512 -1.13068e-06 0)
(0.000284464 -1.05249e-06 0)
(0.000289063 -9.72209e-07 0)
(0.000293301 -8.9007e-07 0)
(0.000297169 -8.06304e-07 0)
(0.000300659 -7.21138e-07 0)
(0.000303765 -6.34796e-07 0)
(0.000306482 -5.47498e-07 0)
(0.000308806 -4.59459e-07 0)
(0.000310732 -3.70893e-07 0)
(0.000312258 -2.82005e-07 0)
(0.000313383 -1.92997e-07 0)
(0.000314105 -1.04065e-07 0)
(0.000314426 -1.53963e-08 0)
(0.000314344 7.27958e-08 0)
(0.000313864 1.60373e-07 0)
(0.000312987 2.47164e-07 0)
(0.000311716 3.32983e-07 0)
(0.000310056 4.17667e-07 0)
(0.000308012 5.01067e-07 0)
(0.000305589 5.83035e-07 0)
(0.000302793 6.63428e-07 0)
(0.000299633 7.42109e-07 0)
(0.000296115 8.18945e-07 0)
(0.000292248 8.93808e-07 0)
(0.000288041 9.66576e-07 0)
(0.000283504 1.03713e-06 0)
(0.000278647 1.10535e-06 0)
(0.00027348 1.17113e-06 0)
(0.000268016 1.23436e-06 0)
(0.000262266 1.29493e-06 0)
(0.000256242 1.35273e-06 0)
(0.000249958 1.40767e-06 0)
(0.000243427 1.45963e-06 0)
(0.000236663 1.50851e-06 0)
(0.000229681 1.55422e-06 0)
(0.000222496 1.59664e-06 0)
(0.000215123 1.63567e-06 0)
(0.000207579 1.67119e-06 0)
(0.00019988 1.70311e-06 0)
(0.000192043 1.7313e-06 0)
(0.000184085 1.75564e-06 0)
(0.000176026 1.77601e-06 0)
(0.000167882 1.79228e-06 0)
(0.000159675 1.80433e-06 0)
(0.000151422 1.812e-06 0)
(0.000143144 1.81515e-06 0)
(0.000134862 1.81364e-06 0)
(0.000126596 1.80729e-06 0)
(0.000118369 1.79596e-06 0)
(0.000110203 1.77944e-06 0)
(0.000102119 1.75758e-06 0)
(9.41422e-05 1.73017e-06 0)
(8.62948e-05 1.69701e-06 0)
(7.86011e-05 1.65791e-06 0)
(7.10857e-05 1.61263e-06 0)
(6.37733e-05 1.56096e-06 0)
(5.66893e-05 1.50268e-06 0)
(4.9859e-05 1.43754e-06 0)
(4.33082e-05 1.3653e-06 0)
(3.70627e-05 1.28574e-06 0)
(3.11483e-05 1.19861e-06 0)
(2.55907e-05 1.10369e-06 0)
(2.04151e-05 1.00078e-06 0)
(1.56463e-05 8.8973e-07 0)
(1.13082e-05 7.70424e-07 0)
(7.42311e-06 6.42864e-07 0)
(4.01184e-06 5.07182e-07 0)
(1.09248e-06 3.6374e-07 0)
(-1.32015e-06 2.13232e-07 0)
(-3.21589e-06 5.68224e-08 0)
(-4.59069e-06 -1.03562e-07 0)
(-5.44869e-06 -2.64919e-07 0)
(-5.80497e-06 -4.22652e-07 0)
(-5.689e-06 -5.69881e-07 0)
(-5.14931e-06 -6.96758e-07 0)
(-4.25907e-06 -7.89249e-07 0)
(-3.1246e-06 -8.28257e-07 0)
(-1.90525e-06 -7.86684e-07 0)
(-8.36351e-07 -6.21264e-07 0)
(-1.31584e-07 -2.84823e-07 0)
(-1.83669e-07 1.38588e-06 0)
(-1.40223e-06 3.31575e-06 0)
(-3.18804e-06 4.42774e-06 0)
(-5.21507e-06 4.81281e-06 0)
(-7.1113e-06 4.59579e-06 0)
(-8.59057e-06 3.89919e-06 0)
(-9.43047e-06 2.83039e-06 0)
(-9.45431e-06 1.47935e-06 0)
(-8.52288e-06 -8.05084e-08 0)
(-6.52975e-06 -1.78991e-06 0)
(-3.39631e-06 -3.60141e-06 0)
(9.32486e-07 -5.477e-06 0)
(6.49188e-06 -7.38621e-06 0)
(1.33004e-05 -9.30445e-06 0)
(2.13627e-05 -1.12118e-05 0)
(3.06712e-05 -1.30921e-05 0)
(4.12086e-05 -1.49318e-05 0)
(5.29487e-05 -1.672e-05 0)
(6.58583e-05 -1.84472e-05 0)
(7.98977e-05 -2.01059e-05 0)
(9.50218e-05 -2.16894e-05 0)
(0.000111181 -2.31921e-05 0)
(0.000128321 -2.46094e-05 0)
(0.000146386 -2.59374e-05 0)
(0.000165315 -2.71726e-05 0)
(0.000185046 -2.83125e-05 0)
(0.000205515 -2.93546e-05 0)
(0.000226654 -3.02972e-05 0)
(0.000248398 -3.1139e-05 0)
(0.000270676 -3.18789e-05 0)
(0.000293421 -3.25164e-05 0)
(0.000316561 -3.30511e-05 0)
(0.000340026 -3.34831e-05 0)
(0.000363748 -3.38127e-05 0)
(0.000387654 -3.40406e-05 0)
(0.000411677 -3.41678e-05 0)
(0.000435747 -3.41954e-05 0)
(0.000459795 -3.41249e-05 0)
(0.000483755 -3.39579e-05 0)
(0.000507561 -3.36964e-05 0)
(0.000531147 -3.33426e-05 0)
(0.000554452 -3.28987e-05 0)
(0.000577412 -3.23673e-05 0)
(0.000599969 -3.17511e-05 0)
(0.000622064 -3.1053e-05 0)
(0.000643641 -3.02761e-05 0)
(0.000664647 -2.94235e-05 0)
(0.00068503 -2.84985e-05 0)
(0.000704739 -2.75046e-05 0)
(0.000723729 -2.64452e-05 0)
(0.000741955 -2.5324e-05 0)
(0.000759374 -2.41447e-05 0)
(0.000775947 -2.29109e-05 0)
(0.000791637 -2.16266e-05 0)
(0.00080641 -2.02956e-05 0)
(0.000820234 -1.89216e-05 0)
(0.00083308 -1.75087e-05 0)
(0.000844921 -1.60606e-05 0)
(0.000855735 -1.45812e-05 0)
(0.000865499 -1.30745e-05 0)
(0.000874196 -1.15442e-05 0)
(0.00088181 -9.99418e-06 0)
(0.000888328 -8.42812e-06 0)
(0.00089374 -6.84978e-06 0)
(0.000898038 -5.26278e-06 0)
(0.000901216 -3.67072e-06 0)
(0.000903273 -2.07713e-06 0)
(0.000904206 -4.85442e-07 0)
(0.00090402 1.10096e-06 0)
(0.000902717 2.67881e-06 0)
(0.000900305 4.24489e-06 0)
(0.000896793 5.79605e-06 0)
(0.000892192 7.32926e-06 0)
(0.000886515 8.84156e-06 0)
(0.000879778 1.03301e-05 0)
(0.000871998 1.1792e-05 0)
(0.000863194 1.32246e-05 0)
(0.000853389 1.46253e-05 0)
(0.000842604 1.59916e-05 0)
(0.000830866 1.73208e-05 0)
(0.000818201 1.86106e-05 0)
(0.000804637 1.98587e-05 0)
(0.000790205 2.10628e-05 0)
(0.000774936 2.22206e-05 0)
(0.000758865 2.33299e-05 0)
(0.000742025 2.43886e-05 0)
(0.000724454 2.53946e-05 0)
(0.000706189 2.63458e-05 0)
(0.00068727 2.72401e-05 0)
(0.000667738 2.80757e-05 0)
(0.000647636 2.88503e-05 0)
(0.000627006 2.95622e-05 0)
(0.000605896 3.02092e-05 0)
(0.000584349 3.07895e-05 0)
(0.000562416 3.1301e-05 0)
(0.000540145 3.17419e-05 0)
(0.000517587 3.211e-05 0)
(0.000494793 3.24036e-05 0)
(0.000471817 3.26205e-05 0)
(0.000448714 3.27588e-05 0)
(0.000425539 3.28165e-05 0)
(0.00040235 3.27917e-05 0)
(0.000379205 3.26823e-05 0)
(0.000356163 3.24865e-05 0)
(0.000333285 3.22023e-05 0)
(0.000310634 3.18279e-05 0)
(0.000288271 3.13614e-05 0)
(0.000266261 3.08012e-05 0)
(0.000244669 3.01455e-05 0)
(0.000223559 2.9393e-05 0)
(0.000202998 2.85423e-05 0)
(0.000183053 2.75923e-05 0)
(0.000163789 2.65423e-05 0)
(0.000145273 2.53918e-05 0)
(0.000127571 2.4141e-05 0)
(0.000110748 2.27903e-05 0)
(9.48677e-05 2.13411e-05 0)
(7.99915e-05 1.97957e-05 0)
(6.61783e-05 1.81574e-05 0)
(5.34835e-05 1.64311e-05 0)
(4.19574e-05 1.46235e-05 0)
(3.16445e-05 1.27435e-05 0)
(2.25812e-05 1.08033e-05 0)
(1.47944e-05 8.8191e-06 0)
(8.29848e-06 6.81192e-06 0)
(3.09233e-06 4.80971e-06 0)
(-8.44271e-07 2.84905e-06 0)
(-3.55539e-06 9.77836e-07 0)
(-5.1148e-06 -7.41424e-07 0)
(-5.63217e-06 -2.22776e-06 0)
(-5.26032e-06 -3.37701e-06 0)
(-4.20644e-06 -4.05728e-06 0)
(-2.7546e-06 -4.10543e-06 0)
(-1.29173e-06 -3.32759e-06 0)
(-1.86844e-07 -1.51488e-06 0)
(-1.78788e-07 2.87537e-06 0)
(-1.30885e-06 6.48931e-06 0)
(-2.79514e-06 8.25087e-06 0)
(-4.24803e-06 8.4595e-06 0)
(-5.24634e-06 7.38722e-06 0)
(-5.4602e-06 5.27489e-06 0)
(-4.62628e-06 2.33158e-06 0)
(-2.5289e-06 -1.26387e-06 0)
(1.007e-06 -5.36028e-06 0)
(6.11988e-06 -9.83076e-06 0)
(1.29155e-05 -1.45692e-05 0)
(2.14709e-05 -1.94868e-05 0)
(3.18379e-05 -2.45097e-05 0)
(4.4046e-05 -2.95756e-05 0)
(5.81057e-05 -3.46323e-05 0)
(7.40103e-05 -3.96358e-05 0)
(9.17385e-05 -4.45488e-05 0)
(0.000111256 -4.93395e-05 0)
(0.000132517 -5.39807e-05 0)
(0.000155466 -5.84494e-05 0)
(0.000180039 -6.27255e-05 0)
(0.000206164 -6.67921e-05 0)
(0.000233763 -7.06345e-05 0)
(0.000262752 -7.42402e-05 0)
(0.000293043 -7.75986e-05 0)
(0.000324542 -8.07007e-05 0)
(0.000357152 -8.35391e-05 0)
(0.000390774 -8.61079e-05 0)
(0.000425307 -8.84021e-05 0)
(0.000460644 -9.04182e-05 0)
(0.000496682 -9.21538e-05 0)
(0.000533314 -9.36072e-05 0)
(0.000570432 -9.47781e-05 0)
(0.000607929 -9.56668e-05 0)
(0.000645697 -9.62746e-05 0)
(0.00068363 -9.66036e-05 0)
(0.000721621 -9.66567e-05 0)
(0.000759566 -9.64376e-05 0)
(0.000797359 -9.59506e-05 0)
(0.0008349 -9.52007e-05 0)
(0.000872089 -9.41935e-05 0)
(0.000908826 -9.29353e-05 0)
(0.000945017 -9.14329e-05 0)
(0.000980569 -8.96936e-05 0)
(0.00101539 -8.77252e-05 0)
(0.0010494 -8.55359e-05 0)
(0.0010825 -8.31345e-05 0)
(0.00111463 -8.05299e-05 0)
(0.00114569 -7.77315e-05 0)
(0.00117562 -7.4749e-05 0)
(0.00120435 -7.15923e-05 0)
(0.00123182 -6.82715e-05 0)
(0.00125795 -6.47971e-05 0)
(0.00128269 -6.11795e-05 0)
(0.001306 -5.74293e-05 0)
(0.00132781 -5.35573e-05 0)
(0.00134808 -4.95743e-05 0)
(0.00136677 -4.54909e-05 0)
(0.00138384 -4.13181e-05 0)
(0.00139927 -3.70666e-05 0)
(0.00141301 -3.27472e-05 0)
(0.00142505 -2.83704e-05 0)
(0.00143536 -2.39468e-05 0)
(0.00144393 -1.94868e-05 0)
(0.00145074 -1.50008e-05 0)
(0.00145579 -1.04987e-05 0)
(0.00145907 -5.99061e-06 0)
(0.00146058 -1.48623e-06 0)
(0.00146032 3.00488e-06 0)
(0.00145829 7.47336e-06 0)
(0.00145452 1.19101e-05 0)
(0.00144901 1.63061e-05 0)
(0.00144177 2.06527e-05 0)
(0.00143284 2.49415e-05 0)
(0.00142223 2.91642e-05 0)
(0.00140997 3.33127e-05 0)
(0.00139609 3.73792e-05 0)
(0.00138062 4.13562e-05 0)
(0.00136361 4.52363e-05 0)
(0.00134508 4.90122e-05 0)
(0.00132509 5.26771e-05 0)
(0.00130367 5.6224e-05 0)
(0.00128088 5.96463e-05 0)
(0.00125676 6.29375e-05 0)
(0.00123137 6.60914e-05 0)
(0.00120475 6.91017e-05 0)
(0.00117698 7.19623e-05 0)
(0.00114811 7.46673e-05 0)
(0.0011182 7.72108e-05 0)
(0.00108732 7.95871e-05 0)
(0.00105553 8.17904e-05 0)
(0.0010229 8.38152e-05 0)
(0.000989509 8.56558e-05 0)
(0.000955425 8.73068e-05 0)
(0.000920724 8.87627e-05 0)
(0.000885484 9.0018e-05 0)
(0.000849785 9.10674e-05 0)
(0.000813709 9.19056e-05 0)
(0.000777338 9.25272e-05 0)
(0.00074076 9.2927e-05 0)
(0.000704061 9.30999e-05 0)
(0.000667331 9.30408e-05 0)
(0.00063066 9.27447e-05 0)
(0.000594142 9.22068e-05 0)
(0.00055787 9.14225e-05 0)
(0.000521939 9.03875e-05 0)
(0.000486448 8.90975e-05 0)
(0.000451493 8.75489e-05 0)
(0.000417173 8.57383e-05 0)
(0.000383588 8.36631e-05 0)
(0.000350838 8.13211e-05 0)
(0.000319023 7.87111e-05 0)
(0.000288241 7.58329e-05 0)
(0.000258591 7.26874e-05 0)
(0.000230171 6.9277e-05 0)
(0.000203075 6.56061e-05 0)
(0.000177395 6.16812e-05 0)
(0.000153219 5.75113e-05 0)
(0.00013063 5.31089e-05 0)
(0.000109705 4.84904e-05 0)
(9.0513e-05 4.36772e-05 0)
(7.31121e-05 3.86968e-05 0)
(5.75497e-05 3.35842e-05 0)
(4.38584e-05 2.83837e-05 0)
(3.20536e-05 2.31509e-05 0)
(2.21294e-05 1.79559e-05 0)
(1.40554e-05 1.28863e-05 0)
(7.77146e-06 8.05165e-06 0)
(3.18279e-06 3.58806e-06 0)
(1.54267e-07 -3.35564e-07 0)
(-1.49563e-06 -3.51115e-06 0)
(-2.00349e-06 -5.68445e-06 0)
(-1.679e-06 -6.54726e-06 0)
(-9.27336e-07 -5.72658e-06 0)
(-1.54026e-07 -2.77351e-06 0)
(-1.26012e-07 4.02378e-06 0)
(-7.50806e-07 8.65153e-06 0)
(-1.29107e-06 1.03668e-05 0)
(-1.35339e-06 9.66329e-06 0)
(-5.34312e-07 6.95836e-06 0)
(1.49376e-06 2.60982e-06 0)
(4.99966e-06 -3.07252e-06 0)
(1.02073e-05 -9.82072e-06 0)
(1.73011e-05 -1.7404e-05 0)
(2.64294e-05 -2.56242e-05 0)
(3.77071e-05 -3.43114e-05 0)
(5.12195e-05 -4.33198e-05 0)
(6.70247e-05 -5.25244e-05 0)
(8.51561e-05 -6.18179e-05 0)
(0.000105625 -7.11081e-05 0)
(0.000128424 -8.03153e-05 0)
(0.000153527 -8.93708e-05 0)
(0.000180892 -9.82151e-05 0)
(0.000210463 -0.000106797 0)
(0.000242173 -0.000115071 0)
(0.000275941 -0.000122998 0)
(0.000311678 -0.000130546 0)
(0.000349286 -0.000137684 0)
(0.00038866 -0.000144388 0)
(0.000429687 -0.000150636 0)
(0.000472249 -0.00015641 0)
(0.000516223 -0.000161693 0)
(0.000561481 -0.000166475 0)
(0.000607892 -0.000170743 0)
(0.000655323 -0.000174492 0)
(0.000703638 -0.000177713 0)
(0.000752699 -0.000180405 0)
(0.000802367 -0.000182565 0)
(0.000852503 -0.000184194 0)
(0.000902967 -0.000185292 0)
(0.000953622 -0.000185864 0)
(0.00100433 -0.000185914 0)
(0.00105495 -0.000185449 0)
(0.00110535 -0.000184477 0)
(0.00115539 -0.000183005 0)
(0.00120495 -0.000181046 0)
(0.0012539 -0.000178609 0)
(0.00130211 -0.000175709 0)
(0.00134946 -0.000172357 0)
(0.00139583 -0.00016857 0)
(0.00144111 -0.000164362 0)
(0.00148518 -0.000159749 0)
(0.00152795 -0.000154748 0)
(0.0015693 -0.000149377 0)
(0.00160915 -0.000143654 0)
(0.00164739 -0.000137598 0)
(0.00168395 -0.000131228 0)
(0.00171874 -0.000124563 0)
(0.00175169 -0.000117623 0)
(0.00178271 -0.000110429 0)
(0.00181175 -0.000103 0)
(0.00183875 -9.53571e-05 0)
(0.00186364 -8.75207e-05 0)
(0.00188639 -7.95113e-05 0)
(0.00190694 -7.13495e-05 0)
(0.00192525 -6.30555e-05 0)
(0.0019413 -5.46497e-05 0)
(0.00195505 -4.61523e-05 0)
(0.00196648 -3.75831e-05 0)
(0.00197557 -2.89617e-05 0)
(0.00198232 -2.03076e-05 0)
(0.0019867 -1.16398e-05 0)
(0.00198873 -2.97703e-06 0)
(0.00198841 5.66228e-06 0)
(0.00198573 1.42601e-05 0)
(0.00198072 2.27989e-05 0)
(0.0019734 3.12614e-05 0)
(0.00196377 3.96308e-05 0)
(0.00195188 4.78907e-05 0)
(0.00193776 5.60251e-05 0)
(0.00192143 6.40184e-05 0)
(0.00190294 7.18556e-05 0)
(0.00188233 7.95217e-05 0)
(0.00185965 8.70025e-05 0)
(0.00183495 9.4284e-05 0)
(0.00180829 0.000101352 0)
(0.00177973 0.000108195 0)
(0.00174933 0.000114798 0)
(0.00171715 0.000121149 0)
(0.00168327 0.000127236 0)
(0.00164776 0.000133047 0)
(0.00161069 0.000138571 0)
(0.00157215 0.000143794 0)
(0.00153222 0.000148707 0)
(0.00149099 0.000153298 0)
(0.00144854 0.000157556 0)
(0.00140496 0.00016147 0)
(0.00136036 0.00016503 0)
(0.00131482 0.000168225 0)
(0.00126845 0.000171046 0)
(0.00122135 0.000173481 0)
(0.00117364 0.00017552 0)
(0.0011254 0.000177155 0)
(0.00107676 0.000178374 0)
(0.00102783 0.00017917 0)
(0.00097873 0.000179531 0)
(0.000929565 0.000179451 0)
(0.000880462 0.000178918 0)
(0.00083154 0.000177927 0)
(0.000782922 0.000176467 0)
(0.000734734 0.000174534 0)
(0.000687101 0.000172119 0)
(0.000640149 0.000169218 0)
(0.000594005 0.000165825 0)
(0.000548798 0.000161937 0)
(0.000504656 0.000157552 0)
(0.000461705 0.000152671 0)
(0.000420071 0.000147294 0)
(0.000379879 0.000141426 0)
(0.00034125 0.000135075 0)
(0.000304303 0.00012825 0)
(0.000269151 0.000120968 0)
(0.000235903 0.000113249 0)
(0.000204661 0.000105117 0)
(0.000175517 9.66078e-05 0)
(0.000148554 8.77619e-05 0)
(0.000123843 7.8632e-05 0)
(0.00010144 6.9283e-05 0)
(8.13855e-05 5.97944e-05 0)
(6.36985e-05 5.0264e-05 0)
(4.83758e-05 4.08109e-05 0)
(3.53878e-05 3.15803e-05 0)
(2.46746e-05 2.27479e-05 0)
(1.61421e-05 1.45265e-05 0)
(9.65718e-06 7.17245e-06 0)
(5.04385e-06 9.93658e-07 0)
(2.07677e-06 -3.64212e-06 0)
(4.72966e-07 -6.29598e-06 0)
(-1.18041e-07 -6.43878e-06 0)
(-7.80429e-08 -3.4242e-06 0)
(-5.79948e-08 4.46767e-06 0)
(3.5753e-08 8.92557e-06 0)
(8.16141e-07 9.54773e-06 0)
(2.64765e-06 6.9623e-06 0)
(5.87215e-06 1.70049e-06 0)
(1.07836e-05 -5.78078e-06 0)
(1.7632e-05 -1.50829e-05 0)
(2.66288e-05 -2.58571e-05 0)
(3.79491e-05 -3.77988e-05 0)
(5.17349e-05 -5.06417e-05 0)
(6.80969e-05 -6.41535e-05 0)
(8.71167e-05 -7.81311e-05 0)
(0.000108849 -9.23971e-05 0)
(0.000133324 -0.000106796 0)
(0.000160549 -0.000121193 0)
(0.00019051 -0.000135469 0)
(0.000223174 -0.000149518 0)
(0.00025849 -0.000163251 0)
(0.000296392 -0.000176585 0)
(0.000336801 -0.000189451 0)
(0.000379622 -0.000201787 0)
(0.00042475 -0.000213539 0)
(0.000472071 -0.000224658 0)
(0.000521459 -0.000235104 0)
(0.000572783 -0.000244841 0)
(0.000625902 -0.000253839 0)
(0.000680671 -0.000262073 0)
(0.000736938 -0.000269519 0)
(0.000794548 -0.000276161 0)
(0.000853343 -0.000281986 0)
(0.000913158 -0.000286982 0)
(0.000973832 -0.000291144 0)
(0.0010352 -0.000294466 0)
(0.00109709 -0.000296949 0)
(0.00115934 -0.000298593 0)
(0.00122177 -0.000299405 0)
(0.00128424 -0.00029939 0)
(0.00134657 -0.000298558 0)
(0.00140859 -0.000296921 0)
(0.00147015 -0.000294493 0)
(0.00153109 -0.000291289 0)
(0.00159126 -0.000287327 0)
(0.00165051 -0.000282626 0)
(0.00170868 -0.000277208 0)
(0.00176563 -0.000271095 0)
(0.00182123 -0.000264312 0)
(0.00187535 -0.000256883 0)
(0.00192785 -0.000248836 0)
(0.00197861 -0.000240197 0)
(0.00202751 -0.000230996 0)
(0.00207445 -0.000221262 0)
(0.00211931 -0.000211026 0)
(0.002162 -0.000200317 0)
(0.00220242 -0.000189168 0)
(0.00224048 -0.00017761 0)
(0.00227611 -0.000165676 0)
(0.00230923 -0.000153398 0)
(0.00233978 -0.000140808 0)
(0.00236768 -0.000127939 0)
(0.0023929 -0.000114824 0)
(0.00241537 -0.000101496 0)
(0.00243505 -8.79856e-05 0)
(0.00245192 -7.43263e-05 0)
(0.00246595 -6.05496e-05 0)
(0.00247711 -4.66869e-05 0)
(0.00248538 -3.27692e-05 0)
(0.00249076 -1.88271e-05 0)
(0.00249324 -4.89061e-06 0)
(0.00249284 9.01071e-06 0)
(0.00248955 2.28479e-05 0)
(0.00248339 3.65926e-05 0)
(0.00247438 5.02172e-05 0)
(0.00246256 6.36944e-05 0)
(0.00244794 7.69978e-05 0)
(0.00243058 9.01016e-05 0)
(0.00241051 0.000102981 0)
(0.00238778 0.00011561 0)
(0.00236244 0.000127967 0)
(0.00233456 0.000140027 0)
(0.00230419 0.000151768 0)
(0.00227141 0.000163167 0)
(0.00223628 0.000174204 0)
(0.00219889 0.000184857 0)
(0.00215931 0.000195106 0)
(0.00211763 0.000204931 0)
(0.00207393 0.000214312 0)
(0.00202832 0.000223231 0)
(0.00198089 0.000231668 0)
(0.00193174 0.000239606 0)
(0.00188098 0.000247026 0)
(0.00182871 0.000253912 0)
(0.00177505 0.000260245 0)
(0.00172012 0.000266009 0)
(0.00166402 0.000271188 0)
(0.00160689 0.000275765 0)
(0.00154885 0.000279724 0)
(0.00149003 0.000283049 0)
(0.00143056 0.000285726 0)
(0.00137057 0.000287739 0)
(0.0013102 0.000289074 0)
(0.00124959 0.000289717 0)
(0.00118888 0.000289654 0)
(0.00112822 0.000288874 0)
(0.00106775 0.000287363 0)
(0.00100762 0.00028511 0)
(0.000947976 0.000282107 0)
(0.000888972 0.000278344 0)
(0.000830758 0.000273814 0)
(0.000773485 0.000268511 0)
(0.000717305 0.000262432 0)
(0.000662369 0.000255577 0)
(0.000608827 0.000247947 0)
(0.000556826 0.000239549 0)
(0.000506513 0.000230391 0)
(0.00045803 0.000220488 0)
(0.000411513 0.00020986 0)
(0.000367096 0.000198533 0)
(0.000324905 0.000186541 0)
(0.000285055 0.000173927 0)
(0.000247656 0.000160745 0)
(0.000212803 0.00014706 0)
(0.000180579 0.000132954 0)
(0.000151053 0.000118523 0)
(0.000124275 0.000103886 0)
(0.000100275 8.91842e-05 0)
(7.90595e-05 7.45855e-05 0)
(6.0612e-05 6.02914e-05 0)
(4.48863e-05 4.65406e-05 0)
(3.18057e-05 3.36158e-05 0)
(2.12594e-05 2.1851e-05 0)
(1.30995e-05 1.16388e-05 0)
(7.1386e-06 3.44012e-06 0)
(3.15231e-06 -2.20459e-06 0)
(8.85517e-07 -4.65407e-06 0)
(8.68719e-09 -3.13783e-06 0)
(1.58475e-08 4.06586e-06 0)
(9.26277e-07 6.90473e-06 0)
(3.22352e-06 5.16476e-06 0)
(7.23169e-06 -4.44697e-07 0)
(1.32105e-05 -9.31353e-06 0)
(2.14022e-05 -2.09095e-05 0)
(3.20226e-05 -3.47619e-05 0)
(4.5256e-05 -5.04538e-05 0)
(6.12557e-05 -6.76153e-05 0)
(8.01455e-05 -8.59189e-05 0)
(0.000102021 -0.000105074 0)
(0.000126951 -0.000124823 0)
(0.00015498 -0.000144939 0)
(0.000186126 -0.000165217 0)
(0.000220387 -0.000185478 0)
(0.000257739 -0.000205563 0)
(0.000298137 -0.000225329 0)
(0.000341521 -0.000244651 0)
(0.000387813 -0.000263417 0)
(0.000436918 -0.000281527 0)
(0.000488729 -0.000298895 0)
(0.000543126 -0.000315442 0)
(0.000599977 -0.0003311 0)
(0.000659141 -0.000345809 0)
(0.000720466 -0.000359518 0)
(0.000783795 -0.000372181 0)
(0.000848959 -0.000383761 0)
(0.000915789 -0.000394226 0)
(0.000984105 -0.000403548 0)
(0.00105373 -0.000411707 0)
(0.00112447 -0.000418687 0)
(0.00119614 -0.000424477 0)
(0.00126856 -0.000429071 0)
(0.00134153 -0.000432465 0)
(0.00141487 -0.000434662 0)
(0.00148837 -0.000435668 0)
(0.00156185 -0.000435491 0)
(0.00163513 -0.000434144 0)
(0.00170801 -0.000431644 0)
(0.00178031 -0.000428009 0)
(0.00185184 -0.000423261 0)
(0.00192245 -0.000417426 0)
(0.00199193 -0.00041053 0)
(0.00206014 -0.000402603 0)
(0.0021269 -0.000393678 0)
(0.00219206 -0.000383788 0)
(0.00225546 -0.000372969 0)
(0.00231694 -0.00036126 0)
(0.00237639 -0.000348699 0)
(0.00243364 -0.000335328 0)
(0.00248858 -0.000321188 0)
(0.00254109 -0.000306323 0)
(0.00259104 -0.000290776 0)
(0.00263833 -0.000274593 0)
(0.00268286 -0.000257819 0)
(0.00272454 -0.0002405 0)
(0.00276327 -0.000222684 0)
(0.00279899 -0.000204415 0)
(0.00283162 -0.000185742 0)
(0.00286109 -0.000166712 0)
(0.00288735 -0.00014737 0)
(0.00291036 -0.000127764 0)
(0.00293006 -0.000107939 0)
(0.00294644 -8.79428e-05 0)
(0.00295945 -6.78193e-05 0)
(0.00296909 -4.76137e-05 0)
(0.00297535 -2.73701e-05 0)
(0.00297821 -7.13211e-06 0)
(0.00297769 1.30576e-05 0)
(0.00297379 3.31571e-05 0)
(0.00296653 5.31253e-05 0)
(0.00295594 7.29219e-05 0)
(0.00294204 9.25074e-05 0)
(0.00292487 0.000111844 0)
(0.00290449 0.000130893 0)
(0.00288092 0.000149618 0)
(0.00285424 0.000167984 0)
(0.00282451 0.000185956 0)
(0.00279179 0.0002035 0)
(0.00275615 0.000220583 0)
(0.00271767 0.000237173 0)
(0.00267645 0.000253237 0)
(0.00263256 0.000268747 0)
(0.0025861 0.000283671 0)
(0.00253717 0.000297981 0)
(0.00248588 0.000311649 0)
(0.00243233 0.000324647 0)
(0.00237664 0.000336947 0)
(0.00231892 0.000348524 0)
(0.0022593 0.000359352 0)
(0.00219791 0.000369405 0)
(0.00213486 0.000378658 0)
(0.00207031 0.000387088 0)
(0.00200438 0.00039467 0)
(0.00193722 0.000401382 0)
(0.00186897 0.000407202 0)
(0.00179978 0.000412106 0)
(0.00172981 0.000416074 0)
(0.0016592 0.000419086 0)
(0.00158812 0.00042112 0)
(0.00151673 0.000422159 0)
(0.00144519 0.000422183 0)
(0.00137366 0.000421177 0)
(0.00130231 0.000419124 0)
(0.00123132 0.00041601 0)
(0.00116084 0.000411822 0)
(0.00109107 0.000406551 0)
(0.00102215 0.000400188 0)
(0.000954278 0.000392726 0)
(0.000887614 0.000384165 0)
(0.00082233 0.000374506 0)
(0.000758596 0.000363753 0)
(0.000696581 0.000351918 0)
(0.000636447 0.000339017 0)
(0.000578354 0.000325072 0)
(0.000522458 0.000310115 0)
(0.000468907 0.000294185 0)
(0.000417843 0.00027733 0)
(0.000369399 0.000259614 0)
(0.000323698 0.000241112 0)
(0.00028085 0.000221914 0)
(0.000240954 0.00020213 0)
(0.000204092 0.000181891 0)
(0.000170329 0.000161352 0)
(0.000139714 0.000140695 0)
(0.000112272 0.000120136 0)
(8.80067e-05 9.9926e-05 0)
(6.68975e-05 8.03596e-05 0)
(4.88973e-05 6.17791e-05 0)
(3.39313e-05 4.4582e-05 0)
(2.18945e-05 2.92282e-05 0)
(1.26525e-05 1.62481e-05 0)
(6.05596e-06 6.25297e-06 0)
(1.96142e-06 -4.52192e-08 0)
(9.78414e-08 -1.80911e-06 0)
(8.97711e-08 2.76215e-06 0)
(1.85291e-06 2.39737e-06 0)
(5.75509e-06 -3.10979e-06 0)
(1.20808e-05 -1.30062e-05 0)
(2.10018e-05 -2.66318e-05 0)
(3.27009e-05 -4.3401e-05 0)
(4.73512e-05 -6.27883e-05 0)
(6.51014e-05 -8.43214e-05 0)
(8.60743e-05 -0.000107576 0)
(0.000110367 -0.000132171 0)
(0.000138054 -0.000157764 0)
(0.000169182 -0.000184048 0)
(0.000203778 -0.000210746 0)
(0.000241846 -0.000237611 0)
(0.000283366 -0.000264419 0)
(0.0003283 -0.00029097 0)
(0.000376591 -0.000317085 0)
(0.000428162 -0.000342603 0)
(0.00048292 -0.000367379 0)
(0.000540759 -0.000391285 0)
(0.000601553 -0.000414205 0)
(0.000665168 -0.000436037 0)
(0.000731456 -0.00045669 0)
(0.000800258 -0.000476085 0)
(0.000871405 -0.000494151 0)
(0.000944719 -0.000510827 0)
(0.00102002 -0.000526063 0)
(0.0010971 -0.000539812 0)
(0.00117579 -0.00055204 0)
(0.00125586 -0.000562716 0)
(0.00133712 -0.000571819 0)
(0.00141935 -0.000579333 0)
(0.00150236 -0.000585247 0)
(0.00158591 -0.000589557 0)
(0.00166981 -0.000592266 0)
(0.00175383 -0.000593378 0)
(0.00183777 -0.000592907 0)
(0.00192142 -0.000590867 0)
(0.00200456 -0.000587281 0)
(0.00208699 -0.000582172 0)
(0.00216852 -0.00057557 0)
(0.00224893 -0.000567507 0)
(0.00232805 -0.000558019 0)
(0.00240567 -0.000547147 0)
(0.00248162 -0.000534932 0)
(0.00255571 -0.000521419 0)
(0.00262778 -0.000506657 0)
(0.00269766 -0.000490696 0)
(0.00276519 -0.000473589 0)
(0.00283022 -0.000455389 0)
(0.00289261 -0.000436154 0)
(0.00295221 -0.00041594 0)
(0.0030089 -0.000394808 0)
(0.00306256 -0.000372816 0)
(0.00311307 -0.000350027 0)
(0.00316033 -0.000326502 0)
(0.00320425 -0.000302303 0)
(0.00324473 -0.000277493 0)
(0.00328169 -0.000252136 0)
(0.00331508 -0.000226293 0)
(0.00334481 -0.000200029 0)
(0.00337084 -0.000173406 0)
(0.00339312 -0.000146486 0)
(0.00341162 -0.00011933 0)
(0.0034263 -9.20012e-05 0)
(0.00343715 -6.45588e-05 0)
(0.00344416 -3.70627e-05 0)
(0.00344731 -9.57174e-06 0)
(0.00344661 1.78563e-05 0)
(0.00344208 4.51647e-05 0)
(0.00343374 7.22977e-05 0)
(0.0034216 9.92008e-05 0)
(0.00340571 0.000125821 0)
(0.00338611 0.000152105 0)
(0.00336285 0.000178003 0)
(0.00333598 0.000203464 0)
(0.00330556 0.000228441 0)
(0.00327167 0.000252886 0)
(0.00323439 0.000276752 0)
(0.00319378 0.000299996 0)
(0.00314995 0.000322572 0)
(0.00310299 0.000344439 0)
(0.00305299 0.000365555 0)
(0.00300007 0.000385879 0)
(0.00294434 0.000405372 0)
(0.0028859 0.000423996 0)
(0.0028249 0.000441712 0)
(0.00276144 0.000458485 0)
(0.00269568 0.000474279 0)
(0.00262773 0.000489059 0)
(0.00255776 0.000502791 0)
(0.00248589 0.000515441 0)
(0.00241228 0.000526978 0)
(0.0023371 0.00053737 0)
(0.00226049 0.000546587 0)
(0.00218262 0.000554597 0)
(0.00210365 0.000561373 0)
(0.00202376 0.000566887 0)
(0.00194312 0.000571112 0)
(0.0018619 0.000574021 0)
(0.00178029 0.000575592 0)
(0.00169846 0.0005758 0)
(0.00161661 0.000574624 0)
(0.00153491 0.000572045 0)
(0.00145355 0.000568045 0)
(0.00137273 0.000562611 0)
(0.00129263 0.000555729 0)
(0.00121345 0.000547391 0)
(0.00113537 0.000537592 0)
(0.00105858 0.000526332 0)
(0.000983283 0.000513614 0)
(0.000909652 0.000499448 0)
(0.000837875 0.000483851 0)
(0.000768135 0.000466847 0)
(0.000700606 0.000448468 0)
(0.00063546 0.000428756 0)
(0.000572863 0.000407764 0)
(0.000512972 0.000385558 0)
(0.000455937 0.00036222 0)
(0.000401895 0.000337845 0)
(0.000350976 0.00031255 0)
(0.000303295 0.000286473 0)
(0.000258954 0.000259774 0)
(0.000218037 0.000232642 0)
(0.000180616 0.000205299 0)
(0.000146741 0.000178 0)
(0.000116444 0.000151039 0)
(8.97387e-05 0.000124758 0)
(6.66149e-05 9.95463e-05 0)
(4.70425e-05 7.58505e-05 0)
(3.09678e-05 5.41799e-05 0)
(1.83168e-05 3.51129e-05 0)
(9.02032e-06 1.93058e-05 0)
(3.0485e-06 7.5092e-06 0)
(1.84749e-07 5.89434e-07 0)
(1.61379e-07 5.46578e-07 0)
(2.78034e-06 -4.66044e-06 0)
(8.31325e-06 -1.54116e-05 0)
(1.7011e-05 -3.09338e-05 0)
(2.89592e-05 -5.05377e-05 0)
(4.42803e-05 -7.36018e-05 0)
(6.31016e-05 -9.95602e-05 0)
(8.5532e-05 -0.000127898 0)
(0.000111659 -0.000158145 0)
(0.000141548 -0.000189876 0)
(0.000175245 -0.000222702 0)
(0.000212773 -0.000256272 0)
(0.000254135 -0.000290265 0)
(0.000299313 -0.000324392 0)
(0.000348271 -0.000358387 0)
(0.000400949 -0.000392013 0)
(0.000457273 -0.000425053 0)
(0.000517149 -0.000457312 0)
(0.000580468 -0.000488612 0)
(0.000647105 -0.000518794 0)
(0.000716919 -0.000547716 0)
(0.000789758 -0.000575249 0)
(0.000865457 -0.00060128 0)
(0.000943838 -0.000625707 0)
(0.00102471 -0.000648442 0)
(0.00110789 -0.000669406 0)
(0.00119317 -0.000688534 0)
(0.00128033 -0.000705767 0)
(0.00136916 -0.00072106 0)
(0.00145944 -0.000734374 0)
(0.00155094 -0.000745679 0)
(0.00164344 -0.000754954 0)
(0.00173669 -0.000762187 0)
(0.00183048 -0.000767369 0)
(0.00192457 -0.000770503 0)
(0.00201872 -0.000771597 0)
(0.00211271 -0.000770663 0)
(0.0022063 -0.000767722 0)
(0.00229926 -0.000762801 0)
(0.00239138 -0.00075593 0)
(0.00248243 -0.000747145 0)
(0.00257219 -0.000736488 0)
(0.00266045 -0.000724005 0)
(0.002747 -0.000709746 0)
(0.00283165 -0.000693764 0)
(0.0029142 -0.000676118 0)
(0.00299446 -0.000656869 0)
(0.00307225 -0.00063608 0)
(0.00314739 -0.000613819 0)
(0.00321973 -0.000590155 0)
(0.00328909 -0.00056516 0)
(0.00335534 -0.000538907 0)
(0.00341834 -0.000511473 0)
(0.00347794 -0.000482935 0)
(0.00353402 -0.00045337 0)
(0.00358648 -0.000422857 0)
(0.00363521 -0.000391477 0)
(0.0036801 -0.00035931 0)
(0.00372107 -0.000326437 0)
(0.00375806 -0.000292939 0)
(0.00379097 -0.000258897 0)
(0.00381977 -0.00022439 0)
(0.00384439 -0.0001895 0)
(0.0038648 -0.000154306 0)
(0.00388096 -0.000118886 0)
(0.00389286 -8.33182e-05 0)
(0.00390048 -4.76797e-05 0)
(0.00390382 -1.20461e-05 0)
(0.00390288 2.3508e-05 0)
(0.00389767 5.89095e-05 0)
(0.00388821 9.40865e-05 0)
(0.00387455 0.000128969 0)
(0.0038567 0.000163487 0)
(0.00383473 0.000197573 0)
(0.00380869 0.000231163 0)
(0.00377862 0.000264191 0)
(0.00374462 0.000296594 0)
(0.00370675 0.000328312 0)
(0.0036651 0.000359285 0)
(0.00361975 0.000389454 0)
(0.00357081 0.000418763 0)
(0.00351838 0.000447157 0)
(0.00346257 0.000474582 0)
(0.0034035 0.000500986 0)
(0.00334129 0.000526317 0)
(0.00327607 0.000550527 0)
(0.00320798 0.000573566 0)
(0.00313715 0.000595388 0)
(0.00306373 0.000615946 0)
(0.00298788 0.000635197 0)
(0.00290974 0.000653096 0)
(0.00282949 0.000669602 0)
(0.00274727 0.000684672 0)
(0.00266328 0.000698268 0)
(0.00257767 0.000710349 0)
(0.00249063 0.000720879 0)
(0.00240234 0.000729822 0)
(0.00231299 0.000737141 0)
(0.00222276 0.000742805 0)
(0.00213185 0.00074678 0)
(0.00204045 0.000749038 0)
(0.00194877 0.000749549 0)
(0.001857 0.000748289 0)