/*--------------------------------*- C++ -*----------------------------------*\
  =========                 |
  \\      /  F ield         | OpenFOAM: The Open Source CFD Toolbox
   \\    /   O peration     | Website:  https://openfoam.org
    \\  /    A nd           | Version:  12
     \\/     M anipulation  |
\*---------------------------------------------------------------------------*/
FoamFile
{
    format      ascii;
    class       volScalarField;
    location    "1.35";
    object      nut;
}
// * * * * * * * * * * * * * * * * * * * * * * * * * * * * * * * * * * * * * //

dimensions      [0 2 -1 0 0 0 0];

internalField   nonuniform List<scalar> 
400
(
6.245e-22
6.245e-22
6.245e-22
6.245e-22
6.245e-22
6.245e-22
6.245e-22
6.245e-22
6.245e-22
6.245e-22
6.245e-22
6.245e-22
6.245e-22
6.245e-22
6.245e-22
6.245e-22
6.245e-22
6.245e-22
6.245e-22
6.245e-22
2.498e-21
2.9683e-21
3.00393e-21
3.00709e-21
3.00754e-21
3.0077e-21
3.0078e-21
3.00788e-21
3.00794e-21
3.00799e-21
3.00803e-21
3.00807e-21
3.0081e-21
3.00814e-21
3.00818e-21
3.00815e-21
3.00778e-21
3.00458e-21
2.96868e-21
2.498e-21
2.498e-21
6.84466e-21
7.92008e-21
8.05413e-21
8.07408e-21
8.07831e-21
8.07966e-21
8.08029e-21
8.08072e-21
8.08112e-21
8.08158e-21
8.0821e-21
8.08269e-21
8.0832e-21
8.08306e-21
8.07988e-21
8.06029e-21
7.92488e-21
6.84528e-21
2.498e-21
2.498e-21
9.86212e-21
1.47089e-20
1.5858e-20
1.60851e-20
1.61354e-20
1.61477e-20
1.61506e-20
1.61515e-20
1.61529e-20
1.61558e-20
1.616e-20
1.61647e-20
1.61674e-20
1.61601e-20
1.61127e-20
1.58828e-20
1.47202e-20
9.85805e-21
2.498e-21
2.498e-21
1.12421e-20
2.1339e-20
2.56335e-20
2.68063e-20
2.71026e-20
2.71711e-20
2.71789e-20
2.7175e-20
2.71765e-20
2.71891e-20
2.72117e-20
2.7237e-20
2.72461e-20
2.71877e-20
2.68878e-20
2.56862e-20
2.134e-20
1.12295e-20
2.498e-21
2.498e-21
1.17459e-20
2.61601e-20
3.57509e-20
3.93744e-20
4.04456e-20
4.06971e-20
4.07085e-20
4.06741e-20
4.06667e-20
4.07087e-20
4.07944e-20
4.08901e-20
4.09147e-20
4.06649e-20
3.95433e-20
3.58084e-20
2.61212e-20
1.17253e-20
2.498e-21
2.498e-21
1.1924e-20
2.90246e-20
4.44846e-20
5.22579e-20
5.49592e-20
5.56196e-20
5.56192e-20
5.54931e-20
5.5453e-20
5.5561e-20
5.57999e-20
5.60669e-20
5.61229e-20
5.5409e-20
5.25206e-20
4.44895e-20
2.89299e-20
1.1897e-20
2.498e-21
2.498e-21
1.19901e-20
3.05443e-20
5.08855e-20
6.36384e-20
6.87631e-20
7.00794e-20
7.00396e-20
6.97406e-20
6.96342e-20
6.98495e-20
7.03492e-20
7.09086e-20
7.10079e-20
6.95051e-20
6.39515e-20
5.07815e-20
3.03951e-20
1.19577e-20
2.498e-21
2.498e-21
1.2016e-20
3.1291e-20
5.48798e-20
7.20078e-20
7.96911e-20
8.17615e-20
8.16742e-20
8.11679e-20
8.09779e-20
8.1311e-20
8.21053e-20
8.29902e-20
8.31086e-20
8.06588e-20
7.22758e-20
5.46381e-20
3.10963e-20
1.1979e-20
2.498e-21
2.498e-21
1.20258e-20
3.15994e-20
5.67844e-20
7.64772e-20
8.58747e-20
8.85046e-20
8.84125e-20
8.7776e-20
8.7527e-20
8.79263e-20
8.88906e-20
8.99464e-20
9.0005e-20
8.68297e-20
7.6578e-20
5.64026e-20
3.13684e-20
1.19844e-20
2.498e-21
2.498e-21
1.20269e-20
3.16114e-20
5.68533e-20
7.6661e-20
8.61745e-20
8.88898e-20
8.88581e-20
8.82546e-20
8.80065e-20
8.83754e-20
8.9271e-20
9.02198e-20
9.01496e-20
8.68512e-20
7.65302e-20
5.63609e-20
3.1354e-20
1.1981e-20
2.498e-21
2.498e-21
1.20192e-20
3.13287e-20
5.50811e-20
7.2495e-20
8.04356e-20
8.26858e-20
8.27259e-20
8.22892e-20
8.20948e-20
8.23479e-20
8.29715e-20
8.35975e-20
8.34076e-20
8.06646e-20
7.21178e-20
5.45069e-20
3.10512e-20
1.19689e-20
2.498e-21
2.498e-21
1.19954e-20
3.06072e-20
5.1171e-20
6.42232e-20
6.95703e-20
7.10332e-20
7.11003e-20
7.08601e-20
7.07404e-20
7.08632e-20
7.11785e-20
7.14686e-20
7.1251e-20
6.94455e-20
6.37129e-20
5.05763e-20
3.0319e-20
1.19408e-20
2.498e-21
2.498e-21
1.19317e-20
2.91109e-20
4.47849e-20
5.27473e-20
5.55479e-20
5.62658e-20
5.63095e-20
5.62057e-20
5.61456e-20
5.61822e-20
5.62907e-20
5.6374e-20
5.62149e-20
5.529e-20
5.22617e-20
4.42471e-20
2.8825e-20
1.18733e-20
2.498e-21
2.498e-21
1.17565e-20
2.62611e-20
3.59952e-20
3.96815e-20
4.0761e-20
4.10105e-20
4.10222e-20
4.09843e-20
4.09586e-20
4.09607e-20
4.09811e-20
4.09874e-20
4.0906e-20
4.05458e-20
3.93363e-20
3.55888e-20
2.59989e-20
1.16956e-20
2.498e-21
2.498e-21
1.12566e-20
2.14322e-20
2.57798e-20
2.69502e-20
2.7229e-20
2.72825e-20
2.728e-20
2.72676e-20
2.72582e-20
2.72544e-20
2.72532e-20
2.72467e-20
2.72167e-20
2.71134e-20
2.6769e-20
2.55415e-20
2.12278e-20
1.11954e-20
2.498e-21
2.498e-21
9.88027e-21
1.4766e-20
1.59171e-20
1.61328e-20
1.6172e-20
1.6176e-20
1.61731e-20
1.61697e-20
1.61671e-20
1.61651e-20
1.61631e-20
1.61597e-20
1.61517e-20
1.61307e-20
1.60664e-20
1.58184e-20
1.465e-20
9.82399e-21
2.498e-21
2.498e-21
6.85875e-21
7.93818e-21
8.06811e-21
8.08395e-21
8.08516e-21
8.08441e-21
8.08358e-21
8.08294e-21
8.08247e-21
8.08203e-21
8.08148e-21
8.08065e-21
8.07919e-21
8.07623e-21
8.0689e-21
8.04314e-21
7.89963e-21
6.82093e-21
2.498e-21
2.498e-21
2.97133e-21
3.00607e-21
3.00851e-21
3.00849e-21
3.00834e-21
3.00822e-21
3.00814e-21
3.00809e-21
3.00806e-21
3.00801e-21
3.00794e-21
3.00784e-21
3.00768e-21
3.00739e-21
3.00681e-21
3.00543e-21
3.00021e-21
2.96e-21
2.498e-21
6.245e-22
6.245e-22
6.245e-22
6.245e-22
6.245e-22
6.245e-22
6.245e-22
6.245e-22
6.245e-22
6.245e-22
6.245e-22
6.245e-22
6.245e-22
6.245e-22
6.245e-22
6.245e-22
6.245e-22
6.245e-22
6.245e-22
6.245e-22
)
;

boundaryField
{
    movingWall
    {
        type            nutkWallFunction;
        Cmu             0.09;
        kappa           0.41;
        E               9.8;
        value           uniform 0;
    }
    fixedWalls
    {
        type            nutkWallFunction;
        Cmu             0.09;
        kappa           0.41;
        E               9.8;
        value           uniform 0;
    }
    frontAndBack
    {
        type            empty;
    }
}


// ************************************************************************* //
