/*--------------------------------*- C++ -*----------------------------------*\
  =========                 |
  \\      /  F ield         | OpenFOAM: The Open Source CFD Toolbox
   \\    /   O peration     | Website:  https://openfoam.org
    \\  /    A nd           | Version:  12
     \\/     M anipulation  |
\*---------------------------------------------------------------------------*/
FoamFile
{
    format      ascii;
    class       volScalarField;
    location    "1.9";
    object      p;
}
// * * * * * * * * * * * * * * * * * * * * * * * * * * * * * * * * * * * * * //

dimensions      [0 2 -2 0 0 0 0];

internalField   nonuniform List<scalar> 
400
(
-7.80431e-08
0.000377376
0.000551616
0.000299838
-0.000382183
-0.00144189
-0.00281479
-0.00443042
-0.00621698
-0.00810432
-0.0100251
-0.0119127
-0.0136999
-0.0153161
-0.0166895
-0.0177494
-0.0184312
-0.0186824
-0.0185075
-0.0181295
-0.000293668
0.000166632
0.000360507
7.68118e-05
-0.000634575
-0.0016968
-0.00304328
-0.00460943
-0.00633072
-0.00814387
-0.00998749
-0.0118008
-0.0135225
-0.015089
-0.0164356
-0.0174978
-0.0182087
-0.0184915
-0.0182966
-0.0178353
0.00137034
0.00176708
0.00181479
0.00131363
0.000363179
-0.000928065
-0.00248105
-0.00422946
-0.00611222
-0.0080733
-0.0100602
-0.0120216
-0.0139049
-0.0156537
-0.017207
-0.0184982
-0.0194479
-0.0199476
-0.0198977
-0.0194988
0.00584293
0.00584569
0.00537803
0.00432109
0.00281411
0.00099161
-0.00105228
-0.00324977
-0.00554155
-0.00788649
-0.0102486
-0.0125945
-0.0148879
-0.0170856
-0.0191311
-0.0209542
-0.0224604
-0.0235149
-0.0239783
-0.023971
0.013683
0.0127665
0.0112008
0.00908137
0.00658931
0.00387605
0.00104598
-0.00183448
-0.00472826
-0.00762114
-0.0105127
-0.0134074
-0.0163042
-0.0191885
-0.0220222
-0.0247379
-0.02723
-0.0293459
-0.030904
-0.0318117
0.0255512
0.0228903
0.0193474
0.015445
0.0114078
0.00738519
0.00347926
-0.000265248
-0.00385597
-0.00733957
-0.0107862
-0.0142737
-0.0178716
-0.0216253
-0.0255408
-0.0295711
-0.0336118
-0.0375106
-0.0410412
-0.0436862
0.0419903
0.0363018
0.0294581
0.0227627
0.0164734
0.0106952
0.0054961
0.00086236
-0.00330587
-0.00717173
-0.0109355
-0.0148095
-0.0189929
-0.0236469
-0.0288682
-0.0346665
-0.040969
-0.0476643
-0.0544903
-0.0601528
0.0629966
0.0523313
0.0402576
0.029408
0.0200358
0.012115
0.00561729
0.000402863
-0.00380139
-0.00736573
-0.010716
-0.0142957
-0.0185292
-0.0237839
-0.0303281
-0.0382947
-0.0477028
-0.0585659
-0.0706199
-0.0812465
0.0872096
0.0687314
0.0487287
0.0319928
0.0186833
0.00848267
0.00115066
-0.0036938
-0.0066275
-0.00836791
-0.00971086
-0.0114768
-0.0144604
-0.0193762
-0.0267951
-0.0370882
-0.05048
-0.0672646
-0.0872588
-0.105689
0.110521
0.0802874
0.0487809
0.024148
0.00627434
-0.00572914
-0.012516
-0.0148968
-0.0139511
-0.0109486
-0.00726102
-0.00429274
-0.003417
-0.00590438
-0.0128315
-0.0249983
-0.0430353
-0.0677917
-0.0993359
-0.129534
0.123803
0.0766266
0.0292111
-0.00529064
-0.0276073
-0.0396728
-0.0428915
-0.0387983
-0.0292644
-0.0163927
-0.00240376
0.0104427
0.0199161
0.023898
0.0205046
0.00820083
-0.0143936
-0.0491537
-0.0967267
-0.143942
0.109331
0.0388465
-0.0293296
-0.0748813
-0.0997794
-0.107792
-0.10163
-0.0839972
-0.0579495
-0.026774
0.00613894
0.0373596
0.0634654
0.0811145
0.0871911
0.0789485
0.0536765
0.00767171
-0.0609085
-0.13164
0.0352329
-0.0655813
-0.158743
-0.214149
-0.236192
-0.231808
-0.205915
-0.163028
-0.107875
-0.0452938
0.0198613
0.0827157
0.138333
0.181728
0.208005
0.212494
0.190183
0.134152
0.0401744
-0.0613322
-0.153222
-0.29056
-0.409783
-0.468218
-0.475007
-0.442563
-0.379452
-0.292863
-0.189671
-0.0764958
0.0402668
0.154272
0.258943
0.34732
0.412173
0.445903
0.43959
0.380663
0.260106
0.1213
-0.548532
-0.723883
-0.861032
-0.903103
-0.868888
-0.780289
-0.651676
-0.49383
-0.315926
-0.12612
0.0682
0.259831
0.441163
0.603677
0.737333
0.83031
0.867307
0.825904
0.687177
0.509317
-1.31218
-1.5109
-1.63331
-1.61139
-1.4843
-1.29023
-1.05186
-0.783763
-0.496614
-0.198538
0.1042
0.40594
0.700068
0.977654
1.22665
1.43091
1.56614
1.59243
1.46963
1.2677
-2.73138
-2.89141
-2.90675
-2.71189
-2.38976
-2.00562
-1.5914
-1.16332
-0.729311
-0.292046
0.14834
0.592219
1.03856
1.48301
1.91601
2.31975
2.65926
2.86618
2.85525
2.69338
-5.33453
-5.25661
-4.90856
-4.30771
-3.61165
-2.91183
-2.23962
-1.60023
-0.988311
-0.392894
0.199831
0.804358
1.43406
2.09878
2.80156
3.53313
4.25772
4.88106
5.24224
5.32428
-11.1826
-9.54073
-7.66715
-6.05722
-4.724
-3.6043
-2.65477
-1.83637
-1.10859
-0.431984
0.231224
0.918072
1.66654
2.5156
3.50456
4.66978
6.0497
7.69914
9.60202
11.2636
-29.316
-19.966
-13.208
-9.10227
-6.39378
-4.46386
-3.05231
-1.99195
-1.1516
-0.428672
0.260501
0.995048
1.85884
2.95379
4.41246
6.40296
9.18325
13.3626
20.1807
29.568
)
;

boundaryField
{
    movingWall
    {
        type            zeroGradient;
    }
    fixedWalls
    {
        type            zeroGradient;
    }
    frontAndBack
    {
        type            empty;
    }
}


// ************************************************************************* //
