/*--------------------------------*- C++ -*----------------------------------*\
  =========                 |
  \\      /  F ield         | OpenFOAM: The Open Source CFD Toolbox
   \\    /   O peration     | Website:  https://openfoam.org
    \\  /    A nd           | Version:  12
     \\/     M anipulation  |
\*---------------------------------------------------------------------------*/
FoamFile
{
    format      ascii;
    class       volScalarField;
    location    "0.95";
    object      p;
}
// * * * * * * * * * * * * * * * * * * * * * * * * * * * * * * * * * * * * * //

dimensions      [0 2 -2 0 0 0 0];

internalField   nonuniform List<scalar> 
400
(
-3.50159e-07
0.000376769
0.000550819
0.000298741
-0.000383518
-0.00144357
-0.00281672
-0.00443269
-0.00621949
-0.00810715
-0.0100281
-0.0119161
-0.0137035
-0.01532
-0.0166937
-0.0177539
-0.018436
-0.0186873
-0.0185123
-0.0181341
-0.000294127
0.000166054
0.000359841
7.59772e-05
-0.00063553
-0.00169793
-0.00304453
-0.00461085
-0.00633227
-0.00814557
-0.0099893
-0.0118028
-0.0135246
-0.0150912
-0.016438
-0.0175003
-0.0182114
-0.0184944
-0.0182995
-0.0178382
0.00136998
0.00176671
0.00181443
0.00131327
0.00036285
-0.000928365
-0.0024813
-0.00422968
-0.00611239
-0.00807344
-0.0100603
-0.0120216
-0.0139048
-0.0156536
-0.0172069
-0.018498
-0.0194478
-0.0199476
-0.0198979
-0.0194991
0.00584275
0.00584558
0.00537798
0.00432117
0.00281431
0.000991972
-0.00105177
-0.00324912
-0.00554076
-0.00788553
-0.0102475
-0.0125932
-0.0148864
-0.0170839
-0.0191292
-0.0209521
-0.0224582
-0.0235128
-0.0239765
-0.0239695
0.013683
0.0127666
0.0112009
0.00908165
0.0065897
0.00387659
0.00104663
-0.00183367
-0.00472733
-0.00762006
-0.0105115
-0.013406
-0.0163027
-0.0191867
-0.0220202
-0.0247357
-0.0272277
-0.0293436
-0.0309019
-0.0318099
0.0255512
0.0228904
0.0193474
0.0154451
0.0114079
0.00738528
0.00347935
-0.000265127
-0.00385584
-0.00733942
-0.010786
-0.0142735
-0.0178714
-0.021625
-0.0255404
-0.0295707
-0.0336113
-0.03751
-0.0410407
-0.0436857
0.0419902
0.0363016
0.0294578
0.0227623
0.0164729
0.0106946
0.00549538
0.000861511
-0.00330683
-0.00717282
-0.0109367
-0.0148108
-0.0189944
-0.0236485
-0.0288698
-0.0346682
-0.0409707
-0.0476659
-0.0544916
-0.060154
0.0629963
0.0523309
0.0402571
0.0294075
0.0200351
0.0121142
0.00561629
0.000401698
-0.00380269
-0.00736721
-0.0107176
-0.0142975
-0.0185312
-0.0237861
-0.0303305
-0.0382972
-0.0477054
-0.0585684
-0.0706222
-0.0812485
0.0872095
0.0687312
0.0487285
0.0319925
0.0186829
0.00848222
0.00115014
-0.00369442
-0.00662819
-0.00836871
-0.00971174
-0.0114778
-0.0144615
-0.0193774
-0.0267965
-0.0370897
-0.0504816
-0.0672661
-0.0872603
-0.105691
0.110521
0.0802875
0.048781
0.0241482
0.00627454
-0.0057289
-0.0125157
-0.0148965
-0.0139508
-0.0109482
-0.00726067
-0.00429239
-0.00341663
-0.00590401
-0.0128311
-0.0249979
-0.043035
-0.0677915
-0.0993359
-0.129534
0.123803
0.0766268
0.0292115
-0.00529016
-0.0276067
-0.0396721
-0.0428907
-0.0387975
-0.0292635
-0.0163917
-0.00240272
0.0104438
0.0199173
0.0238993
0.020506
0.00820223
-0.0143921
-0.0491525
-0.0967256
-0.143941
0.109331
0.0388467
-0.0293294
-0.074881
-0.099779
-0.107792
-0.10163
-0.0839967
-0.057949
-0.0267734
0.00613953
0.0373602
0.0634661
0.0811152
0.0871919
0.0789493
0.0536774
0.00767253
-0.0609078
-0.13164
0.0352328
-0.0655815
-0.158743
-0.214149
-0.236192
-0.231808
-0.205915
-0.163028
-0.107875
-0.0452942
0.0198608
0.0827152
0.138333
0.181727
0.208005
0.212494
0.190182
0.134151
0.0401741
-0.0613325
-0.153222
-0.290561
-0.409783
-0.468218
-0.475008
-0.442563
-0.379453
-0.292864
-0.189672
-0.0764968
0.0402658
0.154271
0.258942
0.347319
0.412171
0.445902
0.439588
0.380662
0.260105
0.121299
-0.548532
-0.723883
-0.861032
-0.903104
-0.868888
-0.78029
-0.651677
-0.493831
-0.315927
-0.12612
0.068199
0.25983
0.441162
0.603676
0.737331
0.830308
0.867306
0.825902
0.687176
0.509316
-1.31218
-1.5109
-1.63331
-1.61139
-1.4843
-1.29023
-1.05186
-0.783763
-0.496614
-0.198539
0.104199
0.40594
0.700068
0.977653
1.22665
1.43091
1.56614
1.59243
1.46963
1.2677
-2.73138
-2.89141
-2.90675
-2.71189
-2.38976
-2.00562
-1.5914
-1.16332
-0.729311
-0.292046
0.14834
0.592219
1.03856
1.48301
1.91601
2.31975
2.65927
2.86618
2.85525
2.69339
-5.33453
-5.25661
-4.90856
-4.30771
-3.61165
-2.91183
-2.23962
-1.60023
-0.988311
-0.392894
0.199831
0.804359
1.43406
2.09878
2.80156
3.53313
4.25772
4.88106
5.24224
5.32428
-11.1826
-9.54073
-7.66715
-6.05722
-4.724
-3.6043
-2.65477
-1.83637
-1.10859
-0.431984
0.231223
0.918072
1.66654
2.5156
3.50456
4.66978
6.0497
7.69914
9.60202
11.2636
-29.316
-19.966
-13.208
-9.10227
-6.39378
-4.46386
-3.05231
-1.99195
-1.1516
-0.428673
0.2605
0.995047
1.85884
2.95379
4.41246
6.40296
9.18325
13.3626
20.1807
29.568
)
;

boundaryField
{
    movingWall
    {
        type            zeroGradient;
    }
    fixedWalls
    {
        type            zeroGradient;
    }
    frontAndBack
    {
        type            empty;
    }
}


// ************************************************************************* //
