/*--------------------------------*- C++ -*----------------------------------*\
  =========                 |
  \\      /  F ield         | OpenFOAM: The Open Source CFD Toolbox
   \\    /   O peration     | Website:  https://openfoam.org
    \\  /    A nd           | Version:  12
     \\/     M anipulation  |
\*---------------------------------------------------------------------------*/
FoamFile
{
    format      ascii;
    class       volScalarField;
    location    "4.5";
    object      epsilon;
}
// * * * * * * * * * * * * * * * * * * * * * * * * * * * * * * * * * * * * * //

dimensions      [0 2 -3 0 0 0 0];

internalField   nonuniform List<scalar> 
18225
(
6.55726e-07
4.43755e-06
9.89059e-06
1.64024e-05
2.36884e-05
3.1566e-05
3.98968e-05
4.85644e-05
5.74668e-05
6.65115e-05
7.56154e-05
8.47045e-05
9.37152e-05
0.000102596
0.000111309
0.000119833
0.000128162
0.000136309
0.000144309
0.000152217
0.000160111
0.000168094
0.000176295
0.000184868
0.000193997
0.000203898
0.000214819
0.000227044
0.000240895
0.000256738
0.00027498
0.00029608
0.000320547
0.000348943
0.000381889
0.000420062
0.000464203
0.00051511
0.000573643
0.000640722
0.000717321
0.000804471
0.000903251
0.00101479
0.00114025
0.00128084
0.00143779
0.00161237
0.00180586
0.00201956
0.00225478
0.00251284
0.00279504
0.0031027
0.00343707
0.0037994
0.00419088
0.00461264
0.00506573
0.00555114
0.00606973
0.00662226
0.00720941
0.00783171
0.00848959
0.00918335
0.00991321
0.0106792
0.0114814
0.0123197
0.0131939
0.0141037
0.0150487
0.0160285
0.0170426
0.0180903
0.0191709
0.0202834
0.021427
0.0226002
0.0238018
0.02503
0.0262828
0.0275578
0.0288523
0.0301629
0.0314857
0.0328161
0.0341489
0.0354777
0.0367953
0.0380934
0.0393623
0.0405911
0.0417673
0.0428774
0.0439059
0.0448358
0.0456476
0.0463209
0.0468331
0.0471426
0.0472633
0.0472103
0.0469049
0.0463347
0.0454929
0.0443752
0.0429815
0.0413185
0.0394007
0.037251
0.0349007
0.0323888
0.0297606
0.0270656
0.0243555
0.0216811
0.0190896
0.0166226
0.0143141
0.0121889
0.0102629
0.00854272
0.00702705
0.00570774
0.00457144
0.00360129
0.00277811
0.00208241
0.00149572
0.00100227
0.000591418
0.000262367
3.86939e-05
1.23907e-06
2.41688e-06
4.84916e-06
7.86732e-06
1.1277e-05
1.49766e-05
1.88952e-05
2.29757e-05
2.71689e-05
3.14307e-05
3.57217e-05
4.00068e-05
4.42562e-05
4.84456e-05
5.25573e-05
5.65811e-05
6.05144e-05
6.43639e-05
6.81458e-05
7.18861e-05
7.56221e-05
7.94021e-05
8.32869e-05
8.73498e-05
9.16779e-05
9.6373e-05
0.000101552
0.000107351
0.00011392
0.000121434
0.000130085
0.00014009
0.00015169
0.000165151
0.000180768
0.00019886
0.000219778
0.0002439
0.000271634
0.000303415
0.000339706
0.000380994
0.000427793
0.000480637
0.000540081
0.000606699
0.000681079
0.000763824
0.00085555
0.000956878
0.00106844
0.00119086
0.00132478
0.00147083
0.00162963
0.00180177
0.00198785
0.00218842
0.00240402
0.00263512
0.00288217
0.00314558
0.00342569
0.00372279
0.00403714
0.00436891
0.00471825
0.00508524
0.00546993
0.00587231
0.00629232
0.00672988
0.00718484
0.00765702
0.00814617
0.008652
0.00917414
0.00971217
0.0102656
0.0108337
0.0114158
0.012011
0.0126183
0.0132363
0.0138635
0.0144983
0.0151385
0.0157818
0.0164253
0.0170658
0.0176995
0.0183221
0.0189288
0.0195141
0.0200717
0.0205949
0.0210762
0.0215072
0.0218789
0.0221813
0.022404
0.0225287
0.0225637
0.0225109
0.0223386
0.0220408
0.0216152
0.0210605
0.0203777
0.0195707
0.018647
0.0176178
0.0164981
0.0153061
0.0140626
0.0127904
0.0115132
0.0102539
0.0090342
0.00787297
0.0067857
0.00578392
0.00487496
0.00406207
0.00334479
0.00271954
0.00218028
0.00171933
0.00132785
0.000996897
0.000718017
0.000484225
0.000291554
0.000143298
7.30862e-05
2.63231e-06
2.35205e-06
3.72961e-06
5.68126e-06
7.95977e-06
1.04622e-05
1.31274e-05
1.59108e-05
1.8776e-05
2.16915e-05
2.46295e-05
2.75657e-05
3.04795e-05
3.33544e-05
3.61782e-05
3.89441e-05
4.16505e-05
4.4302e-05
4.691e-05
4.94924e-05
5.20749e-05
5.46911e-05
5.73826e-05
6.02003e-05
6.32043e-05
6.64648e-05
7.00632e-05
7.40924e-05
7.8658e-05
8.38794e-05
8.9891e-05
9.68427e-05
0.000104902
0.000114253
0.0001251
0.000137666
0.000152195
0.000168951
0.000188216
0.000210296
0.000235515
0.000264214
0.000296754
0.000333513
0.000374884
0.000421274
0.000473104
0.000530807
0.000594827
0.000665617
0.000743638
0.000829359
0.00092325
0.00102579
0.00113744
0.00125868
0.00138997
0.00153175
0.00168446
0.00184851
0.00202428
0.00221214
0.00241242
0.00262542
0.0028514
0.00309059
0.00334319
0.00360935
0.00388921
0.00418283
0.00449026
0.00481149
0.00514648
0.00549512
0.00585726
0.00623267
0.00662104
0.00702199
0.00743504
0.00785958
0.0082949
0.0087401
0.00919416
0.00965584
0.0101237
0.0105961
0.0110711
0.0115466
0.0120199
0.0124883
0.0129486
0.0133972
0.0138301
0.014243
0.0146312
0.0149896
0.0153125
0.0155942
0.0158281
0.0160078
0.0161242
0.0161705
0.0161527
0.0160659
0.0158949
0.0156365
0.0152901
0.0148562
0.0143368
0.0137359
0.0130595
0.012316
0.011516
0.0106719
0.00979787
0.00890874
0.00801984
0.00714611
0.00630137
0.00549779
0.00474532
0.0040514
0.00342082
0.00285576
0.00235603
0.00191935
0.00154185
0.00121852
0.000943631
0.000711366
0.000516422
0.0003549
0.000226229
0.000139592
0.000154997
4.30615e-06
2.81403e-06
3.51398e-06
4.87397e-06
6.56911e-06
8.47591e-06
1.05292e-05
1.26861e-05
1.49139e-05
1.71859e-05
1.94793e-05
2.17744e-05
2.40549e-05
2.63077e-05
2.85234e-05
3.06967e-05
3.28265e-05
3.49166e-05
3.6976e-05
3.90192e-05
4.10663e-05
4.3144e-05
4.52853e-05
4.75304e-05
4.99272e-05
5.25314e-05
5.54075e-05
5.86296e-05
6.22818e-05
6.64594e-05
7.12696e-05
7.68323e-05
8.32814e-05
9.07651e-05
9.94471e-05
0.000109507
0.000121142
0.000134563
0.000150003
0.000167708
0.000187944
0.00021099
0.000237145
0.000266722
0.000300049
0.00033747
0.000379343
0.00042604
0.000477944
0.000535455
0.000598982
0.000668946
0.000745781
0.000829928
0.000921834
0.00102195
0.00113075
0.00124866
0.00137615
0.00151367
0.00166164
0.00182048
0.00199059
0.00217235
0.00236611
0.0025722
0.00279091
0.00302249
0.00326715
0.00352507
0.00379633
0.00408098
0.004379
0.00469029
0.00501466
0.0053518
0.00570131
0.00606267
0.0064352
0.0068181
0.00721037
0.00761088
0.00801827
0.00843103
0.00884742
0.00926547
0.00968302
0.0100976
0.0105067
0.0109073
0.0112963
0.0116703
0.0120257
0.0123586
0.0126651
0.0129409
0.0131817
0.0133826
0.0135391
0.0136446
0.0136931
0.0136885
0.013625
0.0135021
0.0133107
0.0130491
0.0127178
0.0123182
0.0118527
0.0113251
0.0107409
0.0101073
0.00943295
0.0087279
0.00800321
0.00727056
0.00654176
0.00582822
0.0051404
0.00448745
0.00387677
0.00331384
0.00280215
0.00234321
0.00193677
0.00158103
0.00127301
0.00100887
0.000784327
0.000595135
0.000437703
0.000310135
0.000214701
0.000166522
0.00025273
6.20875e-06
3.53177e-06
3.68571e-06
4.6205e-06
5.92613e-06
7.45259e-06
9.12537e-06
1.08989e-05
1.27408e-05
1.46259e-05
1.65336e-05
1.84467e-05
2.0351e-05
2.22355e-05
2.40923e-05
2.59169e-05
2.77087e-05
2.9471e-05
3.12116e-05
3.29427e-05
3.46816e-05
3.64509e-05
3.82789e-05
4.01997e-05
4.22541e-05
4.44897e-05
4.69618e-05
4.97337e-05
5.28778e-05
5.64759e-05
6.06204e-05
6.5415e-05
7.09754e-05
7.74304e-05
8.49225e-05
9.36087e-05
0.000103661
0.000115267
0.000128631
0.000143972
0.000161528
0.000181552
0.000204313
0.000230099
0.000259215
0.00029198
0.000328733
0.000369831
0.000415648
0.000466575
0.000523024
0.000585424
0.000654222
0.000729885
0.000812895
0.00090375
0.00100296
0.00111105
0.00122855
0.00135599
0.00149389
0.00164279
0.0018032
0.0019756
0.00216048
0.00235826
0.00256934
0.00279407
0.00303274
0.00328553
0.00355256
0.00383384
0.00412927
0.00443862
0.00476154
0.00509749
0.00544578
0.00580555
0.00617574
0.00655512
0.00694224
0.00733549
0.00773306
0.00813296
0.00853301
0.00893088
0.0093241
0.00971003
0.0100859
0.0104488
0.0107958
0.0111238
0.0114296
0.0117101
0.011962
0.0121821
0.012367
0.0125132
0.0126164
0.0126685
0.0126777
0.0126361
0.0125419
0.0123948
0.0121884
0.0119218
0.0115955
0.0112105
0.0107689
0.010274
0.00973047
0.00914452
0.00852381
0.00787726
0.00721482
0.00654703
0.00588457
0.00523771
0.00461583
0.00402699
0.0034776
0.00297228
0.00251377
0.00210311
0.00173978
0.00142199
0.00114699
0.000911412
0.000711643
0.000544314
0.000406946
0.000299191
0.000225828
0.000207837
0.000362608
8.30417e-06
4.41125e-06
4.07824e-06
4.66629e-06
5.67363e-06
6.92143e-06
8.32374e-06
9.83021e-06
1.14069e-05
1.30287e-05
1.46757e-05
1.63319e-05
1.79844e-05
1.96234e-05
2.12418e-05
2.28359e-05
2.44053e-05
2.59529e-05
2.74858e-05
2.90151e-05
3.05561e-05
3.2129e-05
3.37589e-05
3.54764e-05
3.7318e-05
3.93262e-05
4.15507e-05
4.40484e-05
4.68845e-05
5.0133e-05
5.38778e-05
5.82131e-05
6.32445e-05
6.90901e-05
7.58809e-05
8.3762e-05
9.28931e-05
0.00010345
0.000115623
0.000129622
0.000145672
0.000164017
0.000184919
0.000208661
0.000235544
0.000265891
0.000300047
0.000338379
0.000381279
0.000429165
0.00048248
0.000541695
0.00060731
0.00067985
0.000759871
0.000847954
0.000944706
0.00105075
0.00116675
0.00129334
0.00143118
0.00158095
0.00174328
0.00191881
0.00210811
0.00231174
0.00253016
0.00276378
0.00301291
0.00327769
0.00355807
0.00385386
0.00416481
0.00449042
0.00482997
0.00518251
0.00554687
0.00592168
0.00630531
0.00669595
0.00709161
0.0074901
0.0078891
0.00828619
0.00867885
0.0090645
0.00944053
0.00980434
0.0101533
0.0104849
0.0107966
0.0110853
0.0113495
0.0115867
0.011795
0.011972
0.0121157
0.0122241
0.0122893
0.0123125
0.0123005
0.0122413
0.0121359
0.0119833
0.0117783
0.0115191
0.0112047
0.0108356
0.0104126
0.00993816
0.00941583
0.00885097
0.00825061
0.0076233
0.00697886
0.00632796
0.00568154
0.00505024
0.00444378
0.00387048
0.00333686
0.00284746
0.00240487
0.00200981
0.00166146
0.0013578
0.00109592
0.000872459
0.000683989
0.000527533
0.000401349
0.000306304
0.00024951
0.000257653
0.000481779
1.05697e-05
5.41003e-06
4.61863e-06
4.9039e-06
5.66402e-06
6.69038e-06
7.88407e-06
9.18914e-06
1.05691e-05
1.19977e-05
1.34551e-05
1.49258e-05
1.63975e-05
1.7861e-05
1.931e-05
2.07409e-05
2.21537e-05
2.35512e-05
2.494e-05
2.63303e-05
2.77364e-05
2.91769e-05
3.0675e-05
3.2259e-05
3.39626e-05
3.58253e-05
3.78933e-05
4.02196e-05
4.28653e-05
4.58999e-05
4.94022e-05
5.34615e-05
5.81781e-05
6.36646e-05
7.00467e-05
7.74646e-05
8.60732e-05
9.6044e-05
0.000107566
0.000120845
0.000136108
0.000153601
0.000173593
0.000196374
0.000222261
0.000251594
0.000284743
0.000322107
0.000364117
0.000411237
0.000463968
0.00052285
0.000588458
0.000661411
0.000742365
0.000832016
0.000931094
0.00104036
0.00116062
0.00129266
0.00143727
0.00159525
0.00176741
0.00195449
0.00215716
0.00237602
0.00261158
0.0028642
0.00313414
0.00342135
0.00372569
0.00404671
0.00438365
0.00473551
0.00510099
0.00547854
0.0058663
0.00626218
0.00666386
0.00706884
0.00747449
0.00787809
0.00827691
0.00866821
0.00904938
0.00941791
0.00977146
0.0101079
0.0104252
0.0107217
0.0109959
0.0112468
0.0114726
0.0116725
0.0118452
0.0119899
0.0121051
0.0121902
0.0122369
0.0122507
0.012235
0.0121785
0.0120811
0.0119417
0.0117545
0.0115164
0.0112255
0.0108802
0.0104798
0.010025
0.00951835
0.00896407
0.00836868
0.00774066
0.00709022
0.00642887
0.00576874
0.00512184
0.00449929
0.00391065
0.00336345
0.00286287
0.00241178
0.00201087
0.00165908
0.00135398
0.00109228
0.000870293
0.00068449
0.000531971
0.00041144
0.00032481
0.000281213
0.000313142
0.000608114
1.29914e-05
6.50624e-06
5.26917e-06
5.2787e-06
5.824e-06
6.66496e-06
7.68938e-06
8.83459e-06
1.00611e-05
1.13412e-05
1.26544e-05
1.3985e-05
1.53211e-05
1.66539e-05
1.79772e-05
1.9288e-05
2.05861e-05
2.18746e-05
2.31596e-05
2.44511e-05
2.57625e-05
2.71116e-05
2.85204e-05
3.00158e-05
3.16299e-05
3.34004e-05
3.53715e-05
3.75942e-05
4.01272e-05
4.30377e-05
4.64025e-05
5.03086e-05
5.48543e-05
6.01509e-05
6.6323e-05
7.35105e-05
8.18692e-05
9.15729e-05
0.000102814
0.000115805
0.000130782
0.000148003
0.000167752
0.000190341
0.000216111
0.000245437
0.000278726
0.000316425
0.000359023
0.00040705
0.000461085
0.000521757
0.000589741
0.000665765
0.000750614
0.00084512
0.000950161
0.00106665
0.00119555
0.00133783
0.00149447
0.00166642
0.00185459
0.00205983
0.00228287
0.00252433
0.00278464
0.003064
0.00336235
0.00367942
0.0040146
0.00436692
0.00473504
0.00511724
0.00551147
0.00591536
0.00632625
0.00674125
0.00715733
0.00757137
0.00798023
0.00838091
0.00877051
0.00914643
0.00950634
0.00984827
0.0101706
0.0104721
0.0107519
0.0110094
0.0112445
0.0114571
0.0116472
0.0118149
0.01196
0.0120828
0.0121828
0.0122595
0.0123081
0.0123287
0.0123264
0.0122911
0.0122197
0.0121106
0.0119575
0.0117551
0.0114996
0.0111875
0.0108163
0.0103848
0.00989413
0.00934743
0.00875058
0.00811206
0.00744267
0.00675507
0.00606304
0.00538057
0.00472089
0.00409558
0.0035139
0.00298236
0.00250462
0.00208172
0.00171249
0.00139413
0.00112284
0.000894433
0.000704935
0.000551362
0.000432618
0.000351313
0.000318516
0.000372701
0.000739977
1.55609e-05
7.68775e-06
6.00845e-06
5.75956e-06
6.11242e-06
6.79279e-06
7.67489e-06
8.68923e-06
9.79228e-06
1.09546e-05
1.21548e-05
1.33769e-05
1.46087e-05
1.58416e-05
1.70695e-05
1.82898e-05
1.95022e-05
2.07099e-05
2.19191e-05
2.31394e-05
2.43839e-05
2.567e-05
2.70191e-05
2.84574e-05
3.00161e-05
3.17322e-05
3.3649e-05
3.58166e-05
3.8293e-05
4.1145e-05
4.44489e-05
4.82918e-05
5.2773e-05
5.8005e-05
6.41148e-05
7.12461e-05
7.95598e-05
8.92368e-05
0.000100479
0.000113512
0.000128587
0.000145982
0.000166005
0.000189
0.000215345
0.000245457
0.000279797
0.000318873
0.000363246
0.000413529
0.000470398
0.000534588
0.000606906
0.000688218
0.000779455
0.000881611
0.000995734
0.00112292
0.00126428
0.00142096
0.00159408
0.00178473
0.00199391
0.00222251
0.00247124
0.00274062
0.00303089
0.00334196
0.00367338
0.00402434
0.00439359
0.00477942
0.00517966
0.0055917
0.00601257
0.006439
0.00686747
0.00729434
0.00771599
0.00812886
0.00852966
0.0089154
0.00928352
0.00963197
0.0099592
0.0102643
0.0105467
0.0108066
0.0110444
0.011261
0.0114576
0.0116354
0.0117956
0.0119392
0.0120673
0.0121804
0.0122786
0.0123609
0.0124253
0.0124716
0.0124941
0.012495
0.0124631
0.0123968
0.0122895
0.0121332
0.0119224
0.0116515
0.011316
0.0109128
0.0104415
0.00990394
0.00930524
0.00865365
0.00796044
0.00723938
0.00650601
0.00577655
0.00506673
0.0043907
0.00376005
0.00318322
0.00266522
0.00220787
0.00181019
0.00146915
0.00118043
0.000939212
0.000740974
0.000582357
0.000462253
0.000383843
0.00035999
0.000435304
0.000876086
1.82734e-05
8.94775e-06
6.82369e-06
6.32758e-06
6.50417e-06
7.04217e-06
7.80194e-06
8.70646e-06
9.70845e-06
1.0776e-05
1.18864e-05
1.30229e-05
1.41734e-05
1.5329e-05
1.64839e-05
1.76353e-05
1.87833e-05
1.99311e-05
2.10848e-05
2.22541e-05
2.34523e-05
2.46963e-05
2.60077e-05
2.74123e-05
2.89414e-05
3.06318e-05
3.25267e-05
3.46766e-05
3.714e-05
3.99844e-05
4.32874e-05
4.71384e-05
5.16393e-05
5.69064e-05
6.30723e-05
7.02873e-05
7.87215e-05
8.85672e-05
0.000100041
0.000113386
0.000128875
0.000146814
0.000167544
0.000191447
0.000218947
0.000250519
0.000286689
0.000328041
0.000375222
0.000428949
0.00049001
0.000559268
0.000637668
0.000726234
0.000826065
0.000938331
0.00106426
0.00120513
0.00136224
0.00153687
0.00173029
0.00194367
0.00217804
0.00243423
0.00271286
0.00301418
0.00333808
0.00368401
0.00405091
0.00443722
0.00484083
0.00525907
0.00568876
0.00612629
0.00656771
0.00700881
0.00744535
0.00787312
0.00828818
0.00868694
0.00906634
0.00942394
0.00975799
0.0100675
0.0103521
0.0106123
0.010849
0.011064
0.0112591
0.0114365
0.0115987
0.0117479
0.0118862
0.0120156
0.0121373
0.0122521
0.0123601
0.0124604
0.0125512
0.0126306
0.0126948
0.0127379
0.0127534
0.0127374
0.0126827
0.0125789
0.012419
0.0121952
0.011901
0.0115317
0.011085
0.0105613
0.00996474
0.00930288
0.00858711
0.00783202
0.00705467
0.00627346
0.00550679
0.00477167
0.00408252
0.00345023
0.00288177
0.00238021
0.00194516
0.0015736
0.00126081
0.00100134
0.000789998
0.000622913
0.00049879
0.000421214
0.000404734
0.000500257
0.00101544
2.11274e-05
1.02826e-05
7.7071e-06
6.97078e-06
6.98303e-06
7.39283e-06
8.04579e-06
8.85701e-06
9.775e-06
1.07654e-05
1.18041e-05
1.28735e-05
1.39607e-05
1.50566e-05
1.61555e-05
1.72548e-05
1.83546e-05
1.94582e-05
2.05721e-05
2.17061e-05
2.28737e-05
2.40921e-05
2.53829e-05
2.67724e-05
2.82923e-05
2.998e-05
3.18794e-05
3.40422e-05
3.65282e-05
3.94071e-05
4.27593e-05
4.66776e-05
5.12686e-05
5.66551e-05
6.29773e-05
7.03953e-05
7.90918e-05
8.92742e-05
0.000101178
0.00011507
0.00013125
0.000150059
0.000171878
0.000197137
0.000226317
0.000259957
0.000298662
0.000343105
0.000394036
0.000452287
0.000518777
0.000594516
0.000680606
0.000778245
0.000888713
0.00101337
0.00115363
0.00131096
0.0014868
0.00168259
0.00189967
0.00213924
0.00240226
0.00268944
0.00300108
0.00333707
0.00369673
0.00407882
0.00448145
0.0049021
0.0053376
0.00578416
0.0062375
0.00669295
0.00714561
0.00759057
0.00802304
0.00843864
0.00883352
0.00920455
0.00954942
0.00986674
0.010156
0.0104177
0.0106531
0.0108642
0.0110536
0.0112243
0.0113797
0.011523
0.0116574
0.0117862
0.0119117
0.0120363
0.0121612
0.0122871
0.0124137
0.01254
0.0126637
0.0127818
0.0128899
0.0129821
0.0130518
0.0130851
0.0130857
0.0130371
0.0129314
0.0127587
0.0125108
0.0121812
0.0117657
0.011263
0.0106758
0.0100106
0.0092784
0.00849397
0.00767548
0.0068432
0.00601808
0.00522016
0.00446701
0.00377248
0.00314606
0.00259261
0.00211284
0.00170409
0.00136143
0.00107885
0.000850485
0.000671835
0.000541285
0.000462678
0.000452168
0.000567083
0.0011573
2.41231e-05
1.16906e-05
8.65408e-06
7.6815e-06
7.5382e-06
7.83135e-06
8.38989e-06
9.12124e-06
9.96924e-06
1.08969e-05
1.18783e-05
1.28948e-05
1.39331e-05
1.49837e-05
1.60408e-05
1.71015e-05
1.81664e-05
1.92388e-05
2.03256e-05
2.14369e-05
2.25866e-05
2.37925e-05
2.50768e-05
2.64666e-05
2.79943e-05
2.96984e-05
3.16245e-05
3.3826e-05
3.63653e-05
3.93151e-05
4.27598e-05
4.67973e-05
5.1541e-05
5.71213e-05
6.36889e-05
7.14165e-05
8.05023e-05
9.1173e-05
0.000103687
0.00011834
0.000135465
0.000155443
0.000178704
0.000205733
0.000237078
0.000273356
0.00031526
0.000363566
0.00041914
0.000482945
0.000556048
0.000639621
0.000734941
0.00084339
0.000966443
0.00110565
0.00126262
0.00143898
0.00163632
0.00185615
0.00209984
0.00236852
0.002663
0.00298366
0.00333038
0.00370243
0.00409838
0.00451607
0.00495257
0.00540419
0.00586656
0.0063347
0.00680322
0.00726649
0.00771888
0.00815503
0.00857008
0.00895989
0.00932127
0.00965205
0.0099512
0.0102188
0.0104561
0.0106651
0.0108487
0.0110106
0.0111549
0.0112856
0.011407
0.0115234
0.011639
0.011756
0.0118771
0.0120045
0.0121393
0.0122821
0.0124323
0.0125881
0.012747
0.012905
0.0130571
0.013197
0.0133172
0.0134093
0.0134581
0.013464
0.0134138
0.0132951
0.0130977
0.0128137
0.0124368
0.011964
0.0113959
0.0107375
0.00999875
0.00919389
0.00834152
0.00746328
0.00658239
0.00572185
0.00490258
0.00414185
0.00345219
0.0028409
0.00231029
0.00185851
0.00148075
0.00117061
0.000921557
0.000728426
0.00058917
0.000507776
0.000501924
0.000635465
0.00130115
2.72628e-05
1.31716e-05
9.66208e-06
8.45481e-06
8.16264e-06
8.3485e-06
8.82287e-06
9.48565e-06
1.02754e-05
1.11523e-05
1.20886e-05
1.30645e-05
1.40658e-05
1.50827e-05
1.61092e-05
1.71425e-05
1.81832e-05
1.92351e-05
2.03052e-05
2.14044e-05
2.2547e-05
2.37517e-05
2.50415e-05
2.64446e-05
2.79948e-05
2.97324e-05
3.1705e-05
3.39685e-05
3.65886e-05
3.96423e-05
4.3219e-05
4.74233e-05
5.23764e-05
5.8219e-05
6.51142e-05
7.32501e-05
8.28436e-05
9.41443e-05
0.000107438
0.000123053
0.000141364
0.000162796
0.000187835
0.000217033
0.000251013
0.000290479
0.000336226
0.000389145
0.000450234
0.000520603
0.000601479
0.00069421
0.000800263
0.000921215
0.00105874
0.00121458
0.00139052
0.00158832
0.00180967
0.00205611
0.00232894
0.0026291
0.00295709
0.00331282
0.00369553
0.00410365
0.0045348
0.00498567
0.00545209
0.00592911
0.00641107
0.00689183
0.00736502
0.00782429
0.00826365
0.00867773
0.00906209
0.00941342
0.00972967
0.0100102
0.0102555
0.0104677
0.0106496
0.010805
0.0109385
0.0110547
0.0111592
0.0112581
0.0113545
0.0114522
0.0115547
0.0116662
0.0117891
0.0119248
0.012074
0.0122366
0.0124113
0.0125962
0.012788
0.0129831
0.0131761
0.0133601
0.0135271
0.0136689
0.0137754
0.0138274
0.0138312
0.013768
0.0136248
0.0133921
0.0130619
0.0126288
0.0120912
0.0114522
0.0107195
0.00990633
0.00903086
0.00811542
0.00718498
0.00626528
0.00538069
0.0045522
0.00379593
0.00312221
0.00253563
0.00203566
0.00161799
0.00127605
0.00100278
0.000792327
0.000642138
0.000556246
0.000553786
0.000705215
0.00144668
3.05501e-05
1.47267e-05
1.07301e-05
9.28776e-06
8.85169e-06
8.93788e-06
9.33687e-06
9.94076e-06
1.06825e-05
1.1519e-05
1.24207e-05
1.33664e-05
1.43411e-05
1.53344e-05
1.63402e-05
1.73556e-05
1.83813e-05
1.94217e-05
2.04842e-05
2.15802e-05
2.2725e-05
2.39382e-05
2.52442e-05
2.66724e-05
2.82585e-05
3.00449e-05
3.20819e-05
3.44288e-05
3.71553e-05
4.03435e-05
4.40891e-05
4.85046e-05
5.37208e-05
5.98907e-05
6.71918e-05
7.58302e-05
8.60449e-05
9.81118e-05
0.000112349
0.000129122
0.000148851
0.000172016
0.000199166
0.000230924
0.000268002
0.000311202
0.000361432
0.000419712
0.000487185
0.000565121
0.000654924
0.000758129
0.000876402
0.00101152
0.00116536
0.00133983
0.00153687
0.00175835
0.00200598
0.00228125
0.00258527
0.00291865
0.00328141
0.00367279
0.00409116
0.00453394
0.00499752
0.00547731
0.0059678
0.00646266
0.00695505
0.00743781
0.00790386
0.00834652
0.00875992
0.00913922
0.00948096
0.00978316
0.0100454
0.010269
0.0104562
0.0106111
0.0107382
0.0108428
0.0109314
0.0110107
0.011084
0.0111554
0.0112314
0.0113165
0.0114139
0.0115263
0.0116554
0.0118023
0.011967
0.0121489
0.0123464
0.0125571
0.0127778
0.013004
0.0132304
0.0134513
0.0136597
0.0138465
0.014002
0.0141109
0.0141586
0.0141512
0.0140652
0.0138892
0.0136135
0.0132303
0.0127356
0.0121296
0.0114175
0.0106105
0.00972548
0.00878453
0.00781374
0.00684118
0.00589456
0.00499885
0.00417423
0.00343472
0.00278783
0.00223499
0.00177286
0.00139504
0.00109405
0.000863432
0.000700072
0.000607974
0.000607656
0.000776258
0.00159381
3.39902e-05
1.63576e-05
1.1858e-05
1.01788e-05
9.60244e-06
9.59515e-06
9.92653e-06
1.04799e-05
1.11825e-05
1.19879e-05
1.28642e-05
1.37889e-05
1.4746e-05
1.57246e-05
1.67182e-05
1.7724e-05
1.8743e-05
1.97798e-05
2.08425e-05
2.19434e-05
2.30987e-05
2.43293e-05
2.5661e-05
2.71251e-05
2.87594e-05
3.0609e-05
3.27275e-05
3.5178e-05
3.80353e-05
4.13872e-05
4.53373e-05
5.00069e-05
5.55384e-05
6.20985e-05
6.98818e-05
7.91151e-05
9.00624e-05
0.00010303
0.000118372
0.000136497
0.000157877
0.000183053
0.000212643
0.000247357
0.000287998
0.000335482
0.000390841
0.000455237
0.000529971
0.000616486
0.000716374
0.00083137
0.000963341
0.00111427
0.0012862
0.00148122
0.00170138
0.00194857
0.00222447
0.00253037
0.00286708
0.00323473
0.00363262
0.00405913
0.00451155
0.00498607
0.00547771
0.00598046
0.0064874
0.00699097
0.00748324
0.00795638
0.00840299
0.00881659
0.00919192
0.0095253
0.00981474
0.0100601
0.0102628
0.0104264
0.0105548
0.0106542
0.0107313
0.0107941
0.0108452
0.0108896
0.0109357
0.010989
0.0110536
0.011133
0.01123
0.0113464
0.0114835
0.0116416
0.0118204
0.0120186
0.0122347
0.0124659
0.0127091
0.01296
0.0132136
0.013464
0.0137041
0.0139259
0.0141222
0.0142824
0.0143878
0.0144277
0.0144009
0.0142863
0.0140723
0.013749
0.0133092
0.0127503
0.0120744
0.0112895
0.0104103
0.00945787
0.00845839
0.00744172
0.00643864
0.00547816
0.00458495
0.00377735
0.00306651
0.0024565
0.00194553
0.00152775
0.00119553
0.000941832
0.000763004
0.000662961
0.000663529
0.000848613
0.00174261
3.75893e-05
1.80668e-05
1.30468e-05
1.11275e-05
1.04133e-05
1.03175e-05
1.05882e-05
1.10985e-05
1.17699e-05
1.25524e-05
1.34116e-05
1.43236e-05
1.52712e-05
1.6243e-05
1.7232e-05
1.82357e-05
1.92552e-05
2.02955e-05
2.13656e-05
2.24786e-05
2.36521e-05
2.49082e-05
2.62746e-05
2.77847e-05
2.94791e-05
3.14057e-05
3.3622e-05
3.61958e-05
3.92076e-05
4.27521e-05
4.69415e-05
5.19077e-05
5.7806e-05
6.48188e-05
7.31602e-05
8.30804e-05
9.48717e-05
0.000108874
0.000125484
0.000145157
0.000168423
0.000195891
0.000228259
0.000266328
0.000311008
0.000363335
0.000424481
0.000495762
0.000578648
0.000674768
0.000785912
0.000914018
0.00106115
0.00122949
0.00142126
0.00163864
0.00188375
0.00215844
0.00246424
0.00280212
0.00317241
0.00357455
0.00400697
0.00446694
0.00495049
0.00545238
0.00596617
0.00648439
0.0069988
0.00750075
0.00798161
0.00843324
0.00884847
0.00922153
0.00954841
0.00982708
0.0100575
0.0102415
0.0103827
0.0104869
0.0105591
0.0106118
0.0106463
0.0106675
0.0106858
0.0107061
0.0107346
0.0107767
0.0108352
0.0109131
0.0110123
0.011134
0.0112786
0.0114461
0.0116356
0.0118458
0.0120748
0.0123201
0.0125787
0.0128469
0.01312
0.0133929
0.0136592
0.0139115
0.0141415
0.0143395
0.0144943
0.0145908
0.0146205
0.0145725
0.0144264
0.0141715
0.013798
0.0132998
0.0126755
0.0119294
0.0110727
0.0101244
0.00910993
0.00806005
0.00700812
0.00598714
0.00502652
0.00414955
0.00337175
0.0027006
0.0021365
0.00167467
0.00130758
0.00102778
0.000831087
0.000721311
0.000721485
0.000922383
0.00189333
4.13547e-05
1.98575e-05
1.42981e-05
1.21342e-05
1.12835e-05
1.11034e-05
1.13196e-05
1.17933e-05
1.24408e-05
1.32079e-05
1.40576e-05
1.49643e-05
1.59098e-05
1.68818e-05
1.78734e-05
1.88817e-05
1.99082e-05
2.09585e-05
2.20426e-05
2.31745e-05
2.43732e-05
2.56625e-05
2.70723e-05
2.86384e-05
3.04041e-05
3.24214e-05
3.47517e-05
3.74684e-05
4.06582e-05
4.4424e-05
4.88877e-05
5.41929e-05
6.05098e-05
6.80385e-05
7.70147e-05
8.7715e-05
0.000100463
0.000115638
0.00013368
0.000155102
0.000180495
0.000210544
0.000246035
0.000287869
0.000337075
0.000394823
0.000462431
0.000541382
0.00063333
0.000740097
0.000863676
0.00100621
0.00116997
0.00135728
0.00157052
0.00181195
0.00208364
0.00238733
0.00272424
0.0030949
0.00349895
0.00393497
0.00440027
0.00489085
0.00540127
0.0059248
0.00645347
0.00697845
0.00749036
0.00797978
0.0084378
0.0088565
0.00922949
0.00955232
0.00982271
0.0100407
0.0102085
0.0103302
0.0104108
0.0104627
0.0104871
0.0104923
0.0104867
0.0104781
0.0104746
0.010478
0.010495
0.0105309
0.0105873
0.0106661
0.0107684
0.0108949
0.0110452
0.011219
0.011415
0.011632
0.0118679
0.0121208
0.0123878
0.0126658
0.0129511
0.013239
0.0135243
0.0138004
0.0140599
0.0142941
0.0144923
0.0146416
0.0147208
0.0147373
0.01467
0.0144906
0.0141928
0.0137676
0.0132096
0.0125185
0.0117015
0.0107741
0.00976
0.00868972
0.00759853
0.00652307
0.00549768
0.00455108
0.00370394
0.00296798
0.00234655
0.00183647
0.00143074
0.00112167
0.000904567
0.000783213
0.000781666
0.000997742
0.00204637
4.52947e-05
2.17336e-05
1.56138e-05
1.31999e-05
1.22132e-05
1.19523e-05
1.21193e-05
1.25624e-05
1.31927e-05
1.39512e-05
1.47984e-05
1.57067e-05
1.66568e-05
1.76357e-05
1.86361e-05
1.96552e-05
2.06949e-05
2.17613e-05
2.28654e-05
2.40226e-05
2.52533e-05
2.65834e-05
2.8045e-05
2.96767e-05
3.15253e-05
3.36466e-05
3.61073e-05
3.89864e-05
4.23783e-05
4.63945e-05
5.11678e-05
5.68555e-05
6.36436e-05
7.17525e-05
8.14419e-05
9.30178e-05
0.000106839
0.000123327
0.000142973
0.000166348
0.000194116
0.000227044
0.000266014
0.00031204
0.000366276
0.000430036
0.000504801
0.00059223
0.000694167
0.000812638
0.000949839
0.00110811
0.0012899
0.00149771
0.00173395
0.00200093
0.00230058
0.0026344
0.00300317
0.00340678
0.00384402
0.00431236
0.00480784
0.00532499
0.00585683
0.00639504
0.00693025
0.00745241
0.00795134
0.00841728
0.00884154
0.00921703
0.0095387
0.0098039
0.0100125
0.0101669
0.0102715
0.0103334
0.0103609
0.0103633
0.0103409
0.0103093
0.0102746
0.0102435
0.0102251
0.0102192
0.0102289
0.0102625
0.0103189
0.0103995
0.0105047
0.0106342
0.0107876
0.010964
0.0111621
0.0113807
0.011618
0.0118723
0.0121414
0.0124227
0.0127134
0.0130097
0.0133072
0.0136007
0.0138835
0.0141482
0.0143852
0.014583
0.0147257
0.0147913
0.0147931
0.0147016
0.0144889
0.0141469
0.0136681
0.0130473
0.0122868
0.0113978
0.0104005
0.0093243
0.00820527
0.00708315
0.00599715
0.00498179
0.00406365
0.00325955
0.00257664
0.00201404
0.00156572
0.00122401
0.000983785
0.000848922
0.000844273
0.00107492
0.00220223
4.94187e-05
2.36991e-05
1.69967e-05
1.43262e-05
1.32032e-05
1.28645e-05
1.29868e-05
1.34048e-05
1.4024e-05
1.47803e-05
1.56314e-05
1.65478e-05
1.75087e-05
1.85007e-05
1.95158e-05
2.05515e-05
2.161e-05
2.26983e-05
2.38283e-05
2.50169e-05
2.62863e-05
2.76645e-05
2.91862e-05
3.08932e-05
3.28362e-05
3.50754e-05
3.76829e-05
4.07447e-05
4.43629e-05
4.86594e-05
5.37788e-05
5.98933e-05
6.72071e-05
7.59626e-05
8.64461e-05
9.89961e-05
0.000114011
0.000131957
0.000153383
0.000178926
0.000209327
0.000245443
0.000288263
0.00033892
0.000398707
0.000469093
0.000551729
0.000648463
0.000761334
0.000892574
0.00104458
0.00121988
0.00142109
0.00165078
0.00191143
0.00220524
0.00253393
0.0028986
0.00329943
0.00373549
0.0042045
0.00470267
0.00522457
0.00576314
0.00630982
0.00685479
0.00738742
0.00789677
0.00837225
0.00880429
0.00918501
0.00950868
0.00977217
0.00997498
0.0101192
0.0102102
0.0102546
0.0102655
0.0102409
0.0101969
0.0101397
0.0100799
0.0100238
0.00997769
0.00995022
0.00994002
0.00994615
0.00997971
0.0100374
0.0101197
0.0102265
0.010357
0.0105105
0.0106859
0.010882
0.0110977
0.0113315
0.0115822
0.011848
0.0121272
0.0124176
0.0127164
0.0130204
0.0133251
0.0136253
0.0139145
0.0141844
0.0144243
0.0146219
0.0147585
0.0148168
0.014799
0.0146828
0.0144338
0.0140449
0.0135082
0.0128201
0.0119865
0.0110233
0.00995699
0.0088233
0.00766419
0.00652337
0.00544141
0.00445144
0.00357629
0.00282787
0.00220839
0.00171334
0.0013354
0.00106918
0.000918721
0.000909554
0.0011542
0.00236148
5.3737e-05
2.5759e-05
1.84498e-05
1.55151e-05
1.42549e-05
1.38405e-05
1.39223e-05
1.43202e-05
1.49341e-05
1.56942e-05
1.65552e-05
1.74856e-05
1.84633e-05
1.9474e-05
2.05094e-05
2.15672e-05
2.265e-05
2.37656e-05
2.49272e-05
2.61531e-05
2.74677e-05
2.89014e-05
3.04917e-05
3.2284e-05
3.4333e-05
3.67041e-05
3.94756e-05
4.27407e-05
4.66106e-05
5.12181e-05
5.67214e-05
6.33088e-05
7.12047e-05
8.06755e-05
9.20373e-05
0.000105664
0.000121997
0.000141554
0.000164944
0.000192877
0.000226179
0.000265805
0.000312859
0.000368605
0.000434484
0.000512128
0.00060337
0.000710251
0.000835014
0.000980091
0.00114807
0.00134166
0.00156357
0.00181645
0.00210272
0.00242438
0.00278283
0.0031786
0.00361109
0.00407836
0.00457689
0.00510143
0.00564497
0.00619883
0.00675289
0.007296
0.00781653
0.00830308
0.00874516
0.00913395
0.00946292
0.00972829
0.00992921
0.0100677
0.010147
0.0101781
0.0101721
0.0101278
0.010061
0.00998177
0.0098976