/*--------------------------------*- C++ -*----------------------------------*\
  =========                 |
  \\      /  F ield         | OpenFOAM: The Open Source CFD Toolbox
   \\    /   O peration     | Website:  https://openfoam.org
    \\  /    A nd           | Version:  12
     \\/     M anipulation  |
\*---------------------------------------------------------------------------*/
FoamFile
{
    format      ascii;
    class       volScalarField;
    location    "4.5";
    object      nut;
}
// * * * * * * * * * * * * * * * * * * * * * * * * * * * * * * * * * * * * * //

dimensions      [0 2 -1 0 0 0 0];

internalField   nonuniform List<scalar> 
18225
(
4.44722e-15
3.00961e-14
6.70797e-14
1.11245e-13
1.6066e-13
2.14089e-13
2.70592e-13
3.29382e-13
3.89764e-13
4.51114e-13
5.12868e-13
5.74524e-13
6.35652e-13
6.95903e-13
7.55022e-13
8.12859e-13
8.6938e-13
9.24679e-13
9.78986e-13
1.03268e-12
1.08629e-12
1.14052e-12
1.19623e-12
1.25449e-12
1.31654e-12
1.38384e-12
1.45808e-12
1.54119e-12
1.63536e-12
1.74306e-12
1.86707e-12
2.01051e-12
2.17681e-12
2.36981e-12
2.59371e-12
2.85311e-12
3.15304e-12
3.4989e-12
3.89655e-12
4.35221e-12
4.8725e-12
5.4644e-12
6.13525e-12
6.89268e-12
7.74462e-12
8.69924e-12
9.76492e-12
1.09502e-11
1.22639e-11
1.37149e-11
1.53119e-11
1.70639e-11
1.898e-11
2.10688e-11
2.3339e-11
2.57992e-11
2.84573e-11
3.1321e-11
3.43976e-11
3.76936e-11
4.12149e-11
4.49667e-11
4.89535e-11
5.31789e-11
5.76458e-11
6.23563e-11
6.73116e-11
7.25124e-11
7.79586e-11
8.36496e-11
8.95839e-11
9.57599e-11
1.02175e-10
1.08826e-10
1.1571e-10
1.22821e-10
1.30156e-10
1.37707e-10
1.45469e-10
1.53432e-10
1.61588e-10
1.69924e-10
1.78427e-10
1.87081e-10
1.95867e-10
2.04762e-10
2.13741e-10
2.22771e-10
2.31816e-10
2.40835e-10
2.49779e-10
2.58589e-10
2.67202e-10
2.75542e-10
2.83527e-10
2.91061e-10
2.98043e-10
3.04355e-10
3.09866e-10
3.14437e-10
3.17915e-10
3.20017e-10
3.20838e-10
3.2048e-10
3.18409e-10
3.14541e-10
3.08829e-10
3.01245e-10
2.91787e-10
2.80501e-10
2.67485e-10
2.52894e-10
2.36942e-10
2.19892e-10
2.02052e-10
1.83758e-10
1.65361e-10
1.47206e-10
1.29613e-10
1.12865e-10
9.71918e-11
8.27635e-11
6.96866e-11
5.80072e-11
4.7716e-11
3.8758e-11
3.10423e-11
2.44548e-11
1.8865e-11
1.4141e-11
1.0157e-11
6.80611e-12
4.01617e-12
1.78167e-12
2.62761e-13
1.34456e-13
4.38306e-12
1.10172e-11
1.87382e-11
2.72992e-11
3.6522e-11
4.62587e-11
5.63799e-11
6.67693e-11
7.73208e-11
8.7938e-11
9.85349e-11
1.09038e-10
1.19386e-10
1.29535e-10
1.3946e-10
1.49154e-10
1.58633e-10
1.67935e-10
1.77127e-10
1.86298e-10
1.95568e-10
2.05086e-10
2.15034e-10
2.25624e-10
2.37107e-10
2.49771e-10
2.63948e-10
2.80011e-10
2.98383e-10
3.19542e-10
3.44017e-10
3.72399e-10
4.05344e-10
4.4357e-10
4.87866e-10
5.3909e-10
5.98169e-10
6.66101e-10
7.43953e-10
8.32855e-10
9.34002e-10
1.04864e-09
1.17809e-09
1.32368e-09
1.48681e-09
1.66891e-09
1.87143e-09
2.09585e-09
2.34365e-09
2.61636e-09
2.91546e-09
3.24246e-09
3.59882e-09
3.98601e-09
4.4054e-09
4.85834e-09
5.34608e-09
5.86978e-09
6.43051e-09
7.02919e-09
7.66662e-09
8.34349e-09
9.06032e-09
9.81749e-09
1.06153e-08
1.14537e-08
1.23329e-08
1.32527e-08
1.42128e-08
1.5213e-08
1.62529e-08
1.73319e-08
1.84495e-08
1.9605e-08
2.07976e-08
2.20265e-08
2.32908e-08
2.45893e-08
2.59207e-08
2.72836e-08
2.86762e-08
3.00964e-08
3.15419e-08
3.30098e-08
3.44966e-08
3.59986e-08
3.75108e-08
3.90279e-08
4.05433e-08
4.20493e-08
4.35372e-08
4.49964e-08
4.64152e-08
4.77799e-08
4.90754e-08
5.02846e-08
5.13882e-08
5.23637e-08
5.31875e-08
5.38279e-08
5.42282e-08
5.44102e-08
5.44088e-08
5.41116e-08
5.35076e-08
5.25878e-08
5.13451e-08
4.97775e-08
4.78908e-08
4.57004e-08
4.32319e-08
4.05216e-08
3.76148e-08
3.45652e-08
3.14319e-08
2.82765e-08
2.516e-08
2.2139e-08
1.92636e-08
1.6574e-08
1.41001e-08
1.18603e-08
9.86229e-09
8.10418e-09
6.57591e-09
5.2613e-09
4.13953e-09
3.18878e-09
2.38568e-09
1.70791e-09
1.1359e-09
6.54863e-10
2.58386e-10
7.94097e-12
2.85644e-13
2.35041e-11
7.57288e-11
1.37757e-10
2.05707e-10
2.7834e-10
3.54686e-10
4.33847e-10
5.14974e-10
5.97274e-10
6.8001e-10
7.6252e-10
8.44226e-10
9.24659e-10
1.00347e-09
1.08045e-09
1.15554e-09
1.22887e-09
1.30073e-09
1.37162e-09
1.44225e-09
1.51352e-09
1.5866e-09
1.66287e-09
1.74399e-09
1.83189e-09
1.92878e-09
2.03721e-09
2.16007e-09
2.30062e-09
2.4625e-09
2.64982e-09
2.8671e-09
3.11938e-09
3.41218e-09
3.75155e-09
4.14408e-09
4.59688e-09
5.11759e-09
5.71437e-09
6.39584e-09
7.17111e-09
8.04968e-09
9.04144e-09
1.01566e-08
1.14056e-08
1.27992e-08
1.43482e-08
1.60635e-08
1.79563e-08
2.00374e-08
2.23178e-08
2.48083e-08
2.75194e-08
3.04611e-08
3.36433e-08
3.7075e-08
4.07644e-08
4.47191e-08
4.89457e-08
5.34495e-08
5.82352e-08
6.33058e-08
6.86635e-08
7.43092e-08
8.02429e-08
8.64635e-08
9.29689e-08
9.97563e-08
1.06822e-07
1.14163e-07
1.21774e-07
1.2965e-07
1.37787e-07
1.46178e-07
1.54818e-07
1.63701e-07
1.72821e-07
1.82171e-07
1.91744e-07
2.01531e-07
2.11524e-07
2.2171e-07
2.32079e-07
2.42614e-07
2.53297e-07
2.64108e-07
2.75018e-07
2.85997e-07
2.97007e-07
3.08e-07
3.18923e-07
3.29707e-07
3.40275e-07
3.50536e-07
3.60383e-07
3.69699e-07
3.78345e-07
3.86159e-07
3.92963e-07
3.98593e-07
4.02415e-07
4.04662e-07
4.05778e-07
4.04646e-07
4.01201e-07
3.95349e-07
3.87002e-07
3.76106e-07
3.62671e-07
3.46784e-07
3.28623e-07
3.08451e-07
2.86618e-07
2.63545e-07
2.39705e-07
2.15597e-07
1.91718e-07
1.68535e-07
1.46454e-07
1.25809e-07
1.06839e-07
8.96941e-08
7.44334e-08
6.10376e-08
4.94229e-08
3.94565e-08
3.09721e-08
2.37886e-08
1.77172e-08
1.25745e-08
8.19373e-09
4.44453e-09
1.37924e-09
1.68407e-11
4.6728e-13
5.52297e-11
2.28145e-10
4.57653e-10
7.11867e-10
9.82363e-10
1.26532e-09
1.55768e-09
1.85658e-09
2.15924e-09
2.46306e-09
2.76564e-09
3.06487e-09
3.35902e-09
3.64679e-09
3.92739e-09
4.2006e-09
4.46681e-09
4.72709e-09
4.98323e-09
5.23777e-09
5.49402e-09
5.75615e-09
6.02919e-09
6.31909e-09
6.63281e-09
6.97835e-09
7.36487e-09
7.80273e-09
8.30364e-09
8.88071e-09
9.5486e-09
1.03236e-08
1.12236e-08
1.22684e-08
1.34796e-08
1.48806e-08
1.64966e-08
1.83549e-08
2.04841e-08
2.29147e-08
2.56786e-08
2.88089e-08
3.23399e-08
3.63068e-08
4.07453e-08
4.56917e-08
5.11823e-08
5.72534e-08
6.39409e-08
7.12803e-08
7.93061e-08
8.80515e-08
9.75483e-08
1.07826e-07
1.18913e-07
1.30832e-07
1.43605e-07
1.5725e-07
1.7178e-07
1.87205e-07
2.03529e-07
2.20753e-07
2.38873e-07
2.57883e-07
2.77771e-07
2.98524e-07
3.20124e-07
3.42554e-07
3.65795e-07
3.89827e-07
4.14633e-07
4.40193e-07
4.66489e-07
4.93505e-07
5.21226e-07
5.49639e-07
5.78734e-07
6.08499e-07
6.38928e-07
6.7001e-07
7.01737e-07
7.34097e-07
7.67076e-07
8.00653e-07
8.34803e-07
8.69488e-07
9.0466e-07
9.40252e-07
9.76179e-07
1.01233e-06
1.04857e-06
1.0847e-06
1.12051e-06
1.15572e-06
1.19002e-06
1.22301e-06
1.25427e-06
1.28326e-06
1.30951e-06
1.33244e-06
1.34877e-06
1.36063e-06
1.3693e-06
1.37033e-06
1.36348e-06
1.34831e-06
1.32439e-06
1.29137e-06
1.24914e-06
1.19789e-06
1.13811e-06
1.07067e-06
9.96763e-07
9.17865e-07
8.35685e-07
7.52056e-07
6.68825e-07
5.8774e-07
5.10345e-07
4.37898e-07
3.71324e-07
3.11195e-07
2.57746e-07
2.10912e-07
1.70388e-07
1.35684e-07
1.06186e-07
8.12161e-08
6.00666e-08
4.20439e-08
2.65268e-08
1.32e-08
3.22875e-09
2.74596e-11
6.73744e-13
9.33323e-11
4.6454e-10
1.03474e-09
1.69479e-09
2.40253e-09
3.14201e-09
3.90408e-09
4.68128e-09
5.46665e-09
6.25357e-09
7.03593e-09
7.80831e-09
8.56619e-09
9.30612e-09
1.0026e-08
1.07251e-08
1.14045e-08
1.20666e-08
1.27162e-08
1.33594e-08
1.40048e-08
1.46629e-08
1.53464e-08
1.60704e-08
1.68525e-08
1.77128e-08
1.86743e-08
1.97631e-08
2.10085e-08
2.24434e-08
2.41043e-08
2.60319e-08
2.82708e-08
3.08701e-08
3.38832e-08
3.73678e-08
4.13862e-08
4.60047e-08
5.12933e-08
5.73259e-08
6.41789e-08
7.19316e-08
8.06648e-08
9.04607e-08
1.01402e-07
1.1357e-07
1.27046e-07
1.41911e-07
1.5824e-07
1.76107e-07
1.95581e-07
2.16727e-07
2.39604e-07
2.64263e-07
2.90748e-07
3.19094e-07
3.49327e-07
3.8146e-07
4.15498e-07
4.51437e-07
4.89258e-07
5.28935e-07
5.70432e-07
6.13707e-07
6.5871e-07
7.0539e-07
7.53688e-07
8.03549e-07
8.54923e-07
9.07768e-07
9.62041e-07
1.01771e-06
1.07474e-06
1.13312e-06
1.19283e-06
1.25389e-06
1.3163e-06
1.38009e-06
1.44527e-06
1.51188e-06
1.57996e-06
1.64953e-06
1.72064e-06
1.7933e-06
1.86752e-06
1.9433e-06
2.02059e-06
2.09933e-06
2.17939e-06
2.26062e-06
2.34276e-06
2.42546e-06
2.50827e-06
2.59061e-06
2.6718e-06
2.75098e-06
2.82713e-06
2.8993e-06
2.96711e-06
3.02605e-06
3.0715e-06
3.10707e-06
3.13663e-06
3.1487e-06
3.14256e-06
3.11704e-06
3.07092e-06
3.00316e-06
2.91327e-06
2.80144e-06
2.66866e-06
2.51677e-06
2.34844e-06
2.16708e-06
1.97671e-06
1.7817e-06
1.58652e-06
1.39547e-06
1.2124e-06
1.04051e-06
8.82181e-07
7.38957e-07
6.11528e-07
4.9983e-07
4.03178e-07
3.20409e-07
2.50028e-07
1.90349e-07
1.39597e-07
9.60436e-08
5.83067e-08
2.65265e-08
5.43213e-09
3.93981e-11
9.01135e-13
1.34951e-10
7.61989e-10
1.86528e-09
3.22882e-09
4.72417e-09
6.29564e-09
7.91562e-09
9.56565e-09
1.12302e-08
1.28952e-08
1.45475e-08
1.61756e-08
1.77697e-08
1.93225e-08
2.08292e-08
2.22881e-08
2.37009e-08
2.50729e-08
2.64133e-08
2.77351e-08
2.90558e-08
3.03969e-08
3.17847e-08
3.325e-08
3.48289e-08
3.65625e-08
3.84978e-08
4.06877e-08
4.31919e-08
4.60768e-08
4.94162e-08
5.32916e-08
5.77928e-08
6.30177e-08
6.90725e-08
7.60719e-08
8.41381e-08
9.34009e-08
1.03997e-07
1.16067e-07
1.29759e-07
1.45221e-07
1.62604e-07
1.82058e-07
2.0373e-07
2.27766e-07
2.54303e-07
2.83473e-07
3.154e-07
3.50194e-07
3.87956e-07
4.28774e-07
4.72717e-07
5.19841e-07
5.70183e-07
6.23759e-07
6.80566e-07
7.40579e-07
8.03755e-07
8.70034e-07
9.39337e-07
1.01157e-06
1.08663e-06
1.1644e-06
1.24477e-06
1.32762e-06
1.41285e-06
1.50033e-06
1.59001e-06
1.68185e-06
1.77583e-06
1.87189e-06
1.97002e-06
2.07023e-06
2.17258e-06
2.27712e-06
2.38393e-06
2.49313e-06
2.60484e-06
2.71917e-06
2.83629e-06
2.95632e-06
3.07941e-06
3.20568e-06
3.33524e-06
3.46817e-06
3.60447e-06
3.74412e-06
3.887e-06
4.0329e-06
4.18163e-06
4.33239e-06
4.4844e-06
4.63664e-06
4.78781e-06
4.93633e-06
5.08011e-06
5.21945e-06
5.34988e-06
5.46411e-06
5.55629e-06
5.62889e-06
5.69244e-06
5.72448e-06
5.72306e-06
5.68651e-06
5.61239e-06
5.4987e-06
5.34436e-06
5.14951e-06
4.91572e-06
4.64607e-06
4.34515e-06
4.01896e-06
3.67458e-06
3.31988e-06
2.963e-06
2.61189e-06
2.2738e-06
1.9549e-06
1.65991e-06
1.39205e-06
1.15291e-06
9.42684e-07
7.60279e-07
6.03656e-07
4.70073e-07
3.56337e-07
2.59064e-07
1.75028e-07
1.02222e-07
4.29809e-08
7.80819e-09
5.23462e-11
1.14699e-12
1.79183e-10
1.09962e-09
2.90798e-09
5.308e-09
8.03013e-09
1.09298e-08
1.39324e-08
1.69934e-08
2.00795e-08
2.31625e-08
2.62173e-08
2.92218e-08
3.21573e-08
3.50095e-08
3.7769e-08
4.04321e-08
4.30013e-08
4.54857e-08
4.79016e-08
5.02723e-08
5.26289e-08
5.50101e-08
5.74629e-08
6.00425e-08
6.2813e-08
6.58478e-08
6.92301e-08
7.30535e-08
7.7423e-08
8.24551e-08
8.82791e-08
9.50369e-08
1.02884e-07
1.11989e-07
1.22536e-07
1.34718e-07
1.48743e-07
1.64829e-07
1.83203e-07
2.04099e-07
2.27754e-07
2.54406e-07
2.84291e-07
3.17641e-07
3.54678e-07
3.9561e-07
4.40632e-07
4.89919e-07
5.43626e-07
6.01884e-07
6.64797e-07
7.32443e-07
8.0487e-07
8.82096e-07
9.64104e-07
1.05085e-06
1.14225e-06
1.23819e-06
1.33855e-06
1.44319e-06
1.55193e-06
1.66458e-06
1.78094e-06
1.90082e-06
2.02405e-06
2.15045e-06
2.27988e-06
2.41217e-06
2.54726e-06
2.68508e-06
2.82559e-06
2.96887e-06
3.11499e-06
3.26405e-06
3.41623e-06
3.57169e-06
3.73067e-06
3.89342e-06
4.06022e-06
4.23137e-06
4.40719e-06
4.58799e-06
4.77408e-06
4.96573e-06
5.16319e-06
5.36663e-06
5.57613e-06
5.79167e-06
6.01306e-06
6.2399e-06
6.47139e-06
6.70683e-06
6.94496e-06
7.18411e-06
7.42214e-06
7.65651e-06
7.88376e-06
8.10482e-06
8.3101e-06
8.49096e-06
8.63994e-06
8.75368e-06
8.85454e-06
8.90858e-06
8.90992e-06
8.85658e-06
8.74549e-06
8.57386e-06
8.34022e-06
8.04481e-06
7.68995e-06
7.28011e-06
6.82194e-06
6.3241e-06
5.79694e-06
5.252e-06
4.70139e-06
4.15708e-06
3.63025e-06
3.13058e-06
2.66582e-06
2.24145e-06
1.86056e-06
1.52398e-06
1.23051e-06
9.77313e-07
7.60249e-07
5.74334e-07
4.14244e-07
2.75141e-07
1.55172e-07
6.12627e-08
1.02872e-08
6.60726e-11
1.4098e-12
2.25774e-10
1.46446e-09
4.11295e-09
7.8709e-09
1.23035e-08
1.71182e-08
2.21487e-08
2.72951e-08
3.24888e-08
3.76756e-08
4.28097e-08
4.78512e-08
5.27672e-08
5.7532e-08
6.21283e-08
6.65487e-08
7.07959e-08
7.48841e-08
7.88391e-08
8.26985e-08
8.65127e-08
9.03446e-08
9.42702e-08
9.8379e-08
1.02774e-07
1.07574e-07
1.12913e-07
1.18939e-07
1.2582e-07
1.3374e-07
1.42904e-07
1.53534e-07
1.65873e-07
1.80182e-07
1.96744e-07
2.15856e-07
2.37832e-07
2.63e-07
2.91696e-07
3.24263e-07
3.61042e-07
4.02372e-07
4.48578e-07
4.99972e-07
5.56844e-07
6.19454e-07
6.88032e-07
7.62774e-07
8.43833e-07
9.31322e-07
1.02531e-06
1.12582e-06
1.23284e-06
1.34631e-06
1.4661e-06
1.59207e-06
1.72403e-06
1.86175e-06
2.00495e-06
2.15334e-06
2.30666e-06
2.46461e-06
2.62693e-06
2.79335e-06
2.96364e-06
3.13762e-06
3.31514e-06
3.49616e-06
3.68058e-06
3.86836e-06
4.05957e-06
4.25437e-06
4.45294e-06
4.65552e-06
4.86242e-06
5.07397e-06
5.29058e-06
5.51267e-06
5.74073e-06
5.97523e-06
6.2167e-06
6.46564e-06
6.72252e-06
6.98779e-06
7.26179e-06
7.54478e-06
7.83686e-06
8.13791e-06
8.44759e-06
8.76519e-06
9.08959e-06
9.41946e-06
9.7528e-06
1.00871e-05
1.0419e-05
1.07444e-05
1.10586e-05
1.13597e-05
1.16395e-05
1.18841e-05
1.20866e-05
1.22345e-05
1.2358e-05
1.24249e-05
1.24166e-05
1.23332e-05
1.21716e-05
1.1929e-05
1.16037e-05
1.11965e-05
1.07105e-05
1.01515e-05
9.52793e-06
8.85087e-06
8.13342e-06
7.39031e-06
6.63715e-06
5.8896e-06
5.16249e-06
4.46904e-06
3.82012e-06
3.22381e-06
2.68509e-06
2.2059e-06
1.78534e-06
1.42006e-06
1.10476e-06
8.3272e-07
5.9664e-07
3.90444e-07
2.13878e-07
8.0509e-08
1.28358e-08
8.03995e-11
1.68864e-12
2.74664e-10
1.84977e-09
5.43841e-09
1.08335e-08
1.74555e-08
2.48168e-08
3.26029e-08
4.06182e-08
4.87296e-08
5.68371e-08
6.48597e-08
7.27294e-08
8.03904e-08
8.7799e-08
9.49256e-08
1.01756e-07
1.08291e-07
1.14552e-07
1.20575e-07
1.26418e-07
1.32155e-07
1.37881e-07
1.4371e-07
1.49777e-07
1.56237e-07
1.63266e-07
1.71062e-07
1.79847e-07
1.89868e-07
2.01395e-07
2.14726e-07
2.30183e-07
2.48117e-07
2.68902e-07
2.92937e-07
3.20643e-07
3.52458e-07
3.88833e-07
4.30226e-07
4.77095e-07
5.29891e-07
5.89049e-07
6.5498e-07
7.28062e-07
8.0863e-07
8.96979e-07
9.93342e-07
1.0979e-06
1.21076e-06
1.33199e-06
1.46157e-06
1.59942e-06
1.7454e-06
1.89933e-06
2.06097e-06
2.23002e-06
2.40617e-06
2.58906e-06
2.77833e-06
2.97357e-06
3.17439e-06
3.38044e-06
3.59138e-06
3.80693e-06
4.02683e-06
4.25092e-06
4.47906e-06
4.71125e-06
4.94746e-06
5.18774e-06
5.43226e-06
5.68127e-06
5.9351e-06
6.19412e-06
6.45879e-06
6.72963e-06
7.0072e-06
7.29216e-06
7.58515e-06
7.8869e-06
8.19809e-06
8.51944e-06
8.85156e-06
9.19501e-06
9.55019e-06
9.91732e-06
1.02964e-05
1.0687e-05
1.10886e-05
1.14997e-05
1.19188e-05
1.23435e-05
1.27708e-05
1.31969e-05
1.36172e-05
1.40261e-05
1.44177e-05
1.47861e-05
1.51209e-05
1.54166e-05
1.56558e-05
1.58203e-05
1.59409e-05
1.60036e-05
1.5968e-05
1.58381e-05
1.56122e-05
1.52878e-05
1.48636e-05
1.43409e-05
1.37236e-05
1.30186e-05
1.22357e-05
1.13875e-05
1.04893e-05
9.55804e-06
8.61205e-06
7.66989e-06
6.74946e-06
5.86703e-06
5.03638e-06
4.2681e-06
3.56926e-06
2.94318e-06
2.38966e-06
1.90523e-06
1.48376e-06
1.1171e-06
7.96356e-07
5.14947e-07
2.75665e-07
1.00198e-07
1.5433e-08
9.51876e-11
1.98303e-12
3.25858e-10
2.25249e-09
6.85502e-09
1.4114e-08
2.33619e-08
3.38952e-08
4.52001e-08
5.69326e-08
6.88576e-08
8.08028e-08
9.26302e-08
1.04227e-07
1.15503e-07
1.26387e-07
1.36829e-07
1.46804e-07
1.56311e-07
1.65373e-07
1.74043e-07
1.82399e-07
1.90548e-07
1.98623e-07
2.06787e-07
2.15229e-07
2.24169e-07
2.33854e-07
2.44563e-07
2.56605e-07
2.70323e-07
2.86091e-07
3.04317e-07
3.25443e-07
3.49942e-07
3.78319e-07
4.11107e-07
4.48859e-07
4.92149e-07
5.4156e-07
5.97675e-07
6.61069e-07
7.32298e-07
8.11883e-07
9.00305e-07
9.97988e-07
1.10529e-06
1.2225e-06
1.34982e-06
1.48737e-06
1.63521e-06
1.79328e-06
1.96146e-06
2.13956e-06
2.3273e-06
2.52435e-06
2.73032e-06
2.94481e-06
3.16734e-06
3.39745e-06
3.63468e-06
3.87851e-06
4.12851e-06
4.38426e-06
4.64539e-06
4.9116e-06
5.18263e-06
5.45834e-06
5.73863e-06
6.02351e-06
6.31304e-06
6.60735e-06
6.90668e-06
7.21141e-06
7.52197e-06
7.83887e-06
8.16274e-06
8.49426e-06
8.83421e-06
9.1834e-06
9.54272e-06
9.91307e-06
1.02953e-05
1.06904e-05
1.10989e-05
1.15214e-05
1.19584e-05
1.24097e-05
1.28751e-05
1.33537e-05
1.38442e-05
1.43446e-05
1.4852e-05
1.53632e-05
1.58737e-05
1.63785e-05
1.68713e-05
1.73453e-05
1.77931e-05
1.82064e-05
1.85749e-05
1.88895e-05
1.91425e-05
1.93038e-05
1.93941e-05
1.9432e-05
1.93524e-05
1.91619e-05
1.88617e-05
1.845e-05
1.79262e-05
1.7292e-05
1.65519e-05
1.57133e-05
1.47868e-05
1.37859e-05
1.27269e-05
1.16284e-05
1.05103e-05
9.39349e-06
8.29803e-06
7.24269e-06
6.24374e-06
5.31412e-06
4.46288e-06
3.69489e-06
3.01082e-06
2.40747e-06
1.8782e-06
1.41383e-06
1.00438e-06
6.43582e-07
3.38586e-07
1.20015e-07
1.80634e-08
1.10329e-10
2.29276e-12
3.79395e-10
2.67147e-09
8.34454e-09
1.76458e-08
2.98937e-08
4.41784e-08
5.97493e-08
7.60647e-08
9.27412e-08
1.09496e-07
1.26109e-07
1.42404e-07
1.58238e-07
1.73501e-07
1.88112e-07
2.02028e-07
2.15239e-07
2.27774e-07
2.39698e-07
2.51117e-07
2.62171e-07
2.73042e-07
2.83948e-07
2.95146e-07
3.06931e-07
3.19636e-07
3.33634e-07
3.49338e-07
3.67201e-07
3.87717e-07
4.11423e-07
4.38891e-07
4.70734e-07
5.07598e-07
5.5016e-07
5.99119e-07
6.55188e-07
7.19083e-07
7.91512e-07
8.73161e-07
9.64678e-07
1.06666e-06
1.17963e-06
1.30405e-06
1.44026e-06
1.58853e-06
1.74901e-06
1.92174e-06
2.10667e-06
2.30363e-06
2.51237e-06
2.73255e-06
2.96376e-06
3.20553e-06
3.45734e-06
3.71865e-06
3.98888e-06
4.26746e-06
4.55383e-06
4.84743e-06
5.14773e-06
5.4543e-06
5.76672e-06
6.08467e-06
6.4079e-06
6.73624e-06
7.06961e-06
7.40805e-06
7.75164e-06
8.10059e-06
8.45521e-06
8.81595e-06
9.18336e-06
9.55811e-06
9.94097e-06
1.03328e-05
1.07346e-05
1.11474e-05
1.15723e-05
1.20103e-05
1.24625e-05
1.29297e-05
1.34128e-05
1.39121e-05
1.44277e-05
1.49591e-05
1.55055e-05
1.60653e-05
1.6636e-05
1.72147e-05
1.77975e-05
1.83794e-05
1.89549e-05
1.95173e-05
2.00595e-05
2.05733e-05
2.10503e-05
2.14811e-05
2.18557e-05
2.21652e-05
2.24009e-05
2.25334e-05
2.25779e-05
2.25698e-05
2.24355e-05
2.21757e-05
2.17969e-05
2.12986e-05
2.06807e-05
1.99452e-05
1.90967e-05
1.81427e-05
1.70937e-05
1.59635e-05
1.47688e-05
1.35288e-05
1.22644e-05
1.09977e-05
9.75044e-06
8.54344e-06
7.39501e-06
6.32014e-06
5.32979e-06
4.43034e-06
3.62352e-06
2.90654e-06
2.27257e-06
1.71173e-06
1.21347e-06
7.72517e-07
4.01326e-07
1.39771e-07
2.07155e-08
1.25741e-10
2.61789e-12
4.35334e-10
3.10662e-09
9.89683e-09
2.13807e-08
3.69359e-08
5.5482e-08
7.60113e-08
9.77428e-08
1.20099e-07
1.42648e-07
1.65054e-07
1.87049e-07
2.08419e-07
2.28996e-07
2.48661e-07
2.67342e-07
2.85016e-07
3.01711e-07
3.17507e-07
3.32534e-07
3.46975e-07
3.61064e-07
3.75084e-07
3.89368e-07
4.043e-07
4.2031e-07
4.37879e-07
4.57537e-07
4.79864e-07
5.05488e-07
5.35084e-07
5.69373e-07
6.09119e-07
6.5512e-07
7.08204e-07
7.69218e-07
8.39019e-07
9.18455e-07
1.00835e-06
1.10951e-06
1.22264e-06
1.34841e-06
1.48739e-06
1.64002e-06
1.80664e-06
1.98747e-06
2.18258e-06
2.39192e-06
2.61531e-06
2.85248e-06
3.10304e-06
3.3665e-06
3.64232e-06
3.9299e-06
4.22859e-06
4.53774e-06
4.85667e-06
5.18471e-06
5.5212e-06
5.86553e-06
6.2171e-06
6.57541e-06
6.93999e-06
7.31046e-06
7.68654e-06
8.06803e-06
8.45482e-06
8.84691e-06
9.24442e-06
9.64758e-06
1.00568e-05
1.04725e-05
1.08955e-05
1.13266e-05
1.17666e-05
1.22168e-05
1.26782e-05
1.31522e-05
1.364e-05
1.41428e-05
1.46616e-05
1.51974e-05
1.57507e-05
1.63215e-05
1.69095e-05
1.75134e-05
1.81315e-05
1.87611e-05
1.93986e-05
2.00385e-05
2.06776e-05
2.13095e-05
2.19274e-05
2.25232e-05
2.30887e-05
2.36149e-05
2.40933e-05
2.45142e-05
2.48686e-05
2.5148e-05
2.53438e-05
2.54356e-05
2.54077e-05
2.53421e-05
2.51507e-05
2.4819e-05
2.43629e-05
2.37839e-05
2.30819e-05
2.2259e-05
2.13196e-05
2.02708e-05
1.91225e-05
1.78881e-05
1.65838e-05
1.52289e-05
1.38446e-05
1.24535e-05
1.10787e-05
9.74243e-06
8.46468e-06
7.26236e-06
6.14819e-06
5.13011e-06
4.21093e-06
3.38844e-06
2.6558e-06
2.00273e-06
1.41841e-06
8.99113e-07
4.63047e-07
1.59355e-07
2.33813e-08
1.4137e-10
2.95865e-12
4.93753e-10
3.55835e-09
1.15073e-08
2.52866e-08
4.43977e-08
6.76378e-08
9.37385e-08
1.21651e-07
1.50564e-07
1.79855e-07
2.09038e-07
2.37725e-07
2.65606e-07
2.9244e-07
3.18049e-07
3.42323e-07
3.65217e-07
3.86754e-07
4.07024e-07
4.26187e-07
4.44468e-07
4.62159e-07
4.79615e-07
4.97255e-07
5.15559e-07
5.3507e-07
5.56387e-07
5.80174e-07
6.07148e-07
6.38086e-07
6.73818e-07
7.15222e-07
7.63222e-07
8.18777e-07
8.82873e-07
9.5651e-07
1.04069e-06
1.13638e-06
1.24455e-06
1.36606e-06
1.50172e-06
1.65224e-06
1.81821e-06
2.00007e-06
2.19813e-06
2.41254e-06
2.64329e-06
2.89023e-06
3.15308e-06
3.43142e-06
3.72473e-06
4.03241e-06
4.35378e-06
4.6881e-06
5.03462e-06
5.39256e-06
5.76114e-06
6.13959e-06
6.52716e-06
6.92311e-06
7.32679e-06
7.73756e-06
8.15488e-06
8.57826e-06
9.00734e-06
9.44182e-06
9.88155e-06
1.03265e-05
1.07767e-05
1.12325e-05
1.16943e-05
1.21627e-05
1.26387e-05
1.31231e-05
1.36172e-05
1.41223e-05
1.46399e-05
1.51713e-05
1.57179e-05
1.62811e-05
1.68617e-05
1.74605e-05
1.80776e-05
1.87125e-05
1.93643e-05
2.00299e-05
2.07043e-05
2.13867e-05
2.20733e-05
2.27589e-05
2.34351e-05
2.40948e-05
2.47302e-05
2.53332e-05
2.58954e-05
2.64084e-05
2.68633e-05
2.72519e-05
2.75648e-05
2.7794e-05
2.79327e-05
2.79717e-05
2.78757e-05
2.77158e-05
2.74804e-05
2.70816e-05
2.65534e-05
2.59025e-05
2.51287e-05
2.42337e-05
2.32217e-05
2.20988e-05
2.08739e-05
1.95592e-05
1.81704e-05
1.67258e-05
1.52464e-05
1.37552e-05
1.22757e-05
1.08312e-05
9.44341e-06
8.13084e-06
6.90798e-06
5.78428e-06
4.76378e-06
3.84493e-06
3.02107e-06
2.28165e-06
1.61586e-06
1.02173e-06
5.23268e-07
1.78709e-07
2.60565e-08
1.57181e-10
3.31546e-12
5.5475e-10
4.02744e-09
1.31749e-08
2.93444e-08
5.22138e-08
8.05062e-08
1.12703e-07
1.47474e-07
1.83738e-07
2.20647e-07
2.5753e-07
2.93849e-07
3.29175e-07
3.63168e-07
3.9558e-07
4.26247e-07
4.55091e-07
4.82124e-07
5.07444e-07
5.31237e-07
5.53772e-07
5.75402e-07
5.96562e-07
6.17763e-07
6.39594e-07
6.62717e-07
6.87867e-07
7.15849e-07
7.47537e-07
7.83866e-07
8.25832e-07
8.74484e-07
9.30916e-07
9.96254e-07
1.07165e-06
1.15825e-06
1.25722e-06
1.36964e-06
1.4966e-06
1.63905e-06
1.79787e-06
1.97382e-06
2.16749e-06
2.37932e-06
2.60957e-06
2.85834e-06
3.12554e-06
3.41091e-06
3.71405e-06
4.03442e-06
4.37138e-06
4.72419e-06
5.09203e-06
5.47407e-06
5.8694e-06
6.27714e-06
6.69636e-06
7.12618e-06
7.5657e-06
8.01406e-06
8.47044e-06
8.93408e-06
9.40425e-06
9.88036e-06
1.03619e-05
1.08484e-05
1.13396e-05
1.18355e-05
1.23361e-05
1.28417e-05
1.3353e-05
1.38706e-05
1.43957e-05
1.49295e-05
1.54734e-05
1.60291e-05
1.65982e-05
1.71824e-05
1.77829e-05
1.84013e-05
1.90377e-05
1.96926e-05
2.03658e-05
2.10543e-05
2.17538e-05
2.24657e-05
2.31883e-05
2.39128e-05
2.46326e-05
2.53412e-05
2.60312e-05
2.66948e-05
2.73239e-05
2.79104e-05
2.84464e-05
2.89238e-05
2.93351e-05
2.96728e-05
2.99301e-05
3.01002e-05
3.01755e-05
3.01492e-05
2.9984e-05
2.97341e-05
2.94268e-05
2.89844e-05
2.83929e-05
2.76801e-05
2.6847e-05
2.5895e-05
2.48275e-05
2.36495e-05
2.23684e-05
2.09952e-05
1.95441e-05
1.80324e-05
1.64803e-05
1.49104e-05
1.33466e-05
1.1813e-05
1.03324e-05
8.92509e-06
7.60725e-06
6.38998e-06
5.27859e-06
4.27239e-06
3.36499e-06
2.54577e-06
1.80402e-06
1.13949e-06
5.81763e-07
1.97818e-07
2.87405e-08
1.73165e-10
3.68886e-12
6.18437e-10
4.51483e-09
1.49007e-08
3.35453e-08
6.03418e-08
9.3981e-08
1.32716e-07
1.74925e-07
2.19236e-07
2.64546e-07
3.09965e-07
3.54778e-07
3.98409e-07
4.40402e-07
4.80416e-07
5.1822e-07
5.53695e-07
5.86832e-07
6.17731e-07
6.46601e-07
6.73755e-07
6.99613e-07
7.2469e-07
7.49598e-07
7.75043e-07
8.01818e-07
8.30805e-07
8.62964e-07
8.99336e-07
9.41029e-07
9.89219e-07
1.04514e-06
1.11005e-06
1.18527e-06
1.27211e-06
1.37188e-06
1.48589e-06
1.61536e-06
1.76148e-06
1.9253e-06
2.10777e-06
2.30967e-06
2.53162e-06
2.77405e-06
3.03717e-06
3.32102e-06
3.62543e-06
3.95003e-06
4.29432e-06
4.65764e-06
5.0392e-06
5.43814e-06
5.85351e-06
6.28431e-06
6.72952e-06
7.18808e-06
7.65892e-06
8.14097e-06
8.63315e-06
9.13441e-06
9.64372e-06
1.01601e-05
1.06826e-05
1.12105e-05
1.1743e-05
1.22795e-05
1.28198e-05
1.33637e-05
1.39112e-05
1.44629e-05
1.50194e-05
1.55818e-05
1.61514e-05
1.67297e-05
1.73187e-05
1.792e-05
1.85358e-05
1.91676e-05
1.98166e-05
2.04843e-05
2.117e-05
2.18717e-05
2.25849e-05
2.33149e-05
2.40615e-05
2.4814e-05
2.55658e-05
2.63117e-05
2.70444e-05
2.77563e-05
2.84397e-05
2.90866e-05
2.96893e-05
3.02402e-05
3.07319e-05
3.11577e-05
3.15111e-05
3.17861e-05
3.19771e-05
3.20789e-05
3.20867e-05
3.19969e-05
3.17748e-05
3.14437e-05
3.10648e-05
3.05531e-05
2.99238e-05
2.91588e-05
2.82778e-05
2.72816e-05
2.61733e-05
2.49565e-05
2.3637e-05
2.22236e-05
2.07293e-05
1.91698e-05
1.75642e-05
1.59343e-05
1.43038e-05
1.26973e-05
1.11389e-05
9.65028e-06
8.24934e-06
6.94895e-06
5.75589e-06
4.67046e-06
3.68677e-06
2.79422e-06
1.98223e-06
1.25211e-06
6.38494e-07
2.16696e-07
3.14356e-08
1.89331e-10
4.07952e-12
6.84946e-10
5.02165e-09
1.66876e-08
3.78876e-08
6.87586e-08
1.07988e-07
1.53629e-07
2.03766e-07
2.56723e-07
3.11112e-07
3.65802e-07
4.19873e-07
4.72578e-07
5.23324e-07
5.71661e-07
6.17277e-07
6.59998e-07
6.99784e-07
7.36732e-07
7.71072e-07
8.0316e-07
8.33479e-07
8.62633e-07
8.91341e-07
9.20432e-07
9.50842e-07
9.83609e-07
1.01986e-06
1.06082e-06
1.10779e-06
1.16212e-06
1.22524e-06
1.29862e-06
1.38374e-06
1.4821e-06
1.59517e-06
1.72441e-06
1.87118e-06
2.03677e-06
2.22233e-06
2.42888e-06
2.65725e-06
2.90805e-06
3.18171e-06
3.4784e-06
3.7981e-06
4.14055e-06
4.5053e-06
4.8917e-06
5.29898e-06
5.72621e-06
6.17238e-06
6.6364e-06
7.11708e-06
7.61323e-06
8.1236e-06
8.64689e-06
9.18182e-06
9.72705e-06
1.02813e-05
1.08432e-05
1.14115e-05
1.19852e-05
1.2563e-05
1.3144e-05
1.37277e-05
1.43136e-05
1.49014e-05
1.54916e-05
1.60845e-05
1.66813e-05
1.72834e-05
1.78923e-05
1.85102e-05
1.9139e-05
1.97811e-05
2.04384e-05
2.11129e-05
2.18044e-05
2.25161e-05
2.32348e-05
2.39722e-05
2.47307e-05
2.54987e-05
2.62744e-05
2.70493e-05
2.78151e-05
2.85663e-05
2.92947e-05
2.99927e-05
3.06525e-05
3.12664e-05
3.18272e-05
3.23284e-05
3.27638e-05
3.31276e-05
3.34149e-05
3.36208e-05
3.37412e-05
3.37721e-05
3.37099e-05
3.35514e-05
3.3274e-05
3.28759e-05
3.2438e-05
3.1876e-05
3.11938e-05
3.03924e-05
2.94687e-05
2.84385e-05
2.73009e-05
2.60584e-05
2.47143e-05
2.32757e-05
2.17538e-05
2.01625e-05
1.85192e-05
1.68448e-05
1.51625e-05
1.34971e-05
1.18734e-05
1.03147e-05
8.84054e-06
7.46575e-06
6.19874e-06
5.04103e-06
3.9874e-06
3.02744e-06
2.1507e-06
1.35974e-06
6.93556e-07
2.35386e-07
3.41475e-08
2.05706e-10
4.48825e-12
7.54424e-10
5.54912e-09
1.85391e-08
4.23746e-08
7.74542e-08
1.22483e-07
1.75342e-07
2.33818e-07
2.95922e-07
3.59968e-07
4.2456e-07
4.88549e-07
5.50998e-07
6.11156e-07
6.68447e-07
7.22465e-07
7.72968e-07
8.19878e-07
8.63282e-07
9.03423e-07
9.40702e-07
9.75667e-07
1.00901e-06
1.04156e-06
1.07429e-06
1.10827e-06
1.14473e-06
1.18495e-06
1.23037e-06
1.28248e-06
1.34285e-06
1.41309e-06
1.49489e-06
1.58991e-06
1.69984e-06
1.82633e-06
1.97098e-06
2.1353e-06
2.32069e-06
2.5284e-06
2.7595e-06
3.01488e-06
3.29517e-06
3.60077e-06
3.93183e-06
4.28826e-06
4.6697e-06
5.0756e-06
5.50521e-06
5.95758e-06
6.43166e-06
6.92625e-06
7.44005e-06
7.97171e-06
8.51979e-06
9.08277e-06
9.65912e-06
1.02472e-05
1.08454e-05
1.14521e-05
1.20656e-05
1.26844e-05
1.33069e-05
1.3932e-05
1.45583e-05
1.51852e-05
1.58123e-05
1.64393e-05
1.70669e-05
1.76959e-05
1.83276e-05
1.89639e-05
1.96071e-05
2.02595e-05
2.09233e-05
2.16013e-05
2.22951e-05
2.30082e-05
2.37288e-05
2.44711e-05
2.52326e-05
2.60093e-05
2.67964e-05
2.75845e-05
2.83776e-05
2.91633e-05
2.99294e-05
3.06717e-05
3.13819e-05
3.20524e-05
3.26758e-05
3.32451e-05
3.37542e-05
3.41974e-05
3.45697e-05
3.48667e-05
3.50847e-05
3.52198e-05
3.52694e-05
3.52305e-05
3.51e-05
3.48746e-05
3.45472e-05
3.4091e-05
3.35801e-05
3.29795e-05
3.22531e-05
3.14358e-05
3.04834e-05
2.94119e-05
2.82528e-05
2.69938e-05
2.56355e-05
2.41829e-05
2.26453e-05
2.10347e-05
1.93667e-05
1.76606e-05
1.59387e-05
1.42258e-05
1.25473e-05
1.09277e-05
9.38849e-06
7.94636e-06
6.61162e-06
5.38728e-06
4.26901e-06
3.24674e-06
2.31018e-06
1.4628e-06
7.47132e-07
2.53949e-07
3.6884e-08
2.22331e-10
4.91595e-12
8.27035e-10
6.0986e-09
2.04599e-08
4.70135e-08
8.643e-08
1.37446e-07
1.97791e-07
2.64952e-07
3.36627e-07
4.10819e-07
4.85846e-07
5.60314e-07
6.33075e-07
7.03206e-07
7.6999e-07
8.32911e-07
8.9165e-07
9.46084e-07
9.9628e-07
1.04249e-06
1.08517e-06
1.12491e-06
1.16251e-06
1.19892e-06
1.23524e-06
1.27271e-06
1.31273e-06
1.3568e-06
1.40654e-06
1.46365e-06
1.52994e-06
1.60724e-06
1.69742e-06
1.80237e-06
1.92396e-06
2.06402e-06
2.22431e-06
2.40648e-06
2.61205e-06
2.84238e-06
3.0986e-06
3.38164e-06
3.69216e-06
4.03053e-06
4.39688e-06
4.79102e-06
5.21254e-06
5.66074e-06
6.13473e-06
6.63343e-06
7.15556e-06
7.69975e-06
8.26446e-06
8.84808e-06
9.44887e-06
1.0065e-05
1.06946e-05
1.13357e-05
1.19863e-05
1.26442e-05
1.33076e-05
1.39744e-05
1.46429e-05
1.53115e-05
1.59789e-05
1.66443e-05
1.73074e-05
1.79683e-05
1.86278e-05
1.92871e-05
1.99483e-05
2.06137e-05
2.12862e-05
2.19685e-05
2.2663e-05
2.33728e-05
2.40979e-05
2.4837e-05
2.55875e-05
2.63695e-05
2.71612e-05
2.79639e-05
2.87721e-05
2.95706e-05
3.0367e-05
3.11553e-05
3.19104e-05
3.2633e-05
3.33149e-05
3.39487e-05
3.45278e-05
3.50463e-05
3.54988e-05
3.58808e-05
3.61885e-05
3.64185e-05
3.65681e-05
3.66344e-05
3.66147e-05
3.65071e-05
3.63099e-05
3.60214e-05
3.56404e-05
3.51383e-05
3.45585e-05
3.39244e-05
3.31622e-05
3.22968e-05
3.13525e-05
3.02672e-05
2.90742e-05
2.77997e-05
2.64339e-05
2.49748e-05
2.343e-05
2.18095e-05
2.01266e-05
1.83988e-05
1.66475e-05
1.48965e-05
1.31718e-05
1.14989e-05
9.90113e-06
8.39726e-06
6.99966e-06
5.71307e-06
4.53433e-06
3.45395e-06
2.46178e-06
1.56192e-06
7.99472e-07
2.7246e-07
3.96549e-08
2.39262e-10
5.36364e-12
9.02958e-10
6.67152e-09
2.24548e-08
5.1814e-08
9.5696e-08
1.52877e-07
2.20947e-07
2.97092e-07
3.787e-07
4.63447e-07
5.49358e-07
6.34776e-07
7.18327e-07
7.989e-07
8.75624e-07
9.47864e-07
1.01521e-06
1.0775e-06
1.13475e-06
1.18725e-06
1.23546e-06
1.28008e-06
1.32197e-06
1.36221e-06
1.40205e-06
1.44292e-06
1.48638e-06
1.53416e-06
1.58808e-06
1.6501e-06
1.72223e-06
1.80654e-06
1.90512e-06