/*--------------------------------*- C++ -*----------------------------------*\
  =========                 |
  \\      /  F ield         | OpenFOAM: The Open Source CFD Toolbox
   \\    /   O peration     | Website:  https://openfoam.org
    \\  /    A nd           | Version:  12
     \\/     M anipulation  |
\*---------------------------------------------------------------------------*/
FoamFile
{
    format      ascii;
    class       surfaceScalarField;
    location    "4.5";
    object      phi;
}
// * * * * * * * * * * * * * * * * * * * * * * * * * * * * * * * * * * * * * //

dimensions      [0 3 -1 0 0 0 0];

internalField   nonuniform List<scalar> 
36180
(
-4.80327e-11
4.96924e-11
-8.24116e-11
3.42971e-11
-5.9859e-11
-2.26452e-11
3.143e-11
-9.13446e-11
1.89867e-10
-1.58467e-10
4.09839e-10
-2.19991e-10
6.83971e-10
-2.74147e-10
1.00424e-09
-3.20277e-10
1.36245e-09
-3.58215e-10
1.75052e-09
-3.88074e-10
2.16065e-09
-4.10133e-10
2.58545e-09
-4.24789e-10
3.01798e-09
-4.3252e-10
3.45186e-09
-4.33874e-10
3.88132e-09
-4.29455e-10
4.30124e-09
-4.19914e-10
4.70717e-09
-4.05931e-10
5.09539e-09
-3.88213e-10
5.46286e-09
-3.67469e-10
5.80726e-09
-3.44406e-10
6.12697e-09
-3.19715e-10
6.42103e-09
-2.9406e-10
6.6891e-09
-2.68064e-10
6.9314e-09
-2.42302e-10
7.1487e-09
-2.17288e-10
7.34218e-09
-1.93475e-10
7.51344e-09
-1.71252e-10
7.66439e-09
-1.50949e-10
7.79722e-09
-1.32825e-10
7.91429e-09
-1.17062e-10
8.01806e-09
-1.03768e-10
8.11103e-09
-9.29703e-11
8.19565e-09
-8.46217e-11
8.27425e-09
-7.85971e-11
8.34895e-09
-7.46944e-11
8.42158e-09
-7.26353e-11
8.49365e-09
-7.20657e-11
8.56621e-09
-7.25585e-11
8.63982e-09
-7.36119e-11
8.71449e-09
-7.46635e-11
8.78961e-09
-7.5128e-11
8.86388e-09
-7.42648e-11
8.93532e-09
-7.14402e-11
9.00114e-09
-6.58204e-11
9.05786e-09
-5.67283e-11
9.10117e-09
-4.33039e-11
9.12598e-09
-2.48127e-11
9.12644e-09
-4.67025e-13
9.09588e-09
3.05601e-11
9.02693e-09
6.89487e-11
8.91141e-09
1.15516e-10
8.7404e-09
1.71009e-10
8.5042e-09
2.36199e-10
8.19233e-09
3.11873e-10
7.79348e-09
3.98845e-10
7.29552e-09
4.97958e-10
6.68541e-09
6.10109e-10
5.94925e-09
7.36163e-10
5.07217e-09
8.77078e-10
4.0384e-09
1.03377e-09
2.83129e-09
1.20711e-09
1.43328e-09
1.39801e-09
-1.73971e-10
1.60725e-09
-2.00939e-09
1.83542e-09
-4.09245e-09
2.08306e-09
-6.44277e-09
2.35032e-09
-9.07984e-09
2.63707e-09
-1.20227e-08
2.94289e-09
-1.52898e-08
3.26704e-09
-1.88981e-08
3.6083e-09
-2.28631e-08
3.96499e-09
-2.7198e-08
4.33495e-09
-3.19135e-08
4.71548e-09
-3.70169e-08
5.10339e-09
-4.25119e-08
5.49496e-09
-4.83978e-08
5.88596e-09
-5.46695e-08
6.27169e-09
-6.13165e-08
6.647e-09
-6.83229e-08
7.00636e-09
-7.56668e-08
7.34392e-09
-8.33204e-08
7.65356e-09
-9.12493e-08
7.92897e-09
-9.94131e-08
8.16374e-09
-1.07764e-07
8.3514e-09
-1.1625e-07
8.48553e-09
-1.2481e-07
8.55977e-09
-1.33378e-07
8.56795e-09
-1.41882e-07
8.50409e-09
-1.50244e-07
8.36253e-09
-1.58382e-07
8.13792e-09
-1.66208e-07
7.82536e-09
-1.73628e-07
7.42049e-09
-1.80548e-07
6.91957e-09
-1.86867e-07
6.31967e-09
-1.92486e-07
5.61878e-09
-1.97301e-07
4.81506e-09
-2.01203e-07
3.90143e-09
-2.04092e-07
2.88947e-09
-2.05898e-07
1.80558e-09
-2.06517e-07
6.19351e-10
-2.0586e-07
-6.57014e-10
-2.03872e-07
-1.98828e-09
-2.00496e-07
-3.37544e-09
-1.95704e-07
-4.79246e-09
-1.89489e-07
-6.21455e-09
-1.81874e-07
-7.61502e-09
-1.72911e-07
-8.96341e-09
-1.62685e-07
-1.02261e-08
-1.51317e-07
-1.13676e-08
-1.38965e-07
-1.23523e-08
-1.25819e-07
-1.31457e-08
-1.12102e-07
-1.37172e-08
-9.80606e-08
-1.40413e-08
-8.39601e-08
-1.41005e-08
-7.00733e-08
-1.38868e-08
-5.66702e-08
-1.34031e-08
-4.40064e-08
-1.26638e-08
-3.23113e-08
-1.16951e-08
-2.1778e-08
-1.05333e-08
-1.25549e-08
-9.22303e-09
-4.74048e-09
-7.81446e-09
1.61946e-09
-6.35994e-09
6.53e-09
-4.91055e-09
1.00426e-08
-3.51255e-09
1.22482e-08
-2.20561e-09
1.32696e-08
-1.02144e-09
1.32514e-08
1.82274e-11
1.23548e-08
8.9661e-10
1.07535e-08
1.60131e-09
8.63408e-09
2.11937e-09
6.21053e-09
2.42355e-09
3.74551e-09
2.46503e-09
1.58193e-09
2.16358e-09
1.94365e-10
1.38756e-09
1.94365e-10
-8.12082e-11
1.30831e-10
-1.11046e-10
6.40113e-11
5.46193e-12
-1.39254e-10
2.98298e-10
-3.84239e-10
7.69414e-10
-6.29613e-10
1.40681e-09
-8.57405e-10
2.1924e-09
-1.05975e-09
3.10537e-09
-1.23327e-09
4.12393e-09
-1.37677e-09
5.22616e-09
-1.49031e-09
6.39071e-09
-1.57467e-09
7.59709e-09
-1.63116e-09
8.82605e-09
-1.66146e-09
1.00597e-08
-1.66755e-09
1.1282e-08
-1.65166e-09
1.24782e-08
-1.61619e-09
1.3636e-08
-1.56369e-09
1.47446e-08
-1.49681e-09
1.57953e-08
-1.4182e-09
1.67815e-08
-1.33054e-09
1.76982e-08
-1.23641e-09
1.85424e-08
-1.13833e-09
1.9313e-08
-1.03864e-09
2.00102e-08
-9.39519e-10
2.06359e-08
-8.42916e-10
2.1193e-08
-7.50558e-10
2.16856e-08
-6.63928e-10
2.2119e-08
-5.84259e-10
2.24987e-08
-5.12514e-10
2.2831e-08
-4.49374e-10
2.31224e-08
-3.95225e-10
2.33796e-08
-3.50154e-10
2.3609e-08
-3.13955e-10
2.38165e-08
-2.86119e-10
2.40076e-08
-2.65839e-10
2.4187e-08
-2.52013e-10
2.43582e-08
-2.43243e-10
2.45235e-08
-2.37848e-10
2.46837e-08
-2.33862e-10
2.48381e-08
-2.29086e-10
2.49842e-08
-2.21177e-10
2.51173e-08
-2.07322e-10
2.52307e-08
-1.84929e-10
2.53158e-08
-1.50853e-10
2.53613e-08
-1.02304e-10
2.5354e-08
-3.59984e-11
2.52782e-08
5.10252e-11
2.51158e-08
1.61916e-10
2.48466e-08
2.99744e-10
2.44481e-08
4.67502e-10
2.38953e-08
6.68264e-10
2.31613e-08
9.05047e-10
2.22166e-08
1.1809e-09
2.10295e-08
1.49892e-09
1.95661e-08
1.86228e-09
1.77898e-08
2.27422e-09
1.56618e-08
2.73813e-09
1.31407e-08
3.25726e-09
1.01827e-08
3.83512e-09
6.74157e-09
4.47488e-09
2.76899e-09
5.17969e-09
-1.78545e-09
5.95245e-09
-6.97431e-09
6.79611e-09
-1.28513e-08
7.71239e-09
-1.947e-08
8.70178e-09
-2.68838e-08
9.76412e-09
-3.51451e-08
1.08984e-08
-4.43042e-08
1.2102e-08
-5.44079e-08
1.33708e-08
-6.54985e-08
1.46989e-08
-7.76121e-08
1.60786e-08
-9.07775e-08
1.75004e-08
-1.05015e-07
1.89526e-08
-1.20333e-07
2.04219e-08
-1.36731e-07
2.18928e-08
-1.54193e-07
2.3348e-08
-1.7269e-07
2.47689e-08
-1.92178e-07
2.6135e-08
-2.12597e-07
2.74248e-08
-2.33869e-07
2.86159e-08
-2.559e-07
2.9685e-08
-2.7858e-07
3.06088e-08
-3.0178e-07
3.13636e-08
-3.25354e-07
3.19261e-08
-3.49142e-07
3.22733e-08
-3.72966e-07
3.23833e-08
-3.96633e-07
3.22348e-08
-4.19936e-07
3.18079e-08
-4.42658e-07
3.1084e-08
-4.64566e-07
3.00463e-08
-4.85421e-07
2.86799e-08
-5.04972e-07
2.69719e-08
-5.22965e-07
2.49124e-08
-5.3914e-07
2.24943e-08
-5.53235e-07
1.97143e-08
-5.64992e-07
1.65715e-08
-5.74152e-07
1.30622e-08
-5.80448e-07
9.18538e-09
-5.83689e-07
5.04673e-09
-5.83669e-07
5.99192e-10
-5.80214e-07
-4.11177e-09
-5.73152e-07
-9.0511e-09
-5.62389e-07
-1.41377e-08
-5.47882e-07
-1.92997e-08
-5.29648e-07
-2.44492e-08
-5.07772e-07
-2.94909e-08
-4.82417e-07
-3.43185e-08
-4.53827e-07
-3.88161e-08
-4.22332e-07
-4.28622e-08
-3.88349e-07
-4.63352e-08
-3.52376e-07
-4.9119e-08
-3.14984e-07
-5.11095e-08
-2.76804e-07
-5.22211e-08
-2.3851e-07
-5.23945e-08
-2.00795e-07
-5.1602e-08
-1.64345e-07
-4.98526e-08
-1.29814e-07
-4.71945e-08
-9.77946e-08
-4.37149e-08
-6.87914e-08
-3.95366e-08
-4.32029e-08
-3.48115e-08
-2.13051e-08
-2.97122e-08
-3.24417e-09
-2.44209e-08
1.09633e-08
-1.9118e-08
2.14216e-08
-1.39708e-08
2.83413e-08
-9.12538e-09
3.20216e-08
-4.70166e-09
3.28309e-08
-7.91074e-10
3.11914e-08
2.53612e-09
2.75696e-08
5.22309e-09
2.24787e-08
7.21027e-09
1.65083e-08
8.39393e-09
1.03589e-08
8.61442e-09
4.89405e-09
7.62842e-09
1.15823e-09
5.12339e-09
1.35259e-09
-7.02884e-11
2.01313e-10
-4.03262e-11
3.40496e-11
2.09231e-10
-3.88873e-10
7.22207e-10
-8.97269e-10
1.50447e-09
-1.41191e-09
2.54119e-09
-1.89415e-09
3.80687e-09
-2.32545e-09
5.27078e-09
-2.69719e-09
6.89992e-09
-3.00592e-09
8.66069e-09
-3.25109e-09
1.052e-08
-3.43395e-09
1.24458e-08
-3.55702e-09
1.44081e-08
-3.6237e-09
1.63787e-08
-3.63811e-09
1.83319e-08
-3.60492e-09
2.0245e-08
-3.52926e-09
2.20979e-08
-3.41654e-09
2.38735e-08
-3.27242e-09
2.55579e-08
-3.10259e-09
2.71401e-08
-2.91278e-09
2.86122e-08
-2.70856e-09
2.99692e-08
-2.49528e-09
3.12086e-08
-2.27802e-09
3.23305e-08
-2.06143e-09
3.33373e-08
-1.84975e-09
3.42335e-08
-1.64669e-09
3.5025e-08
-1.45546e-09
3.57194e-08
-1.27869e-09
3.63254e-08
-1.11844e-09
3.68521e-08
-9.76143e-10
3.73095e-08
-8.526e-10
3.77073e-08
-7.47965e-10
3.80551e-08
-6.61738e-10
3.83617e-08
-5.92762e-10
3.86351e-08
-5.39223e-10
3.88818e-08
-4.98654e-10
3.91065e-08
-4.67944e-10
3.9312e-08
-4.43354e-10
3.94986e-08
-4.20528e-10
3.96642e-08
-3.94592e-10
3.98033e-08
-3.60305e-10
3.99075e-08
-3.11516e-10
3.99649e-08
-2.42386e-10
3.99601e-08
-1.46055e-10
3.9874e-08
-1.61506e-11
3.96835e-08
1.54437e-10
3.93621e-08
3.72466e-10
3.88792e-08
6.44843e-10
3.82005e-08
9.78446e-10
3.72879e-08
1.38007e-09
3.60997e-08
1.85651e-09
3.45901e-08
2.41455e-09
3.27101e-08
3.06097e-09
3.04064e-08
3.80263e-09
2.76221e-08
4.64654e-09
2.42966e-08
5.59974e-09
2.03652e-08
6.66947e-09
1.57597e-08
7.8628e-09
1.04084e-08
9.18646e-09
4.23591e-09
1.06473e-08
-2.83706e-09
1.22527e-08
-1.08926e-08
1.4008e-08
-2.00135e-08
1.5917e-08
-3.02834e-08
1.79824e-08
-4.17864e-08
2.02047e-08
-5.46048e-08
2.25825e-08
-6.88179e-08
2.51115e-08
-8.44999e-08
2.7784e-08
-1.01718e-07
3.05889e-08
-1.20531e-07
3.35114e-08
-1.40984e-07
3.65324e-08
-1.63113e-07
3.96286e-08
-1.86933e-07
4.27728e-08
-2.12444e-07
4.59335e-08
-2.39627e-07
4.9075e-08
-2.68437e-07
5.21584e-08
-2.98809e-07
5.51412e-08
-3.30653e-07
5.79782e-08
-3.6385e-07
6.06223e-08
-3.98259e-07
6.30247e-08
-4.3371e-07
6.51358e-08
-4.70007e-07
6.69059e-08
-5.06929e-07
6.82858e-08
-5.4423e-07
6.92275e-08
-5.81642e-07
6.96848e-08
-6.18872e-07
6.96139e-08
-6.55611e-07
6.89734e-08
-6.91529e-07
6.77254e-08
-7.2628e-07
6.58357e-08
-7.59508e-07
6.32739e-08
-7.90842e-07
6.00143e-08
-8.19907e-07
5.60365e-08
-8.4632e-07
5.13259e-08
-8.69701e-07
4.58746e-08
-8.89669e-07
3.96824e-08
-9.05855e-07
3.27572e-08
-9.17906e-07
2.51135e-08
-9.25432e-07
1.67118e-08
-9.28197e-07
7.81119e-09
-9.25934e-07
-1.66332e-09
-9.18375e-07
-1.1671e-08
-9.05354e-07
-2.20719e-08
-8.86766e-07
-3.27256e-08
-8.62583e-07
-4.34828e-08
-8.32869e-07
-5.41634e-08
-7.97786e-07
-6.45734e-08
-7.57605e-07
-7.44998e-08
-7.1271e-07
-8.37114e-08
-6.63604e-07
-9.19683e-08
-6.10908e-07
-9.90308e-08
-5.55357e-07
-1.04671e-07
-4.97783e-07
-1.08683e-07
-4.39105e-07
-1.10899e-07
-3.80297e-07
-1.11203e-07
-3.22362e-07
-1.09537e-07
-2.66298e-07
-1.05917e-07
-2.13059e-07
-1.00434e-07
-1.63517e-07
-9.32569e-08
-1.18427e-07
-8.46259e-08
-7.8398e-08
-7.48407e-08
-4.38654e-08
-6.42448e-08
-1.50817e-08
-5.32046e-08
7.8882e-09
-4.20879e-08
2.51589e-08
-3.12416e-08
3.70071e-08
-2.09736e-08
4.38501e-08
-1.15446e-08
4.62192e-08
-3.16023e-09
4.47415e-08
4.01389e-09
4.01228e-08
9.84175e-09
3.31527e-08
1.41804e-08
2.47338e-08
1.68129e-08
1.59156e-08
1.74326e-08
7.93838e-09
1.56057e-08
2.20645e-09
1.08553e-08
3.55904e-09
-3.44688e-11
2.35811e-10
9.24874e-11
-9.29468e-11
5.05337e-10
-8.01786e-10
1.25462e-09
-1.6466e-09
2.34886e-09
-2.50618e-09
3.77145e-09
-3.31676e-09
5.49161e-09
-4.04562e-09
7.47094e-09
-4.67654e-09
9.66736e-09
-5.20235e-09
1.20375e-08
-5.62119e-09
1.45381e-08
-5.93454e-09
1.71272e-08
-6.1462e-09
1.97652e-08
-6.26166e-09
2.24148e-08
-6.2877e-09
2.5042e-08
-6.23213e-09
2.76163e-08
-6.10356e-09
3.0111e-08
-5.91118e-09
3.25031e-08
-5.66451e-09
3.47738e-08
-5.37328e-09
3.69082e-08
-5.04718e-09
3.88953e-08
-4.69569e-09
4.07279e-08
-4.32794e-09
4.24025e-08
-3.95254e-09
4.39185e-08
-3.57747e-09
4.52787e-08
-3.20992e-09
4.64883e-08
-2.85627e-09
4.75548e-08
-2.52196e-09
4.84876e-08
-2.21148e-09
4.92975e-08
-1.9283e-09
4.99961e-08
-1.67482e-09
5.05959e-08
-1.45237e-09
5.11091e-08
-1.26112e-09
5.15475e-08
-1.10014e-09
5.19221e-08
-9.67356e-10
5.22424e-08
-8.59532e-10
5.2516e-08
-7.72306e-10
5.27483e-08
-7.00195e-10
5.29416e-08
-6.36622e-10
5.3095e-08
-5.73943e-10
5.3204e-08
-5.03604e-10
5.326e-08
-4.16352e-10
5.325e-08
-3.01518e-10
5.31563e-08
-1.48656e-10
5.29562e-08
5.40469e-11
5.2622e-08
3.18079e-10
5.21208e-08
6.55637e-10
5.14144e-08
1.07881e-09
5.04595e-08
1.59975e-09
4.92073e-08
2.23062e-09
4.76039e-08
2.98345e-09
4.55902e-08
3.87025e-09
4.31018e-08
4.90295e-09
4.00692e-08
6.09352e-09
3.64179e-08
7.45398e-09
3.2068e-08
8.99646e-09
2.69345e-08
1.07332e-08
2.0928e-08
1.26759e-08
1.39541e-08
1.48367e-08
5.91281e-09
1.72277e-08
-3.30038e-09
1.98605e-08
-1.37923e-08
2.27445e-08
-2.56721e-08
2.58878e-08
-3.90512e-08
2.92961e-08
-5.40407e-08
3.29719e-08
-7.07502e-08
3.69142e-08
-8.92854e-08
4.11177e-08
-1.09746e-07
4.55719e-08
-1.32222e-07
5.02606e-08
-1.56794e-07
5.51609e-08
-1.83527e-07
6.02435e-08
-2.12466e-07
6.54718e-08
-2.43639e-07
7.0802e-08
-2.7705e-07
7.61831e-08
-3.12674e-07
8.15574e-08
-3.50459e-07
8.68605e-08
-3.90323e-07
9.20223e-08
-4.3215e-07
9.69678e-08
-4.75789e-07
1.01618e-07
-5.21059e-07
1.05891e-07
-5.67738e-07
1.09705e-07
-6.15577e-07
1.12974e-07
-6.64287e-07
1.15617e-07
-7.13554e-07
1.17552e-07
-7.6303e-07
1.18704e-07
-8.12343e-07
1.18998e-07
-8.61095e-07
1.18366e-07
-9.08867e-07
1.16746e-07
-9.55223e-07
1.14081e-07
-9.99712e-07
1.10324e-07
-1.04187e-06
1.05432e-07
-1.08123e-06
9.93734e-08
-1.11732e-06
9.21231e-08
-1.14966e-06
8.36682e-08
-1.17779e-06
7.40062e-08
-1.20125e-06
6.31476e-08
-1.21961e-06
5.11165e-08
-1.23245e-06
3.79481e-08
-1.2394e-06
2.36599e-08
-1.24009e-06
8.50849e-09
-1.23426e-06
-7.49991e-09
-1.22165e-06
-2.428e-08
-1.20211e-06
-4.1615e-08
-1.17554e-06
-5.9287e-08
-1.14198e-06
-7.70501e-08
-1.10153e-06
-9.4614e-08
-1.05443e-06
-1.11667e-07
-1.00106e-06
-1.2787e-07
-9.41916e-07
-1.42858e-07
-8.7763e-07
-1.56255e-07
-8.08978e-07
-1.67683e-07
-7.36863e-07
-1.76785e-07
-6.62306e-07
-1.8324e-07
-5.86423e-07
-1.86782e-07
-5.10401e-07
-1.87224e-07
-4.35465e-07
-1.84473e-07
-3.62836e-07
-1.78546e-07
-2.93689e-07
-1.6958e-07
-2.29112e-07
-1.57834e-07
-1.70058e-07
-1.4368e-07
-1.17312e-07
-1.27587e-07
-7.14566e-08
-1.101e-07
-3.28547e-08
-9.18066e-08
-1.64012e-09
-7.33025e-08
2.2278e-08
-5.51597e-08
3.91981e-08
-3.78937e-08
4.96059e-08
-2.19524e-08
5.41453e-08
-7.69957e-09
5.35939e-08
4.56529e-09
4.88471e-08
1.45885e-08
4.09219e-08
2.21056e-08
3.09692e-08
2.67656e-08
2.03104e-08
2.80914e-08
1.04626e-08
2.54535e-08
3.1081e-09
1.82098e-08
6.66714e-09
1.57089e-11
2.20269e-10
2.64118e-10
-3.41313e-10
8.61919e-10
-1.39961e-09
1.85978e-09
-2.6445e-09
3.26649e-09
-3.91293e-09
5.06368e-09
-5.11398e-09
7.21646e-09
-6.19842e-09
9.68037e-09
-7.14047e-09
1.24059e-08
-7.92791e-09
1.53415e-08
-8.55675e-09
1.84353e-08
-9.02834e-09
2.16368e-08
-9.34772e-09
2.48978e-08
-9.52266e-09
2.81731e-08
-9.56301e-09
3.14213e-08
-9.48027e-09
3.46049e-08
-9.28718e-09
3.76911e-08
-8.9974e-09
4.06518e-08
-8.62515e-09
4.34634e-08
-8.18495e-09
4.61075e-08
-7.69128e-09
4.85702e-08
-7.15836e-09
5.08421e-08
-6.59986e-09
5.29182e-08
-6.02868e-09
5.47975e-08
-5.45677e-09
5.64826e-08
-4.89494e-09
5.79791e-08
-4.35276e-09
5.92955e-08
-3.83839e-09
6.04426e-08
-3.35853e-09
6.14326e-08
-2.91835e-09
6.22792e-08
-2.5214e-09
6.29964e-08
-2.16954e-09
6.35982e-08
-1.86296e-09
6.40982e-08
-1.60012e-09
6.45086e-08
-1.37772e-09
6.48398e-08
-1.1907e-09
6.50997e-08
-1.03229e-09
6.52935e-08
-8.93976e-10
6.54225e-08
-7.65576e-10
6.54838e-08
-6.3528e-10
6.54702e-08
-4.89948e-10
6.53689e-08
-3.15062e-10
6.51618e-08
-9.44194e-11
6.48247e-08
1.88408e-10
6.43274e-08
5.51325e-10
6.36331e-08
1.01239e-09
6.26985e-08
1.5903e-09
6.14734e-08
2.30388e-09
5.99011e-08
3.17199e-09
5.79183e-08
4.21348e-09
5.54547e-08
5.44707e-09
5.24335e-08
6.89138e-09
4.87716e-08
8.56492e-09
4.43789e-08
1.04862e-08
3.91594e-08
1.26736e-08
3.30103e-08
1.51455e-08
2.58233e-08
1.79202e-08
1.74834e-08
2.10158e-08
7.86956e-09
2.44506e-08
-3.14407e-09
2.82413e-08
-1.56872e-08
3.24036e-08
-2.98933e-08
3.69506e-08
-4.58979e-08
4.18924e-08
-6.38369e-08
4.72351e-08
-8.38445e-08
5.29795e-08
-1.06051e-07
5.91206e-08
-1.30579e-07
6.56461e-08
-1.57543e-07
7.25353e-08
-1.87041e-07
7.97585e-08
-2.19155e-07
8.72758e-08
-2.53949e-07
9.50368e-08
-2.91457e-07
1.0298e-07
-3.31689e-07
1.11034e-07
-3.74621e-07
1.19115e-07
-4.20195e-07
1.27131e-07
-4.68314e-07
1.3498e-07
-5.18843e-07
1.42551e-07
-5.71604e-07
1.4973e-07
-6.2638e-07
1.56394e-07
-6.8291e-07
1.62421e-07
-7.40891e-07
1.67686e-07
-7.99984e-07
1.72067e-07
-8.59811e-07
1.75444e-07
-9.1996e-07
1.77701e-07
-9.79989e-07
1.78732e-07
-1.03943e-06
1.78436e-07
-1.09778e-06
1.76721e-07
-1.15454e-06
1.73507e-07
-1.20919e-06
1.68724e-07
-1.26117e-06
1.62313e-07
-1.30997e-06
1.54227e-07
-1.35503e-06
1.44433e-07
-1.39582e-06
1.32912e-07
-1.43181e-06
1.1966e-07
-1.46249e-06
1.04687e-07
-1.48737e-06
8.80261e-08
-1.50598e-06
6.9726e-08
-1.51789e-06
4.98574e-08
-1.52273e-06
2.85023e-08
-1.52014e-06
5.91419e-09
-1.50983e-06
-1.78094e-08
-1.4916e-06
-4.25077e-08
-1.46533e-06
-6.78889e-08
-1.43096e-06
-9.36487e-08
-1.38858e-06
-1.19436e-07
-1.33835e-06
-1.44843e-07
-1.28059e-06
-1.69428e-07
-1.21574e-06
-1.9272e-07
-1.14438e-06
-2.14212e-07
-1.06726e-06
-2.33382e-07
-9.85231e-07
-2.49707e-07
-8.99325e-07
-2.62692e-07
-8.10676e-07
-2.71889e-07
-7.20531e-07
-2.76927e-07
-6.30217e-07
-2.77538e-07
-5.41105e-07
-2.73585e-07
-4.54572e-07
-2.65078e-07
-3.71956e-07
-2.52196e-07
-2.94506e-07
-2.35284e-07
-2.23336e-07
-2.1485e-07
-1.59381e-07
-1.91542e-07
-1.03359e-07
-1.66122e-07
-5.57464e-08
-1.39419e-07
-1.67627e-08
-1.12286e-07
1.36323e-08
-8.55547e-08
3.57229e-08
-5.99842e-08
5.00229e-08
-3.62524e-08
5.72431e-08
-1.49198e-08
5.82679e-08
3.54053e-09
5.41368e-08
1.87196e-08
4.60413e-08
3.0201e-08
3.53296e-08
3.74773e-08
2.3533e-08
3.98879e-08
1.23834e-08
3.66032e-08
3.80624e-09
2.67869e-08
1.04734e-08
7.42625e-11
1.46049e-10
4.59606e-10
-7.26665e-10
1.25657e-09
-2.19661e-09
2.51089e-09
-3.89885e-09
4.22912e-09
-5.63118e-09
6.39051e-09
-7.27539e-09
8.95653e-09
-8.76446e-09
1.18777e-08
-1.00617e-08
1.50984e-08
-1.11486e-08
1.85601e-08
-1.20184e-08
2.22036e-08
-1.26719e-08
2.5971e-08
-1.31151e-08
2.98067e-08
-1.33584e-08
3.36585e-08
-1.34148e-08
3.74783e-08
-1.33e-08
4.12226e-08
-1.30315e-08
4.48531e-08
-1.26279e-08
4.83367e-08
-1.21088e-08
5.1646e-08
-1.14942e-08
5.47588e-08
-1.08041e-08
5.76585e-08
-1.00581e-08
6.03338e-08
-9.27515e-09
6.27781e-08
-8.47302e-09
6.49896e-08
-7.66824e-09
6.69705e-08
-6.87579e-09
6.87266e-08
-6.10886e-09
7.0267e-08
-5.37874e-09
7.16031e-08
-4.69465e-09
7.27484e-08
-4.06368e-09
7.37176e-08
-3.49061e-09
7.4526e-08
-2.97794e-09
7.51888e-08
-2.52575e-09
7.57204e-08
-2.13168e-09
7.61336e-08
-1.79093e-09
7.64391e-08
-1.49621e-09
7.66446e-08
-1.23778e-09
7.67541e-08
-1.00347e-09
7.67673e-08
-7.78748e-10
7.66788e-08
-5.46823e-10
7.64778e-08
-2.88909e-10
7.61469e-08
1.58439e-11
7.56623e-08
3.90147e-10
7.4993e-08
8.5774e-10
7.41004e-08
1.44391e-09
7.29382e-08
2.17456e-09
7.14522e-08
3.07631e-09
6.958e-08
4.17607e-09
6.72512e-08
5.50083e-09
6.43871e-08
7.07754e-09
6.09012e-08
8.933e-09
5.66987e-08
1.10938e-08
5.16773e-08
1.35863e-08
4.57267e-08
1.64368e-08
3.8729e-08
1.96712e-08
3.05591e-08
2.33154e-08
2.10846e-08
2.73948e-08
1.01659e-08
3.19345e-08
-2.34193e-09
3.69584e-08
-1.65896e-08
4.2489e-08
-3.27318e-08
4.85458e-08
-5.0926e-08
5.51448e-08
-7.13305e-08
6.22969e-08
-9.41022e-08
7.00067e-08
-1.19394e-07
7.82709e-08
-1.4735e-07
8.7077e-08
-1.78105e-07
9.64015e-08
-2.11779e-07
1.06209e-07
-2.48471e-07
1.1645e-07
-2.88257e-07
1.27062e-07
-3.31184e-07
1.37965e-07
-3.7727e-07
1.49065e-07
-4.2649e-07
1.60255e-07
-4.78785e-07
1.7141e-07
-5.34048e-07
1.82394e-07
-5.92127e-07
1.93059e-07
-6.52822e-07
2.03247e-07
-7.15886e-07
2.12793e-07
-7.81021e-07
2.21529e-07
-8.47885e-07
2.29284e-07
-9.16088e-07
2.35889e-07
-9.85201e-07
2.4118e-07
-1.05475e-06
2.44997e-07
-1.12425e-06
2.47194e-07
-1.19315e-06
2.47633e-07
-1.2609e-06
2.46191e-07
-1.32694e-06
2.42759e-07
-1.39067e-06
2.37243e-07
-1.45152e-06
2.29567e-07
-1.50887e-06
2.1967e-07
-1.56216e-06
2.07509e-07
-1.61078e-06
1.9306e-07
-1.65419e-06
1.76317e-07
-1.69182e-06
1.57295e-07
-1.72317e-06
1.3603e-07
-1.74772e-06
1.12582e-07
-1.76504e-06
8.70377e-08
-1.77469e-06
5.95115e-08
-1.77633e-06
3.01481e-08
-1.76964e-06
-7.82205e-10
-1.75435e-06
-3.30949e-08
-1.73032e-06
-6.65405e-08
-1.69746e-06
-1.00752e-07
-1.65577e-06
-1.35333e-07
-1.60538e-06
-1.69828e-07
-1.54652e-06
-2.03709e-07
-1.47954e-06
-2.36407e-07
-1.40494e-06
-2.67314e-07
-1.32337e-06
-2.95782e-07
-1.23561e-06
-3.21141e-07
-1.1426e-06
-3.42724e-07
-1.0454e-06
-3.59891e-07
-9.45225e-07
-3.72064e-07
-8.43394e-07
-3.78757e-07
-7.41317e-07
-3.79615e-07
-6.40459e-07
-3.74444e-07
-5.42299e-07
-3.63238e-07
-4.48291e-07
-3.46204e-07
-3.59808e-07
-3.23767e-07
-2.78094e-07
-2.96564e-07
-2.04216e-07
-2.65421e-07
-1.39019e-07
-2.31319e-07
-8.30949e-08
-1.95343e-07
-3.67607e-08
-1.58621e-07
-5.10828e-11
-1.22264e-07
2.72861e-08
-8.73214e-08
4.5749e-08
-5.47153e-08
5.60816e-08
-2.52524e-08
5.92361e-08
3.86126e-10
5.6356e-08
2.15997e-08
4.87628e-08
3.77942e-08
3.7957e-08
4.82831e-08
2.56336e-08
5.22113e-08
1.36985e-08
4.85383e-08
4.29445e-09
3.61909e-08
1.47678e-08
1.36672e-10
9.49932e-12
6.6753e-10
-1.25747e-09
1.67203e-09
-3.20111e-09
3.18688e-09
-5.41371e-09
5.21408e-09
-7.65841e-09
7.72959e-09
-9.79093e-09
1.06913e-08
-1.17262e-08
1.40452e-08
-1.34156e-08
1.77305e-08
-1.48339e-08
2.16828e-08
-1.59707e-08
2.58366e-08
-1.68257e-08
3.01275e-08
-1.7406e-08
3.44936e-08
-1.77244e-08
3.88763e-08
-1.77976e-08
4.32219e-08
-1.76456e-08
4.74813e-08
-1.72909e-08
5.16114e-08
-1.67579e-08
5.55746e-08
-1.60721e-08
5.93398e-08
-1.52594e-08
6.28817e-08
-1.4346e-08
6.61811e-08
-1.33575e-08
6.92244e-08
-1.23185e-08
7.20038e-08
-1.12524e-08
7.45163e-08
-1.01807e-08
7.67636e-08
-9.12308e-09
7.87514e-08
-8.09667e-09
8.04889e-08
-7.11622e-09
8.1988e-08
-6.19374e-09
8.32627e-08
-5.33837e-09
8.43284e-08
-4.55626e-09
8.52009e-08
-3.85048e-09
8.58961e-08
-3.22089e-09
8.64285e-08
-2.66414e-09
8.68112e-08
-2.17359e-09
8.70543e-08
-1.73929e-09
8.71645e-08
-1.34801e-09
8.71443e-08
-9.83286e-10
8.6991e-08
-6.2549e-10
8.66962e-08
-2.51998e-10
8.62447e-08
1.62599e-10
8.56142e-08
6.46404e-10
8.47744e-08
1.22987e-09
8.3687e-08
1.94515e-09
8.23047e-08
2.82623e-09
8.05711e-08
3.90812e-09
7.84207e-08
5.22671e-09
7.57784e-08
6.81836e-09
7.25597e-08
8.71953e-09
6.86706e-08
1.09667e-08
6.40076e-08
1.3596e-08
5.84582e-08
1.66433e-08
5.19004e-08
2.01441e-08
4.42038e-08
2.41335e-08
3.52288e-08
2.86461e-08
2.48281e-08
3.37162e-08
1.2846e-08
3.93768e-08
-8.7991e-10
4.56604e-08
-1.65185e-08
5.2597e-08
-3.42435e-08
6.02141e-08
-5.42323e-08
6.85345e-08
-7.66633e-08
7.75758e-08
-1.01714e-07
8.73478e-08
-1.29558e-07
9.78509e-08
-1.60362e-07
1.09074e-07
-1.94278e-07
1.20994e-07
-2.31447e-07
1.3357e-07
-2.71983e-07
1.46746e-07
-3.1598e-07
1.60447e-07
-3.63496e-07
1.74578e-07
-4.14555e-07
1.89024e-07
-4.6914e-07
2.0365e-07
-5.27188e-07
2.18303e-07
-5.88587e-07
2.32809e-07
-6.53172e-07
2.46979e-07
-7.20726e-07
2.60612e-07
-7.90975e-07
2.73496e-07
-8.63592e-07
2.8541e-07
-9.38197e-07
2.96134e-07
-1.01436e-06
3.05447e-07
-1.0916e-06
3.13134e-07
-1.16941e-06
3.18988e-07
-1.24723e-06
3.22816e-07
-1.32448e-06
3.24441e-07
-1.40055e-06
3.23703e-07
-1.47482e-06
3.20462e-07
-1.54666e-06
3.14599e-07
-1.61544e-06
3.06018e-07
-1.68052e-06
2.94645e-07
-1.74127e-06
2.80428e-07
-1.7971e-06
2.63338e-07
-1.84741e-06
2.4337e-07
-1.89164e-06
2.20543e-07
-1.92924e-06
1.949e-07
-1.95972e-06
1.66509e-07
-1.98261e-06
1.35469e-07
-1.99748e-06
1.0191e-07
-2.00397e-06
6.5995e-08
-2.00175e-06
2.79304e-08
-1.99055e-06
-1.19821e-08
-1.97017e-06
-5.34752e-08
-1.9405e-06
-9.62125e-08
-1.9015e-06
-1.39752e-07
-1.85322e-06
-1.83606e-07
-1.79583e-06
-2.27218e-07
-1.72959e-06
-2.69949e-07
-1.6549e-06
-3.11103e-07
-1.57227e-06
-3.49941e-07
-1.48237e-06
-3.85679e-07
-1.38601e-06
-4.17502e-07
-1.28414e-06
-4.44596e-07
-1.17785e-06
-4.6618e-07
-1.06837e-06
-4.8154e-07
-9.57059e-07
-4.9007e-07
-8.45359e-07
-4.91315e-07
-7.34791e-07
-4.85012e-07
-6.26902e-07
-4.71127e-07
-5.23227e-07
-4.49879e-07
-4.25236e-07
-4.21758e-07
-3.34283e-07
-3.87517e-07
-2.5155e-07
-3.48153e-07
-1.78004e-07
-3.04865e-07
-1.14353e-07
-2.58993e-07
-6.10202e-08
-2.11953e-07
-1.81251e-08
-1.65159e-07
1.4512e-08
-1.19959e-07
3.73657e-08
-7.7569e-08
5.11779e-08
-3.90647e-08
5.69358e-08
-5.37176e-09
5.58501e-08
2.26854e-08
4.93364e-08
4.43079e-08
3.90112e-08
5.86084e-08
2.66974e-08
6.4525e-08
1.44453e-08
6.07904e-08
4.5867e-09
4.60496e-08
1.93545e-08
2.00146e-10
-1.90614e-10
8.80033e-10
-1.93735e-09
2.09558e-09
-4.41668e-09
3.87162e-09
-7.18977e-09
6.20358e-09
-9.9904e-09
9.06305e-09
-1.26504e-08
1.2404e-08
-1.50672e-08
1.61684e-08
-1.71801e-08
2.02907e-08
-1.89562e-08
2.47014e-08
-2.03813e-08
2.93295e-08
-2.14538e-08
3.4105e-08
-2.21816e-08
3.89605e-08
-2.25799e-08
4.38321e-08
-2.26691e-08
4.86606e-08
-2.24741e-08
5.33924e-08
-2.20227e-08
5.79798e-08
-2.13453e-08
6.23815e-08
-2.04738e-08
6.65628e-08
-1.94407e-08
7.04955e-08
-1.82787e-08
7.41579e-08
-1.70199e-08
7.75346e-08
-1.56953e-08
8.06162e-08
-1.4334e-08
8.33986e-08
-1.29631e-08
8.58827e-08
-1.16072e-08
8.80739e-08
-1.02879e-08
8.99812e-08
-9.02346e-09
9.16164e-08
-7.829e-09
9.29939e-08
-6.71579e-09
9.4129e-08
-5.69138e-09
9.50379e-08
-4.75935e-09
9.57362e-08
-3.91922e-09
9.62385e-08
-3.16639e-09
9.65569e-08
-2.49205e-09
9.67008e-08
-1.88316e-09
9.66753e-08
-1.32248e-09
9.64806e-08
-7.8861e-10
9.61112e-08
-2.56083e-10
9.55548e-08
3.0441e-10
9.47916e-08
9.25811e-10
9.37935e-08
1.64447e-09
9.25237e-08
2.49971e-09
9.09356e-08
3.53325e-09
8.89728e-08
4.789e-09
8.65686e-08
6.31232e-09
8.36456e-08
8.14972e-09
8.01157e-08
1.03483e-08
7.58799e-08
1.29553e-08
7.08286e-08
1.6018e-08
6.48414e-08
1.95832e-08
5.77874e-08
2.36972e-08
4.95256e-08
2.84058e-08
3.9905e-08
3.37541e-08
2.87652e-08
3.9786e-08
1.59367e-08
4.65447e-08
1.24187e-09
5.40717e-08
-1.55041e-08
6.24064e-08
-3.44919e-08
7.15849e-08
-5.59166e-08
8.16388e-08
-7.99753e-08
9.25932e-08
-1.06864e-07
1.04465e-07
-1.36777e-07
1.1726e-07
-1.69898e-07
1.30972e-07
-2.064e-07
1.45577e-07
-2.46442e-07
1.61035e-07
-2.90156e-07
1.77284e-07
-3.37649e-07
1.94239e-07
-3.88994e-07
2.11792e-07
-4.44226e-07
2.29809e-07
-5.03332e-07
2.4813e-07
-5.66251e-07
2.6657e-07
-6.32868e-07
2.8492e-07
-7.03011e-07
3.02951e-07
-7.76445e-07
3.20414e-07
-8.52879e-07
3.37046e-07
-9.31959e-07
3.52575e-07
-1.01327e-06
3.66724e-07
-1.09635e-06
3.79217e-07
-1.18069e-06
3.89782e-07
-1.26572e-06
3.9816e-07
-1.35084e-06
4.04109e-07
-1.43542e-06
4.07404e-07
-1.51883e-06
4.07847e-07
-1.60039e-06
4.05263e-07
-1.67943e-06
3.99506e-07
-1.75529e-06
3.9046e-07
-1.82731e-06
3.78035e-07
-1.89484e-06
3.62172e-07
-1.95725e-06
3.42839e-07
-2.01394e-06
3.20034e-07
-2.06435e-06
2.9378e-07
-2.10794e-06
2.64129e-07
-2.1442e-06
2.3116e-07
-2.17267e-06
1.94983e-07
-2.19294e-06
1.5574e-07
-2.20464e-06
1.13606e-07
-2.20744e-06
6.87975e-08
-2.20109e-06
2.15766e-08
-2.18536e-06
-2.77145e-08
-2.1601e-06
-7.87328e-08
-2.12525e-06
-1.31063e-07
-2.08081e-06
-1.84192e-07
-2.02687e-06
-2.37548e-07
-1.96361e-06
-2.90478e-07
-1.89131e-06
-3.42243e-07
-1.81038e-06
-3.9203e-07
-1.72135e-06
-4.38976e-07
-1.62486e-06
-4.82164e-07
-1.52172e-06
-5.20642e-07
-1.41287e-06
-5.53452e-07
-1.29938e-06
-5.79668e-07
-1.18248e-06
-5.98438e-07
-1.06353e-06
-6.09026e-07
-9.43972e-07
-6.1087e-07
-8.25362e-07
-6.03622e-07
-7.09288e-07
-5.87201e-07
-5.97342e-07
-5.61824e-07
-4.91075e-07
-5.28026e-07
-3.91932e-07
-4.8666e-07
-3.01205e-07
-4.38881e-07
-2.19975e-07
-3.86095e-07
-1.49068e-07
-3.299e-07
-8.90183e-08
-2.72003e-07
-4.00456e-08
-2.14132e-07
-2.04793e-09
-1.57956e-07
2.53948e-08
-1.05012e-07
4.30017e-08
-5.66716e-08
5.17689e-08
-1.41389e-08
5.29437e-08
2.15106e-08
4.80073e-08
4.92443e-08
3.86615e-08
6.79542e-08
2.68296e-08
7.63569e-08
1.46813e-08
7.29387e-08
4.70578e-09
5.60251e-08
2.40603e-08
2.62645e-10
-4.53167e-10
1.09136e-09
-2.76602e-09
2.51777e-09
-5.84307e-09
4.55283e-09
-9.22484e-09
7.18377e-09
-1.26214e-08
1.03768e-08
-1.58434e-08
1.40815e-08
-1.87719e-08
1.82358e-08
-2.13344e-08
2.27697e-08
-2.34902e-08
2.76093e-08
-2.52208e-08
3.26788e-08
-2.65232e-08
3.79033e-08
-2.74061e-08
4.32104e-08
-2.7887e-08
4.85315e-08
-2.79902e-08
5.3803e-08
-2.77455e-08
5.89669e-08
-2.71866e-08
6.39717e-08
-2.63501e-08
6.87726e-08
-2.52747e-08
7.33317e-08
-2.39998e-08
7.76182e-08
-2.25652e-08
8.16082e-08
-2.10099e-08
8.52843e-08
-1.93714e-08
8.86356e-08
-1.76852e-08
9.16568e-08
-1.59843e-08
9.43481e-08
-1.42985e-08
9.6714e-08
-1.26538e-08
9.87633e-08
-1.10727e-08
1.00507e-07
-9.57314e-09
1.0196e-07
-8.16877e-09
1.03137e-07
-6.86847e-09
1.04054e-07
-5.67627e-09
1.04726e-07
-4.59116e-09
1.05167e-07
-3.60705e-09
1.05388e-07
-2.7126e-09
1.05396e-07
-1.89124e-09
1.05194e-07
-1.12116e-09
1.04781e-07
-3.75396e-10
1.04147e-07
3.78087e-10
1.03275e-07
1.17612e-09
1.02141e-07
2.06008e-09
1.0071e-07
3.07557e-09
9.89377e-08
4.27187e-09
9.67696e-08
5.70138e-09
9.41394e-08
7.41914e-09
9.09696e-08
9.48212e-09
8.71707e-08
1.19487e-08
8.2641e-08
1.48779e-08
7.72671e-08
1.83292e-08
7.09233e-08
2.23618e-08
6.34722e-08
2.70343e-08
5.47647e-08
3.24047e-08
4.46406e-08
3.853e-08
3.29288e-08
4.54658e-08
1.94482e-08
5.32666e-08
4.00835e-09
6.19845e-08
-1.35895e-08
7.16695e-08
-3.35511e-08
8.23679e-08
-5.60873e-08
9.4121e-08
-8.14116e-08
1.06963e-07
-1.09738e-07
1.2092e-07
-1.41278e-07
1.36004e-07
-1.76233e-07
1.52216e-07
-2.14797e-07
1.69536e-07
-2.57143e-07
1.87923e-07
-3.03423e-07
2.07315e-07
-3.5376e-07
2.2762e-07
-4.0824e-07
2.48719e-07
-4.66909e-07
2.70461e-07
-5.29764e-07
2.92664e-07
-5.96747e-07
3.15113e-07
-6.67744e-07
3.37566e-07
-7.42576e-07
3.59752e-07
-8.21e-07
3.81375e-07
-9.02708e-07
4.02122e-07
-9.87325e-07
4.21663e-07
-1.07441e-06
4.39663e-07
-1.16347e-06
4.55785e-07
-1.25396e-06
4.69701e-07
-1.34527e-06
4.81092e-07
-1.43677e-06
4.8966e-07
-1.52779e-06
4.95132e-07
-1.61765e-06
4.97264e-07
-1.70565e-06
4.95845e-07
-1.79109e-06
4.90698e-07
-1.87326e-06
4.81684e-07
-1.9515e-06
4.687e-07
-2.02515e-06
4.51677e-07
-2.09356e-06
4.30583e-07
-2.15613e-06
4.05416e-07
-2.21231e-06
3.76211e-07
-2.26156e-06
3.43028e-07
-2.30339e-06
3.0596e-07
-2.33736e-06
2.6513e-07
-2.36307e-06
2.20691e-07
-2.38016e-06
1.72828e-07
-2.38832e-06
1.21766e-07
-2.38729e-06
6.77699e-08
-2.37687e-06
1.11525e-08
-2.35688e-06
-4.77021e-08
-2.32723e-06
-1.08385e-07
-2.28788e-06
-1.70412e-07
-2.23886e-06
-2.33209e-07
-2.18028e-06
-2.96125e-07
-2.11234e-06
-3.58425e-07
-2.0353e-06
-4.19279e-07
-1.94956e-06
-4.77769e-07
-1.85562e-06
-5.32914e-07