/*--------------------------------*- C++ -*----------------------------------*\
  =========                 |
  \\      /  F ield         | OpenFOAM: The Open Source CFD Toolbox
   \\    /   O peration     | Website:  https://openfoam.org
    \\  /    A nd           | Version:  12
     \\/     M anipulation  |
\*---------------------------------------------------------------------------*/
FoamFile
{
    format      ascii;
    class       volVectorField;
    location    "4.5";
    object      U;
}
// * * * * * * * * * * * * * * * * * * * * * * * * * * * * * * * * * * * * * //

dimensions      [0 1 -1 0 0 0 0];

internalField   nonuniform List<vector> 
18225
(
(-3.10125e-06 1.33548e-06 0)
(-1.01877e-05 9.89757e-07 0)
(-1.14929e-05 1.6221e-07 0)
(-4.00183e-06 -7.47005e-07 0)
(1.29357e-05 -1.54778e-06 0)
(3.86733e-05 -2.24661e-06 0)
(7.22593e-05 -2.84601e-06 0)
(0.000112629 -3.34913e-06 0)
(0.000158677 -3.75799e-06 0)
(0.000209298 -4.07578e-06 0)
(0.000263416 -4.30678e-06 0)
(0.00032 -4.45648e-06 0)
(0.000378081 -4.53082e-06 0)
(0.000436757 -4.53655e-06 0)
(0.000495207 -4.48056e-06 0)
(0.000552694 -4.37043e-06 0)
(0.000608571 -4.21371e-06 0)
(0.000662285 -4.01839e-06 0)
(0.000713381 -3.79221e-06 0)
(0.000761497 -3.54312e-06 0)
(0.000806369 -3.27867e-06 0)
(0.000847823 -3.00637e-06 0)
(0.00088577 -2.73307e-06 0)
(0.000920207 -2.46507e-06 0)
(0.000951202 -2.20776e-06 0)
(0.000978888 -1.96585e-06 0)
(0.00100346 -1.74345e-06 0)
(0.00102514 -1.54429e-06 0)
(0.00104423 -1.37148e-06 0)
(0.00106102 -1.22723e-06 0)
(0.00107585 -1.11286e-06 0)
(0.00108906 -1.02885e-06 0)
(0.00110097 -9.74867e-07 0)
(0.00111193 -9.49824e-07 0)
(0.00112221 -9.5185e-07 0)
(0.00113211 -9.78316e-07 0)
(0.00114184 -1.02582e-06 0)
(0.00115159 -1.09025e-06 0)
(0.00116145 -1.16664e-06 0)
(0.00117148 -1.24932e-06 0)
(0.00118163 -1.33346e-06 0)
(0.00119177 -1.41017e-06 0)
(0.00120169 -1.47509e-06 0)
(0.00121107 -1.5182e-06 0)
(0.00121948 -1.53412e-06 0)
(0.00122639 -1.51392e-06 0)
(0.00123118 -1.45095e-06 0)
(0.0012331 -1.33568e-06 0)
(0.00123131 -1.16708e-06 0)
(0.00122486 -9.31273e-07 0)
(0.0012127 -6.22894e-07 0)
(0.00119367 -2.35299e-07 0)
(0.00116653 2.38821e-07 0)
(0.0011299 8.07162e-07 0)
(0.00108233 1.47789e-06 0)
(0.00102222 2.25948e-06 0)
(0.000947874 3.16178e-06 0)
(0.000857481 4.19349e-06 0)
(0.000749095 5.36685e-06 0)
(0.000620649 6.69646e-06 0)
(0.000469948 8.19278e-06 0)
(0.000294686 9.87194e-06 0)
(9.24305e-05 1.17389e-05 0)
(-0.000139339 1.38042e-05 0)
(-0.000403219 1.60824e-05 0)
(-0.000701866 1.85864e-05 0)
(-0.00103793 2.13204e-05 0)
(-0.00141401 2.42879e-05 0)
(-0.00183267 2.74906e-05 0)
(-0.00229629 3.09256e-05 0)
(-0.00280711 3.4586e-05 0)
(-0.00336706 3.84593e-05 0)
(-0.00397777 4.25281e-05 0)
(-0.00464048 4.67686e-05 0)
(-0.00535594 5.11513e-05 0)
(-0.00612438 5.56398e-05 0)
(-0.00694541 6.01915e-05 0)
(-0.00781799 6.47572e-05 0)
(-0.00874034 6.92815e-05 0)
(-0.00970993 7.37031e-05 0)
(-0.0107234 7.79552e-05 0)
(-0.0117766 8.19662e-05 0)
(-0.0128643 8.566e-05 0)
(-0.0139808 8.89573e-05 0)
(-0.0151192 9.17756e-05 0)
(-0.0162719 9.40307e-05 0)
(-0.0174303 9.56366e-05 0)
(-0.0185851 9.65071e-05 0)
(-0.0197261 9.65563e-05 0)
(-0.0208426 9.56992e-05 0)
(-0.0219229 9.38535e-05 0)
(-0.0229549 9.09405e-05 0)
(-0.0239258 8.6887e-05 0)
(-0.0248225 8.16264e-05 0)
(-0.0256313 7.51055e-05 0)
(-0.0263387 6.73023e-05 0)
(-0.0269296 5.78964e-05 0)
(-0.0273915 4.73955e-05 0)
(-0.0277106 3.56573e-05 0)
(-0.0278753 2.20839e-05 0)
(-0.0278764 7.97996e-06 0)
(-0.0276987 -7.33336e-06 0)
(-0.0273376 -2.3758e-05 0)
(-0.0267865 -4.07888e-05 0)
(-0.026043 -5.81467e-05 0)
(-0.0251081 -7.55048e-05 0)
(-0.0239868 -9.2462e-05 0)
(-0.0226882 -0.000108562 0)
(-0.0212264 -0.000123317 0)
(-0.01962 -0.000136223 0)
(-0.0178927 -0.000146795 0)
(-0.0160725 -0.000154589 0)
(-0.0141913 -0.000159237 0)
(-0.0122838 -0.00016048 0)
(-0.0103866 -0.000158201 0)
(-0.00853682 -0.000152436 0)
(-0.0067701 -0.000143392 0)
(-0.00511952 -0.000131441 0)
(-0.00361389 -0.000117096 0)
(-0.00227648 -0.000100982 0)
(-0.00112405 -8.37874e-05 0)
(-0.000166384 -6.62181e-05 0)
(0.0005938 -4.89425e-05 0)
(0.00116049 -3.25423e-05 0)
(0.00154345 -1.74608e-05 0)
(0.00175741 -4.07095e-06 0)
(0.00182055 7.44826e-06 0)
(0.00175366 1.70206e-05 0)
(0.00157956 2.45645e-05 0)
(0.00132208 3.0024e-05 0)
(0.00100812 3.31411e-05 0)
(0.000669117 3.31979e-05 0)
(0.000344935 2.90292e-05 0)
(9.35252e-05 1.74644e-05 0)
(-1.12265e-05 -4.15834e-06 0)
(-5.39038e-06 6.32088e-06 0)
(-1.69133e-05 4.12962e-06 0)
(-1.24083e-05 -3.57581e-06 0)
(1.46729e-05 -1.28857e-05 0)
(6.64367e-05 -2.20904e-05 0)
(0.000141762 -3.05555e-05 0)
(0.000238449 -3.80214e-05 0)
(0.000353794 -4.43895e-05 0)
(0.000484882 -4.96333e-05 0)
(0.00062874 -5.37658e-05 0)
(0.000782431 -5.68236e-05 0)
(0.00094312 -5.88596e-05 0)
(0.00110811 -5.9939e-05 0)
(0.0012749 -6.01367e-05 0)
(0.00144118 -5.95355e-05 0)
(0.00160488 -5.82249e-05 0)
(0.00176416 -5.62989e-05 0)
(0.00191746 -5.38546e-05 0)
(0.00206347 -5.099e-05 0)
(0.00220115 -4.78027e-05 0)
(0.00232972 -4.4388e-05 0)
(0.00244866 -4.08374e-05 0)
(0.00255768 -3.7237e-05 0)
(0.00265673 -3.36662e-05 0)
(0.00274594 -3.01963e-05 0)
(0.00282566 -2.689e-05 0)
(0.00289638 -2.38014e-05 0)
(0.00295871 -2.09757e-05 0)
(0.00301339 -1.84485e-05 0)
(0.00306125 -1.6245e-05 0)
(0.00310314 -1.43796e-05 0)
(0.00313997 -1.28564e-05 0)
(0.00317261 -1.16684e-05 0)
(0.00320191 -1.07982e-05 0)
(0.00322866 -1.02174e-05 0)
(0.00325355 -9.88732e-06 0)
(0.00327712 -9.75851e-06 0)
(0.00329979 -9.77146e-06 0)
(0.00332177 -9.85633e-06 0)
(0.00334307 -9.93503e-06 0)
(0.00336349 -9.92528e-06 0)
(0.00338252 -9.72561e-06 0)
(0.00339943 -9.24494e-06 0)
(0.00341317 -8.37151e-06 0)
(0.00342241 -7.00536e-06 0)
(0.00342549 -5.03141e-06 0)
(0.00342045 -2.34893e-06 0)
(0.00340502 1.16229e-06 0)
(0.00337662 5.59975e-06 0)
(0.00333235 1.10762e-05 0)
(0.00326902 1.76975e-05 0)
(0.00318312 2.55694e-05 0)
(0.00307083 3.47995e-05 0)
(0.00292805 4.54975e-05 0)
(0.00275034 5.77767e-05 0)
(0.00253293 7.17537e-05 0)
(0.00227074 8.75501e-05 0)
(0.00195836 0.00010529 0)
(0.00159002 0.000125103 0)
(0.00115966 0.000147147 0)
(0.000660874 0.00017149 0)
(8.70039e-05 0.000198237 0)
(-0.000568896 0.000227536 0)
(-0.00131407 0.000259488 0)
(-0.0021558 0.00029413 0)
(-0.00310127 0.000331467 0)
(-0.00415768 0.000371487 0)
(-0.00533201 0.00041413 0)
(-0.00663085 0.000459279 0)
(-0.00806026 0.000506759 0)
(-0.00962558 0.000556327 0)
(-0.0113312 0.000607674 0)
(-0.0131806 0.000660421 0)
(-0.0151756 0.000714114 0)
(-0.0173169 0.000768229 0)
(-0.0196034 0.000822175 0)
(-0.022032 0.000875291 0)
(-0.024598 0.000926862 0)
(-0.0272941 0.000976116 0)
(-0.0301113 0.00102224 0)
(-0.0330378 0.00106439 0)
(-0.03606 0.00110169 0)
(-0.0391616 0.00113326 0)
(-0.0423241 0.00115821 0)
(-0.0455267 0.00117567 0)
(-0.0487467 0.00118476 0)
(-0.0519589 0.00118465 0)
(-0.0551365 0.00117453 0)
(-0.0582506 0.00115363 0)
(-0.0612708 0.00112125 0)
(-0.0641653 0.00107674 0)
(-0.0669008 0.00101952 0)
(-0.0694433 0.000949101 0)
(-0.0717578 0.000865125 0)
(-0.0738093 0.000767345 0)
(-0.0755625 0.000655571 0)
(-0.0769805 0.000529355 0)
(-0.0780358 0.000389045 0)
(-0.0786814 0.000236669 0)
(-0.0789042 7.6162e-05 0)
(-0.078678 -9.92641e-05 0)
(-0.0779698 -0.000282822 0)
(-0.0767686 -0.00047301 0)
(-0.0750629 -0.000667002 0)
(-0.0728507 -0.000861429 0)
(-0.0701389 -0.00105265 0)
(-0.0669441 -0.00123654 0)
(-0.0632934 -0.00140856 0)
(-0.0592257 -0.00156393 0)
(-0.0547913 -0.00169785 0)
(-0.0500523 -0.00180571 0)
(-0.0450811 -0.00188336 0)
(-0.0399594 -0.00192741 0)
(-0.0347759 -0.00193548 0)
(-0.0296235 -0.00190648 0)
(-0.0245961 -0.00184078 0)
(-0.0197852 -0.00174032 0)
(-0.0152755 -0.00160856 0)
(-0.0111418 -0.00145039 0)
(-0.00744587 -0.0012718 0)
(-0.00423345 -0.00107956 0)
(-0.00153321 -0.000880751 0)
(0.000643941 -0.000682307 0)
(0.0023042 -0.000490562 0)
(0.00346939 -0.000310986 0)
(0.00417444 -0.000147921 0)
(0.00446494 -4.48461e-06 0)
(0.00439441 0.000116745 0)
(0.0040239 0.000214299 0)
(0.00341768 0.000286006 0)
(0.0026505 0.000328069 0)
(0.00180764 0.000334027 0)
(0.000992567 0.00029336 0)
(0.000342123 0.000190938 0)
(9.83367e-06 3.89116e-05 0)
(-5.41487e-06 1.1433e-05 0)
(-1.3613e-05 4.57712e-06 0)
(3.26539e-06 -1.53453e-05 0)
(5.3925e-05 -3.94084e-05 0)
(0.000141566 -6.36493e-05 0)
(0.000265056 -8.62471e-05 0)
(0.000421416 -0.000106375 0)
(0.000606723 -0.000123668 0)
(0.000816607 -0.000137991 0)
(0.00104653 -0.000149339 0)
(0.00129196 -0.000157783 0)
(0.00154849 -0.000163448 0)
(0.00181191 -0.0001665 0)
(0.00207827 -0.000167133 0)
(0.00234393 -0.000165567 0)
(0.00260562 -0.000162042 0)
(0.00286044 -0.000156813 0)
(0.00310588 -0.00015014 0)
(0.00333985 -0.00014229 0)
(0.00356066 -0.000133529 0)
(0.00376705 -0.000124115 0)
(0.00395814 -0.000114298 0)
(0.00413343 -0.000104312 0)
(0.00429278 -9.43739e-05 0)
(0.00443636 -8.46795e-05 0)
(0.00456464 -7.54011e-05 0)
(0.00467834 -6.66866e-05 0)
(0.00477837 -5.8659e-05 0)
(0.00486585 -5.14141e-05 0)
(0.004942 -4.50193e-05 0)
(0.0050081 -3.95126e-05 0)
(0.00506551 -3.49024e-05 0)
(0.00511554 -3.11673e-05 0)
(0.00515944 -2.82555e-05 0)
(0.00519836 -2.60854e-05 0)
(0.00523327 -2.45455e-05 0)
(0.00526497 -2.34949e-05 0)
(0.00529397 -2.2764e-05 0)
(0.00532048 -2.21548e-05 0)
(0.00534439 -2.14461e-05 0)
(0.00536519 -2.03996e-05 0)
(0.00538196 -1.87363e-05 0)
(0.00539335 -1.61883e-05 0)
(0.00539748 -1.24447e-05 0)
(0.00539206 -7.22731e-06 0)
(0.00537424 -1.96423e-07 0)
(0.00534065 8.94573e-06 0)
(0.00528746 2.05123e-05 0)
(0.00521028 3.48141e-05 0)
(0.00510422 5.21573e-05 0)
(0.00496389 7.28504e-05 0)
(0.0047834 9.71988e-05 0)
(0.00455633 0.00012551 0)
(0.00427579 0.000158097 0)
(0.00393434 0.000195278 0)
(0.00352404 0.000237379 0)
(0.00303644 0.000284734 0)
(0.00246257 0.000337702 0)
(0.00179293 0.00039661 0)
(0.00101766 0.000461651 0)
(0.000126337 0.000533275 0)
(-0.000892083 0.000611804 0)
(-0.00204873 0.000697436 0)
(-0.00335482 0.000790298 0)
(-0.00482173 0.000890451 0)
(-0.00646075 0.000997876 0)
(-0.00828286 0.00111243 0)
(-0.0102985 0.00123384 0)
(-0.0125172 0.00136165 0)
(-0.0149476 0.00149525 0)
(-0.0175969 0.00163383 0)
(-0.0204704 0.00177639 0)
(-0.0235718 0.00192176 0)
(-0.0269022 0.00206854 0)
(-0.0304603 0.00221517 0)
(-0.0342418 0.00235989 0)
(-0.0382394 0.0025008 0)
(-0.0424426 0.00263585 0)
(-0.0468374 0.00276287 0)
(-0.0514063 0.00287961 0)
(-0.0561281 0.00298375 0)
(-0.0609782 0.00307296 0)
(-0.0659285 0.0031449 0)
(-0.0709473 0.00319727 0)
(-0.0759999 0.00322782 0)
(-0.0810484 0.0032344 0)
(-0.086052 0.00321495 0)
(-0.0909676 0.00316756 0)
(-0.0957494 0.00309045 0)
(-0.10035 0.00298203 0)
(-0.10472 0.0028409 0)
(-0.10881 0.00266591 0)
(-0.112567 0.00245615 0)
(-0.11594 0.00221104 0)
(-0.118878 0.00193036 0)
(-0.121331 0.0016142 0)
(-0.123245 0.00126264 0)
(-0.124586 0.000872915 0)
(-0.125276 0.000463752 0)
(-0.125326 1.91295e-05 0)
(-0.124668 -0.000448853 0)
(-0.123283 -0.000938123 0)
(-0.121151 -0.00144108 0)
(-0.118263 -0.00195062 0)
(-0.11462 -0.0024581 0)
(-0.110239 -0.00295418 0)
(-0.105148 -0.00342851 0)
(-0.0993906 -0.00386982 0)
(-0.0930271 -0.00426636 0)
(-0.0861334 -0.00460636 0)
(-0.0788013 -0.00487859 0)
(-0.071137 -0.005073 0)
(-0.0632595 -0.00518133 0)
(-0.0552971 -0.00519782 0)
(-0.0473846 -0.00511975 0)
(-0.039658 -0.00494797 0)
(-0.0322503 -0.00468706 0)
(-0.025286 -0.00434539 0)
(-0.018876 -0.00393479 0)
(-0.0131131 -0.00346996 0)
(-0.00806851 -0.00296765 0)
(-0.00378902 -0.00244562 0)
(-0.000295997 -0.0019215 0)
(0.00241426 -0.00141182 0)
(0.00436879 -0.00093102 0)
(0.00561513 -0.000491156 0)
(0.00621826 -0.000101522 0)
(0.00625624 0.000230731 0)
(0.00582085 0.000499318 0)
(0.00501048 0.000698461 0)
(0.00393999 0.000817596 0)
(0.00273919 0.000841522 0)
(0.00156008 0.000747694 0)
(0.000593325 0.000509775 0)
(4.21818e-05 0.000151949 0)
(-4.53478e-06 1.53825e-05 0)
(-4.34164e-06 -2.11098e-07 0)
(2.97588e-05 -3.72681e-05 0)
(0.000107262 -8.1743e-05 0)
(0.000231915 -0.000126908 0)
(0.000402649 -0.000169361 0)
(0.000615967 -0.000207421 0)
(0.000867036 -0.000240286 0)
(0.00115033 -0.00026762 0)
(0.00146002 -0.000289354 0)
(0.00179021 -0.000305587 0)
(0.00213513 -0.000316529 0)
(0.00248925 -0.000322477 0)
(0.00284735 -0.000323789 0)
(0.00320461 -0.000320878 0)
(0.00355667 -0.000314194 0)
(0.00389966 -0.000304216 0)
(0.00423021 -0.000291442 0)
(0.00454552 -0.000276378 0)
(0.00484329 -0.000259528 0)
(0.0051218 -0.000241385 0)
(0.00537982 -0.000222424 0)
(0.00561662 -0.000203093 0)
(0.00583195 -0.000183806 0)
(0.00602597 -0.000164937 0)
(0.00619921 -0.000146815 0)
(0.00635257 -0.000129725 0)
(0.00648719 -0.0001139 0)
(0.00660444 -9.95203e-05 0)
(0.00670587 -8.67133e-05 0)
(0.00679311 -7.55486e-05 0)
(0.00686783 -6.60383e-05 0)
(0.00693169 -5.81367e-05 0)
(0.00698623 -5.17393e-05 0)
(0.00703285 -4.66829e-05 0)
(0.00707273 -4.27459e-05 0)
(0.00710676 -3.96495e-05 0)
(0.00713546 -3.70588e-05 0)
(0.00715896 -3.4584e-05 0)
(0.0071769 -3.17893e-05 0)
(0.00718842 -2.82007e-05 0)
(0.00719204 -2.32737e-05 0)
(0.00718574 -1.64904e-05 0)
(0.00716676 -7.22683e-06 0)
(0.00713172 5.09292e-06 0)
(0.00707653 2.10905e-05 0)
(0.0069964 4.13791e-05 0)
(0.00688583 6.65779e-05 0)
(0.00673859 9.73045e-05 0)
(0.00654775 0.000134169 0)
(0.00630568 0.000177782 0)
(0.00600405 0.000228751 0)
(0.00563382 0.000287684 0)
(0.00518527 0.000355197 0)
(0.00464796 0.000431913 0)
(0.00401078 0.000518465 0)
(0.00326194 0.000615527 0)
(0.002389 0.000723589 0)
(0.00137897 0.0008433 0)
(0.000217834 0.000975446 0)
(-0.00110863 0.0011205 0)
(-0.00261502 0.00127887 0)
(-0.00431627 0.00145091 0)
(-0.00622745 0.00163683 0)
(-0.00836354 0.00183664 0)
(-0.0107391 0.00205017 0)
(-0.0133682 0.00227698 0)
(-0.0162636 0.00251632 0)
(-0.0194371 0.00276715 0)
(-0.0228983 0.00302807 0)
(-0.026655 0.00329732 0)
(-0.0307122 0.00357277 0)
(-0.0350721 0.0038519 0)
(-0.0397333 0.00413185 0)
(-0.0446909 0.00440941 0)
(-0.0499358 0.00468103 0)
(-0.0554545 0.0049429 0)
(-0.0612293 0.005191 0)
(-0.0672376 0.00542109 0)
(-0.0734523 0.00562885 0)
(-0.0798415 0.00580989 0)
(-0.0863688 0.00595984 0)
(-0.0929936 0.00607439 0)
(-0.0996709 0.00614938 0)
(-0.106352 0.00618079 0)
(-0.112985 0.00616487 0)
(-0.119515 0.0060981 0)
(-0.125884 0.00597728 0)
(-0.132031 0.00579955 0)
(-0.137895 0.00556244 0)
(-0.143413 0.00526387 0)
(-0.148521 0.00490225 0)
(-0.153156 0.00447652 0)
(-0.157253 0.00398621 0)
(-0.16075 0.00343152 0)
(-0.163587 0.00281338 0)
(-0.165704 0.00213325 0)
(-0.167055 0.00139081 0)
(-0.167576 0.000601058 0)
(-0.167241 -0.000235408 0)
(-0.166001 -0.00111621 0)
(-0.163834 -0.00202957 0)
(-0.160722 -0.00296339 0)
(-0.156661 -0.00390457 0)
(-0.151658 -0.00483749 0)
(-0.145739 -0.00574534 0)
(-0.138943 -0.00660973 0)
(-0.131329 -0.00741083 0)
(-0.122974 -0.00812804 0)
(-0.113973 -0.00874083 0)
(-0.10444 -0.00922964 0)
(-0.0945049 -0.00957695 0)
(-0.0843126 -0.00976835 0)
(-0.0740198 -0.0097937 0)
(-0.0637902 -0.0096481 0)
(-0.0537903 -0.00933274 0)
(-0.0441833 -0.00885533 0)
(-0.0351232 -0.00823018 0)
(-0.0267493 -0.00747776 0)
(-0.0191799 -0.00662375 0)
(-0.0125082 -0.00569769 0)
(-0.00679865 -0.00473123 0)
(-0.00208479 -0.0037563 0)
(0.00163074 -0.00280322 0)
(0.00437476 -0.00189903 0)
(0.00620102 -0.00106696 0)
(0.0071867 -0.000325493 0)
(0.0074282 0.000310317 0)
(0.00703924 0.000828025 0)
(0.00614794 0.00121428 0)
(0.00490038 0.00145044 0)
(0.00346221 0.00151036 0)
(0.00202209 0.00135835 0)
(0.000810433 0.000957211 0)
(7.16287e-05 0.000333197 0)
(-3.29821e-06 1.62389e-05 0)
(8.49042e-06 -1.25319e-05 0)
(6.32092e-05 -7.10883e-05 0)
(0.000169983 -0.000140576 0)
(0.000332532 -0.000211376 0)
(0.000549751 -0.000278289 0)
(0.00081774 -0.000338575 0)
(0.00113096 -0.000390847 0)
(0.00148294 -0.000434468 0)
(0.0018668 -0.000469255 0)
(0.0022755 -0.00049531 0)
(0.00270209 -0.000512932 0)
(0.00313987 -0.000522566 0)
(0.00358253 -0.000524768 0)
(0.00402418 -0.000520181 0)
(0.0044595 -0.000509516 0)
(0.00488374 -0.000493532 0)
(0.00529277 -0.000473018 0)
(0.0056831 -0.000448781 0)
(0.00605191 -0.000421623 0)
(0.00639701 -0.000392332 0)
(0.00671684 -0.000361664 0)
(0.00701043 -0.000330334 0)
(0.0072774 -0.000299003 0)
(0.00751786 -0.000268271 0)
(0.00773237 -0.000238665 0)
(0.00792193 -0.000210638 0)
(0.00808783 -0.000184561 0)
(0.00823165 -0.000160723 0)
(0.00835517 -0.000139321 0)
(0.00846025 -0.000120462 0)
(0.00854883 -0.00010416 0)
(0.00862277 -9.03342e-05 0)
(0.00868384 -7.88078e-05 0)
(0.00873359 -6.93086e-05 0)
(0.00877328 -6.14692e-05 0)
(0.00880381 -5.48282e-05 0)
(0.00882562 -4.8833e-05 0)
(0.00883865 -4.28415e-05 0)
(0.0088422 -3.61335e-05 0)
(0.00883498 -2.79414e-05 0)
(0.00881488 -1.73586e-05 0)
(0.00877907 -3.50266e-06 0)
(0.00872389 1.46008e-05 0)
(0.00864481 3.79296e-05 0)
(0.00853644 6.75031e-05 0)
(0.00839246 0.00010434 0)
(0.00820568 0.000149464 0)
(0.00796797 0.000203897 0)
(0.00767032 0.000268652 0)
(0.0073028 0.000344742 0)
(0.00685462 0.000433169 0)
(0.00631408 0.000534939 0)
(0.00566861 0.000651061 0)
(0.0049048 0.00078256 0)
(0.00400836 0.000930429 0)
(0.00296432 0.00109557 0)
(0.0017566 0.00127918 0)
(0.000368537 0.00148219 0)
(-0.00121709 0.00170542 0)
(-0.00301813 0.00194968 0)
(-0.00505278 0.00221561 0)
(-0.00733944 0.00250362 0)
(-0.0098964 0.00281388 0)
(-0.0127416 0.00314623 0)
(-0.0158923 0.00350013 0)
(-0.0193644 0.00387461 0)
(-0.0231725 0.0042682 0)
(-0.027329 0.0046789 0)
(-0.0318438 0.00510413 0)
(-0.0367235 0.00554072 0)
(-0.0419713 0.00598488 0)
(-0.0475864 0.00643226 0)
(-0.0535633 0.0068779 0)
(-0.0598916 0.00731636 0)
(-0.0665558 0.00774169 0)
(-0.0735348 0.00814759 0)
(-0.0808018 0.00852744 0)
(-0.0883246 0.0088744 0)
(-0.0960651 0.00918158 0)
(-0.10398 0.00944207 0)
(-0.11202 0.00964906 0)
(-0.120133 0.00979601 0)
(-0.128261 0.00987663 0)
(-0.136341 0.00988505 0)
(-0.144309 0.00981584 0)
(-0.152097 0.00966408 0)
(-0.159634 0.00942542 0)
(-0.16685 0.00909611 0)
(-0.173671 0.00867309 0)
(-0.180024 0.00815396 0)
(-0.185836 0.00753713 0)
(-0.191036 0.00682184 0)
(-0.195553 0.00600827 0)
(-0.199319 0.00509763 0)
(-0.202269 0.00409228 0)
(-0.204342 0.00299561 0)
(-0.205485 0.00181093 0)
(-0.205646 0.000554821 0)
(-0.204783 -0.000768322 0)
(-0.202861 -0.00215128 0)
(-0.19986 -0.00357671 0)
(-0.195766 -0.00502708 0)
(-0.190581 -0.00648235 0)
(-0.184321 -0.007919 0)
(-0.177019 -0.00931177 0)
(-0.168725 -0.0106333 0)
(-0.159509 -0.0118544 0)
(-0.14946 -0.0129447 0)
(-0.138686 -0.013874 0)
(-0.127316 -0.0146136 0)
(-0.115494 -0.0151376 0)
(-0.103383 -0.0154247 0)
(-0.0911581 -0.0154598 0)
(-0.0790018 -0.0152351 0)
(-0.0671012 -0.0147518 0)
(-0.055641 -0.0140207 0)
(-0.0447974 -0.0130621 0)
(-0.0347314 -0.0119059 0)
(-0.0255827 -0.0105896 0)
(-0.0174639 -0.00915718 0)
(-0.0104564 -0.0076561 0)
(-0.00460761 -0.0061349 0)
(7.06696e-05 -0.0046404 0)
(0.00360069 -0.00321506 0)
(0.00603707 -0.00189624 0)
(0.00746348 -0.000714481 0)
(0.00798816 0.000304762 0)
(0.00774153 0.00113974 0)
(0.00687404 0.00176797 0)
(0.00555663 0.00216082 0)
(0.00398301 0.00228014 0)
(0.00236992 0.00207688 0)
(0.000979623 0.00150189 0)
(9.45084e-05 0.000569539 0)
(-1.85933e-06 1.3309e-05 0)
(2.34527e-05 -3.37133e-05 0)
(0.000100992 -0.000117974 0)
(0.000238658 -0.000216498 0)
(0.00043961 -0.000316894 0)
(0.000702543 -0.000412092 0)
(0.00102316 -0.000498181 0)
(0.00139533 -0.00057307 0)
(0.00181184 -0.000635741 0)
(0.00226487 -0.000685839 0)
(0.00274644 -0.000723443 0)
(0.00324859 -0.000748934 0)
(0.00376361 -0.000762914 0)
(0.0042842 -0.000766159 0)
(0.00480357 -0.000759577 0)
(0.00531552 -0.000744178 0)
(0.00581452 -0.000721044 0)
(0.00629574 -0.000691308 0)
(0.00675509 -0.000656122 0)
(0.00718922 -0.00061664 0)
(0.00759554 -0.000573992 0)
(0.00797216 -0.000529267 0)
(0.00831787 -0.000483493 0)
(0.00863214 -0.000437621 0)
(0.00891499 -0.000392512 0)
(0.00916698 -0.000348928 0)
(0.00938915 -0.000307519 0)
(0.00958289 -0.000268819 0)
(0.00974992 -0.000233236 0)
(0.00989215 -0.000201052 0)
(0.0100116 -0.000172412 0)
(0.0101104 -0.000147328 0)
(0.0101906 -0.00012567 0)
(0.010254 -0.000107172 0)
(0.0103022 -9.14239e-05 0)
(0.0103365 -7.78764e-05 0)
(0.0103577 -6.58424e-05 0)
(0.0103661 -5.45005e-05 0)
(0.0103613 -4.28989e-05 0)
(0.0103422 -2.99825e-05 0)
(0.010307 -1.45623e-05 0)
(0.0102529 4.64464e-06 0)
(0.0101762 2.89786e-05 0)
(0.0100722 5.98745e-05 0)
(0.0099352 9.87942e-05 0)
(0.00975842 0.000147245 0)
(0.00953398 0.000206747 0)
(0.00925293 0.000278823 0)
(0.00890521 0.000364998 0)
(0.00847965 0.000466783 0)
(0.00796401 0.000585682 0)
(0.007345 0.00072319 0)
(0.00660824 0.000880794 0)
(0.00573834 0.00105998 0)
(0.00471888 0.0012622 0)
(0.00353248 0.00148894 0)
(0.00216073 0.00174169 0)
(0.000584448 0.0020218 0)
(-0.0012164 0.00233061 0)
(-0.00326245 0.00266932 0)
(-0.00557483 0.00303895 0)
(-0.00817493 0.00344021 0)
(-0.0110841 0.00387352 0)
(-0.0143233 0.00433884 0)
(-0.0179129 0.00483564 0)
(-0.0218717 0.0053628 0)
(-0.026217 0.0059185 0)
(-0.0309637 0.0065002 0)
(-0.0361239 0.00710453 0)
(-0.0417061 0.00772725 0)
(-0.0477147 0.00836328 0)
(-0.0541494 0.00900665 0)
(-0.0610046 0.00965054 0)
(-0.0682693 0.0102874 0)
(-0.0759259 0.0109088 0)
(-0.0839509 0.011506 0)
(-0.092314 0.0120695 0)
(-0.100978 0.0125898 0)
(-0.109901 0.0130568 0)
(-0.119032 0.0134608 0)
(-0.128316 0.013792 0)
(-0.137693 0.0140412 0)
(-0.147096 0.0141993 0)
(-0.156456 0.014258 0)
(-0.165699 0.0142098 0)
(-0.174749 0.0140476 0)
(-0.183529 0.0137656 0)
(-0.191958 0.0133586 0)
(-0.199956 0.0128224 0)
(-0.207444 0.0121539 0)
(-0.214342 0.0113509 0)
(-0.220572 0.0104124 0)
(-0.22606 0.0093386 0)
(-0.230733 0.008131 0)
(-0.234522 0.00679247 0)
(-0.237362 0.00532749 0)
(-0.239194 0.00374221 0)
(-0.239968 0.0020442 0)
(-0.239636 0.000250995 0)
(-0.238159 -0.00162783 0)
(-0.235508 -0.00357866 0)
(-0.231668 -0.00557918 0)
(-0.226634 -0.00760578 0)
(-0.220412 -0.00963121 0)
(-0.213027 -0.0116238 0)
(-0.204518 -0.0135495 0)
(-0.194943 -0.0153718 0)
(-0.184378 -0.0170517 0)
(-0.17292 -0.0185489 0)
(-0.160684 -0.0198233 0)
(-0.147807 -0.0208366 0)
(-0.134443 -0.0215544 0)
(-0.120763 -0.0219477 0)
(-0.106952 -0.0219957 0)
(-0.0932052 -0.0216874 0)
(-0.0797231 -0.0210232 0)
(-0.0667051 -0.0200164 0)
(-0.0543435 -0.0186931 0)
(-0.0428166 -0.017092 0)
(-0.032282 -0.015263 0)
(-0.0228699 -0.013265 0)
(-0.0146785 -0.0111624 0)
(-0.00776957 -0.00902172 0)
(-0.00216664 -0.00690826 0)
(0.00214462 -0.00488252 0)
(0.0052155 -0.002998 0)
(0.00713132 -0.00130023 0)
(0.008007 0.000172434 0)
(0.00798442 0.00138652 0)
(0.00723046 0.00230822 0)
(0.00593507 0.00289776 0)
(0.0043137 0.00310414 0)
(0.00260517 0.0028645 0)
(0.00109838 0.00211521 0)
(0.000110484 0.000846001 0)
(-3.74519e-07 6.249e-06 0)
(3.94481e-05 -6.45267e-05 0)
(0.00014111 -0.000178674 0)
(0.000310617 -0.000309919 0)
(0.000550127 -0.000443361 0)
(0.000857932 -0.000570109 0)
(0.0012293 -0.000685028 0)
(0.00165756 -0.00078525 0)
(0.00213483 -0.000869308 0)
(0.00265256 -0.000936627 0)
(0.0032019 -0.000987236 0)
(0.00377404 -0.00102158 0)
(0.00436041 -0.00104044 0)
(0.00495285 -0.00104481 0)
(0.00554374 -0.0010359 0)
(0.00612612 -0.00101505 0)
(0.00669377 -0.000983691 0)
(0.00724122 -0.000943351 0)
(0.00776384 -0.000895568 0)
(0.00825782 -0.00084189 0)
(0.00872015 -0.000783834 0)
(0.00914864 -0.00072286 0)
(0.00954186 -0.000660348 0)
(0.00989908 -0.000597579 0)
(0.0102202 -0.000535708 0)
(0.0105059 -0.000475758 0)
(0.010757 -0.000418602 0)
(0.010975 -0.000364952 0)
(0.0111617 -0.000315354 0)
(0.0113192 -0.000270176 0)
(0.0114495 -0.000229606 0)
(0.0115548 -0.000193644 0)
(0.0116372 -0.000162102 0)
(0.0116986 -0.000134598 0)
(0.0117405 -0.000110558 0)
(0.0117642 -8.92162e-05 0)
(0.0117703 -6.96165e-05 0)
(0.0117588 -5.06183e-05 0)
(0.011729 -3.09063e-05 0)
(0.0116792 -9.00321e-06 0)
(0.0116071 1.67251e-05 0)
(0.011509 4.80535e-05 0)
(0.0113804 8.68498e-05 0)
(0.0112154 0.000135093 0)
(0.0110071 0.000194817 0)
(0.0107474 0.00026811 0)
(0.0104265 0.000357084 0)
(0.0100339 0.000463859 0)
(0.0095575 0.000590551 0)
(0.00898389 0.000739264 0)
(0.00829851 0.000912086 0)
(0.00748554 0.00111108 0)
(0.00652793 0.00133831 0)
(0.00540745 0.0015958 0)
(0.00410471 0.00188556 0)
(0.00259925 0.00220956 0)
(0.000869559 0.00256973 0)
(-0.00110675 0.00296791 0)
(-0.00335287 0.00340578 0)
(-0.00589253 0.0038848 0)
(-0.00874984 0.00440612 0)
(-0.0119489 0.00497048 0)
(-0.0155136 0.00557811 0)
(-0.0194669 0.0062286 0)
(-0.0238306 0.00692078 0)
(-0.0286246 0.00765263 0)
(-0.0338662 0.00842114 0)
(-0.0395696 0.00922225 0)
(-0.0457454 0.0100507 0)
(-0.0523992 0.0109002 0)
(-0.0595316 0.0117631 0)
(-0.0671375 0.0126307 0)
(-0.0752049 0.0134931 0)
(-0.0837155 0.0143396 0)
(-0.0926433 0.0151583 0)
(-0.101955 0.0159369 0)
(-0.111611 0.0166626 0)
(-0.121562 0.0173221 0)
(-0.131755 0.0179024 0)
(-0.142127 0.0183905 0)
(-0.152611 0.0187737 0)
(-0.163135 0.0190402 0)
(-0.173622 0.0191788 0)
(-0.183992 0.0191795 0)
(-0.194161 0.0190331 0)
(-0.204045 0.0187319 0)
(-0.213558 0.0182693 0)
(-0.222614 0.01764 0)
(-0.231129 0.0168399 0)
(-0.239019 0.0158666 0)
(-0.246202 0.0147189 0)
(-0.252602 0.0133969 0)
(-0.258143 0.0119026 0)
(-0.262754 0.0102393 0)
(-0.266371 0.00841222 0)
(-0.268932 0.0064286 0)
(-0.270385 0.00429783 0)
(-0.270682 0.00203169 0)
(-0.269784 -0.000350606 0)
(-0.267657 -0.00283376 0)
(-0.26428 -0.00539793 0)
(-0.259644 -0.00801576 0)
(-0.253749 -0.0106574 0)
(-0.246609 -0.0132885 0)
(-0.238252 -0.0158696 0)
(-0.228723 -0.0183578 0)
(-0.218084 -0.0207077 0)
(-0.206414 -0.0228708 0)
(-0.193813 -0.024797 0)
(-0.180398 -0.0264361 0)
(-0.166309 -0.0277403 0)
(-0.151702 -0.028666 0)
(-0.136753 -0.0291765 0)
(-0.121651 -0.0292447 0)
(-0.106597 -0.0288552 0)
(-0.0918005 -0.0280072 0)
(-0.0774703 -0.0267152 0)
(-0.0638109 -0.0250104 0)
(-0.0510148 -0.0229398 0)
(-0.0392547 -0.0205653 0)
(-0.0286774 -0.0179605 0)
(-0.019397 -0.0152071 0)
(-0.0114908 -0.012391 0)
(-0.00499556 -0.0095971 0)
(9.26546e-05 -0.00690579 0)
(0.00381852 -0.00438894 0)
(0.006265 -0.00210946 0)
(0.00754953 -0.000121035 0)
(0.00782107 0.00152869 0)
(0.00725737 0.00279332 0)
(0.00606307 0.00361991 0)
(0.00447014 0.00394408 0)
(0.00273512 0.00368823 0)
(0.00116937 0.00277114 0)
(0.000120237 0.00114854 0)
(1.08883e-06 -5.11435e-06 0)
(5.57801e-05 -0.000105361 0)
(0.000182138 -0.000253572 0)
(0.000383855 -0.000420999 0)
(0.000661734 -0.000590567 0)
(0.00101346 -0.000751687 0)
(0.00143378 -0.00089801 0)
(0.0019155 -0.00102585 0)
(0.00245014 -0.00113326 0)
(0.00302849 -0.00121939 0)
(0.00364098 -0.0012842 0)
(0.00427804 -0.0013282 0)
(0.00493035 -0.00135232 0)
(0.00558899 -0.00135783 0)
(0.00624564 -0.00134622 0)
(0.00689267 -0.00131919 0)
(0.00752321 -0.00127859 0)
(0.00813125 -0.00122634 0)
(0.00871166 -0.00116442 0)
(0.00926019 -0.00109479 0)
(0.00977349 -0.0010194 0)
(0.0102491 -0.000940114 0)
(0.0106852 -0.000858703 0)
(0.0110811 -0.000776802 0)
(0.0114365 -0.000695891 0)
(0.0117518 -0.000617277 0)
(0.0120281 -0.000542074 0)
(0.0122668 -0.00047119 0)
(0.0124696 -0.000405315 0)
(0.0126387 -0.00034491 0)
(0.0127761 -0.0002902 0)
(0.0128841 -0.000241168 0)
(0.0129647 -0.000197549 0)
(0.0130198 -0.000158827 0)
(0.0130507 -0.000124235 0)
(0.0130586 -9.27526e-05 0)
(0.0130438 -6.31126e-05 0)
(0.0130061 -3.38058e-05 0)
(0.0129441 -3.09343e-06 0)
(0.0128559 3.09787e-05 0)
(0.0127381 7.05685e-05 0)
(0.0125864 0.000118013 0)
(0.0123952 0.000175785 0)
(0.0121576 0.000246494 0)
(0.0118653 0.000332832 0)
(0.0115085 0.000437557 0)
(0.0110761 0.000563463 0)
(0.0105554 0.000713357 0)
(0.00993245 0.00089004 0)
(0.00919159 0.00109629 0)
(0.00831591 0.00133487 0)
(0.00728703 0.0016085 0)
(0.00608524 0.00191987 0)
(0.00468949 0.00227162 0)
(0.00307749 0.00266634 0)
(0.0012258 0.00310658 0)
(-0.000890106 0.00359473 0)
(-0.00329561 0.00413305 0)
(-0.00601682 0.00472354 0)
(-0.00908029 0.00536787 0)
(-0.0125127 0.00606722 0)
(-0.0163404 0.00682218 0)
(-0.0205891 0.00763261 0)
(-0.0252831 0.00849744 0)
(-0.0304449 0.00941457 0)
(-0.0360943 0.0103807 0)
(-0.0422478 0.0113912 0)
(-0.0489176 0.01244 0)
(-0.0561113 0.0135195 0)
(-0.0638303 0.0146206 0)
(-0.0720701 0.0157326 0)
(-0.0808188 0.0168435 0)
(-0.0900571 0.0179397 0)
(-0.0997576 0.0190067 0)
(-0.109885 0.0200289 0)
(-0.120395 0.0209899 0)
(-0.131237 0.0218731 0)
(-0.14235 0.0226616 0)
(-0.153669 0.0233389 0)
(-0.165121 0.0238888 0)
(-0.176627 0.0242961 0)
(-0.188104 0.0245466 0)
(-0.199466 0.0246274 0)
(-0.210623 0.0245271 0)
(-0.221487 0.0242358 0)
(-0.231965 0.0237454 0)
(-0.241969 0.0230494 0)
(-0.251409 0.0221431 0)
(-0.260201 0.0210236 0)
(-0.26826 0.0196895 0)
(-0.275508 0.0181414 0)
(-0.28187 0.0163814 0)
(-0.287275 0.0144136 0)
(-0.291659 0.012244 0)
(-0.294962 0.00988046 0)
(-0.297131 0.00733337 0)
(-0.298119 0.00461559 0)
(-0.297887 0.00174292 0)
(-0.296402 -0.00126295 0)
(-0.293638 -0.00438126 0)
(-0.289581 -0.0075865 0)
(-0.284227 -0.0108463 0)
(-0.277581 -0.0141249 0)
(-0.269661 -0.0173811 0)
(-0.260499 -0.0205684 0)
(-0.250141 -0.0236357 0)
(-0.238649 -0.0265287 0)
(-0.226102 -0.0291899 0)
(-0.212598 -0.0315597 0)
(-0.198255 -0.0335781 0)
(-0.183209 -0.0351877 0)
(-0.167615 -0.0363356 0)
(-0.151649 -0.0369766 0)
(-0.1355 -0.0370767 0)
(-0.119373 -0.0366156 0)
(-0.103479 -0.0355895 0)
(-0.0880357 -0.0340136 0)
(-0.0732565 -0.0319227 0)
(-0.0593455 -0.0293715 0)
(-0.0464893 -0.0264326 0)
(-0.0348497 -0.0231942 0)
(-0.0245569 -0.0197555 0)
(-0.0157039 -0.0162219 0)
(-0.00834198 -0.0126992 0)
(-0.00247939 -0.00928879 0)
(0.00191944 -0.00608335 0)
(0.0049321 -0.00316496 0)
(0.00667505 -0.000604968 0)
(0.00730066 0.001533 0)
(0.00699326 0.0031875 0)
(0.00596834 0.00429159 0)
(0.00447031 0.00476638 0)
(0.00277008 0.00451834 0)
(0.00119762 0.00344574 0)
(0.000124779 0.00146462 0)
(2.47062e-06 -2.07443e-05 0)
(7.19379e-05 -0.000156294 0)
(0.000223034 -0.000342764 0)
(0.000456866 -0.000549681 0)
(0.000772622 -0.000758176 0)
(0.0011672 -0.00095614 0)
(0.00163472 -0.00113606 0)
(0.00216746 -0.00129345 0)
(0.00275635 -0.00142582 0)
(0.0033916 -0.00153206 0)
(0.004063 -0.00161203 0)
(0.00476033 -0.00166628 0)
(0.00547359 -0.00169592 0)
(0.00619322 -0.00170247 0)
(0.00691027 -0.00168774 0)
(0.00761649 -0.00165383 0)
(0.0083045 -0.00160299 0)
(0.00896778 -0.00153758 0)
(0.00960074 -0.00146004 0)