/*--------------------------------*- C++ -*----------------------------------*\
  =========                 |
  \\      /  F ield         | OpenFOAM: The Open Source CFD Toolbox
   \\    /   O peration     | Website:  https://openfoam.org
    \\  /    A nd           | Version:  12
     \\/     M anipulation  |
\*---------------------------------------------------------------------------*/
FoamFile
{
    format      ascii;
    class       volScalarField;
    location    "8";
    object      epsilon;
}
// * * * * * * * * * * * * * * * * * * * * * * * * * * * * * * * * * * * * * //

dimensions      [0 2 -3 0 0 0 0];

internalField   nonuniform List<scalar> 
5625
(
6.5912e-12
4.45515e-11
9.88132e-11
1.62679e-10
2.32715e-10
3.06555e-10
3.82366e-10
4.58669e-10
5.3427e-10
6.08225e-10
6.79831e-10
7.48612e-10
8.14308e-10
8.76856e-10
9.36375e-10
9.93135e-10
1.04753e-09
1.10004e-09
1.15122e-09
1.20164e-09
1.25191e-09
1.30259e-09
1.35425e-09
1.40741e-09
1.46256e-09
1.52013e-09
1.58052e-09
1.64408e-09
1.71113e-09
1.78192e-09
1.8567e-09
1.93566e-09
2.01894e-09
2.10667e-09
2.1989e-09
2.29567e-09
2.39693e-09
2.5026e-09
2.61248e-09
2.72631e-09
2.84371e-09
2.96416e-09
3.08697e-09
3.21126e-09
3.33595e-09
3.45967e-09
3.58077e-09
3.69727e-09
3.80683e-09
3.90676e-09
3.99397e-09
4.06499e-09
4.11565e-09
4.14057e-09
4.14211e-09
4.113e-09
4.04953e-09
3.94947e-09
3.81176e-09
3.63665e-09
3.42594e-09
3.1831e-09
2.91321e-09
2.62282e-09
2.31949e-09
2.01132e-09
1.70628e-09
1.41167e-09
1.1336e-09
8.76712e-10
6.44215e-10
4.38255e-10
2.60887e-10
1.16229e-10
1.71516e-11
1.24518e-11
2.42031e-11
4.83428e-11
7.78788e-11
1.10595e-10
1.45224e-10
1.80852e-10
2.16758e-10
2.52367e-10
2.8723e-10
3.21009e-10
3.53477e-10
3.84509e-10
4.14074e-10
4.42225e-10
4.69088e-10
4.94846e-10
5.19727e-10
5.43988e-10
5.67902e-10
5.91748e-10
6.15802e-10
6.40326e-10
6.6557e-10
6.91762e-10
7.19111e-10
7.47807e-10
7.78016e-10
8.09887e-10
8.43549e-10
8.79112e-10
9.16668e-10
9.56291e-10
9.98035e-10
1.04193e-09
1.08799e-09
1.1362e-09
1.18649e-09
1.2388e-09
1.29297e-09
1.34882e-09
1.4061e-09
1.46447e-09
1.52349e-09
1.58264e-09
1.64125e-09
1.69851e-09
1.75347e-09
1.805e-09
1.85182e-09
1.89245e-09
1.92524e-09
1.94822e-09
1.95904e-09
1.95859e-09
1.94363e-09
1.91247e-09
1.86414e-09
1.79819e-09
1.71483e-09
1.61495e-09
1.50022e-09
1.37303e-09
1.23643e-09
1.09393e-09
9.49242e-10
8.06059e-10
6.67742e-10
5.37125e-10
4.16402e-10
3.07145e-10
2.10546e-10
1.28047e-10
6.32544e-11
3.23829e-11
2.64346e-11
2.35662e-11
3.72277e-11
5.63358e-11
7.82313e-11
1.01717e-10
1.26044e-10
1.50663e-10
1.7515e-10
1.99181e-10
2.22513e-10
2.44982e-10
2.66495e-10
2.87029e-10
3.06615e-10
3.25337e-10
3.43321e-10
3.60723e-10
3.77718e-10
3.94495e-10
4.11249e-10
4.2817e-10
4.45442e-10
4.6324e-10
4.81725e-10
5.01045e-10
5.21333e-10
5.4271e-10
5.6528e-10
5.89137e-10
6.14361e-10
6.41016e-10
6.69156e-10
6.98818e-10
7.30024e-10
7.62777e-10
7.9706e-10
8.32831e-10
8.70015e-10
9.08507e-10
9.48155e-10
9.8876e-10
1.03006e-09
1.07173e-09
1.11336e-09
1.15445e-09
1.19441e-09
1.23253e-09
1.268e-09
1.2999e-09
1.32719e-09
1.34873e-09
1.36304e-09
1.36891e-09
1.36666e-09
1.35421e-09
1.33056e-09
1.29514e-09
1.24775e-09
1.18865e-09
1.11853e-09
1.03858e-09
9.50455e-10
8.56218e-10
7.58204e-10
6.5888e-10
5.60678e-10
4.65831e-10
3.76252e-10
2.93483e-10
2.1876e-10
1.53279e-10
9.90007e-11
6.15324e-11
6.85771e-11
4.32122e-11
2.82261e-11
3.51804e-11
4.85318e-11
6.48896e-11
8.28934e-11
1.01785e-10
1.21055e-10
1.40329e-10
1.59324e-10
1.77835e-10
1.95721e-10
2.12902e-10
2.2935e-10
2.45088e-10
2.6018e-10
2.74721e-10
2.88834e-10
3.02659e-10
3.16346e-10
3.3005e-10
3.43926e-10
3.58122e-10
3.72781e-10
3.88035e-10
4.04006e-10
4.20805e-10
4.38532e-10
4.57275e-10
4.77113e-10
4.98112e-10
5.20326e-10
5.43798e-10
5.68558e-10
5.94619e-10
6.2198e-10
6.50616e-10
6.80481e-10
7.11501e-10
7.43567e-10
7.76533e-10
8.10209e-10
8.44349e-10
8.78653e-10
9.1275e-10
9.462e-10
9.78481e-10
1.009e-09
1.03706e-09
1.06191e-09
1.08273e-09
1.0986e-09
1.10816e-09
1.1111e-09
1.10718e-09
1.095e-09
1.0739e-09
1.04353e-09
1.00385e-09
9.55127e-10
8.97993e-10
8.33423e-10
7.62729e-10
6.87509e-10
6.09559e-10
5.30764e-10
4.52981e-10
3.77934e-10
3.07138e-10
2.41892e-10
1.83394e-10
1.33098e-10
9.3774e-11
7.33968e-11
1.11623e-10
6.22587e-11
3.54471e-11
3.70157e-11
4.62501e-11
5.89398e-11
7.34874e-11
8.9063e-11
1.05143e-10
1.21362e-10
1.37449e-10
1.53212e-10
1.68515e-10
1.83283e-10
1.97483e-10
2.11131e-10
2.24276e-10
2.36997e-10
2.49398e-10
2.61598e-10
2.73726e-10
2.85916e-10
2.98302e-10
3.11017e-10
3.24185e-10
3.37925e-10
3.52345e-10
3.67545e-10
3.83616e-10
4.00639e-10
4.18682e-10
4.37806e-10
4.58059e-10
4.79477e-10
5.02081e-10
5.25877e-10
5.50855e-10
5.7698e-10
6.04195e-10
6.32413e-10
6.61514e-10
6.91342e-10
7.21695e-10
7.52324e-10
7.82929e-10
8.13149e-10
8.42564e-10
8.70691e-10
8.96987e-10
9.20846e-10
9.41615e-10
9.58592e-10
9.71009e-10
9.77506e-10
9.7857e-10
9.7339e-10
9.61047e-10
9.41078e-10
9.13254e-10
8.77589e-10
8.34357e-10
7.8412e-10
7.27719e-10
6.66271e-10
6.01124e-10
5.3379e-10
4.65861e-10
3.98918e-10
3.34448e-10
2.73802e-10
2.18221e-10
1.68999e-10
1.27928e-10
9.86833e-11
9.16313e-11
1.59859e-10
8.32066e-11
4.42762e-11
4.10552e-11
4.69461e-11
5.68465e-11
6.88948e-11
8.21623e-11
9.60878e-11
1.10292e-10
1.24502e-10
1.38524e-10
1.52224e-10
1.6552e-10
1.78379e-10
1.90805e-10
2.02839e-10
2.1455e-10
2.26027e-10
2.37379e-10
2.4872e-10
2.60173e-10
2.71862e-10
2.83908e-10
2.96426e-10
3.09529e-10
3.23318e-10
3.37887e-10
3.53321e-10
3.69697e-10
3.87079e-10
4.05521e-10
4.25067e-10
4.45743e-10
4.67565e-10
4.90528e-10
5.14607e-10
5.39755e-10
5.65897e-10
5.9293e-10
6.20714e-10
6.49075e-10
6.77794e-10
7.0661e-10
7.35216e-10
7.63254e-10
7.90318e-10
8.15953e-10
8.39662e-10
8.60905e-10
8.79114e-10
8.93705e-10
9.03918e-10
9.08559e-10
9.08572e-10
9.02746e-10
8.90493e-10
8.7143e-10
8.45364e-10
8.12296e-10
7.7245e-10
7.26307e-10
6.74589e-10
6.18281e-10
5.58596e-10
4.96917e-10
4.34721e-10
3.73496e-10
3.14667e-10
2.59567e-10
2.09483e-10
1.65874e-10
1.30962e-10
1.09287e-10
1.13648e-10
2.12028e-10
1.0582e-10
5.42796e-11
4.65578e-11
4.95365e-11
5.71396e-11
6.7224e-11
7.87493e-11
9.11044e-11
1.03885e-10
1.16808e-10
1.29669e-10
1.42329e-10
1.54701e-10
1.66744e-10
1.78457e-10
1.89872e-10
2.01049e-10
2.1207e-10
2.23035e-10
2.3405e-10
2.45233e-10
2.56699e-10
2.68564e-10
2.8094e-10
2.93933e-10
3.07643e-10
3.22161e-10
3.37567e-10
3.53935e-10
3.71325e-10
3.89786e-10
4.09353e-10
4.30047e-10
4.51869e-10
4.74803e-10
4.98807e-10
5.23818e-10
5.49739e-10
5.76444e-10
6.03774e-10
6.31532e-10
6.59483e-10
6.87354e-10
7.14833e-10
7.4157e-10
7.67177e-10
7.91235e-10
8.13294e-10
8.32884e-10
8.49517e-10
8.62708e-10
8.71719e-10
8.75561e-10
8.75274e-10
8.69579e-10
8.57983e-10
8.40114e-10
8.15738e-10
7.84778e-10
7.47351e-10
7.03789e-10
6.54739e-10
6.01104e-10
5.44041e-10
4.84905e-10
4.25183e-10
3.66397e-10
3.10036e-10
2.57522e-10
2.10284e-10
1.7001e-10
1.39331e-10
1.23596e-10
1.38207e-10
2.67223e-10
1.29948e-10
6.52289e-11
5.3135e-11
5.34644e-11
5.90781e-11
6.75351e-11
7.76748e-11
8.88289e-11
1.00563e-10
1.12573e-10
1.24645e-10
1.3663e-10
1.48432e-10
1.60002e-10
1.71333e-10
1.8245e-10
1.93408e-10
2.04282e-10
2.15165e-10
2.26162e-10
2.37383e-10
2.48942e-10
2.60951e-10
2.73521e-10
2.86756e-10
3.00752e-10
3.15598e-10
3.31373e-10
3.48145e-10
3.6597e-10
3.84891e-10
4.04933e-10
4.26106e-10
4.48398e-10
4.71776e-10
4.96179e-10
5.21522e-10
5.47687e-10
5.74524e-10
6.01852e-10
6.29453e-10
6.57082e-10
6.84457e-10
7.11273e-10
7.37197e-10
7.61871e-10
7.84923e-10
8.05963e-10
8.24593e-10
8.40404e-10
8.52986e-10
8.6174e-10
8.65697e-10
8.65845e-10
8.61045e-10
8.50721e-10
8.34445e-10
8.11882e-10
7.8283e-10
7.47274e-10
7.05448e-10
6.57871e-10
6.05378e-10
5.49111e-10
4.90468e-10
4.31025e-10
3.72434e-10
3.16338e-10
2.64329e-10
2.18033e-10
1.79396e-10
1.51544e-10
1.40545e-10
1.64593e-10
3.24741e-10
1.55491e-10
7.6993e-11
6.05609e-11
5.84069e-11
6.22394e-11
6.9297e-11
7.82951e-11
8.85028e-11
9.94487e-11
1.10808e-10
1.2235e-10
1.33914e-10
1.45393e-10
1.56732e-10
1.67915e-10
1.78962e-10
1.89922e-10
2.00867e-10
2.11887e-10
2.23082e-10
2.34562e-10
2.46439e-10
2.58823e-10
2.71824e-10
2.85544e-10
3.00079e-10
3.15515e-10
3.31923e-10
3.49369e-10
3.67903e-10
3.87558e-10
4.0835e-10
4.30273e-10
4.53301e-10
4.77379e-10
5.02427e-10
5.28337e-10
5.54969e-10
5.82151e-10
6.09681e-10
6.37332e-10
6.6485e-10
6.9196e-10
7.18372e-10
7.43785e-10
7.67886e-10
7.90359e-10
8.10885e-10
8.2914e-10
8.44791e-10
8.57485e-10
8.66798e-10
8.71816e-10
8.73029e-10
8.69856e-10
8.61442e-10
8.4726e-10
8.2683e-10
7.99779e-10
7.65925e-10
7.25352e-10
6.78473e-10
6.2607e-10
5.69301e-10
5.09652e-10
4.4885e-10
3.88746e-10
3.31208e-10
2.7807e-10
2.31209e-10
1.92864e-10
1.66711e-10
1.59485e-10
1.92345e-10
3.84043e-10
1.82384e-10
8.94919e-11
6.86949e-11
6.41612e-11
6.63587e-11
7.21835e-11
8.02162e-11
8.96613e-11
1.00011e-10
1.10913e-10
1.22117e-10
1.33448e-10
1.44789e-10
1.56076e-10
1.67285e-10
1.78432e-10
1.8956e-10
2.0074e-10
2.12056e-10
2.2361e-10
2.35509e-10
2.47864e-10
2.60787e-10
2.74385e-10
2.88759e-10
3.04004e-10
3.20204e-10
3.37432e-10
3.55742e-10
3.75176e-10
3.95756e-10
4.17482e-10
4.40333e-10
4.64262e-10
4.89194e-10
5.15024e-10
5.41617e-10
5.68813e-10
5.96421e-10
6.24229e-10
6.52001e-10
6.79488e-10
7.06433e-10
7.32575e-10
7.57652e-10
7.81417e-10
8.03628e-10
8.24044e-10
8.42422e-10
8.58501e-10
8.71983e-10
8.8251e-10
8.89434e-10
8.92391e-10
8.91449e-10
8.85522e-10
8.73898e-10
8.55914e-10
8.30999e-10
7.98782e-10
7.5919e-10
7.12522e-10
6.59512e-10
6.01347e-10
5.39626e-10
4.76263e-10
4.13355e-10
3.53051e-10
2.97482e-10
2.48828e-10
2.09658e-10
1.84249e-10
1.79986e-10
2.21142e-10
4.447e-10
2.10582e-10
1.02674e-10
7.74458e-11
7.05929e-11
7.12603e-11
7.59767e-11
8.31812e-11
9.20077e-11
1.01905e-10
1.12496e-10
1.23509e-10
1.34753e-10
1.46099e-10
1.57471e-10
1.68841e-10
1.80216e-10
1.91638e-10
2.03174e-10
2.14911e-10
2.26948e-10
2.39393e-10
2.52357e-10
2.6595e-10
2.80279e-10
2.95444e-10
3.11535e-10
3.28632e-10
3.46801e-10
3.66091e-10
3.8653e-10
4.08129e-10
4.30872e-10
4.54718e-10
4.79598e-10
5.05415e-10
5.3204e-10
5.59318e-10
5.87069e-10
6.15088e-10
6.43155e-10
6.71042e-10
6.98513e-10
7.25343e-10
7.51315e-10
7.76229e-10
7.99905e-10
8.22178e-10
8.42887e-10
8.61862e-10
8.78903e-10
8.93756e-10
9.06078e-10
9.15412e-10
9.21e-10
9.22591e-10
9.19614e-10
9.10916e-10
8.95644e-10
8.73004e-10
8.42431e-10
8.03687e-10
7.56953e-10
7.0291e-10
6.42774e-10
5.78258e-10
5.11479e-10
4.44807e-10
3.80711e-10
3.21665e-10
2.70196e-10
2.29249e-10
2.0375e-10
2.01747e-10
2.50748e-10
5.06368e-10
2.40058e-10
1.16507e-10
8.67526e-11
7.76089e-11
7.68224e-11
8.05262e-11
8.701e-11
9.53326e-11
1.04899e-10
1.153e-10
1.26243e-10
1.37517e-10
1.48982e-10
1.60552e-10
1.7219e-10
1.83899e-10
1.95718e-10
2.07712e-10
2.19966e-10
2.32581e-10
2.45664e-10
2.59325e-10
2.73677e-10
2.88823e-10
3.04863e-10
3.21882e-10
3.39954e-10
3.59137e-10
3.7947e-10
4.00969e-10
4.23628e-10
4.47413e-10
4.72261e-10
4.98083e-10
5.24757e-10
5.52134e-10
5.80039e-10
6.08278e-10
6.36639e-10
6.64908e-10
6.92867e-10
7.20315e-10
7.47066e-10
7.7296e-10
7.97867e-10
8.21682e-10
8.44318e-10
8.65688e-10
8.85689e-10
9.04166e-10
9.20889e-10
9.35517e-10
9.47576e-10
9.56481e-10
9.60956e-10
9.61124e-10
9.55605e-10
9.43237e-10
9.22988e-10
8.94101e-10
8.56174e-10
8.09263e-10
7.53985e-10
6.91565e-10
6.23822e-10
5.53068e-10
4.81952e-10
4.13287e-10
3.49925e-10
2.9479e-10
2.51245e-10
2.24914e-10
2.24548e-10
2.80983e-10
5.68775e-10
2.70793e-10
1.30968e-10
9.65732e-11
8.51434e-11
8.29575e-11
8.57236e-11
9.15739e-11
9.94873e-11
1.08821e-10
1.19132e-10
1.30103e-10
1.41506e-10
1.53185e-10
1.65042e-10
1.77034e-10
1.8916e-10
2.01455e-10
2.13982e-10
2.26827e-10
2.4009e-10
2.53879e-10
2.68306e-10
2.83481e-10
2.99506e-10
3.16476e-10
3.34473e-10
3.53564e-10
3.73796e-10
3.95196e-10
4.17765e-10
4.41479e-10
4.66284e-10
4.92097e-10
5.18804e-10
5.46263e-10
5.74306e-10
6.02744e-10
6.31375e-10
6.5999e-10
6.88387e-10
7.16376e-10
7.43795e-10
7.70512e-10
7.96433e-10
8.215e-10
8.45685e-10
8.68974e-10
8.91346e-10
9.12746e-10
9.33052e-10
9.52037e-10
9.6934e-10
9.84444e-10
9.96693e-10
1.00484e-09
1.00794e-09
1.00572e-09
9.96372e-10
9.78595e-10
9.51455e-10
9.1439e-10
8.67326e-10
8.10794e-10
7.46007e-10
6.74854e-10
5.99821e-10
5.23826e-10
4.50035e-10
3.81704e-10
3.22196e-10
2.75344e-10
2.47513e-10
2.48226e-10
3.11714e-10
6.31705e-10
3.02779e-10
1.46044e-10
1.06878e-10
9.31495e-11
8.96012e-11
9.14888e-11
9.67778e-11
1.04362e-10
1.13546e-10
1.23852e-10
1.34935e-10
1.46548e-10
1.58518e-10
1.70737e-10
1.83154e-10
1.95761e-10
2.08593e-10
2.21712e-10
2.35204e-10
2.49168e-10
2.63714e-10
2.78952e-10
2.94991e-10
3.11931e-10
3.29863e-10
3.48862e-10
3.68986e-10
3.90271e-10
4.12728e-10
4.36344e-10
4.61074e-10
4.86844e-10
5.13549e-10
5.41055e-10
5.69201e-10
5.97803e-10
6.26665e-10
6.55585e-10
6.84365e-10
7.12827e-10
7.40818e-10
7.68225e-10
7.94977e-10
8.2105e-10
8.46459e-10
8.71246e-10
8.95461e-10
9.19135e-10
9.42245e-10
9.64679e-10
9.86198e-10
1.0064e-09
1.02471e-09
1.04034e-09
1.0523e-09
1.05855e-09
1.05937e-09
1.05309e-09
1.03783e-09
1.0125e-09
9.76397e-10
9.29308e-10
8.71658e-10
8.04608e-10
7.3008e-10
6.5069e-10
5.69601e-10
4.90322e-10
4.16534e-10
3.52075e-10
3.01301e-10
2.7138e-10
2.7266e-10
3.42838e-10
6.94995e-10
3.36014e-10
1.61726e-10
1.17647e-10
1.01593e-10
9.67048e-11
9.77609e-11
1.02549e-10
1.09872e-10
1.18978e-10
1.29352e-10
1.4062e-10
1.52511e-10
1.64838e-10
1.77479e-10
1.90376e-10
2.03518e-10
2.16936e-10
2.3069e-10
2.44868e-10
2.5957e-10
2.74905e-10
2.90982e-10
3.07908e-10
3.2578e-10
3.44684e-10
3.64685e-10
3.85832e-10
4.08148e-10
4.31629e-10
4.56242e-10
4.81925e-10
5.08582e-10
5.36088e-10
5.6429e-10
5.93011e-10
6.22061e-10
6.5124e-10
6.80355e-10
7.09229e-10
7.37717e-10
7.65711e-10
7.93153e-10
8.20039e-10
8.46412e-10
8.72354e-10
8.9797e-10
9.23359e-10
9.48586e-10
9.73642e-10
9.98407e-10
1.02261e-09
1.04581e-09
1.06734e-09
1.08636e-09
1.10182e-09
1.11161e-09
1.11503e-09
1.11177e-09
1.09902e-09
1.07556e-09
1.04055e-09
9.93644e-10
9.35127e-10
8.66072e-10
7.88382e-10
7.04752e-10
6.18546e-10
5.33596e-10
4.54013e-10
3.84144e-10
3.28919e-10
2.96388e-10
2.97759e-10
3.74285e-10
7.58531e-10
3.70498e-10
1.7801e-10
1.28864e-10
1.10447e-10
1.04231e-10
1.04494e-10
1.08833e-10
1.15953e-10
1.25045e-10
1.3555e-10
1.47064e-10
1.59292e-10
1.72029e-10
1.85143e-10
1.98565e-10
2.12281e-10
2.26319e-10
2.4074e-10
2.55631e-10
2.71093e-10
2.87234e-10
3.04162e-10
3.21982e-10
3.40787e-10
3.60653e-10
3.81639e-10
4.03781e-10
4.27088e-10
4.51539e-10
4.77084e-10
5.03639e-10
5.31092e-10
5.59297e-10
5.88087e-10
6.17276e-10
6.46668e-10
6.76072e-10
7.05311e-10
7.34238e-10
7.62745e-10
7.90778e-10
8.18339e-10
8.45485e-10
8.72324e-10
8.98997e-10
9.25656e-10
9.52434e-10
9.79411e-10
1.00657e-09
1.03378e-09
1.06071e-09
1.08687e-09
1.11154e-09
1.13377e-09
1.15247e-09
1.16575e-09
1.17161e-09
1.17108e-09
1.16082e-09
1.13927e-09
1.1055e-09
1.05902e-09
9.99965e-10
9.29277e-10
8.4878e-10
7.61189e-10
6.70011e-10
5.79368e-10
4.93793e-10
4.18166e-10
3.58041e-10
3.2244e-10
3.2346e-10
4.06007e-10
8.22237e-10
4.06235e-10
1.94891e-10
1.40519e-10
1.19693e-10
1.1215e-10
1.11651e-10
1.15584e-10
1.22554e-10
1.31687e-10
1.42379e-10
1.54192e-10
1.66807e-10
1.79999e-10
1.93624e-10
2.07606e-10
2.21925e-10
2.36607e-10
2.51714e-10
2.67333e-10
2.83564e-10
3.00516e-10
3.18295e-10
3.37002e-10
3.56723e-10
3.77529e-10
3.99468e-10
4.22562e-10
4.46805e-10
4.72161e-10
4.9856e-10
5.25902e-10
5.54054e-10
5.82858e-10
6.12135e-10
6.41694e-10
6.71344e-10
7.00907e-10
7.3023e-10
7.59201e-10
7.8776e-10
8.15907e-10
8.437e-10
8.71258e-10
8.98744e-10
9.26343e-10
9.54241e-10
9.82585e-10
1.01145e-09
1.04081e-09
1.07047e-09
1.10009e-09
1.12909e-09
1.15669e-09
1.18191e-09
1.20353e-09
1.21994e-09
1.22839e-09
1.23002e-09
1.22221e-09
1.20258e-09
1.17018e-09
1.12438e-09
1.06515e-09
9.93271e-10
9.10424e-10
8.19278e-10
7.23418e-10
6.27201e-10
5.35565e-10
4.53938e-10
3.88543e-10
3.49456e-10
3.49721e-10
4.37977e-10
8.86077e-10
4.4323e-10
2.1237e-10
1.52604e-10
1.29316e-10
1.2044e-10
1.19203e-10
1.22767e-10
1.29633e-10
1.38856e-10
1.49783e-10
1.61942e-10
1.74985e-10
1.88669e-10
2.02835e-10
2.17401e-10
2.32342e-10
2.47682e-10
2.63484e-10
2.79834e-10
2.96834e-10
3.1459e-10
3.33208e-10
3.52783e-10
3.73395e-10
3.95107e-10
4.17955e-10
4.41948e-10
4.67065e-10
4.93253e-10
5.20427e-10
5.48467e-10
5.77227e-10
6.06538e-10
6.36214e-10
6.66068e-10
6.95917e-10
7.25604e-10
7.55007e-10
7.84056e-10
8.12738e-10
8.41107e-10
8.69278e-10
8.9742e-10
9.25738e-10
9.54452e-10
9.8376e-10
1.01381e-09
1.04466e-09
1.07623e-09
1.10831e-09
1.14048e-09
1.17213e-09
1.20242e-09
1.23032e-09
1.25457e-09
1.27362e-09
1.28462e-09
1.28802e-09
1.28252e-09
1.26477e-09
1.23382e-09
1.18893e-09
1.12989e-09
1.05728e-09
9.72592e-10
8.78387e-10
7.78247e-10
6.76701e-10
5.79054e-10
4.91286e-10
4.20331e-10
3.77375e-10
3.76521e-10
4.70189e-10
9.5005e-10
4.81489e-10
2.30446e-10
1.65115e-10
1.39304e-10
1.29084e-10
1.27127e-10
1.30354e-10
1.37156e-10
1.46512e-10
1.57718e-10
1.70261e-10
1.83765e-10
1.97969e-10
2.12699e-10
2.27864e-10
2.43436e-10
2.5944e-10
2.75936e-10
2.93012e-10
3.1077e-10
3.29315e-10
3.4875e-10
3.69165e-10
3.90634e-10
4.13209e-10
4.36915e-10
4.61749e-10
4.87674e-10
5.14622e-10
5.4249e-10
5.71147e-10
6.00435e-10
6.30177e-10
6.60188e-10
6.90287e-10
7.20309e-10
7.50123e-10
7.79643e-10
8.08841e-10
8.37754e-10
8.66487e-10
8.95203e-10
9.24112e-10
9.53452e-10
9.83456e-10
1.01432e-09
1.04618e-09
1.07905e-09
1.11283e-09
1.14723e-09
1.1818e-09
1.21586e-09
1.24855e-09
1.2788e-09
1.30534e-09
1.32662e-09
1.33992e-09
1.3448e-09
1.34139e-09
1.32542e-09
1.29596e-09
1.25214e-09
1.1936e-09
1.12069e-09
1.03469e-09
9.3797e-10
8.34036e-10
7.27511e-10
6.2401e-10
5.30054e-10
4.53322e-10
4.06156e-10
4.0385e-10
5.02648e-10
1.01418e-09
5.21017e-10
2.4912e-10
1.78045e-10
1.49648e-10
1.38067e-10
1.35405e-10
1.38322e-10
1.45094e-10
1.54622e-10
1.66142e-10
1.79102e-10
1.93096e-10
2.07839e-10
2.23146e-10
2.38919e-10
2.55124e-10
2.71787e-10
2.88969e-10
3.06757e-10
3.25255e-10
3.44565e-10
3.64788e-10
3.86008e-10
4.08293e-10
4.31684e-10
4.56196e-10
4.81811e-10
5.08479e-10
5.36117e-10
5.64611e-10
5.93816e-10
6.23567e-10
6.53687e-10
6.83995e-10
7.14322e-10
7.44527e-10
7.74508e-10
8.04218e-10
8.33673e-10
8.62959e-10
8.92223e-10
9.2167e-10
9.51541e-10
9.82087e-10
1.01354e-09
1.04609e-09
1.07984e-09
1.11475e-09
1.15068e-09
1.18729e-09
1.22406e-09
1.2603e-09
1.29509e-09
1.32737e-09
1.35584e-09
1.37899e-09
1.39426e-09
1.40041e-09
1.39878e-09
1.38443e-09
1.35639e-09
1.31373e-09
1.25591e-09
1.18307e-09
1.09625e-09
9.97568e-10
8.90376e-10
7.79301e-10
6.70201e-10
5.70101e-10
4.87443e-10
4.35778e-10
4.31712e-10
5.35376e-10
1.07851e-09
5.61821e-10
2.68392e-10
1.91391e-10
1.60339e-10
1.47379e-10
1.44019e-10
1.4665e-10
1.53424e-10
1.63156e-10
1.75023e-10
1.88426e-10
2.02929e-10
2.18225e-10
2.34116e-10
2.50495e-10
2.67328e-10
2.84638e-10
3.02489e-10
3.2097e-10
3.40182e-10
3.60229e-10
3.81206e-10
4.03194e-10
4.26251e-10
4.50409e-10
4.75673e-10
5.02012e-10
5.29364e-10
5.57633e-10
5.86693e-10
6.16394e-10
6.46568e-10
6.77038e-10
7.07635e-10
7.38208e-10
7.68641e-10
7.98867e-10
8.28879e-10
8.58734e-10
8.88561e-10
9.18546e-10
9.48924e-10
9.79951e-10
1.01188e-09
1.04494e-09
1.07929e-09
1.11497e-09
1.15193e-09
1.18994e-09
1.22863e-09
1.26743e-09
1.30561e-09
1.34224e-09
1.37624e-09
1.40633e-09
1.43099e-09
1.4479e-09
1.45513e-09
1.45491e-09
1.44196e-09
1.41521e-09
1.37367e-09
1.31668e-09
1.24417e-09
1.15694e-09
1.05681e-09
9.46907e-10
8.31772e-10
7.17408e-10
6.11292e-10
5.2263e-10
4.66225e-10
4.60118e-10
5.684e-10
1.14311e-09
6.03904e-10
2.88261e-10
2.05151e-10
1.71371e-10
1.57008e-10
1.52958e-10
1.55321e-10
1.62124e-10
1.72089e-10
1.84328e-10
1.98195e-10
2.1322e-10
2.29075e-10
2.45549e-10
2.62528e-10
2.79976e-10
2.97916e-10
3.16415e-10
3.35562e-10
3.55459e-10
3.76209e-10
3.97904e-10
4.20618e-10
4.44403e-10
4.69283e-10
4.9525e-10
5.22263e-10
5.50249e-10
5.79102e-10
6.08689e-10
6.38856e-10
6.69434e-10
7.00257e-10
7.31168e-10
7.62039e-10
7.92783e-10
8.23367e-10
8.53824e-10
8.8425e-10
9.14811e-10
9.45721e-10
9.77235e-10
1.00962e-09
1.04311e-09
1.07791e-09
1.11415e-09
1.15182e-09
1.19081e-09
1.23085e-09
1.27151e-09
1.31218e-09
1.35211e-09
1.39035e-09
1.42582e-09
1.45723e-09
1.4831e-09
1.50131e-09
1.50954e-09
1.51026e-09
1.49845e-09
1.47275e-09
1.43217e-09
1.37597e-09
1.30392e-09
1.21656e-09
1.11542e-09
1.00333e-09
8.84647e-10
7.65421e-10
6.53498e-10
5.58824e-10
4.97484e-10
4.89084e-10
6.01753e-10
1.20806e-09
6.47268e-10
3.08729e-10
2.19321e-10
1.82738e-10
1.66948e-10
1.62209e-10
1.64321e-10
1.71177e-10
1.81398e-10
1.94029e-10
2.08374e-10
2.2393e-10
2.40344e-10
2.57393e-10
2.74958e-10
2.93001e-10
3.11549e-10
3.30669e-10
3.50452e-10
3.71003e-10
3.92421e-10
4.14796e-10
4.38198e-10
4.62671e-10
4.8823e-10
5.14858e-10
5.42505e-10
5.71088e-10
6.00496e-10
6.3059e-10
6.61215e-10
6.92211e-10
7.23419e-10
7.54703e-10
7.85958e-10
8.17128e-10
8.48216e-10
8.79289e-10
9.10482e-10
9.41984e-10
9.74036e-10
1.0069e-09
1.04082e-09
1.07605e-09
1.11273e-09
1.15095e-09
1.19065e-09
1.23168e-09
1.2737e-09
1.31624e-09
1.35867e-09
1.4002e-09
1.43988e-09
1.47663e-09
1.50915e-09
1.53599e-09
1.55521e-09
1.56422e-09
1.56553e-09
1.55452e-09
1.52955e-09
1.48966e-09
1.43407e-09
1.36242e-09
1.27505e-09
1.17321e-09
1.05939e-09
9.37677e-10
8.14037e-10
6.96585e-10
5.95961e-10
5.29543e-10
5.18628e-10
6.35472e-10
1.27342e-09
6.91914e-10
3.29793e-10
2.33898e-10
1.94436e-10
1.77189e-10
1.71762e-10
1.73637e-10
1.80564e-10
1.91061e-10
2.041e-10
2.18933e-10
2.35019e-10
2.51985e-10
2.69597e-10
2.87728e-10
3.06344e-10
3.25472e-10
3.45182e-10
3.65571e-10
3.86741e-10
4.08794e-10
4.31814e-10
4.55868e-10
4.80992e-10
5.07196e-10
5.34454e-10
5.62709e-10
5.91871e-10
6.21823e-10
6.52427e-10
6.83532e-10
7.14984e-10
7.46641e-10
7.78387e-10
8.10145e-10
8.41888e-10
8.73653e-10
9.0554e-10
9.3771e-10
9.70377e-10
1.00379e-09
1.03821e-09
1.07388e-09
1.111e-09
1.14969e-09
1.18997e-09
1.23177e-09
1.27484e-09
1.31883e-09
1.36321e-09
1.40733e-09
1.45037e-09
1.49138e-09
1.52929e-09
1.56278e-09
1.59042e-09
1.61038e-09
1.61992e-09
1.62158e-09
1.61099e-09
1.58635e-09
1.54675e-09
1.49142e-09
1.41994e-09
1.33251e-09
1.23012e-09
1.11492e-09
9.90642e-10
8.63056e-10
7.40417e-10
6.33973e-10
5.62385e-10
5.48765e-10
6.69592e-10
1.33927e-09
7.37841e-10
3.51452e-10
2.48879e-10
2.06458e-10
1.87726e-10
1.81609e-10
1.83256e-10
1.9027e-10
2.01059e-10
2.14516e-10
2.29839e-10
2.46451e-10
2.63958e-10
2.82113e-10
3.00787e-10
3.19948e-10
3.39626e-10
3.59896e-10
3.80857e-10
4.02615e-10
4.25269e-10
4.48904e-10
4.7358e-10
4.9933e-10
5.26156e-10
5.54026e-10
5.82877e-10
6.12617e-10
6.43125e-10
6.74268e-10
7.05899e-10
7.37877e-10
7.70078e-10
8.02407e-10
8.34815e-10
8.67305e-10
8.99943e-10
9.32857e-10
9.66231e-10
1.00029e-09
1.03529e-09
1.07148e-09
1.10908e-09
1.14825e-09
1.18908e-09
1.23153e-09
1.27548e-09
1.32064e-09
1.3666e-09
1.41282e-09
1.4586e-09
1.50313e-09
1.54544e-09
1.58445e-09
1.61886e-09
1.64721e-09
1.66771e-09
1.67756e-09
1.67934e-09
1.66878e-09
1.64402e-09
1.60422e-09
1.54865e-09
1.47692e-09
1.38917e-09
1.28619e-09
1.16981e-09
1.04336e-09
9.12289e-10
7.84849e-10
6.72782e-10
5.95987e-10
5.79506e-10
7.0414e-10
1.40567e-09
7.85045e-10
3.73702e-10
2.6426e-10
2.18801e-10
1.98552e-10
1.9174e-10
1.93167e-10
2.0028e-10
2.11372e-10
2.25253e-10
2.41064e-10
2.58192e-10
2.76222e-10
2.94896e-10
3.14087e-10
3.33762e-10
3.53958e-10
3.74757e-10
3.9626e-10
4.18576e-10
4.41805e-10
4.6603e-10
4.91308e-10
5.17667e-10
5.45105e-10
5.73585e-10
6.03041e-10
6.33378e-10
6.64479e-10
6.96213e-10
7.28445e-10
7.61048e-10
7.93915e-10
8.26976e-10
8.60207e-10
8.93639e-10
9.27366e-10
9.61536e-10
9.96349e-10
1.03204e-09
1.06885e-09
1.10701e-09
1.14673e-09
1.18811e-09
1.2312e-09
1.27593e-09
1.32211e-09
1.36941e-09
1.4174e-09
1.46548e-09
1.51297e-09
1.55901e-09
1.60265e-09
1.64279e-09
1.67811e-09
1.70716e-09
1.72807e-09
1.73805e-09
1.73979e-09
1.72888e-09
1.70353e-09
1.66296e-09
1.60653e-09
1.53396e-09
1.4454e-09
1.34158e-09
1.22404e-09
1.09568e-09
9.61555e-10
8.29728e-10
7.12296e-10
6.30312e-10
6.10855e-10
7.39141e-10
1.47268e-09
8.33519e-10
3.96541e-10
2.80037e-10
2.31458e-10
2.0966e-10
2.02148e-10
2.03359e-10
2.10581e-10
2.21982e-10
2.36286e-10
2.52578e-10
2.70207e-10
2.88738e-10
3.07905e-10
3.27582e-10
3.4774e-10
3.68424e-10
3.89722e-10
4.1174e-10
4.34591e-10
4.58375e-10
4.83174e-10
5.09043e-10
5.36009e-10
5.64064e-10
5.9317e-10
6.23259e-10
6.54237e-10
6.8599e-10
7.18396e-10
7.5133e-10
7.84682e-10
8.18364e-10
8.5233e-10
8.8658e-10
9.2117e-10
9.56214e-10
9.91878e-10
1.02837e-09
1.06592e-09
1.10476e-09
1.1451e-09
1.18711e-09
1.23086e-09
1.27636e-09
1.32347e-09
1.37197e-09
1.4215e-09
1.47157e-09
1.52161e-09
1.57087e-09
1.61851e-09
1.66355e-09
1.70491e-09
1.74123e-09
1.77103e-09
1.79232e-09
1.80232e-09
1.80388e-09
1.7923e-09
1.76591e-09
1.72397e-09
1.66597e-09
1.59179e-09
1.50175e-09
1.39658e-09
1.27767e-09
1.14753e-09
1.01069e-09
8.74896e-10
7.52409e-10
6.65315e-10
6.42805e-10
7.74605e-10
1.54032e-09
8.83255e-10
4.19963e-10
2.96206e-10
2.44426e-10
2.21044e-10
2.12824e-10
2.13822e-10
2.21158e-10
2.3287e-10
2.47594e-10
2.64354e-10
2.82465e-10
3.01471e-10
3.21102e-10
3.41232e-10
3.61843e-10
3.82986e-10
4.04757e-10
4.27269e-10
4.50637e-10
4.74966e-10
5.00335e-10
5.268e-10
5.54385e-10
5.8308e-10
6.12847e-10
6.43618e-10
6.75303e-10
7.07793e-10
7.40976e-10
7.7474e-10
8.0899e-10
8.43661e-10
8.78727e-10
9.14209e-10
9.50185e-10
9.86785e-10
1.02418e-09
1.06259e-09
1.10223e-09
1.14332e-09
1.18604e-09
1.23052e-09
1.2768e-09
1.32482e-09
1.37443e-09
1.42535e-09
1.4772e-09
1.52947e-09
1.58155e-09
1.6327e-09
1.68206e-09
1.72865e-09
1.77137e-09
1.80882e-09
1.8395e-09
1.86121e-09
1.87123e-09
1.87253e-09
1.86003e-09
1.83217e-09
1.78826e-09
1.72792e-09
1.65126e-09
1.55885e-09
1.45161e-09
1.33089e-09
1.19887e-09
1.05956e-09
9.20194e-10
7.93001e-10
7.00931e-10
6.75334e-10
8.10533e-10
1.60859e-09
9.34242e-10
4.43961e-10
3.1276e-10
2.57697e-10
2.32698e-10
2.2376e-10
2.24545e-10
2.31997e-10
2.44018e-10
2.59153e-10
2.76366e-10
2.94934e-10
3.14387e-10
3.3445e-10
3.55005e-10
3.76039e-10
3.97616e-10
4.1984e-10
4.42831e-10
4.66711e-10
4.91584e-10
5.17533e-10
5.44613e-10
5.72846e-10
6.02224e-10
6.32708e-10
6.64233e-10
6.96714e-10
7.30051e-10
7.6414e-10
7.98885e-10
8.34208e-10
8.70061e-10
9.06438e-10
9.43381e-10
9.80981e-10
1.01938e-09
1.05876e-09
1.09932e-09
1.14128e-09
1.18483e-09
1.23011e-09
1.27722e-09
1.32617e-09
1.37685e-09
1.42908e-09
1.48254e-09
1.53682e-09
1.59139e-09
1.64564e-09
1.69881e-09
1.75005e-09
1.79835e-09
1.8426e-09
1.88138e-09
1.91311e-09
1.93541e-09
1.94551e-09
1.94654e-09
1.93297e-09
1.90331e-09
1.85687e-09
1.7934e-09
1.7133e-09
1.61748e-09
1.50721e-09
1.38397e-09
1.24977e-09
1.10806e-09
9.65461e-10
8.33935e-10
7.37082e-10
7.08409e-10
8.46909e-10
1.67749e-09
9.86465e-10
4.68529e-10
3.29695e-10
2.71267e-10
2.44615e-10
2.34949e-10
2.35518e-10
2.43084e-10
2.55408e-10
2.70942e-10
2.88586e-10
3.07586e-10
3.27455e-10
3.47921e-10
3.6887e-10
3.90303e-10
4.12294e-10
4.34959e-10
4.58426e-10
4.82822e-10
5.08254e-10
5.34808e-10
5.62538e-10
5.91469e-10
6.21591e-10
6.5287e-10
6.85245e-10
7.18636e-10
7.52952e-10
7.88101e-10
8.24001e-10
8.60589e-10
8.97836e-10
9.35752e-10
9.74392e-10
1.01386e-09
1.05431e-09
1.09591e-09
1.13886e-09
1.18335e-09
1.22955e-09
1.27757e-09
1.32748e-09
1.37924e-09
1.43271e-09
1.48766e-09
1.54376e-09
1.60058e-09
1.65759e-09
1.71413e-09
1.76948e-09
1.82275e-09
1.87296e-09
1.91895e-09
1.95927e-09
1.99229e-09
2.01542e-09
2.02576e-09
2.02657e-09
2.0119e-09
1.98022e-09
1.93078e-09
1.86345e-09
1.7789e-09
1.67851e-09
1.56404e-09
1.43733e-09
1.30036e-09
1.15614e-09
1.01055e-09
8.75065e-10
7.73671e-10
7.41978e-10
8.83703e-10
1.74696e-09
1.03991e-09
4.93658e-10
3.47002e-10
2.85129e-10
2.56788e-10
2.46382e-10
2.4673e-10
2.54405e-10
2.67024e-10
2.82938e-10
3.00991e-10
3.20393e-10
3.40649e-10
3.61487e-10
3.82805e-10
4.04617e-10
4.27013e-10
4.50117e-10
4.74068e-10
4.98998e-10
5.25019e-10
5.5222e-10
5.80656e-10
6.10352e-10
6.41304e-10
6.73479e-10
7.06821e-10
7.41258e-10
7.76709e-10
8.13093e-10
8.50342e-10
8.88408e-10
9.27275e-10
9.66967e-10
1.00755e-09
1.04914e-09
1.09187e-09
1.13593e-09
1.18149e-09
1.22872e-09
1.27775e-09
1.32869e-09
1.38154e-09
1.43623e-09
1.4926e-09
1.55039e-09
1.60924e-09
1.66871e-09
1.72825e-09
1.78723e-09
1.84489e-09
1.90037e-09
1.95267e-09
2.00062e-09
2.04272e-09
2.07729e-09
2.10159e-09
2.11242e-09
2.11315e-09
2.09746e-09
2.06366e-09
2.01088e-09
1.93903e-09
1.84906e-09
1.74287e-09
1.62285e-09
1.49145e-09
1.35087e-09
1.20379e-09
1.05533e-09
9.16233e-10
8.10585e-10
7.75974e-10
9.20866e-10
1.81691e-09
1.09455e-09
5.19338e-10
3.64674e-10
2.99276e-10
2.6921e-10
2.58048e-10
2.5817e-10
2.65946e-10
2.78846e-10
2.95122e-10
3.13557e-10
3.33332e-10
3.53944e-10
3.75128e-10
3.96796e-10
4.18977e-10
4.41774e-10
4.65328e-10
4.89785e-10
5.15284e-10
5.41943e-10
5.69851e-10
5.99068e-10
6.29622e-10
6.6151e-10
6.94704e-10
7.29155e-10
7.64798e-10
8.01562e-10
8.39377e-10
8.78187e-10
9.17957e-10
9.58682e-10
1.0004e-09
1.04317e-09
1.08712e-09
1.13239e-09
1.17913e-09
1.22751e-09
1.27767e-09
1.32972e-09
1.38372e-09
1.43964e-09
1.49738e-09
1.55675e-09
1.61747e-09
1.67916e-09
1.74137e-09
1.80354e-09
1.86506e-09
1.92517e-09
1.98302e-09
2.03759e-09
2.08771e-09
2.13185e-09
2.16823e-09
2.1941e-09
2.20576e-09
2.20659e-09
2.19012e-09
2.15427e-09
2.09795e-09
2.02106e-09
1.92478e-09
1.81152e-09
1.68451e-09
1.54697e-09
1.40164e-09
1.25109e-09
1.09969e-09
9.57278e-10
8.47693e-10
8.10309e-10
9.58334e-10
1.88724e-09
1.15037e-09
5.45558e-10
3.82704e-10
3.137e-10
2.81874e-10
2.69939e-10
2.69827e-10
2.77694e-10
2.90858e-10
3.07473e-10
3.26261e-10
3.46381e-10
3.67323e-10
3.88832e-10
4.10836e-10
4.33384e-10
4.56596e-10
4.80624e-10
5.05626e-10
5.31747e-10
5.5911e-10
5.87808e-10
6.17904e-10
6.49428e-10
6.82382e-10
7.16743e-10
7.52467e-10
7.89498e-10
8.27774e-10
8.67235e-10
9.07834e-10
9.49548e-10
9.92379e-10
1.03637e-09
1.08158e-09
1.12814e-09
1.17618e-09
1.22582e-09
1.27722e-09
1.33049e-09
1.3857e-09
1.44289e-09
1.502e-09
1.56288e-09
1.62534e-09
1.68905e-09
1.75365e-09
1.81867e-09
1.88356e-09
1.94771e-09
2.01038e-09
2.07072e-09
2.12772e-09
2.18021e-09
2.22661e-09
2.26509e-09
2.29293e-09
2.30583e-09
2.30705e-09
2.29014e-09
2.25245e-09
2.19259e-09
2.11032e-09
2.00696e-09