/*--------------------------------*- C++ -*----------------------------------*\
  =========                 |
  \\      /  F ield         | OpenFOAM: The Open Source CFD Toolbox
   \\    /   O peration     | Website:  https://openfoam.org
    \\  /    A nd           | Version:  12
     \\/     M anipulation  |
\*---------------------------------------------------------------------------*/
FoamFile
{
    format      ascii;
    class       volScalarField;
    location    "8";
    object      p;
}
// * * * * * * * * * * * * * * * * * * * * * * * * * * * * * * * * * * * * * //

dimensions      [0 2 -2 0 0 0 0];

internalField   nonuniform List<scalar> 
5625
(
8.56615e-10
-8.78064e-06
-8.74465e-05
-0.000237402
-0.000440188
-0.000679728
-0.000942887
-0.00122005
-0.00150481
-0.0017934
-0.00208416
-0.00237692
-0.00267252
-0.00297246
-0.00327851
-0.00359252
-0.00391623
-0.00425114
-0.00459841
-0.00495882
-0.00533275
-0.00572006
-0.00612015
-0.00653183
-0.00695331
-0.0073821
-0.00781492
-0.00824757
-0.00867483
-0.00909027
-0.00948607
-0.00985288
-0.0101796
-0.0104532
-0.0106584
-0.0107777
-0.0107912
-0.0106764
-0.0104082
-0.00995894
-0.00929889
-0.00839623
-0.00721781
-0.00572987
-0.00389908
-0.00169383
0.000914187
0.0039481
0.00742373
0.0113475
0.0157145
0.0204986
0.0256637
0.0311669
0.0369222
0.0428369
0.0488003
0.0546862
0.0603579
0.0656754
0.0705024
0.0747162
0.0782159
0.0809315
0.0828309
0.0839234
0.0842618
0.0839391
0.0830836
0.0818511
0.0804175
0.0789717
0.0777126
0.0768537
0.0765126
-1.20048e-05
-2.10161e-05
-9.51707e-05
-0.000235393
-0.000425237
-0.000650796
-0.000900327
-0.00116497
-0.00143861
-0.00171754
-0.00199991
-0.00228529
-0.00257426
-0.00286796
-0.00316788
-0.00347559
-0.00379258
-0.00412012
-0.0044592
-0.00481044
-0.00517407
-0.00554986
-0.00593709
-0.0063345
-0.00674024
-0.00715177
-0.00756578
-0.00797807
-0.00838344
-0.00877552
-0.00914662
-0.00948752
-0.00978735
-0.0100333
-0.0102106
-0.0103023
-0.0102888
-0.0101483
-0.00985664
-0.00938708
-0.00871081
-0.00779717
-0.00661422
-0.0051295
-0.00331096
-0.00112832
0.00144551
0.00443254
0.0078477
0.0116968
0.0159751
0.0206544
0.0257038
0.0310821
0.036699
0.0424704
0.0482886
0.0540319
0.0595687
0.0647646
0.0694891
0.0736247
0.0770753
0.0797746
0.0816926
0.0828391
0.0832652
0.0830604
0.0823472
0.081274
0.0800068
0.0787222
0.0776017
0.0768396
0.0765392
-1.3384e-05
-2.29381e-05
-9.32068e-05
-0.000224368
-0.000401513
-0.000612911
-0.000848227
-0.00109949
-0.00136098
-0.00162909
-0.00190188
-0.00217869
-0.00245981
-0.00274607
-0.00303866
-0.00333885
-0.00364786
-0.00396673
-0.00429625
-0.00463687
-0.00498866
-0.00535128
-0.00572389
-0.00610518
-0.00649321
-0.00688541
-0.00727847
-0.00766821
-0.00804948
-0.00841602
-0.00876028
-0.00907328
-0.00934443
-0.00956131
-0.00970959
-0.00977277
-0.00973213
-0.00956663
-0.00925287
-0.00876521
-0.00807593
-0.00715558
-0.0059735
-0.0044985
-0.00269986
-0.000548507
0.00198153
0.00491134
0.0082552
0.0120186
0.0161966
0.0207608
0.0256886
0.0309311
0.0364035
0.0420274
0.0476982
0.0532985
0.058702
0.0637792
0.0684051
0.0724668
0.0758726
0.0785592
0.0804984
0.0817003
0.0822144
0.0821268
0.0815545
0.0806383
0.0795343
0.0784055
0.0774153
0.0767355
0.076452
4.05203e-06
-7.49404e-06
-7.6035e-05
-0.000201311
-0.000369274
-0.000569774
-0.00079353
-0.00103344
-0.00128424
-0.00154248
-0.00180624
-0.00207476
-0.00234812
-0.00262693
-0.00291212
-0.00320475
-0.0035058
-0.00381612
-0.00413632
-0.00446669
-0.00480718
-0.00515734
-0.00551626
-0.00588255
-0.00625425
-0.00662879
-0.00700287
-0.00737236
-0.00773223
-0.00807635
-0.00839737
-0.00868658
-0.0089337
-0.00912676
-0.00925188
-0.00929317
-0.00923257
-0.0090498
-0.00872231
-0.00822538
-0.00753227
-0.00661455
-0.00544256
-0.00398613
-0.00221544
-0.000102209
0.00237891
0.00524863
0.00852114
0.012202
0.0162866
0.02075
0.0255719
0.0306966
0.0360522
0.041559
0.0471157
0.0526087
0.0579151
0.0629088
0.0674679
0.0714823
0.0748625
0.0775467
0.0795075
0.0807548
0.0813368
0.0813373
0.0808693
0.080068
0.0790814
0.0780616
0.077157
0.0765192
0.0762188
4.06937e-05
2.45649e-05
-4.48744e-05
-0.00016709
-0.000328868
-0.000521072
-0.000735537
-0.000965816
-0.00120713
-0.00145632
-0.00171153
-0.00197198
-0.00223763
-0.00250895
-0.00278668
-0.00307168
-0.00336475
-0.00366659
-0.00397762
-0.00429803
-0.00462765
-0.00496593
-0.00531191
-0.00566417
-0.00602073
-0.00637904
-0.00673585
-0.00708716
-0.00742804
-0.00775257
-0.00805364
-0.00832286
-0.00855033
-0.00872451
-0.00883209
-0.00885775
-0.00878413
-0.0085917
-0.00825871
-0.00776129
-0.00707356
-0.00616793
-0.00501556
-0.00358698
-0.00185294
0.000214446
0.00264036
0.00544564
0.00864491
0.0122445
0.0162406
0.0206127
0.0253375
0.0303631
0.0356227
0.0410371
0.0465077
0.0519235
0.0571638
0.0621045
0.066625
0.0706165
0.0739897
0.0766831
0.0786689
0.0799563
0.0805926
0.0806595
0.0802674
0.0795474
0.0786412
0.077692
0.0768361
0.0762061
0.0758616
9.55681e-05
7.18241e-05
-1.24225e-06
-0.000122816
-0.000280729
-0.000466735
-0.000673596
-0.000895544
-0.00112831
-0.00136903
-0.00161603
-0.00186854
-0.00212649
-0.00239023
-0.00266039
-0.00293765
-0.00322268
-0.003516
-0.00381794
-0.00412854
-0.00444755
-0.00477436
-0.00510795
-0.00544688
-0.00578921
-0.00613243
-0.00647338
-0.00680819
-0.00713212
-0.00743949
-0.00772349
-0.00797609
-0.00818782
-0.00834766
-0.00844284
-0.00845873
-0.00837865
-0.00818382
-0.00785328
-0.00736394
-0.0066907
-0.00580667
-0.00468363
-0.00329256
-0.0016045
0.000408385
0.00277152
0.0055063
0.00862822
0.0121449
0.0160539
0.0203383
0.0249734
0.0299121
0.0350905
0.0404305
0.0458361
0.0511981
0.056397
0.0613097
0.0658157
0.0698057
0.0731898
0.0759052
0.0779228
0.0792507
0.0799346
0.0800547
0.0797197
0.0790573
0.0782045
0.0772973
0.0764622
0.0758135
0.0754039
0.000167554
0.000133179
5.38216e-05
-6.9342e-05
-0.00022546
-0.000407101
-0.000607854
-0.000822637
-0.0010477
-0.00128053
-0.00151965
-0.0017644
-0.0020147
-0.00227085
-0.00253338
-0.00280286
-0.00307982
-0.00336468
-0.00365762
-0.00395862
-0.00426733
-0.00458309
-0.00490488
-0.00523125
-0.0055603
-0.00588961
-0.00621616
-0.00653624
-0.00684535
-0.00713809
-0.00740802
-0.00764751
-0.00784759
-0.0079978
-0.008086
-0.00809823
-0.00801853
-0.00782889
-0.00750911
-0.00703683
-0.00638761
-0.00553515
-0.00445164
-0.0031083
-0.00147618
0.000472862
0.00276485
0.00542211
0.00846145
0.0118921
0.0157136
0.0199121
0.0244635
0.0293241
0.0344331
0.0397139
0.0450726
0.0504011
0.0555808
0.0604882
0.0650022
0.0690119
0.0724252
0.0751773
0.0772365
0.078609
0.0793387
0.0795043
0.079213
0.0785902
0.0777694
0.0768808
0.0760436
0.075355
0.0748649
0.000255308
0.000207491
0.000119343
-7.5012e-06
-0.000163733
-0.000342678
-0.000538715
-0.000747435
-0.000965622
-0.00119115
-0.00142278
-0.00166
-0.00190278
-0.00215141
-0.00240634
-0.00266808
-0.00293704
-0.00321355
-0.0034977
-0.00378938
-0.00408819
-0.00439344
-0.00470411
-0.00501878
-0.00533564
-0.00565238
-0.00596614
-0.00627343
-0.00657005
-0.00685093
-0.00711004
-0.00734023
-0.00753308
-0.00767875
-0.00776577
-0.00778088
-0.00770889
-0.00753253
-0.00723233
-0.0067866
-0.00617149
-0.00536111
-0.0043279
-0.00304307
-0.0014774
0.000397872
0.0026097
0.00518173
0.00813244
0.0114731
0.0152054
0.0193187
0.0237905
0.0285801
0.0336296
0.0388643
0.0441919
0.0495053
0.054686
0.0596098
0.0641536
0.0682041
0.0716662
0.0744714
0.0765848
0.0780095
0.0787872
0.078995
0.0787383
0.0781414
0.0773352
0.076446
0.0755873
0.0748421
0.07426
0.000357269
0.000293466
0.000194244
6.17992e-05
-9.62852e-05
-0.000274054
-0.000466654
-0.000670345
-0.000882454
-0.00110126
-0.00132583
-0.00155581
-0.00179126
-0.0020325
-0.00227995
-0.00253406
-0.00279518
-0.00306354
-0.00333917
-0.00362189
-0.00391129
-0.00420665
-0.00450698
-0.00481093
-0.00511679
-0.00542241
-0.00572514
-0.00602177
-0.00630841
-0.00658041
-0.0068322
-0.00705718
-0.00724754
-0.00739409
-0.00748609
-0.00751103
-0.00745449
-0.00729993
-0.00702859
-0.00661939
-0.00604893
-0.00529161
-0.00431991
-0.00310483
-0.00161658
0.000174487
0.0022966
0.00477504
0.00763032
0.010876
0.0145165
0.0185441
0.0229386
0.0276624
0.0326604
0.0378599
0.0431702
0.0484849
0.0536851
0.0586454
0.0632404
0.0673531
0.0708842
0.0737607
0.0759434
0.0774313
0.0782629
0.0785132
0.0782865
0.0777058
0.0769007
0.0759952
0.0750994
0.0742846
0.0736025
0.000471735
0.000389718
0.000277356
0.000137571
-2.39321e-05
-0.000201895
-0.000392223
-0.000591842
-0.000798635
-0.00101131
-0.00122926
-0.00145232
-0.0016807
-0.00191475
-0.00215492
-0.00240159
-0.00265509
-0.00291557
-0.00318302
-0.00345724
-0.00373778
-0.00402394
-0.0043148
-0.00460909
-0.00490525
-0.00520132
-0.00549492
-0.00578315
-0.00606251
-0.00632881
-0.00657701
-0.00680111
-0.00699397
-0.00714713
-0.00725059
-0.00729265
-0.00725965
-0.00713579
-0.00690297
-0.00654062
-0.0060257
-0.00533276
-0.00443412
-0.00330035
-0.00190084
-0.000204784
0.00181761
0.00419358
0.00694593
0.0100908
0.0136356
0.0175757
0.0218937
0.0265551
0.0315076
0.0366808
0.0419854
0.0473157
0.0525524
0.0575682
0.0622347
0.0664307
0.070052
0.0730197
0.075289
0.0768538
0.0777487
0.0780459
0.0778482
0.0772779
0.0764641
0.0755301
0.0745846
0.0736905
0.072903
0.000596977
0.00049477
0.00036744
0.000218756
5.24316e-05
-0.000126958
-0.000316068
-0.000512499
-0.000714698
-0.00092183
-0.00113361
-0.00135013
-0.00157174
-0.00179888
-0.002032
-0.0022715
-0.00251767
-0.00277062
-0.00303032
-0.00329654
-0.00356885
-0.0038466
-0.00412893
-0.00441471
-0.00470257
-0.00499078
-0.00527726
-0.00555949
-0.00583442
-0.00609837
-0.0063469
-0.00657468
-0.00677529
-0.00694103
-0.00706272
-0.00712947
-0.00712839
-0.00704441
-0.00686002
-0.0065551
-0.00610686
-0.00548981
-0.00467598
-0.00363526
-0.00233601
-0.000745996
0.00116639
0.00343058
0.00607194
0.00910953
0.0125537
0.0164034
0.0206441
0.0252447
0.0301559
0.0353095
0.040618
0.0459762
0.0512644
0.0563533
0.0611111
0.0654117
0.0691447
0.0722247
0.0746
0.0762582
0.0772289
0.0775806
0.0774144
0.076852
0.0760231
0.0750515
0.0740468
0.0730658
0.0721697
0.000731244
0.000607109
0.000463195
0.000304225
0.000131831
-5.0084e-05
-0.000238933
-0.000432991
-0.000631282
-0.000833438
-0.00103953
-0.00124992
-0.00146511
-0.00168566
-0.00191206
-0.00214472
-0.00238391
-0.00262975
-0.00288219
-0.00314099
-0.00340576
-0.00367594
-0.00395076
-0.00422927
-0.0045103
-0.00479243
-0.00507392
-0.00535269
-0.00562618
-0.00589129
-0.00614426
-0.00638045
-0.00659425
-0.00677877
-0.00692568
-0.0070249
-0.00706433
-0.00702958
-0.0069037
-0.00666692
-0.00629658
-0.00576702
-0.00504978
-0.00411387
-0.00292642
-0.00145356
0.000338362
0.00248121
0.0050031
0.00792616
0.0112641
0.0150193
0.0191806
0.0237203
0.0285924
0.0337312
0.0390511
0.0444477
0.0498008
0.0549791
0.0598468
0.0642728
0.0681396
0.0713542
0.0738566
0.075627
0.0766886
0.0771056
0.0769765
0.0764229
0.0755754
0.07456
0.0734887
0.0724153
0.0714087
0.000872771
0.000725184
0.000563267
0.000392783
0.000213216
2.77943e-05
-0.000161654
-0.000354089
-0.000549124
-0.000746868
-0.000947769
-0.00115246
-0.00136164
-0.00157596
-0.00179602
-0.00202223
-0.00225487
-0.00249407
-0.00273978
-0.00299181
-0.00324981
-0.00351331
-0.00378171
-0.00405425
-0.00433002
-0.00460793
-0.00488665
-0.00516458
-0.00543974
-0.00570966
-0.00597129
-0.0062208
-0.00645337
-0.00666302
-0.00684226
-0.00698187
-0.0070705
-0.00709442
-0.00703716
-0.00687923
-0.00659795
-0.00616738
-0.00555837
-0.00473891
-0.0036747
-0.00233002
-0.000669018
0.00134277
0.00373638
0.00653719
0.00976236
0.0134179
0.0174964
0.0219736
0.0268071
0.0319339
0.0372708
0.0427142
0.0481438
0.0534261
0.0584217
0.0629933
0.0670161
0.0703882
0.0730404
0.0749439
0.0761142
0.0766099
0.0765266
0.0759854
0.0751186
0.0740553
0.0729124
0.0717424
0.0706241
0.0010198
0.000847418
0.000666246
0.000483168
0.000295454
0.000105659
-8.5162e-05
-0.000276665
-0.000469059
-0.000662945
-0.000859155
-0.00105861
-0.00126221
-0.00147075
-0.00168488
-0.00190508
-0.00213166
-0.00236474
-0.00260432
-0.00285026
-0.00310229
-0.00336007
-0.00362318
-0.0038911
-0.00416323
-0.00443885
-0.0047171
-0.00499691
-0.00527692
-0.00555538
-0.00583001
-0.0060978
-0.00635484
-0.00659603
-0.00681479
-0.00700272
-0.00714924
-0.00724122
-0.0072626
-0.00719407
-0.00701283
-0.00669248
-0.00620307
-0.0055114
-0.00458158
-0.0033759
-0.00185615
1.48452e-05
0.00227119
0.0049416
0.00804686
0.0115968
0.0155877
0.0199993
0.0247929
0.0299087
0.0352659
0.0407627
0.0462784
0.0516778
0.0568176
0.0615545
0.0657554
0.0693087
0.0721346
0.0741939
0.0754928
0.0760833
0.0760571
0.0755345
0.07465
0.0735373
0.0723194
0.0710497
0.0698188
0.00117057
0.000972195
0.000770668
0.000574051
0.000377339
0.000182405
-1.04816e-05
-0.000201685
-0.000392021
-0.000582591
-0.000774619
-0.000969322
-0.00116781
-0.00137103
-0.00157971
-0.00179439
-0.00201541
-0.00224295
-0.00247703
-0.0027176
-0.00296451
-0.00321756
-0.00347655
-0.00374124
-0.00401138
-0.00428668
-0.00456679
-0.00485124
-0.00513935
-0.00543013
-0.00572212
-0.00601321
-0.00630042
-0.00657958
-0.006845
-0.00708913
-0.0073021
-0.00747135
-0.00758115
-0.00761227
-0.00754168
-0.0073424
-0.00698354
-0.00643056
-0.00564586
-0.00458964
-0.00322123
-0.00150063
0.000609357
0.00314091
0.00611853
0.009556
0.0134534
0.0177949
0.0225456
0.0276494
0.0330285
0.0385828
0.0441923
0.0497202
0.0550193
0.05994
0.0643408
0.0680992
0.0711235
0.0733628
0.0748124
0.0755162
0.0755608
0.0750655
0.0741674
0.0730055
0.0717106
0.070339
0.0689945
0.0013233
0.00109787
0.00087502
0.000664036
0.000457585
0.000256841
6.12713e-05
-0.000130211
-0.00031904
-0.000506821
-0.000695179
-0.000885633
-0.00107951
-0.00127789
-0.00148162
-0.0016913
-0.00190733
-0.00212991
-0.00235917
-0.00259512
-0.00283776
-0.00308709
-0.00334314
-0.00360601
-0.00387582
-0.00415279
-0.00443711
-0.00472896
-0.00502841
-0.00533528
-0.00564899
-0.00596838
-0.00629141
-0.00661486
-0.00693396
-0.00724198
-0.00752975
-0.00778518
-0.00799282
-0.00813341
-0.00818359
-0.00811568
-0.00789772
-0.00749376
-0.00686436
-0.00596758
-0.0047602
-0.00319941
-0.00124482
0.0011392
0.00398102
0.0072984
0.0110956
0.0153609
0.0200641
0.0251531
0.0305535
0.0361676
0.0418763
0.0475418
0.0530135
0.0581355
0.062757
0.0667444
0.0699927
0.0724374
0.0740617
0.0748993
0.0750309
0.0745741
0.0736686
0.0724595
0.071087
0.0696119
0.0681522
0.00147623
0.00122278
0.000977734
0.000751664
0.00053483
0.000327691
0.000128889
-6.34016e-05
-0.00025124
-0.000436745
-0.000621944
-0.000808658
-0.00099843
-0.0011925
-0.00139181
-0.00159703
-0.00180862
-0.00202687
-0.00225196
-0.00248405
-0.00272329
-0.0029699
-0.0032242
-0.00348663
-0.00375779
-0.00403838
-0.00432923
-0.00463123
-0.00494522
-0.00527191
-0.00561163
-0.0059642
-0.00632856
-0.00670247
-0.00708205
-0.00746138
-0.00783192
-0.00818202
-0.00849641
-0.00875573
-0.00893616
-0.00900924
-0.00894186
-0.00869652
-0.00823195
-0.00750398
-0.00646686
-0.00507493
-0.00328464
-0.00105689
0.00164061
0.00482973
0.00851885
0.0127008
0.0173505
0.0224201
0.027839
0.0335128
0.039324
0.0451342
0.0507898
0.0561287
0.060991
0.0652307
0.0687289
0.0714057
0.0732302
0.0742243
0.0744613
0.0740563
0.0731515
0.0718991
0.0704495
0.0688697
0.0672928
0.00162754
0.00134519
0.00107719
0.000835406
0.000607634
0.000393593
0.000191072
-2.50672e-06
-0.00018984
-0.000373564
-0.000556108
-0.000739594
-0.000925782
-0.00111606
-0.00131148
-0.0015128
-0.00172053
-0.00193505
-0.00215665
-0.00238562
-0.0026223
-0.00286717
-0.00312086
-0.00338423
-0.00365833
-0.00394446
-0.00424412
-0.00455893
-0.00489059
-0.0052407
-0.0056106
-0.00600107
-0.00641207
-0.00684234
-0.00728889
-0.00774654
-0.00820738
-0.0086601
-0.00908956
-0.00947617
-0.0097956
-0.0100185
-0.0101105
-0.0100326
-0.00974161
-0.00919112
-0.00833288
-0.00711841
-0.00550108
-0.00343834
-0.000893846
0.00215848
0.00573097
0.00982129
0.01441
0.0194537
0.0248866
0.0306179
0.0365323
0.0424919
0.0483403
0.05391
0.0590315
0.0635463
0.06732
0.0702562
0.0723078
0.0734831
0.0738462
0.0735085
0.0726147
0.0713241
0.0697991
0.0681135
0.0664172
0.0017754
0.00146334
0.0011717
0.000913665
0.000674479
0.000453097
0.000246431
5.11299e-05
-0.000136151
-0.000318567
-0.000498947
-0.00067971
-0.000862831
-0.00104985
-0.00124191
-0.00143986
-0.00164429
-0.00185568
-0.00207442
-0.00230098
-0.00253591
-0.00277997
-0.00303416
-0.00329975
-0.00357834
-0.00387185
-0.00418248
-0.00451266
-0.00486497
-0.00524197
-0.00564599
-0.00607886
-0.00654154
-0.00703372
-0.0075533
-0.00809583
-0.00865392
-0.00921659
-0.00976869
-0.0102904
-0.0107567
-0.0111373
-0.0113967
-0.0114941
-0.0113845
-0.0110194
-0.0103479
-0.00931896
-0.00788285
-0.00599374
-0.00361092
-0.000704275
0.00274186
0.00673187
0.011251
0.016261
0.0217012
0.0274855
0.0335015
0.0396125
0.0456604
0.0514722
0.0568695
0.0616808
0.0657554
0.0689787
0.0712855
0.0726684
0.0731802
0.0729275
0.0720567
0.070735
0.0691369
0.0673449
0.0655265
0.00191797
0.00157545
0.00125954
0.000984773
0.000733768
0.000504672
0.000293489
9.60748e-05
-9.15714e-05
-0.000273125
-0.000451813
-0.000630345
-0.000810898
-0.000995157
-0.00118438
-0.00137948
-0.00158114
-0.00178995
-0.00200643
-0.00223123
-0.00246516
-0.00270927
-0.00296496
-0.00323398
-0.0035185
-0.0038211
-0.00414473
-0.00449268
-0.00486845
-0.00527558
-0.00571744
-0.00619689
-0.00671591
-0.00727515
-0.00787335
-0.00850674
-0.0091684
-0.00984759
-0.0105291
-0.0111927
-0.0118129
-0.0123582
-0.0127918
-0.0130715
-0.0131502
-0.0129774
-0.0124998
-0.0116637
-0.0104165
-0.00870896
-0.00649631
-0.00374504
-0.000435957
0.0034457
0.00788525
0.0128521
0.0182913
0.0241219
0.0302354
0.0364972
0.0427481
0.0488109
0.0544985
0.059626
0.0640259
0.067564
0.0701549
0.0717732
0.0724585
0.0723106
0.0714769
0.0701322
0.0684647
0.0665659
0.0646223
0.00205333
0.00167964
0.00133891
0.00104699
0.000783824
0.000546699
0.000330679
0.000130806
-5.75862e-05
-0.000238693
-0.000416133
-0.000592896
-0.000771357
-0.000953335
-0.00114019
-0.00133291
-0.0015323
-0.00173901
-0.00195377
-0.00217739
-0.00241096
-0.00265588
-0.00291398
-0.00318751
-0.00347926
-0.0037925
-0.004131
-0.00449893
-0.00490073
-0.00534097
-0.00582407
-0.00635393
-0.00693355
-0.0075645
-0.00824633
-0.0089759
-0.00974672
-0.0105482
-0.011365
-0.0121765
-0.0129564
-0.0136723
-0.014286
-0.0147538
-0.0150267
-0.0150522
-0.0147747
-0.0141379
-0.0130863
-0.0115664
-0.00953215
-0.00694723
-0.00378255
-2.09455e-05
0.00432779
0.00924085
0.014669
0.0205371
0.0267416
0.0331506
0.0396055
0.0459252
0.0519146
0.0573759
0.0621241
0.0660042
0.0689086
0.0707916
0.0716769
0.0716556
0.0708749
0.0695172
0.0677847
0.0657787
0.0637067
0.00217955
0.00177401
0.00140793
0.00109852
0.000822893
0.000577476
0.000356348
0.000153715
-3.57625e-05
-0.000216801
-0.000393399
-0.000568818
-0.000745619
-0.000925747
-0.00111065
-0.00130142
-0.00149893
-0.00170397
-0.00191743
-0.00214035
-0.0023741
-0.00262048
-0.00288174
-0.00316072
-0.00346083
-0.00378609
-0.00414111
-0.00453097
-0.00496111
-0.00543713
-0.0059645
-0.00654819
-0.00719218
-0.00789894
-0.00866879
-0.00949916
-0.0103839
-0.0113126
-0.0122696
-0.0132339
-0.0141784
-0.0150697
-0.0158683
-0.0165288
-0.0170007
-0.0172294
-0.0171572
-0.0167253
-0.0158751
-0.0145506
-0.0127044
-0.0102928
-0.00727997
-0.00365091
0.000596489
0.00544431
0.0108501
0.0167451
0.0230315
0.0295816
0.0362379
0.0428172
0.049117
0.0549271
0.0600447
0.064293
0.0675404
0.0697183
0.0708316
0.0709608
0.0702509
0.0688916
0.0670995
0.0649866
0.0627827
0.00229463
0.00185659
0.00146468
0.00113745
0.000849134
0.000595215
0.000368757
0.000163111
-2.77465e-05
-0.000209047
-0.000385163
-0.000559612
-0.000735128
-0.000913771
-0.00109708
-0.00128622
-0.00148216
-0.00168585
-0.00189832
-0.00212089
-0.00235524
-0.00260355
-0.00286858
-0.00315375
-0.00346315
-0.00380159
-0.00417454
-0.00458801
-0.00504848
-0.0055626
-0.00613688
-0.00677734
-0.00748894
-0.00827501
-0.00913659
-0.0100716
-0.0110743
-0.012134
-0.0132353
-0.0143562
-0.0154691
-0.0165394
-0.0175264
-0.0183832
-0.0190577
-0.0194934
-0.0196307
-0.0194085
-0.0187657
-0.0176446
-0.0159921
-0.0137597
-0.0109103
-0.0074225
-0.00328757
0.0014829
0.00685371
0.0127633
0.0191206
0.0258027
0.032655
0.039493
0.0461083
0.0522791
0.0577849
0.062426
0.0660454
0.0685489
0.0699199
0.0702252
0.0696058
0.0682579
0.0664126
0.0641935
0.0618543
0.00239654
0.00192535
0.00150716
0.00116183
0.000860628
0.000598042
0.000366083
0.00015722
-3.52587e-05
-0.000217098
-0.000393031
-0.000566818
-0.00074135
-0.000918791
-0.00110076
-0.00128849
-0.00148308
-0.00168559
-0.00189726
-0.00211968
-0.00235485
-0.00260541
-0.00287462
-0.00316651
-0.00348592
-0.00383844
-0.00423043
-0.00466891
-0.00516136
-0.00571548
-0.00633886
-0.00703854
-0.00782041
-0.00868865
-0.00964493
-0.0106877
-0.0118113
-0.0130052
-0.0142535
-0.0155339
-0.0168177
-0.0180696
-0.0192473
-0.0203029
-0.0211824
-0.0218277
-0.0221774
-0.0221683
-0.0217372
-0.0208233
-0.0193699
-0.0173253
-0.0146485
-0.0113117
-0.00730056
-0.00261989
0.00270266
0.00861326
0.0150281
0.0218308
0.0288703
0.0359627
0.042895
0.0494347
0.0553442
0.0604009
0.0644203
0.0672802
0.0689397
0.0694484
0.0689412
0.0676192
0.0657284
0.0634041
0.060926
0.00248316
0.0019782
0.00153327
0.00116961
0.000855368
0.000583999
0.000346418
0.000134191
-6.00906e-05
-0.000242678
-0.000418654
-0.000592004
-0.000765761
-0.000942178
-0.00112294
-0.00130938
-0.00150266
-0.00170403
-0.00191492
-0.0021372
-0.00237326
-0.00262616
-0.00289974
-0.00319867
-0.00352853
-0.00389575
-0.00430763
-0.00477215
-0.00529784
-0.00589346
-0.00656766
-0.00732846
-0.00818268
-0.00913525
-0.0101885
-0.0113411
-0.0125878
-0.013918
-0.0153152
-0.0167568
-0.0182131
-0.0196477
-0.0210175
-0.0222728
-0.0233586
-0.024215
-0.0247788
-0.024985
-0.0247684
-0.0240653
-0.022816
-0.0209657
-0.0184691
-0.0152927
-0.0114162
-0.00683776
-0.00157722
0.00431974
0.0107774
0.0176866
0.0249016
0.0322404
0.0394872
0.0464002
0.0527257
0.0582178
0.0626636
0.0659106
0.0678899
0.0686308
0.0682592
0.0669793
0.0650518
0.0626241
0.060004
0.00255235
0.00201296
0.00154088
0.00115866
0.000831262
0.000551041
0.000307772
9.20968e-05
-0.000104099
-0.000287567
-0.000463722
-0.000636761
-0.000809838
-0.000985285
-0.00116485
-0.00134993
-0.00154182
-0.00174189
-0.00195184
-0.0021738
-0.00241058
-0.00266571
-0.00294361
-0.00324964
-0.00359012
-0.00397238
-0.00440463
-0.00489588
-0.00545568
-0.00609386
-0.00682008
-0.00764335
-0.00857135
-0.00960975
-0.0107614
-0.0120253
-0.0133964
-0.0148638
-0.0164109
-0.0180142
-0.0196433
-0.0212609
-0.0228227
-0.0242778
-0.0255697
-0.0266373
-0.0274157
-0.0278383
-0.0278377
-0.027348
-0.0263066
-0.0246557
-0.0223457
-0.0193378
-0.0156062
-0.011142
-0.00595726
-8.92108e-05
0.0063952
0.0133949
0.0207709
0.0283446
0.0358993
0.0431859
0.0499355
0.0558797
0.0607762
0.0644399
0.0667707
0.0677741
0.0675631
0.0663431
0.0643888
0.0618602
0.0590952
0.00260186
0.00202739
0.00152772
0.00112676
0.000786125
0.000497034
0.000248074
2.89355e-05
-0.000169204
-0.000353589
-0.000529955
-0.000702687
-0.000875049
-0.00104943
-0.00122764
-0.00141115
-0.00160135
-0.00179979
-0.0020084
-0.00222966
-0.00246676
-0.00272376
-0.00300567
-0.00331856
-0.00366956
-0.00406686
-0.00451964
-0.00503791
-0.00563227
-0.00631359
-0.00709255
-0.00797906
-0.00898166
-0.0101067
-0.0113574
-0.0127332
-0.014229
-0.0158338
-0.0175305
-0.0192951
-0.0210963
-0.0228959
-0.0246485
-0.0263021
-0.0277989
-0.0290766
-0.0300689
-0.0307074
-0.0309232
-0.0306481
-0.0298169
-0.0283689
-0.0262506
-0.0234184
-0.0198407
-0.0155019
-0.0104065
-0.00458274
0.00191144
0.00898401
0.0165039
0.0242979
0.0321501
0.0398059
0.0469836
0.0533926
0.0587613
0.0628698
0.0655838
0.0668805
0.0668568
0.0657162
0.0637465
0.0611203
0.0582079
0.00262939
0.00201916
0.00149147
0.00107159
0.000717681
0.000419756
0.000165169
-5.73645e-05
-0.000257381
-0.000442611
-0.000619093
-0.000791385
-0.000962839
-0.0011359
-0.00131241
-0.00149392
-0.00168193
-0.00187818
-0.00208485
-0.00230476
-0.00254153
-0.00279977
-0.00308511
-0.00340435
-0.00376544
-0.00417746
-0.00465057
-0.00519578
-0.00582474
-0.00654932
-0.00738118
-0.00833115
-0.00940851
-0.0106202
-0.01197
-0.0134574
-0.0150775
-0.0168188
-0.018664
-0.0205883
-0.0225599
-0.0245394
-0.0264805
-0.0283301
-0.0300294
-0.0315148
-0.0327188
-0.0335716
-0.0340026
-0.0339418
-0.0333217
-0.0320786
-0.0301557
-0.0275046
-0.0240886
-0.0198855
-0.014892
-0.00912774
-0.00264111
0.00448561
0.0121304
0.0201269
0.0282622
0.0362788
0.0438838
0.0507662
0.056625
0.0612044
0.0643324
0.0659541
0.0661454
0.0651053
0.063133
0.0604134
0.0573516
0.00263257
0.00198584
0.0014297
0.000990734
0.000623557
0.000316893
5.68207e-05
-0.000168944
-0.000370659
-0.000556533
-0.000732891
-0.000904447
-0.00107462
-0.0012459
-0.00142017
-0.00159903
-0.00178413
-0.00197738
-0.00218125
-0.0023989
-0.00263444
-0.00289301
-0.00318091
-0.00350568
-0.00387611
-0.0043022
-0.00479507
-0.00536675
-0.00602989
-0.00679738
-0.00768182
-0.00869488
-0.00984658
-0.0111444
-0.0125925
-0.0141904
-0.0159333
-0.0178095
-0.0198011
-0.0218828
-0.0240218
-0.0261781
-0.0283043
-0.0303464
-0.0322446
-0.0339341
-0.0353463
-0.0364103
-0.0370541
-0.0372059
-0.036796
-0.0357583
-0.0340327
-0.0315668
-0.0283186
-0.0242598
-0.0193797
-0.0136894
-0.00722752
-6.60374e-05
0.00768303
0.0158618
0.0242624
0.0326269
0.0406537
0.0480136
0.0543765
0.05945
0.0630216
0.0649999
0.0654355
0.0645184
0.0625574
0.0597497
0.0565371
0.00260894
0.00192494
0.00133986
0.00088168
0.000501275
0.000186036
-7.92885e-05
-0.00030801
-0.000511115
-0.000697282
-0.000873108
-0.00104344
-0.00121177
-0.00138059
-0.00155183
-0.00172717
-0.00190837
-0.00209756
-0.00229749
-0.00251172
-0.00274482
-0.00300253
-0.00329182
-0.00362099
-0.0039997
-0.00443887
-0.00495057
-0.00554785
-0.00624436
-0.00705395
-0.00799013
-0.00906538
-0.0102904
-0.0116731
-0.0132181
-0.0149246
-0.0167881
-0.0187966
-0.0209317
-0.0231674
-0.0254702
-0.0277991
-0.030106
-0.032336
-0.0344282
-0.036317
-0.0379329
-0.0392038
-0.0400563
-0.0404174
-0.0402153
-0.0393819
-0.0378539
-0.0355751
-0.0324991
-0.0285918
-0.0238351
-0.018232
-0.0118113
-0.00463449
0.00319735
0.0115362
0.0201814
0.0288769
0.0373154
0.0451516
0.0520283
0.0576159
0.0616587
0.0640249
0.0647345
0.0639644
0.0620304
0.0591408
0.0557768
0.00255593
0.00183381
0.00121932
0.000741789
0.00034825
2.46786e-05
-0.00024556
-0.000476836
-0.00068087
-0.000866805
-0.0010415
-0.00120992
-0.0013756
-0.00154105
-0.00170822
-0.00187888
-0.00205492
-0.00223871
-0.00243329
-0.00264263
-0.00287181
-0.00312717
-0.00341637
-0.00374852
-0.00413413
-0.00458503
-0.00511429
-0.00573593
-0.00646457
-0.00731502
-0.00830162
-0.00943762
-0.0107343
-0.0122001
-0.0138398
-0.0156523
-0.0176337
-0.0197711
-0.0220459
-0.0244313
-0.0268932
-0.0293898
-0.031872
-0.0342842
-0.0365648
-0.0386471
-0.0404608
-0.0419329
-0.0429889
-0.0435544
-0.0435563
-0.0429241
-0.0415921
-0.0395008
-0.0365995
-0.0328486
-0.0282237
-0.0227194
-0.0163553
-0.00918191
-0.00128907
0.00718639
0.0160528
0.0250588
0.0338943
0.042201
0.0495965
0.0557142
0.0602533
0.0630377
0.0640518
0.0634539
0.0615636
0.0585997
0.0550844
0.0024709
0.00170973
0.00106529
0.000568303
0.000161779
-0.00016979
-0.000444482
-0.000677757
-0.000882084
-0.00106707
-0.00123981
-0.00140538
-0.00156735
-0.00172824
-0.00189004
-0.00205458
-0.00222393
-0.00240067
-0.00258819
-0.00279089
-0.00301436
-0.00326557
-0.00355293
-0.00388631
-0.00427711
-0.0047381
-0.0052833
-0.00592769
-0.00668685
-0.00757648
-0.00861174
-0.00980658
-0.0111728
-0.0127193
-0.014451
-0.0163663
-0.0184619
-0.0207242
-0.0231342
-0.0256644
-0.0282799
-0.0309382
-0.0335896
-0.0361775
-0.0386396
-0.0409085
-0.0429131
-0.0445796
-0.0458326
-0.0465964
-0.0467967
-0.0463612
-0.0452218
-0.0433163
-0.04059
-0.0369986
-0.0325115
-0.0271159
-0.0208219
-0.0136698
-0.00573728
0.00285071
0.0119133
0.0212063
0.0304201
0.0391865
0.0471005
0.0537602
0.0588176
0.0620492
0.0633982
0.0629987
0.0611705
0.0581408
0.0544751
0.00235107
0.00154984
0.000874869
0.000358329
-6.09644e-05
-0.000400088
-0.000678629
-0.000913172
-0.00111695
-0.00130003
-0.00146975
-0.00163128
-0.0017882
-0.00194306
-0.00209787
-0.00225456
-0.00241536
-0.00258311
-0.00276156
-0.00295555
-0.00317123
-0.00341622
-0.00369966
-0.00403225
-0.00442625
-0.00489536
-0.00545455
-0.00611975
-0.00690746
-0.00783421
-0.00891594
-0.0101672
-0.0116004
-0.0132246
-0.0150452
-0.0170593
-0.019265
-0.0216475
-0.0241875
-0.0268568
-0.0296197
-0.0324332
-0.0352467
-0.038003
-0.0406389
-0.0430867
-0.0452743
-0.0471273
-0.0485694
-0.0495242
-0.0499158
-0.0496708
-0.048719
-0.0469957
-0.0444427
-0.0410116
-0.0366662
-0.0313867
-0.0251746
-0.0180596
-0.0101077
-0.00143112
0.00780165
0.0173559
0.0269254
0.0361362
0.0445637
0.0517724
0.0573665
0.0610723
0.0627862
0.0626124
0.0608658
0.0577801
0.0539659
0.00219355
0.00135111
0.000644987
0.000108823
-0.000322945
-0.000669051
-0.000950664
-0.00118554
-0.0013877
-0.00156766
-0.00173301
-0.001889
-0.00203924
-0.00218627
-0.00233216
-0.00247893
-0.00262901
-0.00278551
-0.00295257
-0.00313551
-0.00334101
-0.00357741
-0.00385458
-0.00418406
-0.00457899
-0.00505398
-0.00562493
-0.00630868
-0.00712262
-0.0080841
-0.00920974
-0.0105147
-0.0120118
-0.0137103
-0.0156163
-0.0177244
-0.0200357
-0.0225331
-0.0251974
-0.0279994
-0.0309031
-0.0338645
-0.0368324
-0.0397489
-0.0425504
-0.0451684
-0.0475302
-0.0495608
-0.0511832
-0.0523202
-0.052895
-0.0528328
-0.0520618
-0.0505151
-0.0481318
-0.0448596
-0.0406573
-0.0354989
-0.0293777
-0.0223137
-0.0143611
-0.00561877
0.00375797
0.0135461
0.0234461
0.0330818
0.0420128
0.0497729
0.0559179
0.0601223
0.0622306
0.0623101
0.060666
0.0575353
0.0535753
0.00199532
0.00111038
0.000372409
-0.000183423
-0.000627276
-0.000979639
-0.00126335
-0.00149739
-0.00169658
-0.00187193
-0.00203125
-0.00217988
-0.00232145
-0.00245852
-0.00259321
-0.00272767
-0.00286453
-0.00300721
-0.00316025
-0.00332947
-0.00352215
-0.00374731
-0.00401561
-0.0043394
-0.00473272
-0.00521108
-0.00579128
-0.00649107
-0.00732865
-0.00832212
-0.00948878
-0.0108443
-0.0124018
-0.014171
-0.0161586
-0.0183552
-0.020767
-0.0233736
-0.026156
-0.0290841
-0.0321211
-0.0352226
-0.0383366
-0.0414048
-0.0443629
-0.0471416
-0.0496681
-0.0518666
-0.0536596
-0.054969
-0.0557175
-0.055829
-0.0552306
-0.0538533
-0.0516338
-0.0485168
-0.0444567
-0.0394217
-0.033398
-0.026396