/*--------------------------------*- C++ -*----------------------------------*\
  =========                 |
  \\      /  F ield         | OpenFOAM: The Open Source CFD Toolbox
   \\    /   O peration     | Website:  https://openfoam.org
    \\  /    A nd           | Version:  12
     \\/     M anipulation  |
\*---------------------------------------------------------------------------*/
FoamFile
{
    format      ascii;
    class       volScalarField;
    location    "0.5";
    object      epsilon;
}
// * * * * * * * * * * * * * * * * * * * * * * * * * * * * * * * * * * * * * //

dimensions      [0 2 -3 0 0 0 0];

internalField   nonuniform List<scalar> 
5625
(
2.95518e-05
0.000147585
0.000322442
0.000531526
0.000764482
0.00101497
0.00127832
0.00155079
0.00182916
0.00211064
0.0023927
0.00267309
0.00294978
0.00322093
0.00348491
0.00374029
0.00398581
0.00422039
0.00444316
0.00465337
0.00485048
0.00503405
0.00520378
0.00535949
0.00550108
0.00562853
0.00574187
0.00584117
0.00592654
0.0059981
0.00605595
0.00610022
0.006131
0.00614831
0.00615241
0.0061434
0.0061213
0.00608617
0.00603815
0.00597726
0.00590364
0.00581746
0.00571892
0.00560826
0.00548581
0.00535193
0.00520706
0.00505171
0.00488647
0.00471199
0.004529
0.00433829
0.0041407
0.00393712
0.00372849
0.00351577
0.00329993
0.00308195
0.00286281
0.00264348
0.00242489
0.00220797
0.00199361
0.00178269
0.00157607
0.00137461
0.00117922
0.000990833
0.000810519
0.000639517
0.000479374
0.000332194
0.00020116
9.20436e-05
1.84364e-05
0.000147681
0.00012034
0.000180785
0.000270334
0.000375561
0.00049099
0.000613501
0.000740912
0.000871505
0.00100384
0.00113665
0.00126883
0.00139938
0.0015274
0.00165212
0.00177283
0.00188893
0.0019999
0.00210531
0.00220481
0.00229812
0.00238503
0.0024654
0.00253913
0.00260616
0.00266649
0.00272012
0.00276708
0.00280742
0.00284119
0.00286845
0.00288924
0.00290363
0.00291161
0.00291332
0.0029088
0.00289807
0.00288118
0.00285817
0.00282909
0.002794
0.00275298
0.00270613
0.00265359
0.00259549
0.00253203
0.00246342
0.0023899
0.00231175
0.00222927
0.00214282
0.00205276
0.00195949
0.00186342
0.00176499
0.00166465
0.00156285
0.00146005
0.0013567
0.00125326
0.00115017
0.00104786
0.000946758
0.000847287
0.000749866
0.000654923
0.000562909
0.000474322
0.000389739
0.000309883
0.000235753
0.000168937
0.000112524
7.46363e-05
9.1942e-05
0.000323512
0.000181446
0.000185771
0.000229964
0.000292846
0.00036664
0.00044749
0.000533059
0.000621713
0.00071219
0.000803456
0.000894627
0.000984936
0.0010737
0.00116034
0.00124432
0.00132521
0.00140261
0.0014762
0.00154573
0.00161099
0.00167181
0.00172808
0.00177973
0.0018267
0.00186899
0.00190658
0.00193949
0.00196776
0.0019914
0.00201046
0.00202498
0.00203498
0.00204046
0.00204153
0.00203822
0.00203055
0.00201856
0.00200227
0.00198175
0.00195702
0.00192817
0.00189527
0.00185842
0.00181773
0.00177334
0.00172539
0.00167407
0.00161956
0.0015621
0.0015019
0.00143923
0.00137436
0.00130758
0.00123917
0.00116944
0.00109872
0.00102729
0.000955488
0.000883614
0.000811981
0.000740897
0.000670668
0.000601607
0.000534038
0.000468304
0.000404789
0.000343946
0.00028635
0.0002328
0.000184535
0.000143759
0.000115151
0.000111789
0.000200036
0.000535705
0.000272722
0.000231402
0.000244396
0.000281327
0.000331657
0.000390404
0.000454715
0.000522723
0.000593074
0.000664715
0.000736782
0.000808546
0.000879382
0.000948746
0.00101617
0.00108125
0.00114364
0.00120305
0.00125926
0.00131206
0.00136132
0.00140692
0.00144879
0.00148688
0.00152117
0.00155164
0.0015783
0.00160116
0.00162025
0.0016356
0.00164723
0.00165517
0.0016594
0.00166004
0.00165711
0.00165063
0.00164063
0.00162715
0.00161024
0.00158995
0.00156633
0.00153947
0.00150945
0.00147637
0.00144034
0.00140149
0.00135997
0.00131594
0.00126958
0.00122107
0.00117061
0.00111843
0.00106475
0.0010098
0.00095382
0.000897055
0.000839754
0.000782167
0.000724545
0.000667142
0.000610218
0.000554036
0.000498878
0.000445045
0.000392878
0.000342781
0.000295262
0.000251009
0.000211033
0.000176972
0.00015181
0.000141991
0.000166225
0.000327726
0.000775401
0.000381384
0.000296878
0.000283597
0.000300393
0.000333696
0.00037726
0.000427632
0.000482617
0.000540672
0.000600634
0.000661577
0.000722736
0.000783467
0.000843217
0.000901514
0.000957955
0.0010122
0.00106395
0.00111298
0.0011591
0.00120215
0.00124203
0.00127866
0.00131197
0.00134193
0.00136853
0.00139177
0.00141166
0.00142821
0.00144145
0.0014514
0.00145809
0.00146147
0.00146172
0.00145881
0.00145278
0.00144367
0.0014315
0.00141634
0.00139824
0.00137726
0.00135347
0.00132696
0.00129782
0.00126614
0.00123206
0.0011957
0.00115721
0.00111673
0.00107444
0.0010305
0.000985119
0.000938477
0.000890777
0.000842227
0.000793037
0.000743425
0.000693609
0.000643813
0.000594267
0.000545211
0.0004969
0.00044961
0.000403653
0.000359394
0.000317293
0.000277942
0.000242177
0.000211253
0.000187224
0.000173862
0.000179456
0.000229036
0.000467459
0.00103788
0.000502677
0.000374848
0.000337333
0.000336735
0.000356045
0.000387724
0.000427658
0.00047325
0.000522747
0.000574841
0.000628503
0.000682896
0.00073732
0.000791182
0.000843977
0.000895277
0.000944717
0.000991995
0.00103686
0.0010791
0.00111857
0.00115514
0.00118871
0.00121923
0.00124665
0.00127096
0.00129215
0.00131022
0.00132519
0.00133709
0.00134592
0.00135173
0.00135445
0.0013543
0.00135123
0.00134528
0.00133649
0.00132491
0.00131058
0.00129357
0.00127393
0.00125175
0.00122709
0.00120006
0.00117075
0.00113927
0.00110575
0.00107032
0.00103312
0.000994302
0.000954036
0.000912492
0.000869848
0.000826292
0.000782013
0.000737211
0.000692085
0.000646842
0.000601696
0.000556868
0.000512596
0.000469136
0.000426779
0.000385858
0.000346779
0.000310057
0.000276392
0.00024677
0.000222683
0.000206586
0.000203042
0.000222288
0.000296219
0.000614022
0.00132013
0.000634238
0.000461934
0.000400929
0.000384379
0.000391425
0.000413063
0.000444481
0.000482749
0.000525842
0.000572255
0.000620833
0.000670656
0.00072095
0.000771064
0.000820443
0.000868617
0.000915187
0.000959823
0.00100225
0.00104224
0.00107962
0.00111425
0.00114604
0.0011749
0.0012008
0.00122371
0.00124362
0.00126053
0.00127446
0.00128544
0.00129348
0.0012986
0.00130076
0.00130021
0.00129687
0.00129078
0.001282
0.00127057
0.00125654
0.00123998
0.00122095
0.00119951
0.00117575
0.00114976
0.00112164
0.00109149
0.00105943
0.00102558
0.000990103
0.000953131
0.000914826
0.000875357
0.000834897
0.00079363
0.000751742
0.000709428
0.000666887
0.000624323
0.00058195
0.000539994
0.000498697
0.000458326
0.000419184
0.000381642
0.000346154
0.000313305
0.000283881
0.000259009
0.000240406
0.000230921
0.000235913
0.000267657
0.000365196
0.000763141
0.00162006
0.000774645
0.000556292
0.000471901
0.000440132
0.000435949
0.000448728
0.000472919
0.000505146
0.000543129
0.000585219
0.000630135
0.000676823
0.000724415
0.000772181
0.000819497
0.000865843
0.000910787
0.000953962
0.000995061
0.00103384
0.00107009
0.00110368
0.00113447
0.00116241
0.00118743
0.0012095
0.00122862
0.00124478
0.00125802
0.00126834
0.00127578
0.00128033
0.00128201
0.00128103
0.00127733
0.00127096
0.00126197
0.00125041
0.00123633
0.0012198
0.00120087
0.00117961
0.00115611
0.00113045
0.00110272
0.00107304
0.00104151
0.00100828
0.000973473
0.000937245
0.000899756
0.000861175
0.00082168
0.000781457
0.000740699
0.000699603
0.000658376
0.000617228
0.000576383
0.000536074
0.000496559
0.000458123
0.000421096
0.000385875
0.000352952
0.000322971
0.000296808
0.00027572
0.000261643
0.000257799
0.000270358
0.00031366
0.000433945
0.000911036
0.00193603
0.000922925
0.00065679
0.000548765
0.000502098
0.000487325
0.000492019
0.00050984
0.000536964
0.000570833
0.000609588
0.000651785
0.000696265
0.000742073
0.000788403
0.000834573
0.000880001
0.000924194
0.00096674
0.0010073
0.00104559
0.0010814
0.00111455
0.00114493
0.00117244
0.00119703
0.00121866
0.00123733
0.00125304
0.0012658
0.00127566
0.00128263
0.00128669
0.00128792
0.0012865
0.00128236
0.00127558
0.00126619
0.00125426
0.00123983
0.00122297
0.00120374
0.0011822
0.00115844
0.00113255
0.00110461
0.00107475
0.00104307
0.00100971
0.000974814
0.000938533
0.000901035
0.000862497
0.000823106
0.000783056
0.000742549
0.000701795
0.000661008
0.000620412
0.000580242
0.000540746
0.000502196
0.000464895
0.000429196
0.000395525
0.000364415
0.000336564
0.000312926
0.000294881
0.000284572
0.00028558
0.000304875
0.000358832
0.00050073
0.00105427
0.00226676
0.00107835
0.000762656
0.00063055
0.000569079
0.000544074
0.000541222
0.000553286
0.000575978
0.000606438
0.000642592
0.000682842
0.000725903
0.000770708
0.000816362
0.000862104
0.000907287
0.000951362
0.000993869
0.00103444
0.00107276
0.00110859
0.00114174
0.00117209
0.00119952
0.00122398
0.00124544
0.00126389
0.00127932
0.00129177
0.00130126
0.00130783
0.00131143
0.00131222
0.0013103
0.00130566
0.00129834
0.00128839
0.00127587
0.00126084
0.00124336
0.00122348
0.00120129
0.00117687
0.00115029
0.00112166
0.0010911
0.00105872
0.00102466
0.000989077
0.000952126
0.000913987
0.000874846
0.000834901
0.000794361
0.000753441
0.000712362
0.000671355
0.000630659
0.00059052
0.000551205
0.000512999
0.000476227
0.000441261
0.000408556
0.000378678
0.000352375
0.000330673
0.000315066
0.000307874
0.000313041
0.000338293
0.000401959
0.000564012
0.00118971
0.00261117
0.00124033
0.000873321
0.000716584
0.000640252
0.000605196
0.00059518
0.000601938
0.00062071
0.000648309
0.000682438
0.000721327
0.000763554
0.000807939
0.000853488
0.000899359
0.000944834
0.000989307
0.00103227
0.00107331
0.00111209
0.00114834
0.00118186
0.00121249
0.00124013
0.00126472
0.00128621
0.0013046
0.00131989
0.00133211
0.0013413
0.00134748
0.00135059
0.00135089
0.00134838
0.00134309
0.00133506
0.00132435
0.00131102
0.00129512
0.00127672
0.00125588
0.00123269
0.00120721
0.00117955
0.00114981
0.0011181
0.00108456
0.00104933
0.00101257
0.000974455
0.000935173
0.000894925
0.000853922
0.000812386
0.000770547
0.000728643
0.000686919
0.000645629
0.000605038
0.000565424
0.000527092
0.000490382
0.000455688
0.000423486
0.000394375
0.000369144
0.00034888
0.000335188
0.000330538
0.000339216
0.000369657
0.000442001
0.000622418
0.0013145
0.0029683
0.00140838
0.00098834
0.000806363
0.000715019
0.000669998
0.000653067
0.000654864
0.00067012
0.000695303
0.000727875
0.000765884
0.000807761
0.000852206
0.000898122
0.000944579
0.000990785
0.00103607
0.00107989
0.00112177
0.00116134
0.00119832
0.00123248
0.00126365
0.00129171
0.0013166
0.00133828
0.00135673
0.00137196
0.00138401
0.0013929
0.00139868
0.00140124
0.00140096
0.00139774
0.00139164
0.00138271
0.00137101
0.00135661
0.00133956
0.00131993
0.0012978
0.00127325
0.00124635
0.00121723
0.00118597
0.00115272
0.00111762
0.00108081
0.00104247
0.00100279
0.000961973
0.000920223
0.000877772
0.000834855
0.000791717
0.000748612
0.000705801
0.00066355
0.00062214
0.000581866
0.000543046
0.000506037
0.000471249
0.000439178
0.000410451
0.000385889
0.000366634
0.000354391
0.000351752
0.000363321
0.000398168
0.000478066
0.00067474
0.00142612
0.00333729
0.00158206
0.00110734
0.000899493
0.000792933
0.000737969
0.000714265
0.000711388
0.000723452
0.000746587
0.000777996
0.000815533
0.000857474
0.000902389
0.000949074
0.000996505
0.00104382
0.00109028
0.00113527
0.0011783
0.00121895
0.00125691
0.00129194
0.00132384
0.0013525
0.00137783
0.0013998
0.00141839
0.00143361
0.00144549
0.00145406
0.00145933
0.00146128
0.00146026
0.00145616
0.00144904
0.00143897
0.00142601
0.00141024
0.00139172
0.00137053
0.00134674
0.00132046
0.00129178
0.00126081
0.00122768
0.00119252
0.00115549
0.00111676
0.00107651
0.00103495
0.000992274
0.000948723
0.000904533
0.000859954
0.000815243
0.000770667
0.000726499
0.000683021
0.000640526
0.000599321
0.000559739
0.000522149
0.000486978
0.000454737
0.000426073
0.000401837
0.000383212
0.000371993
0.00037087
0.000384723
0.000423173
0.000509408
0.000719958
0.00152241
0.00371733
0.00176097
0.00123
0.000995652
0.000873639
0.000808705
0.000778318
0.000770996
0.000780136
0.000801535
0.000832122
0.000869542
0.000911907
0.000957652
0.00100546
0.0010542
0.00110295
0.00115088
0.00119735
0.00124179
0.00128377
0.00132293
0.00135901
0.00139181
0.0014212
0.00144708
0.00146941
0.00148817
0.00150337
0.00151503
0.0015232
0.00152782
0.00152904
0.00152707
0.00152185
0.00151345
0.00150194
0.0014874
0.0014699
0.00144954
0.00142641
0.00140059
0.0013722
0.00134135
0.00130817
0.00127281
0.00123541
0.00119615
0.0011552
0.00111278
0.00106907
0.00102432
0.00097876
0.000932635
0.000886206
0.000839741
0.000793516
0.000747815
0.000702929
0.000659163
0.000616835
0.000576288
0.000537904
0.00050212
0.000469462
0.000440592
0.000416382
0.000398051
0.000387462
0.000387384
0.000402926
0.000444158
0.000535437
0.000757258
0.00160167
0.00410765
0.00194472
0.00135602
0.00109456
0.000956839
0.000881882
0.000844881
0.000833287
0.000839732
0.000859667
0.000889729
0.000927348
0.000970458
0.00101735
0.00106659
0.00111696
0.00116742
0.00121711
0.0012653
0.00131139
0.0013549
0.00139545
0.00143275
0.00146658
0.0014968
0.00152329
0.00154601
0.00156493
0.00158006
0.00159142
0.00159905
0.00160283
0.00160313
0.00159994
0.00159329
0.00158327
0.00156996
0.00155345
0.00153383
0.00151122
0.00148572
0.00145746
0.00142656
0.00139317
0.00135743
0.00131951
0.00127957
0.00123782
0.00119443
0.00114963
0.00110363
0.00105665
0.00100896
0.000960792
0.000912417
0.000864107
0.000816142
0.000768811
0.000722414
0.000677262
0.000633682
0.000592027
0.000552687
0.000516109
0.00048283
0.000453522
0.000429076
0.000410734
0.000400407
0.000400928
0.00041757
0.000460755
0.000555735
0.000786066
0.00166266
0.00450749
0.00213297
0.00148515
0.00119598
0.00104228
0.000957235
0.000913668
0.00089794
0.000901889
0.000920599
0.000950404
0.000988504
0.00103265
0.00108098
0.00113194
0.00118421
0.00123665
0.00128834
0.00133848
0.00138643
0.00143166
0.00147376
0.00151241
0.00154737
0.00157848
0.00160561
0.00162871
0.00164774
0.00166269
0.0016736
0.00168047
0.00168318
0.00168229
0.00167755
0.00166911
0.00165707
0.00164152
0.00162259
0.0016004
0.00157508
0.00154677
0.00151563
0.00148182
0.00144551
0.00140688
0.00136611
0.00132341
0.00127896
0.00123298
0.00118569
0.00113731
0.00108807
0.00103821
0.000987991
0.000937666
0.000887506
0.000837791
0.000788811
0.000740866
0.000694274
0.000649366
0.000606504
0.000566086
0.000528568
0.000494495
0.000464548
0.000439628
0.000420991
0.000410587
0.000411275
0.000428444
0.000472753
0.00057007
0.000806068
0.00170471
0.00491609
0.00232533
0.0016171
0.00129966
0.00112975
0.00103454
0.000984437
0.000964692
0.00096632
0.000984018
0.00101381
0.00105264
0.00109809
0.00114813
0.00120107
0.00125548
0.00131015
0.00136405
0.00141635
0.00146634
0.00151345
0.00155723
0.00159734
0.0016335
0.00166553
0.0016933
0.00171671
0.00173574
0.00175037
0.00176063
0.0017664
0.00176787
0.00176532
0.00175864
0.00174798
0.00173344
0.00171517
0.00169332
0.00166804
0.00163952
0.00160793
0.00157348
0.00153637
0.0014968
0.00145499
0.00141115
0.00136549
0.00131824
0.00126961
0.00121981
0.00116908
0.00111763
0.00106569
0.00101351
0.000961321
0.000909395
0.000857998
0.000807414
0.000757944
0.000709905
0.000663634
0.0006195
0.000577908
0.000539324
0.000504301
0.000473527
0.00044791
0.000428712
0.000417906
0.000418347
0.000435485
0.000480103
0.00057841
0.000817243
0.00172777
0.00533268
0.00252144
0.00175162
0.00140541
0.00121904
0.00111359
0.00105698
0.00103331
0.00103278
0.00104966
0.00107965
0.00111946
0.00116645
0.00121843
0.00127359
0.00133037
0.00138748
0.00144381
0.00149845
0.00155064
0.00159977
0.00164534
0.00168698
0.00172437
0.00175732
0.00178566
0.00180929
0.00182816
0.00184225
0.00185155
0.00185588
0.00185577
0.00185112
0.00184202
0.00182861
0.00181103
0.00178948
0.00176415
0.00173524
0.001703
0.00166767
0.00162948
0.0015887
0.00154558
0.00150036
0.0014533
0.00140463
0.00135457
0.00130334
0.00125115
0.00119821
0.00114473
0.0010909
0.00103694
0.000983083
0.000929555
0.000876614
0.000824533
0.000773606
0.000724148
0.000676504
0.000631048
0.000588197
0.000548426
0.000512298
0.00048051
0.000453973
0.000433951
0.000422417
0.0004222
0.000438775
0.00048294
0.000580953
0.000819896
0.00173249
0.00575647
0.00272093
0.00188846
0.00151301
0.00130996
0.00119421
0.00113112
0.00110359
0.00110107
0.0011173
0.00114769
0.00118868
0.00123743
0.00129158
0.00134917
0.00140854
0.00146828
0.00152722
0.00158436
0.00163889
0.00169014
0.00173758
0.00178078
0.00181941
0.00185323
0.00188204
0.00190572
0.00192422
0.00193748
0.0019454
0.001948
0.00194577
0.00193853
0.00192644
0.00190969
0.00188848
0.00186303
0.00183363
0.00180053
0.00176406
0.00172451
0.0016822
0.00163745
0.00159056
0.00154183
0.00149151
0.00143987
0.00138713
0.0013335
0.00127917
0.00122431
0.00116909
0.00111368
0.00105825
0.001003
0.000948111
0.000893829
0.000840405
0.000788123
0.000737299
0.000688279
0.000641451
0.000597245
0.000556152
0.00051875
0.000485744
0.00045805
0.000436921
0.000424337
0.000423107
0.000438626
0.000481606
0.000578119
0.000814642
0.00172017
0.00618662
0.00292341
0.00202734
0.00162224
0.00140234
0.00127622
0.00120668
0.00117536
0.00117098
0.00118672
0.00121769
0.00126006
0.00131076
0.00136728
0.0014275
0.00148964
0.00155219
0.00161388
0.00167366
0.00173064
0.0017841
0.00183345
0.00187822
0.00191804
0.00195262
0.00198175
0.00200527
0.00202309
0.00203516
0.00204121
0.00204174
0.00203678
0.00202635
0.00201065
0.00198991
0.00196439
0.00193442
0.00190032
0.00186247
0.00182127
0.0017771
0.00173036
0.00168143
0.00163068
0.00157843
0.00152498
0.00147058
0.00141545
0.00135977
0.0013037
0.00124735
0.00119084
0.00113428
0.00107779
0.00102151
0.000965582
0.000910216
0.00085564
0.000802125
0.000749986
0.000699579
0.000651307
0.000605623
0.00056304
0.000524156
0.000489696
0.000460579
0.000438058
0.000424109
0.000421477
0.000435455
0.00047659
0.000570536
0.000802404
0.00169279
0.00662228
0.00312848
0.00216799
0.0017329
0.00149599
0.00135945
0.00128349
0.00124846
0.00124233
0.00125774
0.00128945
0.00133336
0.00138619
0.00144525
0.00150827
0.00157333
0.00163884
0.00170343
0.00176595
0.00182546
0.00188117
0.00193244
0.00197874
0.00201966
0.00205485
0.00208407
0.00210714
0.00212394
0.00213431
0.00213808
0.00213594
0.00212764
0.00211336
0.00209335
0.00206792
0.00203741
0.00200223
0.00196284
0.00191972
0.00187334
0.00182423
0.00177285
0.00171967
0.00166511
0.00160952
0.00155322
0.00149646
0.00143942
0.00138224
0.001325
0.00126775
0.00121054
0.00115339
0.00109636
0.00103949
0.000982909
0.000926756
0.000871238
0.000816612
0.000763195
0.000711358
0.000661528
0.00061419
0.000569891
0.000529263
0.000493055
0.000462206
0.000437974
0.000422284
0.000417874
0.000429864
0.000468574
0.000559051
0.000784412
0.00165296
0.00706252
0.0033357
0.00231014
0.00184477
0.00159073
0.00144375
0.00136139
0.00132273
0.00131496
0.00133014
0.00136273
0.00140834
0.00146346
0.0015252
0.00159116
0.00165929
0.00172787
0.00179545
0.0018608
0.00192288
0.00198086
0.00203401
0.00208175
0.00212361
0.00215921
0.00218825
0.00221052
0.00222586
0.00223388
0.00223507
0.0022295
0.00221716
0.00219831
0.00217325
0.00214238
0.00210618
0.00206516
0.00201991
0.00197103
0.00191916
0.0018649
0.00180883
0.0017515
0.00169337
0.00163483
0.00157619
0.00151767
0.0014594
0.00140144
0.00134379
0.0012864
0.00122922
0.00117216
0.00111519
0.00105827
0.00100146
0.000944844
0.000888597
0.000832967
0.000778273
0.000724911
0.000673344
0.000624101
0.00057778
0.000535062
0.000496737
0.000463773
0.000437434
0.000419604
0.000413032
0.000422615
0.000458402
0.000544702
0.000762166
0.00160387
0.00750639
0.00354462
0.00245347
0.00195762
0.00168638
0.00152895
0.00144023
0.00139801
0.00138868
0.00140376
0.00143734
0.00148476
0.00154229
0.00160685
0.00167586
0.00174716
0.0018189
0.00188953
0.00195774
0.00202241
0.00208261
0.00213756
0.00218661
0.00222922
0.00226495
0.00229347
0.0023145
0.00232781
0.00233296
0.00233098
0.00232124
0.00230412
0.00227992
0.00224905
0.00221201
0.00216943
0.00212196
0.00207036
0.00201539
0.00195781
0.00189838
0.00183776
0.00177659
0.00171537
0.00165449
0.00159425
0.0015348
0.0014762
0.0014184
0.00136128
0.00130467
0.00124837
0.00119219
0.00113597
0.00107959
0.00102301
0.000966264
0.000909492
0.000852929
0.000796908
0.000741857
0.000688289
0.000636797
0.000588047
0.000542787
0.000501872
0.000466315
0.000437404
0.000416975
0.000407834
0.000414608
0.000447065
0.000528691
0.000737393
0.00154923
0.00795286
0.00375479
0.00259768
0.00207122
0.00178274
0.00161488
0.00151984
0.00147412
0.00146333
0.00147838
0.00151305
0.00156239
0.00162242
0.00168987
0.00176202
0.00183655
0.0019115
0.00198522
0.00205628
0.00212349
0.00218584
0.00224245
0.00229262
0.00233572
0.00237125
0.00239884
0.00241816
0.00242866
0.00243072
0.00242454
0.00240996
0.00238729
0.00235696
0.0023195
0.00227559
0.00222599
0.00217158
0.00211327
0.002052
0.00198871
0.00192428
0.0018595
0.00179505
0.00173146
0.00166912
0.00160826
0.00154895
0.00149113
0.00143461
0.00137912
0.00132433
0.0012699
0.00121548
0.00116077
0.00110554
0.00104967
0.000993128
0.000936009
0.000878543
0.000821082
0.000764098
0.000708171
0.000653975
0.00060227
0.000553899
0.0005098
0.000471059
0.000439013
0.000415479
0.000403295
0.000406864
0.000435664
0.000512342
0.00071198
0.00149305
0.00840085
0.00396567
0.00274244
0.00218533
0.00187962
0.00170136
0.00160006
0.00155091
0.0015387
0.0015538
0.00158963
0.00164094
0.00170354
0.00177395
0.00184927
0.00192706
0.00200523
0.00208201
0.00215588
0.00222555
0.0022899
0.002348
0.00239903
0.0024423
0.00247724
0.00250341
0.00252042
0.00252751
0.00252586
0.00251474
0.00249449
0.00246548
0.00242824
0.00238347
0.00233203
0.00227491
0.00221316
0.00214794
0.00208038
0.0020116
0.00194261
0.00187431
0.00180741
0.00174244
0.00167977
0.00161952
0.00156163
0.00150589
0.00145194
0.00139932
0.00134751
0.001296
0.00124426
0.00119186
0.00113844
0.00108377
0.00102775
0.000970441
0.000912061
0.000852987
0.000793748
0.000735007
0.000677542
0.000622233
0.000570043
0.000522032
0.000479386
0.000443515
0.00041625
0.000400543
0.000400488
0.000425376
0.000497051
0.000687901
0.00143953
0.00884922
0.00417676
0.0028874
0.00229968
0.0019768
0.00178821
0.00168071
0.00162818
0.00161462
0.0016298
0.00166683
0.00172015
0.00178533
0.0018587
0.0019372
0.00201824
0.00209959
0.00217937
0.00225595
0.00232793
0.00239411
0.00245344
0.00250503
0.00254809
0.00258201
0.00260626
0.00262008
0.00262356
0.00261713
0.0026004
0.00257371
0.00253757
0.00249269
0.00243996
0.00238046
0.00231542
0.00224615
0.00217404
0.00210043
0.00202663
0.00195377
0.00188285
0.00181461
0.00174955
0.00168791
0.00162971
0.00157471
0.0015225
0.0014725
0.00142407
0.00137646
0.00132896
0.00128087
0.0012316
0.00118064
0.00112766
0.00107249
0.00101512
0.000955791
0.00089489
0.000833016
0.000770927
0.000709529
0.000649848
0.000593005
0.000540215
0.000492806
0.000452303
0.000420616
0.000400699
0.000396665
0.000417412
0.000484227
0.00066713
0.00139287
0.00929675
0.00438749
0.00303219
0.00241401
0.00207408
0.00187524
0.00176162
0.00170576
0.00169087
0.00170616
0.00174439
0.00179971
0.00186746
0.00194376
0.00202539
0.0021096
0.00219404
0.0022767
0.00235584
0.00242995
0.00249771
0.00255798
0.00260976
0.00265219
0.00268456
0.00270627
0.00271625
0.00271558
0.00270359
0.00268045
0.00264655
0.00260257
0.0025494
0.00248817
0.00242023
0.00234707
0.0022703
0.00219155
0.00211242
0.00203435
0.00195864
0.00188629
0.00181805
0.00175437
0.00169533
0.00164075
0.0015902
0.00154303
0.00149844
0.00145553
0.00141335
0.00137095
0.00132747
0.00128213
0.00123429
0.0011835
0.00112949
0.00107223
0.00101191
0.000948962
0.000884051
0.00081804
0.000751981
0.000687071
0.000624628
0.000566063
0.000512895
0.000466814
0.00042986
0.000405008
0.000396526
0.000412999
0.000475237
0.000651552
0.00135708
0.00974219
0.00459728
0.00317643
0.00252803
0.00217122
0.00196226
0.00184258
0.00178343
0.00176724
0.00178263
0.00182203
0.00187931
0.00194955
0.00202871
0.00211337
0.00220064
0.00228803
0.0023734
0.00245489
0.00253087
0.00259991
0.00266077
0.00271233
0.00275366
0.00278397
0.00280229
0.00280816
0.00280237
0.00278417
0.0027539
0.0027121
0.00265964
0.00259765
0.00252754
0.00245096
0.00236972
0.00228572
0.00220087
0.00211699
0.00203571
0.00195839
0.00188606
0.00181939
0.0017587
0.0017039
0.00165459
0.00161009
0.00156948
0.0015317
0.0014956
0.00146
0.00142375
0.00138577
0.00134513
0.00130104
0.00125292
0.00120042
0.00114345
0.00108216
0.001017
0.000948698
0.00087822
0.00080677
0.000735745
0.000666689
0.000601259
0.000541219
0.000488485
0.000445291
0.000414674
0.000401214
0.000413215
0.000471384
0.000642914
0.00133581
0.0101842
0.00480552
0.00331973
0.00264146
0.00226799
0.00204906
0.00192341
0.00186101
0.00184349
0.00185894
0.00189944
0.00195859
0.00203122
0.0021131
0.00220064
0.00229079
0.00238093
0.00246878
0.00255236
0.00262991
0.00269989
0.00276093
0.00281182
0.00285153
0.00287919
0.00289337
0.00289479
0.00288306
0.00285796
0.00281989
0.00276959
0.00270814
0.00263697
0.0025578
0.00247261
0.00238355
0.00229286
0.00220271
0.00211518
0.00203197
0.00195447
0.00188372
0.0018203
0.0017643
0.00171543
0.00167302
0.00163609
0.00160345
0.00157378
0.00154565
0.00151766
0.00148845
0.00145677
0.00142152
0.00138178
0.00133685
0.00128627
0.00122986
0.00116773
0.00110033
0.0010284
0.000953011
0.000875516
0.00079752
0.000720827
0.000647387
0.00057927
0.000518691
0.000468155
0.000430841
0.000411787
0.000419099
0.000473671
0.000642585
0.00133196
0.0106215
0.00501158
0.00346168
0.00275398
0.00236414
0.0021354
0.00200388
0.00193825
0.00191939
0.00193482
0.00197632
0.0020372
0.00211206
0.00219648
0.00228669
0.00237949
0.00247211
0.00256216
0.0026475
0.00272627
0.00279679
0.00285758
0.00290731
0.00294488
0.0029692
0.0029788
0.00297505
0.00295678
0.00292415
0.00287774
0.00281847
0.0027477
0.00266717
0.00257897
0.00248544
0.00238909
0.0022925
0.00219822
0.00210823
0.00202447
0.0019484
0.00188093
0.00182244
0.00177282
0.00173148
0.00169745
0.00166945
0.00164601
0.00162552
0.00160631
0.00158675
0.00156531
0.0015406
0.00151137
0.00147656
0.00143534
0.00138715
0.0013317
0.00126902
0.00119952
0.00112393
0.00104338
0.000959356
0.000873668
0.000788394
0.000705822
0.000628392
0.000558696
0.000499598
0.000454586
0.000429193
0.000431534
0.00048305
0.000651721
0.00134783
0.0110526
0.00521482
0.00360186
0.00286528
0.00245941
0.00222108
0.00208379
0.00201494
0.00199468
0.00201
0.00205234
0.00211476
0.00219164
0.00227835
0.00237096
0.00246612
0.00256092
0.00265282
0.00273956
0.00281914
0.00288976
0.00294982
0.0029979
0.0030328
0.00305289
0.0030579
0.00304814
0.00302278
0.00298213
0.00292694
0.0028584
0.00277816
0.00268833
0.00259137
0.00249001
0.00238722
0.00228591
0.00218845
0.00209742
0.00201473
0.00194173
0.00187919
0.00182725
0.00178553
0.00175314
0.00172876
0.0017108
0.00169752
0.00168703
0.00167743
0.0016669
0.00165376
0.00163653
0.00161383
0.00158446
0.00154749
0.00150221
0.00144823
0.00138548
0.00131424
0.00123523
0.00114956
0.0010588
0.000964935
0.000870325
0.000777617
0.000689684
0.000609584
0.00054065
0.000486822
0.000454194
0.000451236
0.000500206
0.00067115
0.00138512
0.0114762
0.00541459
0.00373983
0.00297504
0.00255354
0.00230585
0.0021629
0.00209083
0.0020691
0.00208416
0.00212716
0.00219088
0.00226951
0.00235821
0.00245291
0.00255008
0.00264669
0.00274004
0.00282776
0.00290771
0.00297796
0.00303679
0.0030827
0.00311435
0.00312969
0.00312974
0.00311339
0.00308049
0.00303145
0.00296723
0.0028893
0.00279967
0.0027008
0.00259558
0.00248726
0.00237907
0.00227385
0.00217476
0.00208424
0.00200418
0.00193583
0.00187975
0.00183578
0.00180326
0.00178097
0.00176724
0.00176009
0.00175762
0.00175767
0.00175816
0.00175703
0.00175245
0.00174303
0.00172722
0.00170374
0.0016715
0.0016297
0.00157781
0.00151562
0.00144328
0.00136137
0.00127095
0.00117361
0.00107143
0.000967018
0.000863396
0.000763913
0.000672183
0.000592128
0.000528292
0.000487398
0.00047873
0.000525591
0.000701347
0.00144471
0.0118908
0.00561023
0.00387517
0.00308295
0.00264627
0.00238947
0.00224097
0.00216567
0.00214238
0.002157
0.00220042
0.00226517
0.00234523
0.00243557
0.00253197
0.00263075
0.00272874
0.0028231
0.00291134
0.00299118
0.00306057
0.0031177
0.00316094
0.00318868
0.00319913
0.00319351
0.00317026
0.00312951
0.00307188
0.00299856
0.00291134
0.00281258
0.00270518
0.00259256
0.00247822
0.00236542
0.00225784
0.00215853
0.00206999
0.00199404
0.00193176
0.00188344
0.00184861
0.00182628
0.00181497
0.00181261
0.00181665
0.00182533
0.00183622
0.00184709
0.00185555
0.00185941
0.00185798
0.00184933
0.00183206
0.00180499
0.00176722
0.00171807
0.00165719
0.00158456
0.00150058
0.00140615
0.00130276
0.00119255
0.00107827
0.000963283
0.000851447
0.000747003
0.000654588
0.000579509
0.000529279
0.000514357
0.000559428
0.000742445
0.00152676
0.0122951
0.0058011
0.00400744
0.00318866
0.00273733
0.00247171
0.00231777
0.00223922
0.00221423
0.00222821
0.00227178
0.00233723
0.00241833
0.00250991
0.00260758
0.00270752
0.00280641
0.00290131
0.00298956
0.0030688
0.00313684
0.00319177
0.00323189
0.00325503
0.00326065
0.0032488
0.00321838
0.00316964
0.00310339
0.00302109
0.00292489
0.00281752
0.00270241
0.0025833
0.00246368
0.00234775
0.00223914
0.00214101
0.00205582
0.00198528
0.00193023
0.00189064
0.00186585
0.00185493
0.00185462
0.00186357
0.00187925
0.00189921
0.00192094
0.00194205
0.00196032
0.00197338
0.00197911
0.00197773
0.00196691
0.00194536
0.00191207
0.00186629
0.0018075
0.0017355
0.00165045
0.00155304
0.00144454
0.001327
0.00120323
0.00107686
0.000952212
0.000834212
0.000728325
0.000640789
0.000580106
0.000558276
0.000601732
0.000794277
0.00163076
0.0126876
0.00598657
0.00413623
0.00329187
0.00282643
0.0025523
0.00239305
0.00231121
0.00228439
0.00229748
0.00234088
0.00240665
0.00248838
0.00258075
0.00267919
0.00277979
0.00287908
0.00297398
0.00306175
0.00313987
0.00320608
0.00325834
0.00329487
0.00331306
0.00331365
0.00329532
0.0032576
0.00320087
0.00312616
0.00303523
0.00293055
0.00281536
0.00269351
0.00256855
0.00244509
0.0023273
0.00221896
0.00212326
0.00204261
0.00197854
0.00193165
0.00190153
0.00188809
0.00188755
0.00189874
0.0019193
0.00194651
0.00197767
0.00201012
0.00204139
0.00206918
0.00209142
0.00210537
0.00211026
0.00210604
0.00209024
0.00206177
0.00201983
0.00196379
0.00189329
0.00180824
0.00170903
0.00159665
0.00147289
0.00134048
0.00120317