/*--------------------------------*- C++ -*----------------------------------*\
  =========                 |
  \\      /  F ield         | OpenFOAM: The Open Source CFD Toolbox
   \\    /   O peration     | Website:  https://openfoam.org
    \\  /    A nd           | Version:  12
     \\/     M anipulation  |
\*---------------------------------------------------------------------------*/
FoamFile
{
    format      ascii;
    class       volVectorField;
    location    "0.5";
    object      U;
}
// * * * * * * * * * * * * * * * * * * * * * * * * * * * * * * * * * * * * * //

dimensions      [0 1 -1 0 0 0 0];

internalField   nonuniform List<vector> 
5625
(
(6.73684e-06 -8.70141e-06 0)
(2.93723e-05 -5.50838e-06 0)
(3.5099e-05 1.78359e-06 0)
(2.58407e-05 4.07055e-06 0)
(-7.72511e-06 5.57581e-06 0)
(-6.17882e-05 8.15274e-06 0)
(-0.00013662 1.10499e-05 0)
(-0.000230793 1.38592e-05 0)
(-0.000342333 1.63865e-05 0)
(-0.000469024 1.85558e-05 0)
(-0.000608664 2.03571e-05 0)
(-0.000759178 2.18187e-05 0)
(-0.000918662 2.29786e-05 0)
(-0.0010854 2.38799e-05 0)
(-0.00125786 2.45595e-05 0)
(-0.00143467 2.5051e-05 0)
(-0.00161457 2.53793e-05 0)
(-0.00179645 2.55653e-05 0)
(-0.00197924 2.56217e-05 0)
(-0.00216197 2.55581e-05 0)
(-0.00234366 2.53773e-05 0)
(-0.00252338 2.50803e-05 0)
(-0.00270017 2.46628e-05 0)
(-0.00287307 2.41198e-05 0)
(-0.00304109 2.34427e-05 0)
(-0.00320319 2.26232e-05 0)
(-0.00335831 2.16509e-05 0)
(-0.00350534 2.05169e-05 0)
(-0.00364313 1.92111e-05 0)
(-0.00377051 1.77264e-05 0)
(-0.00388627 1.60557e-05 0)
(-0.00398922 1.41955e-05 0)
(-0.00407816 1.21443e-05 0)
(-0.0041519 9.90422e-06 0)
(-0.00420932 7.47743e-06 0)
(-0.00424937 4.87985e-06 0)
(-0.00427106 2.13168e-06 0)
(-0.00427361 -7.63816e-07 0)
(-0.00425626 -3.77246e-06 0)
(-0.00421853 -6.86742e-06 0)
(-0.0041601 -1.00158e-05 0)
(-0.00408087 -1.31772e-05 0)
(-0.003981 -1.63106e-05 0)
(-0.00386093 -1.93702e-05 0)
(-0.00372136 -2.23085e-05 0)
(-0.00356327 -2.50759e-05 0)
(-0.00338797 -2.76233e-05 0)
(-0.00319701 -2.9902e-05 0)
(-0.00299226 -3.18661e-05 0)
(-0.00277582 -3.34728e-05 0)
(-0.00255003 -3.46851e-05 0)
(-0.00231742 -3.54715e-05 0)
(-0.0020807 -3.58085e-05 0)
(-0.00184268 -3.56802e-05 0)
(-0.00160622 -3.50803e-05 0)
(-0.00137424 -3.40112e-05 0)
(-0.00114957 -3.24851e-05 0)
(-0.000934978 -3.0523e-05 0)
(-0.000733064 -2.8155e-05 0)
(-0.000546239 -2.54189e-05 0)
(-0.000376659 -2.23597e-05 0)
(-0.000226192 -1.90283e-05 0)
(-9.63688e-05 -1.54816e-05 0)
(1.16514e-05 -1.17806e-05 0)
(9.71198e-05 -7.99211e-06 0)
(0.00015974 -4.18829e-06 0)
(0.00019972 -4.51472e-07 0)
(0.000217838 3.11991e-06 0)
(0.00021555 6.39735e-06 0)
(0.000195147 9.20414e-06 0)
(0.000159973 1.12796e-05 0)
(0.000114792 1.2242e-05 0)
(6.65583e-05 1.15022e-05 0)
(2.56892e-05 8.05897e-06 0)
(2.15948e-06 2.17998e-06 0)
(1.23439e-05 -3.23793e-05 0)
(3.35187e-05 -3.1645e-05 0)
(2.7514e-05 7.12412e-06 0)
(-2.83312e-05 4.73752e-05 0)
(-0.000141855 8.95142e-05 0)
(-0.000311434 0.000131758 0)
(-0.000535412 0.000171961 0)
(-0.000809972 0.000208667 0)
(-0.00113023 0.000241202 0)
(-0.00149083 0.000269394 0)
(-0.00188638 0.000293363 0)
(-0.00231168 0.000313387 0)
(-0.00276183 0.000329808 0)
(-0.00323232 0.000342973 0)
(-0.00371898 0.000353207 0)
(-0.00421802 0.000360797 0)
(-0.00472592 0.000365979 0)
(-0.00523944 0.000368939 0)
(-0.00575552 0.000369813 0)
(-0.00627123 0.000368692 0)
(-0.00678374 0.000365624 0)
(-0.00729028 0.000360621 0)
(-0.00778803 0.000353663 0)
(-0.0082742 0.000344708 0)
(-0.0087459 0.000333697 0)
(-0.00920019 0.000320558 0)
(-0.00963403 0.000305215 0)
(-0.0100443 0.000287596 0)
(-0.0104279 0.000267638 0)
(-0.0107815 0.000245292 0)
(-0.0111019 0.000220533 0)
(-0.0113858 0.000193363 0)
(-0.0116301 0.000163818 0)
(-0.0118315 0.000131974 0)
(-0.0119873 9.79461e-05 0)
(-0.0120946 6.18863e-05 0)
(-0.0121508 2.41249e-05 0)
(-0.0121542 -1.52248e-05 0)
(-0.0121027 -5.57526e-05 0)
(-0.0119953 -9.70909e-05 0)
(-0.0118312 -0.000138812 0)
(-0.0116103 -0.000180439 0)
(-0.0113334 -0.00022146 0)
(-0.0110016 -0.000261327 0)
(-0.0106169 -0.000299475 0)
(-0.0101821 -0.000335325 0)
(-0.00970087 -0.000368302 0)
(-0.00917731 -0.000397844 0)
(-0.00861644 -0.000423423 0)
(-0.00802389 -0.000444552 0)
(-0.00740589 -0.000460804 0)
(-0.00676918 -0.000471823 0)
(-0.00612089 -0.000477336 0)
(-0.00546845 -0.000477163 0)
(-0.00481947 -0.000471226 0)
(-0.00418158 -0.000459552 0)
(-0.0035623 -0.000442276 0)
(-0.00296894 -0.00041964 0)
(-0.00240837 -0.000391993 0)
(-0.00188698 -0.000359781 0)
(-0.00141049 -0.000323546 0)
(-0.000983847 -0.000283914 0)
(-0.000611112 -0.000241595 0)
(-0.000295342 -0.000197375 0)
(-3.84794e-05 -0.000152124 0)
(0.000158761 -0.000106803 0)
(0.000297027 -6.24914e-05 0)
(0.000378507 -2.04423e-05 0)
(0.000407137 1.78539e-05 0)
(0.000388908 5.05445e-05 0)
(0.000332234 7.52466e-05 0)
(0.000248425 8.88394e-05 0)
(0.000152682 8.72787e-05 0)
(6.58925e-05 6.61818e-05 0)
(7.83459e-06 2.5522e-05 0)
(1.44149e-05 -5.42882e-05 0)
(1.61882e-05 -2.73402e-05 0)
(-3.52041e-05 6.40297e-05 0)
(-0.000161513 0.000170179 0)
(-0.000372381 0.000282024 0)
(-0.000667016 0.000393373 0)
(-0.00104257 0.000499142 0)
(-0.00149349 0.000596146 0)
(-0.00201288 0.000682786 0)
(-0.00259321 0.000758538 0)
(-0.00322678 0.000823557 0)
(-0.00390605 0.000878367 0)
(-0.00462381 0.000923683 0)
(-0.00537324 0.000960266 0)
(-0.00614801 0.000988854 0)
(-0.0069422 0.00101011 0)
(-0.0077503 0.0010246 0)
(-0.00856713 0.00103278 0)
(-0.00938775 0.00103498 0)
(-0.0102074 0.00103144 0)
(-0.0110216 0.00102228 0)
(-0.0118257 0.00100754 0)
(-0.0126152 0.000987196 0)
(-0.0133855 0.000961155 0)
(-0.014132 0.000929284 0)
(-0.01485 0.000891425 0)
(-0.0155347 0.000847413 0)
(-0.0161812 0.000797091 0)
(-0.0167845 0.000740331 0)
(-0.0173396 0.000677046 0)
(-0.0178413 0.000607212 0)
(-0.0182849 0.00053088 0)
(-0.0186652 0.000448193 0)
(-0.0189778 0.000359396 0)
(-0.0192181 0.00026485 0)
(-0.019382 0.000165042 0)
(-0.0194659 6.06326e-05 0)
(-0.0194668 -4.76497e-05 0)
(-0.0193822 -0.000158917 0)
(-0.0192104 -0.00027213 0)
(-0.0189506 -0.000386125 0)
(-0.0186028 -0.000499633 0)
(-0.0181681 -0.000611283 0)
(-0.0176486 -0.000719628 0)
(-0.0170476 -0.000823172 0)
(-0.0163694 -0.000920396 0)
(-0.0156193 -0.00100979 0)
(-0.0148041 -0.00108989 0)
(-0.0139313 -0.00115931 0)
(-0.0130095 -0.00121679 0)
(-0.0120482 -0.00126122 0)
(-0.0110575 -0.00129167 0)
(-0.0100483 -0.00130743 0)
(-0.00903179 -0.00130804 0)
(-0.0080195 -0.00129329 0)
(-0.00702295 -0.00126325 0)
(-0.00605355 -0.00121828 0)
(-0.00512231 -0.00115902 0)
(-0.00423969 -0.00108638 0)
(-0.00341536 -0.00100154 0)
(-0.00265801 -0.000905952 0)
(-0.00197517 -0.000801284 0)
(-0.00137302 -0.000689444 0)
(-0.000856201 -0.000572558 0)
(-0.000427669 -0.00045298 0)
(-8.84993e-05 -0.000333318 0)
(0.000162297 -0.00021648 0)
(0.000328003 -0.000105768 0)
(0.000414459 -5.01241e-06 0)
(0.000430373 8.12362e-05 0)
(0.000387671 0.000147467 0)
(0.000301842 0.000186951 0)
(0.000192835 0.000191626 0)
(8.72995e-05 0.000152864 0)
(1.11112e-05 6.5924e-05 0)
(8.16075e-06 -5.60008e-05 0)
(-2.81106e-05 1.89504e-05 0)
(-0.000143788 0.000188632 0)
(-0.000358595 0.000386434 0)
(-0.000680199 0.000593937 0)
(-0.00110772 0.000799476 0)
(-0.00163726 0.000994616 0)
(-0.00226201 0.00117411 0)
(-0.00297361 0.00133519 0)
(-0.00376292 0.00147683 0)
(-0.00462052 0.00159913 0)
(-0.00553707 0.0017028 0)
(-0.00650351 0.00178895 0)
(-0.0075112 0.00185878 0)
(-0.00855198 0.0019135 0)
(-0.00961813 0.00195421 0)
(-0.0107024 0.00198188 0)
(-0.0117978 0.00199727 0)
(-0.0128978 0.00200098 0)
(-0.0139961 0.00199341 0)
(-0.0150862 0.00197481 0)
(-0.0161622 0.00194525 0)
(-0.0172178 0.00190469 0)
(-0.0182469 0.001853 0)
(-0.0192432 0.00178996 0)
(-0.0202004 0.00171532 0)
(-0.0211121 0.00162882 0)
(-0.0219717 0.00153021 0)
(-0.0227728 0.00141931 0)
(-0.0235086 0.00129603 0)
(-0.0241726 0.00116036 0)
(-0.0247583 0.00101247 0)
(-0.0252594 0.000852694 0)
(-0.0256699 0.000681542 0)
(-0.0259842 0.000499752 0)
(-0.026197 0.000308295 0)
(-0.0263039 0.000108402 0)
(-0.0263009 -9.84835e-05 0)
(-0.0261852 -0.00031066 0)
(-0.0259547 -0.000526171 0)
(-0.0256086 -0.000742837 0)
(-0.025147 -0.000958279 0)
(-0.0245716 -0.00116994 0)
(-0.0238852 -0.00137514 0)
(-0.0230921 -0.00157111 0)
(-0.022198 -0.00175504 0)
(-0.0212101 -0.00192414 0)
(-0.0201369 -0.00207574 0)
(-0.0189882 -0.00220727 0)
(-0.0177751 -0.00231643 0)
(-0.0165096 -0.00240116 0)
(-0.0152051 -0.00245978 0)
(-0.0138753 -0.00249099 0)
(-0.0125346 -0.00249391 0)
(-0.0111978 -0.00246818 0)
(-0.00987971 -0.00241393 0)
(-0.00859498 -0.0023318 0)
(-0.00735776 -0.00222297 0)
(-0.00618151 -0.00208914 0)
(-0.00507869 -0.00193249 0)
(-0.00406055 -0.0017557 0)
(-0.00313681 -0.0015619 0)
(-0.00231548 -0.00135465 0)
(-0.00160262 -0.00113795 0)
(-0.0010021 -0.00091622 0)
(-0.000515412 -0.00069433 0)
(-0.000141405 -0.000477696 0)
(0.000123926 -0.000272368 0)
(0.000287718 -8.52214e-05 0)
(0.000360513 7.58243e-05 0)
(0.000356524 0.000201532 0)
(0.000293881 0.000281087 0)
(0.000195444 0.000301966 0)
(9.14359e-05 0.000250409 0)
(1.19223e-05 0.000114186 0)
(7.00375e-07 -3.44055e-05 0)
(-8.07393e-05 0.000123113 0)
(-0.000272163 0.000396399 0)
(-0.000587158 0.000708171 0)
(-0.00102927 0.00103207 0)
(-0.00159607 0.00135137 0)
(-0.00228231 0.00165427 0)
(-0.00307993 0.00193335 0)
(-0.00397928 0.00218463 0)
(-0.00496992 0.00240646 0)
(-0.00604106 0.00259878 0)
(-0.00718192 0.00276247 0)
(-0.008382 0.00289896 0)
(-0.00963117 0.0030099 0)
(-0.0109197 0.00309696 0)
(-0.0122385 0.00316171 0)
(-0.0135786 0.00320549 0)
(-0.0149318 0.00322944 0)
(-0.0162898 0.00323442 0)
(-0.0176448 0.00322101 0)
(-0.0189891 0.00318959 0)
(-0.020315 0.00314028 0)
(-0.0216149 0.00307304 0)
(-0.0228813 0.00298768 0)
(-0.0241062 0.00288391 0)
(-0.0252821 0.00276139 0)
(-0.0264009 0.00261977 0)
(-0.0274548 0.00245873 0)
(-0.0284357 0.00227807 0)
(-0.0293356 0.00207769 0)
(-0.0301467 0.0018577 0)
(-0.0308612 0.00161843 0)
(-0.0314715 0.00136046 0)
(-0.0319705 0.0010847 0)
(-0.0323515 0.000792375 0)
(-0.0326085 0.000485074 0)
(-0.0327362 0.000164766 0)
(-0.0327301 -0.000166213 0)
(-0.0325868 -0.000505144 0)
(-0.0323042 -0.000848938 0)
(-0.0318813 -0.00119416 0)
(-0.0313186 -0.00153708 0)
(-0.030618 -0.00187371 0)
(-0.0297832 -0.00219984 0)
(-0.0288192 -0.00251117 0)
(-0.0277331 -0.00280334 0)
(-0.0265334 -0.00307203 0)
(-0.0252302 -0.00331306 0)
(-0.0238352 -0.0035225 0)
(-0.0223616 -0.00369675 0)
(-0.0208238 -0.00383266 0)
(-0.0192375 -0.00392757 0)
(-0.017619 -0.00397948 0)
(-0.0159856 -0.00398705 0)
(-0.0143546 -0.00394968 0)
(-0.0127438 -0.00386756 0)
(-0.0111705 -0.00374167 0)
(-0.00965161 -0.00357385 0)
(-0.00820325 -0.0033667 0)
(-0.0068403 -0.00312365 0)
(-0.00557622 -0.00284887 0)
(-0.00442273 -0.00254724 0)
(-0.00338949 -0.00222437 0)
(-0.00248389 -0.00188652 0)
(-0.0017107 -0.00154061 0)
(-0.00107193 -0.00119427 0)
(-0.000566492 -0.000855915 0)
(-0.000190013 -0.000534826 0)
(6.54199e-05 -0.000241373 0)
(0.000211493 1.27654e-05 0)
(0.000263861 0.00021432 0)
(0.000242309 0.000348158 0)
(0.000171543 0.000397031 0)
(8.37174e-05 0.000341529 0)
(1.13741e-05 0.000161356 0)
(-5.41606e-06 1.63325e-05 0)
(-0.000134378 0.000293149 0)
(-0.000406169 0.000696814 0)
(-0.00082756 0.00114418 0)
(-0.00139597 0.00160322 0)
(-0.00210621 0.00205306 0)
(-0.00295105 0.00247895 0)
(-0.00392086 0.00287157 0)
(-0.00500469 0.00322573 0)
(-0.00619085 0.00353921 0)
(-0.00746735 0.00381178 0)
(-0.00882224 0.00404443 0)
(-0.0102438 0.0042389 0)
(-0.0117207 0.00439724 0)
(-0.013242 0.00452156 0)
(-0.0147972 0.00461386 0)
(-0.0163762 0.00467591 0)
(-0.0179694 0.00470917 0)
(-0.0195672 0.00471475 0)
(-0.0211606 0.00469346 0)
(-0.0227404 0.00464576 0)
(-0.0242977 0.00457185 0)
(-0.0258236 0.00447168 0)
(-0.0273091 0.00434501 0)
(-0.0287452 0.00419149 0)
(-0.0301227 0.00401069 0)
(-0.0314325 0.00380219 0)
(-0.0326654 0.00356563 0)
(-0.0338121 0.00330079 0)
(-0.0348634 0.00300764 0)
(-0.0358102 0.00268642 0)
(-0.0366436 0.00233771 0)
(-0.0373551 0.00196242 0)
(-0.0379365 0.00156194 0)
(-0.0383802 0.00113809 0)
(-0.0386795 0.000693203 0)
(-0.0388284 0.000230135 0)
(-0.038822 -0.000247739 0)
(-0.0386564 -0.000736516 0)
(-0.0383294 -0.00123179 0)
(-0.0378398 -0.00172868 0)
(-0.0371883 -0.00222188 0)
(-0.0363774 -0.00270576 0)
(-0.035411 -0.0031744 0)
(-0.0342952 -0.00362171 0)
(-0.0330377 -0.00404155 0)
(-0.0316484 -0.00442787 0)
(-0.0301387 -0.00477479 0)
(-0.0285219 -0.00507676 0)
(-0.026813 -0.00532875 0)
(-0.0250283 -0.00552628 0)
(-0.0231855 -0.00566565 0)
(-0.0213033 -0.005744 0)
(-0.0194012 -0.00575941 0)
(-0.0174992 -0.00571103 0)
(-0.0156171 -0.00559909 0)
(-0.0137751 -0.00542494 0)
(-0.0119923 -0.00519113 0)
(-0.0102872 -0.00490131 0)
(-0.00867701 -0.00456029 0)
(-0.00717714 -0.00417395 0)
(-0.00580118 -0.0037492 0)
(-0.0045604 -0.00329397 0)
(-0.00346347 -0.0028171 0)
(-0.00251618 -0.00232842 0)
(-0.00172113 -0.00183867 0)
(-0.00107755 -0.00135963 0)
(-0.00058102 -0.000904184 0)
(-0.000223256 -0.000486526 0)
(8.05925e-06 -0.000122358 0)
(0.000129427 0.000170825 0)
(0.000161648 0.000373427 0)
(0.000130465 0.000463354 0)
(6.87701e-05 0.000415548 0)
(1.01296e-05 0.000202367 0)
(-1.05692e-05 9.43323e-05 0)
(-0.000186395 0.000529711 0)
(-0.00053957 0.00109277 0)
(-0.00106956 0.00169826 0)
(-0.00176677 0.00231083 0)
(-0.00262226 0.00290674 0)
(-0.00362625 0.0034691 0)
(-0.00476717 0.00398711 0)
(-0.00603251 0.00445471 0)
(-0.00740931 0.00486922 0)
(-0.00888445 0.00523028 0)
(-0.0104449 0.00553905 0)
(-0.0120779 0.00579753 0)
(-0.0137711 0.00600819 0)
(-0.0155125 0.00617354 0)
(-0.0172906 0.00629601 0)
(-0.0190941 0.00637774 0)
(-0.0209123 0.00642051 0)
(-0.0227346 0.00642569 0)
(-0.0245507 0.00639427 0)
(-0.0263504 0.00632682 0)
(-0.0281236 0.00622359 0)
(-0.0298601 0.00608452 0)
(-0.0315499 0.00590934 0)
(-0.0331827 0.00569762 0)
(-0.0347483 0.00544887 0)
(-0.0362364 0.0051626 0)
(-0.0376365 0.00483843 0)
(-0.0389383 0.00447618 0)
(-0.0401316 0.0040759 0)
(-0.0412062 0.00363803 0)
(-0.0421522 0.00316342 0)
(-0.0429602 0.00265343 0)
(-0.0436211 0.00210997 0)
(-0.0441266 0.00153556 0)
(-0.0444691 0.000933396 0)
(-0.0446422 0.000307321 0)
(-0.0446404 -0.000338116 0)
(-0.0444595 -0.000997692 0)
(-0.0440969 -0.00166552 0)
(-0.0435515 -0.00233512 0)
(-0.042824 -0.00299946 0)
(-0.041917 -0.00365105 0)
(-0.040835 -0.00428208 0)
(-0.0395845 -0.0048845 0)
(-0.038174 -0.0054502 0)
(-0.0366143 -0.00597118 0)
(-0.034918 -0.00643966 0)
(-0.0330997 -0.00684834 0)
(-0.0311757 -0.00719051 0)
(-0.0291643 -0.00746028 0)
(-0.0270848 -0.00765269 0)
(-0.0249578 -0.00776393 0)
(-0.0228051 -0.00779143 0)
(-0.0206486 -0.00773397 0)
(-0.0185107 -0.0075918 0)
(-0.0164135 -0.00736666 0)
(-0.0143787 -0.00706184 0)
(-0.0124268 -0.00668214 0)
(-0.0105771 -0.00623386 0)
(-0.00884713 -0.00572478 0)
(-0.00725227 -0.00516403 0)
(-0.00580539 -0.0045621 0)
(-0.0045165 -0.00393074 0)
(-0.00339249 -0.00328292 0)
(-0.00243676 -0.00263283 0)
(-0.00164905 -0.00199594 0)
(-0.00102516 -0.00138901 0)
(-0.000556776 -0.000830318 0)
(-0.000231336 -0.00033979 0)
(-3.19055e-05 6.06975e-05 0)
(6.28567e-05 0.000347006 0)
(7.92079e-05 0.000492248 0)
(4.98713e-05 0.000466019 0)
(8.57429e-06 0.00023454 0)
(-1.5016e-05 0.000198173 0)
(-0.000236185 0.000831772 0)
(-0.00066956 0.00158443 0)
(-0.0013078 0.00237133 0)
(-0.00213384 0.00315584 0)
(-0.00313445 0.00391274 0)
(-0.00429679 0.00462397 0)
(-0.00560698 0.00527788 0)
(-0.00705076 0.0058679 0)
(-0.00861375 0.00639118 0)
(-0.0102816 0.00684741 0)
(-0.0120404 0.00723796 0)
(-0.0138764 0.00756516 0)
(-0.0157762 0.00783187 0)
(-0.017727 0.00804104 0)
(-0.0197164 0.00819546 0)
(-0.0217323 0.00829765 0)
(-0.0237629 0.00834969 0)
(-0.0257967 0.00835318 0)
(-0.0278225 0.00830928 0)
(-0.029829 0.00821866 0)
(-0.0318051 0.0080816 0)
(-0.0337398 0.00789804 0)
(-0.0356218 0.00766766 0)
(-0.03744 0.00738996 0)
(-0.0391831 0.0070644 0)
(-0.0408397 0.00669044 0)
(-0.0423985 0.00626769 0)
(-0.0438481 0.00579601 0)
(-0.0451773 0.00527561 0)
(-0.0463751 0.00470713 0)
(-0.0474307 0.00409177 0)
(-0.0483336 0.00343136 0)
(-0.0490743 0.00272842 0)
(-0.0496434 0.00198624 0)
(-0.0500329 0.00120894 0)
(-0.0502356 0.00040146 0)
(-0.0502456 -0.00043038 0)
(-0.0500582 -0.00127992 0)
(-0.0496705 -0.00213969 0)
(-0.0490812 -0.00300144 0)
(-0.0482909 -0.00385629 0)
(-0.0473023 -0.00469475 0)
(-0.0461199 -0.00550694 0)
(-0.0447508 -0.00628269 0)
(-0.043204 -0.00701174 0)
(-0.0414908 -0.00768395 0)
(-0.0396249 -0.0082895 0)
(-0.0376218 -0.00881909 0)
(-0.0354993 -0.00926423 0)
(-0.0332768 -0.00961737 0)
(-0.0309754 -0.0098722 0)
(-0.0286176 -0.0100238 0)
(-0.0262268 -0.0100688 0)
(-0.0238271 -0.0100056 0)
(-0.0214431 -0.00983428 0)
(-0.019099 -0.00955707 0)
(-0.0168185 -0.00917797 0)
(-0.0146247 -0.00870297 0)
(-0.0125387 -0.00813998 0)
(-0.0105802 -0.00749879 0)
(-0.0087664 -0.00679095 0)
(-0.00711186 -0.00602972 0)
(-0.0056281 -0.00522997 0)
(-0.00432322 -0.00440811 0)
(-0.00320164 -0.00358203 0)
(-0.00226381 -0.00277114 0)
(-0.00150599 -0.00199635 0)
(-0.000920128 -0.00128023 0)
(-0.000493681 -0.000647112 0)
(-0.000209599 -0.000123377 0)
(-4.62988e-05 0.000262268 0)
(2.25868e-05 0.000478253 0)
(2.91963e-05 0.000489293 0)
(6.97323e-06 0.000256587 0)
(-1.89926e-05 0.000326411 0)
(-0.000283584 0.00119739 0)
(-0.000795049 0.00217021 0)
(-0.0015396 0.00316225 0)
(-0.0024928 0.00413724 0)
(-0.00363687 0.00506985 0)
(-0.00495557 0.00594173 0)
(-0.00643248 0.00674114 0)
(-0.0080513 0.00746151 0)
(-0.00979611 0.00810013 0)
(-0.0116514 0.008657 0)
(-0.013602 0.00913382 0)
(-0.0156335 0.00953336 0)
(-0.0177316 0.00985891 0)
(-0.0198827 0.0101138 0)
(-0.0220737 0.0103013 0)
(-0.0242916 0.0104243 0)
(-0.026524 0.010485 0)
(-0.0287585 0.0104853 0)
(-0.030983 0.0104266 0)
(-0.0331856 0.0103095 0)
(-0.0353543 0.0101345 0)
(-0.0374771 0.00990128 0)
(-0.039542 0.00960963 0)
(-0.0415369 0.00925895 0)
(-0.0434497 0.00884862 0)
(-0.0452681 0.00837809 0)
(-0.04698 0.00784695 0)
(-0.0485731 0.00725514 0)
(-0.0500353 0.00660301 0)
(-0.0513547 0.00589146 0)
(-0.0525198 0.00512206 0)
(-0.0535195 0.00429713 0)
(-0.054343 0.00341986 0)
(-0.0549807 0.00249436 0)
(-0.0554236 0.00152572 0)
(-0.0556639 0.000520053 0)
(-0.055695 -0.000515478 0)
(-0.055512 -0.0015727 0)
(-0.0551112 -0.00264244 0)
(-0.0544912 -0.00371462 0)
(-0.0536521 -0.00477834 0)
(-0.0525966 -0.00582201 0)
(-0.0513292 -0.00683353 0)
(-0.049857 -0.00780045 0)
(-0.0481893 -0.00871019 0)
(-0.046338 -0.00955032 0)
(-0.0443173 -0.0103087 0)
(-0.0421436 -0.010974 0)
(-0.0398357 -0.0115356 0)
(-0.0374143 -0.0119843 0)
(-0.034902 -0.012312 0)
(-0.0323227 -0.0125127 0)
(-0.0297019 -0.012582 0)
(-0.0270655 -0.0125178 0)
(-0.0244401 -0.0123201 0)
(-0.0218523 -0.0119913 0)
(-0.019328 -0.0115363 0)
(-0.0168924 -0.0109621 0)
(-0.0145689 -0.0102784 0)
(-0.0123793 -0.00949715 0)
(-0.0103429 -0.0086324 0)
(-0.00847611 -0.00770041 0)
(-0.00679203 -0.00671936 0)
(-0.00530024 -0.00570933 0)
(-0.00400636 -0.00469218 0)
(-0.00291179 -0.0036915 0)
(-0.00201348 -0.00273259 0)
(-0.00130385 -0.00184251 0)
(-0.000770601 -0.0010502 0)
(-0.000396786 -0.000386637 0)
(-0.000160789 0.000114873 0)
(-3.62798e-05 0.000418197 0)
(8.07304e-06 0.000483578 0)
(5.44234e-06 0.000268097 0)
(-2.26791e-05 0.000477802 0)
(-0.000328804 0.00162416 0)
(-0.000915663 0.00284751 0)
(-0.00176367 0.00406857 0)
(-0.00284128 0.00525274 0)
(-0.00412606 0.00637564 0)
(-0.00559824 0.00741967 0)
(-0.00723861 0.00837363 0)
(-0.00902871 0.00923154 0)
(-0.0109509 0.00999127 0)
(-0.0129884 0.0106534 0)
(-0.015125 0.0112201 0)
(-0.0173453 0.0116948 0)
(-0.0196344 0.0120812 0)
(-0.0219779 0.0123832 0)
(-0.0243621 0.0126044 0)
(-0.0267733 0.012748 0)
(-0.0291985 0.0128166 0)
(-0.0316247 0.0128123 0)
(-0.0340391 0.0127365 0)
(-0.0364292 0.01259 0)
(-0.0387821 0.0123731 0)
(-0.0410854 0.0120858 0)
(-0.0433262 0.0117275 0)
(-0.0454918 0.0112977 0)
(-0.0475692 0.0107957 0)
(-0.0495454 0.0102208 0)
(-0.0514076 0.00957274 0)
(-0.0531428 0.00885143 0)
(-0.054738 0.00805739 0)
(-0.0561806 0.0071918 0)
(-0.0574583 0.0062566 0)
(-0.0585591 0.00525463 0)
(-0.0594717 0.00418976 0)
(-0.0601856 0.00306693 0)
(-0.060691 0.00189225 0)
(-0.0609794 0.000673029 0)
(-0.0610436 -0.00058218 0)
(-0.0608777 -0.00186362 0)
(-0.0604778 -0.00316038 0)
(-0.0598417 -0.00446043 0)
(-0.0589691 -0.00575079 0)
(-0.0578621 -0.00701764 0)
(-0.0565253 -0.00824652 0)
(-0.0549653 -0.00942256 0)
(-0.0531917 -0.0105307 0)
(-0.0512165 -0.011556 0)
(-0.0490542 -0.0124839 0)
(-0.0467221 -0.0133007 0)
(-0.0442396 -0.0139936 0)
(-0.0416285 -0.0145512 0)
(-0.0389128 -0.0149639 0)
(-0.036118 -0.015224 0)
(-0.0332712 -0.0153261 0)
(-0.0304003 -0.0152674 0)
(-0.0275341 -0.0150476 0)
(-0.0247014 -0.0146693 0)
(-0.0219305 -0.014138 0)
(-0.0192489 -0.0134622 0)
(-0.0166825 -0.0126531 0)
(-0.0142555 -0.0117248 0)
(-0.0119892 -0.0106942 0)
(-0.00990218 -0.00958064 0)
(-0.00800956 -0.00840581 0)
(-0.00632255 -0.00719372 0)
(-0.00484819 -0.00597042 0)
(-0.00358905 -0.00476393 0)
(-0.00254301 -0.00360419 0)
(-0.00170315 -0.00252299 0)
(-0.00105761 -0.00155405 0)
(-0.000589661 -0.000733099 0)
(-0.000277755 -9.80939e-05 0)
(-9.56866e-05 0.000310344 0)
(-1.27744e-05 0.000448252 0)
(4.06977e-06 0.000269156 0)
(-2.61221e-05 0.000651222 0)
(-0.000371879 0.00210959 0)
(-0.00103136 0.00361335 0)
(-0.00197951 0.00508716 0)
(-0.00317811 0.00649914 0)
(-0.00460012 0.00782689 0)
(-0.0062222 0.00905434 0)
(-0.00802223 0.0101716 0)
(-0.00997948 0.0111738 0)
(-0.0120746 0.0120598 0)
(-0.0142892 0.0128311 0)
(-0.0166063 0.0134907 0)
(-0.0190093 0.0140427 0)
(-0.0214828 0.0144915 0)
(-0.0240118 0.0148415 0)
(-0.0265819 0.0150967 0)
(-0.029179 0.0152607 0)
(-0.0317895 0.0153364 0)
(-0.0344 0.015326 0)
(-0.0369973 0.0152311 0)
(-0.039568 0.0150526 0)
(-0.0420991 0.0147907 0)
(-0.0445773 0.0144454 0)
(-0.0469893 0.014016 0)
(-0.0493218 0.0135019 0)
(-0.0515612 0.0129024 0)
(-0.0536939 0.0122166 0)
(-0.0557063 0.0114444 0)
(-0.0575848 0.0105856 0)
(-0.0593158 0.00964095 0)
(-0.0608859 0.00861187 0)
(-0.062282 0.00750066 0)
(-0.0634914 0.00631068 0)
(-0.0645021 0.00504645 0)
(-0.0653025 0.00371374 0)
(-0.0658823 0.00231967 0)
(-0.0662319 0.000872784 0)
(-0.0663433 -0.000616986 0)
(-0.0662099 -0.00213828 0)
(-0.0658267 -0.00367836 0)
(-0.0651908 -0.00522324 0)
(-0.0643013 -0.00675775 0)
(-0.0631596 -0.00826574 0)
(-0.0617695 -0.00973028 0)
(-0.0601376 -0.0111339 0)
(-0.0582729 -0.012459 0)
(-0.0561875 -0.0136878 0)
(-0.0538961 -0.0148031 0)
(-0.0514162 -0.0157887 0)
(-0.048768 -0.0166292 0)
(-0.0459743 -0.0173111 0)
(-0.0430601 -0.0178226 0)
(-0.0400525 -0.0181545 0)
(-0.0369803 -0.0182998 0)
(-0.0338736 -0.0182549 0)
(-0.0307633 -0.0180191 0)
(-0.0276805 -0.0175951 0)
(-0.0246561 -0.0169889 0)
(-0.0217202 -0.0162101 0)
(-0.0189014 -0.0152719 0)
(-0.0162265 -0.0141906 0)
(-0.0137194 -0.0129857 0)
(-0.0114009 -0.01168 0)
(-0.00928854 -0.010299 0)
(-0.00739534 -0.00887066 0)
(-0.0057301 -0.00742562 0)
(-0.00429683 -0.00599659 0)
(-0.00309456 -0.00461838 0)
(-0.00211718 -0.00332779 0)
(-0.00135343 -0.00216356 0)
(-0.000786905 -0.00116635 0)
(-0.000396138 -0.000378897 0)
(-0.000154914 0.000153673 0)
(-3.30712e-05 0.000383248 0)
(2.8495e-06 0.000260091 0)
(-2.93329e-05 0.000845641 0)
(-0.000413018 0.00265132 0)
(-0.00114223 0.00446457 0)
(-0.00218703 0.00621447 0)
(-0.00350281 0.00787274 0)
(-0.00505809 0.00941979 0)
(-0.00682598 0.0108418 0)
(-0.00878145 0.0121309 0)
(-0.0109014 0.0132838 0)
(-0.0131646 0.014301 0)
(-0.0155515 0.0151851 0)
(-0.0180436 0.0159402 0)
(-0.0206238 0.0165713 0)
(-0.0232758 0.0170837 0)
(-0.0259841 0.0174822 0)
(-0.0287338 0.0177715 0)
(-0.0315105 0.0179556 0)
(-0.0343002 0.0180376 0)
(-0.0370891 0.01802 0)
(-0.0398635 0.0179045 0)
(-0.0426099 0.0176918 0)
(-0.0453147 0.0173824 0)
(-0.0479642 0.016976 0)
(-0.0505448 0.016472 0)
(-0.0530426 0.0158696 0)
(-0.0554436 0.0151678 0)
(-0.0577337 0.014366 0)
(-0.0598987 0.0134637 0)
(-0.0619243 0.012461 0)
(-0.0637965 0.0113586 0)
(-0.0655011 0.0101581 0)
(-0.0670242 0.0088623 0)
(-0.0683525 0.00747487 0)
(-0.0694729 0.006001 0)
(-0.0703731 0.00444726 0)
(-0.0710416 0.00282177 0)
(-0.0714681 0.00113422 0)
(-0.0716434 -0.000604033 0)
(-0.0715599 -0.00238004 0)
(-0.0712115 -0.00417927 0)
(-0.0705942 -0.00598567 0)
(-0.0697062 -0.00778187 0)
(-0.0685477 -0.00954929 0)
(-0.0671219 -0.0112684 0)
(-0.0654345 -0.012919 0)
(-0.0634941 -0.0144807 0)
(-0.0613123 -0.0159328 0)
(-0.0589037 -0.0172552 0)
(-0.056286 -0.0184288 0)
(-0.0534799 -0.0194355 0)
(-0.0505089 -0.0202591 0)
(-0.0473991 -0.0208857 0)
(-0.0441792 -0.0213038 0)
(-0.0408796 -0.0215051 0)
(-0.0375325 -0.0214845 0)
(-0.0341712 -0.0212409 0)
(-0.0308293 -0.0207766 0)
(-0.0275407 -0.0200984 0)
(-0.0243384 -0.0192169 0)
(-0.0212538 -0.0181468 0)
(-0.0183167 -0.0169069 0)
(-0.015554 -0.0155198 0)
(-0.0129893 -0.0140114 0)
(-0.0106426 -0.0124114 0)
(-0.00852921 -0.0107521 0)
(-0.00666007 -0.00906886 0)
(-0.00504087 -0.00739939 0)
(-0.00367199 -0.00578373 0)
(-0.00254839 -0.00426399 0)
(-0.00165949 -0.00288419 0)
(-0.00098923 -0.00169022 0)
(-0.000516214 -0.000729811 0)
(-0.000214109 -5.2737e-05 0)
(-5.28516e-05 0.000288644 0)
(1.80088e-06 0.000241263 0)
(-3.23818e-05 0.00106009 0)
(-0.000452314 0.0032471 0)
(-0.00124849 0.00539793 0)
(-0.00238635 0.00744675 0)
(-0.00381527 0.00936951 0)
(-0.00549955 0.0111501 0)
(-0.00740882 0.0127777 0)
(-0.00951516 0.014247 0)
(-0.0117931 0.015557 0)
(-0.0142197 0.0167099 0)
(-0.0167737 0.0177101 0)
(-0.0194357 0.018563 0)
(-0.0221877 0.0192749 0)
(-0.0250127 0.0198518 0)
(-0.0278948 0.0202995 0)
(-0.0308186 0.0206231 0)
(-0.0337696 0.0208271 0)
(-0.0367333 0.0209149 0)
(-0.0396958 0.0208893 0)
(-0.0426432 0.0207519 0)
(-0.0455616 0.0205038 0)
(-0.0484372 0.0201451 0)
(-0.0512563 0.0196756 0)
(-0.0540046 0.0190944 0)
(-0.0566681 0.0184008 0)
(-0.0592324 0.0175935 0)
(-0.061683 0.0166718 0)
(-0.0640052 0.0156351 0)
(-0.0661843 0.0144835 0)
(-0.0682054 0.0132178 0)
(-0.070054 0.0118397 0)
(-0.0717153 0.0103522 0)
(-0.0731751 0.00875945 0)
(-0.0744195 0.00706717 0)
(-0.0754352 0.00528265 0)
(-0.0762097 0.00341492 0)
(-0.0767313 0.00147481 0)
(-0.0769898 -0.000525009 0)
(-0.076976 -0.00257 0)
(-0.0766828 -0.00464382 0)
(-0.0761047 -0.00672839 0)
(-0.0752384 -0.00880407 0)
(-0.0740831 -0.0108498 0)
(-0.0726406 -0.0128433 0)
(-0.0709155 -0.0147616 0)
(-0.0689157 -0.016581 0)
(-0.0666519 -0.018278 0)
(-0.0641384 -0.0198293 0)
(-0.0613927 -0.0212124 0)
(-0.0584359 -0.0224063 0)
(-0.055292 -0.0233919 0)
(-0.0519881 -0.0241523 0)
(-0.0485543 -0.024674 0)
(-0.0450229 -0.0249465 0)
(-0.0414282 -0.0249634 0)
(-0.0378061 -0.0247223 0)
(-0.0341931 -0.0242255 0)
(-0.030626 -0.0234799 0)
(-0.0271412 -0.0224971 0)
(-0.0237735 -0.0212936 0)
(-0.0205561 -0.0198904 0)
(-0.0175191 -0.0183131 0)
(-0.0146896 -0.0165914 0)
(-0.0120903 -0.014759 0)
(-0.00973951 -0.0128531 0)
(-0.0076504 -0.0109139 0)
(-0.00583073 -0.00898458 0)
(-0.00428255 -0.00711075 0)
(-0.00300202 -0.00534019 0)
(-0.00197938 -0.00372259 0)
(-0.00119898 -0.00230941 0)
(-0.000639409 -0.00115369 0)
(-0.000273957 -0.000310175 0)
(-7.23909e-05 0.000164281 0)
(8.66577e-07 0.000212953 0)
(-3.53328e-05 0.00129369 0)
(-0.00048998 0.00389459 0)
(-0.00135034 0.00641018 0)
(-0.0025776 0.00878013 0)
(-0.00411552 0.0109852 0)
(-0.00592434 0.0130133 0)
(-0.00797031 0.0148574 0)
(-0.0102227 0.0165152 0)
(-0.0126538 0.0179883 0)
(-0.0152387 0.0192815 0)
(-0.0179547 0.020401 0)
(-0.0207815 0.0213541 0)
(-0.0237001 0.0221483 0)
(-0.026693 0.0227907 0)
(-0.0297439 0.0232882 0)
(-0.032837 0.0236464 0)
(-0.0359576 0.0238703 0)
(-0.0390912 0.0239638 0)
(-0.0422236 0.0239299 0)
(-0.0453408 0.0237702 0)
(-0.0484289 0.0234859 0)
(-0.0514741 0.0230771 0)
(-0.0544622 0.0225434 0)
(-0.0573791 0.0218839 0)
(-0.0602104 0.0210974 0)
(-0.0629416 0.0201827 0)
(-0.0655576 0.0191389 0)
(-0.0680437 0.0179651 0)
(-0.0703845 0.0166613 0)
(-0.0725647 0.0152284 0)
(-0.0745689 0.0136681 0)
(-0.0763819 0.0119836 0)
(-0.0779885 0.0101792 0)
(-0.0793737 0.00826129 0)
(-0.0805232 0.00623762 0)
(-0.0814233 0.00411809 0)
(-0.0820609 0.00191454 0)
(-0.0824242 -0.000359087 0)
(-0.0825027 -0.00268676 0)
(-0.0822875 -0.00505038 0)
(-0.0817714 -0.00742985 0)
(-0.0809495 -0.0098032 0)
(-0.0798194 -0.0121468 0)
(-0.0783811 -0.0144357 0)
(-0.076638 -0.0166437 0)
(-0.0745964 -0.0187441 0)
(-0.0722662 -0.0207099 0)
(-0.0696609 -0.0225142 0)
(-0.0667976 -0.0241311 0)
(-0.0636973 -0.0255361 0)
(-0.0603845 -0.0267068 0)
(-0.0568873 -0.0276233 0)
(-0.0532369 -0.028269 0)
(-0.0494676 -0.0286311 0)
(-0.045616 -0.0287014 0)
(-0.0417207 -0.028476 0)
(-0.0378213 -0.0279567 0)
(-0.0339582 -0.0271504 0)
(-0.0301713 -0.0260694 0)
(-0.0264994 -0.0247319 0)
(-0.0229796 -0.0231613 0)
(-0.0196458 -0.0213862 0)
(-0.0165289 -0.0194403 0)
(-0.013655 -0.0173614 0)
(-0.0110458 -0.015192 0)
(-0.00871716 -0.0129776 0)
(-0.00667934 -0.0107671 0)
(-0.0049363 -0.00861234 0)
(-0.00348565 -0.00656705 0)
(-0.00231858 -0.00468711 0)
(-0.00141986 -0.00302997 0)
(-0.000767971 -0.00165445 0)
(-0.000335695 -0.000620687 0)
(-9.21379e-05 9.52498e-06 0)
(4.14353e-08 0.000175244 0)
(-3.81646e-05 0.00154565 0)
(-0.000525989 0.00459159 0)
(-0.00144789 0.00749812 0)
(-0.00276094 0.0102107 0)
(-0.00440365 0.0127154 0)
(-0.00633237 0.0150049 0)
(-0.00851019 0.0170761 0)
(-0.0109036 0.0189304 0)
(-0.0134828 0.0205729 0)
(-0.0162208 0.0220108 0)
(-0.0190939 0.0232529 0)
(-0.0220803 0.0243084 0)
(-0.0251605 0.0251864 0)
(-0.0283165 0.0258955 0)
(-0.0315314 0.0264435 0)
(-0.0347895 0.0268369 0)
(-0.0380757 0.0270812 0)
(-0.0413756 0.0271809 0)
(-0.044675 0.0271389 0)
(-0.04796 0.0269573 0)
(-0.0512166 0.0266371 0)
(-0.054431 0.0261784 0)
(-0.0575891 0.0255806 0)
(-0.0606768 0.0248427 0)
(-0.0636795 0.0239632 0)
(-0.0665825 0.0229407 0)
(-0.0693708 0.021774 0)
(-0.0720291 0.020462 0)
(-0.0745417 0.0190046 0)
(-0.076893 0.0174024 0)
(-0.0790668 0.0156571 0)
(-0.0810471 0.0137719 0)
(-0.0828177 0.0117514 0)
(-0.0843629 0.00960212 0)
(-0.0856669 0.0073324 0)
(-0.0867146 0.00495277 0)
(-0.0874914 0.00247599 0)
(-0.0879839 -8.28859e-05 0)
(-0.0881797 -0.00270642 0)
(-0.0880679 -0.00537483 0)
(-0.0876393 -0.00806604 0)
(-0.086887 -0.0107558 0)
(-0.0858064 -0.0134179 0)
(-0.0843956 -0.0160244 0)
(-0.0826561 -0.018546 0)