/*--------------------------------*- C++ -*----------------------------------*\
  =========                 |
  \\      /  F ield         | OpenFOAM: The Open Source CFD Toolbox
   \\    /   O peration     | Website:  https://openfoam.org
    \\  /    A nd           | Version:  12
     \\/     M anipulation  |
\*---------------------------------------------------------------------------*/
FoamFile
{
    format      ascii;
    class       volScalarField;
    location    "10";
    object      epsilon;
}
// * * * * * * * * * * * * * * * * * * * * * * * * * * * * * * * * * * * * * //

dimensions      [0 2 -3 0 0 0 0];

internalField   nonuniform List<scalar> 
5625
(
9.99201e-13
1.20762e-12
2.67669e-12
4.40672e-12
6.30389e-12
8.30411e-12
1.03577e-11
1.24247e-11
1.44726e-11
1.64759e-11
1.84156e-11
2.02788e-11
2.20584e-11
2.37528e-11
2.53651e-11
2.69026e-11
2.83761e-11
2.97986e-11
3.11849e-11
3.25509e-11
3.39124e-11
3.52854e-11
3.66848e-11
3.81248e-11
3.96187e-11
4.11782e-11
4.28141e-11
4.4536e-11
4.63522e-11
4.827e-11
5.02957e-11
5.24345e-11
5.46906e-11
5.70669e-11
5.95655e-11
6.21868e-11
6.49299e-11
6.77922e-11
7.07689e-11
7.38525e-11
7.70327e-11
8.02954e-11
8.36221e-11
8.69892e-11
9.03668e-11
9.37183e-11
9.69986e-11
1.00154e-10
1.03122e-10
1.05829e-10
1.08192e-10
1.10115e-10
1.11488e-10
1.12163e-10
1.12205e-10
1.11416e-10
1.09697e-10
1.06986e-10
1.03256e-10
9.85123e-11
9.28045e-11
8.62261e-11
7.89153e-11
7.10489e-11
6.28322e-11
5.4484e-11
4.62209e-11
3.82403e-11
3.07077e-11
2.3749e-11
1.7451e-11
1.18718e-11
7.06709e-12
3.149e-12
9.99201e-13
3.39238e-13
6.55948e-13
1.30955e-12
2.10962e-12
2.99584e-12
3.93391e-12
4.89901e-12
5.87164e-12
6.83625e-12
7.78063e-12
8.69566e-12
9.57519e-12
1.04158e-11
1.12167e-11
1.19792e-11
1.27069e-11
1.34047e-11
1.40787e-11
1.47359e-11
1.53837e-11
1.60297e-11
1.66812e-11
1.73456e-11
1.80294e-11
1.87389e-11
1.94798e-11
2.02571e-11
2.10754e-11
2.19388e-11
2.28507e-11
2.3814e-11
2.48314e-11
2.59047e-11
2.70355e-11
2.82246e-11
2.94723e-11
3.07781e-11
3.21406e-11
3.35574e-11
3.50249e-11
3.65379e-11
3.80895e-11
3.96706e-11
4.12695e-11
4.28717e-11
4.44593e-11
4.60105e-11
4.74993e-11
4.88953e-11
5.01635e-11
5.12642e-11
5.21524e-11
5.27749e-11
5.30678e-11
5.30559e-11
5.26505e-11
5.18065e-11
5.04972e-11
4.87109e-11
4.64527e-11
4.37471e-11
4.06391e-11
3.71937e-11
3.34934e-11
2.96331e-11
2.57138e-11
2.18351e-11
1.80883e-11
1.455e-11
1.12798e-11
8.32016e-12
5.70343e-12
3.46865e-12
1.71369e-12
8.78465e-13
7.16542e-13
6.38527e-13
1.00847e-12
1.52605e-12
2.11917e-12
2.75537e-12
3.41434e-12
4.08123e-12
4.74457e-12
5.39552e-12
6.02755e-12
6.6362e-12
7.21898e-12
7.77519e-12
8.30575e-12
8.81293e-12
9.30009e-12
9.77147e-12
1.02318e-11
1.06863e-11
1.11402e-11
1.15985e-11
1.20664e-11
1.25486e-11
1.30493e-11
1.35726e-11
1.41222e-11
1.47013e-11
1.53127e-11
1.5959e-11
1.66422e-11
1.73643e-11
1.81266e-11
1.89301e-11
1.97754e-11
2.06627e-11
2.15914e-11
2.25603e-11
2.35676e-11
2.46103e-11
2.56843e-11
2.67843e-11
2.79031e-11
2.90318e-11
3.01595e-11
3.12726e-11
3.2355e-11
3.33876e-11
3.43485e-11
3.52126e-11
3.59519e-11
3.65354e-11
3.69231e-11
3.70821e-11
3.70212e-11
3.66838e-11
3.60432e-11
3.50836e-11
3.38001e-11
3.2199e-11
3.02995e-11
2.81337e-11
2.57466e-11
2.31939e-11
2.05388e-11
1.78482e-11
1.51881e-11
1.26188e-11
1.01922e-11
7.95009e-12
5.92593e-12
4.15212e-12
2.68182e-12
1.66693e-12
1.85797e-12
1.17065e-12
7.64669e-13
9.53002e-13
1.31466e-12
1.75776e-12
2.24546e-12
2.75721e-12
3.2792e-12
3.8013e-12
4.31586e-12
4.8173e-12
5.30181e-12
5.7672e-12
6.21276e-12
6.6391e-12
7.04791e-12
7.44181e-12
7.82412e-12
8.19861e-12
8.56938e-12
8.94061e-12
9.31649e-12
9.70105e-12
1.00981e-11
1.05114e-11
1.0944e-11
1.13991e-11
1.18793e-11
1.2387e-11
1.29244e-11
1.34932e-11
1.4095e-11
1.47308e-11
1.54015e-11
1.61075e-11
1.68486e-11
1.76244e-11
1.84334e-11
1.92737e-11
2.01423e-11
2.10353e-11
2.19475e-11
2.28724e-11
2.38016e-11
2.47253e-11
2.56314e-11
2.65059e-11
2.73324e-11
2.80926e-11
2.87659e-11
2.93297e-11
2.97598e-11
3.00187e-11
3.00983e-11
2.99922e-11
2.96621e-11
2.90905e-11
2.82679e-11
2.7193e-11
2.58732e-11
2.43255e-11
2.25764e-11
2.06614e-11
1.86238e-11
1.65122e-11
1.43777e-11
1.22707e-11
1.02378e-11
8.31997e-12
6.55254e-12
4.96791e-12
3.60546e-12
2.54023e-12
1.98827e-12
3.02379e-12
1.68651e-12
9.60234e-13
1.00271e-12
1.25285e-12
1.59659e-12
1.99066e-12
2.41258e-12
2.84818e-12
3.28751e-12
3.7233e-12
4.15028e-12
4.56484e-12
4.96486e-12
5.34954e-12
5.71925e-12
6.07532e-12
6.41993e-12
6.75585e-12
7.08633e-12
7.41485e-12
7.74507e-12
8.08061e-12
8.42504e-12
8.78175e-12
9.15393e-12
9.54455e-12
9.95632e-12
1.03917e-11
1.08528e-11
1.13416e-11
1.18596e-11
1.24082e-11
1.29884e-11
1.36007e-11
1.42454e-11
1.4922e-11
1.56297e-11
1.63669e-11
1.71313e-11
1.79196e-11
1.87276e-11
1.95498e-11
2.03795e-11
2.12086e-11
2.20272e-11
2.2824e-11
2.3586e-11
2.42983e-11
2.49446e-11
2.55072e-11
2.59671e-11
2.63034e-11
2.64794e-11
2.65083e-11
2.63679e-11
2.60336e-11
2.54926e-11
2.47389e-11
2.37728e-11
2.26017e-11
2.12408e-11
1.9713e-11
1.80484e-11
1.62837e-11
1.44597e-11
1.26196e-11
1.08062e-11
9.05978e-12
7.41695e-12
5.91133e-12
4.57796e-12
3.46541e-12
2.67321e-12
2.48219e-12
4.33039e-12
2.25394e-12
1.19939e-12
1.11213e-12
1.2717e-12
1.53989e-12
1.86626e-12
2.22565e-12
2.60288e-12
2.98764e-12
3.37258e-12
3.75241e-12
4.12352e-12
4.4837e-12
4.83202e-12
5.16863e-12
5.49463e-12
5.81185e-12
6.12277e-12
6.43026e-12
6.73748e-12
7.04773e-12
7.36437e-12
7.69067e-12
8.0298e-12
8.38473e-12
8.75825e-12
9.15291e-12
9.57102e-12
1.00146e-11
1.04855e-11
1.09851e-11
1.15145e-11
1.20746e-11
1.26658e-11
1.32878e-11
1.39401e-11
1.46213e-11
1.53295e-11
1.60617e-11
1.68144e-11
1.75826e-11
1.83606e-11
1.91412e-11
1.99161e-11
2.06756e-11
2.14087e-11
2.21032e-11
2.27454e-11
2.33209e-11
2.38141e-11
2.42094e-11
2.4486e-11
2.46117e-11
2.46121e-11
2.44543e-11
2.41223e-11
2.3606e-11
2.28999e-11
2.20041e-11
2.09247e-11
1.96748e-11
1.82738e-11
1.67485e-11
1.51317e-11
1.34609e-11
1.1776e-11
1.01175e-11
8.52394e-12
7.03135e-12
5.67462e-12
4.49332e-12
3.54761e-12
2.96045e-12
3.07858e-12
5.74357e-12
2.86651e-12
1.47035e-12
1.26118e-12
1.34187e-12
1.54783e-12
1.821e-12
2.1332e-12
2.46788e-12
2.8141e-12
3.16415e-12
3.51253e-12
3.85548e-12
4.19062e-12
4.51686e-12
4.83414e-12
5.14335e-12
5.44613e-12
5.74469e-12
6.0417e-12
6.3401e-12
6.64302e-12
6.95362e-12
7.27503e-12
7.61029e-12
7.96227e-12
8.33366e-12
8.72692e-12
9.14427e-12
9.58765e-12
1.00587e-11
1.05588e-11
1.10889e-11
1.16494e-11
1.22406e-11
1.28618e-11
1.35121e-11
1.41896e-11
1.48917e-11
1.56152e-11
1.63555e-11
1.71074e-11
1.78646e-11
1.86196e-11
1.9364e-11
2.00882e-11
2.07819e-11
2.14336e-11
2.20311e-11
2.25618e-11
2.30124e-11
2.33697e-11
2.36138e-11
2.37179e-11
2.37101e-11
2.35558e-11
2.32417e-11
2.27576e-11
2.20973e-11
2.12587e-11
2.02448e-11
1.90648e-11
1.7736e-11
1.62832e-11
1.47374e-11
1.31355e-11
1.15177e-11
9.92523e-12
8.39848e-12
6.97595e-12
5.69632e-12
4.60535e-12
3.77429e-12
3.34806e-12
3.74385e-12
7.23872e-12
3.52009e-12
1.76695e-12
1.43935e-12
1.44827e-12
1.60034e-12
1.82943e-12
2.1041e-12
2.40624e-12
2.72409e-12
3.04944e-12
3.37646e-12
3.7011e-12
4.0208e-12
4.33423e-12
4.64117e-12
4.94232e-12
5.23915e-12
5.53371e-12
5.82852e-12
6.12641e-12
6.43038e-12
6.7435e-12
7.06883e-12
7.40933e-12
7.76783e-12
8.14697e-12
8.54914e-12
8.97647e-12
9.4308e-12
9.91366e-12
1.04262e-11
1.09691e-11
1.15427e-11
1.21466e-11
1.27798e-11
1.34409e-11
1.41274e-11
1.48362e-11
1.55632e-11
1.63034e-11
1.70511e-11
1.77995e-11
1.85411e-11
1.92675e-11
1.99697e-11
2.06382e-11
2.12626e-11
2.18325e-11
2.23372e-11
2.27655e-11
2.31063e-11
2.33435e-11
2.34506e-11
2.34547e-11
2.33246e-11
2.3045e-11
2.26041e-11
2.19929e-11
2.12059e-11
2.02427e-11
1.91097e-11
1.78209e-11
1.63989e-11
1.48747e-11
1.32862e-11
1.16759e-11
1.00888e-11
8.56919e-12
7.16035e-12
5.90625e-12
4.85961e-12
4.10513e-12
3.80719e-12
4.45861e-12
8.79682e-12
4.21201e-12
2.08562e-12
1.6405e-12
1.58215e-12
1.68597e-12
1.87715e-12
2.1209e-12
2.39741e-12
2.69392e-12
3.00163e-12
3.31429e-12
3.62752e-12
3.93849e-12
4.24565e-12
4.54858e-12
4.84783e-12
5.14473e-12
5.44122e-12
5.73973e-12
6.043e-12
6.35398e-12
6.6757e-12
7.01118e-12
7.36335e-12
7.73501e-12
8.12875e-12
8.5469e-12
8.99138e-12
9.46396e-12
9.96602e-12
1.04985e-11
1.10617e-11
1.16556e-11
1.22794e-11
1.29316e-11
1.36101e-11
1.4312e-11
1.50334e-11
1.57697e-11
1.65155e-11
1.72645e-11
1.801e-11
1.87444e-11
1.94598e-11
2.01482e-11
2.08011e-11
2.14099e-11
2.19659e-11
2.24604e-11
2.28843e-11
2.32282e-11
2.34805e-11
2.36164e-11
2.36493e-11
2.35633e-11
2.33354e-11
2.29512e-11
2.23978e-11
2.1665e-11
2.07479e-11
1.96489e-11
1.8379e-11
1.69595e-11
1.54217e-11
1.38058e-11
1.21588e-11
1.05306e-11
8.97201e-12
7.53257e-12
6.26317e-12
5.22443e-12
4.51598e-12
4.32024e-12
5.21039e-12
1.04032e-11
4.94051e-12
2.4242e-12
1.86084e-12
1.73803e-12
1.79756e-12
1.95534e-12
2.17294e-12
2.42879e-12
2.70915e-12
3.00448e-12
3.30797e-12
3.6149e-12
3.92213e-12
4.22787e-12
4.53152e-12
4.83346e-12
5.13492e-12
5.43776e-12
5.74432e-12
6.05729e-12
6.37962e-12
6.71431e-12
7.06438e-12
7.43273e-12
7.8221e-12
8.23508e-12
8.67392e-12
9.14059e-12
9.63661e-12
1.0163e-11
1.07205e-11
1.13091e-11
1.19281e-11
1.25763e-11
1.32517e-11
1.39514e-11
1.46717e-11
1.54084e-11
1.61563e-11
1.69096e-11
1.76619e-11
1.84065e-11
1.91364e-11
1.98445e-11
2.05239e-11
2.11676e-11
2.17693e-11
2.23223e-11
2.28202e-11
2.32557e-11
2.36209e-11
2.39061e-11
2.40937e-11
2.41738e-11
2.41483e-11
2.39877e-11
2.36728e-11
2.31857e-11
2.25107e-11
2.1638e-11
2.05655e-11
1.93013e-11
1.78653e-11
1.62897e-11
1.46178e-11
1.29014e-11
1.11973e-11
9.56371e-12
8.05842e-12
6.74044e-12
5.67936e-12
4.99106e-12
4.87559e-12
5.99046e-12
1.20464e-11
5.70436e-12
2.78129e-12
2.09789e-12
1.91226e-12
1.93033e-12
2.0581e-12
2.25326e-12
2.49235e-12
2.76047e-12
3.04734e-12
3.34567e-12
3.65026e-12
3.95761e-12
4.26568e-12
4.57365e-12
4.88179e-12
5.1912e-12
5.50371e-12
5.82165e-12
6.14773e-12
6.48484e-12
6.83601e-12
7.20423e-12
7.59239e-12
8.0032e-12
8.43909e-12
8.90222e-12
9.3944e-12
9.91693e-12
1.04706e-11
1.10557e-11
1.16718e-11
1.23177e-11
1.29917e-11
1.36911e-11
1.44123e-11
1.51512e-11
1.5903e-11
1.6662e-11
1.74223e-11
1.81777e-11
1.89219e-11
1.96487e-11
2.03522e-11
2.10271e-11
2.16684e-11
2.22718e-11
2.28328e-11
2.33468e-11
2.38084e-11
2.42107e-11
2.45445e-11
2.47974e-11
2.49487e-11
2.49918e-11
2.49112e-11
2.46756e-11
2.42619e-11
2.36486e-11
2.28204e-11
2.17709e-11
2.05049e-11
1.9041e-11
1.74119e-11
1.56643e-11
1.38553e-11
1.20493e-11
1.0313e-11
8.71349e-12
7.31927e-12
6.21006e-12
5.51932e-12
5.46506e-12
6.79243e-12
1.37169e-11
6.5028e-12
3.156e-12
2.35e-12
2.10231e-12
2.081e-12
2.18133e-12
2.35697e-12
2.58242e-12
2.84156e-12
3.12331e-12
3.41973e-12
3.72515e-12
4.03572e-12
4.34913e-12
4.66438e-12
4.98157e-12
5.30174e-12
5.62663e-12
5.95859e-12
6.3003e-12
6.65469e-12
7.02478e-12
7.41354e-12
7.82385e-12
8.25834e-12
8.71936e-12
9.20891e-12
9.72856e-12
1.02794e-11
1.08618e-11
1.14756e-11
1.21199e-11
1.2793e-11
1.34925e-11
1.4215e-11
1.49566e-11
1.57125e-11
1.64775e-11
1.72458e-11
1.80115e-11
1.87689e-11
1.95124e-11
2.02371e-11
2.09385e-11
2.16132e-11
2.22584e-11
2.28715e-11
2.34504e-11
2.39922e-11
2.44927e-11
2.49457e-11
2.5342e-11
2.56687e-11
2.59099e-11
2.60311e-11
2.60357e-11
2.58861e-11
2.55511e-11
2.50026e-11
2.42201e-11
2.31927e-11
2.19219e-11
2.04245e-11
1.87336e-11
1.68986e-11
1.49819e-11
1.30555e-11
1.11954e-11
9.47903e-12
7.98549e-12
6.8059e-12
6.09262e-12
6.08271e-12
7.61147e-12
1.54074e-11
7.33537e-12
3.54773e-12
2.61602e-12
2.30641e-12
2.24719e-12
2.32213e-12
2.4806e-12
2.69496e-12
2.9478e-12
3.22711e-12
3.52431e-12
3.8332e-12
4.14956e-12
4.47076e-12
4.79561e-12
5.12408e-12
5.45712e-12
5.79647e-12
6.14443e-12
6.50371e-12
6.87726e-12
7.26807e-12
7.67912e-12
8.11322e-12
8.57292e-12
9.06045e-12
9.57759e-12
1.01257e-11
1.07054e-11
1.13167e-11
1.19591e-11
1.26311e-11
1.33303e-11
1.40538e-11
1.47976e-11
1.55572e-11
1.63276e-11
1.71032e-11
1.78783e-11
1.86476e-11
1.94058e-11
2.01485e-11
2.08722e-11
2.15744e-11
2.22534e-11
2.29086e-11
2.35394e-11
2.41455e-11
2.47252e-11
2.52752e-11
2.57895e-11
2.62582e-11
2.66674e-11
2.69992e-11
2.72198e-11
2.73039e-11
2.72437e-11
2.69905e-11
2.65089e-11
2.57737e-11
2.47697e-11
2.34948e-11
2.19634e-11
2.02084e-11
1.82809e-11
1.62484e-11
1.41898e-11
1.21909e-11
1.03399e-11
8.72788e-12
7.45872e-12
6.7048e-12
6.72413e-12
8.44392e-12
1.71121e-11
8.20184e-12
3.95612e-12
2.89517e-12
2.52328e-12
2.42716e-12
2.47829e-12
2.62157e-12
2.827e-12
3.07578e-12
3.35496e-12
3.6552e-12
3.96977e-12
4.29402e-12
4.62503e-12
4.96137e-12
5.3029e-12
5.65051e-12
6.00588e-12
6.37135e-12
6.74963e-12
7.14366e-12
7.55644e-12
7.99091e-12
8.44981e-12
8.93557e-12
9.45024e-12
9.99536e-12
1.05719e-11
1.11803e-11
1.182e-11
1.24899e-11
1.3188e-11
1.39114e-11
1.46565e-11
1.54189e-11
1.61938e-11
1.69756e-11
1.7759e-11
1.85386e-11
1.93096e-11
2.00679e-11
2.08103e-11
2.1535e-11
2.22412e-11
2.29295e-11
2.3601e-11
2.42569e-11
2.48982e-11
2.55242e-11
2.6132e-11
2.67149e-11
2.72622e-11
2.77581e-11
2.81816e-11
2.85056e-11
2.86747e-11
2.86971e-11
2.85269e-11
2.81135e-11
2.74274e-11
2.64494e-11
2.51738e-11
2.36121e-11
2.17958e-11
1.97769e-11
1.76264e-11
1.54298e-11
1.32822e-11
1.12834e-11
9.53725e-12
8.16187e-12
7.35133e-12
7.38601e-12
9.28705e-12
1.88265e-11
9.10211e-12
4.38093e-12
3.18687e-12
2.75199e-12
2.61959e-12
2.6482e-12
2.77791e-12
2.97627e-12
3.22295e-12
3.50396e-12
3.80919e-12
4.13131e-12
4.46521e-12
4.80766e-12
5.15703e-12
5.51303e-12
5.87649e-12
6.24909e-12
6.63315e-12
7.03141e-12
7.4468e-12
7.88231e-12
8.34082e-12
8.82497e-12
9.33704e-12
9.87886e-12
1.04517e-11
1.10562e-11
1.16923e-11
1.2359e-11
1.30547e-11
1.37769e-11
1.4522e-11
1.52859e-11
1.60639e-11
1.68509e-11
1.76413e-11
1.843e-11
1.92122e-11
1.99838e-11
2.07422e-11
2.14855e-11
2.22138e-11
2.29282e-11
2.3631e-11
2.43249e-11
2.50127e-11
2.5696e-11
2.63748e-11
2.70456e-11
2.77013e-11
2.83297e-11
2.8913e-11
2.94281e-11
2.98469e-11
3.01121e-11
3.02048e-11
3.01163e-11
2.9771e-11
2.91356e-11
2.81873e-11
2.69166e-11
2.53314e-11
2.34608e-11
2.13563e-11
1.90908e-11
1.67556e-11
1.44544e-11
1.22986e-11
1.0406e-11
8.91e-12
8.02878e-12
8.06591e-12
1.01389e-11
2.05476e-11
1.00362e-11
4.82201e-12
3.49072e-12
2.99184e-12
2.82346e-12
2.83057e-12
2.94812e-12
3.141e-12
3.38729e-12
3.67186e-12
3.98375e-12
4.315e-12
4.66003e-12
5.01526e-12
5.37886e-12
5.7504e-12
6.13067e-12
6.52133e-12
6.92471e-12
7.34354e-12
7.78077e-12
8.23935e-12
8.72208e-12
9.23147e-12
9.76962e-12
1.03381e-11
1.09379e-11
1.15693e-11
1.22316e-11
1.29236e-11
1.3643e-11
1.43866e-11
1.51507e-11
1.59306e-11
1.67212e-11
1.75175e-11
1.8314e-11
1.9106e-11
1.98896e-11
2.06618e-11
2.14212e-11
2.21678e-11
2.29031e-11
2.36302e-11
2.43527e-11
2.50749e-11
2.58003e-11
2.6531e-11
2.72668e-11
2.80037e-11
2.87333e-11
2.9442e-11
3.01101e-11
3.07125e-11
3.1219e-11
3.15788e-11
3.17374e-11
3.17231e-11
3.14451e-11
3.08614e-11
2.99467e-11
2.86875e-11
2.70878e-11
2.51729e-11
2.29924e-11
2.06196e-11
1.81498e-11
1.56943e-11
1.33762e-11
1.13276e-11
9.69888e-12
8.73448e-12
8.76211e-12
1.09982e-11
2.22733e-11
1.10043e-11
5.27931e-12
3.80645e-12
3.2423e-12
3.03798e-12
3.02445e-12
3.13099e-12
3.31981e-12
3.5672e-12
3.85684e-12
4.17684e-12
4.51856e-12
4.87592e-12
5.24501e-12
5.62376e-12
6.01164e-12
6.40936e-12
6.8186e-12
7.24169e-12
7.68137e-12
8.14057e-12
8.62219e-12
9.12894e-12
9.66318e-12
1.02268e-11
1.08211e-11
1.14467e-11
1.21034e-11
1.27903e-11
1.35054e-11
1.4246e-11
1.50086e-11
1.57889e-11
1.6582e-11
1.73827e-11
1.81859e-11
1.89867e-11
1.9781e-11
2.05658e-11
2.13395e-11
2.21019e-11
2.28548e-11
2.36013e-11
2.43459e-11
2.50935e-11
2.58492e-11
2.6617e-11
2.7399e-11
2.81942e-11
2.89977e-11
2.98e-11
3.05856e-11
3.13333e-11
3.20163e-11
3.2602e-11
3.30467e-11
3.32755e-11
3.33198e-11
3.31082e-11
3.25765e-11
3.16988e-11
3.0458e-11
2.88537e-11
2.69064e-11
2.46622e-11
2.21932e-11
1.95965e-11
1.69901e-11
1.45078e-11
1.22966e-11
1.05251e-11
9.46633e-12
9.47349e-12
1.18642e-11
2.40027e-11
1.20064e-11
5.75278e-12
4.13383e-12
3.50298e-12
3.26255e-12
3.22903e-12
3.32558e-12
3.51156e-12
3.7614e-12
4.05742e-12
4.38677e-12
4.74009e-12
5.11076e-12
5.49452e-12
5.88909e-12
6.29381e-12
6.70937e-12
7.13743e-12
7.58033e-12
8.04083e-12
8.52183e-12
9.02616e-12
9.55642e-12
1.01148e-11
1.07029e-11
1.13219e-11
1.19718e-11
1.26522e-11
1.33616e-11
1.40977e-11
1.48573e-11
1.56364e-11
1.64304e-11
1.72343e-11
1.80429e-11
1.88515e-11
1.96557e-11
2.04522e-11
2.12391e-11
2.20161e-11
2.27846e-11
2.35477e-11
2.431e-11
2.50771e-11
2.58549e-11
2.66488e-11
2.74628e-11
2.82984e-11
2.91538e-11
3.00228e-11
3.08943e-11
3.17517e-11
3.25721e-11
3.33277e-11
3.39847e-11
3.45008e-11
3.47988e-11
3.48908e-11
3.47418e-11
3.42611e-11
3.34228e-11
3.22067e-11
3.06073e-11
2.86403e-11
2.63463e-11
2.37944e-11
2.10817e-11
1.8331e-11
1.56858e-11
1.33083e-11
1.13862e-11
1.02226e-11
1.01995e-11
1.27368e-11
2.57356e-11
1.30428e-11
6.24244e-12
4.47271e-12
3.77355e-12
3.49669e-12
3.44369e-12
3.53111e-12
3.71535e-12
3.96879e-12
4.27234e-12
4.61211e-12
4.97794e-12
5.36269e-12
5.76171e-12
6.17252e-12
6.59436e-12
7.02787e-12
7.47473e-12
7.93731e-12
8.41834e-12
8.92071e-12
9.44717e-12
1.00002e-11
1.05818e-11
1.11933e-11
1.18355e-11
1.25082e-11
1.32105e-11
1.39405e-11
1.46954e-11
1.54717e-11
1.6265e-11
1.70707e-11
1.78837e-11
1.8699e-11
1.95123e-11
2.03199e-11
2.11196e-11
2.19105e-11
2.26937e-11
2.34721e-11
2.42499e-11
2.50331e-11
2.58278e-11
2.66406e-11
2.74767e-11
2.83397e-11
2.92302e-11
3.01451e-11
3.10771e-11
3.20135e-11
3.29362e-11
3.38216e-11
3.4641e-11
3.53599e-11
3.59365e-11
3.62966e-11
3.6429e-11
3.63366e-11
3.59041e-11
3.51059e-11
3.39189e-11
3.2333e-11
3.0358e-11
2.80284e-11
2.54084e-11
2.2593e-11
1.97073e-11
1.69037e-11
1.43585e-11
1.22799e-11
1.10022e-11
1.09398e-11
1.36161e-11
2.74728e-11
1.41136e-11
6.74828e-12
4.82296e-12
4.05373e-12
3.74003e-12
3.66791e-12
3.74694e-12
3.93039e-12
4.18847e-12
4.50055e-12
4.85162e-12
5.23069e-12
5.63006e-12
6.04472e-12
6.47197e-12
6.91097e-12
7.36234e-12
7.82777e-12
8.30964e-12
8.81071e-12
9.33382e-12
9.88163e-12
1.04565e-11
1.10601e-11
1.16938e-11
1.23578e-11
1.30517e-11
1.37741e-11
1.45228e-11
1.52946e-11
1.60857e-11
1.68917e-11
1.77076e-11
1.85286e-11
1.93501e-11
2.01683e-11
2.09805e-11
2.17853e-11
2.25832e-11
2.33765e-11
2.41692e-11
2.49669e-11
2.57761e-11
2.66035e-11
2.74557e-11
2.83374e-11
2.92514e-11
3.01972e-11
3.11704e-11
3.21621e-11
3.31583e-11
3.41399e-11
3.50824e-11
3.59567e-11
3.6728e-11
3.73551e-11
3.77686e-11
3.79352e-11
3.78912e-11
3.75025e-11
3.6743e-11
3.55872e-11
3.40209e-11
3.20479e-11
2.9696e-11
2.70229e-11
2.41191e-11
2.11103e-11
1.81549e-11
1.54433e-11
1.32042e-11
1.18047e-11
1.16945e-11
1.45026e-11
2.92155e-11
1.52189e-11
7.27032e-12
5.1845e-12
4.34334e-12
3.99227e-12
3.90127e-12
3.97253e-12
4.15603e-12
4.41965e-12
4.74111e-12
5.10418e-12
5.49705e-12
5.9114e-12
6.34187e-12
6.78555e-12
7.24155e-12
7.71047e-12
8.19403e-12
8.69465e-12
9.21509e-12
9.75813e-12
1.03264e-11
1.0922e-11
1.15466e-11
1.2201e-11
1.28854e-11
1.35989e-11
1.43398e-11
1.51056e-11
1.58928e-11
1.66974e-11
1.75147e-11
1.83401e-11
1.9169e-11
1.99971e-11
2.08215e-11
2.16403e-11
2.24533e-11
2.32621e-11
2.407e-11
2.48823e-11
2.57052e-11
2.65456e-11
2.74107e-11
2.83062e-11
2.92366e-11
3.02032e-11
3.12043e-11
3.2234e-11
3.3282e-11
3.43332e-11
3.53674e-11
3.63596e-11
3.72807e-11
3.80956e-11
3.87638e-11
3.92218e-11
3.94176e-11
3.94118e-11
3.9061e-11
3.83363e-11
3.7211e-11
3.56671e-11
3.37031e-11
3.134e-11
2.86276e-11
2.56505e-11
2.25316e-11
1.94337e-11
1.65591e-11
1.41574e-11
1.26294e-11
1.2464e-11
1.53972e-11
3.09655e-11
1.63589e-11
7.80857e-12
5.55723e-12
4.64218e-12
4.25312e-12
4.14339e-12
4.20742e-12
4.39171e-12
4.66164e-12
4.99317e-12
5.36881e-12
5.77583e-12
6.20533e-12
6.65158e-12
7.11151e-12
7.58415e-12
8.07014e-12
8.57125e-12
9.08992e-12
9.62892e-12
1.0191e-11
1.07787e-11
1.1394e-11
1.20383e-11
1.27123e-11
1.34157e-11
1.41474e-11
1.49056e-11
1.56871e-11
1.64886e-11
1.73058e-11
1.81342e-11
1.89691e-11
1.98064e-11
2.06427e-11
2.14755e-11
2.2304e-11
2.3129e-11
2.39532e-11
2.47811e-11
2.56184e-11
2.64721e-11
2.73492e-11
2.82565e-11
2.91993e-11
3.01809e-11
3.12013e-11
3.22575e-11
3.33421e-11
3.44435e-11
3.55454e-11
3.6627e-11
3.76628e-11
3.86237e-11
3.94745e-11
4.01754e-11
4.06687e-11
4.08915e-11
4.0911e-11
4.05911e-11
3.98949e-11
3.87957e-11
3.72734e-11
3.53217e-11
3.2955e-11
3.02152e-11
2.71789e-11
2.3964e-11
2.07343e-11
1.77024e-11
1.51378e-11
1.34762e-11
1.32487e-11
1.63007e-11
3.27247e-11
1.75335e-11
8.363e-12
5.94108e-12
4.9501e-12
4.52236e-12
4.39399e-12
4.45122e-12
4.63692e-12
4.91381e-12
5.25597e-12
5.64456e-12
6.06593e-12
6.51057e-12
6.97241e-12
7.44822e-12
7.937e-12
8.43944e-12
8.95737e-12
9.49328e-12
1.005e-11
1.06302e-11
1.12363e-11
1.18702e-11
1.25332e-11
1.32255e-11
1.39468e-11
1.46958e-11
1.54701e-11
1.62667e-11
1.70819e-11
1.79115e-11
1.87511e-11
1.95965e-11
2.0444e-11
2.12906e-11
2.2135e-11
2.29771e-11
2.38189e-11
2.46638e-11
2.55172e-11
2.63854e-11
2.72756e-11
2.81946e-11
2.91488e-11
3.01425e-11
3.11777e-11
3.22533e-11
3.33646e-11
3.45029e-11
3.56553e-11
3.68048e-11
3.79298e-11
3.90045e-11
4e-11
4.0881e-11
4.16081e-11
4.21286e-11
4.23726e-11
4.24082e-11
4.211e-11
4.14336e-11
4.03531e-11
3.88471e-11
3.69063e-11
3.45395e-11
3.17808e-11
2.86976e-11
2.54005e-11
2.20512e-11
1.88696e-11
1.61438e-11
1.43447e-11
1.4049e-11
1.72141e-11
3.44952e-11
1.87429e-11
8.93359e-12
6.33595e-12
5.26697e-12
4.79979e-12
4.65278e-12
4.70356e-12
4.8912e-12
5.17558e-12
5.52878e-12
5.93057e-12
6.36632e-12
6.82593e-12
7.30299e-12
7.79416e-12
8.29844e-12
8.81659e-12
9.35053e-12
9.90283e-12
1.04763e-11
1.10737e-11
1.16973e-11
1.23489e-11
1.30295e-11
1.37393e-11
1.44777e-11
1.52431e-11
1.6033e-11
1.68444e-11
1.76734e-11
1.8516e-11
1.9368e-11
2.02256e-11
2.10855e-11
2.19458e-11
2.28057e-11
2.36662e-11
2.45299e-11
2.54014e-11
2.62863e-11
2.71914e-11
2.81238e-11
2.909e-11
3.00955e-11
3.11435e-11
3.22349e-11
3.33671e-11
3.45339e-11
3.57254e-11
3.69276e-11
3.81227e-11
3.92887e-11
4.03996e-11
4.14264e-11
4.23338e-11
4.30826e-11
4.36233e-11
4.38817e-11
4.39265e-11
4.36397e-11
4.29722e-11
4.18996e-11
4.04006e-11
3.84644e-11
3.6096e-11
3.33224e-11
3.02019e-11
2.68352e-11
2.33791e-11
2.0057e-11
1.71735e-11
1.52343e-11
1.48653e-11
1.81384e-11
3.6279e-11
1.9987e-11
9.5203e-12
6.74176e-12
5.59264e-12
5.08523e-12
4.91951e-12
4.96413e-12
5.15413e-12
5.4464e-12
5.81093e-12
6.22601e-12
6.67601e-12
7.15025e-12
7.64203e-12
8.14792e-12
8.66695e-12
9.2e-12
9.7491e-12
1.03169e-11
1.09063e-11
1.152e-11
1.21602e-11
1.28287e-11
1.35262e-11
1.42529e-11
1.50079e-11
1.57894e-11
1.6595e-11
1.74215e-11
1.82651e-11
1.91219e-11
1.99882e-11
2.08605e-11
2.17362e-11
2.26141e-11
2.34942e-11
2.43783e-11
2.52699e-11
2.6174e-11
2.70967e-11
2.80448e-11
2.90251e-11
3.00436e-11
3.11047e-11
3.22106e-11
3.33607e-11
3.45512e-11
3.57745e-11
3.70195e-11
3.82715e-11
3.95118e-11
4.07179e-11
4.1864e-11
4.29209e-11
4.38528e-11
4.46209e-11
4.51762e-11
4.54429e-11
4.54912e-11
4.52051e-11
4.45344e-11
4.34563e-11
4.19509e-11
4.00079e-11
3.76307e-11
3.48413e-11
3.16887e-11
2.82632e-11
2.47127e-11
2.12605e-11
1.82248e-11
1.61445e-11
1.56981e-11
1.90743e-11
3.80778e-11
2.12657e-11
1.0123e-11
7.15842e-12
5.92698e-12
5.37848e-12
5.19395e-12
5.2326e-12
5.4253e-12
5.72576e-12
6.10177e-12
6.53006e-12
6.99405e-12
7.48245e-12
7.98832e-12
8.50817e-12
9.04115e-12
9.58825e-12
1.01517e-11
1.07342e-11
1.13387e-11
1.19679e-11
1.26242e-11
1.33089e-11
1.40229e-11
1.47662e-11
1.55377e-11
1.63356e-11
1.71574e-11
1.79999e-11
1.88596e-11
1.97327e-11
2.06158e-11
2.15062e-11
2.24017e-11
2.33019e-11
2.42076e-11
2.51212e-11
2.60468e-11
2.69899e-11
2.79566e-11
2.89538e-11
2.99876e-11
3.10634e-11
3.21844e-11
3.33518e-11
3.45634e-11
3.58143e-11
3.70957e-11
3.83955e-11
3.96981e-11
4.09844e-11
4.22317e-11
4.34136e-11
4.45011e-11
4.54579e-11
4.62449e-11
4.68113e-11
4.70816e-11
4.71286e-11
4.68331e-11
4.61465e-11
4.50475e-11
4.35189e-11
4.1553e-11
3.91541e-11
3.63417e-11
3.31576e-11
2.96806e-11
2.60473e-11
2.24763e-11
1.92952e-11
1.70744e-11
1.65473e-11
2.00224e-11
3.98929e-11
2.25788e-11
1.07417e-11
7.5858e-12
6.26986e-12
5.67938e-12
5.47588e-12
5.5087e-12
5.70433e-12
6.01316e-12
6.40065e-12
6.84197e-12
7.31953e-12
7.8215e-12
8.34073e-12
8.87373e-12
9.4198e-12
9.98011e-12
1.0557e-11
1.11535e-11
1.17725e-11
1.24168e-11
1.30886e-11
1.37893e-11
1.45198e-11
1.52798e-11
1.60682e-11
1.68833e-11
1.77224e-11
1.85826e-11
1.94605e-11
2.03526e-11
2.1256e-11
2.21685e-11
2.30886e-11
2.40163e-11
2.49533e-11
2.59026e-11
2.68687e-11
2.78572e-11
2.88744e-11
2.99266e-11
3.10195e-11
3.21574e-11
3.33426e-11
3.45749e-11
3.58511e-11
3.71649e-11
3.85065e-11
3.98631e-11
4.12184e-11
4.25528e-11
4.38433e-11
4.50636e-11
4.6184e-11
4.71678e-11
4.79751e-11
4.85516e-11
4.88226e-11
4.88649e-11
4.85512e-11
4.78362e-11
4.67e-11
4.51289e-11
4.31196e-11
4.06804e-11
3.78316e-11
3.46105e-11
3.10851e-11
2.73783e-11
2.36998e-11
2.03818e-11
1.80225e-11
1.74128e-11
2.09831e-11
4.17252e-11
2.39261e-11
1.13762e-11
8.02378e-12
6.62113e-12
5.98777e-12
5.76508e-12
5.79213e-12
5.99084e-12
6.3081e-12
6.70695e-12
7.16098e-12
7.65157e-12
8.16642e-12
8.6982e-12
9.24352e-12
9.80184e-12
1.03746e-11
1.09643e-11
1.15741e-11
1.22072e-11
1.28662e-11
1.35534e-11
1.42703e-11
1.50176e-11
1.57949e-11
1.66013e-11
1.74348e-11
1.82931e-11
1.91732e-11
2.00721e-11
2.09867e-11
2.19145e-11
2.28537e-11
2.38036e-11
2.47648e-11
2.57393e-11
2.67308e-11
2.77439e-11
2.87843e-11
2.98581e-11
3.09712e-11
3.21284e-11
3.33332e-11
3.45868e-11
3.58877e-11
3.72315e-11
3.8611e-11
4.00155e-11
4.14315e-11
4.28423e-11
4.42278e-11
4.55649e-11
4.6827e-11
4.79841e-11
4.89987e-11
4.98297e-11
5.04178e-11
5.06892e-11
5.07245e-11
5.03859e-11
4.96312e-11
4.84416e-11
4.6807e-11
4.47305e-11
4.22272e-11
3.93222e-11
3.60521e-11
3.2476e-11
2.87022e-11
2.49269e-11
2.14814e-11
1.89873e-11
1.82939e-11
2.19563e-11
4.35748e-11
2.53072e-11
1.20262e-11
8.47221e-12
6.98064e-12
6.30345e-12
6.06134e-12
6.0826e-12
6.28445e-12
6.61008e-12
7.02008e-12
7.48635e-12
7.98934e-12
8.51629e-12
9.0598e-12
9.61659e-12
1.01864e-11
1.07709e-11
1.13729e-11
1.19957e-11
1.26426e-11
1.33164e-11
1.40193e-11
1.47529e-11
1.55177e-11
1.63135e-11
1.71393e-11
1.79932e-11
1.88731e-11
1.97762e-11
2.06996e-11
2.16408e-11
2.25977e-11
2.35689e-11
2.45543e-11
2.5555e-11
2.65736e-11
2.76138e-11
2.86805e-11
2.97793e-11
3.09158e-11
3.20954e-11
3.33222e-11
3.45984e-11
3.59242e-11
3.72972e-11
3.87119e-11
4.01601e-11
4.16304e-11
4.31089e-11
4.45784e-11
4.60188e-11
4.74066e-11
4.87151e-11
4.99138e-11
5.09641e-11
5.18238e-11
5.24277e-11
5.27013e-11
5.27292e-11
5.23616e-11
5.15583e-11
5.03002e-11
4.8581e-11
4.6411e-11
4.38154e-11
4.08283e-11
3.74901e-11
3.38547e-11
3.0016e-11
2.61531e-11
2.25902e-11
1.99666e-11
1.91899e-11
2.29417e-11
4.54411e-11
2.67219e-11
1.26918e-11
8.93093e-12
7.34823e-12
6.62626e-12
6.36443e-12
6.37984e-12
6.58478e-12
6.91864e-12
7.33942e-12
7.81738e-12
8.33206e-12
8.8703e-12
9.42469e-12
9.99217e-12
1.05728e-11
1.11685e-11
1.17825e-11
1.24182e-11
1.3079e-11
1.37679e-11
1.44873e-11
1.52384e-11
1.60221e-11
1.68381e-11
1.76854e-11
1.85624e-11
1.94669e-11
2.03965e-11
2.13487e-11
2.23211e-11
2.33123e-11
2.43213e-11
2.53483e-11
2.63951e-11
2.74643e-11
2.85599e-11
2.96868e-11
3.08502e-11
3.20554e-11
3.33068e-11
3.46079e-11
3.59598e-11
3.73618e-11
3.88102e-11
4.02988e-11
4.18186e-11
4.33578e-11
4.4902e-11
4.64338e-11
4.7933e-11
4.93761e-11
5.07361e-11
5.19819e-11
5.30741e-11
5.39685e-11
5.45952e-11
5.48752e-11
5.48973e-11
5.44998e-11
5.36416e-11
5.23023e-11
5.04783e-11
4.81881e-11
4.54686e-11
4.23677e-11
3.89353e-11
3.52251e-11
3.13184e-11
2.73745e-11
2.37044e-11
2.09578e-11
2.00992e-11
2.39384e-11
4.73229e-11
2.81696e-11
1.33725e-11
9.39976e-12
7.72372e-12
6.95601e-12
6.67411e-12
6.68355e-12
6.89146e-12
7.23328e-12
7.66439e-12
8.15341e-12
8.679e-12
9.2277e-12
9.79217e-12
1.03697e-11
1.09605e-11
1.15672e-11
1.21931e-11
1.28419e-11
1.35172e-11
1.42221e-11
1.49589e-11
1.57292e-11
1.65337e-11
1.73721e-11
1.82437e-11
1.91469e-11
2.00797e-11
2.10401e-11
2.20257e-11
2.30347e-11
2.40659e-11
2.51187e-11
2.61939e-11
2.72933e-11
2.84198e-11
2.95775e-11
3.07709e-11
3.2005e-11
3.32844e-11
3.46128e-11
3.59926e-11
3.74242e-11
3.89057e-11
4.04327e-11
4.19982e-11
4.35924e-11
4.52034e-11
4.68162e-11
4.84138e-11
4.99758e-11
5.14788e-11
5.28954e-11
5.41942e-11
5.53348e-11
5.62711e-11
5.69295e-11
5.72229e-11
5.72425e-11
5.68176e-11
5.59021e-11
5.44722e-11
5.25258e-11
5.00887e-11
4.7212e-11
4.3961e-11
4.04016e-11
3.65934e-11
3.26092e-11
2.85875e-11
2.48196e-11
2.19577e-11
2.10201e-11
2.49451e-11
4.92179e-11
2.96498e-11
1.40681e-11
9.87849e-12
8.10693e-12
7.2925e-12
6.99015e-12
6.99344e-12
7.2041e-12
7.55354e-12
7.99443e-12
8.4938e-12
9.0295e-12
9.58786e-12
1.01617e-11
1.07486e-11
1.13495e-11
1.19671e-11
1.26051e-11
1.32676e-11
1.39584e-11
1.46805e-11
1.54365e-11
1.6228e-11
1.70556e-11
1.79194e-11
1.88186e-11
1.97519e-11
2.07174e-11
2.17133e-11
2.27377e-11
2.3789e-11
2.48663e-11
2.59695e-11
2.70995e-11
2.82582e-11
2.94488e-11
3.0675e-11
3.19412e-11
3.32517e-11
3.46104e-11
3.60205e-11
3.74831e-11
3.8998e-11
4.05621e-11
4.21704e-11
4.38152e-11
4.54863e-11
4.71714e-11
4.88558e-11
5.05222e-11
5.21506e-11
5.37175e-11
5.51957e-11
5.65534e-11
5.7749e-11
5.87347e-11
5.94353e-11
5.97512e-11
5.97738e-11
5.93276e-11
5.83563e-11
5.68308e-11
5.47479e-11
5.21397e-11
4.90719e-11
4.56312e-11
4.19055e-11
3.79687e-11
3.38903e-11
2.97891e-11
2.59314e-11
2.29629e-11
2.19502e-11
2.596e-11
5.1123e-11
3.11619e-11
1.47784e-11
1.03669e-11
8.49766e-12
7.63554e-12
7.31225e-12
7.3092e-12
7.52232e-12
7.87893e-12
8.32899e-12
8.83796e-12
9.38297e-12
9.95026e-12
1.05329e-11
1.1129e-11
1.17398e-11
1.23686e-11
1.30195e-11
1.36967e-11
1.44043e-11
1.51456e-11
1.5923e-11
1.67382e-11
1.75922e-11
1.84849e-11
1.94156e-11
2.03834e-11
2.13865e-11
2.24233e-11
2.34923e-11
2.45921e-11
2.5722e-11
2.68823e-11
2.80739e-11
2.92988e-11
3.056e-11
3.18612e-11
3.3206e-11
3.45982e-11
3.60412e-11
3.7537e-11
3.90861e-11
4.06872e-11
4.23366e-11
4.40284e-11
4.57544e-11
4.75043e-11
4.92655e-11
5.10234e-11
5.2761e-11
5.44587e-11
5.60932e-11
5.76373e-11
5.90591e-11
6.03162e-11
6.13586e-11
6.21127e-11
6.24621e-11
6.24951e-11
6.20371e-11
6.1016e-11
5.93945e-11
5.71659e-11
5.4366e-11
5.10746e-11
4.74026e-11
4.34664e-11