/*--------------------------------*- C++ -*----------------------------------*\
  =========                 |
  \\      /  F ield         | OpenFOAM: The Open Source CFD Toolbox
   \\    /   O peration     | Website:  https://openfoam.org
    \\  /    A nd           | Version:  12
     \\/     M anipulation  |
\*---------------------------------------------------------------------------*/
FoamFile
{
    format      ascii;
    class       volScalarField;
    location    "10";
    object      k;
}
// * * * * * * * * * * * * * * * * * * * * * * * * * * * * * * * * * * * * * //

dimensions      [0 2 -2 0 0 0 0];

internalField   nonuniform List<scalar> 
5625
(
2.22045e-16
2.65953e-16
5.89477e-16
9.70475e-16
1.38828e-15
1.82878e-15
2.28104e-15
2.73624e-15
3.18724e-15
3.62843e-15
4.05561e-15
4.46593e-15
4.85785e-15
5.23099e-15
5.58606e-15
5.92467e-15
6.24916e-15
6.56243e-15
6.86774e-15
7.16856e-15
7.46841e-15
7.77077e-15
8.07895e-15
8.3961e-15
8.72508e-15
9.06853e-15
9.42881e-15
9.80801e-15
1.0208e-14
1.06303e-14
1.10765e-14
1.15475e-14
1.20443e-14
1.25676e-14
1.31179e-14
1.36952e-14
1.42993e-14
1.49296e-14
1.55852e-14
1.62643e-14
1.69646e-14
1.76832e-14
1.84158e-14
1.91573e-14
1.99012e-14
2.06392e-14
2.13617e-14
2.20566e-14
2.27102e-14
2.33064e-14
2.38267e-14
2.42503e-14
2.45526e-14
2.47012e-14
2.47104e-14
2.45368e-14
2.41581e-14
2.35612e-14
2.27396e-14
2.1695e-14
2.0438e-14
1.89893e-14
1.73792e-14
1.56468e-14
1.38373e-14
1.19988e-14
1.01791e-14
8.42153e-15
6.76265e-15
5.23016e-15
3.84316e-15
2.61447e-15
1.55636e-15
6.93496e-16
2.22045e-16
2.98855e-16
2.36667e-15
5.28885e-15
8.72171e-15
1.24841e-14
1.64499e-14
2.05209e-14
2.46178e-14
2.86767e-14
3.26469e-14
3.64907e-14
4.01826e-14
4.37085e-14
4.70653e-14
5.02593e-14
5.33051e-14
5.62236e-14
5.90412e-14
6.1787e-14
6.44925e-14
6.71892e-14
6.99085e-14
7.26802e-14
7.55326e-14
7.84916e-14
8.15808e-14
8.48214e-14
8.82323e-14
9.18301e-14
9.56293e-14
9.96423e-14
1.03879e-13
1.08349e-13
1.13057e-13
1.18006e-13
1.232e-13
1.28634e-13
1.34305e-13
1.40202e-13
1.46312e-13
1.52613e-13
1.59078e-13
1.6567e-13
1.72342e-13
1.79035e-13
1.85678e-13
1.9218e-13
1.98436e-13
2.0432e-13
2.09689e-13
2.14376e-13
2.18195e-13
2.20923e-13
2.22259e-13
2.22339e-13
2.20769e-13
2.17352e-13
2.11971e-13
2.04569e-13
1.9516e-13
1.83841e-13
1.70799e-13
1.56307e-13
1.40716e-13
1.24433e-13
1.07892e-13
9.15209e-14
7.57109e-14
6.07895e-14
4.70055e-14
3.45299e-14
2.34766e-14
1.39529e-14
6.16994e-15
7.73864e-16
6.31211e-16
5.4017e-15
1.21504e-14
2.00791e-14
2.87672e-14
3.79233e-14
4.73209e-14
5.6777e-14
6.61438e-14
7.53045e-14
8.41722e-14
9.26878e-14
1.00819e-13
1.08559e-13
1.15923e-13
1.22944e-13
1.29672e-13
1.36166e-13
1.42496e-13
1.48732e-13
1.5495e-13
1.6122e-13
1.67613e-13
1.74193e-13
1.8102e-13
1.88148e-13
1.95628e-13
2.03501e-13
2.11808e-13
2.20581e-13
2.29848e-13
2.39635e-13
2.49959e-13
2.60834e-13
2.7227e-13
2.84268e-13
2.96825e-13
3.09928e-13
3.23554e-13
3.3767e-13
3.52227e-13
3.6716e-13
3.82385e-13
3.97793e-13
4.13245e-13
4.28574e-13
4.43574e-13
4.57999e-13
4.71559e-13
4.8392e-13
4.94703e-13
5.03478e-13
5.09728e-13
5.12729e-13
5.12898e-13
5.09242e-13
5.0132e-13
4.88865e-13
4.71747e-13
4.50001e-13
4.23851e-13
3.93727e-13
3.60262e-13
3.24268e-13
2.86684e-13
2.48514e-13
2.10748e-13
1.74287e-13
1.39888e-13
1.08121e-13
7.93773e-14
5.39146e-14
3.19757e-14
1.40484e-14
1.6367e-15
1.03124e-15
9.04969e-15
2.04544e-14
3.38708e-14
4.85757e-14
6.40717e-14
7.99742e-14
9.59731e-14
1.11818e-13
1.2731e-13
1.42304e-13
1.56698e-13
1.7044e-13
1.83517e-13
1.95956e-13
2.07814e-13
2.19175e-13
2.30143e-13
2.40832e-13
2.51367e-13
2.61871e-13
2.72467e-13
2.83273e-13
2.94398e-13
3.05945e-13
3.18006e-13
3.30663e-13
3.43991e-13
3.58054e-13
3.72909e-13
3.88604e-13
4.0518e-13
4.22667e-13
4.4109e-13
4.60463e-13
4.80788e-13
5.02058e-13
5.2425e-13
5.47325e-13
5.71223e-13
5.95863e-13
6.21131e-13
6.46883e-13
6.72931e-13
6.99043e-13
7.24932e-13
7.50249e-13
7.74578e-13
7.97433e-13
8.18249e-13
8.36389e-13
8.5114e-13
8.61609e-13
8.66537e-13
8.66795e-13
8.60563e-13
8.47116e-13
8.2601e-13
7.97025e-13
7.60216e-13
7.15956e-13
6.6497e-13
6.0833e-13
5.47412e-13
4.83814e-13
4.19241e-13
3.55375e-13
2.93749e-13
2.35641e-13
1.82012e-13
1.33516e-13
9.05796e-14
5.36069e-14
2.34379e-14
2.66367e-15
1.48565e-15
1.31691e-14
2.98685e-14
4.95482e-14
7.11297e-14
9.38743e-14
1.17214e-13
1.4069e-13
1.63935e-13
1.86658e-13
2.08642e-13
2.29741e-13
2.49876e-13
2.69033e-13
2.87248e-13
3.04611e-13
3.21244e-13
3.373e-13
3.52951e-13
3.68378e-13
3.83766e-13
3.99295e-13
4.15136e-13
4.31454e-13
4.48395e-13
4.66097e-13
4.84679e-13
5.04252e-13
5.24909e-13
5.46732e-13
5.69793e-13
5.94148e-13
6.19843e-13
6.46912e-13
6.75372e-13
7.05226e-13
7.36459e-13
7.69035e-13
8.02893e-13
8.37941e-13
8.74055e-13
9.11065e-13
9.48755e-13
9.86849e-13
1.025e-12
1.0628e-12
1.09972e-12
1.13518e-12
1.16845e-12
1.19873e-12
1.22509e-12
1.24652e-12
1.26167e-12
1.26868e-12
1.26904e-12
1.25989e-12
1.24019e-12
1.20929e-12
1.16686e-12
1.11295e-12
1.0481e-12
9.73362e-13
8.90295e-13
8.00926e-13
7.07616e-13
6.12888e-13
5.19233e-13
4.28916e-13
3.43821e-13
2.65356e-13
1.94467e-13
1.31763e-13
7.78271e-14
3.3906e-14
3.81467e-15
1.98551e-15
1.76838e-14
4.02072e-14
6.67988e-14
9.59809e-14
1.26742e-13
1.58307e-13
1.90053e-13
2.21477e-13
2.52186e-13
2.81886e-13
3.1038e-13
3.37562e-13
3.63412e-13
3.87985e-13
4.11401e-13
4.33831e-13
4.55484e-13
4.76594e-13
4.97408e-13
5.18176e-13
5.39144e-13
5.60545e-13
5.82599e-13
6.05506e-13
6.2945e-13
6.54595e-13
6.81085e-13
7.09048e-13
7.38592e-13
7.69812e-13
8.02783e-13
8.37562e-13
8.7419e-13
9.12688e-13
9.53053e-13
9.95258e-13
1.03925e-12
1.08493e-12
1.13218e-12
1.18082e-12
1.23061e-12
1.28126e-12
1.33239e-12
1.38354e-12
1.43414e-12
1.48352e-12
1.53089e-12
1.5753e-12
1.61568e-12
1.65082e-12
1.67938e-12
1.69954e-12
1.70877e-12
1.70929e-12
1.69705e-12
1.67064e-12
1.62919e-12
1.57221e-12
1.49973e-12
1.41243e-12
1.31168e-12
1.19961e-12
1.07894e-12
9.52891e-13
8.24914e-13
6.98419e-13
5.76504e-13
4.61738e-13
3.56029e-13
2.60642e-13
1.76373e-13
1.03995e-13
4.51859e-14
5.05954e-15
2.52512e-15
2.25477e-14
5.13573e-14
8.54272e-14
1.22845e-13
1.623e-13
2.02786e-13
2.43498e-13
2.83789e-13
3.23148e-13
3.61198e-13
3.97686e-13
4.32479e-13
4.65551e-13
4.96979e-13
5.26919e-13
5.55594e-13
5.83277e-13
6.1027e-13
6.36894e-13
6.63471e-13
6.90317e-13
7.17733e-13
7.45999e-13
7.75372e-13
8.06086e-13
8.38349e-13
8.72345e-13
9.08232e-13
9.4615e-13
9.8621e-13
1.02851e-12
1.0731e-12
1.12005e-12
1.16936e-12
1.22102e-12
1.27499e-12
1.33117e-12
1.38946e-12
1.44966e-12
1.51154e-12
1.57479e-12
1.63904e-12
1.70379e-12
1.76847e-12
1.83237e-12
1.89466e-12
1.95433e-12
2.01024e-12
2.06105e-12
2.10526e-12
2.14123e-12
2.16661e-12
2.17822e-12
2.17902e-12
2.1637e-12
2.13041e-12
2.078e-12
2.0058e-12
1.91377e-12
1.80269e-12
1.67427e-12
1.5312e-12
1.37696e-12
1.21571e-12
1.05193e-12
8.90058e-13
7.34116e-13
5.87443e-13
4.52502e-13
3.30901e-13
2.23634e-13
1.31659e-13
5.70894e-14
6.37663e-15
3.10087e-15
2.77312e-14
6.32456e-14
1.05305e-13
1.51535e-13
2.00296e-13
2.50336e-13
3.00648e-13
3.50425e-13
3.99033e-13
4.46003e-13
4.91022e-13
5.33924e-13
5.74686e-13
6.13404e-13
6.50277e-13
6.85586e-13
7.19675e-13
7.52921e-13
7.85724e-13
8.18485e-13
8.51595e-13
8.85426e-13
9.20324e-13
9.56605e-13
9.94553e-13
1.03442e-12
1.07644e-12
1.12079e-12
1.16763e-12
1.21711e-12
1.26932e-12
1.32434e-12
1.3822e-12
1.44291e-12
1.50645e-12
1.57274e-12
1.64166e-12
1.71303e-12
1.78662e-12
1.86213e-12
1.93918e-12
2.01728e-12
2.09586e-12
2.17423e-12
2.25153e-12
2.32679e-12
2.39882e-12
2.46628e-12
2.52759e-12
2.58097e-12
2.62445e-12
2.65524e-12
2.6694e-12
2.67066e-12
2.65242e-12
2.61229e-12
2.54883e-12
2.4611e-12
2.34896e-12
2.21327e-12
2.05605e-12
1.88054e-12
1.69103e-12
1.49269e-12
1.29109e-12
1.09178e-12
8.99819e-13
7.19395e-13
5.53583e-13
4.04371e-13
2.72954e-13
1.60479e-13
6.9475e-14
7.74917e-15
3.71038e-15
3.32146e-14
7.58239e-14
1.26348e-13
1.81921e-13
2.40559e-13
3.00737e-13
3.61236e-13
4.21075e-13
4.79484e-13
5.35894e-13
5.89929e-13
6.41393e-13
6.9026e-13
7.36652e-13
7.80818e-13
8.23103e-13
8.63925e-13
9.03747e-13
9.43052e-13
9.82326e-13
1.02204e-12
1.06264e-12
1.10454e-12
1.14811e-12
1.1937e-12
1.2416e-12
1.29207e-12
1.34533e-12
1.40157e-12
1.46092e-12
1.52351e-12
1.5894e-12
1.65861e-12
1.73114e-12
1.80693e-12
1.88587e-12
1.96778e-12
2.05245e-12
2.13957e-12
2.22878e-12
2.3196e-12
2.41149e-12
2.50376e-12
2.59561e-12
2.6861e-12
2.77409e-12
2.85827e-12
2.93709e-12
3.00876e-12
3.07124e-12
3.12224e-12
3.15855e-12
3.17545e-12
3.17734e-12
3.15643e-12
3.10964e-12
3.03521e-12
2.93192e-12
2.79947e-12
2.63876e-12
2.4521e-12
2.24327e-12
2.01739e-12
1.78064e-12
1.53975e-12
1.30146e-12
1.07194e-12
8.56305e-13
6.58305e-13
4.80355e-13
3.23873e-13
1.90189e-13
8.22316e-14
9.16427e-15
4.35212e-15
3.89846e-14
8.906e-14
1.48497e-13
2.13918e-13
2.82969e-13
3.5384e-13
4.25079e-13
4.95518e-13
5.64243e-13
6.30576e-13
6.94074e-13
7.54508e-13
8.11853e-13
8.66263e-13
9.18038e-13
9.67596e-13
1.01544e-12
1.06212e-12
1.1082e-12
1.15427e-12
1.20089e-12
1.24856e-12
1.29778e-12
1.34898e-12
1.40255e-12
1.45883e-12
1.51811e-12
1.58065e-12
1.64663e-12
1.71621e-12
1.7895e-12
1.86656e-12
1.94739e-12
2.03195e-12
2.12015e-12
2.21182e-12
2.30675e-12
2.40465e-12
2.50516e-12
2.60783e-12
2.71213e-12
2.81742e-12
2.92296e-12
3.02785e-12
3.13105e-12
3.23133e-12
3.32723e-12
3.41706e-12
3.49882e-12
3.57022e-12
3.62864e-12
3.67049e-12
3.69023e-12
3.69291e-12
3.66953e-12
3.61627e-12
3.53106e-12
3.41235e-12
3.25966e-12
3.0739e-12
2.85763e-12
2.61515e-12
2.35239e-12
2.07651e-12
1.79545e-12
1.51717e-12
1.24901e-12
9.97067e-13
7.65861e-13
5.58287e-13
3.76018e-13
2.20577e-13
9.52697e-14
1.06117e-14
5.025e-15
4.50322e-14
1.02932e-13
1.71715e-13
2.47466e-13
3.27445e-13
4.09539e-13
4.92045e-13
5.73597e-13
6.53123e-13
7.29831e-13
8.03204e-13
8.72981e-13
9.3914e-13
1.00187e-12
1.06153e-12
1.11862e-12
1.17373e-12
1.2275e-12
1.2806e-12
1.33372e-12
1.38747e-12
1.44248e-12
1.49928e-12
1.55838e-12
1.62021e-12
1.68515e-12
1.75352e-12
1.8256e-12
1.90157e-12
1.9816e-12
2.06579e-12
2.15416e-12
2.2467e-12
2.34332e-12
2.44388e-12
2.54816e-12
2.6559e-12
2.76673e-12
2.88024e-12
2.9959e-12
3.11314e-12
3.23125e-12
3.34943e-12
3.46671e-12
3.582e-12
3.69398e-12
3.80108e-12
3.90145e-12
3.99293e-12
4.07295e-12
4.13858e-12
4.18587e-12
4.20842e-12
4.21193e-12
4.18617e-12
4.12659e-12
4.03076e-12
3.89686e-12
3.72421e-12
3.51368e-12
3.26805e-12
2.99212e-12
2.69253e-12
2.37744e-12
2.05592e-12
1.73716e-12
1.4297e-12
1.14072e-12
8.75575e-13
6.37703e-13
4.29091e-13
2.51474e-13
1.08517e-13
1.20833e-14
5.72835e-15
5.1352e-14
1.17428e-13
1.95977e-13
2.82527e-13
3.73935e-13
4.67762e-13
5.62045e-13
6.55201e-13
7.45989e-13
8.33495e-13
9.17124e-13
9.96584e-13
1.07186e-12
1.14317e-12
1.21095e-12
1.27579e-12
1.33836e-12
1.39942e-12
1.45975e-12
1.52009e-12
1.5812e-12
1.64374e-12
1.70834e-12
1.77554e-12
1.84584e-12
1.91965e-12
1.9973e-12
2.07908e-12
2.16519e-12
2.25577e-12
2.3509e-12
2.45058e-12
2.55476e-12
2.66329e-12
2.77599e-12
2.89257e-12
3.01271e-12
3.13598e-12
3.26191e-12
3.38994e-12
3.51942e-12
3.64962e-12
3.77969e-12
3.90865e-12
4.03533e-12
4.15835e-12
4.27606e-12
4.38647e-12
4.48721e-12
4.57548e-12
4.64799e-12
4.70041e-12
4.72556e-12
4.72977e-12
4.70155e-12
4.63563e-12
4.52932e-12
4.38049e-12
4.18828e-12
3.95353e-12
3.67919e-12
3.37046e-12
3.03465e-12
2.6808e-12
2.31906e-12
1.95983e-12
1.61287e-12
1.28646e-12
9.86885e-13
7.18229e-13
4.82854e-13
2.82743e-13
1.21917e-13
1.35725e-14
6.46177e-15
5.79406e-14
1.32538e-13
2.21268e-13
3.19078e-13
4.22402e-13
5.28463e-13
6.35017e-13
7.40249e-13
8.42739e-13
9.41441e-13
1.03568e-12
1.12513e-12
1.20978e-12
1.2899e-12
1.366e-12
1.43876e-12
1.50896e-12
1.57747e-12
1.64516e-12
1.71289e-12
1.7815e-12
1.85173e-12
1.92427e-12
1.99974e-12
2.07864e-12
2.16143e-12
2.24847e-12
2.34002e-12
2.4363e-12
2.53742e-12
2.64342e-12
2.75427e-12
2.86987e-12
2.99002e-12
3.11448e-12
3.2429e-12
3.37488e-12
3.50998e-12
3.64765e-12
3.7873e-12
3.92827e-12
4.06979e-12
4.21099e-12
4.35088e-12
4.48826e-12
4.62168e-12
4.74941e-12
4.8693e-12
4.9788e-12
5.07482e-12
5.15376e-12
5.21076e-12
5.23808e-12
5.24272e-12
5.21171e-12
5.1393e-12
5.02252e-12
4.85902e-12
4.64776e-12
4.38954e-12
4.08744e-12
3.74698e-12
3.376e-12
2.98434e-12
2.58311e-12
2.18385e-12
1.79754e-12
1.43361e-12
1.09934e-12
7.99567e-13
5.3712e-13
3.14279e-13
1.35423e-13
1.50741e-14
7.22504e-15
6.47962e-14
1.48259e-13
2.47581e-13
3.57106e-13
4.72829e-13
5.91614e-13
7.10919e-13
8.28685e-13
9.43297e-13
1.05357e-12
1.15874e-12
1.25845e-12
1.3527e-12
1.44182e-12
1.5264e-12
1.60721e-12
1.68516e-12
1.76122e-12
1.83638e-12
1.91161e-12
1.98781e-12
2.06584e-12
2.14642e-12
2.23023e-12
2.31782e-12
2.40964e-12
2.50608e-12
2.60739e-12
2.71377e-12
2.8253e-12
2.94199e-12
3.06377e-12
3.19046e-12
3.32182e-12
3.45754e-12
3.59724e-12
3.74045e-12
3.88668e-12
4.03536e-12
4.18589e-12
4.33758e-12
4.48967e-12
4.6413e-12
4.79144e-12
4.93888e-12
5.08211e-12
5.21928e-12
5.3481e-12
5.46579e-12
5.56898e-12
5.65374e-12
5.71455e-12
5.74341e-12
5.74803e-12
5.71366e-12
5.63442e-12
5.50711e-12
5.32917e-12
5.09942e-12
4.81863e-12
4.48994e-12
4.11909e-12
3.71436e-12
3.28621e-12
2.8466e-12
2.40813e-12
1.98292e-12
1.58162e-12
1.21258e-12
8.81492e-13
5.91751e-13
3.46003e-13
1.49001e-13
1.65844e-14
8.0181e-15
7.19183e-14
1.6459e-13
2.74913e-13
3.96606e-13
5.25204e-13
6.57196e-13
7.89725e-13
9.20468e-13
1.0476e-12
1.16979e-12
1.28618e-12
1.39639e-12
1.50043e-12
1.5987e-12
1.69187e-12
1.78082e-12
1.86659e-12
1.95027e-12
2.03296e-12
2.11574e-12
2.19961e-12
2.28547e-12
2.37414e-12
2.46632e-12
2.56259e-12
2.66343e-12
2.76921e-12
2.88018e-12
2.99651e-12
3.11825e-12
3.24536e-12
3.37772e-12
3.51509e-12
3.65718e-12
3.80363e-12
3.95398e-12
4.10777e-12
4.26445e-12
4.42345e-12
4.58415e-12
4.74588e-12
4.9079e-12
5.06934e-12
5.22918e-12
5.38614e-12
5.53866e-12
5.68475e-12
5.82194e-12
5.9472e-12
6.0569e-12
6.14674e-12
6.21038e-12
6.23996e-12
6.24398e-12
6.20547e-12
6.11896e-12
5.98093e-12
5.78872e-12
5.54105e-12
5.23863e-12
4.88462e-12
4.48492e-12
4.04807e-12
3.58502e-12
3.10844e-12
2.63183e-12
2.16844e-12
1.73012e-12
1.32636e-12
9.63849e-13
6.46651e-13
3.77861e-13
1.62627e-13
1.81005e-14
8.84097e-15
7.93072e-14
1.81531e-13
3.03264e-13
4.37576e-13
5.79524e-13
7.25202e-13
8.71417e-13
1.01556e-12
1.1556e-12
1.29003e-12
1.41791e-12
1.53881e-12
1.65279e-12
1.76031e-12
1.86214e-12
1.95928e-12
2.0529e-12
2.14422e-12
2.23447e-12
2.32481e-12
2.41634e-12
2.51004e-12
2.60678e-12
2.70731e-12
2.81221e-12
2.92198e-12
3.03698e-12
3.15745e-12
3.28352e-12
3.41519e-12
3.55239e-12
3.69493e-12
3.84253e-12
3.99484e-12
4.15145e-12
4.31188e-12
4.47562e-12
4.64213e-12
4.81083e-12
4.98112e-12
5.15236e-12
5.32381e-12
5.49461e-12
5.66372e-12
5.8298e-12
5.99118e-12
6.14572e-12
6.29074e-12
6.42293e-12
6.53838e-12
6.63248e-12
6.69787e-12
6.72725e-12
6.72993e-12
6.68637e-12
6.592e-12
6.44301e-12
6.23662e-12
5.97152e-12
5.64838e-12
5.27034e-12
4.84334e-12
4.3761e-12
3.87987e-12
3.36787e-12
2.85438e-12
2.35369e-12
1.87883e-12
1.44052e-12
1.04654e-12
7.01763e-13
4.09818e-13
1.76286e-13
1.96207e-14
9.69374e-15
8.69638e-14
1.99084e-13
3.32636e-13
4.8002e-13
6.3579e-13
7.95627e-13
9.5598e-13
1.11395e-12
1.26724e-12
1.4142e-12
1.55379e-12
1.68556e-12
1.80959e-12
1.92641e-12
2.03693e-12
2.14227e-12
2.24373e-12
2.34267e-12
2.44043e-12
2.5383e-12
2.63746e-12
2.73897e-12
2.84373e-12
2.95252e-12
3.06596e-12
3.18453e-12
3.30859e-12
3.43834e-12
3.57388e-12
3.71518e-12
3.8621e-12
4.01441e-12
4.17178e-12
4.33382e-12
4.50007e-12
4.67004e-12
4.84321e-12
5.01905e-12
5.19699e-12
5.37646e-12
5.55684e-12
5.7374e-12
5.91729e-12
6.09541e-12
6.27035e-12
6.44029e-12
6.60288e-12
6.7552e-12
6.89368e-12
7.01409e-12
7.11157e-12
7.17762e-12
7.20594e-12
7.20633e-12
7.15678e-12
7.05385e-12
6.89355e-12
6.67295e-12
6.3908e-12
6.04771e-12
5.64679e-12
5.19396e-12
4.69799e-12
4.17029e-12
3.62447e-12
3.07545e-12
2.53842e-12
2.0276e-12
1.55499e-12
1.12954e-12
7.57068e-13
4.41862e-13
1.8997e-13
2.11441e-14
1.05765e-14
9.48893e-14
2.17251e-13
3.63035e-13
5.23941e-13
6.94005e-13
8.68469e-13
1.0434e-12
1.21558e-12
1.38247e-12
1.54223e-12
1.69373e-12
1.83648e-12
1.97062e-12
2.09677e-12
2.21595e-12
2.32944e-12
2.43869e-12
2.54518e-12
2.6504e-12
2.75574e-12
2.86246e-12
2.97168e-12
3.08437e-12
3.20132e-12
3.32316e-12
3.45037e-12
3.58328e-12
3.72208e-12
3.86681e-12
4.01742e-12
4.1737e-12
4.33539e-12
4.50211e-12
4.67344e-12
4.8489e-12
5.028e-12
5.21021e-12
5.39503e-12
5.58192e-12
5.77036e-12
5.95972e-12
6.1493e-12
6.3382e-12
6.52526e-12
6.70894e-12
6.88723e-12
7.05756e-12
7.21675e-12
7.36091e-12
7.48551e-12
7.58542e-12
7.65103e-12
7.67798e-12
7.67458e-12
7.61821e-12
7.506e-12
7.33393e-12
7.09897e-12
6.79993e-12
6.43742e-12
6.01452e-12
5.53708e-12
5.01383e-12
4.45625e-12
3.87814e-12
3.29491e-12
2.72257e-12
2.17641e-12
1.66975e-12
1.21284e-12
8.12578e-13
4.73998e-13
2.03678e-13
2.26707e-14
1.14895e-14
1.03085e-13
2.36036e-13
3.94463e-13
5.69345e-13
7.54171e-13
9.43726e-13
1.13368e-12
1.32045e-12
1.50124e-12
1.67403e-12
1.83758e-12
1.9914e-12
2.13566e-12
2.27111e-12
2.39889e-12
2.52046e-12
2.6374e-12
2.75136e-12
2.86394e-12
2.97664e-12
3.09082e-12
3.20765e-12
3.32814e-12
3.45311e-12
3.58319e-12
3.71886e-12
3.86042e-12
4.00802e-12
4.16168e-12
4.32128e-12
4.48661e-12
4.65733e-12
4.83306e-12
5.01335e-12
5.19771e-12
5.38566e-12
5.57671e-12
5.77037e-12
5.96615e-12
6.16354e-12
6.36196e-12
6.56066e-12
6.7587e-12
6.95479e-12
7.14725e-12
7.33383e-12
7.51172e-12
7.67742e-12
7.82675e-12
7.95487e-12
8.05639e-12
8.12063e-12
8.14577e-12
8.13729e-12
8.07327e-12
7.95103e-12
7.76662e-12
7.51694e-12
7.20092e-12
6.8192e-12
6.37484e-12
5.87363e-12
5.32424e-12
4.73808e-12
4.12904e-12
3.51285e-12
2.90615e-12
2.32529e-12
1.78487e-12
1.29651e-12
8.68331e-13
5.06245e-13
2.17417e-13
2.4201e-14
1.24327e-14
1.11552e-13
2.5544e-13
4.26926e-13
6.16236e-13
8.16292e-13
1.02139e-12
1.22678e-12
1.4285e-12
1.62349e-12
1.8095e-12
1.98522e-12
2.15013e-12
2.3045e-12
2.44917e-12
2.58546e-12
2.71497e-12
2.83947e-12
2.96076e-12
3.08058e-12
3.20052e-12
3.32204e-12
3.44636e-12
3.57452e-12
3.70737e-12
3.84553e-12
3.98948e-12
4.13948e-12
4.29566e-12
4.458e-12
4.62636e-12
4.80046e-12
4.97997e-12
5.16448e-12
5.35352e-12
5.54664e-12
5.74336e-12
5.94323e-12
6.1458e-12
6.35062e-12
6.55721e-12
6.76496e-12
6.97311e-12
7.1806e-12
7.38601e-12
7.58745e-12
7.78242e-12
7.96782e-12
8.13982e-12
8.29394e-12
8.42506e-12
8.52752e-12
8.58966e-12
8.61252e-12
8.59795e-12
8.52546e-12
8.39243e-12
8.19501e-12
7.93004e-12
7.59664e-12
7.19551e-12
6.72976e-12
6.20515e-12
5.63027e-12
5.01646e-12
4.37756e-12
3.72947e-12
3.08932e-12
2.47435e-12
1.90042e-12
1.38063e-12
9.24383e-13
5.38632e-13
2.31198e-13
2.57361e-14
1.34064e-14
1.20291e-13
2.75467e-13
4.60426e-13
6.64616e-13
8.80367e-13
1.10146e-12
1.32269e-12
1.5397e-12
1.74912e-12
1.94853e-12
2.13648e-12
2.31249e-12
2.47688e-12
2.63066e-12
2.77531e-12
2.91261e-12
3.04452e-12
3.17299e-12
3.29989e-12
3.42694e-12
3.55566e-12
3.68734e-12
3.82304e-12
3.96363e-12
4.10973e-12
4.26179e-12
4.42006e-12
4.58465e-12
4.7555e-12
4.93243e-12
5.11515e-12
5.30332e-12
5.4965e-12
5.69427e-12
5.89617e-12
6.10177e-12
6.31067e-12
6.52245e-12
6.7367e-12
6.95293e-12
7.17053e-12
7.38865e-12
7.6061e-12
7.82129e-12
8.03208e-12
8.23569e-12
8.4287e-12
8.60697e-12
8.76571e-12
8.89951e-12
9.00248e-12
9.06198e-12
9.0822e-12
9.06074e-12
8.97908e-12
8.83451e-12
8.62326e-12
8.34224e-12
7.99069e-12
7.5695e-12
7.08188e-12
6.53367e-12
5.93342e-12
5.29239e-12
4.62432e-12
3.94514e-12
3.27229e-12
2.62374e-12
2.01655e-12
1.46528e-12
9.80806e-13
5.71199e-13
2.45034e-13
2.72777e-14
1.44106e-14
1.29303e-13
2.96119e-13
4.94966e-13
7.14488e-13
9.46392e-13
1.18392e-12
1.42137e-12
1.65399e-12
1.87807e-12
2.09098e-12
2.29119e-12
2.47824e-12
2.65255e-12
2.81528e-12
2.9681e-12
3.11301e-12
3.25215e-12
3.38763e-12
3.52146e-12
3.65548e-12
3.79126e-12
3.93017e-12
4.0733e-12
4.22151e-12
4.37543e-12
4.5355e-12
4.70193e-12
4.87482e-12
5.05408e-12
5.23951e-12
5.43081e-12
5.62764e-12
5.82957e-12
6.0362e-12
6.24711e-12
6.46193e-12
6.68027e-12
6.90179e-12
7.12607e-12
7.35262e-12
7.58077e-12
7.80957e-12
8.03768e-12
8.26327e-12
8.48394e-12
8.69661e-12
8.89754e-12
9.08226e-12
9.24566e-12
9.38206e-12
9.48533e-12
9.54192e-12
9.55926e-12
9.53039e-12
9.43896e-12
9.28211e-12
9.05616e-12
8.75808e-12
8.38728e-12
7.94489e-12
7.43435e-12
6.86167e-12
6.23552e-12
5.56712e-12
4.8701e-12
4.16031e-12
3.4553e-12
2.77362e-12
2.13338e-12
1.55059e-12
1.03768e-12
6.0399e-13
2.58942e-13
2.88274e-14
1.54454e-14
1.38589e-13
3.17395e-13
5.30546e-13
7.65848e-13
1.01436e-12
1.26876e-12
1.5228e-12
1.77131e-12
2.01023e-12
2.23671e-12
2.44917e-12
2.64715e-12
2.83122e-12
3.0027e-12
3.1635e-12
3.31581e-12
3.46197e-12
3.60428e-12
3.74489e-12
3.88573e-12
4.02848e-12
4.17452e-12
4.32499e-12
4.48075e-12
4.64242e-12
4.81043e-12
4.985e-12
5.16616e-12
5.35384e-12
5.54782e-12
5.74782e-12
5.95346e-12
6.16439e-12
6.38022e-12
6.60058e-12
6.82514e-12
7.05358e-12
7.28556e-12
7.52068e-12
7.75842e-12
7.99802e-12
8.23839e-12
8.478e-12
8.71478e-12
8.94603e-12
9.16836e-12
9.3777e-12
9.56926e-12
9.73763e-12
9.87682e-12
9.98037e-12
1.00341e-11
1.00485e-11
1.00119e-11
9.91026e-12
9.74046e-12
9.49885e-12
9.18252e-12
8.79102e-12
8.32583e-12
7.79071e-12
7.19204e-12
6.53875e-12
5.84217e-12
5.11587e-12
4.37553e-12
3.63869e-12
2.92418e-12
2.25104e-12
1.63666e-12
1.09507e-12
6.37049e-13
2.72939e-13
3.0387e-14
1.65108e-14
1.48149e-13
3.39297e-13
5.67164e-13
8.18694e-13
1.08426e-12
1.35593e-12
1.62692e-12
1.89157e-12
2.14547e-12
2.38557e-12
2.6102e-12
2.81898e-12
3.0126e-12
3.19261e-12
3.36113e-12
3.52062e-12
3.6736e-12
3.82257e-12
3.96982e-12
4.11737e-12
4.26699e-12
4.42011e-12
4.57787e-12
4.74116e-12
4.9106e-12
5.08659e-12
5.26933e-12
5.45887e-12
5.65511e-12
5.85783e-12
6.06677e-12
6.28158e-12
6.50194e-12
6.7275e-12
6.95794e-12
7.19299e-12
7.43236e-12
7.67573e-12
7.92269e-12
8.17266e-12
8.42476e-12
8.67773e-12
8.92984e-12
9.17873e-12
9.42141e-12
9.65418e-12
9.87262e-12
1.00716e-11
1.02455e-11
1.0388e-11
1.04919e-11
1.05432e-11
1.05548e-11
1.05104e-11
1.03983e-11
1.02149e-11
9.95669e-12
9.62073e-12
9.20682e-12
8.71677e-12
8.15486e-12
7.52799e-12
6.84559e-12
6.11929e-12
5.36275e-12
4.59146e-12
3.82277e-12
3.07561e-12
2.36965e-12
1.72358e-12
1.15307e-12
6.70419e-13
2.87041e-13
3.19584e-14
1.76067e-14
1.57983e-13
3.61822e-13
6.04819e-13
8.73016e-13
1.15608e-12
1.44542e-12
1.73367e-12
2.01468e-12
2.28367e-12
2.53737e-12
2.77407e-12
2.99344e-12
3.19637e-12
3.38466e-12
3.56066e-12
3.72709e-12
3.8867e-12
4.04216e-12
4.19592e-12
4.35011e-12
4.50656e-12
4.66674e-12
4.83183e-12
5.0027e-12
5.17999e-12
5.36408e-12
5.55518e-12
5.75331e-12
5.95838e-12
6.1702e-12
6.38851e-12
6.61301e-12
6.84341e-12
7.07942e-12
7.32078e-12
7.56725e-12
7.81858e-12
8.07444e-12
8.33439e-12
8.59776e-12
8.86353e-12
9.13028e-12
9.39599e-12
9.65806e-12
9.91317e-12
1.01573e-11
1.03857e-11
1.0593e-11
1.07732e-11
1.09199e-11
1.10243e-11
1.10739e-11
1.10829e-11
1.1031e-11
1.09082e-11
1.07108e-11
1.0435e-11
1.0078e-11
9.63967e-12
9.12237e-12
8.53093e-12
7.87301e-12
7.15878e-12
6.40048e-12
5.61203e-12
4.80883e-12
4.00791e-12
3.22806e-12
2.48931e-12
1.81144e-12
1.21173e-12
7.04136e-13
3.01261e-13
3.35429e-14
1.87331e-14
1.68088e-13
3.84968e-13
6.43504e-13
9.28803e-13
1.22978e-12
1.53717e-12
1.84299e-12
2.14053e-12
2.42467e-12
2.69191e-12
2.94051e-12
3.17025e-12
3.38223e-12
3.57851e-12
3.76173e-12
3.93487e-12
4.10092e-12
4.26275e-12
4.42293e-12
4.58373e-12
4.74702e-12
4.91432e-12
5.08684e-12
5.26545e-12
5.45078e-12
5.64322e-12
5.84296e-12
6.05005e-12
6.26438e-12
6.48581e-12
6.71409e-12
6.94897e-12
7.19021e-12
7.43758e-12
7.69086e-12
7.94985e-12
8.21431e-12
8.48391e-12
8.75813e-12
9.03619e-12
9.31693e-12
9.59869e-12
9.87923e-12
1.01556e-11
1.04243e-11
1.06808e-11
1.09202e-11
1.11368e-11
1.13243e-11
1.14759e-11
1.15819e-11
1.16304e-11
1.16372e-11
1.15782e-11
1.14448e-11
1.12331e-11
1.09388e-11
1.05593e-11
1.00946e-11
9.54734e-12
8.92321e-12
8.23079e-12
7.48131e-12
6.68795e-12
5.86518e-12
5.02849e-12
4.19454e-12
3.38172e-12
2.61008e-12
1.90026e-12
1.27108e-12
7.38229e-13
3.15612e-13
3.51419e-14
1.98898e-14
1.78465e-13
4.08732e-13
6.83211e-13
9.8604e-13
1.30535e-12
1.63115e-12
1.95478e-12
2.26901e-12
2.5683e-12
2.84898e-12
3.10927e-12
3.34911e-12
3.56984e-12
3.77381e-12
3.96399e-12
4.14362e-12
4.31596e-12
4.48405e-12
4.65064e-12
4.81807e-12
4.98829e-12
5.16286e-12
5.34301e-12
5.52961e-12
5.72329e-12
5.92445e-12
6.13327e-12
6.34981e-12
6.574e-12
6.80571e-12
7.04473e-12
7.29086e-12
7.54392e-12
7.80371e-12
8.07008e-12
8.34284e-12
8.62174e-12
8.90642e-12
9.19628e-12
9.4904e-12
9.78746e-12
1.00856e-11
1.03822e-11
1.06741e-11
1.09575e-11
1.12276e-11
1.14791e-11
1.1706e-11
1.19019e-11
1.20596e-11
1.21681e-11
1.22166e-11
1.22217e-11
1.21562e-11
1.20126e-11
1.17863e-11
1.14729e-11
1.10695e-11
1.05762e-11
9.99629e-12
9.33601e-12
8.60517e-12
7.81637e-12
6.98412e-12
6.12387e-12
5.25141e-12
4.38312e-12
3.53674e-12
2.73202e-12
1.99009e-12
1.33117e-12
7.72716e-13
3.30099e-13
3.6756e-14
2.10766e-14
1.89112e-13
4.33109e-13
7.2393e-13
1.04471e-12
1.38274e-12
1.72728e-12
2.06896e-12
2.39997e-12
2.71438e-12
3.00833e-12
3.28007e-12
3.52971e-12
3.75887e-12
3.97024e-12
4.16711e-12
4.35304e-12
4.53154e-12
4.70586e-12
4.87888e-12
5.05305e-12
5.23038e-12
5.41247e-12
5.60055e-12
5.79551e-12
5.99799e-12
6.20837e-12
6.42686e-12
6.65352e-12
6.88832e-12
7.13114e-12
7.38184e-12
7.64026e-12
7.90626e-12
8.17969e-12
8.46044e-12
8.74832e-12
9.04307e-12
9.34425e-12
9.65118e-12
9.96278e-12
1.02775e-11
1.05933e-11
1.09073e-11
1.1216e-11
1.15153e-11
1.18002e-11
1.2065e-11
1.23035e-11
1.25088e-11
1.26738e-11
1.27863e-11
1.28358e-11
1.28397e-11
1.27686e-11
1.26152e-11
1.23743e-11
1.20412e-11
1.16128e-11
1.10891e-11
1.04736e-11
9.77356e-12
9.00003e-12
8.16729e-12
7.29162e-12
6.38992e-12
5.4787e-12
4.57417e-12
3.6933e-12
2.85514e-12
2.08091e-12
1.39197e-12
8.07601e-13
3.44724e-13
3.83853e-14
2.22933e-14
2.00024e-13
4.58091e-13
7.65648e-13
1.10478e-12
1.46191e-12
1.82549e-12
2.18541e-12
2.53326e-12
2.86269e-12
3.16971e-12
3.45261e-12
3.71171e-12
3.94898e-12
4.16744e-12
4.37078e-12
4.56286e-12
4.74746e-12
4.92803e-12
5.10759e-12
5.28869e-12
5.47341e-12
5.66337e-12
5.85981e-12
6.06364e-12
6.27548e-12
6.49574e-12
6.72463e-12
6.96224e-12
7.20855e-12
7.46349e-12
7.72696e-12
7.99885e-12
8.27905e-12
8.56747e-12
8.86399e-12
9.16844e-12
9.48049e-12
9.79965e-12
1.01251e-11
1.04556e-11
1.07894e-11
1.11241e-11
1.14568e-11
1.17836e-11
1.21e-11
1.24008e-11
1.26801e-11
1.29313e-11
1.31474e-11
1.33207e-11
1.34386e-11
1.34902e-11
1.34937e-11
1.34179e-11
1.32553e-11
1.30002e-11
1.26472e-11
1.21928e-11
1.1637e-11
1.09833e-11
1.02399e-11
9.41918e-12
8.53747e-12
7.61324e-12
6.66537e-12
5.71163e-12
4.76832e-12
3.85161e-12
2.97945e-12
2.17267e-12
1.45348e-12
8.42874e-13
3.59483e-13
4.00293e-14
2.35395e-14
2.11201e-13
4.83672e-13
8.08349e-13
1.16623e-12
1.54282e-12
1.92571e-12
2.30401e-12
2.6687e-12
3.01303e-12
3.33286e-12
3.62658e-12
3.8948e-12
4.13982e-12
4.3651e-12
4.5747e-12
4.77282e-12
4.96351e-12
5.15043e-12
5.33675e-12
5.52509e-12
5.71758e-12
5.91588e-12
6.12125e-12
6.33458e-12
6.55652e-12
6.78747e-12
7.02765e-12
7.27718e-12
7.53607e-12
7.80429e-12
8.08176e-12
8.36843e-12
8.66422e-12
8.96906e-12
9.28282e-12
9.60532e-12
9.93617e-12
1.02748e-11
1.06201e-11
1.09709e-11
1.13251e-11
1.16801e-11
1.20326e-11
1.23786e-11
1.27132e-11
1.30311e-11
1.3326e-11
1.35911e-11
1.3819e-11
1.40018e-11
1.41266e-11
1.41815e-11
1.41853e-11
1.41058e-11
1.39349e-11
1.3666e-11
1.32933e-11
1.28124e-11
1.2223e-11
1.15288e-11
1.07386e-11
9.86628e-12
8.93031e-12
7.95185e-12
6.9524e-12
5.95159e-12
4.9663e-12
4.01189e-12
3.10492e-12
2.2653e-12
1.51563e-12
8.7851e-13
3.74367e-13
4.1687e-14
2.48147e-14
2.22637e-13
5.09842e-13
8.52015e-13
1.22902e-12
1.6254e-12
2.02784e-12
2.42463e-12
2.8061e-12
3.16514e-12
3.49749e-12
3.80167e-12
4.07862e-12
4.33107e-12
4.56291e-12
4.7786e-12
4.98273e-12
5.17959e-12
5.37306e-12
5.56643e-12
5.76242e-12
5.96321e-12
6.17047e-12
6.38546e-12
6.60909e-12
6.842e-12
7.0846e-12
7.33712e-12
7.59971e-12
7.87239e-12
8.15517e-12
8.44801e-12
8.75088e-12
9.06372e-12
9.38647e-12
9.719e-12
1.00611e-11
1.04122e-11
1.07716e-11
1.11383e-11
1.15107e-11
1.18865e-11
1.22629e-11
1.26363e-11
1.30025e-11
1.33565e-11
1.36924e-11
1.40038e-11
1.42838e-11
1.45245e-11
1.47179e-11
1.4851e-11
1.49103e-11
1.49152e-11
1.48331e-11
1.46548e-11
1.43729e-11
1.39808e-11
1.34732e-11
1.28494e-11
1.21129e-11
1.12729e-11
1.03447e-11
9.34908e-12
8.31038e-12
7.25334e-12
6.20018e-12
5.16895e-12
4.17444e-12
3.23157e-12
2.35871e-12
1.57835e-12
9.14469e-13
3.89356e-13
4.33563e-14
2.61187e-14
2.34328e-13
5.3659e-13
8.96624e-13
1.29311e-12
1.70959e-12
2.13178e-12
2.54711e-12
2.94527e-12
3.31876e-12
3.66328e-12
3.97754e-12
4.26285e-12
4.5224e-12
4.76057e-12
4.98227e-12
5.19242e-12
5.39563e-12
5.59594e-12
5.79679e-12
6.00098e-12
6.21071e-12
6.42767e-12
6.65314e-12
6.88801e-12
7.13293e-12
7.38829e-12
7.65436e-12
7.93127e-12
8.2191e-12
8.51786e-12
8.82754e-12
9.14812e-12
9.47955e-12
9.82175e-12
1.01746e-11
1.05377e-11
1.09105e-11
1.12922e-11
1.16815e-11
1.20766e-11
1.24751e-11
1.28739e-11
1.32692e-11
1.36565e-11
1.40306e-11
1.43853e-11
1.47142e-11
1.50097e-11
1.52642e-11
1.5469e-11
1.56116e-11
1.56764e-11
1.56829e-11
1.55994e-11
1.54148e-11
1.51209e-11
1.47101e-11
1.41762e-11
1.35177e-11
1.27375e-11
1.18451e-11
1.08572e-11
9.79682e-12
8.69173e-12
7.5706e-12
6.4591e-12
5.37723e-12
4.33962e-12
3.35937e-12
2.45277e-12
1.64153e-12
9.50691e-13
4.04428e-13
4.50345e-14
2.74507e-14
2.4627e-13
5.63903e-13
9.42153e-13
1.35847e-12
1.79531e-12
2.2374e-12
2.67128e-12
3.08597e-12
3.47363e-12
3.82993e-12
4.15385e-12
4.44713e-12
4.71349e-12
4.95781e-12
5.18548e-12
5.40179e-12
5.6116e-12
5.81918e-12
6.02807e-12
6.24113e-12
6.4606e-12
6.68817e-12
6.92512e-12
7.17233e-12
7.43043e-12
7.69983e-12
7.98078e-12
8.27345e-12
8.57789e-12
8.89415e-12
9.22222e-12
9.56208e-12
9.91368e-12
1.02769e-11
1.06515e-11
1.10371e-11
1.1433e-11
1.18382e-11
1.22512e-11
1.26701e-11
1.30922e-11
1.35142e-11
1.39322e-11
1.43413e-11
1.4736e-11
1.51102e-11
1.54569e-11
1.57687e-11
1.60374e-11
1.62543e-11
1.64072e-11
1.64785e-11
1.64874e-11
1.64035e-11
1.62136e-11
1.59088e-11
1.54804e-11
1.4921e-11
1.42279e-11
1.34034e-11
1.2457e-11
1.14061e-11
1.02762e-11
9.0986e-12