/*--------------------------------*- C++ -*----------------------------------*\
  =========                 |
  \\      /  F ield         | OpenFOAM: The Open Source CFD Toolbox
   \\    /   O peration     | Website:  https://openfoam.org
    \\  /    A nd           | Version:  12
     \\/     M anipulation  |
\*---------------------------------------------------------------------------*/
FoamFile
{
    format      ascii;
    class       volScalarField;
    location    "10";
    object      nut;
}
// * * * * * * * * * * * * * * * * * * * * * * * * * * * * * * * * * * * * * //

dimensions      [0 2 -1 0 0 0 0];

internalField   nonuniform List<scalar> 
5625
(
4.44089e-21
5.27133e-21
1.16837e-20
1.92352e-20
2.75163e-20
3.62472e-20
4.52112e-20
5.42333e-20
6.31724e-20
7.19169e-20
8.03837e-20
8.85165e-20
9.62843e-20
1.0368e-19
1.10718e-19
1.17429e-19
1.23861e-19
1.3007e-19
1.36121e-19
1.42084e-19
1.48027e-19
1.5402e-19
1.60128e-19
1.66414e-19
1.72934e-19
1.79742e-19
1.86883e-19
1.94398e-19
2.02326e-19
2.10697e-19
2.1954e-19
2.28875e-19
2.38723e-19
2.49095e-19
2.60002e-19
2.71444e-19
2.83417e-19
2.95911e-19
3.08904e-19
3.22364e-19
3.36245e-19
3.50487e-19
3.65008e-19
3.79705e-19
3.94449e-19
4.09078e-19
4.23396e-19
4.37171e-19
4.50126e-19
4.61941e-19
4.72254e-19
4.80651e-19
4.86642e-19
4.89588e-19
4.8977e-19
4.86328e-19
4.78823e-19
4.66992e-19
4.50708e-19
4.30003e-19
4.05089e-19
3.76374e-19
3.44463e-19
3.10127e-19
2.74261e-19
2.37821e-19
2.01753e-19
1.66918e-19
1.34038e-19
1.03664e-19
7.61729e-20
5.18199e-20
3.08476e-20
1.37454e-20
4.44089e-21
2.36952e-20
7.68506e-19
1.92239e-18
3.24521e-18
4.68209e-18
6.19075e-18
7.73616e-18
9.28929e-18
1.08264e-17
1.23286e-17
1.37818e-17
1.51765e-17
1.65075e-17
1.77738e-17
1.89778e-17
2.01251e-17
2.12238e-17
2.22839e-17
2.33164e-17
2.43333e-17
2.53464e-17
2.63678e-17
2.74086e-17
2.84794e-17
2.959e-17
3.07493e-17
3.19651e-17
3.32446e-17
3.45939e-17
3.60185e-17
3.7523e-17
3.91111e-17
4.0786e-17
4.255e-17
4.44044e-17
4.63497e-17
4.83854e-17
5.05095e-17
5.27187e-17
5.50079e-17
5.73695e-17
5.97937e-17
6.22672e-17
6.47731e-17
6.72899e-17
6.9791e-17
7.2244e-17
7.46097e-17
7.68419e-17
7.88867e-17
8.06826e-17
8.21592e-17
8.32332e-17
8.37782e-17
8.38571e-17
8.33135e-17
8.20702e-17
8.00806e-17
7.73205e-17
7.37925e-17
6.95311e-17
6.46054e-17
5.91195e-17
5.32075e-17
4.70262e-17
4.07433e-17
3.45245e-17
2.85208e-17
2.28579e-17
1.76295e-17
1.28974e-17
8.69718e-18
5.05142e-18
1.99927e-18
6.13546e-20
5.00437e-20
4.11268e-18
1.31754e-17
2.37771e-17
3.51458e-17
4.69758e-17
5.90257e-17
7.10881e-17
8.29897e-17
9.45913e-17
1.05789e-16
1.16511e-16
1.26723e-16
1.36416e-16
1.45614e-16
1.54361e-16
1.62722e-16
1.70774e-16
1.78604e-16
1.86305e-16
1.93969e-16
2.01687e-16
2.09545e-16
2.17624e-16
2.25999e-16
2.34735e-16
2.43893e-16
2.53526e-16
2.63679e-16
2.74393e-16
2.85702e-16
2.97635e-16
3.10215e-16
3.23458e-16
3.37377e-16
3.51976e-16
3.67252e-16
3.83194e-16
3.99779e-16
4.16974e-16
4.34729e-16
4.52975e-16
4.71621e-16
4.90548e-16
5.09606e-16
5.28605e-16
5.4731e-16
5.65439e-16
5.82648e-16
5.98539e-16
6.12646e-16
6.24437e-16
6.33317e-16
6.3805e-16
6.3952e-16
6.36234e-16
6.27552e-16
6.13078e-16
5.92575e-16
5.66014e-16
5.33622e-16
4.95913e-16
4.53691e-16
4.08016e-16
3.60143e-16
3.11422e-16
2.63187e-16
2.16649e-16
1.72797e-16
1.3234e-16
9.56927e-17
6.30064e-17
3.43126e-17
1.06557e-17
1.2976e-19
8.17582e-20
9.63911e-18
3.95116e-17
7.85381e-17
1.20815e-16
1.64539e-16
2.08772e-16
2.52798e-16
2.96027e-16
3.37989e-16
3.7833e-16
4.16818e-16
4.53337e-16
4.87879e-16
5.20537e-16
5.51484e-16
5.80962e-16
6.09259e-16
6.36695e-16
6.63602e-16
6.90317e-16
7.17162e-16
7.44446e-16
7.72452e-16
8.01441e-16
8.31643e-16
8.63267e-16
8.96492e-16
9.31479e-16
9.68363e-16
1.00726e-15
1.04827e-15
1.09147e-15
1.13693e-15
1.18469e-15
1.23477e-15
1.28717e-15
1.34188e-15
1.39884e-15
1.45796e-15
1.5191e-15
1.58206e-15
1.64658e-15
1.71229e-15
1.77873e-15
1.84529e-15
1.91122e-15
1.97558e-15
2.03722e-15
2.09477e-15
2.1466e-15
2.19086e-15
2.22573e-15
2.2453e-15
2.25458e-15
2.24701e-15
2.22012e-15
2.1723e-15
2.10247e-15
2.01033e-15
1.8965e-15
1.76276e-15
1.61199e-15
1.44812e-15
1.27584e-15
1.10022e-15
9.26293e-16
7.58563e-16
6.00649e-16
4.55023e-16
3.22952e-16
2.04806e-16
1.01815e-16
2.4866e-17
2.1118e-19
1.17785e-19
1.62547e-17
8.00742e-17
1.7636e-16
2.85201e-16
3.98417e-16
5.12526e-16
6.25465e-16
7.35733e-16
8.42185e-16
9.43991e-16
1.04062e-15
1.13184e-15
1.21769e-15
1.29843e-15
1.37456e-15
1.44671e-15
1.51564e-15
1.58216e-15
1.64713e-15
1.7114e-15
1.77576e-15
1.84099e-15
1.90779e-15
1.97677e-15
2.04851e-15
2.1235e-15
2.20218e-15
2.28491e-15
2.37202e-15
2.4638e-15
2.56048e-15
2.66226e-15
2.7693e-15
2.88174e-15
2.99967e-15
3.12313e-15
3.25214e-15
3.38663e-15
3.52648e-15
3.67145e-15
3.82119e-15
3.97518e-15
4.13269e-15
4.29273e-15
4.45401e-15
4.61483e-15
4.77302e-15
4.9259e-15
5.07015e-15
5.20183e-15
5.31651e-15
5.41034e-15
5.46473e-15
5.49692e-15
5.48751e-15
5.43006e-15
5.32014e-15
5.15465e-15
4.93237e-15
4.65458e-15
4.32553e-15
3.95249e-15
3.54548e-15
3.11658e-15
2.67892e-15
2.24541e-15
1.82755e-15
1.43443e-15
1.07205e-15
7.4347e-16
4.50892e-16
2.03925e-16
4.16832e-17
3.02433e-19
1.57414e-19
2.34658e-17
1.30826e-16
3.15787e-16
5.38422e-16
7.74664e-16
1.01341e-15
1.24892e-15
1.47765e-15
1.69716e-15
1.90581e-15
2.10262e-15
2.28724e-15
2.45986e-15
2.62118e-15
2.77227e-15
2.91453e-15
3.04959e-15
3.17915e-15
3.30499e-15
3.42884e-15
3.55235e-15
3.67705e-15
3.80432e-15
3.93542e-15
4.07144e-15
4.21336e-15
4.36201e-15
4.51813e-15
4.68236e-15
4.85523e-15
5.03724e-15
5.22881e-15
5.43029e-15
5.64201e-15
5.86424e-15
6.09717e-15
6.34096e-15
6.59564e-15
6.86113e-15
7.13718e-15
7.42333e-15
7.71877e-15
8.02233e-15
8.33231e-15
8.64639e-15
8.96143e-15
9.27334e-15
9.57689e-15
9.86552e-15
1.01312e-14
1.03663e-14
1.05624e-14
1.06773e-14
1.07527e-14
1.07451e-14
1.06411e-14
1.04317e-14
1.01102e-14
9.67406e-15
9.12567e-15
8.4737e-15
7.73298e-15
6.92389e-15
6.07095e-15
5.20069e-15
4.3391e-15
3.50919e-15
2.72894e-15
2.01038e-15
1.36071e-15
7.89173e-16
3.28785e-16
5.96894e-17
4.01128e-19
2.00195e-19
3.11189e-17
1.88221e-16
4.89468e-16
8.77481e-16
1.30188e-15
1.73495e-15
2.16227e-15
2.57569e-15
2.97022e-15
3.34282e-15
3.69186e-15
4.01692e-15
4.31859e-15
4.59832e-15
4.8583e-15
5.10118e-15
5.32998e-15
5.54789e-15
5.75812e-15
5.96377e-15
6.16778e-15
6.37284e-15
6.58139e-15
6.79557e-15
7.0173e-15
7.24822e-15
7.48979e-15
7.74327e-15
8.00976e-15
8.29024e-15
8.58558e-15
8.89656e-15
9.22393e-15
9.56833e-15
9.93038e-15
1.03106e-14
1.07094e-14
1.11272e-14
1.1564e-14
1.20198e-14
1.24939e-14
1.29852e-14
1.34921e-14
1.40119e-14
1.45407e-14
1.50733e-14
1.56027e-14
1.61199e-14
1.66134e-14
1.70688e-14
1.74744e-14
1.78126e-14
1.801e-14
1.81412e-14
1.81288e-14
1.79491e-14
1.75872e-14
1.70327e-14
1.62819e-14
1.53409e-14
1.42246e-14
1.29588e-14
1.15788e-14
1.01265e-14
8.6468e-15
7.18353e-15
5.77526e-15
4.45216e-15
3.23512e-15
2.13982e-15
1.19256e-15
4.65964e-16
7.83492e-17
5.05549e-19
2.45842e-19
3.91702e-17
2.50114e-16
6.89119e-16
1.29138e-15
1.97367e-15
2.68054e-15
3.38079e-15
4.05705e-15
4.69938e-15
5.30221e-15
5.8629e-15
6.38102e-15
6.85792e-15
7.29638e-15
7.70029e-15
8.07433e-15
8.42362e-15
8.75352e-15
9.06935e-15
9.37621e-15
9.67884e-15
9.98159e-15
1.02883e-14
1.06025e-14
1.0927e-14
1.12646e-14
1.16175e-14
1.19878e-14
1.23772e-14
1.27872e-14
1.32194e-14
1.36751e-14
1.41557e-14
1.46622e-14
1.51959e-14
1.57578e-14
1.63488e-14
1.69697e-14
1.76209e-14
1.83025e-14
1.90138e-14
1.97533e-14
2.05184e-14
2.13049e-14
2.21069e-14
2.2916e-14
2.37211e-14
2.45074e-14
2.52567e-14
2.59464e-14
2.65554e-14
2.70579e-14
2.73427e-14
2.75209e-14
2.74758e-14
2.71706e-14
2.65853e-14
2.57067e-14
2.45316e-14
2.30705e-14
2.13492e-14
1.94084e-14
1.73021e-14
1.50932e-14
1.28488e-14
1.06334e-14
8.50379e-15
6.50493e-15
4.66978e-15
3.02831e-15
1.63341e-15
6.08802e-16
9.74317e-17
6.14366e-19
2.94165e-19
4.76064e-17
3.15412e-16
9.08092e-16
1.76668e-15
2.77451e-15
3.83794e-15
4.89873e-15
5.92348e-15
6.89339e-15
7.79849e-15
8.63439e-15
9.40073e-15
1.01001e-14
1.07372e-14
1.13186e-14
1.18519e-14
1.23452e-14
1.28069e-14
1.32453e-14
1.36681e-14
1.40826e-14
1.44952e-14
1.49117e-14
1.53374e-14
1.57765e-14
1.62329e-14
1.67105e-14
1.72119e-14
1.77398e-14
1.82967e-14
1.88848e-14
1.95062e-14
2.01631e-14
2.08572e-14
2.15906e-14
2.23648e-14
2.31813e-14
2.40416e-14
2.49462e-14
2.58953e-14
2.68878e-14
2.79217e-14
2.89927e-14
3.00944e-14
3.12177e-14
3.23497e-14
3.34735e-14
3.45668e-14
3.56024e-14
3.65474e-14
3.73653e-14
3.80193e-14
3.83738e-14
3.85597e-14
3.84254e-14
3.7919e-14
3.70181e-14
3.57099e-14
3.39954e-14
3.18937e-14
2.94441e-14
2.67051e-14
2.37516e-14
2.06696e-14
1.75489e-14
1.4476e-14
1.15265e-14
8.76105e-15
6.22735e-15
3.97492e-15
2.09045e-15
7.5354e-16
1.16802e-16
7.26557e-19
3.45043e-19
5.64234e-17
3.83617e-16
1.14188e-15
2.29114e-15
3.6855e-15
5.18572e-15
6.69564e-15
8.15696e-15
9.53685e-15
1.08182e-14
1.19938e-14
1.30632e-14
1.40306e-14
1.49038e-14
1.5693e-14
1.64096e-14
1.70659e-14
1.76745e-14
1.82475e-14
1.8796e-14
1.93306e-14
1.98604e-14
2.03937e-14
2.09377e-14
2.14986e-14
2.20819e-14
2.26922e-14
2.3334e-14
2.4011e-14
2.47269e-14
2.54848e-14
2.62879e-14
2.71391e-14
2.80414e-14
2.89974e-14
3.00097e-14
3.10804e-14
3.22111e-14
3.34026e-14
3.46548e-14
3.5966e-14
3.73324e-14
3.87478e-14
4.02025e-14
4.16822e-14
4.31679e-14
4.46344e-14
4.605e-14
4.73758e-14
4.85663e-14
4.95702e-14
5.03256e-14
5.06997e-14
5.08269e-14
5.05212e-14
4.97182e-14
4.83986e-14
4.65544e-14
4.41947e-14
4.13507e-14
3.80774e-14
3.44528e-14
3.05735e-14
2.65479e-14
2.24882e-14
1.85013e-14
1.46807e-14
1.1103e-14
7.83167e-15
4.93921e-15
2.54956e-15
8.98126e-16
1.36361e-16
8.41312e-19
3.9839e-19
6.5621e-17
4.54532e-16
1.38776e-15
2.85522e-15
4.68872e-15
6.69918e-15
8.74266e-15
1.07269e-14
1.25983e-14
1.43286e-14
1.59063e-14
1.73308e-14
1.86087e-14
1.97516e-14
2.07744e-14
2.1694e-14
2.25279e-14
2.32936e-14
2.40081e-14
2.46871e-14
2.53448e-14
2.5994e-14
2.66458e-14
2.73102e-14
2.79955e-14
2.87092e-14
2.94576e-14
3.02465e-14
3.1081e-14
3.19661e-14
3.29061e-14
3.39052e-14
3.49675e-14
3.60967e-14
3.72965e-14
3.857e-14
3.99197e-14
4.13476e-14
4.28542e-14
4.44385e-14
4.60973e-14
4.78246e-14
4.96103e-14
5.14398e-14
5.32926e-14
5.51411e-14
5.69505e-14
5.86771e-14
6.02692e-14
6.1667e-14
6.28046e-14
6.3593e-14
6.389e-14
6.3886e-14
6.33114e-14
6.21093e-14
6.02687e-14
5.7792e-14
5.46999e-14
5.10375e-14
4.68774e-14
4.23167e-14
3.74728e-14
3.24751e-14
2.74559e-14
2.25403e-14
1.78381e-14
1.34404e-14
9.42673e-15
5.89365e-15
3.00231e-15
1.04144e-15
1.56033e-16
9.5798e-19
4.54153e-19
7.52005e-17
5.28102e-16
1.64421e-15
3.45215e-15
5.76914e-15
8.35484e-15
1.10093e-14
1.35967e-14
1.60358e-14
1.82834e-14
2.03215e-14
2.21487e-14
2.37746e-14
2.52157e-14
2.6493e-14
2.76301e-14
2.86511e-14
2.958e-14
3.04394e-14
3.12504e-14
3.20319e-14
3.28007e-14
3.35714e-14
3.43568e-14
3.51679e-14
3.60144e-14
3.69046e-14
3.78458e-14
3.88448e-14
3.99078e-14
4.10405e-14
4.22483e-14
4.35362e-14
4.49089e-14
4.63706e-14
4.79252e-14
4.95752e-14
5.13223e-14
5.31662e-14
5.51044e-14
5.71311e-14
5.92366e-14
6.14058e-14
6.36175e-14
6.58427e-14
6.8044e-14
7.01745e-14
7.21777e-14
7.39875e-14
7.55298e-14
7.67243e-14
7.7466e-14
7.75681e-14
7.73447e-14
7.64111e-14
7.47125e-14
7.22601e-14
6.90723e-14
6.51835e-14
6.06542e-14
5.55736e-14
5.00577e-14
4.42423e-14
3.82756e-14
3.23072e-14
2.64781e-14
2.09122e-14
1.57135e-14
1.09767e-14
6.82155e-15
3.44405e-15
1.18285e-15
1.75753e-16
1.07605e-18
5.12299e-19
8.51642e-17
6.04343e-16
1.91049e-15
4.07752e-15
6.91528e-15
1.01325e-14
1.34667e-14
1.67302e-14
1.98068e-14
2.26337e-14
2.51844e-14
2.74564e-14
2.94626e-14
3.12256e-14
3.27741e-14
3.41394e-14
3.53538e-14
3.64487e-14
3.74537e-14
3.83961e-14
3.93e-14
4.0187e-14
4.10754e-14
4.19816e-14
4.29193e-14
4.39005e-14
4.49358e-14
4.60343e-14
4.72044e-14
4.84537e-14
4.97892e-14
5.12174e-14
5.27442e-14
5.43752e-14
5.61151e-14
5.79677e-14
5.99354e-14
6.2019e-14
6.42166e-14
6.65231e-14
6.8929e-14
7.14195e-14
7.3973e-14
7.65597e-14
7.91408e-14
8.16671e-14
8.40787e-14
8.63052e-14
8.82667e-14
8.98755e-14
9.10387e-14
9.16358e-14
9.14613e-14
9.08808e-14
8.95322e-14
8.72535e-14
8.41153e-14
8.01583e-14
7.54315e-14
7.001e-14
6.39993e-14
5.75315e-14
5.07594e-14
4.3847e-14
3.69588e-14
3.02492e-14
2.38541e-14
1.78891e-14
1.24622e-14
7.71414e-15
3.87257e-15
1.32202e-15
1.95471e-16
1.1951e-18
5.72812e-19
9.5515e-17
6.83303e-16
2.18631e-15
4.72867e-15
8.11891e-15
1.2016e-14
1.609e-14
2.0094e-14
2.387e-14
2.73311e-14
3.04402e-14
3.31931e-14
3.56066e-14
3.77106e-14
3.95426e-14
4.11434e-14
4.25547e-14
4.38164e-14
4.49663e-14
4.60382e-14
4.70626e-14
4.8066e-14
4.90712e-14
5.0098e-14
5.11633e-14
5.22817e-14
5.34659e-14
5.4727e-14
5.60751e-14
5.75191e-14
5.90673e-14
6.07272e-14
6.25055e-14
6.44081e-14
6.64401e-14
6.86049e-14
7.09042e-14
7.33369e-14
7.58987e-14
7.85809e-14
8.13691e-14
8.42417e-14
8.7169e-14
9.01114e-14
9.30185e-14
9.58285e-14
9.8468e-14
1.00853e-13
1.02891e-13
1.04482e-13
1.05525e-13
1.05881e-13
1.05345e-13
1.04316e-13
1.02464e-13
9.95642e-14
9.5683e-14
9.09174e-14
8.53297e-14
7.90085e-14
7.20732e-14
6.46709e-14
5.69688e-14
4.91443e-14
4.13746e-14
3.38254e-14
2.66431e-14
1.99531e-14
1.38752e-14
8.56821e-15
4.28701e-15
1.45879e-15
2.15152e-16
1.31484e-18
6.35687e-19
1.06256e-16
7.65042e-16
2.47164e-15
5.40416e-15
9.3745e-15
1.39931e-14
1.88592e-14
2.36595e-14
2.81887e-14
3.23315e-14
3.60381e-14
3.9302e-14
4.21446e-14
4.46044e-14
4.67289e-14
4.85698e-14
5.01794e-14
5.16075e-14
5.29005e-14
5.41001e-14
5.52432e-14
5.63618e-14
5.74834e-14
5.86316e-14
5.98266e-14
6.10855e-14
6.24234e-14
6.38533e-14
6.53867e-14
6.70342e-14
6.88049e-14
7.07072e-14
7.27485e-14
7.49348e-14
7.72709e-14
7.97595e-14
8.24005e-14
8.51907e-14
8.81222e-14
9.11813e-14
9.43474e-14
9.75911e-14
1.00873e-13
1.04142e-13
1.07336e-13
1.1038e-13
1.13188e-13
1.15662e-13
1.17699e-13
1.19191e-13
1.2003e-13
1.20057e-13
1.19081e-13
1.17562e-13
1.15093e-13
1.11563e-13
1.069e-13
1.01301e-13
9.48425e-14
8.76243e-14
7.97784e-14
7.14648e-14
6.28631e-14
5.41627e-14
4.55514e-14
3.72047e-14
2.92777e-14
2.19047e-14
1.52154e-14
9.38389e-15
4.6874e-15
1.59314e-15
2.34768e-16
1.43504e-18
7.00926e-19
1.17392e-16
8.49626e-16
2.76659e-15
6.10334e-15
1.06785e-14
1.60552e-14
2.17584e-14
2.74034e-14
3.27318e-14
3.75966e-14
4.19331e-14
4.57325e-14
4.90215e-14
5.18478e-14
5.42709e-14
5.63545e-14
5.81626e-14
5.9756e-14
6.11905e-14
6.25162e-14
6.3777e-14
6.50106e-14
6.62494e-14
6.7521e-14
6.88488e-14
7.02528e-14
7.175e-14
7.33555e-14
7.50823e-14
7.69422e-14
7.89452e-14
8.11004e-14
8.34154e-14
8.58961e-14
8.85465e-14
9.13679e-14
9.4358e-14
9.75103e-14
1.00812e-13
1.04245e-13
1.07779e-13
1.11376e-13
1.14987e-13
1.18549e-13
1.21986e-13
1.25211e-13
1.28125e-13
1.3062e-13
1.32585e-13
1.33905e-13
1.34471e-13
1.34092e-13
1.32618e-13
1.3057e-13
1.27417e-13
1.23227e-13
1.17773e-13
1.11324e-13
1.03991e-13
9.58829e-14
8.71419e-14
7.79398e-14
6.84673e-14
5.89242e-14
4.95075e-14
4.04013e-14
3.17685e-14
2.3751e-14
1.64872e-14
1.01633e-14
5.07442e-15
1.72511e-15
2.54305e-16
1.55556e-18
7.68534e-19
1.28927e-16
9.37117e-16
3.07134e-15
6.82615e-15
1.20288e-14
1.81962e-14
2.47758e-14
3.13071e-14
3.74739e-14
4.30941e-14
4.80871e-14
5.24414e-14
5.61896e-14
5.93902e-14
6.21155e-14
6.44428e-14
6.64488e-14
6.82061e-14
6.97809e-14
7.12318e-14
7.26102e-14
7.39598e-14
7.5318e-14
7.67164e-14
7.81815e-14
7.9736e-14
8.13993e-14
8.31881e-14
8.51169e-14
8.71983e-14
8.94435e-14
9.18616e-14
9.44603e-14
9.7245e-14
1.00218e-13
1.0338e-13
1.06724e-13
1.1024e-13
1.1391e-13
1.17708e-13
1.21596e-13
1.25527e-13
1.29439e-13
1.33256e-13
1.36892e-13
1.40247e-13
1.4321e-13
1.45666e-13
1.47496e-13
1.48583e-13
1.48818e-13
1.47978e-13
1.45966e-13
1.43359e-13
1.39492e-13
1.34577e-13
1.28359e-13
1.21044e-13
1.12836e-13
1.03844e-13
9.42202e-14
8.4147e-14
7.3826e-14
6.34663e-14
5.32735e-14
4.34391e-14
3.41331e-14
2.5504e-14
1.76975e-14
1.09098e-14
5.44918e-15
1.85484e-15
2.7376e-16
1.67634e-18
8.38523e-19
1.40864e-16
1.02757e-15
3.38611e-15
7.5727e-15
1.34244e-14
2.04119e-14
2.79028e-14
3.5356e-14
4.23942e-14
4.87976e-14
5.44682e-14
5.93921e-14
6.36087e-14
6.71884e-14
7.02178e-14
7.27886e-14
7.49916e-14
7.69117e-14
7.8626e-14
8.02023e-14
8.16994e-14
8.31673e-14
8.46483e-14
8.6178e-14
8.77862e-14
8.9498e-14
9.1335e-14
9.33155e-14
9.54553e-14
9.7768e-14
1.00265e-13
1.02956e-13
1.05848e-13
1.08945e-13
1.12249e-13
1.15756e-13
1.19457e-13
1.23337e-13
1.27371e-13
1.31525e-13
1.35752e-13
1.39994e-13
1.44177e-13
1.48216e-13
1.5201e-13
1.55448e-13
1.58413e-13
1.6078e-13
1.62426e-13
1.63233e-13
1.63093e-13
1.61747e-13
1.59195e-13
1.5598e-13
1.51398e-13
1.45712e-13
1.38741e-13
1.30551e-13
1.21465e-13
1.1159e-13
1.01088e-13
9.01526e-14
7.89959e-14
6.78362e-14
5.68871e-14
4.63472e-14
3.63927e-14
2.71779e-14
1.88549e-14
1.16271e-14
5.81316e-15
1.98253e-15
2.93137e-16
1.79737e-18
9.10904e-19
1.53206e-16
1.12105e-15
3.71113e-15
8.34328e-15
1.48648e-14
2.26999e-14
3.1133e-14
3.95392e-14
4.74765e-14
5.46854e-14
6.105e-14
6.65543e-14
7.12453e-14
7.52067e-14
7.85403e-14
8.13538e-14
8.37525e-14
8.58347e-14
8.76885e-14
8.93914e-14
9.10096e-14
9.25995e-14
9.42081e-14
9.5875e-14
9.76332e-14
9.95102e-14
1.01529e-13
1.03711e-13
1.06071e-13
1.08625e-13
1.11384e-13
1.14358e-13
1.17552e-13
1.2097e-13
1.24612e-13
1.28469e-13
1.3253e-13
1.36772e-13
1.41164e-13
1.45664e-13
1.50215e-13
1.54747e-13
1.59177e-13
1.63406e-13
1.67323e-13
1.70809e-13
1.73736e-13
1.75977e-13
1.77405e-13
1.779e-13
1.77357e-13
1.7548e-13
1.72391e-13
1.68535e-13
1.63232e-13
1.56755e-13
1.49025e-13
1.39952e-13
1.29979e-13
1.19215e-13
1.0783e-13
9.60306e-14
8.40397e-14
7.20855e-14
6.03896e-14
4.91572e-14
3.85702e-14
2.87884e-14
1.99685e-14
1.23197e-14
6.16782e-15
2.10841e-15
3.12448e-16
1.91869e-18
9.85686e-19
1.65959e-16
1.21761e-15
4.04662e-15
9.1382e-15
1.63499e-14
2.50584e-14
3.44618e-14
4.3848e-14
5.27076e-14
6.07399e-14
6.78109e-14
7.39028e-14
7.90715e-14
8.3415e-14
8.7052e-14
9.01067e-14
9.27001e-14
9.49441e-14
9.69385e-14
9.87701e-14
1.00513e-13
1.0223e-13
1.03972e-13
1.05784e-13
1.077e-13
1.09751e-13
1.11962e-13
1.14354e-13
1.16946e-13
1.19751e-13
1.22782e-13
1.26048e-13
1.29555e-13
1.33303e-13
1.37288e-13
1.41501e-13
1.45923e-13
1.50527e-13
1.55273e-13
1.6011e-13
1.64971e-13
1.69777e-13
1.74431e-13
1.78826e-13
1.82841e-13
1.86348e-13
1.89214e-13
1.91306e-13
1.92495e-13
1.92662e-13
1.91702e-13
1.8928e-13
1.85662e-13
1.81149e-13
1.75117e-13
1.67837e-13
1.5933e-13
1.49367e-13
1.38492e-13
1.26821e-13
1.14537e-13
1.01859e-13
8.90231e-14
7.62674e-14
6.38228e-14
5.19009e-14
4.06888e-14
3.03508e-14
2.10477e-14
1.29922e-14
6.51467e-15
2.23277e-15
3.31714e-16
2.0404e-18
1.06288e-18
1.79124e-16
1.31727e-15
4.39278e-15
9.95784e-15
1.78799e-14
2.74863e-14
3.78858e-14
4.82757e-14
5.8077e-14
6.69466e-14
7.47326e-14
8.14163e-14
8.70636e-14
9.17883e-14
9.57267e-14
9.9021e-14
1.01808e-13
1.04214e-13
1.06351e-13
1.08315e-13
1.10188e-13
1.12038e-13
1.13922e-13
1.15886e-13
1.1797e-13
1.20205e-13
1.22619e-13
1.25233e-13
1.28066e-13
1.31134e-13
1.34449e-13
1.38018e-13
1.41846e-13
1.45932e-13
1.50269e-13
1.54843e-13
1.59629e-13
1.64595e-13
1.69692e-13
1.74859e-13
1.80022e-13
1.85088e-13
1.89953e-13
1.94499e-13
1.98597e-13
2.02111e-13
2.04904e-13
2.06838e-13
2.07782e-13
2.07616e-13
2.06236e-13
2.03268e-13
1.99132e-13
1.93953e-13
1.87189e-13
1.79093e-13
1.69784e-13
1.58921e-13
1.47119e-13
1.34514e-13
1.21302e-13
1.07718e-13
9.40119e-14
8.04354e-14
6.72285e-14
5.46098e-14
4.27713e-14
3.18807e-14
2.21016e-14
1.3649e-14
6.85526e-15
2.35592e-15
3.50957e-16
2.16262e-18
1.14249e-18
1.92703e-16
1.42009e-15
4.74975e-15
1.08025e-14
1.94549e-14
2.9983e-14
4.14023e-14
5.28167e-14
6.35756e-14
7.32932e-14
8.17997e-14
8.90768e-14
9.52017e-14
1.00305e-13
1.04543e-13
1.08075e-13
1.11055e-13
1.13625e-13
1.15907e-13
1.18008e-13
1.20017e-13
1.22008e-13
1.24042e-13
1.2617e-13
1.28431e-13
1.30862e-13
1.3349e-13
1.36338e-13
1.39425e-13
1.42768e-13
1.46378e-13
1.50262e-13
1.54422e-13
1.58856e-13
1.63553e-13
1.68494e-13
1.73649e-13
1.78979e-13
1.84426e-13
1.89922e-13
1.95381e-13
2.00702e-13
2.05772e-13
2.10462e-13
2.14638e-13
2.18157e-13
2.20877e-13
2.22657e-13
2.23363e-13
2.22872e-13
2.21078e-13
2.17571e-13
2.1293e-13
2.07084e-13
1.99586e-13
1.90667e-13
1.80508e-13
1.68741e-13
1.55975e-13
1.42397e-13
1.28217e-13
1.13685e-13
9.90711e-14
8.46413e-14
7.06469e-14
5.73141e-14
4.48391e-14
3.33924e-14
2.3139e-14
1.42947e-14
7.19116e-15
2.47817e-15
3.70204e-16
2.28548e-18
1.22453e-18
2.067e-16
1.52608e-15
5.11769e-15
1.16725e-14
2.1075e-14
3.25476e-14
4.50089e-14
5.74662e-14
6.91958e-14
7.97689e-14
8.89986e-14
9.68683e-14
1.03468e-13
1.08947e-13
1.1348e-13
1.17248e-13
1.20423e-13
1.23158e-13
1.2559e-13
1.27834e-13
1.29987e-13
1.32129e-13
1.34323e-13
1.36625e-13
1.39077e-13
1.41716e-13
1.44571e-13
1.47666e-13
1.51021e-13
1.54652e-13
1.5857e-13
1.62781e-13
1.67285e-13
1.72078e-13
1.77145e-13
1.82461e-13
1.87993e-13
1.9369e-13
1.99491e-13
2.05317e-13
2.11074e-13
2.16651e-13
2.21926e-13
2.26765e-13
2.31025e-13
2.34559e-13
2.37219e-13
2.3886e-13
2.39345e-13
2.38546e-13
2.3635e-13
2.32319e-13
2.27187e-13
2.20676e-13
2.12439e-13
2.02687e-13
1.91646e-13
1.78944e-13
1.65172e-13
1.50572e-13
1.35369e-13
1.19836e-13
1.04263e-13
8.89353e-14
7.41168e-14
6.00424e-14
4.69126e-14
3.48995e-14
2.41683e-14
1.49332e-14
7.52385e-15
2.59983e-15
3.89483e-16
2.40913e-18
1.309e-18
2.21113e-16
1.63527e-15
5.49667e-15
1.25679e-14
2.27404e-14
3.51796e-14
4.87033e-14
6.22196e-14
7.49303e-14
8.63637e-14
9.6317e-14
1.04777e-13
1.11847e-13
1.17697e-13
1.22523e-13
1.26526e-13
1.29895e-13
1.32799e-13
1.35386e-13
1.37782e-13
1.40088e-13
1.4239e-13
1.44758e-13
1.47247e-13
1.49904e-13
1.52765e-13
1.55861e-13
1.59218e-13
1.62856e-13
1.6679e-13
1.7103e-13
1.75582e-13
1.80444e-13
1.85608e-13
1.91056e-13
1.96759e-13
2.02675e-13
2.08749e-13
2.14911e-13
2.21074e-13
2.27134e-13
2.32976e-13
2.38467e-13
2.43467e-13
2.47827e-13
2.51394e-13
2.54017e-13
2.55544e-13
2.55835e-13
2.54757e-13
2.52166e-13
2.47635e-13
2.42026e-13
2.34853e-13
2.25872e-13
2.15276e-13
2.03324e-13
1.89641e-13
1.74816e-13
1.59135e-13
1.42845e-13
1.26245e-13
1.09649e-13
9.33654e-14
7.76748e-14
6.28217e-14
4.90109e-14
3.64147e-14
2.51968e-14
1.55685e-14
7.85475e-15
2.7212e-15
4.08818e-16
2.53371e-18
1.39588e-18
2.35945e-16
1.74766e-15
5.88676e-15
1.34889e-14
2.44508e-14
3.7878e-14
5.24832e-14
6.70725e-14
8.07722e-14
9.30681e-14
1.03743e-13
1.12788e-13
1.20323e-13
1.26539e-13
1.31655e-13
1.35892e-13
1.39457e-13
1.42535e-13
1.45285e-13
1.4784e-13
1.50311e-13
1.52787e-13
1.55342e-13
1.58034e-13
1.6091e-13
1.64009e-13
1.67364e-13
1.70999e-13
1.74936e-13
1.79188e-13
1.83767e-13
1.88676e-13
1.93912e-13
1.99461e-13
2.05304e-13
2.11405e-13
2.17718e-13
2.2418e-13
2.30714e-13
2.37225e-13
2.43603e-13
2.49723e-13
2.55448e-13
2.60629e-13
2.65114e-13
2.68742e-13
2.71357e-13
2.72803e-13
2.72934e-13
2.71613e-13
2.68635e-13
2.63634e-13
2.57559e-13
2.49731e-13
2.39999e-13
2.28547e-13
2.15655e-13
2.00937e-13
1.85004e-13
1.68175e-13
1.50724e-13
1.32979e-13
1.15285e-13
9.79772e-14
8.13558e-14
6.56774e-14
5.11514e-14
3.79494e-14
2.62316e-14
1.62041e-14
8.18515e-15
2.84256e-15
4.28234e-16
2.65933e-18
1.48519e-18
2.51193e-16
1.86327e-15
6.28797e-15
1.44355e-14
2.62059e-14
4.06416e-14
5.63459e-14
7.20201e-14
8.67143e-14
9.98726e-14
1.11265e-13
1.20889e-13
1.28883e-13
1.3546e-13
1.40862e-13
1.45333e-13
1.49097e-13
1.52354e-13
1.55275e-13
1.58001e-13
1.6065e-13
1.63316e-13
1.66073e-13
1.68984e-13
1.72097e-13
1.75453e-13
1.79084e-13
1.83016e-13
1.8727e-13
1.9186e-13
1.96796e-13
2.02079e-13
2.07703e-13
2.13655e-13
2.19908e-13
2.26423e-13
2.33147e-13
2.40012e-13
2.46934e-13
2.5381e-13
2.60523e-13
2.66943e-13
2.72925e-13
2.78315e-13
2.82954e-13
2.86678e-13
2.89321e-13
2.90724e-13
2.90731e-13
2.892e-13
2.85865e-13
2.80418e-13
2.73885e-13
2.65408e-13
2.54917e-13
2.42599e-13
2.28735e-13
2.12925e-13
1.95823e-13
1.77774e-13
1.59079e-13
1.40103e-13
1.21226e-13
1.02814e-13
8.51923e-14
6.86332e-14
5.33506e-14
3.95143e-14
2.72789e-14
1.68431e-14
8.51622e-15
2.96414e-15
4.47747e-16
2.7861e-18
1.57689e-18
2.66857e-16
1.98207e-15
6.70029e-15
1.54074e-14
2.80053e-14
4.3469e-14
6.02883e-14
7.70572e-14
9.2749e-14
1.06767e-13
1.18871e-13
1.29066e-13
1.37511e-13
1.44443e-13
1.50129e-13
1.54834e-13
1.58802e-13
1.62246e-13
1.65348e-13
1.68259e-13
1.71101e-13
1.73973e-13
1.76951e-13
1.801e-13
1.83471e-13
1.87103e-13
1.91031e-13
1.9528e-13
1.99871e-13
2.04818e-13
2.1013e-13
2.15807e-13
2.2184e-13
2.28212e-13
2.34893e-13
2.41839e-13
2.48992e-13
2.56278e-13
2.63605e-13
2.70866e-13
2.77938e-13
2.84683e-13
2.90951e-13
2.96583e-13
3.01412e-13
3.05269e-13
3.07981e-13
3.09379e-13
3.09301e-13
3.07596e-13
3.0394e-13
2.98072e-13
2.91083e-13
2.81965e-13
2.70709e-13
2.57509e-13
2.42642e-13
2.25683e-13
2.0735e-13
1.88003e-13
1.67976e-13
1.47675e-13
1.2752e-13
1.07915e-13
8.92154e-14
7.17112e-14
5.56233e-14
4.11188e-14
2.83443e-14
1.74883e-14
8.84896e-15
3.08613e-15
4.6737e-16
2.91407e-18
1.67099e-18
2.82933e-16
2.10406e-15
7.12366e-15
1.64046e-14
2.98481e-14
4.63584e-14
6.4307e-14
8.2178e-14
9.88683e-14
1.13742e-13
1.26549e-13
1.37306e-13
1.46194e-13
1.53475e-13
1.59443e-13
1.64383e-13
1.68559e-13
1.722e-13
1.75496e-13
1.78608e-13
1.8166e-13
1.84756e-13
1.87977e-13
1.91386e-13
1.95035e-13
1.98967e-13
2.03213e-13
2.07802e-13
2.12753e-13
2.1808e-13
2.23789e-13
2.2988e-13
2.36342e-13
2.43154e-13
2.50283e-13
2.5768e-13
2.65281e-13
2.73008e-13
2.80763e-13
2.88434e-13
2.9589e-13
3.02989e-13
3.09575e-13
3.15484e-13
3.20541e-13
3.24571e-13
3.27392e-13
3.28827e-13
3.28703e-13
3.26858e-13
3.22925e-13
3.16657e-13
3.09213e-13
2.99463e-13
2.87435e-13
2.73337e-13
2.57436e-13
2.39275e-13
2.19647e-13
1.98921e-13
1.77472e-13
1.55747e-13
1.34213e-13
1.13318e-13
9.34535e-14
7.49321e-14
5.79836e-14
4.27717e-14
2.94327e-14
1.81421e-14
9.1842e-15
3.2087e-15
4.87109e-16
3.04324e-18
1.76745e-18
2.99418e-16
2.2292e-15
7.55797e-15
1.74267e-14
3.17334e-14
4.93075e-14
6.83977e-14
8.73763e-14
1.05063e-13
1.20785e-13
1.34285e-13
1.45593e-13
1.54915e-13
1.6254e-13
1.68787e-13
1.73966e-13
1.78358e-13
1.82206e-13
1.85711e-13
1.8904e-13
1.92323e-13
1.95666e-13
1.99151e-13
2.02844e-13
2.06797e-13
2.11052e-13
2.15643e-13
2.20596e-13
2.25931e-13
2.31661e-13
2.37792e-13
2.4432e-13
2.51233e-13
2.58507e-13
2.66104e-13
2.73973e-13
2.82045e-13
2.90235e-13
2.98441e-13
3.06546e-13
3.14415e-13
3.21899e-13
3.28837e-13
3.35058e-13
3.40383e-13
3.44625e-13
3.47596e-13
3.49108e-13
3.48976e-13
3.47024e-13
3.42857e-13
3.36214e-13
3.28312e-13
3.1794e-13
3.05134e-13
2.90121e-13
2.73157e-13
2.53746e-13
2.3276e-13
2.10577e-13
1.87613e-13
1.64363e-13
1.41345e-13
1.19057e-13
9.79331e-14
7.83151e-14
6.04442e-14
4.44808e-14
3.05485e-14
1.88066e-14
9.52262e-15
3.33192e-15
5.06962e-16
3.17359e-18
1.86624e-18
3.16309e-16
2.35748e-15
8.00309e-15
1.84731e-14
3.36599e-14
5.23136e-14
7.25558e-14
9.26446e-14
1.11324e-13
1.27884e-13
1.42064e-13
1.53913e-13
1.63658e-13
1.71621e-13
1.78147e-13
1.83568e-13
1.88185e-13
1.92253e-13
1.95984e-13
1.9955e-13
2.03086e-13
2.067e-13
2.10476e-13
2.14479e-13
2.18763e-13
2.23369e-13
2.28331e-13
2.33675e-13
2.39421e-13
2.4558e-13
2.52156e-13
2.59146e-13
2.66534e-13
2.74292e-13
2.82381e-13
2.90743e-13
2.99308e-13
3.07984e-13
3.16667e-13
3.25233e-13
3.33542e-13
3.41442e-13
3.48766e-13
3.55335e-13
3.60963e-13
3.65456e-13
3.68615e-13
3.7024e-13
3.70134e-13
3.68108e-13
3.6375e-13
3.56755e-13
3.48393e-13
3.37409e-13
3.23823e-13
3.07873e-13
2.89821e-13
2.69122e-13
2.46718e-13
2.23003e-13
1.98435e-13
1.73558e-13
1.48948e-13
1.2516e-13
1.02678e-13
8.18777e-14
6.30168e-14
4.62531e-14
3.16956e-14
1.94835e-14
9.86473e-15
3.45586e-15
5.26917e-16
3.30501e-18
1.96735e-18
3.33599e-16
2.48884e-15
8.45883e-15
1.95434e-14
3.56262e-14
5.53736e-14
7.67757e-14
9.79747e-14
1.17639e-13
1.35025e-13
1.49873e-13
1.62247e-13
1.72407e-13
1.80701e-13
1.87505e-13
1.93174e-13
1.98026e-13
2.02329e-13
2.06305e-13
2.10131e-13
2.13945e-13
2.17857e-13
2.21951e-13
2.26294e-13
2.30938e-13
2.35925e-13
2.41288e-13
2.47052e-13
2.53237e-13
2.59852e-13
2.66901e-13
2.74377e-13
2.82264e-13
2.90531e-13
2.99133e-13
3.08013e-13
3.17092e-13
3.26279e-13
3.35462e-13
3.44515e-13
3.53293e-13
3.61637e-13
3.69377e-13
3.76327e-13
3.82293e-13
3.8707e-13
3.9045e-13
3.92221e-13
3.92172e-13
3.901e-13
3.85591e-13
3.78267e-13
3.69441e-13
3.57855e-13
3.4349e-13
3.26584e-13
3.07422e-13
2.85409e-13
2.61534e-13
2.36217e-13
2.0996e-13
1.83359e-13
1.57051e-13
1.31653e-13
1.07709e-13
8.56354e-14
6.57118e-14
4.80949e-14
3.2877e-14
2.01743e-14
1.02109e-14
3.58051e-15
5.46955e-16
3.43735e-18
2.07073e-18
3.51283e-16
2.62323e-15
8.92497e-15
2.06367e-14
3.76305e-14
5.84838e-14
8.10511e-14
1.03357e-13
1.23996e-13
1.42194e-13
1.57692e-13
1.70577e-13
1.8114e-13
1.89761e-13
1.96843e-13
2.02766e-13
2.07864e-13
2.1242e-13
2.16662e-13
2.20773e-13
2.24893e-13
2.29132e-13
2.33576e-13
2.3829e-13
2.43327e-13
2.48726e-13
2.54522e-13
2.60737e-13
2.6739e-13
2.74491e-13
2.8204e-13
2.9003e-13
2.9844e-13
3.07239e-13
3.16379e-13
3.25797e-13
3.35414e-13
3.45133e-13
3.54839e-13
3.64402e-13
3.73673e-13
3.82489e-13
3.90672e-13
3.9803e-13
4.04361e-13
4.09451e-13
4.1308e-13
4.15024e-13
4.15057e-13
4.12961e-13
4.08338e-13
4.00708e-13
3.91415e-13
3.7924e-13
3.64101e-13
3.46221e-13
3.2593e-13
3.02589e-13
2.77197e-13
2.50219e-13
2.22197e-13
1.9378e-13
1.6567e-13
1.38555e-13
1.13042e-13
8.96016e-14
6.85383e-14
5.00115e-14
3.40957e-14
2.088e-14
1.05612e-14
3.7058e-15
5.67049e-16
3.57041e-18
2.17633e-18
3.69352e-16
2.7606e-15
9.40125e-15
2.17522e-14
3.96709e-14
6.16398e-14
8.5375e-14
1.08782e-13
1.30382e-13
1.49373e-13
1.65502e-13
1.78883e-13
1.89836e-13
1.98778e-13
2.06139e-13
2.12323e-13
2.17683e-13
2.2251e-13
2.27042e-13
2.31464e-13
2.3592e-13
2.40518e-13
2.45345e-13
2.50465e-13
2.55928e-13
2.61775e-13
2.68036e-13
2.74736e-13
2.81889e-13
2.89505e-13
2.97583e-13
3.06113e-13
3.15072e-13
3.24426e-13
3.34126e-13
3.44104e-13
3.54279e-13
3.6455e-13
3.748e-13
3.84893e-13
3.94678e-13
4.03986e-13
4.12633e-13
4.20421e-13
4.27138e-13
4.32562e-13
4.36461e-13
4.38598e-13
4.38732e-13
4.3663e-13
4.3192e-13
4.24007e-13
4.14249e-13
4.01495e-13
3.85591e-13
3.66724e-13
3.45293e-13
3.20622e-13
2.93679e-13
2.64991e-13
2.35138e-13
2.04823e-13
1.74815e-13
1.45877e-13
1.18691e-13