/*--------------------------------*- C++ -*----------------------------------*\
  =========                 |
  \\      /  F ield         | OpenFOAM: The Open Source CFD Toolbox
   \\    /   O peration     | Website:  https://openfoam.org
    \\  /    A nd           | Version:  12
     \\/     M anipulation  |
\*---------------------------------------------------------------------------*/
FoamFile
{
    format      ascii;
    class       volScalarField;
    location    "10";
    object      p;
}
// * * * * * * * * * * * * * * * * * * * * * * * * * * * * * * * * * * * * * //

dimensions      [0 2 -2 0 0 0 0];

internalField   nonuniform List<scalar> 
5625
(
-8.60209e-11
-8.76179e-06
-8.7405e-05
-0.000237358
-0.000440161
-0.00067972
-0.000942887
-0.00122005
-0.00150481
-0.0017934
-0.00208416
-0.00237691
-0.00267252
-0.00297246
-0.00327851
-0.00359252
-0.00391623
-0.00425114
-0.00459841
-0.00495883
-0.00533276
-0.00572008
-0.00612017
-0.00653185
-0.00695334
-0.00738213
-0.00781495
-0.00824761
-0.00867488
-0.00909032
-0.00948612
-0.00985294
-0.0101797
-0.0104532
-0.0106584
-0.0107778
-0.0107913
-0.0106765
-0.0104083
-0.00995905
-0.009299
-0.00839635
-0.00721793
-0.00572999
-0.0038992
-0.00169395
0.000914074
0.00394799
0.00742363
0.0113474
0.0157144
0.0204985
0.0256636
0.0311668
0.0369222
0.0428368
0.0488003
0.0546862
0.0603579
0.0656754
0.0705025
0.0747162
0.0782159
0.0809316
0.0828309
0.0839235
0.0842619
0.0839392
0.0830836
0.0818511
0.0804175
0.0789718
0.0777126
0.0768538
0.0765127
-1.20124e-05
-2.0999e-05
-9.51271e-05
-0.000235345
-0.000425209
-0.000650789
-0.000900329
-0.00116497
-0.00143861
-0.00171753
-0.0019999
-0.00228529
-0.00257425
-0.00286796
-0.00316788
-0.00347559
-0.00379258
-0.00412012
-0.00445921
-0.00481045
-0.00517408
-0.00554988
-0.00593711
-0.00633453
-0.00674027
-0.0071518
-0.00756581
-0.00797811
-0.00838349
-0.00877557
-0.00914667
-0.00948758
-0.00978741
-0.0100334
-0.0102107
-0.0103023
-0.0102888
-0.0101484
-0.00985674
-0.00938719
-0.00871092
-0.00779729
-0.00661434
-0.00512961
-0.00331108
-0.00112843
0.00144539
0.00443243
0.0078476
0.0116967
0.015975
0.0206543
0.0257038
0.031082
0.036699
0.0424703
0.0482886
0.0540319
0.0595687
0.0647646
0.0694891
0.0736247
0.0770753
0.0797747
0.0816926
0.0828392
0.0832653
0.0830604
0.0823472
0.081274
0.0800069
0.0787222
0.0776018
0.0768397
0.0765393
-1.3396e-05
-2.29218e-05
-9.31607e-05
-0.000224318
-0.000401485
-0.000612905
-0.000848231
-0.00109949
-0.00136098
-0.00162909
-0.00190187
-0.00217869
-0.00245981
-0.00274607
-0.00303866
-0.00333885
-0.00364786
-0.00396674
-0.00429626
-0.00463688
-0.00498868
-0.00535129
-0.00572391
-0.0061052
-0.00649323
-0.00688544
-0.0072785
-0.00766825
-0.00804952
-0.00841607
-0.00876033
-0.00907334
-0.00934449
-0.00956138
-0.00970967
-0.00977285
-0.00973222
-0.00956672
-0.00925297
-0.00876531
-0.00807604
-0.00715569
-0.00597361
-0.00449862
-0.00269998
-0.00054862
0.00198142
0.00491123
0.00825509
0.0120185
0.0161965
0.0207607
0.0256885
0.030931
0.0364035
0.0420274
0.0476982
0.0532985
0.058702
0.0637793
0.0684051
0.0724669
0.0758727
0.0785593
0.0804985
0.0817004
0.0822145
0.0821268
0.0815545
0.0806384
0.0795343
0.0784056
0.0774153
0.0767355
0.076452
4.03351e-06
-7.47987e-06
-7.59867e-05
-0.000201257
-0.000369244
-0.000569769
-0.000793536
-0.00103345
-0.00128424
-0.00154248
-0.00180624
-0.00207476
-0.00234812
-0.00262693
-0.00291212
-0.00320475
-0.0035058
-0.00381613
-0.00413633
-0.0044667
-0.00480719
-0.00515735
-0.00551628
-0.00588257
-0.00625428
-0.00662882
-0.0070029
-0.0073724
-0.00773227
-0.00807639
-0.00839742
-0.00868664
-0.00893377
-0.00912683
-0.00925196
-0.00929325
-0.00923266
-0.00904989
-0.00872241
-0.00822548
-0.00753237
-0.00661466
-0.00544267
-0.00398624
-0.00221555
-0.000102321
0.0023788
0.00524853
0.00852104
0.0122019
0.0162865
0.0207499
0.0255718
0.0306966
0.0360521
0.0415589
0.0471157
0.0526087
0.0579151
0.0629088
0.0674679
0.0714823
0.0748625
0.0775468
0.0795075
0.0807548
0.0813369
0.0813373
0.0808694
0.0800681
0.0790815
0.0780617
0.077157
0.0765192
0.0762189
4.06711e-05
2.4578e-05
-4.48245e-05
-0.000167035
-0.000328838
-0.000521068
-0.000735545
-0.000965823
-0.00120714
-0.00145632
-0.00171153
-0.00197198
-0.00223763
-0.00250895
-0.00278668
-0.00307168
-0.00336476
-0.00366659
-0.00397763
-0.00429804
-0.00462766
-0.00496594
-0.00531193
-0.00566419
-0.00602075
-0.00637906
-0.00673588
-0.00708719
-0.00742808
-0.00775261
-0.00805369
-0.00832291
-0.00855039
-0.00872458
-0.00883216
-0.00885783
-0.00878422
-0.00859179
-0.00825881
-0.00776139
-0.00707366
-0.00616804
-0.00501568
-0.00358709
-0.00185305
0.000214333
0.00264025
0.00544554
0.00864481
0.0122444
0.0162405
0.0206127
0.0253374
0.030363
0.0356227
0.041037
0.0465077
0.0519235
0.0571638
0.0621045
0.066625
0.0706165
0.0739897
0.0766831
0.0786689
0.0799564
0.0805926
0.0806595
0.0802675
0.0795475
0.0786413
0.0776921
0.0768361
0.0762061
0.0758616
9.55394e-05
7.1835e-05
-1.19086e-06
-0.000122758
-0.000280697
-0.000466733
-0.000673606
-0.000895552
-0.00112831
-0.00136903
-0.00161602
-0.00186854
-0.00212649
-0.00239023
-0.00266039
-0.00293765
-0.00322268
-0.00351601
-0.00381795
-0.00412855
-0.00444756
-0.00477437
-0.00510796
-0.0054469
-0.00578923
-0.00613245
-0.00647341
-0.00680822
-0.00713216
-0.00743953
-0.00772354
-0.00797614
-0.00818788
-0.00834772
-0.00844292
-0.00845881
-0.00837874
-0.00818391
-0.00785337
-0.00736404
-0.0066908
-0.00580678
-0.00468374
-0.00329267
-0.00160462
0.000408273
0.00277141
0.00550619
0.00862812
0.0121448
0.0160538
0.0203382
0.0249734
0.029912
0.0350904
0.0404304
0.0458361
0.0511981
0.056397
0.0613097
0.0658158
0.0698058
0.0731898
0.0759053
0.0779229
0.0792508
0.0799346
0.0800548
0.0797198
0.0790574
0.0782046
0.0772973
0.0764622
0.0758136
0.075404
0.000167522
0.000133189
5.38743e-05
-6.92828e-05
-0.000225429
-0.0004071
-0.000607865
-0.000822646
-0.0010477
-0.00128053
-0.00151965
-0.0017644
-0.0020147
-0.00227085
-0.00253338
-0.00280286
-0.00307983
-0.00336468
-0.00365763
-0.00395863
-0.00426734
-0.00458311
-0.00490489
-0.00523127
-0.00556032
-0.00588964
-0.00621619
-0.00653627
-0.00684539
-0.00713813
-0.00740807
-0.00764756
-0.00784765
-0.00799786
-0.00808607
-0.0080983
-0.00801862
-0.00782898
-0.0075092
-0.00703693
-0.00638771
-0.00553526
-0.00445175
-0.00310842
-0.00147629
0.000472749
0.00276473
0.005422
0.00846134
0.011892
0.0157135
0.019912
0.0244634
0.029324
0.034433
0.0397139
0.0450726
0.0504011
0.0555808
0.0604882
0.0650022
0.0690119
0.0724252
0.0751773
0.0772366
0.078609
0.0793387
0.0795044
0.079213
0.0785902
0.0777694
0.0768809
0.0760436
0.0753551
0.0748649
0.00025527
0.000207499
0.000119397
-7.43987e-06
-0.000163701
-0.000342677
-0.000538728
-0.000747446
-0.000965625
-0.00119114
-0.00142278
-0.00166
-0.00190278
-0.00215141
-0.00240634
-0.00266808
-0.00293705
-0.00321355
-0.00349771
-0.00378938
-0.0040882
-0.00439345
-0.00470412
-0.0050188
-0.00533566
-0.0056524
-0.00596616
-0.00627346
-0.00657009
-0.00685097
-0.00711008
-0.00734028
-0.00753314
-0.00767882
-0.00776584
-0.00778095
-0.00770897
-0.00753262
-0.00723242
-0.0067867
-0.00617159
-0.00536122
-0.00432801
-0.00304319
-0.00147751
0.000397757
0.00260958
0.00518162
0.00813233
0.011473
0.0152053
0.0193186
0.0237904
0.0285801
0.0336296
0.0388643
0.0441919
0.0495053
0.054686
0.0596098
0.0641536
0.0682042
0.0716662
0.0744714
0.0765849
0.0780096
0.0787873
0.078995
0.0787384
0.0781415
0.0773352
0.076446
0.0755874
0.0748422
0.07426
0.000357228
0.000293472
0.000194299
6.18619e-05
-9.62524e-05
-0.000274054
-0.000466668
-0.000670357
-0.000882459
-0.00110126
-0.00132583
-0.00155581
-0.00179126
-0.0020325
-0.00227996
-0.00253406
-0.00279519
-0.00306354
-0.00333917
-0.0036219
-0.0039113
-0.00420666
-0.00450699
-0.00481094
-0.00511681
-0.00542243
-0.00572516
-0.0060218
-0.00630845
-0.00658045
-0.00683225
-0.00705723
-0.0072476
-0.00739415
-0.00748615
-0.0075111
-0.00745457
-0.00730002
-0.00702869
-0.00661949
-0.00604903
-0.00529172
-0.00432002
-0.00310495
-0.00161669
0.00017437
0.00229648
0.00477493
0.00763021
0.0108759
0.0145164
0.018544
0.0229385
0.0276623
0.0326603
0.0378599
0.0431702
0.0484849
0.0536851
0.0586454
0.0632404
0.0673531
0.0708842
0.0737608
0.0759435
0.0774313
0.0782629
0.0785133
0.0782866
0.0777059
0.0769007
0.0759953
0.0750994
0.0742847
0.0736025
0.000471688
0.000389722
0.000277412
0.000137636
-2.38985e-05
-0.000201897
-0.000392238
-0.000591855
-0.00079864
-0.00101131
-0.00122925
-0.00145232
-0.0016807
-0.00191476
-0.00215492
-0.00240159
-0.00265509
-0.00291557
-0.00318303
-0.00345725
-0.00373778
-0.00402395
-0.00431481
-0.00460911
-0.00490527
-0.00520134
-0.00549494
-0.00578318
-0.00606254
-0.00632884
-0.00657705
-0.00680116
-0.00699403
-0.00714719
-0.00725066
-0.00729272
-0.00725973
-0.00713588
-0.00690306
-0.00654071
-0.0060258
-0.00533286
-0.00443423
-0.00330046
-0.00190096
-0.000204903
0.00181749
0.00419347
0.00694581
0.0100907
0.0136355
0.0175756
0.0218936
0.026555
0.0315076
0.0366808
0.0419854
0.0473156
0.0525523
0.0575682
0.0622347
0.0664308
0.070052
0.0730198
0.075289
0.0768539
0.0777488
0.078046
0.0778482
0.0772779
0.0764641
0.0755301
0.0745846
0.0736905
0.072903
0.000596927
0.000494773
0.000367497
0.000218822
5.24656e-05
-0.00012696
-0.000316085
-0.000512513
-0.000714704
-0.000921829
-0.00113361
-0.00135013
-0.00157174
-0.00179888
-0.002032
-0.0022715
-0.00251767
-0.00277062
-0.00303033
-0.00329655
-0.00356886
-0.00384661
-0.00412894
-0.00441473
-0.00470258
-0.00499079
-0.00527728
-0.00555951
-0.00583445
-0.0060984
-0.00634694
-0.00657473
-0.00677534
-0.00694109
-0.00706279
-0.00712954
-0.00712847
-0.0070445
-0.00686011
-0.0065552
-0.00610696
-0.00548992
-0.0046761
-0.00363538
-0.00233613
-0.00074612
0.00116627
0.00343046
0.00607182
0.00910942
0.0125536
0.0164033
0.020644
0.0252446
0.0301558
0.0353094
0.0406179
0.0459762
0.0512644
0.0563533
0.0611111
0.0654117
0.0691447
0.0722248
0.0746
0.0762583
0.0772289
0.0775806
0.0774144
0.076852
0.0760232
0.0750516
0.0740468
0.0730658
0.0721698
0.000731188
0.000607109
0.000463254
0.000304293
0.000131867
-5.00865e-05
-0.00023895
-0.000433005
-0.000631288
-0.000833438
-0.00103953
-0.00124992
-0.00146511
-0.00168566
-0.00191206
-0.00214472
-0.00238392
-0.00262976
-0.00288219
-0.00314099
-0.00340577
-0.00367595
-0.00395077
-0.00422928
-0.00451032
-0.00479245
-0.00507394
-0.00535271
-0.00562621
-0.00589133
-0.0061443
-0.0063805
-0.0065943
-0.00677883
-0.00692574
-0.00702497
-0.00706441
-0.00702967
-0.00690379
-0.00666702
-0.00629669
-0.00576714
-0.00504989
-0.00411399
-0.00292655
-0.00145369
0.000338234
0.00248108
0.00500297
0.00792604
0.011264
0.0150192
0.0191805
0.0237202
0.0285923
0.0337311
0.039051
0.0444477
0.0498008
0.0549791
0.0598469
0.0642728
0.0681396
0.0713542
0.0738566
0.075627
0.0766886
0.0771056
0.0769766
0.0764229
0.0755755
0.07456
0.0734888
0.0724153
0.0714087
0.000872711
0.000725184
0.000563327
0.000392853
0.000213252
2.77912e-05
-0.000161672
-0.000354105
-0.000549131
-0.000746868
-0.000947767
-0.00115246
-0.00136164
-0.00157597
-0.00179602
-0.00202223
-0.00225488
-0.00249408
-0.00273979
-0.00299181
-0.00324981
-0.00351332
-0.00378172
-0.00405426
-0.00433003
-0.00460794
-0.00488667
-0.00516461
-0.00543977
-0.0057097
-0.00597133
-0.00622084
-0.00645342
-0.00666308
-0.00684233
-0.00698194
-0.00707058
-0.00709451
-0.00703725
-0.00687933
-0.00659807
-0.0061675
-0.00555849
-0.00473904
-0.00367483
-0.00233016
-0.000669152
0.00134263
0.00373625
0.00653707
0.00976224
0.0134178
0.0174963
0.0219735
0.026807
0.0319339
0.0372707
0.0427142
0.0481438
0.0534261
0.0584217
0.0629933
0.0670161
0.0703882
0.0730404
0.0749439
0.0761142
0.07661
0.0765267
0.0759854
0.0751186
0.0740553
0.0729125
0.0717424
0.0706242
0.00101974
0.000847415
0.000666306
0.00048324
0.000295491
0.000105655
-8.51818e-05
-0.000276682
-0.000469067
-0.000662946
-0.000859153
-0.00105861
-0.00126221
-0.00147075
-0.00168488
-0.00190508
-0.00213166
-0.00236474
-0.00260432
-0.00285026
-0.00310229
-0.00336008
-0.00362319
-0.00389111
-0.00416324
-0.00443886
-0.00471712
-0.00499693
-0.00527695
-0.00555542
-0.00583005
-0.00609784
-0.00635489
-0.00659609
-0.00681486
-0.00700279
-0.00714932
-0.00724131
-0.0072627
-0.00719417
-0.00701294
-0.0066926
-0.0062032
-0.00551154
-0.00458171
-0.00337604
-0.00185629
1.47052e-05
0.00227105
0.00494147
0.00804673
0.0115967
0.0155876
0.0199992
0.0247928
0.0299086
0.0352659
0.0407626
0.0462783
0.0516778
0.0568176
0.0615545
0.0657555
0.0693088
0.0721346
0.0741939
0.0754928
0.0760834
0.0760571
0.0755345
0.0746501
0.0735373
0.0723194
0.0710497
0.0698189
0.0011705
0.000972191
0.000770729
0.000574124
0.000377377
0.000182401
-1.05023e-05
-0.000201702
-0.000392029
-0.000582591
-0.000774616
-0.00096932
-0.00116781
-0.00137103
-0.00157971
-0.00179439
-0.00201541
-0.00224295
-0.00247704
-0.0027176
-0.00296451
-0.00321757
-0.00347656
-0.00374125
-0.00401139
-0.00428669
-0.00456681
-0.00485126
-0.00513938
-0.00543016
-0.00572215
-0.00601326
-0.00630047
-0.00657964
-0.00684506
-0.0070892
-0.00730219
-0.00747144
-0.00758125
-0.00761238
-0.0075418
-0.00734253
-0.00698368
-0.0064307
-0.005646
-0.00458979
-0.00322137
-0.00150078
0.000609212
0.00314077
0.0061184
0.00955587
0.0134533
0.0177948
0.0225455
0.0276493
0.0330284
0.0385828
0.0441923
0.0497201
0.0550192
0.05994
0.0643408
0.0680992
0.0711236
0.0733628
0.0748125
0.0755162
0.0755608
0.0750655
0.0741675
0.0730055
0.0717106
0.070339
0.0689945
0.00132323
0.00109787
0.000875081
0.000664112
0.000457624
0.000256837
6.12497e-05
-0.000130229
-0.000319048
-0.000506821
-0.000695177
-0.000885631
-0.00107951
-0.00127789
-0.00148162
-0.0016913
-0.00190732
-0.00212991
-0.00235917
-0.00259512
-0.00283776
-0.00308709
-0.00334315
-0.00360601
-0.00387583
-0.0041528
-0.00443712
-0.00472898
-0.00502844
-0.00533531
-0.00564903
-0.00596842
-0.00629146
-0.00661492
-0.00693403
-0.00724206
-0.00752984
-0.00778527
-0.00799292
-0.00813352
-0.00818371
-0.00811581
-0.00789786
-0.0074939
-0.00686451
-0.00596773
-0.00476036
-0.00319957
-0.00124498
0.00113905
0.00398088
0.00729826
0.0110954
0.0153608
0.020064
0.025153
0.0305534
0.0361675
0.0418762
0.0475418
0.0530135
0.0581354
0.062757
0.0667444
0.0699927
0.0724375
0.0740618
0.0748994
0.075031
0.0745741
0.0736686
0.0724596
0.0710871
0.069612
0.0681522
0.00147615
0.00122277
0.000977796
0.000751742
0.00053487
0.000327687
0.000128866
-6.34202e-05
-0.000251248
-0.000436745
-0.000621942
-0.000808656
-0.000998429
-0.0011925
-0.00139181
-0.00159703
-0.00180862
-0.00202687
-0.00225196
-0.00248405
-0.00272329
-0.0029699
-0.0032242
-0.00348664
-0.0037578
-0.00403839
-0.00432925
-0.00463125
-0.00494525
-0.00527194
-0.00561167
-0.00596424
-0.00632861
-0.00670253
-0.00708212
-0.00746146
-0.007832
-0.00818212
-0.00849652
-0.00875585
-0.00893629
-0.00900938
-0.008942
-0.00869668
-0.00823211
-0.00750414
-0.00646703
-0.0050751
-0.00328481
-0.00105705
0.00164045
0.00482958
0.00851871
0.0127007
0.0173504
0.02242
0.0278389
0.0335128
0.0393239
0.0451342
0.0507897
0.0561287
0.060991
0.0652307
0.0687289
0.0714057
0.0732302
0.0742244
0.0744614
0.0740563
0.0731516
0.0718991
0.0704496
0.0688697
0.0672928
0.00162745
0.00134518
0.00107725
0.000835486
0.000607675
0.000393588
0.000191049
-2.5259e-06
-0.000189848
-0.000373564
-0.000556105
-0.000739591
-0.00092578
-0.00111606
-0.00131148
-0.0015128
-0.00172053
-0.00193505
-0.00215665
-0.00238561
-0.0026223
-0.00286717
-0.00312087
-0.00338423
-0.00365834
-0.00394447
-0.00424413
-0.00455895
-0.00489062
-0.00524073
-0.00561063
-0.00600111
-0.00641213
-0.0068424
-0.00728896
-0.00774662
-0.00820747
-0.00866021
-0.00908967
-0.00947629
-0.00979573
-0.0100186
-0.0101107
-0.0100328
-0.00974178
-0.00919129
-0.00833305
-0.00711859
-0.00550125
-0.00343851
-0.00089401
0.00215832
0.00573082
0.00982115
0.0144099
0.0194536
0.0248865
0.0306178
0.0365323
0.0424919
0.0483403
0.05391
0.0590315
0.0635463
0.06732
0.0702562
0.0723078
0.0734832
0.0738462
0.0735085
0.0726147
0.0713242
0.0697991
0.0681135
0.0664172
0.00177532
0.00146333
0.00117177
0.000913746
0.000674521
0.000453093
0.000246408
5.11104e-05
-0.000136159
-0.000318566
-0.000498943
-0.000679707
-0.000862828
-0.00104984
-0.00124191
-0.00143986
-0.00164429
-0.00185567
-0.00207442
-0.00230098
-0.00253591
-0.00277997
-0.00303416
-0.00329975
-0.00357835
-0.00387186
-0.00418249
-0.00451268
-0.00486499
-0.005242
-0.00564603
-0.0060789
-0.00654159
-0.00703378
-0.00755337
-0.00809592
-0.00865402
-0.0092167
-0.00976881
-0.0102905
-0.0107568
-0.0111375
-0.0113968
-0.0114943
-0.0113847
-0.0110196
-0.0103481
-0.00931915
-0.00788303
-0.00599392
-0.00361109
-0.000704442
0.0027417
0.00673173
0.0112508
0.0162608
0.0217011
0.0274854
0.0335015
0.0396125
0.0456603
0.0514721
0.0568695
0.0616808
0.0657554
0.0689787
0.0712855
0.0726684
0.0731802
0.0729276
0.0720567
0.070735
0.0691369
0.067345
0.0655265
0.00191787
0.00157543
0.00125961
0.000984856
0.000733811
0.000504668
0.000293465
9.60549e-05
-9.15798e-05
-0.000273125
-0.000451809
-0.000630341
-0.000810895
-0.000995154
-0.00118437
-0.00137947
-0.00158114
-0.00178994
-0.00200643
-0.00223123
-0.00246516
-0.00270927
-0.00296496
-0.00323398
-0.00351851
-0.00382111
-0.00414474
-0.0044927
-0.00486847
-0.00527561
-0.00571748
-0.00619693
-0.00671597
-0.00727522
-0.00787343
-0.00850682
-0.0091685
-0.0098477
-0.0105292
-0.0111929
-0.011813
-0.0123584
-0.012792
-0.0130717
-0.0131504
-0.0129776
-0.0125
-0.0116639
-0.0104167
-0.00870915
-0.00649649
-0.00374521
-0.000436125
0.00344554
0.0078851
0.012852
0.0182912
0.0241218
0.0302354
0.0364971
0.0427481
0.0488109
0.0544985
0.059626
0.0640259
0.067564
0.0701549
0.0717733
0.0724585
0.0723107
0.0714769
0.0701323
0.0684647
0.0665659
0.0646223
0.00205323
0.00167962
0.00133897
0.00104708
0.000783869
0.000546696
0.000330655
0.000130786
-5.75945e-05
-0.000238692
-0.000416129
-0.000592891
-0.000771353
-0.000953331
-0.00114018
-0.00133291
-0.00153229
-0.00173901
-0.00195376
-0.00217738
-0.00241096
-0.00265588
-0.00291398
-0.00318751
-0.00347926
-0.00379251
-0.00413102
-0.00449894
-0.00490075
-0.005341
-0.0058241
-0.00635397
-0.00693361
-0.00756457
-0.00824641
-0.00897599
-0.00974682
-0.0105483
-0.0113651
-0.0121767
-0.0129566
-0.0136725
-0.0142862
-0.014754
-0.0150269
-0.0150524
-0.0147749
-0.0141381
-0.0130865
-0.0115666
-0.00953235
-0.00694742
-0.00378273
-2.11134e-05
0.00432763
0.00924071
0.0146689
0.020537
0.0267415
0.0331506
0.0396054
0.0459251
0.0519145
0.0573759
0.0621241
0.0660042
0.0689086
0.0707917
0.0716769
0.0716557
0.0708749
0.0695172
0.0677847
0.0657787
0.0637067
0.00217945
0.00177399
0.001408
0.0010986
0.000822938
0.000577473
0.000356324
0.000153695
-3.57706e-05
-0.000216799
-0.000393394
-0.000568813
-0.000745614
-0.000925742
-0.00111065
-0.00130141
-0.00149892
-0.00170397
-0.00191742
-0.00214034
-0.0023741
-0.00262048
-0.00288174
-0.00316072
-0.00346083
-0.0037861
-0.00414112
-0.00453098
-0.00496113
-0.00543716
-0.00596454
-0.00654823
-0.00719224
-0.00789901
-0.00866887
-0.00949926
-0.010384
-0.0113127
-0.0122697
-0.0132341
-0.0141786
-0.0150699
-0.0158685
-0.016529
-0.0170009
-0.0172296
-0.0171574
-0.0167256
-0.0158753
-0.0145508
-0.0127046
-0.010293
-0.00728016
-0.00365109
0.000596324
0.00544416
0.0108499
0.0167449
0.0230314
0.0295815
0.0362378
0.0428171
0.0491169
0.0549271
0.0600447
0.064293
0.0675404
0.0697183
0.0708317
0.0709609
0.0702509
0.0688916
0.0670995
0.0649867
0.0627828
0.00229453
0.00185657
0.00146475
0.00113754
0.000849181
0.000595212
0.000368733
0.000163091
-2.77542e-05
-0.000209045
-0.000385157
-0.000559606
-0.000735123
-0.000913766
-0.00109707
-0.00128621
-0.00148216
-0.00168584
-0.00189832
-0.00212089
-0.00235524
-0.00260355
-0.00286858
-0.00315375
-0.00346315
-0.0038016
-0.00417455
-0.00458803
-0.00504851
-0.00556263
-0.00613692
-0.00677739
-0.007489
-0.00827509
-0.00913667
-0.0100717
-0.0110744
-0.0121342
-0.0132354
-0.0143564
-0.0154693
-0.0165396
-0.0175266
-0.0183834
-0.019058
-0.0194937
-0.0196309
-0.0194087
-0.018766
-0.0176448
-0.0159923
-0.0137599
-0.0109105
-0.00742269
-0.00328775
0.00148273
0.00685357
0.0127632
0.0191205
0.0258026
0.0326549
0.0394929
0.0461083
0.052279
0.0577848
0.062426
0.0660454
0.0685489
0.0699199
0.0702252
0.0696059
0.0682579
0.0664127
0.0641935
0.0618543
0.00239643
0.00192533
0.00150722
0.00116192
0.000860677
0.00059804
0.000366059
0.000157201
-3.52661e-05
-0.000217095
-0.000393024
-0.000566811
-0.000741343
-0.000918784
-0.00110075
-0.00128849
-0.00148307
-0.00168558
-0.00189726
-0.00211967
-0.00235485
-0.0026054
-0.00287461
-0.00316651
-0.00348592
-0.00383844
-0.00423044
-0.00466893
-0.00516138
-0.00571551
-0.0063389
-0.00703859
-0.00782048
-0.00868872
-0.00964502
-0.0106878
-0.0118114
-0.0130053
-0.0142536
-0.0155341
-0.0168179
-0.0180698
-0.0192475
-0.0203031
-0.0211826
-0.021828
-0.0221777
-0.0221685
-0.0217374
-0.0208235
-0.0193702
-0.0173255
-0.0146487
-0.0113119
-0.00730074
-0.00262006
0.00270251
0.00861313
0.015028
0.0218307
0.0288702
0.0359626
0.0428949
0.0494346
0.0553442
0.0604009
0.0644203
0.0672802
0.0689397
0.0694484
0.0689412
0.0676192
0.0657284
0.0634041
0.0609261
0.00248305
0.00197818
0.00153334
0.0011697
0.000855418
0.000583998
0.000346395
0.000134172
-6.00973e-05
-0.000242675
-0.000418646
-0.000591996
-0.000765753
-0.00094217
-0.00112293
-0.00130937
-0.00150265
-0.00170402
-0.00191491
-0.00213719
-0.00237325
-0.00262615
-0.00289973
-0.00319867
-0.00352853
-0.00389576
-0.00430764
-0.00477217
-0.00529786
-0.0058935
-0.00656771
-0.00732851
-0.00818274
-0.00913533
-0.0101886
-0.0113412
-0.012588
-0.0139181
-0.0153154
-0.0167569
-0.0182133
-0.0196479
-0.0210177
-0.022273
-0.0233588
-0.0242152
-0.0247791
-0.0249853
-0.0247686
-0.0240655
-0.0228163
-0.020966
-0.0184694
-0.0152929
-0.0114164
-0.00683794
-0.00157738
0.00431959
0.0107773
0.0176865
0.0249015
0.0322403
0.0394871
0.0464001
0.0527257
0.0582178
0.0626636
0.0659106
0.0678899
0.0686309
0.0682592
0.0669793
0.0650518
0.0626241
0.060004
0.00255224
0.00201294
0.00154095
0.00115876
0.000831313
0.000551041
0.00030775
9.2078e-05
-0.000104105
-0.000287562
-0.000463713
-0.000636752
-0.000809829
-0.000985277
-0.00116484
-0.00134992
-0.00154181
-0.00174188
-0.00195182
-0.00217379
-0.00241057
-0.0026657
-0.0029436
-0.00324963
-0.00359012
-0.00397238
-0.00440464
-0.00489589
-0.0054557
-0.00609389
-0.00682012
-0.0076434
-0.00857142
-0.00960983
-0.0107615
-0.0120255
-0.0133965
-0.014864
-0.016411
-0.0180143
-0.0196435
-0.0212611
-0.0228229
-0.024278
-0.0255699
-0.0266375
-0.027416
-0.0278386
-0.027838
-0.0273483
-0.0263069
-0.0246559
-0.0223459
-0.019338
-0.0156064
-0.0111422
-0.00595743
-8.93668e-05
0.00639506
0.0133947
0.0207708
0.0283446
0.0358993
0.0431858
0.0499355
0.0558796
0.0607762
0.0644399
0.0667707
0.0677741
0.0675631
0.0663431
0.0643888
0.0618602
0.0590952
0.00260174
0.00202737
0.00152779
0.00112685
0.000786178
0.000497035
0.000248052
2.89173e-05
-0.000169209
-0.000353584
-0.000529945
-0.000702677
-0.000875039
-0.00104942
-0.00122763
-0.00141114
-0.00160133
-0.00179978
-0.00200839
-0.00222965
-0.00246675
-0.00272375
-0.00300566
-0.00331855
-0.00366956
-0.00406686
-0.00451965
-0.00503793
-0.0056323
-0.00631363
-0.00709259
-0.00797912
-0.00898173
-0.0101068
-0.0113575
-0.0127334
-0.0142292
-0.015834
-0.0175307
-0.0192953
-0.0210965
-0.0228962
-0.0246487
-0.0263023
-0.0277992
-0.0290768
-0.0300691
-0.0307077
-0.0309234
-0.0306483
-0.0298172
-0.0283692
-0.0262508
-0.0234186
-0.0198409
-0.0155021
-0.0104066
-0.0045829
0.00191129
0.00898388
0.0165038
0.0242978
0.03215
0.0398059
0.0469836
0.0533926
0.0587612
0.0628698
0.0655838
0.0668805
0.0668568
0.0657162
0.0637465
0.0611203
0.0582079
0.00262928
0.00201913
0.00149154
0.00107168
0.000717736
0.000419758
0.000165148
-5.73818e-05
-0.000257386
-0.000442605
-0.000619082
-0.000791374
-0.000962828
-0.00113589
-0.0013124
-0.0014939
-0.00168191
-0.00187816
-0.00208483
-0.00230474
-0.00254152
-0.00279976
-0.0030851
-0.00340434
-0.00376543
-0.00417746
-0.00465058
-0.0051958
-0.00582476
-0.00654935
-0.00738122
-0.00833121
-0.00940859
-0.0106203
-0.0119702
-0.0134576
-0.0150776
-0.016819
-0.0186642
-0.0205885
-0.0225601
-0.0245397
-0.0264807
-0.0283304
-0.0300297
-0.0315151
-0.032719
-0.0335719
-0.0340029
-0.0339421
-0.033322
-0.0320789
-0.0301559
-0.0275049
-0.0240888
-0.0198857
-0.0148921
-0.00912791
-0.00264126
0.00448547
0.0121303
0.0201268
0.0282621
0.0362787
0.0438837
0.0507662
0.0566249
0.0612044
0.0643324
0.0659541
0.0661455
0.0651053
0.063133
0.0604134
0.0573516
0.00263246
0.00198582
0.00142977
0.000990833
0.000623613
0.000316896
5.68009e-05
-0.00016896
-0.000370663
-0.000556525
-0.000732879
-0.000904434
-0.00107461
-0.00124589
-0.00142015
-0.00159902
-0.00178411
-0.00197737
-0.00218123
-0.00239889
-0.00263443
-0.002893
-0.0031809
-0.00350567
-0.00387611
-0.00430221
-0.00479508
-0.00536677
-0.00602992
-0.00679742
-0.00768187
-0.00869494
-0.00984666
-0.0111445
-0.0125927
-0.0141906
-0.0159334
-0.0178097
-0.0198013
-0.021883
-0.0240221
-0.0261784
-0.0283046
-0.0303467
-0.0322449
-0.0339343
-0.0353466
-0.0364106
-0.0370544
-0.0372061
-0.0367962
-0.0357586
-0.034033
-0.031567
-0.0283188
-0.02426
-0.0193799
-0.0136896
-0.00722768
-6.6178e-05
0.00768291
0.0158617
0.0242623
0.0326269
0.0406537
0.0480135
0.0543765
0.05945
0.0630216
0.0649999
0.0654355
0.0645184
0.0625574
0.0597497
0.0565371
0.00260882
0.00192491
0.00133994
0.00088178
0.000501333
0.000186041
-7.9307e-05
-0.000308025
-0.000511117
-0.000697273
-0.000873095
-0.00104343
-0.00121176
-0.00138058
-0.00155182
-0.00172715
-0.00190835
-0.00209754
-0.00229747
-0.0025117
-0.00274481
-0.00300251
-0.0032918
-0.00362099
-0.0039997
-0.00443887
-0.00495058
-0.00554787
-0.00624438
-0.00705399
-0.00799018
-0.00906544
-0.0102904
-0.0116732
-0.0132182
-0.0149247
-0.0167883
-0.0187968
-0.0209319
-0.0231676
-0.0254704
-0.0277993
-0.0301063
-0.0323362
-0.0344285
-0.0363173
-0.0379332
-0.0392041
-0.0400566
-0.0404177
-0.0402156
-0.0393822
-0.0378541
-0.0355754
-0.0324994
-0.028592
-0.0238353
-0.0182322
-0.0118115
-0.00463464
0.00319722
0.0115361
0.0201813
0.0288768
0.0373153
0.0451515
0.0520283
0.0576159
0.0616587
0.0640249
0.0647346
0.0639644
0.0620304
0.0591408
0.0557768
0.00255581
0.00183379
0.00121939
0.00074189
0.00034831
2.46852e-05
-0.000245578
-0.00047685
-0.000680871
-0.000866795
-0.00104148
-0.00120991
-0.00137558
-0.00154103
-0.0017082
-0.00187886
-0.00205491
-0.00223869
-0.00243327
-0.00264262
-0.0028718
-0.00312715
-0.00341636
-0.00374851
-0.00413412
-0.00458503
-0.0051143
-0.00573594
-0.0064646
-0.00731505
-0.00830167
-0.00943769
-0.0107344
-0.0122002
-0.0138399
-0.0156525
-0.0176339
-0.0197713
-0.0220461
-0.0244315
-0.0268934
-0.02939
-0.0318723
-0.0342845
-0.036565
-0.0386474
-0.0404611
-0.0419332
-0.0429892
-0.0435547
-0.0435566
-0.0429244
-0.0415924
-0.0395011
-0.0365997
-0.0328488
-0.0282239
-0.0227196
-0.0163554
-0.00918206
-0.0012892
0.00718628
0.0160527
0.0250587
0.0338943
0.042201
0.0495964
0.0557142
0.0602533
0.0630377
0.0640518
0.0634539
0.0615636
0.0585997
0.0550844
0.00247078
0.00170971
0.00106537
0.000568406
0.000161841
-0.000169781
-0.000444498
-0.00067777
-0.000882083
-0.00106705
-0.00123979
-0.00140536
-0.00156733
-0.00172822
-0.00189002
-0.00205456
-0.00222391
-0.00240065
-0.00258817
-0.00279087
-0.00301434
-0.00326556
-0.00355291
-0.0038863
-0.00427711
-0.0047381
-0.00528331
-0.00592771
-0.00668688
-0.00757652
-0.0086118
-0.00980664
-0.0111729
-0.0127194
-0.0144511
-0.0163664
-0.0184621
-0.0207244
-0.0231344
-0.0256646
-0.0282801
-0.0309385
-0.0335899
-0.0361778
-0.0386399
-0.0409088
-0.0429134
-0.0445799
-0.0458329
-0.0465967
-0.046797
-0.0463614
-0.0452221
-0.0433166
-0.0405902
-0.0369988
-0.0325117
-0.0271161
-0.0208221
-0.0136699
-0.00573741
0.00285059
0.0119132
0.0212063
0.03042
0.0391864
0.0471005
0.0537602
0.0588175
0.0620492
0.0633982
0.0629987
0.0611705
0.0581408
0.0544751
0.00235095
0.00154981
0.000874944
0.000358434
-6.09007e-05
-0.000400077
-0.000678643
-0.000913183
-0.00111695
-0.00130002
-0.00146973
-0.00163126
-0.00178818
-0.00194304
-0.00209785
-0.00225454
-0.00241533
-0.00258308
-0.00276153
-0.00295553
-0.00317121
-0.0034162
-0.00369964
-0.00403223
-0.00442624
-0.00489536
-0.00545456
-0.00611977
-0.00690748
-0.00783425
-0.008916
-0.0101673
-0.0116005
-0.0132247
-0.0150454
-0.0170594
-0.0192652
-0.0216477
-0.0241877
-0.026857
-0.02962
-0.0324335
-0.035247
-0.0380033
-0.0406393
-0.043087
-0.0452747
-0.0471276
-0.0485697
-0.0495245
-0.0499161
-0.0496711
-0.0487193
-0.0469959
-0.044443
-0.0410118
-0.0366664
-0.0313869
-0.0251747
-0.0180597
-0.0101079
-0.00143124
0.00780154
0.0173558
0.0269253
0.0361362
0.0445637
0.0517724
0.0573665
0.0610723
0.0627862
0.0626124
0.0608658
0.0577801
0.0539659
0.00219343
0.00135108
0.000645063
0.000108929
-0.00032288
-0.000669039
-0.000950676
-0.00118555
-0.0013877
-0.00156765
-0.00173299
-0.00188898
-0.00203922
-0.00218625
-0.00233214
-0.00247891
-0.00262898
-0.00278549
-0.00295255
-0.00313548
-0.00334099
-0.00357739
-0.00385456
-0.00418405
-0.00457898
-0.00505398
-0.00562493
-0.0063087
-0.00712265
-0.00808413
-0.00920979
-0.0105148
-0.0120118
-0.0137104
-0.0156164
-0.0177246
-0.0200359
-0.0225333
-0.0251976
-0.0279996
-0.0309034
-0.0338647
-0.0368327
-0.0397492
-0.0425508
-0.0451687
-0.0475305
-0.0495611
-0.0511836
-0.0523205
-0.0528953
-0.0528331
-0.0520621
-0.0505154
-0.048132
-0.0448598
-0.0406575
-0.0354991
-0.0293779
-0.0223139
-0.0143612
-0.00561889
0.00375787
0.013546
0.0234461
0.0330817
0.0420128
0.0497728
0.0559179
0.0601223
0.0622306
0.0623101
0.060666
0.0575353
0.0535753
0.0019952
0.00111035
0.000372486
-0.000183316
-0.000627209
-0.000979625
-0.00126336
-0.00149739
-0.00169657
-0.00187191
-0.00203122
-0.00217986
-0.00232143
-0.0024585
-0.00259319
-0.00272765
-0.0028645
-0.00300718
-0.00316022
-0.00332945
-0.00352212
-0.00374729
-0.00401559
-0.00433939
-0.00473271
-0.00521107
-0.00579129
-0.00649108
-0.00732868
-0.00832216
-0.00948884
-0.0108444
-0.0124019
-0.0141711
-0.0161587
-0.0183554
-0.0207672
-0.0233738
-0.0261563
-0.0290843
-0.0321214
-0.0352229
-0.0383369
-0.0414051
-0.0443632
-0.0471419
-0.0496684
-0.0518669
-0.0536599
-0.0549694
-0.0557178
-0.0558293
-0.0552309
-0.0538535
-0.0516341
-0.048517
-0.0444569
-0.0394219
-0.0333981
-0.0263962
-0.018459
-0.0096722
-0.000176936