/*--------------------------------*- C++ -*----------------------------------*\
  =========                 |
  \\      /  F ield         | OpenFOAM: The Open Source CFD Toolbox
   \\    /   O peration     | Website:  https://openfoam.org
    \\  /    A nd           | Version:  12
     \\/     M anipulation  |
\*---------------------------------------------------------------------------*/
FoamFile
{
    format      ascii;
    class       volVectorField;
    location    "10";
    object      U;
}
// * * * * * * * * * * * * * * * * * * * * * * * * * * * * * * * * * * * * * //

dimensions      [0 1 -1 0 0 0 0];

internalField   nonuniform List<vector> 
5625
(
(7.55257e-06 -3.51573e-06 0)
(4.61007e-05 -5.86876e-06 0)
(9.07889e-05 -5.31277e-06 0)
(0.000121327 -3.31025e-06 0)
(0.000127702 -1.01414e-06 0)
(0.000107879 1.23119e-06 0)
(6.29311e-05 3.22195e-06 0)
(-4.52338e-06 4.89674e-06 0)
(-9.13318e-05 6.25582e-06 0)
(-0.000194374 7.33537e-06 0)
(-0.000310893 8.1866e-06 0)
(-0.000438664 8.86668e-06 0)
(-0.000576069 9.43223e-06 0)
(-0.000722093 9.93562e-06 0)
(-0.000876293 1.04232e-05 0)
(-0.00103874 1.09346e-05 0)
(-0.00120995 1.15032e-05 0)
(-0.00139083 1.21563e-05 0)
(-0.0015826 1.29167e-05 0)
(-0.00178675 1.38032e-05 0)
(-0.002005 1.48319e-05 0)
(-0.00223929 1.6017e-05 0)
(-0.0024917 1.73715e-05 0)
(-0.00276447 1.89074e-05 0)
(-0.00305997 2.06364e-05 0)
(-0.00338071 2.25697e-05 0)
(-0.00372927 2.47179e-05 0)
(-0.00410832 2.70904e-05 0)
(-0.00452056 2.96951e-05 0)
(-0.00496871 3.25374e-05 0)
(-0.00545544 3.56195e-05 0)
(-0.0059833 3.89387e-05 0)
(-0.00655464 4.24867e-05 0)
(-0.00717155 4.62473e-05 0)
(-0.00783568 5.01953e-05 0)
(-0.00854815 5.42939e-05 0)
(-0.00930937 5.84931e-05 0)
(-0.0101189 6.27273e-05 0)
(-0.0109751 6.69129e-05 0)
(-0.0118752 7.09465e-05 0)
(-0.0128148 7.47032e-05 0)
(-0.0137878 7.80347e-05 0)
(-0.0147862 8.07691e-05 0)
(-0.0157995 8.27109e-05 0)
(-0.0168152 8.36432e-05 0)
(-0.0178181 8.33312e-05 0)
(-0.0187905 8.15281e-05 0)
(-0.0197121 7.79835e-05 0)
(-0.0205602 7.24564e-05 0)
(-0.0213104 6.47625e-05 0)
(-0.0219353 5.44859e-05 0)
(-0.0224092 4.18428e-05 0)
(-0.022702 2.69373e-05 0)
(-0.0227941 9.07755e-06 0)
(-0.0226567 -1.05457e-05 0)
(-0.0222726 -3.20582e-05 0)
(-0.0216291 -5.47888e-05 0)
(-0.0207211 -7.79435e-05 0)
(-0.0195531 -0.000100584 0)
(-0.0181404 -0.000121639 0)
(-0.0165098 -0.000139962 0)
(-0.0147004 -0.000154416 0)
(-0.0127619 -0.000163974 0)
(-0.0107537 -0.000167822 0)
(-0.00874172 -0.000165457 0)
(-0.00679488 -0.000156768 0)
(-0.00498115 -0.000142057 0)
(-0.00336318 -0.000122027 0)
(-0.00199431 -9.77089e-05 0)
(-0.000915214 -7.03555e-05 0)
(-0.000151208 -4.1377e-05 0)
(0.000290329 -1.24794e-05 0)
(0.000424395 1.45954e-05 0)
(0.000313009 3.39211e-05 0)
(8.20076e-05 3.71889e-05 0)
(1.79426e-05 -2.50241e-05 0)
(0.000107315 -4.35783e-05 0)
(0.000200095 -3.72295e-05 0)
(0.000253276 -1.69778e-05 0)
(0.000243121 8.47428e-06 0)
(0.000163188 3.45489e-05 0)
(1.50324e-05 5.88169e-05 0)
(-0.000195445 8.02234e-05 0)
(-0.000460588 9.84888e-05 0)
(-0.000772512 0.000113795 0)
(-0.00112409 0.000126584 0)
(-0.00150949 0.000137427 0)
(-0.00192438 0.000146933 0)
(-0.00236606 0.000155699 0)
(-0.00283334 0.000164276 0)
(-0.00332642 0.000173155 0)
(-0.00384677 0.000182761 0)
(-0.00439692 0.000193455 0)
(-0.0049803 0.000205543 0)
(-0.00560115 0.000219282 0)
(-0.00626436 0.000234891 0)
(-0.00697535 0.000252559 0)
(-0.00774007 0.000272451 0)
(-0.00856484 0.000294712 0)
(-0.00945637 0.000319469 0)
(-0.0104216 0.000346829 0)
(-0.0114679 0.000376877 0)
(-0.0126024 0.000409671 0)
(-0.0138326 0.00044523 0)
(-0.0151658 0.000483527 0)
(-0.016609 0.000524471 0)
(-0.0181689 0.000567899 0)
(-0.0198512 0.000613553 0)
(-0.021661 0.000661064 0)
(-0.0236016 0.000709933 0)
(-0.0256749 0.000759507 0)
(-0.0278806 0.000808963 0)
(-0.0302155 0.000857283 0)
(-0.0326734 0.000903242 0)
(-0.0352442 0.000945393 0)
(-0.0379135 0.000982054 0)
(-0.040662 0.00101132 0)
(-0.0434646 0.00103105 0)
(-0.0462906 0.00103893 0)
(-0.0491027 0.00103248 0)
(-0.0518573 0.00100913 0)
(-0.0545038 0.00096631 0)
(-0.0569857 0.000901557 0)
(-0.0592407 0.00081266 0)
(-0.0612017 0.000697795 0)
(-0.062797 0.00055535 0)
(-0.0639607 0.000384334 0)
(-0.0646065 0.000189351 0)
(-0.064695 -3.06025e-05 0)
(-0.0641503 -0.000273437 0)
(-0.0629327 -0.000531435 0)
(-0.0610138 -0.000798118 0)
(-0.0583863 -0.00106477 0)
(-0.0550677 -0.00132111 0)
(-0.0511035 -0.00155578 0)
(-0.0465689 -0.00175691 0)
(-0.0415686 -0.00191294 0)
(-0.0362355 -0.00201357 0)
(-0.0307252 -0.00205076 0)
(-0.02521 -0.0020196 0)
(-0.01987 -0.00191905 0)
(-0.0148824 -0.00175234 0)
(-0.010411 -0.00152684 0)
(-0.00659592 -0.0012537 0)
(-0.00354402 -0.000947192 0)
(-0.00132091 -0.000624419 0)
(5.75069e-05 -0.000306547 0)
(0.000637389 -2.30149e-05 0)
(0.000573778 0.000172728 0)
(0.000150448 0.000182388 0)
(2.40912e-05 -5.97846e-05 0)
(0.000140182 -9.74916e-05 0)
(0.000247776 -7.6932e-05 0)
(0.000291109 -2.35082e-05 0)
(0.000237642 4.36474e-05 0)
(7.73078e-05 0.000113225 0)
(-0.000188562 0.000178883 0)
(-0.00055203 0.000237624 0)
(-0.00100223 0.000288477 0)
(-0.00152771 0.000331744 0)
(-0.00211794 0.000368468 0)
(-0.00276419 0.000400077 0)
(-0.00345997 0.000428149 0)
(-0.00420119 0.000454259 0)
(-0.00498608 0.000479881 0)
(-0.00581503 0.000506344 0)
(-0.00669038 0.000534813 0)
(-0.00761616 0.000566285 0)
(-0.00859786 0.000601611 0)
(-0.0096422 0.000641508 0)
(-0.010757 0.00068659 0)
(-0.0119508 0.000737377 0)
(-0.0132331 0.000794321 0)
(-0.0146141 0.000857808 0)
(-0.0161041 0.000928165 0)
(-0.0177144 0.00100565 0)
(-0.0194561 0.00109046 0)
(-0.0213406 0.00118269 0)
(-0.0233794 0.00128231 0)
(-0.0255835 0.00138916 0)
(-0.0279634 0.00150289 0)
(-0.0305287 0.00162293 0)
(-0.0332876 0.00174843 0)
(-0.0362466 0.00187824 0)
(-0.0394098 0.00201082 0)
(-0.0427783 0.00214422 0)
(-0.0463493 0.00227602 0)
(-0.0501157 0.00240326 0)
(-0.0540652 0.00252244 0)
(-0.0581791 0.00262949 0)
(-0.0624318 0.00271973 0)
(-0.0667898 0.00278791 0)
(-0.0712113 0.00282827 0)
(-0.0756449 0.0028346 0)
(-0.08003 0.00280038 0)
(-0.084296 0.00271898 0)
(-0.0883629 0.00258388 0)
(-0.0921418 0.00238899 0)
(-0.0955362 0.00212903 0)
(-0.0984435 0.00179995 0)
(-0.100756 0.00139897 0)
(-0.102375 0.000922703 0)
(-0.103176 0.000387532 0)
(-0.103098 -0.000215503 0)
(-0.102037 -0.000870374 0)
(-0.0999392 -0.00156244 0)
(-0.0967687 -0.00227282 0)
(-0.0925219 -0.00297855 0)
(-0.0872321 -0.00365307 0)
(-0.0809734 -0.00426723 0)
(-0.0738628 -0.00479091 0)
(-0.0660604 -0.00519496 0)
(-0.0577657 -0.00545349 0)
(-0.0492118 -0.00554632 0)
(-0.0406552 -0.00546118 0)
(-0.0323636 -0.0051955 0)
(-0.0246009 -0.00475743 0)
(-0.017612 -0.00416583 0)
(-0.0116069 -0.00344955 0)
(-0.00674637 -0.00264615 0)
(-0.00312869 -0.00180154 0)
(-0.000775777 -0.000972616 0)
(0.000384421 -0.000236901 0)
(0.000572073 0.000281866 0)
(0.000166213 0.000363415 0)
(2.67436e-05 -0.000101861 0)
(0.000148774 -0.000156754 0)
(0.000244289 -0.000111899 0)
(0.0002504 -1.06586e-05 0)
(0.00012943 0.000115495 0)
(-0.000131053 0.000246737 0)
(-0.000529908 0.000371598 0)
(-0.00105778 0.000484304 0)
(-0.00170147 0.000582827 0)
(-0.00244681 0.000667524 0)
(-0.00328065 0.000740184 0)
(-0.004192 0.000803376 0)
(-0.00517266 0.00086 0)
(-0.00621747 0.000912984 0)
(-0.00732426 0.000965106 0)
(-0.00849368 0.00101889 0)
(-0.00972893 0.00107655 0)
(-0.0110354 0.00114002 0)
(-0.0124206 0.00121094 0)
(-0.0138933 0.00129069 0)
(-0.0154642 0.00138046 0)
(-0.0171447 0.00148126 0)
(-0.0189475 0.00159393 0)
(-0.020886 0.00171921 0)
(-0.0229743 0.00185767 0)
(-0.0252269 0.00200978 0)
(-0.0276586 0.00217582 0)
(-0.0302844 0.00235588 0)
(-0.0331188 0.00254982 0)
(-0.0361759 0.00275716 0)
(-0.0394689 0.00297709 0)
(-0.0430093 0.00320832 0)
(-0.0468067 0.00344904 0)
(-0.0508681 0.00369679 0)
(-0.0551966 0.0039484 0)
(-0.0597915 0.00419988 0)
(-0.0646464 0.00444635 0)
(-0.069749 0.00468193 0)
(-0.0750793 0.0048997 0)
(-0.0806091 0.00509171 0)
(-0.086301 0.00524892 0)
(-0.092107 0.0053613 0)
(-0.0979678 0.00541793 0)
(-0.103813 0.00540721 0)
(-0.109559 0.0053171 0)
(-0.115111 0.00513552 0)
(-0.120362 0.0048508 0)
(-0.125197 0.00445229 0)
(-0.129488 0.00393105 0)
(-0.133106 0.00328059 0)
(-0.135913 0.00249757 0)
(-0.137784 0.00158062 0)
(-0.138581 0.000545314 0)
(-0.138202 -0.000600972 0)
(-0.136546 -0.00184085 0)
(-0.133546 -0.00314369 0)
(-0.129165 -0.00447414 0)
(-0.123408 -0.00578977 0)
(-0.116323 -0.00704193 0)
(-0.108012 -0.00817777 0)
(-0.0986258 -0.00914294 0)
(-0.0883698 -0.00988505 0)
(-0.0774967 -0.0103577 0)
(-0.0662998 -0.0105246 0)
(-0.0551015 -0.0103638 0)
(-0.0442379 -0.00987038 0)
(-0.0340416 -0.00905901 0)
(-0.0248219 -0.0079638 0)
(-0.0168456 -0.00663748 0)
(-0.0103181 -0.00514961 0)
(-0.00536541 -0.00358612 0)
(-0.00201643 -0.00205339 0)
(-0.000181695 -0.000692734 0)
(0.000398767 0.000286463 0)
(0.000153855 0.000529562 0)
(2.6922e-05 -0.00014416 0)
(0.0001375 -0.000209164 0)
(0.000198433 -0.000128577 0)
(0.000143662 3.42517e-05 0)
(-6.67697e-05 0.000234532 0)
(-0.0004463 0.000443024 0)
(-0.000993591 0.000642376 0)
(-0.0016981 0.000823511 0)
(-0.00254479 0.00098306 0)
(-0.00351742 0.00112136 0)
(-0.00460078 0.00124105 0)
(-0.00578215 0.00134604 0)
(-0.00705203 0.00144082 0)
(-0.00840447 0.00152998 0)
(-0.0098371 0.00161789 0)
(-0.0113509 0.00170856 0)
(-0.0129499 0.00180556 0)
(-0.0146409 0.00191196 0)
(-0.016433 0.00203041 0)
(-0.0183373 0.00216316 0)
(-0.0203666 0.0023121 0)
(-0.0225354 0.00247886 0)
(-0.0248589 0.00266477 0)
(-0.0273536 0.00287097 0)
(-0.0300368 0.00309835 0)
(-0.0329259 0.00334754 0)
(-0.0360388 0.0036189 0)
(-0.0393933 0.00391243 0)
(-0.0430067 0.00422771 0)
(-0.0468951 0.0045638 0)
(-0.0510735 0.00491912 0)
(-0.0555546 0.00529135 0)
(-0.0603483 0.00567725 0)
(-0.0654608 0.00607258 0)
(-0.0708937 0.00647189 0)
(-0.0766427 0.00686843 0)
(-0.082697 0.007254 0)
(-0.0890377 0.00761888 0)
(-0.0956365 0.00795172 0)
(-0.102455 0.00823954 0)
(-0.109443 0.00846781 0)
(-0.116538 0.0086205 0)
(-0.123664 0.00868038 0)
(-0.130732 0.00862933 0)
(-0.137638 0.00844876 0)
(-0.144265 0.0081203 0)
(-0.150483 0.0076265 0)
(-0.156153 0.00695181 0)
(-0.161125 0.00608358 0)
(-0.165245 0.0050133 0)
(-0.168357 0.00373772 0)
(-0.170314 0.002259 0)
(-0.170968 0.000596774 0)
(-0.170197 -0.00123172 0)
(-0.167897 -0.00319654 0)
(-0.163999 -0.0052511 0)
(-0.158468 -0.00734007 0)
(-0.151319 -0.00939773 0)
(-0.142617 -0.0113495 0)
(-0.132483 -0.0131147 0)
(-0.121098 -0.014611 0)
(-0.108703 -0.015759 0)
(-0.09559 -0.0164883 0)
(-0.0820995 -0.016744 0)
(-0.068604 -0.0164923 0)
(-0.0554928 -0.0157256 0)
(-0.0431525 -0.0144654 0)
(-0.0319442 -0.0127636 0)
(-0.0221817 -0.010701 0)
(-0.0141081 -0.00838558 0)
(-0.00787501 -0.00595152 0)
(-0.00352097 -0.00356445 0)
(-0.000948613 -0.00143915 0)
(0.000119404 0.00012234 0)
(0.000128138 0.00063519 0)
(2.53169e-05 -0.000181506 0)
(0.000110287 -0.000245169 0)
(0.000117522 -0.000115945 0)
(-1.88898e-05 0.000122156 0)
(-0.000338752 0.000410589 0)
(-0.000855246 0.000710367 0)
(-0.00156625 0.000997817 0)
(-0.00245997 0.0012603 0)
(-0.0035198 0.00149292 0)
(-0.0047278 0.00169598 0)
(-0.00606718 0.00187304 0)
(-0.00752388 0.0020295 0)
(-0.00908744 0.00217168 0)
(-0.0107514 0.00230605 0)
(-0.0125133 0.00243887 0)
(-0.0143746 0.00257586 0)
(-0.0163401 0.00272214 0)
(-0.018418 0.00288218 0)
(-0.0206189 0.00305979 0)
(-0.0229559 0.00325824 0)
(-0.0254441 0.00348027 0)
(-0.0281002 0.0037282 0)
(-0.0309421 0.00400395 0)
(-0.0339889 0.00430909 0)
(-0.0372604 0.00464482 0)
(-0.0407769 0.00501192 0)
(-0.0445586 0.00541075 0)
(-0.0486256 0.00584111 0)
(-0.0529971 0.00630212 0)
(-0.0576909 0.00679214 0)
(-0.0627227 0.00730854 0)
(-0.0681056 0.00784756 0)
(-0.0738489 0.00840412 0)
(-0.079957 0.0089716 0)
(-0.0864287 0.00954166 0)
(-0.0932557 0.0101041 0)
(-0.100421 0.0106465 0)
(-0.107899 0.0111545 0)
(-0.115653 0.0116114 0)
(-0.123632 0.0119982 0)
(-0.131774 0.0122939 0)
(-0.140002 0.0124755 0)
(-0.148225 0.0125186 0)
(-0.156335 0.0123978 0)
(-0.16421 0.0120873 0)
(-0.171715 0.0115621 0)
(-0.178701 0.0107988 0)
(-0.185008 0.00977702 0)
(-0.190469 0.00848086 0)
(-0.194914 0.00690057 0)
(-0.198172 0.00503419 0)
(-0.200082 0.00288881 0)
(-0.200491 0.000489204 0)
(-0.199267 -0.0021353 0)
(-0.196305 -0.00493946 0)
(-0.191538 -0.00785886 0)
(-0.184938 -0.0108159 0)
(-0.176527 -0.0137189 0)
(-0.166383 -0.016465 0)
(-0.154647 -0.0189432 0)
(-0.141521 -0.0210403 0)
(-0.12727 -0.0226477 0)
(-0.112217 -0.0236686 0)
(-0.0967365 -0.0240274 0)
(-0.0812392 -0.0236768 0)
(-0.0661555 -0.0226052 0)
(-0.0519145 -0.0208414 0)
(-0.0389201 -0.0184559 0)
(-0.0275255 -0.0155606 0)
(-0.0180078 -0.0123062 0)
(-0.0105434 -0.00888114 0)
(-0.00518441 -0.00551708 0)
(-0.00183532 -0.00250771 0)
(-0.00021999 -0.00024903 0)
(9.65827e-05 0.000656577 0)
(2.24339e-05 -0.000210101 0)
(7.03773e-05 -0.000257127 0)
(7.57517e-06 -6.47537e-05 0)
(-0.000228801 0.000262651 0)
(-0.000676278 0.000652797 0)
(-0.00134659 0.00105691 0)
(-0.00223614 0.00144491 0)
(-0.00333165 0.00180047 0)
(-0.004615 0.00211716 0)
(-0.0060668 0.00239523 0)
(-0.00766898 0.00263926 0)
(-0.00940645 0.00285633 0)
(-0.0112681 0.00305473 0)
(-0.0132471 0.00324306 0)
(-0.0153411 0.00342963 0)
(-0.0175521 0.00362213 0)
(-0.0198859 0.00382742 0)
(-0.0223516 0.0040515 0)
(-0.0249615 0.00429955 0)
(-0.0277305 0.00457594 0)
(-0.0306756 0.0048844 0)
(-0.0338156 0.00522801 0)
(-0.0371708 0.00560932 0)
(-0.0407624 0.00603035 0)
(-0.0446127 0.00649257 0)
(-0.0487438 0.00699689 0)
(-0.0531782 0.00754354 0)
(-0.0579375 0.00813196 0)
(-0.0630422 0.00876065 0)
(-0.068511 0.00942696 0)
(-0.0743598 0.0101269 0)
(-0.080601 0.0108548 0)
(-0.0872423 0.0116034 0)
(-0.0942858 0.0123629 0)
(-0.101727 0.0131217 0)
(-0.109551 0.0138653 0)
(-0.117736 0.0145764 0)
(-0.126248 0.0152351 0)
(-0.135039 0.0158185 0)
(-0.14405 0.0163008 0)
(-0.153206 0.0166538 0)
(-0.162415 0.0168468 0)
(-0.17157 0.0168476 0)
(-0.180551 0.0166231 0)
(-0.189218 0.0161401 0)
(-0.197419 0.0153668 0)
(-0.204992 0.0142741 0)
(-0.211761 0.0128373 0)
(-0.217546 0.011038 0)
(-0.222167 0.00886628 0)
(-0.225443 0.00632259 0)
(-0.227207 0.00342001 0)
(-0.227302 0.000190302 0)
(-0.225594 -0.00332367 0)
(-0.221982 -0.00705988 0)
(-0.2164 -0.0109345 0)
(-0.208827 -0.0148461 0)
(-0.199293 -0.0186759 0)
(-0.187887 -0.0222908 0)
(-0.17476 -0.0255483 0)
(-0.16013 -0.028303 0)
(-0.144279 -0.0304148 0)
(-0.127551 -0.0317592 0)
(-0.110345 -0.0322375 0)
(-0.0930977 -0.0317874 0)
(-0.0762727 -0.0303922 0)
(-0.0603334 -0.0280867 0)
(-0.0457195 -0.0249609 0)
(-0.0328194 -0.0211589 0)
(-0.0219418 -0.0168773 0)
(-0.013289 -0.0123629 0)
(-0.00693142 -0.00791766 0)
(-0.00278438 -0.00391691 0)
(-0.000587887 -0.000848502 0)
(6.35484e-05 0.000583203 0)
(1.86537e-05 -0.000226986 0)
(2.03421e-05 -0.000238662 0)
(-0.000126508 3.30357e-05 0)
(-0.000479077 0.00046434 0)
(-0.00107073 0.000969571 0)
(-0.0019106 0.0014904 0)
(-0.00299291 0.00199045 0)
(-0.00430253 0.00244982 0)
(-0.00581975 0.00286058 0)
(-0.00752382 0.00322304 0)
(-0.0093956 0.00354291 0)
(-0.0114192 0.00382908 0)
(-0.013583 0.00409201 0)
(-0.0158801 0.00434259 0)
(-0.0183084 0.00459139 0)
(-0.0208704 0.00484821 0)
(-0.0235727 0.00512184 0)
(-0.0264257 0.00541997 0)
(-0.029443 0.00574923 0)
(-0.0326412 0.00611526 0)
(-0.036039 0.00652279 0)
(-0.0396571 0.00697575 0)
(-0.0435177 0.00747733 0)
(-0.047644 0.00802999 0)
(-0.0520599 0.00863545 0)
(-0.0567896 0.00929463 0)
(-0.0618567 0.0100075 0)
(-0.067284 0.010773 0)
(-0.0730928 0.0115888 0)
(-0.0793017 0.0124508 0)
(-0.0859263 0.0133534 0)
(-0.0929774 0.0142887 0)
(-0.100461 0.0152464 0)
(-0.108375 0.0162135 0)
(-0.11671 0.017174 0)
(-0.125448 0.0181087 0)
(-0.134557 0.0189947 0)
(-0.143997 0.0198059 0)
(-0.153709 0.0205124 0)
(-0.163623 0.021081 0)
(-0.173652 0.0214757 0)
(-0.183693 0.0216576 0)
(-0.193625 0.0215865 0)
(-0.203314 0.0212213 0)
(-0.212606 0.0205216 0)
(-0.221339 0.0194491 0)
(-0.229337 0.0179695 0)
(-0.236415 0.0160545 0)
(-0.242386 0.0136842 0)
(-0.247062 0.0108495 0)
(-0.250259 0.00755446 0)
(-0.251808 0.00381906 0)
(-0.251552 -0.00031624 0)
(-0.249361 -0.00479432 0)
(-0.245135 -0.00953559 0)
(-0.238813 -0.0144358 0)
(-0.230379 -0.0193691 0)
(-0.219869 -0.024189 0)
(-0.207378 -0.0287318 0)
(-0.193064 -0.0328225 0)
(-0.177152 -0.0362824 0)
(-0.159933 -0.0389392 0)
(-0.141764 -0.0406384 0)
(-0.123059 -0.041257 0)
(-0.104277 -0.0407155 0)
(-0.0859041 -0.0389898 0)
(-0.068433 -0.0361199 0)
(-0.0523351 -0.0322141 0)
(-0.0380313 -0.0274499 0)
(-0.0258618 -0.022071 0)
(-0.0160568 -0.0163854 0)
(-0.00871039 -0.0107677 0)
(-0.00375682 -0.00567598 0)
(-0.000963645 -0.0016858 0)
(3.1661e-05 0.000411567 0)
(1.42483e-05 -0.000229814 0)
(-3.78295e-05 -0.000184392 0)
(-0.000280788 0.000184478 0)
(-0.000763955 0.000734968 0)
(-0.00151485 0.00136865 0)
(-0.00253893 0.0020181 0)
(-0.00382745 0.00264097 0)
(-0.00536304 0.00321398 0)
(-0.0071242 0.00372788 0)
(-0.00908883 0.00418322 0)
(-0.0112368 0.00458699 0)
(-0.0135516 0.00495006 0)
(-0.0160212 0.0052852 0)
(-0.0186389 0.00560578 0)
(-0.0214027 0.00592478 0)
(-0.0243158 0.00625425 0)
(-0.0273857 0.00660505 0)
(-0.0306239 0.00698667 0)
(-0.0340453 0.0074073 0)
(-0.0376678 0.00787392 0)
(-0.0415118 0.00839232 0)
(-0.0455995 0.00896732 0)
(-0.0499548 0.00960273 0)
(-0.0546024 0.0103014 0)
(-0.0595677 0.0110653 0)
(-0.0648759 0.0118952 0)
(-0.0705519 0.0127907 0)
(-0.0766189 0.0137499 0)
(-0.0830982 0.0147694 0)
(-0.0900081 0.0158436 0)
(-0.0973626 0.0169646 0)
(-0.105171 0.0181219 0)
(-0.113435 0.0193019 0)
(-0.122151 0.0204875 0)
(-0.131302 0.021658 0)
(-0.140865 0.0227886 0)
(-0.150801 0.0238506 0)
(-0.161059 0.0248106 0)
(-0.171574 0.0256315 0)
(-0.182264 0.0262723 0)
(-0.19303 0.0266884 0)
(-0.203759 0.026833 0)
(-0.214319 0.0266576 0)
(-0.224562 0.0261133 0)
(-0.234329 0.0251528 0)
(-0.243444 0.0237319 0)
(-0.251726 0.021812 0)
(-0.258984 0.019362 0)
(-0.265026 0.0163615 0)
(-0.269664 0.0128032 0)
(-0.272714 0.00869593 0)
(-0.274008 0.00406722 0)
(-0.273393 -0.00103256 0)
(-0.270743 -0.00653182 0)
(-0.265961 -0.0123332 0)
(-0.258992 -0.0183119 0)
(-0.249822 -0.0243176 0)
(-0.23849 -0.0301763 0)
(-0.22509 -0.0356939 0)
(-0.209783 -0.0406627 0)
(-0.192795 -0.0448703 0)
(-0.174419 -0.0481108 0)
(-0.155017 -0.0501987 0)
(-0.135012 -0.050984 0)
(-0.114877 -0.0503679 0)
(-0.0951167 -0.0483168 0)
(-0.0762498 -0.0448733 0)
(-0.0587763 -0.040163 0)
(-0.0431491 -0.034396 0)
(-0.029741 -0.0278642 0)
(-0.0188133 -0.0209376 0)
(-0.0104886 -0.0140654 0)
(-0.00472797 -0.00778776 0)
(-0.0013348 -0.00276344 0)
(2.34692e-06 0.000142319 0)
(9.39796e-06 -0.000216712 0)
(-0.000102623 -8.97557e-05 0)
(-0.000452122 0.000395768 0)
(-0.0010787 0.00108151 0)
(-0.00200253 0.00185715 0)
(-0.00322434 0.0026468 0)
(-0.00473172 0.0034026 0)
(-0.00650452 0.00409828 0)
(-0.00851923 0.00472355 0)
(-0.0107523 0.0052794 0)
(-0.0131827 0.00577433 0)
(-0.0157932 0.00622133 0)
(-0.0185718 0.00663569 0)
(-0.0215116 0.00703336 0)
(-0.0246114 0.0074299 0)
(-0.0278747 0.00783974 0)
(-0.0313099 0.00827589 0)
(-0.0349295 0.00874976 0)
(-0.0387496 0.00927119 0)
(-0.0427895 0.00984849 0)
(-0.0470707 0.0104886 0)
(-0.0516169 0.0111972 0)
(-0.0564532 0.0119787 0)
(-0.0616056 0.0128364 0)
(-0.0671005 0.0137722 0)
(-0.072964 0.0147867 0)
(-0.0792212 0.015879 0)
(-0.0858955 0.0170461 0)
(-0.0930076 0.0182833 0)
(-0.100575 0.0195829 0)
(-0.108609 0.0209347 0)
(-0.117117 0.0223249 0)
(-0.126097 0.0237361 0)
(-0.13554 0.0251468 0)
(-0.145426 0.0265309 0)
(-0.155722 0.0278577 0)
(-0.166384 0.0290917 0)
(-0.177352 0.0301923 0)
(-0.188551 0.0311144 0)
(-0.19989 0.0318089 0)
(-0.211261 0.032223 0)
(-0.22254 0.0323015 0)
(-0.233586 0.0319878 0)
(-0.244244 0.031226 0)
(-0.254346 0.0299623 0)
(-0.263712 0.0281474 0)
(-0.272156 0.0257391 0)
(-0.279486 0.0227048 0)
(-0.285511 0.0190246 0)
(-0.290044 0.0146938 0)
(-0.292904 0.00972675 0)
(-0.293929 0.00415911 0)
(-0.292971 -0.00194833 0)
(-0.289908 -0.00850966 0)
(-0.284649 -0.0154102 0)
(-0.277139 -0.0225051 0)
(-0.267366 -0.0296204 0)
(-0.255366 -0.0365551 0)
(-0.241233 -0.0430855 0)
(-0.225119 -0.0489715 0)
(-0.207247 -0.0539665 0)
(-0.187906 -0.0578304 0)
(-0.167457 -0.0603447 0)
(-0.146325 -0.0613304 0)
(-0.124993 -0.0606662 0)
(-0.10398 -0.058306 0)
(-0.0838281 -0.0542923 0)
(-0.065065 -0.0487659 0)
(-0.0481763 -0.0419681 0)
(-0.0335696 -0.0342386 0)
(-0.0215412 -0.0260106 0)
(-0.0122481 -0.0178076 0)
(-0.00568405 -0.0102512 0)
(-0.00169484 -0.00407961 0)
(-2.38242e-05 -0.00022151 0)
(4.22701e-06 -0.000186166 0)
(-0.000172894 4.91417e-05 0)
(-0.000638016 0.000672358 0)
(-0.00141944 0.00151023 0)
(-0.00252862 0.00244158 0)
(-0.00396063 0.00338279 0)
(-0.00569859 0.00428114 0)
(-0.00771913 0.00510781 0)
(-0.00999641 0.00585185 0)
(-0.0125053 0.006515 0)
(-0.0152237 0.00710748 0)
(-0.018134 0.00764465 0)
(-0.0212238 0.00814445 0)
(-0.0244867 0.0086256 0)
(-0.0279216 0.0091063 0)
(-0.0315328 0.0096035 0)
(-0.0353295 0.0101325 0)
(-0.0393251 0.0107066 0)
(-0.0435368 0.0113373 0)
(-0.0479848 0.0120344 0)
(-0.0526919 0.012806 0)
(-0.0576829 0.0136586 0)
(-0.0629838 0.0145971 0)
(-0.0686214 0.0156251 0)
(-0.0746228 0.0167445 0)
(-0.0810144 0.0179555 0)
(-0.0878213 0.0192564 0)
(-0.0950664 0.0206431 0)
(-0.102769 0.0221089 0)
(-0.110946 0.0236442 0)
(-0.119605 0.0252356 0)
(-0.128751 0.0268659 0)
(-0.138378 0.0285134 0)
(-0.148472 0.0301516 0)
(-0.159006 0.0317486 0)
(-0.169942 0.0332674 0)
(-0.181228 0.0346652 0)
(-0.192795 0.0358938 0)
(-0.204561 0.0369003 0)
(-0.216426 0.0376271 0)
(-0.228274 0.0380132 0)
(-0.239972 0.0379952 0)
(-0.251374 0.0375094 0)
(-0.262317 0.0364929 0)
(-0.272631 0.0348864 0)
(-0.282133 0.0326366 0)
(-0.290636 0.0296987 0)
(-0.297952 0.0260395 0)
(-0.303892 0.0216402 0)
(-0.308275 0.0165 0)
(-0.310927 0.0106389 0)
(-0.31169 0.00410091 0)
(-0.310424 -0.00304268 0)
(-0.307013 -0.0106924 0)
(-0.301367 -0.0187171 0)
(-0.293433 -0.026953 0)
(-0.283196 -0.0352038 0)
(-0.270686 -0.043243 0)
(-0.255989 -0.0508179 0)
(-0.239248 -0.0576567 0)
(-0.220672 -0.0634786 0)
(-0.200544 -0.0680081 0)
(-0.179215 -0.070992 0)
(-0.15711 -0.0722195 0)
(-0.134714 -0.0715437 0)
(-0.112563 -0.0689019 0)
(-0.0912156 -0.0643333 0)
(-0.0712304 -0.0579905 0)
(-0.0531267 -0.0501442 0)
(-0.0373501 -0.0411813 0)
(-0.0242365 -0.0315973 0)
(-0.0139821 -0.0219908 0)
(-0.00661948 -0.0130636 0)
(-0.00204132 -0.00563012 0)
(-4.68609e-05 -0.000675838 0)
(-1.18519e-06 -0.000136919 0)
(-0.000247782 0.000235652 0)
(-0.000836493 0.00101907 0)
(-0.00178297 0.00202678 0)
(-0.00308877 0.00312785 0)
(-0.00474238 0.00423187 0)
(-0.00672176 0.00528193 0)
(-0.00899977 0.00624726 0)
(-0.0115479 0.0071167 0)
(-0.0143393 0.0078931 0)
(-0.0173507 0.0085887 0)
(-0.0205639 0.00922143 0)
(-0.0239666 0.00981208 0)
(-0.0275523 0.0103823 0)
(-0.0313204 0.0109529 0)
(-0.035276 0.0115437 0)
(-0.0394288 0.012172 0)
(-0.0437933 0.0128534 0)
(-0.0483873 0.013601 0)
(-0.0532322 0.0144261 0)
(-0.0583515 0.0153377 0)
(-0.0637708 0.0163431 0)
(-0.0695169 0.017448 0)
(-0.075617 0.0186559 0)
(-0.0820985 0.0199687 0)
(-0.0889877 0.0213859 0)
(-0.0963091 0.0229049 0)
(-0.104085 0.0245201 0)
(-0.112333 0.0262229 0)
(-0.121067 0.0280008 0)
(-0.130293 0.0298373 0)
(-0.140012 0.0317113 0)
(-0.150213 0.0335963 0)
(-0.160877 0.0354604 0)
(-0.171972 0.0372657 0)
(-0.183452 0.0389682 0)
(-0.195258 0.0405178 0)
(-0.207316 0.0418587 0)
(-0.219534 0.0429297 0)
(-0.231805 0.0436649 0)
(-0.244007 0.0439956 0)
(-0.256001 0.0438508 0)
(-0.267636 0.0431598 0)
(-0.278748 0.041854 0)
(-0.289164 0.0398695 0)
(-0.298703 0.0371498 0)
(-0.307182 0.0336485 0)
(-0.314417 0.0293327 0)
(-0.320226 0.0241859 0)
(-0.324434 0.0182112 0)
(-0.326877 0.0114346 0)
(-0.327404 0.00390829 0)
(-0.325883 -0.0042865 0)
(-0.322199 -0.0130377 0)
(-0.316268 -0.0221995 0)
(-0.308032 -0.0315904 0)
(-0.297472 -0.0409935 0)
(-0.284608 -0.0501586 0)
(-0.269513 -0.0588053 0)
(-0.252314 -0.0666308 0)
(-0.233206 -0.0733202 0)
(-0.212454 -0.0785615 0)
(-0.190399 -0.0820646 0)
(-0.167459 -0.083584 0)
(-0.144119 -0.0829429 0)
(-0.120926 -0.0800581 0)
(-0.0984595 -0.0749608 0)
(-0.0773056 -0.0678119 0)
(-0.0580213 -0.0589088 0)
(-0.041094 -0.0486834 0)
(-0.0269036 -0.0376936 0)
(-0.0156917 -0.0266125 0)
(-0.0075344 -0.0162217 0)
(-0.00237464 -0.00741016 0)
(-6.71325e-05 -0.00121651 0)
(-6.78989e-06 -6.79064e-05 0)
(-0.000326645 0.000472699 0)
(-0.00104599 0.00144018 0)
(-0.00216668 0.00263625 0)
(-0.00367931 0.00392139 0)
(-0.00556491 0.00519936 0)
(-0.0077956 0.0064099 0)
(-0.01034 0.00752094 0)
(-0.0131664 0.00852165 0)
(-0.0162462 0.00941642 0)
(-0.0195547 0.0102198 0)
(-0.0230733 0.0109526 0)
(-0.0267894 0.0116387 0)
(-0.0306967 0.0123025 0)
(-0.034795 0.0129682 0)
(-0.03909 0.0136577 0)
(-0.0435921 0.0143911 0)
(-0.0483164 0.0151858 0)
(-0.0532817 0.0160568 0)
(-0.0585099 0.0170165 0)
(-0.0640252 0.0180753 0)
(-0.0698539 0.0192412 0)
(-0.0760229 0.0205202 0)
(-0.0825597 0.0219159 0)
(-0.0894916 0.0234298 0)
(-0.0968443 0.0250608 0)
(-0.104642 0.0268049 0)
(-0.112904 0.0286549 0)
(-0.121648 0.0305997 0)
(-0.130883 0.0326242 0)
(-0.140615 0.034708 0)
(-0.150837 0.0368257 0)
(-0.161537 0.0389458 0)
(-0.172689 0.0410306 0)
(-0.184254 0.0430358 0)
(-0.196182 0.0449104 0)
(-0.208407 0.0465967 0)
(-0.220846 0.0480312 0)
(-0.233404 0.0491445 0)
(-0.245966 0.0498632 0)
(-0.258406 0.0501107 0)
(-0.270581 0.0498094 0)
(-0.282339 0.0488824 0)
(-0.293515 0.0472563 0)
(-0.303938 0.0448635 0)
(-0.313432 0.0416454 0)
(-0.321819 0.0375552 0)
(-0.328923 0.0325608 0)
(-0.33457 0.0266485 0)
(-0.338596 0.0198257 0)
(-0.340846 0.0121244 0)
(-0.341177 0.00360418 0)
(-0.339462 -0.00564465 0)
(-0.335592 -0.015499 0)
(-0.329482 -0.0258 0)
(-0.321069 -0.0363506 0)
(-0.310326 -0.0469156 0)
(-0.297261 -0.0572225 0)
(-0.281927 -0.0669653 0)
(-0.264435 -0.0758108 0)
(-0.244956 -0.0834102 0)
(-0.223735 -0.0894139 0)
(-0.201097 -0.0934927 0)
(-0.177448 -0.0953627 0)
(-0.153274 -0.0948131 0)
(-0.129125 -0.0917348 0)
(-0.105603 -0.086146 0)
(-0.0833245 -0.0782112 0)
(-0.0628848 -0.0682508 0)
(-0.044818 -0.0567399 0)
(-0.0295537 -0.0442976 0)
(-0.0173837 -0.0316714 0)
(-0.0084329 -0.019723 0)
(-0.00269707 -0.00941544 0)
(-8.51834e-05 -0.00183985 0)
(-1.25584e-05 2.17942e-05 0)
(-0.000409001 0.000762864 0)
(-0.00126526 0.00193953 0)
(-0.00256841 0.00334322 0)
(-0.0042971 0.00482708 0)
(-0.00642414 0.00629009 0)
(-0.00891511 0.00766952 0)
(-0.0117338 0.00893273 0)
(-0.0148453 0.0100699 0)
(-0.0182184 0.0110873 0)
(-0.0218274 0.0120023 0)
(-0.0256528 0.0128388 0)
(-0.0296817 0.0136238 0)
(-0.0339082 0.0143851 0)
(-0.0383324 0.0151496 0)
(-0.0429604 0.0159422 0)
(-0.0478033 0.0167853 0)
(-0.0528767 0.0176982 0)
(-0.0582001 0.0186978 0)
(-0.0637959 0.0197978 0)
(-0.0696888 0.0210096 0)
(-0.0759051 0.0223419 0)
(-0.082472 0.0238009 0)
(-0.0894169 0.0253903 0)
(-0.0967665 0.027111 0)
(-0.104546 0.0289609 0)
(-0.112777 0.0309347 0)
(-0.121479 0.0330231 0)
(-0.130665 0.0352124 0)
(-0.140344 0.0374842 0)
(-0.150515 0.0398142 0)
(-0.16117 0.0421723 0)
(-0.17229 0.0445217 0)
(-0.183845 0.0468187 0)
(-0.195791 0.0490122 0)
(-0.20807 0.0510442 0)
(-0.220611 0.0528495 0)
(-0.233327 0.0543567 0)
(-0.246115 0.055489 0)
(-0.258859 0.0561655 0)
(-0.271428 0.0563027 0)
(-0.283679 0.0558169 0)
(-0.295459 0.0546262 0)
(-0.306607 0.0526531 0)
(-0.316956 0.0498276 0)
(-0.326336 0.0460898 0)
(-0.334578 0.0413933 0)
(-0.341515 0.0357077 0)
(-0.346985 0.0290224 0)
(-0.350835 0.0213491 0)
(-0.352918 0.0127251 0)
(-0.353101 0.00321663 0)
(-0.351262 -0.0070782 0)
(-0.347296 -0.0180271 0)
(-0.341114 -0.0294603 0)
(-0.332649 -0.0411676 0)
(-0.321861 -0.0528975 0)
(-0.308741 -0.0643579 0)
(-0.293324 -0.0752186 0)
(-0.275693 -0.0851175 0)
(-0.255997 -0.0936715 0)
(-0.234456 -0.100493 0)
(-0.211371 -0.105211 0)
(-0.187135 -0.107499 0)
(-0.162227 -0.107108 0)
(-0.137204 -0.103896 0)
(-0.112685 -0.0978639 0)
(-0.0893181 -0.0891731 0)
(-0.0677424 -0.0781629 0)
(-0.0485418 -0.0653488 0)
(-0.0322011 -0.05141 0)
(-0.0190683 -0.0371685 0)
(-0.00932155 -0.0235667 0)
(-0.00301193 -0.0116429 0)
(-0.000101635 -0.00254306 0)
(-1.84748e-05 0.000133002 0)
(-0.000494488 0.00110845 0)
(-0.00149331 0.00252055 0)
(-0.00298637 0.00415185 0)
(-0.00493949 0.00584938 0)
(-0.00731648 0.00750843 0)
(-0.0100758 0.00906478 0)
(-0.0131759 0.0104861 0)
(-0.0165781 0.011764 0)
(-0.0202487 0.0129075 0)
(-0.0241605 0.013937 0)
(-0.0282931 0.0148798 0)
(-0.0326334 0.0157664 0)
(-0.0371756 0.0166279 0)
(-0.0419199 0.0174942 0)
(-0.046873 0.0183931 0)
(-0.0520465 0.0193493 0)
(-0.0574566 0.0203842 0)
(-0.0631229 0.0215164 0)
(-0.0690684 0.0227608 0)
(-0.0753179 0.0241299 0)
(-0.0818978 0.0256328 0)
(-0.088835 0.0272761 0)
(-0.0961564 0.0290631 0)
(-0.103888 0.030994 0)
(-0.112053 0.0330658 0)
(-0.120673 0.0352713 0)
(-0.129764 0.0375989 0)
(-0.139337 0.0400322 0)
(-0.149398 0.0425491 0)
(-0.159941 0.0451211 0)
(-0.170956 0.0477132 0)
(-0.182417 0.050283 0)
(-0.194289 0.0527805 0)
(-0.206524 0.055148 0)
(-0.219059 0.0573203 0)
(-0.231817 0.0592248 0)
(-0.244706 0.0607827 0)
(-0.257622 0.06191 0)
(-0.270443 0.062519 0)
(-0.28304 0.0625201 0)
(-0.29527 0.0618243 0)
(-0.306982 0.0603457 0)
(-0.318021 0.0580039 0)
(-0.328226 0.0547274 0)
(-0.337436 0.050456 0)
(-0.345493 0.0451443 0)
(-0.352241 0.0387643 0)
(-0.357531 0.0313083 0)
(-0.361219 0.0227921 0)
(-0.36317 0.0132577 0)
(-0.363259 0.00277669 0)
(-0.361369 -0.00854649 0)
(-0.357396 -0.0205724 0)
(-0.351249 -0.0331229 0)
(-0.342851 -0.0459768 0)
(-0.332149 -0.0588693 0)
(-0.319116 -0.071491 0)
(-0.303761 -0.0834893 0)
(-0.286143 -0.0944747 0)
(-0.266379 -0.10403 0)
(-0.244659 -0.111729 0)
(-0.22126 -0.117156 0)
(-0.196555 -0.119938 0)
(-0.171012 -0.119782 0)
(-0.145193 -0.116509 0)
(-0.119733 -0.110092 0)
(-0.0953136 -0.100685 0)
(-0.0726178 -0.0886401 0)
(-0.0522855 -0.0745105 0)
(-0.0348622 -0.0590337 0)
(-0.0207576 -0.0431066 0)
(-0.0102083 -0.0277536 0)
(-0.0033231 -0.0140912 0)
(-0.000117112 -0.00332451 0)
(-2.45315e-05 0.000266459 0)
(-0.000582834 0.00151156 0)
(-0.00172936 0.00318637 0)
(-0.00341908 0.00506588 0)
(-0.00560419 0.00699227 0)
(-0.00823881 0.0088583 0)
(-0.0112736 0.0105993 0)
(-0.0146613 0.0121839 0)
(-0.018359 0.0136063 0)
(-0.0223303 0.0148785 0)
(-0.0265462 0.0160245 0)
(-0.0309854 0.0170753 0)