/*--------------------------------*- C++ -*----------------------------------*\
  =========                 |
  \\      /  F ield         | OpenFOAM: The Open Source CFD Toolbox
   \\    /   O peration     | Website:  https://openfoam.org
    \\  /    A nd           | Version:  12
     \\/     M anipulation  |
\*---------------------------------------------------------------------------*/
FoamFile
{
    format      ascii;
    class       volScalarField;
    location    "9.5";
    object      nut;
}
// * * * * * * * * * * * * * * * * * * * * * * * * * * * * * * * * * * * * * //

dimensions      [0 2 -1 0 0 0 0];

internalField   nonuniform List<scalar> 
18225
(
1.06024e-14
7.17551e-14
1.59961e-13
2.65361e-13
3.8341e-13
5.11222e-13
6.46627e-13
7.87826e-13
9.33251e-13
1.0815e-12
1.23134e-12
1.38167e-12
1.53158e-12
1.68035e-12
1.82748e-12
1.97273e-12
2.1161e-12
2.25792e-12
2.39879e-12
2.53965e-12
2.68179e-12
2.82683e-12
2.97677e-12
3.13397e-12
3.30119e-12
3.48159e-12
3.67877e-12
3.89675e-12
4.14003e-12
4.41358e-12
4.72289e-12
5.07393e-12
5.47322e-12
5.92782e-12
6.44532e-12
7.03383e-12
7.70197e-12
8.45885e-12
9.31404e-12
1.02775e-11
1.13596e-11
1.25711e-11
1.39227e-11
1.54258e-11
1.70915e-11
1.89314e-11
2.09569e-11
2.31795e-11
2.56108e-11
2.8262e-11
3.11447e-11
3.42699e-11
3.76486e-11
4.12915e-11
4.52089e-11
4.94107e-11
5.39063e-11
5.87047e-11
6.38139e-11
6.92417e-11
7.49949e-11
8.10796e-11
8.75012e-11
9.42644e-11
1.01373e-10
1.0883e-10
1.16638e-10
1.24799e-10
1.33313e-10
1.42181e-10
1.51403e-10
1.60978e-10
1.70904e-10
1.81179e-10
1.918e-10
2.02762e-10
2.1406e-10
2.25689e-10
2.37639e-10
2.49902e-10
2.62464e-10
2.7531e-10
2.88424e-10
3.01783e-10
3.15362e-10
3.29129e-10
3.43046e-10
3.57072e-10
3.71152e-10
3.85226e-10
3.99223e-10
4.13059e-10
4.26637e-10
4.39848e-10
4.52568e-10
4.64655e-10
4.75953e-10
4.86288e-10
4.95457e-10
5.03254e-10
5.09443e-10
5.13656e-10
5.15637e-10
5.15919e-10
5.13725e-10
5.08731e-10
5.00831e-10
4.89954e-10
4.76073e-10
4.5922e-10
4.39511e-10
4.17149e-10
3.92431e-10
3.65745e-10
3.37553e-10
3.08378e-10
2.78776e-10
2.4931e-10
2.20519e-10
1.9289e-10
1.66833e-10
1.42667e-10
1.2061e-10
1.00778e-10
8.31929e-11
6.77954e-11
5.446e-11
4.30154e-11
3.32586e-11
2.49773e-11
1.79674e-11
1.20533e-11
7.1179e-12
3.15915e-12
4.65962e-13
3.20546e-13
1.04506e-11
2.62724e-11
4.46976e-11
6.51476e-11
8.72087e-11
1.1054e-10
1.34846e-10
1.59865e-10
1.8536e-10
2.11118e-10
2.36951e-10
2.62704e-10
2.88251e-10
3.13506e-10
3.38427e-10
3.63014e-10
3.87321e-10
4.11453e-10
4.3557e-10
4.59892e-10
4.84698e-10
5.10329e-10
5.3719e-10
5.65754e-10
5.96564e-10
6.30234e-10
6.67454e-10
7.08994e-10
7.55706e-10
8.08526e-10
8.68482e-10
9.36687e-10
1.01435e-09
1.10277e-09
1.20333e-09
1.31752e-09
1.44688e-09
1.59305e-09
1.75775e-09
1.94273e-09
2.14981e-09
2.38087e-09
2.63779e-09
2.9225e-09
3.23694e-09
3.58304e-09
3.96275e-09
4.37803e-09
4.83077e-09
5.32289e-09
5.85626e-09
6.43268e-09
7.05393e-09
7.72171e-09
8.43765e-09
9.20327e-09
1.002e-08
1.08891e-08
1.18119e-08
1.27893e-08
1.38223e-08
1.49116e-08
1.60581e-08
1.7262e-08
1.85239e-08
1.9844e-08
2.12224e-08
2.26592e-08
2.41543e-08
2.57076e-08
2.73187e-08
2.89873e-08
3.0713e-08
3.24951e-08
3.4333e-08
3.62258e-08
3.81725e-08
4.01718e-08
4.22222e-08
4.4322e-08
4.64689e-08
4.86603e-08
5.08929e-08
5.3163e-08
5.54658e-08
5.77959e-08
6.01466e-08
6.251e-08
6.48768e-08
6.72356e-08
6.95736e-08
7.18754e-08
7.41235e-08
7.62977e-08
7.83753e-08
8.03304e-08
8.2134e-08
8.37517e-08
8.51486e-08
8.62726e-08
8.70621e-08
8.74614e-08
8.75974e-08
8.73136e-08
8.65502e-08
8.5289e-08
8.35156e-08
8.12219e-08
7.84107e-08
7.5099e-08
7.13202e-08
6.71242e-08
6.25774e-08
5.77602e-08
5.27641e-08
4.76871e-08
4.26286e-08
3.76835e-08
3.2938e-08
2.84644e-08
2.43185e-08
2.05382e-08
1.71433e-08
1.41371e-08
1.15085e-08
9.23485e-09
7.28486e-09
5.62423e-09
4.21553e-09
3.02229e-09
2.01223e-09
1.16093e-09
4.5828e-10
1.40814e-11
6.80924e-13
5.60409e-11
1.80585e-10
3.28583e-10
4.90864e-10
6.64557e-10
8.47448e-10
1.0375e-09
1.23279e-09
1.43156e-09
1.63219e-09
1.83323e-09
2.03346e-09
2.2319e-09
2.42788e-09
2.62105e-09
2.8114e-09
2.99935e-09
3.18568e-09
3.37165e-09
3.55895e-09
3.74972e-09
3.9466e-09
4.15273e-09
4.37176e-09
4.60785e-09
4.86576e-09
5.15081e-09
5.46891e-09
5.82663e-09
6.23118e-09
6.69045e-09
7.213e-09
7.80811e-09
8.48575e-09
9.25656e-09
1.01318e-08
1.11235e-08
1.2244e-08
1.35064e-08
1.49241e-08
1.65109e-08
1.82808e-08
2.02481e-08
2.24272e-08
2.48326e-08
2.74786e-08
3.03795e-08
3.35495e-08
3.70025e-08
4.0752e-08
4.48114e-08
4.91932e-08
5.39097e-08
5.89725e-08
6.43922e-08
7.01787e-08
7.6341e-08
8.28869e-08
8.98233e-08
9.71557e-08
1.04889e-07
1.13026e-07
1.2157e-07
1.30521e-07
1.3988e-07
1.49646e-07
1.59817e-07
1.70392e-07
1.81367e-07
1.92739e-07
2.04505e-07
2.16661e-07
2.29202e-07
2.42123e-07
2.55419e-07
2.69085e-07
2.83115e-07
2.97503e-07
3.1224e-07
3.27317e-07
3.42724e-07
3.58447e-07
3.74471e-07
3.90775e-07
4.07337e-07
4.24125e-07
4.41104e-07
4.58229e-07
4.75444e-07
4.92683e-07
5.09862e-07
5.26886e-07
5.43638e-07
5.59984e-07
5.75767e-07
5.90804e-07
6.04892e-07
6.17782e-07
6.29223e-07
6.38866e-07
6.46232e-07
6.50476e-07
6.5322e-07
6.52843e-07
6.48845e-07
6.41064e-07
6.29341e-07
6.13555e-07
5.93671e-07
5.6977e-07
5.42069e-07
5.10927e-07
4.76847e-07
4.40457e-07
4.02485e-07
3.63722e-07
3.24975e-07
2.87024e-07
2.50573e-07
2.16213e-07
1.84399e-07
1.55436e-07
1.29479e-07
1.0655e-07
8.65508e-08
6.92957e-08
5.45321e-08
4.19738e-08
3.13155e-08
2.22555e-08
1.45158e-08
7.87869e-09
2.44588e-09
2.98589e-11
1.11376e-12
1.3168e-10
5.44056e-10
1.09162e-09
1.69862e-09
2.34531e-09
3.02291e-09
3.72452e-09
4.4437e-09
5.17427e-09
5.9105e-09
6.64718e-09
7.37984e-09
8.10489e-09
8.81978e-09
9.52317e-09
1.0215e-08
1.08967e-08
1.15711e-08
1.22428e-08
1.29177e-08
1.36037e-08
1.43103e-08
1.50489e-08
1.58326e-08
1.66765e-08
1.75977e-08
1.86153e-08
1.97506e-08
2.10272e-08
2.24709e-08
2.411e-08
2.59751e-08
2.80993e-08
3.05181e-08
3.32693e-08
3.6393e-08
3.99313e-08
4.39281e-08
4.8429e-08
5.34807e-08
5.91311e-08
6.54285e-08
7.24216e-08
8.01589e-08
8.86886e-08
9.80582e-08
1.08314e-07
1.19502e-07
1.31664e-07
1.44843e-07
1.59078e-07
1.74405e-07
1.9086e-07
2.08472e-07
2.27268e-07
2.47273e-07
2.68503e-07
2.90975e-07
3.14698e-07
3.39678e-07
3.65917e-07
3.93411e-07
4.22155e-07
4.52137e-07
4.83346e-07
5.15766e-07
5.49379e-07
5.84167e-07
6.20112e-07
6.57199e-07
6.95411e-07
7.34733e-07
7.75151e-07
8.16654e-07
8.59233e-07
9.02882e-07
9.47596e-07
9.93373e-07
1.04021e-06
1.0881e-06
1.13705e-06
1.18705e-06
1.23808e-06
1.29012e-06
1.34315e-06
1.39711e-06
1.45194e-06
1.50756e-06
1.56384e-06
1.62061e-06
1.67767e-06
1.73476e-06
1.79154e-06
1.84762e-06
1.90252e-06
1.95567e-06
2.0064e-06
2.05393e-06
2.09744e-06
2.13627e-06
2.16685e-06
2.18753e-06
2.2043e-06
2.21082e-06
2.205e-06
2.18616e-06
2.15354e-06
2.10651e-06
2.04469e-06
1.96815e-06
1.87748e-06
1.77379e-06
1.65877e-06
1.53461e-06
1.40391e-06
1.26957e-06
1.13458e-06
1.00184e-06
8.74022e-07
7.53363e-07
6.41599e-07
5.39898e-07
4.48861e-07
3.68577e-07
2.98693e-07
2.38516e-07
1.87109e-07
1.43395e-07
1.06221e-07
7.44353e-08
4.69986e-08
2.33969e-08
5.72442e-09
4.8677e-11
1.60555e-12
2.22499e-10
1.10782e-09
2.46828e-09
4.04426e-09
5.73596e-09
7.50625e-09
9.3343e-09
1.12033e-08
1.30977e-08
1.50031e-08
1.69061e-08
1.87952e-08
2.0661e-08
2.24967e-08
2.42988e-08
2.60668e-08
2.78041e-08
2.95179e-08
3.12195e-08
3.29243e-08
3.46521e-08
3.64271e-08
3.82778e-08
4.02377e-08
4.23447e-08
4.46419e-08
4.71775e-08
5.00049e-08
5.3183e-08
5.67765e-08
6.08557e-08
6.54969e-08
7.07819e-08
7.67986e-08
8.36398e-08
9.14038e-08
1.00193e-07
1.10114e-07
1.21276e-07
1.3379e-07
1.47769e-07
1.63326e-07
1.80572e-07
1.99618e-07
2.20569e-07
2.43529e-07
2.68596e-07
2.95862e-07
3.25413e-07
3.57327e-07
3.91675e-07
4.28519e-07
4.67912e-07
5.09894e-07
5.54498e-07
6.01742e-07
6.51634e-07
7.0417e-07
7.59337e-07
8.17109e-07
8.77452e-07
9.40324e-07
1.00567e-06
1.07345e-06
1.14359e-06
1.21604e-06
1.29074e-06
1.36764e-06
1.44668e-06
1.52784e-06
1.6111e-06
1.69643e-06
1.78382e-06
1.87328e-06
1.96483e-06
2.0585e-06
2.15434e-06
2.2524e-06
2.35274e-06
2.45544e-06
2.56056e-06
2.66818e-06
2.77836e-06
2.89114e-06
3.00657e-06
3.12465e-06
3.24534e-06
3.36857e-06
3.49417e-06
3.62187e-06
3.75132e-06
3.882e-06
4.01328e-06
4.14433e-06
4.27412e-06
4.40138e-06
4.52456e-06
4.64204e-06
4.75329e-06
4.85347e-06
4.93567e-06
4.99658e-06
5.04936e-06
5.08015e-06
5.0823e-06
5.0542e-06
4.99382e-06
4.89931e-06
4.76936e-06
4.60378e-06
4.40358e-06
4.17108e-06
3.90999e-06
3.6253e-06
3.32308e-06
3.01018e-06
2.69383e-06
2.38114e-06
2.07874e-06
1.79228e-06
1.52625e-06
1.28372e-06
1.06637e-06
8.74595e-07
7.07642e-07
5.63874e-07
4.41007e-07
3.36357e-07
2.47014e-07
1.70102e-07
1.03316e-07
4.70118e-08
9.62834e-09
6.98225e-11
2.14688e-12
3.21653e-10
1.81711e-09
4.44985e-09
7.70577e-09
1.128e-08
1.50413e-08
1.8926e-08
2.28919e-08
2.69044e-08
3.09322e-08
3.49469e-08
3.89238e-08
4.28427e-08
4.66889e-08
5.0454e-08
5.41366e-08
5.77433e-08
6.12887e-08
6.47956e-08
6.82959e-08
7.18303e-08
7.54483e-08
7.9209e-08
8.31805e-08
8.7441e-08
9.20781e-08
9.71899e-08
1.02885e-07
1.09283e-07
1.16513e-07
1.24718e-07
1.34049e-07
1.4467e-07
1.56755e-07
1.70487e-07
1.86059e-07
2.03669e-07
2.23521e-07
2.45825e-07
2.70791e-07
2.98626e-07
3.29535e-07
3.63719e-07
4.01368e-07
4.42662e-07
4.87769e-07
5.36841e-07
5.90015e-07
6.4741e-07
7.09125e-07
7.75238e-07
8.45807e-07
9.20868e-07
1.00043e-06
1.08449e-06
1.17301e-06
1.26592e-06
1.36316e-06
1.46463e-06
1.57023e-06
1.67983e-06
1.79331e-06
1.91053e-06
2.03136e-06
2.15567e-06
2.28335e-06
2.4143e-06
2.5484e-06
2.68562e-06
2.82595e-06
2.96951e-06
3.11622e-06
3.26613e-06
3.41932e-06
3.57592e-06
3.73606e-06
3.89993e-06
4.06771e-06
4.23964e-06
4.41593e-06
4.59684e-06
4.78261e-06
4.97346e-06
5.16963e-06
5.3713e-06
5.5786e-06
5.79161e-06
6.01035e-06
6.23492e-06
6.4647e-06
6.69908e-06
6.93724e-06
7.17804e-06
7.42007e-06
7.66142e-06
7.89971e-06
8.13192e-06
8.35627e-06
8.57202e-06
8.76385e-06
8.92869e-06
9.05402e-06
9.1628e-06
9.23582e-06
9.25585e-06
9.22055e-06
9.12633e-06
8.96973e-06
8.74866e-06
8.46223e-06
8.11167e-06
7.70075e-06
7.23571e-06
6.72516e-06
6.17978e-06
5.61176e-06
5.03416e-06
4.4601e-06
3.90197e-06
3.37064e-06
2.8749e-06
2.42108e-06
2.01291e-06
1.65155e-06
1.33602e-06
1.06355e-06
8.29976e-07
6.30208e-07
4.58703e-07
3.10106e-07
1.81145e-07
7.61592e-08
1.38356e-08
9.2741e-11
2.73174e-12
4.26965e-10
2.62197e-09
6.93773e-09
1.26697e-08
1.9177e-08
2.61172e-08
3.33159e-08
4.06701e-08
4.81045e-08
5.55564e-08
6.29705e-08
7.02993e-08
7.75037e-08
8.45552e-08
9.14367e-08
9.81444e-08
1.04689e-07
1.11095e-07
1.17405e-07
1.23674e-07
1.29976e-07
1.36399e-07
1.43049e-07
1.50048e-07
1.57534e-07
1.65665e-07
1.74612e-07
1.84567e-07
1.9574e-07
2.08358e-07
2.22666e-07
2.38929e-07
2.57427e-07
2.78457e-07
3.0233e-07
3.29367e-07
3.599e-07
3.94266e-07
4.32802e-07
4.75842e-07
5.23712e-07
5.76725e-07
6.35177e-07
6.99339e-07
7.6946e-07
8.45754e-07
9.28407e-07
1.01756e-06
1.11334e-06
1.2158e-06
1.32498e-06
1.44087e-06
1.56342e-06
1.69256e-06
1.82816e-06
1.97006e-06
2.11808e-06
2.272e-06
2.43162e-06
2.59677e-06
2.76715e-06
2.94255e-06
3.12272e-06
3.30749e-06
3.49666e-06
3.69011e-06
3.88769e-06
4.08929e-06
4.29494e-06
4.50468e-06
4.71846e-06
4.93656e-06
5.15916e-06
5.38653e-06
5.61897e-06
5.85684e-06
6.10054e-06
6.3505e-06
6.60721e-06
6.87115e-06
7.14284e-06
7.42279e-06
7.71148e-06
8.00937e-06
8.31685e-06
8.63423e-06
8.96167e-06
9.29913e-06
9.64614e-06
1.00024e-05
1.03671e-05
1.07389e-05
1.11159e-05
1.14962e-05
1.18762e-05
1.22519e-05
1.26183e-05
1.29733e-05
1.33134e-05
1.36147e-05
1.38793e-05
1.40799e-05
1.42474e-05
1.43682e-05
1.44056e-05
1.43573e-05
1.42187e-05
1.3985e-05
1.36525e-05
1.32202e-05
1.26901e-05
1.20676e-05
1.13616e-05
1.05844e-05
9.75147e-06
8.88057e-06
7.99095e-06
7.10229e-06
6.2335e-06
5.40162e-06
4.62086e-06
3.90189e-06
3.2515e-06
2.6726e-06
2.16453e-06
1.72356e-06
1.34352e-06
1.01652e-06
7.33867e-07
4.87618e-07
2.74975e-07
1.08526e-07
1.82215e-08
1.17017e-10
3.35634e-12
5.37798e-10
3.49121e-09
9.81237e-09
1.87896e-08
2.93882e-08
4.09137e-08
5.29738e-08
6.53351e-08
7.78402e-08
9.03671e-08
1.02814e-07
1.15094e-07
1.27138e-07
1.38893e-07
1.50329e-07
1.61434e-07
1.72224e-07
1.82739e-07
1.93043e-07
2.03229e-07
2.13415e-07
2.23744e-07
2.34388e-07
2.45544e-07
2.57435e-07
2.70312e-07
2.84451e-07
3.00158e-07
3.17762e-07
3.37624e-07
3.60126e-07
3.8568e-07
4.14718e-07
4.47695e-07
4.85082e-07
5.27364e-07
5.7503e-07
6.28573e-07
6.88477e-07
7.55213e-07
8.29228e-07
9.10938e-07
1.00072e-06
1.09891e-06
1.20578e-06
1.32157e-06
1.44643e-06
1.58046e-06
1.7237e-06
1.87613e-06
2.03765e-06
2.20816e-06
2.38745e-06
2.57526e-06
2.77132e-06
2.97531e-06
3.18687e-06
3.40561e-06
3.63114e-06
3.86306e-06
4.10106e-06
4.34481e-06
4.59404e-06
4.8485e-06
5.10801e-06
5.37246e-06
5.64182e-06
5.91619e-06
6.19556e-06
6.48007e-06
6.7699e-06
7.06544e-06
7.3671e-06
7.67537e-06
7.99078e-06
8.31396e-06
8.64558e-06
8.98637e-06
9.3371e-06
9.69858e-06
1.00716e-05
1.0457e-05
1.08555e-05
1.12678e-05
1.16945e-05
1.21359e-05
1.25923e-05
1.30635e-05
1.35489e-05
1.40478e-05
1.45586e-05
1.50794e-05
1.56072e-05
1.61379e-05
1.66668e-05
1.71881e-05
1.76953e-05
1.81814e-05
1.86412e-05
1.90525e-05
1.94089e-05
1.96769e-05
1.98822e-05
2.0036e-05
2.00729e-05
1.99916e-05
1.97878e-05
1.94564e-05
1.89934e-05
1.83981e-05
1.76732e-05
1.68256e-05
1.58667e-05
1.48121e-05
1.36809e-05
1.24959e-05
1.12815e-05
1.00633e-05
8.86624e-06
7.71334e-06
6.62437e-06
5.61483e-06
4.69527e-06
3.8711e-06
3.14275e-06
2.50619e-06
1.95365e-06
1.47466e-06
1.05741e-06
6.92074e-07
3.7896e-07
1.42573e-07
2.27261e-08
1.42328e-10
4.01835e-12
6.53977e-10
4.40849e-09
1.29733e-08
2.58638e-08
4.17024e-08
5.93286e-08
7.79972e-08
9.7248e-08
1.16771e-07
1.36339e-07
1.55768e-07
1.7491e-07
1.93645e-07
2.11883e-07
2.29568e-07
2.46679e-07
2.63232e-07
2.79283e-07
2.94931e-07
3.1031e-07
3.25599e-07
3.41015e-07
3.56814e-07
3.73292e-07
3.90782e-07
4.09657e-07
4.30328e-07
4.53242e-07
4.78886e-07
5.07781e-07
5.40483e-07
5.7758e-07
6.1969e-07
6.67453e-07
7.21526e-07
7.82577e-07
8.51273e-07
9.2827e-07
1.0142e-06
1.10968e-06
1.21524e-06
1.3314e-06
1.45857e-06
1.59711e-06
1.74729e-06
1.90928e-06
2.08317e-06
2.26894e-06
2.46651e-06
2.67567e-06
2.89615e-06
3.1276e-06
3.36964e-06
3.6218e-06
3.88362e-06
4.15457e-06
4.43413e-06
4.72182e-06
5.01711e-06
5.31948e-06
5.62853e-06
5.9439e-06
6.26529e-06
6.59249e-06
6.92536e-06
7.26386e-06
7.60807e-06
7.95815e-06
8.31427e-06
8.67674e-06
9.04594e-06
9.42245e-06
9.8069e-06
1.02e-05
1.06026e-05
1.10156e-05
1.144e-05
1.18767e-05
1.2327e-05
1.27919e-05
1.32725e-05
1.37699e-05
1.42851e-05
1.4819e-05
1.53721e-05
1.59448e-05
1.65372e-05
1.71486e-05
1.77781e-05
1.8424e-05
1.90838e-05
1.97542e-05
2.04306e-05
2.11072e-05
2.17773e-05
2.24331e-05
2.30653e-05
2.36642e-05
2.42178e-05
2.47118e-05
2.51342e-05
2.54453e-05
2.56514e-05
2.58058e-05
2.58153e-05
2.56743e-05
2.53823e-05
2.49346e-05
2.43281e-05
2.35624e-05
2.26412e-05
2.15728e-05
2.03702e-05
1.9051e-05
1.76375e-05
1.61555e-05
1.46335e-05
1.31015e-05
1.15893e-05
1.0125e-05
8.73333e-06
7.43439e-06
6.24267e-06
5.16653e-06
4.20813e-06
3.36383e-06
2.62494e-06
1.97893e-06
1.41165e-06
9.12761e-07
4.88325e-07
1.77366e-07
2.73112e-08
1.68422e-10
4.71639e-12
7.75485e-10
5.3662e-09
1.63493e-08
3.36955e-08
5.58217e-08
8.10518e-08
1.08164e-07
1.36344e-07
1.65042e-07
1.93856e-07
2.22474e-07
2.50644e-07
2.78169e-07
3.04901e-07
3.30745e-07
3.55656e-07
3.79652e-07
4.02804e-07
4.25247e-07
4.47172e-07
4.68831e-07
4.90529e-07
5.12631e-07
5.35554e-07
5.59768e-07
5.85795e-07
6.1421e-07
6.45634e-07
6.80737e-07
7.20235e-07
7.64884e-07
8.15479e-07
8.72844e-07
9.37829e-07
1.01129e-06
1.0941e-06
1.18709e-06
1.29109e-06
1.40688e-06
1.53517e-06
1.6766e-06
1.83171e-06
2.00095e-06
2.18462e-06
2.38292e-06
2.59592e-06
2.82357e-06
3.06568e-06
3.32195e-06
3.592e-06
3.87536e-06
4.17142e-06
4.4796e-06
4.79922e-06
5.12961e-06
5.47008e-06
5.81996e-06
6.17864e-06
6.5455e-06
6.91999e-06
7.30164e-06
7.6901e-06
8.0851e-06
8.48646e-06
8.89411e-06
9.3081e-06
9.72861e-06
1.01559e-05
1.05903e-05
1.10323e-05
1.14825e-05
1.19416e-05
1.24105e-05
1.28901e-05
1.33817e-05
1.38863e-05
1.44053e-05
1.49401e-05
1.5492e-05
1.60625e-05
1.6653e-05
1.72647e-05
1.78987e-05
1.85559e-05
1.92367e-05
1.99411e-05
2.06687e-05
2.14183e-05
2.21877e-05
2.2974e-05
2.37735e-05
2.45808e-05
2.53896e-05
2.6192e-05
2.69793e-05
2.77412e-05
2.84663e-05
2.91424e-05
2.97554e-05
3.02896e-05
3.07295e-05
3.10577e-05
3.12288e-05
3.13392e-05
3.12954e-05
3.10707e-05
3.06717e-05
3.00961e-05
2.93418e-05
2.8409e-05
2.73022e-05
2.60303e-05
2.46072e-05
2.30518e-05
2.13877e-05
1.96428e-05
1.78479e-05
1.60359e-05
1.42403e-05
1.2493e-05
1.08228e-05
9.25385e-06
7.8044e-06
6.48578e-06
5.30224e-06
4.25104e-06
3.32319e-06
2.50484e-06
1.78041e-06
1.14059e-06
5.9958e-07
2.12342e-07
3.19482e-08
1.951e-10
5.44977e-12
9.02375e-10
6.36135e-09
1.98958e-08
4.21231e-08
7.14344e-08
1.05663e-07
1.43019e-07
1.82214e-07
2.22343e-07
2.62742e-07
3.02908e-07
3.42444e-07
3.81031e-07
4.18433e-07
4.54493e-07
4.89133e-07
5.22356e-07
5.54252e-07
5.84994e-07
6.14837e-07
6.44119e-07
6.73253e-07
7.0273e-07
7.33112e-07
7.65033e-07
7.99192e-07
8.36352e-07
8.77339e-07
9.23036e-07
9.74379e-07
1.03235e-06
1.09797e-06
1.17229e-06
1.25638e-06
1.35132e-06
1.45816e-06
1.57793e-06
1.71161e-06
1.86009e-06
2.02418e-06
2.20457e-06
2.40181e-06
2.6163e-06
2.84829e-06
3.09788e-06
3.36496e-06
3.64931e-06
3.95053e-06
4.26812e-06
4.60146e-06
4.94982e-06
5.31242e-06
5.68841e-06
6.07697e-06
6.47722e-06
6.88835e-06
7.30957e-06
7.74016e-06
8.17944e-06
8.62683e-06
9.08186e-06
9.54417e-06
1.00135e-05
1.04897e-05
1.09728e-05
1.14629e-05
1.19602e-05
1.24651e-05
1.29781e-05
1.34997e-05
1.40308e-05
1.45724e-05
1.51254e-05
1.56912e-05
1.62712e-05
1.68669e-05
1.74799e-05
1.81119e-05
1.87646e-05
1.94398e-05
2.01389e-05
2.08633e-05
2.16139e-05
2.23914e-05
2.31957e-05
2.40262e-05
2.48813e-05
2.57589e-05
2.66553e-05
2.75658e-05
2.84838e-05
2.94039e-05
3.03175e-05
3.12146e-05
3.20841e-05
3.29139e-05
3.36908e-05
3.4401e-05
3.503e-05
3.55621e-05
3.59821e-05
3.62742e-05
3.63911e-05
3.64172e-05
3.63008e-05
3.59758e-05
3.54596e-05
3.47531e-05
3.38558e-05
3.27681e-05
3.14948e-05
3.0045e-05
2.84326e-05
2.66767e-05
2.48011e-05
2.28342e-05
2.08083e-05
1.87578e-05
1.67184e-05
1.47248e-05
1.28092e-05
1.0999e-05
9.31586e-06
7.7739e-06
6.37957e-06
5.13137e-06
4.02045e-06
3.03224e-06
2.15063e-06
1.36868e-06
7.10359e-07
2.47155e-07
3.66156e-08
2.22211e-10
6.21837e-12
1.03475e-09
7.39335e-09
2.35874e-08
5.10285e-08
8.82614e-08
1.32716e-07
1.81986e-07
2.34207e-07
2.88005e-07
3.42363e-07
3.96499e-07
4.49802e-07
5.01793e-07
5.5211e-07
6.00507e-07
6.46851e-07
6.91126e-07
7.33427e-07
7.73966e-07
8.13069e-07
8.51168e-07
8.88802e-07
9.26606e-07
9.65314e-07
1.00574e-06
1.04879e-06
1.09545e-06
1.14676e-06
1.20385e-06
1.26789e-06
1.34013e-06
1.42182e-06
1.51426e-06
1.61876e-06
1.7366e-06
1.86903e-06
2.01727e-06
2.18241e-06
2.36548e-06
2.56734e-06
2.7887e-06
3.0301e-06
3.29188e-06
3.57417e-06
3.87693e-06
4.19989e-06
4.54261e-06
4.90449e-06
5.28479e-06
5.68264e-06
6.09711e-06
6.5272e-06
6.97188e-06
7.43012e-06
7.90093e-06
8.38336e-06
8.87651e-06
9.37958e-06
9.89183e-06
1.04126e-05
1.09415e-05
1.1478e-05
1.2022e-05
1.25732e-05
1.31317e-05
1.36976e-05
1.42712e-05
1.4853e-05
1.54435e-05
1.60434e-05
1.66538e-05
1.72759e-05
1.79109e-05
1.85605e-05
1.92264e-05
1.99105e-05
2.06146e-05
2.13409e-05
2.20912e-05
2.28674e-05
2.36711e-05
2.45034e-05
2.5365e-05
2.62557e-05
2.71746e-05
2.81202e-05
2.9089e-05
3.00749e-05
3.1076e-05
3.20867e-05
3.30992e-05
3.41026e-05
3.50868e-05
3.60403e-05
3.6951e-05
3.7806e-05
3.85916e-05
3.92937e-05
3.98967e-05
4.03881e-05
4.07535e-05
4.09805e-05
4.10086e-05
4.092e-05
4.07267e-05
4.02944e-05
3.96595e-05
3.88268e-05
3.77979e-05
3.65732e-05
3.51573e-05
3.35589e-05
3.1791e-05
2.98721e-05
2.78252e-05
2.56786e-05
2.34642e-05
2.12174e-05
1.89748e-05
1.67733e-05
1.46474e-05
1.26275e-05
1.0738e-05
8.99593e-06
7.40982e-06
5.97955e-06
4.69672e-06
3.54652e-06
2.51293e-06
1.59226e-06
8.1915e-07
2.816e-07
4.1298e-08
2.49647e-10
7.0225e-12
1.17275e-09
8.4629e-09
2.74119e-08
6.03317e-08
1.06079e-07
1.61801e-07
2.24465e-07
2.91559e-07
3.61144e-07
4.31743e-07
5.02216e-07
5.71667e-07
6.39396e-07
7.04872e-07
7.67725e-07
8.2774e-07
8.8486e-07
9.39183e-07
9.90957e-07
1.04058e-06
1.08859e-06
1.13567e-06
1.1826e-06
1.23032e-06
1.27984e-06
1.33229e-06
1.38891e-06
1.45099e-06
1.51993e-06
1.59716e-06
1.6842e-06
1.78255e-06
1.89379e-06
2.01944e-06
2.16102e-06
2.31999e-06
2.4977e-06
2.6954e-06
2.9142e-06
3.155e-06
3.41854e-06
3.7053e-06
4.01554e-06
4.34929e-06
4.70631e-06
5.08617e-06
5.48822e-06
5.91163e-06
6.35543e-06
6.81855e-06
7.29982e-06
7.79804e-06
8.31202e-06
8.84055e-06
9.3825e-06
9.93679e-06
1.05024e-05
1.10785e-05
1.16641e-05
1.22587e-05
1.28616e-05
1.34724e-05
1.40907e-05
1.47163e-05
1.53493e-05
1.59898e-05
1.66381e-05
1.72946e-05
1.796e-05
1.86354e-05
1.93218e-05
2.00209e-05
2.07341e-05
2.14635e-05
2.22112e-05
2.29794e-05
2.37703e-05
2.45862e-05
2.54291e-05
2.6301e-05
2.72031e-05
2.81361e-05
2.91e-05
3.00935e-05
3.11123e-05
3.21523e-05
3.32138e-05
3.42933e-05
3.53796e-05
3.64636e-05
3.75362e-05
3.85864e-05
3.96028e-05
4.05731e-05
4.14847e-05
4.23245e-05
4.30794e-05
4.3736e-05
4.42812e-05
4.46998e-05
4.49816e-05
4.51187e-05
4.50539e-05
4.48239e-05
4.45331e-05
4.40102e-05
4.32617e-05
4.23122e-05
4.11671e-05
3.9826e-05
3.82926e-05
3.65749e-05
3.46846e-05
3.26385e-05
3.04585e-05
2.81714e-05
2.58084e-05
2.34045e-05
2.09969e-05
1.86234e-05
1.63206e-05
1.41213e-05
1.20525e-05
1.01339e-05
8.37615e-06
6.78063e-06
5.3396e-06
4.0383e-06
2.86124e-06
1.80835e-06
9.25071e-07
3.15568e-07
4.59867e-08
2.77343e-10
7.86282e-12
1.31655e-09
9.57146e-09
3.13653e-08
6.99841e-08
1.24726e-07
1.92574e-07
2.69897e-07
3.535e-07
4.4079e-07
5.29743e-07
6.18771e-07
7.06622e-07
7.92312e-07
8.75091e-07
9.54425e-07
1.02999e-06
1.10167e-06
1.16954e-06
1.23389e-06
1.29518e-06
1.35407e-06
1.41138e-06
1.46808e-06
1.5253e-06
1.58429e-06
1.64645e-06
1.71325e-06
1.78628e-06
1.86722e-06
1.9578e-06
2.05981e-06
2.17505e-06
2.30535e-06
2.45249e-06
2.61821e-06
2.80417e-06
3.01188e-06
3.24272e-06
3.49787e-06
3.77829e-06
4.0847e-06
4.41753e-06
4.77695e-06
5.16284e-06
5.57483e-06
6.01227e-06
6.47432e-06
6.95992e-06
7.46788e-06
7.99691e-06
8.54564e-06
9.11268e-06
9.69662e-06
1.02961e-05
1.09099e-05
1.15366e-05
1.21752e-05
1.28247e-05
1.3484e-05
1.41523e-05
1.4829e-05
1.55133e-05
1.6205e-05
1.69036e-05
1.76092e-05
1.83217e-05
1.90416e-05
1.97694e-05
2.05059e-05
2.12524e-05
2.20103e-05
2.27814e-05
2.35679e-05
2.4372e-05
2.51964e-05
2.60434e-05
2.69158e-05
2.78157e-05
2.87451e-05
2.9706e-05
3.06987e-05
3.17233e-05
3.27749e-05
3.3851e-05
3.49551e-05
3.60826e-05
3.72225e-05
3.83667e-05
3.95064e-05
4.06314e-05
4.17308e-05
4.27928e-05
4.38054e-05
4.47562e-05
4.5633e-05
4.64234e-05
4.71154e-05
4.76972e-05
4.81575e-05
4.84858e-05
4.86712e-05
4.87009e-05
4.85355e-05
4.81757e-05
4.77503e-05
4.71434e-05
4.63046e-05
4.525e-05
4.40052e-05
4.25679e-05
4.09409e-05
3.91312e-05
3.71484e-05
3.50074e-05
3.27281e-05
3.03354e-05
2.78591e-05
2.53329e-05
2.27939e-05
2.02805e-05
1.78307e-05
1.54792e-05
1.32558e-05
1.11824e-05
9.27208e-06
7.52787e-06
5.94287e-06
4.5026e-06
3.19225e-06
2.01537e-06
1.0277e-06
3.49021e-07
5.06788e-08
3.05271e-10
8.74032e-12
1.46639e-09
1.07209e-08
3.54492e-08
7.99608e-08
1.44093e-07
2.24769e-07
3.17813e-07
4.19325e-07
5.26004e-07
6.35194e-07
7.44784e-07
8.53091e-07
9.58785e-07
1.06085e-06
1.15853e-06
1.25138e-06
1.33918e-06
1.42199e-06
1.50012e-06
1.57409e-06
1.64468e-06
1.71286e-06
1.7798e-06
1.84686e-06
1.91553e-06
1.98747e-06
2.06447e-06
2.14841e-06
2.24128e-06
2.34513e-06
2.46203e-06
2.59411e-06
2.74347e-06
2.91214e-06
3.10211e-06
3.31522e-06
3.55317e-06
3.81744e-06
4.1093e-06
4.42975e-06
4.77948e-06
5.15887e-06
5.56801e-06
6.00663e-06
6.47419e-06
6.96986e-06
7.49258e-06
8.04108e-06
8.61395e-06
9.20968e-06
9.82666e-06
1.04633e-05
1.1118e-05
1.17892e-05
1.24754e-05
1.31752e-05
1.38872e-05
1.46102e-05
1.5343e-05
1.60845e-05
1.6834e-05
1.75905e-05
1.83534e-05
1.91225e-05
1.98974e-05
2.06783e-05
2.14655e-05
2.22599e-05
2.30624e-05
2.38746e-05
2.46983e-05
2.55359e-05
2.63898e-05
2.7263e-05
2.81583e-05
2.90787e-05
3.00268e-05
3.10049e-05
3.20138e-05
3.30562e-05
3.41274e-05
3.52231e-05
3.63529e-05
3.75126e-05
3.86897e-05
3.98777e-05
4.1068e-05
4.2251e-05
4.34161e-05
4.45521e-05
4.56471e-05
4.66894e-05
4.76668e-05
4.85679e-05
4.93813e-05
5.0096e-05
5.07017e-05
5.11884e-05
5.15469e-05
5.17684e-05
5.18441e-05
5.17665e-05
5.15118e-05
5.10404e-05
5.04786e-05
4.97524e-05
4.88464e-05
4.77061e-05
4.63769e-05
4.48619e-05
4.3162e-05
4.12836e-05
3.9234e-05
3.70254e-05
3.46756e-05
3.22071e-05
2.96473e-05
2.70286e-05
2.43872e-05
2.17614e-05
1.91902e-05
1.67102e-05
1.43532e-05
1.21442e-05
1.00983e-05
8.22047e-06
6.50496e-06
4.93774e-06
3.50474e-06
2.21276e-06
1.12694e-06
3.81978e-07
5.53774e-08
3.33439e-10
9.65627e-12
1.6225e-09
1.19135e-08
3.96686e-08
9.02539e-08
1.64118e-07
2.58196e-07
3.67843e-07
4.88443e-07
6.15945e-07
7.47005e-07
8.78915e-07
1.0095e-06
1.13701e-06
1.26012e-06
1.37783e-06
1.48951e-06
1.59483e-06
1.6938e-06
1.78674e-06
1.87425e-06
1.95721e-06
2.03676e-06
2.11427e-06
2.19134e-06
2.26973e-06
2.35141e-06
2.43847e-06
2.53312e-06
2.63768e-06
2.75455e-06
2.88612e-06
3.03484e-06
3.2031e-06
3.39321e-06
3.6074e-06
3.84771e-06
4.11601e-06
4.41391e-06
4.74276e-06
5.10359e-06
5.49707e-06
5.92353e-06
6.38295e-06
6.87494e-06
7.39878e-06
7.95345e-06
8.53767e-06
9.14995e-06
9.78865e-06
1.0452e-05
1.11382e-05
1.18454e-05
1.25717e-05
1.33153e-05
1.40746e-05
1.48477e-05
1.56331e-05
1.64293e-05
1.72348e-05
1.80483e-05
1.88686e-05
1.96948e-05
2.0526e-05
2.13616e-05
2.22016e-05
2.30459e-05
2.38951e-05
2.47503e-05
2.56127e-05
2.64845e-05
2.73679e-05
2.82658e-05
2.91814e-05
3.0118e-05
3.10788e-05
3.2067e-05
3.30852e-05
3.41359e-05
3.52169e-05
3.63199e-05
3.74592e-05
3.86351e-05
3.98351e-05
4.10542e-05
4.22817e-05
4.35092e-05
4.4727e-05
4.59239e-05
4.70884e-05
4.82085e-05
4.92726e-05
5.02691e-05
5.11869e-05
5.20155e-05
5.27451e-05
5.33664e-05
5.3871e-05
5.42509e-05
5.44986e-05
5.46072e-05
5.45698e-05
5.43795e-05
5.40275e-05
5.346e-05
5.27825e-05
5.19776e-05
5.09557e-05
4.97589e-05
4.83575e-05
4.67796e-05
4.50235e-05
4.30953e-05
4.09994e-05
3.87453e-05
3.63483e-05
3.38282e-05
3.12098e-05
2.85233e-05
2.58035e-05
2.30884e-05
2.04173e-05
1.78284e-05
1.53559e-05
1.30271e-05
1.086e-05
8.86159e-06
7.0275e-06
5.34441e-06
3.79897e-06
2.40073e-06
1.22294e-06
4.145e-07
6.00906e-08
3.61883e-10
1.06122e-11
1.78517e-09
1.31516e-08
4.40307e-08
1.00868e-07
1.84769e-07
2.92736e-07
4.19725e-07
5.60389e-07
7.0992e-07
8.64233e-07
1.01997e-06
1.17438e-06
1.32529e-06
1.47097e-06
1.61016e-06
1.74199e-06
1.86603e-06
1.9822e-06
2.09082e-06
2.19256e-06
2.28841e-06
2.37968e-06
2.46797e-06
2.5551e-06
2.64316e-06
2.73441e-06
2.83128e-06
2.93636e-06
3.05231e-06
3.18188e-06
3.32784e-06
3.49295e-06
3.67991e-06
3.89135e-06
4.12971e-06
4.39727e-06
4.69607e-06
5.02785e-06
5.39403e-06
5.79567e-06
6.23343e-06
6.7076e-06
7.21803e-06
7.7642e-06
8.34521e-06
8.95984e-06
9.60658e-06
1.02837e-05
1.09893e-05
1.17214e-05
1.24778e-05
1.32564e-05
1.40551e-05
1.48717e-05
1.57043e-05
1.65507e-05
1.7409e-05
1.82774e-05
1.9154e-05
2.00372e-05
2.09256e-05
2.18179e-05
2.27131e-05
2.36106e-05
2.45101e-05
2.5412e-05
2.6317e-05
2.72264e-05
2.81423e-05
2.90672e-05
3.00041e-05
3.09565e-05
3.19282e-05
3.29228e-05
3.3944e-05
3.49952e-05
3.6078e-05
3.71871e-05
3.83205e-05
3.95009e-05
4.07117e-05
4.19445e-05
4.31943e-05
4.44578e-05
4.57178e-05
4.69652e-05
4.81893e-05
4.93782e-05
5.05199e-05
5.16027e-05
5.26152e-05
5.35469e-05
5.4388e-05
5.51294e-05
5.57629e-05
5.62812e-05
5.66774e-05
5.69456e-05
5.70801e-05
5.70755e-05
5.69265e-05
5.66282e-05
5.6177e-05
5.55206e-05
5.47226e-05
5.38413e-05
5.27471e-05
5.14882e-05
5.00398e-05
4.83951e-05
4.65941e-05
4.46298e-05
4.25029e-05
4.02199e-05
3.77937e-05
3.5241e-05
3.25836e-05
2.98493e-05
2.70708e-05
2.42852e-05
2.15319e-05
1.88504e-05
1.62769e-05
1.38415e-05
1.15649e-05
9.4567e-06
7.51412e-06
5.72485e-06
4.07624e-06
2.58002e-06
1.31598e-06
4.46687e-07
6.48306e-08
3.90668e-10
1.16098e-11
1.95474e-09
1.44381e-08
4.85445e-08
1.11816e-07
2.06042e-07
3.28328e-07
4.73284e-07
6.34833e-07
8.07398e-07
9.86119e-07
1.16693e-06
1.3465e-06
1.52212e-06
1.69167e-06
1.85354e-06
2.00665e-06
2.15038e-06
2.2846e-06
2.4096e-06
2.52611e-06
2.63523e-06
2.73846e-06
2.8376e-06
2.93477e-06
3.03234e-06
3.13294e-06
3.23935e-06
3.35453e-06
3.48154e-06
3.62351e-06
3.78358e-06
3.96486e-06
4.1704e-06
4.4031e-06
4.66569e-06
4.96066e-06
5.29022e-06
5.65625e-06
6.06024e-06
6.5033e-06
6.98608e-06
7.50877e-06
8.07114e-06
8.6725e-06
9.31177e-06
9.9875e-06
1.0698e-05
1.14411e-05
1.22148e-05
1.30166e-05
1.38442e-05
1.4695e-05
1.55667e-05
1.64565e-05
1.73622e-05
1.82813e-05
1.92113e-05
2.01501e-05
2.10954e-05
2.20452e-05
2.29977e-05
2.39515e-05
2.49055e-05
2.58589e-05
2.68118e-05
2.77647e-05
2.87186e-05
2.96757e-05
3.06385e-05
3.16103e-05
3.25949e-05
3.35964e-05
3.46192e-05
3.56676e-05
3.67447e-05
3.78548e-05
3.89799e-05
4.0155e-05
4.13607e-05
4.25979e-05
4.38625e-05
4.51402e-05
4.64229e-05
4.77179e-05
4.89948e-05
5.02446e-05
5.14573e-05
5.26206e-05
5.37228e-05
5.47526e-05
5.56998e-05
5.6555e-05
5.73097e-05
5.79566e-05
5.84891e-05
5.89014e-05
5.91883e-05
5.93455e-05
5.93687e-05
5.92544e-05
5.89983e-05
5.85965e-05
5.80478e-05
5.73142e-05
5.64074e-05
5.54438e-05
5.42833e-05
5.29439e-05
5.14748e-05
4.98051e-05
4.79429e-05
4.59479e-05
4.38002e-05
4.14994e-05
3.90565e-05
3.64851e-05
3.38038e-05
3.10371e-05
2.82157e-05
2.53749e-05
2.25539e-05
1.97929e-05
1.71302e-05
1.45987e-05
1.2222e-05
1.00125e-05
7.9696e-06
6.08224e-06
4.33848e-06
2.75165e-06
1.40652e-06
4.78663e-07
6.96129e-08
4.19879e-10
1.26511e-11
2.13153e-09
1.57758e-08
5.322e-08
1.23118e-07
2.27952e-07
3.64958e-07
5.28429e-07
7.1156e-07
9.08002e-07
1.11209e-06
1.31904e-06
1.52484e-06
1.72627e-06
1.92073e-06
2.10628e-06
2.28157e-06
2.4458e-06
2.59872e-06
2.74063e-06
2.87229e-06
2.99494e-06
3.11024e-06
3.22023e-06
3.32734e-06
3.43425e-06
3.54394e-06
3.6596e-06
3.78459e-06
3.92237e-06
4.07649e-06
4.25047e-06
4.44781e-06
4.67189e-06
4.92594e-06
5.21294e-06
5.53562e-06
5.89638e-06
6.29722e-06