/*--------------------------------*- C++ -*----------------------------------*\
  =========                 |
  \\      /  F ield         | OpenFOAM: The Open Source CFD Toolbox
   \\    /   O peration     | Website:  https://openfoam.org
    \\  /    A nd           | Version:  12
     \\/     M anipulation  |
\*---------------------------------------------------------------------------*/
FoamFile
{
    format      ascii;
    class       surfaceScalarField;
    location    "9.5";
    object      phi;
}
// * * * * * * * * * * * * * * * * * * * * * * * * * * * * * * * * * * * * * //

dimensions      [0 3 -1 0 0 0 0];

internalField   nonuniform List<scalar> 
36180
(
-4.85551e-11
4.93308e-11
-7.73115e-11
2.87237e-11
-4.42643e-11
-3.30746e-11
6.14281e-11
-1.057e-10
2.37566e-10
-1.76133e-10
4.77325e-10
-2.39747e-10
7.72167e-10
-2.94828e-10
1.1131e-09
-3.40927e-10
1.49122e-09
-3.78112e-10
1.89793e-09
-4.06701e-10
2.32507e-09
-4.27137e-10
2.76502e-09
-4.39953e-10
3.21075e-09
-4.45735e-10
3.65587e-09
-4.45129e-10
4.09468e-09
-4.38815e-10
4.52218e-09
-4.27507e-10
4.93412e-09
-4.11935e-10
5.32696e-09
-3.9284e-10
5.69791e-09
-3.70954e-10
6.04491e-09
-3.46998e-10
6.36658e-09
-3.21658e-10
6.66217e-09
-2.95586e-10
6.93156e-09
-2.69387e-10
7.17517e-09
-2.43609e-10
7.39391e-09
-2.18737e-10
7.5891e-09
-1.95186e-10
7.7624e-09
-1.73299e-10
7.91575e-09
-1.53344e-10
8.05126e-09
-1.35512e-10
8.17118e-09
-1.19913e-10
8.27776e-09
-1.06579e-10
8.37323e-09
-9.54638e-11
8.45967e-09
-8.64428e-11
8.53899e-09
-7.93136e-11
8.61278e-09
-7.37983e-11
8.68233e-09
-6.95457e-11
8.74847e-09
-6.61353e-11
8.81154e-09
-6.30712e-11
8.87136e-09
-5.9818e-11
8.92718e-09
-5.5816e-11
8.97751e-09
-5.03352e-11
9.02031e-09
-4.27933e-11
9.05273e-09
-3.24178e-11
9.07126e-09
-1.85288e-11
9.07166e-09
-4.02037e-13
9.04892e-09
2.27354e-11
8.99739e-09
5.15328e-11
8.91064e-09
8.67514e-11
8.78156e-09
1.29084e-10
8.60233e-09
1.79229e-10
8.36445e-09
2.37882e-10
8.0587e-09
3.05744e-10
7.67518e-09
3.8352e-10
7.20323e-09
4.71958e-10
6.63144e-09
5.71788e-10
5.94772e-09
6.83717e-10
5.13908e-09
8.08646e-10
4.19188e-09
9.47202e-10
3.09165e-09
1.10023e-09
1.82321e-09
1.26844e-09
3.70662e-10
1.45255e-09
-1.28244e-09
1.6531e-09
-3.15305e-09
1.87061e-09
-5.25841e-09
2.10536e-09
-7.61579e-09
2.35738e-09
-1.02422e-08
2.62646e-09
-1.31544e-08
2.9122e-09
-1.63683e-08
3.21383e-09
-1.98985e-08
3.53024e-09
-2.37584e-08
3.85992e-09
-2.79594e-08
4.20095e-09
-3.25104e-08
4.55102e-09
-3.74178e-08
4.90738e-09
-4.26847e-08
5.26687e-09
-4.83106e-08
5.6259e-09
-5.42911e-08
5.98051e-09
-6.06175e-08
6.32639e-09
-6.72764e-08
6.65891e-09
-7.42495e-08
6.97314e-09
-8.15135e-08
7.26397e-09
-8.90396e-08
7.52609e-09
-9.67936e-08
7.75409e-09
-1.04736e-07
7.94247e-09
-1.12822e-07
8.08575e-09
-1.21e-07
8.17843e-09
-1.29215e-07
8.21513e-09
-1.37406e-07
8.19054e-09
-1.45505e-07
8.09953e-09
-1.53443e-07
7.93716e-09
-1.61141e-07
7.69874e-09
-1.68521e-07
7.3799e-09
-1.75498e-07
6.97665e-09
-1.81983e-07
6.48551e-09
-1.87887e-07
5.90363e-09
-1.93116e-07
5.22892e-09
-1.97575e-07
4.45924e-09
-2.01162e-07
3.5864e-09
-2.03783e-07
2.62115e-09
-2.05379e-07
1.59642e-09
-2.05845e-07
4.66117e-10
-2.05097e-07
-7.4845e-10
-2.03081e-07
-2.01596e-09
-1.99743e-07
-3.33829e-09
-1.95048e-07
-4.6947e-09
-1.88987e-07
-6.06081e-09
-1.81576e-07
-7.4109e-09
-1.72859e-07
-8.71743e-09
-1.6291e-07
-9.94907e-09
-1.51838e-07
-1.10721e-08
-1.39786e-07
-1.2052e-08
-1.26931e-07
-1.2855e-08
-1.13481e-07
-1.345e-08
-9.967e-08
-1.38106e-08
-8.57528e-08
-1.39172e-08
-7.19937e-08
-1.37591e-08
-5.8658e-08
-1.33357e-08
-4.6e-08
-1.2658e-08
-3.42518e-08
-1.17482e-08
-2.36128e-08
-1.0639e-08
-1.42405e-08
-9.37233e-09
-6.24423e-09
-7.99624e-09
3.1772e-10
-6.56195e-09
5.43924e-09
-5.12152e-09
9.15997e-09
-3.72073e-09
1.15621e-08
-2.40209e-09
1.27609e-08
-1.19884e-09
1.28972e-08
-1.36327e-10
1.21276e-08
7.69611e-10
1.06276e-08
1.50006e-09
8.58284e-09
2.04472e-09
6.20873e-09
2.37411e-09
3.76948e-09
2.43924e-09
1.61001e-09
2.15947e-09
2.097e-10
1.40031e-09
2.097e-10
-7.80685e-11
1.2735e-10
-9.11656e-11
4.17643e-11
5.54822e-11
-1.79758e-10
3.89505e-10
-4.39734e-10
9.09659e-10
-6.96279e-10
1.60105e-09
-9.31119e-10
2.44285e-09
-1.13661e-09
3.4119e-09
-1.30997e-09
4.48452e-09
-1.45072e-09
5.6374e-09
-1.55958e-09
6.84816e-09
-1.63789e-09
8.09568e-09
-1.68748e-09
9.36036e-09
-1.71042e-09
1.06243e-08
-1.70907e-09
1.18714e-08
-1.68594e-09
1.30876e-08
-1.64368e-09
1.42607e-08
-1.58504e-09
1.53806e-08
-1.51279e-09
1.64394e-08
-1.42969e-09
1.74308e-08
-1.33845e-09
1.83508e-08
-1.24166e-09
1.9197e-08
-1.14177e-09
1.99687e-08
-1.04106e-09
2.06667e-08
-9.41601e-10
2.12932e-08
-8.45212e-10
2.18515e-08
-7.5346e-10
2.23458e-08
-6.67637e-10
2.27812e-08
-5.88746e-10
2.31632e-08
-5.17499e-10
2.34976e-08
-4.543e-10
2.37903e-08
-3.99253e-10
2.4047e-08
-3.52156e-10
2.4273e-08
-3.12506e-10
2.44732e-08
-2.79499e-10
2.46515e-08
-2.52037e-10
2.48107e-08
-2.28741e-10
2.49525e-08
-2.07959e-10
2.50772e-08
-1.87767e-10
2.51834e-08
-1.66064e-10
2.52682e-08
-1.406e-10
2.53265e-08
-1.08656e-10
2.53515e-08
-6.78002e-11
2.53343e-08
-1.5132e-11
2.52637e-08
5.20842e-11
2.51265e-08
1.36732e-10
2.49076e-08
2.41659e-10
2.45894e-08
3.69688e-10
2.41525e-08
5.23667e-10
2.35752e-08
7.06378e-10
2.28339e-08
9.20583e-10
2.19027e-08
1.16903e-09
2.0754e-08
1.45447e-09
1.93579e-08
1.77966e-09
1.76824e-08
2.14745e-09
1.56935e-08
2.56065e-09
1.33552e-08
3.022e-09
1.06293e-08
3.53457e-09
7.47564e-09
4.10088e-09
3.85205e-09
4.72382e-09
-2.85152e-10
5.40564e-09
-4.98162e-09
6.14902e-09
-1.02844e-08
6.95592e-09
-1.62409e-08
7.8271e-09
-2.28983e-08
8.7627e-09
-3.03034e-08
9.76247e-09
-3.8502e-08
1.08251e-08
-4.75376e-08
1.19478e-08
-5.74507e-08
1.31269e-08
-6.82773e-08
1.43569e-08
-8.00485e-08
1.56311e-08
-9.27885e-08
1.69409e-08
-1.06514e-07
1.82766e-08
-1.21233e-07
1.96264e-08
-1.36944e-07
2.09774e-08
-1.53633e-07
2.2315e-08
-1.71276e-07
2.36233e-08
-1.89834e-07
2.48853e-08
-2.09258e-07
2.60827e-08
-2.29482e-07
2.71969e-08
-2.50426e-07
2.82082e-08
-2.71997e-07
2.90968e-08
-2.94085e-07
2.98427e-08
-3.16569e-07
3.04259e-08
-3.3931e-07
3.08266e-08
-3.62157e-07
3.10256e-08
-3.84946e-07
3.10041e-08
-4.07499e-07
3.0744e-08
-4.29628e-07
3.02282e-08
-4.51132e-07
2.94407e-08
-4.71799e-07
2.83665e-08
-4.91412e-07
2.69922e-08
-5.09741e-07
2.53061e-08
-5.26554e-07
2.32985e-08
-5.41613e-07
2.09621e-08
-5.54677e-07
1.82929e-08
-5.65506e-07
1.52884e-08
-5.73862e-07
1.19422e-08
-5.79484e-07
8.24395e-09
-5.82214e-07
4.32634e-09
-5.81844e-07
9.6198e-11
-5.78197e-07
-4.3956e-09
-5.71115e-07
-9.09817e-09
-5.605e-07
-1.39532e-08
-5.46296e-07
-1.88988e-08
-5.28506e-07
-2.38507e-08
-5.07199e-07
-2.87176e-08
-4.82515e-07
-3.3402e-08
-4.54668e-07
-3.77956e-08
-4.23958e-07
-4.17826e-08
-3.90765e-07
-4.5245e-08
-3.55552e-07
-4.8068e-08
-3.18856e-07
-5.01462e-08
-2.81276e-07
-5.13904e-08
-2.43459e-07
-5.17342e-08
-2.06077e-07
-5.11405e-08
-1.69806e-07
-4.96069e-08
-1.35295e-07
-4.71689e-08
-1.03143e-07
-4.39005e-08
-7.38695e-08
-3.99124e-08
-4.78952e-08
-3.53466e-08
-2.55232e-08
-3.03683e-08
-6.92948e-09
-2.51556e-08
7.83821e-09
-1.98892e-08
1.8856e-08
-1.47385e-08
2.63101e-08
-9.85623e-09
3.04798e-08
-5.36849e-09
3.17191e-08
-1.37563e-09
3.04419e-08
2.04679e-09
2.71129e-08
4.82903e-09
2.22436e-08
6.91407e-09
1.64266e-08
8.1911e-09
1.03665e-08
8.4993e-09
4.9335e-09
7.59251e-09
1.18491e-09
5.1489e-09
1.39461e-09
-6.39287e-11
1.91311e-10
-6.09671e-12
-1.60798e-11
2.92076e-10
-4.77947e-10
8.70379e-10
-1.01804e-09
1.72965e-09
-1.55554e-09
2.85039e-09
-2.05183e-09
4.203e-09
-2.48921e-09
5.75335e-09
-2.8603e-09
7.46564e-09
-3.16301e-09
9.30416e-09
-3.39808e-09
1.12342e-08
-3.56796e-09
1.32229e-08
-3.67615e-09
1.52394e-08
-3.72696e-09
1.72556e-08
-3.72527e-09
1.92461e-08
-3.67638e-09
2.11883e-08
-3.58595e-09
2.30631e-08
-3.4598e-09
2.48542e-08
-3.30387e-09
2.65485e-08
-3.12408e-09
2.81363e-08
-2.92622e-09
2.96105e-08
-2.71586e-09
3.09671e-08
-2.49828e-09
3.22044e-08
-2.27836e-09
3.33233e-08
-2.06053e-09
3.43268e-08
-1.8487e-09
3.52196e-08
-1.64625e-09
3.60079e-08
-1.45593e-09
3.6699e-08
-1.27989e-09
3.73012e-08
-1.11965e-09
3.78229e-08
-9.76035e-10
3.82729e-08
-8.49244e-10
3.86595e-08
-7.38792e-10
3.89906e-08
-6.43534e-10
3.92727e-08
-5.61669e-10
3.95115e-08
-4.90751e-10
3.97104e-08
-4.27716e-10
3.98714e-08
-3.68902e-10
3.99937e-08
-3.10057e-10
4.00742e-08
-2.46538e-10
4.01068e-08
-1.73278e-10
4.00826e-08
-8.44335e-11
3.99892e-08
2.55788e-11
3.98111e-08
1.63046e-10
3.95291e-08
3.34072e-10
3.91207e-08
5.45051e-10
3.85601e-08
8.0231e-10
3.78176e-08
1.11219e-09
3.68603e-08
1.48098e-09
3.56518e-08
1.91491e-09
3.41522e-08
2.42012e-09
3.23185e-08
3.00272e-09
3.01042e-08
3.66882e-09
2.74594e-08
4.42449e-09
2.43309e-08
5.27593e-09
2.06624e-08
6.22917e-09
1.6394e-08
7.29036e-09
1.14635e-08
8.46508e-09
5.80519e-09
9.75917e-09
-6.49751e-10
1.11788e-08
-7.97313e-09
1.2729e-08
-1.62377e-08
1.44136e-08
-2.5517e-08
1.62352e-08
-3.58851e-08
1.81952e-08
-4.74159e-08
2.02934e-08
-6.01811e-08
2.25277e-08
-7.42494e-08
2.48933e-08
-8.96846e-08
2.73831e-08
-1.06544e-07
2.99867e-08
-1.24878e-07
3.26906e-08
-1.44725e-07
3.54781e-08
-1.66113e-07
3.8329e-08
-1.89056e-07
4.12198e-08
-2.13553e-07
4.41234e-08
-2.39586e-07
4.70098e-08
-2.67117e-07
4.98459e-08
-2.96089e-07
5.25959e-08
-3.26426e-07
5.52218e-08
-3.58027e-07
5.7684e-08
-3.90771e-07
5.99412e-08
-4.24515e-07
6.19516e-08
-4.59091e-07
6.3673e-08
-4.94312e-07
6.50634e-08
-5.29967e-07
6.60815e-08
-5.65828e-07
6.66869e-08
-6.01643e-07
6.68409e-08
-6.37145e-07
6.65064e-08
-6.7205e-07
6.56485e-08
-7.06056e-07
6.42347e-08
-7.3885e-07
6.22351e-08
-7.70107e-07
5.9623e-08
-7.9949e-07
5.63752e-08
-8.26656e-07
5.24722e-08
-8.51257e-07
4.78995e-08
-8.72943e-07
4.26478e-08
-8.91364e-07
3.67143e-08
-9.06179e-07
3.0103e-08
-9.17059e-07
2.28224e-08
-9.23636e-07
1.48215e-08
-9.2569e-07
6.37983e-09
-9.22962e-07
-2.63136e-09
-9.15194e-07
-1.2164e-08
-9.02217e-07
-2.2075e-08
-8.83919e-07
-3.2251e-08
-8.60255e-07
-4.25633e-08
-8.31264e-07
-5.28416e-08
-7.97082e-07
-6.29e-08
-7.57942e-07
-7.25416e-08
-7.14187e-07
-8.15501e-08
-6.66274e-07
-8.9696e-08
-6.14773e-07
-9.67462e-08
-5.60366e-07
-1.02474e-07
-5.03839e-07
-1.06673e-07
-4.46063e-07
-1.09167e-07
-3.87973e-07
-1.09823e-07
-3.30546e-07
-1.08568e-07
-2.7476e-07
-1.05393e-07
-2.21564e-07
-1.00365e-07
-1.71838e-07
-9.36263e-08
-1.26358e-07
-8.53924e-08
-8.57617e-08
-7.59426e-08
-5.0525e-08
-6.5605e-08
-2.0943e-08
-5.47376e-08
2.87423e-09
-4.37065e-08
2.09991e-08
-3.28634e-08
3.36709e-08
-2.2528e-08
4.12758e-08
-1.29734e-08
4.43223e-08
-4.42214e-09
4.34236e-08
2.94552e-09
3.92776e-08
8.97501e-09
3.26729e-08
1.35187e-08
2.45148e-08
1.63492e-08
1.58592e-08
1.71549e-08
7.95668e-09
1.54951e-08
2.23039e-09
1.08752e-08
3.625e-09
-2.32264e-11
2.14511e-10
1.42876e-10
-1.82215e-10
6.21321e-10
-9.56418e-10
1.457e-09
-1.85373e-09
2.65214e-09
-2.75067e-09
4.18417e-09
-3.58385e-09
6.01715e-09
-4.32217e-09
8.10833e-09
-4.95146e-09
1.04121e-08
-5.46675e-09
1.28822e-08
-5.86825e-09
1.54736e-08
-6.15935e-09
1.8143e-08
-6.34555e-09
2.08499e-08
-6.43381e-09
2.35568e-08
-6.43221e-09
2.62301e-08
-6.34964e-09
2.88397e-08
-6.19559e-09
3.13598e-08
-5.97993e-09
3.37687e-08
-5.71273e-09
3.60486e-08
-5.404e-09
3.8186e-08
-5.06361e-09
4.01712e-08
-4.70103e-09
4.19981e-08
-4.32522e-09
4.36642e-08
-3.94449e-09
4.51701e-08
-3.56639e-09
4.6519e-08
-3.19757e-09
4.77165e-08
-2.84376e-09
4.87702e-08
-2.50965e-09
4.96892e-08
-2.19888e-09
5.04835e-08
-1.91397e-09
5.11638e-08
-1.65631e-09
5.17407e-08
-1.42616e-09
5.22246e-08
-1.22261e-09
5.26246e-08
-1.0436e-09
5.29489e-08
-8.85933e-10
5.32034e-08
-7.45306e-10
5.33921e-08
-6.16322e-10
5.35157e-08
-4.92553e-10
5.35722e-08
-3.6656e-10
5.35559e-08
-2.3025e-10
5.34572e-08
-7.453e-11
5.32622e-08
1.10567e-10
5.29527e-08
3.35039e-10
5.25061e-08
6.09707e-10
5.18947e-08
9.45438e-10
5.10863e-08
1.3534e-09
5.00439e-08
1.84476e-09
4.87254e-08
2.43066e-09
4.70842e-08
3.1222e-09
4.50688e-08
3.93032e-09
4.26231e-08
4.86585e-09
3.96863e-08
5.93952e-09
3.61931e-08
7.16199e-09
3.20737e-08
8.54384e-09
2.72539e-08
1.00958e-08
2.16553e-08
1.18278e-08
1.51955e-08
1.37502e-08
7.78772e-09
1.58728e-08
-6.59407e-10
1.82063e-08
-1.02394e-08
2.07588e-08
-2.10479e-08
2.35375e-08
-3.31825e-08
2.65482e-08
-4.67416e-08
2.97942e-08
-6.18228e-08
3.32764e-08
-7.85216e-08
3.69923e-08
-9.69298e-08
4.09358e-08
-1.17133e-07
4.50963e-08
-1.39208e-07
4.94583e-08
-1.63222e-07
5.40012e-08
-1.89231e-07
5.86987e-08
-2.17271e-07
6.35185e-08
-2.47365e-07
6.84228e-08
-2.79513e-07
7.33678e-08
-3.13693e-07
7.83041e-08
-3.49861e-07
8.31771e-08
-3.87943e-07
8.79277e-08
-4.27839e-07
9.24925e-08
-4.69422e-07
9.6805e-08
-5.12535e-07
1.00796e-07
-5.56989e-07
1.04396e-07
-6.02571e-07
1.07533e-07
-6.49036e-07
1.10138e-07
-6.96112e-07
1.1214e-07
-7.43503e-07
1.13473e-07
-7.90888e-07
1.14072e-07
-8.37923e-07
1.13876e-07
-8.84245e-07
1.12828e-07
-9.29473e-07
1.10877e-07
-9.73211e-07
1.07972e-07
-1.01505e-06
1.04073e-07
-1.05457e-06
9.9143e-08
-1.09134e-06
9.31507e-08
-1.12495e-06
8.60733e-08
-1.15494e-06
7.78958e-08
-1.18091e-06
6.86122e-08
-1.20242e-06
5.82272e-08
-1.21907e-06
4.6757e-08
-1.23048e-06
3.42266e-08
-1.2363e-06
2.06399e-08
-1.23617e-06
6.25636e-09
-1.22984e-06
-8.9646e-09
-1.21706e-06
-2.49415e-08
-1.19767e-06
-4.14659e-08
-1.17157e-06
-5.8352e-08
-1.13875e-06
-7.53859e-08
-1.09929e-06
-9.22958e-08
-1.05341e-06
-1.08782e-07
-1.00142e-06
-1.24531e-07
-9.43771e-07
-1.392e-07
-8.81039e-07
-1.52428e-07
-8.13937e-07
-1.63848e-07
-7.43305e-07
-1.73106e-07
-6.70104e-07
-1.79874e-07
-5.95395e-07
-1.83876e-07
-5.20318e-07
-1.84901e-07
-4.4606e-07
-1.82826e-07
-3.73819e-07
-1.77634e-07
-3.04764e-07
-1.6942e-07
-2.3999e-07
-1.58401e-07
-1.80473e-07
-1.44909e-07
-1.27033e-07
-1.29382e-07
-8.03021e-08
-1.12336e-07
-4.06944e-08
-9.43452e-08
-8.40028e-09
-7.60006e-08
1.66168e-08
-5.78805e-08
3.46072e-08
-4.05184e-08
4.60153e-08
-2.43814e-08
5.14535e-08
-9.86041e-09
5.16794e-08
2.71964e-09
4.75754e-08
1.3079e-08
4.01555e-08
2.09386e-08
3.0573e-08
2.59317e-08
2.01571e-08
2.75709e-08
1.04379e-08
2.52142e-08
3.12048e-09
1.81926e-08
6.74549e-09
3.27543e-11
1.81779e-10
3.31841e-10
-4.81305e-10
1.01051e-09
-1.6351e-09
2.11294e-09
-2.95616e-09
3.6407e-09
-4.27841e-09
5.56855e-09
-5.51168e-09
7.85554e-09
-6.60914e-09
1.04521e-08
-7.54801e-09
1.33045e-08
-8.31919e-09
1.6358e-08
-8.9217e-09
1.95583e-08
-9.35964e-09
2.28533e-08
-9.64055e-09
2.61939e-08
-9.77439e-09
2.95345e-08
-9.77291e-09
3.28341e-08
-9.64924e-09
3.6056e-08
-9.41743e-09
3.91682e-08
-9.09217e-09
4.21439e-08
-8.68844e-09
4.49611e-08
-8.22123e-09
4.76028e-08
-7.70527e-09
5.00565e-08
-7.15473e-09
5.23143e-08
-6.58304e-09
5.43725e-08
-6.00262e-09
5.62309e-08
-5.42477e-09
5.78928e-08
-4.85946e-09
5.93642e-08
-4.31525e-09
6.06537e-08
-3.79913e-09
6.17714e-08
-3.31653e-09
6.27286e-08
-2.87115e-09
6.35372e-08
-2.465e-09
6.42094e-08
-2.09836e-09
6.47566e-08
-1.76973e-09
6.51888e-08
-1.47585e-09
6.55147e-08
-1.21175e-09
6.57401e-08
-9.70729e-10
6.58682e-08
-7.44434e-10
6.58986e-08
-5.22935e-10
6.58269e-08
-2.94833e-10
6.56441e-08
-4.75121e-11
6.53365e-08
2.33132e-10
6.48849e-08
5.62143e-10
6.42647e-08
9.55211e-10
6.34455e-08
1.42889e-09
6.23909e-08
2.00005e-09
6.10584e-08
2.68591e-09
5.93994e-08
3.50374e-09
5.73593e-08
4.47082e-09
5.48772e-08
5.60427e-09
5.18865e-08
6.92104e-09
4.83145e-08
8.43787e-09
4.40827e-08
1.01713e-08
3.9107e-08
1.21377e-08
3.32977e-08
1.43531e-08
2.65602e-08
1.68334e-08
1.8794e-08
1.95939e-08
9.89353e-09
2.26507e-08
-2.51246e-10
2.60176e-08
-1.17536e-08
2.97086e-08
-2.47302e-08
3.37354e-08
-3.93002e-08
3.81075e-08
-5.55834e-08
4.28314e-08
-7.36992e-08
4.79101e-08
-9.37648e-08
5.33419e-08
-1.15893e-07
5.91201e-08
-1.40188e-07
6.52315e-08
-1.66748e-07
7.16561e-08
-1.95656e-07
7.8366e-08
-2.2698e-07
8.53253e-08
-2.6077e-07
9.24892e-08
-2.97056e-07
9.98042e-08
-3.35841e-07
1.07208e-07
-3.77102e-07
1.14629e-07
-4.20787e-07
1.21989e-07
-4.6681e-07
1.29201e-07
-5.15055e-07
1.36172e-07
-5.65367e-07
1.42805e-07
-6.17559e-07
1.48997e-07
-6.71407e-07
1.54644e-07
-7.26652e-07
1.59641e-07
-7.83003e-07
1.63884e-07
-8.40135e-07
1.6727e-07
-8.97694e-07
1.69699e-07
-9.55297e-07
1.71076e-07
-1.01254e-06
1.71314e-07
-1.06899e-06
1.70328e-07
-1.12421e-06
1.68044e-07
-1.17772e-06
1.64393e-07
-1.22907e-06
1.59316e-07
-1.27775e-06
1.52761e-07
-1.3233e-06
1.44688e-07
-1.36521e-06
1.35064e-07
-1.40301e-06
1.23869e-07
-1.43621e-06
1.11095e-07
-1.46434e-06
9.67447e-08
-1.48695e-06
8.08401e-08
-1.50361e-06
6.3418e-08
-1.51392e-06
4.45329e-08
-1.51753e-06
2.42482e-08
-1.51408e-06
2.80464e-09
-1.5033e-06
-1.97426e-08
-1.48499e-06
-4.32498e-08
-1.45901e-06
-6.74448e-08
-1.4253e-06
-9.20609e-08
-1.3839e-06
-1.1679e-07
-1.33494e-06
-1.41254e-07
-1.27869e-06
-1.65029e-07
-1.21555e-06
-1.87676e-07
-1.14603e-06
-2.08719e-07
-1.0708e-06
-2.27656e-07
-9.90669e-07
-2.43981e-07
-9.06576e-07
-2.57199e-07
-8.19593e-07
-2.66858e-07
-7.30902e-07
-2.72567e-07
-6.41775e-07
-2.74028e-07
-5.5354e-07
-2.71061e-07
-4.67545e-07
-2.63628e-07
-3.85117e-07
-2.51849e-07
-3.0751e-07
-2.36008e-07
-2.35861e-07
-2.16558e-07
-1.71146e-07
-1.94097e-07
-1.14136e-07
-1.69347e-07
-6.5367e-08
-1.43114e-07
-2.51237e-08
-1.16244e-07
6.5691e-09
-8.95732e-08
2.99384e-08
-6.38877e-08
4.54457e-08
-3.98887e-08
5.37627e-08
-1.81774e-08
5.57459e-08
7.36418e-10
5.24175e-08
1.64074e-08
4.49626e-08
2.83935e-08
3.47307e-08
3.61636e-08
2.32616e-08
3.904e-08
1.2302e-08
3.61738e-08
3.80181e-09
2.66928e-08
1.05473e-08
9.66626e-11
8.50929e-11
5.43582e-10
-9.28251e-10
1.4353e-09
-2.52683e-09
2.81e-09
-4.33086e-09
4.66631e-09
-6.1347e-09
6.9759e-09
-7.82126e-09
9.69353e-09
-9.32675e-09
1.2764e-08
-1.06184e-08
1.61269e-08
-1.16821e-08
1.972e-08
-1.25148e-08
2.34816e-08
-1.31212e-08
2.73518e-08
-1.35107e-08
3.12739e-08
-1.36965e-08
3.51955e-08
-1.36945e-08
3.90687e-08
-1.35224e-08
4.28508e-08
-1.31995e-08
4.65046e-08
-1.2746e-08
4.99985e-08
-1.21824e-08
5.33066e-08
-1.15293e-08
5.64085e-08
-1.08072e-08
5.92892e-08
-1.00354e-08
6.19388e-08
-9.23263e-09
6.43521e-08
-8.41597e-09
6.65284e-08
-7.60099e-09
6.84704e-08
-6.80147e-09
7.01843e-08
-6.02919e-09
7.1679e-08
-5.29378e-09
7.29651e-08
-4.60263e-09
7.40548e-08
-3.96081e-09
7.49607e-08
-3.37094e-09
7.56956e-08
-2.83325e-09
7.62713e-08
-2.34546e-09
7.66983e-08
-1.90284e-09
7.69848e-08
-1.49821e-09
7.7136e-08
-1.12197e-09
7.71538e-08
-7.62197e-10
7.70356e-08
-4.04749e-10
7.67742e-08
-3.34173e-11
7.63568e-08
3.69869e-10
7.57649e-08
8.25086e-10
7.49734e-08
1.35356e-09
7.39509e-08
1.97771e-09
7.26588e-08
2.72105e-09
7.10512e-08
3.60763e-09
6.90752e-08
4.66195e-09
6.66703e-08
5.90865e-09
6.37688e-08
7.37234e-09
6.02956e-08
9.07745e-09
5.61685e-08
1.10481e-08
5.12983e-08
1.33081e-08
4.55887e-08
1.58809e-08
3.8937e-08
1.87894e-08
3.12338e-08
2.20563e-08
2.23635e-08
2.57036e-08
1.22044e-08
2.9753e-08
6.30054e-10
3.4225e-08
-1.24913e-08
3.9139e-08
-2.72949e-08
4.45122e-08
-4.39188e-08
5.03593e-08
-6.25023e-08
5.6691e-08
-8.31845e-08
6.35136e-08
-1.06102e-07
7.08277e-08
-1.31387e-07
7.86268e-08
-1.59163e-07
8.68965e-08
-1.89545e-07
9.56133e-08
-2.22632e-07
1.04743e-07
-2.58506e-07
1.1424e-07
-2.9723e-07
1.24049e-07
-3.38839e-07
1.34098e-07
-3.83342e-07
1.44308e-07
-4.30717e-07
1.54582e-07
-4.80905e-07
1.64817e-07
-5.33813e-07
1.74897e-07
-5.89307e-07
1.84694e-07
-6.47213e-07
1.94078e-07
-7.07316e-07
2.02907e-07
-7.6936e-07
2.11041e-07
-8.33049e-07
2.18334e-07
-8.9805e-07
2.24642e-07
-9.63991e-07
2.29825e-07
-1.03047e-06
2.33747e-07
-1.09705e-06
2.36279e-07
-1.16327e-06
2.37299e-07
-1.22865e-06
2.36696e-07
-1.2927e-06
2.34369e-07
-1.35488e-06
2.30229e-07
-1.41469e-06
2.24198e-07
-1.47158e-06
2.1621e-07
-1.52503e-06
2.06213e-07
-1.57451e-06
1.94168e-07
-1.6195e-06
1.8005e-07
-1.65948e-06
1.63849e-07
-1.69395e-06
1.45571e-07
-1.72245e-06
1.25239e-07
-1.74451e-06
1.02898e-07
-1.7597e-06
7.86149e-08
-1.76765e-06
5.24821e-08
-1.76802e-06
2.46185e-08
-1.76049e-06
-4.73073e-09
-1.74481e-06
-3.5424e-08
-1.72081e-06
-6.72406e-08
-1.68841e-06
-9.98448e-08
-1.64759e-06
-1.32884e-07
-1.59843e-06
-1.65955e-07
-1.54111e-06
-1.98573e-07
-1.47595e-06
-2.30191e-07
-1.40338e-06
-2.60242e-07
-1.32398e-06
-2.88116e-07
-1.23847e-06
-3.13171e-07
-1.14769e-06
-3.34756e-07
-1.05265e-06
-3.5224e-07
-9.54477e-07
-3.65034e-07
-8.54414e-07
-3.7263e-07
-7.5381e-07
-3.74632e-07
-6.54077e-07
-3.70794e-07
-5.56663e-07
-3.61043e-07
-4.63001e-07
-3.4551e-07
-3.74468e-07
-3.24541e-07
-2.92329e-07
-2.98696e-07
-2.17692e-07
-2.68734e-07
-1.51458e-07
-2.35581e-07
-9.42855e-08
-2.00287e-07
-4.65639e-08
-1.63966e-07
-8.39961e-09
-1.27738e-07
2.03832e-08
-9.26706e-08
4.02299e-08
-5.97354e-08
5.18338e-08
-2.97814e-08
5.61113e-08
-3.54107e-09
5.41828e-08
1.83359e-08
4.73598e-08
3.52166e-08
3.71418e-08
4.63815e-08
2.52322e-08
5.09496e-08
1.35527e-08
4.78533e-08
4.27044e-09
3.59751e-08
1.48177e-08
1.63916e-10
-7.88163e-11
7.66172e-10
-1.53051e-09
1.87768e-09
-3.63834e-09
3.52649e-09
-5.97966e-09
5.70597e-09
-8.31417e-09
8.38393e-09
-1.04992e-08
1.15109e-08
-1.24537e-08
1.50269e-08
-1.41344e-08
1.88658e-08
-1.5521e-08
2.29591e-08
-1.66082e-08
2.72385e-08
-1.74006e-08
3.16375e-08
-1.79098e-08
3.60931e-08
-1.81521e-08
4.05464e-08
-1.81478e-08
4.49438e-08
-1.79198e-08
4.92373e-08
-1.7493e-08
5.33847e-08
-1.68934e-08
5.73504e-08
-1.6148e-08
6.11046e-08
-1.52835e-08
6.46239e-08
-1.43265e-08
6.78909e-08
-1.33024e-08
7.08937e-08
-1.22354e-08
7.36257e-08
-1.11479e-08
7.6085e-08
-1.00603e-08
7.82738e-08
-8.99034e-09
8.01982e-08
-7.95351e-09
8.18667e-08
-6.96228e-09
8.32903e-08
-6.02621e-09
8.44812e-08
-5.15175e-09
8.54524e-08
-4.34218e-09
8.62167e-08
-3.59753e-09
8.67858e-08
-2.91455e-09
8.71697e-08
-2.28672e-09
8.73757e-08
-1.70423e-09
8.74079e-08
-1.1541e-09
8.72659e-08
-6.20216e-10
8.69446e-08
-8.34984e-11
8.64333e-08
4.77886e-10
8.57149e-08
1.08833e-09
8.47653e-08
1.77461e-09
8.35535e-08
2.56543e-09
8.20402e-08
3.491e-09
8.01783e-08
4.58292e-09
7.79124e-08
5.87359e-09
7.51783e-08
7.39601e-09
7.19036e-08
9.18335e-09
6.80072e-08
1.12688e-08
6.33995e-08
1.36851e-08
5.79828e-08
1.64648e-08
5.16511e-08
1.96398e-08
4.42905e-08
2.32414e-08
3.57797e-08
2.73002e-08
2.59899e-08
3.18461e-08
1.47857e-08
3.69078e-08
2.0252e-09
4.25135e-08
-1.24387e-08
4.86889e-08
-2.87578e-08
5.54581e-08
-4.70873e-08
6.28417e-08
-6.7584e-08
7.0856e-08
-9.04047e-08
7.95118e-08
-1.15704e-07
8.88131e-08
-1.43632e-07
9.87555e-08
-1.7433e-07
1.09325e-07
-2.07928e-07
1.20495e-07
-2.44542e-07
1.32227e-07
-2.84268e-07
1.44469e-07
-3.27178e-07
1.57151e-07
-3.73318e-07
1.70189e-07
-4.22702e-07
1.83482e-07
-4.75308e-07
1.96914e-07
-5.31077e-07
2.10351e-07
-5.89907e-07
2.23647e-07
-6.51651e-07
2.36641e-07
-7.16117e-07
2.49161e-07
-7.8307e-07
2.6103e-07
-8.52223e-07
2.72061e-07
-9.2325e-07
2.82067e-07
-9.95778e-07
2.90862e-07
-1.0694e-06
2.98261e-07
-1.14366e-06
3.04088e-07
-1.21809e-06
3.08174e-07
-1.29217e-06
3.10364e-07
-1.36539e-06
3.10514e-07
-1.43719e-06
3.08496e-07
-1.50702e-06
3.04197e-07
-1.57431e-06
2.97521e-07
-1.6385e-06
2.88388e-07
-1.69902e-06
2.76736e-07
-1.75533e-06
2.62519e-07
-1.80687e-06
2.4571e-07
-1.85312e-06
2.263e-07
-1.89357e-06
2.04296e-07
-1.92772e-06
1.79728e-07
-1.95513e-06
1.52647e-07
-1.97536e-06
1.23128e-07
-1.98802e-06
9.12743e-08
-1.99276e-06
5.722e-08
-1.98928e-06
2.1137e-08
-1.9773e-06
-1.6708e-08
-1.95663e-06
-5.6094e-08
-1.92715e-06
-9.67239e-08
-1.88879e-06
-1.38199e-07
-1.8416e-06
-1.80081e-07
-1.78568e-06
-2.21873e-07
-1.72126e-06
-2.62991e-07
-1.64868e-06
-3.02772e-07
-1.5684e-06
-3.40522e-07
-1.48102e-06
-3.75502e-07
-1.38725e-06
-4.06935e-07
-1.28798e-06
-4.34028e-07
-1.18421e-06
-4.56007e-07
-1.0771e-06
-4.7215e-07
-9.67901e-07
-4.81823e-07
-8.58008e-07
-4.84526e-07
-7.48874e-07
-4.79928e-07
-6.42002e-07
-4.67914e-07
-5.38903e-07
-4.48609e-07
-4.41043e-07
-4.22402e-07
-3.49791e-07
-3.89947e-07
-2.66372e-07
-3.52153e-07
-1.91808e-07
-3.10145e-07
-1.26879e-07
-2.65216e-07
-7.20865e-08
-2.18758e-07
-2.76335e-08
-1.72191e-07
6.58315e-09
-1.26887e-07
3.0966e-08
-8.41182e-08
4.61998e-08
-4.50151e-08
5.32279e-08
-1.05692e-08
5.32306e-08
1.83331e-08
4.7609e-08
4.08382e-08
3.79762e-08
5.60144e-08
2.6162e-08
6.27638e-08
1.42323e-08
5.9783e-08
4.54207e-09
4.56653e-08
1.93598e-08
2.31449e-10
-3.10293e-10
9.91271e-10
-2.29035e-09
2.32446e-09
-4.97154e-09
4.24592e-09
-7.90113e-09
6.74175e-09
-1.081e-08
9.77485e-09
-1.35323e-08
1.32915e-08
-1.59704e-08
1.7227e-08
-1.80699e-08
2.15105e-08
-1.98044e-08
2.60679e-08
-2.11656e-08
3.08253e-08
-2.2158e-08
3.57106e-08
-2.27951e-08
4.0655e-08
-2.30965e-08
4.55943e-08
-2.30871e-08
5.04696e-08
-2.27952e-08
5.52282e-08
-2.22516e-08
5.98238e-08
-2.1489e-08
6.42166e-08
-2.05409e-08
6.83739e-08
-1.94408e-08
7.22692e-08
-1.82218e-08
7.58827e-08
-1.69159e-08
7.92006e-08
-1.55534e-08
8.22149e-08
-1.41622e-08
8.49224e-08
-1.27678e-08
8.73246e-08
-1.13926e-08
8.94268e-08
-1.00557e-08
9.12374e-08
-8.77284e-09
9.27669e-08
-7.55569e-09
9.40273e-08
-6.4122e-09
9.50314e-08
-5.34619e-09
9.57912e-08
-4.35741e-09
9.63181e-08
-3.44139e-09
9.66208e-08
-2.58947e-09
9.67055e-08
-1.78884e-09
9.65739e-08
-1.02257e-09
9.62235e-08
-2.69765e-10
9.56457e-08
4.94289e-10
9.48257e-08
1.29785e-09
9.37416e-08
2.17246e-09
9.23635e-08
3.1527e-09
9.06533e-08
4.27559e-09
8.85641e-08
5.58024e-09
8.60396e-08
7.10739e-09
8.30143e-08
8.89896e-09
7.94128e-08
1.09975e-08
7.51501e-08
1.3446e-08
7.01318e-08
1.62871e-08
6.42536e-08
1.95633e-08
5.7402e-08
2.33164e-08
4.94545e-08
2.75873e-08
4.02799e-08
3.24161e-08
2.97384e-08
3.78417e-08
1.76827e-08
4.39018e-08
3.9581e-09
5.06325e-08
-1.15964e-08
5.80679e-08
-2.9147e-08
6.62395e-08
-4.8864e-08
7.51751e-08
-7.092e-08
8.48977e-08
-9.5488e-08
9.5424e-08
-1.22739e-07
1.06763e-07
-1.52839e-07
1.18913e-07
-1.85946e-07
1.31863e-07
-2.22207e-07
1.45585e-07
-2.6175e-07
1.60038e-07
-3.04686e-07
1.75163e-07
-3.511e-07
1.90882e-07
-4.01045e-07
2.07096e-07
-4.54543e-07
2.23687e-07
-5.11576e-07
2.40515e-07
-5.72082e-07
2.5742e-07
-6.35954e-07
2.74224e-07
-7.03038e-07
2.90731e-07
-7.73127e-07
3.06729e-07
-8.45964e-07
3.21998e-07
-9.21242e-07
3.36307e-07
-9.98603e-07
3.49422e-07
-1.07764e-06
3.61109e-07
-1.15792e-06
3.71138e-07
-1.23895e-06
3.79286e-07
-1.3202e-06
3.85344e-07
-1.40114e-06
3.89116e-07
-1.4812e-06
3.90424e-07
-1.5598e-06
3.89111e-07
-1.63634e-06
3.85038e-07
-1.71024e-06
3.7809e-07
-1.78089e-06
3.68174e-07
-1.84772e-06
3.55217e-07
-1.91015e-06
3.3917e-07
-1.96764e-06
3.20005e-07
-2.01964e-06
2.97713e-07
-2.06565e-06
2.7231e-07
-2.10519e-06
2.43832e-07
-2.1378e-06
2.12336e-07
-2.16306e-06
1.77907e-07
-2.18058e-06
1.40655e-07
-2.19003e-06
1.00724e-07
-2.1911e-06
5.829e-08
-2.18354e-06
1.35751e-08
-2.16712e-06
-3.31229e-08
-2.14171e-06
-8.15118e-08
-2.10721e-06
-1.31225e-07
-2.0636e-06
-1.81804e-07
-2.01095e-06
-2.32731e-07
-1.9494e-06
-2.83421e-07
-1.87919e-06
-3.33199e-07
-1.80067e-06
-3.81297e-07
-1.71429e-06
-4.26901e-07
-1.62064e-06
-4.69149e-07
-1.52045e-06
-5.07132e-07
-1.41455e-06
-5.3992e-07
-1.30396e-06
-5.66597e-07
-1.18981e-06
-5.86304e-07
-1.07336e-06
-5.98277e-07
-9.55984e-07
-6.01898e-07
-8.39167e-07
-5.96745e-07
-7.24443e-07
-5.82639e-07
-6.1337e-07
-5.59682e-07
-5.07484e-07
-5.28287e-07
-4.08245e-07
-4.89187e-07
-3.16977e-07
-4.43421e-07
-2.34817e-07
-3.92304e-07
-1.62666e-07
-3.37367e-07
-1.01142e-07
-2.80282e-07
-5.0555e-08
-2.22778e-07
-1.08892e-08
-1.66553e-07
1.81941e-08
-1.13202e-07
3.73463e-08
-6.41673e-08
4.75104e-08
-2.07332e-08
4.98968e-08
1.59467e-08
4.59656e-08
4.47694e-08
3.74111e-08
6.45688e-08
2.61617e-08
7.40132e-08
1.44014e-08
7.15433e-08
4.64077e-09
5.54259e-08
2.40006e-08
2.97364e-10
-6.07659e-10
1.21322e-09
-3.20622e-09
2.76615e-09
-6.52447e-09
4.95599e-09
-1.0091e-08
7.75986e-09
-1.36138e-08
1.11348e-08
-1.69072e-08
1.50223e-08
-1.98579e-08
1.93534e-08
-2.2401e-08
2.40525e-08
-2.45034e-08
2.90409e-08
-2.6154e-08
3.42398e-08
-2.73569e-08
3.95719e-08
-2.81272e-08
4.49637e-08
-2.84883e-08
5.03461e-08
-2.84695e-08
5.56558e-08
-2.81049e-08
6.08359e-08
-2.74317e-08
6.58363e-08
-2.64894e-08
7.06138e-08
-2.53184e-08
7.51325e-08
-2.39595e-08
7.93634e-08
-2.24528e-08
8.32846e-08
-2.08371e-08
8.68803e-08
-1.9149e-08
9.01408e-08
-1.74227e-08
9.30618e-08
-1.56888e-08
9.56439e-08
-1.39746e-08
9.78913e-08
-1.23032e-08
9.98118e-08
-1.06933e-08
1.01415e-07
-9.15913e-09
1.02713e-07
-7.70996e-09
1.03717e-07
-6.35012e-09
1.04438e-07
-5.07886e-09
1.04887e-07
-3.89025e-09
1.05071e-07
-2.77317e-09
1.04993e-07
-1.71133e-09
1.04654e-07
-6.83372e-10
1.04047e-07
3.37019e-10
1.03161e-07
1.38087e-09
1.01975e-07
2.48364e-09
1.00463e-07
3.68489e-09
9.85875e-08
5.02787e-09
9.63041e-08
6.55896e-09
9.35572e-08
8.32712e-09
9.02813e-08
1.03834e-08
8.64001e-08
1.27801e-08
8.18269e-08
1.55707e-08
7.64641e-08
1.88088e-08
7.02035e-08
2.25478e-08
6.29261e-08
2.68407e-08
5.45029e-08
3.17395e-08
4.4795e-08
3.72952e-08
3.3654e-08
4.35572e-08
2.09224e-08
5.05732e-08
6.43496e-09
5.83893e-08
-9.98121e-09
6.70486e-08
-2.85049e-08
7.65916e-08
-4.93198e-08
8.70544e-08
-7.26125e-08
9.84678e-08
-9.85706e-08
1.10856e-07
-1.2738e-07
1.24233e-07
-1.59222e-07
1.38605e-07
-1.9427e-07
1.53961e-07
-2.32684e-07
1.70277e-07
-2.74609e-07
1.8751e-07
-3.20169e-07
2.05598e-07
-3.69459e-07
2.24454e-07
-4.22545e-07
2.43968e-07
-4.79455e-07
2.64006e-07
-5.40176e-07
2.84408e-07
-6.04648e-07
3.04987e-07
-6.72762e-07
3.25534e-07
-7.44355e-07
3.45818e-07
-8.19211e-07
3.65587e-07
-8.97058e-07
3.84576e-07
-9.77567e-07
4.02507e-07
-1.06036e-06
4.19098e-07
-1.145e-06
4.34064e-07
-1.23101e-06
4.47124e-07
-1.31788e-06
4.58009e-07
-1.40506e-06
4.66461e-07
-1.49196e-06
4.72243e-07
-1.57798e-06
4.7514e-07
-1.66252e-06
4.7496e-07
-1.74495e-06
4.7154e-07
-1.82465e-06
4.64742e-07
-1.90102e-06
4.5446e-07
-1.97346e-06
4.40613e-07
-2.04139e-06
4.23146e-07
-2.10425e-06
4.02033e-07
-2.16152e-06
3.77272e-07
-2.21269e-06
3.48884e-07
-2.25729e-06
3.16914e-07
-2.29489e-06
2.81432e-07
-2.32509e-06
2.42531e-07
-2.34751e-06
2.00331e-07
-2.36184e-06
1.54979e-07
-2.36777e-06
1.06659e-07
-2.36507e-06
5.55881e-08
-2.35353e-06
2.03285e-09
-2.33298e-06
-5.3675e-08
-2.30331e-06
-1.11183e-07
-2.26447e-06
-1.70063e-07
-2.21647e-06
-2.29802e-07
-2.15938e-06
-2.89815e-07
-2.09337e-06
-3.49436e-07
-2.01866e-06
-4.07908e-07
-1.93558e-06
-4.64372e-07
-1.84459e-06
-5.179e-07
-1.74622e-06
-5.67513e-07
-1.64118e-06