/*--------------------------------*- C++ -*----------------------------------*\
  =========                 |
  \\      /  F ield         | OpenFOAM: The Open Source CFD Toolbox
   \\    /   O peration     | Website:  https://openfoam.org
    \\  /    A nd           | Version:  12
     \\/     M anipulation  |
\*---------------------------------------------------------------------------*/
FoamFile
{
    format      ascii;
    class       volScalarField;
    location    "7";
    object      epsilon;
}
// * * * * * * * * * * * * * * * * * * * * * * * * * * * * * * * * * * * * * //

dimensions      [0 2 -3 0 0 0 0];

internalField   nonuniform List<scalar> 
5625
(
4.00484e-11
2.70696e-10
6.00392e-10
9.88443e-10
1.41398e-09
1.86264e-09
2.32326e-09
2.78688e-09
3.24623e-09
3.69558e-09
4.13066e-09
4.54857e-09
4.94773e-09
5.32777e-09
5.68941e-09
6.03427e-09
6.36476e-09
6.68382e-09
6.99477e-09
7.30114e-09
7.60653e-09
7.91447e-09
8.22834e-09
8.55134e-09
8.8864e-09
9.23618e-09
9.60311e-09
9.98931e-09
1.03967e-08
1.08268e-08
1.12812e-08
1.17609e-08
1.22669e-08
1.27999e-08
1.33603e-08
1.39483e-08
1.45635e-08
1.52055e-08
1.58732e-08
1.65648e-08
1.72781e-08
1.80099e-08
1.87561e-08
1.95113e-08
2.02689e-08
2.10206e-08
2.17564e-08
2.24642e-08
2.31299e-08
2.3737e-08
2.42669e-08
2.46984e-08
2.50063e-08
2.51577e-08
2.5167e-08
2.49902e-08
2.46045e-08
2.39966e-08
2.31598e-08
2.20959e-08
2.08157e-08
1.93402e-08
1.77004e-08
1.5936e-08
1.4093e-08
1.22206e-08
1.03672e-08
8.57717e-09
6.88763e-09
5.32682e-09
3.91419e-09
2.6628e-09
1.58513e-09
7.06196e-10
1.04211e-10
7.56574e-11
1.47058e-10
2.93732e-10
4.73194e-10
6.71976e-10
8.82387e-10
1.09886e-09
1.31702e-09
1.53339e-09
1.74521e-09
1.95045e-09
2.14773e-09
2.33628e-09
2.51591e-09
2.68696e-09
2.85017e-09
3.00667e-09
3.15785e-09
3.30525e-09
3.45055e-09
3.59544e-09
3.74158e-09
3.89059e-09
4.04396e-09
4.2031e-09
4.36927e-09
4.54362e-09
4.72717e-09
4.92081e-09
5.12533e-09
5.34141e-09
5.56959e-09
5.81034e-09
6.06397e-09
6.33068e-09
6.61053e-09
6.90341e-09
7.20901e-09
7.5268e-09
7.85595e-09
8.19531e-09
8.54332e-09
8.89794e-09
9.25657e-09
9.61595e-09
9.97203e-09
1.03199e-08
1.06539e-08
1.0967e-08
1.12515e-08
1.14983e-08
1.16976e-08
1.18372e-08
1.19029e-08
1.19002e-08
1.18093e-08
1.162e-08
1.13263e-08
1.09256e-08
1.04191e-08
9.81229e-09
9.11518e-09
8.3424e-09
7.51243e-09
6.64658e-09
5.7675e-09
4.89754e-09
4.05714e-09
3.26352e-09
2.53002e-09
1.86618e-09
1.27926e-09
7.78003e-10
3.84328e-10
1.96755e-10
1.60618e-10
1.43189e-10
2.26197e-10
3.42298e-10
4.75335e-10
6.18038e-10
7.65846e-10
9.15429e-10
1.06422e-09
1.21023e-09
1.35199e-09
1.48851e-09
1.61923e-09
1.74399e-09
1.86299e-09
1.97675e-09
2.08601e-09
2.19174e-09
2.295e-09
2.39694e-09
2.49873e-09
2.60154e-09
2.70648e-09
2.81462e-09
2.92693e-09
3.04431e-09
3.16758e-09
3.29746e-09
3.4346e-09
3.57955e-09
3.7328e-09
3.89476e-09
4.06573e-09
4.24595e-09
4.43555e-09
4.63456e-09
4.84286e-09
5.06019e-09
5.28612e-09
5.51999e-09
5.76089e-09
6.0076e-09
6.25854e-09
6.51171e-09
6.76464e-09
7.0143e-09
7.25708e-09
7.4887e-09
7.70422e-09
7.89803e-09
8.06385e-09
8.19474e-09
8.2817e-09
8.31735e-09
8.30369e-09
8.22802e-09
8.08433e-09
7.86911e-09
7.58122e-09
7.22211e-09
6.79605e-09
6.31028e-09
5.77487e-09
5.20229e-09
4.60677e-09
4.00329e-09
3.40663e-09
2.83034e-09
2.28607e-09
1.78318e-09
1.32917e-09
9.31307e-10
6.01519e-10
3.73865e-10
4.16668e-10
2.62559e-10
1.71503e-10
2.13757e-10
2.94881e-10
3.94271e-10
5.03663e-10
6.18449e-10
7.35533e-10
8.5264e-10
9.68057e-10
1.08053e-09
1.1892e-09
1.29359e-09
1.39353e-09
1.48916e-09
1.58085e-09
1.6692e-09
1.75495e-09
1.83895e-09
1.92211e-09
2.00537e-09
2.08968e-09
2.17593e-09
2.265e-09
2.35768e-09
2.45471e-09
2.55678e-09
2.66449e-09
2.77837e-09
2.8989e-09
3.02648e-09
3.16145e-09
3.30406e-09
3.4545e-09
3.61285e-09
3.77909e-09
3.95308e-09
4.13453e-09
4.323e-09
4.51783e-09
4.71813e-09
4.92274e-09
5.13017e-09
5.3386e-09
5.54577e-09
5.74901e-09
5.94515e-09
6.13054e-09
6.30106e-09
6.45207e-09
6.57853e-09
6.675e-09
6.73306e-09
6.75092e-09
6.72713e-09
6.65309e-09
6.52488e-09
6.34037e-09
6.09927e-09
5.80325e-09
5.45611e-09
5.06379e-09
4.63427e-09
4.17724e-09
3.70362e-09
3.22487e-09
2.75227e-09
2.29629e-09
1.86614e-09
1.46971e-09
1.11429e-09
8.08692e-10
5.69762e-10
4.45952e-10
6.7821e-10
3.78285e-10
2.15377e-10
2.24909e-10
2.81017e-10
3.5812e-10
4.46511e-10
5.41149e-10
6.38854e-10
7.37396e-10
8.35145e-10
9.30915e-10
1.0239e-09
1.11363e-09
1.19991e-09
1.28283e-09
1.3627e-09
1.43999e-09
1.51534e-09
1.58946e-09
1.66315e-09
1.73721e-09
1.81247e-09
1.88972e-09
1.96973e-09
2.05321e-09
2.14082e-09
2.23318e-09
2.33082e-09
2.43425e-09
2.54388e-09
2.66007e-09
2.78312e-09
2.91325e-09
3.05059e-09
3.19518e-09
3.34694e-09
3.50567e-09
3.67102e-09
3.84247e-09
4.01929e-09
4.20052e-09
4.38494e-09
4.57104e-09
4.75699e-09
4.9406e-09
5.11932e-09
5.29022e-09
5.44999e-09
5.59496e-09
5.72115e-09
5.8243e-09
5.89975e-09
5.93922e-09
5.94569e-09
5.91421e-09
5.83922e-09
5.71789e-09
5.54884e-09
5.33214e-09
5.06946e-09
4.76423e-09
4.42155e-09
4.04819e-09
3.65237e-09
3.24325e-09
2.83053e-09
2.42379e-09
2.03208e-09
1.6636e-09
1.32589e-09
1.02682e-09
7.77278e-10
5.99591e-10
5.56743e-10
9.7129e-10
5.05566e-10
2.69024e-10
2.49452e-10
2.85246e-10
3.45401e-10
4.18607e-10
4.9922e-10
5.83832e-10
6.70134e-10
7.56476e-10
8.41673e-10
9.24912e-10
1.0057e-09
1.08383e-09
1.15933e-09
1.23245e-09
1.3036e-09
1.37334e-09
1.4423e-09
1.51121e-09
1.5808e-09
1.65182e-09
1.72501e-09
1.80107e-09
1.88068e-09
1.96445e-09
2.05297e-09
2.14675e-09
2.24625e-09
2.35186e-09
2.46391e-09
2.58266e-09
2.70829e-09
2.84088e-09
2.9804e-09
3.1267e-09
3.27949e-09
3.43833e-09
3.60258e-09
3.77139e-09
3.9437e-09
4.1182e-09
4.29328e-09
4.46709e-09
4.63745e-09
4.80188e-09
4.95764e-09
5.10169e-09
5.23076e-09
5.3414e-09
5.43005e-09
5.49211e-09
5.52031e-09
5.52039e-09
5.48499e-09
5.41054e-09
5.29472e-09
5.13634e-09
4.93543e-09
4.69333e-09
4.41297e-09
4.09873e-09
3.75661e-09
3.39398e-09
3.01922e-09
2.64132e-09
2.26932e-09
1.91189e-09
1.57711e-09
1.2728e-09
1.00784e-09
7.95715e-10
6.64018e-10
6.90515e-10
1.28826e-09
6.42968e-10
3.29804e-10
2.82886e-10
3.00985e-10
3.47182e-10
4.08455e-10
4.78482e-10
5.53552e-10
6.31209e-10
7.09725e-10
7.87868e-10
8.6479e-10
9.39963e-10
1.01314e-09
1.0843e-09
1.15366e-09
1.22157e-09
1.28853e-09
1.35515e-09
1.42208e-09
1.49002e-09
1.55969e-09
1.63178e-09
1.70697e-09
1.78592e-09
1.86922e-09
1.95742e-09
2.05103e-09
2.15048e-09
2.25614e-09
2.3683e-09
2.48719e-09
2.61292e-09
2.74551e-09
2.88485e-09
3.0307e-09
3.18266e-09
3.34015e-09
3.50241e-09
3.66846e-09
3.83712e-09
4.00695e-09
4.17629e-09
4.34325e-09
4.5057e-09
4.66128e-09
4.80745e-09
4.94148e-09
5.06051e-09
5.16157e-09
5.24172e-09
5.29647e-09
5.31982e-09
5.31807e-09
5.28347e-09
5.21301e-09
5.10444e-09
4.95634e-09
4.76823e-09
4.54083e-09
4.27615e-09
3.97812e-09
3.65225e-09
3.30554e-09
2.94623e-09
2.58337e-09
2.22619e-09
1.88375e-09
1.56468e-09
1.27766e-09
1.03296e-09
8.46559e-10
7.50959e-10
8.39732e-10
1.62362e-09
7.89568e-10
3.96333e-10
3.2285e-10
3.24851e-10
3.5896e-10
4.10345e-10
4.71954e-10
5.39726e-10
6.11021e-10
6.83996e-10
7.57346e-10
8.30163e-10
9.01871e-10
9.72173e-10
1.04102e-09
1.10857e-09
1.17514e-09
1.24121e-09
1.30733e-09
1.37415e-09
1.44233e-09
1.51256e-09
1.58553e-09
1.6619e-09
1.74231e-09
1.82734e-09
1.91755e-09
2.01339e-09
2.1153e-09
2.2236e-09
2.33856e-09
2.46033e-09
2.58898e-09
2.72442e-09
2.86646e-09
3.01473e-09
3.16871e-09
3.32769e-09
3.49075e-09
3.65678e-09
3.82449e-09
3.99235e-09
4.15869e-09
4.32161e-09
4.47912e-09
4.62904e-09
4.7691e-09
4.89694e-09
5.01014e-09
5.1062e-09
5.18265e-09
5.23584e-09
5.25988e-09
5.26078e-09
5.23162e-09
5.16889e-09
5.07e-09
4.93291e-09
4.75639e-09
4.54036e-09
4.28623e-09
3.99715e-09
3.67821e-09
3.33634e-09
2.98003e-09
2.61886e-09
2.26288e-09
1.92204e-09
1.60604e-09
1.32475e-09
1.08999e-09
9.20766e-10
8.53939e-10
1.00005e-09
1.9731e-09
9.44767e-10
4.67812e-10
3.6797e-10
3.54882e-10
3.78169e-10
4.2105e-10
4.75723e-10
5.37745e-10
6.04252e-10
6.73273e-10
7.43402e-10
8.13659e-10
8.83408e-10
9.52303e-10
1.02025e-09
1.08737e-09
1.15396e-09
1.22046e-09
1.28742e-09
1.35544e-09
1.42519e-09
1.49735e-09
1.57259e-09
1.65158e-09
1.73494e-09
1.82326e-09
1.91705e-09
2.01674e-09
2.12273e-09
2.23534e-09
2.35476e-09
2.48109e-09
2.6143e-09
2.75421e-09
2.9005e-09
3.05269e-09
3.21012e-09
3.37193e-09
3.53708e-09
3.70435e-09
3.87236e-09
4.03955e-09
4.20427e-09
4.36475e-09
4.51915e-09
4.66559e-09
4.80213e-09
4.92685e-09
5.03776e-09
5.13286e-09
5.20998e-09
5.26657e-09
5.29706e-09
5.30443e-09
5.28515e-09
5.23403e-09
5.14786e-09
5.02373e-09
4.85937e-09
4.65368e-09
4.40716e-09
4.12233e-09
3.80394e-09
3.45902e-09
3.0966e-09
2.72717e-09
2.36198e-09
2.01239e-09
1.68953e-09
1.40481e-09
1.17182e-09
1.01292e-09
9.69015e-10
1.16867e-09
2.33341e-09
1.10817e-09
5.43755e-10
4.17392e-10
3.89845e-10
4.03197e-10
4.38589e-10
4.87396e-10
5.44784e-10
6.07669e-10
6.73911e-10
7.41985e-10
8.10828e-10
8.79739e-10
9.48316e-10
1.01642e-09
1.08415e-09
1.15176e-09
1.21969e-09
1.28845e-09
1.35864e-09
1.43094e-09
1.50601e-09
1.58453e-09
1.66714e-09
1.75448e-09
1.84711e-09
1.94553e-09
2.0502e-09
2.16146e-09
2.27953e-09
2.40457e-09
2.53658e-09
2.67542e-09
2.82081e-09
2.97229e-09
3.12923e-09
3.29081e-09
3.45604e-09
3.62379e-09
3.79274e-09
3.96148e-09
4.12849e-09
4.29221e-09
4.45104e-09
4.60341e-09
4.7478e-09
4.88275e-09
5.0068e-09
5.11846e-09
5.21616e-09
5.29808e-09
5.36204e-09
5.4041e-09
5.42207e-09
5.41635e-09
5.38034e-09
5.30971e-09
5.20044e-09
5.04906e-09
4.85332e-09
4.61276e-09
4.32921e-09
4.00713e-09
3.65372e-09
3.27871e-09
2.89373e-09
2.5115e-09
2.1451e-09
1.80747e-09
1.51186e-09
1.27386e-09
1.11948e-09
1.09358e-09
1.34364e-09
2.70196e-09
1.2795e-09
6.23852e-10
4.70563e-10
4.28925e-10
4.32979e-10
4.61637e-10
5.05411e-10
5.59041e-10
6.19179e-10
6.83525e-10
7.5044e-10
8.18759e-10
8.87697e-10
9.56795e-10
1.02587e-09
1.09499e-09
1.16439e-09
1.23448e-09
1.30579e-09
1.37893e-09
1.45454e-09
1.53331e-09
1.61589e-09
1.70295e-09
1.7951e-09
1.89286e-09
1.99674e-09
2.10713e-09
2.22433e-09
2.34852e-09
2.47975e-09
2.61793e-09
2.76282e-09
2.91399e-09
3.07084e-09
3.23262e-09
3.39836e-09
3.56696e-09
3.7372e-09
3.90774e-09
4.07717e-09
4.24409e-09
4.4071e-09
4.56491e-09
4.71628e-09
4.86013e-09
4.99546e-09
5.12128e-09
5.23658e-09
5.34012e-09
5.43036e-09
5.50523e-09
5.56194e-09
5.5959e-09
5.60557e-09
5.58747e-09
5.53463e-09
5.44184e-09
5.30428e-09
5.11852e-09
4.88312e-09
4.59917e-09
4.27081e-09
3.90543e-09
3.51344e-09
3.1077e-09
2.70261e-09
2.31317e-09
1.9544e-09
1.64169e-09
1.39289e-09
1.23796e-09
1.22579e-09
1.52352e-09
3.07665e-09
1.4586e-09
7.079e-10
5.27111e-10
4.71554e-10
4.66775e-10
4.89279e-10
5.28675e-10
5.79243e-10
6.37369e-10
7.00565e-10
7.67052e-10
8.35556e-10
9.05217e-10
9.75514e-10
1.04622e-09
1.11737e-09
1.18918e-09
1.26205e-09
1.33651e-09
1.41315e-09
1.49264e-09
1.57564e-09
1.66284e-09
1.75487e-09
1.85232e-09
1.95573e-09
2.06553e-09
2.18208e-09
2.30562e-09
2.43625e-09
2.57392e-09
2.71843e-09
2.86941e-09
3.0263e-09
3.18836e-09
3.3547e-09
3.52425e-09
3.69582e-09
3.86815e-09
4.0399e-09
4.20978e-09
4.37655e-09
4.53909e-09
4.69642e-09
4.84775e-09
4.99245e-09
5.12998e-09
5.25983e-09
5.38135e-09
5.49362e-09
5.59522e-09
5.6841e-09
5.75737e-09
5.81148e-09
5.83867e-09
5.83969e-09
5.80615e-09
5.73101e-09
5.60798e-09
5.43247e-09
5.20203e-09
4.917e-09
4.58113e-09
4.20188e-09
3.79028e-09
3.36038e-09
2.92829e-09
2.51109e-09
2.12611e-09
1.79112e-09
1.52654e-09
1.36655e-09
1.36433e-09
1.70723e-09
3.45583e-09
1.64535e-09
7.95767e-10
5.86782e-10
5.17334e-10
5.04052e-10
5.20859e-10
5.56405e-10
6.04487e-10
6.61197e-10
7.23848e-10
7.90509e-10
8.59793e-10
9.30751e-10
1.0028e-09
1.07566e-09
1.14933e-09
1.22403e-09
1.30014e-09
1.37819e-09
1.45877e-09
1.54256e-09
1.63021e-09
1.72241e-09
1.81977e-09
1.92288e-09
2.03223e-09
2.14822e-09
2.27115e-09
2.40117e-09
2.5383e-09
2.68238e-09
2.83309e-09
2.98992e-09
3.15219e-09
3.31903e-09
3.48942e-09
3.66221e-09
3.83616e-09
4.01002e-09
4.18256e-09
4.35262e-09
4.51921e-09
4.68154e-09
4.83904e-09
4.99134e-09
5.13829e-09
5.27979e-09
5.41572e-09
5.54575e-09
5.66912e-09
5.78448e-09
5.88961e-09
5.98138e-09
6.0558e-09
6.10528e-09
6.12414e-09
6.11066e-09
6.05385e-09
5.94584e-09
5.78094e-09
5.55574e-09
5.26978e-09
4.9263e-09
4.53266e-09
4.10034e-09
3.64445e-09
3.18272e-09
2.73437e-09
2.3192e-09
1.95763e-09
1.67296e-09
1.50386e-09
1.5082e-09
1.89394e-09
3.83818e-09
1.8397e-09
8.87369e-10
6.49395e-10
5.65979e-10
5.44419e-10
5.55888e-10
5.88025e-10
6.34103e-10
6.89905e-10
7.52524e-10
8.19868e-10
8.90426e-10
9.63154e-10
1.0374e-09
1.11284e-09
1.18944e-09
1.26741e-09
1.34712e-09
1.42909e-09
1.51393e-09
1.60231e-09
1.69489e-09
1.79234e-09
1.89527e-09
2.00422e-09
2.11966e-09
2.24192e-09
2.37125e-09
2.50769e-09
2.65118e-09
2.80143e-09
2.95801e-09
3.12027e-09
3.28739e-09
3.4584e-09
3.63218e-09
3.80755e-09
3.98326e-09
4.15813e-09
4.33106e-09
4.50113e-09
4.66765e-09
4.83019e-09
4.98861e-09
5.14299e-09
5.29359e-09
5.44072e-09
5.58456e-09
5.72498e-09
5.86129e-09
5.99203e-09
6.11479e-09
6.22602e-09
6.32102e-09
6.39368e-09
6.43162e-09
6.43665e-09
6.39848e-09
6.30574e-09
6.15185e-09
5.93249e-09
5.64638e-09
5.29611e-09
4.88872e-09
4.43589e-09
3.95353e-09
3.46084e-09
2.97915e-09
2.53082e-09
2.13917e-09
1.83068e-09
1.64888e-09
1.65666e-09
2.08305e-09
4.22273e-09
2.04163e-09
9.82654e-10
7.14824e-10
6.17279e-10
5.87581e-10
5.93998e-10
6.23093e-10
6.67584e-10
7.22914e-10
7.85945e-10
8.54408e-10
9.26658e-10
1.00155e-09
1.07836e-09
1.15672e-09
1.23657e-09
1.31809e-09
1.40167e-09
1.48781e-09
1.57713e-09
1.6703e-09
1.76798e-09
1.87082e-09
1.97942e-09
2.09427e-09
2.2158e-09
2.34428e-09
2.47987e-09
2.62253e-09
2.77208e-09
2.92812e-09
3.09009e-09
3.25721e-09
3.42856e-09
3.60307e-09
3.77957e-09
3.95686e-09
4.13376e-09
4.3092e-09
4.48228e-09
4.65237e-09
4.81911e-09
4.98247e-09
5.1427e-09
5.30033e-09
5.45597e-09
5.61023e-09
5.76351e-09
5.91575e-09
6.06622e-09
6.21329e-09
6.35423e-09
6.48506e-09
6.6006e-09
6.69454e-09
6.75403e-09
6.77481e-09
6.75497e-09
6.67752e-09
6.535e-09
6.32229e-09
6.03728e-09
5.68174e-09
5.26217e-09
4.79013e-09
4.282e-09
3.75822e-09
3.24208e-09
2.75854e-09
2.33402e-09
1.99848e-09
1.80083e-09
1.80916e-09
2.27412e-09
4.60876e-09
2.25116e-09
1.08159e-09
7.8298e-10
6.71077e-10
6.33311e-10
6.34906e-10
6.6127e-10
7.04534e-10
7.59776e-10
8.23605e-10
8.93562e-10
9.6786e-10
1.04525e-09
1.12493e-09
1.20648e-09
1.28982e-09
1.37511e-09
1.46273e-09
1.5532e-09
1.64715e-09
1.74521e-09
1.84807e-09
1.95634e-09
2.07059e-09
2.1913e-09
2.31881e-09
2.45334e-09
2.59494e-09
2.7435e-09
2.89871e-09
3.06006e-09
3.22685e-09
3.39823e-09
3.57315e-09
3.7505e-09
3.92908e-09
4.10774e-09
4.28539e-09
4.46114e-09
4.63435e-09
4.80468e-09
4.97213e-09
5.13707e-09
5.30014e-09
5.46221e-09
5.62419e-09
5.78689e-09
5.9508e-09
6.11583e-09
6.28111e-09
6.44477e-09
6.60372e-09
6.75358e-09
6.8887e-09
7.0023e-09
7.083e-09
7.11857e-09
7.11536e-09
7.05301e-09
6.9221e-09
6.71692e-09
6.43449e-09
6.07569e-09
5.64619e-09
5.1571e-09
4.62491e-09
4.07092e-09
3.52018e-09
3.00024e-09
2.54074e-09
2.17542e-09
1.95911e-09
1.96531e-09
2.46686e-09
4.99584e-09
2.46829e-09
1.18416e-09
8.53797e-10
7.27258e-10
6.81428e-10
6.78392e-10
7.0229e-10
7.4464e-10
8.00132e-10
8.65096e-10
9.36872e-10
1.01352e-09
1.09367e-09
1.17646e-09
1.26141e-09
1.34841e-09
1.43762e-09
1.52941e-09
1.6243e-09
1.72292e-09
1.82591e-09
1.93394e-09
2.0476e-09
2.16742e-09
2.29384e-09
2.42713e-09
2.56745e-09
2.71474e-09
2.8688e-09
3.0292e-09
3.19532e-09
3.36637e-09
3.54138e-09
3.71926e-09
3.89886e-09
4.07901e-09
4.25863e-09
4.43679e-09
4.61282e-09
4.78634e-09
4.95736e-09
5.12623e-09
5.29367e-09
5.46067e-09
5.62836e-09
5.79787e-09
5.97008e-09
6.14548e-09
6.32384e-09
6.50408e-09
6.68401e-09
6.86022e-09
7.02794e-09
7.18114e-09
7.31251e-09
7.41225e-09
7.46357e-09
7.4735e-09
7.42603e-09
7.30678e-09
7.10991e-09
6.83162e-09
6.47177e-09
6.03501e-09
5.53165e-09
4.97785e-09
4.39542e-09
3.81081e-09
3.25404e-09
2.75808e-09
2.36075e-09
2.12326e-09
2.12487e-09
2.66111e-09
5.38373e-09
2.69308e-09
1.29037e-09
9.27229e-10
7.85729e-10
7.31798e-10
7.2428e-10
7.45936e-10
7.87652e-10
8.4369e-10
9.10086e-10
9.83959e-10
1.06321e-09
1.14635e-09
1.23242e-09
1.32092e-09
1.4117e-09
1.50491e-09
1.60092e-09
1.70026e-09
1.80354e-09
1.91143e-09
2.02455e-09
2.14348e-09
2.26872e-09
2.40064e-09
2.53945e-09
2.68523e-09
2.83784e-09
2.99696e-09
3.16206e-09
3.33242e-09
3.50717e-09
3.68525e-09
3.86557e-09
4.04695e-09
4.22831e-09
4.40869e-09
4.58734e-09
4.76384e-09
4.93811e-09
5.11047e-09
5.28164e-09
5.45262e-09
5.62469e-09
5.79915e-09
5.97722e-09
6.15979e-09
6.34722e-09
6.53907e-09
6.73399e-09
6.92947e-09
7.12177e-09
7.3058e-09
7.47528e-09
7.62264e-09
7.7384e-09
7.80523e-09
7.82587e-09
7.79246e-09
7.68463e-09
7.4966e-09
7.22383e-09
6.86511e-09
6.4239e-09
5.90938e-09
5.337e-09
4.72856e-09
4.11157e-09
3.51828e-09
2.98501e-09
2.55389e-09
2.29289e-09
2.2877e-09
2.85682e-09
5.77242e-09
2.92554e-09
1.4002e-09
1.00324e-09
8.46417e-10
7.84317e-10
7.72429e-10
7.92037e-10
8.33361e-10
8.90208e-10
9.58294e-10
1.0345e-09
1.11656e-09
1.20286e-09
1.29235e-09
1.3845e-09
1.47911e-09
1.57635e-09
1.67657e-09
1.78033e-09
1.88822e-09
2.0009e-09
2.11898e-09
2.24301e-09
2.37346e-09
2.51062e-09
2.65465e-09
2.80554e-09
2.96306e-09
3.12679e-09
3.29611e-09
3.47023e-09
3.64818e-09
3.82889e-09
4.01123e-09
4.19411e-09
4.37652e-09
4.55766e-09
4.73702e-09
4.91443e-09
5.0901e-09
5.26468e-09
5.43915e-09
5.61481e-09
5.79308e-09
5.97538e-09
6.16292e-09
6.35648e-09
6.55621e-09
6.76143e-09
6.97047e-09
7.18049e-09
7.38747e-09
7.58606e-09
7.76985e-09
7.9311e-09
8.06043e-09
8.1412e-09
8.17089e-09
8.15016e-09
8.05315e-09
7.87411e-09
7.60788e-09
7.25218e-09
6.80918e-09
6.28667e-09
5.69902e-09
5.06753e-09
4.42028e-09
3.79143e-09
3.22056e-09
2.75434e-09
2.46777e-09
2.45376e-09
3.05405e-09
6.16206e-09
3.16572e-09
1.51366e-09
1.0818e-09
9.09264e-10
8.389e-10
8.22722e-10
8.40447e-10
8.81595e-10
9.39483e-10
1.00948e-09
1.08822e-09
1.17325e-09
1.26283e-09
1.35583e-09
1.45166e-09
1.55013e-09
1.65137e-09
1.75576e-09
1.86384e-09
1.97623e-09
2.09355e-09
2.21642e-09
2.34536e-09
2.48075e-09
2.62288e-09
2.7718e-09
2.92744e-09
3.08947e-09
3.25739e-09
3.43051e-09
3.60796e-09
3.78872e-09
3.97173e-09
4.15588e-09
4.34014e-09
4.52366e-09
4.70582e-09
4.88634e-09
5.06531e-09
5.24324e-09
5.42105e-09
5.59997e-09
5.78146e-09
5.96706e-09
6.15819e-09
6.35596e-09
6.56098e-09
6.77312e-09
6.9914e-09
7.21383e-09
7.43728e-09
7.65745e-09
7.86884e-09
8.06495e-09
8.23796e-09
8.37861e-09
8.47136e-09
8.50873e-09
8.49885e-09
8.41167e-09
8.24131e-09
7.98208e-09
7.63077e-09
7.18822e-09
6.6607e-09
6.06113e-09
5.40984e-09
4.73496e-09
4.07208e-09
3.46388e-09
2.96166e-09
2.64775e-09
2.62304e-09
3.2529e-09
6.55295e-09
3.41364e-09
1.63075e-09
1.1629e-09
9.74223e-10
8.95476e-10
8.75064e-10
8.91047e-10
9.32208e-10
9.91337e-10
1.06344e-09
1.14488e-09
1.23299e-09
1.32593e-09
1.42248e-09
1.522e-09
1.62428e-09
1.72945e-09
1.83791e-09
1.9502e-09
2.06693e-09
2.18873e-09
2.31618e-09
2.44977e-09
2.58986e-09
2.73665e-09
2.89014e-09
3.05018e-09
3.21636e-09
3.38812e-09
3.56469e-09
3.74514e-09
3.92847e-09
4.11361e-09
4.29951e-09
4.48527e-09
4.67018e-09
4.85383e-09
5.03618e-09
5.21758e-09
5.3988e-09
5.58099e-09
5.76556e-09
5.95408e-09
6.1481e-09
6.34897e-09
6.55764e-09
6.77445e-09
6.99899e-09
7.22995e-09
7.46502e-09
7.7008e-09
7.93278e-09
8.15532e-09
8.36191e-09
8.54469e-09
8.69458e-09
8.79731e-09
8.84122e-09
8.83992e-09
8.76124e-09
8.5987e-09
8.34629e-09
8e-09
7.55948e-09
7.02944e-09
6.42107e-09
5.75332e-09
5.05377e-09
4.35891e-09
3.71415e-09
3.17545e-09
2.83274e-09
2.79564e-09
3.45354e-09
6.94546e-09
3.66934e-09
1.75148e-09
1.2465e-09
1.04125e-09
9.53986e-10
9.29374e-10
9.43735e-10
9.85071e-10
1.04562e-09
1.11998e-09
1.20423e-09
1.29552e-09
1.39186e-09
1.49195e-09
1.59511e-09
1.70112e-09
1.81013e-09
1.92252e-09
2.03885e-09
2.15975e-09
2.28582e-09
2.41763e-09
2.55564e-09
2.70016e-09
2.85132e-09
3.00909e-09
3.17322e-09
3.34325e-09
3.51856e-09
3.69833e-09
3.88162e-09
4.06741e-09
4.25469e-09
4.4425e-09
4.63007e-09
4.81686e-09
5.00269e-09
5.18774e-09
5.37261e-09
5.55829e-09
5.7461e-09
5.93758e-09
6.13432e-09
6.33782e-09
6.54929e-09
6.76944e-09
6.99834e-09
7.23524e-09
7.47851e-09
7.72554e-09
7.9727e-09
8.2153e-09
8.44762e-09
8.66314e-09
8.85399e-09
9.0112e-09
9.12184e-09
9.17182e-09
9.17619e-09
9.10443e-09
8.94828e-09
8.70175e-09
8.36029e-09
7.92252e-09
7.39169e-09
6.77717e-09
6.09613e-09
5.37503e-09
4.65063e-09
3.97059e-09
3.39536e-09
3.02267e-09
2.97163e-09
3.6562e-09
7.34004e-09
3.93282e-09
1.87584e-09
1.3326e-09
1.11032e-09
1.01438e-09
9.85583e-10
9.98419e-10
1.04007e-09
1.10218e-09
1.17892e-09
1.26608e-09
1.36059e-09
1.46033e-09
1.56391e-09
1.67063e-09
1.78027e-09
1.89296e-09
2.00913e-09
2.12933e-09
2.25419e-09
2.38432e-09
2.52027e-09
2.66246e-09
2.81115e-09
2.96644e-09
3.12822e-09
3.2962e-09
3.46987e-09
3.64855e-09
3.8314e-09
4.01747e-09
4.2058e-09
4.39542e-09
4.58549e-09
4.77539e-09
4.96478e-09
5.15367e-09
5.34247e-09
5.53199e-09
5.7234e-09
5.91814e-09
6.1178e-09
6.32394e-09
6.53796e-09
6.76084e-09
6.99303e-09
7.23428e-09
7.48354e-09
7.73886e-09
7.99735e-09
8.25517e-09
8.5075e-09
8.74856e-09
8.97185e-09
9.16946e-09
9.33254e-09
9.44928e-09
9.50402e-09
9.51201e-09
9.44512e-09
9.2934e-09
9.05105e-09
8.71326e-09
8.27794e-09
7.74709e-09
7.12832e-09
6.43678e-09
5.69724e-09
4.94601e-09
4.23239e-09
3.621e-09
3.21746e-09
3.15113e-09
3.86107e-09
7.73716e-09
4.20409e-09
2.00383e-09
1.42117e-09
1.1814e-09
1.07661e-09
1.04363e-09
1.05502e-09
1.09711e-09
1.16089e-09
1.24011e-09
1.33023e-09
1.42797e-09
1.53106e-09
1.63806e-09
1.74823e-09
1.86134e-09
1.97755e-09
2.09731e-09
2.22119e-09
2.34982e-09
2.4838e-09
2.62367e-09
2.76981e-09
2.92247e-09
3.08168e-09
3.24729e-09
3.41896e-09
3.59614e-09
3.77813e-09
3.96408e-09
4.15306e-09
4.34416e-09
4.53651e-09
4.7294e-09
4.92235e-09
5.11522e-09
5.30822e-09
5.50196e-09
5.69743e-09
5.89591e-09
6.09893e-09
6.30805e-09
6.52478e-09
6.75029e-09
6.98537e-09
7.23016e-09
7.4841e-09
7.74581e-09
8.01306e-09
8.28272e-09
8.55078e-09
8.8123e-09
9.06148e-09
9.29179e-09
9.49531e-09
9.66326e-09
9.78454e-09
9.8425e-09
9.85255e-09
9.78822e-09
9.63851e-09
9.39793e-09
9.0617e-09
8.62742e-09
8.0962e-09
7.47411e-09
6.77417e-09
6.01905e-09
5.24385e-09
4.49871e-09
3.85196e-09
3.417e-09
3.33424e-09
4.06838e-09
8.13726e-09
4.48314e-09
2.13543e-09
1.5122e-09
1.25444e-09
1.14063e-09
1.10346e-09
1.11346e-09
1.15608e-09
1.22164e-09
1.3034e-09
1.3965e-09
1.49744e-09
1.60381e-09
1.71411e-09
1.82758e-09
1.94399e-09
2.06355e-09
2.18671e-09
2.31407e-09
2.44626e-09
2.58391e-09
2.72751e-09
2.87743e-09
3.03389e-09
3.19687e-09
3.36621e-09
3.5415e-09
3.7222e-09
3.90756e-09
4.09678e-09
4.28896e-09
4.48326e-09
4.67891e-09
4.87534e-09
5.07224e-09
5.26965e-09
5.46796e-09
5.66794e-09
5.87072e-09
6.07767e-09
6.29033e-09
6.51021e-09
6.73865e-09
6.97665e-09
7.22471e-09
7.48268e-09
7.74969e-09
8.02407e-09
8.30334e-09
8.58415e-09
8.86233e-09
9.13288e-09
9.38994e-09
9.62698e-09
9.83602e-09
1.00083e-08
1.01329e-08
1.01927e-08
1.02035e-08
1.01393e-08
9.98891e-09
9.74709e-09
9.40943e-09
8.97364e-09
8.44045e-09
7.81478e-09
7.10767e-09
6.33934e-09
5.54298e-09
4.76867e-09
4.08776e-09
3.62116e-09
3.52103e-09
4.27829e-09
8.54072e-09
4.76995e-09
2.27062e-09
1.60565e-09
1.32944e-09
1.20641e-09
1.16502e-09
1.17368e-09
1.21691e-09
1.2843e-09
1.36864e-09
1.4647e-09
1.56877e-09
1.67832e-09
1.79178e-09
1.90838e-09
2.02792e-09
2.15063e-09
2.277e-09
2.40765e-09
2.54324e-09
2.68438e-09
2.83156e-09
2.98514e-09
3.1453e-09
3.31201e-09
3.48505e-09
3.66402e-09
3.84834e-09
4.03731e-09
4.23012e-09
4.42596e-09
4.62404e-09
4.82374e-09
5.02462e-09
5.22652e-09
5.42966e-09
5.63458e-09
5.84219e-09
6.05371e-09
6.27055e-09
6.49421e-09
6.7261e-09
6.96738e-09
7.21883e-09
7.48066e-09
7.75244e-09
8.033e-09
8.32041e-09
8.61196e-09
8.90413e-09
9.19265e-09
9.4724e-09
9.73751e-09
9.98143e-09
1.0196e-08
1.03726e-08
1.04996e-08
1.05602e-08
1.05708e-08
1.05045e-08
1.03505e-08
1.0104e-08
9.76115e-09
9.3202e-09
8.78214e-09
8.15132e-09
7.43714e-09
6.65727e-09
5.84232e-09
5.04135e-09
4.32785e-09
3.82972e-09
3.7115e-09
4.49095e-09
8.94785e-09
5.06448e-09
2.40939e-09
1.70151e-09
1.40635e-09
1.2739e-09
1.22825e-09
1.23561e-09
1.27949e-09
1.34876e-09
1.43567e-09
1.53466e-09
1.64178e-09
1.75437e-09
1.87083e-09
1.99038e-09
2.11285e-09
2.23853e-09
2.36793e-09
2.50171e-09
2.64054e-09
2.78505e-09
2.93573e-09
3.09291e-09
3.25674e-09
3.4272e-09
3.60404e-09
3.78686e-09
3.97508e-09
4.16801e-09
4.3649e-09
4.565e-09
4.76764e-09
4.97229e-09
5.17867e-09
5.38676e-09
5.59693e-09
5.80986e-09
6.02654e-09
6.24826e-09
6.4764e-09
6.71241e-09
6.95754e-09
7.21276e-09
7.47861e-09
7.75501e-09
8.04126e-09
8.33593e-09
8.63686e-09
8.94114e-09
9.24512e-09
9.54443e-09
9.83388e-09
1.01076e-08
1.03589e-08
1.05796e-08
1.07606e-08
1.08899e-08
1.09507e-08
1.09602e-08
1.08899e-08
1.07295e-08
1.04747e-08
1.01223e-08
9.67157e-09
9.12447e-09
8.4855e-09
7.76302e-09
6.97228e-09
6.14087e-09
5.31579e-09
4.57157e-09
4.04239e-09
3.90562e-09
4.70643e-09
9.35882e-09
5.36668e-09
2.5517e-09
1.79975e-09
1.48514e-09
1.34307e-09
1.29312e-09
1.29919e-09
1.34376e-09
1.41492e-09
1.50438e-09
1.60621e-09
1.71625e-09
1.83173e-09
1.95101e-09
2.07332e-09
2.19855e-09
2.32701e-09
2.45928e-09
2.59606e-09
2.73804e-09
2.88586e-09
3.04e-09
3.2008e-09
3.36839e-09
3.54274e-09
3.7236e-09
3.91056e-09
4.10307e-09
4.30048e-09
4.50209e-09
4.70724e-09
4.91534e-09
5.126e-09
5.33905e-09
5.55464e-09
5.77322e-09
5.9956e-09
6.22284e-09
6.4562e-09
6.69705e-09
6.94671e-09
7.20628e-09
7.47651e-09
7.75767e-09
8.04946e-09
8.35088e-09
8.66029e-09
8.97532e-09
9.29292e-09
9.60935e-09
9.92012e-09
1.022e-08
1.05031e-08
1.07627e-08
1.09902e-08
1.11766e-08
1.13085e-08
1.13694e-08
1.13773e-08
1.13014e-08
1.11321e-08
1.08653e-08
1.04987e-08
1.00329e-08
9.47141e-09
8.81985e-09
8.08636e-09
7.28425e-09
6.4378e-09
5.59101e-09
4.8182e-09
4.2588e-09
4.10327e-09
4.92473e-09
9.77368e-09
5.67648e-09
2.69752e-09
1.90034e-09
1.56577e-09
1.41388e-09
1.35957e-09
1.36434e-09
1.40961e-09
1.48265e-09
1.57461e-09
1.6792e-09
1.79202e-09
1.91021e-09
2.03211e-09
2.157e-09
2.2848e-09
2.4159e-09
2.55092e-09
2.69062e-09
2.8357e-09
2.98683e-09
3.14449e-09
3.30902e-09
3.48056e-09
3.65906e-09
3.84427e-09
4.03582e-09
4.23317e-09
4.43572e-09
4.64284e-09
4.85394e-09
5.06856e-09
5.2864e-09
5.50742e-09
5.73188e-09
5.96034e-09
6.19365e-09
6.43291e-09
6.67937e-09
6.9343e-09
7.19887e-09
7.47402e-09
7.76028e-09
8.05766e-09
8.36561e-09
8.68292e-09
9.00773e-09
9.33753e-09
9.66914e-09
9.99874e-09
1.03218e-08
1.06331e-08
1.09266e-08
1.11955e-08
1.14311e-08
1.16239e-08
1.17594e-08
1.18207e-08
1.1827e-08
1.17445e-08
1.15643e-08
1.12822e-08
1.08966e-08
1.04098e-08
9.82765e-09
9.15766e-09
8.4089e-09
7.59351e-09
6.7325e-09
5.86606e-09
5.06692e-09
4.47845e-09
4.30423e-09
5.14574e-09
1.01923e-08
5.99378e-09
2.84679e-09
2.00323e-09
1.64823e-09
1.48629e-09
1.42756e-09
1.43101e-09
1.47698e-09
1.55186e-09
1.64624e-09
1.75345e-09
1.86889e-09
1.98961e-09
2.11396e-09
2.24124e-09
2.37146e-09
2.50508e-09
2.64279e-09
2.78537e-09
2.93359e-09
3.08812e-09
3.24945e-09
3.41794e-09
3.59371e-09
3.77673e-09
3.96678e-09
4.16348e-09
4.36636e-09
4.57486e-09
4.78842e-09
5.00654e-09
5.22885e-09
5.45516e-09
5.68553e-09
5.92031e-09
6.16012e-09
6.40587e-09
6.65862e-09
6.91957e-09
7.18989e-09
7.47059e-09
7.7624e-09
8.06564e-09
8.38009e-09
8.70496e-09
9.03886e-09
9.37974e-09
9.72498e-09
1.00713e-08
1.04149e-08
1.07512e-08
1.10749e-08
1.13799e-08
1.16593e-08
1.19043e-08
1.21049e-08
1.22455e-08
1.23083e-08
1.23133e-08
1.22241e-08
1.20316e-08
1.17312e-08
1.13221e-08
1.08084e-08
1.01985e-08
9.50294e-09
8.73306e-09
7.90088e-09
7.02461e-09
6.14001e-09
5.31682e-09
4.70076e-09
4.5082e-09
5.3693e-09
1.06144e-08
6.3185e-09
2.99948e-09
2.10839e-09
1.73245e-09
1.56025e-09
1.49702e-09
1.49913e-09
1.54577e-09
1.62244e-09
1.71913e-09
1.82882e-09
1.94671e-09
2.06978e-09
2.19638e-09
2.32591e-09
2.45844e-09
2.59451e-09
2.73488e-09
2.88041e-09
3.03188e-09
3.18998e-09
3.35525e-09
3.52802e-09
3.70845e-09
3.89651e-09
4.092e-09
4.29458e-09
4.50381e-09
4.71921e-09
4.94027e-09
5.16659e-09
5.39788e-09
5.63403e-09
5.87519e-09
6.12177e-09
6.37445e-09
6.63411e-09
6.90179e-09
7.17859e-09
7.46555e-09
7.76351e-09
8.07299e-09
8.3941e-09
8.72639e-09
9.06889e-09
9.42001e-09
9.7776e-09
1.01389e-08
1.05007e-08
1.0859e-08
1.12094e-08
1.15465e-08
1.18642e-08
1.21556e-08
1.24114e-08
1.26214e-08
1.27691e-08
1.28349e-08
1.28393e-08
1.2744e-08
1.25386e-08
1.22179e-08
1.17814e-08
1.12347e-08
1.05895e-08
9.86032e-09
9.06194e-09
8.20779e-09
7.31414e-09
6.41208e-09
5.56695e-09
4.92504e-09
4.71475e-09
5.5951e-09
1.10394e-08
6.65052e-09
3.15551e-09
2.21577e-09
1.81841e-09
1.63573e-09
1.56791e-09
1.56864e-09
1.61589e-09
1.69427e-09
1.79316e-09
1.90517e-09
2.02532e-09
2.15056e-09
2.27927e-09
2.41092e-09
2.54569e-09
2.6842e-09
2.82731e-09
2.9759e-09
3.13083e-09
3.29281e-09
3.46237e-09
3.63989e-09
3.82553e-09
4.01927e-09
4.22096e-09
4.43028e-09
4.64684e-09
4.87021e-09
5.09997e-09
5.33578e-09
5.57741e-09
5.82485e-09
6.0783e-09
6.3382e-09
6.60524e-09
6.88029e-09
7.16428e-09
7.45822e-09
7.76298e-09
8.07924e-09
8.40731e-09
8.74708e-09
9.09791e-09
9.45864e-09
9.82756e-09
1.02024e-08
1.05803e-08
1.09581e-08
1.13319e-08
1.16972e-08
1.20486e-08
1.23802e-08
1.26847e-08
1.29529e-08
1.3174e-08
1.33311e-08
1.3402e-08
1.3407e-08
1.3307e-08
1.30891e-08
1.27469e-08
1.22798e-08
1.16948e-08
1.10067e-08
1.02349e-08
9.39927e-09
8.51625e-09
7.6015e-09
6.68161e-09
5.81634e-09
5.15051e-09
4.92337e-09
5.82275e-09
1.14667e-08
6.98968e-09
3.31482e-09
2.32532e-09
1.90605e-09
1.71267e-09
1.64015e-09
1.63947e-09
1.68727e-09
1.76726e-09
1.8682e-09
1.98236e-09
2.10461e-09
2.23185e-09
2.36253e-09
2.49623e-09
2.63323e-09
2.77426e-09
2.92024e-09
3.07215e-09
3.23086e-09
3.39711e-09
3.57148e-09
3.75434e-09
3.94587e-09
4.14609e-09
4.35487e-09
4.57192e-09
4.79692e-09
5.02947e-09
5.26923e-09
5.51591e-09
5.76936e-09
6.02959e-09
6.29686e-09
6.57159e-09
6.85449e-09
7.14633e-09
7.44796e-09
7.76024e-09
8.08389e-09
8.41939e-09
8.76686e-09
9.12597e-09
9.49591e-09
9.87537e-09
1.02625e-08
1.0655e-08
1.105e-08
1.14443e-08
1.18341e-08
1.22148e-08
1.25815e-08
1.29278e-08
1.32467e-08
1.35287e-08
1.37625e-08
1.39316e-08
1.401e-08
1.40174e-08
1.39147e-08
1.36857e-08
1.3322e-08
1.28221e-08
1.21941e-08
1.14559e-08
1.06322e-08
9.74938e-09