/*--------------------------------*- C++ -*----------------------------------*\
  =========                 |
  \\      /  F ield         | OpenFOAM: The Open Source CFD Toolbox
   \\    /   O peration     | Website:  https://openfoam.org
    \\  /    A nd           | Version:  12
     \\/     M anipulation  |
\*---------------------------------------------------------------------------*/
FoamFile
{
    format      ascii;
    class       volScalarField;
    location    "7";
    object      k;
}
// * * * * * * * * * * * * * * * * * * * * * * * * * * * * * * * * * * * * * //

dimensions      [0 2 -2 0 0 0 0];

internalField   nonuniform List<scalar> 
5625
(
8.8197e-15
5.96144e-14
1.32222e-13
2.17681e-13
3.11396e-13
4.10201e-13
5.11644e-13
6.13745e-13
7.14906e-13
8.13865e-13
9.09681e-13
1.00172e-12
1.08962e-12
1.17332e-12
1.25296e-12
1.32891e-12
1.40169e-12
1.47195e-12
1.54043e-12
1.6079e-12
1.67516e-12
1.74297e-12
1.8121e-12
1.88323e-12
1.95702e-12
2.03405e-12
2.11486e-12
2.19991e-12
2.28962e-12
2.38435e-12
2.48441e-12
2.59006e-12
2.7015e-12
2.81888e-12
2.94229e-12
3.07177e-12
3.20727e-12
3.34866e-12
3.49569e-12
3.64801e-12
3.80509e-12
3.96626e-12
4.13058e-12
4.2969e-12
4.46375e-12
4.62929e-12
4.79133e-12
4.94721e-12
5.09381e-12
5.22752e-12
5.34422e-12
5.43924e-12
5.50704e-12
5.54038e-12
5.54244e-12
5.5035e-12
5.41857e-12
5.28468e-12
5.10041e-12
4.8661e-12
4.58416e-12
4.25922e-12
3.89809e-12
3.50953e-12
3.10365e-12
2.69129e-12
2.28313e-12
1.88892e-12
1.51684e-12
1.17311e-12
8.62008e-13
5.86418e-13
3.49087e-13
1.55523e-13
2.29501e-14
6.6647e-14
5.30864e-13
1.18632e-12
1.95631e-12
2.80023e-12
3.68975e-12
4.60288e-12
5.52184e-12
6.43225e-12
7.32277e-12
8.18494e-12
9.01302e-12
9.80389e-12
1.05568e-11
1.12732e-11
1.19564e-11
1.2611e-11
1.32429e-11
1.38588e-11
1.44656e-11
1.50705e-11
1.56804e-11
1.63021e-11
1.69418e-11
1.76055e-11
1.82984e-11
1.90252e-11
1.97903e-11
2.05972e-11
2.14494e-11
2.23494e-11
2.32998e-11
2.43022e-11
2.53582e-11
2.64684e-11
2.76332e-11
2.88522e-11
3.01241e-11
3.14468e-11
3.28172e-11
3.42304e-11
3.56805e-11
3.7159e-11
3.86555e-11
4.01569e-11
4.16467e-11
4.31051e-11
4.45082e-11
4.58281e-11
4.70322e-11
4.80835e-11
4.89401e-11
4.9552e-11
4.98518e-11
4.98697e-11
4.95175e-11
4.87511e-11
4.75442e-11
4.58839e-11
4.37735e-11
4.12348e-11
3.83095e-11
3.50591e-11
3.15621e-11
2.79099e-11
2.41998e-11
2.05278e-11
1.69817e-11
1.36349e-11
1.05432e-11
7.74495e-12
5.26574e-12
3.12961e-12
1.38391e-12
1.73323e-13
1.41489e-13
1.21166e-12
2.72541e-12
4.5038e-12
6.45257e-12
8.5063e-12
1.06142e-11
1.27352e-11
1.48362e-11
1.6891e-11
1.888e-11
2.079e-11
2.26139e-11
2.435e-11
2.60017e-11
2.75765e-11
2.90854e-11
3.05421e-11
3.19617e-11
3.33606e-11
3.47551e-11
3.61615e-11
3.75953e-11
3.90711e-11
4.06023e-11
4.22012e-11
4.38788e-11
4.56448e-11
4.75079e-11
4.94756e-11
5.15543e-11
5.37493e-11
5.60648e-11
5.85041e-11
6.10691e-11
6.37603e-11
6.65767e-11
6.95156e-11
7.25719e-11
7.57379e-11
7.9003e-11
8.23525e-11
8.57674e-11
8.92231e-11
9.26891e-11
9.61273e-11
9.94917e-11
1.02727e-10
1.05769e-10
1.08541e-10
1.1096e-10
1.12928e-10
1.1433e-10
1.15003e-10
1.15041e-10
1.14221e-10
1.12444e-10
1.0965e-10
1.05811e-10
1.00933e-10
9.50681e-11
8.83114e-11
8.08054e-11
7.2732e-11
6.43021e-11
5.57407e-11
4.72699e-11
3.9092e-11
3.13763e-11
2.42512e-11
1.78041e-11
1.20929e-11
7.17206e-12
3.15104e-12
3.67045e-13
2.31289e-13
2.02991e-12
4.58802e-12
7.59733e-12
1.08957e-11
1.43715e-11
1.79384e-11
2.1527e-11
2.50809e-11
2.8556e-11
3.1919e-11
3.51477e-11
3.823e-11
4.11632e-11
4.39531e-11
4.66129e-11
4.91611e-11
5.1621e-11
5.40186e-11
5.63814e-11
5.87373e-11
6.1114e-11
6.35376e-11
6.6033e-11
6.86229e-11
7.1328e-11
7.41669e-11
7.71562e-11
8.03105e-11
8.36423e-11
8.71626e-11
9.08804e-11
9.48027e-11
9.89349e-11
1.0328e-10
1.07839e-10
1.1261e-10
1.17587e-10
1.22763e-10
1.28123e-10
1.3365e-10
1.39317e-10
1.45093e-10
1.50936e-10
1.56792e-10
1.62599e-10
1.68277e-10
1.73734e-10
1.78861e-10
1.8353e-10
1.87598e-10
1.90907e-10
1.93255e-10
1.9436e-10
1.94418e-10
1.93021e-10
1.90004e-10
1.8527e-10
1.78769e-10
1.70513e-10
1.60586e-10
1.4915e-10
1.36446e-10
1.22782e-10
1.08518e-10
9.40341e-11
7.97094e-11
6.58869e-11
5.28533e-11
4.08247e-11
2.99473e-11
2.03167e-11
1.20239e-11
5.25708e-12
5.97439e-13
3.33234e-13
2.95391e-12
6.69961e-12
1.11138e-11
1.59546e-11
2.10563e-11
2.62913e-11
3.15572e-11
3.6771e-11
4.18678e-11
4.67987e-11
5.15312e-11
5.60476e-11
6.03443e-11
6.44301e-11
6.83243e-11
7.2055e-11
7.56564e-11
7.91668e-11
8.26271e-11
8.60784e-11
8.95613e-11
9.31145e-11
9.67743e-11
1.00574e-10
1.04544e-10
1.08712e-10
1.13102e-10
1.17735e-10
1.2263e-10
1.27803e-10
1.33265e-10
1.39029e-10
1.451e-10
1.51483e-10
1.58179e-10
1.65185e-10
1.72491e-10
1.80086e-10
1.87947e-10
1.96047e-10
2.04348e-10
2.12802e-10
2.21346e-10
2.29904e-10
2.38381e-10
2.46663e-10
2.54615e-10
2.62078e-10
2.68869e-10
2.74783e-10
2.79588e-10
2.82987e-10
2.8456e-10
2.84641e-10
2.82588e-10
2.78169e-10
2.71239e-10
2.61722e-10
2.49631e-10
2.35086e-10
2.18321e-10
1.9969e-10
1.79645e-10
1.58716e-10
1.37468e-10
1.16462e-10
9.62044e-11
7.71177e-11
5.95184e-11
4.36183e-11
2.95539e-11
1.74564e-11
7.60503e-12
8.55615e-13
4.45356e-13
3.96655e-12
9.01862e-12
1.49832e-11
2.15288e-11
2.84286e-11
3.55086e-11
4.26292e-11
4.96778e-11
5.65659e-11
6.32276e-11
6.96187e-11
7.57155e-11
8.15136e-11
8.70253e-11
9.22775e-11
9.73084e-11
1.02165e-10
1.069e-10
1.11568e-10
1.16226e-10
1.20929e-10
1.25729e-10
1.30676e-10
1.35814e-10
1.41184e-10
1.46824e-10
1.52766e-10
1.59037e-10
1.65664e-10
1.72666e-10
1.80061e-10
1.87862e-10
1.96078e-10
2.04712e-10
2.13766e-10
2.23232e-10
2.33099e-10
2.43346e-10
2.53944e-10
2.64853e-10
2.76021e-10
2.87381e-10
2.98849e-10
3.10321e-10
3.21671e-10
3.32748e-10
3.43372e-10
3.53333e-10
3.6239e-10
3.70273e-10
3.76678e-10
3.81199e-10
3.8327e-10
3.83386e-10
3.80641e-10
3.74718e-10
3.65421e-10
3.5264e-10
3.36383e-10
3.16801e-10
2.94206e-10
2.69067e-10
2.42002e-10
2.1373e-10
1.85025e-10
1.56653e-10
1.29308e-10
1.03566e-10
7.98561e-11
5.84611e-11
3.95599e-11
2.33258e-11
1.01351e-11
1.13484e-12
5.66394e-13
5.05753e-12
1.15196e-11
1.91616e-11
2.75546e-11
3.64043e-11
4.54854e-11
5.46173e-11
6.36544e-11
7.24828e-11
8.10174e-11
8.92017e-11
9.70055e-11
1.04424e-10
1.11473e-10
1.18188e-10
1.2462e-10
1.30829e-10
1.36883e-10
1.42855e-10
1.48816e-10
1.54837e-10
1.60986e-10
1.67326e-10
1.73914e-10
1.80803e-10
1.8804e-10
1.95664e-10
2.03714e-10
2.12218e-10
2.21204e-10
2.3069e-10
2.40694e-10
2.51223e-10
2.62283e-10
2.7387e-10
2.85974e-10
2.98577e-10
3.11649e-10
3.25152e-10
3.39032e-10
3.53219e-10
3.67629e-10
3.82153e-10
3.9666e-10
4.10993e-10
4.24963e-10
4.38347e-10
4.50887e-10
4.62284e-10
4.72202e-10
4.80268e-10
4.85961e-10
4.88565e-10
4.88744e-10
4.85308e-10
4.77842e-10
4.66088e-10
4.49893e-10
4.2925e-10
4.04335e-10
3.75533e-10
3.43441e-10
3.08846e-10
2.7268e-10
2.35945e-10
1.99637e-10
1.6466e-10
1.31761e-10
1.01495e-10
7.422e-11
5.01603e-11
2.95307e-11
1.2805e-11
1.43026e-12
6.95535e-13
6.22021e-12
1.41862e-11
2.36203e-11
3.39897e-11
4.4927e-11
5.61509e-11
6.7436e-11
7.86011e-11
8.9504e-11
1.00039e-10
1.10137e-10
1.1976e-10
1.28903e-10
1.37587e-10
1.45857e-10
1.53777e-10
1.61423e-10
1.6888e-10
1.76237e-10
1.83585e-10
1.91012e-10
1.986e-10
2.06427e-10
2.14564e-10
2.23076e-10
2.32019e-10
2.41442e-10
2.51389e-10
2.61896e-10
2.72994e-10
2.84704e-10
2.97044e-10
3.10022e-10
3.2364e-10
3.37891e-10
3.52759e-10
3.68217e-10
3.84225e-10
4.00732e-10
4.17668e-10
4.34949e-10
4.52467e-10
4.70093e-10
4.8767e-10
5.05009e-10
5.21888e-10
5.38045e-10
5.53175e-10
5.66926e-10
5.789e-10
5.88653e-10
5.95558e-10
5.98735e-10
5.99017e-10
5.94926e-10
5.85926e-10
5.71692e-10
5.52015e-10
5.26862e-10
4.96427e-10
4.61164e-10
4.21797e-10
3.79292e-10
3.34805e-10
2.89586e-10
2.44881e-10
2.01826e-10
1.61358e-10
1.24167e-10
9.0699e-11
6.12227e-11
3.59949e-11
1.5583e-11
1.73811e-12
8.32251e-13
7.45014e-12
1.70075e-11
2.83402e-11
4.08054e-11
5.3958e-11
6.74561e-11
8.10262e-11
9.4448e-11
1.07549e-10
1.20202e-10
1.32322e-10
1.43865e-10
1.54826e-10
1.65232e-10
1.75138e-10
1.84622e-10
1.93778e-10
2.0271e-10
2.11526e-10
2.20335e-10
2.29242e-10
2.38348e-10
2.47746e-10
2.57519e-10
2.67744e-10
2.78488e-10
2.89808e-10
3.01754e-10
3.14367e-10
3.2768e-10
3.41718e-10
3.56496e-10
3.7202e-10
3.88289e-10
4.05288e-10
4.22992e-10
4.41365e-10
4.60356e-10
4.79897e-10
4.99905e-10
5.20276e-10
5.40886e-10
5.61582e-10
5.82185e-10
6.02481e-10
6.22217e-10
6.41097e-10
6.58776e-10
6.74852e-10
6.88867e-10
7.00306e-10
7.08449e-10
7.1224e-10
7.12664e-10
7.07973e-10
6.97479e-10
6.80784e-10
6.57618e-10
6.2791e-10
5.91864e-10
5.49997e-10
5.03157e-10
4.52494e-10
3.99391e-10
3.45359e-10
2.91912e-10
2.40433e-10
1.92066e-10
1.47655e-10
1.07742e-10
7.26435e-11
4.26588e-11
1.84443e-11
2.05552e-12
9.76194e-13
8.74435e-12
1.99764e-11
3.33083e-11
4.79823e-11
6.34707e-11
7.93672e-11
9.53462e-11
1.11146e-10
1.26561e-10
1.41439e-10
1.55682e-10
1.69237e-10
1.821e-10
1.94303e-10
2.05916e-10
2.17032e-10
2.27763e-10
2.38232e-10
2.48569e-10
2.58903e-10
2.69357e-10
2.8005e-10
2.91089e-10
3.02573e-10
3.14588e-10
3.27212e-10
3.40509e-10
3.54535e-10
3.69334e-10
3.84941e-10
4.01379e-10
4.18662e-10
4.36792e-10
4.55759e-10
4.75541e-10
4.96103e-10
5.17395e-10
5.39354e-10
5.61897e-10
5.84925e-10
6.08319e-10
6.31936e-10
6.55607e-10
6.79134e-10
7.02281e-10
7.24773e-10
7.46284e-10
7.66432e-10
7.84771e-10
8.00785e-10
8.13888e-10
8.23276e-10
8.27703e-10
8.28304e-10
8.23059e-10
8.11115e-10
7.92001e-10
7.65376e-10
7.31129e-10
6.89463e-10
6.40955e-10
5.86568e-10
5.27631e-10
4.65754e-10
4.02714e-10
3.40297e-10
2.80148e-10
2.23638e-10
1.7178e-10
1.25222e-10
8.43395e-11
4.94747e-11
2.13687e-11
2.38017e-12
1.12712e-12
1.01009e-11
2.3088e-11
3.85162e-11
5.55072e-11
7.34468e-11
9.18605e-11
1.10367e-10
1.28659e-10
1.46497e-10
1.63702e-10
1.8016e-10
1.95811e-10
2.1065e-10
2.2472e-10
2.38102e-10
2.50907e-10
2.63266e-10
2.75327e-10
2.87239e-10
2.99151e-10
3.11208e-10
3.23545e-10
3.36286e-10
3.49541e-10
3.63409e-10
3.77975e-10
3.9331e-10
4.09476e-10
4.26516e-10
4.44467e-10
4.63349e-10
4.8317e-10
5.03925e-10
5.25597e-10
5.48152e-10
5.71543e-10
5.95707e-10
6.20566e-10
6.46025e-10
6.71968e-10
6.98264e-10
7.24756e-10
7.51262e-10
7.77569e-10
8.03428e-10
8.28543e-10
8.52565e-10
8.75079e-10
8.95597e-10
9.13545e-10
9.28267e-10
9.38874e-10
9.43932e-10
9.44717e-10
9.38941e-10
9.25576e-10
9.04083e-10
8.74051e-10
8.35324e-10
7.88103e-10
7.33011e-10
6.71121e-10
6.03924e-10
5.33251e-10
4.61134e-10
3.89638e-10
3.20677e-10
2.5586e-10
1.96388e-10
1.43035e-10
9.62436e-11
5.64047e-11
2.43401e-11
2.71024e-12
1.28489e-12
1.15184e-11
2.63394e-11
4.39582e-11
6.33716e-11
8.38745e-11
1.0492e-10
1.26068e-10
1.46963e-10
1.67327e-10
1.86954e-10
2.05712e-10
2.23535e-10
2.40419e-10
2.56414e-10
2.71618e-10
2.8616e-10
3.00194e-10
3.1389e-10
3.2742e-10
3.40956e-10
3.54661e-10
3.68688e-10
3.83177e-10
3.9825e-10
4.14018e-10
4.30572e-10
4.47989e-10
4.66331e-10
4.85644e-10
5.05961e-10
5.27298e-10
5.49656e-10
5.73022e-10
5.97366e-10
6.22642e-10
6.48792e-10
6.75737e-10
7.03387e-10
7.31632e-10
7.60348e-10
7.89391e-10
8.18594e-10
8.47769e-10
8.76694e-10
9.05107e-10
9.327e-10
9.59102e-10
9.83867e-10
1.00646e-09
1.02626e-09
1.04253e-09
1.05428e-09
1.05992e-09
1.06087e-09
1.05454e-09
1.03975e-09
1.01591e-09
9.82527e-10
9.39413e-10
8.8676e-10
8.25228e-10
7.55982e-10
6.80661e-10
6.01294e-10
5.20157e-10
4.39583e-10
3.6176e-10
2.88549e-10
2.21355e-10
1.61096e-10
1.08302e-10
6.34183e-11
2.73455e-11
3.04426e-12
1.44939e-12
1.29962e-11
2.97287e-11
4.96311e-11
7.15701e-11
9.4746e-11
1.18536e-10
1.42436e-10
1.6604e-10
1.89028e-10
2.11167e-10
2.32305e-10
2.52367e-10
2.71354e-10
2.89326e-10
3.06395e-10
3.22714e-10
3.3846e-10
3.53825e-10
3.69007e-10
3.842e-10
3.99587e-10
4.15339e-10
4.3161e-10
4.48536e-10
4.66234e-10
4.84804e-10
5.04325e-10
5.2486e-10
5.46454e-10
5.69134e-10
5.92909e-10
6.17773e-10
6.43701e-10
6.70651e-10
6.98564e-10
7.27368e-10
7.56973e-10
7.87274e-10
8.18153e-10
8.49476e-10
8.81093e-10
9.12835e-10
9.44508e-10
9.75884e-10
1.0067e-09
1.03662e-09
1.06527e-09
1.09216e-09
1.11672e-09
1.13826e-09
1.15597e-09
1.16875e-09
1.17488e-09
1.17592e-09
1.16897e-09
1.15272e-09
1.12653e-09
1.08986e-09
1.04247e-09
9.84557e-10
9.16798e-10
8.40433e-10
7.57224e-10
6.69376e-10
5.79382e-10
4.8983e-10
4.03181e-10
3.21553e-10
2.46577e-10
1.7934e-10
1.20474e-10
7.04918e-11
3.03749e-11
3.38108e-12
1.6206e-12
1.4534e-11
3.3255e-11
5.55331e-11
8.00999e-11
1.06057e-10
1.327e-10
1.59461e-10
1.85876e-10
2.11583e-10
2.36317e-10
2.59907e-10
2.82271e-10
3.03412e-10
3.23402e-10
3.42372e-10
3.60498e-10
3.77981e-10
3.9504e-10
4.11898e-10
4.28771e-10
4.45864e-10
4.63363e-10
4.81439e-10
5.00236e-10
5.19881e-10
5.40477e-10
5.62106e-10
5.8483e-10
6.08689e-10
6.33705e-10
6.59879e-10
6.87192e-10
7.15608e-10
7.45072e-10
7.75513e-10
8.06845e-10
8.38967e-10
8.71766e-10
9.05115e-10
9.38877e-10
9.729e-10
1.00701e-09
1.04102e-09
1.0747e-09
1.10777e-09
1.1399e-09
1.17066e-09
1.19956e-09
1.22595e-09
1.2491e-09
1.26811e-09
1.28175e-09
1.28822e-09
1.28926e-09
1.28155e-09
1.26378e-09
1.23522e-09
1.19531e-09
1.14378e-09
1.0808e-09
1.00707e-09
9.23895e-10
8.33116e-10
7.37083e-10
6.38482e-10
5.40135e-10
4.44763e-10
3.54753e-10
2.71977e-10
1.97716e-10
1.32728e-10
7.76074e-11
3.34205e-11
3.71983e-12
1.79848e-12
1.61315e-11
3.6918e-11
6.16637e-11
8.89598e-11
1.17805e-10
1.47411e-10
1.77137e-10
2.06463e-10
2.34979e-10
2.62386e-10
2.88493e-10
3.13212e-10
3.36549e-10
3.5859e-10
3.79487e-10
3.99439e-10
4.18676e-10
4.37445e-10
4.55992e-10
4.74558e-10
4.93369e-10
5.12627e-10
5.32515e-10
5.5319e-10
5.74783e-10
5.974e-10
6.21125e-10
6.46016e-10
6.72107e-10
6.99413e-10
7.27923e-10
7.57609e-10
7.88421e-10
8.20292e-10
8.53138e-10
8.86863e-10
9.21356e-10
9.56498e-10
9.9216e-10
1.0282e-09
1.06448e-09
1.10082e-09
1.13703e-09
1.17288e-09
1.20809e-09
1.2423e-09
1.27506e-09
1.30584e-09
1.33393e-09
1.35854e-09
1.37869e-09
1.39296e-09
1.3996e-09
1.4005e-09
1.39186e-09
1.37246e-09
1.3415e-09
1.29839e-09
1.24284e-09
1.175e-09
1.0956e-09
1.00595e-09
9.07967e-10
8.04107e-10
6.97211e-10
5.9031e-10
4.86374e-10
3.88059e-10
2.97498e-10
2.16188e-10
1.45042e-10
8.47529e-11
3.64768e-11
4.05989e-12
1.98306e-12
1.77888e-11
4.07179e-11
6.80229e-11
9.81495e-11
1.29989e-10
1.62665e-10
1.95461e-10
2.27793e-10
2.59203e-10
2.89355e-10
3.18039e-10
3.45157e-10
3.70723e-10
3.94839e-10
4.17678e-10
4.39467e-10
4.60466e-10
4.80948e-10
5.01189e-10
5.21451e-10
5.4198e-10
5.62998e-10
5.84697e-10
6.07242e-10
6.30772e-10
6.55393e-10
6.81187e-10
7.08207e-10
7.36482e-10
7.66016e-10
7.96789e-10
8.28759e-10
8.61865e-10
8.96028e-10
9.31154e-10
9.67137e-10
1.00386e-09
1.04121e-09
1.07905e-09
1.11725e-09
1.15565e-09
1.19411e-09
1.23242e-09
1.27035e-09
1.3076e-09
1.3438e-09
1.37846e-09
1.41099e-09
1.44064e-09
1.46653e-09
1.48764e-09
1.50231e-09
1.50889e-09
1.5095e-09
1.49973e-09
1.47856e-09
1.44514e-09
1.39885e-09
1.33939e-09
1.26691e-09
1.18212e-09
1.08634e-09
9.81543e-10
8.7024e-10
7.554e-10
6.40227e-10
5.27924e-10
4.21414e-10
3.23105e-10
2.34736e-10
1.57403e-10
9.19208e-11
3.95403e-11
4.40086e-12
2.17433e-12
1.95062e-11
4.4655e-11
7.46112e-11
1.0767e-10
1.42609e-10
1.78461e-10
2.14429e-10
2.4986e-10
2.84244e-10
3.17208e-10
3.48518e-10
3.78073e-10
4.05892e-10
4.32096e-10
4.56883e-10
4.8051e-10
5.03267e-10
5.25459e-10
5.47386e-10
5.69338e-10
5.91579e-10
6.14345e-10
6.37843e-10
6.62243e-10
6.87686e-10
7.14282e-10
7.42106e-10
7.71209e-10
8.01609e-10
8.33302e-10
8.66256e-10
9.00417e-10
9.35715e-10
9.72059e-10
1.00935e-09
1.04747e-09
1.08631e-09
1.12575e-09
1.16566e-09
1.20592e-09
1.24638e-09
1.28688e-09
1.32722e-09
1.36718e-09
1.40641e-09
1.44453e-09
1.481e-09
1.51516e-09
1.54622e-09
1.57323e-09
1.5951e-09
1.60991e-09
1.61626e-09
1.61635e-09
1.60524e-09
1.58215e-09
1.5462e-09
1.49672e-09
1.43343e-09
1.35648e-09
1.26655e-09
1.16499e-09
1.05374e-09
9.35381e-10
8.12955e-10
6.89811e-10
5.69359e-10
4.54784e-10
3.48779e-10
2.53351e-10
1.69808e-10
9.91083e-11
4.26095e-11
4.74256e-12
2.37234e-12
2.12839e-11
4.873e-11
8.14297e-11
1.17521e-10
1.55667e-10
1.948e-10
2.34038e-10
2.72658e-10
3.10091e-10
3.45926e-10
3.79905e-10
4.11924e-10
4.42011e-10
4.70306e-10
4.97037e-10
5.22493e-10
5.46996e-10
5.70883e-10
5.94483e-10
6.1811e-10
6.42046e-10
6.66544e-10
6.91818e-10
7.18048e-10
7.45375e-10
7.73908e-10
8.03719e-10
8.3485e-10
8.67313e-10
9.01092e-10
9.36146e-10
9.72411e-10
1.00981e-09
1.04823e-09
1.08759e-09
1.12776e-09
1.16863e-09
1.21008e-09
1.252e-09
1.29427e-09
1.33674e-09
1.37926e-09
1.42163e-09
1.46359e-09
1.50479e-09
1.54478e-09
1.58298e-09
1.61869e-09
1.65102e-09
1.67897e-09
1.70138e-09
1.7161e-09
1.72214e-09
1.72138e-09
1.70873e-09
1.68357e-09
1.64497e-09
1.59227e-09
1.5252e-09
1.44389e-09
1.34903e-09
1.24195e-09
1.12458e-09
9.9952e-10
8.69852e-10
7.39037e-10
6.10662e-10
4.88161e-10
3.7452e-10
2.72037e-10
1.82259e-10
1.06316e-10
4.56843e-11
5.08496e-12
2.57712e-12
2.31222e-11
5.29434e-11
8.84792e-11
1.27706e-10
1.69163e-10
2.1168e-10
2.54286e-10
2.9618e-10
3.36732e-10
3.75489e-10
4.12172e-10
4.46673e-10
4.79031e-10
5.09411e-10
5.38073e-10
5.65339e-10
5.91567e-10
6.17127e-10
6.42378e-10
6.67657e-10
6.93266e-10
7.1947e-10
7.46496e-10
7.74525e-10
8.03701e-10
8.3413e-10
8.6588e-10
8.98986e-10
9.3345e-10
9.69248e-10
1.00633e-09
1.04462e-09
1.08404e-09
1.12447e-09
1.16583e-09
1.20798e-09
1.25083e-09
1.29427e-09
1.33818e-09
1.38246e-09
1.42696e-09
1.47153e-09
1.51595e-09
1.55993e-09
1.6031e-09
1.64495e-09
1.68485e-09
1.72201e-09
1.75551e-09
1.78424e-09
1.80701e-09
1.82142e-09
1.82706e-09
1.82516e-09
1.8108e-09
1.78338e-09
1.74202e-09
1.68602e-09
1.61514e-09
1.52952e-09
1.42985e-09
1.31743e-09
1.19421e-09
1.06273e-09
9.26128e-10
7.87918e-10
6.5184e-10
5.21555e-10
4.00339e-10
2.90803e-10
1.94764e-10
1.13549e-10
4.8766e-11
5.4282e-12
2.7887e-12
2.50213e-11
5.72959e-11
9.57607e-11
1.38223e-10
1.83096e-10
2.29101e-10
2.75169e-10
3.20416e-10
3.64151e-10
4.05874e-10
4.45287e-10
4.82278e-10
5.16902e-10
5.49351e-10
5.79919e-10
6.08968e-10
6.36893e-10
6.64097e-10
6.90971e-10
7.17874e-10
7.45128e-10
7.73011e-10
8.01758e-10
8.31554e-10
8.62543e-10
8.94828e-10
9.28472e-10
9.63503e-10
9.99915e-10
1.03768e-09
1.07673e-09
1.11699e-09
1.15837e-09
1.20077e-09
1.24409e-09
1.28821e-09
1.33304e-09
1.37848e-09
1.42442e-09
1.47075e-09
1.51735e-09
1.56404e-09
1.61058e-09
1.65665e-09
1.70183e-09
1.74557e-09
1.78715e-09
1.82573e-09
1.8603e-09
1.88971e-09
1.91269e-09
1.92662e-09
1.93175e-09
1.92849e-09
1.91223e-09
1.88239e-09
1.83811e-09
1.77868e-09
1.7039e-09
1.61393e-09
1.50946e-09
1.39179e-09
1.26285e-09
1.12517e-09
9.81871e-10
8.36507e-10
6.92924e-10
5.54988e-10
4.26259e-10
3.0967e-10
2.07336e-10
1.20813e-10
5.18569e-11
5.77253e-12
3.00709e-12
2.69815e-11
6.17881e-11
1.03275e-10
1.49075e-10
1.97468e-10
2.47061e-10
2.96681e-10
3.45359e-10
3.92332e-10
4.37057e-10
4.79215e-10
5.18694e-10
5.55567e-10
5.90059e-10
6.22502e-10
6.53299e-10
6.82885e-10
7.117e-10
7.40163e-10
7.68659e-10
7.97529e-10
8.27062e-10
8.575e-10
8.89032e-10
9.21801e-10
9.55907e-10
9.91407e-10
1.02832e-09
1.06664e-09
1.10633e-09
1.14731e-09
1.18951e-09
1.23284e-09
1.2772e-09
1.32249e-09
1.3686e-09
1.41546e-09
1.46296e-09
1.51101e-09
1.55951e-09
1.60832e-09
1.65724e-09
1.70602e-09
1.75428e-09
1.80156e-09
1.84723e-09
1.89052e-09
1.93051e-09
1.96611e-09
1.99612e-09
2.01922e-09
2.03256e-09
2.0371e-09
2.03229e-09
2.01397e-09
1.98155e-09
1.93416e-09
1.87113e-09
1.79228e-09
1.69781e-09
1.58844e-09
1.46548e-09
1.33084e-09
1.18706e-09
1.03722e-09
8.8488e-10
7.33962e-10
5.88495e-10
4.52305e-10
3.28658e-10
2.19991e-10
1.28118e-10
5.49604e-11
6.1183e-12
3.23234e-12
2.9003e-11
6.64202e-11
1.11022e-10
1.60261e-10
2.12278e-10
2.65557e-10
3.18817e-10
3.70994e-10
4.21255e-10
4.6901e-10
5.13918e-10
5.55872e-10
5.94969e-10
6.31468e-10
6.65746e-10
6.98249e-10
7.29456e-10
7.59842e-10
7.8986e-10
8.19918e-10
8.50374e-10
8.8153e-10
9.13633e-10
9.46875e-10
9.81398e-10
1.0173e-09
1.05463e-09
1.09341e-09
1.13361e-09
1.1752e-09
1.21811e-09
1.26226e-09
1.30755e-09
1.3539e-09
1.4012e-09
1.44938e-09
1.49836e-09
1.54804e-09
1.59835e-09
1.64916e-09
1.70034e-09
1.75165e-09
1.80282e-09
1.85342e-09
1.90291e-09
1.95061e-09
1.99568e-09
2.03711e-09
2.07376e-09
2.10436e-09
2.12752e-09
2.14021e-09
2.1441e-09
2.13763e-09
2.11712e-09
2.08194e-09
2.03126e-09
1.9644e-09
1.88124e-09
1.78201e-09
1.6675e-09
1.53905e-09
1.3986e-09
1.24868e-09
1.09235e-09
9.33142e-10
7.75013e-10
6.22113e-10
4.78509e-10
3.47793e-10
2.32747e-10
1.35473e-10
5.80799e-11
6.46589e-12
3.46444e-12
3.10859e-11
7.11926e-11
1.19003e-10
1.71782e-10
2.27524e-10
2.84585e-10
3.41567e-10
3.97308e-10
4.50897e-10
5.01699e-10
5.49352e-10
5.9376e-10
6.35044e-10
6.73508e-10
7.09573e-10
7.43735e-10
7.76518e-10
8.08437e-10
8.39975e-10
8.71565e-10
9.03581e-10
9.36337e-10
9.70085e-10
1.00502e-09
1.04128e-09
1.07897e-09
1.11812e-09
1.15875e-09
1.20085e-09
1.24436e-09
1.28921e-09
1.33534e-09
1.38265e-09
1.43106e-09
1.48048e-09
1.53085e-09
1.58209e-09
1.63412e-09
1.68686e-09
1.74018e-09
1.79392e-09
1.84784e-09
1.90158e-09
1.95469e-09
2.00656e-09
2.05642e-09
2.10338e-09
2.14634e-09
2.18411e-09
2.21533e-09
2.23855e-09
2.25061e-09
2.25384e-09
2.24563e-09
2.22283e-09
2.18475e-09
2.13056e-09
2.0596e-09
1.97179e-09
1.86745e-09
1.74743e-09
1.61315e-09
1.46662e-09
1.31038e-09
1.14747e-09
9.81416e-10
8.16144e-10
6.55884e-10
5.049e-10
3.67098e-10
2.45622e-10
1.42888e-10
6.12193e-11
6.81571e-12
3.70341e-12
3.32303e-11
7.61051e-11
1.27216e-10
1.83635e-10
2.43202e-10
3.04138e-10
3.64921e-10
4.24282e-10
4.81232e-10
5.35087e-10
5.85472e-10
6.323e-10
6.75728e-10
7.16103e-10
7.53903e-10
7.89674e-10
8.23988e-10
8.574e-10
8.90426e-10
9.23521e-10
9.57079e-10
9.91421e-10
1.02681e-09
1.06343e-09
1.10143e-09
1.14091e-09
1.18189e-09
1.22441e-09
1.26842e-09
1.31389e-09
1.36075e-09
1.40894e-09
1.45836e-09
1.50895e-09
1.56064e-09
1.61336e-09
1.66705e-09
1.72164e-09
1.77703e-09
1.83309e-09
1.88964e-09
1.94638e-09
2.00292e-09
2.05875e-09
2.11318e-09
2.16539e-09
2.21439e-09
2.25903e-09
2.29803e-09
2.33e-09
2.3533e-09
2.3648e-09
2.36739e-09
2.35745e-09
2.33229e-09
2.29117e-09
2.23325e-09
2.15789e-09
2.06505e-09
1.95514e-09
1.8291e-09
1.6885e-09
1.53544e-09
1.37254e-09
1.20284e-09
1.02985e-09
8.57433e-10
6.89848e-10
5.31504e-10
3.86594e-10
2.5863e-10
1.50373e-10
6.43822e-11
7.16816e-12
3.94922e-12
3.54359e-11
8.11575e-11
1.35662e-10
1.9582e-10
2.5931e-10
3.2421e-10
3.88866e-10
4.51896e-10
5.1223e-10
5.69136e-10
6.22226e-10
6.71431e-10
7.16949e-10
7.5918e-10
7.98657e-10
8.35985e-10
8.71785e-10
9.06654e-10
9.41141e-10
9.75725e-10
1.01081e-09
1.04674e-09
1.08377e-09
1.12209e-09
1.16186e-09
1.20315e-09
1.24601e-09
1.29045e-09
1.33645e-09
1.38396e-09
1.43292e-09
1.48327e-09
1.53495e-09
1.58789e-09
1.64202e-09
1.6973e-09
1.75368e-09
1.81106e-09
1.86937e-09
1.92844e-09
1.98805e-09
2.04788e-09
2.10748e-09
2.16626e-09
2.22348e-09
2.27824e-09
2.32947e-09
2.37597e-09
2.41639e-09
2.44928e-09
2.47271e-09
2.48382e-09
2.48584e-09
2.4742e-09
2.44666e-09
2.40239e-09
2.34052e-09
2.26045e-09
2.16214e-09
2.04611e-09
1.91346e-09
1.76589e-09
1.60569e-09
1.4356e-09
1.25876e-09
1.0786e-09
8.98961e-10
7.24043e-10
5.58343e-10
4.06299e-10
2.71786e-10
1.57935e-10
6.75719e-11
7.52357e-12
4.20188e-12
3.77027e-11
8.63493e-11
1.44339e-10
2.08333e-10
2.75842e-10
3.44791e-10
4.13385e-10
4.80126e-10
5.43857e-10
6.038e-10
6.59559e-10
7.1109e-10
7.58637e-10
8.0266e-10
8.43756e-10
8.82589e-10
9.19834e-10
9.56131e-10
9.92059e-10
1.02812e-09
1.06475e-09
1.10227e-09
1.14097e-09
1.18103e-09
1.2226e-09
1.26576e-09
1.31056e-09
1.35701e-09
1.40508e-09
1.45474e-09
1.50595e-09
1.55863e-09
1.61274e-09
1.66822e-09
1.72503e-09
1.78312e-09
1.84244e-09
1.90291e-09
1.96441e-09
2.02678e-09
2.08975e-09
2.15295e-09
2.21587e-09
2.27786e-09
2.33812e-09
2.39566e-09
2.44935e-09
2.49793e-09
2.53998e-09
2.574e-09
2.59776e-09
2.60865e-09
2.61017e-09
2.59694e-09
2.56703e-09
2.51953e-09
2.45353e-09
2.3684e-09
2.26417e-09
2.14143e-09
2.00144e-09
1.84614e-09
1.67803e-09
1.50008e-09
1.31554e-09
1.12787e-09
9.40822e-10
7.58507e-10
5.85432e-10
4.26223e-10
2.851e-10
1.65582e-10
7.07906e-11
7.88221e-12
4.46133e-12
4.00303e-11
9.16796e-11
1.53246e-10
2.21171e-10
2.92792e-10
3.6587e-10
4.38461e-10
5.08943e-10
5.76073e-10
6.39029e-10
6.97413e-10
7.51209e-10
8.00719e-10
8.46468e-10
8.89123e-10
9.29413e-10
9.68067e-10
1.00577e-09
1.04313e-09
1.08069e-09
1.11886e-09
1.15802e-09
1.19843e-09
1.24028e-09
1.28372e-09
1.32884e-09
1.37567e-09
1.42424e-09
1.47453e-09
1.5265e-09
1.58011e-09
1.63531e-09
1.69207e-09
1.75034e-09
1.81009e-09
1.87127e-09
1.93382e-09
1.99767e-09
2.06269e-09
2.12866e-09
2.19529e-09
2.26215e-09
2.32868e-09
2.39416e-09
2.45772e-09
2.5183e-09
2.57471e-09
2.62561e-09
2.66954e-09
2.70492e-09
2.72926e-09
2.74014e-09
2.74128e-09
2.72659e-09
2.69438e-09
2.64361e-09
2.57332e-09
2.48284e-09
2.37221e-09
2.24213e-09
2.09403e-09
1.93011e-09
1.75318e-09
1.56651e-09
1.37356e-09
1.17787e-09
9.83118e-10
7.93278e-10
6.12783e-10
4.46371e-10
2.98576e-10
1.73318e-10
7.404e-11
8.24424e-12
4.72754e-12
4.24182e-11
9.71473e-11
1.62379e-10
2.3433e-10
3.10151e-10
3.87432e-10
4.64071e-10
5.38318e-10
6.08839e-10
6.74772e-10
7.35723e-10
7.91717e-10
8.43117e-10
8.90525e-10
9.34683e-10
9.76387e-10
1.01642e-09
1.05552e-09
1.09433e-09
1.13339e-09
1.17317e-09
1.21401e-09
1.25619e-09
1.29992e-09
1.34533e-09
1.39252e-09
1.44152e-09
1.49236e-09
1.54503e-09
1.59949e-09
1.65572e-09
1.71368e-09
1.77334e-09
1.83467e-09
1.89764e-09
1.96221e-09
2.02832e-09
2.09588e-09
2.16472e-09
2.23461e-09
2.30521e-09
2.37603e-09
2.44646e-09
2.51571e-09
2.58284e-09
2.64673e-09
2.70612e-09
2.75962e-09
2.80568e-09
2.84267e-09
2.86791e-09
2.87901e-09
2.8799e-09
2.86394e-09
2.82953e-09
2.7755e-09
2.7008e-09
2.6047e-09
2.48724e-09
2.34919e-09
2.19217e-09
2.01867e-09
1.83189e-09
1.63549e-09
1.43324e-09
1.22885e-09
1.02597e-09
8.28395e-10
6.40398e-10
4.66741e-10
3.12215e-10
1.81142e-10
7.73205e-11
8.60969e-12
5.00044e-12
4.4866e-11
1.02751e-10
1.71737e-10
2.47805e-10
3.2791e-10
4.09462e-10
4.90192e-10
5.68214e-10
6.42107e-10
7.10971e-10
7.74424e-10
8.32541e-10
8.85758e-10
9.34758e-10
9.80365e-10
1.02345e-09
1.06485e-09
1.10535e-09
1.14563e-09
1.18625e-09
1.22768e-09
1.27028e-09
1.31434e-09
1.36006e-09
1.40757e-09
1.45698e-09
1.50831e-09
1.56161e-09
1.61685e-09
1.67404e-09
1.73313e-09
1.79411e-09
1.85696e-09
1.92165e-09
1.98816e-09
2.05644e-09
2.12644e-09
2.19802e-09
2.27102e-09
2.34514e-09
2.42001e-09
2.4951e-09
2.56971e-09
2.643e-09
2.71397e-09
2.78144e-09
2.84408e-09
2.90043e-09
2.94889e-09
2.98777e-09
3.01422e-09
3.02579e-09
3.02659e-09
3.00957e-09
2.9731e-09
2.91588e-09
2.83672e-09
2.7348e-09
2.61012e-09
2.46351e-09
2.29677e-09
2.11269e-09
1.91492e-09
1.70762e-09
1.49502e-09
1.2811e-09
1.06952e-09
8.63902e-10
6.6828e-10
4.87323e-10
3.26011e-10
1.89054e-10
8.0631e-11
8.97845e-12
5.27996e-12
4.73728e-11
1.08489e-10
1.81315e-10
2.61588e-10
3.46058e-10
4.31941e-10
5.16795e-10
5.98593e-10
6.75827e-10
7.47566e-10
8.13447e-10
8.73607e-10
9.28564e-10
9.79093e-10
1.0261e-09
1.07054e-09
1.11331e-09
1.15524e-09
1.19703e-09
1.23927e-09
1.28244e-09
1.32692e-09
1.37298e-09
1.42083e-09
1.47061e-09
1.52241e-09
1.57628e-09
1.63225e-09
1.69032e-09
1.75048e-09
1.81271e-09
1.87701e-09
1.94335e-09
2.01173e-09
2.0821e-09
2.15444e-09
2.22864e-09
2.30459e-09
2.38206e-09
2.46073e-09
2.54017e-09
2.61979e-09
2.69886e-09
2.77646e-09
2.85153e-09
2.92282e-09
2.98896e-09
3.04841e-09
3.09953e-09
3.14054e-09
3.16854e-09
3.18085e-09
3.18171e-09
3.16387e-09
3.12553e-09
3.06523e-09
2.98162e-09
2.87376e-09
2.74156e-09
2.58587e-09
2.40863e-09
2.21297e-09
2.00304e-09
1.78357e-09
1.5594e-09
1.33492e-09
1.11392e-09
8.99853e-10
6.96424e-10
5.081e-10
3.39951e-10
1.97047e-10
8.39692e-11
9.35026e-12
5.566e-12
4.9938e-11
1.14359e-10
1.91109e-10
2.75672e-10
3.64581e-10
4.54849e-10
5.4385e-10
6.29414e-10
7.09946e-10
7.84491e-10
8.5272e-10
9.14839e-10
9.71462e-10
1.02346e-09
1.07184e-09
1.11762e-09
1.16178e-09
1.20517e-09
1.24854e-09
1.2925e-09
1.33754e-09
1.38402e-09
1.43224e-09
1.4824e-09
1.53464e-09
1.58906e-09
1.6457e-09
1.70459e-09
1.76575e-09
1.82918e-09
1.89486e-09
1.96279e-09
2.03296e-09
2.10535e-09
2.17994e-09
2.25666e-09
2.33541e-09
2.41604e-09
2.49828e-09
2.5818e-09
2.66608e-09
2.75051e-09
2.83427e-09
2.91641e-09
2.9958e-09
3.07114e-09
3.141e-09
3.20378e-09
3.25778e-09
3.30116e-09
3.33102e-09
3.34432e-09
3.3454e-09
3.327e-09
3.287e-09
3.22379e-09
3.13583e-09
3.02199e-09
2.88208e-09
2.71687e-09
2.52846e-09
2.32027e-09
2.09696e-09
1.86399e-09
1.6269e-09
1.39068e-09
1.15938e-09
9.36313e-10
7.24829e-10
5.29051e-10
3.54019e-10
2.05112e-10
8.73313e-11
9.72467e-12
5.85848e-12
5.25604e-11
1.20358e-10
2.01115e-10
2.90048e-10
3.83464e-10
4.78162e-10
5.71322e-10
6.60629e-10
7.44404e-10
8.21679e-10
8.92167e-10
9.56161e-10
1.01438e-09
1.0678e-09
1.11752e-09
1.16466e-09
1.21024e-09
1.25516e-09
1.30021e-09
1.34601e-09
1.39305e-09
1.44172e-09
1.49229e-09
1.54497e-09
1.5999e-09
1.65717e-09
1.71685e-09
1.77896e-09
1.84352e-09
1.91053e-09
1.97999e-09
2.05189e-09
2.12623e-09
2.20298e-09
2.28212e-09
2.36356e-09
2.44718e-09
2.53279e-09
2.62011e-09
2.70872e-09
2.7981e-09
2.88755e-09
2.97623e-09
3.0631e-09
3.147e-09
3.22657e-09
3.30032e-09
3.36662e-09
3.42369e-09
3.46963e-09
3.5016e-09
3.51614e-09
3.51761e-09
3.49888e-09
3.45747e-09
3.39155e-09
3.29941e-09
3.17967e-09
3.03196e-09
2.85696e-09
2.65681e-09
2.43522e-09
2.19739e-09
1.94952e-09
1.69806e-09
1.44875e-09
1.20609e-09
9.73362e-10
7.53495e-10
5.50149e-10
3.6819e-10
2.13237e-10
9.07119e-11
1.01011e-11
6.15725e-12
5.5239e-11
1.26485e-10
2.11327e-10
3.04708e-10
4.02692e-10
5.01854e-10
5.99174e-10
6.92188e-10
7.7914e-10
8.59058e-10
9.31714e-10
9.97495e-10
1.05724e-09
1.11204e-09
1.1631e-09
1.21162e-09
1.25868e-09
1.30524e-09
1.35209e-09
1.39988e-09
1.4491e-09
1.50015e-09
1.55329e-09
1.60874e-09
1.66663e-09
1.72705e-09
1.79007e-09
1.85571e-09
1.92399e-09
1.99493e-09
2.06851e-09
2.14474e-09
2.2236e-09
2.30507e-09
2.38909e-09
2.47558e-09
2.56437e-09
2.65525e-09
2.74789e-09
2.84184e-09
2.93652e-09
3.03118e-09
3.12492e-09
3.21668e-09
3.30522e-09
3.38914e-09
3.46692e-09
3.53685e-09
3.59712e-09
3.64577e-09
3.68007e-09
3.69605e-09
3.69806e-09
3.67923e-09
3.63664e-09
3.56828e-09
3.47218e-09
3.34672e-09
3.19126e-09
3.00634e-09
2.79406e-09
2.55834e-09
2.30491e-09
2.04078e-09
1.77342e-09
1.50956e-09
1.25432e-09
1.0111e-09