/*--------------------------------*- C++ -*----------------------------------*\
  =========                 |
  \\      /  F ield         | OpenFOAM: The Open Source CFD Toolbox
   \\    /   O peration     | Website:  https://openfoam.org
    \\  /    A nd           | Version:  12
     \\/     M anipulation  |
\*---------------------------------------------------------------------------*/
FoamFile
{
    format      ascii;
    class       volScalarField;
    location    "7";
    object      p;
}
// * * * * * * * * * * * * * * * * * * * * * * * * * * * * * * * * * * * * * //

dimensions      [0 2 -2 0 0 0 0];

internalField   nonuniform List<scalar> 
5625
(
1.31796e-09
-8.7811e-06
-8.74486e-05
-0.000237407
-0.000440196
-0.000679739
-0.0009429
-0.00122007
-0.00150482
-0.00179342
-0.00208418
-0.00237693
-0.00267254
-0.00297247
-0.00327852
-0.00359253
-0.00391624
-0.00425114
-0.00459841
-0.00495882
-0.00533274
-0.00572005
-0.00612013
-0.0065318
-0.00695327
-0.00738205
-0.00781486
-0.00824751
-0.00867476
-0.00909018
-0.00948596
-0.00985276
-0.0101795
-0.010453
-0.0106582
-0.0107775
-0.010791
-0.0106762
-0.0104079
-0.00995872
-0.00929866
-0.00839599
-0.00721756
-0.00572962
-0.00389883
-0.00169358
0.000914429
0.00394833
0.00742395
0.0113477
0.0157147
0.0204988
0.0256638
0.031167
0.0369223
0.0428369
0.0488003
0.0546861
0.0603579
0.0656753
0.0705023
0.0747161
0.0782158
0.0809314
0.0828307
0.0839233
0.0842617
0.083939
0.0830835
0.081851
0.0804174
0.0789716
0.0777125
0.0768536
0.0765125
-1.20045e-05
-2.10166e-05
-9.51727e-05
-0.000235397
-0.000425245
-0.000650806
-0.000900338
-0.00116498
-0.00143863
-0.00171755
-0.00199992
-0.00228531
-0.00257427
-0.00286797
-0.00316789
-0.0034756
-0.00379258
-0.00412012
-0.0044592
-0.00481044
-0.00517406
-0.00554985
-0.00593707
-0.00633448
-0.00674021
-0.00715173
-0.00756573
-0.00797801
-0.00838337
-0.00877544
-0.00914652
-0.00948741
-0.00978722
-0.0100332
-0.0102105
-0.0103021
-0.0102886
-0.0101481
-0.00985643
-0.00938686
-0.00871058
-0.00779693
-0.00661398
-0.00512925
-0.00331072
-0.00112807
0.00144575
0.00443277
0.00784792
0.011697
0.0159752
0.0206545
0.025704
0.0310822
0.0366991
0.0424704
0.0482887
0.0540319
0.0595687
0.0647645
0.069489
0.0736246
0.0770752
0.0797745
0.0816924
0.082839
0.0832651
0.0830602
0.0823471
0.0812738
0.0800067
0.0787221
0.0776016
0.0768395
0.0765391
-1.3384e-05
-2.29387e-05
-9.32085e-05
-0.000224372
-0.00040152
-0.00061292
-0.000848237
-0.0010995
-0.00136099
-0.0016291
-0.00190189
-0.00217871
-0.00245982
-0.00274609
-0.00303867
-0.00333886
-0.00364786
-0.00396674
-0.00429625
-0.00463687
-0.00498866
-0.00535126
-0.00572388
-0.00610515
-0.00649317
-0.00688537
-0.00727842
-0.00766815
-0.00804941
-0.00841593
-0.00876018
-0.00907317
-0.0093443
-0.00956118
-0.00970944
-0.0097726
-0.00973195
-0.00956644
-0.00925266
-0.00876499
-0.0080757
-0.00715535
-0.00597326
-0.00449826
-0.00269962
-0.000548265
0.00198176
0.00491156
0.00825541
0.0120188
0.0161968
0.0207609
0.0256887
0.0309312
0.0364036
0.0420275
0.0476982
0.0532985
0.0587019
0.0637792
0.068405
0.0724667
0.0758725
0.0785591
0.0804983
0.0817002
0.0822143
0.0821266
0.0815544
0.0806382
0.0795342
0.0784054
0.0774151
0.0767354
0.0764519
4.05214e-06
-7.49446e-06
-7.60365e-05
-0.000201314
-0.000369279
-0.000569782
-0.000793539
-0.00103345
-0.00128425
-0.00154249
-0.00180626
-0.00207478
-0.00234813
-0.00262694
-0.00291213
-0.00320476
-0.00350581
-0.00381613
-0.00413632
-0.00446669
-0.00480718
-0.00515733
-0.00551624
-0.00588253
-0.00625422
-0.00662875
-0.00700282
-0.0073723
-0.00773216
-0.00807627
-0.00839728
-0.00868647
-0.00893358
-0.00912663
-0.00925173
-0.00929301
-0.0092324
-0.00904961
-0.00872211
-0.00822517
-0.00753205
-0.00661432
-0.00544232
-0.00398589
-0.0022152
-0.000101969
0.00237914
0.00524886
0.00852136
0.0122022
0.0162867
0.0207502
0.025572
0.0306967
0.0360523
0.041559
0.0471158
0.0526087
0.057915
0.0629087
0.0674678
0.0714822
0.0748624
0.0775466
0.0795073
0.0807546
0.0813367
0.0813371
0.0808692
0.0800679
0.0790813
0.0780615
0.0771569
0.0765191
0.0762187
4.06942e-05
2.45648e-05
-4.48756e-05
-0.000167093
-0.000328873
-0.000521079
-0.000735545
-0.000965825
-0.00120714
-0.00145633
-0.00171154
-0.00197199
-0.00223764
-0.00250896
-0.00278669
-0.00307168
-0.00336476
-0.00366659
-0.00397762
-0.00429803
-0.00462764
-0.00496592
-0.0053119
-0.00566414
-0.0060207
-0.006379
-0.00673581
-0.0070871
-0.00742797
-0.00775249
-0.00805355
-0.00832275
-0.00855021
-0.00872438
-0.00883194
-0.00885759
-0.00878396
-0.00859151
-0.00825851
-0.00776108
-0.00707334
-0.00616771
-0.00501533
-0.00358674
-0.0018527
0.000214684
0.00264059
0.00544587
0.00864513
0.0122447
0.0162408
0.0206129
0.0253376
0.0303632
0.0356228
0.0410371
0.0465078
0.0519235
0.0571637
0.0621044
0.066625
0.0706164
0.0739896
0.076683
0.0786687
0.0799562
0.0805925
0.0806593
0.0802673
0.0795473
0.0786411
0.0776919
0.076836
0.076206
0.0758615
9.55692e-05
7.18245e-05
-1.24296e-06
-0.000122819
-0.000280733
-0.000466741
-0.000673604
-0.000895552
-0.00112832
-0.00136904
-0.00161604
-0.00186855
-0.0021265
-0.00239024
-0.0026604
-0.00293766
-0.00322268
-0.00351601
-0.00381794
-0.00412854
-0.00444755
-0.00477435
-0.00510793
-0.00544686
-0.00578918
-0.00613239
-0.00647334
-0.00680814
-0.00713206
-0.00743941
-0.00772341
-0.00797599
-0.00818771
-0.00834753
-0.0084427
-0.00845858
-0.00837849
-0.00818364
-0.00785309
-0.00736374
-0.00669048
-0.00580645
-0.0046834
-0.00329232
-0.00160426
0.000408624
0.00277176
0.00550653
0.00862844
0.0121451
0.016054
0.0203385
0.0249736
0.0299122
0.0350906
0.0404305
0.0458362
0.0511981
0.056397
0.0613097
0.0658157
0.0698057
0.0731897
0.0759051
0.0779227
0.0792506
0.0799344
0.0800546
0.0797196
0.0790572
0.0782044
0.0772972
0.0764621
0.0758134
0.0754038
0.000167556
0.00013318
5.38215e-05
-6.9344e-05
-0.000225464
-0.000407106
-0.000607861
-0.000822644
-0.00104771
-0.00128054
-0.00151966
-0.00176441
-0.00201471
-0.00227086
-0.00253339
-0.00280287
-0.00307983
-0.00336468
-0.00365763
-0.00395862
-0.00426733
-0.00458308
-0.00490487
-0.00523123
-0.00556028
-0.00588958
-0.00621612
-0.00653619
-0.00684529
-0.00713802
-0.00740793
-0.00764741
-0.00784748
-0.00799768
-0.00808586
-0.00809808
-0.00801837
-0.00782872
-0.00750892
-0.00703663
-0.0063874
-0.00553493
-0.00445141
-0.00310807
-0.00147594
0.000473102
0.00276508
0.00542234
0.00846167
0.0118923
0.0157138
0.0199122
0.0244637
0.0293242
0.0344332
0.039714
0.0450727
0.0504011
0.0555807
0.0604882
0.0650022
0.0690118
0.0724251
0.0751772
0.0772364
0.0786089
0.0793385
0.0795042
0.0792129
0.0785901
0.0777692
0.0768807
0.0760435
0.0753549
0.0748648
0.000255311
0.000207493
0.000119343
-7.50257e-06
-0.000163737
-0.000342683
-0.000538721
-0.000747442
-0.000965629
-0.00119115
-0.00142279
-0.00166001
-0.00190279
-0.00215142
-0.00240635
-0.00266808
-0.00293705
-0.00321355
-0.0034977
-0.00378938
-0.00408819
-0.00439343
-0.0047041
-0.00501877
-0.00533562
-0.00565235
-0.0059661
-0.00627339
-0.00656999
-0.00685086
-0.00710996
-0.00734014
-0.00753298
-0.00767863
-0.00776563
-0.00778073
-0.00770873
-0.00753235
-0.00723214
-0.0067864
-0.00617128
-0.00536089
-0.00432767
-0.00304284
-0.00147715
0.000398115
0.00260994
0.00518196
0.00813267
0.0114733
0.0152056
0.0193189
0.0237907
0.0285803
0.0336297
0.0388644
0.044192
0.0495053
0.054686
0.0596097
0.0641536
0.0682041
0.0716661
0.0744713
0.0765847
0.0780094
0.0787871
0.0789949
0.0787382
0.0781413
0.0773351
0.0764459
0.0755872
0.074842
0.0742599
0.000357273
0.000293468
0.000194245
6.17984e-05
-9.6288e-05
-0.000274058
-0.000466659
-0.000670351
-0.000882461
-0.00110127
-0.00132584
-0.00155582
-0.00179127
-0.00203251
-0.00227996
-0.00253407
-0.00279519
-0.00306354
-0.00333917
-0.0036219
-0.00391129
-0.00420664
-0.00450697
-0.00481091
-0.00511677
-0.00542238
-0.0057251
-0.00602172
-0.00630836
-0.00658034
-0.00683213
-0.00705709
-0.00724744
-0.00739398
-0.00748596
-0.00751088
-0.00745433
-0.00729976
-0.00702841
-0.00661919
-0.00604872
-0.00529139
-0.00431968
-0.00310459
-0.00161633
0.000174734
0.00229684
0.00477528
0.00763055
0.0108762
0.0145167
0.0185442
0.0229387
0.0276625
0.0326605
0.03786
0.0431703
0.0484849
0.0536851
0.0586454
0.0632403
0.067353
0.0708841
0.0737606
0.0759433
0.0774312
0.0782628
0.0785131
0.0782864
0.0777057
0.0769006
0.0759951
0.0750993
0.0742845
0.0736024
0.00047174
0.000389721
0.000277358
0.000137571
-2.39344e-05
-0.000201899
-0.000392227
-0.000591847
-0.000798641
-0.00101132
-0.00122926
-0.00145233
-0.00168071
-0.00191476
-0.00215493
-0.0024016
-0.00265509
-0.00291557
-0.00318303
-0.00345724
-0.00373778
-0.00402394
-0.00431479
-0.00460908
-0.00490523
-0.0052013
-0.00549489
-0.00578311
-0.00606246
-0.00632874
-0.00657693
-0.00680103
-0.00699387
-0.00714701
-0.00725046
-0.00729251
-0.00725949
-0.00713562
-0.00690278
-0.00654041
-0.00602548
-0.00533253
-0.00443388
-0.0033001
-0.00190059
-0.000204529
0.00181787
0.00419383
0.00694617
0.0100911
0.0136358
0.0175759
0.0218939
0.0265552
0.0315078
0.0366809
0.0419855
0.0473157
0.0525524
0.0575681
0.0622346
0.0664307
0.0700519
0.0730196
0.0752889
0.0768537
0.0777486
0.0780458
0.0778481
0.0772778
0.076464
0.07553
0.0745845
0.0736904
0.0729029
0.000596983
0.000494774
0.000367442
0.000218756
5.24298e-05
-0.000126961
-0.000316072
-0.000512504
-0.000714704
-0.000921836
-0.00113362
-0.00135014
-0.00157175
-0.00179889
-0.00203201
-0.00227151
-0.00251768
-0.00277063
-0.00303033
-0.00329655
-0.00356885
-0.0038466
-0.00412892
-0.0044147
-0.00470255
-0.00499075
-0.00527723
-0.00555945
-0.00583437
-0.00609831
-0.00634683
-0.0065746
-0.00677519
-0.00694092
-0.0070626
-0.00712933
-0.00712824
-0.00704424
-0.00685983
-0.00655489
-0.00610664
-0.00548958
-0.00467574
-0.00363501
-0.00233575
-0.000745734
0.00116665
0.00343084
0.0060722
0.00910978
0.012554
0.0164036
0.0206443
0.0252449
0.030156
0.0353096
0.0406181
0.0459763
0.0512644
0.0563533
0.061111
0.0654116
0.0691446
0.0722246
0.0745999
0.0762581
0.0772287
0.0775805
0.0774142
0.0768519
0.076023
0.0750514
0.0740467
0.0730657
0.0721697
0.000731251
0.000607113
0.000463198
0.000304225
0.00013183
-5.00867e-05
-0.000238936
-0.000432995
-0.000631287
-0.000833444
-0.00103954
-0.00124993
-0.00146512
-0.00168567
-0.00191207
-0.00214473
-0.00238392
-0.00262976
-0.00288219
-0.003141
-0.00340577
-0.00367594
-0.00395075
-0.00422926
-0.00451029
-0.00479241
-0.0050739
-0.00535265
-0.00562613
-0.00589124
-0.00614419
-0.00638037
-0.00659415
-0.00677866
-0.00692555
-0.00702476
-0.00706417
-0.00702941
-0.00690351
-0.00666672
-0.00629636
-0.00576679
-0.00504953
-0.00411361
-0.00292615
-0.00145329
0.000338637
0.00248148
0.00500336
0.00792642
0.0112643
0.0150195
0.0191808
0.0237205
0.0285925
0.0337313
0.0390512
0.0444478
0.0498009
0.0549791
0.0598468
0.0642728
0.0681395
0.0713541
0.0738565
0.0756269
0.0766885
0.0771055
0.0769764
0.0764228
0.0755753
0.0745599
0.0734886
0.0724152
0.0714086
0.000872779
0.00072519
0.000563271
0.000392784
0.000213215
2.77919e-05
-0.000161657
-0.000354093
-0.000549129
-0.000746874
-0.000947776
-0.00115247
-0.00136164
-0.00157597
-0.00179603
-0.00202224
-0.00225488
-0.00249408
-0.00273979
-0.00299182
-0.00324981
-0.00351331
-0.00378171
-0.00405424
-0.00433001
-0.00460791
-0.00488663
-0.00516455
-0.0054397
-0.00570961
-0.00597123
-0.00622072
-0.00645328
-0.00666291
-0.00684214
-0.00698172
-0.00707034
-0.00709425
-0.00703696
-0.00687902
-0.00659773
-0.00616714
-0.00555811
-0.00473864
-0.00367442
-0.00232974
-0.000668731
0.00134305
0.00373666
0.00653747
0.00976262
0.0134182
0.0174966
0.0219738
0.0268073
0.0319341
0.0372709
0.0427143
0.0481439
0.0534261
0.0584217
0.0629932
0.067016
0.0703881
0.0730403
0.0749438
0.0761141
0.0766098
0.0765265
0.0759853
0.0751185
0.0740552
0.0729124
0.0717423
0.0706241
0.00101981
0.000847424
0.00066625
0.000483169
0.000295453
0.000105657
-8.51648e-05
-0.000276669
-0.000469064
-0.000662951
-0.000859162
-0.00105862
-0.00126222
-0.00147076
-0.00168489
-0.00190509
-0.00213167
-0.00236475
-0.00260433
-0.00285026
-0.0031023
-0.00336008
-0.00362318
-0.0038911
-0.00416322
-0.00443883
-0.00471708
-0.00499688
-0.00527688
-0.00555533
-0.00582994
-0.00609772
-0.00635475
-0.00659593
-0.00681467
-0.00700258
-0.00714908
-0.00724104
-0.0072624
-0.00719385
-0.00701259
-0.00669223
-0.00620281
-0.00551112
-0.00458129
-0.00337561
-0.00185585
1.51472e-05
0.00227149
0.00494189
0.00804714
0.0115971
0.0155879
0.0199995
0.024793
0.0299089
0.0352661
0.0407628
0.0462784
0.0516779
0.0568176
0.0615545
0.0657554
0.0693087
0.0721345
0.0741938
0.0754927
0.0760832
0.076057
0.0755344
0.0746499
0.0735372
0.0723193
0.0710496
0.0698188
0.00117058
0.000972202
0.000770672
0.000574052
0.000377339
0.000182403
-1.04843e-05
-0.000201689
-0.000392026
-0.000582597
-0.000774626
-0.000969331
-0.00116782
-0.00137104
-0.00157972
-0.0017944
-0.00201542
-0.00224296
-0.00247705
-0.00271761
-0.00296452
-0.00321757
-0.00347656
-0.00374124
-0.00401137
-0.00428667
-0.00456677
-0.00485121
-0.00513931
-0.00543008
-0.00572205
-0.00601314
-0.00630033
-0.00657947
-0.00684487
-0.00708898
-0.00730194
-0.00747117
-0.00758095
-0.00761204
-0.00754144
-0.00734214
-0.00698326
-0.00643027
-0.00564555
-0.00458933
-0.00322091
-0.00150032
0.000609673
0.00314121
0.00611883
0.00955628
0.0134537
0.0177951
0.0225458
0.0276496
0.0330286
0.038583
0.0441924
0.0497202
0.0550193
0.05994
0.0643407
0.0680991
0.0711235
0.0733627
0.0748123
0.0755161
0.0755607
0.0750654
0.0741674
0.0730054
0.0717105
0.0703389
0.0689944
0.00132331
0.00109788
0.000875024
0.000664039
0.000457585
0.000256839
6.12686e-05
-0.000130215
-0.000319044
-0.000506827
-0.000695187
-0.000885641
-0.00107952
-0.0012779
-0.00148164
-0.00169132
-0.00190734
-0.00212993
-0.00235918
-0.00259513
-0.00283777
-0.0030871
-0.00334315
-0.00360601
-0.00387582
-0.00415278
-0.00443709
-0.00472894
-0.00502838
-0.00533523
-0.00564893
-0.00596831
-0.00629132
-0.00661475
-0.00693384
-0.00724184
-0.00752958
-0.00778499
-0.0079926
-0.00813317
-0.00818333
-0.0081154
-0.00789743
-0.00749345
-0.00686404
-0.00596725
-0.00475986
-0.00319907
-0.00124449
0.00113953
0.00398134
0.0072987
0.0110958
0.0153611
0.0200643
0.0251533
0.0305536
0.0361677
0.0418764
0.0475419
0.0530135
0.0581355
0.062757
0.0667443
0.0699927
0.0724374
0.0740617
0.0748993
0.0750308
0.074574
0.0736685
0.0724595
0.071087
0.0696119
0.0681521
0.00147624
0.00122278
0.000977738
0.000751667
0.00053483
0.000327689
0.000128886
-6.34052e-05
-0.000251245
-0.000436751
-0.000621952
-0.000808667
-0.000998441
-0.00119251
-0.00139182
-0.00159705
-0.00180864
-0.00202688
-0.00225198
-0.00248406
-0.0027233
-0.00296991
-0.00322421
-0.00348664
-0.00375779
-0.00403837
-0.00432922
-0.00463121
-0.00494519
-0.00527186
-0.00561157
-0.00596412
-0.00632847
-0.00670236
-0.00708192
-0.00746123
-0.00783174
-0.00818182
-0.00849619
-0.00875549
-0.0089359
-0.00900895
-0.00894155
-0.0086962
-0.00823161
-0.00750363
-0.00646651
-0.00507457
-0.00328429
-0.00105654
0.00164094
0.00483005
0.00851915
0.0127011
0.0173508
0.0224203
0.0278392
0.033513
0.0393241
0.0451343
0.0507898
0.0561287
0.060991
0.0652307
0.0687288
0.0714056
0.0732301
0.0742243
0.0744613
0.0740562
0.0731515
0.071899
0.0704495
0.0688696
0.0672927
0.00162755
0.00134519
0.00107719
0.000835408
0.000607633
0.00039359
0.000191069
-2.51056e-06
-0.000189845
-0.000373571
-0.000556117
-0.000739604
-0.000925794
-0.00111608
-0.0013115
-0.00151281
-0.00172055
-0.00193507
-0.00215667
-0.00238563
-0.00262232
-0.00286718
-0.00312088
-0.00338424
-0.00365833
-0.00394446
-0.00424411
-0.00455891
-0.00489056
-0.00524066
-0.00561054
-0.00600099
-0.00641198
-0.00684222
-0.00728875
-0.00774639
-0.00820719
-0.0086599
-0.00908933
-0.00947591
-0.00979532
-0.0100182
-0.0101102
-0.0100323
-0.00974125
-0.00919075
-0.0083325
-0.00711803
-0.0055007
-0.00343797
-0.000893486
0.00215882
0.00573129
0.00982159
0.0144103
0.019454
0.0248868
0.0306181
0.0365325
0.042492
0.0483404
0.05391
0.0590315
0.0635463
0.06732
0.0702562
0.0723077
0.0734831
0.0738461
0.0735084
0.0726146
0.0713241
0.069799
0.0681135
0.0664171
0.00177541
0.00146335
0.00117171
0.000913666
0.000674478
0.000453094
0.000246428
5.11256e-05
-0.000136157
-0.000318574
-0.000498956
-0.000679721
-0.000862843
-0.00104986
-0.00124193
-0.00143988
-0.00164431
-0.0018557
-0.00207444
-0.002301
-0.00253593
-0.00277999
-0.00303417
-0.00329976
-0.00357835
-0.00387185
-0.00418247
-0.00451264
-0.00486494
-0.00524193
-0.00564593
-0.00607878
-0.00654144
-0.0070336
-0.00755316
-0.00809567
-0.00865373
-0.00921638
-0.00976845
-0.0102901
-0.0107564
-0.011137
-0.0113963
-0.0114937
-0.0113842
-0.011019
-0.0103475
-0.00931856
-0.00788245
-0.00599334
-0.00361053
-0.000703906
0.00274221
0.0067322
0.0112513
0.0162612
0.0217015
0.0274857
0.0335017
0.0396126
0.0456604
0.0514722
0.0568696
0.0616808
0.0657553
0.0689787
0.0712854
0.0726683
0.0731801
0.0729275
0.0720566
0.0707349
0.0691369
0.0673449
0.0655264
0.00191798
0.00157545
0.00125955
0.000984775
0.000733766
0.000504669
0.000293485
9.60699e-05
-9.15777e-05
-0.000273133
-0.000451823
-0.000630356
-0.000810912
-0.000995172
-0.00118439
-0.00137949
-0.00158116
-0.00178997
-0.00200646
-0.00223126
-0.00246518
-0.00270929
-0.00296498
-0.00323399
-0.00351851
-0.0038211
-0.00414472
-0.00449266
-0.00486842
-0.00527554
-0.00571738
-0.00619681
-0.00671581
-0.00727503
-0.0078732
-0.00850657
-0.0091682
-0.00984736
-0.0105288
-0.0111925
-0.0118126
-0.0123579
-0.0127915
-0.0130711
-0.0131498
-0.012977
-0.0124994
-0.0116633
-0.0104161
-0.00870854
-0.0064959
-0.00374464
-0.000435584
0.00344604
0.00788557
0.0128524
0.0182916
0.0241221
0.0302356
0.0364973
0.0427482
0.048811
0.0544985
0.059626
0.0640259
0.0675639
0.0701548
0.0717732
0.0724585
0.0723106
0.0714768
0.0701322
0.0684647
0.0665658
0.0646222
0.00205334
0.00167964
0.00133891
0.001047
0.000783822
0.000546695
0.000330674
0.0001308
-5.75933e-05
-0.000238702
-0.000416144
-0.000592909
-0.000771372
-0.000953352
-0.0011402
-0.00133293
-0.00153232
-0.00173904
-0.00195379
-0.00217741
-0.00241098
-0.00265591
-0.002914
-0.00318753
-0.00347927
-0.00379251
-0.004131
-0.00449891
-0.0049007
-0.00534093
-0.00582401
-0.00635385
-0.00693345
-0.00756438
-0.00824618
-0.00897572
-0.00974651
-0.010548
-0.0113647
-0.0121762
-0.0129561
-0.013672
-0.0142857
-0.0147534
-0.0150263
-0.0150518
-0.0147743
-0.0141375
-0.0130859
-0.011566
-0.00953172
-0.00694681
-0.00378216
-2.05732e-05
0.00432813
0.00924116
0.0146693
0.0205374
0.0267418
0.0331508
0.0396056
0.0459253
0.0519146
0.0573759
0.0621241
0.0660042
0.0689086
0.0707916
0.0716768
0.0716556
0.0708748
0.0695171
0.0677846
0.0657787
0.0637067
0.00217955
0.00177401
0.00140793
0.00109852
0.00082289
0.000577472
0.000356342
0.000153709
-3.57706e-05
-0.000216811
-0.000393411
-0.000568832
-0.000745636
-0.000925766
-0.00111067
-0.00130144
-0.00149895
-0.001704
-0.00191745
-0.00214037
-0.00237413
-0.00262051
-0.00288176
-0.00316074
-0.00346084
-0.0037861
-0.00414111
-0.00453095
-0.00496108
-0.00543709
-0.00596444
-0.0065481
-0.00719207
-0.00789881
-0.00866863
-0.00949897
-0.0103837
-0.0113123
-0.0122693
-0.0132336
-0.0141781
-0.0150693
-0.0158679
-0.0165284
-0.0170003
-0.0172289
-0.0171568
-0.0167249
-0.0158746
-0.0145502
-0.0127039
-0.0102924
-0.00727954
-0.00365051
0.000596857
0.00544465
0.0108504
0.0167453
0.0230317
0.0295818
0.0362381
0.0428173
0.049117
0.0549271
0.0600448
0.064293
0.0675404
0.0697182
0.0708316
0.0709608
0.0702508
0.0688916
0.0670994
0.0649866
0.0627827
0.00229464
0.00185659
0.00146468
0.00113745
0.000849131
0.000595209
0.00036875
0.000163103
-2.77558e-05
-0.000209058
-0.000385176
-0.000559628
-0.000735147
-0.000913792
-0.0010971
-0.00128624
-0.00148219
-0.00168588
-0.00189835
-0.00212092
-0.00235527
-0.00260358
-0.00286861
-0.00315377
-0.00346317
-0.0038016
-0.00417454
-0.004588
-0.00504846
-0.00556255
-0.00613682
-0.00677725
-0.00748883
-0.00827488
-0.00913642
-0.0100714
-0.011074
-0.0121338
-0.013235
-0.0143559
-0.0154687
-0.016539
-0.017526
-0.0183828
-0.0190573
-0.019493
-0.0196302
-0.019408
-0.0187652
-0.0176441
-0.0159916
-0.0137593
-0.0109098
-0.00742208
-0.00328718
0.00148326
0.00685404
0.0127636
0.0191208
0.0258029
0.0326552
0.0394931
0.0461084
0.0522791
0.0577849
0.062426
0.0660454
0.0685488
0.0699199
0.0702251
0.0696058
0.0682578
0.0664126
0.0641935
0.0618542
0.00239654
0.00192536
0.00150716
0.00116183
0.000860623
0.000598035
0.000366075
0.000157211
-3.52695e-05
-0.000217111
-0.000393046
-0.000566836
-0.00074137
-0.000918814
-0.00110078
-0.00128852
-0.00148311
-0.00168562
-0.0018973
-0.00211971
-0.00235489
-0.00260544
-0.00287465
-0.00316654
-0.00348594
-0.00383845
-0.00423043
-0.0046689
-0.00516133
-0.00571543
-0.0063388
-0.00703845
-0.0078203
-0.00868851
-0.00964475
-0.0106875
-0.011811
-0.0130049
-0.0142532
-0.0155336
-0.0168174
-0.0180691
-0.0192469
-0.0203024
-0.0211819
-0.0218272
-0.0221769
-0.0221678
-0.0217367
-0.0208228
-0.0193694
-0.0173248
-0.014648
-0.0113113
-0.00730014
-0.00261951
0.00270301
0.00861357
0.0150284
0.021831
0.0288705
0.0359628
0.0428951
0.0494347
0.0553443
0.0604009
0.0644203
0.0672802
0.0689396
0.0694483
0.0689411
0.0676191
0.0657283
0.063404
0.060926
0.00248317
0.0019782
0.00153327
0.00116961
0.000855362
0.000583991
0.000346408
0.000134181
-6.0103e-05
-0.000242693
-0.000418671
-0.000592024
-0.000765783
-0.000942203
-0.00112297
-0.00130941
-0.0015027
-0.00170406
-0.00191496
-0.00213724
-0.00237329
-0.00262619
-0.00289977
-0.0031987
-0.00352855
-0.00389577
-0.00430763
-0.00477214
-0.00529781
-0.00589342
-0.0065676
-0.00732837
-0.00818256
-0.0091351
-0.0101883
-0.0113409
-0.0125876
-0.0139177
-0.0153149
-0.0167564
-0.0182127
-0.0196473
-0.021017
-0.0222723
-0.0233581
-0.0242144
-0.0247783
-0.0249845
-0.0247678
-0.0240647
-0.0228155
-0.0209652
-0.0184686
-0.0152922
-0.0114158
-0.00683736
-0.00157685
0.00432007
0.0107777
0.0176868
0.0249018
0.0322406
0.0394873
0.0464003
0.0527257
0.0582178
0.0626636
0.0659106
0.0678898
0.0686308
0.0682592
0.0669793
0.0650517
0.062624
0.060004
0.00255235
0.00201296
0.00154087
0.00115866
0.000831253
0.00055103
0.000307761
9.20843e-05
-0.000104114
-0.000287583
-0.000463741
-0.000636783
-0.000809862
-0.000985313
-0.00116488
-0.00134997
-0.00154186
-0.00174193
-0.00195188
-0.00217384
-0.00241062
-0.00266575
-0.00294365
-0.00324967
-0.00359015
-0.00397239
-0.00440463
-0.00489586
-0.00545565
-0.00609381
-0.00682001
-0.00764325
-0.00857122
-0.00960959
-0.0107612
-0.0120251
-0.0133962
-0.0148635
-0.0164105
-0.0180138
-0.0196429
-0.0212605
-0.0228222
-0.0242772
-0.0255692
-0.0266367
-0.0274152
-0.0278377
-0.0278371
-0.0273475
-0.0263061
-0.0246552
-0.0223452
-0.0193373
-0.0156057
-0.0111416
-0.00595687
-8.88618e-05
0.00639551
0.0133951
0.0207711
0.0283448
0.0358995
0.043186
0.0499356
0.0558797
0.0607762
0.0644399
0.0667707
0.067774
0.067563
0.066343
0.0643888
0.0618602
0.0590952
0.00260186
0.00202739
0.00152772
0.00112675
0.000786114
0.000497021
0.000248061
2.8921e-05
-0.000169221
-0.000353608
-0.000529976
-0.000702711
-0.000875076
-0.00104946
-0.00122768
-0.00141118
-0.00160138
-0.00179983
-0.00200844
-0.0022297
-0.0024668
-0.0027238
-0.00300571
-0.00331859
-0.00366958
-0.00406688
-0.00451964
-0.0050379
-0.00563225
-0.00631355
-0.00709247
-0.00797896
-0.00898153
-0.0101065
-0.0113572
-0.012733
-0.0142288
-0.0158335
-0.0175302
-0.0192947
-0.0210959
-0.0228955
-0.024648
-0.0263015
-0.0277984
-0.029076
-0.0300683
-0.0307068
-0.0309226
-0.0306475
-0.0298163
-0.0283683
-0.0262501
-0.0234178
-0.0198402
-0.0155015
-0.010406
-0.00458237
0.00191177
0.0089843
0.0165042
0.0242981
0.0321502
0.0398061
0.0469837
0.0533927
0.0587613
0.0628698
0.0655838
0.0668805
0.0668567
0.0657161
0.0637465
0.0611203
0.0582079
0.00262939
0.00201915
0.00149146
0.00107158
0.000717668
0.000419741
0.000165153
-5.73813e-05
-0.0002574
-0.000442632
-0.000619117
-0.000791412
-0.000962869
-0.00113593
-0.00131245
-0.00149396
-0.00168197
-0.00187822
-0.00208489
-0.0023048
-0.00254158
-0.00279981
-0.00308515
-0.00340439
-0.00376547
-0.00417748
-0.00465058
-0.00519577
-0.00582471
-0.00654926
-0.0073811
-0.00833104
-0.00940837
-0.0106201
-0.0119698
-0.0134572
-0.0150772
-0.0168185
-0.0186636
-0.0205879
-0.0225594
-0.0245389
-0.02648
-0.0283295
-0.0300289
-0.0315142
-0.0327181
-0.033571
-0.034002
-0.0339412
-0.0333211
-0.0320781
-0.0301551
-0.0275041
-0.0240881
-0.0198851
-0.0148915
-0.00912736
-0.00264077
0.00448591
0.0121307
0.0201271
0.0282623
0.0362789
0.0438839
0.0507663
0.056625
0.0612044
0.0643324
0.065954
0.0661454
0.0651053
0.0631329
0.0604134
0.0573516
0.00263257
0.00198584
0.00142969
0.000990722
0.000623541
0.000316876
5.68026e-05
-0.000168963
-0.00037068
-0.000556556
-0.000732918
-0.000904476
-0.00107466
-0.00124594
-0.00142021
-0.00159907
-0.00178417
-0.00197743
-0.0021813
-0.00239895
-0.00263449
-0.00289306
-0.00318096
-0.00350572
-0.00387614
-0.00430222
-0.00479508
-0.00536674
-0.00602986
-0.00679733
-0.00768174
-0.00869477
-0.00984644
-0.0111442
-0.0125923
-0.0141902
-0.015933
-0.0178091
-0.0198007
-0.0218823
-0.0240214
-0.0261776
-0.0283038
-0.0303458
-0.032244
-0.0339334
-0.0353457
-0.0364097
-0.0370534
-0.0372052
-0.0367953
-0.0357577
-0.0340321
-0.0315662
-0.0283181
-0.0242594
-0.0193793
-0.013689
-0.00722716
-6.57222e-05
0.0076833
0.015862
0.0242626
0.0326271
0.0406539
0.0480136
0.0543765
0.0594501
0.0630216
0.0649999
0.0654355
0.0645184
0.0625574
0.0597497
0.0565371
0.00260893
0.00192493
0.00133985
0.000881665
0.000501257
0.000186016
-7.93093e-05
-0.000308032
-0.000511139
-0.000697308
-0.000873138
-0.00104348
-0.00121181
-0.00138063
-0.00155187
-0.00172721
-0.00190842
-0.00209761
-0.00229754
-0.00251177
-0.00274488
-0.00300258
-0.00329187
-0.00362104
-0.00399974
-0.00443889
-0.00495058
-0.00554784
-0.00624433
-0.0070539
-0.00799005
-0.00906526
-0.0102902
-0.0116729
-0.0132178
-0.0149243
-0.0167878
-0.0187963
-0.0209313
-0.0231669
-0.0254697
-0.0277986
-0.0301054
-0.0323354
-0.0344276
-0.0363164
-0.0379323
-0.0392032
-0.0400557
-0.0404167
-0.0402147
-0.0393813
-0.0378533
-0.0355746
-0.0324986
-0.0285913
-0.0238347
-0.0182316
-0.011811
-0.00463417
0.00319763
0.0115365
0.0201816
0.028877
0.0373155
0.0451517
0.0520284
0.057616
0.0616587
0.0640249
0.0647345
0.0639644
0.0620303
0.0591408
0.0557768
0.00255592
0.0018338
0.0012193
0.000741771
0.000348229
2.46559e-05
-0.000245584
-0.000476861
-0.000680897
-0.000866835
-0.00104153
-0.00120996
-0.00137563
-0.00154109
-0.00170827
-0.00187893
-0.00205498
-0.00223877
-0.00243335
-0.00264269
-0.00287187
-0.00312722
-0.00341642
-0.00374857
-0.00413416
-0.00458506
-0.0051143
-0.00573592
-0.00646454
-0.00731496
-0.00830154
-0.0094375
-0.0107341
-0.0121999
-0.0138396
-0.0156521
-0.0176334
-0.0197708
-0.0220455
-0.0244308
-0.0268927
-0.0293892
-0.0318714
-0.0342836
-0.0365641
-0.0386464
-0.0404601
-0.0419322
-0.0429883
-0.0435538
-0.0435556
-0.0429235
-0.0415915
-0.0395003
-0.0365989
-0.0328481
-0.0282232
-0.022719
-0.0163549
-0.00918158
-0.00128877
0.00718665
0.016053
0.025059
0.0338944
0.0422011
0.0495965
0.0557143
0.0602533
0.0630377
0.0640518
0.0634539
0.0615636
0.0585997
0.0550844
0.00247088
0.00170972
0.00106527
0.000568282
0.000161755
-0.000169815
-0.000444509
-0.000677785
-0.000882114
-0.0010671
-0.00123984
-0.00140542
-0.00156739
-0.00172829
-0.00189009
-0.00205464
-0.00222399
-0.00240073
-0.00258825
-0.00279095
-0.00301442
-0.00326563
-0.00355298
-0.00388636
-0.00427715
-0.00473813
-0.00528331
-0.00592768
-0.00668682
-0.00757642
-0.00861165
-0.00980645
-0.0111726
-0.0127191
-0.0144508
-0.016366
-0.0184616
-0.0207239
-0.0231338
-0.0256639
-0.0282794
-0.0309376
-0.033589
-0.0361768
-0.0386389
-0.0409078
-0.0429124
-0.0445789
-0.0458319
-0.0465958
-0.046796
-0.0463605
-0.0452212
-0.0433157
-0.0405894
-0.0369981
-0.032511
-0.0271154
-0.0208215
-0.0136694
-0.00573698
0.00285097
0.0119135
0.0212065
0.0304202
0.0391866
0.0471006
0.0537602
0.0588176
0.0620492
0.0633981
0.0629987
0.0611705
0.0581408
0.0544751
0.00235105
0.00154982
0.000874846
0.000358304
-6.09918e-05
-0.000400117
-0.000678659
-0.000913204
-0.00111699
-0.00130007
-0.00146979
-0.00163132
-0.00178825
-0.00194311
-0.00209792
-0.00225462
-0.00241542
-0.00258317
-0.00276162
-0.00295562
-0.0031713
-0.00341629
-0.00369972
-0.0040323
-0.00442629
-0.00489539
-0.00545457
-0.00611975
-0.00690743
-0.00783415
-0.00891585
-0.0101671
-0.0116002
-0.0132244
-0.015045
-0.017059
-0.0192647
-0.0216471
-0.0241871
-0.0268563
-0.0296192
-0.0324326
-0.0352461
-0.0380023
-0.0406383
-0.043086
-0.0452736
-0.0471266
-0.0485687
-0.0495235
-0.0499151
-0.0496701
-0.0487184
-0.0469951
-0.0444421
-0.0410111
-0.0366657
-0.0313862
-0.0251742
-0.0180592
-0.0101074
-0.00143086
0.00780187
0.017356
0.0269256
0.0361363
0.0445638
0.0517724
0.0573665
0.0610723
0.0627862
0.0626124
0.0608658
0.0577801
0.0539659
0.00219353
0.00135108
0.000644961
0.000108794
-0.000322976
-0.000669084
-0.000950698
-0.00118558
-0.00138774
-0.0015677
-0.00173305
-0.00188905
-0.00203929
-0.00218633
-0.00233222
-0.00247899
-0.00262907
-0.00278558
-0.00295264
-0.00313558
-0.00334109
-0.00357748
-0.00385465
-0.00418412
-0.00457904
-0.00505401
-0.00562494
-0.00630868
-0.00712259
-0.00808404
-0.00920965
-0.0105146
-0.0120116
-0.0137101
-0.015616
-0.0177241
-0.0200353
-0.0225327
-0.0251969
-0.0279989
-0.0309025
-0.0338639
-0.0368317
-0.0397482
-0.0425497
-0.0451676
-0.0475295
-0.0495601
-0.0511825
-0.0523195
-0.0528943
-0.0528321
-0.0520612
-0.0505145
-0.0481312
-0.044859
-0.0406568
-0.0354984
-0.0293773
-0.0223134
-0.0143608
-0.0056185
0.0037582
0.0135463
0.0234463
0.0330819
0.0420129
0.0497729
0.055918
0.0601223
0.0622306
0.0623101
0.060666
0.0575353
0.0535752
0.00199529
0.00111035
0.000372379
-0.000183456
-0.000627311
-0.000979676
-0.00126339
-0.00149742
-0.00169662
-0.00187197
-0.00203129
-0.00217993
-0.0023215
-0.00245858
-0.00259328
-0.00272774
-0.0028646
-0.00300728
-0.00316033
-0.00332955
-0.00352223
-0.00374739
-0.00401568
-0.00433946
-0.00473277
-0.00521111
-0.0057913
-0.00649107
-0.00732862
-0.00832206
-0.00948869
-0.0108442
-0.0124016
-0.0141708
-0.0161583
-0.0183549
-0.0207667
-0.0233732
-0.0261556
-0.0290835
-0.0321205
-0.035222
-0.038336
-0.0414041
-0.0443621
-0.0471409
-0.0496674
-0.0518658
-0.0536588
-0.0549683
-0.0557168
-0.0558284
-0.0552299
-0.0538526
-0.0516333
-0.0485163
-0.0444562
-0.0394212
-0.0333976
-0.0263957