/*--------------------------------*- C++ -*----------------------------------*\
  =========                 |
  \\      /  F ield         | OpenFOAM: The Open Source CFD Toolbox
   \\    /   O peration     | Website:  https://openfoam.org
    \\  /    A nd           | Version:  12
     \\/     M anipulation  |
\*---------------------------------------------------------------------------*/
FoamFile
{
    format      ascii;
    class       surfaceScalarField;
    location    "7";
    object      phi;
}
// * * * * * * * * * * * * * * * * * * * * * * * * * * * * * * * * * * * * * //

dimensions      [0 3 -1 0 0 0 0];

internalField   nonuniform List<scalar> 
11100
(
3.19174e-10
-3.19193e-10
9.11754e-10
-5.92582e-10
1.42583e-09
-5.14083e-10
1.67035e-09
-2.44531e-10
1.5788e-09
9.15546e-11
1.14475e-09
4.34061e-10
3.93354e-10
7.51393e-10
-6.36788e-10
1.03014e-09
-1.90381e-09
1.26702e-09
-3.36855e-09
1.46474e-09
-4.99783e-09
1.62929e-09
-6.7661e-09
1.76827e-09
-8.65585e-09
1.88975e-09
-1.06574e-08
2.00156e-09
-1.27683e-08
2.11093e-09
-1.49926e-08
2.22426e-09
-1.73397e-08
2.34707e-09
-1.98237e-08
2.48406e-09
-2.24629e-08
2.63918e-09
-2.52787e-08
2.81576e-09
-2.82953e-08
3.01664e-09
-3.15396e-08
3.24426e-09
-3.50403e-08
3.50077e-09
-3.88284e-08
3.78805e-09
-4.29362e-08
4.10778e-09
-4.73976e-08
4.46138e-09
-5.22476e-08
4.85001e-09
-5.7522e-08
5.27445e-09
-6.3257e-08
5.73503e-09
-6.94885e-08
6.23146e-09
-7.62512e-08
6.7627e-09
-8.35779e-08
7.3267e-09
-9.14982e-08
7.92026e-09
-1.00037e-07
8.5387e-09
-1.09213e-07
9.17567e-09
-1.19035e-07
9.82286e-09
-1.29505e-07
1.04697e-08
-1.40608e-07
1.11031e-08
-1.52315e-07
1.17073e-08
-1.64579e-07
1.22634e-08
-1.77329e-07
1.27499e-08
-1.9047e-07
1.31417e-08
-2.03882e-07
1.34112e-08
-2.1741e-07
1.35279e-08
-2.30869e-07
1.34593e-08
-2.44041e-07
1.31717e-08
-2.56671e-07
1.26309e-08
-2.68476e-07
1.18044e-08
-2.79138e-07
1.06625e-08
-2.88319e-07
9.18049e-09
-2.95651e-07
7.33185e-09
-3.00767e-07
5.11599e-09
-3.0336e-07
2.59297e-09
-3.03062e-07
-2.97744e-10
-2.99597e-07
-3.46527e-09
-2.92756e-07
-6.84046e-09
-2.8242e-07
-1.03365e-08
-2.68582e-07
-1.38375e-08
-2.51375e-07
-1.72077e-08
-2.31078e-07
-2.02966e-08
-2.08131e-07
-2.2947e-08
-1.83126e-07
-2.50054e-08
-1.56791e-07
-2.63348e-08
-1.29963e-07
-2.68279e-08
-1.03543e-07
-2.64195e-08
-7.84474e-08
-2.5096e-08
-5.55473e-08
-2.29001e-08
-3.56175e-08
-1.99298e-08
-1.92852e-08
-1.63324e-08
-6.98978e-09
-1.22954e-08
1.05216e-09
-8.04193e-09
4.90008e-09
-3.84793e-09
4.9904e-09
-9.03181e-11
2.5091e-09
2.4813e-09
2.5091e-09
7.85307e-10
-1.10448e-09
2.04866e-09
-1.85593e-09
3.03708e-09
-1.50251e-09
3.32156e-09
-5.2902e-10
2.71896e-09
6.94148e-10
1.19576e-09
1.95728e-09
-1.19764e-09
3.14479e-09
-4.37065e-09
4.20316e-09
-8.21955e-09
5.11592e-09
-1.26443e-08
5.88946e-09
-1.75584e-08
6.54341e-09
-2.28943e-08
7.10418e-09
-2.86052e-08
7.60063e-09
-3.4665e-08
8.06143e-09
-4.10674e-08
8.51333e-09
-4.78235e-08
8.98035e-09
-5.49599e-08
9.48347e-09
-6.25165e-08
1.00406e-08
-7.05444e-08
1.06671e-08
-7.91044e-08
1.13757e-08
-8.82652e-08
1.21775e-08
-9.81028e-08
1.30818e-08
-1.08699e-07
1.40968e-08
-1.2014e-07
1.52294e-08
-1.32518e-07
1.64857e-08
-1.45927e-07
1.78704e-08
-1.60464e-07
1.93872e-08
-1.76228e-07
2.10382e-08
-1.93316e-07
2.28231e-08
-2.11824e-07
2.47395e-08
-2.31843e-07
2.67816e-08
-2.53456e-07
2.89394e-08
-2.76734e-07
3.11985e-08
-3.01734e-07
3.35387e-08
-3.28491e-07
3.5933e-08
-3.57016e-07
3.8347e-08
-3.87284e-07
4.07377e-08
-4.19233e-07
4.30528e-08
-4.52756e-07
4.52298e-08
-4.87688e-07
4.71956e-08
-5.23805e-07
4.88665e-08
-5.60811e-07
5.01478e-08
-5.98335e-07
5.09354e-08
-6.35924e-07
5.11167e-08
-6.73037e-07
5.0573e-08
-7.09049e-07
4.9183e-08
-7.43244e-07
4.68266e-08
-7.74831e-07
4.33913e-08
-8.02947e-07
3.87784e-08
-8.26677e-07
3.29103e-08
-8.45074e-07
2.57288e-08
-8.57146e-07
1.71882e-08
-8.62082e-07
7.52894e-09
-8.59036e-07
-3.34379e-09
-8.47309e-07
-1.51919e-08
-8.26413e-07
-2.77372e-08
-7.96112e-07
-4.06375e-08
-7.56474e-07
-5.34749e-08
-7.07919e-07
-6.57628e-08
-6.51249e-07
-7.69664e-08
-5.87665e-07
-8.65314e-08
-5.1875e-07
-9.39205e-08
-4.46428e-07
-9.86563e-08
-3.7289e-07
-1.00366e-07
-3.00487e-07
-9.8823e-08
-2.31602e-07
-9.39807e-08
-1.68513e-07
-8.59891e-08
-1.13247e-07
-7.51955e-08
-6.74518e-08
-6.2128e-08
-3.22761e-08
-4.74711e-08
-8.2617e-09
-3.20563e-08
4.80428e-09
-1.69139e-08
8.16609e-09
-3.45214e-09
4.66495e-09
5.98244e-09
7.17406e-09
1.04962e-09
-2.1541e-09
2.58632e-09
-3.39264e-09
3.60578e-09
-2.52199e-09
3.53524e-09
-4.58475e-10
2.10852e-09
2.12087e-09
-7.35037e-10
4.80084e-09
-4.93274e-09
7.34249e-09
-1.03592e-08
9.62962e-09
-1.68654e-08
1.16221e-08
-2.43048e-08
1.33288e-08
-3.25489e-08
1.47876e-08
-4.14965e-08
1.60517e-08
-5.1077e-08
1.71811e-08
-6.12512e-08
1.82357e-08
-7.20102e-08
1.92723e-08
-8.33721e-08
2.03423e-08
-9.53795e-08
2.14908e-08
-1.08096e-07
2.27569e-08
-1.21602e-07
2.41737e-08
-1.35996e-07
2.57693e-08
-1.51386e-07
2.75677e-08
-1.67893e-07
2.95892e-08
-1.85648e-07
3.18513e-08
-2.04787e-07
3.43687e-08
-2.25455e-07
3.71537e-08
-2.478e-07
4.02157e-08
-2.71974e-07
4.35612e-08
-2.98129e-07
4.71925e-08
-3.26413e-07
5.11075e-08
-3.56971e-07
5.52977e-08
-3.89937e-07
5.97475e-08
-4.2543e-07
6.44321e-08
-4.63547e-07
6.9316e-08
-5.0436e-07
7.43511e-08
-5.47901e-07
7.94746e-08
-5.94162e-07
8.46073e-08
-6.43076e-07
8.96515e-08
-6.94513e-07
9.44897e-08
-7.48266e-07
9.8983e-08
-8.04041e-07
1.02971e-07
-8.61444e-07
1.0627e-07
-9.19973e-07
1.08677e-07
-9.79006e-07
1.09969e-07
-1.0378e-06
1.09909e-07
-1.09547e-06
1.08249e-07
-1.15103e-06
1.0474e-07
-1.20334e-06
9.91378e-08
-1.25117e-06
9.12207e-08
-1.29319e-06
8.07983e-08
-1.32801e-06
6.77303e-08
-1.35422e-06
5.19382e-08
-1.37038e-06
3.33423e-08
-1.37522e-06
1.23781e-08
-1.36763e-06
-1.09416e-08
-1.34659e-06
-3.62283e-08
-1.31148e-06
-6.28467e-08
-1.26204e-06
-9.00774e-08
-1.19847e-06
-1.17048e-07
-1.12147e-06
-1.42756e-07
-1.03234e-06
-1.66105e-07
-9.32897e-07
-1.85969e-07
-8.25559e-07
-2.01259e-07
-7.13205e-07
-2.1101e-07
-5.99101e-07
-2.14469e-07
-4.86745e-07
-2.11179e-07
-3.79685e-07
-2.01041e-07
-2.81314e-07
-1.8436e-07
-1.94667e-07
-1.61843e-07
-1.22216e-07
-1.34579e-07
-6.56886e-08
-1.03999e-07
-2.58848e-08
-7.18601e-08
-2.45754e-09
-4.03412e-08
6.45258e-09
-1.23623e-08
4.80251e-09
7.63251e-09
1.19766e-08
1.12943e-09
-3.28352e-09
2.62074e-09
-4.88394e-09
3.31033e-09
-3.21159e-09
2.54093e-09
3.10925e-10
-4.06457e-12
4.66587e-09
-4.4007e-09
9.19749e-09
-1.05807e-08
1.35224e-08
-1.83929e-08
1.74418e-08
-2.76547e-08
2.08839e-08
-3.81838e-08
2.3858e-08
-4.98194e-08
2.64231e-08
-6.24335e-08
2.86658e-08
-7.59371e-08
3.06847e-08
-9.02813e-08
3.25799e-08
-1.05456e-07
3.44471e-08
-1.21487e-07
3.63733e-08
-1.38432e-07
3.84357e-08
-1.56376e-07
4.07008e-08
-1.75428e-07
4.3226e-08
-1.95719e-07
4.60596e-08
-2.17394e-07
4.9243e-08
-2.40616e-07
5.28108e-08
-2.65557e-07
5.67927e-08
-2.92401e-07
6.12132e-08
-3.2134e-07
6.60919e-08
-3.52568e-07
7.14436e-08
-3.86283e-07
7.72766e-08
-4.22683e-07
8.35923e-08
-4.61958e-07
9.0383e-08
-5.04291e-07
9.76301e-08
-5.49845e-07
1.05301e-07
-5.98762e-07
1.13349e-07
-6.51151e-07
1.21705e-07
-7.07081e-07
1.30281e-07
-7.66568e-07
1.38962e-07
-8.29564e-07
1.47603e-07
-8.95944e-07
1.56032e-07
-9.65493e-07
1.64039e-07
-1.03789e-06
1.71382e-07
-1.1127e-06
1.7778e-07
-1.18935e-06
1.8292e-07
-1.26713e-06
1.86454e-07
-1.34517e-06
1.88007e-07
-1.42244e-06
1.87182e-07
-1.49776e-06
1.83571e-07
-1.56979e-06
1.76767e-07
-1.63704e-06
1.66383e-07
-1.69788e-06
1.52068e-07
-1.75062e-06
1.33534e-07
-1.79347e-06
1.10581e-07
-1.82465e-06
8.312e-08
-1.84246e-06
5.11572e-08
-1.84527e-06
1.51862e-08
-1.83171e-06
-2.45004e-08
-1.80069e-06
-6.72523e-08
-1.7515e-06
-1.1204e-07
-1.68392e-06
-1.57656e-07
-1.59831e-06
-2.02657e-07
-1.49567e-06
-2.45398e-07
-1.37767e-06
-2.84099e-07
-1.24671e-06
-3.16933e-07
-1.10583e-06
-3.42144e-07
-9.58663e-07
-3.58173e-07
-8.09329e-07
-3.63803e-07
-6.62217e-07
-3.58291e-07
-5.21787e-07
-3.41471e-07
-3.92321e-07
-3.13825e-07
-2.77663e-07
-2.76501e-07
-1.80959e-07
-2.31283e-07
-1.04421e-07
-1.80537e-07
-4.90804e-08
-1.27201e-07
-1.45195e-08
-7.49021e-08
1.50941e-09
-2.83912e-08
3.63009e-09
5.51183e-09
1.56067e-08
1.06239e-09
-4.34592e-09
2.2401e-09
-6.06165e-09
2.29225e-09
-3.26374e-09
5.20336e-10
2.08284e-09
-3.41382e-09
8.60004e-09
-9.59434e-09
1.5378e-08
-1.79414e-08
2.18695e-08
-2.82844e-08
2.77849e-08
-4.04146e-08
3.30141e-08
-5.41224e-08
3.75658e-08
-6.92216e-08
4.15223e-08
-8.5564e-08
4.50082e-08
-1.03047e-07
4.81673e-08
-1.21614e-07
5.11473e-08
-1.41257e-07
5.409e-08
-1.62009e-07
5.71253e-08
-1.83942e-07
6.03688e-08
-2.07162e-07
6.3921e-08
-2.31804e-07
6.78682e-08
-2.58028e-07
7.22838e-08
-2.86015e-07
7.72298e-08
-3.15963e-07
8.27586e-08
-3.48084e-07
8.89139e-08
-3.82603e-07
9.57316e-08
-4.1975e-07
1.03239e-07
-4.59763e-07
1.11456e-07
-5.02878e-07
1.20392e-07
-5.49328e-07
1.30043e-07
-5.99339e-07
1.40393e-07
-6.53116e-07
1.51407e-07
-7.10844e-07
1.6303e-07
-7.72674e-07
1.75179e-07
-8.38713e-07
1.87744e-07
-9.09012e-07
2.00581e-07
-9.83555e-07
2.13505e-07
-1.06224e-06
2.2629e-07
-1.14487e-06
2.38662e-07
-1.23113e-06
2.50299e-07
-1.32058e-06
2.60828e-07
-1.41262e-06
2.69821e-07
-1.50651e-06
2.76805e-07
-1.60131e-06
2.81261e-07
-1.69594e-06
2.82633e-07
-1.7891e-06
2.80339e-07
-1.87931e-06
2.7379e-07
-1.96495e-06
2.62406e-07
-2.04421e-06
2.45642e-07
-2.11516e-06
2.23019e-07
-2.17579e-06
1.94157e-07
-2.22402e-06
1.58812e-07
-2.25781e-06
1.16913e-07
-2.27524e-06
6.85859e-08
-2.27448e-06
1.44225e-08
-2.25402e-06
-4.49615e-08
-2.21271e-06
-1.08557e-07
-2.14986e-06
-1.74887e-07
-2.06534e-06
-2.42177e-07
-1.95967e-06
-3.08331e-07
-1.83409e-06
-3.70977e-07
-1.69062e-06
-4.27564e-07
-1.53208e-06
-4.75482e-07
-1.362e-06
-5.12221e-07
-1.18462e-06
-5.35556e-07
-1.00468e-06
-5.43742e-07
-8.27266e-07
-5.35701e-07
-6.57559e-07
-5.11177e-07
-5.00544e-07
-4.7084e-07
-3.60722e-07
-4.16324e-07
-2.41805e-07
-3.502e-07
-1.46426e-07
-2.75915e-07
-7.58519e-08
-1.97775e-07
-2.96794e-08
-1.21075e-07
-5.47531e-09
-5.25952e-08
1.67791e-09
-1.6414e-09
1.72846e-08
8.79928e-10
-5.22583e-09
1.5195e-09
-6.70122e-09
6.68151e-10
-2.41239e-09
-2.37744e-09
5.12843e-09
-7.9543e-09
1.41769e-08
-1.61392e-08
2.35629e-08
-2.68389e-08
3.25692e-08
-3.98642e-08
4.08101e-08
-5.49844e-08
4.81344e-08
-7.19681e-08
5.45495e-08
-9.06095e-08
6.01637e-08
-1.10745e-07
6.51439e-08
-1.32262e-07
6.96845e-08
-1.55102e-07
7.39868e-08
-1.79257e-07
7.82448e-08
-2.04769e-07
8.26375e-08
-2.31725e-07
8.73247e-08
-2.6025e-07
9.24459e-08
-2.90502e-07
9.81208e-08
-3.2267e-07
1.04452e-07
-3.56965e-07
1.11524e-07
-3.93617e-07
1.19411e-07
-4.32874e-07
1.28171e-07
-4.74995e-07
1.37853e-07
-5.20248e-07
1.48491e-07
-5.68901e-07
1.6011e-07
-6.21225e-07
1.72715e-07
-6.7748e-07
1.86298e-07
-7.37913e-07
2.00826e-07
-8.02749e-07
2.16243e-07
-8.72178e-07
2.32459e-07
-9.4635e-07
2.49351e-07
-1.02536e-06
2.66751e-07
-1.10922e-06
2.84443e-07
-1.19787e-06
3.0216e-07
-1.29116e-06
3.1957e-07
-1.38878e-06
3.36283e-07
-1.49032e-06
3.51838e-07
-1.59519e-06
3.65706e-07
-1.70267e-06
3.77293e-07
-1.8118e-06
3.85939e-07
-1.92147e-06
3.90932e-07
-2.03035e-06
3.91517e-07
-2.13692e-06
3.8691e-07
-2.23946e-06
3.76329e-07
-2.33607e-06
3.59014e-07
-2.42469e-06
3.34265e-07
-2.50316e-06
3.01482e-07
-2.56921e-06
2.60207e-07
-2.62057e-06
2.10177e-07
-2.65503e-06
1.51373e-07
-2.67051e-06
8.40635e-08
-2.66509e-06
9.00047e-09
-2.6372e-06
-7.28521e-08
-2.58569e-06
-1.60063e-07
-2.50992e-06
-2.50657e-07
-2.40985e-06
-3.42245e-07
-2.28616e-06
-4.32023e-07
-2.1403e-06
-5.16842e-07
-1.97454e-06
-5.93322e-07
-1.79201e-06
-6.58015e-07
-1.59662e-06
-7.07603e-07
-1.39304e-06
-7.39138e-07
-1.18649e-06
-7.50292e-07
-9.82586e-07
-7.39607e-07
-7.87058e-07
-7.06705e-07
-6.05465e-07
-6.52434e-07
-4.42855e-07
-5.78934e-07
-3.03432e-07
-4.89622e-07
-1.90219e-07
-3.89128e-07
-1.04739e-07
-2.83255e-07
-4.66965e-08
-1.79117e-07
-1.36554e-08
-8.56363e-08
-7.03883e-10
-1.45929e-08
1.65807e-08
6.07059e-10
-5.8329e-09
5.20756e-10
-6.61493e-09
-1.46545e-09
-4.26193e-10
-6.02785e-09
9.69083e-09
-1.3481e-08
2.163e-08
-2.38815e-08
3.39634e-08
-3.71168e-08
4.58045e-08
-5.29773e-08
5.66706e-08
-7.12129e-08
6.637e-08
-9.15739e-08
7.49104e-08
-1.13839e-07
8.24289e-08
-1.37834e-07
8.91385e-08
-1.63438e-07
9.52891e-08
-1.90592e-07
1.01141e-07
-2.19293e-07
1.06945e-07
-2.49591e-07
1.12936e-07
-2.81587e-07
1.19321e-07
-3.15424e-07
1.26283e-07
-3.51283e-07
1.3398e-07
-3.89377e-07
1.42545e-07
-4.29944e-07
1.52091e-07
-4.73245e-07
1.62712e-07
-5.19556e-07
1.74483e-07
-5.69168e-07
1.87465e-07
-6.22376e-07
2.017e-07
-6.79478e-07
2.17212e-07
-7.40768e-07
2.34005e-07
-8.06527e-07
2.52057e-07
-8.77015e-07
2.71315e-07
-9.52463e-07
2.91691e-07
-1.03306e-06
3.13057e-07
-1.11894e-06
3.35232e-07
-1.21017e-06
3.5798e-07
-1.30673e-06
3.81002e-07
-1.40849e-06
4.03924e-07
-1.51522e-06
4.26299e-07
-1.62653e-06
4.47593e-07
-1.74188e-06
4.6719e-07
-1.86056e-06
4.84386e-07
-1.98167e-06
4.98398e-07
-2.10409e-06
5.08364e-07
-2.22652e-06
5.13362e-07
-2.34743e-06
5.12423e-07
-2.46508e-06
5.04559e-07
-2.57754e-06
4.88788e-07
-2.6827e-06
4.64176e-07
-2.77831e-06
4.29877e-07
-2.86202e-06
3.85186e-07
-2.9314e-06
3.2959e-07
-2.98406e-06
2.62834e-07
-3.01766e-06
1.84982e-07
-3.03007e-06
9.64714e-08
-3.01934e-06
-1.73367e-09
-2.98389e-06
-1.083e-07
-2.92261e-06
-2.2134e-07
-2.83493e-06
-3.38345e-07
-2.72089e-06
-4.56283e-07
-2.58129e-06
-5.71618e-07
-2.41774e-06
-6.80394e-07
-2.23269e-06
-7.78374e-07
-2.02947e-06
-8.61238e-07
-1.81225e-06
-9.24818e-07
-1.58599e-06
-9.65397e-07
-1.35627e-06
-9.80015e-07
-1.12909e-06
-9.66786e-07
-9.10633e-07
-9.25163e-07
-7.06921e-07
-8.56145e-07
-5.23479e-07
-7.62376e-07
-3.64955e-07
-6.48147e-07
-2.34755e-07
-5.19328e-07
-1.34696e-07
-3.83314e-07
-6.46852e-08
-2.49128e-07
-2.24377e-08
-1.27884e-07
-3.27465e-09
-3.37559e-08
1.3306e-08
2.63284e-10
-6.09617e-09
-7.06315e-10
-5.64532e-09
-4.02927e-09
2.89676e-09
-1.03268e-08
1.59884e-08
-1.98716e-08
3.11749e-08
-3.26876e-08
4.67794e-08
-4.86352e-08
6.17521e-08
-6.74821e-08
7.55176e-08
-8.89586e-08
8.78465e-08
-1.12799e-07
9.87504e-08
-1.38768e-07
1.08399e-07
-1.66685e-07
1.17055e-07
-1.96425e-07
1.25029e-07
-2.27928e-07
1.32644e-07
-2.61197e-07
1.40214e-07
-2.96292e-07
1.48031e-07
-3.33327e-07
1.56356e-07
-3.72462e-07
1.65419e-07
-4.13899e-07
1.75417e-07
-4.57872e-07
1.86518e-07
-5.04644e-07
1.98863e-07
-5.54501e-07
2.12569e-07
-6.07746e-07
2.27728e-07
-6.64693e-07
2.44412e-07
-7.25663e-07
2.62669e-07
-7.90973e-07
2.82522e-07
-8.60934e-07
3.03966e-07
-9.3584e-07
3.26962e-07
-1.01596e-06
3.51431e-07
-1.10151e-06
3.77246e-07
-1.19268e-06
4.04226e-07
-1.28957e-06
4.32126e-07
-1.39222e-06
4.60627e-07
-1.50055e-06
4.89328e-07
-1.61436e-06
5.17741e-07
-1.73334e-06
5.45277e-07
-1.857e-06
5.71248e-07
-1.98467e-06
5.94863e-07
-2.11551e-06
6.15227e-07
-2.24846e-06
6.31351e-07
-2.38226e-06
6.4216e-07
-2.51541e-06
6.46513e-07
-2.64621e-06
6.43225e-07
-2.77275e-06
6.31098e-07
-2.89292e-06
6.08961e-07
-3.00446e-06
5.75716e-07
-3.10497e-06
5.30387e-07
-3.19197e-06
4.72187e-07
-3.26296e-06
4.00576e-07
-3.31546e-06
3.15333e-07
-3.34711e-06
2.16633e-07
-3.35575e-06
1.05108e-07
-3.33945e-06
-1.80312e-08
-3.29668e-06
-1.51068e-07
-3.22638e-06
-2.91643e-07
-3.12802e-06
-4.36702e-07
-3.00174e-06
-5.82563e-07
-2.84841e-06
-7.24949e-07
-2.66971e-06
-8.59093e-07
-2.46819e-06
-9.79891e-07
-2.24731e-06
-1.08213e-06
-2.01137e-06
-1.16076e-06
-1.76551e-06
-1.21125e-06
-1.51557e-06
-1.22996e-06
-1.26783e-06
-1.21452e-06
-1.02884e-06
-1.16415e-06
-8.05023e-07
-1.07996e-06
-6.02329e-07
-9.65069e-07
-4.25836e-07
-8.2464e-07
-2.79344e-07
-6.65819e-07
-1.65013e-07
-4.97645e-07
-8.30406e-08
-3.31101e-07
-3.14257e-08
-1.79499e-07
-5.8867e-09
-5.92949e-08
7.41933e-09
-1.36959e-10
-5.95922e-09
-2.12219e-09
-3.6601e-09
-6.95859e-09
7.73315e-09
-1.51875e-08
2.42173e-08
-2.70221e-08
4.30094e-08
-4.24408e-08
6.21981e-08
-6.12695e-08
8.05808e-08
-8.32491e-08
9.74971e-08
-1.08089e-07
1.12686e-07
-1.35507e-07
1.26169e-07
-1.65259e-07
1.38151e-07
-1.97156e-07
1.48952e-07
-2.31072e-07
1.58945e-07
-2.66949e-07
1.68521e-07
-3.04795e-07
1.78061e-07
-3.44682e-07
1.87918e-07
-3.86736e-07
1.9841e-07
-4.31133e-07
2.09816e-07
-4.78092e-07
2.22376e-07
-5.27868e-07
2.36294e-07
-5.80745e-07
2.5174e-07
-6.37031e-07
2.68854e-07
-6.97049e-07
2.87746e-07
-7.61134e-07
3.08497e-07
-8.29623e-07
3.31158e-07
-9.0285e-07
3.55749e-07
-9.81136e-07
3.82252e-07
-1.06478e-06
4.10603e-07
-1.15403e-06
4.4069e-07
-1.24913e-06
4.72339e-07
-1.35021e-06
5.05308e-07
-1.45736e-06
5.39274e-07
-1.57055e-06
5.73822e-07
-1.68966e-06
6.08437e-07
-1.81442e-06
6.42498e-07
-1.94441e-06
6.75263e-07
-2.07903e-06
7.05873e-07
-2.21752e-06
7.33347e-07
-2.35888e-06
7.56588e-07
-2.50192e-06
7.7439e-07
-2.64522e-06
7.8546e-07
-2.78714e-06
7.88434e-07
-2.92582e-06
7.81912e-07
-3.05922e-06
7.64497e-07
-3.1851e-06
7.34841e-07
-3.30108e-06
6.91697e-07
-3.40468e-06
6.33987e-07
-3.49336e-06
5.60864e-07
-3.56457e-06
4.71786e-07
-3.61584e-06
3.66598e-07
-3.64481e-06
2.45604e-07
-3.64935e-06
1.0965e-07
-3.6276e-06
-3.97837e-08
-3.57807e-06
-2.00597e-07
-3.49975e-06
-3.69962e-07
-3.39217e-06
-5.44282e-07
-3.2555e-06
-7.19235e-07
-3.09063e-06
-8.89821e-07
-2.89925e-06
-1.05047e-06
-2.68394e-06
-1.1952e-06
-2.44817e-06
-1.3179e-06
-2.19629e-06
-1.41263e-06
-1.93355e-06
-1.47399e-06
-1.66592e-06
-1.4976e-06
-1.39991e-06
-1.48052e-06
-1.14237e-06
-1.4217e-06
-9.00077e-07
-1.32226e-06
-6.79391e-07
-1.18576e-06
-4.85817e-07
-1.01821e-06
-3.23584e-07
-8.28053e-07
-1.95247e-07
-6.25981e-07
-1.0138e-07
-4.24969e-07
-4.03726e-08
-2.40506e-07
-8.44891e-09
-9.12187e-08
-1.02957e-09
-5.8193e-10
-5.37728e-09
-3.69575e-09
-5.46277e-10
-1.02009e-08
1.42383e-08
-2.05378e-08
3.45542e-08
-3.48435e-08
5.73151e-08
-5.30394e-08
8.0394e-08
-7.49086e-08
1.0245e-07
-1.0016e-07
1.22748e-07
-1.2848e-07
1.41006e-07
-1.5957e-07
1.57259e-07
-1.93177e-07
1.71758e-07
-2.29105e-07
1.8488e-07
-2.67228e-07
1.97068e-07
-3.07492e-07
2.08785e-07
-3.49912e-07
2.20481e-07
-3.94569e-07
2.32574e-07
-4.41601e-07
2.45442e-07
-4.91199e-07
2.59414e-07
-5.43598e-07
2.74775e-07
-5.99072e-07
2.91767e-07
-6.5792e-07
3.10589e-07
-7.2047e-07
3.31404e-07
-7.8706e-07
3.54337e-07
-8.58042e-07
3.79478e-07
-9.33763e-07
4.0688e-07
-1.01457e-06
4.36552e-07
-1.10077e-06
4.6846e-07
-1.19268e-06
5.0251e-07
-1.29054e-06
5.38549e-07
-1.39455e-06
5.76346e-07
-1.50483e-06
6.15587e-07
-1.62141e-06
6.55859e-07
-1.74423e-06
6.96641e-07
-1.87308e-06
7.37291e-07
-2.00763e-06
7.77039e-07
-2.14734e-06
8.14979e-07
-2.29154e-06
8.50068e-07
-2.43931e-06
8.81124e-07
-2.58956e-06
9.06839e-07
-2.74096e-06
9.25789e-07
-2.89196e-06
9.36458e-07
-3.04079e-06
9.37265e-07
-3.18549e-06
9.26605e-07
-3.32388e-06
9.02895e-07
-3.45367e-06
8.64627e-07
-3.5724e-06
8.10432e-07
-3.67757e-06
7.3915e-07
-3.76661e-06
6.49904e-07
-3.837e-06
5.42176e-07
-3.8863e-06
4.15896e-07
-3.91221e-06
2.71519e-07
-3.91267e-06
1.10108e-07
-3.88588e-06
-6.65756e-08
-3.83041e-06
-2.5606e-07
-3.7453e-06
-4.5507e-07
-3.6301e-06
-6.59485e-07
-3.48496e-06
-8.64372e-07
-3.31075e-06
-1.06403e-06
-3.10911e-06
-1.25211e-06
-2.88254e-06
-1.42178e-06
-2.63444e-06
-1.566e-06
-2.36915e-06
-1.67792e-06
-2.09191e-06
-1.75123e-06
-1.80878e-06
-1.78073e-06
-1.52645e-06
-1.76286e-06
-1.25199e-06
-1.69616e-06
-9.92525e-07
-1.58172e-06
-7.54829e-07
-1.42345e-06
-5.44855e-07
-1.22819e-06
-3.67295e-07
-1.00561e-06
-2.25165e-07
-7.68111e-07
-1.19491e-07
-5.30642e-07
-4.91433e-08
-3.10854e-07
-1.09158e-08
-1.29446e-07
-1.19453e-08
-1.06395e-09
-4.31333e-09
-5.40278e-09
3.79254e-09
-1.37136e-08
2.2549e-08
-2.63173e-08
4.7158e-08
-4.32601e-08
7.4258e-08
-6.43946e-08
1.01529e-07
-8.94525e-08
1.27508e-07
-1.18106e-07
1.51402e-07
-1.50015e-07
1.72915e-07
-1.84864e-07
1.92109e-07
-2.22389e-07
2.09283e-07
-2.6239e-07
2.24881e-07
-3.04742e-07
2.3942e-07
-3.49394e-07
2.53437e-07
-3.96368e-07
2.67455e-07
-4.45754e-07
2.8196e-07
-4.97702e-07
2.9739e-07
-5.52417e-07
3.14129e-07
-6.10149e-07
3.32506e-07
-6.71182e-07
3.52801e-07
-7.35836e-07
3.75243e-07
-8.04447e-07
4.00015e-07
-8.7737e-07
4.27259e-07
-9.54962e-07
4.57071e-07
-1.03758e-06
4.89499e-07
-1.12557e-06
5.24541e-07
-1.21925e-06
5.62138e-07
-1.3189e-06
6.02162e-07
-1.42476e-06
6.44409e-07
-1.537e-06
6.88583e-07
-1.6557e-06
7.34288e-07
-1.78085e-06
7.8101e-07
-1.91232e-06
8.2811e-07
-2.04983e-06
8.74806e-07
-2.19296e-06
9.20169e-07
-2.3411e-06
9.63119e-07
-2.49345e-06
1.00242e-06
-2.649e-06
1.03668e-06
-2.80654e-06
1.06438e-06
-2.96462e-06
1.08387e-06
-3.12159e-06
1.09343e-06
-3.27559e-06
1.09126e-06
-3.42455e-06
1.07557e-06
-3.56626e-06
1.04461e-06
-3.69836e-06
9.96729e-07
-3.8184e-06
9.30471e-07
-3.92387e-06
8.44616e-07
-4.01225e-06
7.38283e-07
-4.08108e-06
6.11002e-07
-4.12798e-06
4.62803e-07
-4.15076e-06
2.943e-07
-4.14743e-06
1.06774e-07
-4.11626e-06
-9.77408e-08
-4.0559e-06
-3.16424e-07
-3.96539e-06
-5.45583e-07
-3.84426e-06
-7.80611e-07
-3.69263e-06
-1.016e-06
-3.51126e-06
-1.2454e-06
-3.30168e-06
-1.46169e-06
-3.06623e-06
-1.65722e-06
-2.80819e-06
-1.82404e-06
-2.53179e-06
-1.95432e-06
-2.2422e-06
-2.04082e-06
-1.94549e-06
-2.07744e-06
-1.64848e-06
-2.05987e-06
-1.35845e-06
-1.98618e-06
-1.08288e-06
-1.85729e-06
-8.28935e-07
-1.6774e-06
-6.03061e-07
-1.45406e-06
-4.10465e-07
-1.19821e-06
-2.54692e-07
-9.23884e-07
-1.37293e-07
-6.48041e-07
-5.76841e-08
-3.90463e-07
-1.32724e-08
-1.73858e-07
-2.52178e-08
-1.57687e-09
-2.73645e-09
-7.22439e-09
9.44006e-09
-1.74622e-08
3.27868e-08
-3.24759e-08
6.21717e-08
-5.2207e-08
9.3989e-08
-7.64281e-08
1.2575e-07
-1.04812e-07
1.55892e-07
-1.36987e-07
1.83577e-07
-1.72585e-07
2.08512e-07
-2.11271e-07
2.30794e-07
-2.52769e-07
2.50781e-07
-2.96875e-07
2.68988e-07
-3.43465e-07
2.86009e-07
-3.92491e-07
3.02463e-07
-4.43982e-07
3.18946e-07
-4.98038e-07
3.36016e-07
-5.5482e-07
3.54172e-07
-6.14543e-07
3.73852e-07
-6.77469e-07
3.95432e-07
-7.43896e-07
4.19228e-07
-8.14153e-07
4.45499e-07
-8.88588e-07
4.7445e-07
-9.67561e-07
5.06233e-07
-1.05144e-06
5.40947e-07
-1.14057e-06
5.78635e-07
-1.23531e-06
6.19277e-07
-1.33596e-06
6.62784e-07
-1.44278e-06
7.08985e-07
-1.55599e-06
7.57619e-07
-1.67572e-06
8.08315e-07
-1.80202e-06
8.60585e-07
-1.93481e-06
9.13807e-07
-2.07391e-06
9.67208e-07
-2.21897e-06
1.01986e-06
-2.36946e-06
1.07067e-06
-2.5247e-06
1.11836e-06
-2.68379e-06
1.16151e-06
-2.84562e-06
1.19851e-06
-3.00888e-06
1.22763e-06
-3.17203e-06
1.24702e-06
-3.33333e-06
1.25473e-06
-3.49086e-06
1.24878e-06
-3.6425e-06
1.22721e-06
-3.78602e-06
1.18812e-06
-3.91906e-06
1.12976e-06
-4.03918e-06
1.05059e-06
-4.14394e-06
9.49376e-07
-4.2309e-06
8.25242e-07
-4.29769e-06
6.77788e-07
-4.34204e-06
5.07155e-07
-4.36185e-06
3.14116e-07
-4.35524e-06
1.00161e-07
-4.32056e-06
-1.32423e-07
-4.25648e-06
-3.80501e-07
-4.16206e-06
-6.4001e-07
-4.03677e-06
-9.05901e-07
-3.88062e-06
-1.17215e-06
-3.69424e-06
-1.43178e-06
-3.47895e-06
-1.67698e-06
-3.23691e-06
-1.89927e-06
-2.97116e-06
-2.08979e-06
-2.68576e-06
-2.23972e-06
-2.38576e-06
-2.34082e-06
-2.07719e-06
-2.38601e-06
-1.76694e-06
-2.37013e-06
-1.46251e-06
-2.29061e-06
-1.17167e-06
-2.14813e-06
-9.02068e-07
-1.947e-06
-6.6065e-07
-1.69548e-06
-4.53204e-07
-1.40565e-06
-2.83868e-07
-1.09322e-06
-1.54792e-07
-7.77117e-07
-6.59986e-08
-4.79256e-07
-1.55246e-08
-2.24332e-07
-4.07424e-08
-2.11625e-09
-6.20204e-10
-9.14587e-09
1.64697e-08
-2.14189e-08
4.50598e-08
-3.89716e-08
7.97244e-08
-6.16282e-08
1.16646e-07
-8.90714e-08
1.53193e-07
-1.20906e-07
1.87726e-07
-1.56713e-07
2.19383e-07
-1.96088e-07
2.47888e-07
-2.38678e-07
2.73384e-07
-2.84192e-07
2.96296e-07
-3.32424e-07
3.17219e-07
-3.83246e-07
3.36832e-07
-4.36617e-07
3.55834e-07
-4.92573e-07
3.74901e-07
-5.5122e-07
3.94663e-07
-6.12729e-07
4.15681e-07
-6.77326e-07
4.38449e-07
-7.45282e-07
4.63388e-07
-8.16905e-07
4.90851e-07
-8.92531e-07
5.21125e-07
-9.72514e-07
5.54433e-07
-1.05722e-06
5.90938e-07
-1.14701e-06
6.30737e-07
-1.24224e-06
6.73864e-07
-1.34324e-06
7.20276e-07
-1.4503e-06
7.69847e-07
-1.56367e-06
8.22357e-07
-1.68353e-06
8.77478e-07
-1.80998e-06
9.34759e-07
-1.943e-06
9.9361e-07
-2.08248e-06
1.05329e-06
-2.22815e-06
1.11288e-06
-2.37959e-06
1.1713e-06
-2.53622e-06
1.22729e-06
-2.69723e-06
1.27937e-06
-2.86165e-06
1.32593e-06
-3.02829e-06
1.36515e-06
-3.19575e-06
1.39509e-06
-3.36243e-06
1.4137e-06
-3.52653e-06
1.41883e-06
-3.68608e-06
1.40834e-06
-3.83897e-06
1.3801e-06
-3.98296e-06
1.33212e-06
-4.11574e-06
1.26254e-06
-4.23495e-06
1.1698e-06
-4.33822e-06
1.05265e-06
-4.42323e-06
9.10251e-07
-4.48773e-06
7.42285e-07
-4.52958e-06
5.49005e-07
-4.54679e-06
3.31334e-07
-4.53758e-06
9.095e-08
-4.50037e-06
-1.69634e-07
-4.43386e-06
-4.47015e-07
-4.33706e-06
-7.36809e-07
-4.20937e-06
-1.03358e-06
-4.05067e-06
-1.33086e-06
-3.86135e-06
-1.62109e-06
-3.64252e-06
-1.89581e-06
-3.39604e-06
-2.14574e-06
-3.1247e-06
-2.36113e-06
-2.83229e-06
-2.53213e-06
-2.52369e-06
-2.64942e-06
-2.20483e-06
-2.70486e-06
-1.88264e-06
-2.69232e-06
-1.5648e-06
-2.60845e-06
-1.25943e-06
-2.4535e-06
-9.74616e-07
-2.23181e-06
-7.17898e-07
-1.9522e-06
-4.95694e-07
-1.62786e-06
-3.12811e-07
-1.2761e-06
-1.72063e-07
-9.17864e-07
-7.41293e-08
-5.7719e-07
-1.76909e-08
-2.8077e-07
-5.84333e-08
-2.67884e-09
2.05865e-09
-1.11557e-08
2.49465e-08
-2.55609e-08
5.9465e-08
-4.57691e-08
9.99327e-08
-7.14759e-08
1.42352e-07
-1.02264e-07
1.83981e-07
-1.37662e-07
2.23125e-07
-1.77198e-07
2.58919e-07
-2.20429e-07
2.91119e-07
-2.66977e-07
3.19932e-07
-3.1654e-07
3.45859e-07
-3.68903e-07
3.69582e-07
-4.2394e-07
3.91869e-07
-4.81611e-07
4.13505e-07
-5.41959e-07
4.35249e-07
-6.05097e-07
4.57801e-07
-6.71206e-07
4.8179e-07
-7.40518e-07
5.07761e-07
-8.13312e-07
5.36182e-07
-8.89902e-07
5.67442e-07
-9.70629e-07
6.01852e-07
-1.05585e-06
6.39654e-07
-1.14593e-06
6.81016e-07
-1.24122e-06
7.26033e-07
-1.34208e-06
7.7472e-07
-1.44881e-06
8.27009e-07
-1.5617e-06
8.82731e-07
-1.68095e-06
9.4161e-07
-1.80672e-06
1.00324e-06
-1.93905e-06
1.06709e-06
-2.07789e-06
1.13245e-06
-2.22305e-06
1.19845e-06
-2.37422e-06
1.26404e-06
-2.53088e-06
1.32797e-06
-2.69238e-06
1.38878e-06
-2.85784e-06
1.44484e-06
-3.02622e-06
1.4943e-06
-3.19624e-06
1.53517e-06
-3.36645e-06
1.5653e-06
-3.5352e-06
1.58244e-06
-3.70066e-06
1.58429e-06
-3.86086e-06
1.56854e-06
-4.01371e-06
1.53295e-06
-4.15702e-06
1.47543e-06
-4.28854e-06
1.39407e-06
-4.40603e-06
1.28728e-06
-4.50722e-06
1.15384e-06
-4.58994e-06
9.92973e-07
-4.65208e-06
8.04425e-07
-4.69165e-06
5.88567e-07
-4.70677e-06
3.46454e-07
-4.69575e-06
7.99278e-08
-4.65707e-06
-2.08314e-07
-4.58943e-06
-5.14649e-07
-4.49181e-06
-8.34435e-07
-4.36347e-06
-1.16192e-06
-4.2041e-06
-1.49023e-06
-4.01386e-06
-1.81133e-06
-3.79356e-06
-2.11612e-06
-3.54472e-06
-2.39458e-06
-3.26979e-06
-2.63605e-06
-2.97227e-06
-2.82965e-06
-2.65677e-06
-2.96492e-06
-2.3291e-06
-3.03253e-06
-1.99619e-06
-3.02523e-06
-1.66587e-06
-2.93877e-06
-1.3466e-06
-2.77277e-06
-1.04696e-06
-2.53145e-06
-7.75105e-07
-2.22405e-06
-5.38165e-07
-1.8648e-06
-3.41685e-07
-1.47258e-06
-1.89217e-07
-1.07033e-06
-8.21423e-08
-6.84265e-07
-1.97974e-08
-3.43115e-07
-7.82307e-08
-3.26225e-09
5.3209e-09
-1.3245e-08
3.49292e-08
-2.98697e-08
7.60897e-08
-5.28388e-08
1.22902e-07
-8.17082e-08
1.71222e-07
-1.15951e-07
2.18224e-07
-1.55015e-07
2.62189e-07
-1.98364e-07
3.02268e-07
-2.45517e-07
3.38272e-07
-2.96067e-07
3.70482e-07
-3.49697e-07
3.99488e-07
-4.06183e-07
4.26068e-07
-4.654e-07
4.51085e-07
-5.2731e-07
4.75415e-07
-5.9196e-07
4.99899e-07
-6.5947e-07
5.25312e-07
-7.30027e-07
5.52346e-07
-8.03869e-07
5.81603e-07
-8.81281e-07
6.13594e-07
-9.6258e-07
6.48741e-07
-1.04811e-06
6.8738e-07
-1.13822e-06
7.29767e-07
-1.23328e-06
7.76073e-07
-1.33363e-06
8.26384e-07
-1.43961e-06
8.80697e-07
-1.55151e-06
9.38908e-07
-1.66958e-06
1.0008e-06
-1.794e-06
1.06604e-06
-1.92489e-06
1.13413e-06
-2.06225e-06
1.20445e-06
-2.20597e-06
1.27617e-06
-2.3558e-06
1.34828e-06
-2.51135e-06
1.41959e-06
-2.67206e-06
1.48868e-06
-2.83719e-06
1.55391e-06
-3.0058e-06
1.61345e-06
-3.17678e-06
1.66528e-06
-3.34881e-06
1.7072e-06
-3.52038e-06
1.73688e-06
-3.68984e-06
1.7519e-06
-3.85534e-06
1.7498e-06
-4.01495e-06
1.72815e-06
-4.16662e-06
1.68462e-06
-4.30824e-06
1.61705e-06
-4.43768e-06
1.5235e-06
-4.5528e-06
1.4024e-06
-4.6515e-06
1.25255e-06
-4.73175e-06
1.07323e-06
-4.79161e-06
8.64281e-07
-4.82922e-06
6.26172e-07
-4.84283e-06
3.60068e-07
-4.83084e-06
6.79369e-08
-4.79177e-06
-2.4738e-07
-4.72433e-06
-5.82097e-07
-4.62738e-06
-9.31381e-07
-4.50007e-06
-1.28923e-06
-4.34185e-06
-1.64844e-06
-4.15262e-06
-2.00056e-06
-3.93281e-06
-2.33593e-06
-3.68359e-06
-2.6438e-06
-3.40702e-06
-2.91262e-06
-3.10622e-06
-3.13046e-06
-2.7855e-06
-3.28564e-06
-2.45048e-06
-3.36755e-06
-2.10803e-06
-3.36769e-06
-1.76613e-06
-3.28067e-06
-1.43356e-06
-3.10533e-06
-1.11943e-06
-2.84559e-06
-8.32564e-07
-2.51092e-06
-5.80859e-07
-2.1165e-06
-3.70681e-07
-1.68276e-06
-2.06388e-07
-1.23462e-06
-9.01165e-08
-8.00537e-07
-2.18729e-08
-4.11359e-07
-1.00104e-07
-3.86471e-09
9.18562e-09
-1.54065e-08
4.6471e-08
-3.43302e-08
9.50134e-08
-6.01555e-08
1.48727e-07
-9.22893e-08
2.03356e-07
-1.30087e-07
2.56021e-07
-1.72904e-07
3.05006e-07
-2.20141e-07
3.49505e-07
-2.71268e-07
3.894e-07
-3.2585e-07
4.25063e-07
-3.83551e-07
4.57189e-07
-4.44139e-07
4.86657e-07
-5.07486e-07
5.14432e-07
-5.73555e-07
5.41484e-07
-6.42397e-07
5.68741e-07
-7.14138e-07
5.97053e-07
-7.88969e-07
6.27177e-07
-8.67132e-07
6.59766e-07
-9.48914e-07
6.95376e-07
-1.03463e-06
7.34461e-07
-1.12463e-06
7.77378e-07
-1.21926e-06
8.24394e-07
-1.31887e-06
8.75679e-07
-1.42379e-06
9.31308e-07
-1.53434e-06
9.91252e-07
-1.6508e-06
1.05537e-06
-1.77339e-06
1.12339e-06
-1.90225e-06
1.1949e-06
-2.03744e-06
1.26933e-06
-2.17894e-06
1.34594e-06
-2.32656e-06
1.42379e-06
-2.48002e-06
1.50174e-06
-2.63886e-06
1.57843e-06
-2.80244e-06
1.65226e-06
-2.96997e-06
1.72144e-06
-3.14046e-06
1.78394e-06
-3.31274e-06
1.83756e-06
-3.48546e-06
1.87992e-06
-3.65709e-06
1.90852e-06
-3.82598e-06
1.92078e-06
-3.99032e-06
1.91414e-06
-4.14822e-06
1.88605e-06
-4.29771e-06
1.83411e-06
-4.43679e-06
1.75612e-06
-4.56345e-06
1.65016e-06
-4.67571e-06
1.51466e-06
-4.77163e-06
1.34847e-06
-4.84936e-06
1.15095e-06
-4.9071e-06
9.22019e-07
-4.94314e-06
6.62218e-07
-4.95588e-06
3.72802e-07
-4.94377e-06
5.58259e-08
-4.90537e-06
-2.85773e-07