/*--------------------------------*- C++ -*----------------------------------*\
  =========                 |
  \\      /  F ield         | OpenFOAM: The Open Source CFD Toolbox
   \\    /   O peration     | Website:  https://openfoam.org
    \\  /    A nd           | Version:  12
     \\/     M anipulation  |
\*---------------------------------------------------------------------------*/
FoamFile
{
    format      ascii;
    class       volScalarField;
    location    "1.45";
    object      p;
}
// * * * * * * * * * * * * * * * * * * * * * * * * * * * * * * * * * * * * * //

dimensions      [0 2 -2 0 0 0 0];

internalField   nonuniform List<scalar> 
400
(
6.6861e-08
0.000377594
0.000551874
0.000300063
-0.000381989
-0.00144177
-0.00281472
-0.00443044
-0.00621705
-0.00810448
-0.0100253
-0.011913
-0.0137002
-0.0153165
-0.0166899
-0.0177498
-0.0184316
-0.0186828
-0.0185078
-0.0181297
-0.000293259
0.000167026
0.000360905
7.7181e-05
-0.000634223
-0.00169649
-0.003043
-0.0046092
-0.00633052
-0.00814372
-0.00998738
-0.0118008
-0.0135224
-0.015089
-0.0164356
-0.0174978
-0.0182087
-0.0184916
-0.0182966
-0.0178353
0.00137084
0.00176758
0.00181529
0.00131413
0.000363693
-0.000927553
-0.00248053
-0.00422896
-0.00611172
-0.00807281
-0.0100597
-0.0120211
-0.0139044
-0.0156533
-0.0172066
-0.0184978
-0.0194475
-0.0199473
-0.0198974
-0.0194986
0.0058434
0.00584618
0.00537852
0.0043216
0.00281463
0.000992137
-0.00105175
-0.00324923
-0.00554102
-0.00788595
-0.0102481
-0.0125939
-0.0148874
-0.0170851
-0.0191306
-0.0209538
-0.0224601
-0.0235146
-0.0239781
-0.0239709
0.0136834
0.0127669
0.0112012
0.00908176
0.00658969
0.00387641
0.00104632
-0.00183415
-0.00472795
-0.00762084
-0.0105125
-0.0134071
-0.016304
-0.0191883
-0.0220221
-0.0247378
-0.02723
-0.0293459
-0.0309041
-0.0318119
0.0255515
0.0228906
0.0193477
0.0154453
0.011408
0.00738536
0.00347938
-0.000265162
-0.00385592
-0.00733957
-0.0107862
-0.0142738
-0.0178717
-0.0216255
-0.025541
-0.0295714
-0.0336121
-0.0375109
-0.0410415
-0.0436866
0.0419906
0.0363021
0.0294583
0.0227629
0.0164736
0.0106953
0.00549617
0.000862379
-0.0033059
-0.00717181
-0.0109356
-0.0148097
-0.0189931
-0.0236471
-0.0288684
-0.0346668
-0.0409692
-0.0476645
-0.0544904
-0.0601529
0.0629969
0.0523316
0.0402579
0.0294083
0.0200361
0.0121153
0.00561749
0.000403033
-0.00380125
-0.00736562
-0.0107159
-0.0142956
-0.0185292
-0.0237839
-0.030328
-0.0382946
-0.0477027
-0.0585658
-0.0706197
-0.0812462
0.08721
0.0687318
0.0487291
0.0319932
0.0186836
0.00848303
0.00115101
-0.00369347
-0.00662718
-0.00836761
-0.00971057
-0.0114765
-0.0144601
-0.0193759
-0.0267948
-0.0370878
-0.0504796
-0.0672642
-0.0872584
-0.105689
0.110521
0.0802878
0.0487813
0.0241484
0.00627469
-0.0057288
-0.0125157
-0.0148965
-0.0139508
-0.0109483
-0.00726077
-0.00429252
-0.00341678
-0.00590418
-0.0128313
-0.0249981
-0.0430351
-0.0677915
-0.0993358
-0.129534
0.123803
0.0766268
0.0292114
-0.00529039
-0.0276071
-0.0396726
-0.0428913
-0.0387982
-0.0292643
-0.0163927
-0.00240376
0.0104427
0.019916
0.0238979
0.0205044
0.00820059
-0.0143938
-0.049154
-0.096727
-0.143942
0.109331
0.0388467
-0.0293294
-0.0748812
-0.0997792
-0.107792
-0.10163
-0.0839972
-0.0579496
-0.0267741
0.00613876
0.0373593
0.0634651
0.0811142
0.0871907
0.078948
0.053676
0.0076712
-0.060909
-0.131641
0.0352331
-0.0655812
-0.158743
-0.214149
-0.236191
-0.231808
-0.205915
-0.163028
-0.107875
-0.0452939
0.0198612
0.0827156
0.138333
0.181727
0.208005
0.212494
0.190182
0.134152
0.0401741
-0.0613326
-0.153222
-0.29056
-0.409783
-0.468218
-0.475007
-0.442563
-0.379452
-0.292863
-0.189671
-0.0764957
0.0402669
0.154272
0.258943
0.34732
0.412173
0.445903
0.43959
0.380663
0.260106
0.1213
-0.548532
-0.723883
-0.861032
-0.903103
-0.868888
-0.780289
-0.651676
-0.49383
-0.315926
-0.126119
0.0682001
0.259831
0.441163
0.603677
0.737333
0.83031
0.867307
0.825904
0.687177
0.509317
-1.31218
-1.5109
-1.63331
-1.61139
-1.4843
-1.29023
-1.05186
-0.783763
-0.496614
-0.198538
0.104199
0.40594
0.700068
0.977654
1.22665
1.43091
1.56614
1.59243
1.46963
1.2677
-2.73138
-2.89141
-2.90675
-2.71189
-2.38976
-2.00562
-1.5914
-1.16332
-0.729311
-0.292046
0.148339
0.592218
1.03856
1.48301
1.91601
2.31975
2.65926
2.86618
2.85524
2.69338
-5.33453
-5.25661
-4.90856
-4.30771
-3.61165
-2.91183
-2.23962
-1.60024
-0.988312
-0.392894
0.19983
0.804358
1.43406
2.09878
2.80156
3.53313
4.25772
4.88106
5.24224
5.32428
-11.1826
-9.54073
-7.66715
-6.05722
-4.724
-3.6043
-2.65477
-1.83637
-1.10859
-0.431984
0.231223
0.918072
1.66654
2.5156
3.50456
4.66978
6.0497
7.69914
9.60202
11.2636
-29.316
-19.966
-13.208
-9.10227
-6.39378
-4.46386
-3.05231
-1.99195
-1.1516
-0.428672
0.260501
0.995048
1.85884
2.95379
4.41246
6.40296
9.18325
13.3626
20.1807
29.568
)
;

boundaryField
{
    movingWall
    {
        type            zeroGradient;
    }
    fixedWalls
    {
        type            zeroGradient;
    }
    frontAndBack
    {
        type            empty;
    }
}


// ************************************************************************* //
