/*--------------------------------*- C++ -*----------------------------------*\
  =========                 |
  \\      /  F ield         | OpenFOAM: The Open Source CFD Toolbox
   \\    /   O peration     | Website:  https://openfoam.org
    \\  /    A nd           | Version:  12
     \\/     M anipulation  |
\*---------------------------------------------------------------------------*/
FoamFile
{
    format      ascii;
    class       volScalarField;
    location    "1";
    object      k;
}
// * * * * * * * * * * * * * * * * * * * * * * * * * * * * * * * * * * * * * //

dimensions      [0 2 -2 0 0 0 0];

internalField   nonuniform List<scalar> 
18225
(
2.83152e-09
1.41491e-08
3.0958e-08
5.11359e-08
7.37353e-08
9.81922e-08
1.24101e-07
1.5114e-07
1.79032e-07
2.07539e-07
2.36443e-07
2.65546e-07
2.94667e-07
3.23637e-07
3.52301e-07
3.80516e-07
4.08151e-07
4.35088e-07
4.61221e-07
4.86456e-07
5.10716e-07
5.33934e-07
5.5606e-07
5.77057e-07
5.969e-07
6.15582e-07
6.33105e-07
6.49487e-07
6.64755e-07
6.78948e-07
6.92116e-07
7.04315e-07
7.1561e-07
7.26069e-07
7.35766e-07
7.44777e-07
7.5318e-07
7.61053e-07
7.6847e-07
7.75504e-07
7.82227e-07
7.88701e-07
7.94986e-07
8.01137e-07
8.07198e-07
8.1321e-07
8.19204e-07
8.25206e-07
8.31232e-07
8.37293e-07
8.4339e-07
8.49519e-07
8.5567e-07
8.61824e-07
8.67957e-07
8.7404e-07
8.8004e-07
8.85917e-07
8.91629e-07
8.97129e-07
9.02368e-07
9.07294e-07
9.11853e-07
9.1599e-07
9.19649e-07
9.22772e-07
9.25309e-07
9.27199e-07
9.28379e-07
9.28815e-07
9.28462e-07
9.27267e-07
9.25184e-07
9.22175e-07
9.18205e-07
9.13243e-07
9.07266e-07
9.00256e-07
8.922e-07
8.83091e-07
8.72932e-07
8.61728e-07
8.49493e-07
8.36248e-07
8.2202e-07
8.06842e-07
7.90754e-07
7.73801e-07
7.56036e-07
7.37514e-07
7.18296e-07
6.98447e-07
6.78035e-07
6.57131e-07
6.35809e-07
6.14142e-07
5.92205e-07
5.70073e-07
5.4782e-07
5.25517e-07
5.03234e-07
4.81038e-07
4.58993e-07
4.37158e-07
4.1559e-07
3.94337e-07
3.73447e-07
3.52961e-07
3.32913e-07
3.13334e-07
2.94249e-07
2.7568e-07
2.57641e-07
2.40143e-07
2.23195e-07
2.06797e-07
1.90951e-07
1.75654e-07
1.609e-07
1.46682e-07
1.32993e-07
1.19826e-07
1.07172e-07
9.50256e-08
8.33838e-08
7.22467e-08
6.16198e-08
5.15157e-08
4.19568e-08
3.29791e-08
2.46388e-08
1.70241e-08
1.02819e-08
4.69344e-09
9.3898e-10
1.41561e-08
1.218e-07
2.75144e-07
4.57623e-07
6.61504e-07
8.81935e-07
1.11535e-06
1.35886e-06
1.61003e-06
1.86669e-06
2.1269e-06
2.38888e-06
2.651e-06
2.91175e-06
3.16972e-06
3.42364e-06
3.67232e-06
3.91469e-06
4.14982e-06
4.37686e-06
4.59509e-06
4.80395e-06
5.00296e-06
5.19178e-06
5.37023e-06
5.5382e-06
5.69575e-06
5.84301e-06
5.98025e-06
6.10782e-06
6.22616e-06
6.33578e-06
6.43726e-06
6.53124e-06
6.61836e-06
6.69933e-06
6.77483e-06
6.84557e-06
6.91223e-06
6.97546e-06
7.0359e-06
7.09412e-06
7.15066e-06
7.20601e-06
7.26057e-06
7.3147e-06
7.36869e-06
7.42276e-06
7.47707e-06
7.5317e-06
7.58668e-06
7.64196e-06
7.69744e-06
7.75296e-06
7.8083e-06
7.8632e-06
7.91736e-06
7.97042e-06
8.02199e-06
8.07167e-06
8.11899e-06
8.1635e-06
8.20471e-06
8.24211e-06
8.27521e-06
8.30349e-06
8.32643e-06
8.34352e-06
8.35421e-06
8.35819e-06
8.35507e-06
8.34436e-06
8.32566e-06
8.29861e-06
8.2629e-06
8.21826e-06
8.16448e-06
8.10139e-06
8.02888e-06
7.9469e-06
7.85544e-06
7.75459e-06
7.64445e-06
7.52522e-06
7.39713e-06
7.2605e-06
7.11567e-06
6.96307e-06
6.80314e-06
6.63641e-06
6.46341e-06
6.28473e-06
6.101e-06
5.91283e-06
5.7209e-06
5.52588e-06
5.32842e-06
5.12921e-06
4.92892e-06
4.72817e-06
4.52762e-06
4.32785e-06
4.12945e-06
3.93294e-06
3.73883e-06
3.54757e-06
3.35957e-06
3.17521e-06
2.9948e-06
2.81862e-06
2.64689e-06
2.4798e-06
2.31748e-06
2.16003e-06
2.00752e-06
1.85997e-06
1.71739e-06
1.57974e-06
1.447e-06
1.31908e-06
1.19593e-06
1.07747e-06
9.63626e-07
8.54354e-07
7.49618e-07
6.49419e-07
5.53804e-07
4.62884e-07
3.76856e-07
2.96037e-07
2.20921e-07
1.52274e-07
9.134e-08
4.03875e-08
4.69242e-09
3.10362e-08
2.75687e-07
6.28086e-07
1.04906e-06
1.51995e-06
2.02918e-06
2.5684e-06
3.1309e-06
3.71101e-06
4.30374e-06
4.9046e-06
5.50948e-06
6.1146e-06
6.71647e-06
7.31185e-06
7.89777e-06
8.47151e-06
9.03061e-06
9.57287e-06
1.00964e-05
1.05995e-05
1.10808e-05
1.15393e-05
1.19743e-05
1.23852e-05
1.27719e-05
1.31345e-05
1.34733e-05
1.3789e-05
1.40823e-05
1.43544e-05
1.46063e-05
1.48396e-05
1.50556e-05
1.52558e-05
1.54419e-05
1.56155e-05
1.57783e-05
1.59317e-05
1.60773e-05
1.62167e-05
1.6351e-05
1.64816e-05
1.66096e-05
1.67358e-05
1.68612e-05
1.69864e-05
1.71119e-05
1.72381e-05
1.7365e-05
1.74928e-05
1.76214e-05
1.77505e-05
1.78798e-05
1.80087e-05
1.81365e-05
1.82627e-05
1.83863e-05
1.85065e-05
1.86223e-05
1.87327e-05
1.88365e-05
1.89326e-05
1.90199e-05
1.90973e-05
1.91634e-05
1.92173e-05
1.92576e-05
1.9283e-05
1.92928e-05
1.92863e-05
1.92621e-05
1.92194e-05
1.91574e-05
1.90753e-05
1.89725e-05
1.88485e-05
1.8703e-05
1.85357e-05
1.83464e-05
1.81352e-05
1.79022e-05
1.76477e-05
1.73722e-05
1.70762e-05
1.67604e-05
1.64257e-05
1.6073e-05
1.57033e-05
1.53179e-05
1.49181e-05
1.45051e-05
1.40804e-05
1.36455e-05
1.3202e-05
1.27513e-05
1.2295e-05
1.18347e-05
1.13719e-05
1.09081e-05
1.04447e-05
9.98324e-06
9.52494e-06
9.07107e-06
8.62277e-06
8.1811e-06
7.74701e-06
7.32136e-06
6.90487e-06
6.49818e-06
6.10181e-06
5.71619e-06
5.34163e-06
4.97836e-06
4.62652e-06
4.28618e-06
3.95732e-06
3.63988e-06
3.33375e-06
3.03879e-06
2.75483e-06
2.48169e-06
2.21923e-06
1.9673e-06
1.72583e-06
1.49483e-06
1.27438e-06
1.06474e-06
8.66371e-07
6.79997e-07
5.0677e-07
3.48495e-07
2.0816e-07
9.12609e-08
1.02704e-08
5.14459e-08
4.60126e-07
1.05271e-06
1.76328e-06
2.55954e-06
3.42135e-06
4.33419e-06
5.28656e-06
6.26876e-06
7.27226e-06
8.28942e-06
9.31327e-06
1.03374e-05
1.13558e-05
1.23631e-05
1.33542e-05
1.43245e-05
1.52697e-05
1.61862e-05
1.70708e-05
1.79206e-05
1.87333e-05
1.95073e-05
2.02412e-05
2.09342e-05
2.15861e-05
2.21971e-05
2.27679e-05
2.32994e-05
2.37931e-05
2.42508e-05
2.46747e-05
2.50669e-05
2.54301e-05
2.57669e-05
2.608e-05
2.63722e-05
2.66462e-05
2.69047e-05
2.71504e-05
2.73857e-05
2.76129e-05
2.7834e-05
2.8051e-05
2.82654e-05
2.84786e-05
2.86918e-05
2.89057e-05
2.91208e-05
2.93376e-05
2.95561e-05
2.9776e-05
2.99969e-05
3.02181e-05
3.04388e-05
3.06578e-05
3.0874e-05
3.10859e-05
3.1292e-05
3.14906e-05
3.16799e-05
3.1858e-05
3.20232e-05
3.21733e-05
3.23063e-05
3.24204e-05
3.25135e-05
3.25835e-05
3.26282e-05
3.26462e-05
3.26365e-05
3.25969e-05
3.25257e-05
3.24215e-05
3.22833e-05
3.21098e-05
3.19003e-05
3.16541e-05
3.13709e-05
3.10503e-05
3.06925e-05
3.02978e-05
2.98665e-05
2.93994e-05
2.88976e-05
2.83622e-05
2.77946e-05
2.71965e-05
2.65697e-05
2.59162e-05
2.52381e-05
2.45379e-05
2.38178e-05
2.30805e-05
2.23285e-05
2.15645e-05
2.07911e-05
2.00109e-05
1.92266e-05
1.84407e-05
1.76557e-05
1.68739e-05
1.60977e-05
1.5329e-05
1.45699e-05
1.38222e-05
1.30874e-05
1.2367e-05
1.16622e-05
1.09741e-05
1.03036e-05
9.65144e-06
9.01807e-06
8.40389e-06
7.80914e-06
7.2339e-06
6.67817e-06
6.14182e-06
5.62465e-06
5.1264e-06
4.64679e-06
4.1855e-06
3.74227e-06
3.31687e-06
2.90914e-06
2.51908e-06
2.14687e-06
1.79291e-06
1.45799e-06
1.14337e-06
8.51035e-07
5.84144e-07
3.47925e-07
1.51893e-07
1.69769e-08
7.45613e-08
6.68505e-07
1.53296e-06
2.57249e-06
3.73943e-06
5.00372e-06
6.34361e-06
7.7419e-06
9.18413e-06
1.06577e-05
1.21512e-05
1.36544e-05
1.51577e-05
1.66525e-05
1.81306e-05
1.95845e-05
2.10075e-05
2.23934e-05
2.37367e-05
2.50326e-05
2.62771e-05
2.74668e-05
2.85992e-05
2.96723e-05
3.06853e-05
3.16375e-05
3.25296e-05
3.33623e-05
3.41374e-05
3.48571e-05
3.5524e-05
3.61414e-05
3.67126e-05
3.72414e-05
3.77317e-05
3.81878e-05
3.86135e-05
3.90131e-05
3.93906e-05
3.97497e-05
4.00942e-05
4.04272e-05
4.0752e-05
4.10712e-05
4.13873e-05
4.1702e-05
4.20172e-05
4.23339e-05
4.26529e-05
4.29746e-05
4.32991e-05
4.3626e-05
4.39545e-05
4.42838e-05
4.46124e-05
4.49387e-05
4.52608e-05
4.55767e-05
4.5884e-05
4.61803e-05
4.64628e-05
4.67289e-05
4.69756e-05
4.72002e-05
4.73995e-05
4.75708e-05
4.77109e-05
4.78171e-05
4.78857e-05
4.79147e-05
4.7903e-05
4.7847e-05
4.77444e-05
4.75931e-05
4.73913e-05
4.71376e-05
4.68307e-05
4.64696e-05
4.60537e-05
4.55828e-05
4.50569e-05
4.44764e-05
4.38421e-05
4.3155e-05
4.24166e-05
4.16287e-05
4.07933e-05
3.9913e-05
3.89904e-05
3.80285e-05
3.70305e-05
3.59998e-05
3.49401e-05
3.3855e-05
3.27485e-05
3.16243e-05
3.04865e-05
2.93389e-05
2.81854e-05
2.70298e-05
2.58757e-05
2.47266e-05
2.35858e-05
2.24564e-05
2.13413e-05
2.02431e-05
1.91642e-05
1.81067e-05
1.70724e-05
1.60628e-05
1.50793e-05
1.41229e-05
1.31942e-05
1.2294e-05
1.14224e-05
1.05796e-05
9.76551e-06
8.98001e-06
8.22273e-06
7.49329e-06
6.79124e-06
6.11611e-06
5.46748e-06
4.84499e-06
4.24843e-06
3.67777e-06
3.13325e-06
2.61551e-06
2.12569e-06
1.66569e-06
1.23851e-06
8.48895e-07
5.04665e-07
2.19811e-07
2.45078e-08
9.99614e-08
8.97266e-07
2.06028e-06
3.46169e-06
5.03722e-06
6.74588e-06
8.55784e-06
1.04494e-05
1.24009e-05
1.43948e-05
1.64157e-05
1.84495e-05
2.04833e-05
2.2505e-05
2.45038e-05
2.64693e-05
2.83923e-05
3.02644e-05
3.20783e-05
3.38274e-05
3.55062e-05
3.71102e-05
3.8636e-05
4.00812e-05
4.14442e-05
4.27249e-05
4.39236e-05
4.50419e-05
4.60822e-05
4.70475e-05
4.79415e-05
4.87687e-05
4.95338e-05
5.0242e-05
5.08988e-05
5.15098e-05
5.20807e-05
5.26169e-05
5.31241e-05
5.36073e-05
5.40716e-05
5.45214e-05
5.4961e-05
5.53939e-05
5.58233e-05
5.62519e-05
5.66817e-05
5.71143e-05
5.75507e-05
5.79914e-05
5.84364e-05
5.8885e-05
5.93363e-05
5.97887e-05
6.02405e-05
6.06894e-05
6.11328e-05
6.15676e-05
6.19909e-05
6.23991e-05
6.27886e-05
6.31557e-05
6.34965e-05
6.38069e-05
6.4083e-05
6.43207e-05
6.45161e-05
6.46651e-05
6.47627e-05
6.48061e-05
6.47945e-05
6.47224e-05
6.45868e-05
6.43848e-05
6.4114e-05
6.37724e-05
6.33583e-05
6.28705e-05
6.2308e-05
6.16706e-05
6.09582e-05
6.01715e-05
5.93115e-05
5.83796e-05
5.73779e-05
5.63088e-05
5.51752e-05
5.39805e-05
5.27282e-05
5.14226e-05
5.0068e-05
4.8669e-05
4.72307e-05
4.57581e-05
4.42565e-05
4.27313e-05
4.11876e-05
3.96311e-05
3.80668e-05
3.64999e-05
3.49355e-05
3.33782e-05
3.18325e-05
3.03028e-05
2.87929e-05
2.73062e-05
2.58462e-05
2.44155e-05
2.30166e-05
2.16517e-05
2.03224e-05
1.90301e-05
1.77758e-05
1.65601e-05
1.53835e-05
1.42462e-05
1.31479e-05
1.20884e-05
1.10673e-05
1.00839e-05
9.13759e-06
8.22776e-06
7.35379e-06
6.51516e-06
5.71157e-06
4.94296e-06
4.20968e-06
3.51258e-06
2.85325e-06
2.23431e-06
1.65989e-06
1.13652e-06
6.74809e-07
2.9352e-07
3.26884e-08
1.27397e-07
1.14425e-06
2.62959e-06
4.42197e-06
6.43946e-06
8.62936e-06
1.09531e-05
1.33799e-05
1.5884e-05
1.84428e-05
2.10364e-05
2.36463e-05
2.62558e-05
2.88494e-05
3.14127e-05
3.39325e-05
3.6397e-05
3.87953e-05
4.11177e-05
4.33559e-05
4.55029e-05
4.75529e-05
4.95015e-05
5.13458e-05
5.30839e-05
5.47156e-05
5.62417e-05
5.76642e-05
5.89864e-05
6.02124e-05
6.13471e-05
6.23964e-05
6.33666e-05
6.42646e-05
6.50974e-05
6.58725e-05
6.65971e-05
6.72785e-05
6.79239e-05
6.85399e-05
6.91329e-05
6.97087e-05
7.02727e-05
7.08294e-05
7.1383e-05
7.19367e-05
7.2493e-05
7.30541e-05
7.36209e-05
7.41941e-05
7.47734e-05
7.53581e-05
7.59468e-05
7.65374e-05
7.71274e-05
7.7714e-05
7.82936e-05
7.88624e-05
7.94162e-05
7.99507e-05
8.0461e-05
8.09423e-05
8.13896e-05
8.17976e-05
8.21611e-05
8.2475e-05
8.27341e-05
8.29333e-05
8.30661e-05
8.31279e-05
8.31194e-05
8.30326e-05
8.28636e-05
8.26087e-05
8.22649e-05
8.18295e-05
8.13003e-05
8.06757e-05
7.99546e-05
7.91366e-05
7.82216e-05
7.72106e-05
7.61046e-05
7.49059e-05
7.36168e-05
7.22406e-05
7.07811e-05
6.92426e-05
6.76298e-05
6.59482e-05
6.42034e-05
6.24015e-05
6.05489e-05
5.86523e-05
5.67186e-05
5.47545e-05
5.27673e-05
5.07636e-05
4.87505e-05
4.67345e-05
4.47222e-05
4.27196e-05
4.07327e-05
3.87668e-05
3.6827e-05
3.49178e-05
3.30435e-05
3.12075e-05
2.94131e-05
2.76629e-05
2.5959e-05
2.43032e-05
2.26967e-05
2.11404e-05
1.96346e-05
1.81795e-05
1.67749e-05
1.54204e-05
1.41152e-05
1.28587e-05
1.16499e-05
1.04879e-05
9.37195e-06
8.30136e-06
7.27567e-06
6.29483e-06
5.35925e-06
4.47005e-06
3.62931e-06
2.84043e-06
2.10877e-06
1.44273e-06
8.55879e-07
3.71961e-07
4.13982e-08
1.56711e-07
1.40806e-06
3.23763e-06
5.4477e-06
7.93766e-06
1.06424e-05
1.35141e-05
1.65142e-05
1.96107e-05
2.27753e-05
2.59828e-05
2.92103e-05
3.24367e-05
3.56428e-05
3.88105e-05
4.19234e-05
4.49665e-05
4.79264e-05
5.07911e-05
5.35501e-05
5.61948e-05
5.87181e-05
6.11146e-05
6.33807e-05
6.55145e-05
6.75157e-05
6.93857e-05
7.1127e-05
7.27441e-05
7.42421e-05
7.56276e-05
7.69079e-05
7.80913e-05
7.91862e-05
8.02019e-05
8.11474e-05
8.20322e-05
8.28652e-05
8.36553e-05
8.4411e-05
8.51402e-05
8.58499e-05
8.65469e-05
8.72367e-05
8.79244e-05
8.86137e-05
8.9308e-05
9.00095e-05
9.07194e-05
9.14383e-05
9.21658e-05
9.29008e-05
9.36414e-05
9.4385e-05
9.51284e-05
9.58678e-05
9.65988e-05
9.73166e-05
9.80159e-05
9.86911e-05
9.93363e-05
9.99453e-05
0.000100512
0.00010103
0.000101492
0.000101892
0.000102224
0.000102482
0.000102657
0.000102742
0.00010274
0.000102641
0.00010244
0.000102131
0.000101712
0.000101178
0.000100527
9.97576e-05
9.88675e-05
9.78565e-05
9.67247e-05
9.54729e-05
9.41029e-05
9.2617e-05
9.10185e-05
8.93114e-05
8.75004e-05
8.55908e-05
8.35888e-05
8.1501e-05
7.93346e-05
7.70972e-05
7.47969e-05
7.2442e-05
7.00412e-05
6.76031e-05
6.51364e-05
6.26499e-05
6.01522e-05
5.76516e-05
5.51562e-05
5.26736e-05
5.02113e-05
4.77759e-05
4.53737e-05
4.30104e-05
4.06912e-05
3.84204e-05
3.62021e-05
3.40393e-05
3.19348e-05
2.98906e-05
2.79081e-05
2.59884e-05
2.41319e-05
2.23387e-05
2.06084e-05
1.89404e-05
1.73339e-05
1.57877e-05
1.43006e-05
1.28717e-05
1.14997e-05
1.01838e-05
8.92332e-06
7.71828e-06
6.56913e-06
5.47728e-06
4.44529e-06
3.47741e-06
2.5803e-06
1.76429e-06
1.046e-06
4.54326e-07
5.05463e-08
1.87799e-07
1.6878e-06
3.8823e-06
6.53524e-06
9.52634e-06
1.27775e-05
1.62309e-05
1.98401e-05
2.3566e-05
2.73743e-05
3.12343e-05
3.5118e-05
3.89999e-05
4.28561e-05
4.66651e-05
5.04066e-05
5.40624e-05
5.76162e-05
6.10534e-05
6.43615e-05
6.75299e-05
7.05502e-05
7.3416e-05
7.61232e-05
7.86697e-05
8.10553e-05
8.3282e-05
8.53533e-05
8.72746e-05
8.90527e-05
9.06958e-05
9.22131e-05
9.36147e-05
9.49113e-05
9.6114e-05
9.72343e-05
9.82834e-05
9.92725e-05
0.000100212
0.000101113
0.000101985
0.000102835
0.000103673
0.000104504
0.000105335
0.00010617
0.000107014
0.000107867
0.000108733
0.00010961
0.0001105
0.000111399
0.000112307
0.000113218
0.00011413
0.000115038
0.000115936
0.000116818
0.000117678
0.000118509
0.000119303
0.000120054
0.000120753
0.000121393
0.000121966
0.000122464
0.000122879
0.000123204
0.000123429
0.000123543
0.000123553
0.000123446
0.000123213
0.000122851
0.000122355
0.000121719
0.000120942
0.00012002
0.000118952
0.000117737
0.000116376
0.000114869
0.000113218
0.000111426
0.000109498
0.000107438
0.000105251
0.000102945
0.000100527
9.80048e-05
9.53872e-05
9.26835e-05
8.99037e-05
8.7058e-05
8.41569e-05
8.1211e-05
7.82309e-05
7.52274e-05
7.2211e-05
6.91918e-05
6.61796e-05
6.3184e-05
6.02137e-05
5.7277e-05
5.43816e-05
5.15343e-05
4.87412e-05
4.60079e-05
4.33389e-05
4.07381e-05
3.82087e-05
3.5753e-05
3.33727e-05
3.10689e-05
2.88422e-05
2.66923e-05
2.4619e-05
2.26211e-05
2.06977e-05
1.88473e-05
1.70685e-05
1.53596e-05
1.37194e-05
1.21467e-05
1.06408e-05
9.20142e-06
7.82924e-06
6.52589e-06
5.29447e-06
4.14008e-06
3.0707e-06
2.09866e-06
1.24367e-06
5.39974e-07
6.00604e-08
2.20594e-07
1.98286e-06
4.56223e-06
7.68223e-06
1.12019e-05
1.50296e-05
1.90971e-05
2.33494e-05
2.774e-05
3.22282e-05
3.67772e-05
4.13538e-05
4.59273e-05
5.04694e-05
5.49541e-05
5.93574e-05
6.36574e-05
6.78347e-05
7.1872e-05
7.57545e-05
7.94696e-05
8.30076e-05
8.6361e-05
8.95253e-05
9.24982e-05
9.52798e-05
9.78728e-05
0.000100282
0.000102514
0.000104577
0.000106482
0.000108239
0.000109862
0.000111362
0.000112754
0.000114051
0.000115267
0.000116415
0.000117508
0.000118558
0.000119577
0.000120574
0.000121559
0.00012254
0.000123523
0.000124514
0.000125517
0.000126534
0.000127568
0.000128617
0.000129683
0.000130761
0.00013185
0.000132945
0.000134041
0.000135133
0.000136213
0.000137276
0.000138312
0.000139314
0.000140272
0.000141179
0.000142026
0.000142801
0.000143497
0.000144104
0.000144613
0.000145013
0.000145297
0.000145447
0.000145475
0.000145363
0.000145103
0.000144689
0.000144115
0.000143376
0.000142468
0.000141388
0.000140135
0.000138707
0.000137104
0.000135328
0.000133382
0.000131268
0.000128991
0.000126557
0.000123973
0.000121246
0.000118386
0.000115403
0.000112306
0.000109107
0.000105817
0.00010245
9.90165e-05
9.55304e-05
9.20044e-05
8.8451e-05
8.4883e-05
8.13124e-05
7.77511e-05
7.42104e-05
7.07008e-05
6.72322e-05
6.38136e-05
6.04534e-05
5.71587e-05
5.39361e-05
5.07909e-05
4.77277e-05
4.47502e-05
4.18611e-05
3.90623e-05
3.6355e-05
3.37397e-05
3.12162e-05
2.87837e-05
2.64411e-05
2.41869e-05
2.20192e-05
1.99363e-05
1.79362e-05
1.60172e-05
1.41778e-05
1.24171e-05
1.07348e-05
9.13151e-06
7.60921e-06
6.17149e-06
4.8243e-06
3.57695e-06
2.4438e-06
1.44772e-06
6.28382e-07
6.98825e-08
2.55051e-07
2.29285e-06
5.27652e-06
8.88714e-06
1.29622e-05
1.73957e-05
2.21086e-05
2.70369e-05
3.21263e-05
3.73292e-05
4.26026e-05
4.79072e-05
5.32071e-05
5.84689e-05
6.3662e-05
6.87582e-05
7.37319e-05
7.85601e-05
8.32227e-05
8.77023e-05
9.19845e-05
9.60581e-05
9.99146e-05
0.000103549
0.000106959
0.000110145
0.000113111
0.000115863
0.000118409
0.00012076
0.000122927
0.000124925
0.000126768
0.000128472
0.000130053
0.000131528
0.000132911
0.00013422
0.000135468
0.000136671
0.000137841
0.00013899
0.000140129
0.000141267
0.00014241
0.000143567
0.00014474
0.000145932
0.000147146
0.000148382
0.000149637
0.000150909
0.000152195
0.000153489
0.000154785
0.000156077
0.000157356
0.000158615
0.000159843
0.000161032
0.00016217
0.000163249
0.000164256
0.000165181
0.000166013
0.000166741
0.000167354
0.000167842
0.000168193
0.000168388
0.000168438
0.000168327
0.000168043
0.000167579
0.000166928
0.000166084
0.000165043
0.000163801
0.000162356
0.000160706
0.000158853
0.000156796
0.00015454
0.000152088
0.000149445
0.000146619
0.000143616
0.000140448
0.000137122
0.000133652
0.00013005
0.000126327
0.0001225
0.000118581
0.000114585
0.000110528
0.000106425
0.00010229
9.81382e-05
9.39846e-05
8.98427e-05
8.57257e-05
8.16462e-05
7.76157e-05
7.36449e-05
6.97434e-05
6.59199e-05
6.21817e-05
5.85353e-05
5.49859e-05
5.15378e-05
4.8194e-05
4.49567e-05
4.18272e-05
3.88058e-05
3.58923e-05
3.30855e-05
3.03841e-05
2.77861e-05
2.52891e-05
2.2891e-05
2.05894e-05
1.8382e-05
1.62672e-05
1.42436e-05
1.23109e-05
1.04696e-05
8.72198e-06
7.0721e-06
5.52678e-06
4.09664e-06
2.79807e-06
1.65716e-06
7.19135e-07
7.9966e-08
2.91144e-07
2.61754e-06
6.02463e-06
1.01491e-05
1.48057e-05
1.98738e-05
2.52627e-05
3.08992e-05
3.67209e-05
4.26725e-05
4.87045e-05
5.47713e-05
6.08311e-05
6.68452e-05
7.2778e-05
7.85967e-05
8.42716e-05
8.97762e-05
9.50871e-05
0.000100184
0.000105052
0.000109676
0.000114048
0.000118163
0.000122018
0.000125614
0.000128957
0.000132054
0.000134915
0.000137552
0.000139981
0.000142218
0.00014428
0.000146186
0.000147954
0.000149604
0.000151154
0.000152623
0.000154028
0.000155386
0.000156711
0.000158017
0.000159315
0.000160617
0.00016193
0.000163261
0.000164615
0.000165995
0.000167402
0.000168836
0.000170296
0.000171777
0.000173275
0.000174784
0.000176297
0.000177806
0.000179301
0.000180772
0.000182209
0.000183601
0.000184936
0.000186201
0.000187384
0.000188473
0.000189454
0.000190316
0.000191046
0.000191631
0.000192059
0.000192308
0.000192385
0.000192282
0.000191979
0.000191467
0.000190741
0.000189792
0.000188615
0.000187207
0.000185565
0.000183687
0.000181574
0.000179227
0.000176649
0.000173845
0.000170821
0.000167585
0.000164146
0.000160514
0.000156702
0.000152722
0.000148589
0.000144318
0.000139925
0.000135427
0.00013084
0.000126182
0.000121472
0.000116725
0.000111959
0.000107192
0.000102438
9.77147e-05
9.30351e-05
8.84131e-05
8.38612e-05
7.93905e-05
7.50109e-05
7.07312e-05
6.65587e-05
6.24995e-05
5.85582e-05
5.47386e-05
5.1043e-05
4.74727e-05
4.4028e-05
4.07085e-05
3.75127e-05
3.44389e-05
3.14845e-05
2.86469e-05
2.59231e-05
2.33104e-05
2.08059e-05
1.84076e-05
1.61139e-05
1.3924e-05
1.18386e-05
9.86014e-06
7.99304e-06
6.24498e-06
4.6279e-06
3.16021e-06
1.87125e-06
8.11907e-07
9.02745e-08
3.28856e-07
2.95678e-06
6.80624e-06
1.14674e-05
1.67318e-05
2.24627e-05
2.85581e-05
3.49346e-05
4.15213e-05
4.82552e-05
5.50793e-05
6.19417e-05
6.8794e-05
7.5592e-05
8.22945e-05
8.88638e-05
9.5266e-05
0.000101471
0.000107451
0.000113184
0.000118652
0.00012384
0.000128738
0.00013334
0.000137646
0.000141656
0.000145376
0.000148818
0.000151991
0.000154913
0.0001576
0.000160071
0.000162348
0.000164451
0.000166404
0.000168226
0.000169942
0.00017157
0.000173132
0.000174646
0.000176129
0.000177595
0.000179059
0.000180532
0.000182023
0.000183539
0.000185085
0.000186664
0.000188278
0.000189925
0.000191604
0.00019331
0.000195037
0.000196777
0.000198524
0.000200266
0.000201994
0.000203695
0.000205358
0.000206969
0.000208516
0.000209983
0.000211358
0.000212624
0.000213769
0.000214778
0.000215636
0.000216329
0.000216844
0.000217156
0.000217268
0.000217178
0.00021686
0.000216306
0.000215506
0.000214452
0.00021314
0.000211564
0.000209721
0.00020761
0.00020523
0.000202583
0.000199673
0.000196506
0.000193087
0.000189426
0.000185534
0.000181421
0.000177102
0.000172592
0.000167906
0.000163062
0.000158079
0.000152975
0.00014777
0.000142484
0.000137137
0.000131749
0.000126339
0.000120928
0.000115533
0.000110173
0.000104863
9.96206e-05
9.44588e-05
8.93907e-05
8.4428e-05
7.95804e-05
7.48566e-05
7.02634e-05
6.58063e-05
6.14894e-05
5.73152e-05
5.32853e-05
4.93999e-05
4.56582e-05
4.20586e-05
3.85987e-05
3.52756e-05
3.2086e-05
2.90263e-05
2.60932e-05
2.32834e-05
2.05941e-05
1.80233e-05
1.55702e-05
1.32352e-05
1.10208e-05
8.93196e-06
6.97708e-06
5.16937e-06
3.5293e-06
2.08945e-06
9.06462e-07
1.00782e-07
3.6818e-07
3.3105e-06
7.62119e-06
1.2842e-05
1.87399e-05
2.5162e-05
3.19939e-05
3.91421e-05
4.65264e-05
5.40756e-05
6.17251e-05
6.94157e-05
7.70926e-05
8.4705e-05
9.22062e-05
9.95531e-05
0.000106707
0.000113633
0.000120302
0.000126688
0.000132769
0.000138531
0.000143963
0.000149059
0.000153816
0.00015824
0.000162338
0.00016612
0.000169602
0.000172803
0.000175742
0.000178442
0.000180928
0.000183224
0.000185355
0.000187347
0.000189224
0.000191011
0.000192729
0.0001944
0.000196043
0.000197675
0.00019931
0.000200961
0.000202638
0.000204349
0.000206099
0.00020789
0.000209724
0.000211599
0.000213512
0.000215458
0.00021743
0.00021942
0.000221417
0.00022341
0.000225388
0.000227337
0.000229242
0.00023109
0.000232865
0.00023455
0.000236131
0.00023759
0.000238912
0.00024008
0.000241078
0.000241891
0.000242503
0.000242887
0.000243041
0.000242971
0.000242644
0.000242051
0.00024118
0.000240024
0.000238576
0.000236831
0.000234785
0.000232436
0.000229785
0.000226832
0.000223583
0.000220042
0.000216218
0.000212119
0.000207759
0.00020315
0.000198307
0.000193248
0.00018799
0.000182552
0.000176956
0.000171223
0.000165374
0.000159433
0.000153423
0.000147365
0.000141284
0.000135199
0.000129133
0.000123107
0.000117138
0.000111245
0.000105444
9.97502e-05
9.41764e-05
8.87342e-05
8.34331e-05
7.82812e-05
7.32846e-05
6.84481e-05
6.37744e-05
5.92653e-05
5.4921e-05
5.07403e-05
4.67215e-05
4.28615e-05
3.91569e-05
3.56037e-05
3.21978e-05
2.8935e-05
2.58115e-05
2.28237e-05
1.99694e-05
1.72471e-05
1.46572e-05
1.22022e-05
9.8874e-06
7.72192e-06
5.72022e-06
3.90476e-06
2.31142e-06
1.00265e-06
1.1147e-07
4.09112e-07
3.67869e-06
8.46943e-06
1.42728e-05
2.08299e-05
2.79715e-05
3.557e-05
4.35213e-05
5.17356e-05
6.01329e-05
6.86407e-05
7.71919e-05
8.57246e-05
9.41813e-05
0.000102509
0.000110659
0.000118588
0.000126257
0.000133631
0.000140683
0.00014739
0.000153734
0.000159705
0.000165296
0.000170506
0.000175342
0.000179812
0.00018393
0.000187715
0.000191187
0.000194371
0.000197293
0.000199979
0.00020246
0.000204765
0.00020692
0.000208956
0.000210899
0.000212773
0.000214602
0.000216409
0.00021821
0.000220022
0.000221859
0.000223731
0.000225647
0.000227612
0.000229628
0.000231697
0.000233814
0.000235978
0.000238181
0.000240415
0.00024267
0.000244935
0.000247197
0.000249442
0.000251655
0.00025382
0.000255921
0.00025794
0.000259859
0.000261661
0.000263327
0.000264839
0.000266179
0.000267329
0.000268272
0.00026899
0.000269456
0.000269658
0.000269615
0.000269286
0.000268659
0.000267722
0.000266466
0.000264885
0.000262971
0.000260721
0.000258133
0.000255207
0.000251944
0.00024835
0.000244429
0.000240191
0.000235647
0.000230808
0.00022569
0.00022031
0.000214686
0.000208838
0.000202788
0.000196559
0.000190175
0.000183661
0.000177041
0.000170342
0.000163589
0.000156807
0.000150021
0.000143256
0.000136533
0.000129875
0.000123303
0.000116833
0.000110485
0.000104271
9.82064e-05
9.23011e-05
8.65644e-05
8.10036e-05
7.56238e-05
7.04285e-05
6.54194e-05
6.05967e-05
5.59593e-05
5.15048e-05
4.72297e-05
4.31301e-05
3.92012e-05
3.54381e-05
3.18359e-05
2.83899e-05
2.50961e-05
2.19514e-05
1.8954e-05
1.61039e-05
1.34037e-05
1.08588e-05
8.47905e-06
6.28007e-06
4.28632e-06
2.53699e-06
1.10039e-06
1.22334e-07
4.51652e-07
4.06133e-06
9.35097e-06
1.57596e-05
2.3002e-05
3.08912e-05
3.92864e-05
4.80722e-05
5.71487e-05
6.64269e-05
7.58255e-05
8.52692e-05
9.46885e-05
0.000104019
0.0001132
0.000122178
0.000130903
0.000139333
0.000147428
0.000155159
0.0001625
0.000169433
0.000175945
0.000182031
0.000187693
0.000192936
0.000197773
0.000202219
0.000206298
0.000210032
0.000213451
0.000216585
0.000219465
0.000222123
0.000224593
0.000226907
0.000229097
0.000231193
0.000233222
0.000235211
0.000237183
0.000239158
0.000241153
0.000243184
0.000245262
0.000247394
0.000249586
0.00025184
0.000254157
0.000256533
0.000258963
0.000261439
0.000263951
0.000266489
0.000269039
0.000271587
0.000274117
0.000276611
0.000279052
0.000281422
0.0002837
0.000285868
0.000287905
0.000289791
0.000291506
0.00029303
0.000294343
0.000295426
0.00029626
0.000296818
0.000297074
0.000297066
0.00029674
0.000296084
0.000295086
0.000293735
0.000292023
0.000289944
0.000287492
0.000284666
0.000281465
0.000277891
0.000273949
0.000269646
0.00026499
0.000259993
0.000254669
0.000249035
0.000243107
0.000236907
0.000230456
0.000223779
0.000216901
0.000209847
0.000202647
0.000195326
0.000187915
0.000180442
0.000172934
0.00016542
0.000157927
0.00015048
0.000143103
0.000135821
0.000128653
0.000121619
0.000114737
0.00010802
0.000101482
9.5133e-05
8.89814e-05
8.30332e-05
7.72923e-05
7.17607e-05
6.64388e-05
6.13251e-05
5.6417e-05
5.17106e-05
4.72011e-05
4.28832e-05
3.8751e-05
3.47987e-05
3.1021e-05
2.74129e-05
2.39706e-05
2.06918e-05
1.75761e-05
1.46257e-05
1.18465e-05
9.24866e-06
6.84907e-06
4.6741e-06
2.76622e-06
1.19973e-06
1.33373e-07
4.95801e-07
4.45844e-06
1.02658e-05
1.73026e-05
2.52561e-05
3.39212e-05
4.31431e-05
5.27948e-05
6.27659e-05
7.29575e-05
8.32791e-05
9.3647e-05
0.000103983
0.000114215
0.000124276
0.000134105
0.000143647
0.000152855
0.000161685
0.000170105
0.000178087
0.000185611
0.000192666
0.000199246
0.000205354
0.000210998
0.000216193
0.000220959
0.00022532
0.000229307
0.00023295
0.000236285
0.000239347
0.000242174
0.000244803
0.000247269
0.000249609
0.000251855
0.000254038
0.000256187
0.000258328
0.000260481
0.000262667
0.0002649
0.000267192
0.000269551
0.000271983
0.00027449
0.000277069
0.000279718
0.00028243
0.000285196
0.000288004
0.000290842
0.000293693
0.000296543
0.000299373
0.000302165
0.000304897
0.00030755
0.000310102
0.000312532
0.000314817
0.000316935
0.000318865
0.000320583
0.00032207
0.000323302
0.000324261
0.000324919
0.000325237
0.000325269
0.000324954
0.000324277
0.000323223
0.000321783
0.000319945
0.000317705
0.000315055
0.000311995
0.000308522
0.00030464
0.000300353
0.000295668
0.000290594
0.000285144
0.000279333
0.000273177
0.000266697
0.000259914
0.000252852
0.000245537
0.000237997
0.00023026
0.000222356
0.000214317
0.000206174
0.000197957
0.0001897
0.000181431
0.000173183
0.000164982
0.000156858
0.000148835
0.000140938
0.000133189
0.000125606
0.000118207
0.000111006
0.000104015
9.72442e-05
9.07001e-05
8.43875e-05
7.83088e-05
7.24645e-05
6.68532e-05
6.14717e-05
5.63158e-05
5.13801e-05
4.66582e-05
4.21436e-05
3.78296e-05
3.37097e-05
2.97782e-05
2.60303e-05
2.24631e-05
1.90756e-05
1.58699e-05
1.28516e-05
1.00317e-05
7.42787e-06
5.0685e-06
2.99936e-06
1.30075e-06
1.44601e-07
5.41561e-07
4.87003e-06
1.1214e-05
1.89019e-05
2.75923e-05
3.70615e-05
4.71403e-05
5.76893e-05
6.8587e-05
7.97245e-05
9.10013e-05
0.000102324
0.000113607
0.000124768
0.000135734
0.000146436
0.000156814
0.000166815
0.000176393
0.00018551
0.000194138
0.000202256
0.000209851
0.000216921
0.000223468
0.000229504
0.000235047
0.000240121
0.000244754
0.00024898
0.000252835
0.00025636
0.000259594
0.00026258
0.000265359
0.000267971
0.000270456
0.000272849
0.000275186
0.000277496
0.000279809
0.000282146
0.000284528
0.000286972
0.000289488
0.000292086
0.000294771
0.000297543
0.0003004
0.000303337
0.000306347
0.000309418
0.000312537
0.00031569
0.000318859
0.000322026
0.000325172
0.000328274
0.000331312
0.000334261
0.0003371
0.000339803
0.000342347
0.000344708
0.000346861
0.000348783
0.000350451
0.000351841
0.000352932
0.000353699
0.00035409
0.000354164
0.000353868
0.000353176
0.000352075
0.000350551
0.000348596
0.000346202
0.000343362
0.000340074
0.000336338
0.000332154
0.000327528
0.000322467
0.000316981
0.000311082
0.000304786
0.000298112
0.000291079
0.000283712
0.000276035
0.000268077
0.000259867
0.000251437
0.000242818
0.000234046
0.000225152
0.000216174
0.000207144
0.000198098
0.000189068
0.000180087
0.000171185
0.000162392
0.000153734
0.000145236
0.000136921
0.000128807
0.000120911
0.000113246
0.000105825
9.86556e-05
9.17428e-05
8.50898e-05
7.86976e-05
7.25646e-05
6.66877e-05
6.10619e-05
5.56813e-05
5.05388e-05
4.56267e-05
4.09375e-05
3.64637e-05
3.21983e-05
2.81357e-05
2.42722e-05
2.06061e-05
1.71389e-05
1.38764e-05
1.08297e-05
8.01761e-06
5.4703e-06
3.23685e-06
1.40365e-06
1.56038e-07
5.8893e-07
5.29609e-06
1.21955e-05
2.05574e-05
3.00107e-05
4.03123e-05
5.1278e-05
6.27555e-05
7.4612e-05
8.67275e-05
9.89912e-05
0.0001113
0.000123558
0.000135675
0.00014757
0.000159167
0.000170398
0.000181206
0.000191541
0.000201362
0.000210639
0.00021935
0.000227483
0.000235035
0.000242014
0.000248431
0.00025431
0.000259678
0.000264569
0.000269021
0.000273076
0.000276777
0.000280173
0.000283307
0.000286228
0.000288979
0.000291603
0.000294142