/*--------------------------------*- C++ -*----------------------------------*\
  =========                 |
  \\      /  F ield         | OpenFOAM: The Open Source CFD Toolbox
   \\    /   O peration     | Website:  https://openfoam.org
    \\  /    A nd           | Version:  12
     \\/     M anipulation  |
\*---------------------------------------------------------------------------*/
FoamFile
{
    format      ascii;
    class       surfaceScalarField;
    location    "1";
    object      phi;
}
// * * * * * * * * * * * * * * * * * * * * * * * * * * * * * * * * * * * * * //

dimensions      [0 3 -1 0 0 0 0];

internalField   nonuniform List<scalar> 
36180
(
9.32184e-11
-9.34489e-11
2.13078e-10
-1.19858e-10
2.89834e-10
-7.67481e-11
3.30962e-10
-4.11173e-11
3.38926e-10
-7.95629e-12
3.14454e-10
2.44792e-11
2.57238e-10
5.72209e-11
1.66888e-10
9.03523e-11
4.31878e-11
1.23703e-10
-1.13441e-10
1.56629e-10
-3.02103e-10
1.88661e-10
-5.21366e-10
2.1926e-10
-7.69547e-10
2.48176e-10
-1.04483e-09
2.75279e-10
-1.34548e-09
3.00642e-10
-1.66986e-09
3.24373e-10
-2.01652e-09
3.46652e-10
-2.38413e-09
3.67601e-10
-2.7715e-09
3.87357e-10
-3.17745e-09
4.05942e-10
-3.60088e-09
4.23422e-10
-4.04062e-09
4.3974e-10
-4.49556e-09
4.54935e-10
-4.96451e-09
4.68939e-10
-5.44634e-09
4.81824e-10
-5.9399e-09
4.93562e-10
-6.44419e-09
5.04282e-10
-6.9582e-09
5.14012e-10
-7.48113e-09
5.22922e-10
-8.01221e-09
5.31075e-10
-8.55085e-09
5.38642e-10
-9.09653e-09
5.45678e-10
-9.64886e-09
5.52317e-10
-1.02074e-08
5.58572e-10
-1.07719e-08
5.6451e-10
-1.1342e-08
5.70077e-10
-1.19173e-08
5.75268e-10
-1.24973e-08
5.79956e-10
-1.30813e-08
5.84073e-10
-1.36688e-08
5.87437e-10
-1.42587e-08
5.89939e-10
-1.48501e-08
5.91371e-10
-1.54417e-08
5.91622e-10
-1.60322e-08
5.90504e-10
-1.66202e-08
5.87922e-10
-1.72039e-08
5.83713e-10
-1.77816e-08
5.77754e-10
-1.83515e-08
5.6985e-10
-1.89113e-08
5.59835e-10
-1.94589e-08
5.47557e-10
-1.99918e-08
5.32932e-10
-2.05077e-08
5.15917e-10
-2.10042e-08
4.96484e-10
-2.14788e-08
4.74599e-10
-2.1929e-08
4.50211e-10
-2.23523e-08
4.23263e-10
-2.2746e-08
3.93698e-10
-2.31075e-08
3.61473e-10
-2.3434e-08
3.26562e-10
-2.3723e-08
2.88968e-10
-2.39717e-08
2.48715e-10
-2.41776e-08
2.05858e-10
-2.4338e-08
1.60476e-10
-2.44507e-08
1.12693e-10
-2.45134e-08
6.26299e-11
-2.4524e-08
1.05896e-11
-2.44805e-08
-4.34857e-11
-2.43813e-08
-9.91872e-11
-2.4225e-08
-1.56313e-10
-2.40104e-08
-2.14576e-10
-2.37367e-08
-2.73672e-10
-2.34035e-08
-3.33271e-10
-2.30104e-08
-3.93027e-10
-2.25579e-08
-4.52573e-10
-2.20463e-08
-5.11526e-10
-2.14768e-08
-5.69493e-10
-2.08508e-08
-6.2607e-10
-2.01699e-08
-6.80851e-10
-1.94365e-08
-7.33428e-10
-1.86531e-08
-7.83394e-10
-1.78227e-08
-8.30354e-10
-1.69488e-08
-8.73922e-10
-1.60351e-08
-9.13733e-10
-1.50857e-08
-9.49442e-10
-1.41049e-08
-9.80729e-10
-1.30976e-08
-1.00731e-09
-1.20687e-08
-1.02892e-09
-1.10233e-08
-1.04536e-09
-9.9669e-09
-1.05644e-09
-8.90487e-09
-1.06204e-09
-7.84279e-09
-1.06208e-09
-6.78628e-09
-1.05651e-09
-5.74092e-09
-1.04536e-09
-4.71223e-09
-1.02869e-09
-3.70564e-09
-1.0066e-09
-2.72638e-09
-9.79259e-10
-1.77951e-09
-9.46872e-10
-8.69819e-10
-9.09687e-10
-1.82726e-12
-8.67992e-10
8.20286e-10
-8.22113e-10
1.59269e-09
-7.72409e-10
2.31196e-09
-7.19267e-10
2.97505e-09
-6.63091e-10
3.57937e-09
-6.04314e-10
4.12275e-09
-5.43382e-10
4.60349e-09
-4.80742e-10
5.02034e-09
-4.16847e-10
5.37249e-09
-3.52152e-10
5.65959e-09
-2.87106e-10
5.88175e-09
-2.22153e-10
6.03947e-09
-1.57725e-10
6.13371e-09
-9.42417e-11
6.16583e-09
-3.21145e-11
6.13757e-09
2.82606e-11
6.05109e-09
8.64732e-11
5.90892e-09
1.42173e-10
5.71397e-09
1.9495e-10
5.46956e-09
2.44411e-10
5.17942e-09
2.90142e-10
4.84771e-09
3.317e-10
4.47912e-09
3.68596e-10
4.07884e-09
4.00277e-10
3.65273e-09
4.2611e-10
3.20738e-09
4.45349e-10
2.75027e-09
4.57113e-10
2.28991e-09
4.60355e-10
1.83609e-09
4.53827e-10
1.40002e-09
4.36061e-10
9.94648e-10
4.05376e-10
6.34678e-10
3.5997e-10
3.36464e-10
2.98213e-10
1.17103e-10
2.19361e-10
-8.21923e-12
1.25322e-10
-3.53605e-11
2.71411e-11
-3.53605e-11
1.39849e-10
-2.33317e-10
3.44413e-10
-3.24429e-10
5.16293e-10
-2.48624e-10
6.29515e-10
-1.54332e-10
6.69053e-10
-4.74858e-11
6.21182e-10
7.23584e-11
4.76652e-10
2.01756e-10
2.30455e-10
3.36554e-10
-1.1911e-10
4.7327e-10
-5.71121e-10
6.0864e-10
-1.12271e-09
7.40247e-10
-1.76951e-09
8.66054e-10
-2.5063e-09
9.84962e-10
-3.32726e-09
1.09623e-09
-4.22644e-09
1.19981e-09
-5.19791e-09
1.29583e-09
-6.23599e-09
1.38473e-09
-7.33534e-09
1.46694e-09
-8.49097e-09
1.54298e-09
-9.69832e-09
1.61328e-09
-1.09532e-08
1.67827e-09
-1.22517e-08
1.7383e-09
-1.35905e-08
1.7937e-09
-1.49664e-08
1.84478e-09
-1.63764e-08
1.89187e-09
-1.78181e-08
1.93528e-09
-1.92892e-08
1.97537e-09
-2.07876e-08
2.01244e-09
-2.23116e-08
2.04686e-09
-2.38594e-08
2.07889e-09
-2.54296e-08
2.10885e-09
-2.70208e-08
2.13689e-09
-2.86317e-08
2.1632e-09
-3.0261e-08
2.1878e-09
-3.19071e-08
2.21068e-09
-3.35688e-08
2.23169e-09
-3.52441e-08
2.25064e-09
-3.69314e-08
2.26721e-09
-3.86284e-08
2.28103e-09
-4.03326e-08
2.29165e-09
-4.20412e-08
2.29859e-09
-4.37512e-08
2.30134e-09
-4.5459e-08
2.29938e-09
-4.71607e-08
2.29218e-09
-4.8852e-08
2.27925e-09
-5.05283e-08
2.26005e-09
-5.21846e-08
2.23405e-09
-5.38155e-08
2.20071e-09
-5.54152e-08
2.15949e-09
-5.69775e-08
2.10992e-09
-5.84962e-08
2.05161e-09
-5.99645e-08
1.98425e-09
-6.13756e-08
1.90759e-09
-6.27224e-08
1.8214e-09
-6.39977e-08
1.72547e-09
-6.5194e-08
1.61962e-09
-6.6304e-08
1.50371e-09
-6.73202e-08
1.37764e-09
-6.82351e-08
1.24142e-09
-6.90412e-08
1.0951e-09
-6.97314e-08
9.38862e-10
-7.02985e-08
7.7295e-10
-7.07357e-08
5.97702e-10
-7.10366e-08
4.13633e-10
-7.11953e-08
2.21317e-10
-7.12063e-08
2.15788e-11
-7.10646e-08
-1.85142e-10
-7.07659e-08
-3.97893e-10
-7.03066e-08
-6.15671e-10
-6.96838e-08
-8.3736e-10
-6.88956e-08
-1.06184e-09
-6.7941e-08
-1.28789e-09
-6.68198e-08
-1.51422e-09
-6.55329e-08
-1.73945e-09
-6.40823e-08
-1.96217e-09
-6.24708e-08
-2.18094e-09
-6.07026e-08
-2.39427e-09
-5.87828e-08
-2.60066e-09
-5.67177e-08
-2.79861e-09
-5.45144e-08
-2.98664e-09
-5.21815e-08
-3.16331e-09
-4.97282e-08
-3.32722e-09
-4.71649e-08
-3.47702e-09
-4.45028e-08
-3.61147e-09
-4.17542e-08
-3.7294e-09
-3.89317e-08
-3.82977e-09
-3.6049e-08
-3.91166e-09
-3.31201e-08
-3.97427e-09
-3.01595e-08
-4.01698e-09
-2.71822e-08
-4.03932e-09
-2.42033e-08
-4.04097e-09
-2.12381e-08
-4.0218e-09
-1.83016e-08
-3.98185e-09
-1.54089e-08
-3.92134e-09
-1.25748e-08
-3.84068e-09
-9.81368e-09
-3.74041e-09
-7.13926e-09
-3.62129e-09
-4.56475e-09
-3.4842e-09
-2.10257e-09
-3.33018e-09
2.35729e-10
-3.16041e-09
2.43951e-09
-2.97619e-09
4.49916e-09
-2.77892e-09
6.40616e-09
-2.57009e-09
8.15313e-09
-2.35128e-09
9.73385e-09
-2.1241e-09
1.11433e-08
-1.89022e-09
1.23778e-08
-1.65131e-09
1.34347e-08
-1.40906e-09
1.43128e-08
-1.16517e-09
1.50119e-08
-9.21284e-10
1.55332e-08
-6.79055e-10
1.58791e-08
-4.40089e-10
1.60529e-08
-2.05957e-10
1.60594e-08
2.17983e-11
1.59042e-08
2.41623e-10
1.55943e-08
4.52061e-10
1.51377e-08
6.51559e-10
1.45436e-08
8.38556e-10
1.38223e-08
1.01144e-09
1.29855e-08
1.16847e-09
1.20463e-08
1.3078e-09
1.10193e-08
1.42733e-09
9.92062e-09
1.52474e-09
8.76862e-09
1.59735e-09
7.58365e-09
1.64209e-09
6.38854e-09
1.65546e-09
5.20892e-09
1.63345e-09
4.0734e-09
1.57159e-09
3.01363e-09
1.46514e-09
2.06403e-09
1.30957e-09
1.26058e-09
1.10166e-09
6.38077e-10
8.41866e-10
2.24223e-10
5.39175e-10
2.67539e-11
2.2461e-10
-8.6067e-12
1.50881e-10
-3.84228e-10
3.75447e-10
-5.49013e-10
5.67127e-10
-4.40308e-10
6.82804e-10
-2.70005e-10
6.90086e-10
-5.47607e-11
5.62809e-10
1.99643e-10
2.83258e-10
4.81313e-10
-1.5839e-10
7.78206e-10
-7.65558e-10
1.08044e-09
-1.5373e-09
1.38038e-09
-2.46908e-09
1.67202e-09
-3.55434e-09
1.95131e-09
-4.78483e-09
2.21544e-09
-6.15161e-09
2.463e-09
-7.64514e-09
2.69334e-09
-9.25598e-09
2.90665e-09
-1.09747e-08
3.10348e-09
-1.27926e-08
3.28476e-09
-1.47011e-08
3.45147e-09
-1.66925e-08
3.60474e-09
-1.87599e-08
3.74561e-09
-2.08968e-08
3.87518e-09
-2.30975e-08
3.99439e-09
-2.5357e-08
4.10427e-09
-2.76708e-08
4.20565e-09
-3.00349e-08
4.29945e-09
-3.24459e-08
4.38638e-09
-3.49007e-08
4.46724e-09
-3.73965e-08
4.54258e-09
-3.99306e-08
4.61301e-09
-4.25006e-08
4.67887e-09
-4.51042e-08
4.74051e-09
-4.7739e-08
4.79799e-09
-5.04026e-08
4.85135e-09
-5.30922e-08
4.90034e-09
-5.58052e-08
4.94467e-09
-5.85384e-08
4.98377e-09
-6.12882e-08
5.01708e-09
-6.4051e-08
5.04376e-09
-6.68223e-08
5.06299e-09
-6.95975e-08
5.07374e-09
-7.23712e-08
5.07507e-09
-7.51377e-08
5.06585e-09
-7.78906e-08
5.04507e-09
-8.06229e-08
5.01157e-09
-8.33272e-08
4.96432e-09
-8.59953e-08
4.90218e-09
-8.86187e-08
4.82408e-09
-9.11882e-08
4.72898e-09
-9.36942e-08
4.61591e-09
-9.61266e-08
4.48401e-09
-9.84749e-08
4.33255e-09
-1.00728e-07
4.16089e-09
-1.02875e-07
3.96848e-09
-1.04905e-07
3.75485e-09
-1.06805e-07
3.51966e-09
-1.08564e-07
3.26266e-09
-1.1017e-07
2.98376e-09
-1.11611e-07
2.68304e-09
-1.12877e-07
2.36073e-09
-1.13955e-07
2.01728e-09
-1.14836e-07
1.65331e-09
-1.15508e-07
1.26965e-09
-1.15961e-07
8.67347e-10
-1.16188e-07
4.47772e-10
-1.16179e-07
1.24641e-11
-1.15927e-07
-4.37161e-10
-1.15426e-07
-8.99167e-10
-1.1467e-07
-1.37137e-09
-1.13656e-07
-1.8515e-09
-1.1238e-07
-2.33709e-09
-1.10843e-07
-2.82553e-09
-1.09043e-07
-3.31405e-09
-1.06983e-07
-3.79975e-09
-1.04665e-07
-4.27965e-09
-1.02095e-07
-4.75065e-09
-9.92801e-08
-5.20964e-09
-9.62273e-08
-5.65347e-09
-9.29469e-08
-6.07897e-09
-8.94505e-08
-6.48305e-09
-8.57511e-08
-6.86267e-09
-8.18635e-08
-7.21489e-09
-7.78036e-08
-7.53692e-09
-7.35889e-08
-7.82612e-09
-6.92383e-08
-8.08008e-09
-6.47714e-08
-8.2966e-09
-6.02093e-08
-8.47376e-09
-5.55737e-08
-8.60991e-09
-5.0887e-08
-8.70371e-09
-4.61721e-08
-8.75418e-09
-4.14524e-08
-8.76064e-09
-3.67514e-08
-8.72282e-09
-3.20925e-08
-8.64077e-09
-2.74989e-08
-8.51493e-09
-2.29935e-08
-8.34612e-09
-1.85984e-08
-8.1355e-09
-1.43351e-08
-7.88457e-09
-1.02241e-08
-7.59519e-09
-6.28478e-09
-7.2695e-09
-2.53523e-09
-6.90996e-09
1.00785e-09
-6.51926e-09
4.32927e-09
-6.10034e-09
7.4155e-09
-5.65632e-09
1.02547e-08
-5.1905e-09
1.28369e-08
-4.70627e-09
1.51538e-08
-4.20716e-09
1.71993e-08
-3.69673e-09
1.89688e-08
-3.17857e-09
2.04599e-08
-2.65628e-09
2.1672e-08
-2.13345e-09
2.26066e-08
-1.61359e-09
2.32667e-08
-1.10022e-09
2.36575e-08
-5.9674e-10
2.37858e-08
-1.06553e-10
2.36605e-08
3.66997e-10
2.32919e-08
8.20593e-10
2.26926e-08
1.25087e-09
2.18768e-08
1.65438e-09
2.08607e-08
2.02758e-09
1.96624e-08
2.3667e-09
1.83025e-08
2.66771e-09
1.68037e-08
2.92619e-09
1.51911e-08
3.13726e-09
1.3493e-08
3.29546e-09
1.17404e-08
3.39466e-09
9.96788e-09
3.42803e-09
8.21326e-09
3.38807e-09
6.5181e-09
3.26674e-09
4.92721e-09
3.05603e-09
3.48785e-09
2.74894e-09
2.24788e-09
2.34162e-09
1.25247e-09
1.83728e-09
5.38317e-10
1.25333e-09
1.24588e-10
6.3834e-10
1.15981e-10
1.343e-10
-5.18557e-10
3.30849e-10
-7.45583e-10
4.74581e-10
-5.84047e-10
5.11419e-10
-3.06842e-10
4.00922e-10
5.57415e-11
1.11723e-10
4.88849e-10
-3.77393e-10
9.70435e-10
-1.07874e-09
1.47955e-09
-1.99702e-09
1.99873e-09
-3.13121e-09
2.51457e-09
-4.4761e-09
3.0169e-09
-6.02356e-09
3.49877e-09
-7.76349e-09
3.95537e-09
-9.68463e-09
4.38412e-09
-1.1775e-08
4.7837e-09
-1.40225e-08
5.15414e-09
-1.64151e-08
5.4961e-09
-1.89413e-08
5.81095e-09
-2.15901e-08
6.10028e-09
-2.43514e-08
6.36595e-09
-2.72156e-08
6.60985e-09
-3.01744e-08
6.83391e-09
-3.32199e-08
7.03996e-09
-3.63454e-08
7.22979e-09
-3.95448e-08
7.40503e-09
-4.28126e-08
7.56723e-09
-4.6144e-08
7.71773e-09
-4.95345e-08
7.85777e-09
-5.29802e-08
7.9883e-09
-5.64774e-08
8.11018e-09
-6.00225e-08
8.22392e-09
-6.36119e-08
8.32993e-09
-6.72421e-08
8.42823e-09
-7.09095e-08
8.51873e-09
-7.46101e-08
8.60095e-09
-7.83398e-08
8.6743e-09
-8.20939e-08
8.73786e-09
-8.58673e-08
8.79056e-09
-8.96547e-08
8.8311e-09
-9.34498e-08
8.85807e-09
-9.72459e-08
8.86985e-09
-1.01036e-07
8.86481e-09
-1.04811e-07
8.84116e-09
-1.08563e-07
8.79714e-09
-1.12282e-07
8.7309e-09
-1.15959e-07
8.64065e-09
-1.19581e-07
8.52454e-09
-1.23138e-07
8.38083e-09
-1.26617e-07
8.20779e-09
-1.30005e-07
8.00386e-09
-1.33288e-07
7.76758e-09
-1.36453e-07
7.49769e-09
-1.39485e-07
7.19307e-09
-1.4237e-07
6.85278e-09
-1.45091e-07
6.47607e-09
-1.47634e-07
6.06239e-09
-1.49983e-07
5.61144e-09
-1.52122e-07
5.12315e-09
-1.54037e-07
4.59776e-09
-1.55712e-07
4.03579e-09
-1.57132e-07
3.43808e-09
-1.58285e-07
2.80582e-09
-1.59156e-07
2.14053e-09
-1.59733e-07
1.44407e-09
-1.60004e-07
7.18711e-10
-1.59958e-07
-3.29523e-11
-1.59587e-07
-8.08106e-10
-1.58883e-07
-1.60349e-09
-1.57839e-07
-2.41549e-09
-1.5645e-07
-3.24021e-09
-1.54714e-07
-4.07346e-09
-1.52628e-07
-4.91079e-09
-1.50195e-07
-5.74753e-09
-1.47416e-07
-6.5788e-09
-1.44296e-07
-7.39954e-09
-1.40842e-07
-8.20459e-09
-1.37063e-07
-8.98871e-09
-1.3297e-07
-9.74661e-09
-1.28576e-07
-1.0473e-08
-1.23896e-07
-1.11628e-08
-1.18948e-07
-1.18108e-08
-1.13751e-07
-1.24122e-08
-1.08325e-07
-1.29623e-08
-1.02695e-07
-1.34567e-08
-9.68834e-08
-1.38914e-08
-9.09172e-08
-1.42628e-08
-8.48235e-08
-1.45675e-08
-7.86304e-08
-1.4803e-08
-7.23672e-08
-1.49669e-08
-6.60637e-08
-1.50576e-08
-5.97505e-08
-1.50739e-08
-5.34579e-08
-1.50154e-08
-4.72167e-08
-1.4882e-08
-4.10571e-08
-1.46746e-08
-3.50088e-08
-1.43943e-08
-2.91011e-08
-1.40432e-08
-2.3362e-08
-1.36236e-08
-1.78185e-08
-1.31387e-08
-1.24962e-08
-1.25919e-08
-7.41884e-09
-1.19873e-08
-2.60877e-09
-1.13293e-08
1.9138e-09
-1.06229e-08
6.1307e-09
-9.87323e-09
1.0026e-08
-9.08577e-09
1.35859e-08
-8.26624e-09
1.67993e-08
-7.42054e-09
1.96573e-08
-6.55468e-09
2.21534e-08
-5.67474e-09
2.4284e-08
-4.78681e-09
2.60475e-08
-3.897e-09
2.74453e-08
-3.01135e-09
2.84809e-08
-2.13584e-09
2.91606e-08
-1.27641e-09
2.94929e-08
-4.3889e-10
2.9489e-08
3.70902e-10
2.91624e-08
1.14718e-09
2.85292e-08
1.8841e-09
2.76079e-08
2.57571e-09
2.64196e-08
3.21585e-09
2.49882e-08
3.79808e-09
2.33404e-08
4.31553e-09
2.15058e-08
4.76081e-09
1.95172e-08
5.12585e-09
1.74109e-08
5.40179e-09
1.52266e-08
5.57891e-09
1.3008e-08
5.64662e-09
1.08025e-08
5.59361e-09
8.66101e-09
5.4082e-09
6.63784e-09
5.0792e-09
4.78927e-09
4.59751e-09
3.17195e-09
3.95895e-09
1.84018e-09
3.16905e-09
8.42562e-10
2.25094e-09
2.18848e-10
1.26205e-09
3.34829e-10
1.02123e-10
-6.2071e-10
2.28968e-10
-8.72451e-10
2.69949e-10
-6.25039e-10
1.65243e-10
-2.02137e-10
-1.28664e-10
3.49653e-10
-6.44176e-10
1.00437e-09
-1.40334e-09
1.72961e-09
-2.41865e-09
2.49487e-09
-3.69513e-09
3.27521e-09
-5.23132e-09
4.05077e-09
-7.02155e-09
4.80712e-09
-9.05642e-09
5.53364e-09
-1.13246e-08
6.22357e-09
-1.38131e-08
6.87254e-09
-1.65081e-08
7.4787e-09
-1.93954e-08
8.0415e-09
-2.24613e-08
8.56192e-09
-2.56919e-08
9.04154e-09
-2.90743e-08
9.48272e-09
-3.25964e-08
9.88799e-09
-3.62468e-08
1.02602e-08
-4.00151e-08
1.06022e-08
-4.38919e-08
1.09168e-08
-4.78687e-08
1.12066e-08
-5.19379e-08
1.14742e-08
-5.60924e-08
1.17218e-08
-6.03262e-08
1.19515e-08
-6.46334e-08
1.2165e-08
-6.90088e-08
1.23637e-08
-7.34474e-08
1.25488e-08
-7.79445e-08
1.2721e-08
-8.24953e-08
1.28807e-08
-8.7095e-08
1.30279e-08
-9.17386e-08
1.31623e-08
-9.64209e-08
1.32833e-08
-1.01136e-07
1.33897e-08
-1.05879e-07
1.34803e-08
-1.10641e-07
1.35533e-08
-1.15417e-07
1.3607e-08
-1.20198e-07
1.36391e-08
-1.24976e-07
1.36474e-08
-1.2974e-07
1.36294e-08
-1.34482e-07
1.35825e-08
-1.39189e-07
1.35041e-08
-1.43849e-07
1.33914e-08
-1.4845e-07
1.32419e-08
-1.52979e-07
1.30528e-08
-1.57419e-07
1.28215e-08
-1.61757e-07
1.25456e-08
-1.65976e-07
1.22229e-08
-1.7006e-07
1.1851e-08
-1.7399e-07
1.14283e-08
-1.7775e-07
1.0953e-08
-1.81321e-07
1.04239e-08
-1.84685e-07
9.83975e-09
-1.87823e-07
9.19996e-09
-1.90715e-07
8.50413e-09
-1.93345e-07
7.75233e-09
-1.95692e-07
6.94502e-09
-1.97739e-07
6.08313e-09
-1.99469e-07
5.16806e-09
-2.00865e-07
4.20169e-09
-2.01911e-07
3.18642e-09
-2.02592e-07
2.12517e-09
-2.02895e-07
1.02136e-09
-2.02807e-07
-1.21053e-10
-2.02317e-07
-1.29768e-09
-2.01417e-07
-2.5036e-09
-2.00099e-07
-3.73339e-09
-1.98358e-07
-4.98122e-09
-1.96191e-07
-6.24081e-09
-1.93596e-07
-7.50553e-09
-1.90575e-07
-8.76839e-09
-1.87132e-07
-1.00221e-08
-1.83272e-07
-1.12593e-08
-1.79004e-07
-1.24722e-08
-1.7434e-07
-1.36532e-08
-1.69292e-07
-1.47943e-08
-1.63877e-07
-1.58879e-08
-1.58114e-07
-1.69262e-08
-1.52023e-07
-1.79019e-08
-1.45627e-07
-1.88077e-08
-1.38953e-07
-1.96368e-08
-1.32027e-07
-2.03827e-08
-1.24878e-07
-2.10396e-08
-1.17539e-07
-2.16019e-08
-1.10042e-07
-2.2065e-08
-1.0242e-07
-2.24249e-08
-9.47088e-08
-2.26781e-08
-8.69441e-08
-2.28222e-08
-7.91624e-08
-2.28556e-08
-7.14005e-08
-2.27773e-08
-6.36949e-08
-2.25876e-08
-5.60823e-08
-2.22872e-08
-4.85985e-08
-2.18781e-08
-4.12787e-08
-2.1363e-08
-3.4157e-08
-2.07454e-08
-2.72659e-08
-2.00297e-08
-2.06367e-08
-1.92212e-08
-1.42984e-08
-1.83255e-08
-8.27835e-09
-1.73494e-08
-2.6014e-09
-1.62999e-08
2.70996e-09
-1.51846e-08
7.63582e-09
-1.40116e-08
1.2159e-08
-1.27894e-08
1.62652e-08
-1.15268e-08
1.9943e-08
-1.02325e-08
2.31839e-08
-8.91566e-09
2.59826e-08
-7.58544e-09
2.83365e-08
-6.25097e-09
3.02465e-08
-4.92134e-09
3.17163e-08
-3.60561e-09
3.27526e-08
-2.31275e-09
3.33654e-08
-1.05164e-09
3.35674e-08
1.68854e-10
3.33747e-08
1.33989e-09
3.28062e-08
2.45259e-09
3.18841e-08
3.49789e-09
3.06335e-08
4.46646e-09
2.90829e-08
5.3486e-09
2.72644e-08
6.1341e-09
2.52131e-08
6.81207e-09
2.29682e-08
7.37077e-09
2.05724e-08
7.79755e-09
1.80726e-08
8.07877e-09
1.55193e-08
8.19985e-09
1.29674e-08
8.14557e-09
1.0475e-08
7.90059e-09
8.10357e-09
7.45061e-09
5.91675e-09
6.78433e-09
3.97913e-09
5.89657e-09
2.3549e-09
4.79328e-09
1.10703e-09
3.49881e-09
2.98789e-10
2.07029e-09
6.33618e-10
5.93493e-11
-6.80088e-10
8.7718e-11
-9.00844e-10
-1.50133e-11
-5.2232e-10
-3.08315e-10
9.11617e-11
-8.35173e-10
8.76514e-10
-1.62679e-09
1.79599e-09
-2.70372e-09
2.80653e-09
-4.07758e-09
3.86873e-09
-5.75227e-09
4.94991e-09
-7.72576e-09
6.02426e-09
-9.99122e-09
7.07258e-09
-1.25384e-08
8.08085e-09
-1.53547e-08
9.03979e-09
-1.84256e-08
9.94347e-09
-2.17359e-08
1.0789e-08
-2.52701e-08
1.15756e-08
-2.90124e-08
1.23042e-08
-3.29475e-08
1.29767e-08
-3.70609e-08
1.35961e-08
-4.13386e-08
1.41657e-08
-4.57678e-08
1.46894e-08
-5.03365e-08
1.51709e-08
-5.50337e-08
1.5614e-08
-5.98495e-08
1.60223e-08
-6.47747e-08
1.63993e-08
-6.9801e-08
1.67481e-08
-7.49208e-08
1.70713e-08
-8.01273e-08
1.73714e-08
-8.54137e-08
1.76502e-08
-9.0774e-08
1.79091e-08
-9.62021e-08
1.81491e-08
-1.01692e-07
1.83706e-08
-1.07238e-07
1.85736e-08
-1.12833e-07
1.87575e-08
-1.18471e-07
1.89213e-08
-1.24145e-07
1.90635e-08
-1.29847e-07
1.91823e-08
-1.35569e-07
1.92754e-08
-1.41302e-07
1.93402e-08
-1.47037e-07
1.93736e-08
-1.52762e-07
1.93727e-08
-1.58466e-07
1.93339e-08
-1.64138e-07
1.92538e-08
-1.69762e-07
1.91287e-08
-1.75326e-07
1.8955e-08
-1.80813e-07
1.8729e-08
-1.86207e-07
1.84472e-08
-1.91492e-07
1.81059e-08
-1.96648e-07
1.7702e-08
-2.01658e-07
1.72322e-08
-2.065e-07
1.66938e-08
-2.11156e-07
1.60842e-08
-2.15604e-07
1.54013e-08
-2.19824e-07
1.46432e-08
-2.23793e-07
1.38087e-08
-2.2749e-07
1.28968e-08
-2.30893e-07
1.19073e-08
-2.33981e-07
1.08404e-08
-2.36733e-07
9.69679e-09
-2.39128e-07
8.47801e-09
-2.41146e-07
7.18614e-09
-2.42768e-07
5.82393e-09
-2.43976e-07
4.39485e-09
-2.44754e-07
2.90303e-09
-2.45086e-07
1.35334e-09
-2.44959e-07
-2.4869e-10
-2.44359e-07
-1.89687e-09
-2.43279e-07
-3.58433e-09
-2.41708e-07
-5.30356e-09
-2.39643e-07
-7.04647e-09
-2.3708e-07
-8.80442e-09
-2.34017e-07
-1.05682e-08
-2.30457e-07
-1.23283e-08
-2.26404e-07
-1.40748e-08
-2.21866e-07
-1.57973e-08
-2.16853e-07
-1.74854e-08
-2.11378e-07
-1.91286e-08
-2.05456e-07
-2.07161e-08
-1.99106e-07
-2.22375e-08
-1.9235e-07
-2.36822e-08
-1.85212e-07
-2.50402e-08
-1.77718e-07
-2.63016e-08
-1.69898e-07
-2.74571e-08
-1.61783e-07
-2.8498e-08
-1.53406e-07
-2.94161e-08
-1.44804e-07
-3.02041e-08
-1.36014e-07
-3.08555e-08
-1.27074e-07
-3.13649e-08
-1.18024e-07
-3.17275e-08
-1.08906e-07
-3.19401e-08
-9.97617e-08
-3.20001e-08
-9.06325e-08
-3.19065e-08
-8.15609e-08
-3.16592e-08
-7.25887e-08
-3.12594e-08
-6.37573e-08
-3.07095e-08
-5.51072e-08
-3.00131e-08
-4.66777e-08
-2.91749e-08
-3.85068e-08
-2.82007e-08
-3.06304e-08
-2.70975e-08
-2.30826e-08
-2.58733e-08
-1.58954e-08
-2.45367e-08
-9.09786e-09
-2.30974e-08
-2.71666e-09
-2.15658e-08
3.22456e-09
-1.99529e-08
8.70521e-09
-1.82701e-08
1.37079e-08
-1.65295e-08
1.82186e-08
-1.47432e-08
2.22266e-08
-1.29237e-08
2.57248e-08
-1.10836e-08
2.87094e-08
-9.23562e-09
3.11805e-08
-7.39237e-09
3.31413e-08
-5.56646e-09
3.4599e-08
-3.77042e-09
3.5564e-08
-2.01672e-09
3.60507e-08
-3.17783e-10
3.60766e-08
1.31398e-09
3.56631e-08
2.86612e-09
3.4835e-08
4.32594e-09
3.3621e-08
5.68045e-09
3.20534e-08
6.91624e-09
3.01682e-08
8.01927e-09
2.80055e-08
8.97475e-09
2.56093e-08
9.76694e-09
2.30278e-08
1.03791e-08
2.03131e-08
1.07934e-08
1.75217e-08
1.09912e-08
1.4714e-08
1.09533e-08
1.19541e-08
1.06605e-08
9.30948e-09
1.00953e-08
6.85036e-09
9.24344e-09
4.64929e-09
8.09764e-09
2.78097e-09
6.6616e-09
1.32356e-09
4.95622e-09
3.62726e-10
3.03113e-09
9.96343e-10
1.04349e-11
-6.90551e-10
-7.96712e-11
-8.10761e-10
-3.55977e-10
-2.46028e-10
-8.73779e-10
6.0896e-10
-1.67253e-09
1.67527e-09
-2.78008e-09
2.90355e-09
-4.21414e-09
4.2406e-09
-5.98409e-09
5.6387e-09
-8.09197e-09
7.05778e-09
-1.05343e-08
8.46664e-09
-1.33029e-08
9.84115e-09
-1.63864e-08
1.11643e-08
-1.97706e-08
1.2424e-08
-2.344e-08
1.36129e-08
-2.73781e-08
1.47271e-08
-3.15678e-08
1.57653e-08
-3.59921e-08
1.67284e-08
-4.06344e-08
1.76189e-08
-4.54785e-08
1.84402e-08
-5.05094e-08
1.91966e-08
-5.57125e-08
1.98926e-08
-6.10748e-08
2.05331e-08
-6.65838e-08
2.1123e-08
-7.22282e-08
2.16668e-08
-7.79976e-08
2.21688e-08
-8.38826e-08
2.26331e-08
-8.98742e-08
2.3063e-08
-9.59643e-08
2.34615e-08
-1.02145e-07
2.3831e-08
-1.08409e-07
2.41733e-08
-1.1475e-07
2.44894e-08
-1.21159e-07
2.47799e-08
-1.2763e-07
2.50444e-08
-1.34155e-07
2.52824e-08
-1.40726e-07
2.54923e-08
-1.47334e-07
2.56722e-08
-1.53972e-07
2.58195e-08
-1.60628e-07
2.59314e-08
-1.67292e-07
2.60042e-08
-1.73952e-07
2.60343e-08
-1.80597e-07
2.60175e-08
-1.87213e-07
2.59493e-08
-1.93784e-07
2.58253e-08
-2.00296e-07
2.56407e-08
-2.06732e-07
2.53908e-08
-2.13074e-07
2.50709e-08
-2.19303e-07
2.46762e-08
-2.25399e-07
2.42025e-08
-2.31343e-07
2.36453e-08
-2.37111e-07
2.30007e-08
-2.42683e-07
2.22651e-08
-2.48034e-07
2.14354e-08
-2.53141e-07
2.05088e-08
-2.57981e-07
1.94831e-08
-2.62529e-07
1.83568e-08
-2.66761e-07
1.71289e-08
-2.70653e-07
1.57991e-08
-2.7418e-07
1.43678e-08
-2.7732e-07
1.28365e-08
-2.80049e-07
1.1207e-08
-2.82345e-07
9.48242e-09
-2.84188e-07
7.66647e-09
-2.85557e-07
5.76386e-09
-2.86434e-07
3.78015e-09
-2.86803e-07
1.72182e-09
-2.86647e-07
-4.03782e-10
-2.85956e-07
-2.58845e-09
-2.84717e-07
-4.82313e-09
-2.82923e-07
-7.09798e-09
-2.80567e-07
-9.4024e-09
-2.77646e-07
-1.17251e-08
-2.7416e-07
-1.40541e-08
-2.70112e-07
-1.6377e-08
-2.65505e-07
-1.86808e-08
-2.6035e-07
-2.09523e-08
-2.54658e-07
-2.31779e-08
-2.48443e-07
-2.53439e-08
-2.41722e-07
-2.74365e-08
-2.34518e-07
-2.94421e-08
-2.26853e-07
-3.13472e-08
-2.18754e-07
-3.31388e-08
-2.10252e-07
-3.48041e-08
-2.01378e-07
-3.63312e-08
-1.92167e-07
-3.77086e-08
-1.82657e-07
-3.89261e-08
-1.72887e-07
-3.9974e-08
-1.62898e-07
-4.0844e-08
-1.52734e-07
-4.15289e-08
-1.42439e-07
-4.20226e-08
-1.32059e-07
-4.23207e-08
-1.21639e-07
-4.242e-08
-1.11227e-07
-4.23188e-08
-1.00869e-07
-4.20169e-08
-9.06124e-08
-4.15158e-08
-8.05034e-08
-4.08184e-08
-7.05873e-08
-3.99292e-08
-6.09082e-08
-3.8854e-08
-5.15087e-08
-3.76003e-08
-4.24294e-08
-3.61768e-08
-3.37091e-08
-3.45936e-08
-2.53838e-08
-3.28619e-08
-1.74871e-08
-3.09941e-08
-1.00494e-08
-2.90035e-08
-3.09799e-09
-2.69042e-08
3.34307e-09
-2.47112e-08
9.25335e-09
-2.24397e-08
1.46161e-08
-2.01059e-08
1.94183e-08
-1.77258e-08
2.36507e-08
-1.53161e-08
2.73083e-08
-1.28932e-08
3.03898e-08
-1.04738e-08
3.2898e-08
-8.07462e-09
3.48397e-08
-5.7121e-09
3.62257e-08
-3.40278e-09
3.7071e-08
-1.16312e-09
3.73946e-08
9.90407e-10
3.72195e-08
3.04127e-09
3.65726e-08
4.97279e-09
3.54853e-08
6.76778e-09
3.39928e-08
8.40874e-09
3.21346e-08
9.87745e-09
2.99545e-08
1.11549e-08
2.75005e-08
1.22209e-08
2.4825e-08
1.30546e-08
2.19847e-08
1.36337e-08
1.90406e-08
1.39354e-08
1.60577e-08
1.39361e-08
1.31054e-08
1.36128e-08
1.02565e-08
1.29442e-08
7.58761e-09
1.19123e-08
5.17922e-09
1.0506e-08
3.11661e-09
8.72421e-09
1.49236e-09
6.58047e-09
4.11557e-10
4.11193e-09
1.4079e-09
-4.17017e-11
-6.48876e-10
-2.63414e-10
-5.89072e-10
-7.35694e-10
2.26239e-10
-1.50582e-09
1.37908e-09
-2.60747e-09
2.77692e-09
-4.06344e-09
4.35953e-09
-5.88753e-09
6.06469e-09
-8.0856e-09
7.83678e-09
-1.06573e-08
9.62946e-09
-1.35967e-08
1.14061e-08
-1.6894e-08
1.31385e-08
-2.05361e-08
1.48064e-08
-2.45077e-08
1.63955e-08
-2.87917e-08
1.78969e-08
-3.33704e-08
1.93057e-08
-3.82253e-08
2.06203e-08
-4.33385e-08
2.18416e-08
-4.86919e-08
2.29723e-08
-5.42683e-08
2.40166e-08
-6.00513e-08
2.49796e-08
-6.60254e-08
2.58667e-08
-7.21761e-08
2.66838e-08
-7.84899e-08
2.74368e-08
-8.49545e-08
2.81313e-08
-9.15583e-08
2.87725e-08
-9.82906e-08
2.93653e-08
-1.05141e-07
2.99139e-08
-1.12102e-07
3.04217e-08
-1.19162e-07
3.08917e-08
-1.26315e-07
3.13259e-08
-1.33551e-07
3.17256e-08
-1.40863e-07
3.20912e-08
-1.48241e-07
3.24225e-08
-1.55676e-07
3.27183e-08
-1.63161e-07
3.29768e-08
-1.70684e-07
3.31954e-08
-1.78236e-07
3.3371e-08
-1.85804e-07
3.34997e-08
-1.93377e-07
3.35772e-08
-2.00941e-07
3.35987e-08
-2.08483e-07
3.35589e-08
-2.15986e-07
3.34524e-08
-2.23434e-07
3.32735e-08
-2.3081e-07
3.30163e-08
-2.38094e-07
3.26749e-08
-2.45267e-07
3.22435e-08
-2.52307e-07
3.17163e-08
-2.59192e-07
3.10877e-08
-2.65899e-07
3.03526e-08
-2.72404e-07
2.9506e-08
-2.78683e-07
2.85436e-08
-2.84709e-07
2.74616e-08
-2.90457e-07
2.62566e-08
-2.959e-07
2.49262e-08
-3.01011e-07
2.34684e-08
-3.05765e-07
2.18824e-08
-3.10134e-07
2.01679e-08
-3.14092e-07
1.83259e-08
-3.17614e-07
1.63581e-08
-3.20674e-07
1.42673e-08
-3.23249e-07
1.20574e-08
-3.25316e-07
9.73343e-09
-3.26853e-07
7.30139e-09
-3.27842e-07
4.76847e-09
-3.28263e-07
2.14294e-09
-3.28101e-07
-5.65829e-10
-3.27342e-07
-3.34744e-09
-3.25974e-07
-6.19046e-09
-3.2399e-07
-9.08247e-09
-3.21382e-07
-1.20102e-08
-3.18148e-07
-1.49594e-08
-3.14287e-07
-1.79152e-08
-3.09802e-07
-2.08619e-08
-3.04699e-07
-2.37836e-08
-2.98988e-07
-2.66635e-08
-2.92681e-07
-2.94849e-08
-2.85794e-07
-3.22307e-08
-2.78347e-07
-3.48838e-08
-2.70362e-07
-3.74272e-08
-2.61865e-07
-3.98442e-08
-2.52885e-07
-4.21186e-08
-2.43455e-07
-4.42346e-08
-2.33608e-07
-4.61773e-08
-2.23385e-07
-4.79325e-08
-2.12823e-07
-4.94874e-08
-2.01967e-07
-5.083e-08
-1.90862e-07
-5.19497e-08
-1.79553e-07
-5.28377e-08
-1.68089e-07
-5.34863e-08
-1.5652e-07
-5.38897e-08
-1.44896e-07
-5.40439e-08
-1.33269e-07
-5.39466e-08
-1.21688e-07
-5.35974e-08
-1.10206e-07
-5.29979e-08
-9.88731e-08
-5.21513e-08
-8.77391e-08
-5.10632e-08
-7.68527e-08
-4.97405e-08
-6.62607e-08
-4.81922e-08
-5.60084e-08
-4.64291e-08
-4.61387e-08
-4.44633e-08
-3.66918e-08
-4.23088e-08
-2.77053e-08
-3.99806e-08
-1.92135e-08
-3.74953e-08
-1.12473e-08
-3.48704e-08
-3.83423e-09
-3.21242e-08
3.00222e-09
-2.92762e-08
9.24241e-09
-2.63461e-08
1.48708e-08
-2.33543e-08
1.98762e-08
-2.03215e-08
2.42516e-08
-1.72686e-08
2.79943e-08
-1.42166e-08
3.11062e-08
-1.11865e-08
3.35935e-08
-8.19944e-09
3.5467e-08
-5.2763e-09
3.6742e-08
-2.43802e-09
3.74379e-08
2.94454e-10
3.75791e-08
2.90004e-09
3.71944e-08
5.35752e-09
3.63167e-08
7.64545e-09
3.49838e-08
9.7417e-09
3.32377e-08
1.16235e-08
3.11252e-08
1.32673e-08
2.86976e-08
1.46485e-08
2.60107e-08
1.57415e-08
2.31249e-08
1.65196e-08
2.0105e-08
1.69553e-08
1.70203e-08
1.70208e-08
1.39444e-08
1.66887e-08
1.09554e-08
1.59331e-08
8.1362e-09
1.47316e-08
5.57487e-09
1.30674e-08
3.36669e-09
1.09324e-08
1.61709e-09
8.33007e-09
4.47032e-10
5.28199e-09
1.85493e-09
-9.56495e-11
-5.53251e-10
-4.58136e-10
-2.2661e-10
-1.14276e-09
9.10849e-10
-2.18673e-09
2.42305e-09
-3.616e-09
4.20619e-09
-5.4471e-09
6.19063e-09
-7.68866e-09
8.30626e-09
-1.03423e-08
1.04904e-08
-1.34043e-08
1.26914e-08
-1.68658e-08
1.48676e-08
-2.0715e-08
1.69876e-08
-2.49365e-08
1.90279e-08
-2.95135e-08
2.09725e-08
-3.44275e-08
2.28109e-08
-3.96594e-08
2.45376e-08
-4.51896e-08
2.61505e-08
-5.09989e-08
2.76508e-08
-5.70682e-08
2.90416e-08
-6.33792e-08
3.03277e-08
-6.99145e-08
3.15149e-08
-7.66577e-08
3.26098e-08
-8.35931e-08
3.36192e-08
-9.07064e-08
3.45501e-08
-9.7984e-08
3.5409e-08
-1.05414e-07
3.62022e-08
-1.12984e-07
3.69353e-08
-1.20683e-07
3.76133e-08
-1.28502e-07
3.82402e-08
-1.36429e-07
3.88196e-08
-1.44457e-07
3.93534e-08
-1.52575e-07
3.98434e-08
-1.60773e-07
4.02899e-08
-1.69043e-07
4.06924e-08
-1.77374e-07
4.10493e-08
-1.85756e-07
4.13585e-08
-1.94177e-07
4.16166e-08
-2.02626e-07
4.18197e-08
-2.1109e-07
4.19631e-08
-2.19554e-07
4.20415e-08
-2.28004e-07
4.2049e-08
-2.36424e-07
4.19792e-08
-2.44797e-07
4.18253e-08
-2.53105e-07
4.15807e-08
-2.61326e-07
4.1238e-08
-2.69441e-07
4.07902e-08
-2.77428e-07
4.02301e-08
-2.85263e-07
3.95509e-08
-2.92921e-07
3.8746e-08
-3.00377e-07
3.78091e-08
-3.07606e-07
3.67343e-08
-3.14579e-07
3.55166e-08
-3.21269e-07
3.41514e-08
-3.27647e-07
3.2635e-08
-3.33685e-07
3.09644e-08
-3.39354e-07
2.91376e-08
-3.44626e-07
2.71537e-08
-3.4947e-07
2.50127e-08
-3.5386e-07
2.2716e-08
-3.57768e-07
2.02658e-08
-3.61167e-07
1.7666e-08
-3.64031e-07
1.49215e-08
-3.66336e-07
1.20385e-08
-3.68059e-07
9.02465e-09
-3.6918e-07
5.88886e-09
-3.69678e-07
2.64134e-09
-3.69538e-07
-7.06377e-10
-3.68744e-07
-4.14151e-09
-3.67284e-07
-7.65007e-09
-3.65149e-07
-1.12169e-08
-3.62334e-07
-1.48258e-08
-3.58834e-07
-1.84596e-08
-3.54649e-07
-2.21001e-08
-3.49782e-07
-2.57284e-08
-3.44241e-07
-2.9325e-08
-3.38034e-07
-3.287e-08
-3.31176e-07
-3.63428e-08
-3.23684e-07
-3.97229e-08
-3.15578e-07
-4.29898e-08
-3.06882e-07
-4.61228e-08
-2.97625e-07
-4.9102e-08
-2.87836e-07
-5.19075e-08
-2.7755e-07
-5.45205e-08
-2.66804e-07
-5.69228e-08
-2.55639e-07
-5.90974e-08
-2.44098e-07
-6.10286e-08
-2.32226e-07
-6.27019e-08
-2.20071e-07
-6.41045e-08
-2.07684e-07
-6.52254e-08
-1.95115e-07
-6.60554e-08
-1.82417e-07
-6.65871e-08
-1.69646e-07
-6.68155e-08
-1.56855e-07
-6.67375e-08
-1.441e-07
-6.63525e-08
-1.31436e-07
-6.5662e-08
-1.18917e-07
-6.46697e-08
-1.06599e-07
-6.33818e-08
-9.45325e-08
-6.18065e-08
-8.27702e-08
-5.99545e-08
-7.13612e-08
-5.78382e-08
-6.03523e-08