/*--------------------------------*- C++ -*----------------------------------*\
  =========                 |
  \\      /  F ield         | OpenFOAM: The Open Source CFD Toolbox
   \\    /   O peration     | Website:  https://openfoam.org
    \\  /    A nd           | Version:  12
     \\/     M anipulation  |
\*---------------------------------------------------------------------------*/
FoamFile
{
    format      ascii;
    class       surfaceScalarField;
    location    "7.5";
    object      phi;
}
// * * * * * * * * * * * * * * * * * * * * * * * * * * * * * * * * * * * * * //

dimensions      [0 3 -1 0 0 0 0];

internalField   nonuniform List<scalar> 
11100
(
2.94387e-10
-2.94412e-10
7.43877e-10
-4.49487e-10
1.0664e-09
-3.22523e-10
1.10818e-09
-4.17819e-11
8.0232e-10
3.05861e-10
1.29908e-10
6.72411e-10
-9.00926e-10
1.03083e-09
-2.26721e-09
1.36628e-09
-3.93831e-09
1.6711e-09
-5.88031e-09
1.942e-09
-8.05858e-09
2.17827e-09
-1.04393e-08
2.38071e-09
-1.29902e-08
2.55096e-09
-1.56813e-08
2.69108e-09
-1.84846e-08
2.80327e-09
-2.13743e-08
2.88967e-09
-2.43265e-08
2.95226e-09
-2.73193e-08
2.9928e-09
-3.03321e-08
3.01275e-09
-3.33454e-08
3.01329e-09
-3.63407e-08
2.9953e-09
-3.93001e-08
2.95942e-09
-4.22061e-08
2.90602e-09
-4.50414e-08
2.83528e-09
-4.77886e-08
2.74723e-09
-5.04304e-08
2.64177e-09
-5.29492e-08
2.51877e-09
-5.53272e-08
2.37804e-09
-5.75467e-08
2.21948e-09
-5.95897e-08
2.04303e-09
-6.14385e-08
1.8488e-09
-6.30756e-08
1.63706e-09
-6.44839e-08
1.40829e-09
-6.56471e-08
1.1632e-09
-6.65499e-08
9.02803e-10
-6.71782e-08
6.28355e-10
-6.75197e-08
3.41499e-10
-6.75643e-08
4.46084e-11
-6.73034e-08
-2.60942e-10
-6.67314e-08
-5.71951e-10
-6.58457e-08
-8.85703e-10
-6.46467e-08
-1.19906e-09
-6.3138e-08
-1.50865e-09
-6.13271e-08
-1.81091e-09
-5.9225e-08
-2.10213e-09
-5.68464e-08
-2.37853e-09
-5.42101e-08
-2.6363e-09
-5.13384e-08
-2.87171e-09
-4.82573e-08
-3.08114e-09
-4.49961e-08
-3.26119e-09
-4.15873e-08
-3.40877e-09
-3.80662e-08
-3.52111e-09
-3.44703e-08
-3.59589e-09
-3.0839e-08
-3.6313e-09
-2.7213e-08
-3.62606e-09
-2.36335e-08
-3.57949e-09
-2.01419e-08
-3.49155e-09
-1.67791e-08
-3.36283e-09
-1.35845e-08
-3.19459e-09
-1.05957e-08
-2.98878e-09
-7.84775e-09
-2.74797e-09
-5.37232e-09
-2.47543e-09
-3.19724e-09
-2.17508e-09
-1.3457e-09
-1.85154e-09
1.64472e-10
-1.51018e-09
1.32177e-09
-1.1573e-09
2.12209e-09
-8.00322e-10
2.5704e-09
-4.48306e-10
2.68306e-09
-1.12658e-10
2.49138e-09
1.91676e-10
2.04706e-09
4.44319e-10
1.43019e-09
6.16869e-10
7.61336e-10
6.68857e-10
2.16949e-10
5.44387e-10
2.16949e-10
4.52786e-10
-7.47193e-10
1.00989e-09
-1.00659e-09
1.15548e-09
-4.68106e-10
5.97178e-10
5.16516e-10
-8.15931e-10
1.71897e-09
-3.14017e-09
2.99665e-09
-6.37057e-09
4.26124e-09
-1.04639e-08
5.45961e-09
-1.53543e-08
6.56148e-09
-2.09636e-08
7.5513e-09
-2.72082e-08
8.42291e-09
-3.40036e-08
9.1761e-09
-4.12669e-08
9.81423e-09
-4.89185e-08
1.03427e-08
-5.68832e-08
1.0768e-08
-6.50901e-08
1.10965e-08
-7.34726e-08
1.13348e-08
-8.19683e-08
1.14884e-08
-9.0518e-08
1.15624e-08
-9.90655e-08
1.15608e-08
-1.07557e-07
1.14868e-08
-1.1594e-07
1.13425e-08
-1.24164e-07
1.11297e-08
-1.32177e-07
1.0849e-08
-1.39931e-07
1.05009e-08
-1.47375e-07
1.00854e-08
-1.54458e-07
9.60216e-09
-1.61131e-07
9.05112e-09
-1.67344e-07
8.43221e-09
-1.73047e-07
7.74572e-09
-1.7819e-07
6.99247e-09
-1.82727e-07
6.17389e-09
-1.86611e-07
5.29222e-09
-1.89798e-07
4.35058e-09
-1.92249e-07
3.35307e-09
-1.93925e-07
2.30481e-09
-1.94796e-07
1.21214e-09
-1.94834e-07
8.32282e-11
-1.94021e-07
-1.07444e-09
-1.92342e-07
-2.25065e-09
-1.89793e-07
-3.43468e-09
-1.86377e-07
-4.61487e-09
-1.82107e-07
-5.77873e-09
-1.77005e-07
-6.91315e-09
-1.71103e-07
-8.00454e-09
-1.64442e-07
-9.03908e-09
-1.57075e-07
-1.00029e-08
-1.49065e-07
-1.08825e-08
-1.40481e-07
-1.16648e-08
-1.31405e-07
-1.23374e-08
-1.21924e-07
-1.28893e-08
-1.12135e-07
-1.33105e-08
-1.02138e-07
-1.35927e-08
-9.20399e-08
-1.37295e-08
-8.19496e-08
-1.37163e-08
-7.19782e-08
-1.35509e-08
-6.22365e-08
-1.32332e-08
-5.28336e-08
-1.27657e-08
-4.38751e-08
-1.21531e-08
-3.54611e-08
-1.14028e-08
-2.76845e-08
-1.05246e-08
-2.06291e-08
-9.53079e-09
-1.43679e-08
-8.43631e-09
-8.96068e-09
-7.25875e-09
-4.45222e-09
-6.01863e-09
-8.69652e-10
-4.73987e-09
1.7806e-09
-3.45057e-09
3.51659e-09
-2.1843e-09
4.38604e-09
-9.82105e-10
4.4732e-09
1.04509e-10
3.90814e-09
1.00938e-09
2.87862e-09
1.64639e-09
1.64379e-09
1.90368e-09
5.42935e-10
1.64524e-09
7.59885e-10
3.30251e-10
-1.07744e-09
4.78784e-10
-1.15513e-09
-1.12125e-10
1.22802e-10
-1.77687e-09
2.18126e-09
-4.69989e-09
4.642e-09
-8.95674e-09
7.2535e-09
-1.4546e-08
9.85053e-09
-2.14142e-08
1.23278e-08
-2.94742e-08
1.46214e-08
-3.86184e-08
1.66955e-08
-4.87286e-08
1.85331e-08
-5.96821e-08
2.01296e-08
-7.13566e-08
2.14887e-08
-8.36325e-08
2.26186e-08
-9.63949e-08
2.35304e-08
-1.09534e-07
2.42358e-08
-1.22946e-07
2.47467e-08
-1.36531e-07
2.5074e-08
-1.50196e-07
2.52273e-08
-1.6385e-07
2.52148e-08
-1.77406e-07
2.50427e-08
-1.9078e-07
2.47159e-08
-2.03888e-07
2.42376e-08
-2.16649e-07
2.361e-08
-2.28982e-07
2.2834e-08
-2.40807e-07
2.19103e-08
-2.52043e-07
2.08388e-08
-2.62612e-07
1.96199e-08
-2.72434e-07
1.82541e-08
-2.81431e-07
1.67428e-08
-2.89527e-07
1.50883e-08
-2.96647e-07
1.32944e-08
-3.02722e-07
1.13666e-08
-3.07683e-07
9.31219e-09
-3.11471e-07
7.14053e-09
-3.14029e-07
4.86319e-09
-3.15311e-07
2.49418e-09
-3.15278e-07
5.00312e-11
-3.13901e-07
-2.4511e-09
-3.11164e-07
-4.98822e-09
-3.0706e-07
-7.53837e-09
-3.01598e-07
-1.00767e-08
-2.948e-07
-1.25768e-08
-2.86703e-07
-1.50108e-08
-2.77357e-07
-1.73504e-08
-2.6683e-07
-1.95663e-08
-2.55203e-07
-2.16296e-08
-2.42573e-07
-2.35121e-08
-2.29052e-07
-2.51863e-08
-2.14762e-07
-2.66268e-08
-1.99841e-07
-2.78104e-08
-1.84435e-07
-2.87164e-08
-1.687e-07
-2.93277e-08
-1.52799e-07
-2.96311e-08
-1.36898e-07
-2.96172e-08
-1.21167e-07
-2.92815e-08
-1.05777e-07
-2.86241e-08
-9.08919e-08
-2.76504e-08
-7.66742e-08
-2.63708e-08
-6.3276e-08
-2.4801e-08
-5.08385e-08
-2.29621e-08
-3.94888e-08
-2.08806e-08
-2.93366e-08
-1.85885e-08
-2.04716e-08
-1.61237e-08
-1.296e-08
-1.35303e-08
-6.84048e-09
-1.08594e-08
-2.12036e-09
-8.17068e-09
1.2297e-09
-5.53436e-09
3.28186e-09
-3.03427e-09
4.1587e-09
-7.72326e-10
4.04235e-09
1.12573e-09
3.18501e-09
2.50373e-09
1.91956e-09
3.16914e-09
6.71458e-10
2.89334e-09
1.43134e-09
4.95241e-11
-1.12697e-09
-5.17888e-10
-5.87714e-10
-2.20556e-09
1.81048e-09
-5.32969e-09
5.30539e-09
-1.0068e-08
9.38033e-09
-1.64927e-08
1.36782e-08
-2.45964e-08
1.79543e-08
-3.43146e-08
2.2046e-08
-4.55431e-08
2.58499e-08
-5.81524e-08
2.93049e-08
-7.19981e-08
3.23787e-08
-8.69282e-08
3.50598e-08
-1.02789e-07
3.73496e-08
-1.19429e-07
3.92582e-08
-1.36699e-07
4.08007e-08
-1.54457e-07
4.19941e-08
-1.72567e-07
4.28561e-08
-1.90896e-07
4.34034e-08
-2.0932e-07
4.36506e-08
-2.27715e-07
4.36106e-08
-2.45966e-07
4.32936e-08
-2.63958e-07
4.27074e-08
-2.81578e-07
4.18575e-08
-2.98716e-07
4.07478e-08
-3.15262e-07
3.93807e-08
-3.31109e-07
3.77574e-08
-3.46149e-07
3.58791e-08
-3.60276e-07
3.37468e-08
-3.73385e-07
3.13626e-08
-3.85372e-07
2.87298e-08
-3.96137e-07
2.58533e-08
-4.05583e-07
2.27406e-08
-4.13619e-07
1.9402e-08
-4.20157e-07
1.58506e-08
-4.2512e-07
1.21032e-08
-4.28437e-07
8.18032e-09
-4.30049e-07
4.10614e-09
-4.29908e-07
-9.11349e-11
-4.27979e-07
-4.3798e-09
-4.24243e-07
-8.72432e-09
-4.18695e-07
-1.30857e-08
-4.1135e-07
-1.74221e-08
-4.02238e-07
-2.16889e-08
-3.91409e-07
-2.58395e-08
-3.78933e-07
-2.98262e-08
-3.64899e-07
-3.36004e-08
-3.49415e-07
-3.71138e-08
-3.32608e-07
-4.03192e-08
-3.14623e-07
-4.31712e-08
-2.95622e-07
-4.56275e-08
-2.75783e-07
-4.76494e-08
-2.55297e-07
-4.92031e-08
-2.34364e-07
-5.02601e-08
-2.13197e-07
-5.07983e-08
-1.92011e-07
-5.08028e-08
-1.71027e-07
-5.02659e-08
-1.50463e-07
-4.91884e-08
-1.30534e-07
-4.75794e-08
-1.11448e-07
-4.54565e-08
-9.34022e-08
-4.28467e-08
-7.65787e-08
-3.97855e-08
-6.11411e-08
-3.63181e-08
-4.72308e-08
-3.24988e-08
-3.49628e-08
-2.83917e-08
-2.44216e-08
-2.40715e-08
-1.56568e-08
-1.96242e-08
-8.67795e-09
-1.51495e-08
-3.44939e-09
-1.07629e-08
1.16327e-10
-6.59998e-09
2.1653e-09
-2.8213e-09
2.91009e-09
3.80931e-10
2.63841e-09
2.77541e-09
1.72263e-09
4.08492e-09
6.361e-10
3.97988e-09
2.06744e-09
-3.08986e-10
-8.1798e-10
-1.77326e-09
8.76554e-10
-4.78961e-09
4.82683e-09
-9.61508e-09
1.01309e-08
-1.63917e-08
1.6157e-08
-2.51683e-08
2.24547e-08
-3.59194e-08
2.87054e-08
-4.85639e-08
3.46905e-08
-6.29802e-08
4.02663e-08
-7.90192e-08
4.53438e-08
-9.65144e-08
4.9874e-08
-1.1529e-07
5.38355e-08
-1.35167e-07
5.72265e-08
-1.55966e-07
6.00574e-08
-1.77512e-07
6.23465e-08
-1.99634e-07
6.41158e-08
-2.22166e-07
6.53884e-08
-2.44949e-07
6.61866e-08
-2.67829e-07
6.65308e-08
-2.90657e-07
6.64385e-08
-3.13288e-07
6.59241e-08
-3.35579e-07
6.49988e-08
-3.57393e-07
6.36709e-08
-3.78591e-07
6.19464e-08
-3.9904e-07
5.98292e-08
-4.18605e-07
5.73221e-08
-4.37153e-07
5.44278e-08
-4.54555e-07
5.1149e-08
-4.70683e-07
4.74898e-08
-4.85409e-07
4.34565e-08
-4.98614e-07
3.90578e-08
-5.10179e-07
3.43062e-08
-5.19996e-07
2.92182e-08
-5.2796e-07
2.38148e-08
-5.33979e-07
1.8122e-08
-5.3797e-07
1.21715e-08
-5.39864e-07
6.00009e-09
-5.39605e-07
-3.4951e-10
-5.37156e-07
-6.82936e-09
-5.32494e-07
-1.33862e-08
-5.25618e-07
-1.99618e-08
-5.16546e-07
-2.64938e-08
-5.05319e-07
-3.2916e-08
-4.91999e-07
-3.91596e-08
-4.76672e-07
-4.51537e-08
-4.59445e-07
-5.0827e-08
-4.40451e-07
-5.61081e-08
-4.19842e-07
-6.09277e-08
-3.97794e-07
-6.52191e-08
-3.74502e-07
-6.89201e-08
-3.50177e-07
-7.19741e-08
-3.25049e-07
-7.43312e-08
-2.99359e-07
-7.595e-08
-2.73359e-07
-7.6798e-08
-2.47309e-07
-7.68532e-08
-2.2147e-07
-7.61049e-08
-1.96104e-07
-7.45543e-08
-1.71469e-07
-7.22148e-08
-1.47812e-07
-6.91131e-08
-1.2537e-07
-6.5289e-08
-1.0436e-07
-6.07957e-08
-8.49774e-08
-5.57003e-08
-6.73925e-08
-5.00837e-08
-5.17429e-08
-4.40413e-08
-3.81309e-08
-3.76835e-08
-2.66175e-08
-3.11376e-08
-1.72178e-08
-2.45492e-08
-9.89523e-09
-1.80854e-08
-4.55608e-09
-1.19391e-08
-1.0431e-09
-6.33427e-09
8.70762e-10
-1.53293e-09
1.48932e-09
2.15685e-09
1.20161e-09
4.37263e-09
4.96998e-10
4.68449e-09
2.56444e-09
-7.0274e-10
-1.15238e-10
-3.16293e-09
3.33674e-09
-7.64892e-09
9.31282e-09
-1.4334e-08
1.68159e-08
-2.33036e-08
2.51266e-08
-3.45666e-08
3.37177e-08
-4.80685e-08
4.22072e-08
-6.37044e-08
5.03264e-08
-8.13318e-08
5.78937e-08
-1.00782e-07
6.47936e-08
-1.21867e-07
7.09593e-08
-1.44391e-07
7.63596e-08
-1.68152e-07
8.09879e-08
-1.92949e-07
8.48545e-08
-2.18583e-07
8.79801e-08
-2.44858e-07
9.0391e-08
-2.71585e-07
9.21154e-08
-2.9858e-07
9.31812e-08
-3.25663e-07
9.36141e-08
-3.52661e-07
9.34364e-08
-3.79404e-07
9.26669e-08
-4.05725e-07
9.13203e-08
-4.31462e-07
8.9408e-08
-4.56454e-07
8.69382e-08
-4.80542e-07
8.39171e-08
-5.03569e-07
8.03495e-08
-5.25381e-07
7.62398e-08
-5.45826e-07
7.15934e-08
-5.64753e-07
6.64174e-08
-5.82019e-07
6.07218e-08
-5.97481e-07
5.45204e-08
-6.11007e-07
4.78318e-08
-6.22469e-07
4.06803e-08
-6.3175e-07
3.30963e-08
-6.38745e-07
2.51172e-08
-6.43361e-07
1.67874e-08
-6.4552e-07
8.15891e-09
-6.45161e-07
-7.08816e-10
-6.42241e-07
-9.74911e-09
-6.36739e-07
-1.88883e-08
-6.28655e-07
-2.80461e-08
-6.18012e-07
-3.71369e-08
-6.04858e-07
-4.60698e-08
-5.89267e-07
-5.47507e-08
-5.71337e-07
-6.30829e-08
-5.51196e-07
-7.09687e-08
-5.28993e-07
-7.83113e-08
-5.04904e-07
-8.5016e-08
-4.79131e-07
-9.09922e-08
-4.51896e-07
-9.61552e-08
-4.23442e-07
-1.00428e-07
-3.94031e-07
-1.03743e-07
-3.63937e-07
-1.06043e-07
-3.3345e-07
-1.07285e-07
-3.02864e-07
-1.07439e-07
-2.7248e-07
-1.06489e-07
-2.42596e-07
-1.04438e-07
-2.13508e-07
-1.01304e-07
-1.85498e-07
-9.71225e-08
-1.58838e-07
-9.19493e-08
-1.33777e-07
-8.58569e-08
-1.1054e-07
-7.8937e-08
-8.9323e-08
-7.13006e-08
-7.02864e-08
-6.30779e-08
-5.35502e-08
-5.44198e-08
-3.91891e-08
-4.54987e-08
-2.72273e-08
-3.6511e-08
-1.76333e-08
-2.76795e-08
-1.03146e-08
-1.92578e-08
-5.11292e-09
-1.1536e-08
-1.79882e-09
-4.84703e-09
-6.68069e-11
4.24835e-10
4.71193e-10
3.83463e-09
2.95849e-10
4.85983e-09
2.86029e-09
-1.10871e-09
9.93467e-10
-4.61223e-09
6.84026e-09
-1.06456e-08
1.53461e-08
-1.92855e-08
2.54559e-08
-3.05471e-08
3.63882e-08
-4.43873e-08
4.75579e-08
-6.07124e-08
5.85323e-08
-7.9387e-08
6.9001e-08
-1.00244e-07
7.87502e-08
-1.2309e-07
8.76405e-08
-1.47721e-07
9.55894e-08
-1.73917e-07
1.02556e-07
-2.01458e-07
1.08529e-07
-2.30123e-07
1.13519e-07
-2.59691e-07
1.17548e-07
-2.89946e-07
1.20647e-07
-3.20679e-07
1.22848e-07
-3.51682e-07
1.24184e-07
-3.82755e-07
1.24687e-07
-4.13702e-07
1.24384e-07
-4.44332e-07
1.23297e-07
-4.74456e-07
1.21445e-07
-5.0389e-07
1.18842e-07
-5.32452e-07
1.155e-07
-5.59961e-07
1.11427e-07
-5.86241e-07
1.06629e-07
-6.11117e-07
1.01115e-07
-6.34416e-07
9.48926e-08
-6.55971e-07
8.79725e-08
-6.75619e-07
8.03695e-08
-6.93202e-07
7.21036e-08
-7.08571e-07
6.32008e-08
-7.21585e-07
5.36944e-08
-7.32114e-07
4.36257e-08
-7.40042e-07
3.30451e-08
-7.45267e-07
2.20117e-08
-7.47702e-07
1.05944e-08
-7.47282e-07
-1.12851e-09
-7.43962e-07
-1.30694e-08
-7.37718e-07
-2.5132e-08
-7.28553e-07
-3.72116e-08
-7.16493e-07
-4.91966e-08
-7.01594e-07
-6.09693e-08
-6.83937e-07
-7.24075e-08
-6.63634e-07
-8.3386e-08
-6.40824e-07
-9.37786e-08
-6.15675e-07
-1.0346e-07
-5.88384e-07
-1.12308e-07
-5.59171e-07
-1.20205e-07
-5.28285e-07
-1.27042e-07
-4.95993e-07
-1.32719e-07
-4.62587e-07
-1.37149e-07
-4.28371e-07
-1.40259e-07
-3.93665e-07
-1.41991e-07
-3.58798e-07
-1.42307e-07
-3.24101e-07
-1.41186e-07
-2.89908e-07
-1.38631e-07
-2.56547e-07
-1.34665e-07
-2.24335e-07
-1.29335e-07
-1.93573e-07
-1.22711e-07
-1.64543e-07
-1.14888e-07
-1.37496e-07
-1.05984e-07
-1.12655e-07
-9.61418e-08
-9.0202e-08
-8.55308e-08
-7.02771e-08
-7.43446e-08
-5.29713e-08
-6.28045e-08
-3.83218e-08
-5.11604e-08
-2.63075e-08
-3.96938e-08
-1.68439e-08
-2.87214e-08
-9.77964e-09
-1.86002e-08
-4.89261e-09
-9.73406e-09
-1.88653e-09
-2.58125e-09
-3.87639e-10
2.33574e-09
5.98704e-11
4.41232e-09
2.92016e-09
-1.51454e-09
2.50801e-09
-6.07696e-09
1.14027e-08
-1.36923e-08
2.29615e-08
-2.43361e-08
3.60996e-08
-3.79449e-08
4.9997e-08
-5.44154e-08
6.40284e-08
-7.36073e-08
7.77242e-08
-9.53484e-08
9.07421e-08
-1.19441e-07
1.02843e-07
-1.4567e-07
1.13869e-07
-1.73805e-07
1.23725e-07
-2.0361e-07
1.32361e-07
-2.34845e-07
1.39764e-07
-2.67269e-07
1.45943e-07
-3.00643e-07
1.50923e-07
-3.34735e-07
1.54738e-07
-3.69314e-07
1.57426e-07
-4.04155e-07
1.59025e-07
-4.39039e-07
1.59571e-07
-4.73751e-07
1.59095e-07
-5.08079e-07
1.57625e-07
-5.41817e-07
1.55183e-07
-5.7476e-07
1.51785e-07
-6.06707e-07
1.47447e-07
-6.3746e-07
1.42179e-07
-6.66823e-07
1.35992e-07
-6.94603e-07
1.28895e-07
-7.2061e-07
1.209e-07
-7.44661e-07
1.12023e-07
-7.66576e-07
1.02284e-07
-7.86183e-07
9.17104e-08
-8.03318e-07
8.03359e-08
-8.17828e-07
6.82045e-08
-8.29572e-07
5.53696e-08
-8.38423e-07
4.18958e-08
-8.44269e-07
2.78586e-08
-8.4702e-07
1.33454e-08
-8.46604e-07
-1.54492e-09
-8.42971e-07
-1.67021e-08
-8.36098e-07
-3.20051e-08
-8.25987e-07
-4.7323e-08
-8.12667e-07
-6.25161e-08
-7.96199e-07
-7.74377e-08
-7.76671e-07
-9.19353e-08
-7.54204e-07
-1.05853e-07
-7.2895e-07
-1.19033e-07
-7.01089e-07
-1.31321e-07
-6.70833e-07
-1.42563e-07
-6.38424e-07
-1.52614e-07
-6.04129e-07
-1.61337e-07
-5.68239e-07
-1.68609e-07
-5.31069e-07
-1.74319e-07
-4.92951e-07
-1.78377e-07
-4.54233e-07
-1.8071e-07
-4.15271e-07
-1.81268e-07
-3.7643e-07
-1.80027e-07
-3.38073e-07
-1.76988e-07
-3.00559e-07
-1.72179e-07
-2.64236e-07
-1.65657e-07
-2.29437e-07
-1.5751e-07
-1.96472e-07
-1.47853e-07
-1.65621e-07
-1.36834e-07
-1.37132e-07
-1.24631e-07
-1.11212e-07
-1.1145e-07
-8.80232e-08
-9.75337e-08
-6.76752e-08
-8.31526e-08
-5.02226e-08
-6.86131e-08
-3.56594e-08
-5.4257e-08
-2.39153e-08
-4.04655e-08
-1.48526e-08
-2.76629e-08
-8.26373e-09
-1.6323e-08
-3.86982e-09
-6.97515e-09
-1.32041e-09
-2.13672e-10
-1.93705e-10
3.28562e-09
2.72645e-09
-1.91377e-09
4.42178e-09
-7.53137e-09
1.70203e-08
-1.67349e-08
3.2165e-08
-2.93982e-08
4.87629e-08
-4.53758e-08
6.59747e-08
-6.44989e-08
8.31515e-08
-8.6575e-08
9.98002e-08
-1.1139e-07
1.15558e-07
-1.38714e-07
1.30167e-07
-1.68303e-07
1.43458e-07
-1.99904e-07
1.55325e-07
-2.33259e-07
1.65717e-07
-2.68111e-07
1.74616e-07
-3.04201e-07
1.82033e-07
-3.41274e-07
1.87996e-07
-3.79079e-07
1.92543e-07
-4.1737e-07
1.95717e-07
-4.55906e-07
1.97561e-07
-4.9445e-07
1.98115e-07
-5.32772e-07
1.97416e-07
-5.70641e-07
1.95495e-07
-6.07836e-07
1.92377e-07
-6.44134e-07
1.88083e-07
-6.79318e-07
1.82631e-07
-7.13172e-07
1.76033e-07
-7.45484e-07
1.68304e-07
-7.76045e-07
1.59457e-07
-8.04652e-07
1.49507e-07
-8.31104e-07
1.38475e-07
-8.55207e-07
1.26388e-07
-8.76777e-07
1.1328e-07
-8.95637e-07
9.91957e-08
-9.11621e-07
8.41891e-08
-9.24579e-07
6.83274e-08
-9.34374e-07
5.16902e-08
-9.40886e-07
3.43708e-08
-9.44017e-07
1.64764e-08
-9.43689e-07
-1.87222e-09
-9.39851e-07
-2.05405e-08
-9.32475e-07
-3.93813e-08
-9.21562e-07
-5.82356e-08
-9.07144e-07
-7.69342e-08
-8.89283e-07
-9.5299e-08
-8.68072e-07
-1.13146e-07
-8.4364e-07
-1.30285e-07
-8.16145e-07
-1.46528e-07
-7.85781e-07
-1.61685e-07
-7.52772e-07
-1.75572e-07
-7.17375e-07
-1.88011e-07
-6.79873e-07
-1.98839e-07
-6.4058e-07
-2.07902e-07
-5.9983e-07
-2.15069e-07
-5.5798e-07
-2.20227e-07
-5.15402e-07
-2.23287e-07
-4.72481e-07
-2.24189e-07
-4.29609e-07
-2.22899e-07
-3.87178e-07
-2.19418e-07
-3.45579e-07
-2.13778e-07
-3.05189e-07
-2.06047e-07
-2.66371e-07
-1.96328e-07
-2.29465e-07
-1.8476e-07
-1.9478e-07
-1.71519e-07
-1.62593e-07
-1.56818e-07
-1.33136e-07
-1.40907e-07
-1.06596e-07
-1.24074e-07
-8.31044e-08
-1.06644e-07
-6.27383e-08
-8.89792e-08
-4.55112e-08
-7.14842e-08
-3.13717e-08
-5.46049e-08
-2.02013e-08
-3.88333e-08
-1.18127e-08
-2.47115e-08
-5.95037e-09
-1.28375e-08
-2.2923e-09
-3.87175e-09
-4.54499e-10
1.44782e-09
2.27195e-09
-2.30317e-09
6.72496e-09
-8.96064e-09
2.36777e-08
-1.97393e-08
4.29437e-08
-3.44142e-08
6.34378e-08
-5.27568e-08
8.43173e-08
-7.45298e-08
1.04925e-07
-9.94853e-08
1.24756e-07
-1.27365e-07
1.43437e-07
-1.579e-07
1.60703e-07
-1.90818e-07
1.76376e-07
-2.25842e-07
1.90349e-07
-2.62691e-07
2.02566e-07
-3.0109e-07
2.13014e-07
-3.40762e-07
2.21705e-07
-3.81437e-07
2.28671e-07
-4.22849e-07
2.33956e-07
-4.64738e-07
2.37606e-07
-5.06846e-07
2.3967e-07
-5.48924e-07
2.40193e-07
-5.90725e-07
2.39217e-07
-6.32006e-07
2.36776e-07
-6.72528e-07
2.32899e-07
-7.12056e-07
2.27611e-07
-7.50357e-07
2.20932e-07
-7.872e-07
2.12877e-07
-8.22361e-07
2.03464e-07
-8.55614e-07
1.9271e-07
-8.86744e-07
1.80636e-07
-9.15535e-07
1.67266e-07
-9.41782e-07
1.52635e-07
-9.65287e-07
1.36785e-07
-9.85862e-07
1.19771e-07
-1.00333e-06
1.01658e-07
-1.01753e-06
8.25286e-08
-1.02832e-06
6.24778e-08
-1.03557e-06
4.16175e-08
-1.03917e-06
2.00758e-08
-1.03903e-06
-2.00336e-09
-1.03512e-06
-2.44602e-08
-1.02738e-06
-4.712e-08
-1.01582e-06
-6.97945e-08
-1.00047e-06
-9.22832e-08
-9.81392e-07
-1.14376e-07
-9.58685e-07
-1.35853e-07
-9.32477e-07
-1.56493e-07
-9.02935e-07
-1.7607e-07
-8.7026e-07
-1.9436e-07
-8.34686e-07
-2.11145e-07
-7.96482e-07
-2.26215e-07
-7.55947e-07
-2.39374e-07
-7.1341e-07
-2.50439e-07
-6.69226e-07
-2.59254e-07
-6.23772e-07
-2.65681e-07
-5.77444e-07
-2.69615e-07
-5.30653e-07
-2.7098e-07
-4.83818e-07
-2.69735e-07
-4.3736e-07
-2.65876e-07
-3.91698e-07
-2.5944e-07
-3.47241e-07
-2.50504e-07
-3.04384e-07
-2.39185e-07
-2.63496e-07
-2.25647e-07
-2.24919e-07
-2.10096e-07
-1.88957e-07
-1.9278e-07
-1.55873e-07
-1.73991e-07
-1.25881e-07
-1.54067e-07
-9.91393e-08
-1.33385e-07
-7.57498e-08
-1.12369e-07
-5.57502e-08
-9.14837e-08
-3.91129e-08
-7.12422e-08
-2.57428e-08
-5.22034e-08
-1.54772e-08
-3.49771e-08
-8.08749e-09
-2.02272e-08
-3.28271e-09
-8.67653e-09
-7.1674e-10
-1.11815e-09
1.55522e-09
-2.68124e-09
9.4062e-09
-1.03563e-08
3.13528e-08
-2.26848e-08
5.52722e-08
-3.93464e-08
8.00994e-08
-6.00307e-08
1.05002e-07
-8.44313e-08
1.29325e-07
-1.12243e-07
1.52567e-07
-1.43159e-07
1.74353e-07
-1.76873e-07
1.94417e-07
-2.13081e-07
2.12583e-07
-2.51477e-07
2.28745e-07
-2.91762e-07
2.42851e-07
-3.33639e-07
2.5489e-07
-3.76815e-07
2.64882e-07
-4.21006e-07
2.72862e-07
-4.65931e-07
2.7888e-07
-5.11315e-07
2.8299e-07
-5.56891e-07
2.85245e-07
-6.02394e-07
2.85696e-07
-6.47565e-07
2.84388e-07
-6.92148e-07
2.8136e-07
-7.35893e-07
2.76644e-07
-7.78551e-07
2.70269e-07
-8.19876e-07
2.62256e-07
-8.59625e-07
2.52627e-07
-8.9756e-07
2.41399e-07
-9.33445e-07
2.28595e-07
-9.67049e-07
2.1424e-07
-9.98148e-07
1.98365e-07
-1.02652e-06
1.8101e-07
-1.05197e-06
1.62227e-07
-1.07428e-06
1.42081e-07
-1.09327e-06
1.2065e-07
-1.10877e-06
9.80303e-08
-1.12063e-06
7.4334e-08
-1.1287e-06
4.96924e-08
-1.13288e-06
2.42548e-08
-1.13307e-06
-1.81094e-09
-1.12921e-06
-2.83188e-08
-1.12127e-06
-5.50657e-08
-1.10923e-06
-8.18328e-08
-1.09312e-06
-1.08387e-07
-1.07302e-06
-1.34485e-07
-1.049e-06
-1.59872e-07
-1.0212e-06
-1.84289e-07
-9.89797e-07
-2.07474e-07
-9.54991e-07
-2.29166e-07
-9.17025e-07
-2.49111e-07
-8.76177e-07
-2.67064e-07
-8.32757e-07
-2.82793e-07
-7.8711e-07
-2.96087e-07
-7.39607e-07
-3.06757e-07
-6.90646e-07
-3.14643e-07
-6.40644e-07
-3.19617e-07
-5.90036e-07
-3.21587e-07
-5.39268e-07
-3.20503e-07
-4.88791e-07
-3.16354e-07
-4.39052e-07
-3.09179e-07
-3.90495e-07
-2.99061e-07
-3.43543e-07
-2.86137e-07
-2.98602e-07
-2.70589e-07
-2.56044e-07
-2.52653e-07
-2.16208e-07
-2.32615e-07
-1.79389e-07
-2.10811e-07
-1.4583e-07
-1.87626e-07
-1.15722e-07
-1.63493e-07
-8.91958e-08
-1.38895e-07
-6.63165e-08
-1.14363e-07
-4.70843e-08
-9.04744e-08
-3.14315e-08
-6.78562e-08
-1.92231e-08
-4.71855e-08
-1.02595e-08
-2.91909e-08
-4.28119e-09
-1.46548e-08
-9.77742e-10
-4.42159e-09
5.77473e-10
-3.04731e-09
1.24535e-08
-1.17137e-08
4.00192e-08
-2.55581e-08
6.91167e-08
-4.41696e-08
9.87109e-08
-6.71578e-08
1.2799e-07
-9.41475e-08
1.56315e-07
-1.24775e-07
1.83195e-07
-1.58686e-07
2.08264e-07
-1.95534e-07
2.31265e-07
-2.34981e-07
2.5203e-07
-2.76695e-07
2.70459e-07
-3.20352e-07
2.86509e-07
-3.65638e-07
3.00176e-07
-4.12243e-07
3.11487e-07
-4.59867e-07
3.20486e-07
-5.08218e-07
3.27231e-07
-5.57008e-07
3.3178e-07
-6.05957e-07
3.34195e-07
-6.54791e-07
3.3453e-07
-7.03239e-07
3.32836e-07
-7.51036e-07
3.29156e-07
-7.97918e-07
3.23526e-07
-8.43626e-07
3.15977e-07
-8.87904e-07
3.06534e-07
-9.30498e-07
2.95221e-07
-9.71158e-07
2.8206e-07
-1.00964e-06
2.67075e-07
-1.0457e-06
2.50298e-07
-1.0791e-06
2.31765e-07
-1.10961e-06
2.11523e-07
-1.13702e-06
1.89634e-07
-1.16111e-06
1.66172e-07
-1.18168e-06
1.41229e-07
-1.19857e-06
1.14914e-07
-1.21159e-06
8.73583e-08
-1.22061e-06
5.87117e-08
-1.2255e-06
2.91455e-08
-1.22617e-06
-1.14815e-09
-1.22253e-06
-3.19565e-08
-1.21455e-06
-6.30475e-08
-1.20221e-06
-9.4171e-08
-1.18553e-06
-1.25061e-07
-1.16458e-06
-1.55438e-07
-1.13944e-06
-1.85011e-07
-1.11025e-06
-2.13485e-07
-1.07716e-06
-2.40557e-07
-1.0404e-06
-2.65929e-07
-1.00021e-06
-2.89307e-07
-9.56862e-07
-3.10407e-07
-9.10691e-07
-3.28964e-07
-8.62048e-07
-3.4473e-07
-8.1132e-07
-3.57485e-07
-7.58923e-07
-3.6704e-07
-7.05295e-07
-3.73245e-07
-6.50895e-07
-3.75987e-07
-5.96195e-07
-3.75202e-07
-5.41676e-07
-3.70873e-07
-4.87817e-07
-3.63037e-07
-4.35093e-07
-3.51785e-07
-3.83964e-07
-3.37266e-07
-3.34869e-07
-3.19684e-07
-2.88219e-07
-2.99304e-07
-2.44387e-07
-2.76448e-07
-2.03704e-07
-2.51495e-07
-1.66449e-07
-2.2488e-07
-1.32848e-07
-1.97094e-07
-1.03062e-07
-1.6868e-07
-7.7192e-08
-1.40233e-07
-5.52673e-08
-1.12399e-07
-3.7251e-08
-8.58726e-08
-2.30379e-08
-6.13986e-08
-1.24586e-08
-3.97702e-08
-5.28444e-09
-2.18289e-08
-1.23689e-09
-8.46914e-09
-6.59418e-10
-3.40113e-09
1.58546e-08
-1.30297e-08
4.96477e-08
-2.83506e-08
8.44376e-08
-4.88662e-08
1.19227e-07
-7.41092e-08
1.53233e-07
-1.03637e-07
1.85843e-07
-1.37028e-07
2.16586e-07
-1.7388e-07
2.45115e-07
-2.13805e-07
2.7119e-07
-2.5643e-07
2.94656e-07
-3.01397e-07
3.15426e-07
-3.48359e-07
3.33471e-07
-3.96981e-07
3.48798e-07
-4.46938e-07
3.61444e-07
-4.97917e-07
3.71465e-07
-5.49611e-07
3.78925e-07
-6.01723e-07
3.83892e-07
-6.53962e-07
3.86434e-07
-7.06044e-07
3.86612e-07
-7.57689e-07
3.84481e-07
-8.08623e-07
3.80089e-07
-8.58572e-07
3.73476e-07
-9.07269e-07
3.64674e-07
-9.54447e-07
3.53713e-07
-9.99844e-07
3.40618e-07
-1.0432e-06
3.25416e-07
-1.08426e-06
3.08134e-07
-1.12277e-06
2.88809e-07
-1.15849e-06
2.67482e-07
-1.19117e-06
2.44208e-07
-1.22059e-06
2.19056e-07
-1.24653e-06
1.92112e-07
-1.26878e-06
1.63479e-07
-1.28715e-06
1.33284e-07
-1.30147e-06
1.01671e-07
-1.31157e-06
6.88124e-08
-1.31732e-06
3.48998e-08
-1.31862e-06
1.50313e-10
-1.31538e-06
-3.51965e-08
-1.30755e-06
-7.08792e-08
-1.2951e-06
-1.06616e-07
-1.27806e-06
-1.42106e-07
-1.25646e-06
-1.77035e-07
-1.2304e-06
-2.11075e-07
-1.19999e-06
-2.43888e-07
-1.16542e-06
-2.75134e-07
-1.12687e-06
-3.04474e-07
-1.08461e-06
-3.31571e-07
-1.03891e-06
-3.56103e-07
-9.90111e-07
-3.77763e-07
-9.38574e-07
-3.96267e-07
-8.84699e-07
-4.11359e-07
-8.2892e-07
-4.2282e-07
-7.71695e-07
-4.3047e-07
-7.13506e-07
-4.34176e-07
-6.54853e-07
-4.33855e-07
-5.96245e-07
-4.29481e-07
-5.38196e-07
-4.21086e-07
-4.81215e-07
-4.08767e-07
-4.25799e-07
-3.92681e-07
-3.72428e-07
-3.73056e-07
-3.21549e-07
-3.50182e-07
-2.73577e-07
-3.24419e-07
-2.28883e-07
-2.96189e-07
-1.87787e-07
-2.65977e-07
-1.5055e-07
-2.34331e-07
-1.17373e-07
-2.01857e-07
-8.83922e-08
-1.69215e-07
-6.36715e-08
-1.3712e-07
-4.3207e-08
-1.06337e-07
-2.69253e-08
-7.76803e-08
-1.46875e-08
-5.20081e-08
-6.29421e-09
-3.02222e-08
-1.495e-09
-1.32683e-08
-2.15442e-09
-3.74255e-09
1.95972e-08
-1.43024e-08
6.02076e-08
-3.10559e-08
1.01191e-07
-5.34233e-08
1.41594e-07
-8.0863e-08
1.80672e-07
-1.12867e-07
2.17847e-07
-1.48958e-07
2.52677e-07
-1.88684e-07
2.84841e-07
-2.31618e-07
3.14124e-07
-2.77352e-07
3.4039e-07
-3.255e-07
3.63574e-07
-3.75692e-07
3.83663e-07
-4.27574e-07
4.00679e-07
-4.80805e-07
4.14675e-07
-5.35058e-07
4.25718e-07
-5.90015e-07
4.33882e-07
-6.45369e-07
4.39246e-07
-7.0082e-07
4.41885e-07
-7.56075e-07
4.41867e-07
-8.10847e-07
4.39253e-07
-8.64852e-07
4.34094e-07
-9.17811e-07
4.26434e-07
-9.69447e-07
4.1631e-07
-1.01949e-06
4.03753e-07
-1.06766e-06
3.88792e-07
-1.1137e-06
3.71455e-07
-1.15734e-06
3.51775e-07
-1.19832e-06
3.2979e-07
-1.23639e-06
3.0555e-07
-1.2713e-06
2.79114e-07
-1.3028e-06
2.50562e-07
-1.33068e-06
2.19988e-07
-1.35471e-06
1.87508e-07
-1.37469e-06
1.53262e-07
-1.39043e-06
1.17413e-07
-1.40177e-06
8.01499e-08
-1.40855e-06
4.16876e-08
-1.41067e-06
2.26698e-09
-1.40802e-06
-3.78457e-08
-1.40054e-06
-7.83594e-08
-1.3882e-06
-1.1896e-07
-1.37099e-06
-1.59314e-07
-1.34896e-06
-1.99068e-07
-1.32218e-06
-2.37855e-07
-1.29077e-06
-2.75299e-07
-1.25488e-06
-3.11017e-07
-1.21473e-06
-3.44624e-07
-1.17056e-06
-3.75744e-07
-1.12265e-06
-4.04009e-07
-1.07135e-06
-4.2907e-07
-1.01701e-06
-4.50601e-07
-9.60063e-07
-4.68309e-07
-9.00945e-07
-4.81938e-07
-8.40139e-07
-4.91277e-07
-7.78149e-07
-4.96165e-07
-7.15503e-07
-4.96501e-07
-6.52742e-07
-4.92242e-07
-5.90414e-07
-4.83415e-07
-5.29065e-07
-4.70116e-07
-4.69233e-07
-4.52513e-07
-4.11439e-07
-4.3085e-07
-3.56175e-07
-4.05446e-07
-3.03901e-07
-3.76694e-07
-2.5503e-07
-3.45059e-07
-2.09927e-07
-3.1108e-07
-1.68897e-07
-2.75361e-07
-1.32183e-07
-2.38571e-07
-9.99588e-08
-2.01439e-07
-7.23283e-08
-1.6475e-07
-4.93225e-08
-1.29343e-07
-3.09013e-08
-9.61015e-08
-1.69562e-08
-6.59532e-08
-7.31584e-09
-3.98626e-08
-1.75384e-09
-1.88303e-08
-3.90826e-09
-4.07143e-09
2.36686e-08
-1.55303e-08
7.16664e-08
-3.36691e-08
1.1933e-07
-5.78301e-08
1.65755e-07
-8.74012e-08
2.10244e-07
-1.21812e-07
2.52257e-07
-1.60528e-07
2.91393e-07
-2.03052e-07
3.27366e-07
-2.48916e-07
3.59988e-07
-2.9768e-07
3.89154e-07
-3.48929e-07
4.14823e-07
-4.0227e-07
4.37004e-07
-4.5733e-07
4.55739e-07
-5.13753e-07
4.71098e-07
-5.71198e-07
4.83163e-07
-6.29338e-07
4.92022e-07
-6.87856e-07
4.97764e-07
-7.46443e-07
5.00473e-07
-8.04801e-07
5.00225e-07
-8.62634e-07
4.97086e-07
-9.19653e-07
4.91113e-07
-9.75573e-07
4.82354e-07
-1.03011e-06
4.70848e-07
-1.08299e-06
4.56629e-07
-1.13392e-06
4.39728e-07
-1.18264e-06
4.20177e-07
-1.22888e-06
3.98011e-07
-1.27236e-06
3.73274e-07
-1.31283e-06
3.46017e-07
-1.35003e-06
3.1631e-07
-1.3837e-06
2.84237e-07
-1.41362e-06
2.49903e-07
-1.43954e-06
2.13436e-07
-1.46127e-06
1.74988e-07
-1.4786e-06
1.34739e-07
-1.49134e-06
9.2896e-08
-1.49935e-06
4.9695e-08
-1.50248e-06
5.40041e-09
-1.50063e-06
-3.9695e-08
-1.49372e-06
-8.52711e-08
-1.4817e-06
-1.30982e-07
-1.46456e-06
-1.76459e-07
-1.44231e-06
-2.21311e-07
-1.41503e-06
-2.65134e-07
-1.38283e-06
-3.07506e-07
-1.34584e-06
-3.48003e-07
-1.30427e-06
-3.86195e-07
-1.25836e-06
-4.21658e-07
-1.20839e-06
-4.53978e-07
-1.1547e-06
-4.82761e-07
-1.09766e-06
-5.07635e-07
-1.03771e-06
-5.28264e-07
-9.7529e-07
-5.44353e-07
-9.10913e-07
-5.55654e-07
-8.45103e-07
-5.61975e-07
-7.78415e-07
-5.63189e-07
-7.11423e-07
-5.59234e-07
-6.44711e-07
-5.50127e-07
-5.78866e-07
-5.3596e-07
-5.14471e-07
-5.16908e-07
-4.5209e-07
-4.9323e-07
-3.92266e-07
-4.6527e-07
-3.35506e-07
-4.33454e-07
-2.82273e-07
-3.98292e-07
-2.32981e-07
-3.60372e-07
-1.87983e-07
-3.20359e-07
-1.47568e-07
-2.78986e-07
-1.11954e-07
-2.37052e-07
-8.1286e-08
-1.95418e-07
-5.56335e-08
-1.54995e-07
-3.49909e-08
-1.16744e-07
-1.92805e-08
-8.16635e-08
-8.35727e-09
-5.07858e-08
-2.01579e-09
-2.51718e-08
-5.92406e-09
-4.38753e-09
2.80562e-08
-1.67116e-08
8.39905e-08
-3.61854e-08
1.38804e-07
-6.20774e-08
1.91647e-07
-9.37079e-08
2.41874e-07
-1.30446e-07
2.88995e-07
-1.71705e-07
3.32653e-07
-2.16942e-07
3.72602e-07
-2.65649e-07
4.08695e-07
-3.17354e-07
4.40859e-07
-3.71614e-07
4.69084e-07
-4.28015e-07
4.93404e-07
-4.86165e-07
5.13889e-07
-5.45692e-07
5.30626e-07
-6.06245e-07
5.43716e-07
-6.67485e-07
5.53262e-07
-7.29088e-07
5.59367e-07
-7.90737e-07
5.62123e-07
-8.52129e-07
5.61616e-07
-9.12961e-07
5.57919e-07
-9.72941e-07
5.51093e-07
-1.03178e-06
5.4119e-07
-1.08918e-06
5.28253e-07
-1.14487e-06
5.12318e-07
-1.19856e-06
4.93419e-07
-1.24998e-06
4.7159e-07
-1.29884e-06
4.46868e-07
-1.34486e-06
4.19301e-07
-1.38779e-06
3.88945e-07
-1.42735e-06
3.55873e-07
-1.46329e-06
3.20178e-07
-1.49536e-06
2.81973e-07
-1.52332e-06
2.41396e-07
-1.54695e-06
1.98613e-07
-1.56603e-06
1.53819e-07
-1.58037e-06
1.07236e-07
-1.5898e-06
5.9122e-08
-1.59416e-06
9.76343e-09
-1.59333e-06
-4.05211e-08
-1.58722e-06
-9.1383e-08
-1.57576e-06
-1.42445e-07
-1.55892e-06
-1.93302e-07
-1.5367e-06
-2.43529e-07
-1.50916e-06
-2.92677e-07
-1.47638e-06
-3.40284e-07
-1.4385e-06