/*--------------------------------*- C++ -*----------------------------------*\
  =========                 |
  \\      /  F ield         | OpenFOAM: The Open Source CFD Toolbox
   \\    /   O peration     | Website:  https://openfoam.org
    \\  /    A nd           | Version:  12
     \\/     M anipulation  |
\*---------------------------------------------------------------------------*/
FoamFile
{
    format      ascii;
    class       volScalarField;
    location    "2";
    object      k;
}
// * * * * * * * * * * * * * * * * * * * * * * * * * * * * * * * * * * * * * //

dimensions      [0 2 -2 0 0 0 0];

internalField   nonuniform List<scalar> 
18225
(
8.16646e-10
4.08118e-09
8.93218e-09
1.47587e-08
2.12889e-08
2.83628e-08
3.58676e-08
4.37157e-08
5.18359e-08
6.01684e-08
6.8663e-08
7.72764e-08
8.59721e-08
9.47192e-08
1.03492e-07
1.1227e-07
1.21037e-07
1.29779e-07
1.3849e-07
1.47162e-07
1.55794e-07
1.64385e-07
1.72939e-07
1.81461e-07
1.89955e-07
1.9843e-07
2.06893e-07
2.15354e-07
2.2382e-07
2.32302e-07
2.40806e-07
2.49341e-07
2.57912e-07
2.66527e-07
2.75188e-07
2.83898e-07
2.9266e-07
3.01473e-07
3.10336e-07
3.19244e-07
3.28194e-07
3.3718e-07
3.46192e-07
3.55222e-07
3.6426e-07
3.73291e-07
3.82303e-07
3.91281e-07
4.00206e-07
4.09062e-07
4.17829e-07
4.26485e-07
4.35009e-07
4.43377e-07
4.51564e-07
4.59543e-07
4.67288e-07
4.74771e-07
4.81961e-07
4.88829e-07
4.95344e-07
5.01474e-07
5.07186e-07
5.12449e-07
5.1723e-07
5.21496e-07
5.25216e-07
5.28356e-07
5.30892e-07
5.32791e-07
5.34019e-07
5.34553e-07
5.34393e-07
5.33507e-07
5.31873e-07
5.29477e-07
5.26309e-07
5.22362e-07
5.17634e-07
5.12128e-07
5.05851e-07
4.98815e-07
4.91038e-07
4.82539e-07
4.73347e-07
4.63491e-07
4.53007e-07
4.41934e-07
4.30317e-07
4.18203e-07
4.05641e-07
3.92684e-07
3.79389e-07
3.6581e-07
3.52007e-07
3.38036e-07
3.23957e-07
3.09825e-07
2.95697e-07
2.81627e-07
2.67667e-07
2.53864e-07
2.40264e-07
2.26911e-07
2.1384e-07
2.01088e-07
1.88683e-07
1.76652e-07
1.65015e-07
1.53789e-07
1.42989e-07
1.32621e-07
1.22692e-07
1.13204e-07
1.04155e-07
9.55383e-08
8.73477e-08
7.95732e-08
7.22028e-08
6.52231e-08
5.86196e-08
5.23767e-08
4.64791e-08
4.09111e-08
3.56585e-08
3.07082e-08
2.60495e-08
2.16749e-08
1.75817e-08
1.37732e-08
1.02622e-08
7.07594e-09
4.2671e-09
1.94586e-09
3.89186e-10
4.08353e-09
3.51349e-08
7.93932e-08
1.32089e-07
1.91006e-07
2.54769e-07
3.22384e-07
3.93074e-07
4.66201e-07
5.41231e-07
6.17708e-07
6.95247e-07
7.7352e-07
8.5225e-07
9.31208e-07
1.01021e-06
1.0891e-06
1.16777e-06
1.24615e-06
1.32418e-06
1.40184e-06
1.47915e-06
1.55611e-06
1.63277e-06
1.70919e-06
1.78544e-06
1.86158e-06
1.93769e-06
2.01386e-06
2.09017e-06
2.16668e-06
2.24346e-06
2.32058e-06
2.39808e-06
2.476e-06
2.55437e-06
2.6332e-06
2.7125e-06
2.79224e-06
2.87239e-06
2.95293e-06
3.03378e-06
3.11487e-06
3.19613e-06
3.27745e-06
3.35873e-06
3.43982e-06
3.52061e-06
3.60094e-06
3.68064e-06
3.75953e-06
3.83744e-06
3.91416e-06
3.98947e-06
4.06315e-06
4.13498e-06
4.2047e-06
4.27205e-06
4.33678e-06
4.39861e-06
4.45726e-06
4.51245e-06
4.56389e-06
4.61128e-06
4.65434e-06
4.69277e-06
4.72627e-06
4.75457e-06
4.77736e-06
4.79439e-06
4.80537e-06
4.81009e-06
4.8086e-06
4.80055e-06
4.78578e-06
4.76414e-06
4.73556e-06
4.69997e-06
4.65736e-06
4.60774e-06
4.5512e-06
4.48783e-06
4.41778e-06
4.34126e-06
4.25849e-06
4.16976e-06
4.07538e-06
3.97572e-06
3.87116e-06
3.76212e-06
3.64907e-06
3.53247e-06
3.41283e-06
3.29065e-06
3.16644e-06
3.04074e-06
2.91406e-06
2.78692e-06
2.65981e-06
2.53323e-06
2.40763e-06
2.28345e-06
2.16111e-06
2.04097e-06
1.92339e-06
1.80867e-06
1.69708e-06
1.58885e-06
1.48417e-06
1.38319e-06
1.28603e-06
1.19277e-06
1.10346e-06
1.0181e-06
9.36681e-07
8.59164e-07
7.8548e-07
7.15541e-07
6.49241e-07
5.86458e-07
5.27059e-07
4.70906e-07
4.17859e-07
3.67777e-07
3.20531e-07
2.76002e-07
2.34094e-07
1.94738e-07
1.57906e-07
1.23627e-07
9.20104e-08
6.3289e-08
3.79063e-08
1.67437e-08
1.94509e-09
8.95844e-09
7.95759e-08
1.81345e-07
3.02982e-07
4.39131e-07
5.86514e-07
7.42796e-07
9.06169e-07
1.07516e-06
1.24852e-06
1.42522e-06
1.60435e-06
1.78517e-06
1.96703e-06
2.1494e-06
2.33185e-06
2.51405e-06
2.69573e-06
2.87672e-06
3.05691e-06
3.23624e-06
3.41473e-06
3.59244e-06
3.76946e-06
3.94592e-06
4.12198e-06
4.2978e-06
4.47358e-06
4.64949e-06
4.82572e-06
5.00244e-06
5.1798e-06
5.35795e-06
5.537e-06
5.71704e-06
5.89812e-06
6.08028e-06
6.26351e-06
6.44778e-06
6.63302e-06
6.81913e-06
7.00598e-06
7.19339e-06
7.38118e-06
7.5691e-06
7.7569e-06
7.9443e-06
8.13095e-06
8.31653e-06
8.50063e-06
8.68287e-06
8.86279e-06
9.03993e-06
9.2138e-06
9.38389e-06
9.54964e-06
9.71049e-06
9.86586e-06
1.00151e-05
1.01577e-05
1.02928e-05
1.04199e-05
1.05384e-05
1.06474e-05
1.07464e-05
1.08347e-05
1.09116e-05
1.09764e-05
1.10286e-05
1.10675e-05
1.10925e-05
1.11028e-05
1.1099e-05
1.108e-05
1.10455e-05
1.09951e-05
1.09286e-05
1.0846e-05
1.07472e-05
1.06323e-05
1.05013e-05
1.03547e-05
1.01926e-05
1.00156e-05
9.8242e-06
9.61907e-06
9.40093e-06
9.17062e-06
8.92903e-06
8.67714e-06
8.41602e-06
8.14674e-06
7.87045e-06
7.58834e-06
7.3016e-06
7.01142e-06
6.71902e-06
6.42558e-06
6.13224e-06
5.84014e-06
5.55034e-06
5.26384e-06
4.9816e-06
4.70448e-06
4.43327e-06
4.16867e-06
3.9113e-06
3.6617e-06
3.42031e-06
3.18746e-06
2.96345e-06
2.74843e-06
2.54253e-06
2.34576e-06
2.15809e-06
1.97942e-06
1.8096e-06
1.6484e-06
1.4956e-06
1.3509e-06
1.214e-06
1.08459e-06
9.62325e-07
8.46896e-07
7.37996e-07
6.35354e-07
5.38743e-07
4.48006e-07
3.63078e-07
2.84026e-07
2.11108e-07
1.4488e-07
8.64106e-08
3.78466e-08
4.25847e-09
1.48639e-08
1.3294e-07
3.04229e-07
5.09724e-07
7.40149e-07
9.89784e-07
1.25458e-06
1.53142e-06
1.81778e-06
2.11155e-06
2.41094e-06
2.71444e-06
3.02076e-06
3.32882e-06
3.63773e-06
3.94675e-06
4.25532e-06
4.56299e-06
4.86948e-06
5.17459e-06
5.47825e-06
5.78048e-06
6.08138e-06
6.38112e-06
6.67993e-06
6.97807e-06
7.27583e-06
7.57353e-06
7.87149e-06
8.17002e-06
8.4694e-06
8.76991e-06
9.07178e-06
9.3752e-06
9.68031e-06
9.98723e-06
1.0296e-05
1.06066e-05
1.09189e-05
1.12329e-05
1.15484e-05
1.18651e-05
1.21828e-05
1.25011e-05
1.28195e-05
1.31378e-05
1.34553e-05
1.37715e-05
1.40858e-05
1.43975e-05
1.47061e-05
1.50106e-05
1.53104e-05
1.56045e-05
1.58922e-05
1.61724e-05
1.64443e-05
1.67067e-05
1.69588e-05
1.71994e-05
1.74274e-05
1.76418e-05
1.78413e-05
1.80249e-05
1.81915e-05
1.83398e-05
1.84689e-05
1.85775e-05
1.86647e-05
1.87294e-05
1.87703e-05
1.87866e-05
1.8779e-05
1.87457e-05
1.86861e-05
1.85997e-05
1.84862e-05
1.83453e-05
1.8177e-05
1.79814e-05
1.77588e-05
1.75096e-05
1.72344e-05
1.69339e-05
1.66092e-05
1.62613e-05
1.58914e-05
1.5501e-05
1.50915e-05
1.46647e-05
1.42223e-05
1.37662e-05
1.32983e-05
1.28207e-05
1.23352e-05
1.18441e-05
1.13492e-05
1.08527e-05
1.03564e-05
9.86232e-06
9.37218e-06
8.88771e-06
8.4105e-06
7.94201e-06
7.48359e-06
7.0364e-06
6.60151e-06
6.17979e-06
5.77198e-06
5.37868e-06
5.00033e-06
4.63723e-06
4.28955e-06
3.95734e-06
3.64053e-06
3.33893e-06
3.05228e-06
2.78022e-06
2.52233e-06
2.27814e-06
2.04711e-06
1.82871e-06
1.62239e-06
1.4276e-06
1.24381e-06
1.07058e-06
9.07524e-07
7.5437e-07
6.11017e-07
4.77589e-07
3.54547e-07
2.42872e-07
1.4445e-07
6.30019e-08
7.04035e-09
2.15715e-08
1.93403e-07
4.43604e-07
7.44616e-07
1.08274e-06
1.44941e-06
1.83857e-06
2.24554e-06
2.66655e-06
3.09846e-06
3.53865e-06
3.98485e-06
4.43519e-06
4.88805e-06
5.34212e-06
5.79633e-06
6.24983e-06
6.702e-06
7.1524e-06
7.60075e-06
8.04697e-06
8.49108e-06
8.93324e-06
9.37371e-06
9.81283e-06
1.0251e-05
1.06886e-05
1.11262e-05
1.15643e-05
1.20032e-05
1.24434e-05
1.28853e-05
1.33293e-05
1.37756e-05
1.42244e-05
1.46759e-05
1.51301e-05
1.5587e-05
1.60464e-05
1.65083e-05
1.69723e-05
1.74381e-05
1.79052e-05
1.83731e-05
1.88412e-05
1.93089e-05
1.97753e-05
2.02398e-05
2.07013e-05
2.11589e-05
2.16116e-05
2.20582e-05
2.24977e-05
2.29288e-05
2.33501e-05
2.37604e-05
2.41582e-05
2.4542e-05
2.49105e-05
2.52619e-05
2.55947e-05
2.59074e-05
2.61982e-05
2.64655e-05
2.67077e-05
2.69231e-05
2.71102e-05
2.72673e-05
2.73929e-05
2.74856e-05
2.7543e-05
2.75647e-05
2.75513e-05
2.75003e-05
2.74107e-05
2.72818e-05
2.71131e-05
2.69044e-05
2.66555e-05
2.63666e-05
2.60382e-05
2.56708e-05
2.52654e-05
2.4823e-05
2.4345e-05
2.3833e-05
2.32889e-05
2.27147e-05
2.21127e-05
2.14853e-05
2.08351e-05
2.0165e-05
1.94776e-05
1.8776e-05
1.80631e-05
1.7342e-05
1.66155e-05
1.58868e-05
1.51586e-05
1.44337e-05
1.37148e-05
1.30043e-05
1.23047e-05
1.16179e-05
1.09461e-05
1.02909e-05
9.65385e-06
9.03622e-06
8.43908e-06
7.8633e-06
7.30951e-06
6.77814e-06
6.26942e-06
5.78342e-06
5.32e-06
4.87891e-06
4.45972e-06
4.06191e-06
3.68486e-06
3.32785e-06
2.99011e-06
2.67085e-06
2.36923e-06
2.08447e-06
1.8158e-06
1.56255e-06
1.32416e-06
1.10026e-06
8.90696e-07
6.95684e-07
5.15932e-07
3.52934e-07
2.09523e-07
9.11748e-08
1.01636e-08
2.89715e-08
2.60046e-07
5.97249e-07
1.00375e-06
1.46103e-06
1.95742e-06
2.48457e-06
3.03606e-06
3.60669e-06
4.19218e-06
4.7889e-06
5.39378e-06
6.00425e-06
6.61811e-06
7.23359e-06
7.84921e-06
8.46384e-06
9.07662e-06
9.68697e-06
1.02945e-05
1.08992e-05
1.1501e-05
1.21001e-05
1.2697e-05
1.32921e-05
1.38859e-05
1.44791e-05
1.50723e-05
1.56661e-05
1.62612e-05
1.68581e-05
1.74573e-05
1.80594e-05
1.86647e-05
1.92733e-05
1.98856e-05
2.05016e-05
2.11211e-05
2.17441e-05
2.23702e-05
2.29991e-05
2.36302e-05
2.4263e-05
2.48966e-05
2.55303e-05
2.61631e-05
2.6794e-05
2.74219e-05
2.80455e-05
2.86635e-05
2.92746e-05
2.98772e-05
3.04697e-05
3.10506e-05
3.16179e-05
3.21701e-05
3.2705e-05
3.32209e-05
3.37156e-05
3.41871e-05
3.46333e-05
3.5052e-05
3.54411e-05
3.57983e-05
3.61216e-05
3.64086e-05
3.66572e-05
3.68654e-05
3.70312e-05
3.71525e-05
3.72258e-05
3.72515e-05
3.723e-05
3.71577e-05
3.70333e-05
3.6856e-05
3.6625e-05
3.634e-05
3.6001e-05
3.5608e-05
3.51617e-05
3.46628e-05
3.41126e-05
3.35125e-05
3.28644e-05
3.21705e-05
3.14332e-05
3.06554e-05
2.984e-05
2.89904e-05
2.81101e-05
2.72028e-05
2.62725e-05
2.5323e-05
2.43584e-05
2.33829e-05
2.24004e-05
2.14149e-05
2.04304e-05
1.94506e-05
1.84791e-05
1.75193e-05
1.65743e-05
1.5647e-05
1.47401e-05
1.38559e-05
1.29964e-05
1.21633e-05
1.13581e-05
1.05819e-05
9.83547e-06
9.11948e-06
8.43418e-06
7.7796e-06
7.15558e-06
6.56172e-06
5.99745e-06
5.46204e-06
4.95462e-06
4.47421e-06
4.01977e-06
3.5902e-06
3.18439e-06
2.80126e-06
2.43978e-06
2.09904e-06
1.7783e-06
1.47707e-06
1.19517e-06
9.32914e-07
6.91309e-07
4.72424e-07
2.80115e-07
1.21731e-07
1.35543e-08
3.70061e-08
3.32369e-07
7.63981e-07
1.28503e-06
1.87186e-06
2.50945e-06
3.18695e-06
3.89603e-06
4.62993e-06
5.38306e-06
6.15071e-06
6.9289e-06
7.71427e-06
8.504e-06
9.29577e-06
1.00877e-05
1.08783e-05
1.16665e-05
1.24515e-05
1.32329e-05
1.40105e-05
1.47844e-05
1.5555e-05
1.63226e-05
1.70879e-05
1.78517e-05
1.86147e-05
1.93777e-05
2.01416e-05
2.09072e-05
2.16751e-05
2.24461e-05
2.32207e-05
2.39994e-05
2.47824e-05
2.557e-05
2.63621e-05
2.71587e-05
2.79595e-05
2.87641e-05
2.9572e-05
3.03823e-05
3.11944e-05
3.20072e-05
3.28197e-05
3.36306e-05
3.44385e-05
3.5242e-05
3.60395e-05
3.68293e-05
3.76097e-05
3.83786e-05
3.91341e-05
3.98741e-05
4.05964e-05
4.12986e-05
4.19785e-05
4.26335e-05
4.32611e-05
4.38587e-05
4.44236e-05
4.49532e-05
4.54447e-05
4.58954e-05
4.63025e-05
4.66633e-05
4.69751e-05
4.72353e-05
4.74413e-05
4.75907e-05
4.76783e-05
4.7706e-05
4.76736e-05
4.75762e-05
4.74125e-05
4.71812e-05
4.68815e-05
4.6513e-05
4.60754e-05
4.5569e-05
4.49945e-05
4.43529e-05
4.36457e-05
4.28747e-05
4.20424e-05
4.11514e-05
4.0205e-05
3.92066e-05
3.81602e-05
3.70701e-05
3.59407e-05
3.47768e-05
3.35835e-05
3.23657e-05
3.11288e-05
2.98779e-05
2.86184e-05
2.73552e-05
2.60936e-05
2.48382e-05
2.35938e-05
2.23646e-05
2.11547e-05
1.99679e-05
1.88074e-05
1.76763e-05
1.65771e-05
1.55121e-05
1.4483e-05
1.34913e-05
1.2538e-05
1.16238e-05
1.0749e-05
9.91364e-06
9.11748e-06
8.35998e-06
7.64036e-06
6.95766e-06
6.31075e-06
5.69836e-06
5.11912e-06
4.57162e-06
4.05443e-06
3.56614e-06
3.10546e-06
2.67121e-06
2.26248e-06
1.87862e-06
1.51947e-06
1.18545e-06
8.77896e-07
5.99486e-07
3.55158e-07
1.54215e-07
1.71606e-08
4.56453e-08
4.10116e-07
9.43194e-07
1.58739e-06
2.3136e-06
3.10319e-06
3.94272e-06
4.82174e-06
5.73179e-06
6.66588e-06
7.61811e-06
8.58348e-06
9.5578e-06
1.05375e-05
1.15197e-05
1.25021e-05
1.34828e-05
1.44604e-05
1.5434e-05
1.6403e-05
1.73674e-05
1.83271e-05
1.92825e-05
2.02344e-05
2.11834e-05
2.21305e-05
2.30766e-05
2.40227e-05
2.49699e-05
2.59192e-05
2.68714e-05
2.78273e-05
2.87875e-05
2.97527e-05
3.0723e-05
3.16987e-05
3.26798e-05
3.3666e-05
3.4657e-05
3.56523e-05
3.66509e-05
3.76521e-05
3.86548e-05
3.96577e-05
4.06593e-05
4.16582e-05
4.26527e-05
4.36409e-05
4.46209e-05
4.55906e-05
4.65477e-05
4.74899e-05
4.84149e-05
4.93199e-05
5.02025e-05
5.10597e-05
5.18887e-05
5.26866e-05
5.34504e-05
5.41768e-05
5.48628e-05
5.55051e-05
5.61004e-05
5.66454e-05
5.71369e-05
5.75715e-05
5.79461e-05
5.82573e-05
5.85023e-05
5.86779e-05
5.87769e-05
5.88043e-05
5.87576e-05
5.86313e-05
5.84237e-05
5.81334e-05
5.77592e-05
5.73007e-05
5.67575e-05
5.61299e-05
5.54187e-05
5.4625e-05
5.37507e-05
5.27981e-05
5.17699e-05
5.06696e-05
4.9501e-05
4.82684e-05
4.69766e-05
4.56308e-05
4.42367e-05
4.28001e-05
4.13271e-05
3.98241e-05
3.82976e-05
3.67539e-05
3.51997e-05
3.36412e-05
3.20848e-05
3.05363e-05
2.90016e-05
2.74861e-05
2.59947e-05
2.4532e-05
2.31023e-05
2.1709e-05
2.03556e-05
1.90446e-05
1.77782e-05
1.65582e-05
1.53858e-05
1.42619e-05
1.31868e-05
1.21604e-05
1.11825e-05
1.02523e-05
9.36883e-06
8.53087e-06
7.73698e-06
6.98556e-06
6.27491e-06
5.60326e-06
4.96883e-06
4.36989e-06
3.80482e-06
3.2722e-06
2.77089e-06
2.30015e-06
1.85978e-06
1.45037e-06
1.07356e-06
7.32703e-07
4.3383e-07
1.88273e-07
2.09429e-08
5.48766e-08
4.93179e-07
1.13464e-06
1.91039e-06
2.78554e-06
3.73769e-06
4.75056e-06
5.81151e-06
6.91026e-06
8.03828e-06
9.18838e-06
1.03545e-05
1.15314e-05
1.27149e-05
1.39014e-05
1.5088e-05
1.62724e-05
1.7453e-05
1.86287e-05
1.97988e-05
2.0963e-05
2.21215e-05
2.32749e-05
2.44238e-05
2.55691e-05
2.67121e-05
2.78538e-05
2.89955e-05
3.01383e-05
3.12835e-05
3.2432e-05
3.35847e-05
3.47425e-05
3.59057e-05
3.70748e-05
3.82499e-05
3.94308e-05
4.06173e-05
4.18088e-05
4.30045e-05
4.42034e-05
4.54045e-05
4.66063e-05
4.78072e-05
4.90055e-05
5.01994e-05
5.13868e-05
5.25655e-05
5.37331e-05
5.48872e-05
5.60251e-05
5.71441e-05
5.82413e-05
5.93138e-05
6.03583e-05
6.13718e-05
6.23509e-05
6.32921e-05
6.4192e-05
6.50469e-05
6.58532e-05
6.66071e-05
6.73048e-05
6.79426e-05
6.85165e-05
6.90227e-05
6.94576e-05
6.98172e-05
7.00982e-05
7.02968e-05
7.04035e-05
7.04274e-05
7.03626e-05
7.02033e-05
6.99473e-05
6.95931e-05
6.91393e-05
6.85852e-05
6.79304e-05
6.71752e-05
6.63204e-05
6.53674e-05
6.43183e-05
6.31756e-05
6.19428e-05
6.06238e-05
5.9223e-05
5.77457e-05
5.61975e-05
5.45847e-05
5.29139e-05
5.11921e-05
4.94267e-05
4.76252e-05
4.57954e-05
4.39451e-05
4.20822e-05
4.02142e-05
3.83487e-05
3.64929e-05
3.46538e-05
3.28378e-05
3.1051e-05
2.9299e-05
2.75867e-05
2.59186e-05
2.42985e-05
2.27296e-05
2.12146e-05
1.97555e-05
1.83538e-05
1.70104e-05
1.57257e-05
1.44998e-05
1.3332e-05
1.22215e-05
1.11671e-05
1.01672e-05
9.22016e-06
8.32392e-06
7.47643e-06
6.67555e-06
5.91911e-06
5.20503e-06
4.53137e-06
3.89644e-06
3.29888e-06
2.73781e-06
2.21305e-06
1.72531e-06
1.27661e-06
8.70932e-07
5.15465e-07
2.2362e-07
2.48689e-08
6.46989e-08
5.81548e-07
1.3383e-06
2.254e-06
3.28763e-06
4.41279e-06
5.61028e-06
6.86507e-06
8.16497e-06
9.4998e-06
1.0861e-05
1.22412e-05
1.36344e-05
1.50353e-05
1.64397e-05
1.78441e-05
1.92458e-05
2.06428e-05
2.20338e-05
2.34179e-05
2.47948e-05
2.61648e-05
2.75285e-05
2.88866e-05
3.02404e-05
3.15911e-05
3.29401e-05
3.42888e-05
3.56385e-05
3.69907e-05
3.83464e-05
3.97066e-05
4.10721e-05
4.24435e-05
4.3821e-05
4.52047e-05
4.65944e-05
4.79896e-05
4.93895e-05
5.07931e-05
5.21992e-05
5.36063e-05
5.50128e-05
5.64168e-05
5.78162e-05
5.92087e-05
6.05919e-05
6.19634e-05
6.33202e-05
6.46597e-05
6.59788e-05
6.72743e-05
6.8543e-05
6.97816e-05
7.09865e-05
7.2154e-05
7.32805e-05
7.43621e-05
7.53949e-05
7.63747e-05
7.72975e-05
7.81591e-05
7.89551e-05
7.96813e-05
8.03333e-05
8.09068e-05
8.13975e-05
8.18011e-05
8.21134e-05
8.23304e-05
8.24397e-05
8.24564e-05
8.2369e-05
8.2172e-05
8.1863e-05
8.14403e-05
8.09022e-05
8.02477e-05
7.94765e-05
7.85888e-05
7.75854e-05
7.64678e-05
7.52384e-05
7.39001e-05
7.24568e-05
7.09128e-05
6.92734e-05
6.75446e-05
6.57329e-05
6.38454e-05
6.18899e-05
5.98746e-05
5.78079e-05
5.56989e-05
5.35564e-05
5.13896e-05
4.92078e-05
4.70199e-05
4.48347e-05
4.26608e-05
4.05063e-05
3.8379e-05
3.6286e-05
3.42338e-05
3.22283e-05
3.02749e-05
2.83779e-05
2.65414e-05
2.47682e-05
2.30609e-05
2.14212e-05
1.98502e-05
1.83483e-05
1.69154e-05
1.55509e-05
1.42537e-05
1.30224e-05
1.18551e-05
1.07497e-05
9.70378e-06
8.71496e-06
7.78066e-06
6.89832e-06
6.06547e-06
5.27983e-06
4.53941e-06
3.84262e-06
3.18849e-06
2.57678e-06
2.00837e-06
1.48564e-06
1.01324e-06
5.99516e-07
2.60018e-07
2.89122e-08
7.51191e-08
6.75286e-07
1.55432e-06
2.61846e-06
3.82021e-06
5.12897e-06
6.52242e-06
7.98308e-06
9.49669e-06
1.10513e-05
1.26369e-05
1.42449e-05
1.58679e-05
1.75e-05
1.91359e-05
2.07717e-05
2.24042e-05
2.40308e-05
2.565e-05
2.72608e-05
2.8863e-05
3.04566e-05
3.20425e-05
3.36215e-05
3.5195e-05
3.67644e-05
3.83314e-05
3.98975e-05
4.14644e-05
4.30333e-05
4.46056e-05
4.61824e-05
4.77644e-05
4.93521e-05
5.09458e-05
5.25454e-05
5.41504e-05
5.57602e-05
5.73739e-05
5.89901e-05
6.06073e-05
6.22237e-05
6.38373e-05
6.5446e-05
6.70473e-05
6.86386e-05
7.02172e-05
7.17801e-05
7.33242e-05
7.48465e-05
7.63434e-05
7.78117e-05
7.92475e-05
8.06473e-05
8.20072e-05
8.33231e-05
8.45911e-05
8.58068e-05
8.69659e-05
8.80641e-05
8.90967e-05
9.00591e-05
9.09466e-05
9.17544e-05
9.24777e-05
9.31118e-05
9.36518e-05
9.4093e-05
9.44309e-05
9.46589e-05
9.47654e-05
9.47702e-05
9.46548e-05
9.44151e-05
9.40484e-05
9.35527e-05
9.29261e-05
9.21675e-05
9.12763e-05
9.02526e-05
8.90974e-05
8.78123e-05
8.63997e-05
8.4863e-05
8.32064e-05
8.14348e-05
7.95541e-05
7.75708e-05
7.54925e-05
7.33271e-05
7.10834e-05
6.87707e-05
6.63986e-05
6.39772e-05
6.1517e-05
5.90283e-05
5.65217e-05
5.40075e-05
5.14959e-05
4.89969e-05
4.65197e-05
4.40734e-05
4.16663e-05
3.93059e-05
3.69993e-05
3.47524e-05
3.25706e-05
3.04584e-05
2.84194e-05
2.64565e-05
2.45716e-05
2.2766e-05
2.10403e-05
1.93943e-05
1.78273e-05
1.6338e-05
1.49247e-05
1.35852e-05
1.2317e-05
1.11174e-05
9.98352e-06
8.91233e-06
7.90087e-06
6.94628e-06
6.04589e-06
5.19742e-06
4.39904e-06
3.64963e-06
2.94894e-06
2.29799e-06
1.69953e-06
1.15886e-06
6.85534e-07
2.97273e-07
3.30512e-08
8.61488e-08
7.74502e-07
1.78296e-06
3.0042e-06
4.38391e-06
5.88706e-06
7.48807e-06
9.16686e-06
1.0907e-05
1.26946e-05
1.45182e-05
1.63676e-05
1.82344e-05
2.01115e-05
2.19928e-05
2.38737e-05
2.57501e-05
2.76194e-05
2.94797e-05
3.13297e-05
3.3169e-05
3.4998e-05
3.68173e-05
3.8628e-05
4.04317e-05
4.223e-05
4.40246e-05
4.58174e-05
4.76101e-05
4.94041e-05
5.12009e-05
5.30015e-05
5.48067e-05
5.66169e-05
5.84322e-05
6.02524e-05
6.20769e-05
6.39047e-05
6.57346e-05
6.7565e-05
6.93941e-05
7.12198e-05
7.30398e-05
7.48514e-05
7.66521e-05
7.84388e-05
8.02085e-05
8.1958e-05
8.36838e-05
8.53825e-05
8.70505e-05
8.86839e-05
9.0279e-05
9.18316e-05
9.33377e-05
9.47931e-05
9.61931e-05
9.75335e-05
9.88095e-05
0.000100016
0.000101149
0.000102203
0.000103172
0.000104052
0.000104838
0.000105523
0.000106104
0.000106574
0.00010693
0.00010716
0.000107259
0.000107245
0.000107096
0.000106808
0.000106379
0.000105806
0.000105087
0.000104222
0.000103208
0.000102047
0.000100739
9.92856e-05
9.769e-05
9.59553e-05
9.40863e-05
9.20881e-05
8.99673e-05
8.77311e-05
8.53876e-05
8.29456e-05
8.04149e-05
7.78056e-05
7.51286e-05
7.23952e-05
6.96168e-05
6.68053e-05
6.39724e-05
6.11299e-05
5.82894e-05
5.54619e-05
5.26583e-05
4.98888e-05
4.71628e-05
4.44891e-05
4.18758e-05
3.93298e-05
3.68573e-05
3.44635e-05
3.21526e-05
2.9928e-05
2.7792e-05
2.57461e-05
2.3791e-05
2.19266e-05
2.01521e-05
1.8466e-05
1.68662e-05
1.53504e-05
1.39157e-05
1.25589e-05
1.12768e-05
1.00657e-05
8.92243e-06
7.8436e-06
6.8262e-06
5.86758e-06
4.96568e-06
4.11922e-06
3.32792e-06
2.59293e-06
1.91735e-06
1.30718e-06
7.7316e-07
3.3523e-07
3.72686e-08
9.78036e-08
8.79337e-07
2.02454e-06
3.41178e-06
4.97954e-06
6.68817e-06
8.50864e-06
1.04181e-05
1.23979e-05
1.44322e-05
1.65075e-05
1.86125e-05
2.07372e-05
2.28733e-05
2.5014e-05
2.71534e-05
2.92873e-05
3.14122e-05
3.3526e-05
3.56272e-05
3.77153e-05
3.97905e-05
4.18537e-05
4.39062e-05
4.59495e-05
4.79855e-05
5.00162e-05
5.20435e-05
5.40692e-05
5.6095e-05
5.81222e-05
6.01519e-05
6.21848e-05
6.42213e-05
6.62612e-05
6.83042e-05
7.03494e-05
7.23955e-05
7.44411e-05
7.64843e-05
7.85229e-05
8.05545e-05
8.25764e-05
8.45859e-05
8.65798e-05
8.8555e-05
9.05081e-05
9.24355e-05
9.43338e-05
9.61991e-05
9.80276e-05
9.98154e-05
0.000101558
0.000103252
0.000104892
0.000106475
0.000107994
0.000109447
0.000110827
0.00011213
0.00011335
0.000114482
0.000115521
0.000116462
0.000117298
0.000118024
0.000118635
0.000119124
0.000119487
0.000119711
0.000119796
0.000119755
0.000119565
0.000119224
0.000118727
0.000118074
0.000117261
0.000116286
0.00011515
0.000113852
0.000112392
0.000110774
0.000108998
0.000107069
0.000104993
0.000102773
0.000100418
9.79348e-05
9.53322e-05
9.26198e-05
8.98081e-05
8.69082e-05
8.39319e-05
8.08914e-05
7.77994e-05
7.46689e-05
7.15129e-05
6.83445e-05
6.51764e-05
6.20212e-05
5.88911e-05
5.57974e-05
5.27509e-05
4.97617e-05
4.68387e-05
4.39901e-05
4.1223e-05
3.85433e-05
3.5956e-05
3.3465e-05
3.10731e-05
2.87822e-05
2.6593e-05
2.45056e-05
2.25191e-05
2.06319e-05
1.88418e-05
1.7146e-05
1.55413e-05
1.40242e-05
1.25908e-05
1.12373e-05
9.95985e-06
8.75463e-06
7.61826e-06
6.54773e-06
5.54072e-06
4.59573e-06
3.71248e-06
2.89223e-06
2.13842e-06
1.45773e-06
8.62116e-07
3.73769e-07
4.1551e-08
1.10101e-07
9.8995e-07
2.27943e-06
3.84183e-06
5.60805e-06
7.53356e-06
9.58574e-06
1.17389e-05
1.39718e-05
1.62667e-05
1.86081e-05
2.0983e-05
2.33799e-05
2.57894e-05
2.82034e-05
3.06152e-05
3.30196e-05
3.54129e-05
3.77923e-05
4.01562e-05
4.25039e-05
4.48357e-05
4.71525e-05
4.94555e-05
5.17467e-05
5.40281e-05
5.63017e-05
5.85696e-05
6.08337e-05
6.30959e-05
6.53574e-05
6.76192e-05
6.9882e-05
7.2146e-05
7.44109e-05
7.6676e-05
7.89402e-05
8.1202e-05
8.34596e-05
8.57107e-05
8.7953e-05
9.01837e-05
9.23999e-05
9.45984e-05
9.67759e-05
9.8929e-05
0.000101054
0.000103148
0.000105205
0.000107224
0.000109199
0.000111127
0.000113003
0.000114823
0.000116582
0.000118275
0.000119899
0.000121448
0.000122917
0.0001243
0.000125592
0.000126788
0.000127883
0.000128869
0.000129742
0.000130495
0.000131123
0.00013162
0.00013198
0.000132185
0.00013225
0.000132174
0.000131937
0.000131536
0.000130969
0.000130232
0.000129323
0.00012824
0.000126983
0.00012555
0.000123944
0.000122165
0.000120216
0.000118101
0.000115826
0.000113394
0.000110815
0.000108096
0.000105245
0.000102274
9.91922e-05
9.60127e-05
9.27475e-05
8.941e-05
8.60138e-05
8.25729e-05
7.91014e-05
7.56136e-05
7.21237e-05
6.86454e-05
6.51921e-05
6.17766e-05
5.8411e-05
5.51065e-05
5.18733e-05
4.87208e-05
4.56569e-05
4.26886e-05
3.98217e-05
3.70608e-05
3.44092e-05
3.18691e-05
2.94417e-05
2.71272e-05
2.49247e-05
2.28325e-05
2.08483e-05
1.89691e-05
1.71912e-05
1.55107e-05
1.39234e-05
1.2425e-05
1.10111e-05
9.67754e-06
8.42044e-06
7.23643e-06
6.12289e-06
5.07813e-06
4.10179e-06
3.19524e-06
2.36225e-06
1.61018e-06
9.52205e-07
4.12803e-07
4.58888e-08
1.2306e-07
1.10651e-06
2.54803e-06
4.29501e-06
6.2704e-06
8.42457e-06
1.07211e-05
1.31313e-05
1.56313e-05
1.82011e-05
2.08232e-05
2.34827e-05
2.61666e-05
2.88639e-05
3.15652e-05
3.4263e-05
3.69511e-05
3.96251e-05
4.22818e-05
4.49193e-05
4.75368e-05
5.01344e-05
5.27132e-05
5.52746e-05
5.78205e-05
6.03531e-05
6.28748e-05
6.53876e-05
6.78937e-05
7.03947e-05
7.2892e-05
7.53866e-05
7.78789e-05
8.03689e-05
8.28562e-05
8.53397e-05
8.78182e-05
9.02897e-05
9.27523e-05
9.52033e-05
9.76401e-05
0.00010006
0.000102459
0.000104834
0.000107182
0.000109499
0.000111781
0.000114025
0.000116227
0.000118382
0.000120486
0.000122536
0.000124527
0.000126455
0.000128314
0.000130101
0.00013181
0.000133437
0.000134975
0.000136421
0.000137768
0.00013901
0.000140142
0.000141158
0.000142052
0.000142817
0.000143448
0.000143939
0.000144283
0.00014446
0.000144496
0.000144376
0.000144085
0.000143621
0.000142979
0.000142158
0.000141153
0.000139964
0.00013859
0.000137029
0.000135283
0.000133353
0.000131242
0.000128953
0.000126491
0.000123863
0.000121074
0.000118134
0.000115052
0.000111838
0.000108503
0.000105059
0.000101521
9.79016e-05
9.42153e-05
9.04771e-05
8.67023e-05
8.2906e-05
7.91038e-05
7.53105e-05
7.15409e-05
6.7809e-05
6.41284e-05
6.05114e-05
5.69697e-05
5.35137e-05
5.01526e-05
4.68945e-05
4.3746e-05
4.07124e-05
3.77979e-05
3.50052e-05
3.23359e-05
2.97904e-05
2.7368e-05
2.50671e-05
2.28851e-05
2.08189e-05
1.88645e-05
1.70176e-05
1.52737e-05
1.36279e-05
1.20754e-05
1.06115e-05
9.23192e-06
7.93293e-06
6.71153e-06
5.56583e-06
4.49536e-06
3.50156e-06
2.58854e-06
1.76432e-06
1.04331e-06
4.52283e-07
5.02764e-08
1.367e-07
1.22919e-06
2.83073e-06
4.77201e-06
6.96761e-06
9.36255e-06
1.19165e-05
1.45974e-05
1.73789e-05
2.02384e-05
2.31562e-05
2.61154e-05
2.91012e-05
3.21008e-05
3.51036e-05
3.81008e-05
4.10853e-05
4.4052e-05
4.6997e-05
4.99182e-05
5.28146e-05
5.56864e-05
5.85344e-05
6.13603e-05
6.41662e-05
6.69545e-05
6.97275e-05
7.24875e-05
7.52367e-05
7.79767e-05
8.0709e-05
8.34342e-05
8.61527e-05
8.88644e-05
9.15685e-05
9.42637e-05
9.69485e-05
9.96207e-05
0.000102278
0.000104917
0.000107536
0.000110131
0.000112698
0.000115234
0.000117736
0.0001202
0.000122621
0.000124997
0.000127322
0.000129594
0.000131808
0.000133959
0.000136044
0.000138058
0.000139997
0.000141855
0.000143628
0.000145311
0.000146899
0.000148386
0.000149766
0.000151035
0.000152186
0.000153213
0.00015411
0.000154871
0.00015549
0.000155962
0.000156274
0.000156412
0.000156413
0.00015624
0.00015589
0.000155358
0.00015464
0.000153734
0.000152637
0.000151347
0.000149862
0.000148182
0.000146307
0.000144239
0.00014198
0.000139533
0.000136903
0.000134096
0.000131118
0.000127978
0.000124685
0.000121249
0.000117682
0.000113996
0.000110205
0.000106324
0.000102366
9.83481e-05
9.42862e-05
9.01964e-05
8.60951e-05
8.19985e-05
7.79226e-05
7.38827e-05
6.98937e-05
6.59694e-05
6.21228e-05
5.83656e-05
5.47083e-05
5.116e-05
4.77287e-05
4.44205e-05
4.12405e-05
3.8192e-05
3.52773e-05
3.2497e-05
2.98509e-05
2.73372e-05
2.49536e-05
2.26967e-05
2.05623e-05
1.85458e-05
1.66423e-05
1.48464e-05
1.31528e-05
1.15565e-05
1.00527e-05
8.63714e-06
7.30653e-06
6.0587e-06
4.89305e-06
3.81108e-06
2.81721e-06
1.9201e-06
1.13539e-06
4.92189e-07
5.47117e-08
1.51039e-07
1.35816e-06
3.12792e-06
5.27347e-06
7.70064e-06
1.03488e-05
1.31735e-05
1.61394e-05
1.92172e-05
2.23815e-05
2.56103e-05
2.88845e-05
3.21872e-05
3.55038e-05
3.88222e-05
4.2132e-05
4.54253e-05
4.86959e-05
5.19396e-05
5.51537e-05
5.83372e-05
6.14899e-05
6.46129e-05
6.77081e-05
7.07775e-05
7.38237e-05
7.68493e-05
7.98565e-05
8.28477e-05
8.58244e-05
8.8788e-05
9.1739e-05
9.46778e-05
9.76038e-05
0.000100516
0.000103413
0.000106293
0.000109153
0.000111992
0.000114805
0.000117589
0.000120342
0.00012306
0.000125738
0.000128374
0.000130964
0.000133503
0.000135988
0.000138415
0.00014078
0.00014308
0.000145309
0.000147464
0.00014954
0.000151534
0.00015344
0.000155253
0.000156969
0.000158582
0.000160087
0.000161479
0.000162752
0.000163901
0.000164919
0.000165801
0.00016654
0.000167131
0.000167568
0.000167833
0.000167931
0.000167881
0.00016765
0.000167236
0.000166634
0.000165841
0.000164853
0.000163668
0.000162283
0.000160698
0.000158911
0.000156922
0.000154732
0.000152344
0.000149759
0.000146983
0.000144021
0.000140878
0.000137564
0.000134085
0.000130454
0.000126681
0.000122778
0.00011876
0.00011464
0.000110434
0.000106159
0.00010183
9.74653e-05
9.30818e-05
8.86969e-05
8.43276e-05
7.99908e-05
7.57025e-05
7.14781e-05
6.7332e-05
6.32772e-05
5.93258e-05
5.54883e-05
5.17737e-05
4.81894e-05
4.47415e-05
4.14342e-05
3.82704e-05
3.52514e-05
3.23773e-05
2.96467e-05
2.70573e-05
2.46055e-05
2.22872e-05
2.00975e-05
1.8031e-05
1.6082e-05
1.42448e-05
1.25137e-05
1.08836e-05
9.34966e-06
7.9083e-06
6.55702e-06
5.29507e-06
4.12395e-06
3.04834e-06
2.07756e-06
1.22848e-06
5.32536e-07
5.91962e-08
1.66094e-07
1.49357e-06
3.43996e-06
5.80001e-06
8.47038e-06
1.13846e-05
1.44939e-05
1.77593e-05
2.11483e-05
2.4633e-05
2.81885e-05
3.17932e-05
3.54279e-05
3.90762e-05
4.27238e-05
4.63592e-05
4.9973e-05
5.35583e-05
5.71101e-05
6.06253e-05
6.41025e-05
6.75417e-05
7.0944e-05
7.43112e-05
7.76458e-05
8.09502e-05
8.42273e-05
8.74794e-05
9.07089e-05
9.39173e-05
9.71059e-05
0.000100275
0.000103425
0.000106555
0.000109664
0.00011275
0.00011581
0.000118843
0.000121846
0.000124814
0.000127745
0.000130636
0.000133483
0.000136281
0.000139028
0.00014172
0.000144353
0.000146923
0.000149426
0.000151859
0.000154218
0.000156499
0.000158698
0.00016081
0.000162832
0.000164758
0.000166586
0.000168308
0.000169922
0.000171421
0.000172801
0.000174055
0.00017518
0.000176168
0.000177015
0.000177714
0.000178261
0.000178648
0.000178853
0.000178906
0.000178795
0.0001785
0.000178018
0.000177346
0.000176479
0.000175414
0.000174149
0.000172681
0.000171009
0.00016913
0.000167045
0.000164754
0.000162258
0.000159561
0.000156664
0.000153574
0.000150295
0.000146835
0.000143202
0.000139406
0.000135457
0.000131368
0.000127151
0.000122822
0.000118395
0.000113888
0.000109316
0.000104699
0.000100053
9.5398e-05
9.07512e-05
8.6131e-05
8.15547e-05
7.70393e-05
7.26006e-05
6.82534e-05
6.40111e-05
5.98858e-05
5.5888e-05
5.20265e-05
4.83084e-05
4.47391e-05
4.13225e-05
3.80606e-05
3.49539e-05
3.20017e-05
2.92016e-05
2.65504e-05
2.40438e-05
2.16766e-05
1.94432e-05
1.73376e-05
1.53535e-05
1.34849e-05
1.1726e-05
1.00717e-05
8.51777e-06
7.06153e-06
5.70195e-06
4.44055e-06
3.28222e-06
2.2369e-06
1.32267e-06
5.73366e-07
6.37346e-08
1.8188e-07
1.63555e-06
3.76716e-06
6.35216e-06
9.27765e-06
1.2471e-05
1.58789e-05
1.94587e-05
2.31745e-05
2.69952e-05
3.08932e-05
3.4844e-05
3.8826e-05
4.28203e-05
4.68108e-05
5.07841e-05
5.47297e-05
5.86394e-05
6.25076e-05
6.63307e-05
7.01072e-05
7.38368e-05
7.75208e-05
8.1161e-05
8.47601e-05
8.83209e-05
9.18461e-05
9.53383e-05
9.87998e-05
0.000102232
0.000105637
0.000109014
0.000112363
0.000115683
0.000118973
0.000122232
0.000125456
0.000128642