/*--------------------------------*- C++ -*----------------------------------*\
  =========                 |
  \\      /  F ield         | OpenFOAM: The Open Source CFD Toolbox
   \\    /   O peration     | Website:  https://openfoam.org
    \\  /    A nd           | Version:  12
     \\/     M anipulation  |
\*---------------------------------------------------------------------------*/
FoamFile
{
    format      ascii;
    class       volScalarField;
    location    "2";
    object      nut;
}
// * * * * * * * * * * * * * * * * * * * * * * * * * * * * * * * * * * * * * //

dimensions      [0 2 -1 0 0 0 0];

internalField   nonuniform List<scalar> 
18225
(
2.00719e-14
1.00309e-13
2.19539e-13
3.62743e-13
5.23244e-13
6.97106e-13
8.81557e-13
1.07445e-12
1.27402e-12
1.47881e-12
1.68758e-12
1.89927e-12
2.11298e-12
2.32794e-12
2.54354e-12
2.75926e-12
2.9747e-12
3.18955e-12
3.4036e-12
3.6167e-12
3.82882e-12
4.03994e-12
4.25014e-12
4.45953e-12
4.66826e-12
4.8765e-12
5.08446e-12
5.29235e-12
5.50038e-12
5.70878e-12
5.91773e-12
6.12743e-12
6.33803e-12
6.54968e-12
6.76247e-12
6.97648e-12
7.19175e-12
7.40826e-12
7.62599e-12
7.84485e-12
8.06473e-12
8.28547e-12
8.50688e-12
8.72872e-12
8.95073e-12
9.1726e-12
9.39399e-12
9.61453e-12
9.8338e-12
1.00514e-11
1.02667e-11
1.04794e-11
1.06888e-11
1.08943e-11
1.10954e-11
1.12915e-11
1.14817e-11
1.16655e-11
1.18422e-11
1.20109e-11
1.21709e-11
1.23215e-11
1.24619e-11
1.25912e-11
1.27086e-11
1.28134e-11
1.29048e-11
1.29819e-11
1.30442e-11
1.30908e-11
1.3121e-11
1.31341e-11
1.31301e-11
1.31083e-11
1.30682e-11
1.30093e-11
1.29314e-11
1.28344e-11
1.27182e-11
1.25829e-11
1.24287e-11
1.22558e-11
1.20647e-11
1.18558e-11
1.16299e-11
1.13878e-11
1.11301e-11
1.08581e-11
1.05726e-11
1.02749e-11
9.96622e-12
9.64785e-12
9.32115e-12
8.9875e-12
8.64832e-12
8.30504e-12
7.95908e-12
7.61184e-12
7.2647e-12
6.91898e-12
6.57595e-12
6.2368e-12
5.90266e-12
5.57455e-12
5.25342e-12
4.94009e-12
4.63531e-12
4.3397e-12
4.05378e-12
3.77799e-12
3.51263e-12
3.25792e-12
3.01399e-12
2.78088e-12
2.55856e-12
2.34688e-12
2.14566e-12
1.95467e-12
1.77361e-12
1.60215e-12
1.43993e-12
1.28657e-12
1.14169e-12
1.00492e-12
8.75895e-13
7.54295e-13
6.39859e-13
5.32404e-13
4.3186e-13
3.38311e-13
2.52071e-13
1.73806e-13
1.04813e-13
4.77961e-14
9.55958e-15
1.00367e-13
9.10257e-12
3.09127e-11
5.71236e-11
8.57617e-11
1.16332e-10
1.48501e-10
1.81977e-10
2.16502e-10
2.51849e-10
2.87816e-10
3.24234e-10
3.60955e-10
3.97856e-10
4.34832e-10
4.71798e-10
5.08689e-10
5.45453e-10
5.82057e-10
6.18479e-10
6.54711e-10
6.90756e-10
7.26627e-10
7.62344e-10
7.97935e-10
8.3343e-10
8.68867e-10
9.04283e-10
9.39716e-10
9.75203e-10
1.01078e-09
1.04648e-09
1.08233e-09
1.11836e-09
1.15458e-09
1.191e-09
1.22765e-09
1.2645e-09
1.30156e-09
1.33882e-09
1.37626e-09
1.41385e-09
1.45155e-09
1.48934e-09
1.52716e-09
1.56497e-09
1.60271e-09
1.64031e-09
1.67771e-09
1.71483e-09
1.75159e-09
1.78791e-09
1.82369e-09
1.85884e-09
1.89324e-09
1.92681e-09
1.95941e-09
1.99093e-09
2.02126e-09
2.05026e-09
2.0778e-09
2.10375e-09
2.12798e-09
2.15035e-09
2.17071e-09
2.18894e-09
2.20488e-09
2.21841e-09
2.22936e-09
2.23761e-09
2.24304e-09
2.24553e-09
2.24514e-09
2.24169e-09
2.23509e-09
2.22528e-09
2.2122e-09
2.19584e-09
2.17618e-09
2.15322e-09
2.127e-09
2.09757e-09
2.06498e-09
2.02934e-09
1.99075e-09
1.94934e-09
1.90526e-09
1.85867e-09
1.80977e-09
1.75875e-09
1.70583e-09
1.65122e-09
1.59518e-09
1.53792e-09
1.47971e-09
1.42079e-09
1.36141e-09
1.30181e-09
1.24223e-09
1.18289e-09
1.12403e-09
1.06584e-09
1.00852e-09
9.52242e-10
8.97177e-10
8.43466e-10
7.91235e-10
7.40592e-10
6.91625e-10
6.44408e-10
5.98992e-10
5.55414e-10
5.13694e-10
4.7383e-10
4.35816e-10
3.99636e-10
3.65256e-10
3.32634e-10
3.01718e-10
2.72447e-10
2.44759e-10
2.18584e-10
1.93856e-10
1.70504e-10
1.48465e-10
1.27677e-10
1.08089e-10
8.96591e-11
7.23612e-11
5.61859e-11
4.11462e-11
2.7284e-11
1.47304e-11
4.33522e-12
4.77772e-14
2.20185e-13
3.09474e-11
1.57061e-10
3.54072e-10
5.83225e-10
8.28982e-10
1.08581e-09
1.35105e-09
1.62283e-09
1.89962e-09
2.18008e-09
2.46304e-09
2.74748e-09
3.03254e-09
3.31749e-09
3.60174e-09
3.88484e-09
4.16643e-09
4.4463e-09
4.72433e-09
5.00049e-09
5.27484e-09
5.5475e-09
5.81866e-09
6.08857e-09
6.35749e-09
6.62572e-09
6.89359e-09
7.1614e-09
7.42945e-09
7.69805e-09
7.96746e-09
8.23791e-09
8.50961e-09
8.78271e-09
9.05732e-09
9.33352e-09
9.61132e-09
9.89069e-09
1.01716e-08
1.04538e-08
1.07372e-08
1.10216e-08
1.13066e-08
1.1592e-08
1.18774e-08
1.21624e-08
1.24466e-08
1.27293e-08
1.30102e-08
1.32885e-08
1.35637e-08
1.38351e-08
1.4102e-08
1.43636e-08
1.4619e-08
1.48675e-08
1.51082e-08
1.53401e-08
1.55623e-08
1.57739e-08
1.59737e-08
1.61607e-08
1.6334e-08
1.64923e-08
1.66347e-08
1.67602e-08
1.68675e-08
1.69556e-08
1.70235e-08
1.70702e-08
1.70942e-08
1.70968e-08
1.7076e-08
1.70311e-08
1.69615e-08
1.68669e-08
1.6747e-08
1.66016e-08
1.64307e-08
1.62345e-08
1.60133e-08
1.57676e-08
1.54981e-08
1.52055e-08
1.48908e-08
1.45552e-08
1.42e-08
1.38265e-08
1.34364e-08
1.30313e-08
1.26129e-08
1.21832e-08
1.17439e-08
1.12971e-08
1.08447e-08
1.03886e-08
9.93073e-09
9.47301e-09
9.01723e-09
8.56511e-09
8.1183e-09
7.6783e-09
7.24651e-09
6.8242e-09
6.41248e-09
6.01234e-09
5.62459e-09
5.24993e-09
4.88889e-09
4.54187e-09
4.20913e-09
3.89079e-09
3.58687e-09
3.29725e-09
3.02176e-09
2.76012e-09
2.51195e-09
2.27683e-09
2.05425e-09
1.84369e-09
1.64458e-09
1.45634e-09
1.27838e-09
1.11013e-09
9.5104e-10
8.00594e-10
6.58337e-10
5.23898e-10
3.97068e-10
2.78051e-10
1.68444e-10
7.47118e-11
1.47222e-11
1.04601e-13
3.65331e-13
5.73672e-11
3.54614e-10
9.43921e-10
1.7296e-09
2.62123e-09
3.57013e-09
4.55275e-09
5.55674e-09
6.57452e-09
7.60068e-09
8.63098e-09
9.66197e-09
1.06908e-08
1.17152e-08
1.27333e-08
1.37437e-08
1.47455e-08
1.57381e-08
1.67213e-08
1.76953e-08
1.86603e-08
1.96172e-08
2.05667e-08
2.15099e-08
2.24479e-08
2.33819e-08
2.43132e-08
2.5243e-08
2.61725e-08
2.7103e-08
2.80354e-08
2.89706e-08
2.99096e-08
3.08529e-08
3.1801e-08
3.27543e-08
3.37129e-08
3.46769e-08
3.56459e-08
3.66198e-08
3.75978e-08
3.85795e-08
3.95638e-08
4.05499e-08
4.15365e-08
4.25223e-08
4.35059e-08
4.44856e-08
4.54597e-08
4.64263e-08
4.73831e-08
4.8328e-08
4.92586e-08
5.01724e-08
5.10665e-08
5.19381e-08
5.27842e-08
5.36016e-08
5.4387e-08
5.5137e-08
5.58479e-08
5.65162e-08
5.7138e-08
5.77095e-08
5.82269e-08
5.86863e-08
5.90839e-08
5.94157e-08
5.96785e-08
5.98678e-08
5.9976e-08
6.00115e-08
5.99648e-08
5.98332e-08
5.96146e-08
5.93071e-08
5.89096e-08
5.84212e-08
5.78417e-08
5.71714e-08
5.64113e-08
5.55627e-08
5.46279e-08
5.36096e-08
5.25112e-08
5.13366e-08
5.00903e-08
4.87774e-08
4.74034e-08
4.59744e-08
4.44967e-08
4.2977e-08
4.14222e-08
3.98394e-08
3.82356e-08
3.6618e-08
3.49936e-08
3.33693e-08
3.17517e-08
3.01472e-08
2.85617e-08
2.70008e-08
2.54695e-08
2.39724e-08
2.25136e-08
2.10965e-08
1.97242e-08
1.83991e-08
1.7123e-08
1.58973e-08
1.47229e-08
1.36002e-08
1.2529e-08
1.15089e-08
1.05392e-08
9.61859e-09
8.74565e-09
7.91867e-09
7.13571e-09
6.39467e-09
5.69331e-09
5.02933e-09
4.40034e-09
3.804e-09
3.23801e-09
2.70027e-09
2.18905e-09
1.70352e-09
1.24499e-09
8.20073e-10
4.47777e-10
1.68386e-10
2.72158e-11
1.72931e-13
5.30194e-13
8.6594e-11
5.8628e-10
1.73361e-09
3.46752e-09
5.5987e-09
7.96463e-09
1.04622e-08
1.30317e-08
1.56377e-08
1.82584e-08
2.08791e-08
2.34894e-08
2.60816e-08
2.865e-08
3.11905e-08
3.37003e-08
3.61775e-08
3.86217e-08
4.10329e-08
4.34121e-08
4.57612e-08
4.80823e-08
5.03783e-08
5.26522e-08
5.49075e-08
5.71476e-08
5.93762e-08
6.15968e-08
6.38128e-08
6.60275e-08
6.82437e-08
7.04643e-08
7.26913e-08
7.49269e-08
7.71724e-08
7.9429e-08
8.16974e-08
8.39779e-08
8.62702e-08
8.85738e-08
9.08879e-08
9.32109e-08
9.55413e-08
9.78769e-08
1.00215e-07
1.02554e-07
1.04889e-07
1.07217e-07
1.09534e-07
1.11836e-07
1.14118e-07
1.16376e-07
1.18602e-07
1.20793e-07
1.2294e-07
1.25038e-07
1.27079e-07
1.29056e-07
1.30961e-07
1.32786e-07
1.34521e-07
1.36159e-07
1.37689e-07
1.39103e-07
1.4039e-07
1.41541e-07
1.42547e-07
1.43398e-07
1.4409e-07
1.44598e-07
1.44916e-07
1.45061e-07
1.45008e-07
1.44749e-07
1.4428e-07
1.43594e-07
1.42689e-07
1.41561e-07
1.4021e-07
1.38636e-07
1.36841e-07
1.34827e-07
1.326e-07
1.30165e-07
1.27531e-07
1.24707e-07
1.21704e-07
1.18534e-07
1.15211e-07
1.11749e-07
1.08164e-07
1.04473e-07
1.00693e-07
9.68409e-08
9.29348e-08
8.89924e-08
8.50314e-08
8.10688e-08
7.71214e-08
7.3205e-08
6.93344e-08
6.55236e-08
6.17853e-08
5.81309e-08
5.45706e-08
5.11131e-08
4.77658e-08
4.45346e-08
4.14243e-08
3.8438e-08
3.55778e-08
3.28445e-08
3.02377e-08
2.77561e-08
2.53973e-08
2.31583e-08
2.10349e-08
1.90227e-08
1.71163e-08
1.53102e-08
1.35982e-08
1.19742e-08
1.04318e-08
8.96461e-09
7.567e-09
6.23435e-09
4.96472e-09
3.76167e-09
2.64023e-09
1.63691e-09
8.19987e-10
2.77463e-10
4.08904e-11
2.49647e-13
7.12078e-13
1.1836e-10
8.38581e-10
2.63945e-09
5.61885e-09
9.5604e-09
1.41607e-08
1.91649e-08
2.43958e-08
2.97385e-08
3.512e-08
4.04931e-08
4.58267e-08
5.11e-08
5.62993e-08
6.14154e-08
6.64431e-08
7.138e-08
7.62261e-08
8.09835e-08
8.56557e-08
9.0248e-08
9.47665e-08
9.92182e-08
1.03611e-07
1.07953e-07
1.12252e-07
1.16518e-07
1.20757e-07
1.24979e-07
1.29189e-07
1.33396e-07
1.37604e-07
1.4182e-07
1.46048e-07
1.50291e-07
1.54552e-07
1.58834e-07
1.63137e-07
1.67462e-07
1.71809e-07
1.76175e-07
1.8056e-07
1.84959e-07
1.89371e-07
1.9379e-07
1.98212e-07
2.02631e-07
2.07041e-07
2.11435e-07
2.15805e-07
2.20141e-07
2.24436e-07
2.28678e-07
2.32856e-07
2.36959e-07
2.40974e-07
2.44887e-07
2.48683e-07
2.52349e-07
2.55867e-07
2.59221e-07
2.62393e-07
2.65366e-07
2.6812e-07
2.70638e-07
2.72899e-07
2.74885e-07
2.76576e-07
2.77976e-07
2.79002e-07
2.79677e-07
2.80023e-07
2.79988e-07
2.79558e-07
2.78721e-07
2.77467e-07
2.75789e-07
2.7368e-07
2.71138e-07
2.68164e-07
2.64758e-07
2.60928e-07
2.56681e-07
2.52029e-07
2.46988e-07
2.41574e-07
2.35809e-07
2.29715e-07
2.2332e-07
2.16651e-07
2.09738e-07
2.02613e-07
1.9531e-07
1.87862e-07
1.80304e-07
1.72671e-07
1.64997e-07
1.57315e-07
1.49659e-07
1.42059e-07
1.34545e-07
1.27143e-07
1.1988e-07
1.12778e-07
1.05857e-07
9.91343e-08
9.26246e-08
8.63397e-08
8.0289e-08
7.4479e-08
6.89134e-08
6.3594e-08
5.85198e-08
5.36881e-08
4.90939e-08
4.47307e-08
4.05901e-08
3.66626e-08
3.29373e-08
2.94023e-08
2.6045e-08
2.28525e-08
1.98119e-08
1.69113e-08
1.41411e-08
1.14969e-08
8.98425e-09
6.62702e-09
4.47959e-09
2.64002e-09
1.24289e-09
3.94709e-10
5.55214e-11
3.3293e-13
9.09558e-13
1.52575e-10
1.10817e-09
3.62168e-09
8.04212e-09
1.42375e-08
2.18093e-08
3.03183e-08
3.93987e-08
4.87827e-08
5.82865e-08
6.77875e-08
7.72045e-08
8.64849e-08
9.55953e-08
1.04516e-07
1.13235e-07
1.2175e-07
1.30063e-07
1.3818e-07
1.4611e-07
1.53865e-07
1.61459e-07
1.68908e-07
1.76228e-07
1.83435e-07
1.90547e-07
1.97581e-07
2.04552e-07
2.11476e-07
2.18368e-07
2.25241e-07
2.32107e-07
2.38975e-07
2.45856e-07
2.52755e-07
2.5968e-07
2.66635e-07
2.73622e-07
2.80643e-07
2.87698e-07
2.94786e-07
3.01904e-07
3.09049e-07
3.16215e-07
3.23396e-07
3.30585e-07
3.37772e-07
3.44948e-07
3.52102e-07
3.5922e-07
3.6629e-07
3.73295e-07
3.80218e-07
3.87043e-07
3.93749e-07
4.00315e-07
4.06718e-07
4.12935e-07
4.18941e-07
4.24708e-07
4.30209e-07
4.35416e-07
4.40297e-07
4.44822e-07
4.4896e-07
4.52678e-07
4.55943e-07
4.58726e-07
4.61041e-07
4.6271e-07
4.63829e-07
4.64402e-07
4.64347e-07
4.63641e-07
4.62264e-07
4.60202e-07
4.5744e-07
4.5397e-07
4.49787e-07
4.44891e-07
4.39286e-07
4.3298e-07
4.25988e-07
4.18329e-07
4.10026e-07
4.01109e-07
3.91611e-07
3.81569e-07
3.71027e-07
3.6003e-07
3.48627e-07
3.3687e-07
3.24812e-07
3.12511e-07
3.00021e-07
2.874e-07
2.74704e-07
2.61988e-07
2.49306e-07
2.3671e-07
2.24248e-07
2.11965e-07
1.99904e-07
1.88102e-07
1.76594e-07
1.65408e-07
1.54569e-07
1.44098e-07
1.3401e-07
1.24316e-07
1.15024e-07
1.06136e-07
9.76514e-08
8.95648e-08
8.1868e-08
7.45497e-08
6.75959e-08
6.09901e-08
5.47135e-08
4.87454e-08
4.30643e-08
3.76482e-08
3.24766e-08
2.75324e-08
2.28059e-08
1.83018e-08
1.40484e-08
1.01143e-08
6.62354e-09
3.7549e-09
1.69415e-09
5.17596e-10
7.09589e-11
4.21509e-13
1.1219e-12
1.89198e-10
1.39453e-09
4.66605e-09
1.06601e-08
1.94267e-08
3.05541e-08
4.34371e-08
5.74811e-08
7.21968e-08
8.72174e-08
1.02284e-07
1.1722e-07
1.31912e-07
1.46284e-07
1.60295e-07
1.73922e-07
1.8716e-07
2.00013e-07
2.12493e-07
2.24621e-07
2.3642e-07
2.47919e-07
2.59144e-07
2.70128e-07
2.80901e-07
2.91493e-07
3.01935e-07
3.12256e-07
3.22482e-07
3.32638e-07
3.42748e-07
3.52832e-07
3.62907e-07
3.7299e-07
3.83092e-07
3.93225e-07
4.03396e-07
4.13611e-07
4.23873e-07
4.34182e-07
4.44538e-07
4.54938e-07
4.65375e-07
4.75844e-07
4.86334e-07
4.96836e-07
5.07335e-07
5.17817e-07
5.28266e-07
5.38662e-07
5.48984e-07
5.5921e-07
5.69314e-07
5.7927e-07
5.89046e-07
5.98613e-07
6.07936e-07
6.1698e-07
6.25706e-07
6.34076e-07
6.42046e-07
6.49575e-07
6.56619e-07
6.63131e-07
6.69066e-07
6.74377e-07
6.79019e-07
6.82952e-07
6.86199e-07
6.88465e-07
6.8995e-07
6.90622e-07
6.90367e-07
6.89153e-07
6.86955e-07
6.83751e-07
6.79524e-07
6.74263e-07
6.67963e-07
6.60623e-07
6.52251e-07
6.4286e-07
6.32472e-07
6.21115e-07
6.08824e-07
5.9564e-07
5.81613e-07
5.66796e-07
5.51251e-07
5.35042e-07
5.18241e-07
5.00922e-07
4.83162e-07
4.65039e-07
4.46636e-07
4.28034e-07
4.09313e-07
3.90553e-07
3.71832e-07
3.53223e-07
3.34799e-07
3.16625e-07
2.98763e-07
2.81268e-07
2.64191e-07
2.47575e-07
2.31458e-07
2.1587e-07
2.00836e-07
1.86372e-07
1.72491e-07
1.59197e-07
1.46489e-07
1.34361e-07
1.228e-07
1.11789e-07
1.01309e-07
9.13328e-08
8.18335e-08
7.27799e-08
6.41401e-08
5.58829e-08
4.79809e-08
4.04153e-08
3.31841e-08
2.63152e-08
1.98829e-08
1.40263e-08
8.95791e-09
4.93491e-09
2.16302e-09
6.44915e-10
8.7072e-11
5.14406e-13
1.3488e-12
2.28226e-10
1.69793e-09
5.76918e-09
1.34394e-08
2.50094e-08
4.01346e-08
5.80904e-08
7.80467e-08
9.92445e-08
1.2107e-07
1.43064e-07
1.64902e-07
1.86363e-07
2.07307e-07
2.27649e-07
2.47346e-07
2.66386e-07
2.84777e-07
3.02542e-07
3.19715e-07
3.36338e-07
3.52456e-07
3.6812e-07
3.8338e-07
3.98288e-07
4.12894e-07
4.27247e-07
4.41392e-07
4.55374e-07
4.69231e-07
4.83e-07
4.96713e-07
5.10397e-07
5.24077e-07
5.37772e-07
5.51499e-07
5.6527e-07
5.79093e-07
5.92974e-07
6.06915e-07
6.20914e-07
6.34967e-07
6.49067e-07
6.63204e-07
6.77364e-07
6.91534e-07
7.05693e-07
7.19822e-07
7.33895e-07
7.47887e-07
7.61767e-07
7.75504e-07
7.8906e-07
8.02399e-07
8.15478e-07
8.28254e-07
8.4068e-07
8.52705e-07
8.64277e-07
8.75343e-07
8.85846e-07
8.95726e-07
9.04924e-07
9.13381e-07
9.21034e-07
9.27822e-07
9.33686e-07
9.38568e-07
9.42505e-07
9.45102e-07
9.4667e-07
9.47111e-07
9.46292e-07
9.4418e-07
9.40743e-07
9.35958e-07
9.29804e-07
9.22271e-07
9.13354e-07
9.03058e-07
8.91394e-07
8.78384e-07
8.64058e-07
8.48453e-07
8.31619e-07
8.13611e-07
7.94493e-07
7.74337e-07
7.53223e-07
7.31237e-07
7.08471e-07
6.85019e-07
6.60983e-07
6.36467e-07
6.11574e-07
5.8641e-07
5.61081e-07
5.3569e-07
5.10338e-07
4.85124e-07
4.60139e-07
4.35473e-07
4.11205e-07
3.87412e-07
3.64158e-07
3.41505e-07
3.19502e-07
2.98193e-07
2.77609e-07
2.57778e-07
2.38714e-07
2.20426e-07
2.02914e-07
1.8617e-07
1.70179e-07
1.54919e-07
1.40362e-07
1.26472e-07
1.13213e-07
1.00543e-07
8.84202e-08
7.68055e-08
6.5669e-08
5.4998e-08
4.48108e-08
3.51748e-08
2.62294e-08
1.8203e-08
1.14037e-08
6.1531e-09
2.64383e-09
7.7583e-10
1.03745e-10
6.10833e-13
1.59023e-12
2.69682e-10
2.01891e-09
6.93191e-09
1.63698e-08
3.09291e-08
5.03944e-08
7.39729e-08
1.00612e-07
1.29259e-07
1.58999e-07
1.89115e-07
2.19077e-07
2.48518e-07
2.77196e-07
3.04966e-07
3.31754e-07
3.57533e-07
3.82316e-07
4.06139e-07
4.29056e-07
4.51131e-07
4.72439e-07
4.93057e-07
5.13062e-07
5.32533e-07
5.51547e-07
5.70175e-07
5.88488e-07
6.06547e-07
6.24412e-07
6.42133e-07
6.59758e-07
6.77326e-07
6.94872e-07
7.12422e-07
7.29999e-07
7.47621e-07
7.65299e-07
7.8304e-07
8.00846e-07
8.18716e-07
8.36642e-07
8.54615e-07
8.7262e-07
8.90639e-07
9.0865e-07
9.26628e-07
9.44544e-07
9.62364e-07
9.80053e-07
9.9757e-07
1.01487e-06
1.03191e-06
1.04863e-06
1.06498e-06
1.08091e-06
1.09635e-06
1.11123e-06
1.12549e-06
1.13906e-06
1.15187e-06
1.16385e-06
1.17491e-06
1.18499e-06
1.19401e-06
1.2019e-06
1.20858e-06
1.21397e-06
1.21811e-06
1.22059e-06
1.22177e-06
1.22148e-06
1.21959e-06
1.21607e-06
1.21088e-06
1.204e-06
1.19541e-06
1.18511e-06
1.1731e-06
1.15937e-06
1.14397e-06
1.1269e-06
1.10823e-06
1.08798e-06
1.06624e-06
1.04306e-06
1.01853e-06
9.92737e-07
9.65776e-07
9.37753e-07
9.08779e-07
8.78969e-07
8.48447e-07
8.17335e-07
7.8576e-07
7.53849e-07
7.2173e-07
6.89527e-07
6.57363e-07
6.25357e-07
5.93622e-07
5.62264e-07
5.31385e-07
5.01075e-07
4.71418e-07
4.42488e-07
4.14348e-07
3.87053e-07
3.60646e-07
3.35159e-07
3.10615e-07
2.87025e-07
2.64391e-07
2.42704e-07
2.21947e-07
2.02092e-07
1.83104e-07
1.64942e-07
1.47558e-07
1.30902e-07
1.14923e-07
9.95791e-08
8.48424e-08
7.07147e-08
5.72463e-08
4.45604e-08
3.28779e-08
2.2527e-08
1.39094e-08
7.39331e-09
3.13309e-09
9.09655e-10
1.20877e-10
7.10139e-13
1.84635e-12
3.13613e-10
2.35813e-09
8.15673e-09
1.9452e-08
3.71661e-08
6.12552e-08
9.09006e-08
1.24847e-07
1.61731e-07
2.00307e-07
2.39547e-07
2.7867e-07
3.17118e-07
3.5452e-07
3.90648e-07
4.25381e-07
4.58678e-07
4.90552e-07
5.21057e-07
5.50271e-07
5.7829e-07
6.05221e-07
6.31175e-07
6.56266e-07
6.80605e-07
7.04299e-07
7.27451e-07
7.50156e-07
7.72502e-07
7.94567e-07
8.16422e-07
8.3813e-07
8.59743e-07
8.81305e-07
9.02854e-07
9.24418e-07
9.46017e-07
9.67667e-07
9.89375e-07
1.01114e-06
1.03296e-06
1.05483e-06
1.07673e-06
1.09864e-06
1.12053e-06
1.14238e-06
1.16415e-06
1.1858e-06
1.20729e-06
1.22857e-06
1.24958e-06
1.27028e-06
1.2906e-06
1.31048e-06
1.32984e-06
1.34861e-06
1.36673e-06
1.3841e-06
1.40066e-06
1.4163e-06
1.43096e-06
1.44454e-06
1.45695e-06
1.46811e-06
1.47794e-06
1.48635e-06
1.49325e-06
1.49857e-06
1.50223e-06
1.504e-06
1.50425e-06
1.50263e-06
1.49909e-06
1.49358e-06
1.48609e-06
1.47659e-06
1.46508e-06
1.45155e-06
1.436e-06
1.41846e-06
1.39896e-06
1.37754e-06
1.35424e-06
1.32913e-06
1.30228e-06
1.27378e-06
1.24373e-06
1.21222e-06
1.17938e-06
1.14531e-06
1.11015e-06
1.07403e-06
1.0371e-06
9.99483e-07
9.61335e-07
9.22799e-07
8.8402e-07
8.45141e-07
8.06302e-07
7.6764e-07
7.29284e-07
6.91358e-07
6.53978e-07
6.17251e-07
5.81274e-07
5.46133e-07
5.11905e-07
4.78653e-07
4.46429e-07
4.15275e-07
3.85216e-07
3.56269e-07
3.28436e-07
3.0171e-07
2.76069e-07
2.51483e-07
2.27911e-07
2.05304e-07
1.83607e-07
1.62761e-07
1.42713e-07
1.23418e-07
1.04859e-07
8.70603e-08
7.01149e-08
5.42138e-08
3.96704e-08
2.69167e-08
1.64418e-08
8.64528e-09
3.62834e-09
1.0458e-09
1.38383e-10
8.11794e-13
2.11746e-12
3.60085e-10
2.71632e-09
9.44678e-09
2.26922e-08
4.37214e-08
7.26897e-08
1.08781e-07
1.50551e-07
1.96325e-07
2.44491e-07
2.93677e-07
3.4281e-07
3.91106e-07
4.38036e-07
4.83271e-07
5.26634e-07
5.68063e-07
6.07573e-07
6.45237e-07
6.81163e-07
7.15485e-07
7.48348e-07
7.79907e-07
8.10314e-07
8.39719e-07
8.68267e-07
8.96094e-07
9.23324e-07
9.50073e-07
9.76442e-07
1.00252e-06
1.02839e-06
1.05412e-06
1.07976e-06
1.10535e-06
1.13094e-06
1.15654e-06
1.18217e-06
1.20784e-06
1.23354e-06
1.25927e-06
1.28502e-06
1.31076e-06
1.33646e-06
1.36209e-06
1.38761e-06
1.41298e-06
1.43814e-06
1.46304e-06
1.48763e-06
1.51182e-06
1.53556e-06
1.55878e-06
1.58138e-06
1.60329e-06
1.62443e-06
1.64469e-06
1.66401e-06
1.68226e-06
1.69938e-06
1.71524e-06
1.72977e-06
1.74286e-06
1.75443e-06
1.76437e-06
1.7726e-06
1.77903e-06
1.7836e-06
1.78606e-06
1.78644e-06
1.7852e-06
1.78163e-06
1.77584e-06
1.76779e-06
1.75749e-06
1.7449e-06
1.73003e-06
1.71289e-06
1.69348e-06
1.67184e-06
1.64801e-06
1.62204e-06
1.59399e-06
1.56393e-06
1.53195e-06
1.49816e-06
1.46264e-06
1.42553e-06
1.38694e-06
1.34701e-06
1.30588e-06
1.2637e-06
1.22063e-06
1.17681e-06
1.1324e-06
1.08757e-06
1.04247e-06
9.97258e-07
9.52094e-07
9.07124e-07
8.62493e-07
8.18337e-07
7.74784e-07
7.31953e-07
6.89954e-07
6.48883e-07
6.08826e-07
5.69856e-07
5.32032e-07
4.954e-07
4.59993e-07
4.25829e-07
3.92913e-07
3.61235e-07
3.30774e-07
3.01495e-07
2.73352e-07
2.4629e-07
2.20248e-07
1.95162e-07
1.70975e-07
1.4765e-07
1.25181e-07
1.03623e-07
8.31201e-08
6.394e-08
4.64933e-08
3.13162e-08
1.89789e-08
9.90207e-09
4.12768e-09
1.18379e-09
1.56193e-10
9.1537e-13
2.40394e-12
4.09174e-10
3.09424e-09
1.08054e-08
2.60985e-08
5.06059e-08
8.47e-08
1.27582e-07
1.77629e-07
2.32841e-07
2.91226e-07
3.51033e-07
4.10863e-07
4.69682e-07
5.26778e-07
5.81708e-07
6.3423e-07
6.84257e-07
7.31808e-07
7.76978e-07
8.19912e-07
8.60784e-07
8.99787e-07
9.3712e-07
9.72983e-07
1.00757e-06
1.04107e-06
1.07364e-06
1.10546e-06
1.13665e-06
1.16735e-06
1.19768e-06
1.22772e-06
1.25755e-06
1.28725e-06
1.31685e-06
1.34641e-06
1.37594e-06
1.40547e-06
1.43499e-06
1.4645e-06
1.49399e-06
1.52343e-06
1.5528e-06
1.58206e-06
1.61116e-06
1.64005e-06
1.66869e-06
1.697e-06
1.72491e-06
1.75236e-06
1.77927e-06
1.80554e-06
1.83111e-06
1.85586e-06
1.87972e-06
1.90258e-06
1.92434e-06
1.9449e-06
1.96416e-06
1.98201e-06
1.99835e-06
2.01309e-06
2.02611e-06
2.03732e-06
2.04663e-06
2.05395e-06
2.05919e-06
2.06229e-06
2.06288e-06
2.06124e-06
2.05792e-06
2.05183e-06
2.04326e-06
2.0322e-06
2.01864e-06
2.00258e-06
1.98403e-06
1.96299e-06
1.93951e-06
1.91361e-06
1.88534e-06
1.85477e-06
1.82197e-06
1.78702e-06
1.75001e-06
1.71107e-06
1.67029e-06
1.62781e-06
1.58376e-06
1.53828e-06
1.49154e-06
1.44367e-06
1.39486e-06
1.34525e-06
1.29503e-06
1.24435e-06
1.19339e-06
1.14232e-06
1.0913e-06
1.0405e-06
9.90058e-07
9.40131e-07
8.90855e-07
8.4236e-07
7.94761e-07
7.48167e-07
7.02669e-07
6.58347e-07
6.15267e-07
5.7348e-07
5.33021e-07
4.93911e-07
4.56157e-07
4.19747e-07
3.84659e-07
3.50854e-07
3.18281e-07
2.86881e-07
2.56587e-07
2.27332e-07
1.99061e-07
1.71741e-07
1.45386e-07
1.20085e-07
9.60403e-08
7.35974e-08
5.3267e-08
3.56878e-08
2.1506e-08
1.11589e-08
4.62969e-09
1.32322e-09
1.74253e-10
1.02054e-12
2.70623e-12
4.60961e-10
3.49268e-09
1.22361e-08
2.968e-08
5.78354e-08
9.7304e-08
1.47308e-07
2.06046e-07
2.71185e-07
3.40326e-07
4.11316e-07
4.82407e-07
5.52287e-07
6.2005e-07
6.85126e-07
7.47204e-07
8.06171e-07
8.62053e-07
9.14969e-07
9.65105e-07
1.01268e-06
1.05795e-06
1.10115e-06
1.14253e-06
1.18235e-06
1.22082e-06
1.25815e-06
1.29455e-06
1.33017e-06
1.36518e-06
1.3997e-06
1.43385e-06
1.46772e-06
1.50138e-06
1.53489e-06
1.56828e-06
1.6016e-06
1.63484e-06
1.66802e-06
1.70111e-06
1.7341e-06
1.76696e-06
1.79965e-06
1.83211e-06
1.8643e-06
1.89616e-06
1.92761e-06
1.95857e-06
1.98898e-06
2.01874e-06
2.04777e-06
2.07596e-06
2.10323e-06
2.12946e-06
2.15456e-06
2.17842e-06
2.20092e-06
2.22198e-06
2.24146e-06
2.25928e-06
2.27531e-06
2.28947e-06
2.30165e-06
2.31176e-06
2.3197e-06
2.32539e-06
2.32875e-06
2.32972e-06
2.32781e-06
2.32364e-06
2.31759e-06
2.30862e-06
2.29682e-06
2.28234e-06
2.2652e-06
2.2454e-06
2.22294e-06
2.19787e-06
2.1702e-06
2.14e-06
2.10731e-06
2.07221e-06
2.03478e-06
1.9951e-06
1.95329e-06
1.90946e-06
1.86372e-06
1.81621e-06
1.76708e-06
1.71647e-06
1.66453e-06
1.61144e-06
1.55737e-06
1.50247e-06
1.44693e-06
1.39093e-06
1.33464e-06
1.27824e-06
1.2219e-06
1.16578e-06
1.11005e-06
1.05487e-06
1.00037e-06
9.46707e-07
8.93989e-07
8.42334e-07
7.91842e-07
7.42598e-07
6.94671e-07
6.48117e-07
6.02973e-07
5.59263e-07
5.16991e-07
4.76149e-07
4.36708e-07
3.98628e-07
3.61854e-07
3.26321e-07
2.91958e-07
2.58697e-07
2.26484e-07
1.95295e-07
1.65164e-07
1.36219e-07
1.08718e-07
8.30877e-08
5.99379e-08
4.00064e-08
2.40133e-08
1.24126e-08
5.13338e-09
1.46382e-09
1.92524e-10
1.12707e-12
3.02478e-12
5.15533e-10
3.91241e-09
1.3742e-08
3.34458e-08
6.5428e-08
1.10527e-07
1.67983e-07
2.35812e-07
3.11327e-07
3.91701e-07
4.74358e-07
5.57176e-07
6.38554e-07
7.17377e-07
7.92942e-07
8.64868e-07
9.33017e-07
9.97424e-07
1.05824e-06
1.11569e-06
1.17006e-06
1.22163e-06
1.27073e-06
1.31764e-06
1.36267e-06
1.40609e-06
1.44814e-06
1.48906e-06
1.52904e-06
1.56826e-06
1.60688e-06
1.64502e-06
1.68278e-06
1.72025e-06
1.75748e-06
1.79452e-06
1.83139e-06
1.8681e-06
1.90464e-06
1.94101e-06
1.97716e-06
2.01305e-06
2.04865e-06
2.08388e-06
2.11868e-06
2.15298e-06
2.1867e-06
2.21975e-06
2.25204e-06
2.28347e-06
2.31394e-06
2.34335e-06
2.37159e-06
2.39856e-06
2.42414e-06
2.44822e-06
2.47069e-06
2.49144e-06
2.51037e-06
2.52736e-06
2.54232e-06
2.55514e-06
2.56574e-06
2.57403e-06
2.57991e-06
2.58332e-06
2.58419e-06
2.58243e-06
2.57746e-06
2.57042e-06
2.56106e-06
2.54891e-06
2.53355e-06
2.5154e-06
2.49447e-06
2.47076e-06
2.44432e-06
2.41516e-06
2.38333e-06
2.34889e-06
2.31191e-06
2.27245e-06
2.23061e-06
2.18648e-06
2.14016e-06
2.09179e-06
2.04147e-06
1.98935e-06
1.93558e-06
1.88029e-06
1.82366e-06
1.76585e-06
1.70704e-06
1.64738e-06
1.58708e-06
1.52629e-06
1.46522e-06
1.40403e-06
1.34291e-06
1.28202e-06
1.22154e-06
1.16162e-06
1.10242e-06
1.04408e-06
9.86733e-07
9.30493e-07
8.75466e-07
8.21743e-07
7.69396e-07
7.18484e-07
6.69047e-07
6.21109e-07
5.74676e-07
5.29735e-07
4.86258e-07
4.44199e-07
4.03501e-07
3.64094e-07
3.25903e-07
2.88858e-07
2.52907e-07
2.18037e-07
1.84303e-07
1.51867e-07
1.21046e-07
9.23463e-08
6.64714e-08
4.42566e-08
2.64951e-08
1.36614e-08
5.63814e-09
1.60543e-09
2.10984e-10
1.23482e-12
3.36006e-12
5.72974e-10
4.35418e-09
1.53264e-08
3.74047e-08
7.34014e-08
1.24396e-07
1.89642e-07
2.66957e-07
3.53276e-07
4.45325e-07
5.40077e-07
6.35022e-07
7.28256e-07
8.18448e-07
9.04761e-07
9.86744e-07
1.06424e-06
1.13729e-06
1.20608e-06
1.2709e-06
1.33207e-06
1.38995e-06
1.44492e-06
1.49731e-06
1.54749e-06
1.59577e-06
1.64245e-06
1.68777e-06
1.73199e-06
1.77529e-06
1.81784e-06
1.85979e-06
1.90125e-06
1.9423e-06
1.98301e-06
2.02342e-06
2.06355e-06
2.1034e-06
2.14295e-06
2.1822e-06
2.22108e-06
2.25956e-06
2.29757e-06
2.33505e-06
2.3719e-06
2.40806e-06
2.44343e-06
2.47791e-06
2.5114e-06
2.54379e-06
2.57499e-06
2.60487e-06
2.63333e-06
2.66025e-06
2.68553e-06
2.70905e-06
2.7307e-06
2.75037e-06
2.76797e-06
2.78339e-06
2.79654e-06
2.80732e-06
2.81566e-06
2.82148e-06
2.82471e-06
2.82529e-06
2.82316e-06
2.81808e-06
2.80971e-06
2.7995e-06
2.78645e-06
2.77081e-06
2.75176e-06
2.72978e-06
2.70495e-06
2.67731e-06
2.64689e-06
2.61372e-06
2.57785e-06
2.53935e-06
2.49829e-06
2.45474e-06
2.40879e-06
2.36054e-06
2.3101e-06
2.25759e-06
2.20314e-06
2.14687e-06
2.08894e-06
2.02949e-06
1.96868e-06
1.90668e-06
1.84366e-06
1.7798e-06
1.71527e-06
1.65025e-06
1.58494e-06
1.51951e-06
1.45413e-06
1.389e-06
1.32428e-06
1.26014e-06
1.19673e-06
1.1342e-06
1.07269e-06
1.01232e-06
9.53205e-07
8.9543e-07
8.39077e-07
7.84206e-07
7.30861e-07
6.79065e-07
6.28825e-07
5.80127e-07
5.3294e-07
4.87215e-07
4.42891e-07
3.99893e-07
3.58143e-07
3.17569e-07
2.78122e-07
2.39796e-07
2.02667e-07
1.66932e-07
1.32961e-07
1.01335e-07
7.28481e-08
4.84302e-08
2.89486e-08
1.49046e-08
6.14382e-09
1.748e-09
2.29623e-10
1.34373e-12
3.71253e-12
6.33366e-10
4.81871e-09
1.69921e-08
4.15648e-08
8.17727e-08
1.38941e-07
2.12323e-07
2.9952e-07
3.97064e-07
5.01204e-07
6.08442e-07
7.15866e-07
8.21256e-07
9.23065e-07
1.02032e-06
1.11251e-06
1.19944e-06
1.2812e-06
1.35799e-06
1.43017e-06
1.49811e-06
1.56224e-06
1.62299e-06
1.68078e-06
1.736e-06
1.78902e-06
1.84017e-06
1.88975e-06
1.93802e-06
1.9852e-06
2.03147e-06
2.077e-06
2.1219e-06
2.16626e-06
2.21013e-06
2.25357e-06
2.29659e-06
2.33918e-06
2.38133e-06
2.42299e-06
2.46412e-06
2.50465e-06
2.54452e-06
2.58365e-06
2.62194e-06
2.65931e-06
2.69565e-06
2.73086e-06
2.76483e-06
2.79745e-06
2.82861e-06
2.8582e-06
2.88611e-06
2.91221e-06
2.93642e-06
2.95861e-06
2.97868e-06
2.99654e-06
3.01209e-06
3.02525e-06
3.03592e-06
3.04404e-06
3.04953e-06
3.05233e-06
3.05239e-06
3.04966e-06
3.04411e-06
3.03527e-06
3.02353e-06
3.00969e-06
2.99281e-06
2.97333e-06
2.95066e-06
2.92479e-06
2.89609e-06
2.86458e-06
2.83029e-06
2.79327e-06
2.75358e-06
2.71127e-06
2.66642e-06
2.61911e-06
2.56943e-06
2.51746e-06
2.46333e-06
2.40714e-06
2.34903e-06
2.28911e-06
2.22752e-06
2.16443e-06
2.09998e-06
2.03433e-06
1.96765e-06
1.90011e-06
1.8319e-06
1.76319e-06
1.69416e-06
1.62501e-06
1.5559e-06
1.48703e-06
1.41856e-06
1.35066e-06
1.2835e-06
1.21724e-06
1.152e-06
1.08792e-06
1.02512e-06
9.63686e-07
9.03708e-07
8.45248e-07
7.88351e-07
7.33044e-07
6.79332e-07
6.27201e-07
5.76619e-07
5.27533e-07
4.79878e-07
4.33576e-07
3.88543e-07
3.44708e-07
3.0202e-07
2.60482e-07
2.20187e-07
1.81364e-07
1.4443e-07
1.10035e-07
7.906e-08
5.25251e-08
3.13739e-08
1.61424e-08
6.65061e-09
1.89157e-09
2.48449e-10
1.45385e-12
4.0826e-12
6.96785e-10
5.30663e-09
1.87419e-08
4.59336e-08
9.05574e-08
1.54186e-07
2.36061e-07
3.33542e-07
4.42728e-07
5.5936e-07
6.79452e-07
7.99669e-07
9.17474e-07
1.0311e-06
1.13944e-06
1.24192e-06
1.33835e-06
1.42882e-06
1.51359e-06
1.59307e-06
1.6677e-06
1.73798e-06
1.8044e-06
1.86743e-06
1.92754e-06
1.98512e-06
2.04056e-06
2.09418e-06
2.14628e-06
2.1971e-06
2.24683e-06
2.29564e-06
2.34366e-06
2.39098e-06
2.43766e-06
2.48374e-06
2.52922e-06
2.57409e-06
2.61833e-06
2.66189e-06
2.70471e-06
2.74672e-06
2.78784e-06
2.82798e-06
2.86705e-06
2.90494e-06
2.94154e-06
2.97676e-06
3.01047e-06
3.04257e-06
3.07294e-06
3.10148e-06
3.12807e-06
3.15261e-06
3.175e-06
3.19514e-06
3.21294e-06
3.22831e-06
3.24117e-06
3.25145e-06
3.25907e-06
3.26398e-06
3.26613e-06
3.26547e-06
3.26197e-06
3.25558e-06
3.24626e-06
3.23341e-06
3.21825e-06
3.20055e-06
3.1798e-06
3.15634e-06
3.13011e-06
3.10043e-06
3.06797e-06
3.03274e-06
2.9948e-06
2.95418e-06
2.91095e-06
2.86515e-06
2.81688e-06
2.76619e-06
2.71318e-06
2.65795e-06
2.60058e-06
2.5412e-06
2.47991e-06
2.41685e-06
2.35214e-06
2.28593e-06
2.21836e-06
2.14959e-06
2.07979e-06
2.00911e-06
1.93773e-06
1.86584e-06
1.79361e-06
1.72122e-06
1.64886e-06
1.5767e-06
1.50494e-06
1.43373e-06
1.36324e-06
1.29364e-06
1.22507e-06
1.15766e-06
1.09154e-06
1.0268e-06
9.63534e-07
9.01814e-07
8.41685e-07
7.83176e-07
7.26295e-07
6.71027e-07
6.17337e-07
5.65174e-07
5.14466e-07
4.65131e-07
4.17084e-07
3.70249e-07
3.24575e-07
2.80073e-07
2.36846e-07
1.95151e-07
1.55447e-07
1.18446e-07
8.51089e-08
5.65439e-08
3.37731e-08
1.73764e-08
7.15912e-09
2.03632e-09
2.67482e-10
1.5653e-12
4.47066e-12
7.63299e-10
5.81854e-09
2.05781e-08
5.05173e-08
9.9769e-08
1.70155e-07
2.60888e-07
3.69061e-07
4.90304e-07
6.19821e-07
7.53112e-07
8.86411e-07
1.01686e-06
1.14246e-06
1.262e-06
1.37482e-06
1.48075e-06
1.57989e-06
1.67258e-06
1.75926e-06
1.84046e-06
1.91674e-06
1.98867e-06
2.05677e-06
2.12155e-06
2.18348e-06
2.24297e-06
2.30039e-06
2.35604e-06
2.41019e-06
2.46306e-06
2.51482e-06
2.5656e-06
2.61548e-06
2.66454e-06
2.71279e-06
2.76025e-06