/*--------------------------------*- C++ -*----------------------------------*\
  =========                 |
  \\      /  F ield         | OpenFOAM: The Open Source CFD Toolbox
   \\    /   O peration     | Website:  https://openfoam.org
    \\  /    A nd           | Version:  12
     \\/     M anipulation  |
\*---------------------------------------------------------------------------*/
FoamFile
{
    format      ascii;
    class       volVectorField;
    location    "2";
    object      U;
}
// * * * * * * * * * * * * * * * * * * * * * * * * * * * * * * * * * * * * * //

dimensions      [0 1 -1 0 0 0 0];

internalField   nonuniform List<vector> 
18225
(
(6.37615e-07 -8.04149e-07 0)
(1.20133e-05 -3.85379e-06 0)
(3.38648e-05 -5.73783e-06 0)
(6.17362e-05 -6.42605e-06 0)
(9.07753e-05 -6.33968e-06 0)
(0.000117757 -5.7708e-06 0)
(0.000140536 -4.91432e-06 0)
(0.000157717 -3.90403e-06 0)
(0.00016845 -2.82916e-06 0)
(0.000172281 -1.74309e-06 0)
(0.000169031 -6.81024e-07 0)
(0.000158709 3.39943e-07 0)
(0.000141449 1.30924e-06 0)
(0.00011746 2.22523e-06 0)
(8.69901e-05 3.08907e-06 0)
(5.03039e-05 3.90448e-06 0)
(7.66298e-06 4.67651e-06 0)
(-4.06865e-05 5.41069e-06 0)
(-9.45217e-05 6.11378e-06 0)
(-0.000153648 6.79127e-06 0)
(-0.000217899 7.44871e-06 0)
(-0.000287137 8.08986e-06 0)
(-0.000361252 8.71918e-06 0)
(-0.000440158 9.34005e-06 0)
(-0.000523793 9.95582e-06 0)
(-0.00061211 1.05692e-05 0)
(-0.000705078 1.11824e-05 0)
(-0.000802672 1.17975e-05 0)
(-0.000904873 1.24154e-05 0)
(-0.00101166 1.30373e-05 0)
(-0.00112302 1.3663e-05 0)
(-0.00123891 1.42922e-05 0)
(-0.00135928 1.49235e-05 0)
(-0.00148407 1.55552e-05 0)
(-0.00161321 1.61844e-05 0)
(-0.00174657 1.68081e-05 0)
(-0.00188402 1.74224e-05 0)
(-0.00202539 1.80227e-05 0)
(-0.00217048 1.86041e-05 0)
(-0.00231906 1.91612e-05 0)
(-0.00247085 1.96885e-05 0)
(-0.00262554 2.01797e-05 0)
(-0.00278278 2.0629e-05 0)
(-0.00294218 2.103e-05 0)
(-0.00310329 2.13767e-05 0)
(-0.00326566 2.16626e-05 0)
(-0.00342876 2.18811e-05 0)
(-0.00359205 2.20258e-05 0)
(-0.00375492 2.20898e-05 0)
(-0.00391674 2.20667e-05 0)
(-0.00407685 2.19507e-05 0)
(-0.00423455 2.17361e-05 0)
(-0.00438911 2.1418e-05 0)
(-0.00453976 2.09914e-05 0)
(-0.00468573 2.04518e-05 0)
(-0.00482621 1.97949e-05 0)
(-0.00496038 1.90171e-05 0)
(-0.00508742 1.81154e-05 0)
(-0.00520649 1.70877e-05 0)
(-0.00531677 1.5933e-05 0)
(-0.00541742 1.4651e-05 0)
(-0.00550765 1.32429e-05 0)
(-0.00558667 1.17108e-05 0)
(-0.00565371 1.00583e-05 0)
(-0.00570806 8.28897e-06 0)
(-0.00574904 6.40793e-06 0)
(-0.00577604 4.42289e-06 0)
(-0.00578847 2.35822e-06 0)
(-0.00578592 1.9407e-07 0)
(-0.00576788 -2.03423e-06 0)
(-0.00573405 -4.32373e-06 0)
(-0.00568419 -6.65867e-06 0)
(-0.00561816 -9.0237e-06 0)
(-0.0055359 -1.14027e-05 0)
(-0.00543747 -1.37785e-05 0)
(-0.00532305 -1.61334e-05 0)
(-0.00519293 -1.8449e-05 0)
(-0.00504748 -2.07063e-05 0)
(-0.00488725 -2.28865e-05 0)
(-0.00471284 -2.49706e-05 0)
(-0.004525 -2.69399e-05 0)
(-0.00432458 -2.87763e-05 0)
(-0.00411255 -3.04624e-05 0)
(-0.00388996 -3.19819e-05 0)
(-0.00365795 -3.33197e-05 0)
(-0.00341776 -3.44622e-05 0)
(-0.0031707 -3.53977e-05 0)
(-0.00291815 -3.61162e-05 0)
(-0.00266151 -3.66099e-05 0)
(-0.00240226 -3.68733e-05 0)
(-0.00214189 -3.69033e-05 0)
(-0.00188188 -3.66991e-05 0)
(-0.00162375 -3.62625e-05 0)
(-0.00136897 -3.55978e-05 0)
(-0.00111898 -3.47118e-05 0)
(-0.000875197 -3.36134e-05 0)
(-0.000638962 -3.23139e-05 0)
(-0.00041155 -3.08268e-05 0)
(-0.00019415 -2.91672e-05 0)
(1.21384e-05 -2.73519e-05 0)
(0.000206321 -2.53991e-05 0)
(0.000387514 -2.33281e-05 0)
(0.00055495 -2.11594e-05 0)
(0.000707979 -1.89096e-05 0)
(0.00084608 -1.66017e-05 0)
(0.000968861 -1.42579e-05 0)
(0.00107605 -1.18964e-05 0)
(0.0011675 -9.53597e-06 0)
(0.00124318 -7.1948e-06 0)
(0.00130318 -4.88983e-06 0)
(0.0013477 -2.63665e-06 0)
(0.00137705 -4.49551e-07 0)
(0.00139163 1.65834e-06 0)
(0.00139193 3.67668e-06 0)
(0.00137853 5.59377e-06 0)
(0.00135208 7.40357e-06 0)
(0.00131332 9.0958e-06 0)
(0.00126304 1.06631e-05 0)
(0.00120213 1.20975e-05 0)
(0.00113154 1.33905e-05 0)
(0.0010523 1.4532e-05 0)
(0.000965531 1.55088e-05 0)
(0.000872471 1.63038e-05 0)
(0.000774483 1.6894e-05 0)
(0.000673092 1.72482e-05 0)
(0.000570024 1.73242e-05 0)
(0.000467249 1.70651e-05 0)
(0.000367036 1.63953e-05 0)
(0.000272019 1.52153e-05 0)
(0.000185241 1.33994e-05 0)
(0.000110185 1.08021e-05 0)
(5.07019e-05 7.27573e-06 0)
(1.06321e-05 2.73893e-06 0)
(-7.50443e-06 -2.3526e-06 0)
(-5.31045e-06 -5.31091e-06 0)
(3.70894e-06 -1.20622e-05 0)
(3.46288e-05 -3.46526e-05 0)
(8.49611e-05 -4.92835e-05 0)
(0.00014586 -5.52055e-05 0)
(0.000207701 -5.40764e-05 0)
(0.000263475 -4.78365e-05 0)
(0.000308156 -3.80993e-05 0)
(0.000338204 -2.61087e-05 0)
(0.000351284 -1.27819e-05 0)
(0.000345989 1.21808e-06 0)
(0.000321609 1.54286e-05 0)
(0.000277936 2.95326e-05 0)
(0.000215118 4.33244e-05 0)
(0.000133537 5.6679e-05 0)
(3.37171e-05 6.95344e-05 0)
(-8.37426e-05 8.1875e-05 0)
(-0.000218224 9.37154e-05 0)
(-0.000369127 0.000105092 0)
(-0.000535883 0.00011605 0)
(-0.000717982 0.000126644 0)
(-0.000914977 0.000136931 0)
(-0.00112649 0.000146967 0)
(-0.00135222 0.000156805 0)
(-0.00159189 0.00016649 0)
(-0.00184532 0.000176063 0)
(-0.00211234 0.000185552 0)
(-0.00239282 0.00019498 0)
(-0.00268664 0.00020436 0)
(-0.0029937 0.000213695 0)
(-0.00331388 0.000222978 0)
(-0.00364703 0.000232196 0)
(-0.00399299 0.000241324 0)
(-0.00435155 0.00025033 0)
(-0.00472244 0.000259175 0)
(-0.00510533 0.000267812 0)
(-0.00549982 0.000276187 0)
(-0.00590542 0.000284242 0)
(-0.00632158 0.000291911 0)
(-0.00674762 0.000299127 0)
(-0.00718278 0.000305815 0)
(-0.00762621 0.000311901 0)
(-0.00807694 0.000317304 0)
(-0.00853387 0.000321944 0)
(-0.00899584 0.000325741 0)
(-0.00946153 0.000328612 0)
(-0.00992955 0.000330475 0)
(-0.0103984 0.00033125 0)
(-0.0108664 0.000330857 0)
(-0.0113318 0.000329219 0)
(-0.0117929 0.000326262 0)
(-0.0122477 0.000321918 0)
(-0.0126943 0.000316124 0)
(-0.0131305 0.000308821 0)
(-0.0135543 0.000299961 0)
(-0.0139633 0.0002895 0)
(-0.0143555 0.000277405 0)
(-0.0147285 0.000263651 0)
(-0.0150801 0.000248225 0)
(-0.015408 0.000231126 0)
(-0.01571 0.000212366 0)
(-0.0159838 0.000191969 0)
(-0.0162272 0.000169974 0)
(-0.0164383 0.000146436 0)
(-0.0166149 0.000121422 0)
(-0.0167553 9.50128e-05 0)
(-0.0168576 6.72978e-05 0)
(-0.0169204 3.8403e-05 0)
(-0.0169421 8.56715e-06 0)
(-0.0169216 -2.2273e-05 0)
(-0.0168578 -5.38298e-05 0)
(-0.01675 -8.59468e-05 0)
(-0.0165976 -0.00011844 0)
(-0.0164004 -0.00015111 0)
(-0.0161584 -0.000183751 0)
(-0.0158718 -0.000216145 0)
(-0.0155412 -0.000248069 0)
(-0.0151675 -0.000279295 0)
(-0.014752 -0.000309593 0)
(-0.0142959 -0.000338734 0)
(-0.0138013 -0.000366488 0)
(-0.01327 -0.000392635 0)
(-0.0127045 -0.000416959 0)
(-0.0121074 -0.000439256 0)
(-0.0114816 -0.000459334 0)
(-0.0108302 -0.000477018 0)
(-0.0101565 -0.000492151 0)
(-0.00946409 -0.000504595 0)
(-0.00875665 -0.000514236 0)
(-0.00803801 -0.000520982 0)
(-0.00731207 -0.000524771 0)
(-0.00658284 -0.000525564 0)
(-0.00585432 -0.000523352 0)
(-0.00513055 -0.000518155 0)
(-0.00441549 -0.000510019 0)
(-0.00371303 -0.000499021 0)
(-0.00302696 -0.000485264 0)
(-0.00236092 -0.000468875 0)
(-0.00171836 -0.000450009 0)
(-0.00110253 -0.000428841 0)
(-0.000516419 -0.000405565 0)
(3.72191e-05 -0.000380395 0)
(0.00055593 -0.000353556 0)
(0.00103756 -0.000325283 0)
(0.00148027 -0.000295828 0)
(0.00188255 -0.000265438 0)
(0.00224321 -0.000234363 0)
(0.0025614 -0.000202852 0)
(0.0028366 -0.000171151 0)
(0.00306862 -0.000139496 0)
(0.00325758 -0.000108115 0)
(0.0034039 -7.72267e-05 0)
(0.00350829 -4.70345e-05 0)
(0.00357176 -1.77306e-05 0)
(0.00359555 1.05066e-05 0)
(0.00358117 3.7506e-05 0)
(0.00353037 6.31148e-05 0)
(0.0034451 8.71855e-05 0)
(0.00332756 0.00010956 0)
(0.00318016 0.000130089 0)
(0.00300554 0.000148612 0)
(0.00280659 0.000164951 0)
(0.00258647 0.000178901 0)
(0.00234864 0.000190221 0)
(0.0020969 0.000198617 0)
(0.0018355 0.000203735 0)
(0.00156914 0.000205138 0)
(0.00130309 0.000202301 0)
(0.00104328 0.000194596 0)
(0.000796322 0.000181308 0)
(0.000569551 0.000161683 0)
(0.000370889 0.000135072 0)
(0.000208473 0.000101285 0)
(8.98412e-05 6.14127e-05 0)
(2.0229e-05 2.02081e-05 0)
(-2.35534e-06 -7.50945e-06 0)
(5.86056e-06 -3.41673e-05 0)
(4.9886e-05 -8.50742e-05 0)
(0.000116079 -0.000115343 0)
(0.000192801 -0.00012613 0)
(0.000267662 -0.000120923 0)
(0.000331639 -0.000103587 0)
(0.000378 -7.75566e-05 0)
(0.00040179 -4.56289e-05 0)
(0.000399569 -9.9794e-06 0)
(0.000369139 2.775e-05 0)
(0.000309275 6.63548e-05 0)
(0.000219478 0.000104977 0)
(9.97845e-05 0.000143035 0)
(-4.94072e-05 0.000180157 0)
(-0.000227456 0.000216134 0)
(-0.000433579 0.000250873 0)
(-0.000666932 0.000284372 0)
(-0.000926666 0.000316688 0)
(-0.00121197 0.00034792 0)
(-0.00152211 0.000378192 0)
(-0.00185641 0.000407637 0)
(-0.00221431 0.000436391 0)
(-0.0025953 0.000464578 0)
(-0.00299897 0.000492312 0)
(-0.00342498 0.000519685 0)
(-0.00387303 0.000546769 0)
(-0.00434284 0.000573611 0)
(-0.00483419 0.000600235 0)
(-0.00534681 0.000626639 0)
(-0.00588045 0.000652796 0)
(-0.00643478 0.000678655 0)
(-0.00700944 0.000704141 0)
(-0.00760399 0.000729159 0)
(-0.00821789 0.000753592 0)
(-0.00885051 0.000777304 0)
(-0.0095011 0.000800145 0)
(-0.0101688 0.000821945 0)
(-0.0108525 0.000842524 0)
(-0.0115511 0.000861689 0)
(-0.0122632 0.000879239 0)
(-0.0129874 0.000894963 0)
(-0.0137221 0.000908646 0)
(-0.0144653 0.000920067 0)
(-0.0152151 0.000929005 0)
(-0.0159693 0.000935239 0)
(-0.0167256 0.000938549 0)
(-0.0174816 0.00093872 0)
(-0.0182345 0.000935541 0)
(-0.0189815 0.000928812 0)
(-0.0197198 0.000918344 0)
(-0.0204462 0.00090396 0)
(-0.0211575 0.0008855 0)
(-0.0218506 0.000862823 0)
(-0.0225219 0.000835807 0)
(-0.023168 0.000804355 0)
(-0.0237855 0.000768394 0)
(-0.0243708 0.000727879 0)
(-0.0249204 0.000682799 0)
(-0.0254309 0.00063317 0)
(-0.0258986 0.000579047 0)
(-0.0263204 0.000520521 0)
(-0.0266928 0.00045772 0)
(-0.0270129 0.000390811 0)
(-0.0272775 0.000320001 0)
(-0.0274839 0.000245536 0)
(-0.0276296 0.000167698 0)
(-0.0277122 8.6829e-05 0)
(-0.0277298 3.32947e-06 0)
(-0.0276805 -8.24453e-05 0)
(-0.027563 -0.000170044 0)
(-0.0273763 -0.000258981 0)
(-0.0271196 -0.000348746 0)
(-0.0267929 -0.000438803 0)
(-0.0263961 -0.00052859 0)
(-0.0259299 -0.000617528 0)
(-0.0253954 -0.000705021 0)
(-0.024794 -0.000790464 0)
(-0.0241276 -0.000873249 0)
(-0.0233986 -0.000952769 0)
(-0.0226099 -0.00102843 0)
(-0.0217647 -0.00109964 0)
(-0.0208667 -0.00116584 0)
(-0.0199199 -0.0012265 0)
(-0.0189288 -0.00128112 0)
(-0.0178983 -0.00132924 0)
(-0.0168333 -0.00137046 0)
(-0.0157394 -0.00140441 0)
(-0.0146221 -0.00143081 0)
(-0.0134873 -0.0014494 0)
(-0.012341 -0.00146003 0)
(-0.0111892 -0.0014626 0)
(-0.010038 -0.00145708 0)
(-0.00889365 -0.00144352 0)
(-0.00776209 -0.00142204 0)
(-0.0066493 -0.00139282 0)
(-0.00556108 -0.00135615 0)
(-0.00450299 -0.00131235 0)
(-0.00348035 -0.0012618 0)
(-0.00249816 -0.00120498 0)
(-0.00156109 -0.00114238 0)
(-0.000673411 -0.00107456 0)
(0.000161024 -0.00100211 0)
(0.000938802 -0.000925655 0)
(0.00165698 -0.000845841 0)
(0.0023131 -0.000763328 0)
(0.0029052 -0.000678785 0)
(0.00343181 -0.000592879 0)
(0.00389198 -0.000506269 0)
(0.00428525 -0.0004196 0)
(0.00461162 -0.000333495 0)
(0.00487161 -0.000248553 0)
(0.00506616 -0.000165344 0)
(0.00519668 -8.44096e-05 0)
(0.00526497 -6.26301e-06 0)
(0.00527326 6.86132e-05 0)
(0.00522417 0.00013976 0)
(0.00512067 0.000206728 0)
(0.00496612 0.000269071 0)
(0.00476426 0.000326339 0)
(0.00451918 0.000378059 0)
(0.0042354 0.000423719 0)
(0.00391785 0.000462744 0)
(0.00357194 0.000494475 0)
(0.0032036 0.00051814 0)
(0.00281936 0.000532837 0)
(0.00242642 0.000537503 0)
(0.00203271 0.000530913 0)
(0.00164695 0.000511688 0)
(0.00127868 0.000478362 0)
(0.000938142 0.000429552 0)
(0.000636044 0.000364325 0)
(0.000382973 0.000282951 0)
(0.000188672 0.000188404 0)
(6.15576e-05 8.98543e-05 0)
(2.74549e-06 1.0651e-05 0)
(6.76863e-06 -6.25774e-05 0)
(5.63413e-05 -0.000146467 0)
(0.000127467 -0.000192187 0)
(0.000206187 -0.000205079 0)
(0.000278331 -0.000191208 0)
(0.000333734 -0.000156681 0)
(0.000364735 -0.000106981 0)
(0.000365566 -4.66871e-05 0)
(0.000332111 2.05247e-05 0)
(0.000261648 9.18089e-05 0)
(0.000152562 0.000165016 0)
(4.10375e-06 0.000238584 0)
(-0.000183828 0.000311411 0)
(-0.000410868 0.00038277 0)
(-0.000676338 0.00045222 0)
(-0.000979368 0.000519548 0)
(-0.00131899 0.000584703 0)
(-0.00169421 0.000647752 0)
(-0.00210406 0.000708845 0)
(-0.00254763 0.000768179 0)
(-0.00302409 0.000825974 0)
(-0.00353271 0.000882457 0)
(-0.00407284 0.000937838 0)
(-0.00464391 0.000992308 0)
(-0.00524543 0.00104602 0)
(-0.00587695 0.00109909 0)
(-0.00653806 0.00115159 0)
(-0.00722834 0.00120355 0)
(-0.00794736 0.00125494 0)
(-0.00869467 0.0013057 0)
(-0.00946972 0.00135572 0)
(-0.0102719 0.00140484 0)
(-0.0111005 0.00145286 0)
(-0.0119546 0.00149956 0)
(-0.0128333 0.00154466 0)
(-0.0137354 0.00158786 0)
(-0.0146596 0.00162885 0)
(-0.0156042 0.00166726 0)
(-0.0165677 0.00170272 0)
(-0.0175481 0.00173485 0)
(-0.0185432 0.00176325 0)
(-0.0195506 0.00178751 0)
(-0.0205679 0.0018072 0)
(-0.0215921 0.00182191 0)
(-0.0226203 0.00183122 0)
(-0.0236492 0.00183473 0)
(-0.0246754 0.00183204 0)
(-0.0256952 0.00182276 0)
(-0.0267049 0.00180651 0)
(-0.0277004 0.00178297 0)
(-0.0286776 0.00175182 0)
(-0.0296321 0.00171277 0)
(-0.0305597 0.00166558 0)
(-0.0314558 0.00161005 0)
(-0.0323158 0.00154602 0)
(-0.0331352 0.00147338 0)
(-0.0339093 0.00139208 0)
(-0.0346336 0.00130213 0)
(-0.0353034 0.00120361 0)
(-0.0359144 0.00109663 0)
(-0.0364623 0.000981423 0)
(-0.0369428 0.000858246 0)
(-0.037352 0.000727452 0)
(-0.0376862 0.000589463 0)
(-0.0379419 0.000444772 0)
(-0.0381159 0.000293948 0)
(-0.0382054 0.000137644 0)
(-0.038208 -2.34113e-05 0)
(-0.0381216 -0.000188465 0)
(-0.0379446 -0.000356669 0)
(-0.0376759 -0.000527111 0)
(-0.0373148 -0.00069883 0)
(-0.0368612 -0.000870816 0)
(-0.0363156 -0.00104202 0)
(-0.0356788 -0.00121136 0)
(-0.0349524 -0.00137773 0)
(-0.0341384 -0.00154001 0)
(-0.0332396 -0.00169707 0)
(-0.032259 -0.00184781 0)
(-0.0312005 -0.00199111 0)
(-0.0300683 -0.00212591 0)
(-0.0288673 -0.00225119 0)
(-0.0276028 -0.00236596 0)
(-0.0262806 -0.00246931 0)
(-0.0249069 -0.00256042 0)
(-0.0234882 -0.00263853 0)
(-0.0220316 -0.00270299 0)
(-0.0205443 -0.00275326 0)
(-0.0190338 -0.00278891 0)
(-0.0175077 -0.00280963 0)
(-0.0159739 -0.00281523 0)
(-0.0144401 -0.00280567 0)
(-0.0129144 -0.00278103 0)
(-0.0114044 -0.00274151 0)
(-0.00991784 -0.00268747 0)
(-0.00846219 -0.00261939 0)
(-0.00704467 -0.00253785 0)
(-0.00567217 -0.00244357 0)
(-0.00435122 -0.00233739 0)
(-0.00308791 -0.00222022 0)
(-0.00188788 -0.00209307 0)
(-0.000756241 -0.00195702 0)
(0.000302463 -0.00181323 0)
(0.00128426 -0.00166287 0)
(0.00218577 -0.00150719 0)
(0.00300428 -0.00134741 0)
(0.00373769 -0.00118478 0)
(0.00438452 -0.00102054 0)
(0.00494398 -0.000855896 0)
(0.00541587 -0.000692042 0)
(0.00580064 -0.000530118 0)
(0.00609932 -0.000371222 0)
(0.00631355 -0.000216399 0)
(0.00644553 -6.66549e-05 0)
(0.006498 7.7052e-05 0)
(0.00647425 0.000213807 0)
(0.00637809 0.000342719 0)
(0.00621381 0.000462898 0)
(0.00598625 0.000573444 0)
(0.00570075 0.000673423 0)
(0.00536318 0.000761833 0)
(0.00497998 0.000837575 0)
(0.00455822 0.000899416 0)
(0.0041056 0.00094595 0)
(0.00363053 0.000975571 0)
(0.00314221 0.000986455 0)
(0.00265065 0.000976563 0)
(0.0021667 0.000943695 0)
(0.00170199 0.000885633 0)
(0.00126882 0.000800442 0)
(0.000879857 0.000687053 0)
(0.000547542 0.000546313 0)
(0.000283882 0.000382846 0)
(0.000101709 0.000208746 0)
(7.31048e-06 5.08471e-05 0)
(6.8573e-06 -9.25204e-05 0)
(5.53589e-05 -0.000208878 0)
(0.000121747 -0.00026683 0)
(0.000190573 -0.000276938 0)
(0.000246679 -0.000248494 0)
(0.000279294 -0.000190133 0)
(0.000280309 -0.000109506 0)
(0.000243577 -1.30695e-05 0)
(0.000164659 9.39282e-05 0)
(4.05507e-05 0.00020734 0)
(-0.000130575 0.000323985 0)
(-0.000349622 0.000441495 0)
(-0.000616789 0.000558175 0)
(-0.000931756 0.000672874 0)
(-0.00129384 0.000784877 0)
(-0.00170214 0.000893802 0)
(-0.00215561 0.000999521 0)
(-0.00265318 0.00110209 0)
(-0.00319377 0.00120171 0)
(-0.00377636 0.00129862 0)
(-0.00439999 0.00139315 0)
(-0.00506382 0.0014856 0)
(-0.00576706 0.00157627 0)
(-0.006509 0.00166542 0)
(-0.007289 0.00175327 0)
(-0.00810647 0.00183997 0)
(-0.00896081 0.0019256 0)
(-0.00985142 0.00201017 0)
(-0.0107777 0.00209363 0)
(-0.0117389 0.00217584 0)
(-0.0127342 0.00225661 0)
(-0.0137628 0.00233566 0)
(-0.0148236 0.00241266 0)
(-0.0159153 0.00248723 0)
(-0.0170366 0.00255892 0)
(-0.0181858 0.00262724 0)
(-0.0193612 0.00269166 0)
(-0.0205607 0.0027516 0)
(-0.0217819 0.00280648 0)
(-0.0230223 0.00285566 0)
(-0.024279 0.0028985 0)
(-0.025549 0.00293436 0)
(-0.026829 0.00296256 0)
(-0.0281152 0.00298245 0)
(-0.029404 0.00299339 0)
(-0.030691 0.00299472 0)
(-0.031972 0.00298583 0)
(-0.0332425 0.00296613 0)
(-0.0344975 0.00293506 0)
(-0.0357322 0.00289211 0)
(-0.0369414 0.0028368 0)
(-0.0381198 0.00276873 0)
(-0.039262 0.00268753 0)
(-0.0403626 0.00259295 0)
(-0.0414159 0.00248475 0)
(-0.0424165 0.00236284 0)
(-0.0433588 0.00222716 0)
(-0.0442372 0.00207779 0)
(-0.0450465 0.00191489 0)
(-0.0457813 0.00173871 0)
(-0.0464366 0.00154963 0)
(-0.0470075 0.00134813 0)
(-0.0474894 0.00113482 0)
(-0.0478779 0.000910389 0)
(-0.0481691 0.00067567 0)
(-0.0483595 0.000431597 0)
(-0.0484459 0.00017922 0)
(-0.0484255 -8.03045e-05 0)
(-0.0482962 -0.000345736 0)
(-0.0480563 -0.000615726 0)
(-0.0477047 -0.000888837 0)
(-0.0472408 -0.00116355 0)
(-0.0466647 -0.00143829 0)
(-0.0459771 -0.0017114 0)
(-0.0451794 -0.0019812 0)
(-0.0442735 -0.00224597 0)
(-0.0432621 -0.00250397 0)
(-0.0421485 -0.00275346 0)
(-0.0409366 -0.00299272 0)
(-0.039631 -0.00322006 0)
(-0.0382369 -0.00343383 0)
(-0.0367602 -0.00363245 0)
(-0.035207 -0.00381442 0)
(-0.0335845 -0.00397834 0)
(-0.0318999 -0.00412295 0)
(-0.0301611 -0.00424709 0)
(-0.0283763 -0.00434975 0)
(-0.0265541 -0.00443012 0)
(-0.0247033 -0.00448752 0)
(-0.0228331 -0.00452147 0)
(-0.0209526 -0.00453169 0)
(-0.0190712 -0.00451808 0)
(-0.017198 -0.00448077 0)
(-0.0153425 -0.00442006 0)
(-0.0135137 -0.00433648 0)
(-0.0117204 -0.00423074 0)
(-0.00997131 -0.00410374 0)
(-0.00827469 -0.00395658 0)
(-0.00663836 -0.00379049 0)
(-0.00506969 -0.0036069 0)
(-0.00357551 -0.00340735 0)
(-0.00216206 -0.00319349 0)
(-0.000834938 -0.0029671 0)
(0.000400911 -0.00273001 0)
(0.00154126 -0.00248413 0)
(0.0025826 -0.00223137 0)
(0.00352219 -0.0019737 0)
(0.00435801 -0.00171305 0)
(0.00508883 -0.00145134 0)
(0.00571417 -0.00119046 0)
(0.00623429 -0.000932212 0)
(0.00665019 -0.000678376 0)
(0.0069636 -0.000430651 0)
(0.00717694 -0.00019067 0)
(0.0072933 4.00151e-05 0)
(0.00731647 0.000259874 0)
(0.00725087 0.000467439 0)
(0.00710157 0.000661245 0)
(0.00687426 0.000839808 0)
(0.0065753 0.0010016 0)
(0.0062117 0.001145 0)
(0.00579115 0.00126826 0)
(0.00532205 0.00136947 0)
(0.00481354 0.00144648 0)
(0.00427557 0.0014969 0)
(0.00371892 0.00151808 0)
(0.0031552 0.00150715 0)
(0.00259687 0.00146109 0)
(0.00205715 0.00137696 0)
(0.00154993 0.00125233 0)
(0.00108949 0.00108595 0)
(0.000690078 0.000878929 0)
(0.000366285 0.000636613 0)
(0.000135913 0.000371843 0)
(1.08781e-05 0.00011064 0)
(6.36998e-06 -0.000120391 0)
(4.85364e-05 -0.000264535 0)
(0.000101971 -0.000329049 0)
(0.000150621 -0.000329877 0)
(0.000179145 -0.000279874 0)
(0.000176616 -0.000190395 0)
(0.000134837 -7.1349e-05 0)
(4.76111e-05 6.89061e-05 0)
(-8.95529e-05 0.000223527 0)
(-0.000279709 0.000387049 0)
(-0.000524739 0.00055523 0)
(-0.00082559 0.000724867 0)
(-0.00118249 0.00089364 0)
(-0.00159513 0.00105994 0)
(-0.00206282 0.00122274 0)
(-0.00258464 0.00138148 0)
(-0.00315951 0.00153592 0)
(-0.00378629 0.00168611 0)
(-0.00446384 0.00183224 0)
(-0.00519107 0.00197464 0)
(-0.00596693 0.0021137 0)
(-0.00679046 0.0022498 0)
(-0.00766077 0.00238331 0)
(-0.00857703 0.00251457 0)
(-0.00953846 0.00264382 0)
(-0.0105443 0.00277124 0)
(-0.0115937 0.00289691 0)
(-0.012686 0.0030208 0)
(-0.0138202 0.00314279 0)
(-0.0149955 0.00326266 0)
(-0.0162106 0.00338008 0)
(-0.0174645 0.00349465 0)
(-0.0187556 0.00360584 0)
(-0.0200823 0.00371309 0)
(-0.0214429 0.00381573 0)
(-0.0228351 0.00391304 0)
(-0.0242567 0.00400423 0)
(-0.025705 0.00408847 0)
(-0.0271771 0.00416489 0)
(-0.0286698 0.00423259 0)
(-0.0301795 0.00429065 0)
(-0.0317025 0.00433813 0)
(-0.0332346 0.00437408 0)
(-0.0347714 0.00439757 0)
(-0.0363082 0.00440768 0)
(-0.0378401 0.00440351 0)
(-0.0393619 0.0043842 0)
(-0.040868 0.00434894 0)
(-0.0423527 0.00429696 0)
(-0.0438103 0.00422756 0)
(-0.0452346 0.00414012 0)
(-0.0466194 0.0040341 0)
(-0.0479586 0.00390905 0)
(-0.0492456 0.00376463 0)
(-0.0504742 0.00360061 0)
(-0.051638 0.00341688 0)
(-0.0527305 0.00321346 0)
(-0.0537457 0.00299049 0)
(-0.0546774 0.00274829 0)
(-0.0555197 0.0024873 0)
(-0.0562669 0.00220811 0)
(-0.0569136 0.00191147 0)
(-0.0574547 0.0015983 0)
(-0.0578856 0.00126965 0)
(-0.058202 0.000926761 0)
(-0.0583999 0.000570997 0)
(-0.058476 0.00020389 0)
(-0.0584276 -0.000172891 0)
(-0.0582523 -0.000557545 0)
(-0.0579485 -0.000948141 0)
(-0.0575152 -0.00134263 0)
(-0.0569521 -0.00173886 0)
(-0.0562594 -0.00213459 0)
(-0.0554381 -0.0025275 0)
(-0.0544901 -0.00291521 0)
(-0.0534176 -0.00329533 0)
(-0.052224 -0.00366542 0)
(-0.050913 -0.00402305 0)
(-0.0494893 -0.00436582 0)
(-0.0479582 -0.00469138 0)
(-0.0463255 -0.00499743 0)
(-0.044598 -0.00528179 0)
(-0.0427828 -0.00554238 0)
(-0.0408879 -0.00577727 0)
(-0.0389214 -0.00598468 0)
(-0.0368923 -0.00616302 0)
(-0.0348099 -0.0063109 0)
(-0.0326838 -0.00642715 0)
(-0.0305239 -0.00651086 0)
(-0.0283405 -0.00656134 0)
(-0.026144 -0.00657818 0)
(-0.0239448 -0.00656124 0)
(-0.0217535 -0.00651067 0)
(-0.0195804 -0.00642687 0)
(-0.017436 -0.00631054 0)
(-0.0153303 -0.00616265 0)
(-0.0132731 -0.00598444 0)
(-0.0112739 -0.00577738 0)
(-0.00934158 -0.0055432 0)
(-0.00748473 -0.00528383 0)
(-0.00571123 -0.00500142 0)
(-0.00402834 -0.00469825 0)
(-0.00244265 -0.0043768 0)
(-0.000960021 -0.00403961 0)
(0.000414484 -0.00368936 0)
(0.0016766 -0.00332875 0)
(0.00282288 -0.00296054 0)
(0.00385076 -0.00258748 0)
(0.00475849 -0.00221229 0)
(0.00554523 -0.00183767 0)
(0.00621096 -0.00146625 0)
(0.00675653 -0.00110058 0)
(0.00718362 -0.000743136 0)
(0.00749472 -0.000396293 0)
(0.00769318 -6.23765e-05 0)
(0.00778306 0.000256389 0)
(0.00776925 0.000557818 0)
(0.00765738 0.000839748 0)
(0.00745383 0.00109999 0)
(0.00716576 0.0013363 0)
(0.00680108 0.00154633 0)
(0.00636847 0.00172761 0)
(0.00587741 0.00187744 0)
(0.00533822 0.00199286 0)
(0.00476204 0.00207064 0)
(0.00416089 0.0021073 0)
(0.00354765 0.0020991 0)
(0.00293603 0.00204222 0)
(0.00234057 0.00193302 0)
(0.00177648 0.00176846 0)
(0.00125954 0.0015469 0)
(0.000805881 0.00126917 0)
(0.000432842 0.000940233 0)
(0.000163038 0.000571773 0)
(1.35211e-05 0.000186249 0)
(5.48361e-06 -0.000143597 0)
(3.72059e-05 -0.00030726 0)
(7.08365e-05 -0.000370347 0)
(9.04944e-05 -0.000353877 0)
(8.13894e-05 -0.000274307 0)
(3.28627e-05 -0.000145778 0)
(-6.30492e-05 1.95199e-05 0)
(-0.000212323 0.000211342 0)
(-0.000419266 0.00042127 0)
(-0.000686789 0.000642549 0)
(-0.00101667 0.000869889 0)
(-0.00140979 0.00109927 0)
(-0.00186632 0.00132774 0)
(-0.00238591 0.00155323 0)
(-0.00296785 0.00177441 0)
(-0.00361118 0.00199051 0)
(-0.00431478 0.00220119 0)
(-0.00507748 0.00240645 0)
(-0.00589811 0.0026065 0)
(-0.00677549 0.00280173 0)
(-0.00770853 0.00299256 0)
(-0.00869617 0.00317946 0)
(-0.00973743 0.00336286 0)
(-0.0108313 0.00354313 0)
(-0.011977 0.00372054 0)
(-0.0131735 0.00389526 0)
(-0.0144198 0.00406735 0)
(-0.0157149 0.00423671 0)
(-0.0170578 0.00440313 0)
(-0.0184471 0.00456626 0)
(-0.0198815 0.00472563 0)
(-0.0213594 0.00488063 0)
(-0.022879 0.00503054 0)
(-0.0244381 0.00517455 0)
(-0.0260345 0.00531174 0)
(-0.0276657 0.00544111 0)
(-0.0293286 0.00556159 0)
(-0.03102 0.00567205 0)
(-0.0327365 0.0057713 0)
(-0.0344741 0.00585812 0)
(-0.0362286 0.00593127 0)
(-0.0379954 0.0059895 0)
(-0.0397698 0.00603155 0)
(-0.0415464 0.00605619 0)
(-0.0433199 0.00606221 0)
(-0.0450844 0.00604843 0)
(-0.0468339 0.00601374 0)
(-0.048562 0.00595708 0)
(-0.0502623 0.00587748 0)
(-0.051928 0.00577407 0)
(-0.0535523 0.00564608 0)
(-0.0551282 0.00549285 0)
(-0.0566487 0.00531385 0)
(-0.0581066 0.00510872 0)
(-0.0594947 0.00487721 0)
(-0.0608062 0.00461929 0)
(-0.0620339 0.00433504 0)
(-0.0631711 0.00402478 0)
(-0.0642111 0.00368899 0)
(-0.0651475 0.00332833 0)
(-0.0659742 0.0029437 0)
(-0.0666854 0.00253618 0)
(-0.0672757 0.00210704 0)
(-0.0677402 0.00165778 0)
(-0.0680742 0.00119008 0)
(-0.0682739 0.000705822 0)
(-0.0683357 0.000207086 0)
(-0.0682569 -0.000303877 0)
(-0.0680352 -0.000824648 0)
(-0.0676691 -0.00135264 0)
(-0.0671576 -0.00188514 0)
(-0.0665007 -0.00241929 0)
(-0.0656989 -0.00295212 0)
(-0.0647535 -0.00348059 0)
(-0.0636667 -0.00400158 0)
(-0.0624412 -0.00451194 0)
(-0.0610807 -0.00500848 0)
(-0.0595896 -0.00548805 0)
(-0.057973 -0.00594751 0)
(-0.0562367 -0.00638379 0)
(-0.0543875 -0.00679393 0)
(-0.0524324 -0.00717507 0)
(-0.0503796 -0.00752452 0)
(-0.0482375 -0.00783976 0)
(-0.0460152 -0.00811848 0)
(-0.0437224 -0.00835861 0)
(-0.0413693 -0.00855834 0)
(-0.0389663 -0.00871615 0)
(-0.0365243 -0.00883081 0)
(-0.0340545 -0.00890143 0)
(-0.0315682 -0.00892744 0)
(-0.0290769 -0.00890864 0)
(-0.026592 -0.00884518 0)
(-0.0241251 -0.00873757 0)
(-0.0216874 -0.00858666 0)
(-0.0192901 -0.00839369 0)
(-0.0169441 -0.00816022 0)
(-0.0146597 -0.00788815 0)
(-0.0124471 -0.00757968 0)
(-0.0103158 -0.0072373 0)
(-0.00827457 -0.00686378 0)
(-0.00633171 -0.00646209 0)
(-0.00449472 -0.00603544 0)
(-0.00277033 -0.00558717 0)
(-0.00116443 -0.00512076 0)
(0.000317935 -0.00463978 0)
(0.00167264 -0.00414787 0)
(0.00289649 -0.00364866 0)
(0.0039872 -0.00314581 0)
(0.00494347 -0.00264291 0)
(0.00576492 -0.0021435 0)
(0.00645216 -0.00165102 0)
(0.00700671 -0.00116884 0)
(0.00743103 -0.000700213 0)
(0.00772849 -0.0002483 0)
(0.00790337 0.000183818 0)
(0.00796083 0.000593132 0)
(0.00790694 0.000976679 0)
(0.00774856 0.00133144 0)
(0.00749344 0.00165436 0)
(0.0071502 0.00194231 0)
(0.00672829 0.00219195 0)
(0.00623806 0.00239975 0)
(0.00569073 0.00256189 0)
(0.0050984 0.00267427 0)
(0.00447408 0.00273252 0)
(0.00383165 0.00273205 0)
(0.00318588 0.00266821 0)
(0.00255239 0.00253656 0)
(0.00194764 0.00233334 0)
(0.00138886 0.00205616 0)
(0.000894042 0.00170496 0)
(0.000483219 0.00128337 0)
(0.000183236 0.000800536 0)
(1.53788e-05 0.000273859 0)
(4.31924e-06 -0.00016016 0)
(2.23695e-05 -0.00033203 0)
(3.05199e-05 -0.000383518 0)
(1.36623e-05 -0.000340231 0)
(-4.18172e-05 -0.000222063 0)
(-0.000145905 -4.58881e-05 0)
(-0.000306034 0.000173879 0)
(-0.000527715 0.00042516 0)
(-0.00081486 0.000698025 0)
(-0.00117006 0.000984485 0)
(-0.00159486 0.00127826 0)
(-0.00208994 0.00157454 0)
(-0.00265533 0.00186978 0)
(-0.00329061 0.00216149 0)
(-0.00399496 0.00244803 0)
(-0.0047674 0.00272842 0)
(-0.00560675 0.00300224 0)
(-0.00651182 0.00326945 0)
(-0.00748137 0.00353025 0)
(-0.00851421 0.00378507 0)
(-0.00960918 0.00403439 0)
(-0.0107651 0.0042787 0)
(-0.011981 0.0045185 0)
(-0.0132558 0.00475416 0)
(-0.0145883 0.00498596 0)
(-0.0159775 0.00521404 0)
(-0.0174223 0.00543838 0)
(-0.0189213 0.00565881 0)
(-0.0204733 0.00587499 0)
(-0.0220766 0.00608639 0)
(-0.0237295 0.00629236 0)
(-0.0254301 0.00649206 0)
(-0.0271761 0.00668454 0)
(-0.0289649 0.00686869 0)
(-0.0307939 0.00704331 0)
(-0.0326599 0.00720708 0)
(-0.0345593 0.0073586 0)
(-0.0364883 0.00749641 0)
(-0.0384428 0.00761896 0)
(-0.0404183 0.0077247 0)
(-0.0424097 0.00781203 0)
(-0.0444119 0.00787937 0)
(-0.0464192 0.00792511 0)
(-0.0484257 0.00794772 0)
(-0.0504251 0.00794566 0)
(-0.0524109 0.0079175 0)
(-0.0543762 0.00786184 0)
(-0.056314 0.00777741 0)
(-0.0582171 0.00766303 0)
(-0.0600779 0.00751767 0)
(-0.0618888 0.00734042 0)
(-0.0636423 0.00713053 0)
(-0.0653305 0.00688744 0)
(-0.0669457 0.00661077 0)
(-0.0684802 0.00630032 0)
(-0.0699264 0.00595614 0)
(-0.0712768 0.00557846 0)
(-0.0725241 0.00516778 0)
(-0.0736612 0.00472482 0)
(-0.0746814 0.00425053 0)
(-0.0755782 0.00374614 0)
(-0.0763456 0.00321312 0)
(-0.076978 0.00265317 0)
(-0.0774703 0.00206827 0)
(-0.0778177 0.00146061 0)
(-0.0780163 0.000832655 0)
(-0.0780626 0.000187067 0)
(-0.0779539 -0.000473263 0)
(-0.0776879 -0.00114524 0)
(-0.0772633 -0.00182559 0)
(-0.0766793 -0.00251085 0)
(-0.075936 -0.00319744 0)
(-0.0750343 -0.00388163 0)
(-0.0739756 -0.00455958 0)
(-0.0727625 -0.00522741 0)
(-0.0713981 -0.00588117 0)
(-0.0698864 -0.00651691 0)
(-0.0682322 -0.00713067 0)
(-0.0664411 -0.00771857 0)
(-0.0645193 -0.00827679 0)
(-0.062474 -0.00880165 0)
(-0.060313 -0.0092896 0)
(-0.0580448 -0.0097373 0)
(-0.0556784 -0.0101416 0)
(-0.0532236 -0.0104997 0)
(-0.0506908 -0.0108089 0)
(-0.0480906 -0.011067 0)
(-0.0454344 -0.0112721 0)
(-0.0427336 -0.0114226 0)
(-0.0400003 -0.0115174 0)
(-0.0372465 -0.0115558 0)
(-0.0344845 -0.0115375 0)
(-0.0317266 -0.0114625 0)
(-0.0289852 -0.0113315 0)
(-0.0262725 -0.0111455 0)
(-0.0236006 -0.010906 0)
(-0.0209811 -0.0106148 0)
(-0.0184255 -0.0102743 0)
(-0.0159448 -0.00988714 0)
(-0.0135493 -0.00945641 0)
(-0.011249 -0.00898549 0)
(-0.00905282 -0.0084781 0)
(-0.00696929 -0.00793817 0)
(-0.00500597 -0.00736989 0)
(-0.00316957 -0.00677761 0)
(-0.00146589 -0.00616582 0)
(0.00010021 -0.00553908 0)
(0.00152487 -0.00490202 0)
(0.00280524 -0.00425925 0)
(0.00393948 -0.00361538 0)
(0.0049268 -0.00297493 0)
(0.00576745 -0.00234235 0)
(0.0064627 -0.00172199 0)
(0.00701486 -0.00111807 0)
(0.00742725 -0.000534721 0)
(0.00770421 2.40476e-05 0)
(0.007851 0.000554263 0)
(0.00787392 0.00105203 0)
(0.0077803 0.00151349 0)
(0.0075783 0.00193464 0)
(0.00727696 0.00231147 0)
(0.00688638 0.00263974 0)
(0.00641757 0.00291499 0)
(0.00588246 0.00313251 0)
(0.00529391 0.00328729 0)
(0.00466573 0.00337404 0)
(0.00401263 0.00338728 0)
(0.00335027 0.00332146 0)
(0.00269527 0.00317124 0)
(0.00206521 0.00293192 0)
(0.00147873 0.00260002 0)
(0.000955628 0.00217406 0)
(0.000518324 0.00165557 0)
(0.000197129 0.00105032 0)
(1.65912e-05 0.000370005 0)
(2.95607e-06 -0.000168545 0)