/*--------------------------------*- C++ -*----------------------------------*\
  =========                 |
  \\      /  F ield         | OpenFOAM: The Open Source CFD Toolbox
   \\    /   O peration     | Website:  https://openfoam.org
    \\  /    A nd           | Version:  12
     \\/     M anipulation  |
\*---------------------------------------------------------------------------*/
FoamFile
{
    format      ascii;
    class       volScalarField;
    location    "0.5";
    object      epsilon;
}
// * * * * * * * * * * * * * * * * * * * * * * * * * * * * * * * * * * * * * //

dimensions      [0 2 -3 0 0 0 0];

internalField   nonuniform List<scalar> 
18225
(
3.69453e-05
0.00024963
0.000553005
0.000909278
0.00129896
0.00170845
0.00212708
0.00254607
0.00295817
0.00335746
0.00373926
0.00409998
0.00443707
0.00474892
0.00503471
0.00529436
0.00552836
0.0057377
0.00592373
0.00608807
0.00623252
0.006359
0.00646943
0.00656571
0.00664966
0.00672301
0.00678733
0.00684402
0.00689435
0.0069394
0.00698011
0.00701729
0.0070516
0.0070836
0.00711374
0.00714237
0.00716978
0.00719619
0.00722177
0.00724666
0.00727095
0.00729472
0.00731802
0.0073409
0.0073634
0.00738554
0.00740737
0.00742891
0.00745021
0.00747131
0.00749226
0.00751314
0.00753402
0.007555
0.0075762
0.00759773
0.00761977
0.00764248
0.00766607
0.00769077
0.00771687
0.00774465
0.00777446
0.00780668
0.00784174
0.00788011
0.00792229
0.00796886
0.00802042
0.00807761
0.00814113
0.00821172
0.00829012
0.00837712
0.00847352
0.0085801
0.00869764
0.0088269
0.00896855
0.00912321
0.00929141
0.00947354
0.00966983
0.00988037
0.010105
0.0103433
0.0105947
0.0108583
0.0111328
0.0114165
0.0117077
0.0120039
0.0123025
0.0126004
0.0128942
0.01318
0.0134537
0.0137107
0.0139463
0.0141557
0.0143336
0.014475
0.0145745
0.0146246
0.0146284
0.0145788
0.0144715
0.0143041
0.0140752
0.0137846
0.0134332
0.0130229
0.0125571
0.0120399
0.0114767
0.0108735
0.0102369
0.0095742
0.00889257
0.00819926
0.00750126
0.00680511
0.00611678
0.00544161
0.00478425
0.00414869
0.00353839
0.00295637
0.00240547
0.0018886
0.00140929
0.000972352
0.000585441
0.000262774
3.88409e-05
6.97674e-05
0.000135452
0.000270401
0.000435166
0.000617187
0.000809203
0.00100588
0.00120297
0.00139697
0.00158508
0.00176504
0.00193514
0.00209418
0.00224136
0.00237631
0.00249896
0.00260954
0.00270849
0.00279646
0.0028742
0.00294256
0.00300243
0.00305472
0.00310033
0.0031401
0.00317486
0.00320535
0.00323222
0.00325608
0.00327744
0.00329674
0.00331436
0.00333063
0.00334579
0.00336007
0.00337364
0.00338663
0.00339914
0.00341126
0.00342305
0.00343456
0.00344582
0.00345687
0.00346771
0.00347838
0.00348888
0.00349923
0.00350945
0.00351955
0.00352957
0.00353952
0.00354945
0.00355938
0.00356936
0.00357945
0.0035897
0.00360021
0.00361104
0.00362229
0.00363409
0.00364655
0.00365983
0.00367408
0.00368949
0.00370626
0.00372461
0.00374479
0.00376707
0.00379173
0.00381909
0.00384947
0.00388322
0.0039207
0.00396228
0.00400834
0.00405926
0.00411539
0.0041771
0.00424471
0.0043185
0.00439872
0.00448555
0.00457909
0.00467938
0.00478633
0.00489974
0.00501932
0.00514459
0.00527495
0.00540963
0.0055477
0.00568804
0.00582936
0.00597017
0.00610884
0.00624352
0.00637224
0.00649286
0.00660312
0.00670071
0.00678331
0.0068484
0.0068935
0.00691525
0.00691503
0.00688944
0.00683669
0.00675563
0.00664569
0.00650681
0.00633945
0.00614462
0.00592385
0.00567917
0.00541304
0.00512831
0.00482811
0.00451575
0.00419463
0.00386811
0.00353943
0.00321164
0.00288753
0.00256958
0.00225998
0.00196061
0.0016731
0.00139892
0.00113944
0.000896136
0.000670829
0.000466141
0.000286643
0.000142662
7.3327e-05
0.000147899
0.00013186
0.000208518
0.000315464
0.000437636
0.000568178
0.000702722
0.000838023
0.000971518
0.00110116
0.00122535
0.00134285
0.00145279
0.00155461
0.00164802
0.00173296
0.00180958
0.00187817
0.00193917
0.0019931
0.00204054
0.0020821
0.00211841
0.00215008
0.00217772
0.00220188
0.00222307
0.00224176
0.00225836
0.00227322
0.00228666
0.00229894
0.00231027
0.00232084
0.0023308
0.00234027
0.00234934
0.00235809
0.00236656
0.00237481
0.00238288
0.00239077
0.00239852
0.00240613
0.00241363
0.00242102
0.00242832
0.00243553
0.00244267
0.00244976
0.00245681
0.00246384
0.00247089
0.00247799
0.00248517
0.00249248
0.00249996
0.00250768
0.00251571
0.00252412
0.00253301
0.00254247
0.00255262
0.00256358
0.00257549
0.00258851
0.00260281
0.00261857
0.002636
0.0026553
0.00267671
0.00270046
0.00272681
0.00275602
0.00278833
0.00282402
0.00286333
0.00290651
0.00295379
0.00300535
0.00306137
0.00312196
0.0031872
0.00325709
0.00333157
0.0034105
0.00349364
0.00358067
0.00367113
0.00376448
0.00386004
0.00395703
0.0040545
0.00415143
0.00424663
0.00433883
0.00442662
0.00450854
0.00458301
0.00464846
0.00470327
0.00474579
0.00477424
0.00478654
0.00478367
0.00476323
0.00472417
0.00466579
0.00458776
0.00449011
0.00437323
0.00423783
0.004085
0.00391611
0.00373286
0.00353714
0.00333105
0.0031168
0.00289664
0.00267281
0.00244746
0.00222263
0.00200019
0.00178182
0.00156902
0.0013631
0.00116522
0.000976472
0.000797932
0.000630833
0.000476818
0.000338515
0.000221137
0.000138675
0.00015525
0.000241247
0.00015774
0.000197256
0.000272476
0.000364217
0.000464685
0.00056947
0.000675553
0.000780664
0.000883042
0.000981318
0.00107446
0.00116172
0.00124263
0.00131691
0.00138451
0.00144552
0.00150017
0.0015488
0.00159181
0.00162965
0.00166282
0.00169181
0.00171711
0.0017392
0.00175852
0.00177547
0.00179043
0.00180372
0.00181564
0.00182642
0.00183628
0.00184539
0.0018539
0.00186193
0.00186957
0.0018769
0.00188397
0.00189084
0.00189754
0.00190409
0.00191052
0.00191684
0.00192306
0.0019292
0.00193526
0.00194125
0.00194719
0.00195308
0.00195895
0.00196479
0.00197063
0.0019765
0.00198242
0.00198842
0.00199453
0.0020008
0.00200727
0.002014
0.00202106
0.0020285
0.00203642
0.0020449
0.00205405
0.00206398
0.0020748
0.00208666
0.0020997
0.00211409
0.00212999
0.00214759
0.00216708
0.00218865
0.00221251
0.00223888
0.00226795
0.00229993
0.002335
0.00237335
0.00241513
0.00246047
0.00250945
0.00256213
0.0026185
0.0026785
0.00274199
0.00280878
0.00287858
0.002951
0.00302559
0.00310177
0.00317889
0.00325617
0.00333274
0.00340766
0.00347987
0.00354826
0.00361163
0.00366876
0.00371839
0.00375927
0.00379015
0.00380941
0.0038161
0.00381059
0.00379113
0.00375702
0.00370781
0.00364334
0.00356368
0.00346921
0.00336053
0.00323852
0.00310428
0.00295911
0.00280449
0.00264199
0.00247331
0.00230013
0.00212415
0.001947
0.00177021
0.00159521
0.0014233
0.00125565
0.0010933
0.000937252
0.000788446
0.000647917
0.000516939
0.000397365
0.000292383
0.000208749
0.000165321
0.000252672
0.000346583
0.00019761
0.000207455
0.000260116
0.000331819
0.000413421
0.000500092
0.000588733
0.000677123
0.000763588
0.000846847
0.000925941
0.00100018
0.00106911
0.00113247
0.00119018
0.00124231
0.00128904
0.00133064
0.00136745
0.00139986
0.00142828
0.00145313
0.00147483
0.00149378
0.00151036
0.00152493
0.0015378
0.00154924
0.00155951
0.00156882
0.00157735
0.00158524
0.00159262
0.0015996
0.00160625
0.00161265
0.00161883
0.00162485
0.00163073
0.00163649
0.00164216
0.00164775
0.00165326
0.00165871
0.0016641
0.00166945
0.00167477
0.00168005
0.00168533
0.0016906
0.00169589
0.00170121
0.00170659
0.00171206
0.00171764
0.00172337
0.0017293
0.00173546
0.00174192
0.00174874
0.00175599
0.00176373
0.00177207
0.0017811
0.00179093
0.00180166
0.00181344
0.00182639
0.00184066
0.00185642
0.00187382
0.00189304
0.00191426
0.00193764
0.00196337
0.00199162
0.00202255
0.00205631
0.00209302
0.0021328
0.00217571
0.00222177
0.00227098
0.00232327
0.0023785
0.00243648
0.00249693
0.00255952
0.0026238
0.00268925
0.00275529
0.00282121
0.00288626
0.00294958
0.00301026
0.00306733
0.00311978
0.00316656
0.00320663
0.00323895
0.00326251
0.00327562
0.00327845
0.00327058
0.00325082
0.00321867
0.00317384
0.00311625
0.00304603
0.00296354
0.00286934
0.00276421
0.00264907
0.00252503
0.00239332
0.00225524
0.00211217
0.00196551
0.00181662
0.00166683
0.0015174
0.00136949
0.00122417
0.00108243
0.000945172
0.000813296
0.000687724
0.000569533
0.000460155
0.000361797
0.000278418
0.00021854
0.000206165
0.000361805
0.00046153
0.000245981
0.000229617
0.000264068
0.000320615
0.000388621
0.000462681
0.000539474
0.000616704
0.000692684
0.000766145
0.000836142
0.000901995
0.000963248
0.00101963
0.00107106
0.00111755
0.00115925
0.0011964
0.0012293
0.00125827
0.00128369
0.00130592
0.00132535
0.00134233
0.00135721
0.00137028
0.00138184
0.00139214
0.0014014
0.0014098
0.00141751
0.00142467
0.00143137
0.00143773
0.0014438
0.00144965
0.00145533
0.00146086
0.00146628
0.0014716
0.00147685
0.00148203
0.00148717
0.00149225
0.0014973
0.00150233
0.00150733
0.00151232
0.00151732
0.00152232
0.00152736
0.00153245
0.0015376
0.00154285
0.00154822
0.00155374
0.00155946
0.00156541
0.00157165
0.00157824
0.00158523
0.0015927
0.00160072
0.00160939
0.0016188
0.00162905
0.00164027
0.00165258
0.00166611
0.00168099
0.00169739
0.00171546
0.00173534
0.00175721
0.00178122
0.00180752
0.00183626
0.00186756
0.00190154
0.00193827
0.00197782
0.0020202
0.00206538
0.00211327
0.00216376
0.00221663
0.00227161
0.00232838
0.0023865
0.0024455
0.0025048
0.00256376
0.00262167
0.00267776
0.0027312
0.00278112
0.00282661
0.00286676
0.00290066
0.00292742
0.00294614
0.00295507
0.00295532
0.00294568
0.00292544
0.0028942
0.00285175
0.00279806
0.00273329
0.0026578
0.0025721
0.00247691
0.00237308
0.00226159
0.00214354
0.00202008
0.00189244
0.00176181
0.00162941
0.00149638
0.0013638
0.00123268
0.00110396
0.000978515
0.00085717
0.000740775
0.000630269
0.000526817
0.000432063
0.000348625
0.000281289
0.000240386
0.000255241
0.000479685
0.000584417
0.000300259
0.000259483
0.000278189
0.000322321
0.000379666
0.000444178
0.000512241
0.000581417
0.000649953
0.000716547
0.000780231
0.00084031
0.000896311
0.00094795
0.000995104
0.00103778
0.0010761
0.00111025
0.00114051
0.00116718
0.00119058
0.00121107
0.00122898
0.00124464
0.00125838
0.00127046
0.00128116
0.0012907
0.0012993
0.00130711
0.0013143
0.00132098
0.00132727
0.00133324
0.00133896
0.00134448
0.00134985
0.0013551
0.00136025
0.00136533
0.00137035
0.00137532
0.00138025
0.00138515
0.00139003
0.0013949
0.00139976
0.00140462
0.0014095
0.00141441
0.00141936
0.00142437
0.00142947
0.00143466
0.00143999
0.00144548
0.00145117
0.00145711
0.00146333
0.00146989
0.00147685
0.00148428
0.00149226
0.00150086
0.00151018
0.00152031
0.00153137
0.00154346
0.00155673
0.00157129
0.00158729
0.00160486
0.00162417
0.00164535
0.00166854
0.0016939
0.00172154
0.00175159
0.00178414
0.00181925
0.00185698
0.00189732
0.00194023
0.00198562
0.00203335
0.00208321
0.00213494
0.00218819
0.00224256
0.00229757
0.00235268
0.00240728
0.0024607
0.00251222
0.00256108
0.00260647
0.00264757
0.00268356
0.00271362
0.00273698
0.00275267
0.00275916
0.00275791
0.00274734
0.00272697
0.00269644
0.00265557
0.00260436
0.00254295
0.0024717
0.0023911
0.00230181
0.00220465
0.00210055
0.00199055
0.00187574
0.00175726
0.00163626
0.00151384
0.00139106
0.00126894
0.00114838
0.00103024
0.000915337
0.000804452
0.000698422
0.000598223
0.000505128
0.000421001
0.000348888
0.000294404
0.000269683
0.000309609
0.000604039
0.000714015
0.000358992
0.000294763
0.000299275
0.000332724
0.000381245
0.000438114
0.000499382
0.000562436
0.00062542
0.000686968
0.000746073
0.000802007
0.000854268
0.000902548
0.000946697
0.0009867
0.00102265
0.00105471
0.00108313
0.00110819
0.0011302
0.00114947
0.00116633
0.00118108
0.00119402
0.00120542
0.00121553
0.00122456
0.0012327
0.00124012
0.00124696
0.00125334
0.00125935
0.00126508
0.00127057
0.0012759
0.00128108
0.00128617
0.00129117
0.00129611
0.00130101
0.00130587
0.0013107
0.00131552
0.00132033
0.00132513
0.00132995
0.00133478
0.00133964
0.00134454
0.00134949
0.00135452
0.00135964
0.00136487
0.00137025
0.0013758
0.00138156
0.00138758
0.00139388
0.00140054
0.0014076
0.00141513
0.0014232
0.0014319
0.0014413
0.00145151
0.00146264
0.00147478
0.00148806
0.00150261
0.00151857
0.00153606
0.00155522
0.0015762
0.00159913
0.00162415
0.00165136
0.00168088
0.00171279
0.00174716
0.001784
0.00182331
0.00186505
0.0019091
0.00195532
0.0020035
0.00205336
0.00210458
0.00215674
0.0022094
0.00226202
0.00231402
0.00236478
0.00241361
0.0024598
0.0025026
0.00254125
0.00257499
0.00260307
0.00262477
0.00263909
0.00264465
0.002643
0.00263245
0.00261255
0.00258296
0.00254348
0.00249408
0.00243488
0.00236621
0.00228853
0.00220251
0.00210893
0.00200872
0.00190293
0.00179265
0.00167902
0.00156319
0.00144625
0.00132926
0.00121318
0.00109891
0.00098727
0.000879028
0.000774957
0.0006759
0.000582872
0.000497257
0.000421149
0.000358028
0.0003143
0.000303889
0.00036751
0.000733024
0.000849366
0.000421258
0.000334069
0.000325424
0.000349378
0.000390323
0.000440835
0.00049661
0.000554835
0.000613532
0.000671256
0.000726943
0.00077982
0.000829352
0.000875201
0.00091719
0.000955279
0.000989535
0.00102011
0.00104723
0.00107115
0.00109216
0.00111057
0.00112668
0.00114078
0.00115316
0.00116408
0.00117377
0.00118243
0.00119026
0.00119741
0.00120402
0.00121019
0.00121602
0.00122158
0.00122694
0.00123214
0.00123721
0.0012422
0.00124712
0.00125199
0.00125683
0.00126164
0.00126643
0.00127122
0.00127601
0.0012808
0.00128562
0.00129046
0.00129534
0.00130028
0.00130528
0.00131036
0.00131555
0.00132087
0.00132634
0.001332
0.00133788
0.00134402
0.00135047
0.00135727
0.00136449
0.00137219
0.00138044
0.00138931
0.00139891
0.00140931
0.00142062
0.00143295
0.00144642
0.00146115
0.00147727
0.00149491
0.00151421
0.00153529
0.0015583
0.00158334
0.00161055
0.00164
0.00167179
0.00170596
0.00174252
0.00178147
0.00182274
0.00186624
0.00191179
0.00195918
0.00200816
0.00205838
0.00210946
0.00216094
0.00221234
0.0022631
0.00231261
0.00236023
0.0024053
0.00244711
0.00248495
0.00251808
0.0025458
0.00256741
0.00258199
0.00258801
0.00258707
0.00257754
0.00255886
0.00253064
0.00249263
0.00244475
0.00238707
0.00231988
0.00224364
0.00215899
0.00206674
0.00196786
0.00186342
0.0017546
0.00164258
0.00152857
0.00141373
0.00129914
0.00118581
0.00107463
0.000966429
0.000861976
0.000762038
0.000667457
0.000579317
0.000499126
0.000429193
0.000373387
0.000338883
0.000341404
0.000427726
0.000865057
0.000989689
0.000486418
0.000376487
0.000355405
0.000370721
0.000404996
0.00045007
0.000501277
0.000555594
0.0006109
0.000665661
0.000718747
0.000769334
0.000816849
0.000860918
0.000901338
0.000938045
0.000971086
0.0010006
0.00102678
0.00104988
0.00107017
0.00108796
0.00110353
0.00111716
0.00112914
0.0011397
0.00114909
0.00115749
0.00116509
0.00117205
0.00117848
0.00118451
0.00119021
0.00119566
0.00120093
0.00120604
0.00121105
0.00121598
0.00122085
0.00122568
0.00123049
0.00123528
0.00124006
0.00124484
0.00124963
0.00125444
0.00125928
0.00126416
0.00126908
0.00127407
0.00127913
0.00128429
0.00128956
0.00129497
0.00130055
0.00130632
0.00131233
0.00131862
0.00132522
0.00133219
0.00133959
0.00134749
0.00135594
0.00136504
0.00137487
0.00138552
0.00139708
0.00140968
0.00142343
0.00143845
0.00145485
0.00147279
0.00149238
0.00151376
0.00153705
0.00156237
0.00158983
0.00161953
0.00165152
0.00168587
0.00172257
0.00176162
0.00180294
0.00184643
0.00189192
0.00193921
0.00198804
0.00203807
0.00208895
0.00214023
0.00219145
0.00224208
0.00229156
0.00233926
0.00238456
0.00242679
0.00246525
0.00249925
0.00252807
0.00255097
0.00256718
0.00257498
0.00257563
0.00256797
0.00255113
0.00252465
0.00248818
0.00244157
0.00238488
0.00231832
0.00224235
0.00215763
0.00206501
0.00196551
0.00186028
0.0017506
0.00163776
0.00152305
0.00140774
0.00129299
0.00117986
0.00106932
0.00096222
0.00085934
0.000761471
0.000669497
0.000584542
0.000508216
0.000443031
0.000393239
0.000366756
0.000381112
0.000489322
0.000998724
0.00113432
0.000553991
0.000421377
0.000388365
0.000395685
0.000423971
0.000464304
0.000511635
0.000562714
0.00061529
0.000667725
0.000718812
0.000767671
0.000813685
0.000856448
0.000895729
0.000931439
0.000963606
0.00099235
0.00101786
0.00104037
0.00106015
0.00107748
0.00109265
0.00110594
0.00111761
0.00112792
0.00113707
0.00114528
0.00115271
0.00115952
0.00116582
0.00117174
0.00117734
0.00118271
0.0011879
0.00119296
0.00119792
0.0012028
0.00120764
0.00121244
0.00121723
0.001222
0.00122678
0.00123156
0.00123636
0.00124119
0.00124605
0.00125096
0.00125592
0.00126095
0.00126607
0.0012713
0.00127665
0.00128215
0.00128782
0.00129371
0.00129984
0.00130626
0.00131302
0.00132015
0.00132773
0.00133582
0.00134449
0.00135382
0.0013639
0.00137481
0.00138666
0.00139957
0.00141363
0.00142899
0.00144576
0.00146407
0.00148406
0.00150584
0.00152955
0.00155531
0.00158321
0.00161335
0.0016458
0.00168059
0.00171774
0.00175723
0.00179899
0.00184291
0.00188884
0.00193658
0.00198587
0.00203641
0.00208785
0.00213978
0.00219175
0.00224326
0.00229378
0.00234273
0.00238949
0.00243343
0.00247385
0.00251004
0.00254127
0.00256676
0.00258572
0.0025966
0.00259962
0.00259464
0.00258027
0.00255592
0.00252115
0.00247573
0.00241964
0.00235307
0.00227646
0.0021905
0.00209608
0.00199434
0.00188652
0.00177404
0.00165831
0.0015408
0.00142288
0.00130586
0.00119089
0.001079
0.000971105
0.000868032
0.000770594
0.000679704
0.000596541
0.000522811
0.000461216
0.000416375
0.00039691
0.000422173
0.000551519
0.00113272
0.00128267
0.000623594
0.000468263
0.000423684
0.000423499
0.000446329
0.000482459
0.000526449
0.00057482
0.000625166
0.000675745
0.000725276
0.000772827
0.000817731
0.000859544
0.000898005
0.000933005
0.000964552
0.000992752
0.00101778
0.00103987
0.00105927
0.00107627
0.00109114
0.00110417
0.00111561
0.00112571
0.00113469
0.00114274
0.00115003
0.00115671
0.00116291
0.00116873
0.00117425
0.00117954
0.00118467
0.00118967
0.00119458
0.00119943
0.00120423
0.001209
0.00121376
0.00121852
0.00122328
0.00122806
0.00123286
0.00123769
0.00124256
0.00124749
0.00125247
0.00125754
0.0012627
0.00126797
0.00127338
0.00127895
0.0012847
0.00129068
0.00129692
0.00130345
0.00131034
0.00131762
0.00132536
0.00133363
0.0013425
0.00135205
0.00136237
0.00137354
0.00138569
0.0013989
0.00141331
0.00142904
0.0014462
0.00146494
0.00148537
0.00150763
0.00153185
0.00155815
0.00158661
0.00161735
0.00165042
0.00168586
0.0017237
0.0017639
0.00180641
0.00185114
0.00189793
0.0019466
0.00199691
0.00204858
0.00210128
0.00215463
0.00220821
0.00226157
0.00231418
0.00236549
0.0024149
0.00246177
0.00250539
0.00254502
0.00257986
0.00260909
0.00263184
0.00264689
0.0026531
0.00265138
0.00264
0.0026181
0.00258514
0.00254079
0.00248494
0.00241778
0.00233974
0.00225153
0.00215415
0.0020488
0.00193691
0.00182
0.00169971
0.00157765
0.00145536
0.0013343
0.00121576
0.00110086
0.000990601
0.00088585
0.000787463
0.00069639
0.000613858
0.000541664
0.000482681
0.000441888
0.000428569
0.000463914
0.000613639
0.00126583
0.00143423
0.00069491
0.000516776
0.000460891
0.000453588
0.000471381
0.000503739
0.000544812
0.000590885
0.000639399
0.000688501
0.000736833
0.000783396
0.000827478
0.000868601
0.000906477
0.000940972
0.00097208
0.000999894
0.00102458
0.00104636
0.00106549
0.00108224
0.00109689
0.00110972
0.00112097
0.0011309
0.00113973
0.00114764
0.00115481
0.00116138
0.00116747
0.0011732
0.00117864
0.00118386
0.00118892
0.00119386
0.00119871
0.00120351
0.00120826
0.00121299
0.00121772
0.00122244
0.00122717
0.00123193
0.00123671
0.00124152
0.00124639
0.00125131
0.0012563
0.00126137
0.00126655
0.00127184
0.00127728
0.00128289
0.00128869
0.00129473
0.00130104
0.00130767
0.00131465
0.00132205
0.00132993
0.00133836
0.0013474
0.00135714
0.00136768
0.00137911
0.00139152
0.00140505
0.0014198
0.00143589
0.00145347
0.00147265
0.00149358
0.00151638
0.00154119
0.00156811
0.00159726
0.00162872
0.00166258
0.00169887
0.00173762
0.00177881
0.0018224
0.00186829
0.00191637
0.00196645
0.00201833
0.00207175
0.00212641
0.00218195
0.00223799
0.00229409
0.00234976
0.00240445
0.00245756
0.00250844
0.00255635
0.0026005
0.00264004
0.00267403
0.0027015
0.0027214
0.00273192
0.00273366
0.00272569
0.00270649
0.00267537
0.00263192
0.00257598
0.00250769
0.0024275
0.00233618
0.00223479
0.00212469
0.00200744
0.00188476
0.00175846
0.00163037
0.00150223
0.00137565
0.00125208
0.00113277
0.0010188
0.000911114
0.000810611
0.000718276
0.000635385
0.000563817
0.000506598
0.000469057
0.000461105
0.000505766
0.000675066
0.00139691
0.00158853
0.000767666
0.000566621
0.00049962
0.000485502
0.000498599
0.000527533
0.000566033
0.00061014
0.000657135
0.000705057
0.000752461
0.00079829
0.000841784
0.000882427
0.000919903
0.000954059
0.000984872
0.00101242
0.00103687
0.00105843
0.00107736
0.00109392
0.00110839
0.00112105
0.00113215
0.00114193
0.00115061
0.0011584
0.00116544
0.0011719
0.00117789
0.00118352
0.00118887
0.001194
0.00119898
0.00120384
0.00120863
0.00121335
0.00121804
0.00122271
0.00122738
0.00123205
0.00123673
0.00124144
0.00124618
0.00125095
0.00125578
0.00126067
0.00126564
0.00127069
0.00127585
0.00128114
0.00128658
0.0012922
0.00129803
0.0013041
0.00131045
0.00131713
0.00132419
0.00133168
0.00133967
0.00134822
0.00135742
0.00136734
0.00137808
0.00138974
0.00140242
0.00141625
0.00143134
0.00144782
0.00146582
0.00148547
0.00150693
0.00153031
0.00155575
0.00158337
0.00161329
0.00164561
0.00168039
0.0017177
0.00175757
0.0018
0.00184495
0.00189236
0.00194211
0.00199407
0.00204805
0.00210382
0.0021611
0.00221958
0.00227889
0.00233861
0.00239827
0.00245732
0.00251515
0.00257106
0.00262429
0.00267396
0.00271913
0.00275877
0.00279178
0.00281703
0.00283275
0.00283813
0.00283384
0.00281747
0.00278817
0.00274543
0.00268903
0.00261911
0.00253613
0.0024409
0.00233461
0.00221873
0.00209501
0.00196537
0.00183184
0.00169646
0.00156117
0.0014278
0.00129796
0.00117303
0.00105421
0.000942506
0.000838878
0.00074435
0.00066024
0.000588499
0.000532296
0.000497291
0.000493993
0.000547234
0.000735236
0.00152484
0.00174514
0.000841623
0.000617553
0.000539576
0.000518886
0.000527564
0.000553361
0.00058957
0.000631982
0.000677714
0.000724691
0.000771387
0.000816679
0.000859762
0.000900083
0.0009373
0.000971237
0.00100186
0.00102924
0.00105352
0.00107493
0.0010937
0.00111011
0.00112443
0.00113694
0.0011479
0.00115754
0.00116609
0.00117374
0.00118067
0.001187
0.00119288
0.0011984
0.00120364
0.00120867
0.00121355
0.00121832
0.00122301
0.00122765
0.00123225
0.00123684
0.00124143
0.00124602
0.00125063
0.00125526
0.00125993
0.00126464
0.00126941
0.00127424
0.00127915
0.00128415
0.00128927
0.00129452
0.00129993
0.00130553
0.00131135
0.00131742
0.00132378
0.00133049
0.00133759
0.00134514
0.0013532
0.00136185
0.00137118
0.00138125
0.00139217
0.00140405
0.00141698
0.0014311
0.00144652
0.00146338
0.00148182
0.00150197
0.00152397
0.00154798
0.00157411
0.00160252
0.0016333
0.00166658
0.00170244
0.00174096
0.00178216
0.00182608
0.00187271
0.00192198
0.00197383
0.00202815
0.00208476
0.00214348
0.00220406
0.00226621
0.00232958
0.00239377
0.00245831
0.00252264
0.00258611
0.002648
0.00270745
0.00276352
0.00281515
0.00286118
0.00290037
0.00293144
0.00295288
0.00296229
0.00296167
0.00294819
0.00292062
0.00287836
0.00282116
0.00274911
0.00266273
0.00256289
0.00245088
0.00232834
0.00219718
0.00205956
0.00191771
0.00177393
0.00163038
0.00148911
0.0013519
0.0012203
0.00109562
0.000978957
0.000871323
0.000773782
0.000687693
0.000615072
0.000559213
0.000526085
0.000526776
0.000587874
0.00079362
0.00164859
0.00190365
0.000916565
0.000669363
0.000580516
0.000553448
0.000557938
0.000580836
0.000614989
0.000655928
0.000700606
0.000746831
0.000792993
0.000837906
0.000880717
0.000920839
0.000957902
0.000991712
0.00102222
0.00104949
0.00107366
0.00109495
0.0011136
0.00112988
0.00114407
0.00115645
0.00116727
0.00117677
0.00118519
0.0011927
0.00119949
0.0012057
0.00121144
0.00121683
0.00122195
0.00122686
0.00123162
0.00123628
0.00124085
0.00124538
0.00124987
0.00125435
0.00125883
0.00126332
0.00126783
0.00127236
0.00127693
0.00128155
0.00128622
0.00129096
0.00129579
0.00130072
0.00130576
0.00131095
0.0013163
0.00132184
0.00132762
0.00133366
0.00134
0.00134671
0.00135382
0.0013614
0.00136952
0.00137824
0.00138766
0.00139787
0.00140895
0.00142102
0.0014342
0.0014486
0.00146435
0.0014816
0.00150049
0.00152115
0.00154375
0.00156842
0.00159532
0.00162458
0.00165634
0.00169071
0.00172781
0.00176771
0.00181049
0.00185617
0.00190478
0.0019563
0.00201067
0.00206782
0.00212761
0.00218989
0.00225443
0.00232097
0.00238918
0.00245865
0.00252891
0.00259937
0.00266935
0.00273805
0.00280454
0.00286776
0.00292654
0.00297957
0.00302547
0.00306279
0.00309005
0.00310419
0.00310682
0.00309632
0.00307035
0.00302832
0.00296994
0.00289532
0.00280498
0.0026999
0.00258145
0.00245145
0.00231201
0.00216548
0.00201437
0.00186121
0.00170841
0.00155824
0.0014127
0.00127349
0.00114206
0.00101959
0.000907166
0.000805881
0.000717134
0.000642993
0.000586867
0.000555002
0.000559055
0.000627284
0.000849727
0.00176718
0.00206372
0.000992299
0.000721872
0.000622237
0.000588949
0.000589443
0.000609641
0.000641933
0.000681588
0.000725384
0.000771014
0.000816783
0.000861442
0.000904091
0.000944107
0.000981097
0.00101485
0.0010453
0.0010725
0.0010966
0.0011178
0.00113635
0.00115252
0.00116658
0.00117883
0.00118951
0.00119887
0.00120714
0.0012145
0.00122114
0.0012272
0.0012328
0.00123804
0.00124301
0.00124778
0.0012524
0.00125691
0.00126135
0.00126574
0.0012701
0.00127445
0.0012788
0.00128315
0.00128753
0.00129194
0.00129638
0.00130088
0.00130543
0.00131006
0.00131478
0.0013196
0.00132454
0.00132963
0.00133489
0.00134036
0.00134606
0.00135205
0.00135835
0.00136502
0.00137212
0.0013797
0.00138785
0.00139663
0.00140613
0.00141645
0.00142768
0.00143994
0.00145335
0.00146803
0.00148412
0.00150177
0.00152112
0.00154233
0.00156556
0.00159095
0.00161868
0.0016489
0.00168174
0.00171735
0.00175585
0.00179735
0.00184194
0.00188968
0.00194061
0.00199475
0.00205209
0.00211257
0.00217609
0.00224253
0.00231169
0.00238332
0.0024571
0.00253263
0.00260939
0.00268678
0.00276404
0.00284029
0.00291452
0.00298554
0.00305204
0.00311257
0.00316556
0.00320944
0.00324259
0.00326176
0.00326748
0.00325989
0.00323535
0.00319328
0.00313339
0.00305577
0.00296099
0.0028501
0.0027246
0.00258644
0.00243795
0.00228172
0.0021205
0.00195707
0.00179413
0.00163417
0.0014794
0.00133174
0.00119274
0.0010637
0.000945762
0.000840068
0.000748042
0.000671796
0.00061484
0.000583666
0.000590471
0.000665097
0.000903094
0.00187966
0.00222498
0.00106865
0.000774922
0.000664566
0.000625184
0.000621846
0.000639512
0.00067011
0.000708635
0.000751694
0.000796858
0.000842348
0.000886852
0.000929424
0.000969408
0.00100638
0.00104013
0.00107056
0.00109773
0.00112177
0.0011429
0.00116136
0.00117742
0.00119136
0.00120347
0.001214
0.00122321
0.00123131
0.00123852
0.00124499
0.00125088
0.00125631
0.00126139
0.00126619
0.0012708
0.00127525
0.0012796
0.00128387
0.0012881
0.0012923
0.00129649
0.00130068
0.00130489
0.00130911
0.00131337
0.00131766
0.00132201
0.00132642
0.00133091
0.00133548
0.00134017
0.00134499
0.00134996
0.00135511
0.00136047
0.00136609
0.00137198
0.00137822
0.00138484
0.0013919
0.00139948
0.00140763
0.00141645
0.00142602
0.00143643
0.00144781
0.00146025
0.00147389
0.00148886
0.0015053
0.00152336
0.00154321
0.001565
0.00158891
0.0016151
0.00164374
0.00167501
0.00170907
0.00174607
0.00178617
0.00182948
0.00187614
0.00192623
0.00197984
0.002037
0.00209775
0.00216205
0.00222986
0.00230106
0.00237548
0.00245289
0.00253295
0.00261525
0.00269924
0.00278426
0.00286949
0.00295396
0.00303652
0.00311587
0.00319054
0.00325892
0.00331929
0.00336991
0.00340898
0.00343331
0.00344202
0.00343717
0.00341387
0.00337152
0.0033098
0.00322883
0.0031292
0.00301202
0.00287893
0.00273203
0.00257385
0.0024072
0.00223511
0.00206061
0.00188669
0.0017161
0.00155129
0.00139436
0.00124703
0.0011107
0.000986583
0.00087586
0.000779977
0.000701083
0.000642766
0.000611743
0.000620705
0.000700979
0.000953294
0.00198514
0.00238713
0.00114545
0.000828372
0.000707352
0.000661982
0.000654951
0.000670227
0.00069927
0.000736798
0.000779239
0.000824044
0.000869347
0.000913775
0.000956336
0.000996343
0.00103335
0.00106712
0.00109756
0.00112471
0.00114872
0.00116978
0.00118815
0.0012041
0.00121792
0.00122988
0.00124025
0.00124929
0.00125722
0.00126424
0.00127053
0.00127623
0.00128148
0.00128636
0.00129098
0.0012954
0.00129966
0.00130383
0.00130792
0.00131196
0.00131598
0.00131998
0.00132399
0.00132802
0.00133206
0.00133615
0.00134027
0.00134445
0.00134869
0.00135301
0.00135743
0.00136196
0.00136663
0.00137146
0.00137648
0.00138172
0.00138722
0.00139302
0.00139916
0.00140572
0.00141273
0.00142028
0.00142843
0.00143727
0.0014469
0.00145741
0.00146892
0.00148155
0.00149542
0.00151069
0.0015275
0.00154601
0.00156639
0.00158881
0.00161346
0.00164052
0.00167018
0.00170262
0.00173803
0.00177659
0.00181847
0.00186384
0.00191284
0.00196561
0.00202224
0.00208284
0.00214745
0.00221609
0.00228872
0.00236527
0.00244558
0.0025294
0.00261641
0.00270615
0.00279803
0.00289133
0.00298513
0.00307835
0.00316974
0.00325783
0.00334101
0.00341749
0.00348541
0.00354283
0.00358781
0.00361728
0.00362893
0.0036266
0.00360436
0.00356151
0.00349772
0.00341311
0.00330831
0.00318449
0.00304339
0.00288728
0.00271885
0.00254116
0.0023575
0.00217121
0.00198553
0.00180351
0.00162786
0.00146088
0.00130447
0.00116016
0.00102921
0.000912865
0.000812577
0.000730516
0.000670333
0.000638943
0.000649476
0.000734628
0.000999929
0.00208281
0.00254987
0.00122256
0.000882096
0.000750464
0.000699198
0.00068859
0.000701597
0.000729204
0.000765846
0.000807769
0.000852303
0.000897494
0.000941909
0.000984511
0.00102458
0.00106165
0.00109547
0.00112593
0.00115308
0.00117706
0.00119805
0.00121633
0.00123216
0.00124584
0.00125764
0.00126785
0.0012767
0.00128444
0.00129126
0.00129735
0.00130284
0.00130788
0.00131256
0.00131696
0.00132117
0.00132523
0.00132918
0.00133306
0.0013369
0.00134071
0.00134452
0.00134832
0.00135215
0.001356
0.00135988
0.00136381
0.0013678
0.00137185
0.00137599
0.00138023
0.00138459
0.00138909
0.00139376
0.00139863
0.00140373
0.0014091
0.00141479
0.00142084
0.00142731
0.00143426
0.00144177
0.00144991
0.00145878
0.00146846
0.00147907
0.00149072
0.00150354
0.00151767
0.00153325
0.00155046
0.00156945
0.0015904
0.00161351
0.00163897
0.00166699
0.00169776
0.0017315
0.00176842
0.00180872
0.00185261
0.00190028
0.00195191
0.00200767
0.00206771
0.00213215
0.00220109
0.00227456
0.00235256
0.00243503
0.00252181
0.00261267