/*--------------------------------*- C++ -*----------------------------------*\
  =========                 |
  \\      /  F ield         | OpenFOAM: The Open Source CFD Toolbox
   \\    /   O peration     | Website:  https://openfoam.org
    \\  /    A nd           | Version:  12
     \\/     M anipulation  |
\*---------------------------------------------------------------------------*/
FoamFile
{
    format      ascii;
    class       surfaceScalarField;
    location    "0.5";
    object      phi;
}
// * * * * * * * * * * * * * * * * * * * * * * * * * * * * * * * * * * * * * //

dimensions      [0 3 -1 0 0 0 0];

internalField   nonuniform List<scalar> 
36180
(
6.37954e-10
-6.39166e-10
8.95798e-10
-2.5776e-10
9.04697e-10
-8.77741e-12
8.84655e-10
2.01349e-11
8.23408e-10
6.13077e-11
7.31853e-10
9.15928e-11
6.16453e-10
1.15424e-10
4.79312e-10
1.37158e-10
3.19832e-10
1.59493e-10
1.38176e-10
1.81667e-10
-6.63221e-11
2.04509e-10
-2.9228e-10
2.25969e-10
-5.37676e-10
2.45407e-10
-7.99736e-10
2.62071e-10
-1.07558e-09
2.75857e-10
-1.36207e-09
2.86497e-10
-1.65649e-09
2.94434e-10
-1.95632e-09
2.99839e-10
-2.25982e-09
3.03516e-10
-2.56555e-09
3.0574e-10
-2.87265e-09
3.07105e-10
-3.18014e-09
3.07499e-10
-3.48727e-09
3.07144e-10
-3.79421e-09
3.06947e-10
-4.10184e-09
3.07635e-10
-4.41035e-09
3.08511e-10
-4.72002e-09
3.0968e-10
-5.03211e-09
3.12092e-10
-5.34778e-09
3.15679e-10
-5.66758e-09
3.19804e-10
-5.99179e-09
3.24219e-10
-6.32072e-09
3.28927e-10
-6.65475e-09
3.34036e-10
-6.99431e-09
3.39563e-10
-7.33982e-09
3.45519e-10
-7.69168e-09
3.51861e-10
-8.05025e-09
3.58577e-10
-8.41588e-09
3.65629e-10
-8.78889e-09
3.7301e-10
-9.16956e-09
3.80677e-10
-9.55818e-09
3.88621e-10
-9.95498e-09
3.96799e-10
-1.03602e-08
4.05217e-10
-1.07741e-08
4.13859e-10
-1.11968e-08
4.22772e-10
-1.16288e-08
4.31991e-10
-1.20704e-08
4.41609e-10
-1.25221e-08
4.51699e-10
-1.29845e-08
4.62376e-10
-1.34582e-08
4.73718e-10
-1.39441e-08
4.85831e-10
-1.44428e-08
4.98789e-10
-1.49555e-08
5.12688e-10
-1.54831e-08
5.276e-10
-1.60267e-08
5.43615e-10
-1.65875e-08
5.60796e-10
-1.71668e-08
5.79219e-10
-1.77657e-08
5.98933e-10
-1.83857e-08
6.20001e-10
-1.90282e-08
6.42469e-10
-1.96946e-08
6.66394e-10
-2.03864e-08
6.91819e-10
-2.11052e-08
7.18798e-10
-2.18525e-08
7.47368e-10
-2.26301e-08
7.77572e-10
-2.34395e-08
8.0943e-10
-2.42825e-08
8.42963e-10
-2.51607e-08
8.78164e-10
-2.60757e-08
9.15016e-10
-2.70291e-08
9.53469e-10
-2.80226e-08
9.93453e-10
-2.90575e-08
1.03485e-09
-3.0135e-08
1.07752e-09
-3.12562e-08
1.12126e-09
-3.2422e-08
1.1658e-09
-3.36329e-08
1.21084e-09
-3.48888e-08
1.25597e-09
-3.61896e-08
1.30072e-09
-3.75341e-08
1.34451e-09
-3.89207e-08
1.38667e-09
-4.03472e-08
1.42642e-09
-4.181e-08
1.46285e-09
-4.33049e-08
1.49492e-09
-4.48264e-08
1.52148e-09
-4.63676e-08
1.54123e-09
-4.79204e-08
1.55274e-09
-4.94749e-08
1.55449e-09
-5.10197e-08
1.54481e-09
-5.25417e-08
1.52199e-09
-5.40259e-08
1.48424e-09
-5.54557e-08
1.42977e-09
-5.68125e-08
1.35682e-09
-5.80762e-08
1.26373e-09
-5.92253e-08
1.14902e-09
-6.02367e-08
1.01144e-09
-6.10867e-08
8.49986e-10
-6.17501e-08
6.63427e-10
-6.2202e-08
4.51845e-10
-6.24237e-08
2.21727e-10
-6.23868e-08
-3.68885e-11
-6.20739e-08
-3.12896e-10
-6.14667e-08
-6.0722e-10
-6.05516e-08
-9.15076e-10
-5.93193e-08
-1.23228e-09
-5.77659e-08
-1.55345e-09
-5.58934e-08
-1.87249e-09
-5.37104e-08
-2.18299e-09
-5.12322e-08
-2.47818e-09
-4.84811e-08
-2.75116e-09
-4.5486e-08
-2.99512e-09
-4.22823e-08
-3.20365e-09
-3.89113e-08
-3.37103e-09
-3.54188e-08
-3.49251e-09
-3.18543e-08
-3.5645e-09
-2.82694e-08
-3.58483e-09
-2.47166e-08
-3.5528e-09
-2.12473e-08
-3.46928e-09
-1.79107e-08
-3.33665e-09
-1.4752e-08
-3.15869e-09
-1.18116e-08
-2.94041e-09
-9.12379e-09
-2.68781e-09
-6.7162e-09
-2.40759e-09
-4.60932e-09
-2.10688e-09
-2.81639e-09
-1.79293e-09
-1.34351e-09
-1.47288e-09
-1.89854e-10
-1.15366e-09
6.52007e-10
-8.41861e-10
1.19585e-09
-5.43845e-10
1.46219e-09
-2.66334e-10
1.47919e-09
-1.70029e-11
1.28539e-09
1.93801e-10
9.35465e-10
3.49921e-10
5.09989e-10
4.25476e-10
1.39571e-10
3.70418e-10
1.39571e-10
2.82664e-10
-9.21781e-10
8.33303e-10
-8.08263e-10
1.27104e-09
-4.46371e-10
1.44392e-09
-1.52634e-10
1.42779e-09
7.75174e-11
1.26959e-09
2.49839e-10
9.99527e-10
3.85522e-10
6.33775e-10
5.02932e-10
1.81488e-10
6.11797e-10
-3.51969e-10
7.15139e-10
-9.60558e-10
8.13111e-10
-1.63795e-09
9.0338e-10
-2.37652e-09
9.83987e-10
-3.16797e-09
1.05354e-09
-4.00353e-09
1.11143e-09
-4.8747e-09
1.15768e-09
-5.77345e-09
1.1932e-09
-6.69294e-09
1.21934e-09
-7.62748e-09
1.23807e-09
-8.5728e-09
1.25107e-09
-9.5253e-09
1.25962e-09
-1.04819e-08
1.26408e-09
-1.14394e-08
1.26466e-09
-1.23958e-08
1.26339e-09
-1.33512e-08
1.26301e-09
-1.43077e-08
1.26502e-09
-1.52685e-08
1.27049e-09
-1.62363e-08
1.27987e-09
-1.72124e-08
1.29183e-09
-1.81975e-08
1.3049e-09
-1.91919e-08
1.31864e-09
-2.01962e-08
1.33322e-09
-2.12111e-08
1.34901e-09
-2.22378e-08
1.36617e-09
-2.3277e-08
1.38482e-09
-2.43301e-08
1.40494e-09
-2.53981e-08
1.42653e-09
-2.6482e-08
1.44954e-09
-2.75829e-08
1.47397e-09
-2.8702e-08
1.49976e-09
-2.98403e-08
1.5269e-09
-3.09989e-08
1.55536e-09
-3.21788e-08
1.58517e-09
-3.33813e-08
1.61638e-09
-3.46077e-08
1.64911e-09
-3.58592e-08
1.68352e-09
-3.71375e-08
1.71987e-09
-3.84442e-08
1.75839e-09
-3.97812e-08
1.7994e-09
-4.11506e-08
1.84316e-09
-4.25548e-08
1.88998e-09
-4.39961e-08
1.94012e-09
-4.54773e-08
1.99389e-09
-4.70012e-08
2.05153e-09
-4.85709e-08
2.11333e-09
-5.01897e-08
2.17953e-09
-5.18608e-08
2.25038e-09
-5.3588e-08
2.3261e-09
-5.53749e-08
2.4069e-09
-5.72254e-08
2.49299e-09
-5.91436e-08
2.58456e-09
-6.11336e-08
2.6818e-09
-6.31996e-08
2.78487e-09
-6.53462e-08
2.89392e-09
-6.75777e-08
3.00906e-09
-6.98986e-08
3.13036e-09
-7.23135e-08
3.25786e-09
-7.48268e-08
3.3915e-09
-7.7443e-08
3.53116e-09
-8.01661e-08
3.67663e-09
-8.30003e-08
3.82757e-09
-8.59489e-08
3.98349e-09
-8.90151e-08
4.14378e-09
-9.22015e-08
4.30759e-09
-9.55096e-08
4.47389e-09
-9.89401e-08
4.64138e-09
-1.02493e-07
4.80848e-09
-1.06165e-07
4.97329e-09
-1.09954e-07
5.13357e-09
-1.13854e-07
5.28666e-09
-1.17857e-07
5.42951e-09
-1.21953e-07
5.55863e-09
-1.26128e-07
5.67004e-09
-1.30366e-07
5.75931e-09
-1.34646e-07
5.82152e-09
-1.38945e-07
5.85132e-09
-1.43233e-07
5.84293e-09
-1.47479e-07
5.79022e-09
-1.51644e-07
5.68681e-09
-1.55686e-07
5.52619e-09
-1.59558e-07
5.30185e-09
-1.63208e-07
5.00749e-09
-1.66582e-07
4.63726e-09
-1.69619e-07
4.18597e-09
-1.72257e-07
3.64944e-09
-1.74431e-07
3.02467e-09
-1.76077e-07
2.30942e-09
-1.77126e-07
1.50022e-09
-1.77523e-07
6.18591e-10
-1.77205e-07
-3.54366e-10
-1.76121e-07
-1.39737e-09
-1.74226e-07
-2.5022e-09
-1.71486e-07
-3.65445e-09
-1.67881e-07
-4.83757e-09
-1.63403e-07
-6.03183e-09
-1.5806e-07
-7.21496e-09
-1.5188e-07
-8.36357e-09
-1.44905e-07
-9.45315e-09
-1.37197e-07
-1.04588e-08
-1.28836e-07
-1.1356e-08
-1.19918e-07
-1.21219e-08
-1.10553e-07
-1.2736e-08
-1.00864e-07
-1.31815e-08
-9.09831e-08
-1.34455e-08
-8.10477e-08
-1.35202e-08
-7.11974e-08
-1.34032e-08
-6.15693e-08
-1.30973e-08
-5.22949e-08
-1.26111e-08
-4.34958e-08
-1.19578e-08
-3.5281e-08
-1.11553e-08
-2.77438e-08
-1.02249e-08
-2.09607e-08
-9.19076e-09
-1.49891e-08
-8.07851e-09
-9.86741e-09
-6.91457e-09
-5.61502e-09
-5.72528e-09
-2.23232e-09
-4.53635e-09
2.98606e-10
-3.37279e-09
2.01428e-09
-2.25952e-09
2.9703e-09
-1.22235e-09
3.24484e-09
-2.91538e-10
2.94497e-09
4.93669e-10
2.21885e-09
1.07604e-09
1.2755e-09
1.36882e-09
4.12137e-10
1.23378e-09
5.51707e-10
7.24043e-11
-9.94431e-10
5.03176e-10
-1.23904e-09
9.55757e-10
-8.98856e-10
1.23151e-09
-4.28291e-10
1.29229e-09
1.68129e-11
1.13911e-09
4.03059e-10
7.84759e-10
7.39907e-10
2.43868e-10
1.04384e-09
-4.68426e-10
1.32411e-09
-1.33732e-09
1.58405e-09
-2.34683e-09
1.82263e-09
-3.4808e-09
2.03736e-09
-4.72283e-09
2.22603e-09
-6.05683e-09
2.38755e-09
-7.46733e-09
2.52194e-09
-8.94003e-09
2.6304e-09
-1.04619e-08
2.71513e-09
-1.20219e-08
2.7793e-09
-1.36103e-08
2.82652e-09
-1.52196e-08
2.86037e-09
-1.68435e-08
2.88356e-09
-1.84773e-08
2.89786e-09
-2.0117e-08
2.90438e-09
-2.17601e-08
2.90645e-09
-2.34054e-08
2.90838e-09
-2.50537e-08
2.91325e-09
-2.6706e-08
2.92283e-09
-2.83636e-08
2.93753e-09
-3.00277e-08
2.95591e-09
-3.16994e-08
2.9766e-09
-3.33801e-08
2.99928e-09
-3.50711e-08
3.02423e-09
-3.6774e-08
3.05194e-09
-3.84905e-08
3.0827e-09
-4.02224e-08
3.11669e-09
-4.19714e-08
3.15395e-09
-4.37394e-08
3.19452e-09
-4.55282e-08
3.23841e-09
-4.73399e-08
3.28564e-09
-4.91764e-08
3.33621e-09
-5.10396e-08
3.39019e-09
-5.29319e-08
3.44762e-09
-5.48554e-08
3.50864e-09
-5.68124e-08
3.57342e-09
-5.88056e-08
3.64225e-09
-6.08375e-08
3.71545e-09
-6.29111e-08
3.79346e-09
-6.50294e-08
3.87673e-09
-6.71958e-08
3.9658e-09
-6.94138e-08
4.06119e-09
-7.16873e-08
4.16344e-09
-7.40203e-08
4.27308e-09
-7.6417e-08
4.39065e-09
-7.88822e-08
4.51667e-09
-8.14205e-08
4.65169e-09
-8.40372e-08
4.79619e-09
-8.67375e-08
4.9507e-09
-8.95271e-08
5.11567e-09
-9.24118e-08
5.29159e-09
-9.53977e-08
5.47888e-09
-9.8491e-08
5.67796e-09
-1.01698e-07
5.88921e-09
-1.05027e-07
6.11299e-09
-1.08482e-07
6.34956e-09
-1.12072e-07
6.59913e-09
-1.15804e-07
6.86183e-09
-1.19684e-07
7.13763e-09
-1.23718e-07
7.42639e-09
-1.27915e-07
7.72777e-09
-1.3228e-07
8.04121e-09
-1.36818e-07
8.36589e-09
-1.41535e-07
8.7007e-09
-1.46436e-07
9.04416e-09
-1.51522e-07
9.39435e-09
-1.56797e-07
9.7489e-09
-1.62261e-07
1.01049e-08
-1.67911e-07
1.04587e-08
-1.73744e-07
1.08062e-08
-1.79753e-07
1.11423e-08
-1.85927e-07
1.14612e-08
-1.92254e-07
1.17561e-08
-1.98714e-07
1.20194e-08
-2.05287e-07
1.22424e-08
-2.11943e-07
1.24155e-08
-2.1865e-07
1.25281e-08
-2.25367e-07
1.25686e-08
-2.32049e-07
1.25248e-08
-2.38642e-07
1.23835e-08
-2.45087e-07
1.21314e-08
-2.51315e-07
1.17547e-08
-2.57253e-07
1.124e-08
-2.6282e-07
1.05742e-08
-2.67928e-07
9.74543e-09
-2.72485e-07
8.74335e-09
-2.76396e-07
7.55978e-09
-2.79561e-07
6.18939e-09
-2.81881e-07
4.62967e-09
-2.83255e-07
2.87444e-09
-2.83594e-07
9.57227e-10
-2.82813e-07
-1.13465e-09
-2.80833e-07
-3.37782e-09
-2.7759e-07
-5.74534e-09
-2.73037e-07
-8.20757e-09
-2.67145e-07
-1.0729e-08
-2.59909e-07
-1.3268e-08
-2.51346e-07
-1.57779e-08
-2.415e-07
-1.82097e-08
-2.30441e-07
-2.05124e-08
-2.18265e-07
-2.26344e-08
-2.05096e-07
-2.4525e-08
-1.91081e-07
-2.6137e-08
-1.76388e-07
-2.74285e-08
-1.61205e-07
-2.83645e-08
-1.45732e-07
-2.89188e-08
-1.30177e-07
-2.90753e-08
-1.14751e-07
-2.88288e-08
-9.96635e-08
-2.81852e-08
-8.5113e-08
-2.71616e-08
-7.12854e-08
-2.57854e-08
-5.83476e-08
-2.40931e-08
-4.64438e-08
-2.21287e-08
-3.56926e-08
-1.99419e-08
-2.61849e-08
-1.75862e-08
-1.79827e-08
-1.51168e-08
-1.11189e-08
-1.25891e-08
-5.59715e-09
-1.00581e-08
-1.39239e-09
-7.57755e-09
1.54973e-09
-5.20164e-09
3.31473e-09
-2.98736e-09
4.0236e-09
-1.00041e-09
3.84161e-09
6.75665e-10
2.99281e-09
1.92484e-09
1.78163e-09
2.58e-09
6.13103e-10
2.40231e-09
1.16481e-09
-7.56507e-11
-9.1884e-10
2.75604e-10
-1.59025e-09
6.74762e-10
-1.29791e-09
9.49978e-10
-7.03407e-10
1.00423e-09
-3.73677e-11
7.94736e-10
6.12605e-10
3.12622e-10
1.22205e-09
-4.33524e-10
1.79001e-09
-1.42615e-09
2.31675e-09
-2.64326e-09
2.80116e-09
-4.0607e-09
3.24009e-09
-5.65382e-09
3.6305e-09
-7.39846e-09
3.97068e-09
-9.27136e-09
4.26047e-09
-1.1251e-08
4.50163e-09
-1.33177e-08
4.69713e-09
-1.54541e-08
4.85154e-09
-1.76449e-08
4.9701e-09
-1.98773e-08
5.05887e-09
-2.21403e-08
5.12342e-09
-2.44255e-08
5.16879e-09
-2.67263e-08
5.19863e-09
-2.90381e-08
5.2162e-09
-3.13578e-08
5.22614e-09
-3.36832e-08
5.23382e-09
-3.60129e-08
5.24299e-09
-3.83463e-08
5.25624e-09
-4.06834e-08
5.27464e-09
-4.30252e-08
5.29764e-09
-4.53731e-08
5.32458e-09
-4.77293e-08
5.35549e-09
-5.00959e-08
5.39082e-09
-5.24751e-08
5.43114e-09
-5.48692e-08
5.47683e-09
-5.72806e-08
5.52813e-09
-5.97119e-08
5.58518e-09
-6.21654e-08
5.64808e-09
-6.46439e-08
5.71694e-09
-6.71502e-08
5.79185e-09
-6.96869e-08
5.87294e-09
-7.22571e-08
5.96038e-09
-7.48638e-08
6.05437e-09
-7.75104e-08
6.1552e-09
-8.02002e-08
6.26323e-09
-8.29369e-08
6.37895e-09
-8.57243e-08
6.50289e-09
-8.85666e-08
6.63574e-09
-9.14681e-08
6.77821e-09
-9.44334e-08
6.93109e-09
-9.74674e-08
7.09518e-09
-1.00575e-07
7.27134e-09
-1.03763e-07
7.46039e-09
-1.07035e-07
7.66319e-09
-1.10399e-07
7.88059e-09
-1.13861e-07
8.11344e-09
-1.17427e-07
8.36259e-09
-1.21105e-07
8.62886e-09
-1.24903e-07
8.91306e-09
-1.28827e-07
9.21597e-09
-1.32887e-07
9.53832e-09
-1.37089e-07
9.88083e-09
-1.41444e-07
1.02441e-08
-1.4596e-07
1.06287e-08
-1.50646e-07
1.10351e-08
-1.5551e-07
1.14635e-08
-1.60562e-07
1.19141e-08
-1.65811e-07
1.23867e-08
-1.71266e-07
1.28811e-08
-1.76935e-07
1.33965e-08
-1.82825e-07
1.39318e-08
-1.88945e-07
1.44856e-08
-1.953e-07
1.50557e-08
-2.01895e-07
1.56394e-08
-2.08734e-07
1.62333e-08
-2.15818e-07
1.68331e-08
-2.23147e-07
1.74336e-08
-2.30717e-07
1.80284e-08
-2.38521e-07
1.86101e-08
-2.46548e-07
1.91698e-08
-2.54784e-07
1.96973e-08
-2.63209e-07
2.01809e-08
-2.71797e-07
2.06073e-08
-2.80516e-07
2.09615e-08
-2.89327e-07
2.12269e-08
-2.98185e-07
2.13854e-08
-3.07033e-07
2.14173e-08
-3.1581e-07
2.13018e-08
-3.24444e-07
2.10169e-08
-3.32852e-07
2.05399e-08
-3.40946e-07
1.98482e-08
-3.48625e-07
1.89194e-08
-3.55783e-07
1.77324e-08
-3.62306e-07
1.62677e-08
-3.68071e-07
1.45091e-08
-3.72956e-07
1.24438e-08
-3.7683e-07
1.00642e-08
-3.79569e-07
7.36794e-09
-3.81048e-07
4.35427e-09
-3.81147e-07
1.05595e-09
-3.79761e-07
-2.52062e-09
-3.76795e-07
-6.34399e-09
-3.72171e-07
-1.03691e-08
-3.65834e-07
-1.45447e-08
-3.57753e-07
-1.88104e-08
-3.47924e-07
-2.30965e-08
-3.36377e-07
-2.73249e-08
-3.23172e-07
-3.14145e-08
-3.08404e-07
-3.52808e-08
-2.922e-07
-3.88383e-08
-2.74721e-07
-4.20041e-08
-2.56158e-07
-4.47005e-08
-2.36727e-07
-4.68586e-08
-2.16671e-07
-4.84214e-08
-1.96244e-07
-4.93458e-08
-1.75713e-07
-4.96054e-08
-1.55351e-07
-4.91916e-08
-1.35422e-07
-4.81138e-08
-1.16184e-07
-4.63998e-08
-9.78748e-08
-4.40942e-08
-8.07112e-08
-4.12568e-08
-6.48803e-08
-3.79596e-08
-5.05376e-08
-3.42846e-08
-3.78036e-08
-3.03202e-08
-2.6762e-08
-2.61583e-08
-1.74591e-08
-2.18921e-08
-9.90319e-09
-1.7614e-08
-4.06467e-09
-1.34161e-08
1.25045e-10
-9.39135e-09
2.776e-09
-5.63831e-09
4.04489e-09
-2.2693e-09
4.14459e-09
5.7596e-10
3.35871e-09
2.71073e-09
2.06112e-09
3.87759e-09
7.3333e-10
3.7301e-09
1.89814e-09
-6.93798e-11
-8.49686e-10
1.89322e-10
-1.84901e-09
5.12768e-10
-1.6213e-09
7.14247e-10
-9.04804e-10
6.73726e-10
3.22074e-12
3.27611e-10
9.58766e-10
-3.46206e-10
1.8959e-09
-1.34403e-09
2.78786e-09
-2.64785e-09
3.62058e-09
-4.23178e-09
4.38511e-09
-6.06624e-09
5.07456e-09
-8.12065e-09
5.68492e-09
-1.03647e-08
6.21475e-09
-1.27696e-08
6.66541e-09
-1.53086e-08
7.0406e-09
-1.79574e-08
7.34593e-09
-2.06944e-08
7.58858e-09
-2.35009e-08
7.77666e-09
-2.63609e-08
7.91887e-09
-2.9261e-08
8.02352e-09
-3.21904e-08
8.09818e-09
-3.51408e-08
8.14901e-09
-3.81061e-08
8.18153e-09
-4.10821e-08
8.20217e-09
-4.40657e-08
8.21745e-09
-4.70547e-08
8.23195e-09
-5.00475e-08
8.24909e-09
-5.30438e-08
8.27094e-09
-5.60443e-08
8.29815e-09
-5.90508e-08
8.33102e-09
-6.20654e-08
8.37011e-09
-6.50907e-08
8.41616e-09
-6.81295e-08
8.4699e-09
-7.11845e-08
8.53183e-09
-7.42586e-08
8.60232e-09
-7.73551e-08
8.68164e-09
-8.0477e-08
8.76999e-09
-8.36277e-08
8.86759e-09
-8.68105e-08
8.97467e-09
-9.0029e-08
9.09149e-09
-9.3287e-08
9.21839e-09
-9.65884e-08
9.35575e-09
-9.99373e-08
9.50408e-09
-1.03338e-07
9.66397e-09
-1.06795e-07
9.83613e-09
-1.10314e-07
1.00214e-08
-1.13899e-07
1.02207e-08
-1.17556e-07
1.04351e-08
-1.2129e-07
1.06656e-08
-1.25108e-07
1.09135e-08
-1.29017e-07
1.11798e-08
-1.33022e-07
1.14659e-08
-1.37132e-07
1.1773e-08
-1.41354e-07
1.21022e-08
-1.45695e-07
1.24548e-08
-1.50165e-07
1.28321e-08
-1.54771e-07
1.32353e-08
-1.59524e-07
1.36655e-08
-1.64432e-07
1.4124e-08
-1.69505e-07
1.46118e-08
-1.74754e-07
1.51299e-08
-1.80189e-07
1.56793e-08
-1.85821e-07
1.62606e-08
-1.91661e-07
1.68746e-08
-1.97719e-07
1.75215e-08
-2.04006e-07
1.82014e-08
-2.10534e-07
1.89141e-08
-2.17312e-07
1.96589e-08
-2.2435e-07
2.04346e-08
-2.31657e-07
2.12394e-08
-2.39242e-07
2.20707e-08
-2.47112e-07
2.29253e-08
-2.55271e-07
2.37988e-08
-2.63724e-07
2.46856e-08
-2.7247e-07
2.55791e-08
-2.81507e-07
2.64711e-08
-2.9083e-07
2.73517e-08
-3.0043e-07
2.82092e-08
-3.1029e-07
2.90301e-08
-3.20391e-07
2.97986e-08
-3.30707e-07
3.04967e-08
-3.41204e-07
3.11042e-08
-3.51841e-07
3.15982e-08
-3.62567e-07
3.19536e-08
-3.73325e-07
3.21432e-08
-3.84045e-07
3.21375e-08
-3.94649e-07
3.19053e-08
-4.05046e-07
3.14139e-08
-4.15136e-07
3.06301e-08
-4.24808e-07
2.95206e-08
-4.33942e-07
2.80529e-08
-4.42406e-07
2.61965e-08
-4.50062e-07
2.3924e-08
-4.56766e-07
2.12125e-08
-4.62367e-07
1.8045e-08
-4.66715e-07
1.44118e-08
-4.69659e-07
1.0312e-08
-4.71057e-07
5.7522e-09
-4.70768e-07
7.6748e-10
-4.68671e-07
-4.61781e-09
-4.64658e-07
-1.03569e-08
-4.58644e-07
-1.63834e-08
-4.50568e-07
-2.26205e-08
-4.404e-07
-2.89783e-08
-4.28143e-07
-3.53532e-08
-4.13837e-07
-4.1631e-08
-3.97559e-07
-4.76926e-08
-3.79425e-07
-5.34146e-08
-3.59591e-07
-5.86728e-08
-3.38248e-07
-6.33465e-08
-3.15626e-07
-6.73234e-08
-2.91981e-07
-7.05037e-08
-2.67597e-07
-7.28046e-08
-2.42779e-07
-7.41641e-08
-2.17841e-07
-7.45438e-08
-1.93102e-07
-7.39307e-08
-1.68877e-07
-7.23384e-08
-1.4547e-07
-6.98067e-08
-1.23165e-07
-6.63997e-08
-1.02218e-07
-6.22037e-08
-8.28541e-08
-5.73233e-08
-6.5261e-08
-5.18776e-08
-4.95854e-08
-4.59958e-08
-3.59307e-08
-3.9813e-08
-2.43562e-08
-3.34666e-08
-1.48755e-08
-2.70947e-08
-7.45653e-09
-2.0835e-08
-2.01986e-09
-1.4828e-08
1.56438e-09
-9.22256e-09
3.48197e-09
-4.18689e-09
3.98382e-09
7.41089e-11
3.39945e-09
3.29509e-09
2.15411e-09
5.12293e-09
7.86226e-10
5.09798e-09
2.68437e-09
-3.97064e-11
-8.10059e-10
1.47438e-10
-2.03614e-09
3.72411e-10
-1.8462e-09
4.5019e-10
-9.82497e-10
2.55919e-10
1.97561e-10
-2.8222e-10
1.49695e-09
-1.19296e-09
2.80667e-09
-2.47682e-09
4.07174e-09
-4.1158e-09
5.25959e-09
-6.08175e-09
6.35107e-09
-8.34139e-09
7.33421e-09
-1.08597e-08
8.20323e-09
-1.36016e-08
8.95665e-09
-1.65336e-08
9.59748e-09
-1.96245e-08
1.01315e-08
-2.28461e-08
1.05675e-08
-2.61729e-08
1.09154e-08
-2.95831e-08
1.11869e-08
-3.30578e-08
1.13936e-08
-3.65813e-08
1.1547e-08
-4.01405e-08
1.16574e-08
-4.37255e-08
1.17341e-08
-4.73289e-08
1.17849e-08
-5.09452e-08
1.18185e-08
-5.45702e-08
1.18425e-08
-5.82012e-08
1.18629e-08
-6.18362e-08
1.18841e-08
-6.54747e-08
1.19095e-08
-6.91173e-08
1.19408e-08
-7.27658e-08
1.19794e-08
-7.64223e-08
1.20267e-08
-8.00898e-08
1.20837e-08
-8.37713e-08
1.21514e-08
-8.747e-08
1.22305e-08
-9.11892e-08
1.23216e-08
-9.49327e-08
1.24251e-08
-9.87042e-08
1.25414e-08
-1.02507e-07
1.26709e-08
-1.06347e-07
1.28139e-08
-1.10226e-07
1.29708e-08
-1.1415e-07
1.31423e-08
-1.18123e-07
1.33288e-08
-1.2215e-07
1.35313e-08
-1.26237e-07
1.37504e-08
-1.30388e-07
1.39873e-08
-1.34609e-07
1.4243e-08
-1.38908e-07
1.45189e-08
-1.43289e-07
1.48163e-08
-1.4776e-07
1.51366e-08
-1.52328e-07
1.54814e-08
-1.57e-07
1.58524e-08
-1.61785e-07
1.62511e-08
-1.66692e-07
1.66792e-08
-1.71728e-07
1.71384e-08
-1.76903e-07
1.76303e-08
-1.82228e-07
1.81567e-08
-1.87712e-07
1.87192e-08
-1.93366e-07
1.93195e-08
-1.99201e-07
1.9959e-08
-2.05228e-07
2.06394e-08
-2.1146e-07
2.13619e-08
-2.17909e-07
2.21277e-08
-2.24586e-07
2.29379e-08
-2.31504e-07
2.37932e-08
-2.38677e-07
2.46939e-08
-2.46115e-07
2.564e-08
-2.53832e-07
2.6631e-08
-2.61839e-07
2.76658e-08
-2.70147e-07
2.87426e-08
-2.78766e-07
2.98584e-08
-2.87705e-07
3.10096e-08
-2.96971e-07
3.21913e-08
-3.06569e-07
3.33969e-08
-3.16502e-07
3.46187e-08
-3.2677e-07
3.58466e-08
-3.37368e-07
3.7069e-08
-3.48288e-07
3.82717e-08
-3.59516e-07
3.94379e-08
-3.71035e-07
4.05485e-08
-3.82817e-07
4.15809e-08
-3.9483e-07
4.25099e-08
-4.07033e-07
4.33068e-08
-4.19375e-07
4.39398e-08
-4.31795e-07
4.43739e-08
-4.44223e-07
4.4571e-08
-4.56576e-07
4.44905e-08
-4.6876e-07
4.40894e-08
-4.80669e-07
4.33233e-08
-4.92186e-07
4.21467e-08
-5.0318e-07
4.05147e-08
-5.13511e-07
3.83838e-08
-5.23028e-07
3.57136e-08
-5.31572e-07
3.24682e-08
-5.38978e-07
2.86182e-08
-5.45075e-07
2.41427e-08
-5.49695e-07
1.90311e-08
-5.52668e-07
1.32851e-08
-5.53835e-07
6.91952e-09
-5.53043e-07
-2.44122e-11
-5.50157e-07
-7.50355e-09
-5.45063e-07
-1.54511e-08
-5.3767e-07
-2.37768e-08
-5.27916e-07
-3.23745e-08
-5.15773e-07
-4.11207e-08
-5.01253e-07
-4.98738e-08
-4.84405e-07
-5.8479e-08
-4.65322e-07
-6.67754e-08
-4.4414e-07
-7.45965e-08
-4.21038e-07
-8.17752e-08
-3.96235e-07
-8.81496e-08
-3.69989e-07
-9.3569e-08
-3.42593e-07
-9.78997e-08
-3.14367e-07
-1.01031e-07
-2.85652e-07
-1.02879e-07
-2.56802e-07
-1.03393e-07
-2.28178e-07
-1.02555e-07
-2.00134e-07
-1.00382e-07
-1.73013e-07
-9.69276e-08
-1.47136e-07
-9.22764e-08
-1.22796e-07
-8.65439e-08
-1.00249e-07
-7.98705e-08
-7.97102e-08
-7.24164e-08
-6.13499e-08
-6.43561e-08
-4.52897e-08
-5.58731e-08
-3.16011e-08
-4.71553e-08
-2.03037e-08
-3.8392e-08
-1.13646e-08
-2.97741e-08
-4.69618e-09
-2.14965e-08
-1.52878e-10
-1.37659e-08
2.47414e-09
-6.8139e-09
3.4657e-09
-9.17453e-10
3.18645e-09
3.57435e-09
2.09983e-09
6.20956e-09
7.86194e-10
6.41161e-09
3.47056e-09
-1.57706e-11
-7.94473e-10
1.04647e-10
-2.15663e-09
2.11929e-10
-1.95345e-09
1.31436e-10
-9.0194e-10
-2.58284e-10
5.87342e-10
-1.02783e-09
2.26654e-09
-2.21058e-09
3.98945e-09
-3.80778e-09
5.66896e-09
-5.80168e-09
7.2535e-09
-8.16262e-09
8.71202e-09
-1.08547e-08
1.00264e-08
-1.38394e-08
1.11879e-08
-1.70779e-08
1.21952e-08
-2.05327e-08
1.30523e-08
-2.41689e-08
1.37677e-08
-2.79545e-08
1.43531e-08
-3.1861e-08
1.48219e-08
-3.58634e-08
1.51894e-08
-3.99404e-08
1.54706e-08
-4.4074e-08
1.56806e-08
-4.82493e-08
1.58328e-08
-5.24547e-08
1.59395e-08
-5.66813e-08
1.60114e-08
-6.09223e-08
1.60595e-08
-6.51729e-08
1.60931e-08
-6.94297e-08
1.61197e-08
-7.36906e-08
1.6145e-08
-7.79548e-08
1.61737e-08
-8.22229e-08
1.62089e-08
-8.64964e-08
1.6253e-08
-9.07778e-08
1.63081e-08
-9.50699e-08
1.63758e-08
-9.93762e-08
1.64576e-08
-1.037e-07
1.65543e-08
-1.08045e-07
1.66669e-08
-1.12416e-07
1.6796e-08
-1.16817e-07
1.6942e-08
-1.21251e-07
1.71056e-08
-1.25725e-07
1.72873e-08
-1.30242e-07
1.74879e-08
-1.34808e-07
1.7708e-08
-1.39427e-07
1.79486e-08
-1.44107e-07
1.82106e-08
-1.48852e-07
1.84952e-08
-1.53668e-07
1.88038e-08
-1.58563e-07
1.91378e-08
-1.63543e-07
1.94989e-08
-1.68615e-07
1.98888e-08
-1.73788e-07
2.03095e-08
-1.7907e-07
2.07628e-08
-1.84468e-07
2.12509e-08
-1.89993e-07
2.17759e-08
-1.95654e-07
2.23398e-08
-2.0146e-07
2.2945e-08
-2.07423e-07
2.35935e-08
-2.13554e-07
2.42876e-08
-2.19864e-07
2.50293e-08
-2.26366e-07
2.58209e-08
-2.33071e-07
2.66642e-08
-2.39993e-07
2.75613e-08
-2.47145e-07
2.85138e-08
-2.5454e-07
2.95232e-08
-2.62193e-07
3.05908e-08
-2.70117e-07
3.17172e-08
-2.78326e-07
3.2903e-08
-2.86834e-07
3.41479e-08
-2.95654e-07
3.54511e-08
-3.04799e-07
3.68107e-08
-3.14281e-07
3.82241e-08
-3.2411e-07
3.96873e-08
-3.34295e-07
4.1195e-08
-3.44844e-07
4.27402e-08
-3.55761e-07
4.43143e-08
-3.67049e-07
4.5906e-08
-3.78704e-07
4.75022e-08
-3.90722e-07
4.90865e-08
-4.0309e-07
5.064e-08
-4.15792e-07
5.214e-08
-4.28804e-07
5.35606e-08
-4.42095e-07
5.48717e-08
-4.55625e-07
5.60396e-08
-4.69344e-07
5.70261e-08
-4.83193e-07
5.77893e-08
-4.97102e-07
5.82828e-08
-5.10988e-07
5.84568e-08
-5.24756e-07
5.82582e-08
-5.38297e-07
5.7631e-08
-5.51492e-07
5.65179e-08
-5.64206e-07
5.48604e-08
-5.76292e-07
5.26013e-08
-5.87594e-07
4.96855e-08
-5.97943e-07
4.60623e-08
-6.07162e-07
4.16874e-08
-6.15069e-07
3.65254e-08
-6.21478e-07
3.05521e-08
-6.26204e-07
2.37569e-08
-6.29065e-07
1.61458e-08
-6.29888e-07
7.74261e-09
-6.28511e-07
-1.4016e-09
-6.2479e-07
-1.12237e-08
-6.18608e-07
-2.16338e-08
-6.0987e-07
-3.2515e-08
-5.98515e-07
-4.37287e-08
-5.84521e-07
-5.51147e-08
-5.67905e-07
-6.64902e-08
-5.48728e-07
-7.76564e-08
-5.27095e-07
-8.84075e-08
-5.03161e-07
-9.85308e-08
-4.77123e-07
-1.07814e-07
-4.49223e-07
-1.16049e-07
-4.19746e-07
-1.23047e-07
-3.8901e-07
-1.28635e-07
-3.57366e-07
-1.32675e-07
-3.25187e-07
-1.35059e-07
-2.92859e-07
-1.35721e-07
-2.60776e-07
-1.34638e-07
-2.29326e-07
-1.31832e-07
-1.98886e-07
-1.27368e-07
-1.69808e-07
-1.21355e-07
-1.42414e-07
-1.13937e-07
-1.16989e-07
-1.05295e-07
-9.37736e-08
-9.56321e-08
-7.29577e-08
-8.5172e-08
-5.46799e-08
-7.4151e-08
-3.90231e-08
-6.28121e-08
-2.60133e-08
-5.14018e-08
-1.5618e-08
-4.01694e-08
-7.74366e-09
-2.93708e-08
-2.23275e-09
-1.92768e-08
1.14166e-09
-1.01883e-08
2.6836e-09
-2.45939e-09
2.78437e-09
3.47358e-09
1.93567e-09
7.05825e-09
7.47275e-10
7.6e-09
4.21783e-09
-7.3092e-12
-7.87232e-10
4.18142e-11
-2.20576e-09
1.29796e-11
-1.92457e-09
-2.52117e-10
-6.36773e-10
-8.67463e-10
1.20275e-09
-1.90025e-09
3.29937e-09
-3.38143e-09
5.47065e-09
-5.31344e-09
7.60099e-09
-7.67818e-09
9.61825e-09
-1.04448e-08
1.14786e-08
-1.35752e-08
1.31568e-08
-1.7028e-08
1.46407e-08
-2.07612e-08
1.59284e-08
-2.47341e-08
1.70251e-08
-2.89083e-08
1.7942e-08
-3.32488e-08
1.86936e-08
-3.77243e-08
1.92974e-08
-4.2307e-08
1.97721e-08
-4.69733e-08
2.0137e-08
-5.17031e-08
2.04104e-08
-5.648e-08
2.06096e-08
-6.12905e-08
2.075e-08
-6.61246e-08
2.08455e-08
-7.09744e-08
2.09093e-08
-7.58343e-08
2.0953e-08
-8.07003e-08
2.09857e-08
-8.557e-08
2.10148e-08
-9.04426e-08
2.10463e-08
-9.53184e-08
2.10847e-08
-1.00199e-07
2.11336e-08
-1.05087e-07
2.11958e-08
-1.09985e-07
2.12738e-08
-1.14896e-07
2.13692e-08
-1.19825e-07
2.14834e-08
-1.24776e-07
2.16177e-08
-1.29753e-07
2.17728e-08
-1.34761e-07
2.19496e-08
-1.39804e-07
2.21489e-08
-1.44888e-07
2.23714e-08
-1.50018e-07
2.26181e-08
-1.552e-07
2.289e-08
-1.6044e-07
2.31883e-08
-1.65744e-07
2.35143e-08
-1.71118e-07
2.38695e-08
-1.7657e-07
2.42555e-08
-1.82106e-07
2.46743e-08
-1.87735e-07
2.51279e-08
-1.93465e-07
2.56186e-08
-1.99304e-07
2.61485e-08
-2.05261e-07
2.67203e-08
-2.11347e-07
2.73365e-08
-2.17571e-07
2.79996e-08
-2.23943e-07
2.87124e-08
-2.30476e-07
2.94775e-08
-2.3718e-07
3.02978e-08
-2.44068e-07
3.11759e-08
-2.51154e-07
3.21145e-08
-2.58449e-07
3.31162e-08
-2.65968e-07
3.41834e-08
-2.73725e-07
3.53186e-08
-2.81735e-07
3.65238e-08
-2.90013e-07
3.78007e-08
-2.98573e-07
3.91508e-08
-3.0743e-07
4.05749e-08
-3.16601e-07
4.20733e-08
-3.26099e-07
4.36457e-08
-3.35938e-07
4.52905e-08
-3.46133e-07
4.70053e-08
-3.56695e-07
4.87863e-08
-3.67636e-07
5.06281e-08
-3.78964e-07
5.25237e-08
-3.90688e-07
5.44637e-08
-4.0281e-07
5.64364e-08
-4.15331e-07
5.84274e-08
-4.28248e-07
6.04191e-08
-4.41552e-07
6.23904e-08
-4.55228e-07
6.43165e-08
-4.69257e-07
6.61683e-08
-4.83608e-07
6.79121e-08
-4.98246e-07
6.95095e-08
-5.13124e-07
7.09172e-08
-5.28184e-07
7.20867e-08
-5.4336e-07
7.29645e-08
-5.58569e-07
7.34921e-08
-5.73719e-07
7.3607e-08
-5.88703e-07
7.32424e-08
-6.03401e-07
7.23287e-08
-6.17678e-07
7.07945e-08
-6.31385e-07
6.85682e-08
-6.44363e-07
6.55794e-08
-6.56439e-07
6.17613e-08
-6.6743e-07
5.70531e-08
-6.77145e-07
5.14023e-08
-6.85388e-07
4.47681e-08
-6.91959e-07
3.71238e-08
-6.96663e-07
2.84602e-08
-6.99305e-07
1.87886e-08
-6.99706e-07
8.14328e-09
-6.97696e-07
-3.41213e-09
-6.93126e-07
-1.57932e-08
-6.85875e-07
-2.88846e-08
-6.7585e-07
-4.25403e-08
-6.62992e-07
-5.65872e-08
-6.4728e-07
-7.0826e-08
-6.28741e-07
-8.50297e-08
-6.07444e-07
-9.89536e-08
-5.83507e-07
-1.12344e-07
-5.57096e-07
-1.24941e-07
-5.28427e-07
-1.36483e-07
-4.97759e-07
-1.46717e-07
-4.65398e-07
-1.55408e-07
-4.31685e-07
-1.62348e-07
-3.96995e-07
-1.67365e-07
-3.61727e-07
-1.70327e-07
-3.26295e-07
-1.71153e-07
-2.9112e-07
-1.69813e-07
-2.56619e-07
-1.66333e-07
-2.23196e-07
-1.60791e-07
-1.91233e-07
-1.53318e-07
-1.61078e-07
-1.44093e-07
-1.33039e-07
-1.33334e-07
-1.0738e-07
-1.21292e-07
-8.43087e-08
-1.08243e-07
-6.39799e-08
-9.44798e-08
-4.64873e-08
-8.03047e-08
-3.18631e-08
-6.60259e-08
-2.00762e-08
-5.19564e-08
-1.10291e-08
-3.84179e-08
-4.55521e-09
-2.57507e-08
-4.13574e-10
-1.43299e-08
1.71756e-09
-4.59053e-09
2.24958e-09
2.94156e-09
1.69467e-09
7.61316e-09
6.81713e-10
8.61297e-09
4.89955e-09
-1.48343e-11
-7.72555e-10
-4.79912e-11
-2.17268e-09
-2.24965e-10
-1.74758e-09
-6.99507e-10
-1.62182e-10
-1.56351e-09
2.0668e-09
-2.88197e-09
4.61787e-09
-4.6832e-09
7.27191e-09
-6.96796e-09
9.88577e-09
-9.71715e-09
1.23675e-08
-1.28985e-08
1.466e-08
-1.6472e-08
1.67303e-08
-2.03938e-08
1.85625e-08
-2.46192e-08
2.01538e-08
-2.91047e-08
2.15106e-08
-3.38091e-08
2.26464e-08
-3.86946e-08
2.35791e-08
-4.37274e-08
2.43301e-08
-4.88774e-08
2.49222e-08
-5.4119e-08
2.53785e-08
-5.94301e-08
2.57215e-08
-6.47927e-08
2.59722e-08
-7.01922e-08
2.61494e-08
-7.5617e-08
2.62703e-08
-8.10584e-08
2.63507e-08
-8.65099e-08
2.64046e-08
-9.19672e-08
2.6443e-08
-9.74276e-08
2.64752e-08
-1.0289e-07
2.65086e-08
-1.08354e-07
2.65493e-08
-1.13823e-07
2.66018e-08
-1.19297e-07
2.66701e-08
-1.2478e-07
2.67571e-08
-1.30276e-07
2.68652e-08
-1.35789e-07
2.69963e-08
-1.41323e-07
2.71518e-08
-1.46883e-07
2.73329e-08
-1.52475e-07
2.75408e-08
-1.58102e-07
2.77764e-08
-1.63772e-07
2.80409e-08
-1.69489e-07
2.83355e-08
-1.7526e-07
2.86614e-08
-1.81092e-07
2.90202e-08
-1.86992e-07
2.94135e-08
-1.92965e-07
2.98432e-08
-1.99021e-07
3.03113e-08
-2.05167e-07
3.08202e-08
-2.11411e-07
3.13724e-08
-2.17763e-07
3.19706e-08
-2.24232e-07
3.26175e-08
-2.30828e-07
3.33161e-08
-2.37561e-07
3.40697e-08
-2.44443e-07
3.48812e-08
-2.51485e-07
3.5754e-08
-2.58699e-07
3.66914e-08
-2.66097e-07
3.76967e-08
-2.73695e-07
3.87732e-08
-2.81504e-07
3.9924e-08
-2.8954e-07
4.11523e-08
-2.97818e-07
4.24611e-08
-3.06353e-07
4.38532e-08
-3.1516e-07
4.53309e-08
-3.24256e-07
4.68964e-08
-3.33656e-07
4.85512e-08
-3.43377e-07
5.02961e-08
-3.53435e-07
5.21314e-08
-3.63846e-07
5.40561e-08
-3.74623e-07
5.60683e-08
-3.85783e-07
5.81646e-08
-3.97336e-07
6.03399e-08
-4.09296e-07
6.25872e-08
-4.21669e-07
6.48972e-08
-4.34463e-07
6.72579e-08
-4.47681e-07
6.96544e-08
-4.61322e-07
7.20683e-08
-4.75381e-07
7.44773e-08
-4.89845e-07
7.68548e-08
-5.04698e-07
7.91694e-08
-5.19914e-07
8.13848e-08
-5.35461e-07
8.3459e-08
-5.51296e-07
8.53443e-08
-5.67366e-07
8.69868e-08
-5.83606e-07
8.83268e-08
-5.9994e-07
8.92985e-08
-6.16278e-07
8.98306e-08
-6.32518e-07
8.98464e-08
-6.48541e-07
8.92653e-08
-6.64215e-07
8.8003e-08
-6.79394e-07
8.59741e-08
-6.93919e-07
8.30928e-08
-7.07615e-07
7.92758e-08
-7.20299e-07
7.44446e-08
-7.31774e-07
6.85284e-08
-7.41839e-07
6.14673e-08
-7.50286e-07
5.32153e-08
-7.56907e-07
4.37446e-08
-7.61495e-07
3.30482e-08
-7.63851e-07
2.11443e-08
-7.63786e-07
8.07855e-09
-7.61128e-07
-6.07048e-09