/*--------------------------------*- C++ -*----------------------------------*\
  =========                 |
  \\      /  F ield         | OpenFOAM: The Open Source CFD Toolbox
   \\    /   O peration     | Website:  https://openfoam.org
    \\  /    A nd           | Version:  12
     \\/     M anipulation  |
\*---------------------------------------------------------------------------*/
FoamFile
{
    format      ascii;
    class       volVectorField;
    location    "0.5";
    object      U;
}
// * * * * * * * * * * * * * * * * * * * * * * * * * * * * * * * * * * * * * //

dimensions      [0 1 -1 0 0 0 0];

internalField   nonuniform List<vector> 
18225
(
(1.8902e-05 -8.06628e-05 0)
(9.14125e-05 -2.66656e-05 0)
(0.000122744 -3.38703e-06 0)
(0.00012819 1.35447e-06 0)
(0.0001194 3.31875e-06 0)
(0.000107216 3.93277e-06 0)
(9.23364e-05 3.81976e-06 0)
(7.4865e-05 3.3725e-06 0)
(5.47101e-05 2.83531e-06 0)
(3.16244e-05 2.36197e-06 0)
(5.50501e-06 2.06147e-06 0)
(-2.35781e-05 1.8705e-06 0)
(-5.54373e-05 1.76945e-06 0)
(-8.97549e-05 1.70249e-06 0)
(-0.000126142 1.65789e-06 0)
(-0.000164185 1.59495e-06 0)
(-0.000203477 1.52869e-06 0)
(-0.000243655 1.44446e-06 0)
(-0.000284429 1.37919e-06 0)
(-0.000325591 1.32091e-06 0)
(-0.000367004 1.27683e-06 0)
(-0.000408554 1.19673e-06 0)
(-0.000450148 1.05394e-06 0)
(-0.000491688 9.00738e-07 0)
(-0.00053311 8.11894e-07 0)
(-0.000574508 8.12718e-07 0)
(-0.000616106 9.16834e-07 0)
(-0.000658059 1.13246e-06 0)
(-0.000700452 1.40269e-06 0)
(-0.00074337 1.66382e-06 0)
(-0.000786858 1.8989e-06 0)
(-0.000830953 2.11285e-06 0)
(-0.000875702 2.3213e-06 0)
(-0.000921163 2.52938e-06 0)
(-0.000967396 2.74244e-06 0)
(-0.00101446 2.95778e-06 0)
(-0.0010624 3.17654e-06 0)
(-0.00111127 3.3944e-06 0)
(-0.00116112 3.61153e-06 0)
(-0.00121198 3.82266e-06 0)
(-0.00126389 4.02725e-06 0)
(-0.0013169 4.21972e-06 0)
(-0.00137102 4.4002e-06 0)
(-0.00142629 4.5645e-06 0)
(-0.00148275 4.71494e-06 0)
(-0.00154043 4.85015e-06 0)
(-0.00159938 4.97508e-06 0)
(-0.00165966 5.09063e-06 0)
(-0.00172134 5.20276e-06 0)
(-0.0017845 5.31286e-06 0)
(-0.00184924 5.42626e-06 0)
(-0.00191568 5.54404e-06 0)
(-0.00198392 5.67066e-06 0)
(-0.00205411 5.80704e-06 0)
(-0.00212638 5.95682e-06 0)
(-0.00220089 6.12029e-06 0)
(-0.0022778 6.29994e-06 0)
(-0.00235729 6.49511e-06 0)
(-0.00243952 6.70751e-06 0)
(-0.00252469 6.93609e-06 0)
(-0.00261299 7.18245e-06 0)
(-0.00270463 7.44581e-06 0)
(-0.00279979 7.7279e-06 0)
(-0.00289871 8.02835e-06 0)
(-0.00300159 8.34891e-06 0)
(-0.00310866 8.68939e-06 0)
(-0.00322015 9.05131e-06 0)
(-0.00333627 9.43437e-06 0)
(-0.00345726 9.83963e-06 0)
(-0.00358334 1.02664e-05 0)
(-0.00371471 1.07152e-05 0)
(-0.00385158 1.11846e-05 0)
(-0.00399414 1.16742e-05 0)
(-0.00414253 1.21817e-05 0)
(-0.00429689 1.27055e-05 0)
(-0.00445731 1.3242e-05 0)
(-0.00462383 1.37882e-05 0)
(-0.00479644 1.43385e-05 0)
(-0.00497504 1.48881e-05 0)
(-0.00515947 1.5429e-05 0)
(-0.00534945 1.5954e-05 0)
(-0.00554461 1.64524e-05 0)
(-0.00574443 1.69138e-05 0)
(-0.00594824 1.73246e-05 0)
(-0.00615522 1.76709e-05 0)
(-0.00636436 1.79356e-05 0)
(-0.00657445 1.81016e-05 0)
(-0.00678405 1.81484e-05 0)
(-0.00699151 1.80558e-05 0)
(-0.00719493 1.7801e-05 0)
(-0.00739219 1.73621e-05 0)
(-0.00758089 1.67152e-05 0)
(-0.00775844 1.58391e-05 0)
(-0.00792199 1.47121e-05 0)
(-0.00806855 1.33163e-05 0)
(-0.00819495 1.16361e-05 0)
(-0.00829777 9.63246e-06 0)
(-0.00837402 7.34073e-06 0)
(-0.00841986 4.82765e-06 0)
(-0.00843315 1.90592e-06 0)
(-0.0084101 -1.19937e-06 0)
(-0.00834842 -4.57754e-06 0)
(-0.00824599 -8.13467e-06 0)
(-0.00810122 -1.18359e-05 0)
(-0.00791318 -1.56145e-05 0)
(-0.00768174 -1.93936e-05 0)
(-0.0074076 -2.30942e-05 0)
(-0.00709238 -2.6631e-05 0)
(-0.00673859 -2.9915e-05 0)
(-0.00634972 -3.28587e-05 0)
(-0.00593012 -3.53785e-05 0)
(-0.005485 -3.74002e-05 0)
(-0.00502025 -3.88616e-05 0)
(-0.00454235 -3.97168e-05 0)
(-0.00405818 -3.99379e-05 0)
(-0.00357481 -3.95178e-05 0)
(-0.00309928 -3.84693e-05 0)
(-0.00263842 -3.68262e-05 0)
(-0.00219867 -3.464e-05 0)
(-0.00178582 -3.19787e-05 0)
(-0.00140495 -2.89214e-05 0)
(-0.00106024 -2.55563e-05 0)
(-0.000754969 -2.19743e-05 0)
(-0.000491405 -1.82666e-05 0)
(-0.000270852 -1.45201e-05 0)
(-9.36614e-05 -1.08156e-05 0)
(4.07281e-05 -7.22707e-06 0)
(0.000133743 -3.81992e-06 0)
(0.000187678 -6.61999e-07 0)
(0.000205766 2.17158e-06 0)
(0.000192399 4.57135e-06 0)
(0.000153671 6.33641e-06 0)
(9.82504e-05 7.17811e-06 0)
(4.09934e-05 6.16476e-06 0)
(4.05598e-06 2.09746e-06 0)
(-3.23323e-05 -4.80679e-05 0)
(4.37127e-05 -4.19178e-05 0)
(0.000153716 -1.4428e-05 0)
(0.000196168 -3.32854e-06 0)
(0.0002025 4.79934e-06 0)
(0.000187695 1.04688e-05 0)
(0.000157136 1.46962e-05 0)
(0.000113372 1.83478e-05 0)
(5.77373e-05 2.17655e-05 0)
(-9.03964e-06 2.508e-05 0)
(-8.63056e-05 2.83431e-05 0)
(-0.000173295 3.13909e-05 0)
(-0.000269085 3.41529e-05 0)
(-0.000372606 3.65287e-05 0)
(-0.000482693 3.85152e-05 0)
(-0.000598162 4.00687e-05 0)
(-0.000717877 4.12552e-05 0)
(-0.000840813 4.20874e-05 0)
(-0.000966115 4.26789e-05 0)
(-0.00109313 4.30555e-05 0)
(-0.00122136 4.33052e-05 0)
(-0.00135039 4.33996e-05 0)
(-0.00147983 4.33807e-05 0)
(-0.00160924 4.33158e-05 0)
(-0.00173818 4.33286e-05 0)
(-0.00186682 4.34135e-05 0)
(-0.00199597 4.36127e-05 0)
(-0.00212614 4.39804e-05 0)
(-0.0022574 4.4477e-05 0)
(-0.00238982 4.50308e-05 0)
(-0.00252347 4.56128e-05 0)
(-0.00265838 4.62266e-05 0)
(-0.00279467 4.68853e-05 0)
(-0.00293245 4.75959e-05 0)
(-0.00307187 4.83608e-05 0)
(-0.00321307 4.91788e-05 0)
(-0.0033562 5.00481e-05 0)
(-0.00350141 5.09667e-05 0)
(-0.00364885 5.19323e-05 0)
(-0.00379867 5.29425e-05 0)
(-0.003951 5.39949e-05 0)
(-0.00410599 5.50873e-05 0)
(-0.0042638 5.62195e-05 0)
(-0.00442456 5.73925e-05 0)
(-0.00458846 5.86106e-05 0)
(-0.00475566 5.98802e-05 0)
(-0.00492637 6.1211e-05 0)
(-0.00510079 6.26137e-05 0)
(-0.00527917 6.41004e-05 0)
(-0.00546178 6.56828e-05 0)
(-0.00564892 6.73729e-05 0)
(-0.00584091 6.91815e-05 0)
(-0.00603809 7.112e-05 0)
(-0.00624084 7.3199e-05 0)
(-0.00644956 7.54289e-05 0)
(-0.00666467 7.78194e-05 0)
(-0.00688662 8.03795e-05 0)
(-0.00711589 8.31175e-05 0)
(-0.00735297 8.60413e-05 0)
(-0.00759837 8.91583e-05 0)
(-0.00785262 9.24757e-05 0)
(-0.00811628 9.60006e-05 0)
(-0.00838992 9.97393e-05 0)
(-0.00867413 0.000103698 0)
(-0.0089695 0.000107881 0)
(-0.00927664 0.000112292 0)
(-0.00959617 0.000116932 0)
(-0.00992868 0.000121802 0)
(-0.0102748 0.000126898 0)
(-0.0106351 0.000132212 0)
(-0.0110101 0.000137735 0)
(-0.0114003 0.000143451 0)
(-0.0118062 0.000149338 0)
(-0.0122282 0.000155368 0)
(-0.0126665 0.000161506 0)
(-0.0131214 0.000167705 0)
(-0.0135928 0.000173912 0)
(-0.0140806 0.000180058 0)
(-0.0145844 0.000186065 0)
(-0.0151037 0.000191839 0)
(-0.0156374 0.000197271 0)
(-0.0161845 0.000202234 0)
(-0.0167433 0.000206586 0)
(-0.0173118 0.000210166 0)
(-0.0178875 0.000212796 0)
(-0.0184674 0.000214279 0)
(-0.0190481 0.000214402 0)
(-0.0196253 0.00021294 0)
(-0.0201943 0.000209655 0)
(-0.0207497 0.000204302 0)
(-0.0212855 0.000196637 0)
(-0.0217951 0.00018642 0)
(-0.0222711 0.000173425 0)
(-0.0227058 0.00015745 0)
(-0.0230909 0.000138327 0)
(-0.0234179 0.000115929 0)
(-0.0236776 9.01381e-05 0)
(-0.0238623 6.08237e-05 0)
(-0.0239607 2.8884e-05 0)
(-0.0239686 -6.65745e-06 0)
(-0.0238752 -4.47881e-05 0)
(-0.0236754 -8.53325e-05 0)
(-0.0233634 -0.000127728 0)
(-0.0229356 -0.000171374 0)
(-0.0223898 -0.000215537 0)
(-0.0217263 -0.000259381 0)
(-0.0209474 -0.00030203 0)
(-0.0200576 -0.000342558 0)
(-0.0190643 -0.000380023 0)
(-0.0179768 -0.000413496 0)
(-0.0168071 -0.000442105 0)
(-0.0155692 -0.000465071 0)
(-0.014279 -0.000481745 0)
(-0.0129537 -0.000491641 0)
(-0.0116116 -0.00049446 0)
(-0.0102716 -0.000490106 0)
(-0.00895248 -0.000478696 0)
(-0.00767248 -0.000460551 0)
(-0.00644878 -0.000436184 0)
(-0.00529705 -0.000406277 0)
(-0.00423103 -0.000371643 0)
(-0.00326221 -0.000333198 0)
(-0.00239967 -0.000291911 0)
(-0.0016499 -0.000248775 0)
(-0.00101679 -0.000204773 0)
(-0.000501665 -0.000160854 0)
(-0.000103331 -0.000117932 0)
(0.000181856 -7.68998e-05 0)
(0.000360051 -3.86846e-05 0)
(0.000440162 -4.36994e-06 0)
(0.000434395 2.46029e-05 0)
(0.000359554 4.60333e-05 0)
(0.000238676 5.64125e-05 0)
(0.00010748 4.96306e-05 0)
(1.32682e-05 2.08511e-05 0)
(-3.56769e-05 -9.71227e-05 0)
(1.33139e-05 -7.51697e-05 0)
(0.000101362 -4.65962e-05 0)
(0.000158486 -1.85621e-05 0)
(0.000180375 4.39981e-06 0)
(0.000172365 2.22465e-05 0)
(0.000136824 3.67762e-05 0)
(7.5493e-05 4.94819e-05 0)
(-9.77262e-06 6.11782e-05 0)
(-0.000117067 7.21669e-05 0)
(-0.000244362 8.24216e-05 0)
(-0.000389539 9.17952e-05 0)
(-0.00055041 0.000100099 0)
(-0.000724781 0.000107264 0)
(-0.000910509 0.000113213 0)
(-0.00110557 0.000118007 0)
(-0.00130811 0.000121698 0)
(-0.00151648 0.000124465 0)
(-0.00172927 0.000126451 0)
(-0.00194534 0.000127863 0)
(-0.00216379 0.000128787 0)
(-0.00238389 0.000129317 0)
(-0.00260512 0.000129446 0)
(-0.00282695 0.000129384 0)
(-0.00304883 0.000129372 0)
(-0.0032708 0.000129581 0)
(-0.00349339 0.000130093 0)
(-0.00371684 0.000130932 0)
(-0.00394109 0.000131985 0)
(-0.00416627 0.000133144 0)
(-0.00439254 0.00013438 0)
(-0.00462011 0.000135708 0)
(-0.00484916 0.000137157 0)
(-0.00507993 0.000138743 0)
(-0.00531264 0.000140478 0)
(-0.00554754 0.000142359 0)
(-0.00578487 0.00014439 0)
(-0.00602489 0.000146567 0)
(-0.00626786 0.000148891 0)
(-0.00651404 0.000151358 0)
(-0.0067637 0.00015397 0)
(-0.00701712 0.000156725 0)
(-0.00727459 0.000159631 0)
(-0.00753644 0.00016269 0)
(-0.00780298 0.000165919 0)
(-0.00807457 0.00016933 0)
(-0.00835159 0.000172949 0)
(-0.00863444 0.000176796 0)
(-0.00892354 0.000180901 0)
(-0.00921937 0.000185288 0)
(-0.00952241 0.000189987 0)
(-0.0098332 0.000195021 0)
(-0.0101523 0.00020042 0)
(-0.0104803 0.000206207 0)
(-0.0108179 0.00021241 0)
(-0.0111657 0.000219051 0)
(-0.0115244 0.000226157 0)
(-0.0118948 0.000233746 0)
(-0.0122776 0.000241844 0)
(-0.0126737 0.000250467 0)
(-0.0130838 0.000259638 0)
(-0.0135089 0.000269373 0)
(-0.0139498 0.00027969 0)
(-0.0144075 0.000290601 0)
(-0.0148829 0.000302119 0)
(-0.0153768 0.000314249 0)
(-0.0158904 0.000326993 0)
(-0.0164244 0.000340345 0)
(-0.0169798 0.000354293 0)
(-0.0175575 0.000368813 0)
(-0.0181583 0.000383871 0)
(-0.0187829 0.000399416 0)
(-0.0194319 0.000415385 0)
(-0.020106 0.000431692 0)
(-0.0208054 0.000448232 0)
(-0.0215302 0.000464874 0)
(-0.0222805 0.000481457 0)
(-0.0230558 0.000497789 0)
(-0.0238554 0.000513644 0)
(-0.0246782 0.000528756 0)
(-0.0255226 0.000542818 0)
(-0.0263864 0.000555478 0)
(-0.027267 0.000566339 0)
(-0.0281609 0.000574956 0)
(-0.0290641 0.00058084 0)
(-0.0299717 0.000583456 0)
(-0.0308778 0.000582229 0)
(-0.0317757 0.000576551 0)
(-0.0326579 0.00056579 0)
(-0.0335157 0.000549299 0)
(-0.0343395 0.000526439 0)
(-0.0351189 0.000496588 0)
(-0.0358424 0.000459175 0)
(-0.0364979 0.000413694 0)
(-0.0370727 0.00035974 0)
(-0.0375536 0.000297035 0)
(-0.0379268 0.000225391 0)
(-0.0381802 0.000144352 0)
(-0.0382974 5.63286e-05 0)
(-0.0382712 -4.07295e-05 0)
(-0.0380869 -0.000144761 0)
(-0.0377361 -0.000254789 0)
(-0.037211 -0.000369435 0)
(-0.0365066 -0.000487046 0)
(-0.0356202 -0.000605667 0)
(-0.0345527 -0.0007231 0)
(-0.0333082 -0.000837034 0)
(-0.0318943 -0.000945051 0)
(-0.0303223 -0.0010447 0)
(-0.0286071 -0.00113357 0)
(-0.026767 -0.00120941 0)
(-0.0248234 -0.00127022 0)
(-0.0228004 -0.00131432 0)
(-0.0207244 -0.00134048 0)
(-0.0186231 -0.00134792 0)
(-0.016525 -0.00133638 0)
(-0.0144586 -0.00130617 0)
(-0.0124517 -0.00125809 0)
(-0.0105304 -0.00119346 0)
(-0.00871858 -0.00111402 0)
(-0.00703742 -0.00102187 0)
(-0.00550473 -0.000919378 0)
(-0.0041347 -0.000809071 0)
(-0.00293768 -0.000693558 0)
(-0.00192007 -0.000575449 0)
(-0.00108435 -0.000457299 0)
(-0.000429072 -0.000341608 0)
(5.10933e-05 -0.00023087 0)
(0.000365486 -0.000127695 0)
(0.000527848 -3.5117e-05 0)
(0.000557129 4.29479e-05 0)
(0.000479082 0.000100899 0)
(0.000328079 0.000130421 0)
(0.000154272 0.000119027 0)
(2.03946e-05 5.56885e-05 0)
(-3.52684e-05 -5.76601e-05 0)
(-4.59249e-06 -9.80655e-05 0)
(6.22319e-05 -7.63053e-05 0)
(0.000118186 -3.94811e-05 0)
(0.000142402 -2.02102e-06 0)
(0.000131609 3.22617e-05 0)
(8.41893e-05 6.32129e-05 0)
(4.33746e-07 9.15199e-05 0)
(-0.000117766 0.000117661 0)
(-0.000267732 0.000141753 0)
(-0.000446339 0.000163698 0)
(-0.000650317 0.000183313 0)
(-0.000876355 0.000200469 0)
(-0.00112125 0.000215113 0)
(-0.00138197 0.000227297 0)
(-0.00165571 0.00023715 0)
(-0.00193996 0.00024489 0)
(-0.00223251 0.000250792 0)
(-0.00253145 0.000255172 0)
(-0.00283521 0.000258332 0)
(-0.0031425 0.000260523 0)
(-0.00345232 0.00026192 0)
(-0.00376395 0.00026266 0)
(-0.00407682 0.000263018 0)
(-0.00439033 0.000263307 0)
(-0.00470428 0.000263764 0)
(-0.00501891 0.000264534 0)
(-0.00533421 0.000265661 0)
(-0.00565005 0.000267071 0)
(-0.0059666 0.000268691 0)
(-0.00628411 0.000270504 0)
(-0.00660285 0.000272535 0)
(-0.00692313 0.000274817 0)
(-0.00724526 0.000277374 0)
(-0.00756956 0.000280218 0)
(-0.00789635 0.000283356 0)
(-0.00822599 0.000286792 0)
(-0.00855881 0.000290528 0)
(-0.00889519 0.00029457 0)
(-0.00923548 0.000298919 0)
(-0.00958009 0.000303584 0)
(-0.00992942 0.000308571 0)
(-0.0102839 0.000313894 0)
(-0.010644 0.000319571 0)
(-0.0110101 0.000325625 0)
(-0.0113829 0.000332087 0)
(-0.0117627 0.000338991 0)
(-0.0121503 0.000346378 0)
(-0.0125461 0.000354291 0)
(-0.0129509 0.000362773 0)
(-0.0133653 0.000371872 0)
(-0.0137901 0.000381631 0)
(-0.0142259 0.000392098 0)
(-0.0146736 0.000403316 0)
(-0.0151342 0.000415333 0)
(-0.0156083 0.000428191 0)
(-0.0160971 0.000441935 0)
(-0.0166014 0.000456608 0)
(-0.0171224 0.000472249 0)
(-0.017661 0.000488899 0)
(-0.0182185 0.000506593 0)
(-0.0187958 0.000525365 0)
(-0.0193943 0.000545245 0)
(-0.0200151 0.000566256 0)
(-0.0206594 0.000588417 0)
(-0.0213285 0.000611736 0)
(-0.0220235 0.000636209 0)
(-0.0227457 0.000661822 0)
(-0.0234963 0.000688543 0)
(-0.0242763 0.000716319 0)
(-0.0250868 0.000745076 0)
(-0.0259286 0.00077471 0)
(-0.0268026 0.000805088 0)
(-0.0277094 0.000836037 0)
(-0.0286492 0.000867341 0)
(-0.0296221 0.000898736 0)
(-0.0306279 0.000929904 0)
(-0.031666 0.000960461 0)
(-0.032735 0.000989962 0)
(-0.0338334 0.00101788 0)
(-0.0349588 0.00104362 0)
(-0.0361081 0.00106649 0)
(-0.0372775 0.00108573 0)
(-0.0384622 0.00110048 0)
(-0.0396566 0.0011098 0)
(-0.0408537 0.00111266 0)
(-0.0420457 0.00110798 0)
(-0.0432235 0.00109461 0)
(-0.0443766 0.00107137 0)
(-0.0454937 0.00103705 0)
(-0.0465618 0.000990474 0)
(-0.047567 0.00093051 0)
(-0.0484944 0.000856123 0)
(-0.0493279 0.00076642 0)
(-0.050051 0.000660704 0)
(-0.0506464 0.000538528 0)
(-0.0510968 0.000399718 0)
(-0.051386 0.000244049 0)
(-0.0514958 7.35068e-05 0)
(-0.0514124 -0.000111784 0)
(-0.0511214 -0.000310324 0)
(-0.0506113 -0.000519678 0)
(-0.0498729 -0.000737195 0)
(-0.0489001 -0.000959736 0)
(-0.0476907 -0.00118363 0)
(-0.0462464 -0.0014048 0)
(-0.044573 -0.00161893 0)
(-0.0426811 -0.00182158 0)
(-0.0405857 -0.00200821 0)
(-0.0383063 -0.00217442 0)
(-0.0358666 -0.00231609 0)
(-0.0332945 -0.00242956 0)
(-0.0306209 -0.00251178 0)
(-0.0278796 -0.00256047 0)
(-0.0251061 -0.00257422 0)
(-0.0223369 -0.00255258 0)
(-0.0196085 -0.00249606 0)
(-0.0169566 -0.00240615 0)
(-0.0144146 -0.00228521 0)
(-0.0120135 -0.00213642 0)
(-0.00978064 -0.00196363 0)
(-0.00773932 -0.00177118 0)
(-0.00590821 -0.00156373 0)
(-0.00430116 -0.00134612 0)
(-0.00292695 -0.00112325 0)
(-0.00178927 -0.000899943 0)
(-0.000886714 -0.00068098 0)
(-0.000212699 -0.000471172 0)
(0.000244706 -0.000275602 0)
(0.000503274 -0.000100104 0)
(0.000587564 4.79648e-05 0)
(0.000530551 0.000158566 0)
(0.000375301 0.000217523 0)
(0.000182201 0.000205247 0)
(2.48732e-05 0.000102028 0)
(-2.6611e-05 -5.72605e-05 0)
(-3.67691e-06 -0.000117415 0)
(4.49871e-05 -0.000100544 0)
(9.05242e-05 -5.62365e-05 0)
(0.00010469 -3.37439e-06 0)
(7.9215e-05 5.02444e-05 0)
(1.00441e-05 0.000101607 0)
(-0.000103526 0.000149972 0)
(-0.000259782 0.000194929 0)
(-0.000455654 0.000236206 0)
(-0.000687358 0.000273496 0)
(-0.000950818 0.00030656 0)
(-0.0012419 0.000335314 0)
(-0.0015566 0.000359771 0)
(-0.00189115 0.000380136 0)
(-0.00224208 0.000396663 0)
(-0.00260629 0.000409768 0)
(-0.00298106 0.000419865 0)
(-0.00336402 0.000427473 0)
(-0.00375323 0.000433023 0)
(-0.00414707 0.000436963 0)
(-0.00454429 0.000439591 0)
(-0.00494394 0.000441224 0)
(-0.00534523 0.00044221 0)
(-0.00574748 0.000442967 0)
(-0.0061504 0.000443757 0)
(-0.00655407 0.000444779 0)
(-0.00695838 0.000446137 0)
(-0.00736319 0.000447833 0)
(-0.00776864 0.000449854 0)
(-0.00817502 0.000452216 0)
(-0.00858266 0.000454958 0)
(-0.00899192 0.00045812 0)
(-0.00940316 0.000461732 0)
(-0.00981678 0.000465813 0)
(-0.0102332 0.000470377 0)
(-0.0106528 0.000475434 0)
(-0.0110761 0.000480992 0)
(-0.0115035 0.000487064 0)
(-0.0119355 0.000493661 0)
(-0.0123725 0.0005008 0)
(-0.0128151 0.0005085 0)
(-0.0132639 0.000516788 0)
(-0.0137193 0.000525694 0)
(-0.014182 0.000535258 0)
(-0.0146527 0.000545527 0)
(-0.015132 0.000556553 0)
(-0.0156207 0.000568394 0)
(-0.0161194 0.000581114 0)
(-0.016629 0.000594778 0)
(-0.0171503 0.000609453 0)
(-0.0176843 0.000625208 0)
(-0.0182318 0.000642111 0)
(-0.0187939 0.000660232 0)
(-0.0193717 0.000679641 0)
(-0.0199661 0.000700407 0)
(-0.0205784 0.000722598 0)
(-0.0212099 0.00074628 0)
(-0.0218616 0.000771518 0)
(-0.022535 0.000798373 0)
(-0.0232315 0.000826902 0)
(-0.0239523 0.000857157 0)
(-0.024699 0.000889182 0)
(-0.0254729 0.000923012 0)
(-0.0262757 0.000958668 0)
(-0.0271086 0.00099616 0)
(-0.0279733 0.00103548 0)
(-0.028871 0.00107658 0)
(-0.0298033 0.00111942 0)
(-0.0307713 0.0011639 0)
(-0.0317763 0.00120988 0)
(-0.0328193 0.00125718 0)
(-0.0339012 0.00130558 0)
(-0.0350224 0.00135479 0)
(-0.0361833 0.00140444 0)
(-0.0373838 0.00145408 0)
(-0.0386234 0.00150319 0)
(-0.0399011 0.00155114 0)
(-0.0412152 0.00159718 0)
(-0.0425634 0.00164045 0)
(-0.0439426 0.00167999 0)
(-0.0453487 0.00171466 0)
(-0.0467768 0.00174323 0)
(-0.0482206 0.00176431 0)
(-0.049673 0.0017764 0)
(-0.0511252 0.00177785 0)
(-0.0525674 0.00176695 0)
(-0.0539881 0.00174188 0)
(-0.0553745 0.00170077 0)
(-0.0567124 0.00164176 0)
(-0.057986 0.00156301 0)
(-0.0591783 0.0014628 0)
(-0.0602712 0.00133956 0)
(-0.0612454 0.00119196 0)
(-0.062081 0.001019 0)
(-0.0627576 0.000820076 0)
(-0.0632546 0.000595069 0)
(-0.0635525 0.000344154 0)
(-0.0636315 6.95164e-05 0)
(-0.0634744 -0.00022773 0)
(-0.0630651 -0.000545093 0)
(-0.0623907 -0.000878858 0)
(-0.0614411 -0.00122476 0)
(-0.06021 -0.00157781 0)
(-0.0586956 -0.00193223 0)
(-0.0569007 -0.00228163 0)
(-0.054833 -0.00261932 0)
(-0.0525056 -0.00293837 0)
(-0.049937 -0.00323178 0)
(-0.0471505 -0.00349276 0)
(-0.0441748 -0.00371496 0)
(-0.0410427 -0.00389275 0)
(-0.037791 -0.00402146 0)
(-0.0344596 -0.00409757 0)
(-0.0310905 -0.00411893 0)
(-0.0277268 -0.00408481 0)
(-0.0244114 -0.003996 0)
(-0.0211865 -0.00385474 0)
(-0.0180919 -0.00366466 0)
(-0.0151644 -0.00343066 0)
(-0.0124365 -0.00315862 0)
(-0.00993634 -0.00285526 0)
(-0.00768649 -0.00252783 0)
(-0.00570393 -0.00218389 0)
(-0.00399968 -0.00183111 0)
(-0.00257869 -0.00147716 0)
(-0.00143975 -0.00112967 0)
(-0.000575399 -0.000796387 0)
(2.83557e-05 -0.00048552 0)
(0.000392575 -0.000206399 0)
(0.000546361 2.94788e-05 0)
(0.000528405 0.000206969 0)
(0.000388363 0.000305548 0)
(0.00019406 0.000298099 0)
(2.71932e-05 0.000154262 0)
(-1.96065e-05 -5.40733e-05 0)
(1.15731e-06 -0.000131673 0)
(3.42605e-05 -0.000119042 0)
(6.34916e-05 -6.636e-05 0)
(5.93335e-05 3.6372e-06 0)
(1.10522e-05 7.91828e-05 0)
(-8.67862e-05 0.000154351 0)
(-0.000235552 0.000226423 0)
(-0.000433749 0.000293869 0)
(-0.000678113 0.000355786 0)
(-0.000964435 0.000411558 0)
(-0.00128806 0.000460877 0)
(-0.00164421 0.000503644 0)
(-0.00202825 0.000540014 0)
(-0.00243578 0.000570299 0)
(-0.00286276 0.000594984 0)
(-0.00330556 0.000614639 0)
(-0.00376098 0.000629928 0)
(-0.00422628 0.000641523 0)
(-0.00469912 0.000650094 0)
(-0.00517763 0.000656234 0)
(-0.00566027 0.000660457 0)
(-0.00614587 0.000663218 0)
(-0.00663347 0.000665017 0)
(-0.00712225 0.00066633 0)
(-0.00761182 0.0006675 0)
(-0.00810219 0.000668792 0)
(-0.0085932 0.000670383 0)
(-0.0090847 0.000672361 0)
(-0.00957683 0.000674778 0)
(-0.0100699 0.000677694 0)
(-0.0105642 0.000681171 0)
(-0.0110602 0.000685264 0)
(-0.0115582 0.000690013 0)
(-0.0120588 0.000695448 0)
(-0.0125624 0.000701591 0)
(-0.0130696 0.000708462 0)
(-0.0135807 0.000716079 0)
(-0.0140964 0.000724462 0)
(-0.0146173 0.000733635 0)
(-0.0151438 0.000743627 0)
(-0.0156767 0.00075447 0)
(-0.0162166 0.000766207 0)
(-0.016764 0.000778884 0)
(-0.0173199 0.000792561 0)
(-0.0178849 0.000807301 0)
(-0.0184597 0.00082318 0)
(-0.0190454 0.000840277 0)
(-0.0196426 0.000858678 0)
(-0.0202525 0.000878474 0)
(-0.020876 0.000899756 0)
(-0.0215141 0.000922621 0)
(-0.022168 0.000947165 0)
(-0.0228388 0.000973485 0)
(-0.0235278 0.00100168 0)
(-0.0242362 0.00103185 0)
(-0.0249654 0.00106408 0)
(-0.0257168 0.00109848 0)
(-0.026492 0.00113513 0)
(-0.0272923 0.00117412 0)
(-0.0281194 0.00121554 0)
(-0.0289749 0.00125944 0)
(-0.0298605 0.0013059 0)
(-0.0307778 0.00135495 0)
(-0.0317285 0.00140662 0)
(-0.0327144 0.00146091 0)
(-0.033737 0.00151781 0)
(-0.0347979 0.00157724 0)
(-0.0358989 0.00163912 0)
(-0.0370411 0.00170328 0)
(-0.038226 0.00176953 0)
(-0.0394546 0.00183759 0)
(-0.0407278 0.0019071 0)
(-0.0420462 0.00197762 0)
(-0.0434098 0.0020486 0)
(-0.0448184 0.00211937 0)
(-0.0462712 0.00218913 0)
(-0.0477668 0.00225696 0)
(-0.049303 0.00232174 0)
(-0.0508768 0.00238221 0)
(-0.0524842 0.00243693 0)
(-0.0541204 0.00248427 0)
(-0.055779 0.0025224 0)
(-0.0574526 0.00254932 0)
(-0.0591324 0.00256284 0)
(-0.0608081 0.00256063 0)
(-0.0624677 0.0025402 0)
(-0.0640978 0.00249896 0)
(-0.0656832 0.00243429 0)
(-0.0672072 0.00234356 0)
(-0.0686515 0.00222421 0)
(-0.0699964 0.00207386 0)
(-0.071221 0.00189037 0)
(-0.0723032 0.00167198 0)
(-0.0732204 0.0014174 0)
(-0.0739494 0.00112593 0)
(-0.0744673 0.000797559 0)
(-0.0747521 0.000432999 0)
(-0.0747822 3.47801e-05 0)
(-0.0745381 -0.000394853 0)
(-0.0740028 -0.000852132 0)
(-0.0731624 -0.00133182 0)
(-0.0720064 -0.0018278 0)
(-0.0705287 -0.00233292 0)
(-0.0687279 -0.00283898 0)
(-0.0666081 -0.00333695 0)
(-0.0641789 -0.00381746 0)
(-0.0614558 -0.00427078 0)
(-0.0584599 -0.00468714 0)
(-0.0552183 -0.00505705 0)
(-0.0517633 -0.00537169 0)
(-0.0481323 -0.00562323 0)
(-0.0443668 -0.00580517 0)
(-0.0405116 -0.00591263 0)
(-0.0366141 -0.0059426 0)
(-0.0327227 -0.00589404 0)
(-0.028886 -0.00576803 0)
(-0.0251513 -0.00556764 0)
(-0.0215637 -0.00529793 0)
(-0.0181649 -0.00496563 0)
(-0.0149921 -0.00457899 0)
(-0.0120773 -0.00414735 0)
(-0.00944673 -0.00368091 0)
(-0.00712007 -0.00319033 0)
(-0.00511044 -0.00268649 0)
(-0.00342403 -0.00218036 0)
(-0.00206 -0.00168291 0)
(-0.00101028 -0.00120535 0)
(-0.000259298 -0.000759573 0)
(0.000216642 -0.000358953 0)
(0.00045025 -1.96544e-05 0)
(0.00048467 0.000237659 0)
(0.00037455 0.000385857 0)
(0.000193102 0.00039 0)
(2.78393e-05 0.000208057 0)
(-1.43807e-05 -5.30335e-05 0)
(4.53793e-06 -0.000142233 0)
(2.29447e-05 -0.000130478 0)
(3.21629e-05 -6.67326e-05 0)
(4.0741e-06 2.2811e-05 0)
(-7.28621e-05 0.000122764 0)
(-0.000204569 0.000224528 0)
(-0.000392749 0.000323265 0)
(-0.000636042 0.000416189 0)
(-0.000931082 0.000501624 0)
(-0.00127335 0.000578568 0)
(-0.00165777 0.000646565 0)
(-0.00207905 0.000705497 0)
(-0.00253203 0.000755641 0)
(-0.00301177 0.00079744 0)
(-0.00351374 0.000831616 0)
(-0.00403385 0.000858923 0)
(-0.00456847 0.000880295 0)
(-0.00511447 0.000896589 0)
(-0.00566923 0.000908737 0)
(-0.00623057 0.000917496 0)
(-0.00679674 0.000923626 0)
(-0.00736633 0.000927718 0)
(-0.00793819 0.000930453 0)
(-0.00851136 0.000932388 0)
(-0.00908542 0.000933976 0)
(-0.00966029 0.000935551 0)
(-0.0102358 0.000937378 0)
(-0.0108117 0.000939629 0)
(-0.0113883 0.000942432 0)
(-0.0119657 0.000945894 0)
(-0.0125443 0.00095011 0)
(-0.0131246 0.000955156 0)
(-0.013707 0.000961091 0)
(-0.0142921 0.000967957 0)
(-0.0148803 0.00097579 0)
(-0.0154722 0.000984621 0)
(-0.0160684 0.000994479 0)
(-0.0166696 0.0010054 0)
(-0.0172763 0.00101741 0)
(-0.0178892 0.00103057 0)
(-0.018509 0.00104491 0)
(-0.0191365 0.0010605 0)
(-0.0197724 0.00107741 0)
(-0.0204176 0.00109571 0)
(-0.0210729 0.0011155 0)
(-0.0217392 0.00113686 0)
(-0.0224174 0.00115991 0)
(-0.0231087 0.00118475 0)
(-0.0238141 0.00121151 0)
(-0.0245347 0.0012403 0)
(-0.0252717 0.00127126 0)
(-0.0260264 0.00130451 0)
(-0.0268001 0.00134018 0)
(-0.0275942 0.00137839 0)
(-0.0284102 0.00141929 0)
(-0.0292496 0.00146299 0)
(-0.0301139 0.00150963 0)
(-0.0310049 0.00155932 0)
(-0.0319243 0.00161217 0)
(-0.0328739 0.0016683 0)
(-0.0338554 0.00172778 0)
(-0.0348707 0.0017907 0)
(-0.0359216 0.00185711 0)
(-0.0370102 0.00192703 0)
(-0.0381381 0.00200047 0)
(-0.0393073 0.00207736 0)
(-0.0405196 0.00215763 0)
(-0.0417765 0.00224111 0)
(-0.0430796 0.00232758 0)
(-0.0444303 0.00241675 0)
(-0.0458296 0.00250822 0)
(-0.0472785 0.00260148 0)
(-0.0487773 0.00269589 0)
(-0.0503261 0.0027907 0)
(-0.0519243 0.00288495 0)
(-0.0535709 0.00297755 0)
(-0.0552638 0.00306718 0)
(-0.0570004 0.00315233 0)
(-0.0587771 0.00323125 0)
(-0.0605889 0.00330196 0)
(-0.0624301 0.00336222 0)
(-0.0642932 0.00340955 0)
(-0.0661694 0.00344125 0)
(-0.0680486 0.00345435 0)
(-0.0699186 0.00344572 0)
(-0.0717658 0.00341203 0)
(-0.0735748 0.00334986 0)
(-0.0753283 0.00325572 0)
(-0.0770074 0.00312617 0)
(-0.0785916 0.00295789 0)
(-0.0800588 0.0027478 0)
(-0.0813856 0.0024932 0)
(-0.0825478 0.00219189 0)
(-0.0835204 0.00184233 0)
(-0.0842782 0.0014438 0)
(-0.0847962 0.00099652 0)
(-0.0850504 0.000501781 0)
(-0.0850181 -3.73515e-05 0)
(-0.0846784 -0.000617321 0)
(-0.0840135 -0.00123288 0)
(-0.0830088 -0.00187709 0)
(-0.081654 -0.00254173 0)
(-0.079943 -0.00321726 0)
(-0.0778755 -0.0038928 0)
(-0.0754565 -0.00455646 0)
(-0.0726975 -0.00519591 0)
(-0.0696159 -0.00579839 0)
(-0.0662354 -0.00635112 0)
(-0.0625858 -0.00684174 0)
(-0.0587027 -0.0072587 0)
(-0.0546271 -0.00759182 0)
(-0.0504045 -0.00783262 0)
(-0.0460837 -0.00797475 0)
(-0.0417165 -0.00801423 0)
(-0.0373557 -0.0079497 0)
(-0.0330545 -0.00778249 0)
(-0.0288648 -0.00751658 0)
(-0.024836 -0.0071585 0)
(-0.021014 -0.00671702 0)
(-0.0174399 -0.00620288 0)
(-0.0141494 -0.00562833 0)
(-0.0111717 -0.00500675 0)
(-0.00852915 -0.00435224 0)
(-0.00623666 -0.00367926 0)
(-0.0043017 -0.00300244 0)
(-0.00272387 -0.00233654 0)
(-0.00149476 -0.00169668 0)
(-0.000597577 -0.00109888 0)
(-6.58036e-06 -0.000561023 0)
(0.000313765 -0.00010433 0)
(0.00041003 0.000244735 0)
(0.000340641 0.000452295 0)
(0.000182616 0.000475432 0)
(2.72989e-05 0.000260316 0)
(-1.09241e-05 -5.26591e-05 0)
(4.77905e-06 -0.000148007 0)
(8.0104e-06 -0.000133268 0)
(-5.76201e-06 -5.53333e-05 0)
(-6.19788e-05 5.62749e-05 0)
(-0.000171892 0.00018312 0)
(-0.000341379 0.000313989 0)
(-0.000572256 0.000442014 0)
(-0.000863177 0.000563026 0)
(-0.00121068 0.000674499 0)
(-0.00160999 0.000774992 0)
(-0.00205568 0.000863807 0)
(-0.00254207 0.000940844 0)
(-0.00306351 0.00100642 0)
(-0.00361465 0.00106119 0)
(-0.00419051 0.00110604 0)
(-0.00478657 0.00114202 0)
(-0.00539884 0.00117026 0)
(-0.00602386 0.00119193 0)
(-0.00665871 0.00120813 0)
(-0.00730096 0.00121991 0)
(-0.00794863 0.00122819 0)
(-0.00860012 0.00123381 0)
(-0.00925409 0.00123757 0)
(-0.0099095 0.00124017 0)
(-0.0105658 0.00124217 0)
(-0.0112229 0.00124402 0)
(-0.0118806 0.00124606 0)
(-0.0125386 0.00124856 0)
(-0.0131972 0.00125171 0)
(-0.0138565 0.00125569 0)
(-0.014517 0.00126062 0)
(-0.015179 0.00126661 0)
(-0.0158431 0.00127374 0)
(-0.0165099 0.00128207 0)
(-0.0171798 0.00129165 0)
(-0.0178536 0.00130254 0)
(-0.0185319 0.00131477 0)
(-0.0192153 0.00132838 0)
(-0.0199046 0.00134344 0)
(-0.0206004 0.00136 0)
(-0.0213037 0.00137814 0)
(-0.0220152 0.00139792 0)
(-0.0227357 0.00141943 0)
(-0.0234662 0.00144279 0)
(-0.0242076 0.0014681 0)
(-0.024961 0.00149548 0)
(-0.0257275 0.00152507 0)
(-0.0265081 0.00155702 0)
(-0.027304 0.00159146 0)
(-0.0281166 0.00162856 0)
(-0.0289471 0.00166847 0)
(-0.029797 0.00171136 0)
(-0.0306677 0.00175738 0)
(-0.0315608 0.00180671 0)
(-0.0324779 0.00185952 0)
(-0.0334207 0.00191595 0)
(-0.0343909 0.00197617 0)
(-0.0353904 0.00204034 0)
(-0.0364211 0.00210859 0)
(-0.0374849 0.00218105 0)
(-0.0385838 0.00225784 0)
(-0.0397198 0.00233903 0)
(-0.040895 0.0024247 0)
(-0.0421114 0.00251485 0)
(-0.043371 0.00260948 0)
(-0.0446758 0.00270851 0)
(-0.0460276 0.0028118 0)
(-0.0474283 0.00291912 0)
(-0.0488795 0.00303018 0)
(-0.0503824 0.00314456 0)
(-0.0519382 0.00326171 0)
(-0.0535477 0.00338094 0)
(-0.0552112 0.00350142 0)
(-0.0569285 0.0036221 0)
(-0.0586988 0.00374174 0)
(-0.0605206 0.00385886 0)
(-0.0623915 0.00397174 0)
(-0.0643082 0.00407838 0)
(-0.0662664 0.00417647 0)
(-0.0682604 0.00426344 0)
(-0.0702834 0.00433638 0)
(-0.0723268 0.00439208 0)
(-0.0743807 0.00442703 0)
(-0.0764333 0.00443743 0)
(-0.0784712 0.00441927 0)
(-0.080479 0.00436832 0)
(-0.0824395 0.00428024 0)
(-0.0843337 0.00415065 0)
(-0.0861406 0.00397525 0)
(-0.0878377 0.00374993 0)
(-0.0894009 0.00347092 0)
(-0.0908051 0.00313495 0)
(-0.0920238 0.00273944 0)
(-0.0930305 0.00228264 0)
(-0.0937981 0.00176387 0)
(-0.0943002 0.0011837 0)
(-0.0945115 0.000544065 0)
(-0.0944081 -0.000151211 0)
(-0.0939684 -0.000897167 0)
(-0.0931741 -0.00168691 0)
(-0.0920105 -0.00251161 0)
(-0.0904671 -0.00336077 0)
(-0.0885385 -0.00422228 0)
(-0.0862249 -0.00508238 0)
(-0.0835328 -0.00592612 0)
(-0.0804747 -0.00673803 0)
(-0.0770698 -0.00750217 0)
(-0.0733439 -0.00820257 0)
(-0.0693292 -0.00882378 0)
(-0.065064 -0.00935144 0)
(-0.060592 -0.00977282 0)
(-0.0559619 -0.0100774 0)
(-0.0512262 -0.0102571 0)
(-0.04644 -0.010307 0)
(-0.04166 -0.0102255 0)
(-0.0369431 -0.0100139 0)
(-0.0323452 -0.00967727 0)
(-0.0279194 -0.00922362 0)
(-0.0237154 -0.00866388 0)
(-0.0197777 -0.0080114 0)
(-0.0161451 -0.00728153 0)
(-0.0128497 -0.00649109 0)
(-0.00991597 -0.00565785 0)
(-0.00736083 -0.00480016 0)
(-0.00519284 -0.00393666 0)
(-0.00341215 -0.00308627 0)
(-0.00201016 -0.00226837 0)
(-0.000969204 -0.00150353 0)
(-0.000261961 -0.000814479 0)
(0.000149285 -0.000227797 0)