/*--------------------------------*- C++ -*----------------------------------*\
  =========                 |
  \\      /  F ield         | OpenFOAM: The Open Source CFD Toolbox
   \\    /   O peration     | Website:  https://openfoam.org
    \\  /    A nd           | Version:  12
     \\/     M anipulation  |
\*---------------------------------------------------------------------------*/
FoamFile
{
    format      ascii;
    class       volScalarField;
    location    "0.4";
    object      epsilon;
}
// * * * * * * * * * * * * * * * * * * * * * * * * * * * * * * * * * * * * * //

dimensions      [0 2 -3 0 0 0 0];

internalField   nonuniform List<scalar> 
900
(
3.9968e-12
3.9968e-12
3.9968e-12
3.9968e-12
3.9968e-12
3.9968e-12
3.9968e-12
3.9968e-12
3.9968e-12
3.9968e-12
3.9968e-12
3.9968e-12
3.9968e-12
3.9968e-12
3.9968e-12
3.9968e-12
3.9968e-12
3.9968e-12
3.9968e-12
3.9968e-12
3.9968e-12
3.9968e-12
3.9968e-12
3.9968e-12
3.9968e-12
3.9968e-12
3.9968e-12
3.9968e-12
3.9968e-12
3.9968e-12
3.9968e-12
1.15439e-12
8.72666e-13
8.36983e-13
8.31411e-13
8.30303e-13
8.30025e-13
8.29937e-13
8.29902e-13
8.29882e-13
8.29864e-13
8.29847e-13
8.29828e-13
8.29809e-13
8.29788e-13
8.29772e-13
8.29762e-13
8.29753e-13
8.29746e-13
8.29741e-13
8.29742e-13
8.29752e-13
8.29785e-13
8.29878e-13
8.30171e-13
8.31303e-13
8.36909e-13
8.72632e-13
1.15439e-12
3.9968e-12
3.9968e-12
8.72632e-13
4.28964e-13
3.38884e-13
3.17508e-13
3.11745e-13
3.09978e-13
3.09363e-13
3.0912e-13
3.0901e-13
3.08951e-13
3.08913e-13
3.08883e-13
3.08856e-13
3.08831e-13
3.08809e-13
3.08792e-13
3.0878e-13
3.08775e-13
3.08785e-13
3.08823e-13
3.08921e-13
3.09164e-13
3.09792e-13
3.11587e-13
3.17393e-13
3.38825e-13
4.28964e-13
8.72664e-13
3.9968e-12
3.9968e-12
8.36908e-13
3.38823e-13
2.13308e-13
1.75228e-13
1.62442e-13
1.5778e-13
1.55941e-13
1.55157e-13
1.54797e-13
1.54616e-13
1.54516e-13
1.54453e-13
1.54408e-13
1.54372e-13
1.54344e-13
1.54325e-13
1.54321e-13
1.5434e-13
1.54407e-13
1.54566e-13
1.54919e-13
1.55714e-13
1.57583e-13
1.62297e-13
1.75153e-13
2.13311e-13
3.38885e-13
8.36982e-13
3.9968e-12
3.9968e-12
8.313e-13
3.17387e-13
1.75145e-13
1.25567e-13
1.06288e-13
9.82644e-14
9.47367e-14
9.31064e-14
9.23168e-14
9.19156e-14
9.17003e-14
9.15763e-14
9.14984e-14
9.1446e-14
9.14119e-14
9.13982e-14
9.14165e-14
9.14916e-14
9.16729e-14
9.20588e-14
9.28555e-14
9.45176e-14
9.81028e-14
1.06206e-13
1.25577e-13
1.75236e-13
3.17514e-13
8.31414e-13
3.9968e-12
3.9968e-12
8.30165e-13
3.11574e-13
1.62282e-13
1.06192e-13
8.22299e-14
7.12565e-14
6.59978e-14
6.33882e-14
6.20548e-14
6.1355e-14
6.09771e-14
6.07653e-14
6.06408e-14
6.05655e-14
6.05254e-14
6.05234e-14
6.05806e-14
6.07413e-14
6.10901e-14
6.17878e-14
6.31495e-14
6.58184e-14
7.11638e-14
8.22407e-14
1.06303e-13
1.62459e-13
3.11761e-13
8.30315e-13
3.9968e-12
3.9968e-12
8.29865e-13
3.09768e-13
1.57555e-13
9.80794e-14
7.11538e-14
5.79806e-14
5.12442e-14
4.77029e-14
4.58066e-14
4.47777e-14
4.42124e-14
4.38964e-14
4.37158e-14
4.36132e-14
4.35663e-14
4.358e-14
4.36859e-14
4.39505e-14
4.44955e-14
4.55405e-14
4.74912e-14
5.1122e-14
5.79723e-14
7.1265e-14
9.82878e-14
1.57811e-13
3.10008e-13
8.30048e-13
3.9968e-12
3.9968e-12
8.29763e-13
3.09125e-13
1.55667e-13
9.4478e-14
6.58024e-14
5.11424e-14
4.32867e-14
3.89708e-14
3.6571e-14
3.52305e-14
3.44804e-14
3.40587e-14
3.38199e-14
3.36884e-14
3.36338e-14
3.36628e-14
3.38186e-14
3.4189e-14
3.49292e-14
3.63063e-14
3.87885e-14
4.32238e-14
5.12176e-14
6.60081e-14
9.47752e-14
1.55993e-13
3.09413e-13
8.29979e-13
3.9968e-12
3.9968e-12
8.29719e-13
3.08862e-13
1.54847e-13
9.27914e-14
6.31182e-14
4.75139e-14
3.88781e-14
3.39792e-14
3.11765e-14
2.9575e-14
2.86647e-14
2.81491e-14
2.78575e-14
2.76986e-14
2.7635e-14
2.76757e-14
2.78744e-14
2.83379e-14
2.92484e-14
3.09072e-14
3.38201e-14
3.88667e-14
4.76626e-14
6.34069e-14
9.31674e-14
1.55237e-13
3.09196e-13
8.29968e-13
3.9968e-12
3.9968e-12
8.29694e-13
3.08739e-13
1.54462e-13
9.19614e-14
6.17299e-14
4.55513e-14
3.64053e-14
3.11013e-14
2.80049e-14
2.62062e-14
2.51721e-14
2.45828e-14
2.42487e-14
2.40664e-14
2.39926e-14
2.4039e-14
2.42686e-14
2.48037e-14
2.5847e-14
2.77225e-14
3.09553e-14
3.64342e-14
4.57615e-14
6.20905e-14
9.24083e-14
1.54912e-13
3.09119e-13
8.29977e-13
3.9968e-12
3.9968e-12
8.29677e-13
3.08671e-13
1.54265e-13
9.15333e-14
6.09936e-14
4.44781e-14
3.50161e-14
2.94496e-14
2.61562e-14
2.42226e-14
2.3103e-14
2.24623e-14
2.20976e-14
2.18966e-14
2.18123e-14
2.18581e-14
2.21053e-14
2.26884e-14
2.38251e-14
2.58535e-14
2.93079e-14
3.50753e-14
4.47398e-14
6.14181e-14
9.20464e-14
1.54774e-13
3.091e-13
8.29995e-13
3.9968e-12
3.9968e-12
8.29662e-13
3.08628e-13
1.54154e-13
9.13016e-14
6.05944e-14
4.38883e-14
3.42406e-14
2.85152e-14
2.51005e-14
2.30833e-14
2.19109e-14
2.1238e-14
2.08531e-14
2.06385e-14
2.05437e-14
2.05844e-14
2.08382e-14
2.14493e-14
2.26458e-14
2.47746e-14
2.83737e-14
3.43247e-14
4.41962e-14
6.10789e-14
9.18794e-14
1.54724e-13
3.09107e-13
8.30018e-13
3.9968e-12
3.9968e-12
8.29648e-13
3.08595e-13
1.54085e-13
9.11684e-14
6.03726e-14
4.35633e-14
3.38128e-14
2.7998e-14
2.45148e-14
2.24509e-14
2.1249e-14
2.05579e-14
2.01606e-14
1.99364e-14
1.98325e-14
1.98663e-14
2.01204e-14
2.07458e-14
2.19782e-14
2.41697e-14
2.78589e-14
3.39226e-14
4.39173e-14
6.09175e-14
9.18126e-14
1.54718e-13
3.09127e-13
8.30046e-13
3.9968e-12
3.9968e-12
8.29634e-13
3.08567e-13
1.54035e-13
9.10856e-14
6.02451e-14
4.33836e-14
3.35806e-14
2.77199e-14
2.42017e-14
2.2114e-14
2.08971e-14
2.01964e-14
1.97921e-14
1.95614e-14
1.94519e-14
1.94787e-14
1.97313e-14
2.03648e-14
2.16192e-14
2.38493e-14
2.75932e-14
3.37235e-14
4.37891e-14
6.08546e-14
9.18001e-14
1.54736e-13
3.09157e-13
8.30077e-13
3.9968e-12
3.9968e-12
8.29619e-13
3.0854e-13
1.53995e-13
9.10294e-14
6.01695e-14
4.32859e-14
3.34605e-14
2.758e-14
2.40465e-14
2.19481e-14
2.07241e-14
2.00184e-14
1.96101e-14
1.93754e-14
1.92626e-14
1.92867e-14
1.95406e-14
2.01818e-14
2.14521e-14
2.37067e-14
2.74824e-14
3.36495e-14
4.37522e-14
6.08504e-14
9.18202e-14
1.54769e-13
3.09193e-13
8.30113e-13
3.9968e-12
3.9968e-12
8.29602e-13
3.08512e-13
1.5396e-13
9.09898e-14
6.01276e-14
4.32424e-14
3.3415e-14
2.75322e-14
2.3996e-14
2.18947e-14
2.06678e-14
1.99597e-14
1.95493e-14
1.93135e-14
1.92009e-14
1.92279e-14
1.94886e-14
2.01406e-14
2.1425e-14
2.36953e-14
2.74871e-14
3.36684e-14
4.3783e-14
6.08897e-14
9.18644e-14
1.54815e-13
3.09236e-13
8.30154e-13
3.9968e-12
3.9968e-12
8.29584e-13
3.08483e-13
1.5393e-13
9.09662e-14
6.01185e-14
4.3251e-14
3.34407e-14
2.75718e-14
2.40448e-14
2.19484e-14
2.07236e-14
2.00166e-14
1.96081e-14
1.93763e-14
1.92693e-14
1.93085e-14
1.95837e-14
2.02508e-14
2.15472e-14
2.38233e-14
2.7613e-14
3.37845e-14
4.38836e-14
6.09735e-14
9.19335e-14
1.54873e-13
3.09286e-13
8.30202e-13
3.9968e-12
3.9968e-12
8.29563e-13
3.08454e-13
1.53907e-13
9.09676e-14
6.01583e-14
4.33369e-14
3.35726e-14
2.77427e-14
2.42445e-14
2.21668e-14
2.09535e-14
2.02549e-14
1.98551e-14
1.96347e-14
1.95428e-14
1.96022e-14
1.98981e-14
2.0581e-14
2.18823e-14
2.41476e-14
2.79088e-14
3.40362e-14
4.40825e-14
6.11199e-14
9.20372e-14
1.54948e-13
3.09346e-13
8.30258e-13
3.9968e-12
3.9968e-12
8.29538e-13
3.08425e-13
1.53901e-13
9.10159e-14
6.02882e-14
4.35628e-14
3.38935e-14
2.81458e-14
2.47108e-14
2.26773e-14
2.14939e-14
2.08171e-14
2.04371e-14
2.02377e-14
2.01705e-14
2.02567e-14
2.05751e-14
2.12681e-14
2.25583e-14
2.47845e-14
2.8476e-14
3.45072e-14
4.44423e-14
6.13708e-14
9.21987e-14
1.55051e-13
3.0942e-13
8.30325e-13
3.9968e-12
3.9968e-12
8.2951e-13
3.08402e-13
1.53932e-13
9.11583e-14
6.05896e-14
4.40459e-14
3.45543e-14
2.89598e-14
2.56441e-14
2.36967e-14
2.25732e-14
2.19397e-14
2.1595e-14
2.14281e-14
2.13934e-14
2.1509e-14
2.18456e-14
2.25347e-14
2.3787e-14
2.59313e-14
2.94922e-14
3.5349e-14
4.50821e-14
6.18084e-14
9.24659e-14
1.55203e-13
3.09515e-13
8.3041e-13
3.9968e-12
3.9968e-12
8.29477e-13
3.08395e-13
1.54042e-13
9.14899e-14
6.12188e-14
4.5002e-14
3.58194e-14
3.04857e-14
2.73712e-14
2.5569e-14
2.45465e-14
2.39844e-14
2.36935e-14
2.35704e-14
2.35734e-14
2.37166e-14
2.40611e-14
2.47248e-14
2.59025e-14
2.79079e-14
3.12559e-14
3.68271e-14
4.62208e-14
6.25933e-14
9.2937e-14
1.55451e-13
3.09649e-13
8.30519e-13
3.9968e-12
3.9968e-12
8.29441e-13
3.08433e-13
1.54331e-13
9.22119e-14
6.24847e-14
4.68311e-14
3.81554e-14
3.32327e-14
3.04261e-14
2.88414e-14
2.79676e-14
2.7507e-14
2.72878e-14
2.72176e-14
2.72604e-14
2.74253e-14
2.77633e-14
2.83761e-14
2.94374e-14
3.12381e-14
3.42725e-14
3.94115e-14
4.82673e-14
6.4044e-14
9.38205e-14
1.55898e-13
3.09856e-13
8.30666e-13
3.9968e-12
3.9968e-12
8.2941e-13
3.08597e-13
1.55039e-13
9.37703e-14
6.50217e-14
5.03025e-14
4.24117e-14
3.80898e-14
3.57128e-14
3.44207e-14
3.37405e-14
3.34069e-14
3.32726e-14
3.32601e-14
3.334e-14
3.3518e-14
3.38345e-14
3.43724e-14
3.52789e-14
3.68107e-14
3.94239e-14
4.39553e-14
5.20048e-14
6.68143e-14
9.55801e-14
1.56797e-13
3.10228e-13
8.30878e-13
3.9968e-12
3.9968e-12
8.29417e-13
3.09123e-13
1.56791e-13
9.7208e-14
7.01877e-14
5.69535e-14
5.02023e-14
4.66895e-14
4.48564e-14
4.39166e-14
4.34592e-14
4.32657e-14
4.32196e-14
4.32625e-14
4.33725e-14
4.35541e-14
4.38372e-14
4.42843e-14
4.50111e-14
4.62277e-14
4.83277e-14
5.20717e-14
5.89873e-14
7.2294e-14
9.92949e-14
1.58796e-13
3.11013e-13
8.31212e-13
3.9968e-12
3.9968e-12
8.29601e-13
3.10787e-13
1.61336e-13
1.05097e-13
8.10281e-14
7.00172e-14
6.47886e-14
6.22608e-14
6.10415e-14
6.04749e-14
6.02411e-14
6.01805e-14
6.02127e-14
6.03002e-14
6.043e-14
6.06063e-14
6.08496e-14
6.1203e-14
6.17478e-14
6.26386e-14
6.41804e-14
6.70013e-14
7.24514e-14
8.35677e-14
1.07602e-13
1.63703e-13
3.13011e-13
8.31825e-13
3.9968e-12
3.9968e-12
8.30606e-13
3.16418e-13
1.73933e-13
1.24162e-13
1.04808e-13
9.68217e-14
9.34036e-14
9.19212e-14
9.12962e-14
9.10643e-14
9.10174e-14
9.10592e-14
9.11461e-14
9.12593e-14
9.13949e-14
9.15581e-14
9.17615e-14
9.20314e-14
9.24177e-14
9.30179e-14
9.40339e-14
9.59099e-14
9.96831e-14
1.07914e-13
1.27314e-13
1.76902e-13
3.19124e-13
8.33359e-13
3.9968e-12
3.9968e-12
8.36085e-13
3.37568e-13
2.11681e-13
1.73445e-13
1.60717e-13
1.56225e-13
1.54595e-13
1.54024e-13
1.53862e-13
1.53865e-13
1.53934e-13
1.5403e-13
1.54136e-13
1.5425e-13
1.54375e-13
1.54518e-13
1.54685e-13
1.54889e-13
1.55158e-13
1.55542e-13
1.5615e-13
1.57229e-13
1.59409e-13
1.64425e-13
1.77508e-13
2.15719e-13
3.41164e-13
8.39468e-13
3.9968e-12
3.9968e-12
8.71622e-13
4.27162e-13
3.36751e-13
3.15481e-13
3.10001e-13
3.08539e-13
3.08195e-13
3.0818e-13
3.08261e-13
3.08366e-13
3.0847e-13
3.08569e-13
3.08663e-13
3.08756e-13
3.08856e-13
3.08975e-13
3.09109e-13
3.09266e-13
3.09459e-13
3.09715e-13
3.10079e-13
3.10657e-13
3.11714e-13
3.14049e-13
3.20483e-13
3.42485e-13
4.32797e-13
8.76249e-13
3.9968e-12
3.9968e-12
1.15275e-12
8.70366e-13
8.34875e-13
8.2974e-13
8.29024e-13
8.29043e-13
8.29174e-13
8.29304e-13
8.29412e-13
8.29501e-13
8.29574e-13
8.29637e-13
8.29694e-13
8.29748e-13
8.29818e-13
8.2992e-13
8.30035e-13
8.30167e-13
8.30329e-13
8.30536e-13
8.30818e-13
8.31225e-13
8.31859e-13
8.32959e-13
8.35303e-13
8.42653e-13
8.80448e-13
1.16247e-12
3.9968e-12
3.9968e-12
3.9968e-12
3.9968e-12
3.9968e-12
3.9968e-12
3.9968e-12
3.9968e-12
3.9968e-12
3.9968e-12
3.9968e-12
3.9968e-12
3.9968e-12
3.9968e-12
3.9968e-12
3.9968e-12
3.9968e-12
3.9968e-12
3.9968e-12
3.9968e-12
3.9968e-12
3.9968e-12
3.9968e-12
3.9968e-12
3.9968e-12
3.9968e-12
3.9968e-12
3.9968e-12
3.9968e-12
3.9968e-12
3.9968e-12
)
;

boundaryField
{
    movingWall
    {
        type            epsilonWallFunction;
        value           nonuniform List<scalar> 
30
(
3.9968e-12
3.9968e-12
3.9968e-12
3.9968e-12
3.9968e-12
3.9968e-12
3.9968e-12
3.9968e-12
3.9968e-12
3.9968e-12
3.9968e-12
3.9968e-12
3.9968e-12
3.9968e-12
3.9968e-12
3.9968e-12
3.9968e-12
3.9968e-12
3.9968e-12
3.9968e-12
3.9968e-12
3.9968e-12
3.9968e-12
3.9968e-12
3.9968e-12
3.9968e-12
3.9968e-12
3.9968e-12
3.9968e-12
3.9968e-12
)
;
    }
    fixedWalls
    {
        type            epsilonWallFunction;
        value           nonuniform List<scalar> 
90
(
3.9968e-12
3.9968e-12
3.9968e-12
3.9968e-12
3.9968e-12
3.9968e-12
3.9968e-12
3.9968e-12
3.9968e-12
3.9968e-12
3.9968e-12
3.9968e-12
3.9968e-12
3.9968e-12
3.9968e-12
3.9968e-12
3.9968e-12
3.9968e-12
3.9968e-12
3.9968e-12
3.9968e-12
3.9968e-12
3.9968e-12
3.9968e-12
3.9968e-12
3.9968e-12
3.9968e-12
3.9968e-12
3.9968e-12
3.9968e-12
3.9968e-12
3.9968e-12
3.9968e-12
3.9968e-12
3.9968e-12
3.9968e-12
3.9968e-12
3.9968e-12
3.9968e-12
3.9968e-12
3.9968e-12
3.9968e-12
3.9968e-12
3.9968e-12
3.9968e-12
3.9968e-12
3.9968e-12
3.9968e-12
3.9968e-12
3.9968e-12
3.9968e-12
3.9968e-12
3.9968e-12
3.9968e-12
3.9968e-12
3.9968e-12
3.9968e-12
3.9968e-12
3.9968e-12
3.9968e-12
3.9968e-12
3.9968e-12
3.9968e-12
3.9968e-12
3.9968e-12
3.9968e-12
3.9968e-12
3.9968e-12
3.9968e-12
3.9968e-12
3.9968e-12
3.9968e-12
3.9968e-12
3.9968e-12
3.9968e-12
3.9968e-12
3.9968e-12
3.9968e-12
3.9968e-12
3.9968e-12
3.9968e-12
3.9968e-12
3.9968e-12
3.9968e-12
3.9968e-12
3.9968e-12
3.9968e-12
3.9968e-12
3.9968e-12
3.9968e-12
)
;
    }
    frontAndBack
    {
        type            empty;
    }
}


// ************************************************************************* //
