/*--------------------------------*- C++ -*----------------------------------*\
  =========                 |
  \\      /  F ield         | OpenFOAM: The Open Source CFD Toolbox
   \\    /   O peration     | Website:  https://openfoam.org
    \\  /    A nd           | Version:  12
     \\/     M anipulation  |
\*---------------------------------------------------------------------------*/
FoamFile
{
    format      ascii;
    class       volScalarField;
    location    "1.5";
    object      epsilon;
}
// * * * * * * * * * * * * * * * * * * * * * * * * * * * * * * * * * * * * * //

dimensions      [0 2 -3 0 0 0 0];

internalField   nonuniform List<scalar> 
5625
(
4.82292e-06
3.25203e-05
7.16756e-05
0.000116816
0.000164752
0.000213049
0.000259729
0.000303202
0.000342277
0.000376172
0.000404515
0.000427332
0.000445014
0.00045827
0.00046806
0.000475526
0.000481911
0.000488482
0.00049646
0.000506958
0.000520934
0.000539161
0.000562222
0.000590513
0.00062427
0.00066361
0.000708577
0.000759188
0.000815475
0.000877527
0.000945498
0.00101962
0.00110019
0.00118755
0.00128205
0.00138403
0.00149377
0.00161149
0.00173735
0.00187137
0.00201349
0.00216349
0.00232101
0.0024855
0.00265616
0.0028319
0.00301124
0.00319224
0.00337243
0.00354867
0.00371712
0.00387312
0.00401111
0.00412433
0.0042029
0.00423962
0.00424322
0.00419305
0.00408438
0.00391649
0.00369095
0.00341267
0.0030904
0.00273645
0.00236564
0.00199378
0.00163577
0.00130398
0.00100701
0.000749276
0.000531317
0.000350835
0.000204382
8.99465e-05
1.32528e-05
9.10481e-06
1.7675e-05
3.50929e-05
5.59615e-05
7.83406e-05
0.000100977
0.000122903
0.000143355
0.000161767
0.000177765
0.00019117
0.00020199
0.000210408
0.000216752
0.000221473
0.000225105
0.000228233
0.000231454
0.000235342
0.000240424
0.000247154
0.000255901
0.000266945
0.00028048
0.000296626
0.000315445
0.000336968
0.000361211
0.000388203
0.000417993
0.000450667
0.000486346
0.000525182
0.000567347
0.000613022
0.000662377
0.000715561
0.000772689
0.000833833
0.000899011
0.000968182
0.00104123
0.00111796
0.00119806
0.00128109
0.00136647
0.00145341
0.00154086
0.00162755
0.00171184
0.00179179
0.00186507
0.00192894
0.00198013
0.00201393
0.00202787
0.00202509
0.0019967
0.00194083
0.00185745
0.00174761
0.00161388
0.00146047
0.00129311
0.00111855
0.000943902
0.000775861
0.000619985
0.000480187
0.000358536
0.000255409
0.000169972
0.000101089
4.92244e-05
2.50156e-05
1.93015e-05
1.72517e-05
2.71448e-05
4.06699e-05
5.56603e-05
7.10173e-05
8.59897e-05
0.000100017
0.00011269
0.000123741
0.000133038
0.000140582
0.000146492
0.000150991
0.000154386
0.000157045
0.00015937
0.000161775
0.000164662
0.000168399
0.00017331
0.000179659
0.000187652
0.000197437
0.000209112
0.000222737
0.00023835
0.000255982
0.00027567
0.000297473
0.00032147
0.000347771
0.000376507
0.000407822
0.000441869
0.000478788
0.000518705
0.000561709
0.000607853
0.000657138
0.000709503
0.000764818
0.000822868
0.000883337
0.000945791
0.00100966
0.00107421
0.00113853
0.00120151
0.00126181
0.0013179
0.00136801
0.00141014
0.00144195
0.00145974
0.00146423
0.00145525
0.00142812
0.00138207
0.00131745
0.00123535
0.00113782
0.00102789
0.000909473
0.00078703
0.000665185
0.00054825
0.000439798
0.000342375
0.000257397
0.000185274
0.000125813
7.9106e-05
4.80614e-05
5.292e-05
3.14936e-05
2.06933e-05
2.58063e-05
3.53021e-05
4.65248e-05
5.83044e-05
6.99301e-05
8.09064e-05
9.08831e-05
9.96332e-05
0.000107043
0.000113103
0.000117903
0.000121616
0.000124481
0.000126788
0.00012886
0.000131028
0.000133618
0.000136933
0.000141241
0.000146769
0.000153698
0.000162165
0.000172269
0.000184084
0.000197663
0.000213059
0.000230332
0.000249558
0.000270835
0.000294285
0.000320046
0.000348267
0.0003791
0.000412681
0.000449122
0.000488493
0.000530815
0.00057604
0.00062405
0.000674636
0.000727492
0.000782198
0.00083822
0.000894893
0.00095142
0.00100686
0.00106013
0.00111001
0.00115516
0.00119417
0.00122554
0.00124678
0.00125576
0.00125475
0.00124125
0.001213
0.00116962
0.00111151
0.00103965
0.000955754
0.000862295
0.00076243
0.00065977
0.000558042
0.000460712
0.000370638
0.000289857
0.000219536
0.000160147
0.000111928
7.59435e-05
5.73492e-05
8.59408e-05
4.5274e-05
2.59879e-05
2.73012e-05
3.39409e-05
4.26834e-05
5.22108e-05
6.17885e-05
7.09345e-05
7.93194e-05
8.67321e-05
9.3064e-05
9.82999e-05
0.000102509
0.000105834
0.000108477
0.000110686
0.000112738
0.000114922
0.000117525
0.000120819
0.000125049
0.000130426
0.000137128
0.000145297
0.000155046
0.000166465
0.000179633
0.00019463
0.000211541
0.000230472
0.000251544
0.000274903
0.0003007
0.000329097
0.000360245
0.000394271
0.00043126
0.000471239
0.000514162
0.000559894
0.000608204
0.000658755
0.000711099
0.000764666
0.000818788
0.000872694
0.000925532
0.000976362
0.00102418
0.00106794
0.00110655
0.00113895
0.00116408
0.00117921
0.00118427
0.00118082
0.00116601
0.00113838
0.00109741
0.00104314
0.000976227
0.000898005
0.000810607
0.000716921
0.000620385
0.00052464
0.000433113
0.000348641
0.000273236
0.000208068
0.000153706
0.000110701
8.09064e-05
7.15007e-05
0.000122659
6.03515e-05
3.24275e-05
3.03997e-05
3.47491e-05
4.16226e-05
4.95272e-05
5.76737e-05
6.55703e-05
7.28906e-05
7.94275e-05
8.50721e-05
8.98029e-05
9.36758e-05
9.68142e-05
9.93978e-05
0.000101649
0.000103819
0.000106174
0.000108981
0.000112498
0.000116962
0.000122586
0.000129552
0.000138016
0.000148111
0.000159951
0.000173643
0.000189296
0.000207027
0.000226971
0.000249278
0.000274115
0.000301636
0.000331999
0.000365348
0.000401778
0.000441318
0.000483913
0.000529406
0.000577532
0.000627906
0.000680034
0.00073331
0.00078702
0.000840392
0.000892613
0.000942868
0.000990323
0.00103417
0.00107362
0.00110794
0.00113639
0.00115831
0.00117149
0.00117604
0.00117333
0.00116042
0.00113578
0.00109847
0.00104802
0.000984486
0.000908716
0.000822555
0.000728839
0.000631201
0.000533669
0.000440148
0.000353926
0.000277352
0.000211804
0.000158001
0.000116744
9.05564e-05
8.84838e-05
0.000161977
7.6532e-05
3.9684e-05
3.45539e-05
3.69409e-05
4.22917e-05
4.89289e-05
5.59929e-05
6.29668e-05
6.95188e-05
7.54399e-05
8.06185e-05
8.50272e-05
8.87128e-05
9.17866e-05
9.44139e-05
9.68025e-05
9.91897e-05
0.00010183
0.000104983
0.000108904
0.000113831
0.000119984
0.000127561
0.000136737
0.000147667
0.00016049
0.000175342
0.000192362
0.000211699
0.000233513
0.000257977
0.000285275
0.000315582
0.000349047
0.000385763
0.000425759
0.000468967
0.000515203
0.000564151
0.000615363
0.000668259
0.000722151
0.000776274
0.000829836
0.000882045
0.000932147
0.000979461
0.00102344
0.00106362
0.00109967
0.00113125
0.00115806
0.00117957
0.0011947
0.00120198
0.0012029
0.00119503
0.00117607
0.00114441
0.00109879
0.00103855
0.000964017
0.000876741
0.000779583
0.000676548
0.000572327
0.000471646
0.00037861
0.000296225
0.000226305
0.00016982
0.0001278
0.000103376
0.00010733
0.000203106
9.3684e-05
4.758e-05
3.94737e-05
4.01066e-05
4.41584e-05
4.97539e-05
5.59542e-05
6.22128e-05
6.81846e-05
7.36545e-05
7.85075e-05
8.2712e-05
8.63086e-05
8.94014e-05
9.21478e-05
9.47481e-05
9.74336e-05
0.000100455
0.000104073
0.000108545
0.000114119
0.000121027
0.000129485
0.000139689
0.000151824
0.000166062
0.000182573
0.000201524
0.000223092
0.000247461
0.000274815
0.000305328
0.000339163
0.000376424
0.000417133
0.000461209
0.000508441
0.000558467
0.000610774
0.000664706
0.000719495
0.000774299
0.000828269
0.000880611
0.000930633
0.000977796
0.00102174
0.00106229
0.00109943
0.00113323
0.00116375
0.00119094
0.00121447
0.00123363
0.00124736
0.00125375
0.00125313
0.00124182
0.00121741
0.00117771
0.00112133
0.001048
0.000958896
0.000856869
0.000746286
0.000632581
0.000521483
0.00041817
0.000326599
0.000249263
0.00018754
0.000142736
0.00011857
0.000127504
0.000245493
0.000111716
5.601e-05
4.49873e-05
4.40039e-05
4.69156e-05
5.16258e-05
5.71137e-05
6.27978e-05
6.83171e-05
7.34495e-05
7.80754e-05
8.21593e-05
8.57389e-05
8.89147e-05
9.18411e-05
9.47161e-05
9.77704e-05
0.000101257
0.000105443
0.000110594
0.000116974
0.000124836
0.000134416
0.000145935
0.000159602
0.000175619
0.000194184
0.000215494
0.000239748
0.00026714
0.000297856
0.000332053
0.00036984
0.000411242
0.000456167
0.000504381
0.00055548
0.000608893
0.000663887
0.000719603
0.000775116
0.000829507
0.000881943
0.000931758
0.000978504
0.00102199
0.00106227
0.00109963
0.00113447
0.00116724
0.00119828
0.00122769
0.00125522
0.00128016
0.00130137
0.00131659
0.00132317
0.00132062
0.00130456
0.00127182
0.00122021
0.00114886
0.00105847
0.0009517
0.000833116
0.000708802
0.000585523
0.000469696
0.000366483
0.000279332
0.000210241
0.00016091
0.000135687
0.000148697
0.000288782
0.000130561
6.49062e-05
5.09852e-05
4.84795e-05
5.03676e-05
5.43074e-05
5.91948e-05
6.44084e-05
6.95698e-05
7.44482e-05
7.89199e-05
8.29471e-05
8.65661e-05
8.98769e-05
9.30348e-05
9.62403e-05
9.97296e-05
0.000103763
0.000108617
0.000114572
0.000121908
0.000130897
0.0001418
0.000154865
0.000170329
0.000188422
0.000209365
0.000233377
0.000260667
0.00029143
0.000325829
0.000363972
0.000405889
0.000451482
0.000500502
0.000552516
0.000606902
0.000662855
0.000719431
0.000775611
0.000830388
0.00088287
0.000932371
0.000978492
0.00102115
0.00106059
0.00109732
0.00113205
0.00116554
0.00119848
0.00123137
0.00126432
0.00129702
0.00132861
0.00135766
0.00138205
0.0013977
0.00140276
0.00139571
0.00137081
0.00132514
0.00125719
0.00116704
0.00105691
0.000931269
0.000796622
0.000660655
0.000531096
0.00041453
0.000315659
0.00023737
0.000181946
0.000154468
0.00017074
0.000332815
0.000150172
7.42236e-05
5.73944e-05
5.34305e-05
5.43817e-05
5.7639e-05
6.20129e-05
6.68368e-05
7.17135e-05
7.64035e-05
8.0779e-05
8.48012e-05
8.85071e-05
9.19996e-05
9.5438e-05
9.90288e-05
0.000103016
0.000107672
0.000113285
0.000120154
0.000128578
0.000138852
0.00015126
0.000166078
0.000183569
0.000203984
0.000227567
0.000254544
0.000285123
0.000319477
0.000357723
0.000399888
0.000445881
0.000495446
0.000548134
0.000603286
0.00066004
0.000717373
0.000774171
0.000829328
0.000881866
0.000931046
0.000976461
0.00101809
0.00105629
0.00109177
0.00112544
0.00115834
0.00119146
0.00122558
0.00126119
0.00129833
0.00133652
0.00137472
0.00141127
0.00144383
0.00146927
0.0014816
0.00148283
0.00146658
0.00142816
0.00136544
0.00127777
0.0011666
0.00103598
0.00089245
0.000744377
0.000600756
0.000469772
0.000357683
0.000268595
0.000205626
0.000174772
0.000193527
0.000377444
0.000170516
8.39309e-05
6.41645e-05
5.87845e-05
5.88629e-05
6.15089e-05
6.54382e-05
6.99374e-05
7.45893e-05
7.91446e-05
8.34722e-05
8.75336e-05
9.13685e-05
9.50845e-05
9.88482e-05
0.000102875
0.000107421
0.000112771
0.000119231
0.000127119
0.000136754
0.000148455
0.000162532
0.000179283
0.000198993
0.000221934
0.000248356
0.000278485
0.000312507
0.000350551
0.000392655
0.000438733
0.000488536
0.000541612
0.000597283
0.000654649
0.000712621
0.000769997
0.000825568
0.000878248
0.000927211
0.000971997
0.00101258
0.0010494
0.00108325
0.00111523
0.00114659
0.00117853
0.0012121
0.00124806
0.00128676
0.00132806
0.00137132
0.00141537
0.0014584
0.00149802
0.0015315
0.00155271
0.00156022
0.00155312
0.00152326
0.00146779
0.00138519
0.00127595
0.00114325
0.000993228
0.000834567
0.000677357
0.000531474
0.000405034
0.000303735
0.000231838
0.00019654
0.000217028
0.000422661
0.00019157
9.40068e-05
7.12599e-05
6.44892e-05
6.37419e-05
6.58352e-05
6.93758e-05
7.36045e-05
7.80816e-05
8.25482e-05
8.68699e-05
9.10095e-05
9.50113e-05
9.89901e-05
0.000103122
0.000107634
0.000112796
0.00011891
0.0001263
0.000135304
0.000146264
0.000159521
0.000175409
0.000194245
0.000216334
0.000241954
0.000271355
0.000304743
0.000342264
0.000383972
0.000429798
0.000479507
0.000532658
0.000588575
0.00064634
0.00070482
0.000762738
0.000818782
0.00087175
0.000920697
0.000965067
0.00100478
0.00104027
0.00107241
0.0011024
0.00113163
0.0011615
0.00119326
0.00122787
0.00126592
0.00130756
0.00135249
0.00139991
0.00144857
0.00149668
0.00154194
0.00158176
0.00161156
0.00162541
0.00162651
0.00160637
0.00156002
0.00148516
0.00138106
0.00124968
0.00109627
0.000929329
0.000759738
0.000599036
0.00045746
0.000342712
0.000260558
0.00021978
0.000241262
0.000468541
0.000213318
0.000104437
7.86549e-05
7.05058e-05
6.89683e-05
7.05552e-05
7.37542e-05
7.77586e-05
8.21044e-05
8.65223e-05
9.08754e-05
9.51287e-05
9.93326e-05
0.000103611
0.000108152
0.000113197
0.000119031
0.000125976
0.000134374
0.000144584
0.000156972
0.000171898
0.000189717
0.000210764
0.00023535
0.000263755
0.00029621
0.000332885
0.000373857
0.000419083
0.000468353
0.000521251
0.000577121
0.000635048
0.000693881
0.000752288
0.000808869
0.000862298
0.000911492
0.000955763
0.00099493
0.00102936
0.00105992
0.0010879
0.00111478
0.0011421
0.00117128
0.00120346
0.00123939
0.00127945
0.00132356
0.00137126
0.00142167
0.00147355
0.00152522
0.0015746
0.00161928
0.00165585
0.00167775
0.00168497
0.00167523
0.00163952
0.00157475
0.0014789
0.00135241
0.00119915
0.00102688
0.000846788
0.000671911
0.000514776
0.000385508
0.000291828
0.000244547
0.000266291
0.000515224
0.000235752
0.000115211
8.63314e-05
7.68054e-05
7.4504e-05
7.56212e-05
7.85186e-05
8.23387e-05
8.65914e-05
9.09967e-05
9.54149e-05
9.98145e-05
0.000104253
0.000108867
0.000113856
0.000119479
0.000126039
0.000133876
0.000143354
0.000154853
0.000168758
0.000185451
0.0002053
0.00022865
0.000255813
0.000287054
0.000322573
0.000362478
0.000406757
0.000455238
0.000507543
0.000563052
0.000620879
0.000679877
0.000738688
0.000795842
0.000849898
0.000899626
0.000944176
0.000983212
0.00101699
0.00104633
0.00107251
0.00109709
0.00112175
0.00114801
0.00117717
0.00121015
0.00124746
0.00128922
0.00133516
0.00138468
0.00143691
0.00149069
0.00154453
0.00159661
0.00164488
0.00168643
0.00171632
0.0017295
0.00172924
0.00170513
0.00165223
0.00156727
0.00144905
0.00129965
0.00112545
0.000937363
0.000749525
0.000576807
0.000432141
0.000325734
0.000270933
0.000292205
0.000562884
0.000258871
0.000126324
9.42765e-05
8.33667e-05
8.03195e-05
8.09962e-05
8.36266e-05
8.72974e-05
9.14913e-05
9.59163e-05
0.000100431
0.000105007
0.000109711
0.000114693
0.000120168
0.000126411
0.000133747
0.000142534
0.000153157
0.000166017
0.000181517
0.000200053
0.000222004
0.000247718
0.000277494
0.000311569
0.00035009
0.000393088
0.000440433
0.000491799
0.000546619
0.000604054
0.000662991
0.000722073
0.000779786
0.000834596
0.000885125
0.000930342
0.000969725
0.00100336
0.00103196
0.00105674
0.00107932
0.00110144
0.00112477
0.00115074
0.00118039
0.00121441
0.00125301
0.00129607
0.00134319
0.0013937
0.00144676
0.00150134
0.00155622
0.00160983
0.00166047
0.00170556
0.00174178
0.00176283
0.00176921
0.00175699
0.00171696
0.00164482
0.00153774
0.00139575
0.00122329
0.00103022
0.000831216
0.000643341
0.000482646
0.000362377
0.000299051
0.00031911
0.000611716
0.000282677
0.000137773
0.000102481
9.01735e-05
8.63923e-05
8.66518e-05
8.9045e-05
9.25975e-05
9.67633e-05
0.000101238
0.000105876
0.000110656
0.000115655
0.000121035
0.00012703
0.000133935
0.000142091
0.00015188
0.000163706
0.000177987
0.000195142
0.000215578
0.000239677
0.000267778
0.000300157
0.000337007
0.000378405
0.000424277
0.000474359
0.000528148
0.000584875
0.000643482
0.000702644
0.000760837
0.000816458
0.000867999
0.000914245
0.000954457
0.000988512
0.00101694
0.00104088
0.0010619
0.00108181
0.0011024
0.00112526
0.00115159
0.00118213
0.0012173
0.00125706
0.00130109
0.00134888
0.00139975
0.00145294
0.00150758
0.00156266
0.00161694
0.00166898
0.00171662
0.0017572
0.00178596
0.00179824
0.00179637
0.00176935
0.00171103
0.00161716
0.0014857
0.00131863
0.00112398
0.000916181
0.000714082
0.00053703
0.000401868
0.00032903
0.000347121
0.000661917
0.000307176
0.000149559
0.00011094
9.72141e-05
9.27053e-05
9.25664e-05
9.47475e-05
9.82096e-05
0.000102375
0.000106925
0.000111713
0.000116723
0.000122042
0.000127849
0.000134395
0.000141996
0.000151014
0.000161849
0.000174925
0.000190675
0.000209529
0.000231899
0.000258162
0.000288636
0.000323562
0.000363072
0.000407154
0.000455612
0.000508025
0.000563704
0.000621672
0.000680665
0.000739181
0.000795584
0.000848262
0.000895826
0.000937312
0.000972348
0.00100124
0.00102496
0.00104501
0.00106319
0.00108147
0.00110153
0.00112462
0.00115178
0.00118349
0.0012199
0.00126072
0.0013055
0.00135366
0.00140455
0.0014575
0.00151179
0.00156661
0.00162097
0.0016737
0.00172296
0.00176641
0.00180108
0.00182028
0.00182537
0.00181074
0.00176624
0.00168667
0.00156811
0.00140979
0.00121716
0.00100345
0.000788612
0.000595246
0.000444311
0.000360998
0.000376353
0.000713673
0.000332378
0.000161685
0.000119649
0.00010448
9.92457e-05
9.87232e-05
0.000100714
0.00010411
0.0001083
0.00011295
0.000117911
0.000123172
0.000128834
0.000135092
0.000142218
0.000150546
0.00016046
0.000172378
0.000186741
0.000203993
0.000224571
0.000248884
0.000277293
0.000310089
0.000347459
0.000389461
0.000435975
0.000486668
0.000540947
0.000597935
0.000656452
0.000715056
0.000772114
0.000825948
0.00087502
0.000918144
0.000954682
0.00098467
0.00100885
0.00102858
0.00104564
0.00106214
0.00107966
0.00109983
0.00112385
0.00115231
0.00118548
0.00122323
0.00126511
0.00131057
0.00135902
0.00140985
0.00146248
0.00151633
0.00157073
0.00162492
0.0016779
0.00172808
0.00177349
0.00181175
0.00183747
0.00184764
0.00184322
0.00181161
0.00174632
0.00164205
0.00149527
0.00130822
0.00109189
0.000866363
0.000657168
0.000489784
0.000395076
0.00040691
0.000767145
0.000358299
0.000174155
0.00012861
0.000111966
0.000106004
0.00010511
0.000106929
0.000110281
0.000114518
0.000119289
0.000124442
0.000129974
0.000135998
0.000142729
0.000150456
0.000159537
0.000170374
0.000183403
0.000199076
0.000217848
0.000240154
0.000266393
0.000296902
0.000331929
0.000371598
0.000415874
0.000464516
0.000517042
0.000572684
0.000630375
0.000688758
0.000746247
0.000801137
0.000851781
0.000896795
0.00093527
0.000966941
0.000992266
0.00101239
0.00102899
0.00104425
0.00105971
0.00107735
0.00109849
0.001124
0.00115408
0.001189
0.00122824
0.00127128
0.00131751
0.00136635
0.00141726
0.00146973
0.00152329
0.00157739
0.0016314
0.00168445
0.00173513
0.00178168
0.00182193
0.00185242
0.00186713
0.00186945
0.00184906
0.00179693
0.00170722
0.00157391
0.00139567
0.00118022
0.000946604
0.000722572
0.000538333
0.000431359
0.000438888
0.000822467
0.000384964
0.000186977
0.000137821
0.000119669
0.000112972
0.000111716
0.00011338
0.000116708
0.000121011
0.000125921
0.000131283
0.0001371
0.000143503
0.000150722
0.000159069
0.000168922
0.000180701
0.000194857
0.000211853
0.000232145
0.000256161
0.000284284
0.000316814
0.000353945
0.000395726
0.000442015
0.000492442
0.000546365
0.000602845
0.00066064
0.000718244
0.000773975
0.000826121
0.000873135
0.00091386
0.000947716
0.000974837
0.000996085
0.00101296
0.00102758
0.00104157
0.00105708
0.00107567
0.00109841
0.00112567
0.00115793
0.00119482
0.00123574
0.00128011
0.00132732
0.0013768
0.00142806
0.00148069
0.00153427
0.00158836
0.0016424
0.00169561
0.00174664
0.00179385
0.00183522
0.00186814
0.00188677
0.00189275
0.00188109
0.00184004
0.00176401
0.00164501
0.00147816
0.00126712
0.00102845
0.000791116
0.000589965
0.000469898
0.000472363
0.000879737
0.000412391
0.00020016
0.000147286
0.000127587
0.000120146
0.000118536
0.000120059
0.000123379
0.000127764
0.000132828
0.000138412
0.000144526
0.000151317
0.000159036
0.000168015
0.000178652
0.000191383
0.000206673
0.000224988
0.000246783
0.000272472
0.000302408
0.00033685
0.000375927
0.000419597
0.000467605
0.000519442
0.000574311
0.000631106
0.000688437
0.000744684
0.000798124
0.0008471
0.000890236
0.000926652
0.000956134
0.000979209
0.000997104
0.00101178
0.00102495
0.00103882
0.0010552
0.00107543
0.00110006
0.00112979
0.00116448
0.00120353
0.00124634
0.00129228
0.00134072
0.00139114
0.0014431
0.00149624
0.00155025
0.00160473
0.00165918
0.00171284
0.00176437
0.00181213
0.00185414
0.00188803
0.00190879
0.00191668
0.0019106
0.00187783
0.00181347
0.00170843
0.00155468
0.00135125
0.00111089
0.000862334
0.000644653
0.00051067
0.000507402
0.000939018
0.000440596
0.000213711
0.000157008
0.000135719
0.000127524
0.000125564
0.000126958
0.000130285
0.000134767
0.000139995
0.000145808
0.000152227
0.000159412
0.000167636
0.000177252
0.000188677
0.000202362
0.000218779
0.000238396
0.000261659
0.00028896
0.000320617
0.000356835
0.000397667
0.000442975
0.000492383
0.000545243
0.000600605
0.000657217
0.000713568
0.00076797
0.000818714
0.000864258
0.00090345
0.00093573
0.000961253
0.000980928
0.000996368
0.00100944
0.00102226
0.00103685
0.00105481
0.00107698
0.00110427
0.00113681
0.00117409
0.00121551
0.00126042
0.00130815
0.00135808
0.00140972
0.00146269
0.00151673
0.00157157
0.0016269
0.00168223
0.00173681
0.00178925
0.00183781
0.00188038
0.00191456
0.00193579
0.00194426
0.00194064
0.00191291
0.00185734
0.00176471
0.00162462
0.00143141
0.00119283
0.000935626
0.000702251
0.000553673
0.000544046
0.00100034
0.000469604
0.000227638
0.000166991
0.000144068
0.000135104
0.000132799
0.000134072
0.000137418
0.000142006
0.000147406
0.000153453
0.000160177
0.000167757
0.000176485
0.000186737
0.000198945
0.000213574
0.000231101
0.000251989
0.000276666
0.0003055
0.000338761
0.000376594
0.000418968
0.000465643
0.000516119
0.000569612
0.000625032
0.000681006
0.000735933
0.000788108
0.000835887
0.000877896
0.00091325
0.000941725
0.000963838
0.000980814
0.000994579
0.001007
0.0010203
0.00103632
0.00105621
0.00108111
0.00111147
0.00114692
0.00118698
0.00123095
0.00127812
0.00132781
0.00137941
0.00143249
0.00148674
0.00154196
0.00159799
0.00165459
0.0017113
0.00176738
0.00182137
0.00187132
0.00191485
0.00194928
0.00196991
0.001978
0.00197414
0.00194817
0.00189788
0.00181499
0.00168788
0.00150666
0.00127314
0.00101028
0.000762485
0.000598926
0.000582315
0.0010637
0.000499441
0.000241953
0.00017724
0.000152634
0.000142886
0.000140238
0.0001414
0.000144773
0.000149474
0.000155049
0.000161328
0.000168353
0.00017632
0.000185546
0.000196424
0.000209403
0.000224958
0.000243563
0.000265675
0.000291698
0.000321964
0.000356694
0.000395961
0.000439647
0.000487406
0.000538616
0.000592366
0.000647443
0.000702379
0.000755528
0.000805207
0.000849889
0.000888411
0.000920179
0.000945308
0.000964651
0.000979799
0.000992548
0.00100516
0.00101967
0.00103752
0.00106008
0.00108819
0.00112169
0.00116024
0.0012032
0.00124982
0.00129934
0.00135106
0.00140442
0.00145904
0.0015147
0.0015713
0.00162879
0.00168702
0.0017456
0.00180381
0.0018601
0.00191229
0.00195762
0.0019929
0.00201261
0.00201979
0.00201373
0.00198648
0.00193768
0.00186102
0.00174497
0.00157637
0.00135077
0.00108548
0.000825024
0.00064638
0.000622213
0.00112906
0.000530136
0.000256668
0.000187761
0.000161422
0.000150873
0.000147882
0.000148938
0.000152344
0.000157161
0.000162907
0.000169412
0.000176727
0.000185071
0.000194779
0.000206267
0.000219996
0.000236446
0.000256088
0.000279363
0.000306648
0.000338231
0.000374276
0.000414782
0.00045954
0.000508097
0.000559717
0.000613373
0.000667753
0.000721325
0.000772433
0.000819465
0.000861049
0.000896263
0.000924816
0.000947148
0.000964418
0.00097835
0.000990989
0.00100452
0.00102066
0.00104101
0.00106681
0.00109818
0.00113498
0.00117671
0.00122262
0.0012719
0.00132374
0.00137747
0.00143256
0.0014887
0.00154578
0.00160381
0.0016629
0.00172301
0.00178388
0.00184481
0.00190424
0.00195971
0.00200803
0.0020453
0.00206458
0.00207081
0.00206149
0.00203051
0.00197951
0.00190497
0.00179691
0.00164035
0.00142481
0.00116039
0.000889468
0.000695934
0.000663726
0.00119638
0.000561719
0.000271795
0.000198561
0.000170436
0.000159067
0.000155732
0.000156685
0.000160128
0.000165058
0.000170968
0.000177685
0.000185275
0.000193975
0.000204145
0.000216217
0.000230666
0.000247972
0.000268598
0.000292963
0.000321411
0.000354182
0.000391378
0.000432919
0.000478506
0.000527582
0.000579308
0.000632556
0.000685943
0.000737901
0.000786807
0.000831153
0.000869756
0.000901951
0.000927746
0.00094788
0.000963764
0.000977226
0.000990451
0.00100534
0.00102373
0.00104723
0.00107631
0.00111109
0.00115126
0.00119616
0.00124497
0.00129681
0.00135085
0.00140643
0.00146309
0.0015206
0.00157896
0.00163836
0.00169906
0.0017612
0.00182466
0.00188883
0.00195218
0.00201204
0.00206478
0.0021056
0.00212579
0.00213149
0.00211887
0.00208251
0.00202605
0.0019493
0.00184528
0.00169888
0.00149456
0.00123413
0.000955343
0.000747442
0.000706818
0.00126557
0.000594222
0.000287348
0.000209648
0.00017968
0.000167471
0.00016379
0.000164641
0.000168119
0.000173156
0.000179216
0.000186127
0.000193968
0.000202999
0.000213602
0.000226227
0.000241356
0.000259469
0.000281015
0.000306386
0.000335888
0.000369708
0.000407882
0.000450252
0.000496429
0.000545762
0.000597319
0.000649893
0.000702053
0.000752233
0.00079887
0.000840597
0.000876437
0.000905986
0.000929537
0.000948093
0.000963254
0.000976948
0.000991194
0.00100805
0.00102939
0.00105608
0.00108858
0.00112682
0.00117033
0.00121831
0.00126986
0.00132405
0.00138006
0.00143723
0.00149518
0.00155379
0.00161321
0.00167379
0.00173598
0.00180016
0.00186638
0.00193419
0.00200214
0.00206743
0.00212602
0.00217238
0.00219548
0.00220159
0.00218657
0.00214418
0.00207971
0.0019966
0.00189201
0.00175269
0.00155963
0.0013059
0.00102211
0.000800712
0.000751438
0.00133655
0.000627681
0.000303342
0.000221031
0.00018916
0.00017609
0.000172058
0.000172806
0.000176314
0.000181445
0.000187637
0.000194715
0.000202777
0.000212107
0.000223107
0.000236246
0.00025201
0.000270873
0.000293265
0.000319549
0.000349986
0.00038471
0.000423687
0.000466683
0.000513225
0.000562576
0.000613727
0.000665414
0.000716185
0.000764501
0.000808897
0.000848162
0.000881536
0.000908874
0.000930722
0.000948315
0.000963364
0.000977737
0.000993641
0.00101315
0.00103751
0.00106755
0.00110353
0.00114519
0.0011919
0.00124277
0.00129682
0.00135308
0.00141071
0.00146913
0.00152802
0.00158737
0.00164751
0.00170899
0.00177247
0.00183857
0.0019076
0.00197927
0.00205232
0.00212395
0.00218977
0.00224366
0.00227233
0.00228024
0.00226455
0.00221656
0.00214251
0.00204936
0.00193933
0.00180299
0.00161994
0.00137495
0.0010892
0.000855512
0.000797512
0.00140919
0.000662131
0.000319792
0.000232718
0.000198883
0.000184927
0.00018054
0.00018118
0.000184709
0.000189917
0.000196214
0.000203427
0.000211673
0.000221262
0.000232619
0.000246224
0.000262569
0.000282118
0.000305277
0.000332374
0.000363624
0.000399103
0.000438711
0.000482141
0.000528841
0.000578001
0.000628552
0.000679196
0.000728485
0.000774936
0.000817197
0.000854233
0.000885504
0.000911098
0.000931782
0.000948942
0.000964364
0.000980092
0.0009983
0.00102058
0.00104813
0.00108158
0.00112099
0.00116593
0.00121564
0.00126913
0.00132535
0.0013833
0.00144217
0.00150142
0.00156082
0.00162053
0.00168102
0.00174305
0.00180755
0.00187537
0.00194709
0.00202269
0.00210113
0.00217974
0.00225396
0.00231719
0.00235456
0.00236612
0.00235211
0.0023
0.00221591
0.00210983
0.00198958
0.00185133
0.00167581
0.00144071
0.00115598
0.000911571
0.000844947
0.00148337
0.00069761
0.000336714
0.000244719
0.000208855
0.000193989
0.000189238
0.000189763
0.000193299
0.00019856
0.000204929
0.000212238
0.000220626
0.000230429
0.000242094
0.000256115
0.000272982
0.000293145
0.000316985
0.000344791
0.000376729
0.000412818
0.000452893
0.000496578
0.000543254
0.000592051
0.000641857
0.000691363
0.000739144
0.000783799
0.000824106
0.000859209
0.000888779
0.000913117
0.00093317
0.000950431
0.000966826
0.000984451
0.00100512
0.00103037
0.00106119
0.00109802
0.00114073
0.00118875
0.00124118
0.00129694
0.00135494
0.00141417
0.00147384
0.00153347
0.00159297
0.00165261
0.00171306
0.0017753
0.00184047
0.00190973
0.00198394
0.00206337
0.00214727
0.00223322
0.00231666
0.00239068
0.00244004
0.00245762
0.00244788
0.00239414
0.00230076
0.00217988
0.00204505
0.00189956
0.00172792
0.00150279
0.00122185
0.000968581
0.000893628
0.00155893
0.000734161
0.000354127
0.000257045
0.000219084
0.000203282
0.000198158
0.000198556
0.00020208
0.000207364
0.000213766
0.000221125
0.000229605
0.00023957
0.000251491
0.000265871
0.000283196
0.000303899
0.000328332
0.000356741
0.000389245
0.000425804
0.000466195
0.000509977
0.000556476
0.000604778
0.000653745
0.000702074
0.000748389
0.000791382
0.000829973
0.000863484
0.000891781
0.000915354
0.000935297
0.000953212
0.000971066
0.000990831
0.00101419
0.00104251
0.00107661
0.00111671
0.00116252
0.00121333
0.00126813
0.00132578
0.00138513
0.00144519
0.00150521
0.0015648
0.00162396
0.00168314
0.00174319
0.00180529
0.00187082
0.0019412
0.00201761
0.00210062
0.00218984
0.0022832
0.00237629
0.00246199
0.00252637
0.00255308
0.00255003
0.00249802
0.00239726
0.00226093
0.00210788
0.00194967
0.00177725
0.00156101
0.0012862
0.0010262
0.000943418
0.00163569
0.000771825
0.000372048
0.000269706
0.000229579
0.000212812
0.000207301
0.000207559
0.000211046
0.000216318
0.000222706
0.000230063
0.00023858
0.000248652
0.000260771
0.000275449
0.000293166
0.000314333
0.000339269
0.000368178
0.00040113
0.000438031
0.000478601
0.000522348
0.000568552
0.000616268
0.000664351
0.000711523
0.000756471
0.000797992
0.000835152
0.000867442
0.000894906
0.00091819
0.000938502
0.00095751
0.000977186
0.000999352
0.00102555
0.00105696
0.00109424
0.00113743
0.00118608
0.00123935
0.00129614
0.00135525
0.00141551
0.00147596
0.0015359
0.00159503
0.00165349
0.00171188
0.00177121
0.00183287
0.00189845
0.00196964
0.00204789
0.00213414
0.00222836
0.00232893
0.00243173
0.00252949
0.00261066
0.00265112
0.00265635
0.00261012
0.002505
0.00235384
0.00217991
0.00200372
0.00182512
0.00161546
0.00134848
0.00108408
0.000994157
0.00171346
0.000810648
0.000390497
0.000282714
0.000240347
0.000222586
0.000216673
0.000216771
0.000220193
0.000225408
0.00023173
0.000239027
0.000247521
0.000257641
0.000269899
0.000284813
0.000302854
0.000324407
0.000349759
0.00037907
0.00041236
0.000449488
0.000490123
0.00053373
0.000579556
0.00062664
0.000673845
0.000719931
0.000763662
0.000803948
0.000839994
0.000871452
0.000898518
0.000921965
0.000943075
0.000963549
0.000985347
0.00101009
0.00103917
0.00107363
0.00111394
0.00115997
0.00121115
0.0012665
0.00132487
0.00138501
0.00144576
0.00150618
0.00156565
0.00162397
0.00168143
0.00173875
0.00179712
0.0018581
0.00192348
0.00199517
0.0020749
0.00216397
0.00226275
0.0023701
0.00248242
0.0025928
0.00269018
0.00274929
0.00276494
0.00272853
0.00262299
0.0024589
0.00226261