/*--------------------------------*- C++ -*----------------------------------*\
  =========                 |
  \\      /  F ield         | OpenFOAM: The Open Source CFD Toolbox
   \\    /   O peration     | Website:  https://openfoam.org
    \\  /    A nd           | Version:  12
     \\/     M anipulation  |
\*---------------------------------------------------------------------------*/
FoamFile
{
    format      ascii;
    class       volScalarField;
    location    "1.5";
    object      k;
}
// * * * * * * * * * * * * * * * * * * * * * * * * * * * * * * * * * * * * * //

dimensions      [0 2 -2 0 0 0 0];

internalField   nonuniform List<scalar> 
5625
(
2.11445e-09
1.42576e-08
3.14251e-08
5.12191e-08
7.22423e-08
9.34302e-08
1.13916e-07
1.33006e-07
1.5018e-07
1.65094e-07
1.77588e-07
1.87673e-07
1.95522e-07
2.01443e-07
2.05856e-07
2.09261e-07
2.12199e-07
2.15223e-07
2.18866e-07
2.23612e-07
2.2988e-07
2.38007e-07
2.48249e-07
2.60779e-07
2.75706e-07
2.93085e-07
3.1294e-07
3.35287e-07
3.60148e-07
3.8757e-07
4.17629e-07
4.50434e-07
4.86122e-07
5.24846e-07
5.66764e-07
6.12025e-07
6.60757e-07
7.13057e-07
7.68983e-07
8.28552e-07
8.91728e-07
9.58416e-07
1.02845e-06
1.10159e-06
1.17748e-06
1.25563e-06
1.33537e-06
1.41586e-06
1.49599e-06
1.57437e-06
1.64928e-06
1.71866e-06
1.78004e-06
1.83041e-06
1.86541e-06
1.88179e-06
1.88343e-06
1.86122e-06
1.81301e-06
1.73848e-06
1.63835e-06
1.51478e-06
1.37168e-06
1.21451e-06
1.04987e-06
8.84762e-07
7.25823e-07
5.78539e-07
4.46731e-07
3.32354e-07
2.35646e-07
1.55583e-07
9.0628e-08
3.98818e-08
5.87611e-09
1.59668e-08
1.26884e-07
2.8178e-07
4.60036e-07
6.49261e-07
8.39926e-07
1.02425e-06
1.19599e-06
1.35048e-06
1.48462e-06
1.59699e-06
1.68767e-06
1.75823e-06
1.81145e-06
1.85111e-06
1.8817e-06
1.90808e-06
1.93526e-06
1.968e-06
2.01068e-06
2.06705e-06
2.14015e-06
2.23227e-06
2.34498e-06
2.47924e-06
2.63555e-06
2.81413e-06
3.01511e-06
3.2387e-06
3.48532e-06
3.75568e-06
4.05074e-06
4.37175e-06
4.7201e-06
5.0972e-06
5.50439e-06
5.94282e-06
6.41337e-06
6.91657e-06
7.45255e-06
8.02098e-06
8.62103e-06
9.25123e-06
9.90936e-06
1.05922e-05
1.12955e-05
1.20132e-05
1.27377e-05
1.3459e-05
1.41648e-05
1.48395e-05
1.54647e-05
1.60183e-05
1.64732e-05
1.67896e-05
1.69332e-05
1.69457e-05
1.67422e-05
1.63046e-05
1.56309e-05
1.47275e-05
1.36141e-05
1.2326e-05
1.09121e-05
9.43177e-06
7.94778e-06
6.51955e-06
5.19623e-06
4.01204e-06
2.98446e-06
2.11557e-06
1.39607e-06
8.11863e-07
3.54645e-07
4.43666e-08
3.38486e-08
2.89183e-07
6.46453e-07
1.05765e-06
1.49408e-06
1.93375e-06
2.35871e-06
2.75459e-06
3.11059e-06
3.41966e-06
3.67847e-06
3.88728e-06
4.04969e-06
4.17217e-06
4.26344e-06
4.33387e-06
4.39473e-06
4.4575e-06
4.53323e-06
4.63198e-06
4.7624e-06
4.9315e-06
5.14454e-06
5.40516e-06
5.71557e-06
6.07695e-06
6.48986e-06
6.95466e-06
7.47191e-06
8.04267e-06
8.66864e-06
9.3522e-06
1.00963e-05
1.09043e-05
1.17795e-05
1.2725e-05
1.37435e-05
1.48371e-05
1.60069e-05
1.72529e-05
1.85744e-05
1.9969e-05
2.1433e-05
2.29609e-05
2.45448e-05
2.61741e-05
2.78345e-05
2.95078e-05
3.11707e-05
3.27939e-05
3.43418e-05
3.57716e-05
3.70328e-05
3.80661e-05
3.87747e-05
3.90855e-05
3.91064e-05
3.86248e-05
3.76043e-05
3.6041e-05
3.39496e-05
3.13753e-05
2.83988e-05
2.51334e-05
2.17159e-05
1.82915e-05
1.49976e-05
1.19476e-05
9.22007e-06
6.85484e-06
4.856e-06
3.20146e-06
1.85822e-06
8.06675e-07
9.38601e-08
5.52295e-08
4.83565e-07
1.08628e-06
1.78092e-06
2.51835e-06
3.26117e-06
3.979e-06
4.64749e-06
5.24843e-06
5.7699e-06
6.20633e-06
6.55825e-06
6.83179e-06
7.03796e-06
7.19157e-06
7.31022e-06
7.41299e-06
7.51934e-06
7.64792e-06
7.81575e-06
8.03745e-06
8.32483e-06
8.68679e-06
9.12948e-06
9.65666e-06
1.02704e-05
1.09717e-05
1.17613e-05
1.26404e-05
1.3611e-05
1.4676e-05
1.58399e-05
1.71078e-05
1.84853e-05
1.99782e-05
2.15918e-05
2.33303e-05
2.51968e-05
2.71925e-05
2.93171e-05
3.15679e-05
3.394e-05
3.64258e-05
3.90145e-05
4.16916e-05
4.44379e-05
4.72286e-05
5.00322e-05
5.28097e-05
5.55125e-05
5.80823e-05
6.04492e-05
6.25315e-05
6.42366e-05
6.5394e-05
6.5889e-05
6.59187e-05
6.51049e-05
6.33877e-05
6.07609e-05
5.72444e-05
5.29102e-05
4.78916e-05
4.23791e-05
3.66048e-05
3.08168e-05
2.52503e-05
2.00992e-05
1.54973e-05
1.15114e-05
8.14693e-06
5.36465e-06
3.10757e-06
1.34277e-06
1.52435e-07
7.93957e-08
7.02085e-07
1.5827e-06
2.59946e-06
3.6794e-06
4.76724e-06
5.81822e-06
6.79659e-06
7.67563e-06
8.43794e-06
9.07543e-06
9.58904e-06
9.98791e-06
1.02883e-05
1.05121e-05
1.06853e-05
1.08358e-05
1.09924e-05
1.11823e-05
1.14305e-05
1.17584e-05
1.21834e-05
1.27183e-05
1.33723e-05
1.41509e-05
1.50573e-05
1.6093e-05
1.72595e-05
1.85586e-05
1.99937e-05
2.15695e-05
2.32927e-05
2.51708e-05
2.72122e-05
2.9425e-05
3.18163e-05
3.43912e-05
3.71528e-05
4.01012e-05
4.32333e-05
4.65429e-05
5.00199e-05
5.36504e-05
5.74158e-05
6.12928e-05
6.52518e-05
6.92566e-05
7.32624e-05
7.7215e-05
8.10484e-05
8.46834e-05
8.80258e-05
9.09647e-05
9.33761e-05
9.50169e-05
9.57208e-05
9.57786e-05
9.46393e-05
9.21978e-05
8.84422e-05
8.3389e-05
7.71312e-05
6.98547e-05
6.18338e-05
5.34091e-05
4.49495e-05
3.68067e-05
2.92719e-05
2.2546e-05
1.67281e-05
1.18247e-05
7.77584e-06
4.49573e-06
1.93595e-06
2.17576e-07
1.05836e-07
9.40297e-07
2.12501e-06
3.49534e-06
4.95174e-06
6.41889e-06
7.83595e-06
9.15446e-06
1.03383e-05
1.13641e-05
1.22211e-05
1.29108e-05
1.34459e-05
1.38485e-05
1.41486e-05
1.43813e-05
1.45848e-05
1.47978e-05
1.50573e-05
1.53969e-05
1.58457e-05
1.64268e-05
1.71578e-05
1.80508e-05
1.91134e-05
2.03501e-05
2.17632e-05
2.33549e-05
2.51281e-05
2.70876e-05
2.92403e-05
3.1595e-05
3.41618e-05
3.69513e-05
3.99731e-05
4.32348e-05
4.6741e-05
5.04922e-05
5.44846e-05
5.87096e-05
6.31537e-05
6.77987e-05
7.26213e-05
7.75934e-05
8.26815e-05
8.78463e-05
9.30416e-05
9.82128e-05
0.000103295
0.000108211
0.000112866
0.000117149
0.000120925
0.000124039
0.000126199
0.000127155
0.000127281
0.000125885
0.000122772
0.000117922
0.000111336
0.000103119
9.3502e-05
8.2843e-05
7.15971e-05
6.0266e-05
4.93344e-05
3.92081e-05
3.01688e-05
2.23568e-05
1.57826e-05
1.03637e-05
5.98133e-06
2.56914e-06
2.87344e-07
1.34212e-07
1.1954e-06
2.70636e-06
4.45682e-06
6.31845e-06
8.19392e-06
1.00048e-05
1.16887e-05
1.31995e-05
1.45072e-05
1.55985e-05
1.64756e-05
1.71551e-05
1.76661e-05
1.80472e-05
1.83439e-05
1.86053e-05
1.88811e-05
1.92189e-05
1.96617e-05
2.02465e-05
2.10029e-05
2.19533e-05
2.31131e-05
2.44921e-05
2.60961e-05
2.79283e-05
2.99919e-05
3.22909e-05
3.48315e-05
3.76226e-05
4.06748e-05
4.4e-05
4.76098e-05
5.15136e-05
5.57172e-05
6.02212e-05
6.50204e-05
7.01031e-05
7.54513e-05
8.10408e-05
8.68421e-05
9.28211e-05
9.89396e-05
0.000105156
0.000111423
0.000117692
0.000123904
0.000129991
0.000135873
0.000141448
0.000146593
0.000151154
0.000154947
0.000157661
0.000158919
0.000159161
0.000157611
0.000153926
0.000148086
0.000140066
0.000129968
0.000118058
0.000104768
9.06637e-05
7.63813e-05
6.25487e-05
4.97008e-05
3.82166e-05
2.82908e-05
1.99458e-05
1.30784e-05
7.53569e-06
3.2304e-06
3.60342e-07
1.6429e-07
1.46548e-06
3.32207e-06
5.4758e-06
7.7676e-06
1.00765e-05
1.2305e-05
1.43758e-05
1.62319e-05
1.78367e-05
1.9174e-05
2.02472e-05
2.10776e-05
2.17016e-05
2.21676e-05
2.25323e-05
2.28567e-05
2.32024e-05
2.3628e-05
2.41867e-05
2.49239e-05
2.58758e-05
2.70699e-05
2.8525e-05
3.0253e-05
3.22611e-05
3.45534e-05
3.71339e-05
4.00075e-05
4.31816e-05
4.66664e-05
5.04734e-05
5.46148e-05
5.91008e-05
6.39379e-05
6.91264e-05
7.46593e-05
8.0521e-05
8.66878e-05
9.31283e-05
9.98051e-05
0.000106676
0.000113697
0.000120822
0.000128006
0.000135203
0.000142365
0.00014944
0.000156366
0.000163065
0.000169436
0.000175347
0.000180626
0.000185061
0.000188343
0.000189938
0.00019033
0.000188727
0.000184589
0.000177904
0.000168616
0.000156811
0.000142774
0.000126993
0.000110126
9.2937e-05
7.61954e-05
6.05763e-05
4.65726e-05
3.44514e-05
2.4261e-05
1.58854e-05
9.13886e-06
3.91129e-06
4.35594e-07
1.95911e-07
1.74919e-06
3.96887e-06
6.54647e-06
9.29055e-06
1.20549e-05
1.47217e-05
1.71979e-05
1.94148e-05
2.13289e-05
2.29215e-05
2.41975e-05
2.51834e-05
2.59239e-05
2.64781e-05
2.69147e-05
2.73075e-05
2.77308e-05
2.82549e-05
2.89435e-05
2.98506e-05
3.10196e-05
3.24826e-05
3.42621e-05
3.6372e-05
3.88204e-05
4.16123e-05
4.4752e-05
4.82449e-05
5.2099e-05
5.63241e-05
6.09312e-05
6.59303e-05
7.13272e-05
7.71215e-05
8.33041e-05
8.98553e-05
9.67451e-05
0.000103934
0.000111375
0.000119017
0.000126807
0.000134693
0.000142629
0.000150574
0.000158489
0.000166341
0.000174088
0.000181681
0.000189048
0.00019609
0.000202664
0.000208583
0.000213603
0.000217421
0.000219351
0.000219905
0.000218326
0.000213849
0.000206486
0.000196143
0.000182882
0.000166986
0.00014897
0.000129558
0.00010962
9.00587e-05
7.16936e-05
5.51481e-05
4.07831e-05
2.86929e-05
1.87621e-05
1.07776e-05
4.60599e-06
5.12472e-07
2.28959e-07
2.04555e-06
4.64438e-06
7.66464e-06
1.08809e-05
1.41203e-05
1.72437e-05
2.0141e-05
2.27317e-05
2.49651e-05
2.68201e-05
2.83037e-05
2.94483e-05
3.03079e-05
3.0953e-05
3.14654e-05
3.19325e-05
3.24419e-05
3.30762e-05
3.391e-05
3.50061e-05
3.64145e-05
3.81727e-05
4.03058e-05
4.28297e-05
4.57533e-05
4.90817e-05
5.28188e-05
5.69698e-05
6.15414e-05
6.65419e-05
7.19789e-05
7.78568e-05
8.41736e-05
9.09176e-05
9.80654e-05
0.000105581
0.000113416
0.000121513
0.00012981
0.000138244
0.000146756
0.000155295
0.000163821
0.000172307
0.000180731
0.000189078
0.000197323
0.000205429
0.00021333
0.000220923
0.000228055
0.000234517
0.000240042
0.000244305
0.000246535
0.000247233
0.000245722
0.000241012
0.000233149
0.000221997
0.000207586
0.00019017
0.000170263
0.00014862
0.000126183
0.000103972
8.29489e-05
6.38825e-05
4.72517e-05
3.32215e-05
2.1696e-05
1.24445e-05
5.31084e-06
5.90696e-07
2.63351e-07
2.35385e-06
5.34689e-06
8.82724e-06
1.25339e-05
1.62662e-05
1.98622e-05
2.31943e-05
2.61696e-05
2.87302e-05
3.08528e-05
3.25471e-05
3.38524e-05
3.48327e-05
3.5571e-05
3.61633e-05
3.6711e-05
3.73158e-05
3.80732e-05
3.90684e-05
4.03733e-05
4.20446e-05
4.41241e-05
4.66398e-05
4.96086e-05
5.30396e-05
5.69372e-05
6.13041e-05
6.61434e-05
7.14592e-05
7.72554e-05
8.35332e-05
9.02879e-05
9.75051e-05
0.000105158
0.000113203
0.000121587
0.000130241
0.00013909
0.000148061
0.000157083
0.0001661
0.000175071
0.000183973
0.000192798
0.000201549
0.00021023
0.000218832
0.000227326
0.000235646
0.000243677
0.000251252
0.000258141
0.000264056
0.00026865
0.000271105
0.000271909
0.000270476
0.000265636
0.000257451
0.000245753
0.000230524
0.000211971
0.000190571
0.000167072
0.000142452
0.00011782
9.42757e-05
7.27422e-05
5.3842e-05
3.78398e-05
2.46832e-05
1.41366e-05
6.0245e-06
6.7001e-07
2.99028e-07
2.67359e-06
6.07518e-06
1.0032e-05
1.42462e-05
1.84876e-05
2.25706e-05
2.63494e-05
2.97182e-05
3.26119e-05
3.50056e-05
3.69123e-05
3.8379e-05
3.94808e-05
4.03144e-05
4.09904e-05
4.16257e-05
4.2336e-05
4.323e-05
4.44039e-05
4.5938e-05
4.78955e-05
5.03221e-05
5.32478e-05
5.669e-05
6.06568e-05
6.51507e-05
7.01719e-05
7.57196e-05
8.17928e-05
8.8388e-05
9.54966e-05
0.000103101
0.000111169
0.000119656
0.000128498
0.000137618
0.000146931
0.000156349
0.00016579
0.000175188
0.000184499
0.0001937
0.000202794
0.000211798
0.000220739
0.000229637
0.000238495
0.000247281
0.00025592
0.000264282
0.000272179
0.000279364
0.000285534
0.000290334
0.000292924
0.000293792
0.000292421
0.000287541
0.000279208
0.000267215
0.000251498
0.000232196
0.00020972
0.000184769
0.000158319
0.000131536
0.00010564
8.1716e-05
6.05549e-05
4.25523e-05
2.77268e-05
1.58551e-05
6.74718e-06
7.50396e-07
3.35949e-07
3.00443e-06
6.82841e-06
1.12775e-05
1.60151e-05
2.07807e-05
2.53637e-05
2.95995e-05
3.3369e-05
3.66002e-05
3.92668e-05
4.13862e-05
4.30139e-05
4.42374e-05
4.51678e-05
4.59317e-05
4.66615e-05
4.74879e-05
4.85327e-05
4.99028e-05
5.16869e-05
5.39535e-05
5.67518e-05
6.01127e-05
6.40529e-05
6.85786e-05
7.36889e-05
7.93794e-05
8.56435e-05
9.2472e-05
9.98511e-05
0.000107758
0.000116159
0.000125002
0.00013422
0.000143726
0.000153426
0.000163218
0.000173008
0.000182718
0.000192296
0.000201716
0.000210985
0.000220134
0.000229208
0.000238253
0.000247299
0.000256347
0.000265355
0.00027423
0.000282822
0.000290924
0.000298276
0.00030457
0.000309453
0.000312089
0.000312981
0.000311648
0.000306795
0.000298466
0.000286402
0.000270491
0.000250798
0.000227643
0.000201643
0.000173728
0.000145085
0.00011703
9.08097e-05
6.74036e-05
4.73718e-05
3.08357e-05
1.76044e-05
7.4803e-06
8.31992e-07
3.74089e-07
3.34613e-06
7.60604e-06
1.25626e-05
1.7839e-05
2.31428e-05
2.82379e-05
3.29395e-05
3.71155e-05
4.06868e-05
4.36268e-05
4.59578e-05
4.7745e-05
4.90895e-05
5.0118e-05
5.09736e-05
5.18052e-05
5.27587e-05
5.39687e-05
5.55526e-05
5.76067e-05
6.02043e-05
6.33966e-05
6.72146e-05
7.1673e-05
7.67742e-05
8.25124e-05
8.88766e-05
9.58515e-05
0.000103417
0.000111546
0.000120198
0.000129319
0.000138835
0.000148656
0.000158676
0.000168783
0.000178869
0.000188844
0.000198642
0.000208232
0.000217622
0.000226849
0.000235973
0.000245063
0.000254175
0.00026334
0.000272545
0.00028173
0.000290777
0.000299514
0.000307721
0.000315129
0.000321436
0.000326301
0.00032891
0.000329792
0.000328473
0.000323682
0.000315467
0.000303502
0.000287631
0.000267844
0.000244358
0.000217681
0.000188658
0.000158454
0.000128446
0.000100037
7.44084e-05
5.2317e-05
3.40227e-05
1.9391e-05
8.2262e-06
9.1504e-07
4.13434e-07
3.6986e-06
8.40776e-06
1.38866e-05
1.97167e-05
2.55722e-05
3.11901e-05
3.63654e-05
4.09523e-05
4.48652e-05
4.80774e-05
5.06175e-05
5.25617e-05
5.40257e-05
5.5153e-05
5.6104e-05
5.70448e-05
5.81363e-05
5.95259e-05
6.13408e-05
6.36839e-05
6.66324e-05
7.02383e-05
7.4531e-05
7.95217e-05
8.52076e-05
9.15758e-05
9.86061e-05
0.000106272
0.00011454
0.000123365
0.000132689
0.000142433
0.000152502
0.000162783
0.000173155
0.000183498
0.000193705
0.000203697
0.000213435
0.000222919
0.00023219
0.000241321
0.000250397
0.000259499
0.000268687
0.000277976
0.000287336
0.000296676
0.000305855
0.00031468
0.000322921
0.000330309
0.000336552
0.000341331
0.000343861
0.000344709
0.000343375
0.000338652
0.0003306
0.00031884
0.000303161
0.000283491
0.000259946
0.000232909
0.000203105
0.000171632
0.000139892
0.000109414
8.15912e-05
5.74091e-05
3.73029e-05
2.12228e-05
8.98776e-06
9.99851e-07
4.53981e-07
4.06179e-06
9.23349e-06
1.52495e-05
2.16477e-05
2.80678e-05
3.42187e-05
3.98743e-05
4.48752e-05
4.91295e-05
5.26116e-05
5.5357e-05
5.74546e-05
5.90357e-05
6.02619e-05
6.13119e-05
6.23689e-05
6.36091e-05
6.51922e-05
6.72543e-05
6.99039e-05
7.32206e-05
7.72558e-05
8.20358e-05
8.75666e-05
9.38379e-05
0.000100828
0.000108504
0.000116828
0.000125748
0.0001352
0.000145104
0.000155359
0.000165847
0.000176441
0.000187006
0.000197424
0.000207599
0.000217479
0.000227053
0.000236363
0.000245484
0.00025452
0.000263573
0.00027273
0.000282036
0.000291489
0.000301026
0.00031053
0.000319831
0.000328722
0.000336965
0.000344298
0.000350442
0.000355102
0.000357525
0.000358323
0.00035694
0.000352264
0.000344356
0.000332828
0.000317403
0.000297962
0.000274536
0.000247379
0.000217075
0.000184611
0.000151361
0.000118948
8.89713e-05
6.26692e-05
4.06921e-05
2.31084e-05
9.76817e-06
1.08677e-06
4.95733e-07
4.43577e-06
1.00833e-05
1.66511e-05
2.36318e-05
3.06289e-05
3.73223e-05
4.3464e-05
4.88809e-05
5.34752e-05
5.72232e-05
6.01689e-05
6.24149e-05
6.411e-05
6.54346e-05
6.65866e-05
6.77665e-05
6.91657e-05
7.09552e-05
7.32793e-05
7.62507e-05
7.99498e-05
8.44256e-05
8.96997e-05
9.57708e-05
0.000102619
0.000110212
0.000118504
0.000127438
0.000136945
0.00014694
0.000157321
0.000167965
0.000178736
0.000189495
0.000200107
0.000210462
0.000220489
0.000230167
0.000239526
0.000248646
0.000257639
0.000266629
0.000275728
0.000285015
0.000294515
0.000304196
0.000313962
0.000323665
0.000333115
0.000342091
0.00035035
0.000357638
0.000363689
0.000368226
0.000370536
0.000371273
0.000369801
0.000365125
0.000357293
0.000345938
0.000330738
0.000311533
0.000288297
0.00026117
0.000230581
0.000197372
0.000162835
0.000128637
9.65606e-05
6.81148e-05
4.42054e-05
2.50566e-05
1.05706e-05
1.17613e-06
5.38703e-07
4.82065e-06
1.09574e-05
1.80919e-05
2.56693e-05
3.32556e-05
4.05002e-05
4.71331e-05
5.29667e-05
5.78982e-05
6.19067e-05
6.50463e-05
6.74347e-05
6.92395e-05
7.06614e-05
7.19176e-05
7.32267e-05
7.47941e-05
7.6802e-05
7.94011e-05
8.27068e-05
8.67986e-05
9.17214e-05
9.74901e-05
0.000104094
0.000111503
0.000119669
0.000128532
0.000138018
0.000148036
0.000158481
0.000169227
0.000180135
0.000191057
0.000201847
0.00021238
0.000222567
0.000232368
0.000241802
0.000250943
0.000259908
0.000268838
0.000277872
0.000287119
0.00029664
0.000306433
0.000316429
0.000326502
0.000336473
0.000346134
0.000355252
0.000363581
0.000370874
0.000376878
0.00038131
0.000383519
0.000384193
0.000382592
0.000377844
0.000369983
0.000358669
0.000343583
0.000324523
0.000301439
0.000274387
0.00024365
0.000209896
0.000174285
0.000138464
0.000104361
7.37586e-05
4.78558e-05
2.70751e-05
1.1398e-05
1.26827e-06
5.82909e-07
5.21657e-06
1.18562e-05
1.95722e-05
2.77607e-05
3.59481e-05
4.37525e-05
5.08804e-05
5.71304e-05
6.23949e-05
6.66572e-05
6.99827e-05
7.25063e-05
7.44156e-05
7.59325e-05
7.72947e-05
7.87382e-05
8.04824e-05
8.27189e-05
8.56037e-05
8.92531e-05
9.37436e-05
9.91144e-05
0.000105371
0.000112493
0.000120436
0.000129137
0.000138519
0.000148487
0.000158932
0.000169725
0.000180725
0.000191777
0.000202726
0.000213434
0.000223792
0.000233741
0.000243281
0.000252475
0.00026144
0.000270328
0.0002793
0.000288498
0.000298019
0.000307898
0.0003181
0.000328521
0.000338999
0.000349334
0.000359296
0.000368643
0.00037713
0.000384512
0.000390542
0.000394909
0.000397047
0.000397662
0.000395896
0.000390998
0.000382982
0.000371535
0.000356376
0.000337283
0.000314211
0.000287173
0.000256329
0.000222169
0.000185672
0.000148399
0.000112363
7.96063e-05
5.16531e-05
2.91708e-05
1.2253e-05
1.36347e-06
6.28377e-07
5.62374e-06
1.27802e-05
2.10928e-05
2.99067e-05
3.87071e-05
4.70791e-05
5.47053e-05
6.13702e-05
6.69622e-05
7.14698e-05
7.49718e-05
7.76219e-05
7.96293e-05
8.12384e-05
8.27074e-05
8.42897e-05
8.62178e-05
8.86913e-05
9.18698e-05
9.58686e-05
0.000100759
0.000106573
0.000113306
0.000120923
0.000129365
0.000138554
0.000148393
0.000158768
0.000169549
0.00018059
0.000191734
0.000202819
0.000213692
0.000224229
0.000234348
0.000244028
0.000253315
0.000262316
0.000271188
0.000280109
0.000289254
0.000298757
0.000308695
0.000319071
0.000329812
0.00034078
0.000351784
0.000362596
0.000372971
0.00038266
0.000391412
0.000398984
0.000405127
0.000409498
0.0004116
0.000412165
0.000410218
0.000405094
0.000396796
0.00038503
0.000369561
0.000350194
0.0003269
0.000299709
0.000268696
0.00023419
0.000196958
0.000158401
0.000120545
8.5656e-05
5.56038e-05
3.13492e-05
1.31376e-05
1.46197e-06
6.75154e-07
6.04238e-06
1.37298e-05
2.26546e-05
3.21085e-05
4.15336e-05
5.04807e-05
5.86076e-05
6.56845e-05
7.15967e-05
7.63397e-05
8.00073e-05
8.27738e-05
8.48719e-05
8.65692e-05
8.81449e-05
8.98692e-05
9.19867e-05
9.47036e-05
9.81809e-05
0.000102531
0.000107819
0.000114066
0.000121255
0.000129337
0.000138237
0.00014786
0.000158088
0.00016879
0.000179817
0.000191009
0.000202197
0.000213219
0.000223935
0.000234241
0.000244093
0.000253511
0.00026259
0.00027148
0.000280372
0.000289464
0.00029893
0.000308892
0.000319398
0.000330416
0.000341835
0.000353483
0.00036514
0.000376555
0.000387468
0.000397618
0.000406751
0.000414617
0.00042097
0.000425428
0.000427542
0.000428075
0.000425951
0.000420549
0.000411858
0.000399599
0.000383573
0.000363644
0.000339829
0.00031222
0.000280871
0.000245986
0.000208111
0.000168425
0.000128876
9.18982e-05
5.97099e-05
3.36143e-05
1.40533e-05
1.56392e-06
7.23269e-07
6.47279e-06
1.47058e-05
2.42585e-05
3.43671e-05
4.44286e-05
5.39579e-05
6.25868e-05
7.00717e-05
7.62955e-05
8.12621e-05
8.50827e-05
8.79541e-05
9.01342e-05
9.19147e-05
9.35959e-05
9.54644e-05
9.77751e-05
0.000100739
0.000104517
0.000109217
0.000114894
0.000121557
0.000129177
0.000137689
0.000147
0.000156997
0.000167544
0.000178493
0.000189678
0.000200929
0.000212075
0.00022296
0.000233462
0.00024351
0.000253099
0.000262299
0.000271248
0.000280138
0.000289186
0.0002986
0.000308547
0.000319125
0.000330352
0.000342157
0.000354394
0.000366855
0.000379293
0.000391436
0.000403008
0.000413736
0.000423359
0.000431622
0.000438277
0.000442917
0.000445099
0.000445629
0.000443366
0.000437668
0.000428511
0.000415616
0.000398809
0.000378019
0.00035334
0.000324973
0.00029302
0.000257619
0.000219117
0.000178424
0.000137318
9.83163e-05
6.39698e-05
3.59683e-05
1.50011e-05
1.66944e-06
7.72756e-07
6.91534e-06
1.57089e-05
2.59058e-05
3.6684e-05
4.73936e-05
5.75115e-05
6.6643e-05
7.45302e-05
8.1055e-05
8.62318e-05
9.01911e-05
9.31546e-05
9.54067e-05
9.72644e-05
9.90489e-05
0.000101062
0.000103568
0.000106781
0.000110859
0.000115902
0.000121955
0.000129014
0.000137035
0.000145935
0.000155605
0.000165914
0.000176709
0.000187826
0.00019909
0.000210322
0.000221356
0.00023205
0.00024231
0.000252101
0.000261464
0.000270517
0.000279441
0.000288462
0.000297816
0.00030771
0.000318297
0.000329649
0.000341745
0.000354477
0.000367663
0.000381063
0.0003944
0.000407384
0.000419721
0.000431127
0.000441333
0.000450082
0.000457123
0.000462044
0.000464361
0.000464925
0.000462593
0.000456629
0.000446987
0.000433369
0.000415605
0.000393678
0.000367784
0.000338265
0.00030535
0.000269193
0.000229989
0.000188362
0.00014583
0.000104888
6.83779e-05
3.84121e-05
1.59813e-05
1.77859e-06
8.23654e-07
7.37043e-06
1.674e-05
2.75976e-05
3.90607e-05
5.04298e-05
6.11423e-05
7.07757e-05
7.90582e-05
8.58717e-05
9.12433e-05
9.53253e-05
9.83665e-05
0.00010068
0.000102607
0.000104492
0.000106649
0.00010935
0.000112811
0.000117184
0.00012256
0.000128973
0.000136403
0.000144788
0.000154032
0.000164008
0.000174566
0.000185541
0.000196754
0.000208024
0.000219173
0.000230045
0.000240521
0.000250536
0.000260101
0.000269302
0.000278303
0.000287326
0.000296621
0.000306434
0.000316967
0.000328349
0.00034062
0.000353721
0.000367508
0.00038176
0.000396206
0.000410543
0.000424458
0.000437641
0.0004498
0.00046066
0.000469962
0.000477456
0.000482756
0.000485282
0.000485926
0.00048363
0.000477476
0.000467392
0.000453037
0.000434215
0.000410932
0.000383493
0.00035241
0.000318107
0.000280854
0.000240774
0.000198218
0.00015437
0.000111585
7.29255e-05
4.09448e-05
1.69938e-05
1.89134e-06
8.76012e-07
7.83845e-06
1.77999e-05
2.93353e-05
4.14989e-05
5.35389e-05
6.48512e-05
7.49847e-05
8.36536e-05
9.07416e-05
9.62907e-05
0.000100477
0.000103581
0.000105942
0.000107932
0.000109912
0.000112211
0.000115106
0.000118811
0.000123472
0.000129168
0.000135918
0.00014369
0.000152403
0.000161944
0.00017217
0.000182918
0.000194007
0.000205253
0.000216471
0.00022749
0.000238171
0.000248421
0.000258216
0.000267608
0.000276733
0.000285797
0.000295053
0.00030477
0.000315195
0.000326516
0.000338836
0.000352156
0.000366383
0.000381331
0.000396744
0.00041232
0.000427727
0.000442633
0.000456714
0.000469669
0.000481223
0.00049112
0.000499114
0.00050488
0.000507697
0.000508476
0.000506341
0.000500124
0.000489708
0.000474682
0.00045479
0.00043002
0.000400764
0.000367717
0.000331564
0.000292789
0.000251554
0.00020799
0.000162902
0.000118378
7.76006e-05
4.35641e-05
1.80381e-05
2.00765e-06
9.2988e-07
8.31987e-06
1.88895e-05
3.11203e-05
4.40001e-05
5.67223e-05
6.86392e-05
7.92694e-05
8.83142e-05
9.56603e-05
0.000101367
0.000105639
0.000108787
0.000111184
0.000113227
0.000115297
0.000117734
0.000120819
0.000124762
0.0001297
0.0001357
0.000142765
0.000150846
0.000159847
0.000169638
0.000180062
0.000190941
0.000202089
0.000213314
0.000224436
0.000235296
0.000245777
0.000255819
0.000265438
0.000274733
0.000283884
0.000293133
0.00030276
0.000313044
0.000324226
0.000336472
0.000349853
0.000364337
0.000379786
0.000395977
0.000412618
0.000429375
0.000445891
0.000461813
0.000476807
0.000490569
0.000502826
0.000513334
0.000521859
0.000528141
0.000531346
0.000532319
0.000530485
0.000524368
0.000513789
0.000498243
0.000477367
0.000451085
0.000419831
0.000384473
0.000346
0.000305217
0.00026245
0.000217705
0.000171399
0.000125236
8.23887e-05
4.62667e-05
1.91131e-05
2.12742e-06
9.85313e-07
8.81515e-06
2.001e-05
3.29542e-05
4.65662e-05
5.99817e-05
7.25068e-05
8.36292e-05
9.30371e-05
0.000100623
0.000106466
0.000110802
0.000113976
0.000116394
0.00011848
0.000120633
0.000123204
0.000126474
0.000130647
0.000135849
0.000142133
0.000149487
0.000157844
0.000167092
0.000177087
0.000187659
0.00019862
0.000209778
0.000220941
0.000231939
0.000242628
0.00025292
0.000262791
0.000272299
0.000281586
0.000290875
0.000300438
0.000310573
0.000321561
0.000333629
0.000346918
0.000361466
0.000377199
0.00039394
0.000411427
0.00042933
0.000447285
0.000464912
0.00048184
0.000497728
0.000512273
0.000525214
0.000536325
0.000545395
0.000552202
0.000555901
0.000557133
0.000555732
0.000549908
0.000539386
0.00052354
0.000501867
0.000474168
0.000440849
0.00040292
0.00036169
0.000318376
0.000273615
0.000227417
0.000179848
0.000132129
8.72732e-05
4.90481e-05
2.02177e-05
2.2505e-06
1.04237e-06
9.32479e-06
2.11624e-05
3.48386e-05
4.91991e-05
6.33187e-05
7.64547e-05
8.80629e-05
9.78191e-05
0.000105623
0.00011158
0.000115957
0.000119137
0.000121561
0.000123678
0.000125908
0.000128606
0.000132054
0.000136447
0.000141899
0.000148446
0.000156061
0.00016466
0.000174117
0.000184273
0.000194948
0.000205948
0.000217078
0.000228153
0.000239013
0.000249539
0.000259671
0.000269424
0.000278899
0.000288279
0.000297822
0.000307826
0.000318597
0.000330412
0.000343478
0.000357907
0.0003737
0.000390743
0.000408816
0.000427617
0.000446784
0.00046592
0.000484624
0.000502514
0.000519244
0.000534519
0.000548096
0.000559775
0.000569377
0.000576712
0.000581002
0.000582562
0.000581702
0.000576375
0.000566158
0.000550294
0.0005281
0.000499195
0.000463876
0.000423231
0.000378878
0.000332513
0.00028523
0.000237209
0.000188252
0.00013903
9.22359e-05
5.19028e-05
2.13504e-05
2.37674e-06
1.1011e-06
9.84933e-06
2.23478e-05
3.67751e-05
5.19006e-05
6.67347e-05
8.04834e-05
9.25691e-05
0.000102657
0.000110656
0.000116699
0.000121093
0.000124259
0.000126673
0.000128811
0.000131108
0.000133927
0.000137545
0.000142147
0.000147831
0.00015462
0.000162468
0.000171276
0.000180904
0.000191183
0.000201923
0.000212928
0.000224005
0.000234978
0.000245703
0.000256088
0.000266105
0.000275808
0.000285338
0.000294916
0.00030483
0.000315396
0.000326919
0.000339666
0.000353821
0.000369463
0.000386553
0.000404935
0.000424348
0.00044445
0.000464846
0.000485112
0.000504829
0.000523606
0.000541101
0.00055703
0.000571175
0.000583367
0.000593463
0.000601313
0.000606278
0.000608255
0.00060799
0.000603362
0.000593713
0.000578147
0.000555776
0.000525985
0.000488868
0.000445501
0.000397762
0.000347862
0.000297492
0.00024719
0.000196631
0.000145919
9.72577e-05
5.48244e-05
2.25092e-05
2.50592e-06
1.16159e-06
1.03893e-05
2.35675e-05
3.87655e-05
5.46728e-05
7.02313e-05
8.45931e-05
9.7146e-05
0.000107545
0.000115714
0.000121817
0.000126201
0.00012933
0.000131718
0.000133866
0.000136223
0.000139155
0.000142933
0.000147731
0.000153632
0.00016064
0.000168693
0.000177679
0.000187446
0.000197813
0.000208589
0.000219575
0.000230585
0.000241456
0.000252064
0.000262344
0.000272304
0.000282036
0.000291715
0.000301597
0.000311993
0.000323229
0.000335605
0.00034937
0.000364681
0.000381582
0.000399992
0.000419711
0.00044044
0.000461799
0.00048336
0.000504677
0.000525316
0.000544883
0.000563044
0.000579536
0.000594167
0.000606804
0.000617342
0.000625665
0.000631353
0.000633908
0.0006342
0.000630462
0.00062163
0.000606689
0.000584529
0.000554258
0.000515676
0.000469733
0.000418478
0.000364636
0.000310608
0.000257492
0.000205027
0.000152781
0.000102319
5.78052e-05
2.36921e-05
2.63783e-06
1.22389e-06
1.09454e-05
2.48226e-05
4.08117e-05
5.75175e-05
7.381e-05
8.87836e-05
0.000101791
0.00011248
0.00012079
0.000126923
0.000131269
0.00013434
0.000136685
0.000138831
0.000141239
0.000144277
0.000148206
0.000153187
0.000159287
0.000166492
0.000174726
0.000183862
0.000193738
0.000204169
0.000214958
0.000225913
0.000236855
0.000247636
0.000258157
0.000268383
0.000278353
0.000288196
0.000298121
0.000308409
0.000319391
0.000331393
0.000344703
0.000359549
0.000376059
0.000394237
0.00041396
0.000434988
0.000456979
0.000479521
0.000502156
0.00052442
0.000545871
0.000566116
0.000584835
0.00060179
0.00061682
0.000629828
0.000640752
0.000649506
0.000655897
0.000659183
0.000660006
0.000657291
0.000649498
0.000635496
0.000613947
0.000583659
0.000544056
0.000495831
0.000441085
0.000383002
0.000324774
0.000268266
0.000213501
0.000159611
0.000107402
6.08368e-05
2.48967e-05
2.77217e-06
1.28808e-06
1.15181e-05
2.61146e-05
4.29155e-05
6.04369e-05
7.7472e-05
9.30549e-05
0.000106503
0.000117456
0.000125877
0.000132007
0.000136288
0.000139278
0.000141564
0.000143697
0.000146148
0.000149283
0.000153354
0.000158506
0.000164788
0.000172171
0.000180562
0.000189825
0.000199788
0.000210262
0.000221054
0.000231974
0.000242858
0.000253575
0.000264052
0.000274281
0.000284336
0.000294377
0.000304641
0.000315431
0.00032709
0.000339937
0.000354243
0.000370211
0.000387936
0.000407381
0.000428384
0.000450661
0.000473836
0.000497462
0.00052106
0.000544151
0.000566291
0.000587095
0.000606261
0.000623578
0.00063892
0.00065223
0.000663487
0.000672656
0.000679638
0.000683757
0.000685155
0.000683518
0.000676939
0.000664153
0.000643602
0.000613779
0.000573681
0.000523608
0.00046556
0.000403077
0.000340173
0.000279667
0.000222131
0.000166415
0.000112487
6.39093e-05
2.61201e-05
2.90863e-06
1.35424e-06
1.21082e-05
2.74448e-05
4.50789e-05
6.3433e-05
8.12186e-05
9.74062e-05
0.000111277
0.000122467
0.000130965
0.00013706
0.000141247
0.000144133
0.000146344
0.000148453
0.00015094
0.000154165
0.000158369
0.00016368
0.000170129
0.000177671
0.000186202
0.000195572
0.000205606
0.000216114
0.000226905
0.0002378
0.000248646
0.000259336
0.000269819
0.000280118
0.000290336
0.000300661
0.000311354
0.000322732
0.000335147
0.0003489
0.00036424
0.000381346
0.000400277
0.000420956
0.000443177
0.000466622
0.000490877
0.00051547
0.000539904
0.000563693
0.000586394
0.000607637
0.000627143
0.000644729
0.000660304
0.000673851
0.000685388
0.000694928
0.000702424
0.000707406
0.000709457
0.000708872
0.000703632
0.000692283
0.000673074
0.000644187
0.000604166
0.000552792
0.000491794
0.00042491
0.000356954
0.000291856