/*--------------------------------*- C++ -*----------------------------------*\
  =========                 |
  \\      /  F ield         | OpenFOAM: The Open Source CFD Toolbox
   \\    /   O peration     | Website:  https://openfoam.org
    \\  /    A nd           | Version:  12
     \\/     M anipulation  |
\*---------------------------------------------------------------------------*/
FoamFile
{
    format      ascii;
    class       volScalarField;
    location    "1.5";
    object      nut;
}
// * * * * * * * * * * * * * * * * * * * * * * * * * * * * * * * * * * * * * //

dimensions      [0 2 -1 0 0 0 0];

internalField   nonuniform List<scalar> 
5625
(
8.34312e-14
5.62574e-13
1.24001e-12
2.02117e-12
2.85099e-12
3.68754e-12
4.49671e-12
5.25116e-12
5.93043e-12
6.52107e-12
7.01674e-12
7.41794e-12
7.73143e-12
7.9694e-12
8.14836e-12
8.2879e-12
8.40934e-12
8.53437e-12
8.68387e-12
8.87689e-12
9.1298e-12
9.45591e-12
9.86524e-12
1.03648e-11
1.09588e-11
1.16497e-11
1.24388e-11
1.33268e-11
1.43151e-11
1.54057e-11
1.66021e-11
1.79088e-11
1.93314e-11
2.08763e-11
2.25497e-11
2.43577e-11
2.63053e-11
2.83963e-11
3.0633e-11
3.30158e-11
3.55433e-11
3.82117e-11
4.10143e-11
4.39412e-11
4.69781e-11
5.01054e-11
5.32969e-11
5.65182e-11
5.97251e-11
6.28619e-11
6.58601e-11
6.86372e-11
7.10944e-11
7.31115e-11
7.45143e-11
7.51721e-11
7.52397e-11
7.43547e-11
7.24296e-11
6.94523e-11
6.5451e-11
6.0513e-11
5.47942e-11
4.85132e-11
4.19337e-11
3.53361e-11
2.89856e-11
2.31013e-11
1.78361e-11
1.32679e-11
9.40612e-12
6.2096e-12
3.6168e-12
1.5915e-12
2.34484e-13
2.52006e-12
8.19775e-11
2.03631e-10
3.40359e-10
4.84278e-10
6.28784e-10
7.68233e-10
8.98019e-10
1.01467e-09
1.11591e-09
1.20068e-09
1.26908e-09
1.32231e-09
1.36249e-09
1.39248e-09
1.41565e-09
1.43568e-09
1.45631e-09
1.48113e-09
1.51339e-09
1.55589e-09
1.61087e-09
1.68002e-09
1.76449e-09
1.86497e-09
1.98181e-09
2.11515e-09
2.26509e-09
2.43178e-09
2.61553e-09
2.81684e-09
3.03645e-09
3.27525e-09
3.53424e-09
3.81443e-09
4.11676e-09
4.44203e-09
4.79083e-09
5.16351e-09
5.56016e-09
5.98055e-09
6.42413e-09
6.88996e-09
7.37661e-09
7.88201e-09
8.40331e-09
8.93661e-09
9.47674e-09
1.0017e-08
1.05487e-08
1.1061e-08
1.15407e-08
1.19717e-08
1.2334e-08
1.25973e-08
1.27257e-08
1.2762e-08
1.26344e-08
1.23276e-08
1.18384e-08
1.117e-08
1.0336e-08
9.36248e-09
8.28754e-09
7.1577e-09
6.02292e-09
4.93053e-09
3.91956e-09
3.01691e-09
2.23584e-09
1.57711e-09
1.03201e-09
5.8682e-10
2.29959e-10
7.08182e-12
5.34234e-12
4.3627e-10
1.38558e-09
2.47546e-09
3.60949e-09
4.7389e-09
5.82297e-09
6.8278e-09
7.72758e-09
8.50544e-09
9.15377e-09
9.67395e-09
1.00756e-08
1.03756e-08
1.05963e-08
1.07639e-08
1.09069e-08
1.10538e-08
1.12322e-08
1.14666e-08
1.1778e-08
1.21829e-08
1.26935e-08
1.33177e-08
1.40599e-08
1.49218e-08
1.59037e-08
1.70054e-08
1.8227e-08
1.95702e-08
2.1038e-08
2.26348e-08
2.43667e-08
2.62402e-08
2.82618e-08
3.04378e-08
3.27733e-08
3.5272e-08
3.79364e-08
4.07673e-08
4.3764e-08
4.69242e-08
5.02435e-08
5.37149e-08
5.73281e-08
6.10676e-08
6.49114e-08
6.88292e-08
7.27795e-08
7.67068e-08
8.0539e-08
8.41841e-08
8.75291e-08
9.04422e-08
9.26967e-08
9.38999e-08
9.45804e-08
9.40177e-08
9.20844e-08
8.87366e-08
8.39697e-08
7.78656e-08
7.06147e-08
6.25111e-08
5.3927e-08
4.52689e-08
3.69241e-08
2.92113e-08
2.23465e-08
1.64298e-08
1.14548e-08
7.33185e-09
3.92849e-09
1.21855e-09
1.49825e-11
8.7169e-12
1.01701e-09
4.11529e-09
8.08593e-09
1.22684e-08
1.64168e-08
2.03763e-08
2.40268e-08
2.72783e-08
3.00729e-08
3.23859e-08
3.4225e-08
3.56275e-08
3.6656e-08
3.73929e-08
3.79336e-08
3.83806e-08
3.88362e-08
3.93971e-08
4.01491e-08
4.11639e-08
4.24969e-08
4.41868e-08
4.6257e-08
4.87179e-08
5.15705e-08
5.48107e-08
5.84327e-08
6.24327e-08
6.68111e-08
7.15739e-08
7.67326e-08
8.23032e-08
8.83044e-08
9.47551e-08
1.01673e-07
1.09074e-07
1.1697e-07
1.25372e-07
1.34286e-07
1.43719e-07
1.53672e-07
1.64147e-07
1.75137e-07
1.8663e-07
1.986e-07
2.10999e-07
2.23756e-07
2.36762e-07
2.49861e-07
2.62837e-07
2.75395e-07
2.87153e-07
2.97864e-07
3.06486e-07
3.11394e-07
3.15066e-07
3.1449e-07
3.09179e-07
2.98936e-07
2.83675e-07
2.63618e-07
2.3939e-07
2.12005e-07
1.82779e-07
1.53162e-07
1.24551e-07
9.80959e-08
7.45717e-08
5.43247e-08
3.73002e-08
2.31413e-08
1.14444e-08
2.82955e-09
2.43338e-11
1.2531e-11
1.70707e-09
8.25772e-09
1.79179e-08
2.85455e-08
3.91757e-08
4.93078e-08
5.86094e-08
6.68484e-08
7.38815e-08
7.96518e-08
8.41859e-08
8.75849e-08
9.0013e-08
9.16825e-08
9.2837e-08
9.3734e-08
9.46284e-08
9.57574e-08
9.73279e-08
9.9509e-08
1.02427e-07
1.06164e-07
1.10764e-07
1.16239e-07
1.22578e-07
1.29757e-07
1.37749e-07
1.46534e-07
1.56103e-07
1.6646e-07
1.77624e-07
1.89628e-07
2.0251e-07
2.16311e-07
2.31072e-07
2.4683e-07
2.63624e-07
2.81486e-07
3.00451e-07
3.20554e-07
3.41826e-07
3.64299e-07
3.88001e-07
4.12943e-07
4.39102e-07
4.66416e-07
4.9476e-07
5.23927e-07
5.53588e-07
5.83266e-07
6.12289e-07
6.39741e-07
6.65459e-07
6.86107e-07
6.98347e-07
7.08072e-07
7.08104e-07
6.97131e-07
6.74869e-07
6.41076e-07
5.96244e-07
5.41781e-07
4.79981e-07
4.13821e-07
3.46602e-07
2.8151e-07
2.21191e-07
1.67434e-07
1.2104e-07
8.1871e-08
4.91569e-08
2.24833e-08
4.71762e-09
3.47349e-11
1.67042e-11
2.45392e-09
1.3369e-08
3.1643e-08
5.30187e-08
7.48719e-08
9.58183e-08
1.15027e-07
1.31969e-07
1.46333e-07
1.58008e-07
1.67055e-07
1.73697e-07
1.78282e-07
1.81255e-07
1.8312e-07
1.84402e-07
1.85617e-07
1.87234e-07
1.89656e-07
1.93205e-07
1.9811e-07
2.04513e-07
2.12474e-07
2.2199e-07
2.33017e-07
2.45487e-07
2.59332e-07
2.74495e-07
2.90948e-07
3.0869e-07
3.27752e-07
3.48209e-07
3.70139e-07
3.93615e-07
4.1872e-07
4.4554e-07
4.7416e-07
5.04663e-07
5.37136e-07
5.7167e-07
6.08351e-07
6.47266e-07
6.88504e-07
7.32112e-07
7.78084e-07
8.26315e-07
8.766e-07
9.28563e-07
9.81595e-07
1.03479e-06
1.08691e-06
1.13618e-06
1.182e-06
1.2188e-06
1.24019e-06
1.25648e-06
1.25574e-06
1.23495e-06
1.19415e-06
1.1332e-06
1.05315e-06
9.56576e-07
8.47467e-07
7.30913e-07
6.12513e-07
4.97672e-07
3.90914e-07
2.95343e-07
2.12387e-07
1.41887e-07
8.28007e-08
3.55565e-08
6.71357e-09
4.58768e-11
2.11826e-11
3.2408e-09
1.90772e-08
4.83934e-08
8.49588e-08
1.23498e-07
1.60889e-07
1.95284e-07
2.25557e-07
2.51079e-07
2.71627e-07
2.87319e-07
2.98567e-07
3.06016e-07
3.10474e-07
3.12852e-07
3.14086e-07
3.1508e-07
3.1665e-07
3.19481e-07
3.24103e-07
3.30885e-07
3.40034e-07
3.5162e-07
3.65606e-07
3.81895e-07
4.00357e-07
4.20853e-07
4.43285e-07
4.67603e-07
4.93808e-07
5.21949e-07
5.52123e-07
5.84456e-07
6.19107e-07
6.56231e-07
6.95984e-07
7.38523e-07
7.84011e-07
8.32616e-07
8.84513e-07
9.39885e-07
9.98898e-07
1.06167e-06
1.12828e-06
1.1987e-06
1.27277e-06
1.35006e-06
1.42982e-06
1.51093e-06
1.59176e-06
1.67009e-06
1.74323e-06
1.80862e-06
1.8612e-06
1.88958e-06
1.90781e-06
1.90101e-06
1.86332e-06
1.79622e-06
1.70014e-06
1.577e-06
1.43075e-06
1.26718e-06
1.09348e-06
9.17429e-07
7.46556e-07
5.87189e-07
4.43736e-07
3.18301e-07
2.10841e-07
1.20453e-07
4.94388e-08
8.75054e-09
5.75374e-11
2.59299e-11
4.06234e-09
2.51624e-08
6.72855e-08
1.22971e-07
1.83667e-07
2.4354e-07
2.9897e-07
3.47774e-07
3.88752e-07
4.21459e-07
4.4607e-07
4.63265e-07
4.74112e-07
4.7995e-07
4.82263e-07
4.82572e-07
4.82319e-07
4.82791e-07
4.85052e-07
4.89908e-07
4.97907e-07
5.09327e-07
5.2424e-07
5.42552e-07
5.64066e-07
5.88557e-07
6.15822e-07
6.45713e-07
6.78162e-07
7.13198e-07
7.50931e-07
7.91506e-07
8.35126e-07
8.82033e-07
9.32465e-07
9.86665e-07
1.04487e-06
1.10733e-06
1.17429e-06
1.24601e-06
1.32272e-06
1.40465e-06
1.49194e-06
1.58462e-06
1.68254e-06
1.78529e-06
1.89204e-06
2.0015e-06
2.11176e-06
2.2202e-06
2.32353e-06
2.41778e-06
2.49853e-06
2.55947e-06
2.58972e-06
2.60172e-06
2.58139e-06
2.51893e-06
2.41867e-06
2.28194e-06
2.11171e-06
1.91324e-06
1.6939e-06
1.46258e-06
1.22886e-06
1.00198e-06
7.89759e-07
5.97706e-07
4.28546e-07
2.82466e-07
1.59113e-07
6.33946e-08
1.07984e-08
6.95612e-11
3.09206e-11
4.91643e-09
3.15127e-08
8.76528e-08
1.6558e-07
2.53338e-07
3.41521e-07
4.23884e-07
4.96568e-07
5.57431e-07
6.05638e-07
6.41395e-07
6.6572e-07
6.80252e-07
6.87037e-07
6.88334e-07
6.86437e-07
6.835e-07
6.81419e-07
6.81735e-07
6.85582e-07
6.93703e-07
7.06473e-07
7.23956e-07
7.46e-07
7.72309e-07
8.0255e-07
8.36432e-07
8.73759e-07
9.14453e-07
9.5857e-07
1.00627e-06
1.05779e-06
1.11341e-06
1.17346e-06
1.23827e-06
1.30816e-06
1.38344e-06
1.46442e-06
1.55141e-06
1.64473e-06
1.74465e-06
1.85137e-06
1.96497e-06
2.08535e-06
2.21206e-06
2.34424e-06
2.48046e-06
2.61858e-06
2.75567e-06
2.88798e-06
3.01098e-06
3.11947e-06
3.20772e-06
3.26922e-06
3.28906e-06
3.28925e-06
3.24846e-06
3.15494e-06
3.01718e-06
2.83762e-06
2.62012e-06
2.37095e-06
2.09864e-06
1.81329e-06
1.5258e-06
1.24667e-06
9.84888e-07
7.46877e-07
5.35898e-07
3.52431e-07
1.96889e-07
7.70464e-08
1.28406e-08
8.18486e-11
3.61365e-11
5.80197e-09
3.80762e-08
1.09061e-07
2.11554e-07
3.30426e-07
4.52082e-07
5.6684e-07
6.68475e-07
7.5345e-07
8.20306e-07
8.69213e-07
9.01602e-07
9.19825e-07
9.26836e-07
9.25877e-07
9.20207e-07
9.12872e-07
9.06517e-07
9.03271e-07
9.04683e-07
9.11722e-07
9.2485e-07
9.44114e-07
9.69268e-07
9.99902e-07
1.03556e-06
1.07588e-06
1.12059e-06
1.16962e-06
1.22305e-06
1.2811e-06
1.34409e-06
1.41239e-06
1.48639e-06
1.5665e-06
1.65308e-06
1.74651e-06
1.84714e-06
1.95532e-06
2.07136e-06
2.19552e-06
2.32792e-06
2.46846e-06
2.61673e-06
2.7718e-06
2.93217e-06
3.09551e-06
3.25866e-06
3.41755e-06
3.56729e-06
3.70224e-06
3.81633e-06
3.9032e-06
3.95655e-06
3.95799e-06
3.93586e-06
3.87388e-06
3.74563e-06
3.56888e-06
3.34716e-06
3.08488e-06
2.78896e-06
2.46858e-06
2.13463e-06
1.79884e-06
1.47265e-06
1.16598e-06
8.86034e-07
6.36589e-07
4.1846e-07
2.32841e-07
9.02313e-08
1.48674e-08
9.43557e-11
4.15646e-11
6.71829e-09
4.48306e-08
1.31251e-07
2.59995e-07
4.13143e-07
5.72552e-07
7.24419e-07
8.5948e-07
9.72312e-07
1.06055e-06
1.12426e-06
1.16531e-06
1.18694e-06
1.1932e-06
1.18855e-06
1.17742e-06
1.16393e-06
1.15162e-06
1.14329e-06
1.14094e-06
1.14581e-06
1.15843e-06
1.17881e-06
1.20658e-06
1.24121e-06
1.28211e-06
1.3288e-06
1.38097e-06
1.43853e-06
1.5016e-06
1.57044e-06
1.64544e-06
1.72703e-06
1.81567e-06
1.91179e-06
2.0158e-06
2.1281e-06
2.24906e-06
2.37901e-06
2.51825e-06
2.66692e-06
2.82498e-06
2.99201e-06
3.16711e-06
3.34869e-06
3.53434e-06
3.72074e-06
3.90359e-06
4.07774e-06
4.23732e-06
4.37599e-06
4.48726e-06
4.56476e-06
4.60262e-06
4.58146e-06
4.52886e-06
4.44394e-06
4.28278e-06
4.06749e-06
3.80594e-06
3.50267e-06
3.16479e-06
2.80179e-06
2.42493e-06
2.04641e-06
1.67838e-06
1.33151e-06
1.01374e-06
7.29434e-07
4.79781e-07
2.66666e-07
1.02911e-07
1.68788e-08
1.07041e-10
4.71955e-11
7.66498e-09
5.17686e-08
1.54084e-07
3.10311e-07
5.00109e-07
7.00643e-07
8.93457e-07
1.06564e-06
1.20941e-06
1.32122e-06
1.40091e-06
1.45088e-06
1.47538e-06
1.47977e-06
1.46993e-06
1.4517e-06
1.43042e-06
1.41066e-06
1.39597e-06
1.38882e-06
1.39071e-06
1.40224e-06
1.42334e-06
1.45351e-06
1.49203e-06
1.53818e-06
1.59136e-06
1.6512e-06
1.7176e-06
1.79068e-06
1.87076e-06
1.95825e-06
2.05364e-06
2.15741e-06
2.27001e-06
2.39186e-06
2.52337e-06
2.66488e-06
2.8167e-06
2.97903e-06
3.15186e-06
3.33482e-06
3.52705e-06
3.72699e-06
3.93219e-06
4.13923e-06
4.34371e-06
4.5403e-06
4.72295e-06
4.88517e-06
5.02035e-06
5.12204e-06
5.1843e-06
5.20187e-06
5.15505e-06
5.0723e-06
4.95641e-06
4.76931e-06
4.51743e-06
4.21881e-06
3.87836e-06
3.50303e-06
3.10233e-06
2.68758e-06
2.27121e-06
1.86583e-06
1.48278e-06
1.13077e-06
8.14798e-07
5.36528e-07
2.9844e-07
1.15115e-07
1.88787e-08
1.19903e-10
5.30229e-11
8.64184e-09
5.88894e-08
1.77493e-07
3.6214e-07
5.90341e-07
8.34568e-07
1.07129e-06
1.28345e-06
1.4605e-06
1.59744e-06
1.69382e-06
1.75261e-06
1.77922e-06
1.78054e-06
1.76408e-06
1.73726e-06
1.70683e-06
1.67845e-06
1.65646e-06
1.64386e-06
1.64234e-06
1.65253e-06
1.67426e-06
1.70685e-06
1.74939e-06
1.80098e-06
1.86091e-06
1.92873e-06
2.00431e-06
2.08777e-06
2.17946e-06
2.27982e-06
2.38934e-06
2.5085e-06
2.63777e-06
2.77756e-06
2.92825e-06
3.09017e-06
3.26355e-06
3.44845e-06
3.6446e-06
3.85123e-06
4.06685e-06
4.2891e-06
4.51457e-06
4.7388e-06
4.95638e-06
5.16113e-06
5.34646e-06
5.50561e-06
5.63208e-06
5.71979e-06
5.76341e-06
5.7584e-06
5.685e-06
5.57363e-06
5.42407e-06
5.21168e-06
4.92918e-06
4.59566e-06
4.22102e-06
3.81169e-06
3.37705e-06
2.92827e-06
2.4778e-06
2.03855e-06
1.62244e-06
1.23895e-06
8.93831e-07
5.89321e-07
3.28432e-07
1.2691e-07
2.08734e-08
1.32964e-10
5.90427e-11
9.64885e-09
6.61963e-08
2.01453e-07
4.15272e-07
6.83196e-07
9.73014e-07
1.25582e-06
1.51003e-06
1.72196e-06
1.88497e-06
1.99824e-06
2.06541e-06
2.09321e-06
2.09024e-06
2.06585e-06
2.02921e-06
1.98858e-06
1.9508e-06
1.92102e-06
1.90269e-06
1.89769e-06
1.90664e-06
1.92918e-06
1.96444e-06
2.01128e-06
2.06862e-06
2.13562e-06
2.21174e-06
2.29682e-06
2.39097e-06
2.49453e-06
2.60794e-06
2.73171e-06
2.8663e-06
3.01217e-06
3.16972e-06
3.33932e-06
3.52124e-06
3.71563e-06
3.92234e-06
4.14076e-06
4.36959e-06
4.6066e-06
4.84854e-06
5.09102e-06
5.32861e-06
5.55506e-06
5.76367e-06
5.94755e-06
6.10005e-06
6.21494e-06
6.28669e-06
6.31056e-06
6.28269e-06
6.18339e-06
6.04506e-06
5.86437e-06
5.62018e-06
5.31569e-06
4.94871e-06
4.54149e-06
4.1001e-06
3.63377e-06
3.15339e-06
2.67129e-06
2.20054e-06
1.75352e-06
1.34047e-06
9.67982e-07
6.3899e-07
3.56986e-07
1.38382e-07
2.2871e-08
1.4626e-10
6.52529e-11
1.06862e-08
7.36944e-08
2.25967e-07
4.69604e-07
7.7828e-07
1.11508e-06
1.44549e-06
1.74311e-06
1.99084e-06
2.18026e-06
2.3102e-06
2.38502e-06
2.41294e-06
2.40449e-06
2.37104e-06
2.32364e-06
2.27214e-06
2.22456e-06
2.18686e-06
2.1629e-06
2.15469e-06
2.16272e-06
2.18648e-06
2.2248e-06
2.27633e-06
2.33979e-06
2.41418e-06
2.49889e-06
2.5937e-06
2.69871e-06
2.81424e-06
2.94073e-06
3.07866e-06
3.2285e-06
3.39069e-06
3.56564e-06
3.75371e-06
3.95512e-06
4.16989e-06
4.39762e-06
4.63727e-06
4.88689e-06
5.14348e-06
5.40282e-06
5.65964e-06
5.90772e-06
6.1402e-06
6.35008e-06
6.5305e-06
6.67499e-06
6.77773e-06
6.83364e-06
6.83847e-06
6.78886e-06
6.66512e-06
6.50148e-06
6.29236e-06
6.01381e-06
5.68759e-06
5.29092e-06
4.85101e-06
4.37775e-06
3.88029e-06
3.36923e-06
2.85667e-06
2.35567e-06
1.87897e-06
1.43748e-06
1.03872e-06
6.86402e-07
3.84471e-07
1.49618e-07
2.48804e-08
1.59843e-10
7.16529e-11
1.17542e-08
8.139e-08
2.5105e-07
5.25105e-07
8.75374e-07
1.26016e-06
1.63919e-06
1.98096e-06
2.26483e-06
2.4805e-06
2.62646e-06
2.70795e-06
2.73487e-06
2.71983e-06
2.67637e-06
2.61755e-06
2.55484e-06
2.49744e-06
2.45205e-06
2.42287e-06
2.41193e-06
2.4196e-06
2.44508e-06
2.48695e-06
2.54358e-06
2.6135e-06
2.69556e-06
2.78906e-06
2.89373e-06
3.00963e-06
3.13707e-06
3.27647e-06
3.4283e-06
3.59306e-06
3.77118e-06
3.96311e-06
4.16919e-06
4.38962e-06
4.62424e-06
4.87235e-06
5.1324e-06
5.40176e-06
5.67656e-06
5.95174e-06
6.22124e-06
6.47831e-06
6.71565e-06
6.9262e-06
7.1032e-06
7.24043e-06
7.33236e-06
7.3742e-06
7.36196e-06
7.29254e-06
7.14619e-06
6.95919e-06
6.72306e-06
6.41187e-06
6.05407e-06
5.63514e-06
5.16053e-06
4.65377e-06
4.12404e-06
3.58168e-06
3.03847e-06
2.50742e-06
2.00142e-06
1.53195e-06
1.10739e-06
7.32355e-07
4.11246e-07
1.60708e-07
2.69109e-08
1.73766e-10
7.82434e-11
1.28534e-08
8.92904e-08
2.76727e-07
5.81785e-07
9.7438e-07
1.40789e-06
1.83613e-06
2.22234e-06
2.54218e-06
2.78348e-06
2.9445e-06
3.03148e-06
3.0562e-06
3.03355e-06
2.97936e-06
2.90875e-06
2.8348e-06
2.76788e-06
2.7153e-06
2.68152e-06
2.66853e-06
2.67648e-06
2.70427e-06
2.75018e-06
2.81231e-06
2.88898e-06
2.9789e-06
3.08128e-06
3.19579e-06
3.32247e-06
3.46161e-06
3.61362e-06
3.779e-06
3.95826e-06
4.15191e-06
4.36042e-06
4.58417e-06
4.82332e-06
5.07751e-06
5.34569e-06
5.62575e-06
5.91431e-06
6.20675e-06
6.49715e-06
6.77889e-06
7.04503e-06
7.28784e-06
7.50033e-06
7.67583e-06
7.80826e-06
7.89218e-06
7.92285e-06
7.89626e-06
7.8092e-06
7.64205e-06
7.43323e-06
7.16976e-06
6.82815e-06
6.43306e-06
5.9895e-06
5.48042e-06
4.9367e-06
4.37186e-06
3.79608e-06
3.22077e-06
2.65883e-06
2.12314e-06
1.62552e-06
1.17515e-06
7.77548e-07
4.37633e-07
1.71732e-07
2.89708e-08
1.88084e-10
8.50265e-11
1.39843e-08
9.74033e-08
3.03026e-07
6.39686e-07
1.07527e-06
1.55808e-06
2.03582e-06
2.46635e-06
2.82158e-06
3.08754e-06
3.26236e-06
3.35352e-06
3.37485e-06
3.34367e-06
3.27821e-06
3.19568e-06
3.11076e-06
3.03484e-06
2.97579e-06
2.9382e-06
2.92394e-06
2.93287e-06
2.96356e-06
3.01397e-06
3.08192e-06
3.16555e-06
3.26341e-06
3.37464e-06
3.49886e-06
3.63608e-06
3.78659e-06
3.95084e-06
4.12936e-06
4.32273e-06
4.53156e-06
4.75642e-06
4.99774e-06
5.2556e-06
5.52946e-06
5.81784e-06
6.11807e-06
6.42569e-06
6.73552e-06
7.04198e-06
7.33744e-06
7.61433e-06
7.86484e-06
8.08214e-06
8.25952e-06
8.39082e-06
8.47046e-06
8.49352e-06
8.45576e-06
8.35294e-06
8.16662e-06
7.93714e-06
7.6461e-06
7.27407e-06
6.84026e-06
6.36051e-06
5.82041e-06
5.23451e-06
4.63012e-06
4.01736e-06
3.40722e-06
2.81253e-06
2.24602e-06
1.71957e-06
1.24295e-06
8.22568e-07
4.639e-07
1.82758e-07
3.10675e-08
2.02847e-10
9.20049e-11
1.51476e-08
1.05737e-07
3.2998e-07
6.98862e-07
1.17808e-06
1.71064e-06
2.23794e-06
2.71236e-06
3.10209e-06
3.39142e-06
3.57859e-06
3.6725e-06
3.68926e-06
3.64874e-06
3.57168e-06
3.47734e-06
3.38191e-06
3.29772e-06
3.23305e-06
3.19253e-06
3.17782e-06
3.18843e-06
3.22258e-06
3.27787e-06
3.3519e-06
3.44258e-06
3.54836e-06
3.66829e-06
3.80197e-06
3.94941e-06
4.11091e-06
4.28699e-06
4.47827e-06
4.68546e-06
4.90931e-06
5.15053e-06
5.40962e-06
5.6866e-06
5.98066e-06
6.2899e-06
6.61001e-06
6.93807e-06
7.26785e-06
7.59186e-06
7.90312e-06
8.19359e-06
8.45537e-06
8.68154e-06
8.86514e-06
8.99972e-06
9.0793e-06
9.09857e-06
9.05285e-06
8.93583e-06
8.73163e-06
8.48211e-06
8.16284e-06
7.75819e-06
7.28621e-06
6.76119e-06
6.18645e-06
5.55463e-06
4.90478e-06
4.25017e-06
3.60122e-06
2.97091e-06
2.37168e-06
1.81521e-06
1.31155e-06
8.67882e-07
4.90266e-07
1.93847e-07
3.32069e-08
2.18102e-10
9.91831e-11
1.6344e-08
1.14299e-07
3.57622e-07
7.59381e-07
1.28287e-06
1.86554e-06
2.44231e-06
2.95995e-06
3.383e-06
3.6942e-06
3.89209e-06
3.98728e-06
3.99832e-06
3.94779e-06
3.85895e-06
3.75308e-06
3.64779e-06
3.55619e-06
3.48686e-06
3.44434e-06
3.42998e-06
3.44292e-06
3.481e-06
3.5415e-06
3.62174e-06
3.71947e-06
3.83303e-06
3.96143e-06
4.10425e-06
4.26153e-06
4.43363e-06
4.62118e-06
4.82495e-06
5.04584e-06
5.2848e-06
5.54272e-06
5.82016e-06
6.11706e-06
6.43236e-06
6.76228e-06
7.1058e-06
7.45627e-06
7.80738e-06
8.15176e-06
8.48283e-06
8.7904e-06
9.06798e-06
9.30782e-06
9.50253e-06
9.64506e-06
9.72887e-06
9.74798e-06
9.69713e-06
9.56766e-06
9.34618e-06
9.07667e-06
8.7285e-06
8.28942e-06
7.77759e-06
7.20265e-06
6.58324e-06
5.90401e-06
5.20142e-06
4.49894e-06
3.80604e-06
3.13617e-06
2.50155e-06
1.91336e-06
1.38156e-06
9.13854e-07
5.16892e-07
2.05049e-07
3.53932e-08
2.33883e-10
1.06568e-10
1.75739e-08
1.231e-07
3.85988e-07
8.21318e-07
1.38971e-06
2.02282e-06
2.6488e-06
3.20881e-06
3.6638e-06
3.99518e-06
4.20207e-06
4.29702e-06
4.30125e-06
4.24017e-06
4.13953e-06
4.02257e-06
3.90819e-06
3.81014e-06
3.73713e-06
3.69351e-06
3.68028e-06
3.69615e-06
3.73855e-06
3.80446e-06
3.89096e-06
3.99564e-06
4.11678e-06
4.25335e-06
4.40494e-06
4.57168e-06
4.75404e-06
4.95281e-06
5.16897e-06
5.40368e-06
5.65813e-06
5.93343e-06
6.23021e-06
6.54829e-06
6.88489e-06
7.24008e-06
7.60808e-06
7.98321e-06
8.35874e-06
8.72873e-06
9.08224e-06
9.4119e-06
9.71033e-06
9.96897e-06
1.01797e-05
1.03348e-05
1.04268e-05
1.0449e-05
1.03954e-05
1.02552e-05
1.00166e-05
9.7265e-06
9.34887e-06
8.87341e-06
8.3186e-06
7.69275e-06
7.0181e-06
6.28786e-06
5.52527e-06
4.768e-06
4.02492e-06
3.31053e-06
2.637e-06
2.01483e-06
1.45346e-06
9.60763e-07
5.43887e-07
2.16415e-07
3.7629e-08
2.50218e-10
1.14165e-10
1.88386e-08
1.32148e-07
4.15113e-07
8.84746e-07
1.49871e-06
2.18253e-06
2.85738e-06
3.45874e-06
3.94412e-06
4.29385e-06
4.50794e-06
4.60115e-06
4.59756e-06
4.52547e-06
4.41316e-06
4.28569e-06
4.16309e-06
4.05958e-06
3.98388e-06
3.94004e-06
3.92863e-06
3.94792e-06
3.99495e-06
4.06639e-06
4.1591e-06
4.27057e-06
4.39901e-06
4.54341e-06
4.70343e-06
4.8793e-06
5.07167e-06
5.28156e-06
5.51024e-06
5.75916e-06
6.02982e-06
6.32353e-06
6.64102e-06
6.98072e-06
7.34334e-06
7.72467e-06
8.11985e-06
8.52285e-06
8.92858e-06
9.32607e-06
9.70695e-06
1.00641e-05
1.03886e-05
1.06711e-05
1.09026e-05
1.10744e-05
1.1178e-05
1.1206e-05
1.11516e-05
1.10023e-05
1.07464e-05
1.04345e-05
1.00271e-05
9.51356e-06
8.913e-06
8.23414e-06
7.49918e-06
6.70998e-06
5.8811e-06
5.06153e-06
4.26115e-06
3.49625e-06
2.77942e-06
2.12039e-06
1.52766e-06
1.00883e-06
5.71302e-07
2.28004e-07
3.9915e-08
2.67124e-10
1.21979e-10
2.01393e-08
1.41454e-07
4.45036e-07
9.49742e-07
1.60996e-06
2.34473e-06
3.06802e-06
3.70958e-06
4.22367e-06
4.58982e-06
4.80927e-06
4.89926e-06
4.88691e-06
4.80351e-06
4.67976e-06
4.54246e-06
4.41255e-06
4.30459e-06
4.22716e-06
4.18392e-06
4.17496e-06
4.19808e-06
4.24995e-06
4.32694e-06
4.42575e-06
4.54377e-06
4.67921e-06
4.83111e-06
4.99925e-06
5.18401e-06
5.38631e-06
5.60743e-06
5.84899e-06
6.11282e-06
6.40073e-06
6.71421e-06
7.05348e-06
7.4189e-06
7.80861e-06
8.21883e-06
8.64438e-06
9.08107e-06
9.51855e-06
9.94785e-06
1.0362e-05
1.07517e-05
1.11071e-05
1.14181e-05
1.16745e-05
1.18665e-05
1.19846e-05
1.20204e-05
1.19667e-05
1.181e-05
1.15364e-05
1.1201e-05
1.07639e-05
1.0211e-05
9.5628e-06
8.82855e-06
8.03058e-06
7.17416e-06
6.27311e-06
5.38347e-06
4.518e-06
3.69571e-06
2.93027e-06
2.23083e-06
1.60458e-06
1.05825e-06
5.99213e-07
2.39842e-07
4.22505e-08
2.84607e-10
1.30017e-10
2.14774e-08
1.51029e-07
4.75793e-07
1.01638e-06
1.72355e-06
2.5095e-06
3.2807e-06
3.96122e-06
4.50222e-06
4.88279e-06
5.10573e-06
5.19107e-06
5.16914e-06
5.07422e-06
4.93939e-06
4.79299e-06
4.65674e-06
4.54534e-06
4.46708e-06
4.42518e-06
4.41919e-06
4.44646e-06
4.50328e-06
4.58578e-06
4.69053e-06
4.81485e-06
4.957e-06
5.11611e-06
5.29214e-06
5.4857e-06
5.69799e-06
5.93067e-06
6.18576e-06
6.46548e-06
6.77201e-06
7.10711e-06
7.47056e-06
7.86356e-06
8.28304e-06
8.72522e-06
9.18679e-06
9.65857e-06
1.01313e-05
1.05984e-05
1.10505e-05
1.14774e-05
1.18682e-05
1.22117e-05
1.24964e-05
1.27113e-05
1.2846e-05
1.28912e-05
1.28391e-05
1.26767e-05
1.23852e-05
1.20241e-05
1.15577e-05
1.09648e-05
1.02676e-05
9.47623e-06
8.61403e-06
7.68345e-06
6.7047e-06
5.73735e-06
4.79867e-06
3.91137e-06
3.09114e-06
2.347e-06
1.68459e-06
1.10921e-06
6.27725e-07
2.51922e-07
4.46341e-08
3.02666e-10
1.38286e-10
2.28545e-08
1.60885e-07
5.07424e-07
1.08473e-06
1.83957e-06
2.67689e-06
3.49543e-06
4.21353e-06
4.77956e-06
5.17251e-06
5.3971e-06
5.47642e-06
5.44417e-06
5.33764e-06
5.19216e-06
5.03747e-06
4.89585e-06
4.78196e-06
4.70374e-06
4.66383e-06
4.66126e-06
4.69291e-06
4.75474e-06
4.84265e-06
4.95313e-06
5.08351e-06
5.2321e-06
5.39822e-06
5.58202e-06
5.78443e-06
6.007e-06
6.25182e-06
6.52133e-06
6.81818e-06
7.14489e-06
7.50275e-06
7.89387e-06
8.31667e-06
8.76881e-06
9.24818e-06
9.74725e-06
1.02567e-05
1.07706e-05
1.12798e-05
1.17741e-05
1.22423e-05
1.26723e-05
1.30514e-05
1.3367e-05
1.36069e-05
1.37597e-05
1.38152e-05
1.3765e-05
1.35987e-05
1.32894e-05
1.29001e-05
1.24049e-05
1.17718e-05
1.10252e-05
1.01757e-05
9.24921e-06
8.23971e-06
7.17825e-06
6.12613e-06
5.10614e-06
4.14574e-06
3.26376e-06
2.46985e-06
1.76813e-06
1.16188e-06
6.5691e-07
2.64248e-07
4.70635e-08
3.21292e-10
1.46794e-10
2.42719e-08
1.71033e-07
5.39966e-07
1.15488e-06
1.9581e-06
2.84696e-06
3.71217e-06
4.46642e-06
5.05552e-06
5.45877e-06
5.68318e-06
5.75519e-06
5.71199e-06
5.59386e-06
5.43827e-06
5.27612e-06
5.13009e-06
5.01465e-06
4.93723e-06
4.89989e-06
4.9011e-06
4.93729e-06
5.00412e-06
5.09733e-06
5.21335e-06
5.34955e-06
5.50441e-06
5.67742e-06
5.86903e-06
6.08052e-06
6.31387e-06
6.57161e-06
6.85667e-06
7.1721e-06
7.52069e-06
7.90456e-06
8.32475e-06
8.78002e-06
9.26954e-06
9.78782e-06
1.03259e-05
1.08787e-05
1.14375e-05
1.19926e-05
1.25328e-05
1.30456e-05
1.35175e-05
1.39346e-05
1.42829e-05
1.45491e-05
1.47208e-05
1.47873e-05
1.47395e-05
1.45698e-05
1.4244e-05
1.3824e-05
1.33005e-05
1.26276e-05
1.18316e-05
1.09236e-05
9.93378e-06
8.84341e-06
7.69503e-06
6.55195e-06
5.44299e-06
4.40121e-06
3.44992e-06
2.60042e-06
1.85568e-06
1.21646e-06
6.86827e-07
2.76828e-07
4.95356e-08
3.40469e-10
1.55551e-10
2.57312e-08
1.81486e-07
5.7346e-07
1.22688e-06
2.07923e-06
3.01976e-06
3.9309e-06
4.71975e-06
5.32991e-06
5.74136e-06
5.96381e-06
6.02731e-06
5.97265e-06
5.84305e-06
5.67793e-06
5.50919e-06
5.35969e-06
5.24358e-06
5.16767e-06
5.1334e-06
5.13868e-06
5.17952e-06
5.25131e-06
5.34968e-06
5.47106e-06
5.61293e-06
5.77395e-06
5.95387e-06
6.15348e-06
6.37448e-06
6.6193e-06
6.89097e-06
7.19291e-06
7.52857e-06
7.90102e-06
8.31299e-06
8.7647e-06
9.2567e-06
9.78549e-06
1.03432e-05
1.09255e-05
1.15248e-05
1.21319e-05
1.27361e-05
1.3325e-05
1.38847e-05
1.44005e-05
1.4857e-05
1.5239e-05
1.55322e-05
1.57233e-05
1.58011e-05
1.57564e-05
1.55822e-05
1.52425e-05
1.479e-05
1.42381e-05
1.35265e-05
1.26814e-05
1.17157e-05
1.06635e-05
9.49344e-06
8.25503e-06
7.01605e-06
5.81121e-06
4.67998e-06
3.65141e-06
2.73986e-06
1.94778e-06
1.27314e-06
7.17538e-07
2.89674e-07
5.20475e-08
3.60175e-10
1.64564e-10
2.72341e-08
1.92256e-07
6.07943e-07
1.30082e-06
2.20303e-06
3.19531e-06
4.15156e-06
4.9734e-06
5.60254e-06
6.02009e-06
6.23887e-06
6.29276e-06
6.22623e-06
6.08536e-06
5.91137e-06
5.73693e-06
5.58489e-06
5.46892e-06
5.39517e-06
5.3644e-06
5.37398e-06
5.41953e-06
5.49624e-06
5.59967e-06
5.72628e-06
5.87374e-06
6.04092e-06
6.22791e-06
6.43589e-06
6.66699e-06
6.92417e-06
7.21097e-06
7.53128e-06
7.88892e-06
8.28732e-06
8.72934e-06
9.21654e-06
9.74707e-06
1.03148e-05
1.09166e-05
1.15459e-05
1.21946e-05
1.28526e-05
1.35081e-05
1.41475e-05
1.47557e-05
1.53163e-05
1.58129e-05
1.6229e-05
1.65492e-05
1.67597e-05
1.68488e-05
1.68073e-05
1.66284e-05
1.62779e-05
1.57917e-05
1.52107e-05
1.44617e-05
1.35691e-05
1.25457e-05
1.14326e-05
1.0187e-05
8.85696e-06
7.51858e-06
6.21209e-06
4.98387e-06
3.86998e-06
2.88934e-06
2.04503e-06
1.33214e-06
7.49105e-07
3.02794e-07
5.45959e-08
3.80382e-10
1.73844e-10
2.87822e-08
2.03357e-07
6.43457e-07
1.37675e-06
2.32955e-06
3.37362e-06
4.37408e-06
5.22721e-06
5.8732e-06
6.29478e-06
6.50822e-06
6.55151e-06
6.47282e-06
6.32098e-06
6.13884e-06
5.9596e-06
5.80592e-06
5.69087e-06
5.61986e-06
5.59297e-06
5.60703e-06
5.65736e-06
5.73895e-06
5.84735e-06
5.97915e-06
6.13221e-06
6.30569e-06
6.50006e-06
6.71692e-06
6.9589e-06
7.22949e-06
7.53275e-06
7.87304e-06
8.25445e-06
8.68096e-06
9.15655e-06
9.68042e-06
1.02487e-05
1.08596e-05
1.15079e-05
1.21865e-05
1.28865e-05
1.35971e-05
1.43053e-05
1.49962e-05
1.56532e-05
1.6259e-05
1.67955e-05
1.72453e-05
1.75922e-05
1.78218e-05
1.7922e-05
1.78834e-05
1.76996e-05
1.7342e-05
1.68232e-05
1.62102e-05
1.54261e-05
1.44876e-05
1.34079e-05
1.2234e-05
1.09196e-05
9.49825e-06
8.05862e-06
6.64608e-06
5.31421e-06
4.10716e-06
3.05007e-06
2.14806e-06
1.39372e-06
7.81598e-07
3.16201e-07
5.71775e-08
4.01059e-10
1.83402e-10
3.03774e-08
2.14802e-07
6.80041e-07
1.45473e-06
2.45885e-06
3.55469e-06
4.59837e-06
5.481e-06
6.14168e-06
6.56522e-06
6.77174e-06
6.80354e-06
6.71252e-06
6.55013e-06
6.36059e-06
6.17746e-06
6.02302e-06
5.90961e-06
5.84188e-06
5.8192e-06
5.83794e-06
5.89309e-06
5.97955e-06
6.09292e-06
6.22994e-06
6.38873e-06
6.56879e-06
6.77098e-06
6.9974e-06
7.25118e-06
7.53635e-06
7.85751e-06
8.21949e-06
8.62694e-06
9.08432e-06
9.59395e-06
1.0154e-05
1.07638e-05
1.14197e-05
1.2116e-05
1.28453e-05
1.35979e-05
1.43619e-05
1.51231e-05
1.58655e-05
1.65712e-05
1.72213e-05
1.7797e-05
1.82799e-05
1.86529e-05
1.89011e-05
1.9012e-05
1.8976e-05
1.87863e-05
1.84247e-05
1.788e-05
1.72282e-05
1.64118e-05
1.54298e-05
1.4296e-05
1.30601e-05
1.1685e-05
1.01751e-05
8.63411e-06
7.11271e-06
5.67171e-06
4.3642e-06
3.2232e-06
2.25757e-06
1.45814e-06
8.15092e-07
3.29903e-07
5.97888e-08
4.22168e-10
1.93248e-10
3.20216e-08
2.26605e-07
7.17738e-07
1.53485e-06
2.59098e-06
3.73849e-06
4.8243e-06
5.73456e-06
6.40772e-06
6.83119e-06
7.02931e-06
7.04886e-06
6.94545e-06
6.773e-06
6.57689e-06
6.39078e-06
6.23644e-06
6.12538e-06
6.06142e-06
6.04328e-06
6.06686e-06
6.12691e-06
6.21829e-06
6.3367e-06
6.47908e-06
6.64384e-06
6.83089e-06
7.04151e-06
7.27828e-06
7.54489e-06
7.84588e-06
8.18638e-06
8.57168e-06
9.00694e-06
9.49599e-06
1.004e-05
1.06393e-05
1.12919e-05
1.19939e-05
1.27393e-05
1.35199e-05
1.43253e-05
1.51426e-05
1.59564e-05
1.67494e-05
1.75025e-05
1.81959e-05
1.88095e-05
1.93243e-05
1.97225e-05
1.99888e-05
2.01102e-05
2.00767e-05
1.98809e-05
1.95157e-05
1.8953e-05
1.82579e-05
1.74111e-05
1.63884e-05
1.52036e-05
1.3903e-05
1.24752e-05
1.08828e-05
9.24189e-06
7.61056e-06
6.05635e-06
4.64196e-06
3.40973e-06
2.37422e-06
1.5257e-06
8.49667e-07
3.43905e-07
6.24263e-08
4.43664e-10
2.03394e-10
3.37168e-08
2.38782e-07
7.56587e-07
1.61714e-06
2.72597e-06
3.92498e-06
5.05173e-06
5.98765e-06
6.67107e-06
7.09246e-06
7.28079e-06
7.28745e-06
7.17173e-06
6.98981e-06
6.78799e-06
6.59985e-06
6.44645e-06
6.33841e-06
6.27871e-06
6.26542e-06
6.29403e-06
6.35912e-06
6.45555e-06
6.57914e-06
6.72713e-06
6.89825e-06
7.09281e-06
7.31257e-06
7.56061e-06
7.84114e-06
8.15922e-06
8.52042e-06
8.93038e-06
9.39426e-06
9.91585e-06
1.04964e-05
1.11358e-05
1.1832e-05
1.25807e-05
1.33754e-05
1.42072e-05
1.50648e-05
1.59343e-05
1.67993e-05
1.76411e-05
1.84398e-05
1.91745e-05
1.98245e-05
2.03698e-05
2.07923e-05
2.10761e-05
2.12079e-05
2.11775e-05
2.09777e-05
2.06044e-05
2.00308e-05
1.92933e-05
1.84161e-05
1.73558e-05
1.61247e-05
1.47564e-05
1.32801e-05
1.16155e-05
9.87779e-06
8.13728e-06
6.46741e-06
4.94079e-06
3.61048e-06
2.49869e-06
1.59669e-06
8.85406e-07
3.58209e-07
6.50859e-08
4.65498e-10
2.13852e-10
3.54651e-08
2.51347e-07
7.96632e-07
1.70168e-06
2.86386e-06
4.1141e-06
5.28047e-06
6.24002e-06
6.93143e-06
7.34879e-06
7.52603e-06
7.5193e-06
7.39146e-06
7.20076e-06
6.99417e-06
6.80495e-06
6.65334e-06
6.549e-06
6.49404e-06
6.48594e-06
6.51982e-06
6.59014e-06
6.69181e-06
6.82086e-06
6.97481e-06
7.15279e-06
7.35552e-06
7.58524e-06
7.84553e-06
8.1411e-06
8.47748e-06
8.86064e-06
9.29641e-06
9.78998e-06
1.03451e-05
1.09629e-05
1.1643e-05
1.23829e-05
1.31781e-05
1.40214e-05
1.49034e-05
1.58118e-05
1.67316e-05
1.76454e-05
1.85337e-05
1.93755e-05
2.01492e-05
2.08335e-05
2.14078e-05
2.18536e-05
2.21544e-05
2.22966e-05
2.22697e-05
2.20666e-05
2.16838e-05
2.11037e-05
2.03287e-05
1.94188e-05
1.83239e-05
1.7052e-05
1.56177e-05
1.40876e-05
1.23672e-05
1.05367e-05
8.6896e-06
6.90335e-06
5.26052e-06