/*--------------------------------*- C++ -*----------------------------------*\
  =========                 |
  \\      /  F ield         | OpenFOAM: The Open Source CFD Toolbox
   \\    /   O peration     | Website:  https://openfoam.org
    \\  /    A nd           | Version:  12
     \\/     M anipulation  |
\*---------------------------------------------------------------------------*/
FoamFile
{
    format      ascii;
    class       volScalarField;
    location    "1.5";
    object      p;
}
// * * * * * * * * * * * * * * * * * * * * * * * * * * * * * * * * * * * * * //

dimensions      [0 2 -2 0 0 0 0];

internalField   nonuniform List<scalar> 
5625
(
-5.89508e-08
3.33998e-05
5.74694e-05
5.62553e-05
2.47666e-05
-3.75947e-05
-0.000129285
-0.000247998
-0.00039136
-0.000557272
-0.000744074
-0.000950585
-0.00117611
-0.00142041
-0.00168366
-0.00196646
-0.00226972
-0.0025947
-0.00294291
-0.00331617
-0.00371652
-0.00414626
-0.00460785
-0.00510393
-0.00563722
-0.00621046
-0.00682628
-0.00748705
-0.0081947
-0.00895048
-0.00975467
-0.0106062
-0.0115025
-0.0124384
-0.0134065
-0.0143958
-0.0153916
-0.0163748
-0.0173211
-0.0182009
-0.0189786
-0.019613
-0.0200567
-0.0202576
-0.0201591
-0.0197021
-0.0188268
-0.0174758
-0.0155971
-0.0131479
-0.0100988
-0.00643724
-0.00218838
0.0026082
0.00790848
0.0135962
0.0195227
0.0255311
0.0314338
0.0370314
0.0421266
0.0465408
0.0501322
0.0528111
0.0545519
0.055397
0.055453
0.0548777
0.0538615
0.0526071
0.0513079
0.0501406
0.04925
0.0487589
0.0486681
-8.89863e-06
1.99013e-05
3.86277e-05
3.35913e-05
4.4876e-07
-6.17777e-05
-0.000152034
-0.000268443
-0.000408959
-0.000571717
-0.000755201
-0.000958304
-0.00118035
-0.00142109
-0.00168063
-0.00195953
-0.00225858
-0.00257894
-0.00292204
-0.00328956
-0.00368341
-0.00410574
-0.00455888
-0.0050453
-0.00556756
-0.00612818
-0.00672964
-0.00737412
-0.00806339
-0.00879856
-0.0095798
-0.010406
-0.0112745
-0.0121805
-0.0131165
-0.014072
-0.0150329
-0.0159805
-0.0168916
-0.0177374
-0.0184837
-0.0190905
-0.019512
-0.0196975
-0.0195921
-0.0191384
-0.018278
-0.016955
-0.0151184
-0.0127264
-0.00974961
-0.00617514
-0.00203216
0.00264903
0.00783372
0.0133842
0.0191741
0.0250487
0.0308254
0.0363108
0.0413138
0.0456616
0.049217
0.0518939
0.0536676
0.0545793
0.0547314
0.0542755
0.0533935
0.0522784
0.0511107
0.0500587
0.0492523
0.0488053
0.0487228
-2.15965e-05
5.61197e-06
2.03474e-05
1.18853e-05
-2.28418e-05
-8.4967e-05
-0.000173801
-0.000287841
-0.000425356
-0.00058471
-0.000764535
-0.000963807
-0.00118187
-0.00141846
-0.00167365
-0.00194785
-0.00224183
-0.00255661
-0.00289349
-0.00325401
-0.00363996
-0.00405334
-0.00449629
-0.00497109
-0.00548012
-0.00602576
-0.00661026
-0.00723566
-0.00790355
-0.00861495
-0.00936998
-0.0101676
-0.0110051
-0.011878
-0.0127792
-0.0136987
-0.014623
-0.0155344
-0.0164107
-0.0172243
-0.0179425
-0.0185267
-0.0189328
-0.0191117
-0.0190101
-0.0185719
-0.0177402
-0.0164599
-0.0146808
-0.0123612
-0.00947159
-0.00599855
-0.00197299
0.00259407
0.00765184
0.0130644
0.0187229
0.0244717
0.0301335
0.03552
0.040445
0.0447398
0.0482706
0.0509531
0.0527632
0.0537407
0.0539848
0.0536419
0.0528869
0.0519036
0.0508645
0.0499224
0.0491964
0.0487906
0.0487135
-3.41523e-05
-5.50756e-06
7.80829e-06
-2.6931e-06
-3.84937e-05
-0.000100557
-0.000188305
-0.000300443
-0.000435447
-0.000591847
-0.000768394
-0.000964125
-0.00117841
-0.00141095
-0.0016618
-0.0019313
-0.0022201
-0.00252914
-0.00285961
-0.00321294
-0.00359077
-0.00399495
-0.00442748
-0.00489051
-0.00538624
-0.00591692
-0.00648467
-0.0070914
-0.00773868
-0.00842746
-0.00915793
-0.00992916
-0.0107388
-0.0115826
-0.012454
-0.0133438
-0.0142393
-0.0151237
-0.0159761
-0.0167701
-0.0174744
-0.0180517
-0.0184594
-0.0186495
-0.0185698
-0.0181651
-0.0173788
-0.016156
-0.014446
-0.0122065
-0.0094069
-0.0060334
-0.00210853
0.00236148
0.00730687
0.0126194
0.0181852
0.0238515
0.0294444
0.0347782
0.0396682
0.0439468
0.0474801
0.0501832
0.0520311
0.0530621
0.0533738
0.0531101
0.0524427
0.0515504
0.0506
0.0497342
0.0490631
0.048683
0.0486022
-4.35722e-05
-1.23881e-05
8.93657e-07
-1.07581e-05
-4.72857e-05
-0.000109325
-0.000196253
-0.000306858
-0.00043974
-0.000593546
-0.000767109
-0.000959518
-0.00117016
-0.00139872
-0.00164522
-0.00190991
-0.00219341
-0.00249654
-0.00282038
-0.00316626
-0.00353569
-0.00393039
-0.00435223
-0.00480324
-0.00528552
-0.0058012
-0.00635233
-0.00694078
-0.00756812
-0.0082354
-0.00894296
-0.00969015
-0.010475
-0.0112938
-0.0121409
-0.0130076
-0.0138825
-0.0147499
-0.01559
-0.016378
-0.0170838
-0.0176713
-0.018099
-0.0183197
-0.0182818
-0.01793
-0.0172077
-0.0160589
-0.0144318
-0.0122822
-0.00957782
-0.00630261
-0.00247004
0.00190656
0.0067622
0.0119998
0.0175031
0.023122
0.0286844
0.0340052
0.038899
0.0431964
0.0467612
0.0495053
0.0514009
0.0524843
0.0528518
0.0526467
0.0520398
0.0512085
0.0503159
0.049499
0.0488605
0.0484896
0.0483926
-4.80204e-05
-1.42745e-05
-5.85772e-07
-1.30036e-05
-5.01225e-05
-0.000112214
-0.000198531
-0.000307876
-0.000438917
-0.000590382
-0.000761157
-0.000950377
-0.00115744
-0.00138201
-0.00162408
-0.00188386
-0.00216186
-0.00245884
-0.00277578
-0.00311388
-0.00347456
-0.00385942
-0.00427024
-0.00470894
-0.00517754
-0.0056781
-0.00621265
-0.00678311
-0.00739113
-0.00803795
-0.00872422
-0.00944969
-0.010213
-0.0110112
-0.0118394
-0.0126901
-0.0135531
-0.014414
-0.0152545
-0.016051
-0.0167747
-0.0173906
-0.0178578
-0.0181298
-0.0181546
-0.0178765
-0.0172377
-0.0161807
-0.0146518
-0.0126043
-0.0100031
-0.00682925
-0.00308951
0.00119927
0.00597864
0.0111573
0.0166194
0.0222168
0.0277785
0.0331187
0.0380499
0.0423993
0.0460256
0.048836
0.0507976
0.0519435
0.052368
0.0522143
0.0516542
0.0508651
0.0500095
0.049221
0.0485971
0.0482201
0.0480938
-4.62688e-05
-1.0444e-05
3.59824e-06
-9.5003e-06
-4.72256e-05
-0.000109495
-0.000195409
-0.000303738
-0.00043318
-0.000582518
-0.000750679
-0.000936825
-0.00114036
-0.00136095
-0.00159853
-0.00185327
-0.00212561
-0.00241623
-0.00272601
-0.00305606
-0.0034077
-0.00378245
-0.004182
-0.00460819
-0.00506299
-0.00554846
-0.00606669
-0.00661969
-0.00720931
-0.00783712
-0.00850419
-0.00921089
-0.00995661
-0.0107394
-0.0115554
-0.0123985
-0.0132598
-0.0141265
-0.0149816
-0.015803
-0.0165629
-0.0172271
-0.0177552
-0.0181003
-0.01821
-0.0180271
-0.0174921
-0.0165454
-0.0151304
-0.0131976
-0.0107086
-0.00764123
-0.00399664
0.000208111
0.00491943
0.0100509
0.0154882
0.0210853
0.0266716
0.03206
0.0370602
0.0414942
0.0452144
0.0481204
0.0501729
0.0513993
0.0518911
0.051791
0.0512721
0.050514
0.0496803
0.0489036
0.0482786
0.0478816
0.0477139
-3.74523e-05
-3.09597e-07
1.37442e-05
-1.55501e-07
-3.86206e-05
-0.000101249
-0.000186981
-0.000294534
-0.000422611
-0.000570017
-0.000735727
-0.000918915
-0.00111899
-0.0013356
-0.00156864
-0.00181825
-0.00208481
-0.00236889
-0.00267133
-0.00299314
-0.00333555
-0.00370002
-0.00408816
-0.00450178
-0.00494287
-0.00541353
-0.00591596
-0.00645239
-0.00702498
-0.00763576
-0.00828642
-0.00897811
-0.00971119
-0.0104849
-0.0112967
-0.0121421
-0.0130136
-0.0139002
-0.0147862
-0.0156507
-0.016467
-0.0172012
-0.0178128
-0.0182541
-0.0184714
-0.0184056
-0.0179947
-0.0171763
-0.0158907
-0.0140851
-0.0117177
-0.00876268
-0.00521637
-0.00109435
0.003554
0.00864686
0.0140724
0.0196865
0.0253191
0.030782
0.0358811
0.0404325
0.0442805
0.0473155
0.0494888
0.0508204
0.0513969
0.0513596
0.0508832
0.0501503
0.0493277
0.0485492
0.0479095
0.0474797
0.0472605
-2.1018e-05
1.65256e-05
3.00594e-05
1.50895e-05
-2.43424e-05
-8.7556e-05
-0.000173341
-0.000280354
-0.000407287
-0.00055296
-0.00071637
-0.000896706
-0.00109338
-0.00130602
-0.00153451
-0.00177894
-0.00203961
-0.00231705
-0.00261201
-0.00292545
-0.00325853
-0.00361263
-0.00398936
-0.00439053
-0.00481819
-0.00527454
-0.00576201
-0.00628313
-0.00684054
-0.00743686
-0.00807458
-0.00875587
-0.0094823
-0.0102545
-0.0110715
-0.0119306
-0.0128259
-0.013748
-0.0146828
-0.0156105
-0.0165046
-0.0173315
-0.01805
-0.0186109
-0.0189584
-0.019031
-0.0187638
-0.0180911
-0.0169497
-0.0152834
-0.0130469
-0.0102107
-0.00676691
-0.00272861
0.00185898
0.0069186
0.0123414
0.0179861
0.0236834
0.029244
0.0344703
0.0391714
0.0431823
0.0463822
0.0487107
0.0501776
0.0508625
0.0509037
0.0504769
0.0497686
0.0489502
0.0481595
0.0474935
0.0470195
0.0467403
3.38088e-06
4.03248e-05
5.2681e-05
3.62607e-05
-4.4388e-06
-6.85021e-05
-0.000154587
-0.00026129
-0.000387289
-0.000531411
-0.000692666
-0.000870257
-0.0010636
-0.00127231
-0.00149624
-0.00173544
-0.00199017
-0.00226091
-0.00254832
-0.00285332
-0.00317703
-0.0035208
-0.00388625
-0.00427524
-0.00468993
-0.00513275
-0.0056064
-0.00611388
-0.00665842
-0.00724345
-0.00787245
-0.00854881
-0.00927556
-0.0100549
-0.0108879
-0.0117734
-0.0127076
-0.0136825
-0.0146853
-0.015697
-0.0166914
-0.0176343
-0.0184828
-0.0191862
-0.0196858
-0.0199171
-0.0198118
-0.0193007
-0.0183173
-0.0168018
-0.0147054
-0.0119953
-0.00865942
-0.00470799
-0.000181839
0.00484651
0.0102721
0.0159569
0.0217334
0.0274119
0.0327911
0.0376731
0.0418825
0.0452852
0.0478068
0.049444
0.0502665
0.0504076
0.0500429
0.0493631
0.0485459
0.0477351
0.0470333
0.046505
0.0461596
3.59108e-05
7.1226e-05
8.16779e-05
6.3355e-05
2.10357e-05
-4.41688e-05
-0.000130809
-0.000237429
-0.000362694
-0.000505435
-0.000664675
-0.000839627
-0.00102971
-0.00123453
-0.00145392
-0.00168789
-0.00193666
-0.00220066
-0.00248051
-0.00277708
-0.00309147
-0.00342505
-0.00377947
-0.00415672
-0.00455914
-0.00498943
-0.00545075
-0.00594665
-0.00648115
-0.00705865
-0.00768386
-0.00836163
-0.00909668
-0.00989312
-0.0107539
-0.0116799
-0.012669
-0.013715
-0.014806
-0.0159235
-0.0170407
-0.0181223
-0.0191237
-0.0199913
-0.0206633
-0.0210719
-0.0211449
-0.0208099
-0.0199969
-0.0186428
-0.0166958
-0.0141195
-0.0108983
-0.00703899
-0.0025778
0.0024179
0.00784784
0.0135783
0.0194446
0.0252574
0.0308124
0.0359048
0.0403477
0.0439925
0.0467479
0.0485943
0.0495884
0.0498559
0.0495708
0.0489279
0.0481123
0.0472763
0.0465306
0.0459398
0.0455227
7.66284e-05
0.000109287
0.000117073
9.63454e-05
5.20192e-05
-1.46363e-05
-0.000102093
-0.000208853
-0.000333575
-0.000475097
-0.000632455
-0.000804873
-0.000991772
-0.00119276
-0.00140764
-0.0016364
-0.00187923
-0.0021365
-0.00240882
-0.00269704
-0.00300226
-0.00332589
-0.00366968
-0.0040358
-0.00442683
-0.00484589
-0.00529668
-0.00578348
-0.00631125
-0.0068856
-0.00751267
-0.00819902
-0.00895126
-0.00977558
-0.010677
-0.0116586
-0.0127199
-0.013856
-0.0150557
-0.0163005
-0.0175627
-0.0188051
-0.0199806
-0.0210324
-0.0218952
-0.0224973
-0.0227633
-0.022617
-0.0219855
-0.0208028
-0.0190142
-0.01658
-0.0134815
-0.00972151
-0.00533152
-0.000373106
0.005059
0.0108366
0.016799
0.0227584
0.0285086
0.0338382
0.0385486
0.0424748
0.0455064
0.0476042
0.0488084
0.0492335
0.0490501
0.0484564
0.0476461
0.0467823
0.0459865
0.0453262
0.0448325
0.000125484
0.000154481
0.00015883
0.000135172
8.84339e-05
2.00091e-05
-6.85254e-05
-0.000175643
-0.000300005
-0.000440464
-0.000596068
-0.000766058
-0.00094986
-0.00114708
-0.0013575
-0.0015811
-0.00181802
-0.00206863
-0.00233352
-0.00261353
-0.0029098
-0.00322383
-0.00355752
-0.00391326
-0.00429402
-0.00470341
-0.00514579
-0.00562636
-0.00615122
-0.00672736
-0.00736262
-0.00806546
-0.00884461
-0.0097085
-0.0106644
-0.0117172
-0.0128683
-0.0141138
-0.0154427
-0.0168359
-0.0182641
-0.0196879
-0.0210569
-0.0223106
-0.0233801
-0.0241899
-0.024661
-0.0247143
-0.0242741
-0.023272
-0.0216506
-0.0193674
-0.0164005
-0.0127489
-0.00843884
-0.00352542
0.00190307
0.00772505
0.0137854
0.0198994
0.0258599
0.03145
0.0364593
0.0407055
0.0440566
0.0464505
0.0479067
0.0485251
0.0484699
0.0479418
0.0471436
0.0462517
0.0454012
0.044666
0.0440912
0.000182366
0.000206729
0.000206873
0.000179747
0.000130184
5.96672e-05
-3.02036e-05
-0.00013789
-0.000262067
-0.000401609
-0.000555584
-0.000723252
-0.000904046
-0.00109757
-0.00130361
-0.00152211
-0.00175321
-0.00199726
-0.00225485
-0.00252686
-0.00281448
-0.00311936
-0.0034436
-0.00378991
-0.00416169
-0.0045632
-0.00499962
-0.00547723
-0.00600344
-0.00658686
-0.00723723
-0.00796512
-0.00878158
-0.00969735
-0.0107219
-0.0118622
-0.0131209
-0.0144948
-0.0159727
-0.0175342
-0.0191481
-0.0207717
-0.0223512
-0.0238221
-0.0251116
-0.0261407
-0.026827
-0.0270889
-0.0268484
-0.0260352
-0.0245898
-0.0224663
-0.0196407
-0.016108
-0.0118888
-0.00703071
-0.001615
0.00424461
0.0104001
0.0166715
0.0228526
0.0287219
0.034058
0.0386607
0.0423742
0.0451103
0.0468637
0.047715
0.0478189
0.0473766
0.0466008
0.0456829
0.0447742
0.0439602
0.0432997
0.000247095
0.000265885
0.000261073
0.000229948
0.000177155
0.000104212
1.2761e-05
-9.56941e-05
-0.000219854
-0.000358619
-0.000511087
-0.000676538
-0.000854419
-0.00104434
-0.00124608
-0.00145957
-0.00168496
-0.00192258
-0.00217306
-0.00243732
-0.00271669
-0.00301295
-0.00332851
-0.00366646
-0.00403078
-0.00442644
-0.00485964
-0.00533788
-0.00587011
-0.00646677
-0.00713967
-0.00790171
-0.00876636
-0.00974678
-0.0108546
-0.0120985
-0.0134823
-0.0150029
-0.0166484
-0.0183967
-0.0202136
-0.0220532
-0.0238575
-0.0255582
-0.0270784
-0.0283357
-0.0292452
-0.0297228
-0.0296891
-0.0290722
-0.027811
-0.0258558
-0.0231816
-0.0197796
-0.0156633
-0.0108731
-0.00548236
0.000404256
0.00664739
0.0130737
0.0194799
0.0256416
0.0313276
0.0363195
0.0404367
0.0435616
0.0456594
0.0467869
0.0470849
0.0467528
0.0460129
0.0450734
0.044105
0.0432092
0.042458
0.000319451
0.000331763
0.000321264
0.000285623
0.000229186
0.000153503
6.02387e-05
-4.91766e-05
-0.000173476
-0.0003116
-0.000462679
-0.000626019
-0.000801086
-0.000987499
-0.00118503
-0.00139363
-0.00161343
-0.0018448
-0.00208839
-0.00234522
-0.00261677
-0.00290504
-0.00321279
-0.0035436
-0.00390211
-0.00429419
-0.00472716
-0.00520994
-0.00575321
-0.00636943
-0.00707268
-0.00787834
-0.00880236
-0.00986031
-0.0110659
-0.0124293
-0.0139549
-0.0156394
-0.0174696
-0.0194209
-0.021456
-0.023525
-0.0255657
-0.0275058
-0.0292647
-0.0307569
-0.0318951
-0.0325937
-0.0327722
-0.0323579
-0.0312873
-0.0295088
-0.0269969
-0.0237393
-0.019737
-0.015029
-0.009678
-0.00377852
0.00254018
0.00911336
0.0157429
0.0222037
0.0282564
0.0336654
0.0382244
0.0417835
0.0442741
0.0457242
0.0462552
0.0460618
0.0453747
0.0444207
0.0433931
0.0424124
0.0415658
0.000399163
0.000404122
0.000387233
0.000346568
0.000286085
0.000207388
0.000112075
1.51895e-06
-0.000123069
-0.000260679
-0.000410483
-0.000571819
-0.000744175
-0.000927182
-0.00112062
-0.00132445
-0.00153881
-0.00176411
-0.00200107
-0.00225083
-0.00251505
-0.00279603
-0.00309694
-0.00342194
-0.00377645
-0.00416737
-0.0046033
-0.00509478
-0.00565439
-0.00629677
-0.00703846
-0.00789737
-0.00889203
-0.0100403
-0.0113577
-0.0128557
-0.0145388
-0.0164029
-0.018433
-0.0206014
-0.0228671
-0.0251761
-0.0274619
-0.0296481
-0.031651
-0.0333822
-0.0347526
-0.0356756
-0.0360699
-0.0358613
-0.0349826
-0.033393
-0.0310549
-0.0279503
-0.0240764
-0.0194671
-0.0141728
-0.00827759
-0.00189962
0.00480693
0.0116514
0.0184107
0.0248396
0.030687
0.0357208
0.0397569
0.0426889
0.0445098
0.0453166
0.0452944
0.0446808
0.043722
0.0426373
0.041569
0.0406228
0.000485925
0.000482687
0.000458719
0.000412538
0.000347649
0.000265663
0.000168084
5.62179e-05
-6.87979e-05
-0.000206014
-0.000354654
-0.000514092
-0.00068384
-0.000863549
-0.00105301
-0.0012522
-0.00146128
-0.00168072
-0.00191134
-0.00215441
-0.00241182
-0.00268626
-0.00298136
-0.00330197
-0.00365441
-0.00404674
-0.00448901
-0.00499351
-0.00557492
-0.00625024
-0.00703853
-0.00796036
-0.00903673
-0.0102877
-0.0117304
-0.013377
-0.0152318
-0.0172894
-0.0195322
-0.0219292
-0.0244352
-0.0269919
-0.0295286
-0.0319651
-0.0342145
-0.0361865
-0.0377904
-0.038939
-0.0395504
-0.039548
-0.0388708
-0.0374767
-0.0353181
-0.0323749
-0.0286456
-0.0241497
-0.0189297
-0.0130584
-0.00664119
0.000179949
0.00722429
0.0142738
0.0210801
0.0273792
0.0329142
0.0374657
0.040886
0.0431273
0.0442555
0.0444409
0.0439252
0.0429744
0.0418364
0.0406783
0.0396286
0.000579381
0.000567128
0.000535421
0.000483256
0.000413622
0.000328084
0.000228042
0.00011471
-1.08622e-05
-0.000147799
-0.000295381
-0.000453022
-0.000620268
-0.000796787
-0.000982393
-0.00117708
-0.00138105
-0.00159485
-0.0018194
-0.00205618
-0.00230736
-0.00257603
-0.0028664
-0.00318411
-0.00353648
-0.00393286
-0.00438493
-0.0049069
-0.00551567
-0.0062307
-0.00707372
-0.00806791
-0.0092367
-0.0106021
-0.0121826
-0.0139905
-0.0160296
-0.0182924
-0.0207583
-0.0233926
-0.0261459
-0.0289552
-0.0317457
-0.0344339
-0.0369301
-0.0391422
-0.0409788
-0.0423522
-0.0431797
-0.0433881
-0.0429215
-0.0417223
-0.0397475
-0.036975
-0.0334001
-0.0290324
-0.0239051
-0.0180788
-0.0116453
-0.004733
0.00248982
0.00981309
0.0169892
0.0237442
0.0297985
0.0348978
0.0388497
0.0415607
0.0430582
0.0434915
0.0431019
0.0421748
0.0409892
0.0397401
0.0385829
0.000679155
0.000657075
0.000616997
0.000558402
0.000483696
0.000394365
0.000291681
0.000176744
5.04969e-05
-8.6267e-05
-0.00023289
-0.000388835
-0.000553679
-0.000727114
-0.000908978
-0.00109929
-0.00129832
-0.00150668
-0.00172546
-0.00195635
-0.00220186
-0.00246555
-0.0027523
-0.00306861
-0.00342294
-0.00382609
-0.00429146
-0.00483534
-0.00547697
-0.00623843
-0.00714407
-0.00821967
-0.00949095
-0.0109816
-0.0127111
-0.0146915
-0.0169253
-0.0194028
-0.0220999
-0.0249776
-0.0279821
-0.0310461
-0.0340909
-0.0370296
-0.0397704
-0.0422199
-0.0442863
-0.045882
-0.0469259
-0.0473466
-0.0470834
-0.0460793
-0.0442943
-0.041702
-0.0382916
-0.0340661
-0.0290494
-0.0232898
-0.0168653
-0.00988909
-0.00251498
0.00505815
0.0125871
0.0197922
0.0263746
0.0320458
0.0365678
0.0397958
0.0417118
0.0424363
0.0422048
0.0413203
0.0400947
0.0387542
0.0374859
0.000784811
0.000752103
0.000703047
0.000637601
0.000557518
0.000464175
0.00035869
0.000242021
0.000114992
-2.16964e-05
-0.000167455
-0.000321797
-0.000484332
-0.000654783
-0.00083301
-0.00101907
-0.00121331
-0.00141644
-0.00162971
-0.00185509
-0.00209547
-0.00235497
-0.00263918
-0.00295559
-0.00331392
-0.00372651
-0.00420864
-0.0047788
-0.00545869
-0.00627299
-0.00724876
-0.00841425
-0.00979727
-0.0114229
-0.0133111
-0.0154733
-0.0179104
-0.0206096
-0.0235432
-0.0266677
-0.0299249
-0.0332431
-0.03654
-0.0397258
-0.0427068
-0.0453888
-0.0476799
-0.0494933
-0.050749
-0.0513762
-0.0513135
-0.0505063
-0.0489138
-0.0465068
-0.0432693
-0.0391984
-0.034309
-0.0286379
-0.0222487
-0.0152385
-0.00774503
4.70898e-05
0.00790317
0.0155423
0.0226506
0.0289085
0.0340318
0.0378206
0.0402042
0.0412656
0.0412279
0.0404081
0.0391523
0.0377209
0.0363385
0.000895862
0.000851761
0.000793118
0.000720422
0.000634681
0.000537132
0.000428702
0.000310188
0.000182282
4.55824e-05
-9.93963e-05
-0.000252218
-0.000412529
-0.00058008
-0.000754762
-0.00093668
-0.00112624
-0.0013243
-0.00153231
-0.00175253
-0.0019883
-0.00224433
-0.00252705
-0.00284502
-0.00320931
-0.00363394
-0.00413618
-0.00473682
-0.00546008
-0.00633331
-0.00738617
-0.00864927
-0.0101522
-0.0119213
-0.0139763
-0.0163278
-0.0189744
-0.0219
-0.0250728
-0.0284451
-0.0319538
-0.0355233
-0.0390678
-0.0424951
-0.0457099
-0.0486175
-0.0511264
-0.0531506
-0.0546115
-0.0554392
-0.0555733
-0.0549608
-0.0535602
-0.0513404
-0.0482815
-0.0443752
-0.0396283
-0.0340661
-0.0277384
-0.020726
-0.0131486
-0.00517424
0.00297502
0.011022
0.0186431
0.0254917
0.0312387
0.0356266
0.038525
0.0399707
0.0401655
0.0394358
0.038162
0.0366413
0.035142
0.00101178
0.000955519
0.000886695
0.000806377
0.000714723
0.000612792
0.000501293
0.000380838
0.000251971
0.000115184
-2.90885e-05
-0.000180461
-0.000338617
-0.000503333
-0.000674535
-0.000852378
-0.00103736
-0.00123048
-0.00143341
-0.00164876
-0.00188036
-0.00213359
-0.0024158
-0.00273668
-0.00310879
-0.00354791
-0.00407342
-0.00470847
-0.00547986
-0.00641758
-0.00755381
-0.00892132
-0.0105513
-0.0124707
-0.0146989
-0.0172451
-0.0201052
-0.0232595
-0.0266721
-0.0302904
-0.0340473
-0.0378629
-0.0416486
-0.0453097
-0.0487502
-0.0518747
-0.0545926
-0.056819
-0.0584767
-0.0594976
-0.0598222
-0.0593993
-0.0581875
-0.0561543
-0.0532771
-0.0495428
-0.0449509
-0.0395165
-0.0332757
-0.0262928
-0.0186692
-0.0105536
-0.00215212
0.00626709
0.0143766
0.0218083
0.0281912
0.0332093
0.0366664
0.0385438
0.0390126
0.0384015
0.0371243
0.0355177
0.0338981
0.00113198
0.00106279
0.000983213
0.000894917
0.000797114
0.000690648
0.000575975
0.000453497
0.000323601
0.000186661
4.30368e-05
-0.000106941
-0.000262987
-0.000424907
-0.00059266
-0.000766457
-0.000946897
-0.00113514
-0.00133311
-0.00154381
-0.0017716
-0.00202261
-0.00230514
-0.00263017
-0.00301179
-0.00346766
-0.00401933
-0.00469237
-0.00551618
-0.00652332
-0.00774837
-0.00922606
-0.0109888
-0.0130639
-0.01547
-0.0182143
-0.0212897
-0.0246728
-0.0283231
-0.0321838
-0.0361832
-0.0402379
-0.0442563
-0.0481422
-0.0517983
-0.0551297
-0.0580462
-0.0604645
-0.0623092
-0.0635139
-0.0640208
-0.0637804
-0.0627518
-0.0609023
-0.0582071
-0.0546494
-0.0502224
-0.0449318
-0.0388012
-0.0318789
-0.0242472
-0.0160344
-0.00742687
0.00132084
0.00988398
0.0178793
0.0248989
0.0305691
0.0346234
0.036979
0.0377649
0.0373041
0.0360406
0.034353
0.03261
0.00125583
0.00117293
0.00108203
0.000985423
0.00088126
0.000770127
0.00065219
0.000527624
0.000396644
0.000259506
0.000116488
-3.21258e-05
-0.000186081
-0.000345207
-0.000509498
-0.000679224
-0.000855093
-0.00103844
-0.00123149
-0.00143765
-0.00166188
-0.00191109
-0.00219466
-0.00252489
-0.00291749
-0.00339209
-0.00397247
-0.00468666
-0.0055666
-0.00664738
-0.0079658
-0.00955828
-0.0114582
-0.0136928
-0.0162795
-0.0192232
-0.0225137
-0.0261234
-0.0300076
-0.0341047
-0.0383392
-0.0426243
-0.0468656
-0.0509656
-0.0548262
-0.0583529
-0.0614565
-0.0640551
-0.0660755
-0.067453
-0.0681322
-0.0680652
-0.0672125
-0.0655415
-0.063026
-0.0596466
-0.0553912
-0.0502576
-0.0442578
-0.0374249
-0.0298224
-0.0215571
-0.0127935
-0.00376752
0.00520492
0.0137329
0.0213781
0.027712
0.0323951
0.0352724
0.0364197
0.0361434
0.0349131
0.0331507
0.0312822
0.00138262
0.00128522
0.00118244
0.0010772
0.000966489
0.000850576
0.000729308
0.000602607
0.000470506
0.000333139
0.000190709
4.34568e-05
-0.00010839
-0.000264679
-0.000425437
-0.000591
-0.00076219
-0.000940544
-0.00112859
-0.0013302
-0.00155097
-0.00179867
-0.00208379
-0.00242004
-0.00282485
-0.00331984
-0.00393108
-0.00468904
-0.0056282
-0.00678601
-0.00820132
-0.00991202
-0.0119521
-0.0143483
-0.0171166
-0.020259
-0.0237623
-0.0275947
-0.0317068
-0.0360329
-0.0404935
-0.0449986
-0.0494518
-0.053754
-0.057807
-0.0615165
-0.0647945
-0.067561
-0.0697445
-0.0712831
-0.0721231
-0.0722191
-0.071533
-0.070033
-0.0676927
-0.0644905
-0.0604104
-0.0554435
-0.0495916
-0.0428738
-0.0353356
-0.0270619
-0.0181936
-0.00894422
0.000385447
0.00940464
0.0176522
0.0246502
0.0299849
0.0334232
0.0349757
0.03492
0.033745
0.0319158
0.0299205
0.00151156
0.00139886
0.00128366
0.00116949
0.00105205
0.000931267
0.000806618
0.000677751
0.000544512
0.000406912
0.000265081
0.000119222
-3.04526e-05
-0.000183806
-0.000340894
-0.000502115
-0.000668421
-0.000841561
-0.0010244
-0.0012213
-0.00143854
-0.00168482
-0.00197179
-0.00231463
-0.00273255
-0.00324922
-0.003893
-0.0046968
-0.00569752
-0.00693489
-0.00844957
-0.0102806
-0.0124624
-0.0150208
-0.0179698
-0.0213086
-0.0250206
-0.0290697
-0.0334022
-0.0379482
-0.0426246
-0.0473384
-0.0519913
-0.0564831
-0.0607154
-0.0645945
-0.0680338
-0.0709549
-0.0732887
-0.0749753
-0.0759639
-0.0762113
-0.0756813
-0.0743434
-0.0721714
-0.0691428
-0.0652387
-0.0604445
-0.0547537
-0.0481729
-0.0407306
-0.0324904
-0.0235683
-0.0141528
-0.00452373
0.004936
0.0137512
0.021402
0.0274013
0.0314336
0.0334336
0.0336363
0.0325409
0.0306543
0.0285319
0.0016418
0.00151298
0.00138481
0.00126142
0.00113711
0.00101138
0.000883324
0.000752284
0.000617914
0.000480102
0.000338914
0.000194526
4.71413e-05
-0.00010311
-0.000256305
-0.000412912
-0.000574012
-0.000741588
-0.000918866
-0.00111073
-0.00132419
-0.0015689
-0.00185776
-0.00220748
-0.00263906
-0.00317828
-0.00385577
-0.00470684
-0.00577073
-0.00708925
-0.00870467
-0.010657
-0.0129804
-0.0157
-0.0188273
-0.0223583
-0.0262732
-0.0305317
-0.0350757
-0.0398314
-0.0447121
-0.0496225
-0.0544622
-0.0591304
-0.0635285
-0.0675637
-0.0711506
-0.0742128
-0.0766834
-0.0785051
-0.0796294
-0.0800158
-0.0796303
-0.0784441
-0.076432
-0.0735711
-0.0698405
-0.0652219
-0.0597015
-0.053275
-0.0459557
-0.037787
-0.02886
-0.0193357
-0.00946878
0.000373614
0.00971164
0.017992
0.024658
0.0293099
0.0317966
0.0322961
0.0313065
0.0293739
0.027125
0.00177239
0.00162662
0.00148492
0.00135204
0.00122073
0.00109002
0.00095854
0.000825344
0.000689875
0.000551909
0.000411452
0.000268665
0.000123755
-2.31451e-05
-0.000172131
-0.000323734
-0.000479177
-0.000640686
-0.000811873
-0.000998178
-0.00120738
-0.00145015
-0.00174067
-0.00209721
-0.00254264
-0.0031048
-0.00381662
-0.00471573
-0.00584358
-0.0072439
-0.00896034
-0.0110335
-0.0134974
-0.0163757
-0.0196773
-0.0233946
-0.0275053
-0.0319645
-0.0367099
-0.041664
-0.0467369
-0.0518309
-0.0568442
-0.0616752
-0.0662255
-0.0704032
-0.0741241
-0.0773139
-0.0799079
-0.0818513
-0.0830983
-0.0836111
-0.083358
-0.0823123
-0.0804502
-0.077749
-0.0741872
-0.0697434
-0.0643985
-0.0581391
-0.0509651
-0.0429011
-0.0340141
-0.0244366
-0.0143944
-0.00423228
0.00557484
0.0144508
0.0217741
0.0270624
0.0300707
0.0309049
0.0300493
0.0280835
0.0257101
0.0019023
0.00173872
0.00158294
0.00144032
0.00130189
0.00116616
0.00103128
0.000895975
0.000759477
0.000621453
0.000481868
0.000340876
0.000198703
5.54974e-05
-8.88483e-05
-0.000234929
-0.000384112
-0.000538883
-0.000703261
-0.000883274
-0.00108751
-0.00132769
-0.00161933
-0.00198229
-0.00244132
-0.00302636
-0.00377256
-0.00471978
-0.00591158
-0.00739339
-0.00921004
-0.0114025
-0.0140042
-0.0170375
-0.020508
-0.0244043
-0.0287024
-0.0333524
-0.0382883
-0.0434288
-0.0486811
-0.0539455
-0.0591189
-0.0640992
-0.0687882
-0.0730948
-0.0769364
-0.0802406
-0.0829449
-0.084997
-0.086354
-0.0869804
-0.0868474
-0.0859303
-0.0842071
-0.0816563
-0.078256
-0.0739835
-0.0688154
-0.0627311
-0.0557192
-0.0477875
-0.0389802
-0.0294015
-0.0192456
-0.00882931
0.00138652
0.0108145
0.0187743
0.0247056
0.0282651
0.0294707
0.0287782
0.0267939
0.0242989
0.00203039
0.00184812
0.0016777
0.00152508
0.00137945
0.0012387
0.00110047
0.000963129
0.000825709
0.000687775
0.000549261
0.000410336
0.000271256
0.000132198
-6.949e-06
-0.00014684
-0.000288994
-0.000436168
-0.000592808
-0.000765564
-0.000963861
-0.00120052
-0.00149241
-0.00186103
-0.00233299
-0.00294033
-0.00372036
-0.00471509
-0.00597
-0.00753208
-0.00944706
-0.011756
-0.0144918
-0.017675
-0.021308
-0.0253746
-0.0298507
-0.034681
-0.0397956
-0.0451099
-0.0505286
-0.0559501
-0.0612702
-0.0663863
-0.0712007
-0.0756231
-0.0795726
-0.0829784
-0.0857805
-0.0879289
-0.0893833
-0.090111
-0.0900857
-0.0892851
-0.0876893
-0.0852782
-0.0820306
-0.0779229
-0.0729293
-0.0670237
-0.0601853
-0.0524074
-0.0437134
-0.0341801
-0.0239691
-0.0133645
-0.00280479
0.00712366
0.0156882
0.022259
0.0263922
0.0280035
0.0275043
0.0255176
0.0229053
0.00215542
0.00195353
0.0017679
0.00160506
0.00145215
0.00130642
0.00116492
0.00102565
0.000887466
0.00074983
0.000612664
0.000476165
0.000340641
0.000206308
7.30644e-05
-5.98057e-05
-0.000193975
-0.000332488
-0.00048024
-0.000644526
-0.000835647
-0.00106755
-0.00135849
-0.00173161
-0.00221541
-0.00284396
-0.00365668
-0.00469761
-0.00601402
-0.00765423
-0.00966468
-0.0120864
-0.0149512
-0.0182785
-0.0220665
-0.0262932
-0.0309371
-0.0359365
-0.0412177
-0.046693
-0.052265
-0.0578303
-0.0632838
-0.0685227
-0.0734498
-0.0779756
-0.0820207
-0.0855162
-0.0884042
-0.0906372
-0.0921772
-0.0929943
-0.0930647
-0.0923686
-0.0908882
-0.0886054
-0.0854999
-0.0815485
-0.0767239
-0.0709963
-0.0643374
-0.0567286
-0.0481748
-0.0387273
-0.0285147
-0.0177857
-0.00694905
0.00342272
0.0125502
0.0197461
0.0244681
0.0265163
0.0262405
0.024269
0.0215447
0.00227604
0.00205357
0.00185214
0.00167885
0.00151863
0.00136796
0.0012233
0.00108229
0.000943548
0.000806489
0.000671032
0.000537425
0.000406042
0.000277156
0.000150681
2.58457e-05
-9.91838e-05
-0.000227751
-0.000365222
-0.000519567
-0.000701989
-0.000927591
-0.00121603
-0.00159212
-0.00208622
-0.00273439
-0.00357809
-0.00466326
-0.00603879
-0.00775415
-0.00985629
-0.0123859
-0.0153738
-0.0188386
-0.0227736
-0.0271484
-0.0319497
-0.0371067
-0.042542
-0.0481655
-0.0538777
-0.0595737
-0.0651478
-0.070497
-0.0755246
-0.0801421
-0.0842714
-0.0878455
-0.0908084
-0.093115
-0.0947297
-0.095625
-0.0957796
-0.0951762
-0.0937992
-0.0916326
-0.0886579
-0.0848524
-0.0801886
-0.0746344
-0.0681562
-0.0607257
-0.0523321
-0.0430033
-0.0328364
-0.0220429
-0.010996
-0.000241266
0.00939891
0.0171947
0.0225127
0.0250244
0.0250017
0.0230643
0.0202347
0.00239074
0.00214668
0.00192886
0.00174492
0.00157737
0.00142187
0.00127421
0.00113166
0.000992653
0.000856535
0.000723252
0.000593122
0.000466605
0.000344047
0.000225386
0.000109797
-4.72093e-06
-0.000121825
-0.000247373
-0.000390034
-0.000561945
-0.000779387
-0.00106345
-0.00144059
-0.00194301
-0.00260874
-0.00348114
-0.00460796
-0.00603954
-0.00782629
-0.0100155
-0.0126473
-0.0157515
-0.0193468
-0.0234207
-0.0279287
-0.0328772
-0.0381807
-0.0437575
-0.0495164
-0.0553558
-0.0611698
-0.0668522
-0.0722999
-0.0774166
-0.0821149
-0.086318
-0.0899605
-0.0929884
-0.0953586
-0.0970379
-0.098001
-0.098229
-0.0977068
-0.0964215
-0.094359
-0.0915027
-0.0878313
-0.0833179
-0.0779293
-0.0716285
-0.0643797
-0.0561592
-0.0469744
-0.0368931
-0.0260892
-0.0148961
-0.00381878
0.00627547
0.0146361
0.0205492
0.0235464
0.0238053
0.0219217
0.0189948
0.0024979
0.00223118
0.00199636
0.00180159
0.00162672
0.00146652
0.00131609
0.00117228
0.00103338
0.000898663
0.000768136
0.000642206
0.000521438
0.000406265
0.00029666
0.000191743
8.93399e-05
-1.4537e-05
-0.00012626
-0.000255221
-0.000414519
-0.000621633
-0.000899087
-0.00127499
-0.00178337
-0.00246411
-0.00336244
-0.00452775
-0.00601165
-0.00786533
-0.0101362
-0.0128637
-0.0160766
-0.0197956
-0.0239991
-0.0286248
-0.0337101
-0.0391491
-0.0448548
-0.0507362
-0.0566903
-0.0626103
-0.0683893
-0.0739243
-0.0791196
-0.0838887
-0.088156
-0.0918577
-0.0949416
-0.0973665
-0.0991012
-0.100123
-0.100414
-0.0999623
-0.098757
-0.0967864
-0.0940358
-0.0904859
-0.0861106
-0.0808771
-0.0747463
-0.0676773