/*--------------------------------*- C++ -*----------------------------------*\
  =========                 |
  \\      /  F ield         | OpenFOAM: The Open Source CFD Toolbox
   \\    /   O peration     | Website:  https://openfoam.org
    \\  /    A nd           | Version:  12
     \\/     M anipulation  |
\*---------------------------------------------------------------------------*/
FoamFile
{
    format      ascii;
    class       volVectorField;
    location    "1.5";
    object      U;
}
// * * * * * * * * * * * * * * * * * * * * * * * * * * * * * * * * * * * * * //

dimensions      [0 1 -1 0 0 0 0];

internalField   nonuniform List<vector> 
5625
(
(-5.30395e-06 2.00945e-06 0)
(1.42681e-05 -3.40214e-06 0)
(7.34825e-05 -6.76245e-06 0)
(0.000156311 -8.32976e-06 0)
(0.000249706 -8.82985e-06 0)
(0.000344914 -8.66145e-06 0)
(0.000436171 -8.11089e-06 0)
(0.00051997 -7.36128e-06 0)
(0.00059436 -6.52934e-06 0)
(0.000658417 -5.68643e-06 0)
(0.000711854 -4.87091e-06 0)
(0.000754721 -4.09982e-06 0)
(0.000787195 -3.37561e-06 0)
(0.000809416 -2.68762e-06 0)
(0.000821396 -2.02417e-06 0)
(0.000822944 -1.36802e-06 0)
(0.000813573 -6.94374e-07 0)
(0.00079252 2.06127e-08 0)
(0.000758696 7.99502e-07 0)
(0.000710658 1.66934e-06 0)
(0.000646575 2.66017e-06 0)
(0.000564207 3.80488e-06 0)
(0.000460852 5.1398e-06 0)
(0.000333312 6.70653e-06 0)
(0.000177834 8.54847e-06 0)
(-9.93097e-06 1.07172e-05 0)
(-0.000234965 1.32656e-05 0)
(-0.000502932 1.62608e-05 0)
(-0.000820181 1.97684e-05 0)
(-0.00119371 2.38523e-05 0)
(-0.00163115 2.85806e-05 0)
(-0.00214069 3.40187e-05 0)
(-0.00273093 4.02255e-05 0)
(-0.00341068 4.72501e-05 0)
(-0.00418875 5.51257e-05 0)
(-0.00507362 6.38637e-05 0)
(-0.00607299 7.34462e-05 0)
(-0.00719338 8.38176e-05 0)
(-0.00843953 9.4876e-05 0)
(-0.00981382 0.000106465 0)
(-0.0113155 0.000118363 0)
(-0.0129403 0.000130279 0)
(-0.0146792 0.000141847 0)
(-0.0165183 0.000152618 0)
(-0.0184378 0.000162068 0)
(-0.020412 0.000169596 0)
(-0.0224083 0.000174539 0)
(-0.0243877 0.000176184 0)
(-0.0263045 0.000173792 0)
(-0.0281069 0.000166645 0)
(-0.0297376 0.000154142 0)
(-0.0311317 0.000134751 0)
(-0.0322306 0.000109688 0)
(-0.0329627 7.84264e-05 0)
(-0.0332836 3.92121e-05 0)
(-0.0331318 -4.28323e-06 0)
(-0.032461 -5.23081e-05 0)
(-0.0312549 -0.000103403 0)
(-0.0295113 -0.000154577 0)
(-0.0272569 -0.000202855 0)
(-0.0245488 -0.000244836 0)
(-0.0214755 -0.000277092 0)
(-0.0181552 -0.00029659 0)
(-0.0147289 -0.000301174 0)
(-0.0113511 -0.000290001 0)
(-0.00817657 -0.000263815 0)
(-0.00534599 -0.000224955 0)
(-0.00297243 -0.000177048 0)
(-0.00113116 -0.000124419 0)
(0.000146471 -7.16903e-05 0)
(0.000871322 -2.24567e-05 0)
(0.00109644 1.92936e-05 0)
(0.000916254 5.07068e-05 0)
(0.000496691 6.21888e-05 0)
(9.01393e-05 4.16071e-05 0)
(-2.00412e-06 -4.40465e-06 0)
(6.90014e-05 -4.24845e-05 0)
(0.000228627 -7.2758e-05 0)
(0.000444601 -8.93529e-05 0)
(0.000687158 -9.55042e-05 0)
(0.000934745 -9.4405e-05 0)
(0.00117227 -8.86328e-05 0)
(0.00138999 -8.00654e-05 0)
(0.0015821 -6.99992e-05 0)
(0.00174551 -5.92777e-05 0)
(0.00187883 -4.83961e-05 0)
(0.00198165 -3.75937e-05 0)
(0.00205389 -2.69217e-05 0)
(0.00209544 -1.62881e-05 0)
(0.00210579 -5.52037e-06 0)
(0.00208392 5.59254e-06 0)
(0.00202791 1.73942e-05 0)
(0.00193509 3.0181e-05 0)
(0.00180182 4.42991e-05 0)
(0.00162345 6.01319e-05 0)
(0.00139417 7.80921e-05 0)
(0.001107 9.86368e-05 0)
(0.000753594 0.000122255 0)
(0.000324217 0.000149462 0)
(-0.000192407 0.000180855 0)
(-0.000809282 0.000217088 0)
(-0.00154121 0.000258836 0)
(-0.00240465 0.000306761 0)
(-0.00341781 0.000361546 0)
(-0.00460068 0.000423848 0)
(-0.00597466 0.000494252 0)
(-0.00756231 0.00057323 0)
(-0.0093869 0.000661083 0)
(-0.0114717 0.000757887 0)
(-0.0138393 0.000863418 0)
(-0.0165104 0.000977078 0)
(-0.0195028 0.00109782 0)
(-0.0228298 0.00122407 0)
(-0.0264988 0.00135365 0)
(-0.0305096 0.00148373 0)
(-0.0348525 0.00161079 0)
(-0.0395066 0.00173062 0)
(-0.0444382 0.00183829 0)
(-0.0495993 0.00192828 0)
(-0.0549265 0.00199452 0)
(-0.06034 0.00203054 0)
(-0.0657438 0.00202968 0)
(-0.0710257 0.0019853 0)
(-0.0760582 0.00189108 0)
(-0.0807014 0.00174137 0)
(-0.0848044 0.00153134 0)
(-0.0882041 0.00125636 0)
(-0.0907636 0.000914415 0)
(-0.0922716 0.000516773 0)
(-0.0926722 7.17512e-05 0)
(-0.0918077 -0.000433393 0)
(-0.0895899 -0.000965578 0)
(-0.085991 -0.00150808 0)
(-0.0810288 -0.00203638 0)
(-0.0747889 -0.00252178 0)
(-0.0674278 -0.00293342 0)
(-0.0591754 -0.00324106 0)
(-0.0503281 -0.00341859 0)
(-0.0412352 -0.00344779 0)
(-0.0322763 -0.00332174 0)
(-0.0238323 -0.00304715 0)
(-0.0162528 -0.00264464 0)
(-0.009824 -0.00214684 0)
(-0.00474364 -0.00159432 0)
(-0.00110294 -0.00103097 0)
(0.00111381 -0.000500519 0)
(0.00203371 -4.36547e-05 0)
(0.00189489 0.000290858 0)
(0.00109746 0.000428543 0)
(0.000198413 0.000270872 0)
(5.77767e-06 -2.75223e-05 0)
(0.000132413 -0.00011887 0)
(0.000378343 -0.000191013 0)
(0.000701507 -0.000232142 0)
(0.00106154 -0.000247848 0)
(0.00142809 -0.000245069 0)
(0.00177891 -0.000229882 0)
(0.00209908 -0.000206953 0)
(0.00237928 -0.00017961 0)
(0.00261417 -0.000150075 0)
(0.00280096 -0.00011968 0)
(0.00293835 -8.90829e-05 0)
(0.00302557 -5.8434e-05 0)
(0.00306177 -2.7498e-05 0)
(0.00304551 4.17098e-06 0)
(0.00297442 3.72676e-05 0)
(0.00284486 7.2631e-05 0)
(0.00265188 0.000111131 0)
(0.00238895 0.000153761 0)
(0.00204788 0.000201617 0)
(0.00161864 0.000255857 0)
(0.00108928 0.000317696 0)
(0.000445702 0.00038855 0)
(-0.000328564 0.000469945 0)
(-0.00125251 0.000563519 0)
(-0.00234756 0.00067096 0)
(-0.00363782 0.000794025 0)
(-0.00515016 0.000934505 0)
(-0.00691402 0.00109415 0)
(-0.0089612 0.00127456 0)
(-0.0113254 0.00147708 0)
(-0.0140417 0.00170267 0)
(-0.0171453 0.00195174 0)
(-0.0206711 0.00222398 0)
(-0.0246515 0.00251816 0)
(-0.029115 0.00283197 0)
(-0.0340842 0.00316176 0)
(-0.0395733 0.00350242 0)
(-0.0455859 0.00384716 0)
(-0.0521121 0.0041875 0)
(-0.0591259 0.00451313 0)
(-0.0665833 0.00481205 0)
(-0.0744192 0.00507064 0)
(-0.0825467 0.00527393 0)
(-0.0908552 0.00540596 0)
(-0.0992107 0.00545021 0)
(-0.107456 0.00539017 0)
(-0.115413 0.00520998 0)
(-0.122883 0.00489528 0)
(-0.129654 0.00443397 0)
(-0.135504 0.00381708 0)
(-0.1402 0.00303855 0)
(-0.143554 0.00208779 0)
(-0.145261 0.00102562 0)
(-0.145286 -0.000188497 0)
(-0.143381 -0.00150414 0)
(-0.139484 -0.00288328 0)
(-0.133565 -0.00427219 0)
(-0.125676 -0.00561022 0)
(-0.11596 -0.00682773 0)
(-0.104655 -0.00785099 0)
(-0.0920964 -0.00860847 0)
(-0.0787083 -0.00903873 0)
(-0.0649851 -0.0090989 0)
(-0.051463 -0.00877247 0)
(-0.0386817 -0.00807475 0)
(-0.0271415 -0.00705417 0)
(-0.01726 -0.00578851 0)
(-0.00933429 -0.00437663 0)
(-0.00351455 -0.0029278 0)
(0.000206332 -0.00155519 0)
(0.00200001 -0.000366354 0)
(0.00220264 0.00051333 0)
(0.00137226 0.000917038 0)
(0.000253132 0.000622222 0)
(1.37185e-05 -6.82271e-05 0)
(0.000192861 -0.00023066 0)
(0.000512195 -0.000355454 0)
(0.000921135 -0.000427567 0)
(0.00137189 -0.000455087 0)
(0.00182818 -0.000449259 0)
(0.00226255 -0.000420441 0)
(0.00265603 -0.000376857 0)
(0.0029963 -0.000324522 0)
(0.0032759 -0.000267511 0)
(0.00349054 -0.000208303 0)
(0.00363775 -0.00014813 0)
(0.00371575 -8.72732e-05 0)
(0.00372255 -2.52991e-05 0)
(0.00365545 3.86796e-05 0)
(0.00351033 0.00010606 0)
(0.00328152 0.000178374 0)
(0.00296146 0.000257402 0)
(0.00254043 0.000345066 0)
(0.00200649 0.000443456 0)
(0.00134519 0.000554875 0)
(0.000539267 0.000681865 0)
(-0.000431364 0.000827113 0)
(-0.00158982 0.000993499 0)
(-0.00296247 0.0011841 0)
(-0.00457915 0.00140217 0)
(-0.00647313 0.00165102 0)
(-0.00868105 0.00193396 0)
(-0.0112427 0.00225411 0)
(-0.0142006 0.00261423 0)
(-0.0175992 0.00301649 0)
(-0.021484 0.00346218 0)
(-0.0258999 0.00395144 0)
(-0.0308898 0.00448285 0)
(-0.0364924 0.00505314 0)
(-0.0427395 0.00565676 0)
(-0.0496532 0.00628558 0)
(-0.057243 0.00692855 0)
(-0.0655023 0.00757149 0)
(-0.074405 0.00819702 0)
(-0.0839027 0.00878454 0)
(-0.0939216 0.00931049 0)
(-0.104361 0.00974873 0)
(-0.115091 0.0100712 0)
(-0.125953 0.0102485 0)
(-0.13676 0.0102512 0)
(-0.147299 0.0100506 0)
(-0.157335 0.00962016 0)
(-0.166613 0.00893689 0)
(-0.174866 0.00798285 0)
(-0.181822 0.00674671 0)
(-0.187207 0.00522473 0)
(-0.190785 0.00341573 0)
(-0.192287 0.00137484 0)
(-0.191562 -0.000880694 0)
(-0.188428 -0.00331128 0)
(-0.18282 -0.00583126 0)
(-0.17473 -0.00834774 0)
(-0.164246 -0.0107537 0)
(-0.151557 -0.0129286 0)
(-0.136962 -0.014746 0)
(-0.120871 -0.016084 0)
(-0.10379 -0.0168377 0)
(-0.0863102 -0.0169334 0)
(-0.0690704 -0.0163415 0)
(-0.0527195 -0.0150864 0)
(-0.0378661 -0.0132492 0)
(-0.0250285 -0.0109631 0)
(-0.0145877 -0.00840066 0)
(-0.00675112 -0.00575701 0)
(-0.00153334 -0.0032361 0)
(0.00125624 -0.00104121 0)
(0.00201423 0.000602885 0)
(0.00139794 0.00141726 0)
(0.000269762 0.00102999 0)
(2.04823e-05 -0.000124881 0)
(0.000245001 -0.000372249 0)
(0.000624674 -0.000556004 0)
(0.00110027 -0.000661986 0)
(0.00161815 -0.000701491 0)
(0.00213802 -0.000690403 0)
(0.00262879 -0.000643742 0)
(0.00306845 -0.000573719 0)
(0.00344229 -0.000489418 0)
(0.00374099 -0.000397069 0)
(0.00395876 -0.000300487 0)
(0.00409183 -0.000201569 0)
(0.00413712 -0.000100729 0)
(0.00409132 2.73718e-06 0)
(0.00395003 0.000110357 0)
(0.00370718 0.000224323 0)
(0.00335474 0.000347154 0)
(0.00288226 0.000481724 0)
(0.00227666 0.000631261 0)
(0.00152182 0.000799274 0)
(0.000598647 0.000989498 0)
(-0.000515329 0.00120598 0)
(-0.00184614 0.00145308 0)
(-0.00342368 0.00173549 0)
(-0.00528175 0.00205816 0)
(-0.00745827 0.00242623 0)
(-0.0099952 0.00284488 0)
(-0.0129383 0.00331917 0)
(-0.0163369 0.00385376 0)
(-0.0202429 0.0044526 0)
(-0.0247098 0.00511849 0)
(-0.0297914 0.00585266 0)
(-0.0355396 0.00665427 0)
(-0.0420022 0.00751979 0)
(-0.0492201 0.00844247 0)
(-0.057224 0.00941178 0)
(-0.0660304 0.0104129 0)
(-0.0756383 0.0114262 0)
(-0.086025 0.0124273 0)
(-0.0971426 0.0133868 0)
(-0.108914 0.0142705 0)
(-0.121233 0.0150401 0)
(-0.133957 0.0156541 0)
(-0.146914 0.0160687 0)
(-0.159898 0.0162394 0)
(-0.172675 0.0161225 0)
(-0.184983 0.0156769 0)
(-0.196541 0.0148662 0)
(-0.207054 0.0136604 0)
(-0.21622 0.0120386 0)
(-0.223739 0.00999028 0)
(-0.22932 0.00751796 0)
(-0.232711 0.00463553 0)
(-0.233661 0.00141012 0)
(-0.231992 -0.0021158 0)
(-0.227562 -0.00587013 0)
(-0.220319 -0.00972977 0)
(-0.210283 -0.0135579 0)
(-0.19757 -0.0171966 0)
(-0.182406 -0.0204707 0)
(-0.165127 -0.0231971 0)
(-0.146183 -0.0251993 0)
(-0.126131 -0.0263249 0)
(-0.105618 -0.026465 0)
(-0.0853473 -0.0255733 0)
(-0.0660416 -0.0236806 0)
(-0.0483894 -0.0209009 0)
(-0.032989 -0.0174266 0)
(-0.0202951 -0.013512 0)
(-0.0105734 -0.00945054 0)
(-0.00387111 -0.00555357 0)
(4.12718e-07 -0.00213831 0)
(0.00146782 0.00045386 0)
(0.00124519 0.00181834 0)
(0.000262979 0.00142406 0)
(2.58409e-05 -0.000194653 0)
(0.000286905 -0.000537916 0)
(0.000713457 -0.000784235 0)
(0.00123779 -0.000924527 0)
(0.00180128 -0.000974481 0)
(0.00236083 -0.000955006 0)
(0.0028829 -0.000886007 0)
(0.00334337 -0.000783893 0)
(0.00372573 -0.000661022 0)
(0.00401909 -0.000525936 0)
(0.00421623 -0.000383859 0)
(0.00431206 -0.000237409 0)
(0.00430211 -8.70878e-05 0)
(0.00418139 6.82162e-05 0)
(0.00394362 0.000230764 0)
(0.00358058 0.000403719 0)
(0.00308156 0.000590883 0)
(0.00243293 0.00079655 0)
(0.00161794 0.00102544 0)
(0.000616453 0.00128265 0)
(-0.000595461 0.00157372 0)
(-0.00204567 0.00190461 0)
(-0.00376624 0.0022817 0)
(-0.00579369 0.00271179 0)
(-0.00816908 0.00320198 0)
(-0.0109381 0.00375959 0)
(-0.0141508 0.00439189 0)
(-0.0178614 0.00510582 0)
(-0.0221276 0.00590756 0)
(-0.0270093 0.00680204 0)
(-0.0325674 0.00779233 0)
(-0.0388614 0.00887894 0)
(-0.0459476 0.010059 0)
(-0.0538752 0.0113257 0)
(-0.0626834 0.0126669 0)
(-0.0723969 0.0140651 0)
(-0.0830219 0.0154964 0)
(-0.0945415 0.01693 0)
(-0.106912 0.0183282 0)
(-0.120057 0.0196467 0)
(-0.13387 0.020835 0)
(-0.148204 0.0218377 0)
(-0.162879 0.0225956 0)
(-0.177679 0.0230484 0)
(-0.192356 0.0231357 0)
(-0.206635 0.0228005 0)
(-0.220217 0.0219909 0)
(-0.23279 0.020663 0)
(-0.244035 0.0187837 0)
(-0.253634 0.0163323 0)
(-0.261279 0.0133044 0)
(-0.266684 0.00971323 0)
(-0.2696 0.00559186 0)
(-0.269801 0.00102 0)
(-0.267115 -0.00392936 0)
(-0.261434 -0.00914703 0)
(-0.252725 -0.0144741 0)
(-0.24103 -0.0197288 0)
(-0.226484 -0.0247025 0)
(-0.209329 -0.0291649 0)
(-0.189917 -0.032876 0)
(-0.168714 -0.0356032 0)
(-0.146297 -0.0371437 0)
(-0.123339 -0.0373492 0)
(-0.100583 -0.0361519 0)
(-0.0788019 -0.0335842 0)
(-0.0587447 -0.0297897 0)
(-0.0410787 -0.0250191 0)
(-0.0263275 -0.0196123 0)
(-0.0148171 -0.0139689 0)
(-0.00663764 -0.00851948 0)
(-0.00161944 -0.00370836 0)
(0.000670411 -6.94835e-06 0)
(0.000971047 0.00204597 0)
(0.000242154 0.00176053 0)
(2.97989e-05 -0.000274426 0)
(0.000318046 -0.000721876 0)
(0.000777941 -0.00103245 0)
(0.00133388 -0.00120574 0)
(0.00192291 -0.00126323 0)
(0.00249998 -0.00123137 0)
(0.00303 -0.00113513 0)
(0.00348749 -0.00099521 0)
(0.00385467 -0.000827322 0)
(0.0041194 -0.000642336 0)
(0.00427328 -0.000446988 0)
(0.00430982 -0.000244509 0)
(0.00422298 -3.53796e-05 0)
(0.00400605 0.000181991 0)
(0.0036507 0.000410779 0)
(0.0031462 0.000655378 0)
(0.002479 0.000921011 0)
(0.00163225 0.00121357 0)
(0.000585396 0.00153957 0)
(-0.000686053 0.00190606 0)
(-0.00221087 0.00232064 0)
(-0.00402233 0.00279146 0)
(-0.0061585 0.0033272 0)
(-0.00866236 0.00393704 0)
(-0.0115819 0.00463051 0)
(-0.0149702 0.00541727 0)
(-0.0188848 0.00630678 0)
(-0.0233875 0.00730784 0)
(-0.028543 0.008428 0)
(-0.0344178 0.0096728 0)
(-0.0410779 0.0110449 0)
(-0.0485865 0.0125432 0)
(-0.0570009 0.0141617 0)
(-0.0663683 0.0158883 0)
(-0.0767219 0.0177039 0)
(-0.0880763 0.0195817 0)
(-0.100422 0.0214859 0)
(-0.113722 0.0233719 0)
(-0.127907 0.0251861 0)
(-0.142869 0.0268666 0)
(-0.158466 0.0283444 0)
(-0.174515 0.0295454 0)
(-0.190796 0.0303924 0)
(-0.207054 0.030808 0)
(-0.223006 0.0307178 0)
(-0.238344 0.0300533 0)
(-0.252749 0.0287551 0)
(-0.26589 0.0267758 0)
(-0.277442 0.0240831 0)
(-0.287089 0.0206618 0)
(-0.294535 0.0165174 0)
(-0.299511 0.0116778 0)
(-0.301788 0.00619676 0)
(-0.301168 0.0001696 0)
(-0.297503 -0.006299 0)
(-0.290712 -0.0130645 0)
(-0.280776 -0.0199336 0)
(-0.267749 -0.0266819 0)
(-0.251774 -0.0330526 0)
(-0.23309 -0.0387625 0)
(-0.212042 -0.0435155 0)
(-0.189092 -0.0470224 0)
(-0.164813 -0.0490268 0)
(-0.139885 -0.0493366 0)
(-0.11507 -0.0478556 0)
(-0.0911764 -0.044611 0)
(-0.0690048 -0.03977 0)
(-0.0492857 -0.0336386 0)
(-0.0326115 -0.0266424 0)
(-0.0193732 -0.0192924 0)
(-0.00971305 -0.0121476 0)
(-0.00349473 -0.00578978 0)
(-0.00029719 -0.000830322 0)
(0.000618754 0.00205114 0)
(0.000213945 0.00201349 0)
(3.25347e-05 -0.000361306 0)
(0.000338778 -0.000918364 0)
(0.000818612 -0.00129313 0)
(0.00138961 -0.00149665 0)
(0.00198522 -0.00155762 0)
(0.00255901 -0.00150859 0)
(0.00307505 -0.00137977 0)
(0.00350714 -0.00119622 0)
(0.00383673 -0.00097696 0)
(0.00405079 -0.000735202 0)
(0.00413981 -0.000479024 0)
(0.00409598 -0.000212221 0)
(0.00391171 6.4832e-05 0)
(0.00357842 0.000354393 0)
(0.00308552 0.000660725 0)
(0.00241975 0.0009896 0)
(0.00156454 0.0013479 0)
(0.000499578 0.00174339 0)
(-0.000799582 0.00218461 0)
(-0.00236184 0.0026808 0)
(-0.00422084 0.00324187 0)
(-0.00641524 0.00387844 0)
(-0.00898895 0.00460173 0)
(-0.0119912 0.00542352 0)
(-0.0154766 0.00635592 0)
(-0.0195049 0.00741104 0)
(-0.0241405 0.00860053 0)
(-0.0294515 0.00993489 0)
(-0.0355086 0.0114227 0)
(-0.0423828 0.0130694 0)
(-0.0501433 0.0148767 0)
(-0.0588542 0.0168404 0)
(-0.0685706 0.0189498 0)
(-0.0793341 0.021186 0)
(-0.0911681 0.0235206 0)
(-0.104072 0.0259149 0)
(-0.118018 0.028319 0)
(-0.132944 0.0306716 0)
(-0.148749 0.0329008 0)
(-0.165296 0.0349254 0)
(-0.182404 0.0366565 0)
(-0.199855 0.0380006 0)
(-0.217393 0.0388629 0)
(-0.234731 0.039151 0)
(-0.25156 0.0387787 0)
(-0.267555 0.0376697 0)
(-0.282383 0.0357613 0)
(-0.295715 0.0330075 0)
(-0.307235 0.0293813 0)
(-0.316644 0.0248774 0)
(-0.323671 0.0195146 0)
(-0.328075 0.0133379 0)
(-0.329656 0.00642149 0)
(-0.328248 -0.00112147 0)
(-0.323729 -0.00915736 0)
(-0.316034 -0.0175104 0)
(-0.305155 -0.0259559 0)
(-0.291146 -0.0342313 0)
(-0.274139 -0.0420355 0)
(-0.254355 -0.0490362 0)
(-0.232116 -0.0548824 0)
(-0.207858 -0.0592273 0)
(-0.182135 -0.0617579 0)
(-0.155617 -0.0622318 0)
(-0.129073 -0.0605165 0)
(-0.103338 -0.0566251 0)
(-0.0792587 -0.05074 0)
(-0.057629 -0.0432171 0)
(-0.0391132 -0.0345665 0)
(-0.0241743 -0.0254137 0)
(-0.0130165 -0.0164533 0)
(-0.00554893 -0.00841339 0)
(-0.00137682 -0.00205332 0)
(0.000219397 0.00180067 0)
(0.000182895 0.00216752 0)
(3.42098e-05 -0.000452506 0)
(0.000349716 -0.00112171 0)
(0.000836468 -0.00155891 0)
(0.00140657 -0.0017886 0)
(0.00199066 -0.001848 0)
(0.00254149 -0.00177631 0)
(0.00302285 -0.00160919 0)
(0.00340836 -0.00137604 0)
(0.00367915 -0.00109912 0)
(0.0038216 -0.000793856 0)
(0.00382527 -0.000469555 0)
(0.00368114 -0.000130425 0)
(0.00338004 0.000223435 0)
(0.00291144 0.000595119 0)
(0.00226245 0.000990153 0)
(0.00141708 0.0014159 0)
(0.00035565 0.00188112 0)
(-0.00094569 0.00239565 0)
(-0.00251537 0.0029703 0)
(-0.00438669 0.00361671 0)
(-0.00659817 0.00434737 0)
(-0.00919372 0.00517554 0)
(-0.0122229 0.0061152 0)
(-0.0157408 0.00718089 0)
(-0.0198082 0.00838738 0)
(-0.0244909 0.00974922 0)
(-0.0298592 0.0112801 0)
(-0.0359863 0.0129919 0)
(-0.0429473 0.0148936 0)
(-0.0508159 0.0169901 0)
(-0.0596622 0.0192806 0)
(-0.0695482 0.0217568 0)
(-0.0805236 0.0244015 0)
(-0.0926209 0.0271868 0)
(-0.10585 0.0300727 0)
(-0.120192 0.0330063 0)
(-0.135594 0.0359209 0)
(-0.151968 0.0387364 0)
(-0.169181 0.041361 0)
(-0.187063 0.0436925 0)
(-0.205397 0.0456219 0)
(-0.223932 0.0470372 0)
(-0.242385 0.0478278 0)
(-0.260444 0.047889 0)
(-0.277785 0.0471267 0)
(-0.294077 0.0454616 0)
(-0.30899 0.0428326 0)
(-0.322211 0.0391995 0)
(-0.333445 0.0345453 0)
(-0.342422 0.0288779 0)
(-0.348904 0.0222316 0)
(-0.352687 0.0146691 0)
(-0.353603 0.00628398 0)
(-0.351515 -0.00279363 0)
(-0.346322 -0.0124058 0)
(-0.337972 -0.0223509 0)
(-0.326455 -0.0323777 0)
(-0.311812 -0.042191 0)
(-0.294152 -0.0514508 0)
(-0.273662 -0.0597786 0)
(-0.250626 -0.0667708 0)
(-0.225439 -0.0720218 0)
(-0.198623 -0.0751578 0)
(-0.170824 -0.0758785 0)
(-0.142811 -0.0740055 0)
(-0.115437 -0.0695266 0)
(-0.0895944 -0.0626296 0)
(-0.0661429 -0.0537127 0)
(-0.0458249 -0.0433676 0)
(-0.0291842 -0.0323362 0)
(-0.0164975 -0.0214547 0)
(-0.00773148 -0.0116061 0)
(-0.00252921 -0.00370458 0)
(-0.000205806 0.00127288 0)
(0.000151791 0.00221398 0)
(3.50121e-05 -0.000545547 0)
(0.000351669 -0.00132652 0)
(0.000832807 -0.00182265 0)
(0.00138662 -0.00207326 0)
(0.00194185 -0.00212513 0)
(0.00245096 -0.00202469 0)
(0.00287798 -0.0018132 0)
(0.00319685 -0.00152436 0)
(0.00338876 -0.00118356 0)
(0.00343978 -0.000808237 0)
(0.00333877 -0.000408769 0)
(0.00307557 1.04239e-05 0)
(0.00263944 0.000449714 0)
(0.00201787 0.000913221 0)
(0.00119561 0.00140794 0)
(0.000153878 0.00194302 0)
(-0.0011302 0.00252931 0)
(-0.00268407 0.00317892 0)
(-0.00454015 0.00390514 0)
(-0.00673614 0.00472223 0)
(-0.00931528 0.00564542 0)
(-0.0123266 0.00669082 0)
(-0.0158249 0.00787531 0)
(-0.019871 0.00921622 0)
(-0.0245309 0.010731 0)
(-0.0298758 0.0124365 0)
(-0.0359807 0.0143483 0)
(-0.0429229 0.016479 0)
(-0.0507799 0.0188375 0)
(-0.0596262 0.0214269 0)
(-0.06953 0.0242427 0)
(-0.0805487 0.027271 0)
(-0.0927234 0.030486 0)
(-0.106074 0.0338488 0)
(-0.120593 0.0373055 0)
(-0.136239 0.0407865 0)
(-0.152935 0.0442061 0)
(-0.170561 0.047464 0)
(-0.188954 0.0504467 0)
(-0.207908 0.0530312 0)
(-0.22718 0.0550891 0)
(-0.246488 0.0564918 0)
(-0.265527 0.0571157 0)
(-0.283975 0.0568481 0)
(-0.301502 0.0555917 0)
(-0.317784 0.0532692 0)
(-0.33251 0.0498259 0)
(-0.345389 0.0452321 0)
(-0.35616 0.0394844 0)
(-0.364592 0.0326056 0)
(-0.370484 0.0246466 0)
(-0.373669 0.0156866 0)
(-0.374011 0.0058358 0)
(-0.371398 -0.00476116 0)
(-0.365746 -0.0159279 0)
(-0.357003 -0.0274436 0)
(-0.345149 -0.0390361 0)
(-0.330204 -0.0503837 0)
(-0.31224 -0.061113 0)
(-0.291401 -0.0708034 0)
(-0.267918 -0.079 0)
(-0.242136 -0.0852373 0)
(-0.214528 -0.0890756 0)
(-0.185712 -0.0901488 0)
(-0.156442 -0.088221 0)
(-0.127588 -0.083242 0)
(-0.100086 -0.0753925 0)
(-0.0748653 -0.0651036 0)
(-0.052754 -0.0530439 0)
(-0.0343879 -0.0400728 0)
(-0.0201285 -0.0271739 0)
(-0.0100121 -0.0153931 0)
(-0.00373019 -0.00580713 0)
(-0.000643634 0.000453138 0)
(0.000122082 0.00214909 0)
(3.50751e-05 -0.000638136 0)
(0.000345383 -0.00152769 0)
(0.000808957 -0.00207751 0)
(0.00133167 -0.00234261 0)
(0.00184137 -0.0023802 0)
(0.00229082 -0.00224437 0)
(0.00264481 -0.00198212 0)
(0.002878 -0.00163141 0)
(0.00297202 -0.00122057 0)
(0.00291291 -0.000768838 0)
(0.00268902 -0.000287421 0)
(0.00228914 0.000219273 0)
(0.00170103 0.000752312 0)
(0.000910194 0.00131706 0)
(-0.000101037 0.00192218 0)
(-0.00135426 0.00257884 0)
(-0.00287558 0.00330012 0)
(-0.00469604 0.00410066 0)
(-0.006852 0.00499636 0)
(-0.00938546 0.00600431 0)
(-0.0123442 0.00714262 0)
(-0.0157822 0.00843039 0)
(-0.0197591 0.00988742 0)
(-0.0243406 0.0115339 0)
(-0.0295976 0.0133898 0)
(-0.0356057 0.0154742 0)
(-0.0424435 0.0178037 0)
(-0.0501905 0.0203915 0)
(-0.0589251 0.0232453 0)
(-0.0687203 0.0263652 0)
(-0.0796401 0.0297418 0)
(-0.091734 0.0333533 0)
(-0.105032 0.0371639 0)
(-0.119537 0.041121 0)
(-0.135223 0.0451547 0)
(-0.152023 0.0491767 0)
(-0.169832 0.0530806 0)
(-0.1885 0.0567443 0)
(-0.207834 0.0600329 0)
(-0.227597 0.062803 0)
(-0.247518 0.0649088 0)
(-0.267299 0.0662079 0)
(-0.286621 0.0665681 0)
(-0.305159 0.0658732 0)
(-0.322592 0.064028 0)
(-0.338613 0.0609621 0)
(-0.352938 0.0566321 0)
(-0.365312 0.0510223 0)
(-0.375513 0.0441447 0)
(-0.383351 0.0360386 0)
(-0.388666 0.0267698 0)
(-0.391324 0.0164321 0)
(-0.391219 0.00514879 0)
(-0.388257 -0.00692558 0)
(-0.382365 -0.0196024 0)
(-0.373485 -0.0326485 0)
(-0.361579 -0.045777 0)
(-0.346636 -0.058646 0)
(-0.328686 -0.0708543 0)
(-0.307817 -0.0819435 0)
(-0.284201 -0.0914091 0)
(-0.258122 -0.0987246 0)
(-0.229997 -0.103379 0)
(-0.200398 -0.104933 0)
(-0.170061 -0.103078 0)
(-0.139865 -0.0977135 0)
(-0.110787 -0.088997 0)
(-0.0838284 -0.077381 0)
(-0.0599143 -0.0636046 0)
(-0.0397842 -0.0486442 0)
(-0.0238985 -0.0336368 0)
(-0.0123758 -0.0197998 0)
(-0.00496721 -0.008381 0)
(-0.00108705 -0.000669135 0)
(9.44306e-05 0.00197152 0)
(3.45285e-05 -0.000728239 0)
(0.000331584 -0.00172043 0)
(0.000766225 -0.00231692 0)
(0.0012436 -0.00258895 0)
(0.00169176 -0.00260473 0)
(0.00206435 -0.0024264 0)
(0.00232745 -0.00210677 0)
(0.00245688 -0.00168794 0)
(0.00243502 -0.00120099 0)
(0.00224818 -0.000666713 0)
(0.00188435 -9.68543e-05 0)
(0.00133141 0.000504451 0)
(0.000575642 0.00113922 0)
(-0.000399382 0.00181428 0)
(-0.00161376 0.00254019 0)
(-0.00309191 0.00333033 0)
(-0.00486315 0.00420022 0)
(-0.00696207 0.00516717 0)
(-0.00942891 0.00624988 0)
(-0.0123098 0.00746838 0)
(-0.0156568 0.00884381 0)
(-0.0195284 0.0103983 0)
(-0.0239887 0.0121545 0)
(-0.0291078 0.0141356 0)
(-0.0349606 0.0163637 0)
(-0.0416259 0.0188595 0)
(-0.0491845 0.0216407 0)
(-0.0577168 0.0247198 0)
(-0.0673 0.0281024 0)
(-0.0780035 0.0317844 0)
(-0.0898843 0.0357495 0)
(-0.102982 0.0399667 0)
(-0.117311 0.0443874 0)
(-0.132857 0.0489438 0)
(-0.14957 0.0535477 0)
(-0.167359 0.0580902 0)
(-0.186088 0.0624433 0)
(-0.205579 0.0664627 0)
(-0.225609 0.0699926 0)
(-0.245918 0.0728709 0)
(-0.266215 0.0749374 0)
(-0.286188 0.0760399 0)
(-0.305518 0.0760422 0)
(-0.323886 0.07483 0)
(-0.34099 0.0723151 0)
(-0.356551 0.068439 0)
(-0.370321 0.0631728 0)
(-0.382084 0.0565176 0)
(-0.391661 0.048502 0)
(-0.398903 0.0391807 0)
(-0.40369 0.0286328 0)
(-0.405919 0.0169628 0)
(-0.405505 0.00430285 0)
(-0.402372 -0.00918717 0)
(-0.396447 -0.0233131 0)
(-0.387663 -0.0378359 0)
(-0.375959 -0.0524605 0)
(-0.361288 -0.066831 0)
(-0.343632 -0.0805244 0)
(-0.32302 -0.0930488 0)
(-0.299558 -0.103852 0)
(-0.273459 -0.112347 0)
(-0.245072 -0.117947 0)
(-0.214918 -0.120127 0)
(-0.183699 -0.118499 0)
(-0.152294 -0.112889 0)
(-0.12172 -0.103417 0)
(-0.0930526 -0.0905424 0)
(-0.0673199 -0.0750646 0)
(-0.0453798 -0.0580761 0)
(-0.0278074 -0.0408723 0)
(-0.0148187 -0.0248523 0)
(-0.00623619 -0.011445 0)
(-0.00153366 -0.00210244 0)
(6.90385e-05 0.00168102 0)
(3.34541e-05 -0.000813981 0)
(0.000310865 -0.00190023 0)
(0.000705778 -0.00253463 0)
(0.00112416 -0.00280486 0)
(0.00149535 -0.00279059 0)
(0.00177459 -0.0025622 0)
(0.00192975 -0.00217836 0)
(0.00193823 -0.00168517 0)
(0.00178352 -0.00111619 0)
(0.0014524 -0.000493473 0)
(0.000932715 0.000170998 0)
(0.000211539 0.000873658 0)
(-0.00072622 0.00161774 0)
(-0.00189892 0.00241179 0)
(-0.00332904 0.00326847 0)
(-0.00504381 0.00420356 0)
(-0.00707566 0.00523523 0)
(-0.00946268 0.00638357 0)
(-0.0122488 0.00767024 0)
(-0.015484 0.0091183 0)
(-0.0192245 0.010752 0)
(-0.0235327 0.0125964 0)
(-0.0284768 0.0146772 0)
(-0.0341303 0.0170199 0)
(-0.0405712 0.0196489 0)
(-0.0478805 0.0225861 0)
(-0.0561397 0.0258492 0)
(-0.0654286 0.0294493 0)
(-0.0758209 0.0333886 0)
(-0.0873802 0.0376573 0)
(-0.100154 0.0422308 0)
(-0.11417 0.0470664 0)
(-0.129424 0.0521012 0)
(-0.145883 0.05725 0)
(-0.163471 0.0624045 0)
(-0.18207 0.0674343 0)
(-0.201518 0.072189 0)
(-0.221608 0.0765026 0)
(-0.242094 0.0801998 0)
(-0.262694 0.0831029 0)
(-0.283107 0.0850406 0)
(-0.303018 0.0858558 0)
(-0.322113 0.0854135 0)
(-0.340092 0.083606 0)
(-0.35668 0.0803574 0)
(-0.371631 0.0756244 0)
(-0.384737 0.0693958 0)
(-0.395828 0.0616903 0)
(-0.404765 0.052553 0)
(-0.41144 0.0420522 0)
(-0.415766 0.0302774 0)
(-0.417669 0.0173397 0)
(-0.417082 0.00337601 0)
(-0.413937 -0.0114538 0)
(-0.408161 -0.026956 0)
(-0.399674 -0.042892 0)
(-0.388388 -0.0589645 0)
(-0.374222 -0.07481 0)
(-0.357106 -0.0899896 0)
(-0.337009 -0.103983 0)
(-0.313964 -0.116195 0)
(-0.288107 -0.125975 0)
(-0.259712 -0.132659 0)
(-0.229232 -0.13563 0)
(-0.197325 -0.134401 0)
(-0.16486 -0.128713 0)
(-0.132882 -0.118625 0)
(-0.102542 -0.104585 0)
(-0.0749795 -0.0874402 0)
(-0.0511834 -0.0683961 0)
(-0.0318615 -0.0489115 0)
(-0.0173442 -0.0305779 0)
(-0.00753902 -0.0150184 0)
(-0.00198431 -0.00385521 0)
(4.57112e-05 0.00127761 0)
(3.19291e-05 -0.000893666 0)
(0.000283751 -0.00206285 0)
(0.000628662 -0.00272465 0)
(0.000974935 -0.00298324 0)
(0.00125431 -0.00292995 0)
(0.00142437 -0.00264357 0)
(0.00145529 -0.00218855 0)
(0.00132648 -0.00161478 0)
(0.00102289 -0.000958042 0)
(0.000532014 -0.000241281 0)
(-0.00015829 0.000523609 0)
(-0.00106162 0.00133395 0)
(-0.00219438 0.00219448 0)
(-0.00357677 0.00311572 0)
(-0.00523362 0.00411267 0)
(-0.00719485 0.00520367 0)
(-0.00949598 0.00640969 0)
(-0.0121784 0.00775376 0)
(-0.0152895 0.00926059 0)
(-0.018883 0.0109563 0)
(-0.0230187 0.0128682 0)
(-0.0277624 0.0150245 0)
(-0.0331857 0.0174534 0)
(-0.039365 0.0201828 0)
(-0.0463801 0.0232388 0)
(-0.0543129 0.0266438 0)
(-0.0632444 0.0304148 0)
(-0.0732517 0.0345605 0)
(-0.0844035 0.0390782 0)
(-0.0967551 0.0439511 0)
(-0.110343 0.0491441 0)
(-0.125178 0.0546013 0)
(-0.14124 0.0602435 0)
(-0.15847 0.0659663 0)
(-0.17677 0.0716402 0)
(-0.195996 0.0771124 0)
(-0.215957 0.0822105 0)
(-0.236424 0.0867481 0)
(-0.25713 0.0905328 0)
(-0.277782 0.0933746 0)
(-0.298074 0.0950958 0)
(-0.317695 0.0955391 0)
(-0.336348 0.0945758 0)
(-0.353758 0.0921099 0)
(-0.369682 0.0880814 0)
(-0.383915 0.0824652 0)
(-0.39629 0.0752692 0)
(-0.406678 0.0665297 0)
(-0.414983 0.056307 0)
(-0.421133 0.0446809 0)
(-0.42507 0.0317475 0)
(-0.426743 0.0176204 0)
(-0.426098 0.00243722 0)
(-0.423074 -0.013647 0)
(-0.417594 -0.0304441 0)
(-0.409566 -0.0477218 0)
(-0.398878 -0.0651862 0)
(-0.385411 -0.0824726 0)
(-0.369047 -0.0991321 0)
(-0.349694 -0.114622 0)
(-0.327312 -0.128308 0)
(-0.301951 -0.13948 0)
(-0.273801 -0.147394 0)
(-0.243237 -0.151332 0)
(-0.210857 -0.150696 0)
(-0.177503 -0.145121 0)
(-0.144238 -0.134585 0)
(-0.112284 -0.119498 0)
(-0.0828938 -0.100744 0)
(-0.0572031 -0.0796312 0)
(-0.0360706 -0.0577862 0)
(-0.0199604 -0.0370052 0)
(-0.00888129 -0.019121 0)
(-0.0024421 -0.00593692 0)
(2.40791e-05 0.000760661 0)
(2.99958e-05 -0.000965705 0)
(0.000250642 -0.00220428 0)
(0.000535751 -0.00288125 0)
(0.000797309 -0.00311722 0)
(0.000970593 -0.00301528 0)
(0.00101622 -0.00266266 0)
(0.000907325 -0.00212938 0)
(0.000625757 -0.00146893 0)
(0.000158192 -0.000718919 0)
(-0.000506876 9.71505e-05 0)
(-0.00138142 0.00096785 0)
(-0.00247957 0.00189173 0)
(-0.00381896 0.00287534 0)
(-0.00542156 0.00393144 0)
(-0.00731444 0.00507754 0)
(-0.00953014 0.00633478 0)
(-0.0121071 0.00772704 0)
(-0.0150898 0.00928037 0)
(-0.0185289 0.0110226 0)
(-0.0224814 0.0129829 0)
(-0.0270103 0.0151917 0)
(-0.0321843 0.01768 0)
(-0.0380776 0.0204785 0)
(-0.0447683 0.0236172 0)
(-0.0523374 0.027123 0)
(-0.0608662 0.0310184 0)
(-0.0704337 0.0353187 0)
(-0.0811124 0.0400289 0)
(-0.092964 0.0451403 0)
(-0.106034 0.050627 0)
(-0.120345 0.056442 0)
(-0.135891 0.0625144 0)
(-0.152631 0.0687468 0)
(-0.170484 0.0750145 0)
(-0.189326 0.0811658 0)
(-0.208989 0.0870259 0)
(-0.229258 0.0924009 0)
(-0.249885 0.0970865 0)
(-0.270589 0.100876 0)
(-0.291072 0.103572 0)
(-0.311028 0.104993 0)
(-0.330163 0.104989 0)
(-0.348201 0.103442 0)
(-0.364898 0.10027 0)
(-0.380049 0.0954331 0)
(-0.393488 0.088926 0)
(-0.405092 0.0807759 0)
(-0.41477 0.0710359 0)
(-0.422463 0.0597794 0)
(-0.428129 0.0470949 0)
(-0.43174 0.0330821 0)
(-0.43326 0.017853 0)
(-0.432648 0.00154204 0)
(-0.429847 -0.015705 0)
(-0.424773 -0.0337096 0)
(-0.417327 -0.05225 0)
(-0.407375 -0.071042 0)
(-0.394765 -0.0897256 0)
(-0.379335 -0.107849 0)
(-0.36093 -0.124853 0)
(-0.339437 -0.140071 0)
(-0.31482 -0.152736 0)
(-0.287175 -0.162025 0)
(-0.256784 -0.167113 0)
(-0.22417 -0.167281 0)
(-0.190128 -0.162035 0)
(-0.155727 -0.151245 0)
(-0.122244 -0.135263 0)
(-0.0910524 -0.114982 0)
(-0.0634427 -0.0918046 0)
(-0.0404445 -0.0675274 0)
(-0.0226774 -0.0441636 0)
(-0.0102702 -0.0237739 0)
(-0.00291167 -0.00835925 0)
(3.61803e-06 0.00012848 0)
(2.76956e-05 -0.00102863 0)
(0.000211877 -0.0023207 0)
(0.000427782 -0.00299894 0)
(0.000592483 -0.00320021 0)
(0.000645889 -0.0030394 0)
(0.000552474 -0.0026119 0)
(0.000288869 -0.00199327 0)
(-0.000160146 -0.00124018 0)