/*--------------------------------*- C++ -*----------------------------------*\
  =========                 |
  \\      /  F ield         | OpenFOAM: The Open Source CFD Toolbox
   \\    /   O peration     | Website:  https://openfoam.org
    \\  /    A nd           | Version:  12
     \\/     M anipulation  |
\*---------------------------------------------------------------------------*/
FoamFile
{
    format      ascii;
    class       volScalarField;
    location    "4";
    object      epsilon;
}
// * * * * * * * * * * * * * * * * * * * * * * * * * * * * * * * * * * * * * //

dimensions      [0 2 -3 0 0 0 0];

internalField   nonuniform List<scalar> 
18225
(
4.28155e-07
2.13965e-06
4.68254e-06
7.73607e-06
1.11572e-05
1.48616e-05
1.87895e-05
2.28946e-05
2.7139e-05
3.14914e-05
3.5925e-05
4.04174e-05
4.49495e-05
4.95056e-05
5.40726e-05
5.86403e-05
6.32008e-05
6.77483e-05
7.22791e-05
7.67913e-05
8.12845e-05
8.57598e-05
9.02194e-05
9.46664e-05
9.91047e-05
0.000103539
0.000107974
0.000112414
0.000116864
0.00012133
0.000125815
0.000130323
0.000134858
0.000139422
0.000144018
0.000148646
0.000153307
0.000158
0.000162725
0.000167478
0.000172258
0.00017706
0.00018188
0.000186713
0.000191552
0.00019639
0.000201221
0.000206034
0.000210822
0.000215574
0.00022028
0.000224927
0.000229505
0.000234
0.000238399
0.000242687
0.00024685
0.000250872
0.000254738
0.000258431
0.000261934
0.000265229
0.000268301
0.00027113
0.000273699
0.000275991
0.000277988
0.000279672
0.00028103
0.000282044
0.000282696
0.000282973
0.000282877
0.000282388
0.000281495
0.000280192
0.000278471
0.000276331
0.00027377
0.00027079
0.000267395
0.000263592
0.00025939
0.000254802
0.000249842
0.000244527
0.000238877
0.000232914
0.000226662
0.000220146
0.000213394
0.000206436
0.000199301
0.000192021
0.000184626
0.000177149
0.000169621
0.000162073
0.000154534
0.000147035
0.000139603
0.000132263
0.000125041
0.000117958
0.000111036
0.000104291
9.77393e-05
9.13946e-05
8.52676e-05
7.93669e-05
7.3699e-05
6.82679e-05
6.30759e-05
5.81234e-05
5.34089e-05
4.89287e-05
4.46785e-05
4.06523e-05
3.68433e-05
3.32437e-05
2.98452e-05
2.66391e-05
2.36163e-05
2.07683e-05
1.80868e-05
1.55641e-05
1.3194e-05
1.09719e-05
8.89546e-06
6.96571e-06
5.18838e-06
3.57657e-06
2.15645e-06
9.83263e-07
1.96654e-07
2.14093e-06
1.74747e-06
2.62722e-06
3.93493e-06
5.4796e-06
7.18543e-06
9.01102e-06
1.09287e-05
1.29179e-05
1.49622e-05
1.7048e-05
1.91643e-05
2.13016e-05
2.34522e-05
2.56097e-05
2.77691e-05
2.99265e-05
3.20791e-05
3.42251e-05
3.63633e-05
3.84936e-05
4.06164e-05
4.27326e-05
4.48437e-05
4.69514e-05
4.90577e-05
5.11649e-05
5.32753e-05
5.5391e-05
5.75143e-05
5.96471e-05
6.17914e-05
6.39485e-05
6.61198e-05
6.83062e-05
7.0508e-05
7.27256e-05
7.49586e-05
7.72065e-05
7.9468e-05
8.17419e-05
8.40263e-05
8.6319e-05
8.86172e-05
9.09182e-05
9.32184e-05
9.55142e-05
9.78015e-05
0.000100076
0.000102332
0.000104566
0.000106771
0.000108942
0.000111072
0.000113156
0.000115185
0.000117154
0.000119055
0.00012088
0.000122621
0.000124271
0.000125821
0.000127263
0.000128588
0.000129789
0.000130858
0.000131785
0.000132563
0.000133186
0.000133645
0.000133933
0.000134043
0.000133975
0.000133722
0.000133277
0.000132639
0.000131804
0.000130772
0.000129542
0.000128115
0.000126493
0.00012468
0.00012268
0.0001205
0.000118146
0.000115626
0.000112949
0.000110127
0.00010717
0.00010409
0.0001009
9.76146e-05
9.42467e-05
9.08113e-05
8.73227e-05
8.37959e-05
8.02454e-05
7.66855e-05
7.31305e-05
6.95937e-05
6.60882e-05
6.26261e-05
5.92187e-05
5.58765e-05
5.2609e-05
4.94246e-05
4.63307e-05
4.33334e-05
4.04381e-05
3.76488e-05
3.49686e-05
3.23996e-05
2.99427e-05
2.75985e-05
2.53662e-05
2.32442e-05
2.12304e-05
1.93223e-05
1.75167e-05
1.58101e-05
1.41986e-05
1.26783e-05
1.12451e-05
9.89508e-06
8.62452e-06
7.43016e-06
6.30939e-06
5.26056e-06
4.28344e-06
3.37997e-06
2.55569e-06
1.82303e-06
1.21107e-06
8.02771e-07
9.82851e-07
4.6969e-06
2.6368e-06
2.69829e-06
3.34086e-06
4.25998e-06
5.34545e-06
6.54422e-06
7.82548e-06
9.1688e-06
1.05594e-05
1.19858e-05
1.34389e-05
1.49115e-05
1.63975e-05
1.7892e-05
1.93911e-05
2.0892e-05
2.23923e-05
2.38905e-05
2.53859e-05
2.68779e-05
2.83668e-05
2.9853e-05
3.13374e-05
3.28212e-05
3.43056e-05
3.5792e-05
3.7282e-05
3.87769e-05
4.02784e-05
4.17875e-05
4.33056e-05
4.48336e-05
4.63722e-05
4.79221e-05
4.94834e-05
5.10562e-05
5.26402e-05
5.42348e-05
5.58392e-05
5.74522e-05
5.90724e-05
6.06981e-05
6.23273e-05
6.39577e-05
6.55869e-05
6.72119e-05
6.88298e-05
7.04372e-05
7.20306e-05
7.36062e-05
7.51598e-05
7.66873e-05
7.81841e-05
7.96455e-05
8.10666e-05
8.24423e-05
8.37673e-05
8.50363e-05
8.62437e-05
8.73838e-05
8.84511e-05
8.94397e-05
9.03439e-05
9.11581e-05
9.18766e-05
9.24941e-05
9.30052e-05
9.34053e-05
9.36893e-05
9.38503e-05
9.38887e-05
9.38015e-05
9.35839e-05
9.32332e-05
9.27476e-05
9.21258e-05
9.13674e-05
9.04727e-05
8.94427e-05
8.82793e-05
8.69852e-05
8.5564e-05
8.40198e-05
8.23577e-05
8.05835e-05
7.87037e-05
7.67256e-05
7.46568e-05
7.25059e-05
7.02815e-05
6.79929e-05
6.56497e-05
6.32616e-05
6.08385e-05
5.83903e-05
5.59269e-05
5.34579e-05
5.09928e-05
4.85407e-05
4.61103e-05
4.37098e-05
4.13469e-05
3.90286e-05
3.67614e-05
3.45509e-05
3.24023e-05
3.03198e-05
2.8307e-05
2.63669e-05
2.45014e-05
2.27123e-05
2.10003e-05
1.93657e-05
1.78082e-05
1.63269e-05
1.49205e-05
1.35874e-05
1.23255e-05
1.11327e-05
1.00064e-05
8.94419e-06
7.94353e-06
7.00203e-06
6.11757e-06
5.28847e-06
4.5137e-06
3.79331e-06
3.12898e-06
2.52513e-06
1.99129e-06
1.54758e-06
1.24085e-06
1.20775e-06
2.15183e-06
7.79366e-06
3.97047e-06
3.36437e-06
3.54838e-06
4.08297e-06
4.81738e-06
5.68165e-06
6.6372e-06
7.65996e-06
8.73349e-06
9.84584e-06
1.09879e-05
1.21524e-05
1.33338e-05
1.45274e-05
1.57297e-05
1.69378e-05
1.81495e-05
1.93634e-05
2.05785e-05
2.17941e-05
2.30104e-05
2.42273e-05
2.54456e-05
2.66658e-05
2.78889e-05
2.91159e-05
3.03478e-05
3.15858e-05
3.28307e-05
3.40836e-05
3.53453e-05
3.66164e-05
3.78974e-05
3.91887e-05
4.04903e-05
4.18019e-05
4.31234e-05
4.44539e-05
4.57927e-05
4.71385e-05
4.84901e-05
4.98457e-05
5.12037e-05
5.25618e-05
5.39177e-05
5.5269e-05
5.66129e-05
5.79463e-05
5.92662e-05
6.05692e-05
6.18517e-05
6.311e-05
6.43403e-05
6.55384e-05
6.67003e-05
6.78216e-05
6.88979e-05
6.99247e-05
7.08975e-05
7.18117e-05
7.26627e-05
7.34459e-05
7.41567e-05
7.47908e-05
7.53437e-05
7.58113e-05
7.61897e-05
7.64749e-05
7.66628e-05
7.67484e-05
7.67355e-05
7.66181e-05
7.63942e-05
7.6062e-05
7.56204e-05
7.50691e-05
7.44079e-05
7.36377e-05
7.27596e-05
7.17755e-05
7.0688e-05
6.95002e-05
6.82157e-05
6.68388e-05
6.53744e-05
6.38279e-05
6.2205e-05
6.05122e-05
5.87561e-05
5.69437e-05
5.50823e-05
5.31796e-05
5.12431e-05
4.92807e-05
4.72999e-05
4.53087e-05
4.33144e-05
4.13244e-05
3.93458e-05
3.73854e-05
3.54496e-05
3.35442e-05
3.16748e-05
2.98463e-05
2.80634e-05
2.63298e-05
2.4649e-05
2.30238e-05
2.14565e-05
1.99489e-05
1.85022e-05
1.71171e-05
1.5794e-05
1.45327e-05
1.33326e-05
1.21929e-05
1.11124e-05
1.00896e-05
9.123e-06
8.2109e-06
7.35159e-06
6.54342e-06
5.78496e-06
5.07509e-06
4.41325e-06
3.79975e-06
3.2362e-06
2.72636e-06
2.2777e-06
1.90461e-06
1.63604e-06
1.53844e-06
1.81035e-06
3.55753e-06
1.13121e-05
5.56806e-06
4.32783e-06
4.12494e-06
4.36121e-06
4.84063e-06
5.47498e-06
6.21667e-06
7.0368e-06
7.91626e-06
8.84153e-06
9.80262e-06
1.07918e-05
1.18032e-05
1.28319e-05
1.38742e-05
1.49271e-05
1.59883e-05
1.70562e-05
1.81295e-05
1.92075e-05
2.02899e-05
2.13766e-05
2.24678e-05
2.35639e-05
2.46656e-05
2.57735e-05
2.68884e-05
2.80111e-05
2.91422e-05
3.02825e-05
3.14324e-05
3.25924e-05
3.37628e-05
3.49435e-05
3.61346e-05
3.73356e-05
3.8546e-05
3.97649e-05
4.09914e-05
4.22243e-05
4.34619e-05
4.47028e-05
4.59448e-05
4.7186e-05
4.84239e-05
4.96561e-05
5.08798e-05
5.2092e-05
5.32898e-05
5.44699e-05
5.56289e-05
5.67632e-05
5.78693e-05
5.89434e-05
5.99816e-05
6.09801e-05
6.19348e-05
6.28416e-05
6.36967e-05
6.44959e-05
6.52353e-05
6.59109e-05
6.65188e-05
6.70553e-05
6.75168e-05
6.78998e-05
6.8201e-05
6.84175e-05
6.85431e-05
6.85801e-05
6.85274e-05
6.83811e-05
6.81395e-05
6.78018e-05
6.73673e-05
6.68359e-05
6.6208e-05
6.54844e-05
6.46667e-05
6.37567e-05
6.27569e-05
6.16702e-05
6.05002e-05
5.92507e-05
5.79261e-05
5.65314e-05
5.50717e-05
5.35527e-05
5.19803e-05
5.03608e-05
4.87004e-05
4.7006e-05
4.5284e-05
4.35413e-05
4.17846e-05
4.00204e-05
3.82555e-05
3.64959e-05
3.47478e-05
3.30171e-05
3.1309e-05
2.96288e-05
2.7981e-05
2.637e-05
2.47994e-05
2.32727e-05
2.17927e-05
2.03617e-05
1.89818e-05
1.76545e-05
1.63807e-05
1.51611e-05
1.39961e-05
1.28854e-05
1.18288e-05
1.08254e-05
9.87456e-06
8.97507e-06
8.12577e-06
7.32546e-06
6.57297e-06
5.86729e-06
5.20766e-06
4.5938e-06
4.02614e-06
3.50616e-06
3.03703e-06
2.62462e-06
2.27944e-06
2.02067e-06
1.88653e-06
1.96417e-06
2.5234e-06
5.13563e-06
1.51954e-05
7.36627e-06
5.48635e-06
4.92553e-06
4.9042e-06
5.17507e-06
5.63014e-06
6.21222e-06
6.88715e-06
7.6327e-06
8.43341e-06
9.27803e-06
1.0158e-05
1.10667e-05
1.1999e-05
1.29507e-05
1.39185e-05
1.48998e-05
1.58926e-05
1.68956e-05
1.79077e-05
1.89282e-05
1.99569e-05
2.09936e-05
2.20387e-05
2.30923e-05
2.41549e-05
2.52271e-05
2.63092e-05
2.74018e-05
2.85052e-05
2.96199e-05
3.07459e-05
3.18832e-05
3.30318e-05
3.41912e-05
3.53608e-05
3.654e-05
3.77276e-05
3.89225e-05
4.01233e-05
4.13281e-05
4.25353e-05
4.37426e-05
4.49478e-05
4.61485e-05
4.73419e-05
4.85252e-05
4.96955e-05
5.08496e-05
5.19842e-05
5.30961e-05
5.41817e-05
5.52375e-05
5.62599e-05
5.72451e-05
5.81894e-05
5.90892e-05
5.99407e-05
6.07401e-05
6.14838e-05
6.21681e-05
6.27895e-05
6.33446e-05
6.38299e-05
6.42425e-05
6.45793e-05
6.48376e-05
6.50146e-05
6.51026e-05
6.51102e-05
6.50309e-05
6.48628e-05
6.46045e-05
6.42553e-05
6.38149e-05
6.32833e-05
6.26609e-05
6.19488e-05
6.11485e-05
6.02617e-05
5.92909e-05
5.8239e-05
5.71093e-05
5.59057e-05
5.46323e-05
5.32938e-05
5.18953e-05
5.04421e-05
4.89399e-05
4.73946e-05
4.58124e-05
4.41996e-05
4.25625e-05
4.09076e-05
3.92412e-05
3.75696e-05
3.5899e-05
3.42354e-05
3.25843e-05
3.09512e-05
2.93411e-05
2.77589e-05
2.62086e-05
2.46943e-05
2.32194e-05
2.17868e-05
2.03992e-05
1.90586e-05
1.77668e-05
1.6525e-05
1.53342e-05
1.41948e-05
1.31071e-05
1.2071e-05
1.1086e-05
1.01516e-05
9.26699e-06
8.43132e-06
7.64365e-06
6.90309e-06
6.20884e-06
5.56036e-06
4.95747e-06
4.40059e-06
3.89101e-06
3.43132e-06
3.02614e-06
2.68326e-06
2.41628e-06
2.24943e-06
2.22988e-06
2.46764e-06
3.31263e-06
6.84865e-06
1.94142e-05
9.33745e-06
6.79554e-06
5.88637e-06
5.62842e-06
5.71706e-06
6.02215e-06
6.47623e-06
7.03958e-06
7.68665e-06
8.39983e-06
9.16635e-06
9.97667e-06
1.08234e-05
1.17007e-05
1.2604e-05
1.35295e-05
1.44742e-05
1.54359e-05
1.64128e-05
1.74035e-05
1.84071e-05
1.94231e-05
2.0451e-05
2.14909e-05
2.25426e-05
2.36065e-05
2.46827e-05
2.57715e-05
2.68732e-05
2.79878e-05
2.91154e-05
3.02559e-05
3.14092e-05
3.25747e-05
3.37519e-05
3.49399e-05
3.61377e-05
3.7344e-05
3.85574e-05
3.97761e-05
4.09981e-05
4.22215e-05
4.34439e-05
4.46628e-05
4.58754e-05
4.7079e-05
4.82706e-05
4.9447e-05
5.0605e-05
5.17414e-05
5.28527e-05
5.39355e-05
5.49862e-05
5.60013e-05
5.69772e-05
5.79104e-05
5.87972e-05
5.96342e-05
6.04178e-05
6.11445e-05
6.1811e-05
6.2414e-05
6.29503e-05
6.34168e-05
6.38106e-05
6.4129e-05
6.43698e-05
6.45288e-05
6.45996e-05
6.45928e-05
6.44995e-05
6.43184e-05
6.40482e-05
6.36883e-05
6.32381e-05
6.26978e-05
6.20676e-05
6.13486e-05
6.0542e-05
5.96498e-05
5.8674e-05
5.76177e-05
5.64839e-05
5.52766e-05
5.39998e-05
5.26583e-05
5.1257e-05
4.98015e-05
4.82975e-05
4.67509e-05
4.51681e-05
4.35555e-05
4.19196e-05
4.02669e-05
3.86039e-05
3.69371e-05
3.52728e-05
3.36169e-05
3.19752e-05
3.03532e-05
2.87559e-05
2.71881e-05
2.56539e-05
2.41573e-05
2.27014e-05
2.12893e-05
1.99233e-05
1.86055e-05
1.73373e-05
1.61199e-05
1.4954e-05
1.38402e-05
1.27783e-05
1.17682e-05
1.08096e-05
9.90177e-06
9.04391e-06
8.23523e-06
7.4749e-06
6.76222e-06
6.09665e-06
5.47801e-06
4.90657e-06
4.38335e-06
3.91034e-06
3.49115e-06
3.13185e-06
2.84232e-06
2.63883e-06
2.55038e-06
2.63403e-06
3.02485e-06
4.15957e-06
8.67037e-06
2.39537e-05
1.14685e-05
8.23388e-06
6.9754e-06
6.49123e-06
6.41334e-06
6.5872e-06
6.93403e-06
7.40809e-06
7.98026e-06
8.63069e-06
9.34511e-06
1.01128e-05
1.09254e-05
1.17764e-05
1.26606e-05
1.35737e-05
1.45122e-05
1.54735e-05
1.64554e-05
1.74562e-05
1.84746e-05
1.95098e-05
2.05611e-05
2.16281e-05
2.27106e-05
2.38085e-05
2.49218e-05
2.60505e-05
2.71944e-05
2.83536e-05
2.95278e-05
3.07165e-05
3.19194e-05
3.31357e-05
3.43645e-05
3.56047e-05
3.68549e-05
3.81136e-05
3.9379e-05
4.06491e-05
4.19217e-05
4.31945e-05
4.44648e-05
4.573e-05
4.69872e-05
4.82332e-05
4.94651e-05
5.06795e-05
5.18732e-05
5.30428e-05
5.41848e-05
5.52959e-05
5.63725e-05
5.74112e-05
5.84085e-05
5.93609e-05
6.02651e-05
6.11176e-05
6.1915e-05
6.26542e-05
6.33318e-05
6.39447e-05
6.44898e-05
6.49641e-05
6.53649e-05
6.56892e-05
6.59343e-05
6.60961e-05
6.61678e-05
6.61616e-05
6.60677e-05
6.58844e-05
6.56104e-05
6.52447e-05
6.47865e-05
6.42357e-05
6.35923e-05
6.28572e-05
6.20313e-05
6.11163e-05
6.01144e-05
5.90281e-05
5.78608e-05
5.66162e-05
5.52985e-05
5.39125e-05
5.24636e-05
5.09572e-05
4.93996e-05
4.77972e-05
4.61565e-05
4.44846e-05
4.27883e-05
4.10748e-05
3.93511e-05
3.76242e-05
3.59007e-05
3.41872e-05
3.24899e-05
3.08146e-05
2.91668e-05
2.75514e-05
2.59729e-05
2.44353e-05
2.29419e-05
2.14958e-05
2.00994e-05
1.87546e-05
1.74629e-05
1.62252e-05
1.50422e-05
1.39142e-05
1.28409e-05
1.18222e-05
1.08574e-05
9.94581e-06
9.08654e-06
8.27874e-06
7.52161e-06
6.8145e-06
6.15705e-06
5.5493e-06
4.99191e-06
4.48639e-06
4.03552e-06
3.6438e-06
3.31842e-06
3.07099e-06
2.92076e-06
2.90182e-06
3.08156e-06
3.62202e-06
5.05207e-06
1.05806e-05
2.88087e-05
1.37537e-05
9.7906e-06
8.17542e-06
7.46884e-06
7.23381e-06
7.28895e-06
7.54314e-06
7.9441e-06
8.45888e-06
9.06513e-06
9.74681e-06
1.04919e-05
1.12913e-05
1.21374e-05
1.30245e-05
1.39477e-05
1.4903e-05
1.58873e-05
1.6898e-05
1.79331e-05
1.89908e-05
2.007e-05
2.11696e-05
2.22891e-05
2.34279e-05
2.45857e-05
2.5762e-05
2.69566e-05
2.81692e-05
2.93993e-05
3.06465e-05
3.19101e-05
3.31892e-05
3.44828e-05
3.57897e-05
3.71084e-05
3.84372e-05
3.97743e-05
4.11175e-05
4.24645e-05
4.38128e-05
4.51597e-05
4.65025e-05
4.7838e-05
4.91632e-05
5.0475e-05
5.17702e-05
5.30453e-05
5.42971e-05
5.55222e-05
5.67171e-05
5.78785e-05
5.90029e-05
6.00871e-05
6.11276e-05
6.21211e-05
6.30644e-05
6.39541e-05
6.47872e-05
6.55603e-05
6.62704e-05
6.69143e-05
6.7489e-05
6.79914e-05
6.84186e-05
6.87677e-05
6.90358e-05
6.92196e-05
6.93092e-05
6.93178e-05
6.92371e-05
6.90635e-05
6.87954e-05
6.84312e-05
6.79698e-05
6.74106e-05
6.67533e-05
6.59982e-05
6.51461e-05
6.41983e-05
6.31566e-05
6.20237e-05
6.08027e-05
5.94973e-05
5.81119e-05
5.66515e-05
5.51217e-05
5.35285e-05
5.18786e-05
5.01789e-05
4.84368e-05
4.66598e-05
4.48557e-05
4.30324e-05
4.11977e-05
3.93595e-05
3.75252e-05
3.57022e-05
3.38974e-05
3.21174e-05
3.03681e-05
2.86552e-05
2.69835e-05
2.53574e-05
2.37806e-05
2.22564e-05
2.07873e-05
1.93752e-05
1.80216e-05
1.67275e-05
1.54933e-05
1.43191e-05
1.32047e-05
1.21494e-05
1.11526e-05
1.02133e-05
9.33048e-06
8.50318e-06
7.73054e-06
7.0119e-06
6.34694e-06
5.73585e-06
5.17951e-06
4.67982e-06
4.24006e-06
3.86559e-06
3.56482e-06
3.35114e-06
3.2467e-06
3.29073e-06
3.56184e-06
4.25018e-06
5.9812e-06
1.25631e-05
3.39796e-05
1.61914e-05
1.14606e-05
9.47707e-06
8.54747e-06
8.16041e-06
8.10535e-06
8.2776e-06
8.61781e-06
9.08882e-06
9.66562e-06
1.03303e-05
1.10696e-05
1.1873e-05
1.27324e-05
1.36411e-05
1.45935e-05
1.55852e-05
1.66124e-05
1.7672e-05
1.87616e-05
1.98792e-05
2.1023e-05
2.21918e-05
2.33847e-05
2.46006e-05
2.5839e-05
2.70992e-05
2.83805e-05
2.96824e-05
3.1004e-05
3.23446e-05
3.37032e-05
3.50784e-05
3.6469e-05
3.78734e-05
3.92896e-05
4.07158e-05
4.21496e-05
4.35886e-05
4.50302e-05
4.64715e-05
4.79097e-05
4.93416e-05
5.0764e-05
5.21738e-05
5.35677e-05
5.49423e-05
5.62942e-05
5.76202e-05
5.89169e-05
6.01809e-05
6.1409e-05
6.2598e-05
6.37445e-05
6.48454e-05
6.58975e-05
6.68977e-05
6.78428e-05
6.87298e-05
6.95555e-05
7.03167e-05
7.10104e-05
7.16333e-05
7.21824e-05
7.26544e-05
7.30461e-05
7.33543e-05
7.3576e-05
7.37011e-05
7.37365e-05
7.36821e-05
7.35298e-05
7.32774e-05
7.29227e-05
7.24642e-05
7.19004e-05
7.12307e-05
7.04549e-05
6.95732e-05
6.85865e-05
6.74966e-05
6.63058e-05
6.5017e-05
6.36341e-05
6.21615e-05
6.06047e-05
5.89693e-05
5.72622e-05
5.54904e-05
5.36616e-05
5.17841e-05
4.98662e-05
4.79169e-05
4.59448e-05
4.3959e-05
4.19683e-05
3.99814e-05
3.80065e-05
3.60516e-05
3.41243e-05
3.22314e-05
3.03793e-05
2.85735e-05
2.68191e-05
2.51203e-05
2.34806e-05
2.19028e-05
2.03892e-05
1.89412e-05
1.75598e-05
1.62454e-05
1.49979e-05
1.38168e-05
1.27015e-05
1.16508e-05
1.06637e-05
9.73877e-06
8.87497e-06
8.07122e-06
7.32675e-06
6.64119e-06
6.01479e-06
5.4486e-06
4.9448e-06
4.50718e-06
4.1418e-06
3.85821e-06
3.67155e-06
3.60692e-06
3.70884e-06
4.06778e-06
4.90303e-06
6.94001e-06
1.46045e-05
3.94714e-05
1.87828e-05
1.32421e-05
1.08754e-05
9.71909e-06
9.18204e-06
9.02253e-06
9.1209e-06
9.41017e-06
9.84864e-06
1.04083e-05
1.10694e-05
1.18169e-05
1.26393e-05
1.35273e-05
1.44734e-05
1.54714e-05
1.65162e-05
1.76032e-05
1.87291e-05
1.98906e-05
2.10855e-05
2.23116e-05
2.35673e-05
2.4851e-05
2.61617e-05
2.74983e-05
2.88597e-05
3.02451e-05
3.16533e-05
3.30834e-05
3.4534e-05
3.60038e-05
3.74911e-05
3.89943e-05
4.05114e-05
4.204e-05
4.35779e-05
4.51223e-05
4.66707e-05
4.82199e-05
4.97669e-05
5.13086e-05
5.28417e-05
5.43629e-05
5.58688e-05
5.73562e-05
5.88216e-05
6.02618e-05
6.16734e-05
6.30534e-05
6.43985e-05
6.57055e-05
6.69715e-05
6.81933e-05
6.9368e-05
7.04925e-05
7.15639e-05
7.25791e-05
7.3535e-05
7.44286e-05
7.52566e-05
7.60158e-05
7.67028e-05
7.73142e-05
7.78465e-05
7.82961e-05
7.86594e-05
7.89327e-05
7.91087e-05
7.91823e-05
7.91654e-05
7.9045e-05
7.88176e-05
7.84803e-05
7.80309e-05
7.74673e-05
7.67882e-05
7.59927e-05
7.50805e-05
7.40523e-05
7.29093e-05
7.16535e-05
7.02879e-05
6.88162e-05
6.7243e-05
6.5574e-05
6.38153e-05
6.19742e-05
6.00585e-05
5.80767e-05
5.60379e-05
5.39515e-05
5.18275e-05
4.96759e-05
4.75068e-05
4.53304e-05
4.31566e-05
4.0995e-05
3.88547e-05
3.67445e-05
3.46724e-05
3.26457e-05
3.06709e-05
2.87538e-05
2.68993e-05
2.51116e-05
2.33938e-05
2.17485e-05
2.01773e-05
1.86814e-05
1.72609e-05
1.59159e-05
1.46456e-05
1.34491e-05
1.23251e-05
1.12721e-05
1.02886e-05
9.37312e-06
8.52441e-06
7.7415e-06
7.02388e-06
6.37176e-06
5.78625e-06
5.26977e-06
4.82648e-06
4.46312e-06
4.19028e-06
4.02487e-06
3.99497e-06
4.1506e-06
4.59446e-06
5.57592e-06
7.92303e-06
1.66939e-05
4.52916e-05
2.15307e-05
1.51353e-05
1.23683e-05
1.09791e-05
1.02919e-05
1.00316e-05
1.00623e-05
1.03087e-05
1.07242e-05
1.12776e-05
1.19468e-05
1.27152e-05
1.35698e-05
1.45004e-05
1.54984e-05
1.65568e-05
1.76696e-05
1.88318e-05
2.00393e-05
2.12884e-05
2.25761e-05
2.39e-05
2.5258e-05
2.66481e-05
2.80688e-05
2.95186e-05
3.09962e-05
3.25001e-05
3.4029e-05
3.55813e-05
3.71554e-05
3.87495e-05
4.03616e-05
4.19895e-05
4.36307e-05
4.52828e-05
4.69429e-05
4.86081e-05
5.02753e-05
5.19413e-05
5.36027e-05
5.52563e-05
5.68986e-05
5.85263e-05
6.01359e-05
6.17243e-05
6.32881e-05
6.48242e-05
6.63294e-05
6.78008e-05
6.92353e-05
7.06301e-05
7.19824e-05
7.32892e-05
7.45479e-05
7.57555e-05
7.69091e-05
7.80059e-05
7.90428e-05
8.00165e-05
8.09238e-05
8.17612e-05
8.25251e-05
8.32117e-05
8.3817e-05
8.4337e-05
8.47674e-05
8.51039e-05
8.53419e-05
8.54681e-05
8.54948e-05
8.54156e-05
8.52216e-05
8.49092e-05
8.44752e-05
8.39169e-05
8.32322e-05
8.24197e-05
8.14785e-05
8.04086e-05
7.92109e-05
7.78871e-05
7.64399e-05
7.48731e-05
7.31913e-05
7.14003e-05
6.95068e-05
6.75184e-05
6.54437e-05
6.32919e-05
6.10731e-05
5.87978e-05
5.64772e-05
5.41224e-05
5.17451e-05
4.93568e-05
4.69687e-05
4.45919e-05
4.22371e-05
3.99142e-05
3.76327e-05
3.5401e-05
3.32269e-05
3.11172e-05
2.90775e-05
2.71128e-05
2.52269e-05
2.34228e-05
2.17024e-05
2.0067e-05
1.8517e-05
1.70522e-05
1.56718e-05
1.43747e-05
1.31593e-05
1.20237e-05
1.09663e-05
9.98512e-06
9.07864e-06
8.24561e-06
7.48534e-06
6.7979e-06
6.18439e-06
5.64736e-06
5.19128e-06
4.82349e-06
4.5556e-06
4.40623e-06
4.40653e-06
4.61219e-06
5.13843e-06
6.2654e-06
8.926e-06
1.88229e-05
5.14495e-05
2.44389e-05
1.71416e-05
1.39552e-05
1.23252e-05
1.1486e-05
1.1127e-05
1.10948e-05
1.13052e-05
1.17062e-05
1.22631e-05
1.29512e-05
1.37521e-05
1.46514e-05
1.56374e-05
1.67007e-05
1.78331e-05
1.9028e-05
2.02794e-05
2.15826e-05
2.29334e-05
2.43282e-05
2.57639e-05
2.72379e-05
2.8748e-05
3.02921e-05
3.18682e-05
3.34745e-05
3.51092e-05
3.67705e-05
3.84564e-05
4.01647e-05
4.18934e-05
4.36398e-05
4.54014e-05
4.71754e-05
4.89588e-05
5.07484e-05
5.25409e-05
5.43331e-05
5.61214e-05
5.79025e-05
5.96727e-05
6.14288e-05
6.31673e-05
6.4885e-05
6.65787e-05
6.82452e-05
6.98816e-05
7.14851e-05
7.30528e-05
7.45822e-05
7.60705e-05
7.75153e-05
7.89138e-05
8.02635e-05
8.15618e-05
8.28057e-05
8.39925e-05
8.5119e-05
8.61819e-05
8.71778e-05
8.81029e-05
8.89532e-05
8.97245e-05
9.04124e-05
9.10122e-05
9.15191e-05
9.1928e-05
9.22341e-05
9.24262e-05
9.25013e-05
9.24708e-05
9.23174e-05
9.20364e-05
9.16239e-05
9.10764e-05
9.0391e-05
8.95656e-05
8.85987e-05
8.74897e-05
8.62391e-05
8.4848e-05
8.3319e-05
8.16557e-05
7.98627e-05
7.79459e-05
7.59122e-05
7.37698e-05
7.15277e-05
6.9196e-05
6.67856e-05
6.43082e-05
6.17759e-05
5.92014e-05
5.65976e-05
5.39775e-05
5.1354e-05
4.87396e-05
4.61466e-05
4.35866e-05
4.10704e-05
3.8608e-05
3.62084e-05
3.38796e-05
3.16285e-05
2.94608e-05
2.73813e-05
2.53934e-05
2.34998e-05
2.17018e-05
2.00001e-05
1.83947e-05
1.68845e-05
1.54683e-05
1.41442e-05
1.29103e-05
1.17642e-05
1.07038e-05
9.72728e-06
8.83294e-06
8.01986e-06
7.2879e-06
6.63808e-06
6.07298e-06
5.59734e-06
5.21902e-06
4.9506e-06
4.81244e-06
4.83867e-06
5.09104e-06
5.69725e-06
6.969e-06
9.94573e-06
2.09847e-05
5.79557e-05
2.75118e-05
1.92632e-05
1.56366e-05
1.37565e-05
1.27622e-05
1.23051e-05
1.2214e-05
1.23943e-05
1.27884e-05
1.33578e-05
1.4075e-05
1.49194e-05
1.58751e-05
1.69289e-05
1.80701e-05
1.92895e-05
2.05795e-05
2.19334e-05
2.33455e-05
2.4811e-05
2.63256e-05
2.78858e-05
2.94883e-05
3.11304e-05
3.28094e-05
3.45229e-05
3.62686e-05
3.80443e-05
3.98476e-05
4.1676e-05
4.35269e-05
4.53977e-05
4.72854e-05
4.91869e-05
5.10991e-05
5.30186e-05
5.49418e-05
5.68653e-05
5.87854e-05
6.06986e-05
6.26013e-05
6.449e-05
6.63613e-05
6.82119e-05
7.00388e-05
7.18389e-05
7.36095e-05
7.53477e-05
7.70512e-05
7.87174e-05
8.0344e-05
8.19286e-05
8.34691e-05
8.49629e-05
8.64077e-05
8.7801e-05
8.91399e-05
9.04217e-05
9.16432e-05
9.28008e-05
9.38909e-05
9.49094e-05
9.58521e-05
9.67141e-05
9.74905e-05
9.81761e-05
9.87653e-05
9.92524e-05
9.96316e-05
9.98967e-05
0.000100029
0.000100049
9.99425e-05
9.9699e-05
9.93139e-05
9.87831e-05
9.81029e-05
9.72704e-05
9.62835e-05
9.5141e-05
9.38426e-05
9.23891e-05
9.07828e-05
8.90267e-05
8.71255e-05
8.5085e-05
8.29123e-05
8.06157e-05
7.82049e-05
7.56903e-05
7.30839e-05
7.03981e-05
6.76463e-05
6.48423e-05
6.20005e-05
5.91354e-05
5.62613e-05
5.33927e-05
5.05434e-05
4.77266e-05
4.4955e-05
4.224e-05
3.95924e-05
3.70216e-05
3.45356e-05
3.21415e-05
2.9845e-05
2.76504e-05
2.55608e-05
2.35784e-05
2.17041e-05
1.99378e-05
1.82787e-05
1.67255e-05
1.5276e-05
1.3928e-05
1.26788e-05
1.1526e-05
1.04672e-05
9.50049e-06
8.62455e-06
7.83898e-06
7.14465e-06
6.54409e-06
6.04223e-06
5.64741e-06
5.37314e-06
5.24149e-06
5.28963e-06
5.58546e-06
6.26933e-06
7.68502e-06
1.09801e-05
2.31751e-05
6.48212e-05
3.07545e-05
2.15028e-05
1.74136e-05
1.52729e-05
1.41192e-05
1.35641e-05
1.34171e-05
1.35727e-05
1.3967e-05
1.45574e-05
1.53133e-05
1.6212e-05
1.72353e-05
1.83687e-05
1.96e-05
2.09187e-05
2.23163e-05
2.3785e-05
2.53183e-05
2.69105e-05
2.85568e-05
3.02529e-05
3.19949e-05
3.37794e-05
3.56034e-05
3.74638e-05
3.93578e-05
4.12825e-05
4.32351e-05
4.52127e-05
4.72121e-05
4.923e-05
5.12633e-05
5.33082e-05
5.53613e-05
5.74188e-05
5.94769e-05
6.15319e-05
6.358e-05
6.56176e-05
6.7641e-05
6.96469e-05
7.16319e-05
7.35931e-05
7.55275e-05
7.74324e-05
7.93054e-05
8.11441e-05
8.29464e-05
8.47102e-05
8.64334e-05
8.81141e-05
8.97502e-05
9.13396e-05
9.28802e-05
9.43693e-05
9.58044e-05
9.71825e-05
9.85003e-05
9.97543e-05
0.00010094
0.000102054
0.000103091
0.000104046
0.000104913
0.000105687
0.000106361
0.000106929
0.000107385
0.000107722
0.000107923
0.000107993
0.000107938
0.000107738
0.000107386
0.000106878
0.00010621
0.000105379
0.00010438
0.000103212
0.000101875
0.000100369
9.86944e-05
9.68549e-05
9.48545e-05
9.26988e-05
9.03949e-05
8.7951e-05
8.53771e-05
8.26841e-05
7.98845e-05
7.69915e-05
7.40194e-05
7.09833e-05
6.78987e-05
6.47817e-05
6.16483e-05
5.85145e-05
5.53959e-05
5.23078e-05
4.92643e-05
4.62791e-05
4.33645e-05
4.05315e-05
3.77899e-05
3.5148e-05
3.26129e-05
3.01899e-05
2.78831e-05
2.56952e-05
2.36277e-05
2.1681e-05
1.98543e-05
1.81461e-05
1.65545e-05
1.50767e-05
1.37099e-05
1.24513e-05
1.1298e-05
1.02477e-05
9.29869e-06
8.45031e-06
7.70314e-06
7.05964e-06
6.52487e-06
6.10755e-06
5.82213e-06
5.69233e-06
5.75843e-06
6.09452e-06
6.85379e-06
8.41254e-06
1.20278e-05
2.53915e-05
7.20573e-05
3.41719e-05
2.38633e-05
1.92879e-05
1.6875e-05
1.55569e-05
1.49031e-05
1.47027e-05
1.48383e-05
1.52396e-05
1.58592e-05
1.66634e-05
1.76265e-05
1.87285e-05
1.99529e-05
2.1286e-05
2.2716e-05
2.42329e-05
2.58281e-05
2.74941e-05
2.92243e-05
3.10129e-05
3.28551e-05
3.47463e-05
3.66824e-05
3.86596e-05
4.06745e-05
4.27236e-05
4.48035e-05
4.69107e-05
4.90417e-05
5.1193e-05
5.33607e-05
5.55412e-05
5.77304e-05
5.99243e-05
6.2119e-05
6.43104e-05
6.64947e-05
6.86679e-05
7.08265e-05
7.29669e-05
7.50859e-05
7.71804e-05
7.92476e-05
8.1285e-05
8.32903e-05
8.52613e-05
8.71962e-05
8.90932e-05
9.09505e-05
9.27666e-05
9.45398e-05
9.62682e-05
9.79501e-05
9.95832e-05
0.000101165
0.000102694
0.000104165
0.000105577
0.000106925
0.000108204
0.000109411
0.00011054
0.000111585
0.000112541
0.000113402
0.00011416
0.000114808
0.000115341
0.000115751
0.000116025
0.000116146
0.000116146
0.000115994
0.000115682
0.000115205
0.000114558
0.000113736
0.000112737
0.000111557
0.000110194
0.000108648
0.00010692
0.000105012
0.000102928
0.000100672
9.82515e-05
9.56744e-05
9.29505e-05
9.00911e-05
8.71086e-05
8.40171e-05
8.08315e-05
7.75678e-05
7.42427e-05
7.08737e-05
6.74783e-05
6.40743e-05
6.06791e-05
5.73098e-05
5.39827e-05
5.07133e-05
4.7516e-05
4.44037e-05
4.13881e-05
3.84792e-05
3.56855e-05
3.30137e-05
3.04692e-05
2.80554e-05
2.57747e-05
2.3628e-05
2.16148e-05
1.97338e-05
1.79829e-05
1.63595e-05
1.48602e-05
1.34819e-05
1.22214e-05
1.10759e-05
1.00434e-05
9.12261e-06
8.31401e-06
7.61987e-06
7.04527e-06
6.59933e-06
6.29734e-06
6.16468e-06
6.24479e-06
6.61793e-06
7.45036e-06
9.15132e-06
1.30886e-05
2.76334e-05
7.96745e-05
3.77686e-05
2.63475e-05
2.12612e-05
1.85636e-05
1.70754e-05
1.63217e-05
1.60701e-05
1.61902e-05
1.66049e-05
1.72619e-05
1.81234e-05
1.91612e-05
2.03526e-05
2.16792e-05
2.31254e-05
2.4678e-05
2.63257e-05
2.80584e-05
2.98677e-05
3.1746e-05
3.36867e-05
3.56839e-05
3.77325e-05
3.98277e-05
4.1965e-05
4.41402e-05
4.63493e-05
4.85883e-05
5.08531e-05
5.31396e-05
5.54438e-05
5.77614e-05
6.00881e-05
6.24196e-05
6.47517e-05
6.708e-05
6.94004e-05
7.17089e-05
7.40017e-05
7.62752e-05
7.8526e-05
8.07512e-05
8.2948e-05
8.5114e-05
8.72471e-05
8.93453e-05
9.1407e-05
9.34308e-05
9.54152e-05
9.7359e-05
9.92609e-05
0.000101119
0.000102933
0.000104701
0.000106419
0.000108088
0.000109702
0.00011126
0.000112759
0.000114193
0.000115559
0.000116852
0.000118067
0.000119197
0.000120236
0.000121178
0.000122015
0.000122741
0.000123348
0.000123828
0.000124173
0.000124359
0.000124407
0.000124309
0.000124043
0.000123606
0.00012299
0.000122191
0.000121205
0.000120028
0.000118657
0.00011709
0.000115329
0.000113373
0.000111226
0.000108891
0.000106376
0.000103687
0.000100834
9.78273e-05
9.46802e-05
9.14065e-05
8.80217e-05
8.45425e-05
8.09865e-05
7.73722e-05
7.37189e-05
7.00457e-05
6.6372e-05
6.27169e-05
5.90989e-05
5.55355e-05
5.20434e-05
4.86377e-05
4.53322e-05
4.21388e-05
3.9068e-05
3.61281e-05
3.33259e-05
3.06663e-05
2.81525e-05
2.57861e-05
2.35673e-05
2.14951e-05
1.95676e-05
1.77818e-05
1.61346e-05
1.46222e-05
1.32412e-05
1.19884e-05
1.08612e-05
9.85804e-06
8.97896e-06
8.22606e-06
7.60441e-06
7.12346e-06
6.79927e-06
6.65892e-06
6.74899e-06
7.15596e-06
8.05934e-06
9.90174e-06
1.41632e-05
2.99022e-05
8.76829e-05
4.15493e-05
2.89581e-05
2.33352e-05
2.03398e-05
1.86754e-05
1.78202e-05
1.75192e-05
1.76281e-05
1.80626e-05
1.87647e-05
1.96928e-05
2.08151e-05
2.21065e-05
2.35461e-05
2.51165e-05
2.68027e-05
2.85918e-05
3.04724e-05
3.24348e-05
3.44703e-05
3.65715e-05
3.87315e-05
4.09444e-05
4.32045e-05
4.55068e-05
4.78463e-05
5.02184e-05
5.26182e-05
5.50414e-05
5.74831e-05
5.99387e-05
6.24036e-05
6.48731e-05
6.73424e-05
6.98071e-05
7.22627e-05
7.47051e-05
7.713e-05
7.9534e-05
8.19135e-05
8.42655e-05
8.65873e-05
8.88766e-05
9.11313e-05
9.33498e-05
9.55307e-05
9.76727e-05
9.97749e-05
0.000101836
0.000103856
0.000105833
0.000107766
0.000109655
0.000111497
0.00011329
0.000115033
0.000116723
0.000118356
0.00011993
0.00012144
0.000122881
0.000124249
0.000125539
0.000126743
0.000127856
0.000128872
0.000129781
0.000130578
0.000131255
0.000131803
0.000132215
0.00013247
0.000132568
0.000132527
0.000132316
0.000131927
0.000131355
0.000130593
0.000129637
0.000128482
0.000127123
0.000125559
0.000123789
0.000121811
0.000119629
0.000117244
0.000114662
0.00011189
0.000108936
0.00010581
0.000102524
9.90922e-05
9.55303e-05
9.18552e-05
8.80852e-05
8.42398e-05
8.03392e-05
7.64043e-05
7.24563e-05
6.85163e-05
6.46048e-05
6.07419e-05
5.69465e-05
5.32363e-05
4.96275e-05
4.61343e-05
4.27693e-05
3.95431e-05
3.64642e-05
3.3539e-05
3.0772e-05
2.81661e-05
2.57221e-05
2.34397e-05
2.13172e-05
1.93518e-05
1.75402e-05
1.58786e-05
1.4363e-05
1.29899e-05
1.17562e-05
1.066e-05
9.70076e-06
8.88047e-06
8.20411e-06
7.68136e-06
7.3291e-06
7.17601e-06
7.27185e-06
7.70939e-06
8.68156e-06
1.06648e-05
1.52529e-05
3.22009e-05
9.60913e-05
4.5518e-05
3.16976e-05
2.55114e-05
2.22046e-05
2.03575e-05
1.9399e-05
1.90502e-05
1.91521e-05
1.96126e-05
2.03677e-05
2.13713e-05
2.2588e-05
2.39897e-05
2.55531e-05
2.72583e-05
2.90884e-05
3.10289e-05
3.30669e-05
3.51912e-05
3.73922e-05
3.9661e-05
4.19902e-05
4.43726e-05
4.68019e-05
4.92723e-05
5.1778e-05
5.43138e-05
5.68742e-05
5.9454e-05
6.20481e-05
6.46513e-05
6.72584e-05
6.98644e-05
7.24644e-05
7.50537e-05