/*--------------------------------*- C++ -*----------------------------------*\
  =========                 |
  \\      /  F ield         | OpenFOAM: The Open Source CFD Toolbox
   \\    /   O peration     | Website:  https://openfoam.org
    \\  /    A nd           | Version:  12
     \\/     M anipulation  |
\*---------------------------------------------------------------------------*/
FoamFile
{
    format      ascii;
    class       volScalarField;
    location    "4";
    object      k;
}
// * * * * * * * * * * * * * * * * * * * * * * * * * * * * * * * * * * * * * //

dimensions      [0 2 -2 0 0 0 0];

internalField   nonuniform List<scalar> 
18225
(
1.16903e-10
5.84209e-10
1.27852e-09
2.11226e-09
3.04637e-09
4.05782e-09
5.13029e-09
6.25113e-09
7.41004e-09
8.5984e-09
9.80896e-09
1.10356e-08
1.2273e-08
1.3517e-08
1.4764e-08
1.60111e-08
1.72563e-08
1.8498e-08
1.9735e-08
2.09671e-08
2.21939e-08
2.34158e-08
2.46334e-08
2.58476e-08
2.70595e-08
2.82702e-08
2.9481e-08
3.06933e-08
3.19085e-08
3.31278e-08
3.43524e-08
3.55833e-08
3.68215e-08
3.80678e-08
3.93225e-08
4.05862e-08
4.18588e-08
4.31402e-08
4.44302e-08
4.57282e-08
4.70332e-08
4.83444e-08
4.96605e-08
5.098e-08
5.23013e-08
5.36224e-08
5.49412e-08
5.62556e-08
5.75628e-08
5.88603e-08
6.01451e-08
6.14142e-08
6.26641e-08
6.38914e-08
6.50925e-08
6.62633e-08
6.74e-08
6.84983e-08
6.95538e-08
7.05621e-08
7.15185e-08
7.24184e-08
7.3257e-08
7.40295e-08
7.4731e-08
7.53568e-08
7.5902e-08
7.6362e-08
7.67327e-08
7.70097e-08
7.71876e-08
7.72633e-08
7.72369e-08
7.71034e-08
7.68597e-08
7.65038e-08
7.6034e-08
7.54496e-08
7.47503e-08
7.39366e-08
7.30096e-08
7.19713e-08
7.08241e-08
6.95713e-08
6.8217e-08
6.67658e-08
6.52231e-08
6.35949e-08
6.18877e-08
6.01086e-08
5.82652e-08
5.63653e-08
5.44172e-08
5.24293e-08
5.04103e-08
4.83687e-08
4.63132e-08
4.42522e-08
4.21939e-08
4.01463e-08
3.81169e-08
3.6113e-08
3.4141e-08
3.22072e-08
3.0317e-08
2.84754e-08
2.66865e-08
2.49542e-08
2.32813e-08
2.16702e-08
2.01226e-08
1.86397e-08
1.72221e-08
1.58698e-08
1.45826e-08
1.33593e-08
1.21989e-08
1.10996e-08
1.00596e-08
9.07674e-09
8.14882e-09
7.27342e-09
6.44811e-09
5.6705e-09
4.93833e-09
4.24955e-09
3.60244e-09
2.99572e-09
2.42878e-09
1.90189e-09
1.41661e-09
9.76531e-10
5.88788e-10
2.68466e-10
5.36935e-11
5.8456e-10
5.02949e-09
1.13641e-08
1.89046e-08
2.73325e-08
3.64494e-08
4.6112e-08
5.62077e-08
6.66444e-08
7.73449e-08
8.82438e-08
9.92858e-08
1.10424e-07
1.21621e-07
1.32844e-07
1.44068e-07
1.55273e-07
1.66446e-07
1.77577e-07
1.88663e-07
1.99701e-07
2.10695e-07
2.2165e-07
2.32573e-07
2.43476e-07
2.54368e-07
2.65261e-07
2.76168e-07
2.871e-07
2.98069e-07
3.09086e-07
3.2016e-07
3.313e-07
3.42513e-07
3.53802e-07
3.65171e-07
3.76621e-07
3.88152e-07
3.99759e-07
4.11437e-07
4.2318e-07
4.34979e-07
4.46822e-07
4.58695e-07
4.70585e-07
4.82473e-07
4.94342e-07
5.0617e-07
5.17934e-07
5.29611e-07
5.41175e-07
5.52596e-07
5.63846e-07
5.74893e-07
5.85703e-07
5.96242e-07
6.06474e-07
6.16361e-07
6.25863e-07
6.3494e-07
6.43552e-07
6.51654e-07
6.59205e-07
6.66162e-07
6.7248e-07
6.78117e-07
6.83029e-07
6.87173e-07
6.90506e-07
6.9299e-07
6.9458e-07
6.95248e-07
6.95002e-07
6.93789e-07
6.91585e-07
6.88371e-07
6.84132e-07
6.78862e-07
6.72558e-07
6.65226e-07
6.56875e-07
6.47521e-07
6.37189e-07
6.25909e-07
6.13715e-07
6.0065e-07
5.86762e-07
5.72106e-07
5.5674e-07
5.40728e-07
5.24138e-07
5.07041e-07
4.8951e-07
4.71623e-07
4.53456e-07
4.35087e-07
4.16593e-07
3.9805e-07
3.79532e-07
3.6111e-07
3.42853e-07
3.24825e-07
3.07085e-07
2.89688e-07
2.72684e-07
2.56117e-07
2.40026e-07
2.24442e-07
2.09393e-07
1.949e-07
1.80979e-07
1.6764e-07
1.54888e-07
1.42724e-07
1.31142e-07
1.20137e-07
1.09698e-07
9.98085e-08
9.04533e-08
8.16128e-08
7.32663e-08
6.53924e-08
5.79691e-08
5.0975e-08
4.43894e-08
3.8194e-08
3.23728e-08
2.69146e-08
2.18132e-08
1.7071e-08
1.27011e-08
8.73427e-09
5.23039e-09
2.31007e-09
2.68353e-10
1.28244e-09
1.13914e-08
2.59578e-08
4.33638e-08
6.28398e-08
8.39133e-08
1.06247e-07
1.2958e-07
1.53698e-07
1.78423e-07
2.03605e-07
2.29114e-07
2.54846e-07
2.80708e-07
3.0663e-07
3.32552e-07
3.58431e-07
3.84233e-07
4.09938e-07
4.35536e-07
4.61025e-07
4.86411e-07
5.11707e-07
5.36932e-07
5.62108e-07
5.87262e-07
6.12419e-07
6.37609e-07
6.62861e-07
6.88199e-07
7.1365e-07
7.39236e-07
7.64976e-07
7.90884e-07
8.16973e-07
8.43248e-07
8.69712e-07
8.96362e-07
9.2319e-07
9.50185e-07
9.7733e-07
1.0046e-06
1.03198e-06
1.05942e-06
1.0869e-06
1.11438e-06
1.14181e-06
1.16914e-06
1.19633e-06
1.22331e-06
1.25002e-06
1.2764e-06
1.30238e-06
1.32789e-06
1.35284e-06
1.37717e-06
1.40077e-06
1.42358e-06
1.44549e-06
1.46642e-06
1.48626e-06
1.50492e-06
1.52231e-06
1.53831e-06
1.55283e-06
1.56578e-06
1.57705e-06
1.58655e-06
1.59417e-06
1.59985e-06
1.60345e-06
1.60491e-06
1.60428e-06
1.60142e-06
1.59626e-06
1.58877e-06
1.57891e-06
1.56668e-06
1.55206e-06
1.53507e-06
1.51573e-06
1.49407e-06
1.47016e-06
1.44407e-06
1.41587e-06
1.38566e-06
1.35356e-06
1.31969e-06
1.28418e-06
1.24719e-06
1.20887e-06
1.16938e-06
1.1289e-06
1.08759e-06
1.04565e-06
1.00325e-06
9.60557e-07
9.17759e-07
8.75023e-07
8.32514e-07
7.90388e-07
7.48794e-07
7.07868e-07
6.67737e-07
6.28516e-07
5.90305e-07
5.53193e-07
5.17255e-07
4.82552e-07
4.49135e-07
4.17037e-07
3.86283e-07
3.56885e-07
3.28843e-07
3.02149e-07
2.76784e-07
2.52722e-07
2.29931e-07
2.08369e-07
1.87995e-07
1.68759e-07
1.50612e-07
1.33503e-07
1.17383e-07
1.02203e-07
8.79224e-08
7.45031e-08
6.1919e-08
5.01562e-08
3.92199e-08
2.91417e-08
1.99945e-08
1.19233e-08
5.22167e-09
5.87527e-10
2.12798e-09
1.90318e-08
4.35503e-08
7.29581e-08
1.05922e-07
1.41619e-07
1.79463e-07
2.19003e-07
2.59874e-07
3.01772e-07
3.4444e-07
3.87662e-07
4.31255e-07
4.75067e-07
5.18976e-07
5.62883e-07
6.06711e-07
6.50409e-07
6.93941e-07
7.37289e-07
7.80452e-07
8.23441e-07
8.66279e-07
9.08998e-07
9.51636e-07
9.94239e-07
1.03685e-06
1.07953e-06
1.12231e-06
1.16524e-06
1.20837e-06
1.25174e-06
1.29537e-06
1.33929e-06
1.38352e-06
1.42806e-06
1.47294e-06
1.51812e-06
1.56362e-06
1.60939e-06
1.65542e-06
1.70167e-06
1.74808e-06
1.79461e-06
1.84119e-06
1.88777e-06
1.93425e-06
1.98057e-06
2.02662e-06
2.07232e-06
2.11755e-06
2.16221e-06
2.20618e-06
2.24934e-06
2.29155e-06
2.33267e-06
2.37258e-06
2.41111e-06
2.44811e-06
2.48343e-06
2.5169e-06
2.54837e-06
2.57765e-06
2.6046e-06
2.62902e-06
2.65077e-06
2.66967e-06
2.68557e-06
2.6983e-06
2.70773e-06
2.71362e-06
2.71591e-06
2.71467e-06
2.70965e-06
2.70074e-06
2.68789e-06
2.67103e-06
2.65016e-06
2.62525e-06
2.59633e-06
2.56343e-06
2.52664e-06
2.48603e-06
2.44173e-06
2.39388e-06
2.34263e-06
2.28819e-06
2.23077e-06
2.17058e-06
2.10789e-06
2.04296e-06
1.97607e-06
1.90751e-06
1.83757e-06
1.76656e-06
1.69478e-06
1.62253e-06
1.55011e-06
1.4778e-06
1.40589e-06
1.33464e-06
1.2643e-06
1.1951e-06
1.12726e-06
1.06096e-06
9.96382e-07
9.3367e-07
8.7295e-07
8.14326e-07
7.57879e-07
7.03669e-07
6.51735e-07
6.02096e-07
5.54753e-07
5.09689e-07
4.66874e-07
4.26262e-07
3.87795e-07
3.51408e-07
3.17024e-07
2.84563e-07
2.5394e-07
2.25069e-07
1.97866e-07
1.7225e-07
1.48149e-07
1.255e-07
1.0426e-07
8.44061e-08
6.59477e-08
4.89418e-08
3.35181e-08
1.99318e-08
8.69233e-09
9.71332e-10
3.08865e-09
2.76911e-08
6.35094e-08
1.06591e-07
1.54968e-07
2.07406e-07
2.63028e-07
3.2116e-07
3.81256e-07
4.42863e-07
5.05602e-07
5.69152e-07
6.33245e-07
6.97656e-07
7.62204e-07
8.26744e-07
8.91167e-07
9.55393e-07
1.01937e-06
1.08308e-06
1.14652e-06
1.2097e-06
1.27266e-06
1.33546e-06
1.39813e-06
1.46077e-06
1.52342e-06
1.58617e-06
1.64909e-06
1.71224e-06
1.77569e-06
1.83949e-06
1.90369e-06
1.96832e-06
2.03341e-06
2.09897e-06
2.16502e-06
2.23152e-06
2.29848e-06
2.36584e-06
2.43357e-06
2.50161e-06
2.56988e-06
2.63832e-06
2.70682e-06
2.77528e-06
2.8436e-06
2.91164e-06
2.97927e-06
3.04636e-06
3.11274e-06
3.17825e-06
3.24272e-06
3.30597e-06
3.36779e-06
3.42801e-06
3.48639e-06
3.54273e-06
3.59681e-06
3.64839e-06
3.69724e-06
3.74312e-06
3.78578e-06
3.82499e-06
3.8605e-06
3.89207e-06
3.91945e-06
3.94242e-06
3.96074e-06
3.97422e-06
3.98247e-06
3.98548e-06
3.98333e-06
3.97562e-06
3.96222e-06
3.94304e-06
3.918e-06
3.88706e-06
3.85021e-06
3.80749e-06
3.75895e-06
3.7047e-06
3.64486e-06
3.57961e-06
3.50915e-06
3.43374e-06
3.35364e-06
3.26917e-06
3.18067e-06
3.08851e-06
2.99307e-06
2.89476e-06
2.79402e-06
2.69128e-06
2.58699e-06
2.48158e-06
2.37551e-06
2.2692e-06
2.16309e-06
2.05759e-06
1.95307e-06
1.84991e-06
1.74845e-06
1.649e-06
1.55184e-06
1.45721e-06
1.36535e-06
1.27642e-06
1.19058e-06
1.10794e-06
1.02859e-06
9.52594e-07
8.79965e-07
8.10707e-07
7.44793e-07
6.82177e-07
6.2279e-07
5.66547e-07
5.13348e-07
4.63083e-07
4.1563e-07
3.70865e-07
3.28663e-07
2.88898e-07
2.51452e-07
2.1622e-07
1.83111e-07
1.5206e-07
1.23037e-07
9.60605e-08
7.12176e-08
4.87063e-08
2.89101e-08
1.25791e-08
1.40221e-09
4.14895e-09
3.72394e-08
8.55212e-08
1.4371e-07
2.09147e-07
2.80147e-07
3.55505e-07
4.34292e-07
5.15758e-07
5.99282e-07
6.84344e-07
7.70507e-07
8.57402e-07
9.44727e-07
1.03223e-06
1.11972e-06
1.20705e-06
1.29411e-06
1.38083e-06
1.46718e-06
1.55316e-06
1.6388e-06
1.72415e-06
1.80927e-06
1.89425e-06
1.97917e-06
2.06413e-06
2.14924e-06
2.23458e-06
2.32025e-06
2.40633e-06
2.4929e-06
2.58002e-06
2.66772e-06
2.75605e-06
2.84503e-06
2.93464e-06
3.02488e-06
3.1157e-06
3.20707e-06
3.29891e-06
3.39115e-06
3.48367e-06
3.57638e-06
3.66914e-06
3.76181e-06
3.85424e-06
3.94625e-06
4.03766e-06
4.12827e-06
4.21788e-06
4.30627e-06
4.39319e-06
4.4784e-06
4.56165e-06
4.64266e-06
4.72115e-06
4.79685e-06
4.86944e-06
4.93862e-06
5.00407e-06
5.06549e-06
5.12254e-06
5.17491e-06
5.22227e-06
5.26429e-06
5.30066e-06
5.33107e-06
5.35522e-06
5.37283e-06
5.38332e-06
5.38684e-06
5.38341e-06
5.37249e-06
5.35389e-06
5.32748e-06
5.29319e-06
5.25094e-06
5.20074e-06
5.14261e-06
5.07664e-06
5.00296e-06
4.92175e-06
4.83323e-06
4.7377e-06
4.63547e-06
4.52692e-06
4.41247e-06
4.29258e-06
4.16775e-06
4.03851e-06
3.90541e-06
3.76904e-06
3.62998e-06
3.48884e-06
3.34622e-06
3.20273e-06
3.05896e-06
2.91549e-06
2.77286e-06
2.63161e-06
2.49223e-06
2.35518e-06
2.22088e-06
2.0897e-06
1.962e-06
1.83804e-06
1.71809e-06
1.60233e-06
1.49093e-06
1.38399e-06
1.28158e-06
1.18375e-06
1.09047e-06
1.00172e-06
9.17419e-07
8.37483e-07
7.61789e-07
6.902e-07
6.22565e-07
5.5872e-07
4.98495e-07
4.41718e-07
3.8822e-07
3.37843e-07
2.90442e-07
2.45899e-07
2.04127e-07
1.65088e-07
1.28812e-07
9.54221e-08
6.51937e-08
3.8649e-08
1.67941e-08
1.86992e-09
5.30084e-09
4.76078e-08
1.09422e-07
1.84026e-07
2.68019e-07
3.59235e-07
4.56108e-07
5.57431e-07
6.62228e-07
7.6969e-07
8.79142e-07
9.90014e-07
1.10183e-06
1.2142e-06
1.32679e-06
1.43937e-06
1.55173e-06
1.66373e-06
1.7753e-06
1.8864e-06
1.99702e-06
2.1072e-06
2.21701e-06
2.32654e-06
2.43589e-06
2.54518e-06
2.65453e-06
2.76407e-06
2.87393e-06
2.98423e-06
3.09506e-06
3.20651e-06
3.31867e-06
3.43159e-06
3.54531e-06
3.65983e-06
3.77515e-06
3.89125e-06
4.00807e-06
4.12554e-06
4.24358e-06
4.36206e-06
4.48086e-06
4.59983e-06
4.71879e-06
4.83756e-06
4.95593e-06
5.07369e-06
5.1906e-06
5.30639e-06
5.42082e-06
5.53358e-06
5.64438e-06
5.75291e-06
5.85885e-06
5.96185e-06
6.06156e-06
6.15762e-06
6.24965e-06
6.33728e-06
6.4201e-06
6.49772e-06
6.56974e-06
6.63575e-06
6.69534e-06
6.74812e-06
6.79368e-06
6.83163e-06
6.86161e-06
6.88325e-06
6.89572e-06
6.89947e-06
6.89433e-06
6.87963e-06
6.85514e-06
6.82071e-06
6.77621e-06
6.72158e-06
6.65679e-06
6.58189e-06
6.49698e-06
6.40222e-06
6.29783e-06
6.18411e-06
6.06141e-06
5.93015e-06
5.7908e-06
5.6439e-06
5.49003e-06
5.32984e-06
5.16401e-06
4.99324e-06
4.81829e-06
4.63992e-06
4.45889e-06
4.276e-06
4.09203e-06
3.90772e-06
3.72382e-06
3.54106e-06
3.3601e-06
3.18158e-06
3.00609e-06
2.83418e-06
2.66632e-06
2.50294e-06
2.34442e-06
2.19106e-06
2.04311e-06
1.90078e-06
1.76419e-06
1.63343e-06
1.50854e-06
1.38951e-06
1.27628e-06
1.16876e-06
1.06682e-06
9.70311e-07
8.7905e-07
7.9284e-07
7.11469e-07
6.34717e-07
5.62362e-07
4.94188e-07
4.29991e-07
3.69589e-07
3.12828e-07
2.59604e-07
2.09871e-07
1.63671e-07
1.2117e-07
8.27234e-08
4.90004e-08
2.12744e-08
2.36732e-09
6.54033e-09
5.87619e-08
1.3513e-07
2.27394e-07
3.31366e-07
4.44361e-07
5.64434e-07
6.90075e-07
8.20063e-07
9.53384e-07
1.08919e-06
1.22677e-06
1.36553e-06
1.50497e-06
1.6447e-06
1.78439e-06
1.92381e-06
2.06279e-06
2.20122e-06
2.33905e-06
2.4763e-06
2.613e-06
2.74924e-06
2.88513e-06
3.02081e-06
3.15642e-06
3.29211e-06
3.42805e-06
3.56438e-06
3.70125e-06
3.83878e-06
3.97708e-06
4.11623e-06
4.2563e-06
4.39732e-06
4.5393e-06
4.68222e-06
4.82605e-06
4.97069e-06
5.11607e-06
5.26205e-06
5.40848e-06
5.55521e-06
5.70202e-06
5.8487e-06
5.99502e-06
6.14073e-06
6.28554e-06
6.42917e-06
6.57129e-06
6.71159e-06
6.84971e-06
6.98529e-06
7.11796e-06
7.24732e-06
7.37296e-06
7.49447e-06
7.61139e-06
7.7233e-06
7.82972e-06
7.93019e-06
8.02424e-06
8.11137e-06
8.19111e-06
8.26297e-06
8.32647e-06
8.38113e-06
8.42647e-06
8.46205e-06
8.48743e-06
8.50145e-06
8.50506e-06
8.49773e-06
8.47867e-06
8.44764e-06
8.40443e-06
8.34889e-06
8.28093e-06
8.20053e-06
8.10772e-06
8.00262e-06
7.88543e-06
7.75641e-06
7.61591e-06
7.46436e-06
7.30226e-06
7.13021e-06
6.94885e-06
6.75891e-06
6.56116e-06
6.35646e-06
6.14567e-06
5.92971e-06
5.70954e-06
5.48612e-06
5.2604e-06
5.03336e-06
4.80593e-06
4.57905e-06
4.35359e-06
4.1304e-06
3.91026e-06
3.69392e-06
3.48203e-06
3.2752e-06
3.07395e-06
2.87874e-06
2.68995e-06
2.50788e-06
2.33277e-06
2.1648e-06
2.00404e-06
1.85055e-06
1.70431e-06
1.56523e-06
1.4332e-06
1.30806e-06
1.18961e-06
1.07762e-06
9.71853e-07
8.7203e-07
7.77883e-07
6.89135e-07
6.0552e-07
5.26784e-07
4.52704e-07
3.83096e-07
3.1783e-07
2.56856e-07
2.00232e-07
1.48166e-07
1.01099e-07
5.98504e-08
2.59711e-08
2.88888e-09
7.86592e-09
7.0689e-08
1.62617e-07
2.73762e-07
3.99103e-07
5.35406e-07
6.80323e-07
8.32021e-07
9.89015e-07
1.15007e-06
1.31416e-06
1.48041e-06
1.64808e-06
1.81659e-06
1.98544e-06
2.15424e-06
2.3227e-06
2.49062e-06
2.65786e-06
2.82438e-06
2.99017e-06
3.15529e-06
3.31985e-06
3.48399e-06
3.64785e-06
3.81163e-06
3.97551e-06
4.13968e-06
4.3043e-06
4.46955e-06
4.63558e-06
4.80249e-06
4.97039e-06
5.13934e-06
5.30936e-06
5.48046e-06
5.65261e-06
5.82572e-06
5.99971e-06
6.17443e-06
6.34974e-06
6.52544e-06
6.70132e-06
6.87713e-06
7.0526e-06
7.22746e-06
7.40138e-06
7.57404e-06
7.74509e-06
7.91415e-06
8.08084e-06
8.24475e-06
8.40547e-06
8.56254e-06
8.71551e-06
8.86391e-06
9.00725e-06
9.14503e-06
9.27673e-06
9.40182e-06
9.51976e-06
9.63001e-06
9.732e-06
9.82518e-06
9.90897e-06
9.98283e-06
1.00462e-05
1.00985e-05
1.01392e-05
1.01678e-05
1.01828e-05
1.01858e-05
1.01757e-05
1.01517e-05
1.01135e-05
1.00608e-05
9.99347e-06
9.91139e-06
9.81451e-06
9.70288e-06
9.57662e-06
9.43595e-06
9.28119e-06
9.11272e-06
8.93106e-06
8.7368e-06
8.53063e-06
8.31332e-06
8.08572e-06
7.84877e-06
7.60347e-06
7.35087e-06
7.09206e-06
6.82819e-06
6.5604e-06
6.28985e-06
6.01771e-06
5.74512e-06
5.47318e-06
5.20296e-06
4.93548e-06
4.6717e-06
4.4125e-06
4.15867e-06
3.91096e-06
3.66999e-06
3.4363e-06
3.21037e-06
2.99254e-06
2.78311e-06
2.58227e-06
2.39013e-06
2.20673e-06
2.03204e-06
1.86596e-06
1.70835e-06
1.55901e-06
1.41768e-06
1.28409e-06
1.15795e-06
1.03891e-06
9.26659e-07
8.20855e-07
7.21176e-07
6.2732e-07
5.39019e-07
4.56053e-07
3.78273e-07
3.05621e-07
2.3817e-07
1.76175e-07
1.20162e-07
7.1107e-08
3.08446e-08
3.43017e-09
9.27779e-09
8.33911e-08
1.91887e-07
3.23138e-07
4.71237e-07
6.32376e-07
8.03776e-07
9.83265e-07
1.16908e-06
1.35974e-06
1.55403e-06
1.75089e-06
1.94946e-06
2.14902e-06
2.34897e-06
2.54886e-06
2.74833e-06
2.94712e-06
3.1451e-06
3.34219e-06
3.5384e-06
3.73379e-06
3.9285e-06
4.12267e-06
4.3165e-06
4.5102e-06
4.70399e-06
4.89808e-06
5.09268e-06
5.28796e-06
5.48409e-06
5.6812e-06
5.87939e-06
6.0787e-06
6.27917e-06
6.48076e-06
6.68343e-06
6.88706e-06
7.09154e-06
7.29669e-06
7.5023e-06
7.70814e-06
7.91395e-06
8.11943e-06
8.32427e-06
8.52812e-06
8.73062e-06
8.93138e-06
9.13e-06
9.32606e-06
9.51911e-06
9.70868e-06
9.89431e-06
1.00755e-05
1.02517e-05
1.04224e-05
1.05871e-05
1.07452e-05
1.08962e-05
1.10393e-05
1.11741e-05
1.12999e-05
1.1416e-05
1.1522e-05
1.1617e-05
1.17005e-05
1.17719e-05
1.18304e-05
1.18756e-05
1.19067e-05
1.19219e-05
1.19238e-05
1.19103e-05
1.18806e-05
1.18345e-05
1.17717e-05
1.16919e-05
1.1595e-05
1.1481e-05
1.13499e-05
1.12017e-05
1.10369e-05
1.08556e-05
1.06584e-05
1.04459e-05
1.02186e-05
9.97742e-06
9.72323e-06
9.457e-06
9.17981e-06
8.89282e-06
8.59724e-06
8.29437e-06
7.98552e-06
7.67203e-06
7.35528e-06
7.03661e-06
6.71737e-06
6.39887e-06
6.08236e-06
5.76904e-06
5.46005e-06
5.15642e-06
4.85912e-06
4.56899e-06
4.28679e-06
4.01318e-06
3.74868e-06
3.49374e-06
3.24868e-06
3.01373e-06
2.78902e-06
2.5746e-06
2.37043e-06
2.17638e-06
1.99228e-06
1.81788e-06
1.65289e-06
1.49698e-06
1.34978e-06
1.21091e-06
1.07997e-06
9.56562e-07
8.40315e-07
7.30868e-07
6.27907e-07
5.31176e-07
4.40501e-07
3.5582e-07
2.77221e-07
2.05004e-07
1.39785e-07
8.26948e-08
3.58622e-08
3.98754e-09
1.07773e-08
9.68797e-08
2.22969e-07
3.75569e-07
5.47838e-07
7.35359e-07
9.34903e-07
1.14394e-06
1.3604e-06
1.58257e-06
1.809e-06
2.03846e-06
2.26992e-06
2.50252e-06
2.73558e-06
2.96853e-06
3.20095e-06
3.43256e-06
3.66317e-06
3.89269e-06
4.12114e-06
4.34859e-06
4.57518e-06
4.8011e-06
5.02657e-06
5.25183e-06
5.47712e-06
5.70268e-06
5.92875e-06
6.15552e-06
6.38317e-06
6.61181e-06
6.84156e-06
7.07245e-06
7.30448e-06
7.53761e-06
7.77175e-06
8.00676e-06
8.24248e-06
8.47868e-06
8.71512e-06
8.95151e-06
9.18753e-06
9.42285e-06
9.65709e-06
9.88986e-06
1.01207e-05
1.03493e-05
1.05751e-05
1.07976e-05
1.10164e-05
1.1231e-05
1.14407e-05
1.16452e-05
1.18438e-05
1.20359e-05
1.22209e-05
1.23983e-05
1.25674e-05
1.27275e-05
1.2878e-05
1.30182e-05
1.31475e-05
1.32651e-05
1.33703e-05
1.34624e-05
1.35407e-05
1.36046e-05
1.36533e-05
1.36858e-05
1.37005e-05
1.37005e-05
1.36827e-05
1.36467e-05
1.3592e-05
1.35184e-05
1.34256e-05
1.33134e-05
1.31817e-05
1.30307e-05
1.28603e-05
1.26709e-05
1.24628e-05
1.22366e-05
1.19928e-05
1.17323e-05
1.14558e-05
1.11644e-05
1.08592e-05
1.05414e-05
1.02123e-05
9.87331e-06
9.52585e-06
9.17144e-06
8.81162e-06
8.44795e-06
8.08197e-06
7.71524e-06
7.34927e-06
6.9855e-06
6.62532e-06
6.27005e-06
5.92091e-06
5.57899e-06
5.24532e-06
4.92075e-06
4.60606e-06
4.30188e-06
4.00872e-06
3.72696e-06
3.45687e-06
3.19862e-06
2.95224e-06
2.7177e-06
2.49485e-06
2.28348e-06
2.08331e-06
1.89399e-06
1.71513e-06
1.5463e-06
1.38706e-06
1.23694e-06
1.09549e-06
9.6226e-07
8.36839e-07
7.18863e-07
6.08038e-07
5.04166e-07
4.07176e-07
3.17172e-07
2.34499e-07
1.59861e-07
9.45524e-08
4.09973e-08
4.55804e-09
1.23664e-08
1.11174e-07
2.55905e-07
4.31128e-07
6.29012e-07
8.44501e-07
1.07389e-06
1.31427e-06
1.56326e-06
1.81888e-06
2.07943e-06
2.3435e-06
2.60988e-06
2.87756e-06
3.14573e-06
3.41373e-06
3.68107e-06
3.94741e-06
4.21251e-06
4.47629e-06
4.73874e-06
4.99995e-06
5.26009e-06
5.51936e-06
5.77801e-06
6.0363e-06
6.29452e-06
6.55293e-06
6.81177e-06
7.07125e-06
7.33156e-06
7.59281e-06
7.8551e-06
8.11844e-06
8.38281e-06
8.64815e-06
8.91431e-06
9.18113e-06
9.44838e-06
9.71581e-06
9.9831e-06
1.02499e-05
1.05159e-05
1.07807e-05
1.10439e-05
1.13049e-05
1.15634e-05
1.18189e-05
1.20709e-05
1.23188e-05
1.25622e-05
1.28005e-05
1.30331e-05
1.32594e-05
1.34789e-05
1.36909e-05
1.38948e-05
1.40899e-05
1.42756e-05
1.44511e-05
1.46159e-05
1.4769e-05
1.49098e-05
1.50376e-05
1.51515e-05
1.52509e-05
1.53348e-05
1.54027e-05
1.54537e-05
1.54863e-05
1.54998e-05
1.54968e-05
1.54739e-05
1.54307e-05
1.53668e-05
1.52819e-05
1.51756e-05
1.50477e-05
1.48982e-05
1.4727e-05
1.45344e-05
1.43205e-05
1.40857e-05
1.38306e-05
1.35559e-05
1.32624e-05
1.29509e-05
1.26227e-05
1.22789e-05
1.19209e-05
1.155e-05
1.11679e-05
1.07761e-05
1.03763e-05
9.97018e-06
9.55959e-06
9.14622e-06
8.73181e-06
8.31808e-06
7.90667e-06
7.49917e-06
7.09708e-06
6.70179e-06
6.31457e-06
5.93659e-06
5.56886e-06
5.21227e-06
4.86756e-06
4.53531e-06
4.216e-06
3.90994e-06
3.61731e-06
3.33818e-06
3.07251e-06
2.82014e-06
2.58083e-06
2.35425e-06
2.14001e-06
1.93766e-06
1.74671e-06
1.56664e-06
1.39693e-06
1.23705e-06
1.08649e-06
9.44777e-07
8.11494e-07
6.86309e-07
5.68994e-07
4.5947e-07
3.57853e-07
2.64535e-07
1.80309e-07
1.06631e-07
4.62289e-08
5.13932e-09
1.40478e-08
1.26297e-07
2.90751e-07
4.89908e-07
7.14896e-07
9.59984e-07
1.22097e-06
1.49455e-06
1.778e-06
2.06906e-06
2.36578e-06
2.66652e-06
2.96989e-06
3.27471e-06
3.58003e-06
3.88509e-06
4.1893e-06
4.49225e-06
4.79368e-06
5.09347e-06
5.39162e-06
5.68822e-06
5.98344e-06
6.27752e-06
6.57074e-06
6.86338e-06
7.15576e-06
7.44815e-06
7.74082e-06
8.03397e-06
8.3278e-06
8.62241e-06
8.91787e-06
9.21418e-06
9.51128e-06
9.80907e-06
1.01074e-05
1.0406e-05
1.07046e-05
1.10029e-05
1.13006e-05
1.15972e-05
1.18924e-05
1.21857e-05
1.24767e-05
1.27648e-05
1.30497e-05
1.33307e-05
1.36073e-05
1.3879e-05
1.41452e-05
1.44054e-05
1.4659e-05
1.49053e-05
1.51437e-05
1.53736e-05
1.55944e-05
1.58053e-05
1.60056e-05
1.61946e-05
1.63715e-05
1.65356e-05
1.66861e-05
1.68222e-05
1.69431e-05
1.70479e-05
1.71359e-05
1.72062e-05
1.7258e-05
1.72893e-05
1.73006e-05
1.72935e-05
1.72646e-05
1.72134e-05
1.71397e-05
1.70429e-05
1.69228e-05
1.67791e-05
1.66118e-05
1.64207e-05
1.62061e-05
1.59682e-05
1.57074e-05
1.54242e-05
1.51194e-05
1.47939e-05
1.44485e-05
1.40845e-05
1.37032e-05
1.3306e-05
1.28945e-05
1.24703e-05
1.20351e-05
1.15909e-05
1.11394e-05
1.06826e-05
1.02224e-05
9.76082e-06
9.29968e-06
8.84085e-06
8.38611e-06
7.93715e-06
7.49555e-06
7.06276e-06
6.6401e-06
6.22875e-06
5.82973e-06
5.44389e-06
5.07193e-06
4.7144e-06
4.37167e-06
4.04399e-06
3.73143e-06
3.43397e-06
3.15144e-06
2.88357e-06
2.63001e-06
2.39032e-06
2.16398e-06
1.95046e-06
1.74916e-06
1.55948e-06
1.38083e-06
1.21264e-06
1.05435e-06
9.05516e-07
7.65745e-07
6.34783e-07
5.12539e-07
3.9914e-07
2.95021e-07
2.01066e-07
1.18894e-07
5.1541e-08
5.72959e-09
1.58242e-08
1.42275e-07
3.27566e-07
5.52011e-07
8.0564e-07
1.08201e-06
1.37641e-06
1.68509e-06
2.00501e-06
2.33356e-06
2.66855e-06
3.00808e-06
3.35056e-06
3.69462e-06
4.03916e-06
4.38327e-06
4.72629e-06
5.06772e-06
5.40726e-06
5.74475e-06
6.08018e-06
6.41366e-06
6.74537e-06
7.07556e-06
7.40455e-06
7.73265e-06
8.06018e-06
8.38744e-06
8.71471e-06
9.04219e-06
9.37006e-06
9.69842e-06
1.00273e-05
1.03567e-05
1.06865e-05
1.10165e-05
1.13466e-05
1.16765e-05
1.20057e-05
1.23341e-05
1.26611e-05
1.29864e-05
1.33095e-05
1.36299e-05
1.39471e-05
1.42606e-05
1.45698e-05
1.48743e-05
1.51735e-05
1.54668e-05
1.57537e-05
1.60335e-05
1.63056e-05
1.65695e-05
1.68245e-05
1.70699e-05
1.7305e-05
1.75292e-05
1.77416e-05
1.79416e-05
1.81284e-05
1.83011e-05
1.8459e-05
1.86013e-05
1.87269e-05
1.88352e-05
1.89253e-05
1.89962e-05
1.90472e-05
1.90755e-05
1.90837e-05
1.90712e-05
1.90352e-05
1.89754e-05
1.88913e-05
1.87824e-05
1.86484e-05
1.8489e-05
1.83042e-05
1.80939e-05
1.78581e-05
1.75972e-05
1.73115e-05
1.70017e-05
1.66683e-05
1.63123e-05
1.59348e-05
1.55369e-05
1.512e-05
1.46856e-05
1.42352e-05
1.37708e-05
1.3294e-05
1.2807e-05
1.23117e-05
1.18101e-05
1.13045e-05
1.07968e-05
1.02893e-05
9.7838e-06
9.28244e-06
8.78706e-06
8.29943e-06
7.82119e-06
7.35384e-06
6.89872e-06
6.457e-06
6.02967e-06
5.61756e-06
5.2213e-06
4.84136e-06
4.47803e-06
4.13145e-06
3.8016e-06
3.48832e-06
3.19133e-06
2.91025e-06
2.64459e-06
2.3938e-06
2.15726e-06
1.93433e-06
1.72432e-06
1.52659e-06
1.34047e-06
1.16536e-06
1.00074e-06
8.46188e-07
7.014e-07
5.66274e-07
4.40947e-07
3.25894e-07
2.22089e-07
1.31316e-07
5.69227e-08
6.32764e-09
1.76988e-08
1.59135e-07
3.66413e-07
6.17544e-07
9.01403e-07
1.21081e-06
1.54048e-06
1.88625e-06
2.24468e-06
2.61286e-06
2.98828e-06
3.36879e-06
3.75253e-06
4.13796e-06
4.52378e-06
4.90896e-06
5.29269e-06
5.67442e-06
6.05376e-06
6.43054e-06
6.80474e-06
7.17644e-06
7.54587e-06
7.91329e-06
8.27904e-06
8.64345e-06
9.00686e-06
9.36958e-06
9.7319e-06
1.0094e-05
1.04561e-05
1.08182e-05
1.11804e-05
1.15425e-05
1.19045e-05
1.22662e-05
1.26272e-05
1.29872e-05
1.33459e-05
1.3703e-05
1.40578e-05
1.441e-05
1.47591e-05
1.51045e-05
1.54458e-05
1.57823e-05
1.61136e-05
1.64392e-05
1.67583e-05
1.70705e-05
1.73753e-05
1.76719e-05
1.79598e-05
1.82383e-05
1.85069e-05
1.87649e-05
1.90115e-05
1.9246e-05
1.94677e-05
1.96759e-05
1.98698e-05
2.00484e-05
2.02111e-05
2.03569e-05
2.0485e-05
2.05944e-05
2.06844e-05
2.0754e-05
2.08022e-05
2.0826e-05
2.083e-05
2.08108e-05
2.0767e-05
2.06978e-05
2.06029e-05
2.04817e-05
2.03341e-05
2.01595e-05
1.9958e-05
1.97294e-05
1.94738e-05
1.91915e-05
1.88827e-05
1.85482e-05
1.81885e-05
1.78045e-05
1.73973e-05
1.6968e-05
1.65181e-05
1.60491e-05
1.55626e-05
1.50606e-05
1.45448e-05
1.40174e-05
1.34806e-05
1.29364e-05
1.23873e-05
1.18353e-05
1.12829e-05
1.07321e-05
1.01853e-05
9.64441e-06
9.11145e-06
8.58825e-06
8.07651e-06
7.57775e-06
7.0933e-06
6.62432e-06
6.17177e-06
5.73641e-06
5.3188e-06
4.91933e-06
4.53818e-06
4.17537e-06
3.83077e-06
3.50409e-06
3.19494e-06
2.90279e-06
2.62706e-06
2.36706e-06
2.12208e-06
1.89138e-06
1.67423e-06
1.4699e-06
1.27772e-06
1.0971e-06
9.27563e-07
7.68779e-07
6.2062e-07
4.83229e-07
3.5712e-07
2.43355e-07
1.43882e-07
6.2368e-08
6.9328e-09
1.96745e-08
1.76905e-07
4.07357e-07
6.86617e-07
1.00234e-06
1.34658e-06
1.71346e-06
2.09837e-06
2.49745e-06
2.90744e-06
3.32551e-06
3.74921e-06
4.17643e-06
4.60538e-06
5.03456e-06
5.46278e-06
5.8891e-06
6.31286e-06
6.73362e-06
7.15116e-06
7.56544e-06
7.97655e-06
8.38473e-06
8.79026e-06
9.1935e-06
9.5948e-06
9.99452e-06
1.0393e-05
1.07905e-05
1.11872e-05
1.15832e-05
1.19787e-05
1.23735e-05
1.27676e-05
1.31608e-05
1.35529e-05
1.39435e-05
1.43322e-05
1.47187e-05
1.51024e-05
1.5483e-05
1.58599e-05
1.62326e-05
1.66005e-05
1.69631e-05
1.732e-05
1.76704e-05
1.80139e-05
1.835e-05
1.86779e-05
1.89973e-05
1.93075e-05
1.96078e-05
1.98977e-05
2.01766e-05
2.04437e-05
2.06985e-05
2.09401e-05
2.11679e-05
2.13811e-05
2.15788e-05
2.17604e-05
2.19249e-05
2.20714e-05
2.21993e-05
2.23074e-05
2.23951e-05
2.24614e-05
2.25043e-05
2.25226e-05
2.25209e-05
2.24941e-05
2.24415e-05
2.23625e-05
2.22567e-05
2.21236e-05
2.19627e-05
2.17739e-05
2.15569e-05
2.13116e-05
2.1038e-05
2.07364e-05
2.0407e-05
2.00504e-05
1.96672e-05
1.92582e-05
1.88245e-05
1.83672e-05
1.78877e-05
1.73876e-05
1.68684e-05
1.6332e-05
1.57806e-05
1.5216e-05
1.46406e-05
1.40567e-05
1.34666e-05
1.28727e-05
1.22775e-05
1.16834e-05
1.10927e-05
1.05076e-05
9.93039e-06
9.36307e-06
8.80753e-06
8.2655e-06
7.7385e-06
7.22787e-06
6.73473e-06
6.25998e-06
5.80432e-06
5.36823e-06
4.95197e-06
4.55564e-06
4.17913e-06
3.82218e-06
3.48437e-06
3.16519e-06
2.86398e-06
2.58003e-06
2.31256e-06
2.06077e-06
1.82384e-06
1.60098e-06
1.39145e-06
1.1946e-06
1.00988e-06
8.36919e-07
6.75573e-07
5.25981e-07
3.88694e-07
2.64859e-07
1.56592e-07
6.78757e-08
7.54493e-09
2.17544e-08
1.95611e-07
4.50457e-07
7.59331e-07
1.10862e-06
1.48953e-06
1.89563e-06
2.32177e-06
2.7637e-06
3.21776e-06
3.68076e-06
4.14992e-06
4.62284e-06
5.09747e-06
5.57207e-06
6.04527e-06
6.51598e-06
6.98342e-06
7.44709e-06
7.90672e-06
8.36223e-06
8.81374e-06
9.26147e-06
9.70574e-06
1.01469e-05
1.05854e-05
1.10215e-05
1.14556e-05
1.1888e-05
1.23188e-05
1.27482e-05
1.31761e-05
1.36026e-05
1.40274e-05
1.44504e-05
1.48712e-05
1.52895e-05
1.57049e-05
1.61168e-05
1.65249e-05
1.69286e-05
1.73274e-05
1.77208e-05
1.81082e-05
1.8489e-05
1.88628e-05
1.9229e-05
1.9587e-05
1.99364e-05
2.02765e-05
2.06069e-05
2.09269e-05
2.1236e-05
2.15335e-05
2.18189e-05
2.20916e-05
2.23508e-05
2.25959e-05
2.28261e-05
2.30408e-05
2.32391e-05
2.34202e-05
2.35834e-05
2.37278e-05
2.38525e-05
2.39568e-05
2.40397e-05
2.41004e-05
2.41361e-05
2.41485e-05
2.41391e-05
2.41037e-05
2.40418e-05
2.39529e-05
2.38363e-05
2.36918e-05
2.35187e-05
2.33169e-05
2.30861e-05
2.28261e-05
2.25369e-05
2.22187e-05
2.18717e-05
2.14963e-05
2.10931e-05
2.06629e-05
2.02066e-05
1.97253e-05
1.92203e-05
1.86931e-05
1.81453e-05
1.75788e-05
1.69955e-05
1.63976e-05
1.57873e-05
1.51671e-05
1.45393e-05
1.39064e-05
1.32711e-05
1.26359e-05
1.20033e-05
1.13758e-05
1.07558e-05
1.01455e-05
9.54699e-06
8.96227e-06
8.39307e-06
7.84092e-06
7.30713e-06
6.79277e-06
6.2987e-06
5.82553e-06
5.37363e-06
4.94318e-06
4.53413e-06
4.14625e-06
3.77916e-06
3.4323e-06
3.10503e-06
2.79657e-06
2.50611e-06
2.23276e-06
1.97565e-06
1.73391e-06
1.50672e-06
1.29335e-06
1.09321e-06
9.05883e-07
7.31177e-07
5.69235e-07
4.20638e-07
2.86616e-07
1.69452e-07
7.3449e-08
8.16439e-09
2.3941e-08
2.15277e-07
4.95772e-07
8.35784e-07
1.22036e-06
1.63988e-06
2.08723e-06
2.55678e-06
3.04381e-06
3.54423e-06
4.05448e-06
4.57141e-06
5.09228e-06
5.61473e-06
6.13679e-06
6.65686e-06
7.17368e-06
7.68635e-06
8.19427e-06
8.69713e-06
9.19483e-06
9.68748e-06
1.01753e-05
1.06587e-05
1.1138e-05
1.16135e-05
1.20858e-05
1.25551e-05
1.30217e-05
1.34857e-05
1.39473e-05
1.44065e-05
1.48631e-05
1.53169e-05
1.57677e-05
1.62151e-05
1.66587e-05
1.70981e-05
1.75329e-05
1.79623e-05
1.83861e-05
1.88036e-05
1.92142e-05
1.96175e-05
2.00129e-05
2.03999e-05
2.07781e-05
2.11467e-05
2.15055e-05
2.18537e-05
2.2191e-05
2.25168e-05
2.28306e-05
2.31317e-05
2.34196e-05
2.36937e-05
2.39535e-05
2.41981e-05
2.4427e-05
2.46394e-05
2.48347e-05
2.5012e-05
2.51706e-05
2.53097e-05
2.54285e-05
2.55262e-05
2.5602e-05
2.5655e-05
2.56817e-05
2.56873e-05
2.56689e-05
2.56242e-05
2.55527e-05
2.54539e-05
2.53272e-05
2.51721e-05
2.49882e-05
2.47752e-05
2.45327e-05
2.42606e-05
2.39587e-05
2.36271e-05
2.3266e-05
2.28757e-05
2.24567e-05
2.20096e-05
2.15351e-05
2.10345e-05
2.05087e-05
1.99592e-05
1.93876e-05
1.87955e-05
1.8185e-05
1.75582e-05
1.69173e-05
1.62647e-05
1.56029e-05
1.49345e-05
1.42622e-05
1.35887e-05
1.29167e-05
1.22489e-05
1.15878e-05
1.09359e-05
1.02955e-05
9.66893e-06
9.05802e-06
8.46459e-06
7.89016e-06
7.33602e-06
6.8032e-06
6.29246e-06
5.80434e-06
5.33911e-06
4.89681e-06
4.47729e-06
4.08017e-06
3.70494e-06
3.35092e-06
3.01731e-06
2.70325e-06
2.40781e-06
2.13003e-06
1.86898e-06
1.62375e-06
1.39356e-06
1.17773e-06
9.75791e-07
7.87525e-07
6.13058e-07
4.52998e-07
3.08657e-07
1.8248e-07
7.90956e-08
8.79204e-09
2.62368e-08
2.35925e-07
5.43351e-07
9.16063e-07
1.33771e-06
1.79777e-06
2.28849e-06
2.80367e-06
3.33809e-06
3.88724e-06
4.44709e-06
5.0141e-06
5.58517e-06
6.15758e-06
6.72908e-06
7.29782e-06
7.86236e-06
8.42165e-06
8.97502e-06
9.52206e-06
1.00627e-05
1.0597e-05
1.11252e-05
1.16477e-05
1.21649e-05
1.26771e-05
1.31849e-05
1.36885e-05
1.41883e-05
1.46842e-05
1.51765e-05
1.56651e-05
1.61498e-05
1.66304e-05
1.71065e-05
1.75779e-05
1.80441e-05