/*--------------------------------*- C++ -*----------------------------------*\
  =========                 |
  \\      /  F ield         | OpenFOAM: The Open Source CFD Toolbox
   \\    /   O peration     | Website:  https://openfoam.org
    \\  /    A nd           | Version:  12
     \\/     M anipulation  |
\*---------------------------------------------------------------------------*/
FoamFile
{
    format      ascii;
    class       volScalarField;
    location    "4";
    object      nut;
}
// * * * * * * * * * * * * * * * * * * * * * * * * * * * * * * * * * * * * * //

dimensions      [0 2 -1 0 0 0 0];

internalField   nonuniform List<scalar> 
18225
(
2.87274e-15
1.43561e-14
3.14179e-14
5.19057e-14
7.48604e-14
9.97152e-14
1.2607e-13
1.53613e-13
1.82091e-13
2.11294e-13
2.41041e-13
2.71183e-13
3.01592e-13
3.32161e-13
3.62804e-13
3.93451e-13
4.24049e-13
4.54561e-13
4.8496e-13
5.15235e-13
5.45382e-13
5.75409e-13
6.05331e-13
6.35168e-13
6.64947e-13
6.94698e-13
7.24453e-13
7.54244e-13
7.84105e-13
8.14067e-13
8.44159e-13
8.74407e-13
9.04835e-13
9.35459e-13
9.66293e-13
9.97345e-13
1.02862e-12
1.06011e-12
1.09181e-12
1.1237e-12
1.15577e-12
1.18799e-12
1.22034e-12
1.25276e-12
1.28523e-12
1.31769e-12
1.3501e-12
1.3824e-12
1.41453e-12
1.44641e-12
1.47798e-12
1.50917e-12
1.53988e-12
1.57004e-12
1.59956e-12
1.62833e-12
1.65626e-12
1.68325e-12
1.70919e-12
1.73397e-12
1.75747e-12
1.77959e-12
1.80019e-12
1.81918e-12
1.83642e-12
1.85179e-12
1.86519e-12
1.8765e-12
1.88561e-12
1.89241e-12
1.89678e-12
1.89864e-12
1.898e-12
1.89471e-12
1.88873e-12
1.87998e-12
1.86843e-12
1.85407e-12
1.83689e-12
1.81689e-12
1.79411e-12
1.7686e-12
1.74041e-12
1.70962e-12
1.67634e-12
1.64068e-12
1.60277e-12
1.56276e-12
1.5208e-12
1.47709e-12
1.43178e-12
1.3851e-12
1.33722e-12
1.28838e-12
1.23876e-12
1.18859e-12
1.13808e-12
1.08743e-12
1.03685e-12
9.86535e-13
9.36666e-13
8.87421e-13
8.38963e-13
7.91442e-13
7.44993e-13
6.99737e-13
6.5578e-13
6.13209e-13
5.721e-13
5.32509e-13
4.9448e-13
4.5804e-13
4.23204e-13
3.89975e-13
3.58343e-13
3.28283e-13
2.99766e-13
2.72753e-13
2.47196e-13
2.23045e-13
2.00243e-13
1.78732e-13
1.58451e-13
1.39343e-13
1.21351e-13
1.04425e-13
8.85234e-14
7.36144e-14
5.96828e-14
4.67354e-14
3.48107e-14
2.39965e-14
1.44684e-14
6.59705e-15
1.31942e-15
1.43648e-14
1.30281e-12
4.42401e-12
8.17414e-12
1.22702e-11
1.66407e-11
2.12371e-11
2.60174e-11
3.0944e-11
3.59841e-11
4.1109e-11
4.62939e-11
5.15182e-11
5.67645e-11
6.20185e-11
6.72688e-11
7.25067e-11
7.7726e-11
8.29226e-11
8.80948e-11
9.32423e-11
9.83666e-11
1.0347e-10
1.08558e-10
1.13633e-10
1.18702e-10
1.2377e-10
1.28843e-10
1.33927e-10
1.39027e-10
1.44149e-10
1.49297e-10
1.54474e-10
1.59685e-10
1.64931e-10
1.70215e-10
1.75536e-10
1.80894e-10
1.86288e-10
1.91716e-10
1.97174e-10
2.02658e-10
2.08164e-10
2.13684e-10
2.19214e-10
2.24744e-10
2.30266e-10
2.35771e-10
2.41248e-10
2.46686e-10
2.52074e-10
2.57398e-10
2.62645e-10
2.678e-10
2.72848e-10
2.77774e-10
2.82559e-10
2.87187e-10
2.9164e-10
2.95899e-10
2.99944e-10
3.03756e-10
3.07314e-10
3.10599e-10
3.1359e-10
3.16266e-10
3.18606e-10
3.20591e-10
3.22196e-10
3.23402e-10
3.24191e-10
3.24548e-10
3.24482e-10
3.23964e-10
3.22981e-10
3.21525e-10
3.19589e-10
3.17169e-10
3.14263e-10
3.10872e-10
3.07002e-10
3.02659e-10
2.97855e-10
2.92602e-10
2.86918e-10
2.80822e-10
2.74336e-10
2.67487e-10
2.60301e-10
2.52809e-10
2.45042e-10
2.37036e-10
2.28823e-10
2.20441e-10
2.11927e-10
2.03316e-10
1.94646e-10
1.85953e-10
1.77272e-10
1.68637e-10
1.60079e-10
1.5163e-10
1.43318e-10
1.35168e-10
1.27205e-10
1.19448e-10
1.11915e-10
1.04623e-10
9.75836e-11
9.08065e-11
8.4299e-11
7.80658e-11
7.21088e-11
6.64275e-11
6.10202e-11
5.58837e-11
5.10126e-11
4.64e-11
4.20376e-11
3.79161e-11
3.40255e-11
3.03554e-11
2.68951e-11
2.3634e-11
2.05621e-11
1.76699e-11
1.49492e-11
1.23933e-11
9.99747e-12
7.7597e-12
5.6809e-12
3.76618e-12
2.03303e-12
5.98275e-13
6.59429e-15
3.15142e-14
4.42914e-12
2.24745e-11
5.06569e-11
8.34266e-11
1.18555e-10
1.55246e-10
1.93112e-10
2.31883e-10
2.71337e-10
3.11281e-10
3.51546e-10
3.9199e-10
4.32491e-10
4.72949e-10
5.13287e-10
5.53444e-10
5.9338e-10
6.33072e-10
6.72509e-10
7.11698e-10
7.50653e-10
7.89401e-10
8.27977e-10
8.6642e-10
9.04776e-10
9.43092e-10
9.81416e-10
1.0198e-09
1.05828e-09
1.0969e-09
1.1357e-09
1.17472e-09
1.21398e-09
1.25349e-09
1.29328e-09
1.33335e-09
1.3737e-09
1.41432e-09
1.45519e-09
1.4963e-09
1.53761e-09
1.57909e-09
1.6207e-09
1.66238e-09
1.70409e-09
1.74575e-09
1.78731e-09
1.82869e-09
1.8698e-09
1.91056e-09
1.95087e-09
1.99064e-09
2.02976e-09
2.06812e-09
2.10559e-09
2.14205e-09
2.17737e-09
2.21141e-09
2.24404e-09
2.2751e-09
2.30445e-09
2.33193e-09
2.35739e-09
2.38066e-09
2.4016e-09
2.42003e-09
2.4358e-09
2.44874e-09
2.45872e-09
2.46556e-09
2.46906e-09
2.46941e-09
2.46632e-09
2.45968e-09
2.44941e-09
2.43545e-09
2.41775e-09
2.39631e-09
2.37112e-09
2.3422e-09
2.30962e-09
2.27344e-09
2.23376e-09
2.1907e-09
2.14442e-09
2.09508e-09
2.04289e-09
1.98804e-09
1.93078e-09
1.87136e-09
1.81004e-09
1.7471e-09
1.68281e-09
1.61747e-09
1.55137e-09
1.4848e-09
1.41804e-09
1.35137e-09
1.28505e-09
1.21934e-09
1.15449e-09
1.0907e-09
1.02818e-09
9.67126e-10
9.07685e-10
8.50001e-10
7.94191e-10
7.4035e-10
6.88553e-10
6.38852e-10
5.91281e-10
5.45852e-10
5.0256e-10
4.61387e-10
4.22301e-10
3.85253e-10
3.50187e-10
3.17033e-10
2.85716e-10
2.56152e-10
2.28254e-10
2.01935e-10
1.77103e-10
1.53672e-10
1.31556e-10
1.10677e-10
9.09643e-11
7.23585e-11
5.48241e-11
3.83829e-11
2.32495e-11
1.03114e-11
2.03182e-12
1.44374e-14
5.22922e-14
8.21035e-12
5.07365e-11
1.35008e-10
2.47309e-10
3.7469e-10
5.10172e-10
6.50367e-10
7.93493e-10
9.38455e-10
1.08447e-09
1.23093e-09
1.37736e-09
1.52335e-09
1.66858e-09
1.81283e-09
1.95592e-09
2.09774e-09
2.23823e-09
2.37741e-09
2.51533e-09
2.65206e-09
2.78774e-09
2.92251e-09
3.05654e-09
3.19002e-09
3.32313e-09
3.45607e-09
3.58902e-09
3.72216e-09
3.85566e-09
3.98967e-09
4.12432e-09
4.2597e-09
4.39592e-09
4.53302e-09
4.67104e-09
4.81e-09
4.94987e-09
5.09062e-09
5.2322e-09
5.3745e-09
5.51742e-09
5.66084e-09
5.80459e-09
5.9485e-09
6.09238e-09
6.236e-09
6.37913e-09
6.5215e-09
6.66282e-09
6.80279e-09
6.94107e-09
7.07732e-09
7.21114e-09
7.34215e-09
7.46991e-09
7.59398e-09
7.7139e-09
7.82916e-09
7.93927e-09
8.04368e-09
8.14187e-09
8.23327e-09
8.31732e-09
8.39344e-09
8.46106e-09
8.51961e-09
8.56851e-09
8.60732e-09
8.63518e-09
8.65122e-09
8.65657e-09
8.64983e-09
8.6306e-09
8.59855e-09
8.55343e-09
8.49505e-09
8.42331e-09
8.33817e-09
8.23968e-09
8.12798e-09
8.00331e-09
7.86599e-09
7.71644e-09
7.55515e-09
7.38274e-09
7.19987e-09
7.00733e-09
6.80593e-09
6.59657e-09
6.38022e-09
6.15787e-09
5.93055e-09
5.69931e-09
5.46522e-09
5.22933e-09
4.99268e-09
4.75628e-09
4.52113e-09
4.28814e-09
4.05819e-09
3.83208e-09
3.61057e-09
3.3943e-09
3.18386e-09
2.97976e-09
2.78241e-09
2.59216e-09
2.40926e-09
2.23389e-09
2.06615e-09
1.90609e-09
1.75368e-09
1.60882e-09
1.47138e-09
1.34118e-09
1.21798e-09
1.10152e-09
9.91492e-10
8.87582e-10
7.89447e-10
6.96737e-10
6.09093e-10
5.26159e-10
4.47588e-10
3.73058e-10
3.02305e-10
2.35183e-10
1.71848e-10
1.13187e-10
6.18025e-11
2.32409e-11
3.75622e-12
2.38687e-14
7.58993e-14
1.23942e-11
8.3878e-11
2.47895e-10
4.95584e-10
7.99801e-10
1.13727e-09
1.49323e-09
1.85909e-09
2.22978e-09
2.60215e-09
2.97411e-09
3.34418e-09
3.7113e-09
4.07469e-09
4.43382e-09
4.78835e-09
5.13812e-09
5.48311e-09
5.82344e-09
6.15933e-09
6.49111e-09
6.81917e-09
7.144e-09
7.46608e-09
7.78596e-09
8.10417e-09
8.42128e-09
8.73779e-09
9.05421e-09
9.371e-09
9.68858e-09
1.00073e-08
1.03275e-08
1.06494e-08
1.09732e-08
1.1299e-08
1.1627e-08
1.1957e-08
1.22891e-08
1.26232e-08
1.2959e-08
1.32964e-08
1.36351e-08
1.39748e-08
1.43152e-08
1.46557e-08
1.49959e-08
1.53353e-08
1.56733e-08
1.60093e-08
1.63425e-08
1.66723e-08
1.69977e-08
1.7318e-08
1.76322e-08
1.79393e-08
1.82383e-08
1.85281e-08
1.88074e-08
1.9075e-08
1.93298e-08
1.95703e-08
1.97952e-08
2.00031e-08
2.01926e-08
2.03622e-08
2.05105e-08
2.06362e-08
2.07387e-08
2.08137e-08
2.08612e-08
2.08833e-08
2.08763e-08
2.08391e-08
2.07709e-08
2.0671e-08
2.05388e-08
2.03739e-08
2.01762e-08
1.99457e-08
1.96828e-08
1.93878e-08
1.90615e-08
1.87048e-08
1.8319e-08
1.79055e-08
1.74658e-08
1.7002e-08
1.65158e-08
1.60097e-08
1.54859e-08
1.49469e-08
1.43952e-08
1.38334e-08
1.32643e-08
1.26903e-08
1.21142e-08
1.15385e-08
1.09656e-08
1.03978e-08
9.83728e-09
9.28614e-09
8.74621e-09
8.21912e-09
7.70634e-09
7.20912e-09
6.72849e-09
6.26531e-09
5.82019e-09
5.39357e-09
4.9857e-09
4.59666e-09
4.22634e-09
3.8745e-09
3.54077e-09
3.22464e-09
2.92548e-09
2.64259e-09
2.37517e-09
2.12237e-09
1.88327e-09
1.65694e-09
1.44241e-09
1.23874e-09
1.04507e-09
8.6067e-10
6.85209e-10
5.19099e-10
3.64338e-10
2.25903e-10
1.13175e-10
3.82969e-11
5.64356e-12
3.44567e-14
1.01955e-13
1.69434e-11
1.19979e-10
3.77369e-10
8.02745e-10
1.36489e-09
2.02029e-09
2.7325e-09
3.47612e-09
4.23474e-09
4.99791e-09
5.75891e-09
6.51333e-09
7.2583e-09
7.99192e-09
8.71306e-09
9.4211e-09
1.01159e-08
1.07976e-08
1.14666e-08
1.21238e-08
1.27699e-08
1.3406e-08
1.40334e-08
1.46531e-08
1.52666e-08
1.58749e-08
1.64795e-08
1.70815e-08
1.76821e-08
1.82822e-08
1.88829e-08
1.9485e-08
2.00891e-08
2.0696e-08
2.1306e-08
2.19195e-08
2.25367e-08
2.31577e-08
2.37826e-08
2.44112e-08
2.50432e-08
2.56784e-08
2.63163e-08
2.69564e-08
2.75981e-08
2.82406e-08
2.88831e-08
2.95246e-08
3.01642e-08
3.08006e-08
3.14327e-08
3.20589e-08
3.26779e-08
3.3288e-08
3.38874e-08
3.44742e-08
3.50466e-08
3.56023e-08
3.61391e-08
3.66546e-08
3.71465e-08
3.7612e-08
3.80486e-08
3.84535e-08
3.88239e-08
3.9157e-08
3.94498e-08
3.96996e-08
3.99071e-08
4.00585e-08
4.01598e-08
4.02127e-08
4.02097e-08
4.01487e-08
4.00281e-08
3.98463e-08
3.96023e-08
3.92952e-08
3.89246e-08
3.84905e-08
3.79934e-08
3.74341e-08
3.68138e-08
3.61344e-08
3.53981e-08
3.46076e-08
3.37659e-08
3.28766e-08
3.19436e-08
3.09711e-08
2.99636e-08
2.89258e-08
2.78627e-08
2.67794e-08
2.56809e-08
2.45724e-08
2.34589e-08
2.23455e-08
2.12369e-08
2.01376e-08
1.9052e-08
1.7984e-08
1.69374e-08
1.59153e-08
1.49207e-08
1.3956e-08
1.30233e-08
1.21243e-08
1.12602e-08
1.0432e-08
9.63997e-09
8.88442e-09
8.16511e-09
7.48152e-09
6.83287e-09
6.21813e-09
5.63602e-09
5.08507e-09
4.56364e-09
4.06993e-09
3.60208e-09
3.15812e-09
2.73614e-09
2.33432e-09
1.95119e-09
1.58596e-09
1.23923e-09
9.14142e-10
6.18025e-10
3.64308e-10
1.71543e-10
5.44799e-11
7.6627e-12
4.595e-14
1.30261e-13
2.18459e-11
1.58572e-10
5.17787e-10
1.14865e-09
2.03154e-09
3.10904e-09
4.3182e-09
5.60674e-09
6.93645e-09
8.28114e-09
9.62341e-09
1.09518e-08
1.22591e-08
1.35406e-08
1.47938e-08
1.60174e-08
1.72113e-08
1.83762e-08
1.95132e-08
2.06239e-08
2.17105e-08
2.27751e-08
2.38204e-08
2.48487e-08
2.58627e-08
2.68649e-08
2.78579e-08
2.8844e-08
2.98255e-08
3.08043e-08
3.17824e-08
3.27613e-08
3.37425e-08
3.47272e-08
3.57162e-08
3.67104e-08
3.77103e-08
3.87162e-08
3.97281e-08
4.07461e-08
4.17698e-08
4.27988e-08
4.38326e-08
4.48702e-08
4.59108e-08
4.69533e-08
4.79964e-08
4.90385e-08
5.00781e-08
5.11132e-08
5.21419e-08
5.31619e-08
5.41707e-08
5.51657e-08
5.6144e-08
5.71025e-08
5.80378e-08
5.89466e-08
5.9825e-08
6.06692e-08
6.1475e-08
6.22381e-08
6.29541e-08
6.36185e-08
6.42266e-08
6.47735e-08
6.52544e-08
6.56661e-08
6.60085e-08
6.62548e-08
6.64228e-08
6.65107e-08
6.65067e-08
6.64073e-08
6.62099e-08
6.5912e-08
6.55118e-08
6.50081e-08
6.44001e-08
6.36879e-08
6.2872e-08
6.19539e-08
6.09358e-08
5.98203e-08
5.86113e-08
5.73129e-08
5.59303e-08
5.4469e-08
5.29355e-08
5.13365e-08
4.96793e-08
4.79717e-08
4.62217e-08
4.44374e-08
4.26273e-08
4.07996e-08
3.89627e-08
3.71247e-08
3.52935e-08
3.34766e-08
3.16811e-08
2.99135e-08
2.81801e-08
2.64861e-08
2.48365e-08
2.32355e-08
2.16865e-08
2.01924e-08
1.87553e-08
1.73769e-08
1.60578e-08
1.47985e-08
1.35986e-08
1.24573e-08
1.13732e-08
1.03446e-08
9.36931e-09
8.44489e-09
7.56848e-09
6.73699e-09
5.94719e-09
5.1958e-09
4.47971e-09
3.79626e-09
3.14387e-09
2.52282e-09
1.93671e-09
1.39468e-09
9.13637e-10
5.18114e-10
2.33818e-10
7.14393e-11
9.79287e-12
5.81726e-14
1.6072e-13
2.70974e-11
1.99592e-10
6.6716e-10
1.52241e-09
2.77095e-09
4.3528e-09
6.18088e-09
8.17015e-09
1.02509e-08
1.2371e-08
1.44939e-08
1.65949e-08
1.86579e-08
2.06729e-08
2.26343e-08
2.45397e-08
2.63887e-08
2.81825e-08
2.99237e-08
3.16155e-08
3.32618e-08
3.48671e-08
3.64358e-08
3.79726e-08
3.94823e-08
4.09693e-08
4.24382e-08
4.3893e-08
4.53377e-08
4.67757e-08
4.82103e-08
4.96443e-08
5.10801e-08
5.25196e-08
5.39647e-08
5.54165e-08
5.68761e-08
5.8344e-08
5.98205e-08
6.13057e-08
6.27993e-08
6.43005e-08
6.58087e-08
6.73225e-08
6.88407e-08
7.03617e-08
7.18835e-08
7.34039e-08
7.49205e-08
7.64305e-08
7.79308e-08
7.9418e-08
8.08884e-08
8.23381e-08
8.37627e-08
8.51576e-08
8.65177e-08
8.78379e-08
8.91125e-08
9.03358e-08
9.15015e-08
9.26034e-08
9.36348e-08
9.45892e-08
9.54597e-08
9.62395e-08
9.69219e-08
9.75029e-08
9.79824e-08
9.83157e-08
9.8539e-08
9.86428e-08
9.8611e-08
9.84393e-08
9.81239e-08
9.76616e-08
9.70501e-08
9.62877e-08
9.53737e-08
9.43083e-08
9.30925e-08
9.17285e-08
9.02196e-08
8.857e-08
8.67849e-08
8.48706e-08
8.28344e-08
8.06845e-08
7.84297e-08
7.608e-08
7.36457e-08
7.11378e-08
6.85678e-08
6.59473e-08
6.32882e-08
6.06026e-08
5.79022e-08
5.51988e-08
5.25036e-08
4.98275e-08
4.71808e-08
4.45731e-08
4.20133e-08
3.95094e-08
3.70686e-08
3.4697e-08
3.24001e-08
3.0182e-08
2.80461e-08
2.59948e-08
2.40295e-08
2.21508e-08
2.03583e-08
1.86509e-08
1.70267e-08
1.54831e-08
1.4017e-08
1.26245e-08
1.13014e-08
1.00432e-08
8.845e-09
7.70216e-09
6.61047e-09
5.56687e-09
4.57059e-09
3.62495e-09
2.73969e-09
1.93351e-09
1.23541e-09
6.80875e-10
2.98513e-10
8.90074e-11
1.20159e-11
7.0989e-14
1.93294e-13
3.26986e-11
2.43089e-10
8.25048e-10
1.91937e-09
3.5665e-09
5.71489e-09
8.25961e-09
1.10816e-08
1.40728e-08
1.71461e-08
2.02368e-08
2.32994e-08
2.63036e-08
2.923e-08
3.20678e-08
3.48119e-08
3.74612e-08
4.00181e-08
4.24865e-08
4.48724e-08
4.71823e-08
4.94235e-08
5.16038e-08
5.37309e-08
5.58124e-08
5.78558e-08
5.98682e-08
6.18561e-08
6.38259e-08
6.57829e-08
6.77322e-08
6.96781e-08
7.16244e-08
7.35742e-08
7.553e-08
7.7494e-08
7.94676e-08
8.14518e-08
8.3447e-08
8.54534e-08
8.74705e-08
8.94976e-08
9.15336e-08
9.35769e-08
9.56254e-08
9.76768e-08
9.97282e-08
1.01777e-07
1.03818e-07
1.0585e-07
1.07866e-07
1.09862e-07
1.11834e-07
1.13775e-07
1.15679e-07
1.17541e-07
1.19352e-07
1.21105e-07
1.22794e-07
1.2441e-07
1.25944e-07
1.27388e-07
1.28733e-07
1.29971e-07
1.31092e-07
1.32087e-07
1.32948e-07
1.33666e-07
1.34248e-07
1.34628e-07
1.34864e-07
1.34935e-07
1.34823e-07
1.34521e-07
1.34027e-07
1.33336e-07
1.32446e-07
1.31355e-07
1.30063e-07
1.28571e-07
1.26881e-07
1.24995e-07
1.22918e-07
1.20657e-07
1.18218e-07
1.15609e-07
1.12841e-07
1.09925e-07
1.0687e-07
1.03692e-07
1.00403e-07
9.70164e-08
9.35483e-08
9.00134e-08
8.64271e-08
8.28049e-08
7.91621e-08
7.55138e-08
7.18748e-08
6.82593e-08
6.46807e-08
6.11516e-08
5.76839e-08
5.42881e-08
5.09739e-08
4.77496e-08
4.46225e-08
4.15984e-08
3.86821e-08
3.58769e-08
3.31849e-08
3.06072e-08
2.81435e-08
2.57924e-08
2.35516e-08
2.14176e-08
1.93863e-08
1.74524e-08
1.56102e-08
1.38536e-08
1.21764e-08
1.05725e-08
9.03725e-09
7.56819e-09
6.16706e-09
4.84237e-09
3.61257e-09
2.50851e-09
1.57244e-09
8.4886e-10
3.64841e-10
1.07068e-10
1.43157e-11
8.42902e-14
2.27989e-13
3.86543e-11
2.89153e-10
9.9162e-10
2.33821e-09
4.41043e-09
7.17365e-09
1.05118e-08
1.42735e-08
1.83083e-08
2.24869e-08
2.67083e-08
3.08988e-08
3.50076e-08
3.90022e-08
4.28634e-08
4.65822e-08
5.01566e-08
5.35896e-08
5.68878e-08
6.00601e-08
6.31168e-08
6.60694e-08
6.89296e-08
7.17092e-08
7.44199e-08
7.70726e-08
7.96781e-08
8.2246e-08
8.47853e-08
8.7304e-08
8.98093e-08
9.23073e-08
9.48035e-08
9.73021e-08
9.98069e-08
1.02321e-07
1.04845e-07
1.07382e-07
1.09931e-07
1.12494e-07
1.15068e-07
1.17654e-07
1.20249e-07
1.22851e-07
1.25457e-07
1.28065e-07
1.30669e-07
1.33266e-07
1.35851e-07
1.38419e-07
1.40963e-07
1.43477e-07
1.45954e-07
1.48386e-07
1.50766e-07
1.53084e-07
1.55333e-07
1.57502e-07
1.59581e-07
1.61561e-07
1.6343e-07
1.65178e-07
1.66794e-07
1.68267e-07
1.69586e-07
1.7074e-07
1.71719e-07
1.72511e-07
1.73121e-07
1.73482e-07
1.73664e-07
1.73629e-07
1.7336e-07
1.72854e-07
1.72106e-07
1.71112e-07
1.6987e-07
1.6838e-07
1.66641e-07
1.64655e-07
1.62425e-07
1.59956e-07
1.57254e-07
1.54327e-07
1.51183e-07
1.47834e-07
1.4429e-07
1.40566e-07
1.36676e-07
1.32635e-07
1.28459e-07
1.24166e-07
1.19773e-07
1.15299e-07
1.10762e-07
1.06181e-07
1.01574e-07
9.69596e-08
9.23552e-08
8.7778e-08
8.32446e-08
7.87702e-08
7.43692e-08
7.00549e-08
6.58389e-08
6.1732e-08
5.77429e-08
5.38794e-08
5.01473e-08
4.65512e-08
4.3094e-08
3.97771e-08
3.66006e-08
3.35629e-08
3.06611e-08
2.78913e-08
2.52481e-08
2.27252e-08
2.03156e-08
1.80116e-08
1.58058e-08
1.36914e-08
1.16638e-08
9.72235e-09
7.87277e-09
6.13097e-09
4.52638e-09
3.10352e-09
1.9176e-09
1.01983e-09
4.32319e-10
1.25526e-10
1.66784e-11
9.79868e-14
2.64837e-13
4.49725e-11
3.37888e-10
1.16728e-09
2.77921e-09
5.30032e-09
8.7186e-09
1.29125e-08
1.77003e-08
2.28873e-08
2.82969e-08
3.37849e-08
3.92428e-08
4.45941e-08
4.97886e-08
5.47965e-08
5.96033e-08
6.42052e-08
6.86063e-08
7.28161e-08
7.68473e-08
8.07152e-08
8.44361e-08
8.80268e-08
9.15043e-08
9.48848e-08
9.8184e-08
1.01417e-07
1.04596e-07
1.07734e-07
1.10842e-07
1.1393e-07
1.17005e-07
1.20075e-07
1.23146e-07
1.26221e-07
1.29306e-07
1.32401e-07
1.35509e-07
1.38629e-07
1.41763e-07
1.44909e-07
1.48064e-07
1.51227e-07
1.54395e-07
1.57563e-07
1.60726e-07
1.63881e-07
1.6702e-07
1.70138e-07
1.73227e-07
1.76279e-07
1.79287e-07
1.82241e-07
1.85131e-07
1.87948e-07
1.90681e-07
1.93318e-07
1.95848e-07
1.9826e-07
2.0054e-07
2.02676e-07
2.04656e-07
2.06467e-07
2.08096e-07
2.09531e-07
2.10759e-07
2.11769e-07
2.12549e-07
2.13087e-07
2.13346e-07
2.13392e-07
2.13162e-07
2.12653e-07
2.1186e-07
2.10778e-07
2.09406e-07
2.07742e-07
2.05786e-07
2.0354e-07
2.01005e-07
1.98187e-07
1.95092e-07
1.91727e-07
1.88103e-07
1.84229e-07
1.80119e-07
1.75787e-07
1.71248e-07
1.66519e-07
1.61617e-07
1.56562e-07
1.51372e-07
1.46069e-07
1.40672e-07
1.35204e-07
1.29684e-07
1.24135e-07
1.18577e-07
1.1303e-07
1.07514e-07
1.02047e-07
9.66482e-08
9.13331e-08
8.61174e-08
8.10148e-08
7.60375e-08
7.11964e-08
6.65003e-08
6.19566e-08
5.75706e-08
5.33462e-08
4.92851e-08
4.53876e-08
4.16522e-08
3.80757e-08
3.46534e-08
3.13792e-08
2.82456e-08
2.52444e-08
2.2367e-08
1.96049e-08
1.69512e-08
1.44022e-08
1.19601e-08
9.63615e-09
7.4553e-09
5.45942e-09
3.70728e-09
2.26631e-09
1.19238e-09
5.00605e-10
1.44302e-10
1.90925e-11
1.12006e-13
3.03888e-13
5.16642e-11
3.89412e-10
1.35252e-09
3.24334e-09
6.23657e-09
1.03464e-08
1.54495e-08
2.13355e-08
2.77642e-08
3.45076e-08
4.13734e-08
4.82126e-08
5.49183e-08
6.14193e-08
6.76727e-08
7.36572e-08
7.93669e-08
8.48071e-08
8.99906e-08
9.4935e-08
9.9661e-08
1.04191e-07
1.08548e-07
1.12754e-07
1.16832e-07
1.20801e-07
1.24682e-07
1.28492e-07
1.32247e-07
1.35961e-07
1.39645e-07
1.43311e-07
1.46967e-07
1.5062e-07
1.54275e-07
1.57937e-07
1.61609e-07
1.65291e-07
1.68984e-07
1.72687e-07
1.764e-07
1.80118e-07
1.83838e-07
1.87557e-07
1.91268e-07
1.94966e-07
1.98644e-07
2.02294e-07
2.05909e-07
2.09478e-07
2.12994e-07
2.16444e-07
2.19818e-07
2.23105e-07
2.26292e-07
2.29367e-07
2.32316e-07
2.35127e-07
2.37785e-07
2.40277e-07
2.42588e-07
2.44704e-07
2.46612e-07
2.48297e-07
2.49747e-07
2.50948e-07
2.51888e-07
2.52557e-07
2.52916e-07
2.52982e-07
2.52805e-07
2.52293e-07
2.51458e-07
2.50298e-07
2.4881e-07
2.46993e-07
2.44846e-07
2.4237e-07
2.39569e-07
2.36447e-07
2.33009e-07
2.29264e-07
2.2522e-07
2.20889e-07
2.16285e-07
2.1142e-07
2.0631e-07
2.00974e-07
1.9543e-07
1.89696e-07
1.83795e-07
1.77746e-07
1.71574e-07
1.65299e-07
1.58947e-07
1.52538e-07
1.46098e-07
1.39647e-07
1.3321e-07
1.26807e-07
1.20458e-07
1.14185e-07
1.08004e-07
1.01933e-07
9.59883e-08
9.01824e-08
8.45279e-08
7.90349e-08
7.37117e-08
6.85646e-08
6.35981e-08
5.88144e-08
5.42139e-08
4.9795e-08
4.55544e-08
4.14866e-08
3.75849e-08
3.3841e-08
3.02456e-08
2.67892e-08
2.34629e-08
2.02602e-08
1.7179e-08
1.42251e-08
1.14167e-08
8.78862e-09
6.39606e-09
4.31211e-09
2.61551e-09
1.36553e-09
5.69442e-10
1.63328e-10
2.15483e-11
1.2629e-13
3.45205e-13
5.87418e-11
4.43847e-10
1.54787e-09
3.73192e-09
7.22104e-09
1.2058e-08
1.81193e-08
2.51668e-08
3.29133e-08
4.10764e-08
4.9411e-08
5.77237e-08
6.58734e-08
7.3765e-08
8.1341e-08
8.85722e-08
9.54505e-08
1.01982e-07
1.08185e-07
1.14081e-07
1.19698e-07
1.25064e-07
1.3021e-07
1.35164e-07
1.39956e-07
1.4461e-07
1.49151e-07
1.53601e-07
1.57981e-07
1.62306e-07
1.66592e-07
1.70852e-07
1.75095e-07
1.79329e-07
1.83562e-07
1.87797e-07
1.92037e-07
1.96283e-07
2.00535e-07
2.04792e-07
2.09051e-07
2.13307e-07
2.17557e-07
2.21794e-07
2.26011e-07
2.30201e-07
2.34355e-07
2.38464e-07
2.42517e-07
2.46505e-07
2.50414e-07
2.54234e-07
2.5795e-07
2.6155e-07
2.65019e-07
2.68344e-07
2.7151e-07
2.74501e-07
2.77303e-07
2.799e-07
2.82279e-07
2.84422e-07
2.86318e-07
2.8795e-07
2.89306e-07
2.90373e-07
2.91139e-07
2.91593e-07
2.91678e-07
2.91455e-07
2.90977e-07
2.901e-07
2.88864e-07
2.87269e-07
2.85313e-07
2.82997e-07
2.80321e-07
2.77289e-07
2.73905e-07
2.70174e-07
2.66103e-07
2.61703e-07
2.56984e-07
2.51957e-07
2.46639e-07
2.41043e-07
2.35188e-07
2.29092e-07
2.22775e-07
2.16257e-07
2.09562e-07
2.02711e-07
1.95729e-07
1.88639e-07
1.81466e-07
1.74236e-07
1.66971e-07
1.59697e-07
1.52437e-07
1.45215e-07
1.38052e-07
1.3097e-07
1.23989e-07
1.17126e-07
1.10399e-07
1.03823e-07
9.74107e-08
9.11732e-08
8.51199e-08
7.92578e-08
7.35917e-08
6.81242e-08
6.2856e-08
5.77854e-08
5.29085e-08
4.82196e-08
4.37112e-08
3.93742e-08
3.51986e-08
3.11742e-08
2.72921e-08
2.35463e-08
1.9937e-08
1.64745e-08
1.31842e-08
1.01116e-08
7.32547e-09
4.91282e-09
2.96324e-09
1.53866e-09
6.38639e-10
1.82554e-10
2.40387e-11
1.40795e-13
3.88859e-13
6.62186e-11
5.01315e-10
1.75387e-09
4.24635e-09
8.25626e-09
1.38564e-08
2.09234e-08
2.91912e-08
3.83233e-08
4.79798e-08
5.78596e-08
6.77212e-08
7.73866e-08
8.6735e-08
9.56927e-08
1.04222e-07
1.12314e-07
1.19975e-07
1.27228e-07
1.34101e-07
1.40629e-07
1.46849e-07
1.52797e-07
1.5851e-07
1.64022e-07
1.69366e-07
1.7457e-07
1.79663e-07
1.84666e-07
1.89601e-07
1.94485e-07
1.99332e-07
2.04154e-07
2.0896e-07
2.13757e-07
2.18548e-07
2.23337e-07
2.28125e-07
2.32909e-07
2.37688e-07
2.42458e-07
2.47213e-07
2.51948e-07
2.56653e-07
2.61322e-07
2.65945e-07
2.7051e-07
2.75008e-07
2.79425e-07
2.8375e-07
2.87968e-07
2.92067e-07
2.96031e-07
2.99845e-07
3.03494e-07
3.06963e-07
3.10236e-07
3.13297e-07
3.1613e-07
3.1872e-07
3.21052e-07
3.23111e-07
3.24882e-07
3.26352e-07
3.27508e-07
3.28338e-07
3.2883e-07
3.28975e-07
3.28698e-07
3.28108e-07
3.27244e-07
3.25946e-07
3.24246e-07
3.22162e-07
3.19693e-07
3.16841e-07
3.13609e-07
3.10001e-07
3.06022e-07
3.01679e-07
2.96981e-07
2.91939e-07
2.86564e-07
2.80869e-07
2.74871e-07
2.68586e-07
2.62031e-07
2.55226e-07
2.48193e-07
2.40952e-07
2.33527e-07
2.25941e-07
2.18219e-07
2.10386e-07
2.02468e-07
1.94489e-07
1.86477e-07
1.78455e-07
1.70449e-07
1.62482e-07
1.5458e-07
1.46762e-07
1.39052e-07
1.31467e-07
1.24026e-07
1.16745e-07
1.09637e-07
1.02716e-07
9.59897e-08
8.94669e-08
8.31527e-08
7.70499e-08
7.1159e-08
6.54783e-08
6.00036e-08
5.47288e-08
4.96457e-08
4.47445e-08
4.00145e-08
3.54451e-08
3.10273e-08
2.67562e-08
2.26346e-08
1.86773e-08
1.49174e-08
1.14111e-08
8.24035e-09
5.50606e-09
3.30818e-09
1.71134e-09
7.08069e-10
2.01943e-10
2.65589e-11
1.55491e-13
4.34924e-13
7.41082e-11
5.61939e-10
1.97102e-09
4.78805e-09
9.34504e-09
1.57457e-08
2.38661e-08
3.34109e-08
4.39919e-08
5.5208e-08
6.6699e-08
7.81727e-08
8.9412e-08
1.00269e-07
1.10654e-07
1.2052e-07
1.29856e-07
1.38673e-07
1.46996e-07
1.54861e-07
1.62312e-07
1.69393e-07
1.76147e-07
1.82621e-07
1.88853e-07
1.94885e-07
2.00749e-07
2.06477e-07
2.12097e-07
2.17632e-07
2.23101e-07
2.28521e-07
2.33904e-07
2.39261e-07
2.44598e-07
2.49919e-07
2.55227e-07
2.6052e-07
2.65797e-07
2.71055e-07
2.76287e-07
2.81488e-07
2.86648e-07
2.91759e-07
2.96811e-07
3.01792e-07
3.0669e-07
3.11491e-07
3.16184e-07
3.20752e-07
3.25182e-07
3.29457e-07
3.33563e-07
3.37483e-07
3.41201e-07
3.44701e-07
3.47967e-07
3.50983e-07
3.53733e-07
3.56202e-07
3.58375e-07
3.60239e-07
3.6178e-07
3.62984e-07
3.63842e-07
3.64342e-07
3.64473e-07
3.64222e-07
3.63505e-07
3.62505e-07
3.61166e-07
3.59413e-07
3.57203e-07
3.54593e-07
3.51584e-07
3.48178e-07
3.44379e-07
3.40192e-07
3.35624e-07
3.30684e-07
3.25379e-07
3.19723e-07
3.13727e-07
3.07406e-07
3.00776e-07
2.93853e-07
2.86656e-07
2.79204e-07
2.7152e-07
2.63625e-07
2.55542e-07
2.47295e-07
2.3891e-07
2.30411e-07
2.21824e-07
2.13177e-07
2.04494e-07
1.95803e-07
1.87128e-07
1.78494e-07
1.69926e-07
1.61448e-07
1.5308e-07
1.44843e-07
1.36756e-07
1.28836e-07
1.21098e-07
1.13553e-07
1.06214e-07
9.90873e-08
9.2179e-08
8.54922e-08
7.90275e-08
7.27829e-08
6.67541e-08
6.09342e-08
5.53146e-08
4.98847e-08
4.46333e-08
3.95494e-08
3.46242e-08
2.98538e-08
2.52435e-08
2.08128e-08
1.66021e-08
1.26783e-08
9.13616e-09
6.08982e-09
3.64959e-09
1.88335e-09
7.77664e-10
2.21478e-10
2.91059e-11
1.70361e-13
4.83475e-13
8.24241e-11
6.25838e-10
2.19981e-09
5.35837e-09
1.04902e-08
1.77303e-08
2.6953e-08
3.78315e-08
4.9922e-08
6.27593e-08
7.59206e-08
8.90609e-08
1.01923e-07
1.1433e-07
1.26176e-07
1.37407e-07
1.48009e-07
1.57996e-07
1.674e-07
1.76265e-07
1.84642e-07
1.92583e-07
2.00142e-07
2.0737e-07
2.14317e-07
2.21026e-07
2.27538e-07
2.33889e-07
2.4011e-07
2.46226e-07
2.5226e-07
2.5823e-07
2.64149e-07
2.70026e-07
2.7587e-07
2.81683e-07
2.87467e-07
2.9322e-07
2.98939e-07
3.0462e-07
3.10254e-07
3.15834e-07
3.2135e-07
3.2679e-07
3.32144e-07
3.37397e-07
3.42537e-07
3.47548e-07
3.52416e-07
3.57126e-07
3.6166e-07
3.66004e-07
3.7014e-07
3.74053e-07
3.77726e-07
3.81143e-07
3.84288e-07
3.87146e-07
3.89701e-07
3.91941e-07
3.9385e-07
3.95417e-07
3.9663e-07
3.97478e-07
3.97951e-07
3.98042e-07
3.97743e-07
3.97009e-07
3.95817e-07
3.94357e-07
3.92489e-07
3.90247e-07
3.87506e-07
3.84352e-07
3.80792e-07
3.7683e-07
3.7247e-07
3.67718e-07
3.62583e-07
3.57072e-07
3.51196e-07
3.44967e-07
3.38397e-07
3.31501e-07
3.24296e-07
3.16796e-07
3.09023e-07
3.00994e-07
2.9273e-07
2.84255e-07
2.7559e-07
2.66759e-07
2.57788e-07
2.48702e-07
2.39527e-07
2.30288e-07
2.21014e-07
2.1173e-07
2.02461e-07
1.93235e-07
1.84075e-07
1.75006e-07
1.6605e-07
1.57228e-07
1.48561e-07
1.40065e-07
1.31756e-07
1.23648e-07
1.15752e-07
1.08076e-07
1.00626e-07
9.34055e-08
8.64153e-08
7.96532e-08
7.31144e-08
6.67918e-08
6.06759e-08
5.47559e-08
4.90196e-08
4.34559e-08
3.80559e-08
3.28169e-08
2.77463e-08
2.28683e-08
1.82301e-08
1.39085e-08
1.00104e-08
6.6631e-09
3.98717e-09
2.05464e-09
8.47415e-10
2.41156e-10
3.16794e-11
1.85404e-13
5.34584e-13
9.11794e-11
6.93125e-10
2.44072e-09
5.95859e-09
1.16942e-08
1.98145e-08
3.019e-08
4.24593e-08
5.61193e-08
7.06365e-08
8.55228e-08
1.00378e-07
1.14903e-07
1.28894e-07
1.42228e-07
1.54843e-07
1.66725e-07
1.7789e-07
1.88379e-07
1.98243e-07
2.07541e-07
2.16337e-07
2.2469e-07
2.32662e-07
2.40309e-07
2.4768e-07
2.54822e-07
2.61775e-07
2.68573e-07
2.75246e-07
2.81816e-07
2.88303e-07
2.94721e-07
3.0108e-07
3.07387e-07
3.13645e-07
3.19853e-07
3.26009e-07
3.32109e-07
3.38145e-07
3.4411e-07
3.49993e-07
3.55783e-07
3.61467e-07
3.67032e-07
3.72463e-07
3.77746e-07
3.82865e-07
3.87804e-07
3.92546e-07
3.97076e-07
4.01376e-07
4.05431e-07
4.09224e-07
4.12739e-07
4.15962e-07
4.18877e-07
4.2147e-07
4.23728e-07
4.25638e-07
4.27189e-07
4.2837e-07
4.29171e-07
4.29584e-07
4.29602e-07
4.29218e-07
4.28428e-07
4.27155e-07
4.25489e-07
4.2351e-07
4.21095e-07
4.1831e-07
4.1506e-07
4.11357e-07
4.07252e-07
4.02746e-07
3.97846e-07
3.92557e-07
3.86888e-07
3.80847e-07
3.74445e-07
3.67694e-07
3.60606e-07
3.53196e-07
3.45479e-07
3.37471e-07
3.29191e-07
3.20657e-07
3.11889e-07
3.0291e-07
2.9374e-07
2.84404e-07
2.74925e-07
2.6533e-07
2.55643e-07
2.4589e-07
2.36099e-07
2.26296e-07
2.16507e-07
2.06757e-07
1.97074e-07
1.8748e-07
1.78e-07
1.68656e-07
1.59467e-07
1.50453e-07
1.4163e-07
1.33012e-07
1.2461e-07
1.16435e-07
1.08492e-07
1.00784e-07
9.33136e-08
8.60774e-08
7.90708e-08
7.22863e-08
6.57138e-08
5.93418e-08
5.31577e-08
4.71499e-08
4.13095e-08
3.56346e-08
3.01348e-08
2.48378e-08
1.97975e-08
1.50995e-08
1.08624e-08
7.22576e-09
4.32103e-09
2.22531e-09
9.17371e-10
2.60989e-10
3.4281e-11
2.00626e-13
5.88317e-13
1.00386e-10
7.639e-10
2.69414e-09
6.58985e-09
1.29597e-08
2.20024e-08
3.35827e-08
4.73011e-08
6.25902e-08
7.88444e-08
9.55072e-08
1.12121e-07
1.28346e-07
1.43948e-07
1.58789e-07
1.72801e-07
1.85969e-07
1.98316e-07
2.09886e-07
2.20742e-07
2.30952e-07
2.40588e-07
2.49721e-07
2.58419e-07
2.66744e-07
2.74755e-07
2.82501e-07
2.90029e-07
2.97374e-07
3.04569e-07
3.11638e-07
3.18603e-07
3.25476e-07
3.32268e-07
3.38986e-07
3.4563e-07
3.52201e-07
3.58694e-07
3.65103e-07
3.7142e-07
3.77635e-07
3.83736e-07
3.89711e-07
3.95545e-07
4.01224e-07
4.06733e-07
4.12055e-07
4.17175e-07
4.22077e-07
4.26742e-07
4.31157e-07
4.35303e-07
4.39167e-07
4.42731e-07
4.45983e-07
4.48907e-07
4.51492e-07
4.53724e-07
4.55592e-07
4.57086e-07
4.58197e-07
4.58917e-07
4.59238e-07
4.59155e-07
4.58662e-07
4.57756e-07
4.56429e-07
4.5459e-07
4.52442e-07
4.49915e-07
4.46953e-07
4.43607e-07
4.3986e-07
4.35625e-07
4.30994e-07
4.25971e-07
4.20563e-07
4.14775e-07
4.08616e-07
4.02095e-07
3.95221e-07
3.88006e-07
3.80462e-07
3.72603e-07
3.64443e-07
3.55998e-07
3.47284e-07
3.38319e-07
3.29123e-07
3.19716e-07
3.10118e-07
3.00353e-07
2.90443e-07
2.80414e-07
2.7029e-07
2.60096e-07
2.4986e-07
2.39607e-07
2.29364e-07
2.19157e-07
2.09012e-07
1.98955e-07
1.89009e-07
1.79198e-07
1.69542e-07
1.60061e-07
1.50772e-07
1.41691e-07
1.3283e-07
1.24199e-07
1.15805e-07
1.07652e-07
9.97408e-08
9.20697e-08
8.46334e-08
7.74243e-08
7.04319e-08
6.3644e-08
5.70475e-08
5.06303e-08
4.43834e-08
3.83054e-08
3.24074e-08
2.67206e-08
2.1304e-08
1.62516e-08
1.16925e-08
7.77836e-09
4.65158e-09
2.39561e-09
9.87638e-10
2.81008e-10
3.69143e-11
2.16049e-13
6.44734e-13
1.10055e-10
8.38255e-10
2.96045e-09
7.25315e-09
1.42885e-08
2.42974e-08
3.71361e-08
5.23627e-08
6.93407e-08
8.73879e-08
1.05876e-07
1.2429e-07
1.42245e-07
1.59482e-07
1.75845e-07
1.91261e-07
2.05717e-07
2.1924e-07
2.31884e-07
2.43719e-07
2.54825e-07
2.65283e-07
2.75173e-07
2.84572e-07
2.9355e-07
3.02171e-07
3.1049e-07
3.18556e-07
3.26411e-07
3.34086e-07
3.4161e-07
3.49003e-07
3.56279e-07
3.63448e-07
3.70515e-07
3.77481e-07
3.84344e-07