/*--------------------------------*- C++ -*----------------------------------*\
  =========                 |
  \\      /  F ield         | OpenFOAM: The Open Source CFD Toolbox
   \\    /   O peration     | Website:  https://openfoam.org
    \\  /    A nd           | Version:  12
     \\/     M anipulation  |
\*---------------------------------------------------------------------------*/
FoamFile
{
    format      ascii;
    class       volScalarField;
    location    "4";
    object      p;
}
// * * * * * * * * * * * * * * * * * * * * * * * * * * * * * * * * * * * * * //

dimensions      [0 2 -2 0 0 0 0];

internalField   nonuniform List<scalar> 
18225
(
2.625e-08
7.29925e-06
1.05325e-05
4.34013e-06
-1.25357e-05
-4.00323e-05
-7.75376e-05
-0.000124153
-0.000178872
-0.000240696
-0.000308695
-0.000382032
-0.000459981
-0.000541919
-0.000627324
-0.000715765
-0.00080689
-0.000900411
-0.000996097
-0.00109375
-0.00119322
-0.00129436
-0.00139704
-0.00150112
-0.00160649
-0.00171299
-0.00182047
-0.00192874
-0.00203761
-0.00214684
-0.00225619
-0.00236535
-0.00247403
-0.00258186
-0.00268849
-0.0027935
-0.00289646
-0.00299692
-0.00309439
-0.00318838
-0.00327835
-0.00336378
-0.00344411
-0.00351879
-0.00358725
-0.00364893
-0.00370327
-0.00374973
-0.00378778
-0.0038169
-0.00383663
-0.00384653
-0.00384619
-0.00383528
-0.00381349
-0.00378062
-0.00373649
-0.00368103
-0.00361426
-0.00353626
-0.00344723
-0.00334746
-0.00323734
-0.00311737
-0.00298816
-0.00285041
-0.002705
-0.00255282
-0.00239481
-0.00223221
-0.0020662
-0.00189807
-0.00172918
-0.00156097
-0.00139491
-0.0012325
-0.00107527
-0.000924751
-0.000782463
-0.000649889
-0.000528467
-0.00041957
-0.000324485
-0.000244401
-0.000180392
-0.0001334
-0.000104222
-9.35023e-05
-0.000101717
-0.000129171
-0.000175989
-0.000242116
-0.000327316
-0.000431172
-0.000553093
-0.000692324
-0.000847949
-0.00101891
-0.00120401
-0.00140195
-0.00161132
-0.00183062
-0.00205832
-0.00229281
-0.00253247
-0.00277567
-0.00302079
-0.00326625
-0.00351048
-0.00375199
-0.00398934
-0.00422117
-0.00444621
-0.00466324
-0.00487117
-0.00506897
-0.0052557
-0.00543052
-0.00559265
-0.00574139
-0.00587612
-0.00599627
-0.00610137
-0.006191
-0.00626485
-0.00632272
-0.00636457
-0.0063906
-0.00640135
-0.00639784
-0.00638187
-0.00635628
-0.00632559
-0.00629664
-0.00627834
-7.34049e-06
-7.72038e-08
2.26982e-06
-4.68881e-06
-2.13967e-05
-4.76761e-05
-8.30709e-05
-0.000126886
-0.000178307
-0.000236499
-0.000300661
-0.000370059
-0.000444039
-0.000522033
-0.000603555
-0.000688195
-0.000775608
-0.000865511
-0.000957667
-0.00105188
-0.00114798
-0.00124582
-0.00134526
-0.00144615
-0.00154837
-0.00165176
-0.00175616
-0.00186139
-0.00196726
-0.00207353
-0.00217996
-0.00228627
-0.00239216
-0.00249729
-0.00260131
-0.00270383
-0.00280443
-0.00290268
-0.00299812
-0.00309028
-0.00317863
-0.00326269
-0.00334191
-0.00341577
-0.00348372
-0.00354522
-0.00359975
-0.00364677
-0.00368577
-0.00371628
-0.00373782
-0.00374997
-0.00375236
-0.00374464
-0.00372652
-0.0036978
-0.00365832
-0.00360799
-0.00354682
-0.0034749
-0.00339241
-0.00329961
-0.00319688
-0.00308469
-0.00296363
-0.00283437
-0.00269774
-0.00255455
-0.00240579
-0.0022526
-0.0020961
-0.00193754
-0.00177822
-0.00161952
-0.00146285
-0.00130966
-0.00116141
-0.00101956
-0.000885592
-0.000760912
-0.000646907
-0.000544891
-0.000456102
-0.00038168
-0.000322653
-0.000279924
-0.000254258
-0.000246268
-0.000256408
-0.000284968
-0.000332064
-0.000397639
-0.00048146
-0.000583125
-0.000702062
-0.00083754
-0.000988678
-0.00115445
-0.00133372
-0.00152523
-0.00172761
-0.00193945
-0.00215926
-0.0023855
-0.00261661
-0.00285104
-0.00308724
-0.00332368
-0.00355887
-0.00379138
-0.00401983
-0.00424294
-0.00445946
-0.00466828
-0.00486832
-0.00505861
-0.00523828
-0.00540652
-0.00556261
-0.00570591
-0.00583585
-0.00595193
-0.00605375
-0.00614096
-0.00621335
-0.0062708
-0.00631339
-0.0063414
-0.00635544
-0.00635654
-0.00634636
-0.00632738
-0.0063031
-0.00627835
-0.00626004
-1.06738e-05
-2.52181e-06
-2.14077e-07
-7.56327e-06
-2.40658e-05
-4.92835e-05
-8.28108e-05
-0.000124084
-0.000172434
-0.000227166
-0.000287602
-0.000353108
-0.000423106
-0.000497087
-0.000574604
-0.000655278
-0.000738785
-0.000824852
-0.000913247
-0.00100377
-0.00109625
-0.00119054
-0.00128648
-0.00138394
-0.00148278
-0.00158285
-0.00168398
-0.00178599
-0.0018887
-0.00199188
-0.00209529
-0.00219867
-0.00230172
-0.00240414
-0.00250557
-0.00260564
-0.00270398
-0.00280015
-0.00289372
-0.00298423
-0.0030712
-0.00315415
-0.00323257
-0.00330595
-0.00337377
-0.00343551
-0.00349066
-0.00353872
-0.00357919
-0.0036116
-0.0036355
-0.00365049
-0.00365618
-0.00365224
-0.00363841
-0.00361445
-0.00358021
-0.00353561
-0.00348063
-0.00341536
-0.00333994
-0.00325463
-0.00315979
-0.00305584
-0.00294335
-0.00282297
-0.00269543
-0.00256154
-0.00242229
-0.0022787
-0.00213186
-0.00198298
-0.0018333
-0.00168413
-0.00153684
-0.00139282
-0.00125347
-0.0011202
-0.000994426
-0.000877506
-0.000770774
-0.000675495
-0.000592861
-0.000523968
-0.000469806
-0.000431242
-0.000409011
-0.000403703
-0.000415751
-0.000445431
-0.000492852
-0.000557954
-0.00064051
-0.000740127
-0.00085625
-0.000988171
-0.00113504
-0.00129586
-0.00146954
-0.00165485
-0.0018505
-0.00205511
-0.00226724
-0.00248543
-0.00270818
-0.00293399
-0.00316137
-0.00338887
-0.00361506
-0.00383858
-0.00405811
-0.00427241
-0.00448033
-0.00468078
-0.00487278
-0.0050554
-0.00522782
-0.00538929
-0.00553916
-0.00567683
-0.00580181
-0.00591367
-0.00601206
-0.00609673
-0.00616753
-0.00622443
-0.00626755
-0.00629723
-0.00631405
-0.00631896
-0.00631332
-0.00629905
-0.00627838
-0.00625361
-0.00623107
-4.33005e-06
4.50603e-06
6.97748e-06
-5.66067e-07
-1.70048e-05
-4.16351e-05
-7.40004e-05
-0.000113572
-0.000159753
-0.000211935
-0.000269522
-0.000331957
-0.000398731
-0.000469389
-0.000543527
-0.000620798
-0.000700904
-0.00078359
-0.000868639
-0.00095586
-0.00104509
-0.00113617
-0.00122897
-0.00132335
-0.00141916
-0.00151627
-0.0016145
-0.0017137
-0.00181368
-0.00191421
-0.00201508
-0.00211603
-0.00221677
-0.00231701
-0.00241643
-0.00251466
-0.00261133
-0.00270605
-0.00279839
-0.00288791
-0.00297416
-0.00305666
-0.00313493
-0.00320847
-0.00327679
-0.00333938
-0.00339573
-0.00344537
-0.0034878
-0.00352256
-0.00354921
-0.00356734
-0.00357659
-0.00357661
-0.00356713
-0.00354792
-0.00351881
-0.00347971
-0.00343059
-0.0033715
-0.00330259
-0.00322408
-0.0031363
-0.00303965
-0.00293467
-0.00282196
-0.00270222
-0.00257626
-0.00244499
-0.0023094
-0.00217055
-0.00202959
-0.00188774
-0.00174626
-0.00160648
-0.00146974
-0.00133742
-0.00121088
-0.00109149
-0.000980591
-0.000879473
-0.000789374
-0.000711454
-0.000646783
-0.000596329
-0.000560937
-0.000541325
-0.000538066
-0.000551584
-0.000582147
-0.000629858
-0.000694657
-0.00077632
-0.000874458
-0.000988529
-0.00111784
-0.00126155
-0.00141869
-0.00158819
-0.00176886
-0.00195942
-0.00215853
-0.0023648
-0.0025768
-0.00279307
-0.00301215
-0.00323262
-0.00345305
-0.00367208
-0.00388838
-0.0041007
-0.00430785
-0.00450872
-0.00470228
-0.0048876
-0.00506381
-0.00523014
-0.0053859
-0.00553049
-0.00566338
-0.00578412
-0.00589234
-0.00598776
-0.00607018
-0.00613948
-0.00619567
-0.00623889
-0.00626943
-0.00628778
-0.00629467
-0.00629113
-0.00627848
-0.00625779
-0.00622937
-0.00620037
1.31984e-05
2.16306e-05
2.34973e-05
1.53432e-05
-1.43419e-06
-2.59713e-05
-5.7753e-05
-9.62542e-05
-0.000140919
-0.000191194
-0.000246552
-0.000306498
-0.00037058
-0.000438395
-0.000509585
-0.000583839
-0.000660891
-0.000740509
-0.000822494
-0.000906675
-0.000992896
-0.00108102
-0.00117091
-0.00126244
-0.00135548
-0.00144989
-0.00154552
-0.0016422
-0.00173976
-0.001838
-0.0019367
-0.00203561
-0.00213447
-0.00223299
-0.00233087
-0.00242775
-0.00252329
-0.0026171
-0.00270878
-0.0027979
-0.00288402
-0.00296668
-0.00304541
-0.00311974
-0.00318916
-0.00325319
-0.00331134
-0.00336312
-0.00340804
-0.00344566
-0.00347553
-0.00349724
-0.00351041
-0.0035147
-0.00350982
-0.00349553
-0.00347165
-0.00343806
-0.00339472
-0.00334167
-0.003279
-0.00320694
-0.00312577
-0.00303588
-0.00293775
-0.00283197
-0.00271921
-0.00260025
-0.00247594
-0.00234726
-0.00221524
-0.00208099
-0.00194569
-0.00181059
-0.00167697
-0.00154616
-0.0014195
-0.00129834
-0.00118401
-0.00107785
-0.000981106
-0.000895015
-0.000820717
-0.00075927
-0.000711627
-0.000678626
-0.000660973
-0.000659238
-0.000673839
-0.000705039
-0.000752942
-0.000817488
-0.000898455
-0.000995457
-0.00110796
-0.00123527
-0.00137657
-0.00153089
-0.00169718
-0.00187426
-0.00206087
-0.0022557
-0.00245737
-0.00266448
-0.0028756
-0.0030893
-0.00330419
-0.00351888
-0.00373203
-0.00394237
-0.00414868
-0.00434983
-0.00454474
-0.00473244
-0.00491203
-0.00508271
-0.00524375
-0.00539453
-0.00553449
-0.00566315
-0.00578012
-0.00588508
-0.0059778
-0.0060581
-0.00612591
-0.00618124
-0.00622419
-0.00625499
-0.006274
-0.00628171
-0.00627881
-0.0062661
-0.00624371
-0.0062105
-0.00617482
4.20734e-05
4.88512e-05
4.9051e-05
3.95969e-05
2.19245e-05
-3.05295e-06
-3.47868e-05
-7.27561e-05
-0.000116437
-0.000165325
-0.000218947
-0.000276864
-0.00033868
-0.000404041
-0.000472635
-0.000544191
-0.000618476
-0.000695289
-0.000774455
-0.000855824
-0.000939261
-0.00102464
-0.00111184
-0.00120076
-0.00129126
-0.00138322
-0.0014765
-0.00157096
-0.00166642
-0.00176269
-0.00185957
-0.00195684
-0.00205423
-0.00215148
-0.00224828
-0.00234432
-0.00243925
-0.0025327
-0.00262428
-0.00271358
-0.00280018
-0.00288361
-0.00296344
-0.00303917
-0.00311033
-0.00317643
-0.00323699
-0.00329151
-0.00333952
-0.00338055
-0.00341416
-0.00343993
-0.00345747
-0.00346642
-0.00346647
-0.00345738
-0.00343893
-0.00341099
-0.00337349
-0.00332644
-0.00326992
-0.00320412
-0.00312928
-0.00304578
-0.00295406
-0.00285467
-0.00274827
-0.0026356
-0.00251749
-0.00239488
-0.00226877
-0.00214026
-0.0020105
-0.00188072
-0.00175218
-0.00162619
-0.00150408
-0.00138717
-0.00127681
-0.00117428
-0.00108088
-0.000997791
-0.00092617
-0.000867068
-0.000821435
-0.000790107
-0.000773793
-0.000773061
-0.000788331
-0.000819868
-0.000867777
-0.000932
-0.00101232
-0.00110835
-0.00121956
-0.00134526
-0.00148464
-0.00163674
-0.0018005
-0.00197475
-0.00215825
-0.0023497
-0.00254771
-0.00275092
-0.0029579
-0.00316725
-0.00337758
-0.00358755
-0.00379584
-0.00400121
-0.00420247
-0.00439853
-0.00458835
-0.004771
-0.00494563
-0.00511147
-0.00526788
-0.00541425
-0.00555008
-0.00567495
-0.00578852
-0.00589051
-0.00598072
-0.00605901
-0.00612533
-0.00617966
-0.00622209
-0.00625274
-0.00627185
-0.00627969
-0.00627664
-0.00626309
-0.00623846
-0.00620061
-0.00615903
8.19023e-05
8.5872e-05
8.33486e-05
7.1837e-05
5.26513e-05
2.66737e-05
-5.54325e-06
-4.34931e-05
-8.6686e-05
-0.000134663
-0.000187001
-0.000243316
-0.000303263
-0.00036654
-0.00043288
-0.000502054
-0.000573868
-0.000648152
-0.000724762
-0.000803574
-0.000884475
-0.000967361
-0.00105213
-0.00113869
-0.00122693
-0.00131673
-0.00140799
-0.00150055
-0.00159426
-0.00168895
-0.00178443
-0.00188048
-0.00197687
-0.00207333
-0.00216959
-0.00226533
-0.00236022
-0.0024539
-0.00254601
-0.00263613
-0.00272385
-0.00280873
-0.00289032
-0.00296814
-0.00304172
-0.00311058
-0.00317421
-0.00323213
-0.00328385
-0.00332891
-0.00336683
-0.00339719
-0.00341958
-0.00343363
-0.003439
-0.00343542
-0.00342266
-0.00340055
-0.003369
-0.00332798
-0.00327756
-0.00321787
-0.00314915
-0.00307173
-0.00298603
-0.00289257
-0.00279197
-0.00268496
-0.00257234
-0.00245503
-0.002334
-0.00221034
-0.00208518
-0.00195974
-0.00183526
-0.00171305
-0.00159443
-0.00148072
-0.00137325
-0.00127334
-0.00118224
-0.00110118
-0.0010313
-0.000973655
-0.00092921
-0.000898807
-0.00088316
-0.000882845
-0.00089829
-0.000929767
-0.000977387
-0.0010411
-0.00112068
-0.00121576
-0.0013258
-0.00145012
-0.0015879
-0.00173818
-0.00189991
-0.00207193
-0.00225298
-0.00244175
-0.00263689
-0.00283701
-0.0030407
-0.00324658
-0.00345326
-0.00365941
-0.00386373
-0.00406501
-0.00426209
-0.00445389
-0.00463942
-0.00481778
-0.00498816
-0.00514984
-0.0053022
-0.00544472
-0.00557693
-0.00569844
-0.00580895
-0.00590825
-0.00599616
-0.00607258
-0.00613743
-0.0061907
-0.00623243
-0.00626269
-0.00628155
-0.00628911
-0.00628553
-0.00627086
-0.00624405
-0.00620223
-0.00615592
0.000131956
0.000132113
0.000125896
0.000111583
9.02626e-05
6.27293e-05
2.95154e-05
-8.89976e-06
-5.20657e-05
-9.95708e-05
-0.000151044
-0.000206153
-0.000264607
-0.000326152
-0.000390572
-0.000457681
-0.000527325
-0.000599371
-0.00067371
-0.000750245
-0.000828891
-0.000909569
-0.000992201
-0.00107671
-0.001163
-0.00125099
-0.00134057
-0.00143162
-0.00152399
-0.00161754
-0.00171207
-0.00180741
-0.00190331
-0.00199954
-0.00209583
-0.00219187
-0.00228736
-0.00238194
-0.00247525
-0.0025669
-0.00265646
-0.00274352
-0.00282761
-0.00290827
-0.00298501
-0.00305736
-0.00312479
-0.00318682
-0.00324295
-0.00329268
-0.00333555
-0.00337109
-0.00339887
-0.00341851
-0.00342964
-0.00343194
-0.00342517
-0.00340913
-0.00338369
-0.00334879
-0.00330447
-0.00325082
-0.00318806
-0.00311648
-0.00303648
-0.00294855
-0.00285328
-0.00275137
-0.00264361
-0.00253089
-0.00241418
-0.00229454
-0.00217312
-0.00205109
-0.00192972
-0.00181031
-0.00169417
-0.00158264
-0.00147705
-0.00137872
-0.00128893
-0.00120891
-0.00113982
-0.00108272
-0.00103861
-0.00100832
-0.000992601
-0.000992035
-0.00100706
-0.00103797
-0.00108488
-0.00114774
-0.00122635
-0.00132034
-0.00142916
-0.00155215
-0.00168847
-0.00183718
-0.0019972
-0.00216737
-0.00234643
-0.00253307
-0.00272593
-0.00292362
-0.00312472
-0.00332785
-0.00353163
-0.00373473
-0.00393588
-0.00413385
-0.00432751
-0.0045158
-0.00469777
-0.00487255
-0.00503935
-0.00519749
-0.00534639
-0.00548558
-0.00561463
-0.00573321
-0.00584104
-0.00593795
-0.00602379
-0.00609847
-0.00616194
-0.00621416
-0.00625514
-0.00628487
-0.00630332
-0.00631046
-0.00630625
-0.00629053
-0.0062619
-0.00621707
-0.00616731
0.000191319
0.0001868
0.00017603
0.000158221
0.000134177
0.00010456
6.9866e-05
3.0537e-05
-1.30249e-05
-6.04598e-05
-0.00011145
-0.000165719
-0.00022303
-0.00028318
-0.000346003
-0.000411361
-0.000479142
-0.000549254
-0.000621622
-0.000696185
-0.000772887
-0.000851676
-0.0009325
-0.0010153
-0.00110002
-0.00118658
-0.0012749
-0.00136487
-0.00145636
-0.00154925
-0.00164337
-0.00173854
-0.00183454
-0.00193115
-0.00202811
-0.00212513
-0.00222192
-0.00231812
-0.00241338
-0.00250732
-0.00259951
-0.00268954
-0.00277695
-0.00286125
-0.00294197
-0.00301861
-0.00309064
-0.00315756
-0.00321885
-0.00327399
-0.00332249
-0.00336386
-0.00339765
-0.00342343
-0.00344081
-0.00344944
-0.00344904
-0.00343937
-0.00342027
-0.00339165
-0.0033535
-0.0033059
-0.00324902
-0.00318311
-0.00310856
-0.00302583
-0.00293549
-0.0028382
-0.00273475
-0.00262601
-0.00251293
-0.00239658
-0.00227808
-0.00215863
-0.00203947
-0.00192192
-0.00180731
-0.00169697
-0.00159227
-0.00149452
-0.00140504
-0.00132507
-0.00125579
-0.00119829
-0.00115359
-0.00112255
-0.00110593
-0.00110435
-0.00111825
-0.00114796
-0.00119359
-0.00125512
-0.00133236
-0.00142493
-0.00153231
-0.00165382
-0.00178863
-0.00193579
-0.00209422
-0.00226274
-0.00244009
-0.00262495
-0.00281594
-0.00301166
-0.0032107
-0.00341165
-0.00361313
-0.00381381
-0.00401242
-0.00420775
-0.00439866
-0.00458412
-0.00476318
-0.004935
-0.00509884
-0.00525404
-0.00540005
-0.0055364
-0.00566273
-0.00577878
-0.0058843
-0.00597913
-0.00606316
-0.0061363
-0.00619852
-0.00624978
-0.00629004
-0.00631924
-0.0063373
-0.00634405
-0.00633933
-0.00632283
-0.00629295
-0.00624618
-0.00619424
0.000258976
0.000249048
0.000232972
0.000211043
0.000183734
0.000151548
0.000114932
7.42793e-05
2.99373e-05
-1.77924e-05
-6.86501e-05
-0.000122417
-0.000178912
-0.000237988
-0.000299531
-0.000363451
-0.000429683
-0.000498176
-0.000568896
-0.000641817
-0.000716916
-0.000794171
-0.00087356
-0.000955053
-0.00103861
-0.00112418
-0.00121169
-0.00130108
-0.00139222
-0.00148501
-0.00157929
-0.0016749
-0.00177165
-0.00186933
-0.00196767
-0.00206642
-0.00216527
-0.00226389
-0.00236193
-0.00245899
-0.00255468
-0.00264856
-0.00274016
-0.002829
-0.00291458
-0.00299639
-0.00307389
-0.00314655
-0.00321382
-0.00327517
-0.00333007
-0.003378
-0.00341847
-0.00345102
-0.00347523
-0.0034907
-0.00349711
-0.00349419
-0.00348174
-0.00345963
-0.00342782
-0.00338633
-0.00333533
-0.00327502
-0.00320576
-0.00312799
-0.00304225
-0.0029492
-0.00284959
-0.00274428
-0.00263423
-0.00252049
-0.00240418
-0.0022865
-0.00216873
-0.00205216
-0.00193814
-0.00182804
-0.00172324
-0.00162507
-0.00153488
-0.00145394
-0.00138346
-0.00132456
-0.00127828
-0.00124553
-0.00122709
-0.0012236
-0.00123555
-0.00126326
-0.00130691
-0.00136646
-0.00144174
-0.0015324
-0.00163791
-0.0017576
-0.00189064
-0.00203607
-0.00219282
-0.00235968
-0.0025354
-0.00271862
-0.00290796
-0.003102
-0.00329932
-0.00349848
-0.00369812
-0.00389687
-0.00409347
-0.00428669
-0.00447541
-0.00465861
-0.00483534
-0.00500478
-0.0051662
-0.00531899
-0.00546261
-0.00559664
-0.00572075
-0.00583468
-0.00593826
-0.00603133
-0.00611381
-0.00618566
-0.00624682
-0.00629727
-0.00633693
-0.00636574
-0.00638352
-0.00639006
-0.00638509
-0.00636824
-0.00633778
-0.0062901
-0.00623717
0.000333859
0.000317896
0.000295864
0.000269264
0.000238205
0.000203012
0.000164076
0.000121733
7.62655e-05
2.79111e-05
-2.31332e-05
-7.67102e-05
-0.000132699
-0.00019101
-0.000251583
-0.000314381
-0.000379386
-0.000446593
-0.000516009
-0.000587645
-0.000661516
-0.000737632
-0.000816002
-0.000896622
-0.00097948
-0.00106455
-0.00115179
-0.00124114
-0.00133251
-0.00142582
-0.00152092
-0.00161767
-0.00171589
-0.00181538
-0.0019159
-0.00201719
-0.00211896
-0.00222087
-0.00232259
-0.00242371
-0.00252383
-0.00262251
-0.00271926
-0.00281361
-0.00290502
-0.00299296
-0.00307688
-0.00315621
-0.00323037
-0.00329881
-0.00336095
-0.00341624
-0.00346416
-0.00350419
-0.00353586
-0.00355877
-0.00357252
-0.00357682
-0.00357141
-0.00355612
-0.00353088
-0.00349568
-0.00345063
-0.00339593
-0.00333189
-0.00325892
-0.00317755
-0.00308842
-0.00299226
-0.00288992
-0.00278236
-0.00267062
-0.00255583
-0.0024392
-0.00232199
-0.00220555
-0.00209123
-0.00198043
-0.00187454
-0.00177494
-0.001683
-0.00160002
-0.00152726
-0.00146588
-0.00141695
-0.00138143
-0.00136012
-0.00135371
-0.00136272
-0.00138751
-0.00142827
-0.00148501
-0.00155756
-0.0016456
-0.00174862
-0.00186594
-0.00199674
-0.00214006
-0.00229482
-0.00245981
-0.00263375
-0.00281528
-0.00300299
-0.00319546
-0.00339122
-0.00358884
-0.00378691
-0.00398409
-0.00417906
-0.00437061
-0.00455761
-0.00473902
-0.00491392
-0.00508148
-0.005241
-0.00539187
-0.00553359
-0.00566577
-0.00578809
-0.00590033
-0.00600234
-0.00609401
-0.00617527
-0.0062461
-0.00630645
-0.00635631
-0.00639559
-0.00642419
-0.00644193
-0.00644853
-0.00644369
-0.00642697
-0.00639663
-0.00634905
-0.00629621
0.000414869
0.000392332
0.00036378
0.000332027
0.000296793
0.00025821
0.000216603
0.000172244
0.000125342
7.60659e-05
2.45437e-05
-2.91337e-05
-8.49089e-05
-0.000142754
-0.000202666
-0.000264661
-0.000328772
-0.000395043
-0.000463522
-0.000534262
-0.000607315
-0.000682727
-0.000760537
-0.000840774
-0.000923453
-0.00100857
-0.00109612
-0.00118605
-0.00127832
-0.00137283
-0.00146947
-0.00156812
-0.00166861
-0.00177076
-0.00187432
-0.00197906
-0.00208467
-0.00219085
-0.00229722
-0.00240341
-0.00250899
-0.00261351
-0.00271647
-0.00281737
-0.00291566
-0.00301078
-0.00310215
-0.00318916
-0.00327122
-0.0033477
-0.00341801
-0.00348155
-0.00353775
-0.00358605
-0.00362595
-0.00365696
-0.00367868
-0.00369073
-0.00369284
-0.00368479
-0.00366646
-0.0036378
-0.00359889
-0.00354989
-0.00349108
-0.00342285
-0.00334571
-0.00326026
-0.00316724
-0.00306749
-0.00296195
-0.00285166
-0.00273777
-0.00262149
-0.0025041
-0.00238696
-0.00227145
-0.002159
-0.00205102
-0.00194894
-0.00185416
-0.00176803
-0.00169185
-0.00162682
-0.00157407
-0.00153458
-0.00150922
-0.00149872
-0.00150365
-0.0015244
-0.00156121
-0.0016141
-0.00168297
-0.00176748
-0.00186715
-0.00198133
-0.0021092
-0.0022498
-0.00240204
-0.00256472
-0.00273654
-0.00291611
-0.00310203
-0.00329282
-0.00348702
-0.00368316
-0.00387981
-0.0040756
-0.00426921
-0.0044594
-0.00464502
-0.00482504
-0.00499853
-0.00516465
-0.00532272
-0.00547214
-0.00561243
-0.0057432
-0.00586418
-0.00597515
-0.006076
-0.00616664
-0.00624703
-0.00631716
-0.00637701
-0.00642655
-0.00646572
-0.00649441
-0.0065124
-0.00651941
-0.00651512
-0.00649906
-0.00646951
-0.00642294
-0.00637116
0.000500872
0.000471294
0.000435737
0.000398416
0.000358638
0.000316333
0.00027175
0.000225089
0.000176482
0.000126018
7.37527e-05
1.97044e-05
-3.61372e-05
-9.38083e-05
-0.000153366
-0.000214885
-0.000278449
-0.000344151
-0.000412086
-0.00048235
-0.000555032
-0.000630216
-0.000707975
-0.00078837
-0.000871445
-0.000957229
-0.00104573
-0.00113693
-0.00123081
-0.00132728
-0.00142628
-0.00152767
-0.00163131
-0.00173702
-0.00184459
-0.00195375
-0.00206424
-0.00217572
-0.00228784
-0.00240019
-0.00251235
-0.00262383
-0.00273414
-0.00284274
-0.00294905
-0.00305249
-0.00315242
-0.00324823
-0.00333925
-0.00342484
-0.00350434
-0.00357712
-0.00364253
-0.0037
-0.00374894
-0.00378884
-0.00381923
-0.0038397
-0.00384991
-0.0038496
-0.0038386
-0.00381684
-0.00378435
-0.00374125
-0.00368779
-0.00362433
-0.00355135
-0.00346945
-0.00337935
-0.00328186
-0.00317794
-0.00306863
-0.00295507
-0.00283849
-0.0027202
-0.00260155
-0.00248397
-0.0023689
-0.00225782
-0.00215218
-0.00205342
-0.00196295
-0.00188211
-0.00181217
-0.00175429
-0.00170952
-0.00167879
-0.00166288
-0.00166241
-0.00167782
-0.0017094
-0.00175722
-0.00182119
-0.00190104
-0.0019963
-0.00210633
-0.00223035
-0.00236739
-0.00251636
-0.00267607
-0.00284519
-0.00302234
-0.00320607
-0.00339491
-0.00358734
-0.00378189
-0.0039771
-0.00417156
-0.00436393
-0.00455294
-0.00473744
-0.00491637
-0.00508878
-0.00525385
-0.00541087
-0.00555926
-0.00569854
-0.00582835
-0.00594841
-0.00605855
-0.00615865
-0.00624866
-0.00632856
-0.00639836
-0.00645805
-0.00650761
-0.006547
-0.0065761
-0.00659471
-0.00660253
-0.00659924
-0.00658437
-0.00655627
-0.00651154
-0.00646164
0.000590707
0.000553683
0.0005107
0.000467454
0.000422819
0.000376507
0.000328687
0.00027948
0.000228929
0.000177042
0.00012379
6.91175e-05
1.2941e-05
-4.48438e-05
-0.000104358
-0.000165734
-0.000229112
-0.000294636
-0.000362448
-0.000432687
-0.000505484
-0.000580961
-0.000659226
-0.000740373
-0.000824477
-0.000911596
-0.00100176
-0.00109499
-0.00119127
-0.00129056
-0.00139278
-0.00149783
-0.00160559
-0.00171587
-0.00182848
-0.00194315
-0.00205962
-0.00217755
-0.00229657
-0.00241628
-0.00253622
-0.0026559
-0.00277479
-0.00289232
-0.00300789
-0.00312087
-0.00323061
-0.00333641
-0.00343758
-0.00353342
-0.00362323
-0.00370632
-0.00378199
-0.0038496
-0.00390853
-0.0039582
-0.00399808
-0.00402771
-0.00404671
-0.00405476
-0.00405165
-0.00403725
-0.00401155
-0.00397465
-0.00392676
-0.0038682
-0.00379943
-0.00372104
-0.00363371
-0.00353826
-0.00343564
-0.00332689
-0.00321314
-0.00309565
-0.00297574
-0.0028548
-0.00273426
-0.00261562
-0.00250038
-0.00239005
-0.00228612
-0.00219004
-0.00210322
-0.00202698
-0.00196255
-0.00191104
-0.00187346
-0.00185064
-0.00184326
-0.00185183
-0.00187669
-0.00191798
-0.00197564
-0.00204946
-0.002139
-0.00224365
-0.00236264
-0.00249504
-0.00263975
-0.00279558
-0.00296121
-0.00313524
-0.00331619
-0.00350258
-0.00369286
-0.00388554
-0.00407911
-0.00427213
-0.00446324
-0.00465115
-0.00483466
-0.0050127
-0.0051843
-0.00534861
-0.00550494
-0.00565267
-0.00579135
-0.00592061
-0.00604019
-0.00614992
-0.00624971
-0.00633951
-0.00641933
-0.00648919
-0.0065491
-0.00659908
-0.00663906
-0.00666896
-0.00668857
-0.00669763
-0.0066958
-0.00668265
-0.0066566
-0.00661445
-0.00656716
0.000683176
0.000638353
0.000587583
0.000538109
0.000488354
0.000437797
0.000386521
0.000334557
0.000281858
0.000228335
0.000173874
0.000118338
6.15658e-05
3.38158e-06
-5.64024e-05
-0.000117981
-0.000181551
-0.000247309
-0.000315447
-0.000386148
-0.000459587
-0.000535922
-0.0006153
-0.000697847
-0.000783672
-0.000872861
-0.000965478
-0.00106156
-0.00116111
-0.00126412
-0.00137053
-0.00148026
-0.00159317
-0.00170912
-0.00182789
-0.00194925
-0.0020729
-0.00219851
-0.0023257
-0.00245405
-0.00258307
-0.00271227
-0.00284107
-0.00296887
-0.00309504
-0.0032189
-0.00333975
-0.00345684
-0.00356945
-0.0036768
-0.00377814
-0.00387272
-0.0039598
-0.00403866
-0.00410862
-0.00416905
-0.00421936
-0.00425903
-0.00428761
-0.00430475
-0.00431018
-0.00430373
-0.00428533
-0.00425505
-0.00421305
-0.00415963
-0.00409523
-0.00402038
-0.00393578
-0.00384223
-0.00374065
-0.00363209
-0.00351771
-0.00339875
-0.00327655
-0.00315253
-0.00302816
-0.00290497
-0.00278449
-0.00266829
-0.00255792
-0.00245488
-0.00236065
-0.00227661
-0.00220407
-0.00214422
-0.00209813
-0.00206671
-0.00205071
-0.00205074
-0.00206718
-0.00210024
-0.00214995
-0.00221611
-0.00229836
-0.00239614
-0.00250868
-0.0026351
-0.00277431
-0.00292512
-0.00308621
-0.00325618
-0.00343355
-0.00361678
-0.00380432
-0.00399464
-0.0041862
-0.00437754
-0.00456723
-0.00475397
-0.00493651
-0.00511376
-0.00528471
-0.00544851
-0.00560443
-0.00575185
-0.0058903
-0.00601941
-0.00613892
-0.00624867
-0.00634858
-0.00643861
-0.00651879
-0.00658914
-0.00664971
-0.0067005
-0.0067415
-0.00677261
-0.00679366
-0.00680439
-0.00680449
-0.00679357
-0.00677013
-0.00673119
-0.00668712
0.000777045
0.000724115
0.000665249
0.000609293
0.000554199
0.000499202
0.000444287
0.000389393
0.000334365
0.000279017
0.000223143
0.000166515
0.000108891
5.0021e-05
-1.0354e-05
-7.24927e-05
-0.000136652
-0.000203081
-0.000272024
-0.00034371
-0.000418355
-0.000496161
-0.000577308
-0.000661961
-0.000750258
-0.000842317
-0.000938229
-0.00103806
-0.00114183
-0.00124956
-0.0013612
-0.00147668
-0.00159589
-0.00171868
-0.00184484
-0.00197413
-0.00210626
-0.00224089
-0.0023776
-0.00251597
-0.0026555
-0.00279563
-0.00293577
-0.00307529
-0.00321349
-0.00334966
-0.00348304
-0.00361284
-0.00373827
-0.0038585
-0.00397271
-0.00408008
-0.00417982
-0.00427114
-0.00435331
-0.0044256
-0.0044874
-0.0045381
-0.0045772
-0.0046043
-0.00461905
-0.00462125
-0.00461078
-0.00458765
-0.00455199
-0.00450407
-0.00444428
-0.00437315
-0.00429132
-0.0041996
-0.0040989
-0.00399026
-0.00387483
-0.00375388
-0.00362876
-0.0035009
-0.00337183
-0.00324308
-0.00311626
-0.00299297
-0.00287481
-0.00276338
-0.0026602
-0.00256675
-0.0024844
-0.00241444
-0.00235801
-0.00231612
-0.00228961
-0.00227915
-0.00228523
-0.00230815
-0.00234798
-0.00240463
-0.00247776
-0.00256689
-0.0026713
-0.00279013
-0.00292232
-0.00306671
-0.00322198
-0.00338672
-0.00355943
-0.00373858
-0.00392259
-0.00410987
-0.00429888
-0.00448809
-0.00467605
-0.0048614
-0.00504288
-0.00521933
-0.00538972
-0.00555317
-0.0057089
-0.00585629
-0.00599484
-0.00612418
-0.00624403
-0.00635424
-0.00645471
-0.00654543
-0.00662642
-0.00669772
-0.00675939
-0.00681146
-0.00685391
-0.00688667
-0.0069096
-0.00692247
-0.00692496
-0.00691673
-0.00689642
-0.00686125
-0.00682092
0.000871034
0.000809734
0.00074251
0.000679863
0.000619253
0.000559658
0.000500958
0.000442986
0.000385476
0.000328134
0.000270653
0.000212713
0.000153985
9.41381e-05
3.28417e-05
-3.023e-05
-9.53947e-05
-0.000162959
-0.000233217
-0.000306446
-0.000382907
-0.00046284
-0.000546466
-0.000633983
-0.000725564
-0.000821357
-0.000921481
-0.00102602
-0.00113504
-0.00124856
-0.00136655
-0.00148896
-0.00161569
-0.00174659
-0.00188145
-0.00202003
-0.00216203
-0.00230709
-0.00245479
-0.00260466
-0.00275618
-0.00290877
-0.00306179
-0.00321455
-0.00336634
-0.00351636
-0.0036638
-0.00380784
-0.00394758
-0.00408217
-0.00421069
-0.00433229
-0.00444607
-0.0045512
-0.00464685
-0.00473227
-0.00480673
-0.00486959
-0.00492027
-0.00495831
-0.00498331
-0.004995
-0.00499322
-0.00497791
-0.00494918
-0.00490723
-0.00485243
-0.00478527
-0.00470638
-0.00461653
-0.00451662
-0.00440769
-0.00429088
-0.00416747
-0.00403882
-0.0039064
-0.00377174
-0.00363644
-0.00350213
-0.00337048
-0.00324316
-0.00312181
-0.00300806
-0.00290345
-0.00280945
-0.00272745
-0.00265868
-0.00260424
-0.0025651
-0.00254201
-0.00253557
-0.00254615
-0.00257394
-0.00261892
-0.00268085
-0.00275929
-0.00285359
-0.00296294
-0.00308634
-0.00322262
-0.0033705
-0.00352857
-0.00369534
-0.00386924
-0.00404868
-0.00423204
-0.00441774
-0.00460422
-0.00478997
-0.00497359
-0.00515376
-0.00532929
-0.00549911
-0.00566227
-0.00581797
-0.00596557
-0.00610452
-0.00623442
-0.00635501
-0.00646609
-0.00656757
-0.00665944
-0.00674171
-0.00681444
-0.00687769
-0.0069315
-0.00697587
-0.00701075
-0.00703602
-0.00705148
-0.00705682
-0.00705174
-0.007035
-0.00700409
-0.0069679
0.00096382
0.000893925
0.000818124
0.000748618
0.000682355
0.000618039
0.000555437
0.000494267
0.000434141
0.000374651
0.000315382
0.000255914
0.000195827
0.000134707
7.21478e-05
7.75342e-06
-5.88566e-05
-0.000128046
-0.000200162
-0.00027553
-0.000354456
-0.000437221
-0.000524085
-0.000615282
-0.000711018
-0.000811472
-0.000916791
-0.00102709
-0.00114245
-0.0012629
-0.00138845
-0.00151905
-0.0016546
-0.00179496
-0.00193992
-0.00208924
-0.00224259
-0.0023996
-0.00255984
-0.0027228
-0.00288792
-0.00305459
-0.00322212
-0.00338978
-0.00355679
-0.00372231
-0.00388547
-0.00404536
-0.00420105
-0.00435159
-0.00449601
-0.00463336
-0.0047627
-0.0048831
-0.00499367
-0.00509358
-0.00518204
-0.00525832
-0.0053218
-0.00537191
-0.00540822
-0.00543039
-0.00543818
-0.00543151
-0.00541041
-0.00537504
-0.00532574
-0.00526294
-0.00518725
-0.00509941
-0.00500031
-0.00489096
-0.00477251
-0.00464623
-0.0045135
-0.00437581
-0.00423471
-0.00409184
-0.00394889
-0.00380758
-0.00366963
-0.00353678
-0.00341073
-0.00329311
-0.00318549
-0.00308937
-0.00300608
-0.00293685
-0.00288274
-0.00284464
-0.00282325
-0.00281907
-0.00283239
-0.00286328
-0.00291162
-0.00297703
-0.00305897
-0.00315666
-0.00326917
-0.00339539
-0.00353403
-0.00368373
-0.00384298
-0.00401021
-0.00418381
-0.00436215
-0.00454358
-0.00472651
-0.0049094
-0.00509077
-0.00526927
-0.00544363
-0.00561273
-0.00577559
-0.00593135
-0.00607932
-0.00621891
-0.0063497
-0.00647137
-0.00658374
-0.00668668
-0.00678016
-0.0068642
-0.00693885
-0.00700418
-0.00706022
-0.007107
-0.00714447
-0.00717257
-0.00719106
-0.00719968
-0.00719818
-0.00718542
-0.00715916
-0.00712748
0.00105403
0.000975353
0.000890801
0.000814307
0.000742286
0.000673158