/*--------------------------------*- C++ -*----------------------------------*\
  =========                 |
  \\      /  F ield         | OpenFOAM: The Open Source CFD Toolbox
   \\    /   O peration     | Website:  https://openfoam.org
    \\  /    A nd           | Version:  12
     \\/     M anipulation  |
\*---------------------------------------------------------------------------*/
FoamFile
{
    format      ascii;
    class       surfaceScalarField;
    location    "4";
    object      phi;
}
// * * * * * * * * * * * * * * * * * * * * * * * * * * * * * * * * * * * * * //

dimensions      [0 3 -1 0 0 0 0];

internalField   nonuniform List<scalar> 
36180
(
3.26422e-11
-3.28577e-11
1.64472e-10
-1.31825e-10
3.66554e-10
-2.02065e-10
6.00221e-10
-2.33646e-10
8.35138e-10
-2.34898e-10
1.04959e-09
-2.14433e-10
1.22872e-09
-1.79118e-10
1.36288e-09
-1.34154e-10
1.44626e-09
-8.33649e-11
1.47575e-09
-2.94902e-11
1.45022e-09
2.55378e-11
1.36981e-09
8.04107e-11
1.23555e-09
1.34254e-10
1.04901e-09
1.86539e-10
8.12018e-10
2.36987e-10
5.26512e-10
2.85502e-10
1.94389e-10
3.32119e-10
-1.82576e-10
3.7696e-10
-6.02799e-10
4.20219e-10
-1.06492e-09
4.62114e-10
-1.56779e-09
5.02872e-10
-2.11051e-09
5.42714e-10
-2.69236e-09
5.81848e-10
-3.31282e-09
6.20462e-10
-3.97154e-09
6.58714e-10
-4.66827e-09
6.96726e-10
-5.40285e-09
7.34582e-10
-6.17518e-09
7.72329e-10
-6.98516e-09
8.09977e-10
-7.83266e-09
8.47496e-10
-8.71748e-09
8.84822e-10
-9.63934e-09
9.21857e-10
-1.05978e-08
9.58469e-10
-1.15923e-08
9.945e-10
-1.26221e-08
1.02976e-09
-1.36861e-08
1.06404e-09
-1.47832e-08
1.0971e-09
-1.59119e-08
1.12869e-09
-1.70705e-08
1.15854e-09
-1.82568e-08
1.18636e-09
-1.94687e-08
1.21184e-09
-2.07034e-08
1.23468e-09
-2.19579e-08
1.25456e-09
-2.32291e-08
1.27115e-09
-2.45132e-08
1.28412e-09
-2.58063e-08
1.29315e-09
-2.71042e-08
1.2979e-09
-2.84023e-08
1.29807e-09
-2.96957e-08
1.29335e-09
-3.09791e-08
1.28342e-09
-3.22471e-08
1.26802e-09
-3.3494e-08
1.24688e-09
-3.47138e-08
1.21978e-09
-3.59003e-08
1.18649e-09
-3.70471e-08
1.14684e-09
-3.81478e-08
1.1007e-09
-3.91958e-08
1.04795e-09
-4.01843e-08
9.88552e-10
-4.11068e-08
9.22484e-10
-4.19566e-08
8.4979e-10
-4.27271e-08
7.70563e-10
-4.34121e-08
6.84953e-10
-4.40053e-08
5.93169e-10
-4.45007e-08
4.95477e-10
-4.48929e-08
3.92197e-10
-4.51766e-08
2.83684e-10
-4.5347e-08
1.70359e-10
-4.54003e-08
5.33644e-11
-4.53325e-08
-6.78395e-11
-4.51407e-08
-1.91842e-10
-4.48225e-08
-3.18149e-10
-4.43765e-08
-4.46014e-10
-4.38019e-08
-5.74647e-10
-4.30986e-08
-7.03218e-10
-4.22678e-08
-8.30864e-10
-4.13111e-08
-9.56693e-10
-4.02313e-08
-1.0798e-09
-3.9032e-08
-1.19926e-09
-3.77179e-08
-1.31415e-09
-3.62943e-08
-1.42358e-09
-3.47677e-08
-1.52665e-09
-3.31452e-08
-1.6225e-09
-3.14348e-08
-1.71032e-09
-2.96455e-08
-1.78934e-09
-2.77866e-08
-1.85887e-09
-2.58683e-08
-1.91829e-09
-2.39013e-08
-1.96704e-09
-2.18966e-08
-2.00468e-09
-1.98658e-08
-2.03084e-09
-1.78205e-08
-2.04529e-09
-1.57726e-08
-2.04788e-09
-1.3734e-08
-2.03858e-09
-1.17165e-08
-2.01749e-09
-9.73176e-09
-1.98479e-09
-7.79094e-09
-1.94082e-09
-5.90496e-09
-1.88598e-09
-4.08415e-09
-1.82081e-09
-2.33821e-09
-1.74594e-09
-6.7613e-10
-1.66208e-09
8.93877e-10
-1.57001e-09
2.36447e-09
-1.47059e-09
3.72922e-09
-1.36475e-09
4.98264e-09
-1.25342e-09
6.12022e-09
-1.13758e-09
7.13847e-09
-1.01825e-09
8.03491e-09
-8.96442e-10
8.80803e-09
-7.73117e-10
9.45727e-09
-6.49248e-10
9.98304e-09
-5.25769e-10
1.03866e-08
-4.03573e-10
1.06701e-08
-2.83503e-10
1.08365e-08
-1.6635e-10
1.08893e-08
-5.28554e-11
1.0833e-08
5.63192e-11
1.06725e-08
1.60515e-10
1.04133e-08
2.59187e-10
1.00615e-08
3.51761e-10
9.62385e-09
4.37686e-10
9.10744e-09
5.16409e-10
8.5201e-09
5.87347e-10
7.87025e-09
6.49848e-10
7.16709e-09
7.03158e-10
6.42072e-09
7.46369e-10
5.64235e-09
7.78367e-10
4.84458e-09
7.97774e-10
4.0417e-09
8.02879e-10
3.25012e-09
7.91577e-10
2.48881e-09
7.61315e-10
1.77971e-09
7.09095e-10
1.14808e-09
6.31633e-10
6.22187e-10
5.25892e-10
2.3182e-10
3.90367e-10
3.50945e-12
2.28311e-10
-5.49494e-11
5.84587e-11
-5.49495e-11
1.32314e-10
-1.65197e-10
4.62383e-10
-4.61901e-10
9.18143e-10
-6.57812e-10
1.42672e-09
-7.4221e-10
1.92601e-09
-7.34159e-10
2.36775e-09
-6.56161e-10
2.71656e-09
-5.27913e-10
2.94774e-09
-3.65321e-10
3.0451e-09
-1.80711e-10
2.99896e-09
1.66547e-11
2.8045e-09
2.19997e-10
2.46043e-09
4.24479e-10
1.96791e-09
6.26771e-10
1.32973e-09
8.2472e-10
5.49634e-10
1.01708e-09
-3.68144e-10
1.20327e-09
-1.41928e-09
1.38325e-09
-2.5996e-09
1.55727e-09
-3.90523e-09
1.72585e-09
-5.33271e-09
1.88959e-09
-6.87905e-09
2.04921e-09
-8.54176e-09
2.20542e-09
-1.03188e-08
2.35889e-09
-1.22086e-08
2.51024e-09
-1.42098e-08
2.65993e-09
-1.63214e-08
2.80837e-09
-1.85427e-08
2.95578e-09
-2.08726e-08
3.1023e-09
-2.33105e-08
3.24788e-09
-2.58554e-08
3.39239e-09
-2.85061e-08
3.53552e-09
-3.12611e-08
3.67687e-09
-3.41186e-08
3.81592e-09
-3.70761e-08
3.95202e-09
-4.01308e-08
4.08444e-09
-4.32791e-08
4.21235e-09
-4.65168e-08
4.33485e-09
-4.98391e-08
4.45097e-09
-5.32402e-08
4.55965e-09
-5.67137e-08
4.6598e-09
-6.02521e-08
4.75029e-09
-6.38474e-08
4.82995e-09
-6.74904e-08
4.89757e-09
-7.11712e-08
4.95195e-09
-7.4879e-08
4.99189e-09
-7.8602e-08
5.01616e-09
-8.23277e-08
5.0236e-09
-8.60427e-08
5.01304e-09
-8.97327e-08
4.98339e-09
-9.33829e-08
4.93358e-09
-9.69775e-08
4.86265e-09
-1.005e-07
4.76969e-09
-1.03934e-07
4.65391e-09
-1.07263e-07
4.51462e-09
-1.10467e-07
4.35128e-09
-1.1353e-07
4.16346e-09
-1.16433e-07
3.9509e-09
-1.19158e-07
3.7135e-09
-1.21687e-07
3.45134e-09
-1.24001e-07
3.16469e-09
-1.26085e-07
2.85403e-09
-1.2792e-07
2.52003e-09
-1.2949e-07
2.16358e-09
-1.30781e-07
1.78578e-09
-1.31776e-07
1.38797e-09
-1.32464e-07
9.71604e-10
-1.32832e-07
5.3835e-10
-1.3287e-07
9.12191e-11
-1.32569e-07
-3.68947e-10
-1.31922e-07
-8.39176e-10
-1.30923e-07
-1.31688e-09
-1.2957e-07
-1.79929e-09
-1.27861e-07
-2.28351e-09
-1.25798e-07
-2.76647e-09
-1.23384e-07
-3.24502e-09
-1.20624e-07
-3.71592e-09
-1.17528e-07
-4.17586e-09
-1.14106e-07
-4.62153e-09
-1.1037e-07
-5.04962e-09
-1.06337e-07
-5.45686e-09
-1.02024e-07
-5.84008e-09
-9.74501e-08
-6.19621e-09
-9.2638e-08
-6.52234e-09
-8.76116e-08
-6.81576e-09
-8.23965e-08
-7.07399e-09
-7.702e-08
-7.29481e-09
-7.15107e-08
-7.47628e-09
-6.58986e-08
-7.61679e-09
-6.02144e-08
-7.71509e-09
-5.44894e-08
-7.77029e-09
-4.87554e-08
-7.78189e-09
-4.30442e-08
-7.74978e-09
-3.73874e-08
-7.67427e-09
-3.18161e-08
-7.55604e-09
-2.63607e-08
-7.39622e-09
-2.10504e-08
-7.19628e-09
-1.59131e-08
-6.95809e-09
-1.09752e-08
-6.68385e-09
-6.26122e-09
-6.3761e-09
-1.7936e-09
-6.03763e-09
2.40731e-09
-5.6715e-09
6.32353e-09
-5.28097e-09
9.93958e-09
-4.86947e-09
1.32426e-08
-4.44056e-09
1.62221e-08
-3.99783e-09
1.88706e-08
-3.5449e-09
2.11829e-08
-3.08541e-09
2.31566e-08
-2.62291e-09
2.47917e-08
-2.16087e-09
2.60907e-08
-1.70261e-09
2.70585e-08
-1.25132e-09
2.77022e-08
-8.1002e-10
2.80309e-08
-3.81537e-10
2.80557e-08
3.14795e-11
2.77898e-08
4.26467e-10
2.72478e-08
8.01186e-10
2.64462e-08
1.15332e-09
2.54033e-08
1.4806e-09
2.41389e-08
1.78078e-09
2.26748e-08
2.05148e-09
2.10345e-08
2.2901e-09
1.9244e-08
2.49371e-09
1.73314e-08
2.6589e-09
1.53282e-08
2.78162e-09
1.32689e-08
2.85704e-09
1.11924e-08
2.87942e-09
9.14198e-09
2.84199e-09
7.16632e-09
2.73697e-09
5.31955e-09
2.55587e-09
3.66088e-09
2.29031e-09
2.25275e-09
1.93402e-09
1.15607e-09
1.48704e-09
4.19757e-10
9.64627e-10
5.85647e-11
4.19651e-10
3.61512e-12
2.04197e-10
-3.69435e-10
6.61764e-10
-9.19488e-10
1.25726e-09
-1.25331e-09
1.89628e-09
-1.38122e-09
2.49999e-09
-1.33785e-09
3.00536e-09
-1.16151e-09
3.36435e-09
-8.86887e-10
3.54203e-09
-5.42984e-10
3.51435e-09
-1.53028e-10
3.26604e-09
2.64968e-10
2.78863e-09
6.9741e-10
2.07876e-09
1.13435e-09
1.13674e-09
1.56879e-09
-3.45725e-11
1.99603e-09
-1.43071e-09
2.41321e-09
-3.04628e-09
2.81883e-09
-4.87548e-09
3.21244e-09
-6.91255e-09
3.59434e-09
-9.15202e-09
3.96531e-09
-1.15889e-08
4.3265e-09
-1.42189e-08
4.67917e-09
-1.70381e-08
5.02463e-09
-2.00434e-08
5.36413e-09
-2.32319e-08
5.69878e-09
-2.66014e-08
6.02947e-09
-3.015e-08
6.35688e-09
-3.38756e-08
6.68141e-09
-3.77765e-08
7.00319e-09
-4.18507e-08
7.32206e-09
-4.60959e-08
7.63761e-09
-5.05095e-08
7.94913e-09
-5.50883e-08
8.25566e-09
-5.98284e-08
8.556e-09
-6.47251e-08
8.84873e-09
-6.97729e-08
9.1322e-09
-7.49651e-08
9.40461e-09
-8.02942e-08
9.66394e-09
-8.57513e-08
9.90808e-09
-9.13264e-08
1.01347e-08
-9.70082e-08
1.03416e-08
-1.02784e-07
1.05261e-08
-1.0864e-07
1.06859e-08
-1.14561e-07
1.08183e-08
-1.2053e-07
1.09208e-08
-1.26529e-07
1.09908e-08
-1.32538e-07
1.10258e-08
-1.38538e-07
1.10234e-08
-1.44506e-07
1.09811e-08
-1.50419e-07
1.08967e-08
-1.56254e-07
1.0768e-08
-1.61984e-07
1.05931e-08
-1.67585e-07
1.03702e-08
-1.73029e-07
1.00978e-08
-1.78289e-07
9.77457e-09
-1.83337e-07
9.39949e-09
-1.88145e-07
8.97189e-09
-1.92686e-07
8.4914e-09
-1.9693e-07
7.95802e-09
-2.00851e-07
7.37213e-09
-2.04421e-07
6.73451e-09
-2.07613e-07
6.04637e-09
-2.10403e-07
5.30935e-09
-2.12765e-07
4.52554e-09
-2.14676e-07
3.69748e-09
-2.16117e-07
2.82814e-09
-2.17066e-07
1.92095e-09
-2.17507e-07
9.79822e-10
-2.17426e-07
9.52783e-12
-2.16809e-07
-9.8578e-10
-2.15647e-07
-2.00073e-09
-2.13934e-07
-3.02979e-09
-2.11667e-07
-4.06707e-09
-2.08844e-07
-5.10639e-09
-2.05469e-07
-6.14135e-09
-2.01548e-07
-7.16531e-09
-1.97093e-07
-8.1715e-09
-1.92116e-07
-9.15306e-09
-1.86634e-07
-1.01031e-08
-1.80669e-07
-1.10148e-08
-1.74245e-07
-1.18813e-08
-1.67388e-07
-1.26962e-08
-1.60131e-07
-1.34532e-08
-1.52508e-07
-1.41462e-08
-1.44554e-07
-1.47697e-08
-1.36309e-07
-1.53186e-08
-1.27815e-07
-1.57884e-08
-1.19117e-07
-1.61751e-08
-1.10258e-07
-1.64754e-08
-1.01287e-07
-1.66867e-08
-9.22496e-08
-1.68072e-08
-8.31956e-08
-1.68359e-08
-7.41729e-08
-1.67725e-08
-6.52296e-08
-1.66175e-08
-5.64132e-08
-1.63725e-08
-4.77697e-08
-1.60397e-08
-3.93441e-08
-1.56219e-08
-3.11791e-08
-1.51231e-08
-2.33152e-08
-1.45477e-08
-1.57904e-08
-1.39009e-08
-8.63961e-09
-1.31884e-08
-1.89463e-09
-1.24165e-08
4.41626e-09
-1.15919e-08
1.02684e-08
-1.07216e-08
1.56409e-08
-9.81306e-09
2.05168e-08
-8.87372e-09
2.48831e-08
-7.91118e-09
2.87307e-08
-6.93301e-09
3.20545e-08
-5.94674e-09
3.48533e-08
-4.95969e-09
3.71297e-08
-3.97898e-09
3.88898e-08
-3.01145e-09
4.01434e-08
-2.06363e-09
4.09036e-08
-1.14171e-09
4.11866e-08
-2.51557e-10
4.10118e-08
6.0126e-10
4.04015e-08
1.41148e-09
3.93809e-08
2.17397e-09
3.79778e-08
2.88365e-09
3.62232e-08
3.53539e-09
3.41509e-08
4.12385e-09
3.17976e-08
4.64331e-09
2.9204e-08
5.08739e-09
2.6414e-08
5.44886e-09
2.34762e-08
5.71939e-09
2.0444e-08
5.88929e-09
1.7376e-08
5.94739e-09
1.4337e-08
5.88101e-09
1.13978e-08
5.6762e-09
8.63512e-09
5.3185e-09
6.13056e-09
4.79487e-09
3.96726e-09
4.09732e-09
2.22428e-09
3.23002e-09
9.66542e-10
2.22237e-09
2.29011e-10
1.15718e-09
2.32626e-10
2.37276e-10
-6.06751e-10
7.48611e-10
-1.43085e-09
1.38713e-09
-1.89183e-09
2.0413e-09
-2.03538e-09
2.62157e-09
-1.9181e-09
3.05654e-09
-1.59647e-09
3.291e-09
-1.12133e-09
3.28388e-09
-5.35853e-10
3.00613e-09
1.24736e-10
2.43855e-09
8.32555e-10
1.5698e-09
1.56616e-09
3.94627e-10
2.30953e-09
-1.08772e-09
3.05113e-09
-2.87475e-09
3.78306e-09
-4.96184e-09
4.50029e-09
-7.34307e-09
5.20005e-09
-1.00119e-08
5.88126e-09
-1.29616e-08
6.54407e-09
-1.61858e-08
7.18949e-09
-1.96784e-08
7.81908e-09
-2.34339e-08
8.43469e-09
-2.74475e-08
9.03823e-09
-3.17149e-08
9.63153e-09
-3.62323e-08
1.02162e-08
-4.09963e-08
1.07935e-08
-4.60038e-08
1.13643e-08
-5.12516e-08
1.19292e-08
-5.67367e-08
1.24882e-08
-6.24555e-08
1.30408e-08
-6.84041e-08
1.35862e-08
-7.45779e-08
1.4123e-08
-8.09718e-08
1.46495e-08
-8.75792e-08
1.51634e-08
-9.43928e-08
1.56623e-08
-1.01404e-07
1.61433e-08
-1.08602e-07
1.66031e-08
-1.15977e-07
1.70384e-08
-1.23514e-07
1.74454e-08
-1.312e-07
1.78202e-08
-1.39017e-07
1.81588e-08
-1.46948e-07
1.84569e-08
-1.54972e-07
1.87104e-08
-1.63069e-07
1.89148e-08
-1.71214e-07
1.9066e-08
-1.79382e-07
1.91595e-08
-1.87548e-07
1.91912e-08
-1.95681e-07
1.9157e-08
-2.03753e-07
1.90531e-08
-2.11732e-07
1.88756e-08
-2.19586e-07
1.86213e-08
-2.27279e-07
1.82869e-08
-2.34779e-07
1.78697e-08
-2.42048e-07
1.73674e-08
-2.49052e-07
1.67781e-08
-2.55753e-07
1.61003e-08
-2.62114e-07
1.53332e-08
-2.68099e-07
1.44765e-08
-2.73672e-07
1.35305e-08
-2.78796e-07
1.24962e-08
-2.83436e-07
1.13752e-08
-2.8756e-07
1.01699e-08
-2.91134e-07
8.88344e-09
-2.94128e-07
7.51958e-09
-2.96514e-07
6.08289e-09
-2.98264e-07
4.57868e-09
-2.99356e-07
3.01299e-09
-2.99769e-07
1.39265e-09
-2.99485e-07
-2.74747e-10
-2.98489e-07
-1.98125e-09
-2.96772e-07
-3.71807e-09
-2.94326e-07
-5.47584e-09
-2.91148e-07
-7.24467e-09
-2.8724e-07
-9.01422e-09
-2.82608e-07
-1.07738e-08
-2.77261e-07
-1.25123e-08
-2.71214e-07
-1.42187e-08
-2.64485e-07
-1.58814e-08
-2.57099e-07
-1.74893e-08
-2.49083e-07
-1.90309e-08
-2.40469e-07
-2.04953e-08
-2.31294e-07
-2.18717e-08
-2.21597e-07
-2.31498e-08
-2.11423e-07
-2.43199e-08
-2.0082e-07
-2.53729e-08
-1.89838e-07
-2.63004e-08
-1.78531e-07
-2.70951e-08
-1.66956e-07
-2.77505e-08
-1.5517e-07
-2.82611e-08
-1.43234e-07
-2.86228e-08
-1.31209e-07
-2.88326e-08
-1.19156e-07
-2.88886e-08
-1.07138e-07
-2.87905e-08
-9.52164e-08
-2.85392e-08
-8.3452e-08
-2.81369e-08
-7.19046e-08
-2.75871e-08
-6.06319e-08
-2.68947e-08
-4.96893e-08
-2.60657e-08
-3.91295e-08
-2.51075e-08
-2.90019e-08
-2.40285e-08
-1.93525e-08
-2.28378e-08
-1.02231e-08
-2.15459e-08
-1.65137e-09
-2.01636e-08
6.32957e-09
-1.87025e-08
1.36914e-08
-1.71748e-08
2.04105e-08
-1.55929e-08
2.64686e-08
-1.39693e-08
3.18523e-08
-1.23166e-08
3.65531e-08
-1.06476e-08
4.05678e-08
-8.97438e-09
4.38979e-08
-7.30914e-09
4.655e-08
-5.66351e-09
4.8535e-08
-4.04864e-09
4.98685e-08
-2.47523e-09
5.05705e-08
-9.53571e-10
5.06651e-08
5.06655e-10
5.01805e-08
1.89608e-09
4.91488e-08
3.20566e-09
4.76061e-08
4.42642e-09
4.55922e-08
5.54925e-09
4.31513e-08
6.5648e-09
4.03314e-08
7.46314e-09
3.71854e-08
8.23342e-09
3.37707e-08
8.86358e-09
3.01501e-08
9.34002e-09
2.6392e-08
9.64736e-09
2.25711e-08
9.7683e-09
1.87683e-08
9.68377e-09
1.5071e-08
9.37348e-09
1.15722e-08
8.81734e-09
8.36892e-09
7.99815e-09
5.5595e-09
6.90675e-09
3.2389e-09
5.55062e-09
1.49274e-09
3.96853e-09
3.92273e-10
2.25765e-09
6.24899e-10
2.38862e-10
-8.45655e-10
7.37855e-10
-1.92987e-09
1.33362e-09
-2.48761e-09
1.90348e-09
-2.60523e-09
2.35115e-09
-2.36576e-09
2.60073e-09
-1.84603e-09
2.59345e-09
-1.11404e-09
2.28523e-09
-2.27621e-10
1.64439e-09
7.65593e-10
6.49517e-10
1.82743e-09
-7.1244e-10
2.92811e-09
-2.44801e-09
4.04509e-09
-4.55876e-09
5.16188e-09
-7.04266e-09
6.26695e-09
-9.8952e-09
7.35283e-09
-1.31103e-08
8.41517e-09
-1.66811e-08
9.45206e-09
-2.06004e-08
1.04634e-08
-2.48611e-08
1.14502e-08
-2.94564e-08
1.24144e-08
-3.43801e-08
1.33584e-08
-3.96264e-08
1.42845e-08
-4.51901e-08
1.51952e-08
-5.10665e-08
1.60925e-08
-5.72509e-08
1.69779e-08
-6.3739e-08
1.78525e-08
-7.05264e-08
1.87166e-08
-7.76083e-08
1.95701e-08
-8.49795e-08
2.04121e-08
-9.26342e-08
2.12409e-08
-1.00565e-07
2.20543e-08
-1.08766e-07
2.28495e-08
-1.17225e-07
2.36231e-08
-1.25934e-07
2.43711e-08
-1.3488e-07
2.5089e-08
-1.44049e-07
2.57719e-08
-1.53425e-07
2.64145e-08
-1.6299e-07
2.70111e-08
-1.72726e-07
2.75559e-08
-1.8261e-07
2.80427e-08
-1.92618e-07
2.84653e-08
-2.02725e-07
2.88172e-08
-2.12903e-07
2.90921e-08
-2.2312e-07
2.92836e-08
-2.33346e-07
2.93854e-08
-2.43546e-07
2.93912e-08
-2.53685e-07
2.92954e-08
-2.63724e-07
2.90921e-08
-2.73624e-07
2.87762e-08
-2.83346e-07
2.83428e-08
-2.92846e-07
2.77876e-08
-3.02083e-07
2.71068e-08
-3.11013e-07
2.62974e-08
-3.19592e-07
2.53569e-08
-3.27775e-07
2.42836e-08
-3.35519e-07
2.30767e-08
-3.42779e-07
2.17363e-08
-3.49512e-07
2.02632e-08
-3.55675e-07
1.86595e-08
-3.61228e-07
1.69281e-08
-3.66131e-07
1.50728e-08
-3.70346e-07
1.30989e-08
-3.73839e-07
1.10122e-08
-3.76576e-07
8.82014e-09
-3.78528e-07
6.53082e-09
-3.79669e-07
4.15354e-09
-3.79975e-07
1.69866e-09
-3.79427e-07
-8.22496e-10
-3.7801e-07
-3.39777e-09
-3.75714e-07
-6.01407e-09
-3.72533e-07
-8.65751e-09
-3.68464e-07
-1.13135e-08
-3.63512e-07
-1.39667e-08
-3.57684e-07
-1.66015e-08
-3.50994e-07
-1.92018e-08
-3.43462e-07
-2.17511e-08
-3.3511e-07
-2.4233e-08
-3.25968e-07
-2.6631e-08
-3.16071e-07
-2.89288e-08
-3.05456e-07
-3.11103e-08
-2.94167e-07
-3.31601e-08
-2.82254e-07
-3.50633e-08
-2.69768e-07
-3.68058e-08
-2.56766e-07
-3.83746e-08
-2.43309e-07
-3.97576e-08
-2.2946e-07
-4.09441e-08
-2.15286e-07
-4.19249e-08
-2.00855e-07
-4.26922e-08
-1.86238e-07
-4.32397e-08
-1.71507e-07
-4.35632e-08
-1.56736e-07
-4.36599e-08
-1.41997e-07
-4.35292e-08
-1.27364e-07
-4.31723e-08
-1.12909e-07
-4.25922e-08
-9.87018e-08
-4.17939e-08
-8.48122e-08
-4.07843e-08
-7.1306e-08
-3.95719e-08
-5.82463e-08
-3.81672e-08
-4.56926e-08
-3.65822e-08
-3.37004e-08
-3.48301e-08
-2.23206e-08
-3.29257e-08
-1.15994e-08
-3.08848e-08
-1.57776e-09
-2.87242e-08
7.70891e-09
-2.64615e-08
1.62308e-08
-2.41147e-08
2.39638e-08
-2.17023e-08
3.089e-08
-1.92428e-08
3.69972e-08
-1.67548e-08
4.22795e-08
-1.42566e-08
4.67364e-08
-1.17661e-08
5.03738e-08
-9.30086e-09
5.32028e-08
-6.87769e-09
5.52405e-08
-4.51288e-09
5.65089e-08
-2.22198e-09
5.70355e-08
-1.99903e-11
5.6853e-08
2.0786e-09
5.59989e-08
4.05981e-09
5.45155e-08
5.90978e-09
5.24503e-08
7.61442e-09
4.98557e-08
9.1594e-09
4.67892e-08
1.05297e-08
4.33135e-08
1.17091e-08
3.94971e-08
1.268e-08
3.54143e-08
1.34228e-08
3.11457e-08
1.3916e-08
2.67782e-08
1.41358e-08
2.24054e-08
1.40565e-08
1.81272e-08
1.36518e-08
1.40487e-08
1.28958e-08
1.02795e-08
1.17673e-08
6.93152e-09
1.02547e-08
4.11654e-09
8.36559e-09
1.94511e-09
6.13996e-09
5.29469e-10
3.67329e-09
1.15437e-09
2.16261e-10
-1.06195e-09
6.47584e-10
-2.36123e-09
1.12611e-09
-2.96615e-09
1.52462e-09
-3.00373e-09
1.7441e-09
-2.58524e-09
1.70723e-09
-1.80914e-09
1.35442e-09
-7.61216e-10
6.40931e-10
4.85883e-10
-4.65549e-10
1.87208e-09
-1.98703e-09
3.34892e-09
-3.93715e-09
4.87824e-09
-6.32295e-09
6.43089e-09
-9.14638e-09
7.9853e-09
-1.24056e-08
9.52622e-09
-1.60964e-08
1.10436e-08
-2.02125e-08
1.25313e-08
-2.47469e-08
1.39865e-08
-2.96922e-08
1.54086e-08
-3.50409e-08
1.67988e-08
-4.07857e-08
1.81592e-08
-4.69198e-08
1.94924e-08
-5.34367e-08
2.08015e-08
-6.03304e-08
2.20889e-08
-6.7595e-08
2.33572e-08
-7.5225e-08
2.46079e-08
-8.32147e-08
2.58421e-08
-9.1558e-08
2.70599e-08
-1.00249e-07
2.82606e-08
-1.09279e-07
2.94426e-08
-1.18642e-07
3.06033e-08
-1.28327e-07
3.17394e-08
-1.38324e-07
3.28466e-08
-1.4862e-07
3.39199e-08
-1.59203e-07
3.49535e-08
-1.70055e-07
3.59411e-08
-1.81159e-07
3.68756e-08
-1.92494e-07
3.77497e-08
-2.04038e-07
3.85553e-08
-2.15766e-07
3.92843e-08
-2.27652e-07
3.9928e-08
-2.39664e-07
4.04779e-08
-2.51772e-07
4.09252e-08
-2.63941e-07
4.1261e-08
-2.76134e-07
4.14767e-08
-2.88313e-07
4.15638e-08
-3.00435e-07
4.1514e-08
-3.1246e-07
4.13194e-08
-3.2434e-07
4.09727e-08
-3.36031e-07
4.04668e-08
-3.47484e-07
3.97958e-08
-3.5865e-07
3.89539e-08
-3.6948e-07
3.79366e-08
-3.79922e-07
3.67401e-08
-3.89927e-07
3.53616e-08
-3.99443e-07
3.37995e-08
-4.08419e-07
3.20532e-08
-4.16807e-07
3.01235e-08
-4.24556e-07
2.80122e-08
-4.31619e-07
2.57227e-08
-4.3795e-07
2.32595e-08
-4.43506e-07
2.06289e-08
-4.48246e-07
1.78381e-08
-4.5213e-07
1.48962e-08
-4.55123e-07
1.18134e-08
-4.57193e-07
8.60143e-09
-4.58313e-07
5.27341e-09
-4.58458e-07
1.84376e-09
-4.57609e-07
-1.6718e-09
-4.5575e-07
-5.25642e-09
-4.52872e-07
-8.89211e-09
-4.4897e-07
-1.25599e-08
-4.44044e-07
-1.62398e-08
-4.38099e-07
-1.99112e-08
-4.31148e-07
-2.35528e-08
-4.23207e-07
-2.71429e-08
-4.14298e-07
-3.06594e-08
-4.04451e-07
-3.40802e-08
-3.93699e-07
-3.73832e-08
-3.82081e-07
-4.05465e-08
-3.69643e-07
-4.35488e-08
-3.56434e-07
-4.63694e-08
-3.42508e-07
-4.89884e-08
-3.27927e-07
-5.13872e-08
-3.12753e-07
-5.35482e-08
-2.97056e-07
-5.54554e-08
-2.80905e-07
-5.70946e-08
-2.64377e-07
-5.84534e-08
-2.47548e-07
-5.95212e-08
-2.30498e-07
-6.02898e-08
-2.13308e-07
-6.07531e-08
-1.9606e-07
-6.09077e-08
-1.78837e-07
-6.07523e-08
-1.61721e-07
-6.02883e-08
-1.44793e-07
-5.95196e-08
-1.28134e-07
-5.84527e-08
-1.11822e-07
-5.70964e-08
-9.59322e-08
-5.5462e-08
-8.05364e-08
-5.35631e-08
-6.5703e-08
-5.14155e-08
-5.14962e-08
-4.90369e-08
-3.79751e-08
-4.64468e-08
-2.51936e-08
-4.36662e-08
-1.32001e-08
-4.07177e-08
-2.03685e-09
-3.76248e-08
8.26008e-09
-3.44117e-08
1.76611e-08
-3.11033e-08
2.61432e-08
-2.7725e-08
3.36903e-08
-2.43019e-08
4.02928e-08
-2.08591e-08
4.59479e-08
-1.74213e-08
5.06597e-08
-1.40127e-08
5.44388e-08
-1.06567e-08
5.7302e-08
-7.37615e-09
5.92729e-08
-4.19286e-09
6.0381e-08
-1.12806e-09
6.06618e-08
1.79778e-09
6.01569e-08
4.56472e-09
5.89136e-08
7.15312e-09
5.6985e-08
9.54298e-09
5.44302e-08
1.17142e-08
5.13142e-08
1.36458e-08
4.77077e-08
1.53156e-08
4.3688e-08
1.66997e-08
3.93386e-08
1.77722e-08
3.47496e-08
1.8505e-08
3.00178e-08
1.88676e-08
2.52465e-08
1.88278e-08
2.05454e-08
1.83529e-08
1.603e-08
1.74112e-08
1.1821e-08
1.59763e-08
8.04339e-09
1.40323e-08
4.82685e-09
1.15821e-08
2.30778e-09
8.65902e-09
6.37094e-10
5.34398e-09
1.79146e-09
1.75129e-10
-1.23712e-09
4.93377e-10
-2.6795e-09
7.91021e-10
-3.26381e-09
9.42251e-10
-3.15496e-09
8.493e-10
-2.49228e-09
4.36302e-10
-1.39613e-09
-3.54818e-10
2.99189e-11
-1.56744e-09
1.69852e-09
-3.2328e-09
3.53745e-09
-5.37211e-09
5.48823e-09
-7.99851e-09
7.50464e-09
-1.11187e-08
9.55108e-09
-1.47345e-08
1.16011e-08
-1.88439e-08
1.36357e-08
-2.34426e-08
1.56423e-08
-2.85245e-08
1.76131e-08
-3.40823e-08
1.95443e-08
-4.01084e-08
2.14348e-08
-4.65952e-08
2.32856e-08
-5.3535e-08
2.5099e-08
-6.09206e-08
2.6878e-08
-6.87448e-08
2.86257e-08
-7.70008e-08
3.0345e-08
-8.5682e-08
3.20383e-08
-9.47814e-08
3.37073e-08
-1.04292e-07
3.53527e-08
-1.14206e-07
3.69742e-08
-1.24516e-07
3.85701e-08
-1.35211e-07
4.01381e-08
-1.46282e-07
4.16742e-08
-1.57716e-07
4.31735e-08
-1.695e-07
4.46303e-08
-1.81617e-07
4.60375e-08
-1.94051e-07
4.73872e-08
-2.06781e-07
4.8671e-08
-2.19785e-07
4.98793e-08
-2.33037e-07
5.10022e-08
-2.46511e-07
5.20293e-08
-2.60177e-07
5.29495e-08
-2.74e-07
5.37518e-08
-2.87947e-07
5.44248e-08
-3.01979e-07
5.4957e-08
-3.16055e-07
5.53372e-08
-3.30133e-07
5.55542e-08
-3.44166e-07
5.55971e-08
-3.58108e-07
5.54555e-08
-3.71908e-07
5.51195e-08
-3.85515e-07
5.45798e-08
-3.98876e-07
5.38281e-08
-4.11937e-07
5.28566e-08
-4.24642e-07
5.16591e-08
-4.36936e-07
5.02299e-08
-4.4876e-07
4.85649e-08
-4.6006e-07
4.66614e-08
-4.70779e-07
4.45179e-08
-4.8086e-07
4.21345e-08
-4.90249e-07
3.95129e-08
-4.98894e-07
3.66564e-08
-5.06741e-07
3.35702e-08
-5.13743e-07
3.0261e-08
-5.19851e-07
2.67373e-08
-5.25022e-07
2.30096e-08
-5.29216e-07
1.90901e-08
-5.32396e-07
1.49926e-08
-5.34527e-07
1.07329e-08
-5.35582e-07
6.32825e-09
-5.35536e-07
1.79779e-09
-5.3437e-07
-2.83796e-09
-5.32069e-07
-7.55702e-09
-5.28625e-07
-1.2336e-08
-5.24035e-07
-1.71505e-08
-5.183e-07
-2.19747e-08
-5.11429e-07
-2.67823e-08
-5.03435e-07
-3.1546e-08
-4.9434e-07
-3.6238e-08
-4.84169e-07
-4.08303e-08
-4.72955e-07
-4.52947e-08
-4.60735e-07
-4.96033e-08
-4.47553e-07
-5.37284e-08
-4.33459e-07
-5.76428e-08
-4.18508e-07
-6.13205e-08
-4.0276e-07
-6.47364e-08
-3.8628e-07
-6.78668e-08
-3.69139e-07
-7.06895e-08
-3.5141e-07
-7.31844e-08
-3.33172e-07
-7.53332e-08
-3.14505e-07
-7.71203e-08
-2.95494e-07
-7.85322e-08
-2.76225e-07
-7.95583e-08
-2.56787e-07
-8.01908e-08
-2.3727e-07
-8.0425e-08
-2.17763e-07
-8.02591e-08
-1.98357e-07
-7.96944e-08
-1.79141e-07
-7.87357e-08
-1.60203e-07
-7.73907e-08
-1.41629e-07
-7.56704e-08
-1.23502e-07
-7.35885e-08
-1.05903e-07
-7.11621e-08
-8.89082e-08
-6.84108e-08
-7.25885e-08
-6.53566e-08
-5.70109e-08
-6.20243e-08
-4.22368e-08
-5.84403e-08
-2.83215e-08
-5.46331e-08
-1.53138e-08
-5.06324e-08
-3.25609e-09
-4.64694e-08
7.81646e-09
-4.21759e-08
1.78757e-08
-3.77842e-08
2.69009e-08
-3.33271e-08
3.48787e-08
-2.88368e-08
4.18031e-08
-2.43457e-08
4.76759e-08
-1.98854e-08
5.25058e-08
-1.54867e-08
5.63092e-08
-1.11795e-08
5.91094e-08
-6.99312e-09
6.0937e-08
-2.95565e-09
6.18293e-08
9.05469e-10
6.18307e-08
4.56335e-09
6.09921e-08
7.99174e-09
5.93707e-08
1.11643e-08
5.70308e-08
1.40541e-08
5.40429e-08
1.66336e-08
5.04844e-08
1.88741e-08
4.64392e-08
2.07449e-08
4.19982e-08
2.22132e-08
3.72591e-08
2.32441e-08
3.23264e-08
2.38003e-08
2.73114e-08
2.38428e-08
2.23321e-08
2.33322e-08
1.7513e-08
2.22303e-08
1.29852e-08
2.05042e-08
8.88674e-09
1.81308e-08
5.36485e-09
1.5104e-08
2.58014e-09
1.14437e-08
7.16415e-10
7.20771e-09
2.50788e-09
1.19633e-10
-1.35679e-09
2.87593e-10
-2.8475e-09
3.50265e-10
-3.32649e-09
1.88203e-10
-2.9929e-09
-2.91491e-10
-2.01257e-09
-1.16047e-09
-5.27141e-10
-2.47312e-09
1.34258e-09
-4.26966e-09
3.49508e-09
-6.57872e-09
5.84652e-09
-9.41945e-09
8.32897e-09
-1.28034e-08
1.08886e-08
-1.67362e-08
1.34839e-08
-2.12188e-08
1.60837e-08
-2.62489e-08
1.86657e-08
-3.18217e-08
2.1215e-08
-3.79308e-08
2.37222e-08
-4.45689e-08
2.61824e-08
-5.17283e-08
2.85942e-08
-5.94011e-08
3.09584e-08
-6.75794e-08
3.32773e-08
-7.62555e-08
3.55541e-08
-8.54218e-08
3.77919e-08
-9.50707e-08
3.99939e-08
-1.05195e-07
4.21621e-08
-1.15785e-07
4.42981e-08
-1.26834e-07
4.64019e-08
-1.38333e-07
4.84724e-08
-1.5027e-07
5.05071e-08
-1.62634e-07
5.25021e-08
-1.75411e-07
5.4452e-08
-1.88588e-07
5.63502e-08
-2.02147e-07
5.81888e-08
-2.16068e-07
5.99586e-08
-2.3033e-07
6.16492e-08
-2.44908e-07
6.32496e-08
-2.59777e-07
6.47477e-08
-2.74905e-07
6.61306e-08
-2.90261e-07
6.73851e-08
-3.05809e-07
6.84973e-08
-3.2151e-07
6.94532e-08
-3.37324e-07
7.02386e-08
-3.53206e-07
7.08392e-08
-3.6911e-07
7.12412e-08
-3.84986e-07
7.14307e-08
-4.00784e-07
7.13944e-08
-4.16448e-07
7.11198e-08
-4.31923e-07
7.0595e-08
-4.47152e-07
6.98089e-08
-4.62076e-07
6.87517e-08
-4.76634e-07
6.74147e-08
-4.90766e-07
6.57906e-08
-5.04409e-07
6.38733e-08
-5.17503e-07
6.16586e-08
-5.29985e-07
5.91439e-08
-5.41796e-07
5.63284e-08
-5.52874e-07
5.32131e-08
-5.63163e-07
4.98013e-08
-5.72604e-07
4.6098e-08
-5.81145e-07
4.21104e-08
-5.88732e-07
3.7848e-08
-5.95317e-07
3.33223e-08
-6.00854e-07
2.85469e-08
-6.05302e-07
2.35378e-08
-6.08622e-07
1.83129e-08
-6.10781e-07
1.28922e-08
-6.11751e-07
7.29787e-09
-6.11507e-07
1.55378e-09
-6.10031e-07
-4.31427e-09
-6.07309e-07
-1.02788e-08
-6.03334e-07
-1.63109e-08
-5.98104e-07
-2.23801e-08
-5.91624e-07
-2.84548e-08
-5.83904e-07
-3.45024e-08
-5.7496e-07
-4.04896e-08
-5.64816e-07
-4.63824e-08
-5.535e-07
-5.21464e-08
-5.41047e-07
-5.77473e-08
-5.275e-07
-6.3151e-08
-5.12904e-07
-6.83238e-08
-4.97314e-07
-7.32326e-08
-4.80789e-07
-7.78458e-08
-4.63393e-07
-8.21327e-08
-4.45195e-07
-8.60646e-08
-4.2627e-07
-8.96143e-08
-4.06697e-07
-9.27574e-08
-3.86559e-07
-9.54715e-08
-3.65942e-07
-9.77372e-08
-3.44936e-07
-9.95381e-08
-3.23633e-07
-1.00861e-07
-3.02128e-07
-1.01696e-07
-2.80516e-07
-1.02037e-07
-2.58894e-07
-1.01881e-07
-2.37358e-07
-1.01231e-07
-2.16004e-07
-1.0009e-07
-1.94928e-07
-9.84673e-08
-1.74221e-07
-9.63767e-08
-1.53976e-07
-9.38341e-08
-1.34278e-07
-9.08597e-08
-1.15212e-07
-8.7477e-08
-9.68557e-08
-8.37127e-08
-7.92837e-08
-7.95963e-08
-6.2564e-08
-7.51601e-08
-4.67584e-08
-7.04386e-08
-3.19226e-08
-6.54683e-08
-1.81049e-08
-6.02872e-08
-5.34635e-09
-5.49344e-08
6.31948e-09
-4.94501e-08
1.6867e-08
-4.38745e-08
2.62784e-08
-3.82483e-08
3.45443e-08
-3.26116e-08
4.1663e-08
-2.70041e-08
4.76413e-08
-2.14649e-08
5.24937e-08
-1.60319e-08
5.62428e-08
-1.07423e-08
5.89191e-08
-5.63191e-09
6.05605e-08
-7.35974e-10
6.12128e-08
3.91107e-09
6.09295e-08
8.27508e-09
5.97711e-08
1.23227e-08
5.78053e-08
1.602e-08
5.51067e-08
1.93322e-08
5.17578e-08
2.22231e-08
4.78478e-08
2.46548e-08
4.34734e-08
2.65876e-08
3.87382e-08
2.79793e-08
3.3753e-08
2.87854e-08
2.8636e-08
2.89599e-08
2.35123e-08
2.84559e-08
1.85146e-08
2.72279e-08
1.37839e-08
2.52349e-08
9.47068e-09
2.2444e-08
5.73822e-09
1.88365e-08
2.76815e-09
1.44138e-08
7.70328e-10
9.20553e-09
3.27821e-09
5.27687e-11
-1.40959e-09
3.97053e-11
-2.83446e-09
-1.78602e-10
-3.1082e-09
-7.11327e-10
-2.46018e-09
-1.64327e-09
-1.08062e-09
-3.03934e-09
8.6894e-10
-4.94819e-09
3.25144e-09
-7.4052e-09
5.9521e-09
-1.0435e-08
8.8763e-09
-1.40534e-08
1.19474e-08
-1.82696e-08
1.51048e-08
-2.30872e-08
1.83014e-08
-2.85057e-08
2.15022e-08
-3.45219e-08
2.4682e-08
-4.11304e-08
2.78235e-08
-4.83243e-08
3.09161e-08
-5.60962e-08
3.39543e-08
-6.44381e-08
3.6936e-08
-7.33418e-08
3.98621e-08
-8.27993e-08
4.27348e-08
-9.28024e-08
4.55572e-08
-1.03343e-07
4.83325e-08
-1.14413e-07
5.10636e-08
-1.26003e-07
5.37524e-08
-1.38105e-07
5.63996e-08
-1.50707e-07
5.90047e-08
-1.638e-07
6.15653e-08
-1.77371e-07
6.40776e-08
-1.91405e-07
6.65361e-08
-2.05886e-07
6.89335e-08
-2.20797e-07
7.12611e-08
-2.36117e-07
7.35086e-08
-2.51823e-07
7.56642e-08
-2.67888e-07
7.7715e-08
-2.84286e-07
7.96469e-08
-3.00983e-07
8.14449e-08
-3.17945e-07
8.30931e-08
-3.35136e-07
8.45752e-08
-3.52512e-07
8.58742e-08
-3.70032e-07
8.6973e-08
-3.87648e-07
8.78545e-08
-4.05311e-07
8.85016e-08
-4.22967e-07
8.88975e-08
-4.40562e-07
8.90258e-08
-4.58039e-07
8.8871e-08
-4.75337e-07
8.84183e-08
-4.92396e-07
8.76538e-08
-5.09152e-07
8.65652e-08
-5.25542e-07
8.51411e-08
-5.41499e-07
8.3372e-08
-5.56958e-07
8.12499e-08
-5.71854e-07
7.87687e-08
-5.86119e-07
7.59242e-08
-5.9969e-07
7.27144e-08
-6.12501e-07
6.91395e-08
-6.2449e-07
6.5202e-08
-6.35595e-07
6.09068e-08
-6.45758e-07
5.6261e-08
-6.54923e-07
5.12747e-08
-6.63035e-07
4.596e-08
-6.70044e-07
4.03319e-08
-6.75905e-07
3.44078e-08
-6.80575e-07
2.82075e-08
-6.84015e-07
2.17534e-08
-6.86193e-07
1.50702e-08
-6.8708e-07
8.18486e-09
-6.86653e-07
1.12661e-09
-6.84894e-07
-6.07333e-09
-6.81791e-07
-1.33819e-08
-6.77338e-07
-2.07641e-08
-6.71534e-07
-2.81837e-08
-6.64386e-07
-3.56028e-08
-6.55906e-07
-4.29827e-08
-6.46112e-07
-5.02837e-08
-6.35029e-07
-5.74653e-08
-6.22688e-07
-6.4487e-08
-6.09128e-07
-7.1308e-08
-5.94391e-07
-7.7888e-08
-5.78527e-07
-8.41871e-08
-5.61594e-07
-9.01663e-08
-5.43652e-07
-9.57881e-08
-5.24768e-07
-1.01016e-07
-5.05016e-07
-1.05816e-07
-4.84474e-07
-1.10157e-07
-4.63224e-07
-1.14008e-07
-4.41352e-07
-1.17343e-07
-4.18949e-07
-1.2014e-07
-3.9611e-07
-1.22378e-07
-3.7293e-07
-1.24041e-07
-3.4951e-07
-1.25117e-07
-3.25949e-07
-1.25598e-07
-3.0235e-07
-1.25481e-07
-2.78814e-07
-1.24766e-07
-2.55444e-07
-1.23459e-07
-2.32341e-07
-1.21571e-07
-2.09603e-07
-1.19114e-07
-1.87329e-07
-1.16109e-07
-1.65611e-07
-1.12578e-07
-1.44539e-07
-1.08548e-07
-1.242e-07
-1.04052e-07
-1.04674e-07
-9.91223e-08