/*--------------------------------*- C++ -*----------------------------------*\
  =========                 |
  \\      /  F ield         | OpenFOAM: The Open Source CFD Toolbox
   \\    /   O peration     | Website:  https://openfoam.org
    \\  /    A nd           | Version:  12
     \\/     M anipulation  |
\*---------------------------------------------------------------------------*/
FoamFile
{
    format      ascii;
    class       volScalarField;
    location    "8";
    object      p;
}
// * * * * * * * * * * * * * * * * * * * * * * * * * * * * * * * * * * * * * //

dimensions      [0 2 -2 0 0 0 0];

internalField   nonuniform List<scalar> 
18225
(
6.60907e-09
7.39388e-06
1.07982e-05
4.75341e-06
-1.20309e-05
-3.94851e-05
-7.69901e-05
-0.000123642
-0.00017843
-0.000240355
-0.000308485
-0.000381986
-0.000460129
-0.000542293
-0.000627955
-0.000716684
-0.000808125
-0.000901994
-0.000998055
-0.00109612
-0.00119602
-0.00129762
-0.00140078
-0.00150539
-0.0016113
-0.00171837
-0.00182644
-0.00193533
-0.00204484
-0.00215474
-0.00226477
-0.00237464
-0.00248404
-0.00259262
-0.00270001
-0.0028058
-0.00290955
-0.00301082
-0.00310911
-0.00320392
-0.00329473
-0.003381
-0.00346217
-0.00353769
-0.00360699
-0.00366951
-0.00372468
-0.00377196
-0.00381081
-0.00384073
-0.00386124
-0.0038719
-0.0038723
-0.0038621
-0.00384101
-0.00380879
-0.0037653
-0.00371044
-0.00364424
-0.00356678
-0.00347826
-0.00337896
-0.00326929
-0.00314973
-0.0030209
-0.00288353
-0.00273846
-0.0025866
-0.0024289
-0.0022666
-0.00210088
-0.00193304
-0.00176446
-0.00159655
-0.0014308
-0.00126873
-0.00111186
-0.000961728
-0.000819859
-0.000687742
-0.000566816
-0.000458459
-0.00036396
-0.000284511
-0.000221186
-0.000174928
-0.000146535
-0.00013665
-0.000145747
-0.000174129
-0.000221918
-0.000289056
-0.000375302
-0.000480234
-0.000603258
-0.000743611
-0.000900372
-0.00107248
-0.00125872
-0.0014578
-0.0016683
-0.00188872
-0.00211751
-0.00235307
-0.00259376
-0.00283796
-0.00308404
-0.00333041
-0.00357551
-0.00381783
-0.00405595
-0.00428849
-0.00451418
-0.00473183
-0.0049403
-0.0051386
-0.00532578
-0.00550099
-0.00566347
-0.0058125
-0.00594747
-0.00606783
-0.00617308
-0.00626282
-0.00633675
-0.00639465
-0.00643649
-0.00646248
-0.00647315
-0.00646955
-0.00645345
-0.00642774
-0.00639692
-0.00636788
-0.00634952
-7.40546e-06
-2.05555e-08
2.47042e-06
-4.37188e-06
-2.10101e-05
-4.72641e-05
-8.2672e-05
-0.000126533
-0.000178031
-0.000236328
-0.000300625
-0.000370186
-0.00044436
-0.000522577
-0.000604351
-0.000689271
-0.000776995
-0.000867236
-0.000959759
-0.00105437
-0.00115089
-0.00124918
-0.00134909
-0.00145049
-0.00155323
-0.00165718
-0.00176216
-0.00186799
-0.00197448
-0.00208141
-0.0021885
-0.00229551
-0.0024021
-0.00250797
-0.00261273
-0.00271601
-0.00281739
-0.00291644
-0.00301268
-0.00310565
-0.00319483
-0.00327971
-0.00335977
-0.00343446
-0.00350324
-0.00356557
-0.00362092
-0.00366875
-0.00370856
-0.00373986
-0.00376218
-0.0037751
-0.00377823
-0.00377123
-0.00375382
-0.00372577
-0.00368693
-0.00363722
-0.00357663
-0.00350527
-0.0034233
-0.00333099
-0.00322873
-0.00311698
-0.00299633
-0.00286747
-0.00273121
-0.00258837
-0.00243995
-0.00228708
-0.0021309
-0.00197266
-0.00181367
-0.0016553
-0.00149897
-0.00134613
-0.00119826
-0.00105683
-0.00092329
-0.000799081
-0.000685584
-0.000584119
-0.000495923
-0.00042214
-0.000363799
-0.000321804
-0.000296919
-0.000289756
-0.00030077
-0.000330246
-0.0003783
-0.000444868
-0.000529717
-0.000632438
-0.000752455
-0.000889031
-0.00104128
-0.00120817
-0.00138856
-0.00158118
-0.00178467
-0.0019976
-0.00221847
-0.00244575
-0.00267787
-0.00291327
-0.0031504
-0.00338773
-0.00362377
-0.00385707
-0.00408628
-0.00431007
-0.00452725
-0.00473665
-0.00493723
-0.00512802
-0.00530812
-0.00547676
-0.00563319
-0.00577678
-0.00590697
-0.00602326
-0.00612523
-0.00621256
-0.00628503
-0.00634253
-0.00638512
-0.00641311
-0.00642709
-0.00642812
-0.00641784
-0.00639875
-0.00637437
-0.00634953
-0.00633117
-1.08079e-05
-2.5455e-06
-1.18069e-07
-7.3727e-06
-2.38206e-05
-4.90236e-05
-8.2572e-05
-0.000123897
-0.000172328
-0.000227169
-0.00028774
-0.000353409
-0.000423599
-0.000497799
-0.000575563
-0.000656511
-0.00074032
-0.000826717
-0.000915467
-0.00100637
-0.00109927
-0.00119399
-0.00129039
-0.00138834
-0.00148769
-0.0015883
-0.00168999
-0.00179259
-0.00189591
-0.00199972
-0.00210378
-0.00220784
-0.00231158
-0.00241471
-0.00251687
-0.00261769
-0.00271679
-0.00281374
-0.00290809
-0.00299941
-0.00308719
-0.00317096
-0.0032502
-0.0033244
-0.00339304
-0.00345561
-0.00351158
-0.00356045
-0.00360172
-0.00363493
-0.00365961
-0.00367536
-0.00368181
-0.0036786
-0.00366548
-0.0036422
-0.00360863
-0.00356465
-0.00351028
-0.00344558
-0.00337071
-0.00328592
-0.00319156
-0.00308809
-0.00297604
-0.00285606
-0.00272893
-0.00259542
-0.00245653
-0.00231329
-0.00216681
-0.00201827
-0.00186893
-0.00172012
-0.0015732
-0.00142955
-0.0012906
-0.00115776
-0.00103244
-0.000916001
-0.000809789
-0.00071507
-0.000633036
-0.000564786
-0.000511311
-0.00047348
-0.000452026
-0.000447539
-0.000460452
-0.000491037
-0.000539402
-0.000605482
-0.000689048
-0.000789702
-0.000906883
-0.00103988
-0.00118783
-0.00134975
-0.00152452
-0.00171092
-0.00190765
-0.00211332
-0.00232649
-0.00254569
-0.00276942
-0.00299618
-0.00322447
-0.00345284
-0.00367986
-0.00390415
-0.00412441
-0.00433939
-0.00454794
-0.00474897
-0.0049415
-0.0051246
-0.00529745
-0.0054593
-0.00560951
-0.00574747
-0.0058727
-0.00598476
-0.00608332
-0.00616812
-0.006239
-0.00629595
-0.0063391
-0.00636877
-0.00638555
-0.00639039
-0.00638468
-0.00637033
-0.00634956
-0.00632471
-0.00630211
-4.57891e-06
4.36413e-06
6.94795e-06
-5.1005e-07
-1.68996e-05
-4.15177e-05
-7.39051e-05
-0.000113529
-0.000159792
-0.000212081
-0.000269803
-0.0003324
-0.000399362
-0.000470235
-0.000544615
-0.000622155
-0.000702555
-0.000785563
-0.000870958
-0.000958552
-0.00104818
-0.00113969
-0.00123293
-0.00132778
-0.0014241
-0.00152173
-0.00162051
-0.00172028
-0.00182085
-0.001922
-0.00202351
-0.00212511
-0.00222654
-0.00232748
-0.00242761
-0.00252657
-0.00262399
-0.00271948
-0.00281259
-0.00290291
-0.00298996
-0.00307327
-0.00315235
-0.00322671
-0.00329585
-0.00335926
-0.00341643
-0.00346688
-0.00351011
-0.00354567
-0.00357311
-0.00359202
-0.00360202
-0.00360279
-0.00359403
-0.00357552
-0.00354708
-0.00350863
-0.00346012
-0.00340163
-0.00333328
-0.00325531
-0.00316804
-0.00307189
-0.00296736
-0.00285509
-0.00273578
-0.00261021
-0.00247933
-0.00234412
-0.00220563
-0.00206504
-0.00192355
-0.00178245
-0.00164305
-0.0015067
-0.00137479
-0.00124869
-0.00112977
-0.00101936
-0.00091877
-0.000829235
-0.000751919
-0.000687894
-0.000638127
-0.000603466
-0.000584628
-0.000582186
-0.000596563
-0.000628023
-0.000676668
-0.000742435
-0.000825095
-0.000924257
-0.00103937
-0.00116974
-0.00131452
-0.00147274
-0.00164331
-0.00182505
-0.00201667
-0.00221682
-0.00242411
-0.0026371
-0.00285434
-0.00307435
-0.00329571
-0.00351699
-0.00373683
-0.00395389
-0.00416692
-0.00437473
-0.00457622
-0.00477035
-0.00495618
-0.00513286
-0.00529961
-0.00545576
-0.00560068
-0.00573385
-0.00585484
-0.00596327
-0.00605886
-0.0061414
-0.0062108
-0.00626705
-0.0063103
-0.00634084
-0.00635916
-0.006366
-0.00636239
-0.00634967
-0.00632888
-0.00630037
-0.00627128
1.28099e-05
2.1357e-05
2.33385e-05
1.52677e-05
-1.46146e-06
-2.59853e-05
-5.77869e-05
-9.63383e-05
-0.000141081
-0.000191462
-0.000246953
-0.000307057
-0.000371325
-0.00043935
-0.000510777
-0.000585295
-0.000662634
-0.000742565
-0.000824889
-0.000909432
-0.000996042
-0.00108458
-0.00117491
-0.0012669
-0.00136043
-0.00145535
-0.00155151
-0.00164875
-0.00174689
-0.00184573
-0.00194505
-0.00204461
-0.00214414
-0.00224335
-0.00234193
-0.00243953
-0.00253581
-0.00263038
-0.00272283
-0.00281273
-0.00289964
-0.00298311
-0.00306265
-0.00313779
-0.00320803
-0.00327288
-0.00333185
-0.00338444
-0.00343018
-0.0034686
-0.00349927
-0.00352176
-0.0035357
-0.00354075
-0.0035366
-0.00352303
-0.00349983
-0.00346691
-0.00342421
-0.00337176
-0.00330968
-0.00323817
-0.00315753
-0.00306815
-0.0029705
-0.00286518
-0.00275285
-0.00263431
-0.00251041
-0.00238212
-0.00225047
-0.0021166
-0.00198168
-0.00184697
-0.00171374
-0.00158334
-0.0014571
-0.00133638
-0.00122252
-0.00111685
-0.00102064
-0.000935118
-0.000861426
-0.000800624
-0.000753668
-0.000721396
-0.000704515
-0.000703592
-0.000719047
-0.000751139
-0.00079997
-0.000865477
-0.000947432
-0.00104545
-0.00115898
-0.00128735
-0.0014297
-0.00158509
-0.00175244
-0.00193058
-0.00211824
-0.0023141
-0.00251677
-0.00272486
-0.00293693
-0.00315154
-0.00336731
-0.00358283
-0.00379677
-0.00400786
-0.00421487
-0.00441667
-0.00461219
-0.00480044
-0.00498053
-0.00515167
-0.00531313
-0.00546428
-0.00560456
-0.0057335
-0.00585072
-0.00595588
-0.00604877
-0.0061292
-0.00619711
-0.0062525
-0.00629549
-0.0063263
-0.00634529
-0.00635296
-0.00635
-0.00633721
-0.00631472
-0.0062814
-0.00624561
4.15509e-05
4.8454e-05
4.87739e-05
3.94035e-05
2.17798e-05
-3.1825e-06
-3.49332e-05
-7.29494e-05
-0.000116706
-0.000165696
-0.000219447
-0.00027752
-0.000339517
-0.000405085
-0.000473911
-0.000545724
-0.000620291
-0.000697409
-0.000776906
-0.000858629
-0.000942444
-0.00102823
-0.00111586
-0.00120522
-0.0012962
-0.00138866
-0.00148246
-0.00157747
-0.00167349
-0.00177036
-0.00186785
-0.00196575
-0.0020638
-0.00216172
-0.00225922
-0.00235598
-0.00245164
-0.00254584
-0.00263818
-0.00272826
-0.00281564
-0.00289988
-0.00298052
-0.00305707
-0.00312905
-0.00319597
-0.00325735
-0.0033127
-0.00336153
-0.00340337
-0.00343779
-0.00346436
-0.00348268
-0.00349239
-0.0034932
-0.00348483
-0.00346709
-0.00343983
-0.00340299
-0.00335656
-0.00330065
-0.00323541
-0.00316112
-0.00307814
-0.00298691
-0.002888
-0.00278205
-0.0026698
-0.00255211
-0.0024299
-0.00230418
-0.00217606
-0.00204669
-0.00191729
-0.00178915
-0.00166357
-0.00154188
-0.00142542
-0.00131552
-0.0012135
-0.00112062
-0.0010381
-0.000967086
-0.000908626
-0.000863677
-0.000833076
-0.00081753
-0.000817608
-0.000833727
-0.000866152
-0.000914985
-0.000980164
-0.00106147
-0.00115851
-0.00127075
-0.00139749
-0.00153792
-0.00169108
-0.00185589
-0.0020312
-0.00221574
-0.0024082
-0.00260722
-0.00281139
-0.0030193
-0.00322956
-0.00344076
-0.00365155
-0.00386062
-0.00406672
-0.00426868
-0.00446537
-0.00465578
-0.00483898
-0.0050141
-0.0051804
-0.00533721
-0.00548394
-0.00562009
-0.00574524
-0.00585904
-0.00596123
-0.00605161
-0.00613004
-0.00619645
-0.00625085
-0.00629331
-0.00632398
-0.00634307
-0.00635087
-0.00634776
-0.00633413
-0.0063094
-0.00627141
-0.0062297
8.12682e-05
8.53728e-05
8.29748e-05
7.15478e-05
5.24111e-05
2.64502e-05
-5.78109e-06
-4.37748e-05
-8.70397e-05
-0.000135116
-0.00018758
-0.000244047
-0.000304172
-0.000367651
-0.000434219
-0.000503645
-0.000575733
-0.000650317
-0.00072725
-0.000806408
-0.000887679
-0.000970959
-0.00105615
-0.00114315
-0.00123185
-0.00132215
-0.00141391
-0.001507
-0.00160127
-0.00169655
-0.00179263
-0.00188931
-0.00198634
-0.00208348
-0.00218042
-0.00227687
-0.00237248
-0.00246692
-0.00255978
-0.00265068
-0.0027392
-0.00282488
-0.00290728
-0.00298593
-0.00306034
-0.00313002
-0.00319449
-0.00325324
-0.00330579
-0.00335167
-0.00339042
-0.00342159
-0.00344478
-0.00345961
-0.00346575
-0.00346291
-0.00345087
-0.00342946
-0.00339858
-0.0033582
-0.00330839
-0.00324929
-0.00318113
-0.00310424
-0.00301905
-0.00292607
-0.00282594
-0.00271936
-0.00260716
-0.00249025
-0.00236962
-0.00224635
-0.00212158
-0.00199652
-0.00187244
-0.00175064
-0.00163244
-0.00151917
-0.00141217
-0.00131275
-0.00122218
-0.00114168
-0.00107239
-0.00101539
-0.000971624
-0.000941942
-0.000927059
-0.00092755
-0.000943842
-0.000976204
-0.00102474
-0.00108941
-0.00116997
-0.00126606
-0.00137712
-0.00150249
-0.00164132
-0.00179266
-0.00195544
-0.0021285
-0.00231059
-0.00250037
-0.00269651
-0.00289759
-0.00310221
-0.00330899
-0.00351652
-0.00372349
-0.00392859
-0.00413059
-0.00432835
-0.00452078
-0.00470689
-0.00488578
-0.00505665
-0.00521877
-0.00537153
-0.0055144
-0.00564692
-0.0057687
-0.00587945
-0.00597894
-0.00606702
-0.00614356
-0.00620851
-0.00626185
-0.00630362
-0.00633389
-0.00635274
-0.00636026
-0.00635662
-0.00634187
-0.00631494
-0.00627297
-0.00622651
0.000131242
0.000131541
0.000125455
0.000111226
8.99542e-05
6.24379e-05
2.92109e-05
-9.24597e-06
-5.24813e-05
-0.000100083
-0.000151678
-0.000206936
-0.000265564
-0.000327309
-0.000391951
-0.000459307
-0.000529221
-0.00060156
-0.000676215
-0.00075309
-0.000832098
-0.000913162
-0.000996204
-0.00108114
-0.0011679
-0.00125637
-0.00134645
-0.00143802
-0.00153095
-0.00162507
-0.0017202
-0.00181616
-0.0019127
-0.0020096
-0.00210657
-0.00220332
-0.00229953
-0.00239486
-0.00248893
-0.00258136
-0.00267172
-0.00275959
-0.0028445
-0.00292599
-0.00300358
-0.00307676
-0.00314504
-0.00320792
-0.00326489
-0.00331547
-0.00335917
-0.00339554
-0.00342414
-0.00344458
-0.00345649
-0.00345956
-0.00345353
-0.0034382
-0.00341345
-0.00337921
-0.00333551
-0.00328246
-0.00322027
-0.00314924
-0.00306975
-0.0029823
-0.0028875
-0.00278603
-0.00267869
-0.00256637
-0.00245006
-0.00233081
-0.00220977
-0.00208813
-0.00196715
-0.00184813
-0.0017324
-0.0016213
-0.00151617
-0.00141833
-0.00132906
-0.00124959
-0.00118109
-0.00112462
-0.00108118
-0.00105161
-0.00103665
-0.00103688
-0.00105275
-0.00108454
-0.00113237
-0.00119619
-0.00127578
-0.00137077
-0.00148062
-0.00160465
-0.00174202
-0.00189179
-0.00205286
-0.00222408
-0.00240417
-0.00259183
-0.00278569
-0.00298433
-0.00318637
-0.00339039
-0.00359502
-0.00379893
-0.00400084
-0.00419953
-0.00439386
-0.00458278
-0.00476532
-0.00494062
-0.0051079
-0.00526648
-0.00541577
-0.0055553
-0.00568466
-0.0058035
-0.00591155
-0.00600865
-0.00609465
-0.00616945
-0.00623302
-0.00628531
-0.00632633
-0.00635607
-0.00637451
-0.00638161
-0.00637733
-0.00636152
-0.00633277
-0.00628778
-0.00623785
0.000190562
0.000186192
0.000175554
0.000157828
0.000133831
0.00010423
6.95227e-05
3.01527e-05
-1.34771e-05
-6.10062e-05
-0.000112117
-0.000166532
-0.000224013
-0.000284358
-0.0003474
-0.000413001
-0.000481046
-0.000551446
-0.000624126
-0.000699022
-0.00077608
-0.000855249
-0.000936477
-0.00101971
-0.00110488
-0.00119191
-0.00128073
-0.00137122
-0.00146326
-0.00155672
-0.00165143
-0.00174721
-0.00184386
-0.00194113
-0.00203877
-0.00213651
-0.00223402
-0.00233097
-0.002427
-0.00252173
-0.00261473
-0.00270558
-0.00279382
-0.00287897
-0.00296055
-0.00303804
-0.00311094
-0.00317872
-0.00324088
-0.00329688
-0.00334624
-0.00338846
-0.00342309
-0.00344969
-0.00346787
-0.00347729
-0.00347764
-0.0034687
-0.00345031
-0.00342236
-0.00338485
-0.00333786
-0.00328156
-0.00321621
-0.00314218
-0.00305993
-0.00297005
-0.00287321
-0.00277018
-0.00266184
-0.00254915
-0.00243318
-0.00231505
-0.00219597
-0.0020772
-0.00196003
-0.00184582
-0.0017359
-0.00163164
-0.00153437
-0.00144539
-0.00136596
-0.00129726
-0.00124038
-0.00119634
-0.00116601
-0.00115014
-0.00114935
-0.00116409
-0.00119467
-0.00124122
-0.00130371
-0.00138192
-0.0014755
-0.00158391
-0.00170646
-0.00184233
-0.00199054
-0.00215003
-0.0023196
-0.00249799
-0.00268386
-0.00287585
-0.00307253
-0.0032725
-0.00347434
-0.00367667
-0.00387816
-0.00407753
-0.00427357
-0.00446515
-0.00465122
-0.00483085
-0.00500319
-0.0051675
-0.00532312
-0.00546951
-0.0056062
-0.00573282
-0.00584912
-0.00595487
-0.00604989
-0.00613406
-0.00620733
-0.00626964
-0.00632096
-0.00636126
-0.00639048
-0.00640852
-0.00641523
-0.00641044
-0.00639384
-0.00636384
-0.00631689
-0.00626476
0.000258219
0.000248442
0.000232498
0.00021065
0.000183384
0.00015121
0.000114579
7.38854e-05
2.94759e-05
-1.83466e-05
-6.93224e-05
-0.000123232
-0.000179895
-0.000239163
-0.000300921
-0.00036508
-0.000431572
-0.000500349
-0.000571376
-0.000644626
-0.000720076
-0.000797707
-0.000877495
-0.00095941
-0.00104341
-0.00112945
-0.00121746
-0.00130736
-0.00139905
-0.00149241
-0.00158728
-0.00168352
-0.00178091
-0.00187925
-0.00197828
-0.00207774
-0.00217733
-0.00227671
-0.00237553
-0.0024734
-0.00256991
-0.00266462
-0.00275707
-0.00284678
-0.00293324
-0.00301593
-0.00309432
-0.00316786
-0.00323603
-0.00329827
-0.00335405
-0.00340285
-0.00344419
-0.00347758
-0.00350261
-0.00351889
-0.00352608
-0.00352391
-0.00351218
-0.00349076
-0.0034596
-0.00341874
-0.00336832
-0.00330858
-0.00323984
-0.00316256
-0.00307729
-0.00298467
-0.00288548
-0.00278056
-0.0026709
-0.00255752
-0.00244157
-0.00232426
-0.00220684
-0.00209064
-0.00197701
-0.00186732
-0.00176294
-0.00166523
-0.00157553
-0.00149511
-0.00142519
-0.00136689
-0.00132126
-0.0012892
-0.0012715
-0.00126879
-0.00128157
-0.00131016
-0.00135471
-0.00141521
-0.00149147
-0.00158313
-0.00168967
-0.00181041
-0.0019445
-0.002091
-0.0022488
-0.00241671
-0.00259347
-0.00277771
-0.00296805
-0.00316305
-0.0033613
-0.00356136
-0.00376184
-0.0039614
-0.00415875
-0.00435269
-0.00454207
-0.00472588
-0.00490317
-0.00507312
-0.00523501
-0.00538821
-0.0055322
-0.00566656
-0.00579096
-0.00590514
-0.00600892
-0.00610217
-0.0061848
-0.00625676
-0.00631801
-0.00636852
-0.00640822
-0.00643703
-0.0064548
-0.00646129
-0.00645626
-0.00643931
-0.00640872
-0.00636085
-0.00630773
0.000333147
0.000317334
0.000295431
0.000268907
0.000237886
0.000202702
0.000163747
0.00012136
7.58241e-05
2.73773e-05
-2.37837e-05
-7.75016e-05
-0.000133655
-0.000192155
-0.00025294
-0.000315973
-0.000381235
-0.000448723
-0.000518441
-0.000590403
-0.000664623
-0.000741112
-0.000819877
-0.000900917
-0.00098422
-0.00106976
-0.00115749
-0.00124736
-0.00133928
-0.00143316
-0.00152886
-0.00162623
-0.0017251
-0.00182526
-0.00192648
-0.0020285
-0.00213102
-0.00223371
-0.00233622
-0.00243817
-0.00253913
-0.00263866
-0.0027363
-0.00283153
-0.00292384
-0.00301269
-0.00309753
-0.00317777
-0.00325286
-0.00332222
-0.00338527
-0.00344147
-0.00349027
-0.00353118
-0.00356371
-0.00358744
-0.003602
-0.00360707
-0.0036024
-0.00358782
-0.00356325
-0.00352869
-0.00348424
-0.00343011
-0.00336659
-0.00329412
-0.00321321
-0.00312451
-0.00302876
-0.00292681
-0.00281962
-0.00270823
-0.00259379
-0.0024775
-0.00236064
-0.00224455
-0.0021306
-0.00202017
-0.00191468
-0.00181552
-0.00172404
-0.00164157
-0.00156935
-0.00150856
-0.00146026
-0.0014254
-0.00140482
-0.00139918
-0.001409
-0.00143465
-0.00147631
-0.00153399
-0.00160752
-0.00169655
-0.00180059
-0.00191895
-0.00205081
-0.00219519
-0.00235101
-0.00251705
-0.00269203
-0.00287458
-0.00306329
-0.00325672
-0.00345341
-0.00365193
-0.00385085
-0.00404883
-0.00424456
-0.00443681
-0.00462447
-0.00480649
-0.00498194
-0.00515001
-0.00530998
-0.00546126
-0.00560334
-0.00573584
-0.00585844
-0.00597093
-0.00607314
-0.00616498
-0.00624638
-0.00631732
-0.00637776
-0.00642767
-0.00646698
-0.00649559
-0.00651331
-0.00651987
-0.00651496
-0.00649813
-0.00646765
-0.00641988
-0.00636685
0.000414246
0.000391855
0.000363427
0.000331744
0.000296541
0.00025796
0.00021633
0.000171923
0.000124951
7.55823e-05
2.39443e-05
-2.98722e-05
-8.58099e-05
-0.000143841
-0.000203961
-0.000266189
-0.000330554
-0.000397102
-0.000465882
-0.000536946
-0.000610346
-0.000686129
-0.000764335
-0.000844992
-0.000928117
-0.00101371
-0.00110175
-0.00119221
-0.00128502
-0.00138011
-0.00147736
-0.00157664
-0.0016778
-0.00178062
-0.00188491
-0.00199038
-0.00209677
-0.00220374
-0.00231094
-0.00241797
-0.00252442
-0.00262983
-0.0027337
-0.00283552
-0.00293475
-0.00303081
-0.00312313
-0.0032111
-0.00329411
-0.00337155
-0.00344281
-0.0035073
-0.00356442
-0.00361363
-0.00365441
-0.00368629
-0.00370883
-0.00372169
-0.00372456
-0.00371724
-0.0036996
-0.00367159
-0.00363329
-0.00358487
-0.0035266
-0.00345887
-0.00338218
-0.00329717
-0.00320455
-0.00310517
-0.00299999
-0.00289004
-0.00277648
-0.00266052
-0.00254346
-0.00242665
-0.00231148
-0.00219938
-0.00209178
-0.00199011
-0.00189576
-0.00181011
-0.00173444
-0.00166997
-0.00161782
-0.00157898
-0.00155433
-0.00154458
-0.0015503
-0.00157189
-0.00160958
-0.0016634
-0.00173322
-0.00181872
-0.0019194
-0.00203462
-0.00216353
-0.00230519
-0.00245849
-0.00262222
-0.00279507
-0.00297567
-0.00316258
-0.00335433
-0.00354946
-0.00374649
-0.003944
-0.00414059
-0.00433495
-0.00452584
-0.00471212
-0.00489274
-0.00506677
-0.0052334
-0.00539192
-0.00554174
-0.00568238
-0.00581346
-0.00593471
-0.00604592
-0.00614697
-0.00623777
-0.0063183
-0.00638853
-0.00644846
-0.00649805
-0.00653725
-0.00656594
-0.00658391
-0.00659088
-0.00658651
-0.00657035
-0.00654067
-0.00649391
-0.00644193
0.000500385
0.000470947
0.000435506
0.000398245
0.00035849
0.000316178
0.000271565
0.000224853
0.000176173
0.000125616
7.3235e-05
1.90492e-05
-3.69525e-05
-9.48067e-05
-0.000154571
-0.000216319
-0.000280135
-0.000346113
-0.000414348
-0.000484934
-0.000557964
-0.00063352
-0.000711677
-0.000792495
-0.000876019
-0.00096228
-0.00105128
-0.00114302
-0.00123745
-0.00133452
-0.00143413
-0.00153617
-0.00164049
-0.00174691
-0.00185521
-0.00196514
-0.00207642
-0.00218873
-0.0023017
-0.00241493
-0.00252799
-0.0026404
-0.00275166
-0.00286122
-0.00296851
-0.00307293
-0.00317387
-0.00327067
-0.0033627
-0.00344929
-0.00352979
-0.00360354
-0.00366993
-0.00372834
-0.00377821
-0.00381901
-0.00385027
-0.00387156
-0.00388257
-0.00388301
-0.00387273
-0.00385164
-0.00381978
-0.00377726
-0.00372434
-0.00366139
-0.00358888
-0.00350741
-0.0034177
-0.00332058
-0.00321701
-0.00310802
-0.00299477
-0.00287849
-0.00276049
-0.00264215
-0.00252488
-0.00241014
-0.0022994
-0.00219413
-0.00209578
-0.00200575
-0.00192539
-0.00185597
-0.00179866
-0.00175451
-0.00172446
-0.00170926
-0.00170956
-0.00172578
-0.00175821
-0.00180693
-0.00187184
-0.00195266
-0.00204892
-0.00215998
-0.00228503
-0.00242311
-0.00257313
-0.00273388
-0.00290403
-0.0030822
-0.00326692
-0.00345671
-0.00365007
-0.00384551
-0.00404157
-0.00423683
-0.00442994
-0.00461966
-0.00480481
-0.00498433
-0.00515728
-0.00532285
-0.00548031
-0.00562909
-0.00576872
-0.00589883
-0.00601916
-0.00612952
-0.00622982
-0.00631999
-0.00640001
-0.00646991
-0.00652967
-0.00657929
-0.0066187
-0.0066478
-0.00666639
-0.00667416
-0.0066708
-0.00665583
-0.00662759
-0.00658268
-0.00653259
0.000590402
0.000553508
0.00051063
0.000467434
0.000422812
0.000376484
0.000328627
0.000279362
0.000228736
0.000176753
0.000123386
6.85773e-05
1.22428e-05
-4.57225e-05
-0.00010544
-0.000167043
-0.000230672
-0.000296471
-0.000364582
-0.000435145
-0.000508292
-0.000584145
-0.000662812
-0.000744387
-0.000828949
-0.000916553
-0.00100724
-0.00110101
-0.00119786
-0.00129775
-0.00140061
-0.00150633
-0.00161479
-0.0017258
-0.00183917
-0.00195465
-0.00207195
-0.00219074
-0.00231065
-0.00243128
-0.00255217
-0.00267282
-0.00279271
-0.00291125
-0.00302786
-0.00314188
-0.00325266
-0.00335951
-0.00346174
-0.00355864
-0.0036495
-0.00373362
-0.00381032
-0.00387893
-0.00393883
-0.00398944
-0.00403023
-0.00406074
-0.00408056
-0.0040894
-0.00408703
-0.00407333
-0.00404828
-0.00401198
-0.00396464
-0.00390659
-0.0038383
-0.00376033
-0.00367339
-0.00357831
-0.00347601
-0.00336756
-0.00325411
-0.0031369
-0.00301726
-0.00289658
-0.00277633
-0.00265798
-0.00254305
-0.00243305
-0.00232948
-0.0022338
-0.00214742
-0.00207166
-0.00200775
-0.00195683
-0.00191987
-0.00189773
-0.00189107
-0.00190042
-0.0019261
-0.00196826
-0.00202683
-0.00210159
-0.00219209
-0.00229774
-0.00241775
-0.00255117
-0.00269691
-0.00285377
-0.00302042
-0.00319544
-0.00337738
-0.00356472
-0.00375592
-0.00394948
-0.00414388
-0.00433771
-0.00452956
-0.00471816
-0.00490232
-0.00508094
-0.00525308
-0.00541788
-0.00557464
-0.00572277
-0.00586179
-0.00599134
-0.00611118
-0.00622113
-0.0063211
-0.00641105
-0.00649099
-0.00656095
-0.00662093
-0.00667095
-0.00671096
-0.00674086
-0.00676045
-0.00676946
-0.00676756
-0.00675431
-0.00672813
-0.0066858
-0.00663833
0.0006831
0.000638394
0.000587715
0.000538278
0.000488523
0.00043794
0.000386618
0.000334592
0.000281812
0.000228192
0.000173616
0.000117945
6.10172e-05
2.65477e-06
-5.73306e-05
-0.000119134
-0.000182954
-0.000248988
-0.000317426
-0.000388454
-0.000462247
-0.000538963
-0.00061875
-0.000701736
-0.000788029
-0.000877717
-0.000970863
-0.00106751
-0.00116765
-0.00127129
-0.00137836
-0.00148878
-0.00160243
-0.00171914
-0.00183872
-0.00196091
-0.00208543
-0.00221195
-0.00234009
-0.0024694
-0.00259944
-0.00272966
-0.00285952
-0.0029884
-0.00311566
-0.00324062
-0.00336258
-0.0034808
-0.00359452
-0.003703
-0.00380546
-0.00390114
-0.0039893
-0.00406922
-0.00414021
-0.00420163
-0.0042529
-0.00429349
-0.00432295
-0.00434092
-0.00434712
-0.0043414
-0.00432368
-0.00429401
-0.00425259
-0.0041997
-0.00413576
-0.00406135
-0.00397714
-0.00388393
-0.00378267
-0.00367441
-0.00356029
-0.00344158
-0.00331962
-0.00319584
-0.00307171
-0.00294876
-0.00282855
-0.00271264
-0.00260258
-0.00249989
-0.00240604
-0.00232243
-0.00225036
-0.00219104
-0.00214552
-0.00211472
-0.0020994
-0.00210015
-0.00211736
-0.00215125
-0.00220182
-0.00226888
-0.00235207
-0.0024508
-0.00256432
-0.00269173
-0.00283194
-0.00298376
-0.00314585
-0.0033168
-0.00349513
-0.0036793
-0.00386775
-0.00405894
-0.00425133
-0.00444345
-0.00463388
-0.0048213
-0.00500448
-0.00518231
-0.00535379
-0.00551808
-0.00567442
-0.00582222
-0.00596101
-0.00609041
-0.00621017
-0.00632014
-0.00642022
-0.0065104
-0.0065907
-0.00666114
-0.00672177
-0.00677261
-0.00681363
-0.00684474
-0.00686576
-0.00687645
-0.00687649
-0.00686547
-0.00684191
-0.0068028
-0.00675855
0.000777243
0.000724415
0.000665622
0.000609688
0.000554581
0.000499546
0.000444577
0.000389612
0.0003345
0.000279054
0.000223064
0.000166302
0.000108525
4.94788e-05
-1.10957e-05
-7.34585e-05
-0.000137867
-0.000204574
-0.00027382
-0.000345837
-0.000420843
-0.000499039
-0.000580607
-0.000665711
-0.000754492
-0.000847068
-0.00094353
-0.00104394
-0.00114834
-0.00125672
-0.00136906
-0.00148527
-0.00160525
-0.00172885
-0.00185586
-0.00198604
-0.0021191
-0.00225468
-0.0023924
-0.00253181
-0.0026724
-0.00281363
-0.0029549
-0.00309557
-0.00323494
-0.00337229
-0.00350686
-0.00363786
-0.00376449
-0.00388591
-0.00400131
-0.00410987
-0.00421076
-0.00430321
-0.00438647
-0.00445984
-0.00452265
-0.00457433
-0.00461436
-0.00464233
-0.00465791
-0.00466087
-0.00465111
-0.00462863
-0.00459357
-0.00454619
-0.00448689
-0.00441619
-0.00433475
-0.00424337
-0.00414298
-0.00403461
-0.00391942
-0.00379869
-0.00367378
-0.00354612
-0.00341723
-0.00328869
-0.00316207
-0.00303902
-0.00292112
-0.00280997
-0.00270711
-0.00261402
-0.00253208
-0.00246257
-0.00240664
-0.0023653
-0.0023394
-0.00232961
-0.0023364
-0.00236007
-0.00240071
-0.0024582
-0.00253222
-0.00262225
-0.0027276
-0.00284737
-0.00298054
-0.00312589
-0.00328212
-0.00344782
-0.00362147
-0.00380153
-0.00398643
-0.00417456
-0.00436438
-0.00455436
-0.00474305
-0.00492908
-0.00511118
-0.00528821
-0.00545912
-0.00562304
-0.0057792
-0.00592696
-0.00606584
-0.00619547
-0.00631557
-0.00642598
-0.00652663
-0.00661749
-0.00669859
-0.00676998
-0.00683171
-0.00688382
-0.00692629
-0.00695905
-0.00698197
-0.00699479
-0.00699722
-0.00698891
-0.00696847
-0.00693315
-0.00689265
0.000871549
0.000810332
0.000743161
0.00068052
0.000619882
0.000560237
0.000501472
0.000443422
0.000385824
0.000328382
0.000270786
0.000212713
0.000153834
9.38131e-05
3.23188e-05
-3.09766e-05
-9.63923e-05
-0.000164236
-0.000234803
-0.000308371
-0.000385201
-0.000465537
-0.000549598
-0.000637584
-0.000729669
-0.000826003
-0.000926704
-0.00103186
-0.00114154
-0.00125575
-0.00137447
-0.00149766
-0.00162521
-0.00175697
-0.00189274
-0.00203227
-0.00217526
-0.00232135
-0.00247012
-0.00262111
-0.00277378
-0.00292755
-0.00308178
-0.00323578
-0.00338882
-0.00354011
-0.00368884
-0.00383416
-0.0039752
-0.00411108
-0.00424089
-0.00436374
-0.00447877
-0.00458511
-0.00468195
-0.0047685
-0.00484406
-0.00490796
-0.00495964
-0.00499862
-0.00502449
-0.005037
-0.00503596
-0.00502135
-0.00499324
-0.00495186
-0.00489756
-0.00483084
-0.00475234
-0.00466283
-0.00456321
-0.00445453
-0.00433794
-0.00421472
-0.00408624
-0.00395397
-0.00381945
-0.00368428
-0.00355012
-0.00341864
-0.0032915
-0.00317036
-0.00305685
-0.00295252
-0.00285885
-0.00277722
-0.00270886
-0.0026549
-0.00261628
-0.00259377
-0.00258795
-0.00259922
-0.00262774
-0.00267349
-0.00273622
-0.0028155
-0.00291068
-0.00302093
-0.00314524
-0.00328244
-0.00343124
-0.00359023
-0.00375789
-0.00393268
-0.00411298
-0.00429717
-0.00448366
-0.00467089
-0.00485735
-0.00504163
-0.00522242
-0.00539851
-0.00556884
-0.00573246
-0.00588859
-0.00603655
-0.00617582
-0.00630601
-0.00642683
-0.00653812
-0.00663977
-0.00673178
-0.00681416
-0.00688698
-0.00695029
-0.00700414
-0.00704854
-0.00708342
-0.00710867
-0.0071241
-0.00712938
-0.00712422
-0.00710737
-0.00707631
-0.00703998
0.000964694
0.00089486
0.00081909
0.000749571
0.000683263
0.000618884
0.000556207
0.000494952
0.000434733
0.000375141
0.000315758
0.000256159
0.000195923
0.000134631
7.18748e-05
7.25621e-06
-5.96071e-05
-0.000129081
-0.000201512
-0.000277229
-0.000356538
-0.000439721
-0.00052704
-0.000618729
-0.000714995
-0.000816019
-0.000921949
-0.0010329
-0.00114895
-0.00127015
-0.00139648
-0.00152791
-0.00166434
-0.00180563
-0.00195157
-0.00210191
-0.00225633
-0.00241446
-0.00257585
-0.00274001
-0.00290638
-0.00307433
-0.00324317
-0.00341217
-0.00358054
-0.00374744
-0.003912
-0.00407329
-0.00423038
-0.00438231
-0.00452811
-0.00466684
-0.00479752
-0.00491923
-0.00503108
-0.00513222
-0.00522186
-0.00529927
-0.00536382
-0.00541494
-0.00545219
-0.00547523
-0.00548382
-0.00547788
-0.00545744
-0.00542267
-0.00537389
-0.00531155
-0.00523625
-0.00514875
-0.00504993
-0.00494081
-0.00482255
-0.00469642
-0.00456382
-0.00442622
-0.00428521
-0.00414242
-0.00399954
-0.00385831
-0.00372046
-0.00358774
-0.00346183
-0.00334439
-0.003237
-0.00314114
-0.00305817
-0.00298931
-0.00293562
-0.00289799
-0.00287713
-0.00287353
-0.00288748
-0.00291905
-0.00296811
-0.00303428
-0.00311701
-0.00321553
-0.00332889
-0.00345595
-0.00359546
-0.00374602
-0.00390612
-0.0040742
-0.00424862
-0.00442775
-0.00460995
-0.00479361
-0.00497718
-0.0051592
-0.00533829
-0.0055132
-0.00568281
-0.00584612
-0.00600229
-0.00615061
-0.00629052
-0.00642159
-0.00654351
-0.00665607
-0.00675918
-0.00685279
-0.00693695
-0.00701168
-0.00707707
-0.00713316
-0.00717997
-0.00721745
-0.00724553
-0.00726399
-0.00727256
-0.00727099
-0.00725814
-0.00723175
-0.00719993
0.0010553
0.000976661
0.000892115
0.000815586
0.000743504
0.000674299
0.000607619