/*--------------------------------*- C++ -*----------------------------------*\
  =========                 |
  \\      /  F ield         | OpenFOAM: The Open Source CFD Toolbox
   \\    /   O peration     | Website:  https://openfoam.org
    \\  /    A nd           | Version:  12
     \\/     M anipulation  |
\*---------------------------------------------------------------------------*/
FoamFile
{
    format      ascii;
    class       surfaceScalarField;
    location    "8";
    object      phi;
}
// * * * * * * * * * * * * * * * * * * * * * * * * * * * * * * * * * * * * * //

dimensions      [0 3 -1 0 0 0 0];

internalField   nonuniform List<scalar> 
36180
(
3.25076e-11
-3.25568e-11
1.64317e-10
-1.31816e-10
3.6689e-10
-2.02582e-10
6.01473e-10
-2.34591e-10
8.37683e-10
-2.36215e-10
1.05373e-09
-2.16054e-10
1.23471e-09
-1.80978e-10
1.3709e-09
-1.36196e-10
1.45644e-09
-8.5538e-11
1.48819e-09
-3.17513e-11
1.46496e-09
2.32285e-11
1.38688e-09
7.80851e-11
1.25494e-09
1.3194e-10
1.07068e-09
1.84261e-10
8.35909e-10
2.34766e-10
5.52554e-10
2.83355e-10
2.22491e-10
3.30063e-10
-1.52519e-10
3.75009e-10
-5.70905e-10
4.18386e-10
-1.03131e-09
4.60409e-10
-1.53262e-09
5.01307e-10
-2.07392e-09
5.41298e-10
-2.65451e-09
5.8059e-10
-3.27388e-09
6.1937e-10
-3.93168e-09
6.57794e-10
-4.62766e-09
6.95984e-10
-5.36169e-09
7.34024e-10
-6.13365e-09
7.71959e-10
-6.94344e-09
8.09797e-10
-7.79096e-09
8.47511e-10
-8.67599e-09
8.85033e-10
-9.59826e-09
9.22265e-10
-1.05573e-08
9.59076e-10
-1.15526e-08
9.95305e-10
-1.25834e-08
1.03076e-09
-1.36486e-08
1.06524e-09
-1.47471e-08
1.0985e-09
-1.58774e-08
1.13028e-09
-1.70377e-08
1.16031e-09
-1.8226e-08
1.18831e-09
-1.944e-08
1.21396e-09
-2.0677e-08
1.23697e-09
-2.1934e-08
1.257e-09
-2.32077e-08
1.27373e-09
-2.44945e-08
1.28683e-09
-2.57905e-08
1.29597e-09
-2.70913e-08
1.30083e-09
-2.83924e-08
1.30108e-09
-2.96888e-08
1.29642e-09
-3.09754e-08
1.28654e-09
-3.22465e-08
1.27116e-09
-3.34965e-08
1.25002e-09
-3.47194e-08
1.22289e-09
-3.5909e-08
1.18955e-09
-3.70588e-08
1.14983e-09
-3.81624e-08
1.10358e-09
-3.92131e-08
1.05071e-09
-4.02043e-08
9.91151e-10
-4.11292e-08
9.24901e-10
-4.19812e-08
8.51999e-10
-4.27537e-08
7.72538e-10
-4.34404e-08
6.8667e-10
-4.4035e-08
5.94605e-10
-4.45316e-08
4.96612e-10
-4.49246e-08
3.93012e-10
-4.52088e-08
2.84161e-10
-4.53792e-08
1.70486e-10
-4.54324e-08
5.31297e-11
-4.53639e-08
-6.84441e-11
-4.51711e-08
-1.92822e-10
-4.48516e-08
-3.19504e-10
-4.44039e-08
-4.47743e-10
-4.38271e-08
-5.76743e-10
-4.31214e-08
-7.05671e-10
-4.22878e-08
-8.3366e-10
-4.1328e-08
-9.59815e-10
-4.02447e-08
-1.08322e-09
-3.90418e-08
-1.20296e-09
-3.77237e-08
-1.31811e-09
-3.62959e-08
-1.42776e-09
-3.47649e-08
-1.53101e-09
-3.31379e-08
-1.62701e-09
-3.14229e-08
-1.71495e-09
-2.96289e-08
-1.79404e-09
-2.77653e-08
-1.86361e-09
-2.58423e-08
-1.92301e-09
-2.38706e-08
-1.97171e-09
-2.18613e-08
-2.00926e-09
-1.9826e-08
-2.03529e-09
-1.77764e-08
-2.04957e-09
-1.57245e-08
-2.05195e-09
-1.36821e-08
-2.04241e-09
-1.16611e-08
-2.02103e-09
-9.67302e-09
-1.98804e-09
-7.72929e-09
-1.94373e-09
-5.84074e-09
-1.88855e-09
-4.01773e-09
-1.82301e-09
-2.26997e-09
-1.74776e-09
-6.06463e-10
-1.66351e-09
9.64581e-10
-1.57104e-09
2.43582e-09
-1.47124e-09
3.80082e-09
-1.36501e-09
5.05411e-09
-1.25329e-09
6.19119e-09
-1.13708e-09
7.20859e-09
-1.0174e-09
8.10384e-09
-8.95249e-10
8.87544e-09
-7.71606e-10
9.52288e-09
-6.47441e-10
1.00466e-08
-5.2369e-10
1.04478e-08
-4.01248e-10
1.07288e-08
-2.80958e-10
1.08924e-08
-1.63612e-10
1.09423e-08
-4.99501e-11
1.0883e-08
5.93703e-11
1.07193e-08
1.63671e-10
1.04569e-08
2.62438e-10
1.01018e-08
3.55077e-10
9.66074e-09
4.41043e-10
9.14095e-09
5.19785e-10
8.55023e-09
5.9072e-10
7.89704e-09
6.53196e-10
7.19058e-09
7.06459e-10
6.44098e-09
7.49599e-10
5.65948e-09
7.815e-10
4.8587e-09
8.00782e-10
4.05297e-09
8.0573e-10
3.25873e-09
7.94232e-10
2.495e-09
7.6373e-10
1.78379e-09
7.11217e-10
1.15038e-09
6.33405e-10
6.23132e-10
5.2725e-10
2.31877e-10
3.91255e-10
3.17953e-12
2.28697e-10
-5.52128e-11
5.83922e-11
-5.52128e-11
1.32449e-10
-1.65006e-10
4.63262e-10
-4.62634e-10
9.20668e-10
-6.59996e-10
1.43188e-09
-7.45812e-10
1.93469e-09
-7.39033e-10
2.38075e-09
-6.62111e-10
2.7345e-09
-5.3473e-10
2.97111e-09
-3.72806e-10
3.07425e-09
-1.88683e-10
3.03415e-09
8.35003e-12
2.84586e-09
2.11511e-10
2.50802e-09
4.15926e-10
2.0217e-09
6.18259e-10
1.38962e-09
8.16342e-10
6.15475e-10
1.00891e-09
-2.96566e-10
1.1954e-09
-1.34222e-09
1.37572e-09
-2.51736e-09
1.55015e-09
-3.81815e-09
1.71918e-09
-5.24117e-09
1.88343e-09
-6.78346e-09
2.04359e-09
-8.44254e-09
2.20039e-09
-1.02164e-08
2.35448e-09
-1.21035e-08
2.50647e-09
-1.41026e-08
2.65685e-09
-1.62126e-08
2.80598e-09
-1.84327e-08
2.95412e-09
-2.07621e-08
3.10137e-09
-2.32e-08
3.24771e-09
-2.57455e-08
3.39297e-09
-2.83973e-08
3.53687e-09
-3.1154e-08
3.67899e-09
-3.40138e-08
3.81881e-09
-3.69742e-08
3.95568e-09
-4.00323e-08
4.08887e-09
-4.31846e-08
4.21754e-09
-4.64269e-08
4.34078e-09
-4.97542e-08
4.45762e-09
-5.31609e-08
4.56701e-09
-5.66404e-08
4.66784e-09
-6.01854e-08
4.75897e-09
-6.37877e-08
4.83924e-09
-6.74381e-08
4.90743e-09
-7.11267e-08
4.96233e-09
-7.48427e-08
5.00273e-09
-7.85741e-08
5.02741e-09
-8.23085e-08
5.03519e-09
-8.60323e-08
5.02491e-09
-8.97313e-08
4.99545e-09
-9.33905e-08
4.94576e-09
-9.69943e-08
4.87486e-09
-1.00526e-07
4.78185e-09
-1.03969e-07
4.66592e-09
-1.07306e-07
4.52639e-09
-1.10519e-07
4.3627e-09
-1.1359e-07
4.17444e-09
-1.165e-07
3.96133e-09
-1.19232e-07
3.72329e-09
-1.21768e-07
3.46039e-09
-1.24089e-07
3.17291e-09
-1.26178e-07
2.86132e-09
-1.28017e-07
2.5263e-09
-1.29591e-07
2.16875e-09
-1.30885e-07
1.78979e-09
-1.31882e-07
1.39073e-09
-1.32571e-07
9.73077e-10
-1.32939e-07
5.38485e-10
-1.32976e-07
8.99842e-11
-1.32673e-07
-3.71586e-10
-1.32023e-07
-8.43227e-10
-1.3102e-07
-1.32234e-09
-1.29661e-07
-1.80615e-09
-1.27946e-07
-2.29173e-09
-1.25876e-07
-2.77602e-09
-1.23454e-07
-3.25585e-09
-1.20686e-07
-3.72795e-09
-1.1758e-07
-4.18902e-09
-1.14147e-07
-4.63572e-09
-1.104e-07
-5.06473e-09
-1.06355e-07
-5.47278e-09
-1.0203e-07
-5.85668e-09
-9.74434e-08
-6.21336e-09
-9.26185e-08
-6.5399e-09
-8.75789e-08
-6.83359e-09
-8.23506e-08
-7.09193e-09
-7.69609e-08
-7.31271e-09
-7.14386e-08
-7.49399e-09
-6.58137e-08
-7.63417e-09
-6.0117e-08
-7.73198e-09
-5.438e-08
-7.78656e-09
-4.86346e-08
-7.7974e-09
-4.29126e-08
-7.76441e-09
-3.72457e-08
-7.68789e-09
-3.16652e-08
-7.56856e-09
-2.62014e-08
-7.40753e-09
-2.08836e-08
-7.20632e-09
-1.57399e-08
-6.96679e-09
-1.07965e-08
-6.69116e-09
-6.07799e-09
-6.38198e-09
-1.60697e-09
-6.04206e-09
2.59627e-09
-5.67448e-09
6.51378e-09
-5.28252e-09
1.01301e-08
-4.8696e-09
1.34323e-08
-4.43931e-09
1.64102e-08
-3.99525e-09
1.9056e-08
-3.54105e-09
2.13647e-08
-3.08036e-09
2.3334e-08
-2.61674e-09
2.4964e-08
-2.15366e-09
2.62572e-08
-1.69445e-09
2.72185e-08
-1.24231e-09
2.78552e-08
-8.00246e-10
2.81763e-08
-3.71099e-10
2.81932e-08
4.24809e-11
2.7919e-08
4.3793e-10
2.73684e-08
8.13032e-10
2.6558e-08
1.16545e-09
2.55061e-08
1.49292e-09
2.42327e-08
1.7932e-09
2.27595e-08
2.06392e-09
2.11102e-08
2.30248e-09
1.93107e-08
2.50593e-09
1.73895e-08
2.67087e-09
1.53777e-08
2.79325e-09
1.33103e-08
2.86821e-09
1.1226e-08
2.89002e-09
9.16836e-09
2.85187e-09
7.18611e-09
2.74598e-09
5.3335e-09
2.56383e-09
3.66987e-09
2.29704e-09
2.25779e-09
1.93932e-09
1.15829e-09
1.49076e-09
4.20302e-10
9.66683e-10
5.85036e-11
4.2019e-10
3.29072e-12
2.04685e-10
-3.69687e-10
6.63986e-10
-9.21936e-10
1.26253e-09
-1.25854e-09
1.90594e-09
-1.38923e-09
2.51526e-09
-1.34837e-09
3.02733e-09
-1.17418e-09
3.39391e-09
-9.0131e-10
3.57988e-09
-5.58773e-10
3.56101e-09
-1.69823e-10
3.32187e-09
2.47493e-10
2.85383e-09
6.79547e-10
2.1534e-09
1.11636e-09
1.22078e-09
1.55088e-09
5.87089e-11
1.97841e-09
-1.32844e-09
2.39606e-09
-2.93535e-09
2.80231e-09
-4.75632e-09
3.19668e-09
-6.78564e-09
3.57947e-09
-9.01792e-09
3.95146e-09
-1.14483e-08
4.31376e-09
-1.40723e-08
4.66764e-09
-1.68863e-08
5.01439e-09
-1.98871e-08
5.35527e-09
-2.3072e-08
5.69136e-09
-2.64387e-08
6.02356e-09
-2.99852e-08
6.35252e-09
-3.37098e-08
6.67865e-09
-3.76105e-08
7.00206e-09
-4.16854e-08
7.32261e-09
-4.59322e-08
7.63984e-09
-5.03484e-08
7.95306e-09
-5.49307e-08
8.2613e-09
-5.96753e-08
8.56335e-09
-6.45773e-08
8.85777e-09
-6.96314e-08
9.14292e-09
-7.48308e-08
9.41697e-09
-8.0168e-08
9.67793e-09
-8.5634e-08
9.92364e-09
-9.12188e-08
1.01518e-08
-9.69111e-08
1.03601e-08
-1.02698e-07
1.0546e-08
-1.08566e-07
1.07071e-08
-1.14499e-07
1.08407e-08
-1.20481e-07
1.09443e-08
-1.26494e-07
1.10153e-08
-1.32518e-07
1.10511e-08
-1.38532e-07
1.10493e-08
-1.44514e-07
1.10076e-08
-1.50442e-07
1.09235e-08
-1.56292e-07
1.0795e-08
-1.62037e-07
1.06201e-08
-1.67652e-07
1.0397e-08
-1.7311e-07
1.01241e-08
-1.78384e-07
9.80026e-09
-1.83446e-07
9.42435e-09
-1.88267e-07
8.99569e-09
-1.9282e-07
8.51393e-09
-1.97075e-07
7.97907e-09
-2.01006e-07
7.39149e-09
-2.04586e-07
6.75199e-09
-2.07786e-07
6.06177e-09
-2.10582e-07
5.3225e-09
-2.1295e-07
4.53627e-09
-2.14866e-07
3.70563e-09
-2.16308e-07
2.83358e-09
-2.17259e-07
1.92357e-09
-2.177e-07
9.79538e-10
-2.17616e-07
6.28508e-12
-2.16996e-07
-9.92057e-10
-2.15829e-07
-2.01004e-09
-2.14109e-07
-3.04212e-09
-2.11833e-07
-4.08238e-09
-2.09e-07
-5.12462e-09
-2.05614e-07
-6.1624e-09
-2.0168e-07
-7.18906e-09
-1.97211e-07
-8.1978e-09
-1.92218e-07
-9.18174e-09
-1.8672e-07
-1.01339e-08
-1.80737e-07
-1.10476e-08
-1.74294e-07
-1.19158e-08
-1.67418e-07
-1.27322e-08
-1.60141e-07
-1.34902e-08
-1.52497e-07
-1.41841e-08
-1.44523e-07
-1.48082e-08
-1.36257e-07
-1.53573e-08
-1.27743e-07
-1.58271e-08
-1.19024e-07
-1.62133e-08
-1.10145e-07
-1.65129e-08
-1.01153e-07
-1.67233e-08
-9.20976e-08
-1.68425e-08
-8.30254e-08
-1.68696e-08
-7.39855e-08
-1.68043e-08
-6.50261e-08
-1.66473e-08
-5.61947e-08
-1.64e-08
-4.75377e-08
-1.60646e-08
-3.90998e-08
-1.56442e-08
-3.0924e-08
-1.51426e-08
-2.3051e-08
-1.45643e-08
-1.55185e-08
-1.39144e-08
-8.36167e-09
-1.31989e-08
-1.61225e-09
-1.24239e-08
4.70147e-09
-1.15962e-08
1.05548e-08
-1.0723e-08
1.5927e-08
-9.8115e-09
2.08011e-08
-8.86933e-09
2.51641e-08
-7.90406e-09
2.90071e-08
-6.92332e-09
3.2325e-08
-5.93462e-09
3.51166e-08
-4.94531e-09
3.73847e-08
-3.96254e-09
3.91355e-08
-2.99313e-09
4.03789e-08
-2.04363e-09
4.1128e-08
-1.12023e-09
4.13993e-08
-2.28807e-10
4.12122e-08
6.25078e-10
4.0589e-08
1.43617e-09
3.95552e-08
2.19933e-09
3.81386e-08
2.90949e-09
3.63703e-08
3.56152e-09
3.42841e-08
4.15008e-09
3.19172e-08
4.66944e-09
2.93098e-08
5.11324e-09
2.65065e-08
5.47422e-09
2.35557e-08
5.74404e-09
2.05109e-08
5.913e-09
1.7431e-08
5.96991e-09
1.43809e-08
5.90205e-09
1.14314e-08
5.69543e-09
8.65963e-09
5.3356e-09
6.14721e-09
4.80946e-09
3.97747e-09
4.10906e-09
2.22963e-09
3.2386e-09
9.68641e-10
2.22767e-09
2.29416e-10
1.15942e-09
2.32707e-10
2.38218e-10
-6.07901e-10
7.52278e-10
-1.43599e-09
1.39523e-09
-1.9015e-09
2.05546e-09
-2.04946e-09
2.64325e-09
-1.93616e-09
3.08702e-09
-1.61796e-09
3.33134e-09
-1.14563e-09
3.33492e-09
-5.62353e-10
3.06848e-09
9.6611e-11
2.51264e-09
8.03329e-10
1.65589e-09
1.5363e-09
4.9277e-10
2.27947e-09
-9.77599e-10
3.02125e-09
-2.75288e-09
3.75369e-09
-4.82856e-09
4.47174e-09
-7.19885e-09
5.17259e-09
-9.8573e-09
5.85514e-09
-1.27973e-08
6.5195e-09
-1.60126e-08
7.16669e-09
-1.94971e-08
7.79824e-09
-2.32454e-08
8.41598e-09
-2.72528e-08
9.02179e-09
-3.1515e-08
9.6175e-09
-3.60284e-08
1.02047e-08
-4.07894e-08
1.07846e-08
-4.57952e-08
1.13582e-08
-5.10425e-08
1.19259e-08
-5.65282e-08
1.24878e-08
-6.22489e-08
1.30433e-08
-6.82008e-08
1.35917e-08
-7.43792e-08
1.41315e-08
-8.07788e-08
1.46609e-08
-8.73933e-08
1.51778e-08
-9.42152e-08
1.56797e-08
-1.01236e-07
1.61636e-08
-1.08445e-07
1.66263e-08
-1.15832e-07
1.70643e-08
-1.23382e-07
1.7474e-08
-1.31082e-07
1.78515e-08
-1.38914e-07
1.81925e-08
-1.46861e-07
1.8493e-08
-1.54902e-07
1.87486e-08
-1.63017e-07
1.89551e-08
-1.7118e-07
1.9108e-08
-1.79368e-07
1.9203e-08
-1.87553e-07
1.92361e-08
-1.95707e-07
1.9203e-08
-2.03799e-07
1.90998e-08
-2.11798e-07
1.89228e-08
-2.19672e-07
1.86686e-08
-2.27386e-07
1.8334e-08
-2.34905e-07
1.79164e-08
-2.42194e-07
1.74132e-08
-2.49217e-07
1.68226e-08
-2.55936e-07
1.61433e-08
-2.62314e-07
1.53742e-08
-2.68315e-07
1.45151e-08
-2.73903e-07
1.35665e-08
-2.7904e-07
1.25291e-08
-2.83693e-07
1.14048e-08
-2.87827e-07
1.01958e-08
-2.9141e-07
8.90538e-09
-2.94411e-07
7.53727e-09
-2.96801e-07
6.0961e-09
-2.98555e-07
4.5872e-09
-2.99648e-07
3.01665e-09
-3.0006e-07
1.3913e-09
-2.99772e-07
-2.81202e-10
-2.98772e-07
-1.99287e-09
-2.97047e-07
-3.73487e-09
-2.94591e-07
-5.49778e-09
-2.91402e-07
-7.27167e-09
-2.8748e-07
-9.04616e-09
-2.82832e-07
-1.08105e-08
-2.77468e-07
-1.25536e-08
-2.71401e-07
-1.42642e-08
-2.64652e-07
-1.5931e-08
-2.57244e-07
-1.75424e-08
-2.49204e-07
-1.90874e-08
-2.40565e-07
-2.05546e-08
-2.31364e-07
-2.19334e-08
-2.2164e-07
-2.32135e-08
-2.1144e-07
-2.4385e-08
-2.00809e-07
-2.54389e-08
-1.89799e-07
-2.63669e-08
-1.78465e-07
-2.71614e-08
-1.66862e-07
-2.78161e-08
-1.5505e-07
-2.83256e-08
-1.43087e-07
-2.86856e-08
-1.31036e-07
-2.88932e-08
-1.18959e-07
-2.89467e-08
-1.06918e-07
-2.88455e-08
-9.49745e-08
-2.85907e-08
-8.31899e-08
-2.81846e-08
-7.16239e-08
-2.76306e-08
-6.03343e-08
-2.69338e-08
-4.93767e-08
-2.61002e-08
-3.88038e-08
-2.51371e-08
-2.86652e-08
-2.4053e-08
-1.90068e-08
-2.28573e-08
-9.87045e-09
-2.15602e-08
-1.29387e-09
-2.01728e-08
6.68987e-09
-1.87067e-08
1.40524e-08
-1.71741e-08
2.07704e-08
-1.55873e-08
2.68255e-08
-1.39591e-08
3.22042e-08
-1.2302e-08
3.68984e-08
-1.06288e-08
4.09048e-08
-8.95175e-09
4.42252e-08
-7.28294e-09
4.68661e-08
-5.63404e-09
4.88387e-08
-4.01624e-09
5.01587e-08
-2.44023e-09
5.08462e-08
-9.16306e-10
5.09255e-08
5.45841e-10
5.04248e-08
1.93686e-09
4.93764e-08
3.24768e-09
4.78166e-08
4.46935e-09
4.57853e-08
5.59278e-09
4.33268e-08
6.60859e-09
4.04894e-08
7.50686e-09
3.73259e-08
8.27673e-09
3.3894e-08
8.90614e-09
3.02565e-08
9.38146e-09
2.64823e-08
9.68727e-09
2.26459e-08
9.80626e-09
1.88286e-08
9.71931e-09
1.5118e-08
9.4061e-09
1.16071e-08
8.84647e-09
8.39332e-09
8.02325e-09
5.57511e-09
6.92726e-09
3.24761e-09
5.5661e-09
1.49655e-09
3.97873e-09
3.93201e-10
2.26277e-09
6.25908e-10
2.40212e-10
-8.48108e-10
7.42865e-10
-1.93864e-09
1.34435e-09
-2.50298e-09
1.92178e-09
-2.62689e-09
2.37866e-09
-2.39305e-09
2.63886e-09
-1.87816e-09
2.64337e-09
-1.15014e-09
2.34784e-09
-2.6683e-10
1.72037e-09
7.24086e-10
7.39323e-10
1.78437e-09
-6.08565e-10
2.88419e-09
-2.33002e-09
4.00092e-09
-4.42678e-09
5.11801e-09
-6.89699e-09
6.22391e-09
-9.7363e-09
7.31105e-09
-1.29388e-08
8.37508e-09
-1.64977e-08
9.41403e-09
-2.04059e-08
1.04277e-08
-2.46565e-08
1.14173e-08
-2.92428e-08
1.23845e-08
-3.41586e-08
1.33318e-08
-3.93983e-08
1.42615e-08
-4.49567e-08
1.51759e-08
-5.08291e-08
1.60771e-08
-5.7011e-08
1.69666e-08
-6.34982e-08
1.78454e-08
-7.02862e-08
1.87139e-08
-7.73702e-08
1.95718e-08
-8.47452e-08
2.04183e-08
-9.24052e-08
2.12517e-08
-1.00343e-07
2.20697e-08
-1.08552e-07
2.28696e-08
-1.17022e-07
2.36477e-08
-1.25743e-07
2.44002e-08
-1.34702e-07
2.51226e-08
-1.43885e-07
2.58098e-08
-1.53277e-07
2.64567e-08
-1.62861e-07
2.70574e-08
-1.72615e-07
2.76061e-08
-1.8252e-07
2.80966e-08
-1.92549e-07
2.85227e-08
-2.02679e-07
2.88779e-08
-2.12879e-07
2.91557e-08
-2.23121e-07
2.93497e-08
-2.33372e-07
2.94537e-08
-2.43597e-07
2.94614e-08
-2.53761e-07
2.9367e-08
-2.63826e-07
2.91647e-08
-2.73752e-07
2.88493e-08
-2.835e-07
2.84159e-08
-2.93026e-07
2.78602e-08
-3.02288e-07
2.71785e-08
-3.11242e-07
2.63675e-08
-3.19845e-07
2.54249e-08
-3.2805e-07
2.4349e-08
-3.35815e-07
2.31389e-08
-3.43095e-07
2.17948e-08
-3.49846e-07
2.03174e-08
-3.56025e-07
1.8709e-08
-3.61593e-07
1.69722e-08
-3.66508e-07
1.51113e-08
-3.70734e-07
1.31312e-08
-3.74235e-07
1.1038e-08
-3.76978e-07
8.83907e-09
-3.78933e-07
6.54258e-09
-3.80075e-07
4.1579e-09
-3.80379e-07
1.69542e-09
-3.79826e-07
-8.33451e-10
-3.78403e-07
-3.41651e-09
-3.76097e-07
-6.04059e-09
-3.72903e-07
-8.69174e-09
-3.68819e-07
-1.13553e-08
-3.6385e-07
-1.40159e-08
-3.58002e-07
-1.66578e-08
-3.51291e-07
-1.92649e-08
-3.43735e-07
-2.18206e-08
-3.35357e-07
-2.43084e-08
-3.26188e-07
-2.67118e-08
-3.16261e-07
-2.90144e-08
-3.05615e-07
-3.12001e-08
-2.94295e-07
-3.32535e-08
-2.82349e-07
-3.51595e-08
-2.6983e-07
-3.69042e-08
-2.56795e-07
-3.84743e-08
-2.43304e-07
-3.9858e-08
-2.29421e-07
-4.10444e-08
-2.15212e-07
-4.20243e-08
-2.00748e-07
-4.27899e-08
-1.86099e-07
-4.3335e-08
-1.71337e-07
-4.36553e-08
-1.56535e-07
-4.37483e-08
-1.41768e-07
-4.36131e-08
-1.27107e-07
-4.32511e-08
-1.12626e-07
-4.26654e-08
-9.8396e-08
-4.1861e-08
-8.44849e-08
-4.08449e-08
-7.09593e-08
-3.96257e-08
-5.78826e-08
-3.82139e-08
-4.53142e-08
-3.66214e-08
-3.33097e-08
-3.48618e-08
-2.19201e-08
-3.29498e-08
-1.11915e-08
-3.09014e-08
-1.16491e-09
-2.87333e-08
8.12427e-09
-2.64633e-08
1.66463e-08
-2.41093e-08
2.43771e-08
-2.169e-08
3.1299e-08
-1.92239e-08
3.73998e-08
-1.67296e-08
4.26735e-08
-1.42255e-08
4.71202e-08
-1.17296e-08
5.07455e-08
-9.25934e-09
5.35609e-08
-6.83166e-09
5.55835e-08
-4.46283e-09
5.68356e-08
-2.1684e-09
5.73448e-08
3.6623e-11
5.71439e-08
2.13774e-09
5.62706e-08
4.12097e-09
5.47675e-08
5.97247e-09
5.26821e-08
7.67814e-09
5.00671e-08
9.22366e-09
4.69799e-08
1.0594e-08
4.34837e-08
1.17729e-08
3.96471e-08
1.27428e-08
3.55444e-08
1.34841e-08
3.12566e-08
1.39751e-08
2.68707e-08
1.41921e-08
2.24807e-08
1.41094e-08
1.81863e-08
1.37005e-08
1.40932e-08
1.29395e-08
1.03112e-08
1.18053e-08
6.95226e-09
1.02862e-08
4.12849e-09
8.38988e-09
1.95056e-09
6.15665e-09
5.30889e-10
3.68244e-09
1.1568e-09
2.17954e-10
-1.06606e-09
6.5375e-10
-2.37444e-09
1.13912e-09
-2.98835e-09
1.54652e-09
-3.03428e-09
1.77667e-09
-2.62321e-09
1.75195e-09
-1.85344e-09
1.4125e-09
-8.10691e-10
7.13315e-10
4.32352e-10
-3.78167e-10
1.81557e-09
-1.8842e-09
3.29041e-09
-3.81866e-09
4.81865e-09
-6.1888e-09
6.37105e-09
-8.99676e-09
7.92597e-09
-1.2241e-08
9.4681e-09
-1.59172e-08
1.09873e-08
-2.00195e-08
1.24774e-08
-2.4541e-08
1.39356e-08
-2.94744e-08
1.53612e-08
-3.48124e-08
1.67552e-08
-4.05478e-08
1.81199e-08
-4.66739e-08
1.94579e-08
-5.31844e-08
2.07719e-08
-6.00732e-08
2.20647e-08
-6.73347e-08
2.33386e-08
-7.49633e-08
2.45952e-08
-8.29533e-08
2.58354e-08
-9.12989e-08
2.70595e-08
-9.99936e-08
2.82665e-08
-1.0903e-07
2.9455e-08
-1.18401e-07
3.06222e-08
-1.28096e-07
3.17648e-08
-1.38105e-07
3.28785e-08
-1.48415e-07
3.39582e-08
-1.59013e-07
3.49983e-08
-1.69883e-07
3.59921e-08
-1.81006e-07
3.69328e-08
-1.92362e-07
3.78128e-08
-2.03929e-07
3.86242e-08
-2.15681e-07
3.93586e-08
-2.27592e-07
4.00075e-08
-2.39632e-07
4.05622e-08
-2.51768e-07
4.10138e-08
-2.63965e-07
4.13536e-08
-2.76188e-07
4.15727e-08
-2.88397e-07
4.16627e-08
-3.00551e-07
4.16153e-08
-3.12607e-07
4.14224e-08
-3.24519e-07
4.10768e-08
-3.36241e-07
4.05715e-08
-3.47725e-07
3.99001e-08
-3.58922e-07
3.90573e-08
-3.69782e-07
3.80382e-08
-3.80254e-07
3.68393e-08
-3.90286e-07
3.54576e-08
-3.99829e-07
3.38915e-08
-4.0883e-07
3.21405e-08
-4.17241e-07
3.02052e-08
-4.25011e-07
2.80877e-08
-4.32094e-07
2.57913e-08
-4.38442e-07
2.33206e-08
-4.44012e-07
2.06817e-08
-4.48763e-07
1.78822e-08
-4.52656e-07
1.4931e-08
-4.55656e-07
1.18385e-08
-4.5773e-07
8.61646e-09
-4.5885e-07
5.27804e-09
-4.58992e-07
1.83776e-09
-4.58137e-07
-1.68858e-09
-4.5627e-07
-5.28404e-09
-4.5338e-07
-8.93054e-09
-4.49462e-07
-1.2609e-08
-4.44518e-07
-1.62994e-08
-4.38553e-07
-1.9981e-08
-4.31579e-07
-2.36324e-08
-4.23612e-07
-2.72319e-08
-4.14675e-07
-3.07572e-08
-4.04797e-07
-3.41861e-08
-3.94013e-07
-3.74965e-08
-3.82361e-07
-4.06665e-08
-3.69886e-07
-4.36745e-08
-3.5664e-07
-4.65e-08
-3.42676e-07
-4.9123e-08
-3.28056e-07
-5.15247e-08
-3.12842e-07
-5.36876e-08
-2.97105e-07
-5.55958e-08
-2.80914e-07
-5.72348e-08
-2.64346e-07
-5.85924e-08
-2.47478e-07
-5.9658e-08
-2.3039e-07
-6.04234e-08
-2.13162e-07
-6.08826e-08
-1.95879e-07
-6.1032e-08
-1.78621e-07
-6.08706e-08
-1.61472e-07
-6.03998e-08
-1.44514e-07
-5.96236e-08
-1.27827e-07
-5.85484e-08
-1.11488e-07
-5.71833e-08
-9.55745e-08
-5.55396e-08
-8.01573e-08
-5.36311e-08
-6.53053e-08
-5.14734e-08
-5.10825e-08
-4.90846e-08
-3.75482e-08
-4.64841e-08
-2.47564e-08
-4.36932e-08
-1.27553e-08
-4.07344e-08
-1.58718e-09
-3.76313e-08
8.71189e-09
-3.44084e-08
1.81124e-08
-3.10905e-08
2.65915e-08
-2.7703e-08
3.4133e-08
-2.42711e-08
4.07276e-08
-2.08201e-08
4.63728e-08
-1.73747e-08
5.10725e-08
-1.39591e-08
5.48376e-08
-1.05967e-08
5.76852e-08
-7.31041e-09
5.96388e-08
-4.12205e-09
6.07283e-08
-1.05286e-09
6.09893e-08
1.87669e-09
6.04637e-08
4.64664e-09
5.91988e-08
7.23736e-09
5.72481e-08
9.62887e-09
5.46707e-08
1.1801e-08
5.15319e-08
1.37328e-08
4.79026e-08
1.54022e-08
4.38603e-08
1.67851e-08
3.94887e-08
1.78557e-08
3.48781e-08
1.85857e-08
3.01256e-08
1.89447e-08
2.53346e-08
1.89004e-08
2.06152e-08
1.84199e-08
1.60831e-08
1.74717e-08
1.18591e-08
1.60292e-08
8.06871e-09
1.40766e-08
4.84167e-09
1.16169e-08
2.31469e-09
8.68363e-09
6.38942e-10
5.35819e-09
1.79574e-09
1.77096e-10
-1.24315e-09
5.00487e-10
-2.69783e-09
8.05903e-10
-3.29377e-09
9.6712e-10
-3.1955e-09
8.86015e-10
-2.5421e-09
4.86394e-10
-1.45382e-09
-2.90119e-10
-3.41793e-11
-1.4872e-09
1.62943e-09
-3.13634e-09
3.46471e-09
-5.25903e-09
5.41309e-09
-7.86863e-09
7.42825e-09
-1.09721e-08
9.47451e-09
-1.45714e-08
1.15253e-08
-1.86649e-08
1.35616e-08
-2.32484e-08
1.55707e-08
-2.83158e-08
1.75449e-08
-3.38603e-08
1.948e-08
-3.98744e-08
2.13752e-08
-4.63504e-08
2.32313e-08
-5.32811e-08
2.50506e-08
-6.06591e-08
2.68359e-08
-6.84776e-08
2.85904e-08
-7.67298e-08
3.03169e-08
-8.5409e-08
3.20179e-08
-9.45086e-08
3.36948e-08
-1.04022e-07
3.53484e-08
-1.1394e-07
3.69782e-08
-1.24257e-07
3.85828e-08
-1.34961e-07
4.01594e-08
-1.46043e-07
4.17042e-08
-1.57491e-07
4.32124e-08
-1.6929e-07
4.46779e-08
-1.81426e-07
4.60938e-08
-1.9388e-07
4.74521e-08
-2.06632e-07
4.87443e-08
-2.1966e-07
4.99607e-08
-2.32938e-07
5.10915e-08
-2.4644e-07
5.21261e-08
-2.60135e-07
5.30535e-08
-2.7399e-07
5.38625e-08
-2.8797e-07
5.45417e-08
-3.02035e-07
5.50796e-08
-3.16147e-07
5.54648e-08
-3.3026e-07
5.56861e-08
-3.4433e-07
5.57327e-08
-3.58309e-07
5.55939e-08
-3.72146e-07
5.52599e-08
-3.85791e-07
5.47213e-08
-3.99189e-07
5.39698e-08
-4.12287e-07
5.29977e-08
-4.25028e-07
5.17984e-08
-4.37356e-07
5.03666e-08
-4.49215e-07
4.8698e-08
-4.60547e-07
4.67898e-08
-4.71296e-07
4.46406e-08
-4.81406e-07
4.22505e-08
-4.90822e-07
3.96213e-08
-4.99491e-07
3.67563e-08
-5.0736e-07
3.36606e-08
-5.14381e-07
3.0341e-08
-5.20505e-07
2.68063e-08
-5.2569e-07
2.30668e-08
-5.29893e-07
1.91348e-08
-5.33079e-07
1.50243e-08
-5.35214e-07
1.07511e-08
-5.36269e-07
6.33271e-09
-5.36219e-07
1.78815e-09
-5.35046e-07
-2.86186e-09
-5.32735e-07
-7.59522e-09
-5.29277e-07
-1.23885e-08
-5.24669e-07
-1.7217e-08
-5.18913e-07
-2.2055e-08
-5.12018e-07
-2.68759e-08
-5.03998e-07
-3.16524e-08
-4.94873e-07
-3.63566e-08
-4.8467e-07
-4.09604e-08
-4.73421e-07
-4.54355e-08
-4.61164e-07
-4.97537e-08
-4.47943e-07
-5.38874e-08
-4.33808e-07
-5.78095e-08
-4.18814e-07
-6.14936e-08
-4.03023e-07
-6.49146e-08
-3.86498e-07
-6.80489e-08
-3.69312e-07
-7.08742e-08
-3.51537e-07
-7.33703e-08
-3.33253e-07
-7.55192e-08
-3.1454e-07
-7.73048e-08
-2.95484e-07
-7.8714e-08
-2.76172e-07
-7.9736e-08
-2.56691e-07
-8.03633e-08
-2.37132e-07
-8.0591e-08
-2.17585e-07
-8.04174e-08
-1.98141e-07
-7.98441e-08
-1.78889e-07
-7.88758e-08
-1.59917e-07
-7.75203e-08
-1.41312e-07
-7.57886e-08
-1.23157e-07
-7.36948e-08
-1.05532e-07
-7.1256e-08
-8.85134e-08
-6.84917e-08
-7.21735e-08
-6.54244e-08
-5.6579e-08
-6.20787e-08
-4.17909e-08
-5.84813e-08
-2.78647e-08
-5.46607e-08
-1.48492e-08
-5.06468e-08
-2.78666e-09
-4.64709e-08
8.28775e-09
-4.21649e-08
1.8346e-08
-3.77612e-08
2.73674e-08
-3.32925e-08
3.53387e-08
-2.87915e-08
4.22542e-08
-2.42902e-08
4.81157e-08
-1.98205e-08
5.29321e-08
-1.54132e-08
5.672e-08
-1.10983e-08
5.9503e-08
-6.90503e-09
6.13117e-08
-2.86154e-09
6.21837e-08
1.0047e-09
6.21635e-08
4.6668e-09
6.13024e-08
8.09853e-09
5.96577e-08
1.12736e-08
5.72938e-08
1.41648e-08
5.42817e-08
1.6745e-08
5.06988e-08
1.89851e-08
4.66293e-08
2.08546e-08
4.21644e-08
2.23206e-08
3.7402e-08
2.33482e-08
3.24467e-08
2.38999e-08
2.74102e-08
2.39368e-08
2.24108e-08
2.34193e-08
1.75732e-08
2.23092e-08
1.30288e-08
2.05737e-08
8.91593e-09
1.81895e-08
5.38209e-09
1.51508e-08
2.58826e-09
1.14775e-08
7.18615e-10
7.22783e-09
2.51435e-09
1.2181e-10
-1.36496e-09
2.9543e-10
-2.87144e-09
3.66598e-10
-3.36493e-09
2.1537e-10
-3.04427e-09
-2.51577e-10
-2.07516e-09
-1.10626e-09
-5.99139e-10
-2.4034e-09
1.26296e-09
-4.18353e-09
3.40956e-09
-6.47555e-09
5.75673e-09
-9.2989e-09
8.23644e-09
-1.26654e-08
1.07948e-08
-1.65809e-08
1.339e-08
-2.10466e-08
1.5991e-08
-2.60603e-08
1.85754e-08
-3.16176e-08
2.1128e-08
-3.77123e-08
2.36395e-08
-4.43372e-08
2.6105e-08
-5.14848e-08
2.85229e-08
-5.91474e-08
3.08939e-08
-6.73173e-08
3.32205e-08
-7.5987e-08
3.55055e-08
-8.51488e-08
3.77522e-08
-9.47955e-08
3.99636e-08
-1.04919e-07
4.21417e-08
-1.15512e-07
4.42879e-08
-1.26566e-07
4.64024e-08
-1.38072e-07
4.84838e-08
-1.50019e-07
5.05296e-08
-1.62395e-07
5.25359e-08
-1.75188e-07
5.44972e-08
-1.88383e-07
5.64068e-08
-2.01961e-07
5.82566e-08
-2.15905e-07
6.00376e-08
-2.30192e-07
6.17392e-08
-2.44798e-07
6.33504e-08
-2.59696e-07
6.48588e-08
-2.74857e-07
6.62517e-08
-2.90246e-07
6.75157e-08
-3.0583e-07
6.8637e-08
-3.21568e-07
6.96013e-08
-3.37421e-07
7.03944e-08
-3.53344e-07
7.1002e-08
-3.69289e-07
7.141e-08
-3.85207e-07
7.16048e-08
-4.01048e-07
7.15728e-08
-4.16755e-07
7.13014e-08
-4.32274e-07
7.07787e-08
-4.47546e-07
6.99937e-08
-4.62513e-07
6.89364e-08
-4.77113e-07
6.7598e-08
-4.91286e-07
6.59712e-08
-5.04969e-07
6.405e-08
-5.18102e-07
6.18302e-08
-5.30621e-07
5.9309e-08
-5.42466e-07
5.64858e-08
-5.53577e-07
5.33617e-08
-5.63896e-07
4.99397e-08
-5.73364e-07
4.62251e-08
-5.81929e-07
4.22251e-08
-5.89537e-07
3.79492e-08
-5.9614e-07
3.34091e-08
-6.01691e-07
2.86185e-08
-6.0615e-07
2.35933e-08
-6.09477e-07
1.83517e-08
-6.1164e-07
1.29138e-08
-6.12609e-07
7.30175e-09
-6.1236e-07
1.5397e-09
-6.10876e-07
-4.34648e-09
-6.08142e-07
-1.03292e-08
-6.04151e-07
-1.63793e-08
-5.98902e-07
-2.24662e-08
-5.92398e-07
-2.85583e-08
-5.84652e-07
-3.46228e-08
-5.75678e-07
-4.06262e-08
-5.655e-07
-4.65343e-08
-5.54148e-07
-5.23128e-08
-5.41656e-07
-5.79271e-08
-5.28067e-07
-6.33429e-08
-5.13428e-07
-6.85266e-08
-4.97792e-07
-7.34451e-08
-4.81219e-07
-7.80663e-08
-4.63774e-07
-8.23598e-08
-4.45526e-07
-8.62967e-08
-4.26551e-07
-8.98498e-08
-4.06926e-07
-9.29946e-08
-3.86737e-07
-9.57088e-08
-3.66069e-07
-9.79729e-08
-3.45012e-07
-9.97706e-08
-3.23659e-07
-1.01089e-07
-3.02105e-07
-1.01917e-07
-2.80446e-07
-1.0225e-07
-2.58778e-07
-1.02086e-07
-2.37198e-07
-1.01424e-07
-2.15802e-07
-1.00271e-07
-1.94687e-07
-9.86361e-08
-1.73944e-07
-9.65316e-08
-1.53664e-07
-9.39743e-08
-1.33936e-07
-9.09845e-08
-1.14842e-07
-8.75858e-08
-9.64608e-08
-8.38051e-08
-7.88674e-08
-7.96721e-08
-6.21295e-08
-7.52192e-08
-4.63092e-08
-7.0481e-08
-3.14619e-08
-6.54942e-08
-1.7636e-08
-6.02968e-08
-4.87254e-09
-5.49283e-08
6.79505e-09
-4.94288e-08
1.73412e-08
-4.38387e-08
2.67485e-08
-3.81987e-08
3.50073e-08
-3.2549e-08
4.21163e-08
-2.69296e-08
4.80824e-08
-2.13793e-08
5.29203e-08
-1.59363e-08
5.66529e-08
-1.06376e-08
5.93108e-08
-5.51937e-09
6.09321e-08
-6.16641e-10
6.15628e-08
4.03607e-09
6.12567e-08
8.40464e-09
6.00747e-08
1.24556e-08
5.80843e-08
1.61552e-08
5.53607e-08
1.94685e-08
5.19865e-08
2.23593e-08
4.80512e-08
2.47898e-08
4.36517e-08
2.67201e-08
3.8892e-08
2.81079e-08
3.3883e-08
2.89089e-08
2.87432e-08
2.90766e-08
2.3598e-08
2.85644e-08
1.85805e-08
2.73267e-08
1.38319e-08
2.53223e-08
9.50293e-09
2.25184e-08
5.75738e-09
1.88963e-08
2.77722e-09
1.44576e-08
7.728e-10
9.23226e-09
3.28715e-09
5.5097e-11
-1.42005e-09
4.80627e-11
-2.86441e-09
-1.61234e-10
-3.15564e-09
-6.82535e-10
-2.52297e-09
-1.60112e-09
-1.15658e-09
-2.98229e-09
7.82037e-10
-4.87508e-09
3.15574e-09
-7.31519e-09
5.84966e-09
-1.03275e-08
8.76905e-09
-1.39283e-08
1.18372e-08
-1.81267e-08
1.49932e-08
-2.29268e-08
1.81901e-08
-2.83284e-08
2.13926e-08
-3.43285e-08
2.45754e-08
-4.09217e-08
2.77213e-08
-4.81017e-08
3.08195e-08
-5.5861e-08
3.38643e-08
-6.4192e-08
3.68538e-08
-7.30866e-08
3.97886e-08
-8.25371e-08
4.26709e-08
-9.25353e-08
4.55038e-08
-1.03073e-07
4.82903e-08
-1.14143e-07
5.10333e-08
-1.25736e-07
5.37345e-08
-1.37843e-07
5.63947e-08
-1.50454e-07
5.90132e-08
-1.63557e-07
6.15875e-08
-1.77142e-07
6.41138e-08
-1.91192e-07
6.65865e-08
-2.05693e-07
6.89981e-08
-2.20626e-07
7.134e-08
-2.35971e-07
7.36016e-08
-2.51705e-07
7.57711e-08
-2.67801e-07
7.78356e-08
-2.84232e-07
7.97808e-08
-3.00965e-07
8.15917e-08
-3.17965e-07
8.32523e-08
-3.35195e-07
8.4746e-08
-3.52614e-07
8.6056e-08
-3.70178e-07
8.71651e-08
-3.8784e-07
8.80559e-08
-4.05549e-07
8.87112e-08
-4.23253e-07
8.91143e-08
-4.40897e-07
8.92487e-08
-4.58423e-07
8.90987e-08
-4.75771e-07
8.86495e-08
-4.9288e-07
8.78873e-08
-5.09686e-07
8.67994e-08
-5.26124e-07
8.53745e-08
-5.42129e-07
8.36031e-08
-5.57635e-07
8.14772e-08
-5.72575e-07
7.89906e-08
-5.86884e-07
7.61391e-08
-6.00496e-07
7.29208e-08
-6.13346e-07
6.93359e-08
-6.25371e-07
6.53868e-08
-6.3651e-07
6.10785e-08
-6.46703e-07
5.64183e-08
-6.55894e-07
5.14162e-08
-6.6403e-07
4.60845e-08
-6.71059e-07
4.04383e-08
-6.76935e-07
3.4495e-08
-6.81617e-07
2.82747e-08
-6.85065e-07
2.17997e-08
-6.87246e-07
1.50951e-08
-6.88132e-07
8.18787e-09
-6.877e-07
1.1074e-09
-6.85931e-07
-6.11493e-09
-6.82815e-07
-1.34458e-08
-6.78344e-07
-2.08503e-08
-6.72518e-07
-2.82917e-08
-6.65345e-07
-3.57322e-08
-6.56835e-07
-4.31327e-08
-6.47007e-07
-5.04535e-08
-6.35888e-07
-5.76539e-08
-6.23507e-07
-6.46933e-08
-6.09904e-07
-7.15307e-08
-5.95121e-07
-7.81257e-08
-5.79209e-07
-8.44382e-08
-5.62225e-07
-9.04292e-08
-5.44231e-07
-9.60609e-08
-5.25293e-07
-1.01297e-07
-5.05486e-07
-1.06104e-07
-4.84888e-07
-1.10448e-07
-4.63581e-07
-1.14302e-07
-4.41652e-07
-1.17638e-07
-4.19192e-07
-1.20433e-07
-3.96296e-07
-1.22667e-07
-3.73061e-07
-1.24324e-07
-3.49585e-07
-1.25393e-07
-3.25971e-07
-1.25865e-07
-3.0232e-07
-1.25737e-07
-2.78734e-07
-1.25009e-07
-2.55317e-07
-1.23689e-07
-2.32168e-07
-1.21785e-07
-2.09388e-07
-1.19312e-07
-1.87074e-07
-1.16289e-07
-1.6532e-07
-1.12739e-07
-1.44215e-07
-1.0869e-07
-1.23846e-07
-1.04174e-07
-1.04294e-07
-9.92245e-08
-8.56328e-08
-9.38802e-08
-6.79319e-08