/*--------------------------------*- C++ -*----------------------------------*\
  =========                 |
  \\      /  F ield         | OpenFOAM: The Open Source CFD Toolbox
   \\    /   O peration     | Website:  https://openfoam.org
    \\  /    A nd           | Version:  12
     \\/     M anipulation  |
\*---------------------------------------------------------------------------*/
FoamFile
{
    format      ascii;
    class       volVectorField;
    location    "8";
    object      U;
}
// * * * * * * * * * * * * * * * * * * * * * * * * * * * * * * * * * * * * * //

dimensions      [0 1 -1 0 0 0 0];

internalField   nonuniform List<vector> 
18225
(
(2.5086e-07 -2.53003e-07 0)
(1.14561e-05 -3.58072e-06 0)
(3.45241e-05 -6.01622e-06 0)
(6.49185e-05 -7.07931e-06 0)
(9.74586e-05 -7.22658e-06 0)
(0.000128532 -6.78066e-06 0)
(0.000155708 -5.96664e-06 0)
(0.000177365 -4.94274e-06 0)
(0.000192483 -3.81475e-06 0)
(0.00020048 -2.65107e-06 0)
(0.000201084 -1.4953e-06 0)
(0.00019424 -3.74015e-07 0)
(0.000180033 6.97813e-07 0)
(0.000158645 1.71275e-06 0)
(0.000130309 2.66922e-06 0)
(9.52817e-05 3.56974e-06 0)
(5.38229e-05 4.41774e-06 0)
(6.18062e-06 5.21912e-06 0)
(-4.74178e-05 5.98043e-06 0)
(-0.000106775 6.70972e-06 0)
(-0.000171722 7.41434e-06 0)
(-0.000242124 8.10096e-06 0)
(-0.000317872 8.77527e-06 0)
(-0.000398885 9.44267e-06 0)
(-0.000485106 1.01078e-05 0)
(-0.000576495 1.07744e-05 0)
(-0.000673028 1.14452e-05 0)
(-0.000774688 1.21222e-05 0)
(-0.000881464 1.28063e-05 0)
(-0.000993342 1.34978e-05 0)
(-0.0011103 1.41962e-05 0)
(-0.00123231 1.48999e-05 0)
(-0.00135932 1.56071e-05 0)
(-0.00149127 1.63151e-05 0)
(-0.00162806 1.70206e-05 0)
(-0.00176958 1.77198e-05 0)
(-0.00191569 1.84085e-05 0)
(-0.00206619 1.90819e-05 0)
(-0.00222087 1.97349e-05 0)
(-0.00237947 2.0362e-05 0)
(-0.00254171 2.09571e-05 0)
(-0.00270725 2.15143e-05 0)
(-0.0028757 2.2027e-05 0)
(-0.00304664 2.24886e-05 0)
(-0.0032196 2.28921e-05 0)
(-0.00339408 2.32306e-05 0)
(-0.00356951 2.34971e-05 0)
(-0.0037453 2.36843e-05 0)
(-0.0039208 2.37852e-05 0)
(-0.00409533 2.37929e-05 0)
(-0.00426815 2.37004e-05 0)
(-0.00443853 2.35014e-05 0)
(-0.00460565 2.31896e-05 0)
(-0.00476869 2.27592e-05 0)
(-0.0049268 2.2205e-05 0)
(-0.00507912 2.15224e-05 0)
(-0.00522475 2.07075e-05 0)
(-0.00536279 1.97571e-05 0)
(-0.00549233 1.86693e-05 0)
(-0.00561248 1.74427e-05 0)
(-0.00572234 1.60774e-05 0)
(-0.00582104 1.45746e-05 0)
(-0.00590771 1.29367e-05 0)
(-0.00598155 1.11676e-05 0)
(-0.00604176 9.27195e-06 0)
(-0.00608762 7.2531e-06 0)
(-0.00611847 5.11969e-06 0)
(-0.00613364 2.90483e-06 0)
(-0.00613274 5.7556e-07 0)
(-0.00611517 -1.82029e-06 0)
(-0.00608064 -4.28333e-06 0)
(-0.00602888 -6.79605e-06 0)
(-0.00595973 -9.34162e-06 0)
(-0.00587315 -1.19025e-05 0)
(-0.00576919 -1.44602e-05 0)
(-0.00564806 -1.69953e-05 0)
(-0.00551004 -1.94877e-05 0)
(-0.00535559 -2.19172e-05 0)
(-0.00518525 -2.4263e-05 0)
(-0.00499971 -2.65046e-05 0)
(-0.00479978 -2.86218e-05 0)
(-0.00458636 -3.0595e-05 0)
(-0.00436051 -3.24055e-05 0)
(-0.00412336 -3.40355e-05 0)
(-0.00387616 -3.54689e-05 0)
(-0.00362023 -3.66912e-05 0)
(-0.00335699 -3.76895e-05 0)
(-0.00308792 -3.84535e-05 0)
(-0.00281454 -3.89747e-05 0)
(-0.00253844 -3.92476e-05 0)
(-0.00226121 -3.92689e-05 0)
(-0.00198447 -3.90381e-05 0)
(-0.00170982 -3.85574e-05 0)
(-0.00143884 -3.78318e-05 0)
(-0.0011731 -3.68688e-05 0)
(-0.000914083 -3.56786e-05 0)
(-0.000663234 -3.42735e-05 0)
(-0.000421908 -3.26685e-05 0)
(-0.000191373 -3.08802e-05 0)
(2.72091e-05 -2.8927e-05 0)
(0.000232785 -2.68288e-05 0)
(0.000424424 -2.46068e-05 0)
(0.000601324 -2.22832e-05 0)
(0.000762805 -1.98758e-05 0)
(0.000908331 -1.74099e-05 0)
(0.00103751 -1.49093e-05 0)
(0.00115006 -1.23936e-05 0)
(0.00124585 -9.88306e-06 0)
(0.00132488 -7.39701e-06 0)
(0.00138727 -4.95352e-06 0)
(0.00143324 -2.56907e-06 0)
(0.00146315 -2.58713e-07 0)
(0.00147744 1.96418e-06 0)
(0.00147666 4.08709e-06 0)
(0.00146144 6.10068e-06 0)
(0.00143249 7.99787e-06 0)
(0.00139061 9.76805e-06 0)
(0.00133665 1.1404e-05 0)
(0.00127155 1.28983e-05 0)
(0.00119632 1.42423e-05 0)
(0.00111207 1.54262e-05 0)
(0.00101998 1.64366e-05 0)
(0.000921353 1.72563e-05 0)
(0.000817618 1.78614e-05 0)
(0.000710383 1.82196e-05 0)
(0.000601455 1.82867e-05 0)
(0.000492904 1.8003e-05 0)
(0.000387114 1.72888e-05 0)
(0.000286846 1.60391e-05 0)
(0.000195304 1.41213e-05 0)
(0.00011615 1.13819e-05 0)
(5.3435e-05 7.66527e-06 0)
(1.12011e-05 2.88663e-06 0)
(-7.91238e-06 -2.47307e-06 0)
(-5.59049e-06 -5.59166e-06 0)
(3.61211e-06 -1.14806e-05 0)
(3.61104e-05 -3.59776e-05 0)
(9.06123e-05 -5.324e-05 0)
(0.00015814 -6.11986e-05 0)
(0.000228402 -6.14631e-05 0)
(0.000293795 -5.60547e-05 0)
(0.000348748 -4.66889e-05 0)
(0.000389263 -3.47005e-05 0)
(0.000412625 -2.10915e-05 0)
(0.000417126 -6.59265e-06 0)
(0.000401821 8.27319e-06 0)
(0.00036632 2.31495e-05 0)
(0.000310635 3.77921e-05 0)
(0.000235045 5.205e-05 0)
(0.000140001 6.58398e-05 0)
(2.60498e-05 7.91288e-05 0)
(-0.000106229 9.19242e-05 0)
(-0.000256258 0.000104256 0)
(-0.000423502 0.000116172 0)
(-0.000607463 0.000127725 0)
(-0.000807709 0.000138973 0)
(-0.00102388 0.000149974 0)
(-0.00125566 0.000160783 0)
(-0.00150283 0.000171449 0)
(-0.00176518 0.000182014 0)
(-0.00204258 0.000192508 0)
(-0.00233489 0.000202953 0)
(-0.00264201 0.000213361 0)
(-0.00296384 0.000223733 0)
(-0.00330026 0.00023406 0)
(-0.00365112 0.000244324 0)
(-0.00401626 0.000254498 0)
(-0.00439545 0.000264545 0)
(-0.0047884 0.000274421 0)
(-0.00519476 0.000284074 0)
(-0.0056141 0.000293446 0)
(-0.00604589 0.000302473 0)
(-0.00648953 0.000311083 0)
(-0.00694428 0.000319204 0)
(-0.00740934 0.000326755 0)
(-0.00788376 0.000333655 0)
(-0.0083665 0.000339819 0)
(-0.00885638 0.000345159 0)
(-0.00935212 0.000349586 0)
(-0.0098523 0.000353011 0)
(-0.0103554 0.000355345 0)
(-0.0108598 0.0003565 0)
(-0.0113637 0.000356389 0)
(-0.0118652 0.000354928 0)
(-0.0123624 0.000352038 0)
(-0.0128532 0.000347642 0)
(-0.0133354 0.000341671 0)
(-0.0138068 0.000334061 0)
(-0.014265 0.000324758 0)
(-0.0147077 0.000313715 0)
(-0.0151324 0.000300895 0)
(-0.0155368 0.000286273 0)
(-0.0159183 0.000269835 0)
(-0.0162744 0.00025158 0)
(-0.0166028 0.000231521 0)
(-0.0169011 0.000209686 0)
(-0.0171668 0.000186119 0)
(-0.0173977 0.000160878 0)
(-0.0175917 0.000134038 0)
(-0.0177468 0.000105689 0)
(-0.0178611 7.59269e-05 0)
(-0.0179328 4.48615e-05 0)
(-0.0179604 1.28286e-05 0)
(-0.0179427 -2.03224e-05 0)
(-0.0178785 -5.42395e-05 0)
(-0.0177671 -8.87581e-05 0)
(-0.0176078 -0.000123679 0)
(-0.0174003 -0.000158789 0)
(-0.0171447 -0.000193861 0)
(-0.0168413 -0.000228661 0)
(-0.0164907 -0.000262948 0)
(-0.0160939 -0.000296475 0)
(-0.0156521 -0.000328994 0)
(-0.015167 -0.000360256 0)
(-0.0146406 -0.000390017 0)
(-0.0140749 -0.000418036 0)
(-0.0134727 -0.000444082 0)
(-0.0128366 -0.000467936 0)
(-0.01217 -0.000489393 0)
(-0.011476 -0.000508265 0)
(-0.0107584 -0.000524383 0)
(-0.0100208 -0.000537603 0)
(-0.00926741 -0.000547801 0)
(-0.00850218 -0.000554884 0)
(-0.00772937 -0.000558786 0)
(-0.00695326 -0.000559468 0)
(-0.00617816 -0.000556924 0)
(-0.00540838 -0.000551178 0)
(-0.00464818 -0.000542285 0)
(-0.0039017 -0.00053033 0)
(-0.00317301 -0.000515428 0)
(-0.00246596 -0.00049772 0)
(-0.00178423 -0.000477376 0)
(-0.00113128 -0.000454588 0)
(-0.000510281 -0.000429568 0)
(7.58664e-05 -0.000402549 0)
(0.000624574 -0.000373776 0)
(0.00113358 -0.000343505 0)
(0.00160097 -0.000312007 0)
(0.00202518 -0.000279551 0)
(0.00240499 -0.000246405 0)
(0.00273955 -0.000212837 0)
(0.00302837 -0.00017911 0)
(0.00327128 -0.000145478 0)
(0.00346848 -0.000112183 0)
(0.00362048 -7.9455e-05 0)
(0.00372808 -4.75112e-05 0)
(0.0037924 -1.65522e-05 0)
(0.00381482 1.32374e-05 0)
(0.00379699 4.16691e-05 0)
(0.0037408 6.86058e-05 0)
(0.00364836 9.38816e-05 0)
(0.00352203 0.00011734 0)
(0.00336438 0.000138829 0)
(0.00317823 0.000158186 0)
(0.00296665 0.000175229 0)
(0.00273296 0.000189751 0)
(0.00248082 0.000201503 0)
(0.00221425 0.000210181 0)
(0.0019377 0.000215415 0)
(0.00165611 0.00021675 0)
(0.00137502 0.000213634 0)
(0.00110066 0.000205406 0)
(0.000839977 0.00019131 0)
(0.000600681 0.000170551 0)
(0.000391104 0.000142443 0)
(0.000219806 0.000106783 0)
(9.47175e-05 6.47269e-05 0)
(2.1328e-05 2.1294e-05 0)
(-2.47094e-06 -7.91548e-06 0)
(6.1202e-06 -3.47314e-05 0)
(5.37195e-05 -9.06146e-05 0)
(0.00012698 -0.000126408 0)
(0.000213721 -0.000141554 0)
(0.000300719 -0.000139394 0)
(0.00037825 -0.000123916 0)
(0.000438919 -9.87189e-05 0)
(0.000477188 -6.67726e-05 0)
(0.00048912 -3.04194e-05 0)
(0.000472102 8.55535e-06 0)
(0.000424568 4.88237e-05 0)
(0.000345753 8.94265e-05 0)
(0.000235476 0.000129699 0)
(9.39701e-05 0.000169205 0)
(-7.82594e-05 0.000207686 0)
(-0.000280539 0.000245017 0)
(-0.000512108 0.000281168 0)
(-0.000772185 0.000316182 0)
(-0.00106001 0.000350144 0)
(-0.00137489 0.000383173 0)
(-0.0017162 0.0004154 0)
(-0.00208338 0.00044696 0)
(-0.00247598 0.000477978 0)
(-0.00289359 0.000508568 0)
(-0.0033359 0.000538822 0)
(-0.00380261 0.00056881 0)
(-0.00429347 0.000598577 0)
(-0.00480824 0.000628141 0)
(-0.00534667 0.000657495 0)
(-0.00590847 0.000686604 0)
(-0.00649333 0.000715408 0)
(-0.00710085 0.000743821 0)
(-0.00773056 0.000771736 0)
(-0.00838189 0.000799025 0)
(-0.00905413 0.000825538 0)
(-0.00974649 0.000851109 0)
(-0.010458 0.000875555 0)
(-0.0111875 0.00089868 0)
(-0.0119338 0.000920273 0)
(-0.0126954 0.000940117 0)
(-0.0134707 0.000957982 0)
(-0.014258 0.000973635 0)
(-0.0150551 0.000986836 0)
(-0.0158599 0.000997345 0)
(-0.0166702 0.00100492 0)
(-0.0174833 0.00100932 0)
(-0.0182966 0.00101032 0)
(-0.0191071 0.00100768 0)
(-0.0199119 0.00100118 0)
(-0.0207077 0.000990627 0)
(-0.0214912 0.000975818 0)
(-0.0222589 0.000956583 0)
(-0.0230073 0.000932767 0)
(-0.0237326 0.000904237 0)
(-0.0244312 0.00087089 0)
(-0.0250992 0.000832648 0)
(-0.0257329 0.000789463 0)
(-0.0263284 0.000741325 0)
(-0.0268819 0.000688255 0)
(-0.0273898 0.000630314 0)
(-0.0278482 0.000567603 0)
(-0.0282538 0.000500264 0)
(-0.0286032 0.00042848 0)
(-0.028893 0.000352479 0)
(-0.0291204 0.000272531 0)
(-0.0292826 0.000188942 0)
(-0.029377 0.000102073 0)
(-0.0294016 1.23808e-05 0)
(-0.0293544 -7.9753e-05 0)
(-0.029234 -0.000173845 0)
(-0.0290393 -0.000269367 0)
(-0.0287697 -0.000365765 0)
(-0.0284247 -0.000462459 0)
(-0.0280048 -0.000558841 0)
(-0.0275104 -0.000654285 0)
(-0.0269428 -0.000748147 0)
(-0.0263035 -0.000839776 0)
(-0.0255948 -0.000928515 0)
(-0.024819 -0.00101371 0)
(-0.0239794 -0.00109472 0)
(-0.0230794 -0.00117092 0)
(-0.0221231 -0.0012417 0)
(-0.0211147 -0.00130649 0)
(-0.0200592 -0.00136476 0)
(-0.0189616 -0.00141603 0)
(-0.0178276 -0.00145985 0)
(-0.0166628 -0.00149585 0)
(-0.0154734 -0.00152372 0)
(-0.0142656 -0.0015432 0)
(-0.0130458 -0.00155413 0)
(-0.0118206 -0.0015564 0)
(-0.0105964 -0.00155 0)
(-0.00937985 -0.00153499 0)
(-0.00817741 -0.0015115 0)
(-0.00699543 -0.00147976 0)
(-0.00584006 -0.00144006 0)
(-0.00471725 -0.00139276 0)
(-0.00363265 -0.00133829 0)
(-0.00259156 -0.00127717 0)
(-0.00159892 -0.00120993 0)
(-0.000659244 -0.00113718 0)
(0.000223404 -0.00105956 0)
(0.00104545 -0.000977752 0)
(0.00180381 -0.000892454 0)
(0.00249594 -0.000804378 0)
(0.00311981 -0.000714241 0)
(0.00367396 -0.000622763 0)
(0.00415743 -0.000530647 0)
(0.0045698 -0.000438583 0)
(0.0049112 -0.000347233 0)
(0.00518221 -0.000257234 0)
(0.00538395 -0.000169187 0)
(0.00551796 -8.36614e-05 0)
(0.00558624 -1.19415e-06 0)
(0.00559123 7.77121e-05 0)
(0.00553575 0.000152586 0)
(0.00542302 0.000222963 0)
(0.00525663 0.000288386 0)
(0.00504057 0.000348396 0)
(0.00477922 0.000402511 0)
(0.00447734 0.000450206 0)
(0.00414016 0.000490893 0)
(0.0037734 0.000523892 0)
(0.0033833 0.000548406 0)
(0.00297673 0.000563492 0)
(0.00256127 0.000568042 0)
(0.00214524 0.000560769 0)
(0.00173781 0.000540223 0)
(0.00134901 0.000504856 0)
(0.000989604 0.000453207 0)
(0.000670853 0.000384289 0)
(0.000403891 0.000298386 0)
(0.000198966 0.000198639 0)
(6.49176e-05 9.473e-05 0)
(2.90508e-06 1.12393e-05 0)
(7.27824e-06 -6.55367e-05 0)
(6.20109e-05 -0.000158548 0)
(0.000142467 -0.000213276 0)
(0.000233834 -0.000233185 0)
(0.000320879 -0.000224215 0)
(0.000392629 -0.000192654 0)
(0.00044067 -0.000144222 0)
(0.00045857 -8.37595e-05 0)
(0.000441632 -1.51881e-05 0)
(0.000386638 5.84156e-05 0)
(0.000291569 0.000134706 0)
(0.000155332 0.000211952 0)
(-2.24527e-05 0.000288919 0)
(-0.000241648 0.000364769 0)
(-0.000501759 0.00043898 0)
(-0.000802064 0.00051127 0)
(-0.00114172 0.000581541 0)
(-0.00151983 0.000649827 0)
(-0.00193552 0.000716252 0)
(-0.00238794 0.000780998 0)
(-0.00287632 0.000844275 0)
(-0.00339999 0.000906299 0)
(-0.00395832 0.000967277 0)
(-0.00455079 0.00102739 0)
(-0.00517692 0.00108679 0)
(-0.00583629 0.00114559 0)
(-0.00652847 0.00120384 0)
(-0.00725306 0.00126156 0)
(-0.00800963 0.00131871 0)
(-0.00879767 0.00137522 0)
(-0.00961663 0.00143095 0)
(-0.0104658 0.00148572 0)
(-0.0113445 0.00153932 0)
(-0.0122518 0.00159149 0)
(-0.0131865 0.00164193 0)
(-0.0141474 0.00169032 0)
(-0.015133 0.0017363 0)
(-0.0161417 0.00177949 0)
(-0.0171716 0.00181948 0)
(-0.0182206 0.00185585 0)
(-0.0192863 0.00188816 0)
(-0.0203663 0.00191597 0)
(-0.0214576 0.00193883 0)
(-0.0225572 0.00195628 0)
(-0.0236618 0.00196786 0)
(-0.0247679 0.00197313 0)
(-0.0258717 0.00197167 0)
(-0.0269693 0.00196304 0)
(-0.0280566 0.00194685 0)
(-0.0291291 0.00192273 0)
(-0.0301824 0.00189034 0)
(-0.0312119 0.00184938 0)
(-0.0322127 0.00179957 0)
(-0.0331799 0.00174071 0)
(-0.0341087 0.00167262 0)
(-0.034994 0.0015952 0)
(-0.0358308 0.00150839 0)
(-0.0366143 0.0014122 0)
(-0.0373394 0.00130672 0)
(-0.0380014 0.00119211 0)
(-0.0385956 0.00106858 0)
(-0.0391176 0.00093644 0)
(-0.039563 0.000796078 0)
(-0.0399278 0.000647952 0)
(-0.0402084 0.000492605 0)
(-0.0404012 0.000330655 0)
(-0.0405035 0.000162809 0)
(-0.0405124 -1.01292e-05 0)
(-0.0404258 -0.000187343 0)
(-0.0402421 -0.000367917 0)
(-0.0399601 -0.000550862 0)
(-0.0395791 -0.000735138 0)
(-0.039099 -0.000919651 0)
(-0.0385202 -0.00110327 0)
(-0.037844 -0.00128483 0)
(-0.0370718 -0.00146313 0)
(-0.036206 -0.00163697 0)
(-0.0352495 -0.00180515 0)
(-0.0342057 -0.00196645 0)
(-0.0330788 -0.0021197 0)
(-0.0318733 -0.00226376 0)
(-0.0305945 -0.00239752 0)
(-0.0292481 -0.00251994 0)
(-0.0278403 -0.00263005 0)
(-0.0263778 -0.00272696 0)
(-0.0248677 -0.00280988 0)
(-0.0233176 -0.00287812 0)
(-0.0217351 -0.00293111 0)
(-0.0201282 -0.0029684 0)
(-0.0185053 -0.00298966 0)
(-0.0168746 -0.00299472 0)
(-0.0152445 -0.00298355 0)
(-0.0136235 -0.00295623 0)
(-0.0120198 -0.00291302 0)
(-0.0104417 -0.00285432 0)
(-0.00889705 -0.00278063 0)
(-0.00739356 -0.00269264 0)
(-0.00593854 -0.00259111 0)
(-0.00453892 -0.00247696 0)
(-0.00320115 -0.00235118 0)
(-0.00193117 -0.00221487 0)
(-0.000734366 -0.00206921 0)
(0.000384488 -0.00191544 0)
(0.00142124 -0.00175485 0)
(0.00237238 -0.00158874 0)
(0.0032351 -0.00141847 0)
(0.00400725 -0.00124535 0)
(0.00468737 -0.00107072 0)
(0.0052747 -0.000895876 0)
(0.00576913 -0.000722071 0)
(0.00617123 -0.000550519 0)
(0.00648221 -0.000382383 0)
(0.00670387 -0.00021876 0)
(0.00683864 -6.0705e-05 0)
(0.00688952 9.07839e-05 0)
(0.00686007 0.00023476 0)
(0.00675437 0.000370302 0)
(0.00657704 0.000496496 0)
(0.00633324 0.00061242 0)
(0.00602863 0.000717114 0)
(0.00566947 0.000809553 0)
(0.00526256 0.00088861 0)
(0.00481535 0.000953008 0)
(0.00433598 0.00100129 0)
(0.00383329 0.0010318 0)
(0.00331697 0.00104261 0)
(0.00279754 0.00103159 0)
(0.00228638 0.000996427 0)
(0.00179574 0.000934785 0)
(0.00133856 0.000844618 0)
(0.000928128 0.000724793 0)
(0.000577544 0.0005762 0)
(0.000299432 0.00040372 0)
(0.000107287 0.000220122 0)
(7.71993e-06 5.36386e-05 0)
(7.51005e-06 -9.86535e-05 0)
(6.22756e-05 -0.000229178 0)
(0.000139589 -0.000300024 0)
(0.00022287 -0.000319961 0)
(0.00029569 -0.000298285 0)
(0.000346358 -0.000243914 0)
(0.00036594 -0.000164833 0)
(0.000347563 -6.78442e-05 0)
(0.00028615 4.14612e-05 0)
(0.000178153 0.000158625 0)
(2.12806e-05 0.000280191 0)
(-0.000185761 0.000403556 0)
(-0.000443494 0.00052683 0)
(-0.000751869 0.000648706 0)
(-0.00111043 0.00076834 0)
(-0.00151847 0.000885254 0)
(-0.00197509 0.000999248 0)
(-0.00247936 0.00111032 0)
(-0.0030303 0.00121862 0)
(-0.003627 0.00132438 0)
(-0.00426859 0.00142789 0)
(-0.00495427 0.00152942 0)
(-0.00568331 0.00162928 0)
(-0.00645504 0.0017277 0)
(-0.00726886 0.00182488 0)
(-0.00812418 0.00192095 0)
(-0.0090204 0.00201598 0)
(-0.00995693 0.00210995 0)
(-0.0109331 0.00220279 0)
(-0.0119482 0.00229433 0)
(-0.0130013 0.00238434 0)
(-0.0140915 0.00247251 0)
(-0.0152177 0.00255848 0)
(-0.0163784 0.00264181 0)
(-0.0175722 0.00272201 0)
(-0.0187973 0.00279855 0)
(-0.0200518 0.00287085 0)
(-0.0213333 0.00293828 0)
(-0.0226393 0.00300019 0)
(-0.023967 0.0030559 0)
(-0.0253134 0.00310472 0)
(-0.0266751 0.00314593 0)
(-0.0280483 0.00317882 0)
(-0.0294292 0.00320267 0)
(-0.0308136 0.00321676 0)
(-0.0321969 0.00322041 0)
(-0.0335744 0.00321295 0)
(-0.0349412 0.00319373 0)
(-0.036292 0.00316215 0)
(-0.0376213 0.00311766 0)
(-0.0389237 0.00305974 0)
(-0.0401934 0.00298796 0)
(-0.0414245 0.00290193 0)
(-0.042611 0.00280137 0)
(-0.0437471 0.00268606 0)
(-0.0448266 0.00255587 0)
(-0.0458435 0.00241078 0)
(-0.046792 0.00225086 0)
(-0.0476663 0.0020763 0)
(-0.0484606 0.0018874 0)
(-0.0491694 0.00168457 0)
(-0.0497877 0.00146835 0)
(-0.0503104 0.00123939 0)
(-0.0507329 0.000998465 0)
(-0.0510509 0.000746483 0)
(-0.0512608 0.00048446 0)
(-0.051359 0.00021354 0)
(-0.0513429 -6.50144e-05 0)
(-0.0512099 -0.000349859 0)
(-0.0509585 -0.000639534 0)
(-0.0505873 -0.000932482 0)
(-0.0500961 -0.00122706 0)
(-0.0494847 -0.00152157 0)
(-0.0487542 -0.00181422 0)
(-0.047906 -0.00210321 0)
(-0.0469422 -0.00238668 0)
(-0.0458657 -0.00266277 0)
(-0.0446803 -0.00292961 0)
(-0.04339 -0.00318535 0)
(-0.042 -0.00342818 0)
(-0.0405157 -0.00365633 0)
(-0.0389436 -0.00386813 0)
(-0.0372903 -0.00406197 0)
(-0.0355634 -0.00423636 0)
(-0.0337708 -0.00438996 0)
(-0.0319209 -0.00452155 0)
(-0.0300225 -0.00463006 0)
(-0.0280847 -0.00471464 0)
(-0.0261172 -0.00477457 0)
(-0.0241295 -0.00480938 0)
(-0.0221315 -0.00481878 0)
(-0.0201331 -0.00480269 0)
(-0.0181443 -0.00476127 0)
(-0.0161749 -0.00469487 0)
(-0.0142345 -0.00460409 0)
(-0.0123327 -0.00448971 0)
(-0.0104786 -0.00435272 0)
(-0.00868085 -0.00419433 0)
(-0.00694788 -0.00401589 0)
(-0.00528742 -0.00381893 0)
(-0.00370669 -0.00360514 0)
(-0.00221225 -0.00337631 0)
(-0.000809985 -0.00313436 0)
(0.000494931 -0.00288125 0)
(0.00169809 -0.00261905 0)
(0.00279587 -0.00234982 0)
(0.00378544 -0.00207564 0)
(0.00466478 -0.00179861 0)
(0.00543268 -0.00152075 0)
(0.00608872 -0.00124408 0)
(0.0066333 -0.000970519 0)
(0.00706758 -0.000701938 0)
(0.00739349 -0.000440128 0)
(0.00761372 -0.000186801 0)
(0.00773159 5.64238e-05 0)
(0.00775123 0.000287957 0)
(0.00767739 0.000506279 0)
(0.00751547 0.000709881 0)
(0.00727158 0.000897235 0)
(0.00695245 0.00106677 0)
(0.00656553 0.00121682 0)
(0.00611896 0.0013456 0)
(0.00562159 0.00145111 0)
(0.00508309 0.00153115 0)
(0.00451391 0.00158321 0)
(0.00392541 0.00160454 0)
(0.00332978 0.00159212 0)
(0.00274013 0.00154278 0)
(0.00217036 0.00145344 0)
(0.00163507 0.00132151 0)
(0.00114925 0.00114567 0)
(0.000727903 0.000927084 0)
(0.000386369 0.000671399 0)
(0.00014338 0.000392161 0)
(1.14842e-05 0.000116719 0)
(7.10328e-06 -0.000130224 0)
(5.61907e-05 -0.000294152 0)
(0.000121472 -0.000375677 0)
(0.000185559 -0.000389168 0)
(0.000231662 -0.000347687 0)
(0.000247835 -0.000263025 0)
(0.000224998 -0.000145542 0)
(0.000156182 -4.04706e-06 0)
(3.62255e-05 0.000154181 0)
(-0.000138506 0.000323279 0)
(-0.00037039 0.00049865 0)
(-0.000660796 0.000676789 0)
(-0.00101031 0.00085512 0)
(-0.00141893 0.00103183 0)
(-0.00188623 0.00120572 0)
(-0.00241149 0.00137609 0)
(-0.00299384 0.00154262 0)
(-0.0036323 0.00170525 0)
(-0.00432586 0.00186413 0)
(-0.00507355 0.00201953 0)
(-0.00587442 0.0021718 0)
(-0.00672759 0.0023213 0)
(-0.00763223 0.00246835 0)
(-0.00858757 0.00261327 0)
(-0.00959284 0.00275627 0)
(-0.0106473 0.00289749 0)
(-0.0117502 0.00303697 0)
(-0.0129006 0.00317466 0)
(-0.0140977 0.00331038 0)
(-0.0153405 0.00344387 0)
(-0.0166278 0.00357475 0)
(-0.0179582 0.00370255 0)
(-0.0193302 0.00382671 0)
(-0.020742 0.00394658 0)
(-0.0221917 0.00406143 0)
(-0.0236768 0.00417046 0)
(-0.0251949 0.00427283 0)
(-0.026743 0.00436762 0)
(-0.0283179 0.00445388 0)
(-0.0299162 0.00453063 0)
(-0.0315339 0.00459686 0)
(-0.0331668 0.00465156 0)
(-0.0348106 0.00469371 0)
(-0.0364603 0.00472227 0)
(-0.0381108 0.00473627 0)
(-0.0397567 0.00473472 0)
(-0.0413923 0.0047167 0)
(-0.0430117 0.00468132 0)
(-0.0446086 0.00462776 0)
(-0.0461767 0.00455526 0)
(-0.0477093 0.00446317 0)
(-0.0491998 0.0043509 0)
(-0.0506414 0.00421798 0)
(-0.0520272 0.00406405 0)
(-0.0533502 0.00388888 0)
(-0.0546037 0.00369237 0)
(-0.0557806 0.00347455 0)
(-0.0568745 0.00323562 0)
(-0.0578786 0.0029759 0)
(-0.0587867 0.0026959 0)
(-0.0595926 0.0023963 0)
(-0.0602906 0.00207791 0)
(-0.0608754 0.00174174 0)
(-0.0613417 0.00138897 0)
(-0.0616852 0.00102092 0)
(-0.0619016 0.000639103 0)
(-0.0619876 0.000245179 0)
(-0.06194 -0.000159036 0)
(-0.0617567 -0.000571589 0)
(-0.0614358 -0.00099039 0)
(-0.0609763 -0.00141323 0)
(-0.0603781 -0.00183777 0)
(-0.0596414 -0.00226161 0)
(-0.0587675 -0.00268224 0)
(-0.0577583 -0.00309713 0)
(-0.0566164 -0.00350368 0)
(-0.0553454 -0.00389928 0)
(-0.0539494 -0.00428134 0)
(-0.0524335 -0.00464728 0)
(-0.0508034 -0.00499459 0)
(-0.0490654 -0.00532082 0)
(-0.0472268 -0.00562366 0)
(-0.0452953 -0.00590087 0)
(-0.0432793 -0.00615041 0)
(-0.0411878 -0.00637041 0)
(-0.0390302 -0.00655917 0)
(-0.0368164 -0.00671524 0)
(-0.0345569 -0.0068374 0)
(-0.0322621 -0.00692468 0)
(-0.0299431 -0.00697639 0)
(-0.0276108 -0.00699213 0)
(-0.0252765 -0.00697177 0)
(-0.0229513 -0.00691551 0)
(-0.0206464 -0.00682381 0)
(-0.0183727 -0.00669748 0)
(-0.0161409 -0.00653756 0)
(-0.0139614 -0.00634543 0)
(-0.0118442 -0.00612269 0)
(-0.00979876 -0.00587124 0)
(-0.00783414 -0.00559317 0)
(-0.00595863 -0.00529079 0)
(-0.0041799 -0.0049666 0)
(-0.00250485 -0.00462325 0)
(-0.000939601 -0.00426349 0)
(0.000510542 -0.00389019 0)
(0.00184115 -0.00350625 0)
(0.00304869 -0.00311463 0)
(0.00413052 -0.00271826 0)
(0.00508493 -0.00232005 0)
(0.0059111 -0.00192287 0)
(0.00660914 -0.0015295 0)
(0.00718006 -0.00114263 0)
(0.00762574 -0.000764877 0)
(0.00794893 -0.000398731 0)
(0.00815326 -4.66244e-05 0)
(0.00824313 0.000289131 0)
(0.00822378 0.000606271 0)
(0.00810123 0.00090256 0)
(0.00788229 0.00117574 0)
(0.00757456 0.00142349 0)
(0.00718643 0.00164342 0)
(0.00672709 0.00183296 0)
(0.00620656 0.00198931 0)
(0.00563569 0.00210943 0)
(0.00502625 0.00218996 0)
(0.00439087 0.00222723 0)
(0.00374309 0.00221737 0)
(0.00309734 0.00215634 0)
(0.00246887 0.00204032 0)
(0.0018737 0.00186611 0)
(0.00132841 0.00163195 0)
(0.00084993 0.00133871 0)
(0.000456519 0.00099164 0)
(0.00017198 0.000603047 0)
(1.42718e-05 0.000196488 0)
(6.25135e-06 -0.000157398 0)
(4.51508e-05 -0.000346735 0)
(9.09156e-05 -0.000430997 0)
(0.000126189 -0.000429912 0)
(0.000134605 -0.000360402 0)
(0.000104414 -0.000237227 0)
(2.67246e-05 -7.31744e-05 0)
(-0.000105239 0.000120942 0)
(-0.000296475 0.00033617 0)
(-0.000550493 0.000565265 0)
(-0.000869586 0.000802508 0)
(-0.00125507 0.00104351 0)
(-0.00170751 0.00128499 0)
(-0.00222687 0.00152466 0)
(-0.00281274 0.00176094 0)
(-0.0034644 0.0019929 0)
(-0.00418094 0.00222008 0)
(-0.0049614 0.00244237 0)
(-0.00580473 0.0026599 0)
(-0.00670993 0.00287297 0)
(-0.007676 0.00308195 0)
(-0.00870199 0.00328726 0)
(-0.00978699 0.00348928 0)
(-0.0109301 0.00368832 0)
(-0.0121304 0.00388462 0)
(-0.013387 0.00407829 0)
(-0.0146989 0.00426931 0)
(-0.016065 0.00445755 0)
(-0.0174843 0.00464272 0)
(-0.0189553 0.0048244 0)
(-0.0204764 0.00500205 0)
(-0.0220461 0.00517497 0)
(-0.0236623 0.00534236 0)
(-0.0253227 0.00550332 0)
(-0.0270249 0.00565684 0)
(-0.0287658 0.00580181 0)
(-0.0305424 0.00593707 0)
(-0.0323511 0.00606137 0)
(-0.0341879 0.00617342 0)
(-0.0360487 0.0062719 0)
(-0.0379288 0.00635545 0)
(-0.0398232 0.00642271 0)
(-0.0417266 0.00647233 0)
(-0.0436332 0.00650295 0)
(-0.0455372 0.00651328 0)
(-0.0474321 0.00650204 0)
(-0.0493114 0.00646802 0)
(-0.0511682 0.00641011 0)
(-0.0529954 0.00632724 0)
(-0.0547858 0.0062185 0)
(-0.0565318 0.00608305 0)
(-0.0582259 0.0059202 0)
(-0.0598604 0.00572942 0)
(-0.0614277 0.00551031 0)
(-0.0629201 0.00526265 0)
(-0.0643299 0.00498641 0)
(-0.0656498 0.00468173 0)
(-0.0668723 0.00434896 0)
(-0.0679903 0.00398866 0)
(-0.0689969 0.00360159 0)
(-0.0698858 0.00318873 0)
(-0.0706505 0.00275128 0)
(-0.0712856 0.00229064 0)
(-0.0717855 0.00180846 0)
(-0.0721457 0.00130658 0)
(-0.0723619 0.000787044 0)
(-0.0724304 0.000252119 0)
(-0.0723484 -0.000295752 0)
(-0.0721136 -0.000853946 0)
(-0.0717244 -0.00141967 0)
(-0.0711799 -0.00198999 0)
(-0.0704802 -0.00256183 0)
(-0.0696259 -0.003132 0)
(-0.0686185 -0.00369722 0)
(-0.0674605 -0.00425416 0)
(-0.0661549 -0.00479943 0)
(-0.0647056 -0.00532962 0)
(-0.0631175 -0.00584135 0)
(-0.0613962 -0.00633129 0)
(-0.0595479 -0.00679616 0)
(-0.0575798 -0.00723279 0)
(-0.0554996 -0.00763816 0)
(-0.053316 -0.00800941 0)
(-0.0510381 -0.00834386 0)
(-0.0486757 -0.00863909 0)
(-0.0462391 -0.0088929 0)
(-0.043739 -0.00910339 0)
(-0.0411868 -0.00926898 0)
(-0.0385939 -0.00938838 0)
(-0.0359724 -0.00946069 0)
(-0.0333342 -0.00948536 0)
(-0.0306915 -0.00946219 0)
(-0.0280566 -0.0093914 0)
(-0.0254416 -0.00927357 0)
(-0.0228586 -0.00910968 0)
(-0.0203193 -0.00890107 0)
(-0.0178352 -0.00864948 0)
(-0.0154174 -0.00835697 0)
(-0.0130765 -0.00802593 0)
(-0.0108225 -0.00765908 0)
(-0.00866481 -0.0072594 0)
(-0.00661202 -0.00683012 0)
(-0.00467205 -0.00637467 0)
(-0.00285195 -0.00589665 0)
(-0.00115786 -0.00539981 0)
(0.000404955 -0.00488797 0)
(0.00183224 -0.00436501 0)
(0.0031207 -0.00383484 0)
(0.00426804 -0.00330132 0)
(0.00527299 -0.00276828 0)
(0.00613526 -0.00223947 0)
(0.0068556 -0.00171853 0)
(0.00743574 -0.001209 0)
(0.00787837 -0.000714305 0)
(0.00818718 -0.000237747 0)
(0.00836675 0.000217459 0)
(0.00842265 0.000648194 0)
(0.00836134 0.00105139 0)
(0.00819015 0.00142391 0)
(0.00791731 0.00176263 0)
(0.00755194 0.00206431 0)
(0.00710406 0.0023255 0)
(0.00658457 0.00254254 0)
(0.00600533 0.00271149 0)
(0.00537907 0.00282808 0)
(0.00471947 0.00288775 0)
(0.00404116 0.00288569 0)
(0.00335964 0.00281704 0)
(0.00269132 0.00267712 0)
(0.0020535 0.00246196 0)
(0.0014643 0.00216903 0)
(0.000942607 0.00179827 0)
(0.000509499 0.00135348 0)
(0.000193231 0.000844295 0)
(1.62278e-05 0.000288902 0)
(5.08609e-06 -0.000177982 0)
(3.02159e-05 -0.000381394 0)
(5.02004e-05 -0.000458075 0)
(4.8374e-05 -0.000432648 0)
(9.48061e-06 -0.000325752 0)
(-7.7604e-05 -0.0001551 0)
(-0.000221264 6.41381e-05 0)
(-0.000427821 0.000319183 0)
(-0.000701884 0.000599467 0)
(-0.00104665 0.000896422 0)
(-0.00146417 0.00120326 0)
(-0.00195559 0.00151474 0)
(-0.00252134 0.00182695 0)
(-0.00316132 0.00213709 0)
(-0.00387504 0.00244327 0)
(-0.00466177 0.00274432 0)
(-0.00552059 0.00303964 0)
(-0.00645049 0.00332905 0)
(-0.00745044 0.00361268 0)
(-0.0085194 0.00389082 0)
(-0.00965632 0.00416388 0)
(-0.0108602 0.00443229 0)
(-0.01213 0.00469645 0)
(-0.0134648 0.00495668 0)
(-0.0148635 0.00521317 0)
(-0.0163249 0.00546599 0)
(-0.017848 0.00571504 0)
(-0.0194315 0.00596005 0)
(-0.0210737 0.00620059 0)
(-0.0227731 0.00643604 0)
(-0.0245278 0.00666563 0)
(-0.0263356 0.00688842 0)
(-0.0281941 0.00710333 0)
(-0.0301004 0.00730914 0)
(-0.0320516 0.00750452 0)
(-0.0340441 0.00768802 0)
(-0.0360741 0.00785811 0)
(-0.0381373 0.00801317 0)
(-0.0402293 0.00815154 0)
(-0.0423449 0.00827151 0)
(-0.0444788 0.00837136 0)
(-0.0466251 0.00844936 0)
(-0.0487778 0.00850378 0)
(-0.0509303 0.00853294 0)
(-0.0530758 0.0085352 0)
(-0.0552072 0.008509 0)
(-0.0573169 0.00845285 0)
(-0.0593973 0.00836539 0)
(-0.0614404 0.00824537 0)
(-0.0634382 0.00809166 0)
(-0.0653825 0.00790334 0)
(-0.0672649 0.00767961 0)
(-0.069077 0.00741989 0)
(-0.0708105 0.00712382 0)
(-0.0724572 0.00679122 0)
(-0.0740087 0.00642217 0)
(-0.0754572 0.00601698 0)
(-0.0767947 0.00557621 0)
(-0.0780137 0.0051007 0)
(-0.0791071 0.00459152 0)
(-0.0800679 0.00405003 0)
(-0.0808898 0.00347785 0)
(-0.0815668 0.00287688 0)
(-0.0820935 0.00224926 0)
(-0.0824651 0.00159741 0)
(-0.0826774 0.00092399 0)
(-0.0827267 0.000231914 0)
(-0.0826103 -0.000475687 0)
(-0.0823259 -0.00119547 0)
(-0.0818721 -0.00192389 0)
(-0.0812483 -0.00265724 0)
(-0.0804548 -0.00339164 0)
(-0.0794924 -0.00412309 0)
(-0.0783631 -0.00484749 0)
(-0.0770694 -0.00556066 0)
(-0.0756151 -0.0062584 0)
(-0.0740043 -0.00693646 0)
(-0.0722423 -0.00759064 0)
(-0.0703352 -0.0082168 0)
(-0.0682898 -0.00881087 0)
(-0.0661136 -0.00936895 0)
(-0.0638152 -0.00988726 0)
(-0.0614035 -0.0103623 0)
(-0.0588883 -0.0107907 0)
(-0.0562801 -0.0111694 0)
(-0.0535898 -0.0114958 0)
(-0.0508289 -0.0117675 0)
(-0.0480095 -0.0119824 0)
(-0.0451437 -0.012139 0)
(-0.0422443 -0.0122361 0)
(-0.0393242 -0.012273 0)
(-0.0363963 -0.0122493 0)
(-0.0334738 -0.0121654 0)
(-0.0305698 -0.0120218 0)
(-0.0276971 -0.0118198 0)
(-0.0248686 -0.0115609 0)
(-0.0220966 -0.0112473 0)
(-0.0193932 -0.0108814 0)
(-0.0167699 -0.0104661 0)
(-0.0142378 -0.0100049 0)
(-0.0118071 -0.00950129 0)
(-0.00948757 -0.00895935 0)
(-0.00728791 -0.00838331 0)
(-0.00521609 -0.00777766 0)
(-0.00327914 -0.00714707 0)
(-0.00148309 -0.00649634 0)
(0.00016701 -0.00583035 0)
(0.00166718 -0.00515404 0)
(0.0030145 -0.00447232 0)
(0.00420716 -0.00379007 0)
(0.00524441 -0.0031121 0)
(0.00612664 -0.00244309 0)
(0.00685529 -0.00178763 0)
(0.00743292 -0.00115017 0)
(0.00786312 -0.000535004 0)
(0.00815057 5.36606e-05 0)
(0.00830092 0.000611695 0)
(0.00832089 0.00113506 0)
(0.00821829 0.00161978 0)
(0.00800177 0.00206168 0)
(0.00768092 0.00245666 0)
(0.00726642 0.00280031 0)
(0.00676989 0.00308803 0)
(0.00620392 0.00331493 0)
(0.00558204 0.0034758 0)
(0.00491878 0.00356513 0)
(0.00422963 0.00357719 0)
(0.00353102 0.00350615 0)
(0.00284042 0.00334643 0)
(0.0021763 0.00309305 0)
(0.00155824 0.00274233 0)
(0.00100703 0.00229272 0)
(0.000546244 0.00174579 0)
(0.000207783 0.00110761 0)
(1.74988e-05 0.000390281 0)
(3.69284e-06 -0.000190257 0)