/*--------------------------------*- C++ -*----------------------------------*\
  =========                 |
  \\      /  F ield         | OpenFOAM: The Open Source CFD Toolbox
   \\    /   O peration     | Website:  https://openfoam.org
    \\  /    A nd           | Version:  12
     \\/     M anipulation  |
\*---------------------------------------------------------------------------*/
FoamFile
{
    format      ascii;
    class       volScalarField;
    location    "5.5";
    object      epsilon;
}
// * * * * * * * * * * * * * * * * * * * * * * * * * * * * * * * * * * * * * //

dimensions      [0 2 -3 0 0 0 0];

internalField   nonuniform List<scalar> 
5625
(
4.32349e-07
2.92431e-06
6.50834e-06
1.07676e-05
1.55035e-05
2.05917e-05
2.59484e-05
3.152e-05
3.72791e-05
4.3223e-05
4.93729e-05
5.57724e-05
6.24866e-05
6.96001e-05
7.72161e-05
8.5454e-05
9.44484e-05
0.000104347
0.000115308
0.000127502
0.000141106
0.000156303
0.000173281
0.000192234
0.000213352
0.000236826
0.000262844
0.000291587
0.000323229
0.000357933
0.000395849
0.000437115
0.000481853
0.000530168
0.000582147
0.000637858
0.000697348
0.000760642
0.000827738
0.000898601
0.000973157
0.00105128
0.00113278
0.00121737
0.00130466
0.0013941
0.00148496
0.00157628
0.00166682
0.00175503
0.001839
0.00191641
0.00198452
0.00203994
0.00207748
0.00209434
0.00209503
0.00206818
0.0020123
0.00192715
0.0018136
0.0016742
0.00151342
0.00133747
0.00115376
0.00097014
0.000793961
0.000631262
0.000486187
0.000360784
0.000255184
0.000168122
9.77657e-05
4.29733e-05
6.32966e-06
8.16933e-07
1.59278e-06
3.19118e-06
5.1654e-06
7.38255e-06
9.77423e-06
1.22977e-05
1.49265e-05
1.76471e-05
2.0458e-05
2.33692e-05
2.64011e-05
2.95846e-05
3.29598e-05
3.65755e-05
4.04884e-05
4.47625e-05
4.94682e-05
5.46813e-05
6.04827e-05
6.69573e-05
7.41935e-05
8.22823e-05
9.13163e-05
0.000101389
0.000112594
0.000125023
0.000138766
0.000153911
0.000170539
0.000188729
0.000208552
0.000230073
0.000253348
0.000278427
0.000305348
0.000334139
0.000364818
0.000397385
0.000431823
0.000468095
0.000506129
0.000545821
0.000587015
0.000629492
0.000672954
0.000717008
0.000761142
0.000804708
0.000846903
0.000886753
0.000923102
0.000954589
0.000979588
0.000995634
0.00100191
0.000999907
0.000984873
0.000956201
0.000913932
0.000858645
0.000791668
0.000715148
0.000631966
0.000545498
0.000459273
0.000376589
0.000300158
0.000231864
0.00017267
0.000122697
8.14729e-05
4.83694e-05
2.35259e-05
1.19487e-05
1.73561e-06
1.55231e-06
2.45966e-06
3.73939e-06
5.22582e-06
6.85086e-06
8.57767e-06
1.0385e-05
1.22623e-05
1.4208e-05
1.62288e-05
1.8339e-05
2.05598e-05
2.29195e-05
2.54523e-05
2.81984e-05
3.12033e-05
3.45169e-05
3.81939e-05
4.22927e-05
4.68752e-05
5.20065e-05
5.77541e-05
6.4188e-05
7.13794e-05
7.94007e-05
8.83251e-05
9.82252e-05
0.000109173
0.000121239
0.00013449
0.000148991
0.000164803
0.00018198
0.00020057
0.000220612
0.000242136
0.000265158
0.000289679
0.000315678
0.000343112
0.000371903
0.000401937
0.000433049
0.00046502
0.00049756
0.000530302
0.000562788
0.000594459
0.000624654
0.000652604
0.000677434
0.000698154
0.000713571
0.000721855
0.0007236
0.000718594
0.000704423
0.000680864
0.000648142
0.00060684
0.000558011
0.000503195
0.000444354
0.000383717
0.000323576
0.00026605
0.000212882
0.000165294
0.000123945
8.89941e-05
6.02979e-05
3.78452e-05
2.2969e-05
2.52848e-05
2.83999e-06
1.86081e-06
2.32706e-06
3.22532e-06
4.34014e-06
5.59077e-06
6.93779e-06
8.36004e-06
9.84725e-06
1.13974e-05
1.30156e-05
1.47131e-05
1.65076e-05
1.8422e-05
2.04848e-05
2.27294e-05
2.51939e-05
2.79208e-05
3.09569e-05
3.4353e-05
3.81634e-05
4.24462e-05
4.7263e-05
5.26783e-05
5.87595e-05
6.55767e-05
7.32021e-05
8.17096e-05
9.11742e-05
0.000101671
0.000113275
0.000126057
0.000140086
0.000155425
0.000172128
0.000190238
0.000209784
0.000230776
0.0002532
0.000277015
0.000302142
0.000328466
0.00035582
0.000383986
0.000412688
0.000441587
0.000470279
0.000498291
0.00052508
0.000550041
0.00057251
0.000591784
0.00060713
0.000617228
0.000621282
0.000620284
0.000613056
0.000598417
0.00057628
0.00054689
0.000510761
0.000468769
0.000422167
0.000372543
0.000321697
0.000271475
0.000223583
0.000179413
0.000139942
0.000105713
7.69206e-05
5.36367e-05
3.63268e-05
2.74093e-05
4.10775e-05
4.09693e-06
2.34e-06
2.45347e-06
3.0815e-06
3.95374e-06
4.97253e-06
6.09277e-06
7.29129e-06
8.55702e-06
9.88726e-06
1.12861e-05
1.27636e-05
1.43354e-05
1.60224e-05
1.78505e-05
1.98504e-05
2.20576e-05
2.45123e-05
2.72592e-05
3.03473e-05
3.38304e-05
3.77668e-05
4.22194e-05
4.72555e-05
5.2947e-05
5.937e-05
6.66045e-05
7.47344e-05
8.38457e-05
9.40265e-05
0.000105365
0.000117945
0.000131847
0.000147142
0.000163888
0.000182126
0.000201873
0.000223117
0.000245809
0.00026986
0.000295134
0.000321445
0.000348547
0.000376144
0.000403887
0.000431383
0.000458197
0.000483861
0.000507875
0.000529718
0.000548865
0.00056479
0.000576982
0.000584001
0.00058615
0.000583941
0.00057608
0.000561799
0.000540914
0.000513479
0.000479843
0.000440689
0.000397099
0.000350525
0.000302684
0.000255383
0.000210311
0.000168853
0.000131978
0.000100228
7.38459e-05
5.30568e-05
3.87046e-05
3.41825e-05
5.86542e-05
5.48415e-06
2.92845e-06
2.72933e-06
3.14075e-06
3.8325e-06
4.68861e-06
5.65683e-06
6.71113e-06
7.83911e-06
9.03734e-06
1.03093e-05
1.16646e-05
1.3118e-05
1.46899e-05
1.64055e-05
1.82952e-05
2.03946e-05
2.27443e-05
2.53902e-05
2.83836e-05
3.17814e-05
3.56465e-05
4.00476e-05
4.50601e-05
5.07651e-05
5.72501e-05
6.46083e-05
7.29382e-05
8.23418e-05
9.29234e-05
0.000104787
0.00011803
0.000132732
0.000148972
0.000166804
0.00018625
0.000207297
0.000229888
0.000253917
0.00027922
0.00030558
0.000332727
0.000360326
0.000388005
0.000415363
0.000441982
0.000467446
0.000491355
0.000513303
0.000532917
0.000549844
0.000563735
0.000574285
0.000580304
0.000582194
0.000580392
0.000573487
0.00056073
0.000541712
0.000516209
0.000484264
0.000446327
0.000403334
0.000356714
0.000308287
0.000260056
0.000213952
0.000171584
0.000134088
0.000102109
7.59586e-05
5.59804e-05
4.33383e-05
4.23212e-05
7.74962e-05
6.98853e-06
3.59891e-06
3.10682e-06
3.33252e-06
3.87938e-06
4.61301e-06
5.47306e-06
6.42994e-06
7.46985e-06
8.58868e-06
9.78963e-06
1.10821e-05
1.24813e-05
1.40077e-05
1.56874e-05
1.75521e-05
1.9639e-05
2.19913e-05
2.46586e-05
2.76967e-05
3.11688e-05
3.51453e-05
3.97044e-05
4.49327e-05
5.09236e-05
5.77787e-05
6.56081e-05
7.45269e-05
8.46544e-05
9.61108e-05
0.000109016
0.000123476
0.000139588
0.000157415
0.000176989
0.000198298
0.000221276
0.000245794
0.000271657
0.000298602
0.000326303
0.000354378
0.000382426
0.000410025
0.000436761
0.000462253
0.000486169
0.000508229
0.000528239
0.000546043
0.000561513
0.000574514
0.000584831
0.000591829
0.000594994
0.000595101
0.000590709
0.000580807
0.000564624
0.00054153
0.000511223
0.000473888
0.000430317
0.000381956
0.000330815
0.000279232
0.000229548
0.000183779
0.000143383
0.000109219
8.17183e-05
6.13293e-05
4.95053e-05
5.13652e-05
9.72305e-05
8.60298e-06
4.3378e-06
3.56152e-06
3.62085e-06
4.04615e-06
4.68354e-06
5.46419e-06
6.35499e-06
7.34034e-06
8.41551e-06
9.58365e-06
1.08546e-05
1.22441e-05
1.37742e-05
1.54726e-05
1.73734e-05
1.95169e-05
2.19507e-05
2.47294e-05
2.79157e-05
3.15808e-05
3.58051e-05
4.06787e-05
4.6302e-05
5.27856e-05
6.02497e-05
6.8822e-05
7.86372e-05
8.9833e-05
0.000102545
0.000116897
0.000133001
0.000150943
0.000170764
0.000192455
0.000215942
0.000241079
0.000267638
0.000295315
0.000323733
0.000352459
0.000381033
0.000409002
0.000435945
0.000461506
0.000485419
0.000507518
0.000527739
0.000546106
0.000562684
0.00057754
0.000590677
0.000601953
0.000611011
0.000617345
0.000620171
0.000619409
0.000613329
0.00060076
0.000580607
0.000552204
0.000515445
0.000470949
0.000420153
0.00036525
0.000308949
0.000254092
0.000203227
0.000158281
0.000120444
9.03451e-05
6.85616e-05
5.68262e-05
6.10605e-05
0.000117595
1.03244e-05
5.13814e-06
4.07979e-06
3.9852e-06
4.30568e-06
4.86561e-06
5.58776e-06
6.43516e-06
7.39053e-06
8.4486e-06
9.61269e-06
1.08933e-05
1.23077e-05
1.38796e-05
1.56393e-05
1.76241e-05
1.98789e-05
2.24567e-05
2.54194e-05
2.88382e-05
3.27946e-05
3.73814e-05
4.27028e-05
4.88746e-05
5.60251e-05
6.42934e-05
7.3827e-05
8.47789e-05
9.73023e-05
0.000111543
0.000127629
0.000145661
0.000165699
0.00018774
0.00021171
0.000237448
0.000264701
0.000293123
0.000322284
0.000351695
0.000380838
0.000409209
0.000436364
0.000461951
0.00048575
0.000507681
0.000527802
0.000546286
0.000563382
0.000579348
0.000594389
0.000608586
0.000621826
0.000633762
0.000643857
0.000650935
0.000653802
0.000652065
0.000643639
0.000626913
0.000600862
0.000565079
0.000519945
0.000466802
0.000407945
0.000346404
0.000285532
0.000228491
0.000177803
0.000135128
0.000101394
7.73692e-05
6.50858e-05
7.1259e-05
0.000138417
1.21523e-05
5.99654e-06
4.65373e-06
4.41324e-06
4.64135e-06
5.13808e-06
5.818e-06
6.63988e-06
7.5848e-06
8.64702e-06
9.83026e-06
1.11462e-05
1.26136e-05
1.42587e-05
1.61153e-05
1.8225e-05
2.06381e-05
2.34144e-05
2.66238e-05
3.03478e-05
3.46798e-05
3.97262e-05
4.56072e-05
5.24564e-05
6.04207e-05
6.96587e-05
8.03366e-05
9.26236e-05
0.000106684
0.000122666
0.00014069
0.000160832
0.000183103
0.000207437
0.000233666
0.000261518
0.000290614
0.000320476
0.000350555
0.000380269
0.000409057
0.000436427
0.000462017
0.000485621
0.000507218
0.000526962
0.000545152
0.000562186
0.000578494
0.000594461
0.000610358
0.000626271
0.000642048
0.000657268
0.000671223
0.000682857
0.000690033
0.000692112
0.000688136
0.000675264
0.00065214
0.000618047
0.000573059
0.000518293
0.000455997
0.0003894
0.000322306
0.000258523
0.000201278
0.000152846
0.000114593
8.75685e-05
7.41587e-05
8.18794e-05
0.000159623
1.40884e-05
6.91173e-06
5.27879e-06
4.89735e-06
5.04244e-06
5.48737e-06
6.13836e-06
6.94954e-06
7.90035e-06
8.9847e-06
1.02069e-05
1.15799e-05
1.31249e-05
1.48709e-05
1.68558e-05
1.91262e-05
2.17389e-05
2.47614e-05
2.82734e-05
3.23674e-05
3.71502e-05
4.27436e-05
4.92846e-05
5.69254e-05
6.58323e-05
7.61824e-05
8.81586e-05
0.000101942
0.000117701
0.000135576
0.000155665
0.000177999
0.000202524
0.000229079
0.000257383
0.000287034
0.000317514
0.000348218
0.000378499
0.000407728
0.000435355
0.000460976
0.000484378
0.000505567
0.000524759
0.000542352
0.000558863
0.000574861
0.000590884
0.000607362
0.000624555
0.000642492
0.000660941
0.000679384
0.000696993
0.000712615
0.000724535
0.00073003
0.000730221
0.000721582
0.000702026
0.000670549
0.000626841
0.000571652
0.000506997
0.000436116
0.000363143
0.000292503
0.000228212
0.000173314
0.000129774
9.90503e-05
8.39741e-05
9.28684e-05
0.000181135
1.61359e-05
7.88392e-06
5.95256e-06
5.43276e-06
5.50183e-06
5.90446e-06
6.53777e-06
7.35106e-06
8.32206e-06
9.44442e-06
1.07232e-05
1.2173e-05
1.38175e-05
1.56894e-05
1.7831e-05
2.02948e-05
2.31449e-05
2.64577e-05
3.03233e-05
3.48468e-05
4.01493e-05
4.63688e-05
5.36603e-05
6.21946e-05
7.21567e-05
8.37405e-05
9.71416e-05
0.000112547
0.000130119
0.000149979
0.000172183
0.000196698
0.00022338
0.000251954
0.000282007
0.000312994
0.000344263
0.000375106
0.000404818
0.000432778
0.000458521
0.000481798
0.000502608
0.000521199
0.000538034
0.000553721
0.000568941
0.000584352
0.000600518
0.000617837
0.000636492
0.000656422
0.000677304
0.000698543
0.000719248
0.000738226
0.000754086
0.000763765
0.000766979
0.000762877
0.000747522
0.00071966
0.000678551
0.000624443
0.000558916
0.000484996
0.000406953
0.000329747
0.00025822
0.000196334
0.000146839
0.000111754
9.44996e-05
0.000104205
0.000202936
1.82991e-05
8.91428e-06
6.67405e-06
6.01654e-06
6.01485e-06
6.38329e-06
7.00872e-06
7.83554e-06
8.83966e-06
1.00145e-05
1.13661e-05
1.29108e-05
1.46753e-05
1.66962e-05
1.9021e-05
2.17088e-05
2.48317e-05
2.84756e-05
3.27424e-05
3.77504e-05
4.3636e-05
5.05541e-05
5.86775e-05
6.81956e-05
7.93099e-05
9.2228e-05
0.000107153
0.000124269
0.000143721
0.000165595
0.000189887
0.000216479
0.000245116
0.000275391
0.000306748
0.000338502
0.000369889
0.000400134
0.000428532
0.000454538
0.000477838
0.000498396
0.000516459
0.000532519
0.000547252
0.000561422
0.000575787
0.000591016
0.00060762
0.000625901
0.000645937
0.000667564
0.000690387
0.000713773
0.000736839
0.000758452
0.000777341
0.000791094
0.000797183
0.00079724
0.000786627
0.00076331
0.000726123
0.000674711
0.000610038
0.000534667
0.000452759
0.000369646
0.000290978
0.000221761
0.000165736
0.00012566
0.000105732
0.000115893
0.000225052
2.05836e-05
1.00047e-05
7.44327e-06
6.64714e-06
6.57847e-06
6.91979e-06
7.54607e-06
8.39686e-06
9.44612e-06
1.0687e-05
1.21266e-05
1.37833e-05
1.56871e-05
1.7879e-05
2.04121e-05
2.33528e-05
2.67816e-05
3.07953e-05
3.55077e-05
4.10514e-05
4.75784e-05
5.52607e-05
6.42886e-05
7.48682e-05
8.72153e-05
0.000101546
0.000118064
0.00013694
0.000158289
0.000182144
0.000208421
0.000236899
0.000267193
0.000298755
0.000330886
0.00036278
0.000393596
0.000422543
0.000448982
0.000472511
0.000493025
0.000510732
0.00052613
0.00053993
0.000552959
0.00056606
0.000579988
0.000595344
0.000612531
0.000631724
0.000652883
0.000675759
0.000699913
0.000724725
0.000749372
0.000772836
0.000793934
0.000810937
0.000820772
0.000823788
0.000818291
0.000800247
0.000768136
0.00072096
0.000658927
0.000583899
0.000499641
0.000411613
0.000326184
0.000249481
0.000186437
0.000140776
0.000117689
0.000127954
0.000247531
2.29957e-05
1.11578e-05
8.26095e-06
7.32388e-06
7.19102e-06
7.51122e-06
8.14634e-06
9.03089e-06
1.01366e-05
1.14565e-05
1.29986e-05
1.47838e-05
1.68453e-05
1.92291e-05
2.19945e-05
2.52154e-05
2.89818e-05
3.34015e-05
3.86011e-05
4.47276e-05
5.19491e-05
6.0454e-05
7.04492e-05
8.21551e-05
9.57977e-05
0.000111596
0.000129745
0.00015039
0.000173601
0.00019934
0.000227429
0.000257522
0.000289098
0.000321463
0.000353792
0.000385189
0.000414783
0.000441831
0.000465821
0.000486551
0.00050416
0.000519111
0.000532124
0.000544073
0.000555867
0.000568346
0.00058219
0.000597877
0.000615672
0.000635615
0.000657559
0.000681198
0.000706083
0.000731645
0.000757166
0.000781775
0.000804462
0.000823763
0.000837336
0.000843128
0.00084232
0.000829979
0.000803786
0.000762135
0.000704412
0.00063158
0.000546699
0.000455048
0.000363522
0.00027938
0.000208933
0.00015713
0.000130405
0.000140419
0.00027044
2.55426e-05
1.23765e-05
9.12835e-06
8.04683e-06
7.85167e-06
8.15596e-06
8.80734e-06
9.73495e-06
1.09081e-05
1.23195e-05
1.39781e-05
1.59075e-05
1.81446e-05
2.07404e-05
2.37609e-05
2.72881e-05
3.14219e-05
3.62815e-05
4.20066e-05
4.8759e-05
5.67221e-05
6.61003e-05
7.71147e-05
8.9997e-05
0.000104978
0.000122273
0.000142057
0.000164438
0.000189426
0.000216895
0.000246555
0.000277928
0.000310352
0.000343
0.000374946
0.000405246
0.000433055
0.000457741
0.000478977
0.000496798
0.000511597
0.000524071
0.000535114
0.000545697
0.000556734
0.000568998
0.000583037
0.000599172
0.000617529
0.000638022
0.000660425
0.000684398
0.000709514
0.000735262
0.000761053
0.000786182
0.000809821
0.000830708
0.000847369
0.000856677
0.000859229
0.000852684
0.000832848
0.000797621
0.000745598
0.000676715
0.000593041
0.000499305
0.000402631
0.000311324
0.000233219
0.000174756
0.000143924
0.000153331
0.000293852
2.82321e-05
1.36641e-05
1.00472e-05
8.81663e-06
8.56026e-06
8.8532e-06
9.52787e-06
1.05075e-05
1.17587e-05
1.32736e-05
1.50625e-05
1.71514e-05
1.95813e-05
2.24084e-05
2.57058e-05
2.95639e-05
3.40929e-05
3.94236e-05
4.57092e-05
5.31256e-05
6.18711e-05
7.21642e-05
8.42379e-05
9.83308e-05
0.000114673
0.000133465
0.000154854
0.000178896
0.000205526
0.000234516
0.000265453
0.000297725
0.000330531
0.000362937
0.000393949
0.00042263
0.000448219
0.000470248
0.000488617
0.000503613
0.000515872
0.000526283
0.000535848
0.000545585
0.000556354
0.000568728
0.000583144
0.000599789
0.000618645
0.000639518
0.00066213
0.000686132
0.000711137
0.000736717
0.000762391
0.000787616
0.000811721
0.000833662
0.000852304
0.000865253
0.000870583
0.000869104
0.000855629
0.000827246
0.000781893
0.000718461
0.000637796
0.000543687
0.000443086
0.000345139
0.000259274
0.000193692
0.000158295
0.000166733
0.000317841
3.10727e-05
1.50244e-05
1.10196e-05
9.63431e-06
9.31716e-06
9.60278e-06
1.03075e-05
1.13477e-05
1.26873e-05
1.43177e-05
1.62502e-05
1.85135e-05
2.11526e-05
2.42295e-05
2.78243e-05
3.20365e-05
3.69863e-05
4.28165e-05
4.96933e-05
5.78064e-05
6.73677e-05
7.86075e-05
9.17673e-05
0.000107087
0.00012479
0.000145053
0.000167982
0.00019357
0.000221662
0.00025192
0.000283801
0.000316559
0.000349278
0.000380942
0.000410538
0.000437186
0.000460266
0.000479517
0.000495085
0.000507506
0.000517625
0.000526467
0.000535186
0.000544557
0.000555349
0.000568115
0.000583095
0.000600287
0.000619601
0.000640753
0.000663433
0.000687303
0.000712031
0.000737273
0.000762647
0.00078774
0.000811997
0.000834526
0.000854354
0.000870038
0.000878417
0.000880399
0.000872899
0.000851272
0.000813045
0.000756175
0.00068015
0.000587452
0.000484388
0.000380593
0.000287053
0.000213971
0.00017357
0.000180669
0.000342478
3.40733e-05
1.64613e-05
1.20478e-05
1.05013e-05
1.01232e-05
1.04051e-05
1.11463e-05
1.22557e-05
1.36939e-05
1.54514e-05
1.75405e-05
1.99924e-05
2.28565e-05
2.62006e-05
3.01121e-05
3.46994e-05
4.00932e-05
4.64479e-05
5.39422e-05
6.27786e-05
7.31807e-05
8.5388e-05
9.96462e-05
0.000116192
0.000135231
0.00015691
0.000181282
0.000208263
0.000237601
0.000268838
0.000301305
0.000334133
0.000366315
0.000396792
0.000424581
0.000448912
0.000469347
0.000485861
0.00049885
0.00050907
0.000517543
0.000525481
0.000533651
0.00054306
0.0005543
0.000567718
0.000583374
0.000601201
0.000620981
0.00064239
0.000665109
0.00068883
0.000713268
0.000738143
0.000763157
0.00078799
0.000812176
0.000834952
0.000855516
0.000872741
0.000884049
0.000888379
0.000885804
0.000870373
0.000839174
0.000789473
0.000719402
0.00062985
0.000525964
0.000417384
0.000316471
0.000235614
0.000189792
0.00019518
0.000367823
3.72434e-05
1.79793e-05
1.31344e-05
1.14193e-05
1.09795e-05
1.12611e-05
1.20449e-05
1.32319e-05
1.47787e-05
1.66747e-05
1.89329e-05
2.15873e-05
2.46914e-05
2.83188e-05
3.25646e-05
3.75459e-05
4.34039e-05
5.03041e-05
5.84369e-05
6.80161e-05
7.9275e-05
9.24589e-05
0.000107813
0.000125563
0.000145892
0.000168905
0.000194591
0.000222782
0.000253119
0.000285026
0.000317713
0.00035021
0.000381449
0.000410372
0.000436074
0.000457937
0.00047574
0.000489701
0.000500451
0.000508943
0.000516408
0.00052368
0.000531891
0.000541765
0.000553747
0.000567987
0.000584449
0.000603024
0.000623328
0.000645054
0.000667885
0.000691546
0.000715791
0.000740393
0.000765114
0.000789693
0.000813725
0.000836534
0.000857428
0.000875413
0.000888802
0.000895051
0.000895748
0.000885582
0.000860772
0.00081828
0.000755032
0.000670167
0.000567189
0.000455138
0.0003474
0.000258628
0.000206995
0.000210303
0.000393925
4.05932e-05
1.95828e-05
1.42823e-05
1.23901e-05
1.18877e-05
1.21718e-05
1.30044e-05
1.42772e-05
1.59426e-05
1.79881e-05
2.04277e-05
2.32974e-05
2.66553e-05
3.05809e-05
3.51766e-05
4.05685e-05
4.69074e-05
5.43697e-05
6.31562e-05
7.34903e-05
8.5612e-05
9.97688e-05
0.0001162
0.000135115
0.000156665
0.000180904
0.000207749
0.000236941
0.000268013
0.000300272
0.000332824
0.000364623
0.000394577
0.000421671
0.000445121
0.000464499
0.000479811
0.000491513
0.000500438
0.000507827
0.00051453
0.000521781
0.000530453
0.000541131
0.00055406
0.000569282
0.000586777
0.000606174
0.00062711
0.00064927
0.000672353
0.000696108
0.000720328
0.000744827
0.000769408
0.000793849
0.00081777
0.000840546
0.000861526
0.000879788
0.000894162
0.000902026
0.000904381
0.00089821
0.000878683
0.000842864
0.000786761
0.000707789
0.000607415
0.000493413
0.000379657
0.000283003
0.000225193
0.000226065
0.000420823
4.41333e-05
2.12769e-05
1.54946e-05
1.34162e-05
1.28494e-05
1.31389e-05
1.40262e-05
1.53931e-05
1.71866e-05
1.93925e-05
2.20248e-05
2.51221e-05
2.87465e-05
3.29833e-05
3.79424e-05
4.37583e-05
5.05912e-05
5.86272e-05
6.80762e-05
7.91689e-05
9.21492e-05
0.000107262
0.000124737
0.000144759
0.000167439
0.000192773
0.000220602
0.00025057
0.000282103
0.000314403
0.000346491
0.000377277
0.000405678
0.000430769
0.000451919
0.00046891
0.000481981
0.000491801
0.000499515
0.000506011
0.000512591
0.000520258
0.000529757
0.000541469
0.000555531
0.000572044
0.000590644
0.000610972
0.000632667
0.000655405
0.000678902
0.000702933
0.000727325
0.000751928
0.000776575
0.000801067
0.000825032
0.000847851
0.000868866
0.000887177
0.000901761
0.000910377
0.000913498
0.000909734
0.000894045
0.00086383
0.000814601
0.000742262
0.00064602
0.000531714
0.000413002
0.000308715
0.000244362
0.000242495
0.000448537
4.78761e-05
2.30667e-05
1.67745e-05
1.44996e-05
1.38665e-05
1.4164e-05
1.5112e-05
1.6581e-05
1.85122e-05
2.08887e-05
2.37245e-05
2.70604e-05
3.09624e-05
3.55217e-05
4.0855e-05
4.71051e-05
5.44408e-05
6.30566e-05
7.317e-05
8.50165e-05
9.88403e-05
0.00011488
0.000133349
0.000154401
0.000178103
0.000204386
0.000233008
0.000263518
0.000295241
0.000327292
0.000358627
0.000388144
0.000414812
0.000437824
0.000456732
0.000471534
0.000482692
0.000491159
0.000497879
0.000504122
0.000511026
0.000519492
0.000530071
0.000543017
0.00055858
0.000576432
0.000596238
0.000617615
0.000640193
0.000663646
0.000687709
0.000712186
0.000736939
0.000761853
0.000786789
0.000811566
0.00083581
0.000858878
0.000880051
0.000898371
0.000912799
0.00092136
0.000924592
0.000921677
0.000908194
0.000882094
0.00083888
0.000773353
0.000682453
0.000569514
0.000447137
0.000335675
0.000264503
0.000259606
0.000477077
5.18329e-05
2.49577e-05
1.81254e-05
1.56431e-05
1.49413e-05
1.52493e-05
1.62638e-05
1.78429e-05
1.99209e-05
2.24777e-05
2.55269e-05
2.91112e-05
3.33003e-05
3.81909e-05
4.39065e-05
5.05973e-05
5.84399e-05
6.76359e-05
7.84083e-05
9.09947e-05
0.000105636
0.000122561
0.00014196
0.000163952
0.000188552
0.000215623
0.000244839
0.000275659
0.000307316
0.000338856
0.000369199
0.000397263
0.000422101
0.000443054
0.000459867
0.000472756
0.000482408
0.000489827
0.00049613
0.000502565
0.000510186
0.000519731
0.000531579
0.000546172
0.000563257
0.000582543
0.000603652
0.000626174
0.00064973
0.000674001
0.000698744
0.000723797
0.00074906
0.00077446
0.000799895
0.000825205
0.000850014
0.000873639
0.000895262
0.000913783
0.000928002
0.000935993
0.000938871
0.000935482
0.000922563
0.000898807
0.000860227
0.000801082
0.000716292
0.000606288
0.000481712
0.000363745
0.000285616
0.000277406
0.000506442
5.60154e-05
2.69552e-05
1.95507e-05
1.68491e-05
1.60759e-05
1.63969e-05
1.74837e-05
1.91806e-05
2.14142e-05
2.41604e-05
2.74318e-05
3.12727e-05
3.57564e-05
4.09847e-05
4.70873e-05
5.42213e-05
6.257e-05
7.23406e-05
8.37591e-05
9.70629e-05
0.000112486
0.000130242
0.000150494
0.000173323
0.000198686
0.000226377
0.000255988
0.000286893
0.000318252
0.000349059
0.000378229
0.000404729
0.000427723
0.000446716
0.000461655
0.000472946
0.000481518
0.000488311
0.000494642
0.000501664
0.000510313
0.000521095
0.000534665
0.00055091
0.000569606
0.000590402
0.000612874
0.000636593
0.000661174
0.000686311
0.00071179
0.000737488
0.000763353
0.000789366
0.000815474
0.000841549
0.000867229
0.000891786
0.000914285
0.000933429
0.000947657
0.00095495
0.00095722
0.000952409
0.000938562
0.000915272
0.00087954
0.000825747
0.000747287
0.000641548
0.000516344
0.000392762
0.000307672
0.000295894
0.000536618
6.04364e-05
2.90649e-05
2.10543e-05
1.81206e-05
1.72729e-05
1.76092e-05
1.87741e-05
2.05964e-05
2.29938e-05
2.59375e-05
2.94387e-05
3.35428e-05
3.83262e-05
4.38958e-05
5.03869e-05
5.79624e-05
6.68111e-05
7.71441e-05
8.91887e-05
0.000103178
0.000119338
0.00013786
0.000158878
0.00018243
0.000208414
0.000236555
0.000266368
0.000297153
0.000328012
0.000357911
0.000385787
0.000410681
0.00043189
0.000449096
0.000462441
0.000472557
0.000480326
0.000486968
0.000493719
0.000501671
0.000511461
0.000523963
0.000539269
0.000557247
0.000577609
0.000599944
0.000623791
0.000648704
0.000674299
0.000700289
0.000726492
0.000752835
0.000779328
0.000806019
0.000832921
0.000859956
0.000886795
0.000912683
0.000936572
0.000956975
0.000971635
0.000978526
0.000980164
0.000973445
0.000957476
0.000932838
0.000897917
0.000847912
0.000775397
0.000674883
0.000550628
0.000422531
0.000330619
0.000315064
0.000567581
6.51091e-05
3.12929e-05
2.26398e-05
1.94605e-05
1.8535e-05
1.88888e-05
2.01373e-05
2.20923e-05
2.46612e-05
2.78097e-05
3.15467e-05
3.59185e-05
4.10046e-05
4.69159e-05
5.3793e-05
6.18038e-05
7.11412e-05
8.20184e-05
9.46614e-05
0.000109297
0.000126138
0.000145353
0.000167042
0.000191197
0.000217658
0.000246083
0.000275918
0.000306401
0.000336595
0.000365461
0.000391981
0.000415294
0.000434843
0.000450483
0.000462525
0.000471777
0.000479212
0.000486085
0.000493597
0.000502574
0.000514011
0.000528282
0.000545386
0.000565137
0.000587172
0.000611027
0.000636207
0.000662254
0.000688792
0.000715555
0.000742404
0.000769327
0.000796407
0.000823776
0.000851531
0.000879666
0.000907908
0.000935504
0.000961309
0.000983652
0.000999583
0.00100666
0.00100786
0.000999244
0.000980367
0.000952798
0.000916573
0.000868372
0.000800804
0.000705997
0.000584166
0.000452823
0.000354384
0.000334898
0.000599301
7.00478e-05
3.36454e-05
2.43114e-05
2.08719e-05
1.98649e-05
2.02384e-05
2.15762e-05
2.36708e-05
2.64181e-05
2.97772e-05
3.37545e-05
3.83965e-05
4.37852e-05
5.00355e-05
5.72922e-05
6.57275e-05
7.55369e-05
8.69339e-05
0.000100141
0.000115377
0.000132836
0.000152663
0.000174923
0.000199558
0.000226355
0.000254907
0.000284602
0.00031463
0.000344034
0.000371793
0.000396954
0.000418769
0.000436832
0.000451171
0.00046228
0.000470984
0.00047845
0.00048589
0.000494295
0.000504755
0.000517943
0.000534024
0.000552961
0.000574479
0.000598145
0.000623448
0.000649866
0.000676933
0.000704284
0.000731682
0.000759044
0.000786424
0.000813993
0.000841982
0.000870589
0.0008999
0.000929723
0.000959344
0.000987548
0.00101249
0.00103082
0.00103894
0.00104015
0.0010301
0.00100802
0.0009763
0.000936753
0.0008881
0.000823916
0.000734736
0.00061658
0.000483386
0.000378876
0.000355372
0.000631737
7.52669e-05
3.61291e-05
2.60733e-05
2.23581e-05
2.12658e-05
2.1661e-05
2.30933e-05
2.5334e-05
2.82657e-05
3.18401e-05
3.60602e-05
4.09723e-05
4.66608e-05
5.32439e-05
6.08701e-05
6.97145e-05
7.9974e-05
9.18607e-05
0.000105591
0.000121373
0.000139382
0.000159737
0.000182463
0.000207458
0.000234455
0.000262991
0.000292408
0.000321862
0.000350394
0.000377021
0.00040087
0.000421317
0.000438107
0.000451424
0.000461886
0.000470434
0.000478261
0.000486431
0.000496122
0.000508254
0.000523212
0.00054114
0.000561896
0.000585126
0.000610333
0.000636964
0.000664477
0.000692401
0.000720389
0.000748244
0.000775941
0.000803615
0.000831534
0.000860035
0.000889437
0.000919931
0.000951437
0.000983318
0.00101433
0.00104246
0.00106437
0.00107468
0.00107653
0.00106595
0.00104088
0.00100428
0.000959647
0.000908182
0.000845344
0.000761112
0.000647546
0.000513944
0.000403983
0.000376453
0.00066484
8.07819e-05
3.87507e-05
2.79298e-05
2.39226e-05
2.27408e-05
2.31596e-05
2.46915e-05
2.70842e-05
3.02054e-05
3.3998e-05
3.84613e-05
4.36412e-05
4.96236e-05
5.65298e-05
6.45111e-05
7.37447e-05
8.44275e-05
9.67684e-05
0.000110977
0.000127247
0.000145733
0.000166527
0.000189616
0.000214855
0.000241927
0.000270324
0.000299348
0.000328144
0.000355764
0.000381279
0.000403909
0.000423157
0.000438911
0.000451496
0.000461638
0.000470345
0.00047871
0.000487957
0.000499186
0.000513006
0.000529778
0.000549539
0.000572056
0.000596898
0.000623514
0.000651314
0.000679738
0.000708322
0.000736741
0.000764846
0.000792679
0.000820462
0.000848563
0.000877437
0.000907529
0.000939155
0.000972363
0.00100664
0.00104076
0.00107263
0.00109903
0.00111298
0.00111632
0.00110641
0.00107907
0.00103739
0.000986311
0.000929738
0.000865867
0.000785309
0.000676808
0.000544214
0.000429577
0.000398096
0.000698554
8.6609e-05
4.15176e-05
2.98855e-05
2.5569e-05
2.42932e-05
2.47375e-05
2.63739e-05
2.89237e-05
3.22382e-05
3.62504e-05
4.09551e-05
4.63974e-05
5.26647e-05
5.98807e-05
6.8199e-05
7.77977e-05
8.88726e-05
0.000101628
0.000116264
0.000132959
0.000151849
0.000172994
0.000196347
0.000221721
0.000248757
0.000276911
0.00030546
0.000333547
0.000360254
0.000384719
0.00040626
0.000424504
0.000439472
0.000451611
0.000461715
0.000470778
0.000480025
0.000490634
0.000503425
0.000518985
0.000537567
0.000559105
0.000583282
0.000609598
0.000637455
0.000666231
0.000695358
0.000724383
0.000753014
0.000781155
0.000808921
0.000836623
0.000864733
0.000893824
0.000924469
0.000957122
0.000991977
0.00102868
0.0010661
0.00110216
0.00113358
0.0011528
0.00115868
0.00115077
0.00112237
0.00107599
0.00101761
0.00095386
0.000886381
0.000807682
0.000704209
0.000573911
0.000455513
0.000420249
0.000732808
9.2765e-05
4.44372e-05
3.19452e-05
2.7301e-05
2.59266e-05
2.63979e-05
2.81433e-05
3.08548e-05
3.43649e-05
3.85962e-05
4.35381e-05
4.92347e-05
5.57748e-05
6.32838e-05
7.19172e-05
8.18531e-05
9.32849e-05
0.000106411
0.000121421
0.000138478
0.000157696
0.000179106
0.000202629
0.000228041
0.000254948
0.000282779
0.000310799
0.000338162
0.000363992
0.000387502
0.000408111
0.000425565
0.000439997
0.000451938
0.000462234
0.000471986
0.000482394
0.000494409
0.00050883
0.000526139
0.000546483
0.000569703
0.000595404
0.000623025
0.000651927
0.000681468
0.000711077
0.000740319
0.000768945
0.000796917
0.000824426
0.00085187
0.000879824
0.000908974
0.000940022
0.000973562
0.00100994
0.001049
0.00108975
0.00113019
0.00116704
0.00119302
0.00120272
0.00119815
0.00117028
0.00112014
0.00105418
0.000981541
0.000907846
0.000828741
0.000729696
0.000602762
0.000481634
0.000442848
0.000767524
9.92677e-05
4.75173e-05
3.41138e-05
2.91225e-05
2.76445e-05
2.81445e-05
3.0003e-05
3.28795e-05
3.65863e-05
4.10339e-05
4.62064e-05
5.21465e-05
5.8944e-05
6.67261e-05
7.56494e-05
8.58912e-05
9.76415e-05
0.000111092
0.000126421
0.000143776
0.000163248
0.000184843
0.000208451
0.000233818
0.000260521
0.000287973
0.000315438
0.000342094
0.000367116
0.000389795
0.000409651
0.000426535
0.000440681
0.000452681
0.000463454
0.000474144
0.000485787
0.000499295
0.000515371
0.000534395
0.000556416
0.000581189
0.000608249
0.000636984
0.000666721
0.000696805
0.000726673
0.00075592
0.000784341
0.000811963
0.00083905
0.000866087
0.000893744
0.000922811
0.00095411
0.000988375
0.00102611
0.00106736
0.00111133
0.00115618
0.00119861
0.00123244
0.00124766
0.00124747
0.00122203
0.00116959
0.00109637
0.00101363
0.000931233