/*--------------------------------*- C++ -*----------------------------------*\
  =========                 |
  \\      /  F ield         | OpenFOAM: The Open Source CFD Toolbox
   \\    /   O peration     | Website:  https://openfoam.org
    \\  /    A nd           | Version:  12
     \\/     M anipulation  |
\*---------------------------------------------------------------------------*/
FoamFile
{
    format      ascii;
    class       volScalarField;
    location    "5.5";
    object      k;
}
// * * * * * * * * * * * * * * * * * * * * * * * * * * * * * * * * * * * * * //

dimensions      [0 2 -2 0 0 0 0];

internalField   nonuniform List<scalar> 
5625
(
1.91999e-10
1.29864e-09
2.89025e-09
4.78173e-09
6.88484e-09
9.14442e-09
1.15233e-08
1.39975e-08
1.6555e-08
1.91947e-08
2.19257e-08
2.47677e-08
2.77494e-08
3.09084e-08
3.42906e-08
3.7949e-08
4.19433e-08
4.63391e-08
5.12071e-08
5.66223e-08
6.26635e-08
6.94123e-08
7.69526e-08
8.53692e-08
9.47476e-08
1.05172e-07
1.16727e-07
1.29492e-07
1.43544e-07
1.58955e-07
1.75794e-07
1.9412e-07
2.13988e-07
2.35445e-07
2.58529e-07
2.8327e-07
3.09689e-07
3.37798e-07
3.67595e-07
3.99066e-07
4.32176e-07
4.66871e-07
5.03064e-07
5.40632e-07
5.79397e-07
6.19118e-07
6.59469e-07
7.00023e-07
7.40233e-07
7.79408e-07
8.16698e-07
8.51079e-07
8.81325e-07
9.05937e-07
9.22608e-07
9.30095e-07
9.30401e-07
9.18478e-07
8.93663e-07
8.55848e-07
8.05419e-07
7.43512e-07
6.7211e-07
5.93969e-07
5.12384e-07
4.30837e-07
3.52596e-07
2.80342e-07
2.15914e-07
1.60223e-07
1.13326e-07
7.46624e-08
4.34173e-08
1.90842e-08
2.81098e-09
1.45115e-09
1.15651e-08
2.59339e-08
4.29767e-08
6.19157e-08
8.22584e-08
1.03671e-07
1.2594e-07
1.48956e-07
1.72708e-07
1.97281e-07
2.2285e-07
2.49675e-07
2.78094e-07
3.0852e-07
3.41429e-07
3.7736e-07
4.16901e-07
4.6069e-07
5.09403e-07
5.63749e-07
6.24462e-07
6.92297e-07
7.68017e-07
8.52392e-07
9.46184e-07
1.05014e-06
1.16499e-06
1.29142e-06
1.43009e-06
1.58159e-06
1.74649e-06
1.92525e-06
2.11831e-06
2.326e-06
2.54861e-06
2.78631e-06
3.03921e-06
3.30729e-06
3.59043e-06
3.88832e-06
4.20046e-06
4.52609e-06
4.86409e-06
5.21288e-06
5.57029e-06
5.93339e-06
6.29838e-06
6.66032e-06
7.01303e-06
7.34888e-06
7.65866e-06
7.93139e-06
8.15368e-06
8.3043e-06
8.36977e-06
8.37142e-06
8.26217e-06
8.03699e-06
7.69513e-06
7.24015e-06
6.68235e-06
6.03961e-06
5.3367e-06
4.60316e-06
3.87023e-06
3.16717e-06
2.51799e-06
1.93916e-06
1.43882e-06
1.01746e-06
6.69995e-07
3.88961e-07
1.69714e-07
2.12255e-08
3.08303e-09
2.64188e-08
5.96274e-08
9.9017e-08
1.42778e-07
1.89772e-07
2.39226e-07
2.90645e-07
3.43778e-07
3.98601e-07
4.55309e-07
5.14307e-07
5.76197e-07
6.41764e-07
7.11959e-07
7.8789e-07
8.70801e-07
9.62057e-07
1.06313e-06
1.1756e-06
1.30109e-06
1.44132e-06
1.59804e-06
1.77302e-06
1.96806e-06
2.18494e-06
2.4254e-06
2.69115e-06
2.98381e-06
3.30492e-06
3.6559e-06
4.03807e-06
4.45258e-06
4.90042e-06
5.38245e-06
5.89929e-06
6.45141e-06
7.039e-06
7.66202e-06
8.3201e-06
9.01244e-06
9.73775e-06
1.04941e-05
1.12786e-05
1.20875e-05
1.29154e-05
1.37552e-05
1.4598e-05
1.54321e-05
1.62429e-05
1.70129e-05
1.77209e-05
1.83418e-05
1.88461e-05
1.91821e-05
1.93226e-05
1.93225e-05
1.90637e-05
1.85384e-05
1.77451e-05
1.66917e-05
1.54019e-05
1.39167e-05
1.22931e-05
1.05996e-05
8.90831e-06
7.28678e-06
5.79044e-06
4.45713e-06
3.30535e-06
2.33592e-06
1.53677e-06
8.90486e-07
3.86136e-07
4.49154e-08
5.04478e-09
4.43039e-08
1.00475e-07
1.67183e-07
2.41306e-07
3.20891e-07
4.04623e-07
4.91661e-07
5.81574e-07
6.74324e-07
7.70245e-07
8.70023e-07
9.74682e-07
1.08556e-06
1.20427e-06
1.33269e-06
1.47295e-06
1.62737e-06
1.79846e-06
1.98889e-06
2.20146e-06
2.4391e-06
2.70478e-06
3.00157e-06
3.33253e-06
3.70072e-06
4.10918e-06
4.56084e-06
5.05852e-06
5.6049e-06
6.20246e-06
6.85348e-06
7.55998e-06
8.32368e-06
9.14598e-06
1.00279e-05
1.09702e-05
1.19729e-05
1.30357e-05
1.41575e-05
1.53366e-05
1.65701e-05
1.78542e-05
1.91833e-05
2.05501e-05
2.19452e-05
2.33562e-05
2.47675e-05
2.61597e-05
2.75088e-05
2.87858e-05
2.99563e-05
3.09799e-05
3.18106e-05
3.23568e-05
3.25792e-05
3.25761e-05
3.21377e-05
3.12535e-05
2.99201e-05
2.81488e-05
2.5977e-05
2.34726e-05
2.07316e-05
1.787e-05
1.5011e-05
1.22705e-05
9.74307e-06
7.49327e-06
5.55202e-06
3.91997e-06
2.57586e-06
1.48964e-06
6.4296e-07
7.29693e-08
7.27752e-09
6.45496e-08
1.46894e-07
2.4485e-07
3.5374e-07
4.70651e-07
5.93628e-07
7.21423e-07
8.53402e-07
9.89506e-07
1.13023e-06
1.27659e-06
1.4301e-06
1.59273e-06
1.76688e-06
1.95533e-06
2.16122e-06
2.38798e-06
2.63934e-06
2.91925e-06
3.23189e-06
3.58159e-06
3.97281e-06
4.41011e-06
4.89809e-06
5.44136e-06
6.04445e-06
6.7118e-06
7.44768e-06
8.25612e-06
9.14086e-06
1.01053e-05
1.11524e-05
1.22845e-05
1.35036e-05
1.48107e-05
1.62064e-05
1.76901e-05
1.92604e-05
2.09144e-05
2.26483e-05
2.44566e-05
2.63319e-05
2.82648e-05
3.02438e-05
3.2254e-05
3.42774e-05
3.6292e-05
3.82709e-05
4.01816e-05
4.19851e-05
4.36351e-05
4.50768e-05
4.62492e-05
4.70204e-05
4.73347e-05
4.73383e-05
4.6721e-05
4.54628e-05
4.35558e-05
4.101e-05
3.7874e-05
3.42426e-05
3.02541e-05
2.60787e-05
2.18997e-05
1.78903e-05
1.4193e-05
1.09043e-05
8.07028e-06
5.69128e-06
3.73483e-06
2.15583e-06
9.2735e-07
1.04192e-07
9.74169e-09
8.68118e-08
1.98041e-07
3.30584e-07
4.78007e-07
6.36299e-07
8.02776e-07
9.75725e-07
1.15428e-06
1.33836e-06
1.52864e-06
1.72651e-06
1.93405e-06
2.15394e-06
2.38947e-06
2.64443e-06
2.92312e-06
3.23023e-06
3.57087e-06
3.95048e-06
4.37477e-06
4.84971e-06
5.38146e-06
5.97633e-06
6.64068e-06
7.38089e-06
8.20329e-06
9.11403e-06
1.0119e-05
1.12238e-05
1.24334e-05
1.37524e-05
1.51845e-05
1.67325e-05
1.83982e-05
2.01822e-05
2.20835e-05
2.40998e-05
2.62271e-05
2.84592e-05
3.07884e-05
3.32046e-05
3.56958e-05
3.82478e-05
4.08437e-05
4.3464e-05
4.60861e-05
4.8683e-05
5.12231e-05
5.36685e-05
5.59734e-05
5.80828e-05
5.99305e-05
6.14411e-05
6.24533e-05
6.28803e-05
6.29101e-05
6.21465e-05
6.05394e-05
5.80755e-05
5.47569e-05
5.06385e-05
4.5839e-05
4.05388e-05
3.49653e-05
2.93677e-05
2.39851e-05
1.90156e-05
1.45952e-05
1.07893e-05
7.59893e-06
4.97967e-06
2.86939e-06
1.23119e-06
1.37663e-07
1.2414e-08
1.10903e-07
2.53446e-07
4.23561e-07
6.12896e-07
8.16213e-07
1.03001e-06
1.25206e-06
1.48122e-06
1.71741e-06
1.96149e-06
2.21529e-06
2.4815e-06
2.76361e-06
3.06588e-06
3.39326e-06
3.75132e-06
4.14619e-06
4.58452e-06
5.07339e-06
5.62029e-06
6.23302e-06
6.91967e-06
7.68851e-06
8.54793e-06
9.50631e-06
1.05719e-05
1.17529e-05
1.30568e-05
1.44907e-05
1.60609e-05
1.77728e-05
1.96302e-05
2.16356e-05
2.37898e-05
2.60911e-05
2.85359e-05
3.1118e-05
3.38285e-05
3.66562e-05
3.95873e-05
4.26061e-05
4.56947e-05
4.88338e-05
5.20027e-05
5.51788e-05
5.83375e-05
6.1451e-05
6.44867e-05
6.74054e-05
7.01586e-05
7.26858e-05
7.49119e-05
7.67473e-05
7.80173e-05
7.85811e-05
7.86597e-05
7.7799e-05
7.58928e-05
7.29234e-05
6.88807e-05
6.38193e-05
5.7876e-05
5.12686e-05
4.42797e-05
3.72254e-05
3.04151e-05
2.41103e-05
1.84941e-05
1.36576e-05
9.60701e-06
6.28667e-06
3.61666e-06
1.54881e-06
1.72718e-07
1.52818e-08
1.36725e-07
3.12853e-07
5.23323e-07
7.57714e-07
1.00945e-06
1.27412e-06
1.54892e-06
1.83244e-06
2.12456e-06
2.42639e-06
2.74021e-06
3.06939e-06
3.41835e-06
3.79242e-06
4.19782e-06
4.64154e-06
5.1313e-06
5.67546e-06
6.28294e-06
6.9632e-06
7.7261e-06
8.58185e-06
9.54093e-06
1.06139e-05
1.18114e-05
1.31438e-05
1.46211e-05
1.62526e-05
1.80467e-05
2.00106e-05
2.21495e-05
2.44668e-05
2.69632e-05
2.96367e-05
3.24817e-05
3.54895e-05
3.86475e-05
4.19402e-05
4.53489e-05
4.88526e-05
5.2429e-05
5.60553e-05
5.97085e-05
6.33663e-05
6.7007e-05
7.06083e-05
7.41457e-05
7.75904e-05
8.09055e-05
8.40425e-05
8.69376e-05
8.95073e-05
9.16476e-05
9.31817e-05
9.38976e-05
9.40412e-05
9.31316e-05
9.09837e-05
8.75809e-05
8.28967e-05
7.69801e-05
6.99775e-05
6.21347e-05
5.37808e-05
4.52941e-05
3.70543e-05
2.93913e-05
2.25436e-05
1.66372e-05
1.169e-05
7.63928e-06
4.38813e-06
1.87619e-06
2.08893e-07
1.83395e-08
1.64236e-07
3.76151e-07
6.29653e-07
9.12116e-07
1.21551e-06
1.53446e-06
1.86551e-06
2.20696e-06
2.55866e-06
2.92197e-06
3.29971e-06
3.69602e-06
4.11628e-06
4.56705e-06
5.05592e-06
5.59148e-06
6.18318e-06
6.84126e-06
7.57668e-06
8.40106e-06
9.32651e-06
1.03656e-05
1.15312e-05
1.28362e-05
1.42935e-05
1.59156e-05
1.77144e-05
1.97006e-05
2.18833e-05
2.42698e-05
2.68643e-05
2.96681e-05
3.26784e-05
3.58881e-05
3.92853e-05
4.28537e-05
4.65724e-05
5.04167e-05
5.43595e-05
5.83724e-05
6.24275e-05
6.64989e-05
7.05636e-05
7.46021e-05
7.85979e-05
8.25354e-05
8.63979e-05
9.01628e-05
9.37974e-05
9.72538e-05
0.000100464
0.000103336
0.000105751
0.000107534
0.000108397
0.00010861
0.000107687
0.000105353
0.000101599
9.63805e-05
8.97352e-05
8.18086e-05
7.28607e-05
6.32534e-05
5.34162e-05
4.37943e-05
3.47882e-05
2.66997e-05
1.97006e-05
1.38306e-05
9.02653e-06
5.17742e-06
2.21054e-06
2.45882e-07
2.15865e-08
1.93434e-07
4.43325e-07
7.42505e-07
1.07601e-06
1.43425e-06
1.81079e-06
2.20152e-06
2.60437e-06
3.01919e-06
3.44765e-06
3.89312e-06
4.36059e-06
4.85654e-06
5.38884e-06
5.96663e-06
6.60019e-06
7.30088e-06
8.08102e-06
8.95378e-06
9.93311e-06
1.10336e-05
1.22702e-05
1.36584e-05
1.52136e-05
1.69508e-05
1.88847e-05
2.10285e-05
2.33937e-05
2.59897e-05
2.88223e-05
3.18934e-05
3.52001e-05
3.87338e-05
4.248e-05
4.64181e-05
5.05216e-05
5.47593e-05
5.90967e-05
6.34983e-05
6.79298e-05
7.23604e-05
7.6765e-05
8.11254e-05
8.54298e-05
8.96711e-05
9.38446e-05
9.79423e-05
0.000101949
0.000105834
0.000109549
0.000113019
0.000116142
0.000118787
0.000120779
0.000121765
0.000122036
0.000121116
0.000118648
0.000114631
0.000109002
0.000101782
9.31036e-05
8.32258e-05
7.25247e-05
6.14656e-05
5.05498e-05
4.02474e-05
3.09311e-05
2.28301e-05
1.60184e-05
1.04421e-05
5.98076e-06
2.55002e-06
2.83552e-07
2.50257e-08
2.24351e-07
5.14435e-07
8.61961e-07
1.24948e-06
1.66576e-06
2.1032e-06
2.55698e-06
3.02469e-06
3.50615e-06
4.00336e-06
4.52034e-06
5.063e-06
5.63901e-06
6.25769e-06
6.92982e-06
7.66759e-06
8.4844e-06
9.39481e-06
1.04144e-05
1.15595e-05
1.28474e-05
1.42958e-05
1.59225e-05
1.77454e-05
1.97817e-05
2.20475e-05
2.45572e-05
2.73223e-05
3.03508e-05
3.36458e-05
3.72049e-05
4.10187e-05
4.50704e-05
4.93355e-05
5.37823e-05
5.83726e-05
6.30641e-05
6.7813e-05
7.25771e-05
7.73194e-05
8.2011e-05
8.66327e-05
9.11759e-05
9.56409e-05
0.000100034
0.00010436
0.000108622
0.000112806
0.000116884
0.000120799
0.000124471
0.000127784
0.000130598
0.000132737
0.000133805
0.000134114
0.0001332
0.000130647
0.000126454
0.000120545
0.000112917
0.000103681
9.30748e-05
8.14709e-05
6.93512e-05
5.72601e-05
4.57331e-05
3.5219e-05
2.60168e-05
1.82493e-05
1.18835e-05
6.79652e-06
2.89389e-06
3.21765e-07
2.86627e-08
2.57037e-07
5.89597e-07
9.88201e-07
1.43276e-06
1.91031e-06
2.41201e-06
2.93227e-06
3.46829e-06
4.01991e-06
4.5895e-06
5.18177e-06
5.80364e-06
6.46409e-06
7.17401e-06
7.94598e-06
8.79419e-06
9.73429e-06
1.07832e-05
1.1959e-05
1.32808e-05
1.47685e-05
1.64423e-05
1.83227e-05
2.04297e-05
2.27825e-05
2.53982e-05
2.82912e-05
3.1472e-05
3.49457e-05
3.87109e-05
4.27585e-05
4.70701e-05
5.16185e-05
5.63669e-05
6.12708e-05
6.62798e-05
7.13412e-05
7.64039e-05
8.14229e-05
8.63634e-05
9.12036e-05
9.59358e-05
0.000100565
0.000105108
0.000109581
0.000114002
0.000118376
0.00012269
0.00012691
0.000130972
0.000134782
0.000138219
0.000141132
0.000143345
0.00014445
0.000144774
0.000143855
0.00014126
0.000136977
0.000130913
0.000123042
0.000113441
0.000102317
9.00153e-05
7.70151e-05
6.38871e-05
5.12245e-05
3.9555e-05
2.92591e-05
2.05239e-05
1.33515e-05
7.62487e-06
3.24207e-06
3.60493e-07
3.25053e-08
2.91566e-07
6.68974e-07
1.12149e-06
1.62623e-06
2.16835e-06
2.73774e-06
3.32795e-06
3.9358e-06
4.56116e-06
5.20677e-06
5.87813e-06
6.58326e-06
7.33255e-06
8.13858e-06
9.01588e-06
9.9808e-06
1.10513e-05
1.22469e-05
1.35884e-05
1.50974e-05
1.67966e-05
1.87089e-05
2.08572e-05
2.32634e-05
2.59478e-05
2.8928e-05
3.22173e-05
3.58237e-05
3.97476e-05
4.3981e-05
4.85056e-05
5.32921e-05
5.83001e-05
6.34795e-05
6.87723e-05
7.41168e-05
7.94522e-05
8.47243e-05
8.98901e-05
9.4923e-05
9.98137e-05
0.000104571
0.000109216
0.000113779
0.00011829
0.000122771
0.000127225
0.000131635
0.000135955
0.000140112
0.000144001
0.000147494
0.000150439
0.000152655
0.000153754
0.000154071
0.000153131
0.000150527
0.000146226
0.000140115
0.000132147
0.000122361
0.000110917
9.812e-05
8.44249e-05
7.04092e-05
5.67118e-05
4.39382e-05
3.25607e-05
2.28469e-05
1.48494e-05
8.46732e-06
3.59504e-06
3.99779e-07
3.65633e-08
3.28026e-07
7.52765e-07
1.26214e-06
1.83032e-06
2.44046e-06
3.08106e-06
3.7448e-06
4.42808e-06
5.13079e-06
5.85611e-06
6.61039e-06
7.40284e-06
8.24539e-06
9.1524e-06
1.01405e-05
1.12283e-05
1.24364e-05
1.37867e-05
1.53028e-05
1.70092e-05
1.89311e-05
2.10941e-05
2.35229e-05
2.6241e-05
2.92693e-05
3.26246e-05
3.6318e-05
4.03529e-05
4.47236e-05
4.94128e-05
5.4391e-05
5.96157e-05
6.50323e-05
7.05765e-05
7.6178e-05
8.1766e-05
8.72758e-05
9.26551e-05
9.78693e-05
0.000102905
0.000107772
0.000112495
0.000117114
0.000121672
0.000126204
0.000130731
0.000135251
0.000139735
0.000144124
0.000148332
0.000152249
0.000155741
0.000158661
0.00016082
0.000161878
0.000162172
0.000161193
0.000158594
0.000154329
0.000148253
0.000140301
0.000130474
0.000118882
0.000105776
9.15656e-05
7.68147e-05
6.21908e-05
4.83719e-05
3.59287e-05
2.52254e-05
1.63822e-05
9.32637e-06
3.95365e-06
4.39711e-07
4.0848e-08
3.66521e-07
8.41204e-07
1.41054e-06
2.04556e-06
2.7273e-06
3.44278e-06
4.18374e-06
4.94613e-06
5.72987e-06
6.53865e-06
7.37969e-06
8.26352e-06
9.20369e-06
1.02165e-05
1.13208e-05
1.25376e-05
1.389e-05
1.54028e-05
1.71022e-05
1.90154e-05
2.11703e-05
2.35946e-05
2.63147e-05
2.93549e-05
3.27357e-05
3.64721e-05
4.05712e-05
4.50305e-05
4.98353e-05
5.49575e-05
6.03543e-05
6.59687e-05
7.17312e-05
7.75643e-05
8.33875e-05
8.91252e-05
9.4714e-05
0.000100109
0.000105292
0.000110266
0.000115061
0.000119723
0.000124305
0.000128857
0.000133416
0.000137996
0.000142582
0.000147129
0.000151567
0.000155799
0.000159707
0.00016316
0.000166015
0.000168077
0.00016907
0.000169327
0.000168292
0.000165697
0.000161488
0.000155495
0.000147628
0.000137862
0.000126255
0.000112996
9.8433e-05
8.30957e-05
6.76584e-05
5.28595e-05
3.93709e-05
2.76675e-05
1.79558e-05
1.02052e-05
4.319e-06
4.80406e-07
4.53722e-08
4.07164e-07
9.3455e-07
1.56712e-06
2.27257e-06
3.02965e-06
3.82383e-06
4.64582e-06
5.4911e-06
6.35963e-06
7.25562e-06
8.18727e-06
9.1665e-06
1.02086e-05
1.1332e-05
1.25577e-05
1.39093e-05
1.54126e-05
1.7095e-05
1.89856e-05
2.11143e-05
2.35111e-05
2.62055e-05
2.92253e-05
3.25946e-05
3.63326e-05
4.04508e-05
4.49509e-05
4.98224e-05
5.504e-05
6.05626e-05
6.63328e-05
7.22785e-05
7.83162e-05
8.43571e-05
9.03147e-05
9.61135e-05
0.000101697
0.000107036
0.000112129
0.000117004
0.000121711
0.000126313
0.000130873
0.000135444
0.000140055
0.000144709
0.000149375
0.000153993
0.000158476
0.00016272
0.000166605
0.000170002
0.000172774
0.000174719
0.000175632
0.000175843
0.000174732
0.000172126
0.000167957
0.000162055
0.000154299
0.000144642
0.000133104
0.000119806
0.00010503
8.92444e-05
7.31085e-05
5.74017e-05
4.28935e-05
3.01812e-05
1.95766e-05
1.11071e-05
4.69233e-06
5.21994e-07
5.01497e-08
4.50082e-07
1.03309e-06
1.73235e-06
2.51199e-06
3.34836e-06
4.22521e-06
5.13219e-06
6.06424e-06
7.02136e-06
8.00832e-06
9.0344e-06
1.0113e-05
1.12612e-05
1.24996e-05
1.38517e-05
1.53436e-05
1.70038e-05
1.88626e-05
2.09515e-05
2.33029e-05
2.59489e-05
2.89204e-05
3.22454e-05
3.59474e-05
4.00425e-05
4.45378e-05
4.94276e-05
5.46914e-05
6.02919e-05
6.61736e-05
7.22638e-05
7.84758e-05
8.4714e-05
9.0882e-05
9.68918e-05
0.000102674
0.000108186
0.000113418
0.000118392
0.000123159
0.000127789
0.000132358
0.000136935
0.000141566
0.000146271
0.000151035
0.00015581
0.000160518
0.000165062
0.000169329
0.000173198
0.000176544
0.000179239
0.000181061
0.00018189
0.000182049
0.000180839
0.000178193
0.000174026
0.000168178
0.000160511
0.000150959
0.000139517
0.000126251
0.000111363
9.52521e-05
7.85304e-05
6.19945e-05
4.64998e-05
3.27732e-05
2.12504e-05
1.20356e-05
5.07484e-06
5.64608e-07
5.51954e-08
4.9541e-07
1.13713e-06
1.90673e-06
2.76454e-06
3.68432e-06
4.64801e-06
5.64405e-06
6.66684e-06
7.7164e-06
8.7981e-06
9.92232e-06
1.1104e-05
1.23623e-05
1.372e-05
1.52031e-05
1.68404e-05
1.8663e-05
2.07039e-05
2.29971e-05
2.55772e-05
2.84778e-05
3.17308e-05
3.53636e-05
3.93976e-05
4.38453e-05
4.87071e-05
5.39686e-05
5.9598e-05
6.55441e-05
7.17365e-05
7.80877e-05
8.44978e-05
9.08622e-05
9.70814e-05
0.000103072
0.000108776
0.000114171
0.000119271
0.000124123
0.0001288
0.000133389
0.000137974
0.000142622
0.000147371
0.000152224
0.000157146
0.000162071
0.000166907
0.000171545
0.000175865
0.000179746
0.000183067
0.000185707
0.00018742
0.000188167
0.000188269
0.000186937
0.000184212
0.000179987
0.000174122
0.00016648
0.00015698
0.000145607
0.000132387
0.000117451
0.00010111
8.39088e-05
6.6628e-05
5.01886e-05
3.54477e-05
2.29822e-05
1.29937e-05
5.46768e-06
6.08373e-07
6.05255e-08
5.43292e-07
1.24699e-06
2.09079e-06
3.03097e-06
4.03851e-06
5.09336e-06
6.1827e-06
7.30027e-06
8.44612e-06
9.62624e-06
1.08522e-05
1.21406e-05
1.35127e-05
1.49936e-05
1.66118e-05
1.83989e-05
2.03886e-05
2.26163e-05
2.51186e-05
2.79316e-05
3.10903e-05
3.46263e-05
3.8566e-05
4.29276e-05
4.77182e-05
5.29305e-05
5.85398e-05
6.45014e-05
7.07499e-05
7.71999e-05
8.37503e-05
9.02907e-05
9.67116e-05
0.000102916
0.00010883
0.000114414
0.00011967
0.000124637
0.000129388
0.000134016
0.00013862
0.000143287
0.000148076
0.00015301
0.000158074
0.000163213
0.000168342
0.000173356
0.000178135
0.000182555
0.000186494
0.000189833
0.000192452
0.000194083
0.000194757
0.000194799
0.000193325
0.000190475
0.000186125
0.000180149
0.000172431
0.000162887
0.000151505
0.000138292
0.00012332
0.000106815
8.9226e-05
7.12866e-05
5.39538e-05
3.8206e-05
2.47759e-05
1.39842e-05
5.87183e-06
6.53396e-07
6.61567e-08
5.9388e-07
1.36303e-06
2.28511e-06
3.31208e-06
4.41194e-06
5.56248e-06
6.74945e-06
7.9659e-06
9.21187e-06
1.0494e-05
1.18251e-05
1.32236e-05
1.47128e-05
1.63204e-05
1.80773e-05
2.00178e-05
2.21783e-05
2.45966e-05
2.73111e-05
3.03594e-05
3.3777e-05
3.7595e-05
4.18372e-05
4.65176e-05
5.16368e-05
5.71784e-05
6.3106e-05
6.93615e-05
7.5865e-05
8.25171e-05
8.92052e-05
9.58122e-05
0.000102228
0.000108364
0.000114162
0.000119605
0.000124722
0.000129579
0.000134272
0.000138911
0.000143602
0.000148427
0.000153433
0.000158628
0.000163973
0.000169395
0.000174792
0.000180045
0.000185024
0.000189603
0.000193655
0.00019706
0.000199703
0.000201288
0.000201913
0.000201883
0.000200259
0.000197241
0.000192697
0.000186511
0.000178593
0.000168874
0.000157359
0.000144062
0.000129018
0.00011237
9.44648e-05
7.5951e-05
5.77843e-05
4.10463e-05
2.66337e-05
1.50092e-05
6.28807e-06
6.99765e-07
7.21071e-08
6.47335e-07
1.4856e-06
2.49029e-06
3.60872e-06
4.80566e-06
6.05658e-06
7.34565e-06
8.66512e-06
1.0015e-05
1.14025e-05
1.2842e-05
1.43535e-05
1.59628e-05
1.76998e-05
1.95984e-05
2.16952e-05
2.40292e-05
2.66403e-05
2.95685e-05
3.28525e-05
3.65276e-05
4.06232e-05
4.51599e-05
5.01465e-05
5.55756e-05
6.14205e-05
6.76327e-05
7.41402e-05
8.08491e-05
8.76479e-05
9.44156e-05
0.000101032
0.000107393
0.000113422
0.000119083
0.000124386
0.000129385
0.000134174
0.00013887
0.000143594
0.000148452
0.000153518
0.000158825
0.000164358
0.000170059
0.000175836
0.000181569
0.000187127
0.000192372
0.000197171
0.000201395
0.00020492
0.00020763
0.000209212
0.000209819
0.00020971
0.000207939
0.000204721
0.00019992
0.00019343
0.000185183
0.000175142
0.000163337
0.000149816
0.000134608
0.000117795
9.96134e-05
8.06001e-05
6.16653e-05
4.39633e-05
2.8556e-05
1.60702e-05
6.71698e-06
7.47545e-07
7.83955e-08
7.03822e-07
1.61509e-06
2.70694e-06
3.92174e-06
5.22078e-06
6.57695e-06
7.97267e-06
9.39928e-06
1.08567e-05
1.23529e-05
1.39034e-05
1.55306e-05
1.72622e-05
1.9131e-05
2.11732e-05
2.34283e-05
2.59372e-05
2.8742e-05
3.18838e-05
3.54017e-05
3.933e-05
4.3696e-05
4.8516e-05
5.37921e-05
5.95084e-05
6.56271e-05
7.20868e-05
7.88023e-05
8.56671e-05
9.256e-05
9.93549e-05
0.000105934
0.000112204
0.000118105
0.000123626
0.000128806
0.000133728
0.000138508
0.00014328
0.000148171
0.000153282
0.000158675
0.000164365
0.000170316
0.000176449
0.000182651
0.000188789
0.000194719
0.000200294
0.000205373
0.000209824
0.000213521
0.000216343
0.000217964
0.000218576
0.000218404
0.000216498
0.000213066
0.000207966
0.000201096
0.000192402
0.000181881
0.000169611
0.000155691
0.000140178
0.000123124
0.000104669
8.52143e-05
6.55789e-05
4.69491e-05
3.05417e-05
1.71682e-05
7.15891e-06
7.96777e-07
8.5044e-08
7.63512e-07
1.75189e-06
2.93572e-06
4.25206e-06
5.65843e-06
7.12488e-06
8.63188e-06
1.01697e-05
1.17381e-05
1.33458e-05
1.501e-05
1.67548e-05
1.86105e-05
2.06125e-05
2.27997e-05
2.52137e-05
2.78978e-05
3.08955e-05
3.42487e-05
3.79964e-05
4.21714e-05
4.67975e-05
5.18861e-05
5.7432e-05
6.34095e-05
6.97695e-05
7.64381e-05
8.33175e-05
9.02907e-05
9.72298e-05
0.000104008
0.000110515
0.00011667
0.000122438
0.000127835
0.000132928
0.000137826
0.000142668
0.000147597
0.00015274
0.000158192
0.000163998
0.000170152
0.000176596
0.000183231
0.000189927
0.000196534
0.000202895
0.000208856
0.000214267
0.000218993
0.000222904
0.000225882
0.000227582
0.000228219
0.000228017
0.000226002
0.000222362
0.000216949
0.00020965
0.000200415
0.000189273
0.000176355
0.000161836
0.000145835
0.000128416
0.000109644
8.97784e-05
6.95063e-05
4.99928e-05
3.25881e-05
1.83033e-05
7.61399e-06
8.47477e-07
9.20726e-08
8.2659e-07
1.89642e-06
3.17731e-06
4.60062e-06
6.11976e-06
7.70167e-06
9.32461e-06
1.09776e-05
1.26603e-05
1.43822e-05
1.61618e-05
1.80257e-05
2.00066e-05
2.21424e-05
2.44746e-05
2.70473e-05
2.99054e-05
3.30936e-05
3.66543e-05
4.06255e-05
4.50378e-05
4.99112e-05
5.5251e-05
6.10438e-05
6.72542e-05
7.38215e-05
8.066e-05
8.76608e-05
9.46988e-05
0.000101643
0.00010837
0.000114781
0.000120815
0.000126461
0.000131764
0.000136819
0.000141759
0.00014674
0.000151909
0.000157391
0.000163268
0.000169566
0.000176259
0.000183266
0.000190468
0.000197716
0.000204845
0.000211686
0.000218074
0.000223856
0.000228891
0.000233052
0.000236218
0.000238037
0.00023872
0.000238528
0.000236445
0.00023263
0.000226919
0.000219178
0.000209346
0.000197469
0.000183736
0.000168407
0.000151703
0.000133744
0.000114563
9.42855e-05
7.34292e-05
5.3082e-05
3.46911e-05
1.94752e-05
8.08216e-06
8.99641e-07
9.95022e-08
8.93252e-07
2.04911e-06
3.43241e-06
4.96839e-06
6.60599e-06
8.30866e-06
1.00522e-05
1.18243e-05
1.36242e-05
1.54623e-05
1.73589e-05
1.93426e-05
2.14489e-05
2.37182e-05
2.61947e-05
2.89243e-05
3.19537e-05
3.53284e-05
3.90906e-05
4.32769e-05
4.7915e-05
5.30202e-05
5.85913e-05
6.46064e-05
7.10199e-05
7.77601e-05
8.47304e-05
9.18132e-05
9.88781e-05
0.000105795
0.000112447
0.000118752
0.00012467
0.000130219
0.000135471
0.000140547
0.000145602
0.000150801
0.000156294
0.000162198
0.000168578
0.000175441
0.000182738
0.000190368
0.000198189
0.000206034
0.000213724
0.000221077
0.00022792
0.000234095
0.000239459
0.000243889
0.000247268
0.000249242
0.000249992
0.000249852
0.000247758
0.000243823
0.000237863
0.000229706
0.000219266
0.000206584
0.000191896
0.000175558
0.000157917
0.000139205
0.000119473
9.87387e-05
7.73323e-05
5.62032e-05
3.68452e-05
2.06829e-05
8.56319e-06
9.53245e-07
1.07355e-07
9.637e-07
2.21043e-06
3.70176e-06
5.35638e-06
7.11832e-06
8.94719e-06
1.0816e-05
1.27107e-05
1.46305e-05
1.65865e-05
1.86007e-05
2.07042e-05
2.29353e-05
2.53369e-05
2.79555e-05
3.08393e-05
3.40359e-05
3.75914e-05
4.15473e-05
4.59382e-05
5.07885e-05
5.61081e-05
6.18888e-05
6.81e-05
7.46863e-05
8.15657e-05
8.86324e-05
9.57623e-05
0.000102823
0.000109688
0.000116254
0.000122455
0.000128276
0.000133764
0.000139017
0.000144181
0.000149426
0.000154922
0.000160818
0.000167219
0.000174172
0.000181662
0.000189618
0.000197916
0.000206393
0.000214866
0.000223138
0.000231017
0.000238323
0.000244894
0.000250591
0.000255295
0.0002589
0.000261064
0.000261907
0.000261852
0.000259815
0.000255837
0.000249705
0.000241202
0.000230191
0.000216685
0.000200949
0.000183425
0.000164615
0.000144906
0.000124434
0.000103154
8.1205e-05
5.93425e-05
3.90439e-05
2.1925e-05
9.05669e-06
1.00825e-06
1.15656e-07
1.03815e-06
2.38084e-06
3.98613e-06
5.76563e-06
7.65801e-06
9.61858e-06
1.16172e-05
1.3638e-05
1.56798e-05
1.77546e-05
1.98866e-05
2.21092e-05
2.44633e-05
2.69949e-05
2.97526e-05
3.27862e-05
3.61446e-05
3.98735e-05
4.40136e-05
4.8597e-05
5.36439e-05
5.91589e-05
6.51263e-05
7.15071e-05
7.82364e-05
8.52233e-05
9.23547e-05
9.95026e-05
0.000106536
0.000113336
0.000119813
0.000125923
0.000131678
0.00013715
0.000142464
0.000147784
0.000153293
0.000159162
0.000165534
0.000172498
0.000180081
0.000188249
0.000196903
0.000205899
0.000215054
0.000224165
0.000233022
0.000241422
0.000249179
0.000256134
0.000262151
0.000267122
0.00027095
0.000273336
0.000274308
0.000274352
0.00027245
0.000268517
0.000262316
0.000253571
0.000242076
0.000227789
0.000210966
0.000192126
0.000171929
0.000150966
0.000129523
0.00010756
8.5043e-05
6.24867e-05
4.12797e-05
2.31994e-05
9.56216e-06
1.0646e-06
1.24429e-07
1.11681e-06
2.56084e-06
4.2863e-06
6.1972e-06
8.22632e-06
1.03242e-05
1.2457e-05
1.4607e-05
1.67725e-05
1.89666e-05
2.12154e-05
2.35554e-05
2.60302e-05
2.86883e-05
3.15808e-05
3.47588e-05
3.82718e-05
4.21655e-05
4.64787e-05
5.12408e-05
5.64677e-05
6.21579e-05
6.82886e-05
7.48127e-05
8.16568e-05
8.87225e-05
9.58915e-05
0.000103035
0.000110025
0.000116756
0.000123153
0.000129196
0.000134923
0.00014043
0.000145867
0.000151414
0.000157257
0.000163568
0.000170478
0.000178059
0.000186319
0.000195198
0.000204575
0.000214282
0.000224117
0.000233859
0.000243284
0.000252183
0.000260366
0.000267677
0.000273989
0.000279205
0.000283245
0.000285871
0.000287012
0.000287162
0.000285468
0.000281676
0.000275524
0.00026667
0.000254823
0.000239854
0.000221972
0.000201741
0.000179975
0.000157501
0.000134829
0.000111999
8.88499e-05
6.56244e-05
4.35443e-05
2.45038e-05
1.00789e-05
1.12222e-06
1.337e-07
1.19993e-06
2.75094e-06
4.60311e-06
6.65222e-06
8.82457e-06
1.10653e-05
1.33366e-05
1.56185e-05
1.79087e-05
2.02217e-05
2.25859e-05
2.50406e-05
2.76325e-05
3.04127e-05
3.34344e-05
3.67501e-05
4.04097e-05
4.4458e-05
4.8932e-05
5.38579e-05
5.9247e-05
6.50918e-05
7.13628e-05
7.80051e-05
8.49381e-05
9.20577e-05
9.92428e-05
0.000106366
0.000113307
0.000119972
0.000126308
0.000132316
0.000138058
0.000143657
0.00014928
0.000155119
0.000161362
0.000168174
0.000175674
0.000183915
0.000192881
0.00020249
0.000212597
0.000223012
0.000233511
0.000243858
0.00025382
0.000263179
0.000271748
0.000279375
0.000285947
0.00029138
0.000295612
0.000298487
0.000299819
0.000300091
0.000298667
0.000295108
0.00028913
0.000280318
0.000268284
0.000252786
0.00023394
0.000212312
0.000188847
0.000164626
0.000140448
0.000116526
9.26379e-05
6.87466e-05
4.58292e-05
2.58353e-05
1.06063e-05
1.18102e-06
1.43496e-07
1.28774e-06
2.95168e-06
4.93741e-06
7.13182e-06
9.45406e-06
1.18432e-05
1.42571e-05
1.6673e-05
1.90885e-05
2.15193e-05
2.39963e-05
2.65621e-05
2.92665e-05
3.21634e-05
3.53078e-05
3.87534e-05
4.25501e-05
4.67418e-05
5.13633e-05
5.64373e-05
6.19704e-05
6.79496e-05
7.43385e-05
8.10759e-05
8.80751e-05
9.52282e-05
0.000102414
0.000109508
0.000116401
0.000123014
0.000129313
0.000135324
0.000141132
0.000146879
0.000152749
0.00015894
0.00016564
0.000173002
0.000181131
0.000190059
0.000199748
0.00021009
0.000220918
0.000232017
0.000243149
0.000254062
0.000264513
0.000274283
0.000283188
0.000291085
0.000297875
0.000303493
0.000307893
0.000311007
0.00031255
0.000312961
0.000311849
0.000308607
0.000302922
0.00029431
0.000282276
0.000266444
0.000246793
0.000223836
0.000198607
0.00017244
0.000146478
0.000121206
9.64285e-05
7.18482e-05
4.81257e-05
2.71905e-05
1.11432e-05
1.24091e-06
1.53847e-07
1.3805e-06
3.16362e-06
5.29011e-06
7.63719e-06
1.01161e-05
1.26593e-05
1.52194e-05
1.77712e-05
2.03116e-05
2.28581e-05
2.54446e-05
2.81169e-05
3.09283e-05
3.39353e-05
3.71949e-05
4.07615e-05
4.46851e-05
4.90081e-05
5.37631e-05
5.89691e-05
6.46283e-05
7.07221e-05
7.72084e-05
8.40202e-05
9.10668e-05
9.82383e-05
0.000105415
0.000112479
0.000119333
0.000125913
0.000132208
0.000138264
0.000144188
0.000150139
0.000156314
0.000162912
0.000170113
0.000178064
0.000186847
0.000196476
0.000206887
0.000217949
0.000229471
0.00024122
0.000252938
0.000264363
0.000275247
0.00028537
0.000294556
0.000302673
0.000309639
0.000315408
0.000319958
0.000323266
0.000325045
0.000325611
0.000324836
0.000321978
0.000316693
0.000308431
0.000296591
0.000280649
0.000260405
0.000236261
0.000209279
0.000181021
0.000153014
0.00012611
0.000100252
7.49278e-05
5.04255e-05
2.85653e-05
1.16887e-05
1.30176e-06
1.64782e-07
1.47846e-06
3.38736e-06
5.66212e-06
8.16955e-06
1.08122e-05
1.35148e-05
1.62245e-05
1.89132e-05
2.15774e-05
2.42368e-05
2.69284e-05
2.97018e-05
3.26137e-05
3.57234e-05
3.90897e-05
4.27678e-05
4.68071e-05
5.12489e-05
5.61231e-05
6.14452e-05
6.7213e-05
7.3403e-05
7.99682e-05
8.68372e-05
9.39166e-05
0.000101096
0.000108261
0.0001153
0.00012213
0.000128705
0.000135032
0.000141178
0.000147268
0.000153476
0.000160006
0.000167056
0.000174797
0.000183359
0.00019281
0.000203138
0.000214256
0.00022601
0.000238186
0.000250533
0.00026278
0.000274656
0.000285909
0.000296325
0.000305735
0.000314022
0.000321121
0.000327008
0.000331683
0.000335152
0.000337179
0.000337914
0.000337478
0.000335052
0.000330253
0.000322475
0.000311014
0.000295196
0.000274614
0.000249492
0.000220847
0.00019042
0.000160139
0.000131314
0.000104146
7.79891e-05
5.27205e-05
2.99555e-05
1.22415e-05
1.36343e-06
1.76333e-07
1.58191e-06
3.6235e-06
6.05443e-06
8.73015e-06
1.15435e-05
1.44109e-05
1.72733e-05
2.00992e-05
2.28854e-05
2.56538e-05
2.84453e-05
3.13133e-05
3.43184e-05
3.75226e-05
4.09864e-05
4.47657e-05
4.89095e-05
5.34572e-05
5.84363e-05
6.3859e-05
6.97191e-05
7.59889e-05
8.26172e-05
8.95298e-05
9.6632e-05
0.000103816
0.00011097
0.000117997
0.000124824
0.000131424
0.000137822
0.000144103
0.000150408
0.000156921
0.000163852
0.00017139
0.000179694
0.000188882
0.000198998
0.000210009
0.000221805
0.000234208
0.000246986
0.000259871
0.000272581
0.00028484
0.000296397
0.000307044
0.000316623
0.000325034
0.000332228
0.000338202
0.000342976
0.000346576
0.000348853
0.000349778
0.000349658
0.000347692
0.000343439
0.000336253
0.000325337
0.000309871
0.000289228
0.00026339