/*--------------------------------*- C++ -*----------------------------------*\
  =========                 |
  \\      /  F ield         | OpenFOAM: The Open Source CFD Toolbox
   \\    /   O peration     | Website:  https://openfoam.org
    \\  /    A nd           | Version:  12
     \\/     M anipulation  |
\*---------------------------------------------------------------------------*/
FoamFile
{
    format      ascii;
    class       surfaceScalarField;
    location    "5.5";
    object      phi;
}
// * * * * * * * * * * * * * * * * * * * * * * * * * * * * * * * * * * * * * //

dimensions      [0 3 -1 0 0 0 0];

internalField   nonuniform List<scalar> 
11100
(
-2.62374e-11
2.56772e-11
4.5175e-10
-4.77964e-10
1.36023e-09
-9.0846e-10
2.53104e-09
-1.1708e-09
3.82894e-09
-1.29791e-09
5.15368e-09
-1.32477e-09
6.43519e-09
-1.28152e-09
7.6265e-09
-1.19131e-09
8.69781e-09
-1.07132e-09
9.63175e-09
-9.33934e-10
1.04195e-08
-7.87751e-10
1.10578e-08
-6.38264e-10
1.15463e-08
-4.8855e-10
1.1886e-08
-3.39715e-10
1.20771e-08
-1.91027e-10
1.21183e-08
-4.12012e-11
1.2005e-08
1.13242e-10
1.17287e-08
2.76267e-10
1.12764e-08
4.52387e-10
1.06291e-08
6.4724e-10
9.76209e-09
8.67024e-10
8.64321e-09
1.11887e-09
7.23312e-09
1.4101e-09
5.48403e-09
1.74909e-09
3.33964e-09
2.14438e-09
7.34431e-10
2.60521e-09
-2.40661e-09
3.14104e-09
-6.16815e-09
3.76154e-09
-1.06445e-08
4.4763e-09
-1.59387e-08
5.29424e-09
-2.21622e-08
6.2235e-09
-2.94331e-08
7.2709e-09
-3.78741e-08
8.44103e-09
-4.76096e-08
9.73549e-09
-5.87616e-08
1.11519e-08
-7.14446e-08
1.2683e-08
-8.57598e-08
1.43153e-08
-1.01788e-07
1.60281e-08
-1.19581e-07
1.77927e-08
-1.39152e-07
1.95713e-08
-1.60469e-07
2.13166e-08
-1.8344e-07
2.29716e-08
-2.0791e-07
2.44699e-08
-2.33646e-07
2.57363e-08
-2.60335e-07
2.66884e-08
-2.87573e-07
2.72382e-08
-3.14868e-07
2.72946e-08
-3.41635e-07
2.6767e-08
-3.67203e-07
2.55684e-08
-3.90824e-07
2.36209e-08
-4.1168e-07
2.08558e-08
-4.28868e-07
1.71881e-08
-4.41519e-07
1.26516e-08
-4.48929e-07
7.40944e-09
-4.50253e-07
1.32464e-09
-4.44776e-07
-5.47762e-09
-4.3213e-07
-1.26454e-08
-4.12143e-07
-1.99875e-08
-3.84992e-07
-2.71514e-08
-3.51249e-07
-3.37424e-08
-3.11914e-07
-3.93351e-08
-2.68401e-07
-4.35126e-08
-2.22487e-07
-4.59144e-08
-1.76197e-07
-4.62902e-08
-1.31649e-07
-4.45478e-08
-9.08643e-08
-4.07848e-08
-5.55728e-08
-3.52915e-08
-2.70505e-08
-2.85223e-08
-6.01284e-09
-2.10377e-08
7.42777e-09
-1.34406e-08
1.37242e-08
-6.29646e-09
1.39027e-08
-1.78515e-10
9.60996e-09
4.29278e-09
3.57874e-09
6.03122e-09
3.57874e-09
2.86336e-10
-2.60619e-10
1.71765e-09
-1.90924e-09
4.15251e-09
-3.34329e-09
7.23859e-09
-4.25688e-09
1.06547e-08
-4.71401e-09
1.41466e-08
-4.81673e-09
1.75273e-08
-4.66223e-09
2.06657e-08
-4.32975e-09
2.34746e-08
-3.88022e-09
2.58993e-08
-3.35859e-09
2.7908e-08
-2.79646e-09
2.9484e-08
-2.21427e-09
3.0619e-08
-1.62354e-09
3.13076e-08
-1.02833e-09
3.15427e-08
-4.26121e-10
3.13128e-08
1.88703e-10
3.05965e-08
8.29547e-10
2.93615e-08
1.51128e-09
2.75621e-08
2.25173e-09
2.51365e-08
3.07291e-09
2.20046e-08
3.99888e-09
1.80666e-08
5.05688e-09
1.3201e-08
6.27573e-09
7.2632e-09
7.68686e-09
8.46371e-11
9.32294e-09
-8.52945e-09
1.12193e-08
-1.87999e-08
1.34114e-08
-3.09723e-08
1.5934e-08
-4.53163e-08
1.88203e-08
-6.21239e-08
2.21018e-08
-8.17057e-08
2.58054e-08
-1.04385e-07
2.99507e-08
-1.30492e-07
3.45476e-08
-1.6035e-07
3.95932e-08
-1.94265e-07
4.50675e-08
-2.32513e-07
5.09303e-08
-2.75314e-07
5.71167e-08
-3.2282e-07
6.3534e-08
-3.75085e-07
7.0058e-08
-4.32046e-07
7.65317e-08
-4.93493e-07
8.27639e-08
-5.59052e-07
8.85302e-08
-6.28157e-07
9.35752e-08
-7.00038e-07
9.76174e-08
-7.73705e-07
1.00355e-07
-8.47943e-07
1.01476e-07
-9.21313e-07
1.00665e-07
-9.92166e-07
9.76198e-08
-1.05866e-06
9.20628e-08
-1.1188e-06
8.3759e-08
-1.17047e-06
7.25268e-08
-1.21151e-06
5.82255e-08
-1.23962e-06
4.07613e-08
-1.2531e-06
2.08933e-08
-1.2502e-06
-1.57497e-09
-1.22952e-06
-2.61589e-08
-1.19017e-06
-5.19903e-08
-1.1321e-06
-7.8065e-08
-1.05601e-06
-1.03235e-07
-9.63584e-07
-1.26172e-07
-8.57452e-07
-1.45467e-07
-7.41216e-07
-1.59749e-07
-6.1929e-07
-1.67841e-07
-4.96653e-07
-1.68927e-07
-3.78497e-07
-1.62704e-07
-2.69801e-07
-1.4948e-07
-1.74889e-07
-1.30204e-07
-9.70349e-08
-1.06377e-07
-3.81822e-08
-7.98903e-08
1.18993e-09
-5.28128e-08
2.21369e-08
-2.72434e-08
2.7149e-08
-5.1906e-09
2.04176e-08
1.10242e-08
8.29564e-09
1.81532e-08
1.18744e-08
7.29547e-10
-9.90164e-10
3.09638e-09
-4.27605e-09
6.83926e-09
-7.08615e-09
1.14969e-08
-8.91448e-09
1.66251e-08
-9.84223e-09
2.18572e-08
-1.00489e-08
2.69133e-08
-9.71839e-09
3.15909e-08
-9.00738e-09
3.57503e-08
-8.03956e-09
3.92994e-08
-6.90772e-09
4.21808e-08
-5.67782e-09
4.43593e-08
-4.39281e-09
4.58126e-08
-3.07685e-09
4.65226e-08
-1.73826e-09
4.64683e-08
-3.71879e-10
4.56205e-08
1.03651e-09
4.39349e-08
2.51515e-09
4.13496e-08
4.09653e-09
3.77806e-08
5.82075e-09
3.31176e-08
7.73592e-09
2.72212e-08
9.89526e-09
1.99207e-08
1.23574e-08
1.10105e-08
1.5186e-08
2.47747e-10
1.84496e-08
-1.265e-08
2.22206e-08
-2.80033e-08
2.65727e-08
-4.61715e-08
3.15796e-08
-6.75521e-08
3.73147e-08
-9.25788e-08
4.38469e-08
-1.21715e-07
5.1238e-08
-1.55447e-07
5.95375e-08
-1.94274e-07
6.87773e-08
-2.38691e-07
7.89652e-08
-2.89176e-07
9.00781e-08
-3.46162e-07
1.02054e-07
-4.10014e-07
1.14782e-07
-4.80997e-07
1.281e-07
-5.59244e-07
1.4178e-07
-6.44716e-07
1.55531e-07
-7.37172e-07
1.68988e-07
-8.36129e-07
1.8172e-07
-9.40831e-07
1.93232e-07
-1.05022e-06
2.02969e-07
-1.16294e-06
2.10333e-07
-1.27728e-06
2.147e-07
-1.39124e-06
2.15435e-07
-1.5025e-06
2.1192e-07
-1.60846e-06
2.03578e-07
-1.7063e-06
1.89905e-07
-1.79304e-06
1.70501e-07
-1.86562e-06
1.45101e-07
-1.92099e-06
1.136e-07
-1.956e-06
7.5769e-08
-1.96835e-06
3.32417e-08
-1.95585e-06
-1.40729e-08
-1.91672e-06
-6.52879e-08
-1.85019e-06
-1.18517e-07
-1.75647e-06
-1.71784e-07
-1.6369e-06
-2.22803e-07
-1.4941e-06
-2.68981e-07
-1.33197e-06
-3.0759e-07
-1.15572e-06
-3.36e-07
-9.7161e-07
-3.51953e-07
-7.86664e-07
-3.53873e-07
-6.08215e-07
-3.41153e-07
-4.4334e-07
-3.14355e-07
-2.98272e-07
-2.75272e-07
-1.77844e-07
-2.26804e-07
-8.50659e-08
-1.72669e-07
-2.08544e-08
-1.17024e-07
1.60581e-08
-6.41559e-08
2.91894e-08
-1.83218e-08
2.44728e-08
1.57407e-08
1.06133e-08
3.20127e-08
2.24877e-08
1.1748e-09
-2.16492e-09
4.41493e-09
-7.51615e-09
9.28226e-09
-1.19535e-08
1.52272e-08
-1.48594e-08
2.17211e-08
-1.63362e-08
2.83169e-08
-1.66447e-08
3.46638e-08
-1.60654e-08
4.05014e-08
-1.48449e-08
4.5644e-08
-1.31822e-08
4.9965e-08
-1.12287e-08
5.33798e-08
-9.09266e-09
5.58322e-08
-6.84516e-09
5.72812e-08
-4.52588e-09
5.76908e-08
-2.14792e-09
5.7021e-08
2.97967e-10
5.52184e-08
2.83909e-09
5.22111e-08
5.52245e-09
4.79021e-08
8.40551e-09
4.21638e-08
1.15591e-08
3.48336e-08
1.50661e-08
2.57098e-08
1.90191e-08
1.45469e-08
2.35202e-08
1.05172e-09
2.86812e-08
-1.51171e-08
3.46184e-08
-3.43507e-08
4.14543e-08
-5.70921e-08
4.9314e-08
-8.38349e-08
5.83224e-08
-1.1512e-07
6.85999e-08
-1.51531e-07
8.02577e-08
-1.93684e-07
9.33909e-08
-2.42216e-07
1.0807e-07
-2.97771e-07
1.24332e-07
-3.60971e-07
1.42166e-07
-4.32398e-07
1.61505e-07
-5.12554e-07
1.8221e-07
-6.01828e-07
2.04056e-07
-7.00451e-07
2.26722e-07
-8.0845e-07
2.4978e-07
-9.25608e-07
2.72688e-07
-1.05141e-06
2.9479e-07
-1.18501e-06
3.15322e-07
-1.3252e-06
3.33419e-07
-1.47037e-06
3.48139e-07
-1.61852e-06
3.58486e-07
-1.76726e-06
3.63441e-07
-1.91383e-06
3.61997e-07
-2.05511e-06
3.53204e-07
-2.18774e-06
3.36209e-07
-2.30814e-06
3.10303e-07
-2.41261e-06
2.74972e-07
-2.49745e-06
2.29942e-07
-2.55907e-06
1.75214e-07
-2.59426e-06
1.10967e-07
-2.60002e-06
3.89967e-08
-2.57408e-06
-4.00072e-08
-2.51493e-06
-1.24438e-07
-2.42201e-06
-2.11443e-07
-2.2959e-06
-2.97893e-07
-2.13852e-06
-3.80178e-07
-1.95323e-06
-4.54271e-07
-1.74486e-06
-5.15965e-07
-1.51965e-06
-5.61209e-07
-1.28509e-06
-5.86514e-07
-1.04955e-06
-5.89417e-07
-8.21785e-07
-5.68913e-07
-6.10355e-07
-5.25785e-07
-4.22901e-07
-4.62726e-07
-2.65506e-07
-3.842e-07
-1.42127e-07
-2.96048e-07
-5.42185e-08
-2.04933e-07
-5.3518e-10
-1.17839e-07
2.30293e-08
-4.18863e-08
2.34612e-08
1.53088e-08
1.09878e-08
4.4486e-08
3.34755e-08
1.57533e-09
-3.74024e-09
5.58781e-09
-1.15286e-08
1.14023e-08
-1.77679e-08
1.83824e-08
-2.18396e-08
2.59354e-08
-2.38892e-08
3.35561e-08
-2.42654e-08
4.08414e-08
-2.33507e-08
4.7485e-08
-2.14885e-08
5.32632e-08
-1.89604e-08
5.80177e-08
-1.59832e-08
6.16378e-08
-1.27128e-08
6.40442e-08
-9.25153e-09
6.51745e-08
-5.65616e-09
6.49708e-08
-1.94426e-09
6.33689e-08
1.89993e-09
6.02875e-08
5.92044e-09
5.56219e-08
1.0188e-08
4.92356e-08
1.47919e-08
4.09536e-08
1.98411e-08
3.05571e-08
2.54625e-08
1.77773e-08
3.1799e-08
2.29199e-09
3.90055e-08
-1.62772e-08
4.72504e-08
-3.83693e-08
5.67104e-08
-6.44845e-08
6.75695e-08
-9.51843e-08
8.00138e-08
-1.31089e-07
9.42267e-08
-1.72871e-07
1.10382e-07
-2.21249e-07
1.28636e-07
-2.76972e-07
1.49114e-07
-3.40804e-07
1.71901e-07
-4.13495e-07
1.97023e-07
-4.95758e-07
2.24429e-07
-5.88226e-07
2.53973e-07
-6.91412e-07
2.85396e-07
-8.05659e-07
3.18304e-07
-9.31089e-07
3.52152e-07
-1.06755e-06
3.86237e-07
-1.21454e-06
4.19686e-07
-1.37122e-06
4.51466e-07
-1.53629e-06
4.80392e-07
-1.70803e-06
5.05157e-07
-1.88425e-06
5.24362e-07
-2.06232e-06
5.3656e-07
-2.23919e-06
5.40311e-07
-2.41143e-06
5.34233e-07
-2.57529e-06
5.17066e-07
-2.72681e-06
4.87729e-07
-2.8619e-06
4.45387e-07
-2.97643e-06
3.89503e-07
-3.0664e-06
3.19912e-07
-3.12805e-06
2.36864e-07
-3.15813e-06
1.41047e-07
-3.15362e-06
3.44902e-08
-3.11241e-06
-8.12217e-08
-3.03327e-06
-2.03574e-07
-2.91598e-06
-3.2873e-07
-2.76152e-06
-4.52354e-07
-2.57224e-06
-5.69458e-07
-2.35198e-06
-6.74531e-07
-2.10611e-06
-7.61833e-07
-1.8415e-06
-8.25822e-07
-1.56633e-06
-8.61687e-07
-1.28978e-06
-8.65963e-07
-1.02156e-06
-8.37133e-07
-7.71247e-07
-7.76099e-07
-5.47567e-07
-6.86407e-07
-3.57642e-07
-5.74125e-07
-2.06321e-07
-4.47368e-07
-9.56723e-08
-3.15582e-07
-2.46712e-08
-1.8884e-07
1.09428e-08
-7.75003e-08
1.87936e-08
7.45796e-09
1.00032e-08
5.32765e-08
4.34787e-08
1.91289e-09
-5.65309e-09
6.57464e-09
-1.61903e-08
1.31581e-08
-2.43513e-08
2.09392e-08
-2.96208e-08
2.92716e-08
-3.22216e-08
3.76072e-08
-3.26011e-08
4.55045e-08
-3.1248e-08
5.26225e-08
-2.86065e-08
5.87067e-08
-2.50446e-08
6.35713e-08
-2.08477e-08
6.70806e-08
-1.62221e-08
6.91316e-08
-1.13025e-08
6.96387e-08
-6.16328e-09
6.85194e-08
-8.24927e-10
6.56812e-08
4.73804e-09
6.10118e-08
1.05899e-08
5.43695e-08
1.68304e-08
4.55739e-08
2.35874e-08
3.43988e-08
3.10163e-08
2.05658e-08
3.92955e-08
3.73923e-09
4.86255e-08
-1.64802e-08
5.9225e-08
-4.05587e-08
7.13288e-08
-6.90315e-08
8.51833e-08
-1.02504e-07
1.01042e-07
-1.41651e-07
1.1916e-07
-1.87209e-07
1.39785e-07
-2.39972e-07
1.63145e-07
-3.00776e-07
1.8944e-07
-3.7048e-07
2.18819e-07
-4.49944e-07
2.51366e-07
-5.39995e-07
2.87073e-07
-6.41386e-07
3.2582e-07
-7.54753e-07
3.6734e-07
-8.80558e-07
4.11201e-07
-1.01903e-06
4.56778e-07
-1.17011e-06
5.03234e-07
-1.33339e-06
5.4951e-07
-1.50803e-06
5.94325e-07
-1.69275e-06
6.36188e-07
-1.88579e-06
6.7343e-07
-2.08487e-06
7.04239e-07
-2.28723e-06
7.26723e-07
-2.48964e-06
7.38976e-07
-2.68848e-06
7.39146e-07
-2.87977e-06
7.25521e-07
-3.0593e-06
6.96599e-07
-3.22274e-06
6.51167e-07
-3.36572e-06
5.88368e-07
-3.48399e-06
5.07771e-07
-3.57352e-06
4.09439e-07
-3.63064e-06
2.9399e-07
-3.65226e-06
1.62663e-07
-3.63564e-06
1.78715e-08
-3.57894e-06
-1.37921e-07
-3.48128e-06
-3.01235e-07
-3.34274e-06
-4.67274e-07
-3.16457e-06
-6.30521e-07
-2.94938e-06
-7.8465e-07
-2.70121e-06
-9.22698e-07
-2.42565e-06
-1.0374e-06
-2.12979e-06
-1.12168e-06
-1.82213e-06
-1.16934e-06
-1.51229e-06
-1.1758e-06
-1.21057e-06
-1.13885e-06
-9.27295e-07
-1.05938e-06
-6.72069e-07
-9.41633e-07
-4.52947e-07
-7.93247e-07
-2.75653e-07
-6.24663e-07
-1.42952e-07
-4.48282e-07
-5.42428e-08
-2.7755e-07
-5.3461e-09
-1.26397e-07
1.15832e-08
-9.47132e-09
8.11169e-09
5.6748e-08
5.15904e-08
2.18177e-09
-7.83485e-09
7.3595e-09
-2.1368e-08
1.45327e-08
-3.15245e-08
2.28916e-08
-3.79797e-08
3.17425e-08
-4.10725e-08
4.05048e-08
-4.13635e-08
4.87094e-08
-3.94526e-08
5.59898e-08
-3.58869e-08
6.20673e-08
-3.11221e-08
6.67328e-08
-2.55132e-08
6.98275e-08
-1.93168e-08
7.12261e-08
-1.2701e-08
7.0818e-08
-5.75519e-09
6.84931e-08
1.49995e-09
6.41291e-08
9.10207e-09
5.75785e-08
1.71405e-08
4.86589e-08
2.57499e-08
3.71438e-08
3.51025e-08
2.2754e-08
4.54061e-08
5.15012e-09
5.68994e-08
-1.60734e-08
6.98491e-08
-4.13938e-08
8.45453e-08
-7.13631e-08
1.01298e-07
-1.06611e-07
1.20431e-07
-1.47843e-07
1.42275e-07
-1.95839e-07
1.67156e-07
-2.51444e-07
1.9539e-07
-3.15557e-07
2.27258e-07
-3.89111e-07
2.62994e-07
-4.73054e-07
3.02762e-07
-5.68309e-07
3.46621e-07
-6.75739e-07
3.94503e-07
-7.96095e-07
4.46175e-07
-9.29959e-07
5.01204e-07
-1.07768e-06
5.58926e-07
-1.23932e-06
6.18415e-07
-1.41456e-06
6.7847e-07
-1.60265e-06
7.37602e-07
-1.80237e-06
7.94048e-07
-2.01198e-06
8.45796e-07
-2.22919e-06
8.90641e-07
-2.45119e-06
9.26241e-07
-2.67468e-06
9.5021e-07
-2.89591e-06
9.60203e-07
-3.11078e-06
9.54021e-07
-3.31496e-06
9.297e-07
-3.50397e-06
8.85606e-07
-3.67331e-06
8.20513e-07
-3.81862e-06
7.33672e-07
-3.93572e-06
6.24879e-07
-4.02082e-06
4.94534e-07
-4.07054e-06
3.43706e-07
-4.08207e-06
1.74202e-07
-4.05311e-06
-1.10954e-08
-3.98213e-06
-2.089e-07
-3.86853e-06
-4.1483e-07
-3.71261e-06
-6.23197e-07
-3.51574e-06
-8.27396e-07
-3.28053e-06
-1.01986e-06
-3.01099e-06
-1.19224e-06
-2.7126e-06
-1.33578e-06
-2.3924e-06
-1.44189e-06
-2.05889e-06
-1.50285e-06
-1.72187e-06
-1.51281e-06
-1.392e-06
-1.46873e-06
-1.08019e-06
-1.37119e-06
-7.9682e-07
-1.225e-06
-5.50839e-07
-1.03923e-06
-3.48878e-07
-8.26623e-07
-1.945e-07
-6.0266e-07
-8.76804e-08
-3.84369e-07
-2.45486e-08
-1.89529e-07
2.67217e-09
-3.66921e-08
5.65059e-09
5.37696e-08
5.7241e-08
2.38263e-09
-1.02174e-08
7.9403e-09
-2.69257e-08
1.55244e-08
-3.91085e-08
2.42453e-08
-4.67006e-08
3.33675e-08
-5.01947e-08
4.22853e-08
-5.02813e-08
5.05103e-08
-4.76776e-08
5.76582e-08
-4.30348e-08
6.34323e-08
-3.68962e-08
6.76043e-08
-2.96852e-08
6.99953e-08
-2.17078e-08
7.0457e-08
-1.31627e-08
6.88536e-08
-4.15183e-09
6.5047e-08
5.30658e-09
5.88819e-08
1.52672e-08
5.01738e-08
2.58486e-08
3.86982e-08
3.72255e-08
2.41798e-08
4.9621e-08
6.28381e-09
6.3302e-08
-1.53916e-08
7.85748e-08
-4.13219e-08
9.57794e-08
-7.20617e-08
1.15285e-07
-1.08247e-07
1.37484e-07
-1.50598e-07
1.62782e-07
-1.99915e-07
1.91592e-07
-2.57074e-07
2.24315e-07
-3.23014e-07
2.6133e-07
-3.98724e-07
3.02967e-07
-4.85215e-07
3.49485e-07
-5.83491e-07
4.01038e-07
-6.94508e-07
4.57638e-07
-8.19123e-07
5.19119e-07
-9.58037e-07
5.85089e-07
-1.11173e-06
6.54893e-07
-1.28037e-06
7.2757e-07
-1.46378e-06
8.01828e-07
-1.66134e-06
8.76026e-07
-1.87191e-06
9.48176e-07
-2.09384e-06
1.01597e-06
-2.32488e-06
1.07684e-06
-2.56225e-06
1.12801e-06
-2.80264e-06
1.16662e-06
-3.04225e-06
1.18982e-06
-3.27695e-06
1.1949e-06
-3.50233e-06
1.1794e-06
-3.71386e-06
1.14122e-06
-3.90698e-06
1.07873e-06
-4.07729e-06
9.90822e-07
-4.2206e-06
8.76981e-07
-4.33306e-06
7.37336e-07
-4.41123e-06
5.72704e-07
-4.45216e-06
3.8464e-07
-4.45346e-06
1.75502e-07
-4.41321e-06
-5.1345e-08
-4.33022e-06
-2.91896e-07
-4.20405e-06
-5.40997e-07
-4.03507e-06
-7.9218e-07
-3.82457e-06
-1.03789e-06
-3.57499e-06
-1.26944e-06
-3.29002e-06
-1.47721e-06
-2.97482e-06
-1.65099e-06
-2.6361e-06
-1.78061e-06
-2.28216e-06
-1.85678e-06
-1.92278e-06
-1.8722e-06
-1.56882e-06
-1.82268e-06
-1.2317e-06
-1.70831e-06
-9.22544e-07
-1.53416e-06
-6.51207e-07
-1.31056e-06
-4.25304e-07
-1.05253e-06
-2.49304e-07
-7.7866e-07
-1.23911e-07
-5.09762e-07
-4.57495e-08
-2.67691e-07
-7.3302e-09
-7.51113e-08
2.85897e-09
4.35804e-08
6.00999e-08
2.51914e-09
-1.27365e-08
8.32258e-09
-3.27291e-08
1.6141e-08
-4.69269e-08
2.50144e-08
-5.5574e-08
3.4171e-08
-5.93514e-08
4.29864e-08
-5.90967e-08
5.09596e-08
-5.56508e-08
5.76952e-08
-4.97704e-08
6.28838e-08
-4.20848e-08
6.6282e-08
-3.30835e-08
6.76931e-08
-2.31188e-08
6.69468e-08
-1.24165e-08
6.38826e-08
-1.08762e-09
5.83329e-08
1.08562e-08
5.01089e-08
2.34912e-08
3.89875e-08
3.69701e-08
2.46995e-08
5.15134e-08
6.91969e-09
6.74008e-08
-1.47434e-08
8.49651e-08
-4.07545e-08
1.04586e-07
-7.16589e-08
1.26684e-07
-1.08086e-07
1.51713e-07
-1.50755e-07
1.80152e-07
-2.00469e-07
2.12496e-07
-2.58115e-07
2.49238e-07
-3.24656e-07
2.90856e-07
-4.01111e-07
3.37785e-07
-4.88538e-07
3.90395e-07
-5.88003e-07
4.4895e-07
-7.00538e-07
5.13572e-07
-8.27094e-07
5.84193e-07
-9.6848e-07
6.60505e-07
-1.1253e-06
7.41906e-07
-1.29786e-06
8.27458e-07
-1.48613e-06
9.15839e-07
-1.68962e-06
1.00532e-06
-1.90734e-06
1.09375e-06
-2.13776e-06
1.17859e-06
-2.37873e-06
1.25695e-06
-2.62755e-06
1.32566e-06
-2.88095e-06
1.38141e-06
-3.13517e-06
1.42085e-06
-3.38607e-06
1.44073e-06
-3.62924e-06
1.43807e-06
-3.86012e-06
1.41028e-06
-4.07417e-06
1.35528e-06
-4.26699e-06
1.27155e-06
-4.43442e-06
1.15825e-06
-4.57264e-06
1.0152e-06
-4.67825e-06
8.42949e-07
-4.7483e-06
6.42756e-07
-4.78032e-06
4.16659e-07
-4.77233e-06
1.67513e-07
-4.72279e-06
-1.00892e-07
-4.63071e-06
-3.83969e-07
-4.49574e-06
-6.75964e-07
-4.31815e-06
-9.69774e-07
-4.09899e-06
-1.25705e-06
-3.84029e-06
-1.52814e-06
-3.54525e-06
-1.77225e-06
-3.21849e-06
-1.97775e-06
-2.8662e-06
-2.13289e-06
-2.49632e-06
-2.22667e-06
-2.11843e-06
-2.25009e-06
-1.74352e-06
-2.19759e-06
-1.38344e-06
-2.06839e-06
-1.05006e-06
-1.86755e-06
-7.54222e-07
-1.6064e-06
-5.0462e-07
-1.30213e-06
-3.06766e-07
-9.76514e-07
-1.62244e-07
-6.54284e-07
-6.83339e-08
-3.61601e-07
-1.80092e-08
-1.25436e-07
-1.21606e-10
2.56928e-08
5.99783e-08
2.59616e-09
-1.53327e-08
8.51565e-09
-3.86486e-08
1.63954e-08
-5.48067e-08
2.52172e-08
-6.43958e-08
3.41798e-08
-6.8314e-08
4.26456e-08
-6.75626e-08
5.01075e-08
-6.31127e-08
5.61643e-08
-5.58272e-08
6.04989e-08
-4.64194e-08
6.28568e-08
-3.54414e-08
6.30253e-08
-2.32874e-08
6.08145e-08
-1.02056e-08
5.60389e-08
3.68796e-09
4.85016e-08
1.83936e-08
3.79792e-08
3.40136e-08
2.42087e-08
5.07405e-08
6.87592e-09
6.88462e-08
-1.43958e-08
8.86725e-08
-4.00544e-08
1.10624e-07
-7.06276e-08
1.35159e-07
-1.06729e-07
1.62785e-07
-1.4906e-07
1.94045e-07
-1.98417e-07
2.29509e-07
-2.55681e-07
2.6976e-07
-3.21819e-07
3.15375e-07
-3.97863e-07
3.669e-07
-4.84899e-07
4.24821e-07
-5.84034e-07
4.89529e-07
-6.96358e-07
5.61275e-07
-8.22902e-07
6.40116e-07
-9.64574e-07
7.25865e-07
-1.12209e-06
8.18023e-07
-1.29591e-06
9.15725e-07
-1.48614e-06
1.01768e-06
-1.69245e-06
1.12215e-06
-1.91403e-06
1.2269e-06
-2.14949e-06
1.32921e-06
-2.39685e-06
1.42595e-06
-2.65352e-06
1.51362e-06
-2.91634e-06
1.58848e-06
-3.18162e-06
1.64669e-06
-3.44526e-06
1.68449e-06
-3.70288e-06
1.69835e-06
-3.94996e-06
1.68514e-06
-4.18197e-06
1.64229e-06
-4.39453e-06
1.56784e-06
-4.58356e-06
1.46057e-06
-4.7453e-06
1.31999e-06
-4.87644e-06
1.14634e-06
-4.97411e-06
9.4062e-07
-5.03589e-06
7.04533e-07
-5.05978e-06
4.40545e-07
-5.04419e-06
1.51923e-07
-4.98786e-06
-1.57215e-07
-4.88996e-06
-4.81876e-07
-4.75004e-06
-8.1588e-07
-4.56816e-06
-1.15166e-06
-4.34496e-06
-1.48024e-06
-4.08194e-06
-1.79116e-06
-3.78164e-06
-2.07255e-06
-3.44796e-06
-2.31144e-06
-3.08643e-06
-2.49442e-06
-2.70443e-06
-2.60866e-06
-2.31126e-06
-2.64327e-06
-1.91792e-06
-2.59093e-06
-1.53665e-06
-2.44965e-06
-1.1801e-06
-2.22409e-06
-8.60171e-07
-1.92633e-06
-5.86762e-07
-1.57554e-06
-3.66588e-07
-1.19669e-06
-2.02279e-07
-8.18593e-07
-9.19268e-08
-4.71953e-07
-2.91038e-08
-1.88259e-07
-3.14841e-09
-2.62544e-10
5.68299e-08
2.61868e-09
-1.79513e-08
8.53014e-09
-4.456e-08
1.63031e-08
-6.25797e-08
2.48743e-08
-7.2967e-08
3.34214e-08
-7.68611e-08
4.13e-08
-7.54411e-08
4.80018e-08
-6.98146e-08
5.31254e-08
-6.09508e-08
5.63504e-08
-4.96444e-08
5.74145e-08
-3.65055e-08
5.60922e-08
-2.19651e-08
5.21748e-08
-6.28827e-09
4.54532e-08
1.04096e-08
3.57008e-08
2.81459e-08
2.26596e-08
4.70548e-08
6.02652e-09
6.73736e-08
-1.45586e-08
8.94313e-08
-3.95233e-08
1.13637e-07
-6.93722e-08
1.40473e-07
-1.04694e-07
1.70481e-07
-1.46168e-07
2.04259e-07
-1.94566e-07
2.42442e-07
-2.50753e-07
2.85696e-07
-3.15682e-07
3.34689e-07
-3.90384e-07
3.90078e-07
-4.75953e-07
4.52469e-07
-5.73519e-07
5.22387e-07
-6.84214e-07
6.00224e-07
-8.09128e-07
6.86189e-07
-9.49254e-07
7.80243e-07
-1.10542e-06
8.8203e-07
-1.27821e-06
9.90814e-07
-1.46789e-06
1.1054e-06
-1.67431e-06
1.2241e-06
-1.89683e-06
1.34467e-06
-2.13426e-06
1.46433e-06
-2.3848e-06
1.57975e-06
-2.64603e-06
1.68718e-06
-2.91494e-06
1.78252e-06
-3.18795e-06
1.86149e-06
-3.46106e-06
1.9198e-06
-3.72994e-06
1.95337e-06
-3.99011e-06
1.95852e-06
-4.23709e-06
1.93212e-06
-4.46653e-06
1.87174e-06
-4.67441e-06
1.77572e-06
-4.85705e-06
1.64321e-06
-5.01123e-06
1.47418e-06
-5.13422e-06
1.26933e-06
-5.2237e-06
1.0301e-06
-5.27778e-06
7.58606e-07
-5.29488e-06
4.57653e-07
-5.27377e-06
1.30808e-07
-5.21337e-06
-2.1761e-07
-5.11287e-06
-5.82375e-07
-4.97168e-06
-9.57075e-07
-4.7895e-06
-1.33384e-06
-4.56649e-06
-1.70325e-06
-4.30347e-06
-2.05418e-06
-4.00221e-06
-2.37381e-06
-3.66577e-06
-2.64787e-06
-3.29888e-06
-2.86131e-06
-2.90822e-06
-2.99931e-06
-2.50266e-06
-3.04883e-06
-2.09311e-06
-3.00049e-06
-1.69215e-06
-2.8506e-06
-1.31322e-06
-2.60303e-06
-9.69346e-07
-2.2702e-06
-6.718e-07
-1.87308e-06
-4.28674e-07
-1.43981e-06
-2.43829e-07
-1.00344e-06
-1.16334e-07
-5.99448e-07
-4.04813e-08
-2.64112e-07
-6.21074e-09
-3.45331e-08
5.06192e-08
2.59128e-09
-2.05425e-08
8.37664e-09
-5.03453e-08
1.58797e-08
-7.00827e-08
2.40068e-08
-8.10942e-08
3.19234e-08
-8.47777e-08
3.89848e-08
-8.25026e-08
4.46875e-08
-7.55173e-08
4.86345e-08
-6.48978e-08
5.05065e-08
-5.15163e-08
5.00367e-08
-3.60357e-08
4.69891e-08
-1.89174e-08
4.11383e-08
-4.37562e-10
3.22523e-08
1.92957e-08
2.00757e-08
4.03225e-08
4.31585e-09
6.28146e-08
-1.53706e-08
8.70601e-08
-3.9389e-08
1.1345e-07
-6.82175e-08
1.42466e-07
-1.02416e-07
1.74671e-07
-1.42632e-07
2.10697e-07
-1.89606e-07
2.51233e-07
-2.44176e-07
2.97012e-07
-3.07269e-07
3.48789e-07
-3.799e-07
4.0732e-07
-4.63153e-07
4.7333e-07
-5.58163e-07
5.4748e-07
-6.66087e-07
6.30311e-07
-7.88058e-07
7.22195e-07
-9.25135e-07
8.23266e-07
-1.07824e-06
9.33348e-07
-1.24808e-06
1.05187e-06
-1.43507e-06
1.17781e-06
-1.63925e-06
1.30957e-06
-1.86016e-06
1.44501e-06
-2.09682e-06
1.58134e-06
-2.34766e-06
1.71517e-06
-2.61046e-06
1.84255e-06
-2.88239e-06
1.95911e-06
-3.16003e-06
2.06017e-06
-3.43952e-06
2.14097e-06
-3.71661e-06
2.19689e-06
-3.98688e-06
2.22364e-06
-4.24589e-06
2.21753e-06
-4.48934e-06
2.17557e-06
-4.71323e-06
2.09563e-06
-4.91396e-06
1.97645e-06
-5.08841e-06
1.81766e-06
-5.23394e-06
1.61971e-06
-5.34839e-06
1.38378e-06
-5.43002e-06
1.11173e-06
-5.47739e-06
8.05983e-07
-5.48934e-06
4.69598e-07
-5.46485e-06
1.06322e-07
-5.403e-06
-2.79467e-07
-5.30289e-06
-6.82478e-07
-5.16372e-06
-1.09624e-06
-4.9848e-06
-1.51276e-06
-4.76571e-06
-1.92234e-06
-4.50654e-06
-2.31335e-06
-4.2082e-06
-2.67215e-06
-3.87282e-06
-2.98326e-06
-3.50418e-06
-3.22995e-06
-3.10816e-06
-3.39534e-06
-2.69301e-06
-3.46399e-06
-2.26943e-06
-3.42407e-06
-1.85026e-06
-3.26977e-06
-1.44968e-06
-3.00361e-06
-1.08195e-06
-2.63793e-06
-7.59854e-07
-2.19518e-06
-4.93055e-07
-1.70661e-06
-2.8686e-07
-1.20963e-06
-1.41495e-07
-7.44813e-07
-5.20955e-08
-3.53512e-07
-9.27646e-09
-7.73521e-08
4.13427e-08
2.51793e-09
-2.30604e-08
8.06486e-09
-5.58922e-08
1.51402e-08
-7.71581e-08
2.26348e-08
-8.85888e-08
2.97117e-08
-9.18546e-08
3.57333e-08
-8.85243e-08
4.02066e-08
-7.99905e-08
4.27439e-08
-6.74352e-08
4.3031e-08
-5.18034e-08
4.08001e-08
-3.38047e-08
3.5807e-08
-1.39244e-08
2.78116e-08
7.55781e-09
1.656e-08
3.05473e-08
1.76894e-09
5.51136e-08
-1.68884e-08
8.14719e-08
-3.97946e-08
1.09966e-07
-6.73996e-08
1.41055e-07
-1.00231e-07
1.75297e-07
-1.38901e-07
2.13341e-07
-1.84113e-07
2.55909e-07
-2.36667e-07
3.03787e-07
-2.97456e-07
3.57801e-07
-3.67464e-07
4.18797e-07
-4.47754e-07
4.87609e-07
-5.39451e-07
5.65027e-07
-6.43715e-07
6.51744e-07
-7.61704e-07
7.48301e-07
-8.94529e-07
8.55019e-07
-1.04319e-06
9.71924e-07
-1.2085e-06
1.09866e-06
-1.39101e-06
1.23439e-06
-1.59093e-06
1.37773e-06
-1.80803e-06
1.52667e-06
-2.04153e-06
1.67852e-06
-2.2901e-06
1.82991e-06
-2.55176e-06
1.97683e-06
-2.82389e-06
2.11469e-06
-3.1033e-06
2.23852e-06
-3.38626e-06
2.34313e-06
-3.66866e-06
2.42337e-06
-3.94616e-06
2.47439e-06
-4.21436e-06
2.49185e-06
-4.46901e-06
2.47217e-06
-4.70611e-06
2.41267e-06
-4.9221e-06
2.31162e-06
-5.11392e-06
2.16826e-06
-5.27902e-06
1.98276e-06
-5.41536e-06
1.75605e-06
-5.52137e-06
1.48979e-06
-5.5958e-06
1.18616e-06
-5.63765e-06
8.4784e-07
-5.64606e-06
4.78e-07
-5.6202e-06
8.04632e-08
-5.55919e-06
-3.40474e-07
-5.46206e-06
-7.79603e-07
-5.32774e-06
-1.23057e-06
-5.15511e-06
-1.68539e-06
-4.94316e-06
-2.13428e-06
-4.69124e-06
-2.56528e-06
-4.39935e-06
-2.96405e-06
-4.06859e-06
-3.31401e-06
-3.70172e-06
-3.59682e-06
-3.30361e-06
-3.79344e-06
-2.88177e-06
-3.88583e-06
-2.4465e-06
-3.85933e-06
-2.01077e-06
-3.70551e-06
-1.58945e-06
-3.42493e-06
-1.19806e-06
-3.02932e-06
-8.51025e-07
-2.54222e-06
-5.59822e-07
-1.99782e-06
-3.3143e-07
-1.43802e-06
-1.67439e-07
-9.08804e-07
-6.39636e-08
-4.56987e-07
-1.23505e-08
-1.28965e-07
2.89922e-08
2.40195e-09
-2.54623e-08
7.60326e-09
-6.10935e-08
1.40982e-08
-8.3653e-08
2.07767e-08
-9.52673e-08
2.68101e-08
-9.7888e-08
3.1576e-08
-9.32902e-08
3.45977e-08
-8.30123e-08
3.55021e-08
-6.83396e-08
3.39839e-08
-5.02852e-08
2.97774e-08
-2.95982e-08
2.2633e-08
-6.78002e-09
1.22975e-08
1.78933e-08
-1.50325e-09
4.4348e-08
-1.90795e-08
7.26898e-08
-4.07907e-08
1.03183e-07
-6.7058e-08
1.36234e-07
-9.83744e-08
1.72371e-07
-1.35314e-07
2.12237e-07
-1.78539e-07
2.56566e-07
-2.28807e-07
3.06176e-07
-2.86966e-07
3.61947e-07
-3.53962e-07
4.24797e-07
-4.30823e-07
4.95658e-07
-5.1865e-07
5.75436e-07
-6.18592e-07
6.64969e-07
-7.31814e-07
7.64966e-07
-8.59456e-07
8.75943e-07
-1.00258e-06
9.98139e-07
-1.16208e-06
1.13143e-06
-1.33865e-06
1.27523e-06
-1.53266e-06
1.42839e-06
-1.74406e-06
1.58913e-06
-1.97233e-06
1.75494e-06
-2.21637e-06
1.92256e-06
-2.47447e-06
2.088e-06
-2.74426e-06
2.24662e-06
-3.02277e-06
2.3932e-06
-3.3065e-06
2.52224e-06
-3.59148e-06
2.62811e-06
-3.87348e-06
2.70537e-06
-4.14816e-06
2.74907e-06
-4.41129e-06
2.75498e-06
-4.65888e-06
2.71977e-06
-4.88737e-06
2.64117e-06
-5.09371e-06
2.51796e-06
-5.27539e-06
2.34995e-06
-5.43047e-06
2.13783e-06
-5.55749e-06
1.88307e-06
-5.65539e-06
1.58769e-06
-5.7234e-06
1.25417e-06
-5.76087e-06
8.85318e-07
-5.76717e-06
4.84296e-07
-5.74162e-06
5.49139e-08
-5.68335e-06
-3.98743e-07
-5.59129e-06
-8.71663e-07
-5.4641e-06
-1.35776e-06
-5.30027e-06
-1.84923e-06
-5.09821e-06
-2.33634e-06
-4.85652e-06
-2.80697e-06
-4.57427e-06
-3.2463e-06
-4.25152e-06
-3.63676e-06
-3.88986e-06
-3.95848e-06
-3.49305e-06
-4.19025e-06
-3.06764e-06
-4.31124e-06
-2.62333e-06
-4.30364e-06
-2.17302e-06
-4.15582e-06
-1.73217e-06
-3.86578e-06
-1.31755e-06
-3.44394e-06
-9.45352e-07
-2.91441e-06
-6.2908e-07
-2.31409e-06
-3.77649e-07
-1.68946e-06
-1.94251e-07
-1.0922e-06
-7.61454e-08
-5.75093e-07
-1.54522e-08
-1.89658e-07
1.35399e-08
2.24594e-09
-2.77082e-08
6.9989e-09
-6.58464e-08
1.27653e-08
-8.94194e-08
1.84487e-08
-1.00951e-07
2.324e-08
-1.02679e-07
2.65405e-08
-9.65908e-08
2.78963e-08
-8.43681e-08
2.69538e-08
-6.73971e-08
2.34209e-08
-4.67522e-08
1.70371e-08
-2.32144e-08
7.55e-09
2.7071e-09
-5.30484e-09
3.07481e-08
-2.18202e-08
6.08634e-08
-4.23318e-08
9.32013e-08
-6.72306e-08
1.28082e-07
-9.69742e-08
1.65977e-07
-1.32097e-07
2.07494e-07
-1.73216e-07
2.53356e-07
-2.21042e-07
3.04392e-07
-2.76376e-07
3.6151e-07
-3.40115e-07
4.25686e-07
-4.13244e-07
4.97926e-07
-4.96827e-07
5.79241e-07
-5.91987e-07
6.70597e-07
-6.99881e-07
7.72863e-07
-8.21661e-07
8.86745e-07
-9.58422e-07
1.0127e-06
-1.11115e-06
1.15086e-06
-1.28062e-06
1.30091e-06
-1.46737e-06
1.46197e-06
-1.67153e-06
1.63256e-06
-1.89281e-06
1.81041e-06
-2.13037e-06
1.99249e-06
-2.38276e-06
2.17495e-06
-2.64791e-06
2.35316e-06
-2.92312e-06
2.52183e-06
-3.2051e-06
2.67519e-06
-3.4901e-06
2.80724e-06
-3.77401e-06
2.91202e-06
-4.05258e-06
2.98394e-06
-4.3216e-06
3.01809e-06
-4.57709e-06
3.01046e-06
-4.81543e-06
2.95812e-06
-5.03356e-06
2.8593e-06
-5.22897e-06
2.71336e-06
-5.39973e-06
2.52071e-06
-5.54446e-06
2.28257e-06
-5.66224e-06
2.00085e-06
-5.75247e-06
1.67792e-06
-5.81477e-06
1.31646e-06
-5.84882e-06
9.19373e-07
-5.85415e-06
4.89624e-07
-5.8302e-06
3.09631e-08
-5.77609e-06
-4.52849e-07
-5.69066e-06
-9.57098e-07
-5.57236e-06
-1.47606e-06
-5.41931e-06
-2.00228e-06
-5.2294e-06
-2.52625e-06
-5.00051e-06
-3.03586e-06
-4.73082e-06
-3.51599e-06
-4.41929e-06
-3.94829e-06
-4.06628e-06
-4.31149e-06
-3.67429e-06
-4.58224e-06
-3.24869e-06
-4.73684e-06
-2.79837e-06
-4.75397e-06
-2.33589e-06
-4.6183e-06
-1.87715e-06
-4.32453e-06
-1.44009e-06
-3.88099e-06
-1.04277e-06
-3.31173e-06
-7.00908e-07
-2.65595e-06
-4.25644e-07
-1.96472e-06
-2.22047e-07
-1.2958e-06
-8.87209e-08
-7.08419e-07
-1.86126e-08
-2.59767e-07
-5.07271e-09
2.0519e-09
-2.97601e-08
6.25736e-09
-7.00518e-08
1.11509e-08
-9.4313e-08
1.56646e-08
-1.05464e-07
1.90199e-08
-1.06035e-07
2.06512e-08
-9.82221e-08
2.01341e-08
-8.3851e-08
1.714e-08
-6.4403e-08
1.1394e-08
-4.10062e-08
2.6441e-09
-1.44645e-08
-9.3626e-09
1.47138e-08
-2.48995e-08
4.6285e-08
-4.42763e-08
8.02402e-08
-6.78525e-08
1.16777e-07
-9.60486e-08
1.56278e-07
-1.29357e-07
1.99286e-07
-1.6835e-07
2.46486e-07
-2.13686e-07
2.98692e-07
-2.66115e-07
3.56821e-07
-3.26482e-07
4.21877e-07
-3.9572e-07
4.94924e-07
-4.74846e-07
5.77053e-07
-5.64947e-07
6.69342e-07
-6.67155e-07
7.72805e-07
-7.82617e-07
8.88325e-07
-9.12449e-07
1.01658e-06
-1.05768e-06
1.15794e-06
-1.2192e-06
1.31238e-06
-1.39764e-06
1.47935e-06
-1.59332e-06
1.65766e-06
-1.80617e-06
1.84541e-06
-2.0356e-06
2.03984e-06
-2.28044e-06
2.23734e-06
-2.53892e-06
2.43343e-06
-2.80864e-06
2.62287e-06
-3.08658e-06
2.79976e-06
-3.3692e-06
2.95781e-06
-3.65258e-06
3.09062e-06
-3.93259e-06
3.19202e-06
-4.20504e-06
3.2564e-06
-4.46595e-06
3.279e-06
-4.71166e-06
3.25617e-06
-4.93902e-06
3.18548e-06
-5.14547e-06
3.06575e-06
-5.32906e-06
2.89695e-06
-5.48842e-06
2.68007e-06
-5.62269e-06
2.41684e-06
-5.73141e-06
2.10956e-06
-5.81437e-06
1.76088e-06
-5.87151e-06
1.37361e-06
-5.90282e-06
9.50682e-07
-5.90797e-06
4.94781e-07
-5.88651e-06
9.4936e-09
-5.83753e-06
-5.01824e-07
-5.75976e-06
-1.03487e-06
-5.65159e-06
-1.58422e-06
-5.51082e-06
-2.14305e-06
-5.33488e-06
-2.70219e-06
-5.12099e-06
-3.24975e-06