/*--------------------------------*- C++ -*----------------------------------*\
  =========                 |
  \\      /  F ield         | OpenFOAM: The Open Source CFD Toolbox
   \\    /   O peration     | Website:  https://openfoam.org
    \\  /    A nd           | Version:  12
     \\/     M anipulation  |
\*---------------------------------------------------------------------------*/
FoamFile
{
    format      ascii;
    class       volScalarField;
    location    "7.5";
    object      epsilon;
}
// * * * * * * * * * * * * * * * * * * * * * * * * * * * * * * * * * * * * * //

dimensions      [0 2 -3 0 0 0 0];

internalField   nonuniform List<scalar> 
18225
(
1.54734e-08
7.73266e-08
1.69228e-07
2.79585e-07
4.03231e-07
5.37117e-07
6.79085e-07
8.27462e-07
9.80886e-07
1.13822e-06
1.2985e-06
1.46092e-06
1.62479e-06
1.78954e-06
1.95471e-06
2.11993e-06
2.28491e-06
2.44945e-06
2.61342e-06
2.77675e-06
2.93943e-06
3.10149e-06
3.26302e-06
3.42413e-06
3.58497e-06
3.74569e-06
3.90647e-06
4.06748e-06
4.22891e-06
4.39091e-06
4.55365e-06
4.71726e-06
4.88186e-06
5.04755e-06
5.21439e-06
5.38243e-06
5.55167e-06
5.72211e-06
5.89368e-06
6.06632e-06
6.23992e-06
6.41433e-06
6.58939e-06
6.7649e-06
6.94065e-06
7.11636e-06
7.29178e-06
7.46658e-06
7.64044e-06
7.81299e-06
7.98384e-06
8.15258e-06
8.31877e-06
8.48194e-06
8.6416e-06
8.79724e-06
8.94831e-06
9.09426e-06
9.23451e-06
9.36847e-06
9.49551e-06
9.61502e-06
9.72636e-06
9.82889e-06
9.92197e-06
1.0005e-05
1.00772e-05
1.01382e-05
1.01872e-05
1.02238e-05
1.02471e-05
1.02569e-05
1.02531e-05
1.02351e-05
1.02024e-05
1.01548e-05
1.0092e-05
1.0014e-05
9.92073e-06
9.81226e-06
9.68875e-06
9.55043e-06
9.39767e-06
9.23089e-06
9.05064e-06
8.85753e-06
8.65229e-06
8.43571e-06
8.20866e-06
7.97209e-06
7.72701e-06
7.47446e-06
7.21554e-06
6.95138e-06
6.68312e-06
6.4119e-06
6.13887e-06
5.86515e-06
5.59183e-06
5.31997e-06
5.05057e-06
4.78457e-06
4.52287e-06
4.26626e-06
4.01549e-06
3.77118e-06
3.53392e-06
3.30418e-06
3.08236e-06
2.86877e-06
2.66362e-06
2.46709e-06
2.27923e-06
2.10007e-06
1.92954e-06
1.76751e-06
1.61382e-06
1.46826e-06
1.33057e-06
1.20048e-06
1.07767e-06
9.61824e-07
8.52626e-07
7.49755e-07
6.52909e-07
5.61813e-07
4.76238e-07
3.96014e-07
3.21057e-07
2.514e-07
1.8725e-07
1.29077e-07
7.78242e-08
3.54845e-08
7.09694e-09
7.7373e-08
6.31545e-08
9.49498e-08
1.42212e-07
1.98039e-07
2.59693e-07
3.25677e-07
3.94994e-07
4.66898e-07
5.40796e-07
6.16203e-07
6.92716e-07
7.69997e-07
8.47765e-07
9.25795e-07
1.0039e-06
1.08195e-06
1.15984e-06
1.23751e-06
1.31491e-06
1.39204e-06
1.46891e-06
1.54556e-06
1.62205e-06
1.69843e-06
1.77478e-06
1.85117e-06
1.9277e-06
2.00444e-06
2.08147e-06
2.15886e-06
2.23668e-06
2.31498e-06
2.3938e-06
2.47318e-06
2.55312e-06
2.63365e-06
2.71474e-06
2.79638e-06
2.87851e-06
2.9611e-06
3.04407e-06
3.12734e-06
3.21081e-06
3.29437e-06
3.37791e-06
3.46129e-06
3.54435e-06
3.62694e-06
3.70888e-06
3.78998e-06
3.87004e-06
3.94885e-06
4.02619e-06
4.10181e-06
4.17548e-06
4.24693e-06
4.3159e-06
4.3821e-06
4.44527e-06
4.5051e-06
4.56131e-06
4.61358e-06
4.66162e-06
4.70514e-06
4.74382e-06
4.77738e-06
4.80552e-06
4.82801e-06
4.84456e-06
4.85485e-06
4.85872e-06
4.85613e-06
4.84679e-06
4.83052e-06
4.80721e-06
4.77676e-06
4.73914e-06
4.69434e-06
4.6424e-06
4.5834e-06
4.51746e-06
4.44476e-06
4.3655e-06
4.27994e-06
4.18838e-06
4.09116e-06
3.98865e-06
3.88126e-06
3.76944e-06
3.65366e-06
3.5344e-06
3.41218e-06
3.28753e-06
3.16097e-06
3.03304e-06
2.90427e-06
2.77518e-06
2.64628e-06
2.51807e-06
2.391e-06
2.26553e-06
2.14206e-06
2.02096e-06
1.90259e-06
1.78725e-06
1.6752e-06
1.56667e-06
1.46185e-06
1.36088e-06
1.26387e-06
1.1709e-06
1.082e-06
9.97193e-07
9.16444e-07
8.39699e-07
7.66882e-07
6.97895e-07
6.32624e-07
5.70941e-07
5.12705e-07
4.57773e-07
4.05995e-07
3.5723e-07
3.11342e-07
2.68211e-07
2.27743e-07
1.89876e-07
1.54602e-07
1.2199e-07
9.22371e-08
6.57937e-08
4.37071e-08
2.89715e-08
3.54697e-08
1.69747e-07
9.52961e-08
9.7519e-08
1.20743e-07
1.53962e-07
1.93194e-07
2.36523e-07
2.82836e-07
3.31394e-07
3.81662e-07
4.3323e-07
4.85771e-07
5.39017e-07
5.92754e-07
6.46806e-07
7.01035e-07
7.55334e-07
8.09623e-07
8.63847e-07
9.17977e-07
9.71999e-07
1.02592e-06
1.07975e-06
1.13354e-06
1.18731e-06
1.24112e-06
1.29501e-06
1.34904e-06
1.40327e-06
1.45774e-06
1.5125e-06
1.5676e-06
1.62306e-06
1.67892e-06
1.73519e-06
1.79188e-06
1.849e-06
1.90652e-06
1.96444e-06
2.02271e-06
2.08129e-06
2.14014e-06
2.19919e-06
2.25837e-06
2.31759e-06
2.37676e-06
2.43578e-06
2.49454e-06
2.55291e-06
2.61077e-06
2.66799e-06
2.7244e-06
2.77985e-06
2.83419e-06
2.88724e-06
2.93882e-06
2.98875e-06
3.03683e-06
3.08288e-06
3.12667e-06
3.16803e-06
3.20673e-06
3.24256e-06
3.27533e-06
3.30483e-06
3.33085e-06
3.35319e-06
3.37167e-06
3.3861e-06
3.39633e-06
3.40208e-06
3.40338e-06
3.40012e-06
3.39212e-06
3.37929e-06
3.36156e-06
3.33888e-06
3.31125e-06
3.27867e-06
3.24118e-06
3.19886e-06
3.1518e-06
3.10012e-06
3.04399e-06
2.98359e-06
2.91912e-06
2.85084e-06
2.77899e-06
2.70387e-06
2.62577e-06
2.54502e-06
2.46195e-06
2.37692e-06
2.29026e-06
2.20235e-06
2.11355e-06
2.0242e-06
1.93466e-06
1.84528e-06
1.75638e-06
1.66829e-06
1.58128e-06
1.49566e-06
1.41166e-06
1.32952e-06
1.24945e-06
1.17164e-06
1.09622e-06
1.02335e-06
9.53112e-07
8.85591e-07
8.20841e-07
7.58891e-07
6.99752e-07
6.43411e-07
5.89835e-07
5.38977e-07
4.90776e-07
4.45159e-07
4.02042e-07
3.61339e-07
3.22957e-07
2.86804e-07
2.52794e-07
2.20848e-07
1.90906e-07
1.6293e-07
1.3692e-07
1.12936e-07
9.1138e-08
7.18682e-08
5.58529e-08
4.47823e-08
4.35872e-08
7.76573e-08
2.81668e-07
1.43498e-07
1.21594e-07
1.28245e-07
1.47567e-07
1.74112e-07
2.05351e-07
2.39892e-07
2.76864e-07
3.15673e-07
3.55889e-07
3.97182e-07
4.39294e-07
4.82019e-07
5.25193e-07
5.68685e-07
6.12394e-07
6.56244e-07
7.0018e-07
7.44168e-07
7.88188e-07
8.32237e-07
8.76324e-07
9.20467e-07
9.64692e-07
1.00903e-06
1.05352e-06
1.0982e-06
1.14311e-06
1.18828e-06
1.23375e-06
1.27954e-06
1.32569e-06
1.3722e-06
1.41908e-06
1.46635e-06
1.51399e-06
1.56198e-06
1.61031e-06
1.65894e-06
1.70783e-06
1.75693e-06
1.80618e-06
1.85551e-06
1.90484e-06
1.9541e-06
2.00318e-06
2.05199e-06
2.10043e-06
2.14836e-06
2.19568e-06
2.24226e-06
2.28795e-06
2.33262e-06
2.37612e-06
2.41829e-06
2.45899e-06
2.49805e-06
2.53531e-06
2.57061e-06
2.60377e-06
2.63463e-06
2.66302e-06
2.68878e-06
2.71175e-06
2.73177e-06
2.74869e-06
2.76235e-06
2.77264e-06
2.77939e-06
2.78242e-06
2.78188e-06
2.77753e-06
2.76932e-06
2.75717e-06
2.74106e-06
2.72096e-06
2.69687e-06
2.66883e-06
2.63687e-06
2.60107e-06
2.56152e-06
2.51833e-06
2.47163e-06
2.42159e-06
2.36838e-06
2.3122e-06
2.25325e-06
2.19177e-06
2.128e-06
2.06221e-06
1.99464e-06
1.92558e-06
1.85531e-06
1.78411e-06
1.71225e-06
1.64002e-06
1.56769e-06
1.49553e-06
1.42379e-06
1.35273e-06
1.28256e-06
1.2135e-06
1.14576e-06
1.07952e-06
1.01493e-06
9.52135e-07
8.91263e-07
8.32415e-07
7.75672e-07
7.21097e-07
6.68734e-07
6.18611e-07
5.70737e-07
5.25106e-07
4.81697e-07
4.40478e-07
4.01405e-07
3.64427e-07
3.29486e-07
2.96519e-07
2.65466e-07
2.36265e-07
2.08864e-07
1.83222e-07
1.59318e-07
1.37163e-07
1.16814e-07
9.84062e-08
8.22089e-08
6.87405e-08
5.90461e-08
5.55228e-08
6.53356e-08
1.28389e-07
4.08833e-07
2.0124e-07
1.56418e-07
1.49086e-07
1.57627e-07
1.74957e-07
1.97888e-07
2.247e-07
2.5435e-07
2.86146e-07
3.19602e-07
3.54355e-07
3.9013e-07
4.2671e-07
4.63922e-07
5.01632e-07
5.39732e-07
5.78141e-07
6.16797e-07
6.55659e-07
6.947e-07
7.33907e-07
7.73279e-07
8.12825e-07
8.52559e-07
8.92504e-07
9.32684e-07
9.73126e-07
1.01386e-06
1.05491e-06
1.09629e-06
1.13804e-06
1.18016e-06
1.22266e-06
1.26554e-06
1.3088e-06
1.35243e-06
1.3964e-06
1.44068e-06
1.48524e-06
1.53003e-06
1.575e-06
1.62009e-06
1.66522e-06
1.71032e-06
1.75529e-06
1.80006e-06
1.84452e-06
1.88856e-06
1.93207e-06
1.97494e-06
2.01704e-06
2.05824e-06
2.0984e-06
2.13741e-06
2.1751e-06
2.21135e-06
2.24601e-06
2.27892e-06
2.30995e-06
2.33894e-06
2.36576e-06
2.39025e-06
2.41228e-06
2.43172e-06
2.44843e-06
2.46228e-06
2.47316e-06
2.48096e-06
2.48545e-06
2.48673e-06
2.48474e-06
2.47936e-06
2.47051e-06
2.45817e-06
2.44232e-06
2.42295e-06
2.40007e-06
2.37373e-06
2.34396e-06
2.31085e-06
2.27449e-06
2.23497e-06
2.19243e-06
2.14701e-06
2.09887e-06
2.0482e-06
1.99517e-06
1.93999e-06
1.88289e-06
1.82408e-06
1.7638e-06
1.70229e-06
1.63979e-06
1.57655e-06
1.51281e-06
1.44881e-06
1.38478e-06
1.32097e-06
1.25758e-06
1.19482e-06
1.1329e-06
1.072e-06
1.01228e-06
9.53898e-07
8.96994e-07
8.41686e-07
7.88077e-07
7.36255e-07
6.86288e-07
6.38231e-07
5.92121e-07
5.4798e-07
5.05819e-07
4.65633e-07
4.27407e-07
3.91115e-07
3.56726e-07
3.24201e-07
2.93495e-07
2.64565e-07
2.37368e-07
2.11867e-07
1.88033e-07
1.65856e-07
1.45351e-07
1.26571e-07
1.09629e-07
9.47366e-08
8.22731e-08
7.29303e-08
6.80871e-08
7.08882e-08
9.10704e-08
1.85344e-07
5.49193e-07
2.66237e-07
1.98294e-07
1.78027e-07
1.77259e-07
1.87053e-07
2.03507e-07
2.24552e-07
2.48955e-07
2.75914e-07
3.0487e-07
3.35417e-07
3.67246e-07
4.0012e-07
4.3385e-07
4.68287e-07
5.03313e-07
5.38835e-07
5.74784e-07
6.11106e-07
6.47766e-07
6.84741e-07
7.2202e-07
7.59601e-07
7.97491e-07
8.35702e-07
8.74248e-07
9.13148e-07
9.52418e-07
9.92077e-07
1.03214e-06
1.07261e-06
1.1135e-06
1.15481e-06
1.19654e-06
1.23866e-06
1.28116e-06
1.324e-06
1.36716e-06
1.41059e-06
1.45423e-06
1.49802e-06
1.54189e-06
1.58577e-06
1.62957e-06
1.67321e-06
1.71658e-06
1.75958e-06
1.80211e-06
1.84405e-06
1.88528e-06
1.92567e-06
1.96511e-06
2.00347e-06
2.0406e-06
2.07639e-06
2.11068e-06
2.14335e-06
2.17426e-06
2.20327e-06
2.23026e-06
2.25509e-06
2.27762e-06
2.29774e-06
2.31533e-06
2.33026e-06
2.34244e-06
2.35177e-06
2.35814e-06
2.36127e-06
2.36148e-06
2.35854e-06
2.35236e-06
2.34291e-06
2.33016e-06
2.31409e-06
2.29471e-06
2.27204e-06
2.2461e-06
2.21697e-06
2.18469e-06
2.14938e-06
2.11111e-06
2.07003e-06
2.02627e-06
1.97998e-06
1.93133e-06
1.88051e-06
1.82771e-06
1.77314e-06
1.71702e-06
1.65956e-06
1.601e-06
1.54156e-06
1.48149e-06
1.42101e-06
1.36035e-06
1.29974e-06
1.23938e-06
1.17949e-06
1.12027e-06
1.06188e-06
1.00452e-06
9.4832e-07
8.93434e-07
8.39982e-07
7.88074e-07
7.37802e-07
6.89242e-07
6.42456e-07
5.97488e-07
5.54373e-07
5.13127e-07
4.73757e-07
4.3626e-07
4.00619e-07
3.66814e-07
3.34817e-07
3.04594e-07
2.76111e-07
2.49336e-07
2.2424e-07
2.00801e-07
1.79014e-07
1.58892e-07
1.40481e-07
1.23875e-07
1.0924e-07
9.68561e-08
8.72142e-08
8.11882e-08
8.04801e-08
8.90601e-08
1.19556e-07
2.47171e-07
7.01687e-07
3.3749e-07
2.4562e-07
2.12763e-07
2.03445e-07
2.06655e-07
2.1769e-07
2.34112e-07
2.54486e-07
2.77889e-07
3.03685e-07
3.31413e-07
3.60729e-07
3.91367e-07
4.23116e-07
4.55809e-07
4.89312e-07
5.2352e-07
5.58349e-07
5.93735e-07
6.29631e-07
6.66003e-07
7.02831e-07
7.40102e-07
7.77814e-07
8.15968e-07
8.5457e-07
8.93629e-07
9.33154e-07
9.73151e-07
1.01363e-06
1.05458e-06
1.09602e-06
1.13792e-06
1.18027e-06
1.22305e-06
1.26623e-06
1.30977e-06
1.35362e-06
1.39773e-06
1.44203e-06
1.48646e-06
1.53094e-06
1.57538e-06
1.61969e-06
1.66378e-06
1.70754e-06
1.75086e-06
1.79362e-06
1.83572e-06
1.87702e-06
1.91741e-06
1.95676e-06
1.99494e-06
2.03183e-06
2.06728e-06
2.10118e-06
2.13339e-06
2.16379e-06
2.19223e-06
2.21861e-06
2.2428e-06
2.26467e-06
2.28412e-06
2.30102e-06
2.31529e-06
2.3268e-06
2.3355e-06
2.34121e-06
2.34373e-06
2.34342e-06
2.33996e-06
2.33331e-06
2.32343e-06
2.31028e-06
2.29385e-06
2.27415e-06
2.25118e-06
2.22499e-06
2.19562e-06
2.16314e-06
2.12762e-06
2.08919e-06
2.04794e-06
2.00403e-06
1.9576e-06
1.90883e-06
1.85789e-06
1.80499e-06
1.75033e-06
1.69414e-06
1.63664e-06
1.57807e-06
1.51866e-06
1.45864e-06
1.39827e-06
1.33777e-06
1.27736e-06
1.21727e-06
1.1577e-06
1.09886e-06
1.04093e-06
9.84068e-07
9.28438e-07
8.74177e-07
8.21404e-07
7.70223e-07
7.20723e-07
6.72975e-07
6.27033e-07
5.82939e-07
5.40719e-07
5.00386e-07
4.61943e-07
4.25383e-07
3.90689e-07
3.57838e-07
3.26801e-07
2.97548e-07
2.70049e-07
2.44276e-07
2.20212e-07
1.97847e-07
1.77192e-07
1.58282e-07
1.41189e-07
1.26042e-07
1.13061e-07
1.02601e-07
9.52496e-08
9.20524e-08
9.50684e-08
1.09172e-07
1.50126e-07
3.12923e-07
8.65789e-07
4.14528e-07
2.97619e-07
2.52137e-07
2.34644e-07
2.31837e-07
2.38132e-07
2.50681e-07
2.67832e-07
2.88533e-07
3.12066e-07
3.37917e-07
3.65698e-07
3.9511e-07
4.25916e-07
4.57927e-07
4.9099e-07
5.24984e-07
5.59808e-07
5.95386e-07
6.31658e-07
6.68578e-07
7.06114e-07
7.44244e-07
7.82953e-07
8.22235e-07
8.62085e-07
9.02502e-07
9.43486e-07
9.85035e-07
1.02714e-06
1.0698e-06
1.113e-06
1.15672e-06
1.20093e-06
1.24561e-06
1.2907e-06
1.33615e-06
1.38192e-06
1.42794e-06
1.47413e-06
1.52041e-06
1.5667e-06
1.6129e-06
1.65892e-06
1.70464e-06
1.74995e-06
1.79475e-06
1.83891e-06
1.88232e-06
1.92485e-06
1.96637e-06
2.00676e-06
2.0459e-06
2.08365e-06
2.1199e-06
2.15451e-06
2.18736e-06
2.21833e-06
2.24729e-06
2.27413e-06
2.29873e-06
2.32097e-06
2.34074e-06
2.35794e-06
2.37246e-06
2.3842e-06
2.39305e-06
2.39887e-06
2.40141e-06
2.40112e-06
2.39764e-06
2.39091e-06
2.38088e-06
2.36752e-06
2.35079e-06
2.3307e-06
2.30725e-06
2.28045e-06
2.25037e-06
2.21704e-06
2.18056e-06
2.14102e-06
2.09854e-06
2.05325e-06
2.00532e-06
1.95491e-06
1.90221e-06
1.84744e-06
1.79082e-06
1.73257e-06
1.67295e-06
1.6122e-06
1.55057e-06
1.48833e-06
1.42573e-06
1.36302e-06
1.30044e-06
1.23824e-06
1.17664e-06
1.11584e-06
1.05606e-06
9.97453e-07
9.40198e-07
8.84434e-07
8.30287e-07
7.77861e-07
7.27244e-07
6.78506e-07
6.31699e-07
5.86858e-07
5.44006e-07
5.03151e-07
4.64288e-07
4.27404e-07
3.92479e-07
3.59484e-07
3.2839e-07
2.99162e-07
2.71772e-07
2.46196e-07
2.22419e-07
2.00443e-07
1.80291e-07
1.62016e-07
1.45719e-07
1.31562e-07
1.19802e-07
1.1086e-07
1.05429e-07
1.0474e-07
1.11223e-07
1.30728e-07
1.82341e-07
3.81874e-07
1.04131e-06
4.97144e-07
3.53902e-07
2.95528e-07
2.69997e-07
2.61514e-07
2.63521e-07
2.72726e-07
2.87241e-07
3.05873e-07
3.27816e-07
3.52491e-07
3.79465e-07
4.08405e-07
4.39045e-07
4.71172e-07
5.04613e-07
5.39226e-07
5.74896e-07
6.11531e-07
6.49056e-07
6.87413e-07
7.26558e-07
7.66457e-07
8.07085e-07
8.48423e-07
8.90458e-07
9.33178e-07
9.76572e-07
1.02063e-06
1.06533e-06
1.11066e-06
1.1566e-06
1.2031e-06
1.25014e-06
1.29767e-06
1.34563e-06
1.39396e-06
1.4426e-06
1.49146e-06
1.54047e-06
1.58952e-06
1.63853e-06
1.68738e-06
1.73596e-06
1.78418e-06
1.8319e-06
1.87902e-06
1.92541e-06
1.97094e-06
2.0155e-06
2.05896e-06
2.1012e-06
2.14209e-06
2.18151e-06
2.21934e-06
2.25545e-06
2.28974e-06
2.32207e-06
2.35234e-06
2.38042e-06
2.40621e-06
2.42958e-06
2.45044e-06
2.46866e-06
2.48415e-06
2.49679e-06
2.50648e-06
2.51309e-06
2.51628e-06
2.51653e-06
2.51353e-06
2.50715e-06
2.49732e-06
2.484e-06
2.46715e-06
2.44674e-06
2.42276e-06
2.39523e-06
2.36417e-06
2.32964e-06
2.29169e-06
2.25043e-06
2.20598e-06
2.15846e-06
2.10804e-06
2.0549e-06
1.99924e-06
1.94129e-06
1.88128e-06
1.81948e-06
1.75614e-06
1.69154e-06
1.62597e-06
1.55972e-06
1.49306e-06
1.42629e-06
1.35967e-06
1.29347e-06
1.22794e-06
1.16332e-06
1.09983e-06
1.03767e-06
9.77015e-07
9.18026e-07
8.60837e-07
8.05562e-07
7.52294e-07
7.01104e-07
6.52043e-07
6.05144e-07
5.60426e-07
5.17889e-07
4.77524e-07
4.3931e-07
4.03217e-07
3.69212e-07
3.37257e-07
3.07317e-07
2.79359e-07
2.5336e-07
2.29306e-07
2.07204e-07
1.87085e-07
1.69017e-07
1.53117e-07
1.39579e-07
1.28705e-07
1.20978e-07
1.17199e-07
1.18781e-07
1.28561e-07
1.53404e-07
2.15881e-07
4.53437e-07
1.22827e-06
5.85285e-07
4.14288e-07
3.42598e-07
3.09008e-07
2.95032e-07
2.93061e-07
2.9931e-07
3.11634e-07
3.28692e-07
3.49578e-07
3.73649e-07
4.00421e-07
4.2952e-07
4.60651e-07
4.93571e-07
5.28083e-07
5.64025e-07
6.01262e-07
6.39685e-07
6.79203e-07
7.19744e-07
7.61249e-07
8.03672e-07
8.46976e-07
8.91131e-07
9.36111e-07
9.81893e-07
1.02846e-06
1.07577e-06
1.12382e-06
1.17256e-06
1.22197e-06
1.27198e-06
1.32257e-06
1.37366e-06
1.42519e-06
1.47708e-06
1.52926e-06
1.58163e-06
1.63409e-06
1.68654e-06
1.73889e-06
1.791e-06
1.84277e-06
1.89408e-06
1.9448e-06
1.99483e-06
2.04403e-06
2.09228e-06
2.13946e-06
2.18545e-06
2.23012e-06
2.27337e-06
2.31507e-06
2.35511e-06
2.39337e-06
2.42974e-06
2.46409e-06
2.49633e-06
2.52633e-06
2.55399e-06
2.57918e-06
2.60179e-06
2.62172e-06
2.63883e-06
2.65302e-06
2.66417e-06
2.67216e-06
2.67664e-06
2.67786e-06
2.6758e-06
2.67019e-06
2.66092e-06
2.64794e-06
2.63118e-06
2.61058e-06
2.58614e-06
2.55783e-06
2.52568e-06
2.48971e-06
2.44999e-06
2.4066e-06
2.35965e-06
2.30929e-06
2.25567e-06
2.19899e-06
2.13947e-06
2.07735e-06
2.01288e-06
1.94636e-06
1.87807e-06
1.80833e-06
1.73745e-06
1.66577e-06
1.59359e-06
1.52125e-06
1.44906e-06
1.37732e-06
1.30632e-06
1.23633e-06
1.16761e-06
1.10037e-06
1.03484e-06
9.71174e-07
9.09539e-07
8.5006e-07
7.92838e-07
7.37952e-07
6.85455e-07
6.35381e-07
5.87743e-07
5.42539e-07
4.99752e-07
4.59351e-07
4.21299e-07
3.85553e-07
3.52068e-07
3.208e-07
2.91711e-07
2.6477e-07
2.39966e-07
2.17305e-07
1.96824e-07
1.78603e-07
1.62776e-07
1.49562e-07
1.39305e-07
1.32552e-07
1.30207e-07
1.33877e-07
1.46827e-07
1.76973e-07
2.50495e-07
5.27132e-07
1.42685e-06
6.78995e-07
4.78713e-07
3.93173e-07
3.51387e-07
3.31993e-07
3.26251e-07
3.29836e-07
3.40326e-07
3.56215e-07
3.76494e-07
4.00442e-07
4.27524e-07
4.57321e-07
4.89502e-07
5.23793e-07
5.59971e-07
5.97848e-07
6.37271e-07
6.78107e-07
7.20251e-07
7.63613e-07
8.0812e-07
8.5371e-07
9.00333e-07
9.47946e-07
9.9651e-07
1.04599e-06
1.09635e-06
1.14755e-06
1.19956e-06
1.25232e-06
1.30579e-06
1.35991e-06
1.41461e-06
1.46982e-06
1.52545e-06
1.58143e-06
1.63766e-06
1.69402e-06
1.75042e-06
1.80674e-06
1.86287e-06
1.91869e-06
1.97407e-06
2.0289e-06
2.08304e-06
2.13639e-06
2.18881e-06
2.2402e-06
2.29043e-06
2.33938e-06
2.38694e-06
2.43301e-06
2.47746e-06
2.5202e-06
2.5611e-06
2.60006e-06
2.63698e-06
2.67173e-06
2.70421e-06
2.7343e-06
2.76188e-06
2.78682e-06
2.80902e-06
2.82833e-06
2.84462e-06
2.85777e-06
2.86764e-06
2.87396e-06
2.87656e-06
2.87586e-06
2.87139e-06
2.86303e-06
2.85066e-06
2.83421e-06
2.81361e-06
2.7888e-06
2.75976e-06
2.72647e-06
2.68897e-06
2.64729e-06
2.60151e-06
2.55174e-06
2.49812e-06
2.44081e-06
2.38003e-06
2.31599e-06
2.24897e-06
2.17924e-06
2.10712e-06
2.03294e-06
1.95704e-06
1.87979e-06
1.80154e-06
1.72268e-06
1.64357e-06
1.56456e-06
1.48601e-06
1.40825e-06
1.3316e-06
1.25635e-06
1.18275e-06
1.11106e-06
1.04147e-06
9.74172e-07
9.09305e-07
8.46989e-07
7.87312e-07
7.30336e-07
6.76095e-07
6.24604e-07
5.75854e-07
5.29823e-07
4.86472e-07
4.45754e-07
4.07616e-07
3.72001e-07
3.38856e-07
3.08132e-07
2.79794e-07
2.53824e-07
2.30227e-07
2.09043e-07
1.90358e-07
1.74321e-07
1.61176e-07
1.51304e-07
1.45315e-07
1.44221e-07
1.49829e-07
1.65844e-07
2.01267e-07
2.85987e-07
6.02569e-07
1.63734e-06
7.78375e-07
5.47186e-07
4.47172e-07
3.96971e-07
3.72153e-07
3.62772e-07
3.63916e-07
3.72866e-07
3.87935e-07
4.07997e-07
4.32252e-07
4.60102e-07
4.91082e-07
5.24817e-07
5.61002e-07
5.99383e-07
6.39744e-07
6.81908e-07
7.25721e-07
7.71056e-07
8.17807e-07
8.65881e-07
9.15204e-07
9.65708e-07
1.01734e-06
1.07003e-06
1.12375e-06
1.17844e-06
1.23405e-06
1.29053e-06
1.3478e-06
1.40581e-06
1.46449e-06
1.52375e-06
1.5835e-06
1.64365e-06
1.7041e-06
1.76474e-06
1.82546e-06
1.88613e-06
1.94663e-06
2.00686e-06
2.06667e-06
2.12594e-06
2.18457e-06
2.24241e-06
2.29935e-06
2.35528e-06
2.41009e-06
2.46366e-06
2.51588e-06
2.56665e-06
2.61587e-06
2.66343e-06
2.70923e-06
2.75316e-06
2.79513e-06
2.83502e-06
2.87272e-06
2.90812e-06
2.9411e-06
2.97153e-06
2.99927e-06
3.0242e-06
3.04616e-06
3.06502e-06
3.0806e-06
3.09277e-06
3.10134e-06
3.10583e-06
3.10671e-06
3.10373e-06
3.09657e-06
3.08509e-06
3.06918e-06
3.04875e-06
3.02372e-06
2.99403e-06
2.95967e-06
2.92062e-06
2.87692e-06
2.82864e-06
2.77587e-06
2.71876e-06
2.65747e-06
2.59222e-06
2.52325e-06
2.45083e-06
2.37529e-06
2.29696e-06
2.2162e-06
2.1334e-06
2.04897e-06
1.96332e-06
1.87685e-06
1.79001e-06
1.70319e-06
1.61679e-06
1.53122e-06
1.44682e-06
1.36393e-06
1.28288e-06
1.20393e-06
1.12732e-06
1.05328e-06
9.81979e-07
9.13547e-07
8.48093e-07
7.8569e-07
7.2638e-07
6.70178e-07
6.17076e-07
5.67045e-07
5.20039e-07
4.76e-07
4.34865e-07
3.96564e-07
3.61032e-07
3.2821e-07
2.98052e-07
2.70532e-07
2.45652e-07
2.23449e-07
2.04016e-07
1.87512e-07
1.74203e-07
1.64505e-07
1.59092e-07
1.59087e-07
1.66499e-07
1.85487e-07
2.26164e-07
3.22201e-07
6.79438e-07
1.86007e-06
8.83567e-07
6.1976e-07
5.04579e-07
4.45676e-07
4.15366e-07
4.02421e-07
4.01301e-07
4.08958e-07
4.23513e-07
4.43713e-07
4.68667e-07
4.97709e-07
5.30321e-07
5.66082e-07
6.04648e-07
6.4573e-07
6.89083e-07
7.345e-07
7.81805e-07
8.30848e-07
8.81502e-07
9.33655e-07
9.87215e-07
1.0421e-06
1.09823e-06
1.15554e-06
1.21396e-06
1.27343e-06
1.33387e-06
1.39523e-06
1.45741e-06
1.52034e-06
1.58393e-06
1.64808e-06
1.71269e-06
1.77764e-06
1.84283e-06
1.90813e-06
1.97341e-06
2.03856e-06
2.10345e-06
2.16794e-06
2.23191e-06
2.29524e-06
2.35781e-06
2.41951e-06
2.48021e-06
2.53981e-06
2.5982e-06
2.65529e-06
2.71098e-06
2.76517e-06
2.81776e-06
2.86867e-06
2.91779e-06
2.96503e-06
3.01029e-06
3.05346e-06
3.09443e-06
3.13308e-06
3.16928e-06
3.2029e-06
3.23378e-06
3.26179e-06
3.28676e-06
3.30851e-06
3.32687e-06
3.34166e-06
3.3527e-06
3.35957e-06
3.3622e-06
3.36098e-06
3.35527e-06
3.34492e-06
3.32978e-06
3.30972e-06
3.28464e-06
3.25446e-06
3.21913e-06
3.17863e-06
3.13298e-06
3.08222e-06
3.02645e-06
2.9658e-06
2.90043e-06
2.83057e-06
2.75647e-06
2.67842e-06
2.59675e-06
2.51184e-06
2.42409e-06
2.33391e-06
2.24175e-06
2.14807e-06
2.05335e-06
1.95805e-06
1.86264e-06
1.76759e-06
1.67333e-06
1.58029e-06
1.48886e-06
1.3994e-06
1.31223e-06
1.22766e-06
1.14593e-06
1.06724e-06
9.91761e-07
9.19626e-07
8.50922e-07
7.85702e-07
7.23988e-07
6.65774e-07
6.11026e-07
5.59693e-07
5.1171e-07
4.66999e-07
4.2548e-07
3.87073e-07
3.51706e-07
3.19323e-07
2.89885e-07
2.63388e-07
2.39866e-07
2.19413e-07
2.02197e-07
1.88502e-07
1.78781e-07
1.73769e-07
1.74697e-07
1.83794e-07
2.05669e-07
2.51572e-07
3.59026e-07
7.57506e-07
2.09544e-06
9.94737e-07
6.96517e-07
5.65415e-07
4.9747e-07
4.61554e-07
4.45073e-07
4.4183e-07
4.4841e-07
4.6273e-07
4.83395e-07
5.09417e-07
5.40053e-07
5.74723e-07
6.12957e-07
6.54365e-07
6.98619e-07
7.45441e-07
7.94593e-07
8.4587e-07
8.99097e-07
9.54124e-07
1.01082e-06
1.06907e-06
1.12877e-06
1.18983e-06
1.25216e-06
1.31567e-06
1.38029e-06
1.44593e-06
1.51249e-06
1.57989e-06
1.64802e-06
1.71677e-06
1.78604e-06
1.85571e-06
1.92564e-06
1.99572e-06
2.0658e-06
2.13577e-06
2.20549e-06
2.27483e-06
2.34365e-06
2.41184e-06
2.47927e-06
2.54584e-06
2.61142e-06
2.67593e-06
2.73925e-06
2.8013e-06
2.86198e-06
2.92122e-06
2.97892e-06
3.035e-06
3.08938e-06
3.14197e-06
3.19268e-06
3.2414e-06
3.28803e-06
3.33245e-06
3.37455e-06
3.41418e-06
3.45119e-06
3.48543e-06
3.51674e-06
3.54491e-06
3.56978e-06
3.59113e-06
3.60875e-06
3.62244e-06
3.63196e-06
3.63664e-06
3.63725e-06
3.63323e-06
3.62422e-06
3.61006e-06
3.59058e-06
3.56566e-06
3.5352e-06
3.49912e-06
3.45738e-06
3.40996e-06
3.35691e-06
3.29829e-06
3.23423e-06
3.1649e-06
3.09051e-06
3.01131e-06
2.92762e-06
2.83979e-06
2.7482e-06
2.65328e-06
2.55549e-06
2.45532e-06
2.35326e-06
2.24986e-06
2.14562e-06
2.04108e-06
1.93676e-06
1.83315e-06
1.73076e-06
1.63002e-06
1.53136e-06
1.43517e-06
1.34179e-06
1.2515e-06
1.16457e-06
1.0812e-06
1.00155e-06
9.25722e-07
8.53797e-07
7.85806e-07
7.21747e-07
6.6159e-07
6.05279e-07
5.5274e-07
5.03887e-07
4.58625e-07
4.16861e-07
3.7851e-07
3.43499e-07
3.11779e-07
2.83336e-07
2.58198e-07
2.36456e-07
2.18287e-07
2.03991e-07
1.94055e-07
1.89274e-07
1.90991e-07
2.01655e-07
2.26332e-07
2.77433e-07
3.96382e-07
8.36613e-07
2.34384e-06
1.11207e-06
7.77556e-07
6.29723e-07
5.52353e-07
5.10679e-07
4.9066e-07
4.85408e-07
4.91102e-07
5.05444e-07
5.26886e-07
5.54329e-07
5.86945e-07
6.24086e-07
6.65222e-07
7.09915e-07
7.57792e-07
8.08537e-07
8.61876e-07
9.17574e-07
9.75427e-07
1.03526e-06
1.09691e-06
1.16025e-06
1.22516e-06
1.29151e-06
1.35921e-06
1.42814e-06
1.49821e-06
1.56931e-06
1.64133e-06
1.71415e-06
1.78767e-06
1.86175e-06
1.93626e-06
2.01108e-06
2.08607e-06
2.16108e-06
2.23598e-06
2.31064e-06
2.38491e-06
2.45866e-06
2.53177e-06
2.60412e-06
2.67559e-06
2.74609e-06
2.81551e-06
2.88375e-06
2.95074e-06
3.0164e-06
3.08065e-06
3.14341e-06
3.20461e-06
3.26418e-06
3.32205e-06
3.37812e-06
3.43231e-06
3.48453e-06
3.53467e-06
3.5826e-06
3.62819e-06
3.67131e-06
3.71178e-06
3.74945e-06
3.78411e-06
3.81558e-06
3.84364e-06
3.86807e-06
3.88863e-06
3.90509e-06
3.91723e-06
3.92438e-06
3.92678e-06
3.92464e-06
3.91717e-06
3.9042e-06
3.88555e-06
3.86106e-06
3.8306e-06
3.79406e-06
3.75139e-06
3.70254e-06
3.64752e-06
3.5864e-06
3.51928e-06
3.44631e-06
3.3677e-06
3.2837e-06
3.19462e-06
3.10083e-06
3.00271e-06
2.90074e-06
2.79538e-06
2.68717e-06
2.57664e-06
2.46438e-06
2.35095e-06
2.23695e-06
2.12296e-06
2.00955e-06
1.89726e-06
1.78662e-06
1.67812e-06
1.57221e-06
1.46928e-06
1.36969e-06
1.27375e-06
1.18169e-06
1.09373e-06
1.01001e-06
9.30611e-07
8.556e-07
7.84982e-07
7.18732e-07
6.56795e-07
5.99092e-07
5.45527e-07
4.95995e-07
4.50388e-07
4.08606e-07
3.70561e-07
3.3619e-07
3.05467e-07
2.78411e-07
2.5511e-07
2.35745e-07
2.20631e-07
2.10287e-07
2.05569e-07
2.07931e-07
2.20047e-07
2.47446e-07
3.03714e-07
4.34228e-07
9.16672e-07
2.6057e-06
1.23573e-06
8.62982e-07
6.97561e-07
6.10346e-07
5.62732e-07
5.39152e-07
5.31979e-07
5.36965e-07
5.51574e-07
5.74093e-07
6.03299e-07
6.38271e-07
6.78282e-07
7.22739e-07
7.71145e-07
8.23079e-07
8.7818e-07
9.36134e-07
9.96672e-07
1.05956e-06
1.12459e-06
1.19158e-06
1.26036e-06
1.3308e-06
1.40276e-06
1.4761e-06
1.55071e-06
1.62645e-06
1.7032e-06
1.78084e-06
1.85922e-06
1.93822e-06
2.01769e-06
2.09748e-06
2.17746e-06
2.25747e-06
2.33736e-06
2.41699e-06
2.49623e-06
2.57492e-06
2.65296e-06
2.7302e-06
2.80656e-06
2.88191e-06
2.95617e-06
3.02925e-06
3.10107e-06
3.17157e-06
3.24068e-06
3.30834e-06
3.37448e-06
3.43906e-06
3.50199e-06
3.56321e-06
3.62266e-06
3.68023e-06
3.73584e-06
3.78937e-06
3.84071e-06
3.8897e-06
3.93621e-06
3.98005e-06
4.02105e-06
4.05901e-06
4.0937e-06
4.12489e-06
4.15235e-06
4.17583e-06
4.19507e-06
4.20983e-06
4.21961e-06
4.22389e-06
4.22371e-06
4.21797e-06
4.20642e-06
4.18887e-06
4.16512e-06
4.13502e-06
4.09844e-06
4.05527e-06
4.00547e-06
3.94901e-06
3.88592e-06
3.81628e-06
3.74022e-06
3.65794e-06
3.56968e-06
3.47573e-06
3.37645e-06
3.27226e-06
3.1636e-06
3.05099e-06
2.93499e-06
2.81616e-06
2.69512e-06
2.5725e-06
2.44895e-06
2.32511e-06
2.20161e-06
2.07908e-06
1.9581e-06
1.83925e-06
1.72304e-06
1.60995e-06
1.50038e-06
1.39472e-06
1.29326e-06
1.19625e-06
1.10387e-06
1.01626e-06
9.33503e-07
8.55615e-07
7.82589e-07
7.14372e-07
6.50887e-07
5.9203e-07
5.37686e-07
4.87736e-07
4.42062e-07
4.00562e-07
3.63158e-07
3.29809e-07
3.00523e-07
2.75384e-07
2.54573e-07
2.38418e-07
2.2747e-07
2.22645e-07
2.2551e-07
2.38961e-07
2.69002e-07
3.30406e-07
4.72554e-07
9.97667e-07
2.88139e-06
1.36592e-06
9.52901e-07
7.68994e-07
6.71483e-07
6.17724e-07
5.90538e-07
5.81523e-07
5.85964e-07
6.01077e-07
6.24964e-07
6.5627e-07
6.93967e-07
7.37242e-07
7.85426e-07
8.37961e-07
8.94369e-07
9.54237e-07
1.01721e-06
1.08298e-06
1.15127e-06
1.22185e-06
1.29451e-06
1.36905e-06
1.4453e-06
1.52311e-06
1.60231e-06
1.68277e-06
1.76433e-06
1.84685e-06
1.93018e-06
2.01416e-06
2.09864e-06
2.18346e-06
2.26847e-06
2.3535e-06
2.4384e-06
2.52302e-06
2.6072e-06
2.69081e-06
2.77371e-06
2.85578e-06
2.93691e-06
3.017e-06
3.09596e-06
3.17371e-06
3.25019e-06
3.32532e-06
3.39906e-06
3.47135e-06
3.54215e-06
3.61142e-06
3.6791e-06
3.74513e-06
3.80946e-06
3.87201e-06
3.9327e-06
3.99144e-06
4.04811e-06
4.10259e-06
4.15473e-06
4.20437e-06
4.25134e-06
4.29543e-06
4.33644e-06
4.37414e-06
4.40829e-06
4.43863e-06
4.46489e-06
4.48682e-06
4.50412e-06
4.51649e-06
4.52305e-06
4.52463e-06
4.52083e-06
4.51096e-06
4.49481e-06
4.47219e-06
4.4429e-06
4.40678e-06
4.3637e-06
4.31357e-06
4.25635e-06
4.19201e-06
4.12062e-06
4.04226e-06
3.95711e-06
3.86537e-06
3.76733e-06
3.66333e-06
3.55376e-06
3.4391e-06
3.31984e-06
3.19656e-06
3.06987e-06
2.9404e-06
2.80884e-06
2.67588e-06
2.54223e-06
2.40858e-06
2.27563e-06
2.14406e-06
2.0145e-06
1.88755e-06
1.76377e-06
1.64365e-06
1.52763e-06
1.41609e-06
1.30932e-06
1.20758e-06
1.11103e-06
1.01979e-06
9.33919e-07
8.53421e-07
7.78256e-07
7.0835e-07
6.436e-07
5.83882e-07
5.29064e-07
4.79016e-07
4.3362e-07
3.9278e-07
3.5644e-07
3.24597e-07
2.97325e-07
2.74806e-07
2.57379e-07
2.45623e-07
2.40516e-07
2.43736e-07
2.58408e-07
2.9101e-07
3.57524e-07
5.11384e-07
1.07965e-06
3.1713e-06
1.50279e-06
1.04741e-06
8.44085e-07
7.35802e-07
6.75675e-07
6.44828e-07
6.34036e-07
6.3809e-07
6.53937e-07
6.79482e-07
7.13219e-07
7.54005e-07
8.00928e-07
8.53239e-07
9.10305e-07
9.71585e-07
1.03661e-06
1.10498e-06
1.17634e-06
1.25038e-06
1.32682e-06
1.40542e-06
1.48597e-06
1.56825e-06
1.65209e-06
1.73731e-06
1.82372e-06
1.91118e-06
1.99949e-06
2.0885e-06
2.17803e-06
2.2679e-06
2.35795e-06
2.44801e-06
2.5379e-06
2.62746e-06
2.71654e-06
2.80498e-06
2.89266e-06
2.97943e-06
3.0652e-06
3.14986e-06
3.23333e-06
3.31553e-06
3.39639e-06
3.47588e-06
3.55393e-06
3.63052e-06
3.70561e-06
3.77917e-06
3.85116e-06
3.92155e-06
3.99028e-06
4.05731e-06
4.12256e-06
4.18596e-06
4.24741e-06
4.3068e-06
4.364e-06
4.41886e-06
4.47123e-06
4.52091e-06
4.56771e-06
4.61141e-06
4.65178e-06
4.68856e-06
4.72151e-06
4.75033e-06
4.77478e-06
4.79454e-06
4.80933e-06
4.81837e-06
4.82174e-06
4.82004e-06
4.81212e-06
4.79774e-06
4.77669e-06
4.74873e-06
4.7137e-06
4.67141e-06
4.62174e-06
4.56459e-06
4.49992e-06
4.42773e-06
4.34808e-06
4.26109e-06
4.16692e-06
4.06584e-06
3.95814e-06
3.8442e-06
3.72447e-06
3.59946e-06
3.46972e-06
3.33588e-06
3.19861e-06
3.05862e-06
2.91664e-06
2.77345e-06
2.6298e-06
2.48646e-06
2.3442e-06
2.20372e-06
2.06573e-06
1.93086e-06
1.7997e-06
1.67276e-06
1.55052e-06
1.43333e-06
1.32152e-06
1.21531e-06
1.11486e-06
1.02028e-06
9.316e-07
8.48796e-07
7.71807e-07
7.00531e-07
6.34845e-07
5.74606e-07
5.19672e-07
4.69908e-07
4.25203e-07
3.85484e-07
3.50733e-07
3.21015e-07
2.9651e-07
2.77566e-07
2.6479e-07
2.59216e-07
2.62642e-07
2.78415e-07
3.13501e-07
3.85104e-07
5.5077e-07
1.16273e-06
3.47575e-06
1.64648e-06
1.14661e-06
9.22896e-07
8.03344e-07
7.36611e-07
7.02036e-07
6.89529e-07
6.93349e-07
7.10159e-07
7.37646e-07
7.74143e-07
8.18377e-07
8.69328e-07
9.26152e-07
9.88138e-07
1.05467e-06
1.12523e-06
1.19934e-06
1.27662e-06
1.3567e-06
1.43927e-06
1.52405e-06
1.61079e-06
1.69927e-06
1.78925e-06
1.88055e-06
1.97296e-06
2.06629e-06
2.16035e-06
2.25493e-06
2.34987e-06
2.44495e-06
2.54e-06
2.63484e-06