/*--------------------------------*- C++ -*----------------------------------*\
  =========                 |
  \\      /  F ield         | OpenFOAM: The Open Source CFD Toolbox
   \\    /   O peration     | Website:  https://openfoam.org
    \\  /    A nd           | Version:  12
     \\/     M anipulation  |
\*---------------------------------------------------------------------------*/
FoamFile
{
    format      ascii;
    class       volScalarField;
    location    "7.5";
    object      k;
}
// * * * * * * * * * * * * * * * * * * * * * * * * * * * * * * * * * * * * * //

dimensions      [0 2 -2 0 0 0 0];

internalField   nonuniform List<scalar> 
18225
(
4.22509e-12
2.11144e-11
4.62083e-11
7.63418e-11
1.10104e-10
1.46662e-10
1.85427e-10
2.25942e-10
2.67835e-10
3.10795e-10
3.5456e-10
3.9891e-10
4.43655e-10
4.88642e-10
5.33743e-10
5.78856e-10
6.23905e-10
6.68834e-10
7.13607e-10
7.58204e-10
8.02623e-10
8.46875e-10
8.90982e-10
9.34975e-10
9.78892e-10
1.02278e-09
1.06668e-09
1.11065e-09
1.15472e-09
1.19896e-09
1.24339e-09
1.28807e-09
1.33301e-09
1.37826e-09
1.42381e-09
1.4697e-09
1.51591e-09
1.56245e-09
1.6093e-09
1.65644e-09
1.70384e-09
1.75146e-09
1.79926e-09
1.84719e-09
1.89518e-09
1.94316e-09
1.99105e-09
2.03879e-09
2.08626e-09
2.13337e-09
2.18003e-09
2.2261e-09
2.27148e-09
2.31603e-09
2.35963e-09
2.40213e-09
2.44338e-09
2.48323e-09
2.52153e-09
2.5581e-09
2.59279e-09
2.62543e-09
2.65583e-09
2.68383e-09
2.70924e-09
2.7319e-09
2.75164e-09
2.76827e-09
2.78166e-09
2.79165e-09
2.79803e-09
2.8007e-09
2.79967e-09
2.79474e-09
2.78581e-09
2.7728e-09
2.75567e-09
2.73437e-09
2.7089e-09
2.67928e-09
2.64556e-09
2.60779e-09
2.56608e-09
2.52054e-09
2.47132e-09
2.41859e-09
2.36255e-09
2.30341e-09
2.24141e-09
2.17682e-09
2.10989e-09
2.04094e-09
1.97024e-09
1.89811e-09
1.82486e-09
1.7508e-09
1.67625e-09
1.6015e-09
1.52687e-09
1.45264e-09
1.37908e-09
1.30645e-09
1.23499e-09
1.16492e-09
1.09645e-09
1.02974e-09
9.64953e-10
9.02222e-10
8.41653e-10
7.83329e-10
7.27314e-10
6.73649e-10
6.22353e-10
5.73432e-10
5.26868e-10
4.82626e-10
4.40662e-10
4.00915e-10
3.63319e-10
3.27795e-10
2.94261e-10
2.6263e-10
2.32813e-10
2.04724e-10
1.78279e-10
1.53405e-10
1.30039e-10
1.08133e-10
8.76659e-11
6.86458e-11
5.11293e-11
3.5245e-11
2.12502e-11
9.6892e-12
1.93785e-12
2.11271e-11
1.81775e-10
4.10722e-10
6.83259e-10
9.8787e-10
1.3174e-09
1.66666e-09
2.03158e-09
2.40886e-09
2.79569e-09
3.18972e-09
3.58896e-09
3.99172e-09
4.39663e-09
4.80254e-09
5.20854e-09
5.61393e-09
6.01822e-09
6.42109e-09
6.82237e-09
7.22203e-09
7.62017e-09
8.01699e-09
8.41278e-09
8.80789e-09
9.20271e-09
9.59767e-09
9.9932e-09
1.03897e-08
1.07877e-08
1.11875e-08
1.15894e-08
1.19938e-08
1.24008e-08
1.28107e-08
1.32235e-08
1.36393e-08
1.40581e-08
1.44796e-08
1.49038e-08
1.53303e-08
1.57588e-08
1.6189e-08
1.66202e-08
1.7052e-08
1.74838e-08
1.79149e-08
1.83444e-08
1.87716e-08
1.91957e-08
1.96155e-08
2.00302e-08
2.04386e-08
2.08397e-08
2.12321e-08
2.16146e-08
2.19859e-08
2.23447e-08
2.26894e-08
2.30187e-08
2.3331e-08
2.36249e-08
2.38986e-08
2.41507e-08
2.43797e-08
2.45838e-08
2.47616e-08
2.49115e-08
2.50319e-08
2.51214e-08
2.51784e-08
2.5202e-08
2.51923e-08
2.51476e-08
2.50668e-08
2.49494e-08
2.47948e-08
2.46027e-08
2.43732e-08
2.41063e-08
2.38024e-08
2.34622e-08
2.30865e-08
2.26765e-08
2.22333e-08
2.17586e-08
2.12541e-08
2.07218e-08
2.01637e-08
1.95824e-08
1.89801e-08
1.83595e-08
1.77233e-08
1.70743e-08
1.64152e-08
1.57488e-08
1.50781e-08
1.44056e-08
1.37342e-08
1.30663e-08
1.24045e-08
1.17511e-08
1.11083e-08
1.04779e-08
9.86194e-09
9.26185e-09
8.67906e-09
8.11475e-09
7.56989e-09
7.04524e-09
6.54137e-09
6.05863e-09
5.59721e-09
5.1571e-09
4.73817e-09
4.34015e-09
3.96263e-09
3.60508e-09
3.26688e-09
2.94735e-09
2.64571e-09
2.3612e-09
2.09302e-09
1.84037e-09
1.60251e-09
1.37877e-09
1.16858e-09
9.71508e-10
7.87342e-10
6.16153e-10
4.58417e-10
3.15238e-10
1.88773e-10
8.33729e-11
9.68514e-12
4.63502e-11
4.11709e-10
9.38176e-10
1.56729e-09
2.27122e-09
3.03292e-09
3.8402e-09
4.68362e-09
5.55546e-09
6.4493e-09
7.35968e-09
8.28203e-09
9.21246e-09
1.01478e-08
1.10853e-08
1.2023e-08
1.29593e-08
1.38929e-08
1.48232e-08
1.57499e-08
1.66728e-08
1.75921e-08
1.85085e-08
1.94224e-08
2.03348e-08
2.12466e-08
2.21588e-08
2.30723e-08
2.39883e-08
2.49076e-08
2.58312e-08
2.67598e-08
2.76941e-08
2.86347e-08
2.95819e-08
3.0536e-08
3.14971e-08
3.24649e-08
3.34393e-08
3.44198e-08
3.54057e-08
3.63963e-08
3.73906e-08
3.83874e-08
3.93855e-08
4.03835e-08
4.13797e-08
4.23723e-08
4.33595e-08
4.43392e-08
4.53092e-08
4.6267e-08
4.72103e-08
4.81362e-08
4.90421e-08
4.9925e-08
5.07818e-08
5.16094e-08
5.24044e-08
5.31635e-08
5.38832e-08
5.45599e-08
5.51902e-08
5.57702e-08
5.62965e-08
5.67653e-08
5.71732e-08
5.75166e-08
5.77921e-08
5.79965e-08
5.81256e-08
5.81773e-08
5.81527e-08
5.8047e-08
5.78581e-08
5.75844e-08
5.7225e-08
5.67791e-08
5.62467e-08
5.56281e-08
5.49244e-08
5.41368e-08
5.32674e-08
5.23188e-08
5.12939e-08
5.01963e-08
4.90301e-08
4.77998e-08
4.65104e-08
4.51673e-08
4.3776e-08
4.23427e-08
4.08735e-08
3.93749e-08
3.78531e-08
3.63149e-08
3.47665e-08
3.32145e-08
3.16649e-08
3.01238e-08
2.85968e-08
2.70893e-08
2.56062e-08
2.41521e-08
2.27312e-08
2.13471e-08
2.0003e-08
1.87016e-08
1.74452e-08
1.62354e-08
1.50736e-08
1.39606e-08
1.28969e-08
1.18824e-08
1.09167e-08
9.99934e-09
9.12922e-09
8.30516e-09
7.52571e-09
6.78926e-09
6.09409e-09
5.43836e-09
4.82025e-09
4.23794e-09
3.6897e-09
3.17396e-09
2.6894e-09
2.23504e-09
1.81039e-09
1.4156e-09
1.05181e-09
7.2165e-10
4.30335e-10
1.88458e-10
2.12047e-11
7.69108e-11
6.8786e-10
1.57403e-09
2.63693e-09
3.8284e-09
5.11865e-09
6.48657e-09
7.91586e-09
9.39333e-09
1.0908e-08
1.24506e-08
1.40134e-08
1.55897e-08
1.71741e-08
1.87623e-08
2.03505e-08
2.19362e-08
2.35175e-08
2.5093e-08
2.66622e-08
2.82251e-08
2.9782e-08
3.13338e-08
3.28816e-08
3.4427e-08
3.59713e-08
3.75165e-08
3.90642e-08
4.06161e-08
4.21738e-08
4.3739e-08
4.53129e-08
4.68967e-08
4.84912e-08
5.00972e-08
5.17149e-08
5.33444e-08
5.49857e-08
5.6638e-08
5.83006e-08
5.99725e-08
6.16522e-08
6.33381e-08
6.50282e-08
6.67203e-08
6.84119e-08
7.01002e-08
7.17823e-08
7.34548e-08
7.51142e-08
7.67568e-08
7.83784e-08
7.99749e-08
8.15416e-08
8.30739e-08
8.45667e-08
8.60149e-08
8.74131e-08
8.87557e-08
9.0037e-08
9.12511e-08
9.23921e-08
9.34538e-08
9.44303e-08
9.53154e-08
9.6103e-08
9.67871e-08
9.7362e-08
9.78219e-08
9.81614e-08
9.83726e-08
9.84533e-08
9.84055e-08
9.82201e-08
9.78939e-08
9.74242e-08
9.68094e-08
9.60485e-08
9.51414e-08
9.40886e-08
9.28918e-08
9.15534e-08
9.00769e-08
8.84664e-08
8.67271e-08
8.48651e-08
8.28873e-08
8.08014e-08
7.86158e-08
7.63395e-08
7.39823e-08
7.15542e-08
6.90659e-08
6.6528e-08
6.39516e-08
6.13477e-08
5.87271e-08
5.61007e-08
5.34789e-08
5.08718e-08
4.8289e-08
4.57395e-08
4.32318e-08
4.07736e-08
3.83718e-08
3.60325e-08
3.37612e-08
3.15624e-08
2.94398e-08
2.73963e-08
2.54342e-08
2.35546e-08
2.17584e-08
2.00456e-08
1.84155e-08
1.68669e-08
1.53982e-08
1.40074e-08
1.2692e-08
1.14492e-08
1.0276e-08
9.16949e-09
8.12642e-09
7.14375e-09
6.21854e-09
5.34815e-09
4.53033e-09
3.76345e-09
3.04667e-09
2.38034e-09
1.76648e-09
1.20976e-09
7.19383e-10
3.13722e-10
3.50571e-11
1.11634e-10
1.00085e-09
2.29545e-09
3.8526e-09
5.60116e-09
7.49656e-09
9.50714e-09
1.16085e-08
1.37809e-08
1.60082e-08
1.82765e-08
2.05743e-08
2.28919e-08
2.52213e-08
2.7556e-08
2.98907e-08
3.22216e-08
3.45457e-08
3.68614e-08
3.91678e-08
4.14648e-08
4.37531e-08
4.6034e-08
4.83092e-08
5.05809e-08
5.28515e-08
5.51235e-08
5.73994e-08
5.96819e-08
6.19733e-08
6.42759e-08
6.65917e-08
6.89223e-08
7.12689e-08
7.36325e-08
7.60135e-08
7.8412e-08
8.08277e-08
8.32596e-08
8.57066e-08
8.81668e-08
9.06383e-08
9.31184e-08
9.56043e-08
9.80925e-08
1.00579e-07
1.03061e-07
1.05532e-07
1.07988e-07
1.10425e-07
1.12835e-07
1.15214e-07
1.17555e-07
1.19851e-07
1.22096e-07
1.24281e-07
1.26401e-07
1.28445e-07
1.30407e-07
1.32279e-07
1.34051e-07
1.35714e-07
1.37261e-07
1.38682e-07
1.39969e-07
1.41112e-07
1.42103e-07
1.42934e-07
1.43596e-07
1.44081e-07
1.44376e-07
1.44482e-07
1.444e-07
1.44116e-07
1.43625e-07
1.42924e-07
1.4201e-07
1.40883e-07
1.39541e-07
1.37986e-07
1.36219e-07
1.34246e-07
1.3207e-07
1.29698e-07
1.27137e-07
1.24396e-07
1.21486e-07
1.18418e-07
1.15204e-07
1.11857e-07
1.08392e-07
1.04824e-07
1.01167e-07
9.74389e-08
9.36547e-08
8.98308e-08
8.59833e-08
8.2128e-08
7.82802e-08
7.44549e-08
7.06662e-08
6.69271e-08
6.32502e-08
5.96466e-08
5.61264e-08
5.26988e-08
4.93715e-08
4.6151e-08
4.30429e-08
4.00513e-08
3.71792e-08
3.44286e-08
3.18005e-08
2.92947e-08
2.69103e-08
2.46456e-08
2.2498e-08
2.04644e-08
1.85411e-08
1.67242e-08
1.50093e-08
1.33917e-08
1.1867e-08
1.04305e-08
9.07801e-09
7.80561e-09
6.61004e-09
5.48893e-09
4.44114e-09
3.46728e-09
2.57052e-09
1.75797e-09
1.04345e-09
4.54008e-10
5.06089e-11
1.4996e-10
1.34598e-09
3.0911e-09
5.19434e-09
7.55957e-09
1.0126e-08
1.285e-08
1.5698e-08
1.86431e-08
2.16627e-08
2.47382e-08
2.78536e-08
3.09959e-08
3.41541e-08
3.73192e-08
4.04843e-08
4.36439e-08
4.67943e-08
4.99332e-08
5.30594e-08
5.6173e-08
5.92748e-08
6.23668e-08
6.54513e-08
6.85314e-08
7.16102e-08
7.46913e-08
7.77783e-08
8.08745e-08
8.39832e-08
8.71075e-08
9.025e-08
9.34127e-08
9.65974e-08
9.98052e-08
1.03037e-07
1.06292e-07
1.09569e-07
1.12869e-07
1.16188e-07
1.19524e-07
1.22875e-07
1.26236e-07
1.29604e-07
1.32974e-07
1.3634e-07
1.39698e-07
1.4304e-07
1.4636e-07
1.49651e-07
1.52906e-07
1.56115e-07
1.59272e-07
1.62366e-07
1.65388e-07
1.68329e-07
1.71178e-07
1.73925e-07
1.76559e-07
1.79069e-07
1.81444e-07
1.83671e-07
1.8574e-07
1.87638e-07
1.89354e-07
1.90875e-07
1.92192e-07
1.93291e-07
1.94163e-07
1.94798e-07
1.95173e-07
1.95296e-07
1.95166e-07
1.94763e-07
1.94082e-07
1.93117e-07
1.91866e-07
1.90326e-07
1.88498e-07
1.86381e-07
1.83981e-07
1.813e-07
1.78347e-07
1.75129e-07
1.71656e-07
1.67941e-07
1.63997e-07
1.59839e-07
1.55484e-07
1.50951e-07
1.46259e-07
1.41427e-07
1.36477e-07
1.3143e-07
1.26309e-07
1.21135e-07
1.1593e-07
1.10715e-07
1.05512e-07
1.00341e-07
9.52201e-08
9.01679e-08
8.52009e-08
8.03343e-08
7.55819e-08
7.09556e-08
6.6466e-08
6.21219e-08
5.79305e-08
5.38972e-08
5.00262e-08
4.632e-08
4.27795e-08
3.94046e-08
3.6194e-08
3.3145e-08
3.02541e-08
2.75172e-08
2.49291e-08
2.24843e-08
2.01769e-08
1.80006e-08
1.59493e-08
1.40167e-08
1.21971e-08
1.04852e-08
8.87675e-09
7.36851e-09
5.9591e-09
4.6495e-09
3.44421e-09
2.35309e-09
1.39497e-09
6.06148e-10
6.7491e-11
1.91599e-10
1.72078e-09
3.95507e-09
6.65168e-09
9.68777e-09
1.29849e-08
1.64868e-08
2.01496e-08
2.39382e-08
2.78233e-08
3.17807e-08
3.57898e-08
3.98334e-08
4.38974e-08
4.79703e-08
5.20429e-08
5.61084e-08
6.01619e-08
6.42005e-08
6.82227e-08
7.22287e-08
7.62197e-08
8.01982e-08
8.41674e-08
8.81312e-08
9.20937e-08
9.60597e-08
1.00033e-07
1.0402e-07
1.08022e-07
1.12045e-07
1.16092e-07
1.20164e-07
1.24265e-07
1.28395e-07
1.32554e-07
1.36744e-07
1.40961e-07
1.45205e-07
1.49473e-07
1.53762e-07
1.58067e-07
1.62383e-07
1.66705e-07
1.71027e-07
1.75342e-07
1.79643e-07
1.83921e-07
1.88167e-07
1.92374e-07
1.9653e-07
2.00625e-07
2.04649e-07
2.0859e-07
2.12436e-07
2.16176e-07
2.19795e-07
2.23282e-07
2.26622e-07
2.29801e-07
2.32806e-07
2.35621e-07
2.38232e-07
2.40625e-07
2.42784e-07
2.44696e-07
2.46345e-07
2.47717e-07
2.488e-07
2.49579e-07
2.50024e-07
2.50154e-07
2.4996e-07
2.49419e-07
2.48522e-07
2.47264e-07
2.4564e-07
2.43649e-07
2.41289e-07
2.38561e-07
2.35471e-07
2.32023e-07
2.28227e-07
2.24092e-07
2.19631e-07
2.1486e-07
2.09796e-07
2.04459e-07
1.9887e-07
1.93052e-07
1.8703e-07
1.8083e-07
1.7448e-07
1.68006e-07
1.61436e-07
1.54801e-07
1.48126e-07
1.41441e-07
1.34772e-07
1.28145e-07
1.21584e-07
1.15113e-07
1.08752e-07
1.02523e-07
9.64405e-08
9.05218e-08
8.47798e-08
7.92257e-08
7.38685e-08
6.87153e-08
6.37708e-08
5.90382e-08
5.45188e-08
5.02119e-08
4.61155e-08
4.22264e-08
3.85398e-08
3.50501e-08
3.17508e-08
2.86345e-08
2.56936e-08
2.29201e-08
2.03058e-08
1.7843e-08
1.55242e-08
1.33427e-08
1.12931e-08
9.37129e-09
7.57574e-09
5.90787e-09
4.37364e-09
2.98586e-09
1.76862e-09
7.67872e-10
8.5445e-11
2.36408e-10
2.12401e-09
4.88446e-09
8.2195e-09
1.19778e-08
1.60624e-08
2.0403e-08
2.49451e-08
2.96445e-08
3.44648e-08
3.93753e-08
4.43503e-08
4.93685e-08
5.44119e-08
5.94663e-08
6.45203e-08
6.95652e-08
7.45951e-08
7.96063e-08
8.4597e-08
8.95676e-08
9.45196e-08
9.94561e-08
1.04381e-07
1.093e-07
1.14217e-07
1.19139e-07
1.24071e-07
1.29018e-07
1.33986e-07
1.38979e-07
1.44e-07
1.49053e-07
1.54141e-07
1.59263e-07
1.64421e-07
1.69614e-07
1.74839e-07
1.80095e-07
1.85377e-07
1.90682e-07
1.96003e-07
2.01335e-07
2.06669e-07
2.11999e-07
2.17316e-07
2.2261e-07
2.27871e-07
2.33089e-07
2.38253e-07
2.43349e-07
2.48366e-07
2.5329e-07
2.58108e-07
2.62806e-07
2.67368e-07
2.71779e-07
2.76023e-07
2.80085e-07
2.83947e-07
2.87592e-07
2.91003e-07
2.94163e-07
2.97053e-07
2.99657e-07
3.01957e-07
3.03935e-07
3.05574e-07
3.06859e-07
3.07772e-07
3.08272e-07
3.08395e-07
3.0812e-07
3.07419e-07
3.06282e-07
3.04703e-07
3.02677e-07
3.00199e-07
2.9727e-07
2.9389e-07
2.90065e-07
2.858e-07
2.81107e-07
2.75997e-07
2.70487e-07
2.64595e-07
2.58342e-07
2.51752e-07
2.44852e-07
2.37669e-07
2.30235e-07
2.22581e-07
2.14741e-07
2.06749e-07
1.9864e-07
1.90449e-07
1.82212e-07
1.73962e-07
1.65733e-07
1.57557e-07
1.49465e-07
1.41484e-07
1.33642e-07
1.25963e-07
1.18469e-07
1.11177e-07
1.04106e-07
9.72684e-08
9.06753e-08
8.43353e-08
7.82543e-08
7.24357e-08
6.6881e-08
6.15893e-08
5.65577e-08
5.1782e-08
4.72561e-08
4.29729e-08
3.89241e-08
3.51006e-08
3.14928e-08
2.80905e-08
2.4884e-08
2.18632e-08
1.90192e-08
1.63437e-08
1.383e-08
1.14734e-08
9.27197e-09
7.22773e-09
5.34818e-09
3.64919e-09
2.16029e-09
9.37414e-10
1.04272e-10
2.84333e-10
2.55523e-09
5.87823e-09
9.89594e-09
1.44269e-08
1.93542e-08
2.45931e-08
3.00774e-08
3.57534e-08
4.15767e-08
4.751e-08
5.35219e-08
5.95862e-08
6.56813e-08
7.17896e-08
7.78971e-08
8.39933e-08
9.00711e-08
9.61258e-08
1.02156e-07
1.0816e-07
1.14143e-07
1.20106e-07
1.26056e-07
1.31997e-07
1.37937e-07
1.43882e-07
1.49838e-07
1.55813e-07
1.61812e-07
1.6784e-07
1.73901e-07
1.8e-07
1.86137e-07
1.92314e-07
1.9853e-07
2.04785e-07
2.11076e-07
2.17399e-07
2.23749e-07
2.3012e-07
2.36506e-07
2.42898e-07
2.49287e-07
2.55664e-07
2.62019e-07
2.68339e-07
2.74613e-07
2.80828e-07
2.86971e-07
2.93027e-07
2.98981e-07
3.04819e-07
3.10524e-07
3.1608e-07
3.21469e-07
3.26673e-07
3.31675e-07
3.36455e-07
3.40995e-07
3.45275e-07
3.49274e-07
3.52972e-07
3.5635e-07
3.59387e-07
3.62062e-07
3.64354e-07
3.66245e-07
3.67715e-07
3.68744e-07
3.69278e-07
3.69378e-07
3.69e-07
3.68117e-07
3.66716e-07
3.64791e-07
3.62334e-07
3.59341e-07
3.55811e-07
3.51745e-07
3.47149e-07
3.42029e-07
3.36399e-07
3.30271e-07
3.23665e-07
3.16603e-07
3.09109e-07
3.01211e-07
2.92942e-07
2.84334e-07
2.75424e-07
2.66251e-07
2.56854e-07
2.47274e-07
2.37554e-07
2.27736e-07
2.17861e-07
2.07972e-07
1.98108e-07
1.88308e-07
1.78609e-07
1.69045e-07
1.59649e-07
1.50449e-07
1.41472e-07
1.32741e-07
1.24276e-07
1.16092e-07
1.08203e-07
1.0062e-07
9.33489e-08
8.63939e-08
7.97563e-08
7.34351e-08
6.74266e-08
6.17252e-08
5.63237e-08
5.12131e-08
4.63832e-08
4.1823e-08
3.75206e-08
3.3464e-08
2.9641e-08
2.60399e-08
2.26496e-08
1.94604e-08
1.64643e-08
1.36557e-08
1.10325e-08
8.59739e-09
6.35935e-09
4.3374e-09
2.56666e-09
1.11335e-09
1.23813e-10
3.35384e-10
3.01451e-09
6.93659e-09
1.16813e-08
1.70352e-08
2.28606e-08
2.90571e-08
3.55464e-08
4.22646e-08
4.91588e-08
5.61845e-08
6.33041e-08
7.04862e-08
7.77048e-08
8.49389e-08
9.21716e-08
9.93905e-08
1.06587e-07
1.13755e-07
1.20892e-07
1.28e-07
1.3508e-07
1.42136e-07
1.49175e-07
1.56204e-07
1.6323e-07
1.70261e-07
1.77305e-07
1.84369e-07
1.91459e-07
1.98581e-07
2.0574e-07
2.1294e-07
2.20181e-07
2.27466e-07
2.34792e-07
2.42157e-07
2.49559e-07
2.56991e-07
2.64448e-07
2.71922e-07
2.79404e-07
2.86885e-07
2.94354e-07
3.01799e-07
3.09209e-07
3.16569e-07
3.23865e-07
3.31083e-07
3.38207e-07
3.45222e-07
3.5211e-07
3.58854e-07
3.65435e-07
3.71836e-07
3.78036e-07
3.84017e-07
3.89757e-07
3.95236e-07
4.00431e-07
4.05322e-07
4.09885e-07
4.14098e-07
4.17938e-07
4.21382e-07
4.24406e-07
4.26988e-07
4.29106e-07
4.30736e-07
4.31852e-07
4.32394e-07
4.3245e-07
4.31945e-07
4.30854e-07
4.29166e-07
4.2687e-07
4.23957e-07
4.20425e-07
4.16269e-07
4.11492e-07
4.06099e-07
4.00099e-07
3.93503e-07
3.8633e-07
3.78599e-07
3.70335e-07
3.61567e-07
3.52328e-07
3.42653e-07
3.32582e-07
3.22157e-07
3.11422e-07
3.00423e-07
2.89209e-07
2.77829e-07
2.66333e-07
2.54768e-07
2.43185e-07
2.31631e-07
2.2015e-07
2.08788e-07
1.97584e-07
1.86576e-07
1.758e-07
1.65285e-07
1.55059e-07
1.45146e-07
1.35565e-07
1.26332e-07
1.17458e-07
1.08951e-07
1.00817e-07
9.30562e-08
8.56676e-08
7.86467e-08
7.19868e-08
6.56789e-08
5.97123e-08
5.40748e-08
4.87533e-08
4.37337e-08
3.90015e-08
3.45425e-08
3.03426e-08
2.6389e-08
2.26702e-08
1.91768e-08
1.59026e-08
1.2845e-08
1.00073e-08
7.40021e-09
5.04584e-09
2.98501e-09
1.29449e-09
1.43936e-10
3.89609e-10
3.50229e-09
8.06057e-09
1.35773e-08
1.98053e-08
2.65848e-08
3.37992e-08
4.13571e-08
4.91841e-08
5.72179e-08
6.54064e-08
7.37053e-08
8.20775e-08
9.04923e-08
9.89246e-08
1.07355e-07
1.15767e-07
1.24152e-07
1.32502e-07
1.40816e-07
1.49092e-07
1.57334e-07
1.65548e-07
1.73739e-07
1.81916e-07
1.90088e-07
1.98264e-07
2.06451e-07
2.14659e-07
2.22894e-07
2.31162e-07
2.39468e-07
2.47816e-07
2.56206e-07
2.64639e-07
2.73113e-07
2.81624e-07
2.90167e-07
2.98737e-07
3.07324e-07
3.1592e-07
3.24514e-07
3.33095e-07
3.4165e-07
3.50166e-07
3.58628e-07
3.67021e-07
3.75329e-07
3.83535e-07
3.91623e-07
3.99574e-07
4.07371e-07
4.14992e-07
4.2242e-07
4.29633e-07
4.36611e-07
4.43331e-07
4.49772e-07
4.5591e-07
4.61722e-07
4.67184e-07
4.72272e-07
4.76959e-07
4.81222e-07
4.85034e-07
4.8837e-07
4.91204e-07
4.93512e-07
4.95269e-07
4.96433e-07
4.96954e-07
4.9694e-07
4.96279e-07
4.94954e-07
4.92953e-07
4.90262e-07
4.86874e-07
4.82782e-07
4.77984e-07
4.7248e-07
4.66275e-07
4.5938e-07
4.51808e-07
4.43576e-07
4.34709e-07
4.25233e-07
4.15181e-07
4.04588e-07
3.93496e-07
3.81948e-07
3.69991e-07
3.57677e-07
3.45058e-07
3.32189e-07
3.19125e-07
3.05923e-07
2.92641e-07
2.79333e-07
2.66055e-07
2.52859e-07
2.39795e-07
2.26912e-07
2.14253e-07
2.01858e-07
1.89764e-07
1.78002e-07
1.666e-07
1.5558e-07
1.44961e-07
1.34757e-07
1.24978e-07
1.15629e-07
1.06711e-07
9.82226e-08
9.01591e-08
8.25123e-08
7.52716e-08
6.84247e-08
6.19572e-08
5.58536e-08
5.00975e-08
4.46721e-08
3.95607e-08
3.47471e-08
3.02163e-08
2.5955e-08
2.19525e-08
1.82015e-08
1.46995e-08
1.14499e-08
8.46518e-09
5.77074e-09
3.41314e-09
1.4799e-09
1.64534e-10
4.47083e-10
4.01927e-09
9.25178e-09
1.55867e-08
2.27411e-08
3.05322e-08
3.88261e-08
4.75179e-08
5.65217e-08
6.57655e-08
7.51889e-08
8.47402e-08
9.43762e-08
1.04061e-07
1.13765e-07
1.23464e-07
1.33141e-07
1.42784e-07
1.52385e-07
1.6194e-07
1.7145e-07
1.80917e-07
1.90348e-07
1.9975e-07
2.09133e-07
2.18505e-07
2.27877e-07
2.37258e-07
2.46658e-07
2.56083e-07
2.65539e-07
2.75032e-07
2.84564e-07
2.94136e-07
3.03746e-07
3.13392e-07
3.23069e-07
3.32771e-07
3.42489e-07
3.52213e-07
3.61933e-07
3.71636e-07
3.81308e-07
3.90936e-07
4.00504e-07
4.09996e-07
4.19395e-07
4.28683e-07
4.37843e-07
4.46855e-07
4.55701e-07
4.6436e-07
4.72811e-07
4.81035e-07
4.89009e-07
4.9671e-07
5.04115e-07
5.11201e-07
5.17943e-07
5.24315e-07
5.30293e-07
5.35849e-07
5.40956e-07
5.45588e-07
5.49716e-07
5.53313e-07
5.56351e-07
5.58802e-07
5.6064e-07
5.61806e-07
5.62282e-07
5.62156e-07
5.61307e-07
5.5972e-07
5.5738e-07
5.54275e-07
5.50394e-07
5.4573e-07
5.40279e-07
5.34042e-07
5.27025e-07
5.19237e-07
5.10692e-07
5.0141e-07
4.91415e-07
4.80738e-07
4.69414e-07
4.57481e-07
4.44984e-07
4.31971e-07
4.18495e-07
4.04612e-07
3.9038e-07
3.75861e-07
3.61116e-07
3.46209e-07
3.31205e-07
3.16165e-07
3.01152e-07
2.86227e-07
2.71445e-07
2.56862e-07
2.42528e-07
2.28489e-07
2.14788e-07
2.0146e-07
1.88539e-07
1.76049e-07
1.64014e-07
1.52449e-07
1.41366e-07
1.30772e-07
1.20667e-07
1.11052e-07
1.0192e-07
9.32613e-08
8.50649e-08
7.73163e-08
6.9999e-08
6.30952e-08
5.6586e-08
5.04522e-08
4.46746e-08
3.92346e-08
3.41149e-08
2.93006e-08
2.47793e-08
2.05427e-08
1.65879e-08
1.29189e-08
9.54982e-09
6.50912e-09
3.8493e-09
1.66881e-09
1.85523e-10
5.07901e-10
4.5663e-09
1.05122e-08
1.77129e-08
2.58478e-08
3.47096e-08
4.41466e-08
5.40394e-08
6.429e-08
7.48163e-08
8.55485e-08
9.64273e-08
1.07402e-07
1.18432e-07
1.29481e-07
1.40523e-07
1.51536e-07
1.62507e-07
1.73425e-07
1.84286e-07
1.9509e-07
2.05842e-07
2.16547e-07
2.27213e-07
2.37852e-07
2.48473e-07
2.59086e-07
2.69704e-07
2.80334e-07
2.90984e-07
3.0166e-07
3.12368e-07
3.23108e-07
3.3388e-07
3.44682e-07
3.55511e-07
3.66359e-07
3.77218e-07
3.88078e-07
3.98927e-07
4.09754e-07
4.20543e-07
4.31279e-07
4.41947e-07
4.52528e-07
4.63007e-07
4.73364e-07
4.83581e-07
4.93638e-07
5.03515e-07
5.13193e-07
5.2265e-07
5.31864e-07
5.40815e-07
5.49478e-07
5.5783e-07
5.65848e-07
5.73505e-07
5.80778e-07
5.87638e-07
5.94059e-07
6.00013e-07
6.05471e-07
6.10404e-07
6.14783e-07
6.18578e-07
6.21759e-07
6.24297e-07
6.26163e-07
6.27278e-07
6.27675e-07
6.27395e-07
6.26324e-07
6.24446e-07
6.21745e-07
6.18207e-07
6.13822e-07
6.0858e-07
6.02478e-07
5.95516e-07
5.87698e-07
5.79035e-07
5.69541e-07
5.59236e-07
5.48146e-07
5.36302e-07
5.23743e-07
5.10508e-07
4.96647e-07
4.8221e-07
4.67254e-07
4.51841e-07
4.36032e-07
4.19896e-07
4.035e-07
3.86915e-07
3.7021e-07
3.53455e-07
3.3672e-07
3.20072e-07
3.03575e-07
2.87291e-07
2.71275e-07
2.55583e-07
2.4026e-07
2.2535e-07
2.10889e-07
1.96908e-07
1.83433e-07
1.70483e-07
1.58071e-07
1.46206e-07
1.34891e-07
1.24124e-07
1.13899e-07
1.04207e-07
9.50341e-08
8.63643e-08
7.81792e-08
7.04586e-08
6.31814e-08
5.63255e-08
4.98693e-08
4.37917e-08
3.80733e-08
3.26968e-08
2.76485e-08
2.29189e-08
1.85046e-08
1.441e-08
1.06508e-08
7.25873e-09
4.29215e-09
1.86065e-09
2.0684e-10
5.72168e-10
5.14434e-09
1.18441e-08
1.99597e-08
2.91307e-08
3.91245e-08
4.97702e-08
6.09334e-08
7.25034e-08
8.43869e-08
9.65043e-08
1.08788e-07
1.21179e-07
1.33629e-07
1.46099e-07
1.58556e-07
1.70976e-07
1.83342e-07
1.95642e-07
2.07871e-07
2.20029e-07
2.32119e-07
2.44149e-07
2.56128e-07
2.68067e-07
2.79977e-07
2.91869e-07
3.03755e-07
3.15645e-07
3.27545e-07
3.39461e-07
3.51398e-07
3.63355e-07
3.75333e-07
3.87327e-07
3.99331e-07
4.11337e-07
4.23335e-07
4.35313e-07
4.47257e-07
4.59154e-07
4.70986e-07
4.82738e-07
4.94392e-07
5.05929e-07
5.17331e-07
5.28578e-07
5.39651e-07
5.5053e-07
5.61194e-07
5.71622e-07
5.81792e-07
5.91683e-07
6.01273e-07
6.10536e-07
6.1945e-07
6.2799e-07
6.3613e-07
6.43844e-07
6.51103e-07
6.5788e-07
6.64146e-07
6.69872e-07
6.75025e-07
6.79577e-07
6.83496e-07
6.8675e-07
6.89309e-07
6.91142e-07
6.92147e-07
6.92429e-07
6.91951e-07
6.90622e-07
6.88425e-07
6.85343e-07
6.81362e-07
6.76469e-07
6.70656e-07
6.63916e-07
6.5625e-07
6.47662e-07
6.3816e-07
6.2776e-07
6.16482e-07
6.04352e-07
5.91402e-07
5.77671e-07
5.63201e-07
5.48043e-07
5.32251e-07
5.15884e-07
4.99007e-07
4.81687e-07
4.63995e-07
4.46005e-07
4.27793e-07
4.09435e-07
3.91007e-07
3.72584e-07
3.54243e-07
3.36052e-07
3.18082e-07
3.00396e-07
2.83053e-07
2.66108e-07
2.49609e-07
2.33599e-07
2.18114e-07
2.03182e-07
1.88828e-07
1.75067e-07
1.6191e-07
1.49362e-07
1.37421e-07
1.26083e-07
1.15336e-07
1.05167e-07
9.55569e-08
8.64867e-08
7.79334e-08
6.98735e-08
6.22825e-08
5.5136e-08
4.84104e-08
4.20839e-08
3.61371e-08
3.05545e-08
2.53253e-08
2.04456e-08
1.59201e-08
1.17659e-08
8.01805e-09
4.7408e-09
2.05503e-09
2.28441e-10
6.39996e-10
5.7544e-09
1.32497e-08
2.23309e-08
3.25958e-08
4.37847e-08
5.57072e-08
6.82126e-08
8.11769e-08
9.44947e-08
1.08076e-07
1.21843e-07
1.35729e-07
1.49678e-07
1.63644e-07
1.77589e-07
1.91486e-07
2.05312e-07
2.19057e-07
2.32712e-07
2.46277e-07
2.59756e-07
2.73157e-07
2.86489e-07
2.99764e-07
3.12995e-07
3.26193e-07
3.3937e-07
3.52536e-07
3.65698e-07
3.78861e-07
3.92027e-07
4.05198e-07
4.1837e-07
4.31537e-07
4.44693e-07
4.57826e-07
4.70926e-07
4.83978e-07
4.96968e-07
5.09878e-07
5.22692e-07
5.35392e-07
5.47958e-07
5.60372e-07
5.72614e-07
5.84665e-07
5.96503e-07
6.08108e-07
6.19461e-07
6.30539e-07
6.41321e-07
6.51784e-07
6.61907e-07
6.71665e-07
6.81035e-07
6.89991e-07
6.98507e-07
7.06557e-07
7.14112e-07
7.21144e-07
7.27623e-07
7.33519e-07
7.38801e-07
7.43438e-07
7.47397e-07
7.50647e-07
7.53156e-07
7.54881e-07
7.55722e-07
7.55846e-07
7.55126e-07
7.53506e-07
7.50967e-07
7.47491e-07
7.43064e-07
7.37671e-07
7.31304e-07
7.23955e-07
7.15623e-07
7.06312e-07
6.96029e-07
6.84789e-07
6.72611e-07
6.59521e-07
6.45551e-07
6.30739e-07
6.15129e-07
5.9877e-07
5.8172e-07
5.64039e-07
5.45793e-07
5.27054e-07
5.07895e-07
4.88395e-07
4.68634e-07
4.48693e-07
4.28656e-07
4.08603e-07
3.88616e-07
3.68773e-07
3.49149e-07
3.29817e-07
3.10842e-07
2.92285e-07
2.74203e-07
2.56642e-07
2.39645e-07
2.23247e-07
2.07474e-07
1.92347e-07
1.7788e-07
1.64078e-07
1.50944e-07
1.3847e-07
1.26648e-07
1.15462e-07
1.04893e-07
9.49201e-08
8.55178e-08
7.66603e-08
6.83207e-08
6.04719e-08
5.30877e-08
4.61438e-08
3.96186e-08
3.34946e-08
2.77596e-08
2.24089e-08
1.74476e-08
1.2894e-08
8.78626e-09
5.19477e-09
2.25173e-09
2.50301e-10
7.11497e-10
6.39748e-09
1.47315e-08
2.48306e-08
3.62489e-08
4.86984e-08
6.19678e-08
7.58897e-08
9.03257e-08
1.05157e-07
1.20283e-07
1.35615e-07
1.51076e-07
1.66602e-07
1.8214e-07
1.97645e-07
2.13086e-07
2.28438e-07
2.43685e-07
2.5882e-07
2.73841e-07
2.88753e-07
3.03562e-07
3.1828e-07
3.32919e-07
3.47493e-07
3.62013e-07
3.76492e-07
3.90938e-07
4.0536e-07
4.19761e-07
4.34144e-07
4.48506e-07
4.62844e-07
4.7715e-07
4.91416e-07
5.05628e-07
5.19774e-07
5.33838e-07
5.47803e-07
5.61652e-07
5.75366e-07
5.88926e-07
6.02312e-07
6.15505e-07
6.28485e-07
6.41232e-07
6.53725e-07
6.65945e-07
6.7787e-07
6.89481e-07
7.00754e-07
7.1167e-07
7.22205e-07
7.32336e-07
7.42039e-07
7.51289e-07
7.60062e-07
7.68329e-07
7.76063e-07
7.83235e-07
7.89817e-07
7.95777e-07
8.01085e-07
8.05709e-07
8.09618e-07
8.12781e-07
8.15166e-07
8.16697e-07
8.17339e-07
8.17252e-07
8.1625e-07
8.1431e-07
8.11413e-07
8.07539e-07
8.02673e-07
7.96801e-07
7.89912e-07
7.81999e-07
7.73058e-07
7.63091e-07
7.52105e-07
7.40113e-07
7.27133e-07
7.13188e-07
6.98309e-07
6.82533e-07
6.65904e-07
6.48469e-07
6.30285e-07
6.11414e-07
5.91922e-07
5.71883e-07
5.51372e-07
5.30471e-07
5.09263e-07
4.87835e-07
4.66274e-07
4.44667e-07
4.23102e-07
4.01665e-07
3.80436e-07
3.59496e-07
3.38918e-07
3.18771e-07
2.99118e-07
2.80012e-07
2.61504e-07
2.43632e-07
2.26431e-07
2.09924e-07
1.94128e-07
1.79054e-07
1.64704e-07
1.51075e-07
1.38155e-07
1.25932e-07
1.14383e-07
1.03488e-07
9.32185e-08
8.35471e-08
7.44441e-08
6.58799e-08
5.78257e-08
5.02544e-08
4.31421e-08
3.64691e-08
3.02218e-08
2.43945e-08
1.89923e-08
1.40348e-08
9.56322e-09
5.65396e-09
2.45072e-09
2.72417e-10
7.86778e-10
7.07455e-09
1.62915e-08
2.74626e-08
4.00956e-08
5.38731e-08
6.85619e-08
8.3977e-08
9.99643e-08
1.16392e-07
1.33145e-07
1.50124e-07
1.67241e-07
1.84423e-07
2.01607e-07
2.18744e-07
2.35796e-07
2.52733e-07
2.69538e-07
2.86202e-07
3.02721e-07
3.19101e-07
3.35349e-07
3.51476e-07
3.67497e-07
3.83423e-07
3.9927e-07
4.15048e-07
4.30766e-07
4.46432e-07
4.62048e-07
4.77616e-07
4.93132e-07
5.08591e-07
5.23983e-07
5.39298e-07
5.54522e-07
5.69639e-07
5.84633e-07
5.99486e-07
6.14178e-07
6.28691e-07
6.43005e-07
6.571e-07
6.70956e-07
6.84554e-07
6.97874e-07
7.10896e-07
7.236e-07
7.35966e-07
7.47975e-07
7.59606e-07
7.70837e-07
7.81648e-07
7.92015e-07
8.01916e-07
8.11327e-07
8.20222e-07
8.28576e-07
8.36361e-07
8.4355e-07
8.50114e-07
8.56024e-07
8.61249e-07
8.65758e-07
8.69522e-07
8.72509e-07
8.74688e-07
8.75952e-07
8.7638e-07
8.76009e-07
8.74692e-07
8.72414e-07
8.69151e-07
8.64887e-07
8.59603e-07
8.53286e-07
8.45924e-07
8.37508e-07
8.28032e-07
8.17498e-07
8.05909e-07
7.93276e-07
7.79613e-07
7.64942e-07
7.4929e-07
7.32693e-07
7.1519e-07
6.96828e-07
6.77661e-07
6.5775e-07
6.37161e-07
6.15965e-07
5.94242e-07
5.72072e-07
5.49543e-07
5.26743e-07
5.03765e-07
4.807e-07
4.57643e-07
4.34684e-07
4.11913e-07
3.89417e-07
3.67277e-07
3.4557e-07
3.24366e-07
3.03729e-07
2.83713e-07
2.64366e-07
2.45727e-07
2.27826e-07
2.10685e-07
1.94319e-07
1.78731e-07
1.63922e-07
1.49882e-07
1.36597e-07
1.24047e-07
1.12207e-07
1.0105e-07
9.05463e-08
8.06631e-08
7.13686e-08
6.26311e-08
5.44209e-08
4.67116e-08
3.94812e-08
3.27143e-08
2.64041e-08
2.05554e-08
1.51891e-08
1.03495e-08
6.11867e-09
2.65212e-09
2.94802e-10
8.65938e-10
7.7865e-09
1.7932e-08
3.02305e-08
4.41412e-08
5.93161e-08
7.54988e-08
9.24858e-08
1.10106e-07
1.28214e-07
1.46679e-07
1.65388e-07
1.84244e-07
2.0316e-07
2.22065e-07
2.40903e-07
2.59628e-07
2.78207e-07
2.96619e-07
3.14854e-07
3.32907e-07
3.50783e-07
3.6849e-07
3.8604e-07
4.03448e-07
4.20727e-07
4.37891e-07
4.54951e-07
4.71918e-07
4.88796e-07
5.05588e-07
5.22294e-07
5.38909e-07
5.55426e-07
5.71833e-07
5.88119e-07
6.04268e-07
6.20264e-07
6.36088e-07
6.51721e-07
6.67144e-07
6.82337e-07
6.97282e-07
7.11957e-07
7.26343e-07
7.40423e-07
7.54176e-07
7.67583e-07
7.80627e-07
7.93288e-07
8.05547e-07
8.17386e-07
8.28784e-07
8.39722e-07
8.50178e-07
8.60129e-07
8.69555e-07
8.7843e-07
8.86731e-07
8.94432e-07
9.01506e-07
9.07927e-07
9.13666e-07
9.18696e-07
9.22987e-07
9.2651e-07
9.29236e-07
9.31128e-07
9.32067e-07
9.32244e-07
9.31543e-07
9.29887e-07
9.27258e-07
9.23636e-07
9.19e-07
9.13333e-07
9.06621e-07
8.98851e-07
8.9001e-07
8.80094e-07
8.69098e-07
8.57025e-07
8.4388e-07
8.29675e-07
8.14428e-07
7.98162e-07
7.80907e-07
7.627e-07
7.43583e-07
7.23607e-07
7.02829e-07
6.81312e-07
6.59129e-07
6.36354e-07
6.1307e-07
5.89365e-07
5.6533e-07
5.41059e-07
5.16651e-07
4.92202e-07
4.67811e-07
4.43574e-07
4.19585e-07
3.95934e-07
3.72706e-07
3.4998e-07
3.27828e-07
3.06312e-07
2.8549e-07
2.65407e-07
2.46099e-07
2.27596e-07
2.09915e-07
1.93066e-07
1.77051e-07
1.61864e-07
1.47491e-07
1.33912e-07
1.21103e-07
1.09036e-07
9.76774e-08
8.69942e-08
7.69516e-08
6.75152e-08
5.86526e-08
5.03344e-08
4.25365e-08
3.52414e-08
2.84409e-08
2.21394e-08
1.63588e-08
1.11461e-08
6.58956e-09
2.85621e-09
3.17488e-10
9.49068e-10
8.53416e-09
1.96548e-08
3.31373e-08
4.83905e-08
6.50337e-08
8.27869e-08
1.01426e-07
1.20764e-07
1.40637e-07
1.609e-07
1.81425e-07
2.021e-07
2.22828e-07
2.43527e-07
2.64131e-07
2.84588e-07
3.04861e-07
3.24925e-07
3.44765e-07
3.64379e-07
3.8377e-07
4.02946e-07
4.21922e-07
4.4071e-07
4.59327e-07
4.77786e-07
4.96099e-07
5.14274e-07
5.32317e-07
5.5023e-07
5.6801e-07
5.85651e-07
6.03145e-07
6.2048e-07
6.37641e-07
6.54611e-07