/*--------------------------------*- C++ -*----------------------------------*\
  =========                 |
  \\      /  F ield         | OpenFOAM: The Open Source CFD Toolbox
   \\    /   O peration     | Website:  https://openfoam.org
    \\  /    A nd           | Version:  12
     \\/     M anipulation  |
\*---------------------------------------------------------------------------*/
FoamFile
{
    format      ascii;
    class       volScalarField;
    location    "7.5";
    object      nut;
}
// * * * * * * * * * * * * * * * * * * * * * * * * * * * * * * * * * * * * * //

dimensions      [0 2 -1 0 0 0 0];

internalField   nonuniform List<scalar> 
18225
(
1.03831e-16
5.18883e-16
1.13557e-15
1.87609e-15
2.7058e-15
3.60421e-15
4.55685e-15
5.55251e-15
6.58202e-15
7.63776e-15
8.71329e-15
9.80317e-15
1.09028e-14
1.20083e-14
1.31167e-14
1.42253e-14
1.53324e-14
1.64365e-14
1.75368e-14
1.86328e-14
1.97244e-14
2.08119e-14
2.18958e-14
2.29769e-14
2.40562e-14
2.51347e-14
2.62135e-14
2.7294e-14
2.83772e-14
2.94643e-14
3.05563e-14
3.16542e-14
3.27587e-14
3.38705e-14
3.49901e-14
3.61177e-14
3.72534e-14
3.8397e-14
3.95484e-14
4.07068e-14
4.18717e-14
4.3042e-14
4.42168e-14
4.53945e-14
4.65738e-14
4.77529e-14
4.893e-14
5.0103e-14
5.12696e-14
5.24275e-14
5.3574e-14
5.47063e-14
5.58214e-14
5.69164e-14
5.79877e-14
5.90321e-14
6.00459e-14
6.10252e-14
6.19664e-14
6.28652e-14
6.37177e-14
6.45197e-14
6.52668e-14
6.59548e-14
6.65794e-14
6.71363e-14
6.76213e-14
6.80301e-14
6.83592e-14
6.86045e-14
6.87614e-14
6.88271e-14
6.88016e-14
6.86805e-14
6.84611e-14
6.81415e-14
6.77203e-14
6.71969e-14
6.65711e-14
6.58432e-14
6.50144e-14
6.40862e-14
6.30611e-14
6.1942e-14
6.07325e-14
5.94367e-14
5.80594e-14
5.66061e-14
5.50825e-14
5.34951e-14
5.18505e-14
5.01558e-14
4.84184e-14
4.66458e-14
4.48457e-14
4.30257e-14
4.11936e-14
3.93568e-14
3.75228e-14
3.56985e-14
3.38908e-14
3.21059e-14
3.03498e-14
2.86279e-14
2.69451e-14
2.53057e-14
2.37136e-14
2.2172e-14
2.06835e-14
1.92502e-14
1.78737e-14
1.65549e-14
1.52943e-14
1.4092e-14
1.29477e-14
1.18605e-14
1.08292e-14
9.85245e-15
8.92852e-15
8.05553e-15
7.23144e-15
6.4541e-15
5.72135e-15
5.03106e-15
4.3812e-15
3.76992e-15
3.19569e-15
2.65736e-15
2.15438e-15
1.68696e-15
1.2565e-15
8.6614e-16
5.22222e-16
2.38111e-16
4.76224e-17
5.19195e-16
4.70875e-14
1.59899e-13
2.95445e-13
4.43497e-13
6.01472e-13
7.67621e-13
9.4042e-13
1.11852e-12
1.30073e-12
1.48602e-12
1.67349e-12
1.86241e-12
2.05214e-12
2.24217e-12
2.4321e-12
2.62161e-12
2.81047e-12
2.99856e-12
3.18579e-12
3.37218e-12
3.55776e-12
3.74265e-12
3.92698e-12
4.11092e-12
4.29468e-12
4.47844e-12
4.66243e-12
4.84684e-12
5.03188e-12
5.21774e-12
5.40457e-12
5.59252e-12
5.7817e-12
5.97219e-12
6.16404e-12
6.35727e-12
6.55187e-12
6.74778e-12
6.94492e-12
7.14316e-12
7.34237e-12
7.54234e-12
7.74287e-12
7.9437e-12
8.14454e-12
8.3451e-12
8.54502e-12
8.74392e-12
8.94141e-12
9.13704e-12
9.33035e-12
9.52085e-12
9.708e-12
9.89125e-12
1.007e-11
1.02437e-11
1.04116e-11
1.05732e-11
1.07277e-11
1.08744e-11
1.10127e-11
1.11417e-11
1.12607e-11
1.13691e-11
1.1466e-11
1.15507e-11
1.16225e-11
1.16805e-11
1.1724e-11
1.17523e-11
1.1765e-11
1.17622e-11
1.17431e-11
1.17071e-11
1.16539e-11
1.15832e-11
1.1495e-11
1.13892e-11
1.12657e-11
1.11249e-11
1.09669e-11
1.07922e-11
1.06013e-11
1.03947e-11
1.01732e-11
9.93758e-12
9.68879e-12
9.42783e-12
9.15579e-12
8.87384e-12
8.5832e-12
8.28515e-12
7.981e-12
7.67208e-12
7.35972e-12
7.04526e-12
6.73e-12
6.41522e-12
6.10214e-12
5.79194e-12
5.48571e-12
5.18448e-12
4.88918e-12
4.60067e-12
4.31968e-12
4.04688e-12
3.78281e-12
3.52793e-12
3.28259e-12
3.04704e-12
2.82145e-12
2.6059e-12
2.40035e-12
2.20474e-12
2.01896e-12
1.84281e-12
1.67603e-12
1.51832e-12
1.36935e-12
1.22874e-12
1.09612e-12
9.71105e-13
8.53303e-13
7.42347e-13
6.37897e-13
5.39652e-13
4.47368e-13
3.60873e-13
2.80089e-13
2.05049e-13
1.35936e-13
7.33786e-14
2.15934e-14
2.38011e-16
1.13905e-15
1.60084e-13
8.12311e-13
1.83095e-12
3.01542e-12
4.28518e-12
5.61147e-12
6.98026e-12
8.38183e-12
9.80817e-12
1.12523e-11
1.27082e-11
1.41707e-11
1.56354e-11
1.70987e-11
1.85579e-11
2.00108e-11
2.14559e-11
2.28924e-11
2.43201e-11
2.5739e-11
2.71498e-11
2.85534e-11
2.99512e-11
3.13444e-11
3.27349e-11
3.41242e-11
3.55141e-11
3.69063e-11
3.83024e-11
3.9704e-11
4.11124e-11
4.25288e-11
4.3954e-11
4.53888e-11
4.68337e-11
4.82888e-11
4.97541e-11
5.12293e-11
5.27139e-11
5.4207e-11
5.57075e-11
5.72141e-11
5.87253e-11
6.02393e-11
6.1754e-11
6.32673e-11
6.47765e-11
6.6279e-11
6.77719e-11
6.92519e-11
7.07156e-11
7.21595e-11
7.35795e-11
7.49717e-11
7.63317e-11
7.76549e-11
7.89366e-11
8.01719e-11
8.13555e-11
8.24822e-11
8.35465e-11
8.45429e-11
8.54656e-11
8.63089e-11
8.70671e-11
8.77343e-11
8.83048e-11
8.87727e-11
8.91325e-11
8.93785e-11
8.95033e-11
8.95135e-11
8.93987e-11
8.9155e-11
8.87794e-11
8.82698e-11
8.76248e-11
8.68437e-11
8.59266e-11
8.48745e-11
8.36893e-11
8.23735e-11
8.0931e-11
7.93661e-11
7.76844e-11
7.5892e-11
7.3996e-11
7.20042e-11
6.99252e-11
6.77679e-11
6.55421e-11
6.32576e-11
6.09249e-11
5.85543e-11
5.61565e-11
5.37418e-11
5.13207e-11
4.89032e-11
4.64989e-11
4.41171e-11
4.17664e-11
3.94548e-11
3.71898e-11
3.49778e-11
3.28247e-11
3.07355e-11
2.87145e-11
2.67652e-11
2.48901e-11
2.30911e-11
2.13695e-11
1.97257e-11
1.81595e-11
1.66701e-11
1.52565e-11
1.39168e-11
1.2649e-11
1.14504e-11
1.03185e-11
9.25007e-12
8.24204e-12
7.29117e-12
6.39419e-12
5.54791e-12
4.74925e-12
3.99533e-12
3.28359e-12
2.61188e-12
1.9789e-12
1.38542e-12
8.3917e-13
3.72177e-13
7.3335e-14
5.21102e-16
1.89007e-15
2.96755e-13
1.83383e-12
4.87979e-12
8.93897e-12
1.35433e-11
1.84406e-11
2.35084e-11
2.86824e-11
3.3923e-11
3.9202e-11
4.44976e-11
4.97922e-11
5.50717e-11
6.03246e-11
6.55424e-11
7.0719e-11
7.58506e-11
8.09353e-11
8.59735e-11
9.09668e-11
9.59186e-11
1.00833e-10
1.05716e-10
1.10574e-10
1.15412e-10
1.20238e-10
1.2506e-10
1.29882e-10
1.34713e-10
1.39558e-10
1.44421e-10
1.49309e-10
1.54224e-10
1.5917e-10
1.64148e-10
1.6916e-10
1.74207e-10
1.79287e-10
1.84399e-10
1.89541e-10
1.94709e-10
1.999e-10
2.05109e-10
2.10329e-10
2.15556e-10
2.20781e-10
2.25996e-10
2.31194e-10
2.36363e-10
2.41494e-10
2.46576e-10
2.51596e-10
2.56541e-10
2.61399e-10
2.66153e-10
2.7079e-10
2.75292e-10
2.79642e-10
2.83824e-10
2.87817e-10
2.91604e-10
2.95163e-10
2.98476e-10
3.01522e-10
3.04279e-10
3.06728e-10
3.08846e-10
3.10614e-10
3.12015e-10
3.13017e-10
3.13592e-10
3.13777e-10
3.13524e-10
3.12816e-10
3.11643e-10
3.09996e-10
3.07867e-10
3.05253e-10
3.02153e-10
2.98569e-10
2.94506e-10
2.89973e-10
2.8498e-10
2.79545e-10
2.73684e-10
2.6742e-10
2.60778e-10
2.53785e-10
2.46473e-10
2.38872e-10
2.31019e-10
2.2295e-10
2.14702e-10
2.06312e-10
1.9782e-10
1.89265e-10
1.80683e-10
1.72112e-10
1.63587e-10
1.55142e-10
1.46808e-10
1.38615e-10
1.30589e-10
1.22754e-10
1.15132e-10
1.07741e-10
1.00595e-10
9.37071e-11
8.70863e-11
8.0739e-11
7.46692e-11
6.88779e-11
6.33641e-11
5.81246e-11
5.31543e-11
4.84463e-11
4.39923e-11
3.97824e-11
3.58058e-11
3.20509e-11
2.85052e-11
2.5156e-11
2.19903e-11
1.89951e-11
1.61579e-11
1.34668e-11
1.09124e-11
8.48928e-12
6.20298e-12
4.08552e-12
2.23074e-12
8.38863e-13
1.35576e-13
8.61524e-16
2.74339e-15
4.47984e-13
3.03174e-12
8.96011e-12
1.79129e-11
2.89091e-11
4.11076e-11
5.39747e-11
6.72e-11
8.06005e-11
9.40627e-11
1.07511e-10
1.20892e-10
1.34167e-10
1.47309e-10
1.60299e-10
1.73124e-10
1.8578e-10
1.98264e-10
2.10582e-10
2.22743e-10
2.34757e-10
2.4664e-10
2.58408e-10
2.7008e-10
2.81674e-10
2.93211e-10
3.04711e-10
3.16192e-10
3.27671e-10
3.39166e-10
3.50692e-10
3.62261e-10
3.73885e-10
3.85572e-10
3.9733e-10
4.09161e-10
4.2107e-10
4.33056e-10
4.45116e-10
4.57248e-10
4.69445e-10
4.81698e-10
4.93999e-10
5.06335e-10
5.18693e-10
5.31057e-10
5.43411e-10
5.55734e-10
5.68005e-10
5.80202e-10
5.92299e-10
6.04269e-10
6.16082e-10
6.27707e-10
6.39109e-10
6.50253e-10
6.61101e-10
6.71611e-10
6.81743e-10
6.9145e-10
7.00688e-10
7.09407e-10
7.17558e-10
7.25091e-10
7.31954e-10
7.38096e-10
7.43463e-10
7.48006e-10
7.51711e-10
7.54409e-10
7.56114e-10
7.56896e-10
7.5662e-10
7.55248e-10
7.52749e-10
7.49098e-10
7.44275e-10
7.38268e-10
7.3107e-10
7.22683e-10
7.13116e-10
7.02389e-10
6.90527e-10
6.77565e-10
6.63546e-10
6.48523e-10
6.32555e-10
6.1571e-10
5.9806e-10
5.79687e-10
5.60675e-10
5.41115e-10
5.21098e-10
5.00719e-10
4.80075e-10
4.59261e-10
4.38372e-10
4.17498e-10
3.9673e-10
3.76151e-10
3.5584e-10
3.35871e-10
3.1631e-10
2.97218e-10
2.78647e-10
2.60642e-10
2.43241e-10
2.26473e-10
2.10362e-10
1.94924e-10
1.80165e-10
1.66091e-10
1.52695e-10
1.39971e-10
1.27903e-10
1.16473e-10
1.05658e-10
9.54335e-11
8.57696e-11
7.66353e-11
6.79975e-11
5.98219e-11
5.20738e-11
4.4719e-11
3.77258e-11
3.10683e-11
2.4734e-11
1.87376e-11
1.31511e-11
8.15413e-12
4.08507e-12
1.38232e-12
2.037e-13
1.24371e-15
3.68524e-15
6.12424e-13
4.33668e-12
1.36401e-11
2.90154e-11
4.93344e-11
7.30245e-11
9.87681e-11
1.25648e-10
1.53071e-10
1.8066e-10
2.08172e-10
2.35448e-10
2.62384e-10
2.88914e-10
3.14994e-10
3.40605e-10
3.6574e-10
3.90406e-10
4.14621e-10
4.38409e-10
4.61803e-10
4.84842e-10
5.07568e-10
5.30024e-10
5.52257e-10
5.74312e-10
5.96236e-10
6.1807e-10
6.39856e-10
6.61632e-10
6.83431e-10
7.05282e-10
7.27213e-10
7.49243e-10
7.7139e-10
7.93666e-10
8.16077e-10
8.38629e-10
8.6132e-10
8.84145e-10
9.07097e-10
9.30163e-10
9.53327e-10
9.76569e-10
9.99867e-10
1.02319e-09
1.04652e-09
1.06981e-09
1.09303e-09
1.11613e-09
1.13907e-09
1.1618e-09
1.18426e-09
1.2064e-09
1.22815e-09
1.24944e-09
1.27021e-09
1.29036e-09
1.30983e-09
1.32853e-09
1.34636e-09
1.36323e-09
1.37906e-09
1.39373e-09
1.40714e-09
1.4192e-09
1.42979e-09
1.43883e-09
1.44632e-09
1.45177e-09
1.45541e-09
1.45729e-09
1.45714e-09
1.45488e-09
1.45045e-09
1.44381e-09
1.43491e-09
1.42372e-09
1.41022e-09
1.39443e-09
1.37634e-09
1.356e-09
1.33346e-09
1.30877e-09
1.28201e-09
1.2533e-09
1.22273e-09
1.19044e-09
1.15657e-09
1.12127e-09
1.08471e-09
1.04706e-09
1.00849e-09
9.69194e-10
9.29356e-10
8.89161e-10
8.48792e-10
8.08431e-10
7.6825e-10
7.28414e-10
6.89079e-10
6.50389e-10
6.12477e-10
5.7546e-10
5.39443e-10
5.04515e-10
4.70752e-10
4.38212e-10
4.06942e-10
3.76972e-10
3.48319e-10
3.20988e-10
2.94973e-10
2.70253e-10
2.468e-10
2.24577e-10
2.03537e-10
1.83626e-10
1.64785e-10
1.46949e-10
1.30049e-10
1.14014e-10
9.87753e-11
8.42664e-11
7.04338e-11
5.72487e-11
4.47322e-11
3.29972e-11
2.23084e-11
1.31501e-11
6.19199e-12
1.96648e-12
2.76585e-13
1.65858e-15
4.70852e-15
7.89648e-13
5.73174e-12
1.87158e-11
4.15186e-11
7.34307e-11
1.12377e-10
1.56082e-10
2.02657e-10
2.5072e-10
2.99327e-10
3.47849e-10
3.95873e-10
4.43135e-10
4.89472e-10
5.34789e-10
5.79044e-10
6.22232e-10
6.64375e-10
7.05517e-10
7.4572e-10
7.85056e-10
8.23609e-10
8.61468e-10
8.98723e-10
9.3547e-10
9.718e-10
1.0078e-09
1.04357e-09
1.07917e-09
1.11468e-09
1.15017e-09
1.1857e-09
1.22131e-09
1.25706e-09
1.29296e-09
1.32906e-09
1.36536e-09
1.40188e-09
1.43863e-09
1.47559e-09
1.51276e-09
1.55012e-09
1.58766e-09
1.62533e-09
1.66311e-09
1.70095e-09
1.73882e-09
1.77665e-09
1.81438e-09
1.85195e-09
1.88928e-09
1.9263e-09
1.9629e-09
1.999e-09
2.03449e-09
2.06926e-09
2.10319e-09
2.13615e-09
2.168e-09
2.19861e-09
2.22782e-09
2.25548e-09
2.28142e-09
2.30549e-09
2.32751e-09
2.3473e-09
2.3647e-09
2.37958e-09
2.39194e-09
2.40081e-09
2.40685e-09
2.40997e-09
2.40975e-09
2.40607e-09
2.39882e-09
2.38794e-09
2.37334e-09
2.35498e-09
2.33285e-09
2.30693e-09
2.27725e-09
2.24387e-09
2.20686e-09
2.16633e-09
2.12241e-09
2.07525e-09
2.02505e-09
1.972e-09
1.91634e-09
1.85831e-09
1.79818e-09
1.73623e-09
1.67275e-09
1.60804e-09
1.5424e-09
1.47614e-09
1.40955e-09
1.34294e-09
1.27658e-09
1.21074e-09
1.1457e-09
1.08167e-09
1.01889e-09
9.57551e-10
8.97826e-10
8.39868e-10
7.83802e-10
7.29731e-10
6.77732e-10
6.27861e-10
5.80147e-10
5.346e-10
4.91209e-10
4.49943e-10
4.10752e-10
3.73573e-10
3.38328e-10
3.04925e-10
2.73262e-10
2.43227e-10
2.14701e-10
1.87567e-10
1.6171e-10
1.37035e-10
1.13484e-10
9.10647e-11
6.99081e-11
5.0343e-11
3.29792e-11
1.87022e-11
8.44005e-12
2.57869e-12
3.5348e-13
2.0998e-15
5.80969e-15
9.79498e-13
7.21464e-12
2.41155e-11
5.50289e-11
1.00157e-10
1.57331e-10
2.23404e-10
2.95303e-10
3.70508e-10
4.47139e-10
5.23873e-10
5.99817e-10
6.74392e-10
7.47241e-10
8.18161e-10
8.87062e-10
9.53933e-10
1.01882e-09
1.08182e-09
1.14304e-09
1.20264e-09
1.26076e-09
1.31757e-09
1.37324e-09
1.42794e-09
1.48184e-09
1.53509e-09
1.58785e-09
1.64025e-09
1.69242e-09
1.74447e-09
1.79651e-09
1.84862e-09
1.90088e-09
1.95333e-09
2.00604e-09
2.05903e-09
2.11233e-09
2.16594e-09
2.21986e-09
2.27409e-09
2.32859e-09
2.38334e-09
2.4383e-09
2.49341e-09
2.54862e-09
2.60386e-09
2.65905e-09
2.71409e-09
2.76889e-09
2.82333e-09
2.87729e-09
2.93064e-09
2.98323e-09
3.03491e-09
3.0855e-09
3.13483e-09
3.1827e-09
3.22891e-09
3.27325e-09
3.3155e-09
3.35543e-09
3.39279e-09
3.42735e-09
3.45887e-09
3.48708e-09
3.51176e-09
3.53275e-09
3.55005e-09
3.56203e-09
3.57005e-09
3.5737e-09
3.57244e-09
3.56609e-09
3.55453e-09
3.53765e-09
3.51534e-09
3.48757e-09
3.45429e-09
3.41553e-09
3.37131e-09
3.32173e-09
3.26689e-09
3.20696e-09
3.14212e-09
3.0726e-09
2.99867e-09
2.92063e-09
2.8388e-09
2.75354e-09
2.66523e-09
2.57426e-09
2.48106e-09
2.38603e-09
2.28963e-09
2.19228e-09
2.09441e-09
1.99644e-09
1.89879e-09
1.80184e-09
1.70597e-09
1.61153e-09
1.51884e-09
1.42818e-09
1.33983e-09
1.25399e-09
1.17086e-09
1.0906e-09
1.01333e-09
9.39129e-10
8.68049e-10
8.00111e-10
7.35301e-10
6.73577e-10
6.14871e-10
5.59086e-10
5.06108e-10
4.558e-10
4.08007e-10
3.62563e-10
3.19294e-10
2.78029e-10
2.38615e-10
2.00941e-10
1.64978e-10
1.30845e-10
9.8892e-11
6.9793e-11
4.45949e-11
2.45778e-11
1.07756e-11
3.2129e-12
4.3373e-13
2.56248e-15
6.98746e-15
1.18201e-12
8.78725e-12
2.98235e-11
6.93789e-11
1.28914e-10
2.06564e-10
2.98535e-10
4.00527e-10
5.08629e-10
6.19701e-10
7.31404e-10
8.42098e-10
9.50682e-10
1.05647e-09
1.15906e-09
1.25827e-09
1.35407e-09
1.44655e-09
1.53585e-09
1.62217e-09
1.70577e-09
1.78691e-09
1.86586e-09
1.9429e-09
2.01832e-09
2.09237e-09
2.16532e-09
2.23741e-09
2.30885e-09
2.37984e-09
2.45056e-09
2.52118e-09
2.59182e-09
2.66259e-09
2.73359e-09
2.80489e-09
2.87654e-09
2.94857e-09
3.02101e-09
3.09386e-09
3.16709e-09
3.24068e-09
3.3146e-09
3.38877e-09
3.46313e-09
3.53759e-09
3.61205e-09
3.68639e-09
3.76049e-09
3.8342e-09
3.90736e-09
3.9798e-09
4.05132e-09
4.12173e-09
4.1908e-09
4.2583e-09
4.32397e-09
4.38755e-09
4.44876e-09
4.50731e-09
4.5629e-09
4.61522e-09
4.66394e-09
4.70875e-09
4.74931e-09
4.7853e-09
4.81641e-09
4.84236e-09
4.86333e-09
4.87694e-09
4.88542e-09
4.88784e-09
4.88359e-09
4.87249e-09
4.8544e-09
4.82917e-09
4.79673e-09
4.757e-09
4.70999e-09
4.65571e-09
4.59423e-09
4.52569e-09
4.45023e-09
4.36809e-09
4.27951e-09
4.1848e-09
4.08433e-09
3.97846e-09
3.86764e-09
3.75232e-09
3.633e-09
3.5102e-09
3.38444e-09
3.25628e-09
3.12628e-09
2.995e-09
2.86299e-09
2.7308e-09
2.59897e-09
2.46801e-09
2.33841e-09
2.21062e-09
2.08507e-09
1.96214e-09
1.84218e-09
1.7255e-09
1.61235e-09
1.50294e-09
1.39745e-09
1.29599e-09
1.19864e-09
1.10544e-09
1.01638e-09
9.31395e-10
8.50411e-10
7.73303e-10
6.99913e-10
6.30054e-10
5.6352e-10
5.00085e-10
4.39524e-10
3.81619e-10
3.26198e-10
2.73171e-10
2.22599e-10
1.74786e-10
1.30399e-10
9.05494e-11
5.67613e-11
3.06423e-11
1.31701e-11
3.86493e-12
5.16758e-13
3.04269e-15
8.24202e-15
1.39736e-12
1.04528e-11
3.58459e-11
8.45211e-11
1.59421e-10
2.59292e-10
3.79938e-10
5.15884e-10
6.61694e-10
8.127e-10
9.65254e-10
1.11669e-09
1.26519e-09
1.40956e-09
1.54913e-09
1.68357e-09
1.8128e-09
1.93695e-09
2.05624e-09
2.17101e-09
2.28162e-09
2.3885e-09
2.49205e-09
2.59273e-09
2.69093e-09
2.78706e-09
2.88151e-09
2.97461e-09
3.06671e-09
3.15808e-09
3.24897e-09
3.33962e-09
3.43022e-09
3.52091e-09
3.61184e-09
3.70309e-09
3.79474e-09
3.88684e-09
3.97941e-09
4.07244e-09
4.16591e-09
4.25978e-09
4.35399e-09
4.44845e-09
4.54306e-09
4.63769e-09
4.73222e-09
4.82647e-09
4.92028e-09
5.01344e-09
5.10574e-09
5.19695e-09
5.2868e-09
5.37502e-09
5.46133e-09
5.54541e-09
5.62693e-09
5.70555e-09
5.78091e-09
5.85264e-09
5.92036e-09
5.98367e-09
6.04218e-09
6.09549e-09
6.1432e-09
6.18492e-09
6.22027e-09
6.24886e-09
6.2708e-09
6.28367e-09
6.29014e-09
6.28865e-09
6.27872e-09
6.26015e-09
6.2328e-09
6.19654e-09
6.1513e-09
6.09704e-09
6.03376e-09
5.96154e-09
5.88048e-09
5.79076e-09
5.6926e-09
5.58627e-09
5.47212e-09
5.35052e-09
5.22192e-09
5.08678e-09
4.94563e-09
4.79904e-09
4.64759e-09
4.49191e-09
4.33265e-09
4.17046e-09
4.00603e-09
3.84001e-09
3.67308e-09
3.5059e-09
3.33911e-09
3.17334e-09
3.00918e-09
2.84718e-09
2.68786e-09
2.5317e-09
2.37912e-09
2.23051e-09
2.08619e-09
1.94643e-09
1.81145e-09
1.6814e-09
1.5564e-09
1.43649e-09
1.32167e-09
1.21188e-09
1.10703e-09
1.00695e-09
9.11471e-10
8.20349e-10
7.33329e-10
6.50137e-10
5.705e-10
4.94173e-10
4.20988e-10
3.50914e-10
2.8416e-10
2.21297e-10
1.63384e-10
1.12029e-10
6.92223e-11
3.6815e-11
1.56064e-11
4.53136e-12
6.02064e-13
3.5372e-15
9.57459e-15
1.62585e-12
1.22151e-11
4.21976e-11
1.00466e-10
1.91593e-10
3.15139e-10
4.66708e-10
6.3973e-10
8.27169e-10
1.02265e-09
1.22096e-09
1.41818e-09
1.61155e-09
1.79927e-09
1.98027e-09
2.15401e-09
2.32037e-09
2.47951e-09
2.63175e-09
2.77758e-09
2.91753e-09
3.0522e-09
3.1822e-09
3.30814e-09
3.4306e-09
3.55015e-09
3.66733e-09
3.7826e-09
3.89642e-09
4.00917e-09
4.1212e-09
4.2328e-09
4.34423e-09
4.45569e-09
4.56735e-09
4.67932e-09
4.7917e-09
4.90453e-09
5.01784e-09
5.13162e-09
5.24582e-09
5.36039e-09
5.47522e-09
5.5902e-09
5.7052e-09
5.82003e-09
5.93452e-09
6.04845e-09
6.16159e-09
6.27367e-09
6.38442e-09
6.49353e-09
6.60067e-09
6.7055e-09
6.80765e-09
6.90673e-09
7.00234e-09
7.09405e-09
7.18144e-09
7.26405e-09
7.34143e-09
7.41312e-09
7.47866e-09
7.53759e-09
7.58946e-09
7.63383e-09
7.67027e-09
7.69838e-09
7.71764e-09
7.72683e-09
7.72827e-09
7.71971e-09
7.701e-09
7.67197e-09
7.6325e-09
7.58249e-09
7.52189e-09
7.45071e-09
7.36898e-09
7.27682e-09
7.1744e-09
7.06194e-09
6.93973e-09
6.80811e-09
6.66749e-09
6.51831e-09
6.3611e-09
6.19641e-09
6.02484e-09
5.84705e-09
5.66371e-09
5.47555e-09
5.28328e-09
5.08767e-09
4.88948e-09
4.68948e-09
4.48843e-09
4.28709e-09
4.08618e-09
3.88642e-09
3.68849e-09
3.49303e-09
3.30064e-09
3.11187e-09
2.92722e-09
2.74714e-09
2.57201e-09
2.40215e-09
2.23782e-09
2.07923e-09
1.9265e-09
1.7797e-09
1.63883e-09
1.50385e-09
1.37462e-09
1.25099e-09
1.13272e-09
1.01956e-09
9.11188e-10
8.07301e-10
7.07592e-10
6.11807e-10
5.19809e-10
4.31671e-10
3.47803e-10
2.69097e-10
1.97064e-10
1.33825e-10
8.18115e-11
4.30447e-11
1.8072e-11
5.20929e-12
6.89229e-13
4.0434e-15
1.0987e-14
1.86787e-12
1.40786e-11
4.88966e-11
1.17249e-10
2.25443e-10
3.73987e-10
5.58414e-10
7.71116e-10
1.00341e-09
1.24708e-09
1.49515e-09
1.74226e-09
1.98456e-09
2.21947e-09
2.44545e-09
2.66174e-09
2.86812e-09
3.06481e-09
3.25225e-09
3.43108e-09
3.60207e-09
3.76601e-09
3.92374e-09
4.07606e-09
4.22378e-09
4.36763e-09
4.50832e-09
4.64647e-09
4.78265e-09
4.91737e-09
5.05107e-09
5.18411e-09
5.31681e-09
5.44942e-09
5.58213e-09
5.7151e-09
5.8484e-09
5.9821e-09
6.1162e-09
6.25068e-09
6.38547e-09
6.52046e-09
6.65554e-09
6.79054e-09
6.92526e-09
7.05949e-09
7.19298e-09
7.32546e-09
7.45662e-09
7.58615e-09
7.71368e-09
7.83883e-09
7.96123e-09
8.08043e-09
8.196e-09
8.30749e-09
8.41441e-09
8.51627e-09
8.61259e-09
8.70284e-09
8.78653e-09
8.86313e-09
8.93215e-09
8.99309e-09
9.04546e-09
9.0888e-09
9.12268e-09
9.14668e-09
9.15939e-09
9.16165e-09
9.15492e-09
9.13606e-09
9.1055e-09
9.06314e-09
9.00889e-09
8.94269e-09
8.86454e-09
8.77449e-09
8.67264e-09
8.55915e-09
8.43423e-09
8.29818e-09
8.15133e-09
7.99409e-09
7.82693e-09
7.65036e-09
7.46497e-09
7.27137e-09
7.07025e-09
6.86231e-09
6.64831e-09
6.42903e-09
6.20527e-09
5.97786e-09
5.74764e-09
5.51545e-09
5.28212e-09
5.04847e-09
4.81533e-09
4.58345e-09
4.35361e-09
4.1265e-09
3.90279e-09
3.6831e-09
3.46797e-09
3.25793e-09
3.05338e-09
2.85471e-09
2.66221e-09
2.47611e-09
2.29656e-09
2.12365e-09
1.95739e-09
1.79772e-09
1.64452e-09
1.49758e-09
1.35666e-09
1.22146e-09
1.09165e-09
9.66872e-10
8.46807e-10
7.31213e-10
6.20013e-10
5.13414e-10
4.12065e-10
3.17224e-10
2.30876e-10
1.5566e-10
9.44197e-11
4.92971e-11
2.05577e-11
5.89634e-12
7.77912e-13
4.55922e-15
1.24816e-14
2.12389e-12
1.60475e-11
5.59622e-11
1.34918e-10
2.61042e-10
4.3587e-10
6.54927e-10
9.096e-10
1.18951e-09
1.48445e-09
1.78558e-09
2.08591e-09
2.38035e-09
2.66549e-09
2.93924e-09
3.20056e-09
3.44916e-09
3.6853e-09
3.90956e-09
4.12281e-09
4.32601e-09
4.52022e-09
4.7065e-09
4.88593e-09
5.05949e-09
5.22815e-09
5.39278e-09
5.55416e-09
5.71301e-09
5.86994e-09
6.02549e-09
6.18009e-09
6.33412e-09
6.48787e-09
6.64156e-09
6.79534e-09
6.94931e-09
7.1035e-09
7.25792e-09
7.4125e-09
7.56713e-09
7.72169e-09
7.87599e-09
8.02981e-09
8.18291e-09
8.33501e-09
8.48579e-09
8.63492e-09
8.78202e-09
8.92671e-09
9.06855e-09
9.2071e-09
9.3419e-09
9.47245e-09
9.59826e-09
9.71879e-09
9.83353e-09
9.94192e-09
1.00434e-08
1.01375e-08
1.02236e-08
1.03012e-08
1.03697e-08
1.04287e-08
1.04776e-08
1.05161e-08
1.05436e-08
1.05598e-08
1.05625e-08
1.05543e-08
1.05366e-08
1.05045e-08
1.04593e-08
1.04011e-08
1.03299e-08
1.02456e-08
1.01482e-08
1.0038e-08
9.91496e-09
9.77938e-09
9.63151e-09
9.47169e-09
9.30032e-09
9.11786e-09
8.92482e-09
8.72176e-09
8.50933e-09
8.28818e-09
8.05905e-09
7.8227e-09
7.57992e-09
7.33156e-09
7.07847e-09
6.82152e-09
6.56161e-09
6.29962e-09
6.03645e-09
5.77298e-09
5.51006e-09
5.24854e-09
4.98922e-09
4.73285e-09
4.48017e-09
4.23182e-09
3.98842e-09
3.75051e-09
3.51855e-09
3.29297e-09
3.07407e-09
2.86213e-09
2.6573e-09
2.45969e-09
2.26931e-09
2.08609e-09
1.90991e-09
1.74055e-09
1.57773e-09
1.42112e-09
1.27037e-09
1.1251e-09
9.84979e-10
8.49793e-10
7.19543e-10
5.94595e-10
4.7586e-10
3.64981e-10
2.64428e-10
1.77349e-10
1.06976e-10
5.55489e-11
2.30566e-11
6.59067e-12
8.67854e-13
5.08307e-15
1.4061e-14
2.39438e-12
1.81265e-11
6.34138e-11
1.53525e-10
2.98481e-10
5.00899e-10
7.56306e-10
1.05508e-09
1.38505e-09
1.73394e-09
2.09087e-09
2.44715e-09
2.79633e-09
3.13407e-09
3.45772e-09
3.76595e-09
4.05838e-09
4.33532e-09
4.59755e-09
4.84613e-09
5.0823e-09
5.30738e-09
5.52271e-09
5.7296e-09
5.92929e-09
6.12296e-09
6.31165e-09
6.49633e-09
6.67785e-09
6.85692e-09
7.03418e-09
7.21014e-09
7.38521e-09
7.55972e-09
7.73391e-09
7.90793e-09
8.08186e-09
8.25573e-09
8.4295e-09
8.60307e-09
8.77629e-09
8.94897e-09
9.12088e-09
9.29175e-09
9.46125e-09
9.62906e-09
9.79479e-09
9.95803e-09
1.01183e-08
1.02753e-08
1.04283e-08
1.0577e-08
1.07208e-08
1.08591e-08
1.09914e-08
1.11171e-08
1.12358e-08
1.13467e-08
1.14493e-08
1.15431e-08
1.16274e-08
1.17019e-08
1.17659e-08
1.1819e-08
1.18606e-08
1.18905e-08
1.1908e-08
1.1913e-08
1.19025e-08
1.1881e-08
1.18493e-08
1.18018e-08
1.17398e-08
1.16639e-08
1.1574e-08
1.14703e-08
1.13528e-08
1.12216e-08
1.1077e-08
1.09192e-08
1.07486e-08
1.05655e-08
1.03704e-08
1.01637e-08
9.94599e-09
9.71792e-09
9.48013e-09
9.2333e-09
8.97821e-09
8.71564e-09
8.44643e-09
8.17144e-09
7.89155e-09
7.60768e-09
7.32075e-09
7.03168e-09
6.74141e-09
6.45086e-09
6.16091e-09
5.87246e-09
5.58634e-09
5.30336e-09
5.02428e-09
4.7498e-09
4.48056e-09
4.21715e-09
3.96006e-09
3.70973e-09
3.46652e-09
3.23069e-09
3.00244e-09
2.78186e-09
2.56899e-09
2.36374e-09
2.16597e-09
1.97545e-09
1.79188e-09
1.61491e-09
1.44415e-09
1.27921e-09
1.11977e-09
9.6563e-10
8.16897e-10
6.74098e-10
5.38419e-10
4.1189e-10
2.97459e-10
1.9877e-10
1.19432e-10
6.17854e-11
2.55643e-11
7.29101e-12
9.5888e-13
5.6139e-15
1.57279e-14
2.67986e-12
2.03201e-11
7.12701e-11
1.73121e-10
3.37862e-10
5.69225e-10
8.62712e-10
1.20763e-09
1.58995e-09
1.99519e-09
2.41032e-09
2.82481e-09
3.23084e-09
3.62307e-09
3.99826e-09
4.35477e-09
4.69217e-09
5.01084e-09
5.31176e-09
5.59623e-09
5.86577e-09
6.12201e-09
6.36656e-09
6.601e-09
6.82682e-09
7.04542e-09
7.25804e-09
7.46581e-09
7.66971e-09
7.87057e-09
8.06911e-09
8.2659e-09
8.46139e-09
8.65594e-09
8.84978e-09
9.04306e-09
9.23584e-09
9.42813e-09
9.61982e-09
9.8108e-09
1.00008e-08
1.01897e-08
1.03771e-08
1.05627e-08
1.07461e-08
1.0927e-08
1.11048e-08
1.12791e-08
1.14494e-08
1.16151e-08
1.17759e-08
1.1931e-08
1.20799e-08
1.2222e-08
1.23568e-08
1.24837e-08
1.2602e-08
1.27112e-08
1.28108e-08
1.29002e-08
1.29788e-08
1.30462e-08
1.31018e-08
1.31452e-08
1.3176e-08
1.31938e-08
1.31983e-08
1.31888e-08
1.31624e-08
1.3126e-08
1.30771e-08
1.30131e-08
1.29326e-08
1.28375e-08
1.27281e-08
1.26042e-08
1.24661e-08
1.2314e-08
1.21481e-08
1.19686e-08
1.1776e-08
1.15706e-08
1.1353e-08
1.11236e-08
1.0883e-08
1.06318e-08
1.03708e-08
1.01005e-08
9.82185e-09
9.53557e-09
9.24252e-09
8.94358e-09
8.63965e-09
8.33165e-09
8.02052e-09
7.70722e-09
7.39269e-09
7.07788e-09
6.76371e-09
6.45109e-09
6.1409e-09
5.83397e-09
5.5311e-09
5.23302e-09
4.94041e-09
4.65388e-09
4.37396e-09
4.10111e-09
3.83571e-09
3.57804e-09
3.32831e-09
3.08663e-09
2.85302e-09
2.6274e-09
2.40961e-09
2.1994e-09
1.99647e-09
1.80041e-09
1.61084e-09
1.42733e-09
1.24957e-09
1.07742e-09
9.11055e-10
7.51177e-10
5.99236e-10
4.57641e-10
3.29804e-10
2.1985e-10
1.31763e-10
6.79985e-11
2.80782e-11
7.9967e-12
1.05089e-12
6.15112e-15
1.7485e-14
2.98082e-12
2.26325e-11
7.95493e-11
1.93756e-10
3.79289e-10
6.41007e-10
9.74347e-10
1.36747e-09
1.80434e-09
2.26814e-09
2.74361e-09
3.2183e-09
3.68292e-09
4.13113e-09
4.5591e-09
4.96491e-09
5.34805e-09
5.70904e-09
6.04904e-09
6.36966e-09
6.6727e-09
6.9601e-09
7.23377e-09
7.49559e-09
7.7473e-09
7.9905e-09
8.22665e-09
8.45704e-09
8.68277e-09
8.90478e-09
9.12387e-09
9.34065e-09
9.55561e-09
9.76911e-09
9.98139e-09
1.01926e-08
1.04027e-08
1.06117e-08
1.08195e-08
1.10259e-08
1.12305e-08
1.14332e-08
1.16335e-08
1.18311e-08
1.20255e-08
1.22163e-08
1.24028e-08
1.25848e-08
1.27614e-08
1.29323e-08
1.30968e-08
1.32544e-08
1.34044e-08
1.35463e-08
1.36794e-08
1.38033e-08
1.39172e-08
1.40207e-08
1.41132e-08
1.41942e-08
1.42632e-08
1.43198e-08
1.43635e-08
1.43939e-08
1.44108e-08
1.44137e-08
1.44026e-08
1.43755e-08
1.4332e-08
1.42787e-08
1.42107e-08
1.4129e-08
1.40292e-08
1.39145e-08
1.3785e-08
1.3641e-08
1.34826e-08
1.331e-08
1.31235e-08
1.29234e-08
1.271e-08
1.24839e-08
1.22455e-08
1.19953e-08
1.17339e-08
1.14618e-08
1.11799e-08
1.08887e-08
1.0589e-08
1.02817e-08
9.9676e-09
9.64751e-09
9.32237e-09
8.99309e-09
8.66063e-09
8.32593e-09
7.98996e-09
7.65367e-09
7.31802e-09
6.98392e-09
6.65228e-09
6.32397e-09
5.9998e-09
5.68055e-09
5.36691e-09
5.05953e-09
4.75898e-09
4.46572e-09
4.18017e-09
3.90264e-09
3.63332e-09
3.37235e-09
3.11974e-09
2.87542e-09
2.6392e-09
2.41084e-09
2.18998e-09
1.97623e-09
1.76915e-09
1.56832e-09
1.37343e-09
1.18437e-09
1.0014e-09
8.25378e-10
6.58011e-10
5.02058e-10
3.61376e-10
2.40555e-10
1.43957e-10
7.41865e-11
3.05982e-11
8.70765e-12
1.14387e-12
6.69461e-15
1.9335e-14
3.29773e-12
2.50679e-11
8.82681e-11
2.15477e-10
4.22855e-10
7.16407e-10
1.09143e-09
1.53483e-09
2.02842e-09
2.55292e-09
3.09071e-09
3.62734e-09
4.15204e-09
4.65746e-09
5.13917e-09
5.59497e-09
6.02435e-09
6.42795e-09
6.80718e-09
7.16392e-09
7.50033e-09
7.81865e-09
8.12113e-09
8.40991e-09
8.687e-09
8.95425e-09
9.21328e-09
9.46555e-09
9.71228e-09
9.95453e-09
1.01931e-08
1.04287e-08
1.06619e-08
1.08929e-08
1.11221e-08
1.13494e-08
1.1575e-08
1.17987e-08
1.20204e-08
1.22397e-08
1.24564e-08
1.26701e-08
1.28804e-08
1.30868e-08
1.32889e-08
1.34862e-08
1.36779e-08
1.38638e-08
1.4043e-08
1.42151e-08
1.43794e-08
1.45354e-08
1.46824e-08
1.48199e-08
1.49473e-08
1.50641e-08
1.51697e-08
1.52635e-08
1.53452e-08
1.54142e-08
1.54702e-08
1.55127e-08
1.55415e-08
1.55562e-08
1.55565e-08
1.55422e-08
1.55132e-08
1.54665e-08
1.5406e-08
1.53338e-08
1.52459e-08
1.51446e-08
1.50262e-08
1.48916e-08
1.47424e-08
1.45787e-08
1.44007e-08
1.42087e-08
1.40028e-08
1.37835e-08
1.35512e-08
1.33062e-08
1.3049e-08
1.27802e-08
1.25002e-08
1.22098e-08
1.19095e-08
1.16e-08
1.12821e-08
1.09566e-08
1.06242e-08
1.02858e-08
9.94227e-09
9.59454e-09
9.24354e-09
8.89022e-09
8.53553e-09
8.18044e-09
7.8259e-09
7.47286e-09
7.12225e-09
6.77494e-09
6.43179e-09
6.0936e-09
5.76109e-09
5.43494e-09
5.11575e-09
4.80403e-09
4.5002e-09
4.20459e-09
3.91742e-09
3.63883e-09
3.36885e-09
3.10739e-09
2.85426e-09
2.60921e-09
2.37185e-09
2.14178e-09
1.91853e-09
1.70167e-09
1.49088e-09
1.28609e-09
1.08762e-09
8.96487e-10
7.14605e-10
5.45067e-10
3.92145e-10
2.6088e-10
1.56018e-10
8.03531e-11
3.31261e-11
9.42437e-12
1.23789e-12
7.24473e-15
2.12803e-14
3.63104e-12
2.76301e-11
9.74419e-11
2.38325e-10
4.68651e-10
7.95572e-10
1.21417e-09
1.70996e-09
2.26243e-09
2.8497e-09
3.45167e-09
4.05185e-09
4.63793e-09
5.20156e-09
5.73772e-09
6.244e-09
6.71988e-09
7.16615e-09
7.5845e-09
7.97714e-09
8.34656e-09
8.69535e-09
9.02607e-09
9.34117e-09
9.64292e-09
9.93339e-09
1.02144e-08
1.04876e-08
1.07542e-08
1.10155e-08
1.12722e-08
1.15252e-08
1.1775e-08
1.20218e-08
1.22659e-08
1.25074e-08
1.27462e-08
1.29821e-08
1.3215e-08
1.34446e-08
1.36704e-08
1.38921e-08
1.41091e-08
1.4321e-08
1.45273e-08
1.47273e-08
1.49205e-08
1.51064e-08
1.52843e-08
1.54535e-08
1.56137e-08
1.57641e-08
1.59041e-08
1.60333e-08
1.61511e-08
1.6257e-08
1.63506e-08
1.64313e-08
1.64988e-08
1.65527e-08
1.65927e-08
1.66185e-08
1.66298e-08
1.66265e-08
1.66083e-08
1.6575e-08
1.65265e-08
1.64594e-08
1.63813e-08
1.62893e-08
1.61815e-08
1.60599e-08
1.59236e-08
1.57697e-08
1.56014e-08
1.5419e-08
1.52227e-08
1.50126e-08
1.4789e-08
1.45523e-08
1.43029e-08
1.40411e-08
1.37675e-08
1.34824e-08
1.31864e-08
1.28802e-08
1.25642e-08
1.22391e-08
1.19057e-08
1.15647e-08
1.12168e-08
1.08629e-08
1.05038e-08
1.01403e-08
9.77349e-09
9.40418e-09
9.03336e-09
8.66197e-09
8.29099e-09
7.92138e-09
7.55405e-09
7.18994e-09
6.8299e-09
6.47478e-09
6.12533e-09
5.78227e-09
5.44623e-09
5.11774e-09
4.79726e-09
4.48515e-09
4.18167e-09
3.88694e-09
3.60102e-09
3.32383e-09
3.05517e-09
2.79476e-09
2.54223e-09
2.29712e-09
2.05897e-09
1.82733e-09
1.60187e-09
1.38252e-09
1.16969e-09
9.64475e-10
7.69013e-10
5.8668e-10
4.22131e-10
2.80845e-10
1.67962e-10
8.65073e-11
3.56656e-11
1.01479e-11
1.33307e-12
7.80223e-15
2.33233e-14
3.98114e-12
3.03224e-11
1.07084e-10
2.62338e-10
5.16751e-10
8.7863e-10
1.34274e-09
1.89307e-09
2.5066e-09
3.15867e-09
3.82661e-09
4.4918e-09
5.14041e-09
5.76308e-09
6.35425e-09
6.91128e-09
7.43371e-09
7.92252e-09
8.3797e-09
8.80779e-09
9.20965e-09
9.58823e-09
9.94642e-09
1.0287e-08
1.06124e-08
1.09251e-08
1.12269e-08
1.15197e-08
1.18048e-08
1.20836e-08
1.2357e-08
1.26256e-08
1.289e-08
1.31505e-08
1.34074e-08
1.36606e-08
1.39101e-08
1.41556e-08
1.43969e-08