/*--------------------------------*- C++ -*----------------------------------*\
  =========                 |
  \\      /  F ield         | OpenFOAM: The Open Source CFD Toolbox
   \\    /   O peration     | Website:  https://openfoam.org
    \\  /    A nd           | Version:  12
     \\/     M anipulation  |
\*---------------------------------------------------------------------------*/
FoamFile
{
    format      ascii;
    class       volScalarField;
    location    "5.5";
    object      p;
}
// * * * * * * * * * * * * * * * * * * * * * * * * * * * * * * * * * * * * * //

dimensions      [0 2 -2 0 0 0 0];

internalField   nonuniform List<scalar> 
5625
(
-1.3385e-09
6.00526e-08
9.61646e-07
2.79471e-06
5.33559e-06
8.3726e-06
1.17303e-05
1.52501e-05
1.87926e-05
2.22343e-05
2.54677e-05
2.84015e-05
3.09584e-05
3.30744e-05
3.46972e-05
3.57856e-05
3.63079e-05
3.62418e-05
3.55729e-05
3.42942e-05
3.24057e-05
2.99135e-05
2.68295e-05
2.31705e-05
1.89582e-05
1.42185e-05
8.9808e-06
3.27817e-06
-2.85347e-06
-9.37562e-06
-1.62475e-05
-2.34266e-05
-3.08686e-05
-3.85281e-05
-4.63588e-05
-5.43136e-05
-6.23453e-05
-7.04063e-05
-7.84492e-05
-8.6427e-05
-9.42936e-05
-0.000102003
-0.000109512
-0.000116776
-0.000123755
-0.000130407
-0.000136695
-0.000142584
-0.000148039
-0.00015303
-0.000157529
-0.00016151
-0.000164953
-0.000167838
-0.000170154
-0.000171889
-0.000173041
-0.000173609
-0.000173601
-0.000173032
-0.000171921
-0.000170299
-0.000168203
-0.000165684
-0.0001628
-0.000159625
-0.000156246
-0.000152767
-0.000149307
-0.000145997
-0.000143001
-0.000140489
-0.000138668
-0.000137765
-0.000137694
-3.12294e-06
-2.69052e-06
-1.66926e-06
-2.73971e-08
2.11029e-06
4.6021e-06
7.32204e-06
1.01547e-05
1.29938e-05
1.57429e-05
1.8316e-05
2.0638e-05
2.26439e-05
2.42786e-05
2.5496e-05
2.62591e-05
2.65386e-05
2.63132e-05
2.55682e-05
2.42957e-05
2.24937e-05
2.0166e-05
1.73213e-05
1.39731e-05
1.01391e-05
5.84096e-06
1.10393e-06
-4.04369e-06
-9.57079e-06
-1.54438e-05
-2.1627e-05
-2.80829e-05
-3.47724e-05
-4.16555e-05
-4.8691e-05
-5.58371e-05
-6.30517e-05
-7.02925e-05
-7.75173e-05
-8.46843e-05
-9.17523e-05
-9.86807e-05
-0.00010543
-0.000111962
-0.00011824
-0.000124228
-0.000129894
-0.000135205
-0.000140133
-0.00014465
-0.000148732
-0.00015236
-0.000155514
-0.000158179
-0.000160347
-0.000162009
-0.000163164
-0.000163814
-0.000163968
-0.000163641
-0.000162851
-0.000161627
-0.000160003
-0.000158022
-0.000155737
-0.000153209
-0.000150508
-0.000147719
-0.000144933
-0.000142253
-0.000139793
-0.000137677
-0.000136044
-0.00013502
-0.000134576
-9.20591e-06
-8.05917e-06
-6.44967e-06
-4.52673e-06
-2.34882e-06
1.77043e-08
2.49468e-06
5.00322e-06
7.46806e-06
9.81902e-06
1.19916e-05
1.39275e-05
1.55753e-05
1.68901e-05
1.78341e-05
1.83758e-05
1.84904e-05
1.81589e-05
1.73684e-05
1.61115e-05
1.4386e-05
1.21947e-05
9.5446e-06
6.44724e-06
2.9179e-06
-1.0246e-06
-5.35822e-06
-1.0058e-05
-1.50965e-05
-2.04438e-05
-2.60683e-05
-3.19364e-05
-3.80134e-05
-4.42632e-05
-5.06491e-05
-5.71335e-05
-6.36787e-05
-7.02468e-05
-7.67998e-05
-8.33003e-05
-8.97113e-05
-9.59966e-05
-0.000102121
-0.00010805
-0.00011375
-0.000119192
-0.000124344
-0.000129179
-0.000133671
-0.000137798
-0.000141537
-0.000144871
-0.000147785
-0.000150265
-0.000152304
-0.000153897
-0.000155041
-0.000155741
-0.000156003
-0.000155841
-0.000155272
-0.00015432
-0.000153013
-0.000151387
-0.000149484
-0.000147352
-0.000145046
-0.000142627
-0.000140162
-0.000137723
-0.000135387
-0.000133229
-0.000131315
-0.000129701
-0.000128542
-1.70941e-05
-1.50631e-05
-1.26074e-05
-1.01006e-05
-7.54779e-06
-4.95601e-06
-2.37003e-06
1.56073e-07
2.56981e-06
4.82142e-06
6.86401e-06
8.65428e-06
1.01531e-05
1.1326e-05
1.21434e-05
1.25805e-05
1.26178e-05
1.22403e-05
1.14382e-05
1.02061e-05
8.54289e-06
6.45197e-06
3.9405e-06
1.01938e-06
-2.29707e-06
-5.99133e-06
-1.0043e-05
-1.44292e-05
-1.91244e-05
-2.41014e-05
-2.93308e-05
-3.47821e-05
-4.04232e-05
-4.62212e-05
-5.21421e-05
-5.81518e-05
-6.42155e-05
-7.02985e-05
-7.63663e-05
-8.23846e-05
-8.83196e-05
-9.41381e-05
-9.98082e-05
-0.000105299
-0.000110579
-0.000115622
-0.0001204
-0.000124889
-0.000129063
-0.000132904
-0.000136391
-0.000139509
-0.000142242
-0.000144581
-0.000146517
-0.000148045
-0.000149163
-0.000149873
-0.000150181
-0.000150096
-0.000149633
-0.000148809
-0.000147647
-0.000146173
-0.000144419
-0.000142422
-0.00014022
-0.000137857
-0.00013538
-0.000132837
-0.000130281
-0.000127753
-0.000125258
-0.000122799
-0.000120756
-2.55643e-05
-2.26061e-05
-1.9212e-05
-1.59863e-05
-1.28945e-05
-9.89652e-06
-7.01281e-06
-4.28005e-06
-1.73384e-06
5.92018e-07
2.66493e-06
4.45412e-06
5.93136e-06
7.07153e-06
7.85293e-06
8.2576e-06
8.27134e-06
7.8839e-06
7.08886e-06
5.88368e-06
4.26948e-06
2.251e-06
-1.63621e-07
-2.96302e-06
-6.13284e-06
-9.6559e-06
-1.35125e-05
-1.76805e-05
-2.21359e-05
-2.68527e-05
-3.18033e-05
-3.69587e-05
-4.2289e-05
-4.77633e-05
-5.33498e-05
-5.90166e-05
-6.47314e-05
-7.04619e-05
-7.61759e-05
-8.18416e-05
-8.74277e-05
-9.29037e-05
-9.82397e-05
-0.000103407
-0.000108378
-0.000113127
-0.000117628
-0.000121859
-0.000125798
-0.000129426
-0.000132724
-0.000135677
-0.000138273
-0.000140499
-0.000142349
-0.000143815
-0.000144896
-0.000145591
-0.000145903
-0.000145838
-0.000145406
-0.000144619
-0.000143492
-0.000142046
-0.0001403
-0.000138281
-0.000136015
-0.00013353
-0.000130857
-0.000128028
-0.000125075
-0.000122017
-0.00011881
-0.000115416
-0.000112447
-3.37928e-05
-2.99243e-05
-2.5578e-05
-2.15779e-05
-1.78614e-05
-1.43517e-05
-1.10527e-05
-7.98996e-06
-5.1874e-06
-2.66717e-06
-4.50936e-07
1.44045e-06
2.9877e-06
4.17368e-06
4.98376e-06
5.40611e-06
5.43189e-06
5.0554e-06
4.27407e-06
3.08858e-06
1.50268e-06
-4.76757e-07
-2.83997e-06
-5.57438e-06
-8.66476e-06
-1.20935e-05
-1.58406e-05
-1.98842e-05
-2.42005e-05
-2.8764e-05
-3.35481e-05
-3.85247e-05
-4.36648e-05
-4.89389e-05
-5.43167e-05
-5.97677e-05
-6.52612e-05
-7.07664e-05
-7.6253e-05
-8.16909e-05
-8.70505e-05
-9.23031e-05
-9.74207e-05
-0.000102376
-0.000107144
-0.000111698
-0.000116017
-0.000120078
-0.00012386
-0.000127345
-0.000130517
-0.000133359
-0.000135858
-0.000138005
-0.000139788
-0.000141202
-0.000142242
-0.000142905
-0.000143192
-0.000143104
-0.000142648
-0.000141829
-0.000140657
-0.000139145
-0.000137305
-0.000135152
-0.000132704
-0.000129978
-0.00012699
-0.000123761
-0.000120312
-0.000116642
-0.000112671
-0.000108331
-0.000104455
-4.12042e-05
-3.64619e-05
-3.11816e-05
-2.63933e-05
-2.20134e-05
-1.79362e-05
-1.4155e-05
-1.06886e-05
-7.55342e-06
-4.76336e-06
-2.33211e-06
-2.72909e-07
1.40206e-06
2.68226e-06
3.55908e-06
4.02619e-06
4.07966e-06
3.71817e-06
2.94307e-06
1.7584e-06
1.70903e-07
-1.81005e-06
-4.17252e-06
-6.90216e-06
-9.98227e-06
-1.33941e-05
-1.71167e-05
-2.11277e-05
-2.54029e-05
-2.99166e-05
-3.46422e-05
-3.95519e-05
-4.46171e-05
-4.98088e-05
-5.50973e-05
-6.0453e-05
-6.58459e-05
-7.12466e-05
-7.66254e-05
-8.19535e-05
-8.72025e-05
-9.23447e-05
-9.73532e-05
-0.000102202
-0.000106867
-0.000111323
-0.000115549
-0.000119522
-0.000123225
-0.000126637
-0.000129742
-0.000132526
-0.000134973
-0.000137074
-0.000138817
-0.000140193
-0.000141197
-0.000141824
-0.00014207
-0.000141934
-0.000141418
-0.000140523
-0.000139252
-0.000137613
-0.00013561
-0.000133253
-0.000130548
-0.000127505
-0.000124133
-0.000120441
-0.000116443
-0.000112128
-0.000107384
-0.000102121
-9.73776e-05
-4.73822e-05
-4.18023e-05
-3.56141e-05
-3.00417e-05
-2.4985e-05
-2.03147e-05
-1.60171e-05
-1.21077e-05
-8.59785e-06
-5.4961e-06
-2.81032e-06
-5.48065e-07
1.28407e-06
2.68088e-06
3.63889e-06
4.15653e-06
4.23438e-06
3.87526e-06
3.08431e-06
1.86904e-06
2.39355e-07
-1.79256e-06
-4.21225e-06
-7.0031e-06
-1.01465e-05
-1.36219e-05
-1.74071e-05
-2.14783e-05
-2.58103e-05
-3.03768e-05
-3.51504e-05
-4.0103e-05
-4.52057e-05
-5.04294e-05
-5.57446e-05
-6.11216e-05
-6.65309e-05
-7.19433e-05
-7.73297e-05
-8.26618e-05
-8.79116e-05
-9.30522e-05
-9.80573e-05
-0.000102901
-0.00010756
-0.000112011
-0.000116231
-0.0001202
-0.000123897
-0.000127305
-0.000130407
-0.000133187
-0.00013563
-0.000137724
-0.000139457
-0.00014082
-0.000141803
-0.000142399
-0.000142603
-0.000142409
-0.000141815
-0.000140819
-0.00013942
-0.000137618
-0.000135413
-0.000132808
-0.000129804
-0.000126404
-0.000122608
-0.000118423
-0.000113856
-0.000108887
-0.000103379
-9.72269e-05
-9.1658e-05
-5.20071e-05
-4.56162e-05
-3.85423e-05
-3.21951e-05
-2.64607e-05
-2.1189e-05
-1.63617e-05
-1.19925e-05
-8.0905e-06
-4.66013e-06
-1.7052e-06
7.71043e-07
2.76638e-06
4.28003e-06
5.31282e-06
5.86747e-06
5.94861e-06
5.56299e-06
4.71947e-06
3.42906e-06
1.70494e-06
-4.37631e-07
-2.98136e-06
-5.90706e-06
-9.19368e-06
-1.28186e-05
-1.67576e-05
-2.09851e-05
-2.54745e-05
-3.0198e-05
-3.51271e-05
-4.02328e-05
-4.54854e-05
-5.08549e-05
-5.63115e-05
-6.1825e-05
-6.73658e-05
-7.29044e-05
-7.84118e-05
-8.38595e-05
-8.92198e-05
-9.44657e-05
-9.95711e-05
-0.000104511
-0.000109261
-0.000113797
-0.000118099
-0.000122144
-0.000125913
-0.000129388
-0.000132551
-0.000135385
-0.000137875
-0.000140007
-0.000141769
-0.000143148
-0.000144134
-0.000144717
-0.000144889
-0.000144642
-0.00014397
-0.000142866
-0.000141326
-0.000139345
-0.00013692
-0.000134048
-0.000130724
-0.000126947
-0.000122713
-0.000118023
-0.000112883
-0.000107265
-0.000101012
-9.40007e-05
-8.76421e-05
-5.48089e-05
-4.76219e-05
-3.96762e-05
-3.25628e-05
-2.61547e-05
-2.0283e-05
-1.49255e-05
-1.00961e-05
-5.80192e-06
-2.04494e-06
1.17413e-06
3.85543e-06
6.00032e-06
7.61175e-06
8.69436e-06
9.25471e-06
9.30126e-06
8.84453e-06
7.89705e-06
6.47341e-06
4.59021e-06
2.26598e-06
-4.78861e-07
-3.62217e-06
-7.14018e-06
-1.10076e-05
-1.51979e-05
-1.96834e-05
-2.44352e-05
-2.9424e-05
-3.46194e-05
-3.99909e-05
-4.55075e-05
-5.11383e-05
-5.68522e-05
-6.26183e-05
-6.84062e-05
-7.41857e-05
-7.99274e-05
-8.56023e-05
-9.11825e-05
-9.66405e-05
-0.00010195
-0.000107086
-0.000112023
-0.000116738
-0.00012121
-0.000125415
-0.000129335
-0.00013295
-0.000136241
-0.000139191
-0.000141785
-0.000144006
-0.000145841
-0.000147276
-0.000148298
-0.000148896
-0.000149058
-0.000148774
-0.000148035
-0.000146831
-0.000145154
-0.000142995
-0.000140348
-0.000137205
-0.000133559
-0.000129402
-0.000124728
-0.000119535
-0.000113826
-0.000107569
-0.000100587
-9.27433e-05
-8.56215e-05
-5.55351e-05
-4.75557e-05
-3.87428e-05
-3.08683e-05
-2.37926e-05
-1.73279e-05
-1.14491e-05
-6.17031e-06
-1.49777e-06
2.56857e-06
6.03049e-06
8.89097e-06
1.11545e-05
1.28273e-05
1.39176e-05
1.44357e-05
1.43936e-05
1.38056e-05
1.2688e-05
1.1059e-05
8.93892e-06
6.34977e-06
3.31535e-06
-1.38905e-07
-3.9861e-06
-8.19799e-06
-1.27452e-05
-1.75974e-05
-2.27233e-05
-2.80912e-05
-3.36687e-05
-3.94233e-05
-4.53223e-05
-5.13331e-05
-5.74232e-05
-6.35605e-05
-6.97133e-05
-7.58505e-05
-8.19416e-05
-8.79571e-05
-9.38681e-05
-9.96466e-05
-0.000105266
-0.000110699
-0.000115923
-0.000120912
-0.000125643
-0.000130095
-0.000134247
-0.000138079
-0.000141571
-0.000144705
-0.000147464
-0.000149831
-0.000151791
-0.000153329
-0.000154429
-0.000155078
-0.000155262
-0.000154969
-0.000154186
-0.000152901
-0.000151103
-0.00014878
-0.000145922
-0.000142517
-0.000138556
-0.000134027
-0.000128921
-0.000123233
-0.000116966
-0.000110083
-0.000102388
-9.37292e-05
-8.58615e-05
-5.39262e-05
-4.51481e-05
-3.54647e-05
-2.68314e-05
-1.90951e-05
-1.20489e-05
-5.66484e-06
4.26566e-08
5.06805e-06
9.41318e-06
1.30821e-05
1.60805e-05
1.84157e-05
2.00973e-05
2.11368e-05
2.15482e-05
2.13473e-05
2.05522e-05
1.91831e-05
1.72622e-05
1.48135e-05
1.18629e-05
8.43789e-06
4.56759e-06
2.82373e-07
-4.38615e-06
-9.4054e-06
-1.47419e-05
-2.03617e-05
-2.62301e-05
-3.23124e-05
-3.85736e-05
-4.4979e-05
-5.14938e-05
-5.80837e-05
-6.4715e-05
-7.13545e-05
-7.79696e-05
-8.45287e-05
-9.10011e-05
-9.73569e-05
-0.000103567
-0.000109604
-0.000115441
-0.000121052
-0.000126412
-0.000131498
-0.000136286
-0.000140756
-0.000144886
-0.000148655
-0.000152046
-0.000155038
-0.000157615
-0.000159759
-0.000161453
-0.00016268
-0.000163425
-0.000163673
-0.000163408
-0.000162615
-0.00016128
-0.000159387
-0.000156924
-0.000153875
-0.000150228
-0.000145969
-0.000141083
-0.000135559
-0.000129391
-0.000122579
-0.000115083
-0.000106686
-9.72247e-05
-8.86211e-05
-4.9697e-05
-4.01073e-05
-2.95448e-05
-2.01532e-05
-1.17651e-05
-4.15379e-06
2.71227e-06
8.81832e-06
1.41597e-05
1.87403e-05
2.25663e-05
2.56462e-05
2.79905e-05
2.96119e-05
3.05258e-05
3.07497e-05
3.03035e-05
2.92094e-05
2.74917e-05
2.51767e-05
2.22927e-05
1.88698e-05
1.49396e-05
1.05351e-05
5.69062e-06
4.41606e-07
-5.17576e-06
-1.11246e-05
-1.73675e-05
-2.38668e-05
-3.05849e-05
-3.7484e-05
-4.45267e-05
-5.16761e-05
-5.88956e-05
-6.61494e-05
-7.34026e-05
-8.06209e-05
-8.77711e-05
-9.48212e-05
-0.00010174
-0.000108497
-0.000115064
-0.000121413
-0.000127517
-0.00013335
-0.000138889
-0.000144108
-0.000148986
-0.0001535
-0.00015763
-0.000161355
-0.000164655
-0.000167511
-0.000169904
-0.000171815
-0.000173228
-0.000174123
-0.000174484
-0.000174293
-0.000173532
-0.000172185
-0.000170234
-0.000167662
-0.000164453
-0.000160591
-0.000156058
-0.000150838
-0.000144916
-0.000138284
-0.000130943
-0.000122846
-0.000113758
-0.000103502
-9.41665e-05
-4.25224e-05
-3.21044e-05
-2.0652e-05
-1.05037e-05
-1.47686e-06
6.67688e-06
1.39931e-05
2.04571e-05
2.60655e-05
3.08244e-05
3.4743e-05
3.78325e-05
4.01069e-05
4.15825e-05
4.22786e-05
4.2217e-05
4.14218e-05
3.99196e-05
3.77393e-05
3.49119e-05
3.14701e-05
2.74486e-05
2.28835e-05
1.78125e-05
1.2274e-05
6.30768e-06
-4.61723e-08
-6.7468e-06
-1.37531e-05
-2.10241e-05
-2.85185e-05
-3.61957e-05
-4.40153e-05
-5.19377e-05
-5.99238e-05
-6.79356e-05
-7.59359e-05
-8.38887e-05
-9.1759e-05
-9.95129e-05
-0.000107118
-0.000114543
-0.000121757
-0.000128732
-0.000135439
-0.000141853
-0.000147947
-0.000153697
-0.000159078
-0.000164069
-0.000168647
-0.00017279
-0.000176478
-0.000179689
-0.000182404
-0.000184602
-0.000186265
-0.000187372
-0.000187903
-0.00018784
-0.000187162
-0.000185851
-0.000183885
-0.000181246
-0.000177915
-0.000173871
-0.000169095
-0.000163569
-0.000157275
-0.000150201
-0.000142347
-0.000133663
-0.000123894
-0.000112847
-0.000102781
-3.2025e-05
-2.07621e-05
-8.41099e-06
2.48778e-06
1.21337e-05
2.07982e-05
2.85218e-05
3.52906e-05
4.11031e-05
4.59682e-05
4.98984e-05
5.29085e-05
5.50164e-05
5.62425e-05
5.66106e-05
5.61469e-05
5.48806e-05
5.28431e-05
5.00684e-05
4.65924e-05
4.2453e-05
3.769e-05
3.23446e-05
2.64591e-05
2.00769e-05
1.32424e-05
6.00023e-06
-1.60452e-06
-9.52667e-06
-1.77212e-05
-2.61434e-05
-3.4749e-05
-4.34946e-05
-5.23373e-05
-6.12356e-05
-7.01487e-05
-7.90372e-05
-8.78628e-05
-9.65886e-05
-0.000105179
-0.0001136
-0.000121818
-0.000129803
-0.000137523
-0.00014495
-0.000152057
-0.000158815
-0.0001652
-0.000171188
-0.000176753
-0.000181873
-0.000186525
-0.000190687
-0.000194337
-0.000197454
-0.000200016
-0.000202001
-0.000203388
-0.000204156
-0.000204284
-0.000203748
-0.000202527
-0.000200599
-0.000197941
-0.000194532
-0.000190349
-0.000185369
-0.00017957
-0.000172932
-0.000165442
-0.000157097
-0.000147843
-0.000137403
-0.000125569
-0.000114772
-1.77644e-05
-5.64422e-06
7.60777e-06
1.92422e-05
2.94768e-05
3.86079e-05
4.66821e-05
5.36871e-05
5.96241e-05
6.45056e-05
6.83481e-05
7.11708e-05
7.29959e-05
7.3849e-05
7.37587e-05
7.27566e-05
7.08772e-05
6.81575e-05
6.4637e-05
6.03575e-05
5.53625e-05
4.96972e-05
4.34085e-05
3.65441e-05
2.91528e-05
2.12838e-05
1.2987e-05
4.31203e-06
-4.6914e-06
-1.3974e-05
-2.34871e-05
-3.31826e-05
-4.30135e-05
-5.2934e-05
-6.28991e-05
-7.28656e-05
-8.27915e-05
-9.26361e-05
-0.000102361
-0.000111927
-0.000121301
-0.000130446
-0.00013933
-0.000147922
-0.000156191
-0.000164109
-0.000171647
-0.000178779
-0.00018548
-0.000191724
-0.000197488
-0.000202746
-0.000207477
-0.000211657
-0.000215263
-0.000218271
-0.00022066
-0.000222405
-0.000223484
-0.000223872
-0.000223545
-0.000222479
-0.000220649
-0.00021803
-0.000214596
-0.000210322
-0.000205182
-0.000199152
-0.000192207
-0.000184331
-0.000175521
-0.000165715
-0.000154617
-0.000142003
-0.000130475
7.72648e-07
1.37533e-05
2.78963e-05
4.02379e-05
5.10157e-05
6.05527e-05
6.89028e-05
7.60564e-05
8.20185e-05
8.68059e-05
9.04403e-05
9.29458e-05
9.43503e-05
9.46847e-05
9.39837e-05
9.22849e-05
8.96289e-05
8.6059e-05
8.16209e-05
7.63627e-05
7.03342e-05
6.3587e-05
5.61738e-05
4.81485e-05
3.95656e-05
3.04799e-05
2.09467e-05
1.10207e-05
7.56629e-07
-9.7917e-06
-2.05712e-05
-3.15299e-05
-4.26169e-05
-5.37828e-05
-6.49796e-05
-7.61611e-05
-8.72825e-05
-9.83011e-05
-0.000109176
-0.000119866
-0.000130336
-0.000140548
-0.000150469
-0.000160065
-0.000169306
-0.00017816
-0.000186601
-0.000194599
-0.000202129
-0.000209164
-0.000215679
-0.000221649
-0.000227051
-0.000231859
-0.000236049
-0.000239597
-0.000242478
-0.000244668
-0.00024614
-0.000246869
-0.000246827
-0.000245989
-0.000244326
-0.000241811
-0.000238413
-0.000234106
-0.00022886
-0.000222646
-0.000215437
-0.000207213
-0.000197969
-0.000187637
-0.000175898
-0.000162514
-0.000150258
2.41815e-05
3.8011e-05
5.30171e-05
6.60181e-05
7.72731e-05
8.71338e-05
9.56629e-05
0.000102854
0.000108718
0.000113277
0.000116559
0.000118593
0.000119414
0.00011906
0.000117572
0.000114995
0.000111376
0.000106765
0.000101215
9.47817e-05
8.75214e-05
7.94926e-05
7.07546e-05
6.1368e-05
5.13934e-05
4.0892e-05
2.99246e-05
1.85518e-05
6.83324e-06
-5.17215e-06
-1.74067e-05
-2.9814e-05
-4.23394e-05
-5.49297e-05
-6.75335e-05
-8.01013e-05
-9.2586e-05
-0.000104943
-0.000117127
-0.000129099
-0.000140817
-0.000152245
-0.000163346
-0.000174088
-0.000184437
-0.000194363
-0.000203835
-0.000212826
-0.000221308
-0.000229253
-0.000236637
-0.000243433
-0.000249616
-0.00025516
-0.000260039
-0.000264229
-0.000267702
-0.000270431
-0.00027239
-0.000273549
-0.00027388
-0.000273352
-0.000271936
-0.0002696
-0.000266311
-0.000262038
-0.000256748
-0.000250407
-0.000242985
-0.000234459
-0.00022482
-0.000213994
-0.00020164
-0.0001875
-0.000174526
5.31477e-05
6.77935e-05
8.36091e-05
9.71958e-05
0.000108836
0.000118911
0.000127495
0.000134586
0.0001402
0.000144368
0.000147124
0.000148505
0.000148554
0.000147315
0.000144838
0.000141175
0.000136381
0.000130515
0.000123637
0.00011581
0.000107098
9.75669e-05
8.72843e-05
7.63171e-05
6.47331e-05
5.25998e-05
3.99844e-05
2.69532e-05
1.35717e-05
-9.60061e-08
-1.39874e-05
-2.80417e-05
-4.22e-05
-5.64055e-05
-7.06034e-05
-8.47397e-05
-9.87635e-05
-0.000112631
-0.000126295
-0.000139713
-0.000152841
-0.000165642
-0.000178078
-0.000190114
-0.000201718
-0.000212856
-0.0002235
-0.000233619
-0.000243185
-0.000252171
-0.00026055
-0.000268295
-0.00027538
-0.000281779
-0.000287463
-0.000292406
-0.000296581
-0.000299958
-0.000302507
-0.000304198
-0.000304999
-0.000304877
-0.000303799
-0.000301729
-0.000298632
-0.000294472
-0.000289211
-0.000282812
-0.00027524
-0.000266467
-0.000256482
-0.000245204
-0.000232266
-0.000217396
-0.000203719
8.84543e-05
0.000103855
0.000120393
0.000134458
0.000146358
0.000156505
0.000164986
0.000171805
0.000176987
0.000180569
0.000182596
0.000183112
0.00018217
0.000179821
0.000176125
0.000171142
0.000164937
0.000157576
0.000149128
0.000139666
0.000129261
0.000117988
0.000105921
9.31353e-05
7.97062e-05
6.57081e-05
5.12147e-05
3.62987e-05
2.10315e-05
5.48255e-06
-1.02804e-05
-2.61918e-05
-4.21884e-05
-5.82093e-05
-7.41965e-05
-9.00957e-05
-0.000105853
-0.000121417
-0.00013674
-0.000151777
-0.000166485
-0.000180824
-0.000194757
-0.000208247
-0.00022126
-0.000233764
-0.000245728
-0.000257121
-0.000267915
-0.000278082
-0.000287594
-0.000296423
-0.000304544
-0.000311926
-0.000318544
-0.000324367
-0.000329366
-0.000333511
-0.000336769
-0.000339107
-0.000340491
-0.000340884
-0.000340249
-0.000338548
-0.000335739
-0.000331784
-0.000326639
-0.000320264
-0.000312616
-0.000303665
-0.000293394
-0.000281715
-0.000268239
-0.000252674
-0.000238317
0.000130987
0.000147043
0.000164172
0.000178567
0.000190561
0.000200598
0.000208778
0.000215116
0.000219645
0.000222412
0.000223471
0.000222878
0.000220693
0.000216979
0.000211805
0.000205241
0.000197361
0.000188242
0.000177961
0.000166599
0.000154239
0.000140962
0.000126852
0.000111993
9.6466e-05
8.03539e-05
6.37373e-05
4.66954e-05
2.93057e-05
1.16434e-05
-6.21858e-06
-2.42098e-05
-4.22628e-05
-6.03125e-05
-7.82973e-05
-9.61586e-05
-0.000113841
-0.000131292
-0.000148464
-0.000165313
-0.000181785
-0.00019784
-0.000213443
-0.000228557
-0.000243146
-0.000257179
-0.000270624
-0.000283449
-0.000295626
-0.000307127
-0.000317923
-0.000327987
-0.000337289
-0.000345802
-0.000353495
-0.000360339
-0.000366303
-0.000371353
-0.000375454
-0.000378572
-0.000380667
-0.000381701
-0.000381632
-0.000380416
-0.000378011
-0.000374369
-0.000369445
-0.000363189
-0.000355556
-0.00034651
-0.000336028
-0.000324015
-0.000310056
-0.000293844
-0.000278842
0.000181736
0.000198301
0.000215835
0.000230359
0.000242231
0.000251929
0.000259566
0.000265169
0.000268782
0.000270465
0.00027028
0.000268297
0.000264586
0.000259221
0.000252281
0.000243847
0.000234003
0.000222836
0.000210435
0.00019689
0.000182292
0.000166732
0.000150304
0.000133097
0.000115205
9.67149e-05
7.7716e-05
5.82939e-05
3.85323e-05
1.85124e-05
-1.6878e-06
-2.1993e-05
-4.23314e-05
-6.26344e-05
-8.28368e-05
-0.000102877
-0.000122697
-0.000142242
-0.000161457
-0.000180299
-0.000198724
-0.000216688
-0.000234148
-0.000251068
-0.000267414
-0.000283153
-0.000298252
-0.000312682
-0.000326414
-0.000339417
-0.000351664
-0.000363127
-0.000373776
-0.000383581
-0.000392512
-0.000400538
-0.000407624
-0.000413735
-0.000418835
-0.000422884
-0.000425841
-0.000427662
-0.000428301
-0.000427711
-0.000425843
-0.000422644
-0.000418062
-0.000412043
-0.000404534
-0.000395492
-0.000384891
-0.000372625
-0.000358257
-0.00034146
-0.000325861
0.000241797
0.000258664
0.000276349
0.000290738
0.000302215
0.000311288
0.000318087
0.000322654
0.000325043
0.000325328
0.000323585
0.000319895
0.000314339
0.000307005
0.000297982
0.000287362
0.000275242
0.000261717
0.000246888
0.000230855
0.000213719
0.000195581
0.000176543
0.000156704
0.000136164
0.00011502
9.3368e-05
7.13001e-05
4.89067e-05
2.62745e-05
3.48694e-06
-1.9376e-05
-4.22382e-05
-6.50275e-05
-8.76756e-05
-0.000110118
-0.000132295
-0.00015415
-0.000175625
-0.000196672
-0.000217248
-0.000237315
-0.000256829
-0.000275751
-0.000294046
-0.000311682
-0.000328626
-0.000344849
-0.000360322
-0.000375014
-0.000388899
-0.000401946
-0.000414126
-0.000425408
-0.000435761
-0.000445151
-0.000453541
-0.000460895
-0.000467172
-0.00047233
-0.000476323
-0.000479103
-0.000480619
-0.000480819
-0.000479646
-0.000477043
-0.00047295
-0.000467307
-0.000460052
-0.000451137
-0.000440529
-0.000428111
-0.000413423
-0.000396122
-0.000379986
0.000312361
0.00032925
0.00034675
0.000360666
0.000371405
0.000379504
0.000385113
0.000388285
0.000389093
0.000387624
0.000383966
0.000378215
0.000370464
0.000360813
0.000349363
0.000336219
0.000321486
0.000305275
0.000287694
0.000268853
0.000248866
0.000227841
0.00020589
0.000183121
0.000159643
0.00013556
0.000110974
8.59869e-05
6.06933e-05
3.51862e-05
9.55427e-06
-1.6118e-05
-4.17504e-05
-6.72671e-05
-9.2597e-05
-0.000117673
-0.000142433
-0.000166818
-0.000190774
-0.000214251
-0.000237203
-0.000259588
-0.000281365
-0.000302497
-0.000322949
-0.000342689
-0.000361686
-0.00037991
-0.000397331
-0.000413922
-0.000429652
-0.000444493
-0.000458415
-0.000471385
-0.00048337
-0.000494334
-0.00050424
-0.000513047
-0.000520711
-0.000527185
-0.000532419
-0.000536361
-0.000538953
-0.000540136
-0.000539848
-0.000538024
-0.000534595
-0.000529494
-0.000522652
-0.00051401
-0.00050353
-0.000491083
-0.000476187
-0.00045848
-0.000441883
0.000394707
0.000411247
0.000428127
0.000441144
0.000450725
0.00045743
0.000461428
0.000462792
0.000461609
0.000457981
0.000452013
0.000443811
0.000433483
0.000421141
0.000406898
0.00039087
0.000373175
0.000353932
0.000333262
0.000311285
0.000288123
0.000263896
0.000238722
0.000212721
0.000186007
0.000158694
0.000130891
0.000102705
7.42383e-05
4.55885e-05
1.68497e-05
-1.18894e-05
-4.05448e-05
-6.90375e-05
-9.72935e-05
-0.000125244
-0.000152824
-0.000179976
-0.000206644
-0.000232777
-0.00025833
-0.00028326
-0.000307528
-0.000331098
-0.000353935
-0.000376008
-0.000397286
-0.000417741
-0.000437343
-0.000456065
-0.000473878
-0.000490751
-0.000506654
-0.000521553
-0.000535414
-0.000548199
-0.000559866
-0.000570371
-0.000579668
-0.000587703
-0.000594422
-0.000599766
-0.000603671
-0.000606069
-0.000606891
-0.000606064
-0.00060351
-0.000599152
-0.000592911
-0.00058472
-0.000574531
-0.000562205
-0.000547235
-0.000529243
-0.000512281
0.000490173
0.000505888
0.000521597
0.000533186
0.000541098
0.000545909
0.000547809
0.000546889
0.000543253
0.000537018
0.000528304
0.00051723
0.000503917
0.000488489
0.000471069
0.000451786
0.000430768
0.000408143
0.000384042
0.000358595
0.000331934
0.000304186
0.00027548
0.000245943
0.000215697
0.000184863
0.000153558
0.000121894
8.99793e-05
5.79178e-05
2.58075e-05
-6.25852e-06
-3.8193e-05
-6.9914e-05
-0.000101345
-0.000132417
-0.000163062
-0.000193223
-0.000222844
-0.000251874
-0.000280269
-0.000307986
-0.000334988
-0.000361239
-0.000386707
-0.000411362
-0.000435174
-0.000458116
-0.000480159
-0.000501276
-0.000521439
-0.000540616
-0.000558776
-0.000575885
-0.000591905
-0.000606796
-0.000620513
-0.000633008
-0.000644227
-0.000654115
-0.000662608
-0.00066964
-0.00067514
-0.000679031
-0.000681235
-0.000681667
-0.00068024
-0.000676866
-0.000671454
-0.000663928
-0.000654228
-0.000642202
-0.00062732
-0.00060919
-0.000591975
0.000600122
0.000614409
0.000628261
0.000637778
0.000643413
0.000645746
0.000644985
0.000641242
0.000634639
0.000625307
0.000613379
0.000598987
0.000582262
0.000563339
0.000542352
0.000519438
0.000494733
0.000468376
0.000440505
0.000411261
0.00038078
0.000349202
0.00031666
0.00028329
0.000249222
0.000214582
0.000179495
0.000144078
0.000108446
7.27071e-05
3.69635e-05
1.31181e-06
-3.41574e-05
-6.936e-05
-0.000104218
-0.00013866
-0.00017262
-0.000206039
-0.000238861
-0.000271039
-0.000302527
-0.000333287
-0.000363281
-0.000392476
-0.000420843
-0.000448352
-0.000474976
-0.00050069
-0.000525465
-0.000549276
-0.000572093
-0.000593887
-0.000614623
-0.000634266
-0.000652776
-0.000670108
-0.000686215
-0.000701042
-0.00071453
-0.000726616
-0.000737228
-0.000746292
-0.000753725
-0.000759443
-0.000763353
-0.000765361
-0.000765366
-0.000763267
-0.00075896
-0.000752355
-0.000743381
-0.000731871
-0.000717274
-0.000699181
-0.000681848
0.000725891
0.000738003
0.000749155
0.000755826
0.000758467
0.000757646
0.000753587
0.000746423
0.000736291
0.000723336
0.000707702
0.000689528
0.000668956
0.000646127
0.000621182
0.000594269
0.000565525
0.000535097
0.000503132
0.000469775
0.000435172
0.000399466
0.0003628
0.000325314
0.000287146
0.00024843
0.000209293
0.00016986
0.000130251
9.05767e-05
5.09451e-05
1.14556e-05
-2.7799e-05
-6.67326e-05
-0.000105266
-0.000143328
-0.000180852
-0.00021778
-0.000254058
-0.000289641
-0.000324484
-0.000358553
-0.000391812
-0.000424231
-0.000455784
-0.000486444
-0.000516186
-0.000544987
-0.00057282
-0.000599661
-0.00062548
-0.000650247
-0.000673926
-0.000696481
-0.000717867
-0.000738035
-0.000756932
-0.000774498
-0.000790666
-0.000805362
-0.000818507
-0.000830014
-0.000839789
-0.000847735
-0.000853745
-0.000857709
-0.000859513
-0.00085904
-0.00085617
-0.000850797
-0.000842836
-0.000832102
-0.000818024
-0.000800177
-0.000782887
0.000868715
0.000877737
0.000885171
0.000888077
0.000886893
0.00088215
0.000874083
0.000862844
0.000848583
0.000831453
0.000811604
0.000789182
0.000764331
0.000737196
0.000707918
0.00067665
0.000643539
0.000608728
0.000572368
0.00053461
0.000495604
0.000455499
0.000414444
0.000372583
0.00033006
0.000287014
0.000243579
0.000199884
0.000156053
0.000112203
6.84423e-05
2.4875e-05
-1.84043e-05
-6.13085e-05
-0.000103758
-0.000145682
-0.000187015
-0.0002277
-0.000267688
-0.000306934
-0.000345399
-0.00038305
-0.000419857
-0.000455795
-0.00049084
-0.000524969
-0.000558161
-0.000590396
-0.000621649
-0.000651896
-0.000681109
-0.000709256
-0.000736302
-0.000762205
-0.000786917
-0.000810383
-0.000832544
-0.00085333
-0.000872666
-0.000890465
-0.000906637
-0.000921081
-0.00093369
-0.000944348
-0.000952931
-0.000959313
-0.000963361
-0.000964938
-0.000963907
-0.000960142
-0.000953538
-0.000943894
-0.000930615
-0.000913263
-0.000896208
0.0010296
0.00103442
0.00103693
0.00103501
0.00102906
0.00101954
0.00100669
0.000990671
0.000971652
0.000949782
0.000925212
0.000898084
0.000868541
0.000836725
0.000802775
0.000766835
0.000729056
0.000689583
0.000648564
0.000606153
0.0005625
0.000517759
0.000472081
0.000425616
0.000378511
0.000330911
0.000282955
0.000234777
0.000186503
0.000138255
9.01465e-05
4.22814e-05
-5.24337e-06
-5.23399e-05
-9.89295e-05
-0.000144942
-0.000190315
-0.000234995
-0.000278935
-0.000322096
-0.000364444
-0.000405951
-0.000446593
-0.00048635
-0.000525204
-0.000563138
-0.000600135
-0.000636177
-0.000671245
-0.000705316
-0.000738362
-0.000770351
-0.000801245
-0.000830998
-0.000859557
-0.000886862
-0.000912841
-0.000937417
-0.000960499
-0.000981989
-0.00100178
-0.00101975
-0.00103578
-0.00104974
-0.00106147
-0.00107083
-0.00107766
-0.0010818
-0.00108309
-0.00108139
-0.00107656
-0.00106838
-0.00105624
-0.00103968
-0.00102309
0.00120922
0.00120856
0.00120475
0.00119678
0.00118498
0.00116973
0.00115126
0.00112973
0.00110531
0.00107813
0.00104835
0.00101609
0.000981476
0.000944642
0.00090572
0.000864844
0.000822151
0.000777785
0.000731891
0.000684617
0.000636116
0.000586541
0.000536046
0.000484784
0.000432907
0.000380562
0.000327894
0.00027504
0.000222133
0.000169297
0.000116648
6.42931e-05
1.23305e-05
-3.91521e-05
-9.00776e-05
-0.000140379
-0.000189997
-0.000238883
-0.000286995
-0.000334302
-0.000380776
-0.000426398
-0.00047115
-0.000515022
-0.000558002
-0.000600081
-0.000641248
-0.000681493
-0.000720798
-0.000759144
-0.000796506
-0.000832849
-0.000868133
-0.000902308
-0.000935314
-0.000967081
-0.000997527
-0.00102656
-0.00105407
-0.00107995
-0.00110406
-0.00112628
-0.00114645
-0.0011644
-0.00117996
-0.00119297
-0.00120323
-0.00121056
-0.00121477
-0.00121568
-0.00121313
-0.00120688
-0.00119629
-0.00118088
-0.00116501
0.00140785
0.00140017
0.00138836
0.00137294
0.00135412
0.00133212
0.00130714
0.00127934
0.00124888
0.00121587
0.00118042
0.00114264