/*--------------------------------*- C++ -*----------------------------------*\
  =========                 |
  \\      /  F ield         | OpenFOAM: The Open Source CFD Toolbox
   \\    /   O peration     | Website:  https://openfoam.org
    \\  /    A nd           | Version:  12
     \\/     M anipulation  |
\*---------------------------------------------------------------------------*/
FoamFile
{
    format      ascii;
    class       surfaceScalarField;
    location    "5.5";
    object      phi;
}
// * * * * * * * * * * * * * * * * * * * * * * * * * * * * * * * * * * * * * //

dimensions      [0 3 -1 0 0 0 0];

internalField   nonuniform List<scalar> 
11100
(
-3.15866e-11
3.15949e-11
-7.96737e-11
4.80754e-11
-1.15075e-10
3.53917e-11
-1.2047e-10
5.3934e-12
-8.63381e-11
-3.41361e-11
-7.76345e-12
-7.85768e-11
1.16904e-10
-1.24671e-10
2.87162e-10
-1.70261e-10
5.0105e-10
-2.13891e-10
7.55653e-10
-2.54605e-10
1.04743e-09
-2.91779e-10
1.37245e-09
-3.2502e-10
1.72654e-09
-3.54095e-10
2.10542e-09
-3.78881e-10
2.50475e-09
-3.99336e-10
2.92023e-09
-4.15478e-10
3.34759e-09
-4.27367e-10
3.78269e-09
-4.35099e-10
4.22148e-09
-4.38795e-10
4.66007e-09
-4.38596e-10
5.09473e-09
-4.34663e-10
5.5219e-09
-4.27169e-10
5.9382e-09
-4.16301e-10
6.34045e-09
-4.02252e-10
6.72568e-09
-3.85228e-10
7.09111e-09
-3.65439e-10
7.43421e-09
-3.431e-10
7.75264e-09
-3.18432e-10
8.04429e-09
-2.91659e-10
8.3073e-09
-2.63006e-10
8.53999e-09
-2.327e-10
8.74096e-09
-2.00968e-10
8.909e-09
-1.68039e-10
9.04313e-09
-1.34138e-10
9.14262e-09
-9.94897e-11
9.20694e-09
-6.4318e-11
9.23578e-09
-2.88434e-11
9.22906e-09
6.7161e-12
9.18691e-09
4.21451e-11
9.10968e-09
7.72325e-11
8.99791e-09
1.11768e-10
8.85236e-09
1.45547e-10
8.67399e-09
1.78366e-10
8.46397e-09
2.10025e-10
8.22364e-09
2.40329e-10
7.95455e-09
2.69084e-10
7.65845e-09
2.96099e-10
7.33726e-09
3.21185e-10
6.9931e-09
3.44159e-10
6.62827e-09
3.64835e-10
6.24523e-09
3.83034e-10
5.84666e-09
3.98578e-10
5.43536e-09
4.1129e-10
5.01436e-09
4.20999e-10
4.58683e-09
4.27535e-10
4.15609e-09
4.30734e-10
3.72566e-09
4.30436e-10
3.29917e-09
4.26491e-10
2.88041e-09
4.18756e-10
2.47331e-09
4.07103e-10
2.08188e-09
3.91422e-10
1.71025e-09
3.71632e-10
1.36257e-09
3.47684e-10
1.04299e-09
3.19584e-10
7.55573e-10
2.87412e-10
5.04218e-10
2.51355e-10
2.92463e-10
2.11755e-10
1.23285e-10
1.69178e-10
-1.24746e-12
1.24532e-10
-8.04893e-11
7.92421e-11
-1.15844e-10
3.53542e-11
-1.11998e-10
-3.84553e-12
-7.80915e-11
-3.39066e-11
-3.11444e-11
-4.69469e-11
-3.11442e-11
-1.57717e-11
4.73613e-11
-1.56516e-11
4.79531e-11
3.65283e-11
-1.67903e-11
1.64939e-10
-1.23018e-10
3.8522e-10
-2.54419e-10
7.06001e-10
-3.99357e-10
1.13074e-09
-5.49412e-10
1.65894e-09
-6.98465e-10
2.28715e-09
-8.42102e-10
3.00971e-09
-9.77157e-10
3.81931e-09
-1.10139e-09
4.70752e-09
-1.21323e-09
5.66505e-09
-1.31163e-09
6.68208e-09
-1.39591e-09
7.74847e-09
-1.46572e-09
8.85389e-09
-1.5209e-09
9.98801e-09
-1.56149e-09
1.11406e-08
-1.58768e-09
1.23016e-08
-1.59977e-09
1.34611e-08
-1.59815e-09
1.46098e-08
-1.58331e-09
1.57384e-08
-1.5558e-09
1.68383e-08
-1.51621e-09
1.79012e-08
-1.4652e-09
1.89195e-08
-1.40346e-09
1.98858e-08
-1.33171e-09
2.07934e-08
-1.25071e-09
2.16362e-08
-1.16122e-09
2.24085e-08
-1.06405e-09
2.31055e-08
-9.59982e-10
2.37227e-08
-8.49843e-10
2.42561e-08
-7.34448e-10
2.47027e-08
-6.1462e-10
2.50598e-08
-4.9118e-10
2.53252e-08
-3.64948e-10
2.54976e-08
-2.36739e-10
2.55762e-08
-1.07362e-10
2.55605e-08
2.23824e-11
2.54509e-08
1.51701e-10
2.52484e-08
2.79812e-10
2.49542e-08
4.05944e-10
2.45704e-08
5.29335e-10
2.40995e-08
6.49237e-10
2.35446e-08
7.64913e-10
2.29093e-08
8.75639e-10
2.21977e-08
9.80702e-10
2.14144e-08
1.0794e-09
2.05645e-08
1.17105e-09
1.96537e-08
1.25498e-09
1.8688e-08
1.33052e-09
1.7674e-08
1.39703e-09
1.66187e-08
1.45388e-09
1.55295e-08
1.50047e-09
1.44144e-08
1.53619e-09
1.32814e-08
1.5605e-09
1.21393e-08
1.57284e-09
1.0997e-08
1.57272e-09
9.8638e-09
1.55969e-09
8.7492e-09
1.53335e-09
7.66292e-09
1.49339e-09
6.61479e-09
1.43956e-09
5.61466e-09
1.37176e-09
4.67231e-09
1.29004e-09
3.79723e-09
1.19465e-09
2.9985e-09
1.08615e-09
2.28444e-09
9.65419e-10
1.66232e-09
8.33874e-10
1.1379e-09
6.9359e-10
7.14869e-10
5.47567e-10
3.94057e-10
4.00053e-10
1.72403e-10
2.57009e-10
4.18421e-11
1.26715e-10
-1.27468e-11
2.06825e-11
-1.48624e-11
-4.48311e-11
-4.60065e-11
2.54815e-11
2.188e-11
1.3203e-10
-5.85931e-11
3.44193e-10
-2.2895e-10
6.80189e-10
-4.59011e-10
1.15218e-09
-7.26409e-10
1.76695e-09
-1.01412e-09
2.52658e-09
-1.30904e-09
3.42922e-09
-1.60111e-09
4.46975e-09
-1.88263e-09
5.64041e-09
-2.14781e-09
6.93134e-09
-2.39231e-09
8.33106e-09
-2.61294e-09
9.82686e-09
-2.80743e-09
1.14051e-08
-2.9742e-09
1.30517e-08
-3.11229e-09
1.4752e-08
-3.2212e-09
1.64913e-08
-3.30079e-09
1.82549e-08
-3.35128e-09
2.00283e-08
-3.37311e-09
2.17971e-08
-3.36697e-09
2.35475e-08
-3.33373e-09
2.52661e-08
-3.27442e-09
2.69401e-08
-3.19019e-09
2.85572e-08
-3.08232e-09
3.0106e-08
-2.95219e-09
3.15755e-08
-2.80123e-09
3.29558e-08
-2.63099e-09
3.42376e-08
-2.44302e-09
3.54125e-08
-2.23895e-09
3.64729e-08
-2.02043e-09
3.74122e-08
-1.78914e-09
3.82245e-08
-1.54677e-09
3.8905e-08
-1.29505e-09
3.94495e-08
-1.03568e-09
3.98549e-08
-7.70371e-10
4.0119e-08
-5.00837e-10
4.02404e-08
-2.28775e-10
4.02187e-08
4.41309e-11
4.00542e-08
3.16212e-10
3.97482e-08
5.85818e-10
3.93028e-08
8.51321e-10
3.8721e-08
1.11112e-09
3.80066e-08
1.36362e-09
3.71642e-08
1.60729e-09
3.61993e-08
1.84058e-09
3.5118e-08
2.062e-09
3.39273e-08
2.27009e-09
3.2635e-08
2.4634e-09
3.12494e-08
2.64053e-09
2.97798e-08
2.80011e-09
2.82361e-08
2.94082e-09
2.66286e-08
3.06137e-09
2.49685e-08
3.16053e-09
2.32676e-08
3.23712e-09
2.1538e-08
3.29004e-09
1.97926e-08
3.31825e-09
1.80445e-08
3.32083e-09
1.63073e-08
3.29695e-09
1.45947e-08
3.24595e-09
1.29207e-08
3.16732e-09
1.12995e-08
3.06079e-09
9.7449e-09
2.92635e-09
8.27062e-09
2.76433e-09
6.88979e-09
2.57548e-09
5.61481e-09
2.36113e-09
4.45697e-09
2.12326e-09
3.42607e-09
1.86477e-09
2.52998e-09
1.58969e-09
1.77405e-09
1.3035e-09
1.16054e-09
1.01356e-09
6.87874e-10
7.29671e-10
3.49931e-10
4.64658e-10
1.35277e-10
2.35337e-10
2.65267e-11
6.3919e-11
-1.94799e-11
7.22468e-11
-5.03658e-11
3.0054e-10
-2.86883e-10
6.95568e-10
-6.23976e-10
1.26562e-09
-1.02905e-09
2.01568e-09
-1.47648e-09
2.94728e-09
-1.94572e-09
4.05849e-09
-2.42024e-09
5.34418e-09
-2.8868e-09
6.7964e-09
-3.33484e-09
8.40469e-09
-3.75611e-09
1.01565e-08
-4.14416e-09
1.20377e-08
-4.49413e-09
1.40327e-08
-4.80236e-09
1.61247e-08
-5.06628e-09
1.82966e-08
-5.28417e-09
2.05305e-08
-5.45505e-09
2.28082e-08
-5.57855e-09
2.51118e-08
-5.65482e-09
2.74231e-08
-5.68445e-09
2.97246e-08
-5.66842e-09
3.19989e-08
-5.60803e-09
3.42293e-08
-5.50484e-09
3.63998e-08
-5.36066e-09
3.8495e-08
-5.17752e-09
4.05004e-08
-4.9576e-09
4.24024e-08
-4.70322e-09
4.41883e-08
-4.41687e-09
4.58463e-08
-4.10109e-09
4.73659e-08
-3.75853e-09
4.87374e-08
-3.39191e-09
4.99523e-08
-3.00398e-09
5.10031e-08
-2.59757e-09
5.18835e-08
-2.17548e-09
5.25884e-08
-1.74057e-09
5.31137e-08
-1.29568e-09
5.34565e-08
-8.43651e-10
5.36151e-08
-3.87321e-10
5.35887e-08
7.05011e-11
5.33779e-08
5.27026e-10
5.29842e-08
9.79496e-10
5.24104e-08
1.42519e-09
5.16601e-08
1.86141e-09
5.07382e-08
2.28552e-09
4.96505e-08
2.69492e-09
4.84041e-08
3.08705e-09
4.70067e-08
3.45942e-09
4.54672e-08
3.80958e-09
4.37954e-08
4.13514e-09
4.20022e-08
4.43377e-09
4.00991e-08
4.70323e-09
3.80986e-08
4.94133e-09
3.60139e-08
5.14599e-09
3.38593e-08
5.31521e-09
3.16493e-08
5.44712e-09
2.93994e-08
5.53995e-09
2.71255e-08
5.59212e-09
2.48441e-08
5.6022e-09
2.25721e-08
5.56899e-09
2.03265e-08
5.49153e-09
1.81246e-08
5.36919e-09
1.59838e-08
5.20168e-09
1.39209e-08
4.98919e-09
1.19528e-08
4.73244e-09
1.00955e-08
4.43281e-09
8.36408e-09
4.09252e-09
6.77257e-09
3.71476e-09
5.33337e-09
3.30397e-09
4.05697e-09
2.86609e-09
2.95158e-09
2.40889e-09
2.02272e-09
1.94243e-09
1.2729e-09
1.47949e-09
7.01349e-10
1.03621e-09
3.03938e-10
6.32748e-10
7.33655e-11
2.94492e-10
5.38852e-11
1.17379e-10
-1.67744e-10
4.66791e-10
-6.36294e-10
1.04658e-09
-1.20376e-09
1.85487e-09
-1.83734e-09
2.88841e-09
-2.51002e-09
4.14201e-09
-3.19932e-09
5.60827e-09
-3.8865e-09
7.2775e-09
-4.55603e-09
9.13783e-09
-5.19517e-09
1.11754e-08
-5.79364e-09
1.33744e-08
-6.34323e-09
1.57178e-08
-6.83752e-09
1.81871e-08
-7.27163e-09
2.07628e-08
-7.64199e-09
2.34248e-08
-7.94618e-09
2.61525e-08
-8.18272e-09
2.8925e-08
-8.351e-09
3.17213e-08
-8.45115e-09
3.45207e-08
-8.48389e-09
3.73028e-08
-8.45052e-09
4.00476e-08
-8.35281e-09
4.27357e-08
-8.19294e-09
4.53485e-08
-7.97344e-09
4.78681e-08
-7.69718e-09
5.02778e-08
-7.36725e-09
5.25616e-08
-6.98701e-09
5.47047e-08
-6.55999e-09
5.66935e-08
-6.08988e-09
5.85155e-08
-5.58052e-09
6.01594e-08
-5.03585e-09
6.16153e-08
-4.45988e-09
6.28745e-08
-3.85671e-09
6.39295e-08
-3.23046e-09
6.47742e-08
-2.5853e-09
6.54039e-08
-1.92539e-09
6.58152e-08
-1.25491e-09
6.60059e-08
-5.7802e-10
6.59752e-08
1.01146e-10
6.57238e-08
7.78485e-10
6.52534e-08
1.44993e-09
6.45671e-08
2.11148e-09
6.36693e-08
2.75916e-09
6.25658e-08
3.38908e-09
6.12633e-08
3.99741e-09
5.97699e-08
4.5804e-09
5.8095e-08
5.13436e-09
5.62488e-08
5.65572e-09
5.4243e-08
6.14096e-09
5.20901e-08
6.5867e-09
4.98037e-08
6.98965e-09
4.73983e-08
7.34667e-09
4.48896e-08
7.65472e-09
4.22939e-08
7.91096e-09
3.96283e-08
8.1127e-09
3.69108e-08
8.25747e-09
3.41599e-08
8.34305e-09
3.13946e-08
8.36747e-09
2.86345e-08
8.3291e-09
2.58993e-08
8.22671e-09
2.3209e-08
8.05948e-09
2.05835e-08
7.82716e-09
1.80426e-08
7.53012e-09
1.56056e-08
7.16945e-09
1.32912e-08
6.74717e-09
1.11175e-08
6.2663e-09
9.10108e-09
5.73116e-09
7.25754e-09
5.14751e-09
5.60076e-09
4.52288e-09
4.14279e-09
3.86686e-09
2.89373e-09
3.19149e-09
1.8616e-09
2.51162e-09
1.05241e-09
1.8454e-09
4.70401e-10
1.21475e-09
1.18619e-10
6.46274e-10
1.72504e-10
1.59195e-10
-3.26939e-10
6.23576e-10
-1.10068e-09
1.38154e-09
-1.96173e-09
2.42217e-09
-2.87797e-09
3.73423e-09
-3.82208e-09
5.30556e-09
-4.77065e-09
7.12269e-09
-5.70364e-09
9.1707e-09
-6.60404e-09
1.14331e-08
-7.45757e-09
1.38919e-08
-8.25247e-09
1.65278e-08
-8.97914e-09
1.93203e-08
-9.62996e-09
2.22477e-08
-1.0199e-08
2.52877e-08
-1.0682e-08
2.84175e-08
-1.10759e-08
3.16136e-08
-1.13788e-08
3.48526e-08
-1.159e-08
3.81111e-08
-1.17097e-08
4.13659e-08
-1.17387e-08
4.45942e-08
-1.16788e-08
4.77737e-08
-1.15323e-08
5.08829e-08
-1.13021e-08
5.3901e-08
-1.09915e-08
5.68081e-08
-1.06043e-08
5.95856e-08
-1.01447e-08
6.22156e-08
-9.61706e-09
6.46818e-08
-9.02616e-09
6.69689e-08
-8.37695e-09
6.90629e-08
-7.67457e-09
7.09514e-08
-6.92433e-09
7.26231e-08
-6.13164e-09
7.40684e-08
-5.30201e-09
7.5279e-08
-4.44104e-09
7.62481e-08
-3.55435e-09
7.69703e-08
-2.64759e-09
7.74418e-08
-1.72642e-09
7.76602e-08
-7.96468e-10
7.76247e-08
1.36635e-10
7.73359e-08
1.06732e-09
7.67958e-08
1.99006e-09
7.60078e-08
2.8994e-09
7.4977e-08
3.78997e-09
7.37096e-08
4.65645e-09
7.22134e-08
5.49365e-09
7.04974e-08
6.29645e-09
6.85718e-08
7.05988e-09
6.64485e-08
7.77907e-09
6.41402e-08
8.44927e-09
6.1661e-08
9.0659e-09
5.90261e-08
9.62454e-09
5.62518e-08
1.01209e-08
5.33555e-08
1.05511e-08
5.03553e-08
1.09111e-08
4.72706e-08
1.11974e-08
4.41212e-08
1.14069e-08
4.09278e-08
1.15364e-08
3.77117e-08
1.15836e-08
3.44945e-08
1.15462e-08
3.12986e-08
1.14227e-08
2.8146e-08
1.1212e-08
2.50593e-08
1.09139e-08
2.20606e-08
1.05288e-08
1.9172e-08
1.00581e-08
1.6415e-08
9.5042e-09
1.38104e-08
8.87091e-09
1.13782e-08
8.16331e-09
9.13752e-09
7.3882e-09
7.10614e-09
6.55425e-09
5.3007e-09
5.67231e-09
3.73649e-09
4.7557e-09
2.4276e-09
3.82051e-09
1.38709e-09
2.88591e-09
6.27312e-10
1.97453e-09
1.60559e-10
1.11303e-09
3.33062e-10
1.97808e-10
-5.24747e-10
7.70268e-10
-1.67314e-09
1.69786e-09
-2.88933e-09
2.96196e-09
-4.14206e-09
4.54404e-09
-5.40416e-09
6.42525e-09
-6.65186e-09
8.58603e-09
-7.86442e-09
1.10059e-08
-9.02392e-09
1.36635e-08
-1.01151e-08
1.65362e-08
-1.11252e-08
1.96008e-08
-1.20437e-08
2.28329e-08
-1.28621e-08
2.62077e-08
-1.35738e-08
2.96996e-08
-1.41739e-08
3.32827e-08
-1.46591e-08
3.69312e-08
-1.50273e-08
4.0619e-08
-1.52778e-08
4.43201e-08
-1.54108e-08
4.80093e-08
-1.54278e-08
5.16614e-08
-1.53309e-08
5.52521e-08
-1.51231e-08
5.87581e-08
-1.48081e-08
6.21566e-08
-1.43901e-08
6.54262e-08
-1.38739e-08
6.85464e-08
-1.32649e-08
7.14981e-08
-1.25688e-08
7.42634e-08
-1.17915e-08
7.68258e-08
-1.09393e-08
7.91703e-08
-1.0019e-08
8.12831e-08
-9.03721e-09
8.31524e-08
-8.0009e-09
8.47675e-08
-6.91713e-09
8.61195e-08
-5.79307e-09
8.72011e-08
-4.63594e-09
8.80065e-08
-3.45298e-09
8.85315e-08
-2.25146e-09
8.87737e-08
-1.03864e-09
8.8732e-08
1.78275e-10
8.84073e-08
1.3921e-09
8.78016e-08
2.59574e-09
8.69188e-08
3.78217e-09
8.57643e-08
4.94447e-09
8.43449e-08
6.0758e-09
8.26691e-08
7.16948e-09
8.07466e-08
8.21894e-09
7.85887e-08
9.21776e-09
7.62081e-08
1.01597e-08
7.36187e-08
1.10386e-08
7.08358e-08
1.18488e-08
6.7876e-08
1.25843e-08
6.4757e-08
1.324e-08
6.14976e-08
1.38105e-08
5.81177e-08
1.4291e-08
5.46381e-08
1.4677e-08
5.10805e-08
1.49644e-08
4.74676e-08
1.51494e-08
4.38225e-08
1.52287e-08
4.0169e-08
1.51997e-08
3.65314e-08
1.50603e-08
3.29341e-08
1.48093e-08
2.94021e-08
1.4446e-08
2.596e-08
1.39709e-08
2.26325e-08
1.33855e-08
1.94442e-08
1.26926e-08
1.6419e-08
1.18961e-08
1.35804e-08
1.10019e-08
1.09514e-08
1.00172e-08
8.55416e-09
8.95149e-09
6.41012e-09
7.81635e-09
4.54003e-09
6.62578e-09
2.96408e-09
5.39647e-09
1.70204e-09
4.14795e-09
7.73673e-10
2.90289e-09
1.99195e-10
1.6875e-09
5.32256e-10
2.33947e-10
-7.58694e-10
9.08771e-10
-2.34796e-09
1.99848e-09
-3.97904e-09
3.4778e-09
-5.62138e-09
5.32165e-09
-7.24802e-09
7.50491e-09
-8.83511e-09
1.00021e-08
-1.03616e-08
1.27871e-08
-1.1809e-08
1.58335e-08
-1.31615e-08
1.9114e-08
-1.44058e-08
2.2601e-08
-1.55307e-08
2.62663e-08
-1.65273e-08
3.00812e-08
-1.73887e-08
3.4017e-08
-1.81097e-08
3.80447e-08
-1.86868e-08
4.21355e-08
-1.91181e-08
4.62608e-08
-1.94031e-08
5.03923e-08
-1.95423e-08
5.45023e-08
-1.95378e-08
5.85637e-08
-1.93924e-08
6.25504e-08
-1.91098e-08
6.6437e-08
-1.86947e-08
7.01994e-08
-1.81524e-08
7.38143e-08
-1.74889e-08
7.72602e-08
-1.67108e-08
8.05164e-08
-1.5825e-08
8.3564e-08
-1.4839e-08
8.63854e-08
-1.37608e-08
8.89646e-08
-1.25982e-08
9.12872e-08
-1.13598e-08
9.33404e-08
-1.00541e-08
9.51131e-08
-8.68981e-09
9.65958e-08
-7.27575e-09
9.77807e-08
-5.82085e-09
9.86618e-08
-4.33407e-09
9.92347e-08
-2.82438e-09
9.94968e-08
-1.30073e-09
9.94471e-08
2.27941e-10
9.90864e-08
1.75278e-09
9.84172e-08
3.265e-09
9.74434e-08
4.75591e-09
9.61709e-08
6.21695e-09
9.46071e-08
7.63968e-09
9.27607e-08
9.01582e-09
9.06424e-08
1.03372e-08
8.82641e-08
1.1596e-08
8.56394e-08
1.27844e-08
8.27831e-08
1.38949e-08
7.97117e-08
1.49202e-08
7.64426e-08
1.58534e-08
7.29949e-08
1.66877e-08
6.93886e-08
1.74167e-08
6.56451e-08
1.80345e-08
6.17868e-08
1.85354e-08
5.78368e-08
1.89143e-08
5.38196e-08
1.91666e-08
4.976e-08
1.92883e-08
4.56838e-08
1.92758e-08
4.16174e-08
1.91267e-08
3.75876e-08
1.88391e-08
3.36214e-08
1.84121e-08
2.97463e-08
1.7846e-08
2.59899e-08
1.7142e-08
2.23795e-08
1.63029e-08
1.89427e-08
1.53329e-08
1.57067e-08
1.42379e-08
1.26985e-08
1.30254e-08
9.94468e-09
1.17053e-08
7.47176e-09
1.02893e-08
5.30585e-09
8.7917e-09
3.47297e-09
7.22935e-09
1.9992e-09
5.62172e-09
9.10904e-10
3.99118e-09
2.35119e-10
2.36329e-09
7.67375e-10
2.68479e-10
-1.02717e-09
1.04178e-09
-3.12126e-09
2.2883e-09
-5.22556e-09
3.97683e-09
-7.3099e-09
6.0763e-09
-9.34749e-09
8.55563e-09
-1.13144e-08
1.13836e-08
-1.31895e-08
1.45287e-08
-1.49541e-08
1.79592e-08
-1.6592e-08
2.16431e-08
-1.80897e-08
2.55483e-08
-1.94359e-08
2.96423e-08
-2.06214e-08
3.38928e-08
-2.16392e-08
3.82674e-08
-2.24843e-08
4.2734e-08
-2.31534e-08
4.72608e-08
-2.36449e-08
5.18165e-08
-2.39587e-08
5.63703e-08
-2.40962e-08
6.08924e-08
-2.40599e-08
6.53536e-08
-2.38535e-08
6.97258e-08
-2.3482e-08
7.3982e-08
-2.29509e-08
7.80965e-08
-2.22669e-08
8.20449e-08
-2.14373e-08
8.5804e-08
-2.04699e-08
8.93523e-08
-1.93733e-08
9.26699e-08
-1.81566e-08
9.57381e-08
-1.6829e-08
9.85404e-08
-1.54005e-08
1.01062e-07
-1.3881e-08
1.03288e-07
-1.22808e-08
1.05209e-07
-1.06104e-08
1.06814e-07
-8.88048e-09
1.08094e-07
-7.10161e-09
1.09045e-07
-5.28458e-09
1.09661e-07
-3.44016e-09
1.09939e-07
-1.5791e-09
1.09879e-07
2.87899e-10
1.09482e-07
2.1502e-09
1.08749e-07
3.99727e-09
1.07687e-07
5.81867e-09
1.06299e-07
7.60414e-09
1.04596e-07
9.34353e-09
1.02585e-07
1.10269e-08
1.00277e-07
1.26445e-08
9.76865e-08
1.41868e-08
9.48264e-08
1.56445e-08
9.17127e-08
1.70086e-08
8.83626e-08
1.82703e-08
8.47947e-08
1.94213e-08
8.10291e-08
2.04533e-08
7.70869e-08
2.13589e-08
7.29908e-08
2.21306e-08
6.87645e-08
2.27617e-08
6.44328e-08
2.32461e-08
6.00214e-08
2.3578e-08
5.55573e-08
2.37524e-08
5.1068e-08
2.37652e-08
4.65819e-08
2.36128e-08
4.2128e-08
2.3293e-08
3.7736e-08
2.28042e-08
3.34359e-08
2.21461e-08
2.92582e-08
2.13197e-08
2.52335e-08
2.03275e-08
2.13929e-08
1.91735e-08
1.77674e-08
1.78634e-08
1.43881e-08
1.64047e-08
1.12864e-08
1.4807e-08
8.49341e-09
1.30822e-08
6.04064e-09
1.12445e-08
3.95966e-09
9.31032e-09
2.28238e-09
7.299e-09
1.04116e-09
5.2324e-09
2.69046e-10
3.13541e-09
1.03642e-09
3.02227e-10
-1.3294e-09
1.17201e-09
-3.99105e-09
2.57254e-09
-6.62608e-09
4.46701e-09
-9.20438e-09
6.81867e-09
-1.16991e-08
9.59071e-09
-1.40865e-08
1.27463e-08
-1.63451e-08
1.62485e-08
-1.84563e-08
2.00604e-08
-2.04039e-08
2.41451e-08
-2.21744e-08
2.84658e-08
-2.37566e-08
3.29859e-08
-2.51414e-08
3.7669e-08
-2.63223e-08
4.24791e-08
-2.72944e-08
4.73808e-08
-2.80551e-08
5.23392e-08
-2.86033e-08
5.73203e-08
-2.89398e-08
6.22907e-08
-2.90666e-08
6.72183e-08
-2.89875e-08
7.2072e-08
-2.87072e-08
7.68218e-08
-2.82318e-08
8.14392e-08
-2.75683e-08
8.58968e-08
-2.67246e-08
9.01691e-08
-2.57095e-08
9.42317e-08
-2.45325e-08
9.80622e-08
-2.32038e-08
1.0164e-07
-2.1734e-08
1.04945e-07
-2.01343e-08
1.07961e-07
-1.84162e-08
1.10671e-07
-1.65914e-08
1.13063e-07
-1.46723e-08
1.15123e-07
-1.26709e-08
1.16842e-07
-1.05999e-08
1.18212e-07
-8.47165e-09
1.19227e-07
-6.2989e-09
1.19881e-07
-4.09421e-09
1.20172e-07
-1.87019e-09
1.20099e-07
3.606e-10
1.19664e-07
2.58571e-09
1.18868e-07
4.79278e-09
1.17717e-07
6.9696e-09
1.16217e-07
9.1041e-09
1.14376e-07
1.11844e-08
1.12205e-07
1.31989e-08
1.09713e-07
1.5136e-08
1.06915e-07
1.69846e-08
1.03826e-07
1.87338e-08
1.00462e-07
2.0373e-08
9.68402e-08
2.18918e-08
9.29811e-08
2.32803e-08
8.89054e-08
2.45291e-08
8.46353e-08
2.56289e-08
8.01947e-08
2.65713e-08
7.56083e-08
2.73481e-08
7.09026e-08
2.79518e-08
6.61049e-08
2.83757e-08
6.12436e-08
2.86137e-08
5.63483e-08
2.86605e-08
5.14494e-08
2.85117e-08
4.65782e-08
2.81642e-08
4.17669e-08
2.76155e-08
3.70482e-08
2.68647e-08
3.24556e-08
2.59123e-08
2.80232e-08
2.476e-08
2.37853e-08
2.34114e-08
1.9777e-08
2.18717e-08
1.60336e-08
2.0148e-08
1.2591e-08
1.82497e-08
9.48514e-09
1.61881e-08
6.75263e-09
1.3977e-08
4.43036e-09
1.16326e-08
2.55572e-09
9.17364e-09
1.16664e-09
6.62148e-09
3.01647e-10
4.00039e-09
1.33807e-09
3.35904e-10
-1.6653e-09
1.3019e-09
-4.95703e-09
2.85593e-09
-8.18011e-09
4.95572e-09
-1.13042e-08
7.55883e-09
-1.43023e-08
1.06228e-08
-1.71504e-08
1.41052e-08
-1.98274e-08
1.79636e-08
-2.23147e-08
2.21559e-08
-2.45962e-08
2.66402e-08
-2.66588e-08
3.13751e-08
-2.84915e-08
3.63195e-08
-3.00858e-08
4.14331e-08
-3.14358e-08
4.6676e-08
-3.25373e-08
5.20095e-08
-3.33885e-08
5.73955e-08
-3.39893e-08
6.27972e-08
-3.43415e-08
6.81788e-08
-3.44482e-08
7.35058e-08
-3.43145e-08
7.87452e-08
-3.39466e-08
8.38651e-08
-3.33517e-08
8.88355e-08
-3.25386e-08
9.36278e-08
-3.15168e-08
9.8215e-08
-3.02967e-08
1.02572e-07
-2.88895e-08
1.06675e-07
-2.73071e-08
1.10503e-07
-2.55621e-08
1.14036e-07
-2.36673e-08
1.17256e-07
-2.16362e-08
1.20147e-07
-1.94825e-08
1.22695e-07
-1.72202e-08
1.24888e-07
-1.48636e-08
1.26715e-07
-1.2427e-08
1.28168e-07
-9.92486e-09
1.29241e-07
-7.37174e-09
1.29929e-07
-4.78217e-09
1.3023e-07
-2.17063e-09
1.30142e-07
4.4843e-10
1.29667e-07
3.06068e-09
1.28808e-07
5.65191e-09
1.27569e-07
8.20806e-09
1.25958e-07
1.07153e-08
1.23983e-07
1.31598e-08
1.21653e-07
1.55283e-08
1.18982e-07
1.78076e-08
1.15982e-07
1.99846e-08
1.12669e-07
2.20469e-08
1.0906e-07
2.3982e-08
1.05173e-07
2.57782e-08
1.0103e-07
2.74239e-08
9.66506e-08
2.8908e-08
9.20597e-08
3.02199e-08
8.72815e-08
3.13495e-08
8.23422e-08
3.22873e-08
7.72695e-08
3.30245e-08
7.20921e-08
3.3553e-08
6.68403e-08
3.38655e-08
6.15455e-08
3.39553e-08
5.62401e-08
3.38172e-08
5.09577e-08
3.34465e-08
4.57329e-08
3.28402e-08
4.06014e-08
3.19963e-08
3.55996e-08
3.09141e-08
3.07649e-08
2.95948e-08
2.61354e-08
2.80409e-08
2.17499e-08
2.62572e-08
1.7648e-08
2.42499e-08
1.387e-08
2.20277e-08
1.04567e-08
1.96014e-08
7.44965e-09
1.69841e-08
4.89083e-09
1.41914e-08
2.82295e-09
1.12415e-08
1.28924e-09
8.15519e-09
3.3349e-10
4.95614e-09
1.67155e-09
3.70085e-10
-2.03538e-09
1.43339e-09
-6.02034e-09
3.14237e-09
-9.88908e-09
5.44899e-09
-1.36108e-08
8.30502e-09
-1.71583e-08
1.16622e-08
-2.05076e-08
1.54723e-08
-2.36376e-08
1.96876e-08
-2.65299e-08
2.42605e-08
-2.91691e-08
2.9144e-08
-3.15423e-08
3.4292e-08
-3.36394e-08
3.9659e-08
-3.54528e-08
4.52004e-08
-3.69772e-08
5.08727e-08
-3.82097e-08
5.66337e-08
-3.91495e-08
6.24423e-08
-3.97979e-08
6.82587e-08
-4.01579e-08
7.40447e-08
-4.02343e-08
7.97636e-08
-4.00335e-08
8.53804e-08
-3.95633e-08
9.08616e-08
-3.88329e-08
9.61755e-08
-3.78526e-08
1.01293e-07
-3.66338e-08
1.06185e-07
-3.51887e-08
1.10825e-07
-3.35304e-08
1.15191e-07
-3.16728e-08
1.19259e-07
-2.96303e-08
1.2301e-07
-2.74179e-08
1.26425e-07
-2.50508e-08
1.29487e-07
-2.25449e-08
1.32183e-07
-1.99161e-08
1.345e-07
-1.71806e-08
1.36428e-07
-1.43548e-08
1.37958e-07
-1.14551e-08
1.39084e-07
-8.49794e-09
1.39802e-07
-5.49988e-09
1.40109e-07
-2.47731e-09
1.40004e-07
5.53409e-10
1.39488e-07
3.57604e-09
1.38566e-07
6.5745e-09
1.37241e-07
9.53286e-09
1.35521e-07
1.24354e-08
1.33414e-07
1.52666e-08
1.30931e-07
1.80113e-08
1.28084e-07
2.06543e-08
1.24888e-07
2.31812e-08
1.21357e-07
2.55774e-08
1.1751e-07
2.78291e-08
1.13366e-07
2.99225e-08
1.08945e-07
3.18445e-08
1.04271e-07
3.35824e-08
9.93669e-08
3.51238e-08
9.42591e-08
3.64573e-08
8.89748e-08
3.75716e-08
8.35428e-08
3.84566e-08
7.79934e-08
3.91024e-08
7.23585e-08
3.95004e-08
6.66712e-08
3.96426e-08
6.09661e-08
3.95223e-08
5.5279e-08
3.91336e-08
4.96471e-08
3.84721e-08
4.41088e-08
3.75346e-08
3.87035e-08
3.63194e-08
3.34719e-08
3.48263e-08
2.84559e-08
3.3057e-08
2.36981e-08
3.1015e-08
1.92423e-08
2.87057e-08
1.51332e-08
2.61368e-08
1.14164e-08
2.33182e-08
8.13819e-09
2.02623e-08
5.34581e-09
1.69838e-08
3.0871e-09
1.35002e-08
1.4105e-09
9.83178e-09
3.65019e-10
6.00163e-09
2.03657e-09
4.052e-10
-2.44058e-09
1.56796e-09
-7.1831e-09
3.43467e-09
-1.17558e-08
5.95116e-09
-1.61273e-08
9.06302e-09
-2.02702e-08
1.27159e-08
-2.41605e-08
1.68558e-08
-2.77774e-08
2.1429e-08
-3.11031e-08
2.63826e-08
-3.41227e-08
3.16645e-08
-3.68243e-08
3.72236e-08
-3.91986e-08
4.301e-08
-4.12392e-08
4.8975e-08
-4.29422e-08
5.50713e-08
-4.4306e-08
6.12532e-08
-4.53314e-08
6.74765e-08
-4.60212e-08
7.36988e-08
-4.63802e-08
7.98794e-08
-4.64149e-08
8.59795e-08
-4.61336e-08
9.19622e-08
-4.5546e-08
9.77926e-08
-4.46633e-08
1.03438e-07
-4.34977e-08
1.08867e-07
-4.20626e-08
1.1405e-07
-4.03724e-08
1.18962e-07
-3.84423e-08
1.23577e-07
-3.62881e-08
1.27873e-07
-3.39264e-08
1.3183e-07
-3.13741e-08
1.35428e-07
-2.86487e-08
1.38651e-07
-2.57681e-08
1.41485e-07
-2.27501e-08
1.43917e-07
-1.96132e-08
1.45938e-07
-1.63756e-08
1.47539e-07
-1.30558e-08
1.48713e-07
-9.67227e-09
1.49457e-07
-6.24342e-09
1.49767e-07
-2.78764e-09
1.49644e-07
6.76792e-10
1.49088e-07
4.13173e-09
1.48103e-07
7.55919e-09
1.46695e-07
1.09414e-08
1.4487e-07
1.42607e-08
1.42636e-07
1.74998e-08
1.40006e-07
2.06417e-08
1.36991e-07
2.36694e-08
1.33605e-07
2.65666e-08
1.29866e-07
2.9317e-08
1.2579e-07
3.1905e-08
1.21397e-07
3.4315e-08
1.1671e-07
3.65321e-08
1.1175e-07
3.85419e-08
1.06544e-07
4.03305e-08
1.01117e-07
4.18843e-08
9.54974e-08
4.31907e-08
8.97163e-08
4.42377e-08
8.38048e-08
4.50139e-08
7.77963e-08
4.55089e-08
7.17257e-08
4.57132e-08
6.56296e-08
4.56184e-08
5.9546e-08
4.52172e-08
5.35146e-08
4.45035e-08
4.75765e-08
4.34727e-08
4.17743e-08
4.21216e-08
3.61518e-08
4.04487e-08
3.07547e-08
3.84542e-08
2.56293e-08
3.61403e-08
2.08238e-08
3.35112e-08
1.63872e-08
3.05734e-08
1.23699e-08
2.73356e-08
8.82295e-09
2.38092e-08
5.79877e-09
2.0008e-08
3.35039e-09
1.59486e-08
1.53155e-09
1.16506e-08
3.96559e-10
7.13662e-09
2.43313e-09
4.41523e-10
-2.8821e-09
1.70648e-09
-8.44806e-09
3.73446e-09
-1.37838e-08
6.46452e-09
-1.88573e-08
9.83561e-09
-2.36413e-08
1.37869e-08
-2.81118e-08
1.82581e-08
-3.22486e-08
2.31895e-08
-3.60346e-08
2.85228e-08
-3.94559e-08
3.42003e-08
-4.25018e-08
4.01663e-08
-4.51645e-08
4.63661e-08
-4.7439e-08
5.27469e-08
-4.93231e-08
5.92579e-08
-5.0817e-08
6.58498e-08
-5.19234e-08
7.24756e-08
-5.2647e-08
7.90902e-08
-5.29948e-08
8.56507e-08
-5.29754e-08
9.21164e-08
-5.25992e-08
9.84486e-08
-5.18783e-08
1.04611e-07
-5.08259e-08
1.1057e-07
-4.94565e-08
1.16293e-07
-4.77859e-08
1.21751e-07
-4.58306e-08
1.26917e-07
-4.3608e-08
1.31765e-07
-4.11363e-08
1.36273e-07
-3.84342e-08
1.4042e-07
-3.55208e-08
1.44187e-07
-3.24158e-08
1.47558e-07
-2.91391e-08
1.50519e-07
-2.57108e-08
1.53057e-07
-2.21513e-08
1.55162e-07
-1.8481e-08
1.56827e-07
-1.47202e-08
1.58044e-07
-1.08896e-08
1.5881e-07
-7.00933e-09
1.59122e-07
-3.09989e-09
1.5898e-07
8.18581e-10
1.58386e-07
4.72604e-09
1.57342e-07
8.60262e-09
1.55855e-07
1.24287e-08
1.53931e-07
1.61847e-08
1.51579e-07
1.98516e-08
1.48811e-07
2.34104e-08
1.45638e-07
2.68424e-08
1.42075e-07
3.01294e-08
1.38138e-07
3.32534e-08
1.33847e-07
3.61967e-08
1.2922e-07
3.8942e-08
1.24279e-07
4.14727e-08
1.19049e-07
4.37724e-08
1.13554e-07
4.58253e-08
1.07822e-07
4.76161e-08
1.01882e-07
4.91303e-08
9.57662e-08
5.03539e-08
8.95063e-08
5.12738e-08
8.31373e-08
5.18778e-08
7.6696e-08
5.21545e-08
7.02207e-08
5.20937e-08
6.37516e-08
5.16862e-08
5.7331e-08
5.09242e-08
5.10025e-08
4.98013e-08
4.48117e-08
4.83124e-08
3.88059e-08
4.64545e-08
3.30341e-08
4.4226e-08
2.75468e-08
4.16276e-08
2.23961e-08
3.86619e-08
1.76357e-08
3.53338e-08
1.33204e-08
3.16508e-08
9.50668e-09
2.76229e-08
6.2518e-09
2.32628e-08
3.6142e-09
1.85862e-08
1.6531e-09
1.36117e-08
4.28322e-10
8.3614e-09
2.86145e-09
4.79169e-10
-3.36127e-09
1.84922e-09
-9.81812e-09
4.04203e-09
-1.59766e-08
6.98911e-09
-2.18044e-08
1.06221e-08
-2.72743e-08
1.48733e-08
-3.2363e-08
1.96756e-08
-3.7051e-08
2.49634e-08
-4.13223e-08
3.0672e-08
-4.51646e-08
3.67389e-08
-4.85687e-08
4.31029e-08
-5.15286e-08
4.97052e-08
-5.40413e-08
5.64889e-08
-5.61068e-08
6.33993e-08
-5.77274e-08
7.03842e-08
-5.89082e-08
7.73937e-08
-5.96565e-08
8.43803e-08
-5.99814e-08
9.12991e-08
-5.98942e-08
9.81078e-08
-5.94079e-08
1.04766e-07
-5.85369e-08
1.11237e-07
-5.7297e-08
1.17486e-07
-5.57053e-08
1.2348e-07
-5.37799e-08
1.29189e-07
-5.15399e-08
1.34586e-07
-4.9005e-08
1.39646e-07
-4.61958e-08
1.44345e-07
-4.31333e-08
1.48663e-07
-3.98389e-08
1.52582e-07
-3.63346e-08
1.56085e-07
-3.26423e-08
1.59158e-07
-2.87844e-08
1.6179e-07
-2.47832e-08
1.63971e-07
-2.06613e-08
1.65691e-07
-1.6441e-08
1.66946e-07
-1.21447e-08
1.67732e-07
-7.79488e-09
1.68046e-07
-3.41365e-09
1.67887e-07
9.76896e-10
1.67259e-07
5.35486e-09
1.66163e-07
9.69851e-09
1.64605e-07
1.39864e-08
1.62593e-07
1.81972e-08
1.60134e-07
2.23098e-08
1.57241e-07
2.63037e-08
1.53925e-07
3.01582e-08
1.50202e-07
3.38532e-08
1.46086e-07
3.73688e-08
1.41597e-07
4.06856e-08
1.36755e-07
4.37844e-08
1.31581e-07
4.66464e-08
1.261e-07
4.92535e-08
1.20337e-07
5.15879e-08
1.14321e-07
5.36323e-08
1.08081e-07
5.53702e-08
1.01649e-07
5.67855e-08
9.506e-08
5.78632e-08
8.83488e-08
5.85889e-08
8.15541e-08
5.89492e-08
7.47161e-08
5.89318e-08
6.78769e-08
5.85254e-08
6.10811e-08
5.77201e-08
5.43749e-08
5.65074e-08
4.78071e-08
5.48803e-08
4.1428e-08
5.28336e-08
3.52902e-08
5.03638e-08
2.94482e-08
4.74696e-08
2.39582e-08
4.41518e-08
1.88784e-08
4.04136e-08
1.42686e-08
3.62606e-08
1.01901e-08
3.17014e-08
6.70561e-09
2.67473e-08
3.87909e-09
2.14127e-08
1.77546e-09
1.57153e-08
4.60409e-10
9.67646e-09
3.32186e-09
5.18077e-10
-3.87934e-09
1.99578e-09
-1.12958e-08
4.35617e-09
-1.8337e-08
7.52236e-09
-2.49706e-08
1.1418e-08
-3.11699e-08
1.59678e-08
-3.69127e-08
2.10977e-08
-4.21808e-08
2.67353e-08
-4.696e-08
3.28103e-08
-5.12395e-08
3.92542e-08
-5.50126e-08
4.60012e-08
-5.82756e-08
5.2988e-08
-6.1028e-08
6.01536e-08
-6.32724e-08
6.74401e-08
-6.50139e-08
7.47923e-08
-6.62604e-08
8.21578e-08
-6.7022e-08
8.94871e-08
-6.73107e-08
9.67337e-08
-6.71408e-08
1.03854e-07
-6.6528e-08
1.10806e-07
-6.54895e-08
1.17554e-07
-6.40442e-08
1.2406e-07
-6.22117e-08
1.30293e-07
-6.00128e-08
1.36222e-07
-5.74693e-08
1.41821e-07
-5.46035e-08
1.47064e-07
-5.14384e-08
1.51928e-07
-4.79974e-08
1.56393e-07
-4.43043e-08
1.60442e-07
-4.03832e-08
1.64058e-07
-3.62584e-08
1.67227e-07
-3.19542e-08
1.69939e-07
-2.74952e-08
1.72184e-07
-2.29058e-08
1.73953e-07
-1.82103e-08
1.75242e-07
-1.34332e-08
1.76045e-07
-8.59855e-09
1.76362e-07
-3.73045e-09
1.76192e-07
1.1472e-09
1.75536e-07
6.01073e-09
1.74398e-07
1.08366e-08
1.72783e-07
1.56016e-08
1.70697e-07
2.02826e-08
1.6815e-07
2.48568e-08
1.65152e-07
2.93017e-08
1.61715e-07
3.35949e-08
1.57854e-07
3.77145e-08
1.53584e-07
4.16386e-08
1.48924e-07
4.53458e-08
1.43893e-07
4.88151e-08
1.38514e-07
5.20258e-08
1.3281e-07
5.49575e-08
1.26808e-07
5.75904e-08
1.20535e-07
5.99052e-08
1.14022e-07
6.1883e-08
1.07302e-07
6.35058e-08
1.00409e-07
6.4756e-08
9.33807e-08
6.56171e-08
8.62565e-08
6.60734e-08
7.90782e-08
6.61101e-08
7.18899e-08
6.57137e-08
6.47382e-08
6.48718e-08
5.7672e-08
6.35735e-08
5.07428e-08
6.18095e-08
4.40043e-08
5.95721e-08
3.75125e-08
5.68556e-08
3.13257e-08
5.36564e-08
2.55046e-08
4.99729e-08
2.01118e-08
4.58064e-08
1.52121e-08
4.11604e-08
1.08719e-08
3.60416e-08
7.15956e-09
3.04597e-08
4.14481e-09
2.44275e-08
1.89859e-09
1.79616e-08
4.92823e-10
1.10822e-08
3.81468e-09
5.57989e-10
-4.43733e-09
2.14495e-09
-1.28828e-08
4.67398e-09
-2.0866e-08
8.05879e-09
-2.83554e-08
1.22143e-08
-3.53254e-08
1.70569e-08
-4.17554e-08
2.25052e-08
-4.76291e-08
2.84799e-08
-5.29347e-08
3.49044e-08
-5.76641e-08
4.1705e-08
-6.18132e-08
4.88107e-08
-6.53814e-08
5.6154e-08
-6.83713e-08
6.36704e-08
-7.07888e-08
7.12988e-08
-7.26423e-08
7.89814e-08
-7.3943e-08