/*--------------------------------*- C++ -*----------------------------------*\
  =========                 |
  \\      /  F ield         | OpenFOAM: The Open Source CFD Toolbox
   \\    /   O peration     | Website:  https://openfoam.org
    \\  /    A nd           | Version:  12
     \\/     M anipulation  |
\*---------------------------------------------------------------------------*/
FoamFile
{
    format      ascii;
    class       volScalarField;
    location    "8.5";
    object      p;
}
// * * * * * * * * * * * * * * * * * * * * * * * * * * * * * * * * * * * * * //

dimensions      [0 2 -2 0 0 0 0];

internalField   nonuniform List<scalar> 
5625
(
-1.71067e-09
-1.83392e-05
-9.33273e-05
-0.000227725
-0.000405928
-0.000612962
-0.000836321
-0.00106554
-0.00129212
-0.0015093
-0.00171184
-0.0018957
-0.00205787
-0.00219609
-0.00230876
-0.00239472
-0.00245314
-0.00248348
-0.00248537
-0.00245856
-0.0024029
-0.00231831
-0.00220477
-0.00206235
-0.00189115
-0.00169141
-0.00146345
-0.00120776
-0.000924984
-0.000615978
-0.000281824
7.6137e-05
0.000456284
0.000856698
0.00127514
0.00170905
0.00215553
0.00261141
0.00307325
0.00353721
0.00399931
0.00445534
0.00490096
0.00533175
0.00574326
0.0061311
0.00649102
0.00681898
0.00711124
0.00736446
0.00757575
0.00774275
0.00786373
0.0079376
0.00796401
0.00794334
0.00787677
0.00776624
0.00761451
0.00742509
0.00720227
0.00695102
0.00667703
0.00638661
0.00608666
0.00578464
0.0054885
0.00520662
0.00494773
0.00472078
0.00453453
0.00439713
0.00431543
0.00429184
0.004307
1.81661e-05
-2.49719e-07
-6.71155e-05
-0.00018513
-0.000341118
-0.000522684
-0.000719386
-0.000922279
-0.00112386
-0.001318
-0.00149981
-0.00166544
-0.00181193
-0.00193702
-0.002039
-0.00211663
-0.00216898
-0.00219541
-0.00219543
-0.00216872
-0.00211506
-0.00203431
-0.00192642
-0.00179139
-0.00162935
-0.00144048
-0.00122512
-0.000983725
-0.000716931
-0.000425564
-0.000110667
0.000226474
0.000584311
0.000961015
0.00135447
0.00176224
0.0021816
0.00260961
0.00304297
0.0034781
0.0039113
0.00433864
0.00475606
0.00515945
0.00554467
0.00590766
0.00624448
0.00655139
0.00682497
0.00706214
0.00726025
0.00741718
0.00753136
0.00760187
0.00762842
0.00761147
0.00755216
0.00745239
0.00731478
0.00714267
0.0069401
0.00671174
0.0064629
0.00619944
0.00592776
0.00565467
0.00538742
0.00513352
0.00490071
0.00469673
0.004529
0.00440427
0.00432878
0.00430664
0.00432203
9.34144e-05
6.63442e-05
-1.07638e-06
-0.000109748
-0.000249306
-0.000410117
-0.000583846
-0.000763128
-0.000941601
-0.00111393
-0.00127573
-0.00142349
-0.0015544
-0.00166629
-0.00175747
-0.00182664
-0.00187285
-0.00189536
-0.00189363
-0.00186726
-0.00181597
-0.00173957
-0.00163795
-0.00151111
-0.00135909
-0.00118209
-0.000980389
-0.000754422
-0.000504782
-0.000232246
6.2201e-05
0.00037735
0.000711743
0.00106366
0.00143113
0.00181185
0.00220332
0.00260275
0.00300704
0.0034129
0.00381687
0.00421529
0.0046044
0.00498037
0.00533936
0.00567762
0.0059915
0.00627756
0.00653263
0.00675389
0.00693893
0.00708582
0.00719316
0.00726013
0.00728655
0.00727289
0.00722029
0.00713057
0.00700623
0.00685042
0.00666692
0.00646011
0.0062349
0.00599671
0.00575139
0.00550514
0.00526445
0.005036
0.00482654
0.00464271
0.00449077
0.00437641
0.0043055
0.00428403
0.00429894
0.000229453
0.000184815
0.000106208
-3.67357e-06
-0.000137441
-0.000287761
-0.000447946
-0.000611976
-0.000774563
-0.000931186
-0.00107807
-0.00121212
-0.00133083
-0.00143221
-0.00151469
-0.00157705
-0.00161834
-0.00163783
-0.00163496
-0.0016093
-0.00156054
-0.00148844
-0.00139287
-0.00127375
-0.00113111
-0.000965091
-0.000775929
-0.000564003
-0.000329847
-7.41693e-05
0.000202124
0.000497913
0.000811842
0.00114231
0.00148746
0.00184517
0.00221307
0.00258853
0.00296865
0.00335036
0.00373038
0.00410526
0.00447146
0.00482538
0.0051634
0.00548197
0.00577766
0.00604723
0.0062877
0.00649642
0.00667113
0.00681001
0.00691179
0.00697572
0.00700165
0.00699006
0.00694208
0.00685944
0.00674454
0.00660038
0.00643054
0.00623912
0.00603074
0.00581044
0.00558362
0.00535596
0.00513335
0.00492182
0.00472735
0.00455583
0.00441276
0.00430323
0.00423296
0.00420856
0.00421896
0.000411831
0.00034284
0.000245056
0.000126333
-9.13107e-06
-0.00015616
-0.000309468
-0.000464225
-0.000616159
-0.000761572
-0.000897327
-0.00102082
-0.00112992
-0.0012229
-0.00129838
-0.00135528
-0.00139273
-0.00141003
-0.00140666
-0.00138219
-0.00133627
-0.00126865
-0.00117915
-0.00106767
-0.000934172
-0.000778743
-0.000601557
-0.000402924
-0.000183301
5.66884e-05
0.000316233
0.000594313
0.000889688
0.00120088
0.00152615
0.00186354
0.0022108
0.00256546
0.0029248
0.0032859
0.00364565
0.00400077
0.00434789
0.00468357
0.00500437
0.00530687
0.0055878
0.00584404
0.00607275
0.00627138
0.00643776
0.00657017
0.00666736
0.00672863
0.00675386
0.0067435
0.00669864
0.00662096
0.00651275
0.00637686
0.00621672
0.00603621
0.00583968
0.00563185
0.00541775
0.00520262
0.00499188
0.00479098
0.00460534
0.00444021
0.00430055
0.004191
0.00411683
0.00408418
0.00408446
0.000626504
0.00052864
0.000406208
0.000273199
0.000130629
-1.83758e-05
-0.000169766
-0.00031979
-0.000465134
-0.0006029
-0.000730607
-0.000846171
-0.000947872
-0.00103431
-0.00110434
-0.00115704
-0.00119169
-0.00120767
-0.00120449
-0.00118174
-0.00113909
-0.00107626
-0.000993029
-0.000889256
-0.000764858
-0.000619842
-0.000454313
-0.000268498
-6.2762e-05
0.000162369
0.000406189
0.000667793
0.000946058
0.00123963
0.00154692
0.00186608
0.00219501
0.00253139
0.00287264
0.00321597
0.00355841
0.00389682
0.00422797
0.00454852
0.00485515
0.00514455
0.00541354
0.00565909
0.00587842
0.00606904
0.00622883
0.00635608
0.00644959
0.00650865
0.00653312
0.00652343
0.00648061
0.00640627
0.00630262
0.00617239
0.00601883
0.00584568
0.00565703
0.00545734
0.00525134
0.0050439
0.00484002
0.00464471
0.00446288
0.00429929
0.00415842
0.0040445
0.0039621
0.00391619
0.00390143
0.00086143
0.000731961
0.000581285
0.000430052
0.000276257
0.00012114
-3.23384e-05
-0.000181396
-0.000323607
-0.000456842
-0.000579261
-0.000689314
-0.000785715
-0.000867404
-0.000933517
-0.000983341
-0.00101629
-0.00103186
-0.00102964
-0.00100925
-0.000970364
-0.000912695
-0.000835998
-0.000740072
-0.000624779
-0.00049005
-0.000335908
-0.000162486
2.99535e-05
0.000240995
0.000470048
0.000716331
0.000978849
0.00125638
0.00154745
0.00185036
0.00216315
0.00248361
0.00280929
0.00313752
0.00346544
0.00379003
0.00410813
0.00441649
0.00471186
0.004991
0.00525077
0.00548817
0.00570043
0.0058851
0.00604003
0.00616354
0.00625437
0.00631179
0.00633563
0.00632627
0.00628468
0.00621239
0.00611152
0.0059847
0.00583504
0.00566612
0.00548186
0.00528649
0.00508447
0.00488041
0.00467894
0.0044847
0.00430221
0.0041358
0.00398956
0.00386731
0.00377283
0.00370962
0.00367615
0.00110601
0.000943519
0.000762395
0.0005902
0.000422129
0.000257711
9.89575e-05
-5.22161e-05
-0.000194203
-0.000325595
-0.000445173
-0.000551913
-0.000644967
-0.000723635
-0.000787339
-0.000835593
-0.000867981
-0.00088413
-0.000883697
-0.00086636
-0.00083181
-0.000779752
-0.000709908
-0.000622031
-0.000515914
-0.00039141
-0.000248448
-8.70573e-05
9.26112e-05
0.000290262
0.00050543
0.000737463
0.000985498
0.00124844
0.00152497
0.0018135
0.00211218
0.00241894
0.00273144
0.0030471
0.00336315
0.00367665
0.00398449
0.00428348
0.0045704
0.00484202
0.00509519
0.00532694
0.00553445
0.00571523
0.00586712
0.00598836
0.00607765
0.00613419
0.00615775
0.00614864
0.00610774
0.00603653
0.005937
0.00581171
0.00566366
0.00549628
0.00531336
0.00511893
0.00491727
0.00471273
0.0045097
0.0043125
0.00412535
0.00395223
0.00379689
0.00366281
0.00355298
0.00346937
0.00341464
0.00135096
0.0011549
0.000942134
0.000747191
0.000562685
0.000386597
0.00022011
6.43645e-05
-7.97832e-05
-0.000211599
-0.000330457
-0.000435839
-0.00052733
-0.00060459
-0.000667336
-0.000715315
-0.000748291
-0.000766023
-0.000768262
-0.000754736
-0.00072516
-0.000679231
-0.000616642
-0.000537092
-0.000440304
-0.000326042
-0.000194137
-4.45044e-05
0.000122824
0.000307682
0.000509739
0.000728477
0.000963172
0.00121287
0.00147637
0.00175221
0.00203869
0.00233382
0.00263535
0.00294081
0.00324748
0.00355246
0.0038527
0.00414501
0.00442616
0.00469291
0.00494209
0.00517064
0.00537572
0.00555474
0.00570546
0.00582604
0.00591507
0.00597169
0.00599555
0.00598687
0.00594645
0.00587566
0.00577643
0.00565119
0.00550287
0.00533477
0.00515057
0.00495417
0.00474969
0.0045413
0.00433319
0.00412947
0.00393411
0.00375082
0.00358311
0.00343418
0.00330629
0.00319991
0.00312219
0.00158812
0.00135852
0.00111362
0.000894865
0.000692472
0.000503016
0.000326948
0.000164713
1.64789e-05
-0.000117649
-0.0002376
-0.000343345
-0.000434886
-0.000512237
-0.000575405
-0.000624371
-0.00065908
-0.000679428
-0.000685257
-0.000676354
-0.000652453
-0.000613245
-0.000558387
-0.000487524
-0.000400301
-0.00029639
-0.000175512
-3.74655e-05
0.00011785
0.000290402
0.000480003
0.000686276
0.000908639
0.00114628
0.00139812
0.00166285
0.00193885
0.00222425
0.00251689
0.00281436
0.00311399
0.00341291
0.00370807
0.00399629
0.00427429
0.00453878
0.00478652
0.00501436
0.00521936
0.00539881
0.00555036
0.00567203
0.00576231
0.00582018
0.00584518
0.00583741
0.00579756
0.00572691
0.00562727
0.00550099
0.00535091
0.00518024
0.00499257
0.00479171
0.00458165
0.00436646
0.00415019
0.0039368
0.00373007
0.00353356
0.0033506
0.00318421
0.00303601
0.00290509
0.00280321
0.00181022
0.00154747
0.00127045
0.00102736
0.00080618
0.000602191
0.000415195
0.000245003
9.11515e-05
-4.68408e-05
-0.000169428
-0.000277042
-0.000370084
-0.000448909
-0.000513803
-0.000564979
-0.000602557
-0.000626568
-0.000636943
-0.000633521
-0.000616057
-0.00058423
-0.00053766
-0.000475929
-0.0003986
-0.000305245
-0.000195469
-6.89434e-05
7.45694e-05
0.000235182
0.000412853
0.000607357
0.000818258
0.00104488
0.00128631
0.00154132
0.00180843
0.00208586
0.00237153
0.00266308
0.00295788
0.00325308
0.00354562
0.00383225
0.00410967
0.00437449
0.00462335
0.00485301
0.00506036
0.00524256
0.00539708
0.0055218
0.00561501
0.00567557
0.00570283
0.00569676
0.00565792
0.00558745
0.00548707
0.00535905
0.00520611
0.00503142
0.00483849
0.00463106
0.00441307
0.0041885
0.00396135
0.00373549
0.00351461
0.00330217
0.00310142
0.0029153
0.00274487
0.002588
0.00246113
0.00201068
0.00171545
0.00140666
0.00113911
0.000898663
0.0006794
0.000480531
0.000301288
0.000140619
-2.50543e-06
-0.000129031
-0.000239825
-0.00033567
-0.000417242
-0.000485097
-0.000539663
-0.000581235
-0.000609964
-0.000625868
-0.000628834
-0.000618629
-0.000594916
-0.000557272
-0.000505209
-0.000438202
-0.000355714
-0.000257228
-0.00014228
-1.04856e-05
0.000138418
0.000304547
0.000487831
0.000687989
0.000904497
0.00113657
0.00138312
0.00164277
0.00191383
0.00219431
0.00248189
0.00277396
0.00306768
0.00335994
0.00364747
0.00392684
0.00419458
0.00444719
0.00468125
0.0048935
0.00508091
0.00524074
0.00537066
0.00546877
0.00553372
0.00556467
0.00556142
0.00552437
0.00545451
0.00535345
0.00522334
0.00506684
0.00488705
0.00468744
0.00447171
0.00424378
0.00400762
0.00376721
0.0035264
0.00328888
0.00305808
0.00283726
0.00262938
0.00243506
0.00225106
0.00209854
0.00218352
0.00185661
0.00151666
0.00122481
0.000964943
0.000729996
0.000518634
0.000329549
0.000161138
1.18574e-05
-0.000119702
-0.00023482
-0.000334635
-0.000420128
-0.000492109
-0.000551211
-0.000597885
-0.000632399
-0.000654846
-0.000665152
-0.000663091
-0.000648301
-0.000620306
-0.000578545
-0.000522394
-0.000451201
-0.000364319
-0.000261137
-0.000141119
-3.84025e-06
0.000150978
0.000323432
0.000513401
0.000720516
0.000944132
0.0011833
0.00143676
0.00170292
0.00197984
0.00226526
0.0025566
0.00285098
0.00314527
0.00343611
0.00371998
0.00399325
0.00425228
0.00449345
0.00471329
0.00490854
0.00507622
0.00521376
0.00531901
0.00539037
0.00542678
0.00542783
0.00539372
0.00532527
0.00522396
0.00509182
0.00493144
0.00474586
0.00453851
0.00431311
0.00407357
0.00382392
0.00356816
0.00331021
0.0030538
0.00280245
0.00255949
0.00232799
0.00210826
0.00189603
0.00171725
0.00232316
0.00196551
0.00159515
0.00127941
0.00100021
0.000749429
0.00052521
0.000325738
0.000148886
-7.37404e-06
-0.00014489
-0.000265329
-0.000370167
-0.00046067
-0.000537884
-0.000602632
-0.000655509
-0.000696887
-0.000726922
-0.000745571
-0.000752603
-0.000747623
-0.000730097
-0.000699376
-0.000654734
-0.000595393
-0.000520565
-0.000429486
-0.000321458
-0.000195886
-5.23168e-05
0.000109519
0.000289672
0.000487937
0.000703822
0.000936518
0.00118488
0.00144742
0.00172227
0.00200721
0.00229968
0.00259679
0.00289534
0.0031919
0.0034828
0.00376428
0.00403249
0.0042836
0.00451388
0.00471981
0.00489814
0.00504598
0.00516092
0.00524106
0.00528507
0.00529227
0.00526264
0.00519682
0.0050961
0.00496239
0.0047982
0.00460651
0.00439074
0.00415463
0.00390215
0.0036374
0.00336448
0.00308742
0.00281011
0.00253618
0.00226917
0.00201231
0.0017657
0.00152413
0.0013184
0.00242438
0.00203699
0.00163715
0.00129807
0.000999825
0.000733258
0.00049602
0.000285809
9.99996e-05
-6.38991e-05
-0.000208151
-0.00033479
-0.000445608
-0.000542137
-0.000625645
-0.000697125
-0.000757302
-0.000806639
-0.000845345
-0.000873394
-0.00089054
-0.000896345
-0.000890206
-0.000871382
-0.000839028
-0.000792235
-0.000730065
-0.000651591
-0.00055594
-0.000442338
-0.000310147
-0.000158912
1.15983e-05
0.000201354
0.000410025
0.000636955
0.000881127
0.00114115
0.00141525
0.00170126
0.00199662
0.00229842
0.00260342
0.00290806
0.00320856
0.00350096
0.00378121
0.00404522
0.00428898
0.00450867
0.0047007
0.00486186
0.00498938
0.00508104
0.00513517
0.00515081
0.00512765
0.00506609
0.00496724
0.00483285
0.00466533
0.00446761
0.00424311
0.0039956
0.00372915
0.00344797
0.00315632
0.00285843
0.00255836
0.00225998
0.00196708
0.00168317
0.00140819
0.00113609
0.000902585
0.00248223
0.00206621
0.00163789
0.00127616
0.000959306
0.00067716
0.000426901
0.000205752
1.0612e-05
-0.000161455
-0.000313109
-0.000446731
-0.000564409
-0.000667927
-0.000758751
-0.000838034
-0.000906615
-0.000965032
-0.00101353
-0.0010521
-0.00108046
-0.00109812
-0.0011044
-0.00109845
-0.00107931
-0.00104591
-0.000997173
-0.000931984
-0.000849291
-0.000748124
-0.000627651
-0.000487218
-0.000326399
-0.000145037
5.67189e-05
0.000278371
0.000519047
0.000777475
0.00105197
0.00134041
0.00164029
0.00194865
0.00226219
0.00257726
0.00288993
0.00319604
0.00349129
0.00377132
0.00403181
0.00426858
0.00447768
0.0046555
0.00479888
0.0049052
0.00497243
0.00499924
0.00498499
0.00492981
0.00483456
0.00470084
0.00453091
0.00432766
0.00409449
0.00383526
0.00355412
0.00325547
0.00294377
0.00262349
0.00229897
0.00197436
0.0016538
0.00134114
0.00103625
0.000732268
0.00046997
0.00249205
0.00204854
0.00159285
0.00120927
0.000874343
0.000576946
0.000313783
8.16176e-05
-0.000123116
-0.00030378
-0.000463414
-0.000604727
-0.000730091
-0.000841518
-0.000940662
-0.00102881
-0.00110692
-0.00117557
-0.00123504
-0.00128531
-0.00132607
-0.00135676
-0.00137661
-0.00138465
-0.0013798
-0.00136082
-0.00132647
-0.00127544
-0.0012065
-0.00111846
-0.00101027
-0.000881084
-0.000730252
-0.000557414
-0.000362527
-0.000145907
9.17322e-05
0.000349254
0.000625076
0.000917159
0.00122301
0.00153967
0.00186379
0.0021916
0.00251901
0.00284166
0.00315498
0.00345433
0.00373501
0.00399245
0.00422229
0.00442049
0.00458342
0.004708
0.00479177
0.00483298
0.0048306
0.00478442
0.00469504
0.00456381
0.00439287
0.00418501
0.00394366
0.00367273
0.00337653
0.00305964
0.0027268
0.00238276
0.00203221
0.00167968
0.0013297
0.000986564
0.00065011
0.0003127
2.03632e-05
0.00244935
0.00197957
0.0014977
0.00109314
0.000740793
0.000428568
0.000152712
-9.04596e-05
-0.000304965
-0.000494579
-0.000662705
-0.000812367
-0.0009462
-0.00106643
-0.00117489
-0.00127299
-0.00136175
-0.00144183
-0.00151351
-0.00157675
-0.00163119
-0.0016762
-0.0017109
-0.00173421
-0.00174487
-0.00174153
-0.00172272
-0.00168695
-0.00163278
-0.00155879
-0.00146373
-0.00134649
-0.00120622
-0.00104231
-0.000854521
-0.000642962
-0.000408165
-0.000151111
0.000126743
0.000423448
0.000736555
0.00106312
0.00139973
0.00174252
0.00208724
0.00242931
0.00276389
0.00308599
0.00339054
0.00367254
0.00392715
0.00414983
0.00433643
0.00448336
0.00458764
0.00464701
0.00466002
0.00462604
0.00454532
0.00441897
0.00424892
0.00403789
0.00378928
0.00350708
0.00319577
0.00286017
0.00250532
0.00213634
0.00175832
0.00137622
0.000995064
0.000619648
0.000249835
-0.000122783
-0.000446671
0.00234987
0.00185512
0.00134833
0.000923756
0.000554691
0.000228134
-6.01315e-05
-0.000314232
-0.000538626
-0.000737489
-0.000914574
-0.00107321
-0.00121627
-0.0013462
-0.00146496
-0.0015741
-0.0016747
-0.00176745
-0.00185265
-0.0019302
-0.00199971
-0.00206044
-0.00211142
-0.00215142
-0.00217904
-0.00219272
-0.00219083
-0.00217166
-0.00213352
-0.0020748
-0.00199397
-0.00188968
-0.00176083
-0.00160657
-0.00142642
-0.00122025
-0.000988402
-0.000731665
-0.000451346
-0.00014928
0.000172156
0.000510041
0.000860923
0.00122085
0.00158542
0.00194981
0.00230892
0.00265737
0.0029897
0.00330042
0.00358417
0.00383584
0.00405072
0.0042246
0.00435391
0.00443581
0.00446833
0.00445035
0.00438172
0.00426322
0.00409655
0.0038843
0.00362983
0.00333724
0.00301116
0.00265669
0.00227921
0.00188428
0.00147745
0.00106418
0.000650076
0.000240491
-0.000164636
-0.000574497
-0.000931732
0.00218958
0.00167121
0.00114082
0.000697264
0.00031226
-2.80746e-05
-0.000328412
-0.000593314
-0.000827671
-0.00103605
-0.00122253
-0.00139073
-0.00154378
-0.00168429
-0.00181437
-0.00193567
-0.00204933
-0.00215606
-0.00225615
-0.00234947
-0.00243554
-0.00251354
-0.00258237
-0.00264066
-0.00268684
-0.00271917
-0.0027358
-0.00273481
-0.00271426
-0.00267228
-0.0026071
-0.00251708
-0.00240085
-0.0022573
-0.00208565
-0.00188556
-0.0016571
-0.00140085
-0.00111795
-0.000810067
-0.000479489
-0.000129088
0.000237675
0.000616771
0.00100364
0.00139327
0.00178021
0.00215876
0.00252297
0.00286686
0.00318449
0.00347012
0.00371837
0.00392435
0.00408381
0.00419326
0.00425007
0.00425258
0.00420014
0.00409312
0.00393295
0.00372202
0.00346366
0.00316201
0.00282192
0.00244875
0.00204832
0.00162662
0.00118976
0.000743777
0.00029491
-0.000150834
-0.000593412
-0.00104282
-0.0014355
0.00196462
0.00142406
0.000871502
0.00041004
9.92741e-06
-0.000343585
-0.000655618
-0.000931162
-0.00117553
-0.00139365
-0.00158996
-0.00176833
-0.00193211
-0.0020841
-0.00222654
-0.00236115
-0.00248914
-0.00261122
-0.00272766
-0.00283829
-0.00294254
-0.00303949
-0.00312791
-0.00320627
-0.00327283
-0.00332565
-0.00336266
-0.00338169
-0.00338057
-0.00335713
-0.00330933
-0.00323525
-0.00313319
-0.00300176
-0.00283989
-0.00264692
-0.00242267
-0.00216746
-0.0018822
-0.00156838
-0.00122816
-0.000864311
-0.000480287
-8.01663e-05
0.000331364
0.000749064
0.00116721
0.00157968
0.00198009
0.00236187
0.00271846
0.00304342
0.00333065
0.00357447
0.00376986
0.00391254
0.00399917
0.0040274
0.00399599
0.00390483
0.00375497
0.00354858
0.00328889
0.00298008
0.00262718
0.00223591
0.00181246
0.00136341
0.000895435
0.000415236
-7.02313e-05
-0.000554233
-0.00103659
-0.00152814
-0.00195866
0.0016714
0.00111016
0.000536909
5.86854e-05
-0.000355663
-0.000721717
-0.00104504
-0.00133104
-0.00158544
-0.00181355
-0.0020201
-0.00220923
-0.00238452
-0.0025489
-0.00270476
-0.00285389
-0.00299753
-0.0031364
-0.00327074
-0.00340032
-0.00352449
-0.00364222
-0.00375212
-0.00385252
-0.00394149
-0.00401687
-0.00407635
-0.00411754
-0.00413798
-0.00413521
-0.00410689
-0.00405076
-0.00396483
-0.00384734
-0.00369691
-0.00351254
-0.00329373
-0.00304051
-0.00275353
-0.00243404
-0.00208402
-0.00170613
-0.00130374
-0.000880972
-0.000442602
5.92877e-06
0.000458603
0.000908909
0.00134995
0.00177459
0.00217556
0.00254569
0.00287802
0.00316603
0.00340378
0.00358613
0.00370887
0.00376886
0.00376415
0.00369404
0.0035591
0.0033612
0.00310342
0.00278995
0.00242601
0.00201763
0.0015715
0.00109474
0.000594724
7.88729e-05
-0.000445056
-0.000969519
-0.00149417
-0.00203075
-0.00250181
0.00130655
0.00072622
0.000133831
-0.000359958
-0.000787629
-0.00116556
-0.00149974
-0.001796
-0.00206045
-0.00229877
-0.00251598
-0.00271649
-0.00290405
-0.00308178
-0.00325216
-0.00341704
-0.00357771
-0.00373489
-0.00388876
-0.00403905
-0.004185
-0.00432546
-0.00445892
-0.00458351
-0.00469712
-0.00479736
-0.00488171
-0.00494747
-0.00499192
-0.00501229
-0.00500588
-0.00497014
-0.00490267
-0.00480138
-0.00466448
-0.00449063
-0.00427896
-0.00402916
-0.00374154
-0.0034171
-0.00305755
-0.00266539
-0.0022439
-0.00179714
-0.00132999
-0.000848037
-0.000357588
0.000134457
0.000620693
0.00109335
0.00154445
0.00196597
0.00235005
0.00268919
0.00297645
0.00320568
0.00337166
0.00347034
0.00349889
0.0034559
0.00334137
0.00315675
0.0029049
0.00258998
0.00221736
0.00179339
0.00132528
0.00082078
0.000287981
-0.000264871
-0.000829131
-0.00139636
-0.00196601
-0.00255079
-0.00306544
0.000866971
0.000269219
-0.000340675
-0.000848783
-0.00128883
-0.00167794
-0.00202253
-0.00232884
-0.00260337
-0.00285212
-0.00308043
-0.00329292
-0.00349356
-0.00368561
-0.00387163
-0.00405356
-0.0042327
-0.00440976
-0.00458488
-0.00475772
-0.00492743
-0.00509274
-0.00525197
-0.0054031
-0.00554379
-0.00567145
-0.00578328
-0.00587633
-0.00594756
-0.00599387
-0.00601222
-0.00599967
-0.00595345
-0.00587104
-0.00575027
-0.00558935
-0.00538701
-0.00514255
-0.00485588
-0.00452768
-0.00415936
-0.00375317
-0.00331223
-0.00284054
-0.00234296
-0.00182525
-0.00129394
-0.000756315
-0.000220299
0.000305695
0.000812909
0.00129243
0.0017354
0.00213324
0.00247788
0.002762
0.00297924
0.00312445
0.00319381
0.00318501
0.00309734
0.00293173
0.0026907
0.00237832
0.00200006
0.00156263
0.00107372
0.000541778
-2.43017e-05
-0.000615381
-0.00122183
-0.00183422
-0.00245175
-0.00308819
-0.00364976
0.000349869
-0.000263567
-0.000889266
-0.0014104
-0.00186184
-0.00226142
-0.00261597
-0.00293211
-0.00321673
-0.00347614
-0.00371598
-0.00394109
-0.00415563
-0.00436297
-0.00456581
-0.00476611
-0.0049652
-0.00516378
-0.00536195
-0.00555929
-0.00575485
-0.00594724
-0.00613462
-0.00631479
-0.00648522
-0.00664307
-0.00678528
-0.00690862
-0.0070097
-0.00708511
-0.00713143
-0.0071453
-0.00712354
-0.00706318
-0.00696159
-0.00681653
-0.00662626
-0.0063896
-0.00610604
-0.00577583
-0.00540003
-0.00498058
-0.00452036
-0.00402322
-0.00349399
-0.00293849
-0.00236348
-0.0017766
-0.00118626
-0.00060155
-3.20305e-05
0.000512432
0.0010219
0.00148659
0.00189718
0.00224502
0.00252246
0.00272305
0.00284179
0.00287532
0.00282204
0.00268219
0.00245785
0.0021529
0.00177286
0.00132474
0.000816776
0.000258125
-0.000341447
-0.000971817
-0.00162227
-0.00228227
-0.00295075
-0.00364259
-0.00425474
-0.000247245
-0.000874551
-0.00151429
-0.00204712
-0.00250894
-0.00291825
-0.00328229
-0.00360805
-0.00390276
-0.00417308
-0.00442488
-0.00466325
-0.00489251
-0.00511616
-0.00533699
-0.00555702
-0.00577758
-0.00599937
-0.00622245
-0.0064463
-0.00666991
-0.00689172
-0.00710977
-0.00732167
-0.00752466
-0.00771569
-0.00789142
-0.00804831
-0.00818265
-0.00829066
-0.00836852
-0.00841245
-0.0084188
-0.00838413
-0.00830531
-0.00817957
-0.00800465
-0.00777884
-0.00750113
-0.00717128
-0.0067899
-0.00635855
-0.00587978
-0.00535722
-0.00479559
-0.00420072
-0.00357953
-0.00293996
-0.00229092
-0.00164214
-0.00100402
-0.00038743
0.000196523
0.000736769
0.00122256
0.0016438
0.0019913
0.00225716
0.00243499
0.00252014
0.00250993
0.00240374
0.00220306
0.00191143
0.00153438
0.00107914
0.000554499
-2.96346e-05
-0.000662554
-0.00133307
-0.00202925
-0.00273935
-0.00346199
-0.00421325
-0.00487995
-0.000926514
-0.00156581
-0.00221777
-0.00276091
-0.00323209
-0.00365039
-0.00402344
-0.00435858
-0.0046634
-0.00494485
-0.00520906
-0.00546132
-0.00570612
-0.00594709
-0.0061871
-0.00642822
-0.00667181
-0.00691853
-0.00716841
-0.00742087
-0.00767477
-0.00792846
-0.0081798
-0.00842623
-0.0086648
-0.00889219
-0.00910479
-0.00929876
-0.00947004
-0.00961447
-0.00972781
-0.00980583
-0.00984439
-0.00983953
-0.00978756
-0.00968514
-0.00952943
-0.00931814
-0.00904966
-0.00872319
-0.00833879
-0.00789755
-0.00740162
-0.00685431
-0.00626013
-0.00562485
-0.00495545
-0.00426014
-0.00354828
-0.00283022
-0.00211721
-0.00142117
-0.000754422
-0.000129452
0.000441451
0.000946531
0.00137492
0.00171701
0.00196477
0.00211206
0.00215487
0.0020915
0.00192264
0.00165139
0.00128309
0.000825214
0.000287026
-0.000320765
-0.000986454
-0.00169768
-0.00244119
-0.00320389
-0.00398403
-0.00479898
-0.00552449
-0.00168972
-0.00233906
-0.00300136
-0.00355342
-0.0040329
-0.00445942
-0.00484099
-0.00518529
-0.00550021
-0.00579301
-0.00607004
-0.00633682
-0.00659797
-0.00685727
-0.00711764
-0.00738122
-0.00764937
-0.00792276
-0.00820135
-0.00848452
-0.00877103
-0.0090591
-0.00934646
-0.00963035
-0.00990762
-0.0101747
-0.0104277
-0.0106625
-0.0108747
-0.0110597
-0.0112128
-0.0113293
-0.0114045
-0.0114341
-0.0114135
-0.011339
-0.011207
-0.0110145
-0.0107592
-0.0104398
-0.0100557
-0.00960732
-0.00909635
-0.00852567
-0.00789948
-0.00722337
-0.00650434
-0.00575076
-0.00497236
-0.0041801
-0.00338606
-0.00260321
-0.00184517
-0.00112593
-0.000459457
0.000140672
0.000661681
0.00109202
0.00142176
0.00164299
0.00175011
0.00174007
0.00161255
0.00136996
0.00101737
0.000562348
1.4622e-05
-0.000614303
-0.00131166
-0.00206381
-0.00285606
-0.00367382
-0.0045149
-0.00539805
-0.00618692
-0.00253823
-0.00319564
-0.00386637
-0.00442592
-0.00491262
-0.0053466
-0.00573618
-0.00608938
-0.00641439
-0.00671873
-0.00700899
-0.00729088
-0.00756917
-0.00784775
-0.00812963
-0.00841699
-0.00871123
-0.00901298
-0.00932221
-0.0096382
-0.00995963
-0.0102846
-0.0106107
-0.0109351
-0.0112543
-0.0115645
-0.0118617
-0.0121412
-0.0123984
-0.0126283
-0.0128257
-0.0129855
-0.0131024
-0.0131713
-0.0131872
-0.0131456
-0.0130423
-0.0128735
-0.0126363
-0.0123284
-0.0119485
-0.0114965
-0.0109734
-0.0103815
-0.00972463
-0.00900807
-0.00823868
-0.00742494
-0.00657685
-0.00570592
-0.004825
-0.00394813
-0.00309026
-0.00226696
-0.001494
-0.000786965
-0.00016075
0.000370898
0.000795878
0.00110418
0.00128831
0.00134357
0.00126834
0.0010641
0.000735471
0.00028996
-0.000262299
-0.000909014
-0.0016363
-0.00242917
-0.00327131
-0.00414649
-0.00505202
-0.00600809
-0.00686517
-0.00347303
-0.0041365
-0.00481372
-0.0053793
-0.00587215
-0.00631279
-0.00670987
-0.00707169
-0.00740674
-0.00772278
-0.00802663
-0.00832416
-0.00862032
-0.00891908
-0.00922356
-0.00953597
-0.00985775
-0.0101895
-0.0105312
-0.0108821
-0.0112408
-0.0116052
-0.0119728
-0.0123407
-0.012705
-0.013062
-0.013407
-0.0137354
-0.014042
-0.0143213
-0.0145679
-0.0147759
-0.0149396
-0.0150532
-0.0151112
-0.0151082
-0.0150391
-0.0148995
-0.0146856
-0.0143943
-0.0140235
-0.0135722
-0.0130407
-0.0124307
-0.0117454
-0.0109896
-0.0101699
-0.00929495
-0.00837474
-0.00742126
-0.0064481
-0.00547031
-0.00450421
-0.00356698
-0.00267633
-0.00184999
-0.00110522
-0.000458223
7.6418e-05
0.00048627
0.000761568
0.000895635
0.000885195
0.000730539
0.000435544
7.51391e-06
-0.000543131
-0.00120334
-0.00195809
-0.00279092
-0.00368377
-0.00461858
-0.00559209
-0.00662601
-0.00755638
-0.00449467
-0.00516215
-0.00584391
-0.00641408
-0.00691198
-0.00735849
-0.00776252
-0.00813266
-0.00847766
-0.00880551
-0.00912324
-0.00943689
-0.00975154
-0.0100713
-0.0103994
-0.010738
-0.0110887
-0.011452
-0.011828
-0.0122157
-0.0126138
-0.0130201
-0.013432
-0.0138462
-0.0142591
-0.0146662
-0.015063
-0.0154443
-0.0158046
-0.0161382
-0.0164388
-0.0167004
-0.0169164
-0.0170805
-0.0171864
-0.0172279
-0.0171992
-0.0170949
-0.0169103
-0.0166414
-0.0162852
-0.0158398
-0.0153046
-0.0146803
-0.0139697
-0.0131768
-0.0123081
-0.0113717
-0.0103778
-0.0093387
-0.00826861
-0.00718355
-0.00610113
-0.00504023
-0.00402057
-0.00306219
-0.0021849
-0.00140763
-0.000747791
-0.000220605
0.00016151
0.000389479
0.000457993
0.000365778
0.00011568
-0.000285442
-0.000827034
-0.00149536
-0.00227422
-0.00314561
-0.00408957
-0.00508601
-0.00613099
-0.00724784
-0.00825686
-0.00560323
-0.00627271
-0.00695707
-0.00753038
-0.00803224
-0.0084838
-0.00889422
-0.00927233
-0.00962713
-0.00996683
-0.0102986
-0.0106288
-0.0109624
-0.0113039
-0.0116564
-0.0120222
-0.012403
-0.0127993
-0.0132111
-0.0136375
-0.0140771
-0.0145276
-0.0149864
-0.0154499
-0.0159143
-0.0163752
-0.0168275
-0.0172659
-0.0176844
-0.0180769
-0.0184367
-0.0187572
-0.0190312
-0.0192517
-0.0194116
-0.019504
-0.0195222
-0.0194598
-0.0193111
-0.0190711
-0.0187358
-0.0183023
-0.0177688
-0.0171353
-0.0164034
-0.0155768
-0.014661
-0.0136641
-0.0125961
-0.0114693
-0.0102985
-0.00910054
-0.0078943
-0.00670034
-0.00554046
-0.00443713
-0.00341292
-0.00248975
-0.00168818
-0.00102663
-0.000520587
-0.000181997
-1.86488e-05
-3.38101e-05
-0.000226036
-0.000589217
-0.00111287
-0.00178268
-0.0025813
-0.00348907
-0.00448401
-0.00554378
-0.00666366
-0.00786863
-0.00896186
-0.00679837
-0.00746785
-0.00815291
-0.00872793
-0.00923266
-0.00968844
-0.0101046
-0.0104903
-0.0108547
-0.0112062
-0.0115521
-0.011899
-0.012252
-0.0126157
-0.0129932
-0.0133872
-0.013799
-0.0142295
-0.0146786
-0.0151453
-0.0156282
-0.0161251
-0.016633
-0.0171486
-0.0176676
-0.0181855
-0.018697
-0.0191964
-0.0196775
-0.0201336
-0.0205578
-0.0209426
-0.0212803
-0.0215634
-0.0217837
-0.0219336
-0.0220055
-0.021992
-0.0218863
-0.0216823
-0.0213749
-0.0209599
-0.0204345
-0.0197976
-0.0190497
-0.0181936
-0.0172341
-0.0161788
-0.0150374
-0.013822
-0.0125478
-0.0112323
-0.00989555
-0.00855978
-0.00724885
-0.00598778
-0.00480204
-0.00371683
-0.00275617
-0.00194208
-0.00129361
-0.000826069
-0.000550246
-0.000471903
-0.000591451
-0.000903903
-0.00139912
-0.00206239
-0.00287524
-0.00381634
-0.00486149
-0.00598591
-0.00718394
-0.00848232
-0.00966553
-0.00807928
-0.00874684
-0.00943072
-0.0100061
-0.0105126
-0.0109718
-0.0113931
-0.0117859
-0.0121595
-0.0125226
-0.0128826
-0.0132462
-0.0136188
-0.0140049
-0.014408
-0.0148306
-0.0152743
-0.0157399
-0.0162273
-0.0167357
-0.0172636
-0.0178086
-0.0183679
-0.0189379
-0.0195143
-0.0200923
-0.0206665
-0.0212307
-0.0217786
-0.022303
-0.0227964
-0.0232508
-0.0236581
-0.0240097
-0.024297
-0.0245113
-0.0246439
-0.0246865
-0.0246313
-0.0244709
-0.0241989
-0.0238099
-0.0232998
-0.0226663
-0.0219086
-0.0210284
-0.0200297
-0.0189194
-0.0177065
-0.016403
-0.0150241
-0.0135876
-0.0121147
-0.0106293
-0.00915713
-0.00772593
-0.00636416
-0.0051005