/*--------------------------------*- C++ -*----------------------------------*\
  =========                 |
  \\      /  F ield         | OpenFOAM: The Open Source CFD Toolbox
   \\    /   O peration     | Website:  https://openfoam.org
    \\  /    A nd           | Version:  12
     \\/     M anipulation  |
\*---------------------------------------------------------------------------*/
FoamFile
{
    format      ascii;
    class       volScalarField;
    location    "2";
    object      p;
}
// * * * * * * * * * * * * * * * * * * * * * * * * * * * * * * * * * * * * * //

dimensions      [0 2 -2 0 0 0 0];

internalField   nonuniform List<scalar> 
900
(
3.64578e-08
-0.0330941
-0.066779
-0.0855714
-0.0833268
-0.0591201
-0.0149059
0.0461832
0.120782
0.205806
0.298675
0.397382
0.500447
0.606833
0.715799
0.826799
0.939361
1.05279
1.16615
1.27801
1.38626
1.48801
1.57951
1.65631
1.71362
1.7471
1.75416
1.73594
1.69978
1.66343
0.00613635
-0.0226844
-0.0508358
-0.0655211
-0.0613658
-0.0371674
0.00565863
0.0645268
0.136519
0.218867
0.309184
0.405551
0.506503
0.610954
0.718079
0.827241
0.937842
1.04908
1.15994
1.26894
1.374
1.47234
1.56047
1.63434
1.68971
1.7229
1.73193
1.7182
1.68818
1.6566
0.0172591
-0.0103295
-0.0344599
-0.0454542
-0.039391
-0.0150428
0.0265719
0.0833502
0.152801
0.232473
0.320184
0.414118
0.51283
0.615201
0.720329
0.827499
0.935974
1.04488
1.15311
1.25917
1.36102
1.45601
1.54093
1.6121
1.6658
1.69892
1.7099
1.70017
1.67458
1.6444
0.0309109
0.00123569
-0.0217092
-0.0305245
-0.0230572
0.00161583
0.0425773
0.0979898
0.165647
0.243334
0.329034
0.421024
0.517891
0.618503
0.72192
0.827364
0.934016
1.04096
1.14707
1.25082
1.35025
1.44284
1.52558
1.59509
1.64795
1.68133
1.69377
1.68637
1.66203
1.6296
0.044542
0.0110013
-0.0125821
-0.0202913
-0.0117842
0.0133714
0.0541518
0.108817
0.175331
0.251642
0.335864
0.426355
0.521744
0.6209
0.722872
0.826837
0.931951
1.03728
1.14168
1.24369
1.34138
1.43239
1.51385
1.58257
1.63531
1.66929
1.68289
1.67666
1.65158
1.61495
0.0562639
0.018068
-0.00711431
-0.014315
-0.00493132
0.0208955
0.0619072
0.116347
0.182261
0.257711
0.340908
0.430285
0.524511
0.622475
0.723228
0.825934
0.929746
1.03374
1.13679
1.23748
1.334
1.42408
1.50499
1.57366
1.6269
1.66185
1.67658
1.67093
1.64409
1.60242
0.0646327
0.0214804
-0.00577186
-0.0127477
-0.0024804
0.0242777
0.0659474
0.12067
0.186508
0.261588
0.344196
0.432829
0.526202
0.623234
0.722994
0.824653
0.927388
1.0303
1.13232
1.23211
1.32795
1.41769
1.49872
1.56803
1.62242
1.65881
1.67482
1.66957
1.64049
1.59347
0.0684563
0.0203277
-0.00914357
-0.0159274
-0.00460335
0.0234429
0.0662471
0.121782
0.188073
0.263275
0.34573
0.433989
0.52682
0.62318
0.722172
0.822998
0.924873
1.02696
1.12825
1.2275
1.32313
1.4131
1.49489
1.56554
1.62175
1.66016
1.67782
1.67306
1.64166
1.58929
0.0667038
0.0137634
-0.0178248
-0.0242152
-0.0114849
0.0183229
0.0628062
0.119718
0.187005
0.262824
0.345557
0.433808
0.526399
0.622343
0.720787
0.820981
0.922202
1.02368
1.12452
1.2236
1.31945
1.41017
1.49335
1.56605
1.62481
1.66594
1.68582
1.68192
1.6484
1.59087
0.0584401
0.00097607
-0.0324179
-0.0379829
-0.0233084
0.00886831
0.0556595
0.114559
0.183402
0.260335
0.34377
0.432367
0.525013
0.620782
0.718883
0.818631
0.919384
1.02047
1.12112
1.22033
1.31679
1.40876
1.49395
1.56941
1.63154
1.67621
1.6991
1.69671
1.66149
1.59913
0.0427624
-0.0188455
-0.0535455
-0.0576163
-0.0402547
-0.00494981
0.0448762
0.106426
0.177411
0.255954
0.340506
0.42979
0.522774
0.618587
0.716527
0.815998
0.916455
1.01734
1.11801
1.21763
1.31507
1.40876
1.49655
1.57551
1.64188
1.69109
1.71798
1.71801
1.68175
1.61498
0.0187342
-0.0465489
-0.0818615
-0.083509
-0.0624893
-0.023126
0.0305716
0.0954945
0.169227
0.249876
0.335943
0.426236
0.519796
0.615844
0.713787
0.813135
0.913448
1.01429
1.11518
1.21545
1.31419
1.41005
1.50101
1.58424
1.65581
1.71068
1.74282
1.74647
1.71004
1.63939
-0.0146853
-0.0830567
-0.118062
-0.116054
-0.0901439
-0.0456015
0.0129236
0.0820025
0.159105
0.242347
0.330303
0.421878
0.516218
0.612683
0.710779
0.810123
0.910403
1.01133
1.11259
1.21373
1.31407
1.41249
1.5072
1.59548
1.67329
1.73514
1.77402
1.78282
1.74736
1.6735
-0.0587251
-0.129412
-0.162897
-0.155632
-0.123297
-0.0722431
-0.00781082
0.066262
0.147365
0.233665
0.323846
0.416948
0.51226
0.609273
0.707621
0.807047
0.907378
1.00849
1.11024
1.21242
1.3146
1.41596
1.51497
1.60909
1.69427
1.76459
1.81202
1.82789
1.79485
1.71869
-0.114907
-0.18683
-0.217183
-0.2026
-0.161951
-0.10282
-0.0312774
0.048671
0.134399
0.224186
0.316884
0.411709
0.508123
0.605773
0.704435
0.803996
0.904433
1.00579
1.10812
1.21147
1.3157
1.42031
1.52414
1.62492
1.71866
1.79914
1.85726
1.88261
1.8539
1.7767
-0.185185
-0.256763
-0.281811
-0.257265
-0.205995
-0.136976
-0.057005
0.0297238
0.12067
0.214319
0.309759
0.406439
0.504029
0.602354
0.701354
0.801068
0.901629
1.00325
1.10622
1.21082
1.31724
1.42537
1.5345
1.64272
1.74632
1.83885
1.9102
1.94805
1.92618
1.84978
-0.272134
-0.340969
-0.357747
-0.319849
-0.255172
-0.174194
-0.0843852
0.010021
0.106719
0.204521
0.302846
0.401436
0.500209
0.599196
0.698512
0.798357
0.899023
1.00091
1.10451
1.21038
1.31908
1.43095
1.54576
1.66221
1.77698
1.8837
1.97127
2.02538
2.01369
1.9409
-0.37921
-0.44156
-0.446051
-0.39044
-0.309016
-0.213759
-0.11265
-0.00972351
0.0931586
0.195295
0.296544
0.397009
0.496899
0.596474
0.696035
0.795948
0.896664
0.998759
1.10295
1.21007
1.32107
1.43677
1.5576
1.68297
1.81026
1.93349
2.04079
2.11589
2.11893
2.05403
-0.511138
-0.561081
-0.547817
-0.468923
-0.366784
-0.254714
-0.14085
-0.0286784
0.0806694
0.187175
0.291259
0.393463
0.494324
0.594351
0.694038
0.793913
0.894583
0.996794
1.10148
1.20976
1.32298
1.44253
1.56957
1.70444
1.84555
1.98778
2.11899
2.22093
2.24487
2.19449
-0.674414
-0.702664
-0.664061
-0.554826
-0.427372
-0.2958
-0.167838
-0.0458963
0.069988
0.180713
0.287396
0.391087
0.492689
0.592969
0.692614
0.792306
0.892793
0.994985
1.10001
1.20929
1.32456
1.44783
1.5811
1.72588
1.882
2.04567
2.20585
2.34185
2.39515
2.36953
-0.878088
-0.870065
-0.795548
-0.64718
-0.48916
-0.335401
-0.192249
-0.0603233
0.0618879
0.176457
0.285336
0.390143
0.49217
0.592442
0.691829
0.791152
0.891284
0.993275
1.09844
1.20847
1.32551
1.45219
1.59151
1.74635
1.91841
2.10598
2.3005
2.47985
2.57409
2.58906
-1.13494
-1.06784
-0.942352
-0.744211
-0.549873
-0.371484
-0.212502
-0.0708195
0.0571528
0.17493
0.285416
0.390846
0.492897
0.592844
0.691717
0.790452
0.890019
0.991586
1.09662
1.20705
1.32544
1.45506
1.59995
1.76463
1.95319
2.16713
2.40117
2.63559
2.78671
2.86679
-1.46319
-1.30121
-1.10352
-0.842931
-0.606397
-0.401544
-0.226809
-0.0761934
0.0565404
0.176596
0.287913
0.39335
0.49495
0.594206
0.692276
0.790175
0.888936
0.989812
1.09439
1.2048
1.32396
1.45579
1.60542
1.77919
1.98418
2.22629
2.50536
2.80846
3.0382
3.222
-1.88902
-1.57525
-1.27621
-0.938822
-0.654606
-0.422591
-0.233227
-0.075264
0.060731
0.181825
0.293012
0.397733
0.498348
0.596512
0.693466
0.790262
0.88795
0.987831
1.09156
1.20141
1.32062
1.45367
1.60677
1.78824
2.00858
2.27946
2.60908
2.99564
3.33382
3.68203
-2.44861
-1.89376
-1.45472
-1.02489
-0.689215
-0.431231
-0.229782
-0.0669674
0.0702507
0.190843
0.300778
0.403981
0.503038
0.599694
0.695211
0.790628
0.886959
0.985513
1.08796
1.19662
1.31497
1.44796
1.60278
1.78971
2.02305
2.32154
2.70589
3.19152
3.67897
4.2835
-3.1894
-2.2564
-1.62884
-1.0915
-0.703734
-0.423784
-0.214614
-0.0504695
0.0854
0.203689
0.311135
0.411975
0.508894
0.603632
0.697404
0.791174
0.885855
0.982734
1.08341
1.19018
1.30662
1.43798
1.59224
1.78141
2.02366
2.34596
2.78582
3.38521
4.07304
5.07344
-4.20067
-2.65293
-1.77405
-1.12246
-0.6892
-0.39582
-0.185753
-0.0250129
0.106374
0.220317
0.323945
0.421555
0.515762
0.60819
0.699923
0.791786
0.884521
0.979373
1.07776
1.18185
1.29516
1.42303
1.5738
1.76077
2.0054
2.34319
2.83186
3.55231
4.50532
6.14154
-5.74619
-3.05876
-1.83308
-1.08721
-0.631545
-0.340948
-0.140341
0.0106505
0.133691
0.240909
0.339237
0.432683
0.523576
0.613286
0.702675
0.79233
0.882838
0.97526
1.07074
1.17119
1.27992
1.40198
1.54554
1.72415
1.96104
2.2983
2.81294
3.63608
4.95327
7.7566
-8.37803
-3.42499
-1.73012
-0.953626
-0.51909
-0.255163
-0.0771691
0.0567474
0.167252
0.26528
0.356822
0.44519
0.532195
0.618808
0.705562
0.792725
0.880755
0.970305
1.0622
1.15804
1.26063
1.37437
1.50652
1.66952
1.88566
2.19853
2.6958
3.55924
5.36686
10.4703
-12.0253
-3.63118
-1.53641
-0.781324
-0.391028
-0.164892
-0.0139973
0.101271
0.19885
0.287773
0.372795
0.456402
0.539835
0.623644
0.708033
0.792974
0.87876
0.965638
1.05416
1.14556
1.2421
1.34739
1.46753
1.6131
1.80372
2.08057
2.53613
3.3877
5.6132
14.1778
)
;

boundaryField
{
    movingWall
    {
        type            zeroGradient;
    }
    fixedWalls
    {
        type            zeroGradient;
    }
    frontAndBack
    {
        type            empty;
    }
}


// ************************************************************************* //
