/*--------------------------------*- C++ -*----------------------------------*\
  =========                 |
  \\      /  F ield         | OpenFOAM: The Open Source CFD Toolbox
   \\    /   O peration     | Website:  https://openfoam.org
    \\  /    A nd           | Version:  12
     \\/     M anipulation  |
\*---------------------------------------------------------------------------*/
FoamFile
{
    format      ascii;
    class       volScalarField;
    location    "3";
    object      epsilon;
}
// * * * * * * * * * * * * * * * * * * * * * * * * * * * * * * * * * * * * * //

dimensions      [0 2 -3 0 0 0 0];

internalField   nonuniform List<scalar> 
5625
(
6.91491e-07
4.67643e-06
1.04034e-05
1.72007e-05
2.47447e-05
3.28301e-05
4.13166e-05
5.01119e-05
5.91665e-05
6.8471e-05
7.80544e-05
8.79825e-05
9.83549e-05
0.000109303
0.000120986
0.000133589
0.000147319
0.000162401
0.000179075
0.000197597
0.000218228
0.000241241
0.000266913
0.000295525
0.000327358
0.000362694
0.000401812
0.000444985
0.000492481
0.000544553
0.00060144
0.000663367
0.000730531
0.000803107
0.00088124
0.000965044
0.0010546
0.00114994
0.00125108
0.00135795
0.00147044
0.00158837
0.00171144
0.00183922
0.00197111
0.00210629
0.00224365
0.00238174
0.0025187
0.00265217
0.00277928
0.00289652
0.00299974
0.00308383
0.00314101
0.00316686
0.0031682
0.00312808
0.00304404
0.00291568
0.00274432
0.00253379
0.00229084
0.00202484
0.00174699
0.00146917
0.00120253
0.000956218
0.000736533
0.000546597
0.00038663
0.000254729
0.00014813
6.51106e-05
9.59028e-06
1.30653e-06
2.54687e-06
5.10078e-06
8.25116e-06
1.17826e-05
1.55828e-05
1.95804e-05
2.37299e-05
2.8007e-05
3.2407e-05
3.69434e-05
4.16472e-05
4.65654e-05
5.17601e-05
5.7307e-05
6.32937e-05
6.98187e-05
7.6989e-05
8.49195e-05
9.37316e-05
0.000103552
0.000114511
0.000126742
0.000140381
0.000155566
0.000172434
0.000191123
0.000211769
0.000234504
0.000259458
0.000286753
0.000316504
0.000348816
0.000383783
0.000421483
0.000461982
0.000505325
0.000551539
0.000600628
0.000652566
0.000707292
0.000764703
0.000824636
0.000886856
0.000951033
0.00101672
0.00108331
0.00115004
0.00121594
0.00127978
0.0013401
0.00139515
0.00144288
0.00148083
0.00150529
0.00151495
0.00151208
0.00148957
0.00144643
0.00138271
0.00129927
0.00119812
0.00108249
0.000956738
0.000825963
0.000695508
0.000570369
0.000454663
0.000351248
0.000261594
0.000185896
0.000123442
7.32866e-05
3.56454e-05
1.81042e-05
2.77546e-06
2.48241e-06
3.93244e-06
5.97482e-06
8.34262e-06
1.09248e-05
1.36604e-05
1.65132e-05
1.94646e-05
2.25104e-05
2.56595e-05
2.89333e-05
3.23647e-05
3.5997e-05
3.98835e-05
4.40861e-05
4.86745e-05
5.37252e-05
5.93207e-05
6.55488e-05
7.25017e-05
8.02756e-05
8.89701e-05
9.86877e-05
0.000109533
0.000121615
0.00013504
0.000149918
0.00016636
0.000184473
0.000204365
0.000226135
0.000249881
0.00027569
0.000303639
0.000333791
0.000366193
0.000400872
0.000437828
0.000477031
0.000518415
0.000561862
0.000607199
0.000654178
0.000702466
0.000751628
0.000801108
0.000850215
0.000898108
0.000943787
0.00098609
0.0010237
0.00105511
0.00107854
0.00109121
0.00109397
0.00108653
0.00106527
0.00102981
0.00098048
0.000918153
0.000844415
0.000761592
0.000672646
0.000580949
0.000489968
0.000402915
0.000322433
0.000250381
0.000187763
0.000134824
9.13536e-05
5.7339e-05
3.48018e-05
3.83115e-05
4.5408e-06
2.97587e-06
3.72155e-06
5.15555e-06
6.93167e-06
8.91908e-06
1.1053e-05
1.3298e-05
1.56361e-05
1.80625e-05
2.05842e-05
2.32181e-05
2.59911e-05
2.89388e-05
3.2105e-05
3.55414e-05
3.93064e-05
4.34649e-05
4.80878e-05
5.32511e-05
5.90361e-05
6.55289e-05
7.28201e-05
8.10049e-05
9.01828e-05
0.000100457
0.000111936
0.000124731
0.000138954
0.000154721
0.000172148
0.000191346
0.000212422
0.000235475
0.000260591
0.000287837
0.00031726
0.000348875
0.000382663
0.00041856
0.00045645
0.000496157
0.000537429
0.000579939
0.00062327
0.000666912
0.000710253
0.000752583
0.000793082
0.000830835
0.000864844
0.000894042
0.000917323
0.000932715
0.000938947
0.000937562
0.000926764
0.000904782
0.000871456
0.000827153
0.000772642
0.000709243
0.000638847
0.000563851
0.000486976
0.000411017
0.000338556
0.000271707
0.000211955
0.000160127
0.000116523
8.12567e-05
5.50372e-05
4.15306e-05
6.22431e-05
6.54924e-06
3.74191e-06
3.92455e-06
4.92768e-06
6.31761e-06
7.93665e-06
9.71123e-06
1.16028e-05
1.35924e-05
1.56744e-05
1.78542e-05
2.01468e-05
2.25761e-05
2.51742e-05
2.79812e-05
3.10446e-05
3.44186e-05
3.81645e-05
4.23499e-05
4.70486e-05
5.23409e-05
5.83133e-05
6.50587e-05
7.26768e-05
8.12736e-05
9.09618e-05
0.000101861
0.000114096
0.000127798
0.000143101
0.000160138
0.000179041
0.000199933
0.000222924
0.000248107
0.000275545
0.000305265
0.000337251
0.00037143
0.000407667
0.000445759
0.000485424
0.000526293
0.00056792
0.000609782
0.000651284
0.000691773
0.000730544
0.00076684
0.000799879
0.000828864
0.000853001
0.000871518
0.000882263
0.000885606
0.000882393
0.000870643
0.000849203
0.000817779
0.000776439
0.000725709
0.000666617
0.000600793
0.000530428
0.000458117
0.000386594
0.000318416
0.000255686
0.000199872
0.000151805
0.000111858
8.03753e-05
5.86402e-05
5.17959e-05
8.88813e-05
8.76481e-06
4.68212e-06
4.36608e-06
5.02396e-06
6.12652e-06
7.48699e-06
9.02046e-06
1.0684e-05
1.24565e-05
1.43314e-05
1.63132e-05
1.84159e-05
2.06625e-05
2.3084e-05
2.57195e-05
2.86157e-05
3.18271e-05
3.54154e-05
3.94502e-05
4.40085e-05
4.91755e-05
5.50445e-05
6.17177e-05
6.93061e-05
7.79301e-05
8.77194e-05
9.8813e-05
0.000111358
0.000125508
0.000141421
0.000159256
0.000179161
0.00020126
0.000225675
0.000252489
0.000281738
0.000313406
0.000347407
0.000383581
0.000421684
0.000461389
0.000502291
0.000543884
0.000585612
0.000626871
0.000667034
0.000705475
0.000741588
0.000774764
0.000804437
0.000830072
0.00085114
0.000867182
0.000876429
0.000879389
0.000876793
0.0008665
0.000847372
0.000818777
0.000780375
0.000732224
0.000674996
0.000610102
0.000539695
0.000466522
0.000393614
0.000323891
0.000259797
0.000203054
0.000154646
0.000115055
8.48045e-05
6.56634e-05
6.41325e-05
0.000117441
1.11661e-05
5.75271e-06
4.96957e-06
5.33152e-06
6.20337e-06
7.369e-06
8.73067e-06
1.02398e-05
1.18732e-05
1.36232e-05
1.54937e-05
1.74989e-05
1.96616e-05
2.20137e-05
2.45951e-05
2.74545e-05
3.06488e-05
3.42439e-05
3.83144e-05
4.29446e-05
4.82286e-05
5.42714e-05
6.11891e-05
6.91096e-05
7.81718e-05
8.85261e-05
0.000100336
0.000113775
0.000129021
0.000146255
0.00016566
0.000187398
0.000211617
0.000238415
0.000267842
0.000299883
0.00033444
0.000371321
0.000410234
0.000450784
0.00049248
0.000534753
0.000576998
0.000618583
0.000658887
0.000697339
0.000733436
0.000766762
0.00079702
0.000823972
0.000847422
0.000867163
0.00088286
0.00089359
0.000898512
0.00089878
0.000892303
0.000877501
0.000853207
0.000818469
0.000772823
0.000716537
0.000650802
0.000577796
0.000500549
0.000422594
0.000347475
0.000278245
0.000217123
0.000165414
0.000123781
9.29112e-05
7.50122e-05
7.78438e-05
0.000147359
1.37415e-05
6.93176e-06
5.6958e-06
5.79276e-06
6.471e-06
7.48337e-06
8.71864e-06
1.01227e-05
1.16694e-05
1.33502e-05
1.51689e-05
1.71401e-05
1.92881e-05
2.16463e-05
2.42575e-05
2.71737e-05
3.04568e-05
3.41788e-05
3.84224e-05
4.32815e-05
4.88628e-05
5.52861e-05
6.26849e-05
7.12081e-05
8.102e-05
9.22987e-05
0.000105234
0.000120028
0.000136886
0.000156011
0.000177593
0.000201802
0.000228767
0.000258554
0.00029115
0.000326449
0.000364232
0.000404159
0.000445772
0.000488507
0.000531717
0.000574713
0.000616816
0.000657396
0.00069592
0.00073199
0.000765357
0.000795921
0.000823715
0.000848836
0.000871376
0.000891335
0.000908498
0.000922329
0.000932061
0.000936452
0.000935462
0.000926449
0.000907633
0.000877367
0.00083463
0.000779252
0.000712157
0.000635504
0.0005526
0.000467537
0.000384611
0.000307685
0.000239683
0.000182419
0.000136854
0.000103875
8.61123e-05
9.25455e-05
0.000178239
1.64853e-05
8.20789e-06
6.52278e-06
6.37469e-06
6.88596e-06
7.77481e-06
8.91664e-06
1.02512e-05
1.17497e-05
1.34026e-05
1.52142e-05
1.72e-05
1.93862e-05
2.18091e-05
2.45153e-05
2.75619e-05
3.10172e-05
3.49617e-05
3.94887e-05
4.47052e-05
5.07332e-05
5.77105e-05
6.57921e-05
7.51497e-05
8.59735e-05
9.84698e-05
0.000112858
0.000129366
0.000148223
0.000169647
0.000193833
0.000220933
0.000251037
0.000284146
0.000320149
0.000358808
0.000399744
0.000442438
0.00048625
0.000530447
0.000574255
0.000616921
0.00065778
0.000696312
0.000732184
0.000765277
0.000795679
0.000823646
0.000849546
0.000873764
0.000896603
0.00091818
0.000938319
0.000956498
0.000971901
0.000982771
0.000987253
0.000984813
0.000972274
0.000947214
0.000908065
0.000854196
0.000786174
0.00070601
0.000617161
0.0005242
0.000432196
0.000345938
0.000269253
0.000204668
0.000153602
0.000117229
9.86381e-05
0.000108014
0.000209823
1.93966e-05
9.5754e-06
7.4377e-06
7.05746e-06
7.42156e-06
8.20946e-06
9.28346e-06
1.05765e-05
1.20573e-05
1.37155e-05
1.55558e-05
1.75956e-05
1.98636e-05
2.23997e-05
2.52556e-05
2.8495e-05
3.21945e-05
3.64445e-05
4.13507e-05
4.7035e-05
5.36372e-05
6.13157e-05
7.02487e-05
8.06345e-05
9.26909e-05
0.000106653
0.000122767
0.000141285
0.000162452
0.000186491
0.000213582
0.000243839
0.000277284
0.000313815
0.000353186
0.000394991
0.000438661
0.000483483
0.000528638
0.000573259
0.000616505
0.000657649
0.000696146
0.000731697
0.000764267
0.000794088
0.000821607
0.000847417
0.000872157
0.000896402
0.000920551
0.000944732
0.000968712
0.000991855
0.00101309
0.00103083
0.0010419
0.0010452
0.0010394
0.00102019
0.000985492
0.000934211
0.000866442
0.000783857
0.00068984
0.000589258
0.000487863
0.000391419
0.000304817
0.00023152
0.000173612
0.000132696
0.0001124
0.000124126
0.000241996
2.24774e-05
1.10321e-05
8.43311e-06
7.82874e-06
8.06052e-06
8.76547e-06
9.79255e-06
1.10674e-05
1.25559e-05
1.42473e-05
1.61471e-05
1.82747e-05
2.06621e-05
2.3354e-05
2.64078e-05
2.98949e-05
3.39016e-05
3.85301e-05
4.39002e-05
5.01507e-05
5.74411e-05
6.59524e-05
7.58881e-05
8.74737e-05
0.000100955
0.000116595
0.000134665
0.000155432
0.000179149
0.000206024
0.000236204
0.000269737
0.000306542
0.000346381
0.000388835
0.000433303
0.000479012
0.00052506
0.000570485
0.000614347
0.000655831
0.000694336
0.00072955
0.000761483
0.000790459
0.000817073
0.000842097
0.000866378
0.000890718
0.000915757
0.00094188
0.000969129
0.000997153
0.00102517
0.00105193
0.0010757
0.00109395
0.00110248
0.00110293
0.00109014
0.00106086
0.00101356
0.000947751
0.000864554
0.000766995
0.000659959
0.000549689
0.000442884
0.000345627
0.000262544
0.00019663
0.000150111
0.000127292
0.000140802
0.000274642
2.57322e-05
1.25779e-05
9.50495e-06
8.68069e-06
8.79133e-06
9.42832e-06
1.04262e-05
1.17028e-05
1.32214e-05
1.49706e-05
1.69572e-05
1.92029e-05
2.17438e-05
2.46296e-05
2.79249e-05
3.17099e-05
3.60816e-05
4.11554e-05
4.70671e-05
5.39738e-05
6.20565e-05
7.152e-05
8.25942e-05
9.55321e-05
0.000110607
0.000128106
0.000148317
0.000171519
0.000197952
0.000227795
0.000261133
0.000297916
0.000337929
0.000380764
0.000425802
0.000472233
0.000519086
0.000565304
0.000609843
0.00065178
0.000690425
0.000725413
0.000756748
0.000784804
0.000810269
0.000834053
0.000857169
0.000880601
0.000905185
0.000931513
0.000959859
0.00099013
0.00102184
0.00105409
0.00108554
0.00111439
0.00113857
0.00115347
0.00115851
0.00115256
0.00112965
0.00108783
0.00102596
0.000944417
0.00084556
0.000733947
0.000616027
0.000499299
0.000391099
0.000297439
0.000222508
0.000169382
0.000143263
0.00015801
0.000307738
2.91675e-05
1.42145e-05
1.06514e-05
9.60851e-06
9.60635e-06
1.01882e-05
1.11722e-05
1.24684e-05
1.40372e-05
1.58667e-05
1.79651e-05
2.0357e-05
2.30827e-05
2.61981e-05
2.97756e-05
3.3905e-05
3.86956e-05
4.42771e-05
5.08024e-05
5.84487e-05
6.7419e-05
7.79435e-05
9.02781e-05
0.000104703
0.000121515
0.00014102
0.000163519
0.000189283
0.000218527
0.000251376
0.000287822
0.000327691
0.000370601
0.000415946
0.000462896
0.000510433
0.000557422
0.00060271
0.000645253
0.000684247
0.000719229
0.000750153
0.00077739
0.00080168
0.000824026
0.000845568
0.000867436
0.000890625
0.000915894
0.000943694
0.000974139
0.00100698
0.00104163
0.00107714
0.00111217
0.00114502
0.00117376
0.00119484
0.00120429
0.00120457
0.00118884
0.00115389
0.00109796
0.0010205
0.000922941
0.000809148
0.000685396
0.000559741
0.000440742
0.000335988
0.000251165
0.000190479
0.00016031
0.000175755
0.000341321
3.27915e-05
1.59447e-05
1.18724e-05
1.06095e-05
1.05006e-05
1.10384e-05
1.20221e-05
1.33543e-05
1.49919e-05
1.69228e-05
1.91565e-05
2.1721e-05
2.46612e-05
2.80399e-05
3.19379e-05
3.64559e-05
4.1716e-05
4.78637e-05
5.507e-05
6.35328e-05
7.34785e-05
8.5162e-05
9.88649e-05
0.000114891
0.000133559
0.000155187
0.000180073
0.000208468
0.000240541
0.000276337
0.000315732
0.000358391
0.000403744
0.000450972
0.000499036
0.00054674
0.000592834
0.00063615
0.000675743
0.000711022
0.000741841
0.000768516
0.000791793
0.000812729
0.00083256
0.000852535
0.00087378
0.000897189
0.000923358
0.000952551
0.000984706
0.00101945
0.00105613
0.0010938
0.00113123
0.00116689
0.00119899
0.00122495
0.00124011
0.00124484
0.00123684
0.00120985
0.00116159
0.00109053
0.000996969
0.000883701
0.000756403
0.000623323
0.000494098
0.000378014
0.000282563
0.000213415
0.000178461
0.00019407
0.000375465
3.66137e-05
1.77722e-05
1.31687e-05
1.16824e-05
1.14712e-05
1.19744e-05
1.29705e-05
1.43537e-05
1.60779e-05
1.81302e-05
2.05217e-05
2.32838e-05
2.6467e-05
3.01411e-05
3.43962e-05
3.93445e-05
4.51221e-05
5.18908e-05
5.98407e-05
6.91909e-05
8.01913e-05
9.31208e-05
0.000108285
0.000126008
0.000146623
0.00017045
0.000197775
0.000228809
0.000263653
0.000302245
0.000344318
0.000389356
0.000436582
0.000484966
0.00053328
0.000580199
0.000624431
0.000664883
0.000700805
0.000731904
0.000758396
0.000780977
0.000800719
0.000818924
0.000836942
0.000856021
0.000877169
0.000901101
0.000928205
0.000958544
0.000991899
0.00102781
0.0010656
0.00110442
0.00114319
0.0011806
0.0012151
0.00124453
0.00126534
0.0012743
0.00127334
0.00125497
0.00121564
0.00115292
0.00106587
0.000955922
0.000827686
0.000689133
0.000550688
0.000423346
0.000316685
0.000238232
0.000197765
0.000213004
0.00041027
4.06449e-05
1.97013e-05
1.45422e-05
1.28271e-05
1.25166e-05
1.29934e-05
1.40134e-05
1.54623e-05
1.72899e-05
1.94828e-05
2.20538e-05
2.5038e-05
2.84915e-05
3.24917e-05
3.71388e-05
4.2557e-05
4.88972e-05
5.63382e-05
6.50892e-05
7.53912e-05
8.75164e-05
0.000101767
0.000118468
0.000137961
0.000160584
0.000186649
0.000216413
0.000250031
0.00028751
0.000328659
0.000373044
0.000419953
0.000468399
0.000517157
0.000564853
0.000610094
0.000651635
0.000688545
0.000720353
0.00074712
0.000769441
0.000788354
0.000805191
0.000821393
0.000838314
0.000857101
0.000878567
0.000903192
0.000931159
0.000962341
0.0009964
0.00103283
0.00107099
0.00111011
0.00114931
0.00118751
0.00122347
0.00125529
0.00128073
0.00129508
0.00129912
0.00128949
0.00125976
0.00120674
0.00112829
0.00102431
0.000897897
0.000756195
0.000609964
0.00047178
0.000353523
0.000264981
0.000218291
0.000232619
0.000445846
4.48968e-05
2.17372e-05
1.59953e-05
1.40444e-05
1.36365e-05
1.4094e-05
1.51488e-05
1.66773e-05
1.86247e-05
2.09771e-05
2.37487e-05
2.69784e-05
3.07284e-05
3.50843e-05
4.01565e-05
4.60821e-05
5.30268e-05
6.11871e-05
7.07915e-05
8.21019e-05
9.54121e-05
0.000111044
0.00012934
0.000150651
0.000175311
0.000203612
0.000235764
0.000271846
0.000311751
0.000355138
0.000401389
0.000449591
0.00049856
0.000546908
0.000593169
0.000635961
0.000674169
0.00070711
0.00073465
0.000757226
0.00077579
0.000791661
0.000806329
0.000821295
0.000837846
0.000856826
0.000878891
0.0009043
0.000933028
0.000964792
0.000999177
0.00103566
0.00107366
0.00111255
0.00115158
0.00118994
0.00122662
0.00126004
0.00128846
0.0013083
0.00131655
0.00131454
0.00129441
0.00125172
0.00118334
0.00108758
0.000965717
0.000823451
0.000671284
0.000523052
0.000393046
0.000293719
0.000240114
0.000252982
0.000482305
4.93823e-05
2.38855e-05
1.75312e-05
1.53358e-05
1.48312e-05
1.52758e-05
1.63759e-05
1.79973e-05
2.00807e-05
2.26108e-05
2.56035e-05
2.91016e-05
3.31733e-05
3.79129e-05
4.34415e-05
4.99092e-05
5.74971e-05
6.64191e-05
7.69227e-05
8.92898e-05
0.000103833
0.000120893
0.000140822
0.000163971
0.000190663
0.000221154
0.000255592
0.000293958
0.000336015
0.000381254
0.000428868
0.000477747
0.000526535
0.000573731
0.000617844
0.000657581
0.000692037
0.000720842
0.000744226
0.000762995
0.000778407
0.000791979
0.000805415
0.000819881
0.0008365
0.000856091
0.000879001
0.000905252
0.000934677
0.000966867
0.00100136
0.00103765
0.00107524
0.00111362
0.00115221
0.00119037
0.00122728
0.00126159
0.00129181
0.00131577
0.00132869
0.00133185
0.00132073
0.00128825
0.00123063
0.00114478
0.00102992
0.000889782
0.00073389
0.00057681
0.000435183
0.000324495
0.000263308
0.000274158
0.000519754
5.41149e-05
2.61521e-05
1.91533e-05
1.67034e-05
1.61018e-05
1.65391e-05
1.76946e-05
1.94221e-05
2.16572e-05
2.43829e-05
2.76166e-05
3.1405e-05
3.58227e-05
4.09724e-05
4.69864e-05
5.4028e-05
6.22938e-05
7.20144e-05
8.34559e-05
9.69182e-05
0.000112731
0.000131247
0.000152823
0.000177805
0.000206489
0.000239082
0.000275653
0.00031607
0.000359948
0.000406604
0.000455042
0.000503976
0.000551915
0.000597302
0.000638693
0.000674962
0.00070548
0.000730224
0.000749794
0.000765323
0.000778318
0.000790582
0.000803251
0.000817804
0.000835118
0.000855704
0.000879633
0.000906847
0.000936973
0.000969549
0.0010041
0.00104017
0.00107732
0.00111515
0.00115319
0.00119097
0.00122777
0.00126246
0.0012938
0.00132009
0.00133746
0.00134417
0.00134046
0.00131735
0.00127033
0.00119531
0.00108944
0.000954051
0.000796915
0.000632595
0.000479808
0.000357342
0.000287942
0.000296209
0.000558281
5.9109e-05
2.85437e-05
2.08655e-05
1.81495e-05
1.745e-05
1.78852e-05
1.91057e-05
2.09523e-05
2.33546e-05
2.62935e-05
2.97875e-05
3.38871e-05
3.86733e-05
4.42577e-05
5.07835e-05
5.84275e-05
6.7401e-05
7.79513e-05
9.03612e-05
0.000104947
0.000122051
0.000142033
0.00016525
0.000192028
0.000222629
0.000257195
0.000295701
0.000337889
0.000383216
0.000430823
0.000479538
0.00052793
0.000574421
0.00061746
0.000655722
0.000688314
0.000714925
0.000735893
0.000752166
0.000765163
0.000776702
0.00078802
0.000800786
0.000816063
0.000834507
0.000856312
0.00088149
0.000909815
0.000940727
0.000973774
0.00100849
0.00104446
0.00108131
0.00111872
0.00115632
0.00119372
0.0012303
0.00126504
0.00129689
0.00132433
0.00134485
0.00135451
0.0013557
0.00134056
0.0013032
0.00123906
0.00114349
0.00101518
0.000859414
0.000689842
0.000526723
0.000392269
0.000314066
0.00031919
0.000597963
6.43798e-05
3.1067e-05
2.2672e-05
1.96771e-05
1.88781e-05
1.93157e-05
2.06106e-05
2.25892e-05
2.51739e-05
2.83429e-05
3.21157e-05
3.65463e-05
4.17221e-05
4.77634e-05
5.48247e-05
6.30953e-05
7.28013e-05
8.42052e-05
9.76049e-05
0.00011333
0.000131732
0.000153172
0.000177998
0.000206509
0.000238918
0.000275291
0.000315496
0.000359137
0.000405514
0.000453597
0.000502062
0.000549368
0.000593908
0.0006342
0.000669102
0.000698001
0.000720928
0.000738571
0.00075217
0.00076357
0.000774025
0.000785352
0.00079884
0.000815342
0.000835189
0.000858515
0.000885242
0.000914778
0.00094663
0.00098032
0.0010154
0.0010515
0.00108831
0.00112555
0.00116294
0.00120012
0.00123654
0.00127124
0.00130324
0.00133112
0.00135313
0.00136526
0.00136896
0.00135987
0.00133049
0.00127643
0.00119165
0.00107224
0.000920408
0.000747881
0.000575651
0.00042926
0.000341701
0.000343144
0.000638852
6.99437e-05
3.37295e-05
2.45775e-05
2.12895e-05
2.03884e-05
2.08329e-05
2.22115e-05
2.43346e-05
2.71165e-05
3.05322e-05
3.46013e-05
3.93813e-05
4.49657e-05
5.14836e-05
5.91001e-05
6.80173e-05
7.84746e-05
9.07484e-05
0.000105149
0.000122017
0.000141708
0.000164579
0.000190958
0.000221111
0.000255187
0.000293169
0.000334805
0.000379561
0.000426576
0.000474672
0.000522399
0.000568155
0.000610356
0.000647652
0.000679135
0.000704502
0.000724127
0.000739015
0.000750857
0.000760979
0.000771296
0.000783283
0.000798034
0.000816068
0.000837674
0.000862937
0.000891283
0.00092221
0.000955189
0.000989731
0.00102542
0.00106192
0.00109897
0.00113636
0.00117384
0.0012111
0.00124759
0.00128236
0.00131443
0.00134241
0.00136475
0.00137805
0.00138292
0.00137749
0.00135393
0.00130834
0.00123394
0.00112455
0.000978955
0.000805963
0.00062623
0.000468277
0.000370812
0.000368109
0.000680982
7.58196e-05
3.65394e-05
2.65868e-05
2.299e-05
2.19839e-05
2.24393e-05
2.39107e-05
2.61908e-05
2.91845e-05
3.28625e-05
3.72441e-05
4.23902e-05
4.84e-05
5.5411e-05
6.35987e-05
7.3177e-05
8.43978e-05
9.75495e-05
0.000112953
0.000130954
0.000151909
0.000176162
0.000204017
0.000235693
0.000271271
0.000310636
0.000353416
0.000398934
0.000446187
0.000493862
0.000540426
0.000584261
0.000623863
0.000658063
0.000686224
0.000708365
0.000725187
0.000738103
0.000748526
0.00075832
0.000769163
0.000782375
0.000798727
0.000818681
0.000842529
0.000869768
0.000899912
0.000932402
0.000966688
0.00100229
0.0010388
0.00107595
0.00111354
0.00115138
0.00118929
0.00122698
0.00126389
0.00129905
0.00133137
0.00135939
0.00138153
0.00139478
0.00139983
0.00139573
0.00137552
0.00133616
0.00127085
0.00117175
0.00103422
0.000863291
0.000678007
0.000509187
0.000401396
0.00039411
0.000724367
8.20241e-05
3.95046e-05
2.87049e-05
2.47825e-05
2.36676e-05
2.4138e-05
2.57112e-05
2.81604e-05
3.13798e-05
3.53348e-05
4.00441e-05
4.55708e-05
5.202e-05
5.95371e-05
6.83076e-05
7.85559e-05
9.05452e-05
0.000104574
0.00012097
0.000140081
0.000162257
0.000187827
0.000217059
0.000250118
0.000287009
0.000327514
0.000371139
0.000417073
0.000464181
0.000511051
0.000556103
0.000597752
0.000634623
0.000665767
0.000690837
0.000710172
0.000724796
0.000736211
0.000746066
0.000756193
0.000768142
0.000782954
0.000801287
0.000823699
0.000849804
0.000879182
0.000911266
0.000945455
0.000981187
0.00101799
0.00105551
0.00109351
0.00113184
0.00117041
0.00120906
0.00124755
0.00128532
0.00132133
0.00135434
0.00138269
0.00140456
0.00141698
0.00142151
0.00141674
0.00139742
0.00136163
0.00130334
0.00121388
0.00108558
0.000919072
0.000730453
0.000551782
0.000433453
0.000421156
0.000769002
8.85751e-05
4.26332e-05
3.09373e-05
2.66708e-05
2.54431e-05
2.5932e-05
2.7616e-05
3.02463e-05
3.37047e-05
3.79505e-05
4.30004e-05
4.89201e-05
5.58196e-05
6.3852e-05
7.32115e-05
8.41328e-05
9.6888e-05
0.000111783
0.00012915
0.000149335
0.000172676
0.000199478
0.000229969
0.000264253
0.000302251
0.000343643
0.000387815
0.000433832
0.000480452
0.000526194
0.000569471
0.000608778
0.000642907
0.000671158
0.000693475
0.00071048
0.000723548
0.000734088
0.000744032
0.000755077
0.000768551
0.000785299
0.000806212
0.000831078
0.000859586
0.00089121
0.00092532
0.000961281
0.000998527
0.00103661
0.00107521
0.00111416
0.00115339
0.00119287
0.00123253
0.00127217
0.00131125
0.00134867
0.00138302
0.00141233
0.00143427
0.00144566
0.0014493
0.00144244
0.00142177
0.00138671
0.00133274
0.00125137
0.00113263
0.000972567
0.000782988
0.000595813
0.000466941
0.000449246
0.000814867
9.54918e-05
4.59338e-05
3.32893e-05
2.86593e-05
2.73141e-05
2.78252e-05
2.96286e-05
3.24515e-05
3.61614e-05
4.07102e-05
4.61121e-05
5.24343e-05
5.97915e-05
6.83438e-05
7.82936e-05
8.98839e-05
0.000103394
0.000119136
0.000137442
0.00015865
0.000183085
0.000211019
0.000242635
0.000277972
0.000316864
0.000358888
0.000403319
0.000449114
0.00049495
0.00053931
0.000580641
0.000617555
0.000649043
0.000674663
0.000694651
0.000709952
0.000721889
0.000732259
0.000742876
0.000755301
0.000770572
0.000789922
0.000813399
0.000840851
0.000871841
0.000905751
0.0009419
0.000979627
0.00101837
0.00105771
0.00109738
0.00113728
0.00117744
0.00121794
0.00125879
0.00129988
0.00134071
0.00138014
0.00141659
0.0014478
0.00147049
0.00148129
0.001484
0.00147431
0.00145048
0.00141343
0.00136072
0.00128509
0.00117533
0.00102316
0.000835003
0.000640984
0.00050178
0.000478368
0.000861925
0.000102794
4.94155e-05
3.57669e-05
3.07523e-05
2.92845e-05
2.98212e-05
3.17527e-05
3.47792e-05
3.87522e-05
4.36146e-05
4.93774e-05
5.61085e-05
6.39271e-05
7.29991e-05
8.35346e-05
9.57834e-05
0.000110031
0.00012659
0.00014579
0.000167961
0.000193403
0.000222357
0.000254954
0.000291162
0.000330731
0.000373141
0.000417563
0.00046287
0.000507681
0.00055048
0.000589784
0.000624352
0.000653391
0.00067672
0.000694823
0.000708892
0.000720387
0.000731152
0.000742939
0.000756954
0.000774733
0.000796686
0.000822852
0.000852948
0.000886425
0.00092259
0.000960711
0.00100011
0.00104024
0.00108072
0.00112134
0.0011621
0.00120314
0.00124465
0.00128679
0.00132954
0.00137249
0.0014145
0.00145384
0.00148799
0.00151264
0.00152375
0.00152584
0.00151333
0.00148517
0.00144375
0.00138911
0.00131622
0.00121394
0.00107039
0.00088589
0.00068695
0.00053786
0.000508498
0.00091013
0.000110504
5.30878e-05
3.83759e-05
3.29546e-05
3.13586e-05
3.19241e-05
3.3992e-05
3.72326e-05
4.1479e-05
4.66638e-05
5.27937e-05
5.99369e-05
6.82161e-05
7.78029e-05
8.89134e-05
0.000101803
0.00011676
0.000134098
0.00015414
0.0001772
0.000203555
0.000233405
0.000266829
0.000303725
0.000343759
0.000386321
0.000430497
0.000475093
0.000518701
0.000559838
0.000597118
0.000629471
0.000656331
0.000677768
0.000694527
0.00070785
0.000719446
0.000731109
0.000744238
0.000760566
0.000780922
0.000805585
0.000834487
0.000867213
0.000903111
0.00094142
0.00098137
0.00102227
0.0010636
0.00110501
0.00114638
0.00118783
0.0012296
0.00127204
0.00131547
0.00136
0.00140533
0.0014504
0.00149337
0.00153144
0.00155973
0.00157246
0.00157457
0.00155996
0.00152702
0.0014794
0.00141979
0.00134625
0.00124909
0.00111404
0.000935081
0.000733328
0.000575041
0.000539599
0.000959419
0.000118643
5.69605e-05
4.11227e-05
3.5271e-05
3.35409e-05
3.41383e-05
3.63507e-05
3.9815e-05
4.43437e-05
4.98575e-05
5.63578e-05
6.39125e-05
7.26472e-05
8.27384e-05
9.44072e-05
0.000107913
0.000123546
0.000141615
0.000162435
0.000186302
0.000213465
0.000244083
0.000278177
0.000315579
0.000355878
0.000398382
0.000442109
0.000485821
0.000528113
0.000567557
0.000602894
0.000633235
0.000658238
0.000678201
0.00069406
0.000707209
0.000719393
0.000732141
0.000747304
0.000766106
0.000789117
0.000816539
0.000848153
0.000883421
0.000921603
0.000961876
0.00100344
0.0010456
0.00108786
0.00112994
0.00117181
0.00121369
0.00125598
0.00129921
0.00134384
0.00139016
0.00143804
0.00148652
0.00153372
0.00157661
0.00161028
0.00162637
0.00162948
0.0016141
0.0015767
0.00152178
0.00145454
0.0013768
0.00128169
0.00115411
0.000982085
0.000779702
0.000613156
0.000571618
0.00100972
0.000127234
6.1044e-05
4.40139e-05
3.77067e-05
3.5836e-05
3.64682e-05
3.88328e-05
4.25296e-05
4.73478e-05
5.31948e-05
6.00655e-05
6.80271e-05
7.72075e-05
8.77874e-05
9.99917e-05
0.000114082
0.000130348
0.000149094
0.000170622
0.000195207
0.000223068
0.00025432
0.000288931
0.000326666
0.000367044
0.000409308
0.000452423
0.000495132
0.000536054
0.000573845
0.000607385
0.000635972
0.000659475
0.000678397
0.000693843
0.000707264
0.000720272
0.000734742
0.000752195
0.000773529
0.000799253
0.000829411
0.000863644
0.000901304
0.000941569
0.000983564
0.00102647
0.00106959
0.00111248
0.00115492
0.00119699
0.00123903
0.00128161
0.0013254
0.00137109
0.00141912
0.00146958
0.00152168
0.00157359
0.00162212
0.00166249
0.00168414
0.00168954
0.00167516
0.00163441
0.00157188
0.00149498
0.00140956
0.00131292
0.00119089
0.00102652
0.000825642
0.000652009
0.00060449
0.00106094
0.000136301
6.53491e-05
4.70564e-05
4.0267e-05
3.8249e-05
3.89187e-05
4.14427e-05
4.53796e-05
5.04928e-05
5.66743e-05
6.3912e-05
7.22717e-05
8.18832e-05
9.29306e-05
0.000105642
0.000120279
0.00013713
0.000156491
0.000178649
0.000203859
0.000232304
0.000264058
0.000299036
0.000336944
0.00037724
0.000419113
0.000461497
0.000503136
0.000542697
0.000578933
0.000610875
0.000638004
0.000660381
0.000678682
0.000694099
0.000708117
0.000722538
0.000739047
0.000758851
0.000782792
0.000811219
0.000844024
0.000880721
0.000920564
0.000962658
0.00100609
0.00105002
0.00109378
0.00113697
0.00117946
0.00122142
0.00126335
0.00130595
0.00135008
0.00139662
0.00144622
0.00149917
0.00155494
0.00161182
0.00166666
0.00171457
0.00174421
0.00175347
0.00174212
0.00169981
0.00163026
0.0015424
0.00144619
0.00134413
0.00122492
0.00106813
0.000870717
0.000691383
0.000638135
0.00111299
0.000145871
6.98871e-05
5.02572e-05
4.29577e-05
4.07851e-05
4.14947e-05
4.41848e-05
4.83681e-05
5.37794e-05
6.02939e-05
6.78916e-05
7.66362e-05
8.66594e-05
9.81479e-05
0.000111332
0.000126473
0.000143855
0.000163763
0.000186471
0.000212207
0.000241123
0.000273252
0.000308459
0.000346397
0.000386475
0.000427842
0.000469421
0.000509974
0.000548233
0.000583065
0.000613649
0.000639642
0.000661271
0.000679331
0.000695092
0.000710208
0.000726372
0.000745005
0.000767256
0.000793812
0.000824866
0.000860171
0.000899127
0.000940897
0.000984529
0.00102908
0.0010737
0.00111778
0.00116095
0.00120317
0.00124475
0.0012863
0.00132868
0.00137292
0.00142008
0.00147103
0.0015263
0.00158563
0.00164753
0.00170899
0.00176505
0.0018049
0.00181997
0.00181362
0.00177216
0.00169699
0.00159775
0.00148818
0.00137676
0.00125695
0.00110686
0.000914517
0.000731038
0.000672455
0.00116573
0.000155969
7.46696e-05
5.36237e-05
4.57845e-05
4.34497e-05
4.42014e-05
4.70634e-05
5.14982e-05
5.72085e-05
6.40512e-05
7.19978e-05
8.11099e-05
9.15207e-05
0.000103419
0.000117036
0.000132633
0.000150486
0.000170872
0.000194045
0.000220211
0.000249489
0.000281873
0.000317183
0.00035503
0.000394782
0.000435567
0.000476309
0.000515807
0.000552874
0.000586491
0.000615989
0.00064118
0.000662436
0.000680655
0.000697187
0.00071371
0.000731749
0.00075263
0.00077736
0.000806478
0.000840029
0.000877638
0.000918603
0.000962012
0.00100687
0.0010522
0.0010972
0.00114126
0.00118412
0.00122581
0.00126676
0.00130771
0.00134966
0.00139379
0.00144135
0.00149342
0.00155075
0.00161339
0.00168016
0.00174826
0.00181273
0.00186436
0.00188787
0.00188805
0.00185029
0.00177172
0.00166158
0.00153682
0.0014123
0.00128796
0.00114279
0.000956668
0.000770722
0.000707337
0.00121903
0.000166624
7.9709e-05
5.71637e-05
4.87537e-05
4.62487e-05
4.70443e-05
5.00834e-05
5.47727e-05
6.07803e-05
6.79432e-05
7.62238e-05
8.56817e-05
9.64514e-05
0.000108724
0.000122731
0.00013873
0.000156993
0.000177784
0.00020134
0.000227841
0.000257377
0.000289907
0.000325213
0.00036287
0.00040222
0.000442382
0.000482297
0.000520816
0.000556837
0.000589464
0.000618164
0.000642891
0.000664134