/*--------------------------------*- C++ -*----------------------------------*\
  =========                 |
  \\      /  F ield         | OpenFOAM: The Open Source CFD Toolbox
   \\    /   O peration     | Website:  https://openfoam.org
    \\  /    A nd           | Version:  12
     \\/     M anipulation  |
\*---------------------------------------------------------------------------*/
FoamFile
{
    format      ascii;
    class       volScalarField;
    location    "3";
    object      k;
}
// * * * * * * * * * * * * * * * * * * * * * * * * * * * * * * * * * * * * * //

dimensions      [0 2 -2 0 0 0 0];

internalField   nonuniform List<scalar> 
5625
(
3.06882e-10
2.07539e-09
4.61705e-09
7.63382e-09
1.09821e-08
1.45708e-08
1.83377e-08
2.2242e-08
2.62616e-08
3.03925e-08
3.46475e-08
3.90558e-08
4.36615e-08
4.85229e-08
5.37108e-08
5.9307e-08
6.54034e-08
7.20997e-08
7.95029e-08
8.77255e-08
9.68847e-08
1.07101e-07
1.18498e-07
1.312e-07
1.45332e-07
1.61021e-07
1.78389e-07
1.9756e-07
2.18651e-07
2.41776e-07
2.67042e-07
2.94547e-07
3.2438e-07
3.56617e-07
3.91324e-07
4.28551e-07
4.68332e-07
5.10684e-07
5.55608e-07
6.03081e-07
6.5305e-07
7.05432e-07
7.60095e-07
8.16852e-07
8.75434e-07
9.35475e-07
9.96485e-07
1.05782e-06
1.11865e-06
1.17793e-06
1.23438e-06
1.28646e-06
1.3323e-06
1.36965e-06
1.39504e-06
1.40652e-06
1.40712e-06
1.3893e-06
1.35197e-06
1.29496e-06
1.21885e-06
1.12535e-06
1.01744e-06
8.99301e-07
7.75899e-07
6.5251e-07
5.34084e-07
4.24688e-07
3.27119e-07
2.42761e-07
1.71715e-07
1.13133e-07
6.57892e-08
2.89177e-08
4.25934e-09
2.31934e-09
1.8482e-08
4.14269e-08
6.86082e-08
9.87591e-08
1.31067e-07
1.64975e-07
2.00113e-07
2.36287e-07
2.73458e-07
3.11743e-07
3.51403e-07
3.92838e-07
4.36572e-07
4.83241e-07
5.33583e-07
5.88421e-07
6.48655e-07
7.15249e-07
7.89216e-07
8.71609e-07
9.63515e-07
1.06604e-06
1.18031e-06
1.30746e-06
1.4486e-06
1.60487e-06
1.77735e-06
1.96712e-06
2.17518e-06
2.40252e-06
2.65e-06
2.91842e-06
3.20849e-06
3.52078e-06
3.85572e-06
4.21365e-06
4.59472e-06
4.99891e-06
5.42603e-06
5.8756e-06
6.34688e-06
6.8387e-06
7.34935e-06
7.87645e-06
8.41672e-06
8.96574e-06
9.51774e-06
1.00653e-05
1.05991e-05
1.11075e-05
1.15767e-05
1.19901e-05
1.23274e-05
1.25568e-05
1.26572e-05
1.26609e-05
1.24976e-05
1.21589e-05
1.16435e-05
1.09568e-05
1.01143e-05
9.14297e-06
8.08019e-06
6.97066e-06
5.86164e-06
4.79747e-06
3.81456e-06
2.93796e-06
2.18006e-06
1.54171e-06
1.01524e-06
5.89393e-07
2.57166e-07
3.21625e-08
4.92699e-09
4.22142e-08
9.52382e-08
1.58054e-07
2.27716e-07
3.02345e-07
3.80649e-07
4.61781e-07
5.45285e-07
6.31075e-07
7.19423e-07
8.10934e-07
9.06531e-07
1.00743e-06
1.1151e-06
1.23125e-06
1.35778e-06
1.49679e-06
1.6505e-06
1.82126e-06
2.01151e-06
2.22378e-06
2.46063e-06
2.72469e-06
3.01858e-06
3.34494e-06
3.70638e-06
4.10548e-06
4.54475e-06
5.02658e-06
5.55325e-06
6.12686e-06
6.74931e-06
7.42225e-06
8.14705e-06
8.92479e-06
9.7562e-06
1.06416e-05
1.1581e-05
1.25738e-05
1.36187e-05
1.47138e-05
1.58561e-05
1.70414e-05
1.82637e-05
1.95152e-05
2.0785e-05
2.20596e-05
2.33214e-05
2.45485e-05
2.57142e-05
2.67865e-05
2.77276e-05
2.8493e-05
2.90052e-05
2.92208e-05
2.92234e-05
2.88367e-05
2.80465e-05
2.68504e-05
2.52607e-05
2.33126e-05
2.1068e-05
1.86133e-05
1.60517e-05
1.34925e-05
1.1038e-05
8.77237e-06
6.75309e-06
5.00836e-06
3.53962e-06
2.32872e-06
1.34939e-06
5.85124e-07
6.80613e-08
8.06084e-09
7.07816e-08
1.60457e-07
2.66825e-07
3.84805e-07
5.11178e-07
6.43745e-07
7.81065e-07
9.22363e-07
1.0675e-06
1.21693e-06
1.37168e-06
1.53333e-06
1.70394e-06
1.88602e-06
2.08246e-06
2.29652e-06
2.53173e-06
2.7919e-06
3.08102e-06
3.40327e-06
3.76295e-06
4.16446e-06
4.61229e-06
5.11095e-06
5.665e-06
6.27894e-06
6.95723e-06
7.70422e-06
8.52408e-06
9.42079e-06
1.0398e-05
1.1459e-05
1.26066e-05
1.38432e-05
1.51704e-05
1.65894e-05
1.81003e-05
1.97028e-05
2.13952e-05
2.31746e-05
2.5037e-05
2.69762e-05
2.89841e-05
3.10496e-05
3.31583e-05
3.52916e-05
3.7426e-05
3.95321e-05
4.15737e-05
4.35071e-05
4.52803e-05
4.68319e-05
4.80929e-05
4.89261e-05
4.92675e-05
4.92678e-05
4.86128e-05
4.72829e-05
4.52729e-05
4.25998e-05
3.93197e-05
3.55351e-05
3.13909e-05
2.70625e-05
2.27364e-05
1.8588e-05
1.47612e-05
1.13537e-05
8.41296e-06
5.9402e-06
3.90346e-06
2.25742e-06
9.74339e-07
1.10576e-07
1.16263e-08
1.03108e-07
2.34546e-07
3.90713e-07
5.64004e-07
7.49621e-07
9.44298e-07
1.1459e-06
1.35328e-06
1.56624e-06
1.78544e-06
2.01243e-06
2.24952e-06
2.49976e-06
2.76686e-06
3.0551e-06
3.36929e-06
3.71468e-06
4.09689e-06
4.52184e-06
4.99575e-06
5.52501e-06
6.11619e-06
6.77599e-06
7.51119e-06
8.32861e-06
9.23505e-06
1.02372e-05
1.13417e-05
1.25549e-05
1.38825e-05
1.53302e-05
1.69028e-05
1.86042e-05
2.04375e-05
2.24046e-05
2.45065e-05
2.67422e-05
2.91097e-05
3.16047e-05
3.42213e-05
3.6951e-05
3.97829e-05
4.27027e-05
4.56928e-05
4.8731e-05
5.17902e-05
5.48369e-05
5.78306e-05
6.07223e-05
6.3453e-05
6.59527e-05
6.81386e-05
6.99185e-05
7.10956e-05
7.15794e-05
7.15911e-05
7.06702e-05
6.87783e-05
6.59045e-05
6.20631e-05
5.73275e-05
5.18402e-05
4.58103e-05
3.9495e-05
3.31715e-05
2.71025e-05
2.1504e-05
1.65229e-05
1.22296e-05
8.62489e-06
5.6601e-06
3.26716e-06
1.40538e-06
1.579e-07
1.55594e-08
1.38637e-07
3.16144e-07
5.27408e-07
7.61978e-07
1.01325e-06
1.27675e-06
1.54954e-06
1.83008e-06
2.11806e-06
2.41444e-06
2.72129e-06
3.0418e-06
3.38012e-06
3.74133e-06
4.13128e-06
4.55654e-06
5.02428e-06
5.54221e-06
6.11847e-06
6.76156e-06
7.4803e-06
8.28376e-06
9.1812e-06
1.0182e-05
1.12957e-05
1.25317e-05
1.38993e-05
1.54077e-05
1.70655e-05
1.88807e-05
2.08607e-05
2.30115e-05
2.53379e-05
2.78428e-05
3.05273e-05
3.33904e-05
3.64285e-05
3.96353e-05
4.30019e-05
4.65161e-05
5.01631e-05
5.39244e-05
5.77787e-05
6.17006e-05
6.56607e-05
6.96246e-05
7.3552e-05
7.7395e-05
8.10963e-05
8.45866e-05
8.77828e-05
9.05848e-05
9.28787e-05
9.44245e-05
9.5082e-05
9.51354e-05
9.39984e-05
9.15834e-05
8.78712e-05
8.28652e-05
7.66474e-05
6.93962e-05
6.1384e-05
5.29546e-05
4.4485e-05
3.63373e-05
2.88125e-05
2.21171e-05
1.6351e-05
1.15166e-05
7.54717e-06
4.34884e-06
1.86596e-06
2.08638e-07
1.98224e-08
1.77064e-07
4.04485e-07
6.75573e-07
9.76762e-07
1.29944e-06
1.63777e-06
1.98794e-06
2.34794e-06
2.71739e-06
3.09752e-06
3.49105e-06
3.90212e-06
4.33612e-06
4.79965e-06
5.30032e-06
5.84667e-06
6.44803e-06
7.11443e-06
7.85649e-06
8.68532e-06
9.61248e-06
1.06499e-05
1.18096e-05
1.31042e-05
1.45459e-05
1.61473e-05
1.79205e-05
1.98774e-05
2.2029e-05
2.43854e-05
2.6955e-05
2.97444e-05
3.27581e-05
3.59972e-05
3.946e-05
4.3141e-05
4.70307e-05
5.1116e-05
5.53798e-05
5.98013e-05
6.43567e-05
6.90192e-05
7.37596e-05
7.85467e-05
8.33465e-05
8.81218e-05
9.28307e-05
9.74241e-05
0.000101842
0.000106012
0.000109843
0.000113219
0.000116007
0.000117947
0.000118815
0.000118944
0.000117667
0.000114804
0.000110333
0.000104236
9.65963e-05
8.76188e-05
7.7632e-05
6.70628e-05
5.63897e-05
4.60812e-05
3.65343e-05
2.80273e-05
2.06995e-05
1.45612e-05
9.52884e-06
5.48186e-06
2.34754e-06
2.61788e-07
2.43943e-08
2.18225e-07
4.99148e-07
8.34451e-07
1.20721e-06
1.60663e-06
2.02537e-06
2.45866e-06
2.90395e-06
3.36081e-06
3.83079e-06
4.31731e-06
4.82557e-06
5.36236e-06
5.93593e-06
6.55586e-06
7.23286e-06
7.97866e-06
8.80587e-06
9.72787e-06
1.07587e-05
1.19129e-05
1.32056e-05
1.46521e-05
1.62681e-05
1.80693e-05
2.00713e-05
2.22892e-05
2.47376e-05
2.74294e-05
3.03761e-05
3.35865e-05
3.70663e-05
4.08173e-05
4.48367e-05
4.91168e-05
5.36442e-05
5.84005e-05
6.33619e-05
6.85004e-05
7.37843e-05
7.91801e-05
8.46532e-05
9.01693e-05
9.56948e-05
0.000101197
0.000106642
0.000111993
0.000117206
0.000122226
0.000126979
0.000131368
0.000135267
0.000138519
0.000140863
0.000141964
0.000142194
0.000140849
0.000137626
0.000132505
0.000125443
0.000116515
0.00010594
9.40872e-05
8.1455e-05
6.86154e-05
5.61435e-05
4.45398e-05
3.41671e-05
2.52176e-05
1.772e-05
1.15801e-05
6.65182e-06
2.84402e-06
3.16647e-07
2.92655e-08
2.62046e-07
5.99938e-07
1.00367e-06
1.45275e-06
1.934e-06
2.43847e-06
2.96032e-06
3.49646e-06
4.04639e-06
4.612e-06
5.19753e-06
5.80932e-06
6.45571e-06
7.14681e-06
7.89431e-06
8.71134e-06
9.61227e-06
1.06126e-05
1.17286e-05
1.29776e-05
1.43775e-05
1.59468e-05
1.77044e-05
1.96695e-05
2.18611e-05
2.4298e-05
2.69982e-05
2.99783e-05
3.32528e-05
3.68332e-05
4.07268e-05
4.49364e-05
4.94585e-05
5.42829e-05
5.93924e-05
6.47622e-05
7.03611e-05
7.61519e-05
8.20938e-05
8.81442e-05
9.42611e-05
0.000100405
0.000106543
0.000112644
0.000118683
0.000124638
0.000130483
0.000136182
0.000141688
0.000146926
0.000151795
0.000156154
0.000159824
0.00016255
0.000163878
0.000164215
0.000162856
0.000159358
0.000153711
0.000145847
0.000135821
0.000123853
0.000110332
9.58059e-05
8.09238e-05
6.63601e-05
5.27224e-05
4.04696e-05
2.98638e-05
2.09668e-05
1.36844e-05
7.84911e-06
3.35118e-06
3.72756e-07
3.44339e-08
3.08519e-07
7.06814e-07
1.18312e-06
1.71316e-06
2.28124e-06
2.87663e-06
3.49235e-06
4.12474e-06
4.77322e-06
5.4401e-06
6.13047e-06
6.85201e-06
7.6147e-06
8.43069e-06
9.31402e-06
1.02804e-05
1.13472e-05
1.25329e-05
1.38571e-05
1.53406e-05
1.70049e-05
1.88722e-05
2.09651e-05
2.33063e-05
2.59183e-05
2.88228e-05
3.20402e-05
3.55884e-05
3.9482e-05
4.37307e-05
4.83385e-05
5.33019e-05
5.86088e-05
6.4238e-05
7.01588e-05
7.63318e-05
8.271e-05
8.92416e-05
9.58732e-05
0.000102553
0.000109236
0.000115883
0.000122468
0.000128972
0.000135385
0.000141699
0.000147902
0.00015397
0.000159858
0.000165491
0.000170756
0.000175498
0.000179519
0.000182566
0.000184082
0.00018451
0.000183164
0.000179469
0.000173428
0.000164949
0.000154059
0.000140957
0.000126033
0.000109854
9.31239e-05
7.66019e-05
6.10011e-05
4.68878e-05
3.46114e-05
2.42862e-05
1.58322e-05
9.06803e-06
3.86628e-06
4.29912e-07
3.99034e-08
3.57681e-07
8.19853e-07
1.37291e-06
1.98857e-06
2.64843e-06
3.33989e-06
4.05475e-06
4.78873e-06
5.54117e-06
6.31487e-06
7.11589e-06
7.95331e-06
8.83896e-06
9.78721e-06
1.08146e-05
1.19399e-05
1.31832e-05
1.45666e-05
1.61133e-05
1.78477e-05
1.97951e-05
2.19814e-05
2.44332e-05
2.71766e-05
3.02374e-05
3.36396e-05
3.74052e-05
4.1552e-05
4.6093e-05
5.10341e-05
5.63724e-05
6.20951e-05
6.81778e-05
7.45845e-05
8.12677e-05
8.81705e-05
9.52293e-05
0.000102378
0.000109555
0.000116703
0.000123779
0.000130755
0.000137617
0.000144367
0.000151012
0.000157562
0.000164016
0.000170357
0.000176539
0.000182479
0.000188052
0.000193087
0.000197368
0.000200639
0.000202286
0.000202773
0.000201443
0.000197623
0.000191323
0.000182424
0.000170921
0.000156978
0.000140955
0.000123412
0.000105078
8.67772e-05
6.93216e-05
5.3393e-05
3.94468e-05
2.76718e-05
1.80199e-05
1.03062e-05
4.38818e-06
4.87908e-07
4.56819e-08
4.09609e-07
9.39221e-07
1.57329e-06
2.27929e-06
3.03597e-06
3.82869e-06
4.64799e-06
5.48891e-06
6.35073e-06
7.23681e-06
8.15425e-06
9.11369e-06
1.0129e-05
1.12169e-05
1.23967e-05
1.36902e-05
1.5121e-05
1.67145e-05
1.84979e-05
2.04993e-05
2.2748e-05
2.52739e-05
2.81072e-05
3.12773e-05
3.48126e-05
3.87389e-05
4.30781e-05
4.78468e-05
5.30536e-05
5.86977e-05
6.47665e-05
7.12338e-05
7.80595e-05
8.51892e-05
9.25565e-05
0.000100086
0.000107699
0.000115319
0.000122879
0.000130325
0.000137627
0.000144773
0.000151769
0.00015864
0.000165412
0.000172108
0.000178737
0.000185279
0.000191681
0.000197845
0.000203631
0.000208856
0.000213293
0.00021668
0.000218387
0.0002189
0.000217566
0.000213689
0.000207255
0.000198125
0.000186258
0.000171766
0.000154961
0.000136364
0.000116698
9.68278e-05
7.76522e-05
5.99723e-05
4.43677e-05
3.11246e-05
2.02485e-05
1.15637e-05
4.91678e-06
5.46704e-07
5.1781e-08
4.64409e-07
1.06516e-06
1.78465e-06
2.58585e-06
3.44449e-06
4.34379e-06
5.2729e-06
6.22616e-06
7.20285e-06
8.20688e-06
9.24654e-06
1.03342e-05
1.14858e-05
1.27207e-05
1.40613e-05
1.55325e-05
1.71614e-05
1.89775e-05
2.10114e-05
2.32957e-05
2.58634e-05
2.87483e-05
3.1984e-05
3.56028e-05
3.96348e-05
4.41065e-05
4.90383e-05
5.44428e-05
6.03222e-05
6.66655e-05
7.34467e-05
8.06231e-05
8.81354e-05
9.59089e-05
0.000103857
0.000111889
0.000119912
0.000127846
0.000135627
0.000143215
0.000150596
0.000157783
0.000164808
0.000171716
0.00017855
0.000185342
0.000192098
0.000198789
0.000205346
0.000211657
0.000217567
0.00022288
0.000227368
0.000230768
0.000232467
0.000232972
0.000231611
0.000227722
0.000221265
0.000212068
0.000200055
0.000185284
0.000167997
0.000148652
0.000127935
0.000106721
8.59776e-05
6.66245e-05
4.93795e-05
3.46515e-05
2.2523e-05
1.28431e-05
5.4528e-06
6.06363e-07
5.82152e-08
5.22213e-07
1.19796e-06
2.00746e-06
2.90892e-06
3.87484e-06
4.88618e-06
5.9306e-06
7.00173e-06
8.09882e-06
9.22645e-06
1.03942e-05
1.16161e-05
1.29107e-05
1.43001e-05
1.58097e-05
1.74679e-05
1.93057e-05
2.13561e-05
2.36543e-05
2.62364e-05
2.91397e-05
3.24014e-05
3.60581e-05
4.01443e-05
4.46908e-05
4.97231e-05
5.52582e-05
6.13024e-05
6.78481e-05
7.48712e-05
8.23288e-05
9.01586e-05
9.82801e-05
0.000106598
0.000115007
0.000123402
0.000131686
0.000139782
0.000147637
0.000155234
0.000162583
0.000169725
0.000176718
0.000183624
0.000190495
0.000197363
0.000204223
0.000211028
0.000217693
0.000224086
0.00023004
0.000235356
0.000239809
0.000243129
0.000244769
0.00024524
0.000243826
0.000239945
0.000233545
0.000224402
0.000212415
0.000197584
0.000180074
0.000160261
0.000138765
0.000116438
9.42915e-05
7.33539e-05
5.44928e-05
3.82633e-05
2.4851e-05
1.41479e-05
5.99753e-06
6.67019e-07
6.50014e-08
5.83176e-07
1.33797e-06
2.24229e-06
3.24929e-06
4.32803e-06
5.45705e-06
6.62246e-06
7.81711e-06
9.04024e-06
1.02971e-05
1.15987e-05
1.29612e-05
1.44054e-05
1.59565e-05
1.76432e-05
1.94975e-05
2.15544e-05
2.38508e-05
2.6426e-05
2.932e-05
3.25738e-05
3.6228e-05
4.03213e-05
4.48895e-05
4.99629e-05
5.55639e-05
6.1704e-05
6.83805e-05
7.55729e-05
8.32406e-05
9.13213e-05
9.9731e-05
0.000108367
0.000117115
0.000125854
0.000134472
0.000142876
0.000150997
0.000158809
0.000166317
0.000173565
0.000180622
0.000187566
0.00019447
0.000201389
0.000208341
0.000215304
0.000222211
0.000228952
0.000235382
0.000241327
0.000246586
0.000250944
0.000254121
0.000255664
0.00025608
0.000254585
0.000250712
0.000244397
0.000235381
0.000223525
0.000208787
0.000191255
0.00017121
0.000149181
0.000125967
0.000102588
8.01655e-05
5.97191e-05
4.19722e-05
2.72414e-05
1.5483e-05
6.55263e-06
7.28847e-07
7.21588e-08
6.4747e-07
1.48559e-06
2.48979e-06
3.60787e-06
4.80521e-06
6.05779e-06
7.35004e-06
8.67398e-06
1.00289e-05
1.14208e-05
1.28621e-05
1.43711e-05
1.59715e-05
1.76913e-05
1.95629e-05
2.16221e-05
2.39078e-05
2.6461e-05
2.93248e-05
3.25433e-05
3.61607e-05
4.02202e-05
4.47621e-05
4.98222e-05
5.54285e-05
6.15986e-05
6.83358e-05
7.56254e-05
8.34314e-05
9.16941e-05
0.000100329
0.000109231
0.000118276
0.000127332
0.000136271
0.000144981
0.000153378
0.000161419
0.000169101
0.000176467
0.000183591
0.000190565
0.000197483
0.000204422
0.000211425
0.000218494
0.000225581
0.000232595
0.000239407
0.000245858
0.000251769
0.000256944
0.000261179
0.000264181
0.000265605
0.000265953
0.000264345
0.000260458
0.000254206
0.000245329
0.000233641
0.000219069
0.000201641
0.00018154
0.000159187
0.000135295
0.000110859
8.70603e-05
6.50678e-05
4.57901e-05
2.97036e-05
1.68535e-05
7.11994e-06
7.92045e-07
7.97083e-08
7.15285e-07
1.64125e-06
2.75066e-06
3.98564e-06
5.30764e-06
6.6899e-06
8.11504e-06
9.5742e-06
1.10666e-05
1.25992e-05
1.4186e-05
1.58476e-05
1.76103e-05
1.95056e-05
2.15696e-05
2.38419e-05
2.63653e-05
2.9185e-05
3.23479e-05
3.59016e-05
3.98931e-05
4.43676e-05
4.93659e-05
5.49222e-05
6.10607e-05
6.77918e-05
7.51081e-05
8.29804e-05
9.13544e-05
0.000100149
0.000109259
0.000118555
0.000127897
0.000137141
0.000146158
0.000154844
0.000163137
0.000171022
0.000178533
0.000185745
0.000192761
0.000199694
0.000206644
0.00021368
0.00022083
0.000228067
0.00023532
0.000242473
0.000249377
0.000255863
0.00026175
0.000266848
0.000270965
0.000273785
0.000275083
0.000275354
0.000273597
0.000269652
0.000263404
0.000254611
0.00024306
0.000228649
0.000211368
0.000191314
0.000168795
0.000144409
0.000119086
9.40317e-05
7.05436e-05
4.9727e-05
3.22466e-05
1.82645e-05
7.7013e-06
8.56812e-07
8.76726e-08
7.86825e-07
1.8054e-06
3.02567e-06
4.38367e-06
5.8367e-06
7.35502e-06
8.9193e-06
1.05197e-05
1.21555e-05
1.38345e-05
1.55724e-05
1.73921e-05
1.93231e-05
2.14004e-05
2.36635e-05
2.61563e-05
2.89255e-05
3.20202e-05
3.54908e-05
3.93881e-05
4.37615e-05
4.86569e-05
5.41146e-05
6.01657e-05
6.68284e-05
7.41039e-05
8.19716e-05
9.03854e-05
9.9271e-05
0.000108526
0.000118021
0.000127609
0.000137137
0.000146457
0.000155445
0.000164018
0.000172141
0.000179834
0.000187169
0.000194255
0.000201219
0.000208184
0.000215248
0.000222467
0.000229842
0.00023732
0.000244801
0.000252145
0.000259189
0.000265755
0.000271659
0.000276718
0.000280751
0.000283406
0.000284581
0.000284768
0.000282827
0.000278765
0.000272433
0.000263617
0.000252107
0.000237777
0.000220603
0.00020062
0.000178028
0.000153297
0.000127247
0.000101064
7.61443e-05
5.37891e-05
3.4878e-05
1.97206e-05
8.29841e-06
9.23334e-07
9.60758e-08
8.6231e-07
1.97854e-06
3.31563e-06
4.80312e-06
6.39385e-06
8.05486e-06
9.76473e-06
1.15126e-05
1.32976e-05
1.51285e-05
1.70228e-05
1.90061e-05
2.1111e-05
2.33758e-05
2.58443e-05
2.85641e-05
3.15858e-05
3.49623e-05
3.87474e-05
4.29943e-05
4.77539e-05
5.30721e-05
5.89871e-05
6.55253e-05
7.26971e-05
8.04921e-05
8.88744e-05
9.77793e-05
0.000107111
0.000116746
0.000126534
0.000136314
0.000145924
0.000155221
0.000164098
0.000172496
0.000180416
0.000187919
0.000195113
0.000202134
0.00020913
0.000216225
0.000223507
0.000231009
0.000238703
0.000246508
0.000254295
0.000261906
0.000269161
0.000275874
0.000281862
0.000286945
0.000290946
0.000293474
0.000294539
0.00029464
0.000292486
0.000288238
0.000281722
0.000272743
0.000261123
0.000246729
0.000229544
0.000209575
0.000186931
0.00016195
0.000135315
0.000108135
8.18606e-05
5.79784e-05
3.76032e-05
2.12259e-05
8.91275e-06
9.91772e-07
1.04944e-07
9.41968e-07
2.16121e-06
3.62139e-06
5.24518e-06
6.9806e-06
8.79123e-06
1.06533e-05
1.25548e-05
1.44948e-05
1.6483e-05
1.85389e-05
2.06907e-05
2.29742e-05
2.54318e-05
2.81108e-05
3.10629e-05
3.43425e-05
3.8006e-05
4.21099e-05
4.67094e-05
5.1856e-05
5.75945e-05
6.39594e-05
7.09709e-05
7.86295e-05
8.69113e-05
9.57635e-05
0.000105102
0.000114809
0.00012474
0.00013473
0.000144606
0.000154209
0.000163405
0.000172112
0.000180305
0.000188026
0.000195374
0.000202491
0.000209539
0.000216672
0.000224012
0.000231627
0.000239522
0.00024764
0.00025587
0.000264058
0.000272024
0.000279577
0.000286524
0.000292679
0.000297861
0.000301895
0.000304349
0.00030533
0.00030534
0.000302957
0.00029846
0.000291654
0.000282364
0.000270449
0.000255799
0.000238417
0.000218324
0.000195572
0.000170377
0.000143263
0.000115213
8.76757e-05
6.22918e-05
4.04256e-05
2.27836e-05
9.54547e-06
1.06226e-06
1.14303e-07
1.02604e-06
2.35394e-06
3.94386e-06
5.71112e-06
7.59856e-06
9.56598e-06
1.15871e-05
1.36484e-05
1.57491e-05
1.78997e-05
2.01218e-05
2.24465e-05
2.4913e-05
2.75674e-05
3.04611e-05
3.36495e-05
3.71907e-05
4.11442e-05
4.55688e-05
5.05209e-05
5.60515e-05
6.22031e-05
6.90054e-05
7.64702e-05
8.45867e-05
9.33159e-05
0.000102587
0.000112295
0.000122303
0.000132449
0.000142554
0.000152444
0.000161965
0.000171005
0.000179513
0.000187503
0.000195057
0.000202314
0.000209446
0.000216631
0.000224024
0.000231732
0.000239801
0.000248206
0.000256859
0.000265618
0.000274308
0.000282729
0.000290676
0.00029795
0.000304357
0.000309716
0.000313849
0.000316293
0.000317242
0.000317144
0.00031454
0.000309746
0.000302561
0.000292819
0.000280414
0.000265284
0.00024747
0.000227045
0.000204048
0.000178605
0.000151074
0.000122268
9.35667e-05
6.67214e-05
4.33458e-05
2.4396e-05
1.01974e-05
1.13489e-06
1.24183e-07
1.11478e-06
2.55731e-06
4.28399e-06
6.20226e-06
8.24938e-06
1.0381e-05
1.2568e-05
1.47955e-05
1.70622e-05
1.938e-05
2.17725e-05
2.42737e-05
2.69266e-05
2.9781e-05
3.28922e-05
3.63195e-05
4.01242e-05
4.43685e-05
4.91129e-05
5.44142e-05
6.0322e-05
6.68752e-05
7.40969e-05
8.19896e-05
9.05294e-05
9.96612e-05
0.000109296
0.000119308
0.000129544
0.000139825
0.000149969
0.000159803
0.000169189
0.000178043
0.00018635
0.000194166
0.000201615
0.00020887
0.000216126
0.00022357
0.000231351
0.000239555
0.000248202
0.000257234
0.000266532
0.000275927
0.00028522
0.000294193
0.000302629
0.000310317
0.000317061
0.000322672
0.000326971
0.000329471
0.000330426
0.000330241
0.000327435
0.000322325
0.000314697
0.000304391
0.00029132
0.000275476
0.000256967
0.000235945
0.000212492
0.000186688
0.000158744
0.000129269
9.95067e-05
7.12547e-05
4.6362e-05
2.60644e-05
1.08692e-05
1.20972e-06
1.34617e-07
1.20845e-06
2.77192e-06
4.64276e-06
6.71996e-06
8.93476e-06
1.12383e-05
1.35982e-05
1.5998e-05
1.8436e-05
2.09252e-05
2.34915e-05
2.61723e-05
2.90139e-05
3.20702e-05
3.54005e-05
3.90675e-05
4.31356e-05
4.76691e-05
5.27296e-05
5.83734e-05
6.46476e-05
7.15863e-05
7.9205e-05
8.74952e-05
9.64189e-05
0.000105905
0.000115844
0.000126095
0.000136488
0.000146835
0.000156953
0.000166679
0.000175899
0.000184561
0.000192691
0.000200388
0.000207814
0.000215172
0.000222674
0.000230506
0.000238803
0.00024763
0.000256973
0.000266744
0.000276793
0.000286924
0.000296913
0.000306526
0.000315533
0.000323713
0.000330863
0.000336793
0.000341321
0.000343941
0.000344934
0.000344706
0.000341741
0.000336325
0.000328234
0.000317291
0.000303416
0.000286645
0.000267169
0.00024525
0.000221065
0.000194711
0.000166289
0.000136194
0.000105467
7.58757e-05
4.94701e-05
2.77892e-05
1.15609e-05
1.28679e-06
1.45635e-07
1.30732e-06
2.99841e-06
5.02119e-06
7.26565e-06
9.65647e-06
1.21398e-05
1.46797e-05
1.72576e-05
1.98718e-05
2.25361e-05
2.52791e-05
2.81413e-05
3.11729e-05
3.44319e-05
3.79811e-05
4.18869e-05
4.62162e-05
5.10348e-05
5.64048e-05
6.2381e-05
6.90073e-05
7.63115e-05
8.43003e-05
9.29535e-05
0.000102218
0.000112007
0.000122194
0.00013262
0.000143105
0.000153458
0.0001635
0.000173086
0.00018213
0.000190618
0.000198618
0.00020627
0.000213772
0.000221349
0.000229221
0.000237569
0.000246508
0.000256075
0.000266226
0.000276838
0.000287732
0.000298684
0.000309448
0.000319773
0.000329413
0.000338142
0.00034575
0.000352049
0.000356859
0.000359658
0.00036072
0.000360509
0.000357449
0.000351778
0.000343247
0.000331649
0.000316887
0.00029902
0.000278326
0.000255194
0.000229954
0.000202789
0.000173751
0.000143032
0.00011142
8.05653e-05
5.26638e-05
2.95696e-05
1.22724e-05
1.36607e-06
1.57268e-07
1.41169e-06
3.23743e-06
5.42036e-06
7.84079e-06
1.04163e-05
1.30874e-05
1.58144e-05
1.85763e-05
2.13709e-05
2.42134e-05
2.71349e-05
3.01794e-05
3.34011e-05
3.68619e-05
4.06286e-05
4.47702e-05
4.93562e-05
5.44535e-05
6.01235e-05
6.64189e-05
7.33792e-05
8.10252e-05
8.9354e-05
9.83328e-05
0.000107894
0.000117934
0.000128311
0.000138856
0.000149378
0.000159689
0.000169621
0.000179053
0.000187932
0.000196285
0.00020422
0.000211916
0.000219602
0.000227518
0.000235884
0.00024487
0.000254567
0.000264982
0.000276037
0.000287577
0.000299392
0.000311232
0.000322828
0.000333911
0.000344224
0.000353533
0.000361629
0.000368328
0.000373456
0.000376492
0.000377658
0.000377523
0.000374456
0.000368613
0.000359717
0.000347506
0.00033184
0.000312772
0.000290652
0.000266008
0.000239363
0.000211065
0.000181197
0.000149788
0.000117343
8.53029e-05
5.59348e-05
3.14043e-05
1.30034e-05
1.44753e-06
1.69551e-07
1.52186e-06
3.48966e-06
5.84136e-06
8.44689e-06
1.1216e-05
1.40832e-05
1.70042e-05
1.99555e-05
2.29343e-05
2.59573e-05
2.90582e-05
3.22847e-05
3.56952e-05
3.93557e-05
4.33363e-05
4.77091e-05
5.25451e-05
5.79118e-05
6.38696e-05
7.04681e-05
7.77414e-05
8.57027e-05
9.43386e-05
0.000103604
0.000113417
0.000123658
0.000134174
0.000144784
0.000155298
0.000165533
0.000175339
0.000184622
0.000193367
0.000201639
0.000209588
0.000217429
0.000225411
0.000233783
0.000242761
0.000252497
0.000263054
0.000274408
0.000286446
0.000298982
0.000311773
0.000324543
0.000337001
0.000348862
0.000359859
0.000369755
0.000378344
0.00038545
0.000390916
0.000394244
0.000395555
0.000395543
0.000392572
0.000386673
0.000377529
0.000364809
0.000348297
0.000328005
0.000304318
0.000277899
0.000249499
0.000219703
0.000188719
0.000156486
0.000123219
9.00676e-05
5.92732e-05
3.32909e-05
1.37533e-05
1.53112e-06
1.82519e-07
1.63817e-06
3.75582e-06
6.28535e-06
9.08551e-06
1.20576e-05
1.51292e-05
1.8251e-05
2.13967e-05
2.45628e-05
2.77676e-05
3.10476e-05
3.44546e-05
3.80512e-05
4.19074e-05
4.60969e-05
5.0694e-05
5.57714e-05
6.13962e-05
6.7627e-05
7.45097e-05
8.20724e-05
9.03201e-05
9.92288e-05
0.000108741
0.00011876
0.000129156
0.000139764
0.000150398
0.000160871
0.00017101
0.000180689
0.000189846
0.000198501
0.000206761
0.000214814
0.000222903
0.000231291
0.000240231
0.000249929
0.000260511
0.000272015
0.00028438
0.00029746
0.000311034
0.00032483
0.000338544
0.000351867
0.000364498
0.000376164
0.000386627
0.000395691
0.000403193
0.000408993
0.000412659
0.000414185
0.000414303
0.000411549
0.000405728
0.000396491
0.000383419
0.000366193
0.00034474
0.000319431
0.000291041
0.00026056
0.000228879
0.000196433
0.000163169
0.000129043
9.48395e-05
6.26674e-05
3.52266e-05
1.45213e-05
1.61674e-06
1.9621e-07
1.76093e-06
4.03666e-06
6.75353e-06
9.75828e-06
1.29429e-05
1.62273e-05
1.95566e-05
2.29011e-05
2.62569e-05
2.96436e-05
3.31014e-05
3.6686e-05
4.04645e-05
4.4511e-05
4.89024e-05
5.37153e-05
5.9023e-05
6.48922e-05
7.1379e-05
7.8525e-05
8.63517e-05
9.48556e-05
0.000104002
0.000113721
0.000123906
0.000134414
0.000145075
0.000155701
0.00016611
0.000176149
0.000185716
0.000194782
0.000203406
0.000211733
0.000219984
0.000228422
0.000237322
0.000246933
0.000257442
0.000268952
0.000281467
0.000294893
0.000309049
0.000323679
0.000338482
0.00035313
0.000367293
0.00038066
0.000392955
0.000403944
0.000413446
0.000421314
0.00042743
0.000431465
0.000433252
0.000433527
0.000431096
0.000425497
0.000416345
0.000403121
0.00038538
0.000362915
0.000336028
0.000305558
0.000272724
0.000238772
0.000204475
0.000169902
0.000134819
9.96013e-05
6.61053e-05
3.72075e-05
1.53064e-05
1.70428e-06
2.10664e-07
1.8905e-06
4.33295e-06
7.24713e-06
1.04668e-05
1.38738e-05
1.73795e-05
2.09225e-05
2.44698e-05
2.80166e-05
3.15845e-05
3.52172e-05
3.89751e-05
4.29299e-05
4.71595e-05
5.17442e-05
5.67623e-05
6.22877e-05
6.83858e-05
7.51097e-05
8.24963e-05
9.05603e-05
9.92895e-05
0.000108639
0.000118529
0.000128841
0.000139426
0.000150107
0.000160703
0.000171041
0.000180988
0.000190471
0.000199495
0.000208155
0.000216633
0.000225174
0.000234061
0.000243569
0.000253938
0.000265334
0.000277832
0.000291403
0.000305918
0.000321158
0.000336836
0.000352622
0.000368165
0.000383119
0.000397165
0.000410029
0.000421487
0.000431373
0.000439567
0.000445972
0.000450385
0.000452468
0.00045293
0.00045091
0.000445672
0.000436793
0.000423644
0.000405635
0.00038239
0.000354068
0.00032151
0.000286129
0.000249552
0.000212987
0.000176767
0.000140566
0.00010434
6.95737e-05
3.92294e-05
1.61075e-05
1.79362e-06
2.25921e-07
2.02725e-06
4.64549e-06
7.76745e-06
1.12129e-05
1.48524e-05
1.85877e-05
2.23504e-05
2.61036e-05
2.98417e-05
3.35888e-05
3.73923e-05
4.13177e-05
4.54414e-05
4.98456e-05
5.46133e-05
5.98246e-05
6.55532e-05
7.18629e-05
7.88038e-05
8.64072e-05
9.46814e-05
0.000103605
0.000113126
0.000123152
0.000133558
0.000144189
0.00015487
0.000165424
0.000175695
0.000185571
0.000195008
0.000204048
0.000212818
0.000221531
0.000230455
0.000239881
0.000250081
0.000261278
0.000273618
0.000287145
0.000301794
0.000317399
0.000333707
0.0003504
0.000367121
0.000383498
0.000399173
0.000413824
0.000427182
0.00043904
0.000449251
0.000457723
0.000464385
0.000469151
0.000471563
0.000472242
0.000470696
0.000465944
0.000457517
0.00044468
0.000426684
0.000402952
0.000373435
0.000338893
0.000300869
0.000261368
0.000222119
0.000183862
0.000146317
0.000109046
7.30597e-05
4.12871e-05
1.69231e-05
1.8846e-06
2.42025e-07
2.17154e-06
4.97514e-06
8.31583e-06
1.19983e-05
1.58805e-05
1.98538e-05
2.38417e-05
2.7803e-05
3.17318e-05
3.56546e-05
3.96234e-05
4.37091e-05
4.79931e-05
5.25616e-05
5.75006e-05
6.28914e-05
6.88075e-05
7.53106e-05
8.24471e-05
9.02434e-05
9.87007e-05
0.000107791
0.000117451
0.000127583
0.000138057
0.000148714
0.000159381
0.000169893
0.00018011
0.000189946
0.000199387
0.000208506
0.000217463
0.000226493
0.000235885
0.000245929
0.000256888
0.00026897
0.000282292
0.000296865
0.000312589
0.000329263
0.0003466
0.000364251
0.000381837
0.000398968
0.00041528
0.000430451
0.000444222
0.000456405
0.000466878
0.000475577
0.000482469
0.000487523
0.000490306
0.000491225
0.000490188
0.000486024
0.000478209
0.00046591
0.000448216
0.000424333
0.000393941
0.000357629
0.00031698
0.000274339
0.000232012
0.000191296
0.000152117
0.00011372
7.65503e-05
4.33745e-05
1.77517e-05
1.97703e-06
2.5902e-07
2.32379e-06
5.32278e-06
8.89366e-06
1.28247e-05
1.69602e-05
2.11796e-05
2.53976e-05
2.95685e-05
3.3686e-05
3.77796e-05
4.19069e-05
4.61441e-05
5.05782e-05
5.52996e-05
6.03969e-05
6.59525e-05
7.20392e-05
7.87167e-05
8.60275e-05
9.39927e-05
0.000102607
0.000111836
0.000121609
0.000131824
0.000142343
0.000153012
0.000163662
0.000174141
0.000184329
0.000194165
0.000203665
0.000212931
0.000222149
0.000231576
0.000241511
0.000252241
0.000264013
0.000277013
0.000291333
0.000306948
0.000323724
0.000341423
0.000359727
0.000378262
0.000396626
0.000414419
0.000431273
0.000446873
0.000460974
0.000473408
0.00048408
0.000492956
0.000500039
0.000505335
0.000508505
0.000509689
0.000509163
0.000505658
0.000498583
0.000487024
0.000469911
0.000446227
0.000415342
0.000377574
0.000334438
0.000288543
0.000242794
0.000199181
0.000158024
0.000118365
8.00337e-05
4.54852e-05
1.85913e-05
2.07071e-06
2.76954e-07
2.4844e-06
5.68933e-06
9.5024e-06
1.36941e-05
1.80936e-05
2.25669e-05
2.70193e-05
3.14e-05
3.57029e-05
3.99614e-05
4.42385e-05
4.86173e-05
5.31901e-05
5.80517e-05
6.32933e-05
6.89982e-05
7.52382e-05
8.20707e-05
8.95345e-05
9.76458e-05
0.000106394
0.000115737
0.000125601
0.000135877
0.00014643
0.000157104
0.000167744
0.000178209
0.0001884
0.000198283
0.0002079
0.000217382
0.000226933
0.000236828
0.000247373
0.000258839
0.000271459
0.000285396
0.00030071
0.000317342
0.000335124
0.000353784
0.000372977
0.000392303
0.000411347
0.000429702
0.000447001
0.000462939
0.000477288
0.000489903
0.000500718
0.000509725
0.000516958
0.000522454
0.000526011
0.0005275
0.000527445
0.000524642
0.000518398
0.000507738
0.000491456
0.000468313
0.00043735
0.000398522