/*--------------------------------*- C++ -*----------------------------------*\
  =========                 |
  \\      /  F ield         | OpenFOAM: The Open Source CFD Toolbox
   \\    /   O peration     | Website:  https://openfoam.org
    \\  /    A nd           | Version:  12
     \\/     M anipulation  |
\*---------------------------------------------------------------------------*/
FoamFile
{
    format      ascii;
    class       volVectorField;
    location    "3";
    object      U;
}
// * * * * * * * * * * * * * * * * * * * * * * * * * * * * * * * * * * * * * //

dimensions      [0 1 -1 0 0 0 0];

internalField   nonuniform List<vector> 
5625
(
(-6.33689e-06 2.61425e-06 0)
(8.6009e-06 -2.63549e-06 0)
(6.3266e-05 -6.15363e-06 0)
(0.000144078 -8.0445e-06 0)
(0.000238956 -8.87795e-06 0)
(0.000339015 -8.99722e-06 0)
(0.000437895 -8.66304e-06 0)
(0.000531291 -8.05098e-06 0)
(0.000616413 -7.28267e-06 0)
(0.000691572 -6.44123e-06 0)
(0.000755858 -5.58225e-06 0)
(0.000808878 -4.73978e-06 0)
(0.000850546 -3.93244e-06 0)
(0.000880928 -3.16749e-06 0)
(0.000900085 -2.43698e-06 0)
(0.000908005 -1.73794e-06 0)
(0.000904494 -1.04857e-06 0)
(0.000889046 -3.44932e-07 0)
(0.000860867 3.97703e-07 0)
(0.000818759 1.21113e-06 0)
(0.000761086 2.12967e-06 0)
(0.000685705 3.19432e-06 0)
(0.000589941 4.44941e-06 0)
(0.000470517 5.94309e-06 0)
(0.000323538 7.72878e-06 0)
(0.000144432 9.85846e-06 0)
(-7.20702e-05 1.23919e-05 0)
(-0.000331947 1.53921e-05 0)
(-0.000641909 1.89321e-05 0)
(-0.00100936 2.30799e-05 0)
(-0.00144232 2.79026e-05 0)
(-0.00194941 3.3468e-05 0)
(-0.00253965 3.98378e-05 0)
(-0.00322231 4.70632e-05 0)
(-0.00400662 5.51797e-05 0)
(-0.00490149 6.41999e-05 0)
(-0.005915 7.41061e-05 0)
(-0.00705402 8.48411e-05 0)
(-0.00832353 9.62992e-05 0)
(-0.00972603 0.000108317 0)
(-0.0112609 0.000120664 0)
(-0.0129235 0.000133038 0)
(-0.0147046 0.000145055 0)
(-0.0165898 0.000156252 0)
(-0.0185586 0.000166084 0)
(-0.0205843 0.00017393 0)
(-0.0226333 0.000179106 0)
(-0.0246652 0.000180882 0)
(-0.0266331 0.000178499 0)
(-0.0284838 0.000171225 0)
(-0.0301585 0.00015845 0)
(-0.0315906 0.00013861 0)
(-0.0327203 0.00011297 0)
(-0.0334748 8.09697e-05 0)
(-0.0338083 4.08618e-05 0)
(-0.033659 -3.6208e-06 0)
(-0.0329794 -5.26914e-05 0)
(-0.0317534 -0.000104901 0)
(-0.029979 -0.000157167 0)
(-0.0276838 -0.000206449 0)
(-0.0249264 -0.000249273 0)
(-0.0217974 -0.000282138 0)
(-0.0184175 -0.00030195 0)
(-0.0149309 -0.000306516 0)
(-0.0114952 -0.00029499 0)
(-0.00826808 -0.000268149 0)
(-0.00539292 -0.000228407 0)
(-0.00298452 -0.00017949 0)
(-0.00111892 -0.000125855 0)
(0.000172274 -7.21255e-05 0)
(0.000901547 -2.21885e-05 0)
(0.00112366 2.02138e-05 0)
(0.0009349 5.19167e-05 0)
(0.00050505 6.33291e-05 0)
(9.11274e-05 4.20776e-05 0)
(-4.35595e-06 -1.27212e-06 0)
(5.64533e-05 -3.76951e-05 0)
(0.000207636 -6.95878e-05 0)
(0.000421948 -8.93407e-05 0)
(0.000671785 -9.89512e-05 0)
(0.000935358 -0.000100948 0)
(0.00119613 -9.75731e-05 0)
(0.00144235 -9.05794e-05 0)
(0.00166605 -8.12776e-05 0)
(0.00186212 -7.06164e-05 0)
(0.0020275 -5.9254e-05 0)
(0.00216054 -4.76106e-05 0)
(0.00226044 -3.59204e-05 0)
(0.00232678 -2.42644e-05 0)
(0.00235916 -1.25876e-05 0)
(0.00235697 -7.74888e-07 0)
(0.00231903 1.14298e-05 0)
(0.00224328 2.43457e-05 0)
(0.00212689 3.83174e-05 0)
(0.00196579 5.37836e-05 0)
(0.00175467 7.12271e-05 0)
(0.00148678 9.11864e-05 0)
(0.00115384 0.000114254 0)
(0.000745842 0.00014105 0)
(0.000251059 0.000172207 0)
(-0.000344099 0.000208445 0)
(-0.00105522 0.000250508 0)
(-0.00189984 0.000299124 0)
(-0.00289718 0.000354985 0)
(-0.00406831 0.000418768 0)
(-0.00543581 0.000491078 0)
(-0.00702345 0.000572401 0)
(-0.00885571 0.000663048 0)
(-0.0109571 0.000763093 0)
(-0.0133512 0.000872302 0)
(-0.01606 0.000990049 0)
(-0.0191021 0.00111524 0)
(-0.0224915 0.00124622 0)
(-0.0262361 0.00138073 0)
(-0.0303357 0.00151579 0)
(-0.0347801 0.00164775 0)
(-0.0395478 0.0017722 0)
(-0.0446036 0.00188405 0)
(-0.0498976 0.00197755 0)
(-0.0553642 0.00204644 0)
(-0.0609206 0.00208407 0)
(-0.0664676 0.00208362 0)
(-0.0718895 0.00203832 0)
(-0.0770553 0.00194176 0)
(-0.0818211 0.00178823 0)
(-0.0860324 0.00157289 0)
(-0.0895224 0.00129112 0)
(-0.0921518 0.000941025 0)
(-0.0937053 0.000533962 0)
(-0.0941254 7.91157e-05 0)
(-0.0932544 -0.000437005 0)
(-0.0910014 -0.000980399 0)
(-0.0873397 -0.00153398 0)
(-0.0822886 -0.00207274 0)
(-0.0759361 -0.00256739 0)
(-0.0684429 -0.00298647 0)
(-0.0600438 -0.00329921 0)
(-0.0510416 -0.00347903 0)
(-0.0417927 -0.00350742 0)
(-0.032684 -0.00337749 0)
(-0.0241037 -0.00309622 0)
(-0.0164072 -0.00268486 0)
(-0.0098853 -0.00217688 0)
(-0.00473777 -0.00161386 0)
(-0.00105681 -0.00104063 0)
(0.00117689 -0.000501259 0)
(0.00209441 -3.79008e-05 0)
(0.00193849 0.000300211 0)
(0.00111839 0.000437811 0)
(0.000201217 0.000275211 0)
(2.71087e-06 -2.02964e-05 0)
(0.000116877 -0.000108686 0)
(0.000354496 -0.000185433 0)
(0.000679868 -0.000234731 0)
(0.00105546 -0.000259383 0)
(0.00145055 -0.000264675 0)
(0.00184081 -0.000255802 0)
(0.00220836 -0.000237065 0)
(0.00254065 -0.000211801 0)
(0.00282927 -0.000182482 0)
(0.00306891 -0.000150847 0)
(0.00325633 -0.000118019 0)
(0.00338957 -8.4626e-05 0)
(0.0034673 -5.08799e-05 0)
(0.00348813 -1.66349e-05 0)
(0.00345036 1.84339e-05 0)
(0.00335121 5.51052e-05 0)
(0.00318677 9.41822e-05 0)
(0.00295162 0.000136689 0)
(0.00263845 0.000183848 0)
(0.00223794 0.000237019 0)
(0.00173841 0.000297734 0)
(0.00112579 0.000367501 0)
(0.000383302 0.000448115 0)
(-0.000508781 0.00054145 0)
(-0.0015731 0.000649417 0)
(-0.00283507 0.000773909 0)
(-0.00432303 0.000916815 0)
(-0.00606815 0.00107996 0)
(-0.00810403 0.00126503 0)
(-0.0104663 0.00147339 0)
(-0.0131918 0.00170603 0)
(-0.0163178 0.00196337 0)
(-0.019881 0.00224506 0)
(-0.0239154 0.00254983 0)
(-0.0284511 0.00287522 0)
(-0.0335119 0.00321742 0)
(-0.0391128 0.00357107 0)
(-0.0452575 0.00392908 0)
(-0.0519357 0.00428256 0)
(-0.0591206 0.00462076 0)
(-0.066766 0.00493118 0)
(-0.0748043 0.00519968 0)
(-0.0831449 0.00541078 0)
(-0.0916733 0.00554803 0)
(-0.10025 0.00559447 0)
(-0.108714 0.00553324 0)
(-0.11688 0.00534825 0)
(-0.124545 0.00502499 0)
(-0.131492 0.00455137 0)
(-0.137492 0.00391853 0)
(-0.142309 0.00312061 0)
(-0.145751 0.00214709 0)
(-0.147507 0.00106042 0)
(-0.147546 -0.000180492 0)
(-0.145613 -0.00152392 0)
(-0.141648 -0.00293125 0)
(-0.135623 -0.00434751 0)
(-0.127592 -0.0057109 0)
(-0.117702 -0.0069505 0)
(-0.106198 -0.00799124 0)
(-0.0934204 -0.0087604 0)
(-0.0798037 -0.00919554 0)
(-0.0658512 -0.0092532 0)
(-0.0521088 -0.00891688 0)
(-0.039126 -0.00820256 0)
(-0.0274114 -0.00716002 0)
(-0.0173888 -0.00586902 0)
(-0.00935886 -0.00443072 0)
(-0.00347285 -0.00295684 0)
(0.000279998 -0.00156131 0)
(0.00207664 -0.000355644 0)
(0.00226033 0.000534019 0)
(0.0014013 0.000938662 0)
(0.000257235 0.000633312 0)
(1.04326e-05 -5.64195e-05 0)
(0.000177512 -0.000215252 0)
(0.000491854 -0.000349202 0)
(0.00090976 -0.000436467 0)
(0.00138652 -0.000480479 0)
(0.0018853 -0.000489573 0)
(0.00237599 -0.000472476 0)
(0.00283588 -0.000436718 0)
(0.00324853 -0.000388294 0)
(0.00360258 -0.000331712 0)
(0.00389046 -0.000270182 0)
(0.00410718 -0.000205789 0)
(0.00424935 -0.000139695 0)
(0.0043143 -7.2282e-05 0)
(0.00429932 -3.27975e-06 0)
(0.00420109 6.80756e-05 0)
(0.00401491 0.000143169 0)
(0.00373457 0.00022362 0)
(0.00335167 0.000311461 0)
(0.00285533 0.00040909 0)
(0.0022319 0.000519075 0)
(0.00146469 0.000644298 0)
(0.000533431 0.000788045 0)
(-0.000585668 0.000953639 0)
(-0.00192002 0.00114456 0)
(-0.00350087 0.00136438 0)
(-0.00536332 0.00161673 0)
(-0.00754613 0.00190512 0)
(-0.0100914 0.00223284 0)
(-0.0130441 0.00260278 0)
(-0.0164512 0.00301716 0)
(-0.0203607 0.0034773 0)
(-0.0248201 0.00398331 0)
(-0.0298746 0.00453367 0)
(-0.0355649 0.00512492 0)
(-0.0419246 0.00575125 0)
(-0.048977 0.0064041 0)
(-0.0567321 0.00707189 0)
(-0.0651831 0.00773976 0)
(-0.0743026 0.00838953 0)
(-0.0840401 0.0089997 0)
(-0.0943186 0.00954575 0)
(-0.105033 0.0100006 0)
(-0.116048 0.0103351 0)
(-0.127199 0.0105193 0)
(-0.138293 0.0105227 0)
(-0.14911 0.0103164 0)
(-0.159407 0.00987343 0)
(-0.168922 0.00917077 0)
(-0.177383 0.00819068 0)
(-0.184511 0.00692222 0)
(-0.190028 0.00536225 0)
(-0.193694 0.00351016 0)
(-0.195237 0.00142287 0)
(-0.194505 -0.000881428 0)
(-0.191316 -0.00336231 0)
(-0.185606 -0.00593228 0)
(-0.177369 -0.00849662 0)
(-0.166696 -0.0109464 0)
(-0.153783 -0.013159 0)
(-0.138937 -0.015006 0)
(-0.122572 -0.0163634 0)
(-0.105208 -0.0171247 0)
(-0.0874438 -0.0172154 0)
(-0.069931 -0.0166059 0)
(-0.0533288 -0.0153214 0)
(-0.0382558 -0.0134455 0)
(-0.0252379 -0.0111145 0)
(-0.0146605 -0.00850478 0)
(-0.0067331 -0.0058156 0)
(-0.00146676 -0.00325378 0)
(0.00133482 -0.0010276 0)
(0.00207695 0.000635779 0)
(0.00143087 0.0014536 0)
(0.000274567 0.00104976 0)
(1.73325e-05 -0.000108827 0)
(0.00023238 -0.000353221 0)
(0.000612918 -0.000552267 0)
(0.00110669 -0.000682086 0)
(0.001663 -0.00074729 0)
(0.00224065 -0.000759433 0)
(0.00280538 -0.000731044 0)
(0.00333075 -0.000673239 0)
(0.0037972 -0.000595039 0)
(0.00419079 -0.000503321 0)
(0.00450182 -0.000403015 0)
(0.00472348 -0.000297337 0)
(0.00485076 -0.000188064 0)
(0.0048794 -7.57524e-05 0)
(0.004805 4.00688e-05 0)
(0.00462228 0.000160745 0)
(0.00432434 0.000288449 0)
(0.00390221 0.000425911 0)
(0.00334425 0.000576399 0)
(0.00263578 0.000743747 0)
(0.00175846 0.00093238 0)
(0.000690152 0.001147 0)
(-0.000595366 0.00139269 0)
(-0.00212873 0.00167483 0)
(-0.00394514 0.00199904 0)
(-0.00608436 0.00237104 0)
(-0.00859067 0.00279647 0)
(-0.0115125 0.00328075 0)
(-0.014902 0.0038288 0)
(-0.0188141 0.00444473 0)
(-0.0233055 0.00513145 0)
(-0.028433 0.00589018 0)
(-0.0342515 0.00671995 0)
(-0.0408116 0.00761704 0)
(-0.0481562 0.00857432 0)
(-0.0563178 0.00958068 0)
(-0.065314 0.0106205 0)
(-0.0751436 0.0116734 0)
(-0.085783 0.0127135 0)
(-0.0971817 0.0137102 0)
(-0.10926 0.0146278 0)
(-0.121904 0.0154265 0)
(-0.134969 0.0160633 0)
(-0.148273 0.0164928 0)
(-0.161604 0.0166695 0)
(-0.174718 0.0165488 0)
(-0.187346 0.016089 0)
(-0.199198 0.0152535 0)
(-0.209973 0.0140127 0)
(-0.219361 0.0123459 0)
(-0.227057 0.0102438 0)
(-0.232766 0.00770997 0)
(-0.236233 0.00475956 0)
(-0.237205 0.00146208 0)
(-0.235503 -0.00213854 0)
(-0.230988 -0.00596859 0)
(-0.22361 -0.00990242 0)
(-0.213391 -0.0138008 0)
(-0.200453 -0.0175033 0)
(-0.185026 -0.0208316 0)
(-0.167455 -0.0236002 0)
(-0.148199 -0.0256298 0)
(-0.127824 -0.0267658 0)
(-0.106987 -0.0268979 0)
(-0.0864042 -0.0259799 0)
(-0.0668096 -0.0240439 0)
(-0.0489021 -0.0212068 0)
(-0.0332887 -0.0176654 0)
(-0.02043 -0.0136797 0)
(-0.010594 -0.00954897 0)
(-0.00382552 -0.00558977 0)
(6.98777e-05 -0.00212576 0)
(0.00152829 0.00049749 0)
(0.00127849 0.00186957 0)
(0.000268024 0.00145318 0)
(2.30181e-05 -0.000175253 0)
(0.000278827 -0.000517953 0)
(0.000714225 -0.000787363 0)
(0.00126803 -0.000961746 0)
(0.00188412 -0.00104801 0)
(0.00251805 -0.00106124 0)
(0.00313253 -0.00101794 0)
(0.00369837 -0.000932979 0)
(0.00419358 -0.000818606 0)
(0.00460204 -0.000684252 0)
(0.0049121 -0.00053671 0)
(0.00511516 -0.000380395 0)
(0.00520448 -0.00021774 0)
(0.00517404 -4.9451e-05 0)
(0.00501747 0.000125272 0)
(0.00472726 0.000308462 0)
(0.00429399 0.000503276 0)
(0.00370573 0.000713734 0)
(0.0029472 0.00094482 0)
(0.00199955 0.00120217 0)
(0.0008398 0.00149211 0)
(-0.000559604 0.00182153 0)
(-0.00223109 0.00219789 0)
(-0.00421218 0.002629 0)
(-0.00654561 0.00312293 0)
(-0.00927932 0.00368781 0)
(-0.0124662 0.0043316 0)
(-0.0161636 0.00506174 0)
(-0.0204325 0.00588478 0)
(-0.0253365 0.00680589 0)
(-0.0309401 0.00782822 0)
(-0.0373064 0.0089522 0)
(-0.0444948 0.0101748 0)
(-0.0525574 0.0114886 0)
(-0.0615357 0.012881 0)
(-0.0714558 0.0143334 0)
(-0.0823242 0.0158207 0)
(-0.0941234 0.0173106 0)
(-0.106807 0.0187635 0)
(-0.120296 0.020133 0)
(-0.134477 0.0213665 0)
(-0.149197 0.0224064 0)
(-0.164269 0.0231915 0)
(-0.179468 0.0236593 0)
(-0.194535 0.0237485 0)
(-0.209187 0.0234008 0)
(-0.223115 0.022564 0)
(-0.236 0.0211944 0)
(-0.247514 0.0192594 0)
(-0.257334 0.0167398 0)
(-0.265148 0.0136324 0)
(-0.270665 0.00995259 0)
(-0.273637 0.00573539 0)
(-0.273835 0.00106334 0)
(-0.27109 -0.00398842 0)
(-0.265296 -0.00930834 0)
(-0.256423 -0.0147344 0)
(-0.244515 -0.0200821 0)
(-0.229716 -0.0251394 0)
(-0.212271 -0.0296727 0)
(-0.19254 -0.0334386 0)
(-0.170997 -0.0362011 0)
(-0.14823 -0.0377547 0)
(-0.12492 -0.0379495 0)
(-0.101824 -0.0367171 0)
(-0.0797251 -0.0340917 0)
(-0.0593838 -0.0302204 0)
(-0.0414771 -0.0253595 0)
(-0.0265354 -0.019856 0)
(-0.0148881 -0.0141174 0)
(-0.00662384 -0.00858207 0)
(-0.00156768 -0.00370218 0)
(0.000722898 4.42204e-05 0)
(0.00100201 0.00211067 0)
(0.000247095 0.00179875 0)
(2.74544e-05 -0.00025309 0)
(0.000315911 -0.000704513 0)
(0.000794313 -0.00104775 0)
(0.00139277 -0.00126689 0)
(0.00205012 -0.00137254 0)
(0.00271933 -0.00138382 0)
(0.00336094 -0.00132135 0)
(0.00394382 -0.00120387 0)
(0.00444411 -0.00104695 0)
(0.00484393 -0.000862624 0)
(0.0051299 -0.000659604 0)
(0.00529174 -0.000443536 0)
(0.00532098 -0.000217505 0)
(0.00520959 1.77687e-05 0)
(0.00494909 0.000263474 0)
(0.00452957 0.000522497 0)
(0.00393874 0.000799257 0)
(0.00316138 0.00109935 0)
(0.00217861 0.00142952 0)
(0.000967258 0.00179753 0)
(-0.000500565 0.00221206 0)
(-0.00225793 0.00268255 0)
(-0.00434341 0.00321908 0)
(-0.00680126 0.00383221 0)
(-0.00968152 0.00453276 0)
(-0.0130398 0.0053315 0)
(-0.016937 0.00623879 0)
(-0.0214384 0.00726414 0)
(-0.0266127 0.00841556 0)
(-0.0325304 0.00969886 0)
(-0.0392615 0.0111168 0)
(-0.0468732 0.012668 0)
(-0.055426 0.014346 0)
(-0.06497 0.0161381 0)
(-0.0755404 0.0180241 0)
(-0.0871527 0.0199756 0)
(-0.0997971 0.0219551 0)
(-0.113434 0.0239155 0)
(-0.127991 0.0258006 0)
(-0.143355 0.0275458 0)
(-0.159377 0.0290791 0)
(-0.175864 0.0303234 0)
(-0.192587 0.031199 0)
(-0.209282 0.0316264 0)
(-0.225655 0.0315296 0)
(-0.241388 0.0308393 0)
(-0.25615 0.0294962 0)
(-0.269606 0.0274536 0)
(-0.281422 0.0246805 0)
(-0.291277 0.0211639 0)
(-0.298873 0.0169113 0)
(-0.303939 0.0119537 0)
(-0.306247 0.00634735 0)
(-0.305599 0.000191021 0)
(-0.30185 -0.0064079 0)
(-0.294921 -0.013302 0)
(-0.284798 -0.0202944 0)
(-0.271539 -0.0271576 0)
(-0.255291 -0.0336312 0)
(-0.236299 -0.0394281 0)
(-0.214916 -0.0442482 0)
(-0.19161 -0.0477984 0)
(-0.166963 -0.0498191 0)
(-0.141664 -0.0501158 0)
(-0.116488 -0.0485917 0)
(-0.0922542 -0.0452755 0)
(-0.0697745 -0.0403384 0)
(-0.0497901 -0.034093 0)
(-0.0329013 -0.0269738 0)
(-0.0195038 -0.0195015 0)
(-0.00973943 -0.0122451 0)
(-0.00346726 -0.00579647 0)
(-0.000257025 -0.000776112 0)
(0.000645354 0.00212669 0)
(0.000218559 0.00205992 0)
(3.07415e-05 -0.000339691 0)
(0.000343569 -0.000907766 0)
(0.000852935 -0.00132669 0)
(0.00148097 -0.00158929 0)
(0.00216191 -0.00171139 0)
(0.00284662 -0.00171671 0)
(0.00349411 -0.00163022 0)
(0.00407192 -0.00147457 0)
(0.00455487 -0.00126865 0)
(0.0049237 -0.00102713 0)
(0.00516356 -0.000760572 0)
(0.00526259 -0.00047589 0)
(0.00521048 -0.000176616 0)
(0.00499726 0.000136534 0)
(0.00461216 0.00046532 0)
(0.0040426 0.000813676 0)
(0.00327341 0.00118739 0)
(0.00228593 0.00159385 0)
(0.00105736 0.00204193 0)
(-0.000439868 0.00254179 0)
(-0.00223861 0.00310472 0)
(-0.00437746 0.00374297 0)
(-0.00690101 0.00446957 0)
(-0.00986006 0.00529806 0)
(-0.0133116 0.00624221 0)
(-0.0173183 0.00731555 0)
(-0.0219482 0.00853088 0)
(-0.0272736 0.00989958 0)
(-0.0333694 0.0114308 0)
(-0.0403112 0.0131303 0)
(-0.0481723 0.0149996 0)
(-0.0570208 0.0170343 0)
(-0.0669153 0.019223 0)
(-0.0779 0.0215456 0)
(-0.0899997 0.023972 0)
(-0.103214 0.0264614 0)
(-0.117514 0.0289611 0)
(-0.132832 0.0314068 0)
(-0.149065 0.033723 0)
(-0.166066 0.0358247 0)
(-0.183647 0.0376193 0)
(-0.201578 0.0390099 0)
(-0.219594 0.0398985 0)
(-0.237395 0.0401907 0)
(-0.254662 0.0397987 0)
(-0.271058 0.038646 0)
(-0.286243 0.0366706 0)
(-0.29988 0.0338279 0)
(-0.311648 0.0300932 0)
(-0.321245 0.0254641 0)
(-0.328397 0.0199627 0)
(-0.332866 0.0136375 0)
(-0.334452 0.00656629 0)
(-0.332992 -0.00113437 0)
(-0.328367 -0.00932756 0)
(-0.320515 -0.0178342 0)
(-0.309434 -0.026426 0)
(-0.29518 -0.0348371 0)
(-0.277891 -0.0427625 0)
(-0.257791 -0.0498656 0)
(-0.235209 -0.055791 0)
(-0.210587 -0.0601877 0)
(-0.184486 -0.0627386 0)
(-0.157586 -0.0631982 0)
(-0.130666 -0.0614329 0)
(-0.104572 -0.0574571 0)
(-0.0801637 -0.0514574 0)
(-0.0582462 -0.0437973 0)
(-0.0394927 -0.034997 0)
(-0.024372 -0.0256939 0)
(-0.0130895 -0.0165948 0)
(-0.00555074 -0.0084404 0)
(-0.00135214 -0.00200154 0)
(0.000240228 0.00188359 0)
(0.000187065 0.00222082 0)
(3.30267e-05 -0.00043253 0)
(0.000362181 -0.00112256 0)
(0.000890553 -0.00161743 0)
(0.00153337 -0.00192093 0)
(0.00222089 -0.00205544 0)
(0.00290226 -0.00204996 0)
(0.00353547 -0.00193402 0)
(0.00408725 -0.00173426 0)
(0.00453156 -0.00147283 0)
(0.00484814 -0.00116695 0)
(0.0050209 -0.000829013 0)
(0.00503649 -0.00046697 0)
(0.00488287 -8.48014e-05 0)
(0.00454802 0.000316973 0)
(0.00401882 0.000740842 0)
(0.00327999 0.00119193 0)
(0.00231324 0.00167764 0)
(0.00109637 0.00220741 0)
(-0.000397414 0.00279245 0)
(-0.00220016 0.00344555 0)
(-0.0043497 0.00418088 0)
(-0.00689004 0.00501377 0)
(-0.00987165 0.0059604 0)
(-0.0133515 0.00703751 0)
(-0.0173931 0.00826189 0)
(-0.0220655 0.00964985 0)
(-0.0274431 0.0112165 0)
(-0.0336037 0.0129747 0)
(-0.0406267 0.0149343 0)
(-0.048591 0.0171003 0)
(-0.0575707 0.0194716 0)
(-0.067632 0.0220394 0)
(-0.0788279 0.0247854 0)
(-0.091193 0.02768 0)
(-0.104737 0.0306809 0)
(-0.119442 0.0337321 0)
(-0.135251 0.0367632 0)
(-0.15207 0.0396901 0)
(-0.169761 0.0424164 0)
(-0.188142 0.0448352 0)
(-0.206989 0.0468332 0)
(-0.226037 0.0482943 0)
(-0.24499 0.0491046 0)
(-0.263526 0.0491574 0)
(-0.281309 0.0483578 0)
(-0.297997 0.0466266 0)
(-0.313255 0.0439044 0)
(-0.326762 0.0401536 0)
(-0.33822 0.0353604 0)
(-0.347359 0.0295367 0)
(-0.35394 0.0227209 0)
(-0.357762 0.0149798 0)
(-0.358659 0.00641108 0)
(-0.356498 -0.00285131 0)
(-0.351184 -0.0126459 0)
(-0.342665 -0.0227679 0)
(-0.330936 -0.0329623 0)
(-0.316044 -0.0429305 0)
(-0.298099 -0.0523286 0)
(-0.277293 -0.0607737 0)
(-0.253913 -0.0678574 0)
(-0.228361 -0.0731692 0)
(-0.201164 -0.0763305 0)
(-0.172977 -0.0770374 0)
(-0.144576 -0.0751093 0)
(-0.116829 -0.070535 0)
(-0.0906396 -0.0635064 0)
(-0.0668789 -0.0544299 0)
(-0.0463004 -0.0439086 0)
(-0.029455 -0.0326983 0)
(-0.0166223 -0.02165 0)
(-0.00776625 -0.0116616 0)
(-0.00252226 -0.00366146 0)
(-0.000191694 0.00135908 0)
(0.000155456 0.00227243 0)
(3.44618e-05 -0.000529257 0)
(0.000372325 -0.00134388 0)
(0.000908002 -0.00191334 0)
(0.00155115 -0.00225397 0)
(0.00222876 -0.00239589 0)
(0.00288869 -0.00237403 0)
(0.00348837 -0.00222273 0)
(0.00399415 -0.00197263 0)
(0.00437957 -0.0016491 0)
(0.00462367 -0.00127178 0)
(0.00470936 -0.000854736 0)
(0.00462196 -0.000406846 0)
(0.00434774 6.76534e-05 0)
(0.00387267 0.000568595 0)
(0.00318121 0.00109937 0)
(0.00225531 0.0016665 0)
(0.00107347 0.00227923 0)
(-0.000390108 0.00294921 0)
(-0.00216627 0.00369023 0)
(-0.00429154 0.00451797 0)
(-0.00680863 0.00544969 0)
(-0.00976684 0.00650397 0)
(-0.0132222 0.00770035 0)
(-0.0172376 0.00905882 0)
(-0.0218822 0.0105992 0)
(-0.0272308 0.0123406 0)
(-0.0333629 0.0143 0)
(-0.0403605 0.0164914 0)
(-0.0483061 0.0189244 0)
(-0.057279 0.0216023 0)
(-0.0673519 0.0245201 0)
(-0.078586 0.0276629 0)
(-0.0910253 0.0310033 0)
(-0.104691 0.0345001 0)
(-0.119575 0.038096 0)
(-0.135635 0.0417175 0)
(-0.152787 0.0452742 0)
(-0.170906 0.0486606 0)
(-0.18982 0.0517575 0)
(-0.209312 0.0544366 0)
(-0.229126 0.0565643 0)
(-0.248968 0.0580076 0)
(-0.268519 0.05864 0)
(-0.287446 0.0583468 0)
(-0.305408 0.0570308 0)
(-0.322072 0.0546159 0)
(-0.33712 0.0510502 0)
(-0.35026 0.0463076 0)
(-0.361228 0.0403892 0)
(-0.369792 0.0333227 0)
(-0.375757 0.0251637 0)
(-0.378956 0.0159962 0)
(-0.379259 0.00593501 0)
(-0.376557 -0.00487167 0)
(-0.370771 -0.0162438 0)
(-0.361853 -0.0279574 0)
(-0.349786 -0.0397367 0)
(-0.334593 -0.0512569 0)
(-0.316349 -0.0621406 0)
(-0.295199 -0.0719627 0)
(-0.271379 -0.0802633 0)
(-0.245236 -0.0865713 0)
(-0.21725 -0.0904415 0)
(-0.188043 -0.0915033 0)
(-0.158379 -0.0895176 0)
(-0.129141 -0.0844344 0)
(-0.101276 -0.0764382 0)
(-0.0757251 -0.0659687 0)
(-0.0533306 -0.0537069 0)
(-0.0347366 -0.0405281 0)
(-0.0203089 -0.0274333 0)
(-0.0100825 -0.0154859 0)
(-0.00374244 -0.00577955 0)
(-0.000636845 0.000538019 0)
(0.000125156 0.00221085 0)
(3.51804e-05 -0.000627712 0)
(0.000374619 -0.00156691 0)
(0.000906276 -0.00220796 0)
(0.00153566 -0.00258078 0)
(0.00218734 -0.00272425 0)
(0.00280836 -0.00267978 0)
(0.00335602 -0.00248676 0)
(0.00379674 -0.00217986 0)
(0.00410396 -0.00178758 0)
(0.00425634 -0.00133183 0)
(0.00423603 -0.000828136 0)
(0.00402718 -0.000286134 0)
(0.00361445 0.000289874 0)
(0.0029818 0.000900272 0)
(0.0021113 0.00154955 0)
(0.000982067 0.00224583 0)
(-0.000430617 0.00300038 0)
(-0.00215619 0.00382732 0)
(-0.00422951 0.0047432 0)
(-0.00669152 0.00576676 0)
(-0.00958969 0.00691856 0)
(-0.0129784 0.0082206 0)
(-0.0169188 0.00969583 0)
(-0.0214792 0.0113675 0)
(-0.0267337 0.0132585 0)
(-0.032762 0.0153903 0)
(-0.0396473 0.0177814 0)
(-0.0474744 0.0204464 0)
(-0.0563265 0.0233936 0)
(-0.0662818 0.0266232 0)
(-0.0774084 0.0301251 0)
(-0.0897594 0.033876 0)
(-0.103367 0.0378377 0)
(-0.118234 0.0419545 0)
(-0.134334 0.0461522 0)
(-0.151595 0.0503373 0)
(-0.169907 0.0543978 0)
(-0.18911 0.058205 0)
(-0.209 0.0616174 0)
(-0.229329 0.0644855 0)
(-0.249813 0.0666579 0)
(-0.270138 0.0679878 0)
(-0.289973 0.0683403 0)
(-0.308981 0.0675982 0)
(-0.326832 0.0656672 0)
(-0.343212 0.0624795 0)
(-0.357832 0.0579955 0)
(-0.370437 0.0522047 0)
(-0.380805 0.0451246 0)
(-0.388747 0.0367999 0)
(-0.394108 0.0273023 0)
(-0.396759 0.0167303 0)
(-0.396597 0.00521197 0)
(-0.393536 -0.0070945 0)
(-0.387503 -0.0199972 0)
(-0.378447 -0.0332597 0)
(-0.36633 -0.0465923 0)
(-0.351146 -0.0596499 0)
(-0.332924 -0.0720277 0)
(-0.311756 -0.0832627 0)
(-0.287814 -0.092845 0)
(-0.261384 -0.100242 0)
(-0.232887 -0.104937 0)
(-0.2029 -0.106484 0)
(-0.172167 -0.104571 0)
(-0.141578 -0.0990963 0)
(-0.112122 -0.0902204 0)
(-0.0848155 -0.0784045 0)
(-0.060596 -0.064401 0)
(-0.0402144 -0.0492043 0)
(-0.0241373 -0.0339711 0)
(-0.0124838 -0.0199393 0)
(-0.00499964 -0.00837629 0)
(-0.00108788 -0.000590507 0)
(9.69175e-05 0.00203473 0)
(3.52941e-05 -0.000725924 0)
(0.00036966 -0.00178707 0)
(0.000886385 -0.00249501 0)
(0.00148828 -0.00289395 0)
(0.00209844 -0.00303227 0)
(0.00266364 -0.00295838 0)
(0.0031415 -0.00271692 0)
(0.00349886 -0.00234659 0)
(0.00370947 -0.00187888 0)
(0.00375187 -0.0013378 0)
(0.00360767 -0.00074013 0)
(0.00326 -9.60234e-05 0)
(0.00269203 0.000590373 0)
(0.00188577 0.0013202 0)
(0.000820885 0.00209927 0)
(-0.000526296 0.00293749 0)
(-0.00218372 0.00384839 0)
(-0.00418441 0.00484869 0)
(-0.00656719 0.00595793 0)
(-0.00937728 0.00719809 0)
(-0.0126667 0.00859314 0)
(-0.0164945 0.0101686 0)
(-0.0209267 0.0119508 0)
(-0.0260361 0.0139663 0)
(-0.0319013 0.0162407 0)
(-0.0386054 0.0187975 0)
(-0.0462342 0.0216562 0)
(-0.0548735 0.0248311 0)
(-0.0646054 0.0283282 0)
(-0.0755041 0.0321432 0)
(-0.0876308 0.0362588 0)
(-0.101028 0.0406419 0)
(-0.115711 0.0452406 0)
(-0.131666 0.049983 0)
(-0.148838 0.0547755 0)
(-0.167132 0.0595029 0)
(-0.186404 0.0640301 0)
(-0.206465 0.0682052 0)
(-0.227079 0.0718648 0)
(-0.247974 0.0748403 0)
(-0.268842 0.0769653 0)
(-0.28936 0.078084 0)
(-0.309193 0.0780579 0)
(-0.328014 0.0767727 0)
(-0.345512 0.0741426 0)
(-0.361403 0.0701128 0)
(-0.375437 0.0646601 0)
(-0.387398 0.0577915 0)
(-0.397111 0.0495421 0)
(-0.40443 0.039973 0)
(-0.40924 0.0291693 0)
(-0.411443 0.0172407 0)
(-0.41096 0.00432387 0)
(-0.407718 -0.00941797 0)
(-0.401651 -0.0237875 0)
(-0.392692 -0.0385432 0)
(-0.380784 -0.053387 0)
(-0.365882 -0.0679606 0)
(-0.347968 -0.0818375 0)
(-0.327071 -0.0945211 0)
(-0.303299 -0.105455 0)
(-0.276862 -0.114043 0)
(-0.248115 -0.119693 0)
(-0.21758 -0.121874 0)
(-0.185967 -0.12019 0)
(-0.154165 -0.114467 0)
(-0.123202 -0.104826 0)
(-0.0941686 -0.0917344 0)
(-0.0681091 -0.076006 0)
(-0.0458939 -0.0587527 0)
(-0.0281065 -0.0412926 0)
(-0.0149656 -0.0250481 0)
(-0.00628943 -0.0114709 0)
(-0.0015422 -0.00203514 0)
(7.09706e-05 0.00174369 0)
(3.48908e-05 -0.000822084 0)
(0.000357973 -0.002 0)
(0.000849281 -0.00276843 0)
(0.00141036 -0.00318626 0)
(0.00196383 -0.00331195 0)
(0.00245679 -0.0032013 0)
(0.00284766 -0.00290436 0)
(0.00310412 -0.00246384 0)
(0.00320054 -0.00191406 0)
(0.00311563 -0.0012809 0)
(0.00283069 -0.000582175 0)
(0.00232797 0.000171718 0)
(0.00158927 0.000977023 0)
(0.000594711 0.00183588 0)
(-0.000678368 0.00275562 0)
(-0.00225641 0.00374816 0)
(-0.00417051 0.00482947 0)
(-0.00645721 0.00601909 0)
(-0.00915917 0.00733967 0)
(-0.0123257 0.00881655 0)
(-0.016013 0.0104772 0)
(-0.0202845 0.0123507 0)
(-0.0252105 0.0144667 0)
(-0.0308675 0.0168549 0)
(-0.0373377 0.0195432 0)
(-0.0447063 0.0225568 0)
(-0.0530604 0.0259155 0)
(-0.0624848 0.029632 0)
(-0.0730585 0.0337089 0)
(-0.0848496 0.0381359 0)
(-0.0979093 0.0428867 0)
(-0.112266 0.0479158 0)
(-0.127919 0.0531563 0)
(-0.144829 0.0585174 0)
(-0.162919 0.0638843 0)
(-0.182063 0.0691189 0)
(-0.202088 0.0740625 0)
(-0.222775 0.0785404 0)
(-0.243864 0.0823691 0)
(-0.26506 0.0853638 0)
(-0.286044 0.0873473 0)
(-0.30649 0.0881594 0)
(-0.326071 0.0876637 0)
(-0.344478 0.0857542 0)
(-0.361429 0.0823584 0)
(-0.376678 0.0774387 0)
(-0.390015 0.0709906 0)
(-0.401272 0.0630399 0)
(-0.410314 0.0536391 0)
(-0.417041 0.0428633 0)
(-0.421369 0.0308083 0)
(-0.42323 0.0175901 0)
(-0.422563 0.00335034 0)
(-0.419305 -0.0117484 0)
(-0.413385 -0.0275094 0)
(-0.404728 -0.0436923 0)
(-0.393248 -0.0599973 0)
(-0.378863 -0.0760588 0)
(-0.361504 -0.0914346 0)
(-0.34114 -0.1056 0)
(-0.317803 -0.117955 0)
(-0.291627 -0.127841 0)
(-0.262887 -0.134588 0)
(-0.232038 -0.137569 0)
(-0.199744 -0.136291 0)
(-0.166881 -0.13049 0)
(-0.134506 -0.120226 0)
(-0.103787 -0.105954 0)
(-0.0758772 -0.0885375 0)
(-0.0517829 -0.0692011 0)
(-0.0322223 -0.0494293 0)
(-0.0175307 -0.0308401 0)
(-0.00761341 -0.0150827 0)
(-0.00200057 -0.00380441 0)
(4.71211e-05 0.00133776 0)
(3.40385e-05 -0.000914523 0)
(0.000340004 -0.00220157 0)
(0.000795807 -0.00302236 0)
(0.00130312 -0.00345068 0)
(0.00178512 -0.00355549 0)
(0.00218988 -0.00340028 0)
(0.00247714 -0.00304056 0)
(0.00261585 -0.00252301 0)
(0.00258131 -0.00188461 0)
(0.0023527 -0.00115285 0)
(0.0019112 -0.00034627 0)
(0.00123834 0.000524722 0)
(0.000314681 0.00145704 0)
(-0.000881443 0.00245406 0)
(-0.00237495 0.00352487 0)
(-0.00419497 0.00468359 0)
(-0.00637566 0.00594882 0)
(-0.00895694 0.00734306 0)
(-0.0119851 0.0088922 0)
(-0.0155132 0.010625 0)
(-0.0196015 0.0125726 0)
(-0.0243171 0.0147674 0)
(-0.0297339 0.0172424 0)
(-0.0359316 0.02003 0)
(-0.0429944 0.0231602 0)
(-0.051009 0.0266589 0)
(-0.0600616 0.0305456 0)
(-0.0702345 0.0348302 0)
(-0.0816013 0.0395105 0)
(-0.0942216 0.0445685 0)
(-0.108135 0.049967 0)
(-0.123352 0.0556462 0)
(-0.139854 0.0615217 0)
(-0.157577 0.0674825 0)
(-0.176417 0.0733911 0)
(-0.19622 0.0790856 0)
(-0.216785 0.0843841 0)
(-0.237869 0.0890907 0)
(-0.259188 0.0930041 0)
(-0.280436 0.0959271 0)
(-0.301291 0.0976767 0)
(-0.321429 0.0980933 0)
(-0.340543 0.0970482 0)
(-0.358351 0.0944486 0)
(-0.374606 0.0902395 0)
(-0.389101 0.084403 0)
(-0.401672 0.0769548 0)
(-0.412195 0.0679396 0)
(-0.420578 0.0574256 0)
(-0.426755 0.0454997 0)
(-0.430675 0.0322641 0)
(-0.432293 0.0178372 0)
(-0.431559 0.0023615 0)
(-0.428418 -0.0140061 0)
(-0.422796 -0.031075 0)
(-0.414603 -0.0486114 0)
(-0.40373 -0.0663195 0)
(-0.390058 -0.083833 0)
(-0.373469 -0.1007 0)
(-0.353868 -0.116375 0)
(-0.331214 -0.130216 0)
(-0.305557 -0.141508 0)
(-0.277083 -0.149497 0)
(-0.246167 -0.153457 0)
(-0.213411 -0.152781 0)
(-0.179663 -0.147097 0)
(-0.145999 -0.136382 0)
(-0.113653 -0.121054 0)
(-0.0838991 -0.102008 0)
(-0.0578884 -0.0805761 0)
(-0.0364938 -0.0584128 0)
(-0.0201871 -0.037344 0)
(-0.00897705 -0.0192319 0)
(-0.00246602 -0.00590786 0)
(2.49959e-05 0.00081632 0)
(3.27864e-05 -0.00100169 0)
(0.000316113 -0.00238782 0)
(0.00072668 -0.00325113 0)
(0.00116763 -0.00368039 0)
(0.00156374 -0.00375532 0)
(0.00186477 -0.00354729 0)
(0.00203235 -0.00311731 0)
(0.00203712 -0.0025159 0)
(0.00185565 -0.00178246 0)
(0.00146784 -0.000945814 0)
(0.000854983 -2.49611e-05 0)
(-1.92347e-06 0.00097001 0)
(-0.00112346 0.00203695 0)
(-0.00253297 0.00318073 0)
(-0.00425751 0.00441242 0)
(-0.00632878 0.00574855 0)
(-0.00878386 0.0072105 0)
(-0.0116659 0.00882385 0)
(-0.0150245 0.0106179 0)
(-0.0189163 0.0126248 0)
(-0.0234049 0.0148792 0)
(-0.0285607 0.0174169 0)
(-0.0344605 0.020274 0)
(-0.041186 0.0234852 0)
(-0.0488227 0.027082 0)
(-0.0574569 0.0310905 0)
(-0.0671728 0.0355283 0)
(-0.0780481 0.0404019 0)
(-0.090149 0.0457025 0)
(-0.103524 0.0514025 0)
(-0.118199 0.0574519 0)
(-0.134167 0.0637751 0)
(-0.151386 0.0702681 0)
(-0.169769 0.0767981 0)
(-0.189184 0.0832043 0)
(-0.209451 0.0893011 0)
(-0.230344 0.0948844 0)
(-0.251598 0.0997392 0)
(-0.272918 0.10365 0)
(-0.293988 0.106411 0)
(-0.314491 0.10784 0)
(-0.334119 0.107782 0)
(-0.352588 0.106121 0)
(-0.369649 0.102782 0)
(-0.385095 0.0977305 0)
(-0.398761 0.0909698 0)
(-0.410527 0.082536 0)
(-0.420308 0.0724914 0)
(-0.428052 0.0609179 0)
(-0.433724 0.0479111 0)
(-0.437301 0.0335768 0)
(-0.438754 0.0180311 0)
(-0.438045 0.00141357 0)
(-0.435124 -0.0161291 0)
(-0.42991 -0.0344162 0)
(-0.422305 -0.0532249 0)
(-0.412178 -0.0722699 0)
(-0.399377 -0.0911898 0)
(-0.383738 -0.10953 0)
(-0.365107 -0.12673 0)
(-0.343366 -0.142115 0)
(-0.318477 -0.154914 0)
(-0.290531 -0.164292 0)
(-0.259811 -0.169416 0)
(-0.226837 -0.169555 0)
(-0.192413 -0.164208 0)
(-0.157613 -0.153241 0)
(-0.123733 -0.13701 0)
(-0.0921627 -0.116421 0)
(-0.0642129 -0.0929005 0)
(-0.04093 -0.0682742 0)
(-0.0229445 -0.0445893 0)
(-0.0103875 -0.0239397 0)
(-0.00294317 -0.00835719 0)
(4.07787e-06 0.000177716 0)
(3.11698e-05 -0.0010821 0)
(0.000286578 -0.00255494 0)
(0.000642478 -0.00344922 0)
(0.00100477 -0.00386872 0)
(0.00130093 -0.00390405 0)
(0.0014831 -0.00363457 0)
(0.00151545 -0.0031267 0)
(0.00137071 -0.00243463 0)
(0.0010271 -0.00159994 0)
(0.000465535 -0.000652481 0)