/*--------------------------------*- C++ -*----------------------------------*\
  =========                 |
  \\      /  F ield         | OpenFOAM: The Open Source CFD Toolbox
   \\    /   O peration     | Website:  https://openfoam.org
    \\  /    A nd           | Version:  12
     \\/     M anipulation  |
\*---------------------------------------------------------------------------*/
FoamFile
{
    format      ascii;
    class       volScalarField;
    location    "7";
    object      epsilon;
}
// * * * * * * * * * * * * * * * * * * * * * * * * * * * * * * * * * * * * * //

dimensions      [0 2 -3 0 0 0 0];

internalField   nonuniform List<scalar> 
18225
(
1.12208e-06
7.59404e-06
1.69297e-05
2.80851e-05
4.0578e-05
5.41022e-05
6.84267e-05
8.336e-05
9.87348e-05
0.000114402
0.000130228
0.000146097
0.000161911
0.000177594
0.000193091
0.000208379
0.000223461
0.000238372
0.000253183
0.000268
0.000282969
0.000298276
0.000314146
0.000330851
0.00034871
0.000368089
0.000389407
0.000413135
0.000439807
0.000470013
0.000504413
0.00054373
0.000588761
0.000640374
0.000699512
0.000767194
0.000844512
0.000932629
0.00103278
0.00114627
0.00127445
0.00141874
0.00158061
0.00176155
0.00196312
0.00218686
0.00243438
0.00270727
0.00300714
0.0033356
0.00369424
0.00408464
0.00450837
0.00496694
0.00546182
0.00599444
0.00656613
0.00717815
0.00783169
0.00852779
0.00926744
0.0100515
0.0108806
0.0117555
0.0126767
0.0136445
0.0146592
0.0157211
0.0168302
0.0179864
0.0191898
0.0204401
0.0217371
0.0230802
0.0244691
0.0259031
0.0273813
0.028903
0.0304668
0.0320713
0.033715
0.0353957
0.0371109
0.0388576
0.0406324
0.042431
0.0442484
0.0460787
0.0479148
0.0497488
0.0515708
0.05337
0.0551334
0.0568465
0.0584927
0.0600537
0.0615087
0.0628347
0.0640054
0.064993
0.0657669
0.0662729
0.0664947
0.0665026
0.0661707
0.0654737
0.0643993
0.0629392
0.061091
0.0588607
0.0562648
0.0533318
0.050102
0.046627
0.0429679
0.0391932
0.0353749
0.0315855
0.0278935
0.0243604
0.0210373
0.0179634
0.0151646
0.0126541
0.010433
0.00849228
0.00681472
0.00537765
0.00415455
0.00311801
0.00224175
0.00150326
0.000887493
0.000393834
5.80867e-05
2.12032e-06
4.13631e-06
8.30066e-06
1.34714e-05
1.93182e-05
2.567e-05
3.24084e-05
3.94393e-05
4.66818e-05
5.40648e-05
6.1525e-05
6.90075e-05
7.64662e-05
8.38651e-05
9.11794e-05
9.83972e-05
0.000105521
0.000112566
0.000119568
0.000126577
0.00013366
0.000140906
0.000148421
0.000156335
0.000164798
0.000173982
0.000184086
0.000195334
0.000207977
0.000222294
0.000238598
0.000257231
0.00027857
0.000303025
0.000331044
0.000363109
0.000399735
0.000441476
0.000488915
0.00054267
0.000603384
0.000671731
0.000748406
0.000834124
0.000929618
0.00103563
0.00115293
0.00128228
0.00142444
0.00158019
0.0017503
0.00193554
0.00213665
0.00235439
0.00258946
0.00284257
0.00311438
0.00340552
0.00371659
0.00404812
0.00440061
0.00477452
0.00517024
0.00558811
0.00602844
0.00649145
0.00697734
0.00748627
0.00801831
0.00857352
0.0091519
0.0097534
0.0103779
0.0110253
0.0116953
0.0123877
0.013102
0.0138378
0.0145945
0.0153713
0.0161673
0.0169815
0.0178125
0.0186587
0.0195183
0.0203889
0.0212679
0.0221522
0.0230382
0.0239215
0.0247972
0.0256597
0.0265023
0.0273179
0.0280982
0.0288339
0.029515
0.0301303
0.0306673
0.0311127
0.0314524
0.0316611
0.0317369
0.0317029
0.0315074
0.031139
0.0305927
0.0298659
0.0289586
0.0278749
0.0266235
0.0252185
0.0236791
0.0220296
0.0202982
0.0185163
0.016717
0.0149331
0.0131959
0.0115334
0.00996897
0.00852062
0.00720044
0.00601468
0.0049641
0.00404478
0.00324904
0.00256656
0.00198515
0.00149225
0.00107588
0.000726112
0.000437423
0.000215058
0.000109713
4.5046e-06
4.02508e-06
6.38337e-06
9.72661e-06
1.36334e-05
1.79294e-05
2.25123e-05
2.73081e-05
3.22569e-05
3.73077e-05
4.2416e-05
4.75436e-05
5.26589e-05
5.7737e-05
6.27614e-05
6.7724e-05
7.26264e-05
7.74806e-05
8.23097e-05
8.71486e-05
9.20446e-05
9.70583e-05
0.000102264
0.000107749
0.000113619
0.000119993
0.000127007
0.000134817
0.000143597
0.00015354
0.000164862
0.000177801
0.000192619
0.000209601
0.000229057
0.000251322
0.000276758
0.000305747
0.0003387
0.000376048
0.000418244
0.000465761
0.00051909
0.000578738
0.000645228
0.000719094
0.000800881
0.000891145
0.000990447
0.00109935
0.00121844
0.00134828
0.00148944
0.00164249
0.00180799
0.0019865
0.00217855
0.00238467
0.00260535
0.00284106
0.00309227
0.00335939
0.00364281
0.00394289
0.00425996
0.00459431
0.0049462
0.00531585
0.00570344
0.0061091
0.00653292
0.00697493
0.00743513
0.00791342
0.00840964
0.00892355
0.00945481
0.010003
0.0105674
0.0111474
0.0117421
0.0123503
0.0129707
0.0136019
0.0142418
0.0148885
0.0155394
0.0161916
0.0168419
0.0174865
0.0181213
0.0187415
0.0193418
0.0199166
0.0204594
0.0209633
0.0214209
0.0218241
0.0221642
0.0224323
0.0226177
0.0227042
0.0227022
0.02261
0.0224038
0.0220769
0.0216274
0.0210553
0.0203626
0.0195535
0.0186356
0.0176195
0.016519
0.0153507
0.0141336
0.0128885
0.0116368
0.0103997
0.00919742
0.00804787
0.00696613
0.00596384
0.00504891
0.0042255
0.00349429
0.00285287
0.00229634
0.00181805
0.00141012
0.00106445
0.000773586
0.000532075
0.000339368
0.000209475
0.00023265
7.3692e-06
4.81525e-06
6.01288e-06
8.3419e-06
1.12478e-05
1.45206e-05
1.80507e-05
2.17664e-05
2.56141e-05
2.95502e-05
3.35379e-05
3.75465e-05
4.15506e-05
4.5531e-05
4.94746e-05
5.33753e-05
5.72347e-05
6.10625e-05
6.48771e-05
6.87062e-05
7.25875e-05
7.65686e-05
8.07085e-05
8.50773e-05
8.97574e-05
9.4844e-05
0.000100446
0.000106686
0.000113704
0.000121653
0.000130708
0.000141056
0.00015291
0.000166497
0.000182068
0.000199892
0.000220262
0.00024349
0.000269909
0.000299871
0.00033375
0.000371936
0.000414837
0.00046288
0.000516504
0.000576166
0.000642335
0.000715496
0.000796143
0.000884784
0.000981938
0.00108813
0.00120391
0.00132981
0.00146638
0.00161417
0.00177374
0.00194562
0.00213038
0.00232853
0.0025406
0.00276709
0.00300848
0.00326525
0.00353782
0.0038266
0.00413196
0.00445422
0.00479368
0.00515053
0.00552491
0.0059169
0.00632647
0.00675352
0.00719779
0.00765893
0.00813643
0.00862961
0.00913764
0.00965946
0.0101938
0.0107393
0.0112941
0.0118563
0.0124237
0.0129937
0.0135636
0.0141302
0.01469
0.0152392
0.0157738
0.0162892
0.0167808
0.0172433
0.0176714
0.0180594
0.0184012
0.0186906
0.0189208
0.0190848
0.0191707
0.019183
0.0191158
0.0189693
0.0187298
0.0183935
0.01796
0.0174305
0.0168079
0.0160967
0.0153037
0.0144379
0.0135108
0.0125359
0.011528
0.0105034
0.00947862
0.00846995
0.0074926
0.00656008
0.00568366
0.00487195
0.00413077
0.00346312
0.00286938
0.00234766
0.00189423
0.00150404
0.00117126
0.000890025
0.000655382
0.000464822
0.000322017
0.000249859
0.000379298
1.06254e-05
6.04308e-06
6.30517e-06
7.905e-06
1.01422e-05
1.27613e-05
1.56364e-05
1.8691e-05
2.18718e-05
2.51374e-05
2.84548e-05
3.17966e-05
3.51411e-05
3.84719e-05
4.17781e-05
4.50548e-05
4.83036e-05
5.1533e-05
5.47586e-05
5.80044e-05
6.13021e-05
6.46927e-05
6.82262e-05
7.19624e-05
7.59716e-05
8.03352e-05
8.51463e-05
9.05107e-05
9.65475e-05
0.00010339
0.000111188
0.000120105
0.000130323
0.000142043
0.000155482
0.000170877
0.000188486
0.000208586
0.000231471
0.00025746
0.000286887
0.00032011
0.000357502
0.000399459
0.000446395
0.000498741
0.000556952
0.000621497
0.00069287
0.000771582
0.000858164
0.000953169
0.00105717
0.00117075
0.00129452
0.00142911
0.00157514
0.00173327
0.00190415
0.00208843
0.00228675
0.00249977
0.00272811
0.00297236
0.00323312
0.0035109
0.00380618
0.00411939
0.00445088
0.00480085
0.00516942
0.00555656
0.00596214
0.00638584
0.00682715
0.0072854
0.00775966
0.00824881
0.00875149
0.0092661
0.00979082
0.0103236
0.010862
0.0114036
0.0119456
0.012485
0.0130187
0.0135431
0.0140548
0.0145499
0.0150246
0.0154749
0.0158966
0.0162854
0.0166369
0.0169468
0.0172104
0.017423
0.017579
0.0176677
0.0176952
0.0176564
0.0175453
0.0173635
0.0171014
0.0167563
0.016328
0.0158175
0.0152274
0.0145614
0.0138252
0.0130267
0.0121759
0.0112846
0.0103663
0.00943535
0.00850676
0.00759512
0.00671401
0.00587537
0.00508897
0.00436211
0.00369953
0.00310345
0.00257382
0.0021087
0.00170466
0.00135729
0.00106173
0.000813401
0.000608972
0.000448241
0.000338625
0.000311801
0.000544109
1.42118e-05
7.54768e-06
6.97524e-06
7.98016e-06
9.70494e-06
1.18448e-05
1.4254e-05
1.68479e-05
1.95702e-05
2.23794e-05
2.52436e-05
2.81372e-05
3.10406e-05
3.39388e-05
3.68224e-05
3.96873e-05
4.2535e-05
4.53734e-05
4.82167e-05
5.10861e-05
5.40102e-05
5.70254e-05
6.01764e-05
6.35168e-05
6.71093e-05
7.1027e-05
7.53537e-05
8.01845e-05
8.56272e-05
9.18027e-05
9.88464e-05
0.000106909
0.000116156
0.000126773
0.000138961
0.00015294
0.00016895
0.000187253
0.000208128
0.000231879
0.00025883
0.000289327
0.00032374
0.000362461
0.000405909
0.000454527
0.000508782
0.000569173
0.000636224
0.000710491
0.000792561
0.000883053
0.000982616
0.00109193
0.00121171
0.00134271
0.00148567
0.0016414
0.00181071
0.00199439
0.00219328
0.00240817
0.00263985
0.00288908
0.00315655
0.00344289
0.00374866
0.0040743
0.00442014
0.00478629
0.00517262
0.00557873
0.00600427
0.00644854
0.00691054
0.00738902
0.00788243
0.00838898
0.00890659
0.00943293
0.00996546
0.0105014
0.0110379
0.0115718
0.0121
0.0126191
0.013126
0.0136172
0.0140894
0.0145391
0.0149626
0.0153575
0.0157207
0.0160492
0.0163398
0.0165897
0.0167958
0.0169554
0.0170604
0.0171041
0.0171033
0.0170393
0.0169121
0.0167217
0.0164608
0.0161256
0.015715
0.0152285
0.0146663
0.014031
0.0133272
0.0125615
0.011743
0.0108827
0.00999377
0.00909073
0.00818873
0.00730277
0.00644687
0.0056333
0.00487198
0.00417018
0.00353236
0.00296035
0.00245379
0.00201037
0.00162646
0.00129765
0.00101936
0.000787614
0.000600182
0.000458682
0.000374028
0.000386455
0.000722776
1.80894e-05
9.25646e-06
7.89825e-06
8.38345e-06
9.68332e-06
1.14421e-05
1.34917e-05
1.57379e-05
1.81198e-05
2.05942e-05
2.31289e-05
2.56991e-05
2.82859e-05
3.08754e-05
3.34591e-05
3.60333e-05
3.85998e-05
4.11659e-05
4.37449e-05
4.63566e-05
4.90274e-05
5.17909e-05
5.46886e-05
5.77699e-05
6.10932e-05
6.47263e-05
6.87473e-05
7.32454e-05
7.83214e-05
8.40894e-05
9.06774e-05
9.82283e-05
0.000106901
0.000116873
0.000128338
0.00014151
0.000156625
0.00017394
0.000193733
0.000216309
0.000241996
0.000271149
0.00030415
0.000341412
0.000383378
0.000430524
0.00048336
0.000542435
0.000608336
0.000681694
0.000763182
0.000853519
0.000953467
0.00106384
0.00118548
0.0013193
0.00146623
0.00162723
0.00180329
0.00199541
0.00220452
0.00243163
0.00267766
0.0029435
0.0032299
0.00353755
0.00386694
0.00421842
0.00459219
0.00498806
0.00540563
0.0058443
0.0063029
0.00678004
0.00727398
0.00778264
0.00830362
0.00883423
0.00937151
0.00991234
0.0104534
0.0109914
0.0115228
0.0120443
0.0125527
0.0130449
0.0135179
0.0139691
0.0143961
0.0147966
0.015169
0.015511
0.015821
0.0160975
0.016339
0.0165434
0.0167098
0.0168369
0.0169162
0.0169457
0.0169394
0.0168784
0.0167623
0.0165898
0.0163535
0.0160482
0.0156707
0.0152184
0.0146901
0.014086
0.0134085
0.0126629
0.0118571
0.011002
0.0101109
0.00919926
0.00828368
0.00738088
0.00650673
0.00567524
0.00489777
0.00418258
0.00353467
0.00295597
0.00244578
0.00200136
0.00161858
0.00129267
0.0010189
0.000793466
0.000614815
0.000486142
0.000421411
0.000469562
0.000912072
2.22342e-05
1.11319e-05
9.00965e-06
9.02139e-06
9.95178e-06
1.13912e-05
1.31488e-05
1.51189e-05
1.72352e-05
1.94521e-05
2.17362e-05
2.40624e-05
2.64121e-05
2.87721e-05
3.11342e-05
3.34951e-05
3.58567e-05
3.82263e-05
4.06165e-05
4.30463e-05
4.55409e-05
4.81323e-05
5.08598e-05
5.37707e-05
5.69207e-05
6.03746e-05
6.42076e-05
6.85053e-05
7.33655e-05
7.8899e-05
8.52306e-05
9.25007e-05
0.000100866
0.000110502
0.000121604
0.000134387
0.000149089
0.000165972
0.000185326
0.000207466
0.000232737
0.000261516
0.000294215
0.000331279
0.000373195
0.000420492
0.000473742
0.000533567
0.000600642
0.000675695
0.000759513
0.000852945
0.000956884
0.0010723
0.00120022
0.00134171
0.0014979
0.00166994
0.00185902
0.00206635
0.00229311
0.00254041
0.0028093
0.0031007
0.00341543
0.00375407
0.00411697
0.00450419
0.00491541
0.00535006
0.00580716
0.00628531
0.00678256
0.00729661
0.00782474
0.00836386
0.00891058
0.00946128
0.0100122
0.0105594
0.0110992
0.0116279
0.012142
0.0126384
0.0131143
0.0135674
0.0139957
0.0143977
0.0147724
0.0151192
0.0154377
0.0157275
0.0159886
0.016221
0.0164246
0.0165996
0.0167449
0.0168594
0.0169397
0.01698
0.0169894
0.0169564
0.0168754
0.0167442
0.0165546
0.0162989
0.0159717
0.0155678
0.0150832
0.0145158
0.013866
0.0131373
0.0123366
0.0114743
0.0105645
0.0096237
0.00867048
0.0077241
0.00680319
0.00592454
0.00510197
0.0043457
0.00366203
0.00305356
0.00251962
0.0020571
0.00166126
0.00132666
0.00104807
0.000821562
0.000645957
0.000525521
0.000477133
0.000558701
0.00110951
2.66318e-05
1.31533e-05
1.02728e-05
9.84062e-06
1.04399e-05
1.16024e-05
1.31144e-05
1.48582e-05
1.67608e-05
1.87734e-05
2.08612e-05
2.29985e-05
2.51663e-05
2.73515e-05
2.95461e-05
3.17473e-05
3.39569e-05
3.61822e-05
3.8436e-05
4.07365e-05
4.31085e-05
4.55832e-05
4.81989e-05
5.10018e-05
5.40464e-05
5.73963e-05
6.11254e-05
6.53183e-05
7.00721e-05
7.5497e-05
8.17183e-05
8.88773e-05
9.71331e-05
0.000106664
0.000117671
0.000130376
0.000145029
0.000161904
0.000181307
0.000203576
0.000229083
0.00025824
0.000291497
0.00032935
0.000372344
0.000421076
0.000476197
0.000538424
0.000608536
0.000687383
0.000775887
0.00087505
0.000985952
0.00110974
0.00124763
0.0014009
0.00157089
0.00175896
0.00196648
0.00219482
0.00244532
0.0027192
0.00301755
0.0033413
0.0036911
0.00406734
0.00447003
0.00489873
0.00535256
0.00583019
0.00632973
0.00684878
0.00738436
0.00793303
0.00849095
0.00905396
0.0096177
0.0101777
0.0107296
0.0112691
0.0117924
0.0122959
0.0127768
0.0132327
0.0136619
0.0140633
0.0144366
0.0147819
0.0150998
0.0153915
0.0156582
0.0159014
0.0161226
0.0163229
0.0165036
0.0166652
0.0168075
0.0169293
0.0170285
0.0171025
0.0171475
0.0171604
0.0171325
0.0170599
0.0169321
0.0167401
0.0164755
0.0161305
0.0156984
0.0151746
0.0145572
0.0138479
0.0130522
0.0121801
0.0112457
0.0102668
0.00926395
0.00825921
0.00727445
0.00632986
0.00544255
0.00462553
0.0038872
0.00323144
0.00265811
0.00216396
0.0017437
0.00139113
0.00110031
0.000866869
0.00068966
0.000573854
0.000539034
0.000652315
0.00131313
3.12742e-05
1.53089e-05
1.16657e-05
1.08088e-05
1.11045e-05
1.20214e-05
1.3322e-05
1.48757e-05
1.66032e-05
1.84515e-05
2.03832e-05
2.23718e-05
2.43981e-05
2.64488e-05
2.8516e-05
3.05967e-05
3.26933e-05
3.48131e-05
3.69688e-05
3.9179e-05
4.14681e-05
4.38674e-05
4.6415e-05
4.91569e-05
5.21475e-05
5.54507e-05
5.91405e-05
6.33025e-05
6.80349e-05
7.345e-05
7.96759e-05
8.68581e-05
9.51613e-05
0.000104772
0.000115899
0.000128779
0.000143676
0.000160886
0.000180739
0.000203603
0.000229886
0.000260043
0.000294578
0.000334049
0.000379071
0.000430328
0.000488571
0.000554628
0.000629405
0.000713896
0.000809183
0.000916438
0.00103693
0.00117201
0.0013231
0.00149171
0.00167938
0.00188768
0.00211817
0.00237236
0.00265167
0.00295737
0.00329051
0.00365182
0.0040417
0.00446011
0.0049065
0.00537971
0.00587802
0.00639905
0.00693979
0.00749662
0.00806533
0.00864126
0.00921944
0.00979471
0.0103619
0.0109161
0.0114527
0.0119675
0.0124571
0.0129189
0.013351
0.0137525
0.0141233
0.0144642
0.0147764
0.0150621
0.0153236
0.0155638
0.0157854
0.0159913
0.016184
0.0163657
0.016538
0.0167018
0.0168569
0.0170022
0.0171354
0.0172533
0.0173517
0.0174243
0.017457
0.0174533
0.0173959
0.0172756
0.0170812
0.0168025
0.0164301
0.0159569
0.0153786
0.0146948
0.0139094
0.0130313
0.0120744
0.0110572
0.0100019
0.00893323
0.00787629
0.00685508
0.00589055
0.0049992
0.00419231
0.00347577
0.00285056
0.00231369
0.00185951
0.0014811
0.00117171
0.000926307
0.000743578
0.000629344
0.00060575
0.000749345
0.00152139
3.61582e-05
1.75922e-05
1.31751e-05
1.19053e-05
1.19179e-05
1.26134e-05
1.37291e-05
1.51212e-05
1.6703e-05
1.84175e-05
2.02249e-05
2.2097e-05
2.40134e-05
2.59608e-05
2.79312e-05
2.99219e-05
3.19354e-05
3.39794e-05
3.6067e-05
3.82169e-05
4.04542e-05
4.28105e-05
4.53244e-05
4.80427e-05
5.10207e-05
5.43235e-05
5.80268e-05
6.22183e-05
6.69994e-05
7.24864e-05
7.88124e-05
8.613e-05
9.46126e-05
0.000104457
0.000115888
0.000129158
0.000144553
0.000162394
0.000183043
0.000206907
0.000234439
0.000266148
0.000302601
0.00034443
0.000392339
0.000447108
0.000509603
0.000580781
0.000661695
0.000753502
0.000857463
0.000974945
0.00110742
0.00125646
0.00142372
0.00161091
0.0018198
0.00205213
0.0023096
0.00259384
0.00290627
0.00324808
0.00362012
0.00402282
0.00445608
0.00491921
0.00541085
0.00592887
0.0064704
0.00703183
0.00760881
0.00819636
0.00878898
0.00938084
0.00996597
0.0105385
0.0110929
0.0116241
0.012128
0.012601
0.013041
0.0134466
0.0138176
0.014155
0.0144606
0.014737
0.0149876
0.0152161
0.0154265
0.0156229
0.0158093
0.0159893
0.0161663
0.0163423
0.0165189
0.0166971
0.0168767
0.017056
0.0172322
0.0174012
0.0175575
0.0176936
0.0178003
0.0178635
0.0178788
0.0178331
0.0177128
0.017505
0.0171979
0.016782
0.0162507
0.0156011
0.0148352
0.0139602
0.0129889
0.01194
0.0108367
0.0097056
0.00857515
0.0074731
0.00642458
0.00545021
0.00456486
0.0037772
0.00308999
0.00250106
0.00200475
0.00159356
0.00125992
0.000998056
0.000806272
0.000690856
0.000676395
0.000849053
0.00173315
4.12842e-05
2.00006e-05
1.47929e-05
1.31169e-05
1.28614e-05
1.33552e-05
1.43074e-05
1.55608e-05
1.70211e-05
1.86265e-05
2.03346e-05
2.21153e-05
2.39476e-05
2.58173e-05
2.77163e-05
2.96419e-05
3.15969e-05
3.35894e-05
3.5633e-05
3.77473e-05
3.9958e-05
4.22978e-05
4.48065e-05
4.75323e-05
5.05321e-05
5.38733e-05
5.76345e-05
6.19072e-05
6.67972e-05
7.24268e-05
7.89367e-05
8.64884e-05
9.52673e-05
0.000105485
0.000117382
0.000131235
0.000147355
0.000166095
0.000187856
0.000213089
0.000242303
0.00027607
0.000315031
0.000359904
0.000411493
0.000470693
0.0005385
0.000616017
0.000704462
0.00080517
0.000919601
0.00104933
0.00119606
0.00136158
0.00154777
0.00175657
0.00198991
0.0022497
0.00253773
0.00285563
0.00320473
0.00358601
0.00399995
0.00444644
0.00492468
0.00543308
0.00596919
0.00652966
0.00711027
0.00770596
0.00831095
0.00891888
0.00952306
0.0101167
0.0106932
0.0112463
0.0117708
0.0122621
0.012717
0.0131335
0.0135109
0.0138499
0.0141523
0.0144211
0.01466
0.0148737
0.0150669
0.015245
0.0154137
0.0155779
0.0157407
0.0159061
0.0160774
0.0162576
0.0164479
0.0166488
0.0168592
0.0170771
0.0172992
0.0175209
0.0177351
0.0179341
0.0181081
0.0182467
0.0183318
0.0183566
0.0183107
0.0181764
0.0179392
0.0175872
0.0171116
0.0165069
0.0157725
0.0149133
0.0139405
0.0128717
0.0117303
0.0105443
0.00934466
0.00816286
0.00702833
0.00596626
0.00499581
0.0041292
0.00337176
0.00272276
0.00217701
0.00172672
0.00136358
0.00108103
0.000876866
0.000757682
0.000750398
0.000950944
0.00194758
4.66558e-05
2.25334e-05
1.65147e-05
1.44352e-05
1.39228e-05
1.4231e-05
1.5037e-05
1.61712e-05
1.75302e-05
1.90475e-05
2.06775e-05
2.23882e-05
2.41573e-05
2.59701e-05
2.78181e-05
2.9699e-05
3.16156e-05
3.35768e-05
3.55968e-05
3.76962e-05
3.99019e-05
4.22479e-05
4.47758e-05
4.75359e-05
5.05879e-05
5.40021e-05
5.78613e-05
6.22616e-05
6.73151e-05
7.31516e-05
7.99212e-05
8.77973e-05
9.69792e-05
0.000107696
0.000120211
0.000134825
0.000151882
0.000171772
0.000194941
0.000221893
0.000253199
0.000289505
0.000331537
0.000380112
0.000436146
0.000500665
0.000574808
0.000659843
0.000757167
0.000868315
0.000994957
0.0011389
0.00130206
0.00148646
0.00169421
0.00192743
0.00218821
0.00247855
0.00280025
0.00315483
0.0035434
0.00396653
0.00442415
0.00491539
0.00543847
0.00599065
0.00656816
0.00716621
0.00777904
0.00840009
0.00902214
0.00963763
0.0102389
0.0108186
0.0113699
0.011887
0.0123654
0.0128017
0.0131944
0.0135434
0.0138499
0.014117
0.0143484
0.0145494
0.014725
0.0148821
0.0150282
0.0151673
0.0153037
0.0154431
0.015591
0.0157513
0.0159265
0.0161186
0.0163284
0.0165555
0.0167986
0.0170549
0.0173206
0.0175905
0.0178587
0.018116
0.0183519
0.0185558
0.0187155
0.0188078
0.01883
0.0187702
0.0186065
0.0183247
0.0179139
0.0173658
0.0166767
0.0158487
0.0148905
0.0138175
0.0126524
0.0114235
0.0101638
0.00890768
0.00768908
0.00653801
0.00547854
0.00452724
0.00369283
0.00297679
0.00237496
0.00187963
0.00148198
0.00117465
0.000954868
0.000829404
0.000827415
0.00105471
0.00216419
5.2279e-05
2.51923e-05
1.83386e-05
1.58549e-05
1.50941e-05
1.52296e-05
1.59045e-05
1.6936e-05
1.82112e-05
1.96583e-05
2.12284e-05
2.28874e-05
2.46117e-05
2.63857e-05
2.82007e-05
3.00544e-05
3.19501e-05
3.38972e-05
3.59111e-05
3.80135e-05
4.02329e-05
4.26052e-05
4.51743e-05
4.7993e-05
5.11246e-05
5.46433e-05
5.86369e-05
6.32076e-05
6.84751e-05
7.45784e-05
8.16789e-05
8.99639e-05
9.965e-05
0.000110987
0.000124263
0.00013981
0.000158006
0.000179287
0.00020415
0.000233159
0.000266957
0.000306271
0.000351926
0.000404848
0.000466081
0.000536792
0.000618284
0.000712001
0.000819538
0.00094264
0.0010832
0.00124326
0.00142497
0.00163057
0.00186237
0.00212264
0.00241357
0.00273718
0.00309516
0.00348879
0.00391879
0.00438514
0.00488695
0.00542234
0.00598834
0.0065808
0.00719442
0.00782281
0.00845866
0.0090939
0.00972008
0.0103287
0.0109116
0.0114613
0.0119716
0.0124376
0.012856
0.0132256
0.0135468
0.0138218
0.0140541
0.014249
0.0144119
0.0145503
0.0146736
0.014785
0.0148893
0.0149953
0.0151092
0.0152356
0.0153785
0.0155412
0.0157257
0.0159331
0.0161638
0.0164167
0.0166899
0.0169806
0.0172843
0.0175958
0.0179082
0.0182138
0.0185041
0.0187673
0.0189902
0.0191582
0.0192421
0.0192525
0.0191652
0.0189593
0.0186221
0.0181425
0.0175135
0.0167336
0.0158082
0.0147496
0.0135785
0.0123225
0.0110153
0.0096941
0.00839674
0.0071583
0.00600823
0.00496827
0.00405138
0.0032621
0.00259801
0.00205196
0.00161488
0.00127871
0.00104006
0.000905826
0.000907276
0.00116023
0.00238279
5.81619e-05
2.798e-05
2.02643e-05
1.73733e-05
1.63701e-05
1.63433e-05
1.69003e-05
1.78436e-05
1.90502e-05
2.0443e-05
2.19693e-05
2.35928e-05
2.52883e-05
2.70394e-05
2.88371e-05
3.0679e-05
3.25691e-05
3.45176e-05
3.6541e-05
3.86626e-05
4.09127e-05
4.33295e-05
4.59597e-05
4.88595e-05
5.20961e-05
5.57489e-05
5.99114e-05
6.46932e-05
7.02229e-05
7.66503e-05
8.41503e-05
9.29262e-05
0.000103214
0.000115289
0.000129466
0.000146112
0.000165648
0.000188558
0.000215396
0.000246797
0.000283483
0.000326275
0.000376102
0.000434017
0.000501202
0.000578982
0.000668834
0.000772397
0.000891475
0.00102804
0.00118421
0.00136226
0.00156457
0.00179359
0.00205177
0.00234151
0.00266501
0.00302419
0.00342052
0.00385487
0.00432734
0.00483712
0.00538226
0.00595965
0.00656484
0.00719211
0.00783451
0.00848399
0.00913171
0.00976835
0.0103845
0.0109712
0.0115204
0.0120251
0.0124803
0.0128826
0.0132308
0.013526
0.0137709
0.0139703
0.0141294
0.0142562
0.0143614
0.0144482
0.0145212
0.0145916
0.0146669
0.0147524
0.0148536
0.0149745
0.0151184
0.0152876
0.0154834
0.0157064
0.015956
0.016231
0.0165291
0.0168471
0.017181
0.0175254
0.0178739
0.018219
0.0185513
0.0188608
0.0191373
0.0193688
0.0195317
0.0196033
0.0195925
0.0194672
0.0192116
0.018812
0.0182575
0.017543
0.0166695
0.0156455
0.0144883
0.0132236
0.0118849
0.0105109
0.0091431
0.00782148
0.00658136
0.00545032
0.0044465
0.00357843
0.00284621
0.00224386
0.0017624
0.00139326
0.00113246
0.000986923
0.000989956
0.00126748
0.00260346
6.43148e-05
3.09006e-05
2.22932e-05
1.89892e-05
1.77477e-05
1.75671e-05
1.80182e-05
1.88856e-05
2.00374e-05
2.139e-05
2.28871e-05
2.44895e-05
2.61706e-05
2.7913e-05
2.97074e-05
3.15515e-05
3.34499e-05
3.54137e-05
3.74608e-05
3.96163e-05
4.19128e-05
4.43911e-05
4.71012e-05
5.01034e-05
5.34695e-05
5.72848e-05
6.16496e-05
6.66821e-05
7.2521e-05
7.93288e-05
8.72956e-05
9.66431e-05
0.00010763
0.000120558
0.000135775
0.000153688
0.000174762
0.000199539
0.000228637
0.000262767
0.000302741
0.000349482
0.000404039
0.000467599
0.000541498
0.000627231
0.000726466
0.000841047
0.000973
0.00112452
0.00129798
0.00149586
0.00172075
0.00197529
0.00226203
0.0025834
0.00294153
0.00333812
0.00377422
0.00425014
0.00476514
0.00531736
0.00590358
0.00651919
0.00715812
0.00781294
0.00847498
0.00913464
0.00978176
0.0104061
0.0109978
0.0115479
0.0120491
0.0124958
0.0128845
0.0132141
0.0134858
0.0137031
0.0138713
0.0139979
0.0140924
0.0141624
0.0142106
0.0142492
0.0142863
0.014329
0.0143848
0.0144582
0.0145535
0.0146741
0.0148222
0.0149993
0.015206
0.0154421
0.0157066
0.0159979
0.0163137
0.016651
0.0170058
0.0173735
0.0177482
0.0181231
0.0184899
0.0188394
0.0191602
0.0194403
0.0196646
0.0198156
0.0198749
0.0198346
0.0196671
0.0193575
0.0188908
0.0182581
0.0174557
0.016487
0.015365
0.0141121
0.0127601
0.0113484
0.00992111
0.00852293
0.00719526
0.00597219
0.00487796
0.00392607
0.00312007
0.00245586
0.00192499
0.00151862
0.00123224
0.00107281
0.00107554
0.00137661
0.00282651
7.07494e-05
3.39593e-05
2.44277e-05
2.07032e-05
1.92256e-05
1.88982e-05
1.92537e-05
2.00563e-05
2.11657e-05
2.24911e-05
2.3972e-05
2.55665e-05
2.72462e-05
2.89929e-05
3.07968e-05
3.26559e-05
3.45752e-05
3.65672e-05
3.86512e-05
4.08545e-05
4.32122e-05
4.57683e-05
4.85765e-05
5.17018e-05
5.52213e-05
5.92269e-05
6.3827e-05
6.91494e-05
7.53445e-05
8.25888e-05
9.10897e-05
0.00010109
0.000112873
0.000126771
0.000143169
0.000162517
0.000185332
0.000212217
0.000243863
0.000281066
0.000324734
0.000375906
0.00043576
0.000505631
0.00058702
0.000681607
0.000791261
0.000918044
0.00106421
0.00123219
0.00142457
0.00164407
0.00189345
0.00217547
0.00249273
0.00284761
0.00324201
0.00367728
0.0041539
0.00467134
0.00522785
0.00582026
0.00644386
0.00709238
0.007758
0.00843151
0.00910265
0.00976045
0.0103938
0.0109919
0.0115452
0.0120454
0.0124865
0.0128647
0.013179
0.0134308
0.0136236
0.0137639
0.0138597
0.0139254
0.0139579
0.0139712
0.0139764
0.0139816
0.0139928
0.0140167
0.0140609
0.0141284
0.0142227
0.0143458
0.0144991
0.0146834
0.0148984
0.0151435
0.0154174
0.0157185
0.0160444
0.0163925
0.0167592
0.0171406
0.0175318
0.0179268
0.0183187
0.0186991
0.0190579
0.0193843
0.0196641
0.0198808
0.0200098
0.0200494
0.0199814
0.0197699
0.0194022
0.018866
0.0181525
0.0172595
0.0161943
0.0149749
0.0136298
0.0121977
0.0107243
0.00925848
0.00784772
0.00653314
0.00534597
0.00430576
0.00342051
0.00268881
0.00210335
0.0016553
0.0013397
0.00116375
0.00116423
0.00148783
0.00305247
7.74794e-05
3.71622e-05
2.66711e-05
2.25166e-05
2.08037e-05
2.03354e-05
2.06041e-05
2.1352e-05
2.24304e-05
2.37404e-05
2.52171e-05
2.68159e-05
2.85063e-05
3.02693e-05
3.20945e-05
3.39802e-05
3.59324e-05
3.79646e-05
4.00981e-05
4.23624e-05
4.47956e-05
4.74453e-05
5.03695e-05
5.36383e-05
5.7335e-05
6.15589e-05
6.64275e-05
7.20793e-05
7.86777e-05
8.64154e-05
9.55188e-05
0.000106254
0.000118932
0.00013392
0.000151642
0.000172596
0.00019736
0.0002266
0.00026109
0.000301717
0.000349498
0.000405596
0.000471329
0.000548193
0.000637865
0.000742224
0.000863349
0.00100353
0.00116524
0.00135116
0.00156409
0.00180693
0.00208258
0.00239387
0.00274336
0.00313324
0.0035651
0.0040397
0.00455677
0.00511476
0.00571063
0.00633971
0.00699563
0.00767031
0.00835415
0.00903627
0.00970498
0.0103483
0.0109546
0.0115134
0.0120155
0.0124544
0.0128259
0.0131287
0.0133642
0.013537
0.0136523
0.0137246
0.013755
0.0137576
0.0137383
0.0137103
0.0136821
0.0136645
0.0136594
0.0136711
0.0137098
0.0137759
0.0138716
0.0139982
0.0141561
0.0143453
0.0145651
0.0148145
0.0150922
0.0153963
0.0157251
0.016076
0.0164464
0.016833
0.0172318
0.0176381
0.0180462
0.0184489
0.0188377
0.0192027
0.0195316
0.019809
0.0200185
0.0201252
0.0201428
0.0200442
0.019786
0.0193582
0.0187494
0.0179511
0.0169638
0.0157999
0.0144832
0.0130499
0.0115461
0.0100239
0.00853657
0.00713256
0.00585098
0.00471849
0.00374868
0.00294381
0.00229837
0.00180395
0.00145531
0.00126007
0.00125627
0.00160147
0.00328203
8.45198e-05
4.0516e-05
2.90275e-05
2.44318e-05
2.24831e-05
2.18785e-05
2.20681e-05
2.27707e-05
2.38285e-05
2.5134e-05
2.66177e-05
2.8232e-05
2.99444e-05
3.17347e-05
3.35924e-05
3.55159e-05
3.75121e-05
3.9596e-05
4.1791e-05
4.41292e-05
4.6652e-05
4.9411e-05
5.2469e-05
5.59017e-05
5.97996e-05
6.42702e-05
6.94409e-05
7.54623e-05
8.25125e-05
9.08017e-05
0.000100578
0.000112132
0.000125807
0.000142007
0.000161201
0.00018394
0.000210864
0.000242716
0.000280354
0.000324769
0.000377094
0.000438627
0.000510839
0.000595395
0.000694164
0.000809229
0.00094289
0.00109766
0.00127627
0.00148159
0.00171662
0.00198442
0.00228799
0.00263011
0.00301323
0.00343922
0.00390915
0.00442306
0.00497968
0.00557622
0.00620816
0.00686917
0.00755104
0.00824389
0.00893637
0.00961614
0.0102704
0.0108867
0.0114535
0.0119608
0.0124012
0.01277
0.0130655
0.0132891
0.013445
0.0135414
0.0135876
0.013594
0.013564
0.0135163
0.0134572
0.013398
0.0133467
0.0133138
0.0133009
0.0133057
0.0133432
0.0134105
0.0135088
0.0136385
0.0137993
0.0139905
0.0142112
0.0144603
0.0147362
0.0150375
0.0153627
0.0157098
0.0160768
0.0164612
0.0168602
0.0172702
0.0176866
0.0181038
0.0185147
0.0189107
0.0192812
0.0196124
0.019889
0.0200872
0.0201776
0.0201733
0.0200387
0.0197306
0.0192393
0.0185522
0.0176627
0.0165759
0.0153098
0.0138961
0.0123796
0.0108146
0.00925929
0.00776968
0.0063934
0.00516534
0.00410592
0.00322214
0.00251112
0.00196538
0.00157966
0.00136214
0.00135202
0.00171792
0.00351601
9.18872e-05
4.40284e-05
3.15018e-05
2.64521e-05
2.42657e-05
2.35285e-05
2.36458e-05
2.43116e-05
2.53583e-05
2.66695e-05
2.81708e-05
2.9811e-05
3.1556e-05
3.33842e-05
3.52848e-05
3.72566e-05
3.93076e-05
4.14543e-05
4.37226e-05
4.61474e-05
4.87738e-05
5.16577e-05
5.48675e-05
5.84851e-05
6.26087e-05
6.7355e-05
7.28624e-05
7.92949e-05
8.68467e-05
9.57472e-05
0.000106268
0.000118729
0.000133506
0.000151045
0.000171863
0.000196571
0.000225876
0.000260604
0.000301707
0.000350285
0.000407601
0.000475095
0.000554403
0.00064737
0.000756066
0.000882787
0.00103006
0.00120063
0.00139744
0.00162357
0.0018822
0.00217648
0.00250941
0.00288368
0.00330147
0.00376418
0.0042722
0.00482464
0.00541902
0.00605111
0.00671473
0.00740174
0.00810208
0.00880409
0.00949488
0.010161
0.0107889
0.0113662
0.011882
0.0123278
0.0126982
0.0129909
0.0132072
0.0133516
0.013431
0.0134594
0.0134387
0.0133849
0.0133077
0.0132207
0.0131319
0.0130511
0.0129852
0.0129445
0.0129286
0.0129314
0.0129704
0.0130402
0.0131411
0.0132726
0.0134341
0.0136245
0.0138426
0.0140871
0.0143568
0.0146506
0.014967
0.015305
0.0156631
0.0160397
0.0164329
0.0168402
0.0172582
0.0176828
0.0181083
0.0185276
0.0189317
0.0193087
0.0196438
0.0199193
0.0201083
0.0201874
0.0201553
0.0199821
0.0196183