/*--------------------------------*- C++ -*----------------------------------*\
  =========                 |
  \\      /  F ield         | OpenFOAM: The Open Source CFD Toolbox
   \\    /   O peration     | Website:  https://openfoam.org
    \\  /    A nd           | Version:  12
     \\/     M anipulation  |
\*---------------------------------------------------------------------------*/
FoamFile
{
    format      ascii;
    class       volScalarField;
    location    "7";
    object      k;
}
// * * * * * * * * * * * * * * * * * * * * * * * * * * * * * * * * * * * * * //

dimensions      [0 2 -2 0 0 0 0];

internalField   nonuniform List<scalar> 
18225
(
3.08133e-10
2.08539e-09
4.64904e-09
7.71241e-09
1.11431e-08
1.4857e-08
1.87906e-08
2.28914e-08
2.71135e-08
3.14159e-08
3.5762e-08
4.01198e-08
4.44626e-08
4.87691e-08
5.30251e-08
5.72234e-08
6.1365e-08
6.54598e-08
6.95272e-08
7.35965e-08
7.77073e-08
8.19107e-08
8.62689e-08
9.08566e-08
9.57609e-08
1.01083e-07
1.06936e-07
1.13452e-07
1.20776e-07
1.29071e-07
1.38516e-07
1.49312e-07
1.61676e-07
1.75848e-07
1.92085e-07
2.10668e-07
2.31896e-07
2.56088e-07
2.83585e-07
3.14741e-07
3.49932e-07
3.89544e-07
4.33981e-07
4.83654e-07
5.38987e-07
6.00409e-07
6.68355e-07
7.43266e-07
8.25581e-07
9.15742e-07
1.01419e-06
1.12135e-06
1.23766e-06
1.36353e-06
1.49937e-06
1.64556e-06
1.80248e-06
1.97047e-06
2.14985e-06
2.34091e-06
2.54393e-06
2.75912e-06
2.9867e-06
3.22683e-06
3.47966e-06
3.74529e-06
4.0238e-06
4.31524e-06
4.61964e-06
4.93699e-06
5.26728e-06
5.61043e-06
5.96639e-06
6.33503e-06
6.71621e-06
7.10978e-06
7.5155e-06
7.93312e-06
8.36231e-06
8.8027e-06
9.25381e-06
9.71508e-06
1.01858e-05
1.06652e-05
1.11523e-05
1.1646e-05
1.21448e-05
1.26471e-05
1.31511e-05
1.36544e-05
1.41545e-05
1.46483e-05
1.51323e-05
1.56024e-05
1.60543e-05
1.64827e-05
1.68821e-05
1.7246e-05
1.75673e-05
1.78384e-05
1.80509e-05
1.81898e-05
1.82507e-05
1.82528e-05
1.81618e-05
1.79705e-05
1.76757e-05
1.7275e-05
1.67678e-05
1.61556e-05
1.54432e-05
1.46382e-05
1.37518e-05
1.2798e-05
1.17938e-05
1.07577e-05
9.70974e-06
8.66965e-06
7.65631e-06
6.68655e-06
5.77444e-06
4.93072e-06
4.16252e-06
3.47343e-06
2.86377e-06
2.33106e-06
1.87059e-06
1.47613e-06
1.1404e-06
8.55874e-07
6.15347e-07
4.12638e-07
2.43612e-07
1.08105e-07
1.59445e-08
2.32904e-09
1.8573e-08
4.17187e-08
6.93232e-08
1.00221e-07
1.33663e-07
1.69079e-07
2.05999e-07
2.44008e-07
2.82739e-07
3.21863e-07
3.61091e-07
4.00181e-07
4.38945e-07
4.77252e-07
5.15037e-07
5.52311e-07
5.89162e-07
6.25763e-07
6.62379e-07
6.99367e-07
7.37185e-07
7.76394e-07
8.17665e-07
8.61782e-07
9.09653e-07
9.6231e-07
1.02092e-06
1.0868e-06
1.16141e-06
1.24638e-06
1.3435e-06
1.45472e-06
1.58221e-06
1.72829e-06
1.89547e-06
2.08645e-06
2.30411e-06
2.5515e-06
2.83184e-06
3.14847e-06
3.5049e-06
3.90475e-06
4.35173e-06
4.84965e-06
5.40237e-06
6.01381e-06
6.68792e-06
7.42868e-06
8.24004e-06
9.12597e-06
1.00904e-05
1.11371e-05
1.22698e-05
1.34923e-05
1.48079e-05
1.62201e-05
1.77319e-05
1.93462e-05
2.10657e-05
2.28927e-05
2.48293e-05
2.68774e-05
2.90384e-05
3.13136e-05
3.37041e-05
3.62104e-05
3.88331e-05
4.15723e-05
4.4428e-05
4.74001e-05
5.0488e-05
5.3691e-05
5.70081e-05
6.04381e-05
6.39793e-05
6.763e-05
7.13876e-05
7.52493e-05
7.92117e-05
8.32706e-05
8.74208e-05
9.16563e-05
9.59697e-05
0.000100352
0.000104794
0.000109282
0.000113802
0.000118336
0.000122865
0.000127365
0.000131809
0.000136165
0.000140397
0.000144464
0.000148321
0.000151917
0.000155195
0.00015809
0.000160533
0.00016244
0.000163675
0.000164203
0.000164213
0.00016338
0.000161644
0.000158978
0.000155362
0.000150789
0.000145274
0.00013886
0.000131615
0.00012364
0.000115062
0.000106031
9.67159e-05
8.72942e-05
7.79441e-05
6.88346e-05
6.01169e-05
5.19172e-05
4.4332e-05
3.74255e-05
3.123e-05
2.57483e-05
2.09584e-05
1.68178e-05
1.32698e-05
1.02503e-05
7.69154e-06
5.52848e-06
3.70523e-06
2.18411e-06
9.62116e-07
1.20463e-07
4.94802e-09
4.24303e-08
9.59264e-08
1.59733e-07
2.31141e-07
3.08417e-07
3.90249e-07
4.75547e-07
5.6336e-07
6.52833e-07
7.43208e-07
8.33819e-07
9.24105e-07
1.01363e-06
1.10209e-06
1.18933e-06
1.27539e-06
1.36045e-06
1.44492e-06
1.52942e-06
1.61476e-06
1.702e-06
1.79244e-06
1.88762e-06
1.98936e-06
2.09975e-06
2.22117e-06
2.35632e-06
2.50824e-06
2.6803e-06
2.87624e-06
3.10022e-06
3.35676e-06
3.65084e-06
3.98782e-06
4.37351e-06
4.81416e-06
5.31642e-06
5.88732e-06
6.5343e-06
7.26513e-06
8.08789e-06
9.01095e-06
1.00429e-05
1.11926e-05
1.24689e-05
1.38809e-05
1.54379e-05
1.71489e-05
1.90232e-05
2.10699e-05
2.32982e-05
2.5717e-05
2.83349e-05
3.11606e-05
3.42021e-05
3.74672e-05
4.09632e-05
4.46969e-05
4.86745e-05
5.29016e-05
5.73832e-05
6.21236e-05
6.71266e-05
7.2395e-05
7.79314e-05
8.37374e-05
8.98143e-05
9.61625e-05
0.000102782
0.000109673
0.000116833
0.000124261
0.000131954
0.00013991
0.000148124
0.000156591
0.000165305
0.00017426
0.000183446
0.000192853
0.000202468
0.000212277
0.00022226
0.000232398
0.000242664
0.000253031
0.000263462
0.000273917
0.00028435
0.000294705
0.000304919
0.000314918
0.00032462
0.000333932
0.000342748
0.000350953
0.000358416
0.000364993
0.000370528
0.000374842
0.000377598
0.000378725
0.0003787
0.000376719
0.000372665
0.000366474
0.000358102
0.000347534
0.000334803
0.000320005
0.000303298
0.00028491
0.000265135
0.000244318
0.000222846
0.00020113
0.000179579
0.000158584
0.000138493
0.000119596
0.000102117
8.6203e-05
7.19282e-05
5.9299e-05
4.82641e-05
3.87258e-05
3.05538e-05
2.35988e-05
1.77045e-05
1.27207e-05
8.51871e-06
5.01168e-06
2.1937e-06
2.55446e-07
8.09459e-09
7.11449e-08
1.61619e-07
2.69672e-07
3.9063e-07
5.2153e-07
6.60142e-07
8.0462e-07
9.53348e-07
1.10488e-06
1.25793e-06
1.41136e-06
1.56422e-06
1.71577e-06
1.8655e-06
2.01315e-06
2.15875e-06
2.30264e-06
2.44551e-06
2.58837e-06
2.73263e-06
2.88007e-06
3.03288e-06
3.19369e-06
3.36555e-06
3.55201e-06
3.75711e-06
3.9854e-06
4.24201e-06
4.53267e-06
4.86373e-06
5.24218e-06
5.67573e-06
6.17276e-06
6.7424e-06
7.39448e-06
8.13959e-06
8.989e-06
9.95465e-06
1.10492e-05
1.22857e-05
1.3678e-05
1.52403e-05
1.69871e-05
1.89336e-05
2.10947e-05
2.34861e-05
2.61234e-05
2.90221e-05
3.21981e-05
3.56669e-05
3.94441e-05
4.3545e-05
4.79846e-05
5.27775e-05
5.79378e-05
6.34788e-05
6.94132e-05
7.57528e-05
8.25083e-05
8.96897e-05
9.73057e-05
0.000105364
0.000113871
0.000122831
0.00013225
0.000142131
0.000152474
0.000163281
0.000174551
0.000186283
0.000198474
0.000211119
0.000224214
0.000237751
0.000251721
0.000266113
0.000280916
0.000296114
0.000311688
0.000327619
0.000343881
0.000360447
0.000377283
0.00039435
0.000411606
0.000428997
0.000446464
0.00046394
0.000481346
0.00049859
0.000515567
0.00053216
0.000548232
0.000563633
0.000578193
0.000591722
0.000604011
0.00061483
0.000623924
0.000631011
0.000635487
0.000637264
0.000637184
0.000633849
0.000627058
0.000616707
0.000602714
0.000585045
0.000563744
0.000538957
0.000510943
0.000480078
0.000446846
0.00041183
0.000375683
0.000339099
0.000302773
0.00026737
0.000233484
0.000201611
0.000172128
0.000145288
0.000121216
9.99224e-05
8.13196e-05
6.52421e-05
5.14692e-05
3.97476e-05
2.98129e-05
2.14115e-05
1.43265e-05
8.41285e-06
3.6654e-06
4.16461e-07
1.16714e-08
1.03613e-07
2.36194e-07
3.94817e-07
5.72488e-07
7.64798e-07
9.68449e-07
1.18072e-06
1.39922e-06
1.62182e-06
1.84663e-06
2.07198e-06
2.29647e-06
2.51899e-06
2.73878e-06
2.95546e-06
3.16909e-06
3.38015e-06
3.58963e-06
3.79905e-06
4.01045e-06
4.22646e-06
4.45028e-06
4.68577e-06
4.93742e-06
5.21042e-06
5.5107e-06
5.84496e-06
6.22073e-06
6.64641e-06
7.13132e-06
7.68576e-06
8.32103e-06
9.04947e-06
9.8845e-06
1.08406e-05
1.19333e-05
1.31793e-05
1.4596e-05
1.62022e-05
1.80172e-05
2.00614e-05
2.23556e-05
2.49214e-05
2.7781e-05
3.09569e-05
3.44719e-05
3.83493e-05
4.26122e-05
4.7284e-05
5.2388e-05
5.79474e-05
6.39851e-05
7.05234e-05
7.75844e-05
8.51892e-05
9.33579e-05
0.00010211
0.000111462
0.000121433
0.000132035
0.000143283
0.000155188
0.000167759
0.000181005
0.000194931
0.000209541
0.000224836
0.000240815
0.000257477
0.000274815
0.000292823
0.000311488
0.0003308
0.000350741
0.000371293
0.000392432
0.000414135
0.000436371
0.000459106
0.000482304
0.000505923
0.000529914
0.000554225
0.000578796
0.000603562
0.000628447
0.000653367
0.000678228
0.000702921
0.000727324
0.000751296
0.000774679
0.000797293
0.000818937
0.000839383
0.000858376
0.000875632
0.000890843
0.000903663
0.000913685
0.000920083
0.000922636
0.000922627
0.000918079
0.000908604
0.000894051
0.000874279
0.000849206
0.000818861
0.000783422
0.000743232
0.000698811
0.000650847
0.000600175
0.000547747
0.000494582
0.000441711
0.000390121
0.000340698
0.000294185
0.000251148
0.000211965
0.000176825
0.000145746
0.000118599
9.51422e-05
7.50499e-05
5.79507e-05
4.34571e-05
3.11983e-05
2.08585e-05
1.22291e-05
5.31057e-06
5.97421e-07
1.56107e-08
1.39245e-07
3.18212e-07
5.32723e-07
7.73181e-07
1.03353e-06
1.30928e-06
1.5967e-06
1.89255e-06
2.19395e-06
2.4983e-06
2.80333e-06
3.10715e-06
3.40823e-06
3.70554e-06
3.99856e-06
4.28735e-06
4.57256e-06
4.85555e-06
5.13834e-06
5.42371e-06
5.71519e-06
6.01715e-06
6.33478e-06
6.67416e-06
7.04232e-06
7.44728e-06
7.89812e-06
8.40501e-06
8.97934e-06
9.63373e-06
1.03821e-05
1.12398e-05
1.22236e-05
1.33517e-05
1.46436e-05
1.61206e-05
1.78052e-05
1.97213e-05
2.18942e-05
2.43503e-05
2.71173e-05
3.02237e-05
3.3699e-05
3.75734e-05
4.18776e-05
4.66431e-05
5.19014e-05
5.76846e-05
6.40248e-05
7.0954e-05
7.85043e-05
8.67073e-05
9.55943e-05
0.000105196
0.000115541
0.000126657
0.000138573
0.000151312
0.000164897
0.000179349
0.000194686
0.000210924
0.000228073
0.000246144
0.000265142
0.000285069
0.000305924
0.0003277
0.000350387
0.000373971
0.000398432
0.000423747
0.000449887
0.000476817
0.0005045
0.000532892
0.000561945
0.000591607
0.000621821
0.000652526
0.000683657
0.000715143
0.000746912
0.000778882
0.000810969
0.00084308
0.000875115
0.00090696
0.000938494
0.000969576
0.00100005
0.00102972
0.0010584
0.00108585
0.0011118
0.00113595
0.00115795
0.00117743
0.00119395
0.001207
0.00121564
0.0012193
0.00121964
0.00121444
0.00120283
0.00118464
0.00115964
0.00112765
0.00108865
0.00104281
0.000990532
0.000932446
0.000869428
0.000802569
0.00073313
0.000662482
0.000592028
0.000523121
0.00045699
0.00039467
0.000336955
0.000284381
0.000237221
0.000195511
0.000159081
0.000127607
0.000100652
7.77121e-05
5.82663e-05
4.1816e-05
2.79385e-05
1.6359e-05
7.08754e-06
7.93593e-07
1.987e-08
1.77691e-07
4.06806e-07
6.81891e-07
9.90516e-07
1.32481e-06
1.67894e-06
2.0481e-06
2.42808e-06
2.81517e-06
3.206e-06
3.59765e-06
3.98764e-06
4.37403e-06
4.75545e-06
5.13124e-06
5.50145e-06
5.86693e-06
6.22939e-06
6.59144e-06
6.95665e-06
7.32955e-06
7.71574e-06
8.12189e-06
8.55582e-06
9.02654e-06
9.54435e-06
1.01209e-05
1.07693e-05
1.15041e-05
1.23416e-05
1.32997e-05
1.43981e-05
1.56584e-05
1.7104e-05
1.87602e-05
2.06542e-05
2.28153e-05
2.52742e-05
2.80637e-05
3.12179e-05
3.47727e-05
3.8765e-05
4.3233e-05
4.8216e-05
5.37541e-05
5.9888e-05
6.66591e-05
7.41092e-05
8.22803e-05
9.12145e-05
0.000100954
0.00011154
0.000123015
0.000135418
0.000148787
0.000163161
0.000178574
0.000195059
0.000212645
0.000231359
0.000251222
0.000272251
0.000294461
0.000317857
0.000342443
0.000368213
0.000395156
0.000423252
0.000452477
0.000482796
0.000514168
0.000546543
0.000579866
0.000614072
0.000649092
0.000684851
0.000721269
0.000758263
0.000795746
0.00083363
0.000871827
0.000910247
0.000948798
0.000987391
0.00102593
0.00106433
0.00110247
0.00114026
0.00117757
0.00121428
0.00125022
0.00128521
0.00131905
0.0013515
0.00138226
0.00141101
0.00143735
0.00146085
0.001481
0.00149717
0.00150849
0.00151377
0.00151484
0.00150983
0.00149701
0.00147618
0.00144699
0.00140917
0.00136258
0.00130735
0.00124387
0.00117287
0.00109537
0.00101268
0.000926361
0.000838141
0.00074981
0.000663121
0.000579684
0.000500875
0.000427763
0.000361083
0.000301223
0.000248259
0.000201995
0.000162024
0.000127793
9.86613e-05
7.39645e-05
5.30682e-05
3.54373e-05
2.0729e-05
8.96625e-06
1.00144e-06
2.44228e-08
2.18737e-07
5.01445e-07
8.41379e-07
1.22309e-06
1.63675e-06
2.07506e-06
2.53201e-06
3.00238e-06
3.48151e-06
3.96522e-06
4.44985e-06
4.93231e-06
5.41016e-06
5.88171e-06
6.34608e-06
6.80335e-06
7.25456e-06
7.70183e-06
8.14837e-06
8.59861e-06
9.05816e-06
9.53396e-06
1.00343e-05
1.05687e-05
1.11485e-05
1.17864e-05
1.24969e-05
1.3296e-05
1.4202e-05
1.5235e-05
1.64171e-05
1.7773e-05
1.93292e-05
2.1115e-05
2.31618e-05
2.55036e-05
2.81766e-05
3.12193e-05
3.46725e-05
3.8579e-05
4.29835e-05
4.79322e-05
5.34731e-05
5.96554e-05
6.65295e-05
7.41468e-05
8.25594e-05
9.18202e-05
0.000101982
0.000113099
0.000125224
0.00013841
0.00015271
0.000168173
0.000184851
0.000202788
0.00022203
0.000242616
0.000264581
0.000287956
0.000312764
0.000339022
0.000366739
0.000395915
0.000426541
0.000458597
0.000492052
0.000526863
0.000562976
0.000600325
0.000638831
0.000678407
0.000718955
0.000760369
0.000802537
0.000845342
0.000888665
0.00093239
0.0009764
0.00102058
0.00106484
0.00110906
0.00115317
0.00119706
0.00124068
0.00128393
0.00132674
0.00136904
0.00141073
0.00145171
0.00149184
0.00153099
0.00156894
0.00160548
0.00164029
0.00167303
0.00170328
0.00173055
0.00175425
0.00177367
0.00178805
0.00179555
0.00179775
0.00179383
0.00178083
0.00175852
0.00172644
0.00168416
0.00163145
0.00156831
0.00149513
0.00141262
0.00132193
0.00122453
0.00112226
0.00101715
0.000911372
0.000807095
0.000706335
0.000610845
0.000522021
0.000440842
0.00036786
0.000303223
0.000246731
0.00019791
0.000156096
0.000120509
9.03361e-05
6.48017e-05
4.32544e-05
2.52825e-05
1.09233e-05
1.21822e-06
2.92532e-08
2.62253e-07
6.01803e-07
1.01061e-06
1.47003e-06
1.96814e-06
2.49609e-06
3.04656e-06
3.61323e-06
4.19041e-06
4.77303e-06
5.35663e-06
5.93745e-06
6.51252e-06
7.07975e-06
7.6381e-06
8.18762e-06
8.72957e-06
9.26648e-06
9.80225e-06
1.03422e-05
1.08931e-05
1.14633e-05
1.20628e-05
1.27033e-05
1.33981e-05
1.41627e-05
1.50145e-05
1.5973e-05
1.70602e-05
1.83001e-05
1.97199e-05
2.1349e-05
2.32197e-05
2.53674e-05
2.78303e-05
3.06494e-05
3.38688e-05
3.75353e-05
4.16985e-05
4.64105e-05
5.17257e-05
5.77008e-05
6.43944e-05
7.18666e-05
8.01793e-05
8.93956e-05
9.95796e-05
0.000110796
0.000123112
0.000136591
0.000151301
0.000167307
0.000184673
0.000203461
0.000223732
0.000245542
0.000268943
0.000293981
0.000320696
0.000349117
0.000379267
0.000411155
0.000444779
0.000480124
0.000517158
0.000555834
0.000596088
0.00063784
0.000680991
0.000725427
0.000771018
0.000817623
0.000865091
0.000913261
0.000961972
0.00101106
0.00106038
0.00110977
0.0011591
0.00120825
0.00125712
0.00130562
0.00135368
0.00140124
0.00144828
0.00149475
0.00154063
0.00158589
0.0016305
0.00167439
0.00171748
0.00175966
0.00180075
0.00184052
0.00187869
0.00191489
0.00194865
0.00197944
0.0020066
0.00202937
0.00204695
0.00205725
0.00206095
0.00205883
0.00204661
0.00202393
0.00199024
0.00194499
0.00188777
0.00181849
0.00173743
0.00164528
0.00154322
0.00143285
0.00131617
0.00119551
0.00107336
0.000952295
0.000834735
0.000722842
0.000618376
0.000522617
0.000436328
0.00035978
0.000292805
0.000234889
0.000185268
0.000143029
0.000107212
7.68957e-05
5.13107e-05
2.99745e-05
1.294e-05
1.44178e-06
3.43525e-08
3.08168e-07
7.07703e-07
1.18924e-06
1.73081e-06
2.31829e-06
2.94113e-06
3.59064e-06
4.25927e-06
4.94027e-06
5.62759e-06
6.3159e-06
7.0007e-06
7.67845e-06
8.34665e-06
9.00404e-06
9.65066e-06
1.0288e-05
1.0919e-05
1.15484e-05
1.21823e-05
1.28289e-05
1.3498e-05
1.42013e-05
1.49527e-05
1.57681e-05
1.66656e-05
1.76659e-05
1.8792e-05
2.00697e-05
2.15279e-05
2.31984e-05
2.51162e-05
2.73197e-05
2.98508e-05
3.27549e-05
3.60809e-05
3.98811e-05
4.42116e-05
4.91314e-05
5.47028e-05
6.09909e-05
6.80636e-05
7.59913e-05
8.48462e-05
9.47028e-05
0.000105637
0.000117726
0.000131049
0.000145685
0.000161714
0.000179214
0.000198266
0.000218945
0.000241327
0.000265482
0.000291475
0.000319364
0.000349198
0.000381017
0.000414847
0.0004507
0.000488569
0.000528433
0.000570246
0.000613943
0.000659433
0.000706605
0.000755321
0.000805424
0.000856736
0.000909061
0.000962193
0.00101592
0.00107002
0.00112428
0.00117851
0.00123252
0.00128615
0.00133926
0.00139175
0.00144354
0.00149458
0.00154486
0.00159438
0.00164317
0.00169126
0.00173869
0.00178551
0.00183174
0.00187737
0.00192237
0.00196665
0.00201006
0.00205238
0.00209332
0.00213248
0.00216938
0.0022034
0.00223384
0.00225988
0.00228063
0.00229411
0.00229962
0.00229957
0.00228895
0.00226686
0.00223275
0.00218593
0.00212585
0.00205227
0.00196535
0.00186571
0.00175447
0.00163326
0.00150421
0.00136984
0.00123292
0.00109636
0.00096299
0.00083538
0.000715689
0.000605544
0.00050598
0.000417443
0.000339848
0.000272675
0.000215087
0.000166051
0.000124462
8.92573e-05
5.95448e-05
3.47701e-05
1.50015e-05
1.67046e-06
3.97171e-08
3.56455e-07
8.19074e-07
1.37715e-06
2.00522e-06
2.68686e-06
3.40972e-06
4.16367e-06
4.93983e-06
5.73028e-06
6.52793e-06
7.32651e-06
8.12073e-06
8.90642e-06
9.68065e-06
1.04419e-05
1.11902e-05
1.19273e-05
1.26566e-05
1.33836e-05
1.41156e-05
1.48618e-05
1.56339e-05
1.64454e-05
1.73125e-05
1.82537e-05
1.92902e-05
2.04457e-05
2.17474e-05
2.32252e-05
2.49127e-05
2.68471e-05
2.90692e-05
3.16239e-05
3.45601e-05
3.7931e-05
4.1794e-05
4.62105e-05
5.12462e-05
5.69706e-05
6.3457e-05
7.07824e-05
7.90268e-05
8.82733e-05
9.86076e-05
0.000110118
0.000122894
0.000137029
0.000152614
0.000169745
0.000188516
0.000209021
0.000231352
0.000255599
0.000281848
0.000310178
0.000340662
0.000373359
0.000408319
0.000445574
0.000485138
0.000527002
0.000571137
0.000617482
0.00066595
0.000716424
0.000768755
0.000822763
0.000878241
0.000934954
0.000992646
0.00105105
0.00110988
0.00116887
0.00122774
0.00128625
0.00134417
0.00140132
0.00145753
0.00151271
0.00156679
0.00161975
0.00167162
0.00172245
0.00177234
0.00182139
0.00186973
0.00191746
0.0019647
0.00201153
0.002058
0.0021041
0.00214976
0.00219485
0.00223915
0.00228233
0.00232398
0.00236357
0.00240044
0.00243383
0.00246284
0.00248648
0.00250318
0.00251105
0.00251269
0.00250435
0.0024836
0.00245008
0.002403
0.00234165
0.00226563
0.00217495
0.00207008
0.00195205
0.00182243
0.00168337
0.00153749
0.00138777
0.0012374
0.00108957
0.000947265
0.000813052
0.000688951
0.000576323
0.000475853
0.000387594
0.000311068
0.000245398
0.000189453
0.000141995
0.000101818
6.79108e-05
3.96429e-05
1.70968e-05
1.90296e-06
4.53477e-08
4.07122e-07
9.35929e-07
1.57433e-06
2.29324e-06
3.0738e-06
3.90181e-06
4.76553e-06
5.65471e-06
6.56019e-06
7.47372e-06
8.38804e-06
9.29701e-06
1.01958e-05
1.10809e-05
1.19507e-05
1.2805e-05
1.36461e-05
1.44777e-05
1.53061e-05
1.61398e-05
1.69896e-05
1.78685e-05
1.87925e-05
1.97799e-05
2.08521e-05
2.20333e-05
2.3351e-05
2.48363e-05
2.65237e-05
2.84519e-05
3.06635e-05
3.32059e-05
3.61307e-05
3.94946e-05
4.3359e-05
4.77903e-05
5.28599e-05
5.8644e-05
6.52233e-05
7.26833e-05
8.11135e-05
9.06073e-05
0.000101262
0.000113177
0.000126457
0.000141206
0.000157532
0.000175545
0.000195354
0.000217069
0.000240798
0.000266648
0.000294721
0.000325112
0.000357907
0.000393181
0.000430993
0.000471382
0.000514367
0.000559938
0.000608055
0.000658647
0.000711603
0.000766777
0.00082398
0.000882987
0.000943535
0.00100533
0.00106805
0.00113135
0.00119488
0.00125831
0.00132129
0.00138353
0.00144475
0.00150473
0.00156332
0.00162039
0.00167592
0.0017299
0.00178241
0.00183357
0.00188353
0.00193248
0.00198062
0.00202815
0.00207525
0.00212209
0.0021688
0.00221546
0.00226206
0.00230856
0.0023548
0.00240055
0.00244545
0.00248905
0.00253079
0.00256998
0.00260581
0.00263734
0.00266351
0.00268308
0.00269339
0.00269655
0.0026908
0.002672
0.00263995
0.00259378
0.00253265
0.002456
0.00236364
0.00225585
0.0021335
0.00199803
0.0018515
0.00169655
0.00153626
0.00137403
0.00121336
0.00105762
0.000909802
0.000772355
0.000647017
0.000534772
0.000435876
0.000349947
0.00027611
0.000213164
0.000159751
0.000114535
7.6378e-05
4.45745e-05
1.92178e-05
2.1384e-06
5.12479e-08
4.60205e-07
1.05835e-06
1.78092e-06
2.59504e-06
3.47933e-06
4.4176e-06
5.39646e-06
6.40419e-06
7.43025e-06
8.4652e-06
9.50069e-06
1.05297e-05
1.15465e-05
1.25474e-05
1.35301e-05
1.44949e-05
1.54438e-05
1.63815e-05
1.73151e-05
1.82542e-05
1.92111e-05
2.02008e-05
2.12412e-05
2.23535e-05
2.35617e-05
2.48937e-05
2.63806e-05
2.80577e-05
2.99645e-05
3.21451e-05
3.4648e-05
3.75274e-05
4.08423e-05
4.46575e-05
4.90434e-05
5.40762e-05
5.98378e-05
6.64159e-05
7.39034e-05
8.23988e-05
9.20054e-05
0.000102831
0.000114988
0.000128593
0.000143764
0.000160623
0.000179296
0.000199908
0.000222584
0.000247451
0.000274632
0.000304245
0.000336404
0.000371209
0.000408751
0.000449099
0.000492305
0.000538391
0.000587348
0.000639132
0.000693656
0.000750789
0.000810356
0.000872128
0.000935831
0.00100115
0.00106771
0.00113514
0.001203
0.00127089
0.00133837
0.00140505
0.00147056
0.00153459
0.00159689
0.00165726
0.0017156
0.00177189
0.00182618
0.00187858
0.00192927
0.00197848
0.00202647
0.00207353
0.00211992
0.00216593
0.00221179
0.0022577
0.00230382
0.00235022
0.00239689
0.00244377
0.00249067
0.00253733
0.00258337
0.00262832
0.00267157
0.00271242
0.00275003
0.00278347
0.00281169
0.00283352
0.00284618
0.00285074
0.00284762
0.00283123
0.00280139
0.00275718
0.00269765
0.00262207
0.00253003
0.00242161
0.00229741
0.00215866
0.00200728
0.00184579
0.00167729
0.00150531
0.00133359
0.00116586
0.00100552
0.000855465
0.00071787
0.000594081
0.000484621
0.000389264
0.000307187
0.000237152
0.000177706
0.000127384
8.49294e-05
4.95543e-05
2.13598e-05
2.37623e-06
5.74244e-08
5.15765e-07
1.18648e-06
1.99713e-06
2.91093e-06
3.90383e-06
4.95758e-06
6.05702e-06
7.18885e-06
8.34111e-06
9.50303e-06
1.06651e-05
1.18193e-05
1.29593e-05
1.40805e-05
1.51808e-05
1.626e-05
1.73207e-05
1.83683e-05
1.94106e-05
2.04586e-05
2.15262e-05
2.26303e-05
2.37914e-05
2.5033e-05
2.63827e-05
2.78714e-05
2.95347e-05
3.14124e-05
3.3549e-05
3.59942e-05
3.88033e-05
4.20374e-05
4.57635e-05
5.00551e-05
5.49924e-05
6.06619e-05
6.7157e-05
7.45776e-05
8.30301e-05
9.26268e-05
0.000103486
0.000115731
0.000129491
0.000144899
0.00016209
0.000181205
0.000202386
0.000225775
0.000251516
0.00027975
0.000310613
0.000344234
0.000380734
0.000420218
0.000462771
0.000508455
0.000557299
0.000609299
0.000664406
0.000722524
0.000783504
0.000847139
0.000913166
0.000981261
0.00105105
0.00112209
0.00119394
0.00126608
0.00133802
0.00140926
0.00147932
0.00154777
0.00161424
0.00167845
0.00174018
0.00179933
0.0018559
0.00190995
0.00196167
0.0020113
0.00205913
0.00210551
0.00215079
0.00219534
0.0022395
0.00228359
0.00232787
0.00237255
0.00241777
0.00246357
0.00250995
0.00255677
0.00260384
0.00265086
0.00269741
0.00274301
0.00278704
0.0028288
0.00286747
0.00290213
0.00293175
0.00295525
0.00297007
0.00297597
0.00297524
0.00296165
0.00293462
0.00289329
0.00283661
0.00276365
0.0026738
0.00256687
0.00244318
0.00230369
0.00215003
0.00198455
0.00181026
0.00163073
0.00144986
0.00127166
0.00109998
0.000938151
0.000788823
0.000653767
0.000533839
0.000429039
0.000338647
0.000261429
0.000195861
0.000140364
9.35607e-05
5.45788e-05
2.35211e-05
2.61624e-06
6.38862e-08
5.73883e-07
1.32049e-06
2.22329e-06
3.24136e-06
4.34788e-06
5.52245e-06
6.74803e-06
8.00964e-06
9.29377e-06
1.05883e-05
1.18824e-05
1.31671e-05
1.44352e-05
1.56815e-05
1.69036e-05
1.81014e-05
1.92778e-05
2.04388e-05
2.15933e-05
2.27537e-05
2.39355e-05
2.51579e-05
2.64438e-05
2.78195e-05
2.9316e-05
3.0968e-05
3.28154e-05
3.49027e-05
3.728e-05
4.00031e-05
4.31342e-05
4.67419e-05
5.09018e-05
5.56968e-05
6.12172e-05
6.75612e-05
7.48341e-05
8.31493e-05
9.26272e-05
0.000103395
0.000115588
0.000129346
0.000144815
0.000162146
0.000181494
0.000203016
0.000226874
0.000253226
0.000282234
0.000314051
0.000348827
0.000386698
0.000427789
0.000472199
0.000520006
0.000571248
0.000625928
0.000683998
0.000745353
0.000809829
0.000877197
0.000947154
0.00101933
0.0010933
0.00116856
0.00124457
0.00132075
0.00139651
0.00147128
0.00154449
0.00161565
0.00168432
0.00175017
0.00181299
0.00187264
0.00192915
0.00198262
0.00203327
0.00208142
0.00212743
0.00217172
0.00221473
0.0022569
0.00229867
0.00234039
0.0023824
0.00242494
0.00246822
0.00251232
0.00255728
0.00260301
0.00264936
0.0026961
0.00274287
0.00278928
0.00283481
0.00287887
0.00292077
0.00295973
0.00299489
0.00302527
0.00304981
0.00306654
0.00307399
0.00307505
0.00306457
0.00304086
0.00300318
0.00295039
0.00288141
0.00279542
0.00269194
0.00257095
0.00243307
0.0022796
0.00211262
0.00193494
0.00175006
0.00156197
0.00137493
0.00119314
0.00102042
0.000859926
0.000713902
0.000583613
0.000469347
0.000370552
0.000286041
0.000214246
0.000153491
0.000102279
5.96508e-05
2.57025e-05
2.85852e-06
7.06444e-08
6.34662e-07
1.46064e-06
2.45977e-06
3.58688e-06
4.81221e-06
6.1131e-06
7.47053e-06
8.86773e-06
1.02896e-05
1.17224e-05
1.31542e-05
1.45746e-05
1.59757e-05
1.73519e-05
1.87001e-05
2.00205e-05
2.13164e-05
2.25944e-05
2.38647e-05
2.51409e-05
2.64406e-05
2.77852e-05
2.92e-05
3.07148e-05
3.23638e-05
3.4186e-05
3.62255e-05
3.85322e-05
4.1162e-05
4.41772e-05
4.76472e-05
5.16489e-05
5.62668e-05
6.15941e-05
6.7732e-05
7.47907e-05
8.28889e-05
9.21541e-05
0.000102722
0.000114737
0.00012835
0.000143719
0.000161009
0.00018039
0.000202036
0.000226124
0.000252832
0.000282338
0.000314817
0.000350436
0.000389352
0.000431708
0.000477622
0.000527186
0.000580454
0.000637437
0.000698091
0.000762311
0.00082992
0.000900669
0.000974226
0.00105018
0.00112804
0.00120725
0.0012872
0.00136722
0.00144663
0.00152477
0.00160099
0.00167472
0.00174546
0.00181283
0.00187658
0.00193658
0.00199285
0.00204553
0.0020949
0.00214131
0.00218522
0.00222712
0.00226753
0.00230698
0.00234594
0.00238488
0.00242415
0.00246406
0.00250484
0.00254662
0.00258946
0.00263333
0.00267809
0.00272356
0.00276944
0.0028154
0.00286101
0.00290578
0.00294914
0.00299046
0.00302902
0.00306401
0.00309453
0.00311958
0.00313787
0.00314695
0.00314938
0.0031422
0.00312213
0.00308867
0.00304062
0.00297675
0.00289602
0.00279767
0.00268132
0.00254721
0.00239623
0.00223011
0.00205135
0.0018633
0.00166993
0.00147568
0.00128507
0.00110238
0.000931308
0.000774629
0.00063408
0.000510312
0.000403001
0.00031106
0.000232912
0.000166795
0.000111103
6.4779e-05
2.79073e-05
3.10342e-06
7.77121e-08
6.98218e-07
1.60718e-06
2.70705e-06
3.94814e-06
5.29769e-06
6.73061e-06
8.2258e-06
9.76459e-06
1.13301e-05
1.29071e-05
1.44821e-05
1.60437e-05
1.75829e-05
1.90936e-05
2.05723e-05
2.20194e-05
2.34386e-05
2.48372e-05
2.62266e-05
2.76222e-05
2.90435e-05
3.05142e-05
3.20626e-05
3.37217e-05
3.55293e-05
3.75288e-05
3.97693e-05
4.23059e-05
4.52009e-05
4.85234e-05
5.23506e-05
5.67681e-05
6.18703e-05
6.77607e-05
7.45528e-05
8.23696e-05
9.13438e-05
0.000101618
0.000113345
0.000126686
0.00014181
0.000158894
0.000178123
0.000199687
0.000223779
0.000250596
0.000280334
0.000313186
0.000349341
0.000388977
0.000432254
0.000479313
0.000530264
0.000585177
0.000644075
0.000706925
0.000773622
0.000843987
0.000917755
0.00099457
0.00107398
0.00115546
0.00123838
0.00132205
0.00140573
0.00148866
0.00157007
0.00164923
0.00172549
0.00179827
0.00186714
0.0019318
0.00199211
0.0020481
0.00209993
0.00214792
0.0021925
0.00223417
0.00227351
0.00231115
0.00234765
0.00238358
0.00241944
0.00245567
0.00249262
0.00253053
0.00256958
0.00260983
0.00265129
0.00269385
0.00273733
0.00278151
0.00282608
0.00287069
0.00291493
0.00295832
0.00300037
0.00304048
0.00307803
0.00311228
0.00314244
0.00316764
0.00318686
0.00319757
0.00320121
0.00319724
0.00318104
0.00315219
0.00310949
0.00305156
0.00297719
0.00288534
0.00277527
0.0026468
0.00250039
0.00233729
0.00215966
0.00197054
0.00177383
0.001574
0.00137588
0.00118419
0.00100315
0.000836133
0.000685418
0.000552091
0.000436125
0.000336587
0.000251927
0.000180323
0.000120057
6.99767e-05
3.01408e-05
3.35152e-06
8.51042e-08
7.64688e-07
1.76043e-06
2.96562e-06
4.3259e-06
5.80531e-06
7.3762e-06
9.01529e-06
1.07019e-05
1.24172e-05
1.41443e-05
1.58683e-05
1.75766e-05
1.92591e-05
2.09089e-05
2.25226e-05
2.41005e-05
2.56466e-05
2.71695e-05
2.86817e-05
3.02003e-05
3.1747e-05
3.3348e-05
3.50347e-05
3.68435e-05
3.88164e-05
4.10011e-05
4.34519e-05
4.62298e-05
4.94036e-05
5.30498e-05
5.7254e-05
6.21109e-05
6.77253e-05
7.42124e-05
8.1698e-05
9.0319e-05
0.000100224
0.00011157
0.000124529
0.00013928
0.000156011
0.00017492
0.000196212
0.000220096
0.000246787
0.000276499
0.000309447
0.000345838
0.000385873
0.000429732
0.000477579
0.000529543
0.000585714
0.000646134
0.00071078
0.000779558
0.00085229
0.000928702
0.00100842
0.00109097
0.00117577
0.00126215
0.00134935
0.00143654
0.00152288
0.00160751
0.00168961
0.00176842
0.0018433
0.00191374
0.00197939
0.0020401
0.00209588
0.00214692
0.00219357
0.00223632
0.00227574
0.00231251
0.00234727
0.00238074
0.00241351
0.00244617
0.00247918
0.00251297
0.00254781
0.00258387
0.00262126
0.00265998
0.00269994
0.00274101
0.00278295
0.00282552
0.00286838
0.0029112
0.00295359
0.00299513
0.00303536
0.00307378
0.00310984
0.00314291
0.00317229
0.00319721
0.00321686
0.00322917
0.00323401
0.0032329
0.00322066
0.00319653
0.00315951
0.00310808
0.00304083
0.0029565
0.00285401
0.00273273
0.00259266
0.00243455
0.00226007
0.00207192
0.00187373
0.00167
0.00146571
0.00126599
0.00107563
0.000898615
0.000737825
0.000594861
0.000470071
0.000362735
0.000271375
0.000194128
0.000129176
7.52614e-05
3.24099e-05
3.60356e-06
9.28373e-08
8.34218e-07
1.92073e-06
3.23609e-06
4.721e-06
6.33616e-06
8.05125e-06
9.84063e-06
1.16814e-05
1.35529e-05
1.54364e-05
1.73154e-05
1.91758e-05
2.10067e-05
2.28006e-05
2.45537e-05
2.62664e-05
2.79435e-05
2.95943e-05
3.12329e-05
3.28782e-05
3.45543e-05
3.62901e-05
3.81201e-05
4.00846e-05
4.22297e-05
4.46081e-05
4.72794e-05
5.03109e-05
5.37782e-05
5.77659e-05
6.23682e-05
6.76899e-05
7.38467e-05
8.0966e-05
8.91871e-05
9.86619e-05
0.000109554
0.00012204
0.000136308
0.000152557
0.000170997
0.000191845
0.000215327
0.000241673
0.000271119
0.000303896
0.000340235
0.000380356
0.000424465
0.000472746
0.000525352
0.000582396
0.000643939
0.000709977
0.00078043
0.000855127
0.000933796
0.00101606
0.00110141
0.00118924
0.00127882
0.00136935
0.00145992
0.00154959
0.00163742
0.00172248
0.00180393
0.00188102
0.00195318
0.00202001
0.00208129
0.00213704
0.00218745
0.0022329
0.00227393
0.0023112
0.00234542
0.00237738
0.00240779
0.0024374
0.0024668
0.00249655
0.00252709
0.00255875
0.00259174
0.00262613
0.00266196
0.00269916
0.00273758
0.00277702
0.00281723
0.00285793