/*--------------------------------*- C++ -*----------------------------------*\
  =========                 |
  \\      /  F ield         | OpenFOAM: The Open Source CFD Toolbox
   \\    /   O peration     | Website:  https://openfoam.org
    \\  /    A nd           | Version:  12
     \\/     M anipulation  |
\*---------------------------------------------------------------------------*/
FoamFile
{
    format      ascii;
    class       volVectorField;
    location    "7";
    object      U;
}
// * * * * * * * * * * * * * * * * * * * * * * * * * * * * * * * * * * * * * //

dimensions      [0 1 -1 0 0 0 0];

internalField   nonuniform List<vector> 
18225
(
(-3.15046e-06 1.22555e-06 0)
(-9.92518e-06 9.10576e-07 0)
(-1.04981e-05 1.43013e-07 0)
(-2.04115e-06 -7.59336e-07 0)
(1.60683e-05 -1.59096e-06 0)
(4.31606e-05 -2.3225e-06 0)
(7.82028e-05 -2.94292e-06 0)
(0.000120043 -3.45498e-06 0)
(0.000167508 -3.8646e-06 0)
(0.000219446 -4.17819e-06 0)
(0.000274752 -4.40185e-06 0)
(0.000332378 -4.54211e-06 0)
(0.000391346 -4.60554e-06 0)
(0.000450754 -4.59951e-06 0)
(0.000509786 -4.53156e-06 0)
(0.000567718 -4.40991e-06 0)
(0.000623918 -4.24283e-06 0)
(0.000677855 -4.03882e-06 0)
(0.000729096 -3.80624e-06 0)
(0.000777305 -3.55318e-06 0)
(0.000822241 -3.28737e-06 0)
(0.000863754 -3.01607e-06 0)
(0.00090178 -2.74587e-06 0)
(0.00093633 -2.48275e-06 0)
(0.000967488 -2.23176e-06 0)
(0.000995397 -1.99717e-06 0)
(0.00102025 -1.78274e-06 0)
(0.0010423 -1.59179e-06 0)
(0.0010618 -1.42688e-06 0)
(0.00107907 -1.28972e-06 0)
(0.0010944 -1.18114e-06 0)
(0.00110811 -1.10115e-06 0)
(0.00112052 -1.04895e-06 0)
(0.0011319 -1.02297e-06 0)
(0.00114252 -1.02085e-06 0)
(0.0011526 -1.03947e-06 0)
(0.00116231 -1.07498e-06 0)
(0.00117177 -1.1229e-06 0)
(0.00118101 -1.17764e-06 0)
(0.00119003 -1.23382e-06 0)
(0.00119869 -1.28604e-06 0)
(0.00120682 -1.32535e-06 0)
(0.00121411 -1.34711e-06 0)
(0.00122017 -1.34258e-06 0)
(0.00122452 -1.30554e-06 0)
(0.00122657 -1.22818e-06 0)
(0.00122562 -1.10462e-06 0)
(0.00122089 -9.2607e-07 0)
(0.00121148 -6.86167e-07 0)
(0.00119642 -3.78281e-07 0)
(0.00117461 4.43504e-09 0)
(0.00114486 4.68964e-07 0)
(0.00110591 1.02248e-06 0)
(0.00105637 1.6729e-06 0)
(0.000994745 2.42708e-06 0)
(0.000919457 3.29479e-06 0)
(0.0008288 4.28378e-06 0)
(0.000720967 5.4049e-06 0)
(0.000594038 6.67156e-06 0)
(0.000445976 8.09209e-06 0)
(0.000274647 9.68157e-06 0)
(7.78056e-05 1.1444e-05 0)
(-0.000146873 1.33884e-05 0)
(-0.000401783 1.55286e-05 0)
(-0.000689373 1.78761e-05 0)
(-0.00101209 2.04344e-05 0)
(-0.00137234 2.32073e-05 0)
(-0.0017725 2.61966e-05 0)
(-0.00221481 2.94007e-05 0)
(-0.00270136 3.28138e-05 0)
(-0.00323402 3.64261e-05 0)
(-0.00381437 4.0223e-05 0)
(-0.00444366 4.41848e-05 0)
(-0.00512274 4.82866e-05 0)
(-0.00585201 5.24979e-05 0)
(-0.00663131 5.67826e-05 0)
(-0.00745993 6.10987e-05 0)
(-0.00833654 6.5399e-05 0)
(-0.00925911 6.96308e-05 0)
(-0.0102249 7.37365e-05 0)
(-0.0112305 7.76543e-05 0)
(-0.0122715 8.13178e-05 0)
(-0.0133431 8.46577e-05 0)
(-0.0144394 8.76014e-05 0)
(-0.0155537 9.00741e-05 0)
(-0.0166788 9.19992e-05 0)
(-0.0178064 9.32987e-05 0)
(-0.0189277 9.38943e-05 0)
(-0.0200332 9.37075e-05 0)
(-0.0211124 9.26608e-05 0)
(-0.0221545 9.06783e-05 0)
(-0.023148 8.76872e-05 0)
(-0.0240808 8.36191e-05 0)
(-0.0249406 7.84108e-05 0)
(-0.0257144 7.2012e-05 0)
(-0.0263893 6.4403e-05 0)
(-0.026951 5.52437e-05 0)
(-0.0273876 4.50618e-05 0)
(-0.0276856 3.37459e-05 0)
(-0.0278351 2.06097e-05 0)
(-0.0278252 6.91884e-06 0)
(-0.0276425 -7.84258e-06 0)
(-0.0272819 -2.37142e-05 0)
(-0.0267368 -4.02377e-05 0)
(-0.0260044 -5.71099e-05 0)
(-0.0250852 -7.40144e-05 0)
(-0.0239836 -9.05846e-05 0)
(-0.0227078 -0.000106387 0)
(-0.0212709 -0.00012095 0)
(-0.0196903 -0.000133785 0)
(-0.0179885 -0.000144411 0)
(-0.0161921 -0.000152385 0)
(-0.014332 -0.000157329 0)
(-0.0124417 -0.000158969 0)
(-0.0105572 -0.000157158 0)
(-0.00871482 -0.000151903 0)
(-0.00695011 -0.000143376 0)
(-0.00529625 -0.000131913 0)
(-0.00378247 -0.000117995 0)
(-0.00243275 -0.000102223 0)
(-0.00126479 -8.52692e-05 0)
(-0.000289413 -6.78319e-05 0)
(0.00048958 -5.05938e-05 0)
(0.00107515 -3.41332e-05 0)
(0.00147619 -1.89239e-05 0)
(0.00170671 -5.34504e-06 0)
(0.00178448 6.37262e-06 0)
(0.00172981 1.61753e-05 0)
(0.00156559 2.39193e-05 0)
(0.00131559 2.95851e-05 0)
(0.00100685 3.28912e-05 0)
(0.000670893 3.31233e-05 0)
(0.000347765 2.91246e-05 0)
(9.57498e-05 1.77017e-05 0)
(-1.05928e-05 -3.88158e-06 0)
(-5.52046e-06 6.03025e-06 0)
(-1.61598e-05 3.56176e-06 0)
(-9.56821e-06 -4.42937e-06 0)
(2.04097e-05 -1.39981e-05 0)
(7.56015e-05 -2.34157e-05 0)
(0.000154743 -3.20108e-05 0)
(0.000255436 -3.95214e-05 0)
(0.000374782 -4.58623e-05 0)
(0.000509704 -5.10256e-05 0)
(0.000657111 -5.50409e-05 0)
(0.000813986 -5.79577e-05 0)
(0.000977443 -5.98394e-05 0)
(0.00114477 -6.07598e-05 0)
(0.00131346 -6.08013e-05 0)
(0.00148122 -6.00531e-05 0)
(0.00164601 -5.86102e-05 0)
(0.00180606 -5.65709e-05 0)
(0.00195985 -5.40357e-05 0)
(0.00210613 -5.11047e-05 0)
(0.00224394 -4.78763e-05 0)
(0.00237255 -4.4445e-05 0)
(0.0024915 -4.09007e-05 0)
(0.00260057 -3.73268e-05 0)
(0.00269973 -3.3799e-05 0)
(0.00278919 -3.03845e-05 0)
(0.00286928 -2.71413e-05 0)
(0.00294051 -2.41186e-05 0)
(0.00300351 -2.13559e-05 0)
(0.00305898 -1.8883e-05 0)
(0.00310772 -1.67186e-05 0)
(0.00315052 -1.4871e-05 0)
(0.00318823 -1.33376e-05 0)
(0.00322161 -1.2105e-05 0)
(0.00325143 -1.11489e-05 0)
(0.00327832 -1.04348e-05 0)
(0.00330284 -9.91767e-06 0)
(0.00332537 -9.5424e-06 0)
(0.00334615 -9.24458e-06 0)
(0.00336521 -8.94949e-06 0)
(0.00338236 -8.57836e-06 0)
(0.00339718 -8.04509e-06 0)
(0.00340899 -7.24859e-06 0)
(0.00341682 -6.09787e-06 0)
(0.00341943 -4.48553e-06 0)
(0.00341529 -2.31597e-06 0)
(0.00340258 5.22763e-07 0)
(0.00337917 4.13025e-06 0)
(0.00334263 8.61006e-06 0)
(0.00329027 1.40649e-05 0)
(0.00321907 2.05954e-05 0)
(0.00312573 2.83023e-05 0)
(0.00300669 3.72868e-05 0)
(0.00285806 4.76513e-05 0)
(0.00267569 5.95012e-05 0)
(0.00245512 7.29403e-05 0)
(0.00219159 8.80819e-05 0)
(0.00188005 0.000105037 0)
(0.00151514 0.00012392 0)
(0.00109123 0.000144875 0)
(0.000602372 0.000167957 0)
(4.24204e-05 0.000193259 0)
(-0.000595052 0.00022092 0)
(-0.00131674 0.000251028 0)
(-0.00212934 0.000283613 0)
(-0.00303951 0.000318687 0)
(-0.00405391 0.000356241 0)
(-0.00517903 0.000396228 0)
(-0.00642101 0.000438553 0)
(-0.00778558 0.000483067 0)
(-0.00927783 0.000529567 0)
(-0.0109021 0.000577789 0)
(-0.0126617 0.000627408 0)
(-0.014559 0.000678038 0)
(-0.0165949 0.000729228 0)
(-0.0187689 0.000780465 0)
(-0.0210791 0.00083118 0)
(-0.0235216 0.000880749 0)
(-0.0260907 0.000928498 0)
(-0.0287789 0.000973714 0)
(-0.0315766 0.00101565 0)
(-0.034472 0.00105353 0)
(-0.0374513 0.00108657 0)
(-0.0404988 0.00111396 0)
(-0.0435964 0.00113491 0)
(-0.0467242 0.00114863 0)
(-0.0498602 0.00115434 0)
(-0.0529807 0.00115127 0)
(-0.0560601 0.0011387 0)
(-0.0590712 0.00111593 0)
(-0.0619854 0.0010823 0)
(-0.0647724 0.00103722 0)
(-0.0674012 0.000980152 0)
(-0.0698394 0.000910626 0)
(-0.0720542 0.000828281 0)
(-0.0740122 0.000732864 0)
(-0.0756801 0.000624159 0)
(-0.0770226 0.000501638 0)
(-0.078014 0.000365458 0)
(-0.0786066 0.000218434 0)
(-0.0787937 6.28375e-05 0)
(-0.0785429 -0.000107078 0)
(-0.077826 -0.000284864 0)
(-0.0766306 -0.000469345 0)
(-0.0749448 -0.000657996 0)
(-0.0727655 -0.000847499 0)
(-0.0700981 -0.00103433 0)
(-0.0669573 -0.0012146 0)
(-0.0633682 -0.00138399 0)
(-0.0593668 -0.00153787 0)
(-0.0550005 -0.00167151 0)
(-0.0503282 -0.00178036 0)
(-0.0454192 -0.00186023 0)
(-0.0403522 -0.00190762 0)
(-0.0352135 -0.00191999 0)
(-0.0300939 -0.00189598 0)
(-0.025086 -0.00183567 0)
(-0.0202806 -0.00174066 0)
(-0.0157627 -0.00161409 0)
(-0.0116081 -0.00146053 0)
(-0.00788035 -0.00128573 0)
(-0.00462744 -0.00109628 0)
(-0.00188063 -0.00089918 0)
(0.000346429 -0.000701395 0)
(0.0020573 -0.000509322 0)
(0.0032715 -0.000328634 0)
(0.00402204 -0.000163817 0)
(0.00435315 -1.82822e-05 0)
(0.0043171 0.00010548 0)
(0.00397509 0.000205333 0)
(0.00339086 0.000279436 0)
(0.00263953 0.000323755 0)
(0.00180667 0.000331813 0)
(0.000996234 0.000293033 0)
(0.000345954 0.000192036 0)
(1.09478e-05 4.02164e-05 0)
(-5.63324e-06 1.10147e-05 0)
(-1.24532e-05 3.13108e-06 0)
(7.66001e-06 -1.77135e-05 0)
(6.29619e-05 -4.25235e-05 0)
(0.000156108 -6.72984e-05 0)
(0.000285636 -9.02009e-05 0)
(0.000448248 -0.000110417 0)
(0.00063974 -0.000127618 0)
(0.000855513 -0.000141712 0)
(0.00109085 -0.000152732 0)
(0.00134111 -0.000160785 0)
(0.0016018 -0.000166025 0)
(0.00186869 -0.000168639 0)
(0.00213783 -0.000168843 0)
(0.00240562 -0.000166876 0)
(0.00266884 -0.000162991 0)
(0.00292466 -0.000157453 0)
(0.00317067 -0.000150531 0)
(0.00340486 -0.000142497 0)
(0.00362566 -0.000133617 0)
(0.00383188 -0.000124149 0)
(0.00402275 -0.000114336 0)
(0.00419784 -0.000104406 0)
(0.00435708 -9.45663e-05 0)
(0.00450069 -8.50007e-05 0)
(0.00462918 -7.58689e-05 0)
(0.00474327 -6.7305e-05 0)
(0.00484387 -5.94163e-05 0)
(0.00493205 -5.22822e-05 0)
(0.00500896 -4.59528e-05 0)
(0.00507582 -4.04482e-05 0)
(0.00513383 -3.57586e-05 0)
(0.00518416 -3.1844e-05 0)
(0.00522789 -2.86345e-05 0)
(0.00526594 -2.60304e-05 0)
(0.00529908 -2.39034e-05 0)
(0.00532779 -2.20969e-05 0)
(0.00535233 -2.04277e-05 0)
(0.0053726 -1.86857e-05 0)
(0.00538816 -1.66459e-05 0)
(0.00539818 -1.40607e-05 0)
(0.0054014 -1.06507e-05 0)
(0.00539613 -6.1609e-06 0)
(0.00538018 -2.76355e-07 0)
(0.00535093 7.28164e-06 0)
(0.00530525 1.68118e-05 0)
(0.00523953 2.86108e-05 0)
(0.00514967 4.29725e-05 0)
(0.00503108 6.0191e-05 0)
(0.00487872 8.05561e-05 0)
(0.00468702 0.000104356 0)
(0.00444999 0.00013188 0)
(0.00416115 0.000163418 0)
(0.00381353 0.000199264 0)
(0.00339971 0.000239714 0)
(0.00291178 0.000285074 0)
(0.0023414 0.000335676 0)
(0.00167973 0.000391773 0)
(0.000917621 0.00045357 0)
(4.54061e-05 0.000521467 0)
(-0.000947145 0.000595752 0)
(-0.00207028 0.000676591 0)
(-0.00333437 0.0007641 0)
(-0.00474993 0.000858341 0)
(-0.00632741 0.000959307 0)
(-0.008077 0.00106689 0)
(-0.0100084 0.00118085 0)
(-0.0121307 0.00130081 0)
(-0.0144519 0.00142625 0)
(-0.0169791 0.00155648 0)
(-0.0197177 0.00169066 0)
(-0.0226715 0.00182776 0)
(-0.0258423 0.0019666 0)
(-0.0292296 0.0021058 0)
(-0.0328306 0.00224386 0)
(-0.0366396 0.00237912 0)
(-0.0406481 0.00250976 0)
(-0.0448446 0.0026339 0)
(-0.0492145 0.00274954 0)
(-0.0537398 0.00285461 0)
(-0.0583995 0.00294703 0)
(-0.0631694 0.00302468 0)
(-0.068022 0.00308547 0)
(-0.0729268 0.00312734 0)
(-0.0778506 0.00314826 0)
(-0.0827574 0.00314631 0)
(-0.0876085 0.00311964 0)
(-0.092363 0.00306651 0)
(-0.0969781 0.00298532 0)
(-0.101409 0.00287458 0)
(-0.105609 0.00273301 0)
(-0.109532 0.0025595 0)
(-0.113127 0.00235318 0)
(-0.116348 0.00211344 0)
(-0.119145 0.00184 0)
(-0.12147 0.00153285 0)
(-0.123274 0.00119186 0)
(-0.124523 0.000813763 0)
(-0.12514 0.000418805 0)
(-0.125139 -1.20882e-05 0)
(-0.124452 -0.000465635 0)
(-0.123059 -0.000939897 0)
(-0.120942 -0.00142819 0)
(-0.11809 -0.00192407 0)
(-0.114502 -0.00241912 0)
(-0.110192 -0.0029043 0)
(-0.105185 -0.00336982 0)
(-0.099523 -0.00380487 0)
(-0.0932607 -0.00419805 0)
(-0.0864701 -0.00453778 0)
(-0.0792385 -0.00481292 0)
(-0.0716677 -0.00501331 0)
(-0.0638724 -0.00513042 0)
(-0.0559774 -0.00515803 0)
(-0.0481145 -0.00509283 0)
(-0.0404178 -0.0049349 0)
(-0.0330193 -0.00468802 0)
(-0.0260439 -0.00435974 0)
(-0.0196038 -0.00396113 0)
(-0.0137942 -0.00350627 0)
(-0.00868964 -0.00301144 0)
(-0.0043405 -0.00249416 0)
(-0.000772163 -0.0019721 0)
(0.00201516 -0.00146193 0)
(0.00404501 -0.000978555 0)
(0.00536196 -0.000534378 0)
(0.00602873 -0.000139269 0)
(0.00612171 0.000199176 0)
(0.00573208 0.000474031 0)
(0.00495774 0.000679529 0)
(0.00391386 0.000804707 0)
(0.00273067 0.000834257 0)
(0.00156097 0.000745432 0)
(0.000596715 0.000511308 0)
(4.33585e-05 0.000154449 0)
(-4.71501e-06 1.4591e-05 0)
(-2.53447e-06 -3.04985e-06 0)
(3.58762e-05 -4.19225e-05 0)
(0.000119491 -8.78063e-05 0)
(0.000251375 -0.000133927 0)
(0.00042999 -0.000176892 0)
(0.000651419 -0.00021507 0)
(0.000910471 -0.000247727 0)
(0.00120133 -0.000274601 0)
(0.00151793 -0.000295694 0)
(0.00185426 -0.000311168 0)
(0.00220442 -0.000321286 0)
(0.00256286 -0.000326392 0)
(0.00292436 -0.000326883 0)
(0.00328416 -0.000323203 0)
(0.00363795 -0.000315829 0)
(0.00398197 -0.00030526 0)
(0.00431296 -0.000292008 0)
(0.00462824 -0.000276586 0)
(0.00492566 -0.000259499 0)
(0.00520359 -0.000241238 0)
(0.00546092 -0.000222266 0)
(0.00569703 -0.000203018 0)
(0.00591175 -0.000183889 0)
(0.00610529 -0.000165231 0)
(0.00627824 -0.00014735 0)
(0.00643148 -0.000130502 0)
(0.00656614 -0.000114891 0)
(0.00668353 -0.000100666 0)
(0.0067851 -8.79199e-05 0)
(0.00687234 -7.66876e-05 0)
(0.00694677 -6.69461e-05 0)
(0.0070098 -5.86134e-05 0)
(0.00706276 -5.15495e-05 0)
(0.00710673 -4.55566e-05 0)
(0.00714257 -4.03803e-05 0)
(0.00717079 -3.57117e-05 0)
(0.00719154 -3.119e-05 0)
(0.00720451 -2.64029e-05 0)
(0.00720891 -2.09023e-05 0)
(0.00720343 -1.42142e-05 0)
(0.00718614 -5.78073e-06 0)
(0.00715451 4.92622e-06 0)
(0.0071054 1.84813e-05 0)
(0.00703499 3.54586e-05 0)
(0.00693881 5.64451e-05 0)
(0.0068117 8.20284e-05 0)
(0.00664782 0.000112792 0)
(0.00644069 0.000149316 0)
(0.00618315 0.000192177 0)
(0.00586736 0.000241945 0)
(0.00548488 0.00029919 0)
(0.00502657 0.000364482 0)
(0.00448269 0.000438396 0)
(0.00384284 0.000521507 0)
(0.00309601 0.00061443 0)
(0.00223068 0.000717566 0)
(0.00123473 0.00083157 0)
(9.51267e-05 0.000957099 0)
(-0.00120124 0.00109457 0)
(-0.00266786 0.00124434 0)
(-0.00431855 0.00140674 0)
(-0.00616724 0.00158196 0)
(-0.00822776 0.00177003 0)
(-0.0105137 0.00197079 0)
(-0.0130379 0.00218389 0)
(-0.0158127 0.00240871 0)
(-0.0188489 0.00264434 0)
(-0.022156 0.00288961 0)
(-0.0257415 0.003143 0)
(-0.0296108 0.00340268 0)
(-0.0337667 0.00366648 0)
(-0.038209 0.00393192 0)
(-0.0429343 0.00419621 0)
(-0.0479355 0.00445627 0)
(-0.053202 0.00470876 0)
(-0.058719 0.00495013 0)
(-0.0644675 0.00517664 0)
(-0.0704245 0.00538443 0)
(-0.0765627 0.00556959 0)
(-0.0828508 0.00572816 0)
(-0.0892531 0.00585621 0)
(-0.0957305 0.0059499 0)
(-0.10224 0.00600551 0)
(-0.108735 0.00601947 0)
(-0.115167 0.00598842 0)
(-0.121483 0.0059092 0)
(-0.127629 0.00577893 0)
(-0.133549 0.00559501 0)
(-0.139184 0.00535516 0)
(-0.144475 0.00505743 0)
(-0.149363 0.00470029 0)
(-0.153787 0.00428267 0)
(-0.157688 0.003804 0)
(-0.161005 0.00326433 0)
(-0.163683 0.00266431 0)
(-0.165663 0.0020051 0)
(-0.166902 0.00128584 0)
(-0.167338 0.0005219 0)
(-0.166945 -0.000288053 0)
(-0.165677 -0.00114174 0)
(-0.163509 -0.00202749 0)
(-0.160425 -0.00293451 0)
(-0.156417 -0.00385084 0)
(-0.15149 -0.0047614 0)
(-0.145667 -0.00564987 0)
(-0.138984 -0.00649881 0)
(-0.131496 -0.00728914 0)
(-0.123273 -0.00800084 0)
(-0.114406 -0.00861371 0)
(-0.105003 -0.00910829 0)
(-0.0951892 -0.00946686 0)
(-0.0851039 -0.00967451 0)
(-0.0748992 -0.00972029 0)
(-0.0647355 -0.00959824 0)
(-0.0547766 -0.00930823 0)
(-0.0451845 -0.00885656 0)
(-0.0361135 -0.00825605 0)
(-0.0277043 -0.00752583 0)
(-0.0200782 -0.00669043 0)
(-0.0133321 -0.00577854 0)
(-0.00753506 -0.00482138 0)
(-0.00272553 -0.00385079 0)
(0.00108886 -0.00289738 0)
(0.0039305 -0.00198895 0)
(0.00584921 -0.00114932 0)
(0.006919 -0.000397994 0)
(0.00723416 0.00024908 0)
(0.00690711 0.000778543 0)
(0.00606538 0.00117664 0)
(0.0048552 0.00142418 0)
(0.00344274 0.0014947 0)
(0.00201766 0.00135208 0)
(0.000812014 0.00095816 0)
(7.26435e-05 0.000336651 0)
(-3.33222e-06 1.48845e-05 0)
(1.11232e-05 -1.71632e-05 0)
(7.11365e-05 -7.86186e-05 0)
(0.000185258 -0.000150317 0)
(0.000356446 -0.000222577 0)
(0.000583036 -0.00029024 0)
(0.000860629 -0.000350662 0)
(0.00118326 -0.000402563 0)
(0.00154413 -0.000445425 0)
(0.00193607 -0.000479169 0)
(0.00235187 -0.000503996 0)
(0.00278448 -0.000520289 0)
(0.00322716 -0.000528565 0)
(0.00367357 -0.000529444 0)
(0.00411792 -0.00052362 0)
(0.00455495 -0.000511844 0)
(0.00498002 -0.000494906 0)
(0.00538916 -0.000473617 0)
(0.00577901 -0.000448792 0)
(0.00614689 -0.000421236 0)
(0.00649077 -0.000391728 0)
(0.0068092 -0.000361011 0)
(0.00710136 -0.000329774 0)
(0.00736693 -0.000298651 0)
(0.00760609 -0.000268205 0)
(0.00781946 -0.000238924 0)
(0.008008 -0.000211217 0)
(0.008173 -0.000185406 0)
(0.00831593 -0.000161728 0)
(0.00843844 -0.000140326 0)
(0.00854224 -0.000121251 0)
(0.00862901 -0.000104458 0)
(0.00870036 -8.98076e-05 0)
(0.00875773 -7.70662e-05 0)
(0.00880228 -6.59048e-05 0)
(0.00883487 -5.5903e-05 0)
(0.00885593 -4.65512e-05 0)
(0.00886541 -3.72545e-05 0)
(0.0088627 -2.73365e-05 0)
(0.00884659 -1.60728e-05 0)
(0.00881513 -2.63278e-06 0)
(0.00876572 1.38415e-05 0)
(0.00869493 3.4245e-05 0)
(0.00859854 5.95189e-05 0)
(0.00847151 9.06148e-05 0)
(0.00830794 0.0001285 0)
(0.00810108 0.000174144 0)
(0.00784333 0.000228512 0)
(0.00752623 0.000292566 0)
(0.00714048 0.000367255 0)
(0.00667597 0.000453523 0)
(0.00612173 0.000552306 0)
(0.00546601 0.000664539 0)
(0.00469627 0.000791172 0)
(0.00379919 0.000933076 0)
(0.00276082 0.00109109 0)
(0.0015662 0.00126631 0)
(0.000199857 0.00145954 0)
(-0.00135412 0.0016715 0)
(-0.00311227 0.00190293 0)
(-0.0050914 0.00215439 0)
(-0.00730848 0.00242624 0)
(-0.00978045 0.00271865 0)
(-0.0125239 0.0030315 0)
(-0.0155548 0.00336433 0)
(-0.0188881 0.00371633 0)
(-0.0225375 0.00408624 0)
(-0.0265148 0.00447236 0)
(-0.0308296 0.00487247 0)
(-0.0354889 0.00528385 0)
(-0.0404965 0.00570323 0)
(-0.0458528 0.00612683 0)
(-0.0515539 0.00655037 0)
(-0.057592 0.00696908 0)
(-0.0639546 0.00737777 0)
(-0.070624 0.00777089 0)
(-0.0775779 0.00814258 0)
(-0.0847887 0.00848678 0)
(-0.0922238 0.00879729 0)
(-0.0998455 0.00906788 0)
(-0.107612 0.00929237 0)
(-0.115475 0.00946471 0)
(-0.123384 0.00957905 0)
(-0.131285 0.00962986 0)
(-0.139118 0.0096119 0)
(-0.146823 0.00952036 0)
(-0.154336 0.00935085 0)
(-0.161591 0.00909945 0)
(-0.16852 0.00876277 0)
(-0.175057 0.00833795 0)
(-0.181132 0.00782274 0)
(-0.186677 0.00721556 0)
(-0.191624 0.00651553 0)
(-0.195908 0.00572263 0)
(-0.199464 0.00483774 0)
(-0.20223 0.00386275 0)
(-0.204147 0.0028005 0)
(-0.205167 0.00165358 0)
(-0.205236 0.000438355 0)
(-0.204315 -0.00084269 0)
(-0.20237 -0.00218287 0)
(-0.199378 -0.00356544 0)
(-0.195326 -0.00497447 0)
(-0.190213 -0.00639157 0)
(-0.184051 -0.00779416 0)
(-0.176871 -0.0091577 0)
(-0.168718 -0.0104562 0)
(-0.159656 -0.0116614 0)
(-0.149769 -0.0127439 0)
(-0.139159 -0.0136739 0)
(-0.127948 -0.0144228 0)
(-0.116275 -0.0149645 0)
(-0.104297 -0.0152769 0)
(-0.0921822 -0.0153435 0)
(-0.0801103 -0.0151553 0)
(-0.0682651 -0.0147112 0)
(-0.0568296 -0.01402 0)
(-0.04598 -0.0130999 0)
(-0.0358787 -0.0119785 0)
(-0.0266685 -0.0106917 0)
(-0.0184663 -0.00928209 0)
(-0.0113587 -0.00779635 0)
(-0.00539868 -0.00628286 0)
(-0.000604044 -0.00478877 0)
(0.0030422 -0.00335766 0)
(0.00558987 -0.00202773 0)
(0.00711856 -0.000831099 0)
(0.00773382 0.000205428 0)
(0.00756419 0.00105877 0)
(0.00675923 0.00170558 0)
(0.00548987 0.0021164 0)
(0.00395035 0.00225249 0)
(0.00235855 0.00206411 0)
(0.000978537 0.00150072 0)
(9.52502e-05 0.000573339 0)
(-1.76904e-06 1.11822e-05 0)
(2.68558e-05 -4.05536e-05 0)
(0.000110597 -0.000128912 0)
(0.000256675 -0.000230522 0)
(0.000467433 -0.000332926 0)
(0.000740938 -0.000429125 0)
(0.00107234 -0.000515348 0)
(0.00145503 -0.000589661 0)
(0.0018814 -0.000651207 0)
(0.00234336 -0.000699779 0)
(0.00283271 -0.000735593 0)
(0.00334136 -0.000759151 0)
(0.00386156 -0.000771159 0)
(0.00438601 -0.000772483 0)
(0.00490798 -0.000764103 0)
(0.00542137 -0.000747087 0)
(0.00592079 -0.000722561 0)
(0.00640155 -0.000691684 0)
(0.00685973 -0.000655624 0)
(0.00729215 -0.000615535 0)
(0.00769637 -0.000572536 0)
(0.00807064 -0.000527691 0)
(0.0084139 -0.000481996 0)
(0.00872569 -0.000436357 0)
(0.00900612 -0.000391587 0)
(0.00925577 -0.000348386 0)
(0.00947567 -0.000307341 0)
(0.00966714 -0.000268914 0)
(0.0098318 -0.000233438 0)
(0.0099714 -0.000201114 0)
(0.0100878 -0.000172006 0)
(0.0101827 -0.000146039 0)
(0.0102578 -0.000123 0)
(0.0103147 -0.000102535 0)
(0.0103545 -8.41538e-05 0)
(0.0103779 -6.72293e-05 0)
(0.0103851 -5.10044e-05 0)
(0.0103759 -3.45967e-05 0)
(0.0103493 -1.70106e-05 0)
(0.0103035 2.85325e-06 0)
(0.0102359 2.61978e-05 0)
(0.0101432 5.43011e-05 0)
(0.0100208 8.84964e-05 0)
(0.00986351 0.000130174 0)
(0.00966496 0.000180749 0)
(0.00941777 0.000241658 0)
(0.00911354 0.000314343 0)
(0.00874286 0.000400241 0)
(0.00829527 0.000500779 0)
(0.00775931 0.000617368 0)
(0.00712251 0.000751408 0)
(0.00637145 0.000904282 0)
(0.00549173 0.00107736 0)
(0.00446805 0.00127197 0)
(0.0032842 0.00148948 0)
(0.00192306 0.00173121 0)
(0.000366835 0.00199838 0)
(-0.00140304 0.00229219 0)
(-0.00340564 0.0026137 0)
(-0.0056605 0.0029638 0)
(-0.00818735 0.00334313 0)
(-0.0110059 0.00375206 0)
(-0.0141356 0.00419058 0)
(-0.0175951 0.00465825 0)
(-0.021402 0.0051541 0)
(-0.0255726 0.00567661 0)
(-0.030121 0.00622358 0)
(-0.0350588 0.00679212 0)
(-0.0403946 0.00737859 0)
(-0.0461334 0.00797858 0)
(-0.0522761 0.00858694 0)
(-0.0588191 0.00919775 0)
(-0.0657537 0.00980438 0)
(-0.0730659 0.0103996 0)
(-0.0807361 0.0109755 0)
(-0.0887387 0.011524 0)
(-0.0970423 0.0120363 0)
(-0.10561 0.0125036 0)
(-0.114398 0.012917 0)
(-0.123358 0.0132678 0)
(-0.132437 0.0135473 0)
(-0.141577 0.0137472 0)
(-0.150714 0.0138597 0)
(-0.159784 0.0138773 0)
(-0.168717 0.0137935 0)
(-0.177441 0.0136021 0)
(-0.185884 0.0132977 0)
(-0.193971 0.0128759 0)
(-0.201628 0.0123327 0)
(-0.208781 0.0116653 0)
(-0.215354 0.0108716 0)
(-0.221276 0.0099505 0)
(-0.226476 0.00890192 0)
(-0.230886 0.00772692 0)
(-0.234441 0.00642785 0)
(-0.23708 0.00500848 0)
(-0.238744 0.0034741 0)
(-0.239388 0.0018313 0)
(-0.238963 9.68011e-05 0)
(-0.237432 -0.00172173 0)
(-0.234766 -0.0036117 0)
(-0.230949 -0.00555194 0)
(-0.225973 -0.00752072 0)
(-0.219843 -0.00949288 0)
(-0.21258 -0.0114382 0)
(-0.204218 -0.0133237 0)
(-0.19481 -0.0151143 0)
(-0.184429 -0.0167726 0)
(-0.173163 -0.0182595 0)
(-0.161122 -0.0195353 0)
(-0.148435 -0.020562 0)
(-0.135249 -0.0213046 0)
(-0.12173 -0.0217333 0)
(-0.108055 -0.0218256 0)
(-0.0944162 -0.0215684 0)
(-0.0810091 -0.0209595 0)
(-0.0680311 -0.020009 0)
(-0.0556744 -0.0187402 0)
(-0.0441184 -0.017189 0)
(-0.0335236 -0.0154026 0)
(-0.0240251 -0.0134381 0)
(-0.0157263 -0.0113585 0)
(-0.00869554 -0.00923028 0)
(-0.00296306 -0.00711898 0)
(0.00147941 -0.00508625 0)
(0.00467747 -0.0031872 0)
(0.00671148 -0.00146922 0)
(0.00769298 2.73766e-05 0)
(0.00776137 0.00126724 0)
(0.00708228 0.00221528 0)
(0.00584537 0.00283041 0)
(0.00426657 0.00306077 0)
(0.0025859 0.00284246 0)
(0.00109414 0.00211007 0)
(0.000110901 0.00084935 0)
(-1.72926e-07 3.13071e-06 0)
(4.35453e-05 -7.39605e-05 0)
(0.000152202 -0.000193481 0)
(0.000331021 -0.000328733 0)
(0.000581286 -0.00046475 0)
(0.000900608 -0.000592746 0)
(0.00128365 -0.000707769 0)
(0.00172324 -0.00080716 0)
(0.00221107 -0.00088966 0)
(0.00273825 -0.000954892 0)
(0.00329574 -0.00100306 0)
(0.00387458 -0.00103478 0)
(0.00446614 -0.00105096 0)
(0.00506227 -0.00105272 0)
(0.00565542 -0.00104136 0)
(0.00623874 -0.00101831 0)
(0.00680615 -0.000985047 0)
(0.00735235 -0.000943135 0)
(0.00787288 -0.000894135 0)
(0.00836412 -0.000839592 0)
(0.00882323 -0.000781005 0)
(0.00924817 -0.000719803 0)
(0.00963764 -0.000657321 0)
(0.00999103 -0.000594778 0)
(0.0103083 -0.00053326 0)
(0.0105901 -0.000473711 0)
(0.0108373 -0.000416912 0)
(0.0110513 -0.00036348 0)
(0.0112337 -0.000313857 0)
(0.0113864 -0.000268301 0)
(0.0115112 -0.000226886 0)
(0.01161 -0.000189497 0)
(0.0116844 -0.000155828 0)
(0.0117358 -0.000125381 0)
(0.0117654 -9.747e-05 0)
(0.0117736 -7.12242e-05 0)
(0.0117605 -4.55916e-05 0)
(0.0117254 -1.93497e-05 0)
(0.0116668 8.8811e-06 0)
(0.0115824 4.06262e-05 0)
(0.0114688 7.75475e-05 0)
(0.0113218 0.000121411 0)
(0.0111359 0.000174068 0)
(0.0109046 0.00023744 0)
(0.0106202 0.000313491 0)
(0.0102738 0.000404213 0)
(0.00985537 0.000511606 0)
(0.00935354 0.000637663 0)
(0.00875587 0.000784362 0)
(0.00804871 0.000953659 0)
(0.00721724 0.00114748 0)
(0.00624556 0.00136774 0)
(0.00511665 0.0016163 0)
(0.00381246 0.001895 0)
(0.00231396 0.00220563 0)
(0.000601183 0.00254993 0)
(-0.0013466 0.00292953 0)
(-0.00355084 0.00334593 0)
(-0.00603344 0.00380041 0)
(-0.00881664 0.004294 0)
(-0.0119227 0.00482734 0)
(-0.0153736 0.00540065 0)
(-0.0191905 0.00601357 0)
(-0.0233937 0.00666513 0)
(-0.0280016 0.00735358 0)
(-0.0330307 0.00807634 0)
(-0.0384945 0.00882991 0)
(-0.0444034 0.00960979 0)
(-0.0507635 0.0104105 0)
(-0.0575767 0.0112254 0)
(-0.0648395 0.012047 0)
(-0.072543 0.0128666 0)
(-0.0806719 0.0136748 0)
(-0.089205 0.0144614 0)
(-0.0981141 0.0152153 0)
(-0.107365 0.0159252 0)
(-0.116915 0.0165794 0)
(-0.126718 0.0171659 0)
(-0.136719 0.0176729 0)
(-0.14686 0.018089 0)
(-0.157076 0.018403 0)
(-0.167297 0.0186046 0)
(-0.177452 0.0186839 0)
(-0.187465 0.0186322 0)
(-0.197258 0.0184415 0)
(-0.206753 0.0181051 0)
(-0.215869 0.017617 0)
(-0.224528 0.0169726 0)
(-0.23265 0.0161682 0)
(-0.240159 0.0152015 0)
(-0.246977 0.0140711 0)
(-0.253034 0.0127771 0)
(-0.258258 0.0113209 0)
(-0.262584 0.00970508 0)
(-0.26595 0.00793412 0)
(-0.268298 0.00601418 0)
(-0.269576 0.00395351 0)
(-0.269742 0.00176257 0)
(-0.268754 -0.000540767 0)
(-0.26658 -0.00294318 0)
(-0.263199 -0.00542639 0)
(-0.2586 -0.0079647 0)
(-0.252781 -0.0105304 0)
(-0.245753 -0.0130916 0)
(-0.237542 -0.0156109 0)
(-0.228186 -0.0180468 0)
(-0.217742 -0.0203556 0)
(-0.206285 -0.0224907 0)
(-0.193906 -0.0244034 0)
(-0.180718 -0.0260444 0)
(-0.16685 -0.0273659 0)
(-0.152455 -0.0283241 0)
(-0.137697 -0.0288808 0)
(-0.122762 -0.0290071 0)
(-0.107844 -0.0286848 0)
(-0.0931476 -0.0279098 0)
(-0.0788791 -0.0266927 0)
(-0.0652421 -0.0250609 0)
(-0.0524296 -0.0230575 0)
(-0.0406175 -0.0207412 0)
(-0.0299568 -0.0181827 0)
(-0.0205677 -0.0154622 0)
(-0.0125342 -0.0126649 0)
(-0.00590066 -0.00987618 0)
(-0.000670031 -0.0071775 0)
(0.00319579 -0.00464311 0)
(0.00577401 -0.00233811 0)
(0.00717782 -0.000318783 0)
(0.00755315 0.00136483 0)
(0.00707582 0.00266427 0)
(0.00595002 0.00352498 0)
(0.00440802 0.00388121 0)
(0.00270754 0.00365403 0)
(0.00116178 0.00276003 0)
(0.000120315 0.00115056 0)
(1.37174e-06 -9.37772e-06 0)
(6.04465e-05 -0.00011771 0)
(0.00019448 -0.000272644 0)
(0.000406257 -0.000445022 0)
(0.000695644 -0.00061773 0)
(0.0010596 -0.000780324 0)
(0.00149224 -0.000926681 0)
(0.00198582 -0.00105338 0)
(0.00253141 -0.00115873 0)
(0.00311947 -0.00124213 0)
(0.00374019 -0.00130377 0)
(0.00438387 -0.00134436 0)
(0.0050411 -0.00136501 0)
(0.005703 -0.00136713 0)
(0.00636131 -0.00135234 0)
(0.00700852 -0.00132245 0)
(0.00763791 -0.00127936 0)
(0.00824367 -0.00122505 0)
(0.00882083 -0.0011615 0)
(0.00936536 -0.0010907 0)
(0.00987405 -0.00101455 0)
(0.0103446 -0.000934888 0)
(0.0107755 -0.000853413 0)
(0.0111658 -0.000771686 0)
(0.0115156 -0.000691096 0)
(0.0118252 -0.000612844 0)
(0.0120956 -0.000537927 0)
(0.0123281 -0.000467128 0)
(0.0125243 -0.000400998 0)
(0.012686 -0.000339858 0)
(0.0128151 -0.000283783 0)
(0.0129134 -0.000232606 0)
(0.0129824 -0.000185907 0)
(0.0130234 -0.00014302 0)
(0.0130374 -0.000103031 0)
(0.0130246 -6.4785e-05 0)
(0.0129846 -2.6889e-05 0)
(0.0129165 1.22718e-05 0)
(0.012818 5.45202e-05 0)
(0.0126863 0.000101871 0)
(0.0125172 0.000156513 0)
(0.0123054 0.000220775 0)
(0.0120444 0.000297102 0)
(0.0117265 0.000388029 0)
(0.0113426 0.00049615 0)
(0.0108821 0.000624094 0)
(0.0103333 0.000774502 0)
(0.00968297 0.000950006 0)
(0.00891659 0.00115322 0)
(0.00801831 0.0013867 0)
(0.00697098 0.00165301 0)
(0.00575621 0.00195461 0)
(0.00435441 0.00229394 0)
(0.00274488 0.00267337 0)
(0.000905848 0.00309518 0)
(-0.00118538 0.00356153 0)
(-0.00355227 0.00407444 0)
(-0.00621892 0.00463567 0)
(-0.00920977 0.00524668 0)
(-0.0125494 0.00590851 0)
(-0.0162621 0.00662168 0)
(-0.0203714 0.00738607 0)
(-0.0249 0.00820076 0)
(-0.0298686 0.00906395 0)
(-0.0352957 0.00997277 0)
(-0.0411969 0.0109232 0)
(-0.0475842 0.0119101 0)
(-0.0544653 0.0129268 0)
(-0.0618429 0.0139654 0)
(-0.0697141 0.0150168 0)
(-0.0780698 0.0160703 0)
(-0.0868943 0.0171141 0)
(-0.0961647 0.0181356 0)
(-0.105851 0.0191208 0)
(-0.115916 0.0200555 0)
(-0.126314 0.0209246 0)
(-0.136995 0.021713 0)
(-0.147899 0.0224057 0)
(-0.158962 0.022988 0)
(-0.170114 0.0234457 0)
(-0.181281 0.0237655 0)
(-0.192386 0.023935 0)
(-0.203346 0.0239431 0)
(-0.214079 0.0237799 0)
(-0.224502 0.0234368 0)
(-0.23453 0.0229069 0)
(-0.244081 0.0221845 0)
(-0.253073 0.0212654 0)
(-0.261427 0.0201469 0)
(-0.269065 0.0188277 0)
(-0.275915 0.017308 0)
(-0.281906 0.0155896 0)
(-0.286974 0.0136757 0)
(-0.291056 0.0115713 0)
(-0.294097 0.00928326 0)
(-0.296047 0.00682049 0)
(-0.29686 0.00419437 0)
(-0.296498 0.00141905 0)
(-0.29493 -0.00148557 0)
(-0.292129 -0.0045009 0)
(-0.288081 -0.00760342 0)
(-0.282779 -0.010763 0)
(-0.276228 -0.0139461 0)
(-0.26844 -0.0171145 0)
(-0.259446 -0.0202243 0)
(-0.249285 -0.0232259 0)
(-0.238015 -0.0260674 0)
(-0.225709 -0.0286934 0)
(-0.212459 -0.0310459 0)
(-0.198374 -0.0330662 0)
(-0.183583 -0.0346968 0)
(-0.168234 -0.0358846 0)
(-0.152494 -0.036583 0)
(-0.136546 -0.0367556 0)
(-0.120587 -0.0363788 0)
(-0.104824 -0.0354449 0)
(-0.08947 -0.0339644 0)
(-0.074737 -0.0319671 0)
(-0.0608292 -0.0295029 0)
(-0.0479355 -0.0266401 0)
(-0.0362221 -0.0234635 0)
(-0.0258252 -0.0200698 0)
(-0.0168449 -0.0165634 0)
(-0.00934063 -0.0130504 0)
(-0.00332839 -0.00963368 0)
(0.00121989 -0.00640838 0)
(0.00437525 -0.00345948 0)
(0.00624901 -0.000861553 0)
(0.0069897 0.00131869 0)
(0.00677936 0.00301711 0)
(0.00583239 0.00416455 0)
(0.00439334 0.0046803 0)
(0.0027342 0.00446904 0)
(0.00118667 0.0034266 0)
(0.000124528 0.0014644 0)
(2.82045e-06 -2.62993e-05 0)
(7.70743e-05 -0.000171838 0)
(0.000236399 -0.000366427 0)
(0.000480883 -0.000579245 0)
(0.000808712 -0.000791429 0)
(0.00121602 -0.000991054 0)
(0.00169626 -0.00117089 0)
(0.00224112 -0.00132676 0)
(0.0028411 -0.0014565 0)
(0.00348603 -0.0015593 0)
(0.00416547 -0.00163528 0)
(0.00486904 -0.00168525 0)
(0.0055867 -0.00171054 0)
(0.00630889 -0.00171284 0)
(0.00702674 -0.00169413 0)
(0.00773214 -0.00165661 0)
(0.00841785 -0.00160262 0)
(0.00907755 -0.00153459 0)
(0.00970585 -0.00145497 0)
(0.0102983 -0.00136619 0)