/*--------------------------------*- C++ -*----------------------------------*\
  =========                 |
  \\      /  F ield         | OpenFOAM: The Open Source CFD Toolbox
   \\    /   O peration     | Website:  https://openfoam.org
    \\  /    A nd           | Version:  12
     \\/     M anipulation  |
\*---------------------------------------------------------------------------*/
FoamFile
{
    format      ascii;
    class       volScalarField;
    location    "1.25";
    object      p;
}
// * * * * * * * * * * * * * * * * * * * * * * * * * * * * * * * * * * * * * //

dimensions      [0 2 -2 0 0 0 0];

internalField   nonuniform List<scalar> 
400
(
5.49935e-07
-0.205505
-0.293468
-0.175647
0.128183
0.574046
1.11537
1.71514
2.34798
2.99819
3.65616
4.31399
4.96151
5.58186
6.14744
6.6177
6.9416
7.07108
6.9848
6.77466
0.0621528
-0.116693
-0.181193
-0.0580885
0.234305
0.660228
1.1795
1.75864
2.37336
3.00749
3.65005
4.29145
4.92018
5.51889
6.06118
6.51024
6.82175
6.9562
6.89381
6.711
0.140097
-0.0324263
-0.0806782
0.0491645
0.333551
0.742832
1.24231
1.80194
2.39879
3.01659
3.64325
4.26794
4.87819
5.45652
5.97804
6.4096
6.71257
6.8537
6.80783
6.63145
0.203301
0.0180052
-0.025728
0.111741
0.395541
0.797561
1.28592
1.83301
2.41725
3.02275
3.63714
4.24925
4.84643
5.41173
5.92179
6.34601
6.64866
6.79788
6.75671
6.56721
0.232576
0.0281798
-0.0151445
0.133145
0.423662
0.826874
1.31185
1.85266
2.42909
3.02605
3.63161
4.23496
4.82395
5.38268
5.8894
6.31537
6.62576
6.78689
6.74657
6.53759
0.213916
-0.00749914
-0.047942
0.117251
0.422195
0.834323
1.32263
1.86248
2.43519
3.02684
3.62649
4.22424
4.80908
5.36663
5.87692
6.31278
6.63927
6.81913
6.78266
6.55651
0.134525
-0.0964301
-0.126788
0.0643601
0.392639
0.821573
1.31961
1.86344
2.43614
3.02537
3.62171
4.21671
4.80102
5.36221
5.88249
6.33639
6.68845
6.89686
6.87214
6.63673
-0.0188673
-0.246692
-0.255329
-0.0259483
0.336135
0.790206
1.30426
1.85666
2.43262
3.02198
3.61728
4.21201
4.79892
5.36811
5.90456
6.38494
6.77351
7.02352
7.02302
6.7916
-0.261451
-0.466847
-0.437033
-0.153471
0.254601
0.742547
1.27864
1.84362
2.42559
3.01714
3.6132
4.20958
4.80169
5.38271
5.94114
6.45669
6.89425
7.20253
7.24392
7.03661
-0.612118
-0.766306
-0.674893
-0.316962
0.151037
0.681808
1.24542
1.82632
2.41641
3.01155
3.6095
4.20883
4.80802
5.40398
5.9896
6.54908
7.04974
7.43707
7.54452
7.39121
-1.09571
-1.15569
-0.971009
-0.513655
0.0298417
0.612254
1.20806
1.80724
2.4066
3.00591
3.60618
4.20904
4.81636
5.42938
6.04654
6.65847
7.23781
7.72965
7.93586
7.88116
-1.7463
-1.64689
-1.32575
-0.738516
-0.102761
0.539337
1.17064
1.78913
2.3978
3.001
3.60324
4.20934
4.82484
5.45584
6.10759
6.77961
7.45415
8.08138
8.43046
8.54181
-2.61229
-2.25275
-1.73617
-0.983211
-0.238196
0.469858
1.13794
1.77505
2.39179
2.9976
3.60058
4.20873
4.83129
5.47965
6.16713
6.90513
7.69113
8.49054
9.04205
9.42304
-3.76295
-2.98586
-2.19403
-1.23475
-0.365033
0.412018
1.11524
1.76816
2.39029
2.99638
3.59802
4.20605
4.83325
5.49642
6.21809
7.02491
7.93715
8.94957
9.78398
10.5958
-5.29253
-3.85461
-2.68312
-1.47435
-0.46875
0.375209
1.10807
1.77151
2.39479
2.99789
3.59528
4.20011
4.82813
5.50128
6.25203
7.12567
8.17536
9.44278
10.667
12.1556
-7.32445
-4.85541
-3.17345
-1.67517
-0.531388
0.369723
1.12181
1.7877
2.40644
3.0024
3.59199
4.18969
4.81332
5.48903
6.25909
7.19028
8.37984
9.94132
11.6886
14.2263
-10.0932
-5.95886
-3.59882
-1.79307
-0.528701
0.407515
1.16186
1.81896
2.426
3.00996
3.58769
4.1736
4.78614
5.45382
6.22704
7.19449
8.50653
10.3802
12.8197
17.0439
-14.3027
-7.0989
-3.80552
-1.74744
-0.424494
0.504265
1.23467
1.86773
2.45419
3.02052
3.5817
4.15043
4.74333
5.38822
6.13915
7.10119
8.47469
10.608
13.9968
21.3185
-21.4127
-8.14491
-3.5922
-1.45364
-0.188847
0.669467
1.34259
1.93409
2.49056
3.03363
3.57373
4.11983
4.68368
5.28849
5.98422
6.8785
8.1978
10.4211
15.0896
28.5098
-31.2083
-8.75516
-3.13469
-1.05421
0.0897705
0.848253
1.4528
1.99925
2.5253
3.04584
3.56594
4.09001
4.62417
5.18514
5.81414
6.61095
7.81258
9.98776
15.7423
38.3677
)
;

boundaryField
{
    movingWall
    {
        type            zeroGradient;
    }
    fixedWalls
    {
        type            zeroGradient;
    }
    frontAndBack
    {
        type            empty;
    }
}


// ************************************************************************* //
