/*--------------------------------*- C++ -*----------------------------------*\
  =========                 |
  \\      /  F ield         | OpenFOAM: The Open Source CFD Toolbox
   \\    /   O peration     | Website:  https://openfoam.org
    \\  /    A nd           | Version:  12
     \\/     M anipulation  |
\*---------------------------------------------------------------------------*/
FoamFile
{
    format      ascii;
    class       volScalarField;
    location    "6";
    object      epsilon;
}
// * * * * * * * * * * * * * * * * * * * * * * * * * * * * * * * * * * * * * //

dimensions      [0 2 -3 0 0 0 0];

internalField   nonuniform List<scalar> 
5625
(
2.43354e-10
1.64488e-09
3.64828e-09
6.00626e-09
8.59203e-09
1.13183e-08
1.41172e-08
1.69344e-08
1.97256e-08
2.2456e-08
2.50997e-08
2.7639e-08
3.00644e-08
3.23736e-08
3.45709e-08
3.66664e-08
3.86744e-08
4.0613e-08
4.25023e-08
4.43638e-08
4.62193e-08
4.80902e-08
4.99973e-08
5.19598e-08
5.39955e-08
5.61207e-08
5.83501e-08
6.06966e-08
6.31716e-08
6.57852e-08
6.85458e-08
7.14605e-08
7.4535e-08
7.77734e-08
8.11784e-08
8.47507e-08
8.84891e-08
9.23898e-08
9.64464e-08
1.00649e-07
1.04983e-07
1.09429e-07
1.13963e-07
1.18552e-07
1.23155e-07
1.27722e-07
1.32193e-07
1.36493e-07
1.40538e-07
1.44227e-07
1.47447e-07
1.50069e-07
1.51939e-07
1.52859e-07
1.52916e-07
1.51842e-07
1.49498e-07
1.45804e-07
1.4072e-07
1.34256e-07
1.26477e-07
1.17512e-07
1.07549e-07
9.68282e-08
8.56302e-08
7.42531e-08
6.29919e-08
5.21156e-08
4.18499e-08
3.23663e-08
2.3783e-08
1.61794e-08
9.63139e-09
4.29092e-09
6.33199e-10
4.59732e-10
8.936e-10
1.78486e-09
2.87536e-09
4.08325e-09
5.3618e-09
6.67719e-09
8.00284e-09
9.31755e-09
1.06047e-08
1.18518e-08
1.30505e-08
1.41962e-08
1.52877e-08
1.63269e-08
1.73186e-08
1.82696e-08
1.91881e-08
2.00837e-08
2.09665e-08
2.18468e-08
2.27348e-08
2.36401e-08
2.4572e-08
2.55389e-08
2.65485e-08
2.76078e-08
2.8723e-08
2.98995e-08
3.11422e-08
3.2455e-08
3.38415e-08
3.53042e-08
3.68452e-08
3.84657e-08
4.01661e-08
4.19456e-08
4.38024e-08
4.57333e-08
4.77332e-08
4.97951e-08
5.19097e-08
5.40644e-08
5.62434e-08
5.84269e-08
6.05905e-08
6.27045e-08
6.47334e-08
6.6636e-08
6.83644e-08
6.98644e-08
7.10749e-08
7.19233e-08
7.23225e-08
7.23063e-08
7.17538e-08
7.06037e-08
6.88193e-08
6.63848e-08
6.33073e-08
5.96201e-08
5.53844e-08
5.0689e-08
4.56461e-08
4.03851e-08
3.50438e-08
2.97578e-08
2.46515e-08
1.98295e-08
1.53726e-08
1.13391e-08
7.77292e-09
4.72722e-09
2.33522e-09
1.19551e-09
9.75991e-10
8.70088e-10
1.37448e-09
2.07997e-09
2.88837e-09
3.75549e-09
4.65364e-09
5.56257e-09
6.46666e-09
7.35388e-09
8.21528e-09
9.04481e-09
9.83907e-09
1.05971e-08
1.13202e-08
1.20114e-08
1.26753e-08
1.33177e-08
1.39451e-08
1.45645e-08
1.5183e-08
1.58076e-08
1.64452e-08
1.71022e-08
1.77846e-08
1.84978e-08
1.92468e-08
2.00359e-08
2.08691e-08
2.17498e-08
2.2681e-08
2.3665e-08
2.47038e-08
2.57988e-08
2.69508e-08
2.81599e-08
2.94256e-08
3.07461e-08
3.21188e-08
3.35398e-08
3.50035e-08
3.65025e-08
3.80272e-08
3.95655e-08
4.11023e-08
4.26192e-08
4.40943e-08
4.55017e-08
4.68112e-08
4.79888e-08
4.89963e-08
4.97916e-08
5.032e-08
5.05366e-08
5.04536e-08
4.99939e-08
4.91208e-08
4.78131e-08
4.60639e-08
4.3882e-08
4.12932e-08
3.83417e-08
3.50885e-08
3.16095e-08
2.79911e-08
2.43243e-08
2.0699e-08
1.71974e-08
1.38904e-08
1.08348e-08
8.07614e-09
5.65871e-09
3.65489e-09
2.27164e-09
2.53172e-09
1.59544e-09
1.04213e-09
1.29889e-09
1.79184e-09
2.39578e-09
3.0605e-09
3.75799e-09
4.46944e-09
5.18102e-09
5.88234e-09
6.56577e-09
7.2261e-09
7.86038e-09
8.46763e-09
9.04866e-09
9.6058e-09
1.01426e-08
1.06636e-08
1.1174e-08
1.16793e-08
1.21852e-08
1.26974e-08
1.32215e-08
1.37626e-08
1.43257e-08
1.49153e-08
1.55354e-08
1.61898e-08
1.68818e-08
1.76141e-08
1.83893e-08
1.92093e-08
2.00758e-08
2.09899e-08
2.1952e-08
2.2962e-08
2.40192e-08
2.51217e-08
2.62668e-08
2.74506e-08
2.86676e-08
2.99108e-08
3.11712e-08
3.24376e-08
3.36963e-08
3.49312e-08
3.6123e-08
3.72494e-08
3.82855e-08
3.92031e-08
3.99714e-08
4.05576e-08
4.09104e-08
4.10189e-08
4.08744e-08
4.04245e-08
3.96455e-08
3.85245e-08
3.70595e-08
3.52609e-08
3.31517e-08
3.07679e-08
2.81581e-08
2.53812e-08
2.25035e-08
1.95946e-08
1.6723e-08
1.39525e-08
1.13388e-08
8.93011e-09
6.77051e-09
4.91369e-09
3.46193e-09
2.70965e-09
4.12088e-09
2.29865e-09
1.30874e-09
1.36665e-09
1.7076e-09
2.17611e-09
2.71322e-09
3.28828e-09
3.88197e-09
4.48076e-09
5.07471e-09
5.65664e-09
6.22165e-09
6.76684e-09
7.29111e-09
7.79496e-09
8.28023e-09
8.74987e-09
9.20767e-09
9.65804e-09
1.01057e-08
1.05558e-08
1.1013e-08
1.14824e-08
1.19685e-08
1.24757e-08
1.3008e-08
1.35691e-08
1.41624e-08
1.47908e-08
1.54569e-08
1.61629e-08
1.69105e-08
1.77012e-08
1.85357e-08
1.94142e-08
2.03362e-08
2.13007e-08
2.23054e-08
2.33471e-08
2.44214e-08
2.55226e-08
2.66431e-08
2.77738e-08
2.89037e-08
3.00193e-08
3.11052e-08
3.21436e-08
3.31144e-08
3.39952e-08
3.47619e-08
3.53887e-08
3.58471e-08
3.6087e-08
3.61263e-08
3.5935e-08
3.54794e-08
3.47422e-08
3.3715e-08
3.23984e-08
3.08024e-08
2.89478e-08
2.68656e-08
2.45971e-08
2.21921e-08
1.97063e-08
1.71985e-08
1.47271e-08
1.23471e-08
1.01082e-08
8.05623e-09
6.23905e-09
4.72282e-09
3.64317e-09
3.38283e-09
5.90166e-09
3.07207e-09
1.63472e-09
1.5158e-09
1.73329e-09
2.09882e-09
2.54366e-09
3.0335e-09
3.54763e-09
4.07204e-09
4.59668e-09
5.11437e-09
5.62015e-09
6.11104e-09
6.58576e-09
7.04451e-09
7.48879e-09
7.92111e-09
8.34483e-09
8.76387e-09
9.18254e-09
9.60535e-09
1.00369e-08
1.04815e-08
1.09437e-08
1.14273e-08
1.19364e-08
1.24742e-08
1.3044e-08
1.36485e-08
1.42902e-08
1.4971e-08
1.56925e-08
1.64558e-08
1.72614e-08
1.81091e-08
1.8998e-08
1.99264e-08
2.08915e-08
2.18894e-08
2.29151e-08
2.39621e-08
2.50223e-08
2.60862e-08
2.71422e-08
2.81773e-08
2.91764e-08
3.01228e-08
3.09981e-08
3.17823e-08
3.24545e-08
3.29932e-08
3.33703e-08
3.35416e-08
3.35421e-08
3.33271e-08
3.28747e-08
3.2171e-08
3.12087e-08
2.99879e-08
2.85169e-08
2.68135e-08
2.49042e-08
2.28255e-08
2.0622e-08
1.8345e-08
1.60489e-08
1.37886e-08
1.16168e-08
9.58264e-09
7.73363e-09
6.1237e-09
4.83485e-09
4.03464e-09
4.19564e-09
7.82762e-09
3.90699e-09
2.00405e-09
1.71896e-09
1.82893e-09
2.10965e-09
2.48197e-09
2.90749e-09
3.36364e-09
3.83551e-09
4.3126e-09
4.78742e-09
5.25482e-09
5.71159e-09
6.15621e-09
6.58862e-09
7.01003e-09
7.42265e-09
7.82953e-09
8.23429e-09
8.64095e-09
9.05376e-09
9.47703e-09
9.91504e-09
1.03719e-08
1.08516e-08
1.13577e-08
1.18936e-08
1.24624e-08
1.30666e-08
1.37085e-08
1.439e-08
1.51124e-08
1.58763e-08
1.66819e-08
1.75285e-08
1.84147e-08
1.9338e-08
2.02949e-08
2.12808e-08
2.22897e-08
2.33145e-08
2.43463e-08
2.53753e-08
2.63897e-08
2.73768e-08
2.83221e-08
2.92103e-08
3.00246e-08
3.07478e-08
3.13619e-08
3.18489e-08
3.21816e-08
3.23234e-08
3.23128e-08
3.21026e-08
3.16745e-08
3.10149e-08
3.0115e-08
2.8972e-08
2.75903e-08
2.59821e-08
2.41713e-08
2.21913e-08
2.00847e-08
1.79015e-08
1.56967e-08
1.35265e-08
1.14458e-08
9.50714e-09
7.7632e-09
6.27639e-09
5.14378e-09
4.5629e-09
5.1023e-09
9.86529e-09
4.79781e-09
2.40831e-09
1.9618e-09
1.97396e-09
2.18122e-09
2.49346e-09
2.86782e-09
3.27963e-09
3.71284e-09
4.15627e-09
4.60196e-09
5.04442e-09
5.48013e-09
5.9073e-09
6.32561e-09
6.73603e-09
7.14055e-09
7.54198e-09
7.94374e-09
8.3497e-09
8.76394e-09
9.19065e-09
9.63399e-09
1.0098e-08
1.05866e-08
1.11032e-08
1.16513e-08
1.22336e-08
1.28528e-08
1.35108e-08
1.42093e-08
1.49492e-08
1.57308e-08
1.65538e-08
1.74168e-08
1.83177e-08
1.92532e-08
2.02192e-08
2.12099e-08
2.22187e-08
2.32377e-08
2.42577e-08
2.52683e-08
2.62583e-08
2.72153e-08
2.81262e-08
2.89772e-08
2.9754e-08
3.04418e-08
3.10255e-08
3.149e-08
3.18132e-08
3.19593e-08
3.19647e-08
3.17876e-08
3.14064e-08
3.08056e-08
2.99726e-08
2.89001e-08
2.75875e-08
2.60434e-08
2.4287e-08
2.23491e-08
2.02718e-08
1.81069e-08
1.59124e-08
1.37494e-08
1.16785e-08
9.75844e-09
8.04931e-09
6.62291e-09
5.59467e-09
5.18862e-09
6.07641e-09
1.19888e-08
5.74087e-09
2.84265e-09
2.23597e-09
2.15644e-09
2.29794e-09
2.55851e-09
2.89072e-09
3.26759e-09
3.67171e-09
4.0911e-09
4.51723e-09
4.94413e-09
5.36794e-09
5.78656e-09
6.19941e-09
6.60724e-09
7.01186e-09
7.41591e-09
7.82272e-09
8.23601e-09
8.6598e-09
9.09823e-09
9.55541e-09
1.00353e-08
1.05418e-08
1.10784e-08
1.16482e-08
1.22539e-08
1.2898e-08
1.35822e-08
1.43077e-08
1.50753e-08
1.58846e-08
1.67347e-08
1.76236e-08
1.85483e-08
1.95048e-08
2.0488e-08
2.14914e-08
2.25078e-08
2.35286e-08
2.45445e-08
2.55453e-08
2.65203e-08
2.74585e-08
2.83483e-08
2.91779e-08
2.99357e-08
3.06096e-08
3.11874e-08
3.16561e-08
3.19999e-08
3.21852e-08
3.223e-08
3.21129e-08
3.18022e-08
3.12787e-08
3.05245e-08
2.95258e-08
2.8276e-08
2.67782e-08
2.50475e-08
2.3113e-08
2.10172e-08
1.88151e-08
1.65705e-08
1.43516e-08
1.22274e-08
1.02657e-08
8.53573e-09
7.1201e-09
6.1546e-09
5.88784e-09
7.10097e-09
1.41781e-08
6.73379e-09
3.30412e-09
2.53628e-09
2.36889e-09
2.45002e-09
2.66508e-09
2.96165e-09
3.31036e-09
3.69248e-09
4.09498e-09
4.50862e-09
4.92693e-09
5.34564e-09
5.76233e-09
6.17615e-09
6.58765e-09
6.99848e-09
7.41119e-09
7.82896e-09
8.25548e-09
8.69474e-09
9.15085e-09
9.6279e-09
1.01299e-08
1.06605e-08
1.12233e-08
1.18213e-08
1.24573e-08
1.31332e-08
1.38507e-08
1.46104e-08
1.54124e-08
1.6256e-08
1.71394e-08
1.80598e-08
1.90133e-08
1.99951e-08
2.0999e-08
2.20182e-08
2.30448e-08
2.40701e-08
2.50848e-08
2.60796e-08
2.70447e-08
2.79704e-08
2.88478e-08
2.96678e-08
3.04215e-08
3.11e-08
3.16936e-08
3.21913e-08
3.258e-08
3.28356e-08
3.29448e-08
3.291e-08
3.26912e-08
3.22621e-08
3.15982e-08
3.06784e-08
2.9489e-08
2.80274e-08
2.63045e-08
2.43476e-08
2.22003e-08
1.99217e-08
1.75825e-08
1.52601e-08
1.30338e-08
1.09824e-08
9.18617e-09
7.7401e-09
6.80206e-09
6.64469e-09
8.1641e-09
1.64174e-08
7.7749e-09
3.79083e-09
2.85937e-09
2.60636e-09
2.63099e-09
2.80513e-09
3.07112e-09
3.39699e-09
3.76241e-09
4.1534e-09
4.56e-09
4.97512e-09
5.394e-09
5.81385e-09
6.23357e-09
6.65351e-09
7.07518e-09
7.50106e-09
7.93435e-09
8.37872e-09
8.83813e-09
9.31669e-09
9.81848e-09
1.03475e-08
1.09073e-08
1.15013e-08
1.21324e-08
1.28032e-08
1.35153e-08
1.42698e-08
1.50672e-08
1.59067e-08
1.6787e-08
1.77055e-08
1.86586e-08
1.96415e-08
2.06485e-08
2.1673e-08
2.27073e-08
2.37435e-08
2.4773e-08
2.57872e-08
2.67777e-08
2.77365e-08
2.86563e-08
2.95303e-08
3.03526e-08
3.11171e-08
3.18177e-08
3.24468e-08
3.29951e-08
3.345e-08
3.37946e-08
3.4001e-08
3.40597e-08
3.39498e-08
3.36287e-08
3.30649e-08
3.22291e-08
3.11005e-08
2.96701e-08
2.79448e-08
2.59497e-08
2.37296e-08
2.13479e-08
1.88826e-08
1.64212e-08
1.4055e-08
1.18751e-08
9.97503e-09
8.46336e-09
7.52199e-09
7.44805e-09
9.25707e-09
1.8694e-08
8.86315e-09
4.30155e-09
3.20299e-09
2.86539e-09
2.83635e-09
2.9731e-09
3.21248e-09
3.51975e-09
3.87294e-09
4.25694e-09
4.66093e-09
5.07718e-09
5.50045e-09
5.92759e-09
6.35722e-09
6.7895e-09
7.22582e-09
7.66859e-09
8.12097e-09
8.58665e-09
9.06961e-09
9.57394e-09
1.01037e-08
1.06629e-08
1.1255e-08
1.18833e-08
1.25504e-08
1.32586e-08
1.40092e-08
1.48028e-08
1.56393e-08
1.65173e-08
1.74347e-08
1.83879e-08
1.93726e-08
2.03833e-08
2.14135e-08
2.24559e-08
2.3503e-08
2.45466e-08
2.55788e-08
2.65921e-08
2.75796e-08
2.85356e-08
2.94551e-08
3.03343e-08
3.117e-08
3.19589e-08
3.26973e-08
3.33795e-08
3.39969e-08
3.45369e-08
3.49821e-08
3.53109e-08
3.54761e-08
3.54823e-08
3.52785e-08
3.48219e-08
3.40744e-08
3.3008e-08
3.16078e-08
2.9876e-08
2.78353e-08
2.55309e-08
2.303e-08
2.04179e-08
1.77925e-08
1.52576e-08
1.29184e-08
1.0883e-08
9.2754e-09
8.30332e-09
8.28982e-09
1.03733e-08
2.0998e-08
9.99792e-09
4.83547e-09
3.56557e-09
3.14358e-09
3.06287e-09
3.16499e-09
3.38098e-09
3.67314e-09
4.01773e-09
4.39842e-09
4.80347e-09
5.22445e-09
5.6556e-09
6.09336e-09
6.53608e-09
6.98372e-09
7.43759e-09
7.90005e-09
8.37424e-09
8.86387e-09
9.37292e-09
9.9055e-09
1.04657e-08
1.10572e-08
1.16837e-08
1.23481e-08
1.30528e-08
1.37997e-08
1.45897e-08
1.54229e-08
1.62983e-08
1.7214e-08
1.81669e-08
1.91529e-08
2.01666e-08
2.12018e-08
2.22517e-08
2.33086e-08
2.4365e-08
2.54133e-08
2.64466e-08
2.74589e-08
2.84452e-08
2.94022e-08
3.03276e-08
3.12205e-08
3.20802e-08
3.29062e-08
3.36962e-08
3.44459e-08
3.51468e-08
3.57856e-08
3.63432e-08
3.67954e-08
3.70961e-08
3.72107e-08
3.71287e-08
3.67836e-08
3.61273e-08
3.51254e-08
3.3757e-08
3.20195e-08
2.99325e-08
2.75408e-08
2.4914e-08
2.2144e-08
1.93384e-08
1.66142e-08
1.40917e-08
1.18947e-08
1.01651e-08
9.13762e-09
9.16398e-09
1.15078e-08
2.33212e-08
1.11789e-08
5.39209e-09
3.94604e-09
3.43917e-09
3.30816e-09
3.37784e-09
3.57312e-09
3.8531e-09
4.19217e-09
4.57267e-09
4.98186e-09
5.41059e-09
5.85249e-09
6.30361e-09
6.76199e-09
7.22743e-09
7.70115e-09
8.18545e-09
8.68351e-09
9.19902e-09
9.73598e-09
1.02985e-08
1.08906e-08
1.15159e-08
1.21779e-08
1.28793e-08
1.36222e-08
1.44079e-08
1.52369e-08
1.61087e-08
1.70217e-08
1.7973e-08
1.89589e-08
1.99743e-08
2.10133e-08
2.20693e-08
2.31348e-08
2.42024e-08
2.52649e-08
2.63156e-08
2.7349e-08
2.83608e-08
2.93484e-08
3.0311e-08
3.1249e-08
3.21641e-08
3.30581e-08
3.39321e-08
3.47853e-08
3.56135e-08
3.64079e-08
3.71538e-08
3.78297e-08
3.84069e-08
3.88484e-08
3.90789e-08
3.91095e-08
3.88775e-08
3.83141e-08
3.7379e-08
3.60462e-08
3.43078e-08
3.21795e-08
2.97042e-08
2.69528e-08
2.40219e-08
2.10283e-08
1.81016e-08
1.53775e-08
1.29978e-08
1.11234e-08
1.00187e-08
1.0066e-08
1.26569e-08
2.56578e-08
1.24059e-08
5.97109e-09
4.34362e-09
3.75089e-09
3.57043e-09
3.60942e-09
3.78621e-09
4.05655e-09
4.39275e-09
4.77575e-09
5.19174e-09
5.63075e-09
6.08581e-09
6.55252e-09
7.02865e-09
7.51381e-09
8.00913e-09
8.51691e-09
9.0403e-09
9.58303e-09
1.01491e-08
1.07426e-08
1.13674e-08
1.20272e-08
1.27251e-08
1.34634e-08
1.42441e-08
1.50679e-08
1.59347e-08
1.68433e-08
1.77914e-08
1.87755e-08
1.97909e-08
2.0832e-08
2.18924e-08
2.29648e-08
2.4042e-08
2.51168e-08
2.61828e-08
2.72345e-08
2.8268e-08
2.92811e-08
3.02737e-08
3.12473e-08
3.2205e-08
3.31507e-08
3.4088e-08
3.50194e-08
3.59444e-08
3.68587e-08
3.77523e-08
3.86087e-08
3.94036e-08
4.01057e-08
4.06765e-08
4.10379e-08
4.11642e-08
4.10436e-08
4.05731e-08
3.97071e-08
3.84147e-08
3.66829e-08
3.45226e-08
3.19733e-08
2.91052e-08
2.60178e-08
2.28353e-08
1.96991e-08
1.67611e-08
1.41817e-08
1.2143e-08
1.0942e-08
1.09926e-08
1.38178e-08
2.80033e-08
1.36791e-08
6.57227e-09
4.75777e-09
4.07779e-09
3.8483e-09
3.85799e-09
4.01819e-09
4.28107e-09
4.61674e-09
5.00458e-09
5.42965e-09
5.8811e-09
6.35133e-09
6.83546e-09
7.33098e-09
7.83732e-09
8.35555e-09
8.88794e-09
9.43765e-09
1.00084e-08
1.06043e-08
1.12292e-08
1.1887e-08
1.25812e-08
1.33146e-08
1.40893e-08
1.49067e-08
1.57671e-08
1.66697e-08
1.76127e-08
1.85931e-08
1.96065e-08
2.06477e-08
2.17106e-08
2.27881e-08
2.38732e-08
2.49587e-08
2.60382e-08
2.71061e-08
2.81585e-08
2.91934e-08
3.02109e-08
3.12131e-08
3.22039e-08
3.31886e-08
3.41729e-08
3.51615e-08
3.61574e-08
3.71601e-08
3.81644e-08
3.91588e-08
4.01246e-08
4.10352e-08
4.18562e-08
4.25465e-08
4.30368e-08
4.32529e-08
4.32334e-08
4.28546e-08
4.20592e-08
4.08125e-08
3.90965e-08
3.69163e-08
3.43067e-08
3.13349e-08
2.81013e-08
2.47353e-08
2.13889e-08
1.82297e-08
1.54377e-08
1.32181e-08
1.19038e-08
1.19414e-08
1.49889e-08
3.03552e-08
1.49986e-08
7.19555e-09
5.18809e-09
4.41917e-09
4.14069e-09
4.12223e-09
4.26744e-09
4.52478e-09
4.86196e-09
5.2567e-09
5.69282e-09
6.15854e-09
6.64558e-09
7.14859e-09
7.66475e-09
8.19335e-09
8.73537e-09
9.29308e-09
9.86965e-09
1.04688e-08
1.10946e-08
1.17509e-08
1.24415e-08
1.31696e-08
1.39376e-08
1.47475e-08
1.56e-08
1.6495e-08
1.7431e-08
1.84056e-08
1.94149e-08
2.04542e-08
2.15176e-08
2.25984e-08
2.36896e-08
2.47842e-08
2.58756e-08
2.69581e-08
2.80276e-08
2.9082e-08
3.01211e-08
3.11472e-08
3.21646e-08
3.31793e-08
3.41982e-08
3.52282e-08
3.62746e-08
3.73403e-08
3.8424e-08
3.95192e-08
4.06125e-08
4.16832e-08
4.27022e-08
4.36331e-08
4.44313e-08
4.50374e-08
4.53492e-08
4.54095e-08
4.51211e-08
4.43966e-08
4.32003e-08
4.15095e-08
3.9323e-08
3.66692e-08
3.36107e-08
3.02458e-08
2.67069e-08
2.31548e-08
1.97718e-08
1.67584e-08
1.43442e-08
1.29012e-08
1.29109e-08
1.61692e-08
3.27121e-08
1.63644e-08
7.84089e-09
5.63429e-09
4.77447e-09
4.44676e-09
4.40107e-09
4.53266e-09
4.78613e-09
5.12663e-09
5.53007e-09
5.97894e-09
6.46047e-09
6.96564e-09
7.48864e-09
8.02636e-09
8.57792e-09
9.14424e-09
9.72759e-09
1.03312e-08
1.09587e-08
1.16142e-08
1.23015e-08
1.30241e-08
1.3785e-08
1.45865e-08
1.543e-08
1.63157e-08
1.72429e-08
1.82097e-08
1.92128e-08
2.0248e-08
2.13097e-08
2.23917e-08
2.34873e-08
2.45894e-08
2.56914e-08
2.67873e-08
2.78728e-08
2.89452e-08
3.00041e-08
3.10515e-08
3.20915e-08
3.31304e-08
3.41759e-08
3.52359e-08
3.63179e-08
3.74273e-08
3.85661e-08
3.97318e-08
4.09161e-08
4.21039e-08
4.32724e-08
4.43905e-08
4.54203e-08
4.63157e-08
4.70191e-08
4.74251e-08
4.75506e-08
4.73476e-08
4.66924e-08
4.55499e-08
4.38926e-08
4.1713e-08
3.90322e-08
3.59059e-08
3.2428e-08
2.87311e-08
2.49823e-08
2.13774e-08
1.81372e-08
1.55177e-08
1.39319e-08
1.39003e-08
1.73584e-08
3.50738e-08
1.7777e-08
8.50828e-09
6.09618e-09
5.14324e-09
4.76589e-09
4.69365e-09
4.81279e-09
5.06388e-09
5.4093e-09
5.82301e-09
6.28607e-09
6.78464e-09
7.30899e-09
7.8528e-09
8.41265e-09
8.98753e-09
9.57832e-09
1.01873e-08
1.08177e-08
1.14732e-08
1.21578e-08
1.28753e-08
1.36289e-08
1.44214e-08
1.52548e-08
1.61299e-08
1.70467e-08
1.80038e-08
1.89986e-08
2.00274e-08
2.10853e-08
2.21665e-08
2.32645e-08
2.43724e-08
2.54835e-08
2.65919e-08
2.76925e-08
2.87823e-08
2.98603e-08
3.09277e-08
3.19884e-08
3.30486e-08
3.41159e-08
3.51991e-08
3.63067e-08
3.74463e-08
3.86224e-08
3.9836e-08
4.10829e-08
4.2353e-08
4.36292e-08
4.48868e-08
4.60935e-08
4.72102e-08
4.819e-08
4.89758e-08
4.94666e-08
4.9647e-08
4.95211e-08
4.89316e-08
4.78438e-08
4.62261e-08
4.40649e-08
4.13731e-08
3.81984e-08
3.46277e-08
3.07907e-08
2.6858e-08
2.30371e-08
1.95684e-08
1.67357e-08
1.49944e-08
1.49093e-08
1.85567e-08
3.74414e-08
1.92364e-08
9.19772e-09
6.57357e-09
5.52513e-09
5.09756e-09
4.99925e-09
5.10695e-09
5.35697e-09
5.70871e-09
6.13404e-09
6.6125e-09
7.12912e-09
7.6734e-09
8.23851e-09
8.82077e-09
9.41904e-09
1.00342e-08
1.06684e-08
1.13251e-08
1.2008e-08
1.27208e-08
1.34674e-08
1.42507e-08
1.50734e-08
1.59369e-08
1.68417e-08
1.77873e-08
1.87718e-08
1.97921e-08
2.0844e-08
2.19221e-08
2.30205e-08
2.41324e-08
2.52513e-08
2.63709e-08
2.74859e-08
2.85928e-08
2.96896e-08
3.0777e-08
3.18582e-08
3.29386e-08
3.40257e-08
3.51285e-08
3.62562e-08
3.74175e-08
3.86192e-08
3.98649e-08
4.11539e-08
4.24802e-08
4.38317e-08
4.51894e-08
4.65273e-08
4.78117e-08
4.90032e-08
5.00545e-08
5.09091e-08
5.14727e-08
5.16997e-08
5.16397e-08
5.111e-08
5.00749e-08
4.84998e-08
4.63652e-08
4.36762e-08
4.0471e-08
3.6828e-08
3.28707e-08
2.877e-08
2.47423e-08
2.10468e-08
1.79953e-08
1.6088e-08
1.59379e-08
1.97649e-08
3.98164e-08
2.07429e-08
9.90925e-09
7.06633e-09
5.91985e-09
5.44134e-09
5.3173e-09
5.41442e-09
5.66451e-09
6.0238e-09
6.4619e-09
6.95673e-09
7.49214e-09
8.05683e-09
8.64349e-09
9.24815e-09
9.86957e-09
1.05086e-08
1.11676e-08
1.18498e-08
1.25591e-08
1.32991e-08
1.40735e-08
1.48852e-08
1.57363e-08
1.66282e-08
1.75608e-08
1.85331e-08
1.95428e-08
2.05864e-08
2.16592e-08
2.27557e-08
2.38696e-08
2.49945e-08
2.6124e-08
2.72527e-08
2.83762e-08
2.94921e-08
3.06e-08
3.17022e-08
3.28034e-08
3.39104e-08
3.50319e-08
3.61773e-08
3.73562e-08
3.85768e-08
3.98447e-08
4.1162e-08
4.25264e-08
4.39297e-08
4.5358e-08
4.67906e-08
4.82002e-08
4.95524e-08
5.08077e-08
5.19183e-08
5.2829e-08
5.34532e-08
5.372e-08
5.37121e-08
5.32341e-08
5.22465e-08
5.07128e-08
4.86088e-08
4.59321e-08
4.27115e-08
3.9015e-08
3.49577e-08
3.07072e-08
2.64851e-08
2.25676e-08
1.92944e-08
1.7212e-08
1.69866e-08
2.09841e-08
4.22014e-08
2.22966e-08
1.06429e-08
7.57435e-09
6.32716e-09
5.79687e-09
5.64731e-09
5.73457e-09
5.98573e-09
6.35362e-09
6.80545e-09
7.31739e-09
7.8721e-09
8.45743e-09
9.0656e-09
9.6924e-09
1.03365e-08
1.09988e-08
1.16817e-08
1.23885e-08
1.31231e-08
1.38891e-08
1.46899e-08
1.55284e-08
1.64065e-08
1.73249e-08
1.82835e-08
1.92807e-08
2.03138e-08
2.1379e-08
2.24712e-08
2.35849e-08
2.47138e-08
2.58516e-08
2.69928e-08
2.81325e-08
2.92675e-08
3.03966e-08
3.1521e-08
3.26443e-08
3.37725e-08
3.49136e-08
3.60771e-08
3.72725e-08
3.8509e-08
3.97939e-08
4.11316e-08
4.25224e-08
4.39618e-08
4.544e-08
4.6941e-08
4.84427e-08
4.99168e-08
5.13284e-08
5.2638e-08
5.37976e-08
5.47528e-08
5.54251e-08
5.57288e-08
5.57553e-08
5.53194e-08
5.43706e-08
5.28727e-08
5.07979e-08
4.8138e-08
4.49126e-08
4.11787e-08
3.70407e-08
3.26592e-08
2.82577e-08
2.41257e-08
2.06306e-08
1.83661e-08
1.80559e-08
2.22155e-08
4.45989e-08
2.38977e-08
1.13985e-08
8.09751e-09
6.74685e-09
6.16384e-09
5.98887e-09
6.06685e-09
6.31994e-09
6.6973e-09
7.16362e-09
7.69322e-09
8.26749e-09
8.87346e-09
9.50286e-09
1.01513e-08
1.08174e-08
1.15021e-08
1.22079e-08
1.29383e-08
1.36969e-08
1.44876e-08
1.53136e-08
1.61774e-08
1.70809e-08
1.80244e-08
1.90074e-08
2.0028e-08
2.10832e-08
2.21688e-08
2.32798e-08
2.44104e-08
2.55546e-08
2.67067e-08
2.78616e-08
2.90155e-08
3.01662e-08
3.13139e-08
3.24611e-08
3.36127e-08
3.47757e-08
3.5959e-08
3.71721e-08
3.84247e-08
3.9725e-08
4.10793e-08
4.24901e-08
4.3956e-08
4.54705e-08
4.70219e-08
4.85925e-08
5.0159e-08
5.16922e-08
5.3157e-08
5.45137e-08
5.57144e-08
5.67053e-08
5.74147e-08
5.77473e-08
5.77958e-08
5.73895e-08
5.64676e-08
5.49951e-08
5.29426e-08
5.02976e-08
4.70721e-08
4.33124e-08
3.91105e-08
3.4617e-08
3.00525e-08
2.57164e-08
2.20016e-08
1.95496e-08
1.91466e-08
2.34603e-08
4.70118e-08
2.55461e-08
1.21762e-08
8.63571e-09
7.17872e-09
6.54197e-09
6.34158e-09
6.41079e-09
6.66651e-09
7.05408e-09
7.53545e-09
8.08303e-09
8.6769e-09
9.30326e-09
9.95341e-09
1.06228e-08
1.131e-08
1.20161e-08
1.27438e-08
1.34964e-08
1.42779e-08
1.5092e-08
1.59418e-08
1.68298e-08
1.77573e-08
1.87246e-08
1.97308e-08
2.07739e-08
2.18504e-08
2.29561e-08
2.40859e-08
2.52342e-08
2.63954e-08
2.75641e-08
2.8736e-08
2.99084e-08
3.10803e-08
3.2253e-08
3.34302e-08
3.46179e-08
3.58239e-08
3.70574e-08
3.83281e-08
3.9645e-08
4.10152e-08
4.24436e-08
4.39309e-08
4.54739e-08
4.70641e-08
4.86879e-08
5.03264e-08
5.19552e-08
5.35442e-08
5.50583e-08
5.64577e-08
5.76943e-08
5.87148e-08
5.94518e-08
5.9804e-08
5.98651e-08
5.94742e-08
5.85645e-08
5.71028e-08
5.50598e-08
5.24211e-08
4.91934e-08
4.54135e-08
4.11606e-08
3.65724e-08
3.18622e-08
2.73346e-08
2.34049e-08
2.07621e-08
2.02592e-08
2.47199e-08
4.94429e-08
2.72417e-08
1.29759e-08
9.18882e-09
7.6226e-09
6.931e-09
6.70512e-09
6.76592e-09
7.02487e-09
7.42319e-09
7.92e-09
8.48569e-09
9.09898e-09
9.74528e-09
1.04155e-08
1.11049e-08
1.18122e-08
1.25387e-08
1.3287e-08
1.40608e-08
1.4864e-08
1.57003e-08
1.65727e-08
1.74837e-08
1.84342e-08
1.94245e-08
2.04534e-08
2.15185e-08
2.26163e-08
2.37426e-08
2.48923e-08
2.606e-08
2.72405e-08
2.84293e-08
2.96228e-08
3.08192e-08
3.20187e-08
3.32236e-08
3.44387e-08
3.56708e-08
3.69283e-08
3.82204e-08
3.95564e-08
4.09445e-08
4.23906e-08
4.38978e-08
4.54653e-08
4.70876e-08
4.87548e-08
5.04517e-08
5.21579e-08
5.38482e-08
5.54921e-08
5.7054e-08
5.84944e-08
5.97645e-08
6.08113e-08
6.15682e-08
6.19317e-08
6.19975e-08
6.16076e-08
6.06936e-08
5.92243e-08
5.71727e-08
5.45248e-08
5.1285e-08
4.74834e-08
4.3187e-08
3.85185e-08
3.36797e-08
2.89749e-08
2.48377e-08
2.20026e-08
2.13941e-08
2.59954e-08
5.18944e-08
2.89845e-08
1.37974e-08
9.7567e-09
8.07829e-09
7.33069e-09
7.07917e-09
7.13184e-09
7.39446e-09
7.80395e-09
8.31639e-09
8.9001e-09
9.53244e-09
1.0198e-08
1.08874e-08
1.15959e-08
1.23222e-08
1.30678e-08
1.38356e-08
1.46294e-08
1.54532e-08
1.63107e-08
1.7205e-08
1.81381e-08
1.91112e-08
2.01241e-08
2.11755e-08
2.22629e-08
2.33828e-08
2.45309e-08
2.57025e-08
2.68924e-08
2.80959e-08
2.93093e-08
3.05298e-08
3.17566e-08
3.29909e-08
3.4236e-08
3.54975e-08
3.67827e-08
3.81003e-08
3.94592e-08
4.08682e-08
4.23343e-08
4.38621e-08
4.5453e-08
4.71044e-08
4.88091e-08
5.05554e-08
5.23269e-08
5.41022e-08
5.58552e-08
5.7555e-08
5.91659e-08
6.0648e-08
6.1952e-08
6.30246e-08
6.37966e-08
6.4165e-08
6.42291e-08
6.38265e-08
6.28907e-08
6.1393e-08
5.93098e-08
5.66306e-08
5.33612e-08
4.95283e-08
4.51889e-08
4.04503e-08
3.54986e-08
3.06318e-08
2.62965e-08
2.32698e-08
2.25515e-08
2.72875e-08
5.43681e-08
3.07742e-08
1.46406e-08
1.03392e-08
8.54562e-09
7.74081e-09
7.46343e-09
7.50814e-09
7.77476e-09
8.19565e-09
8.72374e-09
9.3252e-09
9.97604e-09
1.06601e-08
1.13677e-08
1.20941e-08
1.28383e-08
1.36019e-08
1.43881e-08
1.52009e-08
1.60444e-08
1.69224e-08
1.78379e-08
1.87929e-08
1.97884e-08
2.0824e-08
2.18985e-08
2.30093e-08
2.41529e-08
2.53251e-08
2.65214e-08
2.77372e-08
2.89685e-08
3.02119e-08
3.14659e-08
3.27303e-08
3.40073e-08
3.5301e-08
3.66177e-08
3.79648e-08
3.9351e-08
4.0785e-08
4.22744e-08
4.38252e-08
4.54405e-08
4.71199e-08
4.88592e-08
5.06497e-08
5.24781e-08
5.4327e-08
5.6174e-08
5.79926e-08
5.97514e-08
6.14145e-08
6.29414e-08
6.42823e-08
6.53826e-08
6.61683e-08
6.65378e-08
6.65954e-08
6.6168e-08
6.51935e-08
6.36451e-08
6.15039e-08
5.87656e-08
5.54413e-08
5.15588e-08
4.71689e-08
4.23643e-08
3.73126e-08
3.22993e-08
2.77774e-08
2.4562e-08
2.3731e-08
2.85968e-08
5.68653e-08
3.26105e-08
1.55053e-08
1.09361e-08
9.02438e-09
8.16112e-09
7.8576e-09
7.89444e-09
8.16526e-09
8.59763e-09
9.14122e-09
9.75998e-09
1.04286e-08
1.11302e-08
1.18549e-08
1.25981e-08
1.3359e-08
1.41395e-08
1.49432e-08
1.57742e-08
1.66369e-08
1.7535e-08
1.84715e-08
1.94485e-08
2.04668e-08
2.15261e-08
2.2625e-08
2.37609e-08
2.49306e-08
2.613e-08
2.7355e-08
2.86015e-08
2.98659e-08
3.11459e-08
3.24404e-08
3.37503e-08
3.50785e-08
3.64297e-08
3.78103e-08
3.92283e-08
4.06917e-08
4.22087e-08
4.37858e-08
4.54278e-08
4.71361e-08
4.8909e-08
5.07405e-08
5.26205e-08
5.45346e-08
5.64644e-08
5.83871e-08
6.02754e-08
6.20977e-08
6.38178e-08
6.53948e-08
6.67775e-08
6.79101e-08
6.87117e-08
6.90816e-08
6.91297e-08
6.86683e-08
6.76399e-08
6.60187e-08
6.3791e-08
6.0961e-08
5.75494e-08
5.35904e-08
4.91336e-08
4.42599e-08
3.91168e-08
3.39716e-08
2.92759e-08
2.58769e-08
2.49319e-08
2.99232e-08
5.9386e-08
3.44929e-08
1.63914e-08
1.15473e-08
9.51438e-09
8.59139e-09
8.26138e-09
8.29035e-09
8.56543e-09
9.00922e-09
9.56798e-09
1.02034e-08
1.08889e-08
1.16071e-08
1.23478e-08
1.31066e-08
1.38831e-08
1.46796e-08
1.55e-08
1.63487e-08
1.72303e-08
1.81485e-08
1.91064e-08
2.01061e-08
2.11483e-08
2.22328e-08
2.33582e-08
2.4522e-08
2.57211e-08
2.69518e-08
2.82102e-08
2.94929e-08
3.07969e-08
3.21205e-08
3.34635e-08
3.48273e-08
3.62154e-08
3.7633e-08
3.90868e-08
4.05843e-08
4.21332e-08
4.37408e-08
4.54127e-08
4.71519e-08
4.89589e-08
5.083e-08
5.2758e-08
5.47316e-08
5.67354e-08
5.87503e-08
6.0753e-08
6.27161e-08
6.46076e-08
6.63909e-08
6.80245e-08
6.94561e-08
7.06277e-08
7.14509e-08
7.18237e-08
7.18619e-08
7.1361e-08
7.02661e-08
6.85516e-08
6.62087e-08
6.32514e-08
5.9714e-08
5.5643e-08
5.10935e-08
4.6139e-08
4.09074e-08
3.56428e-08
3.07871e-08
2.72115e-08
2.6153e-08
3.12661e-08
6.19295e-08
3.6421e-08
1.72984e-08
1.21726e-08
1.00154e-08
9.03136e-09
8.67448e-09
8.69547e-09
8.97476e-09
9.42977e-09
1.00032e-08
1.06546e-08
1.1356e-08
1.20896e-08
1.28451e-08
1.36184e-08
1.44097e-08
1.52215e-08
1.60582e-08
1.69245e-08
1.78251e-08
1.87639e-08
1.97442e-08
2.07679e-08
2.18358e-08
2.29479e-08
2.41026e-08
2.52977e-08
2.65304e-08
2.77972e-08
2.90948e-08
3.04201e-08
3.17709e-08
3.31459e-08
3.45457e-08
3.59722e-08
3.74293e-08
3.89225e-08
4.04582e-08
4.20438e-08
4.36862e-08
4.53918e-08
4.71649e-08
4.90073e-08
5.0918e-08
5.28919e-08
5.49207e-08
5.69919e-08
5.90896e-08
6.1194e-08
6.32816e-08
6.53249e-08
6.72916e-08
6.91451e-08
7.0843e-08
7.23315e-08
7.35506e-08
7.44048e-08
7.47865e-08
7.48166e-08
7.42749e-08
7.31054e-08
7.12802e-08
6.87945e-08
6.56732e-08
6.1967e-08
5.7741e-08
5.30631e-08
4.80067e-08
4.26823e-08
3.73074e-08
3.23056e-08
2.85623e-08
2.73923e-08
3.26245e-08
6.44941e-08
3.83941e-08
1.82262e-08
1.28116e-08
1.05272e-08
9.48079e-09
9.09656e-09
9.1094e-09
9.39274e-09
9.8586e-09
1.04461e-08
1.11126e-08
1.18289e-08
1.25767e-08
1.33459e-08
1.41329e-08
1.49381e-08
1.57649e-08
1.66178e-08
1.7502e-08
1.84223e-08
1.93829e-08
2.0387e-08
2.14367e-08
2.2533e-08
2.36756e-08
2.48634e-08
2.60943e-08
2.73656e-08
2.86743e-08
3.00175e-08
3.13926e-08
3.27979e-08
3.42328e-08
3.56981e-08
3.71963e-08
3.87316e-08
4.03093e-08
4.19358e-08
4.36176e-08
4.53612e-08
4.71716e-08
4.9052e-08
5.10031e-08
5.30221e-08
5.51031e-08
5.72366e-08
5.94093e-08
6.16047e-08
6.38028e-08
6.598e-08
6.81089e-08
7.01572e-08
7.20878e-08
7.38581e-08
7.54125e-08
7.66886e-08
7.7586e-08
7.79859e-08
7.80127e-08
7.74337e-08
7.61861e-08
7.42374e-08
7.15849e-08
6.82636e-08
6.4343e-08
5.99125e-08
5.50614e-08
4.98715e-08
4.44416e-08
3.89605e-08
3.38254e-08
2.99251e-08
2.86474e-08
3.39965e-08
6.70767e-08
4.04116e-08
1.91743e-08
1.3464e-08
1.10495e-08
9.93941e-09
9.5273e-09
9.53176e-09
9.81885e-09
1.02951e-08
1.0896e-08
1.15765e-08
1.23066e-08
1.30675e-08
1.38496e-08
1.46494e-08
1.54683e-08
1.63099e-08
1.71794e-08
1.80822e-08
1.90235e-08
2.00077e-08
2.10379e-08
2.21165e-08
2.32444e-08
2.44216e-08
2.5647e-08
2.69188e-08
2.82346e-08
2.95918e-08
3.09879e-08
3.24206e-08
3.38888e-08
3.53923e-08
3.69322e-08
3.85114e-08
4.01339e-08
4.18051e-08
4.35307e-08
4.53166e-08
4.71684e-08
4.909e-08
5.10834e-08
5.31478e-08
5.52795e-08
5.74713e-08
5.97128e-08
6.19903e-08
6.42868e-08
6.65823e-08
6.88534e-08
7.10726e-08
7.32082e-08
7.52228e-08
7.70732e-08
7.87027e-08
8.0046e-08
8.1001e-08
8.14316e-08
8.14625e-08
8.08544e-08
7.95309e-08
7.74518e-08
7.46133e-08
7.10588e-08
6.68778e-08
6.21886e-08
5.71111e-08
5.17458e-08
4.61876e-08
4.05982e-08
3.53407e-08
3.12951e-08
2.9915e-08
3.53797e-08
6.96731e-08
4.24725e-08
2.01424e-08
1.41297e-08
1.1582e-08
1.0407e-08
9.9663e-09
9.96213e-09
1.02526e-08
1.07386e-08
1.13519e-08
1.20456e-08
1.27883e-08
1.35614e-08
1.43555e-08
1.51678e-08
1.60002e-08
1.68571e-08
1.77441e-08
1.8667e-08
1.96313e-08
2.06415e-08
2.17009e-08
2.28119e-08
2.39756e-08
2.51922e-08
2.64607e-08
2.77795e-08
2.91466e-08
3.05596e-08
3.20163e-08
3.35152e-08
3.50551e-08
3.66363e-08
3.82602e-08
3.99295e-08
4.16484e-08
4.34216e-08
4.52544e-08
4.71518e-08
4.91183e-08
5.11568e-08
5.3268e-08
5.54499e-08
5.76977e-08
6.00033e-08
6.23556e-08
6.47404e-08
6.71406e-08
6.95364e-08
7.19045e-08
7.42182e-08
7.64458e-08
7.85503e-08
8.0488e-08
8.22013e-08
8.3622e-08
8.46499e-08
8.51262e-08
8.51712e-08
8.45471e-08
8.31556e-08
8.09458e-08
7.79087e-08
7.40929e-08
6.96072e-08
6.46028e-08
5.92384e-08
5.36454e-08
4.79257e-08