/*--------------------------------*- C++ -*----------------------------------*\
  =========                 |
  \\      /  F ield         | OpenFOAM: The Open Source CFD Toolbox
   \\    /   O peration     | Website:  https://openfoam.org
    \\  /    A nd           | Version:  12
     \\/     M anipulation  |
\*---------------------------------------------------------------------------*/
FoamFile
{
    format      ascii;
    class       volScalarField;
    location    "6";
    object      k;
}
// * * * * * * * * * * * * * * * * * * * * * * * * * * * * * * * * * * * * * //

dimensions      [0 2 -2 0 0 0 0];

internalField   nonuniform List<scalar> 
5625
(
5.35928e-14
3.62246e-13
8.03447e-13
1.32274e-12
1.89219e-12
2.49258e-12
3.10899e-12
3.7294e-12
4.34409e-12
4.9454e-12
5.52761e-12
6.08684e-12
6.62098e-12
7.12952e-12
7.61343e-12
8.0749e-12
8.51713e-12
8.94406e-12
9.36013e-12
9.77008e-12
1.01787e-11
1.05907e-11
1.10107e-11
1.14429e-11
1.18912e-11
1.23593e-11
1.28502e-11
1.3367e-11
1.39121e-11
1.44876e-11
1.50956e-11
1.57375e-11
1.64146e-11
1.71278e-11
1.78776e-11
1.86643e-11
1.94876e-11
2.03467e-11
2.124e-11
2.21655e-11
2.312e-11
2.40992e-11
2.50976e-11
2.61082e-11
2.71219e-11
2.81278e-11
2.91123e-11
3.00595e-11
3.09502e-11
3.17626e-11
3.24717e-11
3.30491e-11
3.3461e-11
3.36636e-11
3.36762e-11
3.34395e-11
3.29235e-11
3.211e-11
3.09904e-11
2.95667e-11
2.78536e-11
2.58793e-11
2.36851e-11
2.13241e-11
1.8858e-11
1.63525e-11
1.38725e-11
1.14772e-11
9.21644e-12
7.12791e-12
5.23764e-12
3.56313e-12
2.12109e-12
9.44973e-13
1.39447e-13
4.0498e-13
3.22579e-12
7.20866e-12
1.18875e-11
1.70155e-11
2.24207e-11
2.79693e-11
3.35532e-11
3.90852e-11
4.44964e-11
4.97352e-11
5.47669e-11
5.95723e-11
6.41472e-11
6.85002e-11
7.2651e-11
7.66285e-11
8.04683e-11
8.42103e-11
8.78972e-11
9.15722e-11
9.52779e-11
9.90551e-11
1.02942e-10
1.06975e-10
1.11184e-10
1.156e-10
1.20249e-10
1.25152e-10
1.30329e-10
1.35798e-10
1.41572e-10
1.47663e-10
1.54079e-10
1.60824e-10
1.67901e-10
1.75308e-10
1.83036e-10
1.91073e-10
1.99399e-10
2.07986e-10
2.16796e-10
2.2578e-10
2.34873e-10
2.43995e-10
2.53047e-10
2.61909e-10
2.70434e-10
2.78454e-10
2.8577e-10
2.92158e-10
2.97362e-10
3.01081e-10
3.02902e-10
3.03011e-10
3.00871e-10
2.96215e-10
2.88881e-10
2.78793e-10
2.6597e-10
2.50545e-10
2.32771e-10
2.13021e-10
1.91774e-10
1.69583e-10
1.4704e-10
1.24729e-10
1.03182e-10
8.28467e-11
6.40613e-11
4.7059e-11
3.19951e-11
1.90158e-11
8.40875e-12
1.05313e-12
8.59756e-13
7.36262e-12
1.65609e-11
2.73673e-11
3.92089e-11
5.16883e-11
6.44968e-11
7.7385e-11
9.01514e-11
1.02637e-10
1.14723e-10
1.26329e-10
1.37411e-10
1.4796e-10
1.57996e-10
1.67564e-10
1.76733e-10
1.85583e-10
1.94209e-10
2.02708e-10
2.11181e-10
2.19726e-10
2.28437e-10
2.37404e-10
2.46708e-10
2.56422e-10
2.66615e-10
2.77345e-10
2.88665e-10
3.0062e-10
3.1325e-10
3.26586e-10
3.40656e-10
3.55477e-10
3.71061e-10
3.87413e-10
4.04525e-10
4.22381e-10
4.40951e-10
4.60188e-10
4.80026e-10
5.00378e-10
5.21127e-10
5.42124e-10
5.63183e-10
5.84074e-10
6.04516e-10
6.24174e-10
6.42655e-10
6.59501e-10
6.74196e-10
6.86155e-10
6.94673e-10
6.98763e-10
6.98993e-10
6.94011e-10
6.83215e-10
6.66241e-10
6.42913e-10
6.13278e-10
5.7764e-10
5.36586e-10
4.90979e-10
4.41925e-10
3.90705e-10
3.38685e-10
2.87216e-10
2.37526e-10
1.90645e-10
1.47352e-10
1.08179e-10
7.34774e-11
4.35781e-11
1.91461e-11
2.2302e-12
1.40543e-12
1.23347e-11
2.78791e-11
4.6165e-11
6.62073e-11
8.73278e-11
1.09002e-10
1.30808e-10
1.52403e-10
1.73519e-10
1.93953e-10
2.13572e-10
2.323e-10
2.50123e-10
2.67075e-10
2.83236e-10
2.98719e-10
3.13666e-10
3.28233e-10
3.42589e-10
3.56903e-10
3.71343e-10
3.86069e-10
4.01231e-10
4.16966e-10
4.33402e-10
4.5065e-10
4.68813e-10
4.87978e-10
5.08222e-10
5.29611e-10
5.52199e-10
5.76031e-10
6.01138e-10
6.27538e-10
6.55237e-10
6.84224e-10
7.14467e-10
7.45914e-10
7.78483e-10
8.12062e-10
8.46498e-10
8.81593e-10
9.17092e-10
9.52678e-10
9.87959e-10
1.02246e-09
1.05562e-09
1.08677e-09
1.11513e-09
1.13986e-09
1.15996e-09
1.17423e-09
1.18094e-09
1.1813e-09
1.1728e-09
1.15448e-09
1.12571e-09
1.08621e-09
1.03605e-09
9.7573e-10
9.06245e-10
8.29055e-10
7.46035e-10
6.59361e-10
5.71359e-10
4.84321e-10
4.00335e-10
3.21142e-10
2.48055e-10
1.81962e-10
1.23446e-10
7.30582e-11
3.19425e-11
3.6301e-12
2.02489e-12
1.79494e-11
4.07101e-11
6.7533e-11
9.69478e-11
1.27948e-10
1.59758e-10
1.91756e-10
2.23437e-10
2.54407e-10
2.84369e-10
3.13125e-10
3.40568e-10
3.66675e-10
3.91501e-10
4.15163e-10
4.3783e-10
4.59712e-10
4.81041e-10
5.02065e-10
5.23035e-10
5.44196e-10
5.65785e-10
5.88021e-10
6.11108e-10
6.35231e-10
6.60554e-10
6.87227e-10
7.15377e-10
7.45118e-10
7.76544e-10
8.09734e-10
8.44752e-10
8.81641e-10
9.20425e-10
9.61111e-10
1.00368e-09
1.04807e-09
1.09421e-09
1.14198e-09
1.19119e-09
1.24163e-09
1.29299e-09
1.34491e-09
1.39691e-09
1.44841e-09
1.49874e-09
1.54705e-09
1.5924e-09
1.63366e-09
1.66959e-09
1.69879e-09
1.71944e-09
1.729e-09
1.72949e-09
1.71702e-09
1.69017e-09
1.64806e-09
1.59023e-09
1.51677e-09
1.42839e-09
1.32653e-09
1.21333e-09
1.09153e-09
9.64367e-10
8.35269e-10
7.07633e-10
5.84546e-10
4.68574e-10
3.61639e-10
2.65029e-10
1.79572e-10
1.06067e-10
4.62089e-11
5.19881e-12
2.7062e-12
2.41027e-11
5.48015e-11
9.1045e-11
1.30819e-10
1.72746e-10
2.15767e-10
2.59035e-10
3.01865e-10
3.43719e-10
3.84198e-10
4.23032e-10
4.60078e-10
4.95308e-10
5.28798e-10
5.6071e-10
5.91278e-10
6.20787e-10
6.49555e-10
6.7792e-10
7.06222e-10
7.34796e-10
7.6396e-10
7.94014e-10
8.25231e-10
8.57861e-10
8.92127e-10
9.28226e-10
9.66333e-10
1.0066e-09
1.04914e-09
1.09407e-09
1.14147e-09
1.19139e-09
1.24385e-09
1.29886e-09
1.35638e-09
1.41633e-09
1.47859e-09
1.54298e-09
1.60926e-09
1.67712e-09
1.74614e-09
1.81582e-09
1.88553e-09
1.95449e-09
2.02179e-09
2.08634e-09
2.14687e-09
2.2019e-09
2.24979e-09
2.28872e-09
2.31618e-09
2.32877e-09
2.32947e-09
2.31279e-09
2.27681e-09
2.22032e-09
2.14266e-09
2.04388e-09
1.9249e-09
1.78761e-09
1.63487e-09
1.47042e-09
1.29864e-09
1.12423e-09
9.51835e-10
7.85685e-10
6.29277e-10
4.85213e-10
3.55215e-10
2.4037e-10
1.4173e-10
6.15816e-11
6.89539e-12
3.44168e-12
3.0732e-11
6.99987e-11
1.16435e-10
1.67435e-10
2.2121e-10
2.76391e-10
3.31879e-10
3.86793e-10
4.40437e-10
4.92296e-10
5.42026e-10
5.89444e-10
6.34518e-10
6.7735e-10
7.18153e-10
7.57232e-10
7.94958e-10
8.31744e-10
8.68026e-10
9.04245e-10
9.40829e-10
9.7819e-10
1.01671e-09
1.05674e-09
1.09859e-09
1.14256e-09
1.18889e-09
1.23779e-09
1.28947e-09
1.34406e-09
1.4017e-09
1.46248e-09
1.52645e-09
1.59365e-09
1.66405e-09
1.7376e-09
1.81417e-09
1.8936e-09
1.97564e-09
2.05997e-09
2.14618e-09
2.23373e-09
2.32198e-09
2.41013e-09
2.49721e-09
2.58209e-09
2.66342e-09
2.73961e-09
2.80886e-09
2.86912e-09
2.91813e-09
2.95272e-09
2.96855e-09
2.96963e-09
2.94876e-09
2.90339e-09
2.83197e-09
2.73357e-09
2.60815e-09
2.45676e-09
2.28176e-09
2.08677e-09
1.87657e-09
1.65682e-09
1.43362e-09
1.21301e-09
1.00049e-09
8.00594e-10
6.16691e-10
4.50968e-10
3.04779e-10
1.79432e-10
7.78042e-11
8.69038e-12
4.22641e-12
3.7797e-11
8.62022e-11
1.43528e-10
2.06537e-10
2.72998e-10
3.41199e-10
4.09772e-10
4.77615e-10
5.43866e-10
6.07882e-10
6.69237e-10
7.27709e-10
7.83262e-10
8.36029e-10
8.8628e-10
9.34401e-10
9.80856e-10
1.02616e-09
1.07087e-09
1.11551e-09
1.16063e-09
1.20674e-09
1.25429e-09
1.30373e-09
1.35545e-09
1.40978e-09
1.46704e-09
1.52747e-09
1.59131e-09
1.65874e-09
1.72989e-09
1.80487e-09
1.88372e-09
1.96646e-09
2.05305e-09
2.14339e-09
2.23731e-09
2.33457e-09
2.43487e-09
2.53777e-09
2.64277e-09
2.74921e-09
2.85631e-09
2.9631e-09
3.06846e-09
3.17102e-09
3.26919e-09
3.36112e-09
3.44467e-09
3.51742e-09
3.57668e-09
3.61864e-09
3.63795e-09
3.63965e-09
3.6148e-09
3.56012e-09
3.47363e-09
3.35408e-09
3.20125e-09
3.01632e-09
2.80206e-09
2.56286e-09
2.30461e-09
2.0343e-09
1.75954e-09
1.48792e-09
1.22631e-09
9.80423e-10
7.54449e-10
5.51096e-10
3.71995e-10
2.18709e-10
9.4684e-11
1.0561e-11
5.05716e-12
4.52707e-11
1.03346e-10
1.72209e-10
2.47953e-10
3.27874e-10
4.09895e-10
4.92352e-10
5.73909e-10
6.53516e-10
7.30399e-10
8.04043e-10
8.74183e-10
9.40782e-10
1.00401e-09
1.0642e-09
1.12183e-09
1.17746e-09
1.23173e-09
1.28529e-09
1.33881e-09
1.39293e-09
1.44826e-09
1.50535e-09
1.56474e-09
1.62686e-09
1.69214e-09
1.76091e-09
1.8335e-09
1.91013e-09
1.99102e-09
2.07631e-09
2.1661e-09
2.26043e-09
2.35927e-09
2.46256e-09
2.57013e-09
2.68176e-09
2.79715e-09
2.91588e-09
3.03745e-09
3.16123e-09
3.28645e-09
3.4122e-09
3.53738e-09
3.6607e-09
3.78062e-09
3.89534e-09
4.00275e-09
4.10043e-09
4.18559e-09
4.25509e-09
4.30457e-09
4.3276e-09
4.33019e-09
4.30168e-09
4.23792e-09
4.13648e-09
3.99572e-09
3.81522e-09
3.5962e-09
3.34182e-09
3.05721e-09
2.74938e-09
2.42673e-09
2.09843e-09
1.77368e-09
1.46089e-09
1.16701e-09
8.97168e-10
6.5465e-10
4.41389e-10
2.59199e-10
1.12069e-10
1.24895e-11
5.93183e-12
5.31349e-11
1.21386e-10
2.02398e-10
2.91563e-10
3.85678e-10
4.82272e-10
5.79367e-10
6.75372e-10
7.69038e-10
8.59446e-10
9.45987e-10
1.02835e-09
1.10651e-09
1.18066e-09
1.25122e-09
1.31876e-09
1.38396e-09
1.44757e-09
1.51037e-09
1.57316e-09
1.63668e-09
1.70165e-09
1.76872e-09
1.83849e-09
1.91149e-09
1.98819e-09
2.06898e-09
2.1542e-09
2.24412e-09
2.33894e-09
2.43882e-09
2.54383e-09
2.65399e-09
2.76923e-09
2.88942e-09
3.01435e-09
3.14373e-09
3.27715e-09
3.41412e-09
3.55404e-09
3.69618e-09
3.83967e-09
3.9835e-09
4.12645e-09
4.26709e-09
4.40376e-09
4.53446e-09
4.65688e-09
4.76831e-09
4.86561e-09
4.94522e-09
5.00227e-09
5.02917e-09
5.03282e-09
5.00095e-09
4.92838e-09
4.81224e-09
4.65047e-09
4.44238e-09
4.18922e-09
3.89448e-09
3.56403e-09
3.20592e-09
2.82996e-09
2.44692e-09
2.06767e-09
1.70221e-09
1.35885e-09
1.04375e-09
7.60859e-10
5.12455e-10
3.00614e-10
1.29838e-10
1.44622e-11
6.84895e-12
6.13777e-11
1.40294e-10
2.34043e-10
3.37288e-10
4.46298e-10
5.58187e-10
6.7064e-10
7.81791e-10
8.90178e-10
9.94725e-10
1.09473e-09
1.18982e-09
1.27999e-09
1.36548e-09
1.44679e-09
1.52459e-09
1.59969e-09
1.67297e-09
1.74534e-09
1.81772e-09
1.89098e-09
1.96593e-09
2.04334e-09
2.12387e-09
2.20813e-09
2.29663e-09
2.38981e-09
2.48803e-09
2.59157e-09
2.70063e-09
2.81535e-09
2.93578e-09
3.06189e-09
3.19357e-09
3.33061e-09
3.47273e-09
3.61955e-09
3.7706e-09
3.92528e-09
4.08291e-09
4.24269e-09
4.40365e-09
4.5647e-09
4.72455e-09
4.88167e-09
5.03427e-09
5.18023e-09
5.31702e-09
5.44169e-09
5.55075e-09
5.6402e-09
5.70465e-09
5.73538e-09
5.74015e-09
5.70505e-09
5.62385e-09
5.49326e-09
5.31078e-09
5.07548e-09
4.78857e-09
4.45383e-09
4.07778e-09
3.66948e-09
3.24007e-09
2.80189e-09
2.36747e-09
1.94846e-09
1.55463e-09
1.19327e-09
8.69092e-10
5.84786e-10
3.42721e-10
1.47893e-10
1.64677e-11
7.80759e-12
6.99914e-11
1.60051e-10
2.67111e-10
3.85076e-10
5.09661e-10
6.37543e-10
7.66047e-10
8.93013e-10
1.01675e-09
1.13601e-09
1.24999e-09
1.35829e-09
1.46087e-09
1.55806e-09
1.65044e-09
1.7388e-09
1.82407e-09
1.90729e-09
1.98949e-09
2.07173e-09
2.155e-09
2.24023e-09
2.32826e-09
2.41984e-09
2.51564e-09
2.61622e-09
2.72204e-09
2.83348e-09
2.95083e-09
3.07428e-09
3.20392e-09
3.33976e-09
3.48173e-09
3.62964e-09
3.78322e-09
3.9421e-09
4.10582e-09
4.27382e-09
4.44544e-09
4.61992e-09
4.79638e-09
4.97382e-09
5.15109e-09
5.32683e-09
5.49948e-09
5.66713e-09
5.82755e-09
5.97802e-09
6.11532e-09
6.23561e-09
6.33444e-09
6.40588e-09
6.44015e-09
6.4459e-09
6.40744e-09
6.3176e-09
6.17271e-09
5.96989e-09
5.70794e-09
5.38801e-09
5.01414e-09
4.5934e-09
4.13574e-09
3.65351e-09
3.16051e-09
2.67094e-09
2.19809e-09
1.75325e-09
1.34497e-09
9.78836e-10
6.58056e-10
3.85336e-10
1.66154e-10
1.84972e-11
8.80722e-12
7.89714e-11
1.80646e-10
3.01582e-10
4.34894e-10
5.75721e-10
7.20277e-10
8.65504e-10
1.00893e-09
1.14862e-09
1.28314e-09
1.41158e-09
1.53348e-09
1.64885e-09
1.75805e-09
1.86176e-09
1.96092e-09
2.05659e-09
2.14994e-09
2.24219e-09
2.33449e-09
2.42798e-09
2.52369e-09
2.62255e-09
2.72539e-09
2.83292e-09
2.94574e-09
3.06435e-09
3.18911e-09
3.32032e-09
3.45812e-09
3.60258e-09
3.75365e-09
3.91118e-09
4.07492e-09
4.24453e-09
4.41954e-09
4.59941e-09
4.78352e-09
4.97114e-09
5.16146e-09
5.35357e-09
5.54644e-09
5.73888e-09
5.92952e-09
6.11674e-09
6.29858e-09
6.47265e-09
6.63605e-09
6.78527e-09
6.91613e-09
7.02372e-09
7.10141e-09
7.13864e-09
7.14497e-09
7.10271e-09
7.00401e-09
6.84487e-09
6.62205e-09
6.33414e-09
5.98223e-09
5.57053e-09
5.10653e-09
4.60095e-09
4.06718e-09
3.52037e-09
2.97625e-09
2.44976e-09
1.95379e-09
1.49823e-09
1.08969e-09
7.32013e-10
4.28315e-10
1.84561e-10
2.05438e-11
9.84754e-12
8.83154e-11
2.02073e-10
3.37446e-10
4.86725e-10
6.44451e-10
8.06349e-10
9.68957e-10
1.12946e-09
1.28567e-09
1.43596e-09
1.5793e-09
1.71519e-09
1.84364e-09
1.9651e-09
2.08037e-09
2.1905e-09
2.29673e-09
2.40038e-09
2.5028e-09
2.60532e-09
2.70917e-09
2.8155e-09
2.92532e-09
3.03952e-09
3.15888e-09
3.28402e-09
3.41543e-09
3.5535e-09
3.69847e-09
3.85046e-09
4.00949e-09
4.17544e-09
4.34809e-09
4.52711e-09
4.71207e-09
4.90245e-09
5.09762e-09
5.2969e-09
5.49953e-09
5.70467e-09
5.91139e-09
6.11867e-09
6.32531e-09
6.52993e-09
6.73087e-09
6.92606e-09
7.11301e-09
7.28857e-09
7.44896e-09
7.5896e-09
7.70511e-09
7.78799e-09
7.82732e-09
7.83362e-09
7.78678e-09
7.6788e-09
7.50529e-09
7.26279e-09
6.94969e-09
6.56701e-09
6.11906e-09
5.61366e-09
5.06208e-09
4.47858e-09
3.87947e-09
3.28191e-09
2.70242e-09
2.15551e-09
1.65256e-09
1.20134e-09
8.06467e-10
4.71551e-10
2.03066e-10
2.26021e-11
1.09285e-11
9.80227e-11
2.24332e-10
3.74698e-10
5.40562e-10
7.15836e-10
8.95736e-10
1.07637e-09
1.25456e-09
1.42783e-09
1.59437e-09
1.753e-09
1.9032e-09
2.045e-09
2.17892e-09
2.30589e-09
2.42712e-09
2.54401e-09
2.65804e-09
2.77073e-09
2.88353e-09
2.99782e-09
3.11483e-09
3.23567e-09
3.36128e-09
3.49247e-09
3.62989e-09
3.77404e-09
3.92527e-09
4.0838e-09
4.24971e-09
4.42293e-09
4.6033e-09
4.79051e-09
4.98415e-09
5.18373e-09
5.38864e-09
5.59821e-09
5.81174e-09
6.02842e-09
6.24743e-09
6.46785e-09
6.68865e-09
6.90866e-09
7.12649e-09
7.34041e-09
7.54827e-09
7.74736e-09
7.93433e-09
8.10505e-09
8.25454e-09
8.37699e-09
8.46372e-09
8.50404e-09
8.50952e-09
8.45703e-09
8.33914e-09
8.15104e-09
7.88909e-09
7.55156e-09
7.13941e-09
6.65696e-09
6.11223e-09
5.51688e-09
4.88582e-09
4.23631e-09
3.58678e-09
2.95525e-09
2.35788e-09
1.80763e-09
1.31358e-09
8.81287e-10
5.14967e-10
2.21637e-10
2.46683e-11
1.205e-11
1.08094e-10
2.47421e-10
4.13339e-10
5.96403e-10
7.89872e-10
9.88425e-10
1.18771e-09
1.38417e-09
1.57503e-09
1.75824e-09
1.93253e-09
2.09731e-09
2.25265e-09
2.39918e-09
2.53795e-09
2.67034e-09
2.79793e-09
2.92238e-09
3.04535e-09
3.16846e-09
3.2932e-09
3.42089e-09
3.55273e-09
3.68971e-09
3.83267e-09
3.98227e-09
4.13898e-09
4.30315e-09
4.47495e-09
4.65439e-09
4.84136e-09
5.03561e-09
5.23676e-09
5.44433e-09
5.65776e-09
5.87639e-09
6.09954e-09
6.32645e-09
6.55636e-09
6.78845e-09
7.02181e-09
7.25547e-09
7.48824e-09
7.7187e-09
7.94505e-09
8.16499e-09
8.3756e-09
8.57323e-09
8.75339e-09
8.91072e-09
9.03898e-09
9.1281e-09
9.16814e-09
9.1718e-09
9.11244e-09
8.98382e-09
8.78077e-09
8.4995e-09
8.13822e-09
7.69783e-09
7.18263e-09
6.6007e-09
5.96393e-09
5.28765e-09
4.58987e-09
3.89008e-09
3.20771e-09
2.56055e-09
1.96321e-09
1.42628e-09
9.56397e-10
5.5852e-10
2.40251e-10
2.67401e-11
1.32123e-11
1.18529e-10
2.71345e-10
4.53373e-10
6.54252e-10
8.66561e-10
1.08441e-09
1.30296e-09
1.51826e-09
1.72719e-09
1.92749e-09
2.11774e-09
2.29732e-09
2.46635e-09
2.62557e-09
2.77618e-09
2.91973e-09
3.058e-09
3.19283e-09
3.32606e-09
3.45944e-09
3.59457e-09
3.73289e-09
3.87565e-09
4.0239e-09
4.17849e-09
4.34008e-09
4.50914e-09
4.68596e-09
4.87067e-09
5.06323e-09
5.26345e-09
5.47101e-09
5.68548e-09
5.9063e-09
6.13287e-09
6.36451e-09
6.60051e-09
6.84013e-09
7.08263e-09
7.32722e-09
7.57305e-09
7.81913e-09
8.06429e-09
8.30704e-09
8.54545e-09
8.77704e-09
8.99863e-09
9.20622e-09
9.39495e-09
9.55905e-09
9.6919e-09
9.78191e-09
9.82052e-09
9.82104e-09
9.75352e-09
9.61325e-09
9.39479e-09
9.09416e-09
8.70964e-09
8.24206e-09
7.69568e-09
7.07854e-09
6.40261e-09
5.68345e-09
4.93958e-09
4.19136e-09
3.45948e-09
2.76331e-09
2.11921e-09
1.53939e-09
1.03177e-09
6.02192e-10
2.589e-10
2.88163e-11
1.44155e-11
1.29331e-10
2.96107e-10
4.94806e-10
7.14115e-10
9.45905e-10
1.18369e-09
1.42212e-09
1.65679e-09
1.88425e-09
2.10199e-09
2.30846e-09
2.50301e-09
2.68582e-09
2.85775e-09
3.02017e-09
3.17483e-09
3.32371e-09
3.46884e-09
3.61224e-09
3.75578e-09
3.90121e-09
4.05006e-09
4.20362e-09
4.36298e-09
4.52902e-09
4.70238e-09
4.8835e-09
5.07265e-09
5.26989e-09
5.47513e-09
5.68811e-09
5.90846e-09
6.13566e-09
6.36915e-09
6.60827e-09
6.85234e-09
7.10067e-09
7.35254e-09
7.60724e-09
7.86404e-09
8.12211e-09
8.38048e-09
8.63792e-09
8.89285e-09
9.14317e-09
9.38615e-09
9.61829e-09
9.83523e-09
1.00317e-08
1.02015e-08
1.03377e-08
1.04271e-08
1.04638e-08
1.04592e-08
1.03824e-08
1.02295e-08
9.99497e-09
9.67476e-09
9.26722e-09
8.77318e-09
8.19684e-09
7.54616e-09
6.83306e-09
6.07317e-09
5.2853e-09
4.49045e-09
3.71044e-09
2.96611e-09
2.27562e-09
1.65292e-09
1.10742e-09
6.45988e-10
2.77583e-10
3.08967e-11
1.56598e-11
1.40502e-10
3.21709e-10
5.37642e-10
7.75999e-10
1.02791e-09
1.28627e-09
1.54516e-09
1.79972e-09
2.04613e-09
2.28162e-09
2.50452e-09
2.71416e-09
2.91077e-09
3.09536e-09
3.26951e-09
3.43518e-09
3.59454e-09
3.74984e-09
3.90326e-09
4.05684e-09
4.21244e-09
4.37165e-09
4.53585e-09
4.70615e-09
4.88342e-09
5.0683e-09
5.2612e-09
5.46235e-09
5.67175e-09
5.88925e-09
6.11455e-09
6.34721e-09
6.5867e-09
6.83239e-09
7.08365e-09
7.33979e-09
7.60015e-09
7.86407e-09
8.13088e-09
8.39989e-09
8.6703e-09
8.94109e-09
9.21098e-09
9.47823e-09
9.74051e-09
9.9948e-09
1.02372e-08
1.04631e-08
1.06666e-08
1.08412e-08
1.09795e-08
1.10671e-08
1.11013e-08
1.10898e-08
1.10026e-08
1.0836e-08
1.05847e-08
1.02444e-08
9.8137e-09
9.29349e-09
8.6879e-09
8.00484e-09
7.2561e-09
6.45726e-09
5.62723e-09
4.78746e-09
3.96064e-09
3.16902e-09
2.4325e-09
1.76695e-09
1.1834e-09
6.89935e-10
2.96307e-10
3.29823e-11
1.69455e-11
1.52041e-10
3.48157e-10
5.81887e-10
8.39909e-10
1.11258e-09
1.39212e-09
1.67205e-09
1.94699e-09
2.21274e-09
2.46626e-09
2.70574e-09
2.9305e-09
3.14088e-09
3.33805e-09
3.52378e-09
3.70028e-09
3.86995e-09
4.03524e-09
4.19852e-09
4.36197e-09
4.52756e-09
4.69698e-09
4.87163e-09
5.05266e-09
5.24095e-09
5.43711e-09
5.64152e-09
5.85436e-09
6.07559e-09
6.30502e-09
6.54229e-09
6.78693e-09
7.03837e-09
7.296e-09
7.55918e-09
7.82727e-09
8.09965e-09
8.37572e-09
8.65486e-09
8.9364e-09
9.21953e-09
9.50319e-09
9.78597e-09
1.00659e-08
1.03404e-08
1.06062e-08
1.08588e-08
1.10932e-08
1.13033e-08
1.1482e-08
1.16216e-08
1.17063e-08
1.17375e-08
1.17176e-08
1.16188e-08
1.14375e-08
1.11685e-08
1.08074e-08
1.0353e-08
9.80634e-09
9.1716e-09
8.45665e-09
7.67318e-09
6.83665e-09
5.96594e-09
5.08269e-09
4.21027e-09
3.37216e-09
2.58999e-09
1.88158e-09
1.25979e-09
7.34075e-10
3.15088e-10
3.50745e-11
1.82725e-11
1.63953e-10
3.75454e-10
6.27547e-10
9.0585e-10
1.19991e-09
1.50126e-09
1.80277e-09
2.09855e-09
2.38398e-09
2.65574e-09
2.9119e-09
3.15178e-09
3.37583e-09
3.5854e-09
3.78253e-09
3.96965e-09
4.14941e-09
4.32448e-09
4.49742e-09
4.67056e-09
4.84596e-09
5.0254e-09
5.21033e-09
5.40191e-09
5.60101e-09
5.80823e-09
6.02392e-09
6.24821e-09
6.48104e-09
6.72215e-09
6.97117e-09
7.2276e-09
7.49087e-09
7.76038e-09
8.03553e-09
8.31573e-09
8.60041e-09
8.88903e-09
9.18102e-09
9.47571e-09
9.77226e-09
1.00695e-08
1.03659e-08
1.06591e-08
1.09464e-08
1.12239e-08
1.14869e-08
1.17299e-08
1.19462e-08
1.21286e-08
1.22689e-08
1.235e-08
1.23776e-08
1.23483e-08
1.2237e-08
1.204e-08
1.17521e-08
1.13691e-08
1.089e-08
1.0316e-08
9.65149e-09
8.90437e-09
8.08633e-09
7.2127e-09
6.30223e-09
5.37661e-09
4.45962e-09
3.57575e-09
2.74825e-09
1.99696e-09
1.33669e-09
7.78459e-10
3.33945e-10
3.71754e-11
1.96412e-11
1.76236e-10
4.03601e-10
6.74623e-10
9.73823e-10
1.2899e-09
1.61364e-09
1.93727e-09
2.25432e-09
2.55972e-09
2.8499e-09
3.12277e-09
3.37769e-09
3.61525e-09
3.83702e-09
4.04529e-09
4.24278e-09
4.43238e-09
4.61701e-09
4.79939e-09
4.98202e-09
5.16706e-09
5.35636e-09
5.5514e-09
5.75337e-09
5.96313e-09
6.18125e-09
6.40807e-09
6.64367e-09
6.88796e-09
7.14066e-09
7.40137e-09
7.66959e-09
7.94479e-09
8.22638e-09
8.51382e-09
8.80657e-09
9.10413e-09
9.40601e-09
9.71167e-09
1.00204e-08
1.03313e-08
1.06432e-08
1.0954e-08
1.12615e-08
1.15622e-08
1.1852e-08
1.21259e-08
1.23776e-08
1.26003e-08
1.27862e-08
1.29269e-08
1.30041e-08
1.30277e-08
1.29884e-08
1.28638e-08
1.265e-08
1.23421e-08
1.19359e-08
1.14305e-08
1.08276e-08
1.01319e-08
9.35139e-09
8.49804e-09
7.58712e-09
6.6372e-09
5.66986e-09
4.70905e-09
3.78002e-09
2.90747e-09
2.11322e-09
1.4142e-09
8.23148e-10
3.529e-10
3.92874e-11
2.10516e-11
1.88893e-10
4.326e-10
7.23117e-10
1.04383e-09
1.38254e-09
1.72927e-09
2.07551e-09
2.41422e-09
2.73984e-09
3.04853e-09
3.33808e-09
3.60791e-09
3.85876e-09
4.09246e-09
4.3116e-09
4.51916e-09
4.71835e-09
4.91228e-09
5.1039e-09
5.29583e-09
5.49035e-09
5.68937e-09
5.89442e-09
6.10668e-09
6.327e-09
6.55596e-09
6.79384e-09
7.04073e-09
7.29649e-09
7.56085e-09
7.83339e-09
8.11365e-09
8.4011e-09
8.69523e-09
8.99554e-09
9.30157e-09
9.61289e-09
9.92903e-09
1.02495e-08
1.05735e-08
1.09e-08
1.12276e-08
1.15541e-08
1.18768e-08
1.21919e-08
1.2495e-08
1.27802e-08
1.30413e-08
1.32708e-08
1.34605e-08
1.36016e-08
1.36748e-08
1.36945e-08
1.36446e-08
1.35061e-08
1.32747e-08
1.29454e-08
1.25143e-08
1.19808e-08
1.13468e-08
1.06175e-08
9.80163e-09
8.9113e-09
7.96197e-09
6.97214e-09
5.96318e-09
4.95897e-09
3.98522e-09
3.06782e-09
2.23052e-09
1.49242e-09
8.68203e-10
3.71975e-10
4.1413e-11
2.25036e-11
2.01923e-10
4.6245e-10
7.73027e-10
1.11585e-09
1.47781e-09
1.84808e-09
2.21742e-09
2.57812e-09
2.92417e-09
3.25141e-09
3.55756e-09
3.84209e-09
4.10596e-09
4.35129e-09
4.58096e-09
4.7983e-09
5.00679e-09
5.20979e-09
5.41045e-09
5.61153e-09
5.81542e-09
6.02407e-09
6.23907e-09
6.46159e-09
6.69249e-09
6.93231e-09
7.18135e-09
7.43965e-09
7.70707e-09
7.98335e-09
8.26808e-09
8.56083e-09
8.86113e-09
9.16851e-09
9.48257e-09
9.80289e-09
1.01291e-08
1.04608e-08
1.07973e-08
1.1138e-08
1.14816e-08
1.18263e-08
1.21699e-08
1.25091e-08
1.28398e-08
1.3157e-08
1.34547e-08
1.3726e-08
1.3963e-08
1.41572e-08
1.42988e-08
1.43687e-08
1.43844e-08
1.4324e-08
1.41712e-08
1.39213e-08
1.35694e-08
1.31115e-08
1.25474e-08
1.18796e-08
1.11138e-08
1.02595e-08
9.32947e-09
8.33965e-09
7.3086e-09
6.25745e-09
5.20984e-09
4.19158e-09
3.22947e-09
2.34899e-09
1.57146e-09
9.13681e-10
3.91193e-10
4.35545e-11
2.39974e-11
2.15325e-10
4.93151e-10
8.24348e-10
1.18989e-09
1.57569e-09
1.97005e-09
2.36292e-09
2.74592e-09
3.11253e-09
3.4583e-09
3.78089e-09
4.07987e-09
4.35644e-09
4.61304e-09
4.8529e-09
5.0797e-09
5.29722e-09
5.50908e-09
5.71861e-09
5.92873e-09
6.14192e-09
6.3602e-09
6.58518e-09
6.81804e-09
7.05964e-09
7.31051e-09
7.57092e-09
7.84093e-09
8.1204e-09
8.40906e-09
8.70657e-09
9.01252e-09
9.3265e-09
9.64813e-09
9.97706e-09
1.0313e-08
1.06555e-08
1.10041e-08
1.13584e-08
1.17173e-08
1.20795e-08
1.24431e-08
1.28052e-08
1.31623e-08
1.351e-08
1.38427e-08
1.4154e-08
1.44365e-08
1.46821e-08
1.4882e-08
1.50244e-08
1.50919e-08
1.51041e-08
1.50334e-08
1.48661e-08
1.45971e-08
1.42212e-08
1.37346e-08
1.31373e-08
1.24324e-08
1.16263e-08
1.07297e-08
9.7563e-09
8.72287e-09
7.64833e-09
6.5537e-09
5.46218e-09
4.39936e-09
3.39255e-09
2.46871e-09
1.6514e-09
9.59633e-10
4.10574e-10
4.5714e-11
2.55326e-11
2.29099e-10
5.24699e-10
8.77074e-10
1.26593e-09
1.67614e-09
2.09511e-09
2.51191e-09
2.91745e-09
3.3047e-09
3.66893e-09
4.00774e-09
4.32085e-09
4.60975e-09
4.87724e-09
5.12693e-09
5.36288e-09
5.58917e-09
5.80971e-09
6.028e-09
6.24712e-09
6.46964e-09
6.69763e-09
6.93273e-09
7.17613e-09
7.42869e-09
7.69094e-09
7.96314e-09
8.24534e-09
8.53744e-09
8.83918e-09
9.15028e-09
9.47038e-09
9.79914e-09
1.01362e-08
1.04814e-08
1.08344e-08
1.11948e-08
1.15622e-08
1.19359e-08
1.23148e-08
1.26974e-08
1.30814e-08
1.34637e-08
1.38404e-08
1.42065e-08
1.45561e-08
1.48824e-08
1.51776e-08
1.54331e-08
1.56398e-08
1.57841e-08
1.58503e-08
1.58596e-08
1.57792e-08
1.55975e-08
1.53089e-08
1.49078e-08
1.43906e-08
1.37573e-08
1.30115e-08
1.21609e-08
1.12173e-08
1.01959e-08
9.11464e-09
7.99335e-09
6.85306e-09
5.71653e-09
4.60877e-09
3.55715e-09
2.58977e-09
1.7323e-09
1.0061e-09
4.30132e-10
4.78932e-11
2.71091e-11
2.43243e-10
5.57088e-10
9.31193e-10
1.34394e-09
1.77914e-09
2.22319e-09
2.66428e-09
3.09256e-09
3.50046e-09
3.883e-09
4.23775e-09
4.56463e-09
4.86545e-09
5.14342e-09
5.4026e-09
5.64739e-09
5.88225e-09
6.11132e-09
6.33834e-09
6.5665e-09
6.79846e-09
7.03637e-09
7.28185e-09
7.53615e-09
7.80009e-09
8.07421e-09
8.35879e-09
8.65388e-09
8.95941e-09
9.27516e-09
9.6009e-09
9.93633e-09
1.02812e-08
1.06352e-08
1.09982e-08
1.137e-08
1.175e-08
1.2138e-08
1.2533e-08
1.29339e-08
1.33387e-08
1.37449e-08
1.41492e-08
1.4547e-08
1.49332e-08
1.53013e-08
1.56441e-08
1.59534e-08
1.62202e-08
1.64352e-08
1.65832e-08
1.66493e-08
1.66562e-08
1.65669e-08
1.63712e-08
1.60628e-08
1.56357e-08
1.50859e-08
1.44137e-08
1.36234e-08
1.27235e-08
1.17275e-08
1.06525e-08
9.51828e-09
8.34589e-09
7.15687e-09
5.97353e-09
4.82004e-09
3.72333e-09
2.7122e-09
1.81418e-09
1.0531e-09
4.49875e-10
5.00929e-11
2.87267e-11
2.57753e-10
5.90312e-10
9.86691e-10
1.4239e-09
1.88462e-09
2.35421e-09
2.8199e-09
3.27105e-09
3.69956e-09
4.10019e-09
4.47054e-09
4.81077e-09
5.12308e-09
5.41113e-09
5.67943e-09
5.93282e-09
6.17607e-09
6.41363e-09
6.64941e-09
6.88676e-09
7.12841e-09
7.37655e-09
7.63285e-09
7.89854e-09
8.17446e-09
8.46116e-09
8.7589e-09
9.06779e-09
9.38777e-09
9.71868e-09
1.00603e-08
1.04125e-08
1.0775e-08
1.11476e-08
1.15302e-08
1.19226e-08
1.23242e-08
1.27347e-08
1.3153e-08
1.35776e-08
1.40066e-08
1.44369e-08
1.48648e-08
1.52856e-08
1.56934e-08
1.60817e-08
1.64425e-08
1.67676e-08
1.70474e-08
1.72722e-08
1.74256e-08
1.7493e-08
1.74984e-08
1.74015e-08
1.71924e-08
1.68641e-08
1.64103e-08
1.58263e-08
1.51127e-08
1.42739e-08
1.33198e-08
1.22656e-08
1.11307e-08
9.93736e-09
8.70849e-09
7.46664e-09
6.2339e-09
5.03341e-09
3.89113e-09
2.83597e-09
1.89705e-09
1.10064e-09
4.69808e-10
5.23134e-11
3.0385e-11
2.72626e-10
6.24362e-10
1.04355e-09
1.50577e-09
1.99253e-09
2.48807e-09
2.97862e-09
3.45271e-09
3.90171e-09
4.32015e-09
4.7057e-09
5.05883e-09
5.38218e-09
5.67991e-09
5.95701e-09
6.21878e-09
6.47034e-09
6.71641e-09
6.96111e-09
7.20791e-09
7.45963e-09
7.71849e-09
7.98619e-09
8.26396e-09
8.55265e-09
8.85281e-09
9.16473e-09
9.48854e-09
9.8242e-09
1.01716e-08
1.05307e-08
1.09012e-08
1.12831e-08
1.16761e-08
1.20802e-08
1.24951e-08
1.29204e-08
1.33553e-08
1.37988e-08
1.42492e-08
1.47041e-08
1.51603e-08
1.56137e-08
1.6059e-08
1.64902e-08
1.69002e-08
1.72808e-08
1.76231e-08
1.79176e-08
1.81538e-08
1.83146e-08
1.83849e-08
1.83897e-08
1.82863e-08
1.80647e-08
1.77171e-08
1.72361e-08
1.66168e-08
1.58593e-08
1.49685e-08
1.39553e-08
1.28369e-08
1.16352e-08
1.03757e-08
9.08388e-09
7.78408e-09
6.4985e-09
5.24916e-09
4.06054e-09
2.96102e-09
1.98088e-09
1.14871e-09
4.89923e-10
5.45541e-11
3.20835e-11
2.87859e-10
6.59228e-10
1.10175e-09
1.58952e-09
2.1028e-09
2.62466e-09
3.14027e-09
3.63731e-09
4.1066e-09
4.54251e-09
4.94282e-09
5.30836e-09
5.64228e-09
5.9493e-09
6.23494e-09
6.50494e-09
6.76481e-09
7.01953e-09
7.27343e-09
7.53009e-09
7.79241e-09
8.06264e-09
8.3425e-09
8.63323e-09
8.93568e-09
9.2504e-09
9.57772e-09
9.91777e-09
1.02706e-08
1.06361e-08
1.10142e-08
1.14049e-08
1.1808e-08
1.22234e-08
1.2651e-08
1.30905e-08
1.35414e-08
1.40028e-08
1.44735e-08
1.49515e-08
1.54342e-08
1.5918e-08
1.63984e-08
1.68699e-08
1.7326e-08
1.77592e-08
1.8161e-08
1.85223e-08
1.88329e-08
1.90821e-08
1.92522e-08
1.9327e-08
1.93322e-08
1.92239e-08
1.89909e-08
1.86245e-08
1.81165e-08
1.74612e-08
1.66579e-08
1.57119e-08
1.4635e-08
1.34462e-08
1.21706e-08
1.08371e-08
9.47506e-09
8.11112e-09
6.76832e-09
5.4676e-09
4.23155e-09
3.08727e-09
2.06558e-09
1.19728e-09
5.10206e-10
5.68132e-11
3.38216e-11
3.03446e-10
6.94896e-10
1.16126e-09
1.67511e-09
2.21535e-09
2.76386e-09
3.30467e-09
3.82458e-09
4.31392e-09
4.76688e-09
5.18145e-09
5.5589e-09
5.90294e-09
6.21889e-09
6.51285e-09
6.79102e-09
7.0593e-09
7.32295e-09
7.58647e-09
7.85355e-09
8.12717e-09
8.40961e-09
8.70259e-09
9.00735e-09
9.32475e-09
9.65535e-09
9.99949e-09
1.03573e-08
1.07289e-08
1.11143e-08
1.15134e-08
1.19261e-08
1.23525e-08
1.27923e-08
1.32455e-08
1.37116e-08
1.41901e-08
1.468e-08
1.51797e-08
1.56871e-08
1.61993e-08
1.67122e-08
1.72212e-08
1.77203e-08
1.82026e-08
1.86604e-08
1.90848e-08
1.94663e-08
1.97944e-08
2.0058e-08
2.02394e-08
2.03202e-08
2.03268e-08
2.0215e-08
1.9972e-08
1.95879e-08
1.90535e-08
1.83618e-08
1.75117e-08
1.65079e-08
1.53631e-08
1.40982e-08
1.27413e-08
1.13258e-08
9.8852e-09
8.44991e-09
7.04449e-09
5.68913e-09
4.40414e-09
3.21457e-09
2.15106e-09
1.24629e-09
5.30635e-10
5.90882e-11
3.55988e-11
3.19381e-10
7.31352e-10
1.22206e-09
1.76246e-09
2.3301e-09
2.90552e-09
3.4716e-09
4.01426e-09
4.5233e-09
4.99284e-09
5.42115e-09
5.80998e-09
6.16371e-09
6.48829e-09
6.79042e-09
7.07681e-09
7.35374e-09
7.62672e-09
7.90043e-09
8.17868e-09
8.46449e-09
8.76016e-09
9.06742e-09
9.38749e-09
9.72125e-09
1.00692e-08
1.04318e-08
1.08092e-08
1.12015e-08
1.16086e-08
1.20306e-08
1.24675e-08
1.29192e-08
1.33855e-08
1.38663e-08
1.43612e-08
1.48693e-08
1.53894e-08
1.592e-08
1.64584e-08
1.70014e-08
1.75449e-08
1.80837e-08
1.86115e-08
1.91213e-08
1.96047e-08
2.00529e-08
2.04557e-08
2.08025e-08
2.10816e-08
2.12759e-08
2.13642e-08
2.13732e-08
2.12594e-08
2.10077e-08
2.06073e-08
2.00474e-08
1.93199e-08
1.84224e-08
1.73591e-08
1.6143e-08
1.47966e-08
1.33515e-08
1.18455e-08
1.03176e-08
8.80278e-09
7.32835e-09
5.91425e-09
4.57831e-09
3.34276e-09
2.23716e-09
1.29565e-09
5.51176e-10
6.13754e-11
3.74142e-11
3.35657e-10
7.68578e-10
1.28412e-09
1.85154e-09
2.44694e-09
3.04948e-09
3.64084e-09
4.20602e-09
4.73437e-09
5.21997e-09
5.66144e-09
6.06114e-09
6.42415e-09
6.75712e-09
7.06738e-09
7.36216e-09
7.64809e-09
7.93097e-09
8.21564e-09
8.50598e-09
8.80506e-09
9.11519e-09
9.43809e-09
9.77498e-09
1.01267e-08
1.04938e-08
1.08767e-08
1.12756e-08
1.16904e-08
1.21214e-08
1.25685e-08
1.30317e-08
1.35108e-08
1.40058e-08
1.45163e-08
1.50418e-08
1.55813e-08
1.61335e-08
1.66964e-08
1.72672e-08
1.78424e-08
1.84176e-08
1.89872e-08
1.95447e-08
2.00826e-08
2.05926e-08
2.10651e-08
2.149e-08
2.18563e-08
2.21519e-08
2.23603e-08
2.24574e-08
2.24696e-08
2.23552e-08
2.20964e-08
2.16811e-08
2.10972e-08
2.03349e-08
1.93903e-08
1.82668e-08
1.69769e-08
1.55447e-08
1.40048e-08
1.24e-08
1.07755e-08