/*--------------------------------*- C++ -*----------------------------------*\
  =========                 |
  \\      /  F ield         | OpenFOAM: The Open Source CFD Toolbox
   \\    /   O peration     | Website:  https://openfoam.org
    \\  /    A nd           | Version:  12
     \\/     M anipulation  |
\*---------------------------------------------------------------------------*/
FoamFile
{
    format      ascii;
    class       volScalarField;
    location    "5";
    object      p;
}
// * * * * * * * * * * * * * * * * * * * * * * * * * * * * * * * * * * * * * //

dimensions      [0 2 -2 0 0 0 0];

internalField   nonuniform List<scalar> 
18225
(
-3.8247e-10
-1.78013e-07
-2.20376e-07
-1.2703e-08
4.5439e-07
1.16747e-06
2.11089e-06
3.26442e-06
4.60533e-06
6.10868e-06
7.74988e-06
9.50434e-06
1.13486e-05
1.326e-05
1.52172e-05
1.72e-05
1.91894e-05
2.11678e-05
2.31185e-05
2.50261e-05
2.68763e-05
2.86557e-05
3.03521e-05
3.19541e-05
3.34515e-05
3.48345e-05
3.60948e-05
3.72246e-05
3.82169e-05
3.90655e-05
3.97653e-05
4.03115e-05
4.07004e-05
4.09287e-05
4.09941e-05
4.08948e-05
4.06296e-05
4.01981e-05
3.96004e-05
3.88372e-05
3.79097e-05
3.68199e-05
3.557e-05
3.41629e-05
3.26018e-05
3.08906e-05
2.90335e-05
2.70349e-05
2.48998e-05
2.26336e-05
2.02419e-05
1.77305e-05
1.51057e-05
1.23739e-05
9.54172e-06
6.61603e-06
3.60385e-06
5.12332e-07
-2.65123e-06
-5.87945e-06
-9.16487e-06
-1.24999e-05
-1.58771e-05
-1.92889e-05
-2.27275e-05
-2.61856e-05
-2.96556e-05
-3.313e-05
-3.66014e-05
-4.00625e-05
-4.35061e-05
-4.69251e-05
-5.03125e-05
-5.36615e-05
-5.69653e-05
-6.02174e-05
-6.34114e-05
-6.65411e-05
-6.96004e-05
-7.25834e-05
-7.54844e-05
-7.8298e-05
-8.10189e-05
-8.36419e-05
-8.61622e-05
-8.85751e-05
-9.08762e-05
-9.30612e-05
-9.51262e-05
-9.70673e-05
-9.88811e-05
-0.000100564
-0.000102114
-0.000103527
-0.000104801
-0.000105934
-0.000106925
-0.00010777
-0.00010847
-0.000109023
-0.000109429
-0.000109687
-0.000109798
-0.000109762
-0.00010958
-0.000109255
-0.000108787
-0.00010818
-0.000107438
-0.000106563
-0.00010556
-0.000104436
-0.000103196
-0.000101846
-0.000100396
-9.88546e-05
-9.72313e-05
-9.5538e-05
-9.37873e-05
-9.19934e-05
-9.01722e-05
-8.8341e-05
-8.6519e-05
-8.47273e-05
-8.29889e-05
-8.13288e-05
-7.97738e-05
-7.83526e-05
-7.70947e-05
-7.60301e-05
-7.51872e-05
-7.45929e-05
-7.42742e-05
-7.42407e-05
-7.43864e-05
-5.57688e-08
-2.44762e-07
-2.95084e-07
-1.05688e-07
3.13711e-07
9.42895e-07
1.76635e-06
2.76753e-06
3.92825e-06
5.22885e-06
6.64947e-06
8.17005e-06
9.77116e-06
1.14337e-05
1.31396e-05
1.48713e-05
1.66122e-05
1.83466e-05
2.00597e-05
2.17374e-05
2.33668e-05
2.49357e-05
2.64327e-05
2.78473e-05
2.91698e-05
3.03913e-05
3.15037e-05
3.24997e-05
3.33726e-05
3.41166e-05
3.47266e-05
3.51979e-05
3.5527e-05
3.57105e-05
3.57461e-05
3.56318e-05
3.53665e-05
3.49494e-05
3.43804e-05
3.36601e-05
3.27893e-05
3.17696e-05
3.0603e-05
2.92919e-05
2.78392e-05
2.62482e-05
2.45227e-05
2.26668e-05
2.06848e-05
1.85817e-05
1.63624e-05
1.40324e-05
1.15972e-05
9.06286e-06
6.43532e-06
3.72088e-06
9.25995e-07
-1.94276e-06
-4.87869e-06
-7.87497e-06
-1.09247e-05
-1.4021e-05
-1.71568e-05
-2.03251e-05
-2.3519e-05
-2.67313e-05
-2.99552e-05
-3.31836e-05
-3.64098e-05
-3.9627e-05
-4.28283e-05
-4.60072e-05
-4.91573e-05
-5.22721e-05
-5.53453e-05
-5.83709e-05
-6.13429e-05
-6.42555e-05
-6.71031e-05
-6.98801e-05
-7.25813e-05
-7.52016e-05
-7.77361e-05
-8.018e-05
-8.25288e-05
-8.47781e-05
-8.6924e-05
-8.89624e-05
-9.08897e-05
-9.27024e-05
-9.43975e-05
-9.59718e-05
-9.74226e-05
-9.87476e-05
-9.99444e-05
-0.000101011
-0.000101946
-0.000102749
-0.000103417
-0.000103951
-0.000104349
-0.000104613
-0.000104742
-0.000104738
-0.000104601
-0.000104334
-0.000103938
-0.000103417
-0.000102774
-0.000102012
-0.000101136
-0.000100153
-9.90663e-05
-9.78846e-05
-9.66151e-05
-9.52664e-05
-9.38481e-05
-9.23707e-05
-9.08461e-05
-8.92871e-05
-8.77078e-05
-8.61237e-05
-8.45516e-05
-8.30095e-05
-8.15168e-05
-8.00944e-05
-7.87642e-05
-7.7549e-05
-7.64725e-05
-7.55578e-05
-7.48273e-05
-7.43038e-05
-7.40151e-05
-7.39796e-05
-7.41076e-05
-1.07142e-06
-1.20863e-06
-1.20904e-06
-9.88769e-07
-5.66526e-07
3.4448e-08
7.98854e-07
1.71242e-06
2.7602e-06
3.9261e-06
5.19404e-06
6.54764e-06
7.97085e-06
9.44771e-06
1.09628e-05
1.25012e-05
1.40485e-05
1.55908e-05
1.71151e-05
1.86089e-05
2.00605e-05
2.14587e-05
2.27934e-05
2.40547e-05
2.52338e-05
2.63225e-05
2.7313e-05
2.81986e-05
2.89731e-05
2.96307e-05
3.01667e-05
3.05767e-05
3.08571e-05
3.10048e-05
3.10172e-05
3.08926e-05
3.06296e-05
3.02274e-05
2.96858e-05
2.9005e-05
2.81858e-05
2.72295e-05
2.61377e-05
2.49126e-05
2.35567e-05
2.20731e-05
2.0465e-05
1.87362e-05
1.68907e-05
1.49329e-05
1.28674e-05
1.0699e-05
8.4331e-06
6.07492e-06
3.6301e-06
1.10441e-06
-1.49621e-06
-4.16567e-06
-6.89779e-06
-9.68626e-06
-1.25247e-05
-1.54067e-05
-1.83257e-05
-2.12752e-05
-2.42488e-05
-2.72399e-05
-3.0242e-05
-3.32487e-05
-3.62536e-05
-3.92503e-05
-4.22327e-05
-4.51944e-05
-4.81296e-05
-5.10322e-05
-5.38964e-05
-5.67165e-05
-5.9487e-05
-6.22024e-05
-6.48575e-05
-6.74473e-05
-6.99667e-05
-7.24111e-05
-7.47758e-05
-7.70565e-05
-7.9249e-05
-8.13493e-05
-8.33536e-05
-8.52583e-05
-8.706e-05
-8.87556e-05
-9.03422e-05
-9.18171e-05
-9.31778e-05
-9.44222e-05
-9.55482e-05
-9.65542e-05
-9.74389e-05
-9.8201e-05
-9.88399e-05
-9.9355e-05
-9.97462e-05
-0.000100014
-0.000100158
-0.00010018
-0.000100082
-9.98641e-05
-9.95298e-05
-9.90816e-05
-9.85228e-05
-9.78572e-05
-9.70893e-05
-9.6224e-05
-9.52672e-05
-9.42252e-05
-9.31051e-05
-9.1915e-05
-9.06635e-05
-8.93603e-05
-8.80159e-05
-8.66417e-05
-8.52501e-05
-8.38544e-05
-8.24689e-05
-8.11089e-05
-7.97905e-05
-7.85306e-05
-7.73469e-05
-7.62575e-05
-7.52808e-05
-7.4435e-05
-7.37379e-05
-7.32085e-05
-7.28716e-05
-7.27479e-05
-7.27767e-05
-3.12268e-06
-3.12836e-06
-3.00041e-06
-2.68705e-06
-2.20381e-06
-1.56967e-06
-7.98191e-07
9.81348e-08
1.10645e-06
2.21329e-06
3.40517e-06
4.66838e-06
5.98939e-06
7.35469e-06
8.75113e-06
1.01658e-05
1.15862e-05
1.30002e-05
1.43964e-05
1.57636e-05
1.70913e-05
1.83696e-05
1.95891e-05
2.07411e-05
2.18172e-05
2.281e-05
2.37124e-05
2.4518e-05
2.52211e-05
2.58163e-05
2.62991e-05
2.66653e-05
2.69116e-05
2.7035e-05
2.7033e-05
2.69038e-05
2.66461e-05
2.62591e-05
2.57425e-05
2.50964e-05
2.43215e-05
2.34188e-05
2.23898e-05
2.12366e-05
1.99614e-05
1.85669e-05
1.70563e-05
1.54328e-05
1.37003e-05
1.18628e-05
9.92458e-06
7.89019e-06
5.76443e-06
3.55233e-06
1.25911e-06
-1.10985e-06
-3.54901e-06
-6.05269e-06
-8.61509e-06
-1.12303e-05
-1.38924e-05
-1.65954e-05
-1.93331e-05
-2.20994e-05
-2.48884e-05
-2.76938e-05
-3.05096e-05
-3.33297e-05
-3.61482e-05
-3.89591e-05
-4.17566e-05
-4.45349e-05
-4.72882e-05
-5.00112e-05
-5.26982e-05
-5.5344e-05
-5.79433e-05
-6.04911e-05
-6.29826e-05
-6.54128e-05
-6.77774e-05
-7.00717e-05
-7.22916e-05
-7.4433e-05
-7.64919e-05
-7.84648e-05
-8.0348e-05
-8.21382e-05
-8.38324e-05
-8.54277e-05
-8.69213e-05
-8.83108e-05
-8.9594e-05
-9.07688e-05
-9.18336e-05
-9.27869e-05
-9.36274e-05
-9.43541e-05
-9.49665e-05
-9.54641e-05
-9.5847e-05
-9.61153e-05
-9.62697e-05
-9.63112e-05
-9.62411e-05
-9.60613e-05
-9.57738e-05
-9.53814e-05
-9.48871e-05
-9.42945e-05
-9.36077e-05
-9.28314e-05
-9.19708e-05
-9.10317e-05
-9.00206e-05
-8.89446e-05
-8.78114e-05
-8.66296e-05
-8.54083e-05
-8.41575e-05
-8.28877e-05
-8.16104e-05
-8.03375e-05
-7.90819e-05
-7.78567e-05
-7.66758e-05
-7.55535e-05
-7.45043e-05
-7.35429e-05
-7.26838e-05
-7.19416e-05
-7.13312e-05
-7.08689e-05
-7.05686e-05
-7.0415e-05
-6.00451e-06
-5.81928e-06
-5.49779e-06
-5.03488e-06
-4.43892e-06
-3.72095e-06
-2.89142e-06
-1.96086e-06
-9.39954e-07
1.60206e-07
1.32844e-06
2.55332e-06
3.82352e-06
5.12761e-06
6.45442e-06
7.79284e-06
9.13212e-06
1.04617e-05
1.17715e-05
1.30517e-05
1.4293e-05
1.54865e-05
1.66238e-05
1.76969e-05
1.86983e-05
1.96212e-05
2.04592e-05
2.12063e-05
2.18571e-05
2.24069e-05
2.28514e-05
2.31866e-05
2.34094e-05
2.3517e-05
2.35071e-05
2.3378e-05
2.31284e-05
2.27575e-05
2.2265e-05
2.1651e-05
2.0916e-05
2.00611e-05
1.90877e-05
1.79975e-05
1.67927e-05
1.54759e-05
1.40499e-05
1.25178e-05
1.08833e-05
9.15006e-06
7.32211e-06
5.40376e-06
3.39952e-06
1.31412e-06
-8.47551e-07
-3.08041e-06
-5.37924e-06
-7.7387e-06
-1.01533e-05
-1.26176e-05
-1.51258e-05
-1.76724e-05
-2.02515e-05
-2.28575e-05
-2.54846e-05
-2.81271e-05
-3.07792e-05
-3.34353e-05
-3.60896e-05
-3.87367e-05
-4.13711e-05
-4.39872e-05
-4.65798e-05
-4.91436e-05
-5.16736e-05
-5.41647e-05
-5.6612e-05
-5.90109e-05
-6.13566e-05
-6.36449e-05
-6.58713e-05
-6.80318e-05
-7.01223e-05
-7.21392e-05
-7.40787e-05
-7.59374e-05
-7.77121e-05
-7.93997e-05
-8.09973e-05
-8.25022e-05
-8.39121e-05
-8.52246e-05
-8.64376e-05
-8.75494e-05
-8.85584e-05
-8.94633e-05
-9.02629e-05
-9.09564e-05
-9.15432e-05
-9.2023e-05
-9.23958e-05
-9.2662e-05
-9.2822e-05
-9.28769e-05
-9.28278e-05
-9.26765e-05
-9.24249e-05
-9.20754e-05
-9.16309e-05
-9.10945e-05
-9.04701e-05
-8.97616e-05
-8.89738e-05
-8.81118e-05
-8.71812e-05
-8.61884e-05
-8.51399e-05
-8.40432e-05
-8.2906e-05
-8.17367e-05
-8.05444e-05
-7.93384e-05
-7.81286e-05
-7.69256e-05
-7.57401e-05
-7.4583e-05
-7.34659e-05
-7.23999e-05
-7.13966e-05
-7.04673e-05
-6.96234e-05
-6.8875e-05
-6.82283e-05
-6.76875e-05
-6.72959e-05
-9.52486e-06
-9.11476e-06
-8.55949e-06
-7.90733e-06
-7.15896e-06
-6.31656e-06
-5.38726e-06
-4.37969e-06
-3.30252e-06
-2.16474e-06
-9.75503e-07
2.55754e-07
1.51956e-06
2.80631e-06
4.10649e-06
5.41063e-06
6.70944e-06
7.99377e-06
9.25478e-06
1.04839e-05
1.16728e-05
1.28136e-05
1.38987e-05
1.49211e-05
1.5874e-05
1.67511e-05
1.75465e-05
1.8255e-05
1.88715e-05
1.93917e-05
1.98116e-05
2.01276e-05
2.03367e-05
2.04364e-05
2.04247e-05
2.02998e-05
2.00606e-05
1.97064e-05
1.92369e-05
1.86523e-05
1.7953e-05
1.714e-05
1.62148e-05
1.51789e-05
1.40345e-05
1.27839e-05
1.143e-05
9.97565e-06
8.42432e-06
6.77955e-06
5.0452e-06
3.22535e-06
1.3243e-06
-6.53468e-07
-2.70328e-06
-4.82031e-06
-6.9996e-06
-9.23606e-06
-1.15245e-05
-1.38597e-05
-1.62362e-05
-1.86487e-05
-2.10918e-05
-2.35599e-05
-2.60477e-05
-2.85498e-05
-3.10606e-05
-3.35749e-05
-3.60872e-05
-3.85923e-05
-4.1085e-05
-4.35603e-05
-4.6013e-05
-4.84382e-05
-5.08311e-05
-5.3187e-05
-5.55014e-05
-5.77698e-05
-5.99878e-05
-6.21514e-05
-6.42565e-05
-6.62992e-05
-6.82758e-05
-7.01828e-05
-7.20169e-05
-7.37747e-05
-7.54534e-05
-7.70499e-05
-7.85618e-05
-7.99864e-05
-8.13215e-05
-8.25651e-05
-8.37152e-05
-8.47702e-05
-8.57286e-05
-8.65892e-05
-8.73509e-05
-8.8013e-05
-8.8575e-05
-8.90365e-05
-8.93975e-05
-8.96584e-05
-8.98195e-05
-8.98817e-05
-8.98461e-05
-8.97142e-05
-8.94877e-05
-8.91688e-05
-8.87598e-05
-8.82636e-05
-8.76834e-05
-8.70228e-05
-8.62858e-05
-8.54768e-05
-8.46007e-05
-8.36627e-05
-8.26684e-05
-8.16241e-05
-8.05363e-05
-7.94118e-05
-7.82582e-05
-7.7083e-05
-7.58944e-05
-7.47006e-05
-7.35101e-05
-7.23318e-05
-7.11743e-05
-7.00463e-05
-6.89565e-05
-6.79134e-05
-6.69258e-05
-6.59996e-05
-6.513e-05
-6.43125e-05
-6.36543e-05
-1.35122e-05
-1.28604e-05
-1.20488e-05
-1.11816e-05
-1.02527e-05
-9.25543e-06
-8.19407e-06
-7.07563e-06
-5.90709e-06
-4.69565e-06
-3.44872e-06
-2.17407e-06
-8.79588e-07
4.26646e-07
1.73658e-06
3.04209e-06
4.33518e-06
5.60792e-06
6.85259e-06
8.06161e-06
9.22771e-06
1.03438e-05
1.14033e-05
1.23996e-05
1.33269e-05
1.41793e-05
1.49517e-05
1.5639e-05
1.6237e-05
1.67415e-05
1.71489e-05
1.7456e-05
1.766e-05
1.77587e-05
1.77501e-05
1.76329e-05
1.74059e-05
1.70686e-05
1.66207e-05
1.60624e-05
1.53944e-05
1.46177e-05
1.37334e-05
1.27434e-05
1.16497e-05
1.04546e-05
9.16077e-06
7.77118e-06
6.28905e-06
4.71786e-06
3.06134e-06
1.32342e-06
-4.91745e-07
-2.37983e-06
-4.33635e-06
-6.35665e-06
-8.43597e-06
-1.05694e-05
-1.2752e-05
-1.49787e-05
-1.72444e-05
-1.95439e-05
-2.1872e-05
-2.42236e-05
-2.65934e-05
-2.89762e-05
-3.13668e-05
-3.37603e-05
-3.61513e-05
-3.85351e-05
-4.09066e-05
-4.32609e-05
-4.55934e-05
-4.78993e-05
-5.01741e-05
-5.24133e-05
-5.46127e-05
-5.67681e-05
-5.88754e-05
-6.09306e-05
-6.29301e-05
-6.48702e-05
-6.67474e-05
-6.85585e-05
-7.03002e-05
-7.19696e-05
-7.35638e-05
-7.50803e-05
-7.65165e-05
-7.78701e-05
-7.9139e-05
-8.03212e-05
-8.1415e-05
-8.24189e-05
-8.33315e-05
-8.41515e-05
-8.48781e-05
-8.55104e-05
-8.6048e-05
-8.64906e-05
-8.68379e-05
-8.70904e-05
-8.72482e-05
-8.73121e-05
-8.7283e-05
-8.7162e-05
-8.69507e-05
-8.66509e-05
-8.62645e-05
-8.57939e-05
-8.52418e-05
-8.46113e-05
-8.39056e-05
-8.31285e-05
-8.22838e-05
-8.1376e-05
-8.04098e-05
-7.93901e-05
-7.83222e-05
-7.72118e-05
-7.60647e-05
-7.48871e-05
-7.36853e-05
-7.24658e-05
-7.12352e-05
-7.00001e-05
-6.87672e-05
-6.75429e-05
-6.63334e-05
-6.51451e-05
-6.39847e-05
-6.28545e-05
-6.17396e-05
-6.06276e-05
-5.96909e-05
-1.78232e-05
-1.69233e-05
-1.58442e-05
-1.47466e-05
-1.36181e-05
-1.24442e-05
-1.12266e-05
-9.97117e-06
-8.6836e-06
-7.36963e-06
-6.03524e-06
-4.68686e-06
-3.33104e-06
-1.97462e-06
-6.24442e-07
7.12521e-07
2.02938e-06
3.31921e-06
4.57529e-06
5.79093e-06
6.95972e-06
8.07538e-06
9.13195e-06
1.01237e-05
1.10452e-05
1.18913e-05
1.26573e-05
1.33389e-05
1.39318e-05
1.44325e-05
1.48378e-05
1.51447e-05
1.53508e-05
1.5454e-05
1.54527e-05
1.53455e-05
1.51317e-05
1.48108e-05
1.43826e-05
1.38475e-05
1.32062e-05
1.24597e-05
1.16093e-05
1.06569e-05
9.60438e-06
8.45418e-06
7.20891e-06
5.8715e-06
4.44513e-06
2.93323e-06
1.33945e-06
-3.3235e-07
-2.07812e-06
-3.89363e-06
-5.77451e-06
-7.71623e-06
-9.71416e-06
-1.17636e-05
-1.38596e-05
-1.59974e-05
-1.8172e-05
-2.03784e-05
-2.26117e-05
-2.48667e-05
-2.71386e-05
-2.94222e-05
-3.17127e-05
-3.40051e-05
-3.62947e-05
-3.85765e-05
-4.0846e-05
-4.30984e-05
-4.53292e-05
-4.75341e-05
-4.97086e-05
-5.18487e-05
-5.39501e-05
-5.6009e-05
-5.80215e-05
-5.99839e-05
-6.18927e-05
-6.37445e-05
-6.5536e-05
-6.72642e-05
-6.8926e-05
-7.05186e-05
-7.20395e-05
-7.34861e-05
-7.48561e-05
-7.61474e-05
-7.73579e-05
-7.84859e-05
-7.95297e-05
-8.04878e-05
-8.13588e-05
-8.21418e-05
-8.28357e-05
-8.34398e-05
-8.39535e-05
-8.43765e-05
-8.47085e-05
-8.49497e-05
-8.51003e-05
-8.51607e-05
-8.51317e-05
-8.50141e-05
-8.48091e-05
-8.45181e-05
-8.41427e-05
-8.36848e-05
-8.31467e-05
-8.25306e-05
-8.18392e-05
-8.10756e-05
-8.02428e-05
-7.93443e-05
-7.83838e-05
-7.73653e-05
-7.62929e-05
-7.51711e-05
-7.40043e-05
-7.27973e-05
-7.1555e-05
-7.02822e-05
-6.8984e-05
-6.76651e-05
-6.63304e-05
-6.49845e-05
-6.36316e-05
-6.22765e-05
-6.09243e-05
-5.95742e-05
-5.82024e-05
-5.67894e-05
-5.55721e-05
-2.2342e-05
-2.11934e-05
-1.98426e-05
-1.8506e-05
-1.71655e-05
-1.57996e-05
-1.44079e-05
-1.29956e-05
-1.15674e-05
-1.01279e-05
-8.68209e-06
-7.23521e-06
-5.79284e-06
-4.36078e-06
-2.94489e-06
-1.55122e-06
-1.85736e-07
1.1455e-06
2.43656e-06
3.68156e-06
4.8748e-06
6.01071e-06
7.08395e-06
8.08938e-06
9.02216e-06
9.87768e-06
1.06517e-05
1.13402e-05
1.19396e-05
1.24467e-05
1.28584e-05
1.31722e-05
1.3386e-05
1.3498e-05
1.35067e-05
1.34111e-05
1.32105e-05
1.29047e-05
1.24937e-05
1.1978e-05
1.13583e-05
1.06358e-05
9.81197e-06
8.88862e-06
7.86786e-06
6.75207e-06
5.54394e-06
4.24641e-06
2.86266e-06
1.39613e-06
-1.49541e-07
-1.77053e-06
-3.46282e-06
-5.22224e-06
-7.04446e-06
-8.92504e-06
-1.08594e-05
-1.2843e-05
-1.48709e-05
-1.69385e-05
-1.9041e-05
-2.11733e-05
-2.33308e-05
-2.55085e-05
-2.77016e-05
-2.99052e-05
-3.21146e-05
-3.4325e-05
-3.65318e-05
-3.87303e-05
-4.0916e-05
-4.30845e-05
-4.52315e-05
-4.73527e-05
-4.9444e-05
-5.15014e-05
-5.3521e-05
-5.54991e-05
-5.7432e-05
-5.93163e-05
-6.11486e-05
-6.29257e-05
-6.46445e-05
-6.63022e-05
-6.78958e-05
-6.94228e-05
-7.08807e-05
-7.22672e-05
-7.35801e-05
-7.48173e-05
-7.59769e-05
-7.70574e-05
-7.80569e-05
-7.89742e-05
-7.98081e-05
-8.05572e-05
-8.12209e-05
-8.17982e-05
-8.22885e-05
-8.26915e-05
-8.30068e-05
-8.32343e-05
-8.33741e-05
-8.34265e-05
-8.33919e-05
-8.32709e-05
-8.30644e-05
-8.27733e-05
-8.23989e-05
-8.19426e-05
-8.1406e-05
-8.07909e-05
-8.00994e-05
-7.93336e-05
-7.8496e-05
-7.75892e-05
-7.6616e-05
-7.55794e-05
-7.44825e-05
-7.33285e-05
-7.2121e-05
-7.08632e-05
-6.95589e-05
-6.82114e-05
-6.68245e-05
-6.54014e-05
-6.39456e-05
-6.24599e-05
-6.09473e-05
-5.9411e-05
-5.78552e-05
-5.62767e-05
-5.46434e-05
-5.29295e-05
-5.14349e-05
-2.69761e-05
-2.55808e-05
-2.39579e-05
-2.23779e-05
-2.08175e-05
-1.92488e-05
-1.76699e-05
-1.60855e-05
-1.44998e-05
-1.29166e-05
-1.13399e-05
-9.77442e-06
-8.22476e-06
-6.696e-06
-5.19321e-06
-3.7217e-06
-2.28672e-06
-8.93618e-07
4.52354e-07
1.74594e-06
2.98208e-06
4.15576e-06
5.26222e-06
6.29683e-06
7.25525e-06
8.13335e-06
8.92729e-06
9.63352e-06
1.02488e-05
1.07702e-05
1.11952e-05
1.15215e-05
1.17472e-05
1.18708e-05
1.18911e-05
1.18073e-05
1.16191e-05
1.13262e-05
1.0929e-05
1.04281e-05
9.82439e-06
9.11922e-06
8.31418e-06
7.41118e-06
6.41244e-06
5.32046e-06
4.13798e-06
2.86804e-06
1.51387e-06
7.89577e-08
-1.43303e-06
-3.01824e-06
-4.67264e-06
-6.39205e-06
-8.17216e-06
-1.00086e-05
-1.18967e-05
-1.3832e-05
-1.58097e-05
-1.78252e-05
-1.98737e-05
-2.19504e-05
-2.40505e-05
-2.61694e-05
-2.83021e-05
-3.04441e-05
-3.25907e-05
-3.47372e-05
-3.68791e-05
-3.90121e-05
-4.11316e-05
-4.32335e-05
-4.53136e-05
-4.73677e-05
-4.93921e-05
-5.13827e-05
-5.3336e-05
-5.52483e-05
-5.71162e-05
-5.89364e-05
-6.07057e-05
-6.24211e-05
-6.40796e-05
-6.56785e-05
-6.72152e-05
-6.86872e-05
-7.00921e-05
-7.14277e-05
-7.2692e-05
-7.3883e-05
-7.49989e-05
-7.60382e-05
-7.69992e-05
-7.78806e-05
-7.86812e-05
-7.93999e-05
-8.00357e-05
-8.05878e-05
-8.10555e-05
-8.14382e-05
-8.17357e-05
-8.19475e-05
-8.20737e-05
-8.21142e-05
-8.20692e-05
-8.19391e-05
-8.17244e-05
-8.14256e-05
-8.10435e-05
-8.05792e-05
-8.00337e-05
-7.94083e-05
-7.87043e-05
-7.79234e-05
-7.70672e-05
-7.61376e-05
-7.51365e-05
-7.4066e-05
-7.29283e-05
-7.17258e-05
-7.04606e-05
-6.91354e-05
-6.77523e-05
-6.63139e-05
-6.48225e-05
-6.32803e-05
-6.16893e-05
-6.00514e-05
-5.8368e-05
-5.66417e-05
-5.48758e-05
-5.30651e-05
-5.117e-05
-4.9159e-05
-4.73929e-05
-3.16519e-05
-3.00133e-05
-2.81196e-05
-2.62938e-05
-2.45083e-05
-2.2729e-05
-2.0953e-05
-1.91847e-05
-1.74282e-05
-1.56865e-05
-1.39634e-05
-1.22628e-05
-1.05888e-05
-8.94584e-06
-7.33853e-06
-5.77155e-06
-4.24959e-06
-2.77746e-06
-1.35986e-06
-1.53513e-09
1.29296e-06
2.51911e-06
3.67261e-06
4.74929e-06
5.74524e-06
6.65674e-06
7.48034e-06
8.21287e-06
8.85146e-06
9.39351e-06
9.83677e-06
1.01793e-05
1.04195e-05
1.05562e-05
1.05884e-05
1.05157e-05
1.03377e-05
1.00546e-05
9.6669e-06
9.17546e-06
8.5814e-06
7.88619e-06
7.0916e-06
6.19971e-06
5.21289e-06
4.13376e-06
2.96522e-06
1.7104e-06
3.72656e-07
-1.04445e-06
-2.53716e-06
-4.10153e-06
-5.73349e-06
-7.4288e-06
-9.18311e-06
-1.0992e-05
-1.28508e-05
-1.47551e-05
-1.67001e-05
-1.86811e-05
-2.06934e-05
-2.27323e-05
-2.4793e-05
-2.68709e-05
-2.89612e-05
-3.10593e-05
-3.31608e-05
-3.5261e-05
-3.73555e-05
-3.944e-05
-4.15103e-05
-4.35622e-05
-4.55917e-05
-4.75949e-05
-4.95679e-05
-5.1507e-05
-5.34088e-05
-5.52697e-05
-5.70866e-05
-5.88562e-05
-6.05754e-05
-6.22415e-05
-6.38516e-05
-6.54032e-05
-6.68937e-05
-6.83207e-05
-6.96821e-05
-7.09758e-05
-7.21997e-05
-7.33521e-05
-7.44312e-05
-7.54355e-05
-7.63634e-05
-7.72137e-05
-7.79851e-05
-7.86766e-05
-7.9287e-05
-7.98156e-05
-8.02615e-05
-8.06242e-05
-8.09031e-05
-8.10978e-05
-8.1208e-05
-8.12335e-05
-8.11742e-05
-8.10302e-05
-8.08016e-05
-8.04887e-05
-8.00919e-05
-7.96116e-05
-7.90485e-05
-7.84033e-05
-7.76769e-05
-7.68701e-05
-7.5984e-05
-7.50197e-05
-7.39784e-05
-7.28615e-05
-7.16703e-05
-7.04061e-05
-6.90704e-05
-6.76647e-05
-6.61904e-05
-6.46488e-05
-6.30414e-05
-6.13692e-05
-5.96334e-05
-5.78348e-05
-5.59739e-05
-5.40524e-05
-5.20732e-05
-5.00296e-05
-4.7875e-05
-4.55726e-05
-4.35416e-05
-3.63114e-05
-3.44325e-05
-3.22695e-05
-3.01966e-05
-2.81821e-05
-2.61863e-05
-2.42053e-05
-2.22438e-05
-2.03055e-05
-1.83936e-05
-1.65111e-05
-1.46617e-05
-1.28491e-05
-1.10775e-05
-9.35098e-06
-7.6738e-06
-6.05026e-06
-4.48476e-06
-2.98158e-06
-1.54507e-06
-1.79366e-07
1.1114e-06
2.32331e-06
3.45258e-06
4.49566e-06
5.4492e-06
6.3101e-06
7.07552e-06
7.74293e-06
8.31004e-06
8.77493e-06
9.13596e-06
9.39184e-06
9.5416e-06
9.58461e-06
9.5206e-06
9.34961e-06
9.07204e-06
8.68861e-06
8.20038e-06
7.60872e-06
6.91531e-06
6.12215e-06
5.2315e-06
4.24592e-06
3.16822e-06
2.00147e-06
7.48943e-07
-5.85834e-07
-1.99916e-06
-3.48716e-06
-5.04576e-06
-6.67078e-06
-8.3579e-06
-1.01027e-05
-1.19006e-05
-1.3747e-05
-1.56373e-05
-1.75668e-05
-1.95307e-05
-2.15243e-05
-2.35429e-05
-2.55817e-05
-2.76362e-05
-2.97015e-05
-3.17732e-05
-3.38468e-05
-3.59177e-05
-3.79817e-05
-4.00345e-05
-4.2072e-05
-4.40901e-05
-4.60848e-05
-4.80524e-05
-4.99892e-05
-5.18916e-05
-5.37562e-05
-5.55797e-05
-5.73589e-05
-5.90908e-05
-6.07726e-05
-6.24014e-05
-6.39745e-05
-6.54896e-05
-6.69443e-05
-6.83362e-05
-6.96633e-05
-7.09236e-05
-7.21151e-05
-7.32362e-05
-7.42852e-05
-7.52605e-05
-7.61608e-05
-7.69846e-05
-7.77308e-05
-7.83983e-05
-7.8986e-05
-7.94929e-05
-7.99183e-05
-8.02614e-05
-8.05215e-05
-8.06981e-05
-8.07906e-05
-8.07986e-05
-8.07219e-05
-8.05602e-05
-8.03133e-05
-7.99811e-05
-7.95636e-05
-7.90609e-05
-7.84732e-05
-7.78006e-05
-7.70435e-05
-7.62022e-05
-7.52772e-05
-7.42689e-05
-7.31778e-05
-7.20045e-05
-7.07497e-05
-6.94139e-05
-6.79977e-05
-6.65019e-05
-6.49269e-05
-6.32733e-05
-6.15416e-05
-5.97321e-05
-5.7845e-05
-5.58803e-05
-5.38378e-05
-5.17187e-05
-4.95256e-05
-4.72503e-05
-4.48396e-05
-4.2252e-05
-3.99632e-05
-4.09084e-05
-3.87914e-05
-3.636e-05
-3.40387e-05
-3.17918e-05
-2.95744e-05
-2.73818e-05
-2.52191e-05
-2.309e-05
-2.09977e-05
-1.89449e-05
-1.69353e-05
-1.49723e-05
-1.30598e-05
-1.12017e-05
-9.402e-06
-7.66469e-06
-5.99388e-06
-4.39356e-06
-2.86776e-06
-1.42033e-06
-5.50739e-08
1.2244e-06
2.41461e-06
3.51233e-06
4.5145e-06
5.41836e-06
6.22135e-06
6.92125e-06
7.51609e-06
8.00423e-06
8.38434e-06
8.65541e-06
8.81677e-06
8.86807e-06
8.80931e-06
8.64084e-06
8.36329e-06
7.97769e-06
7.48532e-06
6.88784e-06
6.18717e-06
5.38554e-06
4.48547e-06
3.48974e-06
2.40137e-06
1.22366e-06
-3.9917e-08
-1.38565e-06
-2.80964e-06
-4.30784e-06
-5.87603e-06
-7.50986e-06
-9.20488e-06
-1.09565e-05
-1.27601e-05
-1.4611e-05
-1.65044e-05
-1.84355e-05
-2.03996e-05
-2.23919e-05
-2.44075e-05
-2.64418e-05
-2.84901e-05
-3.05477e-05
-3.261e-05
-3.46726e-05
-3.67311e-05
-3.87811e-05
-4.08185e-05
-4.28391e-05
-4.48391e-05
-4.68145e-05
-4.87616e-05
-5.06769e-05
-5.25569e-05
-5.43982e-05
-5.61977e-05
-5.79524e-05
-5.96593e-05
-6.13155e-05
-6.29186e-05
-6.44659e-05
-6.59551e-05
-6.73839e-05
-6.87502e-05
-7.00519e-05
-7.12871e-05
-7.2454e-05
-7.35509e-05
-7.45763e-05
-7.55286e-05
-7.64064e-05
-7.72085e-05
-7.79335e-05
-7.85804e-05
-7.9148e-05
-7.96355e-05
-8.00418e-05
-8.03661e-05
-8.06075e-05
-8.07655e-05
-8.08392e-05
-8.08281e-05
-8.07316e-05
-8.05492e-05
-8.02805e-05
-7.99249e-05
-7.94822e-05
-7.8952e-05
-7.8334e-05
-7.7628e-05
-7.68339e-05
-7.59513e-05
-7.49803e-05
-7.39206e-05
-7.27722e-05
-7.15351e-05
-7.0209e-05
-6.87941e-05
-6.72901e-05
-6.5697e-05
-6.40147e-05
-6.22428e-05
-6.03811e-05
-5.84293e-05
-5.63869e-05
-5.42531e-05
-5.20271e-05
-4.97097e-05
-4.73033e-05
-4.47985e-05
-4.2136e-05
-3.92695e-05
-3.67295e-05
-4.54063e-05
-4.30519e-05
-4.03517e-05
-3.778e-05
-3.52972e-05
-3.28533e-05
-3.0443e-05
-2.80719e-05
-2.57441e-05
-2.34625e-05
-2.12301e-05
-1.90503e-05
-1.69267e-05
-1.4863e-05
-1.28629e-05
-1.09303e-05
-9.06898e-06
-7.28295e-06
-5.57597e-06
-3.95183e-06
-2.41419e-06
-9.66613e-07
3.87548e-07
1.64506e-06
2.80296e-06
3.85845e-06
4.80903e-06
5.65244e-06
6.38673e-06
7.01021e-06
7.52154e-06
7.91967e-06
8.2039e-06
8.37384e-06
8.42944e-06
8.37101e-06
8.19917e-06
7.91488e-06
7.51943e-06
7.01442e-06
6.40177e-06
5.68371e-06
4.86274e-06
3.94165e-06
2.92349e-06
1.81156e-06
6.09391e-07
-6.79283e-07
-2.05052e-06
-3.50019e-06
-5.02404e-06
-6.61763e-06
-8.27642e-06
-9.99577e-06
-1.17709e-05
-1.35972e-05
-1.54695e-05
-1.73832e-05
-1.93333e-05
-2.13149e-05
-2.33232e-05
-2.53532e-05
-2.74003e-05
-2.94595e-05
-3.15264e-05
-3.35963e-05
-3.56647e-05
-3.77272e-05
-3.97795e-05
-4.18175e-05
-4.3837e-05
-4.58343e-05
-4.78054e-05
-4.97469e-05
-5.1655e-05
-5.35265e-05
-5.53581e-05
-5.71468e-05
-5.88895e-05
-6.05835e-05
-6.22261e-05
-6.38147e-05
-6.53469e-05
-6.68205e-05
-6.82331e-05
-6.95829e-05
-7.08678e-05
-7.2086e-05
-7.32358e-05
-7.43155e-05
-7.53236e-05
-7.62587e-05
-7.71193e-05
-7.79042e-05
-7.86122e-05
-7.92419e-05
-7.97925e-05
-8.02627e-05
-8.06516e-05
-8.09582e-05
-8.11816e-05
-8.1321e-05
-8.13754e-05
-8.13441e-05
-8.12262e-05
-8.1021e-05
-8.07278e-05
-8.03458e-05
-7.98744e-05
-7.93127e-05
-7.86603e-05
-7.79163e-05
-7.70801e-05
-7.61512e-05
-7.51288e-05
-7.40123e-05
-7.2801e-05
-7.14943e-05
-7.00915e-05
-6.8592e-05
-6.69949e-05
-6.52996e-05
-6.35052e-05
-6.16109e-05
-5.96156e-05
-5.75186e-05
-5.53185e-05
-5.30141e-05
-5.06041e-05
-4.80889e-05
-4.54709e-05
-4.27395e-05
-3.98294e-05
-3.669e-05
-3.39046e-05
-4.97752e-05
-4.71825e-05
-4.42117e-05
-4.13865e-05
-3.86636e-05
-3.5988e-05
-3.33539e-05
-3.07676e-05
-2.82334e-05
-2.57545e-05
-2.33341e-05
-2.09755e-05
-1.86824e-05
-1.64584e-05
-1.43074e-05
-1.2233e-05
-1.02393e-05
-8.32982e-06
-6.50842e-06
-4.77872e-06
-3.14422e-06
-1.60832e-06
-1.74187e-07
1.15515e-06
2.37692e-06
3.48857e-06
4.48785e-06
5.37273e-06
6.14153e-06
6.79284e-06
7.32559e-06
7.73903e-06
8.03275e-06
8.20666e-06
8.26105e-06
8.19651e-06
8.01398e-06
7.71476e-06
7.30045e-06
6.77297e-06
6.13457e-06
5.38779e-06
4.53546e-06
3.58067e-06
2.5268e-06
1.37743e-06
1.36399e-07
-1.19227e-06
-2.60435e-06
-4.09546e-06
-5.66106e-06
-7.29648e-06
-8.99694e-06
-1.07576e-05
-1.25734e-05
-1.44395e-05
-1.63508e-05
-1.83023e-05
-2.02889e-05
-2.23055e-05
-2.43472e-05
-2.64091e-05
-2.84862e-05
-3.05737e-05
-3.26669e-05
-3.47612e-05
-3.6852e-05
-3.89349e-05
-4.10056e-05
-4.306e-05
-4.5094e-05
-4.71038e-05
-4.90855e-05
-5.10356e-05
-5.29507e-05
-5.48274e-05
-5.66626e-05
-5.84532e-05
-6.01964e-05
-6.18894e-05
-6.35297e-05
-6.51147e-05
-6.66423e-05
-6.811e-05
-6.9516e-05
-7.08582e-05
-7.21347e-05
-7.33437e-05
-7.44837e-05
-7.5553e-05
-7.65501e-05
-7.74737e-05
-7.83223e-05
-7.90947e-05
-7.97895e-05
-8.04057e-05
-8.09421e-05
-8.13976e-05
-8.17711e-05
-8.20615e-05
-8.22678e-05
-8.2389e-05
-8.24241e-05
-8.2372e-05
-8.22318e-05
-8.20025e-05
-8.16831e-05
-8.12726e-05
-8.07698e-05
-8.0174e-05
-7.94839e-05
-7.86985e-05
-7.78168e-05
-7.68377e-05
-7.576e-05
-7.45827e-05
-7.33045e-05
-7.19243e-05
-7.04409e-05
-6.8853e-05
-6.71593e-05
-6.53584e-05
-6.3449e-05
-6.14296e-05
-5.92987e-05
-5.70548e-05
-5.46962e-05
-5.22209e-05
-4.96274e-05
-4.69157e-05
-4.40882e-05
-4.11333e-05
-3.79799e-05
-3.45728e-05
-3.15474e-05
-5.39904e-05
-5.11567e-05
-4.79116e-05
-4.48284e-05
-4.18601e-05
-3.8947e-05
-3.60827e-05
-3.32742e-05
-3.05264e-05
-2.78427e-05
-2.52263e-05
-2.26809e-05
-2.02102e-05
-1.78181e-05
-1.55084e-05
-1.32849e-05
-1.11515e-05
-9.11196e-06
-7.16994e-06
-5.32904e-06
-3.59268e-06
-1.96415e-06
-4.46482e-07
9.57441e-07
2.24503e-06
3.41393e-06
4.46209e-06
5.38773e-06
6.18941e-06
6.86598e-06
7.41665e-06
7.84097e-06
8.13883e-06
8.31046e-06
8.35647e-06
8.27778e-06
8.0757e-06
7.75184e-06
7.30817e-06
6.74697e-06
6.07085e-06
5.28269e-06
4.38569e-06
3.3833e-06
2.27924e-06
1.07744e-06
-2.17926e-07
-1.60249e-06
-3.07172e-06
-4.6209e-06
-6.2452e-06
-7.93966e-06
-9.6992e-06
-1.15187e-05
-1.3393e-05
-1.53168e-05
-1.72849e-05
-1.9292e-05
-2.1333e-05
-2.34025e-05
-2.54954e-05
-2.76068e-05
-2.97314e-05
-3.18644e-05
-3.40011e-05
-3.61366e-05
-3.82664e-05
-4.03861e-05
-4.24912e-05
-4.45777e-05
-4.66416e-05
-4.86788e-05
-5.06857e-05
-5.26588e-05
-5.45946e-05
-5.64899e-05
-5.83416e-05
-6.01466e-05
-6.19023e-05
-6.3606e-05
-6.52551e-05
-6.68472e-05
-6.83802e-05
-6.98519e-05
-7.12603e-05
-7.26035e-05
-7.38798e-05
-7.50873e-05
-7.62246e-05
-7.72901e-05
-7.82823e-05
-7.91999e-05
-8.00416e-05
-8.0806e-05
-8.14919e-05
-8.20981e-05
-8.26235e-05
-8.30669e-05
-8.34271e-05
-8.3703e-05
-8.38934e-05
-8.39973e-05
-8.40134e-05
-8.39407e-05
-8.37778e-05
-8.35236e-05
-8.3177e-05
-8.27365e-05
-8.22009e-05
-8.15688e-05
-8.0839e-05
-8.00099e-05
-7.90802e-05
-7.80483e-05
-7.69127e-05
-7.56719e-05
-7.43241e-05
-7.28678e-05
-7.13012e-05
-6.96225e-05
-6.783e-05
-6.59216e-05
-6.38956e-05
-6.17499e-05
-5.94824e-05
-5.70912e-05
-5.4574e-05
-5.19285e-05
-4.91527e-05
-4.62462e-05
-4.32117e-05
-4.00363e-05
-3.66435e-05
-3.29737e-05
-2.97129e-05
-5.80308e-05
-5.49514e-05
-5.14262e-05
-4.80789e-05
-4.48589e-05
-4.17014e-05
-3.85999e-05
-3.5562e-05
-3.25931e-05
-2.96969e-05
-2.68771e-05
-2.41374e-05
-2.14819e-05
-1.89146e-05
-1.64394e-05
-1.40603e-05
-1.17813e-05
-9.60626e-06
-7.53879e-06
-5.58251e-06
-3.74081e-06
-2.01692e-06
-4.13802e-07
1.06581e-06
2.41945e-06
3.64494e-06
4.74042e-06
5.70432e-06
6.53545e-06
7.23293e-06
7.79624e-06
8.22523e-06
8.5201e-06
8.68144e-06
8.71017e-06
8.60761e-06
8.3754e-06
8.01555e-06
7.53042e-06
6.92268e-06
6.19532e-06
5.35164e-06
4.39523e-06
3.32994e-06
2.15988e-06
8.89372e-07
-4.77017e-07
-1.93455e-06
-3.47832e-06
-5.10326e-06
-6.80417e-06
-8.57578e-06
-1.04127e-05
-1.23095e-05
-1.42606e-05
-1.62606e-05
-1.8304e-05
-2.03853e-05
-2.24989e-05
-2.46395e-05
-2.68018e-05
-2.89805e-05
-3.11704e-05
-3.33665e-05
-3.55638e-05
-3.77576e-05
-3.99431e-05
-4.21158e-05
-4.42714e-05
-4.64057e-05
-4.85145e-05
-5.05941e-05
-5.26407e-05
-5.46508e-05
-5.6621e-05
-5.8548e-05
-6.04288e-05
-6.22606e-05
-6.40405e-05
-6.57661e-05
-6.74348e-05
-6.90444e-05
-7.05927e-05
-7.20777e-05
-7.34974e-05
-7.485e-05
-7.61339e-05
-7.73473e-05
-7.84888e-05
-7.95569e-05
-8.05501e-05
-8.14672e-05
-8.23069e-05
-8.30679e-05
-8.37489e-05
-8.43487e-05
-8.48662e-05
-8.53002e-05
-8.56494e-05
-8.59127e-05
-8.60888e-05
-8.61765e-05
-8.61745e-05
-8.60815e-05
-8.58961e-05
-8.56169e-05
-8.52425e-05
-8.47714e-05
-8.4202e-05
-8.35326e-05
-8.27618e-05
-8.18876e-05
-8.09083e-05
-7.98221e-05
-7.8627e-05
-7.7321e-05
-7.59021e-05
-7.43681e-05
-7.27169e-05
-7.09462e-05
-6.90537e-05
-6.7037e-05
-6.48937e-05
-6.26214e-05
-6.02174e-05
-5.76792e-05
-5.50043e-05
-5.21898e-05
-4.92332e-05
-4.61341e-05
-4.28951e-05
-3.95024e-05
-3.58738e-05
-3.19456e-05
-2.84535e-05
-6.1877e-05
-5.85453e-05
-5.4732e-05
-5.11129e-05
-4.76336e-05
-4.42239e-05
-4.08773e-05
-3.76021e-05
-3.44044e-05
-3.12881e-05
-2.82573e-05
-2.53161e-05
-2.24689e-05
-1.97198e-05
-1.70732e-05
-1.45331e-05
-1.21036e-05
-9.78877e-06
-7.59228e-06
-5.51781e-06
-3.56875e-06
-1.7483e-06
-5.93853e-08
1.49535e-06
2.91357e-06
4.19324e-06
5.33268e-06
6.33055e-06
7.18587e-06