/*--------------------------------*- C++ -*----------------------------------*\
  =========                 |
  \\      /  F ield         | OpenFOAM: The Open Source CFD Toolbox
   \\    /   O peration     | Website:  https://openfoam.org
    \\  /    A nd           | Version:  12
     \\/     M anipulation  |
\*---------------------------------------------------------------------------*/
FoamFile
{
    format      ascii;
    class       surfaceScalarField;
    location    "5";
    object      phi;
}
// * * * * * * * * * * * * * * * * * * * * * * * * * * * * * * * * * * * * * //

dimensions      [0 3 -1 0 0 0 0];

internalField   nonuniform List<scalar> 
36180
(
-5.25531e-12
5.26792e-12
-1.86045e-11
1.33417e-11
-3.67696e-11
1.8173e-11
-5.66729e-11
1.99016e-11
-7.58068e-11
1.91406e-11
-9.2245e-11
1.64376e-11
-1.04497e-10
1.22569e-11
-1.11474e-10
6.97614e-12
-1.12368e-10
8.96842e-13
-1.06631e-10
-5.73749e-12
-9.38887e-11
-1.27408e-11
-7.3924e-11
-1.99656e-11
-4.66283e-11
-2.72945e-11
-1.1994e-11
-3.46351e-11
2.99199e-11
-4.19131e-11
7.8988e-11
-4.90689e-11
1.35042e-10
-5.60535e-11
1.97868e-10
-6.2827e-11
2.67225e-10
-6.93562e-11
3.42838e-10
-7.56136e-11
4.24414e-10
-8.15759e-11
5.11637e-10
-8.72237e-11
6.04178e-10
-9.25406e-11
7.0169e-10
-9.7513e-11
8.0382e-10
-1.02129e-10
9.10199e-10
-1.0638e-10
1.02046e-09
-1.10258e-10
1.13422e-09
-1.13758e-10
1.25109e-09
-1.16874e-10
1.37069e-09
-1.19604e-10
1.49264e-09
-1.21946e-10
1.61654e-09
-1.23899e-10
1.742e-09
-1.25465e-10
1.86865e-09
-1.26646e-10
1.99609e-09
-1.27444e-10
2.12395e-09
-1.27862e-10
2.25186e-09
-1.27908e-10
2.37944e-09
-1.27585e-10
2.50634e-09
-1.26901e-10
2.63221e-09
-1.25863e-10
2.75669e-09
-1.2448e-10
2.87945e-09
-1.2276e-10
3.00016e-09
-1.20715e-10
3.11851e-09
-1.18353e-10
3.2342e-09
-1.15687e-10
3.34693e-09
-1.12727e-10
3.45641e-09
-1.09486e-10
3.56239e-09
-1.05977e-10
3.6646e-09
-1.02212e-10
3.7628e-09
-9.82047e-11
3.85677e-09
-9.39692e-11
3.94629e-09
-8.95191e-11
4.03116e-09
-8.48685e-11
4.11119e-09
-8.00319e-11
4.18622e-09
-7.50236e-11
4.25607e-09
-6.98582e-11
4.32062e-09
-6.45502e-11
4.37974e-09
-5.91143e-11
4.4333e-09
-5.35649e-11
4.48122e-09
-4.79165e-11
4.5234e-09
-4.21834e-11
4.55978e-09
-3.63799e-11
4.5903e-09
-3.05199e-11
4.61492e-09
-2.46173e-11
4.6336e-09
-1.86858e-11
4.64634e-09
-1.27386e-11
4.65313e-09
-6.78889e-12
4.65398e-09
-8.4955e-13
4.64891e-09
5.06691e-12
4.63796e-09
1.09484e-11
4.62118e-09
1.67829e-11
4.59862e-09
2.25588e-11
4.57036e-09
2.82648e-11
4.53647e-09
3.38899e-11
4.49704e-09
3.94235e-11
4.45219e-09
4.48554e-11
4.40201e-09
5.01753e-11
4.34664e-09
5.53737e-11
4.2862e-09
6.04411e-11
4.22083e-09
6.53683e-11
4.15068e-09
7.01464e-11
4.07592e-09
7.47668e-11
3.99669e-09
7.9221e-11
3.91319e-09
8.35008e-11
3.82559e-09
8.75982e-11
3.73409e-09
9.15053e-11
3.63887e-09
9.52144e-11
3.54016e-09
9.8718e-11
3.43815e-09
1.02009e-10
3.33307e-09
1.05079e-10
3.22515e-09
1.07922e-10
3.11462e-09
1.10529e-10
3.00172e-09
1.12895e-10
2.88671e-09
1.15012e-10
2.76984e-09
1.16872e-10
2.65137e-09
1.18468e-10
2.53158e-09
1.19794e-10
2.41073e-09
1.20842e-10
2.28913e-09
1.21604e-10
2.16706e-09
1.22074e-10
2.04481e-09
1.22245e-10
1.9227e-09
1.22109e-10
1.80104e-09
1.21658e-10
1.68016e-09
1.20887e-10
1.56037e-09
1.19786e-10
1.44202e-09
1.18351e-10
1.32545e-09
1.16573e-10
1.211e-09
1.14446e-10
1.09903e-09
1.11965e-10
9.89911e-10
1.09122e-10
8.83997e-10
1.05914e-10
7.81661e-10
1.02336e-10
6.83277e-10
9.83835e-11
5.89221e-10
9.40553e-11
4.99871e-10
8.93505e-11
4.156e-10
8.42705e-11
3.36781e-10
7.8819e-11
2.63777e-10
7.30031e-11
1.96943e-10
6.6834e-11
1.36615e-10
6.03281e-11
8.31061e-11
5.35085e-11
3.66988e-11
4.64071e-11
-2.36887e-12
3.90674e-11
-3.39171e-11
3.1548e-11
-5.78443e-11
2.3927e-11
-7.41536e-11
1.63091e-11
-8.29877e-11
8.83389e-12
-8.46779e-11
1.68996e-12
-7.97921e-11
-4.88612e-12
-6.92359e-11
-1.05564e-11
-5.43347e-11
-1.49015e-11
-3.69626e-11
-1.73723e-11
-1.96954e-11
-1.72675e-11
-5.99094e-12
-1.37047e-11
-5.99099e-12
-1.05092e-11
1.57722e-11
-3.33223e-11
3.61456e-11
-6.16878e-11
4.65378e-11
-9.02138e-11
4.84232e-11
-1.14386e-10
4.3314e-11
-1.3053e-10
3.25789e-11
-1.35678e-10
1.74068e-11
-1.27506e-10
-1.19807e-12
-1.0421e-10
-2.2398e-11
-6.44482e-11
-4.55009e-11
-7.25133e-12
-6.9937e-11
6.80201e-11
-9.52383e-11
1.61744e-10
-1.21018e-10
2.74066e-10
-1.46958e-10
4.04945e-10
-1.72792e-10
5.54175e-10
-1.98299e-10
7.21414e-10
-2.23293e-10
9.06203e-10
-2.47617e-10
1.10798e-09
-2.71138e-10
1.32611e-09
-2.93744e-10
1.55988e-09
-3.15338e-10
1.80849e-09
-3.35838e-10
2.07112e-09
-3.55174e-10
2.3469e-09
-3.73287e-10
2.63489e-09
-3.90127e-10
2.93417e-09
-4.05652e-10
3.24373e-09
-4.19828e-10
3.5626e-09
-4.32626e-10
3.88976e-09
-4.44027e-10
4.22417e-09
-4.54014e-10
4.5648e-09
-4.62577e-10
4.91061e-09
-4.69711e-10
5.26056e-09
-4.75415e-10
5.6136e-09
-4.79694e-10
5.96872e-09
-4.82555e-10
6.32486e-09
-4.84012e-10
6.68104e-09
-4.8408e-10
7.03623e-09
-4.8278e-10
7.38946e-09
-4.80134e-10
7.73977e-09
-4.76169e-10
8.08621e-09
-4.70915e-10
8.42785e-09
-4.64405e-10
8.76381e-09
-4.56673e-10
9.09321e-09
-4.47758e-10
9.41523e-09
-4.377e-10
9.72904e-09
-4.2654e-10
1.00339e-08
-4.14324e-10
1.0329e-08
-4.01098e-10
1.06137e-08
-3.86908e-10
1.08873e-08
-3.71805e-10
1.11492e-08
-3.55839e-10
1.13987e-08
-3.39062e-10
1.16354e-08
-3.21524e-10
1.18586e-08
-3.03281e-10
1.2068e-08
-2.84385e-10
1.2263e-08
-2.6489e-10
1.24433e-08
-2.4485e-10
1.26085e-08
-2.24321e-10
1.27583e-08
-2.03356e-10
1.28924e-08
-1.82009e-10
1.30105e-08
-1.60335e-10
1.31125e-08
-1.38385e-10
1.31982e-08
-1.16214e-10
1.32675e-08
-9.38732e-11
1.33202e-08
-7.14139e-11
1.33564e-08
-4.88868e-11
1.33759e-08
-2.63415e-11
1.33789e-08
-3.82665e-12
1.33654e-08
1.86101e-11
1.33354e-08
4.09221e-11
1.32891e-08
6.3064e-11
1.32267e-08
8.49914e-11
1.31483e-08
1.06661e-10
1.30541e-08
1.28031e-10
1.29445e-08
1.4906e-10
1.28196e-08
1.69708e-10
1.26799e-08
1.89937e-10
1.25255e-08
2.09709e-10
1.2357e-08
2.28988e-10
1.21746e-08
2.47737e-10
1.19789e-08
2.65924e-10
1.17701e-08
2.83513e-10
1.15489e-08
3.00472e-10
1.13156e-08
3.1677e-10
1.10708e-08
3.32375e-10
1.08151e-08
3.47256e-10
1.05489e-08
3.61385e-10
1.02729e-08
3.74731e-10
9.98762e-09
3.87266e-10
9.69374e-09
3.98961e-10
9.39187e-09
4.0979e-10
9.08267e-09
4.19723e-10
8.76683e-09
4.28735e-10
8.44505e-09
4.36798e-10
8.11803e-09
4.43885e-10
7.78653e-09
4.4997e-10
7.4513e-09
4.55026e-10
7.11311e-09
4.59028e-10
6.77277e-09
4.61949e-10
6.43108e-09
4.63763e-10
6.08888e-09
4.64446e-10
5.74701e-09
4.63972e-10
5.40636e-09
4.62317e-10
5.06779e-09
4.59456e-10
4.7322e-09
4.55368e-10
4.40053e-09
4.50029e-10
4.07368e-09
4.43418e-10
3.75261e-09
4.35518e-10
3.43826e-09
4.2631e-10
3.13161e-09
4.15781e-10
2.8336e-09
4.03917e-10
2.54522e-09
3.90713e-10
2.26744e-09
3.76165e-10
2.00122e-09
3.60276e-10
1.74752e-09
3.43055e-10
1.50727e-09
3.24521e-10
1.28138e-09
3.04704e-10
1.07074e-09
2.83645e-10
8.7617e-10
2.61404e-10
6.9844e-10
2.38057e-10
5.38239e-10
2.13709e-10
3.96152e-10
1.88494e-10
2.72635e-10
1.62584e-10
1.67983e-10
1.362e-10
8.22848e-11
1.09625e-10
1.53769e-11
8.32167e-11
-3.32203e-11
5.74308e-11
-6.43742e-11
3.28437e-11
-7.94433e-11
1.01827e-11
-8.03644e-11
-9.63552e-12
-6.97993e-11
-2.54669e-11
-5.12755e-11
-3.58963e-11
-2.93481e-11
-3.91952e-11
-9.76757e-12
-3.32856e-11
-1.57586e-11
-9.83569e-12
2.56032e-11
-2.94097e-11
5.5713e-11
-5.0862e-11
6.79873e-11
-6.79437e-11
6.55004e-11
-7.54738e-11
5.0843e-11
-6.91563e-11
2.62581e-11
-4.54388e-11
-6.3111e-12
-1.44498e-12
-4.51943e-11
6.51248e-11
-8.89679e-11
1.56044e-10
-1.36422e-10
2.72639e-10
-1.86532e-10
4.15827e-10
-2.38428e-10
5.86181e-10
-2.91373e-10
7.83965e-10
-3.44743e-10
1.00918e-09
-3.98004e-10
1.26158e-09
-4.507e-10
1.54073e-09
-5.02443e-10
1.846e-09
-5.52896e-10
2.17664e-09
-6.01773e-10
2.53172e-09
-6.48824e-10
2.91022e-09
-6.93835e-10
3.311e-09
-7.3662e-10
3.73284e-09
-7.77022e-10
4.17446e-09
-8.14903e-10
4.63448e-09
-8.50147e-10
5.11148e-09
-8.82657e-10
5.60401e-09
-9.12351e-10
6.11054e-09
-9.39162e-10
6.62955e-09
-9.63039e-10
7.15948e-09
-9.83941e-10
7.69874e-09
-1.00184e-09
8.24575e-09
-1.01672e-09
8.79892e-09
-1.02858e-09
9.35664e-09
-1.03742e-09
9.91733e-09
-1.04325e-09
1.04794e-08
-1.0461e-09
1.10413e-08
-1.04599e-09
1.16015e-08
-1.04297e-09
1.21585e-08
-1.03709e-09
1.27107e-08
-1.02839e-09
1.32567e-08
-1.01695e-09
1.37951e-08
-1.00282e-09
1.43245e-08
-9.86074e-10
1.48436e-08
-9.66801e-10
1.5351e-08
-9.4508e-10
1.58454e-08
-9.20999e-10
1.63258e-08
-8.94653e-10
1.67908e-08
-8.66138e-10
1.72394e-08
-8.35554e-10
1.76706e-08
-8.03006e-10
1.80834e-08
-7.68601e-10
1.84768e-08
-7.32446e-10
1.88499e-08
-6.94654e-10
1.9202e-08
-6.55338e-10
1.95322e-08
-6.1461e-10
1.98399e-08
-5.72586e-10
2.01244e-08
-5.29382e-10
2.03852e-08
-4.85114e-10
2.06218e-08
-4.39897e-10
2.08336e-08
-3.93848e-10
2.10203e-08
-3.47081e-10
2.11817e-08
-2.99711e-10
2.13173e-08
-2.51851e-10
2.1427e-08
-2.03612e-10
2.15107e-08
-1.55106e-10
2.15683e-08
-1.06441e-10
2.15997e-08
-5.77248e-11
2.16049e-08
-9.06164e-12
2.15841e-08
3.94451e-11
2.15373e-08
8.76945e-11
2.14648e-08
1.35588e-10
2.13667e-08
1.83029e-10
2.12435e-08
2.29924e-10
2.10953e-08
2.76182e-10
2.09227e-08
3.21712e-10
2.07259e-08
3.66428e-10
2.05056e-08
4.10247e-10
2.02623e-08
4.53084e-10
1.99964e-08
4.94861e-10
1.97086e-08
5.355e-10
1.93996e-08
5.74925e-10
1.90701e-08
6.13063e-10
1.87207e-08
6.49841e-10
1.83523e-08
6.8519e-10
1.79656e-08
7.19041e-10
1.75615e-08
7.51329e-10
1.71409e-08
7.81987e-10
1.67047e-08
8.10952e-10
1.62538e-08
8.38162e-10
1.57892e-08
8.63555e-10
1.53119e-08
8.8707e-10
1.4823e-08
9.08649e-10
1.43235e-08
9.28233e-10
1.38146e-08
9.45764e-10
1.32973e-08
9.61186e-10
1.27728e-08
9.74442e-10
1.22423e-08
9.85477e-10
1.17071e-08
9.94236e-10
1.11684e-08
1.00067e-09
1.06275e-08
1.00472e-09
1.00856e-08
1.00633e-09
9.54407e-09
1.00547e-09
9.00431e-09
1.00207e-09
8.46767e-09
9.96097e-10
7.93554e-09
9.87503e-10
7.40932e-09
9.76246e-10
6.89045e-09
9.62292e-10
6.38036e-09
9.45605e-10
5.88051e-09
9.26161e-10
5.39235e-09
9.03937e-10
4.91735e-09
8.7892e-10
4.45695e-09
8.51106e-10
4.01262e-09
8.20504e-10
3.58576e-09
7.87134e-10
3.17778e-09
7.51034e-10
2.79004e-09
7.12259e-10
2.42385e-09
6.7089e-10
2.08046e-09
6.27036e-10
1.76103e-09
5.80838e-10
1.4666e-09
5.3248e-10
1.19812e-09
4.82196e-10
9.56334e-10
4.30277e-10
7.41827e-10
3.77091e-10
5.54935e-10
3.23092e-10
3.95717e-10
2.68843e-10
2.63894e-10
2.15039e-10
1.58793e-10
1.62532e-10
7.92658e-11
1.1237e-10
2.36161e-11
6.58321e-11
-1.04973e-11
2.44775e-11
-2.61626e-11
-9.80178e-12
-2.73315e-11
-3.47277e-11
-1.89612e-11
-4.75658e-11
-7.22827e-12
-4.50188e-11
-2.29869e-11
-5.63174e-12
3.12325e-11
-1.39148e-11
6.39926e-11
-1.75252e-11
7.15959e-11
-1.03603e-11
5.83326e-11
1.27228e-11
2.77588e-11
5.60561e-11
-1.70777e-11
1.23273e-10
-7.35291e-11
2.17372e-10
-1.39295e-10
3.40784e-10
-2.12381e-10
4.95421e-10
-2.91061e-10
6.8273e-10
-3.73841e-10
9.0373e-10
-4.59429e-10
1.15906e-09
-5.46708e-10
1.44903e-09
-6.34706e-10
1.77361e-09
-7.22584e-10
2.13251e-09
-8.09609e-10
2.52522e-09
-8.95146e-10
2.95096e-09
-9.78639e-10
3.40879e-09
-1.0596e-09
3.89758e-09
-1.13762e-09
4.41606e-09
-1.21232e-09
4.96282e-09
-1.28337e-09
5.53631e-09
-1.35051e-09
6.1349e-09
-1.41349e-09
6.75686e-09
-1.47211e-09
7.40039e-09
-1.52619e-09
8.06362e-09
-1.57557e-09
8.74461e-09
-1.62015e-09
9.44139e-09
-1.65982e-09
1.0152e-08
-1.69451e-09
1.08743e-08
-1.72416e-09
1.16063e-08
-1.74874e-09
1.23459e-08
-1.76823e-09
1.30912e-08
-1.78263e-09
1.38399e-08
-1.79196e-09
1.459e-08
-1.79626e-09
1.53396e-08
-1.79557e-09
1.60866e-08
-1.78995e-09
1.6829e-08
-1.77949e-09
1.75648e-08
-1.76426e-09
1.82923e-08
-1.74436e-09
1.90094e-08
-1.71992e-09
1.97143e-08
-1.69105e-09
2.04054e-08
-1.65787e-09
2.10809e-08
-1.62054e-09
2.17391e-08
-1.57919e-09
2.23784e-08
-1.53399e-09
2.29974e-08
-1.4851e-09
2.35945e-08
-1.43268e-09
2.41684e-08
-1.37691e-09
2.47178e-08
-1.31797e-09
2.52414e-08
-1.25605e-09
2.5738e-08
-1.19133e-09
2.62067e-08
-1.12399e-09
2.66463e-08
-1.05425e-09
2.7056e-08
-9.82276e-10
2.74349e-08
-9.08281e-10
2.77823e-08
-8.32456e-10
2.80974e-08
-7.54999e-10
2.83796e-08
-6.76106e-10
2.86285e-08
-5.95972e-10
2.88436e-08
-5.14792e-10
2.90245e-08
-4.32759e-10
2.91709e-08
-3.50064e-10
2.92827e-08
-2.66896e-10
2.93597e-08
-1.83439e-10
2.94019e-08
-9.98784e-11
2.94092e-08
-1.63928e-11
2.93818e-08
6.6841e-11
2.93199e-08
1.4965e-10
2.92236e-08
2.31864e-10
2.90933e-08
3.13319e-10
2.89294e-08
3.93852e-10
2.87322e-08
4.73306e-10
2.85024e-08
5.51527e-10
2.82405e-08
6.28365e-10
2.79471e-08
7.03675e-10
2.76228e-08
7.77313e-10
2.72686e-08
8.49142e-10
2.6885e-08
9.19027e-10
2.64731e-08
9.86838e-10
2.60337e-08
1.05245e-09
2.55678e-08
1.11573e-09
2.50765e-08
1.17656e-09
2.45607e-08
1.23483e-09
2.40216e-08
1.29042e-09
2.34603e-08
1.34322e-09
2.28782e-08
1.39311e-09
2.22763e-08
1.44e-09
2.16561e-08
1.48377e-09
2.10189e-08
1.52432e-09
2.0366e-08
1.56155e-09
1.96989e-08
1.59536e-09
1.9019e-08
1.62565e-09
1.83278e-08
1.65233e-09
1.7627e-08
1.6753e-09
1.6918e-08
1.69448e-09
1.62024e-08
1.70977e-09
1.5482e-08
1.72108e-09
1.47584e-08
1.72833e-09
1.40333e-08
1.73144e-09
1.33085e-08
1.73032e-09
1.25856e-08
1.7249e-09
1.18666e-08
1.71512e-09
1.11532e-08
1.7009e-09
1.04473e-08
1.68218e-09
9.75066e-09
1.65891e-09
9.06521e-09
1.63105e-09
8.3928e-09
1.59857e-09
7.7353e-09
1.56143e-09
7.09458e-09
1.51965e-09
6.47247e-09
1.47321e-09
5.87082e-09
1.42216e-09
5.29141e-09
1.36654e-09
4.73599e-09
1.30645e-09
4.20626e-09
1.24199e-09
3.70383e-09
1.17332e-09
3.23024e-09
1.10063e-09
2.78689e-09
1.02419e-09
2.37506e-09
9.4431e-10
1.99586e-09
8.6139e-10
1.65022e-09
7.75919e-10
1.33882e-09
6.88491e-10
1.06208e-09
5.99831e-10
8.20109e-10
5.10815e-10
6.1265e-10
4.22498e-10
4.39032e-10
3.3615e-10
2.98113e-10
2.53289e-10
1.88213e-10
1.75732e-10
1.0705e-10
1.0564e-10
5.1667e-11
4.55809e-11
1.83462e-11
-1.40713e-12
2.52796e-12
-3.17478e-11
-1.34487e-12
-4.11462e-11
-2.43318e-11
1.95768e-13
3.10362e-11
7.61446e-12
5.65724e-11
2.83705e-11
5.08395e-11
6.77948e-11
1.89068e-11
1.3051e-10
-3.49563e-11
2.20485e-10
-1.07055e-10
3.411e-10
-1.94145e-10
4.95175e-10
-2.93372e-10
6.8502e-10
-4.02226e-10
9.1246e-10
-5.18501e-10
1.17888e-09
-6.40258e-10
1.48524e-09
-7.65789e-10
1.83212e-09
-8.93594e-10
2.21977e-09
-1.02235e-09
2.64808e-09
-1.1509e-09
3.11667e-09
-1.2782e-09
3.62488e-09
-1.40336e-09
4.17181e-09
-1.52557e-09
4.75634e-09
-1.64413e-09
5.37714e-09
-1.75842e-09
6.03271e-09
-1.86789e-09
6.7214e-09
-1.97206e-09
7.44139e-09
-2.07051e-09
8.19077e-09
-2.16287e-09
8.96748e-09
-2.24882e-09
9.76939e-09
-2.3281e-09
1.05943e-08
-2.40047e-09
1.14399e-08
-2.46574e-09
1.23038e-08
-2.52376e-09
1.31837e-08
-2.57441e-09
1.40772e-08
-2.61759e-09
1.49817e-08
-2.65325e-09
1.58948e-08
-2.68135e-09
1.68141e-08
-2.70189e-09
1.7737e-08
-2.71489e-09
1.86611e-08
-2.72039e-09
1.9584e-08
-2.71846e-09
2.05032e-08
-2.70918e-09
2.14164e-08
-2.69267e-09
2.23212e-08
-2.66904e-09
2.32153e-08
-2.63845e-09
2.40964e-08
-2.60106e-09
2.49624e-08
-2.55704e-09
2.58111e-08
-2.50659e-09
2.66405e-08
-2.4499e-09
2.74485e-08
-2.38721e-09
2.82333e-08
-2.31874e-09
2.89929e-08
-2.24473e-09
2.97256e-08
-2.16543e-09
3.04298e-08
-2.08111e-09
3.11039e-08
-1.99202e-09
3.17463e-08
-1.89844e-09
3.23556e-08
-1.80064e-09
3.29305e-08
-1.69893e-09
3.34698e-08
-1.59357e-09
3.39724e-08
-1.48486e-09
3.44372e-08
-1.3731e-09
3.48633e-08
-1.25857e-09
3.52499e-08
-1.14157e-09
3.55962e-08
-1.02239e-09
3.59016e-08
-9.01338e-10
3.61655e-08
-7.78691e-10
3.63875e-08
-6.54742e-10
3.65672e-08
-5.29778e-10
3.67044e-08
-4.04083e-10
3.67989e-08
-2.77937e-10
3.68506e-08
-1.51614e-10
3.68596e-08
-2.53866e-11
3.68259e-08
1.0048e-10
3.67499e-08
2.25723e-10
3.66316e-08
3.50088e-10
3.64716e-08
4.73325e-10
3.62703e-08
5.95188e-10
3.60282e-08
7.15439e-10
3.57459e-08
8.33844e-10
3.5424e-08
9.50177e-10
3.50635e-08
1.06422e-09
3.46651e-08
1.17574e-09
3.42297e-08
1.28455e-09
3.37582e-08
1.39044e-09
3.32519e-08
1.4932e-09
3.27117e-08
1.59264e-09
3.21388e-08
1.68858e-09
3.15346e-08
1.78083e-09
3.09002e-08
1.86921e-09
3.02371e-08
1.95355e-09
2.95466e-08
2.03368e-09
2.88303e-08
2.10942e-09
2.80897e-08
2.18062e-09
2.73263e-08
2.24712e-09
2.65419e-08
2.30877e-09
2.5738e-08
2.36541e-09
2.49165e-08
2.41689e-09
2.4079e-08
2.46307e-09
2.32276e-08
2.50381e-09
2.23639e-08
2.53897e-09
2.149e-08
2.56841e-09
2.06077e-08
2.592e-09
1.97192e-08
2.60963e-09
1.88264e-08
2.62115e-09
1.79313e-08
2.62647e-09
1.70362e-08
2.62545e-09
1.61431e-08
2.61801e-09
1.52542e-08
2.60405e-09
1.43716e-08
2.58347e-09
1.34976e-08
2.55619e-09
1.26343e-08
2.52216e-09
1.17841e-08
2.48132e-09
1.0949e-08
2.43363e-09
1.01314e-08
2.37908e-09
9.33332e-09
2.31768e-09
8.55709e-09
2.24945e-09
7.80478e-09
2.17446e-09
7.07852e-09
2.09281e-09
6.38033e-09
2.00464e-09
5.71219e-09
1.91013e-09
5.07597e-09
1.80954e-09
4.47344e-09
1.70316e-09
3.90623e-09
1.5914e-09
3.37583e-09
1.47471e-09
2.88354e-09
1.35368e-09
2.43045e-09
1.22901e-09
2.0174e-09
1.10154e-09
1.64497e-09
9.72256e-10
1.31343e-09
8.42359e-10
1.02268e-09
7.13251e-10
7.72233e-10
5.86593e-10
5.61184e-10
4.64338e-10
3.88139e-10
3.48776e-10
2.51191e-10
2.42587e-10
1.47875e-10
1.48896e-10
7.51344e-11
7.13337e-11
2.92662e-11
1.412e-11
5.90626e-12
-1.77865e-11
-1.84256e-11
6.73534e-12
2.4301e-11
3.20416e-11
3.12657e-11
8.06821e-11
2.19935e-12
1.5697e-10
-5.73819e-11
2.64753e-10
-1.42739e-10
4.07398e-10
-2.49701e-10
5.87809e-10
-3.74555e-10
8.08426e-10
-5.1399e-10
1.07125e-09
-6.65053e-10
1.37786e-09
-8.25113e-10
1.72943e-09
-9.91824e-10
2.12673e-09
-1.16309e-09
2.57019e-09
-1.33705e-09
3.05987e-09
-1.51204e-09
3.59554e-09
-1.68656e-09
4.17664e-09
-1.8593e-09
4.80235e-09
-2.02907e-09
5.4716e-09
-2.19481e-09
6.18306e-09
-2.3556e-09
6.93522e-09
-2.51058e-09
7.72635e-09
-2.65902e-09
8.55455e-09
-2.80026e-09
9.41776e-09
-2.93373e-09
1.03138e-08
-3.0589e-09
1.12403e-08
-3.17536e-09
1.21949e-08
-3.2827e-09
1.31751e-08
-3.38061e-09
1.41782e-08
-3.46882e-09
1.52015e-08
-3.5471e-09
1.62424e-08
-3.61528e-09
1.7298e-08
-3.67323e-09
1.83656e-08
-3.72084e-09
1.94423e-08
-3.75808e-09
2.05253e-08
-3.78493e-09
2.16119e-08
-3.8014e-09
2.2699e-08
-3.80755e-09
2.3784e-08
-3.80347e-09
2.48641e-08
-3.78927e-09
2.59365e-08
-3.76509e-09
2.69986e-08
-3.7311e-09
2.80477e-08
-3.68751e-09
2.90811e-08
-3.63452e-09
3.00964e-08
-3.57237e-09
3.10912e-08
-3.50134e-09
3.2063e-08
-3.42169e-09
3.30095e-08
-3.33374e-09
3.39286e-08
-3.23779e-09
3.4818e-08
-3.13417e-09
3.56758e-08
-3.02323e-09
3.65e-08
-2.90531e-09
3.72888e-08
-2.7808e-09
3.80404e-08
-2.65006e-09
3.87532e-08
-2.51348e-09
3.94258e-08
-2.37144e-09
4.00566e-08
-2.22435e-09
4.06443e-08
-2.0726e-09
4.11878e-08
-1.9166e-09
4.1686e-08
-1.75675e-09
4.21379e-08
-1.59346e-09
4.25426e-08
-1.42714e-09
4.28995e-08
-1.25818e-09
4.32078e-08
-1.087e-09
4.3467e-08
-9.13996e-10
4.36768e-08
-7.39563e-10
4.38368e-08
-5.64096e-10
4.39469e-08
-3.87983e-10
4.40069e-08
-2.11607e-10
4.40168e-08
-3.53452e-11
4.39769e-08
1.40433e-10
4.38872e-08
3.15363e-10
4.37482e-08
4.89088e-10
4.35603e-08
6.61261e-10
4.33239e-08
8.31539e-10
4.30398e-08
9.99589e-10
4.27085e-08
1.16509e-09
4.2331e-08
1.32771e-09
4.19081e-08
1.48716e-09
4.14407e-08
1.64312e-09
4.09299e-08
1.79531e-09
4.03769e-08
1.94343e-09
3.97829e-08
2.08722e-09
3.91492e-08
2.22639e-09
3.84771e-08
2.36069e-09
3.77681e-08
2.48985e-09
3.70236e-08
2.61363e-09
3.62454e-08
2.73179e-09
3.5435e-08
2.84408e-09
3.45942e-08
2.95027e-09
3.37246e-08
3.05015e-09
3.28283e-08
3.14348e-09
3.1907e-08
3.23006e-09
3.09627e-08
3.30967e-09
2.99975e-08
3.38211e-09
2.90134e-08
3.44718e-09
2.80125e-08
3.50469e-09
2.6997e-08
3.55445e-09
2.59692e-08
3.59628e-09
2.49312e-08
3.62999e-09
2.38854e-08
3.65543e-09
2.28341e-08
3.67243e-09
2.17797e-08
3.68084e-09
2.07247e-08
3.6805e-09
1.96714e-08
3.67129e-09
1.86223e-08
3.65309e-09
1.758e-08
3.62577e-09
1.6547e-08
3.58926e-09
1.55257e-08
3.54347e-09
1.45186e-08
3.48834e-09
1.35284e-08
3.42385e-09
1.25575e-08
3.34999e-09
1.16084e-08
3.26678e-09
1.06836e-08
3.17429e-09
9.78541e-09
3.07262e-09
8.91629e-09
2.96192e-09
8.07853e-09
2.84241e-09
7.27432e-09
2.71434e-09
6.50578e-09
2.57807e-09
5.77491e-09
2.43403e-09
5.08358e-09
2.28273e-09
4.43347e-09
2.12482e-09
3.8261e-09
1.96105e-09
3.26279e-09
1.79233e-09
2.74459e-09
1.61973e-09
2.27233e-09
1.44452e-09
1.84652e-09
1.26817e-09
1.46736e-09
1.09241e-09
1.13471e-09
9.19243e-10
8.48052e-10
7.50995e-10
6.0648e-10
5.90348e-10
4.08671e-10
4.40397e-10
2.52874e-10
3.04692e-10
1.36911e-10
1.87297e-10
5.81726e-11
9.28577e-11
1.36517e-11
2.67341e-11
-4.77399e-12
1.34979e-11
1.08035e-11
5.75905e-11
-1.28271e-11
1.35763e-10
-7.59724e-11
2.51283e-10
-1.72902e-10
4.07129e-10
-2.98585e-10
6.0595e-10
-4.48523e-10
8.50049e-10
-6.18653e-10
1.14136e-09
-8.05304e-10
1.48146e-09
-1.00515e-09
1.87156e-09
-1.21521e-09
2.3125e-09
-1.43276e-09
2.80477e-09
-1.65537e-09
3.34854e-09
-1.88083e-09
3.94365e-09
-2.10714e-09
4.58962e-09
-2.33253e-09
5.28569e-09
-2.55537e-09
6.03081e-09
-2.77419e-09
6.8237e-09
-2.9877e-09
7.66281e-09
-3.19471e-09
8.54641e-09
-3.39417e-09
9.47253e-09
-3.58514e-09
1.0439e-08
-3.76676e-09
1.14436e-08
-3.9383e-09
1.24838e-08
-4.0991e-09
1.3557e-08
-4.24858e-09
1.46606e-08
-4.38625e-09
1.57916e-08
-4.51167e-09
1.69473e-08
-4.62448e-09
1.81246e-08
-4.7244e-09
1.93205e-08
-4.81117e-09
2.05319e-08
-4.88463e-09
2.17557e-08
-4.94465e-09
2.29887e-08
-4.99114e-09
2.42279e-08
-5.02409e-09
2.547e-08
-5.04352e-09
2.67119e-08
-5.04948e-09
2.79506e-08
-5.04208e-09
2.91828e-08
-5.02148e-09
3.04055e-08
-4.98784e-09
3.16158e-08
-4.94139e-09
3.28107e-08
-4.88237e-09
3.39872e-08
-4.81107e-09
3.51426e-08
-4.7278e-09
3.62742e-08
-4.6329e-09
3.73792e-08
-4.52673e-09
3.84552e-08
-4.40968e-09
3.94995e-08
-4.28215e-09
4.051e-08
-4.14458e-09
4.14842e-08
-3.99741e-09
4.24199e-08
-3.84111e-09
4.33153e-08
-3.67615e-09
4.41682e-08
-3.50302e-09
4.4977e-08
-3.32221e-09
4.57398e-08
-3.13426e-09
4.64551e-08
-2.93965e-09
4.71214e-08
-2.73893e-09
4.77374e-08
-2.53262e-09
4.83019e-08
-2.32124e-09
4.88138e-08
-2.10534e-09
4.92721e-08
-1.88543e-09
4.9676e-08
-1.66206e-09
5.00247e-08
-1.43575e-09
5.03178e-08
-1.20704e-09
5.05546e-08
-9.76426e-10
5.0735e-08
-7.44441e-10
5.08586e-08
-5.11593e-10
5.09254e-08
-2.78384e-10
5.09353e-08
-4.53087e-11
5.08886e-08
1.87144e-10
5.07855e-08
4.18496e-10
5.06263e-08
6.48278e-10
5.04115e-08
8.76031e-10
5.01418e-08
1.1013e-09
4.98177e-08
1.32366e-09
4.94401e-08
1.54266e-09
4.90099e-08
1.75789e-09
4.85281e-08
1.96895e-09
4.79958e-08
2.17543e-09
4.74142e-08
2.37695e-09
4.67845e-08
2.57312e-09
4.61081e-08
2.76358e-09
4.53865e-08
2.94798e-09
4.46213e-08
3.12596e-09
4.38139e-08
3.29718e-09
4.29663e-08
3.46131e-09
4.208e-08
3.61804e-09
4.1157e-08
3.76705e-09
4.01993e-08
3.90803e-09
3.92087e-08
4.04069e-09
3.81875e-08
4.16474e-09
3.71377e-08
4.27989e-09
3.60614e-08
4.38589e-09
3.49611e-08
4.48245e-09
3.38389e-08
4.56932e-09
3.26974e-08
4.64626e-09
3.15388e-08
4.71302e-09
3.03657e-08
4.76936e-09
2.91807e-08
4.81506e-09
2.79862e-08
4.84991e-09
2.67849e-08
4.8737e-09
2.55795e-08
4.88624e-09
2.43727e-08
4.88735e-09
2.31671e-08
4.87687e-09
2.19655e-08
4.85464e-09
2.07708e-08
4.82054e-09
1.95856e-08
4.77446e-09
1.84127e-08
4.7163e-09
1.7255e-08
4.64603e-09
1.61153e-08
4.56359e-09
1.49963e-08
4.46902e-09
1.39007e-08
4.36236e-09
1.28313e-08
4.24369e-09
1.17907e-08
4.11319e-09
1.07816e-08
3.97104e-09
9.80647e-09
3.81754e-09
8.86777e-09
3.65303e-09
7.96788e-09
3.47797e-09
7.109e-09
3.2929e-09
6.29325e-09
3.09848e-09
5.52257e-09
2.8955e-09
4.79872e-09
2.6849e-09
4.12328e-09
2.46777e-09
3.4976e-09
2.24541e-09
2.92282e-09
2.01931e-09
2.39979e-09
1.7912e-09
1.92911e-09
1.56309e-09
1.51109e-09
1.33726e-09
1.14573e-09
1.11635e-09
8.32737e-10
9.03343e-10
5.71487e-10
7.01646e-10
3.61064e-10
5.15115e-10
2.00261e-10
3.481e-10
8.76138e-11
2.05504e-10
2.14547e-11
9.28928e-11
1.66807e-11
2.02358e-11
-9.43181e-12
8.32974e-11
-7.58886e-11
1.9155e-10
-1.84225e-10
3.47277e-10
-3.28629e-10
5.52598e-10
-5.03906e-10
8.09417e-10
-7.05341e-10
1.11938e-09
-9.28617e-10
1.48386e-09
-1.16978e-09
1.90391e-09
-1.42521e-09
2.38031e-09
-1.6916e-09
2.91349e-09
-1.96594e-09
3.5036e-09
-2.24548e-09
4.15046e-09
-2.52769e-09
4.85361e-09
-2.81029e-09
5.61228e-09
-3.0912e-09
6.42544e-09
-3.36853e-09
7.29178e-09
-3.64054e-09
8.20976e-09
-3.90568e-09
9.17759e-09
-4.16254e-09
1.01932e-08
-4.40984e-09
1.12545e-08
-4.64643e-09
1.23591e-08
-4.87128e-09
1.35042e-08
-5.08349e-09
1.46874e-08
-5.28223e-09
1.59056e-08
-5.4668e-09
1.71559e-08
-5.63656e-09
1.84352e-08
-5.79099e-09
1.97404e-08
-5.92963e-09
2.10681e-08
-6.0521e-09
2.2415e-08
-6.15812e-09
2.37778e-08
-6.24744e-09
2.51531e-08
-6.31991e-09
2.65374e-08
-6.37542e-09
2.79272e-08
-6.41394e-09
2.93192e-08
-6.43548e-09
3.07098e-08
-6.44013e-09
3.20957e-08
-6.42801e-09
3.34736e-08
-6.39929e-09
3.48399e-08
-6.3542e-09
3.61916e-08
-6.29302e-09
3.75252e-08
-6.21604e-09
3.88378e-08
-6.12362e-09
4.01261e-08
-6.01615e-09
4.13873e-08
-5.89405e-09
4.26183e-08
-5.75778e-09
4.38165e-08
-5.60781e-09
4.4979e-08
-5.44466e-09
4.61033e-08
-5.26887e-09
4.71868e-08
-5.081e-09
4.82273e-08
-4.88162e-09
4.92225e-08
-4.67133e-09
5.01703e-08
-4.45075e-09
5.10686e-08
-4.22051e-09
5.19156e-08
-3.98124e-09
5.27095e-08
-3.7336e-09
5.34488e-08
-3.47824e-09
5.4132e-08
-3.21583e-09
5.47578e-08
-2.94703e-09
5.5325e-08
-2.67251e-09
5.58325e-08
-2.39294e-09
5.62794e-08
-2.10899e-09
5.6665e-08
-1.82133e-09
5.69886e-08
-1.53062e-09
5.72497e-08
-1.23751e-09
5.74479e-08
-9.42664e-10
5.7583e-08
-6.46716e-10
5.76549e-08
-3.50305e-10
5.76637e-08
-5.40551e-11
5.76094e-08
2.41417e-10
5.74924e-08
5.35505e-10
5.73131e-08
8.27618e-10
5.70719e-08
1.11717e-09
5.67696e-08
1.4036e-09
5.64069e-08
1.68634e-09
5.59847e-08
1.96486e-09
5.5504e-08
2.23861e-09
5.49659e-08
2.50709e-09
5.43715e-08
2.76979e-09
5.37223e-08
3.02621e-09
5.30195e-08
3.27588e-09
5.22647e-08
3.51833e-09
5.14596e-08
3.75311e-09
5.06058e-08
3.97977e-09
4.97051e-08
4.19789e-09
4.87594e-08
4.40705e-09
4.77706e-08
4.60683e-09
4.67408e-08
4.79686e-09
4.5672e-08
4.97674e-09
4.45666e-08
5.1461e-09
4.34268e-08
5.30457e-09
4.22549e-08
5.45181e-09
4.10533e-08
5.58747e-09
3.98245e-08
5.71122e-09
3.85711e-08
5.82274e-09
3.72956e-08
5.92172e-09
3.60008e-08
6.00785e-09
3.46893e-08
6.08086e-09
3.33639e-08
6.14045e-09
3.20274e-08
6.18638e-09
3.06827e-08
6.2184e-09
2.93327e-08
6.23626e-09
2.79803e-08
6.23976e-09
2.66285e-08
6.2287e-09
2.52802e-08
6.20291e-09
2.39385e-08
6.16222e-09
2.26065e-08
6.10654e-09
2.1287e-08
6.03574e-09
1.99832e-08
5.94979e-09
1.86982e-08
5.84867e-09
1.74348e-08
5.73238e-09
1.61961e-08
5.60102e-09
1.49851e-08
5.45472e-09
1.38046e-08
5.29366e-09
1.26576e-08
5.11812e-09
1.15467e-08
4.92844e-09
1.04746e-08
4.72506e-09
9.44407e-09
4.50854e-09
8.45746e-09
4.27951e-09
7.51717e-09
4.03877e-09
6.62541e-09
3.78726e-09
5.78424e-09
3.52606e-09
4.99556e-09
3.25645e-09
4.26107e-09
2.9799e-09
3.58226e-09
2.69812e-09
2.96042e-09
2.41304e-09
2.39662e-09
2.12689e-09
1.89168e-09
1.8422e-09
1.44622e-09
1.56181e-09
1.0606e-09
1.28896e-09
7.34978e-10
1.02727e-09
4.693e-10
7.80793e-10
2.63345e-10
5.54055e-10
1.16758e-10
3.52091e-10
2.91123e-11
1.80538e-10
4.57929e-11
2.6834e-11
-3.62654e-11
1.0868e-10
-1.57734e-10
2.46951e-10
-3.22495e-10
4.43052e-10
-5.2473e-10
6.98305e-10
-7.59158e-10
1.01389e-09
-1.02092e-09
1.39079e-09
-1.30552e-09
1.82977e-09
-1.60877e-09
2.33138e-09
-1.92682e-09
2.89588e-09
-2.2561e-09
3.52326e-09
-2.59332e-09
4.21324e-09
-2.93546e-09
4.96528e-09
-3.27973e-09
5.77855e-09
-3.62356e-09
6.65194e-09
-3.9646e-09
7.5841e-09
-4.30069e-09
8.57343e-09
-4.62986e-09
9.61805e-09
-4.95031e-09
1.07159e-08
-5.2604e-09
1.18647e-08
-5.55863e-09
1.3062e-08
-5.84367e-09
1.4305e-08
-6.1143e-09
1.55909e-08
-6.36943e-09
1.69168e-08
-6.60809e-09
1.82794e-08
-6.82944e-09
1.96756e-08
-7.03272e-09
2.11019e-08
-7.2173e-09
2.25549e-08
-7.38262e-09
2.4031e-08
-7.52824e-09
2.55267e-08
-7.65378e-09
2.70382e-08
-7.75897e-09
2.85619e-08
-7.84361e-09
3.00941e-08
-7.90758e-09
3.1631e-08
-7.95083e-09
3.31689e-08
-7.97339e-09
3.47041e-08
-7.97533e-09
3.62329e-08
-7.95682e-09
3.77517e-08
-7.91806e-09
3.92568e-08
-7.85933e-09
4.07447e-08
-7.78096e-09
4.2212e-08
-7.68332e-09
4.36552e-08
-7.56683e-09
4.5071e-08
-7.43197e-09
4.64562e-08
-7.27926e-09
4.78077e-08
-7.10923e-09
4.91224e-08
-6.92249e-09
5.03974e-08
-6.71966e-09
5.16299e-08
-6.50138e-09
5.28172e-08
-6.26835e-09
5.39569e-08
-6.02127e-09
5.50464e-08
-5.76086e-09
5.60835e-08
-5.48788e-09
5.70661e-08
-5.20309e-09
5.79922e-08
-4.90728e-09
5.88598e-08
-4.60123e-09
5.96673e-08
-4.28575e-09
6.04131e-08
-3.96165e-09
6.10958e-08
-3.62974e-09
6.17141e-08
-3.29084e-09
6.2267e-08
-2.94576e-09
6.27533e-08
-2.59534e-09
6.31724e-08
-2.24037e-09
6.35234e-08
-1.88167e-09
6.38059e-08
-1.52005e-09
6.40196e-08
-1.1563e-09
6.41641e-08
-7.91206e-10
6.42393e-08
-4.25549e-10
6.42454e-08
-6.00946e-11
6.41824e-08
3.04404e-10
6.40507e-08
6.67204e-10
6.38507e-08
1.02758e-09
6.35831e-08
1.38482e-09
6.32484e-08
1.73822e-09
6.28477e-08
2.0871e-09
6.23818e-08
2.43079e-09
6.18517e-08
2.76865e-09
6.12588e-08
3.10003e-09
6.06043e-08
3.42432e-09
5.98896e-08
3.74091e-09
5.91162e-08
4.04922e-09
5.82859e-08
4.34867e-09
5.74003e-08
4.6387e-09
5.64613e-08
4.91878e-09
5.54708e-08
5.18839e-09
5.44308e-08
5.44699e-09
5.33435e-08
5.69411e-09
5.22112e-08
5.92926e-09
5.10359e-08
6.15196e-09
4.98203e-08
6.36176e-09
4.85666e-08
6.55822e-09
4.72775e-08
6.74092e-09
4.59556e-08
6.90943e-09
4.46034e-08
7.06335e-09
4.32239e-08
7.20229e-09
4.18197e-08
7.32589e-09
4.03938e-08
7.43377e-09
3.8949e-08
7.5256e-09
3.74885e-08
7.60105e-09
3.6015e-08
7.65979e-09
3.45319e-08
7.70155e-09
3.30421e-08
7.72604e-09
3.15489e-08
7.73301e-09
3.00553e-08
7.72223e-09
2.85647e-08
7.69352e-09
2.70803e-08
7.64668e-09
2.56052e-08
7.58158e-09
2.41428e-08
7.49813e-09
2.26964e-08
7.39626e-09
2.12691e-08
7.27597e-09
1.98642e-08
7.13728e-09
1.84849e-08
6.9803e-09
1.71344e-08
6.8052e-09
1.58159e-08
6.6122e-09
1.45324e-08
6.40164e-09
1.32869e-08
6.17391e-09
1.20824e-08
5.92955e-09
1.09218e-08
5.66917e-09
9.80775e-09
5.39353e-09
8.74299e-09
5.10353e-09
7.73002e-09
4.80023e-09
6.77123e-09
4.48486e-09
5.86885e-09
4.15882e-09
5.025e-09
3.82376e-09
4.24158e-09
3.48154e-09
3.52035e-09
3.13426e-09
2.8629e-09
2.78434e-09
2.27064e-09
2.43446e-09
1.7448e-09
2.08765e-09
1.28646e-09
1.7473e-09
8.96559e-10
1.41717e-09