/*--------------------------------*- C++ -*----------------------------------*\
  =========                 |
  \\      /  F ield         | OpenFOAM: The Open Source CFD Toolbox
   \\    /   O peration     | Website:  https://openfoam.org
    \\  /    A nd           | Version:  12
     \\/     M anipulation  |
\*---------------------------------------------------------------------------*/
FoamFile
{
    format      ascii;
    class       volVectorField;
    location    "5";
    object      U;
}
// * * * * * * * * * * * * * * * * * * * * * * * * * * * * * * * * * * * * * //

dimensions      [0 1 -1 0 0 0 0];

internalField   nonuniform List<vector> 
18225
(
(-9.95911e-08 2.11345e-07 0)
(-7.491e-07 5.22357e-07 0)
(-1.8241e-06 7.16577e-07 0)
(-3.14485e-06 8.0525e-07 0)
(-4.49876e-06 8.1671e-07 0)
(-5.72674e-06 7.71886e-07 0)
(-6.71543e-06 6.87273e-07 0)
(-7.37947e-06 5.75747e-07 0)
(-7.65611e-06 4.47072e-07 0)
(-7.50032e-06 3.08178e-07 0)
(-6.88166e-06 1.64089e-07 0)
(-5.78067e-06 1.83111e-08 0)
(-4.18684e-06 -1.26672e-07 0)
(-2.09653e-06 -2.69158e-07 0)
(4.88252e-07 -4.07927e-07 0)
(3.56109e-06 -5.42146e-07 0)
(7.11189e-06 -6.71204e-07 0)
(1.11277e-05 -7.94683e-07 0)
(1.55929e-05 -9.12267e-07 0)
(2.04901e-05 -1.02374e-06 0)
(2.58001e-05 -1.12893e-06 0)
(3.15023e-05 -1.22772e-06 0)
(3.75748e-05 -1.32002e-06 0)
(4.39948e-05 -1.40578e-06 0)
(5.07385e-05 -1.48493e-06 0)
(5.77817e-05 -1.55747e-06 0)
(6.50994e-05 -1.62338e-06 0)
(7.26661e-05 -1.68267e-06 0)
(8.04562e-05 -1.73534e-06 0)
(8.84436e-05 -1.78144e-06 0)
(9.66023e-05 -1.82099e-06 0)
(0.000104906 -1.85407e-06 0)
(0.000113328 -1.88072e-06 0)
(0.000121843 -1.90104e-06 0)
(0.000130425 -1.91512e-06 0)
(0.000139048 -1.92305e-06 0)
(0.000147686 -1.92495e-06 0)
(0.000156315 -1.92095e-06 0)
(0.00016491 -1.91119e-06 0)
(0.000173446 -1.89581e-06 0)
(0.000181901 -1.87498e-06 0)
(0.000190251 -1.84885e-06 0)
(0.000198473 -1.81761e-06 0)
(0.000206547 -1.78145e-06 0)
(0.000214451 -1.74056e-06 0)
(0.000222164 -1.69513e-06 0)
(0.000229668 -1.64538e-06 0)
(0.000236945 -1.59153e-06 0)
(0.000243975 -1.53378e-06 0)
(0.000250743 -1.47237e-06 0)
(0.000257232 -1.40752e-06 0)
(0.000263429 -1.33946e-06 0)
(0.000269317 -1.26842e-06 0)
(0.000274886 -1.19464e-06 0)
(0.000280122 -1.11835e-06 0)
(0.000285014 -1.03978e-06 0)
(0.000289552 -9.59166e-07 0)
(0.000293728 -8.76738e-07 0)
(0.000297533 -7.92727e-07 0)
(0.000300959 -7.07358e-07 0)
(0.000304001 -6.20856e-07 0)
(0.000306654 -5.33438e-07 0)
(0.000308913 -4.45322e-07 0)
(0.000310774 -3.56718e-07 0)
(0.000312236 -2.67832e-07 0)
(0.000313297 -1.78864e-07 0)
(0.000313956 -9.00105e-08 0)
(0.000314213 -1.45733e-09 0)
(0.00031407 8.65826e-08 0)
(0.000313529 1.73977e-07 0)
(0.000312592 2.60546e-07 0)
(0.000311263 3.46106e-07 0)
(0.000309547 4.305e-07 0)
(0.000307448 5.13577e-07 0)
(0.000304972 5.9519e-07 0)
(0.000302126 6.75196e-07 0)
(0.000298916 7.53458e-07 0)
(0.000295352 8.29845e-07 0)
(0.000291441 9.04229e-07 0)
(0.000287193 9.76488e-07 0)
(0.000282616 1.0465e-06 0)
(0.000277723 1.11416e-06 0)
(0.000272523 1.17935e-06 0)
(0.000267028 1.24195e-06 0)
(0.00026125 1.30188e-06 0)
(0.000255202 1.35901e-06 0)
(0.000248897 1.41325e-06 0)
(0.000242349 1.4645e-06 0)
(0.00023557 1.51265e-06 0)
(0.000228578 1.5576e-06 0)
(0.000221385 1.59925e-06 0)
(0.000214008 1.6375e-06 0)
(0.000206464 1.67223e-06 0)
(0.000198768 1.70334e-06 0)
(0.000190937 1.73072e-06 0)
(0.00018299 1.75425e-06 0)
(0.000174944 1.77381e-06 0)
(0.000166818 1.78928e-06 0)
(0.000158631 1.80052e-06 0)
(0.000150402 1.80741e-06 0)
(0.000142151 1.80981e-06 0)
(0.000133899 1.80755e-06 0)
(0.000125666 1.8005e-06 0)
(0.000117475 1.78849e-06 0)
(0.000109347 1.77135e-06 0)
(0.000101304 1.7489e-06 0)
(9.33698e-05 1.72095e-06 0)
(8.55671e-05 1.68733e-06 0)
(7.79198e-05 1.64781e-06 0)
(7.04522e-05 1.6022e-06 0)
(6.31887e-05 1.55029e-06 0)
(5.61542e-05 1.49183e-06 0)
(4.93738e-05 1.42662e-06 0)
(4.28729e-05 1.35441e-06 0)
(3.66769e-05 1.27498e-06 0)
(3.08112e-05 1.1881e-06 0)
(2.5301e-05 1.09354e-06 0)
(2.01713e-05 9.91128e-07 0)
(1.54463e-05 8.8069e-07 0)
(1.11495e-05 7.62135e-07 0)
(7.30289e-06 6.35461e-07 0)
(3.92678e-06 5.00805e-07 0)
(1.03889e-06 3.58523e-07 0)
(-1.34633e-06 2.09306e-07 0)
(-3.21904e-06 5.43142e-08 0)
(-4.57546e-06 -1.04542e-07 0)
(-5.4199e-06 -2.64289e-07 0)
(-5.76754e-06 -4.20371e-07 0)
(-5.64777e-06 -5.65966e-07 0)
(-5.10888e-06 -6.91326e-07 0)
(-4.2235e-06 -7.82554e-07 0)
(-3.09712e-06 -8.20753e-07 0)
(-1.88765e-06 -7.7912e-07 0)
(-8.28176e-07 -6.14905e-07 0)
(-1.30134e-07 -2.81656e-07 0)
(-1.83266e-07 1.39946e-06 0)
(-1.39492e-06 3.32305e-06 0)
(-3.16333e-06 4.41511e-06 0)
(-5.15877e-06 4.77415e-06 0)
(-7.00812e-06 4.52971e-06 0)
(-8.42479e-06 3.80586e-06 0)
(-9.18694e-06 2.71154e-06 0)
(-9.11886e-06 1.33724e-06 0)
(-8.0828e-06 -2.43062e-07 0)
(-5.97378e-06 -1.97008e-06 0)
(-2.71485e-06 -3.79627e-06 0)
(1.74742e-06 -5.68375e-06 0)
(7.44659e-06 -7.60213e-06 0)
(1.43997e-05 -9.52704e-06 0)
(2.26097e-05 -1.14387e-05 0)
(3.20678e-05 -1.3321e-05 0)
(4.27552e-05 -1.51607e-05 0)
(5.46445e-05 -1.6947e-05 0)
(6.77012e-05 -1.86706e-05 0)
(8.18845e-05 -2.03239e-05 0)
(9.71482e-05 -2.19004e-05 0)
(0.000113442 -2.33949e-05 0)
(0.000130711 -2.48027e-05 0)
(0.000148897 -2.61199e-05 0)
(0.00016794 -2.73434e-05 0)
(0.000187776 -2.84705e-05 0)
(0.000208341 -2.94991e-05 0)
(0.000229567 -3.04274e-05 0)
(0.000251388 -3.12543e-05 0)
(0.000273733 -3.19788e-05 0)
(0.000296532 -3.26004e-05 0)
(0.000319717 -3.31189e-05 0)
(0.000343217 -3.35344e-05 0)
(0.00036696 -3.38475e-05 0)
(0.000390878 -3.40588e-05 0)
(0.0004149 -3.41693e-05 0)
(0.000438957 -3.41804e-05 0)
(0.000462983 -3.40934e-05 0)
(0.000486908 -3.39103e-05 0)
(0.000510669 -3.3633e-05 0)
(0.000534199 -3.32637e-05 0)
(0.000557437 -3.28047e-05 0)
(0.000580321 -3.22587e-05 0)
(0.000602791 -3.16285e-05 0)
(0.00062479 -3.09169e-05 0)
(0.000646263 -3.01271e-05 0)
(0.000667155 -2.92622e-05 0)
(0.000687416 -2.83256e-05 0)
(0.000706996 -2.73208e-05 0)
(0.00072585 -2.62512e-05 0)
(0.000743932 -2.51206e-05 0)
(0.000761202 -2.39326e-05 0)
(0.00077762 -2.26909e-05 0)
(0.00079315 -2.13995e-05 0)
(0.000807759 -2.0062e-05 0)
(0.000821414 -1.86825e-05 0)
(0.000834088 -1.72648e-05 0)
(0.000845754 -1.58127e-05 0)
(0.00085639 -1.43301e-05 0)
(0.000865976 -1.2821e-05 0)
(0.000874493 -1.1289e-05 0)
(0.000881926 -9.73803e-06 0)
(0.000888264 -8.17181e-06 0)
(0.000893495 -6.59402e-06 0)
(0.000897613 -5.00831e-06 0)
(0.000900613 -3.41825e-06 0)
(0.000902493 -1.82734e-06 0)
(0.000903253 -2.39028e-07 0)
(0.000902895 1.34334e-06 0)
(0.000901425 2.91651e-06 0)
(0.000898849 4.47727e-06 0)
(0.000895177 6.02249e-06 0)
(0.00089042 7.54916e-06 0)
(0.000884593 9.05433e-06 0)
(0.000877711 1.05351e-05 0)
(0.000869792 1.19888e-05 0)
(0.000860856 1.34127e-05 0)
(0.000850925 1.48041e-05 0)
(0.000840021 1.61605e-05 0)
(0.000828171 1.74795e-05 0)
(0.000815401 1.87586e-05 0)
(0.000801741 1.99955e-05 0)
(0.000787221 2.1188e-05 0)
(0.000771872 2.23338e-05 0)
(0.000755729 2.34308e-05 0)
(0.000738827 2.44768e-05 0)
(0.000721203 2.54698e-05 0)
(0.000702895 2.64078e-05 0)
(0.000683942 2.72887e-05 0)
(0.000664385 2.81106e-05 0)
(0.000644268 2.88714e-05 0)
(0.000623633 2.95693e-05 0)
(0.000602526 3.02024e-05 0)
(0.000580995 3.07687e-05 0)
(0.000559085 3.12663e-05 0)
(0.000536848 3.16933e-05 0)
(0.000514333 3.20478e-05 0)
(0.000491592 3.23278e-05 0)
(0.000468678 3.25316e-05 0)
(0.000445646 3.26571e-05 0)
(0.00042255 3.27025e-05 0)
(0.000399449 3.26659e-05 0)
(0.000376399 3.25453e-05 0)
(0.00035346 3.2339e-05 0)
(0.000330692 3.20451e-05 0)
(0.000308157 3.16618e-05 0)
(0.000285916 3.11874e-05 0)
(0.000264033 3.06202e-05 0)
(0.000242572 2.99587e-05 0)
(0.000221597 2.92015e-05 0)
(0.000201173 2.83474e-05 0)
(0.000181367 2.73954e-05 0)
(0.000162243 2.63447e-05 0)
(0.000143867 2.51951e-05 0)
(0.000126303 2.39466e-05 0)
(0.000109617 2.25998e-05 0)
(9.38702e-05 2.11562e-05 0)
(7.91233e-05 1.9618e-05 0)
(6.54342e-05 1.79885e-05 0)
(5.28571e-05 1.62726e-05 0)
(4.14415e-05 1.4477e-05 0)
(3.12307e-05 1.26106e-05 0)
(2.22605e-05 1.06854e-05 0)
(1.45568e-05 8.71747e-06 0)
(8.13321e-06 6.72767e-06 0)
(2.98822e-06 4.74366e-06 0)
(-8.98777e-07 2.80166e-06 0)
(-3.57196e-06 9.49096e-07 0)
(-5.10489e-06 -7.52171e-07 0)
(-5.60665e-06 -2.222e-06 0)
(-5.229e-06 -3.35734e-06 0)
(-4.1775e-06 -4.02773e-06 0)
(-2.73377e-06 -4.07182e-06 0)
(-1.28119e-06 -3.29809e-06 0)
(-1.85156e-07 -1.50044e-06 0)
(-1.77184e-07 2.87497e-06 0)
(-1.28718e-06 6.45366e-06 0)
(-2.73272e-06 8.1614e-06 0)
(-4.12258e-06 8.30756e-06 0)
(-5.03605e-06 7.17024e-06 0)
(-5.14385e-06 4.99393e-06 0)
(-4.18379e-06 1.99024e-06 0)
(-1.9416e-06 -1.66045e-06 0)
(1.75597e-06 -5.80597e-06 0)
(7.0454e-06 -1.0319e-05 0)
(1.40303e-05 -1.50931e-05 0)
(2.27855e-05 -2.00398e-05 0)
(3.33606e-05 -2.50852e-05 0)
(4.5783e-05 -3.01673e-05 0)
(6.00611e-05 -3.52342e-05 0)
(7.61862e-05 -4.02423e-05 0)
(9.41348e-05 -4.51544e-05 0)
(0.000113871 -4.99392e-05 0)
(0.000135347 -5.45698e-05 0)
(0.000158506 -5.90235e-05 0)
(0.000183282 -6.32805e-05 0)
(0.000209603 -6.73242e-05 0)
(0.000237388 -7.11402e-05 0)
(0.000266552 -7.47164e-05 0)
(0.000297005 -7.80423e-05 0)
(0.000328654 -8.11094e-05 0)
(0.0003614 -8.39105e-05 0)
(0.000395144 -8.644e-05 0)
(0.000429782 -8.86931e-05 0)
(0.00046521 -9.06668e-05 0)
(0.000501322 -9.23586e-05 0)
(0.00053801 -9.37674e-05 0)
(0.000575168 -9.4893e-05 0)
(0.000612687 -9.5736e-05 0)
(0.00065046 -9.62979e-05 0)
(0.00068838 -9.6581e-05 0)
(0.000726341 -9.65886e-05 0)
(0.000764238 -9.63243e-05 0)
(0.000801967 -9.57927e-05 0)
(0.000839427 -9.49991e-05 0)
(0.000876517 -9.39493e-05 0)
(0.000913141 -9.26496e-05 0)
(0.000949202 -9.11069e-05 0)
(0.00098461 -8.93289e-05 0)
(0.00101927 -8.73233e-05 0)
(0.00105311 -8.50985e-05 0)
(0.00108602 -8.26634e-05 0)
(0.00111795 -8.00269e-05 0)
(0.0011488 -7.71986e-05 0)
(0.00117852 -7.41883e-05 0)
(0.00120702 -7.10058e-05 0)
(0.00123424 -6.76614e-05 0)
(0.00126012 -6.41654e-05 0)
(0.00128461 -6.05285e-05 0)
(0.00130765 -5.67612e-05 0)
(0.00132919 -5.28743e-05 0)
(0.00134919 -4.88785e-05 0)
(0.0013676 -4.47847e-05 0)
(0.0013844 -4.06037e-05 0)
(0.00139954 -3.63461e-05 0)
(0.00141299 -3.20228e-05 0)
(0.00142475 -2.76442e-05 0)
(0.00143477 -2.3221e-05 0)
(0.00144306 -1.87635e-05 0)
(0.00144959 -1.42819e-05 0)
(0.00145436 -9.7864e-06 0)
(0.00145736 -5.28679e-06 0)
(0.00145859 -7.92825e-07 0)
(0.00145807 3.68598e-06 0)
(0.00145578 8.14033e-06 0)
(0.00145175 1.25611e-05 0)
(0.00144599 1.69395e-05 0)
(0.00143852 2.12667e-05 0)
(0.00142935 2.55345e-05 0)
(0.00141852 2.97345e-05 0)
(0.00140604 3.38589e-05 0)
(0.00139196 3.78998e-05 0)
(0.0013763 4.18497e-05 0)
(0.0013591 4.57013e-05 0)
(0.00134041 4.94475e-05 0)
(0.00132025 5.30813e-05 0)
(0.00129869 5.6596e-05 0)
(0.00127577 5.9985e-05 0)
(0.00125153 6.32419e-05 0)
(0.00122603 6.63605e-05 0)
(0.00119933 6.93346e-05 0)
(0.00117148 7.21582e-05 0)
(0.00114255 7.48256e-05 0)
(0.00111259 7.73309e-05 0)
(0.00108167 7.96685e-05 0)
(0.00104987 8.18328e-05 0)
(0.00101724 8.38183e-05 0)
(0.000983864 8.56196e-05 0)
(0.00094981 8.72313e-05 0)
(0.000915154 8.86481e-05 0)
(0.000879975 8.98648e-05 0)
(0.000844351 9.08761e-05 0)
(0.000808364 9.16769e-05 0)
(0.000772098 9.2262e-05 0)
(0.000735637 9.26265e-05 0)
(0.000699069 9.27654e-05 0)
(0.000662482 9.26738e-05 0)
(0.000625967 9.23469e-05 0)
(0.000589616 9.17802e-05 0)
(0.000553521 9.09693e-05 0)
(0.000517778 8.99101e-05 0)
(0.000482482 8.85985e-05 0)
(0.00044773 8.70311e-05 0)
(0.00041362 8.52049e-05 0)
(0.000380251 8.31172e-05 0)
(0.00034772 8.07662e-05 0)
(0.000316126 7.81508e-05 0)
(0.000285567 7.5271e-05 0)
(0.00025614 7.21278e-05 0)
(0.000227941 6.87239e-05 0)
(0.000201064 6.50636e-05 0)
(0.000175597 6.11535e-05 0)
(0.000151629 5.70026e-05 0)
(0.00012924 5.26235e-05 0)
(0.000108506 4.80325e-05 0)
(8.94936e-05 4.32508e-05 0)
(7.22608e-05 3.83057e-05 0)
(5.68534e-05 3.32319e-05 0)
(4.33028e-05 2.80733e-05 0)
(3.16234e-05 2.28849e-05 0)
(2.18088e-05 1.77362e-05 0)
(1.38277e-05 1.2714e-05 0)
(7.62018e-06 7.92647e-06 0)
(3.0915e-06 3.50843e-06 0)
(1.07197e-07 -3.73022e-07 0)
(-1.51309e-06 -3.51204e-06 0)
(-2.00419e-06 -5.65712e-06 0)
(-1.67333e-06 -6.50345e-06 0)
(-9.22274e-07 -5.68224e-06 0)
(-1.52866e-07 -2.74984e-06 0)
(-1.23312e-07 3.99452e-06 0)
(-7.15665e-07 8.53418e-06 0)
(-1.19343e-06 1.01444e-05 0)
(-1.16328e-06 9.32849e-06 0)
(-2.24124e-07 6.51022e-06 0)
(1.94972e-06 2.05181e-06 0)
(5.62526e-06 -3.73359e-06 0)
(1.10243e-05 -1.05759e-05 0)
(1.83289e-05 -1.82429e-05 0)
(2.7685e-05 -2.65357e-05 0)
(3.9205e-05 -3.5284e-05 0)
(5.29715e-05 -4.43419e-05 0)
(6.904e-05 -5.35846e-05 0)
(8.74414e-05 -6.29053e-05 0)
(0.000108185 -7.22119e-05 0)
(0.000131259 -8.14254e-05 0)
(0.000156637 -9.04775e-05 0)
(0.000184274 -9.93093e-05 0)
(0.000214112 -0.00010787 0)
(0.000246081 -0.000116115 0)
(0.000280099 -0.000124006 0)
(0.000316075 -0.000131509 0)
(0.00035391 -0.000138598 0)
(0.000393496 -0.000145245 0)
(0.00043472 -0.000151432 0)
(0.000477461 -0.000157139 0)
(0.000521596 -0.000162352 0)
(0.000566996 -0.000167059 0)
(0.000613529 -0.00017125 0)
(0.000661061 -0.000174918 0)
(0.000709456 -0.000178058 0)
(0.000758574 -0.000180665 0)
(0.000808277 -0.00018274 0)
(0.000858426 -0.000184282 0)
(0.000908881 -0.000185294 0)
(0.000959502 -0.00018578 0)
(0.00101015 -0.000185744 0)
(0.00106069 -0.000185194 0)
(0.00111099 -0.000184137 0)
(0.00116092 -0.000182583 0)
(0.00121034 -0.000180543 0)
(0.00125912 -0.000178029 0)
(0.00130714 -0.000175053 0)
(0.00135429 -0.000171628 0)
(0.00140044 -0.000167771 0)
(0.00144548 -0.000163496 0)
(0.00148929 -0.00015882 0)
(0.00153179 -0.000153759 0)
(0.00157285 -0.000148333 0)
(0.0016124 -0.000142558 0)
(0.00165033 -0.000136454 0)
(0.00168656 -0.000130039 0)
(0.00172102 -0.000123334 0)
(0.00175361 -0.000116359 0)
(0.00178429 -0.000109133 0)
(0.00181297 -0.000101677 0)
(0.00183959 -9.40112e-05 0)
(0.00186412 -8.61561e-05 0)
(0.00188648 -7.81323e-05 0)
(0.00190666 -6.99602e-05 0)
(0.00192459 -6.16602e-05 0)
(0.00194026 -5.32525e-05 0)
(0.00195363 -4.47572e-05 0)
(0.00196468 -3.61941e-05 0)
(0.0019734 -2.75828e-05 0)
(0.00197977 -1.89426e-05 0)
(0.00198379 -1.02926e-05 0)
(0.00198546 -1.65127e-06 0)
(0.00198478 6.96298e-06 0)
(0.00198176 1.55323e-05 0)
(0.00197642 2.4039e-05 0)
(0.00196876 3.24662e-05 0)
(0.00195883 4.0797e-05 0)
(0.00194663 4.90152e-05 0)
(0.00193222 5.71049e-05 0)
(0.00191561 6.50505e-05 0)
(0.00189685 7.28372e-05 0)
(0.001876 8.04502e-05 0)
(0.00185308 8.78752e-05 0)
(0.00182817 9.50985e-05 0)
(0.00180131 0.000102106 0)
(0.00177256 0.000108886 0)
(0.00174199 0.000115424 0)
(0.00170967 0.000121709 0)
(0.00167566 0.000127728 0)
(0.00164003 0.000133469 0)
(0.00160288 0.00013892 0)
(0.00156427 0.000144072 0)
(0.00152429 0.000148911 0)
(0.00148302 0.000153427 0)
(0.00144056 0.00015761 0)
(0.00139699 0.000161449 0)
(0.00135242 0.000164934 0)
(0.00130693 0.000168054 0)
(0.00126063 0.0001708 0)
(0.00121363 0.000173162 0)
(0.00116602 0.000175129 0)
(0.00111791 0.000176692 0)
(0.00106942 0.000177843 0)
(0.00102066 0.000178571 0)
(0.000971732 0.000178869 0)
(0.000922766 0.000178727 0)
(0.000873877 0.000178137 0)
(0.000825184 0.000177091 0)
(0.000776809 0.000175582 0)
(0.000728876 0.000173603 0)
(0.000681508 0.000171148 0)
(0.000634832 0.000168211 0)
(0.000588973 0.000164789 0)
(0.000544057 0.000160878 0)
(0.000500211 0.000156477 0)
(0.00045756 0.000151585 0)
(0.000416227 0.000146205 0)
(0.000376337 0.000140341 0)
(0.000338007 0.000134002 0)
(0.000301356 0.000127197 0)
(0.000266494 0.000119942 0)
(0.000233529 0.000112257 0)
(0.000202559 0.000104168 0)
(0.000173677 9.57083e-05 0)
(0.000146963 8.69194e-05 0)
(0.000122486 7.78532e-05 0)
(0.000100301 6.8574e-05 0)
(8.04472e-05 5.91607e-05 0)
(6.29419e-05 4.97101e-05 0)
(4.77813e-05 4.034e-05 0)
(3.4935e-05 3.1194e-05 0)
(2.4343e-05 2.24462e-05 0)
(1.59109e-05 1.43071e-05 0)
(9.50638e-06 7.03019e-06 0)
(4.9542e-06 9.20166e-07 0)
(2.03056e-06 -3.65919e-06 0)
(4.54413e-07 -6.27374e-06 0)
(-1.22174e-07 -6.40006e-06 0)
(-7.77457e-08 -3.39888e-06 0)
(-5.43496e-08 4.39764e-06 0)
(8.19069e-08 8.69446e-06 0)
(9.42977e-07 9.14451e-06 0)
(2.89202e-06 6.3843e-06 0)
(6.26681e-06 9.51226e-07 0)
(1.13582e-05 -6.69323e-06 0)
(1.84135e-05 -1.6147e-05 0)
(2.76413e-05 -2.70589e-05 0)
(3.9214e-05 -3.91226e-05 0)
(5.32704e-05 -5.20709e-05 0)
(6.99184e-05 -6.5671e-05 0)
(8.92366e-05 -7.97198e-05 0)
(0.000111277 -9.40401e-05 0)
(0.000136066 -0.000108477 0)
(0.000163609 -0.000122896 0)
(0.000193888 -0.000137177 0)
(0.000226868 -0.000151219 0)
(0.000262496 -0.000164929 0)
(0.000300704 -0.000178228 0)
(0.000341407 -0.000191046 0)
(0.000384512 -0.000203322 0)
(0.00042991 -0.000215003 0)
(0.000477484 -0.000226041 0)
(0.000527109 -0.000236398 0)
(0.000578649 -0.000246037 0)
(0.000631964 -0.00025493 0)
(0.000686907 -0.000263051 0)
(0.000743325 -0.000270379 0)
(0.000801061 -0.000276899 0)
(0.000859957 -0.000282596 0)
(0.000919848 -0.000287462 0)
(0.00098057 -0.00029149 0)
(0.00104196 -0.000294677 0)
(0.00110384 -0.000297023 0)
(0.00116606 -0.000298531 0)
(0.00122844 -0.000299206 0)
(0.00129081 -0.000299055 0)
(0.00135303 -0.000298089 0)
(0.00141491 -0.000296319 0)
(0.00147631 -0.000293761 0)
(0.00153706 -0.00029043 0)
(0.00159701 -0.000286345 0)
(0.00165601 -0.000281525 0)
(0.00171392 -0.000275992 0)
(0.00177059 -0.00026977 0)
(0.00182588 -0.000262881 0)
(0.00187967 -0.000255353 0)
(0.00193182 -0.000247212 0)
(0.00198222 -0.000238486 0)
(0.00203074 -0.000229204 0)
(0.00207728 -0.000219395 0)
(0.00212174 -0.00020909 0)
(0.00216401 -0.00019832 0)
(0.002204 -0.000187115 0)
(0.00224162 -0.000175509 0)
(0.0022768 -0.000163534 0)
(0.00230947 -0.000151221 0)
(0.00233955 -0.000138603 0)
(0.00236699 -0.000125714 0)
(0.00239174 -0.000112585 0)
(0.00241374 -9.92489e-05 0)
(0.00243296 -8.57381e-05 0)
(0.00244937 -7.20847e-05 0)
(0.00246293 -5.83202e-05 0)
(0.00247363 -4.4476e-05 0)
(0.00248145 -3.0583e-05 0)
(0.00248639 -1.66717e-05 0)
(0.00248844 -2.77196e-06 0)
(0.0024876 1.10868e-05 0)
(0.0024839 2.48759e-05 0)
(0.00247733 3.8567e-05 0)
(0.00246794 5.21326e-05 0)
(0.00245573 6.55457e-05 0)
(0.00244076 7.87801e-05 0)
(0.00242304 9.181e-05 0)
(0.00240264 0.000104611 0)
(0.0023796 0.000117157 0)
(0.00235397 0.000129427 0)
(0.00232581 0.000141396 0)
(0.00229519 0.000153041 0)
(0.00226217 0.000164342 0)
(0.00222683 0.000175277 0)
(0.00218924 0.000185825 0)
(0.0021495 0.000195966 0)
(0.00210767 0.00020568 0)
(0.00206385 0.000214948 0)
(0.00201815 0.000223751 0)
(0.00197064 0.000232072 0)
(0.00192145 0.000239891 0)
(0.00187066 0.000247192 0)
(0.00181839 0.000253957 0)
(0.00176476 0.00026017 0)
(0.00170987 0.000265814 0)
(0.00165385 0.000270872 0)
(0.00159682 0.00027533 0)
(0.0015389 0.000279172 0)
(0.00148022 0.000282382 0)
(0.00142092 0.000284946 0)
(0.00136112 0.00028685 0)
(0.00130097 0.000288079 0)
(0.00124059 0.00028862 0)
(0.00118014 0.000288461 0)
(0.00111975 0.000287589 0)
(0.00105957 0.000285993 0)
(0.000999744 0.000283662 0)
(0.000940422 0.000280587 0)
(0.000881752 0.00027676 0)
(0.000823884 0.000272175 0)
(0.000766967 0.000266826 0)
(0.000711151 0.000260711 0)
(0.000656585 0.00025383 0)
(0.000603417 0.000246184 0)
(0.000551793 0.000237781 0)
(0.000501856 0.000228629 0)
(0.000453747 0.000218744 0)
(0.000407601 0.000208145 0)
(0.000363549 0.000196859 0)
(0.000321712 0.00018492 0)
(0.000282207 0.000172371 0)
(0.000245139 0.000159265 0)
(0.000210603 0.000145667 0)
(0.00017868 0.000131658 0)
(0.000149436 0.000117334 0)
(0.000122919 0.000102812 0)
(9.91587e-05 8.82305e-05 0)
(7.81609e-05 7.37581e-05 0)
(5.99072e-05 5.95932e-05 0)
(4.4351e-05 4.59721e-05 0)
(3.14155e-05 3.31744e-05 0)
(2.09899e-05 2.15305e-05 0)
(1.29269e-05 1.14289e-05 0)
(7.03991e-06 3.32556e-06 0)
(3.10577e-06 -2.24485e-06 0)
(8.70837e-07 -4.64785e-06 0)
(8.06389e-09 -3.12103e-06 0)
(2.01954e-08 3.94584e-06 0)
(9.80913e-07 6.53437e-06 0)
(3.37327e-06 4.54167e-06 0)
(7.51922e-06 -1.3158e-06 0)
(1.3673e-05 -1.04224e-05 0)
(2.20729e-05 -2.22415e-05 0)
(3.2931e-05 -3.62992e-05 0)
(4.64283e-05 -5.2176e-05 0)
(6.27145e-05 -6.95004e-05 0)
(8.191e-05 -8.7944e-05 0)
(0.000104107 -0.000107216 0)
(0.000129371 -0.000127058 0)
(0.000157743 -0.000147243 0)
(0.000189238 -0.000167568 0)
(0.000223851 -0.000187855 0)
(0.000261553 -0.000207943 0)
(0.000302299 -0.000227693 0)
(0.000346024 -0.000246979 0)
(0.000392647 -0.00026569 0)
(0.000442071 -0.000283729 0)
(0.000494188 -0.000301008 0)
(0.000548873 -0.000317452 0)
(0.000605995 -0.000332993 0)
(0.000665407 -0.000347572 0)
(0.000726959 -0.00036114 0)
(0.000790489 -0.000373651 0)
(0.00085583 -0.00038507 0)
(0.000922808 -0.000395364 0)
(0.000991245 -0.00040451 0)
(0.00106096 -0.000412486 0)
(0.00113176 -0.000419279 0)
(0.00120347 -0.000424878 0)
(0.00127589 -0.000429278 0)
(0.00134883 -0.000432477 0)
(0.0014221 -0.000434479 0)
(0.0014955 -0.000435289 0)
(0.00156886 -0.000434918 0)
(0.00164198 -0.000433379 0)
(0.00171467 -0.00043069 0)
(0.00178676 -0.000426869 0)
(0.00185805 -0.000421941 0)
(0.00192838 -0.00041593 0)
(0.00199757 -0.000408865 0)
(0.00206545 -0.000400775 0)
(0.00213186 -0.000391693 0)
(0.00219664 -0.000381655 0)
(0.00225964 -0.000370696 0)
(0.00232071 -0.000358854 0)
(0.00237972 -0.00034617 0)
(0.00243651 -0.000332684 0)
(0.00249098 -0.000318439 0)
(0.002543 -0.000303478 0)
(0.00259245 -0.000287845 0)
(0.00263923 -0.000271586 0)
(0.00268324 -0.000254746 0)
(0.00272439 -0.000237371 0)
(0.00276259 -0.000219507 0)
(0.00279776 -0.000201202 0)
(0.00282984 -0.000182503 0)
(0.00285877 -0.000163455 0)
(0.00288448 -0.000144106 0)
(0.00290694 -0.000124503 0)
(0.0029261 -0.00010469 0)
(0.00294194 -8.4715e-05 0)
(0.00295443 -6.46219e-05 0)
(0.00296354 -4.44557e-05 0)
(0.00296928 -2.42603e-05 0)
(0.00297164 -4.07894e-06 0)
(0.00297063 1.60458e-05 0)
(0.00296625 3.60721e-05 0)
(0.00295852 5.59593e-05 0)
(0.00294748 7.56672e-05 0)
(0.00293315 9.51567e-05 0)
(0.00291558 0.00011439 0)
(0.00289479 0.000133329 0)
(0.00287086 0.000151938 0)
(0.00284383 0.000170181 0)
(0.00281376 0.000188024 0)
(0.00278073 0.000205434 0)
(0.00274481 0.000222377 0)
(0.00270608 0.000238821 0)
(0.00266462 0.000254736 0)
(0.00262052 0.000270091 0)
(0.00257388 0.000284857 0)
(0.0025248 0.000299006 0)
(0.00247339 0.000312509 0)
(0.00241974 0.000325339 0)
(0.00236398 0.000337469 0)
(0.00230623 0.000348874 0)
(0.0022466 0.000359529 0)
(0.00218522 0.000369408 0)
(0.00212222 0.000378487 0)
(0.00205774 0.000386743 0)
(0.00199192 0.000394153 0)
(0.00192489 0.000400694 0)
(0.0018568 0.000406345 0)
(0.0017878 0.000411084 0)
(0.00171804 0.00041489 0)
(0.00164767 0.000417745 0)
(0.00157685 0.000419628 0)
(0.00150575 0.000420521 0)
(0.00143451 0.000420407 0)
(0.00136332 0.000419271 0)
(0.00129232 0.000417096 0)
(0.0012217 0.00041387 0)
(0.00115161 0.000409581 0)
(0.00108223 0.00040422 0)
(0.00101373 0.000397778 0)
(0.000946284 0.000390251 0)
(0.000880054 0.000381638 0)
(0.000815212 0.000371941 0)
(0.000751925 0.000361166 0)
(0.000690359 0.000349323 0)
(0.000630674 0.00033643 0)
(0.000573029 0.00032251 0)
(0.000517576 0.000307593 0)
(0.000464461 0.00029172 0)
(0.000413823 0.000274939 0)
(0.000365794 0.000257312 0)
(0.000320493 0.000238915 0)
(0.00027803 0.000219837 0)
(0.000238499 0.000200188 0)
(0.000201982 0.000180096 0)
(0.000168543 0.000159715 0)
(0.000138227 0.000139227 0)
(0.000111058 0.000118843 0)
(8.70403e-05 9.88131e-05 0)
(6.61505e-05 7.94287e-05 0)
(4.83417e-05 6.10281e-05 0)
(3.35384e-05 4.40046e-05 0)
(2.16357e-05 2.88133e-05 0)
(1.24995e-05 1.59788e-05 0)
(5.98071e-06 6.1062e-06 0)
(1.93606e-06 -1.0014e-07 0)
(9.63291e-08 -1.81145e-06 0)
(9.4626e-08 2.58514e-06 0)
(1.91398e-06 1.86801e-06 0)
(5.92243e-06 -3.98348e-06 0)
(1.24019e-05 -1.42102e-05 0)
(2.15175e-05 -2.81474e-05 0)
(3.34473e-05 -4.52054e-05 0)
(4.83601e-05 -6.48558e-05 0)
(6.64007e-05 -8.66242e-05 0)
(8.76876e-05 -0.000110085 0)
(0.000112315 -0.000134855 0)
(0.000140351 -0.000160593 0)
(0.000171841 -0.000186991 0)
(0.000206808 -0.000213774 0)
(0.000245251 -0.000240693 0)
(0.000287147 -0.000267526 0)
(0.000332456 -0.000294075 0)
(0.000381116 -0.000320162 0)
(0.000433048 -0.000345626 0)
(0.000488156 -0.000370324 0)
(0.000546329 -0.000394129 0)
(0.000607441 -0.000416928 0)
(0.000671354 -0.000438618 0)
(0.000737918 -0.000459111 0)
(0.000806972 -0.000478329 0)
(0.000878345 -0.000496203 0)
(0.000951857 -0.000512674 0)
(0.00102732 -0.000527691 0)
(0.00110455 -0.000541212 0)
(0.00118334 -0.000553202 0)
(0.00126348 -0.000563633 0)
(0.00134478 -0.000572484 0)
(0.00142702 -0.000579741 0)
(0.00151 -0.000585395 0)
(0.00159349 -0.000589444 0)
(0.00167728 -0.00059189 0)
(0.00176117 -0.000592741 0)
(0.00184494 -0.00059201 0)
(0.00192838 -0.000589714 0)
(0.00201129 -0.000585875 0)
(0.00209345 -0.000580519 0)
(0.00217468 -0.000573676 0)
(0.00225476 -0.000565379 0)
(0.00233351 -0.000555666 0)
(0.00241074 -0.000544576 0)
(0.00248627 -0.000532154 0)
(0.00255992 -0.000518445 0)
(0.00263152 -0.000503497 0)
(0.00270091 -0.000487361 0)
(0.00276793 -0.000470091 0)
(0.00283243 -0.000451741 0)
(0.00289426 -0.000432368 0)
(0.0029533 -0.00041203 0)
(0.00300941 -0.000390785 0)
(0.00306248 -0.000368695 0)
(0.00311239 -0.000345821 0)
(0.00315904 -0.000322224 0)
(0.00320234 -0.000297968 0)
(0.00324221 -0.000273114 0)
(0.00327855 -0.000247725 0)
(0.00331131 -0.000221865 0)
(0.00334042 -0.000195596 0)
(0.00336583 -0.000168982 0)
(0.0033875 -0.000142083 0)
(0.00340539 -0.000114962 0)
(0.00341948 -8.7679e-05 0)
(0.00342974 -6.02951e-05 0)
(0.00343617 -3.28693e-05 0)
(0.00343875 -5.4602e-06 0)
(0.00343751 2.18748e-05 0)
(0.00343245 4.90792e-05 0)
(0.00342359 7.60977e-05 0)
(0.00341096 0.000102876 0)
(0.00339459 0.000129361 0)
(0.00337454 0.000155501 0)
(0.00335085 0.000181246 0)
(0.00332357 0.000206546 0)
(0.00329277 0.000231352 0)
(0.00325853 0.000255619 0)
(0.00322091 0.0002793 0)
(0.00318 0.00030235 0)
(0.0031359 0.000324728 0)
(0.00308869 0.000346389 0)
(0.00303849 0.000367294 0)
(0.00298538 0.000387402 0)
(0.0029295 0.000406674 0)
(0.00287095 0.000425073 0)
(0.00280985 0.000442561 0)
(0.00274635 0.000459104 0)
(0.00268056 0.000474664 0)
(0.00261262 0.00048921 0)
(0.00254269 0.000502706 0)
(0.0024709 0.000515121 0)
(0.0023974 0.000526424 0)
(0.00232235 0.000536583 0)
(0.00224591 0.00054557 0)
(0.00216824 0.000553354 0)
(0.0020895 0.000559908 0)
(0.00200987 0.000565205 0)
(0.00192952 0.00056922 0)
(0.00184862 0.000571926 0)
(0.00176735 0.000573303 0)
(0.00168589 0.000573326 0)
(0.00160442 0.000571976 0)
(0.00152313 0.000569235 0)
(0.00144221 0.000565087 0)
(0.00136184 0.000559517 0)
(0.00128221 0.000552515 0)
(0.00120351 0.000544073 0)
(0.00112592 0.000534188 0)
(0.00104964 0.000522858 0)
(0.000974854 0.00051009 0)
(0.000901741 0.000495893 0)
(0.000830485 0.000480286 0)
(0.000761264 0.000463291 0)
(0.000694254 0.000444943 0)
(0.000629622 0.000425284 0)
(0.000567531 0.000404366 0)
(0.000508136 0.000382256 0)
(0.000451583 0.000359034 0)
(0.00039801 0.000334796 0)
(0.000347541 0.000309657 0)
(0.00030029 0.000283755 0)
(0.000256356 0.000257247 0)
(0.000215824 0.000230323 0)
(0.00017876 0.0002032 0)
(0.000145215 0.000176131 0)
(0.000115218 0.000149408 0)
(8.8782e-05 0.000123368 0)
(6.58956e-05 9.83968e-05 0)
(4.65278e-05 7.49363e-05 0)
(3.06243e-05 5.34904e-05 0)
(1.81106e-05 3.46313e-05 0)
(8.91713e-06 1.90084e-05 0)
(3.01284e-06 7.36471e-06 0)
(1.82406e-07 5.5757e-07 0)
(1.66585e-07 3.0731e-07 0)
(2.84625e-06 -5.36388e-06 0)
(8.49404e-06 -1.65596e-05 0)
(1.73578e-05 -3.25019e-05 0)
(2.95161e-05 -5.24971e-05 0)
(4.50857e-05 -7.59204e-05 0)
(6.41891e-05 -0.000102203 0)
(8.69307e-05 -0.000130829 0)
(0.000113393 -0.000161326 0)
(0.000143638 -0.000193268 0)
(0.000177707 -0.000226268 0)
(0.000215618 -0.000259972 0)
(0.000257371 -0.000294062 0)
(0.000302945 -0.000328247 0)
(0.000352296 -0.000362266 0)
(0.000405365 -0.000395881 0)
(0.000462073 -0.000428877 0)
(0.000522322 -0.000461059 0)
(0.000586 -0.000492253 0)
(0.000652978 -0.0005223 0)
(0.000723114 -0.000551061 0)
(0.000796252 -0.000578408 0)
(0.000872224 -0.00060423 0)
(0.000950852 -0.000628427 0)
(0.00103195 -0.000650912 0)
(0.00111531 -0.00067161 0)
(0.00120074 -0.000690456 0)
(0.00128802 -0.000707395 0)
(0.00137693 -0.000722381 0)
(0.00146726 -0.000735379 0)
(0.00155877 -0.000746361 0)
(0.00165124 -0.000755307 0)
(0.00174443 -0.000762206 0)
(0.00183811 -0.000767053 0)
(0.00193206 -0.000769852 0)
(0.00202603 -0.00077061 0)
(0.0021198 -0.000769345 0)
(0.00221313 -0.000766076 0)
(0.0023058 -0.000760833 0)
(0.00239759 -0.000753647 0)
(0.00248827 -0.000744555 0)
(0.00257763 -0.000733602 0)
(0.00266547 -0.000720832 0)
(0.00275156 -0.000706298 0)
(0.00283572 -0.000690054 0)
(0.00291775 -0.00067216 0)
(0.00299747 -0.000652676 0)
(0.00307469 -0.000631667 0)
(0.00314925 -0.000609202 0)
(0.00322097 -0.00058535 0)
(0.00328972 -0.000560183 0)
(0.00335532 -0.000533776 0)
(0.00341766 -0.000506204 0)
(0.00347659 -0.000477545 0)
(0.003532 -0.000447877 0)
(0.00358378 -0.000417279 0)
(0.00363181 -0.000385832 0)
(0.00367601 -0.000353614 0)
(0.00371629 -0.000320709 0)
(0.00375258 -0.000287195 0)
(0.00378481 -0.000253154 0)
(0.00381291 -0.000218666 0)
(0.00383686 -0.000183811 0)
(0.0038566 -0.000148668 0)
(0.00387211 -0.000113315 0)
(0.00388336 -7.78299e-05 0)
(0.00389035 -4.22894e-05 0)
(0.00389307 -6.76856e-06 0)
(0.00389153 2.86584e-05 0)
(0.00388574 6.39188e-05 0)
(0.00387573 9.89412e-05 0)
(0.00386153 0.000133656 0)
(0.00384318 0.000167994 0)
(0.00382072 0.000201888 0)
(0.00379421 0.000235274 0)
(0.00376372 0.000268088 0)
(0.00372932 0.000300266 0)
(0.00369107 0.000331749 0)
(0.00364908 0.000362477 0)
(0.00360342 0.000392393 0)
(0.00355421 0.000421441 0)
(0.00350153 0.000449566 0)
(0.00344551 0.000476715 0)
(0.00338627 0.000502837 0)
(0.00332392 0.000527881 0)
(0.00325859 0.000551799 0)
(0.00319043 0.000574542 0)
(0.00311957 0.000596064 0)
(0.00304616 0.000616321 0)
(0.00297034 0.000635269 0)
(0.00289228 0.000652865 0)
(0.00281213 0.000669068 0)
(0.00273006 0.000683837 0)
(0.00264625 0.000697133 0)
(0.00256085 0.00070892 0)
(0.00247406 0.00071916 0)
(0.00238605 0.000727818 0)
(0.00229701 0.00073486 0)
(0.00220712 0.000740255 0)
(0.00211658 0.000743972 0)
(0.00202559 0.000745982 0)
(0.00193433 0.000746259 0)
(0.00184301 0.000744778 0)
(0.00175183 0.000741518 0)
(0.001661 0.000736459 0)