/*--------------------------------*- C++ -*----------------------------------*\
  =========                 |
  \\      /  F ield         | OpenFOAM: The Open Source CFD Toolbox
   \\    /   O peration     | Website:  https://openfoam.org
    \\  /    A nd           | Version:  12
     \\/     M anipulation  |
\*---------------------------------------------------------------------------*/
FoamFile
{
    format      ascii;
    class       volScalarField;
    location    "0.15";
    object      p;
}
// * * * * * * * * * * * * * * * * * * * * * * * * * * * * * * * * * * * * * //

dimensions      [0 2 -2 0 0 0 0];

internalField   nonuniform List<scalar> 
400
(
-1.78406e-07
0.000377088
0.000551249
0.000299245
-0.000382936
-0.00144294
-0.00281603
-0.00443197
-0.00621873
-0.00810638
-0.0100273
-0.0119153
-0.0137026
-0.0153193
-0.016693
-0.0177533
-0.0184355
-0.0186871
-0.0185122
-0.0181342
-0.000293791
0.000166391
0.000360192
7.63273e-05
-0.00063517
-0.00169758
-0.00304418
-0.00461051
-0.00633192
-0.00814524
-0.00998897
-0.0118025
-0.0135242
-0.015091
-0.0164378
-0.0175002
-0.0182114
-0.0184945
-0.0182997
-0.0178384
0.00137034
0.00176702
0.0018147
0.00131348
0.000363014
-0.000928256
-0.00248124
-0.00422967
-0.00611242
-0.00807351
-0.0100604
-0.0120218
-0.013905
-0.0156539
-0.0172072
-0.0184983
-0.0194481
-0.0199478
-0.0198981
-0.0194993
0.00584321
0.005846
0.00537838
0.00432152
0.00281463
0.000992242
-0.00105154
-0.00324892
-0.0055406
-0.00788541
-0.0102474
-0.0125931
-0.0148864
-0.0170839
-0.0191291
-0.020952
-0.0224579
-0.0235124
-0.0239759
-0.0239689
0.0136837
0.0127673
0.0112016
0.00908238
0.00659046
0.00387738
0.00104745
-0.00183284
-0.00472649
-0.0076192
-0.0105107
-0.0134051
-0.0163018
-0.0191858
-0.0220192
-0.0247345
-0.0272262
-0.029342
-0.0309003
-0.0318083
0.025552
0.0228912
0.0193483
0.0154461
0.011409
0.00738646
0.0034806
-0.000263801
-0.00385447
-0.00733799
-0.0107846
-0.014272
-0.0178698
-0.0216234
-0.0255387
-0.0295688
-0.0336092
-0.0375079
-0.0410386
-0.0436837
0.0419909
0.0363024
0.0294586
0.0227632
0.0164739
0.0106956
0.00549648
0.000862673
-0.00330563
-0.00717157
-0.0109355
-0.0148095
-0.0189931
-0.0236471
-0.0288685
-0.0346669
-0.0409693
-0.0476645
-0.0544904
-0.0601528
0.0629967
0.0523313
0.0402575
0.0294078
0.0200355
0.0121145
0.00561664
0.000402014
-0.0038024
-0.00736694
-0.0107174
-0.0142973
-0.0185311
-0.0237861
-0.0303306
-0.0382975
-0.0477058
-0.0585689
-0.0706226
-0.0812488
0.0872095
0.0687312
0.0487284
0.0319923
0.0186826
0.00848181
0.00114964
-0.00369504
-0.00662889
-0.00836952
-0.00971261
-0.0114788
-0.0144626
-0.0193787
-0.026798
-0.0370914
-0.0504835
-0.067268
-0.087262
-0.105692
0.110521
0.0802873
0.0487808
0.0241478
0.00627409
-0.00572948
-0.0125164
-0.0148973
-0.0139516
-0.0109492
-0.00726166
-0.00429347
-0.00341776
-0.00590526
-0.0128325
-0.0249995
-0.0430366
-0.0677931
-0.0993374
-0.129536
0.123803
0.0766268
0.0292114
-0.00529025
-0.0276068
-0.0396723
-0.0428908
-0.0387976
-0.0292637
-0.0163919
-0.00240286
0.0104437
0.0199172
0.0238993
0.020506
0.00820226
-0.0143921
-0.0491525
-0.0967257
-0.143941
0.109331
0.0388468
-0.0293292
-0.0748808
-0.0997788
-0.107792
-0.101629
-0.0839962
-0.0579484
-0.0267728
0.00614019
0.037361
0.0634669
0.0811163
0.0871931
0.0789507
0.0536789
0.00767397
-0.0609066
-0.131639
0.0352328
-0.0655814
-0.158743
-0.214149
-0.236192
-0.231808
-0.205915
-0.163028
-0.107875
-0.0452936
0.0198615
0.082716
0.138334
0.181728
0.208006
0.212495
0.190184
0.134153
0.0401753
-0.0613314
-0.153222
-0.290561
-0.409783
-0.468219
-0.475008
-0.442563
-0.379453
-0.292864
-0.189672
-0.0764969
0.0402657
0.154271
0.258942
0.347319
0.412171
0.445902
0.439588
0.380662
0.260105
0.121299
-0.548532
-0.723883
-0.861032
-0.903104
-0.868889
-0.78029
-0.651677
-0.493831
-0.315927
-0.126121
0.0681982
0.259829
0.441161
0.603674
0.73733
0.830307
0.867304
0.825901
0.687175
0.509315
-1.31218
-1.5109
-1.63331
-1.61139
-1.4843
-1.29023
-1.05186
-0.783764
-0.496615
-0.198539
0.104199
0.40594
0.700067
0.977653
1.22665
1.43091
1.56614
1.59243
1.46962
1.2677
-2.73138
-2.89141
-2.90675
-2.71189
-2.38976
-2.00562
-1.5914
-1.16332
-0.729311
-0.292046
0.14834
0.592219
1.03856
1.48301
1.91601
2.31975
2.65927
2.86618
2.85525
2.69339
-5.33453
-5.25661
-4.90856
-4.30771
-3.61165
-2.91183
-2.23962
-1.60023
-0.98831
-0.392893
0.199832
0.80436
1.43407
2.09878
2.80156
3.53313
4.25772
4.88106
5.24224
5.32428
-11.1826
-9.54073
-7.66715
-6.05722
-4.724
-3.6043
-2.65476
-1.83637
-1.10859
-0.431983
0.231224
0.918073
1.66654
2.5156
3.50456
4.66978
6.0497
7.69915
9.60202
11.2636
-29.316
-19.966
-13.208
-9.10227
-6.39378
-4.46386
-3.05231
-1.99195
-1.1516
-0.428672
0.2605
0.995047
1.85884
2.95379
4.41246
6.40296
9.18325
13.3626
20.1807
29.568
)
;

boundaryField
{
    movingWall
    {
        type            zeroGradient;
    }
    fixedWalls
    {
        type            zeroGradient;
    }
    frontAndBack
    {
        type            empty;
    }
}


// ************************************************************************* //
