/*--------------------------------*- C++ -*----------------------------------*\
  =========                 |
  \\      /  F ield         | OpenFOAM: The Open Source CFD Toolbox
   \\    /   O peration     | Website:  https://openfoam.org
    \\  /    A nd           | Version:  12
     \\/     M anipulation  |
\*---------------------------------------------------------------------------*/
FoamFile
{
    format      ascii;
    class       volScalarField;
    location    "9";
    object      epsilon;
}
// * * * * * * * * * * * * * * * * * * * * * * * * * * * * * * * * * * * * * //

dimensions      [0 2 -3 0 0 0 0];

internalField   nonuniform List<scalar> 
5625
(
1.60089e-11
3.02308e-11
6.40855e-11
1.04505e-10
1.50046e-10
1.99617e-10
2.52424e-10
3.07856e-10
3.65411e-10
4.24655e-10
4.85202e-10
5.46693e-10
6.08796e-10
6.71194e-10
7.33586e-10
7.95683e-10
8.57205e-10
9.17886e-10
9.77466e-10
1.0357e-09
1.09234e-09
1.14716e-09
1.19994e-09
1.25046e-09
1.29854e-09
1.34398e-09
1.3866e-09
1.42624e-09
1.46274e-09
1.49596e-09
1.52577e-09
1.55205e-09
1.5747e-09
1.59363e-09
1.60877e-09
1.62004e-09
1.62741e-09
1.63084e-09
1.63032e-09
1.62583e-09
1.61739e-09
1.60501e-09
1.58874e-09
1.56864e-09
1.54477e-09
1.51722e-09
1.48607e-09
1.45146e-09
1.4135e-09
1.37233e-09
1.3281e-09
1.281e-09
1.23119e-09
1.17887e-09
1.12424e-09
1.06754e-09
1.00898e-09
9.48818e-10
8.87303e-10
8.24705e-10
7.61304e-10
6.97395e-10
6.33285e-10
5.69297e-10
5.05771e-10
4.43068e-10
3.81575e-10
3.21717e-10
2.63963e-10
2.08857e-10
1.57062e-10
1.09429e-10
6.71207e-11
3.16663e-11
1.67689e-11
1.0823e-10
5.88772e-11
5.7306e-11
6.84538e-11
8.56039e-11
1.06355e-10
1.29554e-10
1.54537e-10
1.80866e-10
2.08224e-10
2.36355e-10
2.65047e-10
2.94112e-10
3.23381e-10
3.52696e-10
3.81911e-10
4.10886e-10
4.39489e-10
4.67591e-10
4.95073e-10
5.21817e-10
5.47713e-10
5.72654e-10
5.9654e-10
6.19274e-10
6.40766e-10
6.60931e-10
6.7969e-10
6.96968e-10
7.12697e-10
7.26816e-10
7.39269e-10
7.50005e-10
7.58982e-10
7.66164e-10
7.7152e-10
7.75028e-10
7.76671e-10
7.76441e-10
7.74337e-10
7.70358e-10
7.64517e-10
7.56834e-10
7.47334e-10
7.36049e-10
7.2302e-10
7.08294e-10
6.91923e-10
6.73968e-10
6.54497e-10
6.33584e-10
6.11309e-10
5.8776e-10
5.63029e-10
5.37217e-10
5.10431e-10
4.82783e-10
4.54391e-10
4.25382e-10
3.95888e-10
3.66048e-10
3.3601e-10
3.05932e-10
2.75981e-10
2.4634e-10
2.17212e-10
1.88826e-10
1.61456e-10
1.35443e-10
1.11255e-10
8.95947e-11
7.16785e-11
6.00291e-11
6.1688e-11
1.13393e-10
2.40564e-10
1.17917e-10
9.09391e-11
8.58633e-11
9.00203e-11
9.92728e-11
1.11757e-10
1.2646e-10
1.42758e-10
1.60232e-10
1.78577e-10
1.97558e-10
2.16985e-10
2.36698e-10
2.56556e-10
2.76435e-10
2.96219e-10
3.15804e-10
3.35091e-10
3.53989e-10
3.72408e-10
3.90269e-10
4.07491e-10
4.24003e-10
4.39733e-10
4.54618e-10
4.68594e-10
4.81606e-10
4.93601e-10
5.04528e-10
5.14345e-10
5.23011e-10
5.3049e-10
5.36752e-10
5.41769e-10
5.45521e-10
5.47991e-10
5.49167e-10
5.49041e-10
5.47614e-10
5.44883e-10
5.40859e-10
5.35555e-10
5.28989e-10
5.21183e-10
5.12166e-10
5.01971e-10
4.90637e-10
4.78207e-10
4.64729e-10
4.50258e-10
4.34851e-10
4.18573e-10
4.01491e-10
3.83681e-10
3.65221e-10
3.46196e-10
3.26697e-10
3.06819e-10
2.86668e-10
2.66355e-10
2.46002e-10
2.25743e-10
2.05729e-10
1.86131e-10
1.67153e-10
1.49046e-10
1.32134e-10
1.1686e-10
1.03883e-10
9.42684e-11
8.9972e-11
9.53332e-11
1.23634e-10
2.52212e-10
3.97605e-10
1.90746e-10
1.38309e-10
1.19238e-10
1.13409e-10
1.14562e-10
1.20009e-10
1.28345e-10
1.3873e-10
1.50617e-10
1.63617e-10
1.77444e-10
1.91875e-10
2.06728e-10
2.21854e-10
2.37122e-10
2.52418e-10
2.6764e-10
2.82696e-10
2.97499e-10
3.11972e-10
3.2604e-10
3.39635e-10
3.52695e-10
3.65157e-10
3.76967e-10
3.88073e-10
3.98426e-10
4.0798e-10
4.16696e-10
4.24536e-10
4.31465e-10
4.37455e-10
4.42478e-10
4.46513e-10
4.49541e-10
4.51548e-10
4.52524e-10
4.52461e-10
4.51361e-10
4.4922e-10
4.46047e-10
4.41853e-10
4.36651e-10
4.30462e-10
4.23309e-10
4.1522e-10
4.06227e-10
3.96367e-10
3.85681e-10
3.74215e-10
3.62021e-10
3.49153e-10
3.35671e-10
3.21641e-10
3.07134e-10
2.92226e-10
2.77001e-10
2.6155e-10
2.45971e-10
2.30373e-10
2.14881e-10
1.99633e-10
1.8479e-10
1.70547e-10
1.57141e-10
1.44874e-10
1.34155e-10
1.25561e-10
1.19975e-10
1.18873e-10
1.25076e-10
1.45147e-10
2.00207e-10
4.17303e-10
5.72e-10
2.72426e-10
1.93236e-10
1.6054e-10
1.45703e-10
1.40001e-10
1.39789e-10
1.43215e-10
1.49203e-10
1.57064e-10
1.66323e-10
1.76635e-10
1.87736e-10
1.99418e-10
2.11509e-10
2.23866e-10
2.36366e-10
2.48901e-10
2.61376e-10
2.73705e-10
2.8581e-10
2.9762e-10
3.09068e-10
3.20095e-10
3.30642e-10
3.40658e-10
3.50094e-10
3.58905e-10
3.6705e-10
3.74491e-10
3.81194e-10
3.87128e-10
3.92266e-10
3.96583e-10
4.00059e-10
4.02678e-10
4.04426e-10
4.05292e-10
4.05272e-10
4.04365e-10
4.02568e-10
3.99889e-10
3.96337e-10
3.91926e-10
3.86673e-10
3.80599e-10
3.73731e-10
3.66098e-10
3.57734e-10
3.48678e-10
3.38973e-10
3.28668e-10
3.17814e-10
3.06471e-10
2.94701e-10
2.82575e-10
2.70168e-10
2.57564e-10
2.44855e-10
2.32146e-10
2.19551e-10
2.07204e-10
1.95258e-10
1.83895e-10
1.73336e-10
1.63861e-10
1.55836e-10
1.4976e-10
1.46355e-10
1.46753e-10
1.52895e-10
1.68611e-10
2.03062e-10
2.86336e-10
6.01191e-10
7.58982e-10
3.60328e-10
2.53099e-10
2.06663e-10
1.83171e-10
1.71187e-10
1.66001e-10
1.6526e-10
1.67625e-10
1.72254e-10
1.78579e-10
1.86189e-10
1.9478e-10
2.04111e-10
2.13989e-10
2.24256e-10
2.34775e-10
2.45432e-10
2.56123e-10
2.66758e-10
2.77257e-10
2.87545e-10
2.97556e-10
3.07228e-10
3.16506e-10
3.25337e-10
3.33675e-10
3.41477e-10
3.48701e-10
3.55311e-10
3.61275e-10
3.66563e-10
3.71148e-10
3.75007e-10
3.78121e-10
3.80474e-10
3.82053e-10
3.82848e-10
3.82853e-10
3.82069e-10
3.80492e-10
3.78131e-10
3.74992e-10
3.71091e-10
3.66443e-10
3.61069e-10
3.54995e-10
3.48249e-10
3.40865e-10
3.32882e-10
3.24342e-10
3.15293e-10
3.05789e-10
2.95888e-10
2.85654e-10
2.7516e-10
2.64485e-10
2.53716e-10
2.4295e-10
2.32299e-10
2.21888e-10
2.11862e-10
2.02393e-10
1.93689e-10
1.86003e-10
1.79658e-10
1.75084e-10
1.72877e-10
1.73921e-10
1.79623e-10
1.92454e-10
2.17367e-10
2.66392e-10
3.79362e-10
7.99083e-10
9.54957e-10
4.52623e-10
3.16332e-10
2.55951e-10
2.23935e-10
2.0597e-10
1.96202e-10
1.91739e-10
1.90955e-10
1.9284e-10
1.96723e-10
2.02129e-10
2.08704e-10
2.16178e-10
2.24332e-10
2.3299e-10
2.42005e-10
2.51248e-10
2.6061e-10
2.69996e-10
2.79319e-10
2.88503e-10
2.97479e-10
3.06183e-10
3.14558e-10
3.22552e-10
3.30116e-10
3.37207e-10
3.43785e-10
3.49813e-10
3.55259e-10
3.60094e-10
3.64291e-10
3.67828e-10
3.70686e-10
3.72849e-10
3.74303e-10
3.75041e-10
3.75057e-10
3.74351e-10
3.72919e-10
3.70769e-10
3.6791e-10
3.64355e-10
3.6012e-10
3.55228e-10
3.49703e-10
3.43574e-10
3.36877e-10
3.29649e-10
3.21935e-10
3.13785e-10
3.05251e-10
2.96396e-10
2.87286e-10
2.77997e-10
2.68614e-10
2.59228e-10
2.49947e-10
2.40891e-10
2.32195e-10
2.2402e-10
2.16555e-10
2.10029e-10
2.04732e-10
2.01035e-10
1.99437e-10
2.00643e-10
2.05711e-10
2.16352e-10
2.35608e-10
2.69644e-10
3.33543e-10
4.77442e-10
1.00738e-09
1.157e-09
5.4787e-10
3.81806e-10
3.07317e-10
2.66839e-10
2.43077e-10
2.28984e-10
2.21097e-10
2.17485e-10
2.16961e-10
2.18743e-10
2.22285e-10
2.27186e-10
2.33138e-10
2.399e-10
2.47275e-10
2.55102e-10
2.63242e-10
2.71578e-10
2.80007e-10
2.88436e-10
2.96787e-10
3.04985e-10
3.12965e-10
3.20669e-10
3.28041e-10
3.35033e-10
3.41601e-10
3.47702e-10
3.53302e-10
3.58367e-10
3.62867e-10
3.66777e-10
3.70073e-10
3.72737e-10
3.74753e-10
3.76109e-10
3.76795e-10
3.76806e-10
3.76144e-10
3.74804e-10
3.72794e-10
3.70123e-10
3.66806e-10
3.6286e-10
3.58306e-10
3.5317e-10
3.47483e-10
3.4128e-10
3.34603e-10
3.27495e-10
3.2001e-10
3.12205e-10
3.04144e-10
2.95898e-10
2.87546e-10
2.79177e-10
2.70891e-10
2.628e-10
2.55034e-10
2.47741e-10
2.41097e-10
2.35312e-10
2.30642e-10
2.27412e-10
2.26043e-10
2.2711e-10
2.31433e-10
2.40258e-10
2.55618e-10
2.8116e-10
3.24321e-10
4.03363e-10
5.79109e-10
1.22309e-09
1.36261e-09
6.44864e-10
4.48621e-10
3.59943e-10
3.11066e-10
2.81649e-10
2.63419e-10
2.52328e-10
2.46125e-10
2.43441e-10
2.43378e-10
2.45311e-10
2.4879e-10
2.53471e-10
2.59085e-10
2.65417e-10
2.72289e-10
2.79553e-10
2.8708e-10
2.94761e-10
3.02498e-10
3.10206e-10
3.17809e-10
3.25238e-10
3.32432e-10
3.39334e-10
3.45893e-10
3.52064e-10
3.57806e-10
3.63081e-10
3.67854e-10
3.72098e-10
3.75785e-10
3.78892e-10
3.81402e-10
3.83296e-10
3.84564e-10
3.85197e-10
3.85189e-10
3.84542e-10
3.83252e-10
3.81328e-10
3.78781e-10
3.75625e-10
3.71877e-10
3.67561e-10
3.62704e-10
3.57337e-10
3.51499e-10
3.4523e-10
3.38579e-10
3.316e-10
3.24353e-10
3.16906e-10
3.09334e-10
3.01721e-10
2.94163e-10
2.86764e-10
2.79648e-10
2.72952e-10
2.66838e-10
2.61498e-10
2.57162e-10
2.54115e-10
2.52718e-10
2.53447e-10
2.56957e-10
2.64189e-10
2.76586e-10
2.96516e-10
3.28254e-10
3.80544e-10
4.74908e-10
6.83106e-10
1.44364e-09
1.56963e-09
7.42568e-10
5.1602e-10
4.13175e-10
3.55988e-10
3.21047e-10
2.98839e-10
2.8472e-10
2.76117e-10
2.7147e-10
2.69761e-10
2.70288e-10
2.72544e-10
2.7615e-10
2.80809e-10
2.86285e-10
2.92384e-10
2.98945e-10
3.05832e-10
3.12925e-10
3.20123e-10
3.27335e-10
3.34479e-10
3.41486e-10
3.48289e-10
3.54831e-10
3.6106e-10
3.66928e-10
3.72393e-10
3.77416e-10
3.81963e-10
3.86005e-10
3.89513e-10
3.92467e-10
3.94845e-10
3.96633e-10
3.97819e-10
3.98394e-10
3.98353e-10
3.97699e-10
3.96427e-10
3.94549e-10
3.92074e-10
3.89017e-10
3.85399e-10
3.81243e-10
3.76578e-10
3.71437e-10
3.6586e-10
3.5989e-10
3.53578e-10
3.46981e-10
3.40162e-10
3.33193e-10
3.26153e-10
3.19132e-10
3.1223e-10
3.05561e-10
2.99255e-10
2.93461e-10
2.88354e-10
2.84143e-10
2.81078e-10
2.79474e-10
2.79732e-10
2.82384e-10
2.88168e-10
2.98151e-10
3.13976e-10
3.38358e-10
3.76208e-10
4.376e-10
5.47359e-10
7.88304e-10
1.66666e-09
1.77617e-09
8.40078e-10
5.8336e-10
4.66467e-10
4.01097e-10
3.60769e-10
3.34731e-10
3.1774e-10
3.06899e-10
3.00453e-10
2.97264e-10
2.9655e-10
2.97748e-10
3.00439e-10
3.043e-10
3.09071e-10
3.14543e-10
3.20543e-10
3.26923e-10
3.33557e-10
3.40337e-10
3.47166e-10
3.53961e-10
3.60645e-10
3.67151e-10
3.73419e-10
3.79395e-10
3.8503e-10
3.90281e-10
3.95107e-10
3.99475e-10
4.03353e-10
4.06715e-10
4.09538e-10
4.11802e-10
4.13492e-10
4.14596e-10
4.15106e-10
4.15018e-10
4.14334e-10
4.13052e-10
4.11181e-10
4.08735e-10
4.05729e-10
4.02185e-10
3.98126e-10
3.93583e-10
3.88593e-10
3.83195e-10
3.77437e-10
3.71371e-10
3.65057e-10
3.58563e-10
3.51963e-10
3.45342e-10
3.38793e-10
3.32425e-10
3.26358e-10
3.20731e-10
3.15704e-10
3.11466e-10
3.08242e-10
3.06305e-10
3.06001e-10
3.07769e-10
3.12203e-10
3.20122e-10
3.32723e-10
3.51853e-10
3.80575e-10
4.24442e-10
4.94862e-10
6.19968e-10
8.93657e-10
1.88997e-09
1.98058e-09
9.36615e-10
6.50087e-10
5.19358e-10
4.45974e-10
4.0041e-10
3.70689e-10
3.50972e-10
3.38036e-10
3.29935e-10
3.25409e-10
3.23594e-10
3.23873e-10
3.25783e-10
3.28975e-10
3.33168e-10
3.38135e-10
3.4369e-10
3.49674e-10
3.55954e-10
3.62415e-10
3.68955e-10
3.75485e-10
3.81927e-10
3.8821e-10
3.94272e-10
4.00056e-10
4.05513e-10
4.10597e-10
4.15268e-10
4.19491e-10
4.23235e-10
4.26472e-10
4.2918e-10
4.31339e-10
4.32934e-10
4.33953e-10
4.34389e-10
4.3424e-10
4.33505e-10
4.32185e-10
4.30291e-10
4.27836e-10
4.24838e-10
4.21318e-10
4.17303e-10
4.12825e-10
4.07922e-10
4.02636e-10
3.97016e-10
3.91119e-10
3.85008e-10
3.78752e-10
3.72431e-10
3.66133e-10
3.5996e-10
3.54023e-10
3.48453e-10
3.43395e-10
3.39023e-10
3.35538e-10
3.33182e-10
3.32255e-10
3.33127e-10
3.36284e-10
3.42379e-10
3.52313e-10
3.67411e-10
3.89728e-10
4.22672e-10
4.72437e-10
5.51753e-10
6.92038e-10
9.98181e-10
2.11149e-09
2.18147e-09
1.03151e-09
7.15731e-10
5.71463e-10
4.90271e-10
4.39642e-10
4.06388e-10
3.84084e-10
3.69188e-10
3.59562e-10
3.53824e-10
3.51031e-10
3.50509e-10
3.51754e-10
3.5439e-10
3.58111e-10
3.62675e-10
3.67881e-10
3.73561e-10
3.79574e-10
3.85797e-10
3.92124e-10
3.9846e-10
4.04725e-10
4.10844e-10
4.16753e-10
4.22393e-10
4.27713e-10
4.32668e-10
4.37215e-10
4.41319e-10
4.44948e-10
4.48075e-10
4.50677e-10
4.52735e-10
4.54234e-10
4.55163e-10
4.55514e-10
4.55287e-10
4.54481e-10
4.53098e-10
4.51151e-10
4.48654e-10
4.45624e-10
4.42086e-10
4.38069e-10
4.33604e-10
4.28733e-10
4.23501e-10
4.17958e-10
4.12164e-10
4.06184e-10
4.00093e-10
3.93974e-10
3.8792e-10
3.82038e-10
3.76446e-10
3.71281e-10
3.667e-10
3.62886e-10
3.60054e-10
3.58467e-10
3.58443e-10
3.60385e-10
3.64826e-10
3.72469e-10
3.84305e-10
4.01786e-10
4.27168e-10
4.64202e-10
5.19713e-10
6.07731e-10
7.62907e-10
1.10093e-09
2.32923e-09
2.37768e-09
1.12423e-09
7.79909e-10
6.22467e-10
5.33708e-10
4.78199e-10
4.41568e-10
4.16817e-10
4.00088e-10
3.89056e-10
3.82221e-10
3.78559e-10
3.7734e-10
3.78022e-10
3.80194e-10
3.83534e-10
3.87781e-10
3.9272e-10
3.98174e-10
4.03992e-10
4.10044e-10
4.16219e-10
4.22419e-10
4.28558e-10
4.3456e-10
4.40357e-10
4.45891e-10
4.51106e-10
4.55958e-10
4.60403e-10
4.64405e-10
4.67932e-10
4.70957e-10
4.73457e-10
4.75414e-10
4.76811e-10
4.7764e-10
4.77893e-10
4.77571e-10
4.76672e-10
4.75203e-10
4.73174e-10
4.70601e-10
4.67506e-10
4.63911e-10
4.59848e-10
4.55353e-10
4.50465e-10
4.45234e-10
4.39713e-10
4.33964e-10
4.28056e-10
4.22066e-10
4.16081e-10
4.10202e-10
4.04537e-10
3.99214e-10
3.94376e-10
3.90189e-10
3.86848e-10
3.84583e-10
3.83673e-10
3.84459e-10
3.87377e-10
3.92999e-10
4.02088e-10
4.15715e-10
4.35459e-10
4.63775e-10
5.04749e-10
5.65817e-10
6.62281e-10
8.31935e-10
1.20099e-09
2.54126e-09
2.56831e-09
1.21432e-09
8.42321e-10
6.72125e-10
5.76069e-10
5.15878e-10
4.76032e-10
4.48971e-10
4.30532e-10
4.18207e-10
4.10379e-10
4.05945e-10
4.04122e-10
4.04328e-10
4.06118e-10
4.09156e-10
4.13159e-10
4.179e-10
4.2319e-10
4.28871e-10
4.34807e-10
4.4088e-10
4.46989e-10
4.53042e-10
4.58963e-10
4.6468e-10
4.70133e-10
4.75267e-10
4.80033e-10
4.8439e-10
4.88299e-10
4.9173e-10
4.94655e-10
4.97051e-10
4.98899e-10
5.00187e-10
5.00902e-10
5.01041e-10
5.00605e-10
4.99591e-10
4.98008e-10
4.9587e-10
4.93191e-10
4.89995e-10
4.86308e-10
4.82161e-10
4.77592e-10
4.72644e-10
4.67368e-10
4.6182e-10
4.56064e-10
4.50172e-10
4.44227e-10
4.38318e-10
4.3255e-10
4.27039e-10
4.21917e-10
4.17336e-10
4.13471e-10
4.10527e-10
4.08749e-10
4.08434e-10
4.09942e-10
4.13747e-10
4.20454e-10
4.30885e-10
4.46192e-10
4.68075e-10
4.99181e-10
5.43919e-10
6.10317e-10
7.14904e-10
8.98504e-10
1.29747e-09
2.74571e-09
2.75271e-09
1.3015e-09
9.02754e-10
7.20265e-10
6.172e-10
5.52536e-10
5.09637e-10
4.80402e-10
4.60372e-10
4.46861e-10
4.38136e-10
4.33019e-10
4.30673e-10
4.30478e-10
4.3196e-10
4.34761e-10
4.3858e-10
4.4318e-10
4.48359e-10
4.53951e-10
4.59814e-10
4.65824e-10
4.71874e-10
4.77872e-10
4.83737e-10
4.89395e-10
4.94785e-10
4.9985e-10
5.0454e-10
5.08814e-10
5.12633e-10
5.15965e-10
5.18785e-10
5.21068e-10
5.22797e-10
5.23959e-10
5.24545e-10
5.2455e-10
5.23977e-10
5.22823e-10
5.211e-10
5.18822e-10
5.16007e-10
5.12677e-10
5.08861e-10
5.04593e-10
4.99912e-10
4.94863e-10
4.89498e-10
4.83878e-10
4.78068e-10
4.72145e-10
4.66192e-10
4.60306e-10
4.54594e-10
4.49178e-10
4.44197e-10
4.39809e-10
4.36199e-10
4.33584e-10
4.3222e-10
4.32421e-10
4.34571e-10
4.39173e-10
4.46871e-10
4.58539e-10
4.75409e-10
4.99296e-10
5.33032e-10
5.81334e-10
6.52796e-10
7.65113e-10
9.62006e-10
1.38951e-09
2.94073e-09
2.93052e-09
1.38559e-09
9.61089e-10
7.66789e-10
6.57013e-10
5.88087e-10
5.42298e-10
5.11023e-10
4.89516e-10
4.74917e-10
4.65384e-10
4.59665e-10
4.56869e-10
4.5634e-10
4.57575e-10
4.60193e-10
4.63881e-10
4.68384e-10
4.73494e-10
4.79034e-10
4.84855e-10
4.9083e-10
4.96847e-10
5.02809e-10
5.08633e-10
5.14244e-10
5.19578e-10
5.24577e-10
5.29192e-10
5.33379e-10
5.37102e-10
5.40327e-10
5.43028e-10
5.45183e-10
5.46776e-10
5.47793e-10
5.48226e-10
5.48073e-10
5.47336e-10
5.46015e-10
5.44122e-10
5.41674e-10
5.38689e-10
5.35191e-10
5.31212e-10
5.26785e-10
5.21953e-10
5.16764e-10
5.11271e-10
5.05536e-10
4.99629e-10
4.93629e-10
4.87623e-10
4.8171e-10
4.76004e-10
4.7063e-10
4.65734e-10
4.61482e-10
4.58065e-10
4.55712e-10
4.54693e-10
4.55336e-10
4.58049e-10
4.63361e-10
4.71953e-10
4.8475e-10
5.03059e-10
5.28805e-10
5.64992e-10
6.1663e-10
6.92845e-10
8.12435e-10
1.02185e-09
1.47623e-09
3.12451e-09
3.10166e-09
1.46656e-09
1.0173e-09
8.11674e-10
6.95485e-10
6.22505e-10
5.73986e-10
5.408e-10
5.17923e-10
5.02329e-10
4.92069e-10
4.85819e-10
4.82637e-10
4.81832e-10
4.82872e-10
4.85354e-10
4.88951e-10
4.93395e-10
4.98466e-10
5.03981e-10
5.09783e-10
5.1574e-10
5.21737e-10
5.27673e-10
5.33462e-10
5.39027e-10
5.44303e-10
5.49232e-10
5.53762e-10
5.57851e-10
5.61461e-10
5.6456e-10
5.67123e-10
5.69128e-10
5.70558e-10
5.71403e-10
5.71656e-10
5.71316e-10
5.70383e-10
5.68862e-10
5.66766e-10
5.64113e-10
5.60923e-10
5.57222e-10
5.53042e-10
5.48421e-10
5.43401e-10
5.38033e-10
5.32372e-10
5.26483e-10
5.20438e-10
5.14318e-10
5.08215e-10
5.02231e-10
4.96483e-10
4.91102e-10
4.8624e-10
4.82068e-10
4.78787e-10
4.76635e-10
4.75894e-10
4.76905e-10
4.80102e-10
4.86036e-10
4.95422e-10
5.09236e-10
5.2885e-10
5.56295e-10
5.94736e-10
6.49453e-10
7.30069e-10
8.56405e-10
1.07744e-09
1.5568e-09
3.29525e-09
3.26638e-09
1.54451e-09
1.07146e-09
8.54977e-10
7.32661e-10
6.55827e-10
6.04728e-10
5.69752e-10
5.45604e-10
5.291e-10
5.18186e-10
5.11469e-10
5.07958e-10
5.06925e-10
5.07813e-10
5.10197e-10
5.13735e-10
5.18146e-10
5.23201e-10
5.28708e-10
5.34505e-10
5.40453e-10
5.46433e-10
5.52342e-10
5.58092e-10
5.63603e-10
5.68809e-10
5.73651e-10
5.78078e-10
5.82046e-10
5.85519e-10
5.88466e-10
5.90861e-10
5.92683e-10
5.93919e-10
5.94558e-10
5.94593e-10
5.9403e-10
5.92863e-10
5.91104e-10
5.88768e-10
5.85871e-10
5.82437e-10
5.78494e-10
5.74076e-10
5.69221e-10
5.63974e-10
5.58388e-10
5.5252e-10
5.46437e-10
5.40214e-10
5.33935e-10
5.27693e-10
5.21595e-10
5.15761e-10
5.10328e-10
5.05449e-10
5.01306e-10
4.98106e-10
4.96094e-10
4.95565e-10
4.96874e-10
5.00474e-10
5.06939e-10
5.17017e-10
5.31725e-10
5.52503e-10
5.81473e-10
6.21949e-10
6.79458e-10
7.64079e-10
8.96566e-10
1.12821e-09
1.63039e-09
3.4512e-09
3.4252e-09
1.6197e-09
1.12375e-09
8.96835e-10
7.68655e-10
6.8815e-10
6.3461e-10
5.97952e-10
5.72623e-10
5.55284e-10
5.43781e-10
5.36652e-10
5.32859e-10
5.3164e-10
5.32411e-10
5.34726e-10
5.38228e-10
5.42625e-10
5.47678e-10
5.53185e-10
5.5898e-10
5.64918e-10
5.70876e-10
5.76749e-10
5.82444e-10
5.87883e-10
5.92997e-10
5.97726e-10
6.02021e-10
6.05837e-10
6.09138e-10
6.11894e-10
6.14082e-10
6.15681e-10
6.1668e-10
6.17068e-10
6.16845e-10
6.16011e-10
6.14566e-10
6.12525e-10
6.09902e-10
6.06718e-10
6.02997e-10
5.98769e-10
5.9407e-10
5.88939e-10
5.83425e-10
5.7758e-10
5.71466e-10
5.6515e-10
5.58709e-10
5.5223e-10
5.45809e-10
5.39556e-10
5.33594e-10
5.28062e-10
5.23122e-10
5.18956e-10
5.15782e-10
5.13852e-10
5.1347e-10
5.15004e-10
5.18925e-10
5.25827e-10
5.36487e-10
5.51963e-10
5.7375e-10
6.04056e-10
6.46327e-10
7.06314e-10
7.94498e-10
9.32473e-10
1.1736e-09
1.69617e-09
3.59062e-09
3.57897e-09
1.69253e-09
1.17444e-09
9.37465e-10
8.03649e-10
7.19632e-10
6.6377e-10
6.25525e-10
5.99095e-10
5.80985e-10
5.68948e-10
5.61454e-10
5.5742e-10
5.56047e-10
5.56728e-10
5.58995e-10
5.62479e-10
5.66873e-10
5.71928e-10
5.77437e-10
5.83224e-10
5.89142e-10
5.95064e-10
6.0088e-10
6.06497e-10
6.11835e-10
6.16823e-10
6.21404e-10
6.25525e-10
6.29145e-10
6.32229e-10
6.34747e-10
6.36676e-10
6.38001e-10
6.38709e-10
6.38794e-10
6.38258e-10
6.37097e-10
6.35322e-10
6.32945e-10
6.29985e-10
6.26462e-10
6.22404e-10
6.17843e-10
6.12815e-10
6.07363e-10
6.01537e-10
5.95391e-10
5.88988e-10
5.82398e-10
5.75699e-10
5.6898e-10
5.62339e-10
5.5589e-10
5.49756e-10
5.44083e-10
5.39034e-10
5.34798e-10
5.31595e-10
5.29687e-10
5.29388e-10
5.31072e-10
5.35229e-10
5.42471e-10
5.53598e-10
5.69706e-10
5.92337e-10
6.23774e-10
6.67579e-10
7.29695e-10
8.2096e-10
9.63693e-10
1.21306e-09
1.75336e-09
3.71184e-09
3.72887e-09
1.76354e-09
1.22391e-09
9.77166e-10
8.37894e-10
7.50493e-10
6.92406e-10
6.52652e-10
6.25182e-10
6.06356e-10
5.9383e-10
5.86009e-10
5.81765e-10
5.80265e-10
5.80877e-10
5.83112e-10
5.86586e-10
5.90981e-10
5.96038e-10
6.0154e-10
6.07308e-10
6.13187e-10
6.19048e-10
6.24779e-10
6.30284e-10
6.35481e-10
6.403e-10
6.44683e-10
6.4858e-10
6.51949e-10
6.54756e-10
6.56975e-10
6.58585e-10
6.59571e-10
6.59924e-10
6.59642e-10
6.58725e-10
6.57175e-10
6.55005e-10
6.5223e-10
6.48871e-10
6.4495e-10
6.40497e-10
6.35547e-10
6.30137e-10
6.24313e-10
6.18126e-10
6.11631e-10
6.04893e-10
5.97985e-10
5.90985e-10
5.83984e-10
5.77082e-10
5.70394e-10
5.64047e-10
5.58188e-10
5.52984e-10
5.48626e-10
5.45342e-10
5.43397e-10
5.43111e-10
5.4487e-10
5.49176e-10
5.56654e-10
5.68128e-10
5.84722e-10
6.0802e-10
6.40367e-10
6.85423e-10
7.49294e-10
8.43111e-10
9.89807e-10
1.24605e-09
1.80117e-09
3.81321e-09
3.87635e-09
1.83344e-09
1.27264e-09
1.01632e-09
8.71709e-10
7.8101e-10
7.20768e-10
6.79561e-10
6.51099e-10
6.31597e-10
6.18616e-10
6.10498e-10
6.06068e-10
6.04461e-10
6.05018e-10
6.0723e-10
6.107e-10
6.15094e-10
6.20144e-10
6.25627e-10
6.31356e-10
6.37171e-10
6.42939e-10
6.48545e-10
6.53893e-10
6.589e-10
6.63496e-10
6.67622e-10
6.7123e-10
6.7428e-10
6.7674e-10
6.78587e-10
6.79801e-10
6.80371e-10
6.80292e-10
6.79565e-10
6.78187e-10
6.76172e-10
6.73532e-10
6.70286e-10
6.66455e-10
6.62067e-10
6.57153e-10
6.5175e-10
6.45897e-10
6.39642e-10
6.33037e-10
6.26141e-10
6.19019e-10
6.11743e-10
6.04395e-10
5.97067e-10
5.89861e-10
5.8289e-10
5.76286e-10
5.70195e-10
5.64788e-10
5.60258e-10
5.56836e-10
5.54792e-10
5.54452e-10
5.56207e-10
5.60569e-10
5.68177e-10
5.79871e-10
5.96796e-10
6.20573e-10
6.53594e-10
6.99596e-10
7.64815e-10
8.60618e-10
1.01042e-09
1.27207e-09
1.83888e-09
3.89316e-09
4.02319e-09
1.90306e-09
1.3212e-09
1.05537e-09
9.05473e-10
8.11519e-10
7.49156e-10
7.06528e-10
6.77104e-10
6.56953e-10
6.43541e-10
6.35147e-10
6.3055e-10
6.2885e-10
6.29363e-10
6.31558e-10
6.35022e-10
6.3941e-10
6.44442e-10
6.49887e-10
6.5555e-10
6.61268e-10
6.66903e-10
6.72339e-10
6.77476e-10
6.82232e-10
6.86538e-10
6.90335e-10
6.93577e-10
6.96227e-10
6.98255e-10
6.99641e-10
7.00369e-10
7.00433e-10
6.99832e-10
6.98563e-10
6.96637e-10
6.94066e-10
6.90868e-10
6.87064e-10
6.82679e-10
6.77742e-10
6.72289e-10
6.66358e-10
6.59992e-10
6.53239e-10
6.46154e-10
6.38796e-10
6.31231e-10
6.23535e-10
6.15788e-10
6.08084e-10
6.00524e-10
5.93224e-10
5.86314e-10
5.79944e-10
5.74284e-10
5.69529e-10
5.65912e-10
5.63705e-10
5.63239e-10
5.64908e-10
5.69231e-10
5.76856e-10
5.88634e-10
6.05729e-10
6.29783e-10
6.63226e-10
7.09851e-10
7.75986e-10
8.73167e-10
1.02515e-09
1.29065e-09
1.86579e-09
3.95023e-09
4.17142e-09
1.97335e-09
1.37025e-09
1.09483e-09
9.39626e-10
8.42403e-10
7.77919e-10
7.33875e-10
7.03499e-10
6.82711e-10
6.68883e-10
6.60227e-10
6.55475e-10
6.53693e-10
6.5417e-10
6.56352e-10
6.59809e-10
6.64183e-10
6.69181e-10
6.74565e-10
6.80132e-10
6.85714e-10
6.91169e-10
6.96378e-10
7.01242e-10
7.05676e-10
7.09612e-10
7.12996e-10
7.15782e-10
7.17936e-10
7.19432e-10
7.20255e-10
7.20393e-10
7.19846e-10
7.1861e-10
7.16695e-10
7.14113e-10
7.10882e-10
7.07023e-10
7.0256e-10
6.97524e-10
6.91946e-10
6.85864e-10
6.7932e-10
6.72359e-10
6.65031e-10
6.57392e-10
6.49504e-10
6.41433e-10
6.33254e-10
6.2505e-10
6.16913e-10
6.08947e-10
6.01265e-10
5.94e-10
5.87298e-10
5.81331e-10
5.76296e-10
5.72423e-10
5.69987e-10
5.69318e-10
5.70817e-10
5.75e-10
5.82524e-10
5.94246e-10
6.11339e-10
6.3546e-10
6.6906e-10
7.15964e-10
7.82557e-10
8.80472e-10
1.03367e-09
1.30135e-09
1.88128e-09
3.98308e-09
4.32332e-09
2.04538e-09
1.42054e-09
1.1353e-09
9.74656e-10
8.74094e-10
8.07445e-10
7.61963e-10
7.30624e-10
7.09198e-10
6.94958e-10
6.86049e-10
6.81153e-10
6.79299e-10
6.79746e-10
6.81919e-10
6.85368e-10
6.89719e-10
6.94668e-10
6.99966e-10
7.05403e-10
7.10805e-10
7.16026e-10
7.20944e-10
7.2546e-10
7.2949e-10
7.32967e-10
7.35838e-10
7.38062e-10
7.3961e-10
7.40459e-10
7.40599e-10
7.40028e-10
7.38741e-10
7.36748e-10
7.34064e-10
7.30704e-10
7.26692e-10
7.22054e-10
7.16818e-10
7.11019e-10
7.04692e-10
6.97879e-10
6.90624e-10
6.82975e-10
6.74983e-10
6.66708e-10
6.5821e-10
6.49558e-10
6.40827e-10
6.321e-10
6.23468e-10
6.15035e-10
6.06914e-10
5.99235e-10
5.92145e-10
5.85814e-10
5.80437e-10
5.76244e-10
5.73508e-10
5.72559e-10
5.73798e-10
5.77737e-10
5.85037e-10
5.96556e-10
6.13469e-10
6.37436e-10
6.70914e-10
7.17739e-10
7.84309e-10
8.82283e-10
1.03567e-09
1.30379e-09
1.88478e-09
3.99053e-09
4.48139e-09
2.12034e-09
1.47286e-09
1.17741e-09
1.0111e-09
9.07056e-10
8.38158e-10
7.91184e-10
7.58851e-10
7.36773e-10
7.22119e-10
7.12963e-10
7.07933e-10
7.06018e-10
7.06447e-10
7.08618e-10
7.12059e-10
7.16381e-10
7.21266e-10
7.26452e-10
7.31722e-10
7.36895e-10
7.41821e-10
7.46377e-10
7.50461e-10
7.53991e-10
7.56904e-10
7.5915e-10
7.60692e-10
7.61505e-10
7.61575e-10
7.60898e-10
7.59472e-10
7.57307e-10
7.54417e-10
7.50821e-10
7.46545e-10
7.41614e-10
7.36062e-10
7.29923e-10
7.23234e-10
7.16037e-10
7.08376e-10
7.00298e-10
6.91854e-10
6.83099e-10
6.74091e-10
6.64894e-10
6.55576e-10
6.46214e-10
6.36888e-10
6.27691e-10
6.18723e-10
6.10097e-10
6.01942e-10
5.94401e-10
5.87642e-10
5.81857e-10
5.77275e-10
5.74165e-10
5.72854e-10
5.73742e-10
5.77337e-10
5.84294e-10
5.95466e-10
6.12021e-10
6.35612e-10
6.68686e-10
7.15062e-10
7.81112e-10
8.78445e-10
1.03096e-09
1.29771e-09
1.87591e-09
3.97177e-09
4.64828e-09
2.19948e-09
1.52807e-09
1.22182e-09
1.04951e-09
9.41787e-10
8.70507e-10
8.21957e-10
7.88582e-10
7.65827e-10
7.50752e-10
7.41354e-10
7.36203e-10
7.34245e-10
7.34673e-10
7.36856e-10
7.40297e-10
7.44588e-10
7.49395e-10
7.54443e-10
7.59507e-10
7.64397e-10
7.6896e-10
7.73071e-10
7.76627e-10
7.7955e-10
7.81779e-10
7.83269e-10
7.83989e-10
7.83922e-10
7.83062e-10
7.81408e-10
7.78971e-10
7.75768e-10
7.7182e-10
7.67155e-10
7.61803e-10
7.558e-10
7.49184e-10
7.41994e-10
7.34274e-10
7.2607e-10
7.1743e-10
7.08405e-10
6.99047e-10
6.89415e-10
6.79568e-10
6.69571e-10
6.59492e-10
6.49407e-10
6.39398e-10
6.29554e-10
6.19974e-10
6.10771e-10
6.02071e-10
5.94018e-10
5.86773e-10
5.80525e-10
5.75492e-10
5.71942e-10
5.70192e-10
5.70636e-10
5.73767e-10
5.80238e-10
5.90893e-10
6.06887e-10
6.29854e-10
6.62216e-10
7.07749e-10
7.72756e-10
8.68716e-10
1.01926e-09
1.28276e-09
1.85417e-09
3.92569e-09
4.82675e-09
2.28408e-09
1.58707e-09
1.26923e-09
1.09048e-09
9.78798e-10
9.04957e-10
8.5472e-10
8.20236e-10
7.96772e-10
7.8127e-10
7.7164e-10
7.66391e-10
7.64416e-10
7.6487e-10
7.67089e-10
7.70545e-10
7.74809e-10
7.79528e-10
7.84414e-10
7.89228e-10
7.93776e-10
7.97899e-10
8.01469e-10
8.04387e-10
8.06577e-10
8.07983e-10
8.08566e-10
8.08306e-10
8.07192e-10
8.05226e-10
8.0242e-10
7.98793e-10
7.94371e-10
7.89186e-10
7.83273e-10
7.76671e-10
7.69424e-10
7.61576e-10
7.53174e-10
7.44267e-10
7.34906e-10
7.25143e-10
7.15032e-10
7.0463e-10
6.93995e-10
6.83191e-10
6.72281e-10
6.61335e-10
6.50428e-10
6.39643e-10
6.29071e-10
6.18808e-10
6.08959e-10
5.99644e-10
5.90998e-10
5.83178e-10
5.76369e-10
5.70788e-10
5.66693e-10
5.64396e-10
5.64283e-10
5.66834e-10
5.72689e-10
5.82674e-10
5.97921e-10
6.20034e-10
6.51388e-10
6.95693e-10
7.59135e-10
8.52985e-10
1.00044e-09
1.25878e-09
1.81929e-09
3.85175e-09
5.01964e-09
2.37548e-09
1.65075e-09
1.32035e-09
1.1346e-09
1.01861e-09
9.41982e-10
8.89917e-10
8.54246e-10
8.30039e-10
8.14107e-10
8.04266e-10
7.98954e-10
7.97005e-10
7.97527e-10
7.99818e-10
8.03315e-10
8.07562e-10
8.12187e-10
8.16883e-10
8.214e-10
8.25536e-10
8.29127e-10
8.32046e-10
8.34195e-10
8.35504e-10
8.35924e-10
8.35428e-10
8.34002e-10
8.31648e-10
8.28379e-10
8.2422e-10
8.19201e-10
8.13359e-10
8.06736e-10
7.99378e-10
7.91334e-10
7.82656e-10
7.73395e-10
7.63605e-10
7.53342e-10
7.42661e-10
7.31619e-10
7.20275e-10
7.08687e-10
6.96916e-10
6.85026e-10
6.73083e-10
6.61159e-10
6.49331e-10
6.37674e-10
6.2627e-10
6.15214e-10
6.04611e-10
5.94578e-10
5.8525e-10
5.76777e-10
5.69335e-10
5.63133e-10
5.58418e-10
5.55491e-10
5.54727e-10
5.5659e-10
5.61696e-10
5.70854e-10
5.85162e-10
6.06182e-10
6.36228e-10
6.78913e-10
7.40265e-10
8.31263e-10
9.74497e-10
1.22575e-09
1.77126e-09
3.74992e-09
5.22973e-09
2.47499e-09
1.72e-09
1.37586e-09
1.18244e-09
1.06172e-09
9.82047e-10
9.27994e-10
8.91049e-10
8.66068e-10
8.49716e-10
8.39702e-10
8.34381e-10
8.32522e-10
8.33171e-10
8.35583e-10
8.39157e-10
8.43406e-10
8.47929e-10
8.52404e-10
8.56565e-10
8.60202e-10
8.6315e-10
8.65282e-10
8.66503e-10
8.66755e-10
8.65999e-10
8.64217e-10
8.6141e-10
8.57594e-10
8.52797e-10
8.47057e-10
8.40418e-10
8.32931e-10
8.2465e-10
8.15633e-10
8.05938e-10
7.95627e-10
7.84759e-10
7.73396e-10
7.61598e-10
7.49428e-10
7.36945e-10
7.24212e-10
7.11291e-10
6.98245e-10
6.85138e-10
6.72041e-10
6.5902e-10
6.46144e-10
6.33492e-10
6.2115e-10
6.09208e-10
5.97767e-10
5.86938e-10
5.76847e-10
5.6764e-10
5.59484e-10
5.52577e-10
5.47155e-10
5.43507e-10
5.4199e-10
5.43053e-10
5.47281e-10
5.55457e-10
5.6864e-10
5.88336e-10
6.16779e-10
6.5746e-10
7.16204e-10
8.03616e-10
9.41518e-10
1.18378e-09
1.71024e-09
3.62051e-09
5.45973e-09
2.58387e-09
1.79569e-09
1.43643e-09
1.23455e-09
1.10862e-09
1.0256e-09
9.69383e-10
9.31079e-10
9.05306e-10
8.88562e-10
8.78435e-10
8.73187e-10
8.71501e-10
8.72357e-10
8.74958e-10
8.78654e-10
8.82921e-10
8.87332e-10
8.91539e-10
8.95266e-10
8.98294e-10
9.00457e-10
9.01625e-10
9.01728e-10
9.00709e-10
8.98543e-10
8.9523e-10
8.90788e-10
8.85251e-10
8.78666e-10
8.71086e-10
8.62573e-10
8.53193e-10
8.43013e-10
8.32105e-10
8.20537e-10
8.0838e-10
7.95704e-10
7.82575e-10
7.69062e-10
7.5523e-10
7.41144e-10
7.2687e-10
7.1247e-10
6.9801e-10
6.83558e-10
6.69175e-10
6.5493e-10
6.40898e-10
6.27154e-10
6.13777e-10
6.00856e-10
5.88486e-10
5.76772e-10
5.65836e-10
5.55813e-10
5.46861e-10
5.39168e-10
5.32956e-10
5.28498e-10
5.26132e-10
5.26287e-10
5.29515e-10
5.36563e-10
5.48443e-10
5.66593e-10
5.93153e-10
6.31462e-10
6.87098e-10
7.70215e-10
9.01706e-10
1.13313e-09
1.6366e-09
3.4643e-09
5.71215e-09
2.7033e-09
1.8786e-09
1.50266e-09
1.29144e-09
1.15976e-09
1.07306e-09
1.01449e-09
9.74757e-10
9.48193e-10
9.31114e-10
9.20966e-10
9.159e-10
9.14498e-10
9.15662e-10
9.18528e-10
9.22395e-10
9.26694e-10
9.30962e-10
9.34833e-10
9.38013e-10
9.4028e-10
9.41458e-10
9.41456e-10
9.40192e-10
9.37631e-10
9.3377e-10
9.28629e-10
9.2225e-10
9.1469e-10
9.06015e-10
8.96303e-10
8.85631e-10
8.74085e-10
8.61747e-10
8.48701e-10
8.35029e-10
8.2081e-10
8.06121e-10
7.91039e-10
7.75633e-10
7.59975e-10
7.44133e-10
7.28173e-10
7.12161e-10
6.96163e-10
6.80241e-10
6.64462e-10
6.48895e-10
6.33609e-10
6.18677e-10
6.04176e-10
5.90189e-10
5.76808e-10
5.64131e-10
5.52272e-10
5.41358e-10
5.31537e-10
5.22984e-10
5.15906e-10
5.10558e-10
5.07257e-10
5.06405e-10
5.08523e-10
5.1431e-10