/*--------------------------------*- C++ -*----------------------------------*\
  =========                 |
  \\      /  F ield         | OpenFOAM: The Open Source CFD Toolbox
   \\    /   O peration     | Website:  https://openfoam.org
    \\  /    A nd           | Version:  12
     \\/     M anipulation  |
\*---------------------------------------------------------------------------*/
FoamFile
{
    format      ascii;
    class       volScalarField;
    location    "9";
    object      k;
}
// * * * * * * * * * * * * * * * * * * * * * * * * * * * * * * * * * * * * * //

dimensions      [0 2 -2 0 0 0 0];

internalField   nonuniform List<scalar> 
5625
(
7.05683e-15
5.33037e-14
1.12997e-13
1.84266e-13
2.64564e-13
3.5197e-13
4.45081e-13
5.4282e-13
6.44302e-13
7.48763e-13
8.5552e-13
9.63943e-13
1.07344e-12
1.18347e-12
1.29348e-12
1.40297e-12
1.51145e-12
1.61844e-12
1.72349e-12
1.82616e-12
1.92603e-12
2.02269e-12
2.11576e-12
2.20485e-12
2.28962e-12
2.36974e-12
2.44489e-12
2.51478e-12
2.57914e-12
2.63771e-12
2.69027e-12
2.73661e-12
2.77655e-12
2.80993e-12
2.83661e-12
2.8565e-12
2.86949e-12
2.87554e-12
2.87461e-12
2.8667e-12
2.85181e-12
2.82999e-12
2.80131e-12
2.76587e-12
2.72378e-12
2.67519e-12
2.62028e-12
2.55925e-12
2.49231e-12
2.41972e-12
2.34174e-12
2.25868e-12
2.17086e-12
2.07861e-12
1.98229e-12
1.88231e-12
1.77906e-12
1.67298e-12
1.56451e-12
1.45414e-12
1.34235e-12
1.22966e-12
1.11662e-12
1.0038e-12
8.91787e-13
7.81227e-13
6.72803e-13
5.67258e-13
4.65425e-13
3.68262e-13
2.76936e-13
1.92948e-13
1.18349e-13
5.58348e-14
7.39182e-15
4.77085e-14
4.24658e-13
9.67957e-13
1.61786e-12
2.34631e-12
3.13646e-12
3.97653e-12
4.85735e-12
5.77127e-12
6.7116e-12
7.67232e-12
8.64782e-12
9.63288e-12
1.06225e-11
1.16119e-11
1.25966e-11
1.35722e-11
1.45343e-11
1.5479e-11
1.64023e-11
1.73003e-11
1.81695e-11
1.90063e-11
1.98074e-11
2.05697e-11
2.12902e-11
2.1966e-11
2.25945e-11
2.31732e-11
2.37e-11
2.41727e-11
2.45895e-11
2.49488e-11
2.52491e-11
2.54892e-11
2.56681e-11
2.57851e-11
2.58396e-11
2.58314e-11
2.57603e-11
2.56264e-11
2.54303e-11
2.51724e-11
2.48537e-11
2.44753e-11
2.40385e-11
2.35448e-11
2.29961e-11
2.23942e-11
2.17415e-11
2.10404e-11
2.02936e-11
1.95038e-11
1.86743e-11
1.78083e-11
1.69091e-11
1.59806e-11
1.50266e-11
1.40511e-11
1.30584e-11
1.20529e-11
1.10392e-11
1.00223e-11
9.00716e-12
7.99918e-12
7.00404e-12
6.02781e-12
5.0771e-12
4.15917e-12
3.28234e-12
2.45654e-12
1.69445e-12
1.01401e-12
4.44914e-13
4.99842e-14
1.06042e-13
9.51001e-13
2.18188e-12
3.66454e-12
5.33316e-12
7.14719e-12
9.07816e-12
1.11041e-11
1.32068e-11
1.53707e-11
1.75816e-11
1.98266e-11
2.20936e-11
2.43711e-11
2.66482e-11
2.89143e-11
3.11594e-11
3.33737e-11
3.55477e-11
3.76725e-11
3.97393e-11
4.17397e-11
4.36657e-11
4.55096e-11
4.72642e-11
4.89226e-11
5.04782e-11
5.19251e-11
5.32576e-11
5.44705e-11
5.55591e-11
5.65191e-11
5.73468e-11
5.80387e-11
5.85923e-11
5.90051e-11
5.92755e-11
5.9402e-11
5.93842e-11
5.92219e-11
5.89151e-11
5.84648e-11
5.78725e-11
5.71402e-11
5.62703e-11
5.5266e-11
5.41306e-11
5.28684e-11
5.14839e-11
4.99822e-11
4.8369e-11
4.66503e-11
4.48328e-11
4.29235e-11
4.093e-11
3.88602e-11
3.67227e-11
3.45262e-11
3.22802e-11
2.99944e-11
2.7679e-11
2.53448e-11
2.30028e-11
2.06649e-11
1.83435e-11
1.60517e-11
1.38036e-11
1.16145e-11
9.50167e-12
7.48474e-12
5.58751e-12
3.84061e-12
2.28722e-12
9.97038e-13
1.11176e-13
1.75267e-13
1.57441e-12
3.61975e-12
6.09201e-12
8.88209e-12
1.19216e-11
1.51617e-11
1.85646e-11
2.20989e-11
2.57376e-11
2.94567e-11
3.32339e-11
3.70488e-11
4.08819e-11
4.47145e-11
4.85291e-11
5.23084e-11
5.60361e-11
5.96964e-11
6.32738e-11
6.67539e-11
7.01223e-11
7.33657e-11
7.64712e-11
7.94264e-11
8.22198e-11
8.48405e-11
8.72782e-11
8.95235e-11
9.15677e-11
9.34026e-11
9.50213e-11
9.64172e-11
9.75848e-11
9.85195e-11
9.92173e-11
9.96752e-11
9.98911e-11
9.98639e-11
9.95935e-11
9.90796e-11
9.83241e-11
9.73293e-11
9.60986e-11
9.46361e-11
9.29469e-11
9.10369e-11
8.89131e-11
8.6583e-11
8.40553e-11
8.13395e-11
7.84459e-11
7.53855e-11
7.21702e-11
6.88128e-11
6.53267e-11
6.17262e-11
5.80263e-11
5.42427e-11
5.0392e-11
4.64913e-11
4.2559e-11
3.86138e-11
3.46757e-11
3.07659e-11
2.69066e-11
2.31221e-11
1.94388e-11
1.58861e-11
1.2498e-11
9.31567e-12
6.39152e-12
3.79857e-12
1.65239e-12
1.8395e-13
2.52141e-13
2.26633e-12
5.21537e-12
8.78648e-12
1.28236e-11
1.72283e-11
2.19293e-11
2.68712e-11
3.20078e-11
3.72992e-11
4.27098e-11
4.8207e-11
5.37604e-11
5.93415e-11
6.4923e-11
7.04789e-11
7.59844e-11
8.14152e-11
8.67483e-11
9.19614e-11
9.7033e-11
1.01943e-10
1.0667e-10
1.11198e-10
1.15506e-10
1.1958e-10
1.23402e-10
1.26958e-10
1.30234e-10
1.33217e-10
1.35895e-10
1.38259e-10
1.40298e-10
1.42005e-10
1.43372e-10
1.44394e-10
1.45067e-10
1.45387e-10
1.45353e-10
1.44964e-10
1.4422e-10
1.43124e-10
1.41679e-10
1.3989e-10
1.37763e-10
1.35304e-10
1.32524e-10
1.29431e-10
1.26037e-10
1.22355e-10
1.18398e-10
1.14181e-10
1.0972e-10
1.05034e-10
1.00139e-10
9.50567e-11
8.98071e-11
8.44124e-11
7.88955e-11
7.32808e-11
6.75934e-11
6.18601e-11
5.61087e-11
5.03686e-11
4.46709e-11
3.90486e-11
3.35376e-11
2.81767e-11
2.30097e-11
1.8087e-11
1.34687e-11
9.23156e-12
5.48079e-12
2.38197e-12
2.65008e-13
3.34564e-13
3.00802e-12
6.92551e-12
1.16743e-11
1.70487e-11
2.29183e-11
2.91888e-11
3.57857e-11
4.26472e-11
4.97193e-11
5.69541e-11
6.43075e-11
7.17385e-11
7.92085e-11
8.66808e-11
9.41204e-11
1.01494e-10
1.08768e-10
1.15913e-10
1.22898e-10
1.29695e-10
1.36275e-10
1.42612e-10
1.48682e-10
1.5446e-10
1.59923e-10
1.6505e-10
1.69821e-10
1.74217e-10
1.78222e-10
1.81818e-10
1.84994e-10
1.87735e-10
1.9003e-10
1.91872e-10
1.93251e-10
1.94161e-10
1.94599e-10
1.94562e-10
1.94051e-10
1.93062e-10
1.91601e-10
1.89672e-10
1.87282e-10
1.84437e-10
1.81148e-10
1.77426e-10
1.73285e-10
1.6874e-10
1.63807e-10
1.58505e-10
1.52854e-10
1.46876e-10
1.40593e-10
1.34032e-10
1.27217e-10
1.20179e-10
1.12945e-10
1.05548e-10
9.80192e-11
9.03938e-11
8.27075e-11
7.49981e-11
6.73053e-11
5.96712e-11
5.21408e-11
4.47625e-11
3.75891e-11
3.06798e-11
2.41022e-11
1.79372e-11
1.22868e-11
7.29046e-12
3.16693e-12
3.52241e-13
4.20951e-13
3.7853e-12
8.71749e-12
1.47001e-11
2.14758e-11
2.88811e-11
3.67975e-11
4.51312e-11
5.3804e-11
6.27475e-11
7.19005e-11
8.12071e-11
9.06149e-11
1.00075e-10
1.0954e-10
1.18966e-10
1.2831e-10
1.37531e-10
1.46589e-10
1.55446e-10
1.64065e-10
1.72412e-10
1.80452e-10
1.88154e-10
1.95486e-10
2.02421e-10
2.08931e-10
2.1499e-10
2.20575e-10
2.25664e-10
2.30237e-10
2.34276e-10
2.37765e-10
2.40689e-10
2.43038e-10
2.448e-10
2.45968e-10
2.46537e-10
2.46503e-10
2.45868e-10
2.44627e-10
2.42786e-10
2.4035e-10
2.37328e-10
2.33729e-10
2.29566e-10
2.24853e-10
2.19607e-10
2.13846e-10
2.07593e-10
2.0087e-10
1.93703e-10
1.86119e-10
1.78149e-10
1.69823e-10
1.61177e-10
1.52244e-10
1.43065e-10
1.33677e-10
1.24123e-10
1.14447e-10
1.04695e-10
9.49152e-11
8.51582e-11
7.54783e-11
6.5933e-11
5.65841e-11
4.74992e-11
3.87534e-11
3.04328e-11
2.26394e-11
1.55017e-11
9.19482e-12
3.99306e-12
4.44057e-13
5.10011e-13
4.58657e-12
1.05646e-11
1.78189e-11
2.60387e-11
3.50269e-11
4.46402e-11
5.47653e-11
6.53069e-11
7.6182e-11
8.73162e-11
9.86409e-11
1.10092e-10
1.21611e-10
1.33138e-10
1.44621e-10
1.56006e-10
1.67243e-10
1.78284e-10
1.89082e-10
1.99593e-10
2.09773e-10
2.19581e-10
2.28979e-10
2.37928e-10
2.46393e-10
2.54342e-10
2.61743e-10
2.68566e-10
2.74787e-10
2.80378e-10
2.8532e-10
2.89591e-10
2.93175e-10
2.96057e-10
2.98224e-10
2.99668e-10
3.0038e-10
3.00357e-10
2.996e-10
2.98103e-10
2.95874e-10
2.92919e-10
2.89248e-10
2.84871e-10
2.79805e-10
2.74067e-10
2.67676e-10
2.60657e-10
2.53034e-10
2.44837e-10
2.36097e-10
2.26846e-10
2.17123e-10
2.06965e-10
1.96414e-10
1.85514e-10
1.74312e-10
1.62856e-10
1.51197e-10
1.39391e-10
1.27492e-10
1.15562e-10
1.03661e-10
9.1858e-11
8.02221e-11
6.88295e-11
5.7763e-11
4.71142e-11
3.6988e-11
2.75083e-11
1.88305e-11
1.11668e-11
4.84858e-12
5.39147e-13
6.00646e-13
5.40196e-12
1.24442e-11
2.09922e-11
3.06812e-11
4.12798e-11
5.26197e-11
6.45675e-11
7.70113e-11
8.98532e-11
1.03005e-10
1.16386e-10
1.2992e-10
1.43537e-10
1.57168e-10
1.70749e-10
1.84217e-10
1.97514e-10
2.10581e-10
2.23363e-10
2.35807e-10
2.47863e-10
2.5948e-10
2.70614e-10
2.81219e-10
2.91253e-10
3.00677e-10
3.09455e-10
3.17551e-10
3.24934e-10
3.31574e-10
3.37445e-10
3.42525e-10
3.46791e-10
3.50226e-10
3.52816e-10
3.54548e-10
3.55415e-10
3.55411e-10
3.54538e-10
3.52788e-10
3.50169e-10
3.46689e-10
3.42359e-10
3.37193e-10
3.31208e-10
3.24425e-10
3.16868e-10
3.08563e-10
2.99542e-10
2.89838e-10
2.79489e-10
2.68533e-10
2.57015e-10
2.44981e-10
2.3248e-10
2.19565e-10
2.0629e-10
1.92715e-10
1.789e-10
1.6491e-10
1.50813e-10
1.3668e-10
1.22585e-10
1.08608e-10
9.48328e-11
8.13493e-11
6.82559e-11
5.56612e-11
4.36889e-11
3.24854e-11
2.22335e-11
1.31828e-11
5.72322e-12
6.36365e-13
6.91902e-13
6.22291e-12
1.43365e-11
2.41868e-11
3.53545e-11
4.75738e-11
6.06514e-11
7.44338e-11
8.87924e-11
1.03614e-10
1.18798e-10
1.34249e-10
1.49882e-10
1.65613e-10
1.81364e-10
1.9706e-10
2.1263e-10
2.28004e-10
2.43116e-10
2.57901e-10
2.72298e-10
2.86248e-10
2.99694e-10
3.12583e-10
3.24863e-10
3.36486e-10
3.47405e-10
3.57578e-10
3.66965e-10
3.75528e-10
3.83234e-10
3.90051e-10
3.95954e-10
4.00917e-10
4.04919e-10
4.07944e-10
4.09977e-10
4.11008e-10
4.11031e-10
4.10049e-10
4.0805e-10
4.05045e-10
4.01043e-10
3.96054e-10
3.90096e-10
3.83188e-10
3.75354e-10
3.66621e-10
3.57021e-10
3.46589e-10
3.35364e-10
3.23388e-10
3.10709e-10
2.97377e-10
2.83445e-10
2.68971e-10
2.54015e-10
2.38643e-10
2.22923e-10
2.06925e-10
1.90726e-10
1.74403e-10
1.5804e-10
1.41725e-10
1.25548e-10
1.09608e-10
9.40091e-11
7.88656e-11
6.43031e-11
5.04642e-11
3.75177e-11
2.56743e-11
1.52212e-11
6.60765e-12
7.34675e-13
7.82945e-13
7.04193e-12
1.62242e-11
2.73735e-11
4.00159e-11
5.38515e-11
6.86617e-11
8.42734e-11
1.00541e-10
1.17337e-10
1.34546e-10
1.52063e-10
1.69788e-10
1.87628e-10
2.05494e-10
2.23302e-10
2.40969e-10
2.58416e-10
2.75569e-10
2.92355e-10
3.08703e-10
3.24547e-10
3.39821e-10
3.54466e-10
3.68422e-10
3.81634e-10
3.94051e-10
4.05622e-10
4.16302e-10
4.2605e-10
4.34827e-10
4.42597e-10
4.49328e-10
4.54994e-10
4.59571e-10
4.63038e-10
4.65379e-10
4.66582e-10
4.66641e-10
4.65557e-10
4.63318e-10
4.59934e-10
4.55415e-10
4.49775e-10
4.43032e-10
4.35206e-10
4.26326e-10
4.16423e-10
4.0553e-10
3.9369e-10
3.80945e-10
3.67345e-10
3.52943e-10
3.37795e-10
3.21964e-10
3.05515e-10
2.88517e-10
2.71044e-10
2.53175e-10
2.34991e-10
2.16578e-10
1.98026e-10
1.7943e-10
1.60889e-10
1.42509e-10
1.24401e-10
1.06684e-10
8.94882e-11
7.29553e-11
5.72476e-11
4.25561e-11
2.91194e-11
1.72622e-11
7.4932e-12
8.3311e-13
8.73053e-13
7.8525e-12
1.80924e-11
3.05269e-11
4.46284e-11
6.00626e-11
7.65865e-11
9.40073e-11
1.12163e-10
1.3091e-10
1.50122e-10
1.69681e-10
1.89474e-10
2.094e-10
2.29357e-10
2.49252e-10
2.68992e-10
2.8849e-10
3.07662e-10
3.26426e-10
3.44704e-10
3.62421e-10
3.79505e-10
3.95888e-10
4.11503e-10
4.2629e-10
4.40189e-10
4.53147e-10
4.65111e-10
4.76035e-10
4.85874e-10
4.94591e-10
5.02148e-10
5.08515e-10
5.13666e-10
5.17576e-10
5.20228e-10
5.21609e-10
5.21709e-10
5.20531e-10
5.18061e-10
5.14309e-10
5.09286e-10
5.03007e-10
4.95491e-10
4.86763e-10
4.76852e-10
4.65793e-10
4.53625e-10
4.40393e-10
4.26146e-10
4.10938e-10
3.9483e-10
3.77885e-10
3.60172e-10
3.41765e-10
3.22742e-10
3.03187e-10
2.83186e-10
2.62833e-10
2.42224e-10
2.2146e-10
2.00648e-10
1.799e-10
1.59334e-10
1.39076e-10
1.19258e-10
1.00025e-10
8.15377e-11
6.39763e-11
4.75539e-11
3.25366e-11
1.92867e-11
8.37164e-12
9.30756e-13
9.61607e-13
8.64906e-12
1.99281e-11
3.36255e-11
4.91602e-11
6.61646e-11
8.43711e-11
1.03568e-10
1.23576e-10
1.44239e-10
1.65416e-10
1.86977e-10
2.088e-10
2.3077e-10
2.52777e-10
2.74718e-10
2.96491e-10
3.17999e-10
3.39149e-10
3.59852e-10
3.80022e-10
3.99574e-10
4.18431e-10
4.36517e-10
4.53759e-10
4.70089e-10
4.85442e-10
4.99759e-10
5.12982e-10
5.25059e-10
5.35943e-10
5.45589e-10
5.53958e-10
5.61015e-10
5.66731e-10
5.7108e-10
5.74041e-10
5.756e-10
5.75745e-10
5.7448e-10
5.71787e-10
5.67679e-10
5.62167e-10
5.55266e-10
5.46997e-10
5.37388e-10
5.2647e-10
5.14282e-10
5.00865e-10
4.86271e-10
4.70552e-10
4.53769e-10
4.35988e-10
4.17279e-10
3.9772e-10
3.77391e-10
3.5638e-10
3.34779e-10
3.12685e-10
2.902e-10
2.67433e-10
2.44495e-10
2.21505e-10
1.98588e-10
1.75873e-10
1.535e-10
1.31616e-10
1.10382e-10
8.99736e-11
7.05901e-11
5.24664e-11
3.58956e-11
2.12767e-11
9.2351e-12
1.02674e-12
1.0481e-12
9.42705e-12
2.1721e-11
3.66513e-11
5.35851e-11
7.21218e-11
9.19702e-11
1.12899e-10
1.34714e-10
1.57244e-10
1.80336e-10
2.03847e-10
2.27646e-10
2.51606e-10
2.75609e-10
2.99539e-10
3.23288e-10
3.4675e-10
3.69823e-10
3.92409e-10
4.14415e-10
4.35749e-10
4.56327e-10
4.76065e-10
4.94884e-10
5.1271e-10
5.29473e-10
5.45108e-10
5.59551e-10
5.72746e-10
5.84641e-10
5.95188e-10
6.04344e-10
6.12071e-10
6.18335e-10
6.23109e-10
6.26371e-10
6.28102e-10
6.28292e-10
6.26944e-10
6.24037e-10
6.19585e-10
6.13599e-10
6.06097e-10
5.971e-10
5.86637e-10
5.74744e-10
5.6146e-10
5.46833e-10
5.30916e-10
5.13769e-10
4.95456e-10
4.7605e-10
4.55628e-10
4.34273e-10
4.12076e-10
3.89131e-10
3.65539e-10
3.41408e-10
3.16849e-10
2.91981e-10
2.66927e-10
2.41816e-10
2.16786e-10
1.91979e-10
1.67547e-10
1.43652e-10
1.20468e-10
9.81887e-11
7.70307e-11
5.72502e-11
3.91665e-11
2.32146e-11
1.00759e-11
1.1202e-12
1.13213e-12
1.01829e-11
2.34626e-11
3.95904e-11
5.78826e-11
7.79067e-11
9.9348e-11
1.21957e-10
1.45523e-10
1.69862e-10
1.94808e-10
2.20207e-10
2.45917e-10
2.71801e-10
2.97731e-10
3.23583e-10
3.49239e-10
3.74584e-10
3.99509e-10
4.23908e-10
4.47681e-10
4.70729e-10
4.92959e-10
5.14283e-10
5.34615e-10
5.53876e-10
5.71989e-10
5.88884e-10
6.04495e-10
6.18759e-10
6.3162e-10
6.43026e-10
6.52932e-10
6.61296e-10
6.68081e-10
6.73259e-10
6.76804e-10
6.78698e-10
6.78926e-10
6.77495e-10
6.7438e-10
6.69595e-10
6.63152e-10
6.5507e-10
6.45372e-10
6.34088e-10
6.21256e-10
6.06919e-10
5.91128e-10
5.7394e-10
5.55418e-10
5.35634e-10
5.14664e-10
4.92592e-10
4.6951e-10
4.45513e-10
4.20706e-10
3.95197e-10
3.69103e-10
3.42545e-10
3.15652e-10
2.88557e-10
2.61402e-10
2.34335e-10
2.0751e-10
1.81093e-10
1.55258e-10
1.30194e-10
1.0611e-10
8.32412e-11
6.1863e-11
4.23205e-11
2.50832e-11
1.08867e-11
1.21033e-12
1.21341e-12
1.0914e-11
2.51472e-11
4.24328e-11
6.20382e-11
8.34993e-11
1.06479e-10
1.30709e-10
1.55965e-10
1.82048e-10
2.08779e-10
2.35996e-10
2.63543e-10
2.91275e-10
3.19055e-10
3.46749e-10
3.7423e-10
4.01377e-10
4.28071e-10
4.54201e-10
4.79657e-10
5.04335e-10
5.28136e-10
5.50965e-10
5.72731e-10
5.93349e-10
6.12738e-10
6.30823e-10
6.47532e-10
6.62801e-10
6.76568e-10
6.88779e-10
6.99385e-10
7.08341e-10
7.1561e-10
7.21159e-10
7.24962e-10
7.26998e-10
7.27253e-10
7.25732e-10
7.2241e-10
7.173e-10
7.10416e-10
7.01776e-10
6.91405e-10
6.79335e-10
6.65607e-10
6.50265e-10
6.33363e-10
6.14963e-10
5.95132e-10
5.73945e-10
5.51486e-10
5.27844e-10
5.03115e-10
4.77404e-10
4.50822e-10
4.23486e-10
3.95521e-10
3.67057e-10
3.38233e-10
3.09193e-10
2.80088e-10
2.51077e-10
2.22328e-10
1.94016e-10
1.6633e-10
1.39473e-10
1.13668e-10
8.91657e-11
6.62633e-11
4.53292e-11
2.68656e-11
1.166e-11
1.29629e-12
1.29179e-12
1.16189e-11
2.67713e-11
4.51729e-11
6.60433e-11
8.88883e-11
1.13348e-10
1.39138e-10
1.66016e-10
1.93773e-10
2.22217e-10
2.51174e-10
2.80478e-10
3.09976e-10
3.39519e-10
3.68967e-10
3.98184e-10
4.2704e-10
4.5541e-10
4.83175e-10
5.10219e-10
5.36431e-10
5.61707e-10
5.85946e-10
6.09053e-10
6.30936e-10
6.51512e-10
6.70699e-10
6.88424e-10
7.04618e-10
7.19216e-10
7.32163e-10
7.43404e-10
7.52895e-10
7.60596e-10
7.66472e-10
7.70495e-10
7.72644e-10
7.72904e-10
7.71282e-10
7.67747e-10
7.62316e-10
7.55002e-10
7.45825e-10
7.34811e-10
7.21993e-10
7.07412e-10
6.91118e-10
6.73166e-10
6.53621e-10
6.32555e-10
6.10046e-10
5.86183e-10
5.61061e-10
5.34781e-10
5.07456e-10
4.79202e-10
4.50145e-10
4.20418e-10
3.90159e-10
3.59516e-10
3.28642e-10
2.977e-10
2.66858e-10
2.36294e-10
2.06197e-10
1.76766e-10
1.48218e-10
1.2079e-10
9.47495e-11
7.04103e-11
4.81645e-11
2.85453e-11
1.23888e-11
1.3773e-12
1.36723e-12
1.22974e-11
2.83344e-11
4.78095e-11
6.98962e-11
9.40709e-11
1.19952e-10
1.47237e-10
1.75671e-10
2.05029e-10
2.3511e-10
2.65726e-10
2.96704e-10
3.2788e-10
3.59095e-10
3.90202e-10
4.21057e-10
4.51522e-10
4.81465e-10
5.1076e-10
5.39285e-10
5.66924e-10
5.93567e-10
6.19107e-10
6.43445e-10
6.66487e-10
6.88143e-10
7.08331e-10
7.26972e-10
7.43995e-10
7.59335e-10
7.7293e-10
7.84728e-10
7.94681e-10
8.02748e-10
8.08892e-10
8.13087e-10
8.15308e-10
8.15542e-10
8.13796e-10
8.10036e-10
8.04282e-10
7.96546e-10
7.86849e-10
7.75218e-10
7.61689e-10
7.46304e-10
7.29113e-10
7.10177e-10
6.8956e-10
6.6734e-10
6.43599e-10
6.18429e-10
5.91929e-10
5.64208e-10
5.35382e-10
5.05575e-10
4.7492e-10
4.43555e-10
4.11628e-10
3.79295e-10
3.46718e-10
3.14068e-10
2.81524e-10
2.49274e-10
2.17518e-10
1.86465e-10
1.56346e-10
1.27409e-10
9.99382e-11
7.42638e-11
5.0799e-11
3.01059e-11
1.30659e-11
1.45257e-12
1.43984e-12
1.29504e-11
2.98384e-11
5.0346e-11
7.36018e-11
9.90536e-11
1.26299e-10
1.55017e-10
1.84939e-10
2.15827e-10
2.47467e-10
2.79663e-10
3.12229e-10
3.44992e-10
3.77786e-10
4.10453e-10
4.42843e-10
4.7481e-10
5.06215e-10
5.36926e-10
5.66815e-10
5.95762e-10
6.2365e-10
6.5037e-10
6.75818e-10
6.99896e-10
7.22512e-10
7.4358e-10
7.63021e-10
7.80761e-10
7.96733e-10
8.10875e-10
8.23134e-10
8.33459e-10
8.4181e-10
8.4815e-10
8.52452e-10
8.54692e-10
8.54855e-10
8.52952e-10
8.48946e-10
8.42856e-10
8.347e-10
8.24496e-10
8.12273e-10
7.98068e-10
7.81926e-10
7.63897e-10
7.44045e-10
7.22437e-10
6.99151e-10
6.74276e-10
6.47905e-10
6.20142e-10
5.91101e-10
5.60901e-10
5.29674e-10
4.97557e-10
4.64696e-10
4.31246e-10
3.97369e-10
3.63236e-10
3.29026e-10
2.94926e-10
2.61136e-10
2.27862e-10
1.95328e-10
1.63772e-10
1.33457e-10
1.04679e-10
7.7784e-11
5.32055e-11
3.15314e-11
1.36844e-11
1.52131e-12
1.50985e-12
1.35799e-11
3.12883e-11
5.27906e-11
7.7172e-11
1.03852e-10
1.32407e-10
1.625e-10
1.93847e-10
2.26196e-10
2.59323e-10
2.93019e-10
3.27089e-10
3.61349e-10
3.95626e-10
4.29753e-10
4.63571e-10
4.96928e-10
5.29679e-10
5.61685e-10
5.92813e-10
6.22937e-10
6.51938e-10
6.79703e-10
7.06123e-10
7.311e-10
7.54539e-10
7.76352e-10
7.96459e-10
8.14785e-10
8.31263e-10
8.45831e-10
8.58434e-10
8.69025e-10
8.77561e-10
8.84007e-10
8.88336e-10
8.90525e-10
8.90561e-10
8.88455e-10
8.84168e-10
8.77724e-10
8.69139e-10
8.58435e-10
8.4564e-10
8.30793e-10
8.13939e-10
7.95131e-10
7.74434e-10
7.51917e-10
7.27662e-10
7.01757e-10
6.743e-10
6.45399e-10
6.1517e-10
5.83738e-10
5.51237e-10
5.17811e-10
4.8361e-10
4.48796e-10
4.13538e-10
3.78012e-10
3.42407e-10
3.06916e-10
2.71747e-10
2.37116e-10
2.03255e-10
1.70414e-10
1.38866e-10
1.08918e-10
8.0932e-11
5.53574e-11
3.2806e-11
1.42373e-11
1.58277e-12
1.57764e-12
1.41894e-11
3.26919e-11
5.51564e-11
8.06258e-11
1.08492e-10
1.3831e-10
1.69725e-10
2.02439e-10
2.36188e-10
2.70733e-10
3.05855e-10
3.41348e-10
3.77019e-10
4.12685e-10
4.48171e-10
4.83309e-10
5.17942e-10
5.51916e-10
5.85089e-10
6.17322e-10
6.48485e-10
6.78455e-10
7.07116e-10
7.34359e-10
7.60082e-10
7.84189e-10
8.06594e-10
8.27214e-10
8.45977e-10
8.62815e-10
8.77668e-10
8.90482e-10
9.01211e-10
9.09814e-10
9.16258e-10
9.20516e-10
9.22569e-10
9.22405e-10
9.20035e-10
9.15421e-10
9.08592e-10
8.99563e-10
8.88356e-10
8.75003e-10
8.59541e-10
8.42019e-10
8.22491e-10
8.01022e-10
7.77683e-10
7.52557e-10
7.25734e-10
6.97316e-10
6.6741e-10
6.36137e-10
6.03624e-10
5.70009e-10
5.35439e-10
5.00071e-10
4.64069e-10
4.27608e-10
3.9087e-10
3.5405e-10
3.17348e-10
2.80979e-10
2.45167e-10
2.10153e-10
1.76193e-10
1.43571e-10
1.12605e-10
8.36697e-11
5.72286e-11
3.39142e-11
1.4718e-11
1.6362e-12
1.64371e-12
1.47835e-11
3.40596e-11
5.74612e-11
8.39891e-11
1.13007e-10
1.4405e-10
1.76745e-10
2.10779e-10
2.45872e-10
2.81776e-10
3.18256e-10
3.55099e-10
3.92099e-10
4.29063e-10
4.65808e-10
5.0216e-10
5.37952e-10
5.73026e-10
6.07233e-10
6.4043e-10
6.72483e-10
7.03268e-10
7.32665e-10
7.60565e-10
7.86865e-10
8.11471e-10
8.34295e-10
8.55258e-10
8.74288e-10
8.9132e-10
9.06296e-10
9.19166e-10
9.29885e-10
9.38417e-10
9.4473e-10
9.48802e-10
9.50615e-10
9.50163e-10
9.47451e-10
9.42451e-10
9.35192e-10
9.25691e-10
9.13971e-10
9.00065e-10
8.84013e-10
8.65863e-10
8.45671e-10
8.23501e-10
7.99429e-10
7.73535e-10
7.45912e-10
7.16661e-10
6.85893e-10
6.53729e-10
6.20299e-10
5.85743e-10
5.50209e-10
5.13859e-10
4.76859e-10
4.39389e-10
4.01636e-10
3.63798e-10
3.26082e-10
2.88709e-10
2.51908e-10
2.15926e-10
1.8103e-10
1.47509e-10
1.15691e-10
8.59603e-11
5.87939e-11
3.48411e-11
1.512e-11
1.68089e-12
1.70872e-12
1.53681e-11
3.54051e-11
5.97277e-11
8.72948e-11
1.17442e-10
1.49683e-10
1.83628e-10
2.18944e-10
2.5534e-10
2.92552e-10
3.30335e-10
3.68461e-10
4.06714e-10
4.44893e-10
4.82803e-10
5.20262e-10
5.57098e-10
5.93144e-10
6.28248e-10
6.62262e-10
6.9505e-10
7.26483e-10
7.56444e-10
7.84822e-10
8.11515e-10
8.3643e-10
8.59483e-10
8.80598e-10
8.99705e-10
9.16743e-10
9.3166e-10
9.44409e-10
9.5495e-10
9.63251e-10
9.69286e-10
9.73035e-10
9.74485e-10
9.73638e-10
9.70491e-10
9.6503e-10
9.57284e-10
9.4727e-10
9.35016e-10
9.20555e-10
9.03929e-10
8.85186e-10
8.64383e-10
8.41585e-10
8.16867e-10
7.90311e-10
7.62009e-10
7.32062e-10
7.00582e-10
6.6769e-10
6.33516e-10
5.98202e-10
5.61897e-10
5.24763e-10
4.86971e-10
4.48701e-10
4.10143e-10
3.715e-10
3.32983e-10
2.94815e-10
2.57232e-10
2.20487e-10
1.8485e-10
1.50618e-10
1.18127e-10
8.77682e-11
6.00291e-11
3.55723e-11
1.54372e-11
1.71613e-12
1.77345e-12
1.595e-11
3.67443e-11
6.19829e-11
9.05824e-11
1.2185e-10
1.55277e-10
1.90453e-10
2.2703e-10
2.647e-10
3.03184e-10
3.42224e-10
3.81578e-10
4.2102e-10
4.60336e-10
4.99322e-10
5.37787e-10
5.75551e-10
6.12442e-10
6.48302e-10
6.8298e-10
7.16337e-10
7.48245e-10
7.78584e-10
8.07245e-10
8.34131e-10
8.5915e-10
8.82222e-10
9.03277e-10
9.2225e-10
9.39086e-10
9.53739e-10
9.66168e-10
9.76341e-10
9.8423e-10
9.89816e-10
9.93086e-10
9.94031e-10
9.92663e-10
9.88971e-10
9.82959e-10
9.74653e-10
9.64076e-10
9.51256e-10
9.36228e-10
9.19036e-10
8.99729e-10
8.78365e-10
8.55009e-10
8.29734e-10
8.02622e-10
7.73765e-10
7.43264e-10
7.11228e-10
6.77777e-10
6.43043e-10
6.07164e-10
5.70291e-10
5.32586e-10
4.94218e-10
4.55371e-10
4.16235e-10
3.77015e-10
3.37923e-10
2.99186e-10
2.61043e-10
2.2375e-10
1.87583e-10
1.52842e-10
1.19869e-10
8.90603e-11
6.09114e-11
3.60945e-11
1.56635e-11
1.74129e-12
1.83879e-12
1.65374e-11
3.80959e-11
6.42581e-11
9.38975e-11
1.26291e-10
1.60907e-10
1.97314e-10
2.35146e-10
2.74077e-10
3.13813e-10
3.54079e-10
3.9462e-10
4.35196e-10
4.7558e-10
5.1556e-10
5.54934e-10
5.93514e-10
6.31122e-10
6.67594e-10
7.02777e-10
7.36531e-10
7.68726e-10
7.99245e-10
8.27982e-10
8.54842e-10
8.79741e-10
9.02604e-10
9.23366e-10
9.41973e-10
9.58377e-10
9.72538e-10
9.84427e-10
9.94018e-10
1.00129e-09
1.00624e-09
1.00885e-09
1.00913e-09
1.0071e-09
1.00274e-09
9.96068e-10
9.87117e-10
9.75911e-10
9.62481e-10
9.46866e-10
9.2911e-10
9.09263e-10
8.87382e-10
8.63533e-10
8.37788e-10
8.10228e-10
7.80943e-10
7.50032e-10
7.17601e-10
6.8377e-10
6.48665e-10
6.12425e-10
5.75198e-10
5.37143e-10
4.98431e-10
4.59242e-10
4.19767e-10
3.80209e-10
3.40783e-10
3.01716e-10
2.63248e-10
2.25638e-10
1.89163e-10
1.54128e-10
1.20875e-10
8.9806e-11
6.14202e-11
3.63954e-11
1.57939e-11
1.75577e-12
1.90575e-12
1.71394e-11
3.94807e-11
6.65885e-11
9.7291e-11
1.30835e-10
1.6666e-10
2.04316e-10
2.43416e-10
2.83614e-10
3.24596e-10
3.66073e-10
4.07773e-10
4.49441e-10
4.90838e-10
5.31737e-10
5.71928e-10
6.11213e-10
6.49409e-10
6.86346e-10
7.2187e-10
7.55839e-10
7.88124e-10
8.18611e-10
8.47199e-10
8.73799e-10
8.98334e-10
9.20738e-10
9.40955e-10
9.58942e-10
9.7466e-10
9.88082e-10
9.99188e-10
1.00796e-09
1.0144e-09
1.0185e-09
1.02026e-09
1.0197e-09
1.01684e-09
1.01166e-09
1.00421e-09
9.94519e-10
9.82608e-10
9.68516e-10
9.52284e-10
9.33956e-10
9.13585e-10
8.91229e-10
8.6695e-10
8.40822e-10
8.12921e-10
7.83336e-10
7.52161e-10
7.19501e-10
6.85471e-10
6.50193e-10
6.13803e-10
5.76444e-10
5.38273e-10
4.99456e-10
4.60171e-10
4.20607e-10
3.80965e-10
3.41458e-10
3.02312e-10
2.63767e-10
2.26082e-10
1.89534e-10
1.54428e-10
1.21108e-10
8.99782e-11
6.15371e-11
3.6464e-11
1.58235e-11
1.75905e-12
1.97543e-12
1.77657e-11
4.09214e-11
6.90122e-11
1.00819e-10
1.35554e-10
1.72631e-10
2.11574e-10
2.51973e-10
2.93462e-10
3.35707e-10
3.78397e-10
4.21244e-10
4.63975e-10
5.06336e-10
5.48088e-10
5.89009e-10
6.28891e-10
6.67546e-10
7.04798e-10
7.4049e-10
7.74482e-10
8.06647e-10
8.36876e-10
8.65074e-10
8.9116e-10
9.15068e-10
9.36743e-10
9.56142e-10
9.73232e-10
9.8799e-10
1.0004e-09
1.01046e-09
1.01817e-09
1.02353e-09
1.02655e-09
1.02725e-09
1.02565e-09
1.02177e-09
1.01564e-09
1.00728e-09
9.96731e-10
9.84029e-10
9.69213e-10
9.52327e-10
9.33422e-10
9.12548e-10
8.8976e-10
8.65123e-10
8.38703e-10
8.10577e-10
7.80827e-10
7.49544e-10
7.16828e-10
6.82788e-10
6.47541e-10
6.11217e-10
5.73956e-10
5.35906e-10
4.9723e-10
4.58101e-10
4.18703e-10
3.79233e-10
3.39902e-10
3.00932e-10
2.62562e-10
2.25048e-10
1.88665e-10
1.53718e-10
1.2055e-10
8.95613e-11
6.12506e-11
3.62935e-11
1.57492e-11
1.75078e-12
2.04899e-12
1.8427e-11
4.24422e-11
7.15701e-11
1.0454e-10
1.40529e-10
1.7892e-10
2.19209e-10
2.60961e-10
3.03786e-10
3.47326e-10
3.9125e-10
4.35247e-10
4.79026e-10
5.22316e-10
5.64862e-10
6.06429e-10
6.46802e-10
6.85782e-10
7.23191e-10
7.58871e-10
7.92682e-10
8.24502e-10
8.54229e-10
8.81777e-10
9.07076e-10
9.30073e-10
9.50728e-10
9.69011e-10
9.84908e-10
9.98412e-10
1.00952e-09
1.01826e-09
1.02462e-09
1.02863e-09
1.03033e-09
1.02975e-09
1.02691e-09
1.02184e-09
1.01458e-09
1.00518e-09
9.93667e-10
9.80092e-10
9.64496e-10
9.46925e-10
9.27426e-10
9.06053e-10
8.82863e-10
8.57916e-10
8.3128e-10
8.03026e-10
7.73232e-10
7.41984e-10
7.09375e-10
6.75509e-10
6.40495e-10
6.04457e-10
5.67524e-10
5.29841e-10
4.91562e-10
4.52851e-10
4.13889e-10
3.74864e-10
3.35982e-10
2.97461e-10
2.59534e-10
2.22452e-10
1.86489e-10
1.51944e-10
1.19158e-10
8.85263e-11
6.05419e-11
3.5873e-11
1.55666e-11
1.73047e-12
2.12767e-12
1.91343e-11
4.40686e-11
7.43047e-11
1.08517e-10
1.45842e-10
1.8563e-10
2.27346e-10
2.70527e-10
3.14754e-10
3.59644e-10
4.04839e-10
4.50005e-10
4.94829e-10
5.3902e-10
5.82307e-10
6.24441e-10
6.65194e-10
7.04362e-10
7.41762e-10
7.77236e-10
8.10646e-10
8.41879e-10
8.7084e-10
8.97457e-10
9.21673e-10
9.43452e-10
9.62771e-10
9.79621e-10
9.94006e-10
1.00594e-09
1.01544e-09
1.02254e-09
1.02727e-09
1.02968e-09
1.02981e-09
1.0277e-09
1.0234e-09
1.01695e-09
1.0084e-09
9.978e-10
9.852e-10
9.70645e-10
9.54186e-10
9.35873e-10
9.15757e-10
8.93892e-10
8.70333e-10
8.45139e-10
8.18372e-10
7.901e-10
7.60395e-10
7.29337e-10
6.97012e-10
6.63514e-10
6.28945e-10
5.93419e-10
5.57058e-10
5.19994e-10
4.82374e-10
4.44353e-10
4.06101e-10
3.67801e-10
3.29647e-10
2.91852e-10
2.54642e-10
2.18262e-10
1.82978e-10
1.49086e-10
1.16917e-10
8.6861e-11
5.94027e-11
3.51977e-11
1.52734e-11
1.69788e-12
2.21269e-12
1.98987e-11
4.58261e-11
7.72592e-11
1.12812e-10
1.51578e-10
1.92868e-10
2.36115e-10
2.80821e-10
3.26537e-10
3.72849e-10
4.19369e-10
4.65737e-10
5.11615e-10
5.56688e-10
6.00665e-10
6.43283e-10
6.84302e-10
7.23509e-10
7.6072e-10
7.95777e-10
8.28547e-10
8.58926e-10
8.86834e-10
9.12211e-10
9.35023e-10
9.55251e-10
9.72896e-10
9.87972e-10
1.00051e-09
1.01053e-09
1.01809e-09
1.02325e-09
1.02606e-09
1.02658e-09
1.02488e-09
1.021e-09
1.01502e-09
1.007e-09
9.96986e-10
9.85049e-10
9.71242e-10
9.55621e-10
9.38239e-10
9.19151e-10
8.98409e-10
8.76068e-10
8.5218e-10
8.26803e-10
7.99994e-10
7.71816e-10
7.42335e-10
7.11622e-10
6.79755e-10
6.46818e-10
6.12905e-10
5.78118e-10
5.42567e-10
5.06374e-10
4.69674e-10
4.32612e-10
3.95346e-10
3.58047e-10
3.20902e-10
2.84111e-10
2.47892e-10
2.1248e-10
1.78135e-10
1.45143e-10
1.13826e-10
8.45656e-11
5.78329e-11
3.42675e-11
1.48697e-11
1.65299e-12
2.3053e-12
2.07313e-11
4.77402e-11
8.04767e-11
1.17488e-10
1.57819e-10
2.00738e-10
2.4564e-10
2.9199e-10
3.39302e-10
3.87126e-10
4.35042e-10
4.82657e-10
5.29604e-10
5.75541e-10
6.20157e-10
6.6317e-10
7.04327e-10
7.43409e-10
7.8023e-10
8.14633e-10
8.46497e-10
8.75728e-10
9.02263e-10
9.26064e-10
9.47119e-10
9.65436e-10
9.81042e-10
9.93978e-10
1.00429e-09
1.01206e-09
1.01736e-09
1.02025e-09
1.02084e-09
1.01919e-09
1.01539e-09
1.00951e-09
1.00165e-09
9.91861e-10
9.80232e-10
9.66827e-10
9.51711e-10
9.34947e-10
9.16593e-10
8.96707e-10
8.75341e-10
8.52549e-10
8.28384e-10
8.02898e-10
7.76145e-10
7.48179e-10
7.19061e-10
6.88852e-10
6.57621e-10
6.25442e-10
5.92397e-10
5.58574e-10
5.24073e-10
4.89003e-10
4.53485e-10
4.17649e-10
3.81642e-10
3.45622e-10
3.09762e-10
2.74251e-10
2.39295e-10
2.05119e-10
1.7197e-10
1.40124e-10
1.09894e-10
8.1646e-11
5.58369e-11
3.30849e-11
1.43565e-11
1.59595e-12
2.40669e-12
2.16428e-11
4.98356e-11
8.39982e-11
1.22605e-10
1.64645e-10
2.09342e-10
2.56044e-10
3.04175e-10
3.53207e-10
4.02649e-10
4.52043e-10
5.00957e-10
5.4899e-10
5.95773e-10
6.40967e-10
6.84271e-10
7.2542e-10
7.64188e-10
8.00387e-10
8.33869e-10
8.64523e-10
8.92274e-10
9.1708e-10
9.38931e-10
9.57842e-10
9.73855e-10
9.87027e-10
9.97427e-10
1.00516e-09
1.01031e-09
1.01298e-09
1.01329e-09
1.01134e-09
1.00725e-09
1.0011e-09
9.93007e-10
9.83062e-10
9.71355e-10
9.57973e-10
9.42993e-10
9.2649e-10
9.08531e-10
8.8918e-10
8.68494e-10
8.46528e-10
8.23333e-10
7.9896e-10
7.73456e-10
7.46868e-10
7.19246e-10
6.9064e-10
6.61103e-10
6.30691e-10
5.99469e-10
5.67504e-10
5.34873e-10
5.01661e-10
4.67962e-10
4.33881e-10
3.99536e-10
3.65057e-10
3.30586e-10
2.96284e-10
2.62323e-10
2.28897e-10
1.96217e-10
1.64517e-10
1.34059e-10
1.05142e-10
7.81191e-11
5.34264e-11
3.16571e-11
1.3737e-11
1.52709e-12
2.51796e-12
2.26429e-11
5.21349e-11
8.7862e-11
1.28218e-10
1.7213e-10
2.1877e-10
2.67436e-10
3.17503e-10
3.68394e-10
4.19573e-10
4.70533e-10
5.208e-10
5.69935e-10
6.17533e-10
6.63227e-10
7.06695e-10
7.47659e-10
7.85886e-10
8.21192e-10
8.5344e-10
8.82534e-10
9.08425e-10
9.311e-10
9.50582e-10
9.66923e-10
9.80203e-10
9.9051e-10
9.97976e-10
1.00272e-09
1.00485e-09
1.00457e-09
1.00198e-09
9.97208e-10
9.90401e-10
9.81682e-10
9.71172e-10
9.58984e-10
9.45224e-10
9.29988e-10
9.13363e-10
8.9543e-10
8.76261e-10
8.55922e-10
8.34471e-10
8.11961e-10
7.88441e-10
7.63957e-10
7.3855e-10
7.12262e-10
6.85132e-10
6.57202e-10
6.28514e-10
5.99114e-10
5.69053e-10
5.38384e-10
5.0717e-10
4.75482e-10
4.43397e-10
4.11005e-10
3.78406e-10
3.45714e-10
3.13055e-10
2.80571e-10
2.48421e-10
2.1678e-10
1.85846e-10