/*--------------------------------*- C++ -*----------------------------------*\
  =========                 |
  \\      /  F ield         | OpenFOAM: The Open Source CFD Toolbox
   \\    /   O peration     | Website:  https://openfoam.org
    \\  /    A nd           | Version:  12
     \\/     M anipulation  |
\*---------------------------------------------------------------------------*/
FoamFile
{
    format      ascii;
    class       volScalarField;
    location    "9";
    object      nut;
}
// * * * * * * * * * * * * * * * * * * * * * * * * * * * * * * * * * * * * * //

dimensions      [0 2 -1 0 0 0 0];

internalField   nonuniform List<scalar> 
5625
(
2.79962e-19
8.45877e-18
1.79315e-17
2.92412e-17
4.19837e-17
5.58541e-17
7.063e-17
8.61402e-17
1.02244e-16
1.18821e-16
1.35763e-16
1.52968e-16
1.70345e-16
1.87804e-16
2.05262e-16
2.22637e-16
2.39852e-16
2.5683e-16
2.73501e-16
2.89794e-16
3.05643e-16
3.20982e-16
3.3575e-16
3.49888e-16
3.6334e-16
3.76054e-16
3.8798e-16
3.99071e-16
4.09284e-16
4.18578e-16
4.26919e-16
4.34273e-16
4.40611e-16
4.45908e-16
4.50143e-16
4.53298e-16
4.5536e-16
4.5632e-16
4.56173e-16
4.54918e-16
4.52555e-16
4.49092e-16
4.44541e-16
4.38916e-16
4.32236e-16
4.24526e-16
4.15813e-16
4.06127e-16
3.95505e-16
3.83985e-16
3.71612e-16
3.58431e-16
3.44494e-16
3.29854e-16
3.1457e-16
2.98704e-16
2.82319e-16
2.65485e-16
2.48273e-16
2.30757e-16
2.13018e-16
1.95136e-16
1.77197e-16
1.59293e-16
1.41518e-16
1.23973e-16
1.06767e-16
9.00183e-17
7.38583e-17
5.84396e-17
4.3947e-17
3.0619e-17
1.87808e-17
8.86042e-18
2.93252e-19
1.89272e-18
2.7566e-16
1.47148e-15
3.44135e-15
5.78789e-15
8.32464e-15
1.0985e-14
1.37407e-14
1.6574e-14
1.947e-14
2.24146e-14
2.53942e-14
2.8395e-14
3.14038e-14
3.44074e-14
3.73929e-14
4.03478e-14
4.32599e-14
4.61172e-14
4.89082e-14
5.16217e-14
5.42469e-14
5.67735e-14
5.91916e-14
6.14918e-14
6.36651e-14
6.57033e-14
6.75983e-14
6.9343e-14
7.09306e-14
7.23549e-14
7.36104e-14
7.46924e-14
7.55964e-14
7.63189e-14
7.6857e-14
7.72082e-14
7.7371e-14
7.73444e-14
7.71284e-14
7.67233e-14
7.61303e-14
7.53515e-14
7.43895e-14
7.32475e-14
7.19295e-14
7.04401e-14
6.87847e-14
6.69691e-14
6.50002e-14
6.2885e-14
6.06316e-14
5.82483e-14
5.57444e-14
5.31294e-14
5.04137e-14
4.76079e-14
4.47234e-14
4.1772e-14
3.8766e-14
3.57181e-14
3.26414e-14
2.95497e-14
2.64569e-14
2.33775e-14
2.03262e-14
1.73181e-14
1.43688e-14
1.14947e-14
8.71548e-15
6.06191e-15
3.60504e-15
1.54157e-15
2.88798e-16
1.983e-18
4.20697e-18
6.90284e-16
4.71142e-15
1.40759e-14
2.84361e-14
4.63109e-14
6.63687e-14
8.77513e-14
1.09961e-13
1.32702e-13
1.55788e-13
1.79079e-13
2.02463e-13
2.25839e-13
2.49112e-13
2.72192e-13
2.9499e-13
3.17418e-13
3.39393e-13
3.60829e-13
3.81648e-13
4.01769e-13
4.21118e-13
4.39622e-13
4.57212e-13
4.73822e-13
4.89389e-13
5.03855e-13
5.17167e-13
5.29273e-13
5.4013e-13
5.49696e-13
5.57934e-13
5.64814e-13
5.70308e-13
5.74394e-13
5.77057e-13
5.78284e-13
5.78069e-13
5.76412e-13
5.73314e-13
5.68784e-13
5.62838e-13
5.55495e-13
5.46779e-13
5.36719e-13
5.25351e-13
5.12713e-13
4.98849e-13
4.83808e-13
4.67643e-13
4.50413e-13
4.32178e-13
4.13006e-13
3.92966e-13
3.72132e-13
3.50581e-13
3.28395e-13
3.05656e-13
2.82451e-13
2.58871e-13
2.35007e-13
2.10955e-13
1.86817e-13
1.62701e-13
1.3873e-13
1.15055e-13
9.18821e-14
6.95305e-14
4.85344e-14
2.98067e-14
1.47549e-14
4.93871e-15
7.23648e-16
4.41065e-18
6.95328e-18
1.16956e-15
8.52608e-15
2.80122e-14
6.26074e-14
1.11653e-13
1.72395e-13
2.41676e-13
3.16818e-13
3.95828e-13
4.77289e-13
5.60202e-13
6.43834e-13
7.27619e-13
8.11097e-13
8.93872e-13
9.75586e-13
1.05591e-12
1.13454e-12
1.21117e-12
1.28552e-12
1.35733e-12
1.42632e-12
1.49224e-12
1.55486e-12
1.61396e-12
1.6693e-12
1.72071e-12
1.76798e-12
1.81095e-12
1.84947e-12
1.88338e-12
1.91257e-12
1.93694e-12
1.95638e-12
1.97082e-12
1.98021e-12
1.98452e-12
1.98371e-12
1.97779e-12
1.96676e-12
1.95066e-12
1.92954e-12
1.90345e-12
1.8725e-12
1.83677e-12
1.79639e-12
1.75148e-12
1.7022e-12
1.64871e-12
1.5912e-12
1.52985e-12
1.46488e-12
1.39651e-12
1.32498e-12
1.25054e-12
1.17344e-12
1.09398e-12
1.01244e-12
9.29142e-13
8.44412e-13
7.58624e-13
6.72195e-13
5.85617e-13
4.995e-13
4.14641e-13
3.32129e-13
2.53498e-13
1.80892e-13
1.17175e-13
6.57032e-14
2.93954e-14
8.94693e-15
1.22741e-15
7.29775e-18
1.00031e-17
1.69684e-15
1.26685e-14
4.32802e-14
1.01577e-13
1.90807e-13
3.09612e-13
4.53761e-13
6.17982e-13
7.97197e-13
9.87064e-13
1.18409e-12
1.38554e-12
1.58926e-12
1.79354e-12
1.99698e-12
2.1984e-12
2.39678e-12
2.59119e-12
2.78081e-12
2.96486e-12
3.14262e-12
3.31342e-12
3.4766e-12
3.63159e-12
3.77781e-12
3.91473e-12
4.04187e-12
4.15876e-12
4.26499e-12
4.36017e-12
4.44398e-12
4.5161e-12
4.57628e-12
4.6243e-12
4.65997e-12
4.68318e-12
4.69381e-12
4.69183e-12
4.67725e-12
4.65004e-12
4.61031e-12
4.55817e-12
4.49378e-12
4.41734e-12
4.3291e-12
4.22932e-12
4.11834e-12
3.9965e-12
3.86421e-12
3.72189e-12
3.57003e-12
3.40912e-12
3.23973e-12
3.06244e-12
2.87789e-12
2.68677e-12
2.48983e-12
2.2879e-12
2.08191e-12
1.8729e-12
1.66213e-12
1.45109e-12
1.24163e-12
1.03611e-12
8.37488e-13
6.49587e-13
4.7712e-13
3.25579e-13
2.00627e-13
1.06783e-13
4.54891e-14
1.33137e-14
1.78335e-15
1.05136e-17
1.3273e-17
2.26e-15
1.70552e-14
5.93529e-14
1.42813e-13
2.76146e-13
4.61918e-13
6.97419e-13
9.76529e-13
1.29159e-12
1.6348e-12
1.99899e-12
2.37795e-12
2.76643e-12
3.16006e-12
3.55522e-12
3.94883e-12
4.33827e-12
4.72127e-12
5.09583e-12
5.46014e-12
5.81257e-12
6.1516e-12
6.47588e-12
6.78409e-12
7.07505e-12
7.34765e-12
7.60087e-12
7.83378e-12
8.04552e-12
8.23532e-12
8.40249e-12
8.54643e-12
8.66661e-12
8.7626e-12
8.83404e-12
8.88064e-12
8.90224e-12
8.89873e-12
8.87015e-12
8.8164e-12
8.73772e-12
8.63432e-12
8.50652e-12
8.35471e-12
8.17935e-12
7.98099e-12
7.76028e-12
7.51791e-12
7.2547e-12
6.97152e-12
6.66934e-12
6.34923e-12
6.01235e-12
5.65999e-12
5.29358e-12
4.9147e-12
4.52512e-12
4.12689e-12
3.72235e-12
3.31426e-12
2.9059e-12
2.50119e-12
2.10492e-12
1.72287e-12
1.36192e-12
1.02997e-12
7.35581e-13
4.87075e-13
2.91068e-13
1.50461e-13
6.25062e-14
1.79569e-14
2.37939e-15
1.39743e-17
1.67002e-17
2.84909e-15
2.16213e-14
7.59848e-14
1.85361e-13
3.64474e-13
6.21119e-13
9.5606e-13
1.36439e-12
1.83755e-12
2.36511e-12
2.93631e-12
3.54087e-12
4.16948e-12
4.81391e-12
5.46704e-12
6.12268e-12
6.7755e-12
7.42084e-12
8.05458e-12
8.67309e-12
9.27311e-12
9.85167e-12
1.04061e-11
1.09339e-11
1.14329e-11
1.1901e-11
1.23363e-11
1.27371e-11
1.31018e-11
1.34291e-11
1.37177e-11
1.39665e-11
1.41746e-11
1.43411e-11
1.44655e-11
1.45471e-11
1.45857e-11
1.45811e-11
1.45334e-11
1.44423e-11
1.43082e-11
1.41316e-11
1.39129e-11
1.36528e-11
1.33522e-11
1.30119e-11
1.26332e-11
1.22173e-11
1.17657e-11
1.12799e-11
1.07617e-11
1.02133e-11
9.63686e-12
9.03487e-12
8.41018e-12
7.766e-12
7.106e-12
6.43439e-12
5.75612e-12
5.07693e-12
4.40362e-12
3.74409e-12
3.10753e-12
2.50438e-12
1.94615e-12
1.44486e-12
1.01202e-12
6.5706e-13
3.8527e-13
1.95786e-13
8.02061e-14
2.28127e-14
3.00562e-15
1.76169e-17
2.02334e-17
3.45574e-15
2.63092e-14
9.29861e-14
2.28682e-13
4.54256e-13
7.83231e-13
1.22087e-12
1.76495e-12
2.4075e-12
3.13688e-12
3.93954e-12
4.80149e-12
5.70916e-12
6.64995e-12
7.61243e-12
8.58638e-12
9.56275e-12
1.05335e-11
1.14915e-11
1.24303e-11
1.33443e-11
1.42283e-11
1.50777e-11
1.58882e-11
1.6656e-11
1.73776e-11
1.80498e-11
1.86697e-11
1.92348e-11
1.97426e-11
2.0191e-11
2.05784e-11
2.0903e-11
2.11636e-11
2.13591e-11
2.14886e-11
2.15516e-11
2.15476e-11
2.14769e-11
2.13389e-11
2.11343e-11
2.08637e-11
2.05279e-11
2.0128e-11
1.96653e-11
1.91413e-11
1.85579e-11
1.79171e-11
1.72215e-11
1.64737e-11
1.56768e-11
1.48343e-11
1.395e-11
1.30285e-11
1.20748e-11
1.10948e-11
1.00949e-11
9.08288e-12
8.06741e-12
7.05849e-12
6.06761e-12
5.10769e-12
4.19312e-12
3.33936e-12
2.56235e-12
1.8774e-12
1.29753e-12
8.31513e-13
4.81695e-13
2.42223e-13
9.83996e-14
2.7823e-14
3.65352e-15
2.13893e-17
2.38292e-17
4.07265e-15
3.10669e-14
1.10186e-13
2.72354e-13
5.44513e-13
9.45999e-13
1.48698e-12
2.16868e-12
2.9848e-12
3.92354e-12
4.96966e-12
6.10609e-12
7.31546e-12
8.58081e-12
9.88619e-12
1.12169e-11
1.25595e-11
1.3902e-11
1.52333e-11
1.65438e-11
1.78243e-11
1.90671e-11
2.02647e-11
2.14106e-11
2.24987e-11
2.35235e-11
2.44802e-11
2.53642e-11
2.61715e-11
2.68985e-11
2.75418e-11
2.80987e-11
2.85668e-11
2.89439e-11
2.92283e-11
2.94188e-11
2.95143e-11
2.95142e-11
2.94188e-11
2.9227e-11
2.894e-11
2.85585e-11
2.80836e-11
2.7517e-11
2.68606e-11
2.61168e-11
2.52883e-11
2.43785e-11
2.33911e-11
2.23303e-11
2.1201e-11
2.00088e-11
1.87599e-11
1.74614e-11
1.61216e-11
1.47496e-11
1.33559e-11
1.19526e-11
1.0553e-11
9.17256e-12
7.82805e-12
6.53802e-12
5.32219e-12
4.2008e-12
3.19354e-12
2.31788e-12
1.58711e-12
1.00813e-12
5.79344e-13
2.8934e-13
1.16911e-13
3.2934e-14
4.31554e-15
2.52462e-17
2.74495e-17
4.69347e-15
3.58477e-14
1.27428e-13
3.16007e-13
6.34469e-13
1.10786e-12
1.75132e-12
2.5698e-12
3.55925e-12
4.70845e-12
6.00121e-12
7.41828e-12
8.93891e-12
1.05422e-11
1.22079e-11
1.39168e-11
1.56508e-11
1.73934e-11
1.91296e-11
2.08456e-11
2.25286e-11
2.41674e-11
2.57514e-11
2.72712e-11
2.8718e-11
3.0084e-11
3.1362e-11
3.25454e-11
3.36284e-11
3.46057e-11
3.54727e-11
3.62251e-11
3.68594e-11
3.73725e-11
3.77619e-11
3.80255e-11
3.8162e-11
3.81701e-11
3.80504e-11
3.78013e-11
3.74239e-11
3.69195e-11
3.62897e-11
3.55365e-11
3.46629e-11
3.36721e-11
3.25681e-11
3.13556e-11
3.00402e-11
2.86279e-11
2.7126e-11
2.55426e-11
2.3887e-11
2.21696e-11
2.04024e-11
1.85989e-11
1.67742e-11
1.49455e-11
1.31316e-11
1.13536e-11
9.63417e-12
7.99745e-12
6.46831e-12
5.07128e-12
3.82899e-12
2.76017e-12
1.87751e-12
1.18525e-12
6.77382e-13
3.36735e-13
1.3557e-13
3.8095e-14
4.98475e-15
2.91464e-17
3.10614e-17
5.31258e-15
4.06099e-14
1.44571e-13
3.59301e-13
7.2345e-13
1.26758e-12
2.01165e-12
2.96438e-12
4.12416e-12
5.48079e-12
7.01762e-12
8.71381e-12
1.05459e-11
1.24894e-11
1.45201e-11
1.66144e-11
1.87498e-11
2.09054e-11
2.30618e-11
2.52008e-11
2.73061e-11
2.93622e-11
3.13554e-11
3.32728e-11
3.51027e-11
3.68345e-11
3.84583e-11
3.99653e-11
4.13475e-11
4.25976e-11
4.37092e-11
4.46766e-11
4.54947e-11
4.61593e-11
4.66668e-11
4.70144e-11
4.71998e-11
4.72216e-11
4.70801e-11
4.67731e-11
4.6302e-11
4.56684e-11
4.48743e-11
4.39225e-11
4.28167e-11
4.15614e-11
4.01621e-11
3.86251e-11
3.69579e-11
3.5169e-11
3.32683e-11
3.1267e-11
2.91778e-11
2.70152e-11
2.47954e-11
2.25367e-11
2.02595e-11
1.79864e-11
1.57421e-11
1.35537e-11
1.14497e-11
9.45968e-12
7.6133e-12
5.93886e-12
4.46123e-12
3.19984e-12
2.16616e-12
1.36143e-12
7.75028e-13
3.84015e-13
1.54213e-13
4.32577e-14
5.65465e-15
3.30516e-17
3.46362e-17
5.92511e-15
4.5317e-14
1.61488e-13
4.01935e-13
8.1086e-13
1.42409e-12
2.26617e-12
3.34947e-12
4.67479e-12
6.23311e-12
8.00767e-12
9.9763e-12
1.21134e-11
1.43914e-11
1.67824e-11
1.92589e-11
2.17941e-11
2.43628e-11
2.69413e-11
2.95073e-11
3.20403e-11
3.45211e-11
3.69323e-11
3.92574e-11
4.14817e-11
4.35914e-11
4.55738e-11
4.74177e-11
4.91124e-11
5.06486e-11
5.20179e-11
5.32127e-11
5.42265e-11
5.50535e-11
5.5689e-11
5.61291e-11
5.63707e-11
5.64117e-11
5.62525e-11
5.589e-11
5.53258e-11
5.45617e-11
5.36003e-11
5.2445e-11
5.11006e-11
4.95729e-11
4.78687e-11
4.59965e-11
4.39658e-11
4.17878e-11
3.94754e-11
3.70432e-11
3.45077e-11
3.18877e-11
2.9204e-11
2.64802e-11
2.37421e-11
2.10181e-11
1.83389e-11
1.57375e-11
1.3248e-11
1.09054e-11
8.74373e-12
6.79447e-12
5.08438e-12
3.63318e-12
2.4508e-12
1.53532e-12
8.71519e-13
4.30796e-13
1.72681e-13
4.8376e-14
6.31909e-15
3.69255e-17
3.81494e-17
6.52688e-15
4.99375e-14
1.7807e-13
4.43643e-13
8.96178e-13
1.57648e-12
2.51342e-12
3.72274e-12
5.20757e-12
6.96003e-12
8.96341e-12
1.11945e-11
1.36258e-11
1.6227e-11
1.8967e-11
2.18146e-11
2.47393e-11
2.77117e-11
3.0704e-11
3.36899e-11
3.6645e-11
3.95463e-11
4.23726e-11
4.51041e-11
4.77225e-11
5.02112e-11
5.25546e-11
5.47384e-11
5.67498e-11
5.8577e-11
6.02094e-11
6.16375e-11
6.28531e-11
6.38488e-11
6.46185e-11
6.51572e-11
6.54609e-11
6.55265e-11
6.53546e-11
6.4941e-11
6.42874e-11
6.33959e-11
6.22695e-11
6.09124e-11
5.93303e-11
5.75303e-11
5.5521e-11
5.33127e-11
5.09174e-11
4.8349e-11
4.56236e-11
4.27592e-11
3.97767e-11
3.6699e-11
3.3552e-11
3.03645e-11
2.71678e-11
2.39963e-11
2.08866e-11
1.78774e-11
1.50084e-11
1.23194e-11
9.84871e-12
7.63055e-12
5.69336e-12
4.05683e-12
2.72927e-12
1.70559e-12
9.66101e-13
4.76696e-13
1.90815e-13
5.34049e-14
6.97213e-15
4.07333e-17
4.15807e-17
7.11443e-15
5.4445e-14
1.94225e-13
4.84203e-13
9.78966e-13
1.72401e-12
2.75218e-12
4.08236e-12
5.71976e-12
7.65757e-12
9.87912e-12
1.23603e-11
1.50719e-11
1.79814e-11
2.10545e-11
2.42569e-11
2.75544e-11
3.09141e-11
3.43042e-11
3.76949e-11
4.10577e-11
4.43661e-11
4.75954e-11
5.07224e-11
5.37256e-11
5.65852e-11
5.92827e-11
6.18012e-11
6.41253e-11
6.62407e-11
6.81347e-11
6.97958e-11
7.12139e-11
7.238e-11
7.32866e-11
7.39273e-11
7.42972e-11
7.43922e-11
7.42129e-11
7.37539e-11
7.3017e-11
7.20044e-11
7.07196e-11
6.91674e-11
6.73546e-11
6.52895e-11
6.29824e-11
6.04455e-11
5.76933e-11
5.47425e-11
5.16123e-11
4.83246e-11
4.4904e-11
4.13782e-11
3.7778e-11
3.41373e-11
3.04931e-11
2.68853e-11
2.33565e-11
1.99508e-11
1.67134e-11
1.36888e-11
1.09187e-11
8.4403e-12
6.28341e-12
4.46755e-12
2.99944e-12
1.87093e-12
1.05802e-12
5.21339e-13
2.08464e-13
5.8301e-14
7.60804e-15
4.44413e-17
4.49144e-17
7.68507e-15
5.88192e-14
2.0988e-13
5.23437e-13
1.05888e-12
1.86606e-12
2.98151e-12
4.4269e-12
6.20931e-12
8.32282e-12
1.07507e-11
1.34681e-11
1.64442e-11
1.96444e-11
2.30317e-11
2.65687e-11
3.02182e-11
3.39438e-11
3.77103e-11
4.14842e-11
4.52338e-11
4.89291e-11
5.25421e-11
5.60463e-11
5.94173e-11
6.26322e-11
6.56697e-11
6.85104e-11
7.11362e-11
7.35306e-11
7.56786e-11
7.75668e-11
7.91832e-11
8.05171e-11
8.15596e-11
8.2303e-11
8.27412e-11
8.28691e-11
8.26874e-11
8.21893e-11
8.13765e-11
8.02516e-11
7.88181e-11
7.70816e-11
7.50498e-11
7.27322e-11
7.01406e-11
6.72894e-11
6.41952e-11
6.08775e-11
5.73587e-11
5.36643e-11
4.98228e-11
4.58665e-11
4.18308e-11
3.77549e-11
3.3681e-11
2.96546e-11
2.57238e-11
2.19382e-11
1.83478e-11
1.50016e-11
1.19449e-11
9.21728e-12
6.8499e-12
4.86214e-12
3.2592e-12
2.03002e-12
1.14653e-12
5.6435e-13
2.25474e-13
6.30213e-14
8.22118e-15
4.80167e-17
4.81391e-17
8.23686e-15
6.30452e-14
2.24985e-13
5.61221e-13
1.13566e-12
2.00221e-12
3.20074e-12
4.75539e-12
6.67483e-12
8.95384e-12
1.15756e-11
1.45144e-11
1.77378e-11
2.12094e-11
2.48898e-11
2.87389e-11
3.27165e-11
3.67831e-11
4.09005e-11
4.5032e-11
4.91427e-11
5.31995e-11
5.71713e-11
6.10287e-11
6.47445e-11
6.8293e-11
7.16503e-11
7.47945e-11
7.77052e-11
8.03636e-11
8.27527e-11
8.48571e-11
8.66629e-11
8.81581e-11
8.9332e-11
9.01758e-11
9.06822e-11
9.08449e-11
9.06651e-11
9.0134e-11
8.92535e-11
8.80262e-11
8.6456e-11
8.45489e-11
8.23133e-11
7.97599e-11
7.69021e-11
7.37559e-11
7.03404e-11
6.66775e-11
6.27926e-11
5.87147e-11
5.44762e-11
5.01133e-11
4.56663e-11
4.11791e-11
3.66992e-11
3.22772e-11
2.79664e-11
2.38215e-11
1.98973e-11
1.62469e-11
1.29188e-11
9.95513e-12
7.38824e-12
5.23741e-12
3.50642e-12
2.18154e-12
1.23087e-12
6.05357e-13
2.41698e-13
6.75239e-14
8.80606e-15
5.14272e-17
5.12487e-17
8.76874e-15
6.7115e-14
2.39509e-13
5.97483e-13
1.20918e-12
2.13223e-12
3.40951e-12
5.06731e-12
7.11559e-12
9.54963e-12
1.23524e-11
1.54971e-11
1.89501e-11
2.2673e-11
2.66242e-11
3.07612e-11
3.5041e-11
3.94216e-11
4.38616e-11
4.83218e-11
5.27642e-11
5.71532e-11
6.14547e-11
6.56369e-11
6.96697e-11
7.35252e-11
7.71771e-11
8.06012e-11
8.37748e-11
8.66773e-11
8.92897e-11
9.15947e-11
9.3577e-11
9.52228e-11
9.65202e-11
9.74591e-11
9.80309e-11
9.82289e-11
9.80537e-11
9.74951e-11
9.6555e-11
9.52361e-11
9.35422e-11
9.148e-11
8.90583e-11
8.62891e-11
8.31869e-11
7.97694e-11
7.60576e-11
7.2076e-11
6.78528e-11
6.34198e-11
5.88134e-11
5.40735e-11
4.92447e-11
4.43754e-11
3.95179e-11
3.47278e-11
3.00632e-11
2.55835e-11
2.1348e-11
1.74136e-11
1.38319e-11
1.06475e-11
7.89383e-12
5.59013e-12
3.73896e-12
2.32415e-12
1.3103e-12
6.4399e-13
2.56985e-13
7.17671e-14
9.35724e-15
5.46411e-17
5.42417e-17
9.28047e-15
7.10266e-14
2.53448e-13
6.32211e-13
1.27941e-12
2.2561e-12
3.60779e-12
5.36263e-12
7.53158e-12
1.01101e-11
1.30809e-11
1.64161e-11
2.00806e-11
2.40342e-11
2.82334e-11
3.26332e-11
3.71883e-11
4.1854e-11
4.65867e-11
5.13444e-11
5.60869e-11
6.07757e-11
6.53746e-11
6.98494e-11
7.41678e-11
7.82996e-11
8.22166e-11
8.58924e-11
8.93027e-11
9.2425e-11
9.52385e-11
9.77246e-11
9.98663e-11
1.01648e-10
1.03058e-10
1.04083e-10
1.04715e-10
1.04947e-10
1.04777e-10
1.04195e-10
1.03203e-10
1.01803e-10
9.99993e-11
9.77985e-11
9.52102e-11
9.22472e-11
8.8925e-11
8.52629e-11
8.12836e-11
7.70138e-11
7.24839e-11
6.7729e-11
6.27883e-11
5.77055e-11
5.25289e-11
4.73112e-11
4.2109e-11
3.69824e-11
3.19939e-11
2.72074e-11
2.26863e-11
1.84909e-11
1.46759e-11
1.12881e-11
8.36204e-12
5.91706e-12
3.95467e-12
2.45652e-12
1.38407e-12
6.79881e-13
2.7119e-13
7.57099e-14
9.86936e-15
5.7627e-17
5.71222e-17
9.77274e-15
7.47855e-14
2.66819e-13
6.65452e-13
1.34646e-12
2.37399e-12
3.79591e-12
5.64183e-12
7.92347e-12
1.06363e-11
1.37623e-11
1.72727e-11
2.11308e-11
2.52947e-11
2.97189e-11
3.4356e-11
3.91588e-11
4.40803e-11
4.90745e-11
5.40972e-11
5.91059e-11
6.40601e-11
6.89216e-11
7.3654e-11
7.82233e-11
8.25973e-11
8.67462e-11
9.0642e-11
9.42587e-11
9.75724e-11
1.00561e-10
1.03204e-10
1.05484e-10
1.07385e-10
1.08892e-10
1.09992e-10
1.10676e-10
1.10936e-10
1.10771e-10
1.10169e-10
1.09131e-10
1.0766e-10
1.0576e-10
1.03437e-10
1.00703e-10
9.75695e-11
9.40539e-11
9.01763e-11
8.5961e-11
8.14365e-11
7.66354e-11
7.15951e-11
6.63577e-11
6.097e-11
5.54839e-11
4.99554e-11
4.44453e-11
3.90175e-11
3.37387e-11
2.86767e-11
2.38986e-11
1.94679e-11
1.54424e-11
1.18705e-11
8.78818e-12
6.21492e-12
4.15137e-12
2.57733e-12
1.45143e-12
7.12664e-13
2.84167e-13
7.93118e-14
1.03371e-14
6.03543e-17
5.98997e-17
1.02472e-14
7.84038e-14
2.79668e-13
6.97318e-13
1.41056e-12
2.48633e-12
3.97452e-12
5.90595e-12
8.29273e-12
1.11301e-11
1.43993e-11
1.80701e-11
2.21044e-11
2.64585e-11
3.10849e-11
3.59343e-11
4.09571e-11
4.61045e-11
5.13283e-11
5.65824e-11
6.18224e-11
6.7006e-11
7.20931e-11
7.70458e-11
8.18286e-11
8.64078e-11
9.07523e-11
9.48327e-11
9.86219e-11
1.02095e-10
1.05228e-10
1.08002e-10
1.10395e-10
1.12392e-10
1.13978e-10
1.15139e-10
1.15864e-10
1.16145e-10
1.15982e-10
1.15359e-10
1.1428e-10
1.12747e-10
1.10764e-10
1.08337e-10
1.05477e-10
1.02198e-10
9.85162e-11
9.44541e-11
9.00366e-11
8.52935e-11
8.02594e-11
7.49736e-11
6.94805e-11
6.38296e-11
5.80756e-11
5.22778e-11
4.65001e-11
4.08101e-11
3.5278e-11
2.99749e-11
2.49715e-11
2.0334e-11
1.61227e-11
1.23883e-11
9.16756e-12
6.48043e-12
4.3269e-12
2.68523e-12
1.51163e-12
7.41977e-13
2.95772e-13
8.25329e-14
1.07554e-14
6.27925e-17
6.25889e-17
1.07063e-14
8.19013e-14
2.92064e-13
7.27988e-13
1.47206e-12
2.59376e-12
4.14468e-12
6.15654e-12
8.64156e-12
1.15945e-11
1.49954e-11
1.88129e-11
2.30069e-11
2.75319e-11
3.23386e-11
3.73754e-11
4.2591e-11
4.79344e-11
5.33558e-11
5.88072e-11
6.42425e-11
6.9618e-11
7.48922e-11
8.00259e-11
8.49823e-11
8.9727e-11
9.42276e-11
9.84541e-11
1.02379e-10
1.05975e-10
1.0922e-10
1.12092e-10
1.14571e-10
1.16639e-10
1.18282e-10
1.19484e-10
1.20236e-10
1.20529e-10
1.20361e-10
1.19717e-10
1.186e-10
1.17013e-10
1.14958e-10
1.12443e-10
1.09478e-10
1.06078e-10
1.02259e-10
9.80448e-11
9.34605e-11
8.85372e-11
8.33107e-11
7.7822e-11
7.21173e-11
6.6248e-11
6.02712e-11
5.42488e-11
4.82474e-11
4.23375e-11
3.65921e-11
3.10856e-11
2.58913e-11
2.10781e-11
1.67085e-11
1.2835e-11
9.49549e-12
6.71033e-12
4.47911e-12
2.7789e-12
1.56394e-12
7.67463e-13
3.05865e-13
8.53342e-14
1.11191e-14
6.49123e-17
6.52103e-17
1.11536e-14
8.53047e-14
3.04105e-13
7.57703e-13
1.53147e-12
2.69717e-12
4.30782e-12
6.39572e-12
8.97293e-12
1.20334e-11
1.55558e-11
1.95071e-11
2.38455e-11
2.85234e-11
3.34892e-11
3.86897e-11
4.40713e-11
4.95813e-11
5.51681e-11
6.07822e-11
6.63762e-11
7.19051e-11
7.73263e-11
8.25999e-11
8.76881e-11
9.2556e-11
9.71706e-11
1.01502e-10
1.05521e-10
1.09202e-10
1.12521e-10
1.15456e-10
1.17988e-10
1.20099e-10
1.21773e-10
1.22996e-10
1.23757e-10
1.24049e-10
1.23867e-10
1.23198e-10
1.22045e-10
1.20408e-10
1.18293e-10
1.15706e-10
1.12657e-10
1.0916e-10
1.05234e-10
1.009e-10
9.6186e-11
9.11225e-11
8.57466e-11
8.01e-11
7.42302e-11
6.81903e-11
6.20389e-11
5.58398e-11
4.96617e-11
4.35774e-11
3.76622e-11
3.19928e-11
2.66449e-11
2.16896e-11
1.71914e-11
1.32043e-11
9.76733e-12
6.90137e-12
4.60588e-12
2.85706e-12
1.60764e-12
7.88775e-13
3.14308e-13
8.76777e-14
1.14233e-14
6.6685e-17
6.77895e-17
1.15935e-14
8.86479e-14
3.15911e-13
7.8677e-13
1.58941e-12
2.79766e-12
4.4657e-12
6.62615e-12
9.29054e-12
1.24517e-11
1.60867e-11
2.01606e-11
2.46294e-11
2.94432e-11
3.45485e-11
3.98896e-11
4.54113e-11
5.10588e-11
5.67791e-11
6.25213e-11
6.82367e-11
7.38796e-11
7.94065e-11
8.47769e-11
8.9953e-11
9.48994e-11
9.95833e-11
1.03974e-10
1.08044e-10
1.11768e-10
1.1512e-10
1.18081e-10
1.20631e-10
1.22751e-10
1.24427e-10
1.25646e-10
1.26397e-10
1.26671e-10
1.26463e-10
1.25763e-10
1.24572e-10
1.22892e-10
1.20726e-10
1.18081e-10
1.14967e-10
1.11399e-10
1.07395e-10
1.02976e-10
9.81695e-11
9.30074e-11
8.75264e-11
8.17691e-11
7.57834e-11
6.96233e-11
6.33482e-11
5.70233e-11
5.07186e-11
4.45083e-11
3.84696e-11
3.26807e-11
2.72193e-11
2.21581e-11
1.75632e-11
1.349e-11
9.97856e-12
7.05043e-12
4.70514e-12
2.91844e-12
1.64204e-12
8.05576e-13
3.2097e-13
8.95272e-14
1.16633e-14
6.80833e-17
7.03574e-17
1.20313e-14
9.19717e-14
3.2763e-13
8.15558e-13
1.64663e-12
2.89656e-12
4.62048e-12
6.85097e-12
9.59878e-12
1.28552e-11
1.65954e-11
2.07821e-11
2.53689e-11
3.03033e-11
3.55296e-11
4.09897e-11
4.66262e-11
5.23828e-11
5.82049e-11
6.40402e-11
6.98393e-11
7.55557e-11
8.11456e-11
8.65685e-11
9.17864e-11
9.67645e-11
1.0147e-10
1.05874e-10
1.09948e-10
1.13668e-10
1.17011e-10
1.19956e-10
1.22484e-10
1.24578e-10
1.26225e-10
1.27412e-10
1.28127e-10
1.28366e-10
1.28119e-10
1.27379e-10
1.26147e-10
1.24425e-10
1.22216e-10
1.19527e-10
1.16369e-10
1.12754e-10
1.087e-10
1.04231e-10
9.93709e-11
9.41528e-11
8.8613e-11
8.27939e-11
7.67435e-11
7.05157e-11
6.41705e-11
5.77734e-11
5.13948e-11
4.51099e-11
3.89967e-11
3.31345e-11
2.76021e-11
2.24735e-11
1.7816e-11
1.36861e-11
1.01248e-11
7.15449e-12
4.77492e-12
2.96184e-12
1.66648e-12
8.17548e-13
3.25726e-13
9.08483e-14
1.18347e-14
6.90814e-17
7.29497e-17
1.24731e-14
9.53231e-14
3.3943e-13
8.44491e-13
1.704e-12
2.99542e-12
4.77459e-12
7.07381e-12
9.90267e-12
1.32506e-11
1.70903e-11
2.13818e-11
2.60758e-11
3.11171e-11
3.64472e-11
4.20056e-11
4.77328e-11
5.35704e-11
5.94626e-11
6.53559e-11
7.12002e-11
7.69487e-11
8.25576e-11
8.79866e-11
9.31986e-11
9.81591e-11
1.02837e-10
1.07204e-10
1.11233e-10
1.14901e-10
1.18187e-10
1.21071e-10
1.23535e-10
1.25566e-10
1.27149e-10
1.28272e-10
1.28927e-10
1.29109e-10
1.28805e-10
1.28015e-10
1.26738e-10
1.24975e-10
1.22731e-10
1.2001e-10
1.16825e-10
1.13187e-10
1.09114e-10
1.04628e-10
9.97546e-11
9.45241e-11
8.89729e-11
8.31424e-11
7.70802e-11
7.08396e-11
6.44799e-11
5.80663e-11
5.16692e-11
4.53634e-11
3.92273e-11
3.33404e-11
2.77819e-11
2.26266e-11
1.79426e-11
1.37871e-11
1.02022e-11
7.21074e-12
4.81339e-12
2.98615e-12
1.68034e-12
8.24398e-13
3.28461e-13
9.16096e-14
1.19335e-14
6.96558e-17
7.56062e-17
1.29258e-14
9.8755e-14
3.51502e-13
8.7405e-13
1.7625e-12
3.09595e-12
4.93078e-12
7.2987e-12
1.02077e-11
1.36449e-11
1.75802e-11
2.19703e-11
2.67626e-11
3.18986e-11
3.73167e-11
4.29537e-11
4.87478e-11
5.46389e-11
6.05693e-11
6.6485e-11
7.23353e-11
7.80733e-11
8.36558e-11
8.90431e-11
9.41991e-11
9.90909e-11
1.03689e-10
1.07966e-10
1.11899e-10
1.15464e-10
1.18644e-10
1.2142e-10
1.23777e-10
1.25702e-10
1.27183e-10
1.28211e-10
1.28777e-10
1.28877e-10
1.285e-10
1.27648e-10
1.26319e-10
1.24515e-10
1.2224e-10
1.19501e-10
1.16306e-10
1.12669e-10
1.08607e-10
1.04139e-10
9.92909e-11
9.40923e-11
8.85777e-11
8.27875e-11
7.67677e-11
7.05705e-11
6.42538e-11
5.78815e-11
5.15231e-11
4.52524e-11
3.9147e-11
3.3286e-11
2.77484e-11
2.26091e-11
1.79363e-11
1.3788e-11
1.02069e-11
7.21668e-12
4.8189e-12
2.99038e-12
1.68308e-12
8.25866e-13
3.29074e-13
9.17835e-14
1.1956e-14
6.97862e-17
7.83705e-17
1.33968e-14
1.02325e-13
3.64055e-13
9.04759e-13
1.82319e-12
3.20004e-12
5.09202e-12
7.52999e-12
1.05199e-11
1.4046e-11
1.80747e-11
2.25589e-11
2.7442e-11
3.26619e-11
3.81532e-11
4.385e-11
4.96878e-11
5.56044e-11
6.1541e-11
6.74427e-11
7.32587e-11
7.89424e-11
8.44513e-11
8.97471e-11
9.47955e-11
9.95654e-11
1.04029e-10
1.08163e-10
1.11944e-10
1.15355e-10
1.18377e-10
1.20996e-10
1.232e-10
1.24977e-10
1.26318e-10
1.27214e-10
1.27662e-10
1.27655e-10
1.27187e-10
1.2626e-10
1.24872e-10
1.23025e-10
1.20725e-10
1.17978e-10
1.14793e-10
1.11182e-10
1.07161e-10
1.02748e-10
9.79677e-11
9.2847e-11
8.74191e-11
8.17223e-11
7.58007e-11
6.97042e-11
6.34889e-11
5.72165e-11
5.09545e-11
4.47752e-11
3.87544e-11
3.29701e-11
2.75003e-11
2.24195e-11
1.77958e-11
1.36875e-11
1.01377e-11
7.17132e-12
4.79073e-12
2.97405e-12
1.67441e-12
8.21806e-13
3.27507e-13
9.13528e-14
1.19e-14
6.94581e-17
8.1289e-17
1.38942e-14
1.06095e-13
3.7731e-13
9.37179e-13
1.88721e-12
3.30968e-12
5.26149e-12
7.77224e-12
1.08454e-11
1.44618e-11
1.85834e-11
2.31588e-11
2.81268e-11
3.34207e-11
3.89713e-11
4.47092e-11
5.05672e-11
5.64812e-11
6.23911e-11
6.82413e-11
7.39812e-11
7.9565e-11
8.49517e-11
9.01047e-11
9.49918e-11
9.95848e-11
1.03859e-10
1.07793e-10
1.11368e-10
1.14569e-10
1.17381e-10
1.19794e-10
1.21796e-10
1.23381e-10
1.24541e-10
1.25274e-10
1.25573e-10
1.25435e-10
1.24858e-10
1.23842e-10
1.2239e-10
1.20503e-10
1.18185e-10
1.15443e-10
1.12285e-10
1.08722e-10
1.04769e-10
1.00444e-10
9.57679e-11
9.07674e-11
8.5473e-11
7.99204e-11
7.41509e-11
6.82114e-11
6.21548e-11
5.60405e-11
4.99334e-11
4.3903e-11
3.80231e-11
3.23693e-11
2.70178e-11
2.20422e-11
1.75093e-11
1.3477e-11
9.989e-12
7.0709e-12
4.72659e-12
2.93584e-12
1.65366e-12
8.11914e-13
3.23645e-13
9.02884e-14
1.17619e-14
6.86522e-17
8.44102e-17
1.44263e-14
1.1013e-13
3.91502e-13
9.71898e-13
1.95576e-12
3.42697e-12
5.44245e-12
8.03016e-12
1.11905e-11
1.49e-11
1.91158e-11
2.37808e-11
2.88286e-11
3.41873e-11
3.97833e-11
4.55436e-11
5.13978e-11
5.72799e-11
6.31287e-11
6.88883e-11
7.45088e-11
7.99455e-11
8.51594e-11
9.01165e-11
9.47873e-11
9.91471e-11
1.03175e-10
1.06852e-10
1.10165e-10
1.13102e-10
1.15651e-10
1.17806e-10
1.19561e-10
1.20912e-10
1.21855e-10
1.22388e-10
1.22508e-10
1.22215e-10
1.2151e-10
1.20393e-10
1.18866e-10
1.16934e-10
1.146e-10
1.11871e-10
1.08754e-10
1.05262e-10
1.01406e-10
9.72024e-11
9.26712e-11
8.78353e-11
8.27222e-11
7.73649e-11
7.18018e-11
6.60768e-11
6.02397e-11
5.43457e-11
4.84554e-11
4.26348e-11
3.6954e-11
3.14858e-11
2.63035e-11
2.14788e-11
1.70774e-11
1.31566e-11
9.76022e-12
6.91486e-12
4.62596e-12
2.87539e-12
1.6206e-12
7.96069e-13
3.17442e-13
8.85773e-14
1.15402e-14
6.73592e-17
8.77834e-17
1.50017e-14
1.14495e-13
4.0687e-13
1.00952e-12
2.03005e-12
3.55402e-12
5.63818e-12
8.30841e-12
1.15614e-11
1.53683e-11
1.96805e-11
2.44345e-11
2.95575e-11
3.4972e-11
4.05992e-11
4.63619e-11
5.21869e-11
5.80062e-11
6.37577e-11
6.93857e-11
7.48412e-11
8.00817e-11
8.50706e-11
8.97771e-11
9.41756e-11
9.82451e-11
1.01969e-10
1.05333e-10
1.08328e-10
1.10946e-10
1.13181e-10
1.15032e-10
1.16495e-10
1.17571e-10
1.18259e-10
1.18559e-10
1.18474e-10
1.18004e-10
1.17153e-10
1.15922e-10
1.14316e-10
1.12338e-10
1.09995e-10
1.07291e-10
1.04234e-10
1.00835e-10
9.71039e-11
9.30551e-11
8.87054e-11
8.40759e-11
7.91918e-11
7.40824e-11
6.87815e-11
6.33284e-11
5.77681e-11
5.21516e-11
4.65351e-11
4.09803e-11
3.55531e-11
3.03223e-11
2.53582e-11
2.07294e-11
1.65001e-11
1.2726e-11
9.45126e-12
6.70311e-12
4.48879e-12
2.79266e-12
1.57521e-12
7.74268e-13
3.08896e-13
8.62194e-14
1.12347e-14
6.55784e-17
9.14575e-17
1.56287e-14
1.19256e-13
4.23651e-13
1.05064e-12
2.1113e-12
3.69293e-12
5.8519e-12
8.61146e-12
1.19636e-11
1.58735e-11
2.02853e-11
2.51279e-11
3.03214e-11
3.57817e-11
4.14244e-11
4.71681e-11
5.29364e-11
5.86596e-11
6.4275e-11
6.97279e-11
7.49709e-11
7.9964e-11
8.46742e-11
8.90748e-11
9.31441e-11
9.68662e-11
1.00229e-10
1.03225e-10
1.05848e-10
1.08097e-10
1.09972e-10
1.11472e-10
1.12602e-10
1.13366e-10
1.13765e-10
1.13806e-10
1.13491e-10
1.12826e-10
1.11815e-10
1.10462e-10
1.08774e-10
1.06753e-10
1.04407e-10
1.01741e-10
9.87619e-11
9.54781e-11
9.18989e-11
8.80369e-11
8.39071e-11
7.95267e-11
7.49165e-11
7.01018e-11
6.51122e-11
5.99826e-11
5.47529e-11
4.94688e-11
4.41813e-11
3.8947e-11
3.38265e-11
2.88842e-11
2.4186e-11
1.97971e-11
1.57793e-11
1.21867e-11
9.06299e-12
6.43617e-12
4.31538e-12
2.68782e-12
1.51758e-12
7.46558e-13
2.98028e-13
8.32208e-14
1.08463e-14
6.33153e-17
9.54797e-17
1.63154e-14
1.24477e-13
4.42076e-13
1.09585e-12
2.20068e-12
3.84571e-12
6.08662e-12
8.94339e-12
1.24024e-11
1.64214e-11
2.09359e-11
2.58664e-11
3.11246e-11
3.66192e-11
4.22597e-11
4.79602e-11
5.36414e-11
5.92321e-11
6.467e-11
6.99015e-11
7.48819e-11
7.95748e-11
8.3952e-11
8.79901e-11
9.1674e-11
9.49931e-11
9.79414e-11
1.00515e-10
1.02717e-10
1.04552e-10
1.06018e-10
1.07131e-10
1.07893e-10
1.08313e-10
1.08398e-10
1.08156e-10
1.07594e-10
1.0672e-10
1.05541e-10
1.04063e-10
1.02293e-10
1.00235e-10
9.7896e-11
9.52816e-11
9.23981e-11
8.92521e-11
8.58525e-11
8.22088e-11
7.83324e-11
7.42376e-11
6.99416e-11
6.54651e-11
6.08332e-11
5.60753e-11
5.1226e-11
4.6325e-11
4.14177e-11
3.65544e-11
3.17902e-11
2.71839e-11
2.27965e-11
1.86891e-11
1.49204e-11
1.15424e-11
8.59788e-12
6.11565e-12
4.10672e-12
2.56145e-12
1.44804e-12
7.1309e-13
2.84898e-13
7.95986e-14
1.03773e-14
6.05834e-17
9.9894e-17
1.70691e-14
1.30216e-13
4.62363e-13
1.14568e-12
2.29927e-12
4.01417e-12
6.34502e-12
9.30767e-12
1.28816e-11
1.70159e-11
2.16361e-11
2.66524e-11
3.19676e-11
3.74824e-11
4.30997e-11
4.87292e-11
5.42892e-11
5.97076e-11
6.4923e-11
6.98842e-11
7.45501e-11
7.88896e-11
8.28772e-11
8.64978e-11
8.97418e-11
9.2605e-11
9.50864e-11
9.71929e-11
9.89299e-11
1.00303e-10
1.01333e-10
1.02024e-10
1.02391e-10
1.02444e-10
1.02195e-10
1.01656e-10
1.00838e-10
9.97497e-11
9.84009e-11
9.67995e-11
9.49525e-11
9.28666e-11
9.05475e-11
8.80008e-11
8.52319e-11
8.22467e-11
7.90515e-11
7.56533e-11
7.2061e-11
6.82853e-11
6.43394e-11
6.02395e-11
5.60055e-11
5.16615e-11
4.7236e-11
4.27628e-11
3.82804e-11
3.3833e-11
2.94691e-11
2.52414e-11
2.12055e-11
1.74175e-11
1.39322e-11
1.07993e-11
8.0603e-12
5.74443e-12