/*--------------------------------*- C++ -*----------------------------------*\
  =========                 |
  \\      /  F ield         | OpenFOAM: The Open Source CFD Toolbox
   \\    /   O peration     | Website:  https://openfoam.org
    \\  /    A nd           | Version:  12
     \\/     M anipulation  |
\*---------------------------------------------------------------------------*/
FoamFile
{
    format      ascii;
    class       volScalarField;
    location    "9";
    object      p;
}
// * * * * * * * * * * * * * * * * * * * * * * * * * * * * * * * * * * * * * //

dimensions      [0 2 -2 0 0 0 0];

internalField   nonuniform List<scalar> 
5625
(
-1.71232e-11
6.04284e-08
9.61967e-07
2.79683e-06
5.34183e-06
8.38475e-06
1.17499e-05
1.52785e-05
1.8831e-05
2.22834e-05
2.55282e-05
2.84737e-05
3.10425e-05
3.31702e-05
3.48046e-05
3.59041e-05
3.64371e-05
3.6381e-05
3.57212e-05
3.44509e-05
3.25698e-05
3.00841e-05
2.70055e-05
2.33509e-05
1.91421e-05
1.44047e-05
9.16854e-06
3.46648e-06
-2.66549e-06
-9.18876e-06
-1.60625e-05
-2.32441e-05
-3.06892e-05
-3.83523e-05
-4.6187e-05
-5.41461e-05
-6.21822e-05
-7.02477e-05
-7.82951e-05
-8.62773e-05
-9.41481e-05
-0.000101862
-0.000109374
-0.000116641
-0.000123622
-0.000130276
-0.000136566
-0.000142455
-0.00014791
-0.0001529
-0.000157396
-0.000161375
-0.000164814
-0.000167695
-0.000170004
-0.000171734
-0.000172878
-0.000173439
-0.000173423
-0.000172844
-0.000171724
-0.000170091
-0.000167986
-0.000165455
-0.000162561
-0.000159376
-0.000155987
-0.000152498
-0.000149029
-0.000145713
-0.000142711
-0.000140194
-0.00013837
-0.000137467
-0.000137397
-3.12498e-06
-2.69366e-06
-1.67231e-06
-2.85443e-08
2.1127e-06
4.60957e-06
7.33592e-06
1.01761e-05
1.30237e-05
1.57819e-05
1.83648e-05
2.06969e-05
2.2713e-05
2.4358e-05
2.55856e-05
2.63586e-05
2.66477e-05
2.64313e-05
2.56948e-05
2.44301e-05
2.26353e-05
2.0314e-05
1.74748e-05
1.41314e-05
1.03013e-05
6.00639e-06
1.27176e-06
-3.8742e-06
-9.40034e-06
-1.5273e-05
-2.14565e-05
-2.79132e-05
-3.46041e-05
-4.14889e-05
-4.85264e-05
-5.56747e-05
-6.28917e-05
-7.0135e-05
-7.73622e-05
-8.45316e-05
-9.16017e-05
-9.8532e-05
-0.000105283
-0.000111816
-0.000118095
-0.000124084
-0.000129749
-0.000135059
-0.000139985
-0.0001445
-0.00014858
-0.000152204
-0.000155354
-0.000158015
-0.000160176
-0.000161832
-0.00016298
-0.000163624
-0.00016377
-0.000163434
-0.000162636
-0.000161403
-0.00015977
-0.000157781
-0.000155486
-0.000152949
-0.00015024
-0.000147443
-0.000144649
-0.000141963
-0.000139499
-0.000137378
-0.000135743
-0.000134718
-0.000134275
-9.21968e-06
-8.07315e-06
-6.46278e-06
-4.53746e-06
-2.3558e-06
1.56594e-08
2.49863e-06
5.01404e-06
7.48654e-06
9.84573e-06
1.2027e-05
1.39719e-05
1.56289e-05
1.69531e-05
1.79063e-05
1.84571e-05
1.85804e-05
1.82574e-05
1.74749e-05
1.62256e-05
1.45071e-05
1.2322e-05
9.67769e-06
6.58542e-06
3.06052e-06
-8.78176e-07
-5.20861e-06
-9.90583e-06
-1.49423e-05
-2.02881e-05
-2.59116e-05
-3.17791e-05
-3.78559e-05
-4.41058e-05
-5.0492e-05
-5.6977e-05
-6.35228e-05
-7.00916e-05
-7.66453e-05
-8.31464e-05
-8.95578e-05
-9.58433e-05
-0.000101967
-0.000107896
-0.000113596
-0.000119036
-0.000124187
-0.00012902
-0.00013351
-0.000137633
-0.000141369
-0.000144699
-0.000147608
-0.000150083
-0.000152117
-0.000153703
-0.000154841
-0.000155534
-0.000155789
-0.000155619
-0.000155042
-0.000154082
-0.000152767
-0.000151133
-0.000149221
-0.000147081
-0.000144767
-0.000142341
-0.000139869
-0.000137425
-0.000135083
-0.000132922
-0.000131005
-0.000129389
-0.000128229
-1.71262e-05
-1.5094e-05
-1.2636e-05
-1.01259e-05
-7.56868e-06
-4.97157e-06
-2.37941e-06
1.5356e-07
2.57477e-06
4.83433e-06
6.88526e-06
8.68411e-06
1.01917e-05
1.13734e-05
1.21995e-05
1.26453e-05
1.2691e-05
1.23217e-05
1.15274e-05
1.03026e-05
8.64639e-06
6.5619e-06
4.05638e-06
1.14063e-06
-2.17093e-06
-5.86086e-06
-9.90871e-06
-1.42915e-05
-1.89839e-05
-2.39584e-05
-2.91858e-05
-3.46354e-05
-4.0275e-05
-4.60718e-05
-5.19918e-05
-5.80006e-05
-6.40636e-05
-7.01459e-05
-7.6213e-05
-8.22304e-05
-8.81645e-05
-9.39819e-05
-9.96507e-05
-0.000105139
-0.000110419
-0.000115459
-0.000120235
-0.00012472
-0.000128892
-0.000132728
-0.000136211
-0.000139324
-0.000142053
-0.000144386
-0.000146316
-0.000147838
-0.000148949
-0.000149652
-0.000149953
-0.000149861
-0.00014939
-0.000148558
-0.000147388
-0.000145907
-0.000144145
-0.00014214
-0.000139931
-0.000137561
-0.000135077
-0.000132528
-0.000129966
-0.000127433
-0.000124934
-0.000122472
-0.000120426
-2.56194e-05
-2.26582e-05
-1.92601e-05
-1.60296e-05
-1.29323e-05
-9.92814e-06
-7.03765e-06
-4.2976e-06
-1.74365e-06
5.90285e-07
2.67156e-06
4.46929e-06
5.9552e-06
7.10404e-06
7.89409e-06
8.30726e-06
8.32936e-06
7.94999e-06
7.16278e-06
5.96503e-06
4.35793e-06
2.3461e-06
-6.22475e-08
-2.85587e-06
-6.02028e-06
-9.53843e-06
-1.33905e-05
-1.75544e-05
-2.2006e-05
-2.67194e-05
-3.16669e-05
-3.68196e-05
-4.21473e-05
-4.76192e-05
-5.32036e-05
-5.88683e-05
-6.45811e-05
-7.03096e-05
-7.60216e-05
-8.16853e-05
-8.72693e-05
-9.2743e-05
-9.80766e-05
-0.000103241
-0.00010821
-0.000112955
-0.000117453
-0.000121681
-0.000125616
-0.000129239
-0.000132532
-0.000135481
-0.000138071
-0.000140292
-0.000142135
-0.000143596
-0.00014467
-0.000145358
-0.000145663
-0.000145591
-0.000145151
-0.000144356
-0.000143222
-0.000141768
-0.000140015
-0.000137988
-0.000135714
-0.000133222
-0.000130542
-0.000127706
-0.000124747
-0.000121683
-0.00011847
-0.000115071
-0.000112097
-3.3874e-05
-3.00006e-05
-2.56481e-05
-2.16416e-05
-1.79183e-05
-1.44012e-05
-1.10945e-05
-8.02377e-06
-5.21286e-06
-2.68407e-06
-4.59086e-07
1.44113e-06
2.99729e-06
4.19214e-06
5.01104e-06
5.44205e-06
5.47636e-06
5.10813e-06
4.33485e-06
3.15707e-06
1.57861e-06
-3.93772e-07
-2.75024e-06
-5.47831e-06
-8.56268e-06
-1.19858e-05
-1.57276e-05
-1.97662e-05
-2.40778e-05
-2.8637e-05
-3.3417e-05
-3.83897e-05
-4.35262e-05
-4.87968e-05
-5.41712e-05
-5.96189e-05
-6.51091e-05
-7.06112e-05
-7.60946e-05
-8.15293e-05
-8.68856e-05
-9.21349e-05
-9.7249e-05
-0.000102201
-0.000106965
-0.000111515
-0.00011583
-0.000119886
-0.000123664
-0.000127145
-0.000130311
-0.000133147
-0.000135642
-0.000137782
-0.000139559
-0.000140967
-0.000142
-0.000142656
-0.000142936
-0.000142842
-0.000142378
-0.000141552
-0.000140373
-0.000138853
-0.000137005
-0.000134845
-0.00013239
-0.000129655
-0.00012666
-0.000123424
-0.000119967
-0.00011629
-0.000112312
-0.000107965
-0.000104082
-4.13136e-05
-3.65645e-05
-3.12759e-05
-2.64794e-05
-2.20911e-05
-1.80053e-05
-1.42153e-05
-1.07399e-05
-7.59551e-06
-4.79616e-06
-2.35554e-06
-2.86955e-07
1.3974e-06
2.6869e-06
3.57294e-06
4.04909e-06
4.11145e-06
3.75862e-06
2.99195e-06
1.81544e-06
2.35829e-07
-1.73754e-06
-4.09272e-06
-6.81537e-06
-9.8888e-06
-1.32942e-05
-1.70108e-05
-2.1016e-05
-2.52855e-05
-2.97939e-05
-3.45144e-05
-3.94191e-05
-4.44796e-05
-4.96666e-05
-5.49506e-05
-6.03018e-05
-6.56904e-05
-7.10867e-05
-7.64611e-05
-8.17849e-05
-8.70294e-05
-9.21672e-05
-9.71711e-05
-0.000102015
-0.000106675
-0.000111127
-0.000115347
-0.000119316
-0.000123013
-0.00012642
-0.000129519
-0.000132297
-0.000134739
-0.000136833
-0.00013857
-0.00013994
-0.000140937
-0.000141557
-0.000141796
-0.000141654
-0.00014113
-0.000140228
-0.00013895
-0.000137303
-0.000135293
-0.000132928
-0.000130216
-0.000127166
-0.000123785
-0.000120085
-0.00011608
-0.000111757
-0.000107004
-0.000101733
-9.69814e-05
-4.7521e-05
-4.19323e-05
-3.57339e-05
-3.01515e-05
-2.5085e-05
-2.04048e-05
-1.60972e-05
-1.21777e-05
-8.65778e-06
-5.54591e-06
-2.85005e-06
-5.77741e-07
1.26434e-06
2.67101e-06
3.6387e-06
4.16588e-06
4.25304e-06
3.90303e-06
3.12092e-06
1.91428e-06
2.92914e-07
-1.73091e-06
-4.14281e-06
-6.9261e-06
-1.00622e-05
-1.35306e-05
-1.7309e-05
-2.13737e-05
-2.56994e-05
-3.02597e-05
-3.50274e-05
-3.99741e-05
-4.50712e-05
-5.02893e-05
-5.55989e-05
-6.09704e-05
-6.63744e-05
-7.17813e-05
-7.71623e-05
-8.24889e-05
-8.77334e-05
-9.28685e-05
-9.7868e-05
-0.000102707
-0.00010736
-0.000111805
-0.000116019
-0.000119981
-0.000123673
-0.000127075
-0.00013017
-0.000132944
-0.00013538
-0.000137468
-0.000139194
-0.00014055
-0.000141526
-0.000142116
-0.000142312
-0.000142112
-0.000141511
-0.000140508
-0.000139101
-0.000137291
-0.000135079
-0.000132466
-0.000129454
-0.000126046
-0.000122242
-0.000118048
-0.000113473
-0.000108495
-0.000102979
-9.68163e-05
-9.12385e-05
-5.21756e-05
-4.57742e-05
-3.86884e-05
-3.23297e-05
-2.6584e-05
-2.13012e-05
-1.64627e-05
-1.20826e-05
-8.16954e-06
-4.72825e-06
-1.76254e-06
7.24376e-07
2.73021e-06
4.2542e-06
5.29713e-06
5.86171e-06
5.95253e-06
5.57637e-06
4.74201e-06
3.46055e-06
1.74507e-06
-3.89084e-07
-2.92472e-06
-5.8425e-06
-9.12153e-06
-1.2739e-05
-1.66708e-05
-2.08913e-05
-2.5374e-05
-3.00908e-05
-3.50135e-05
-4.01127e-05
-4.53591e-05
-5.07224e-05
-5.61728e-05
-6.16802e-05
-6.72149e-05
-7.27473e-05
-7.82485e-05
-8.369e-05
-8.9044e-05
-9.42836e-05
-9.93827e-05
-0.000104316
-0.000109059
-0.000113589
-0.000117884
-0.000121923
-0.000125685
-0.000129153
-0.000132309
-0.000135136
-0.000137619
-0.000139744
-0.000141499
-0.00014287
-0.000143849
-0.000144425
-0.000144589
-0.000144335
-0.000143655
-0.000142543
-0.000140995
-0.000139007
-0.000136573
-0.000133693
-0.000130361
-0.000126575
-0.000122333
-0.000117633
-0.000112484
-0.000106856
-0.000100592
-9.357e-05
-8.72012e-05
-5.50065e-05
-4.78077e-05
-3.98484e-05
-3.2722e-05
-2.63015e-05
-2.04174e-05
-1.50478e-05
-1.02064e-05
-5.9004e-06
-2.13179e-06
1.09873e-06
3.79127e-06
5.94718e-06
7.56937e-06
8.66251e-06
9.23312e-06
9.28965e-06
8.84263e-06
7.90456e-06
6.49006e-06
4.6157e-06
2.30005e-06
-4.36501e-07
-3.57176e-06
-7.08198e-06
-1.09418e-05
-1.51248e-05
-1.9603e-05
-2.43478e-05
-2.93297e-05
-3.45183e-05
-3.98831e-05
-4.53932e-05
-5.10173e-05
-5.67247e-05
-6.24842e-05
-6.82655e-05
-7.40384e-05
-7.97734e-05
-8.54416e-05
-9.1015e-05
-9.64662e-05
-0.000101769
-0.000106897
-0.000111828
-0.000116536
-0.000121
-0.000125198
-0.00012911
-0.000132718
-0.000136001
-0.000138944
-0.00014153
-0.000143744
-0.000145571
-0.000146998
-0.000148012
-0.000148602
-0.000148756
-0.000148464
-0.000147716
-0.000146504
-0.000144818
-0.000142651
-0.000139995
-0.000136843
-0.000133187
-0.000129021
-0.000124337
-0.000119133
-0.000113414
-0.000107147
-0.000100153
-9.2296e-05
-8.51627e-05
-5.57604e-05
-4.77677e-05
-3.89397e-05
-3.1051e-05
-2.39616e-05
-1.74835e-05
-1.15915e-05
-6.29983e-06
-1.61462e-06
2.46409e-06
5.93815e-06
8.81045e-06
1.10855e-05
1.27696e-05
1.38709e-05
1.43995e-05
1.43677e-05
1.37897e-05
1.26817e-05
1.10621e-05
8.95111e-06
6.37071e-06
3.34478e-06
-1.01266e-07
-3.94046e-06
-8.14461e-06
-1.26843e-05
-1.7529e-05
-2.26477e-05
-2.80084e-05
-3.35789e-05
-3.93266e-05
-4.52187e-05
-5.12226e-05
-5.73057e-05
-6.34361e-05
-6.95819e-05
-7.5712e-05
-8.17961e-05
-8.78044e-05
-9.37081e-05
-9.94793e-05
-0.000105091
-0.000110517
-0.000115733
-0.000120714
-0.000125438
-0.000129882
-0.000134026
-0.000137849
-0.000141333
-0.00014446
-0.000147211
-0.00014957
-0.000151522
-0.00015305
-0.000154142
-0.000154782
-0.000154958
-0.000154657
-0.000153865
-0.000152571
-0.000150764
-0.000148432
-0.000145565
-0.00014215
-0.000138179
-0.00013364
-0.000128523
-0.000122824
-0.000116545
-0.000109651
-0.000101942
-9.32692e-05
-8.53888e-05
-5.41773e-05
-4.53847e-05
-3.56848e-05
-2.70359e-05
-1.92847e-05
-1.22241e-05
-5.82583e-06
-1.04501e-07
4.93442e-06
9.2927e-06
1.29745e-05
1.59853e-05
1.83327e-05
2.0026e-05
2.1077e-05
2.14993e-05
2.13092e-05
2.05244e-05
1.91654e-05
1.72541e-05
1.48147e-05
1.18731e-05
8.45692e-06
4.59509e-06
3.18166e-07
-4.34233e-06
-9.35366e-06
-1.46825e-05
-2.02946e-05
-2.61555e-05
-3.22304e-05
-3.84842e-05
-4.48821e-05
-5.13896e-05
-5.7972e-05
-6.45959e-05
-7.12277e-05
-7.78353e-05
-8.43867e-05
-9.08513e-05
-9.71991e-05
-0.000103401
-0.00010943
-0.000115259
-0.000120861
-0.000126213
-0.000131291
-0.000136071
-0.000140532
-0.000144653
-0.000148414
-0.000151796
-0.00015478
-0.000157349
-0.000159484
-0.000161169
-0.000162388
-0.000163125
-0.000163364
-0.00016309
-0.000162288
-0.000160944
-0.000159042
-0.000156569
-0.000153512
-0.000149855
-0.000145585
-0.000140689
-0.000135154
-0.000128974
-0.00012215
-0.000114642
-0.000106231
-9.67552e-05
-8.81382e-05
-4.99719e-05
-4.03666e-05
-2.97863e-05
-2.0378e-05
-1.1974e-05
-4.34725e-06
2.53393e-06
8.65469e-06
1.40104e-05
1.86049e-05
2.24444e-05
2.55374e-05
2.78944e-05
2.95281e-05
3.04539e-05
3.06892e-05
3.02541e-05
2.91707e-05
2.74634e-05
2.51584e-05
2.22841e-05
1.88705e-05
1.49494e-05
1.05538e-05
5.71797e-06
4.77399e-07
-5.13164e-06
-1.10723e-05
-1.73071e-05
-2.37984e-05
-3.05084e-05
-3.73995e-05
-4.44341e-05
-5.15754e-05
-5.87867e-05
-6.60323e-05
-7.32771e-05
-8.0487e-05
-8.76286e-05
-9.467e-05
-0.00010158
-0.000108328
-0.000114886
-0.000121226
-0.000127321
-0.000133145
-0.000138674
-0.000143884
-0.000148753
-0.000153258
-0.000157379
-0.000161094
-0.000164385
-0.000167232
-0.000169616
-0.000171519
-0.000172923
-0.00017381
-0.000174162
-0.000173962
-0.000173192
-0.000171836
-0.000169877
-0.000167296
-0.000164078
-0.000160206
-0.000155664
-0.000150434
-0.000144502
-0.000137859
-0.000130506
-0.000122397
-0.000113296
-0.000103025
-9.36769e-05
-4.28195e-05
-3.2385e-05
-2.09138e-05
-1.07479e-05
-1.7043e-06
6.46575e-06
1.37978e-05
2.02772e-05
2.59006e-05
3.0674e-05
3.46066e-05
3.77097e-05
3.99971e-05
4.14854e-05
4.21937e-05
4.21439e-05
4.136e-05
3.98688e-05
3.7699e-05
3.48818e-05
3.14498e-05
2.74379e-05
2.28821e-05
1.78202e-05
1.22906e-05
6.33305e-06
-1.21846e-08
-6.70423e-06
-1.37021e-05
-2.09644e-05
-2.84503e-05
-3.61188e-05
-4.39298e-05
-5.18433e-05
-5.98205e-05
-6.78232e-05
-7.58143e-05
-8.37577e-05
-9.16185e-05
-9.93628e-05
-0.000106958
-0.000114373
-0.000121577
-0.000128542
-0.000135239
-0.000141642
-0.000147726
-0.000153466
-0.000158837
-0.000163818
-0.000168386
-0.000172519
-0.000176197
-0.000179399
-0.000182104
-0.000184293
-0.000185947
-0.000187045
-0.000187568
-0.000187496
-0.000186809
-0.000185489
-0.000183515
-0.000180868
-0.000177527
-0.000173475
-0.00016869
-0.000163155
-0.000156851
-0.000149767
-0.000141903
-0.000133208
-0.000123427
-0.000112367
-0.000102288
-3.23428e-05
-2.10628e-05
-8.69227e-06
2.22475e-06
1.1888e-05
2.05693e-05
2.83092e-05
3.50938e-05
4.09216e-05
4.58015e-05
4.9746e-05
5.27699e-05
5.48909e-05
5.61297e-05
5.651e-05
5.60581e-05
5.4803e-05
5.27764e-05
5.0012e-05
4.65461e-05
4.24165e-05
3.7663e-05
3.23267e-05
2.64502e-05
2.00768e-05
1.32511e-05
6.01751e-06
-1.57856e-06
-9.4921e-06
-1.76779e-05
-2.60913e-05
-3.46879e-05
-4.34244e-05
-5.22579e-05
-6.11467e-05
-7.00501e-05
-7.89287e-05
-8.77442e-05
-9.64598e-05
-0.00010504
-0.00011345
-0.000121658
-0.000129631
-0.00013734
-0.000144756
-0.000151851
-0.000158599
-0.000164973
-0.000170949
-0.000176503
-0.000181612
-0.000186254
-0.000190405
-0.000194045
-0.000197151
-0.000199703
-0.000201678
-0.000203056
-0.000203815
-0.000203933
-0.000203388
-0.000202159
-0.000200222
-0.000197556
-0.000194138
-0.000189946
-0.000184958
-0.00017915
-0.000172503
-0.000165004
-0.000156649
-0.000147385
-0.000136934
-0.000125088
-0.000114279
-1.81012e-05
-5.96353e-06
7.30831e-06
1.89613e-05
2.92135e-05
3.83617e-05
4.64524e-05
5.34733e-05
5.94258e-05
6.43221e-05
6.81788e-05
7.10152e-05
7.28534e-05
7.37189e-05
7.36405e-05
7.26499e-05
7.07814e-05
6.80721e-05
6.45617e-05
6.02918e-05
5.53061e-05
4.96499e-05
4.33699e-05
3.65141e-05
2.91313e-05
2.12708e-05
1.29823e-05
4.31576e-06
-4.67919e-06
-1.39531e-05
-2.34574e-05
-3.31439e-05
-4.29657e-05
-5.28766e-05
-6.2832e-05
-7.27885e-05
-8.2704e-05
-9.25381e-05
-0.000102252
-0.000111807
-0.000121169
-0.000130303
-0.000139175
-0.000147755
-0.000156012
-0.000163918
-0.000171444
-0.000178564
-0.000185253
-0.000191485
-0.000197237
-0.000202484
-0.000207203
-0.000211372
-0.000214966
-0.000217964
-0.000220342
-0.000222077
-0.000223146
-0.000223524
-0.000223188
-0.000222113
-0.000220274
-0.000217646
-0.000214203
-0.00020992
-0.000204772
-0.000198733
-0.000191779
-0.000183894
-0.000175075
-0.00016526
-0.000154151
-0.000141526
-0.000129987
4.19456e-07
1.34178e-05
2.7581e-05
3.99413e-05
5.07368e-05
6.0291e-05
6.86577e-05
7.58273e-05
8.18048e-05
8.6607e-05
9.02554e-05
9.27744e-05
9.41916e-05
9.45382e-05
9.38488e-05
9.2161e-05
8.95154e-05
8.59555e-05
8.15269e-05
7.62778e-05
7.02582e-05
6.35194e-05
5.61146e-05
4.80974e-05
3.95225e-05
3.04448e-05
2.09197e-05
1.10019e-05
7.46088e-07
-9.79375e-06
-2.05645e-05
-3.15141e-05
-4.25918e-05
-5.37481e-05
-6.49349e-05
-7.6106e-05
-8.72167e-05
-9.82242e-05
-0.000109087
-0.000119766
-0.000130224
-0.000140424
-0.000150332
-0.000159916
-0.000169143
-0.000177985
-0.000186413
-0.000194398
-0.000201915
-0.000208937
-0.00021544
-0.000221398
-0.000226787
-0.000231583
-0.000235761
-0.000239298
-0.000242168
-0.000244347
-0.000245808
-0.000246527
-0.000246476
-0.000245628
-0.000243956
-0.000241431
-0.000238025
-0.000233709
-0.000228455
-0.000222232
-0.000215014
-0.000206782
-0.000197529
-0.000187188
-0.00017544
-0.000162045
-0.00014978
2.38149e-05
3.76623e-05
5.26887e-05
6.57086e-05
7.69815e-05
8.68594e-05
9.54052e-05
0.000102613
0.000108492
0.000113065
0.000116361
0.000118408
0.000119242
0.0001189
0.000117423
0.000114856
0.000111247
0.000106646
0.000101105
9.46803e-05
8.74283e-05
7.94075e-05
7.06774e-05
6.12985e-05
5.13317e-05
4.0838e-05
2.98786e-05
1.85137e-05
6.80346e-06
-5.19342e-06
-1.7419e-05
-2.98172e-05
-4.23328e-05
-5.49131e-05
-6.75064e-05
-8.00633e-05
-9.25365e-05
-0.000104881
-0.000117054
-0.000129013
-0.000140718
-0.000152133
-0.000163221
-0.000173949
-0.000184284
-0.000194196
-0.000203655
-0.000212632
-0.0002211
-0.000229032
-0.000236402
-0.000243185
-0.000249355
-0.000254887
-0.000259754
-0.000263931
-0.000267393
-0.000270111
-0.000272059
-0.000273208
-0.000273529
-0.000272992
-0.000271567
-0.000269222
-0.000265925
-0.000261643
-0.000256345
-0.000249997
-0.000242567
-0.000234033
-0.000224386
-0.000213553
-0.00020119
-0.000187041
-0.000174059
5.27709e-05
6.74348e-05
8.32708e-05
9.68766e-05
0.000108535
0.000118627
0.000127227
0.000134334
0.000139964
0.000144146
0.000146916
0.00014831
0.000148371
0.000147144
0.000144678
0.000141025
0.00013624
0.000130383
0.000123513
0.000115694
0.00010699
9.74673e-05
8.71922e-05
7.62325e-05
6.46561e-05
5.25304e-05
3.99228e-05
2.68998e-05
1.35268e-05
-1.32153e-07
-1.40143e-05
-2.80588e-05
-4.22068e-05
-5.64015e-05
-7.05881e-05
-8.47125e-05
-9.87238e-05
-0.000112578
-0.00012623
-0.000139633
-0.000152747
-0.000165533
-0.000177955
-0.000189976
-0.000201565
-0.000212688
-0.000223317
-0.000233421
-0.000242972
-0.000251944
-0.000260309
-0.00026804
-0.000275111
-0.000281497
-0.000287168
-0.0002921
-0.000296263
-0.000299628
-0.000302167
-0.000303848
-0.00030464
-0.00030451
-0.000303423
-0.000301346
-0.000298241
-0.000294073
-0.000288806
-0.000282401
-0.000274822
-0.000266043
-0.000256052
-0.000244768
-0.000231824
-0.000216948
-0.000203265
8.80703e-05
0.000103489
0.000120047
0.000134132
0.000146049
0.000156214
0.000164711
0.000171546
0.000176743
0.000180339
0.000182379
0.000182908
0.000181977
0.00017964
0.000175954
0.000170981
0.000164784
0.000157432
0.000148992
0.000139537
0.00012914
0.000117874
0.000105814
9.30355e-05
7.96137e-05
6.5623e-05
5.11374e-05
3.62297e-05
2.09711e-05
5.43144e-06
-1.03217e-05
-2.62227e-05
-4.22083e-05
-5.82175e-05
-7.41923e-05
-9.00786e-05
-0.000105822
-0.000121372
-0.00013668
-0.000151702
-0.000166395
-0.000180718
-0.000194634
-0.000208107
-0.000221104
-0.000233591
-0.000245538
-0.000256915
-0.000267693
-0.000277844
-0.000287341
-0.000296156
-0.000304262
-0.000311631
-0.000318235
-0.000324046
-0.000329034
-0.000333168
-0.000336415
-0.000338744
-0.000340119
-0.000340504
-0.000339862
-0.000338153
-0.000335338
-0.000331377
-0.000326227
-0.000319847
-0.000312195
-0.00030324
-0.000292965
-0.000281283
-0.000267803
-0.000252236
-0.000237876
0.000130598
0.000146672
0.000163821
0.000178235
0.000190246
0.000200301
0.000208497
0.00021485
0.000219393
0.000222174
0.000223246
0.000222664
0.00022049
0.000216787
0.000211622
0.000205067
0.000197195
0.000188083
0.000177809
0.000166454
0.0001541
0.00014083
0.000126726
0.000111873
9.63532e-05
8.02482e-05
6.36391e-05
4.66054e-05
2.92243e-05
1.15714e-05
-6.28052e-06
-2.42609e-05
-4.23022e-05
-6.03395e-05
-7.8311e-05
-9.61581e-05
-0.000113826
-0.000131261
-0.000148418
-0.000165249
-0.000181705
-0.000197742
-0.000213327
-0.000228422
-0.000242994
-0.000257008
-0.000270435
-0.000283242
-0.000295402
-0.000306886
-0.000317665
-0.000327713
-0.000337
-0.000345498
-0.000353178
-0.000360009
-0.00036596
-0.000370999
-0.00037509
-0.000378198
-0.000380284
-0.00038131
-0.000381234
-0.000380013
-0.000377601
-0.000373955
-0.000369026
-0.000362767
-0.000355132
-0.000346083
-0.0003356
-0.000323585
-0.000309626
-0.000293415
-0.000278413
0.000181344
0.000197927
0.000215481
0.000230024
0.000241913
0.000251627
0.00025928
0.000264897
0.000268524
0.000270219
0.000270046
0.000268074
0.000264372
0.000259017
0.000252085
0.000243658
0.000233821
0.00022266
0.000210265
0.000196725
0.000182132
0.000166578
0.000150154
0.000132954
0.000115067
9.65835e-05
7.75915e-05
5.8177e-05
3.84239e-05
1.84132e-05
-1.77684e-06
-2.20709e-05
-4.23973e-05
-6.26871e-05
-8.28755e-05
-0.000102901
-0.000122705
-0.000142233
-0.000161431
-0.000180254
-0.000198661
-0.000216605
-0.000234046
-0.000250947
-0.000267273
-0.000282992
-0.000298071
-0.000312482
-0.000326194
-0.000339179
-0.000351409
-0.000362854
-0.000373486
-0.000383276
-0.000392192
-0.000400204
-0.000407277
-0.000413377
-0.000418465
-0.000422504
-0.000425452
-0.000427265
-0.000427898
-0.000427302
-0.000425428
-0.000422225
-0.00041764
-0.000411618
-0.000404107
-0.000395064
-0.000384464
-0.000372199
-0.000357832
-0.000341039
-0.000325443
0.000241404
0.000258289
0.000275993
0.000290401
0.000301894
0.000310982
0.000317797
0.000322377
0.000324779
0.000325075
0.000323343
0.000319662
0.000314115
0.000306789
0.000297772
0.000287158
0.000275043
0.000261523
0.000246699
0.000230669
0.000213537
0.000195403
0.000176369
0.000156534
0.000135999
0.000114861
9.32148e-05
7.11541e-05
4.87688e-05
2.61457e-05
3.36837e-06
-1.94832e-05
-4.23329e-05
-6.51085e-05
-8.77417e-05
-0.000110168
-0.000132329
-0.000154165
-0.000175621
-0.000196648
-0.000217205
-0.000237251
-0.000256744
-0.000275644
-0.000293918
-0.000311532
-0.000328455
-0.000344657
-0.000360108
-0.000374781
-0.000388646
-0.000401675
-0.000413837
-0.000425103
-0.00043544
-0.000444815
-0.000453192
-0.000460533
-0.000466799
-0.000471946
-0.00047593
-0.000478702
-0.000480211
-0.000480405
-0.000479227
-0.00047662
-0.000472524
-0.000466879
-0.000459623
-0.000450709
-0.000440102
-0.000427687
-0.000413003
-0.000395706
-0.000379576
0.000311971
0.000328877
0.000346396
0.00036033
0.000371085
0.000379199
0.000384821
0.000388007
0.000388826
0.000387367
0.000383719
0.000377975
0.000370232
0.000360586
0.000349142
0.000336002
0.000321273
0.000305064
0.000287486
0.000268648
0.000248663
0.00022764
0.000205692
0.000182927
0.000159452
0.000135374
0.000110794
8.58133e-05
6.05276e-05
3.50297e-05
9.40826e-06
-1.62522e-05
-4.18713e-05
-6.73735e-05
-9.26873e-05
-0.000117746
-0.000142487
-0.000166853
-0.000190789
-0.000214244
-0.000237174
-0.000259536
-0.000281289
-0.000302398
-0.000322827
-0.000342544
-0.000361517
-0.000379718
-0.000397117
-0.000413686
-0.000429395
-0.000444217
-0.000458119
-0.000471071
-0.000483039
-0.000493988
-0.000503879
-0.000512673
-0.000520325
-0.000526789
-0.000532014
-0.000535947
-0.000538533
-0.00053971
-0.000539418
-0.00053759
-0.00053416
-0.000529058
-0.000522216
-0.000513576
-0.000503098
-0.000490656
-0.000475765
-0.000458066
-0.000441477
0.000394323
0.00041088
0.000427779
0.000440813
0.000450408
0.000457128
0.000461139
0.000462515
0.000461343
0.000457724
0.000451764
0.000443568
0.000433246
0.000420908
0.000406668
0.000390643
0.00037295
0.000353709
0.00033304
0.000311064
0.000287902
0.000263676
0.000238504
0.000212505
0.000185794
0.000158485
0.000130688
0.000102508
7.40489e-05
4.54086e-05
1.66808e-05
-1.20457e-05
-4.06867e-05
-6.91635e-05
-9.74019e-05
-0.000125333
-0.000152893
-0.000180023
-0.000206668
-0.000232778
-0.000258306
-0.000283211
-0.000307453
-0.000330996
-0.000353807
-0.000375854
-0.000397107
-0.000417537
-0.000437115
-0.000455813
-0.000473603
-0.000490454
-0.000506337
-0.000521217
-0.00053506
-0.000547828
-0.00055948
-0.000569972
-0.000579257
-0.000587282
-0.000593992
-0.000599328
-0.000603226
-0.00060562
-0.000606439
-0.000605609
-0.000603055
-0.000598697
-0.000592458
-0.000584271
-0.000574087
-0.000561767
-0.000546805
-0.000528824
-0.000511872
0.000489799
0.00050553
0.000521258
0.000532863
0.00054079
0.000545615
0.000547527
0.000546618
0.000542991
0.000536764
0.000528056
0.000516987
0.000503678
0.000488253
0.000470835
0.000451553
0.000430534
0.000407908
0.000383807
0.000358359
0.000331697
0.000303949
0.000275244
0.000245707
0.000215463
0.000184633
0.000153332
0.000121675
8.97683e-05
5.77167e-05
2.56183e-05
-6.434e-06
-3.83528e-05
-7.00562e-05
-0.000101468
-0.000132518
-0.000163141
-0.000193278
-0.000222873
-0.000251876
-0.000280243
-0.000307932
-0.000334905
-0.000361127
-0.000386566
-0.000411192
-0.000434976
-0.00045789
-0.000479906
-0.000500998
-0.000521135
-0.000540289
-0.000558428
-0.000575516
-0.000591517
-0.00060639
-0.000620092
-0.000632573
-0.00064378
-0.000653657
-0.000662142
-0.000669167
-0.000674661
-0.000678549
-0.00068075
-0.000681181
-0.000679755
-0.000676383
-0.000670975
-0.000663455
-0.000653761
-0.000641744
-0.000626874
-0.000608757
-0.000591555
0.000599763
0.000614066
0.000627936
0.000637469
0.000643117
0.000645463
0.000644714
0.00064098
0.000634385
0.000625059
0.000613136
0.000598747
0.000582025
0.000563102
0.000542115
0.000519199
0.000494492
0.000468132
0.000440259
0.000411011
0.000380528
0.000348947
0.000316405
0.000283034
0.000248967
0.00021433
0.000179247
0.000143836
0.000108213
7.24839e-05
3.67527e-05
1.11594e-06
-3.43362e-05
-6.95195e-05
-0.000104356
-0.000138775
-0.00017271
-0.000206101
-0.000238895
-0.000271043
-0.000302501
-0.000333229
-0.00036319
-0.000392354
-0.000420688
-0.000448165
-0.000474758
-0.000500441
-0.000525187
-0.000548969
-0.00057176
-0.000593528
-0.00061424
-0.000633861
-0.000652351
-0.000669665
-0.000685755
-0.000700568
-0.000714044
-0.000726118
-0.000736722
-0.000745779
-0.000753208
-0.000758922
-0.000762831
-0.000764839
-0.000764846
-0.00076275
-0.000758448
-0.00075185
-0.000742885
-0.000731386
-0.000716802
-0.000698725
-0.000681408
0.000725551
0.000737679
0.000748848
0.000755534
0.000758188
0.000757379
0.00075333
0.000746174
0.000736049
0.000723099
0.000707467
0.000689295
0.000668723
0.000645892
0.000620944
0.000594027
0.000565279
0.000534846
0.000502875
0.000469513
0.000434905
0.000399195
0.000362526
0.000325038
0.00028687
0.000248155
0.000209021
0.000169594
0.000129993
9.03299e-05
5.07115e-05
1.12379e-05
-2.79983e-05
-6.69109e-05
-0.000105421
-0.000143457
-0.000180953
-0.000217851
-0.000254098
-0.000289648
-0.000324458
-0.000358491
-0.000391715
-0.000424099
-0.000455616
-0.000486241
-0.000515949
-0.000544716
-0.000572517
-0.000599327
-0.000625116
-0.000649855
-0.00067351
-0.00069604
-0.000717404
-0.000737554
-0.000756434
-0.000773984
-0.000790139
-0.000804824
-0.00081796
-0.00082946
-0.000839231
-0.000847174
-0.000853182
-0.000857147
-0.000858954
-0.000858485
-0.000855621
-0.000850256
-0.000842304
-0.000831583
-0.000817519
-0.000799689
-0.000782416
0.000868399
0.000877437
0.000884888
0.000887808
0.000886636
0.000881904
0.000873846
0.000862614
0.000848357
0.00083123
0.000811382
0.000788959
0.000764106
0.000736967
0.000707684
0.000676409
0.000643291
0.000608472
0.000572104
0.000534338
0.000495325
0.000455214
0.000414153
0.000372289
0.000329764
0.000286718
0.000243286
0.000199596
0.000155773
0.000111934
6.81873e-05
2.46369e-05
-1.86225e-05
-6.15039e-05
-0.000103928
-0.000145823
-0.000187126
-0.000227778
-0.000267732
-0.000306941
-0.000345369
-0.000382982
-0.00041975
-0.000455649
-0.000490655
-0.000524746
-0.000557901
-0.000590098
-0.000621316
-0.00065153
-0.000680711
-0.000708829
-0.000735848
-0.000761725
-0.000786414
-0.00080986
-0.000832003
-0.000852773
-0.000872095
-0.000889884
-0.000906047
-0.000920484
-0.000933088
-0.000943743
-0.000952325
-0.000958708
-0.000962759
-0.00096434
-0.000963315
-0.000959558
-0.000952964
-0.000943333
-0.000930069
-0.000912735
-0.000895697
0.00102931
0.00103415
0.00103667
0.00103477
0.00102883
0.00101932
0.00100648
0.000990466
0.000971449
0.000949581
0.000925009
0.000897878
0.00086833
0.000836507
0.000802549
0.0007666
0.000728811
0.000689327
0.000648298
0.000605876
0.000562213
0.000517463
0.000471778
0.000425307
0.000378199
0.000330599
0.000282644
0.000234471
0.000186205
0.000137969
8.98749e-05
4.2028e-05
-5.47507e-06
-5.25467e-05
-9.91082e-05
-0.00014509
-0.000190429
-0.000235073
-0.000278975
-0.000322096
-0.000364403
-0.000405868
-0.000446467
-0.000486182
-0.000524993
-0.000562885
-0.000599841
-0.000635844
-0.000670874
-0.000704908
-0.00073792
-0.000769878
-0.000800742
-0.000830469
-0.000859004
-0.000886287
-0.000912248
-0.000936806
-0.000959875
-0.000981354
-0.00100113
-0.0010191
-0.00103513
-0.00104909
-0.00106081
-0.00107017
-0.001077
-0.00108115
-0.00108245
-0.00108075
-0.00107594
-0.00106777
-0.00105564
-0.0010391
-0.00102253
0.00120897
0.00120833
0.00120453
0.00119658
0.00118479
0.00116955
0.00115108
0.00112956
0.00110513
0.00107796
0.00104817
0.00101591
0.000981286
0.000944443
0.00090551
0.000864621
0.000821916
0.000777536
0.000731628
0.000684341
0.000635828
0.000586242
0.000535737
0.000484468
0.000432585
0.000380238
0.000327571
0.000274723
0.000221824
0.000169
0.000116367
6.40317e-05
1.20928e-05
-3.93623e-05
-9.02569e-05
-0.000140524
-0.000190105
-0.000238951
-0.000287021
-0.000334284
-0.000380713
-0.000426288
-0.000470994
-0.000514818
-0.000557752
-0.000599785
-0.000640908
-0.000681109
-0.000720373
-0.000758681
-0.000796005
-0.000832315
-0.000867568
-0.000901715
-0.000934696
-0.00096644
-0.000996866
-0.00102588
-0.00105338
-0.00107925
-0.00110335
-0.00112556
-0.00114573
-0.00116368
-0.00117924
-0.00119224
-0.00120251
-0.00120985
-0.00121406
-0.00121498
-0.00121245
-0.00120621
-0.00119563
-0.00118023
-0.00116439
0.00140765
0.00139998
0.00138819
0.00137278
0.00135397
0.00133198
0.001307
0.00127921
0.00124875
0.00121573
0.00118027
0.00114248
0.00110247