/*--------------------------------*- C++ -*----------------------------------*\
  =========                 |
  \\      /  F ield         | OpenFOAM: The Open Source CFD Toolbox
   \\    /   O peration     | Website:  https://openfoam.org
    \\  /    A nd           | Version:  12
     \\/     M anipulation  |
\*---------------------------------------------------------------------------*/
FoamFile
{
    format      ascii;
    class       volVectorField;
    location    "9";
    object      U;
}
// * * * * * * * * * * * * * * * * * * * * * * * * * * * * * * * * * * * * * //

dimensions      [0 1 -1 0 0 0 0];

internalField   nonuniform List<vector> 
5625
(
(-5.35945e-07 1.19573e-06 0)
(-2.20103e-06 1.97575e-06 0)
(-3.83677e-06 1.94888e-06 0)
(-4.71808e-06 1.53771e-06 0)
(-4.26172e-06 9.58925e-07 0)
(-2.18763e-06 3.15627e-07 0)
(1.61356e-06 -3.3516e-07 0)
(7.15346e-06 -9.60481e-07 0)
(1.43798e-05 -1.5414e-06 0)
(2.31983e-05 -2.06815e-06 0)
(3.34856e-05 -2.53651e-06 0)
(4.50998e-05 -2.9454e-06 0)
(5.78875e-05 -3.29551e-06 0)
(7.16893e-05 -3.58853e-06 0)
(8.63425e-05 -3.82666e-06 0)
(0.000101684 -4.01238e-06 0)
(0.000117553 -4.14826e-06 0)
(0.000133792 -4.23691e-06 0)
(0.000150244 -4.28092e-06 0)
(0.000166763 -4.28288e-06 0)
(0.000183203 -4.24532e-06 0)
(0.000199428 -4.17075e-06 0)
(0.000215307 -4.06169e-06 0)
(0.000230717 -3.9206e-06 0)
(0.000245541 -3.74992e-06 0)
(0.000259673 -3.55211e-06 0)
(0.000273011 -3.32956e-06 0)
(0.000285464 -3.08468e-06 0)
(0.000296949 -2.81984e-06 0)
(0.00030739 -2.53737e-06 0)
(0.000316722 -2.23958e-06 0)
(0.000324885 -1.92876e-06 0)
(0.000331831 -1.60715e-06 0)
(0.000337519 -1.27694e-06 0)
(0.000341917 -9.40293e-07 0)
(0.000345 -5.99331e-07 0)
(0.000346753 -2.56126e-07 0)
(0.000347169 8.73163e-08 0)
(0.000346249 4.28891e-07 0)
(0.000344002 7.66867e-07 0)
(0.000340444 1.09924e-06 0)
(0.0003356 1.42412e-06 0)
(0.000329503 1.73967e-06 0)
(0.000322192 2.0441e-06 0)
(0.000313715 2.33563e-06 0)
(0.000304127 2.61246e-06 0)
(0.000293489 2.87283e-06 0)
(0.00028187 3.11497e-06 0)
(0.000269347 3.33709e-06 0)
(0.000256002 3.53737e-06 0)
(0.000241926 3.71398e-06 0)
(0.000227214 3.86502e-06 0)
(0.00021197 3.98855e-06 0)
(0.000196304 4.08255e-06 0)
(0.000180332 4.14492e-06 0)
(0.000164177 4.17345e-06 0)
(0.000147966 4.16584e-06 0)
(0.000131835 4.11966e-06 0)
(0.000115922 4.03234e-06 0)
(0.000100374 3.90117e-06 0)
(8.53398e-05 3.72336e-06 0)
(7.09722e-05 3.49599e-06 0)
(5.74271e-05 3.21617e-06 0)
(4.48612e-05 2.88117e-06 0)
(3.34298e-05 2.48868e-06 0)
(2.32834e-05 2.03728e-06 0)
(1.45633e-05 1.52726e-06 0)
(7.39361e-06 9.61941e-07 0)
(1.87099e-06 3.50528e-07 0)
(-1.94443e-06 -2.88505e-07 0)
(-4.05693e-06 -9.24665e-07 0)
(-4.56964e-06 -1.50118e-06 0)
(-3.74944e-06 -1.91486e-06 0)
(-2.16499e-06 -1.95051e-06 0)
(-5.31187e-07 -1.1856e-06 0)
(-3.28349e-07 3.55851e-06 0)
(-9.94112e-07 5.27914e-06 0)
(-2.21997e-07 3.31486e-06 0)
(2.98485e-06 -9.28685e-07 0)
(9.40421e-06 -6.5077e-06 0)
(1.94916e-05 -1.27837e-05 0)
(3.34623e-05 -1.93171e-05 0)
(5.1361e-05 -2.5805e-05 0)
(7.31061e-05 -3.20393e-05 0)
(9.8521e-05 -3.78789e-05 0)
(0.000127358 -4.32289e-05 0)
(0.000159319 -4.80274e-05 0)
(0.000194068 -5.22356e-05 0)
(0.000231243 -5.58316e-05 0)
(0.000270469 -5.88057e-05 0)
(0.00031136 -6.11572e-05 0)
(0.000353525 -6.28925e-05 0)
(0.000396579 -6.40235e-05 0)
(0.000440137 -6.45659e-05 0)
(0.000483827 -6.45394e-05 0)
(0.000527284 -6.3966e-05 0)
(0.000570158 -6.28704e-05 0)
(0.000612115 -6.1279e-05 0)
(0.000652834 -5.922e-05 0)
(0.000692016 -5.67227e-05 0)
(0.000729378 -5.38178e-05 0)
(0.000764656 -5.05367e-05 0)
(0.00079761 -4.69116e-05 0)
(0.000828017 -4.29752e-05 0)
(0.000855679 -3.87606e-05 0)
(0.000880419 -3.43012e-05 0)
(0.00090208 -2.96305e-05 0)
(0.00092053 -2.4782e-05 0)
(0.000935658 -1.9789e-05 0)
(0.000947376 -1.46849e-05 0)
(0.000955619 -9.5026e-06 0)
(0.000960342 -4.27476e-06 0)
(0.000961525 9.66295e-07 0)
(0.000959167 6.18871e-06 0)
(0.00095329 1.13611e-05 0)
(0.000943938 1.64523e-05 0)
(0.000931175 2.14319e-05 0)
(0.000915086 2.62698e-05 0)
(0.000895777 3.09364e-05 0)
(0.000873372 3.54027e-05 0)
(0.000848017 3.96399e-05 0)
(0.000819877 4.36198e-05 0)
(0.000789134 4.73147e-05 0)
(0.000755992 5.06972e-05 0)
(0.000720669 5.37403e-05 0)
(0.000683404 5.64175e-05 0)
(0.000644452 5.87028e-05 0)
(0.000604084 6.05705e-05 0)
(0.000562589 6.19957e-05 0)
(0.000520269 6.29541e-05 0)
(0.000477442 6.34222e-05 0)
(0.000434439 6.33774e-05 0)
(0.000391602 6.27987e-05 0)
(0.000349286 6.16667e-05 0)
(0.000307851 5.99645e-05 0)
(0.000267667 5.76781e-05 0)
(0.000229104 5.4798e-05 0)
(0.000192532 5.13206e-05 0)
(0.000158314 4.72504e-05 0)
(0.000126802 4.26034e-05 0)
(9.83239e-05 3.74115e-05 0)
(7.3177e-05 3.17295e-05 0)
(5.16103e-05 2.56445e-05 0)
(3.38064e-05 1.92902e-05 0)
(1.98578e-05 1.28676e-05 0)
(9.73399e-06 6.67093e-06 0)
(3.23816e-06 1.13371e-06 0)
(-6.38056e-08 -3.1104e-06 0)
(-9.24686e-07 -5.12115e-06 0)
(-3.19655e-07 -3.49227e-06 0)
(-9.87626e-09 3.35529e-06 0)
(2.12166e-06 1.7128e-06 0)
(7.84537e-06 -5.96814e-06 0)
(1.79811e-05 -1.76263e-05 0)
(3.30541e-05 -3.17502e-05 0)
(5.34055e-05 -4.72278e-05 0)
(7.91981e-05 -6.32295e-05 0)
(0.000110432 -7.91369e-05 0)
(0.000146972 -9.44922e-05 0)
(0.00018857 -0.000108959 0)
(0.000234892 -0.000122293 0)
(0.000285533 -0.000134321 0)
(0.000340037 -0.00014492 0)
(0.000397906 -0.000154013 0)
(0.000458616 -0.00016155 0)
(0.000521625 -0.000167512 0)
(0.000586381 -0.000171897 0)
(0.00065233 -0.00017472 0)
(0.000718919 -0.00017601 0)
(0.000785607 -0.000175807 0)
(0.000851864 -0.000174162 0)
(0.000917175 -0.000171131 0)
(0.000981048 -0.000166778 0)
(0.00104301 -0.000161174 0)
(0.00110261 -0.000154392 0)
(0.00115944 -0.000146511 0)
(0.00121309 -0.000137613 0)
(0.0012632 -0.000127781 0)
(0.00130946 -0.000117102 0)
(0.00135154 -0.000105664 0)
(0.00138919 -9.35557e-05 0)
(0.00142216 -8.08672e-05 0)
(0.00145026 -6.76886e-05 0)
(0.00147332 -5.41104e-05 0)
(0.00149121 -4.02228e-05 0)
(0.00150381 -2.61156e-05 0)
(0.00151107 -1.1878e-05 0)
(0.00151294 2.40153e-06 0)
(0.00150943 1.66356e-05 0)
(0.00150057 3.07378e-05 0)
(0.00148643 4.46228e-05 0)
(0.00146709 5.82066e-05 0)
(0.00144269 7.14064e-05 0)
(0.00141338 8.4141e-05 0)
(0.00137936 9.63303e-05 0)
(0.00134084 0.000107896 0)
(0.00129807 0.00011876 0)
(0.00125133 0.000128848 0)
(0.00120092 0.000138085 0)
(0.00114717 0.000146399 0)
(0.00109045 0.00015372 0)
(0.00103113 0.000159979 0)
(0.000969621 0.00016511 0)
(0.000906353 0.000169049 0)
(0.000841777 0.000171735 0)
(0.000776363 0.000173113 0)
(0.000710599 0.000173129 0)
(0.000644988 0.000171737 0)
(0.000580045 0.000168897 0)
(0.000516293 0.000164577 0)
(0.000454261 0.000158758 0)
(0.000394476 0.000151432 0)
(0.000337457 0.000142612 0)
(0.000283712 0.000132332 0)
(0.000233723 0.000120658 0)
(0.000187936 0.000107695 0)
(0.000146753 9.36011e-05 0)
(0.000110508 7.86017e-05 0)
(7.94558e-05 6.30159e-05 0)
(5.37441e-05 4.72842e-05 0)
(3.33905e-05 3.20084e-05 0)
(1.82546e-05 1.80039e-05 0)
(8.0226e-06 6.37072e-06 0)
(2.20167e-06 -1.38737e-06 0)
(-3.38234e-11 -3.21213e-06 0)
(3.20318e-07 -2.6331e-07 0)
(5.66346e-06 -1.0716e-05 0)
(1.70812e-05 -2.85465e-05 0)
(3.51119e-05 -5.13807e-05 0)
(5.987e-05 -7.73705e-05 0)
(9.14417e-05 -0.000105071 0)
(0.000129823 -0.000133342 0)
(0.000174885 -0.00016129 0)
(0.000226381 -0.000188217 0)
(0.00028396 -0.000213588 0)
(0.000347189 -0.000236993 0)
(0.000415563 -0.000258125 0)
(0.00048852 -0.000276762 0)
(0.000565451 -0.000292749 0)
(0.000645716 -0.000305983 0)
(0.000728654 -0.000316411 0)
(0.000813587 -0.000324013 0)
(0.000899833 -0.000328802 0)
(0.000986713 -0.000330819 0)
(0.00107355 -0.000330124 0)
(0.0011597 -0.000326798 0)
(0.00124451 -0.000320937 0)
(0.00132736 -0.000312652 0)
(0.00140767 -0.000302063 0)
(0.00148487 -0.000289302 0)
(0.00155843 -0.00027451 0)
(0.00162786 -0.000257832 0)
(0.0016927 -0.000239421 0)
(0.00175252 -0.000219435 0)
(0.00180695 -0.000198033 0)
(0.00185563 -0.000175381 0)
(0.00189829 -0.000151642 0)
(0.00193464 -0.000126985 0)
(0.00196449 -0.000101576 0)
(0.00198764 -7.55838e-05 0)
(0.00200399 -4.91751e-05 0)
(0.00201342 -2.25163e-05 0)
(0.00201591 4.22741e-06 0)
(0.00201144 3.08923e-05 0)
(0.00200006 5.73165e-05 0)
(0.00198184 8.33404e-05 0)
(0.00195691 0.000108806 0)
(0.00192543 0.000133559 0)
(0.0018876 0.000157446 0)
(0.00184366 0.000180319 0)
(0.00179389 0.000202029 0)
(0.0017386 0.000222433 0)
(0.00167815 0.000241391 0)
(0.00161293 0.000258766 0)
(0.00154335 0.000274425 0)
(0.00146986 0.000288238 0)
(0.00139296 0.000300082 0)
(0.00131316 0.000309837 0)
(0.001231 0.000317391 0)
(0.00114705 0.000322639 0)
(0.0010619 0.000325482 0)
(0.000976148 0.000325834 0)
(0.000890435 0.000323619 0)
(0.000805396 0.000318776 0)
(0.000721679 0.000311264 0)
(0.000639932 0.00030106 0)
(0.000560804 0.00028817 0)
(0.00048493 0.000272635 0)
(0.000412927 0.000254533 0)
(0.000345383 0.000233998 0)
(0.00028285 0.000211225 0)
(0.000225823 0.000186492 0)
(0.000174738 0.000160179 0)
(0.000129948 0.000132792 0)
(9.17132e-05 0.000104998 0)
(6.01826e-05 7.76648e-05 0)
(3.5385e-05 5.19058e-05 0)
(1.7266e-05 2.9146e-05 0)
(5.74944e-06 1.12192e-05 0)
(3.31054e-07 4.91196e-07 0)
(6.15297e-07 -7.40771e-06 0)
(9.11071e-06 -3.24562e-05 0)
(2.62495e-05 -6.51924e-05 0)
(5.22989e-05 -0.00010316 0)
(8.69367e-05 -0.000144353 0)
(0.000129943 -0.000187132 0)
(0.000181092 -0.000230151 0)
(0.000240071 -0.00027231 0)
(0.000306475 -0.000312722 0)
(0.000379819 -0.000350677 0)
(0.000459546 -0.000385618 0)
(0.000545036 -0.000417114 0)
(0.000635619 -0.00044484 0)
(0.000730578 -0.000468561 0)
(0.00082917 -0.00048812 0)
(0.000930625 -0.000503422 0)
(0.00103416 -0.000514428 0)
(0.00113899 -0.000521148 0)
(0.00124433 -0.000523628 0)
(0.00134941 -0.000521954 0)
(0.00145345 -0.000516239 0)
(0.00155573 -0.000506622 0)
(0.00165552 -0.000493264 0)
(0.00175215 -0.000476347 0)
(0.00184494 -0.000456067 0)
(0.0019333 -0.000432636 0)
(0.00201664 -0.000406277 0)
(0.00209443 -0.000377223 0)
(0.00216617 -0.000345715 0)
(0.00223141 -0.000311999 0)
(0.00228977 -0.000276329 0)
(0.00234088 -0.00023896 0)
(0.00238444 -0.000200151 0)
(0.0024202 -0.000160164 0)
(0.00244795 -0.000119258 0)
(0.00246755 -7.76945e-05 0)
(0.00247888 -3.57334e-05 0)
(0.00248189 6.36714e-06 0)
(0.00247657 4.8351e-05 0)
(0.00246298 8.99646e-05 0)
(0.0024412 0.000130958 0)
(0.00241138 0.000171084 0)
(0.0023737 0.000210099 0)
(0.0023284 0.000247765 0)
(0.00227577 0.000283848 0)
(0.00221613 0.000318117 0)
(0.00214984 0.00035035 0)
(0.00207733 0.000380327 0)
(0.00199905 0.000407835 0)
(0.00191548 0.00043267 0)
(0.00182716 0.000454633 0)
(0.00173466 0.000473535 0)
(0.00163858 0.000489194 0)
(0.00153954 0.000501442 0)
(0.00143822 0.000510121 0)
(0.00133528 0.00051509 0)
(0.00123145 0.000516222 0)
(0.00112745 0.000513412 0)
(0.00102401 0.00050658 0)
(0.00092189 0.000495671 0)
(0.000821834 0.000480667 0)
(0.000724591 0.00046159 0)
(0.000630898 0.000438509 0)
(0.000541471 0.000411556 0)
(0.000457002 0.000380929 0)
(0.000378145 0.000346916 0)
(0.000305508 0.000309906 0)
(0.000239645 0.000270413 0)
(0.000181045 0.000229101 0)
(0.000130124 0.000186814 0)
(8.72135e-05 0.00014461 0)
(5.2568e-05 0.000103796 0)
(2.64428e-05 6.59805e-05 0)
(9.20489e-06 3.31439e-05 0)
(6.27863e-07 7.72783e-06 0)
(8.7559e-07 -1.78357e-05 0)
(1.23221e-05 -6.31186e-05 0)
(3.49389e-05 -0.00011556 0)
(6.87694e-05 -0.000172728 0)
(0.000113084 -0.00023257 0)
(0.000167358 -0.000293347 0)
(0.000231123 -0.000353585 0)
(0.000303858 -0.000412049 0)
(0.000384975 -0.00046771 0)
(0.000473828 -0.00051973 0)
(0.000569714 -0.00056743 0)
(0.000671882 -0.000610274 0)
(0.000779541 -0.000647851 0)
(0.000891864 -0.000679857 0)
(0.001008 -0.000706082 0)
(0.00112707 -0.0007264 0)
(0.0012482 -0.000740754 0)
(0.00137051 -0.000749151 0)
(0.00149312 -0.000751652 0)
(0.00161516 -0.000748367 0)
(0.00173579 -0.000739446 0)
(0.00185417 -0.000725078 0)
(0.00196951 -0.00070548 0)
(0.00208105 -0.000680902 0)
(0.00218806 -0.000651612 0)
(0.00228986 -0.000617902 0)
(0.00238579 -0.00058008 0)
(0.00247527 -0.00053847 0)
(0.00255774 -0.000493407 0)
(0.00263271 -0.000445236 0)
(0.00269973 -0.000394309 0)
(0.0027584 -0.000340985 0)
(0.00280839 -0.000285628 0)
(0.00284942 -0.000228603 0)
(0.00288125 -0.000170277 0)
(0.00290372 -0.000111018 0)
(0.0029167 -5.11912e-05 0)
(0.00292013 8.83796e-06 0)
(0.00291402 6.87082e-05 0)
(0.00289841 0.000128061 0)
(0.00287341 0.000186544 0)
(0.00283916 0.000243806 0)
(0.0027959 0.000299505 0)
(0.00274387 0.000353303 0)
(0.0026834 0.000404869 0)
(0.00261485 0.00045388 0)
(0.00253863 0.00050002 0)
(0.00245521 0.000542982 0)
(0.00236509 0.000582468 0)
(0.00226882 0.000618189 0)
(0.00216701 0.000649871 0)
(0.00206027 0.000677249 0)
(0.00194928 0.000700076 0)
(0.00183475 0.000718117 0)
(0.00171741 0.00073116 0)
(0.00159802 0.000739011 0)
(0.00147738 0.000741505 0)
(0.0013563 0.000738501 0)
(0.00123559 0.000729895 0)
(0.0011161 0.000715621 0)
(0.000998668 0.000695661 0)
(0.000884133 0.000670047 0)
(0.000773328 0.000638879 0)
(0.000667071 0.000602327 0)
(0.00056616 0.000560651 0)
(0.000471365 0.000514212 0)
(0.000383419 0.000463488 0)
(0.000303016 0.000409099 0)
(0.000230804 0.000351824 0)
(0.000167381 0.000292628 0)
(0.000113285 0.000232688 0)
(6.90145e-05 0.000173422 0)
(3.5134e-05 0.00011652 0)
(1.2424e-05 6.3998e-05 0)
(8.9051e-07 1.82585e-05 0)
(1.10724e-06 -3.12822e-05 0)
(1.52984e-05 -0.000102159 0)
(4.30985e-05 -0.000179001 0)
(8.43751e-05 -0.000259441 0)
(0.000138036 -0.000341425 0)
(0.00020327 -0.000423173 0)
(0.000279369 -0.000503143 0)
(0.000365598 -0.000580013 0)
(0.000461173 -0.000652662 0)
(0.00056527 -0.000720157 0)
(0.000677026 -0.000781733 0)
(0.000795546 -0.000836778 0)
(0.000919905 -0.000884814 0)
(0.00104915 -0.000925486 0)
(0.00118233 -0.000958547 0)
(0.00131845 -0.000983849 0)
(0.00145654 -0.00100133 0)
(0.00159562 -0.001011 0)
(0.00173473 -0.00101294 0)
(0.00187292 -0.0010073 0)
(0.00200926 -0.000994266 0)
(0.00214284 -0.000974087 0)
(0.00227281 -0.000947046 0)
(0.00239833 -0.000913462 0)
(0.00251861 -0.000873688 0)
(0.0026329 -0.000828103 0)
(0.00274051 -0.000777109 0)
(0.0028408 -0.000721128 0)
(0.00293316 -0.000660599 0)
(0.00301706 -0.000595974 0)
(0.00309201 -0.000527716 0)
(0.00315759 -0.000456295 0)
(0.00321344 -0.00038219 0)
(0.00325924 -0.000305882 0)
(0.00329475 -0.000227853 0)
(0.00331978 -0.000148589 0)
(0.00333422 -6.85722e-05 0)
(0.00333798 1.1716e-05 0)
(0.00333107 9.17981e-05 0)
(0.00331355 0.000171201 0)
(0.00328552 0.000249457 0)
(0.00324716 0.000326105 0)
(0.00319871 0.000400691 0)
(0.00314044 0.000472769 0)
(0.0030727 0.000541902 0)
(0.00299589 0.000607663 0)
(0.00291046 0.000669636 0)
(0.00281691 0.000727416 0)
(0.00271578 0.000780611 0)
(0.00260769 0.000828845 0)
(0.00249328 0.000871754 0)
(0.00237322 0.000908996 0)
(0.00224826 0.000940246 0)
(0.00211915 0.000965202 0)
(0.0019867 0.000983587 0)
(0.00185175 0.000995153 0)
(0.00171514 0.000999685 0)
(0.00157778 0.000997006 0)
(0.00144055 0.000986982 0)
(0.00130439 0.000969527 0)
(0.00117021 0.000944614 0)
(0.00103895 0.000912281 0)
(0.000911545 0.000872643 0)
(0.000788911 0.000825898 0)
(0.000671963 0.000772346 0)
(0.000561596 0.0007124 0)
(0.000458681 0.000646602 0)
(0.000364067 0.000575639 0)
(0.000278572 0.000500365 0)
(0.000202986 0.000421816 0)
(0.000138063 0.000341236 0)
(8.45394e-05 0.00026009 0)
(4.32683e-05 0.000180087 0)
(1.53997e-05 0.000103222 0)
(1.12431e-06 3.18151e-05 0)
(1.31862e-06 -4.75271e-05 0)
(1.80901e-05 -0.000149082 0)
(5.08208e-05 -0.000254879 0)
(9.92398e-05 -0.00036261 0)
(0.000161931 -0.00047024 0)
(0.000237819 -0.000575975 0)
(0.000325968 -0.000678238 0)
(0.00042543 -0.000775656 0)
(0.000535219 -0.000867053 0)
(0.000654328 -0.000951437 0)
(0.000781724 -0.00102799 0)
(0.000916357 -0.00109604 0)
(0.00105716 -0.00115508 0)
(0.00120305 -0.00120471 0)
(0.00135295 -0.00124468 0)
(0.00150576 -0.00127484 0)
(0.00166041 -0.00129511 0)
(0.00181582 -0.00130555 0)
(0.00197095 -0.00130626 0)
(0.00212475 -0.00129743 0)
(0.00227624 -0.0012793 0)
(0.00242443 -0.00125219 0)
(0.0025684 -0.00121646 0)
(0.00270726 -0.0011725 0)
(0.00284016 -0.00112077 0)
(0.00296631 -0.00106172 0)
(0.00308495 -0.00099588 0)
(0.00319542 -0.000923766 0)
(0.00329706 -0.00084593 0)
(0.00338932 -0.000762942 0)
(0.00347167 -0.000675382 0)
(0.00354367 -0.000583842 0)
(0.00360494 -0.000488922 0)
(0.00365513 -0.000391227 0)
(0.00369401 -0.000291366 0)
(0.00372136 -0.000189948 0)
(0.00373706 -8.75821e-05 0)
(0.00374105 1.51265e-05 0)
(0.00373331 0.000117576 0)
(0.00371391 0.000219169 0)
(0.00368297 0.000319318 0)
(0.00364068 0.000417439 0)
(0.00358728 0.000512962 0)
(0.00352308 0.000605323 0)
(0.00344845 0.000693973 0)
(0.00336381 0.000778372 0)
(0.00326964 0.000857997 0)
(0.00316647 0.000932339 0)
(0.0030549 0.0010009 0)
(0.00293556 0.00106322 0)
(0.00280914 0.00111883 0)
(0.00267638 0.0011673 0)
(0.00253806 0.00120823 0)
(0.00239499 0.00124124 0)
(0.00224803 0.00126598 0)
(0.00209809 0.00128214 0)
(0.00194609 0.00128945 0)
(0.00179298 0.00128769 0)
(0.00163974 0.00127668 0)
(0.00148737 0.00125632 0)
(0.00133689 0.00122654 0)
(0.00118932 0.00118739 0)
(0.00104569 0.00113897 0)
(0.000907037 0.0010815 0)
(0.000774397 0.00101528 0)
(0.000648796 0.000940777 0)
(0.000531251 0.000858546 0)
(0.000422771 0.000769317 0)
(0.000324352 0.00067398 0)
(0.000236979 0.000573606 0)
(0.000161613 0.000469462 0)
(9.92179e-05 0.00036302 0)
(5.09116e-05 0.000255977 0)
(1.8172e-05 0.000150281 0)
(1.3366e-06 4.8165e-05 0)
(1.51771e-06 -6.64151e-05 0)
(2.07604e-05 -0.000203522 0)
(5.82461e-05 -0.0003427 0)
(0.000113589 -0.000481683 0)
(0.000185077 -0.000618452 0)
(0.000271387 -0.00075121 0)
(0.000371367 -0.000878365 0)
(0.000483859 -0.000998516 0)
(0.000607678 -0.00111046 0)
(0.000741627 -0.00121317 0)
(0.000884499 -0.00130579 0)
(0.00103508 -0.00138765 0)
(0.00119216 -0.00145821 0)
(0.00135451 -0.00151707 0)
(0.00152092 -0.00156397 0)
(0.0016902 -0.00159878 0)
(0.00186115 -0.00162146 0)
(0.00203261 -0.00163209 0)
(0.00220344 -0.00163082 0)
(0.00237251 -0.00161789 0)
(0.00253877 -0.00159363 0)
(0.00270116 -0.00155843 0)
(0.00285871 -0.00151271 0)
(0.00301046 -0.00145698 0)
(0.00315551 -0.00139178 0)
(0.00329304 -0.0013177 0)
(0.00342226 -0.00123534 0)
(0.00354243 -0.00114535 0)
(0.00365291 -0.00104841 0)
(0.00375309 -0.000945197 0)
(0.00384244 -0.000836429 0)
(0.00392048 -0.000722823 0)
(0.00398681 -0.000605109 0)
(0.0040411 -0.000484023 0)
(0.00408307 -0.000360306 0)
(0.00411253 -0.000234698 0)
(0.00412934 -0.00010794 0)
(0.00413343 1.92301e-05 0)
(0.0041248 0.00014608 0)
(0.00410352 0.000271884 0)
(0.00406971 0.000395924 0)
(0.00402359 0.000517492 0)
(0.00396539 0.000635891 0)
(0.00389546 0.000750436 0)
(0.00381418 0.000860457 0)
(0.00372198 0.000965297 0)
(0.00361938 0.00106432 0)
(0.00350695 0.0011569 0)
(0.0033853 0.00124244 0)
(0.0032551 0.00132037 0)
(0.00311708 0.00139012 0)
(0.00297203 0.00145118 0)
(0.00282075 0.00150305 0)
(0.00266414 0.00154526 0)
(0.00250309 0.00157739 0)
(0.00233855 0.00159905 0)
(0.00217153 0.00160993 0)
(0.00200305 0.00160972 0)
(0.00183414 0.00159821 0)
(0.00166591 0.00157524 0)
(0.00149944 0.00154073 0)
(0.00133586 0.00149469 0)
(0.00117631 0.00143721 0)
(0.00102194 0.00136848 0)
(0.000873898 0.00128883 0)
(0.00073336 0.00119869 0)
(0.000601492 0.00109865 0)
(0.000479464 0.000989438 0)
(0.000368453 0.000871948 0)
(0.000269631 0.000747257 0)
(0.000184162 0.000616626 0)
(0.000113223 0.000481515 0)
(5.81748e-05 0.000343588 0)
(2.07925e-05 0.000204741 0)
(1.53414e-06 6.71293e-05 0)
(1.71126e-06 -8.7857e-05 0)
(2.33707e-05 -0.000265256 0)
(6.55192e-05 -0.000442155 0)
(0.000127668 -0.000616305 0)
(0.000207822 -0.000785693 0)
(0.000304425 -0.00094852 0)
(0.00041611 -0.00110319 0)
(0.000541515 -0.00124828 0)
(0.000679254 -0.00138259 0)
(0.000827942 -0.00150508 0)
(0.000986191 -0.0016149 0)
(0.00115262 -0.00171136 0)
(0.00132587 -0.00179394 0)
(0.00150456 -0.00186225 0)
(0.00168736 -0.00191608 0)
(0.00187294 -0.0019553 0)
(0.00206002 -0.00197994 0)
(0.00224731 -0.00199012 0)
(0.0024336 -0.00198607 0)
(0.00261769 -0.0019681 0)
(0.00279842 -0.00193661 0)
(0.00297471 -0.00189208 0)
(0.00314549 -0.00183505 0)
(0.00330978 -0.00176612 0)
(0.00346663 -0.00168594 0)
(0.00361517 -0.00159521 0)
(0.00375457 -0.00149467 0)
(0.00388408 -0.00138508 0)
(0.00400302 -0.00126725 0)
(0.00411076 -0.00114199 0)
(0.00420675 -0.00101015 0)
(0.00429051 -0.000872589 0)
(0.00436162 -0.000730164 0)
(0.00441974 -0.000583752 0)
(0.00446458 -0.00043423 0)
(0.00449595 -0.000282478 0)
(0.00451371 -0.000129373 0)
(0.00451779 2.42096e-05 0)
(0.0045082 0.000177403 0)
(0.004485 0.000329345 0)
(0.00444835 0.000479186 0)
(0.00439843 0.000626086 0)
(0.00433554 0.000769218 0)
(0.00426 0.000907769 0)
(0.00417222 0.00104094 0)
(0.00407267 0.00116796 0)
(0.00396187 0.00128807 0)
(0.00384042 0.00140052 0)
(0.00370895 0.00150462 0)
(0.00356817 0.00159965 0)
(0.00341885 0.00168498 0)
(0.0032618 0.00175997 0)
(0.00309789 0.00182402 0)
(0.00292803 0.00187659 0)
(0.00275318 0.00191715 0)
(0.00257435 0.00194525 0)
(0.0023926 0.00196048 0)
(0.00220902 0.00196248 0)
(0.00202472 0.00195097 0)
(0.00184087 0.00192574 0)
(0.00165867 0.00188664 0)
(0.00147934 0.00183365 0)
(0.00130411 0.00176682 0)
(0.00113426 0.00168632 0)
(0.000971071 0.00159244 0)
(0.000815851 0.00148559 0)
(0.000669919 0.00136634 0)
(0.000534612 0.0012354 0)
(0.00041128 0.00109365 0)
(0.000301283 0.00094215 0)
(0.000205979 0.000782133 0)
(0.000126746 0.000615028 0)
(6.51731e-05 0.000442463 0)
(2.33106e-05 0.000266283 0)
(1.72251e-06 8.85831e-05 0)
(1.90482e-06 -0.000111822 0)
(2.59741e-05 -0.000334202 0)
(7.27698e-05 -0.000553126 0)
(0.000141701 -0.000766335 0)
(0.000230494 -0.00097181 0)
(0.000337358 -0.00116775 0)
(0.000460716 -0.00135255 0)
(0.000598999 -0.00152481 0)
(0.000750622 -0.00168332 0)
(0.000914005 -0.00182705 0)
(0.00108758 -0.00195516 0)
(0.0012698 -0.00206701 0)
(0.00145914 -0.00216208 0)
(0.00165408 -0.00224006 0)
(0.00185314 -0.00230075 0)
(0.0020549 -0.00234411 0)
(0.00225793 -0.00237021 0)
(0.00246087 -0.00237926 0)
(0.0026624 -0.00237157 0)
(0.00286124 -0.00234754 0)
(0.00305619 -0.00230768 0)
(0.00324606 -0.00225257 0)
(0.00342977 -0.00218286 0)
(0.00360626 -0.00209926 0)
(0.00377456 -0.00200256 0)
(0.00393375 -0.00189357 0)
(0.00408298 -0.00177317 0)
(0.00422147 -0.00164226 0)
(0.00434852 -0.00150177 0)
(0.00446349 -0.00135267 0)
(0.00456581 -0.00119593 0)
(0.00465498 -0.00103256 0)
(0.00473059 -0.000863556 0)
(0.00479228 -0.00068994 0)
(0.00483978 -0.000512732 0)
(0.00487287 -0.000332951 0)
(0.00489143 -0.000151617 0)
(0.00489539 3.02545e-05 0)
(0.00488477 0.000211656 0)
(0.00485963 0.000391589 0)
(0.00482012 0.000569064 0)
(0.00476647 0.000743107 0)
(0.00469895 0.000912758 0)
(0.00461792 0.00107707 0)
(0.00452379 0.00123512 0)
(0.00441705 0.00138601 0)
(0.00429824 0.00152884 0)
(0.00416798 0.00166276 0)
(0.00402693 0.00178694 0)
(0.00387583 0.00190056 0)
(0.00371546 0.00200287 0)
(0.00354669 0.00209312 0)
(0.0033704 0.00217061 0)
(0.00318756 0.00223469 0)
(0.00299918 0.00228474 0)
(0.00280633 0.00232021 0)
(0.00261011 0.00234061 0)
(0.00241167 0.00234549 0)
(0.00221222 0.0023345 0)
(0.00201301 0.00230734 0)
(0.00181531 0.00226381 0)
(0.00162044 0.00220382 0)
(0.00142975 0.00212737 0)
(0.00124464 0.00203457 0)
(0.00106652 0.00192565 0)
(0.000896828 0.001801 0)
(0.000737049 0.00166113 0)
(0.000588677 0.00150672 0)
(0.000453235 0.00133861 0)
(0.000332268 0.00115782 0)
(0.00022732 0.000965544 0)
(0.000139964 0.000763172 0)
(7.20091e-05 0.000552289 0)
(2.57689e-05 0.000334699 0)
(1.90619e-06 0.000112448 0)
(2.10276e-06 -0.000138327 0)
(2.8614e-05 -0.000410396 0)
(8.01042e-05 -0.000675653 0)
(0.000155874 -0.000931811 0)
(0.000253361 -0.00117684 0)
(0.000370537 -0.00140893 0)
(0.000505608 -0.00162648 0)
(0.000656797 -0.00182811 0)
(0.000822316 -0.00201261 0)
(0.00100039 -0.00217901 0)
(0.00118926 -0.0023265 0)
(0.00138721 -0.00245447 0)
(0.00159255 -0.00256249 0)
(0.00180362 -0.00265028 0)
(0.00201881 -0.00271773 0)
(0.00223656 -0.00276487 0)
(0.00245533 -0.00279189 0)
(0.00267367 -0.00279907 0)
(0.00289017 -0.00278683 0)
(0.00310347 -0.00275569 0)
(0.0033123 -0.00270626 0)
(0.00351542 -0.00263926 0)
(0.00371168 -0.00255546 0)
(0.0039 -0.00245571 0)
(0.00407935 -0.00234092 0)
(0.00424879 -0.00221205 0)
(0.00440746 -0.00207012 0)
(0.00455454 -0.00191617 0)
(0.00468933 -0.00175128 0)
(0.00481116 -0.00157656 0)
(0.00491946 -0.00139314 0)
(0.00501374 -0.00120215 0)
(0.00509356 -0.00100476 0)
(0.00515858 -0.000802127 0)
(0.00520851 -0.000595414 0)
(0.00524315 -0.00038579 0)
(0.00526237 -0.000174419 0)
(0.00526612 3.75411e-05 0)
(0.0052544 0.00024894 0)
(0.0052273 0.000458638 0)
(0.00518497 0.000665507 0)
(0.00512764 0.000868433 0)
(0.00505559 0.00106632 0)
(0.0049692 0.00125809 0)
(0.0048689 0.00144268 0)
(0.00475517 0.00161906 0)
(0.00462857 0.00178621 0)
(0.00448975 0.00194315 0)
(0.00433939 0.00208892 0)
(0.00417824 0.00222259 0)
(0.00400712 0.00234327 0)
(0.00382691 0.0024501 0)
(0.00363855 0.00254227 0)
(0.00344304 0.00261902 0)
(0.00324143 0.00267962 0)
(0.00303484 0.00272342 0)
(0.00282443 0.0027498 0)
(0.00261143 0.00275825 0)
(0.0023971 0.0027483 0)
(0.00218277 0.00271958 0)
(0.00196981 0.00267179 0)
(0.00175964 0.00260477 0)
(0.00155373 0.00251842 0)
(0.00135357 0.0024128 0)
(0.00116071 0.00228806 0)
(0.000976752 0.00214453 0)
(0.000803309 0.00198264 0)
(0.000642044 0.00180303 0)
(0.000494652 0.00160648 0)
(0.000362859 0.00139394 0)
(0.000248394 0.00116657 0)
(0.000153022 0.000925702 0)
(7.87659e-05 0.000672882 0)
(2.82012e-05 0.000409872 0)
(2.08871e-06 0.000138686 0)
(2.30848e-06 -0.000167429 0)
(3.13225e-05 -0.000493965 0)
(8.76003e-05 -0.000809902 0)
(0.000170319 -0.00111291 0)
(0.000276614 -0.00140095 0)
(0.000404202 -0.00167221 0)
(0.00055107 -0.00192509 0)
(0.000715221 -0.00215824 0)
(0.000894656 -0.00237051 0)
(0.0010874 -0.00256094 0)
(0.00129152 -0.00272882 0)
(0.0015051 -0.0028736 0)
(0.0017263 -0.00299491 0)
(0.00195332 -0.00309259 0)
(0.0021844 -0.00316662 0)
(0.00241785 -0.00321715 0)
(0.00265205 -0.00324445 0)
(0.00288544 -0.00324894 0)
(0.00311651 -0.00323118 0)
(0.00334386 -0.00319181 0)
(0.00356611 -0.00313158 0)
(0.00378201 -0.00305134 0)
(0.00399034 -0.00295202 0)
(0.00418999 -0.0028346 0)
(0.0043799 -0.00270016 0)
(0.00455911 -0.00254979 0)
(0.00472673 -0.00238468 0)
(0.00488194 -0.002206 0)
(0.00502401 -0.002015 0)
(0.00515229 -0.00181294 0)
(0.00526619 -0.00160109 0)
(0.00536522 -0.00138075 0)
(0.00544894 -0.00115323 0)
(0.00551701 -0.000919835 0)
(0.00556916 -0.000681882 0)
(0.00560518 -0.000440685 0)
(0.00562494 -0.000197555 0)
(0.00562839 4.62055e-05 0)
(0.00561555 0.000289302 0)
(0.00558652 0.000530453 0)
(0.00554144 0.000768389 0)
(0.00548055 0.00100186 0)
(0.00540415 0.00122962 0)
(0.0053126 0.00145047 0)
(0.00520636 0.0016632 0)
(0.00508592 0.00186665 0)
(0.00495185 0.00205967 0)
(0.0048048 0.00224114 0)
(0.00464548 0.00240997 0)
(0.00447465 0.0025651 0)
(0.00429316 0.00270552 0)
(0.00410191 0.00283025 0)
(0.00390188 0.00293835 0)
(0.00369409 0.00302893 0)
(0.00347964 0.00310114 0)
(0.00325969 0.00315422 0)
(0.00303547 0.00318744 0)
(0.00280825 0.00320016 0)
(0.00257938 0.00319181 0)
(0.00235026 0.00316191 0)
(0.00212235 0.00311007 0)
(0.00189717 0.003036 0)
(0.00167628 0.00293952 0)
(0.00146132 0.00282059 0)
(0.00125396 0.00267928 0)
(0.00105592 0.00251581 0)
(0.000868988 0.00233055 0)
(0.000694982 0.00212404 0)
(0.00053577 0.00189699 0)
(0.000393255 0.00165029 0)
(0.000269354 0.00138503 0)
(0.000166024 0.00110249 0)
(8.55038e-05 0.000804154 0)
(3.06319e-05 0.000491757 0)
(2.27258e-06 0.000167285 0)
(2.52439e-06 -0.00019921 0)
(3.41203e-05 -0.000585098 0)
(9.5305e-05 -0.00095612 0)
(0.000185112 -0.00130991 0)
(0.000300349 -0.0016444 0)
(0.000438465 -0.0019578 0)
(0.000597209 -0.00224854 0)
(0.000774357 -0.0025153 0)
(0.000967693 -0.00275698 0)
(0.00117504 -0.00297274 0)
(0.00139426 -0.00316191 0)
(0.00162327 -0.00332406 0)
(0.00186008 -0.00345893 0)
(0.00210271 -0.00356648 0)
(0.0023493 -0.0036468 0)
(0.00259802 -0.00370019 0)
(0.00284716 -0.00372707 0)
(0.00309505 -0.003728 0)
(0.00334013 -0.00370367 0)
(0.0035809 -0.00365489 0)
(0.00381596 -0.00358257 0)
(0.00404398 -0.00348772 0)
(0.00426373 -0.00337142 0)
(0.00447404 -0.00323483 0)
(0.00467386 -0.00307917 0)
(0.0048622 -0.00290571 0)
(0.00503815 -0.00271578 0)
(0.0052009 -0.00251074 0)
(0.0053497 -0.00229198 0)
(0.00548392 -0.00206092 0)
(0.00560295 -0.00181899 0)
(0.00570632 -0.00156765 0)
(0.00579359 -0.00130835 0)
(0.00586442 -0.00104256 0)
(0.00591855 -0.000771736 0)
(0.00595577 -0.000497347 0)
(0.00597597 -0.000220849 0)
(0.0059791 5.63102e-05 0)
(0.00596518 0.000332694 0)
(0.0059343 0.000606877 0)
(0.00588663 0.000877449 0)
(0.00582239 0.00114302 0)
(0.0057419 0.00140221 0)
(0.00564553 0.00165367 0)
(0.00553372 0.00189606 0)
(0.00540698 0.00212808 0)
(0.00526588 0.00234845 0)
(0.00511109 0.0025559 0)
(0.00494331 0.00274923 0)
(0.00476333 0.00292722 0)
(0.00457201 0.00308874 0)
(0.00437027 0.00323267 0)
(0.00415911 0.00335793 0)
(0.00393958 0.0034635 0)
(0.00371283 0.00354841 0)
(0.00348006 0.00361176 0)
(0.00324253 0.00365269 0)
(0.00300159 0.00367043 0)
(0.00275865 0.00366428 0)
(0.00251517 0.00363364 0)
(0.00227272 0.00357798 0)
(0.0020329 0.00349691 0)
(0.00179738 0.00339013 0)
(0.00156792 0.00325745 0)
(0.00134631 0.00309886 0)
(0.00113443 0.00291447 0)
(0.000934209 0.00270453 0)
(0.000747623 0.00246948 0)
(0.000576714 0.00220994 0)
(0.000423569 0.00192673 0)
(0.000290293 0.00162083 0)
(0.000179036 0.00129347 0)
(9.2261e-05 0.000946086 0)
(3.30768e-05 0.000580359 0)
(2.45938e-06 0.000198255 0)
(2.75197e-06 -0.000233768 0)
(3.70155e-05 -0.000684014 0)
(0.000103231 -0.00111459 0)
(0.000200262 -0.00152309 0)
(0.00032456 -0.00190744 0)
(0.000473285 -0.00226588 0)
(0.000643931 -0.0025969 0)
(0.000834034 -0.00289923 0)
(0.00104115 -0.00317188 0)
(0.00126289 -0.00341408 0)
(0.00149693 -0.00362531 0)
(0.00174101 -0.00380525 0)
(0.00199296 -0.00395379 0)
(0.00225068 -0.00407104 0)
(0.00251216 -0.00415726 0)
(0.00277548 -0.00421288 0)
(0.00303881 -0.00423852 0)
(0.00330042 -0.00423489 0)
(0.00355866 -0.00420288 0)
(0.00381199 -0.00414347 0)
(0.00405896 -0.00405774 0)