/*--------------------------------*- C++ -*----------------------------------*\
  =========                 |
  \\      /  F ield         | OpenFOAM: The Open Source CFD Toolbox
   \\    /   O peration     | Website:  https://openfoam.org
    \\  /    A nd           | Version:  12
     \\/     M anipulation  |
\*---------------------------------------------------------------------------*/
FoamFile
{
    format      ascii;
    class       volScalarField;
    location    "7.5";
    object      epsilon;
}
// * * * * * * * * * * * * * * * * * * * * * * * * * * * * * * * * * * * * * //

dimensions      [0 2 -3 0 0 0 0];

internalField   nonuniform List<scalar> 
18225
(
7.48141e-09
1.41325e-08
2.99916e-08
4.89852e-08
7.04796e-08
9.40121e-08
1.19263e-07
1.46004e-07
1.7406e-07
2.03291e-07
2.33582e-07
2.64832e-07
2.96955e-07
3.29871e-07
3.63509e-07
3.97803e-07
4.32692e-07
4.68117e-07
5.04022e-07
5.40355e-07
5.77065e-07
6.14103e-07
6.5142e-07
6.88969e-07
7.26704e-07
7.64581e-07
8.02554e-07
8.40581e-07
8.78617e-07
9.1662e-07
9.54547e-07
9.92357e-07
1.03001e-06
1.06746e-06
1.10467e-06
1.14159e-06
1.1782e-06
1.21444e-06
1.25028e-06
1.28568e-06
1.3206e-06
1.355e-06
1.38884e-06
1.42209e-06
1.4547e-06
1.48665e-06
1.51789e-06
1.54839e-06
1.57812e-06
1.60702e-06
1.63509e-06
1.66227e-06
1.68853e-06
1.71384e-06
1.73818e-06
1.7615e-06
1.78377e-06
1.80497e-06
1.82505e-06
1.84401e-06
1.86179e-06
1.87839e-06
1.89376e-06
1.90788e-06
1.92072e-06
1.93227e-06
1.94249e-06
1.95136e-06
1.95887e-06
1.96498e-06
1.96969e-06
1.97296e-06
1.97478e-06
1.97514e-06
1.97402e-06
1.9714e-06
1.96728e-06
1.96164e-06
1.95448e-06
1.94579e-06
1.93556e-06
1.92378e-06
1.91047e-06
1.89562e-06
1.87923e-06
1.8613e-06
1.84186e-06
1.8209e-06
1.79844e-06
1.77449e-06
1.74907e-06
1.72221e-06
1.69393e-06
1.66424e-06
1.63319e-06
1.60081e-06
1.56712e-06
1.53216e-06
1.49599e-06
1.45863e-06
1.42014e-06
1.38057e-06
1.33997e-06
1.2984e-06
1.25591e-06
1.21256e-06
1.16843e-06
1.12358e-06
1.07807e-06
1.03198e-06
9.85399e-07
9.38392e-07
8.91046e-07
8.43447e-07
7.95684e-07
7.4785e-07
7.00039e-07
6.52353e-07
6.04894e-07
5.57772e-07
5.11099e-07
4.64996e-07
4.19588e-07
3.7501e-07
3.31407e-07
2.88937e-07
2.47775e-07
2.08118e-07
1.70196e-07
1.34287e-07
1.00749e-07
7.00628e-08
4.29129e-08
2.02256e-08
1.07073e-08
5.06206e-08
2.75344e-08
2.67776e-08
3.19933e-08
4.00641e-08
4.98909e-08
6.09598e-08
7.29874e-08
8.5798e-08
9.92722e-08
1.13322e-07
1.27881e-07
1.42892e-07
1.58309e-07
1.74091e-07
1.90202e-07
2.0661e-07
2.23284e-07
2.40195e-07
2.57316e-07
2.74623e-07
2.92091e-07
3.09696e-07
3.27415e-07
3.45226e-07
3.63107e-07
3.81036e-07
3.98993e-07
4.16957e-07
4.34906e-07
4.52822e-07
4.70684e-07
4.88472e-07
5.06166e-07
5.23747e-07
5.41196e-07
5.58494e-07
5.75621e-07
5.9256e-07
6.0929e-07
6.25794e-07
6.42054e-07
6.58051e-07
6.73768e-07
6.89186e-07
7.04289e-07
7.19058e-07
7.33477e-07
7.4753e-07
7.61198e-07
7.74466e-07
7.87317e-07
7.99735e-07
8.11705e-07
8.23211e-07
8.34238e-07
8.44771e-07
8.54794e-07
8.64294e-07
8.73257e-07
8.81669e-07
8.89515e-07
8.96784e-07
9.03463e-07
9.09538e-07
9.14999e-07
9.19833e-07
9.2403e-07
9.27579e-07
9.3047e-07
9.32694e-07
9.34242e-07
9.35104e-07
9.35273e-07
9.34743e-07
9.33506e-07
9.31556e-07
9.2889e-07
9.25502e-07
9.21389e-07
9.1655e-07
9.10983e-07
9.04686e-07
8.97662e-07
8.89911e-07
8.81436e-07
8.7224e-07
8.62329e-07
8.51709e-07
8.40387e-07
8.28372e-07
8.15673e-07
8.02303e-07
7.88272e-07
7.73596e-07
7.58289e-07
7.42368e-07
7.25851e-07
7.08758e-07
6.9111e-07
6.72927e-07
6.54236e-07
6.3506e-07
6.15426e-07
5.95362e-07
5.74898e-07
5.54064e-07
5.32893e-07
5.11419e-07
4.89677e-07
4.67704e-07
4.45537e-07
4.23218e-07
4.00786e-07
3.78286e-07
3.55763e-07
3.33262e-07
3.10834e-07
2.8853e-07
2.66404e-07
2.44513e-07
2.2292e-07
2.01691e-07
1.80899e-07
1.60625e-07
1.40965e-07
1.2203e-07
1.0396e-07
8.6939e-08
7.12322e-08
5.72573e-08
4.57605e-08
3.83247e-08
3.94198e-08
7.24668e-08
1.12744e-07
5.52304e-08
4.24858e-08
4.00085e-08
4.18841e-08
4.61933e-08
5.2082e-08
5.90956e-08
6.69627e-08
7.55079e-08
8.46103e-08
9.41821e-08
1.04157e-07
1.14482e-07
1.25114e-07
1.36018e-07
1.47163e-07
1.5852e-07
1.70066e-07
1.81777e-07
1.93634e-07
2.05616e-07
2.17705e-07
2.29883e-07
2.42134e-07
2.54442e-07
2.6679e-07
2.79163e-07
2.91546e-07
3.03924e-07
3.16283e-07
3.28608e-07
3.40886e-07
3.53102e-07
3.65243e-07
3.77296e-07
3.89246e-07
4.0108e-07
4.12786e-07
4.2435e-07
4.3576e-07
4.47002e-07
4.58065e-07
4.68935e-07
4.796e-07
4.90048e-07
5.00268e-07
5.10246e-07
5.19971e-07
5.29433e-07
5.38618e-07
5.47516e-07
5.56116e-07
5.64406e-07
5.72376e-07
5.80015e-07
5.87314e-07
5.9426e-07
6.00845e-07
6.07058e-07
6.12891e-07
6.18332e-07
6.23375e-07
6.28008e-07
6.32225e-07
6.36016e-07
6.39374e-07
6.4229e-07
6.44758e-07
6.46771e-07
6.48321e-07
6.49403e-07
6.5001e-07
6.50138e-07
6.49781e-07
6.48935e-07
6.47595e-07
6.45758e-07
6.43423e-07
6.40585e-07
6.37244e-07
6.334e-07
6.2905e-07
6.24197e-07
6.18841e-07
6.12984e-07
6.06629e-07
5.99779e-07
5.92439e-07
5.84615e-07
5.76311e-07
5.67536e-07
5.58296e-07
5.48602e-07
5.38463e-07
5.2789e-07
5.16894e-07
5.05489e-07
4.93688e-07
4.81506e-07
4.68959e-07
4.56064e-07
4.42839e-07
4.29302e-07
4.15475e-07
4.01377e-07
3.87031e-07
3.7246e-07
3.57689e-07
3.42744e-07
3.2765e-07
3.12437e-07
2.97132e-07
2.81768e-07
2.66377e-07
2.50991e-07
2.35649e-07
2.20387e-07
2.05248e-07
1.90275e-07
1.75518e-07
1.6103e-07
1.46873e-07
1.33119e-07
1.19851e-07
1.07176e-07
9.52282e-08
8.41891e-08
7.43191e-08
6.60146e-08
5.99342e-08
5.73073e-08
6.08894e-08
7.91595e-08
1.61564e-07
1.86863e-07
8.95739e-08
6.47329e-08
5.5556e-08
5.26127e-08
5.29814e-08
5.54167e-08
5.92756e-08
6.41813e-08
6.98934e-08
7.62487e-08
8.31305e-08
9.04521e-08
9.8147e-08
1.06163e-07
1.14456e-07
1.22991e-07
1.31738e-07
1.40669e-07
1.49762e-07
1.58996e-07
1.68351e-07
1.77809e-07
1.87355e-07
1.96973e-07
2.06647e-07
2.16364e-07
2.26111e-07
2.35874e-07
2.45641e-07
2.55399e-07
2.65137e-07
2.74842e-07
2.84504e-07
2.9411e-07
3.0365e-07
3.13113e-07
3.22488e-07
3.31764e-07
3.40931e-07
3.49978e-07
3.58895e-07
3.67672e-07
3.76298e-07
3.84765e-07
3.93061e-07
4.01178e-07
4.09105e-07
4.16833e-07
4.24354e-07
4.31657e-07
4.38734e-07
4.45575e-07
4.52172e-07
4.58516e-07
4.64598e-07
4.70411e-07
4.75945e-07
4.81193e-07
4.86147e-07
4.90799e-07
4.95142e-07
4.99168e-07
5.02869e-07
5.0624e-07
5.09273e-07
5.11962e-07
5.143e-07
5.16282e-07
5.17903e-07
5.19156e-07
5.20036e-07
5.20539e-07
5.20661e-07
5.20399e-07
5.19747e-07
5.18702e-07
5.17263e-07
5.15426e-07
5.13191e-07
5.10556e-07
5.07521e-07
5.04084e-07
5.00247e-07
4.96011e-07
4.91378e-07
4.86349e-07
4.80928e-07
4.75118e-07
4.68924e-07
4.62351e-07
4.55405e-07
4.48093e-07
4.40421e-07
4.32398e-07
4.24034e-07
4.15337e-07
4.06319e-07
3.96991e-07
3.87366e-07
3.77456e-07
3.67276e-07
3.56841e-07
3.46167e-07
3.35271e-07
3.2417e-07
3.12883e-07
3.0143e-07
2.89832e-07
2.78112e-07
2.66291e-07
2.54395e-07
2.4245e-07
2.30482e-07
2.18523e-07
2.06601e-07
1.94753e-07
1.83014e-07
1.71424e-07
1.6003e-07
1.48881e-07
1.38036e-07
1.27564e-07
1.17548e-07
1.08089e-07
9.93195e-08
9.14118e-08
8.46065e-08
7.92537e-08
7.58992e-08
7.54702e-08
7.97577e-08
9.29584e-08
1.28613e-07
2.68242e-07
2.69766e-07
1.28365e-07
9.07096e-08
7.49422e-08
6.75945e-08
6.45735e-08
6.41789e-08
6.5554e-08
6.8208e-08
7.18321e-08
7.62189e-08
8.12216e-08
8.6732e-08
9.26677e-08
9.89639e-08
1.05569e-07
1.1244e-07
1.19543e-07
1.26845e-07
1.34322e-07
1.4195e-07
1.49709e-07
1.57579e-07
1.65543e-07
1.73587e-07
1.81695e-07
1.89853e-07
1.98049e-07
2.06269e-07
2.14503e-07
2.22738e-07
2.30963e-07
2.39168e-07
2.47343e-07
2.55476e-07
2.63559e-07
2.71581e-07
2.79533e-07
2.87404e-07
2.95187e-07
3.02872e-07
3.1045e-07
3.17912e-07
3.25249e-07
3.32452e-07
3.39514e-07
3.46425e-07
3.53178e-07
3.59764e-07
3.66175e-07
3.72403e-07
3.7844e-07
3.84279e-07
3.89911e-07
3.9533e-07
4.00528e-07
4.05498e-07
4.10232e-07
4.14723e-07
4.18965e-07
4.22951e-07
4.26674e-07
4.30129e-07
4.33308e-07
4.36206e-07
4.38816e-07
4.41134e-07
4.43154e-07
4.44871e-07
4.4628e-07
4.47376e-07
4.48154e-07
4.48612e-07
4.48744e-07
4.48549e-07
4.48022e-07
4.47161e-07
4.45963e-07
4.44427e-07
4.42551e-07
4.40335e-07
4.37777e-07
4.34878e-07
4.31638e-07
4.28059e-07
4.24142e-07
4.19889e-07
4.15302e-07
4.10386e-07
4.05144e-07
3.99581e-07
3.93702e-07
3.87514e-07
3.81023e-07
3.74236e-07
3.67162e-07
3.59809e-07
3.52188e-07
3.44308e-07
3.36182e-07
3.2782e-07
3.19237e-07
3.10445e-07
3.0146e-07
2.92297e-07
2.82972e-07
2.73503e-07
2.63909e-07
2.54209e-07
2.44424e-07
2.34576e-07
2.24688e-07
2.14787e-07
2.04899e-07
1.95053e-07
1.85282e-07
1.75619e-07
1.66105e-07
1.56781e-07
1.47698e-07
1.38911e-07
1.30488e-07
1.22509e-07
1.1507e-07
1.08296e-07
1.02347e-07
9.74365e-08
9.38682e-08
9.20891e-08
9.28084e-08
9.7261e-08
1.07896e-07
1.30606e-07
1.84776e-07
3.88213e-07
3.5945e-07
1.70483e-07
1.19267e-07
9.67798e-08
8.51407e-08
7.89593e-08
7.60247e-08
7.5241e-08
7.59902e-08
7.78897e-08
8.06854e-08
8.41992e-08
8.83008e-08
9.28916e-08
9.78951e-08
1.0325e-07
1.08906e-07
1.14822e-07
1.20963e-07
1.27299e-07
1.33805e-07
1.40456e-07
1.47234e-07
1.54119e-07
1.61094e-07
1.68145e-07
1.75257e-07
1.82416e-07
1.89611e-07
1.96828e-07
2.04057e-07
2.11287e-07
2.18508e-07
2.25709e-07
2.32881e-07
2.40014e-07
2.47098e-07
2.54127e-07
2.61089e-07
2.67977e-07
2.74782e-07
2.81496e-07
2.88111e-07
2.94619e-07
3.01012e-07
3.07282e-07
3.13421e-07
3.19422e-07
3.25278e-07
3.30981e-07
3.36524e-07
3.419e-07
3.47102e-07
3.52122e-07
3.56955e-07
3.61593e-07
3.66029e-07
3.70259e-07
3.74274e-07
3.78068e-07
3.81637e-07
3.84973e-07
3.88072e-07
3.90926e-07
3.93532e-07
3.95883e-07
3.97975e-07
3.99802e-07
4.01361e-07
4.02646e-07
4.03653e-07
4.04379e-07
4.04819e-07
4.04971e-07
4.04832e-07
4.04398e-07
4.03667e-07
4.02637e-07
4.01307e-07
3.99675e-07
3.9774e-07
3.95503e-07
3.92962e-07
3.9012e-07
3.86976e-07
3.83533e-07
3.79792e-07
3.75757e-07
3.7143e-07
3.66816e-07
3.61918e-07
3.56743e-07
3.51296e-07
3.45582e-07
3.39611e-07
3.33388e-07
3.26924e-07
3.20227e-07
3.13307e-07
3.06175e-07
2.98843e-07
2.91323e-07
2.83629e-07
2.75775e-07
2.67775e-07
2.59647e-07
2.51408e-07
2.43075e-07
2.34668e-07
2.26208e-07
2.17718e-07
2.09222e-07
2.00745e-07
1.92315e-07
1.83963e-07
1.75724e-07
1.67634e-07
1.59735e-07
1.52075e-07
1.44709e-07
1.377e-07
1.31124e-07
1.25075e-07
1.19665e-07
1.15041e-07
1.11392e-07
1.0898e-07
1.0817e-07
1.09519e-07
1.1392e-07
1.22955e-07
1.39819e-07
1.72296e-07
2.46204e-07
5.18958e-07
4.54453e-07
2.15176e-07
1.49748e-07
1.20356e-07
1.04428e-07
9.51835e-08
8.98591e-08
8.70976e-08
8.6142e-08
8.65291e-08
8.79544e-08
9.0207e-08
9.31335e-08
9.66188e-08
1.00574e-07
1.04928e-07
1.09623e-07
1.14613e-07
1.19857e-07
1.25322e-07
1.30978e-07
1.36801e-07
1.42766e-07
1.48854e-07
1.55047e-07
1.61328e-07
1.67683e-07
1.74096e-07
1.80556e-07
1.8705e-07
1.93566e-07
2.00093e-07
2.0662e-07
2.13139e-07
2.19638e-07
2.2611e-07
2.32543e-07
2.38931e-07
2.45265e-07
2.51535e-07
2.57735e-07
2.63855e-07
2.6989e-07
2.7583e-07
2.81668e-07
2.87398e-07
2.93011e-07
2.98501e-07
3.03861e-07
3.09084e-07
3.14163e-07
3.19091e-07
3.23863e-07
3.28471e-07
3.32909e-07
3.37171e-07
3.41251e-07
3.45143e-07
3.4884e-07
3.52338e-07
3.55629e-07
3.5871e-07
3.61574e-07
3.64217e-07
3.66632e-07
3.68816e-07
3.70763e-07
3.7247e-07
3.7393e-07
3.75142e-07
3.76099e-07
3.768e-07
3.7724e-07
3.77417e-07
3.77327e-07
3.76969e-07
3.76339e-07
3.75435e-07
3.74258e-07
3.72804e-07
3.71075e-07
3.69069e-07
3.66787e-07
3.64229e-07
3.61397e-07
3.58292e-07
3.54917e-07
3.51273e-07
3.47365e-07
3.43196e-07
3.38772e-07
3.34096e-07
3.29175e-07
3.24014e-07
3.18623e-07
3.13007e-07
3.07176e-07
3.01138e-07
2.94905e-07
2.88486e-07
2.81894e-07
2.7514e-07
2.68239e-07
2.61205e-07
2.54052e-07
2.46798e-07
2.3946e-07
2.32056e-07
2.24607e-07
2.17134e-07
2.09661e-07
2.02212e-07
1.94815e-07
1.875e-07
1.80299e-07
1.73249e-07
1.6639e-07
1.59768e-07
1.53436e-07
1.47454e-07
1.41894e-07
1.36844e-07
1.32408e-07
1.28716e-07
1.25938e-07
1.24296e-07
1.24097e-07
1.25784e-07
1.30027e-07
1.37926e-07
1.51446e-07
1.74595e-07
2.17204e-07
3.11997e-07
6.58755e-07
5.53609e-07
2.61865e-07
1.81691e-07
1.45217e-07
1.24966e-07
1.12699e-07
1.05068e-07
1.00439e-07
9.79053e-08
9.69179e-08
9.71184e-08
9.826e-08
1.00166e-07
1.02703e-07
1.0577e-07
1.09286e-07
1.13186e-07
1.17416e-07
1.21933e-07
1.26699e-07
1.3168e-07
1.36849e-07
1.4218e-07
1.47652e-07
1.53245e-07
1.58941e-07
1.64723e-07
1.70576e-07
1.76487e-07
1.82442e-07
1.8843e-07
1.94439e-07
2.00459e-07
2.06479e-07
2.12489e-07
2.1848e-07
2.24443e-07
2.3037e-07
2.36251e-07
2.42079e-07
2.47846e-07
2.53544e-07
2.59165e-07
2.64703e-07
2.70149e-07
2.75497e-07
2.80739e-07
2.8587e-07
2.90881e-07
2.95768e-07
3.00522e-07
3.05138e-07
3.0961e-07
3.13931e-07
3.18096e-07
3.22098e-07
3.25931e-07
3.29591e-07
3.3307e-07
3.36364e-07
3.39468e-07
3.42375e-07
3.45082e-07
3.47582e-07
3.49872e-07
3.51945e-07
3.53799e-07
3.55429e-07
3.5683e-07
3.57998e-07
3.5893e-07
3.59623e-07
3.60073e-07
3.60277e-07
3.60233e-07
3.59939e-07
3.59391e-07
3.58588e-07
3.5753e-07
3.56215e-07
3.54643e-07
3.52813e-07
3.50726e-07
3.48383e-07
3.45785e-07
3.42933e-07
3.3983e-07
3.3648e-07
3.32884e-07
3.29048e-07
3.24975e-07
3.20672e-07
3.16143e-07
3.11396e-07
3.06437e-07
3.01275e-07
2.95919e-07
2.90377e-07
2.84661e-07
2.7878e-07
2.72747e-07
2.66576e-07
2.60279e-07
2.53871e-07
2.47369e-07
2.40789e-07
2.34149e-07
2.27468e-07
2.20769e-07
2.14073e-07
2.07406e-07
2.00792e-07
1.94262e-07
1.87847e-07
1.81581e-07
1.75506e-07
1.69665e-07
1.64108e-07
1.58894e-07
1.54089e-07
1.49774e-07
1.46044e-07
1.43018e-07
1.40847e-07
1.39722e-07
1.39902e-07
1.41746e-07
1.45775e-07
1.52789e-07
1.64107e-07
1.82109e-07
2.11671e-07
2.64795e-07
3.81507e-07
8.06317e-07
6.55933e-07
3.10075e-07
2.14738e-07
1.71033e-07
1.46419e-07
1.31145e-07
1.21259e-07
1.14835e-07
1.10811e-07
1.08546e-07
1.07625e-07
1.07764e-07
1.0876e-07
1.10462e-07
1.12756e-07
1.15551e-07
1.18774e-07
1.22365e-07
1.26276e-07
1.30463e-07
1.34892e-07
1.39531e-07
1.44352e-07
1.49333e-07
1.54451e-07
1.59687e-07
1.65023e-07
1.70444e-07
1.75934e-07
1.8148e-07
1.87069e-07
1.92689e-07
1.98328e-07
2.03977e-07
2.09625e-07
2.15263e-07
2.2088e-07
2.26469e-07
2.3202e-07
2.37526e-07
2.42979e-07
2.4837e-07
2.53693e-07
2.5894e-07
2.64105e-07
2.69179e-07
2.74156e-07
2.7903e-07
2.83793e-07
2.88441e-07
2.92965e-07
2.9736e-07
3.01621e-07
3.0574e-07
3.09713e-07
3.13533e-07
3.17194e-07
3.20692e-07
3.24021e-07
3.27175e-07
3.30149e-07
3.32939e-07
3.35538e-07
3.37944e-07
3.4015e-07
3.42152e-07
3.43946e-07
3.45528e-07
3.46894e-07
3.4804e-07
3.48963e-07
3.49659e-07
3.50125e-07
3.50358e-07
3.50356e-07
3.50118e-07
3.49639e-07
3.48919e-07
3.47958e-07
3.46753e-07
3.45305e-07
3.43614e-07
3.41679e-07
3.39503e-07
3.37086e-07
3.34431e-07
3.31539e-07
3.28414e-07
3.25059e-07
3.21478e-07
3.17677e-07
3.1366e-07
3.09434e-07
3.05005e-07
3.00382e-07
2.95571e-07
2.90583e-07
2.85426e-07
2.80112e-07
2.74652e-07
2.69059e-07
2.63345e-07
2.57526e-07
2.51616e-07
2.45631e-07
2.39591e-07
2.33513e-07
2.27418e-07
2.21328e-07
2.15266e-07
2.0926e-07
2.03337e-07
1.97529e-07
1.9187e-07
1.86398e-07
1.81155e-07
1.76188e-07
1.71552e-07
1.67312e-07
1.6354e-07
1.60325e-07
1.57775e-07
1.56023e-07
1.55237e-07
1.55637e-07
1.57519e-07
1.61298e-07
1.67578e-07
1.77299e-07
1.92013e-07
2.14539e-07
2.50667e-07
3.14676e-07
4.54231e-07
9.60621e-07
7.60567e-07
3.59392e-07
2.48585e-07
1.9754e-07
1.6853e-07
1.5026e-07
1.38154e-07
1.29988e-07
1.24539e-07
1.21069e-07
1.19106e-07
1.18325e-07
1.18497e-07
1.19452e-07
1.21062e-07
1.23226e-07
1.25862e-07
1.28905e-07
1.32301e-07
1.36003e-07
1.39972e-07
1.44175e-07
1.48581e-07
1.53164e-07
1.57901e-07
1.62772e-07
1.67756e-07
1.72838e-07
1.78002e-07
1.83232e-07
1.88515e-07
1.93839e-07
1.99192e-07
2.04562e-07
2.0994e-07
2.15314e-07
2.20677e-07
2.26018e-07
2.31329e-07
2.36601e-07
2.41827e-07
2.46998e-07
2.52108e-07
2.57147e-07
2.6211e-07
2.6699e-07
2.71779e-07
2.76472e-07
2.8106e-07
2.85539e-07
2.89902e-07
2.94143e-07
2.98256e-07
3.02235e-07
3.06074e-07
3.09767e-07
3.1331e-07
3.16697e-07
3.19922e-07
3.22981e-07
3.25868e-07
3.28578e-07
3.31107e-07
3.3345e-07
3.35603e-07
3.3756e-07
3.39318e-07
3.40873e-07
3.42222e-07
3.43359e-07
3.44283e-07
3.44989e-07
3.45475e-07
3.45737e-07
3.45775e-07
3.45586e-07
3.45167e-07
3.44516e-07
3.43634e-07
3.42519e-07
3.41172e-07
3.39592e-07
3.37779e-07
3.35735e-07
3.33462e-07
3.30961e-07
3.28235e-07
3.25287e-07
3.22121e-07
3.18741e-07
3.15153e-07
3.11362e-07
3.07374e-07
3.03196e-07
2.98837e-07
2.94304e-07
2.89608e-07
2.84758e-07
2.79765e-07
2.74642e-07
2.69401e-07
2.64056e-07
2.58622e-07
2.53115e-07
2.47553e-07
2.41955e-07
2.36341e-07
2.30732e-07
2.25153e-07
2.19627e-07
2.14183e-07
2.0885e-07
2.03662e-07
1.98655e-07
1.9387e-07
1.89352e-07
1.85153e-07
1.81333e-07
1.77961e-07
1.75117e-07
1.729e-07
1.71429e-07
1.70852e-07
1.71357e-07
1.73192e-07
1.76695e-07
1.82339e-07
1.90818e-07
2.03217e-07
2.21335e-07
2.48449e-07
2.913e-07
3.66538e-07
5.29758e-07
1.12082e-06
8.66744e-07
4.0945e-07
2.82972e-07
2.24515e-07
1.91094e-07
1.69839e-07
1.55544e-07
1.4568e-07
1.38856e-07
1.34241e-07
1.31298e-07
1.29664e-07
1.29081e-07
1.29361e-07
1.30359e-07
1.31964e-07
1.34088e-07
1.36657e-07
1.39612e-07
1.42904e-07
1.46488e-07
1.50328e-07
1.54393e-07
1.58653e-07
1.63085e-07
1.67664e-07
1.72372e-07
1.7719e-07
1.821e-07
1.87088e-07
1.92139e-07
1.9724e-07
2.02379e-07
2.07542e-07
2.12721e-07
2.17904e-07
2.23081e-07
2.28243e-07
2.33381e-07
2.38486e-07
2.4355e-07
2.48565e-07
2.53524e-07
2.58418e-07
2.63241e-07
2.67985e-07
2.72644e-07
2.77211e-07
2.8168e-07
2.86043e-07
2.90296e-07
2.94432e-07
2.98445e-07
3.02329e-07
3.06079e-07
3.09689e-07
3.13154e-07
3.16468e-07
3.19626e-07
3.22623e-07
3.25454e-07
3.28115e-07
3.306e-07
3.32906e-07
3.35027e-07
3.36959e-07
3.38699e-07
3.40242e-07
3.41585e-07
3.42724e-07
3.43655e-07
3.44377e-07
3.44885e-07
3.45177e-07
3.45251e-07
3.45106e-07
3.44738e-07
3.44146e-07
3.43331e-07
3.4229e-07
3.41024e-07
3.39534e-07
3.37819e-07
3.35881e-07
3.33722e-07
3.31344e-07
3.28749e-07
3.25942e-07
3.22925e-07
3.19704e-07
3.16285e-07
3.12672e-07
3.08873e-07
3.04894e-07
3.00745e-07
2.96435e-07
2.91972e-07
2.87369e-07
2.82636e-07
2.77786e-07
2.72834e-07
2.67792e-07
2.62679e-07
2.57509e-07
2.52301e-07
2.47076e-07
2.41854e-07
2.36657e-07
2.31511e-07
2.26443e-07
2.21482e-07
2.1666e-07
2.12011e-07
2.07576e-07
2.03398e-07
1.99525e-07
1.96014e-07
1.92929e-07
1.90346e-07
1.88352e-07
1.87056e-07
1.86587e-07
1.87111e-07
1.88838e-07
1.92047e-07
1.97116e-07
2.04579e-07
2.15228e-07
2.30297e-07
2.51843e-07
2.83617e-07
3.33344e-07
4.2012e-07
6.07735e-07
1.28617e-06
9.73772e-07
4.59919e-07
3.17665e-07
2.51765e-07
2.13932e-07
1.89712e-07
1.73259e-07
1.61735e-07
1.53584e-07
1.47873e-07
1.44004e-07
1.41574e-07
1.40295e-07
1.39958e-07
1.40405e-07
1.41514e-07
1.43187e-07
1.45345e-07
1.47922e-07
1.50865e-07
1.54127e-07
1.57668e-07
1.61454e-07
1.65454e-07
1.69641e-07
1.73992e-07
1.78484e-07
1.83098e-07
1.87817e-07
1.92623e-07
1.97502e-07
2.02439e-07
2.07421e-07
2.12437e-07
2.17474e-07
2.22521e-07
2.27569e-07
2.32607e-07
2.37627e-07
2.42619e-07
2.47574e-07
2.52485e-07
2.57343e-07
2.62141e-07
2.66871e-07
2.71528e-07
2.76102e-07
2.80588e-07
2.8498e-07
2.8927e-07
2.93453e-07
2.97523e-07
3.01473e-07
3.05298e-07
3.08993e-07
3.12551e-07
3.15968e-07
3.19238e-07
3.22357e-07
3.25318e-07
3.28118e-07
3.30751e-07
3.33213e-07
3.35499e-07
3.37605e-07
3.39527e-07
3.41261e-07
3.42803e-07
3.4415e-07
3.45297e-07
3.46241e-07
3.4698e-07
3.47511e-07
3.47831e-07
3.47938e-07
3.47831e-07
3.47507e-07
3.46965e-07
3.46204e-07
3.45224e-07
3.44024e-07
3.42606e-07
3.40969e-07
3.39117e-07
3.37049e-07
3.34769e-07
3.32279e-07
3.29584e-07
3.26687e-07
3.23594e-07
3.20309e-07
3.1684e-07
3.13193e-07
3.09375e-07
3.05397e-07
3.01267e-07
2.96995e-07
2.92593e-07
2.88073e-07
2.83448e-07
2.78732e-07
2.73942e-07
2.69093e-07
2.64203e-07
2.59293e-07
2.54381e-07
2.49492e-07
2.44648e-07
2.39876e-07
2.35205e-07
2.30665e-07
2.26291e-07
2.2212e-07
2.18194e-07
2.14559e-07
2.11268e-07
2.08382e-07
2.05969e-07
2.04112e-07
2.02907e-07
2.0247e-07
2.02947e-07
2.04517e-07
2.07416e-07
2.11952e-07
2.18548e-07
2.27803e-07
2.40607e-07
2.5835e-07
2.83355e-07
3.19861e-07
3.76606e-07
4.75201e-07
6.8785e-07
1.45604e-06
1.08102e-06
5.10502e-07
3.52455e-07
2.79119e-07
2.36893e-07
2.09735e-07
1.91157e-07
1.78012e-07
1.68576e-07
1.61815e-07
1.57069e-07
1.53892e-07
1.51968e-07
1.51068e-07
1.51018e-07
1.51684e-07
1.52961e-07
1.54761e-07
1.57015e-07
1.59664e-07
1.62658e-07
1.65953e-07
1.69514e-07
1.73307e-07
1.77303e-07
1.81477e-07
1.85807e-07
1.9027e-07
1.94848e-07
1.99523e-07
2.0428e-07
2.09103e-07
2.1398e-07
2.18896e-07
2.23839e-07
2.28799e-07
2.33764e-07
2.38725e-07
2.43671e-07
2.48593e-07
2.53483e-07
2.58332e-07
2.63131e-07
2.67874e-07
2.72552e-07
2.77158e-07
2.81685e-07
2.86127e-07
2.90476e-07
2.94727e-07
2.98872e-07
3.02907e-07
3.06825e-07
3.1062e-07
3.14286e-07
3.17819e-07
3.21213e-07
3.24463e-07
3.27563e-07
3.30508e-07
3.33295e-07
3.35918e-07
3.38372e-07
3.40653e-07
3.42758e-07
3.44681e-07
3.46419e-07
3.47968e-07
3.49324e-07
3.50485e-07
3.51446e-07
3.52205e-07
3.5276e-07
3.53107e-07
3.53244e-07
3.53171e-07
3.52886e-07
3.52386e-07
3.5167e-07
3.5074e-07
3.49595e-07
3.48235e-07
3.46662e-07
3.44877e-07
3.42881e-07
3.40679e-07
3.38272e-07
3.35665e-07
3.32862e-07
3.29869e-07
3.2669e-07
3.23334e-07
3.19807e-07
3.16117e-07
3.12275e-07
3.08288e-07
3.0417e-07
2.9993e-07
2.95583e-07
2.91142e-07
2.86622e-07
2.8204e-07
2.77412e-07
2.72759e-07
2.68099e-07
2.63455e-07
2.58851e-07
2.54311e-07
2.49865e-07
2.45541e-07
2.41373e-07
2.37396e-07
2.33651e-07
2.30183e-07
2.2704e-07
2.2428e-07
2.21967e-07
2.20176e-07
2.18995e-07
2.18528e-07
2.18904e-07
2.2028e-07
2.22856e-07
2.26887e-07
2.32716e-07
2.40812e-07
2.51841e-07
2.66795e-07
2.87223e-07
3.1572e-07
3.57027e-07
4.20919e-07
5.3158e-07
7.69825e-07
1.62982e-06
1.18792e-06
5.60927e-07
3.87151e-07
3.06423e-07
2.59842e-07
2.29783e-07
2.09118e-07
1.94393e-07
1.83712e-07
1.75945e-07
1.70367e-07
1.66489e-07
1.63967e-07
1.62551e-07
1.62052e-07
1.62324e-07
1.63252e-07
1.64744e-07
1.66723e-07
1.69127e-07
1.719e-07
1.74998e-07
1.78381e-07
1.82015e-07
1.85867e-07
1.89912e-07
1.94124e-07
1.98481e-07
2.02963e-07
2.07553e-07
2.12232e-07
2.16985e-07
2.21798e-07
2.26656e-07
2.31548e-07
2.36461e-07
2.41384e-07
2.46306e-07
2.51217e-07
2.56108e-07
2.60969e-07
2.65791e-07
2.70567e-07
2.75288e-07
2.79947e-07
2.84535e-07
2.89046e-07
2.93473e-07
2.97809e-07
3.02048e-07
3.06183e-07
3.10209e-07
3.14118e-07
3.17907e-07
3.21568e-07
3.25096e-07
3.28487e-07
3.31735e-07
3.34834e-07
3.3778e-07
3.40569e-07
3.43195e-07
3.45655e-07
3.47942e-07
3.50055e-07
3.51988e-07
3.53737e-07
3.55299e-07
3.56671e-07
3.57848e-07
3.58828e-07
3.59609e-07
3.60186e-07
3.60558e-07
3.60724e-07
3.6068e-07
3.60428e-07
3.59962e-07
3.59284e-07
3.58394e-07
3.57292e-07
3.55979e-07
3.54455e-07
3.52722e-07
3.50783e-07
3.48641e-07
3.46298e-07
3.43759e-07
3.41028e-07
3.38112e-07
3.35016e-07
3.31748e-07
3.28315e-07
3.24725e-07
3.2099e-07
3.17118e-07
3.13121e-07
3.09013e-07
3.04805e-07
3.00514e-07
2.96155e-07
2.91745e-07
2.87302e-07
2.82847e-07
2.784e-07
2.73985e-07
2.69626e-07
2.6535e-07
2.61188e-07
2.5717e-07
2.53331e-07
2.49709e-07
2.46348e-07
2.43294e-07
2.40601e-07
2.38328e-07
2.36546e-07
2.35334e-07
2.34788e-07
2.35021e-07
2.36171e-07
2.3841e-07
2.41957e-07
2.47091e-07
2.54188e-07
2.63766e-07
2.76558e-07
2.93659e-07
3.16785e-07
3.48808e-07
3.94979e-07
4.66133e-07
5.89076e-07
8.53402e-07
1.807e-06
1.29395e-06
6.1095e-07
4.21584e-07
3.33538e-07
2.82658e-07
2.49746e-07
2.27038e-07
2.10774e-07
1.98893e-07
1.90162e-07
1.83794e-07
1.79258e-07
1.76183e-07
1.74295e-07
1.73391e-07
1.73313e-07
1.73937e-07
1.75165e-07
1.76914e-07
1.79115e-07
1.81713e-07
1.84657e-07
1.87906e-07
1.91422e-07
1.95173e-07
1.99129e-07
2.03266e-07
2.07558e-07
2.11985e-07
2.16528e-07
2.21169e-07
2.2589e-07
2.30677e-07
2.35515e-07
2.40391e-07
2.45293e-07
2.50208e-07
2.55126e-07
2.60036e-07
2.64928e-07
2.69792e-07
2.7462e-07
2.79402e-07
2.84131e-07
2.88799e-07
2.93397e-07
2.97918e-07
3.02357e-07
3.06704e-07
3.10955e-07
3.15103e-07
3.1914e-07
3.23063e-07
3.26864e-07
3.30538e-07
3.3408e-07
3.37484e-07
3.40745e-07
3.43859e-07
3.46819e-07
3.49622e-07
3.52263e-07
3.54737e-07
3.57041e-07
3.59169e-07
3.61119e-07
3.62885e-07
3.64465e-07
3.65855e-07
3.67052e-07
3.68052e-07
3.68854e-07
3.69453e-07
3.69849e-07
3.70039e-07
3.7002e-07
3.69795e-07
3.69358e-07
3.6871e-07
3.67851e-07
3.66783e-07
3.65504e-07
3.64018e-07
3.62324e-07
3.60427e-07
3.58329e-07
3.56034e-07
3.53545e-07
3.50869e-07
3.4801e-07
3.44976e-07
3.41774e-07
3.38412e-07
3.34899e-07
3.31245e-07
3.27462e-07
3.23562e-07
3.19556e-07
3.15461e-07
3.1129e-07
3.07062e-07
3.02793e-07
2.98504e-07
2.94214e-07
2.89947e-07
2.85726e-07
2.81579e-07
2.77532e-07
2.73618e-07
2.6987e-07
2.66324e-07
2.63022e-07
2.60008e-07
2.57332e-07
2.55051e-07
2.53229e-07
2.51942e-07
2.51274e-07
2.51328e-07
2.52226e-07
2.5412e-07
2.57193e-07
2.61683e-07
2.67897e-07
2.76243e-07
2.87288e-07
3.01835e-07
3.21086e-07
3.46924e-07
3.82504e-07
4.33595e-07
5.1211e-07
6.4752e-07
9.38342e-07
1.98704e-06
1.39866e-06
6.60352e-07
4.55601e-07
3.60345e-07
3.05237e-07
2.69527e-07
2.44827e-07
2.27071e-07
2.14031e-07
2.04379e-07
1.97263e-07
1.92112e-07
1.88524e-07
1.86206e-07
1.84939e-07
1.84553e-07
1.84916e-07
1.8592e-07
1.87479e-07
1.8952e-07
1.91982e-07
1.94813e-07
1.97967e-07
2.01405e-07
2.05093e-07
2.09e-07
2.13098e-07
2.17363e-07
2.21772e-07
2.26304e-07
2.30941e-07
2.35665e-07
2.4046e-07
2.45312e-07
2.50205e-07
2.55128e-07
2.60067e-07
2.65011e-07
2.69949e-07
2.74871e-07
2.79767e-07
2.84627e-07
2.89442e-07
2.94204e-07
2.98906e-07
3.03537e-07
3.08093e-07
3.12564e-07
3.16945e-07
3.21228e-07
3.25407e-07
3.29476e-07
3.33429e-07
3.3726e-07
3.40963e-07
3.44533e-07
3.47965e-07
3.51253e-07
3.54392e-07
3.57378e-07
3.60205e-07
3.6287e-07
3.65368e-07
3.67694e-07
3.69845e-07
3.71816e-07
3.73604e-07
3.75205e-07
3.76616e-07
3.77834e-07
3.78855e-07
3.79677e-07
3.80297e-07
3.80714e-07
3.80924e-07
3.80928e-07
3.80724e-07
3.80309e-07
3.79684e-07
3.78849e-07
3.77804e-07
3.76551e-07
3.7509e-07
3.73425e-07
3.71556e-07
3.69489e-07
3.67226e-07
3.64773e-07
3.62133e-07
3.59315e-07
3.56325e-07
3.53169e-07
3.49858e-07
3.46401e-07
3.42808e-07
3.39091e-07
3.35262e-07
3.31336e-07
3.27327e-07
3.23252e-07
3.19127e-07
3.14973e-07
3.10808e-07
3.06656e-07
3.0254e-07
2.98484e-07
2.94518e-07
2.9067e-07
2.86974e-07
2.83464e-07
2.8018e-07
2.77165e-07
2.74465e-07
2.72136e-07
2.70236e-07
2.68834e-07
2.6801e-07
2.67857e-07
2.68481e-07
2.70018e-07
2.72627e-07
2.7651e-07
2.81922e-07
2.89195e-07
2.98775e-07
3.11276e-07
3.27574e-07
3.48977e-07
3.77539e-07
4.16701e-07
4.72762e-07
5.5872e-07
7.06753e-07
1.02442e-06
2.16949e-06
1.50162e-06
7.08937e-07
4.89068e-07
3.86735e-07
3.27486e-07
2.89045e-07
2.62407e-07
2.43207e-07
2.29055e-07
2.18525e-07
2.10704e-07
2.04979e-07
2.00919e-07
1.98211e-07
1.9662e-07
1.95966e-07
1.96106e-07
1.96925e-07
1.98334e-07
2.00253e-07
2.02617e-07
2.05371e-07
2.08467e-07
2.11864e-07
2.15525e-07
2.19418e-07
2.23513e-07
2.27784e-07
2.32208e-07
2.36763e-07
2.41429e-07
2.46188e-07
2.51023e-07
2.55918e-07
2.60858e-07
2.6583e-07
2.70821e-07
2.75819e-07
2.80812e-07
2.8579e-07
2.90742e-07
2.95658e-07
3.0053e-07
3.05349e-07
3.10106e-07
3.14792e-07
3.19401e-07
3.23926e-07
3.28358e-07
3.32691e-07
3.36919e-07
3.41035e-07
3.45034e-07
3.48909e-07
3.52655e-07
3.56265e-07
3.59736e-07
3.63062e-07
3.66237e-07
3.69257e-07
3.72118e-07
3.74814e-07
3.77342e-07
3.79697e-07
3.81875e-07
3.83872e-07
3.85685e-07
3.8731e-07
3.88744e-07
3.89983e-07
3.91025e-07
3.91867e-07
3.92506e-07
3.92941e-07
3.93169e-07
3.93189e-07
3.93002e-07
3.92603e-07
3.91994e-07
3.91175e-07
3.90146e-07
3.88908e-07
3.87464e-07
3.85815e-07
3.83964e-07
3.81914e-07
3.79671e-07
3.77238e-07
3.74621e-07
3.71827e-07
3.68863e-07
3.65738e-07
3.62459e-07
3.59039e-07
3.55486e-07
3.51815e-07
3.48038e-07
3.44169e-07
3.40224e-07
3.36221e-07
3.32177e-07
3.28112e-07
3.24048e-07
3.20008e-07
3.16016e-07
3.12099e-07
3.08287e-07
3.04611e-07
3.01104e-07
2.97805e-07
2.94755e-07
2.91999e-07
2.89586e-07
2.87575e-07
2.86028e-07
2.85019e-07
2.84632e-07
2.84965e-07
2.86136e-07
2.88286e-07
2.91589e-07
2.9626e-07
3.02574e-07
3.10891e-07
3.21691e-07
3.35639e-07
3.53683e-07
3.7724e-07
4.08536e-07
4.51304e-07
5.12372e-07
6.05843e-07
7.66624e-07
1.11141e-06
2.35388e-06
1.60248e-06
7.56539e-07
5.2187e-07
4.12615e-07
3.49326e-07
3.08228e-07
2.79713e-07
2.59121e-07
2.43905e-07
2.32541e-07
2.24056e-07
2.17798e-07
2.13306e-07
2.10247e-07
2.08371e-07
2.07486e-07
2.07441e-07
2.08114e-07
2.09408e-07
2.1124e-07
2.13542e-07
2.16256e-07
2.19329e-07
2.22719e-07
2.26387e-07
2.30299e-07
2.34423e-07
2.38733e-07
2.43204e-07
2.47812e-07
2.52537e-07
2.57359e-07
2.62262e-07
2.67228e-07
2.72243e-07
2.77291e-07
2.82359e-07
2.87436e-07
2.92508e-07
2.97565e-07
3.02596e-07
3.07591e-07
3.12541e-07
3.17435e-07
3.22267e-07
3.27027e-07
3.31708e-07
3.36302e-07
3.40802e-07
3.45201e-07
3.49493e-07
3.5367e-07
3.57728e-07
3.61659e-07
3.65459e-07
3.69121e-07
3.72641e-07
3.76014e-07
3.79233e-07
3.82296e-07
3.85196e-07
3.8793e-07
3.90494e-07
3.92882e-07
3.95091e-07
3.97118e-07
3.98958e-07
4.00609e-07
4.02066e-07
4.03327e-07
4.04389e-07
4.05249e-07
4.05905e-07
4.06355e-07
4.06597e-07
4.0663e-07
4.06454e-07
4.06066e-07
4.05466e-07
4.04655e-07
4.03634e-07
4.02403e-07
4.00965e-07
3.99323e-07
3.97478e-07
3.95435e-07
3.93198e-07
3.90773e-07
3.88164e-07
3.8538e-07
3.82428e-07
3.79316e-07
3.76054e-07
3.72653e-07
3.69124e-07
3.65479e-07
3.61734e-07
3.57903e-07
3.54002e-07
3.50049e-07
3.46064e-07
3.42067e-07
3.38081e-07
3.3413e-07
3.30239e-07
3.26437e-07
3.22755e-07
3.19226e-07
3.15885e-07
3.12771e-07
3.0993e-07
3.07407e-07
3.05257e-07
3.03538e-07
3.0232e-07
3.01679e-07
3.01705e-07
3.02501e-07
3.04196e-07
3.06939e-07
3.10914e-07
3.16355e-07
3.23555e-07
3.32901e-07
3.44909e-07
3.60295e-07
3.8008e-07
4.05792e-07
4.3983e-07
4.86218e-07
5.52324e-07
6.5336e-07
8.26987e-07
1.19911e-06
2.53976e-06
1.70096e-06
8.03018e-07
5.53908e-07
4.3791e-07
3.70692e-07
3.27018e-07
2.9669e-07
2.74762e-07
2.5853e-07
2.46378e-07
2.37273e-07
2.30521e-07
2.25637e-07
2.22265e-07
2.20142e-07
2.19063e-07
2.1887e-07
2.19431e-07
2.20646e-07
2.22427e-07
2.24702e-07
2.27407e-07
2.30491e-07
2.33907e-07
2.37613e-07
2.41575e-07
2.4576e-07
2.50138e-07
2.54685e-07
2.59375e-07
2.64187e-07
2.691e-07
2.74097e-07
2.79161e-07
2.84274e-07