/*--------------------------------*- C++ -*----------------------------------*\
  =========                 |
  \\      /  F ield         | OpenFOAM: The Open Source CFD Toolbox
   \\    /   O peration     | Website:  https://openfoam.org
    \\  /    A nd           | Version:  12
     \\/     M anipulation  |
\*---------------------------------------------------------------------------*/
FoamFile
{
    format      ascii;
    class       volScalarField;
    location    "7.5";
    object      k;
}
// * * * * * * * * * * * * * * * * * * * * * * * * * * * * * * * * * * * * * //

dimensions      [0 2 -2 0 0 0 0];

internalField   nonuniform List<scalar> 
18225
(
2.04262e-12
1.54342e-11
3.27539e-11
5.3497e-11
7.6971e-11
1.02671e-10
1.30248e-10
1.59452e-10
1.90091e-10
2.22015e-10
2.55095e-10
2.89224e-10
3.24305e-10
3.60253e-10
3.96989e-10
4.34442e-10
4.72544e-10
5.11232e-10
5.50444e-10
5.90124e-10
6.30215e-10
6.70663e-10
7.11417e-10
7.52424e-10
7.93635e-10
8.35001e-10
8.76471e-10
9.18e-10
9.59539e-10
1.00104e-09
1.04246e-09
1.08375e-09
1.12487e-09
1.16577e-09
1.20641e-09
1.24673e-09
1.28671e-09
1.32629e-09
1.36543e-09
1.40409e-09
1.44222e-09
1.47979e-09
1.51675e-09
1.55306e-09
1.58868e-09
1.62357e-09
1.65769e-09
1.691e-09
1.72346e-09
1.75503e-09
1.78568e-09
1.81536e-09
1.84404e-09
1.87169e-09
1.89826e-09
1.92372e-09
1.94805e-09
1.9712e-09
1.99314e-09
2.01383e-09
2.03326e-09
2.05138e-09
2.06816e-09
2.08358e-09
2.09761e-09
2.11022e-09
2.12138e-09
2.13107e-09
2.13927e-09
2.14595e-09
2.15108e-09
2.15465e-09
2.15664e-09
2.15704e-09
2.15581e-09
2.15295e-09
2.14845e-09
2.1423e-09
2.13447e-09
2.12498e-09
2.1138e-09
2.10095e-09
2.08641e-09
2.07019e-09
2.05229e-09
2.03271e-09
2.01147e-09
1.98858e-09
1.96405e-09
1.9379e-09
1.91014e-09
1.88081e-09
1.84992e-09
1.8175e-09
1.78359e-09
1.74822e-09
1.71143e-09
1.67326e-09
1.63375e-09
1.59295e-09
1.55092e-09
1.50771e-09
1.46337e-09
1.41796e-09
1.37156e-09
1.32423e-09
1.27603e-09
1.22704e-09
1.17734e-09
1.12702e-09
1.07614e-09
1.0248e-09
9.73099e-10
9.21116e-10
8.68955e-10
8.16716e-10
7.64502e-10
7.12425e-10
6.60596e-10
6.09134e-10
5.58163e-10
5.07815e-10
4.58225e-10
4.09543e-10
3.61925e-10
3.15544e-10
2.70591e-10
2.27282e-10
1.85868e-10
1.46653e-10
1.10027e-10
7.65145e-11
4.68645e-11
2.20881e-11
2.92331e-12
1.38207e-11
1.23059e-10
2.80803e-10
4.70079e-10
6.83161e-10
9.15633e-10
1.16459e-09
1.42793e-09
1.70403e-09
1.99157e-09
2.28944e-09
2.59668e-09
2.91244e-09
3.23596e-09
3.56655e-09
3.90356e-09
4.24638e-09
4.59446e-09
4.94725e-09
5.30423e-09
5.6649e-09
6.02878e-09
6.39539e-09
6.76428e-09
7.135e-09
7.50711e-09
7.88015e-09
8.25372e-09
8.62738e-09
9.00071e-09
9.3733e-09
9.74474e-09
1.01146e-08
1.04825e-08
1.0848e-08
1.12108e-08
1.15704e-08
1.19264e-08
1.22785e-08
1.26263e-08
1.29693e-08
1.33073e-08
1.36397e-08
1.39664e-08
1.42868e-08
1.46007e-08
1.49076e-08
1.52073e-08
1.54993e-08
1.57833e-08
1.6059e-08
1.63261e-08
1.65841e-08
1.68329e-08
1.7072e-08
1.73011e-08
1.752e-08
1.77283e-08
1.79257e-08
1.81119e-08
1.82867e-08
1.84498e-08
1.86009e-08
1.87397e-08
1.8866e-08
1.89795e-08
1.908e-08
1.91672e-08
1.9241e-08
1.93012e-08
1.93474e-08
1.93796e-08
1.93976e-08
1.94011e-08
1.93902e-08
1.93645e-08
1.93241e-08
1.92688e-08
1.91985e-08
1.91131e-08
1.90126e-08
1.8897e-08
1.87663e-08
1.86204e-08
1.84595e-08
1.82834e-08
1.80924e-08
1.78865e-08
1.76659e-08
1.74307e-08
1.7181e-08
1.69172e-08
1.66393e-08
1.63477e-08
1.60427e-08
1.57245e-08
1.53935e-08
1.50501e-08
1.46947e-08
1.43277e-08
1.39495e-08
1.35608e-08
1.31619e-08
1.27534e-08
1.23359e-08
1.191e-08
1.14763e-08
1.10356e-08
1.05884e-08
1.01355e-08
9.67776e-09
9.21583e-09
8.75055e-09
8.28278e-09
7.81338e-09
7.34326e-09
6.87336e-09
6.40466e-09
5.93818e-09
5.47498e-09
5.01616e-09
4.56291e-09
4.11645e-09
3.67809e-09
3.24926e-09
2.83147e-09
2.42642e-09
2.03601e-09
1.66242e-09
1.30826e-09
9.76832e-10
6.72523e-10
4.01883e-10
1.76156e-10
1.9785e-11
3.0782e-11
2.76149e-10
6.34247e-10
1.06691e-09
1.55595e-09
2.09066e-09
2.66397e-09
3.27076e-09
3.90714e-09
4.56996e-09
5.25662e-09
5.96489e-09
6.69278e-09
7.43854e-09
8.20056e-09
8.97735e-09
9.76753e-09
1.05698e-08
1.13829e-08
1.22056e-08
1.30369e-08
1.38755e-08
1.47204e-08
1.55705e-08
1.64249e-08
1.72824e-08
1.81422e-08
1.90031e-08
1.98642e-08
2.07246e-08
2.15833e-08
2.24393e-08
2.32918e-08
2.41397e-08
2.49821e-08
2.58182e-08
2.6647e-08
2.74676e-08
2.82792e-08
2.90807e-08
2.98714e-08
3.06505e-08
3.14169e-08
3.21699e-08
3.29086e-08
3.36321e-08
3.43398e-08
3.50306e-08
3.57039e-08
3.63588e-08
3.69946e-08
3.76104e-08
3.82055e-08
3.87792e-08
3.93306e-08
3.98591e-08
4.0364e-08
4.08445e-08
4.13e-08
4.17298e-08
4.21332e-08
4.25096e-08
4.28583e-08
4.31788e-08
4.34705e-08
4.37327e-08
4.39649e-08
4.41667e-08
4.43374e-08
4.44767e-08
4.45839e-08
4.46588e-08
4.47009e-08
4.47099e-08
4.46853e-08
4.46269e-08
4.45344e-08
4.44076e-08
4.42461e-08
4.405e-08
4.38191e-08
4.35532e-08
4.32524e-08
4.29167e-08
4.25462e-08
4.21409e-08
4.1701e-08
4.12269e-08
4.07187e-08
4.01768e-08
3.96016e-08
3.89936e-08
3.83533e-08
3.76813e-08
3.69782e-08
3.62448e-08
3.54819e-08
3.46903e-08
3.38709e-08
3.30248e-08
3.21529e-08
3.12564e-08
3.03365e-08
2.93945e-08
2.84317e-08
2.74495e-08
2.64493e-08
2.54328e-08
2.44014e-08
2.33568e-08
2.23008e-08
2.12352e-08
2.01619e-08
1.90828e-08
1.79998e-08
1.69152e-08
1.5831e-08
1.47496e-08
1.36733e-08
1.26044e-08
1.15457e-08
1.04997e-08
9.46941e-09
8.45778e-09
7.46809e-09
6.5039e-09
5.56916e-09
4.66832e-09
3.80656e-09
2.99015e-09
2.22702e-09
1.5279e-09
9.08635e-10
3.95699e-10
4.41103e-11
5.10184e-11
4.58449e-10
1.05516e-09
1.7786e-09
2.59858e-09
3.49696e-09
4.46155e-09
5.48347e-09
6.55589e-09
7.67337e-09
8.83136e-09
1.0026e-08
1.12539e-08
1.2512e-08
1.37977e-08
1.51083e-08
1.64415e-08
1.77951e-08
1.91671e-08
2.05553e-08
2.19578e-08
2.33728e-08
2.47985e-08
2.6233e-08
2.76747e-08
2.91217e-08
3.05724e-08
3.20252e-08
3.34784e-08
3.49303e-08
3.63794e-08
3.7824e-08
3.92626e-08
4.06936e-08
4.21154e-08
4.35266e-08
4.49255e-08
4.63106e-08
4.76805e-08
4.90336e-08
5.03684e-08
5.16835e-08
5.29775e-08
5.42488e-08
5.54961e-08
5.67179e-08
5.79129e-08
5.90796e-08
6.02167e-08
6.13229e-08
6.23968e-08
6.34372e-08
6.44426e-08
6.54119e-08
6.63438e-08
6.7237e-08
6.80904e-08
6.89028e-08
6.9673e-08
7.03998e-08
7.10822e-08
7.1719e-08
7.23092e-08
7.28518e-08
7.33457e-08
7.379e-08
7.41838e-08
7.45261e-08
7.4816e-08
7.50529e-08
7.52358e-08
7.5364e-08
7.54369e-08
7.54538e-08
7.54143e-08
7.53175e-08
7.51631e-08
7.49508e-08
7.468e-08
7.43506e-08
7.39624e-08
7.35152e-08
7.30089e-08
7.24436e-08
7.18195e-08
7.11366e-08
7.03953e-08
6.9596e-08
6.8739e-08
6.78251e-08
6.68549e-08
6.58292e-08
6.47488e-08
6.36147e-08
6.24281e-08
6.11902e-08
5.99023e-08
5.85658e-08
5.71822e-08
5.57534e-08
5.4281e-08
5.27669e-08
5.12133e-08
4.96221e-08
4.79956e-08
4.63363e-08
4.46465e-08
4.2929e-08
4.11862e-08
3.94212e-08
3.76368e-08
3.58361e-08
3.40222e-08
3.21985e-08
3.03682e-08
2.85351e-08
2.67027e-08
2.48749e-08
2.30556e-08
2.1249e-08
1.94595e-08
1.76917e-08
1.59504e-08
1.42408e-08
1.25684e-08
1.09395e-08
9.36077e-09
7.83997e-09
6.38611e-09
5.0101e-09
3.72573e-09
2.5515e-09
1.51425e-09
6.58058e-10
7.32358e-11
7.36531e-11
6.62247e-10
1.52563e-09
2.57429e-09
3.76493e-09
5.07136e-09
6.47574e-09
7.96497e-09
9.52892e-09
1.11594e-08
1.28497e-08
1.45941e-08
1.63874e-08
1.82251e-08
2.01033e-08
2.20182e-08
2.39662e-08
2.59442e-08
2.7949e-08
2.99777e-08
3.20275e-08
3.40956e-08
3.61792e-08
3.82759e-08
4.03831e-08
4.24982e-08
4.46188e-08
4.67425e-08
4.88668e-08
5.09894e-08
5.31079e-08
5.522e-08
5.73234e-08
5.94158e-08
6.14948e-08
6.35584e-08
6.56041e-08
6.76298e-08
6.96334e-08
7.16125e-08
7.3565e-08
7.54889e-08
7.73819e-08
7.9242e-08
8.1067e-08
8.28549e-08
8.46037e-08
8.63114e-08
8.79759e-08
8.95953e-08
9.11676e-08
9.2691e-08
9.41635e-08
9.55832e-08
9.69484e-08
9.82572e-08
9.95079e-08
1.00699e-07
1.01828e-07
1.02894e-07
1.03895e-07
1.04829e-07
1.05696e-07
1.06493e-07
1.07219e-07
1.07872e-07
1.08451e-07
1.08956e-07
1.09384e-07
1.09734e-07
1.10005e-07
1.10196e-07
1.10307e-07
1.10335e-07
1.10281e-07
1.10144e-07
1.09921e-07
1.09614e-07
1.09222e-07
1.08744e-07
1.08179e-07
1.07528e-07
1.06791e-07
1.05967e-07
1.05057e-07
1.04061e-07
1.02979e-07
1.01812e-07
1.0056e-07
9.92254e-08
9.78078e-08
9.63088e-08
9.47295e-08
9.30716e-08
9.13364e-08
8.9526e-08
8.76421e-08
8.56869e-08
8.36627e-08
8.15719e-08
7.94171e-08
7.72012e-08
7.4927e-08
7.25977e-08
7.02165e-08
6.77871e-08
6.53129e-08
6.27978e-08
6.02457e-08
5.76608e-08
5.50474e-08
5.241e-08
4.97532e-08
4.70819e-08
4.4401e-08
4.17158e-08
3.90317e-08
3.63543e-08
3.36895e-08
3.10434e-08
2.84224e-08
2.58333e-08
2.32834e-08
2.07803e-08
1.83324e-08
1.59487e-08
1.36394e-08
1.1416e-08
9.29206e-09
7.28371e-09
5.41136e-09
3.7021e-09
2.19485e-09
9.52952e-10
1.0599e-10
9.81393e-11
8.82666e-10
2.0344e-09
3.43476e-09
5.02646e-09
6.77476e-09
8.65585e-09
1.06522e-08
1.275e-08
1.49382e-08
1.72077e-08
1.95505e-08
2.19598e-08
2.44293e-08
2.69536e-08
2.95276e-08
3.21465e-08
3.4806e-08
3.75018e-08
4.02299e-08
4.29865e-08
4.57679e-08
4.85705e-08
5.13908e-08
5.42253e-08
5.70707e-08
5.99236e-08
6.27808e-08
6.56391e-08
6.84952e-08
7.13459e-08
7.41883e-08
7.7019e-08
7.98352e-08
8.26336e-08
8.54114e-08
8.81653e-08
9.08926e-08
9.35902e-08
9.62552e-08
9.88846e-08
1.01476e-07
1.04025e-07
1.06531e-07
1.0899e-07
1.11399e-07
1.13756e-07
1.16057e-07
1.18301e-07
1.20484e-07
1.22604e-07
1.24658e-07
1.26644e-07
1.2856e-07
1.30402e-07
1.32168e-07
1.33857e-07
1.35465e-07
1.3699e-07
1.38431e-07
1.39784e-07
1.41048e-07
1.4222e-07
1.43299e-07
1.44283e-07
1.45169e-07
1.45955e-07
1.46641e-07
1.47223e-07
1.47701e-07
1.48073e-07
1.48338e-07
1.48493e-07
1.48538e-07
1.48472e-07
1.48293e-07
1.48001e-07
1.47594e-07
1.47071e-07
1.46433e-07
1.45679e-07
1.44808e-07
1.43821e-07
1.42717e-07
1.41496e-07
1.40159e-07
1.38707e-07
1.37139e-07
1.35458e-07
1.33663e-07
1.31757e-07
1.29741e-07
1.27616e-07
1.25385e-07
1.23049e-07
1.20612e-07
1.18075e-07
1.15442e-07
1.12715e-07
1.09898e-07
1.06995e-07
1.04009e-07
1.00944e-07
9.78041e-08
9.45942e-08
9.13189e-08
8.79829e-08
8.45915e-08
8.11501e-08
7.76642e-08
7.41396e-08
7.05825e-08
6.69991e-08
6.3396e-08
5.978e-08
5.61582e-08
5.25379e-08
4.89267e-08
4.53326e-08
4.1764e-08
3.82297e-08
3.47388e-08
3.13013e-08
2.79275e-08
2.4629e-08
2.14182e-08
1.83089e-08
1.53169e-08
1.24605e-08
9.76172e-09
7.24798e-09
4.95557e-09
2.93629e-09
1.27426e-09
1.41686e-10
1.24078e-10
1.11613e-09
2.57323e-09
4.34602e-09
6.36251e-09
8.57899e-09
1.09655e-08
1.34997e-08
1.61642e-08
1.89449e-08
2.183e-08
2.48093e-08
2.7874e-08
3.10162e-08
3.42287e-08
3.7505e-08
4.08391e-08
4.42252e-08
4.7658e-08
5.11323e-08
5.46433e-08
5.81862e-08
6.17563e-08
6.53493e-08
6.89607e-08
7.25863e-08
7.62217e-08
7.98629e-08
8.35057e-08
8.71461e-08
9.078e-08
9.44034e-08
9.80124e-08
1.01603e-07
1.05172e-07
1.08714e-07
1.12226e-07
1.15705e-07
1.19146e-07
1.22546e-07
1.25901e-07
1.29208e-07
1.32462e-07
1.3566e-07
1.38799e-07
1.41875e-07
1.44885e-07
1.47824e-07
1.50691e-07
1.5348e-07
1.56189e-07
1.58815e-07
1.61355e-07
1.63804e-07
1.66161e-07
1.68421e-07
1.70582e-07
1.72641e-07
1.74595e-07
1.76441e-07
1.78176e-07
1.79797e-07
1.81302e-07
1.82688e-07
1.83952e-07
1.85092e-07
1.86106e-07
1.86991e-07
1.87745e-07
1.88365e-07
1.8885e-07
1.89198e-07
1.89407e-07
1.89475e-07
1.89401e-07
1.89184e-07
1.88821e-07
1.88312e-07
1.87655e-07
1.86851e-07
1.85898e-07
1.84796e-07
1.83545e-07
1.82144e-07
1.80595e-07
1.78896e-07
1.7705e-07
1.75056e-07
1.72916e-07
1.70632e-07
1.68204e-07
1.65635e-07
1.62927e-07
1.60083e-07
1.57105e-07
1.53996e-07
1.5076e-07
1.474e-07
1.4392e-07
1.40324e-07
1.36617e-07
1.32803e-07
1.28889e-07
1.24878e-07
1.20778e-07
1.16593e-07
1.12331e-07
1.07997e-07
1.03599e-07
9.91436e-08
9.46388e-08
9.00921e-08
8.55117e-08
8.09061e-08
7.62839e-08
7.16542e-08
6.70267e-08
6.2411e-08
5.78175e-08
5.32569e-08
4.87407e-08
4.42806e-08
3.98895e-08
3.55809e-08
3.13695e-08
2.72714e-08
2.33045e-08
1.94891e-08
1.58485e-08
1.24109e-08
9.21129e-09
6.29546e-09
3.7289e-09
1.61777e-09
1.79854e-10
1.5115e-10
1.35979e-09
3.13553e-09
5.29694e-09
7.75668e-09
1.04618e-08
1.33758e-08
1.64718e-08
1.97284e-08
2.31284e-08
2.66573e-08
3.03026e-08
3.40534e-08
3.79e-08
4.18336e-08
4.58461e-08
4.99299e-08
5.40782e-08
5.82843e-08
6.25418e-08
6.68447e-08
7.11872e-08
7.55637e-08
7.99686e-08
8.43965e-08
8.88422e-08
9.33005e-08
9.77662e-08
1.02234e-07
1.067e-07
1.11158e-07
1.15604e-07
1.20033e-07
1.24439e-07
1.28819e-07
1.33167e-07
1.37479e-07
1.41751e-07
1.45977e-07
1.50152e-07
1.54273e-07
1.58336e-07
1.62334e-07
1.66265e-07
1.70123e-07
1.73904e-07
1.77605e-07
1.8122e-07
1.84746e-07
1.88178e-07
1.91512e-07
1.94745e-07
1.97871e-07
2.00889e-07
2.03792e-07
2.06578e-07
2.09243e-07
2.11783e-07
2.14194e-07
2.16473e-07
2.18616e-07
2.20621e-07
2.22482e-07
2.24198e-07
2.25765e-07
2.2718e-07
2.2844e-07
2.29542e-07
2.30483e-07
2.31261e-07
2.31872e-07
2.32315e-07
2.32587e-07
2.32687e-07
2.32612e-07
2.3236e-07
2.31929e-07
2.31319e-07
2.30527e-07
2.29554e-07
2.28397e-07
2.27057e-07
2.25533e-07
2.23825e-07
2.21933e-07
2.19857e-07
2.17599e-07
2.1516e-07
2.1254e-07
2.09741e-07
2.06766e-07
2.03617e-07
2.00295e-07
1.96805e-07
1.9315e-07
1.89333e-07
1.85358e-07
1.81231e-07
1.76955e-07
1.72535e-07
1.67979e-07
1.6329e-07
1.58477e-07
1.53545e-07
1.48501e-07
1.43353e-07
1.38109e-07
1.32776e-07
1.27364e-07
1.21881e-07
1.16337e-07
1.10741e-07
1.05104e-07
9.94351e-08
9.3746e-08
8.80478e-08
8.23523e-08
7.66718e-08
7.1019e-08
6.54073e-08
5.98507e-08
5.43642e-08
4.89635e-08
4.36654e-08
3.84883e-08
3.34519e-08
2.85785e-08
2.38931e-08
1.94244e-08
1.52069e-08
1.12832e-08
7.70952e-09
4.56542e-09
1.98034e-09
2.20142e-10
1.79087e-10
1.61122e-09
3.71575e-09
6.27811e-09
9.19517e-09
1.24044e-08
1.58629e-08
1.95387e-08
2.34066e-08
2.74462e-08
3.16402e-08
3.59738e-08
4.04341e-08
4.50093e-08
4.9689e-08
5.44635e-08
5.93238e-08
6.42615e-08
6.92688e-08
7.43381e-08
7.94621e-08
8.4634e-08
8.98469e-08
9.50944e-08
1.0037e-07
1.05667e-07
1.1098e-07
1.16303e-07
1.21629e-07
1.26952e-07
1.32268e-07
1.37569e-07
1.42851e-07
1.48107e-07
1.53331e-07
1.58519e-07
1.63665e-07
1.68762e-07
1.73806e-07
1.78791e-07
1.83712e-07
1.88563e-07
1.93339e-07
1.98035e-07
2.02645e-07
2.07165e-07
2.11589e-07
2.15911e-07
2.20128e-07
2.24234e-07
2.28225e-07
2.32094e-07
2.35839e-07
2.39453e-07
2.42932e-07
2.46272e-07
2.49468e-07
2.52516e-07
2.55411e-07
2.58149e-07
2.60725e-07
2.63136e-07
2.65378e-07
2.67446e-07
2.69336e-07
2.71046e-07
2.72571e-07
2.73908e-07
2.75052e-07
2.76002e-07
2.76754e-07
2.77305e-07
2.77652e-07
2.77793e-07
2.77725e-07
2.77446e-07
2.76953e-07
2.76245e-07
2.7532e-07
2.74177e-07
2.72816e-07
2.71234e-07
2.69432e-07
2.6741e-07
2.65167e-07
2.62704e-07
2.60022e-07
2.57122e-07
2.54006e-07
2.50675e-07
2.47132e-07
2.43379e-07
2.3942e-07
2.35258e-07
2.30897e-07
2.26342e-07
2.21598e-07
2.16669e-07
2.11561e-07
2.06282e-07
2.00836e-07
1.95233e-07
1.89478e-07
1.83581e-07
1.77549e-07
1.71392e-07
1.65119e-07
1.58739e-07
1.52264e-07
1.45704e-07
1.3907e-07
1.32373e-07
1.25627e-07
1.18843e-07
1.12034e-07
1.05215e-07
9.83994e-08
9.1602e-08
8.48383e-08
7.81245e-08
7.14775e-08
6.49153e-08
5.84568e-08
5.21224e-08
4.5934e-08
3.99155e-08
3.40936e-08
2.8498e-08
2.31631e-08
1.81301e-08
1.34495e-08
9.18798e-09
5.44009e-09
2.35946e-09
2.6227e-10
2.07655e-10
1.86832e-09
4.30902e-09
7.28131e-09
1.06659e-08
1.43906e-08
1.84058e-08
2.26744e-08
2.71676e-08
3.18614e-08
3.67361e-08
4.17743e-08
4.69608e-08
5.22823e-08
5.77263e-08
6.32817e-08
6.8938e-08
7.46853e-08
8.05145e-08
8.64168e-08
9.23838e-08
9.84073e-08
1.04479e-07
1.10593e-07
1.16739e-07
1.22912e-07
1.29104e-07
1.35308e-07
1.41517e-07
1.47724e-07
1.53922e-07
1.60105e-07
1.66266e-07
1.72398e-07
1.78494e-07
1.84548e-07
1.90554e-07
1.96505e-07
2.02394e-07
2.08216e-07
2.13964e-07
2.19632e-07
2.25213e-07
2.30701e-07
2.36091e-07
2.41376e-07
2.46551e-07
2.51609e-07
2.56544e-07
2.61351e-07
2.66025e-07
2.70558e-07
2.74946e-07
2.79183e-07
2.83264e-07
2.87184e-07
2.90936e-07
2.94516e-07
2.97919e-07
3.01139e-07
3.04172e-07
3.07012e-07
3.09655e-07
3.12097e-07
3.14332e-07
3.16356e-07
3.18165e-07
3.19754e-07
3.2112e-07
3.22259e-07
3.23166e-07
3.23839e-07
3.24273e-07
3.24466e-07
3.24416e-07
3.24119e-07
3.23572e-07
3.22773e-07
3.2172e-07
3.20412e-07
3.18847e-07
3.17024e-07
3.14943e-07
3.12604e-07
3.10005e-07
3.07149e-07
3.04035e-07
3.00664e-07
2.9704e-07
2.93163e-07
2.89037e-07
2.84664e-07
2.80049e-07
2.75194e-07
2.70106e-07
2.64788e-07
2.59248e-07
2.5349e-07
2.47522e-07
2.41351e-07
2.34985e-07
2.28432e-07
2.21701e-07
2.14801e-07
2.07744e-07
2.00538e-07
1.93196e-07
1.85728e-07
1.78147e-07
1.70466e-07
1.62698e-07
1.54857e-07
1.46956e-07
1.39012e-07
1.31039e-07
1.23054e-07
1.15073e-07
1.07113e-07
9.91943e-08
9.13343e-08
8.35534e-08
7.58728e-08
6.83148e-08
6.09034e-08
5.36644e-08
4.66259e-08
3.98188e-08
3.32781e-08
2.70441e-08
2.11644e-08
1.56982e-08
1.07227e-08
6.34809e-09
2.75305e-09
3.06007e-10
2.36644e-10
2.1292e-09
4.91101e-09
8.29923e-09
1.21582e-08
1.64058e-08
2.09858e-08
2.5856e-08
3.09836e-08
3.63415e-08
4.1907e-08
4.76605e-08
5.35847e-08
5.96642e-08
6.58849e-08
7.2234e-08
7.86994e-08
8.52702e-08
9.19356e-08
9.86856e-08
1.05511e-07
1.12401e-07
1.19349e-07
1.26344e-07
1.33379e-07
1.40444e-07
1.47533e-07
1.54637e-07
1.61747e-07
1.68856e-07
1.75956e-07
1.8304e-07
1.90099e-07
1.97127e-07
2.04115e-07
2.11057e-07
2.17944e-07
2.24769e-07
2.31526e-07
2.38206e-07
2.44803e-07
2.51309e-07
2.57718e-07
2.64022e-07
2.70214e-07
2.76288e-07
2.82236e-07
2.88052e-07
2.9373e-07
2.99261e-07
3.0464e-07
3.09861e-07
3.14916e-07
3.198e-07
3.24506e-07
3.29027e-07
3.33359e-07
3.37494e-07
3.41427e-07
3.45152e-07
3.48663e-07
3.51954e-07
3.5502e-07
3.57856e-07
3.60455e-07
3.62813e-07
3.64925e-07
3.66786e-07
3.6839e-07
3.69734e-07
3.70814e-07
3.71623e-07
3.7216e-07
3.7242e-07
3.72399e-07
3.72096e-07
3.71504e-07
3.70623e-07
3.6945e-07
3.67983e-07
3.6622e-07
3.6416e-07
3.61803e-07
3.59146e-07
3.56192e-07
3.52939e-07
3.49389e-07
3.45543e-07
3.41404e-07
3.36972e-07
3.32252e-07
3.27247e-07
3.21961e-07
3.16399e-07
3.10565e-07
3.04467e-07
2.9811e-07
2.91501e-07
2.84648e-07
2.77561e-07
2.70246e-07
2.62716e-07
2.54979e-07
2.47047e-07
2.38931e-07
2.30643e-07
2.22197e-07
2.13606e-07
2.04883e-07
1.96045e-07
1.87105e-07
1.7808e-07
1.68988e-07
1.59844e-07
1.50667e-07
1.41477e-07
1.32291e-07
1.23131e-07
1.14018e-07
1.04973e-07
9.60208e-08
8.71848e-08
7.84912e-08
6.99675e-08
6.16436e-08
5.35518e-08
4.57278e-08
3.82117e-08
3.10496e-08
2.42962e-08
1.80191e-08
1.23068e-08
7.28528e-09
3.1593e-09
3.51153e-10
2.65866e-10
2.39218e-09
5.5178e-09
9.32522e-09
1.36623e-08
1.84369e-08
2.35861e-08
2.90626e-08
3.48297e-08
4.08569e-08
4.7119e-08
5.35937e-08
6.02618e-08
6.71059e-08
7.41101e-08
8.12602e-08
8.85425e-08
9.59446e-08
1.03455e-07
1.11061e-07
1.18753e-07
1.2652e-07
1.34353e-07
1.42241e-07
1.50174e-07
1.58144e-07
1.66141e-07
1.74156e-07
1.82179e-07
1.90203e-07
1.98219e-07
2.06217e-07
2.14189e-07
2.22127e-07
2.30022e-07
2.37865e-07
2.45649e-07
2.53365e-07
2.61005e-07
2.68561e-07
2.76024e-07
2.83386e-07
2.9064e-07
2.97778e-07
3.04791e-07
3.11672e-07
3.18413e-07
3.25006e-07
3.31445e-07
3.3772e-07
3.43826e-07
3.49754e-07
3.55497e-07
3.61048e-07
3.66399e-07
3.71544e-07
3.76476e-07
3.81187e-07
3.85671e-07
3.89922e-07
3.93932e-07
3.97695e-07
4.01204e-07
4.04454e-07
4.07438e-07
4.1015e-07
4.12584e-07
4.14735e-07
4.16597e-07
4.18165e-07
4.19433e-07
4.20397e-07
4.21052e-07
4.21393e-07
4.21416e-07
4.2112e-07
4.20497e-07
4.19545e-07
4.18262e-07
4.16646e-07
4.14693e-07
4.12403e-07
4.09774e-07
4.06806e-07
4.03498e-07
3.99851e-07
3.95865e-07
3.91542e-07
3.86884e-07
3.81893e-07
3.76573e-07
3.70928e-07
3.64962e-07
3.58681e-07
3.5209e-07
3.45196e-07
3.38006e-07
3.30529e-07
3.22773e-07
3.14748e-07
3.06465e-07
2.97933e-07
2.89166e-07
2.80175e-07
2.70974e-07
2.61576e-07
2.51997e-07
2.42252e-07
2.32358e-07
2.2233e-07
2.12186e-07
2.01946e-07
1.91628e-07
1.81251e-07
1.70837e-07
1.60407e-07
1.49983e-07
1.39589e-07
1.29248e-07
1.18986e-07
1.08829e-07
9.88057e-08
8.8945e-08
7.92785e-08
6.98399e-08
6.06661e-08
5.17973e-08
4.32792e-08
3.51638e-08
2.7513e-08
2.04031e-08
1.3934e-08
8.24801e-09
3.57663e-09
3.9753e-10
2.95149e-10
2.65569e-09
6.12583e-09
1.03533e-08
1.51693e-08
2.0472e-08
2.61914e-08
3.22754e-08
3.86831e-08
4.53811e-08
5.2341e-08
5.95385e-08
6.69522e-08
7.45627e-08
8.23527e-08
9.0306e-08
9.84078e-08
1.06644e-07
1.15002e-07
1.23468e-07
1.32031e-07
1.40679e-07
1.49401e-07
1.58186e-07
1.67023e-07
1.75902e-07
1.84813e-07
1.93745e-07
2.02689e-07
2.11635e-07
2.20573e-07
2.29494e-07
2.38387e-07
2.47244e-07
2.56055e-07
2.64811e-07
2.73502e-07
2.82119e-07
2.90654e-07
2.99096e-07
3.07438e-07
3.15669e-07
3.23782e-07
3.31767e-07
3.39615e-07
3.47318e-07
3.54868e-07
3.62255e-07
3.69471e-07
3.76507e-07
3.83356e-07
3.90009e-07
3.96457e-07
4.02694e-07
4.08709e-07
4.14497e-07
4.20048e-07
4.25355e-07
4.3041e-07
4.35206e-07
4.39735e-07
4.4399e-07
4.47963e-07
4.51647e-07
4.55035e-07
4.58121e-07
4.60898e-07
4.63359e-07
4.65497e-07
4.67307e-07
4.68783e-07
4.69919e-07
4.70709e-07
4.71149e-07
4.71233e-07
4.70959e-07
4.7032e-07
4.69311e-07
4.67931e-07
4.66177e-07
4.64045e-07
4.61535e-07
4.58644e-07
4.55371e-07
4.51716e-07
4.47679e-07
4.4326e-07
4.38462e-07
4.33287e-07
4.27736e-07
4.21814e-07
4.15525e-07
4.08874e-07
4.01867e-07
3.9451e-07
3.8681e-07
3.78777e-07
3.70419e-07
3.61745e-07
3.52768e-07
3.43497e-07
3.33947e-07
3.24129e-07
3.14059e-07
3.03751e-07
2.9322e-07
2.82484e-07
2.71561e-07
2.60467e-07
2.49224e-07
2.37849e-07
2.26365e-07
2.14793e-07
2.03155e-07
1.91475e-07
1.79777e-07
1.68085e-07
1.56428e-07
1.4483e-07
1.33322e-07
1.21933e-07
1.10695e-07
9.96397e-08
8.88038e-08
7.82248e-08
6.79439e-08
5.80065e-08
4.84633e-08
3.93727e-08
3.08039e-08
2.2842e-08
1.55987e-08
9.23295e-09
4.0036e-09
4.44978e-10
3.24336e-10
2.91834e-09
6.73185e-09
1.13779e-08
1.66713e-08
2.25002e-08
2.87879e-08
3.54772e-08
4.25233e-08
4.98896e-08
5.7545e-08
6.5463e-08
7.36198e-08
8.19945e-08
9.05678e-08
9.93222e-08
1.08241e-07
1.1731e-07
1.26513e-07
1.35838e-07
1.4527e-07
1.54798e-07
1.64408e-07
1.7409e-07
1.83831e-07
1.9362e-07
2.03445e-07
2.13296e-07
2.23162e-07
2.33032e-07
2.42895e-07
2.52741e-07
2.62559e-07
2.72339e-07
2.8207e-07
2.91743e-07
3.01347e-07
3.10872e-07
3.20308e-07
3.29645e-07
3.38873e-07
3.47982e-07
3.56963e-07
3.65805e-07
3.74499e-07
3.83036e-07
3.91405e-07
3.99598e-07
4.07605e-07
4.15416e-07
4.23023e-07
4.30415e-07
4.37585e-07
4.44523e-07
4.5122e-07
4.57666e-07
4.63855e-07
4.69775e-07
4.7542e-07
4.8078e-07
4.85847e-07
4.90613e-07
4.95069e-07
4.99208e-07
5.03021e-07
5.06501e-07
5.0964e-07
5.1243e-07
5.14865e-07
5.16938e-07
5.18641e-07
5.19968e-07
5.20912e-07
5.21469e-07
5.21632e-07
5.21397e-07
5.20759e-07
5.1971e-07
5.18248e-07
5.16371e-07
5.14074e-07
5.11355e-07
5.08213e-07
5.04646e-07
5.00653e-07
4.96235e-07
4.91391e-07
4.86123e-07
4.80434e-07
4.74327e-07
4.67804e-07
4.60871e-07
4.53534e-07
4.45798e-07
4.3767e-07
4.2916e-07
4.20276e-07
4.11028e-07
4.01427e-07
3.91485e-07
3.81215e-07
3.70632e-07
3.59748e-07
3.48582e-07
3.37149e-07
3.25467e-07
3.13555e-07
3.01432e-07
2.89119e-07
2.76637e-07
2.64009e-07
2.51258e-07
2.38408e-07
2.25485e-07
2.12514e-07
1.99523e-07
1.86539e-07
1.73594e-07
1.60715e-07
1.47937e-07
1.35292e-07
1.22814e-07
1.10542e-07
9.85137e-08
8.67721e-08
7.53627e-08
6.43358e-08
5.37478e-08
4.36632e-08
3.41586e-08
2.53282e-08
1.72957e-08
1.0237e-08
4.43887e-09
4.9335e-10
3.53286e-10
3.17886e-09
7.33294e-09
1.23942e-08
1.8161e-08
2.45117e-08
3.13629e-08
3.86524e-08
4.63316e-08
5.43606e-08
6.27057e-08
7.1338e-08
8.02319e-08
8.93644e-08
9.87148e-08
1.08264e-07
1.17994e-07
1.27889e-07
1.37932e-07
1.48109e-07
1.58405e-07
1.68806e-07
1.793e-07
1.89874e-07
2.00513e-07
2.11207e-07
2.21943e-07
2.32709e-07
2.43494e-07
2.54284e-07
2.6507e-07
2.75839e-07
2.86581e-07
2.97283e-07
3.07935e-07
3.18525e-07
3.29043e-07
3.39478e-07
3.49817e-07
3.60052e-07
3.70171e-07
3.80162e-07
3.90016e-07
3.99722e-07
4.09269e-07
4.18647e-07
4.27845e-07
4.36853e-07
4.45661e-07
4.54258e-07
4.62634e-07
4.70779e-07
4.78683e-07
4.86337e-07
4.93729e-07
5.00851e-07
5.07692e-07
5.14243e-07
5.20494e-07
5.26437e-07
5.3206e-07
5.37356e-07
5.42315e-07
5.46927e-07
5.51185e-07
5.55079e-07
5.586e-07
5.61741e-07
5.64493e-07
5.66849e-07
5.68799e-07
5.70338e-07
5.71457e-07
5.72151e-07
5.72412e-07
5.72236e-07
5.71616e-07
5.70545e-07
5.69019e-07
5.67035e-07
5.64589e-07
5.61678e-07
5.58299e-07
5.54451e-07
5.50133e-07
5.45344e-07
5.40084e-07
5.34356e-07
5.28161e-07
5.21503e-07
5.14385e-07
5.06812e-07
4.9879e-07
4.90326e-07
4.81428e-07
4.72104e-07
4.62366e-07
4.52223e-07
4.41689e-07
4.30775e-07
4.19498e-07
4.07871e-07
3.95911e-07
3.83636e-07
3.71065e-07
3.58217e-07
3.45113e-07
3.31774e-07
3.18224e-07
3.04486e-07
2.90586e-07
2.76549e-07
2.62402e-07
2.48173e-07
2.33891e-07
2.19587e-07
2.05291e-07
1.91037e-07
1.76857e-07
1.62788e-07
1.48866e-07
1.35129e-07
1.2162e-07
1.0838e-07
9.54574e-08
8.29013e-08
7.07675e-08
5.91178e-08
4.80231e-08
3.75676e-08
2.78547e-08
1.90202e-08
1.12574e-08
4.88121e-09
5.42507e-10
3.81873e-10
3.43611e-09
7.92647e-09
1.33977e-08
1.96319e-08
2.64977e-08
3.39051e-08
4.17871e-08
5.00912e-08
5.87743e-08
6.78002e-08
7.71377e-08
8.67591e-08
9.66399e-08
1.06757e-07
1.17091e-07
1.27623e-07
1.38333e-07
1.49206e-07
1.60225e-07
1.71375e-07
1.82641e-07
1.94008e-07
2.05464e-07
2.16993e-07
2.28584e-07
2.40222e-07
2.51895e-07
2.63589e-07
2.75294e-07
2.86996e-07
2.98682e-07
3.10341e-07
3.21961e-07
3.33528e-07
3.45033e-07
3.56462e-07
3.67803e-07
3.79046e-07
3.90177e-07
4.01186e-07
4.12061e-07
4.22791e-07
4.33363e-07
4.43766e-07
4.5399e-07
4.64022e-07
4.73852e-07
4.83468e-07
4.92859e-07
5.02013e-07
5.10921e-07
5.19571e-07
5.27951e-07
5.36052e-07
5.43862e-07
5.51371e-07
5.58568e-07
5.65442e-07
5.71983e-07
5.7818e-07
5.84024e-07
5.89504e-07
5.9461e-07
5.99331e-07
6.0366e-07
6.07584e-07
6.11097e-07
6.14187e-07
6.16846e-07
6.19066e-07
6.20837e-07
6.22153e-07
6.23004e-07
6.23384e-07
6.23287e-07
6.22708e-07
6.21634e-07
6.20064e-07
6.17992e-07
6.15415e-07
6.12328e-07
6.0873e-07
6.04616e-07
5.99987e-07
5.94841e-07
5.89179e-07
5.83002e-07
5.76312e-07
5.69112e-07
5.61406e-07
5.532e-07
5.44499e-07
5.35312e-07
5.25646e-07
5.15511e-07
5.04919e-07
4.93881e-07
4.8241e-07
4.70522e-07
4.58231e-07
4.45554e-07
4.32511e-07
4.19119e-07
4.054e-07
3.91375e-07
3.77068e-07
3.62501e-07
3.47701e-07
3.32694e-07
3.17507e-07
3.02168e-07
2.86708e-07
2.71158e-07
2.55549e-07
2.39915e-07
2.2429e-07
2.08709e-07
1.93211e-07
1.77834e-07
1.62619e-07
1.47607e-07
1.32844e-07
1.18377e-07
1.04258e-07
9.05398e-08
7.72843e-08
6.45589e-08
5.24409e-08
4.10219e-08
3.04148e-08
2.07677e-08
1.22914e-08
5.32945e-09
5.9232e-10
4.09985e-10
3.68908e-09
8.51011e-09
1.43844e-08
2.10781e-08
2.84504e-08
3.64047e-08
4.48691e-08
5.37873e-08
6.31134e-08
7.28084e-08
8.28389e-08
9.31755e-08
1.03792e-07
1.14664e-07
1.25769e-07
1.37088e-07
1.486e-07
1.60289e-07
1.72137e-07
1.84127e-07
1.96244e-07
2.08472e-07
2.20796e-07
2.33202e-07
2.45676e-07
2.58204e-07
2.70771e-07
2.83365e-07
2.95972e-07
3.08579e-07
3.21172e-07
3.33739e-07
3.46267e-07
3.58743e-07
3.71153e-07
3.83486e-07
3.95729e-07
4.07868e-07
4.19892e-07
4.31788e-07
4.43544e-07
4.55147e-07
4.66585e-07
4.77845e-07
4.88916e-07
4.99785e-07
5.10439e-07
5.20868e-07
5.31058e-07
5.40998e-07
5.50676e-07
5.6008e-07
5.69198e-07
5.78018e-07
5.86528e-07
5.94717e-07
6.02573e-07
6.10085e-07
6.1724e-07
6.24028e-07
6.30437e-07
6.36456e-07
6.42074e-07
6.47279e-07
6.52061e-07
6.5641e-07
6.60314e-07
6.63764e-07
6.66749e-07
6.69259e-07
6.71286e-07
6.72819e-07
6.73851e-07
6.74373e-07
6.74376e-07
6.73859e-07
6.72804e-07
6.71211e-07
6.69072e-07
6.66384e-07
6.63142e-07
6.59342e-07
6.54981e-07
6.50059e-07
6.44573e-07
6.38523e-07
6.31912e-07
6.2474e-07
6.1701e-07
6.08728e-07
5.99898e-07
5.90528e-07
5.80624e-07
5.70196e-07
5.59255e-07
5.47813e-07
5.35881e-07
5.23476e-07
5.10612e-07
4.97307e-07
4.83579e-07
4.69448e-07
4.54934e-07
4.40062e-07
4.24854e-07
4.09335e-07
3.93532e-07
3.77472e-07
3.61185e-07
3.447e-07
3.28049e-07
3.11264e-07
2.9438e-07
2.77431e-07
2.60454e-07
2.43486e-07
2.26567e-07
2.09737e-07
1.93039e-07
1.76517e-07
1.60217e-07
1.44187e-07
1.2848e-07
1.13151e-07
9.82588e-08
8.387e-08
7.00576e-08
5.69054e-08
4.45127e-08
3.30021e-08
2.25337e-08
1.33363e-08
5.78244e-09
6.42662e-10
4.37525e-10
3.93689e-09
9.08185e-09
1.53509e-08
2.24948e-08
3.03631e-08
3.88528e-08
4.78875e-08
5.74071e-08
6.73626e-08
7.77127e-08
8.84218e-08
9.94585e-08
1.10795e-07
1.22405e-07
1.34266e-07
1.46356e-07
1.58654e-07
1.71143e-07
1.83802e-07
1.96616e-07
2.09566e-07
2.22638e-07
2.35814e-07
2.49081e-07
2.62422e-07
2.75823e-07
2.89269e-07
3.02747e-07
3.16241e-07
3.29739e-07
3.43225e-07
3.56687e-07
3.7011e-07
3.83481e-07
3.96786e-07
4.10013e-07
4.23146e-07
4.36174e-07
4.49083e-07
4.61859e-07
4.7449e-07
4.86961e-07
4.9926e-07
5.11375e-07
5.23291e-07
5.34995e-07
5.46476e-07
5.57719e-07
5.68711e-07
5.79441e-07
5.89894e-07
6.00059e-07
6.09921e-07
6.19469e-07
6.2869e-07
6.3757e-07
6.46098e-07
6.5426e-07
6.62044e-07
6.69438e-07
6.76428e-07
6.83003e-07
6.89151e-07
6.94859e-07
7.00115e-07
7.04907e-07
7.09224e-07
7.13055e-07
7.16387e-07
7.19211e-07
7.21516e-07
7.2329e-07
7.24525e-07
7.25211e-07
7.25339e-07
7.24905e-07
7.23894e-07
7.22299e-07
7.20116e-07
7.17339e-07
7.13962e-07
7.09982e-07
7.05394e-07
7.00198e-07
6.9439e-07
6.87971e-07
6.80942e-07
6.73304e-07
6.6506e-07
6.56215e-07
6.46775e-07
6.36746e-07
6.26136e-07
6.14956e-07
6.03217e-07
5.90931e-07
5.78112e-07
5.64776e-07
5.5094e-07
5.36623e-07
5.21844e-07
5.06625e-07
4.90989e-07
4.74961e-07
4.58566e-07
4.41831e-07
4.24787e-07
4.07462e-07
3.89888e-07
3.72098e-07
3.54126e-07
3.36009e-07
3.17782e-07
2.99483e-07
2.81154e-07
2.62834e-07
2.44566e-07
2.26394e-07
2.08365e-07
1.90526e-07
1.72927e-07
1.55621e-07
1.38664e-07
1.22115e-07
1.0604e-07
9.05088e-08
7.56006e-08
6.14059e-08
4.80318e-08
3.56102e-08
2.43141e-08
1.43898e-08
6.23911e-09
6.93412e-10
4.64411e-10
4.17883e-09
9.64e-09
1.62945e-08
2.38777e-08
3.223e-08
4.12423e-08
5.08335e-08
6.09398e-08
7.15094e-08
8.24986e-08
9.38695e-08
1.05589e-07
1.17628e-07
1.29958e-07
1.42556e-07
1.55398e-07
1.68464e-07
1.81732e-07
1.95184e-07
2.08801e-07
2.22565e-07
2.36461e-07
2.5047e-07
2.64577e-07
2.78766e-07
2.93021e-07
3.07327e-07
3.2167e-07
3.36034e-07
3.50404e-07
3.64766e-07
3.79106e-07
3.93408e-07
4.07659e-07
4.21845e-07