/*--------------------------------*- C++ -*----------------------------------*\
  =========                 |
  \\      /  F ield         | OpenFOAM: The Open Source CFD Toolbox
   \\    /   O peration     | Website:  https://openfoam.org
    \\  /    A nd           | Version:  12
     \\/     M anipulation  |
\*---------------------------------------------------------------------------*/
FoamFile
{
    format      ascii;
    class       volVectorField;
    location    "7.5";
    object      U;
}
// * * * * * * * * * * * * * * * * * * * * * * * * * * * * * * * * * * * * * //

dimensions      [0 1 -1 0 0 0 0];

internalField   nonuniform List<vector> 
18225
(
(-1.26129e-07 1.85662e-07 0)
(-7.97552e-07 4.96402e-07 0)
(-1.858e-06 6.99953e-07 0)
(-3.17183e-06 7.958e-07 0)
(-4.53005e-06 8.12454e-07 0)
(-5.77189e-06 7.71921e-07 0)
(-6.78174e-06 6.90772e-07 0)
(-7.47356e-06 5.82027e-07 0)
(-7.78353e-06 4.55524e-07 0)
(-7.66581e-06 3.18388e-07 0)
(-7.08898e-06 1.75648e-07 0)
(-6.03291e-06 3.08943e-08 0)
(-4.48633e-06 -1.13353e-07 0)
(-2.44497e-06 -2.55323e-07 0)
(8.97681e-08 -3.93778e-07 0)
(3.112e-06 -5.27843e-07 0)
(6.61216e-06 -6.56898e-07 0)
(1.05777e-05 -7.80495e-07 0)
(1.49935e-05 -8.98313e-07 0)
(1.98425e-05 -1.01011e-06 0)
(2.51058e-05 -1.11573e-06 0)
(3.07632e-05 -1.21502e-06 0)
(3.6793e-05 -1.30789e-06 0)
(4.31728e-05 -1.39427e-06 0)
(4.9879e-05 -1.47412e-06 0)
(5.68876e-05 -1.5474e-06 0)
(6.41736e-05 -1.61409e-06 0)
(7.1712e-05 -1.67418e-06 0)
(7.94771e-05 -1.7277e-06 0)
(8.7443e-05 -1.77467e-06 0)
(9.55837e-05 -1.81511e-06 0)
(0.000103873 -1.84908e-06 0)
(0.000112285 -1.87664e-06 0)
(0.000120793 -1.89787e-06 0)
(0.000129372 -1.91286e-06 0)
(0.000137995 -1.92169e-06 0)
(0.000146638 -1.92449e-06 0)
(0.000155275 -1.92138e-06 0)
(0.000163881 -1.91248e-06 0)
(0.000172433 -1.89796e-06 0)
(0.000180906 -1.87795e-06 0)
(0.000189278 -1.85263e-06 0)
(0.000197526 -1.82218e-06 0)
(0.000205628 -1.78677e-06 0)
(0.000213563 -1.7466e-06 0)
(0.000221311 -1.70186e-06 0)
(0.000228852 -1.65277e-06 0)
(0.000236168 -1.59954e-06 0)
(0.000243241 -1.54237e-06 0)
(0.000250053 -1.48151e-06 0)
(0.000256589 -1.41717e-06 0)
(0.000262834 -1.34957e-06 0)
(0.000268773 -1.27896e-06 0)
(0.000274393 -1.20557e-06 0)
(0.000279682 -1.12963e-06 0)
(0.000284628 -1.05137e-06 0)
(0.000289223 -9.71029e-07 0)
(0.000293455 -8.88836e-07 0)
(0.000297316 -8.05021e-07 0)
(0.000300801 -7.19812e-07 0)
(0.000303901 -6.33431e-07 0)
(0.000306612 -5.461e-07 0)
(0.000308928 -4.58034e-07 0)
(0.000310848 -3.69445e-07 0)
(0.000312368 -2.8054e-07 0)
(0.000313486 -1.9152e-07 0)
(0.000314202 -1.02581e-07 0)
(0.000314515 -1.39109e-08 0)
(0.000314428 7.4278e-08 0)
(0.000313941 1.61847e-07 0)
(0.000313057 2.48625e-07 0)
(0.000311779 3.34425e-07 0)
(0.000310113 4.19088e-07 0)
(0.000308062 5.02461e-07 0)
(0.000305633 5.84399e-07 0)
(0.000302832 6.64759e-07 0)
(0.000299666 7.43403e-07 0)
(0.000296142 8.20199e-07 0)
(0.00029227 8.9502e-07 0)
(0.000288058 9.67742e-07 0)
(0.000283516 1.03825e-06 0)
(0.000278654 1.10642e-06 0)
(0.000273483 1.17215e-06 0)
(0.000268014 1.23532e-06 0)
(0.00026226 1.29583e-06 0)
(0.000256233 1.35357e-06 0)
(0.000249945 1.40845e-06 0)
(0.000243411 1.46035e-06 0)
(0.000236644 1.50917e-06 0)
(0.00022966 1.55481e-06 0)
(0.000222472 1.59717e-06 0)
(0.000215098 1.63613e-06 0)
(0.000207552 1.67159e-06 0)
(0.000199851 1.70344e-06 0)
(0.000192013 1.73156e-06 0)
(0.000184055 1.75584e-06 0)
(0.000175995 1.77615e-06 0)
(0.000167851 1.79236e-06 0)
(0.000159643 1.80435e-06 0)
(0.000151391 1.81196e-06 0)
(0.000143114 1.81506e-06 0)
(0.000134832 1.8135e-06 0)
(0.000126568 1.8071e-06 0)
(0.000118342 1.79572e-06 0)
(0.000110177 1.77917e-06 0)
(0.000102095 1.75727e-06 0)
(9.41191e-05 1.72982e-06 0)
(8.62734e-05 1.69664e-06 0)
(7.85816e-05 1.65751e-06 0)
(7.10682e-05 1.61222e-06 0)
(6.37579e-05 1.56055e-06 0)
(5.66759e-05 1.50226e-06 0)
(4.98478e-05 1.43712e-06 0)
(4.32991e-05 1.3649e-06 0)
(3.70556e-05 1.28535e-06 0)
(3.11431e-05 1.19824e-06 0)
(2.55873e-05 1.10336e-06 0)
(2.04135e-05 1.00049e-06 0)
(1.56463e-05 8.89485e-07 0)
(1.13096e-05 7.70233e-07 0)
(7.42581e-06 6.42734e-07 0)
(4.01557e-06 5.07119e-07 0)
(1.09704e-06 3.63749e-07 0)
(-1.31501e-06 2.13317e-07 0)
(-3.2104e-06 5.69875e-08 0)
(-4.58511e-06 -1.03317e-07 0)
(-5.44325e-06 -2.64595e-07 0)
(-5.79991e-06 -4.22257e-07 0)
(-5.68452e-06 -5.69424e-07 0)
(-5.14558e-06 -6.96258e-07 0)
(-4.2562e-06 -7.88731e-07 0)
(-3.12264e-06 -8.27758e-07 0)
(-1.90414e-06 -7.86253e-07 0)
(-8.35908e-07 -6.20963e-07 0)
(-1.31531e-07 -2.84714e-07 0)
(-1.89406e-07 1.36523e-06 0)
(-1.41671e-06 3.291e-06 0)
(-3.20309e-06 4.40539e-06 0)
(-5.22684e-06 4.79264e-06 0)
(-7.11779e-06 4.57693e-06 0)
(-8.58976e-06 3.88051e-06 0)
(-9.42042e-06 2.81101e-06 0)
(-9.43316e-06 1.45866e-06 0)
(-8.48893e-06 -1.02796e-07 0)
(-6.48141e-06 -1.81393e-06 0)
(-3.33216e-06 -3.62716e-06 0)
(1.01377e-06 -5.50439e-06 0)
(6.59144e-06 -7.41507e-06 0)
(1.34193e-05 -9.33462e-06 0)
(2.15017e-05 -1.12431e-05 0)
(3.08311e-05 -1.31242e-05 0)
(4.13899e-05 -1.49646e-05 0)
(5.31518e-05 -1.67531e-05 0)
(6.60835e-05 -1.84806e-05 0)
(8.0145e-05 -2.01393e-05 0)
(9.52912e-05 -2.17225e-05 0)
(0.000111472 -2.32248e-05 0)
(0.000128634 -2.46416e-05 0)
(0.00014672 -2.59687e-05 0)
(0.00016567 -2.72031e-05 0)
(0.000185421 -2.83418e-05 0)
(0.000205909 -2.93828e-05 0)
(0.000227067 -3.03241e-05 0)
(0.000248828 -3.11644e-05 0)
(0.000271123 -3.19028e-05 0)
(0.000293882 -3.25386e-05 0)
(0.000317037 -3.30715e-05 0)
(0.000340515 -3.35017e-05 0)
(0.000364248 -3.38295e-05 0)
(0.000388165 -3.40556e-05 0)
(0.000412197 -3.41808e-05 0)
(0.000436275 -3.42064e-05 0)
(0.00046033 -3.41339e-05 0)
(0.000484295 -3.39649e-05 0)
(0.000508104 -3.37015e-05 0)
(0.000531693 -3.33456e-05 0)
(0.000554998 -3.28998e-05 0)
(0.000577958 -3.23664e-05 0)
(0.000600513 -3.17484e-05 0)
(0.000622605 -3.10485e-05 0)
(0.000644179 -3.02697e-05 0)
(0.000665179 -2.94153e-05 0)
(0.000685555 -2.84887e-05 0)
(0.000705256 -2.74931e-05 0)
(0.000724238 -2.64322e-05 0)
(0.000742453 -2.53095e-05 0)
(0.000759861 -2.41287e-05 0)
(0.000776423 -2.28937e-05 0)
(0.0007921 -2.16081e-05 0)
(0.000806859 -2.02759e-05 0)
(0.000820669 -1.89009e-05 0)
(0.0008335 -1.7487e-05 0)
(0.000845325 -1.6038e-05 0)
(0.000856122 -1.45579e-05 0)
(0.00086587 -1.30504e-05 0)
(0.00087455 -1.15195e-05 0)
(0.000882146 -9.96898e-06 0)
(0.000888647 -8.40251e-06 0)
(0.000894041 -6.82384e-06 0)
(0.00089832 -5.23661e-06 0)
(0.00090148 -3.64441e-06 0)
(0.000903518 -2.05076e-06 0)
(0.000904433 -4.59102e-07 0)
(0.000904228 1.12719e-06 0)
(0.000902907 2.70484e-06 0)
(0.000900477 4.27063e-06 0)
(0.000896947 5.82144e-06 0)
(0.000892328 7.35422e-06 0)
(0.000886634 8.86602e-06 0)
(0.00087988 1.0354e-05 0)
(0.000872084 1.18152e-05 0)
(0.000863264 1.32472e-05 0)
(0.000853443 1.46471e-05 0)
(0.000842644 1.60125e-05 0)
(0.000830891 1.73409e-05 0)
(0.000818212 1.86299e-05 0)
(0.000804635 1.9877e-05 0)
(0.000790191 2.10801e-05 0)
(0.000774911 2.22368e-05 0)
(0.000758828 2.33451e-05 0)
(0.000741978 2.44027e-05 0)
(0.000724398 2.54075e-05 0)
(0.000706125 2.63576e-05 0)
(0.000687198 2.72508e-05 0)
(0.000667659 2.80852e-05 0)
(0.000647551 2.88587e-05 0)
(0.000626916 2.95694e-05 0)
(0.000605801 3.02152e-05 0)
(0.000584251 3.07944e-05 0)
(0.000562315 3.13048e-05 0)
(0.000540042 3.17445e-05 0)
(0.000517483 3.21116e-05 0)
(0.000494688 3.2404e-05 0)
(0.000471713 3.26199e-05 0)
(0.000448611 3.27572e-05 0)
(0.000425438 3.2814e-05 0)
(0.000402251 3.27883e-05 0)
(0.000379108 3.26781e-05 0)
(0.00035607 3.24815e-05 0)
(0.000333196 3.21967e-05 0)
(0.000310549 3.18216e-05 0)
(0.000288191 3.13546e-05 0)
(0.000266186 3.07939e-05 0)
(0.000244599 3.01379e-05 0)
(0.000223495 2.9385e-05 0)
(0.00020294 2.85341e-05 0)
(0.000183001 2.75841e-05 0)
(0.000163743 2.65341e-05 0)
(0.000145233 2.53837e-05 0)
(0.000127537 2.41331e-05 0)
(0.000110719 2.27827e-05 0)
(9.48445e-05 2.13339e-05 0)
(7.99735e-05 1.9789e-05 0)
(6.61652e-05 1.81514e-05 0)
(5.34748e-05 1.64257e-05 0)
(4.19527e-05 1.46188e-05 0)
(3.16432e-05 1.27397e-05 0)
(2.25828e-05 1.08004e-05 0)
(1.47984e-05 8.81709e-06 0)
(8.3042e-06 6.81086e-06 0)
(3.0992e-06 4.80958e-06 0)
(-8.36811e-07 2.84982e-06 0)
(-3.5479e-06 9.79433e-07 0)
(-5.10778e-06 -7.39114e-07 0)
(-5.62604e-06 -2.2249e-06 0)
(-5.2554e-06 -3.37383e-06 0)
(-4.20292e-06 -4.05408e-06 0)
(-2.7525e-06 -4.10257e-06 0)
(-1.29083e-06 -3.32552e-06 0)
(-1.8673e-07 -1.51405e-06 0)
(-1.78968e-07 2.87e-06 0)
(-1.31117e-06 6.47536e-06 0)
(-2.79655e-06 8.23004e-06 0)
(-4.24513e-06 8.43274e-06 0)
(-5.23566e-06 7.35467e-06 0)
(-5.43843e-06 5.23627e-06 0)
(-4.59037e-06 2.28671e-06 0)
(-2.47601e-06 -1.31497e-06 0)
(1.07947e-06 -5.41743e-06 0)
(6.2143e-06 -9.89361e-06 0)
(1.30341e-05 -1.46373e-05 0)
(2.16155e-05 -1.95598e-05 0)
(3.20102e-05 -2.45868e-05 0)
(4.42476e-05 -2.96564e-05 0)
(5.83377e-05 -3.47161e-05 0)
(7.42738e-05 -3.9722e-05 0)
(9.20341e-05 -4.46368e-05 0)
(0.000111584 -4.94286e-05 0)
(0.000132878 -5.40704e-05 0)
(0.00015586 -5.8539e-05 0)
(0.000180466 -6.28146e-05 0)
(0.000206624 -6.688e-05 0)
(0.000234256 -7.07208e-05 0)
(0.000263277 -7.43245e-05 0)
(0.000293598 -7.76803e-05 0)
(0.000325127 -8.07795e-05 0)
(0.000357766 -8.36147e-05 0)
(0.000391415 -8.61798e-05 0)
(0.000425973 -8.847e-05 0)
(0.000461335 -9.04819e-05 0)
(0.000497396 -9.22129e-05 0)
(0.000534048 -9.36617e-05 0)
(0.000571185 -9.48276e-05 0)
(0.000608699 -9.57112e-05 0)
(0.000646483 -9.63138e-05 0)
(0.000684429 -9.66375e-05 0)
(0.000722431 -9.66852e-05 0)
(0.000760384 -9.64606e-05 0)
(0.000798185 -9.59681e-05 0)
(0.000835731 -9.52127e-05 0)
(0.000872921 -9.42001e-05 0)
(0.00090966 -9.29365e-05 0)
(0.000945849 -9.14287e-05 0)
(0.000981397 -8.96842e-05 0)
(0.00101621 -8.77107e-05 0)
(0.00105021 -8.55164e-05 0)
(0.00108331 -8.31101e-05 0)
(0.00111542 -8.05008e-05 0)
(0.00114647 -7.76979e-05 0)
(0.00117639 -7.47111e-05 0)
(0.00120511 -7.15503e-05 0)
(0.00123255 -6.82257e-05 0)
(0.00125866 -6.47476e-05 0)
(0.00128339 -6.11266e-05 0)
(0.00130667 -5.73732e-05 0)
(0.00132846 -5.34983e-05 0)
(0.0013487 -4.95125e-05 0)
(0.00136737 -4.54268e-05 0)
(0.00138442 -4.12518e-05 0)
(0.00139982 -3.69984e-05 0)
(0.00141353 -3.26773e-05 0)
(0.00142554 -2.82991e-05 0)
(0.00143583 -2.38744e-05 0)
(0.00144437 -1.94136e-05 0)
(0.00145115 -1.49269e-05 0)
(0.00145617 -1.04245e-05 0)
(0.00145942 -5.91629e-06 0)
(0.0014609 -1.41204e-06 0)
(0.00146061 3.0787e-06 0)
(0.00145856 7.54658e-06 0)
(0.00145475 1.19825e-05 0)
(0.00144921 1.63774e-05 0)
(0.00144195 2.07228e-05 0)
(0.00143299 2.50101e-05 0)
(0.00142236 2.92311e-05 0)
(0.00141007 3.33778e-05 0)
(0.00139617 3.74424e-05 0)
(0.00138068 4.14172e-05 0)
(0.00136364 4.5295e-05 0)
(0.00134509 4.90684e-05 0)
(0.00132508 5.27307e-05 0)
(0.00130364 5.62748e-05 0)
(0.00128083 5.96943e-05 0)
(0.00125669 6.29826e-05 0)
(0.00123128 6.61335e-05 0)
(0.00120465 6.91406e-05 0)
(0.00117687 7.19981e-05 0)
(0.00114798 7.46999e-05 0)
(0.00111806 7.72401e-05 0)
(0.00108717 7.96131e-05 0)
(0.00105537 8.18131e-05 0)
(0.00102273 8.38346e-05 0)
(0.000989334 8.5672e-05 0)
(0.000955244 8.73197e-05 0)
(0.000920539 8.87724e-05 0)
(0.000885297 9.00246e-05 0)
(0.000849596 9.10709e-05 0)
(0.00081352 9.19061e-05 0)
(0.00077715 9.25248e-05 0)
(0.000740574 9.29219e-05 0)
(0.000703878 9.30922e-05 0)
(0.000667152 9.30306e-05 0)
(0.000630486 9.27322e-05 0)
(0.000593973 9.21921e-05 0)
(0.000557707 9.14059e-05 0)
(0.000521784 9.03691e-05 0)
(0.000486301 8.90776e-05 0)
(0.000451354 8.75277e-05 0)
(0.000417043 8.57161e-05 0)
(0.000383468 8.36401e-05 0)
(0.000350727 8.12975e-05 0)
(0.000318921 7.86872e-05 0)
(0.000288149 7.5809e-05 0)
(0.000258509 7.26637e-05 0)
(0.000230099 6.92539e-05 0)
(0.000203012 6.55838e-05 0)
(0.000177341 6.16599e-05 0)
(0.000153174 5.74913e-05 0)
(0.000130594 5.30904e-05 0)
(0.000109676 4.84737e-05 0)
(9.04908e-05 4.36625e-05 0)
(7.30961e-05 3.86842e-05 0)
(5.75392e-05 3.35739e-05 0)
(4.38526e-05 2.83757e-05 0)
(3.20516e-05 2.31453e-05 0)
(2.21304e-05 1.79526e-05 0)
(1.40585e-05 1.28854e-05 0)
(7.77584e-06 8.05288e-06 0)
(3.18775e-06 3.59117e-06 0)
(1.59131e-07 -3.30946e-07 0)
(-1.4914e-06 -3.50552e-06 0)
(-2.00027e-06 -5.67844e-06 0)
(-1.67697e-06 -6.54166e-06 0)
(-9.26416e-07 -5.72232e-06 0)
(-1.53906e-07 -2.77168e-06 0)
(-1.25865e-07 4.01901e-06 0)
(-7.48935e-07 8.63428e-06 0)
(-1.28442e-06 1.03364e-05 0)
(-1.33833e-06 9.62007e-06 0)
(-5.07032e-07 6.90224e-06 0)
(1.53701e-06 2.54071e-06 0)
(5.06248e-06 -3.15443e-06 0)
(1.0293e-05 -9.91498e-06 0)
(1.74129e-05 -1.751e-05 0)
(2.65701e-05 -2.5741e-05 0)
(3.78793e-05 -3.44381e-05 0)
(5.14256e-05 -4.34553e-05 0)
(6.72666e-05 -5.26678e-05 0)
(8.54357e-05 -6.1968e-05 0)
(0.000105944 -7.12636e-05 0)
(0.000128783 -8.04752e-05 0)
(0.000153927 -8.95338e-05 0)
(0.000181334 -9.83802e-05 0)
(0.000210947 -0.000106963 0)
(0.000242699 -0.000115237 0)
(0.000276508 -0.000123163 0)
(0.000312287 -0.000130709 0)
(0.000349936 -0.000137844 0)
(0.00038935 -0.000144544 0)
(0.000430416 -0.000150787 0)
(0.000473015 -0.000156555 0)
(0.000517025 -0.000161833 0)
(0.000562317 -0.000166607 0)
(0.00060876 -0.000170868 0)
(0.000656221 -0.000174608 0)
(0.000704564 -0.000177822 0)
(0.00075365 -0.000180505 0)
(0.000803342 -0.000182656 0)
(0.000853499 -0.000184275 0)
(0.000903982 -0.000185363 0)
(0.000954652 -0.000185925 0)
(0.00100537 -0.000185965 0)
(0.001056 -0.00018549 0)
(0.00110641 -0.000184506 0)
(0.00115646 -0.000183025 0)
(0.00120602 -0.000181055 0)
(0.00125497 -0.000178608 0)
(0.00130317 -0.000175698 0)
(0.00135052 -0.000172337 0)
(0.00139688 -0.00016854 0)
(0.00144215 -0.000164322 0)
(0.00148621 -0.0001597 0)
(0.00152896 -0.00015469 0)
(0.00157029 -0.000149311 0)
(0.00161012 -0.00014358 0)
(0.00164834 -0.000137516 0)
(0.00168488 -0.000131139 0)
(0.00171964 -0.000124467 0)
(0.00175256 -0.000117521 0)
(0.00178356 -0.00011032 0)
(0.00181257 -0.000102886 0)
(0.00183953 -9.52379e-05 0)
(0.00186439 -8.7397e-05 0)
(0.0018871 -7.93836e-05 0)
(0.00190762 -7.12181e-05 0)
(0.00192589 -6.29211e-05 0)
(0.0019419 -5.45128e-05 0)
(0.00195562 -4.60133e-05 0)
(0.00196701 -3.74425e-05 0)
(0.00197606 -2.88201e-05 0)
(0.00198277 -2.01654e-05 0)
(0.00198712 -1.14975e-05 0)
(0.00198911 -2.83507e-06 0)
(0.00198874 5.80344e-06 0)
(0.00198603 1.44001e-05 0)
(0.00198099 2.29372e-05 0)
(0.00197362 3.13976e-05 0)
(0.00196396 3.97645e-05 0)
(0.00195204 4.80215e-05 0)
(0.00193788 5.61527e-05 0)
(0.00192152 6.41425e-05 0)
(0.00190299 7.19757e-05 0)
(0.00188235 7.96376e-05 0)
(0.00185964 8.71139e-05 0)
(0.00183492 9.43906e-05 0)
(0.00180823 0.000101454 0)
(0.00177964 0.000108291 0)
(0.00174921 0.000114889 0)
(0.00171701 0.000121234 0)
(0.00168311 0.000127316 0)
(0.00164758 0.000133121 0)
(0.00161049 0.000138638 0)
(0.00157194 0.000143855 0)
(0.00153199 0.000148762 0)
(0.00149075 0.000153346 0)
(0.00144828 0.000157598 0)
(0.0014047 0.000161506 0)
(0.00136009 0.00016506 0)
(0.00131454 0.000168249 0)
(0.00126817 0.000171063 0)
(0.00122107 0.000173492 0)
(0.00117335 0.000175526 0)
(0.00112512 0.000177154 0)
(0.00107648 0.000178369 0)
(0.00102756 0.000179159 0)
(0.000978454 0.000179515 0)
(0.000929296 0.00017943 0)
(0.000880199 0.000178893 0)
(0.000831286 0.000177897 0)
(0.000782678 0.000176434 0)
(0.0007345 0.000174497 0)
(0.000686877 0.00017208 0)
(0.000639937 0.000169176 0)
(0.000593806 0.000165781 0)
(0.000548612 0.000161891 0)
(0.000504483 0.000157506 0)
(0.000461545 0.000152624 0)
(0.000419925 0.000147247 0)
(0.000379747 0.000141379 0)
(0.000341131 0.000135029 0)
(0.000304197 0.000128206 0)
(0.000269058 0.000120926 0)
(0.000235823 0.000113208 0)
(0.000204592 0.00010508 0)
(0.000175459 9.65732e-05 0)
(0.000148506 8.77309e-05 0)
(0.000123805 7.86048e-05 0)
(0.000101411 6.92598e-05 0)
(8.13637e-05 5.97755e-05 0)
(6.3683e-05 5.02494e-05 0)
(4.83657e-05 4.08007e-05 0)
(3.5382e-05 3.15742e-05 0)
(2.4672e-05 2.27457e-05 0)
(1.61417e-05 1.45278e-05 0)
(9.65824e-06 7.17672e-06 0)
(5.04552e-06 1.00007e-06 0)
(2.07843e-06 -3.63455e-06 0)
(4.74187e-07 -6.28847e-06 0)
(-1.17418e-07 -6.43281e-06 0)
(-7.79509e-08 -3.42154e-06 0)
(-5.76246e-08 4.45953e-06 0)
(4.01084e-08 8.89811e-06 0)
(8.28568e-07 9.49982e-06 0)
(2.67254e-06 6.89369e-06 0)
(5.91382e-06 1.61107e-06 0)
(1.08462e-05 -5.89087e-06 0)
(1.77196e-05 -1.52131e-05 0)
(2.6745e-05 -2.60066e-05 0)
(3.80974e-05 -3.79663e-05 0)
(5.19185e-05 -5.08259e-05 0)
(6.83186e-05 -6.43529e-05 0)
(8.73792e-05 -7.8344e-05 0)
(0.000109155 -9.26218e-05 0)
(0.000133675 -0.000107031 0)
(0.000160946 -0.000121436 0)
(0.000190954 -0.000135718 0)
(0.000223666 -0.000149773 0)
(0.000259032 -0.000163508 0)
(0.000296984 -0.000176844 0)
(0.000337441 -0.000189709 0)
(0.000380311 -0.000202043 0)
(0.000425488 -0.000213791 0)
(0.000472856 -0.000224905 0)
(0.000522291 -0.000235345 0)
(0.000573659 -0.000245075 0)
(0.000626821 -0.000254064 0)
(0.000681631 -0.000262287 0)
(0.000737938 -0.000269723 0)
(0.000795585 -0.000276353 0)
(0.000854414 -0.000282165 0)
(0.000914261 -0.000287148 0)
(0.000974964 -0.000291295 0)
(0.00103635 -0.000294603 0)
(0.00109827 -0.000297071 0)
(0.00116054 -0.0002987 0)
(0.00122299 -0.000299496 0)
(0.00128547 -0.000299465 0)
(0.00134781 -0.000298617 0)
(0.00140984 -0.000296963 0)
(0.00147141 -0.000294519 0)
(0.00153235 -0.000291298 0)
(0.00159252 -0.00028732 0)
(0.00165175 -0.000282604 0)
(0.00170991 -0.00027717 0)
(0.00176686 -0.000271042 0)
(0.00182245 -0.000264244 0)
(0.00187654 -0.000256801 0)
(0.00192902 -0.00024874 0)
(0.00197976 -0.000240088 0)
(0.00202864 -0.000230874 0)
(0.00207554 -0.000221128 0)
(0.00212038 -0.00021088 0)
(0.00216303 -0.00020016 0)
(0.00220342 -0.000189001 0)
(0.00224145 -0.000177434 0)
(0.00227704 -0.000165491 0)
(0.00231012 -0.000153205 0)
(0.00234062 -0.000140608 0)
(0.00236849 -0.000127733 0)
(0.00239366 -0.000114613 0)
(0.00241608 -0.00010128 0)
(0.00243572 -8.77656e-05 0)
(0.00245255 -7.41033e-05 0)
(0.00246653 -6.03242e-05 0)
(0.00247764 -4.646e-05 0)
(0.00248586 -3.25415e-05 0)
(0.0024912 -1.85993e-05 0)
(0.00249364 -4.66357e-06 0)
(0.00249318 9.23632e-06 0)
(0.00248985 2.30714e-05 0)
(0.00248364 3.68133e-05 0)
(0.00247459 5.04344e-05 0)
(0.00246273 6.39075e-05 0)
(0.00244807 7.72062e-05 0)
(0.00243066 9.03047e-05 0)
(0.00241055 0.000103178 0)
(0.00238778 0.000115801 0)
(0.00236241 0.000128151 0)
(0.00233449 0.000140204 0)
(0.00230409 0.000151937 0)
(0.00227127 0.000163328 0)
(0.00223612 0.000174356 0)
(0.00219869 0.000185001 0)
(0.00215908 0.00019524 0)
(0.00211738 0.000205056 0)
(0.00207366 0.000214428 0)
(0.00202803 0.000223336 0)
(0.00198058 0.000231764 0)
(0.00193141 0.000239691 0)
(0.00188064 0.000247101 0)
(0.00182836 0.000253977 0)
(0.00177469 0.0002603 0)
(0.00171974 0.000266054 0)
(0.00166364 0.000271223 0)
(0.0016065 0.000275789 0)
(0.00154846 0.000279739 0)
(0.00148964 0.000283055 0)
(0.00143017 0.000285722 0)
(0.00137018 0.000287727 0)
(0.00130981 0.000289053 0)
(0.00124921 0.000289688 0)
(0.00118851 0.000289618 0)
(0.00112786 0.00028883 0)
(0.0010674 0.000287313 0)
(0.00100728 0.000285055 0)
(0.000947654 0.000282046 0)
(0.000888664 0.000278278 0)
(0.000830465 0.000273744 0)
(0.000773208 0.000268438 0)
(0.000717045 0.000262357 0)
(0.000662126 0.0002555 0)
(0.000608601 0.000247869 0)
(0.000556618 0.00023947 0)
(0.000506323 0.000230313 0)
(0.000457857 0.000220411 0)
(0.000411358 0.000209785 0)
(0.000366958 0.000198461 0)
(0.000324782 0.000186472 0)
(0.000284948 0.000173862 0)
(0.000247564 0.000160685 0)
(0.000212725 0.000147006 0)
(0.000180514 0.000132906 0)
(0.000151 0.000118481 0)
(0.000124233 0.000103851 0)
(0.000100242 8.91552e-05 0)
(7.90346e-05 7.45631e-05 0)
(6.0594e-05 6.02754e-05 0)
(4.4874e-05 4.65308e-05 0)
(3.17979e-05 3.36116e-05 0)
(2.12549e-05 2.18516e-05 0)
(1.30973e-05 1.16432e-05 0)
(7.13788e-06 3.44701e-06 0)
(3.15229e-06 -2.19685e-06 0)
(8.85681e-07 -4.64747e-06 0)
(8.74069e-09 -3.13473e-06 0)
(1.64019e-08 4.05244e-06 0)
(9.32382e-07 6.86228e-06 0)
(3.24034e-06 5.09245e-06 0)
(7.26448e-06 -5.46953e-07 0)
(1.32642e-05 -9.44555e-06 0)
(2.14814e-05 -2.10707e-05 0)
(3.21317e-05 -3.49513e-05 0)
(4.5399e-05 -5.06699e-05 0)
(6.14363e-05 -6.78564e-05 0)
(8.0367e-05 -8.61829e-05 0)
(0.000102287 -0.000105359 0)
(0.000127264 -0.000125127 0)
(0.000155341 -0.000145258 0)
(0.000186538 -0.00016555 0)
(0.000220852 -0.000185822 0)
(0.000258257 -0.000205915 0)
(0.00029871 -0.000225688 0)
(0.00034215 -0.000245013 0)
(0.000388496 -0.000263781 0)
(0.000437656 -0.00028189 0)
(0.000489521 -0.000299254 0)
(0.000543972 -0.000315796 0)
(0.000600876 -0.000331446 0)
(0.000660091 -0.000346147 0)
(0.000721466 -0.000359844 0)
(0.000784841 -0.000372495 0)
(0.000850051 -0.000384061 0)
(0.000916923 -0.000394509 0)
(0.00098528 -0.000403815 0)
(0.00105494 -0.000411956 0)
(0.00112572 -0.000418916 0)
(0.00119742 -0.000424686 0)
(0.00126987 -0.000429259 0)
(0.00134286 -0.000432632 0)
(0.00141622 -0.000434807 0)
(0.00148974 -0.00043579 0)
(0.00156323 -0.00043559 0)
(0.00163652 -0.00043422 0)
(0.0017094 -0.000431696 0)
(0.0017817 -0.000428038 0)
(0.00185324 -0.000423267 0)
(0.00192384 -0.000417409 0)
(0.00199332 -0.000410491 0)
(0.00206151 -0.000402542 0)
(0.00212826 -0.000393595 0)
(0.0021934 -0.000383684 0)
(0.00225677 -0.000372845 0)
(0.00231824 -0.000361116 0)
(0.00237765 -0.000348536 0)
(0.00243487 -0.000335147 0)
(0.00248978 -0.00032099 0)
(0.00254225 -0.000306108 0)
(0.00259216 -0.000290546 0)
(0.00263941 -0.000274349 0)
(0.0026839 -0.000257562 0)
(0.00272553 -0.000240231 0)
(0.00276422 -0.000222403 0)
(0.00279989 -0.000204125 0)
(0.00283247 -0.000185443 0)
(0.00286189 -0.000166405 0)
(0.0028881 -0.000147056 0)
(0.00291105 -0.000127445 0)
(0.0029307 -0.000107616 0)
(0.00294702 -8.76167e-05 0)
(0.00295999 -6.74913e-05 0)
(0.00296957 -4.72848e-05 0)
(0.00297577 -2.70414e-05 0)
(0.00297858 -6.80467e-06 0)
(0.00297801 1.33828e-05 0)
(0.00297405 3.34789e-05 0)
(0.00296674 5.34428e-05 0)
(0.0029561 7.32341e-05 0)
(0.00294215 9.28136e-05 0)
(0.00292494 0.000112143 0)
(0.0029045 0.000131184 0)
(0.00288089 0.000149901 0)
(0.00285417 0.000168258 0)
(0.00282439 0.00018622 0)
(0.00279163 0.000203753 0)
(0.00275595 0.000220824 0)
(0.00271744 0.000237402 0)
(0.00267618 0.000253454 0)
(0.00263225 0.00026895 0)
(0.00258577 0.000283861 0)
(0.00253681 0.000298158 0)
(0.00248549 0.000311812 0)
(0.00243192 0.000324795 0)
(0.00237621 0.000337081 0)
(0.00231847 0.000348643 0)
(0.00225884 0.000359456 0)
(0.00219743 0.000369494 0)
(0.00213437 0.000378733 0)
(0.00206981 0.000387148 0)
(0.00200387 0.000394716 0)
(0.00193671 0.000401414 0)
(0.00186846 0.000407219 0)
(0.00179927 0.00041211 0)
(0.0017293 0.000416065 0)
(0.0016587 0.000419064 0)
(0.00158763 0.000421086 0)
(0.00151624 0.000422113 0)
(0.00144471 0.000422127 0)
(0.00137319 0.000421111 0)
(0.00130186 0.000419048 0)
(0.00123088 0.000415926 0)
(0.00116043 0.000411731 0)
(0.00109067 0.000406452 0)
(0.00102177 0.000400083 0)
(0.000953918 0.000392617 0)
(0.000887274 0.000384052 0)
(0.000822011 0.00037439 0)
(0.000758299 0.000363636 0)
(0.000696305 0.0003518 0)
(0.000636193 0.0003389 0)
(0.000578122 0.000324957 0)
(0.000522247 0.000310002 0)
(0.000468718 0.000294075 0)
(0.000417674 0.000277226 0)
(0.00036925 0.000259516 0)
(0.000323568 0.00024102 0)
(0.000280738 0.000221829 0)
(0.000240858 0.000202054 0)
(0.000204011 0.000181823 0)
(0.000170263 0.000161293 0)
(0.000139661 0.000140645 0)
(0.00011223 0.000120095 0)
(8.79746e-05 9.98947e-05 0)
(6.68738e-05 8.03371e-05 0)
(4.88807e-05 6.17648e-05 0)
(3.39203e-05 4.4575e-05 0)
(2.18878e-05 2.92272e-05 0)
(1.2649e-05 1.62515e-05 0)
(6.05445e-06 6.25877e-06 0)
(1.96103e-06 -3.93827e-08 0)
(9.78486e-08 -1.80607e-06 0)
(9.0447e-08 2.74207e-06 0)
(1.86032e-06 2.3362e-06 0)
(5.77532e-06 -3.21208e-06 0)
(1.212e-05 -1.31492e-05 0)
(2.10653e-05 -2.68146e-05 0)
(3.27938e-05 -4.36223e-05 0)
(4.74783e-05 -6.30465e-05 0)
(6.5267e-05 -8.46144e-05 0)
(8.62822e-05 -0.000107901 0)
(0.000110621 -0.000132526 0)
(0.000138356 -0.000158146 0)
(0.000169537 -0.000184453 0)
(0.000204187 -0.000211172 0)
(0.000242311 -0.000238053 0)
(0.000283888 -0.000264875 0)
(0.000328881 -0.000291437 0)
(0.000377232 -0.000317559 0)
(0.000428862 -0.000343081 0)
(0.000483681 -0.000367858 0)
(0.000541579 -0.000391762 0)
(0.000602432 -0.000414677 0)
(0.000666105 -0.000436502 0)
(0.000732449 -0.000457145 0)
(0.000801305 -0.000476527 0)
(0.000872504 -0.000494578 0)
(0.000945869 -0.000511237 0)
(0.00102121 -0.000526453 0)
(0.00109835 -0.000540181 0)
(0.00117707 -0.000552386 0)
(0.00125718 -0.000563038 0)
(0.00133848 -0.000572115 0)
(0.00142074 -0.000579602 0)
(0.00150377 -0.000585488 0)
(0.00158735 -0.000589769 0)
(0.00167127 -0.000592448 0)
(0.00175531 -0.00059353 0)
(0.00183926 -0.000593028 0)
(0.00192292 -0.000590958 0)
(0.00200606 -0.00058734 0)
(0.0020885 -0.0005822 0)
(0.00217002 -0.000575567 0)
(0.00225043 -0.000567474 0)
(0.00232953 -0.000557957 0)
(0.00240714 -0.000547054 0)
(0.00248306 -0.00053481 0)
(0.00255714 -0.00052127 0)
(0.00262918 -0.000506481 0)
(0.00269903 -0.000490494 0)
(0.00276652 -0.000473361 0)
(0.00283152 -0.000455137 0)
(0.00289386 -0.000435879 0)
(0.00295342 -0.000415644 0)
(0.00301007 -0.000394492 0)
(0.00306368 -0.000372481 0)
(0.00311414 -0.000349675 0)
(0.00316135 -0.000326133 0)
(0.00320521 -0.00030192 0)
(0.00324564 -0.000277097 0)
(0.00328255 -0.000251729 0)
(0.00331587 -0.000225876 0)
(0.00334555 -0.000199604 0)
(0.00337152 -0.000172974 0)
(0.00339374 -0.000146048 0)
(0.00341218 -0.000118889 0)
(0.0034268 -9.15579e-05 0)
(0.00343759 -6.41147e-05 0)
(0.00344453 -3.66193e-05 0)
(0.00344762 -9.13046e-06 0)
(0.00344687 1.82941e-05 0)
(0.00344228 4.55977e-05 0)
(0.00343388 7.27245e-05 0)
(0.00342168 9.96202e-05 0)
(0.00340574 0.000126231 0)
(0.00338609 0.000152506 0)
(0.00336277 0.000178393 0)
(0.00333585 0.000203842 0)
(0.00330538 0.000228806 0)
(0.00327145 0.000253237 0)
(0.00323412 0.000277089 0)
(0.00319347 0.000300316 0)
(0.0031496 0.000322876 0)
(0.0031026 0.000344726 0)
(0.00305257 0.000365824 0)
(0.00299961 0.00038613 0)
(0.00294385 0.000405605 0)
(0.00288539 0.000424209 0)
(0.00282436 0.000441906 0)
(0.00276088 0.00045866 0)
(0.0026951 0.000474434 0)
(0.00262714 0.000489194 0)
(0.00255714 0.000502905 0)
(0.00248527 0.000515536 0)
(0.00241165 0.000527053 0)
(0.00233646 0.000537426 0)
(0.00225985 0.000546623 0)
(0.00218198 0.000554615 0)
(0.00210301 0.000561373 0)
(0.00202313 0.000566869 0)
(0.00194249 0.000571076 0)
(0.00186128 0.00057397 0)
(0.00177968 0.000575524 0)
(0.00169787 0.000575717 0)
(0.00161603 0.000574528 0)
(0.00153435 0.000571936 0)
(0.00145301 0.000567926 0)
(0.00137221 0.000562481 0)
(0.00129214 0.00055559 0)
(0.00121297 0.000547244 0)
(0.00113492 0.000537439 0)
(0.00105816 0.000526173 0)
(0.000982883 0.000513451 0)
(0.000909278 0.000499283 0)
(0.000837528 0.000483686 0)
(0.000767814 0.000466682 0)
(0.000700311 0.000448305 0)
(0.000635191 0.000428596 0)
(0.00057262 0.000407609 0)
(0.000512754 0.00038541 0)
(0.000455742 0.000362079 0)
(0.000401724 0.000337712 0)
(0.000350827 0.000312427 0)
(0.000303166 0.00028636 0)
(0.000258844 0.000259672 0)
(0.000217945 0.000232553 0)
(0.00018054 0.000205222 0)
(0.00014668 0.000177935 0)
(0.000116397 0.000150987 0)
(8.97027e-05 0.000124717 0)
(6.65886e-05 9.95168e-05 0)
(4.70244e-05 7.58312e-05 0)
(3.09562e-05 5.41694e-05 0)
(1.83101e-05 3.51095e-05 0)
(9.01719e-06 1.93072e-05 0)
(3.04751e-06 7.51271e-06 0)
(1.84708e-07 5.91824e-07 0)
(1.62126e-07 5.18805e-07 0)
(2.78872e-06 -4.7432e-06 0)
(8.33614e-06 -1.55483e-05 0)
(1.70551e-05 -3.11231e-05 0)
(2.90306e-05 -5.07779e-05 0)
(4.43844e-05 -7.38908e-05 0)
(6.32434e-05 -9.98955e-05 0)
(8.57161e-05 -0.000128276 0)
(0.000111889 -0.000158563 0)
(0.000141829 -0.00019033 0)
(0.000175579 -0.000223189 0)
(0.000213163 -0.000256788 0)
(0.000254583 -0.000290806 0)
(0.000299822 -0.000324953 0)
(0.000348841 -0.000358965 0)
(0.000401582 -0.000392603 0)
(0.000457969 -0.000425651 0)
(0.000517909 -0.000457914 0)
(0.000581292 -0.000489214 0)
(0.000647991 -0.000519393 0)
(0.000717867 -0.000548309 0)
(0.000790767 -0.000575832 0)
(0.000866524 -0.000601849 0)
(0.000944961 -0.000626259 0)
(0.00102589 -0.000648974 0)
(0.00110912 -0.000669916 0)
(0.00119445 -0.000689018 0)
(0.00128165 -0.000706224 0)
(0.00137053 -0.000721488 0)
(0.00146084 -0.00073477 0)
(0.00155238 -0.000746042 0)
(0.00164491 -0.000755283 0)
(0.00173819 -0.000762479 0)
(0.00183201 -0.000767625 0)
(0.00192611 -0.000770721 0)
(0.00202028 -0.000771775 0)
(0.00211428 -0.000770803 0)
(0.00220787 -0.000767823 0)
(0.00230084 -0.000762862 0)
(0.00239295 -0.000755951 0)
(0.00248399 -0.000747127 0)
(0.00257374 -0.000736432 0)
(0.00266198 -0.000723911 0)
(0.00274852 -0.000709614 0)
(0.00283314 -0.000693596 0)
(0.00291566 -0.000675914 0)
(0.00299589 -0.00065663 0)
(0.00307364 -0.000635808 0)
(0.00314875 -0.000613516 0)
(0.00322104 -0.000589821 0)
(0.00329036 -0.000564798 0)
(0.00335656 -0.000538518 0)
(0.00341951 -0.000511059 0)
(0.00347905 -0.000482497 0)
(0.00353508 -0.00045291 0)
(0.00358748 -0.000422377 0)
(0.00363615 -0.000390979 0)
(0.00368098 -0.000358796 0)
(0.00372189 -0.000325909 0)
(0.00375881 -0.000292399 0)
(0.00379166 -0.000258347 0)
(0.00382039 -0.000223832 0)
(0.00384495 -0.000188936 0)
(0.00386529 -0.000153737 0)
(0.00388139 -0.000118315 0)
(0.00389322 -8.27467e-05 0)
(0.00390077 -4.71096e-05 0)
(0.00390404 -1.14793e-05 0)
(0.00390304 2.40698e-05 0)
(0.00389776 5.94645e-05 0)
(0.00388825 9.46331e-05 0)
(0.00387452 0.000129505 0)
(0.00385662 0.000164012 0)
(0.00383459 0.000198085 0)
(0.00380848 0.00023166 0)
(0.00377837 0.000264672 0)
(0.00374431 0.000297059 0)
(0.00370639 0.000328758 0)
(0.00366469 0.000359712 0)
(0.0036193 0.00038986 0)
(0.00357031 0.000419148 0)
(0.00351784 0.00044752 0)
(0.003462 0.000474922 0)
(0.00340289 0.000501301 0)
(0.00334065 0.000526608 0)
(0.00327541 0.000550793 0)
(0.00320729 0.000573807 0)
(0.00313644 0.000595603 0)
(0.003063 0.000616136 0)
(0.00298713 0.000635361 0)
(0.00290898 0.000653235 0)
(0.00282872 0.000669715 0)
(0.0027465 0.00068476 0)
(0.0026625 0.00069833 0)
(0.00257689 0.000710387 0)
(0.00248985 0.000720893 0)
(0.00240157 0.000729812 0)
(0.00231222 0.000737108 0)
(0.002222 0.00074275 0)
(0.00213111 0.000746704 0)
(0.00203973 0.000748942 0)
(0.00194806 0.000749435 0)
(0.00185631 0.000748157 0)
(0.00176468 0.000745086 0)