/*--------------------------------*- C++ -*----------------------------------*\
  =========                 |
  \\      /  F ield         | OpenFOAM: The Open Source CFD Toolbox
   \\    /   O peration     | Website:  https://openfoam.org
    \\  /    A nd           | Version:  12
     \\/     M anipulation  |
\*---------------------------------------------------------------------------*/
FoamFile
{
    format      ascii;
    class       volScalarField;
    location    "5.5";
    object      p;
}
// * * * * * * * * * * * * * * * * * * * * * * * * * * * * * * * * * * * * * //

dimensions      [0 2 -2 0 0 0 0];

internalField   nonuniform List<scalar> 
5625
(
1.08334e-08
-1.83165e-05
-9.32957e-05
-0.00022768
-0.000405865
-0.000612877
-0.000836212
-0.00106541
-0.00129196
-0.00150911
-0.00171162
-0.00189545
-0.00205759
-0.00219579
-0.00230843
-0.00239436
-0.00245276
-0.00248308
-0.00248494
-0.00245811
-0.00240243
-0.00231783
-0.00220428
-0.00206184
-0.00189063
-0.00169088
-0.00146291
-0.00120721
-0.000924432
-0.000615423
-0.000281269
7.66898e-05
0.000456833
0.000857241
0.00127568
0.00170958
0.00215605
0.00261192
0.00307375
0.00353769
0.00399978
0.0044558
0.00490141
0.00533219
0.00574369
0.00613152
0.00649144
0.00681939
0.00711166
0.00736488
0.00757617
0.00774319
0.00786418
0.00793807
0.0079645
0.00794385
0.0078773
0.00776681
0.00761511
0.00742572
0.00720293
0.00695171
0.00667776
0.00638737
0.00608745
0.00578546
0.00548935
0.00520749
0.00494863
0.00472169
0.00453546
0.00439805
0.00431636
0.00429277
0.00430792
1.8189e-05
-2.2414e-07
-6.70833e-05
-0.000185086
-0.000341058
-0.000522604
-0.000719284
-0.000922153
-0.00112371
-0.00131782
-0.0014996
-0.00166521
-0.00181167
-0.00193673
-0.00203869
-0.00211629
-0.00216863
-0.00219503
-0.00219503
-0.0021683
-0.00211462
-0.00203385
-0.00192594
-0.00179091
-0.00162885
-0.00143997
-0.0012246
-0.000983194
-0.000716394
-0.000425023
-0.000110124
0.000227017
0.000584852
0.000961553
0.001355
0.00176276
0.00218212
0.00261012
0.00304347
0.00347859
0.00391178
0.00433911
0.00475652
0.0051599
0.00554512
0.0059081
0.00624492
0.00655183
0.00682542
0.00706258
0.0072607
0.00741764
0.00753184
0.00760236
0.00762894
0.007612
0.00755272
0.00745297
0.0073154
0.00714332
0.00694077
0.00671245
0.00646364
0.00620021
0.00592855
0.0056555
0.00538827
0.00513439
0.0049016
0.00469763
0.00452991
0.0044052
0.00432971
0.00430756
0.00432295
9.3436e-05
6.63672e-05
-1.0478e-06
-0.000109709
-0.000249252
-0.000410045
-0.000583753
-0.000763013
-0.000941463
-0.00111377
-0.00127555
-0.00142328
-0.00155417
-0.00166603
-0.00175718
-0.00182633
-0.00187252
-0.00189501
-0.00189325
-0.00186686
-0.00181555
-0.00173914
-0.0016375
-0.00151064
-0.00135861
-0.0011816
-0.000979885
-0.000753909
-0.000504261
-0.00023172
6.27313e-05
0.000377882
0.000712276
0.0010642
0.00143165
0.00181238
0.00220384
0.00260326
0.00300754
0.0034134
0.00381736
0.00421578
0.00460488
0.00498084
0.00533983
0.00567809
0.00599197
0.00627803
0.0065331
0.00675437
0.00693942
0.00708631
0.00719366
0.00726065
0.00728709
0.00727346
0.00722088
0.00713118
0.00700687
0.00685108
0.00666761
0.00646083
0.00623565
0.00599749
0.0057522
0.00550597
0.0052653
0.00503687
0.00482743
0.00464361
0.00449169
0.00437733
0.00430643
0.00428495
0.00429986
0.000229465
0.000184829
0.000106228
-3.64298e-06
-0.000137397
-0.000287699
-0.000447865
-0.000611874
-0.000774439
-0.00093104
-0.0010779
-0.00121192
-0.00133061
-0.00143197
-0.00151442
-0.00157676
-0.00161803
-0.0016375
-0.00163461
-0.00160893
-0.00156015
-0.00148803
-0.00139244
-0.0012733
-0.00113065
-0.000964616
-0.000775441
-0.000563505
-0.000329339
-7.36543e-05
0.000202645
0.000498438
0.00081237
0.00114284
0.00148799
0.0018457
0.00221359
0.00258905
0.00296917
0.00335087
0.00373088
0.00410576
0.00447196
0.00482587
0.00516389
0.00548246
0.00577815
0.00604772
0.0062882
0.00649692
0.00667163
0.00681053
0.00691232
0.00697626
0.00700221
0.00699065
0.00694269
0.00686007
0.0067452
0.00660107
0.00643125
0.00623986
0.00603151
0.00581123
0.00558443
0.0053568
0.00513421
0.0049227
0.00472825
0.00455674
0.00441368
0.00430415
0.00423388
0.00420949
0.00421988
0.000411827
0.00034284
0.000245063
0.000126351
-9.09852e-06
-0.000156111
-0.0003094
-0.000464137
-0.000616051
-0.000761442
-0.000897175
-0.00102064
-0.00112972
-0.00122268
-0.00129814
-0.00135501
-0.00139244
-0.00140972
-0.00140633
-0.00138183
-0.00133589
-0.00126826
-0.00117874
-0.00106724
-0.000933728
-0.000778283
-0.000601083
-0.000402438
-0.000182804
5.71947e-05
0.000316747
0.000594834
0.000890213
0.0012014
0.00152668
0.00186407
0.00221133
0.00256598
0.00292532
0.00328642
0.00364616
0.00400128
0.0043484
0.00468408
0.00500487
0.00530738
0.0055883
0.00584455
0.00607327
0.0062719
0.00643829
0.00657071
0.00666791
0.0067292
0.00675444
0.00674411
0.00669927
0.00662161
0.00651342
0.00637756
0.00621745
0.00603696
0.00584046
0.00563265
0.00541857
0.00520347
0.00499275
0.00479187
0.00460624
0.00444112
0.00430147
0.00419193
0.00411777
0.00408512
0.00408539
0.000626479
0.000528621
0.000406198
0.000273202
0.000130647
-1.8341e-05
-0.000169713
-0.000319717
-0.000465041
-0.000602786
-0.000730471
-0.000846013
-0.000947692
-0.0010341
-0.00110411
-0.0011568
-0.00119142
-0.00120738
-0.00120418
-0.00118141
-0.00113873
-0.00107588
-0.000992634
-0.000888843
-0.000764428
-0.000619395
-0.00045385
-0.000268021
-6.2273e-05
0.000162869
0.000406698
0.00066831
0.000946583
0.00124016
0.00154745
0.00186661
0.00219555
0.00253193
0.00287317
0.0032165
0.00355894
0.00389735
0.00422849
0.00454905
0.00485567
0.00514508
0.00541407
0.00565962
0.00587896
0.00606958
0.00622938
0.00635665
0.00645017
0.00650924
0.00653373
0.00652405
0.00648125
0.00640694
0.00630331
0.0061731
0.00601958
0.00584644
0.00565782
0.00545816
0.00525217
0.00504476
0.0048409
0.0046456
0.00446379
0.00430021
0.00415936
0.00404544
0.00396304
0.00391714
0.00390237
0.00086138
0.000731921
0.000581256
0.000430038
0.000276259
0.000121159
-3.2301e-05
-0.000181339
-0.00032353
-0.000456744
-0.000579143
-0.000689175
-0.000785553
-0.000867221
-0.000933311
-0.000983114
-0.00101604
-0.00103159
-0.00102935
-0.00100893
-0.000970027
-0.000912336
-0.000835618
-0.000739673
-0.00062436
-0.000489613
-0.000335455
-0.000162017
3.04374e-05
0.000241492
0.000470557
0.00071685
0.000979375
0.00125691
0.00154799
0.00185091
0.0021637
0.00248416
0.00280983
0.00313807
0.00346599
0.00379058
0.00410867
0.00441704
0.00471241
0.00499155
0.00525132
0.00548872
0.00570099
0.00588566
0.00604061
0.00616412
0.00625496
0.00631241
0.00633626
0.00632692
0.00628535
0.00621308
0.00611223
0.00598543
0.0058358
0.0056669
0.00548266
0.00528732
0.00508533
0.00488128
0.00467983
0.00448561
0.00430314
0.00413674
0.00399051
0.00386826
0.00377378
0.00371058
0.00367711
0.00110593
0.000943454
0.000762345
0.000590166
0.000422113
0.000257713
9.89783e-05
-5.21757e-05
-0.000194143
-0.000325514
-0.000445072
-0.000551791
-0.000644823
-0.000723469
-0.000787151
-0.000835383
-0.000867748
-0.000883874
-0.000883419
-0.000866059
-0.000831486
-0.000779406
-0.00070954
-0.000621642
-0.000515505
-0.000390981
-0.000248
-8.65914e-05
9.30934e-05
0.000290759
0.00050594
0.000737985
0.00098603
0.00124899
0.00152552
0.00181405
0.00211274
0.0024195
0.002732
0.00304766
0.00336372
0.00367722
0.00398506
0.00428405
0.00457097
0.00484258
0.00509577
0.00532751
0.00553503
0.00571582
0.00586772
0.00598896
0.00607826
0.00613483
0.0061584
0.0061493
0.00610843
0.00603723
0.00593773
0.00581247
0.00566444
0.00549708
0.00531418
0.00511978
0.00491814
0.00471362
0.0045106
0.00431343
0.00412629
0.00395318
0.00379786
0.00366378
0.00355396
0.00347034
0.00341561
0.00135086
0.00115481
0.000942062
0.000747137
0.00056265
0.000386582
0.000220114
6.43885e-05
-7.9739e-05
-0.000211535
-0.000330371
-0.000435733
-0.000527202
-0.000604441
-0.000667164
-0.000715121
-0.000748073
-0.000765782
-0.000767997
-0.000754448
-0.000724848
-0.000678896
-0.000616283
-0.00053671
-0.0004399
-0.000325616
-0.00019369
-4.40386e-05
0.000123309
0.000308183
0.000510255
0.000729008
0.000963714
0.00121342
0.00147693
0.00175278
0.00203927
0.0023344
0.00263593
0.00294139
0.00324807
0.00355305
0.00385329
0.0041456
0.00442675
0.0046935
0.00494268
0.00517124
0.00537632
0.00555535
0.00570608
0.00582666
0.00591571
0.00597235
0.00599622
0.00598756
0.00594716
0.00587639
0.00577718
0.00565197
0.00550366
0.00533559
0.00515141
0.00495504
0.00475057
0.0045422
0.00433411
0.00413042
0.00393507
0.00375179
0.00358409
0.00343517
0.00330729
0.00320091
0.00312319
0.00158799
0.0013584
0.00111352
0.00089479
0.000692418
0.000502983
0.000326936
0.000164721
1.65075e-05
-0.000117599
-0.000237529
-0.000343254
-0.000434773
-0.000512102
-0.000575247
-0.000624189
-0.000658875
-0.000679199
-0.000685004
-0.000676076
-0.00065215
-0.000612916
-0.000558034
-0.000487146
-0.000399899
-0.000295964
-0.000175064
-3.69954e-05
0.00011834
0.000290912
0.000480529
0.000686819
0.000909196
0.00114685
0.0013987
0.00166344
0.00193945
0.00222485
0.0025175
0.00281497
0.0031146
0.00341352
0.00370869
0.00399691
0.00427491
0.0045394
0.00478714
0.00501498
0.00521999
0.00539945
0.005551
0.00567269
0.00576297
0.00582086
0.00584587
0.00583812
0.00579829
0.00572765
0.00562804
0.00550178
0.00535172
0.00518108
0.00499343
0.00479259
0.00458256
0.00436739
0.00415113
0.00393776
0.00373105
0.00353456
0.00335161
0.00318523
0.00303703
0.00290611
0.00280423
0.00181005
0.00154733
0.00127033
0.00102727
0.000806108
0.000602141
0.000415167
0.000244996
9.11656e-05
-4.68057e-05
-0.000169371
-0.000276964
-0.000369985
-0.000448786
-0.000513657
-0.000564809
-0.000602363
-0.000626348
-0.000636697
-0.000633249
-0.000615758
-0.000583904
-0.000537308
-0.00047555
-0.000398195
-0.000304814
-0.000195014
-6.84644e-05
7.50709e-05
0.000235704
0.000413395
0.000607917
0.000818834
0.00104548
0.00128691
0.00154193
0.00180906
0.00208649
0.00237216
0.00266372
0.00295852
0.00325373
0.00354626
0.0038329
0.00411032
0.00437513
0.004624
0.00485366
0.00506101
0.00524322
0.00539775
0.00552247
0.0056157
0.00567627
0.00570354
0.00569749
0.00565867
0.00558822
0.00548786
0.00535986
0.00520694
0.00503228
0.00483937
0.00463196
0.00441399
0.00418945
0.00396232
0.00373648
0.00351562
0.00330319
0.00310245
0.00291634
0.00274592
0.00258905
0.00246219
0.00201049
0.00171528
0.00140652
0.001139
0.000898574
0.000679334
0.000480488
0.000301268
0.00014062
-2.48278e-06
-0.000128986
-0.000239759
-0.000335581
-0.000417129
-0.00048496
-0.000539502
-0.000581047
-0.00060975
-0.000625627
-0.000628565
-0.000618332
-0.00059459
-0.000556917
-0.000504825
-0.000437789
-0.000355274
-0.000256761
-0.000141786
-9.96767e-06
0.00013896
0.00030511
0.000488414
0.00068859
0.000905114
0.0011372
0.00138376
0.00164342
0.0019145
0.00219498
0.00248256
0.00277464
0.00306836
0.00336062
0.00364815
0.00392752
0.00419526
0.00444787
0.00468193
0.00489419
0.0050816
0.00524144
0.00537136
0.00546949
0.00553444
0.00556541
0.00556218
0.00552514
0.0054553
0.00535426
0.00522417
0.0050677
0.00488793
0.00468834
0.00447263
0.00424473
0.00400859
0.0037682
0.00352741
0.00328991
0.00305912
0.00283832
0.00263044
0.00243614
0.00225214
0.00209963
0.0021833
0.00185642
0.0015165
0.00122468
0.000964838
0.000729916
0.000518578
0.000329517
0.000161128
1.18697e-05
-0.000119667
-0.000234763
-0.000334554
-0.000420023
-0.000491979
-0.000551055
-0.000597701
-0.000632187
-0.000654605
-0.000664882
-0.00066279
-0.000647969
-0.000619943
-0.000578151
-0.000521969
-0.000450746
-0.000363834
-0.000260624
-0.000140579
-3.27414e-06
0.000151568
0.000324044
0.000514033
0.000721167
0.000944798
0.00118398
0.00143746
0.00170362
0.00198055
0.00226597
0.00255731
0.0028517
0.00314599
0.00343683
0.0037207
0.00399397
0.004253
0.00449417
0.00471402
0.00490927
0.00507696
0.0052145
0.00531976
0.00539112
0.00542755
0.00542862
0.00539452
0.00532609
0.00522479
0.00509268
0.00493232
0.00474676
0.00453943
0.00431405
0.00407454
0.00382491
0.00356917
0.00331124
0.00305485
0.00280351
0.00256058
0.00232909
0.00210937
0.00189715
0.00171837
0.00232292
0.0019653
0.00159498
0.00127926
0.00100009
0.000749338
0.000525144
0.000325696
0.000148867
-7.36941e-06
-0.000144862
-0.000265278
-0.000370091
-0.000460569
-0.000537757
-0.000602477
-0.000655325
-0.000696673
-0.000726677
-0.000745295
-0.000752294
-0.000747281
-0.000729721
-0.000698967
-0.000654291
-0.000594917
-0.000520056
-0.000428947
-0.000320889
-0.000195288
-5.16927e-05
0.000110168
0.000290343
0.000488628
0.00070453
0.000937241
0.00118562
0.00144816
0.00172302
0.00200797
0.00230045
0.00259756
0.00289611
0.00319266
0.00348357
0.00376505
0.00403325
0.00428436
0.00451465
0.00472058
0.00489891
0.00504676
0.0051617
0.00524185
0.00528587
0.00529309
0.00526347
0.00519766
0.00509696
0.00496328
0.0047991
0.00460744
0.00439169
0.0041556
0.00390315
0.00363841
0.00336551
0.00308848
0.00281119
0.00253728
0.00227028
0.00201344
0.00176684
0.00152529
0.00131956
0.00242411
0.00203677
0.00163696
0.00129791
0.000999697
0.000733158
0.000495947
0.000285761
9.99758e-05
-6.38991e-05
-0.000208127
-0.000334741
-0.000445534
-0.000542037
-0.000625516
-0.000696967
-0.000757114
-0.000806419
-0.000845092
-0.000873106
-0.000890217
-0.000895987
-0.000889812
-0.00087095
-0.00083856
-0.000791732
-0.000729526
-0.000651018
-0.000555335
-0.000441702
-0.000309482
-0.00015822
1.2315e-05
0.000202092
0.000410783
0.000637729
0.000881916
0.00114195
0.00141606
0.00170207
0.00199744
0.00229925
0.00260424
0.00290888
0.00320938
0.00350178
0.00378202
0.00404603
0.0042898
0.00450948
0.00470151
0.00486268
0.00499021
0.00508186
0.00513601
0.00515166
0.00512851
0.00506697
0.00496813
0.00483376
0.00466626
0.00446856
0.00424408
0.0039966
0.00373017
0.00344901
0.00315739
0.00285952
0.00255947
0.00226111
0.00196823
0.00168433
0.00140937
0.00113728
0.000903785
0.00248195
0.00206597
0.00163769
0.001276
0.000959172
0.000677055
0.000426824
0.000205701
1.05862e-05
-0.000161456
-0.000313085
-0.000446681
-0.000564333
-0.000667822
-0.000758617
-0.000837869
-0.000906417
-0.0009648
-0.00101327
-0.0010518
-0.00108012
-0.00109774
-0.00110398
-0.00109799
-0.00107881
-0.00104538
-0.000996597
-0.000931371
-0.000848642
-0.000747441
-0.000626936
-0.000486474
-0.000325628
-0.000144241
5.75353e-05
0.000279205
0.000519897
0.000778337
0.00105284
0.00134129
0.00164117
0.00194953
0.00226307
0.00257815
0.00289081
0.00319692
0.00349216
0.00377219
0.00403268
0.00426945
0.00447854
0.00465636
0.00479975
0.00490607
0.00497331
0.00500012
0.00498589
0.00493072
0.00483549
0.00470178
0.00453187
0.00432864
0.00409549
0.00383628
0.00355517
0.00325654
0.00294486
0.00262461
0.0023001
0.00197552
0.00165497
0.00134233
0.00103746
0.000733497
0.000471212
0.00249176
0.00204829
0.00159265
0.0012091
0.000874206
0.000576841
0.000313706
8.15676e-05
-0.00012314
-0.000303778
-0.000463385
-0.000604672
-0.000730008
-0.000841405
-0.000940517
-0.00102864
-0.0011067
-0.00117532
-0.00123475
-0.00128498
-0.0013257
-0.00135635
-0.00137616
-0.00138416
-0.00137926
-0.00136024
-0.00132585
-0.00127478
-0.0012058
-0.00111772
-0.0010095
-0.00088028
-0.000729418
-0.000556553
-0.000361643
-0.000145003
9.26528e-05
0.000350188
0.000626021
0.000918111
0.00122396
0.00154063
0.00186474
0.00219255
0.00251996
0.0028426
0.00315592
0.00345526
0.00373594
0.00399337
0.00422321
0.00442141
0.00458434
0.00470892
0.0047927
0.0048339
0.00483154
0.00478537
0.004696
0.00456479
0.00439386
0.00418603
0.0039447
0.00367379
0.00337761
0.00306074
0.00272792
0.00238391
0.00203339
0.00168087
0.00133092
0.000987798
0.000651362
0.00031397
2.1648e-05
0.00244905
0.00197932
0.00149749
0.00109298
0.000740658
0.000428466
0.000152639
-9.0504e-05
-0.000304982
-0.000494569
-0.000662667
-0.000812302
-0.000946105
-0.00106631
-0.00117473
-0.00127279
-0.00136152
-0.00144156
-0.0015132
-0.00157639
-0.00163079
-0.00167575
-0.00171041
-0.00173367
-0.00174429
-0.0017409
-0.00172204
-0.00168623
-0.00163202
-0.00155799
-0.00146289
-0.00134562
-0.00120531
-0.00104138
-0.00085356
-0.000641979
-0.000407164
-0.000150095
0.00012777
0.000424483
0.000737594
0.00106416
0.00140077
0.00174355
0.00208827
0.00243033
0.00276491
0.003087
0.00339154
0.00367353
0.00392814
0.00415081
0.00433741
0.00448433
0.00458861
0.00464799
0.004661
0.00462703
0.00454632
0.00441998
0.00424995
0.00403894
0.00379035
0.00350817
0.00319689
0.00286131
0.00250648
0.00213752
0.00175953
0.00137745
0.000996315
0.00062092
0.000251128
-0.00012147
-0.000445341
0.00234958
0.00185487
0.00134812
0.000923594
0.000554564
0.00022804
-6.01945e-05
-0.000314265
-0.000538631
-0.000737466
-0.000914523
-0.00107313
-0.00121616
-0.00134605
-0.00146478
-0.00157388
-0.00167444
-0.00176715
-0.0018523
-0.00192981
-0.00199927
-0.00205996
-0.00211088
-0.00215083
-0.0021784
-0.00219204
-0.00219009
-0.00217087
-0.00213269
-0.00207392
-0.00199305
-0.00188873
-0.00175984
-0.00160555
-0.00142537
-0.00121918
-0.00098731
-0.000730557
-0.000450226
-0.000148152
0.000173289
0.000511174
0.000862054
0.00122198
0.00158654
0.00195092
0.00231001
0.00265846
0.00299077
0.00330148
0.00358522
0.00383689
0.00405176
0.00422563
0.00435494
0.00443684
0.00446936
0.00445139
0.00438277
0.00426427
0.00409762
0.00388538
0.00363094
0.00333836
0.00301231
0.00265786
0.0022804
0.0018855
0.00147869
0.00106545
0.000651366
0.000241804
-0.000163301
-0.00057314
-0.000930356
0.00218929
0.00167097
0.00114063
0.000697114
0.000312147
-2.81544e-05
-0.00032846
-0.000593332
-0.00082766
-0.001036
-0.00122246
-0.00139063
-0.00154365
-0.00168412
-0.00181416
-0.00193542
-0.00204903
-0.00215572
-0.00225576
-0.00234903
-0.00243505
-0.002513
-0.00258178
-0.00264002
-0.00268614
-0.00271842
-0.00273499
-0.00273395
-0.00271335
-0.00267133
-0.00260609
-0.00251604
-0.00239977
-0.00225618
-0.00208451
-0.00188439
-0.00165591
-0.00139964
-0.00111672
-0.000808835
-0.000478253
-0.000127851
0.000238909
0.000617999
0.00100486
0.00139447
0.00178141
0.00215994
0.00252414
0.00286801
0.00318562
0.00347124
0.00371948
0.00392545
0.0040849
0.00419434
0.00425116
0.00425367
0.00420123
0.00409422
0.00393406
0.00372314
0.0034648
0.00316317
0.0028231
0.00244996
0.00204955
0.00162788
0.00119104
0.000745082
0.00029624
-0.00014948
-0.000592034
-0.00104142
-0.00143408
0.00196435
0.00142384
0.000871329
0.000409909
9.83303e-06
-0.000343645
-0.000655645
-0.000931158
-0.00117549
-0.00139359
-0.00158986
-0.0017682
-0.00193195
-0.0020839
-0.0022263
-0.00236087
-0.00248881
-0.00261084
-0.00272723
-0.0028378
-0.002942
-0.00303889
-0.00312725
-0.00320556
-0.00327206
-0.00332482
-0.00336177
-0.00338074
-0.00337957
-0.00335608
-0.00330823
-0.0032341
-0.00313201
-0.00300054
-0.00283864
-0.00264564
-0.00242136
-0.00216614
-0.00188086
-0.00156704
-0.0012268
-0.000862958
-0.000478938
-7.88258e-05
0.000332694
0.000750379
0.00116851
0.00158097
0.00198135
0.00236311
0.00271968
0.00304463
0.00333184
0.00357565
0.00377102
0.0039137
0.00400032
0.00402855
0.00399714
0.00390599
0.00375613
0.00354975
0.00329007
0.00298128
0.0026284
0.00223715
0.00181373
0.00136471
0.000896753
0.000416581
-6.88598e-05
-0.000552835
-0.00103516
-0.00152669
-0.00195718
0.00167115
0.00110996
0.000536759
5.85786e-05
-0.000355732
-0.000721751
-0.00104504
-0.00133101
-0.00158538
-0.00181345
-0.00201997
-0.00220907
-0.00238432
-0.00254866
-0.00270448
-0.00285356
-0.00299715
-0.00313597
-0.00327025
-0.00339978
-0.00352389
-0.00364155
-0.00375139
-0.00385173
-0.00394063
-0.00401595
-0.00407538
-0.00411651
-0.00413688
-0.00413406
-0.00410568
-0.00404951
-0.00396353
-0.00384601
-0.00369553
-0.00351113
-0.0032923
-0.00303906
-0.00275206
-0.00243257
-0.00208254
-0.00170465
-0.00130227
-0.000879507
-0.00044115
7.36446e-06
0.000460019
0.000910304
0.00135133
0.00177594
0.00217689
0.00254699
0.0028793
0.00316729
0.00340502
0.00358736
0.00371009
0.00377007
0.00376536
0.00369524
0.00356031
0.00336242
0.00310465
0.0027912
0.00242728
0.00201892
0.00157281
0.00109608
0.000596083
8.02594e-05
-0.000443641
-0.000968077
-0.0014927
-0.00202925
-0.00250029
0.00130633
0.00072605
0.000133713
-0.000360033
-0.000787666
-0.00116556
-0.0014997
-0.00179593
-0.00206036
-0.00229864
-0.00251582
-0.00271629
-0.00290381
-0.0030815
-0.00325183
-0.00341666
-0.00357728
-0.0037344
-0.00388822
-0.00403844
-0.00418433
-0.00432472
-0.00445811
-0.00458264
-0.00469617
-0.00479635
-0.00488063
-0.00494633
-0.00499071
-0.00501102
-0.00500456
-0.00496877
-0.00490125
-0.00479991
-0.00466298
-0.0044891
-0.0042774
-0.00402757
-0.00373994
-0.00341548
-0.00305593
-0.00266377
-0.00224228
-0.00179554
-0.0013284
-0.000846469
-0.000356043
0.000135977
0.000622186
0.00109482
0.00154588
0.00196737
0.00235143
0.00269054
0.00297778
0.00320699
0.00337296
0.00347162
0.00350016
0.00345717
0.00334264
0.00315803
0.00290618
0.00259127
0.00221866
0.00179472
0.00132663
0.000822154
0.000289382
-0.000263442
-0.000827673
-0.00139487
-0.00196449
-0.00254924
-0.00306386
0.000866788
0.000269087
-0.000340755
-0.00084882
-0.00128883
-0.0016779
-0.00202246
-0.00232874
-0.00260323
-0.00285195
-0.00308022
-0.00329268
-0.00349328
-0.00368527
-0.00387125
-0.00405313
-0.00423221
-0.0044092
-0.00458427
-0.00475704
-0.00492668
-0.00509192
-0.00525108
-0.00540213
-0.00554275
-0.00567034
-0.0057821
-0.00587508
-0.00594623
-0.00599248
-0.00601077
-0.00599817
-0.00595189
-0.00586944
-0.00574862
-0.00558767
-0.0053853
-0.00514081
-0.00485413
-0.00452592
-0.00415759
-0.0037514
-0.00331047
-0.00283879
-0.00234123
-0.00182354
-0.00129225
-0.000754658
-0.000218674
0.000307286
0.000814466
0.00129395
0.00173689
0.0021347
0.00247931
0.0027634
0.00298062
0.00312581
0.00319515
0.00318634
0.00309867
0.00293306
0.00269203
0.00237966
0.00200142
0.001564
0.00107511
0.000543196
-2.28568e-05
-0.000613907
-0.00122033
-0.00183268
-0.00245019
-0.00308659
-0.00364814
0.000349733
-0.000263653
-0.0008893
-0.00141039
-0.00186179
-0.00226133
-0.00261585
-0.00293196
-0.00321654
-0.00347592
-0.00371572
-0.00394079
-0.00415528
-0.00436258
-0.00456536
-0.00476561
-0.00496464
-0.00516315
-0.00536126
-0.00555853
-0.00575402
-0.00594633
-0.00613363
-0.00631373
-0.00648407
-0.00664184
-0.00678398
-0.00690724
-0.00700825
-0.0070836
-0.00712984
-0.00714365
-0.00712183
-0.00706143
-0.00695979
-0.0068147
-0.00662439
-0.0063877
-0.00610412
-0.0057739
-0.0053981
-0.00497865
-0.00451844
-0.00402131
-0.0034921
-0.00293662
-0.00236164
-0.00177479
-0.00118449
-0.000599821
-3.03412e-05
0.000514081
0.00102351
0.00148816
0.00189871
0.00224652
0.00252393
0.00272449
0.00284321
0.00287673
0.00282344
0.00268358
0.00245924
0.00215429
0.00177427
0.00132617
0.000818217
0.000259588
-0.000339957
-0.000970299
-0.00162072
-0.00228069
-0.00294914
-0.00364094
-0.00425307
-0.000247327
-0.000874583
-0.00151427
-0.00204706
-0.00250884
-0.00291812
-0.00328212
-0.00360785
-0.00390253
-0.00417281
-0.00442457
-0.0046629
-0.0048921
-0.00511571
-0.00533648
-0.00555645
-0.00577695
-0.00599867
-0.00622167
-0.00644545
-0.00666898
-0.00689071
-0.00710868
-0.00732049
-0.0075234
-0.00771435
-0.00788999
-0.0080468
-0.00818107
-0.008289
-0.00836679
-0.00841065
-0.00841694
-0.00838222
-0.00830335
-0.00817757
-0.00800261
-0.00777677
-0.00749904
-0.00716918
-0.0067878
-0.00635644
-0.00587768
-0.00535514
-0.00479353
-0.00419869
-0.00357753
-0.002938
-0.002289
-0.00164026
-0.00100219
-0.000385644
0.000198261
0.000738461
0.00122421
0.0016454
0.00199287
0.0022587
0.00243649
0.00252162
0.0025114
0.0024052
0.00220451
0.00191289
0.00153583
0.00108061
0.000555987
-2.81244e-05
-0.000661018
-0.0013315
-0.00202765
-0.00273772
-0.00346033
-0.00421155
-0.00487822
-0.000926535
-0.00156578
-0.00221769
-0.00276079
-0.00323193
-0.0036502
-0.00402321
-0.00435832
-0.00466311
-0.00494451
-0.00520868
-0.0054609
-0.00570564
-0.00594657
-0.00618652
-0.00642757
-0.00667109
-0.00691774
-0.00716754
-0.00741992
-0.00767374
-0.00792734
-0.0081786
-0.00842494
-0.00866342
-0.00889072
-0.00910323
-0.00929711
-0.00946832
-0.00961267
-0.00972593
-0.00980387
-0.00984237
-0.00983745
-0.00978542
-0.00968297
-0.00952722
-0.00931589
-0.00904739
-0.0087209
-0.0083365
-0.00789526
-0.00739934
-0.00685204
-0.00625789
-0.00562263
-0.00495327
-0.00425801
-0.00354619
-0.00282818
-0.00211523
-0.00141923
-0.000752544
-0.000127628
0.000443223
0.000948253
0.0013766
0.00171864
0.00196637
0.00211362
0.00215641
0.00209302
0.00192416
0.0016529
0.0012846
0.000826737
0.000288564
-0.000319206
-0.000984871
-0.00169607
-0.00243955
-0.00320221
-0.00398232
-0.00479723
-0.00552271
-0.00168967
-0.00233896
-0.00300122
-0.00355324
-0.00403267
-0.00445917
-0.0048407
-0.00518496
-0.00549985
-0.0057926
-0.0060696
-0.00633633
-0.00659743
-0.00685667
-0.00711698
-0.00738049
-0.00764857
-0.00792187
-0.00820039
-0.00848347
-0.00876989
-0.00905787
-0.00934514
-0.00962894
-0.00990611
-0.0101731
-0.010426
-0.0106607
-0.0108728
-0.0110577
-0.0112107
-0.0113271
-0.0114023
-0.0114318
-0.0114112
-0.0113366
-0.0112045
-0.011012
-0.0107568
-0.0104374
-0.0100532
-0.00960484
-0.00909387
-0.00852321
-0.00789704
-0.00722097
-0.00650198
-0.00574844
-0.00497009
-0.00417789
-0.00338391
-0.00260112
-0.00184314
-0.00112397
-0.000457552
0.000142518
0.000663472
0.00109376
0.00142346
0.00164465
0.00175173
0.00174167
0.00161413
0.00137153
0.00101894
0.000563926
1.62121e-05
-0.000612695
-0.00131003
-0.00206215
-0.00285437
-0.00367209
-0.00451315
-0.00539625
-0.00618509
-0.0025381
-0.00319547
-0.00386615
-0.00442566
-0.00491233
-0.00534627
-0.00573582
-0.00608898
-0.00641396
-0.00671825
-0.00700847
-0.00729031
-0.00756854
-0.00784706
-0.00812888
-0.00841617
-0.00871033
-0.009012
-0.00932114
-0.00963704
-0.00995838
-0.0102833
-0.0106093
-0.0109336
-0.0112526
-0.0115628
-0.0118598
-0.0121393
-0.0123964
-0.0126262
-0.0128235
-0.0129832
-0.0131
-0.0131688
-0.0131847
-0.0131431
-0.0130397
-0.0128709
-0.0126336
-0.0123257
-0.0119458
-0.0114938
-0.0109707
-0.0103788
-0.009722
-0.00900547
-0.00823613
-0.00742244
-0.0065744
-0.00570353
-0.00482267
-0.00394587
-0.00308807
-0.00226484
-0.00149195
-0.000784985
-0.000158835
0.000372754
0.00079768
0.00110594
0.00129002
0.00134525
0.00126999
0.00106575
0.000737105
0.000291596
-0.000260655
-0.000907355
-0.00163462
-0.00242746
-0.00326958
-0.00414472
-0.00505021
-0.00600625
-0.00686328
-0.00347282
-0.00413624
-0.00481342
-0.00537897
-0.00587178
-0.00631239
-0.00670943
-0.00707121
-0.00740623
-0.00772223
-0.00802603
-0.00832351
-0.0086196
-0.00891831
-0.00922271
-0.00953506
-0.00985675
-0.0101884
-0.0105301
-0.0108808
-0.0112394
-0.0116037
-0.0119713
-0.012339
-0.0127033
-0.0130601
-0.013405
-0.0137333
-0.0140398
-0.014319
-0.0145655
-0.0147734
-0.014937
-0.0150506
-0.0151085
-0.0151054
-0.0150363
-0.0148967
-0.0146828
-0.0143914
-0.0140206
-0.0135693
-0.0130379
-0.0124278
-0.0117425
-0.0109868
-0.0101672
-0.00929224
-0.00837209
-0.00741868
-0.00644559
-0.00546788
-0.00450185
-0.0035647
-0.00267413
-0.00184787
-0.00110318
-0.000456245
7.83327e-05
0.000488128
0.000763376
0.000897403
0.000886931
0.000732252
0.000437243
9.20885e-06
-0.000541432
-0.00120163
-0.00195636
-0.00278916
-0.00368199
-0.00461676
-0.00559024
-0.00662412
-0.00755445
-0.00449436
-0.00516181
-0.00584353
-0.00641366
-0.00691153
-0.007358
-0.007762
-0.0081321
-0.00847707
-0.00880487
-0.00912255
-0.00943615
-0.00975074
-0.0100704
-0.0103984
-0.010737
-0.0110876
-0.0114508
-0.0118267
-0.0122143
-0.0126123
-0.0130185
-0.0134303
-0.0138444
-0.0142571
-0.0146642
-0.0150609
-0.0154421
-0.0158023
-0.0161357
-0.0164363
-0.0166977
-0.0169137
-0.0170777
-0.0171835
-0.0172249
-0.0171962
-0.0170918
-0.0169072
-0.0166383
-0.0162821
-0.0158367
-0.0153015
-0.0146773
-0.0139666
-0.0131738
-0.0123051
-0.0113688
-0.0103749
-0.00933593
-0.00826592
-0.00718094
-0.0060986
-0.00503779
-0.00401821
-0.00305992
-0.00218271
-0.00140552
-0.000745757
-0.000218638
0.000163419
0.000391338
0.000459811
0.000367565
0.000117447
-0.000283686
-0.000825279
-0.0014936
-0.00227244
-0.0031438
-0.00408774
-0.00508414
-0.00612909
-0.0072459
-0.00825487
-0.00560282
-0.00627227
-0.00695659
-0.00752987
-0.0080317
-0.00848322
-0.00889361
-0.00927169
-0.00962645
-0.0099661
-0.0102979
-0.0106279
-0.0109615
-0.0113029
-0.0116553
-0.0120211
-0.0124018
-0.012798
-0.0132097
-0.013636
-0.0140755
-0.0145259
-0.0149845
-0.0154479
-0.0159123
-0.016373
-0.0168252
-0.0172634
-0.0176818
-0.0180742
-0.018434
-0.0187543
-0.0190283
-0.0192487
-0.0194086
-0.0195009
-0.019519
-0.0194565
-0.0193078
-0.0190678
-0.0187325
-0.0182989
-0.0177655
-0.017132
-0.0164001
-0.0155735
-0.0146578
-0.013661
-0.012593
-0.0114663
-0.0102956
-0.00909774
-0.00789159
-0.00669773
-0.00553794
-0.00443471
-0.00341059
-0.00248751
-0.00168602
-0.00102454
-0.000518575
-0.000180044
-1.67452e-05
-3.19454e-05
-0.000224199
-0.000587398
-0.00111106
-0.00178086
-0.00257947
-0.00348723
-0.00448214
-0.00554187
-0.00666171
-0.00786665
-0.00895983
-0.00679786
-0.00746731
-0.00815233
-0.00872732
-0.00923203
-0.00968778
-0.0101039
-0.0104896
-0.0108539
-0.0112054
-0.0115513
-0.011898
-0.012251
-0.0126146
-0.0129921
-0.013386
-0.0137977
-0.0142281
-0.014677
-0.0151437
-0.0156265
-0.0161232
-0.0166311
-0.0171465
-0.0176654
-0.0181832
-0.0186945
-0.0191938
-0.0196748
-0.0201308
-0.0205549
-0.0209395
-0.0212772
-0.0215601
-0.0217804
-0.0219303
-0.0220021
-0.0219885
-0.0218828
-0.0216788
-0.0213714
-0.0209563
-0.020431
-0.0197941
-0.0190463
-0.0181902
-0.0172308
-0.0161755
-0.0150341
-0.0138188
-0.0125447
-0.0112293
-0.00989266
-0.00855699
-0.00724617
-0.0059852
-0.00479957
-0.00371445
-0.00275388
-0.00193988
-0.00129149
-0.000824018
-0.000548254
-0.000469959
-0.000589543
-0.000902019
-0.00139725
-0.00206052
-0.00287336
-0.00381445
-0.00485957
-0.00598396
-0.00718196
-0.00848029
-0.00966346
-0.00807867
-0.00874619
-0.00943005
-0.0100054
-0.0105119
-0.010971
-0.0113923
-0.0117851
-0.0121587
-0.0125217
-0.0128817
-0.0132452
-0.0136177
-0.0140038
-0.0144068
-0.0148293
-0.0152729
-0.0157384
-0.0162257
-0.016734
-0.0172617
-0.0178066
-0.0183658
-0.0189357
-0.0195119
-0.0200898
-0.0206638
-0.021228
-0.0217757
-0.0223
-0.0227933
-0.0232476
-0.0236548
-0.0240064
-0.0242936
-0.0245077
-0.0246403
-0.0246829
-0.0246276
-0.0244672
-0.0241951
-0.0238061
-0.0232961
-0.0226626
-0.021905
-0.0210247
-0.0200261
-0.0189159
-0.0177031
-0.0163997
-0.0150208
-0.0135844
-0.0121116
-0.0106263
-0.00915428
-0.00772319
-0.00636154
-0.00509798
-0.00396037
-0.00297471
-0.00216413