/*--------------------------------*- C++ -*----------------------------------*\
  =========                 |
  \\      /  F ield         | OpenFOAM: The Open Source CFD Toolbox
   \\    /   O peration     | Website:  https://openfoam.org
    \\  /    A nd           | Version:  12
     \\/     M anipulation  |
\*---------------------------------------------------------------------------*/
FoamFile
{
    format      ascii;
    class       volVectorField;
    location    "5.5";
    object      U;
}
// * * * * * * * * * * * * * * * * * * * * * * * * * * * * * * * * * * * * * //

dimensions      [0 1 -1 0 0 0 0];

internalField   nonuniform List<vector> 
5625
(
(8.8725e-06 -8.8697e-06 0)
(4.06967e-05 -1.27539e-05 0)
(7.12354e-05 -1.10285e-05 0)
(8.66231e-05 -6.74324e-06 0)
(7.75826e-05 -1.73564e-06 0)
(4.10731e-05 3.31252e-06 0)
(-2.29981e-05 8.05697e-06 0)
(-0.00011329 1.23339e-05 0)
(-0.000227697 1.60874e-05 0)
(-0.000363742 1.93186e-05 0)
(-0.000518816 2.2056e-05 0)
(-0.00069033 2.43404e-05 0)
(-0.000875795 2.62167e-05 0)
(-0.00107287 2.77296e-05 0)
(-0.00127937 2.89204e-05 0)
(-0.00149328 2.98263e-05 0)
(-0.00171276 3.04795e-05 0)
(-0.00193607 3.09067e-05 0)
(-0.00216163 3.11292e-05 0)
(-0.00238794 3.11631e-05 0)
(-0.00261358 3.102e-05 0)
(-0.00283719 3.07068e-05 0)
(-0.00305745 3.0227e-05 0)
(-0.00327306 2.95806e-05 0)
(-0.0034827 2.87655e-05 0)
(-0.0036851 2.77775e-05 0)
(-0.00387892 2.66114e-05 0)
(-0.00406286 2.52616e-05 0)
(-0.00423558 2.37227e-05 0)
(-0.00439573 2.199e-05 0)
(-0.00454198 2.00604e-05 0)
(-0.004673 1.79329e-05 0)
(-0.00478748 1.56089e-05 0)
(-0.00488418 1.30929e-05 0)
(-0.00496191 1.03921e-05 0)
(-0.00501955 7.51712e-06 0)
(-0.00505612 4.48463e-06 0)
(-0.00507075 1.3232e-06 0)
(-0.00506276 -1.96261e-06 0)
(-0.00503159 -5.32886e-06 0)
(-0.00497695 -8.74964e-06 0)
(-0.00489873 -1.21885e-05 0)
(-0.0047971 -1.56063e-05 0)
(-0.00467245 -1.89611e-05 0)
(-0.00452549 -2.2209e-05 0)
(-0.00435718 -2.53045e-05 0)
(-0.00416877 -2.82015e-05 0)
(-0.00396181 -3.08542e-05 0)
(-0.0037381 -3.32183e-05 0)
(-0.00349974 -3.52514e-05 0)
(-0.00324903 -3.69147e-05 0)
(-0.00298854 -3.81734e-05 0)
(-0.00272099 -3.89982e-05 0)
(-0.00244929 -3.93652e-05 0)
(-0.00217644 -3.92577e-05 0)
(-0.00190552 -3.86658e-05 0)
(-0.00163965 -3.75873e-05 0)
(-0.00138192 -3.60274e-05 0)
(-0.00113536 -3.39994e-05 0)
(-0.000902863 -3.15237e-05 0)
(-0.000687164 -2.86282e-05 0)
(-0.000490778 -2.53476e-05 0)
(-0.00031595 -2.17233e-05 0)
(-0.000164607 -1.78037e-05 0)
(-3.83008e-05 -1.36444e-05 0)
(6.18493e-05 -9.3109e-06 0)
(0.000135233 -4.88042e-06 0)
(0.000181852 -4.52693e-07 0)
(0.00020246 3.8371e-06 0)
(0.000198778 7.79078e-06 0)
(0.000173807 1.11079e-05 0)
(0.000132308 1.33375e-05 0)
(8.18847e-05 1.37642e-05 0)
(3.48852e-05 1.0987e-05 0)
(4.39541e-06 4.39235e-06 0)
(1.28628e-05 -4.07808e-05 0)
(6.05397e-05 -6.02105e-05 0)
(9.13675e-05 -4.03868e-05 0)
(7.97243e-05 7.85766e-07 0)
(7.75156e-06 5.18335e-05 0)
(-0.000131913 0.000105942 0)
(-0.000340622 0.000159123 0)
(-0.000616209 0.000209123 0)
(-0.000954357 0.000254739 0)
(-0.00134952 0.000295419 0)
(-0.00179552 0.000331005 0)
(-0.00228601 0.000361576 0)
(-0.00281465 0.000387345 0)
(-0.00337533 0.000408596 0)
(-0.00396224 0.000425638 0)
(-0.0045699 0.000438781 0)
(-0.00519315 0.000448313 0)
(-0.00582716 0.000454489 0)
(-0.00646738 0.000457525 0)
(-0.00710951 0.000457596 0)
(-0.00774941 0.000454836 0)
(-0.00838312 0.000449338 0)
(-0.00900678 0.000441161 0)
(-0.00961657 0.000430335 0)
(-0.0102087 0.000416867 0)
(-0.0107795 0.000400747 0)
(-0.0113252 0.000381957 0)
(-0.0118419 0.000360475 0)
(-0.012326 0.000336289 0)
(-0.0127737 0.000309398 0)
(-0.0131813 0.00027982 0)
(-0.0135452 0.0002476 0)
(-0.0138618 0.000212817 0)
(-0.0141277 0.000175584 0)
(-0.0143398 0.000136054 0)
(-0.0144952 9.44206e-05 0)
(-0.0145912 5.0933e-05 0)
(-0.0146257 5.9618e-06 0)
(-0.014597 -4.02889e-05 0)
(-0.0145037 -8.73467e-05 0)
(-0.0143452 -0.00013479 0)
(-0.0141214 -0.000182149 0)
(-0.0138328 -0.000228914 0)
(-0.0134809 -0.000274552 0)
(-0.0130676 -0.000318504 0)
(-0.0125957 -0.000360204 0)
(-0.0120686 -0.000399082 0)
(-0.0114908 -0.000434578 0)
(-0.0108672 -0.000466152 0)
(-0.0102034 -0.000493296 0)
(-0.00950592 -0.000515545 0)
(-0.00878155 -0.000532488 0)
(-0.00803773 -0.000543779 0)
(-0.00728225 -0.000549148 0)
(-0.00652322 -0.000548405 0)
(-0.00576893 -0.00054145 0)
(-0.00502773 -0.000528277 0)
(-0.00430789 -0.000508979 0)
(-0.0036175 -0.000483748 0)
(-0.0029643 -0.000452876 0)
(-0.00235557 -0.000416756 0)
(-0.00179797 -0.000375882 0)
(-0.00129741 -0.00033085 0)
(-0.000858914 -0.00028236 0)
(-0.000486437 -0.000231234 0)
(-0.000182729 -0.000178429 0)
(5.08897e-05 -0.000125076 0)
(0.000214776 -7.25492e-05 0)
(0.000311295 -2.25633e-05 0)
(0.000345261 2.26611e-05 0)
(0.000324502 6.01598e-05 0)
(0.000260615 8.58906e-05 0)
(0.000170448 9.43562e-05 0)
(7.87329e-05 7.87737e-05 0)
(1.09068e-05 3.47934e-05 0)
(1.13011e-05 -7.17815e-05 0)
(4.12399e-05 -9.13214e-05 0)
(3.07023e-05 -3.00485e-05 0)
(-4.92641e-05 7.70487e-05 0)
(-0.000218896 0.000207166 0)
(-0.000487484 0.000345621 0)
(-0.000857229 0.000483071 0)
(-0.00132566 0.000613753 0)
(-0.00188723 0.000734293 0)
(-0.00253442 0.000842886 0)
(-0.00325863 0.000938758 0)
(-0.00405072 0.00102179 0)
(-0.00490145 0.00109228 0)
(-0.00580169 0.00115075 0)
(-0.00674264 0.00119786 0)
(-0.00771586 0.0012343 0)
(-0.00871334 0.00126072 0)
(-0.00972747 0.00127774 0)
(-0.010751 0.00128588 0)
(-0.011777 0.00128559 0)
(-0.0127989 0.00127721 0)
(-0.0138103 0.00126098 0)
(-0.0148048 0.00123708 0)
(-0.0157763 0.00120561 0)
(-0.0167188 0.00116661 0)
(-0.0176261 0.00112009 0)
(-0.0184924 0.00106604 0)
(-0.0193115 0.00100445 0)
(-0.0200776 0.000935338 0)
(-0.0207847 0.000858738 0)
(-0.021427 0.000774755 0)
(-0.0219989 0.000683564 0)
(-0.022495 0.000585423 0)
(-0.02291 0.000480688 0)
(-0.0232391 0.000369824 0)
(-0.023478 0.000253411 0)
(-0.0236228 0.000132159 0)
(-0.0236703 6.92185e-06 0)
(-0.0236178 -0.000121379 0)
(-0.0234638 -0.000251666 0)
(-0.0232072 -0.000382747 0)
(-0.0228483 -0.000513335 0)
(-0.022388 -0.000642057 0)
(-0.0218287 -0.000767468 0)
(-0.0211735 -0.000888077 0)
(-0.0204269 -0.00100237 0)
(-0.0195946 -0.00110882 0)
(-0.0186831 -0.00120595 0)
(-0.0177004 -0.00129233 0)
(-0.0166551 -0.00136662 0)
(-0.0155572 -0.00142759 0)
(-0.0144172 -0.00147416 0)
(-0.0132466 -0.00150542 0)
(-0.0120572 -0.00152068 0)
(-0.0108616 -0.00151944 0)
(-0.00967239 -0.00150146 0)
(-0.00850231 -0.00146673 0)
(-0.00736402 -0.00141553 0)
(-0.00626985 -0.00134839 0)
(-0.0052316 -0.00126612 0)
(-0.00426033 -0.00116982 0)
(-0.00336617 -0.00106083 0)
(-0.00255803 -0.000940827 0)
(-0.00184348 -0.000811749 0)
(-0.0012284 -0.000675876 0)
(-0.000716814 -0.000535859 0)
(-0.000310528 -0.000394804 0)
(-8.81648e-06 -0.000256403 0)
(0.000192004 -0.000125133 0)
(0.000299089 -6.53458e-06 0)
(0.000323649 9.23955e-05 0)
(0.000281632 0.000162746 0)
(0.000195065 0.000193268 0)
(9.50092e-05 0.000170562 0)
(1.3668e-05 8.16812e-05 0)
(7.15861e-06 -8.78903e-05 0)
(-1.25056e-07 -7.98657e-05 0)
(-7.80251e-05 5.00932e-05 0)
(-0.000254054 0.000251271 0)
(-0.000546615 0.000489714 0)
(-0.000964658 0.000742445 0)
(-0.00151015 0.000994061 0)
(-0.00218002 0.00123455 0)
(-0.00296765 0.00145769 0)
(-0.00386406 0.00165991 0)
(-0.00485881 0.00183944 0)
(-0.00594067 0.0019957 0)
(-0.00709809 0.00212893 0)
(-0.00831956 0.00223983 0)
(-0.0095938 0.0023294 0)
(-0.0109099 0.00239872 0)
(-0.0122573 0.0024489 0)
(-0.0136261 0.00248097 0)
(-0.0150065 0.00249583 0)
(-0.0163894 0.00249425 0)
(-0.0177657 0.00247685 0)
(-0.0191268 0.0024441 0)
(-0.0204642 0.00239631 0)
(-0.0217696 0.0023337 0)
(-0.0230347 0.00225639 0)
(-0.0242514 0.00216443 0)
(-0.0254116 0.00205787 0)
(-0.0265072 0.00193674 0)
(-0.0275304 0.00180113 0)
(-0.0284733 0.00165117 0)
(-0.0293283 0.00148715 0)
(-0.030088 0.00130945 0)
(-0.0307451 0.00111862 0)
(-0.0312931 0.000915415 0)
(-0.0317258 0.000700764 0)
(-0.0320375 0.000475826 0)
(-0.0322233 0.000241988 0)
(-0.0322792 8.69037e-07 0)
(-0.0322021 -0.000245713 0)
(-0.03199 -0.000495706 0)
(-0.0316418 -0.000746853 0)
(-0.0311579 -0.00099672 0)
(-0.0305401 -0.00124272 0)
(-0.0297912 -0.00148213 0)
(-0.0289159 -0.00171218 0)
(-0.0279201 -0.00193002 0)
(-0.026811 -0.00213283 0)
(-0.0255977 -0.00231784 0)
(-0.0242902 -0.00248241 0)
(-0.0229002 -0.00262404 0)
(-0.0214404 -0.00274048 0)
(-0.0199247 -0.00282972 0)
(-0.0183677 -0.00289011 0)
(-0.0167851 -0.00292034 0)
(-0.015193 -0.00291953 0)
(-0.0136076 -0.00288723 0)
(-0.0120456 -0.00282347 0)
(-0.0105233 -0.00272877 0)
(-0.00905656 -0.00260417 0)
(-0.00766069 -0.0024512 0)
(-0.00634995 -0.00227195 0)
(-0.00513738 -0.00206901 0)
(-0.0040345 -0.00184554 0)
(-0.00305099 -0.00160525 0)
(-0.00219442 -0.00135249 0)
(-0.0014699 -0.00109227 0)
(-0.000879751 -0.00083042 0)
(-0.000423099 -0.00057377 0)
(-9.54463e-05 -0.000330409 0)
(0.000111829 -0.000110056 0)
(0.000211988 7.54673e-05 0)
(0.000223474 0.000211705 0)
(0.000171117 0.000281095 0)
(8.90894e-05 0.000262739 0)
(1.3419e-05 0.000132686 0)
(2.16891e-06 -7.92581e-05 0)
(-5.30052e-05 -6.2971e-06 0)
(-0.000214298 0.000223039 0)
(-0.00050483 0.000545702 0)
(-0.00093824 0.000918113 0)
(-0.00152129 0.00130969 0)
(-0.00225456 0.00169915 0)
(-0.00313376 0.00207213 0)
(-0.00415101 0.00241935 0)
(-0.00529596 0.00273516 0)
(-0.00655661 0.00301657 0)
(-0.00791999 0.00326234 0)
(-0.0093727 0.00347249 0)
(-0.0109013 0.00364781 0)
(-0.0124923 0.00378957 0)
(-0.0141329 0.00389924 0)
(-0.0158103 0.00397835 0)
(-0.0175124 0.00402836 0)
(-0.0192275 0.0040506 0)
(-0.0209442 0.00404619 0)
(-0.0226514 0.00401605 0)
(-0.0243385 0.0039609 0)
(-0.0259949 0.00388125 0)
(-0.0276103 0.00377745 0)
(-0.0291744 0.00364973 0)
(-0.0306773 0.00349825 0)
(-0.0321089 0.00332312 0)
(-0.0334594 0.00312449 0)
(-0.034719 0.00290256 0)
(-0.0358783 0.00265767 0)
(-0.0369279 0.00239032 0)
(-0.0378588 0.00210123 0)
(-0.0386626 0.00179138 0)
(-0.0393311 0.00146201 0)
(-0.0398571 0.00111469 0)
(-0.0402339 0.000751339 0)
(-0.0404557 0.000374204 0)
(-0.040518 -1.41092e-05 0)
(-0.040417 -0.000410662 0)
(-0.0401506 -0.000812178 0)
(-0.0397178 -0.00121507 0)
(-0.0391193 -0.00161549 0)
(-0.0383572 -0.00200934 0)
(-0.0374354 -0.00239237 0)
(-0.0363594 -0.00276017 0)
(-0.0351365 -0.00310831 0)
(-0.0337756 -0.00343238 0)
(-0.0322876 -0.00372806 0)
(-0.0306847 -0.0039912 0)
(-0.0289807 -0.00421793 0)
(-0.0271911 -0.00440473 0)
(-0.0253324 -0.0045485 0)
(-0.0234223 -0.00464665 0)
(-0.0214793 -0.00469717 0)
(-0.0195227 -0.00469869 0)
(-0.0175721 -0.00465054 0)
(-0.0156472 -0.00455276 0)
(-0.0137676 -0.00440622 0)
(-0.0119522 -0.00421254 0)
(-0.0102194 -0.0039742 0)
(-0.00858613 -0.00369447 0)
(-0.00706809 -0.0033775 0)
(-0.00567902 -0.00302829 0)
(-0.00443053 -0.00265274 0)
(-0.00333173 -0.00225771 0)
(-0.00238883 -0.00185109 0)
(-0.00160479 -0.00144198 0)
(-0.0009789 -0.00104089 0)
(-0.000506397 -0.000660037 0)
(-0.000177976 -0.000313789 0)
(2.06157e-05 -1.91344e-05 0)
(0.000109024 0.000203711 0)
(0.000113286 0.000330724 0)
(6.83486e-05 0.000333291 0)
(1.16356e-05 0.000176605 0)
(-3.0684e-06 -4.18076e-05 0)
(-0.000111379 0.000139518 0)
(-0.000365381 0.000502382 0)
(-0.00078208 0.000975022 0)
(-0.00136843 0.00150625 0)
(-0.00212758 0.00205907 0)
(-0.00305772 0.00260698 0)
(-0.00415265 0.00313157 0)
(-0.00540287 0.00362055 0)
(-0.00679651 0.00406624 0)
(-0.00832006 0.00446425 0)
(-0.00995902 0.00481263 0)
(-0.0116984 0.00511105 0)
(-0.0135229 0.00536033 0)
(-0.0154176 0.00556191 0)
(-0.0173677 0.00571762 0)
(-0.0193586 0.00582939 0)
(-0.0213764 0.00589911 0)
(-0.0234075 0.00592852 0)
(-0.0254386 0.00591909 0)
(-0.0274568 0.00587209 0)
(-0.0294497 0.00578847 0)
(-0.0314048 0.00566897 0)
(-0.03331 0.00551412 0)
(-0.0351533 0.00532429 0)
(-0.0369229 0.00509975 0)
(-0.0386071 0.00484077 0)
(-0.0401944 0.00454763 0)
(-0.0416735 0.00422075 0)
(-0.0430334 0.00386069 0)
(-0.0442631 0.00346831 0)
(-0.0453526 0.00304473 0)
(-0.0462918 0.00259146 0)
(-0.0470717 0.0021104 0)
(-0.047684 0.0016039 0)
(-0.0481209 0.00107476 0)
(-0.0483763 0.000526282 0)
(-0.0484448 -3.77452e-05 0)
(-0.0483224 -0.000613068 0)
(-0.0480068 -0.00119497 0)
(-0.0474972 -0.00177832 0)
(-0.0467943 -0.00235759 0)
(-0.0459009 -0.00292698 0)
(-0.0448214 -0.0034804 0)
(-0.0435625 -0.00401164 0)
(-0.0421323 -0.0045144 0)
(-0.0405415 -0.00498244 0)
(-0.0388022 -0.00540965 0)
(-0.0369286 -0.00579018 0)
(-0.0349366 -0.00611858 0)
(-0.0328437 -0.00638986 0)
(-0.0306689 -0.00659966 0)
(-0.0284324 -0.00674434 0)
(-0.0261553 -0.00682105 0)
(-0.0238597 -0.00682788 0)
(-0.0215679 -0.00676386 0)
(-0.0193025 -0.00662911 0)
(-0.0170857 -0.00642483 0)
(-0.0149395 -0.00615337 0)
(-0.0128847 -0.00581822 0)
(-0.0109408 -0.0054241 0)
(-0.00912575 -0.00497691 0)
(-0.0074555 -0.00448377 0)
(-0.00594343 -0.00395311 0)
(-0.00460017 -0.00339464 0)
(-0.00343312 -0.00281953 0)
(-0.00244608 -0.00224054 0)
(-0.00163889 -0.00167222 0)
(-0.00100699 -0.00113126 0)
(-0.000541058 -0.000636899 0)
(-0.000226684 -0.000211453 0)
(-4.39876e-05 0.000119092 0)
(3.30842e-05 0.000324369 0)
(3.84524e-05 0.00036845 0)
(9.05832e-06 0.000207184 0)
(-8.26506e-06 2.59515e-05 0)
(-0.000171847 0.000362554 0)
(-0.000523401 0.000895822 0)
(-0.00107301 0.00154838 0)
(-0.00181984 0.00226347 0)
(-0.00276242 0.00299907 0)
(-0.00389569 0.00372435 0)
(-0.00521095 0.00441743 0)
(-0.00669665 0.00506336 0)
(-0.00833915 0.0056525 0)
(-0.0101234 0.00617922 0)
(-0.0120333 0.00664078 0)
(-0.0140525 0.00703652 0)
(-0.0161642 0.00736719 0)
(-0.0183519 0.0076344 0)
(-0.0205991 0.00784029 0)
(-0.0228898 0.00798717 0)
(-0.0252085 0.00807731 0)
(-0.0275399 0.00811285 0)
(-0.0298691 0.00809564 0)
(-0.0321817 0.00802724 0)
(-0.0344633 0.0079089 0)
(-0.0367 0.00774159 0)
(-0.0388781 0.00752601 0)
(-0.0409839 0.00726273 0)
(-0.0430042 0.00695217 0)
(-0.0449256 0.00659477 0)
(-0.0467352 0.00619102 0)
(-0.0484203 0.00574159 0)
(-0.0499683 0.00524738 0)
(-0.0513672 0.00470964 0)
(-0.0526056 0.00413003 0)
(-0.0536724 0.00351068 0)
(-0.0545575 0.00285425 0)
(-0.0552517 0.00216401 0)
(-0.0557466 0.0014438 0)
(-0.0560353 0.000698131 0)
(-0.056112 -6.78739e-05 0)
(-0.0559724 -0.000848467 0)
(-0.055614 -0.00163731 0)
(-0.0550359 -0.00242752 0)
(-0.0542393 -0.00321172 0)
(-0.0532272 -0.00398216 0)
(-0.0520046 -0.00473076 0)
(-0.0505789 -0.00544925 0)
(-0.0489594 -0.00612927 0)
(-0.0471577 -0.00676255 0)
(-0.0451875 -0.00734098 0)
(-0.0430644 -0.00785683 0)
(-0.040806 -0.00830287 0)
(-0.0384318 -0.0086725 0)
(-0.0359628 -0.00895994 0)
(-0.0334213 -0.00916036 0)
(-0.0308309 -0.00926998 0)
(-0.0282159 -0.00928625 0)
(-0.0256012 -0.00920789 0)
(-0.0230118 -0.00903504 0)
(-0.0204727 -0.00876929 0)
(-0.0180081 -0.00841374 0)
(-0.0156413 -0.00797305 0)
(-0.0133942 -0.00745346 0)
(-0.011287 -0.00686284 0)
(-0.00933747 -0.00621067 0)
(-0.007561 -0.00550811 0)
(-0.00596973 -0.00476804 0)
(-0.00457241 -0.00400517 0)
(-0.00337395 -0.00323617 0)
(-0.00237505 -0.00247993 0)
(-0.00157182 -0.00175779 0)
(-0.000955497 -0.00109401 0)
(-0.000512153 -0.000516223 0)
(-0.000222434 -5.60844e-05 0)
(-6.11763e-05 0.000250016 0)
(3.25813e-06 0.000359591 0)
(6.1276e-06 0.000221007 0)
(-1.32896e-05 0.000124322 0)
(-0.000232527 0.000664871 0)
(-0.000683564 0.00140724 0)
(-0.00136936 0.00227089 0)
(-0.00228073 0.00319536 0)
(-0.00341095 0.00413497 0)
(-0.00475111 0.0050556 0)
(-0.00628946 0.0059326 0)
(-0.008012 0.00674884 0)
(-0.00990311 0.00749307 0)
(-0.011946 0.00815853 0)
(-0.014123 0.00874182 0)
(-0.0164164 0.00924199 0)
(-0.0188079 0.00965972 0)
(-0.0212795 0.0099968 0)
(-0.0238137 0.0102556 0)
(-0.0263929 0.0104389 0)
(-0.0290001 0.0105492 0)
(-0.0316187 0.0105891 0)
(-0.0342323 0.0105608 0)
(-0.0368251 0.0104662 0)
(-0.0393812 0.0103068 0)
(-0.0418854 0.0100838 0)
(-0.0443223 0.00979807 0)
(-0.0466771 0.00945042 0)
(-0.0489349 0.00904147 0)
(-0.0510812 0.00857184 0)
(-0.0531016 0.00804231 0)
(-0.0549821 0.00745383 0)
(-0.056709 0.00680771 0)
(-0.0582691 0.00610568 0)
(-0.0596498 0.00535 0)
(-0.0608392 0.00454353 0)
(-0.0618262 0.00368981 0)
(-0.0626006 0.00279311 0)
(-0.0631537 0.00185846 0)
(-0.0634776 0.000891701 0)
(-0.0635663 -0.000100563 0)
(-0.0634152 -0.00111094 0)
(-0.0630215 -0.00213132 0)
(-0.0623844 -0.00315289 0)
(-0.061505 -0.00416628 0)
(-0.0603867 -0.00516161 0)
(-0.059035 -0.0061286 0)
(-0.0574578 -0.00705676 0)
(-0.0556653 -0.00793551 0)
(-0.0536699 -0.00875433 0)
(-0.0514865 -0.00950298 0)
(-0.049132 -0.0101716 0)
(-0.0466256 -0.0107511 0)
(-0.0439882 -0.0112331 0)
(-0.0412426 -0.0116102 0)
(-0.0384132 -0.0118763 0)
(-0.0355254 -0.0120265 0)
(-0.0326059 -0.0120576 0)
(-0.0296817 -0.011968 0)
(-0.0267802 -0.0117577 0)
(-0.0239286 -0.0114287 0)
(-0.0211535 -0.0109849 0)
(-0.0184806 -0.0104322 0)
(-0.0159341 -0.00977845 0)
(-0.0135361 -0.00903364 0)
(-0.0113067 -0.00820974 0)
(-0.00926306 -0.00732086 0)
(-0.007419 -0.00638321 0)
(-0.00578486 -0.00541527 0)
(-0.00436691 -0.00443785 0)
(-0.00316705 -0.00347429 0)
(-0.00218248 -0.00255073 0)
(-0.00140545 -0.00169649 0)
(-0.000823053 -0.000944475 0)
(-0.000417042 -0.000331799 0)
(-0.000163791 9.95558e-05 0)
(-3.47359e-05 0.000301376 0)
(3.10745e-06 0.000216249 0)
(-1.8096e-05 0.000252973 0)
(-0.0002924 0.00104674 0)
(-0.000842993 0.00203796 0)
(-0.00166584 0.00314478 0)
(-0.00274324 0.00430463 0)
(-0.00406284 0.00546947 0)
(-0.00561148 0.00660294 0)
(-0.00737395 0.00767839 0)
(-0.00933349 0.00867709 0)
(-0.0114722 0.00958657 0)
(-0.0137714 0.0103993 0)
(-0.016212 0.0111113 0)
(-0.0187744 0.0117214 0)
(-0.0214393 0.0122304 0)
(-0.0241874 0.0126403 0)
(-0.0269998 0.0129537 0)
(-0.0298578 0.0131736 0)
(-0.0327431 0.0133032 0)
(-0.0356377 0.0133451 0)
(-0.0385243 0.0133021 0)
(-0.0413855 0.0131762 0)
(-0.0442044 0.0129693 0)
(-0.0469643 0.0126828 0)
(-0.0496487 0.0123178 0)
(-0.0522414 0.0118754 0)
(-0.0547264 0.0113563 0)
(-0.0570879 0.0107615 0)
(-0.0593104 0.010092 0)
(-0.0613786 0.00934903 0)
(-0.0632778 0.00853447 0)
(-0.0649939 0.00765056 0)
(-0.0665131 0.00670023 0)
(-0.0678227 0.00568716 0)
(-0.0689107 0.00461584 0)
(-0.0697662 0.00349165 0)
(-0.0703798 0.00232091 0)
(-0.070743 0.00111089 0)
(-0.0708494 -0.000130188 0)
(-0.070694 -0.00139318 0)
(-0.0702737 -0.00266806 0)
(-0.0695877 -0.00394397 0)
(-0.068637 -0.00520937 0)
(-0.0674252 -0.00645211 0)
(-0.0659581 -0.00765959 0)
(-0.0642439 -0.00881893 0)
(-0.0622935 -0.00991713 0)
(-0.0601201 -0.0109413 0)
(-0.0577393 -0.0118789 0)
(-0.0551693 -0.0127178 0)
(-0.0524302 -0.0134468 0)
(-0.0495446 -0.0140556 0)
(-0.0465367 -0.014535 0)
(-0.0434326 -0.0148776 0)
(-0.0402597 -0.0150773 0)
(-0.0370465 -0.0151301 0)
(-0.0338221 -0.0150337 0)
(-0.0306162 -0.0147882 0)
(-0.027458 -0.0143961 0)
(-0.0243767 -0.0138618 0)
(-0.0214 -0.0131926 0)
(-0.0185544 -0.012398 0)
(-0.0158644 -0.0114902 0)
(-0.0133521 -0.0104838 0)
(-0.0110366 -0.00939587 0)
(-0.00893381 -0.00824623 0)
(-0.00705572 -0.00705723 0)
(-0.00541028 -0.00585394 0)
(-0.0040009 -0.0046643 0)
(-0.00282626 -0.00351931 0)
(-0.00188002 -0.00245334 0)
(-0.0011507 -0.0015045 0)
(-0.000621596 -0.000715114 0)
(-0.000271054 -0.00013233 0)
(-7.39924e-05 0.000190682 0)
(1.37657e-07 0.000192067 0)
(-2.26806e-05 0.000411248 0)
(-0.000350933 0.00150733 0)
(-0.000999982 0.00278759 0)
(-0.00195908 0.00417019 0)
(-0.0032021 0.00559181 0)
(-0.0047109 0.00700322 0)
(-0.0064678 0.00836678 0)
(-0.00845388 0.00965466 0)
(-0.0106494 0.0108472 0)
(-0.0130339 0.0119311 0)
(-0.0155867 0.0128983 0)
(-0.0182869 0.0137449 0)
(-0.0211137 0.0144694 0)
(-0.0240463 0.0150728 0)
(-0.0270641 0.0155574 0)
(-0.0301471 0.015926 0)
(-0.0332755 0.0161822 0)
(-0.0364299 0.0163292 0)
(-0.0395913 0.0163704 0)
(-0.0427411 0.0163086 0)
(-0.0458609 0.0161464 0)
(-0.0489328 0.0158856 0)
(-0.0519389 0.0155282 0)
(-0.0548616 0.0150753 0)
(-0.0576836 0.0145282 0)
(-0.0603877 0.013888 0)
(-0.0629572 0.0131559 0)
(-0.0653755 0.0123331 0)
(-0.0676263 0.0114214 0)
(-0.0696939 0.0104231 0)
(-0.0715631 0.00934104 0)
(-0.0732194 0.00817889 0)
(-0.0746492 0.00694119 0)
(-0.0758396 0.00563348 0)
(-0.0767792 0.00426231 0)
(-0.0774577 0.00283538 0)
(-0.0778662 0.00136147 0)
(-0.0779976 -0.000149499 0)
(-0.0778466 -0.00168651 0)
(-0.0774098 -0.00323752 0)
(-0.0766859 -0.00478953 0)
(-0.0756761 -0.00632869 0)
(-0.0743838 -0.00784047 0)
(-0.0728149 -0.0093098 0)
(-0.070978 -0.0107213 0)
(-0.0688842 -0.0120593 0)
(-0.0665471 -0.0133085 0)
(-0.0639833 -0.0144538 0)
(-0.0612116 -0.0154808 0)
(-0.0582532 -0.0163759 0)
(-0.0551319 -0.0171267 0)
(-0.0518732 -0.0177222 0)
(-0.0485048 -0.0181534 0)
(-0.0450557 -0.0184128 0)
(-0.0415562 -0.0184953 0)
(-0.0380376 -0.0183984 0)
(-0.0345315 -0.0181218 0)
(-0.0310694 -0.0176682 0)
(-0.0276827 -0.017043 0)
(-0.0244015 -0.0162545 0)
(-0.0212545 -0.0153141 0)
(-0.0182687 -0.014236 0)
(-0.0154683 -0.0130376 0)
(-0.0128748 -0.0117392 0)
(-0.010506 -0.0103641 0)
(-0.0083761 -0.00893878 0)
(-0.00649495 -0.00749262 0)
(-0.0048678 -0.00605824 0)
(-0.0034951 -0.00467154 0)
(-0.00237226 -0.00337195 0)
(-0.00148959 -0.00220268 0)
(-0.000832231 -0.00121107 0)
(-0.000380736 -0.00044907 0)
(-0.000113634 2.58181e-05 0)
(-2.71673e-06 0.000148195 0)
(-2.70558e-05 0.000598329 0)
(-0.000407856 0.00204519 0)
(-0.00115352 0.00365458 0)
(-0.00224695 0.00534579 0)
(-0.00365378 0.00705579 0)
(-0.00535009 0.00873517 0)
(-0.00731357 0.010346 0)
(-0.0095214 0.01186 0)
(-0.0119506 0.0132571 0)
(-0.0145782 0.0145239 0)
(-0.0173813 0.0156524 0)
(-0.0203372 0.0166383 0)
(-0.0234236 0.0174808 0)
(-0.0266183 0.0181809 0)
(-0.0298996 0.0187412 0)
(-0.0332464 0.0191651 0)
(-0.0366378 0.0194565 0)
(-0.0400536 0.019619 0)
(-0.0434737 0.0196564 0)
(-0.0468785 0.0195717 0)
(-0.0502488 0.0193679 0)
(-0.0535656 0.0190472 0)
(-0.0568101 0.0186116 0)
(-0.0599638 0.0180626 0)
(-0.0630084 0.0174017 0)
(-0.0659258 0.0166301 0)
(-0.0686983 0.0157493 0)
(-0.0713082 0.0147611 0)
(-0.0737386 0.0136675 0)
(-0.0759727 0.0124714 0)
(-0.0779946 0.0111762 0)
(-0.0797888 0.00978641 0)
(-0.0813409 0.00830749 0)
(-0.0826374 0.00674602 0)
(-0.083666 0.00510983 0)
(-0.0844158 0.003408 0)
(-0.0848772 0.00165094 0)
(-0.0850426 -0.000149689 0)
(-0.0849062 -0.00198092 0)
(-0.084464 -0.00382861 0)
(-0.0837145 -0.00567752 0)
(-0.0826584 -0.0075114 0)
(-0.0812991 -0.00931323 0)
(-0.0796423 -0.0110653 0)
(-0.0776966 -0.0127497 0)
(-0.0754733 -0.014348 0)
(-0.0729865 -0.0158421 0)
(-0.0702529 -0.0172145 0)
(-0.0672921 -0.0184479 0)
(-0.0641262 -0.0195265 0)
(-0.0607797 -0.0204356 0)
(-0.0572797 -0.0211622 0)
(-0.0536549 -0.0216952 0)
(-0.049936 -0.022026 0)
(-0.0461552 -0.0221482 0)
(-0.0423455 -0.0220585 0)
(-0.0385406 -0.0217565 0)
(-0.0347744 -0.0212449 0)
(-0.0310805 -0.0205299 0)
(-0.0274913 -0.0196208 0)
(-0.0240382 -0.0185309 0)
(-0.0207505 -0.0172765 0)
(-0.017655 -0.0158778 0)
(-0.0147755 -0.0143582 0)
(-0.0121323 -0.0127449 0)
(-0.00974195 -0.0110682 0)
(-0.0076164 -0.00936219 0)
(-0.00576311 -0.00766408 0)
(-0.00418461 -0.00601478 0)
(-0.00287837 -0.00445875 0)
(-0.00183672 -0.00304423 0)
(-0.00104686 -0.00182348 0)
(-0.000491674 -0.00085295 0)
(-0.000153241 -0.000194098 0)
(-5.43515e-06 8.46695e-05 0)
(-3.12379e-05 0.000813329 0)
(-0.000463038 0.00265843 0)
(-0.00130302 0.00463665 0)
(-0.00252806 0.00666919 0)
(-0.00409588 0.00869419 0)
(-0.00597685 0.010663 0)
(-0.00814401 0.0125381 0)
(-0.0105706 0.0142917 0)
(-0.0132303 0.015904 0)
(-0.0160974 0.0173618 0)
(-0.0191468 0.0186574 0)
(-0.022354 0.0197872 0)
(-0.0256949 0.0207504 0)
(-0.0291463 0.0215489 0)
(-0.0326852 0.0221855 0)
(-0.0362894 0.0226643 0)
(-0.0399372 0.0229894 0)
(-0.0436074 0.0231651 0)
(-0.0472791 0.0231954 0)
(-0.050932 0.0230838 0)
(-0.0545459 0.0228335 0)
(-0.0581009 0.022447 0)
(-0.0615777 0.0219264 0)
(-0.0649567 0.0212737 0)
(-0.0682189 0.0204903 0)
(-0.0713454 0.0195779 0)
(-0.0743176 0.0185383 0)
(-0.077117 0.0173735 0)
(-0.0797259 0.016086 0)
(-0.0821267 0.0146792 0)
(-0.0843026 0.0131572 0)
(-0.0862375 0.0115253 0)
(-0.087916 0.00978993 0)
(-0.0893241 0.00795872 0)
(-0.0904485 0.0060408 0)
(-0.0912776 0.0040467 0)
(-0.0918014 0.00198845 0)
(-0.0920112 -0.000120458 0)
(-0.0919008 -0.00226508 0)
(-0.0914657 -0.0044291 0)
(-0.0907037 -0.00659496 0)
(-0.0896152 -0.00874397 0)
(-0.0882029 -0.0108565 0)
(-0.0864726 -0.0129122 0)
(-0.0844324 -0.0148902 0)
(-0.0820936 -0.0167694 0)
(-0.0794704 -0.0185289 0)
(-0.0765797 -0.0201483 0)
(-0.0734416 -0.0216076 0)
(-0.0700787 -0.0228883 0)
(-0.0665165 -0.0239732 0)
(-0.0627829 -0.0248471 0)
(-0.058908 -0.0254971 0)
(-0.0549239 -0.0259125 0)
(-0.0508644 -0.026086 0)
(-0.0467646 -0.0260131 0)
(-0.0426601 -0.025693 0)
(-0.0385873 -0.0251285 0)
(-0.0345819 -0.0243262 0)
(-0.0306792 -0.0232968 0)
(-0.0269131 -0.0220549 0)
(-0.0233155 -0.0206193 0)
(-0.019916 -0.0190126 0)
(-0.0167411 -0.0172618 0)
(-0.0138138 -0.0153976 0)
(-0.0111532 -0.0134547 0)
(-0.0087738 -0.0114714 0)
(-0.00668557 -0.00948995 0)
(-0.00489338 -0.00755622 0)
(-0.00339698 -0.00571974 0)
(-0.00219097 -0.00403383 0)
(-0.00126472 -0.00255552 0)
(-0.000603475 -0.00134571 0)
(-0.000192704 -0.000469585 0)
(-8.02312e-06 1.63622e-06 0)
(-3.52421e-05 0.00105533 0)
(-0.000516415 0.00334497 0)
(-0.00144808 0.00573103 0)
(-0.00280148 0.00813725 0)
(-0.00452669 0.0105037 0)
(-0.00658856 0.0127833 0)
(-0.0089555 0.0149397 0)
(-0.0115968 0.0169462 0)
(-0.0144828 0.0187839 0)
(-0.0175851 0.0204405 0)
(-0.0208761 0.021909 0)
(-0.0243296 0.0231865 0)
(-0.0279199 0.0242731 0)
(-0.0316223 0.0251711 0)
(-0.035413 0.0258844 0)
(-0.0392686 0.0264172 0)
(-0.0431665 0.0267745 0)
(-0.0470848 0.0269609 0)
(-0.0510019 0.026981 0)
(-0.0548966 0.0268385 0)
(-0.0587481 0.0265369 0)
(-0.062536 0.0260791 0)
(-0.06624 0.0254674 0)
(-0.0698401 0.0247039 0)
(-0.0733163 0.0237904 0)
(-0.0766492 0.0227288 0)
(-0.0798193 0.021521 0)
(-0.0828077 0.0201695 0)
(-0.0855956 0.0186773 0)
(-0.0881649 0.0170482 0)
(-0.090498 0.0152871 0)
(-0.0925779 0.0134 0)
(-0.0943887 0.0113942 0)
(-0.0959154 0.00927858 0)
(-0.097144 0.00706352 0)
(-0.0980623 0.00476099 0)
(-0.0986591 0.00238468 0)
(-0.0989254 -5.00819e-05 0)
(-0.0988539 -0.00252635 0)
(-0.0984395 -0.0050256 0)
(-0.0976793 -0.00752792 0)
(-0.096573 -0.0100121 0)
(-0.0951228 -0.0124558 0)
(-0.0933337 -0.0148358 0)
(-0.0912136 -0.0171286 0)
(-0.0887735 -0.0193099 0)
(-0.0860274 -0.021356 0)
(-0.0829923 -0.0232432 0)
(-0.0796882 -0.0249489 0)
(-0.0761385 -0.0264516 0)
(-0.072369 -0.0277315 0)
(-0.0684086 -0.0287708 0)
(-0.0642885 -0.0295543 0)
(-0.0600423 -0.0300696 0)
(-0.0557054 -0.0303076 0)
(-0.0513147 -0.0302629 0)
(-0.0469081 -0.0299339 0)
(-0.0425242 -0.0293232 0)
(-0.0382014 -0.028438 0)
(-0.0339776 -0.0272897 0)
(-0.0298896 -0.0258947 0)
(-0.0259723 -0.0242736 0)
(-0.0222583 -0.0224522 0)
(-0.018777 -0.0204604 0)
(-0.0155546 -0.0183328 0)
(-0.0126128 -0.0161082 0)
(-0.0099693 -0.0138297 0)
(-0.0076366 -0.0115444 0)
(-0.00562228 -0.00930331 0)
(-0.00392864 -0.00716105 0)
(-0.00255268 -0.00517607 0)
(-0.00148603 -0.00341026 0)
(-0.0007163 -0.00192896 0)
(-0.000232128 -0.000801122 0)
(-1.05018e-05 -0.000100774 0)
(-3.90805e-05 0.00132341 0)
(-0.000567949 0.00410254 0)
(-0.00158847 0.00693455 0)
(-0.00306653 0.00974625 0)
(-0.00494495 0.0124803 0)
(-0.00718319 0.0150918 0)
(-0.0097452 0.0175464 0)
(-0.0125963 0.019819 0)
(-0.0157036 0.0218922 0)
(-0.0190359 0.0237551 0)
(-0.0225633 0.025402 0)
(-0.0262575 0.0268309 0)
(-0.0300915 0.0280432 0)
(-0.0340393 0.0290419 0)
(-0.0380757 0.0298317 0)
(-0.0421766 0.0304178 0)
(-0.0463187 0.0308057 0)
(-0.0504791 0.0310005 0)
(-0.0546357 0.0310072 0)
(-0.0587668 0.0308301 0)
(-0.0628509 0.030473 0)
(-0.066867 0.0299389 0)
(-0.0707943 0.0292305 0)
(-0.074612 0.02835 0)
(-0.0782999 0.0272995 0)
(-0.0818376 0.026081 0)
(-0.0852053 0.0246969 0)
(-0.0883833 0.0231498 0)
(-0.0913522 0.0214433 0)
(-0.0940931 0.0195816 0)
(-0.0965879 0.0175703 0)
(-0.0988188 0.0154162 0)
(-0.100769 0.0131275 0)
(-0.102423 0.0107142 0)
(-0.103766 0.0081878 0)
(-0.104784 0.00556189 0)
(-0.105466 0.00285174 0)
(-0.105802 7.4505e-05 0)
(-0.105784 -0.00275084 0)
(-0.105405 -0.00560357 0)
(-0.104662 -0.00846137 0)
(-0.103554 -0.0113004 0)
(-0.102081 -0.0140957 0)
(-0.100249 -0.0168212 0)
(-0.0980644 -0.0194502 0)
(-0.0955378 -0.0219555 0)
(-0.0926826 -0.0243102 0)
(-0.0895157 -0.0264874 0)
(-0.0860572 -0.0284613 0)
(-0.0823304 -0.0302075 0)
(-0.0783618 -0.0317031 0)
(-0.0741809 -0.0329277 0)
(-0.06982 -0.0338634 0)
(-0.0653139 -0.0344957 0)
(-0.0606997 -0.0348137 0)
(-0.0560162 -0.0348104 0)
(-0.0513036 -0.0344836 0)
(-0.0466028 -0.0338353 0)
(-0.041955 -0.0328728 0)
(-0.037401 -0.0316086 0)
(-0.0329808 -0.0300602 0)
(-0.0287325 -0.0282506 0)
(-0.0246918 -0.026208 0)
(-0.0208917 -0.0239656 0)
(-0.0173616 -0.0215618 0)
(-0.0141266 -0.0190399 0)
(-0.0112074 -0.0164476 0)
(-0.00861975 -0.0138369 0)
(-0.00637404 -0.0112641 0)
(-0.00447535 -0.00878926 0)
(-0.00292327 -0.00647593 0)
(-0.00171177 -0.00439107 0)
(-0.000830709 -0.00260458 0)
(-0.000271757 -0.00118937 0)
(-1.29039e-05 -0.000222536 0)
(-4.27614e-05 0.00161663 0)
(-0.000617605 0.00492877 0)
(-0.00172396 0.0082438 0)
(-0.00332267 0.011492 0)
(-0.0053496 0.0146193 0)
(-0.0077591 0.0175835 0)
(-0.0105107 0.0203529 0)
(-0.013566 0.0229046 0)
(-0.0168889 0.0252234 0)
(-0.0204451 0.0273001 0)
(-0.0242029 0.0291307 0)
(-0.0281319 0.0307147 0)
(-0.0322035 0.0320548 0)
(-0.0363903 0.0331552 0)
(-0.0406663 0.0340217 0)
(-0.0450065 0.0346602 0)
(-0.0493867 0.035077 0)
(-0.0537836 0.035278 0)
(-0.0581743 0.0352687 0)
(-0.0625366 0.0350537 0)
(-0.0668487 0.0346371 0)
(-0.0710889 0.0340224 0)
(-0.0752361 0.0332124 0)
(-0.079269 0.0322095 0)
(-0.0831669 0.031016 0)
(-0.0869089 0.0296343 0)
(-0.0904747 0.0280667 0)
(-0.093844 0.0263164 0)
(-0.0969969 0.0243872 0)
(-0.0999138 0.022284 0)
(-0.102576 0.0200128 0)
(-0.104965 0.0175812 0)
(-0.107063 0.0149984 0)
(-0.108854 0.0122753 0)
(-0.110322 0.00942478 0)
(-0.111453 0.00646171 0)
(-0.112234 0.00340301 0)
(-0.112654 0.00026762 0)
(-0.112704 -0.00292346 0)
(-0.112376 -0.00614732 0)
(-0.111667 -0.00937922 0)
(-0.110573 -0.0125928 0)
(-0.109096 -0.0157602 0)
(-0.107237 -0.0188524 0)
(-0.105004 -0.0218397 0)
(-0.102406 -0.0246917 0)
(-0.0994567 -0.027378 0)
(-0.0961714 -0.0298685 0)
(-0.0925703 -0.0321342 0)
(-0.0886766 -0.034147 0)
(-0.0845172 -0.035881 0)
(-0.0801222 -0.0373126 0)