/*--------------------------------*- C++ -*----------------------------------*\
  =========                 |
  \\      /  F ield         | OpenFOAM: The Open Source CFD Toolbox
   \\    /   O peration     | Website:  https://openfoam.org
    \\  /    A nd           | Version:  12
     \\/     M anipulation  |
\*---------------------------------------------------------------------------*/
FoamFile
{
    format      ascii;
    class       volScalarField;
    location    "8";
    object      epsilon;
}
// * * * * * * * * * * * * * * * * * * * * * * * * * * * * * * * * * * * * * //

dimensions      [0 2 -3 0 0 0 0];

internalField   nonuniform List<scalar> 
5625
(
2.93232e-07
1.98338e-06
4.41441e-06
7.30383e-06
1.05172e-05
1.39704e-05
1.76072e-05
2.13912e-05
2.53045e-05
2.93457e-05
3.35294e-05
3.7886e-05
4.24601e-05
4.73099e-05
5.25061e-05
5.81308e-05
6.42765e-05
7.10444e-05
7.85441e-05
8.68919e-05
9.62099e-05
0.000106625
0.000118267
0.000131269
0.000145763
0.00016188
0.000179752
0.000199503
0.000221253
0.000245115
0.000271194
0.000299585
0.000330371
0.000363625
0.000399407
0.000437764
0.000478728
0.000522314
0.000568522
0.000617327
0.000668677
0.000722484
0.000778617
0.00083688
0.000896999
0.000958598
0.00102117
0.00108406
0.00114641
0.00120714
0.00126495
0.00131824
0.00136511
0.00140323
0.00142903
0.0014406
0.00144103
0.00142249
0.00138396
0.00132529
0.00124708
0.0011511
0.00104044
0.000919354
0.000792968
0.000666672
0.000545526
0.000433676
0.000333965
0.000247795
0.000175248
0.000115448
6.71305e-05
2.95063e-05
4.34602e-06
5.54071e-07
1.08029e-06
2.16449e-06
3.50377e-06
5.00814e-06
6.63134e-06
8.34457e-06
1.013e-05
1.19786e-05
1.38897e-05
1.58702e-05
1.79342e-05
2.0103e-05
2.24041e-05
2.4871e-05
2.75426e-05
3.0463e-05
3.36804e-05
3.72471e-05
4.12186e-05
4.56535e-05
5.06127e-05
5.61589e-05
6.23562e-05
6.92692e-05
7.69623e-05
8.54994e-05
9.49428e-05
0.000105353
0.000116786
0.000129297
0.000142934
0.000157743
0.000173762
0.000191026
0.00020956
0.000229385
0.000250511
0.00027294
0.000296658
0.00032164
0.000347836
0.000375175
0.000403548
0.000432804
0.000462738
0.000493079
0.000523473
0.000553474
0.000582528
0.000609965
0.000634986
0.000656655
0.000673851
0.000684875
0.000689177
0.000687776
0.000677397
0.00065763
0.000628507
0.00059043
0.000544315
0.000491645
0.000434405
0.000374917
0.000315611
0.000258755
0.000206211
0.000159271
0.000118595
8.42636e-05
5.59474e-05
3.32131e-05
1.61535e-05
8.20419e-06
1.17716e-06
1.05284e-06
1.66827e-06
2.5364e-06
3.54494e-06
4.6478e-06
5.82011e-06
7.04757e-06
8.32317e-06
9.646e-06
1.10207e-05
1.24571e-05
1.397e-05
1.55787e-05
1.73067e-05
1.91815e-05
2.12345e-05
2.34999e-05
2.60154e-05
2.88211e-05
3.19596e-05
3.54759e-05
3.94164e-05
4.38295e-05
4.87644e-05
5.42711e-05
6.04002e-05
6.72019e-05
7.47259e-05
8.30209e-05
9.21338e-05
0.000102109
0.000112988
0.000124809
0.000137604
0.000151402
0.000166222
0.000182075
0.000198962
0.000216868
0.000235763
0.000255595
0.000276282
0.000297713
0.000319735
0.000342149
0.000364701
0.000387076
0.000408889
0.000429682
0.000448927
0.00046602
0.000480279
0.000490882
0.000496569
0.000497756
0.000494292
0.000484515
0.000468276
0.000445732
0.000417287
0.000383668
0.000345937
0.000305445
0.000263728
0.000222363
0.000182805
0.000146253
0.000113544
8.51306e-05
6.1118e-05
4.14067e-05
2.59866e-05
1.57712e-05
1.73611e-05
1.92623e-06
1.26207e-06
1.57827e-06
2.18758e-06
2.94394e-06
3.79266e-06
4.7071e-06
5.67297e-06
6.68345e-06
7.73727e-06
8.83798e-06
9.99348e-06
1.12158e-05
1.25208e-05
1.39279e-05
1.54602e-05
1.71437e-05
1.90078e-05
2.10845e-05
2.34087e-05
2.60179e-05
2.89522e-05
3.22539e-05
3.59675e-05
4.01397e-05
4.48188e-05
5.00547e-05
5.58984e-05
6.24018e-05
6.96169e-05
7.75952e-05
8.63864e-05
9.60376e-05
0.000106592
0.000118088
0.000130555
0.000144012
0.000158468
0.000173911
0.000190314
0.000207622
0.000225757
0.000244601
0.000264007
0.000283781
0.000303691
0.000323458
0.000342756
0.000361209
0.0003784
0.000393873
0.000407142
0.000417702
0.000424642
0.000427422
0.000426722
0.000421729
0.000411632
0.000396374
0.000376125
0.000351241
0.000322327
0.000290248
0.000256096
0.000221112
0.000186567
0.000153631
0.000123263
9.61319e-05
7.26094e-05
5.28271e-05
3.68327e-05
2.4944e-05
1.88201e-05
2.82051e-05
2.7788e-06
1.58708e-06
1.66396e-06
2.08991e-06
2.68163e-06
3.37296e-06
4.13339e-06
4.94727e-06
5.80719e-06
6.71143e-06
7.66287e-06
8.66848e-06
9.73901e-06
1.08888e-05
1.21356e-05
1.35006e-05
1.50081e-05
1.66857e-05
1.85641e-05
2.06771e-05
2.30616e-05
2.57579e-05
2.88091e-05
3.22619e-05
3.61657e-05
4.0573e-05
4.55393e-05
5.11223e-05
5.73817e-05
6.43781e-05
7.21726e-05
8.08237e-05
9.03862e-05
0.00010091
0.000112435
0.00012499
0.000138587
0.000153217
0.000168848
0.000185417
0.00020283
0.00022096
0.000239637
0.000258655
0.000277775
0.000296724
0.000315202
0.000332886
0.000349431
0.000364478
0.000377665
0.000388628
0.000397017
0.000401836
0.000403306
0.000401771
0.000396343
0.000386492
0.000372094
0.000353189
0.000330018
0.000303054
0.000273043
0.000240985
0.000208063
0.000175522
0.000144522
0.000116015
9.06656e-05
6.88447e-05
5.07169e-05
3.6435e-05
2.65769e-05
2.3471e-05
4.02745e-05
3.71979e-06
1.98621e-06
1.85101e-06
2.12998e-06
2.5992e-06
3.18008e-06
3.83725e-06
4.55313e-06
5.31939e-06
6.13381e-06
6.99888e-06
7.92114e-06
8.91089e-06
9.98203e-06
1.11519e-05
1.24415e-05
1.3875e-05
1.54805e-05
1.72894e-05
1.9337e-05
2.16625e-05
2.43092e-05
2.73244e-05
3.076e-05
3.46721e-05
3.91209e-05
4.4171e-05
4.98902e-05
5.63492e-05
6.362e-05
7.1775e-05
8.0881e-05
9.09939e-05
0.000102169
0.000114442
0.00012783
0.000142325
0.000157886
0.000174442
0.000191878
0.000210047
0.00022876
0.000247785
0.000266867
0.000285728
0.000304079
0.000321631
0.00033811
0.000353235
0.000366748
0.000378406
0.00038797
0.000395228
0.000399358
0.00040065
0.000399395
0.000394623
0.00038582
0.000372707
0.000355128
0.000333116
0.000306983
0.000277375
0.000245277
0.000211945
0.000178756
0.00014704
0.000117903
9.21225e-05
7.01408e-05
5.21702e-05
3.84439e-05
2.97593e-05
2.906e-05
5.32135e-05
4.74031e-06
2.44101e-06
2.10702e-06
2.25995e-06
2.63082e-06
3.12853e-06
3.71222e-06
4.36189e-06
5.06825e-06
5.82862e-06
6.64527e-06
7.52472e-06
8.47737e-06
9.51735e-06
1.06626e-05
1.19347e-05
1.33594e-05
1.49663e-05
1.67894e-05
1.88671e-05
2.12428e-05
2.39651e-05
2.70878e-05
3.06705e-05
3.47777e-05
3.94796e-05
4.48521e-05
5.0975e-05
5.79306e-05
6.58022e-05
7.46726e-05
8.46163e-05
9.57001e-05
0.000107968
0.000121444
0.000136118
0.000151947
0.000168842
0.000186668
0.000205244
0.000224344
0.000243706
0.00026305
0.000282085
0.000300524
0.000318104
0.000334595
0.000349802
0.000363592
0.000375858
0.000386512
0.000395461
0.000402559
0.000407364
0.00040953
0.000409593
0.000406552
0.000399713
0.000388548
0.000372623
0.000351732
0.000326004
0.000295987
0.000262681
0.000227471
0.000191967
0.00015778
0.000126297
9.85183e-05
7.50312e-05
5.61295e-05
4.2119e-05
3.39951e-05
3.5271e-05
6.67659e-05
5.83557e-06
2.94226e-06
2.41544e-06
2.45545e-06
2.74379e-06
3.17615e-06
3.70589e-06
4.31063e-06
4.97987e-06
5.71049e-06
6.50475e-06
7.3694e-06
8.3154e-06
9.35772e-06
1.05155e-05
1.1812e-05
1.3275e-05
1.49372e-05
1.6836e-05
1.90145e-05
2.15218e-05
2.44131e-05
2.77506e-05
3.16033e-05
3.60477e-05
4.11667e-05
4.70486e-05
5.37865e-05
6.14757e-05
7.02102e-05
8.00765e-05
9.11524e-05
0.000103498
0.000117141
0.000132078
0.000148259
0.000165582
0.000183891
0.000202977
0.000222578
0.000242395
0.000262111
0.000281409
0.0003
0.000317635
0.00033413
0.000349371
0.000363311
0.000375968
0.000387389
0.000397618
0.00040666
0.000414418
0.000420645
0.000424993
0.000426928
0.000426387
0.00042218
0.0004135
0.000399595
0.000380006
0.000354665
0.000324
0.000289005
0.000251193
0.000212431
0.000174676
0.00013968
0.000108766
8.27502e-05
6.20594e-05
4.70884e-05
3.90237e-05
4.19298e-05
8.07519e-05
7.00347e-06
3.48524e-06
2.76701e-06
2.70255e-06
2.91973e-06
3.29947e-06
3.78946e-06
4.36468e-06
5.0135e-06
5.73244e-06
6.52386e-06
7.39504e-06
8.35782e-06
9.42845e-06
1.06278e-05
1.19814e-05
1.35201e-05
1.52803e-05
1.73045e-05
1.96416e-05
2.23477e-05
2.54867e-05
2.91303e-05
3.33584e-05
3.82596e-05
4.39299e-05
5.04714e-05
5.79899e-05
6.65917e-05
7.63781e-05
8.74383e-05
9.98432e-05
0.000113634
0.000128812
0.000145325
0.000163064
0.000181855
0.000201458
0.000221578
0.000241876
0.000261992
0.000281577
0.000300322
0.000317984
0.000334409
0.000349539
0.000363415
0.000376156
0.000387935
0.000398931
0.000409287
0.000419059
0.00042817
0.000436381
0.000443324
0.000448184
0.000450144
0.000448928
0.0004431
0.000431548
0.000413571
0.000388891
0.000357775
0.000321151
0.000280604
0.000238224
0.000196319
0.000157066
0.000122196
9.28472e-05
6.96548e-05
5.31408e-05
4.46979e-05
4.89348e-05
9.5054e-05
8.24378e-06
4.06767e-06
3.15639e-06
2.99289e-06
3.14736e-06
3.48417e-06
3.94545e-06
4.50331e-06
5.14498e-06
5.86668e-06
6.67106e-06
7.56613e-06
8.56491e-06
9.68534e-06
1.09505e-05
1.23891e-05
1.40357e-05
1.59311e-05
1.81236e-05
2.0669e-05
2.36317e-05
2.70849e-05
3.11115e-05
3.58035e-05
4.12625e-05
4.75981e-05
5.49253e-05
6.33614e-05
7.30205e-05
8.40062e-05
9.64023e-05
0.000110262
0.000125597
0.00014236
0.000160438
0.000179644
0.000199717
0.000220326
0.000241091
0.00026161
0.000281492
0.000300396
0.000318068
0.000334366
0.000349272
0.000362893
0.000375434
0.000387173
0.000398405
0.000409399
0.000420343
0.000431297
0.000442157
0.000452632
0.000462236
0.000470238
0.00047516
0.000476575
0.000473811
0.00046491
0.000448942
0.000425417
0.00039439
0.000356635
0.000313708
0.000267834
0.000221636
0.000177734
0.000138346
0.000105033
7.87291e-05
6.01503e-05
5.09315e-05
5.62304e-05
0.000109621
9.55762e-06
4.68871e-06
3.58051e-06
3.32134e-06
3.41942e-06
3.72104e-06
4.16265e-06
4.7132e-06
5.35884e-06
6.09554e-06
6.92636e-06
7.86025e-06
8.91171e-06
1.01008e-05
1.14533e-05
1.30013e-05
1.47838e-05
1.68473e-05
1.92462e-05
2.20444e-05
2.53152e-05
2.91426e-05
3.3621e-05
3.88556e-05
4.4961e-05
5.206e-05
6.02793e-05
6.97447e-05
8.05733e-05
9.2864e-05
0.000106685
0.00012206
0.000138953
0.000157255
0.000176775
0.000197233
0.000218273
0.000239476
0.000260394
0.00028059
0.00029968
0.000317383
0.00033355
0.000348181
0.000361426
0.000373559
0.000384938
0.000395956
0.000406988
0.000418332
0.000430167
0.000442516
0.000455219
0.000467917
0.00048004
0.000490793
0.000498982
0.000502743
0.000502855
0.000496867
0.000483351
0.000461621
0.000431466
0.00039341
0.000348846
0.00030001
0.000249753
0.000201122
0.000156877
0.000119111
8.91672e-05
6.80422e-05
5.76761e-05
6.37802e-05
0.000124399
1.09472e-05
5.34851e-06
4.03775e-06
3.68463e-06
3.7311e-06
4.00398e-06
4.43356e-06
4.98552e-06
5.64485e-06
6.40735e-06
7.27659e-06
8.26268e-06
9.38185e-06
1.06565e-05
1.21158e-05
1.37956e-05
1.574e-05
1.80015e-05
2.06419e-05
2.37335e-05
2.73598e-05
3.16158e-05
3.66083e-05
4.24555e-05
4.92851e-05
5.72316e-05
6.64308e-05
7.70125e-05
8.90909e-05
0.000102751
0.000118033
0.000134917
0.000153306
0.000173011
0.000193748
0.000215141
0.00023674
0.000258053
0.00027859
0.000297921
0.000315718
0.000331806
0.000346183
0.000359019
0.000370632
0.000381444
0.000391925
0.000402533
0.00041366
0.00042558
0.000438422
0.000452145
0.000466525
0.000481151
0.000495408
0.000508473
0.000519381
0.00052602
0.000528214
0.000525354
0.000514729
0.000495485
0.000467115
0.000429795
0.00038462
0.00033368
0.000279921
0.000226759
0.000177527
0.000134946
0.000100902
7.67754e-05
6.49096e-05
7.15698e-05
0.000139379
1.24155e-05
6.04788e-06
4.52745e-06
4.08083e-06
4.07923e-06
4.32888e-06
4.75309e-06
5.31422e-06
5.99603e-06
6.7942e-06
7.7129e-06
8.76353e-06
9.96434e-06
1.13405e-05
1.29245e-05
1.47571e-05
1.68875e-05
1.93751e-05
2.22895e-05
2.57124e-05
2.97377e-05
3.4472e-05
4.00348e-05
4.65568e-05
5.41777e-05
6.30415e-05
7.32893e-05
8.50497e-05
9.84252e-05
0.000113476
0.000130203
0.000148527
0.000168274
0.000189165
0.000210815
0.000232752
0.000254447
0.00027536
0.000295001
0.00031299
0.000329104
0.000343315
0.000355791
0.000366874
0.000377028
0.000386785
0.00039667
0.000407147
0.000418571
0.000431153
0.000444946
0.000459838
0.000475556
0.000491662
0.000507546
0.000522427
0.000535426
0.000544871
0.000549037
0.000549053
0.000541693
0.00052558
0.00049991
0.000464442
0.000419847
0.000367898
0.000311467
0.000254228
0.000200072
0.00015244
0.000113898
8.63357e-05
7.26297e-05
7.96019e-05
0.000154576
1.39664e-05
6.78816e-06
5.04962e-06
4.50888e-06
4.46178e-06
4.693e-06
5.11777e-06
5.69517e-06
6.40764e-06
7.25069e-06
8.22922e-06
9.35607e-06
1.06517e-05
1.21443e-05
1.38703e-05
1.58752e-05
1.82145e-05
2.09546e-05
2.41736e-05
2.79628e-05
3.24272e-05
3.76851e-05
4.38682e-05
5.1119e-05
5.95871e-05
6.94229e-05
8.07681e-05
9.37425e-05
0.000108428
0.00012485
0.000142953
0.000162587
0.000183489
0.000205281
0.000227481
0.00024953
0.000270844
0.000290872
0.000309169
0.00032545
0.000339639
0.000351877
0.000362507
0.00037202
0.000380989
0.00039
0.000399577
0.000410137
0.000421959
0.000435167
0.000449733
0.000465486
0.00048212
0.000499207
0.000516181
0.000532337
0.000546858
0.000558549
0.000565292
0.000567348
0.000563519
0.000551042
0.000528869
0.000496318
0.000453538
0.000401818
0.000343759
0.000283125
0.000224305
0.000171514
0.000128137
9.673e-05
8.08493e-05
8.78908e-05
0.000170026
1.56042e-05
7.57107e-06
5.60479e-06
4.96833e-06
4.87763e-06
5.09449e-06
5.52525e-06
6.12558e-06
6.87644e-06
7.77318e-06
8.82145e-06
1.00357e-05
1.14387e-05
1.30621e-05
1.49464e-05
1.71425e-05
1.97123e-05
2.27297e-05
2.62818e-05
3.04699e-05
3.54099e-05
4.12318e-05
4.80786e-05
5.61031e-05
6.54622e-05
7.63086e-05
8.87781e-05
0.000102974
0.000118948
0.000136676
0.000156037
0.000176797
0.000198597
0.000220959
0.00024331
0.000265031
0.000285513
0.000304238
0.000320847
0.000335194
0.000347373
0.000357699
0.000366672
0.000374896
0.000383003
0.000391577
0.00040109
0.000411874
0.000424113
0.000437836
0.000452943
0.000469219
0.000486355
0.000503959
0.000521532
0.000538476
0.000554095
0.000567373
0.000576694
0.000580661
0.000580072
0.000571528
0.000553437
0.000524694
0.000484883
0.00043467
0.000376174
0.000313036
0.000250009
0.000192089
0.000143613
0.000107977
8.95917e-05
9.64595e-05
0.000185772
1.73338e-05
8.39865e-06
6.19383e-06
5.45926e-06
5.32624e-06
5.53227e-06
5.97407e-06
6.60365e-06
7.40034e-06
8.35926e-06
9.48686e-06
1.07992e-05
1.23219e-05
1.40897e-05
1.6148e-05
1.85532e-05
2.13739e-05
2.46919e-05
2.86035e-05
3.322e-05
3.86682e-05
4.50891e-05
5.26359e-05
6.14692e-05
7.17498e-05
8.36274e-05
9.72257e-05
0.000112622
0.000129827
0.000148756
0.000169212
0.000190869
0.000213269
0.000235841
0.000257943
0.000278918
0.000298177
0.000315276
0.000329982
0.000342315
0.000352544
0.000361149
0.00036875
0.00037602
0.000383595
0.000392012
0.000401655
0.000412745
0.00042537
0.000439471
0.000454892
0.000471397
0.00048869
0.000506419
0.000524178
0.000541479
0.000557751
0.000572124
0.000583581
0.000589967
0.000591705
0.000587162
0.000573457
0.000549145
0.000513262
0.000465769
0.000408098
0.000343517
0.000276936
0.000214075
0.000160323
0.0001201
9.88874e-05
0.000105336
0.000201866
1.91605e-05
9.27323e-06
6.81793e-06
5.98211e-06
5.8075e-06
6.0058e-06
6.46341e-06
7.12832e-06
7.97806e-06
9.00745e-06
1.02237e-05
1.16447e-05
1.32986e-05
1.52242e-05
1.74714e-05
2.01026e-05
2.31932e-05
2.68334e-05
3.11285e-05
3.61999e-05
4.21846e-05
4.92335e-05
5.75081e-05
6.71743e-05
7.83924e-05
9.13036e-05
0.000106011
0.000122558
0.000140902
0.000160891
0.000182241
0.000204532
0.000227211
0.000249631
0.000271101
0.000290968
0.000308699
0.000323963
0.000336684
0.000347057
0.00035552
0.000362687
0.000369255
0.000375932
0.000383315
0.000391803
0.000401698
0.000413138
0.000426105
0.000440467
0.000456031
0.000472555
0.00048977
0.000507381
0.000525057
0.000542423
0.000559016
0.000574117
0.000586943
0.000595843
0.000599498
0.000598454
0.00058914
0.000569549
0.000538266
0.00049453
0.00043893
0.000374085
0.000304792
0.000237352
0.000178251
0.000133125
0.000108771
0.00011455
0.000218359
2.10903e-05
1.01974e-05
7.47851e-06
6.5376e-06
6.32168e-06
6.515e-06
6.993e-06
7.69915e-06
8.609e-06
9.71695e-06
1.1031e-05
1.25708e-05
1.43673e-05
1.64632e-05
1.89135e-05
2.17863e-05
2.51646e-05
2.91465e-05
3.38465e-05
3.93954e-05
4.59397e-05
5.36389e-05
6.26604e-05
7.31718e-05
8.53281e-05
9.92555e-05
0.000115029
0.000132649
0.000152011
0.000172886
0.000194901
0.000217542
0.000240176
0.000262097
0.0002826
0.000301069
0.000317068
0.000330409
0.000341187
0.000349769
0.000356741
0.000362811
0.000368785
0.000375198
0.000382589
0.000391342
0.000401626
0.000413441
0.000426722
0.000441276
0.000456887
0.000473319
0.000490343
0.000507721
0.00052519
0.000542465
0.000559162
0.000574667
0.000588314
0.000599104
0.000604856
0.000606207
0.000601017
0.000586088
0.000559722
0.000520511
0.000468107
0.00040423
0.000333234
0.000261759
0.000197368
0.000147076
0.000119276
0.000124133
0.000235299
2.31291e-05
1.11738e-05
8.17718e-06
7.12671e-06
6.86936e-06
7.06017e-06
7.56294e-06
8.31612e-06
9.29304e-06
1.04875e-05
1.19081e-05
1.35765e-05
1.55265e-05
1.78047e-05
2.04711e-05
2.36003e-05
2.72822e-05
3.16231e-05
3.67461e-05
4.2791e-05
4.99126e-05
5.82768e-05
6.80545e-05
7.94106e-05
9.249e-05
0.000107397
0.000124171
0.00014276
0.000162992
0.000184555
0.000206988
0.000229693
0.00025197
0.000273083
0.000292345
0.000309216
0.000323385
0.000334827
0.000343811
0.000350859
0.00035668
0.000362115
0.000367697
0.000374128
0.000381822
0.000391022
0.000401776
0.000414024
0.000427626
0.000442358
0.000457996
0.000474326
0.000491151
0.000508277
0.000525499
0.000542594
0.000559244
0.00057492
0.000589074
0.000600926
0.000608697
0.000611669
0.000609879
0.000599226
0.000577708
0.000543443
0.000495145
0.000433433
0.000361866
0.000287088
0.000217616
0.000161967
0.000130433
0.000134112
0.000252727
2.52837e-05
1.22055e-05
8.91575e-06
7.75061e-06
7.45136e-06
7.64189e-06
8.17367e-06
8.97961e-06
1.00304e-05
1.13192e-05
1.28551e-05
1.46614e-05
1.6775e-05
1.92466e-05
2.21414e-05
2.554e-05
2.95395e-05
3.42539e-05
3.98146e-05
4.63693e-05
5.40795e-05
6.31156e-05
7.36481e-05
8.58357e-05
9.98069e-05
0.000115638
0.000133325
0.000152758
0.000173691
0.000195729
0.000218329
0.000240819
0.000262457
0.000282505
0.00030033
0.000315495
0.000327839
0.000337505
0.000344928
0.000350768
0.000355879
0.00036084
0.00036644
0.000373186
0.000381389
0.000391161
0.000402461
0.000415226
0.000429195
0.000444147
0.000459864
0.000476155
0.000492849
0.000509788
0.000526809
0.000543731
0.000560274
0.000575973
0.000590353
0.000602728
0.000611934
0.000616226
0.000616697
0.000609676
0.000592566
0.000563275
0.000519683
0.000461202
0.000390256
0.000313083
0.000238905
0.000177803
0.000142267
0.000144512
0.000270678
2.75608e-05
1.32956e-05
9.69614e-06
8.41064e-06
8.06874e-06
8.26101e-06
8.82595e-06
9.69029e-06
1.08218e-05
1.22124e-05
1.38718e-05
1.5825e-05
1.81119e-05
2.07871e-05
2.3921e-05
2.76004e-05
3.19291e-05
3.70287e-05
4.30378e-05
5.01108e-05
5.84144e-05
6.81203e-05
7.93959e-05
9.23883e-05
0.000107205
0.000123887
0.000142382
0.000162515
0.000183967
0.000206263
0.000228783
0.000250804
0.000271563
0.000290354
0.000306623
0.000320065
0.000330678
0.00033877
0.000344917
0.000349981
0.000354551
0.000359486
0.000365397
0.000372693
0.000381554
0.000391992
0.000404006
0.000417346
0.000431753
0.000447008
0.000462902
0.000479261
0.00049594
0.000512812
0.000529738
0.000546565
0.000563033
0.000578709
0.000593146
0.000605709
0.000615594
0.000620996
0.000622611
0.000618343
0.000604879
0.000580191
0.000541528
0.00048711
0.000417958
0.000339437
0.000261109
0.000194576
0.000154786
0.000155353
0.000289176
2.99679e-05
1.44475e-05
1.05205e-05
9.10832e-06
8.72267e-06
8.91858e-06
9.52077e-06
1.04491e-05
1.16679e-05
1.31677e-05
1.49586e-05
1.7067e-05
1.95357e-05
2.24236e-05
2.5806e-05
2.97755e-05
3.44426e-05
3.99355e-05
4.63993e-05
5.39937e-05
6.28881e-05
7.32533e-05
8.52492e-05
9.90072e-05
0.000114608
0.000132052
0.000151235
0.000171914
0.000193697
0.000216034
0.000238247
0.000259578
0.000279272
0.000296681
0.000311358
0.000323142
0.000332193
0.000338969
0.000344266
0.000348696
0.000353168
0.000358381
0.000364857
0.000372872
0.000382502
0.00039383
0.000406617
0.000420602
0.000435537
0.000451195
0.000467379
0.000483933
0.000500735
0.000517682
0.000534657
0.000551521
0.000568019
0.000583724
0.000598183
0.000610777
0.000620802
0.00062672
0.00062886
0.000626249
0.00061543
0.000594609
0.000560688
0.000510846
0.000444542
0.000365809
0.000284063
0.000212271
0.000167973
0.000166654
0.000308237
3.25134e-05
1.56648e-05
1.1391e-05
9.84526e-06
9.41448e-06
9.61584e-06
1.02593e-05
1.12571e-05
1.25697e-05
1.41858e-05
1.61155e-05
1.83867e-05
2.10451e-05
2.41533e-05
2.77917e-05
3.20585e-05
3.70702e-05
4.29609e-05
4.98811e-05
5.7994e-05
6.74695e-05
7.84743e-05
9.11572e-05
0.00010563
0.00012194
0.000140047
0.000159786
0.000180851
0.000202778
0.000224955
0.000246658
0.000267121
0.000285622
0.000301592
0.000314713
0.000324973
0.000332687
0.000338515
0.000343107
0.000347349
0.000352034
0.000357791
0.000365018
0.000373869
0.000384533
0.000396797
0.000410419
0.000425133
0.000440682
0.00045684
0.00047342
0.000490288
0.000507344
0.000524508
0.000541685
0.000558748
0.00057544
0.000591316
0.000605882
0.000618478
0.00062839
0.000634264
0.000636478
0.000634446
0.000625145
0.00060716
0.000577389
0.000532247
0.000469627
0.000391835
0.000307562
0.000230825
0.00018183
0.000178423
0.000327866
3.52051e-05
1.69513e-05
1.23101e-05
1.06232e-05
1.01456e-05
1.03542e-05
1.10429e-05
1.21157e-05
1.35283e-05
1.52674e-05
1.73426e-05
1.97835e-05
2.2638e-05
2.59728e-05
2.98729e-05
3.44416e-05
3.9801e-05
4.60901e-05
5.34633e-05
6.20857e-05
7.21252e-05
8.37412e-05
9.70681e-05
0.000112193
0.000129129
0.000147787
0.000167947
0.000189237
0.00021113
0.000232965
0.000253993
0.000273457
0.000290694
0.000305236
0.0003169
0.000325825
0.000332483
0.000337569
0.000341857
0.00034622
0.00035139
0.000357898
0.000365983
0.000375967
0.000387694
0.000400953
0.000415479
0.000430989
0.00044722
0.000463948
0.000481005
0.000498275
0.000515688
0.000533192
0.000550717
0.00056815
0.000585233
0.000601493
0.000616368
0.000629098
0.000638859
0.000644333
0.0006463
0.000643931
0.000635012
0.000618642
0.000592066
0.000551326
0.000492921
0.000417153
0.000331363
0.000250144
0.000196356
0.000190667
0.000348063
3.80512e-05
1.83105e-05
1.328e-05
1.14439e-05
1.09178e-05
1.11351e-05
1.18731e-05
1.30261e-05
1.45448e-05
1.64131e-05
1.864e-05
2.12562e-05
2.43121e-05
2.7878e-05
3.20432e-05
3.69158e-05
4.26225e-05
4.93064e-05
5.71242e-05
6.62409e-05
7.68201e-05
8.90109e-05
0.00010293
0.000118637
0.000136106
0.000155201
0.000175643
0.000197003
0.000218701
0.000240039
0.000260263
0.000278649
0.000294609
0.00030779
0.000318146
0.000325951
0.000331848
0.000336484
0.000340777
0.000345535
0.000351421
0.000358761
0.000368028
0.000379167
0.000392011
0.000406316
0.000421789
0.000438132
0.000455078
0.000472412
0.000489983
0.000507703
0.000525537
0.000543469
0.00056146
0.000579423
0.000597108
0.000614012
0.000629491
0.000642649
0.000652406
0.000657393
0.000658935
0.000655575
0.000646008
0.000629952
0.000605339
0.000568291
0.000514253
0.000441426
0.000355203
0.000270115
0.000211531
0.000203385
0.000368818
4.10603e-05
1.97466e-05
1.43035e-05
1.23095e-05
1.17326e-05
1.19603e-05
1.27515e-05
1.399e-05
1.56204e-05
1.76235e-05
2.00073e-05
2.28034e-05
2.60645e-05
2.9864e-05
3.42954e-05
3.94709e-05
4.5521e-05
5.25918e-05
6.08408e-05
7.04307e-05
8.15184e-05
9.42403e-05
0.000108692
0.000124903
0.000142808
0.000162222
0.000182814
0.000204101
0.000225463
0.000246182
0.000265515
0.000282791
0.000297513
0.000309448
0.000318689
0.000325668
0.000330991
0.000335507
0.000340078
0.000345468
0.000352133
0.000360653
0.000371133
0.000383471
0.000397469
0.000412843
0.000429273
0.000446448
0.000464101
0.000482031
0.000500108
0.000518279
0.000536551
0.000554953
0.000573494
0.000592122
0.000610609
0.000628433
0.000644872
0.000658898
0.000668942
0.000673646
0.000674748
0.00067006
0.000659018
0.000642023
0.000617965
0.000583529
0.000533592
0.000464371
0.000378803
0.000290603
0.00022732
0.000216571
0.000390114
4.42417e-05
2.12636e-05
1.53831e-05
1.32218e-05
1.25919e-05
1.28316e-05
1.36798e-05
1.50088e-05
1.67562e-05
1.88991e-05
2.14441e-05
2.44233e-05
2.78915e-05
3.19252e-05
3.66213e-05
4.20957e-05
4.84818e-05
5.59271e-05
6.45888e-05
7.46252e-05
8.61843e-05
9.93871e-05
0.000114306
0.000130939
0.000149181
0.0001688
0.000189416
0.000210504
0.000231414
0.000251425
0.000269823
0.000286003
0.000299569
0.000310411
0.000318734
0.000325101
0.000330177
0.000334839
0.000339924
0.000346025
0.000353801
0.000363557
0.00037528
0.000388847
0.000404006
0.000420436
0.000437794
0.000455761
0.000474073
0.000492542
0.000511071
0.000529647
0.000548327
0.0005672
0.000586333
0.000605721
0.000625178
0.000644182
0.000661944
0.00067731
0.000688225
0.000693049
0.00069385
0.000687838
0.000674777
0.00065575
0.000630784
0.00059759
0.000551066
0.000485782
0.000401887
0.000311451
0.000243672
0.000230215
0.000411931
4.76051e-05
2.28658e-05
1.65217e-05
1.41832e-05
1.34978e-05
1.37508e-05
1.46598e-05
1.60841e-05
1.79533e-05
2.02401e-05
2.29495e-05
2.61135e-05
2.97891e-05
3.40552e-05
3.90119e-05
4.47781e-05
5.14889e-05
5.92925e-05
6.83435e-05
7.87945e-05
9.07826e-05
0.000104411
0.000119728
0.0001367
0.000155181
0.000174896
0.000195424
0.000216206
0.000236576
0.000255825
0.000273283
0.000288422
0.000300952
0.000310881
0.000318546
0.000324514
0.000329596
0.000334637
0.000340344
0.000347442
0.000356437
0.000367442
0.000380435
0.000395227
0.000411519
0.000428957
0.000447178
0.000465857
0.000484736
0.000503651
0.000522538
0.000541434
0.000560453
0.000579755
0.000599477
0.000619678
0.000640227
0.000660631
0.000680051
0.000697214
0.000709782
0.000715321
0.000716116
0.000709113
0.000693825
0.000671924
0.000644657
0.000611147
0.000566955
0.000505554
0.000424195
0.000332485
0.000260523
0.000244299
0.00043424
5.11606e-05
2.45578e-05
1.77221e-05
1.51958e-05
1.44523e-05
1.47201e-05
1.56936e-05
1.72175e-05
1.92128e-05
2.16467e-05
2.45222e-05
2.78713e-05
3.17524e-05
3.62469e-05
4.14575e-05
4.7505e-05
5.45258e-05
6.26672e-05
7.20801e-05
8.29095e-05
9.52798e-05
0.000109276
0.00012492
0.000142146
0.000160772
0.000180484
0.000200827
0.000221219
0.000240991
0.000259458
0.000276007
0.000290193
0.000301832
0.00031104
0.000318241
0.000324086
0.000329403
0.000334951
0.000341517
0.000349775
0.000359993
0.000372276
0.00038653
0.00040251
0.000419874
0.000438237
0.000457222
0.0004765
0.000495826
0.000515061
0.000534183
0.000553284
0.000572545
0.000592201
0.000612471
0.000633489
0.0006552
0.000677166
0.000698525
0.000717895
0.000732939
0.000739984
0.000741218
0.00073384
0.000716475
0.000691189
0.000660404
0.000624947
0.000581683
0.000523694
0.000445503
0.000353515
0.000277798
0.0002588
0.000457008
5.49187e-05
2.63445e-05
1.89873e-05
1.6262e-05
1.54575e-05
1.57415e-05
1.67829e-05
1.84107e-05
2.05355e-05
2.31188e-05
2.61608e-05
2.96934e-05
3.37761e-05
3.84926e-05
4.39473e-05
5.02628e-05
5.75756e-05
6.60307e-05
7.57742e-05
8.69422e-05
9.96449e-05
0.000113948
0.000129848
0.000147248
0.000165933
0.000185556
0.000205635
0.000225576
0.00024472
0.000262418
0.000278119
0.000291467
0.000302377
0.000311065
0.000318027
0.000323967
0.000329658
0.00033592
0.000343551
0.000352972
0.000364444
0.000377997
0.000393472
0.000410572
0.000428916
0.000448095
0.000467717
0.000487457
0.000507086
0.000526498
0.000545716
0.000564892
0.00058428
0.000604192
0.000624937
0.000646735
0.000669621
0.000693243
0.000716754
0.0007387
0.000756863
0.000766411
0.000768671
0.000761744
0.000742807
0.000714001
0.000678756
0.000639765
0.000595785
0.000540332
0.000465636
0.000374345
0.000295407
0.000273688
0.000480196
5.88907e-05
2.82306e-05
2.03206e-05
1.73844e-05
1.65158e-05
1.68172e-05
1.79301e-05
1.96653e-05
2.19222e-05
2.46559e-05
2.78633e-05
3.1576e-05
3.58544e-05
4.07838e-05
4.64705e-05
5.30377e-05
6.06211e-05
6.93628e-05
7.94027e-05
9.08667e-05
0.000103851
0.0001184
0.000134487
0.000151987
0.000170654
0.000190114
0.00020987
0.000229325
0.000247839
0.000264807
0.000279747
0.000292392
0.000302746
0.000311115
0.000318042
0.000324215
0.000330485
0.000337688
0.000346393
0.000357017
0.00036974
0.000384525
0.000401152
0.000419278
0.000438487
0.000458347
0.000478462
0.000498512
0.000518292
0.000537731
0.000556904
0.000576023
0.000595415
0.000615474
0.0006366
0.000659105
0.000683128
0.000708425
0.000734215
0.000759058
0.000780693
0.000793882
0.000797892
0.000792352
0.000772673
0.000740609
0.000700308
0.000656355
0.000609881
0.00055571
0.000484483
0.000394778
0.000313251
0.000288926
0.000503755
6.30883e-05
3.02214e-05
2.17251e-05
1.85655e-05
1.76297e-05
1.79496e-05
1.9137e-05
2.09828e-05
2.33737e-05
2.62575e-05
2.96276e-05
3.3515e-05
3.79808e-05
4.3112e-05
4.90159e-05
5.58158e-05
6.36459e-05
7.26444e-05
8.29442e-05
9.46604e-05
0.000107874
0.000122611
0.00013882
0.000156351
0.000174935
0.000194177
0.00021357
0.000232526
0.000250433
0.000266735
0.000281024
0.00029311
0.00030308
0.000311297
0.000318342
0.000324974
0.000332043
0.000340211
0.00035004
0.000361872
0.000375816
0.000391767
0.000409453
0.000428488
0.000448427
0.000468822
0.000489275
0.000509481
0.00052926
0.000548584
0.000567578
0.000586518
0.0006058
0.000625898
0.000647298
0.000670413
0.000695486
0.000722407
0.000750497
0.000778377
0.000803768
0.000821627
0.00082827
0.000825036
0.000805717
0.000771048
0.000725497
0.000675402
0.000624634
0.000570181
0.000502011
0.000414628
0.000331222
0.000304471
0.000527631
6.75236e-05
3.23224e-05
2.32044e-05
1.98081e-05
1.88017e-05
1.91413e-05
2.0406e-05
2.23648e-05
2.48905e-05
2.79227e-05
3.14511e-05
3.55058e-05
4.01489e-05
4.54682e-05
5.15721e-05
5.85835e-05
6.66342e-05
7.58578e-05
8.63797e-05
9.83038e-05
0.000111696
0.000126565
0.000142838
0.000160342
0.00017879
0.000197774
0.000216786
0.000235252
0.000252597
0.000268319
0.000282076
0.000293757
0.000303515
0.000311753
0.000319112
0.00032639
0.000334305
0.0003435
0.000354471
0.000367489
0.000382595
0.000399625
0.000418257
0.000438068
0.00045859
0.000479368
0.000500006
0.000520218
0.000539858
0.000558939
0.000577641
0.000596298
0.000615372
0.000635408
0.000656978
0.00068059
0.000706596
0.000735027
0.000765343
0.000796266
0.000825523
0.000848808
0.000859257
0.000859058
0.000841412
0.000805148
0.000754574
0.000697492
0.000640713