/*--------------------------------*- C++ -*----------------------------------*\
  =========                 |
  \\      /  F ield         | OpenFOAM: The Open Source CFD Toolbox
   \\    /   O peration     | Website:  https://openfoam.org
    \\  /    A nd           | Version:  12
     \\/     M anipulation  |
\*---------------------------------------------------------------------------*/
FoamFile
{
    format      ascii;
    class       volScalarField;
    location    "8";
    object      k;
}
// * * * * * * * * * * * * * * * * * * * * * * * * * * * * * * * * * * * * * //

dimensions      [0 2 -2 0 0 0 0];

internalField   nonuniform List<scalar> 
5625
(
1.30228e-10
8.80845e-10
1.96049e-09
3.24372e-09
4.6708e-09
6.20444e-09
7.81955e-09
9.50012e-09
1.12381e-08
1.30328e-08
1.48909e-08
1.68257e-08
1.88571e-08
2.1011e-08
2.33187e-08
2.58167e-08
2.85461e-08
3.15518e-08
3.48826e-08
3.859e-08
4.27283e-08
4.73539e-08
5.25244e-08
5.82987e-08
6.47356e-08
7.18939e-08
7.9831e-08
8.86027e-08
9.82624e-08
1.0886e-07
1.20442e-07
1.33051e-07
1.46724e-07
1.61493e-07
1.77385e-07
1.9442e-07
2.12613e-07
2.3197e-07
2.52492e-07
2.74168e-07
2.96973e-07
3.2087e-07
3.458e-07
3.71676e-07
3.98376e-07
4.25734e-07
4.53524e-07
4.81453e-07
5.09143e-07
5.36118e-07
5.61792e-07
5.85459e-07
6.06275e-07
6.23206e-07
6.34662e-07
6.39799e-07
6.39992e-07
6.31756e-07
6.14646e-07
5.88589e-07
5.53856e-07
5.1123e-07
4.6208e-07
4.08304e-07
3.52173e-07
2.96083e-07
2.42279e-07
1.92604e-07
1.48321e-07
1.10051e-07
7.78312e-08
5.12728e-08
2.9814e-08
1.31043e-08
1.93016e-09
9.84279e-10
7.84448e-09
1.75914e-08
2.91537e-08
4.20049e-08
5.58121e-08
7.03505e-08
8.5476e-08
1.01116e-07
1.17266e-07
1.33984e-07
1.51392e-07
1.69667e-07
1.89044e-07
2.09804e-07
2.32275e-07
2.56827e-07
2.83865e-07
3.13826e-07
3.47177e-07
3.84405e-07
4.26017e-07
4.72533e-07
5.24481e-07
5.82394e-07
6.46797e-07
7.18208e-07
7.97131e-07
8.84044e-07
9.79398e-07
1.08361e-06
1.19706e-06
1.32008e-06
1.45297e-06
1.59595e-06
1.74922e-06
1.91291e-06
2.08708e-06
2.27171e-06
2.46673e-06
2.67191e-06
2.88691e-06
3.1112e-06
3.34401e-06
3.58424e-06
3.83041e-06
4.08049e-06
4.33185e-06
4.5811e-06
4.82397e-06
5.0552e-06
5.26845e-06
5.45614e-06
5.60907e-06
5.71258e-06
5.7575e-06
5.75847e-06
5.683e-06
5.52774e-06
5.29218e-06
4.97881e-06
4.59473e-06
4.15229e-06
3.66856e-06
3.16388e-06
2.65974e-06
2.17627e-06
1.72995e-06
1.3321e-06
9.88271e-07
6.98783e-07
4.60106e-07
2.67095e-07
1.16536e-07
1.45746e-08
2.09117e-09
1.79197e-08
4.04467e-08
6.717e-08
9.6865e-08
1.28761e-07
1.62338e-07
1.97264e-07
2.33371e-07
2.70646e-07
3.09228e-07
3.49395e-07
3.91561e-07
4.36265e-07
4.84161e-07
5.36009e-07
5.92664e-07
6.55063e-07
7.24222e-07
8.01219e-07
8.87185e-07
9.83297e-07
1.09076e-06
1.21081e-06
1.34468e-06
1.4936e-06
1.65878e-06
1.8414e-06
2.04259e-06
2.2634e-06
2.50483e-06
2.76777e-06
3.05303e-06
3.3613e-06
3.69315e-06
4.04902e-06
4.42922e-06
4.8339e-06
5.263e-06
5.71627e-06
6.19316e-06
6.69276e-06
7.21374e-06
7.75415e-06
8.3113e-06
8.88153e-06
9.46e-06
1.00404e-05
1.06148e-05
1.11732e-05
1.17034e-05
1.21907e-05
1.2618e-05
1.2965e-05
1.31959e-05
1.32923e-05
1.32918e-05
1.31131e-05
1.27508e-05
1.22042e-05
1.14786e-05
1.05905e-05
9.56805e-06
8.45074e-06
7.28555e-06
6.12216e-06
5.00706e-06
3.9783e-06
3.06185e-06
2.27035e-06
1.6043e-06
1.05536e-06
6.11492e-07
2.65147e-07
3.08417e-08
3.42185e-09
3.00516e-08
6.81557e-08
1.13414e-07
1.63711e-07
2.1773e-07
2.74581e-07
3.337e-07
3.94802e-07
4.57866e-07
5.23127e-07
5.91058e-07
6.62363e-07
7.37959e-07
8.18959e-07
9.06655e-07
1.0025e-06
1.10809e-06
1.22515e-06
1.35553e-06
1.50115e-06
1.66402e-06
1.84621e-06
2.04982e-06
2.27698e-06
2.52981e-06
2.8104e-06
3.12078e-06
3.4629e-06
3.83863e-06
4.24967e-06
4.69761e-06
5.18382e-06
5.70951e-06
6.27565e-06
6.88295e-06
7.53184e-06
8.22243e-06
8.95447e-06
9.72723e-06
1.05394e-05
1.13892e-05
1.22738e-05
1.31893e-05
1.41309e-05
1.5092e-05
1.60639e-05
1.7036e-05
1.79948e-05
1.89239e-05
1.98032e-05
2.06091e-05
2.13135e-05
2.18851e-05
2.22603e-05
2.24129e-05
2.24101e-05
2.21072e-05
2.14974e-05
2.05786e-05
1.93584e-05
1.78628e-05
1.61386e-05
1.42521e-05
1.22832e-05
1.03165e-05
8.43177e-06
6.69409e-06
5.14764e-06
3.81359e-06
2.69227e-06
1.76896e-06
1.02294e-06
4.41506e-07
5.01058e-08
4.9364e-09
4.37852e-08
9.96453e-08
1.66104e-07
2.39995e-07
3.1935e-07
4.02849e-07
4.89654e-07
5.79343e-07
6.71887e-07
7.6763e-07
8.67276e-07
9.71865e-07
1.08275e-06
1.20158e-06
1.33027e-06
1.47096e-06
1.62601e-06
1.798e-06
1.98965e-06
2.20381e-06
2.4435e-06
2.71177e-06
3.01179e-06
3.34673e-06
3.71978e-06
4.13407e-06
4.59269e-06
5.09857e-06
5.65452e-06
6.26312e-06
6.92672e-06
7.64736e-06
8.42672e-06
9.26608e-06
1.01662e-05
1.11275e-05
1.21495e-05
1.32312e-05
1.43707e-05
1.55653e-05
1.68111e-05
1.81032e-05
1.9435e-05
2.07984e-05
2.21833e-05
2.35773e-05
2.49651e-05
2.63282e-05
2.76442e-05
2.88862e-05
3.00221e-05
3.10145e-05
3.18212e-05
3.23509e-05
3.25664e-05
3.25681e-05
3.21414e-05
3.12736e-05
2.99592e-05
2.82053e-05
2.60454e-05
2.35451e-05
2.07997e-05
1.79265e-05
1.50515e-05
1.2294e-05
9.75176e-06
7.49109e-06
5.54347e-06
3.9089e-06
2.56494e-06
1.48045e-06
6.36801e-07
7.1547e-08
6.60801e-09
5.88874e-08
1.34344e-07
2.2427e-07
3.24312e-07
4.31756e-07
5.44793e-07
6.62272e-07
7.83614e-07
9.08781e-07
1.03825e-06
1.17297e-06
1.31437e-06
1.4643e-06
1.62501e-06
1.79912e-06
1.98956e-06
2.19956e-06
2.43264e-06
2.69254e-06
2.9832e-06
3.30872e-06
3.67337e-06
4.0815e-06
4.5375e-06
5.0458e-06
5.61077e-06
6.23666e-06
6.92757e-06
7.68734e-06
8.5195e-06
9.42713e-06
1.04128e-05
1.14786e-05
1.26256e-05
1.38542e-05
1.51639e-05
1.6553e-05
1.80187e-05
1.95568e-05
2.11618e-05
2.28269e-05
2.45437e-05
2.63023e-05
2.80912e-05
2.98968e-05
3.17035e-05
3.34927e-05
3.52426e-05
3.6927e-05
3.85144e-05
3.99668e-05
4.12387e-05
4.22781e-05
4.29735e-05
4.32662e-05
4.32858e-05
4.27577e-05
4.16489e-05
3.99502e-05
3.76635e-05
3.48265e-05
3.15214e-05
2.78725e-05
2.40367e-05
2.01854e-05
1.64831e-05
1.30659e-05
1.00271e-05
7.41137e-06
5.21926e-06
3.41993e-06
1.9705e-06
8.4546e-07
9.45328e-08
8.42091e-09
7.52313e-08
1.71933e-07
2.87354e-07
4.15841e-07
5.5385e-07
6.99021e-07
8.49853e-07
1.00559e-06
1.1662e-06
1.33227e-06
1.50508e-06
1.68645e-06
1.87881e-06
2.08507e-06
2.30863e-06
2.55332e-06
2.82334e-06
3.12326e-06
3.45797e-06
3.83263e-06
4.2526e-06
4.72349e-06
5.25098e-06
5.8409e-06
6.49903e-06
7.23112e-06
8.04274e-06
8.93921e-06
9.92542e-06
1.10057e-05
1.21838e-05
1.34624e-05
1.48433e-05
1.63269e-05
1.79122e-05
1.95967e-05
2.13759e-05
2.32439e-05
2.51928e-05
2.72132e-05
2.9294e-05
3.1423e-05
3.35869e-05
3.5771e-05
3.79601e-05
4.01369e-05
4.22823e-05
4.43739e-05
4.63845e-05
4.82808e-05
5.00211e-05
5.15536e-05
5.28166e-05
5.36892e-05
5.40759e-05
5.41289e-05
5.35331e-05
5.22175e-05
5.01699e-05
4.73834e-05
4.38961e-05
3.98026e-05
3.52531e-05
3.04423e-05
2.55881e-05
2.09033e-05
1.65674e-05
1.27063e-05
9.38207e-06
6.59872e-06
4.31768e-06
2.48374e-06
1.0636e-06
1.18608e-07
1.03666e-08
9.27504e-08
2.1224e-07
3.55047e-07
5.14113e-07
6.84993e-07
8.64713e-07
1.05139e-06
1.24408e-06
1.44272e-06
1.64809e-06
1.86176e-06
2.08606e-06
2.324e-06
2.57926e-06
2.85611e-06
3.15933e-06
3.49425e-06
3.8666e-06
4.28253e-06
4.74855e-06
5.27146e-06
5.85833e-06
6.51637e-06
7.25292e-06
8.07531e-06
8.99072e-06
1.00061e-05
1.11279e-05
1.2362e-05
1.37133e-05
1.51855e-05
1.6781e-05
1.85003e-05
2.03419e-05
2.23023e-05
2.43751e-05
2.65519e-05
2.88218e-05
3.11719e-05
3.35876e-05
3.60536e-05
3.85539e-05
4.10727e-05
4.35944e-05
4.61041e-05
4.85863e-05
5.10242e-05
5.33977e-05
5.56816e-05
5.78425e-05
5.98362e-05
6.16055e-05
6.30784e-05
6.41327e-05
6.46239e-05
6.47215e-05
6.40912e-05
6.26083e-05
6.02611e-05
5.70317e-05
5.29543e-05
4.81302e-05
4.2729e-05
3.69778e-05
3.1137e-05
2.54681e-05
2.01976e-05
1.54893e-05
1.14294e-05
8.02977e-06
5.24683e-06
3.01365e-06
1.28846e-06
1.43454e-07
1.24413e-08
1.11417e-07
2.55191e-07
4.27201e-07
6.18898e-07
8.24856e-07
1.04144e-06
1.26633e-06
1.4984e-06
1.73756e-06
1.98478e-06
2.24198e-06
2.51202e-06
2.7986e-06
3.10621e-06
3.44007e-06
3.80607e-06
4.2107e-06
4.66101e-06
5.16456e-06
5.72933e-06
6.36369e-06
7.0763e-06
7.87606e-06
8.77192e-06
9.77281e-06
1.08874e-05
1.21239e-05
1.34897e-05
1.49913e-05
1.66337e-05
1.84199e-05
2.03508e-05
2.24245e-05
2.46362e-05
2.69777e-05
2.94377e-05
3.20018e-05
3.46528e-05
3.73721e-05
4.01398e-05
4.29367e-05
4.57447e-05
4.85478e-05
5.13325e-05
5.40873e-05
5.68016e-05
5.94636e-05
6.2058e-05
6.45621e-05
6.69431e-05
6.91541e-05
7.11314e-05
7.27936e-05
7.40195e-05
7.4612e-05
7.4757e-05
7.41163e-05
7.25044e-05
6.99144e-05
6.63159e-05
6.17353e-05
5.62735e-05
5.01102e-05
4.3495e-05
3.67238e-05
3.0103e-05
2.3908e-05
1.83461e-05
1.35346e-05
9.50055e-06
6.19988e-06
3.55584e-06
1.51813e-06
1.68862e-07
1.46446e-08
1.31231e-07
3.00776e-07
5.03789e-07
7.30133e-07
9.73334e-07
1.22904e-06
1.49448e-06
1.76829e-06
2.05039e-06
2.34194e-06
2.64528e-06
2.96382e-06
3.30203e-06
3.66529e-06
4.05988e-06
4.49287e-06
4.97206e-06
5.50592e-06
6.10353e-06
6.77448e-06
7.52884e-06
8.37701e-06
9.3296e-06
1.03973e-05
1.15906e-05
1.29195e-05
1.43933e-05
1.60201e-05
1.78063e-05
1.97562e-05
2.1871e-05
2.41488e-05
2.65838e-05
2.9166e-05
3.18812e-05
3.47112e-05
3.76342e-05
4.06264e-05
4.36631e-05
4.67205e-05
4.97772e-05
5.28158e-05
5.58234e-05
5.87917e-05
6.17161e-05
6.45931e-05
6.74174e-05
7.01782e-05
7.28553e-05
7.54144e-05
7.78046e-05
7.99552e-05
8.17753e-05
8.31452e-05
8.38216e-05
8.40066e-05
8.33683e-05
8.16631e-05
7.88904e-05
7.5008e-05
7.00303e-05
6.40496e-05
5.72446e-05
4.98751e-05
4.22616e-05
3.47495e-05
2.7662e-05
2.12551e-05
1.56856e-05
1.1004e-05
7.17248e-06
4.10774e-06
1.75134e-06
1.9474e-07
1.69786e-08
1.52212e-07
3.49037e-07
5.84867e-07
8.47882e-07
1.13049e-06
1.42757e-06
1.73587e-06
2.05377e-06
2.38121e-06
2.71956e-06
3.07161e-06
3.44141e-06
3.83423e-06
4.25646e-06
4.71551e-06
5.21974e-06
5.77836e-06
6.4014e-06
7.09955e-06
7.88417e-06
8.76709e-06
9.76052e-06
1.08769e-05
1.21285e-05
1.35273e-05
1.50846e-05
1.68103e-05
1.87125e-05
2.07968e-05
2.30656e-05
2.55171e-05
2.81451e-05
3.0938e-05
3.3879e-05
3.69461e-05
4.0113e-05
4.33503e-05
4.66276e-05
4.99155e-05
5.31884e-05
5.64258e-05
5.96146e-05
6.27486e-05
6.5828e-05
6.88566e-05
7.18391e-05
7.47761e-05
7.76596e-05
8.0469e-05
8.31666e-05
8.56954e-05
8.79774e-05
8.9914e-05
9.13849e-05
9.21181e-05
9.23288e-05
9.16942e-05
8.99295e-05
8.70355e-05
8.2959e-05
7.76994e-05
7.13329e-05
6.40252e-05
5.60327e-05
4.7688e-05
3.93659e-05
3.1435e-05
2.42034e-05
1.78763e-05
1.25373e-05
8.16299e-06
4.66826e-06
1.9876e-06
2.20993e-07
1.94471e-08
1.74398e-07
4.00054e-07
6.7056e-07
9.72311e-07
1.29653e-06
1.63727e-06
1.99074e-06
2.3551e-06
2.73028e-06
3.11791e-06
3.52125e-06
3.94505e-06
4.39548e-06
4.88001e-06
5.40727e-06
5.98702e-06
6.63e-06
7.34786e-06
8.15307e-06
9.05879e-06
1.00787e-05
1.12269e-05
1.25175e-05
1.39644e-05
1.5581e-05
1.7379e-05
1.93687e-05
2.15574e-05
2.39487e-05
2.6542e-05
2.93309e-05
3.2303e-05
3.54395e-05
3.8715e-05
4.20988e-05
4.55559e-05
4.90498e-05
5.25449e-05
5.60098e-05
5.94203e-05
6.27609e-05
6.60261e-05
6.92198e-05
7.2352e-05
7.54362e-05
7.84834e-05
8.14976e-05
8.44706e-05
8.73779e-05
9.0176e-05
9.28007e-05
9.51676e-05
9.71732e-05
9.86948e-05
9.94534e-05
9.96744e-05
9.90353e-05
9.72421e-05
9.42849e-05
9.0101e-05
8.46732e-05
7.8055e-05
7.03891e-05
6.19151e-05
5.29629e-05
4.3926e-05
3.52126e-05
2.71854e-05
2.01055e-05
1.41009e-05
9.17194e-06
5.23749e-06
2.22685e-06
2.47604e-07
2.20556e-08
1.97837e-07
4.5394e-07
7.61046e-07
1.10366e-06
1.47175e-06
1.85848e-06
2.25951e-06
2.67272e-06
3.09807e-06
3.53747e-06
3.9947e-06
4.47527e-06
4.98633e-06
5.53649e-06
6.13574e-06
6.7953e-06
7.52755e-06
8.34587e-06
9.26456e-06
1.02987e-05
1.14638e-05
1.27757e-05
1.42504e-05
1.5903e-05
1.77477e-05
1.97968e-05
2.20596e-05
2.45417e-05
2.72439e-05
3.01606e-05
3.32793e-05
3.658e-05
4.00349e-05
4.36092e-05
4.72628e-05
5.0953e-05
5.46374e-05
5.82781e-05
6.18453e-05
6.532e-05
6.86957e-05
7.19779e-05
7.51818e-05
7.83282e-05
8.14378e-05
8.45256e-05
8.7595e-05
9.06336e-05
9.36103e-05
9.64737e-05
9.91529e-05
0.000101559
0.000103586
0.000105109
0.000105864
0.000106081
0.000105427
0.000103627
0.000100657
9.64409e-05
9.09455e-05
8.41985e-05
7.63117e-05
6.74957e-05
5.80639e-05
4.84148e-05
3.89881e-05
3.02005e-05
2.2376e-05
1.5698e-05
1.02016e-05
5.81649e-06
2.46942e-06
2.74602e-07
2.48106e-08
2.22591e-07
5.1083e-07
8.56549e-07
1.24225e-06
1.65655e-06
2.09167e-06
2.54269e-06
3.00722e-06
3.48521e-06
3.97889e-06
4.49263e-06
5.03277e-06
5.60747e-06
6.22661e-06
6.9016e-06
7.64523e-06
8.4716e-06
9.3959e-06
1.04343e-05
1.16038e-05
1.29218e-05
1.44059e-05
1.60734e-05
1.79406e-05
2.00221e-05
2.23296e-05
2.48711e-05
2.76491e-05
3.06599e-05
3.38917e-05
3.73245e-05
4.09288e-05
4.46672e-05
4.84949e-05
5.23632e-05
5.6223e-05
6.00291e-05
6.37448e-05
6.73459e-05
7.0823e-05
7.41816e-05
7.74402e-05
8.06256e-05
8.37674e-05
8.68906e-05
9.001e-05
9.31243e-05
9.62134e-05
9.92373e-05
0.000102137
0.000104835
0.000107241
0.000109251
0.000110735
0.000111461
0.000111662
0.000110981
0.000109185
0.00010624
0.000102047
9.65625e-05
8.97873e-05
8.17983e-05
7.27683e-05
6.29806e-05
5.28241e-05
4.27587e-05
3.32508e-05
2.46925e-05
1.73335e-05
1.12553e-05
6.40698e-06
2.7159e-06
3.02048e-07
2.77201e-08
2.48729e-07
5.70885e-07
9.57331e-07
1.38844e-06
1.85139e-06
2.33741e-06
2.84094e-06
3.35928e-06
3.89243e-06
4.44296e-06
5.01585e-06
5.61832e-06
6.25967e-06
6.9511e-06
7.70553e-06
8.53742e-06
9.46262e-06
1.04982e-05
1.16623e-05
1.29737e-05
1.44517e-05
1.61154e-05
1.79832e-05
2.00721e-05
2.23965e-05
2.49668e-05
2.77883e-05
3.08594e-05
3.41705e-05
3.77022e-05
4.14251e-05
4.53e-05
4.92787e-05
5.33076e-05
5.73306e-05
6.12952e-05
6.51568e-05
6.88843e-05
7.24634e-05
7.58974e-05
7.92063e-05
8.24215e-05
8.55802e-05
8.87174e-05
9.18585e-05
9.50136e-05
9.81729e-05
0.000101306
0.000104364
0.00010728
0.000109972
0.000112351
0.000114317
0.000115734
0.000116416
0.000116591
0.000115872
0.000114078
0.000111172
0.000107036
0.000101611
9.48771e-05
8.68773e-05
7.77408e-05
6.77098e-05
5.71485e-05
4.65221e-05
3.63387e-05
2.70604e-05
1.9013e-05
1.23373e-05
7.01113e-06
2.96705e-06
3.30021e-07
3.07926e-08
2.76332e-07
6.34284e-07
1.06368e-06
1.54264e-06
2.05679e-06
2.59631e-06
3.15495e-06
3.7297e-06
4.32059e-06
4.93054e-06
5.5652e-06
6.23277e-06
6.94372e-06
7.71068e-06
8.54814e-06
9.4723e-06
1.05009e-05
1.16528e-05
1.2948e-05
1.44073e-05
1.60514e-05
1.79009e-05
1.99749e-05
2.22905e-05
2.48611e-05
2.76949e-05
3.07935e-05
3.41497e-05
3.77466e-05
4.15559e-05
4.55382e-05
4.96434e-05
5.3814e-05
5.79881e-05
6.21054e-05
6.61131e-05
6.99719e-05
7.36604e-05
7.71777e-05
8.05425e-05
8.37894e-05
8.69619e-05
9.01043e-05
9.32532e-05
9.64299e-05
9.96357e-05
0.00010285
0.000106032
0.000109121
0.000112046
0.000114723
0.000117063
0.000118972
0.000120309
0.000120936
0.000121079
0.000120308
0.000118507
0.000115629
0.000111556
0.000106206
9.95482e-05
9.1595e-05
8.24321e-05
7.22529e-05
6.13824e-05
5.0274e-05
3.94648e-05
2.94841e-05
2.07421e-05
1.34519e-05
7.63126e-06
3.2237e-06
3.58612e-07
3.40377e-08
3.05485e-07
7.01221e-07
1.17593e-06
1.7053e-06
2.27335e-06
2.86908e-06
3.48553e-06
4.11934e-06
4.77056e-06
5.44251e-06
6.14157e-06
6.87693e-06
7.66037e-06
8.50597e-06
9.42989e-06
1.04501e-05
1.15862e-05
1.2859e-05
1.42903e-05
1.59026e-05
1.7718e-05
1.97581e-05
2.20423e-05
2.45871e-05
2.74042e-05
3.04984e-05
3.38664e-05
3.74944e-05
4.13568e-05
4.54155e-05
4.96204e-05
5.39114e-05
5.82222e-05
6.24856e-05
6.66402e-05
7.06373e-05
7.44468e-05
7.80611e-05
8.14952e-05
8.47842e-05
8.79765e-05
9.1125e-05
9.42772e-05
9.7467e-05
0.000100708
0.00010399
0.000107279
0.000110524
0.000113655
0.000116596
0.000119263
0.000121568
0.000123424
0.000124678
0.000125247
0.000125355
0.000124515
0.000122687
0.00011981
0.000115775
0.000110486
0.0001039
9.60133e-05
8.68712e-05
7.66154e-05
6.55196e-05
5.4007e-05
4.26261e-05
3.19657e-05
2.25251e-05
1.4603e-05
8.26972e-06
3.48671e-06
3.87912e-07
3.74658e-08
3.36281e-07
7.71907e-07
1.29441e-06
1.87692e-06
2.50167e-06
3.15646e-06
3.83352e-06
4.52909e-06
5.24328e-06
5.97981e-06
6.74583e-06
7.5516e-06
8.41026e-06
9.33743e-06
1.0351e-05
1.14708e-05
1.27182e-05
1.41159e-05
1.56875e-05
1.74568e-05
1.94474e-05
2.16812e-05
2.41775e-05
2.69514e-05
3.00119e-05
3.33596e-05
3.6985e-05
4.08664e-05
4.49689e-05
4.92438e-05
5.36308e-05
5.80604e-05
6.246e-05
6.67601e-05
7.09022e-05
7.48458e-05
7.85742e-05
8.20961e-05
8.54442e-05
8.86695e-05
9.18318e-05
9.49897e-05
9.81904e-05
0.000101461
0.000104803
0.000108194
0.000111588
0.000114921
0.000118118
0.000121096
0.000123772
0.000126062
0.00012788
0.000129059
0.000129572
0.000129641
0.000128717
0.000126835
0.000123918
0.00011987
0.000114598
0.000108048
0.000100208
9.10981e-05
8.08083e-05
6.95541e-05
5.77103e-05
4.58157e-05
3.45043e-05
2.43652e-05
1.57943e-05
8.92865e-06
3.75684e-06
4.18005e-07
4.10878e-08
3.68819e-07
8.46568e-07
1.41951e-06
2.058e-06
2.74243e-06
3.45924e-06
4.19978e-06
4.9599e-06
5.7397e-06
6.54334e-06
7.37879e-06
8.25746e-06
9.19389e-06
1.02053e-05
1.13114e-05
1.25338e-05
1.38957e-05
1.54217e-05
1.71369e-05
1.90664e-05
2.12345e-05
2.36633e-05
2.63712e-05
2.93713e-05
3.26688e-05
3.62591e-05
4.01256e-05
4.42378e-05
4.85507e-05
5.30053e-05
5.75317e-05
6.20531e-05
6.64932e-05
7.07838e-05
7.48734e-05
7.8734e-05
8.23651e-05
8.57939e-05
8.90706e-05
9.22601e-05
9.54309e-05
9.86437e-05
0.00010194
0.000105338
0.000108826
0.000112367
0.000115902
0.000119359
0.000122655
0.000125704
0.00012842
0.000130723
0.000132529
0.000133652
0.000134115
0.000134142
0.000133121
0.000131152
0.000128148
0.000124024
0.000118699
0.000112117
0.000104271
9.51654e-05
8.48512e-05
7.34827e-05
6.13716e-05
4.90229e-05
3.70957e-05
2.62631e-05
1.70282e-05
9.60988e-06
4.03477e-06
4.48966e-07
4.49152e-08
4.03203e-07
9.25439e-07
1.5516e-06
2.24911e-06
2.99632e-06
3.77824e-06
4.58524e-06
5.41271e-06
6.26075e-06
7.13397e-06
8.0412e-06
8.99507e-06
1.00116e-05
1.11097e-05
1.23108e-05
1.36384e-05
1.51175e-05
1.67743e-05
1.86353e-05
2.07267e-05
2.30731e-05
2.56962e-05
2.86129e-05
3.18333e-05
3.53582e-05
3.91767e-05
4.32643e-05
4.75809e-05
5.20716e-05
5.66677e-05
6.1291e-05
6.58599e-05
7.02977e-05
7.45416e-05
7.85508e-05
8.23132e-05
8.58467e-05
8.91976e-05
9.24323e-05
9.56272e-05
9.88559e-05
0.000102176
0.000105623
0.000109199
0.000112882
0.000116619
0.00012034
0.000123963
0.000127399
0.000130559
0.000133355
0.000135705
0.000137528
0.000138621
0.00013905
0.000139028
0.000137904
0.000135818
0.000132679
0.000128409
0.000122946
0.000116243
0.000108304
9.91401e-05
8.87751e-05
7.73086e-05
6.4979e-05
5.22342e-05
3.97323e-05
2.82176e-05
1.83063e-05
1.03149e-05
4.32104e-06
4.80855e-07
4.89605e-08
4.39544e-07
1.00877e-06
1.6911e-06
2.45081e-06
3.26408e-06
4.1143e-06
4.99083e-06
5.88849e-06
6.80734e-06
7.7525e-06
8.7337e-06
9.76483e-06
1.08635e-05
1.20502e-05
1.33484e-05
1.47831e-05
1.63813e-05
1.81706e-05
2.01786e-05
2.24322e-05
2.4956e-05
2.77706e-05
3.08908e-05
3.4323e-05
3.80626e-05
4.20917e-05
4.63771e-05
5.08694e-05
5.55038e-05
6.02031e-05
6.48829e-05
6.94598e-05
7.38603e-05
7.80306e-05
8.19444e-05
8.56076e-05
8.90581e-05
9.236e-05
9.55941e-05
9.88454e-05
0.000102188
0.000105674
0.000109327
0.000113138
0.000117066
0.000121049
0.000125004
0.00012884
0.000132461
0.000135775
0.000138691
0.000141126
0.000142997
0.000144088
0.000144506
0.000144429
0.000143203
0.000140978
0.000137662
0.000133181
0.000127489
0.000120562
0.000112422
0.000103104
9.2625e-05
8.10441e-05
6.85243e-05
5.5435e-05
4.24038e-05
3.02251e-05
1.96288e-05
1.10447e-05
4.61604e-06
5.13717e-07
5.32366e-08
4.77955e-07
1.09683e-06
1.83843e-06
2.66371e-06
3.54645e-06
4.46832e-06
5.41749e-06
6.38816e-06
7.38035e-06
8.39966e-06
9.45678e-06
1.0567e-05
1.17493e-05
1.30263e-05
1.4423e-05
1.59663e-05
1.76847e-05
1.9607e-05
2.1762e-05
2.41767e-05
2.68751e-05
2.98765e-05
3.31925e-05
3.68252e-05
4.0764e-05
4.49834e-05
4.94413e-05
5.4079e-05
5.88229e-05
6.35888e-05
6.82888e-05
7.28408e-05
7.71781e-05
8.12594e-05
8.50755e-05
8.86521e-05
9.20465e-05
9.53396e-05
9.86239e-05
0.000101988
0.000105504
0.000109216
0.000113133
0.000117232
0.00012146
0.000125739
0.000129975
0.00013407
0.000137921
0.000141431
0.000144506
0.00014706
0.000149011
0.00015013
0.000150552
0.000150431
0.000149111
0.000146738
0.000143214
0.000138469
0.000132467
0.000125208
0.000116745
0.00010715
9.64608e-05
8.47142e-05
7.20055e-05
5.86117e-05
4.50977e-05
3.22798e-05
2.09951e-05
1.18e-05
4.92e-06
5.47578e-07
5.77585e-08
5.18554e-07
1.18988e-06
1.99406e-06
2.88843e-06
3.84421e-06
4.84118e-06
5.86616e-06
6.91264e-06
7.98058e-06
9.07606e-06
1.02108e-05
1.14014e-05
1.26688e-05
1.40371e-05
1.55331e-05
1.71856e-05
1.90243e-05
2.10794e-05
2.33799e-05
2.5953e-05
2.88217e-05
3.20028e-05
3.55048e-05
3.93245e-05
4.34448e-05
4.78322e-05
5.2436e-05
5.71887e-05
6.20091e-05
6.68083e-05
7.14978e-05
7.59998e-05
8.02579e-05
8.42463e-05
8.79746e-05
9.14887e-05
9.48643e-05
9.81971e-05
0.000101587
0.000105124
0.000108874
0.00011287
0.000117108
0.000121549
0.000126125
0.000130747
0.00013531
0.000139705
0.000143825
0.000147566
0.000150834
0.000153539
0.000155597
0.000156772
0.000157212
0.00015707
0.000155674
0.000153157
0.000149415
0.000144372
0.000137994
0.000130304
0.000121394
0.000111384
0.000100357
8.83574e-05
7.54304e-05
6.17539e-05
4.78011e-05
3.43746e-05
2.24031e-05
1.25809e-05
5.23302e-06
5.8245e-07
6.25402e-08
5.61469e-07
1.28821e-06
2.15844e-06
3.12562e-06
4.15818e-06
5.23379e-06
6.33778e-06
7.46283e-06
8.60875e-06
9.78219e-06
1.09959e-05
1.2268e-05
1.36211e-05
1.50812e-05
1.66768e-05
1.84382e-05
2.03966e-05
2.25828e-05
2.50262e-05
2.77535e-05
3.07861e-05
3.41383e-05
3.78144e-05
4.18056e-05
4.60879e-05
5.062e-05
5.53427e-05
6.01808e-05
6.50475e-05
6.98514e-05
7.45062e-05
7.89418e-05
8.3115e-05
8.70172e-05
9.06783e-05
9.41635e-05
9.75656e-05
0.000100991
0.000104545
0.000108315
0.000112357
0.000116693
0.000121303
0.000126135
0.000131105
0.00013611
0.000141036
0.000145766
0.000150185
0.000154185
0.000157668
0.000160547
0.000162737
0.000163994
0.000164466
0.000164332
0.000162889
0.000160249
0.000156299
0.000150949
0.000144157
0.000135957
0.000126482
0.000115911
0.000104398
9.20264e-05
7.88174e-05
6.48566e-05
5.05014e-05
3.65007e-05
2.38501e-05
1.33871e-05
5.55504e-06
6.18329e-07
6.75962e-08
6.06834e-07
1.39213e-06
2.33206e-06
3.37594e-06
4.48917e-06
5.64706e-06
6.83327e-06
8.03954e-06
9.26551e-06
1.05184e-05
1.18121e-05
1.31663e-05
1.46053e-05
1.6157e-05
1.78516e-05
1.9721e-05
2.17972e-05
2.41118e-05
2.66942e-05
2.957e-05
3.27588e-05
3.62715e-05
4.0108e-05
4.42537e-05
4.86776e-05
5.33306e-05
5.8146e-05
6.30422e-05
6.79287e-05
7.27143e-05
7.73176e-05
8.16793e-05
8.57713e-05
8.96039e-05
9.3227e-05
9.67242e-05
0.000100202
0.000103776
0.000107552
0.000111611
0.000116001
0.000120727
0.000125756
0.00013102
0.00013642
0.000141841
0.000147158
0.000152244
0.00015698
0.000161254
0.000164968
0.000168034
0.000170372
0.000171738
0.000172256
0.000172158
0.000170706
0.000167982
0.000163859
0.00015822
0.000151005
0.000142246
0.000132109
0.000120839
0.000108679
9.57865e-05
8.21971e-05
6.7922e-05
5.3188e-05
3.86487e-05
2.53324e-05
1.42179e-05
5.88591e-06
6.55199e-07
7.29417e-08
6.54789e-07
1.50194e-06
2.51543e-06
3.6401e-06
4.83803e-06
6.08193e-06
7.35355e-06
8.64355e-06
9.95139e-06
1.12848e-05
1.26591e-05
1.40954e-05
1.562e-05
1.72624e-05
1.90548e-05
2.10301e-05
2.32215e-05
2.56607e-05
2.83768e-05
3.13941e-05
3.47296e-05
3.8391e-05
4.23731e-05
4.66554e-05
5.12e-05
5.59506e-05
6.0834e-05
6.57641e-05
7.06486e-05
7.5399e-05
7.99419e-05
8.42305e-05
8.8254e-05
9.20418e-05
9.56628e-05
9.92175e-05
0.000102824
0.000106601
0.000110653
0.000115055
0.00011984
0.000125
0.000130486
0.000136213
0.00014207
0.000147927
0.00015365
0.000159104
0.000164162
0.000168713
0.000172659
0.000175917
0.000178412
0.000179909
0.000180492
0.000180453
0.00017904
0.000176285
0.000172041
0.00016616
0.000158548
0.000149218
0.000138354
0.000126263
0.000113293
9.97127e-05
8.56122e-05
7.09609e-05
5.58534e-05
4.08092e-05
2.68452e-05
1.50724e-05
6.22537e-06
6.93032e-07
7.85934e-08
7.05479e-07
1.61798e-06
2.70907e-06
3.9188e-06
5.20563e-06
6.53931e-06
7.89948e-06
9.27558e-06
1.06668e-05
1.20816e-05
1.35364e-05
1.50543e-05
1.66634e-05
1.83952e-05
2.02831e-05
2.23616e-05
2.46644e-05
2.72233e-05
3.00667e-05
3.3217e-05
3.66888e-05
4.04858e-05
4.45978e-05
4.89984e-05
5.36431e-05
5.84693e-05
6.33986e-05
6.83421e-05
7.32081e-05
7.79133e-05
8.23942e-05
8.66188e-05
9.05937e-05
9.43677e-05
9.80274e-05
0.000101687
0.000105473
0.000109505
0.000113885
0.000118675
0.000123896
0.000129525
0.000135496
0.000141708
0.000148036
0.000154338
0.000160469
0.000166286
0.00017166
0.000176479
0.000180649
0.000184092
0.000186744
0.000188393
0.000189065
0.000189095
0.000187774
0.000185049
0.000180756
0.000174705
0.000166757
0.000156884
0.000145266
0.000132263
0.000118334
0.000103886
8.91156e-05
7.39934e-05
5.84948e-05
4.2973e-05
2.83836e-05
1.59492e-05
6.57305e-06
7.31789e-07
8.45683e-08
7.59058e-07
1.74058e-06
2.91354e-06
4.21281e-06
5.59284e-06
7.02014e-06
8.47193e-06
9.93625e-06
1.14121e-05
1.29085e-05
1.44434e-05
1.60418e-05
1.77337e-05
1.95525e-05
2.15332e-05
2.37112e-05
2.61206e-05
2.87933e-05
3.17563e-05
3.50304e-05
3.8627e-05
4.25458e-05
4.67716e-05
5.12723e-05
5.59975e-05
6.08793e-05
6.58357e-05
7.07766e-05
7.56132e-05
8.02696e-05
8.46942e-05
8.88704e-05
9.2823e-05
9.66188e-05
0.00010036
0.000104173
0.000108187
0.000112523
0.000117273
0.000122489
0.000128179
0.000134301
0.000140773
0.000147481
0.000154282
0.000161024
0.000167551
0.000173717
0.000179388
0.000184456
0.000188831
0.000192446
0.000195244
0.00019706
0.000197848
0.000197951
0.000196774
0.000194145
0.000189884
0.000183757
0.000175563
0.000165215
0.000152862
0.000138895
0.00012388
0.000108388
9.27687e-05
7.70487e-05
6.11146e-05
4.51321e-05
2.99418e-05
1.68465e-05
6.92851e-06
7.71421e-07
9.08844e-08
8.15685e-07
1.87009e-06
3.1294e-06
4.52287e-06
6.00057e-06
7.52534e-06
9.07169e-06
1.06261e-05
1.21873e-05
1.37651e-05
1.53791e-05
1.70563e-05
1.88287e-05
2.07315e-05
2.28012e-05
2.50741e-05
2.75847e-05
3.03642e-05
3.34385e-05
3.68261e-05
4.05354e-05
4.45618e-05
4.88854e-05
5.34688e-05
5.82566e-05
6.31766e-05
6.81448e-05
7.3072e-05
7.78742e-05
8.24846e-05
8.68646e-05
9.10141e-05
9.4975e-05
9.88308e-05
0.000102698
0.000106709
0.000110997
0.000115677
0.000120834
0.000126506
0.000132685
0.000139314
0.000146294
0.000153493
0.000160758
0.000167922
0.000174824
0.000181311
0.000187252
0.000192541
0.000197098
0.000200864
0.000203795
0.000205784
0.000206703
0.00020689
0.000205899
0.00020343
0.000199289
0.000193188
0.000184863
0.000174147
0.000161124
0.000146189
0.000129997
0.000113297
9.66377e-05
8.01645e-05
6.37213e-05
4.72806e-05
3.15139e-05
1.77625e-05
7.29122e-06
8.11869e-07
9.75606e-08
8.75527e-07
2.0069e-06
3.35725e-06
4.84979e-06
6.42973e-06
8.05583e-06
9.69952e-06
1.13456e-05
1.29925e-05
1.4651e-05
1.63425e-05
1.8096e-05
1.99458e-05
2.19289e-05
2.40831e-05
2.64456e-05
2.9051e-05
3.19297e-05
3.51061e-05
3.85965e-05
4.24059e-05
4.65259e-05
5.0932e-05
5.55821e-05
6.04165e-05
6.53605e-05
7.03294e-05
7.52367e-05
8.00049e-05
8.45777e-05
8.89306e-05
9.30793e-05
9.7082e-05
0.000101037
0.000105071
0.000109324
0.000113925
0.000118984
0.000124575
0.000130723
0.000137403
0.000144541
0.000152021
0.000159698
0.000167404
0.000174963
0.000182207
0.000188981
0.000195158
0.000200635
0.000205344
0.000209239
0.000212287
0.00021444
0.000215505
0.000215787
0.000215011
0.000212761
0.000208821
0.000202858
0.00019453
0.000183581
0.000169998
0.000154141
0.000136728
0.000118682
0.00010079
8.33855e-05
6.63296e-05
4.94147e-05
3.3094e-05
1.86948e-05
7.66055e-06
8.5306e-07
1.04617e-07
9.38758e-07
2.15139e-06
3.59771e-06
5.19438e-06
6.88125e-06
8.6125e-06
1.03561e-05
1.20951e-05
1.38276e-05
1.55655e-05
1.73321e-05
1.91589e-05
2.10823e-05
2.31413e-05
2.5375e-05
2.78211e-05
3.05142e-05
3.34838e-05
3.67528e-05
4.03349e-05
4.4232e-05
4.8432e-05
5.29062e-05
5.76086e-05
6.24765e-05
6.74336e-05
7.23963e-05
7.72824e-05
8.20223e-05
8.65711e-05
9.09185e-05
9.50954e-05
9.91749e-05
0.000103268
0.000107509
0.00011204
0.000116987
0.000122451
0.000128495
0.000135128
0.000142309
0.000149947
0.000157911
0.00016604
0.000174155
0.000182072
0.000189619
0.000196641
0.000203014
0.000208645
0.000213477
0.000217476
0.000220629
0.000222917
0.000224143
0.000224532
0.000223988
0.000222003
0.000218339
0.000212617
0.000204421
0.000193394
0.000179399
0.000162718
0.00014409
0.000124596
0.000105292
8.67612e-05
6.89604e-05
5.15336e-05
3.46763e-05
1.96406e-05
8.03575e-06
8.94913e-07
1.12073e-07
1.00556e-06
2.30397e-06
3.85142e-06
5.55749e-06
7.35609e-06
9.19626e-06
1.10422e-05
1.28749e-05
1.46922e-05
1.65076e-05
1.83464e-05
2.02428e-05
2.22355e-05
2.43653e-05
2.66727e-05
2.91959e-05
3.1969e-05
3.5021e-05
3.83727e-05
4.20355e-05
4.60083e-05
5.02754e-05
5.48049e-05
5.95475e-05
6.44385e-05
6.94016e-05
7.43555e-05
7.92238e-05
8.39457e-05
8.84883e-05
9.2855e-05
9.7091e-05
0.000101282
0.000105549
0.000110034
0.000114875
0.000120192
0.00012608
0.000132585
0.000139702
0.000147374
0.000155493
0.000163913
0.00017246
0.000180944
0.000189177
0.000196982
0.000204209
0.000210739
0.000216489
0.000221414
0.000225496
0.000228734
0.000231133
0.00023253
0.000233035
0.000232726
0.000231039
0.000227709
0.000222321
0.000214387
0.000203443
0.000189212
0.000171851
0.000152071
0.000131077
0.000110201
9.03434e-05
7.16402e-05
5.36398e-05
3.62552e-05
2.05969e-05
8.41595e-06
9.37328e-07
1.19953e-07
1.07613e-06
2.46506e-06
4.11906e-06
5.93999e-06
7.85519e-06
9.80797e-06
1.17583e-05
1.3685e-05
1.5586e-05
1.74762e-05
1.93838e-05
2.13453e-05
2.34023e-05
2.55974e-05
2.79722e-05
3.05654e-05
3.34109e-05
3.65363e-05
3.99609e-05
4.36937e-05
4.77309e-05
5.20538e-05
5.66274e-05
6.14005e-05
6.63076e-05
7.12732e-05
7.622e-05
8.1078e-05
8.57963e-05
9.03536e-05
9.47665e-05
9.90931e-05
0.00010343
0.000107904
0.000112663
0.000117839
0.000123545
0.000129864
0.00013683
0.000144421
0.000152564
0.000161135
0.000169975
0.000178897
0.000187705
0.000196206
0.000204225
0.000211614
0.000218263
0.0002241
0.000229091
0.000233233
0.00023654
0.00023903
0.000240599
0.000241233
0.000241143
0.000239773
0.00023682
0.00023184
0.000224282
0.000213581
0.000199305
0.000181447
0.000160632
0.000138137
0.000115564
9.41839e-05
7.43998e-05
5.57392e-05