/*--------------------------------*- C++ -*----------------------------------*\
  =========                 |
  \\      /  F ield         | OpenFOAM: The Open Source CFD Toolbox
   \\    /   O peration     | Website:  https://openfoam.org
    \\  /    A nd           | Version:  12
     \\/     M anipulation  |
\*---------------------------------------------------------------------------*/
FoamFile
{
    format      ascii;
    class       volScalarField;
    location    "8";
    object      nut;
}
// * * * * * * * * * * * * * * * * * * * * * * * * * * * * * * * * * * * * * //

dimensions      [0 2 -1 0 0 0 0];

internalField   nonuniform List<scalar> 
5625
(
5.20521e-15
3.52074e-14
7.8361e-14
1.29652e-13
1.86692e-13
2.47992e-13
3.12548e-13
3.79721e-13
4.49187e-13
5.20922e-13
5.9519e-13
6.72525e-13
7.53721e-13
8.39812e-13
9.32053e-13
1.0319e-12
1.141e-12
1.26114e-12
1.39427e-12
1.54246e-12
1.70787e-12
1.89275e-12
2.09942e-12
2.33023e-12
2.58752e-12
2.87364e-12
3.19089e-12
3.54151e-12
3.92761e-12
4.35121e-12
4.81417e-12
5.31815e-12
5.86467e-12
6.45499e-12
7.0902e-12
7.77111e-12
8.49829e-12
9.27204e-12
1.00923e-11
1.09587e-11
1.18703e-11
1.28255e-11
1.38219e-11
1.48562e-11
1.59234e-11
1.7017e-11
1.81278e-11
1.92441e-11
2.03509e-11
2.14291e-11
2.24553e-11
2.34013e-11
2.42334e-11
2.49101e-11
2.5368e-11
2.55734e-11
2.55811e-11
2.52519e-11
2.45679e-11
2.35264e-11
2.21381e-11
2.04343e-11
1.84697e-11
1.63203e-11
1.40767e-11
1.18347e-11
9.68411e-12
7.69856e-12
5.92851e-12
4.39882e-12
3.11098e-12
2.04942e-12
1.19169e-12
5.23791e-13
7.715e-14
1.57367e-13
5.1266e-12
1.28673e-11
2.1832e-11
3.17078e-11
4.22764e-11
5.33792e-11
6.49117e-11
7.68206e-11
8.91031e-11
1.01805e-10
1.15017e-10
1.28878e-10
1.43562e-10
1.59285e-10
1.76296e-10
1.94873e-10
2.15322e-10
2.37974e-10
2.63179e-10
2.91304e-10
3.22728e-10
3.57839e-10
3.9703e-10
4.40692e-10
4.89215e-10
5.42975e-10
6.02337e-10
6.67643e-10
7.39213e-10
8.17336e-10
9.02273e-10
9.94247e-10
1.09345e-09
1.20002e-09
1.31409e-09
1.43571e-09
1.56492e-09
1.7017e-09
1.84599e-09
1.99763e-09
2.15642e-09
2.32201e-09
2.49392e-09
2.67145e-09
2.85362e-09
3.03914e-09
3.22622e-09
3.41259e-09
3.59529e-09
3.77063e-09
3.93409e-09
4.08016e-09
4.20204e-09
4.2884e-09
4.32892e-09
4.3392e-09
4.29097e-09
4.18174e-09
4.01053e-09
3.77854e-09
3.4907e-09
3.15622e-09
2.7883e-09
2.40296e-09
2.01729e-09
1.64732e-09
1.30617e-09
1.00272e-09
7.41187e-10
5.21539e-10
3.40548e-10
1.93314e-10
7.56649e-11
2.33023e-12
3.34337e-13
2.74502e-11
8.82555e-11
1.60094e-10
2.38214e-10
3.21044e-10
4.07524e-10
4.96933e-10
5.88906e-10
6.83437e-10
7.8089e-10
8.81976e-10
9.87742e-10
1.09954e-09
1.21901e-09
1.34804e-09
1.48874e-09
1.6434e-09
1.81449e-09
2.00463e-09
2.21651e-09
2.4529e-09
2.71661e-09
3.01044e-09
3.33718e-09
3.69951e-09
4.10001e-09
4.54108e-09
5.02496e-09
5.55364e-09
6.12885e-09
6.75209e-09
7.42457e-09
8.14724e-09
8.92078e-09
9.74564e-09
1.06221e-08
1.15501e-08
1.25297e-08
1.35604e-08
1.46417e-08
1.57725e-08
1.69516e-08
1.81766e-08
1.94442e-08
2.07493e-08
2.20845e-08
2.34396e-08
2.48006e-08
2.61487e-08
2.74593e-08
2.87011e-08
2.98355e-08
3.08184e-08
3.15601e-08
3.19466e-08
3.21681e-08
3.19406e-08
3.12477e-08
3.00735e-08
2.84176e-08
2.63098e-08
2.38173e-08
2.10426e-08
1.81138e-08
1.51702e-08
1.2343e-08
9.73943e-09
7.43094e-09
5.44932e-09
3.79006e-09
2.42086e-09
1.29501e-09
4.01192e-10
4.93107e-12
5.47086e-13
6.44013e-11
2.6489e-10
5.29186e-10
8.19354e-10
1.12495e-09
1.44155e-09
1.76663e-09
2.09894e-09
2.43855e-09
2.78678e-09
3.14619e-09
3.5205e-09
3.9145e-09
4.33392e-09
4.78533e-09
5.27601e-09
5.81381e-09
6.4071e-09
7.06453e-09
7.79501e-09
8.6075e-09
9.51089e-09
1.05139e-08
1.16249e-08
1.28517e-08
1.42015e-08
1.56808e-08
1.72952e-08
1.90493e-08
2.09468e-08
2.29906e-08
2.51826e-08
2.75242e-08
3.00161e-08
3.26587e-08
3.54523e-08
3.83975e-08
4.14949e-08
4.47457e-08
4.81509e-08
5.17117e-08
5.54292e-08
5.93027e-08
6.33288e-08
6.74996e-08
7.18002e-08
7.62064e-08
8.06822e-08
8.51748e-08
8.96101e-08
9.38886e-08
9.78784e-08
1.01512e-07
1.04339e-07
1.05948e-07
1.07176e-07
1.06857e-07
1.04933e-07
1.01331e-07
9.60228e-08
8.90928e-08
8.07619e-08
7.13838e-08
6.14115e-08
5.13419e-08
4.16487e-08
3.27185e-08
2.48079e-08
1.80267e-08
1.23487e-08
7.64622e-09
3.77555e-09
9.32169e-10
8.01109e-12
7.89233e-13
1.08717e-10
5.37049e-10
1.18817e-09
1.93308e-09
2.72122e-09
3.53363e-09
4.36169e-09
5.20173e-09
6.05368e-09
6.92078e-09
7.80933e-09
8.7285e-09
9.68993e-09
1.07075e-08
1.17969e-08
1.29752e-08
1.42609e-08
1.56729e-08
1.72308e-08
1.89541e-08
2.0862e-08
2.29731e-08
2.53048e-08
2.78733e-08
3.0693e-08
3.37763e-08
3.71335e-08
4.07724e-08
4.46988e-08
4.89161e-08
5.34268e-08
5.82322e-08
6.33324e-08
6.87278e-08
7.44197e-08
8.04109e-08
8.67063e-08
9.33134e-08
1.00242e-07
1.07504e-07
1.15112e-07
1.23083e-07
1.31428e-07
1.40155e-07
1.4926e-07
1.58724e-07
1.68506e-07
1.78535e-07
1.88703e-07
1.98845e-07
2.08733e-07
2.18054e-07
2.26791e-07
2.3355e-07
2.37576e-07
2.40855e-07
2.40565e-07
2.36562e-07
2.28716e-07
2.16953e-07
2.01458e-07
1.82731e-07
1.61572e-07
1.39007e-07
1.16164e-07
9.41227e-08
7.37722e-08
5.57045e-08
4.01731e-08
2.71144e-08
1.62509e-08
7.42204e-09
1.55496e-09
1.14392e-11
1.05649e-12
1.57131e-10
8.77548e-10
2.12526e-09
3.64191e-09
5.27573e-09
6.96123e-09
8.66972e-09
1.03893e-08
1.2118e-08
1.38616e-08
1.56324e-08
1.74484e-08
1.93323e-08
2.13112e-08
2.34148e-08
2.56756e-08
2.81274e-08
3.08049e-08
3.37425e-08
3.6974e-08
4.05315e-08
4.44449e-08
4.87411e-08
5.34437e-08
5.85725e-08
6.41431e-08
7.01667e-08
7.66508e-08
8.3599e-08
9.10116e-08
9.88905e-08
1.07243e-07
1.16065e-07
1.2536e-07
1.35137e-07
1.45407e-07
1.5619e-07
1.67509e-07
1.79395e-07
1.91881e-07
2.05001e-07
2.18799e-07
2.3331e-07
2.48558e-07
2.64548e-07
2.81253e-07
2.98596e-07
3.16457e-07
3.34628e-07
3.52801e-07
3.70546e-07
3.87262e-07
4.02819e-07
4.14838e-07
4.2183e-07
4.27318e-07
4.26467e-07
4.18873e-07
4.04479e-07
3.83254e-07
3.55589e-07
3.22394e-07
2.85061e-07
2.45341e-07
2.05143e-07
1.66297e-07
1.30316e-07
9.82265e-08
7.04805e-08
4.69935e-08
2.7381e-08
1.17428e-08
2.21378e-09
1.51142e-11
1.34634e-12
2.08675e-10
1.26267e-09
3.28836e-09
5.91569e-09
8.82442e-09
1.18465e-08
1.49024e-08
1.79569e-08
2.1e-08
2.4039e-08
2.70937e-08
3.01946e-08
3.33805e-08
3.66964e-08
4.0192e-08
4.39202e-08
4.79351e-08
5.22909e-08
5.70403e-08
6.22333e-08
6.79162e-08
7.41301e-08
8.09103e-08
8.82877e-08
9.62867e-08
1.04923e-07
1.14207e-07
1.24146e-07
1.34741e-07
1.45989e-07
1.5789e-07
1.70442e-07
1.83657e-07
1.97549e-07
2.12141e-07
2.27465e-07
2.43563e-07
2.6049e-07
2.78308e-07
2.97089e-07
3.16909e-07
3.37832e-07
3.59916e-07
3.83201e-07
4.07687e-07
4.33322e-07
4.59978e-07
4.87397e-07
5.15186e-07
5.42786e-07
5.69437e-07
5.94199e-07
6.16312e-07
6.33477e-07
6.42535e-07
6.48612e-07
6.45266e-07
6.31582e-07
6.07938e-07
5.74491e-07
5.31953e-07
4.81718e-07
4.25802e-07
3.66668e-07
3.06969e-07
2.4924e-07
1.95597e-07
1.47489e-07
1.05584e-07
6.98185e-08
3.9835e-08
1.6332e-08
2.88658e-09
1.89635e-11
1.65741e-12
2.63144e-10
1.67843e-09
4.62042e-09
8.6698e-09
1.32958e-08
1.81591e-08
2.30796e-08
2.79717e-08
3.28043e-08
3.75813e-08
4.23308e-08
4.7099e-08
5.19451e-08
5.69383e-08
6.21538e-08
6.76703e-08
7.35667e-08
7.9921e-08
8.68076e-08
9.42944e-08
1.02443e-07
1.11306e-07
1.20927e-07
1.31338e-07
1.42566e-07
1.54627e-07
1.67532e-07
1.81287e-07
1.95893e-07
2.11358e-07
2.27683e-07
2.44876e-07
2.6296e-07
2.81966e-07
3.0194e-07
3.22941e-07
3.45043e-07
3.68331e-07
3.92904e-07
4.18868e-07
4.4633e-07
4.7538e-07
5.0609e-07
5.38489e-07
5.7254e-07
6.08111e-07
6.44934e-07
6.82553e-07
7.20309e-07
7.57303e-07
7.92391e-07
8.24219e-07
8.51311e-07
8.71003e-07
8.80387e-07
8.8417e-07
8.75673e-07
8.5316e-07
8.17895e-07
7.70345e-07
7.11586e-07
6.43476e-07
5.68569e-07
4.8991e-07
4.10751e-07
3.34196e-07
2.6285e-07
1.98524e-07
1.42076e-07
9.35063e-08
5.26166e-08
2.09458e-08
3.5634e-09
2.29359e-11
1.98912e-12
3.20563e-10
2.11817e-09
6.07763e-09
1.1807e-08
1.8559e-08
2.57591e-08
3.30663e-08
4.03047e-08
4.74005e-08
5.43453e-08
6.11738e-08
6.7951e-08
7.47624e-08
8.17073e-08
8.88932e-08
9.64304e-08
1.04428e-07
1.12991e-07
1.22217e-07
1.32195e-07
1.43003e-07
1.54707e-07
1.67361e-07
1.81005e-07
1.95668e-07
2.1137e-07
2.28125e-07
2.45939e-07
2.64822e-07
2.84786e-07
3.05843e-07
3.28016e-07
3.51344e-07
3.7588e-07
4.01694e-07
4.28871e-07
4.57516e-07
4.87745e-07
5.1969e-07
5.53485e-07
5.89254e-07
6.27099e-07
6.67076e-07
7.09169e-07
7.53247e-07
7.99025e-07
8.46013e-07
8.93467e-07
9.40373e-07
9.85432e-07
1.02708e-06
1.06353e-06
1.09285e-06
1.11228e-06
1.1179e-06
1.11737e-06
1.10127e-06
1.06775e-06
1.0194e-06
9.57034e-07
8.82027e-07
7.96601e-07
7.03697e-07
6.06774e-07
5.09509e-07
4.15433e-07
3.27528e-07
2.47897e-07
1.77569e-07
1.16624e-07
6.51e-08
2.54589e-08
4.23878e-09
2.69982e-11
2.34139e-12
3.81039e-10
2.57951e-09
7.63218e-09
1.52441e-08
2.44719e-08
3.44568e-08
4.46365e-08
5.46971e-08
6.44944e-08
7.39946e-08
8.3236e-08
9.23048e-08
1.01319e-07
1.10414e-07
1.19737e-07
1.29437e-07
1.39659e-07
1.50542e-07
1.62212e-07
1.74783e-07
1.88352e-07
2.03002e-07
2.18798e-07
2.35791e-07
2.54016e-07
2.73501e-07
2.94265e-07
3.16322e-07
3.39688e-07
3.64385e-07
3.90437e-07
4.17882e-07
4.46775e-07
4.77189e-07
5.09213e-07
5.42958e-07
5.78552e-07
6.16139e-07
6.55871e-07
6.97899e-07
7.42353e-07
7.89315e-07
8.38789e-07
8.90658e-07
9.4463e-07
1.00018e-06
1.05653e-06
1.11256e-06
1.16686e-06
1.21772e-06
1.26321e-06
1.30125e-06
1.32966e-06
1.34602e-06
1.34473e-06
1.33669e-06
1.31254e-06
1.26674e-06
1.20482e-06
1.12789e-06
1.03753e-06
9.3616e-07
8.26965e-07
7.13647e-07
6.00163e-07
4.90343e-07
3.87472e-07
2.93902e-07
2.10825e-07
1.38424e-07
7.69739e-08
2.98169e-08
4.90923e-09
3.11356e-11
2.71455e-12
4.44722e-10
3.06225e-09
9.26924e-09
1.89218e-08
3.09111e-08
4.40625e-08
5.75386e-08
7.08393e-08
8.3719e-08
9.61028e-08
1.08028e-07
1.19606e-07
1.30992e-07
1.42367e-07
1.53926e-07
1.65864e-07
1.7837e-07
1.91623e-07
2.05782e-07
2.2099e-07
2.37369e-07
2.55022e-07
2.7403e-07
2.94455e-07
3.16346e-07
3.39737e-07
3.64656e-07
3.91125e-07
4.19169e-07
4.48815e-07
4.801e-07
5.13073e-07
5.47799e-07
5.84364e-07
6.22875e-07
6.63458e-07
7.06261e-07
7.51444e-07
7.99175e-07
8.49606e-07
9.02848e-07
9.58931e-07
1.01776e-06
1.07905e-06
1.14229e-06
1.20663e-06
1.27093e-06
1.33368e-06
1.39309e-06
1.44712e-06
1.49358e-06
1.53026e-06
1.55499e-06
1.56572e-06
1.55609e-06
1.53756e-06
1.50515e-06
1.44745e-06
1.37213e-06
1.28147e-06
1.17704e-06
1.06139e-06
9.37775e-07
8.10014e-07
6.82221e-07
5.58436e-07
4.4219e-07
3.36075e-07
2.41461e-07
1.58652e-07
8.81379e-08
3.4006e-08
5.5746e-09
3.53331e-11
3.10921e-12
5.1179e-10
3.56732e-09
1.09831e-08
2.28043e-08
3.77848e-08
5.44163e-08
7.15422e-08
8.8432e-08
1.04707e-07
1.20238e-07
1.35056e-07
1.493e-07
1.6317e-07
1.76902e-07
1.90747e-07
2.04955e-07
2.19766e-07
2.35405e-07
2.52071e-07
2.69941e-07
2.89167e-07
3.09872e-07
3.32157e-07
3.56102e-07
3.81764e-07
4.09189e-07
4.38412e-07
4.69462e-07
5.02368e-07
5.37162e-07
5.73885e-07
6.1259e-07
6.53347e-07
6.96249e-07
7.41411e-07
7.88971e-07
8.39091e-07
8.91944e-07
9.477e-07
1.0065e-06
1.06841e-06
1.13336e-06
1.20112e-06
1.27116e-06
1.34268e-06
1.41448e-06
1.48501e-06
1.55242e-06
1.6146e-06
1.66929e-06
1.71422e-06
1.74721e-06
1.76626e-06
1.76957e-06
1.75071e-06
1.72156e-06
1.67811e-06
1.61117e-06
1.52291e-06
1.41946e-06
1.30228e-06
1.17387e-06
1.03751e-06
8.97024e-07
7.56583e-07
6.2037e-07
4.92123e-07
3.74671e-07
2.69597e-07
1.77351e-07
9.86149e-08
3.80346e-08
6.23582e-09
3.95878e-11
3.52625e-12
5.82443e-10
4.09624e-09
1.27737e-08
2.68744e-08
4.50336e-08
6.54005e-08
8.64632e-08
1.07223e-07
1.27141e-07
1.46019e-07
1.63882e-07
1.80898e-07
1.97321e-07
2.13451e-07
2.29602e-07
2.4609e-07
2.63213e-07
2.81245e-07
3.00434e-07
3.20994e-07
3.43107e-07
3.66924e-07
3.92566e-07
4.20127e-07
4.49678e-07
4.81272e-07
5.14949e-07
5.5074e-07
5.88674e-07
6.2878e-07
6.71095e-07
7.15668e-07
7.62568e-07
8.11889e-07
8.63751e-07
9.18301e-07
9.75712e-07
1.03617e-06
1.09983e-06
1.16682e-06
1.23711e-06
1.31053e-06
1.3866e-06
1.46455e-06
1.54321e-06
1.62102e-06
1.69609e-06
1.76625e-06
1.82919e-06
1.88258e-06
1.92419e-06
1.95198e-06
1.96418e-06
1.95907e-06
1.9307e-06
1.89154e-06
1.8359e-06
1.76029e-06
1.6608e-06
1.5453e-06
1.41633e-06
1.27632e-06
1.12848e-06
9.7657e-07
8.24759e-07
6.77308e-07
5.38126e-07
4.10283e-07
2.95603e-07
1.94722e-07
1.08489e-07
4.19227e-08
6.89458e-09
4.39043e-11
3.96673e-12
6.56907e-10
4.6509e-09
1.46447e-08
3.11282e-08
5.2626e-08
7.69394e-08
1.0217e-07
1.2702e-07
1.50772e-07
1.73145e-07
1.94156e-07
2.14012e-07
2.33027e-07
2.51571e-07
2.70036e-07
2.88806e-07
3.08244e-07
3.28684e-07
3.50421e-07
3.73709e-07
3.98767e-07
4.25769e-07
4.54859e-07
4.86145e-07
5.19707e-07
5.55604e-07
5.93874e-07
6.34544e-07
6.77635e-07
7.23165e-07
7.71159e-07
8.21658e-07
8.74722e-07
9.30443e-07
9.88947e-07
1.05039e-06
1.11497e-06
1.18287e-06
1.25424e-06
1.32915e-06
1.40749e-06
1.48888e-06
1.57262e-06
1.6576e-06
1.7423e-06
1.82484e-06
1.903e-06
1.97444e-06
2.03674e-06
2.08762e-06
2.12495e-06
2.14687e-06
2.15184e-06
2.13801e-06
2.10041e-06
2.052e-06
1.98464e-06
1.89798e-06
1.79046e-06
1.66317e-06
1.52291e-06
1.3719e-06
1.21331e-06
1.05078e-06
8.88436e-07
7.30557e-07
5.81184e-07
4.43616e-07
3.19945e-07
2.11027e-07
1.17868e-07
4.56955e-08
7.5531e-09
4.82924e-11
4.4319e-12
7.35427e-10
5.23336e-09
1.66018e-08
3.55703e-08
6.0553e-08
8.89936e-08
1.18582e-07
1.47697e-07
1.75423e-07
2.01395e-07
2.25624e-07
2.48358e-07
2.69982e-07
2.90947e-07
3.11725e-07
3.32781e-07
3.54546e-07
3.77416e-07
4.01737e-07
4.27807e-07
4.55877e-07
4.86151e-07
5.18788e-07
5.53909e-07
5.91601e-07
6.31918e-07
6.74895e-07
7.20545e-07
7.68872e-07
8.19876e-07
8.73565e-07
9.29963e-07
9.89123e-07
1.05114e-06
1.11614e-06
1.18432e-06
1.25588e-06
1.33102e-06
1.40988e-06
1.49246e-06
1.5785e-06
1.66742e-06
1.75824e-06
1.84951e-06
1.93939e-06
2.02568e-06
2.10601e-06
2.17788e-06
2.23889e-06
2.28683e-06
2.31971e-06
2.33583e-06
2.33382e-06
2.31145e-06
2.26515e-06
2.20794e-06
2.12976e-06
2.03097e-06
1.91562e-06
1.77755e-06
1.62587e-06
1.46385e-06
1.29464e-06
1.12177e-06
9.49261e-07
7.81383e-07
6.22253e-07
4.75364e-07
3.43091e-07
2.26542e-07
1.26868e-07
4.93799e-08
8.21383e-09
5.27649e-11
4.92313e-12
8.18268e-10
5.84588e-09
1.86523e-08
4.02115e-08
6.88208e-08
1.01551e-07
1.35658e-07
1.69176e-07
2.00983e-07
2.30626e-07
2.58114e-07
2.83745e-07
3.07982e-07
3.31366e-07
3.5446e-07
3.77808e-07
4.01919e-07
4.2725e-07
4.54203e-07
4.83117e-07
5.14278e-07
5.47911e-07
5.84193e-07
6.23252e-07
6.65173e-07
7.10005e-07
7.57765e-07
8.08448e-07
8.62032e-07
9.18494e-07
9.77818e-07
1.04001e-06
1.10513e-06
1.17326e-06
1.24458e-06
1.3193e-06
1.39765e-06
1.47986e-06
1.56603e-06
1.65608e-06
1.74958e-06
1.84573e-06
1.94322e-06
2.04031e-06
2.13484e-06
2.22443e-06
2.3066e-06
2.37875e-06
2.43855e-06
2.48385e-06
2.51278e-06
2.52375e-06
2.51549e-06
2.48519e-06
2.43091e-06
2.3656e-06
2.27689e-06
2.16586e-06
2.03962e-06
1.89288e-06
1.72897e-06
1.55528e-06
1.37499e-06
1.19151e-06
1.00875e-06
8.30933e-07
6.62189e-07
5.06155e-07
3.6547e-07
2.41519e-07
1.35602e-07
5.30023e-08
8.87924e-09
5.73361e-11
5.44197e-12
9.05714e-10
6.49082e-09
2.08042e-08
4.50667e-08
7.74466e-08
1.14622e-07
1.53389e-07
1.91426e-07
2.27394e-07
2.60755e-07
2.91523e-07
3.20055e-07
3.46902e-07
3.72702e-07
3.98111e-07
4.23764e-07
4.50245e-07
4.78078e-07
5.07715e-07
5.3954e-07
5.73867e-07
6.10945e-07
6.50959e-07
6.9404e-07
7.40266e-07
7.89669e-07
8.42246e-07
8.97961e-07
9.56763e-07
1.0186e-06
1.08343e-06
1.15126e-06
1.22214e-06
1.2962e-06
1.37363e-06
1.45471e-06
1.53971e-06
1.62888e-06
1.72229e-06
1.81974e-06
1.92063e-06
2.02391e-06
2.12788e-06
2.2305e-06
2.32971e-06
2.42283e-06
2.50713e-06
2.5801e-06
2.63941e-06
2.68298e-06
2.70895e-06
2.71576e-06
2.70215e-06
2.66449e-06
2.60278e-06
2.52988e-06
2.43046e-06
2.30805e-06
2.16818e-06
2.01225e-06
1.8358e-06
1.64914e-06
1.45671e-06
1.26182e-06
1.06827e-06
8.80217e-07
7.01733e-07
5.36525e-07
3.87452e-07
2.5618e-07
1.44168e-07
5.65865e-08
9.55161e-09
6.20206e-11
5.99005e-12
9.98065e-10
7.17064e-09
2.30659e-08
5.01534e-08
8.64546e-08
1.28227e-07
1.71789e-07
2.14443e-07
2.54635e-07
2.91745e-07
3.258e-07
3.57228e-07
3.86676e-07
4.14884e-07
4.42612e-07
4.70584e-07
4.99464e-07
5.29839e-07
5.62215e-07
5.97015e-07
6.34579e-07
6.75172e-07
7.18987e-07
7.66149e-07
8.1672e-07
8.70712e-07
9.28089e-07
9.88782e-07
1.05271e-06
1.11978e-06
1.18994e-06
1.2632e-06
1.33963e-06
1.4194e-06
1.50278e-06
1.5901e-06
1.68171e-06
1.77785e-06
1.87857e-06
1.98353e-06
2.09193e-06
2.20202e-06
2.3127e-06
2.42162e-06
2.52599e-06
2.62316e-06
2.71058e-06
2.78544e-06
2.84552e-06
2.88866e-06
2.91297e-06
2.91681e-06
2.89884e-06
2.85433e-06
2.78543e-06
2.70514e-06
2.59478e-06
2.46098e-06
2.30678e-06
2.13802e-06
1.94975e-06
1.74819e-06
1.54202e-06
1.33441e-06
1.12908e-06
9.30127e-07
7.41516e-07
5.66921e-07
4.09344e-07
2.70711e-07
1.52652e-07
6.01536e-08
1.02329e-08
6.68321e-11
6.56913e-12
1.09564e-09
7.88791e-09
2.54465e-08
5.54906e-08
9.58735e-08
1.42401e-07
1.90887e-07
2.38249e-07
2.82715e-07
3.23592e-07
3.60931e-07
3.95242e-07
4.27275e-07
4.57884e-07
4.87932e-07
5.18238e-07
5.49544e-07
5.82501e-07
6.17666e-07
6.55495e-07
6.96353e-07
7.40517e-07
7.88177e-07
8.39447e-07
8.94368e-07
9.52921e-07
1.01503e-06
1.0806e-06
1.1495e-06
1.22162e-06
1.29691e-06
1.37537e-06
1.45715e-06
1.54246e-06
1.63168e-06
1.72523e-06
1.82351e-06
1.92679e-06
2.03507e-06
2.14779e-06
2.26347e-06
2.38173e-06
2.49986e-06
2.61548e-06
2.72586e-06
2.82835e-06
2.92012e-06
2.99839e-06
3.06081e-06
3.1051e-06
3.12921e-06
3.13134e-06
3.11003e-06
3.0593e-06
2.98347e-06
2.89583e-06
2.77415e-06
2.62798e-06
2.4595e-06
2.27432e-06
2.07312e-06
1.855e-06
1.63298e-06
1.41089e-06
1.19235e-06
9.81478e-07
7.82087e-07
5.97714e-07
4.31394e-07
2.85263e-07
1.61122e-07
6.3722e-08
1.09248e-08
7.17823e-11
7.18107e-12
1.19877e-09
8.64531e-09
2.79553e-08
6.10983e-08
1.05735e-07
1.57182e-07
2.10722e-07
2.62877e-07
3.11659e-07
3.56312e-07
3.96925e-07
4.34098e-07
4.68699e-07
5.01696e-07
5.34064e-07
5.66715e-07
6.00471e-07
6.36044e-07
6.74037e-07
7.14938e-07
7.59131e-07
8.06895e-07
8.58416e-07
9.13787e-07
9.73023e-07
1.03607e-06
1.1028e-06
1.17309e-06
1.24678e-06
1.32374e-06
1.40393e-06
1.4874e-06
1.57434e-06
1.6651e-06
1.76016e-06
1.86003e-06
1.96521e-06
2.07596e-06
2.19215e-06
2.31261e-06
2.43743e-06
2.56414e-06
2.6905e-06
2.81395e-06
2.9318e-06
3.04128e-06
3.13892e-06
3.22236e-06
3.28888e-06
3.33598e-06
3.36134e-06
3.36296e-06
3.33915e-06
3.28281e-06
3.20039e-06
3.10491e-06
2.97161e-06
2.8122e-06
2.62861e-06
2.42509e-06
2.20765e-06
1.97199e-06
1.73155e-06
1.49281e-06
1.25923e-06
1.03505e-06
8.23945e-07
6.29221e-07
4.53807e-07
2.99957e-07
1.69631e-07
6.73079e-08
1.16283e-08
7.68809e-11
7.82783e-12
1.30779e-09
9.44559e-09
3.0602e-08
6.69973e-08
1.16073e-07
1.72613e-07
2.31341e-07
2.8837e-07
3.41504e-07
3.89936e-07
4.33804e-07
4.73815e-07
5.10958e-07
5.46328e-07
5.8101e-07
6.16012e-07
6.52234e-07
6.90447e-07
7.31295e-07
7.75294e-07
8.2284e-07
8.7421e-07
9.29576e-07
9.89007e-07
1.05248e-06
1.1199e-06
1.19112e-06
1.26595e-06
1.34421e-06
1.42579e-06
1.51067e-06
1.59896e-06
1.69097e-06
1.78718e-06
1.88818e-06
1.99463e-06
2.10709e-06
2.22585e-06
2.34996e-06
2.48015e-06
2.61433e-06
2.75052e-06
2.88633e-06
3.01926e-06
3.14652e-06
3.26422e-06
3.36973e-06
3.46025e-06
3.53269e-06
3.5842e-06
3.61219e-06
3.61433e-06
3.5887e-06
3.52725e-06
3.43855e-06
3.33439e-06
3.18923e-06
3.01569e-06
2.81582e-06
2.59317e-06
2.35558e-06
2.10109e-06
1.83958e-06
1.58169e-06
1.33085e-06
1.0916e-06
8.67568e-07
6.61726e-07
4.76752e-07
3.14888e-07
1.78214e-07
7.09284e-08
1.23441e-08
8.21348e-11
8.5115e-12
1.42306e-09
1.02916e-08
3.33965e-08
7.32095e-08
1.26921e-07
1.88738e-07
2.5279e-07
3.14776e-07
3.72294e-07
4.24499e-07
4.71599e-07
5.14414e-07
5.54069e-07
5.91789e-07
6.28774e-07
6.66126e-07
7.0482e-07
7.45683e-07
7.89398e-07
8.36501e-07
8.87394e-07
9.42347e-07
1.00151e-06
1.06493e-06
1.13253e-06
1.20419e-06
1.27971e-06
1.35887e-06
1.44149e-06
1.52748e-06
1.61687e-06
1.70987e-06
1.80693e-06
1.90867e-06
2.01585e-06
2.12927e-06
2.24956e-06
2.37626e-06
2.5105e-06
2.65071e-06
2.79535e-06
2.94231e-06
3.0893e-06
3.23374e-06
3.37133e-06
3.4994e-06
3.61487e-06
3.71433e-06
3.79436e-06
3.85176e-06
3.88355e-06
3.8871e-06
3.86023e-06
3.79402e-06
3.69873e-06
3.58555e-06
3.42812e-06
3.23961e-06
3.02225e-06
2.77967e-06
2.5199e-06
2.24362e-06
1.95873e-06
1.679e-06
1.40836e-06
1.15195e-06
9.13449e-07
6.95503e-07
5.00377e-07
3.30134e-07
1.86891e-07
7.4605e-08
1.30725e-08
8.75487e-11
9.23446e-12
1.54492e-09
1.11863e-08
3.63489e-08
7.97572e-08
1.38315e-07
2.05602e-07
2.7512e-07
3.42142e-07
4.0407e-07
4.60039e-07
5.10338e-07
5.55919e-07
5.9805e-07
6.3809e-07
6.77355e-07
7.17046e-07
7.58206e-07
8.01717e-07
8.48292e-07
8.98483e-07
9.52693e-07
1.01118e-06
1.07407e-06
1.14136e-06
1.21296e-06
1.28868e-06
1.3683e-06
1.45158e-06
1.53836e-06
1.62858e-06
1.72234e-06
1.82002e-06
1.9222e-06
2.02969e-06
2.14343e-06
2.26434e-06
2.39261e-06
2.52936e-06
2.67396e-06
2.8253e-06
2.98169e-06
3.14111e-06
3.30137e-06
3.4579e-06
3.60811e-06
3.74867e-06
3.87592e-06
3.98603e-06
4.07517e-06
4.1397e-06
4.17626e-06
4.18191e-06
4.15424e-06
4.08348e-06
3.98103e-06
3.85862e-06
3.68856e-06
3.48439e-06
3.24867e-06
2.98522e-06
2.70207e-06
2.40091e-06
2.09045e-06
1.7861e-06
1.4929e-06
1.21691e-06
9.62105e-07
7.30833e-07
5.24826e-07
3.45768e-07
1.95694e-07
7.83432e-08
1.38132e-08
9.31241e-11
9.99898e-12
1.67376e-09
1.21327e-08
3.947e-08
8.66631e-08
1.50291e-07
2.2325e-07
2.98379e-07
3.70516e-07
4.36876e-07
4.96592e-07
5.5005e-07
5.9835e-07
6.4291e-07
6.85231e-07
7.26748e-07
7.68754e-07
8.12362e-07
8.585e-07
9.07909e-07
9.61152e-07
1.01862e-06
1.08056e-06
1.14707e-06
1.21811e-06
1.29354e-06
1.37314e-06
1.45666e-06
1.54386e-06
1.63461e-06
1.72891e-06
1.827e-06
1.92939e-06
2.03688e-06
2.15046e-06
2.27125e-06
2.40015e-06
2.53789e-06
2.68513e-06
2.84118e-06
3.00488e-06
3.17456e-06
3.34865e-06
3.52241e-06
3.69338e-06
3.85822e-06
4.01305e-06
4.15374e-06
4.27597e-06
4.37546e-06
4.44811e-06
4.49017e-06
4.49842e-06
4.47024e-06
4.39513e-06
4.28482e-06
4.15298e-06
3.97003e-06
3.74967e-06
3.49494e-06
3.20994e-06
2.90272e-06
2.57403e-06
2.23593e-06
1.9042e-06
1.58559e-06
1.28735e-06
1.01409e-06
7.6802e-07
5.50242e-07
3.6186e-07
2.04661e-07
8.21433e-08
1.4566e-08
9.88607e-11
1.08073e-11
1.81001e-09
1.31342e-08
4.27707e-08
9.39503e-08
1.62885e-07
2.41726e-07
3.22615e-07
3.99942e-07
4.70752e-07
5.34188e-07
5.90759e-07
6.4172e-07
6.88656e-07
7.33209e-07
7.76936e-07
8.2122e-07
8.67243e-07
9.15971e-07
9.6817e-07
1.0244e-06
1.08506e-06
1.15036e-06
1.22036e-06
1.29498e-06
1.37407e-06
1.45735e-06
1.54457e-06
1.63552e-06
1.73008e-06
1.82839e-06
1.93082e-06
2.03808e-06
2.15115e-06
2.27128e-06
2.39979e-06
2.53731e-06
2.68556e-06
2.84426e-06
3.01292e-06
3.19028e-06
3.37566e-06
3.56427e-06
3.7538e-06
3.9411e-06
4.12223e-06
4.29288e-06
4.44839e-06
4.58394e-06
4.69473e-06
4.7762e-06
4.82425e-06
4.83541e-06
4.80692e-06
4.72774e-06
4.60889e-06
4.4673e-06
4.27133e-06
4.03442e-06
3.76018e-06
3.45338e-06
3.12177e-06
2.76363e-06
2.39599e-06
2.03433e-06
1.68742e-06
1.36412e-06
1.07e-06
8.07395e-07
5.76782e-07
3.78474e-07
2.13819e-07
8.60086e-08
1.53304e-08
1.04756e-10
1.1662e-11
1.95413e-09
1.4194e-08
4.62623e-08
1.01642e-07
1.76132e-07
2.61075e-07
3.47871e-07
4.30463e-07
5.0573e-07
5.72854e-07
6.32479e-07
6.86037e-07
7.35282e-07
7.82008e-07
8.27892e-07
8.74407e-07
9.22794e-07
9.7406e-07
1.02898e-06
1.08813e-06
1.15188e-06
1.22041e-06
1.29375e-06
1.37181e-06
1.45436e-06
1.54114e-06
1.63188e-06
1.72641e-06
1.82471e-06
1.92701e-06
2.03388e-06
2.14623e-06
2.26528e-06
2.39246e-06
2.52903e-06
2.67672e-06
2.83613e-06
3.00735e-06
3.18978e-06
3.38332e-06
3.58389e-06
3.78907e-06
3.99612e-06
4.20124e-06
4.40009e-06
4.58782e-06
4.75924e-06
4.90896e-06
5.03169e-06
5.12243e-06
5.17675e-06
5.19095e-06
5.16222e-06
5.0795e-06
4.95159e-06
4.79963e-06
4.59075e-06
4.33708e-06
4.04284e-06
3.71455e-06
3.35841e-06
2.96991e-06
2.57105e-06
2.1772e-06
1.79929e-06
1.44804e-06
1.13045e-06
8.49319e-07
6.04613e-07
3.95681e-07
2.23191e-07
8.99437e-08
1.61054e-08
1.10805e-10
1.25656e-11
2.10657e-09
1.53159e-08
4.99565e-08
1.09763e-07
1.90068e-07
2.81338e-07
3.74192e-07
4.62114e-07
5.4184e-07
6.12608e-07
6.75219e-07
7.31296e-07
7.82775e-07
8.31604e-07
8.7958e-07
9.28263e-07
9.78952e-07
1.03269e-06
1.09025e-06
1.15222e-06
1.21894e-06
1.29056e-06
1.3671e-06
1.44841e-06
1.53425e-06
1.62435e-06
1.71847e-06
1.81647e-06
1.91846e-06
2.02482e-06
2.13631e-06
2.25408e-06
2.37959e-06
2.51455e-06
2.66023e-06
2.81857e-06
2.99011e-06
3.17492e-06
3.37339e-06
3.5826e-06
3.8e-06
4.02339e-06
4.24928e-06
4.47346e-06
4.69112e-06
4.89687e-06
5.08494e-06
5.24938e-06
5.38441e-06
5.48463e-06
5.5453e-06
5.56254e-06
5.53347e-06
5.44788e-06
5.31117e-06
5.14751e-06
4.92612e-06
4.65579e-06
4.34149e-06
3.99139e-06
3.61116e-06
3.19251e-06
2.7611e-06
2.33323e-06
1.92185e-06
1.53983e-06
1.19604e-06
8.94179e-07
6.33922e-07
4.13551e-07
2.32802e-07
9.39535e-08
1.68905e-08
1.17001e-10
1.35208e-11
2.26781e-09
1.65034e-08
5.38655e-08
1.18337e-07
2.04728e-07
3.02556e-07
4.01616e-07
4.94929e-07
5.79104e-07
6.5346e-07
7.18978e-07
7.77487e-07
8.31112e-07
8.81963e-07
9.31954e-07
9.8273e-07
1.03564e-06
1.09176e-06
1.15188e-06
1.21655e-06
1.28611e-06
1.36069e-06
1.44026e-06
1.52465e-06
1.61362e-06
1.70689e-06
1.80426e-06
1.90568e-06
2.01139e-06
2.12194e-06
2.23832e-06
2.36189e-06
2.49436e-06
2.6375e-06
2.7934e-06
2.96325e-06
3.14789e-06
3.34817e-06
3.56251e-06
3.78841e-06
4.02424e-06
4.26696e-06
4.51271e-06
4.75688e-06
4.99412e-06
5.21846e-06
5.42357e-06
5.60298e-06
5.75043e-06
5.86015e-06
5.92713e-06
5.9473e-06
5.91772e-06
5.82999e-06
5.68512e-06
5.50836e-06
5.27496e-06
4.9883e-06
4.65431e-06
4.28158e-06
3.87798e-06
3.4305e-06
2.96568e-06
2.50246e-06
2.05554e-06
1.64012e-06
1.26736e-06
9.42376e-07
6.64914e-07
4.32164e-07
2.42676e-07
9.80431e-08
1.76848e-08
1.23338e-10
1.45307e-11
2.43836e-09
1.77605e-08
5.80018e-08
1.2739e-07
2.20149e-07
3.24768e-07
4.30177e-07
5.28934e-07
6.17537e-07
6.95413e-07
7.63747e-07
8.24587e-07
8.80262e-07
9.33041e-07
9.8496e-07
1.03774e-06
1.09279e-06
1.1512e-06
1.21376e-06
1.28101e-06
1.35328e-06
1.43066e-06
1.5131e-06
1.60042e-06
1.69236e-06
1.78868e-06
1.88923e-06
1.99408e-06
2.1036e-06
2.21855e-06
2.34014e-06
2.46999e-06
2.61003e-06
2.7623e-06
2.92889e-06
3.1111e-06
3.3104e-06
3.52636e-06
3.75692e-06
4.00104e-06
4.2562e-06
4.51908e-06
4.78542e-06
5.05014e-06
5.30734e-06
5.5505e-06
5.77273e-06
5.96709e-06
6.12687e-06
6.24597e-06
6.31913e-06
6.34215e-06
6.31194e-06
6.2227e-06
6.07012e-06
5.87959e-06
5.63449e-06
5.33201e-06
4.97905e-06
4.58286e-06
4.15642e-06
3.68236e-06
3.18391e-06
2.68454e-06
2.20046e-06
1.74932e-06
1.34491e-06
9.94308e-07
6.97804e-07
4.51604e-07
2.52837e-07
1.02217e-07
1.84875e-08
1.29805e-10
1.55981e-11
2.61874e-09
1.90911e-08
6.23786e-08
1.36946e-07
2.36364e-07
3.48012e-07
4.59909e-07
5.6415e-07
6.57146e-07
7.38461e-07
8.09505e-07
8.72567e-07
9.30183e-07
9.84789e-07
1.03854e-06
1.09323e-06
1.15032e-06
1.2109e-06
1.27579e-06
1.3455e-06
1.42033e-06
1.50037e-06
1.58553e-06
1.67563e-06
1.77043e-06
1.86972e-06
1.97344e-06
2.08176e-06
2.19524e-06
2.31486e-06
2.44206e-06
2.57869e-06
2.7269e-06
2.88894e-06
3.06698e-06
3.26293e-06
3.47729e-06
3.70877e-06
3.95698e-06
4.22002e-06
4.49515e-06
4.77868e-06
5.06598e-06
5.35143e-06
5.62863e-06
5.8905e-06
6.12966e-06
6.33869e-06
6.51054e-06
6.63881e-06
6.71803e-06
6.74383e-06
6.71299e-06
6.62244e-06
6.46293e-06
6.2584e-06
6.00178e-06
5.68404e-06
5.31281e-06
4.89338e-06
4.44381e-06
3.946e-06
3.41446e-06
2.87876e-06
2.35646e-06
1.86765e-06
1.42909e-06
1.05035e-06
7.32819e-07
4.71963e-07
2.63312e-07
1.06478e-07
1.92978e-08
1.3639e-10
1.67262e-11
2.80951e-09
2.04996e-08
6.70093e-08
1.47031e-07
2.5341e-07
3.72323e-07
4.90838e-07
6.0059e-07
6.97932e-07
7.82589e-07
8.56227e-07
9.21387e-07
9.80827e-07
1.03715e-06
1.09262e-06
1.14913e-06
1.20814e-06
1.2708e-06
1.33788e-06
1.40992e-06
1.48718e-06
1.56973e-06
1.65749e-06
1.75025e-06
1.84782e-06
1.95004e-06
2.05695e-06
2.16887e-06
2.28654e-06
2.41114e-06
2.54438e-06
2.68833e-06
2.84528e-06
3.01777e-06
3.2085e-06
3.41852e-06
3.64753e-06
3.89583e-06
4.16222e-06
4.44462e-06
4.74002e-06
5.04438e-06
5.35261e-06
5.65864e-06
5.95551e-06
6.23568e-06
6.49128e-06
6.71454e-06
6.89807e-06
7.03523e-06
7.12038e-06
7.14903e-06
7.11797e-06
7.02524e-06
6.86022e-06
6.64195e-06
6.37382e-06
6.0414e-06
5.65237e-06
5.21143e-06
4.73739e-06
4.21874e-06
3.65563e-06
3.08402e-06
2.52302e-06
1.9951e-06
1.52018e-06
1.11083e-06
7.70183e-07
4.93338e-07
2.74128e-07
1.1083e-07
2.01144e-08
1.43082e-10
1.79184e-11
3.01124e-09
2.19904e-08
7.19081e-08
1.57672e-07
2.71319e-07
3.97732e-07
5.22987e-07
6.38264e-07
7.39884e-07
8.27773e-07
9.03874e-07
9.71e-07
1.03214e-06
1.09006e-06
1.14715e-06
1.20535e-06
1.26619e-06
1.3308e-06
1.39997e-06
1.47421e-06
1.55377e-06
1.63871e-06
1.72894e-06
1.82429e-06
1.92458e-06
2.02974e-06
2.13992e-06
2.2556e-06
2.37771e-06
2.50768e-06
2.64742e-06
2.79926e-06
2.96575e-06
3.14962e-06
3.3531e-06
3.57683e-06
3.82162e-06
4.08709e-06
4.37193e-06
4.67383e-06
4.98948e-06
5.31447e-06
5.64328e-06
5.96934e-06
6.28525e-06
6.58301e-06
6.85438e-06
7.09125e-06
7.28598e-06
7.43171e-06
7.52265e-06
7.55421e-06
7.52319e-06
7.42787e-06
7.25871e-06
7.02742e-06
6.74761e-06
6.40122e-06
5.99535e-06
5.53444e-06
5.03458e-06
4.49736e-06
3.90541e-06
3.29887e-06
2.69933e-06
2.13137e-06
1.61826e-06
1.17601e-06
8.10109e-07
5.15826e-07
2.85315e-07
1.15273e-07
2.09365e-08
1.49864e-10
1.91782e-11
3.22454e-09
2.35682e-08
7.70896e-08
1.68895e-07
2.90125e-07
4.2427e-07
5.56372e-07
6.77169e-07
7.82986e-07
8.7398e-07
9.524e-07
1.02135e-06
1.08406e-06
1.14346e-06
1.20205e-06
1.26185e-06
1.3244e-06
1.39085e-06
1.46198e-06
1.5383e-06
1.62005e-06
1.70728e-06
1.7999e-06
1.89778e-06
2.00078e-06
2.10894e-06
2.22252e-06
2.34218e-06
2.46904e-06
2.60475e-06
2.75146e-06
2.91172e-06
3.08832e-06
3.28379e-06
3.50002e-06
3.73836e-06
3.99916e-06
4.28194e-06
4.58521e-06
4.90643e-06
5.24197e-06
5.58704e-06
5.9357e-06
6.28095e-06
6.61497e-06
6.92938e-06
7.21563e-06
7.46537e-06
7.67073e-06
7.82469e-06
7.92129e-06
7.95583e-06
7.925e-06
7.82706e-06
7.65497e-06
7.41214e-06
7.12012e-06
6.76061e-06
6.33901e-06
5.85991e-06
5.33362e-06
4.77798e-06
4.16157e-06
3.52155e-06
2.88424e-06
2.27595e-06