/*--------------------------------*- C++ -*----------------------------------*\
  =========                 |
  \\      /  F ield         | OpenFOAM: The Open Source CFD Toolbox
   \\    /   O peration     | Website:  https://openfoam.org
    \\  /    A nd           | Version:  12
     \\/     M anipulation  |
\*---------------------------------------------------------------------------*/
FoamFile
{
    format      ascii;
    class       volVectorField;
    location    "8";
    object      U;
}
// * * * * * * * * * * * * * * * * * * * * * * * * * * * * * * * * * * * * * //

dimensions      [0 1 -1 0 0 0 0];

internalField   nonuniform List<vector> 
5625
(
(-6.40796e-06 2.58588e-06 0)
(8.10898e-06 -2.58482e-06 0)
(6.21578e-05 -6.0834e-06 0)
(0.000142345 -7.98182e-06 0)
(0.00023675 -8.83213e-06 0)
(0.000336551 -8.97161e-06 0)
(0.000435411 -8.6574e-06 0)
(0.00052902 -8.06352e-06 0)
(0.000614567 -7.31092e-06 0)
(0.000690341 -6.48254e-06 0)
(0.000755404 -5.63422e-06 0)
(0.00080934 -4.80041e-06 0)
(0.000852048 -4.00036e-06 0)
(0.000883581 -3.24183e-06 0)
(0.000903999 -2.51802e-06 0)
(0.000913289 -1.8257e-06 0)
(0.000911272 -1.14427e-06 0)
(0.000897456 -4.50242e-07 0)
(0.000871062 2.81244e-07 0)
(0.00083092 1.08111e-06 0)
(0.000775415 1.98394e-06 0)
(0.000702431 3.03083e-06 0)
(0.000609313 4.26546e-06 0)
(0.000492808 5.73688e-06 0)
(0.000349032 7.49813e-06 0)
(0.000173424 9.60245e-06 0)
(-3.92857e-05 1.21105e-05 0)
(-0.000295082 1.50839e-05 0)
(-0.000600697 1.85977e-05 0)
(-0.000963569 2.27215e-05 0)
(-0.00139178 2.7523e-05 0)
(-0.001894 3.30714e-05 0)
(-0.00247935 3.94301e-05 0)
(-0.00315721 4.66521e-05 0)
(-0.00393694 5.47749e-05 0)
(-0.00482758 6.38132e-05 0)
(-0.0058374 7.3751e-05 0)
(-0.00697344 8.4533e-05 0)
(-0.00824086 9.60547e-05 0)
(-0.00964236 0.000108153 0)
(-0.0111774 0.000120599 0)
(-0.0128416 0.000133086 0)
(-0.0146259 0.000145231 0)
(-0.0165157 0.000156564 0)
(-0.0184908 0.000166537 0)
(-0.0205241 0.000174523 0)
(-0.022582 0.000179831 0)
(-0.024624 0.000181722 0)
(-0.0266028 0.000179432 0)
(-0.0284647 0.000172219 0)
(-0.0301507 0.000159465 0)
(-0.0315937 0.000139614 0)
(-0.0327335 0.000113919 0)
(-0.0334971 8.1779e-05 0)
(-0.0338374 4.15533e-05 0)
(-0.0336937 -3.12887e-06 0)
(-0.0330172 -5.23908e-05 0)
(-0.0317922 -0.000104826 0)
(-0.0300167 -0.000157307 0)
(-0.0277184 -0.000206779 0)
(-0.0249562 -0.000249754 0)
(-0.0218215 -0.000282717 0)
(-0.0184353 -0.000302566 0)
(-0.0149423 -0.000307109 0)
(-0.0115008 -0.000295506 0)
(-0.00826896 -0.000268551 0)
(-0.00539024 -0.000228675 0)
(-0.00297962 -0.000179624 0)
(-0.00111306 -0.000125873 0)
(0.000177982 -7.20495e-05 0)
(0.000906355 -2.20664e-05 0)
(0.00112708 2.038e-05 0)
(0.000936767 5.2066e-05 0)
(0.000505623 6.34285e-05 0)
(9.10973e-05 4.20679e-05 0)
(-4.51144e-06 -1.13749e-06 0)
(5.52208e-05 -3.7163e-05 0)
(0.000204903 -6.89582e-05 0)
(0.000417789 -8.88009e-05 0)
(0.000666609 -9.8599e-05 0)
(0.00092974 -0.000100825 0)
(0.00119071 -9.76887e-05 0)
(0.00143777 -9.09213e-05 0)
(0.0016629 -8.18244e-05 0)
(0.00186093 -7.13432e-05 0)
(0.00202875 -6.01368e-05 0)
(0.00216464 -4.86296e-05 0)
(0.00226776 -3.70616e-05 0)
(0.00233768 -2.55206e-05 0)
(0.00237399 -1.39592e-05 0)
(0.00237606 -2.26671e-06 0)
(0.00234278 9.8009e-06 0)
(0.00227211 2.25652e-05 0)
(0.00216126 3.63641e-05 0)
(0.00200623 5.16325e-05 0)
(0.00180179 6.88535e-05 0)
(0.00154124 8.85668e-05 0)
(0.00121634 0.000111357 0)
(0.000817146 0.000137878 0)
(0.000331957 0.000168743 0)
(-0.000252801 0.000204678 0)
(-0.000952724 0.000246443 0)
(-0.00178541 0.000294782 0)
(-0.00277017 0.000350396 0)
(-0.00392818 0.000413976 0)
(-0.0052822 0.000486147 0)
(-0.00685624 0.000567412 0)
(-0.00867504 0.000658105 0)
(-0.0107634 0.000758319 0)
(-0.0131455 0.000867842 0)
(-0.0158435 0.000986066 0)
(-0.0188766 0.00111191 0)
(-0.0222594 0.00124373 0)
(-0.0260001 0.00137927 0)
(-0.030099 0.00151554 0)
(-0.0345465 0.00164886 0)
(-0.0393212 0.00177479 0)
(-0.0443882 0.00188819 0)
(-0.0496977 0.00198326 0)
(-0.0551836 0.00205368 0)
(-0.0607632 0.00209271 0)
(-0.0663366 0.00209347 0)
(-0.0717873 0.0020491 0)
(-0.0769834 0.00195314 0)
(-0.0817801 0.00179982 0)
(-0.0860218 0.00158427 0)
(-0.0895405 0.00130186 0)
(-0.0921956 0.000950786 0)
(-0.093772 0.000541916 0)
(-0.0942086 8.53478e-05 0)
(-0.0933504 -0.000432733 0)
(-0.0911041 -0.000978325 0)
(-0.0874436 -0.00153414 0)
(-0.0823884 -0.00207496 0)
(-0.076027 -0.00257139 0)
(-0.0685212 -0.00299182 0)
(-0.060107 -0.00330539 0)
(-0.0510885 -0.00348546 0)
(-0.0418234 -0.00351356 0)
(-0.0327001 -0.00338285 0)
(-0.0241074 -0.00310047 0)
(-0.0164017 -0.00268781 0)
(-0.00987385 -0.00217851 0)
(-0.00472354 -0.00161431 0)
(-0.00104259 -0.00104014 0)
(0.00118913 -0.000500123 0)
(0.00210339 -3.63929e-05 0)
(0.00194367 0.000301648 0)
(0.0011203 0.000438826 0)
(0.000201314 0.000275465 0)
(2.48276e-06 -1.97269e-05 0)
(0.000115097 -0.00010736 0)
(0.000350687 -0.000183932 0)
(0.000674214 -0.000233487 0)
(0.00104861 -0.000258638 0)
(0.00144339 -0.000264543 0)
(0.00183433 -0.00025631 0)
(0.00220355 -0.00023819 0)
(0.00253844 -0.000213493 0)
(0.00283052 -0.000184679 0)
(0.00307439 -0.000153489 0)
(0.00326672 -0.000121057 0)
(0.00340552 -8.80249e-05 0)
(0.00348938 -5.46226e-05 0)
(0.00351694 -2.07213e-05 0)
(0.00348649 1.3984e-05 0)
(0.00339532 5.02521e-05 0)
(0.00323956 8.88863e-05 0)
(0.00301388 0.000130891 0)
(0.00271106 0.000177485 0)
(0.00232187 0.000230027 0)
(0.00183473 0.000290053 0)
(0.00123564 0.000359099 0)
(0.000507869 0.000438921 0)
(-0.000368224 0.000531444 0)
(-0.00141534 0.000638609 0)
(-0.00265893 0.000762333 0)
(-0.00412743 0.000904536 0)
(-0.00585218 0.00106708 0)
(-0.00786701 0.00125169 0)
(-0.0102078 0.0014598 0)
(-0.012912 0.00169244 0)
(-0.0160172 0.00195008 0)
(-0.0195607 0.00223244 0)
(-0.0235772 0.00253829 0)
(-0.0280974 0.00286522 0)
(-0.033146 0.00320946 0)
(-0.0387387 0.00356565 0)
(-0.0448801 0.00392669 0)
(-0.0515605 0.00428364 0)
(-0.0587536 0.00462568 0)
(-0.0664135 0.0049402 0)
(-0.074473 0.00521292 0)
(-0.0828412 0.00542819 0)
(-0.0914032 0.00556936 0)
(-0.100019 0.0056193 0)
(-0.108526 0.00556093 0)
(-0.116738 0.00537801 0)
(-0.124452 0.00505587 0)
(-0.131446 0.0045823 0)
(-0.137492 0.00394839 0)
(-0.142352 0.0031483 0)
(-0.145831 0.00217174 0)
(-0.147619 0.00108033 0)
(-0.147681 -0.00016542 0)
(-0.145765 -0.00151407 0)
(-0.141808 -0.00292706 0)
(-0.135783 -0.00434892 0)
(-0.127744 -0.00571744 0)
(-0.11784 -0.00696134 0)
(-0.106316 -0.00800529 0)
(-0.0935157 -0.00877637 0)
(-0.0798747 -0.00921203 0)
(-0.0658983 -0.00926888 0)
(-0.0521343 -0.0089306 0)
(-0.0391333 -0.00821348 0)
(-0.027405 -0.0071677 0)
(-0.0173733 -0.0058734 0)
(-0.00933889 -0.00443211 0)
(-0.00345247 -0.00295583 0)
(0.000297856 -0.0015586 0)
(0.00208998 -0.000351987 0)
(0.00226828 0.000537619 0)
(0.00140449 0.000941309 0)
(0.000257502 0.000634195 0)
(1.01524e-05 -5.53151e-05 0)
(0.000175398 -0.000212919 0)
(0.000487467 -0.000346656 0)
(0.000903444 -0.000434438 0)
(0.00137916 -0.000479399 0)
(0.00187806 -0.000489649 0)
(0.00237017 -0.000473767 0)
(0.00283278 -0.000439189 0)
(0.00324939 -0.000391856 0)
(0.00360856 -0.000336258 0)
(0.00390261 -0.000275607 0)
(0.00412644 -0.000212004 0)
(0.00427661 -0.00014664 0)
(0.0043504 -7.99254e-05 0)
(0.00434508 -1.16232e-05 0)
(0.00425738 5.89862e-05 0)
(0.00408264 0.000133272 0)
(0.00381474 0.000212831 0)
(0.00344538 0.00029967 0)
(0.0029638 0.00039618 0)
(0.00235646 0.000504938 0)
(0.00160677 0.000628825 0)
(0.000694592 0.000771135 0)
(-0.000403836 0.000935231 0)
(-0.00171591 0.00112463 0)
(-0.0032729 0.00134296 0)
(-0.00511003 0.0015939 0)
(-0.0072662 0.00188103 0)
(-0.00978381 0.00220773 0)
(-0.0127082 0.00257695 0)
(-0.0160868 0.00299104 0)
(-0.0199682 0.00345142 0)
(-0.0244006 0.00395829 0)
(-0.0294301 0.00451026 0)
(-0.0350983 0.00510395 0)
(-0.0414398 0.00573362 0)
(-0.0484789 0.00639076 0)
(-0.0562267 0.00706378 0)
(-0.0646772 0.00773779 0)
(-0.0738041 0.00839447 0)
(-0.0835572 0.00901217 0)
(-0.09386 0.00956613 0)
(-0.104607 0.010029 0)
(-0.115663 0.0103712 0)
(-0.126863 0.0105625 0)
(-0.138012 0.0105721 0)
(-0.148889 0.0103706 0)
(-0.159248 0.00993084 0)
(-0.168826 0.00922952 0)
(-0.17735 0.00824874 0)
(-0.184536 0.00697752 0)
(-0.190106 0.0054128 0)
(-0.193819 0.00355417 0)
(-0.195399 0.00145836 0)
(-0.194695 -0.000855278 0)
(-0.191524 -0.00334612 0)
(-0.185821 -0.00592643 0)
(-0.17758 -0.00850079 0)
(-0.166895 -0.0109596 0)
(-0.153963 -0.0131798 0)
(-0.13909 -0.0150323 0)
(-0.122696 -0.0163928 0)
(-0.1053 -0.0171549 0)
(-0.0875061 -0.017244 0)
(-0.0699658 -0.0166309 0)
(-0.0533406 -0.0153415 0)
(-0.03825 -0.0134597 0)
(-0.0252203 -0.0111227 0)
(-0.0146369 -0.00850764 0)
(-0.00670847 -0.00581405 0)
(-0.00144482 -0.00324906 0)
(0.00135148 -0.00102125 0)
(0.00208709 0.000642223 0)
(0.00143513 0.00145849 0)
(0.000274982 0.00105162 0)
(1.70207e-05 -0.0001071 0)
(0.000230119 -0.0003498 0)
(0.000608402 -0.000548661 0)
(0.00110045 -0.000679363 0)
(0.00165616 -0.000746092 0)
(0.00223465 -0.000760078 0)
(0.0028018 -0.000733627 0)
(0.00333117 -0.000677713 0)
(0.00380315 -0.000601275 0)
(0.00420369 -0.000511159 0)
(0.00452296 -0.000412298 0)
(0.00475408 -0.000307931 0)
(0.00489194 -0.00019988 0)
(0.00493224 -8.87457e-05 0)
(0.00487058 2.58883e-05 0)
(0.00470171 0.000145312 0)
(0.0044188 0.000271656 0)
(0.00401299 0.000407624 0)
(0.00347276 0.000556457 0)
(0.00278354 0.00072197 0)
(0.00192718 0.000908575 0)
(0.000881619 0.00112102 0)
(-0.000379282 0.00136441 0)
(-0.00188609 0.00164416 0)
(-0.00367403 0.00196597 0)
(-0.00578293 0.00233564 0)
(-0.00825724 0.00275891 0)
(-0.0111457 0.00324132 0)
(-0.0145007 0.00378792 0)
(-0.0183779 0.00440298 0)
(-0.0228346 0.00508955 0)
(-0.0279284 0.00584905 0)
(-0.0337152 0.00668068 0)
(-0.0402465 0.00758086 0)
(-0.0475667 0.00854261 0)
(-0.0557094 0.00955493 0)
(-0.0646934 0.0106023 0)
(-0.0745189 0.0116641 0)
(-0.0851632 0.0127145 0)
(-0.0965769 0.0137227 0)
(-0.10868 0.0146527 0)
(-0.121361 0.0154641 0)
(-0.134472 0.0161135 0)
(-0.147832 0.0165551 0)
(-0.161228 0.0167426 0)
(-0.174412 0.0166308 0)
(-0.187116 0.0161777 0)
(-0.199046 0.0153462 0)
(-0.209898 0.0141063 0)
(-0.21936 0.0124373 0)
(-0.227125 0.0103297 0)
(-0.232895 0.00778745 0)
(-0.236413 0.00482592 0)
(-0.237426 0.00151481 0)
(-0.235753 -0.00210072 0)
(-0.231255 -0.00594646 0)
(-0.223881 -0.00989617 0)
(-0.213655 -0.0138097 0)
(-0.2007 -0.0175258 0)
(-0.185247 -0.0208653 0)
(-0.167644 -0.0236419 0)
(-0.148351 -0.025676 0)
(-0.127939 -0.0268128 0)
(-0.107065 -0.0269424 0)
(-0.0864499 -0.0260188 0)
(-0.0668276 -0.024075 0)
(-0.0488988 -0.0212291 0)
(-0.0332711 -0.0176786 0)
(-0.0204047 -0.0136846 0)
(-0.0105667 -0.00954704 0)
(-0.00380084 -0.00558289 0)
(8.88744e-05 -0.00211635 0)
(0.0015401 0.000507251 0)
(0.00128359 0.00187718 0)
(0.000268558 0.00145628 0)
(2.26944e-05 -0.000172894 0)
(0.000276601 -0.00051347 0)
(0.000709985 -0.000782819 0)
(0.00126254 -0.000958565 0)
(0.00187876 -0.00104706 0)
(0.00251451 -0.00106295 0)
(0.00313264 -0.00102244 0)
(0.00370398 -0.000940218 0)
(0.00420647 -0.000828408 0)
(0.00462388 -0.000696401 0)
(0.00494443 -0.000550991 0)
(0.00515944 -0.000396633 0)
(0.00526204 -0.000235809 0)
(0.0052462 -6.92966e-05 0)
(0.00510556 0.000103626 0)
(0.00483264 0.000284926 0)
(0.0044181 0.000477701 0)
(0.00385013 0.00068592 0)
(0.00311363 0.000914522 0)
(0.00218983 0.00116915 0)
(0.00105592 0.00145612 0)
(-0.000315537 0.00178236 0)
(-0.00195689 0.00215538 0)
(-0.00390563 0.00258307 0)
(-0.00620455 0.0030736 0)
(-0.00890173 0.00363523 0)
(-0.0120503 0.00427606 0)
(-0.015708 0.00500373 0)
(-0.0199364 0.005825 0)
(-0.0247998 0.00674525 0)
(-0.0303635 0.00776787 0)
(-0.0366917 0.00889356 0)
(-0.043845 0.0101195 0)
(-0.051877 0.0114385 0)
(-0.0608304 0.0128383 0)
(-0.070733 0.0143002 0)
(-0.0815927 0.0157992 0)
(-0.0933934 0.0173029 0)
(-0.10609 0.0187715 0)
(-0.119604 0.0201581 0)
(-0.133822 0.0214098 0)
(-0.148592 0.022468 0)
(-0.163726 0.0232711 0)
(-0.178996 0.0237556 0)
(-0.194144 0.0238594 0)
(-0.208882 0.0235233 0)
(-0.222901 0.0226947 0)
(-0.235877 0.0213292 0)
(-0.247481 0.0193939 0)
(-0.257384 0.0168694 0)
(-0.265275 0.0137528 0)
(-0.270858 0.0100597 0)
(-0.273885 0.00582566 0)
(-0.274124 0.00113384 0)
(-0.271408 -0.00393938 0)
(-0.265628 -0.00928154 0)
(-0.256755 -0.0147297 0)
(-0.244836 -0.0200983 0)
(-0.230014 -0.0251741 0)
(-0.212537 -0.0297224 0)
(-0.192767 -0.0334989 0)
(-0.171181 -0.0362673 0)
(-0.14837 -0.0378217 0)
(-0.125018 -0.0380126 0)
(-0.101884 -0.0367724 0)
(-0.0797521 -0.0341361 0)
(-0.0593857 -0.0302523 0)
(-0.0414616 -0.0253788 0)
(-0.0265101 -0.0198636 0)
(-0.0148597 -0.0141155 0)
(-0.00659763 -0.00857312 0)
(-0.00154719 -0.00368945 0)
(0.000735845 5.7612e-05 0)
(0.00100769 0.00212131 0)
(0.000247715 0.0018033 0)
(2.71355e-05 -0.000250123 0)
(0.00031388 -0.000699088 0)
(0.000790717 -0.00104251 0)
(0.00138864 -0.00126361 0)
(0.00204709 -0.00137232 0)
(0.00271934 -0.00138721 0)
(0.00336609 -0.00132852 0)
(0.00395618 -0.00121474 0)
(0.00446569 -0.0010613 0)
(0.00487663 -0.000880186 0)
(0.00517549 -0.000680105 0)
(0.00535186 -0.000466742 0)
(0.00539722 -0.000243268 0)
(0.00530349 -1.04922e-05 0)
(0.0050622 0.000232687 0)
(0.0046635 0.000489052 0)
(0.00409521 0.000762944 0)
(0.00334221 0.00105991 0)
(0.00238577 0.00138665 0)
(0.00120289 0.0017509 0)
(-0.0002342 0.00216136 0)
(-0.00195845 0.00262752 0)
(-0.00400837 0.00315955 0)
(-0.00642823 0.00376811 0)
(-0.00926818 0.00446417 0)
(-0.0125841 0.00525868 0)
(-0.0164371 0.00616225 0)
(-0.0208932 0.00718463 0)
(-0.0260216 0.00833411 0)
(-0.0318939 0.00961684 0)
(-0.0385811 0.0110359 0)
(-0.0461517 0.0125903 0)
(-0.0546677 0.0142738 0)
(-0.0641808 0.0160741 0)
(-0.0747281 0.0179712 0)
(-0.0863265 0.0199368 0)
(-0.0989681 0.0219332 0)
(-0.112615 0.0239134 0)
(-0.127195 0.0258206 0)
(-0.142596 0.0275896 0)
(-0.158669 0.0291477 0)
(-0.175222 0.0304167 0)
(-0.192023 0.031316 0)
(-0.208806 0.0317649 0)
(-0.225275 0.0316863 0)
(-0.24111 0.03101 0)
(-0.255977 0.0296757 0)
(-0.269536 0.0276364 0)
(-0.28145 0.0248607 0)
(-0.291397 0.0213355 0)
(-0.299075 0.0170687 0)
(-0.30421 0.0120918 0)
(-0.306574 0.00646205 0)
(-0.305966 0.000278874 0)
(-0.302244 -0.00634883 0)
(-0.295325 -0.0132723 0)
(-0.285198 -0.0202936 0)
(-0.271922 -0.0271839 0)
(-0.255646 -0.0336811 0)
(-0.236616 -0.039497 0)
(-0.215187 -0.0443306 0)
(-0.191831 -0.0478879 0)
(-0.167134 -0.0499094 0)
(-0.141786 -0.0502007 0)
(-0.116566 -0.048666 0)
(-0.0922941 -0.0453354 0)
(-0.0697848 -0.0403819 0)
(-0.0497796 -0.0341198 0)
(-0.0328784 -0.0269851 0)
(-0.019476 -0.0195 0)
(-0.00971289 -0.0122343 0)
(-0.00344609 -0.00578041 0)
(-0.000243435 -0.00075894 0)
(0.000651423 0.00214056 0)
(0.000219245 0.00206606 0)
(3.04415e-05 -0.000336184 0)
(0.000341872 -0.000901603 0)
(0.00085031 -0.00132109 0)
(0.00147874 -0.0015864 0)
(0.00216198 -0.00171252 0)
(0.0028512 -0.00172251 0)
(0.00350551 -0.0016409 0)
(0.00409245 -0.00149004 0)
(0.00458675 -0.00128863 0)
(0.00496903 -0.00105128 0)
(0.0052243 -0.000788565 0)
(0.0053406 -0.000507456 0)
(0.00530756 -0.000211574 0)
(0.00511514 9.82516e-05 0)
(0.00475263 0.000423657 0)
(0.0042075 0.000768463 0)
(0.00346467 0.00113836 0)
(0.00250564 0.00154068 0)
(0.00130775 0.00198424 0)
(-0.000156406 0.00247917 0)
(-0.00191956 0.0030368 0)
(-0.00402021 0.00366946 0)
(-0.00650292 0.00439029 0)
(-0.00941857 0.00521299 0)
(-0.0128243 0.00615153 0)
(-0.0167831 0.0072197 0)
(-0.0213637 0.00843061 0)
(-0.0266387 0.00979598 0)
(-0.0326842 0.0113253 0)
(-0.0395768 0.013025 0)
(-0.0473913 0.0148967 0)
(-0.0561972 0.0169368 0)
(-0.0660549 0.0191339 0)
(-0.0770105 0.0214685 0)
(-0.0890908 0.0239108 0)
(-0.102298 0.0264199 0)
(-0.116602 0.028943 0)
(-0.131941 0.0314154 0)
(-0.148209 0.0337612 0)
(-0.165262 0.0358943 0)
(-0.182911 0.037721 0)
(-0.200924 0.039143 0)
(-0.219034 0.0400612 0)
(-0.23694 0.0403795 0)
(-0.254319 0.0400088 0)
(-0.270831 0.0388716 0)
(-0.286132 0.0369049 0)
(-0.299882 0.0340636 0)
(-0.311756 0.0303228 0)
(-0.32145 0.0256803 0)
(-0.328687 0.0201587 0)
(-0.333226 0.0138073 0)
(-0.334867 0.00670507 0)
(-0.333446 -0.00103026 0)
(-0.328843 -0.00926014 0)
(-0.320999 -0.0178039 0)
(-0.309909 -0.0264317 0)
(-0.295633 -0.0348762 0)
(-0.278309 -0.0428307 0)
(-0.258165 -0.0499571 0)
(-0.235531 -0.0558988 0)
(-0.210853 -0.060304 0)
(-0.184694 -0.0628554 0)
(-0.157738 -0.0633081 0)
(-0.130767 -0.0615293 0)
(-0.104629 -0.0575352 0)
(-0.0801865 -0.0515147 0)
(-0.0582437 -0.0438332 0)
(-0.0394745 -0.0350132 0)
(-0.0243467 -0.0256937 0)
(-0.0130639 -0.0165826 0)
(-0.00552969 -0.00842118 0)
(-0.00133838 -0.00198058 0)
(0.000246489 0.00190078 0)
(0.000187811 0.00222862 0)
(3.27572e-05 -0.000428586 0)
(0.000360941 -0.00111594 0)
(0.000889188 -0.00161191 0)
(0.00153354 -0.00191901 0)
(0.00222478 -0.00205863 0)
(0.00291232 -0.00205902 0)
(0.00355425 -0.00194917 0)
(0.00411725 -0.00175537 0)
(0.00457521 -0.00149958 0)
(0.00490771 -0.00119895 0)
(0.00509854 -0.000865855 0)
(0.00513425 -0.000508342 0)
(0.00500272 -0.0001305 0)
(0.0046919 0.000267015 0)
(0.00418872 0.000686547 0)
(0.00347796 0.00113308 0)
(0.00254144 0.00161392 0)
(0.00135712 0.00213841 0)
(-0.00010166 0.00271769 0)
(-0.00186679 0.00336458 0)
(-0.00397598 0.00409329 0)
(-0.00647318 0.00491922 0)
(-0.0094089 0.00585875 0)
(-0.0128403 0.0069288 0)
(-0.0168309 0.00814647 0)
(-0.0214505 0.00952839 0)
(-0.026774 0.0110901 0)
(-0.0328801 0.0128449 0)
(-0.0398494 0.0148031 0)
(-0.0477619 0.0169703 0)
(-0.0566936 0.0193461 0)
(-0.0667124 0.021922 0)
(-0.0778734 0.0246803 0)
(-0.0902132 0.0275918 0)
(-0.103744 0.0306144 0)
(-0.118449 0.033692 0)
(-0.134274 0.036754 0)
(-0.151126 0.0397159 0)
(-0.168867 0.04248 0)
(-0.187316 0.0449385 0)
(-0.206246 0.0469763 0)
(-0.225394 0.0484758 0)
(-0.244458 0.0493213 0)
(-0.263115 0.0494044 0)
(-0.281024 0.0486285 0)
(-0.297841 0.0469133 0)
(-0.313225 0.0441985 0)
(-0.326853 0.0404459 0)
(-0.338422 0.035642 0)
(-0.34766 0.0297989 0)
(-0.354327 0.0229559 0)
(-0.358219 0.0151809 0)
(-0.359169 0.00657291 0)
(-0.357044 -0.00273249 0)
(-0.351749 -0.0125721 0)
(-0.343233 -0.0227391 0)
(-0.331491 -0.0329769 0)
(-0.316571 -0.0429851 0)
(-0.298586 -0.052418 0)
(-0.27773 -0.0608909 0)
(-0.254293 -0.0679939 0)
(-0.228679 -0.0733158 0)
(-0.201417 -0.0764775 0)
(-0.173167 -0.0771758 0)
(-0.144708 -0.0752311 0)
(-0.11691 -0.0706344 0)
(-0.0906794 -0.06358 0)
(-0.0668882 -0.0544771 0)
(-0.0462897 -0.0439313 0)
(-0.029434 -0.0327005 0)
(-0.0165989 -0.021637 0)
(-0.00774615 -0.0116396 0)
(-0.00250877 -0.00363686 0)
(-0.000185424 0.00137961 0)
(0.000156251 0.00228188 0)
(3.42314e-05 -0.000525006 0)
(0.000371646 -0.00133714 0)
(0.000908156 -0.00190843 0)
(0.00155415 -0.00225371 0)
(0.00223709 -0.00240197 0)
(0.00290506 -0.00238728 0)
(0.00351553 -0.00224339 0)
(0.00403482 -0.00200053 0)
(0.00443633 -0.00168386 0)
(0.00469895 -0.00131293 0)
(0.00480549 -0.000901827 0)
(0.00474114 -0.000459514 0)
(0.00449211 9.6326e-06 0)
(0.00404435 0.000505284 0)
(0.00338237 0.00103067 0)
(0.0024882 0.00159214 0)
(0.00134045 0.00219882 0)
(-8.65206e-05 0.00286226 0)
(-0.00182341 0.00359622 0)
(-0.00390661 0.00441636 0)
(-0.00637875 0.00534003 0)
(-0.00928909 0.00638595 0)
(-0.0126938 0.00757385 0)
(-0.0166559 0.00892403 0)
(-0.0212449 0.0104567 0)
(-0.0265364 0.0121913 0)
(-0.0326105 0.0141454 0)
(-0.0395503 0.0163337 0)
(-0.0474397 0.0187663 0)
(-0.0563596 0.0214471 0)
(-0.0663846 0.024372 0)
(-0.077578 0.0275266 0)
(-0.089986 0.0308841 0)
(-0.103632 0.0344037 0)
(-0.118511 0.0380282 0)
(-0.134581 0.0416841 0)
(-0.151762 0.0452804 0)
(-0.169928 0.0487107 0)
(-0.188908 0.0518546 0)
(-0.208485 0.054582 0)
(-0.2284 0.0567575 0)
(-0.248358 0.058246 0)
(-0.268037 0.0589187 0)
(-0.287099 0.0586592 0)
(-0.3052 0.0573683 0)
(-0.322003 0.0549687 0)
(-0.337185 0.0514078 0)
(-0.35045 0.0466593 0)
(-0.361532 0.0407243 0)
(-0.370197 0.0336314 0)
(-0.376247 0.0254373 0)
(-0.379514 0.0162276 0)
(-0.379867 0.00611844 0)
(-0.377198 -0.00473992 0)
(-0.371427 -0.0161656 0)
(-0.362508 -0.0279323 0)
(-0.350424 -0.0397625 0)
(-0.3352 -0.0513295 0)
(-0.316912 -0.0622537 0)
(-0.295707 -0.0721082 0)
(-0.271824 -0.0804314 0)
(-0.245612 -0.0867514 0)
(-0.217554 -0.0906223 0)
(-0.188277 -0.0916739 0)
(-0.158548 -0.0896685 0)
(-0.129251 -0.0845585 0)
(-0.101337 -0.0765313 0)
(-0.0757501 -0.0660298 0)
(-0.0533304 -0.0537382 0)
(-0.0347221 -0.0405342 0)
(-0.0202891 -0.0274206 0)
(-0.0100642 -0.0154618 0)
(-0.00372965 -0.00575161 0)
(-0.000630762 0.000561829 0)
(0.000125939 0.00222193 0)
(3.49964e-05 -0.000623312 0)
(0.000374595 -0.00156047 0)
(0.000908177 -0.00220427 0)
(0.00154188 -0.00258296 0)
(0.00220068 -0.00273414 0)
(0.00283178 -0.00269826 0)
(0.00339249 -0.00251406 0)
(0.00384912 -0.00221577 0)
(0.00417501 -0.00183164 0)
(0.00434864 -0.00138351 0)
(0.00435204 -0.000886925 0)
(0.00416923 -0.000351626 0)
(0.00378485 0.000217923 0)
(0.00318282 0.000821916 0)
(0.00234527 0.00146465 0)
(0.00125141 0.00215407 0)
(-0.000123361 0.00290131 0)
(-0.00180833 0.00372037 0)
(-0.00383822 0.00462777 0)
(-0.00625386 0.00564228 0)
(-0.00910266 0.00678456 0)
(-0.012439 0.00807678 0)
(-0.0163243 0.00954218 0)
(-0.020827 0.0112044 0)
(-0.026022 0.0130868 0)
(-0.0319894 0.0152112 0)
(-0.0388136 0.0175971 0)
(-0.0465806 0.0202596 0)
(-0.0553753 0.0232078 0)
(-0.0652777 0.0264428 0)
(-0.0763581 0.0299552 0)
(-0.0886719 0.0337226 0)
(-0.102253 0.0377072 0)
(-0.11711 0.0418539 0)
(-0.133213 0.0460883 0)
(-0.150498 0.0503168 0)
(-0.168852 0.0544265 0)
(-0.188118 0.0582874 0)
(-0.208091 0.0617565 0)
(-0.228523 0.0646819 0)
(-0.249125 0.0669099 0)
(-0.269583 0.0682912 0)
(-0.28956 0.0686884 0)
(-0.308717 0.0679823 0)
(-0.326717 0.0660766 0)
(-0.343243 0.0629023 0)
(-0.358002 0.0584193 0)
(-0.370736 0.052617 0)
(-0.381218 0.0455135 0)
(-0.389259 0.0371547 0)
(-0.394703 0.0276136 0)
(-0.397419 0.0169905 0)
(-0.397304 0.00541533 0)
(-0.394272 -0.00695158 0)
(-0.388251 -0.0199162 0)
(-0.379191 -0.03324 0)
(-0.367054 -0.046631 0)
(-0.351835 -0.0597423 0)
(-0.333566 -0.0721666 0)
(-0.312339 -0.0834388 0)
(-0.28833 -0.0930476 0)
(-0.261826 -0.100459 0)
(-0.23325 -0.105155 0)
(-0.203186 -0.10669 0)
(-0.17238 -0.104755 0)
(-0.141723 -0.099249 0)
(-0.112211 -0.0903366 0)
(-0.0848603 -0.0784827 0)
(-0.0606095 -0.0644434 0)
(-0.0402086 -0.0492162 0)
(-0.0241226 -0.03396 0)
(-0.0124682 -0.0199138 0)
(-0.00498796 -0.00834551 0)
(-0.00108214 -0.000563758 0)
(9.7662e-05 0.00204744 0)
(3.51624e-05 -0.000721553 0)
(0.000370369 -0.00178138 0)
(0.000890235 -0.00249322 0)
(0.00149808 -0.00289942 0)
(0.00211731 -0.00304696 0)
(0.00269478 -0.00298319 0)
(0.00318806 -0.00275206 0)
(0.0035639 -0.00239179 0)
(0.00379586 -0.0019336 0)
(0.00386232 -0.00140143 0)
(0.00374476 -0.000812101 0)
(0.00342619 -0.000175889 0)
(0.00288974 0.00050287 0)
(0.00211741 0.0012251 0)
(0.00108893 0.0019964 0)
(-0.00021928 0.00282648 0)
(-0.00183504 0.00372872 0)
(-0.00379123 0.00471972 0)
(-0.00612657 0.00581902 0)
(-0.00888617 0.00704861 0)
(-0.0121221 0.00843263 0)
(-0.0158934 0.00999682 0)
(-0.0202664 0.0117679 0)
(-0.0253144 0.0137729 0)
(-0.0311165 0.0160379 0)
(-0.0377568 0.0185872 0)
(-0.0453223 0.0214411 0)
(-0.0539003 0.0246146 0)
(-0.0635748 0.0281148 0)
(-0.0744221 0.0319385 0)
(-0.0865059 0.036069 0)
(-0.0998707 0.0404741 0)
(-0.114536 0.0451028 0)
(-0.130488 0.0498831 0)
(-0.147677 0.0547216 0)
(-0.166008 0.0595023 0)
(-0.185338 0.0640891 0)
(-0.205479 0.0683284 0)
(-0.226194 0.0720545 0)
(-0.247208 0.0750961 0)
(-0.268212 0.0772842 0)
(-0.288877 0.0784598 0)
(-0.308865 0.0784819 0)
(-0.327845 0.0772337 0)
(-0.3455 0.0746277 0)
(-0.361542 0.0706082 0)
(-0.375717 0.0651513 0)
(-0.387808 0.0582647 0)
(-0.397634 0.0499843 0)
(-0.40505 0.0403727 0)
(-0.409938 0.0295167 0)
(-0.412203 0.0175279 0)
(-0.411763 0.00454541 0)
(-0.408548 -0.00926552 0)
(-0.402489 -0.0237054 0)
(-0.393524 -0.0385302 0)
(-0.381594 -0.0534399 0)
(-0.366656 -0.0680741 0)
(-0.348691 -0.0820036 0)
(-0.327734 -0.0947298 0)
(-0.30389 -0.105694 0)
(-0.277375 -0.114299 0)
(-0.248544 -0.119952 0)
(-0.217924 -0.122121 0)
(-0.186229 -0.120411 0)
(-0.154351 -0.114653 0)
(-0.123323 -0.10497 0)
(-0.0942373 -0.0918332 0)
(-0.0681393 -0.0760625 0)
(-0.045899 -0.0587728 0)
(-0.0280984 -0.0412848 0)
(-0.0149534 -0.0250225 0)
(-0.0062793 -0.011438 0)
(-0.00153694 -0.00200585 0)
(7.16963e-05 0.00175792 0)
(3.48168e-05 -0.000817941 0)
(0.000359486 -0.00199557 0)
(0.000855258 -0.00276929 0)
(0.00142405 -0.00319595 0)
(0.00198867 -0.00333251 0)
(0.00249622 -0.00323363 0)
(0.00290503 -0.00294861 0)
(0.00318263 -0.00251966 0)
(0.00330317 -0.00198084 0)
(0.0032452 -0.00135794 0)
(0.00298988 -0.000668835 0)
(0.00251933 7.5915e-05 0)
(0.00181532 0.000872345 0)
(0.000857985 0.00172235 0)
(-0.000375287 0.00263303 0)
(-0.00191083 0.00361609 0)
(-0.00377963 0.00468732 0)
(-0.00601809 0.00586617 0)
(-0.00866877 0.00717528 0)
(-0.0117809 0.00864006 0)
(-0.0154108 0.0102882 0)
(-0.0196221 0.012149 0)
(-0.0244853 0.0142527 0)
(-0.0300776 0.0166295 0)
(-0.0364819 0.0193081 0)
(-0.0437847 0.0223142 0)
(-0.0520743 0.0256689 0)
(-0.0614374 0.0293858 0)
(-0.071955 0.0334687 0)
(-0.0836975 0.0379084 0)
(-0.0967191 0.0426794 0)
(-0.111051 0.0477374 0)
(-0.126694 0.0530157 0)
(-0.143614 0.058424 0)
(-0.161734 0.0638471 0)
(-0.180929 0.0691459 0)
(-0.201029 0.0741601 0)
(-0.221813 0.078713 0)
(-0.24302 0.0826181 0)
(-0.264352 0.0856875 0)
(-0.285487 0.0877407 0)
(-0.306093 0.0886142 0)
(-0.32584 0.0881688 0)
(-0.344414 0.086296 0)
(-0.361527 0.0829219 0)
(-0.37693 0.0780078 0)
(-0.390408 0.0715494 0)
(-0.401792 0.0635732 0)
(-0.410945 0.0541331 0)
(-0.417764 0.043306 0)
(-0.422168 0.0311897 0)
(-0.424086 0.0179025 0)
(-0.423459 0.00358837 0)
(-0.420223 -0.0115878 0)
(-0.414311 -0.0274272 0)
(-0.405645 -0.043687 0)
(-0.394142 -0.0600652 0)
(-0.379719 -0.0761942 0)
(-0.36231 -0.091629 0)
(-0.341883 -0.105843 0)
(-0.318472 -0.118232 0)
(-0.292213 -0.128139 0)
(-0.263385 -0.13489 0)
(-0.232445 -0.137859 0)
(-0.200061 -0.136554 0)
(-0.167113 -0.130713 0)
(-0.134664 -0.120401 0)
(-0.103883 -0.106078 0)
(-0.0759273 -0.0886116 0)
(-0.0518013 -0.0692321 0)
(-0.0322224 -0.0494268 0)
(-0.017523 -0.0308157 0)
(-0.00760527 -0.0150484 0)
(-0.00199593 -0.00377296 0)
(4.78236e-05 0.00135336 0)
(3.40266e-05 -0.000910823 0)
(0.000342382 -0.00219894 0)
(0.000804068 -0.00302666 0)
(0.00132097 -0.00346559 0)
(0.00181631 -0.00358306 0)
(0.0022381 -0.00344137 0)
(0.00254592 -0.00309525 0)
(0.0027085 -0.00259084 0)
(0.00270093 -0.00196487 0)
(0.00250218 -0.00124476 0)
(0.00209328 -0.000449136 0)
(0.00145567 0.00041142 0)
(0.000569858 0.00133358 0)
(-0.000585811 0.00232044 0)
(-0.00203619 0.00338085 0)
(-0.0038103 0.00452869 0)
(-0.00594218 0.00578238 0)
(-0.00847165 0.00716433 0)
(-0.0114449 0.00870047 0)
(-0.0149151 0.0104197 0)
(-0.0189425 0.0123533 0)
(-0.0235945 0.0145341 0)
(-0.0289455 0.0169958 0)
(-0.0350758 0.0197713 0)
(-0.0420707 0.0228915 0)
(-0.0500182 0.0263835 0)
(-0.0590061 0.0302675 0)
(-0.0691187 0.034555 0)
(-0.0804321 0.039245 0)
(-0.0930084 0.0443205 0)
(-0.10689 0.0497456 0)
(-0.122091 0.0554614 0)
(-0.138594 0.0613839 0)
(-0.156339 0.0674021 0)
(-0.175223 0.073378 0)
(-0.195094 0.0791483 0)
(-0.21575 0.0845289 0)
(-0.236948 0.0893212 0)
(-0.258402 0.0933206 0)
(-0.279801 0.0963262 0)
(-0.300819 0.0981512 0)
(-0.321129 0.0986325 0)
(-0.340418 0.0976384 0)
(-0.358397 0.0950738 0)
(-0.374817 0.0908825 0)
(-0.389466 0.0850459 0)
(-0.402177 0.0775803 0)
(-0.412823 0.0685315 0)
(-0.421312 0.0579695 0)
(-0.427577 0.0459833 0)
(-0.431568 0.0326776 0)
(-0.433239 0.0181729 0)
(-0.432541 0.00261439 0)
(-0.42942 -0.0138387 0)
(-0.423803 -0.0309937 0)
(-0.415601 -0.0486144 0)
(-0.404704 -0.0664029 0)
(-0.390994 -0.0839906 0)
(-0.374354 -0.100923 0)
(-0.35469 -0.116652 0)
(-0.331961 -0.130533 0)
(-0.306218 -0.14185 0)
(-0.277652 -0.149846 0)
(-0.246639 -0.153794 0)
(-0.213786 -0.15309 0)
(-0.179946 -0.147362 0)
(-0.146198 -0.136593 0)
(-0.113782 -0.121206 0)
(-0.0839721 -0.102103 0)
(-0.0579222 -0.0806212 0)
(-0.0365034 -0.0584181 0)
(-0.0201846 -0.0373224 0)
(-0.00897132 -0.0191975 0)
(-0.00246212 -0.00587479 0)
(2.56657e-05 0.000833135 0)
(3.28409e-05 -0.000998658 0)
(0.000319411 -0.00238757 0)
(0.00073736 -0.00325972 0)
(0.00118986 -0.00370155 0)
(0.0016016 -0.00379108 0)
(0.0019222 -0.00359843 0)
(0.00211303 -0.00318379 0)
(0.00214447 -0.00259714 0)
(0.00199284 -0.00187765 0)
(0.00163784 -0.00105409 0)
(0.00106057 -0.000145549 0)
(0.000241954 0.000837662 0)
(-0.000838647 0.00189312 0)
(-0.00220454 0.00302541 0)
(-0.00388273 0.00424531 0)
(-0.00590482 0.00556912 0)
(-0.00830777 0.00701804 0)
(-0.0111346 0.00861758 0)
(-0.014435 0.0103971 0)
(-0.0182656 0.0123889 0)
(-0.0226902 0.0146279 0)
(-0.0277795 0.0171506 0)
(-0.033611 0.0199935 0)
(-0.0402673 0.0231922 0)
(-0.0478349 0.0267793 0)
(-0.0564017 0.030782 0)
(-0.0660537 0.0352193 0)
(-0.076871 0.0400989 0)
(-0.0889224 0.0454136 0)
(-0.10226 0.0511371 0)
(-0.11691 0.0572205 0)
(-0.132872 0.063589 0)
(-0.150104 0.0701392 0)
(-0.168522 0.0767378 0)
(-0.187997 0.0832231 0)
(-0.208348 0.0894077 0)
(-0.229349 0.0950848 0)
(-0.250734 0.100036 0)
(-0.272203 0.104042 0)
(-0.293438 0.106893 0)
(-0.314116 0.108401 0)
(-0.333924 0.10841 0)
(-0.352573 0.106799 0)
(-0.369809 0.103492 0)
(-0.385419 0.0984531 0)
(-0.399236 0.0916855 0)
(-0.411138 0.0832264 0)
(-0.421039 0.0731396 0)
(-0.428884 0.0615092 0)
(-0.434639 0.0484332 0)
(-0.43828 0.0340199 0)
(-0.439783 0.0183881 0)
(-0.439106 0.00167972 0)
(-0.436203 -0.015956 0)
(-0.430991 -0.0343365 0)
(-0.423376 -0.0532365 0)
(-0.413225 -0.0723686 0)
(-0.400387 -0.0913696 0)
(-0.384698 -0.109782 0)
(-0.366003 -0.127042 0)
(-0.344187 -0.142473 0)
(-0.319212 -0.155301 0)
(-0.291172 -0.164689 0)
(-0.26035 -0.169803 0)
(-0.227274 -0.169913 0)
(-0.192749 -0.164519 0)
(-0.157856 -0.153493 0)
(-0.123896 -0.137197 0)
(-0.0922614 -0.116543 0)
(-0.0642643 -0.0929632 0)
(-0.0409506 -0.0682899 0)
(-0.0229482 -0.0445725 0)
(-0.0103846 -0.0239062 0)
(-0.00294013 -0.00832313 0)
(4.71013e-06 0.000195545 0)
(3.12944e-05 -0.00107999 0)
(0.000290843 -0.00255769 0)
(0.000655693 -0.00346299 0)
(0.00103158 -0.00389722 0)
(0.00134574 -0.00394922 0)
(0.00155009 -0.00369706 0)
(0.00160842 -0.00320634 0)
(0.00149318 -0.00253072 0)
(0.0011823 -0.00171153 0)