/*--------------------------------*- C++ -*----------------------------------*\
  =========                 |
  \\      /  F ield         | OpenFOAM: The Open Source CFD Toolbox
   \\    /   O peration     | Website:  https://openfoam.org
    \\  /    A nd           | Version:  12
     \\/     M anipulation  |
\*---------------------------------------------------------------------------*/
FoamFile
{
    format      ascii;
    class       volScalarField;
    location    "1";
    object      epsilon;
}
// * * * * * * * * * * * * * * * * * * * * * * * * * * * * * * * * * * * * * //

dimensions      [0 2 -3 0 0 0 0];

internalField   nonuniform List<scalar> 
5625
(
1.18454e-05
2.23652e-05
4.73875e-05
7.7222e-05
0.000110777
0.000147222
0.000185945
0.000226469
0.000268401
0.0003114
0.000355162
0.000399409
0.000443882
0.00048834
0.000532559
0.000576324
0.000619434
0.0006617
0.000702944
0.000742997
0.000781702
0.000818911
0.000854488
0.000888303
0.000920239
0.000950187
0.000978047
0.00100373
0.00102715
0.00104824
0.00106694
0.00108318
0.00109692
0.00110813
0.00111676
0.00112281
0.00112624
0.00112706
0.00112527
0.00112087
0.00111388
0.00110432
0.00109223
0.00107763
0.00106059
0.00104115
0.00101938
0.000995337
0.000969112
0.000940787
0.000910457
0.000878224
0.0008442
0.000808505
0.000771266
0.000732621
0.000692716
0.000651705
0.000609755
0.000567037
0.000523737
0.000480049
0.000436177
0.000392341
0.00034877
0.000305714
0.00026344
0.00022224
0.000182444
0.000144433
0.000108668
7.57463e-05
4.64795e-05
2.19358e-05
1.16174e-05
8.00395e-05
4.35283e-05
4.23907e-05
5.06528e-05
6.33313e-05
7.86369e-05
9.57044e-05
0.000114031
0.000133282
0.000153212
0.000173625
0.000194354
0.000215257
0.000236204
0.000257075
0.000277763
0.000298165
0.000318188
0.000337741
0.000356744
0.000375117
0.00039279
0.000409695
0.000425769
0.000440956
0.000455202
0.00046846
0.000480684
0.000491836
0.000501881
0.000510787
0.000518527
0.000525078
0.000530422
0.000534542
0.000537429
0.000539074
0.000539474
0.000538629
0.000536543
0.000533222
0.000528679
0.000522928
0.000515987
0.00050788
0.000498632
0.000488272
0.000476836
0.000464361
0.000450888
0.000436464
0.000421137
0.000404962
0.000387998
0.000370305
0.000351953
0.000333011
0.000313557
0.00029367
0.000273439
0.000252955
0.000232317
0.000211629
0.000191008
0.000170577
0.000150477
0.000130866
0.000111936
9.39253e-05
7.71599e-05
6.21312e-05
4.96858e-05
4.15772e-05
4.26911e-05
7.85009e-05
0.000177606
8.70534e-05
6.7234e-05
6.36073e-05
6.68015e-05
7.375e-05
8.30659e-05
9.39914e-05
0.000106057
0.000118945
0.000132422
0.000146309
0.00016046
0.000174752
0.00018908
0.000203347
0.000217471
0.000231374
0.000244986
0.000258242
0.000271082
0.000283451
0.000295299
0.000306577
0.000317244
0.000327259
0.000336586
0.000345193
0.000353051
0.000360133
0.000366416
0.00037188
0.000376509
0.000380287
0.000383204
0.000385251
0.000386423
0.000386716
0.000386132
0.000384671
0.000382339
0.000379144
0.000375098
0.000370212
0.000364505
0.000357994
0.000350702
0.000342653
0.000333876
0.0003244
0.00031426
0.000303492
0.000292137
0.000280239
0.000267843
0.000255003
0.000241771
0.000228208
0.000214377
0.000200347
0.000186194
0.000172
0.000157858
0.000143871
0.000130158
0.000116862
0.000104158
9.2273e-05
8.15184e-05
7.23531e-05
6.55193e-05
6.23759e-05
6.59293e-05
8.53679e-05
0.000174176
0.000292844
0.000140495
0.000102057
8.82458e-05
8.42156e-05
8.53441e-05
8.96407e-05
9.606e-05
0.000103975
0.000112971
0.000122758
0.000133115
0.000143874
0.000154894
0.000166061
0.000177275
0.000188451
0.000199512
0.000210389
0.000221022
0.000231352
0.00024133
0.000250908
0.000260044
0.000268699
0.000276838
0.000284428
0.00029144
0.000297848
0.000303629
0.000308763
0.000313231
0.000317019
0.000320114
0.000322507
0.000324188
0.000325155
0.000325403
0.000324933
0.000323745
0.000321846
0.00031924
0.000315939
0.000311952
0.000307294
0.000301982
0.000296035
0.000289473
0.000282322
0.000274609
0.000266362
0.000257616
0.000248405
0.000238771
0.000228754
0.000218402
0.000207767
0.000196903
0.000185872
0.000174742
0.000163588
0.000152495
0.000141561
0.000130898
0.000120643
0.000110963
0.000102072
9.42543e-05
8.79165e-05
8.36733e-05
8.25494e-05
8.64952e-05
0.000100041
0.000137737
0.00028712
0.000419982
0.000200043
0.000142173
0.000118522
0.000108037
0.000104299
0.000104618
0.000107626
0.00011252
0.000118786
0.000126066
0.000134098
0.00014268
0.000151654
0.000160886
0.000170268
0.000179704
0.000189113
0.000198422
0.000207567
0.000216489
0.000225137
0.000233464
0.000241427
0.000248987
0.00025611
0.000262764
0.00026892
0.000274553
0.00027964
0.000284163
0.000288102
0.000291445
0.000294178
0.000296292
0.00029778
0.000298635
0.000298857
0.000298444
0.000297398
0.000295722
0.000293423
0.00029051
0.000286993
0.000282886
0.000278204
0.000272965
0.000267191
0.000260904
0.000254131
0.0002469
0.000239244
0.000231198
0.000222802
0.000214097
0.000205132
0.000195958
0.000186633
0.000177221
0.000167794
0.000158434
0.000149233
0.000140301
0.000131766
0.000123787
0.00011656
0.000110344
0.000105489
0.000102499
0.00010216
0.000105814
0.000116095
0.000139291
0.00019603
0.000411602
0.000555171
0.0002636
0.000185533
0.000152045
0.000135419
0.000127271
0.000124145
0.000124307
0.000126767
0.000130897
0.000136271
0.00014258
0.00014959
0.000157117
0.000165013
0.000173154
0.000181436
0.000189767
0.000198069
0.000206274
0.000214318
0.000222147
0.000229712
0.000236967
0.000243872
0.000250392
0.000256494
0.000262148
0.000267328
0.000272013
0.00027618
0.000279813
0.000282898
0.000285421
0.000287372
0.000288744
0.000289533
0.000289734
0.000289348
0.000288375
0.00028682
0.000284689
0.000281989
0.000278734
0.000274934
0.000270606
0.000265769
0.000260443
0.000254652
0.000248422
0.000241783
0.000234768
0.000227415
0.000219762
0.000211856
0.000203746
0.000195487
0.00018714
0.000178776
0.000170473
0.00016232
0.000154422
0.0001469
0.000139903
0.000133611
0.000128253
0.000124133
0.000121667
0.000121472
0.000124518
0.000132501
0.000148807
0.000181641
0.000258143
0.000543752
0.000695459
0.000329675
0.000230879
0.000187507
0.000164894
0.000152597
0.000146339
0.000144002
0.000144386
0.000146746
0.000150581
0.000155531
0.000161331
0.00016777
0.000174682
0.000181928
0.000189393
0.000196977
0.000204594
0.000212169
0.000219635
0.000226933
0.000234009
0.000240817
0.000247314
0.000253461
0.000259224
0.000264573
0.00026948
0.000273922
0.000277876
0.000281326
0.000284255
0.00028665
0.000288501
0.000289801
0.000290544
0.000290726
0.000290347
0.000289409
0.000287914
0.000285871
0.000283286
0.000280173
0.000276543
0.000272413
0.000267803
0.000262733
0.000257229
0.000251318
0.000245031
0.000238404
0.000231475
0.000224286
0.000216887
0.000209329
0.000201674
0.000193987
0.000186344
0.000178831
0.000171546
0.000164606
0.000158146
0.000152332
0.000147369
0.000143521
0.000141138
0.000140712
0.000142973
0.000149095
0.00016115
0.000183322
0.000225822
0.000322564
0.000680567
0.000838446
0.00039709
0.000277297
0.000224035
0.000195545
0.000179272
0.000170095
0.00016549
0.000164044
0.000164883
0.000167428
0.000171268
0.0001761
0.00018169
0.00018785
0.000194428
0.000201296
0.000208345
0.000215482
0.000222625
0.000229702
0.000236649
0.000243409
0.000249932
0.000256171
0.000262087
0.000267643
0.000272806
0.000277548
0.000281843
0.00028567
0.000289009
0.000291843
0.00029416
0.000295947
0.000297198
0.000297906
0.000298068
0.000297683
0.000296753
0.000295281
0.000293274
0.000290742
0.000287696
0.00028415
0.000280121
0.000275629
0.000270697
0.000265351
0.000259621
0.000253538
0.000247141
0.00024047
0.000233571
0.000226496
0.000219301
0.00021205
0.000204817
0.000197683
0.000190742
0.000184101
0.000177888
0.000172255
0.000167385
0.00016351
0.000160927
0.000160039
0.000161412
0.0001659
0.000174887
0.000190836
0.000218752
0.000270897
0.000388079
0.000819566
0.000982131
0.00046488
0.000324067
0.000260979
0.000226723
0.000206616
0.000194679
0.00018798
0.000184882
0.000184382
0.000185817
0.000188726
0.000192766
0.000197676
0.000203249
0.000209318
0.000215743
0.000222405
0.000229203
0.000236048
0.000242863
0.00024958
0.000256137
0.000262481
0.000268563
0.00027434
0.000279773
0.000284827
0.000289474
0.000293685
0.000297437
0.000300711
0.000303489
0.000305756
0.000307502
0.000308717
0.000309396
0.000309535
0.000309134
0.000308193
0.000306718
0.000304714
0.000302193
0.000299165
0.000295646
0.000291654
0.000287209
0.000282337
0.000277064
0.000271421
0.000265443
0.00025917
0.000252645
0.000245917
0.000239042
0.000232079
0.000225098
0.000218178
0.000211405
0.000204883
0.000198729
0.000193081
0.000188107
0.000184009
0.000181045
0.000179549
0.000179975
0.000182969
0.000189512
0.000201199
0.000220892
0.000254424
0.000316115
0.000453674
0.000958645
0.00112484
0.000532245
0.000370605
0.000297831
0.000257939
0.000234129
0.000219569
0.000210912
0.000206301
0.000204601
0.000205066
0.000207177
0.000210556
0.000214913
0.000220022
0.000225699
0.000231792
0.000238173
0.000244732
0.000251375
0.000258019
0.00026459
0.000271023
0.000277261
0.000283253
0.000288953
0.00029432
0.000299317
0.000303914
0.000308081
0.000311794
0.000315031
0.000317776
0.000320013
0.000321729
0.000322916
0.000323568
0.000323681
0.000323255
0.00032229
0.000320792
0.000318767
0.000316226
0.000313183
0.000309651
0.000305651
0.000301205
0.000296338
0.000291078
0.000285459
0.000279518
0.000273295
0.000266838
0.000260199
0.000253435
0.000246612
0.000239804
0.000233093
0.000226576
0.000220361
0.000214576
0.000209372
0.00020493
0.000201474
0.000199287
0.000198741
0.000200341
0.000204814
0.000213268
0.000227513
0.000250806
0.000289798
0.00036085
0.000518489
0.00109601
0.00126521
0.000598526
0.000416439
0.000334187
0.000288814
0.000261435
0.000244373
0.000233877
0.000227868
0.000225079
0.000224681
0.000226099
0.000228918
0.000232819
0.000237556
0.000242929
0.000248773
0.000254952
0.000261347
0.000267857
0.000274394
0.000280879
0.000287244
0.000293428
0.000299377
0.000305043
0.000310382
0.000315357
0.000319933
0.000324082
0.000327778
0.000330998
0.000333724
0.00033594
0.000337634
0.000338797
0.000339421
0.000339504
0.000339045
0.000338045
0.000336509
0.000334445
0.000331864
0.000328779
0.000325207
0.000321168
0.000316684
0.000311783
0.000306495
0.000300854
0.000294899
0.000288675
0.000282229
0.000275618
0.000268902
0.000262151
0.000255442
0.000248866
0.000242523
0.00023653
0.000231026
0.000226171
0.000222164
0.000219248
0.000217732
0.000218024
0.000220684
0.000226518
0.000236758
0.000253426
0.000280166
0.000324434
0.000404581
0.000581793
0.00123012
0.00140213
0.000663201
0.000461193
0.000369731
0.000319056
0.000288244
0.000268799
0.000256571
0.000249261
0.000245475
0.000244301
0.000245111
0.000247448
0.000250968
0.000255404
0.00026054
0.000266199
0.000272234
0.00027852
0.000284948
0.000291424
0.000297867
0.000304204
0.00031037
0.000316309
0.000321969
0.000327306
0.000332281
0.000336857
0.000341005
0.000344697
0.00034791
0.000350626
0.000352827
0.000354502
0.000355639
0.000356234
0.000356282
0.000355783
0.000354738
0.000353152
0.000351035
0.000348397
0.000345252
0.000341618
0.000337515
0.000332968
0.000328004
0.000322657
0.000316961
0.000310957
0.000304691
0.000298216
0.000291587
0.000284871
0.00027814
0.000271478
0.000264978
0.000258747
0.000252912
0.000247618
0.000243041
0.000239391
0.000236932
0.000236
0.000237039
0.00024066
0.000247749
0.000259658
0.000278614
0.00030864
0.000357967
0.000446871
0.000642975
0.00135971
0.00153477
0.00072587
0.000504583
0.000404225
0.000348444
0.000314344
0.00029263
0.000278766
0.000270243
0.000265538
0.000263662
0.00026393
0.000265849
0.000269047
0.000273237
0.000278187
0.000283708
0.000289644
0.000295861
0.000302244
0.000308695
0.000315127
0.000321463
0.000327636
0.000333586
0.000339261
0.000344613
0.000349602
0.00035419
0.000358346
0.000362042
0.000365254
0.000367962
0.00037015
0.000371804
0.000372915
0.000373475
0.000373482
0.000372936
0.000371837
0.000370192
0.000368009
0.0003653
0.000362079
0.000358366
0.000354182
0.000349552
0.000344505
0.000339074
0.000333297
0.000327217
0.000320881
0.000314343
0.000307665
0.000300912
0.000294163
0.000287505
0.000281036
0.000274871
0.000269141
0.000264004
0.000259644
0.000256288
0.000254219
0.000253799
0.000255505
0.000260001
0.000268247
0.000281712
0.000302822
0.000335959
0.0003901
0.000487363
0.000701528
0.0014837
0.00166253
0.000786251
0.000546408
0.000437499
0.000376822
0.000339581
0.000315711
0.000300304
0.000290645
0.000285091
0.000282573
0.000282355
0.000283906
0.00028683
0.000290816
0.000295619
0.000301039
0.000306908
0.000313086
0.000319452
0.000325902
0.000332343
0.000338698
0.000344894
0.000350871
0.000356572
0.00036195
0.000366961
0.000371567
0.000375735
0.000379438
0.000382649
0.00038535
0.000387522
0.000389153
0.000390232
0.000390753
0.000390713
0.000390111
0.000388949
0.000387234
0.000384974
0.000382182
0.000378874
0.000375068
0.000370787
0.000366057
0.000360909
0.000355377
0.0003495
0.000343322
0.000336893
0.00033027
0.000323514
0.000316698
0.000309901
0.000303214
0.000296741
0.000290603
0.000284939
0.000279914
0.000275724
0.000272611
0.000270875
0.000270903
0.000273207
0.000278498
0.000287808
0.00030272
0.000325845
0.000361909
0.000420595
0.000525768
0.000757047
0.00160124
0.00178506
0.000844175
0.000586548
0.000469451
0.000404096
0.000363861
0.000337944
0.000321079
0.000310356
0.000304012
0.000300905
0.000300247
0.000301473
0.000304158
0.000307975
0.000312662
0.000318007
0.000323834
0.000329995
0.000336363
0.000342827
0.000349294
0.00035568
0.00036191
0.000367922
0.000373656
0.000379064
0.0003841
0.000388725
0.000392907
0.000396614
0.000399823
0.000402512
0.000404665
0.000406266
0.000407308
0.000407782
0.000407686
0.000407019
0.000405785
0.000403989
0.000401642
0.000398756
0.000395347
0.000391436
0.000387045
0.000382202
0.000376939
0.00037129
0.000365296
0.000359004
0.000352465
0.000345736
0.000338883
0.000331981
0.000325112
0.000318371
0.000311867
0.000305726
0.000300095
0.000295145
0.000291086
0.000288171
0.00028672
0.00028714
0.000289979
0.000295992
0.000306278
0.000322526
0.000347525
0.000386322
0.000449266
0.000561861
0.000809209
0.00171166
0.00190224
0.000899583
0.000624955
0.000500039
0.000430221
0.000387138
0.00035928
0.000341038
0.000329314
0.000322234
0.000318583
0.000317524
0.000318458
0.000320934
0.000324607
0.000329201
0.000334492
0.000340295
0.000346455
0.000352837
0.000359329
0.00036583
0.000372254
0.000378524
0.000384574
0.000390344
0.000395783
0.000400843
0.000405487
0.000409678
0.000413386
0.000416587
0.000419258
0.000421383
0.000422948
0.000423942
0.00042436
0.000424198
0.000423456
0.000422139
0.000420251
0.000417805
0.000414813
0.000411292
0.000407263
0.00040275
0.000397781
0.000392389
0.00038661
0.000380486
0.000374065
0.000367399
0.00036055
0.000353583
0.000346576
0.000339616
0.000332801
0.000326243
0.000320075
0.000314449
0.000309546
0.000305584
0.000302829
0.000301618
0.000302382
0.000305696
0.000312361
0.000323537
0.000341013
0.000367743
0.000409073
0.000475971
0.000595469
0.000857773
0.00181444
0.00201415
0.000952512
0.000661656
0.000529279
0.000455209
0.000409414
0.000379713
0.000360168
0.000347502
0.000339733
0.000335576
0.000334149
0.000334818
0.00033711
0.00034066
0.000345179
0.000350431
0.000356223
0.000362392
0.000368798
0.000375324
0.000381864
0.00038833
0.000394642
0.000400731
0.000406536
0.000412002
0.000417084
0.00042174
0.000425934
0.000429637
0.000432821
0.000435465
0.000437553
0.00043907
0.000440006
0.000440356
0.000440116
0.000439287
0.000437873
0.000435882
0.000433324
0.000430213
0.000426567
0.000422407
0.000417758
0.00041265
0.000407116
0.000401194
0.000394927
0.000388363
0.000381558
0.000374573
0.000367478
0.000360352
0.000353284
0.000346377
0.000339747
0.000333531
0.000327887
0.000323004
0.000319109
0.000316482
0.000315473
0.000316534
0.000320269
0.000327518
0.000339501
0.000358096
0.000386411
0.000430069
0.000500607
0.000626468
0.000902563
0.00190923
0.00212109
0.0010031
0.000696741
0.000557241
0.000479113
0.000430735
0.000399281
0.0003785
0.000364943
0.000356526
0.000351896
0.000350129
0.000350556
0.000352682
0.000356126
0.000360583
0.000365808
0.000371598
0.000377783
0.00038422
0.000390783
0.000397365
0.000403874
0.000410227
0.000416353
0.000422188
0.000427678
0.000432775
0.000437435
0.000441624
0.00044531
0.000448467
0.000451073
0.000453111
0.000454567
0.000455431
0.000455698
0.000455366
0.000454435
0.00045291
0.000450799
0.000448114
0.000444868
0.000441082
0.000436777
0.000431979
0.000426717
0.000421028
0.000414949
0.000408524
0.000401805
0.000394847
0.000387713
0.000380476
0.000373216
0.000366026
0.000359011
0.000352292
0.000346009
0.000340327
0.000335441
0.000331588
0.000329058
0.000328215
0.00032953
0.000333633
0.000341402
0.000354108
0.000373715
0.000403469
0.000449246
0.000523104
0.000654771
0.000943457
0.00199577
0.00222353
0.00105157
0.000730365
0.000584045
0.000502034
0.000451186
0.000418058
0.000396099
0.000381696
0.000372665
0.000367591
0.000365505
0.00036571
0.000367686
0.000371036
0.000375443
0.000380649
0.000386445
0.000392652
0.000399122
0.000405725
0.00041235
0.0004189
0.000425292
0.00043145
0.00043731
0.000442817
0.000447919
0.000452575
0.000456747
0.000460405
0.00046352
0.000466073
0.000468045
0.000469424
0.000470199
0.000470366
0.000469924
0.000468872
0.000467218
0.000464969
0.000462138
0.000458741
0.000454797
0.000450329
0.000445364
0.000439933
0.000434072
0.00042782
0.000421224
0.000414334
0.000407208
0.000399912
0.000392519
0.000385112
0.000377785
0.000370647
0.000363823
0.000357456
0.000351717
0.000346807
0.000342971
0.000340508
0.000339797
0.000341325
0.000345747
0.000353971
0.000367319
0.00038783
0.000418876
0.000466561
0.000543414
0.000680323
0.000980376
0.00207388
0.00232213
0.00109824
0.000762743
0.000609859
0.000524113
0.00047089
0.000436154
0.000413065
0.000397852
0.000388236
0.000382741
0.000380355
0.000380353
0.000382194
0.000385461
0.000389826
0.000395021
0.000400828
0.000407062
0.000413568
0.000420212
0.000426879
0.000433469
0.000439895
0.00044608
0.000451958
0.000457472
0.00046257
0.000467208
0.00047135
0.000474964
0.000478022
0.000480504
0.000482392
0.000483673
0.000484339
0.000484385
0.00048381
0.000482616
0.00048081
0.000478401
0.000475403
0.000471832
0.000467708
0.000463056
0.000457904
0.000452283
0.000446231
0.000439789
0.000433003
0.000425926
0.000418617
0.000411142
0.000403577
0.000396008
0.000388529
0.000381253
0.000374308
0.00036784
0.000362025
0.000357071
0.000353228
0.000350805
0.000350193
0.000351894
0.000356583
0.0003652
0.00037911
0.000400417
0.000432607
0.000481989
0.000561507
0.000703088
0.00101327
0.00214348
0.00241773
0.00114349
0.000794143
0.000634897
0.00054553
0.000490006
0.000453712
0.00042953
0.000413536
0.000403357
0.000397459
0.000394789
0.000394594
0.000396309
0.000399504
0.000403836
0.000409027
0.000414851
0.000421116
0.00042766
0.000434347
0.000441055
0.000447682
0.000454138
0.000460344
0.000466232
0.000471742
0.000476823
0.00048143
0.000485526
0.000489078
0.000492059
0.000494448
0.000496229
0.000497389
0.000497921
0.000497819
0.000497086
0.000495722
0.000493737
0.00049114
0.000487947
0.000484175
0.000479845
0.000474984
0.000469619
0.000463785
0.000457518
0.000450863
0.000443866
0.000436581
0.000429069
0.000421398
0.000413644
0.000405894
0.000398247
0.000390817
0.000383733
0.000377147
0.000371237
0.000366217
0.000362343
0.000359933
0.000359386
0.000361219
0.000366127
0.000375074
0.000389463
0.00041146
0.000444647
0.00049551
0.000577364
0.00072304
0.0010421
0.0022045
0.00251131
0.00118779
0.00082489
0.000659415
0.000566501
0.000508724
0.000470906
0.000445656
0.000428899
0.000418174
0.000411886
0.000408945
0.000408567
0.000410169
0.000413301
0.000417608
0.000422803
0.000428651
0.000434952
0.000441539
0.000448269
0.000455019
0.000461681
0.000468163
0.000474383
0.000480271
0.000485767
0.000490817
0.000495377
0.000499407
0.000502876
0.000505757
0.000508028
0.000509675
0.000510685
0.000511052
0.000510772
0.000509846
0.00050828
0.000506082
0.000503264
0.000499842
0.000495836
0.000491267
0.000486164
0.000480555
0.000474477
0.000467968
0.000461072
0.000453837
0.00044632
0.000438582
0.000430691
0.000422727
0.000414777
0.000406942
0.000399338
0.000392096
0.000385372
0.000379347
0.000374238
0.000370309
0.000367882
0.000367368
0.000369293
0.000374369
0.000383582
0.000398369
0.000420946
0.00045498
0.00050711
0.000590966
0.000740158
0.00106685
0.00225686
0.00260403
0.0012317
0.000855358
0.000683707
0.000587278
0.000527266
0.000487938
0.000461631
0.000444122
0.000432859
0.000426193
0.00042299
0.00042244
0.000423938
0.000427018
0.000431311
0.000436521
0.0004424
0.000448745
0.00045538
0.000462159
0.000468951
0.000475648
0.000482152
0.00048838
0.000494259
0.000499728
0.000504732
0.000509225
0.000513168
0.000516529
0.000519281
0.000521405
0.000522885
0.00052371
0.000523875
0.000523377
0.000522221
0.000520411
0.000517959
0.000514878
0.000511186
0.000506904
0.000502056
0.000496671
0.00049078
0.000484421
0.000477633
0.000470462
0.000462958
0.000455178
0.000447184
0.000439047
0.000430846
0.000422672
0.000414626
0.000406825
0.000399403
0.000392519
0.000386355
0.000381134
0.000377122
0.000374649
0.000374131
0.000376106
0.000381298
0.000390714
0.000405815
0.000428861
0.00046359
0.000516769
0.00060229
0.000754409
0.00108745
0.00230047
0.00269718
0.00127581
0.000885969
0.00070811
0.000608145
0.000545886
0.000505039
0.000477671
0.000459409
0.000447613
0.000440573
0.000437118
0.000436407
0.000437813
0.000440853
0.000445146
0.000450382
0.000456306
0.000462705
0.000469399
0.000476232
0.000483072
0.000489804
0.000496328
0.000502558
0.000508419
0.000513847
0.000518787
0.000523191
0.000527022
0.000530245
0.000532837
0.000534777
0.00053605
0.000536647
0.000536566
0.000535804
0.000534368
0.000532266
0.000529509
0.000526114
0.0005221
0.000517491
0.000512313
0.000506597
0.000500377
0.00049369
0.00048658
0.000479091
0.000471278
0.000463196
0.000454912
0.000446495
0.000438027
0.000429599
0.000421313
0.000413289
0.000405663
0.000398592
0.000392265
0.000386904
0.00038278
0.000380228
0.000379669
0.000381649
0.000386904
0.000396453
0.000411782
0.000435184
0.000470452
0.000524456
0.000611297
0.000765746
0.00110385
0.00233519
0.00279221
0.00132082
0.000917195
0.000732996
0.000629419
0.000564863
0.000522466
0.000494017
0.000474993
0.00046266
0.000455249
0.00045155
0.000450689
0.000452018
0.000455035
0.000459345
0.000464625
0.000470611
0.000477081
0.000483845
0.000490745
0.000497639
0.000504411
0.000510954
0.000517181
0.000523015
0.000528387
0.000533243
0.000537535
0.000541222
0.000544274
0.000546665
0.000548377
0.000549396
0.000549714
0.000549332
0.000548249
0.000546474
0.000544017
0.000540893
0.000537121
0.000532724
0.000527726
0.000522157
0.00051605
0.000509441
0.00050237
0.000494882
0.000487025
0.000478853
0.000470425
0.000461806
0.000453069
0.000444295
0.000435578
0.00042702
0.000418741
0.000410879
0.000403593
0.000397072
0.00039154
0.000387273
0.000384606
0.000383966
0.000385904
0.000391163
0.000400776
0.000416242
0.000439882
0.000475528
0.000530126
0.00061793
0.000774094
0.00111593
0.00236079
0.00289069
0.00136746
0.000949551
0.000758774
0.000651446
0.000584506
0.000540501
0.000510936
0.000491127
0.000478249
0.000470468
0.000466533
0.000465537
0.000466807
0.000469823
0.000474173
0.000479523
0.000485594
0.000492156
0.000499012
0.000505993
0.000512955
0.000519773
0.000526339
0.000532559
0.000538354
0.000543655
0.000548405
0.000552554
0.000556064
0.000558902
0.000561045
0.000562476
0.000563181
0.000563159
0.000562409
0.000560936
0.000558749
0.000555863
0.000552296
0.000548071
0.000543212
0.000537748
0.000531713
0.000525142
0.000518073
0.00051055
0.000502619
0.00049433
0.00048574
0.000476909
0.000467903
0.000458797
0.000449673
0.000440624
0.000431754
0.000423184
0.000415051
0.000407515
0.000400766
0.000395031
0.000390583
0.000387762
0.000386997
0.000388842
0.000394045
0.000403645
0.000419154
0.000442905
0.000478759
0.000533709
0.000622107
0.000779345
0.00112354
0.00237692
0.00299437
0.00141656
0.000983598
0.000785887
0.000674603
0.000605149
0.000559452
0.000528716
0.000508092
0.000494653
0.000486502
0.000482341
0.000481229
0.000482465
0.00048551
0.000489932
0.000495383
0.000501573
0.000508258
0.000515232
0.000522318
0.000529365
0.000536241
0.000542833
0.000549044
0.00055479
0.000560001
0.000564617
0.00056859
0.000571879
0.000574453
0.00057629
0.000577374
0.000577697
0.000577258
0.000576059
0.000574109
0.000571423
0.000568017
0.000563915
0.000559143
0.00055373
0.000547708
0.000541116
0.000533991
0.000526376
0.000518317
0.000509864
0.000501069
0.00049199
0.000482689
0.000473235
0.000463702
0.000454173
0.000444743
0.000435515
0.00042661
0.000418165
0.000410341
0.000403327
0.000397349
0.000392681
0.000389663
0.000388724
0.000390421
0.000395501
0.000405008
0.000420456
0.000444186
0.000480068
0.000535115
0.000623716
0.000781354
0.00112646
0.00238315
0.00310507
0.00146898
0.00101994
0.00081481
0.000699293
0.000627151
0.000579648
0.000547669
0.000526187
0.00051217
0.000503649
0.000499276
0.000498073
0.000499309
0.000502422
0.000506959
0.000512556
0.000518906
0.000525754
0.000532883
0.000540105
0.00054726
0.00055421
0.000560836
0.000567035
0.000572721
0.00057782
0.00058227
0.000586023
0.000589039
0.000591288
0.000592748
0.000593405
0.00059326
0.000592311
0.000590564
0.000588035
0.000584741
0.000580706
0.000575957
0.000570525
0.000564445
0.000557755
0.000550496
0.000542711
0.000534448
0.000525755
0.000516685
0.000507294
0.000497643
0.000487794
0.000477818
0.000467791
0.000457796
0.000447926
0.000438288
0.000428999
0.000420196
0.00041204
0.000404718
0.000398454
0.000393521
0.000390259
0.000389095
0.000390583
0.000395469
0.000404796
0.000420075
0.000443642
0.00047936
0.000534231
0.000622617
0.000779942
0.00112442
0.0023789
0.0032248
0.00152566
0.00105921
0.00084605
0.000725945
0.000650892
0.000601441
0.000568128
0.000545738
0.000531121
0.000522232
0.000517669
0.00051641
0.000517691
0.000520923
0.000525631
0.00053143
0.000537997
0.000545061
0.000552391
0.000559788
0.000567082
0.000574127
0.000580795
0.00058698
0.00059259
0.000597549
0.000601794
0.000605274
0.000607952
0.000609799
0.000610792
0.00061093
0.000610209
0.000608635
0.000606222
0.000602987
0.000598956
0.000594158
0.000588627
0.000582401
0.000575521
0.00056803
0.000559975
0.000551405
0.000542372
0.00053293
0.000523134
0.000513044
0.000502722
0.000492235
0.000481654
0.000471055
0.000460523
0.00045015
0.00044004
0.000430312
0.000421101
0.000412564
0.000404886
0.000398292
0.000393049
0.000389494
0.00038805
0.000389267
0.000393884
0.000402935
0.000417924
0.000441171
0.000476516
0.000530914
0.000618638
0.000774881
0.0011171
0.00236347
0.00335562
0.00158759
0.0011021
0.000880139
0.000755011
0.000676774
0.000625199
0.000590446
0.000567089
0.000551851
0.000542601
0.000537878
0.00053661
0.000537996
0.000541415
0.000546367
0.000552442
0.000559296
0.000566641
0.00057423
0.000581851
0.000589321
0.000596484
0.000603205
0.000609371
0.000614885
0.000619667
0.000623655
0.000626796
0.000629054
0.000630399
0.000630821
0.000630319
0.000628893
0.000626556
0.000623329
0.000619236
0.000614312
0.000608593
0.000602121
0.000594941
0.000587103
0.000578656
0.000569655
0.000560154
0.000550212
0.000539887
0.000529239
0.000518332
0.00050723
0.000496003
0.000484722
0.000473466
0.000462317
0.000451368
0.000440722
0.000430495
0.00042082
0.000411851
0.00040377
0.000396795
0.000391189
0.000387283
0.000385495
0.000386366
0.000390627
0.0003993
0.00041387
0.00043663
0.000471376
0.000524983
0.000611559
0.000765892
0.00110407
0.00233597
0.00349974
0.00165579
0.0011493
0.000917633
0.00078696
0.000705215
0.000651312
0.000614993
0.000590604
0.000574726
0.000565131
0.000560292
0.00055908
0.000560648
0.000564342
0.000569629
0.00057607
0.0005833
0.000591007
0.000598926
0.000606827
0.000614516
0.000621823
0.000628605
0.00063474
0.000640128
0.000644685
0.000648347
0.000651062
0.000652794
0.000653518
0.000653238
0.000651946
0.000649656
0.000646387
0.000642169
0.000637038
0.000631034
0.000624206
0.000616605
0.000608286
0.000599305
0.000589724
0.000579604
0.000569007
0.000557998
0.00054664
0.000535
0.000523144
0.000511141
0.000499061
0.000486978
0.000474969
0.000463119
0.000451517
0.000440265
0.000429475
0.000419277
0.000409819
0.00040128
0.000393869
0.000387847
0.000383534
0.000381338
0.000381793
0.00038561
0.000393796
0.000407809
0.000429901
0.000463804
0.000516276
0.000601183
0.000752713
0.00108496
0.00229557
0.00365941
0.00173132
0.00120154
0.000959101
0.000822275
0.000736645
0.000680177
0.000642154
0.000616666
0.000600133
0.000590222
0.00058533
0.000584256
0.000586108
0.000590187
0.000595922
0.000602844
0.000610555
0.00061872
0.00062705
0.000635297
0.000643249
0.000650724
0.000657569
0.000663652
0.000668868
0.000673132
0.000676376
0.000678552
0.000679618
0.00067958
0.000678425
0.000676162
0.000672812
0.000668408
0.000662988
0.0006566
0.000649299
0.000641143
0.000632195
0.000622522
0.000612192
0.000601276
0.000589843
0.000577965
0.000565714
0.000553161
0.000540376
0.00052743
0.000514395
0.000501343
0.000488349
0.00047549
0.000462849
0.000450514
0.000438584
0.000427165
0.000416383
0.000406382
0.00039733
0.000389433
0.00038294
0.000378161
0.000375493
0.000375453
0.000378734
0.000386317
0.000399624
0.000420857
0.000453657
0.000504624
0.000587302
0.000735077
0.00105936
0.00224141
0.00383694
0.00181527
0.00125956
0.00100512
0.000861442
0.000771497
0.000712201
0.000672323
0.000645668
0.000628478
0.0006183
0.000613439
0.000612612
0.000614874
0.000619474
0.000625798
0.000633334
0.000641651
0.000650383
0.000659215
0.000667877
0.000676136
0.000683797
0.000690692
0.000696683
0.000701659
0.000705531
0.000708234
0.00070971
0.000709956
0.000708957
0.000706718
0.000703259
0.000698613
0.000692827
0.000685954
0.000678057
0.000669204
0.000659468
0.000648927
0.000637661
0.00062575
0.000613277
0.000600322
0.000586967
0.000573289
0.000559368
0.000545279
0.000531098
0.000516898
0.000502754
0.000488739
0.000474933
0.000461414
0.000448268
0.000435588
0.000423477
0.000412054
0.000401454
0.00039184
0.000383404
0.000376386
0.000371082
0.000367874
0.00036726
0.00036991
0.000376769
0.000389218
0.000409387
0.000440808
0.000489882
0.000569738
0.000712749
0.00102693
0.00217275