/*--------------------------------*- C++ -*----------------------------------*\
  =========                 |
  \\      /  F ield         | OpenFOAM: The Open Source CFD Toolbox
   \\    /   O peration     | Website:  https://openfoam.org
    \\  /    A nd           | Version:  12
     \\/     M anipulation  |
\*---------------------------------------------------------------------------*/
FoamFile
{
    format      ascii;
    class       volScalarField;
    location    "1";
    object      nut;
}
// * * * * * * * * * * * * * * * * * * * * * * * * * * * * * * * * * * * * * //

dimensions      [0 2 -1 0 0 0 0];

internalField   nonuniform List<scalar> 
5625
(
2.05963e-13
6.22205e-12
1.31834e-11
2.14838e-11
3.08195e-11
4.09595e-11
5.17335e-11
6.30092e-11
7.46772e-11
8.66427e-11
9.88212e-11
1.11135e-10
1.23513e-10
1.35887e-10
1.48195e-10
1.60378e-10
1.72379e-10
1.84146e-10
1.95629e-10
2.06781e-10
2.17559e-10
2.2792e-10
2.37827e-10
2.47244e-10
2.56138e-10
2.64479e-10
2.72239e-10
2.79392e-10
2.85916e-10
2.91791e-10
2.96998e-10
3.01522e-10
3.0535e-10
3.08471e-10
3.10876e-10
3.12558e-10
3.13514e-10
3.13742e-10
3.13241e-10
3.12014e-10
3.10065e-10
3.07401e-10
3.04031e-10
2.99964e-10
2.95215e-10
2.89799e-10
2.83732e-10
2.77035e-10
2.6973e-10
2.6184e-10
2.53393e-10
2.44415e-10
2.3494e-10
2.25e-10
2.14631e-10
2.03871e-10
1.9276e-10
1.81344e-10
1.69666e-10
1.57775e-10
1.45723e-10
1.33564e-10
1.21354e-10
1.09155e-10
9.7031e-11
8.50505e-11
7.32881e-11
6.18254e-11
5.07536e-11
4.01787e-11
3.02291e-11
2.10707e-11
1.29293e-11
6.10186e-12
2.01975e-13
1.3917e-12
2.02702e-10
1.08024e-09
2.522e-09
4.23505e-09
6.08214e-09
8.0137e-09
1.0008e-08
1.20511e-08
1.41312e-08
1.62372e-08
1.83582e-08
2.04838e-08
2.2604e-08
2.47089e-08
2.67893e-08
2.88362e-08
3.08411e-08
3.2796e-08
3.46931e-08
3.65252e-08
3.82856e-08
3.9968e-08
4.15665e-08
4.30756e-08
4.44902e-08
4.58059e-08
4.70183e-08
4.81237e-08
4.91188e-08
5.00005e-08
5.07663e-08
5.14141e-08
5.19419e-08
5.23485e-08
5.26326e-08
5.27936e-08
5.28312e-08
5.27454e-08
5.25366e-08
5.22054e-08
5.17531e-08
5.11812e-08
5.04914e-08
4.96859e-08
4.87673e-08
4.77386e-08
4.66029e-08
4.53639e-08
4.40256e-08
4.25925e-08
4.10692e-08
3.9461e-08
3.77734e-08
3.60122e-08
3.41839e-08
3.2295e-08
3.03527e-08
2.83645e-08
2.63381e-08
2.42818e-08
2.22042e-08
2.01143e-08
1.80213e-08
1.59349e-08
1.38651e-08
1.18221e-08
9.81658e-09
7.85976e-09
5.96506e-09
4.15349e-09
2.47346e-09
1.05947e-09
1.988e-10
1.3648e-12
3.08829e-12
5.06611e-10
3.44911e-09
1.02698e-08
2.06753e-08
3.35637e-08
4.79601e-08
6.32397e-08
7.90388e-08
9.51416e-08
1.11408e-07
1.27734e-07
1.44036e-07
1.60239e-07
1.76276e-07
1.92081e-07
2.07594e-07
2.22756e-07
2.37511e-07
2.51807e-07
2.65592e-07
2.7882e-07
2.91447e-07
3.03431e-07
3.14734e-07
3.2532e-07
3.35157e-07
3.44215e-07
3.52468e-07
3.59892e-07
3.66466e-07
3.72171e-07
3.76993e-07
3.80919e-07
3.83939e-07
3.86045e-07
3.87233e-07
3.875e-07
3.86849e-07
3.8528e-07
3.82799e-07
3.79416e-07
3.7514e-07
3.69985e-07
3.63967e-07
3.57103e-07
3.49416e-07
3.40927e-07
3.31664e-07
3.21655e-07
3.10931e-07
2.99526e-07
2.87476e-07
2.7482e-07
2.616e-07
2.4786e-07
2.33647e-07
2.19009e-07
2.03997e-07
1.88666e-07
1.73071e-07
1.57271e-07
1.41326e-07
1.25302e-07
1.09268e-07
9.33039e-08
7.7508e-08
6.20149e-08
4.70334e-08
3.29176e-08
2.02787e-08
1.00731e-08
3.38292e-09
4.96838e-10
3.02834e-12
5.09239e-12
8.56265e-10
6.22425e-09
2.03606e-08
4.52727e-08
8.03108e-08
1.23367e-07
1.72114e-07
2.24618e-07
2.79456e-07
3.35626e-07
3.92421e-07
4.4933e-07
5.05958e-07
5.61992e-07
6.17163e-07
6.71239e-07
7.24009e-07
7.75281e-07
8.24875e-07
8.72628e-07
9.18383e-07
9.61998e-07
1.00334e-06
1.04228e-06
1.07872e-06
1.11254e-06
1.14365e-06
1.17197e-06
1.19742e-06
1.21994e-06
1.23947e-06
1.25596e-06
1.26937e-06
1.27967e-06
1.28684e-06
1.29086e-06
1.29174e-06
1.28946e-06
1.28405e-06
1.27552e-06
1.2639e-06
1.24922e-06
1.23153e-06
1.21088e-06
1.18733e-06
1.16094e-06
1.1318e-06
1.09998e-06
1.06558e-06
1.02869e-06
9.89432e-07
9.47916e-07
9.04267e-07
8.58619e-07
8.11114e-07
7.61903e-07
7.11145e-07
6.5901e-07
6.05683e-07
5.51361e-07
4.96264e-07
4.40642e-07
3.84792e-07
3.29087e-07
2.74017e-07
2.20263e-07
1.68796e-07
1.21005e-07
7.87809e-08
4.44112e-08
1.99714e-08
6.10418e-09
8.39583e-10
4.99239e-12
7.30386e-12
1.23849e-09
9.21853e-09
3.13419e-08
7.31085e-08
1.36391e-07
2.19747e-07
3.19807e-07
4.32624e-07
5.54529e-07
6.82466e-07
8.14027e-07
9.47353e-07
1.08101e-06
1.21389e-06
1.34509e-06
1.47388e-06
1.59964e-06
1.72182e-06
1.83997e-06
1.95366e-06
2.06251e-06
2.16618e-06
2.26436e-06
2.35676e-06
2.44312e-06
2.52322e-06
2.59684e-06
2.66379e-06
2.72392e-06
2.77708e-06
2.82314e-06
2.862e-06
2.89358e-06
2.91782e-06
2.93466e-06
2.94408e-06
2.94608e-06
2.94066e-06
2.92785e-06
2.90768e-06
2.88023e-06
2.84557e-06
2.8038e-06
2.75504e-06
2.69942e-06
2.63708e-06
2.5682e-06
2.49296e-06
2.41158e-06
2.32426e-06
2.23126e-06
2.13284e-06
2.02929e-06
1.92091e-06
1.80804e-06
1.69104e-06
1.57032e-06
1.44632e-06
1.31954e-06
1.19057e-06
1.06009e-06
9.28958e-07
7.98227e-07
6.69267e-07
5.43867e-07
4.24364e-07
3.13741e-07
2.15597e-07
1.33813e-07
7.17178e-08
3.0738e-08
9.03804e-09
1.21391e-09
7.15751e-12
9.65588e-12
1.64344e-09
1.23639e-08
4.28092e-08
1.02321e-07
1.96306e-07
3.25589e-07
4.87294e-07
6.76373e-07
8.87006e-07
1.11355e-06
1.35101e-06
1.59519e-06
1.84267e-06
2.09066e-06
2.33693e-06
2.57964e-06
2.81729e-06
3.04861e-06
3.27253e-06
3.48812e-06
3.69458e-06
3.89121e-06
4.07737e-06
4.2525e-06
4.41613e-06
4.56781e-06
4.70714e-06
4.8338e-06
4.94748e-06
5.04793e-06
5.13493e-06
5.2083e-06
5.26789e-06
5.31359e-06
5.34534e-06
5.36308e-06
5.3668e-06
5.35654e-06
5.33233e-06
5.29426e-06
5.24244e-06
5.17702e-06
5.09817e-06
5.00611e-06
4.90107e-06
4.78333e-06
4.65318e-06
4.51097e-06
4.35708e-06
4.19192e-06
4.01594e-06
3.82965e-06
3.6336e-06
3.4284e-06
3.21473e-06
2.99336e-06
2.76518e-06
2.53117e-06
2.29254e-06
2.05069e-06
1.80735e-06
1.56465e-06
1.32524e-06
1.09242e-06
8.70277e-07
6.63681e-07
4.78172e-07
3.19479e-07
1.92589e-07
1.00352e-07
4.19681e-08
1.21156e-08
1.60986e-09
9.4566e-12
1.20973e-11
2.06295e-09
1.56065e-08
5.45632e-08
1.3218e-07
2.5773e-07
4.351e-07
6.63058e-07
9.36582e-07
1.24849e-06
1.59081e-06
1.95577e-06
2.33633e-06
2.72635e-06
3.12064e-06
3.51488e-06
3.90547e-06
4.28943e-06
4.66427e-06
5.02788e-06
5.3785e-06
5.71461e-06
6.03492e-06
6.33829e-06
6.62375e-06
6.89045e-06
7.13765e-06
7.36469e-06
7.57103e-06
7.75617e-06
7.91972e-06
8.06133e-06
8.18073e-06
8.27768e-06
8.35203e-06
8.40366e-06
8.43251e-06
8.43858e-06
8.42193e-06
8.38259e-06
8.32072e-06
8.23651e-06
8.13018e-06
8.00202e-06
7.85236e-06
7.68157e-06
7.49008e-06
7.27838e-06
7.04703e-06
6.79664e-06
6.52788e-06
6.24152e-06
5.93842e-06
5.61954e-06
5.28597e-06
4.93894e-06
4.5799e-06
4.2105e-06
3.83271e-06
3.44888e-06
3.06182e-06
2.67494e-06
2.29238e-06
1.91913e-06
1.56113e-06
1.22526e-06
9.19164e-07
6.50667e-07
4.26879e-07
2.52771e-07
1.29573e-07
5.34567e-08
1.52815e-08
2.01914e-09
1.18376e-11
1.45866e-11
2.49018e-09
1.8899e-08
6.6448e-08
1.62258e-07
3.19514e-07
5.45444e-07
8.4105e-07
1.20212e-06
1.62087e-06
2.08759e-06
2.59198e-06
3.12409e-06
3.67481e-06
4.23611e-06
4.80107e-06
5.36378e-06
5.91928e-06
6.46337e-06
6.99254e-06
7.5038e-06
7.99463e-06
8.46288e-06
8.90671e-06
9.32456e-06
9.71507e-06
1.00771e-05
1.04096e-05
1.07118e-05
1.0983e-05
1.12225e-05
1.14298e-05
1.16046e-05
1.17466e-05
1.18554e-05
1.1931e-05
1.19733e-05
1.19823e-05
1.1958e-05
1.19005e-05
1.18101e-05
1.1687e-05
1.15316e-05
1.13442e-05
1.11254e-05
1.08756e-05
1.05956e-05
1.0286e-05
9.94761e-06
9.58141e-06
9.18841e-06
8.76979e-06
8.3269e-06
7.86126e-06
7.37464e-06
6.86907e-06
6.34693e-06
5.81103e-06
5.26467e-06
4.71181e-06
4.15716e-06
3.60633e-06
3.06597e-06
2.54386e-06
2.04886e-06
1.59074e-06
1.17962e-06
8.25107e-07
5.34899e-07
3.1317e-07
1.58933e-07
6.50403e-08
1.84864e-08
2.43464e-09
1.42575e-11
1.7089e-11
2.91935e-09
2.21999e-08
7.83281e-08
1.92228e-07
3.80921e-07
6.55009e-07
1.01795e-06
1.46675e-06
1.99356e-06
2.58742e-06
3.2359e-06
3.92634e-06
4.64668e-06
5.38589e-06
6.13422e-06
6.88315e-06
7.6254e-06
8.35473e-06
9.06587e-06
9.75434e-06
1.04163e-05
1.10487e-05
1.16486e-05
1.22137e-05
1.27422e-05
1.32322e-05
1.36825e-05
1.40917e-05
1.44589e-05
1.47833e-05
1.50641e-05
1.53008e-05
1.5493e-05
1.56404e-05
1.57428e-05
1.58001e-05
1.58122e-05
1.57794e-05
1.57017e-05
1.55794e-05
1.54129e-05
1.52026e-05
1.49492e-05
1.46531e-05
1.43152e-05
1.39364e-05
1.35175e-05
1.30599e-05
1.25647e-05
1.20334e-05
1.14678e-05
1.08697e-05
1.02414e-05
9.58559e-06
8.90522e-06
8.20388e-06
7.4858e-06
6.75594e-06
6.02018e-06
5.28548e-06
4.55995e-06
3.85302e-06
3.17539e-06
2.53885e-06
1.95584e-06
1.43862e-06
9.9802e-07
6.41832e-07
3.72998e-07
1.88079e-07
7.65738e-08
2.16864e-08
2.85026e-09
1.66799e-11
1.95756e-11
3.34556e-09
2.54739e-08
9.00856e-08
2.21812e-07
4.41389e-07
7.62708e-07
1.1917e-06
1.72678e-06
2.36029e-06
3.08039e-06
3.87285e-06
4.72256e-06
5.61466e-06
6.5352e-06
7.4715e-06
8.41236e-06
9.34797e-06
1.02699e-05
1.11709e-05
1.20448e-05
1.28863e-05
1.36911e-05
1.44553e-05
1.51758e-05
1.58498e-05
1.64751e-05
1.70497e-05
1.75721e-05
1.80408e-05
1.84549e-05
1.88134e-05
1.91155e-05
1.93609e-05
1.95489e-05
1.96796e-05
1.97526e-05
1.9768e-05
1.9726e-05
1.96268e-05
1.94706e-05
1.92581e-05
1.89897e-05
1.86661e-05
1.82883e-05
1.78571e-05
1.73737e-05
1.68394e-05
1.62556e-05
1.56242e-05
1.49471e-05
1.42265e-05
1.34651e-05
1.2666e-05
1.18328e-05
1.09696e-05
1.00815e-05
9.17409e-06
8.25436e-06
7.33025e-06
6.41111e-06
5.50771e-06
4.63229e-06
3.79842e-06
3.02067e-06
2.3139e-06
1.69216e-06
1.16717e-06
7.4648e-07
4.31634e-07
2.16706e-07
8.79285e-08
2.4843e-08
3.26075e-09
1.90735e-11
2.20225e-11
3.76481e-09
2.86911e-08
1.01621e-07
2.50778e-07
5.00468e-07
8.67734e-07
1.36091e-06
1.97983e-06
2.71719e-06
3.56044e-06
4.49382e-06
5.50001e-06
6.56153e-06
7.66162e-06
8.78479e-06
9.9171e-06
1.10462e-05
1.21614e-05
1.32534e-05
1.43143e-05
1.53372e-05
1.63165e-05
1.72471e-05
1.8125e-05
1.89467e-05
1.97093e-05
2.04102e-05
2.10474e-05
2.16193e-05
2.21244e-05
2.25617e-05
2.29302e-05
2.32293e-05
2.34586e-05
2.36176e-05
2.37064e-05
2.37248e-05
2.36732e-05
2.35518e-05
2.33609e-05
2.31011e-05
2.27733e-05
2.23782e-05
2.19169e-05
2.13906e-05
2.08008e-05
2.0149e-05
1.94371e-05
1.86672e-05
1.7842e-05
1.69644e-05
1.60377e-05
1.50659e-05
1.40536e-05
1.30063e-05
1.19304e-05
1.08334e-05
9.72397e-06
8.61234e-06
7.51027e-06
6.43115e-06
5.38998e-06
4.40309e-06
3.48761e-06
2.66057e-06
1.93756e-06
1.33094e-06
8.47908e-07
4.88554e-07
2.44548e-07
9.89916e-08
2.79229e-08
3.6616e-09
2.14119e-11
2.44108e-11
4.17384e-09
3.18276e-08
1.12853e-07
2.78937e-07
5.57798e-07
9.69472e-07
1.52458e-06
2.22432e-06
3.06176e-06
4.0238e-06
5.09327e-06
6.25086e-06
7.47664e-06
8.75119e-06
1.00563e-05
1.13755e-05
1.26938e-05
1.39984e-05
1.52778e-05
1.65223e-05
1.77236e-05
1.88746e-05
1.99691e-05
2.10022e-05
2.19694e-05
2.28672e-05
2.36926e-05
2.4443e-05
2.51165e-05
2.57112e-05
2.62259e-05
2.66596e-05
2.70114e-05
2.72808e-05
2.74674e-05
2.75712e-05
2.75921e-05
2.75305e-05
2.73865e-05
2.71607e-05
2.68539e-05
2.64669e-05
2.60007e-05
2.54566e-05
2.48361e-05
2.41408e-05
2.33726e-05
2.2534e-05
2.16275e-05
2.06563e-05
1.96238e-05
1.85343e-05
1.73927e-05
1.62046e-05
1.49769e-05
1.37173e-05
1.2435e-05
1.11407e-05
9.84677e-06
8.56729e-06
7.3182e-06
6.11711e-06
4.98293e-06
3.93518e-06
2.99284e-06
2.17284e-06
1.48809e-06
9.45353e-07
5.4332e-07
2.71376e-07
1.09667e-07
3.08979e-08
4.04903e-09
2.36726e-11
2.67257e-11
4.5702e-09
3.4865e-08
1.23719e-07
3.06144e-07
6.13107e-07
1.06747e-06
1.682e-06
2.45918e-06
3.39244e-06
4.46817e-06
5.6679e-06
6.97048e-06
8.35367e-06
9.79558e-06
1.12754e-05
1.27742e-05
1.42746e-05
1.57614e-05
1.72214e-05
1.8643e-05
2.00163e-05
2.13329e-05
2.25856e-05
2.37683e-05
2.48759e-05
2.59042e-05
2.68494e-05
2.77088e-05
2.84799e-05
2.91607e-05
2.97496e-05
3.02456e-05
3.06476e-05
3.0955e-05
3.11676e-05
3.12851e-05
3.13076e-05
3.12355e-05
3.10689e-05
3.08087e-05
3.04556e-05
3.00107e-05
2.94752e-05
2.88505e-05
2.81383e-05
2.73407e-05
2.64599e-05
2.54986e-05
2.44599e-05
2.33475e-05
2.21656e-05
2.09192e-05
1.9614e-05
1.82569e-05
1.68557e-05
1.54198e-05
1.396e-05
1.24888e-05
1.10207e-05
9.5719e-06
8.16089e-06
6.80768e-06
5.53356e-06
4.36025e-06
3.30854e-06
2.39655e-06
1.63765e-06
1.0382e-06
5.95564e-07
2.97e-07
1.19873e-07
3.37444e-08
4.41989e-09
2.58372e-11
2.89572e-11
4.95214e-09
3.77905e-08
1.34177e-07
3.323e-07
6.66212e-07
1.16144e-06
1.83274e-06
2.68379e-06
3.70834e-06
4.89227e-06
6.21592e-06
7.65636e-06
9.18922e-06
1.07903e-05
1.24363e-05
1.41058e-05
1.57793e-05
1.74395e-05
1.90713e-05
2.06612e-05
2.21981e-05
2.36721e-05
2.5075e-05
2.63998e-05
2.76405e-05
2.87923e-05
2.9851e-05
3.08133e-05
3.16765e-05
3.24382e-05
3.30968e-05
3.3651e-05
3.40997e-05
3.44423e-05
3.46784e-05
3.48078e-05
3.48307e-05
3.47475e-05
3.45584e-05
3.42644e-05
3.38664e-05
3.33656e-05
3.27633e-05
3.20612e-05
3.12613e-05
3.03658e-05
2.93774e-05
2.82992e-05
2.71347e-05
2.58881e-05
2.45643e-05
2.31689e-05
2.17087e-05
2.01914e-05
1.86261e-05
1.70236e-05
1.53961e-05
1.3758e-05
1.21256e-05
1.05174e-05
8.95399e-06
7.45766e-06
6.05197e-06
4.76062e-06
3.60607e-06
2.60755e-06
1.77884e-06
1.12594e-06
6.44989e-07
3.21265e-07
1.29546e-07
3.64433e-08
4.77164e-09
2.78906e-11
3.1099e-11
5.31863e-09
4.05965e-08
1.44201e-07
3.57348e-07
7.17013e-07
1.25123e-06
1.9766e-06
2.89789e-06
4.00912e-06
5.29566e-06
6.73668e-06
8.30759e-06
9.982e-06
1.17334e-05
1.35364e-05
1.53671e-05
1.72039e-05
1.90276e-05
2.08211e-05
2.25695e-05
2.42602e-05
2.5882e-05
2.74258e-05
2.88837e-05
3.02489e-05
3.15161e-05
3.26805e-05
3.37385e-05
3.46871e-05
3.55236e-05
3.62464e-05
3.68539e-05
3.7345e-05
3.7719e-05
3.79757e-05
3.81148e-05
3.81365e-05
3.80415e-05
3.78299e-05
3.75029e-05
3.70614e-05
3.65069e-05
3.58409e-05
3.50653e-05
3.41823e-05
3.31943e-05
3.21045e-05
3.09162e-05
2.96333e-05
2.82607e-05
2.68038e-05
2.52689e-05
2.36635e-05
2.19964e-05
2.02778e-05
1.85197e-05
1.67357e-05
1.49419e-05
1.31563e-05
1.13995e-05
9.69407e-06
8.06441e-06
6.53611e-06
5.13475e-06
3.88429e-06
2.805e-06
1.91109e-06
1.20819e-06
6.9136e-07
3.44047e-07
1.38632e-07
3.89798e-08
5.10227e-09
2.9821e-11
3.31489e-11
5.66931e-09
4.32805e-08
1.53783e-07
3.81274e-07
7.65495e-07
1.33682e-06
2.1136e-06
3.10155e-06
4.29491e-06
5.67853e-06
7.23046e-06
8.92448e-06
1.07323e-05
1.26252e-05
1.45757e-05
1.65578e-05
1.85478e-05
2.05245e-05
2.24692e-05
2.43657e-05
2.61996e-05
2.79591e-05
2.96337e-05
3.12149e-05
3.26952e-05
3.40687e-05
3.53304e-05
3.64761e-05
3.75025e-05
3.8407e-05
3.91876e-05
3.98428e-05
4.03714e-05
4.07728e-05
4.10466e-05
4.11928e-05
4.12115e-05
4.11036e-05
4.08694e-05
4.05099e-05
4.00266e-05
3.94208e-05
3.86944e-05
3.78493e-05
3.68881e-05
3.58135e-05
3.46288e-05
3.33378e-05
3.19449e-05
3.04551e-05
2.88746e-05
2.72104e-05
2.54706e-05
2.3665e-05
2.18046e-05
1.99026e-05
1.79741e-05
1.60365e-05
1.41096e-05
1.22156e-05
1.0379e-05
8.6262e-06
6.98463e-06
5.48156e-06
4.14238e-06
2.98831e-06
2.03395e-06
1.28466e-06
7.34501e-07
3.65253e-07
1.47093e-07
4.13423e-08
5.41025e-09
3.16195e-11
3.51084e-11
6.00444e-09
4.58446e-08
1.62933e-07
4.04107e-07
8.11723e-07
1.41837e-06
2.24397e-06
3.29516e-06
4.5663e-06
6.04172e-06
7.69833e-06
9.50835e-06
1.14416e-05
1.34675e-05
1.55563e-05
1.76799e-05
1.98129e-05
2.19323e-05
2.40177e-05
2.60514e-05
2.8018e-05
2.99044e-05
3.16994e-05
3.33937e-05
3.49793e-05
3.64496e-05
3.77994e-05
3.90241e-05
4.01204e-05
4.10855e-05
4.19172e-05
4.26139e-05
4.31747e-05
4.35987e-05
4.38859e-05
4.40361e-05
4.40497e-05
4.39276e-05
4.36702e-05
4.32789e-05
4.27551e-05
4.21003e-05
4.13167e-05
4.04064e-05
3.9372e-05
3.82168e-05
3.69441e-05
3.5558e-05
3.40634e-05
3.24659e-05
3.07718e-05
2.89888e-05
2.71258e-05
2.51931e-05
2.3203e-05
2.11694e-05
1.91087e-05
1.70397e-05
1.49835e-05
1.2964e-05
1.10075e-05
9.14198e-06
7.39666e-06
5.80038e-06
4.3798e-06
3.15705e-06
2.14713e-06
1.35515e-06
7.74285e-07
3.84816e-07
1.54901e-07
4.35224e-08
5.69447e-09
3.32794e-11
3.69826e-11
6.3249e-09
4.82958e-08
1.71677e-07
4.25912e-07
8.55841e-07
1.49612e-06
2.36818e-06
3.47941e-06
4.8243e-06
6.38657e-06
8.14205e-06
1.00614e-05
1.21127e-05
1.42633e-05
1.64815e-05
1.87374e-05
2.10035e-05
2.32553e-05
2.54709e-05
2.76312e-05
2.97197e-05
3.17224e-05
3.36273e-05
3.54242e-05
3.71049e-05
3.86623e-05
4.00907e-05
4.13856e-05
4.25434e-05
4.3561e-05
4.44366e-05
4.51683e-05
4.57554e-05
4.61971e-05
4.64933e-05
4.66441e-05
4.665e-05
4.65121e-05
4.62309e-05
4.58079e-05
4.52447e-05
4.45431e-05
4.37053e-05
4.27338e-05
4.16313e-05
4.04013e-05
3.90474e-05
3.75741e-05
3.59864e-05
3.42904e-05
3.24928e-05
3.06018e-05
2.86269e-05
2.65792e-05
2.44714e-05
2.23187e-05
2.01383e-05
1.79503e-05
1.57771e-05
1.3644e-05
1.15788e-05
9.61114e-06
7.7717e-06
6.09077e-06
4.59619e-06
3.31096e-06
2.25042e-06
1.41951e-06
8.10624e-07
4.0269e-07
1.62035e-07
4.55145e-08
5.95415e-09
3.47961e-11
3.87799e-11
6.63212e-09
5.06451e-08
1.80054e-07
4.46794e-07
8.98063e-07
1.57048e-06
2.48685e-06
3.65529e-06
5.07028e-06
6.71497e-06
8.56404e-06
1.05866e-05
1.27491e-05
1.50168e-05
1.73561e-05
1.97353e-05
2.21252e-05
2.44996e-05
2.68352e-05
2.91117e-05
3.13117e-05
3.342e-05
3.54241e-05
3.73133e-05
3.90787e-05
4.07131e-05
4.22105e-05
4.35663e-05
4.47767e-05
4.58387e-05
4.67504e-05
4.75103e-05
4.81173e-05
4.85711e-05
4.88716e-05
4.90192e-05
4.90145e-05
4.88586e-05
4.85525e-05
4.80976e-05
4.74959e-05
4.67493e-05
4.58602e-05
4.48313e-05
4.36655e-05
4.23665e-05
4.09382e-05
3.93853e-05
3.7713e-05
3.59278e-05
3.40369e-05
3.20487e-05
2.99733e-05
2.78222e-05
2.56091e-05
2.33497e-05
2.10623e-05
1.87678e-05
1.64899e-05
1.42551e-05
1.20926e-05
1.00334e-05
8.10946e-06
6.35248e-06
4.79136e-06
3.44985e-06
2.34368e-06
1.47764e-06
8.4346e-07
4.18843e-07
1.68482e-07
4.73145e-08
6.18877e-09
3.61665e-11
4.05116e-11
6.92808e-09
5.29079e-08
1.8812e-07
4.66892e-07
9.38678e-07
1.64196e-06
2.60083e-06
3.82403e-06
5.306e-06
7.02925e-06
8.96728e-06
1.10877e-05
1.33551e-05
1.5733e-05
1.81859e-05
2.06802e-05
2.3185e-05
2.56727e-05
2.81186e-05
3.05012e-05
3.28022e-05
3.50057e-05
3.70985e-05
3.90693e-05
4.09091e-05
4.26102e-05
4.41667e-05
4.55737e-05
4.68276e-05
4.79253e-05
4.88651e-05
4.96455e-05
5.02658e-05
5.07257e-05
5.10254e-05
5.11654e-05
5.11465e-05
5.09702e-05
5.06375e-05
5.01503e-05
4.95105e-05
4.87204e-05
4.77825e-05
4.66997e-05
4.54752e-05
4.41127e-05
4.26165e-05
4.09914e-05
3.92431e-05
3.73779e-05
3.54036e-05
3.3329e-05
3.11644e-05
2.89219e-05
2.66157e-05
2.42622e-05
2.18803e-05
1.94919e-05
1.71217e-05
1.47972e-05
1.25486e-05
1.04084e-05
8.40973e-06
6.58535e-06
4.96514e-06
3.57362e-06
2.42683e-06
1.5295e-06
8.72755e-07
4.33255e-07
1.74234e-07
4.892e-08
6.39798e-09
3.73884e-11
4.21925e-11
7.21527e-09
5.51033e-08
1.95944e-07
4.86379e-07
9.7804e-07
1.71119e-06
2.71112e-06
3.98713e-06
5.53356e-06
7.33217e-06
9.3553e-06
1.1569e-05
1.3936e-05
1.64179e-05
1.89775e-05
2.15793e-05
2.41909e-05
2.6783e-05
2.93298e-05
3.18089e-05
3.42008e-05
3.64891e-05
3.86599e-05
4.07018e-05
4.26053e-05
4.43628e-05
4.5968e-05
4.74162e-05
4.87039e-05
4.98282e-05
5.07875e-05
5.15804e-05
5.22066e-05
5.2666e-05
5.29591e-05
5.30866e-05
5.30497e-05
5.28498e-05
5.24885e-05
5.19679e-05
5.129e-05
5.04574e-05
4.94729e-05
4.83394e-05
4.70604e-05
4.56399e-05
4.40821e-05
4.23922e-05
4.0576e-05
3.86401e-05
3.65924e-05
3.4442e-05
3.21996e-05
2.98776e-05
2.74905e-05
2.50554e-05
2.25918e-05
2.01221e-05
1.76719e-05
1.52696e-05
1.29465e-05
1.0736e-05
8.67227e-06
6.78916e-06
5.11739e-06
3.68214e-06
2.49979e-06
1.57502e-06
8.98478e-07
4.45909e-07
1.79283e-07
5.0329e-08
6.58153e-09
3.84604e-11
4.38398e-11
7.49667e-09
5.72541e-08
2.03608e-07
5.05463e-07
1.01657e-06
1.7789e-06
2.8189e-06
4.14634e-06
5.75536e-06
7.62694e-06
9.73211e-06
1.20353e-05
1.44974e-05
1.70782e-05
1.97383e-05
2.24408e-05
2.51515e-05
2.78398e-05
3.04786e-05
3.30446e-05
3.55174e-05
3.78801e-05
4.01184e-05
4.22206e-05
4.41769e-05
4.59798e-05
4.7623e-05
4.9102e-05
5.04133e-05
5.15544e-05
5.25239e-05
5.33207e-05
5.39449e-05
5.43966e-05
5.46765e-05
5.4786e-05
5.47263e-05
5.44993e-05
5.41069e-05
5.35512e-05
5.28349e-05
5.19605e-05
5.0931e-05
4.97498e-05
4.84203e-05
4.69468e-05
4.53337e-05
4.35862e-05
4.17102e-05
3.97127e-05
3.76016e-05
3.53862e-05
3.30773e-05
3.06877e-05
2.82322e-05
2.57281e-05
2.31955e-05
2.06572e-05
1.81396e-05
1.56717e-05
1.32857e-05
1.10156e-05
8.89667e-06
6.9636e-06
5.24788e-06
3.77525e-06
2.56245e-06
1.61414e-06
9.20592e-07
4.56788e-07
1.83623e-07
5.15396e-08
6.73917e-09
3.9381e-11
4.54736e-11
7.77573e-09
5.93868e-08
2.11206e-07
5.2438e-07
1.05475e-06
1.84595e-06
2.92553e-06
4.30364e-06
5.97415e-06
7.91712e-06
1.01022e-05
1.24921e-05
1.50457e-05
1.77209e-05
2.04764e-05
2.32734e-05
2.60762e-05
2.88528e-05
3.1575e-05
3.42185e-05
3.67623e-05
3.9189e-05
4.14839e-05
4.36352e-05
4.5633e-05
4.74699e-05
4.91398e-05
5.06384e-05
5.19624e-05
5.31098e-05
5.40794e-05
5.48708e-05
5.5484e-05
5.592e-05
5.61797e-05
5.62648e-05
5.61771e-05
5.59187e-05
5.54919e-05
5.48991e-05
5.41433e-05
5.32273e-05
5.21544e-05
5.09279e-05
4.95518e-05
4.80302e-05
4.63677e-05
4.45697e-05
4.26423e-05
4.05923e-05
3.84278e-05
3.61582e-05
3.37944e-05
3.13493e-05
2.8838e-05
2.62779e-05
2.36893e-05
2.10955e-05
1.85233e-05
1.60022e-05
1.35649e-05
1.12462e-05
9.08221e-06
7.10816e-06
5.35622e-06
3.8527e-06
2.61465e-06
1.64677e-06
9.39043e-07
4.65868e-07
1.87244e-07
5.25492e-08
6.87056e-09
4.0148e-11
4.71167e-11
8.05634e-09
6.15314e-08
2.18847e-07
5.43398e-07
1.09311e-06
1.9133e-06
3.03251e-06
4.46124e-06
6.19294e-06
8.20665e-06
1.04704e-05
1.29451e-05
1.55877e-05
1.83537e-05
2.12001e-05
2.40861e-05
2.69745e-05
2.98318e-05
3.2629e-05
3.53406e-05
3.79454e-05
4.04253e-05
4.27656e-05
4.49542e-05
4.69816e-05
4.88403e-05
5.05248e-05
5.20309e-05
5.33559e-05
5.44982e-05
5.5457e-05
5.62325e-05
5.68252e-05
5.72365e-05
5.74679e-05
5.75215e-05
5.73997e-05
5.71049e-05
5.66398e-05
5.60074e-05
5.52106e-05
5.42528e-05
5.31374e-05
5.18681e-05
5.04488e-05
4.88839e-05
4.71781e-05
4.53368e-05
4.33661e-05
4.12729e-05
3.90653e-05
3.67527e-05
3.43459e-05
3.18579e-05
2.93037e-05
2.67008e-05
2.40697e-05
2.14339e-05
1.88202e-05
1.62587e-05
1.37823e-05
1.14265e-05
9.22778e-06
7.22197e-06
5.44181e-06
3.91407e-06
2.65611e-06
1.67273e-06
9.53749e-07
4.73108e-07
1.90132e-07
5.33538e-08
6.9752e-09
4.07586e-11
4.87944e-11
8.34283e-09
6.37211e-08
2.26648e-07
5.62816e-07
1.13227e-06
1.98199e-06
3.1415e-06
4.62155e-06
6.41504e-06
8.49978e-06
1.08421e-05
1.34008e-05
1.61305e-05
1.89847e-05
2.19181e-05
2.48882e-05
2.78559e-05
3.07867e-05
3.36502e-05
3.64206e-05
3.90758e-05
4.15976e-05
4.39713e-05
4.61849e-05
4.8229e-05
5.00965e-05
5.17824e-05
5.3283e-05
5.4596e-05
5.57206e-05
5.66566e-05
5.74046e-05
5.79662e-05
5.83427e-05
5.85368e-05
5.8551e-05
5.83882e-05
5.80512e-05
5.75434e-05
5.6868e-05
5.60283e-05
5.50281e-05
5.3871e-05
5.25609e-05
5.11019e-05
4.94985e-05
4.77555e-05
4.58782e-05
4.38727e-05
4.1746e-05
3.95059e-05
3.71618e-05
3.47244e-05
3.22065e-05
2.96229e-05
2.69912e-05
2.43317e-05
2.16679e-05
1.90266e-05
1.6438e-05
1.39354e-05
1.15543e-05
9.33169e-06
7.30378e-06
5.50376e-06
3.95875e-06
2.68646e-06
1.69181e-06
9.64586e-07
4.78452e-07
1.92263e-07
5.39475e-08
7.05234e-09
4.12084e-11
5.05344e-11
8.63994e-09
6.59923e-08
2.34742e-07
5.8296e-07
1.17288e-06
2.05317e-06
3.25433e-06
4.78721e-06
6.644e-06
8.8011e-06
1.12228e-05
1.38656e-05
1.66817e-05
1.96221e-05
2.26393e-05
2.56887e-05
2.87298e-05
3.17265e-05
3.46478e-05
3.74668e-05
4.01614e-05
4.27132e-05
4.51074e-05
4.73323e-05
4.93791e-05
5.12412e-05
5.2914e-05
5.43947e-05
5.56816e-05
5.67747e-05
5.76744e-05
5.83824e-05
5.89007e-05
5.92313e-05
5.9378e-05
5.93439e-05
5.91322e-05
5.87466e-05
5.81908e-05
5.74685e-05
5.65837e-05
5.55401e-05
5.43418e-05
5.29929e-05
5.14976e-05
4.98606e-05
4.80866e-05
4.61809e-05
4.41496e-05
4.19994e-05
3.97381e-05
3.73747e-05
3.49197e-05
3.23857e-05
2.97872e-05
2.71413e-05
2.44683e-05
2.17914e-05
1.91372e-05
1.65358e-05
1.40204e-05
1.16267e-05
9.39165e-06
7.35187e-06
5.5408e-06
3.98589e-06
2.70514e-06
1.70368e-06
9.71378e-07
4.81817e-07
1.93608e-07
5.4322e-08
7.1009e-09
4.1491e-11
5.23669e-11
8.95284e-09
6.83848e-08
2.43269e-07
6.04185e-07
1.21567e-06
2.12811e-06
3.37294e-06
4.96103e-06
6.88363e-06
9.11542e-06
1.16184e-05
1.43464e-05
1.72488e-05
2.0274e-05
2.33722e-05
2.64965e-05
2.96048e-05
3.26598e-05
3.56294e-05
3.84865e-05
4.12084e-05
4.37769e-05
4.61775e-05
4.8399e-05
5.04331e-05
5.22739e-05
5.39177e-05
5.53625e-05
5.66076e-05
5.76537e-05
5.85024e-05
5.91563e-05
5.96179e-05
5.98903e-05
5.99785e-05
5.9886e-05
5.96168e-05
5.91752e-05
5.85655e-05
5.77921e-05
5.68591e-05
5.5771e-05
5.45318e-05
5.31461e-05
5.16182e-05
4.99526e-05
4.81542e-05
4.62283e-05
4.41806e-05
4.20177e-05
3.97471e-05
3.73775e-05
3.4919e-05
3.23835e-05
2.97854e-05
2.71413e-05
2.44707e-05
2.17966e-05
1.91452e-05
1.65462e-05
1.40326e-05
1.16397e-05
9.40464e-06
7.36396e-06
5.55131e-06
3.99436e-06
2.71142e-06
1.7079e-06
9.73893e-07
4.83094e-07
1.94125e-07
5.44659e-08
7.11947e-09
4.15983e-11
5.43244e-11
9.28711e-09
7.09415e-08
2.52385e-07
6.26877e-07
1.26139e-06
2.20813e-06
3.49944e-06
5.14601e-06
7.13793e-06
9.4478e-06
1.20349e-05
1.485e-05
1.78394e-05
2.09486e-05
2.4125e-05
2.73197e-05
3.04888e-05
3.35937e-05
3.66015e-05
3.94846e-05
4.22205e-05
4.47912e-05
4.71825e-05
4.9384e-05
5.13883e-05
5.31903e-05
5.47874e-05
5.61785e-05
5.73644e-05
5.83466e-05
5.91279e-05
5.97121e-05
6.01018e-05
6.03028e-05
6.03201e-05
6.01581e-05
5.98218e-05
5.93161e-05
5.86461e-05
5.78166e-05
5.68325e-05
5.56983e-05
5.44188e-05
5.29983e-05
5.14413e-05
4.97525e-05
4.79368e-05
4.59994e-05
4.39457e-05
4.17819e-05
3.9515e-05
3.71533e-05
3.47063e-05
3.21854e-05
2.96042e-05
2.69788e-05
2.43281e-05
2.16742e-05
1.90427e-05
1.64626e-05
1.39663e-05
1.1589e-05
9.36721e-06
7.33746e-06
5.5334e-06
3.98287e-06
2.70446e-06
1.70398e-06
9.71855e-07
4.82153e-07
1.93763e-07
5.43658e-08
7.10631e-09
4.15201e-11
5.64416e-11
9.64869e-09
7.3708e-08
2.62252e-07
6.51443e-07
1.31088e-06
2.29468e-06
3.63604e-06
5.34532e-06
7.41108e-06
9.80341e-06
1.24784e-05
1.53832e-05
1.84609e-05
2.16534e-05
2.49053e-05
2.81654e-05
3.1388e-05
3.45334e-05
3.7568e-05
4.04639e-05
4.31989e-05
4.57552e-05
4.81197e-05
5.02828e-05
5.2238e-05
5.39817e-05
5.55124e-05
5.68304e-05
5.79376e-05
5.88371e-05
5.95333e-05
6.00299e-05
6.03317e-05
6.04468e-05
6.03797e-05
6.01361e-05
5.97222e-05
5.91437e-05
5.84064e-05
5.75157e-05
5.6477e-05
5.52951e-05
5.39751e-05
5.25219e-05
5.09404e-05
4.9235e-05
4.74102e-05
4.5471e-05
4.34225e-05
4.12704e-05
3.90213e-05
3.66828e-05
3.42639e-05
3.1775e-05
2.9229e-05
2.66409e-05
2.40288e-05
2.14137e-05
1.88204e-05
1.6277e-05
1.3815e-05
1.1469e-05
9.27488e-06
7.26888e-06
5.48451e-06
3.94964e-06
2.68314e-06
1.69122e-06
9.64905e-07
4.78826e-07
1.92458e-07
5.40045e-08
7.05922e-09
4.12438e-11
5.8755e-11
1.00439e-08
7.67328e-08
2.73044e-07
6.7832e-07
1.36501e-06
2.38926e-06
3.78507e-06
5.56222e-06
7.70735e-06
1.01875e-05
1.29549e-05
1.59529e-05
1.91201e-05
2.23952e-05
2.57194e-05
2.90391e-05
3.2307e-05
3.54821e-05
3.85303e-05
4.14239e-05
4.41409e-05
4.66645e-05
4.89824e-05
5.10863e-05
5.29712e-05
5.46349e-05
5.60774e-05
5.73006e-05
5.8308e-05
5.91046e-05
5.96954e-05
6.0085e-05
6.02829e-05
6.02956e-05
6.01294e-05
5.97915e-05
5.92889e-05
5.86283e-05
5.78163e-05
5.68586e-05
5.57615e-05
5.45309e-05
5.31721e-05
5.16898e-05
5.00887e-05
4.83731e-05
4.65478e-05
4.46171e-05
4.25859e-05
4.04593e-05
3.82433e-05
3.59446e-05
3.35714e-05
3.11332e-05
2.86416e-05
2.61107e-05
2.35573e-05
2.10012e-05
1.84661e-05
1.59788e-05
1.35699e-05
1.12726e-05
9.1222e-06
7.15419e-06
5.40173e-06
3.89267e-06
2.64611e-06
1.66884e-06
9.526e-07
4.72904e-07
1.90131e-07
5.33604e-08
6.97552e-09
4.07538e-11
6.13029e-11
1.04792e-08
8.00665e-08
2.84945e-07
7.07962e-07
1.4247e-06
2.49344e-06
3.94894e-06
5.80008e-06
8.03107e-06
1.06053e-05
1.34704e-05
1.6565e-05
1.98233e-05
2.31797e-05
2.65722e-05
2.99446e-05
3.32478e-05
3.644e-05
3.94868e-05
4.23606e-05
4.50404e-05
4.75103e-05
4.97595e-05
5.17812e-05
5.35722e-05
5.51319e-05
5.64623e-05
5.75671e-05
5.84519e-05
5.91233e-05
5.9586e-05
5.98502e-05
5.99254e-05
5.98185e-05
5.9538e-05
5.90923e-05
5.84895e-05
5.7737e-05
5.68422e-05
5.5813e-05
5.46556e-05
5.33759e-05
5.19793e-05
5.0471e-05
4.88557e-05
4.71379e-05
4.53217e-05
4.34112e-05
4.14107e-05
3.93248e-05
3.71585e-05
3.49176e-05
3.26093e-05
3.02418e-05
2.78257e-05
2.53735e-05
2.29007e-05
2.04257e-05
1.79704e-05
1.55602e-05
1.32242e-05
1.09943e-05
8.90467e-06
6.9898e-06
5.28238e-06
3.81005e-06
2.59215e-06
1.63608e-06
9.34539e-07
4.64197e-07
1.86708e-07
5.2414e-08
6.85271e-09
4.00359e-11
6.41248e-11
1.09615e-08
8.37618e-08
2.98143e-07
7.40841e-07
1.49088e-06
2.60883e-06
4.13009e-06
6.06226e-06
8.38649e-06
1.10616e-05
1.40301e-05
1.7225e-05
2.05755e-05
2.40112e-05
2.74667e-05
3.08831e-05
3.42098e-05
3.74042e-05
4.0432e-05
4.32662e-05
4.58869e-05
4.82796e-05
5.04355e-05
5.23495e-05
5.40205e-05
5.54502e-05
5.66427e-05
5.76037e-05
5.83418e-05
5.88622e-05
5.91751e-05
5.92942e-05
5.92266e-05
5.89827e-05
5.85723e-05
5.80051e-05
5.72898e-05
5.64365e-05
5.54534e-05
5.4348e-05
5.31275e-05
5.17983e-05
5.03662e-05
4.88365e-05
4.72138e-05
4.55025e-05
4.37063e-05
4.18289e-05
3.98739e-05
3.78449e-05
3.57462e-05
3.35825e-05
3.13596e-05
2.90845e-05
2.67661e-05
2.44156e-05
2.20466e-05
1.96757e-05
1.73231e-05
1.50122e-05
1.27704e-05
1.06279e-05
8.61728e-06
6.77191e-06
5.12366e-06
3.69984e-06
2.51997e-06
1.59217e-06
9.10297e-07
4.52505e-07
1.82114e-07
5.11451e-08
6.68824e-09
3.90752e-11
6.72608e-11
1.14977e-08
8.7872e-08
3.12831e-07
7.77441e-07
1.56452e-06
2.73708e-06
4.33097e-06
6.35206e-06
8.77764e-06
1.15612e-05
1.46387e-05
1.79373e-05
2.138e-05
2.48918e-05
2.84032e-05
3.1853e-05
3.51889e-05
3.83681e-05
4.13566e-05
4.41286e-05
4.66655e-05
4.8955e-05
5.09903e-05
5.27688e-05
5.42918e-05
5.55635e-05
5.65902e-05
5.73816e-05
5.79447e-05
5.82888e-05
5.84324e-05
5.83833e-05
5.81535e-05
5.77549e-05
5.71987e-05
5.64962e-05
5.56592e-05
5.46971e-05
5.36191e-05
5.24339e-05
5.11491e-05
4.97717e-05
4.83076e-05
4.67624e-05
4.51405e-05
4.34458e-05
4.16818e-05
3.98516e-05
3.79578e-05
3.60034e-05
3.39913e-05
3.1925e-05
2.9809e-05
2.76487e-05
2.54514e-05
2.32263e-05
2.09852e-05
1.87426e-05
1.65164e-05
1.43281e-05
1.22027e-05
1.01684e-05
8.25604e-06
6.49736e-06
4.92318e-06