/*--------------------------------*- C++ -*----------------------------------*\
  =========                 |
  \\      /  F ield         | OpenFOAM: The Open Source CFD Toolbox
   \\    /   O peration     | Website:  https://openfoam.org
    \\  /    A nd           | Version:  12
     \\/     M anipulation  |
\*---------------------------------------------------------------------------*/
FoamFile
{
    format      ascii;
    class       surfaceScalarField;
    location    "1";
    object      phi;
}
// * * * * * * * * * * * * * * * * * * * * * * * * * * * * * * * * * * * * * //

dimensions      [0 3 -1 0 0 0 0];

internalField   nonuniform List<scalar> 
11100
(
-3.88929e-11
3.99894e-11
-3.43241e-11
-4.61324e-12
2.75542e-12
-3.70286e-11
7.15222e-11
-6.87494e-11
1.65632e-10
-9.4072e-11
2.8396e-10
-1.18302e-10
4.23464e-10
-1.39486e-10
5.81906e-10
-1.58424e-10
7.55821e-10
-1.73912e-10
9.42572e-10
-1.86742e-10
1.13896e-09
-1.96388e-10
1.34256e-09
-2.03601e-10
1.55071e-09
-2.08161e-10
1.7614e-09
-2.10691e-10
1.97251e-09
-2.11113e-10
2.18244e-09
-2.09933e-10
2.38956e-09
-2.07125e-10
2.59264e-09
-2.03082e-10
2.79043e-09
-1.97801e-10
2.98202e-09
-1.91592e-10
3.16647e-09
-1.84458e-10
3.3431e-09
-1.76632e-10
3.51121e-09
-1.68121e-10
3.67031e-09
-1.59105e-10
3.81989e-09
-1.49588e-10
3.95958e-09
-1.397e-10
4.08903e-09
-1.29445e-10
4.20793e-09
-1.18919e-10
4.31606e-09
-1.08123e-10
4.41316e-09
-9.71222e-11
4.49908e-09
-8.59156e-11
4.57362e-09
-7.455e-11
4.63664e-09
-6.30222e-11
4.68799e-09
-5.13641e-11
4.72757e-09
-3.95732e-11
4.75523e-09
-2.76733e-11
4.77091e-09
-1.56637e-11
4.77445e-09
-3.56458e-12
4.76585e-09
8.62113e-12
4.74496e-09
2.0871e-11
4.7118e-09
3.31754e-11
4.66628e-09
4.55083e-11
4.60844e-09
5.78518e-11
4.53825e-09
7.01729e-11
4.45583e-09
8.24445e-11
4.36118e-09
9.4624e-11
4.25453e-09
1.06673e-10
4.13597e-09
1.18538e-10
4.00583e-09
1.30169e-10
3.86432e-09
1.41495e-10
3.71189e-09
1.52451e-10
3.54892e-09
1.62951e-10
3.37605e-09
1.72906e-10
3.19381e-09
1.82211e-10
3.00309e-09
1.90754e-10
2.80466e-09
1.98406e-10
2.59967e-09
2.05029e-10
2.38918e-09
2.10465e-10
2.17467e-09
2.14548e-10
1.95756e-09
2.17091e-10
1.7397e-09
2.17895e-10
1.52296e-09
2.1674e-10
1.3096e-09
2.13392e-10
1.102e-09
2.076e-10
9.02936e-10
1.99108e-10
7.15287e-10
1.87656e-10
5.42322e-10
1.73002e-10
3.8736e-10
1.54976e-10
2.5391e-10
1.33485e-10
1.45248e-10
1.08685e-10
6.42179e-11
8.1061e-11
1.24783e-11
5.17685e-11
-1.05956e-11
2.31062e-11
-1.0384e-11
-1.78761e-13
-1.03786e-11
1.66224e-11
2.33275e-11
7.95474e-11
-6.76031e-11
2.06721e-10
-1.64196e-10
3.96156e-10
-2.58194e-10
6.48217e-10
-3.46111e-10
9.57633e-10
-4.27709e-10
1.31792e-09
-4.99757e-10
1.72204e-09
-5.62531e-10
2.16291e-09
-6.14776e-10
2.63367e-09
-6.57491e-10
3.12776e-09
-6.90476e-10
3.63906e-09
-7.14902e-10
4.16192e-09
-7.31017e-10
4.69116e-09
-7.39937e-10
5.22212e-09
-7.42075e-10
5.7506e-09
-7.38407e-10
6.27284e-09
-7.29372e-10
6.78554e-09
-7.15782e-10
7.28577e-09
-6.98039e-10
7.77098e-09
-6.76798e-10
8.23892e-09
-6.52402e-10
8.68764e-09
-6.25363e-10
9.11548e-09
-5.95958e-10
9.52095e-09
-5.64582e-10
9.9028e-09
-5.31446e-10
1.02599e-08
-4.96846e-10
1.05914e-08
-4.60938e-10
1.08964e-08
-4.23937e-10
1.11743e-08
-3.85954e-10
1.14243e-08
-3.4714e-10
1.16459e-08
-3.0757e-10
1.18387e-08
-2.6735e-10
1.20022e-08
-2.26531e-10
1.2136e-08
-1.85188e-10
1.22398e-08
-1.43358e-10
1.23133e-08
-1.01098e-10
1.2356e-08
-5.84447e-11
1.23679e-08
-1.54507e-11
1.23487e-08
2.7841e-11
1.22982e-08
7.13694e-11
1.22163e-08
1.15074e-10
1.21029e-08
1.58877e-10
1.19581e-08
2.02694e-10
1.17819e-08
2.46418e-10
1.15744e-08
2.89932e-10
1.13359e-08
3.33097e-10
1.10668e-08
3.75756e-10
1.07676e-08
4.17725e-10
1.0439e-08
4.58802e-10
1.00818e-08
4.98751e-10
9.69693e-09
5.37313e-10
9.28567e-09
5.74194e-10
8.84953e-09
6.09072e-10
8.39014e-09
6.41583e-10
7.90959e-09
6.71333e-10
7.4101e-09
6.97885e-10
6.89439e-09
7.20766e-10
6.36538e-09
7.39457e-10
5.82655e-09
7.53404e-10
5.28163e-09
7.62008e-10
4.73492e-09
7.64632e-10
4.19105e-09
7.60608e-10
3.65524e-09
7.49239e-10
3.13302e-09
7.29826e-10
2.63049e-09
7.0167e-10
2.15402e-09
6.64142e-10
1.71034e-09
6.16714e-10
1.30626e-09
5.59072e-10
9.48527e-10
4.91248e-10
6.43367e-10
4.13866e-10
3.95995e-10
3.28462e-10
2.09764e-10
2.38024e-10
8.51093e-11
1.47795e-10
1.8455e-11
6.65073e-11
8.08153e-12
6.03558e-11
-3.70663e-11
1.99004e-10
-2.06306e-10
4.30947e-10
-3.96151e-10
7.51702e-10
-5.78972e-10
1.15515e-09
-7.49559e-10
1.63321e-09
-9.05774e-10
2.17789e-09
-1.04442e-09
2.78007e-09
-1.16471e-09
3.43101e-09
-1.26571e-09
4.1217e-09
-1.34818e-09
4.84374e-09
-1.41251e-09
5.58892e-09
-1.46009e-09
6.34977e-09
-1.49187e-09
7.11922e-09
-1.50939e-09
7.89091e-09
-1.51377e-09
8.659e-09
-1.50649e-09
9.41828e-09
-1.48865e-09
1.0164e-08
-1.46154e-09
1.08921e-08
-1.42614e-09
1.15989e-08
-1.38353e-09
1.2281e-08
-1.33455e-09
1.29357e-08
-1.28007e-09
1.35605e-08
-1.22075e-09
1.41532e-08
-1.15728e-09
1.47119e-08
-1.09017e-09
1.5235e-08
-1.01994e-09
1.57211e-08
-9.46989e-10
1.61688e-08
-8.7168e-10
1.65771e-08
-7.94298e-10
1.69451e-08
-7.15111e-10
1.72719e-08
-6.34317e-10
1.75566e-08
-5.52103e-10
1.77987e-08
-4.68609e-10
1.79974e-08
-3.83968e-10
1.81524e-08
-2.98286e-10
1.82629e-08
-2.11671e-10
1.83287e-08
-1.24216e-10
1.83493e-08
-3.60269e-11
1.83244e-08
5.27925e-11
1.82536e-08
1.42118e-10
1.81369e-08
2.31815e-10
1.7974e-08
3.2172e-10
1.77651e-08
4.11648e-10
1.75101e-08
5.01382e-10
1.72094e-08
5.9067e-10
1.68633e-08
6.79221e-10
1.64723e-08
7.66703e-10
1.60373e-08
8.52737e-10
1.55592e-08
9.36892e-10
1.50393e-08
1.01869e-09
1.44791e-08
1.09758e-09
1.38803e-08
1.17298e-09
1.32452e-08
1.24421e-09
1.25762e-08
1.31054e-09
1.18764e-08
1.37118e-09
1.1149e-08
1.42526e-09
1.03979e-08
1.47184e-09
9.62747e-09
1.50991e-09
8.84251e-09
1.53839e-09
8.04837e-09
1.55615e-09
7.25104e-09
1.56199e-09
6.45696e-09
1.55469e-09
5.67325e-09
1.53299e-09
4.90741e-09
1.49567e-09
4.16754e-09
1.44157e-09
3.46202e-09
1.36967e-09
2.7996e-09
1.27916e-09
2.18903e-09
1.16965e-09
1.63899e-09
1.04132e-09
1.15767e-09
8.95206e-10
7.52553e-10
7.33603e-10
4.29981e-10
5.60622e-10
1.9471e-10
3.83093e-10
5.0155e-11
2.11092e-10
5.82415e-11
8.25933e-11
-1.19686e-10
2.92437e-10
-4.16182e-10
6.20848e-10
-7.24579e-10
1.05862e-09
-1.01676e-09
1.59507e-09
-1.28602e-09
2.219e-09
-1.52971e-09
2.91962e-09
-1.74504e-09
3.68597e-09
-1.93107e-09
4.50757e-09
-2.08731e-09
5.37406e-09
-2.21468e-09
6.27569e-09
-2.31413e-09
7.20309e-09
-2.38749e-09
8.14758e-09
-2.43636e-09
9.10106e-09
-2.46286e-09
1.00561e-08
-2.4688e-09
1.10059e-08
-2.45628e-09
1.19443e-08
-2.42705e-09
1.28657e-08
-2.38302e-09
1.37654e-08
-2.32576e-09
1.46387e-08
-2.25689e-09
1.54819e-08
-2.17775e-09
1.62915e-08
-2.08968e-09
1.70645e-08
-1.99375e-09
1.77983e-08
-1.89103e-09
1.84904e-08
-1.78235e-09
1.9139e-08
-1.66853e-09
1.97422e-08
-1.55019e-09
2.02985e-08
-1.42794e-09
2.08064e-08
-1.30223e-09
2.12648e-08
-1.17349e-09
2.16725e-08
-1.04205e-09
2.20286e-08
-9.08201e-10
2.23322e-08
-7.72185e-10
2.25824e-08
-6.34215e-10
2.27786e-08
-4.94471e-10
2.292e-08
-3.53126e-10
2.30062e-08
-2.10343e-10
2.30364e-08
-6.62925e-11
2.30104e-08
7.88462e-11
2.29276e-08
2.24869e-10
2.27879e-08
3.71546e-10
2.2591e-08
5.1861e-10
2.23369e-08
6.65749e-10
2.20257e-08
8.12603e-10
2.16576e-08
9.58751e-10
2.12331e-08
1.10371e-09
2.07529e-08
1.24694e-09
2.02179e-08
1.3878e-09
1.96292e-08
1.52558e-09
1.89884e-08
1.6595e-09
1.82973e-08
1.78867e-09
1.75582e-08
1.9121e-09
1.67737e-08
2.02873e-09
1.59468e-08
2.13738e-09
1.50813e-08
2.23675e-09
1.41811e-08
2.32548e-09
1.32509e-08
2.40206e-09
1.22959e-08
2.46491e-09
1.13219e-08
2.51237e-09
1.03354e-08
2.54266e-09
9.34343e-09
2.55399e-09
8.35363e-09
2.54449e-09
7.37434e-09
2.51232e-09
6.41435e-09
2.45567e-09
5.48308e-09
2.37287e-09
4.59032e-09
2.26244e-09
3.74626e-09
2.12325e-09
2.96127e-09
1.95465e-09
2.24589e-09
1.75673e-09
1.6106e-09
1.53051e-09
1.06577e-09
1.27846e-09
6.21565e-10
1.00484e-09
2.88228e-10
7.16461e-10
7.65203e-11
4.22829e-10
1.34767e-10
9.97469e-11
-2.19448e-10
3.63261e-10
-6.79712e-10
7.70451e-10
-1.13178e-09
1.30545e-09
-1.55178e-09
1.95302e-09
-1.9336e-09
2.6986e-09
-2.27529e-09
3.52855e-09
-2.575e-09
4.42986e-09
-2.83239e-09
5.3903e-09
-3.04776e-09
6.39821e-09
-3.2226e-09
7.44268e-09
-3.35861e-09
8.51345e-09
-3.45826e-09
9.601e-09
-3.52391e-09
1.06965e-08
-3.55839e-09
1.1792e-08
-3.56424e-09
1.28799e-08
-3.54425e-09
1.39538e-08
-3.50091e-09
1.50075e-08
-3.43674e-09
1.60357e-08
-3.35398e-09
1.70337e-08
-3.25482e-09
1.7997e-08
-3.14113e-09
1.89221e-08
-3.01476e-09
1.98056e-08
-2.87722e-09
2.06445e-08
-2.72996e-09
2.14363e-08
-2.5742e-09
2.21788e-08
-2.41103e-09
2.287e-08
-2.24136e-09
2.35081e-08
-2.06602e-09
2.40915e-08
-1.88566e-09
2.46189e-08
-1.70087e-09
2.5089e-08
-1.51211e-09
2.55005e-08
-1.3198e-09
2.58526e-08
-1.12428e-09
2.61443e-08
-9.25833e-10
2.63745e-08
-7.24727e-10
2.65426e-08
-5.21202e-10
2.66477e-08
-3.1549e-10
2.66893e-08
-1.07835e-10
2.66666e-08
1.01507e-10
2.65792e-08
3.12241e-10
2.64268e-08
5.24034e-10
2.62089e-08
7.36497e-10
2.59255e-08
9.49179e-10
2.55765e-08
1.16155e-09
2.51623e-08
1.37301e-09
2.46831e-08
1.58285e-09
2.41398e-08
1.79027e-09
2.35332e-08
1.99435e-09
2.28648e-08
2.19408e-09
2.2136e-08
2.3883e-09
2.13489e-08
2.57573e-09
2.0506e-08
2.75498e-09
1.96103e-08
2.92449e-09
1.86651e-08
3.08257e-09
1.76745e-08
3.22741e-09
1.66429e-08
3.35705e-09
1.55756e-08
3.46938e-09
1.44783e-08
3.56219e-09
1.33576e-08
3.63315e-09
1.22204e-08
3.67981e-09
1.10748e-08
3.6997e-09
9.92899e-09
3.69026e-09
8.79236e-09
3.64898e-09
7.67463e-09
3.57341e-09
6.58628e-09
3.46125e-09
5.53828e-09
3.31046e-09
4.54221e-09
3.11936e-09
3.61003e-09
2.88684e-09
2.75427e-09
2.61252e-09
1.9878e-09
2.297e-09
1.32412e-09
1.94216e-09
7.77426e-10
1.55157e-09
3.62727e-10
1.13119e-09
9.68216e-11
6.88763e-10
2.31593e-10
1.12829e-10
-3.32289e-10
4.16672e-10
-9.83563e-10
8.85618e-10
-1.60074e-09
1.49852e-09
-2.16469e-09
2.23613e-09
-2.67123e-09
3.08073e-09
-3.11989e-09
4.01603e-09
-3.51032e-09
5.02697e-09
-3.84334e-09
6.09958e-09
-4.12038e-09
7.2209e-09
-4.34392e-09
8.37894e-09
-4.51666e-09
9.56262e-09
-4.64194e-09
1.07618e-08
-4.72306e-09
1.1967e-08
-4.76366e-09
1.31699e-08
-4.76715e-09
1.43628e-08
-4.73711e-09
1.55386e-08
-4.67677e-09
1.66913e-08
-4.58939e-09
1.78152e-08
-4.47785e-09
1.89053e-08
-4.34497e-09
1.99574e-08
-4.19319e-09
2.09674e-08
-4.02485e-09
2.19322e-08
-3.84194e-09
2.28485e-08
-3.64632e-09
2.37139e-08
-3.43954e-09
2.45258e-08
-3.22303e-09
2.52824e-08
-2.99795e-09
2.59818e-08
-2.76536e-09
2.66222e-08
-2.52609e-09
2.72022e-08
-2.2809e-09
2.77205e-08
-2.03038e-09
2.81757e-08
-1.77506e-09
2.85668e-08
-1.51534e-09
2.88926e-08
-1.25162e-09
2.91521e-08
-9.84205e-10
2.93443e-08
-7.13408e-10
2.94683e-08
-4.39521e-10
2.95233e-08
-1.62855e-10
2.95086e-08
1.16257e-10
2.94234e-08
3.97432e-10
2.92672e-08
6.80233e-10
2.90395e-08
9.64144e-10
2.87402e-08
1.24857e-09
2.83689e-08
1.53279e-09
2.79259e-08
1.81602e-09
2.74115e-08
2.09729e-09
2.68262e-08
2.37555e-09
2.6171e-08
2.64956e-09
2.54472e-08
2.91795e-09
2.46562e-08
3.1792e-09
2.38004e-08
3.43159e-09
2.28821e-08
3.67325e-09
2.19045e-08
3.90212e-09
2.08711e-08
4.11597e-09
1.97862e-08
4.31238e-09
1.86544e-08
4.48878e-09
1.74815e-08
4.6424e-09
1.62733e-08
4.77033e-09
1.5037e-08
4.86952e-09
1.378e-08
4.93681e-09
1.25108e-08
4.96894e-09
1.12384e-08
4.96261e-09
9.97292e-09
4.91454e-09
8.72482e-09
4.82152e-09
7.50563e-09
4.68048e-09
6.32746e-09
4.48863e-09
5.20329e-09
4.24356e-09
4.1468e-09
3.94335e-09
3.17253e-09
3.58682e-09
2.29588e-09
3.17367e-09
1.53323e-09
2.70484e-09
9.02074e-10
2.18273e-09
4.21527e-10
1.61176e-09
1.12609e-10
9.97709e-10
3.44206e-10
1.23179e-10
-4.55476e-10
4.57705e-10
-1.31809e-09
9.7456e-10
-2.11761e-09
1.64893e-09
-2.83906e-09
2.45835e-09
-3.48066e-09
3.3824e-09
-4.04394e-09
4.40242e-09
-4.53036e-09
5.50142e-09
-4.94234e-09
6.66383e-09
-5.2828e-09
7.8754e-09
-5.5555e-09
9.12314e-09
-5.76441e-09
1.03952e-08
-5.91401e-09
1.16808e-08
-6.00868e-09
1.29703e-08
-6.05309e-09
1.42547e-08
-6.05163e-09
1.55263e-08
-6.00874e-09
1.67781e-08
-5.92851e-09
1.80036e-08
-5.81496e-09
1.91975e-08
-5.6717e-09
2.03547e-08
-5.50217e-09
2.14709e-08
-5.30943e-09
2.25424e-08
-5.09631e-09
2.35657e-08
-4.86528e-09
2.4538e-08
-4.6186e-09
2.54566e-08
-4.35818e-09
2.63193e-08
-4.08574e-09
2.71241e-08
-3.80269e-09
2.7869e-08
-3.5103e-09
2.85525e-08
-3.20958e-09
2.9173e-08
-2.90142e-09
2.97291e-08
-2.58651e-09
3.02195e-08
-2.26547e-09
3.0643e-08
-1.93879e-09
3.09982e-08
-1.60688e-09
3.12842e-08
-1.27013e-09
3.14996e-08
-9.28882e-10
3.16436e-08
-5.83471e-10
3.1715e-08
-2.34264e-10
3.17129e-08
1.18344e-10
3.16364e-08
4.7389e-10
3.14849e-08
8.31839e-10
3.12574e-08
1.19155e-09
3.09537e-08
1.55228e-09
3.05734e-08
1.91315e-09
3.01163e-08
2.27312e-09
2.95826e-08
2.63101e-09
2.89727e-08
2.98546e-09
2.82873e-08
3.33492e-09
2.75276e-08
3.67764e-09
2.66951e-08
4.01168e-09
2.57919e-08
4.33488e-09
2.48202e-08
4.64485e-09
2.37834e-08
4.93901e-09
2.26848e-08
5.21451e-09
2.15289e-08
5.46831e-09
2.03205e-08
5.69717e-09
1.90654e-08
5.89759e-09
1.77698e-08
6.06593e-09
1.6441e-08
6.19835e-09
1.50869e-08
6.29086e-09
1.37165e-08
6.33937e-09
1.23394e-08
6.33973e-09
1.09662e-08
6.28775e-09
9.60845e-09
6.17932e-09
8.27851e-09
6.01045e-09
6.98975e-09
5.7774e-09
5.7566e-09
5.47674e-09
4.59437e-09
5.10559e-09
3.51958e-09
4.66163e-09
2.54981e-09
4.14345e-09
1.7041e-09
3.55057e-09
1.00298e-09
2.88389e-09
4.68469e-10
2.14629e-09
1.24917e-10
1.34129e-09
4.69128e-10
1.31556e-10
-5.87039e-10
4.90109e-10
-1.67664e-09
1.04461e-09
-2.67212e-09
1.76762e-09
-3.56207e-09
2.63418e-09
-4.34723e-09
3.62158e-09
-5.03134e-09
4.70918e-09
-5.61797e-09
5.87824e-09
-6.1114e-09
7.11174e-09
-6.51631e-09
8.39428e-09
-6.83804e-09
9.71193e-09
-7.08207e-09
1.10522e-08
-7.25423e-09
1.24037e-08
-7.36022e-09
1.37564e-08
-7.40586e-09
1.51015e-08
-7.39667e-09
1.64308e-08
-7.33808e-09
1.77374e-08
-7.23514e-09
1.90151e-08
-7.09267e-09
2.02585e-08
-6.91507e-09
2.14628e-08
-6.70645e-09
2.26238e-08
-6.47048e-09
2.3738e-08
-6.21052e-09
2.48022e-08
-5.9295e-09
2.58137e-08
-5.63007e-09
2.677e-08
-5.31449e-09
2.7669e-08
-4.98474e-09
2.85088e-08
-4.64247e-09
2.92876e-08
-4.28912e-09
3.00039e-08
-3.92585e-09
3.06561e-08
-3.55363e-09
3.12428e-08
-3.17326e-09
3.17627e-08
-2.78539e-09
3.22145e-08
-2.39053e-09
3.25967e-08
-1.98915e-09
3.29082e-08
-1.58163e-09
3.31477e-08
-1.16832e-09
3.33138e-08
-7.49588e-10
3.34053e-08
-3.25827e-10
3.34212e-08
1.02529e-10
3.33601e-08
5.34952e-10
3.32211e-08
9.70827e-10
3.30033e-08
1.4094e-09
3.27058e-08
1.84979e-09
3.2328e-08
2.29092e-09
3.18696e-08
2.73157e-09
3.13303e-08
3.17029e-09
3.07103e-08
3.60541e-09
3.00102e-08
4.03505e-09
2.92308e-08
4.45709e-09
2.83733e-08
4.86913e-09
2.74397e-08
5.26852e-09
2.64322e-08
5.65237e-09
2.53537e-08
6.01747e-09
2.42079e-08
6.36038e-09
2.29988e-08
6.67736e-09
2.17316e-08
6.96442e-09
2.04119e-08
7.21732e-09
1.90462e-08
7.43158e-09
1.76421e-08
7.6025e-09
1.62078e-08
7.72518e-09
1.47526e-08
7.79459e-09
1.32868e-08
7.80558e-09
1.18216e-08
7.75295e-09
1.03694e-08
7.63153e-09
8.94366e-09
7.43624e-09
7.55891e-09
7.16216e-09
6.23096e-09
6.80472e-09
4.97684e-09
6.35973e-09
3.8149e-09
5.8236e-09
2.76495e-09
5.19341e-09
1.84827e-09
4.46728e-09
1.08763e-09
3.64454e-09
5.07801e-10
2.72615e-09
1.35334e-10
1.71378e-09
6.04467e-10
1.38488e-10
-7.25531e-10
5.16533e-10
-2.05469e-09
1.10136e-09
-3.25696e-09
1.86346e-09
-4.32417e-09
2.77579e-09
-5.25957e-09
3.81374e-09
-6.06929e-09
4.95494e-09
-6.75918e-09
6.17916e-09
-7.33561e-09
7.46811e-09
-7.80527e-09
8.80537e-09
-8.17529e-09
1.01762e-08
-8.4529e-09
1.15674e-08
-8.64548e-09
1.29675e-08
-8.76026e-09
1.4366e-08
-8.80437e-09
1.57539e-08
-8.7846e-09
1.71233e-08
-8.70749e-09
1.84673e-08
-8.57913e-09
1.97799e-08
-8.40526e-09
2.10559e-08
-8.19107e-09
2.22908e-08
-7.9414e-09
2.34809e-08
-7.66055e-09
2.46228e-08
-7.3524e-09
2.57136e-08
-7.02036e-09
2.6751e-08
-6.66743e-09
2.77327e-08
-6.2962e-09
2.86568e-08
-5.90888e-09
2.95217e-08
-5.50733e-09
3.03257e-08
-5.09312e-09
3.10673e-08
-4.6675e-09
3.17452e-08
-4.23151e-09
3.23579e-08
-3.78596e-09
3.2904e-08
-3.33153e-09
3.33822e-08
-2.8687e-09
3.3791e-08
-2.39793e-09
3.41289e-08
-1.91956e-09
3.43945e-08
-1.43394e-09
3.45864e-08
-9.41401e-10
3.47028e-08
-4.42334e-10
3.47426e-08
6.28131e-11
3.4704e-08
5.73476e-10
3.45859e-08
1.08898e-09
3.43868e-08
1.60847e-09
3.41057e-08
2.13094e-09
3.37414e-08
2.65515e-09
3.32934e-08
3.17965e-09
3.27609e-08
3.70275e-09
3.21439e-08
4.22248e-09
3.14423e-08
4.7366e-09
3.06568e-08
5.24257e-09
2.97884e-08
5.73755e-09
2.88386e-08
6.21837e-09
2.78094e-08
6.68156e-09
2.67036e-08
7.12331e-09
2.55244e-08
7.53947e-09
2.42762e-08
7.92559e-09
2.29638e-08
8.27687e-09
2.15929e-08
8.58822e-09
2.01703e-08
8.85425e-09
1.87035e-08
9.06931e-09
1.72012e-08
9.22749e-09
1.56731e-08
9.3227e-09
1.413e-08
9.34866e-09
1.2584e-08
9.29901e-09
1.10482e-08
9.16735e-09
9.53716e-09
8.94732e-09
8.06663e-09
8.63269e-09
6.65389e-09
8.2175e-09
5.31749e-09
7.69614e-09
4.07762e-09
7.0635e-09
2.95588e-09
6.31517e-09
1.97568e-09
5.44751e-09
1.16221e-09
4.45805e-09
5.42089e-10
3.3463e-09
1.44158e-10
2.11175e-09
7.48629e-10
1.44452e-10
-8.69985e-10
5.3894e-10
-2.44918e-09
1.14895e-09
-3.86697e-09
1.94306e-09
-5.11827e-09
2.89241e-09
-6.20892e-09
3.9707e-09
-7.14757e-09
5.15405e-09
-7.94255e-09
6.42093e-09
-8.60249e-09
7.75196e-09
-9.13631e-09
9.12984e-09
-9.55316e-09
1.05392e-08
-9.86223e-09
1.19664e-08
-1.00727e-08
1.33995e-08
-1.01934e-08
1.48281e-08
-1.0233e-08
1.62433e-08
-1.01997e-08
1.76372e-08
-1.01014e-08
1.90031e-08
-9.94507e-09
2.03354e-08
-9.73758e-09
2.16293e-08
-9.48498e-09
2.28807e-08
-9.19284e-09
2.40863e-08
-8.86609e-09
2.52431e-08
-8.50918e-09
2.63486e-08
-8.12592e-09
2.74009e-08
-7.7197e-09
2.83981e-08
-7.29336e-09
2.93385e-08
-6.84934e-09
3.02208e-08
-6.38962e-09
3.10435e-08
-5.91586e-09
3.18054e-08
-5.42935e-09
3.2505e-08
-4.93115e-09
3.31411e-08
-4.42204e-09
3.37122e-08
-3.90262e-09
3.42168e-08
-3.37333e-09
3.46534e-08
-2.83454e-09
3.50204e-08
-2.28652e-09
3.53159e-08
-1.72953e-09
3.55384e-08
-1.16385e-09
3.56859e-08
-5.89826e-10
3.57566e-08
-7.87533e-12
3.57486e-08
5.81433e-10
3.56602e-08
1.17739e-09
3.54896e-08
1.77907e-09
3.52352e-08
2.38535e-09
3.48955e-08
2.99484e-09
3.44693e-08
3.60588e-09
3.39555e-08
4.21652e-09
3.33535e-08
4.82449e-09
3.26629e-08
5.42717e-09
3.18839e-08
6.0216e-09
3.1017e-08
6.60445e-09
3.00634e-08
7.17202e-09
2.90247e-08
7.72021e-09
2.79035e-08
8.24455e-09
2.67029e-08
8.74014e-09
2.54267e-08
9.20173e-09
2.408e-08
9.62365e-09
2.26683e-08
9.99989e-09
2.11985e-08
1.0324e-08
1.96784e-08
1.05894e-08
1.8117e-08
1.07889e-08
1.65244e-08
1.09153e-08
1.4912e-08
1.09611e-08
1.32926e-08
1.09185e-08
1.16802e-08
1.07797e-08
1.00905e-08
1.05371e-08
8.54044e-09
1.01827e-08
7.04872e-09
9.70924e-09
5.63555e-09
9.10933e-09
4.32284e-09
8.37624e-09
3.13423e-09
7.50379e-09
2.09502e-09
6.48674e-09
1.23214e-09
5.32094e-09
5.74532e-10
4.00394e-09
1.52718e-10
2.53358e-09
9.01351e-10
1.49788e-10
-1.01978e-09
5.58618e-10
-2.858e-09
1.19006e-09
-4.49842e-09
2.01076e-09
-5.93898e-09
2.99013e-09
-7.1883e-09
4.10029e-09
-8.25773e-09
5.31601e-09
-9.15827e-09
6.61457e-09
-9.90106e-09
7.97569e-09
-1.04974e-08
9.38133e-09
-1.09588e-08
1.08156e-08
-1.12965e-08
1.22646e-08
-1.15217e-08
1.37164e-08
-1.16451e-08
1.51604e-08
-1.16771e-08
1.6588e-08
-1.16273e-08
1.79916e-08
-1.15049e-08
1.93649e-08
-1.13184e-08
2.07027e-08
-1.10754e-08
2.20008e-08
-1.0783e-08
2.32556e-08
-1.04476e-08
2.44641e-08
-1.00747e-08
2.56242e-08
-9.66924e-09
2.67338e-08
-9.23553e-09
2.77914e-08
-8.77724e-09
2.87954e-08
-8.29745e-09
2.97448e-08
-7.79875e-09
3.06384e-08
-7.2832e-09
3.14751e-08
-6.75249e-09
3.22536e-08
-6.20789e-09
3.29728e-08
-5.65037e-09
3.36314e-08
-5.08061e-09
3.42279e-08
-4.49912e-09
3.47607e-08
-3.90617e-09
3.52282e-08
-3.302e-09
3.56284e-08
-2.68673e-09
3.59594e-08
-2.0605e-09
3.6219e-08
-1.42346e-09
3.6405e-08
-7.75848e-10
3.65152e-08
-1.18023e-10
3.65471e-08
5.49486e-10
3.64985e-08
1.22597e-09
3.63671e-08
1.91046e-09
3.61508e-08
2.60174e-09
3.58473e-08
3.29827e-09
3.5455e-08
3.99821e-09
3.49722e-08
4.69934e-09
3.43976e-08
5.39907e-09
3.37304e-08
6.0944e-09
3.29701e-08
6.78193e-09
3.21167e-08
7.4578e-09
3.1171e-08
8.11773e-09
3.01342e-08
8.75697e-09
2.90085e-08
9.37029e-09
2.77966e-08
9.95202e-09
2.65024e-08
1.0496e-08
2.51304e-08
1.09957e-08
2.36864e-08
1.14439e-08
2.21773e-08
1.18332e-08
2.0611e-08
1.21557e-08
1.89968e-08
1.24031e-08
1.73454e-08
1.25668e-08
1.56688e-08
1.26377e-08
1.39805e-08
1.26068e-08
1.22955e-08
1.24647e-08
1.06306e-08
1.2202e-08
9.00405e-09
1.18093e-08
7.43609e-09
1.12772e-08
5.94848e-09
1.05969e-08
4.56489e-09
9.75985e-09
3.31068e-09
8.75801e-09
2.21319e-09
7.58424e-09
1.30163e-09
6.23253e-09
6.06636e-10
4.69894e-09
1.61017e-10
2.97922e-09
1.06237e-09
1.54723e-10
-1.1745e-09
5.7632e-10
-3.2796e-09
1.22618e-09
-5.14828e-09
2.06894e-09
-6.78174e-09
3.07221e-09
-8.19157e-09
4.20659e-09
-9.39211e-09
5.44556e-09
-1.03972e-08
6.76538e-09
-1.12209e-08
8.14496e-09
-1.1877e-08
9.56573e-09
-1.23796e-08
1.10115e-08
-1.27423e-08
1.24682e-08
-1.29784e-08
1.39239e-08
-1.31008e-08
1.53684e-08
-1.31216e-08
1.67933e-08
-1.30522e-08
1.81915e-08
-1.29032e-08
1.95574e-08
-1.26843e-08
2.08863e-08
-1.24044e-08
2.21747e-08
-1.20714e-08
2.34196e-08
-1.16925e-08
2.46189e-08
-1.1274e-08
2.57709e-08
-1.08212e-08
2.68742e-08
-1.03389e-08
2.79278e-08
-9.83089e-09
2.89309e-08
-9.30055e-09
2.98827e-08
-8.75052e-09
3.07824e-08
-8.18288e-09
3.16291e-08
-7.59923e-09
3.2422e-08
-7.00075e-09
3.31599e-08
-6.38825e-09
3.38415e-08
-5.76224e-09
3.44654e-08
-5.12299e-09
3.50298e-08
-4.47059e-09
3.55328e-08
-3.80502e-09
3.59723e-08
-3.1262e-09
3.63458e-08
-2.43405e-09
3.66509e-08
-1.72854e-09
3.68848e-08
-1.00975e-09
3.70447e-08
-2.77917e-10
3.71276e-08
4.66526e-10
3.71307e-08
1.2229e-09
3.70509e-08
1.99024e-09
3.68854e-08
2.76724e-09
3.66314e-08
3.55226e-09
3.62864e-08
4.34326e-09
3.5848e-08
5.13774e-09
3.53143e-08
5.93281e-09
3.46836e-08
6.72506e-09
3.39549e-08
7.51061e-09
3.31277e-08
8.28506e-09
3.2202e-08
9.04347e-09
3.11785e-08
9.78039e-09
3.00591e-08
1.04898e-08
2.88459e-08
1.11651e-08
2.75427e-08
1.17993e-08
2.61538e-08
1.23845e-08
2.4685e-08
1.29127e-08
2.3143e-08
1.33752e-08
2.15362e-08
1.37626e-08
1.98741e-08
1.40653e-08
1.81677e-08
1.42731e-08
1.64299e-08
1.43756e-08
1.4675e-08
1.43618e-08
1.29189e-08
1.42208e-08
1.11797e-08
1.39413e-08
9.47693e-09
1.3512e-08
7.83234e-09
1.29218e-08
6.26945e-09
1.21598e-08
4.81377e-09
1.12155e-08
3.49281e-09
1.0079e-08
2.33589e-09
8.74118e-09
1.3741e-09
7.19432e-09
6.40647e-10
5.43242e-09
1.70192e-10
3.4497e-09
1.23257e-09
1.59329e-10
-1.33383e-09
5.92264e-10
-3.71253e-09
1.25771e-09
-5.81373e-09
2.11809e-09
-7.64211e-09
3.13916e-09
-9.21264e-09
4.28999e-09
-1.05429e-08
5.54281e-09
-1.16501e-08
6.87296e-09
-1.2551e-08
8.25871e-09
-1.32628e-08
9.6811e-09
-1.3802e-08
1.11238e-08
-1.41849e-08
1.25728e-08
-1.44275e-08
1.40165e-08
-1.45445e-08
1.54452e-08
-1.45503e-08
1.6851e-08
-1.44579e-08
1.82275e-08
-1.42797e-08
1.95698e-08
-1.40266e-08
2.08741e-08
-1.37087e-08
2.21377e-08
-1.3335e-08
2.33586e-08
-1.29134e-08
2.45354e-08
-1.24507e-08
2.56671e-08
-1.1953e-08
2.67533e-08
-1.14251e-08
2.77936e-08
-1.08712e-08
2.87877e-08
-1.02947e-08
2.97354e-08
-9.69819e-09
3.06363e-08
-9.08376e-09
3.14899e-08
-8.45283e-09
3.22955e-08
-7.80635e-09
3.30521e-08
-7.14488e-09
3.37585e-08
-6.46863e-09
3.44131e-08
-5.77758e-09
3.5014e-08
-5.07148e-09
3.5559e-08
-4.35e-09
3.60455e-08
-3.61275e-09
3.64708e-08
-2.85935e-09
3.68318e-08
-2.0895e-09
3.71251e-08
-1.30306e-09
3.73472e-08
-5.0007e-10
3.74946e-08
3.19178e-10
3.75634e-08
1.1541e-09
3.75499e-08
2.00373e-09
3.74504e-08
2.86677e-09
3.72612e-08
3.74143e-09
3.6979e-08
4.6255e-09
3.66005e-08
5.51624e-09
3.61229e-08
6.4104e-09
3.55438e-08
7.30415e-09
3.48613e-08
8.1931e-09
3.40741e-08
9.07223e-09
3.31817e-08
9.93595e-09
3.21841e-08
1.0778e-08
3.10824e-08
1.15915e-08
2.98787e-08
1.23688e-08
2.8576e-08
1.31019e-08
2.71787e-08
1.37819e-08
2.56923e-08
1.43992e-08
2.41236e-08
1.49438e-08
2.24812e-08
1.5405e-08
2.07749e-08
1.57716e-08
1.90164e-08
1.60317e-08
1.7219e-08
1.6173e-08
1.5398e-08
1.61828e-08
1.35705e-08
1.60483e-08
1.17558e-08
1.57561e-08
9.97492e-09
1.52929e-08
8.25127e-09
1.46455e-08
6.61015e-09
1.3801e-08
5.07909e-09
1.27466e-08
3.68756e-09
1.14705e-08
2.46725e-09
9.9615e-09
1.45196e-09
8.20965e-09
6.76947e-10
6.20745e-09
1.79707e-10
3.94697e-09
1.41228e-09
1.63561e-10
-1.49739e-09
6.06204e-10
-4.15518e-09
1.28401e-09
-6.49154e-09
2.157e-09
-8.5151e-09
3.18896e-09
-1.02446e-08
4.34738e-09
-1.17014e-08
5.60334e-09
-1.2906e-08
6.93133e-09
-1.3879e-08
8.30913e-09
-1.46406e-08
9.7176e-09
-1.52104e-08
1.11405e-08
-1.56078e-08
1.25642e-08
-1.58512e-08
1.39775e-08
-1.59579e-08
1.53715e-08
-1.59443e-08
1.67391e-08
-1.58256e-08
1.8075e-08
-1.56155e-08
1.93751e-08
-1.53268e-08
2.06369e-08
-1.49705e-08
2.18586e-08
-1.45567e-08
2.30392e-08
-1.4094e-08
2.41784e-08
-1.359e-08
2.52763e-08
-1.30509e-08
2.63332e-08
-1.2482e-08
2.73496e-08
-1.18876e-08
2.83259e-08
-1.1271e-08
2.92626e-08
-1.06348e-08
3.01596e-08
-9.98082e-09
3.1017e-08
-9.31018e-09
3.18342e-08
-8.62353e-09
3.26103e-08
-7.92105e-09
3.33442e-08
-7.20253e-09
3.40341e-08
-6.4675e-09
3.4678e-08
-5.7153e-09
3.52731e-08
-4.94515e-09
3.58166e-08
-4.15624e-09
3.63051e-08
-3.3478e-09
3.67347e-08
-2.51916e-09
3.71015e-08
-1.66988e-09
3.74012e-08
-7.99709e-10
3.76291e-08
9.12488e-11
3.77807e-08
1.00255e-09
3.78511e-08
1.93332e-09
3.78356e-08
2.88223e-09
3.77296e-08
3.84743e-09
3.75286e-08
4.82651e-09
3.72284e-08
5.81649e-09
3.6825e-08
6.81374e-09
3.63152e-08
7.814e-09
3.5696e-08
8.81231e-09
3.49652e-08
9.80301e-09
3.41214e-08
1.07797e-08
3.31641e-08
1.17354e-08
3.20935e-08
1.2662e-08
3.09112e-08
1.35511e-08
2.96199e-08
1.43932e-08
2.82235e-08
1.51783e-08
2.67275e-08
1.58953e-08
2.51386e-08
1.65327e-08
2.34656e-08
1.70781e-08
2.17187e-08
1.75185e-08
1.99102e-08
1.78403e-08
1.8054e-08
1.80291e-08
1.61665e-08
1.80704e-08
1.4266e-08
1.79488e-08
1.2373e-08
1.76491e-08
1.05103e-08
1.71556e-08
8.70306e-09
1.64528e-08
6.97862e-09
1.55254e-08
5.36676e-09
1.43585e-08
3.89955e-09
1.29378e-08
2.61113e-09
1.12499e-08
1.53762e-09
9.28315e-09
7.17468e-10
7.02763e-09
1.90717e-10
4.47373e-09
1.603e-09
1.67246e-10
-1.66464e-09
6.1743e-10
-4.60536e-09
1.30348e-09
-7.17759e-09
2.18277e-09
-9.3944e-09
3.21704e-09
-1.12789e-08
4.37218e-09
-1.28565e-08
5.61815e-09
-1.4152e-08
6.92878e-09
-1.51896e-08
8.28152e-09
-1.59933e-08
9.65729e-09
-1.65862e-08
1.10402e-08
-1.69907e-08
1.24172e-08
-1.72282e-08
1.37781e-08
-1.73188e-08
1.51148e-08
-1.7281e-08
1.64216e-08
-1.71323e-08
1.76941e-08
-1.68881e-08
1.89299e-08
-1.65626e-08
2.01276e-08
-1.61682e-08
2.12868e-08
-1.57159e-08
2.24079e-08
-1.52151e-08
2.34918e-08
-1.46738e-08
2.45397e-08
-1.40988e-08
2.55531e-08
-1.34953e-08
2.65333e-08
-1.28678e-08
2.74817e-08
-1.22194e-08
2.83993e-08
-1.15524e-08
2.92868e-08
-1.08684e-08
3.01446e-08
-1.01679e-08
3.09724e-08
-9.45129e-09
3.17694e-08
-8.71809e-09
3.25344e-08
-7.96756e-09
3.32656e-08
-7.19866e-09
3.39604e-08
-6.41013e-09
3.46159e-08
-5.60063e-09
3.52284e-08
-4.76879e-09
3.5794e-08
-3.91335e-09
3.6308e-08
-3.03316e-09
3.67654e-08
-2.12734e-09
3.7161e-08
-1.19531e-09
3.74892e-08
-2.36888e-10
3.7744e-08
7.47703e-10
3.79196e-08
1.7577e-09
3.80101e-08
2.79181e-09
3.80094e-08
3.84811e-09
3.79119e-08
4.92404e-09
3.7712e-08
6.01635e-09
3.74047e-08
7.12103e-09
3.69854e-08
8.23333e-09
3.645e-08
9.3477e-09
3.57953e-08
1.04577e-08
3.50188e-08
1.15563e-08
3.4119e-08
1.26352e-08
3.30955e-08
1.36855e-08
3.19491e-08
1.46975e-08
3.0682e-08
1.56604e-08
2.92977e-08
1.65625e-08
2.78015e-08
1.73915e-08
2.62001e-08
1.8134e-08
2.45025e-08
1.87758e-08
2.27191e-08
1.93019e-08
2.08628e-08
1.96965e-08
1.89486e-08
1.99434e-08
1.69937e-08
2.00253e-08
1.50178e-08
1.99248e-08
1.30429e-08
1.9624e-08
1.10936e-08
1.91048e-08
9.1972e-09
1.83492e-08
7.38328e-09
1.73394e-08
5.68406e-09
1.60577e-08
4.13411e-09
1.44877e-08
2.77053e-09
1.26135e-08
1.63286e-09
1.04209e-08
7.62318e-10
7.89817e-09
2.02648e-10
5.03342e-09
1.80565e-09
1.70093e-10
-1.83473e-09
6.24778e-10
-5.06004e-09
1.31348e-09
-7.86629e-09
2.19077e-09
-1.02717e-08
3.21621e-09
-1.23043e-08
4.35415e-09
-1.39944e-08
5.57352e-09
-1.53714e-08
6.84765e-09
-1.64638e-08
8.15394e-09
-1.72996e-08
9.47364e-09
-1.79059e-08
1.07915e-08
-1.83086e-08
1.20957e-08
-1.85323e-08
1.33769e-08
-1.86e-08
1.46286e-08
-1.85328e-08
1.58466e-08
-1.83502e-08
1.70282e-08
-1.80697e-08
1.81726e-08
-1.7707e-08
1.92801e-08
-1.72757e-08
2.0352e-08
-1.67878e-08
2.13903e-08
-1.62533e-08
2.23972e-08
-1.56808e-08
2.33757e-08
-1.50772e-08
2.43282e-08
-1.44479e-08
2.52575e-08
-1.3797e-08
2.61656e-08
-1.31276e-08
2.70547e-08
-1.24415e-08
2.79259e-08
-1.17396e-08
2.878e-08
-1.10221e-08
2.96172e-08
-1.02885e-08
3.04367e-08
-9.53765e-09
3.12373e-08
-8.76816e-09
3.20169e-08
-7.97819e-09
3.27725e-08
-7.16573e-09
3.35006e-08
-6.32872e-09
3.41968e-08
-5.46507e-09
3.48564e-08
-4.57287e-09
3.54736e-08
-3.65038e-09
3.60424e-08
-2.69618e-09
3.65564e-08
-1.70923e-09
3.70084e-08
-6.88969e-10
3.73915e-08
3.64658e-10
3.76981e-08
1.45108e-09
3.79209e-08
2.56906e-09
3.80523e-08
3.71665e-09
3.80853e-08
4.89113e-09
3.80126e-08
6.08896e-09
3.78279e-08
7.30577e-09
3.7525e-08
8.53626e-09
3.70985e-08
9.7742e-09
3.65438e-08
1.10124e-08
3.58573e-08
1.22428e-08
3.50363e-08
1.34561e-08
3.40796e-08
1.46423e-08
3.29869e-08
1.57901e-08
3.176e-08
1.68874e-08
3.04017e-08
1.79208e-08
2.89171e-08
1.88762e-08
2.73129e-08
1.97382e-08
2.55981e-08
2.04907e-08
2.37836e-08
2.11164e-08
2.18829e-08
2.15973e-08
1.99118e-08
2.19144e-08
1.78888e-08
2.20483e-08
1.5835e-08
2.19786e-08
1.37741e-08
2.16849e-08
1.17328e-08
2.11461e-08
9.74049e-09
2.03416e-08
7.82947e-09
1.92504e-08
6.03476e-09
1.78525e-08
4.39422e-09
1.61283e-08
2.94819e-09
1.40596e-08
1.73933e-09
1.16297e-08
8.13088e-10
8.82444e-09
2.16633e-10
5.6299e-09
2.02228e-09
1.71683e-10
-2.00642e-09
6.26591e-10
-5.51495e-09
1.31034e-09
-8.55004e-09
2.17452e-09
-1.11359e-08
3.17651e-09
-1.33063e-08
4.27916e-09
-1.50971e-08
5.45059e-09
-1.65428e-08
6.66384e-09
-1.7677e-08
7.8966e-09
-1.85324e-08
9.13083e-09
-1.91401e-08
1.03524e-08
-1.95302e-08
1.15508e-08
-1.97307e-08
1.27186e-08
-1.97677e-08
1.38511e-08
-1.96652e-08
1.49458e-08
-1.9445e-08