/*--------------------------------*- C++ -*----------------------------------*\
  =========                 |
  \\      /  F ield         | OpenFOAM: The Open Source CFD Toolbox
   \\    /   O peration     | Website:  https://openfoam.org
    \\  /    A nd           | Version:  12
     \\/     M anipulation  |
\*---------------------------------------------------------------------------*/
FoamFile
{
    format      ascii;
    class       volScalarField;
    location    "1.15";
    object      p;
}
// * * * * * * * * * * * * * * * * * * * * * * * * * * * * * * * * * * * * * //

dimensions      [0 2 -2 0 0 0 0];

internalField   nonuniform List<scalar> 
400
(
-1.06976e-07
0.000377486
0.000551911
0.000300318
-0.000381541
-0.00144111
-0.00281386
-0.00442936
-0.00621578
-0.008103
-0.0100236
-0.0119112
-0.0136983
-0.0153145
-0.0166879
-0.0177478
-0.0184297
-0.0186811
-0.0185063
-0.0181285
-0.000293484
0.000166853
0.000360804
7.71909e-05
-0.00063409
-0.00169621
-0.00304256
-0.00460858
-0.00632974
-0.00814276
-0.00998626
-0.0117995
-0.0135211
-0.0150875
-0.0164341
-0.0174963
-0.0182073
-0.0184902
-0.0182953
-0.0178341
0.0013706
0.00176732
0.00181506
0.00131393
0.000363568
-0.000927583
-0.00248043
-0.00422872
-0.00611133
-0.00807228
-0.010059
-0.0120203
-0.0139034
-0.0156522
-0.0172054
-0.0184965
-0.0194462
-0.0199459
-0.0198959
-0.019497
0.00584326
0.00584603
0.00537843
0.00432157
0.00281472
0.000992363
-0.00105135
-0.00324869
-0.00554028
-0.00788504
-0.010247
-0.0125926
-0.0148859
-0.0170834
-0.0191287
-0.0209517
-0.0224578
-0.0235122
-0.0239755
-0.0239681
0.0136835
0.012767
0.0112014
0.00908218
0.00659033
0.00387728
0.00104744
-0.0018328
-0.00472634
-0.007619
-0.0105104
-0.0134048
-0.0163015
-0.0191854
-0.0220189
-0.0247344
-0.0272263
-0.0293421
-0.0309001
-0.0318079
0.0255516
0.0228908
0.019348
0.0154459
0.0114089
0.00738654
0.00348086
-0.000263396
-0.00385387
-0.00733724
-0.0107836
-0.0142709
-0.0178686
-0.0216221
-0.0255373
-0.0295674
-0.0336079
-0.0375066
-0.0410373
-0.0436825
0.0419903
0.0363019
0.0294583
0.0227631
0.016474
0.0106959
0.00549705
0.000863507
-0.00330453
-0.00717021
-0.0109338
-0.0148077
-0.018991
-0.0236448
-0.0288659
-0.0346641
-0.0409664
-0.0476618
-0.0544878
-0.0601504
0.0629957
0.0523305
0.0402568
0.0294073
0.0200352
0.0121145
0.00561685
0.000402523
-0.00380162
-0.00736586
-0.0107161
-0.0142957
-0.0185292
-0.0237839
-0.0303281
-0.0382947
-0.0477028
-0.0585659
-0.0706198
-0.0812463
0.0872079
0.0687297
0.048727
0.031991
0.0186814
0.00848082
0.00114884
-0.0036956
-0.00662924
-0.00836962
-0.0097125
-0.0114784
-0.014462
-0.0193779
-0.0267969
-0.0370901
-0.050482
-0.0672665
-0.0872605
-0.105691
0.110518
0.0802851
0.0487785
0.0241456
0.00627197
-0.0057315
-0.0125183
-0.0148991
-0.0139533
-0.0109506
-0.00726297
-0.00429463
-0.00341881
-0.00590619
-0.0128333
-0.0250002
-0.0430373
-0.0677937
-0.0993377
-0.129536
0.1238
0.076624
0.0292086
-0.00529303
-0.0276096
-0.0396749
-0.0428934
-0.0388001
-0.029266
-0.0163942
-0.00240499
0.0104417
0.0199153
0.0238974
0.0205041
0.00820034
-0.014394
-0.0491543
-0.0967272
-0.143942
0.109328
0.0388439
-0.0293321
-0.0748837
-0.0997815
-0.107794
-0.101632
-0.0839986
-0.0579506
-0.0267749
0.00613832
0.0373592
0.0634654
0.0811148
0.0871916
0.0789492
0.0536774
0.00767255
-0.0609079
-0.13164
0.03523
-0.0655842
-0.158745
-0.214151
-0.236194
-0.23181
-0.205917
-0.16303
-0.107876
-0.045295
0.0198603
0.0827151
0.138333
0.181727
0.208005
0.212495
0.190183
0.134153
0.0401749
-0.0613319
-0.153225
-0.290564
-0.409786
-0.468221
-0.47501
-0.442566
-0.379455
-0.292865
-0.189673
-0.0764981
0.0402647
0.15427
0.258941
0.347318
0.412171
0.445902
0.439589
0.380662
0.260105
0.121299
-0.548536
-0.723887
-0.861036
-0.903107
-0.868892
-0.780293
-0.65168
-0.493833
-0.315929
-0.126123
0.0681966
0.259827
0.441159
0.603673
0.737329
0.830307
0.867304
0.825901
0.687174
0.509314
-1.31218
-1.5109
-1.63331
-1.61139
-1.4843
-1.29023
-1.05186
-0.783767
-0.496618
-0.198542
0.104196
0.405937
0.700065
0.977651
1.22665
1.43091
1.56614
1.59243
1.46962
1.2677
-2.73138
-2.89142
-2.90675
-2.71189
-2.38977
-2.00562
-1.5914
-1.16333
-0.729314
-0.292049
0.148337
0.592216
1.03856
1.48301
1.91601
2.31974
2.65926
2.86618
2.85524
2.69338
-5.33453
-5.25662
-4.90856
-4.30771
-3.61165
-2.91184
-2.23962
-1.60024
-0.988314
-0.392896
0.199829
0.804357
1.43406
2.09878
2.80156
3.53313
4.25772
4.88106
5.24224
5.32428
-11.1826
-9.54074
-7.66716
-6.05722
-4.72401
-3.60431
-2.65477
-1.83637
-1.1086
-0.431986
0.231222
0.918071
1.66654
2.5156
3.50456
4.66978
6.0497
7.69914
9.60202
11.2636
-29.316
-19.966
-13.208
-9.10227
-6.39378
-4.46386
-3.05232
-1.99196
-1.1516
-0.428675
0.260498
0.995045
1.85884
2.95379
4.41246
6.40296
9.18325
13.3626
20.1807
29.568
)
;

boundaryField
{
    movingWall
    {
        type            zeroGradient;
    }
    fixedWalls
    {
        type            zeroGradient;
    }
    frontAndBack
    {
        type            empty;
    }
}


// ************************************************************************* //
