/*--------------------------------*- C++ -*----------------------------------*\
  =========                 |
  \\      /  F ield         | OpenFOAM: The Open Source CFD Toolbox
   \\    /   O peration     | Website:  https://openfoam.org
    \\  /    A nd           | Version:  12
     \\/     M anipulation  |
\*---------------------------------------------------------------------------*/
FoamFile
{
    format      ascii;
    class       volScalarField;
    location    "3";
    object      epsilon;
}
// * * * * * * * * * * * * * * * * * * * * * * * * * * * * * * * * * * * * * //

dimensions      [0 2 -3 0 0 0 0];

internalField   nonuniform List<scalar> 
5625
(
1.15e-08
2.17154e-08
4.60178e-08
7.50111e-08
1.07651e-07
1.43149e-07
1.80927e-07
2.20539e-07
2.61617e-07
3.03843e-07
3.46933e-07
3.90623e-07
4.3467e-07
4.7884e-07
5.22914e-07
5.6668e-07
6.09937e-07
6.52491e-07
6.94155e-07
7.34752e-07
7.74111e-07
8.1207e-07
8.48474e-07
8.83177e-07
9.16042e-07
9.4694e-07
9.75751e-07
1.00236e-06
1.02668e-06
1.0486e-06
1.06806e-06
1.08497e-06
1.09927e-06
1.11092e-06
1.11988e-06
1.1261e-06
1.12959e-06
1.13031e-06
1.12828e-06
1.12351e-06
1.11602e-06
1.10583e-06
1.093e-06
1.07758e-06
1.05962e-06
1.0392e-06
1.01639e-06
9.91291e-07
9.63997e-07
9.34615e-07
9.03258e-07
8.70051e-07
8.35123e-07
7.98613e-07
7.60665e-07
7.21431e-07
6.81071e-07
6.3975e-07
5.97639e-07
5.54918e-07
5.11772e-07
4.68395e-07
4.24987e-07
3.81758e-07
3.38929e-07
2.96732e-07
2.55417e-07
2.15257e-07
1.76555e-07
1.39664e-07
1.05015e-07
7.31655e-08
4.48816e-08
2.11779e-08
1.12149e-08
7.77855e-08
4.21942e-08
4.10083e-08
4.89513e-08
6.11874e-08
7.59875e-08
9.25208e-08
1.10308e-07
1.29032e-07
1.48462e-07
1.68412e-07
1.88728e-07
2.09272e-07
2.29921e-07
2.5056e-07
2.71083e-07
2.91388e-07
3.1138e-07
3.30967e-07
3.50064e-07
3.68587e-07
3.86458e-07
4.03603e-07
4.19953e-07
4.3544e-07
4.50003e-07
4.63586e-07
4.76136e-07
4.87603e-07
4.97945e-07
5.07123e-07
5.15103e-07
5.21855e-07
5.27355e-07
5.31583e-07
5.34526e-07
5.36173e-07
5.3652e-07
5.35568e-07
5.33322e-07
5.29791e-07
5.24992e-07
5.18943e-07
5.1167e-07
5.03202e-07
4.93572e-07
4.82818e-07
4.70984e-07
4.58115e-07
4.44262e-07
4.29481e-07
4.1383e-07
3.9737e-07
3.80169e-07
3.62296e-07
3.43823e-07
3.24829e-07
3.05392e-07
2.85598e-07
2.65533e-07
2.45289e-07
2.24964e-07
2.0466e-07
1.84485e-07
1.64559e-07
1.45011e-07
1.25991e-07
1.07676e-07
9.02898e-08
7.41385e-08
5.96871e-08
4.77438e-08
3.99926e-08
4.11478e-08
7.58568e-08
1.72939e-07
8.45499e-08
6.50899e-08
6.13666e-08
6.42599e-08
7.07939e-08
7.96285e-08
9.00351e-08
1.01565e-07
1.13915e-07
1.26866e-07
1.40247e-07
1.53921e-07
1.67771e-07
1.81697e-07
1.95606e-07
2.09417e-07
2.23053e-07
2.36444e-07
2.49525e-07
2.62233e-07
2.74509e-07
2.863e-07
2.97555e-07
3.08224e-07
3.18265e-07
3.27635e-07
3.36297e-07
3.44217e-07
3.51362e-07
3.57705e-07
3.63222e-07
3.67893e-07
3.71698e-07
3.74625e-07
3.76663e-07
3.77806e-07
3.78049e-07
3.77394e-07
3.75843e-07
3.73404e-07
3.70087e-07
3.65906e-07
3.60879e-07
3.55025e-07
3.4837e-07
3.40939e-07
3.32764e-07
3.23876e-07
3.14313e-07
3.04114e-07
2.93322e-07
2.8198e-07
2.70137e-07
2.57844e-07
2.45156e-07
2.32129e-07
2.18823e-07
2.05303e-07
1.91638e-07
1.779e-07
1.6417e-07
1.50533e-07
1.37089e-07
1.2395e-07
1.11247e-07
9.9145e-08
8.78571e-08
7.76768e-08
6.90401e-08
6.26558e-08
5.9829e-08
6.34596e-08
8.24381e-08
1.68628e-07
2.86079e-07
1.36906e-07
9.91036e-08
8.53017e-08
8.10008e-08
8.16975e-08
8.54594e-08
9.12761e-08
9.85446e-08
1.0687e-07
1.15974e-07
1.25651e-07
1.3574e-07
1.46109e-07
1.56651e-07
1.67271e-07
1.77886e-07
1.88424e-07
1.98818e-07
2.09007e-07
2.18934e-07
2.28548e-07
2.37801e-07
2.46648e-07
2.55047e-07
2.62962e-07
2.70356e-07
2.77198e-07
2.83458e-07
2.89109e-07
2.9413e-07
2.98498e-07
3.02198e-07
3.05213e-07
3.07532e-07
3.09147e-07
3.10051e-07
3.10242e-07
3.0972e-07
3.08487e-07
3.0655e-07
3.03916e-07
3.00596e-07
2.96607e-07
2.91963e-07
2.86686e-07
2.80797e-07
2.74322e-07
2.67289e-07
2.59728e-07
2.51672e-07
2.43157e-07
2.34222e-07
2.24909e-07
2.15262e-07
2.05329e-07
1.9516e-07
1.84811e-07
1.74342e-07
1.63817e-07
1.53308e-07
1.42895e-07
1.32669e-07
1.22734e-07
1.13218e-07
1.04275e-07
9.61073e-08
8.89831e-08
8.32867e-08
7.96047e-08
7.89209e-08
8.31171e-08
9.65809e-08
1.33443e-07
2.78865e-07
4.12152e-07
1.95824e-07
1.38679e-07
1.1503e-07
1.04217e-07
9.99531e-08
9.96158e-08
1.01873e-07
1.05951e-07
1.11355e-07
1.17744e-07
1.2487e-07
1.32544e-07
1.40614e-07
1.48959e-07
1.57476e-07
1.66075e-07
1.74679e-07
1.8322e-07
1.91636e-07
1.99872e-07
2.07877e-07
2.15604e-07
2.23011e-07
2.30058e-07
2.3671e-07
2.42934e-07
2.487e-07
2.53982e-07
2.58754e-07
2.62996e-07
2.66688e-07
2.69815e-07
2.72364e-07
2.74323e-07
2.75684e-07
2.76443e-07
2.76596e-07
2.76144e-07
2.75088e-07
2.73433e-07
2.71187e-07
2.68361e-07
2.64967e-07
2.61021e-07
2.5654e-07
2.51545e-07
2.46058e-07
2.40106e-07
2.33717e-07
2.2692e-07
2.19751e-07
2.12244e-07
2.04441e-07
1.96382e-07
1.88115e-07
1.7969e-07
1.71162e-07
1.62591e-07
1.54044e-07
1.45597e-07
1.37336e-07
1.29361e-07
1.21791e-07
1.14771e-07
1.08486e-07
1.03176e-07
9.91736e-08
9.69593e-08
9.72857e-08
1.01449e-07
1.12003e-07
1.35069e-07
1.90772e-07
4.01562e-07
5.47972e-07
2.59532e-07
1.82013e-07
1.48382e-07
1.31276e-07
1.22439e-07
1.18473e-07
1.17685e-07
1.19111e-07
1.22146e-07
1.26382e-07
1.31523e-07
1.37352e-07
1.43695e-07
1.50413e-07
1.57394e-07
1.64538e-07
1.71764e-07
1.78998e-07
1.86175e-07
1.93237e-07
2.00133e-07
2.06815e-07
2.1324e-07
2.1937e-07
2.25169e-07
2.30604e-07
2.35647e-07
2.40271e-07
2.44453e-07
2.48173e-07
2.51411e-07
2.54153e-07
2.56386e-07
2.58099e-07
2.59285e-07
2.59939e-07
2.60057e-07
2.5964e-07
2.58689e-07
2.5721e-07
2.55209e-07
2.52697e-07
2.49684e-07
2.46187e-07
2.42222e-07
2.37809e-07
2.32969e-07
2.27728e-07
2.22113e-07
2.16154e-07
2.09884e-07
2.03339e-07
1.96559e-07
1.89586e-07
1.82468e-07
1.75256e-07
1.68007e-07
1.60786e-07
1.53663e-07
1.4672e-07
1.40052e-07
1.3377e-07
1.28008e-07
1.22934e-07
1.18762e-07
1.15775e-07
1.14372e-07
1.1514e-07
1.19017e-07
1.2765e-07
1.44343e-07
1.77131e-07
2.52648e-07
5.33508e-07
6.91202e-07
3.26833e-07
2.28061e-07
1.84231e-07
1.60882e-07
1.47655e-07
1.40317e-07
1.36782e-07
1.35876e-07
1.36873e-07
1.39291e-07
1.42787e-07
1.47108e-07
1.52059e-07
1.57485e-07
1.63258e-07
1.69272e-07
1.75437e-07
1.81673e-07
1.87913e-07
1.94094e-07
2.00163e-07
2.0607e-07
2.11772e-07
2.17228e-07
2.22402e-07
2.27262e-07
2.31778e-07
2.35924e-07
2.39677e-07
2.43016e-07
2.45922e-07
2.48381e-07
2.5038e-07
2.51909e-07
2.5296e-07
2.53528e-07
2.53609e-07
2.53205e-07
2.52317e-07
2.50949e-07
2.49109e-07
2.46807e-07
2.44053e-07
2.40863e-07
2.37254e-07
2.33245e-07
2.28858e-07
2.24117e-07
2.19052e-07
2.13691e-07
2.08068e-07
2.0222e-07
1.96188e-07
1.90015e-07
1.83751e-07
1.7745e-07
1.71172e-07
1.64986e-07
1.58968e-07
1.53208e-07
1.47808e-07
1.42893e-07
1.38612e-07
1.35156e-07
1.3277e-07
1.31786e-07
1.32672e-07
1.36134e-07
1.43311e-07
1.5623e-07
1.79006e-07
2.21707e-07
3.17842e-07
6.72292e-07
8.39975e-07
3.96806e-07
2.76091e-07
2.21856e-07
1.92255e-07
1.74732e-07
1.64176e-07
1.58082e-07
1.55052e-07
1.54231e-07
1.55056e-07
1.57134e-07
1.60174e-07
1.63959e-07
1.68313e-07
1.73096e-07
1.78193e-07
1.83503e-07
1.88944e-07
1.9444e-07
1.99928e-07
2.0535e-07
2.10654e-07
2.15794e-07
2.2073e-07
2.25423e-07
2.2984e-07
2.33952e-07
2.3773e-07
2.41153e-07
2.44198e-07
2.46847e-07
2.49085e-07
2.50899e-07
2.52279e-07
2.53218e-07
2.53709e-07
2.53751e-07
2.53344e-07
2.52488e-07
2.5119e-07
2.49455e-07
2.47294e-07
2.4472e-07
2.41745e-07
2.38388e-07
2.34669e-07
2.3061e-07
2.26235e-07
2.21574e-07
2.16658e-07
2.1152e-07
2.062e-07
2.00739e-07
1.95183e-07
1.89584e-07
1.84e-07
1.78494e-07
1.73138e-07
1.68017e-07
1.63226e-07
1.58878e-07
1.5511e-07
1.52091e-07
1.50033e-07
1.49215e-07
1.5002e-07
1.52993e-07
1.58964e-07
1.69288e-07
1.86395e-07
2.15246e-07
2.68028e-07
3.8538e-07
8.15933e-07
9.92721e-07
4.68689e-07
3.25529e-07
2.6073e-07
2.24858e-07
2.03095e-07
1.89421e-07
1.80896e-07
1.75888e-07
1.73406e-07
1.72801e-07
1.73624e-07
1.75549e-07
1.78329e-07
1.81771e-07
1.85722e-07
1.90053e-07
1.94658e-07
1.99445e-07
2.04336e-07
2.09262e-07
2.14162e-07
2.18982e-07
2.23674e-07
2.28194e-07
2.32504e-07
2.3657e-07
2.40359e-07
2.43845e-07
2.47003e-07
2.49811e-07
2.52252e-07
2.54309e-07
2.5597e-07
2.57224e-07
2.58063e-07
2.58483e-07
2.5848e-07
2.58055e-07
2.57209e-07
2.55947e-07
2.54278e-07
2.5221e-07
2.49757e-07
2.46933e-07
2.43756e-07
2.40247e-07
2.36428e-07
2.32326e-07
2.27969e-07
2.2339e-07
2.18625e-07
2.13713e-07
2.08699e-07
2.0363e-07
1.98562e-07
1.93555e-07
1.88676e-07
1.84004e-07
1.79628e-07
1.75652e-07
1.722e-07
1.69422e-07
1.67504e-07
1.66683e-07
1.67276e-07
1.69717e-07
1.74633e-07
1.82984e-07
1.9635e-07
2.17578e-07
2.52499e-07
3.15475e-07
4.54431e-07
9.62712e-07
1.14808e-06
5.41832e-07
3.75897e-07
3.00433e-07
2.58282e-07
2.32321e-07
2.15604e-07
2.04744e-07
1.97868e-07
1.93842e-07
1.9193e-07
1.91624e-07
1.92558e-07
1.94458e-07
1.97111e-07
2.00348e-07
2.0403e-07
2.08041e-07
2.12283e-07
2.16672e-07
2.21135e-07
2.25607e-07
2.30031e-07
2.34357e-07
2.38539e-07
2.42538e-07
2.46316e-07
2.49843e-07
2.53089e-07
2.56029e-07
2.58642e-07
2.60908e-07
2.62812e-07
2.6434e-07
2.65481e-07
2.66229e-07
2.66577e-07
2.66523e-07
2.66068e-07
2.65213e-07
2.63964e-07
2.62328e-07
2.60317e-07
2.57941e-07
2.55219e-07
2.52167e-07
2.48806e-07
2.45161e-07
2.41259e-07
2.3713e-07
2.32808e-07
2.28329e-07
2.23736e-07
2.19074e-07
2.14395e-07
2.09755e-07
2.05219e-07
2.00858e-07
1.96757e-07
1.93011e-07
1.89733e-07
1.87056e-07
1.85145e-07
1.84204e-07
1.84499e-07
1.86381e-07
1.9034e-07
1.97088e-07
2.0772e-07
2.24043e-07
2.49332e-07
2.903e-07
3.63508e-07
5.24253e-07
1.11108e-06
1.30486e-06
6.15663e-07
4.26784e-07
3.40613e-07
2.92196e-07
2.62082e-07
2.42386e-07
2.29267e-07
2.2061e-07
2.15133e-07
2.12011e-07
2.10674e-07
2.10717e-07
2.11836e-07
2.13797e-07
2.16414e-07
2.19538e-07
2.23044e-07
2.26826e-07
2.30794e-07
2.3487e-07
2.38987e-07
2.43084e-07
2.47107e-07
2.51011e-07
2.54752e-07
2.58293e-07
2.61602e-07
2.64647e-07
2.67405e-07
2.69851e-07
2.71967e-07
2.73736e-07
2.75145e-07
2.76183e-07
2.76842e-07
2.77117e-07
2.77006e-07
2.76509e-07
2.75628e-07
2.7437e-07
2.72742e-07
2.70755e-07
2.68422e-07
2.6576e-07
2.62789e-07
2.59529e-07
2.56005e-07
2.52247e-07
2.48285e-07
2.44154e-07
2.39894e-07
2.35548e-07
2.31163e-07
2.26794e-07
2.22501e-07
2.18352e-07
2.14422e-07
2.10802e-07
2.07593e-07
2.04916e-07
2.02918e-07
2.01775e-07
2.01713e-07
2.03024e-07
2.06097e-07
2.1148e-07
2.19968e-07
2.32794e-07
2.51996e-07
2.81277e-07
3.28237e-07
4.11641e-07
5.94168e-07
1.25961e-06
1.46199e-06
6.89676e-07
4.77831e-07
3.80969e-07
3.26323e-07
2.92107e-07
2.69492e-07
2.54184e-07
2.43818e-07
2.36969e-07
2.32715e-07
2.30429e-07
2.29661e-07
2.30078e-07
2.31425e-07
2.335e-07
2.36141e-07
2.39213e-07
2.42603e-07
2.46215e-07
2.49966e-07
2.53786e-07
2.57609e-07
2.61381e-07
2.65052e-07
2.68578e-07
2.7192e-07
2.75044e-07
2.7792e-07
2.8052e-07
2.82821e-07
2.84804e-07
2.86452e-07
2.8775e-07
2.88689e-07
2.89261e-07
2.8946e-07
2.89284e-07
2.88734e-07
2.87812e-07
2.86525e-07
2.84881e-07
2.82892e-07
2.80572e-07
2.77938e-07
2.75009e-07
2.71808e-07
2.68362e-07
2.647e-07
2.60855e-07
2.56863e-07
2.52765e-07
2.48606e-07
2.44437e-07
2.40314e-07
2.363e-07
2.32467e-07
2.28896e-07
2.25681e-07
2.22933e-07
2.20779e-07
2.19378e-07
2.18922e-07
2.19656e-07
2.21899e-07
2.2608e-07
2.32803e-07
2.42949e-07
2.57887e-07
2.79888e-07
3.13078e-07
3.65941e-07
4.59427e-07
6.63541e-07
1.40696e-06
1.61852e-06
7.63422e-07
5.28719e-07
4.21239e-07
3.60427e-07
3.22168e-07
2.96697e-07
2.79264e-07
2.67255e-07
2.59099e-07
2.53782e-07
2.50614e-07
2.49102e-07
2.48885e-07
2.49683e-07
2.51279e-07
2.53497e-07
2.56193e-07
2.59247e-07
2.62556e-07
2.66033e-07
2.69602e-07
2.73195e-07
2.76756e-07
2.80231e-07
2.83576e-07
2.86749e-07
2.89715e-07
2.92443e-07
2.94905e-07
2.97077e-07
2.98939e-07
3.00474e-07
3.01667e-07
3.02509e-07
3.02991e-07
3.03109e-07
3.0286e-07
3.02245e-07
3.01267e-07
2.99934e-07
2.98254e-07
2.96239e-07
2.93904e-07
2.91266e-07
2.88348e-07
2.85172e-07
2.81766e-07
2.7816e-07
2.74388e-07
2.70489e-07
2.66505e-07
2.62483e-07
2.58476e-07
2.54544e-07
2.50752e-07
2.47176e-07
2.43902e-07
2.4103e-07
2.38676e-07
2.36978e-07
2.36106e-07
2.36266e-07
2.37724e-07
2.40826e-07
2.46041e-07
2.54027e-07
2.65753e-07
2.82721e-07
3.07432e-07
3.4443e-07
4.03066e-07
5.06444e-07
7.31772e-07
1.55188e-06
1.77363e-06
8.36503e-07
5.79171e-07
4.61193e-07
3.94302e-07
3.52074e-07
3.23812e-07
3.04316e-07
2.90726e-07
2.81323e-07
2.75001e-07
2.71009e-07
2.68811e-07
2.68015e-07
2.68318e-07
2.69487e-07
2.71333e-07
2.73703e-07
2.76466e-07
2.79516e-07
2.82759e-07
2.86115e-07
2.89514e-07
2.92895e-07
2.96204e-07
2.99393e-07
3.0242e-07
3.05248e-07
3.07845e-07
3.10183e-07
3.12237e-07
3.13985e-07
3.15412e-07
3.16503e-07
3.17246e-07
3.17635e-07
3.17665e-07
3.17333e-07
3.16641e-07
3.15593e-07
3.14196e-07
3.12459e-07
3.10396e-07
3.08022e-07
3.05355e-07
3.02418e-07
2.99235e-07
2.95835e-07
2.92249e-07
2.88513e-07
2.84667e-07
2.80755e-07
2.76827e-07
2.72937e-07
2.69147e-07
2.65528e-07
2.62158e-07
2.59128e-07
2.56543e-07
2.54526e-07
2.53226e-07
2.52822e-07
2.53536e-07
2.55654e-07
2.59548e-07
2.65727e-07
2.74904e-07
2.88131e-07
3.07043e-07
3.34363e-07
3.75046e-07
4.39289e-07
5.52293e-07
7.98289e-07
1.69314e-06
1.92656e-06
9.08572e-07
6.28942e-07
5.00633e-07
4.27771e-07
3.81658e-07
3.50676e-07
3.2918e-07
3.14066e-07
3.03472e-07
2.96199e-07
2.91434e-07
2.88599e-07
2.87271e-07
2.87126e-07
2.87912e-07
2.89429e-07
2.91511e-07
2.94022e-07
2.96847e-07
2.99889e-07
3.03063e-07
3.06296e-07
3.09523e-07
3.12687e-07
3.15741e-07
3.18639e-07
3.21344e-07
3.23823e-07
3.26045e-07
3.27987e-07
3.29627e-07
3.30947e-07
3.31933e-07
3.32575e-07
3.32865e-07
3.32798e-07
3.32373e-07
3.31591e-07
3.30458e-07
3.28979e-07
3.27167e-07
3.25035e-07
3.22598e-07
3.19877e-07
3.16894e-07
3.13676e-07
3.10251e-07
3.06653e-07
3.0292e-07
2.99091e-07
2.95215e-07
2.91341e-07
2.87528e-07
2.83839e-07
2.80349e-07
2.77139e-07
2.74306e-07
2.71959e-07
2.7023e-07
2.69275e-07
2.69285e-07
2.70496e-07
2.73214e-07
2.77839e-07
2.84915e-07
2.95209e-07
3.09856e-07
3.30619e-07
3.60437e-07
4.04658e-07
4.743e-07
5.96592e-07
8.62545e-07
1.8296e-06
2.07669e-06
9.79328e-07
6.77821e-07
5.39388e-07
4.60685e-07
4.10781e-07
3.77154e-07
3.53721e-07
3.37141e-07
3.25407e-07
3.17231e-07
3.11739e-07
3.08311e-07
3.06492e-07
3.05937e-07
3.06378e-07
3.07599e-07
3.09427e-07
3.11717e-07
3.14347e-07
3.17215e-07
3.20231e-07
3.23318e-07
3.2641e-07
3.29448e-07
3.3238e-07
3.35162e-07
3.37754e-07
3.40121e-07
3.42233e-07
3.44066e-07
3.45597e-07
3.46808e-07
3.47686e-07
3.4822e-07
3.48402e-07
3.48229e-07
3.47699e-07
3.46813e-07
3.45578e-07
3.44002e-07
3.42095e-07
3.39873e-07
3.37351e-07
3.34552e-07
3.31499e-07
3.28218e-07
3.24741e-07
3.21102e-07
3.1734e-07
3.13498e-07
3.09623e-07
3.05769e-07
3.01996e-07
2.98371e-07
2.94971e-07
2.91882e-07
2.89203e-07
2.87052e-07
2.85565e-07
2.84907e-07
2.8528e-07
2.86936e-07
2.90198e-07
2.95493e-07
3.03399e-07
3.14738e-07
3.3072e-07
3.53233e-07
3.8542e-07
4.33012e-07
5.07807e-07
6.38973e-07
9.24012e-07
1.96012e-06
2.22348e-06
1.04852e-06
7.25631e-07
5.77314e-07
4.92917e-07
4.39324e-07
4.03131e-07
3.77828e-07
3.59837e-07
3.47013e-07
3.37979e-07
3.31801e-07
3.27817e-07
3.25544e-07
3.24613e-07
3.24739e-07
3.25695e-07
3.27296e-07
3.29389e-07
3.31846e-07
3.3456e-07
3.37436e-07
3.40395e-07
3.43366e-07
3.46289e-07
3.4911e-07
3.51783e-07
3.54266e-07
3.56525e-07
3.58528e-07
3.60251e-07
3.6167e-07
3.62768e-07
3.63531e-07
3.63948e-07
3.64012e-07
3.6372e-07
3.6307e-07
3.62066e-07
3.60713e-07
3.5902e-07
3.56999e-07
3.54666e-07
3.52038e-07
3.49138e-07
3.4599e-07
3.42622e-07
3.39066e-07
3.35359e-07
3.3154e-07
3.27654e-07
3.23751e-07
3.19886e-07
3.16121e-07
3.12526e-07
3.09181e-07
3.06175e-07
3.03613e-07
3.01617e-07
3.0033e-07
2.99926e-07
3.00616e-07
3.02666e-07
3.06418e-07
3.12322e-07
3.20992e-07
3.33298e-07
3.50525e-07
3.74677e-07
4.09094e-07
4.59863e-07
5.39526e-07
6.79084e-07
9.82181e-07
2.08365e-06
2.36649e-06
1.11593e-06
7.7223e-07
6.14294e-07
5.24363e-07
4.67193e-07
4.28517e-07
4.01409e-07
3.82063e-07
3.68197e-07
3.58346e-07
3.51519e-07
3.47015e-07
3.44318e-07
3.43039e-07
3.42877e-07
3.43591e-07
3.44986e-07
3.46903e-07
3.49205e-07
3.5178e-07
3.5453e-07
3.57372e-07
3.60232e-07
3.63047e-07
3.65762e-07
3.68328e-07
3.70704e-07
3.72854e-07
3.74745e-07
3.76352e-07
3.77653e-07
3.78629e-07
3.79267e-07
3.79556e-07
3.79489e-07
3.79064e-07
3.78279e-07
3.77139e-07
3.7565e-07
3.73822e-07
3.71667e-07
3.69202e-07
3.66446e-07
3.63422e-07
3.60155e-07
3.56675e-07
3.53016e-07
3.49215e-07
3.45313e-07
3.41356e-07
3.37396e-07
3.3349e-07
3.29703e-07
3.26108e-07
3.22785e-07
3.19829e-07
3.17349e-07
3.15471e-07
3.14346e-07
3.14153e-07
3.15115e-07
3.17511e-07
3.21699e-07
3.28153e-07
3.37518e-07
3.50711e-07
3.69087e-07
3.94758e-07
4.31247e-07
4.84979e-07
5.69185e-07
7.16585e-07
1.03656e-06
2.19914e-06
2.5054e-06
1.18142e-06
8.17505e-07
6.50238e-07
5.54945e-07
4.94313e-07
4.5324e-07
4.24393e-07
4.03746e-07
3.88883e-07
3.78256e-07
3.70815e-07
3.65819e-07
3.62726e-07
3.61124e-07
3.60695e-07
3.61187e-07
3.62394e-07
3.64149e-07
3.66309e-07
3.68757e-07
3.7139e-07
3.74121e-07
3.76874e-07
3.79584e-07
3.82193e-07
3.84653e-07
3.86918e-07
3.88954e-07
3.90727e-07
3.9221e-07
3.93383e-07
3.94226e-07
3.94725e-07
3.94872e-07
3.94658e-07
3.94083e-07
3.93146e-07
3.91851e-07
3.90206e-07
3.88222e-07
3.85911e-07
3.83293e-07
3.80386e-07
3.77215e-07
3.73806e-07
3.70191e-07
3.66405e-07
3.62484e-07
3.58473e-07
3.5442e-07
3.50377e-07
3.46404e-07
3.42567e-07
3.38941e-07
3.35611e-07
3.32675e-07
3.30243e-07
3.28449e-07
3.27447e-07
3.27427e-07
3.28618e-07
3.31311e-07
3.35882e-07
3.42824e-07
3.52813e-07
3.66809e-07
3.8623e-07
4.1329e-07
4.5168e-07
5.08134e-07
5.96524e-07
7.51149e-07
1.08669e-06
2.30558e-06
2.63996e-06
1.24486e-06
8.61378e-07
6.85082e-07
5.84605e-07
5.2063e-07
4.77247e-07
4.46728e-07
4.24833e-07
4.09017e-07
3.97649e-07
3.89625e-07
3.84166e-07
3.80699e-07
3.78795e-07
3.78118e-07
3.78403e-07
3.79435e-07
3.81039e-07
3.83066e-07
3.85393e-07
3.87914e-07
3.90537e-07
3.93184e-07
3.95788e-07
3.98289e-07
4.00636e-07
4.02784e-07
4.04697e-07
4.06341e-07
4.07689e-07
4.08719e-07
4.09414e-07
4.09759e-07
4.09745e-07
4.09367e-07
4.08622e-07
4.07512e-07
4.06042e-07
4.04219e-07
4.02057e-07
3.99569e-07
3.96773e-07
3.93692e-07
3.90351e-07
3.86777e-07
3.83003e-07
3.79064e-07
3.75e-07
3.70856e-07
3.66681e-07
3.62529e-07
3.58463e-07
3.5455e-07
3.50867e-07
3.47502e-07
3.44555e-07
3.42141e-07
3.40397e-07
3.39484e-07
3.39597e-07
3.40974e-07
3.43917e-07
3.48816e-07
3.56183e-07
3.66723e-07
3.81433e-07
4.0179e-07
4.30097e-07
4.70202e-07
5.29117e-07
6.21293e-07
7.82462e-07
1.13209e-06
2.40201e-06
2.77004e-06
1.3062e-06
9.03806e-07
7.18789e-07
6.13309e-07
5.46112e-07
5.00505e-07
4.68379e-07
4.45287e-07
4.28559e-07
4.16485e-07
4.07907e-07
4.02008e-07
3.98189e-07
3.96e-07
3.95089e-07
3.95179e-07
3.96046e-07
3.97506e-07
3.99406e-07
4.01615e-07
4.04024e-07
4.06538e-07
4.09077e-07
4.11569e-07
4.13954e-07
4.1618e-07
4.182e-07
4.19977e-07
4.21478e-07
4.22675e-07
4.23546e-07
4.24074e-07
4.24245e-07
4.24051e-07
4.23486e-07
4.22549e-07
4.21243e-07
4.19573e-07
4.1755e-07
4.15184e-07
4.12494e-07
4.09498e-07
4.06218e-07
4.02682e-07
3.98918e-07
3.94959e-07
3.90844e-07
3.86613e-07
3.82311e-07
3.7799e-07
3.73706e-07
3.69522e-07
3.65507e-07
3.61741e-07
3.58314e-07
3.55328e-07
3.52902e-07
3.51177e-07
3.50318e-07
3.50525e-07
3.52046e-07
3.55191e-07
3.60362e-07
3.68091e-07
3.79104e-07
3.94434e-07
4.15609e-07
4.45014e-07
4.86632e-07
5.47723e-07
6.43252e-07
8.10222e-07
1.17235e-06
2.48751e-06
2.89561e-06
1.36542e-06
9.44775e-07
7.51347e-07
6.41044e-07
5.70745e-07
5.22997e-07
4.89329e-07
4.65088e-07
4.47487e-07
4.34739e-07
4.25632e-07
4.19315e-07
4.15162e-07
4.12702e-07
4.11569e-07
4.11473e-07
4.12182e-07
4.13503e-07
4.15276e-07
4.17367e-07
4.19662e-07
4.22063e-07
4.24486e-07
4.26857e-07
4.29116e-07
4.31207e-07
4.33085e-07
4.34711e-07
4.3605e-07
4.37077e-07
4.37768e-07
4.38107e-07
4.38081e-07
4.37681e-07
4.36905e-07
4.35751e-07
4.34222e-07
4.32327e-07
4.30075e-07
4.27481e-07
4.24562e-07
4.21338e-07
4.17833e-07
4.14076e-07
4.10096e-07
4.05929e-07
4.01613e-07
3.97189e-07
3.92706e-07
3.88215e-07
3.83774e-07
3.79447e-07
3.75306e-07
3.71432e-07
3.67917e-07
3.64865e-07
3.62398e-07
3.6066e-07
3.59821e-07
3.60085e-07
3.61706e-07
3.65005e-07
3.70392e-07
3.78415e-07
3.89821e-07
4.05672e-07
4.2754e-07
4.57882e-07
5.00797e-07
5.63759e-07
6.62176e-07
8.34145e-07
1.20705e-06
2.56121e-06
3.01673e-06
1.42255e-06
9.84304e-07
7.82768e-07
6.6782e-07
5.94533e-07
5.44728e-07
5.09576e-07
4.84234e-07
4.65796e-07
4.52402e-07
4.4279e-07
4.36074e-07
4.31601e-07
4.28882e-07
4.27535e-07
4.2726e-07
4.27814e-07
4.28997e-07
4.30643e-07
4.32613e-07
4.34788e-07
4.37068e-07
4.39364e-07
4.41604e-07
4.43721e-07
4.45662e-07
4.47379e-07
4.48832e-07
4.49989e-07
4.50821e-07
4.51307e-07
4.51431e-07
4.51181e-07
4.50549e-07
4.49532e-07
4.48132e-07
4.46352e-07
4.44201e-07
4.41692e-07
4.38839e-07
4.35662e-07
4.32182e-07
4.28425e-07
4.24419e-07
4.20197e-07
4.15794e-07
4.11251e-07
4.0661e-07
4.0192e-07
3.97235e-07
3.92613e-07
3.8812e-07
3.83829e-07
3.79822e-07
3.76192e-07
3.73048e-07
3.70512e-07
3.68731e-07
3.67877e-07
3.6816e-07
3.6984e-07
3.73242e-07
3.78787e-07
3.87034e-07
3.98749e-07
4.15017e-07
4.37449e-07
4.68557e-07
5.12538e-07
5.77045e-07
6.77852e-07
8.53962e-07
1.2358e-06
2.62228e-06
3.13356e-06
1.47766e-06
1.02244e-06
8.13092e-07
6.93666e-07
6.17502e-07
5.65715e-07
5.29137e-07
5.02735e-07
4.83494e-07
4.69479e-07
4.59384e-07
4.52284e-07
4.47505e-07
4.44535e-07
4.42982e-07
4.42532e-07
4.42932e-07
4.43975e-07
4.45491e-07
4.47334e-07
4.49381e-07
4.51528e-07
4.53685e-07
4.55777e-07
4.57735e-07
4.59506e-07
4.6104e-07
4.62297e-07
4.63244e-07
4.63855e-07
4.64108e-07
4.63987e-07
4.63481e-07
4.62584e-07
4.61295e-07
4.59615e-07
4.57551e-07
4.55112e-07
4.52312e-07
4.49169e-07
4.45702e-07
4.41934e-07
4.37893e-07
4.3361e-07
4.29116e-07
4.2445e-07
4.19653e-07
4.14769e-07
4.09848e-07
4.04944e-07
4.00116e-07
3.95433e-07
3.90967e-07
3.86803e-07
3.83035e-07
3.79772e-07
3.77138e-07
3.75283e-07
3.74381e-07
3.74646e-07
3.7634e-07
3.79794e-07
3.85438e-07
3.93838e-07
4.05774e-07
4.22351e-07
4.45208e-07
4.76903e-07
5.21708e-07
5.87414e-07
6.90082e-07
8.69425e-07
1.25823e-06
2.66994e-06
3.24636e-06
1.53087e-06
1.05927e-06
8.42378e-07
7.18633e-07
6.39693e-07
5.85995e-07
5.48041e-07
5.20619e-07
5.00603e-07
4.85992e-07
4.7543e-07
4.67961e-07
4.62885e-07
4.59674e-07
4.57918e-07
4.57294e-07
4.5754e-07
4.58442e-07
4.59821e-07
4.61527e-07
4.63435e-07
4.65437e-07
4.67439e-07
4.69363e-07
4.71142e-07
4.72718e-07
4.74043e-07
4.75076e-07
4.75785e-07
4.76142e-07
4.76128e-07
4.75728e-07
4.74931e-07
4.73734e-07
4.72135e-07
4.70139e-07
4.67753e-07
4.6499e-07
4.61864e-07
4.58394e-07
4.54601e-07
4.50513e-07
4.46156e-07
4.41562e-07
4.36767e-07
4.31808e-07
4.26729e-07
4.21574e-07
4.16395e-07
4.11246e-07
4.06189e-07
4.01291e-07
3.96627e-07
3.92282e-07
3.8835e-07
3.84941e-07
3.82183e-07
3.80223e-07
3.79239e-07
3.79447e-07
3.81112e-07
3.84568e-07
3.90248e-07
3.98728e-07
4.10795e-07
4.27568e-07
4.50705e-07
4.82798e-07
5.28172e-07
5.94715e-07
6.98689e-07
8.80307e-07
1.27403e-06
2.70351e-06
3.35545e-06
1.58233e-06
1.0949e-06
8.7071e-07
7.42787e-07
6.61162e-07
6.05617e-07
5.66333e-07
5.37924e-07
5.1716e-07
5.01972e-07
4.9096e-07
4.83133e-07
4.77769e-07
4.74321e-07
4.72367e-07
4.7157e-07
4.71659e-07
4.72413e-07
4.73648e-07
4.75209e-07
4.76965e-07
4.78804e-07
4.80631e-07
4.82367e-07
4.83941e-07
4.85296e-07
4.86382e-07
4.8716e-07
4.87595e-07
4.87664e-07
4.87345e-07
4.86627e-07
4.855e-07
4.83961e-07
4.82012e-07
4.79658e-07
4.7691e-07
4.73781e-07
4.70288e-07
4.66452e-07
4.62297e-07
4.57849e-07
4.5314e-07
4.48202e-07
4.43072e-07
4.3779e-07
4.32398e-07
4.26944e-07
4.2148e-07
4.16061e-07
4.10749e-07
4.05612e-07
4.00725e-07
3.96174e-07
3.92054e-07
3.88474e-07
3.85563e-07
3.83468e-07
3.8237e-07
3.82482e-07
3.84073e-07
3.87478e-07
3.93133e-07
4.01616e-07
4.13721e-07
4.30573e-07
4.53842e-07
4.86137e-07
5.31813e-07
5.98814e-07
7.03515e-07
8.86408e-07
1.28289e-06
2.72237e-06
3.46125e-06
1.63225e-06
1.12945e-06
8.98187e-07
7.66211e-07
6.81982e-07
6.24643e-07
5.84068e-07
5.54702e-07
5.33213e-07
5.17465e-07
5.06014e-07
4.97841e-07
4.92196e-07
4.88516e-07
4.86364e-07
4.85394e-07
4.85323e-07
4.85924e-07
4.87006e-07
4.88408e-07
4.89996e-07
4.91654e-07
4.93286e-07
4.94808e-07
4.9615e-07
4.97252e-07
4.98066e-07
4.98551e-07
4.98676e-07
4.98415e-07
4.9775e-07
4.9667e-07
4.95168e-07
4.93242e-07
4.90897e-07
4.8814e-07
4.84983e-07
4.81444e-07
4.7754e-07
4.73295e-07
4.68735e-07
4.63888e-07
4.58788e-07
4.53469e-07
4.47969e-07
4.42329e-07
4.36594e-07
4.30812e-07
4.25034e-07
4.19318e-07
4.13725e-07
4.08324e-07
4.03191e-07
3.9841e-07
3.94076e-07
3.903e-07
3.87209e-07
3.8495e-07
3.83703e-07
3.83682e-07
3.85154e-07
3.88456e-07
3.94022e-07
4.02432e-07
4.14478e-07
4.31289e-07
4.54535e-07
4.8683e-07
5.32534e-07
5.99601e-07
7.04428e-07
8.87561e-07
1.28458e-06
2.72598e-06
3.56423e-06
1.68083e-06
1.16308e-06
9.24927e-07
7.89003e-07
7.02235e-07
6.43148e-07
6.01314e-07
5.71014e-07
5.48818e-07
5.32525e-07
5.20648e-07
5.12135e-07
5.06216e-07
5.02308e-07
4.9996e-07
4.98814e-07
4.9858e-07
4.99021e-07
4.99939e-07
5.01169e-07
5.02572e-07
5.04029e-07
5.05441e-07
5.06721e-07
5.07799e-07
5.08615e-07
5.09119e-07
5.09272e-07
5.09042e-07
5.08407e-07
5.07349e-07
5.05858e-07
5.03931e-07
5.01568e-07
4.98775e-07
4.95564e-07
4.91949e-07
4.87949e-07
4.83586e-07
4.78885e-07
4.73874e-07
4.68586e-07
4.63053e-07
4.57313e-07
4.51406e-07
4.45373e-07
4.39261e-07
4.33119e-07
4.26999e-07
4.20958e-07
4.15059e-07
4.09369e-07
4.03965e-07
3.9893e-07
3.9436e-07
3.90362e-07
3.87064e-07
3.84612e-07
3.83184e-07
3.82993e-07
3.84303e-07
3.87449e-07
3.92863e-07
4.01121e-07
4.13013e-07
4.2966e-07
4.52727e-07
4.84814e-07
5.30263e-07
5.96994e-07
7.0133e-07
8.83641e-07
1.2789e-06
2.71397e-06
3.66492e-06
1.72833e-06
1.19596e-06
9.51061e-07
8.11271e-07
7.22016e-07
6.61214e-07
6.18147e-07
5.86932e-07
5.64042e-07
5.47216e-07
5.34922e-07
5.26077e-07
5.19889e-07
5.15757e-07
5.13214e-07
5.11892e-07
5.1149e-07
5.11762e-07
5.12505e-07
5.13549e-07
5.14748e-07
5.15982e-07
5.17146e-07
5.18155e-07
5.18935e-07
5.19425e-07
5.19577e-07
5.19353e-07
5.18721e-07
5.17661e-07
5.16157e-07
5.14202e-07
5.11794e-07
5.08938e-07
5.05642e-07
5.01921e-07
4.97793e-07
4.93278e-07
4.88403e-07
4.83194e-07
4.77684e-07
4.71907e-07
4.65897e-07
4.59694e-07
4.53339e-07
4.46876e-07
4.40353e-07
4.33819e-07
4.27327e-07
4.20934e-07
4.14703e-07
4.08701e-07
4.03002e-07
3.97691e-07
3.9286e-07
3.88617e-07
3.85087e-07
3.82414e-07
3.80773e-07
3.80373e-07
3.81477e-07
3.84414e-07
3.89612e-07
3.9764e-07
4.09279e-07
4.25639e-07
4.48366e-07
4.80035e-07
5.24941e-07
5.90925e-07
6.94141e-07
8.74544e-07
1.26572e-06
2.686e-06
3.76387e-06
1.77501e-06
1.22826e-06
9.76727e-07
8.3313e-07
7.41423e-07
6.78932e-07
6.34647e-07
6.02531e-07
5.78959e-07
5.61609e-07
5.48906e-07
5.39738e-07
5.33286e-07
5.28932e-07
5.26196e-07
5.24696e-07
5.24123e-07
5.24219e-07
5.24776e-07
5.25617e-07
5.26593e-07
5.27577e-07
5.28466e-07
5.29168e-07
5.29611e-07
5.29733e-07
5.29488e-07
5.28836e-07
5.27749e-07
5.26208e-07
5.242e-07
5.21721e-07
5.18772e-07
5.15361e-07
5.11501e-07
5.07209e-07
5.02507e-07
4.97419e-07
4.91974e-07
4.86204e-07
4.80141e-07
4.73823e-07
4.67288e-07
4.60579e-07
4.53736e-07
4.46807e-07
4.39838e-07
4.32879e-07
4.25985e-07
4.19212e-07
4.12623e-07
4.06283e-07
4.00268e-07
3.94657e-07
3.89544e-07
3.85033e-07
3.81246e-07
3.78324e-07
3.76439e-07
3.75797e-07
3.76652e-07
3.7933e-07
3.8425e-07
3.9197e-07
4.03259e-07
4.19208e-07
4.41436e-07
4.72473e-07
5.16549e-07
5.81371e-07
6.82833e-07
8.60235e-07
1.24497e-06
2.64197e-06
3.86167e-06
1.82114e-06
1.26017e-06
1.00207e-06
8.547e-07
7.60561e-07
6.96393e-07
6.50902e-07
6.17892e-07
5.93647e-07
5.75781e-07
5.62677e-07
5.53191e-07
5.46482e-07
5.41912e-07
5.38985e-07
5.37307e-07
5.36557e-07
5.36471e-07
5.3683e-07
5.37451e-07
5.38181e-07
5.38891e-07
5.39471e-07
5.39829e-07
5.39892e-07
5.39601e-07
5.38906e-07
5.37771e-07
5.3617e-07
5.34086e-07
5.31509e-07
5.2844e-07
5.24883e-07
5.2085e-07
5.16358e-07
5.11429e-07
5.06087e-07
5.00363e-07
4.94287e-07
4.87895e-07
4.81225e-07
4.74315e-07
4.67208e-07
4.59946e-07
4.52574e-07
4.45138e-07
4.37687e-07
4.30272e-07
4.22946e-07
4.15767e-07
4.08795e-07
4.02097e-07
3.95743e-07
3.89813e-07
3.84397e-07
3.79598e-07
3.75531e-07
3.72337e-07
3.7018e-07
3.69262e-07
3.6983e-07
3.72199e-07
3.7678e-07
3.84118e-07
3.94962e-07
4.10378e-07
4.31947e-07
4.62144e-07
5.051e-07
5.68349e-07
6.67424e-07
8.40733e-07
1.21669e-06
2.58191e-06
3.9589e-06
1.86699e-06
1.29187e-06
1.02723e-06
8.76099e-07
7.79533e-07
7.1369e-07
6.66996e-07
6.33097e-07
6.08184e-07
5.89809e-07
5.76312e-07
5.66517e-07
5.59558e-07
5.54779e-07
5.51665e-07
5.49809e-07
5.4888e-07
5.48604e-07
5.48752e-07
5.49137e-07
5.49598e-07
5.50002e-07
5.50236e-07
5.50211e-07
5.49849e-07
5.4909e-07
5.47889e-07
5.46209e-07
5.44028e-07
5.41332e-07
5.38116e-07
5.34384e-07
5.30146e-07
5.25418e-07
5.20221e-07
5.14582e-07
5.08532e-07
5.02102e-07
4.95331e-07
4.88257e-07
4.80922e-07
4.73367e-07
4.65636e-07
4.57775e-07
4.4983e-07
4.41849e-07
4.33882e-07
4.2598e-07
4.18196e-07
4.10586e-07
4.03209e-07
3.96131e-07
3.89421e-07
3.83155e-07
3.7742e-07
3.72315e-07
3.67951e-07
3.64463e-07
3.62009e-07
3.60786e-07
3.61029e-07
3.63045e-07
3.67231e-07
3.74115e-07
3.84421e-07
3.99186e-07
4.19943e-07
4.49094e-07
4.90647e-07
5.51918e-07
6.47983e-07
8.16124e-07
1.18099e-06
2.5061e-06
4.05611e-06
1.91283e-06
1.32354e-06
1.05235e-06
8.9744e-07
7.98437e-07
7.30914e-07
6.83013e-07
6.48227e-07
6.22651e-07
6.03773e-07
5.89892e-07
5.79798e-07
5.72599e-07
5.67617e-07
5.64322e-07
5.62291e-07
5.61181e-07
5.60707e-07
5.60633e-07
5.60761e-07
5.60928e-07
5.60993e-07
5.60845e-07
5.60389e-07
5.59548e-07
5.58264e-07
5.56491e-07
5.54198e-07
5.51365e-07
5.47981e-07
5.44049e-07
5.39575e-07
5.34575e-07
5.29071e-07
5.23091e-07
5.16666e-07
5.09831e-07
5.02626e-07
4.95093e-07
4.87273e-07
4.79213e-07
4.70957e-07
4.62552e-07
4.54046e-07
4.45488e-07
4.36927e-07
4.28411e-07
4.19993e-07
4.11726e-07
4.03664e-07
3.95866e-07
3.88392e-07
3.81312e-07
3.74697e-07
3.6863e-07
3.63205e-07
3.5853e-07
3.54731e-07
3.51961e-07
3.50408e-07
3.50295e-07
3.51918e-07
3.55656e-07
3.62019e-07