/*--------------------------------*- C++ -*----------------------------------*\
  =========                 |
  \\      /  F ield         | OpenFOAM: The Open Source CFD Toolbox
   \\    /   O peration     | Website:  https://openfoam.org
    \\  /    A nd           | Version:  12
     \\/     M anipulation  |
\*---------------------------------------------------------------------------*/
FoamFile
{
    format      ascii;
    class       volScalarField;
    location    "3";
    object      k;
}
// * * * * * * * * * * * * * * * * * * * * * * * * * * * * * * * * * * * * * //

dimensions      [0 2 -2 0 0 0 0];

internalField   nonuniform List<scalar> 
5625
(
2.5165e-12
1.90076e-11
4.02795e-11
6.56573e-11
9.42274e-11
1.25299e-10
1.58366e-10
1.93038e-10
2.28994e-10
2.65954e-10
3.03671e-10
3.41913e-10
3.80467e-10
4.1913e-10
4.57707e-10
4.96016e-10
5.33879e-10
5.71127e-10
6.07596e-10
6.4313e-10
6.77581e-10
7.10807e-10
7.42671e-10
7.73047e-10
8.01814e-10
8.28859e-10
8.54078e-10
8.77373e-10
8.98656e-10
9.17847e-10
9.34874e-10
9.49676e-10
9.62198e-10
9.72395e-10
9.80232e-10
9.85683e-10
9.8873e-10
9.89364e-10
9.87589e-10
9.83412e-10
9.76854e-10
9.67941e-10
9.5671e-10
9.43208e-10
9.27487e-10
9.09611e-10
8.8965e-10
8.67681e-10
8.4379e-10
8.18072e-10
7.90625e-10
7.61559e-10
7.30987e-10
6.99029e-10
6.65813e-10
6.31472e-10
5.96144e-10
5.59975e-10
5.23116e-10
4.85722e-10
4.47957e-10
4.09988e-10
3.71993e-10
3.34155e-10
2.96666e-10
2.59731e-10
2.23568e-10
1.88415e-10
1.54539e-10
1.22249e-10
9.19201e-11
6.40421e-11
3.92851e-11
1.85371e-11
2.45411e-12
1.70214e-11
1.51515e-10
3.45185e-10
5.76672e-10
8.35926e-10
1.11689e-09
1.41532e-09
1.72788e-09
2.05178e-09
2.3846e-09
2.72412e-09
3.0683e-09
3.41523e-09
3.7631e-09
4.11017e-09
4.4548e-09
4.7954e-09
5.13044e-09
5.45847e-09
5.77809e-09
6.08795e-09
6.38678e-09
6.67336e-09
6.94655e-09
7.20527e-09
7.44849e-09
7.67529e-09
7.88478e-09
8.07618e-09
8.24877e-09
8.4019e-09
8.53501e-09
8.64761e-09
8.73931e-09
8.80979e-09
8.85881e-09
8.8862e-09
8.89191e-09
8.87593e-09
8.83836e-09
8.77936e-09
8.69919e-09
8.59819e-09
8.47675e-09
8.33537e-09
8.1746e-09
7.99508e-09
7.7975e-09
7.58265e-09
7.35135e-09
7.10452e-09
6.84311e-09
6.56816e-09
6.28074e-09
5.98201e-09
5.67315e-09
5.35541e-09
5.03009e-09
4.69855e-09
4.36219e-09
4.02247e-09
3.6809e-09
3.33905e-09
2.99858e-09
2.66119e-09
2.32872e-09
2.00311e-09
1.68645e-09
1.38109e-09
1.08969e-09
8.15443e-10
5.62478e-10
3.3666e-10
1.47765e-10
1.65995e-11
3.78434e-11
3.39387e-10
7.78278e-10
1.30656e-09
1.90063e-09
2.54592e-09
3.23214e-09
3.95132e-09
4.69685e-09
5.46302e-09
6.24466e-09
7.03705e-09
7.83576e-09
8.63661e-09
9.43562e-09
1.0229e-08
1.1013e-08
1.17843e-08
1.25393e-08
1.3275e-08
1.39882e-08
1.46761e-08
1.53357e-08
1.59644e-08
1.65599e-08
1.71197e-08
1.76416e-08
1.81238e-08
1.85642e-08
1.89614e-08
1.93138e-08
1.96201e-08
1.98792e-08
2.00902e-08
2.02523e-08
2.03651e-08
2.04281e-08
2.04412e-08
2.04043e-08
2.03178e-08
2.0182e-08
1.99975e-08
1.9765e-08
1.94855e-08
1.91601e-08
1.879e-08
1.83768e-08
1.79221e-08
1.74276e-08
1.68953e-08
1.63272e-08
1.57255e-08
1.50927e-08
1.44312e-08
1.37436e-08
1.30327e-08
1.23014e-08
1.15526e-08
1.07895e-08
1.00152e-08
9.23324e-09
8.44698e-09
7.66007e-09
6.87631e-09
6.09967e-09
5.33434e-09
4.58485e-09
3.85609e-09
3.15355e-09
2.48357e-09
1.85381e-09
1.27423e-09
7.58955e-10
3.30942e-10
3.69001e-11
6.26014e-11
5.62344e-10
1.29228e-09
2.17394e-09
3.16819e-09
4.2504e-09
5.40294e-09
6.61205e-09
7.86633e-09
9.15592e-09
1.0472e-08
1.18064e-08
1.31516e-08
1.45006e-08
1.58466e-08
1.7183e-08
1.85039e-08
1.98032e-08
2.10752e-08
2.23146e-08
2.35161e-08
2.46748e-08
2.5786e-08
2.68452e-08
2.78483e-08
2.87912e-08
2.96704e-08
3.04825e-08
3.12244e-08
3.18934e-08
3.24868e-08
3.30026e-08
3.3439e-08
3.37942e-08
3.40672e-08
3.42569e-08
3.43629e-08
3.43847e-08
3.43225e-08
3.41766e-08
3.39476e-08
3.36366e-08
3.32447e-08
3.27737e-08
3.22254e-08
3.16019e-08
3.09058e-08
3.01396e-08
2.93065e-08
2.84097e-08
2.74526e-08
2.6439e-08
2.53729e-08
2.42586e-08
2.31003e-08
2.19028e-08
2.06709e-08
1.94096e-08
1.81241e-08
1.682e-08
1.55029e-08
1.41787e-08
1.28535e-08
1.15337e-08
1.02261e-08
8.93786e-09
7.67665e-09
6.45092e-09
5.2701e-09
4.14512e-09
3.08925e-09
2.11953e-09
1.25983e-09
5.48188e-10
6.1023e-11
9.01893e-11
8.10651e-10
1.86462e-09
3.14e-09
4.58075e-09
6.15133e-09
7.826e-09
9.58456e-09
1.14102e-08
1.32882e-08
1.52056e-08
1.71503e-08
1.91114e-08
2.10782e-08
2.30408e-08
2.49899e-08
2.69162e-08
2.88113e-08
3.06666e-08
3.24744e-08
3.4227e-08
3.59171e-08
3.75378e-08
3.90828e-08
4.05458e-08
4.19211e-08
4.32034e-08
4.43878e-08
4.54697e-08
4.64451e-08
4.73105e-08
4.80625e-08
4.86986e-08
4.92164e-08
4.96141e-08
4.98904e-08
5.00444e-08
5.00758e-08
4.99846e-08
4.97713e-08
4.94368e-08
4.89826e-08
4.84107e-08
4.77232e-08
4.6923e-08
4.60132e-08
4.49974e-08
4.38795e-08
4.2664e-08
4.13556e-08
3.99594e-08
3.84809e-08
3.69258e-08
3.53004e-08
3.3611e-08
3.18645e-08
3.00678e-08
2.82284e-08
2.6354e-08
2.44525e-08
2.25323e-08
2.06019e-08
1.86703e-08
1.67471e-08
1.48421e-08
1.2966e-08
1.113e-08
9.3467e-09
7.63003e-09
5.99613e-09
4.46449e-09
3.05993e-09
1.81691e-09
7.89858e-10
8.78722e-11
1.1991e-10
1.0781e-09
2.48098e-09
4.18034e-09
6.10216e-09
8.19932e-09
1.04376e-08
1.27897e-08
1.52332e-08
1.77482e-08
2.0317e-08
2.29234e-08
2.55524e-08
2.81897e-08
3.08218e-08
3.34361e-08
3.60202e-08
3.85625e-08
4.10517e-08
4.34772e-08
4.58286e-08
4.80963e-08
5.0271e-08
5.23438e-08
5.43067e-08
5.61519e-08
5.78722e-08
5.9461e-08
6.09123e-08
6.22207e-08
6.33812e-08
6.43897e-08
6.52424e-08
6.59364e-08
6.64692e-08
6.68391e-08
6.70448e-08
6.70859e-08
6.69626e-08
6.66754e-08
6.62256e-08
6.56152e-08
6.48468e-08
6.39234e-08
6.28488e-08
6.16271e-08
6.02634e-08
5.87628e-08
5.71312e-08
5.53751e-08
5.35013e-08
5.15171e-08
4.94304e-08
4.72494e-08
4.49828e-08
4.26397e-08
4.02296e-08
3.77624e-08
3.52485e-08
3.26986e-08
3.0124e-08
2.75362e-08
2.49474e-08
2.23704e-08
1.98187e-08
1.73065e-08
1.48493e-08
1.24639e-08
1.01692e-08
7.9869e-09
5.94309e-09
4.07084e-09
2.41576e-09
1.04969e-09
1.16745e-10
1.51253e-10
1.3601e-09
3.13081e-09
5.27712e-09
7.70612e-09
1.03586e-08
1.31915e-08
1.61704e-08
1.92666e-08
2.2455e-08
2.57128e-08
2.90195e-08
3.23556e-08
3.57031e-08
3.90447e-08
4.23641e-08
4.56456e-08
4.88743e-08
5.20358e-08
5.51164e-08
5.81031e-08
6.09835e-08
6.37457e-08
6.63786e-08
6.88717e-08
7.12152e-08
7.33999e-08
7.54176e-08
7.72604e-08
7.89215e-08
8.03947e-08
8.16746e-08
8.27565e-08
8.36367e-08
8.43121e-08
8.47803e-08
8.50401e-08
8.50906e-08
8.49322e-08
8.45656e-08
8.39924e-08
8.32153e-08
8.22374e-08
8.10628e-08
7.96961e-08
7.81428e-08
7.6409e-08
7.45016e-08
7.2428e-08
7.01963e-08
6.78153e-08
6.52943e-08
6.26433e-08
5.98729e-08
5.6994e-08
5.40182e-08
5.09578e-08
4.78253e-08
4.46339e-08
4.13974e-08
3.813e-08
3.48466e-08
3.15628e-08
2.82948e-08
2.50599e-08
2.18764e-08
1.87638e-08
1.57437e-08
1.28402e-08
1.00806e-08
7.49797e-09
5.13387e-09
3.04551e-09
1.32295e-09
1.47115e-10
1.83808e-10
1.653e-09
3.80568e-09
6.41608e-09
9.37172e-09
1.2601e-08
1.60515e-08
1.96816e-08
2.34562e-08
2.73447e-08
3.13193e-08
3.53545e-08
3.94268e-08
4.35138e-08
4.75944e-08
5.16484e-08
5.56566e-08
5.96006e-08
6.34628e-08
6.72264e-08
7.08753e-08
7.43943e-08
7.7769e-08
8.09855e-08
8.40311e-08
8.68938e-08
8.95623e-08
9.20265e-08
9.42769e-08
9.6305e-08
9.81033e-08
9.96652e-08
1.00985e-07
1.02058e-07
1.02881e-07
1.03451e-07
1.03765e-07
1.03824e-07
1.03628e-07
1.03177e-07
1.02474e-07
1.01521e-07
1.00324e-07
9.88859e-08
9.72134e-08
9.53131e-08
9.31925e-08
9.08598e-08
8.83244e-08
8.55961e-08
8.26857e-08
7.96047e-08
7.63652e-08
7.29801e-08
6.9463e-08
6.58281e-08
6.20903e-08
5.8265e-08
5.43686e-08
5.04177e-08
4.643e-08
4.24236e-08
3.84177e-08
3.44322e-08
3.04883e-08
2.66083e-08
2.28164e-08
1.91387e-08
1.56045e-08
1.22473e-08
9.10696e-09
6.2339e-09
3.69721e-09
1.60576e-09
1.78547e-10
2.17232e-10
1.9537e-09
4.4985e-09
7.58525e-09
1.10814e-08
1.49026e-08
1.89871e-08
2.32857e-08
2.77569e-08
3.23643e-08
3.70751e-08
4.18589e-08
4.66877e-08
5.15348e-08
5.6375e-08
6.11842e-08
6.59396e-08
7.06192e-08
7.5202e-08
7.96679e-08
8.39977e-08
8.81734e-08
9.21776e-08
9.59941e-08
9.96075e-08
1.03004e-07
1.06169e-07
1.09091e-07
1.1176e-07
1.14164e-07
1.16296e-07
1.18146e-07
1.19709e-07
1.20979e-07
1.21952e-07
1.22624e-07
1.22993e-07
1.23059e-07
1.22822e-07
1.22282e-07
1.21443e-07
1.20309e-07
1.18883e-07
1.17173e-07
1.15184e-07
1.12925e-07
1.10405e-07
1.07634e-07
1.04622e-07
1.01382e-07
9.79268e-08
9.42692e-08
9.04241e-08
8.64069e-08
8.22337e-08
7.79214e-08
7.34877e-08
6.89512e-08
6.4331e-08
5.96472e-08
5.49207e-08
5.01732e-08
4.54274e-08
4.07071e-08
3.60373e-08
3.14447e-08
2.69578e-08
2.26077e-08
1.84289e-08
1.44609e-08
1.07509e-08
7.3578e-09
4.36309e-09
1.89474e-09
2.10666e-10
2.51229e-10
2.25954e-09
5.20312e-09
8.77427e-09
1.282e-08
1.7243e-08
2.19721e-08
2.69503e-08
3.21298e-08
3.74683e-08
4.29277e-08
4.84728e-08
5.4071e-08
5.96912e-08
6.53041e-08
7.08816e-08
7.6397e-08
8.18248e-08
8.71405e-08
9.23206e-08
9.73428e-08
1.02186e-07
1.0683e-07
1.11256e-07
1.15446e-07
1.19384e-07
1.23053e-07
1.26441e-07
1.29533e-07
1.32319e-07
1.34787e-07
1.36929e-07
1.38737e-07
1.40205e-07
1.41328e-07
1.42101e-07
1.42523e-07
1.42593e-07
1.42311e-07
1.41679e-07
1.407e-07
1.39377e-07
1.37718e-07
1.35728e-07
1.33415e-07
1.3079e-07
1.27862e-07
1.24643e-07
1.21146e-07
1.17384e-07
1.13373e-07
1.09129e-07
1.04667e-07
1.00007e-07
9.51671e-08
9.01666e-08
8.50262e-08
7.97676e-08
7.44131e-08
6.8986e-08
6.35106e-08
5.8012e-08
5.25167e-08
4.70523e-08
4.16478e-08
3.63341e-08
3.11443e-08
2.61141e-08
2.12837e-08
1.66984e-08
1.24124e-08
8.49377e-09
5.03614e-09
2.18684e-09
2.43133e-10
2.85535e-10
2.56816e-09
5.91411e-09
9.97397e-09
1.45742e-08
1.96043e-08
2.49834e-08
3.06471e-08
3.65408e-08
4.26166e-08
4.88309e-08
5.51438e-08
6.15178e-08
6.79175e-08
7.43093e-08
8.06614e-08
8.6943e-08
9.31248e-08
9.91789e-08
1.05078e-07
1.10798e-07
1.16313e-07
1.21602e-07
1.26641e-07
1.31411e-07
1.35892e-07
1.40068e-07
1.43922e-07
1.47439e-07
1.50606e-07
1.53411e-07
1.55844e-07
1.57896e-07
1.5956e-07
1.6083e-07
1.61702e-07
1.62174e-07
1.62245e-07
1.61915e-07
1.61186e-07
1.60062e-07
1.58547e-07
1.56648e-07
1.54374e-07
1.51732e-07
1.48735e-07
1.45394e-07
1.41722e-07
1.37734e-07
1.33446e-07
1.28875e-07
1.24038e-07
1.18956e-07
1.13648e-07
1.08137e-07
1.02444e-07
9.6593e-08
9.06087e-08
8.45165e-08
7.8343e-08
7.21158e-08
6.58637e-08
5.96168e-08
5.34063e-08
4.72656e-08
4.12294e-08
3.53354e-08
2.96244e-08
2.41414e-08
1.8938e-08
1.40755e-08
9.63091e-09
5.70988e-09
2.47925e-09
2.75635e-10
3.19919e-10
2.87747e-09
6.62666e-09
1.11762e-08
1.6332e-08
2.19702e-08
2.80006e-08
3.43508e-08
4.09598e-08
4.77738e-08
5.4744e-08
6.18253e-08
6.89758e-08
7.61555e-08
8.33268e-08
9.04535e-08
9.75012e-08
1.04437e-07
1.11229e-07
1.17847e-07
1.24263e-07
1.30449e-07
1.3638e-07
1.4203e-07
1.47378e-07
1.52401e-07
1.5708e-07
1.61397e-07
1.65335e-07
1.68879e-07
1.72017e-07
1.74737e-07
1.77028e-07
1.78884e-07
1.80298e-07
1.81264e-07
1.81782e-07
1.81849e-07
1.81466e-07
1.80636e-07
1.79363e-07
1.77651e-07
1.7551e-07
1.72948e-07
1.69975e-07
1.66603e-07
1.62846e-07
1.5872e-07
1.5424e-07
1.49424e-07
1.44292e-07
1.38864e-07
1.33161e-07
1.27207e-07
1.21026e-07
1.14642e-07
1.08083e-07
1.01376e-07
9.45498e-08
8.76336e-08
8.06588e-08
7.36575e-08
6.66636e-08
5.97121e-08
5.284e-08
4.60866e-08
3.94937e-08
3.31069e-08
2.69764e-08
2.11599e-08
1.57255e-08
1.0759e-08
6.37829e-09
2.76934e-09
3.07879e-10
3.54173e-10
3.1856e-09
7.33647e-09
1.23738e-08
1.80828e-08
2.43267e-08
3.10054e-08
3.8039e-08
4.53599e-08
5.29084e-08
6.06304e-08
6.84761e-08
7.63985e-08
8.43537e-08
9.22994e-08
1.00196e-07
1.08004e-07
1.15688e-07
1.23212e-07
1.30543e-07
1.37648e-07
1.44499e-07
1.51064e-07
1.57319e-07
1.63236e-07
1.68794e-07
1.73968e-07
1.78741e-07
1.83092e-07
1.87007e-07
1.9047e-07
1.93469e-07
1.95992e-07
1.98033e-07
1.99582e-07
2.00637e-07
2.01194e-07
2.01251e-07
2.00811e-07
1.99875e-07
1.98448e-07
1.96538e-07
1.94151e-07
1.91299e-07
1.87993e-07
1.84246e-07
1.80075e-07
1.75495e-07
1.70525e-07
1.65185e-07
1.59495e-07
1.5348e-07
1.47163e-07
1.40568e-07
1.33724e-07
1.26658e-07
1.194e-07
1.11979e-07
1.04427e-07
9.67784e-08
8.90664e-08
8.13268e-08
7.35969e-08
6.59156e-08
5.83236e-08
5.08642e-08
4.35836e-08
3.65319e-08
2.97646e-08
2.3345e-08
1.73481e-08
1.18684e-08
7.0356e-09
3.05463e-09
3.3959e-10
3.88113e-10
3.49091e-09
8.03974e-09
1.35603e-08
1.98173e-08
2.66609e-08
3.39815e-08
4.16917e-08
4.97171e-08
5.79923e-08
6.6458e-08
7.50594e-08
8.37449e-08
9.2466e-08
1.01176e-07
1.09832e-07
1.18391e-07
1.26812e-07
1.35057e-07
1.43089e-07
1.50873e-07
1.58376e-07
1.65565e-07
1.72412e-07
1.78888e-07
1.84967e-07
1.90625e-07
1.95841e-07
2.00594e-07
2.04867e-07
2.08644e-07
2.11911e-07
2.14656e-07
2.16871e-07
2.18548e-07
2.19682e-07
2.2027e-07
2.20311e-07
2.19807e-07
2.1876e-07
2.17176e-07
2.15062e-07
2.12428e-07
2.09285e-07
2.05647e-07
2.01527e-07
1.96944e-07
1.91914e-07
1.8646e-07
1.80601e-07
1.74363e-07
1.67769e-07
1.60847e-07
1.53624e-07
1.46129e-07
1.38393e-07
1.30449e-07
1.22328e-07
1.14068e-07
1.05702e-07
9.72692e-08
8.88082e-08
8.03595e-08
7.19655e-08
6.36708e-08
5.55226e-08
4.75711e-08
3.9871e-08
3.24827e-08
2.54751e-08
1.89298e-08
1.29498e-08
7.67636e-09
3.33272e-09
3.70502e-10
4.21578e-10
3.79194e-09
8.73314e-09
1.47301e-08
2.15272e-08
2.89618e-08
3.6915e-08
4.52914e-08
5.40105e-08
6.30011e-08
7.21985e-08
8.15429e-08
9.09784e-08
1.00452e-07
1.09913e-07
1.19314e-07
1.28608e-07
1.37751e-07
1.46702e-07
1.5542e-07
1.63866e-07
1.72005e-07
1.79801e-07
1.87223e-07
1.94241e-07
2.00826e-07
2.06952e-07
2.12595e-07
2.17734e-07
2.2235e-07
2.26426e-07
2.29946e-07
2.329e-07
2.35277e-07
2.37069e-07
2.38271e-07
2.3888e-07
2.38896e-07
2.3832e-07
2.37156e-07
2.35411e-07
2.33091e-07
2.30209e-07
2.26775e-07
2.22806e-07
2.18316e-07
2.13325e-07
2.07853e-07
2.01922e-07
1.95555e-07
1.88779e-07
1.8162e-07
1.74106e-07
1.6627e-07
1.58141e-07
1.49753e-07
1.41142e-07
1.32343e-07
1.23393e-07
1.14333e-07
1.05201e-07
9.60411e-08
8.68964e-08
7.78128e-08
6.88383e-08
6.00239e-08
5.14238e-08
4.3097e-08
3.51086e-08
2.75328e-08
2.04578e-08
1.39945e-08
8.2953e-09
3.60135e-09
4.00361e-10
4.5443e-10
4.08744e-09
9.41378e-09
1.58783e-08
2.32054e-08
3.12199e-08
3.97933e-08
4.88231e-08
5.8222e-08
6.79133e-08
7.78271e-08
8.78987e-08
9.80676e-08
1.08276e-07
1.18471e-07
1.28598e-07
1.38609e-07
1.48455e-07
1.58092e-07
1.67475e-07
1.76563e-07
1.85318e-07
1.93701e-07
2.01678e-07
2.09216e-07
2.16286e-07
2.22859e-07
2.28909e-07
2.34415e-07
2.39355e-07
2.43711e-07
2.47468e-07
2.50613e-07
2.53136e-07
2.55028e-07
2.56285e-07
2.56904e-07
2.56884e-07
2.56229e-07
2.54941e-07
2.53028e-07
2.50499e-07
2.47367e-07
2.43643e-07
2.39345e-07
2.3449e-07
2.29099e-07
2.23192e-07
2.16795e-07
2.09933e-07
2.02633e-07
1.94924e-07
1.86838e-07
1.78408e-07
1.69666e-07
1.6065e-07
1.51395e-07
1.41942e-07
1.3233e-07
1.22601e-07
1.12798e-07
1.02967e-07
9.31551e-08
8.34102e-08
7.37842e-08
6.43316e-08
5.51104e-08
4.61836e-08
3.76208e-08
2.95013e-08
2.19195e-08
1.49938e-08
8.88737e-09
3.85831e-09
4.28924e-10
4.8655e-10
4.37637e-09
1.00792e-08
1.70007e-08
2.48459e-08
3.34269e-08
4.26062e-08
5.22738e-08
6.23362e-08
7.2711e-08
8.3323e-08
9.41029e-08
1.04985e-07
1.15909e-07
1.26815e-07
1.37648e-07
1.48353e-07
1.58879e-07
1.69179e-07
1.79203e-07
1.8891e-07
1.98255e-07
2.072e-07
2.15707e-07
2.23742e-07
2.31272e-07
2.38267e-07
2.44701e-07
2.50549e-07
2.5579e-07
2.60405e-07
2.64377e-07
2.67693e-07
2.70343e-07
2.72319e-07
2.73616e-07
2.7423e-07
2.74163e-07
2.73417e-07
2.71997e-07
2.69911e-07
2.67169e-07
2.63784e-07
2.59771e-07
2.55148e-07
2.49934e-07
2.4415e-07
2.37819e-07
2.30969e-07
2.23626e-07
2.1582e-07
2.07582e-07
1.98945e-07
1.89943e-07
1.80615e-07
1.70996e-07
1.61127e-07
1.5105e-07
1.40806e-07
1.30441e-07
1.2e-07
1.09531e-07
9.90847e-08
8.87122e-08
7.84683e-08
6.84106e-08
5.86008e-08
4.91056e-08
3.99988e-08
3.13646e-08
2.33029e-08
1.59395e-08
9.44769e-09
4.10149e-09
4.55954e-10
5.17844e-10
4.65786e-09
1.07275e-08
1.80942e-08
2.64438e-08
3.55763e-08
4.53452e-08
5.56332e-08
6.63406e-08
7.73792e-08
8.8669e-08
1.00136e-07
1.1171e-07
1.23325e-07
1.34919e-07
1.46432e-07
1.57806e-07
1.68987e-07
1.79922e-07
1.90561e-07
2.00857e-07
2.10765e-07
2.20244e-07
2.29253e-07
2.37755e-07
2.45716e-07
2.53106e-07
2.59896e-07
2.66059e-07
2.71575e-07
2.76422e-07
2.80585e-07
2.84049e-07
2.86805e-07
2.88844e-07
2.90161e-07
2.90755e-07
2.90625e-07
2.89777e-07
2.88215e-07
2.85948e-07
2.82989e-07
2.7935e-07
2.75049e-07
2.70104e-07
2.64536e-07
2.58369e-07
2.51627e-07
2.44338e-07
2.36532e-07
2.2824e-07
2.19494e-07
2.10331e-07
2.00787e-07
1.909e-07
1.8071e-07
1.7026e-07
1.59593e-07
1.48753e-07
1.37788e-07
1.26747e-07
1.15679e-07
1.04636e-07
9.3675e-08
8.28516e-08
7.2227e-08
6.18659e-08
5.18385e-08
4.22227e-08
3.31069e-08
2.45963e-08
1.68237e-08
9.97154e-09
4.32884e-09
4.81224e-10
5.48239e-10
4.93125e-09
1.13571e-08
1.9156e-08
2.79953e-08
3.7663e-08
4.80038e-08
5.88932e-08
7.02253e-08
8.19065e-08
9.38516e-08
1.05982e-07
1.18223e-07
1.30505e-07
1.4276e-07
1.54926e-07
1.66941e-07
1.78746e-07
1.90287e-07
2.01511e-07
2.12366e-07
2.22806e-07
2.32786e-07
2.42264e-07
2.51202e-07
2.59563e-07
2.67315e-07
2.74428e-07
2.80876e-07
2.86636e-07
2.91686e-07
2.96012e-07
2.99598e-07
3.02434e-07
3.04512e-07
3.05829e-07
3.06382e-07
3.06174e-07
3.05209e-07
3.03493e-07
3.01038e-07
2.97855e-07
2.9396e-07
2.89371e-07
2.84108e-07
2.78194e-07
2.71653e-07
2.64513e-07
2.56802e-07
2.48552e-07
2.39796e-07
2.30569e-07
2.20908e-07
2.10851e-07
2.00439e-07
1.89713e-07
1.78719e-07
1.675e-07
1.56105e-07
1.44582e-07
1.32982e-07
1.21357e-07
1.09763e-07
9.82563e-08
8.68968e-08
7.5748e-08
6.48776e-08
5.43589e-08
4.42732e-08
3.47131e-08
2.57887e-08
1.76388e-08
1.04544e-08
4.53838e-09
5.04516e-10
5.77683e-10
5.19608e-09
1.1967e-08
2.01845e-08
2.94978e-08
3.96834e-08
5.05773e-08
6.20479e-08
7.39834e-08
8.62845e-08
9.88612e-08
1.1163e-07
1.24512e-07
1.37432e-07
1.50321e-07
1.63111e-07
1.75736e-07
1.88135e-07
2.0025e-07
2.12024e-07
2.23404e-07
2.34341e-07
2.44788e-07
2.547e-07
2.64037e-07
2.72761e-07
2.8084e-07
2.88242e-07
2.94939e-07
3.00909e-07
3.0613e-07
3.10586e-07
3.14263e-07
3.17151e-07
3.19242e-07
3.20534e-07
3.21025e-07
3.20719e-07
3.19621e-07
3.17738e-07
3.15083e-07
3.1167e-07
3.07516e-07
3.02639e-07
2.97062e-07
2.90808e-07
2.83905e-07
2.76381e-07
2.68266e-07
2.59593e-07
2.50398e-07
2.40717e-07
2.30588e-07
2.20053e-07
2.09151e-07
1.97929e-07
1.86431e-07
1.74704e-07
1.62798e-07
1.50763e-07
1.38651e-07
1.26518e-07
1.14419e-07
1.02415e-07
9.05677e-08
7.89421e-08
6.76089e-08
5.6644e-08
4.6132e-08
3.6169e-08
2.68693e-08
1.83773e-08
1.08919e-08
4.72823e-09
5.25617e-10
6.06147e-10
5.4521e-09
1.25565e-08
2.11785e-08
3.09497e-08
4.16354e-08
5.30631e-08
6.50941e-08
7.76107e-08
9.05083e-08
1.03692e-07
1.17073e-07
1.30568e-07
1.44099e-07
1.57591e-07
1.70973e-07
1.84176e-07
1.97136e-07
2.09789e-07
2.22078e-07
2.33947e-07
2.45344e-07
2.56218e-07
2.66525e-07
2.76222e-07
2.85271e-07
2.93637e-07
3.01288e-07
3.08196e-07
3.14338e-07
3.19693e-07
3.24244e-07
3.27978e-07
3.30886e-07
3.3296e-07
3.342e-07
3.34604e-07
3.34177e-07
3.32927e-07
3.30862e-07
3.27996e-07
3.24344e-07
3.19925e-07
3.1476e-07
3.08871e-07
3.02286e-07
2.95031e-07
2.87138e-07
2.78638e-07
2.69566e-07
2.59959e-07
2.49854e-07
2.39291e-07
2.28313e-07
2.16962e-07
2.05285e-07
1.93328e-07
1.8114e-07
1.68771e-07
1.56273e-07
1.43702e-07
1.31112e-07
1.18562e-07
1.06113e-07
9.38297e-08
8.17792e-08
7.00339e-08
5.86722e-08
4.77813e-08
3.74604e-08
2.78276e-08
1.90322e-08
1.12798e-08
4.89656e-09
5.44327e-10
6.33624e-10
5.69922e-09
1.31255e-08
2.21378e-08
3.23508e-08
4.35185e-08
5.54603e-08
6.80307e-08
8.11059e-08
9.4576e-08
1.08341e-07
1.22307e-07
1.36388e-07
1.505e-07
1.64564e-07
1.78506e-07
1.92253e-07
2.05738e-07
2.18894e-07
2.3166e-07
2.43978e-07
2.55794e-07
2.67055e-07
2.77715e-07
2.8773e-07
2.97061e-07
3.05671e-07
3.13528e-07
3.20605e-07
3.26877e-07
3.32325e-07
3.36931e-07
3.40685e-07
3.43576e-07
3.456e-07
3.46756e-07
3.47045e-07
3.46473e-07
3.45049e-07
3.42784e-07
3.39692e-07
3.35792e-07
3.31102e-07
3.25646e-07
3.19449e-07
3.12539e-07
3.04945e-07
2.96698e-07
2.87833e-07
2.78386e-07
2.68395e-07
2.57898e-07
2.46937e-07
2.35556e-07
2.23799e-07
2.11712e-07
1.99344e-07
1.86745e-07
1.73966e-07
1.6106e-07
1.48084e-07
1.35093e-07
1.22149e-07
1.09312e-07
9.665e-08
8.42304e-08
7.21279e-08
6.04228e-08
4.92043e-08
3.85743e-08
2.8654e-08
1.95968e-08
1.16142e-08
5.04165e-09
5.60453e-10
6.60127e-10
5.9376e-09
1.36743e-08
2.30629e-08
3.37015e-08
4.53336e-08
5.77701e-08
7.08589e-08
8.44702e-08
9.84889e-08
1.1281e-07
1.27335e-07
1.41972e-07
1.56635e-07
1.7124e-07
1.85708e-07
1.99965e-07
2.13937e-07
2.27557e-07
2.40761e-07
2.53487e-07
2.65679e-07
2.77284e-07
2.88252e-07
2.98539e-07
3.08105e-07
3.16912e-07
3.2493e-07
3.32129e-07
3.38486e-07
3.43981e-07
3.486e-07
3.52331e-07
3.55167e-07
3.57103e-07
3.58141e-07
3.58283e-07
3.57538e-07
3.55916e-07
3.5343e-07
3.50096e-07
3.45935e-07
3.40967e-07
3.35218e-07
3.28715e-07
3.21486e-07
3.13563e-07
3.0498e-07
2.95771e-07
2.85974e-07
2.75628e-07
2.64774e-07
2.53453e-07
2.41711e-07
2.29592e-07
2.17145e-07
2.04418e-07
1.91461e-07
1.78328e-07
1.65072e-07
1.5175e-07
1.38419e-07
1.25141e-07
1.11978e-07
9.89973e-08
8.62687e-08
7.38677e-08
6.18763e-08
5.03851e-08
3.94982e-08
2.93392e-08
2.00648e-08
1.18913e-08
5.16188e-09
5.73815e-10
6.85692e-10
6.16752e-09
1.42037e-08
2.3955e-08
3.50039e-08
4.7083e-08
5.99953e-08
7.35822e-08
8.77078e-08
1.02252e-07
1.17103e-07
1.3216e-07
1.47326e-07
1.62509e-07
1.77623e-07
1.92584e-07
2.07313e-07
2.21736e-07
2.35781e-07
2.4938e-07
2.62471e-07
2.74995e-07
2.86896e-07
2.98125e-07
3.08636e-07
3.18387e-07
3.27342e-07
3.35469e-07
3.4274e-07
3.49132e-07
3.54627e-07
3.59211e-07
3.62874e-07
3.6561e-07
3.67418e-07
3.68299e-07
3.6826e-07
3.67311e-07
3.65463e-07
3.62732e-07
3.59138e-07
3.54702e-07
3.49447e-07
3.43401e-07
3.36592e-07
3.29051e-07
3.20811e-07
3.11907e-07
3.02375e-07
2.92255e-07
2.81586e-07
2.7041e-07
2.5877e-07
2.4671e-07
2.34279e-07
2.21522e-07
2.0849e-07
1.95234e-07
1.81806e-07
1.68262e-07
1.54657e-07
1.4105e-07
1.27502e-07
1.14077e-07
1.00843e-07
8.78686e-08
7.52316e-08
6.30144e-08
5.13089e-08
4.02204e-08
2.98746e-08
2.04303e-08
1.21076e-08
5.25573e-09
5.84245e-10
7.10374e-10
6.3895e-09
1.47146e-08
2.4816e-08
3.62605e-08
4.87703e-08
6.21407e-08
7.62062e-08
9.08251e-08
1.05871e-07
1.2123e-07
1.36793e-07
1.52459e-07
1.68133e-07
1.83723e-07
1.99142e-07
2.14309e-07
2.29143e-07
2.43572e-07
2.57524e-07
2.70935e-07
2.83743e-07
2.95893e-07
3.07332e-07
3.18015e-07
3.27899e-07
3.36948e-07
3.4513e-07
3.52419e-07
3.58793e-07
3.64235e-07
3.68732e-07
3.72277e-07
3.74866e-07
3.765e-07
3.77182e-07
3.76924e-07
3.75735e-07
3.73631e-07
3.70631e-07
3.66755e-07
3.62027e-07
3.56475e-07
3.50126e-07
3.43011e-07
3.35163e-07
3.26617e-07
3.17409e-07
3.07577e-07
2.97161e-07
2.86201e-07
2.74741e-07
2.62823e-07
2.50493e-07
2.37798e-07
2.24787e-07
2.11507e-07
1.98012e-07
1.84352e-07
1.70584e-07
1.56762e-07
1.42947e-07
1.29198e-07
1.1558e-07
1.02159e-07
8.9007e-08
7.61998e-08
6.38207e-08
5.19622e-08
4.07305e-08
3.02522e-08
2.0688e-08
1.22601e-08
5.32183e-09
5.9159e-10
7.34246e-10
6.60417e-09
1.52087e-08
2.56485e-08
3.74751e-08
5.04006e-08
6.42124e-08
7.87384e-08
9.3831e-08
1.09358e-07
1.252e-07
1.41244e-07
1.57383e-07
1.73519e-07
1.89554e-07
2.05398e-07
2.20965e-07
2.36172e-07
2.50943e-07
2.65204e-07
2.78889e-07
2.91933e-07
3.04279e-07
3.15876e-07
3.26675e-07
3.36636e-07
3.45722e-07
3.53902e-07
3.61151e-07
3.67449e-07
3.72781e-07
3.77136e-07
3.80509e-07
3.829e-07
3.8431e-07
3.84749e-07
3.84228e-07
3.82762e-07
3.80369e-07
3.7707e-07
3.72889e-07
3.67852e-07
3.61989e-07
3.5533e-07
3.47909e-07
3.39759e-07
3.30918e-07
3.21423e-07
3.11313e-07
3.00629e-07
2.89412e-07
2.77706e-07
2.65555e-07
2.53003e-07
2.40098e-07
2.26888e-07
2.13421e-07
1.99749e-07
1.85924e-07
1.71999e-07
1.58031e-07
1.44078e-07
1.30199e-07
1.16459e-07
1.02923e-07
8.96631e-08
7.67544e-08
6.42802e-08
5.2333e-08
4.1019e-08
3.04653e-08
2.08331e-08
1.23458e-08
5.35896e-09
5.95715e-10
7.57396e-10
6.81236e-09
1.56878e-08
2.64556e-08
3.86522e-08
5.198e-08
6.62183e-08
8.11883e-08
9.67365e-08
1.12725e-07
1.29029e-07
1.4553e-07
1.62117e-07
1.78685e-07
1.95134e-07
2.1137e-07
2.27301e-07
2.42842e-07
2.57913e-07
2.72438e-07
2.86347e-07
2.99577e-07
3.12067e-07
3.23765e-07
3.34624e-07
3.44602e-07
3.53665e-07
3.61782e-07
3.6893e-07
3.7509e-07
3.80251e-07
3.84404e-07
3.87547e-07
3.89684e-07
3.90817e-07
3.90963e-07
3.90135e-07
3.88351e-07
3.85631e-07
3.82002e-07
3.7749e-07
3.72124e-07
3.65936e-07
3.58959e-07
3.51229e-07
3.42782e-07
3.33657e-07
3.23891e-07
3.13527e-07
3.02604e-07
2.91165e-07
2.79254e-07
2.66914e-07
2.54191e-07
2.41131e-07
2.2778e-07
2.14189e-07
2.00406e-07
1.86483e-07
1.72473e-07
1.58431e-07
1.44413e-07
1.30479e-07
1.16691e-07
1.03114e-07
8.98191e-08
7.68804e-08
6.43804e-08
5.24111e-08
4.1078e-08
3.05078e-08
2.08615e-08
1.23624e-08
5.36609e-09
5.96506e-10
7.7993e-10
7.01498e-09
1.61541e-08
2.72408e-08
3.97971e-08
5.35154e-08
6.81671e-08
8.35667e-08
9.95543e-08
1.15987e-07
1.32732e-07
1.49668e-07
1.66678e-07
1.83653e-07
2.00486e-07
2.1708e-07
2.33339e-07
2.49174e-07
2.64503e-07
2.79246e-07
2.93331e-07
3.06693e-07
3.19272e-07
3.31014e-07
3.41872e-07
3.51806e-07
3.60781e-07
3.68769e-07
3.7575e-07
3.81707e-07
3.86632e-07
3.9052e-07
3.93372e-07
3.95193e-07
3.95994e-07
3.95794e-07
3.9461e-07
3.92463e-07
3.89378e-07
3.85385e-07
3.80513e-07
3.74795e-07
3.68267e-07
3.60963e-07
3.52922e-07
3.44182e-07
3.34783e-07
3.24765e-07
3.14169e-07
3.03038e-07
2.91413e-07
2.79339e-07
2.66858e-07
2.54015e-07
2.40856e-07
2.27428e-07
2.13776e-07
1.99951e-07
1.86002e-07
1.71979e-07
1.57937e-07
1.43931e-07
1.30018e-07
1.16259e-07
1.02717e-07
8.9462e-08
7.65667e-08
6.41121e-08
5.21889e-08
4.09016e-08
3.03755e-08
2.07703e-08
1.23081e-08
5.34246e-09
5.93876e-10
8.01961e-10
7.21309e-09
1.66099e-08
2.80083e-08
4.09158e-08
5.50148e-08
7.00689e-08
8.58857e-08
1.02299e-07
1.19159e-07
1.36329e-07
1.5368e-07
1.7109e-07
1.88445e-07
2.05634e-07
2.22554e-07
2.39105e-07
2.55196e-07
2.70739e-07
2.85653e-07
2.99865e-07
3.13306e-07
3.25916e-07
3.37641e-07
3.48435e-07
3.58258e-07
3.67078e-07
3.74869e-07
3.81613e-07
3.87298e-07
3.91918e-07
3.95472e-07
3.97966e-07
3.99409e-07
3.99818e-07
3.99216e-07
3.97623e-07
3.95066e-07
3.91574e-07
3.8718e-07
3.81919e-07
3.75827e-07
3.68942e-07
3.61302e-07
3.52947e-07
3.43919e-07
3.34257e-07
3.24004e-07
3.13202e-07
3.01893e-07
2.90119e-07
2.77924e-07
2.65351e-07
2.52443e-07
2.39244e-07
2.258e-07
2.12155e-07
1.98357e-07
1.84454e-07
1.70494e-07
1.56529e-07
1.42612e-07
1.28798e-07
1.15146e-07
1.01718e-07
8.85798e-08
7.5803e-08
6.34668e-08
5.16598e-08
4.04846e-08
3.00645e-08
2.0557e-08
1.21814e-08
5.28743e-09
5.87757e-10
8.23613e-10
7.40777e-09
1.70578e-08
2.87623e-08
4.20143e-08
5.64865e-08
7.19344e-08
8.81582e-08
1.04985e-07
1.2226e-07
1.39838e-07
1.57586e-07
1.75376e-07
1.93087e-07
2.10605e-07
2.2782e-07
2.44629e-07
2.60936e-07
2.7665e-07
2.91688e-07
3.05973e-07
3.19437e-07
3.32019e-07
3.43664e-07
3.54328e-07
3.63972e-07
3.72566e-07
3.80088e-07
3.86522e-07
3.91861e-07
3.96103e-07
3.99252e-07
4.01319e-07
4.02314e-07
4.0227e-07
4.01206e-07
3.99149e-07
3.96133e-07
3.92191e-07
3.8736e-07
3.8168e-07
3.75189e-07
3.6793e-07
3.59943e-07
3.51272e-07
3.41959e-07
3.32046e-07
3.21577e-07
3.10594e-07
2.99139e-07
2.87256e-07
2.74985e-07
2.62369e-07
2.49451e-07
2.36272e-07
2.22877e-07
2.09307e-07
1.95608e-07
1.81825e-07
1.68004e-07
1.54194e-07
1.40446e-07
1.26812e-07
1.13347e-07
1.00111e-07
8.71671e-08
7.45852e-08
6.24411e-08
5.08211e-08
3.98249e-08
2.95734e-08
2.02206e-08
1.19819e-08
5.20075e-09
5.7812e-10
8.45013e-10
7.60019e-09
1.75004e-08
2.95072e-08
4.30994e-08
5.79393e-08
7.37745e-08
9.03978e-08
1.0763e-07
1.25307e-07
1.43281e-07
1.6141e-07
1.7956e-07
1.97606e-07
2.15426e-07
2.32906e-07
2.49938e-07
2.66422e-07
2.82264e-07
2.97377e-07
3.11684e-07
3.25114e-07
3.37605e-07
3.49105e-07
3.59569e-07
3.68962e-07
3.77255e-07
3.84432e-07
3.90479e-07
3.95395e-07
3.99182e-07
4.01851e-07
4.03414e-07
4.03898e-07
4.03332e-07
4.01744e-07
3.99169e-07
3.95642e-07
3.91205e-07
3.85899e-07
3.79767e-07
3.72853e-07
3.65203e-07
3.5686e-07
3.47871e-07
3.38279e-07
3.28128e-07
3.17464e-07
3.06327e-07
2.94761e-07
2.82807e-07
2.70507e-07
2.57901e-07
2.45029e-07
2.31932e-07
2.18651e-07
2.05226e-07
1.91699e-07
1.78111e-07
1.64507e-07
1.50932e-07
1.37432e-07
1.24057e-07
1.1086e-07
9.78954e-08
8.52249e-08
7.2914e-08
6.10359e-08
4.96735e-08
3.89234e-08
2.89027e-08
1.97615e-08
1.17096e-08
5.08254e-09
5.64978e-10
8.66289e-10
7.79147e-09
1.79404e-08
3.02475e-08
4.41773e-08
5.93819e-08
7.56003e-08
9.26178e-08
1.10247e-07
1.2832e-07
1.46678e-07
1.65174e-07
1.83668e-07
2.02027e-07
2.20125e-07
2.37841e-07
2.55062e-07
2.71684e-07
2.8761e-07
3.02749e-07
3.17022e-07
3.30358e-07
3.42695e-07
3.53981e-07
3.64173e-07
3.73239e-07
3.81155e-07
3.87906e-07
3.93486e-07
3.97897e-07
4.0115e-07
4.03259e-07
4.04242e-07
4.04144e-07
4.02989e-07
4.00814e-07
3.97661e-07
3.93573e-07
3.88595e-07
3.82775e-07
3.76161e-07
3.68801e-07
3.60744e-07
3.52038e-07
3.4273e-07
3.32866e-07
3.22494e-07
3.11655e-07
3.00394e-07
2.88753e-07
2.76771e-07
2.6449e-07
2.51947e-07
2.39181e-07
2.26229e-07
2.1313e-07
1.9992e-07
1.86638e-07
1.73322e-07
1.60012e-07
1.4675e-07
1.33579e-07
1.20544e-07
1.07693e-07
9.50797e-08
8.27597e-08
7.07954e-08
5.92563e-08
4.82215e-08
3.77835e-08
2.80552e-08
1.91816e-08
1.13658e-08
4.93329e-09
5.48388e-10
8.8756e-10
7.98272e-09
1.83802e-08
3.09875e-08
4.52543e-08
6.08225e-08
7.74223e-08
9.48312e-08
1.12854e-07
1.31315e-07
1.50049e-07
1.689e-07
1.87723e-07
2.06376e-07
2.24728e-07
2.42651e-07
2.60028e-07
2.7675e-07
2.92714e-07
3.07828e-07
3.22012e-07
3.35192e-07
3.47308e-07
3.58308e-07
3.68153e-07
3.76813e-07
3.84268e-07
3.9051e-07
3.95539e-07
3.99362e-07
4.01997e-07
4.0346e-07
4.03795e-07
4.03036e-07
4.01222e-07
3.98396e-07
3.94607e-07
3.89905e-07
3.84343e-07
3.77972e-07
3.70847e-07
3.6302e-07
3.54543e-07
3.45468e-07
3.35845e-07
3.25721e-07
3.15144e-07
3.04157e-07
2.92804e-07
2.81126e-07
2.69162e-07
2.5695e-07
2.44526e-07
2.31925e-07
2.19183e-07
2.06333e-07
1.9341e-07
1.80446e-07
1.67478e-07
1.5454e-07
1.4167e-07
1.28906e-07
1.16289e-07
1.03865e-07
9.16793e-08
7.97858e-08
6.8242e-08
5.71131e-08
4.64738e-08