/*--------------------------------*- C++ -*----------------------------------*\
  =========                 |
  \\      /  F ield         | OpenFOAM: The Open Source CFD Toolbox
   \\    /   O peration     | Website:  https://openfoam.org
    \\  /    A nd           | Version:  12
     \\/     M anipulation  |
\*---------------------------------------------------------------------------*/
FoamFile
{
    format      ascii;
    class       volScalarField;
    location    "3";
    object      nut;
}
// * * * * * * * * * * * * * * * * * * * * * * * * * * * * * * * * * * * * * //

dimensions      [0 2 -1 0 0 0 0];

internalField   nonuniform List<scalar> 
5625
(
4.95608e-17
1.49736e-15
3.1731e-15
5.1723e-15
7.42297e-15
9.87068e-15
1.24756e-14
1.5207e-14
1.80395e-14
2.09511e-14
2.39223e-14
2.6935e-14
2.99721e-14
3.30179e-14
3.60569e-14
3.90748e-14
4.20575e-14
4.49918e-14
4.78647e-14
5.0664e-14
5.3378e-14
5.59954e-14
5.85056e-14
6.08985e-14
6.31647e-14
6.52952e-14
6.72819e-14
6.9117e-14
7.07936e-14
7.23054e-14
7.36468e-14
7.48129e-14
7.57993e-14
7.66026e-14
7.722e-14
7.76494e-14
7.78894e-14
7.79395e-14
7.77996e-14
7.74706e-14
7.69539e-14
7.62518e-14
7.53671e-14
7.43034e-14
7.3065e-14
7.16567e-14
7.00842e-14
6.83536e-14
6.64716e-14
6.44455e-14
6.22834e-14
5.99936e-14
5.75852e-14
5.50677e-14
5.2451e-14
4.97457e-14
4.69627e-14
4.41134e-14
4.12097e-14
3.82639e-14
3.52888e-14
3.22978e-14
2.93047e-14
2.63238e-14
2.33706e-14
2.04609e-14
1.76121e-14
1.48429e-14
1.21742e-14
9.63045e-15
7.24123e-15
5.04507e-15
3.09478e-15
1.46031e-15
4.83322e-17
3.35225e-16
4.89666e-14
2.61501e-13
6.11415e-13
1.02782e-12
1.47749e-12
1.94855e-12
2.43591e-12
2.93635e-12
3.44714e-12
3.96572e-12
4.48955e-12
5.01617e-12
5.54313e-12
6.06807e-12
6.58866e-12
7.10265e-12
7.60785e-12
8.10213e-12
8.58348e-12
9.04991e-12
9.49956e-12
9.93063e-12
1.03414e-11
1.07304e-11
1.10959e-11
1.14367e-11
1.17515e-11
1.20389e-11
1.22981e-11
1.25281e-11
1.27279e-11
1.28969e-11
1.30345e-11
1.31402e-11
1.32137e-11
1.32547e-11
1.32631e-11
1.3239e-11
1.31825e-11
1.30937e-11
1.29732e-11
1.28214e-11
1.2639e-11
1.24265e-11
1.2185e-11
1.19153e-11
1.16184e-11
1.12956e-11
1.09481e-11
1.05771e-11
1.01842e-11
9.7709e-12
9.33874e-12
8.88942e-12
8.42471e-12
7.94644e-12
7.45652e-12
6.9569e-12
6.44961e-12
5.93675e-12
5.42046e-12
4.90293e-12
4.38643e-12
3.87325e-12
3.36572e-12
2.86624e-12
2.37723e-12
1.90128e-12
1.44145e-12
1.00265e-12
5.96399e-13
2.55062e-13
4.7757e-14
3.26916e-16
7.45298e-16
1.22608e-13
8.37526e-13
2.50361e-12
5.05936e-12
8.24015e-12
1.18074e-11
1.56068e-11
1.95485e-11
2.3579e-11
2.7664e-11
3.17783e-11
3.5901e-11
4.00139e-11
4.40998e-11
4.8142e-11
5.21248e-11
5.60324e-11
5.98497e-11
6.35622e-11
6.71555e-11
7.06161e-11
7.39309e-11
7.70873e-11
8.00737e-11
8.28789e-11
8.54927e-11
8.79054e-11
9.01082e-11
9.20934e-11
9.38537e-11
9.5383e-11
9.6676e-11
9.77282e-11
9.85361e-11
9.90972e-11
9.94097e-11
9.94729e-11
9.92871e-11
9.88531e-11
9.81731e-11
9.72499e-11
9.60872e-11
9.46898e-11
9.3063e-11
9.12131e-11
8.91471e-11
8.6873e-11
8.43993e-11
8.17352e-11
7.88908e-11
7.58766e-11
7.27038e-11
6.93843e-11
6.59303e-11
6.23546e-11
5.86706e-11
5.48918e-11
5.10324e-11
4.71067e-11
4.31295e-11
3.91158e-11
3.50813e-11
3.1042e-11
2.70153e-11
2.30206e-11
1.90819e-11
1.52321e-11
1.15226e-11
8.04067e-12
4.9364e-12
2.44244e-12
8.16916e-13
1.19569e-13
7.26724e-16
1.23289e-15
2.07885e-13
1.51659e-12
4.98632e-12
1.11526e-11
1.99018e-11
3.07428e-11
4.3108e-11
5.65138e-11
7.05977e-11
8.51013e-11
9.9841e-11
1.14682e-10
1.2952e-10
1.44271e-10
1.58863e-10
1.73231e-10
1.87316e-10
2.01062e-10
2.14418e-10
2.27332e-10
2.39758e-10
2.51651e-10
2.62966e-10
2.73664e-10
2.83707e-10
2.93058e-10
3.01686e-10
3.09559e-10
3.16651e-10
3.22937e-10
3.28396e-10
3.3301e-10
3.36763e-10
3.39644e-10
3.41645e-10
3.42758e-10
3.42982e-10
3.42319e-10
3.40771e-10
3.38345e-10
3.35052e-10
3.30906e-10
3.25922e-10
3.20119e-10
3.13518e-10
3.06146e-10
2.98028e-10
2.89194e-10
2.79677e-10
2.6951e-10
2.5873e-10
2.47375e-10
2.35486e-10
2.23106e-10
2.10277e-10
1.97047e-10
1.83462e-10
1.69572e-10
1.55431e-10
1.41093e-10
1.26619e-10
1.12077e-10
9.75473e-11
8.31283e-11
6.89489e-11
5.51861e-11
4.20899e-11
3.00126e-11
1.94258e-11
1.08832e-11
4.86441e-12
1.47902e-12
2.02678e-13
1.20181e-15
1.77621e-15
3.02026e-13
2.25638e-12
7.7142e-12
1.81209e-11
3.40709e-11
5.53343e-11
8.11575e-11
1.10591e-10
1.42713e-10
1.76729e-10
2.11997e-10
2.48008e-10
2.84366e-10
3.20753e-10
3.56908e-10
3.92616e-10
4.27688e-10
4.61958e-10
4.95276e-10
5.27505e-10
5.58519e-10
5.88199e-10
6.16436e-10
6.43126e-10
6.68176e-10
6.91495e-10
7.13004e-10
7.32629e-10
7.50302e-10
7.65965e-10
7.79565e-10
7.91059e-10
8.0041e-10
8.07589e-10
8.12576e-10
8.15358e-10
8.15929e-10
8.14292e-10
8.10456e-10
8.04438e-10
7.96265e-10
7.85968e-10
7.73587e-10
7.59168e-10
7.42765e-10
7.24438e-10
7.04252e-10
6.8228e-10
6.58601e-10
6.33298e-10
6.06461e-10
5.78185e-10
5.48573e-10
5.1773e-10
4.8577e-10
4.52815e-10
4.18995e-10
3.8445e-10
3.49337e-10
3.13833e-10
2.78144e-10
2.42517e-10
2.07256e-10
1.72744e-10
1.39469e-10
1.08057e-10
7.92798e-11
5.40387e-11
3.32611e-11
1.76823e-11
7.52378e-12
2.19964e-12
2.94324e-13
1.73059e-15
2.36155e-15
4.03057e-13
3.04359e-12
1.05995e-11
2.55285e-11
4.94174e-11
8.27601e-11
1.25096e-10
1.75337e-10
2.32098e-10
2.93954e-10
3.59583e-10
4.2783e-10
4.97716e-10
5.68425e-10
6.39273e-10
7.09689e-10
7.79185e-10
8.4734e-10
9.13786e-10
9.78194e-10
1.04027e-09
1.09975e-09
1.15639e-09
1.20996e-09
1.26027e-09
1.30712e-09
1.35035e-09
1.3898e-09
1.42533e-09
1.45683e-09
1.48419e-09
1.50732e-09
1.52615e-09
1.54062e-09
1.55069e-09
1.55633e-09
1.55753e-09
1.5543e-09
1.54666e-09
1.53464e-09
1.51829e-09
1.49768e-09
1.47289e-09
1.44401e-09
1.41115e-09
1.37443e-09
1.33398e-09
1.28995e-09
1.2425e-09
1.19181e-09
1.13806e-09
1.08146e-09
1.02222e-09
9.6057e-10
8.96776e-10
8.31114e-10
7.63894e-10
6.95466e-10
6.26228e-10
5.56644e-10
4.8726e-10
4.18731e-10
3.51846e-10
2.87553e-10
2.26978e-10
1.71411e-10
1.22245e-10
8.08329e-11
4.82381e-11
2.49027e-11
1.03327e-11
2.9652e-12
3.92506e-13
2.29922e-15
2.97881e-15
5.09399e-13
3.86816e-12
1.36042e-11
3.32206e-11
6.54036e-11
1.11614e-10
1.72051e-10
2.45873e-10
3.3155e-10
4.27189e-10
5.30803e-10
6.4048e-10
7.5447e-10
8.71221e-10
9.89382e-10
1.10778e-09
1.22541e-09
1.34139e-09
1.45495e-09
1.56541e-09
1.67218e-09
1.77472e-09
1.87254e-09
1.96521e-09
2.05234e-09
2.13357e-09
2.20859e-09
2.27711e-09
2.33887e-09
2.39366e-09
2.44129e-09
2.48158e-09
2.51441e-09
2.53967e-09
2.5573e-09
2.56723e-09
2.56945e-09
2.56398e-09
2.55084e-09
2.53009e-09
2.50183e-09
2.46618e-09
2.42327e-09
2.37326e-09
2.31637e-09
2.25279e-09
2.18277e-09
2.10659e-09
2.02453e-09
1.93692e-09
1.84412e-09
1.7465e-09
1.64449e-09
1.53855e-09
1.4292e-09
1.31701e-09
1.20261e-09
1.08674e-09
9.70238e-10
8.54074e-10
7.39377e-10
6.27457e-10
5.19823e-10
4.18182e-10
3.24408e-10
2.40445e-10
1.68143e-10
1.08998e-10
6.38172e-11
3.23866e-11
1.32515e-11
3.76517e-12
4.95587e-13
2.89733e-15
3.61996e-15
6.19738e-13
4.72123e-12
1.66998e-11
4.11153e-11
8.17858e-11
1.41242e-10
2.20537e-10
3.19361e-10
4.36331e-10
5.69345e-10
7.15918e-10
8.73439e-10
1.03935e-09
1.21126e-09
1.38697e-09
1.56454e-09
1.74221e-09
1.91844e-09
2.09187e-09
2.2613e-09
2.42565e-09
2.58396e-09
2.73538e-09
2.87913e-09
3.01455e-09
3.141e-09
3.25793e-09
3.36487e-09
3.46137e-09
3.54706e-09
3.62162e-09
3.68477e-09
3.73628e-09
3.77599e-09
3.80377e-09
3.81953e-09
3.82324e-09
3.81492e-09
3.79461e-09
3.76242e-09
3.71848e-09
3.663e-09
3.59619e-09
3.51834e-09
3.42975e-09
3.3308e-09
3.22188e-09
3.10344e-09
2.97599e-09
2.84007e-09
2.69629e-09
2.54533e-09
2.38792e-09
2.22488e-09
2.05713e-09
1.8857e-09
1.71173e-09
1.53655e-09
1.36162e-09
1.18864e-09
1.01952e-09
8.56374e-10
7.01566e-10
5.57599e-10
4.27036e-10
3.1231e-10
2.15474e-10
1.37861e-10
7.97436e-11
4.00456e-11
1.6249e-11
4.58998e-12
6.02167e-13
3.51637e-15
4.27823e-15
7.32948e-13
5.59485e-12
1.98606e-11
4.91501e-11
9.84165e-11
1.7129e-10
2.69769e-10
3.94228e-10
5.43639e-10
7.15912e-10
9.08257e-10
1.1175e-09
1.34036e-09
1.57358e-09
1.81409e-09
2.05902e-09
2.30577e-09
2.55198e-09
2.79553e-09
3.0345e-09
3.26719e-09
3.49208e-09
3.7078e-09
3.91311e-09
4.10691e-09
4.28823e-09
4.45619e-09
4.61001e-09
4.749e-09
4.87258e-09
4.98022e-09
5.07151e-09
5.14608e-09
5.20366e-09
5.24405e-09
5.26712e-09
5.27281e-09
5.26114e-09
5.23218e-09
5.18607e-09
5.12304e-09
5.04337e-09
4.9474e-09
4.83556e-09
4.70834e-09
4.56629e-09
4.41003e-09
4.24028e-09
4.05782e-09
3.86351e-09
3.65833e-09
3.44334e-09
3.21973e-09
2.98882e-09
2.75207e-09
2.51113e-09
2.26782e-09
2.02421e-09
1.78258e-09
1.54547e-09
1.31569e-09
1.09625e-09
8.90345e-10
7.01222e-10
5.3199e-10
3.85378e-10
2.63408e-10
1.67043e-10
9.58529e-11
4.78093e-11
1.92965e-11
5.43083e-12
7.11008e-13
4.14893e-15
4.94776e-15
8.48043e-13
6.48188e-12
2.30631e-11
5.727e-11
1.15181e-10
2.01524e-10
3.19271e-10
4.69552e-10
6.51811e-10
8.64121e-10
1.10355e-09
1.3665e-09
1.64906e-09
1.9472e-09
2.25696e-09
2.57455e-09
2.89644e-09
3.21934e-09
3.54027e-09
3.8565e-09
4.16557e-09
4.46523e-09
4.7535e-09
5.02855e-09
5.28877e-09
5.5327e-09
5.75905e-09
5.96666e-09
6.15453e-09
6.32177e-09
6.46763e-09
6.59148e-09
6.69278e-09
6.77114e-09
6.82624e-09
6.8579e-09
6.86601e-09
6.85061e-09
6.81177e-09
6.7497e-09
6.66472e-09
6.55723e-09
6.42773e-09
6.27683e-09
6.10523e-09
5.91374e-09
5.70328e-09
5.47487e-09
5.22967e-09
4.96896e-09
4.69417e-09
4.40686e-09
4.1088e-09
3.80191e-09
3.48836e-09
3.17053e-09
2.85106e-09
2.53286e-09
2.21913e-09
1.91334e-09
1.61922e-09
1.34068e-09
1.0817e-09
8.46124e-10
6.37487e-10
4.58636e-10
3.1141e-10
1.96271e-10
1.1201e-10
5.56126e-11
2.23665e-11
6.27948e-12
8.20984e-13
4.78833e-15
5.6234e-15
9.64149e-13
7.37587e-12
2.62856e-11
6.5424e-11
1.3198e-10
2.3176e-10
3.68705e-10
5.44722e-10
7.59787e-10
1.01222e-09
1.29905e-09
1.61638e-09
1.95978e-09
2.32449e-09
2.70575e-09
3.09885e-09
3.49931e-09
3.90291e-09
4.30572e-09
4.70412e-09
5.09481e-09
5.47476e-09
5.84122e-09
6.19171e-09
6.52401e-09
6.83609e-09
7.12616e-09
7.39262e-09
7.63407e-09
7.84928e-09
8.03719e-09
8.19692e-09
8.32774e-09
8.42907e-09
8.50048e-09
8.5417e-09
8.55257e-09
8.53314e-09
8.48348e-09
8.4039e-09
8.29481e-09
8.15676e-09
7.99043e-09
7.79665e-09
7.5764e-09
7.33077e-09
7.06103e-09
6.76861e-09
6.4551e-09
6.12227e-09
5.77209e-09
5.40675e-09
5.02864e-09
4.64043e-09
4.24505e-09
3.84572e-09
3.44598e-09
3.04966e-09
2.66091e-09
2.28416e-09
1.92404e-09
1.5853e-09
1.27261e-09
9.90343e-10
7.42309e-10
5.31367e-10
3.59071e-10
2.25318e-10
1.28091e-10
6.33926e-11
2.54325e-11
7.12818e-12
9.3105e-13
5.42843e-15
6.30056e-15
1.08049e-12
8.27099e-12
2.95083e-11
7.35651e-11
1.4872e-10
2.61837e-10
4.178e-10
6.19289e-10
8.66825e-10
1.15902e-09
1.49293e-09
1.86444e-09
2.26866e-09
2.70023e-09
3.15359e-09
3.62319e-09
4.10361e-09
4.58969e-09
5.07654e-09
5.55963e-09
6.03475e-09
6.49802e-09
6.94591e-09
7.37521e-09
7.78298e-09
8.1666e-09
8.52371e-09
8.85221e-09
9.15023e-09
9.41617e-09
9.64861e-09
9.84639e-09
1.00085e-08
1.01343e-08
1.0223e-08
1.02744e-08
1.02882e-08
1.02645e-08
1.02033e-08
1.01052e-08
9.97047e-09
9.79999e-09
9.59462e-09
9.35542e-09
9.08367e-09
8.78083e-09
8.44856e-09
8.08873e-09
7.70343e-09
7.29499e-09
6.86599e-09
6.41927e-09
5.95798e-09
5.48555e-09
5.00576e-09
4.52273e-09
4.0409e-09
3.56507e-09
3.10035e-09
2.65208e-09
2.22579e-09
1.82696e-09
1.46091e-09
1.13244e-09
8.4553e-10
6.0299e-10
4.06035e-10
2.5397e-10
1.43975e-10
7.10884e-11
2.84692e-11
7.96955e-12
1.04023e-12
6.06346e-15
6.97515e-15
1.19636e-12
9.16202e-12
3.27132e-11
8.16501e-11
1.6532e-10
2.9161e-10
4.66322e-10
6.92883e-10
9.72355e-10
1.30365e-09
1.6839e-09
2.1088e-09
2.57307e-09
3.0708e-09
3.59571e-09
4.14142e-09
4.70164e-09
5.27028e-09
5.84152e-09
6.40987e-09
6.97022e-09
7.51784e-09
8.04835e-09
8.55777e-09
9.04245e-09
9.49909e-09
9.92474e-09
1.03167e-08
1.06728e-08
1.09907e-08
1.12689e-08
1.15057e-08
1.17001e-08
1.18508e-08
1.19574e-08
1.20191e-08
1.20359e-08
1.20077e-08
1.19346e-08
1.18171e-08
1.1656e-08
1.1452e-08
1.12063e-08
1.09203e-08
1.05955e-08
1.02339e-08
9.83746e-09
9.40857e-09
8.94987e-09
8.46428e-09
7.95503e-09
7.42569e-09
6.88015e-09
6.32268e-09
5.75792e-09
5.19089e-09
4.62698e-09
4.07192e-09
3.53176e-09
3.01274e-09
2.52118e-09
2.06329e-09
1.64492e-09
1.27124e-09
9.46367e-10
6.7299e-10
4.51969e-10
2.82023e-10
1.59544e-10
7.86405e-11
3.14521e-11
8.79657e-12
1.14758e-12
6.68798e-15
7.64356e-15
1.31115e-12
1.00443e-11
3.58839e-11
8.96401e-11
1.81701e-10
3.20948e-10
5.14063e-10
7.65192e-10
1.07592e-09
1.44545e-09
1.87098e-09
2.34807e-09
2.8711e-09
3.43361e-09
4.02868e-09
4.64916e-09
5.28791e-09
5.93793e-09
6.5925e-09
7.24521e-09
7.89005e-09
8.5214e-09
9.13407e-09
9.72327e-09
1.02846e-08
1.08142e-08
1.13083e-08
1.17638e-08
1.21778e-08
1.25479e-08
1.28718e-08
1.31478e-08
1.33742e-08
1.355e-08
1.36742e-08
1.37462e-08
1.37657e-08
1.37327e-08
1.36474e-08
1.35103e-08
1.33222e-08
1.30843e-08
1.27979e-08
1.24647e-08
1.20866e-08
1.16658e-08
1.12049e-08
1.07068e-08
1.01746e-08
9.61201e-09
9.02278e-09
8.41125e-09
7.7821e-09
7.14043e-09
6.49174e-09
5.84195e-09
5.19737e-09
4.56465e-09
3.95072e-09
3.36267e-09
2.80759e-09
2.29233e-09
1.82322e-09
1.40574e-09
1.04411e-09
7.4088e-10
4.96555e-10
3.09277e-10
1.74685e-10
8.59909e-11
3.43574e-11
9.60248e-12
1.25222e-12
7.29676e-15
8.30263e-15
1.42431e-12
1.09137e-11
3.90062e-11
9.75002e-11
1.97797e-10
3.49736e-10
5.60843e-10
8.35946e-10
1.17712e-09
1.58385e-09
2.05341e-09
2.58121e-09
3.16132e-09
3.78677e-09
4.45004e-09
5.14324e-09
5.85842e-09
6.58773e-09
7.32355e-09
8.0586e-09
8.78597e-09
9.4992e-09
1.01923e-08
1.08596e-08
1.14961e-08
1.20971e-08
1.26584e-08
1.31761e-08
1.3647e-08
1.40682e-08
1.44369e-08
1.47511e-08
1.50089e-08
1.5209e-08
1.53503e-08
1.5432e-08
1.54538e-08
1.54157e-08
1.53178e-08
1.51609e-08
1.4946e-08
1.46742e-08
1.43474e-08
1.39673e-08
1.35363e-08
1.30571e-08
1.25326e-08
1.19663e-08
1.1362e-08
1.07237e-08
1.00561e-08
9.36421e-09
8.65344e-09
7.92972e-09
7.19941e-09
6.46929e-09
5.74656e-09
5.03873e-09
4.35359e-09
3.69902e-09
3.0828e-09
2.51238e-09
1.99453e-09
1.53501e-09
1.13809e-09
8.06197e-10
5.39481e-10
3.35537e-10
1.89284e-10
9.30833e-11
3.71622e-11
1.03808e-11
1.35329e-12
7.88481e-15
8.9496e-15
1.53539e-12
1.17667e-11
4.20675e-11
1.052e-10
2.13547e-10
3.77872e-10
6.06501e-10
9.04911e-10
1.27563e-09
1.71841e-09
2.23057e-09
2.80741e-09
3.44264e-09
4.12887e-09
4.85796e-09
5.62133e-09
6.41025e-09
7.21607e-09
8.03032e-09
8.84485e-09
9.6519e-09
1.04442e-08
1.12149e-08
1.19577e-08
1.26667e-08
1.33366e-08
1.39627e-08
1.45405e-08
1.50662e-08
1.55364e-08
1.59481e-08
1.62989e-08
1.65867e-08
1.68099e-08
1.69671e-08
1.70577e-08
1.70811e-08
1.70374e-08
1.69268e-08
1.67502e-08
1.65086e-08
1.62035e-08
1.58368e-08
1.54109e-08
1.49283e-08
1.43921e-08
1.38059e-08
1.31734e-08
1.24991e-08
1.17877e-08
1.10444e-08
1.0275e-08
9.48567e-09
8.68311e-09
7.87448e-09
7.06741e-09
6.2699e-09
5.49033e-09
4.73724e-09
4.01925e-09
3.34481e-09
2.72189e-09
2.15767e-09
1.65815e-09
1.22766e-09
8.68483e-10
5.80441e-10
3.6061e-10
2.03232e-10
9.98625e-11
3.98441e-11
1.11252e-11
1.44997e-12
8.44732e-15
9.58218e-15
1.64397e-12
1.26003e-11
4.50573e-11
1.12714e-10
2.28902e-10
4.05268e-10
6.50905e-10
9.71892e-10
1.37118e-09
1.84877e-09
2.40199e-09
3.026e-09
3.71423e-09
4.45881e-09
5.25104e-09
6.08167e-09
6.94125e-09
7.82031e-09
8.70959e-09
9.60012e-09
1.04833e-08
1.13511e-08
1.21959e-08
1.30106e-08
1.37887e-08
1.45243e-08
1.52119e-08
1.58467e-08
1.64243e-08
1.69408e-08
1.73931e-08
1.77783e-08
1.80939e-08
1.83384e-08
1.85101e-08
1.86083e-08
1.86324e-08
1.85826e-08
1.8459e-08
1.82626e-08
1.79948e-08
1.76571e-08
1.72518e-08
1.67815e-08
1.62491e-08
1.56581e-08
1.50125e-08
1.43166e-08
1.35754e-08
1.27941e-08
1.19787e-08
1.11356e-08
1.02716e-08
9.39424e-09
8.51142e-09
7.63152e-09
6.76335e-09
5.91602e-09
5.09883e-09
4.32106e-09
3.59176e-09
2.91939e-09
2.3115e-09
1.77431e-09
1.31219e-09
9.27293e-10
6.19135e-10
3.84308e-10
2.16421e-10
1.06275e-10
4.23817e-11
1.18296e-11
1.54147e-12
8.97965e-15
1.01985e-14
1.74975e-12
1.34121e-11
4.79671e-11
1.20021e-10
2.43819e-10
4.31854e-10
6.93944e-10
1.03673e-09
1.46356e-09
1.97462e-09
2.56727e-09
3.23651e-09
3.97545e-09
4.7758e-09
5.62828e-09
6.523e-09
7.44981e-09
8.39849e-09
9.35899e-09
1.03216e-08
1.12769e-08
1.2216e-08
1.31307e-08
1.40132e-08
1.48564e-08
1.56536e-08
1.63988e-08
1.70868e-08
1.77127e-08
1.82723e-08
1.8762e-08
1.91786e-08
1.95196e-08
1.97831e-08
1.99674e-08
2.00717e-08
2.00954e-08
2.00386e-08
1.99017e-08
1.96858e-08
1.93922e-08
1.90229e-08
1.85803e-08
1.80673e-08
1.74873e-08
1.68442e-08
1.61422e-08
1.53862e-08
1.45817e-08
1.37346e-08
1.28514e-08
1.19389e-08
1.1005e-08
1.00575e-08
9.10531e-09
8.15736e-09
7.22322e-09
6.3127e-09
5.43575e-09
4.60229e-09
3.8219e-09
3.10348e-09
2.45493e-09
1.88265e-09
1.39106e-09
9.82189e-10
6.55268e-10
4.06446e-10
2.28745e-10
1.12269e-10
4.4754e-11
1.24882e-11
1.62701e-12
9.47732e-15
1.07971e-14
1.85247e-12
1.42001e-11
5.07903e-11
1.27105e-10
2.58268e-10
4.57578e-10
7.35536e-10
1.09931e-09
1.5526e-09
2.09576e-09
2.72614e-09
3.43858e-09
4.22586e-09
5.07926e-09
5.98894e-09
6.9444e-09
7.9348e-09
8.94919e-09
9.97679e-09
1.10071e-08
1.203e-08
1.3036e-08
1.4016e-08
1.49617e-08
1.58651e-08
1.67194e-08
1.75178e-08
1.82547e-08
1.89247e-08
1.95234e-08
2.00468e-08
2.04915e-08
2.08549e-08
2.11347e-08
2.13294e-08
2.14379e-08
2.14598e-08
2.13952e-08
2.12445e-08
2.1009e-08
2.06902e-08
2.02903e-08
1.9812e-08
1.92584e-08
1.86334e-08
1.7941e-08
1.7186e-08
1.63739e-08
1.55103e-08
1.46019e-08
1.36556e-08
1.26789e-08
1.16801e-08
1.0668e-08
9.65164e-09
8.64097e-09
7.64607e-09
6.6774e-09
5.74552e-09
4.86086e-09
4.03352e-09
3.2728e-09
2.58688e-09
1.98234e-09
1.46366e-09
1.03274e-09
6.88553e-10
4.26845e-10
2.40104e-10
1.17794e-10
4.69408e-11
1.30952e-11
1.70585e-12
9.93602e-15
1.13769e-14
1.95197e-12
1.4963e-11
5.35222e-11
1.33955e-10
2.72227e-10
4.82404e-10
7.75629e-10
1.15956e-09
1.6382e-09
2.21205e-09
2.87843e-09
3.63198e-09
4.46518e-09
5.36882e-09
6.33256e-09
7.34528e-09
8.39545e-09
9.47146e-09
1.05618e-08
1.16552e-08
1.2741e-08
1.38089e-08
1.48492e-08
1.58529e-08
1.68116e-08
1.77178e-08
1.85645e-08
1.93454e-08
2.0055e-08
2.06883e-08
2.12413e-08
2.17103e-08
2.20925e-08
2.23856e-08
2.2588e-08
2.26986e-08
2.2717e-08
2.26434e-08
2.24783e-08
2.22232e-08
2.18797e-08
2.14504e-08
2.0938e-08
2.03461e-08
1.96786e-08
1.89403e-08
1.81362e-08
1.7272e-08
1.6354e-08
1.53893e-08
1.43851e-08
1.33498e-08
1.22919e-08
1.12208e-08
1.01462e-08
9.07863e-09
8.02867e-09
7.00734e-09
6.02573e-09
5.09477e-09
4.22497e-09
3.426e-09
2.7063e-09
2.0726e-09
1.5294e-09
1.07853e-09
7.18707e-10
4.45328e-10
2.50397e-10
1.22801e-10
4.89225e-11
1.36453e-11
1.77728e-12
1.03516e-14
1.19375e-14
2.04813e-12
1.57002e-11
5.61604e-11
1.40565e-10
2.85685e-10
5.06313e-10
8.14195e-10
1.21744e-09
1.72032e-09
2.32344e-09
3.02407e-09
3.81664e-09
4.69327e-09
5.64432e-09
6.65891e-09
7.7253e-09
8.83134e-09
9.96472e-09
1.11132e-08
1.2265e-08
1.34086e-08
1.45332e-08
1.56284e-08
1.66847e-08
1.76932e-08
1.86459e-08
1.95354e-08
2.0355e-08
2.1099e-08
2.17622e-08
2.23401e-08
2.28292e-08
2.32264e-08
2.35293e-08
2.37364e-08
2.38466e-08
2.38597e-08
2.37757e-08
2.35955e-08
2.33205e-08
2.29529e-08
2.24951e-08
2.19503e-08
2.13224e-08
2.06155e-08
1.98347e-08
1.89854e-08
1.80737e-08
1.71063e-08
1.60905e-08
1.50343e-08
1.39462e-08
1.28353e-08
1.17115e-08
1.05851e-08
9.4668e-09
8.36788e-09
7.2998e-09
6.27408e-09
5.30208e-09
4.39466e-09
3.5618e-09
2.81217e-09
2.15262e-09
1.5877e-09
1.11914e-09
7.45458e-10
4.61727e-10
2.5953e-10
1.27243e-10
5.06803e-11
1.41332e-11
1.84063e-12
1.07201e-14
1.24786e-14
2.14095e-12
1.64115e-11
5.87044e-11
1.46934e-10
2.98641e-10
5.29306e-10
8.51239e-10
1.27295e-09
1.79897e-09
2.42995e-09
3.16309e-09
3.99257e-09
4.91017e-09
5.90578e-09
6.96797e-09
8.08442e-09
9.24232e-09
1.04287e-08
1.16308e-08
1.28359e-08
1.40321e-08
1.52078e-08
1.63523e-08
1.74554e-08
1.8508e-08
1.95013e-08
2.04278e-08
2.12805e-08
2.20534e-08
2.2741e-08
2.33389e-08
2.38434e-08
2.42512e-08
2.45602e-08
2.47687e-08
2.48758e-08
2.48811e-08
2.47852e-08
2.45889e-08
2.42939e-08
2.39024e-08
2.34173e-08
2.28419e-08
2.21803e-08
2.1437e-08
2.06174e-08
1.97272e-08
1.87727e-08
1.77611e-08
1.67e-08
1.55978e-08
1.44632e-08
1.33059e-08
1.21361e-08
1.09644e-08
9.80209e-09
8.66073e-09
7.55218e-09
6.48834e-09
5.4809e-09
4.54102e-09
3.67893e-09
2.90349e-09
2.22166e-09
1.63801e-09
1.15418e-09
7.68541e-10
4.75877e-10
2.67409e-10
1.31075e-10
5.21964e-11
1.45538e-11
1.89523e-12
1.10376e-14
1.30005e-14
2.23047e-12
1.70972e-11
6.11557e-11
1.53067e-10
3.11105e-10
5.51402e-10
8.86792e-10
1.32616e-09
1.87422e-09
2.53169e-09
3.29563e-09
4.15996e-09
5.11607e-09
6.1534e-09
7.25995e-09
8.4228e-09
9.62851e-09
1.08635e-08
1.21143e-08
1.33676e-08
1.4611e-08
1.58322e-08
1.70201e-08
1.81641e-08
1.92544e-08
2.02822e-08
2.12396e-08
2.21193e-08
2.29151e-08
2.36215e-08
2.4234e-08
2.47487e-08
2.51626e-08
2.54734e-08
2.56796e-08
2.57804e-08
2.57757e-08
2.5666e-08
2.54524e-08
2.51369e-08
2.47219e-08
2.42104e-08
2.36061e-08
2.29133e-08
2.21368e-08
2.12821e-08
2.03553e-08
1.93631e-08
1.83128e-08
1.72124e-08
1.60704e-08
1.48961e-08
1.36993e-08
1.24904e-08
1.12806e-08
1.00813e-08
8.90436e-09
7.76199e-09
6.66636e-09
5.62941e-09
4.66254e-09
3.77617e-09
2.9793e-09
2.27897e-09
1.67977e-09
1.18328e-09
7.87705e-10
4.87623e-10
2.73949e-10
1.34255e-10
5.34539e-11
1.49026e-11
1.94049e-12
1.13008e-14
1.3504e-14
2.31681e-12
1.77584e-11
6.35179e-11
1.58973e-10
3.23096e-10
5.72637e-10
9.20915e-10
1.37715e-09
1.94622e-09
2.62884e-09
3.42191e-09
4.31907e-09
5.31131e-09
6.38755e-09
7.53523e-09
8.74084e-09
9.99031e-09
1.12694e-08
1.2564e-08
1.38604e-08
1.51453e-08
1.64062e-08
1.76314e-08
1.88098e-08
1.99315e-08
2.09873e-08
2.1969e-08
2.28692e-08
2.36817e-08
2.44008e-08
2.50221e-08
2.55416e-08
2.59566e-08
2.62647e-08
2.64645e-08
2.65557e-08
2.65381e-08
2.64126e-08
2.61804e-08
2.58438e-08
2.54054e-08
2.48684e-08
2.42369e-08
2.35153e-08
2.27088e-08
2.1823e-08
2.08642e-08
1.98394e-08
1.87562e-08
1.76226e-08
1.64475e-08
1.52404e-08
1.40113e-08
1.27708e-08
1.15302e-08
1.03013e-08
9.09603e-09
7.92685e-09
6.8061e-09
5.7459e-09
4.75781e-09
3.85237e-09
3.03869e-09
2.32387e-09
1.71248e-09
1.20606e-09
8.02711e-10
4.96819e-10
2.79067e-10
1.36742e-10
5.44369e-11
1.5175e-11
1.97582e-12
1.15062e-14
1.39901e-14
2.40015e-12
1.83964e-11
6.57961e-11
1.64665e-10
3.34643e-10
5.93063e-10
9.53696e-10
1.42605e-09
2.01514e-09
2.72164e-09
3.54226e-09
4.47031e-09
5.49634e-09
6.60875e-09
7.79439e-09
9.03913e-09
1.03283e-08
1.1647e-08
1.29805e-08
1.43145e-08
1.56353e-08
1.69298e-08
1.81859e-08
1.93922e-08
2.05386e-08
2.16155e-08
2.26147e-08
2.35287e-08
2.43511e-08
2.50766e-08
2.57004e-08
2.6219e-08
2.66295e-08
2.693e-08
2.71193e-08
2.71971e-08
2.71637e-08
2.702e-08
2.67677e-08
2.64092e-08
2.59474e-08
2.53859e-08
2.47289e-08
2.3981e-08
2.31476e-08
2.22346e-08
2.12486e-08
2.01965e-08
1.90862e-08
1.7926e-08
1.67247e-08
1.54921e-08
1.42381e-08
1.29737e-08
1.17101e-08
1.04592e-08
9.23321e-09
8.04453e-09
6.90564e-09
5.82874e-09
4.82548e-09
3.90645e-09
3.08082e-09
2.3557e-09
1.73566e-09
1.22221e-09
8.13341e-10
5.03329e-10
2.82688e-10
1.385e-10
5.5131e-11
1.53672e-11
2.00072e-12
1.16508e-14
1.44602e-14
2.48074e-12
1.90131e-11
6.79977e-11
1.70162e-10
3.45785e-10
6.1275e-10
9.85246e-10
1.47304e-09
2.08124e-09
2.81043e-09
3.65709e-09
4.61417e-09
5.67175e-09
6.81765e-09
8.03815e-09
9.31844e-09
1.06432e-08
1.1997e-08
1.33644e-08
1.47306e-08
1.60813e-08
1.74032e-08
1.86837e-08
1.99112e-08
2.10752e-08
2.21661e-08
2.31756e-08
2.40963e-08
2.49217e-08
2.56466e-08
2.62665e-08
2.6778e-08
2.71784e-08
2.7466e-08
2.76401e-08
2.77006e-08
2.76481e-08
2.74837e-08
2.72096e-08
2.68284e-08
2.63432e-08
2.57579e-08
2.50769e-08
2.43052e-08
2.34483e-08
2.25122e-08
2.15037e-08
2.04299e-08
1.92987e-08
1.81184e-08
1.68981e-08
1.56473e-08
1.43763e-08
1.30959e-08
1.18173e-08
1.05525e-08
9.31359e-09
8.11302e-09
6.96324e-09
5.87647e-09
4.86432e-09
3.93742e-09
3.1049e-09
2.37387e-09
1.74889e-09
1.23141e-09
8.19393e-10
5.07032e-10
2.84744e-10
1.39496e-10
5.55232e-11
1.54755e-11
2.01472e-12
1.1732e-14
1.49161e-14
2.55889e-12
1.9611e-11
7.01311e-11
1.75486e-10
3.56567e-10
6.31781e-10
1.0157e-09
1.51832e-09
2.14479e-09
2.89558e-09
3.76689e-09
4.75125e-09
5.83822e-09
7.01505e-09
8.26735e-09
9.57965e-09
1.0936e-08
1.23202e-08
1.37165e-08
1.51093e-08
1.64841e-08
1.7827e-08
1.91251e-08
2.03667e-08
2.1541e-08
2.26386e-08
2.36509e-08
2.45708e-08
2.53919e-08
2.61091e-08
2.67181e-08
2.7216e-08
2.76003e-08
2.78695e-08
2.80236e-08
2.80626e-08
2.79875e-08
2.77998e-08
2.7502e-08
2.7097e-08
2.65883e-08
2.598e-08
2.52767e-08
2.44836e-08
2.36065e-08
2.26515e-08
2.16254e-08
2.05355e-08
1.93896e-08
1.81961e-08
1.6964e-08
1.57029e-08
1.44229e-08
1.31346e-08
1.18494e-08
1.05788e-08
9.33513e-09
8.13053e-09
6.97737e-09
5.88778e-09
4.87328e-09
3.94441e-09
3.11026e-09
2.37787e-09
1.75178e-09
1.2334e-09
8.20696e-10
5.07822e-10
2.85176e-10
1.39702e-10
5.56028e-11
1.5497e-11
2.01743e-12
1.17476e-14
1.53599e-14
2.63495e-12
2.01929e-11
7.22064e-11
1.80662e-10
3.67043e-10
6.50252e-10
1.04522e-09
1.56213e-09
2.20613e-09
2.97753e-09
3.8722e-09
4.88221e-09
5.99654e-09
7.20181e-09
8.48293e-09
9.82375e-09
1.12076e-08
1.26178e-08
1.40378e-08
1.54517e-08
1.68443e-08
1.82016e-08
1.95104e-08
2.07588e-08
2.1936e-08
2.30324e-08
2.40399e-08
2.49512e-08
2.57602e-08
2.64622e-08
2.70534e-08
2.75309e-08
2.78927e-08
2.81378e-08
2.82668e-08
2.82799e-08
2.81786e-08
2.79648e-08
2.76413e-08
2.72114e-08
2.66789e-08
2.60482e-08
2.53243e-08
2.45124e-08
2.36185e-08
2.26488e-08
2.16102e-08
2.05099e-08
1.93558e-08
1.81561e-08
1.69198e-08
1.56562e-08
1.43753e-08
1.30876e-08
1.18042e-08
1.05364e-08
9.29625e-09
8.09567e-09
6.94684e-09
5.86168e-09
4.85152e-09
3.92677e-09
3.09637e-09
2.3673e-09
1.74404e-09
1.228e-09
8.1712e-10
5.0562e-10
2.83943e-10
1.39097e-10
5.53614e-11
1.54293e-11
2.00857e-12
1.16958e-14
1.57937e-14
2.70931e-12
2.07616e-11
7.42348e-11
1.8572e-10
3.77272e-10
6.68269e-10
1.07397e-09
1.60471e-09
2.26561e-09
3.05675e-09
3.97361e-09
5.00775e-09
6.14752e-09
7.37883e-09
8.68589e-09
1.00518e-08
1.14592e-08
1.28907e-08
1.43292e-08
1.57584e-08
1.71626e-08
1.85276e-08
1.98399e-08
2.10875e-08
2.22598e-08
2.33473e-08
2.43418e-08
2.52364e-08
2.60255e-08
2.67047e-08
2.72705e-08
2.77206e-08
2.80532e-08
2.82685e-08
2.83671e-08
2.83498e-08
2.82184e-08
2.79755e-08
2.76243e-08
2.71684e-08
2.6612e-08
2.59599e-08
2.5217e-08
2.4389e-08
2.34818e-08
2.25017e-08
2.14557e-08
2.03509e-08
1.9195e-08
1.79962e-08
1.67632e-08
1.55052e-08
1.42318e-08
1.29533e-08
1.16802e-08
1.04238e-08
9.1956e-09
8.00727e-09
6.87062e-09
5.79727e-09
4.7983e-09
3.88387e-09
3.06275e-09
2.3418e-09
1.72541e-09
1.21499e-09
8.08543e-10
5.00352e-10
2.81003e-10
1.37663e-10
5.47918e-11
1.52707e-11
1.9879e-12
1.15753e-14
1.62201e-14
2.78238e-12
2.13206e-11
7.62282e-11
1.90689e-10
3.87316e-10
6.85945e-10
1.10214e-09
1.64634e-09
2.3236e-09
3.13372e-09
4.07174e-09
5.12861e-09
6.29201e-09
7.54707e-09
8.87722e-09
1.02648e-08
1.16917e-08
1.31398e-08
1.45916e-08
1.60302e-08
1.74397e-08
1.88054e-08
2.01138e-08
2.1353e-08
2.25124e-08
2.35826e-08
2.45558e-08
2.54255e-08
2.61866e-08
2.68349e-08
2.73678e-08
2.77833e-08
2.808e-08
2.82597e-08
2.83224e-08
2.827e-08
2.81049e-08
2.78301e-08
2.74493e-08
2.69664e-08
2.6386e-08
2.57132e-08
2.49531e-08
2.41116e-08
2.31945e-08
2.22085e-08
2.11602e-08
2.00568e-08
1.89058e-08
1.77152e-08
1.64933e-08
1.52489e-08
1.39914e-08
1.27306e-08
1.14766e-08
1.02403e-08
9.03255e-09
7.86475e-09
6.7482e-09
5.69413e-09
4.71325e-09
3.81542e-09
3.00917e-09
2.30118e-09
1.69576e-09
1.19431e-09
7.94907e-10
4.91986e-10
2.76339e-10
1.35391e-10
5.38912e-11
1.50202e-11
1.95531e-12
1.13855e-14
1.66416e-14
2.85462e-12
2.18732e-11
7.81989e-11
1.95601e-10
3.97242e-10
7.03397e-10
1.12991e-09
1.6873e-09
2.38049e-09
3.20895e-09
4.1672e-09
5.24553e-09
6.43082e-09
7.70741e-09
9.05786e-09
1.04637e-08
1.1906e-08
1.33662e-08
1.48259e-08
1.62679e-08
1.7676e-08
1.90353e-08
2.03323e-08
2.15551e-08
2.26933e-08
2.37378e-08
2.46813e-08
2.55177e-08
2.62423e-08
2.68518e-08
2.7344e-08
2.77171e-08
2.79719e-08
2.81096e-08
2.81314e-08
2.80395e-08
2.7837e-08
2.75275e-08
2.71151e-08
2.66042e-08
2.59999e-08
2.53072e-08
2.45317e-08
2.36794e-08
2.27563e-08
2.17689e-08
2.07237e-08
1.96277e-08
1.84883e-08
1.7313e-08
1.61099e-08
1.48873e-08
1.36542e-08
1.24196e-08
1.11935e-08
9.98585e-09
8.80715e-09
7.66814e-09
6.57962e-09
5.55227e-09
4.59639e-09
3.72144e-09
2.93563e-09
2.24545e-09
1.65508e-09
1.16595e-09
7.76215e-10
4.80523e-10
2.69952e-10
1.32283e-10
5.26601e-11
1.46781e-11
1.91084e-12
1.11267e-14
1.70606e-14
2.92644e-12
2.24227e-11
8.01594e-11
2.00487e-10
4.07114e-10
7.20741e-10
1.15747e-09
1.72786e-09
2.43666e-09
3.28292e-09
4.26058e-09
5.35917e-09
6.56473e-09
7.86068e-09
9.22867e-09
1.06494e-08
1.2103e-08
1.35703e-08
1.50325e-08
1.64718e-08
1.78718e-08
1.92174e-08
2.04953e-08
2.16935e-08
2.2802e-08
2.38123e-08
2.47174e-08
2.55118e-08
2.61916e-08
2.67542e-08
2.71978e-08
2.75215e-08
2.7728e-08
2.78179e-08
2.77933e-08
2.76575e-08
2.74141e-08
2.70673e-08
2.66216e-08
2.6082e-08
2.54538e-08
2.47424e-08
2.39538e-08
2.30937e-08
2.21684e-08
2.11841e-08
2.01474e-08
1.9065e-08
1.79438e-08
1.67912e-08
1.56146e-08
1.44219e-08
1.32214e-08
1.20217e-08
1.08319e-08
9.66151e-09
8.52024e-09
7.41817e-09
6.36547e-09
5.37218e-09
4.44811e-09
3.60222e-09
2.84236e-09
2.17477e-09
1.60351e-09
1.13e-09
7.52525e-10
4.66e-10
2.61865e-10
1.2835e-10
5.11033e-11
1.42459e-11
1.85469e-12
1.07999e-14
1.74795e-14
2.99825e-12
2.29725e-11
8.21213e-11
2.05379e-10
4.16995e-10
7.38089e-10
1.18499e-09
1.76828e-09
2.49245e-09
3.35608e-09
4.35241e-09
5.47016e-09
6.6944e-09
8.00755e-09
9.3903e-09
1.08224e-08
1.22833e-08
1.37528e-08
1.52118e-08
1.66421e-08
1.8027e-08
1.93515e-08
2.06022e-08
2.17676e-08
2.28379e-08
2.38052e-08
2.46632e-08
2.54071e-08
2.60337e-08
2.65413e-08
2.69281e-08
2.71964e-08
2.73478e-08
2.7384e-08
2.73084e-08
2.71246e-08
2.6837e-08
2.64505e-08
2.59702e-08
2.54015e-08
2.475e-08
2.40215e-08
2.32219e-08
2.23573e-08
2.14338e-08
2.04575e-08
1.94347e-08
1.83719e-08
1.72757e-08
1.61529e-08
1.50103e-08
1.38554e-08
1.26958e-08
1.15392e-08
1.03942e-08
9.2693e-09
8.17361e-09
7.11638e-09
6.10705e-09
5.15495e-09
4.26928e-09
3.45845e-09
2.7299e-09
2.08956e-09
1.54134e-09
1.08665e-09
7.23971e-10