/*--------------------------------*- C++ -*----------------------------------*\
  =========                 |
  \\      /  F ield         | OpenFOAM: The Open Source CFD Toolbox
   \\    /   O peration     | Website:  https://openfoam.org
    \\  /    A nd           | Version:  12
     \\/     M anipulation  |
\*---------------------------------------------------------------------------*/
FoamFile
{
    format      ascii;
    class       volScalarField;
    location    "3";
    object      p;
}
// * * * * * * * * * * * * * * * * * * * * * * * * * * * * * * * * * * * * * //

dimensions      [0 2 -2 0 0 0 0];

internalField   nonuniform List<scalar> 
5625
(
-5.98943e-09
2.57452e-07
1.33471e-06
3.21131e-06
5.62694e-06
8.3521e-06
1.12053e-05
1.40349e-05
1.67113e-05
1.91265e-05
2.11919e-05
2.28362e-05
2.40029e-05
2.46487e-05
2.47415e-05
2.42592e-05
2.31878e-05
2.15212e-05
1.92593e-05
1.64079e-05
1.29775e-05
8.98301e-06
4.44304e-06
-6.20462e-07
-6.18275e-06
-1.22165e-05
-1.86922e-05
-2.55785e-05
-3.28423e-05
-4.04489e-05
-4.83627e-05
-5.65467e-05
-6.49632e-05
-7.35737e-05
-8.23389e-05
-9.12193e-05
-0.000100175
-0.000109165
-0.00011815
-0.000127089
-0.000135942
-0.000144668
-0.000153229
-0.000161584
-0.000169695
-0.000177524
-0.000185035
-0.000192191
-0.000198958
-0.000205304
-0.000211197
-0.000216608
-0.00022151
-0.00022588
-0.000229697
-0.000232943
-0.000235604
-0.000237673
-0.000239144
-0.000240021
-0.000240311
-0.000240031
-0.000239205
-0.000237869
-0.000236069
-0.000233863
-0.000231326
-0.000228549
-0.000225641
-0.000222733
-0.000219977
-0.000217554
-0.000215689
-0.000214637
-0.000214396
-3.55921e-06
-2.84999e-06
-1.62083e-06
6.34759e-08
2.06742e-06
4.25409e-06
6.49976e-06
8.69445e-06
1.07411e-05
1.25558e-05
1.40674e-05
1.52166e-05
1.59549e-05
1.6244e-05
1.60541e-05
1.5364e-05
1.41593e-05
1.24321e-05
1.01802e-05
7.40654e-06
4.11865e-06
3.28047e-07
-3.95022e-06
-8.69784e-06
-1.38937e-05
-1.95143e-05
-2.55338e-05
-3.19244e-05
-3.86568e-05
-4.56999e-05
-5.30216e-05
-6.05886e-05
-6.83666e-05
-7.63206e-05
-8.44149e-05
-9.26132e-05
-0.000100879
-0.000109176
-0.000117466
-0.000125713
-0.000133881
-0.000141932
-0.00014983
-0.00015754
-0.000165028
-0.000172258
-0.000179197
-0.000185815
-0.00019208
-0.000197963
-0.000203437
-0.000208478
-0.000213061
-0.000217168
-0.000220782
-0.000223887
-0.000226475
-0.000228539
-0.000230079
-0.000231098
-0.000231606
-0.000231619
-0.000231162
-0.000230267
-0.000228973
-0.000227331
-0.000225403
-0.000223262
-0.000220993
-0.000218694
-0.000216476
-0.000214462
-0.00021279
-0.000211594
-0.000210921
-9.47349e-06
-7.99101e-06
-6.13204e-06
-4.16173e-06
-2.12355e-06
-6.50953e-08
1.94439e-06
3.83393e-06
5.53821e-06
6.99878e-06
8.16392e-06
8.98909e-06
9.43667e-06
9.47601e-06
9.08289e-06
8.23932e-06
6.9329e-06
5.15657e-06
2.90801e-06
1.89354e-07
-2.99333e-06
-6.6303e-06
-1.07086e-05
-1.52123e-05
-2.01228e-05
-2.54193e-05
-3.10786e-05
-3.70759e-05
-4.33847e-05
-4.99768e-05
-5.68231e-05
-6.38931e-05
-7.11555e-05
-7.85783e-05
-8.61287e-05
-9.37735e-05
-0.000101479
-0.000109212
-0.000116937
-0.000124622
-0.000132233
-0.000139735
-0.000147097
-0.000154284
-0.000161267
-0.000168013
-0.000174493
-0.000180678
-0.000186541
-0.000192056
-0.000197198
-0.000201945
-0.000206279
-0.00021018
-0.000213636
-0.000216633
-0.000219164
-0.000221224
-0.000222813
-0.000223935
-0.000224599
-0.00022482
-0.000224616
-0.000224014
-0.000223048
-0.000221756
-0.000220184
-0.000218386
-0.000216422
-0.000214358
-0.000212266
-0.000210217
-0.000208259
-0.000206437
-0.000205006
-1.63045e-05
-1.39395e-05
-1.12476e-05
-8.71827e-06
-6.33635e-06
-4.08469e-06
-1.99528e-06
-1.11948e-07
1.52395e-06
2.8748e-06
3.9062e-06
4.58773e-06
4.8931e-06
4.80065e-06
4.29313e-06
3.35786e-06
1.98636e-06
1.74315e-07
-2.0788e-06
-4.76983e-06
-7.89235e-06
-1.14368e-05
-1.53907e-05
-1.97392e-05
-2.44649e-05
-2.95483e-05
-3.4968e-05
-4.07009e-05
-4.67224e-05
-5.30063e-05
-5.95255e-05
-6.62517e-05
-7.31559e-05
-8.02081e-05
-8.73779e-05
-9.46344e-05
-0.000101946
-0.000109282
-0.00011661
-0.000123899
-0.000131118
-0.000138234
-0.000145219
-0.000152041
-0.000158671
-0.000165081
-0.000171243
-0.00017713
-0.000182717
-0.000187981
-0.000192898
-0.00019745
-0.000201617
-0.000205383
-0.000208736
-0.000211663
-0.000214157
-0.000216214
-0.000217831
-0.00021901
-0.000219759
-0.000220087
-0.000220009
-0.000219544
-0.000218715
-0.00021755
-0.000216082
-0.000214346
-0.000212382
-0.000210233
-0.000207943
-0.000205545
-0.000203028
-0.000200377
-0.000198065
-2.28131e-05
-1.9588e-05
-1.60369e-05
-1.28669e-05
-1.00233e-05
-7.44109e-06
-5.12642e-06
-3.10422e-06
-1.39801e-06
-2.89912e-08
9.82836e-07
1.61931e-06
1.86454e-06
1.70551e-06
1.13214e-06
1.37502e-07
-1.28227e-06
-3.12791e-06
-5.39721e-06
-8.08507e-06
-1.11837e-05
-1.46828e-05
-1.85695e-05
-2.2829e-05
-2.74443e-05
-3.23965e-05
-3.76651e-05
-4.3228e-05
-4.90618e-05
-5.51418e-05
-6.14423e-05
-6.79365e-05
-7.45971e-05
-8.13957e-05
-8.83038e-05
-9.52921e-05
-0.000102331
-0.000109392
-0.000116444
-0.000123457
-0.000130404
-0.000137253
-0.000143977
-0.000150547
-0.000156935
-0.000163115
-0.000169061
-0.000174747
-0.00018015
-0.000185248
-0.000190019
-0.000194445
-0.000198507
-0.00020219
-0.000205481
-0.000208368
-0.000210843
-0.000212899
-0.000214534
-0.000215746
-0.000216539
-0.000216918
-0.000216891
-0.000216471
-0.000215672
-0.000214513
-0.000213012
-0.000211192
-0.000209075
-0.000206687
-0.000204055
-0.000201185
-0.000198017
-0.0001945
-0.000191322
-2.81859e-05
-2.41725e-05
-1.98092e-05
-1.59976e-05
-1.26564e-05
-9.68594e-06
-7.07529e-06
-4.83709e-06
-2.98238e-06
-1.52021e-06
-4.59397e-07
1.91866e-07
4.26504e-07
2.39175e-07
-3.73608e-07
-1.41315e-06
-2.87862e-06
-4.76684e-06
-7.07248e-06
-9.78791e-06
-1.29034e-05
-1.64072e-05
-2.02855e-05
-2.45229e-05
-2.91019e-05
-3.40038e-05
-3.92083e-05
-4.46938e-05
-5.04374e-05
-5.64152e-05
-6.26025e-05
-6.89736e-05
-7.55021e-05
-8.2161e-05
-8.89229e-05
-9.57601e-05
-0.000102644
-0.000109547
-0.000116441
-0.000123297
-0.000130088
-0.000136785
-0.00014336
-0.000149788
-0.000156042
-0.000162096
-0.000167925
-0.000173505
-0.000178814
-0.000183829
-0.000188531
-0.0001929
-0.000196919
-0.000200572
-0.000203845
-0.000206726
-0.000209205
-0.000211274
-0.000212927
-0.000214161
-0.000214974
-0.000215368
-0.000215345
-0.00021491
-0.000214072
-0.000212839
-0.000211222
-0.00020923
-0.000206875
-0.000204169
-0.000201127
-0.000197741
-0.000193913
-0.000189567
-0.000185587
-3.18683e-05
-2.71525e-05
-2.20519e-05
-1.76379e-05
-1.38111e-05
-1.0446e-05
-7.52052e-06
-5.03965e-06
-3.00592e-06
-1.41958e-06
-2.80995e-07
4.09487e-07
6.52005e-07
4.47733e-07
-2.00987e-07
-1.29033e-06
-2.81497e-06
-4.76789e-06
-7.14048e-06
-9.92235e-06
-1.31015e-05
-1.66644e-05
-2.05958e-05
-2.48791e-05
-2.94963e-05
-3.4428e-05
-3.96536e-05
-4.51516e-05
-5.08993e-05
-5.68731e-05
-6.30486e-05
-6.94008e-05
-7.5904e-05
-8.2532e-05
-8.92582e-05
-9.60557e-05
-0.000102897
-0.000109756
-0.000116604
-0.000123414
-0.00013016
-0.000136814
-0.00014335
-0.000149741
-0.000155963
-0.00016199
-0.000167798
-0.000173364
-0.000178665
-0.00018368
-0.000188388
-0.00019277
-0.000196809
-0.000200487
-0.000203791
-0.000206706
-0.00020922
-0.000211324
-0.000213009
-0.000214268
-0.000215097
-0.000215492
-0.000215451
-0.000214973
-0.000214061
-0.000212715
-0.000210939
-0.000208733
-0.000206102
-0.00020305
-0.000199582
-0.000195681
-0.000191223
-0.000186113
-0.000181409
-3.346e-05
-2.81256e-05
-2.23692e-05
-1.74105e-05
-1.31363e-05
-9.40131e-06
-6.17606e-06
-3.46064e-06
-1.25181e-06
4.56577e-07
1.67052e-06
2.39585e-06
2.63853e-06
2.4052e-06
1.70324e-06
5.41061e-07
-1.0719e-06
-3.12496e-06
-5.60627e-06
-8.50265e-06
-1.17997e-05
-1.54819e-05
-1.95322e-05
-2.39327e-05
-2.86642e-05
-3.37066e-05
-3.90388e-05
-4.46386e-05
-5.04832e-05
-5.6549e-05
-6.28118e-05
-6.92466e-05
-7.58281e-05
-8.25305e-05
-8.93277e-05
-9.61933e-05
-0.000103101
-0.000110023
-0.000116934
-0.000123807
-0.000130615
-0.000137333
-0.000143933
-0.00015039
-0.00015668
-0.000162778
-0.00016866
-0.000174301
-0.000179681
-0.000184777
-0.000189568
-0.000194035
-0.00019816
-0.000201924
-0.000205311
-0.000208307
-0.000210897
-0.000213069
-0.000214812
-0.000216116
-0.000216973
-0.000217376
-0.000217317
-0.000216793
-0.000215798
-0.00021433
-0.000212384
-0.000209957
-0.000207045
-0.000203648
-0.000199768
-0.000195378
-0.000190336
-0.000184532
-0.000179179
-3.26491e-05
-2.67728e-05
-2.04408e-05
-1.50024e-05
-1.03335e-05
-6.27258e-06
-2.78477e-06
1.32994e-07
2.48809e-06
4.29145e-06
5.55406e-06
6.28664e-06
6.50001e-06
6.2054e-06
5.41456e-06
4.13998e-06
2.39487e-06
1.9332e-07
-2.44971e-06
-5.51829e-06
-8.99561e-06
-1.28639e-05
-1.71044e-05
-2.16976e-05
-2.6623e-05
-3.18594e-05
-3.73848e-05
-4.31765e-05
-4.9211e-05
-5.54646e-05
-6.19126e-05
-6.85301e-05
-7.52918e-05
-8.21721e-05
-8.91449e-05
-9.61841e-05
-0.000103263
-0.000110356
-0.000117436
-0.000124478
-0.000131454
-0.000138338
-0.000145106
-0.000151731
-0.000158188
-0.000164453
-0.000170501
-0.00017631
-0.000181856
-0.000187116
-0.000192071
-0.000196698
-0.000200978
-0.000204893
-0.000208425
-0.000211556
-0.000214272
-0.000216556
-0.000218396
-0.000219779
-0.000220692
-0.000221126
-0.00022107
-0.000220514
-0.000219451
-0.000217873
-0.00021577
-0.000213136
-0.000209961
-0.000206242
-0.000201979
-0.000197139
-0.000191564
-0.000185133
-0.000179196
-2.91684e-05
-2.28201e-05
-1.59896e-05
-1.01399e-05
-5.13765e-06
-8.07302e-07
2.89033e-06
5.96071e-06
8.41444e-06
1.02663e-05
1.15315e-05
1.22247e-05
1.2361e-05
1.19555e-05
1.1024e-05
9.58256e-06
7.64785e-06
5.23721e-06
2.36853e-06
-9.39562e-07
-4.66783e-06
-8.79631e-06
-1.33044e-05
-1.81709e-05
-2.33738e-05
-2.88908e-05
-3.46988e-05
-4.07741e-05
-4.70928e-05
-5.36304e-05
-6.03619e-05
-6.72621e-05
-7.43055e-05
-8.14663e-05
-8.87183e-05
-9.60355e-05
-0.000103392
-0.00011076
-0.000118115
-0.000125429
-0.000132677
-0.000139833
-0.00014687
-0.000153763
-0.000160487
-0.000167017
-0.000173328
-0.000179396
-0.000185198
-0.00019071
-0.000195911
-0.000200778
-0.000205291
-0.000209429
-0.000213172
-0.000216503
-0.000219403
-0.000221854
-0.000223842
-0.000225349
-0.000226361
-0.000226865
-0.000226847
-0.000226294
-0.000225193
-0.000223534
-0.000221305
-0.000218493
-0.000215087
-0.000211082
-0.000206473
-0.000201227
-0.000195171
-0.000188173
-0.000181708
-2.27668e-05
-1.60121e-05
-8.75819e-06
-2.56861e-06
2.69879e-06
7.23214e-06
1.10746e-05
1.42338e-05
1.67233e-05
1.85613e-05
1.97666e-05
2.03576e-05
2.03531e-05
1.9772e-05
1.86334e-05
1.6957e-05
1.47627e-05
1.20707e-05
8.90196e-06
5.2776e-06
1.21926e-06
-3.25093e-06
-8.11046e-06
-1.33363e-05
-1.89052e-05
-2.47932e-05
-3.09762e-05
-3.74296e-05
-4.41286e-05
-5.10481e-05
-5.81624e-05
-6.54461e-05
-7.2873e-05
-8.04171e-05
-8.80521e-05
-9.57517e-05
-0.000103489
-0.000111239
-0.000118973
-0.000126666
-0.00013429
-0.000141821
-0.000149231
-0.000156495
-0.000163587
-0.00017048
-0.000177152
-0.000183575
-0.000189726
-0.000195581
-0.000201117
-0.000206309
-0.000211137
-0.000215577
-0.000219609
-0.000223211
-0.000226364
-0.000229048
-0.000231245
-0.000232935
-0.000234102
-0.000234728
-0.000234796
-0.000234292
-0.0002332
-0.000231504
-0.00022919
-0.000226243
-0.00022265
-0.0002184
-0.000213492
-0.000207886
-0.000201398
-0.000193887
-0.000186941
-1.319e-05
-6.09378e-06
1.50695e-06
7.96062e-06
1.34178e-05
1.80782e-05
2.19892e-05
2.51609e-05
2.76096e-05
2.93569e-05
3.04253e-05
3.08367e-05
3.06134e-05
2.97777e-05
2.83524e-05
2.63603e-05
2.38243e-05
2.07679e-05
1.72145e-05
1.31879e-05
8.71212e-06
3.81133e-06
-1.48998e-06
-7.16711e-06
-1.31951e-05
-1.95489e-05
-2.62031e-05
-3.3132e-05
-4.03101e-05
-4.77113e-05
-5.53096e-05
-6.30786e-05
-7.0992e-05
-7.90233e-05
-8.71458e-05
-9.53329e-05
-0.000103558
-0.000111793
-0.000120013
-0.00012819
-0.000136298
-0.000144309
-0.000152197
-0.000159936
-0.000167499
-0.000174859
-0.000181992
-0.00018887
-0.000195469
-0.000201763
-0.000207727
-0.000213337
-0.000218569
-0.000223398
-0.000227803
-0.000231758
-0.000235243
-0.000238236
-0.000240714
-0.000242657
-0.000244045
-0.000244858
-0.000245076
-0.00024468
-0.000243653
-0.000241976
-0.000239631
-0.000236601
-0.000232871
-0.000228428
-0.000223269
-0.000217352
-0.00021048
-0.000202505
-0.00019512
-1.67775e-07
7.20189e-06
1.50674e-05
2.1702e-05
2.72643e-05
3.19654e-05
3.58569e-05
3.89517e-05
4.12695e-05
4.28357e-05
4.3676e-05
4.38164e-05
4.32825e-05
4.21002e-05
4.02957e-05
3.7895e-05
3.49242e-05
3.14095e-05
2.73772e-05
2.28535e-05
1.78647e-05
1.24371e-05
6.59715e-06
3.71187e-07
-6.21436e-06
-1.3133e-05
-2.03582e-05
-2.78634e-05
-3.5622e-05
-4.36072e-05
-5.17923e-05
-6.01505e-05
-6.86548e-05
-7.72783e-05
-8.59941e-05
-9.47748e-05
-0.000103594
-0.000112423
-0.000121236
-0.000130005
-0.000138703
-0.000147303
-0.000155777
-0.000164098
-0.000172239
-0.000180172
-0.000187871
-0.000195309
-0.000202459
-0.000209294
-0.000215788
-0.000221914
-0.000227648
-0.000232962
-0.000237832
-0.000242232
-0.000246138
-0.000249525
-0.000252369
-0.000254647
-0.000256335
-0.00025741
-0.000257851
-0.000257635
-0.000256741
-0.000255149
-0.000252837
-0.000249786
-0.000245977
-0.000241398
-0.000236042
-0.000229865
-0.000222658
-0.000214264
-0.000206478
1.65946e-05
2.41617e-05
3.22001e-05
3.89214e-05
4.44925e-05
4.91348e-05
5.29051e-05
5.58198e-05
5.79025e-05
5.91824e-05
5.96895e-05
5.94533e-05
5.85034e-05
5.68693e-05
5.45806e-05
5.16666e-05
4.81565e-05
4.40795e-05
3.94645e-05
3.43402e-05
2.8735e-05
2.26775e-05
1.61958e-05
9.31787e-06
2.0716e-06
-5.51526e-06
-1.34151e-05
-2.16003e-05
-3.00436e-05
-3.87174e-05
-4.75944e-05
-5.66473e-05
-6.58486e-05
-7.51711e-05
-8.45872e-05
-9.40694e-05
-0.00010359
-0.000113122
-0.000122638
-0.000132109
-0.000141508
-0.000150807
-0.000159977
-0.000168991
-0.000177821
-0.000186438
-0.000194814
-0.000202922
-0.000210732
-0.000218217
-0.000225349
-0.000232099
-0.000238439
-0.000244343
-0.000249781
-0.000254727
-0.000259153
-0.000263032
-0.000266337
-0.000269043
-0.000271121
-0.000272548
-0.000273297
-0.000273344
-0.000272663
-0.000271233
-0.000269028
-0.000266026
-0.000262206
-0.000257553
-0.00025206
-0.000245678
-0.000238187
-0.000229422
-0.00022127
3.7422e-05
4.50979e-05
5.32019e-05
5.99006e-05
6.53684e-05
6.9837e-05
7.33685e-05
7.59839e-05
7.77113e-05
7.85845e-05
7.86377e-05
7.79048e-05
7.64194e-05
7.42149e-05
7.13244e-05
6.77806e-05
6.3616e-05
5.88626e-05
5.35519e-05
4.77151e-05
4.13829e-05
3.45856e-05
2.73531e-05
1.97149e-05
1.17002e-05
3.33791e-06
-5.34342e-06
-1.43154e-05
-2.355e-05
-3.30191e-05
-4.26949e-05
-5.25496e-05
-6.25556e-05
-7.2685e-05
-8.29102e-05
-9.32034e-05
-0.000103537
-0.000113882
-0.000124211
-0.000134496
-0.000144708
-0.000154819
-0.000164801
-0.000174623
-0.000184257
-0.000193674
-0.000202844
-0.000211738
-0.000220325
-0.000228577
-0.000236462
-0.000243951
-0.000251014
-0.000257621
-0.000263741
-0.000269345
-0.000274402
-0.000278882
-0.000282756
-0.000285994
-0.000288567
-0.000290445
-0.0002916
-0.000292004
-0.000291629
-0.000290449
-0.000288436
-0.000285564
-0.00028181
-0.000277155
-0.000271591
-0.000265065
-0.000257344
-0.000248257
-0.000239779
6.26721e-05
7.03503e-05
7.83922e-05
8.49389e-05
9.01722e-05
9.43325e-05
9.74888e-05
9.96672e-05
0.000100901
0.00010123
0.000100692
9.93268e-05
9.71717e-05
9.42643e-05
9.06416e-05
8.63399e-05
8.13946e-05
7.58409e-05
6.97127e-05
6.30437e-05
5.58666e-05
4.82135e-05
4.01159e-05
3.16046e-05
2.271e-05
1.34618e-05
3.88937e-06
-5.97832e-06
-1.61126e-05
-2.64853e-05
-3.7068e-05
-4.78329e-05
-5.8752e-05
-6.97975e-05
-8.09415e-05
-9.2156e-05
-0.000103413
-0.000114684
-0.000125941
-0.000137154
-0.000148296
-0.000159337
-0.000170247
-0.000180997
-0.000191556
-0.000201894
-0.00021198
-0.000221783
-0.000231271
-0.000240414
-0.000249178
-0.000257532
-0.000265442
-0.000272878
-0.000279804
-0.00028619
-0.000292001
-0.000297204
-0.000301767
-0.000305656
-0.000308839
-0.000311284
-0.000312957
-0.000313827
-0.000313862
-0.000313033
-0.000311309
-0.00030866
-0.000305058
-0.000300483
-0.000294924
-0.000288322
-0.000280436
-0.000271082
-0.00026232
9.2737e-05
0.000100288
0.000108113
0.000114353
0.000119196
0.000122891
0.000125513
0.000127096
0.000127678
0.000127305
0.000126021
0.000123871
0.000120896
0.000117139
0.00011264
0.00010744
0.000101578
9.50902e-05
8.80145e-05
8.03863e-05
7.22402e-05
6.36101e-05
5.45286e-05
4.50278e-05
3.51387e-05
2.48919e-05
1.4317e-05
3.44345e-06
-7.70004e-06
-1.9085e-05
-3.06833e-05
-4.2467e-05
-5.44083e-05
-6.64794e-05
-7.86524e-05
-9.08994e-05
-0.000103192
-0.000115503
-0.000127802
-0.000140062
-0.000152252
-0.000164342
-0.000176304
-0.000188105
-0.000199715
-0.000211101
-0.000222233
-0.000233076
-0.000243598
-0.000253765
-0.000263543
-0.000272897
-0.000281792
-0.000290193
-0.000298063
-0.000305367
-0.000312069
-0.000318132
-0.000323518
-0.000328192
-0.000332117
-0.000335257
-0.000337574
-0.000339034
-0.0003396
-0.000339238
-0.000337914
-0.000335593
-0.000332245
-0.000327844
-0.000322376
-0.000315779
-0.000307798
-0.000298243
-0.000289247
0.000128042
0.000135306
0.000142727
0.000148475
0.000152744
0.000155788
0.000157691
0.000158493
0.000158242
0.000156989
0.000154785
0.000151678
0.000147718
0.000142949
0.000137418
0.000131168
0.000124241
0.000116677
0.000108516
9.97946e-05
9.05503e-05
8.08177e-05
7.06304e-05
6.00211e-05
4.90216e-05
3.76623e-05
2.59733e-05
1.39837e-05
1.72201e-06
-1.07836e-05
-2.35053e-05
-3.64156e-05
-4.94873e-05
-6.26928e-05
-7.60047e-05
-8.93955e-05
-0.000102837
-0.000116302
-0.000129761
-0.000143184
-0.000156544
-0.000169808
-0.000182947
-0.000195928
-0.00020872
-0.000221289
-0.000233603
-0.000245626
-0.000257323
-0.000268658
-0.000279595
-0.000290097
-0.000300125
-0.000309641
-0.000318607
-0.000326982
-0.000334726
-0.000341799
-0.000348161
-0.00035377
-0.000358585
-0.000362566
-0.000365672
-0.000367862
-0.000369095
-0.000369333
-0.000368537
-0.000366667
-0.000363688
-0.00035957
-0.000354295
-0.000347795
-0.000339804
-0.000330124
-0.000320954
0.000169041
0.000175823
0.000182612
0.000187645
0.000191121
0.000193298
0.000194267
0.000194078
0.000192786
0.000190451
0.000187129
0.000182876
0.000177746
0.000171789
0.000165055
0.000157591
0.000149442
0.000140651
0.00013126
0.000121308
0.000110832
9.98685e-05
8.84517e-05
7.66145e-05
6.43884e-05
5.18038e-05
3.88902e-05
2.56761e-05
1.21894e-05
-1.54276e-06
-1.54934e-05
-2.96358e-05
-4.39437e-05
-5.83905e-05
-7.29496e-05
-8.75941e-05
-0.000102297
-0.00011703
-0.000131765
-0.000146473
-0.000161125
-0.000175689
-0.000190135
-0.000204431
-0.000218542
-0.000232435
-0.000246074
-0.000259425
-0.000272448
-0.000285106
-0.00029736
-0.000309169
-0.000320494
-0.000331291
-0.000341518
-0.000351131
-0.000360087
-0.000368341
-0.000375847
-0.00038256
-0.000388433
-0.000393422
-0.00039748
-0.00040056
-0.000402618
-0.000403608
-0.000403486
-0.000402209
-0.000399733
-0.000396025
-0.000391061
-0.000384767
-0.000376867
-0.000367153
-0.000357881
0.000216214
0.000222276
0.000228156
0.000232209
0.000234633
0.000235688
0.000235473
0.000234049
0.000231481
0.000227835
0.000223177
0.000217567
0.000211065
0.000203727
0.000195606
0.000186754
0.000177217
0.000167042
0.000156271
0.000144945
0.000133103
0.00012078
0.00010801
9.48268e-05
8.12605e-05
6.73406e-05
5.30956e-05
3.85526e-05
2.37382e-05
8.67802e-06
-6.60245e-06
-2.20782e-05
-3.77241e-05
-5.35153e-05
-6.94263e-05
-8.54316e-05
-0.000101505
-0.000117619
-0.000133747
-0.00014986
-0.000165929
-0.000181922
-0.000197809
-0.000213556
-0.000229129
-0.000244494
-0.000259612
-0.000274447
-0.000288958
-0.000303105
-0.000316847
-0.000330139
-0.000342937
-0.000355196
-0.000366869
-0.000377907
-0.000388263
-0.000397887
-0.000406728
-0.000414735
-0.000421857
-0.000428042
-0.000433237
-0.000437392
-0.000440453
-0.000442371
-0.000443094
-0.000442571
-0.000440755
-0.000437605
-0.000433091
-0.000427133
-0.000419442
-0.000409806
-0.00040052
0.000270054
0.000275106
0.000279745
0.0002825
0.000283569
0.000283204
0.000281517
0.00027858
0.000274468
0.000269256
0.000263016
0.000255817
0.000247724
0.000238797
0.000229093
0.000218668
0.00020757
0.000195848
0.000183544
0.000170702
0.000157357
0.000143547
0.000129305
0.000114661
9.96459e-05
8.42867e-05
6.86098e-05
5.26403e-05
3.64026e-05
1.99201e-05
3.21583e-06
-1.36873e-05
-3.07665e-05
-4.7999e-05
-6.53612e-05
-8.28295e-05
-0.000100379
-0.000117985
-0.00013562
-0.000153257
-0.000170867
-0.000188419
-0.000205883
-0.000223224
-0.000240408
-0.000257398
-0.000274156
-0.000290642
-0.000306814
-0.00032263
-0.000338043
-0.000353008
-0.000367475
-0.000381396
-0.000394719
-0.00040739
-0.000419356
-0.000430563
-0.000440952
-0.000450469
-0.000459054
-0.000466648
-0.000473195
-0.000478633
-0.000482905
-0.000485952
-0.000487715
-0.000488137
-0.000487162
-0.000484742
-0.000480841
-0.000475371
-0.000468033
-0.000458608
-0.000449415
0.000331058
0.000334751
0.000337749
0.00033883
0.000338186
0.000336059
0.000332568
0.000327801
0.000321843
0.000314778
0.000306687
0.000297645
0.000287722
0.000276983
0.00026549
0.000253298
0.000240461
0.000227026
0.000213036
0.000198534
0.000183557
0.000168137
0.000152308
0.000136098
0.000119534
0.00010264
8.54406e-05
6.79573e-05
5.02111e-05
3.22223e-05
1.40107e-05
-4.40398e-06
-2.30021e-05
-4.17637e-05
-6.06682e-05
-7.96943e-05
-9.88196e-05
-0.000118021
-0.000137273
-0.000156551
-0.000175825
-0.000195067
-0.000214245
-0.000233325
-0.000252273
-0.00027105
-0.000289616
-0.000307931
-0.00032595
-0.000343626
-0.000360912
-0.000377757
-0.000394107
-0.00040991
-0.000425108
-0.000439643
-0.000453455
-0.000466482
-0.000478662
-0.000489931
-0.000500222
-0.000509471
-0.000517611
-0.000524573
-0.000530292
-0.0005347
-0.000537731
-0.000539317
-0.000539395
-0.000537909
-0.000534813
-0.00053001
-0.000523194
-0.00051414
-0.000505169
0.000399705
0.000401621
0.000402505
0.00040147
0.000398697
0.000394409
0.000388736
0.000381779
0.000373637
0.000364402
0.000354164
0.000343002
0.000330994
0.000318208
0.000304708
0.000290552
0.000275793
0.000260479
0.000244654
0.000228355
0.000211619
0.000194478
0.000176958
0.000159086
0.000140885
0.000122376
0.000103577
8.4507e-05
6.51816e-05
4.5617e-05
2.58287e-05
5.83203e-06
-1.43574e-05
-3.47236e-05
-5.52497e-05
-7.59177e-05
-9.67087e-05
-0.000117602
-0.000138575
-0.000159604
-0.000180663
-0.000201722
-0.000222752
-0.000243719
-0.000264587
-0.000285319
-0.000305872
-0.000326202
-0.000346265
-0.000366009
-0.000385384
-0.000404334
-0.000422803
-0.00044073
-0.000458054
-0.000474709
-0.000490629
-0.000505746
-0.000519988
-0.000533284
-0.00054556
-0.000556741
-0.000566751
-0.000575513
-0.000582952
-0.00058899
-0.00059355
-0.000596556
-0.000597934
-0.000597618
-0.000595551
-0.000591629
-0.000585536
-0.000577043
-0.000568449
0.000476442
0.000476083
0.000474294
0.000470625
0.00046524
0.000458335
0.000450049
0.000440499
0.000429795
0.000418041
0.000405331
0.000391755
0.00037739
0.00036231
0.00034658
0.000330258
0.000313397
0.000296043
0.000278237
0.000260015
0.000241408
0.000222443
0.000203145
0.000183533
0.000163625
0.000143437
0.000122981
0.00010227
8.13138e-05
6.0123e-05
3.87074e-05
1.70766e-05
-4.75897e-06
-2.67884e-05
-4.89996e-05
-7.13793e-05
-9.39125e-05
-0.000116582
-0.00013937
-0.000162254
-0.00018521
-0.000208211
-0.000231229
-0.00025423
-0.000277179
-0.000300036
-0.00032276
-0.000345304
-0.00036762
-0.000389655
-0.000411353
-0.000432655
-0.000453499
-0.000473818
-0.000493545
-0.000512607
-0.00053093
-0.000548437
-0.000565049
-0.000580684
-0.000595259
-0.000608688
-0.000620886
-0.000631766
-0.000641238
-0.000649214
-0.000655608
-0.000660331
-0.000663296
-0.000664426
-0.000663654
-0.000660862
-0.00065573
-0.000648027
-0.000639995
0.00056165
0.00055843
0.000553307
0.000546402
0.000537851
0.000527809
0.000516423
0.000503828
0.000490147
0.000475491
0.000459963
0.000443655
0.00042665
0.000409021
0.000390834
0.000372146
0.000353008
0.000333461
0.000313542
0.000293283
0.000272709
0.000251841
0.000230696
0.000209288
0.000187626
0.000165719
0.000143573
0.000121191
9.8578e-05
7.57354e-05
5.26661e-05
2.93728e-05
5.85886e-06
-1.78704e-05
-4.18096e-05
-6.59513e-05
-9.02858e-05
-0.000114801
-0.000139482
-0.000164311
-0.000189268
-0.000214329
-0.000239465
-0.000264645
-0.000289834
-0.000314994
-0.000340079
-0.000365043
-0.000389835
-0.000414398
-0.000438672
-0.000462593
-0.000486092
-0.000509099
-0.000531536
-0.000553323
-0.000574378
-0.000594615
-0.000613943
-0.00063227
-0.000649503
-0.000665543
-0.000680292
-0.000693651
-0.000705518
-0.000715792
-0.000724371
-0.000731154
-0.000736042
-0.000738942
-0.000739773
-0.000738405
-0.000734517
-0.000727873
-0.000720625
0.000655606
0.000648836
0.000639615
0.000628778
0.000616427
0.000602661
0.000587631
0.000571491
0.000554375
0.000536405
0.000517686
0.000498314
0.000478374
0.000457938
0.000437069
0.000415822
0.00039424
0.000372362
0.000350217
0.000327829
0.000305215
0.000282388
0.000259356
0.000236123
0.00021269
0.000189056
0.000165216
0.000141166
0.0001169
9.24109e-05
6.76924e-05
4.27374e-05
1.75404e-05
-7.89662e-06
-3.35797e-05
-5.95086e-05
-8.56798e-05
-0.000112087
-0.000138722
-0.000165571
-0.000192617
-0.000219841
-0.000247218
-0.000274716
-0.000302304
-0.00032994
-0.000357582
-0.00038518
-0.000412681
-0.000440023
-0.000467144
-0.000493973
-0.000520436
-0.000546453
-0.00057194
-0.000596808
-0.000620964
-0.00064431
-0.000666746
-0.000688166
-0.000708463
-0.000727527
-0.000745244
-0.0007615
-0.000776178
-0.000789161
-0.000800335
-0.000809579
-0.000816779
-0.000821826
-0.000824622
-0.000825025
-0.000822711
-0.000817446
-0.000811245
0.000758442
0.000747323
0.000733118
0.000717555
0.000700685
0.000682533
0.000663254
0.000643019
0.000621974
0.000600245
0.000577943
0.000555163
0.000531988
0.000508487
0.000484719
0.00046073
0.000436559
0.000412232
0.000387772
0.00036319
0.000338493
0.000313684
0.000288758
0.000263707
0.000238522
0.000213188
0.000187691
0.000162012
0.000136136
0.000110044
8.37172e-05
5.71343e-05
3.02922e-05
3.17779e-06
-2.42328e-05
-5.19429e-05
-7.99564e-05
-0.000108275
-0.000136897
-0.000165816
-0.000195021
-0.000224496
-0.000254219
-0.000284165
-0.0003143
-0.000344587
-0.000374981
-0.000405431
-0.000435882
-0.00046627
-0.000496526
-0.000526574
-0.000556334
-0.000585716
-0.000614628
-0.00064297
-0.000670637
-0.00069752
-0.000723505
-0.000748471
-0.000772296
-0.000794854
-0.000816015
-0.000835648
-0.000853617
-0.000869789
-0.000884027
-0.000896197
-0.000906163
-0.000913798
-0.000918984
-0.000921563
-0.000921214
-0.000917706
-0.000912861
0.000870091
0.0008537
0.000833495
0.000812301
0.000790104
0.000766831
0.000742636
0.000717706
0.000692199
0.000666243
0.000639948
0.000613408
0.000586699
0.000559884
0.000533012
0.00050612
0.000479235
0.000452371
0.000425537
0.000398732
0.000371948
0.000345172
0.000318387
0.000291569
0.000264695
0.000237735
0.00021066
0.00018344
0.000156041
0.000128434
0.000100587
7.24707e-05
4.40614e-05
1.53284e-05
-1.37503e-05
-4.31928e-05
-7.30145e-05
-0.000103227
-0.000133836
-0.000164844
-0.000196246
-0.000228034
-0.00026019
-0.000292692
-0.000325512
-0.000358611
-0.000391948
-0.000425469
-0.000459118
-0.000492827
-0.000526522
-0.000560122
-0.000593537
-0.00062667
-0.000659418
-0.000691669
-0.000723306
-0.000754204
-0.000784233
-0.000813258
-0.000841138
-0.000867728
-0.000892878
-0.000916437
-0.00093825
-0.000958161
-0.000976012
-0.000991646
-0.00100491
-0.00101564
-0.00102371
-0.00102895
-0.00103102
-0.00102971
-0.00102659
0.000990216
0.000967497
0.000940136
0.000912292
0.000883865
0.000854659
0.000824819
0.000794549
0.000764014
0.00073334
0.000702633
0.000671978
0.000641443
0.000611078
0.00058092
0.000550991
0.0005213
0.000491847
0.000462621
0.000433605
0.000404774
0.000376096
0.000347535
0.000319052
0.000290604
0.000262145
0.000233628
0.000205005
0.000176229
0.000147252
0.000118028
8.85118e-05
5.8662e-05
2.8438e-05
-2.19635e-06
-3.32732e-05
-6.48205e-05
-9.6861e-05
-0.000129412
-0.000162486
-0.000196087
-0.000230214
-0.000264857
-0.000299999
-0.000335616
-0.000371675
-0.000408132
-0.000444937
-0.00048203
-0.000519341
-0.000556791
-0.000594292
-0.000631746
-0.000669047
-0.000706079
-0.000742718
-0.000778831
-0.000814277
-0.000848908
-0.000882569
-0.0009151
-0.000946332
-0.000976095
-0.00100421
-0.0010305
-0.00105479
-0.00107689
-0.00109661
-0.00111378
-0.00112822
-0.00113976
-0.0011482
-0.00115323
-0.00115465
-0.00115369
0.00111813
0.00108789
0.00105206
0.00101643
0.000980775
0.000944748
0.000908476
0.000872179
0.00083602
0.000800122
0.000764578
0.000729462
0.000694824
0.000660698
0.000627101
0.000594033
0.000561485
0.000529433
0.000497846
0.000466683
0.000435897
0.000405436
0.000375241
0.000345252
0.000315405
0.000285633
0.000255871
0.000226049
0.000196102
0.000165964
0.000135568
0.000104854
7.37616e-05
4.22339e-05
1.02186e-05
-2.23322e-05
-5.54614e-05
-8.92061e-05
-0.000123597
-0.000158659
-0.000194407
-0.000230851
-0.000267991
-0.000305817
-0.000344311
-0.000383445
-0.000423178
-0.000463462
-0.000504235
-0.000545426
-0.000586952
-0.000628716
-0.000670614
-0.000712527
-0.000754328
-0.000795876
-0.000837023
-0.000877608
-0.000917463
-0.000956411
-0.000994266
-0.00103084
-0.00106592
-0.00109932
-0.00113082
-0.00116022
-0.00118729
-0.00121183
-0.00123363
-0.00125247
-0.00126814
-0.00128044
-0.00128908
-0.00129384
-0.00129554
0.00125271
0.00121359
0.00116785
0.00112316
0.00107918
0.00103537
0.00099183
0.000948778
0.000906381
0.000864744
0.000823945
0.000784034
0.000745041
0.000706972
0.00066982
0.000633558
0.000598148
0.00056354
0.000529676
0.000496487
0.000463899
0.000431835
0.000400211
0.00036894
0.000337935
0.000307107
0.000276364
0.000245618
0.000214779
0.00018376
0.000152474
0.00012084
8.87766e-05
5.62084e-05
2.30636e-05
-1.07242e-05
-4.52158e-05
-8.04656e-05
-0.000116521
-0.000153421
-0.000191198
-0.000229873
-0.000269458
-0.000309955
-0.000351354
-0.000393634
-0.000436761
-0.000480688
-0.000525355
-0.00057069
-0.000616605
-0.000662999
-0.000709756
-0.000756749
-0.000803834
-0.000850855
-0.000897645
-0.000944021
-0.000989791
-0.00103475
-0.00107869
-0.00112138
-0.0011626
-0.0012021
-0.00123965
-0.001275
-0.0013079
-0.0013381
-0.00136535
-0.0013894
-0.00141002
-0.00142694
-0.00143991
-0.00144874
-0.00145371
0.00139226
0.00134276
0.00128549
0.00123037
0.00117689
0.00112426
0.00107256
0.001022
0.000972733
0.000924846
0.000878385