/*--------------------------------*- C++ -*----------------------------------*\
  =========                 |
  \\      /  F ield         | OpenFOAM: The Open Source CFD Toolbox
   \\    /   O peration     | Website:  https://openfoam.org
    \\  /    A nd           | Version:  12
     \\/     M anipulation  |
\*---------------------------------------------------------------------------*/
FoamFile
{
    format      ascii;
    class       volVectorField;
    location    "3";
    object      U;
}
// * * * * * * * * * * * * * * * * * * * * * * * * * * * * * * * * * * * * * //

dimensions      [0 1 -1 0 0 0 0];

internalField   nonuniform List<vector> 
5625
(
(-2.60302e-07 5.85648e-07 0)
(-8.97689e-07 8.82116e-07 0)
(-1.31032e-06 7.72813e-07 0)
(-1.17351e-06 4.95593e-07 0)
(-2.609e-07 1.62842e-07 0)
(1.509e-06 -1.77053e-07 0)
(4.13998e-06 -5.00286e-07 0)
(7.59622e-06 -7.94708e-07 0)
(1.18188e-05 -1.05505e-06 0)
(1.67351e-05 -1.27999e-06 0)
(2.22651e-05 -1.47032e-06 0)
(2.83259e-05 -1.62788e-06 0)
(3.48345e-05 -1.75493e-06 0)
(4.17092e-05 -1.85387e-06 0)
(4.88713e-05 -1.92705e-06 0)
(5.6245e-05 -1.97671e-06 0)
(6.37586e-05 -2.00492e-06 0)
(7.13439e-05 -2.01359e-06 0)
(7.89368e-05 -2.00446e-06 0)
(8.64773e-05 -1.97913e-06 0)
(9.3909e-05 -1.93906e-06 0)
(0.00010118 -1.88558e-06 0)
(0.00010824 -1.81992e-06 0)
(0.000115046 -1.74322e-06 0)
(0.000121556 -1.65652e-06 0)
(0.000127731 -1.56079e-06 0)
(0.000133536 -1.45695e-06 0)
(0.00013894 -1.34583e-06 0)
(0.000143913 -1.22823e-06 0)
(0.000148431 -1.10491e-06 0)
(0.00015247 -9.76565e-07 0)
(0.00015601 -8.43881e-07 0)
(0.000159034 -7.07505e-07 0)
(0.000161527 -5.68064e-07 0)
(0.000163477 -4.26167e-07 0)
(0.000164875 -2.8241e-07 0)
(0.000165713 -1.37382e-07 0)
(0.000165987 8.33462e-09 0)
(0.000165696 1.54142e-07 0)
(0.00016484 2.99469e-07 0)
(0.000163422 4.43708e-07 0)
(0.00016145 5.86243e-07 0)
(0.00015893 7.26443e-07 0)
(0.000155876 8.63658e-07 0)
(0.0001523 9.97212e-07 0)
(0.000148221 1.1264e-06 0)
(0.000143658 1.25048e-06 0)
(0.000138634 1.36868e-06 0)
(0.000133176 1.48019e-06 0)
(0.000127313 1.58414e-06 0)
(0.000121077 1.67963e-06 0)
(0.000114505 1.76569e-06 0)
(0.000107636 1.8413e-06 0)
(0.000100514 1.90535e-06 0)
(9.3184e-05 1.95669e-06 0)
(8.56978e-05 1.99406e-06 0)
(7.81093e-05 2.01612e-06 0)
(7.04765e-05 2.0214e-06 0)
(6.28614e-05 2.00835e-06 0)
(5.53297e-05 1.97526e-06 0)
(4.79509e-05 1.9203e-06 0)
(4.07981e-05 1.8415e-06 0)
(3.39478e-05 1.73676e-06 0)
(2.74792e-05 1.60389e-06 0)
(2.14737e-05 1.4407e-06 0)
(1.60135e-05 1.2452e-06 0)
(1.11801e-05 1.01589e-06 0)
(7.05101e-06 7.52374e-07 0)
(3.69545e-06 4.56435e-07 0)
(1.16792e-06 1.3391e-07 0)
(-5.01185e-07 -2.02453e-07 0)
(-1.32223e-06 -5.2834e-07 0)
(-1.38418e-06 -7.95099e-07 0)
(-9.21747e-07 -8.91359e-07 0)
(-2.61096e-07 -5.84061e-07 0)
(-9.9115e-08 1.36033e-06 0)
(1.20903e-07 1.40508e-06 0)
(1.44412e-06 -2.52097e-07 0)
(4.27265e-06 -2.84657e-06 0)
(8.8642e-06 -5.89844e-06 0)
(1.53339e-05 -9.10558e-06 0)
(2.36948e-05 -1.22748e-05 0)
(3.3889e-05 -1.52835e-05 0)
(4.58095e-05 -1.80567e-05 0)
(5.93158e-05 -2.05508e-05 0)
(7.42458e-05 -2.27429e-05 0)
(9.04241e-05 -2.4624e-05 0)
(0.000107669 -2.6194e-05 0)
(0.000125796 -2.74587e-05 0)
(0.000144623 -2.84276e-05 0)
(0.00016397 -2.91127e-05 0)
(0.000183664 -2.95275e-05 0)
(0.000203537 -2.9686e-05 0)
(0.000223429 -2.96031e-05 0)
(0.000243189 -2.92933e-05 0)
(0.000262673 -2.87712e-05 0)
(0.000281746 -2.80512e-05 0)
(0.00030028 -2.71474e-05 0)
(0.000318159 -2.60734e-05 0)
(0.000335271 -2.48426e-05 0)
(0.000351517 -2.34679e-05 0)
(0.000366801 -2.19617e-05 0)
(0.00038104 -2.03362e-05 0)
(0.000394155 -1.86032e-05 0)
(0.000406078 -1.67741e-05 0)
(0.000416745 -1.486e-05 0)
(0.000426103 -1.28719e-05 0)
(0.000434103 -1.08202e-05 0)
(0.000440706 -8.71561e-06 0)
(0.000445879 -6.5683e-06 0)
(0.000449594 -4.38853e-06 0)
(0.000451834 -2.18647e-06 0)
(0.000452587 2.77357e-08 0)
(0.000451846 2.2439e-06 0)
(0.000449615 4.45178e-06 0)
(0.000445902 6.64098e-06 0)
(0.000440724 8.80099e-06 0)
(0.000434105 1.09211e-05 0)
(0.000426075 1.29904e-05 0)
(0.000416674 1.49977e-05 0)
(0.000405947 1.69315e-05 0)
(0.000393949 1.87802e-05 0)
(0.000380743 2.05317e-05 0)
(0.000366398 2.21736e-05 0)
(0.000350994 2.36932e-05 0)
(0.000334617 2.50775e-05 0)
(0.000317365 2.63132e-05 0)
(0.00029934 2.73865e-05 0)
(0.000280658 2.82836e-05 0)
(0.000261439 2.89903e-05 0)
(0.000241816 2.94922e-05 0)
(0.000221927 2.97748e-05 0)
(0.000201922 2.98235e-05 0)
(0.000181956 2.96242e-05 0)
(0.000162193 2.91627e-05 0)
(0.000142806 2.84257e-05 0)
(0.000123969 2.7401e-05 0)
(0.000105865 2.60783e-05 0)
(8.86784e-05 2.44498e-05 0)
(7.25926e-05 2.2512e-05 0)
(5.77882e-05 2.02677e-05 0)
(4.44374e-05 1.77288e-05 0)
(3.26977e-05 1.49215e-05 0)
(2.27029e-05 1.18931e-05 0)
(1.45515e-05 8.7223e-06 0)
(8.29103e-06 5.53531e-06 0)
(3.89632e-06 2.52825e-06 0)
(1.23769e-06 4.47205e-09 0)
(4.025e-08 -1.55903e-06 0)
(-1.07604e-07 -1.40846e-06 0)
(8.38566e-08 5.00141e-07 0)
(1.88218e-06 -2.22206e-06 0)
(5.92276e-06 -7.47028e-06 0)
(1.24711e-05 -1.42058e-05 0)
(2.1611e-05 -2.1701e-05 0)
(3.3371e-05 -2.9448e-05 0)
(4.77162e-05 -3.70899e-05 0)
(6.45489e-05 -4.43789e-05 0)
(8.37205e-05 -5.11472e-05 0)
(0.000105045 -5.7285e-05 0)
(0.000128308 -6.27252e-05 0)
(0.000153277 -6.74306e-05 0)
(0.000179709 -7.13862e-05 0)
(0.000207354 -7.45926e-05 0)
(0.00023596 -7.70619e-05 0)
(0.000265279 -7.88137e-05 0)
(0.000295066 -7.98737e-05 0)
(0.000325083 -8.0271e-05 0)
(0.000355102 -8.00375e-05 0)
(0.000384903 -7.92066e-05 0)
(0.000414278 -7.78126e-05 0)
(0.000443027 -7.58902e-05 0)
(0.000470965 -7.34741e-05 0)
(0.000497916 -7.05985e-05 0)
(0.000523717 -6.72976e-05 0)
(0.000548216 -6.36046e-05 0)
(0.000571274 -5.95524e-05 0)
(0.000592762 -5.51729e-05 0)
(0.000612562 -5.04976e-05 0)
(0.000630571 -4.55572e-05 0)
(0.000646692 -4.03819e-05 0)
(0.000660842 -3.50013e-05 0)
(0.00067295 -2.94444e-05 0)
(0.000682953 -2.37402e-05 0)
(0.000690801 -1.7917e-05 0)
(0.000696453 -1.20031e-05 0)
(0.00069988 -6.02681e-06 0)
(0.000701064 -1.62221e-08 0)
(0.000699995 6.00033e-06 0)
(0.000696677 1.19943e-05 0)
(0.000691123 1.7937e-05 0)
(0.000683358 2.37991e-05 0)
(0.000673418 2.95511e-05 0)
(0.00066135 3.51627e-05 0)
(0.000647212 4.06034e-05 0)
(0.000631075 4.58416e-05 0)
(0.000613021 5.08455e-05 0)
(0.000593142 5.55824e-05 0)
(0.000571547 6.00189e-05 0)
(0.000548354 6.41211e-05 0)
(0.000523693 6.78544e-05 0)
(0.000497708 7.11838e-05 0)
(0.000470556 7.40738e-05 0)
(0.000442406 7.64887e-05 0)
(0.000413437 7.83926e-05 0)
(0.000383845 7.97499e-05 0)
(0.000353833 8.05256e-05 0)
(0.000323617 8.06855e-05 0)
(0.000293425 8.0197e-05 0)
(0.000263491 7.90297e-05 0)
(0.00023406 7.71567e-05 0)
(0.00020538 7.45555e-05 0)
(0.000177706 7.12099e-05 0)
(0.000151291 6.71127e-05 0)
(0.000126386 6.22687e-05 0)
(0.000103233 5.66992e-05 0)
(8.20631e-05 5.0448e-05 0)
(6.30837e-05 4.35901e-05 0)
(4.64739e-05 3.62429e-05 0)
(3.23719e-05 2.85825e-05 0)
(2.08631e-05 2.08646e-05 0)
(1.1967e-05 1.34527e-05 0)
(5.63683e-06 6.85967e-06 0)
(1.76665e-06 1.81399e-06 0)
(7.18759e-08 -6.50768e-07 0)
(2.5182e-07 -2.17913e-06 0)
(3.67048e-06 -1.04937e-05 0)
(1.05456e-05 -2.15455e-05 0)
(2.09719e-05 -3.42199e-05 0)
(3.48015e-05 -4.76784e-05 0)
(5.19165e-05 -6.12939e-05 0)
(7.21862e-05 -7.45973e-05 0)
(9.544e-05 -8.72431e-05 0)
(0.000121469 -9.89829e-05 0)
(0.000150033 -0.000109644 0)
(0.00018087 -0.000119113 0)
(0.0002137 -0.00012732 0)
(0.000248231 -0.00013423 0)
(0.000284166 -0.000139835 0)
(0.000321205 -0.000144145 0)
(0.000359048 -0.000147186 0)
(0.000397401 -0.000148995 0)
(0.000435978 -0.000149616 0)
(0.0004745 -0.0001491 0)
(0.000512699 -0.000147501 0)
(0.000550317 -0.000144877 0)
(0.000587112 -0.000141287 0)
(0.000622852 -0.000136791 0)
(0.000657319 -0.000131449 0)
(0.000690309 -0.000125321 0)
(0.000721634 -0.000118466 0)
(0.000751116 -0.000110944 0)
(0.000778595 -0.000102813 0)
(0.000803923 -9.41292e-05 0)
(0.000826965 -8.49499e-05 0)
(0.000847601 -7.53303e-05 0)
(0.000865727 -6.53252e-05 0)
(0.000881248 -5.49888e-05 0)
(0.000894086 -4.43747e-05 0)
(0.000904176 -3.3536e-05 0)
(0.000911466 -2.25256e-05 0)
(0.000915918 -1.13965e-05 0)
(0.000917506 -2.01506e-07 0)
(0.000916219 1.10061e-05 0)
(0.000912062 2.21728e-05 0)
(0.000905048 3.32445e-05 0)
(0.000895211 4.41663e-05 0)
(0.000882593 5.48829e-05 0)
(0.000867254 6.53377e-05 0)
(0.000849268 7.54733e-05 0)
(0.000828723 8.52313e-05 0)
(0.000805723 9.45524e-05 0)
(0.000780385 0.000103376 0)
(0.000752845 0.000111641 0)
(0.000723251 0.000119285 0)
(0.000691767 0.000126244 0)
(0.000658575 0.000132456 0)
(0.000623869 0.000137857 0)
(0.00058786 0.000142383 0)
(0.000550773 0.000145971 0)
(0.00051285 0.000148558 0)
(0.000474342 0.000150086 0)
(0.000435517 0.000150496 0)
(0.000396652 0.000149735 0)
(0.000358035 0.000147755 0)
(0.000319963 0.000144515 0)
(0.000282738 0.000139984 0)
(0.000246665 0.000134141 0)
(0.000212049 0.000126986 0)
(0.000179192 0.000118535 0)
(0.000148386 0.000108834 0)
(0.000119909 9.79646e-05 0)
(9.40195e-05 8.60531e-05 0)
(7.09501e-05 7.32857e-05 0)
(5.08992e-05 5.99244e-05 0)
(3.40241e-05 4.63283e-05 0)
(2.04384e-05 3.29793e-05 0)
(1.02385e-05 2.05157e-05 0)
(3.54443e-06 9.78448e-06 0)
(2.38435e-07 1.90414e-06 0)
(3.92215e-07 -6.56799e-06 0)
(5.28768e-06 -2.32398e-05 0)
(1.48141e-05 -4.23102e-05 0)
(2.89152e-05 -6.27013e-05 0)
(4.72157e-05 -8.35614e-05 0)
(6.94372e-05 -0.000104222 0)
(9.53324e-05 -0.000124162 0)
(0.000124638 -0.000142982 0)
(0.000157068 -0.000160381 0)
(0.00019232 -0.000176144 0)
(0.000230075 -0.000190123 0)
(0.000270006 -0.000202222 0)
(0.000311776 -0.000212392 0)
(0.000355047 -0.000220616 0)
(0.000399478 -0.000226904 0)
(0.000444733 -0.000231288 0)
(0.000490479 -0.000233816 0)
(0.000536394 -0.00023455 0)
(0.000582162 -0.000233559 0)
(0.000627481 -0.00023092 0)
(0.000672059 -0.000226717 0)
(0.000715621 -0.000221034 0)
(0.000757902 -0.00021396 0)
(0.000798654 -0.000205583 0)
(0.000837645 -0.000195993 0)
(0.000874657 -0.00018528 0)
(0.000909487 -0.000173532 0)
(0.00094195 -0.000160838 0)
(0.000971875 -0.000147285 0)
(0.000999107 -0.000132958 0)
(0.00102351 -0.000117945 0)
(0.00104495 -0.000102328 0)
(0.00106333 -8.61917e-05 0)
(0.00107855 -6.96194e-05 0)
(0.00109055 -5.26937e-05 0)
(0.00109924 -3.54968e-05 0)
(0.0011046 -1.81113e-05 0)
(0.00110658 -6.19802e-07 0)
(0.00110519 1.68946e-05 0)
(0.0011004 3.43481e-05 0)
(0.00109226 5.16562e-05 0)
(0.00108078 6.87333e-05 0)
(0.00106602 8.54926e-05 0)
(0.00104805 0.000101846 0)
(0.00102695 0.000117704 0)
(0.00100282 0.000132976 0)
(0.000975783 0.00014757 0)
(0.000945971 0.000161391 0)
(0.000913539 0.000174347 0)
(0.000878659 0.000186339 0)
(0.00084152 0.000197273 0)
(0.000802329 0.000207051 0)
(0.00076131 0.000215577 0)
(0.000718704 0.000222755 0)
(0.00067477 0.000228491 0)
(0.000629782 0.000232693 0)
(0.00058403 0.000235273 0)
(0.000537817 0.000236148 0)
(0.00049146 0.000235242 0)
(0.000445286 0.000232488 0)
(0.000399632 0.000227831 0)
(0.000354841 0.000221229 0)
(0.00031126 0.000212661 0)
(0.000269239 0.000202127 0)
(0.000229124 0.000189658 0)
(0.000191253 0.000175321 0)
(0.000155957 0.000159227 0)
(0.00012355 0.000141544 0)
(9.43302e-05 0.000122508 0)
(6.8574e-05 0.000102439 0)
(4.65311e-05 8.17576e-05 0)
(2.84308e-05 6.1007e-05 0)
(1.4528e-05 4.08745e-05 0)
(5.1674e-06 2.22297e-05 0)
(3.78973e-07 6.16612e-06 0)
(5.08636e-07 -1.24475e-05 0)
(6.69756e-06 -3.99979e-05 0)
(1.85973e-05 -6.91826e-05 0)
(3.6031e-05 -9.90102e-05 0)
(5.84232e-05 -0.000128671 0)
(8.5344e-05 -0.000157507 0)
(0.000116428 -0.000184993 0)
(0.000151312 -0.000210711 0)
(0.000189626 -0.000234344 0)
(0.000230995 -0.000255657 0)
(0.000275043 -0.000274485 0)
(0.000321388 -0.000290723 0)
(0.000369651 -0.000304314 0)
(0.000419451 -0.00031524 0)
(0.000470414 -0.000323518 0)
(0.00052217 -0.00032919 0)
(0.000574356 -0.000332318 0)
(0.00062662 -0.000332982 0)
(0.000678622 -0.000331274 0)
(0.000730031 -0.000327295 0)
(0.000780535 -0.000321156 0)
(0.000829831 -0.000312971 0)
(0.000877635 -0.000302857 0)
(0.000923678 -0.000290934 0)
(0.000967705 -0.000277324 0)
(0.00100948 -0.000262149 0)
(0.00104879 -0.00024553 0)
(0.00108542 -0.000227587 0)
(0.00111919 -0.000208441 0)
(0.00114992 -0.000188212 0)
(0.00117748 -0.000167016 0)
(0.00120171 -0.000144973 0)
(0.0012225 -0.000122196 0)
(0.00123976 -9.88037e-05 0)
(0.00125338 -7.491e-05 0)
(0.00126331 -5.06306e-05 0)
(0.00126949 -2.60808e-05 0)
(0.00127188 -1.37663e-06 0)
(0.00127048 2.33654e-05 0)
(0.00126527 4.80278e-05 0)
(0.00125628 7.24916e-05 0)
(0.00124353 9.66367e-05 0)
(0.0012271 0.000120341 0)
(0.00120703 0.000143481 0)
(0.00118344 0.000165931 0)
(0.00115641 0.000187565 0)
(0.00112609 0.000208252 0)
(0.00109262 0.000227862 0)
(0.00105617 0.000246263 0)
(0.00101692 0.000263321 0)
(0.000975072 0.000278904 0)
(0.000930862 0.000292876 0)
(0.000884531 0.000305106 0)
(0.000836342 0.000315461 0)
(0.000786576 0.000323813 0)
(0.000735533 0.000330038 0)
(0.000683529 0.000334016 0)
(0.000630897 0.000335637 0)
(0.000577982 0.000334799 0)
(0.000525143 0.000331413 0)
(0.000472752 0.000325407 0)
(0.000421186 0.000316727 0)
(0.000370831 0.000305345 0)
(0.000322077 0.00029126 0)
(0.000275314 0.000274508 0)
(0.00023093 0.000255168 0)
(0.000189312 0.000233369 0)
(0.000150837 0.000209302 0)
(0.000115878 0.000183231 0)
(8.47961e-05 0.000155503 0)
(5.79422e-05 0.000126564 0)
(3.5664e-05 9.69721e-05 0)
(1.83673e-05 6.74135e-05 0)
(6.59542e-06 3.87268e-05 0)
(4.96317e-07 1.19306e-05 0)
(6.06021e-07 -1.96094e-05 0)
(7.91657e-06 -6.02748e-05 0)
(2.19053e-05 -0.000101485 0)
(4.23012e-05 -0.00014235 0)
(6.83593e-05 -0.00018213 0)
(9.95144e-05 -0.000220212 0)
(0.00013529 -0.000256094 0)
(0.000175225 -0.000289376 0)
(0.000218866 -0.000319747 0)
(0.000265765 -0.000346979 0)
(0.000315481 -0.000370911 0)
(0.00036758 -0.000391442 0)
(0.000421638 -0.000408523 0)
(0.000477234 -0.000422148 0)
(0.000533959 -0.000432346 0)
(0.000591415 -0.000439177 0)
(0.000649212 -0.000442723 0)
(0.000706976 -0.000443087 0)
(0.000764344 -0.000440387 0)
(0.00082097 -0.000434752 0)
(0.00087652 -0.000426321 0)
(0.000930679 -0.000415239 0)
(0.000983148 -0.000401657 0)
(0.00103364 -0.000385728 0)
(0.0010819 -0.000367605 0)
(0.00112766 -0.000347446 0)
(0.00117071 -0.000325405 0)
(0.00121083 -0.000301638 0)
(0.00124781 -0.0002763 0)
(0.00128148 -0.000249543 0)
(0.00131169 -0.000221521 0)
(0.00133828 -0.000192385 0)
(0.00136112 -0.000162286 0)
(0.00138012 -0.000131374 0)
(0.00139517 -9.97986e-05 0)
(0.00140619 -6.77105e-05 0)
(0.00141315 -3.52599e-05 0)
(0.00141598 -2.59802e-06 0)
(0.00141468 3.01229e-05 0)
(0.00140923 6.27492e-05 0)
(0.00139966 9.51254e-05 0)
(0.00138599 0.000127094 0)
(0.00136828 0.000158496 0)
(0.0013466 0.000189168 0)
(0.00132105 0.000218947 0)
(0.00129173 0.000247666 0)
(0.00125878 0.000275156 0)
(0.00122235 0.000301246 0)
(0.00118262 0.000325762 0)
(0.00113977 0.000348533 0)
(0.00109403 0.000369382 0)
(0.00104563 0.000388136 0)
(0.000994829 0.000404622 0)
(0.000941905 0.00041867 0)
(0.000887156 0.000430114 0)
(0.0008309 0.000438792 0)
(0.000773473 0.000444551 0)
(0.00071523 0.000447249 0)
(0.000656541 0.000446754 0)
(0.000597793 0.000442953 0)
(0.000539385 0.000435751 0)
(0.000481728 0.000425075 0)
(0.000425245 0.000410883 0)
(0.000370365 0.000393166 0)
(0.000317525 0.000371954 0)
(0.000267166 0.000347326 0)
(0.000219731 0.000319412 0)
(0.000175667 0.00028841 0)
(0.000135423 0.000254586 0)
(9.94486e-05 0.00021829 0)
(6.8194e-05 0.000179965 0)
(4.21191e-05 0.000140153 0)
(2.17648e-05 9.95094e-05 0)
(7.84379e-06 5.88155e-05 0)
(5.95241e-07 1.90001e-05 0)
(6.88955e-07 -2.78771e-05 0)
(8.9737e-06 -8.36218e-05 0)
(2.47921e-05 -0.000138566 0)
(4.77981e-05 -0.000191923 0)
(7.7102e-05 -0.000243035 0)
(0.000112021 -0.000291348 0)
(0.000151976 -0.000336412 0)
(0.000196418 -0.000377863 0)
(0.00024481 -0.000415422 0)
(0.000296634 -0.000448886 0)
(0.000351387 -0.000478118 0)
(0.000408582 -0.000503039 0)
(0.000467749 -0.000523623 0)
(0.000528431 -0.000539887 0)
(0.000590187 -0.000551884 0)
(0.000652588 -0.000559699 0)
(0.000715226 -0.000563444 0)
(0.000777706 -0.00056325 0)
(0.00083965 -0.000559265 0)
(0.000900696 -0.000551651 0)
(0.000960503 -0.00054058 0)
(0.00101874 -0.000526231 0)
(0.00107511 -0.000508787 0)
(0.00112931 -0.000488438 0)
(0.00118108 -0.000465372 0)
(0.00123015 -0.000439781 0)
(0.0012763 -0.000411855 0)
(0.0013193 -0.000381786 0)
(0.00135895 -0.000349762 0)
(0.00139508 -0.000315972 0)
(0.0014275 -0.000280603 0)
(0.00145607 -0.000243843 0)
(0.00148067 -0.000205877 0)
(0.00150117 -0.000166889 0)
(0.00151747 -0.000127065 0)
(0.00152951 -8.65913e-05 0)
(0.00153721 -4.56528e-05 0)
(0.00154054 -4.43706e-06 0)
(0.00153945 3.68669e-05 0)
(0.00153396 7.80683e-05 0)
(0.00152406 0.000118974 0)
(0.00150979 0.000159388 0)
(0.0014912 0.000199111 0)
(0.00146836 0.000237942 0)
(0.00144135 0.000275675 0)
(0.00141028 0.000312102 0)
(0.0013753 0.000347013 0)
(0.00133654 0.000380194 0)
(0.0012942 0.000411429 0)
(0.00124845 0.0004405 0)
(0.00119953 0.000467191 0)
(0.00114768 0.000491283 0)
(0.00109315 0.000512561 0)
(0.00103625 0.000530812 0)
(0.000977267 0.000545828 0)
(0.000916544 0.000557408 0)
(0.00085443 0.00056536 0)
(0.000791296 0.000569505 0)
(0.000727535 0.000569677 0)
(0.000663555 0.000565731 0)
(0.000599784 0.000557541 0)
(0.000536665 0.000545011 0)
(0.000474655 0.000528074 0)
(0.000414225 0.000506702 0)
(0.000355857 0.000480909 0)
(0.000300047 0.000450757 0)
(0.000247299 0.000416365 0)
(0.000198128 0.000377917 0)
(0.000153058 0.000335665 0)
(0.000112628 0.00028994 0)
(7.73792e-05 0.000241161 0)
(4.78759e-05 0.000189835 0)
(2.47777e-05 0.00013657 0)
(8.9423e-06 8.2081e-05 0)
(6.80317e-07 2.72085e-05 0)
(7.61089e-07 -3.71055e-05 0)
(9.89664e-06 -0.00010965 0)
(2.73166e-05 -0.000179837 0)
(5.26112e-05 -0.000246982 0)
(8.47653e-05 -0.000310509 0)
(0.000122991 -0.000369941 0)
(0.00016662 -0.000424888 0)
(0.000215019 -0.000475044 0)
(0.000267577 -0.000520178 0)
(0.000323707 -0.000560131 0)
(0.000382849 -0.000594808 0)
(0.000444467 -0.000624169 0)
(0.000508047 -0.000648223 0)
(0.000573097 -0.000667024 0)
(0.000639145 -0.000680663 0)
(0.000705742 -0.000689259 0)
(0.000772458 -0.000692961 0)
(0.000838884 -0.000691937 0)
(0.000904631 -0.000686371 0)
(0.00096933 -0.000676462 0)
(0.00103263 -0.000662418 0)
(0.00109421 -0.000644457 0)
(0.00115374 -0.000622798 0)
(0.00121095 -0.000597667 0)
(0.00126555 -0.00056929 0)
(0.00131729 -0.000537894 0)
(0.00136594 -0.000503704 0)
(0.00141128 -0.000466948 0)
(0.0014531 -0.000427849 0)
(0.00149122 -0.000386631 0)
(0.00152547 -0.000343516 0)
(0.0015557 -0.000298724 0)
(0.00158178 -0.000252476 0)
(0.00160359 -0.000204991 0)
(0.00162103 -0.000156488 0)
(0.00163401 -0.000107188 0)
(0.00164246 -5.73114e-05 0)
(0.00164635 -7.08224e-06 0)
(0.00164563 4.32748e-05 0)
(0.00164029 9.35318e-05 0)
(0.00163034 0.000143458 0)
(0.00161579 0.000192817 0)
(0.0015967 0.000241373 0)
(0.00157313 0.000288881 0)
(0.00154515 0.000335096 0)
(0.00151287 0.000379766 0)
(0.00147642 0.000422637 0)
(0.00143595 0.000463452 0)
(0.00139163 0.000501948 0)
(0.00134366 0.000537863 0)
(0.00129224 0.000570934 0)
(0.00123763 0.000600895 0)
(0.0011801 0.000627486 0)
(0.00111992 0.000650446 0)
(0.00105742 0.000669522 0)
(0.000992936 0.000684469 0)
(0.000926831 0.00069505 0)
(0.000859491 0.000701042 0)
(0.000791324 0.00070224 0)
(0.000722761 0.000698458 0)
(0.000654256 0.000689535 0)
(0.00058628 0.000675337 0)
(0.000519327 0.000655766 0)
(0.000453907 0.000630762 0)
(0.000390552 0.000600309 0)
(0.000329808 0.000564442 0)
(0.000272239 0.000523251 0)
(0.000218429 0.000476891 0)
(0.000168978 0.000425585 0)
(0.000124505 0.000369629 0)
(8.56398e-05 0.000309403 0)
(5.30405e-05 0.000245368 0)
(2.74731e-05 0.000178075 0)
(9.9213e-06 0.000108175 0)
(7.55338e-07 3.64233e-05 0)
(8.25068e-07 -4.7176e-05 0)
(1.0707e-05 -0.000138027 0)
(2.95268e-05 -0.000224777 0)
(5.68162e-05 -0.000306838 0)
(9.14476e-05 -0.000383724 0)
(0.000132539 -0.000455039 0)
(0.000179341 -0.000520469 0)
(0.000231143 -0.000579777 0)
(0.000287266 -0.000632797 0)
(0.000347062 -0.000679431 0)
(0.000409919 -0.000719639 0)
(0.000475253 -0.000753436 0)
(0.000542513 -0.000780883 0)
(0.000611176 -0.000802084 0)
(0.000680745 -0.000817176 0)
(0.000750751 -0.000826328 0)
(0.00082075 -0.000829731 0)
(0.000890325 -0.000827599 0)
(0.000959078 -0.000820159 0)
(0.00102664 -0.000807654 0)
(0.00109266 -0.000790333 0)
(0.0011568 -0.000768452 0)
(0.00121877 -0.000742273 0)
(0.00127827 -0.000712057 0)
(0.00133504 -0.000678069 0)
(0.00138882 -0.000640573 0)
(0.00143938 -0.000599829 0)
(0.00148651 -0.0005561 0)
(0.00153001 -0.000509643 0)
(0.0015697 -0.000460716 0)
(0.00160541 -0.000409572 0)
(0.00163699 -0.000356466 0)
(0.00166431 -0.000301651 0)
(0.00168725 -0.000245377 0)
(0.00170571 -0.000187898 0)
(0.0017196 -0.000129467 0)
(0.00172884 -7.03373e-05 0)
(0.00173338 -1.07673e-05 0)
(0.00173319 4.89833e-05 0)
(0.00172824 0.000108651 0)
(0.00171852 0.000167967 0)
(0.00170405 0.000226659 0)
(0.00168486 0.000284449 0)
(0.00166101 0.000341055 0)
(0.00163257 0.000396187 0)
(0.00159963 0.000449551 0)
(0.00156232 0.000500848 0)
(0.00152075 0.000549775 0)
(0.00147511 0.000596024 0)
(0.00142558 0.000639283 0)
(0.00137236 0.000679239 0)
(0.00131571 0.00071558 0)
(0.00125587 0.000747992 0)
(0.00119314 0.000776165 0)
(0.00112784 0.000799796 0)
(0.00106031 0.000818588 0)
(0.00099091 0.000832254 0)
(0.000920051 0.000840522 0)
(0.00084815 0.000843139 0)
(0.000775659 0.000839869 0)
(0.000703051 0.000830506 0)
(0.00063083 0.000814871 0)
(0.000559521 0.000792821 0)
(0.000489675 0.000764253 0)
(0.000421869 0.000729109 0)
(0.000356701 0.000687382 0)
(0.000294796 0.000639122 0)
(0.000236801 0.00058444 0)
(0.000183389 0.000523515 0)
(0.000135256 0.000456598 0)
(9.31169e-05 0.000384019 0)
(5.77142e-05 0.000306185 0)
(2.99116e-05 0.000223589 0)
(1.08068e-05 0.000136813 0)
(8.23225e-07 4.65413e-05 0)
(8.82643e-07 -5.7988e-05 0)
(1.1419e-05 -0.000168456 0)
(3.14535e-05 -0.000272906 0)
(6.04602e-05 -0.000370845 0)
(9.72076e-05 -0.000461881 0)
(0.000140727 -0.000545708 0)
(0.000190193 -0.000622098 0)
(0.000244827 -0.000690896 0)
(0.000303888 -0.000752017 0)
(0.000366672 -0.000805437 0)
(0.000432521 -0.00085119 0)
(0.000500811 -0.000889358 0)
(0.000570959 -0.000920069 0)
(0.000642415 -0.000943488 0)
(0.000714666 -0.000959814 0)
(0.000787227 -0.000969273 0)
(0.000859648 -0.000972111 0)
(0.000931505 -0.000968594 0)
(0.0010024 -0.000959 0)
(0.00107197 -0.00094362 0)
(0.00113987 -0.000922749 0)
(0.00120578 -0.000896687 0)
(0.0012694 -0.000865738 0)
(0.00133044 -0.000830202 0)
(0.00138866 -0.000790383 0)
(0.00144381 -0.000746581 0)
(0.00149567 -0.000699091 0)
(0.00154403 -0.000648209 0)
(0.00158871 -0.000594226 0)
(0.00162953 -0.000537429 0)
(0.00166632 -0.000478104 0)
(0.00169895 -0.000416533 0)
(0.00172728 -0.000353001 0)
(0.00175119 -0.000287787 0)
(0.00177058 -0.000221174 0)
(0.00178536 -0.000153445 0)
(0.00179544 -8.48848e-05 0)
(0.00180077 -1.57825e-05 0)
(0.0018013 5.35696e-05 0)
(0.001797 0.000122874 0)
(0.00178785 0.000191829 0)
(0.00177385 0.000260123 0)
(0.00175502 0.000327443 0)
(0.0017314 0.000393464 0)
(0.00170305 0.000457857 0)
(0.00167005 0.000520284 0)
(0.00163249 0.000580402 0)
(0.00159051 0.000637859 0)
(0.00154425 0.000692299 0)
(0.00149388 0.00074336 0)
(0.0014396 0.000790679 0)
(0.00138165 0.000833887 0)
(0.00132028 0.000872619 0)
(0.00125576 0.000906509 0)
(0.00118842 0.000935196 0)
(0.00111859 0.000958328 0)
(0.00104665 0.00097556 0)
(0.000972995 0.000986564 0)
(0.000898071 0.000991026 0)
(0.000822339 0.000988658 0)
(0.000746294 0.000979194 0)
(0.000670465 0.0009624 0)
(0.00059541 0.000938077 0)
(0.000521719 0.000906067 0)
(0.00045001 0.000866258 0)
(0.000380935 0.000818588 0)
(0.000315173 0.000763052 0)
(0.000253436 0.000699707 0)
(0.000196465 0.000628676 0)
(0.000145032 0.000550155 0)
(9.9928e-05 0.000464413 0)
(6.19799e-05 0.000371799 0)
(3.2142e-05 0.000272744 0)
(1.16192e-05 0.000167766 0)
(8.86144e-07 5.74826e-05 0)
(9.3478e-07 -6.94519e-05 0)
(1.20387e-05 -0.000200666 0)
(3.31077e-05 -0.000323769 0)
(6.35558e-05 -0.000438371 0)
(0.000102052 -0.000544181 0)
(0.000147546 -0.000640991 0)
(0.000199142 -0.000728673 0)
(0.000255999 -0.00080717 0)
(0.000317319 -0.000876489 0)
(0.000382353 -0.000936698 0)
(0.0004504 -0.000987917 0)
(0.000520805 -0.00103031 0)
(0.00059296 -0.00106409 0)
(0.000666297 -0.0010895 0)
(0.00074029 -0.0011068 0)
(0.000814452 -0.00111629 0)
(0.000888328 -0.00111829 0)
(0.0009615 -0.00111311 0)
(0.00103358 -0.0011011 0)
(0.00110421 -0.0010826 0)
(0.00117306 -0.00105794 0)
(0.00123983 -0.0010275 0)
(0.00130422 -0.000991594 0)
(0.00136598 -0.000950584 0)
(0.00142487 -0.000904805 0)
(0.00148066 -0.000854593 0)
(0.00153315 -0.000800278 0)
(0.00158214 -0.000742185 0)
(0.00162746 -0.000680635 0)
(0.00166894 -0.000615944 0)
(0.00170643 -0.000548425 0)
(0.00173979 -0.000478386 0)
(0.00176889 -0.000406136 0)
(0.00179361 -0.000331981 0)
(0.00181386 -0.000256228 0)
(0.00182953 -0.000179186 0)
(0.00184054 -0.000101168 0)
(0.00184682 -2.24886e-05 0)
(0.00184831 5.65309e-05 0)
(0.00184497 0.000135563 0)
(0.00183677 0.000214272 0)
(0.00182369 0.000292317 0)
(0.00180573 0.000369345 0)
(0.00178292 0.000444995 0)
(0.00175528 0.000518896 0)
(0.00172288 0.00059067 0)
(0.00168581 0.000659926 0)
(0.00164416 0.000726266 0)
(0.00159806 0.000789283 0)
(0.00154766 0.000848564 0)
(0.00149316 0.00090369 0)
(0.00143475 0.000954236 0)
(0.00137268 0.000999778 0)
(0.00130722 0.00103989 0)
(0.00123868 0.00107415 0)
(0.00116739 0.00110213 0)
(0.00109372 0.00112344 0)
(0.00101807 0.00113767 0)
(0.000940905 0.00114445 0)
(0.000862683 0.00114343 0)
(0.000783923 0.00113425 0)
(0.000705176 0.00111664 0)
(0.00062703 0.00109031 0)
(0.000550109 0.00105505 0)
(0.000475075 0.00101068 0)
(0.000402626 0.000957057 0)
(0.000333497 0.000894121 0)
(0.000268461 0.000821858 0)
(0.000208326 0.000740326 0)
(0.000153935 0.000649654 0)
(0.000106157 0.000550045 0)
(6.58974e-05 0.000441782 0)
(3.41996e-05 0.000325231 0)
(1.23731e-05 0.000200847 0)
(9.45635e-07 6.91853e-05 0)
(9.81737e-07 -8.14803e-05 0)
(1.25644e-05 -0.000234382 0)
(3.44801e-05 -0.000376902 0)
(6.60773e-05 -0.000508762 0)
(0.000105929 -0.000629781 0)
(0.000152905 -0.000739868 0)
(0.000206045 -0.000839008 0)
(0.000264451 -0.000927254 0)
(0.000327276 -0.00100473 0)
(0.000393729 -0.0010716 0)
(0.000463077 -0.00112809 0)
(0.000534644 -0.00117448 0)
(0.000607803 -0.00121105 0)
(0.000681979 -0.00123815 0)
(0.000756643 -0.00125612 0)
(0.00083131 -0.00126535 0)
(0.000905537 -0.00126621 0)
(0.000978917 -0.0012591 0)
(0.00105108 -0.00124443 0)
(0.00112169 -0.00122258 0)
(0.00119043 -0.00119398 0)
(0.00125702 -0.001159 0)
(0.0013212 -0.00111805 0)
(0.00138274 -0.0010715 0)
(0.00144142 -0.00101974 0)
(0.00149703 -0.000963138 0)
(0.0015494 -0.000902048 0)
(0.00159834 -0.000836827 0)
(0.0016437 -0.00076782 0)
(0.00168532 -0.000695367 0)
(0.00172307 -0.000619803 0)
(0.00175682 -0.000541458 0)
(0.00178645 -0.000460659 0)
(0.00181183 -0.000377732 0)
(0.00183287 -0.000293005 0)
(0.00184946 -0.000206806 0)
(0.00186151 -0.000119469 0)
(0.00186895 -3.1331e-05 0)
(0.00187169 5.72628e-05 0)
(0.00186969 0.00014596 0)
(0.00186289 0.000234397 0)
(0.00185126 0.000322202 0)
(0.00183477 0.00040899 0)
(0.00181343 0.000494365 0)
(0.00178723 0.000577918 0)
(0.00175622 0.000659227 0)
(0.00172045 0.000737858 0)
(0.00167999 0.000813364 0)
(0.00163495 0.000885288 0)
(0.00158546 0.000953161 0)
(0.00153166 0.00101651 0)
(0.00147376 0.00107484 0)
(0.00141196 0.00112767 0)
(0.00134652 0.00117451 0)
(0.00127774 0.00121487 0)
(0.00120593 0.00124825 0)
(0.00113146 0.00127418 0)
(0.00105473 0.00129219 0)
(0.000976191 0.00130181 0)
(0.000896323 0.00130262 0)
(0.000815655 0.00129421 0)
(0.000734756 0.00127619 0)
(0.00065424 0.00124821 0)
(0.000574763 0.00120998 0)
(0.000497027 0.00116123 0)
(0.000421776 0.00110174 0)
(0.000349798 0.00103138 0)
(0.000281923 0.000950053 0)
(0.000219027 0.000857732 0)
(0.000162021 0.000754474 0)
(0.000111851 0.000640407 0)
(6.95015e-05 0.000515742 0)
(3.61059e-05 0.000380775 0)
(1.30777e-05 0.000235896 0)
(1.00272e-06 8.15992e-05 0)
(1.02312e-06 -9.39809e-05 0)
(1.29865e-05 -0.000269312 0)
(3.55395e-05 -0.000431802 0)
(6.79586e-05 -0.000581299 0)
(0.000108722 -0.000717753 0)
(0.000156624 -0.000841204 0)
(0.000210642 -0.00095177 0)
(0.000269826 -0.00104963 0)
(0.000333288 -0.00113505 0)
(0.000400205 -0.0012083 0)
(0.000469821 -0.00126975 0)
(0.000541445 -0.00131976 0)
(0.000614446 -0.00135876 0)
(0.000688251 -0.00138718 0)
(0.00076234 -0.00140546 0)
(0.000836242 -0.00141408 0)
(0.000909535 -0.0014135 0)
(0.000981835 -0.0014042 0)
(0.0010528 -0.00138664 0)
(0.00112212 -0.00136129 0)
(0.00118953 -0.00132861 0)
(0.00125476 -0.00128905 0)
(0.0013176 -0.00124304 0)
(0.00137784 -0.00119102 0)
(0.00143529 -0.00113339 0)
(0.00148978 -0.00107055 0)
(0.00154116 -0.00100289 0)
(0.00158928 -0.000930783 0)
(0.001634 -0.000854603 0)
(0.00167519 -0.000774702 0)
(0.00171273 -0.000691431 0)
(0.00174649 -0.000605134 0)
(0.00177636 -0.00051615 0)
(0.00180224 -0.000424819 0)
(0.00182401 -0.00033148 0)
(0.00184156 -0.000236474 0)
(0.00185481 -0.000140149 0)
(0.00186366 -4.28583e-05 0)
(0.00186802 5.50367e-05 0)
(0.0018678 0.000153163 0)
(0.00186295 0.000251136 0)
(0.00185339 0.000348558 0)
(0.00183908 0.000445015 0)
(0.00181999 0.000540079 0)
(0.00179608 0.000633306 0)
(0.00176737 0.000724233 0)
(0.00173386 0.000812382 0)
(0.00169561 0.00089726 0)
(0.00165268 0.000978356 0)
(0.00160516 0.00105515 0)
(0.00155317 0.00112709 0)
(0.00149688 0.00119364 0)
(0.00143648 0.00125424 0)
(0.00137218 0.00130833 0)
(0.00130426 0.00135534 0)
(0.00123303 0.00139469 0)
(0.00115883 0.00142583 0)
(0.00108206 0.00144821 0)
(0.00100316 0.00146127 0)
(0.00092261 0.0014645 0)
(0.000840953 0.00145739 0)
(0.000758771 0.00143947 0)
(0.0006767 0.0014103 0)
(0.000595425 0.00136948 0)
(0.000515682 0.00131665 0)
(0.00043826 0.00125152 0)
(0.000363997 0.00117383 0)
(0.00029378 0.00108341 0)
(0.00022855 0.000980137 0)
(0.000169289 0.000863986 0)
(0.000117018 0.000734998 0)
(7.28029e-05 0.000593303 0)
(3.78689e-05 0.00043912 0)
(1.37373e-05 0.000272769 0)
(1.05798e-06 9.46807e-05 0)
(1.05787e-06 -0.000106848 0)
(1.3287e-05 -0.00030512 0)