/*--------------------------------*- C++ -*----------------------------------*\
  =========                 |
  \\      /  F ield         | OpenFOAM: The Open Source CFD Toolbox
   \\    /   O peration     | Website:  https://openfoam.org
    \\  /    A nd           | Version:  12
     \\/     M anipulation  |
\*---------------------------------------------------------------------------*/
FoamFile
{
    format      ascii;
    class       volScalarField;
    location    "3.5";
    object      k;
}
// * * * * * * * * * * * * * * * * * * * * * * * * * * * * * * * * * * * * * //

dimensions      [0 2 -2 0 0 0 0];

internalField   nonuniform List<scalar> 
18225
(
1.88996e-10
9.4448e-10
2.06694e-09
3.41478e-09
4.92486e-09
6.55989e-09
8.2935e-09
1.01052e-08
1.19783e-08
1.38989e-08
1.58552e-08
1.78372e-08
1.98365e-08
2.18461e-08
2.38603e-08
2.58744e-08
2.7885e-08
2.98895e-08
3.18863e-08
3.38745e-08
3.58539e-08
3.7825e-08
3.97887e-08
4.17465e-08
4.37001e-08
4.56515e-08
4.76027e-08
4.95561e-08
5.15137e-08
5.34776e-08
5.54499e-08
5.74322e-08
5.94261e-08
6.14327e-08
6.3453e-08
6.54875e-08
6.75365e-08
6.95997e-08
7.16766e-08
7.37664e-08
7.58677e-08
7.7979e-08
8.00982e-08
8.22231e-08
8.43508e-08
8.64785e-08
8.86027e-08
9.07197e-08
9.28254e-08
9.49156e-08
9.69854e-08
9.903e-08
1.01044e-07
1.03022e-07
1.04957e-07
1.06844e-07
1.08676e-07
1.10446e-07
1.12148e-07
1.13774e-07
1.15316e-07
1.16767e-07
1.18119e-07
1.19366e-07
1.20498e-07
1.21508e-07
1.22388e-07
1.23131e-07
1.2373e-07
1.24179e-07
1.24468e-07
1.24592e-07
1.24552e-07
1.24339e-07
1.23948e-07
1.23377e-07
1.22622e-07
1.21683e-07
1.20558e-07
1.19249e-07
1.17758e-07
1.16087e-07
1.1424e-07
1.12223e-07
1.10042e-07
1.07705e-07
1.0522e-07
1.02598e-07
9.98475e-08
9.69812e-08
9.40109e-08
9.09494e-08
8.781e-08
8.46062e-08
8.13519e-08
7.8061e-08
7.47474e-08
7.14246e-08
6.8106e-08
6.48043e-08
6.15318e-08
5.83e-08
5.51196e-08
5.20004e-08
4.89513e-08
4.59804e-08
4.30944e-08
4.02993e-08
3.75998e-08
3.49999e-08
3.25023e-08
3.01089e-08
2.78206e-08
2.56377e-08
2.35595e-08
2.15845e-08
1.97106e-08
1.79354e-08
1.62557e-08
1.46683e-08
1.31694e-08
1.17552e-08
1.04218e-08
9.16536e-09
7.98224e-09
6.86915e-09
5.8233e-09
4.84268e-09
3.92629e-09
3.07459e-09
2.29013e-09
1.57871e-09
9.51872e-10
4.34021e-10
8.68051e-11
9.45047e-10
8.13107e-09
1.8372e-08
3.05622e-08
4.41864e-08
5.89242e-08
7.45434e-08
9.08619e-08
1.0773e-07
1.25024e-07
1.42637e-07
1.60479e-07
1.78475e-07
1.96563e-07
2.1469e-07
2.32816e-07
2.5091e-07
2.68947e-07
2.86915e-07
3.04804e-07
3.22613e-07
3.40347e-07
3.58015e-07
3.75629e-07
3.93204e-07
4.10759e-07
4.28314e-07
4.45887e-07
4.63498e-07
4.81167e-07
4.9891e-07
5.16744e-07
5.34683e-07
5.52737e-07
5.70913e-07
5.89219e-07
6.07654e-07
6.26218e-07
6.44905e-07
6.63709e-07
6.82617e-07
7.01615e-07
7.20685e-07
7.39805e-07
7.58952e-07
7.78099e-07
7.97214e-07
8.16266e-07
8.35216e-07
8.54027e-07
8.72656e-07
8.91057e-07
9.09183e-07
9.26983e-07
9.44404e-07
9.61389e-07
9.77881e-07
9.93817e-07
1.00913e-06
1.02377e-06
1.03765e-06
1.05072e-06
1.0629e-06
1.07412e-06
1.08432e-06
1.09341e-06
1.10135e-06
1.10804e-06
1.11343e-06
1.11745e-06
1.12003e-06
1.12113e-06
1.12075e-06
1.11882e-06
1.11529e-06
1.11013e-06
1.10332e-06
1.09485e-06
1.08471e-06
1.07292e-06
1.05948e-06
1.04442e-06
1.02779e-06
1.00963e-06
9.89995e-07
9.68955e-07
9.46587e-07
9.22979e-07
8.98225e-07
8.72428e-07
8.45697e-07
8.18146e-07
7.89896e-07
7.61067e-07
7.31786e-07
7.02176e-07
6.72362e-07
6.42467e-07
6.1261e-07
5.82906e-07
5.53465e-07
5.2439e-07
4.95779e-07
4.67718e-07
4.4029e-07
4.13563e-07
3.87602e-07
3.62458e-07
3.38175e-07
3.14787e-07
2.92321e-07
2.70791e-07
2.50207e-07
2.3057e-07
2.11872e-07
1.94104e-07
1.77247e-07
1.61277e-07
1.46168e-07
1.31889e-07
1.18406e-07
1.05686e-07
9.3693e-08
8.2392e-08
7.17504e-08
6.17382e-08
5.23303e-08
4.35083e-08
3.52626e-08
2.75969e-08
2.05329e-08
1.41202e-08
8.45578e-09
3.73463e-09
4.3384e-10
2.07328e-09
1.84161e-08
4.19647e-08
7.01035e-08
1.01588e-07
1.35654e-07
1.71755e-07
2.0947e-07
2.48451e-07
2.8841e-07
3.29103e-07
3.70323e-07
4.11896e-07
4.53676e-07
4.95545e-07
5.37408e-07
5.79193e-07
6.20848e-07
6.62338e-07
7.03647e-07
7.44771e-07
7.85721e-07
8.26517e-07
8.6719e-07
9.07776e-07
9.48317e-07
9.88857e-07
1.02944e-06
1.07012e-06
1.11094e-06
1.15193e-06
1.19313e-06
1.23458e-06
1.27629e-06
1.3183e-06
1.3606e-06
1.40321e-06
1.44612e-06
1.48931e-06
1.53277e-06
1.57648e-06
1.62039e-06
1.66447e-06
1.70867e-06
1.75293e-06
1.79718e-06
1.84135e-06
1.88538e-06
1.92917e-06
1.97263e-06
2.01566e-06
2.05817e-06
2.10003e-06
2.14113e-06
2.18134e-06
2.22054e-06
2.2586e-06
2.29536e-06
2.33068e-06
2.36442e-06
2.39641e-06
2.42651e-06
2.45454e-06
2.48036e-06
2.5038e-06
2.5247e-06
2.54289e-06
2.55823e-06
2.57057e-06
2.57975e-06
2.5856e-06
2.588e-06
2.58703e-06
2.58246e-06
2.5742e-06
2.56218e-06
2.54635e-06
2.52669e-06
2.50318e-06
2.47584e-06
2.44471e-06
2.40987e-06
2.37138e-06
2.32936e-06
2.28395e-06
2.23531e-06
2.18361e-06
2.12904e-06
2.07185e-06
2.01225e-06
1.9505e-06
1.88687e-06
1.82163e-06
1.75507e-06
1.68746e-06
1.61911e-06
1.55029e-06
1.48129e-06
1.41239e-06
1.34384e-06
1.27591e-06
1.20883e-06
1.14283e-06
1.0781e-06
1.01483e-06
9.53187e-07
8.93313e-07
8.35327e-07
7.79332e-07
7.25404e-07
6.73602e-07
6.23965e-07
5.76512e-07
5.31244e-07
4.88148e-07
4.47194e-07
4.08341e-07
3.71535e-07
3.36713e-07
3.03804e-07
2.72732e-07
2.43416e-07
2.15774e-07
1.89728e-07
1.65199e-07
1.42121e-07
1.20433e-07
1.00094e-07
8.10807e-08
6.34027e-08
4.7111e-08
3.23239e-08
1.92759e-08
8.4417e-09
9.49835e-10
3.4402e-09
3.07677e-08
7.04049e-08
1.17945e-07
1.71234e-07
2.28937e-07
2.90109e-07
3.5402e-07
4.20079e-07
4.87791e-07
5.56742e-07
6.2658e-07
6.97011e-07
7.67787e-07
8.38708e-07
9.09614e-07
9.80383e-07
1.05093e-06
1.12119e-06
1.19114e-06
1.26078e-06
1.33012e-06
1.39921e-06
1.46809e-06
1.53682e-06
1.60549e-06
1.67416e-06
1.74291e-06
1.81183e-06
1.88098e-06
1.95044e-06
2.02027e-06
2.09053e-06
2.16124e-06
2.23246e-06
2.30418e-06
2.37642e-06
2.44918e-06
2.52242e-06
2.59612e-06
2.67023e-06
2.74469e-06
2.81943e-06
2.89436e-06
2.96938e-06
3.04439e-06
3.11925e-06
3.19385e-06
3.26804e-06
3.34165e-06
3.41452e-06
3.48647e-06
3.55732e-06
3.62686e-06
3.69488e-06
3.76116e-06
3.82547e-06
3.88758e-06
3.94723e-06
4.00417e-06
4.05815e-06
4.10889e-06
4.15612e-06
4.19959e-06
4.23901e-06
4.27411e-06
4.30463e-06
4.33031e-06
4.3509e-06
4.36616e-06
4.37574e-06
4.3795e-06
4.37759e-06
4.36957e-06
4.3553e-06
4.33467e-06
4.3076e-06
4.27404e-06
4.23398e-06
4.18746e-06
4.13453e-06
4.07531e-06
4.00994e-06
3.93862e-06
3.86156e-06
3.77904e-06
3.69136e-06
3.59886e-06
3.50191e-06
3.40091e-06
3.29629e-06
3.18851e-06
3.07802e-06
2.9653e-06
2.85084e-06
2.73514e-06
2.61867e-06
2.50191e-06
2.38533e-06
2.26938e-06
2.15448e-06
2.04104e-06
1.92944e-06
1.82001e-06
1.71307e-06
1.60889e-06
1.50771e-06
1.40974e-06
1.31515e-06
1.22406e-06
1.13657e-06
1.05275e-06
9.72622e-07
8.96197e-07
8.23444e-07
7.54316e-07
6.88738e-07
6.26619e-07
5.67853e-07
5.12317e-07
4.59882e-07
4.10411e-07
3.63766e-07
3.19812e-07
2.7842e-07
2.39471e-07
2.02868e-07
1.68538e-07
1.36447e-07
1.0661e-07
7.91199e-08
5.41863e-08
3.22226e-08
1.40525e-08
1.57031e-09
4.99319e-09
4.47661e-08
1.0267e-07
1.72315e-07
2.50517e-07
3.35282e-07
4.25191e-07
5.19151e-07
6.16279e-07
7.15843e-07
8.17227e-07
9.19911e-07
1.02346e-06
1.12751e-06
1.23177e-06
1.33599e-06
1.44001e-06
1.54369e-06
1.64696e-06
1.74977e-06
1.85211e-06
1.95402e-06
2.05556e-06
2.1568e-06
2.25784e-06
2.35878e-06
2.45974e-06
2.56084e-06
2.66219e-06
2.76391e-06
2.86609e-06
2.96883e-06
3.0722e-06
3.17626e-06
3.28106e-06
3.38662e-06
3.49294e-06
3.60002e-06
3.70781e-06
3.81627e-06
3.92532e-06
4.03487e-06
4.1448e-06
4.255e-06
4.36531e-06
4.47557e-06
4.5856e-06
4.69519e-06
4.80414e-06
4.9122e-06
5.01914e-06
5.12469e-06
5.22856e-06
5.33047e-06
5.4301e-06
5.52714e-06
5.62124e-06
5.71206e-06
5.79923e-06
5.88239e-06
5.96116e-06
6.03515e-06
6.10397e-06
6.16722e-06
6.22452e-06
6.27547e-06
6.31968e-06
6.35679e-06
6.38643e-06
6.40825e-06
6.42166e-06
6.42662e-06
6.42327e-06
6.41098e-06
6.38951e-06
6.35872e-06
6.31849e-06
6.26876e-06
6.20951e-06
6.14078e-06
6.06268e-06
5.97536e-06
5.87904e-06
5.77399e-06
5.66055e-06
5.5391e-06
5.4101e-06
5.27404e-06
5.13148e-06
4.98299e-06
4.82922e-06
4.67082e-06
4.50848e-06
4.3429e-06
4.1748e-06
4.00489e-06
3.8339e-06
3.66252e-06
3.49144e-06
3.32132e-06
3.15278e-06
2.98642e-06
2.82278e-06
2.66237e-06
2.50564e-06
2.353e-06
2.20478e-06
2.0613e-06
1.92279e-06
1.78943e-06
1.66138e-06
1.53872e-06
1.42148e-06
1.30968e-06
1.20327e-06
1.10217e-06
1.00628e-06
9.15451e-07
8.29534e-07
7.48346e-07
6.71695e-07
5.9938e-07
5.31196e-07
4.66946e-07
4.06438e-07
3.49501e-07
2.95992e-07
2.45806e-07
1.98895e-07
1.55289e-07
1.1513e-07
7.87395e-08
4.67371e-08
2.03359e-08
2.26688e-09
6.70719e-09
6.02011e-08
1.38252e-07
2.32318e-07
3.38096e-07
4.52864e-07
5.74672e-07
7.02015e-07
8.3368e-07
9.68662e-07
1.10612e-06
1.24533e-06
1.38572e-06
1.52678e-06
1.66811e-06
1.8094e-06
1.9504e-06
2.09093e-06
2.2309e-06
2.37024e-06
2.50895e-06
2.64709e-06
2.78472e-06
2.92195e-06
3.05893e-06
3.19579e-06
3.3327e-06
3.4698e-06
3.60727e-06
3.74525e-06
3.88388e-06
4.02328e-06
4.16354e-06
4.30475e-06
4.44696e-06
4.5902e-06
4.73447e-06
4.87974e-06
5.02597e-06
5.17307e-06
5.32094e-06
5.46944e-06
5.61843e-06
5.76771e-06
5.91708e-06
6.06632e-06
6.21518e-06
6.36337e-06
6.51061e-06
6.65658e-06
6.80093e-06
6.94333e-06
7.08337e-06
7.22068e-06
7.35482e-06
7.48538e-06
7.61189e-06
7.7339e-06
7.85092e-06
7.96245e-06
8.068e-06
8.16704e-06
8.25906e-06
8.34355e-06
8.41996e-06
8.48779e-06
8.54652e-06
8.59566e-06
8.63472e-06
8.66324e-06
8.68031e-06
8.68613e-06
8.68077e-06
8.66333e-06
8.63353e-06
8.59115e-06
8.53606e-06
8.46815e-06
8.38742e-06
8.29391e-06
8.18777e-06
8.06919e-06
7.93846e-06
7.79597e-06
7.64214e-06
7.47752e-06
7.3027e-06
7.11836e-06
6.92524e-06
6.72414e-06
6.51591e-06
6.30145e-06
6.08169e-06
5.85758e-06
5.6301e-06
5.40022e-06
5.16892e-06
4.93714e-06
4.70582e-06
4.47585e-06
4.24808e-06
4.0233e-06
3.80227e-06
3.58565e-06
3.37407e-06
3.16805e-06
2.96808e-06
2.77454e-06
2.58776e-06
2.40798e-06
2.2354e-06
2.07012e-06
1.91219e-06
1.76162e-06
1.61834e-06
1.48223e-06
1.35316e-06
1.23092e-06
1.11531e-06
1.00607e-06
9.02936e-07
8.05644e-07
7.13915e-07
6.27476e-07
5.46072e-07
4.69472e-07
3.97484e-07
3.2997e-07
2.66871e-07
2.08232e-07
1.54258e-07
1.05393e-07
6.24808e-08
2.71498e-08
3.02298e-09
8.56915e-09
7.69609e-08
1.76886e-07
2.97484e-07
4.33257e-07
5.80699e-07
7.37281e-07
9.01046e-07
1.07041e-06
1.24408e-06
1.42094e-06
1.60008e-06
1.78072e-06
1.96223e-06
2.14408e-06
2.32587e-06
2.50727e-06
2.68808e-06
2.86814e-06
3.0474e-06
3.22586e-06
3.40357e-06
3.58064e-06
3.75722e-06
3.93347e-06
4.10959e-06
4.28578e-06
4.46226e-06
4.63921e-06
4.81684e-06
4.99531e-06
5.17477e-06
5.35536e-06
5.53715e-06
5.72021e-06
5.90458e-06
6.09023e-06
6.27713e-06
6.4652e-06
6.65432e-06
6.84436e-06
7.03512e-06
7.2264e-06
7.41796e-06
7.60952e-06
7.80079e-06
7.99143e-06
8.18109e-06
8.36938e-06
8.55591e-06
8.74023e-06
8.9219e-06
9.10042e-06
9.27529e-06
9.446e-06
9.61199e-06
9.77269e-06
9.92753e-06
1.00759e-05
1.02172e-05
1.03507e-05
1.04759e-05
1.0592e-05
1.06985e-05
1.07947e-05
1.08799e-05
1.09535e-05
1.10148e-05
1.10633e-05
1.10983e-05
1.11186e-05
1.11249e-05
1.11168e-05
1.10933e-05
1.10541e-05
1.09988e-05
1.09273e-05
1.08395e-05
1.07353e-05
1.06149e-05
1.04783e-05
1.03258e-05
1.01577e-05
9.97467e-06
9.77712e-06
9.56575e-06
9.34133e-06
9.10473e-06
8.85689e-06
8.59883e-06
8.33166e-06
8.05651e-06
7.77459e-06
7.48714e-06
7.19539e-06
6.9006e-06
6.60404e-06
6.30692e-06
6.01044e-06
5.71576e-06
5.42396e-06
5.13608e-06
4.85306e-06
4.57579e-06
4.30503e-06
4.04148e-06
3.78574e-06
3.5383e-06
3.29959e-06
3.0699e-06
2.84947e-06
2.63843e-06
2.43684e-06
2.24469e-06
2.06189e-06
1.88829e-06
1.7237e-06
1.56785e-06
1.42046e-06
1.28122e-06
1.14978e-06
1.02579e-06
9.08897e-07
7.98746e-07
6.95012e-07
5.974e-07
5.05669e-07
4.19646e-07
3.39261e-07
2.64582e-07
1.9588e-07
1.3373e-07
7.92144e-08
3.43926e-08
3.82705e-09
1.05726e-08
9.49898e-08
2.18439e-07
3.6758e-07
5.35644e-07
7.18287e-07
9.12362e-07
1.11543e-06
1.3255e-06
1.54095e-06
1.76039e-06
1.98268e-06
2.20684e-06
2.43207e-06
2.65773e-06
2.8833e-06
3.10839e-06
3.33272e-06
3.55612e-06
3.77852e-06
3.99991e-06
4.22038e-06
4.44006e-06
4.65913e-06
4.8778e-06
5.09632e-06
5.31494e-06
5.53392e-06
5.7535e-06
5.97391e-06
6.19537e-06
6.41803e-06
6.64206e-06
6.86755e-06
7.09457e-06
7.32313e-06
7.5532e-06
7.78472e-06
8.01757e-06
8.2516e-06
8.48662e-06
8.72237e-06
8.9586e-06
9.19499e-06
9.43118e-06
9.66681e-06
9.90146e-06
1.01347e-05
1.0366e-05
1.05949e-05
1.08209e-05
1.10435e-05
1.12619e-05
1.14757e-05
1.16841e-05
1.18866e-05
1.20824e-05
1.22709e-05
1.24513e-05
1.26228e-05
1.27848e-05
1.29365e-05
1.3077e-05
1.32057e-05
1.33216e-05
1.34241e-05
1.35124e-05
1.35857e-05
1.36432e-05
1.36844e-05
1.37072e-05
1.37133e-05
1.37017e-05
1.36713e-05
1.36216e-05
1.35522e-05
1.3463e-05
1.33538e-05
1.32245e-05
1.30752e-05
1.29061e-05
1.27175e-05
1.25099e-05
1.22837e-05
1.20397e-05
1.17787e-05
1.15017e-05
1.12096e-05
1.09036e-05
1.05851e-05
1.02553e-05
9.91568e-06
9.56771e-06
9.21291e-06
8.85283e-06
8.48903e-06
8.12307e-06
7.75645e-06
7.39068e-06
7.02717e-06
6.66729e-06
6.31231e-06
5.96341e-06
5.62166e-06
5.28805e-06
4.96341e-06
4.64849e-06
4.34389e-06
4.05012e-06
3.76756e-06
3.49648e-06
3.23703e-06
2.98928e-06
2.75321e-06
2.52868e-06
2.31552e-06
2.11346e-06
1.92218e-06
1.74132e-06
1.57049e-06
1.40925e-06
1.25716e-06
1.11378e-06
9.78679e-07
8.51454e-07
7.31741e-07
6.19246e-07
5.13762e-07
4.1521e-07
3.23682e-07
2.39519e-07
1.63434e-07
9.67537e-08
4.1985e-08
4.67018e-09
1.27151e-08
1.14267e-07
2.62864e-07
4.42522e-07
6.4512e-07
8.65432e-07
1.09966e-06
1.34483e-06
1.59854e-06
1.8588e-06
2.12392e-06
2.39251e-06
2.66338e-06
2.93556e-06
3.20823e-06
3.48079e-06
3.75275e-06
4.02378e-06
4.29367e-06
4.56232e-06
4.82974e-06
5.09604e-06
5.36136e-06
5.62594e-06
5.89003e-06
6.15393e-06
6.41794e-06
6.68236e-06
6.94749e-06
7.2136e-06
7.48091e-06
7.74964e-06
8.01993e-06
8.29189e-06
8.56558e-06
8.841e-06
9.11809e-06
9.39674e-06
9.67681e-06
9.95808e-06
1.02403e-05
1.05232e-05
1.08063e-05
1.10894e-05
1.13719e-05
1.16535e-05
1.19336e-05
1.22116e-05
1.24871e-05
1.27594e-05
1.30279e-05
1.3292e-05
1.35509e-05
1.3804e-05
1.40505e-05
1.42896e-05
1.45206e-05
1.47427e-05
1.4955e-05
1.51567e-05
1.53468e-05
1.55246e-05
1.56891e-05
1.58395e-05
1.59747e-05
1.60939e-05
1.61962e-05
1.62808e-05
1.63467e-05
1.63931e-05
1.64176e-05
1.64227e-05
1.64067e-05
1.63684e-05
1.63071e-05
1.62225e-05
1.61144e-05
1.59825e-05
1.58267e-05
1.56471e-05
1.5444e-05
1.52177e-05
1.49686e-05
1.46974e-05
1.4405e-05
1.40922e-05
1.37602e-05
1.34102e-05
1.30437e-05
1.2662e-05
1.22668e-05
1.18599e-05
1.14429e-05
1.10177e-05
1.05861e-05
1.01501e-05
9.71143e-06
9.27202e-06
8.83363e-06
8.39797e-06
7.9667e-06
7.54134e-06
7.12334e-06
6.71397e-06
6.31442e-06
5.92572e-06
5.54874e-06
5.18422e-06
4.83276e-06
4.49482e-06
4.1707e-06
3.8606e-06
3.56458e-06
3.2826e-06
3.01449e-06
2.76003e-06
2.51889e-06
2.29067e-06
2.07493e-06
1.87119e-06
1.67892e-06
1.49758e-06
1.32665e-06
1.1656e-06
1.01394e-06
8.7125e-07
7.37169e-07
6.1146e-07
4.94033e-07
3.85006e-07
2.84794e-07
1.94249e-07
1.1495e-07
4.98629e-08
5.54516e-09
1.49968e-08
1.34795e-07
3.10169e-07
5.22319e-07
7.61696e-07
1.02214e-06
1.29916e-06
1.58923e-06
1.88951e-06
2.1976e-06
2.51151e-06
2.82955e-06
3.15031e-06
3.47262e-06
3.79551e-06
4.11824e-06
4.44023e-06
4.76108e-06
5.08055e-06
5.39851e-06
5.71497e-06
6.03006e-06
6.34395e-06
6.65693e-06
6.96929e-06
7.28138e-06
7.59355e-06
7.90615e-06
8.21952e-06
8.53395e-06
8.84972e-06
9.16703e-06
9.48605e-06
9.80688e-06
1.01295e-05
1.0454e-05
1.07802e-05
1.1108e-05
1.14371e-05
1.17673e-05
1.20983e-05
1.24297e-05
1.2761e-05
1.30918e-05
1.34216e-05
1.37499e-05
1.4076e-05
1.43993e-05
1.47192e-05
1.50349e-05
1.53459e-05
1.56513e-05
1.59503e-05
1.62423e-05
1.65262e-05
1.68013e-05
1.70668e-05
1.73216e-05
1.75649e-05
1.77957e-05
1.8013e-05
1.82158e-05
1.84032e-05
1.85741e-05
1.87275e-05
1.88623e-05
1.89775e-05
1.90722e-05
1.91453e-05
1.91958e-05
1.92207e-05
1.92241e-05
1.92026e-05
1.91552e-05
1.90813e-05
1.89805e-05
1.88523e-05
1.86967e-05
1.85133e-05
1.83024e-05
1.80642e-05
1.77989e-05
1.75072e-05
1.71898e-05
1.68476e-05
1.64818e-05
1.60934e-05
1.56841e-05
1.52553e-05
1.48088e-05
1.43465e-05
1.38703e-05
1.33824e-05
1.28847e-05
1.23795e-05
1.18691e-05
1.13554e-05
1.08409e-05
1.03274e-05
9.81715e-06
9.31199e-06
8.81375e-06
8.32412e-06
7.84464e-06
7.3767e-06
6.92151e-06
6.48012e-06
6.05341e-06
5.64207e-06
5.24664e-06
4.86749e-06
4.50485e-06
4.15877e-06
3.82919e-06
3.51594e-06
3.21871e-06
2.93712e-06
2.6707e-06
2.41891e-06
2.18116e-06
1.95685e-06
1.74532e-06
1.54596e-06
1.35814e-06
1.18129e-06
1.01491e-06
8.58588e-07
7.12041e-07
5.75173e-07
4.48128e-07
3.31394e-07
2.25968e-07
1.33681e-07
5.79735e-08
6.44613e-09
1.742e-08
1.56593e-07
3.60396e-07
6.07045e-07
8.85479e-07
1.18855e-06
1.51105e-06
1.84886e-06
2.19865e-06
2.55763e-06
2.92346e-06
3.29414e-06
3.668e-06
4.04366e-06
4.41999e-06
4.79608e-06
5.17125e-06
5.54503e-06
5.91712e-06
6.28737e-06
6.65581e-06
7.02255e-06
7.38783e-06
7.75194e-06
8.11525e-06
8.47814e-06
8.84103e-06
9.20429e-06
9.56831e-06
9.93341e-06
1.02999e-05
1.06679e-05
1.10377e-05
1.14093e-05
1.17828e-05
1.2158e-05
1.25348e-05
1.29131e-05
1.32925e-05
1.36727e-05
1.40532e-05
1.44338e-05
1.48137e-05
1.51925e-05
1.55697e-05
1.59445e-05
1.63162e-05
1.66843e-05
1.70479e-05
1.74064e-05
1.77588e-05
1.81044e-05
1.84423e-05
1.87717e-05
1.90917e-05
1.94013e-05
1.96995e-05
1.99854e-05
2.02579e-05
2.05161e-05
2.07588e-05
2.0985e-05
2.11935e-05
2.13832e-05
2.1553e-05
2.17017e-05
2.18282e-05
2.19315e-05
2.20103e-05
2.20631e-05
2.20872e-05
2.20876e-05
2.20594e-05
2.20018e-05
2.19142e-05
2.17961e-05
2.1647e-05
2.14667e-05
2.12551e-05
2.10121e-05
2.07381e-05
2.04334e-05
2.00985e-05
1.97344e-05
1.9342e-05
1.89225e-05
1.84774e-05
1.80082e-05
1.75167e-05
1.70048e-05
1.64747e-05
1.59286e-05
1.53688e-05
1.47978e-05
1.4218e-05
1.36319e-05
1.30421e-05
1.2451e-05
1.1861e-05
1.12746e-05
1.06939e-05
1.0121e-05
9.55803e-06
9.00663e-06
8.46846e-06
7.94495e-06
7.43731e-06
6.94659e-06
6.4736e-06
6.01896e-06
5.58313e-06
5.16634e-06
4.76869e-06
4.3901e-06
4.03036e-06
3.68912e-06
3.36591e-06
3.0602e-06
2.77136e-06
2.49869e-06
2.24148e-06
1.99899e-06
1.77047e-06
1.55521e-06
1.35256e-06
1.16191e-06
9.82814e-07
8.1494e-07
6.58179e-07
5.12701e-07
3.79067e-07
2.58419e-07
1.52847e-07
6.62739e-08
7.36828e-09
1.99878e-08
1.7969e-07
4.13616e-07
6.9682e-07
1.01664e-06
1.3649e-06
1.73561e-06
2.12406e-06
2.5264e-06
2.9394e-06
3.36034e-06
3.78691e-06
4.21715e-06
4.64943e-06
5.08242e-06
5.51508e-06
5.94658e-06
6.37636e-06
6.80408e-06
7.22955e-06
7.65279e-06
8.07394e-06
8.49325e-06
8.91107e-06
9.3278e-06
9.74388e-06
1.01598e-05
1.05759e-05
1.09926e-05
1.14104e-05
1.18294e-05
1.22499e-05
1.2672e-05
1.30958e-05
1.35213e-05
1.39483e-05
1.43766e-05
1.4806e-05
1.52362e-05
1.56666e-05
1.60968e-05
1.65263e-05
1.69545e-05
1.73808e-05
1.78044e-05
1.82247e-05
1.8641e-05
1.90524e-05
1.94582e-05
1.98575e-05
2.02495e-05
2.06333e-05
2.1008e-05
2.13727e-05
2.17263e-05
2.2068e-05
2.23966e-05
2.27111e-05
2.30105e-05
2.32935e-05
2.35591e-05
2.38061e-05
2.40333e-05
2.42395e-05
2.44234e-05
2.45838e-05
2.47195e-05
2.48293e-05
2.49119e-05
2.49649e-05
2.49871e-05
2.49827e-05
2.49464e-05
2.48773e-05
2.47749e-05
2.46386e-05
2.44679e-05
2.42624e-05
2.4022e-05
2.37468e-05
2.34369e-05
2.30928e-05
2.2715e-05
2.23045e-05
2.18623e-05
2.13898e-05
2.08883e-05
2.03598e-05
1.98062e-05
1.92295e-05
1.86322e-05
1.80166e-05
1.73854e-05
1.67412e-05
1.60869e-05
1.54252e-05
1.47591e-05
1.40911e-05
1.34242e-05
1.2761e-05
1.2104e-05
1.14557e-05
1.08183e-05
1.01939e-05
9.58429e-06
8.99117e-06
8.41596e-06
7.85986e-06
7.32384e-06
6.80862e-06
6.31474e-06
5.84249e-06
5.39199e-06
4.96317e-06
4.55578e-06
4.16943e-06
3.8036e-06
3.45765e-06
3.13088e-06
2.82249e-06
2.53165e-06
2.25751e-06
1.99922e-06
1.75597e-06
1.52699e-06
1.31162e-06
1.10931e-06
9.19715e-07
7.42698e-07
5.78453e-07
4.27615e-07
2.91469e-07
1.7237e-07
7.47298e-08
8.3078e-09
2.27044e-08
2.04125e-07
4.69916e-07
7.91789e-07
1.1554e-06
1.55148e-06
1.97323e-06
2.41531e-06
2.87331e-06
3.34354e-06
3.82289e-06
4.30866e-06
4.79861e-06
5.29084e-06
5.78379e-06
6.27622e-06
6.76719e-06
7.25603e-06
7.74231e-06
8.22583e-06
8.70658e-06
9.18472e-06
9.66054e-06
1.01344e-05
1.06068e-05
1.10782e-05
1.1549e-05
1.20198e-05
1.2491e-05
1.29629e-05
1.34358e-05
1.39099e-05
1.43854e-05
1.48622e-05
1.53403e-05
1.58195e-05
1.62996e-05
1.67801e-05
1.72606e-05
1.77407e-05
1.82198e-05
1.86973e-05
1.91725e-05
1.96446e-05
2.01131e-05
2.0577e-05
2.10356e-05
2.14881e-05
2.19336e-05
2.23712e-05
2.28e-05
2.32192e-05
2.36277e-05
2.40245e-05
2.44087e-05
2.47793e-05
2.5135e-05
2.5475e-05
2.57979e-05
2.61026e-05
2.6388e-05
2.66527e-05
2.68955e-05
2.71152e-05
2.73103e-05
2.74796e-05
2.76218e-05
2.77356e-05
2.78196e-05
2.78706e-05
2.78893e-05
2.78784e-05
2.78324e-05
2.77506e-05
2.76324e-05
2.74771e-05
2.72842e-05
2.70533e-05
2.67843e-05
2.64771e-05
2.61319e-05
2.57492e-05
2.53295e-05
2.48738e-05
2.43832e-05
2.38591e-05
2.33031e-05
2.27171e-05
2.21031e-05
2.14634e-05
2.08005e-05
2.01172e-05
1.94162e-05
1.87004e-05
1.79729e-05
1.72368e-05
1.64953e-05
1.57513e-05
1.5008e-05
1.42684e-05
1.35353e-05
1.28114e-05
1.20993e-05
1.14014e-05
1.07198e-05
1.00564e-05
9.41271e-06
8.79029e-06
8.19021e-06
7.61334e-06
7.06031e-06
6.5315e-06
6.02706e-06
5.54694e-06
5.09087e-06
4.65844e-06
4.24905e-06
3.86202e-06
3.49652e-06
3.15167e-06
2.82654e-06
2.52015e-06
2.23155e-06
1.95981e-06
1.70406e-06
1.46356e-06
1.23769e-06
1.02604e-06
8.28466e-07
6.4518e-07
4.76887e-07
3.25017e-07
1.92189e-07
8.33154e-08
9.26182e-09
2.55744e-08
2.29938e-07
5.29392e-07
8.92118e-07
1.302e-06
1.74862e-06
2.22433e-06
2.72311e-06
3.23999e-06
3.77078e-06
4.31191e-06
4.86031e-06
5.41338e-06
5.96893e-06
6.52515e-06
7.08058e-06
7.63414e-06
8.18501e-06
8.73271e-06
9.27698e-06
9.81781e-06
1.03553e-05
1.08899e-05
1.14219e-05
1.19519e-05
1.24803e-05
1.30077e-05
1.35346e-05
1.40614e-05
1.45885e-05
1.51161e-05
1.56445e-05
1.61738e-05
1.67038e-05
1.72345e-05
1.77655e-05
1.82967e-05
1.88274e-05
1.93573e-05
1.98857e-05
2.04121e-05
2.09356e-05
2.14556e-05
2.19714e-05
2.2482e-05
2.29867e-05
2.34847e-05
2.39751e-05
2.44569e-05
2.49293e-05
2.53914e-05
2.58421e-05
2.62806e-05
2.67058e-05
2.71166e-05
2.75121e-05
2.78911e-05
2.82525e-05
2.8595e-05
2.89175e-05
2.92188e-05
2.94975e-05
2.97523e-05
2.99818e-05
3.01848e-05
3.03598e-05
3.05054e-05
3.06202e-05
3.0703e-05
3.07492e-05
3.0763e-05
3.07435e-05
3.06862e-05
3.05905e-05
3.04557e-05
3.02809e-05
3.00657e-05
2.98097e-05
2.95125e-05
2.91743e-05
2.87951e-05
2.83754e-05
2.79158e-05
2.74171e-05
2.68805e-05
2.63075e-05
2.56997e-05
2.50591e-05
2.43877e-05
2.36881e-05
2.29628e-05
2.22146e-05
2.14466e-05
2.0662e-05
1.98639e-05
1.90557e-05
1.82408e-05
1.74227e-05
1.66046e-05
1.57898e-05
1.49816e-05
1.41829e-05
1.33966e-05
1.26255e-05
1.18718e-05
1.11377e-05
1.04252e-05
9.73591e-06
9.07107e-06
8.43174e-06
7.81868e-06
7.23237e-06
6.67303e-06
6.14064e-06
5.63495e-06
5.15551e-06
4.7017e-06
4.27275e-06
3.86777e-06
3.48577e-06
3.1257e-06
2.78649e-06
2.46705e-06
2.16636e-06
1.88344e-06
1.61744e-06
1.36768e-06
1.13369e-06
9.15306e-07
7.12744e-07
5.26781e-07
3.58993e-07
2.12265e-07
9.20131e-08
1.02284e-08
2.86026e-08
2.57174e-07
5.92146e-07
9.97979e-07
1.45669e-06
1.95665e-06
2.48935e-06
3.04802e-06
3.62711e-06
4.22187e-06
4.82827e-06
5.4428e-06
6.06247e-06
6.68477e-06
7.30758e-06
7.92924e-06
8.54844e-06
9.16427e-06
9.77612e-06
1.03837e-05
1.09869e-05
1.1586e-05
1.21813e-05
1.27733e-05
1.33624e-05
1.39492e-05
1.45343e-05
1.51182e-05
1.57014e-05
1.62841e-05
1.68668e-05
1.74495e-05
1.80322e-05
1.86149e-05
1.91973e-05
1.97792e-05
2.036e-05
2.09394e-05
2.15167e-05
2.20912e-05
2.26622e-05
2.32291e-05
2.3791e-05
2.4347e-05
2.48964e-05
2.54383e-05
2.59718e-05
2.6496e-05
2.701e-05
2.75129e-05
2.80037e-05
2.84816e-05
2.89454e-05
2.93943e-05
2.98272e-05
3.02429e-05
3.06404e-05
3.10186e-05
3.13762e-05
3.17119e-05
3.20246e-05
3.23129e-05
3.25755e-05
3.28109e-05
3.30178e-05
3.31947e-05
3.33403e-05
3.34531e-05
3.35314e-05
3.35705e-05
3.35775e-05
3.35474e-05
3.34775e-05
3.33668e-05
3.32146e-05
3.30202e-05
3.27831e-05
3.25026e-05
3.21787e-05
3.18111e-05
3.14e-05
3.09458e-05
3.0449e-05
2.99106e-05
2.93317e-05
2.87135e-05
2.80579e-05
2.73668e-05
2.66423e-05
2.5887e-05
2.51035e-05
2.42948e-05
2.34639e-05
2.26143e-05
2.17493e-05
2.08725e-05
1.99875e-05
1.9098e-05
1.82076e-05
1.73198e-05
1.64383e-05
1.55663e-05
1.4707e-05
1.38633e-05
1.30381e-05
1.22337e-05
1.14523e-05
1.06958e-05
9.96573e-06
9.26333e-06
8.58952e-06
7.94489e-06
7.32978e-06
6.74421e-06
6.18798e-06
5.66063e-06
5.16151e-06
4.68981e-06
4.24456e-06
3.82468e-06
3.42902e-06
3.05639e-06
2.7056e-06
2.37549e-06
2.06499e-06
1.77314e-06
1.49918e-06
1.24258e-06
1.00313e-06
7.81072e-07
5.77243e-07
3.93359e-07
2.32574e-07
1.00813e-07
1.12063e-08
3.17938e-08
2.85876e-07
6.58278e-07
1.10954e-06
1.61972e-06
2.17594e-06
2.76873e-06
3.3906e-06
4.03531e-06
4.69758e-06
5.37282e-06
6.05706e-06
6.74688e-06
7.43938e-06
8.13213e-06
8.82319e-06
9.51104e-06
1.01946e-05
1.08732e-05
1.15464e-05
1.22142e-05
1.28768e-05
1.35344e-05
1.41877e-05
1.48371e-05
1.54832e-05
1.61267e-05
1.67681e-05
1.74078e-05
1.80461e-05
1.86834e-05
1.93197e-05
1.9955e-05
2.0589e-05
2.12217e-05
2.18524e-05
2.24808e-05
2.31063e-05
2.37282e-05
2.43457e-05
2.49582e-05
2.55648e-05
2.61646e-05
2.67569e-05
2.73407e-05
2.79152e-05
2.84795e-05
2.90327e-05
2.95739e-05
3.01022e-05
3.06167e-05
3.11164e-05
3.16004e-05
3.20677e-05
3.25171e-05
3.29478e-05
3.33585e-05
3.37482e-05
3.41156e-05
3.44595e-05
3.47786e-05
3.50716e-05
3.53372e-05
3.55739e-05
3.57805e-05
3.59554e-05
3.60974e-05
3.62049e-05
3.62749e-05
3.6305e-05
3.63031e-05
3.62607e-05
3.61768e-05
3.60504e-05
3.58807e-05
3.56671e-05
3.54088e-05
3.51054e-05
3.47565e-05
3.4362e-05
3.3922e-05
3.34367e-05
3.29067e-05
3.23328e-05
3.1716e-05
3.10577e-05
3.03595e-05
2.96232e-05
2.8851e-05
2.80455e-05
2.72093e-05
2.63454e-05
2.5457e-05
2.45475e-05
2.36204e-05
2.26795e-05
2.17286e-05
2.07715e-05
1.98122e-05
1.88545e-05
1.79022e-05
1.6959e-05
1.60284e-05
1.51136e-05
1.42177e-05
1.33436e-05
1.24936e-05
1.167e-05
1.08744e-05
1.01085e-05
9.37332e-06
8.66963e-06
7.99789e-06
7.35824e-06
6.75052e-06
6.17431e-06
5.62896e-06
5.11361e-06
4.62723e-06
4.16869e-06
3.73672e-06
3.33002e-06
2.9473e-06
2.58727e-06
2.24875e-06
1.93067e-06
1.63218e-06
1.35268e-06
1.09192e-06
8.50155e-07
6.28264e-07
4.28109e-07
2.53111e-07
1.09713e-07
1.21955e-08
3.51528e-08
3.16087e-07
7.27887e-07
1.22698e-06
1.79135e-06
2.40681e-06
3.06292e-06
3.75136e-06
4.46525e-06
5.19864e-06
5.94639e-06
6.70399e-06
7.46754e-06
8.23371e-06
8.99971e-06
9.76329e-06
1.05227e-05
1.12766e-05
1.20243e-05
1.27653e-05
1.34995e-05
1.42271e-05
1.49484e-05
1.5664e-05
1.63744e-05
1.70803e-05
1.77823e-05
1.8481e-05
1.91768e-05
1.987e-05
2.05608e-05
2.12493e-05
2.19354e-05
2.26188e-05
2.32993e-05
2.39763e-05
2.46493e-05
2.53176e-05
2.59804e-05
2.66371e-05
2.72868e-05
2.79286e-05
2.85618e-05
2.91854e-05
2.97985e-05
3.04004e-05
3.09901e-05
3.15667e-05
3.21295e-05
3.26774e-05
3.32097e-05
3.37253e-05
3.42235e-05
3.47031e-05
3.51632e-05
3.56028e-05
3.60209e-05
3.64162e-05
3.67876e-05
3.7134e-05
3.74541e-05
3.77466e-05
3.80102e-05
3.82435e-05
3.84452e-05
3.8614e-05
3.87483e-05
3.8847e-05
3.89054e-05
3.8926e-05
3.89118e-05
3.88557e-05
3.87569e-05
3.86145e-05
3.84276e-05
3.81956e-05
3.79177e-05
3.75934e-05
3.72223e-05
3.68042e-05
3.63391e-05
3.58271e-05
3.52687e-05
3.46645e-05
3.40156e-05
3.3323e-05
3.25884e-05
3.18134e-05
3.10002e-05
3.01511e-05
2.92688e-05
2.83562e-05
2.74166e-05
2.64533e-05
2.547e-05
2.44705e-05
2.34588e-05
2.24389e-05
2.1415e-05
2.03911e-05
1.93714e-05
1.83598e-05
1.73601e-05
1.6376e-05
1.5411e-05
1.4468e-05
1.355e-05
1.26594e-05
1.17983e-05
1.09685e-05
1.01714e-05
9.40788e-06
8.67864e-06
7.98394e-06
7.32372e-06
6.69761e-06
6.10499e-06
5.54499e-06
5.01655e-06
4.51845e-06
4.04935e-06
3.60785e-06
3.19254e-06
2.80201e-06
2.43496e-06
2.09022e-06
1.76683e-06
1.4641e-06
1.18177e-06
9.20044e-07
6.79879e-07
4.63264e-07
2.7389e-07
1.18718e-07
1.31964e-08
3.86839e-08
3.47845e-07
8.01064e-07
1.35044e-06
1.97181e-06
2.64958e-06
3.3723e-06
4.13082e-06
4.9175e-06
5.72573e-06
6.54972e-06
7.38438e-06
8.22528e-06
9.06858e-06
9.91109e-06
1.07502e-05
1.15839e-05
1.24107e-05
1.32297e-05
1.40403e-05
1.48424e-05
1.56362e-05
1.6422e-05
1.72004e-05
1.79721e-05
1.87377e-05
1.94978e-05
2.0253e-05
2.10038e-05
2.17504e-05
2.2493e-05
2.32316e-05
2.39661e-05
2.46961e-05
2.54213e-05
2.61411e-05
2.68548e-05
2.75618e-05
2.82612e-05
2.89524e-05
2.96343e-05
3.03062e-05
3.09672e-05
3.16165e-05
3.22532e-05
3.28764e-05
3.34854e-05
3.40792e-05
3.46571e-05
3.52183e-05
3.57618e-05
3.62869e-05
3.67926e-05
3.72781e-05
3.77424e-05
3.81845e-05
3.86034e-05
3.89982e-05
3.93676e-05
3.97105e-05
4.00258e-05
4.03122e-05
4.05685e-05
4.07935e-05
4.09858e-05
4.11441e-05
4.12671e-05
4.13534e-05
4.13975e-05
4.14072e-05
4.13786e-05
4.13075e-05
4.11933e-05
4.10351e-05
4.08319e-05
4.05829e-05
4.02876e-05
3.99452e-05
3.95553e-05
3.91177e-05
3.86321e-05
3.80986e-05
3.75175e-05
3.68893e-05
3.62147e-05
3.54949e-05
3.4731e-05
3.39247e-05
3.3078e-05
3.2193e-05
3.12722e-05
3.03186e-05
2.93351e-05
2.83252e-05
2.72925e-05
2.62409e-05
2.51744e-05
2.40972e-05
2.30137e-05
2.19282e-05
2.08449e-05
1.97683e-05
1.87024e-05
1.76513e-05
1.66188e-05
1.56083e-05
1.4623e-05
1.36658e-05
1.27393e-05
1.18453e-05
1.09857e-05
1.01616e-05
9.37393e-06
8.62313e-06
7.90928e-06
7.23211e-06
6.59105e-06
5.98526e-06
5.41364e-06
4.87495e-06
4.36776e-06
3.89059e-06
3.44191e-06
3.0202e-06
2.62402e-06
2.2521e-06
1.90336e-06
1.57705e-06
1.2728e-06
9.90846e-07
7.32162e-07
4.98875e-07
2.94939e-07
1.27842e-07
1.42105e-08
4.2391e-08
3.81186e-07
8.77888e-07
1.48006e-06
2.16128e-06
2.90452e-06
3.69724e-06
4.52941e-06
5.39259e-06
6.27943e-06
7.18346e-06
8.09892e-06
9.02076e-06
9.94461e-06
1.08668e-05
1.17844e-05
1.2695e-05
1.35969e-05
1.4489e-05
1.53708e-05
1.62419e-05
1.71027e-05
1.79534e-05
1.87948e-05
1.96274e-05
2.0452e-05
2.12692e-05
2.20796e-05
2.28836e-05
2.36815e-05
2.44734e-05
2.52593e-05
2.60389e-05
2.6812e-05
2.75779e-05
2.83362e-05