/*--------------------------------*- C++ -*----------------------------------*\
  =========                 |
  \\      /  F ield         | OpenFOAM: The Open Source CFD Toolbox
   \\    /   O peration     | Website:  https://openfoam.org
    \\  /    A nd           | Version:  12
     \\/     M anipulation  |
\*---------------------------------------------------------------------------*/
FoamFile
{
    format      ascii;
    class       volScalarField;
    location    "3.5";
    object      p;
}
// * * * * * * * * * * * * * * * * * * * * * * * * * * * * * * * * * * * * * //

dimensions      [0 2 -2 0 0 0 0];

internalField   nonuniform List<scalar> 
18225
(
7.46565e-08
8.01815e-06
1.20976e-05
6.5748e-06
-9.89418e-06
-3.71286e-05
-7.44504e-05
-0.000120918
-0.000175501
-0.000237183
-0.000305025
-0.000378187
-0.000455936
-0.000537649
-0.000622803
-0.000710966
-0.000801786
-0.000894979
-0.000990315
-0.00108761
-0.0011867
-0.00128745
-0.00138974
-0.00149344
-0.00159842
-0.00170453
-0.00181163
-0.00191952
-0.00202801
-0.00213685
-0.0022458
-0.00235456
-0.00246282
-0.00257023
-0.00267641
-0.00278096
-0.00288345
-0.00298342
-0.00308039
-0.00317387
-0.00326334
-0.00334825
-0.00342806
-0.00350222
-0.00357016
-0.00363133
-0.00368516
-0.00373112
-0.00376868
-0.00379733
-0.0038166
-0.00382605
-0.00382529
-0.00381397
-0.0037918
-0.00375855
-0.00371409
-0.00365832
-0.00359125
-0.00351299
-0.00342371
-0.00332372
-0.00321341
-0.00309327
-0.0029639
-0.00282603
-0.00268051
-0.00252823
-0.00237014
-0.00220747
-0.0020414
-0.00187322
-0.00170429
-0.00153603
-0.00136992
-0.00120745
-0.00105016
-0.000899565
-0.000757185
-0.000624501
-0.000502949
-0.000393898
-0.000298634
-0.000218346
-0.000154103
-0.000106848
-7.73783e-05
-6.6336e-05
-7.41986e-05
-0.000101271
-0.00014768
-0.000213371
-0.000298109
-0.000401481
-0.000522899
-0.000661608
-0.000816696
-0.000987108
-0.00117165
-0.00136903
-0.00157784
-0.00179658
-0.00202372
-0.00225766
-0.00249678
-0.00273946
-0.00298408
-0.00322904
-0.00347281
-0.00371387
-0.0039508
-0.00418223
-0.00440689
-0.00462358
-0.00483119
-0.00502869
-0.00521516
-0.00538974
-0.00555166
-0.00570021
-0.00583478
-0.00595479
-0.00605978
-0.00614932
-0.00622311
-0.00628093
-0.00632276
-0.0063488
-0.00635956
-0.0063561
-0.00634017
-0.00631464
-0.00628401
-0.00625511
-0.00623684
-6.61377e-06
1.22978e-06
4.20882e-06
-2.25127e-06
-1.86232e-05
-4.46759e-05
-7.99053e-05
-0.000123582
-0.000174871
-0.000232924
-0.000296932
-0.000366156
-0.00043994
-0.000517712
-0.000598985
-0.000683349
-0.000770461
-0.000860039
-0.000951849
-0.0010457
-0.00114143
-0.00123889
-0.00133794
-0.00143846
-0.00154029
-0.00164331
-0.00174734
-0.0018522
-0.00195769
-0.00206358
-0.00216962
-0.00227554
-0.00238102
-0.00248573
-0.00258931
-0.00269138
-0.00279152
-0.00288929
-0.00298424
-0.0030759
-0.00316375
-0.00324729
-0.003326
-0.00339934
-0.00346678
-0.00352778
-0.0035818
-0.00362832
-0.00366684
-0.00369686
-0.00371794
-0.00372965
-0.0037316
-0.00372347
-0.00370497
-0.00367588
-0.00363604
-0.00358539
-0.00352392
-0.00345172
-0.00336897
-0.00327594
-0.003173
-0.00306063
-0.0029394
-0.00281
-0.00267324
-0.00252994
-0.00238109
-0.00222781
-0.00207124
-0.00191261
-0.00175323
-0.00159446
-0.00143773
-0.00128446
-0.00113613
-0.000994205
-0.000860128
-0.000735329
-0.000621183
-0.000519007
-0.000430033
-0.000355401
-0.000296138
-0.000253145
-0.000227186
-0.000218875
-0.000228666
-0.00025685
-0.000303542
-0.000368688
-0.000452057
-0.000553248
-0.000671692
-0.000806661
-0.000957275
-0.00112252
-0.00130124
-0.0014922
-0.00169404
-0.00190533
-0.0021246
-0.0023503
-0.0025809
-0.00281482
-0.00305052
-0.00328648
-0.00352122
-0.00375329
-0.00398134
-0.00420405
-0.00442021
-0.00462869
-0.00482842
-0.00501843
-0.00519783
-0.00536584
-0.00552173
-0.00566484
-0.00579462
-0.00591057
-0.00601227
-0.00609939
-0.00617171
-0.00622912
-0.00627168
-0.00629969
-0.00631374
-0.00631487
-0.00630472
-0.00628579
-0.00626156
-0.00623685
-0.00621856
-9.06111e-06
-5.60724e-07
2.12309e-06
-4.89341e-06
-2.11452e-05
-4.61791e-05
-7.95624e-05
-0.000120708
-0.000168931
-0.000223528
-0.000283812
-0.000349147
-0.000418952
-0.000492714
-0.000569985
-0.000650387
-0.000733596
-0.000819342
-0.000907396
-0.000997563
-0.00108968
-0.00118359
-0.00127916
-0.00137624
-0.00147471
-0.00157441
-0.00167517
-0.00177683
-0.00187917
-0.00198198
-0.00208502
-0.00218801
-0.00229067
-0.00239267
-0.00249367
-0.00259331
-0.00269118
-0.00278688
-0.00287997
-0.00296998
-0.00305646
-0.0031389
-0.00321681
-0.00328968
-0.00335699
-0.00341823
-0.00347288
-0.00352044
-0.00356042
-0.00359235
-0.00361578
-0.00363032
-0.00363557
-0.00363122
-0.00361699
-0.00359265
-0.00355806
-0.00351312
-0.00345783
-0.00339226
-0.00331657
-0.00323102
-0.00313595
-0.00303181
-0.00291914
-0.00279859
-0.00267091
-0.0025369
-0.00239753
-0.00225384
-0.00210691
-0.00195794
-0.00180818
-0.00165894
-0.00151157
-0.00136747
-0.00122802
-0.00109466
-0.000968764
-0.000851715
-0.000744835
-0.000649389
-0.000566564
-0.000497457
-0.000443056
-0.000404227
-0.000381704
-0.000376075
-0.000387778
-0.000417086
-0.000464109
-0.000528789
-0.000610901
-0.000710054
-0.000825694
-0.000957117
-0.00110347
-0.00126378
-0.00143692
-0.0016217
-0.00181682
-0.0020209
-0.0022325
-0.00245017
-0.00267241
-0.00289773
-0.00312463
-0.00335167
-0.00357742
-0.00380051
-0.00401964
-0.00423357
-0.00444114
-0.00464126
-0.00483295
-0.00501529
-0.00518746
-0.0053487
-0.00549836
-0.00563586
-0.00576068
-0.0058724
-0.00597068
-0.00605526
-0.00612599
-0.00618284
-0.00622593
-0.0062556
-0.00627243
-0.00627734
-0.00627174
-0.00625751
-0.00623688
-0.00621215
-0.00618965
-1.97608e-06
7.01509e-06
9.68232e-06
2.33616e-06
-1.3935e-05
-3.8428e-05
-7.06739e-05
-0.000110131
-0.000156192
-0.000208241
-0.00026568
-0.000327947
-0.000394531
-0.000464972
-0.000538868
-0.000615871
-0.000695683
-0.000778052
-0.000862763
-0.000949632
-0.0010385
-0.00112921
-0.00122164
-0.00131565
-0.0014111
-0.00150784
-0.00160572
-0.00170457
-0.00180419
-0.00190436
-0.00200486
-0.00210543
-0.00220579
-0.00230563
-0.00240462
-0.00250242
-0.00259864
-0.00269289
-0.00278475
-0.00287379
-0.00295954
-0.00304154
-0.00311931
-0.00319234
-0.00326015
-0.00332223
-0.00337808
-0.00342721
-0.00346915
-0.00350343
-0.00352961
-0.00354729
-0.00355609
-0.00355569
-0.00354581
-0.00352621
-0.00349673
-0.00345728
-0.00340784
-0.00334845
-0.00327925
-0.00320049
-0.00311247
-0.00301561
-0.00291044
-0.00279755
-0.00267766
-0.00255156
-0.00242016
-0.00228446
-0.0021455
-0.00200445
-0.00186251
-0.00172094
-0.00158107
-0.00144424
-0.00131181
-0.00118516
-0.00106566
-0.000954619
-0.000853349
-0.000763077
-0.000684963
-0.000620077
-0.000569382
-0.000533724
-0.00051382
-0.000510244
-0.000523419
-0.000553612
-0.00060093
-0.000665312
-0.000746537
-0.000844218
-0.000957814
-0.00108663
-0.00122984
-0.00138647
-0.00155545
-0.0017356
-0.00192563
-0.00212423
-0.00232998
-0.00254147
-0.00275724
-0.00297585
-0.00319584
-0.00341583
-0.00363442
-0.00385031
-0.00406224
-0.00426902
-0.00446955
-0.00466279
-0.00484781
-0.00502375
-0.00518983
-0.00534537
-0.00548976
-0.00562247
-0.00574306
-0.00585115
-0.00594646
-0.00602878
-0.00609801
-0.00615415
-0.00619734
-0.00622786
-0.00624621
-0.00625311
-0.00624959
-0.00623698
-0.00621633
-0.00618795
-0.006159
1.60623e-05
2.45563e-05
2.65111e-05
1.84585e-05
1.77995e-06
-2.26634e-05
-5.4351e-05
-9.27515e-05
-0.000137303
-0.000187452
-0.000242665
-0.000302445
-0.00036634
-0.000433942
-0.000504893
-0.000578883
-0.000655644
-0.000734948
-0.0008166
-0.000900432
-0.000986295
-0.00107405
-0.00116358
-0.00125475
-0.00134743
-0.00144149
-0.00153676
-0.0016331
-0.00173031
-0.0018282
-0.00192654
-0.00202508
-0.00212356
-0.00222169
-0.00231915
-0.0024156
-0.0025107
-0.00260405
-0.00269525
-0.00278388
-0.00286951
-0.00295167
-0.0030299
-0.00310371
-0.00317263
-0.00323615
-0.00329379
-0.00334506
-0.00338949
-0.00342663
-0.00345602
-0.00347726
-0.00348998
-0.00349384
-0.00348855
-0.00347387
-0.00344961
-0.00341566
-0.00337199
-0.00331862
-0.00325566
-0.00318333
-0.00310191
-0.0030118
-0.00291346
-0.0028075
-0.00269457
-0.00257546
-0.00245102
-0.00232222
-0.00219008
-0.00205572
-0.00192033
-0.00178513
-0.00165142
-0.00152051
-0.00139374
-0.00127247
-0.00115802
-0.00105171
-0.000954816
-0.000868551
-0.000794058
-0.000732394
-0.000684511
-0.000651244
-0.000633301
-0.000631249
-0.000645509
-0.000676343
-0.000723856
-0.000787989
-0.000868521
-0.000965071
-0.0010771
-0.00120393
-0.00134473
-0.00149855
-0.00166432
-0.00184089
-0.00202699
-0.0022213
-0.00242247
-0.00262907
-0.0028397
-0.00305293
-0.00326736
-0.0034816
-0.00369433
-0.00390427
-0.0041102
-0.00431099
-0.00450557
-0.00469295
-0.00487225
-0.00504267
-0.00520347
-0.00535403
-0.00549379
-0.00562228
-0.0057391
-0.00584393
-0.00593654
-0.00601675
-0.00608449
-0.00613976
-0.00618268
-0.00621346
-0.00623247
-0.00624019
-0.00623731
-0.00622463
-0.00620228
-0.00616913
-0.00613351
4.53155e-05
5.20994e-05
5.23185e-05
4.28993e-05
2.52724e-05
3.51417e-07
-3.1312e-05
-6.9195e-05
-0.000112772
-0.000161538
-0.000215018
-0.000272774
-0.000334406
-0.000399557
-0.000467916
-0.000539211
-0.000613209
-0.000689712
-0.000768549
-0.000849573
-0.000932655
-0.00101767
-0.00110452
-0.00119307
-0.00128322
-0.00137483
-0.00146777
-0.00156189
-0.001657
-0.00175293
-0.00184946
-0.00194636
-0.00204338
-0.00214024
-0.00223663
-0.00233225
-0.00242673
-0.00251972
-0.00261083
-0.00269965
-0.00278575
-0.00286869
-0.002948
-0.00302322
-0.00309387
-0.00315946
-0.0032195
-0.00327352
-0.00332103
-0.00336157
-0.00339469
-0.00341999
-0.00343707
-0.00344558
-0.00344521
-0.00343571
-0.00341688
-0.00338857
-0.00335073
-0.00330335
-0.00324653
-0.00318044
-0.00310535
-0.00302161
-0.00292968
-0.0028301
-0.00272353
-0.0026107
-0.00249245
-0.0023697
-0.00224348
-0.00211486
-0.001985
-0.00185512
-0.00172648
-0.00160039
-0.00147817
-0.00136115
-0.00125066
-0.001148
-0.00105443
-0.000971175
-0.000899361
-0.000840043
-0.00079417
-0.000762579
-0.000745977
-0.00074493
-0.000759861
-0.000791034
-0.000838555
-0.000902368
-0.000982254
-0.00107784
-0.00118858
-0.0013138
-0.00145268
-0.00160428
-0.00176753
-0.00194127
-0.00212427
-0.0023152
-0.00251272
-0.00271542
-0.00292192
-0.0031308
-0.00334068
-0.00355022
-0.00375809
-0.00396306
-0.00416395
-0.00435965
-0.00454915
-0.00473149
-0.00490584
-0.00507143
-0.00522759
-0.00537376
-0.0055094
-0.0056341
-0.00574751
-0.00584938
-0.00593948
-0.00601769
-0.00608393
-0.00613821
-0.0061806
-0.00621124
-0.00623034
-0.00623818
-0.00623515
-0.00622164
-0.00619706
-0.00615927
-0.00611776
8.54351e-05
8.93749e-05
8.68248e-05
7.53013e-05
5.61203e-05
3.01684e-05
-1.99964e-06
-3.98771e-05
-8.29752e-05
-0.000130836
-0.000183037
-0.000239194
-0.000298961
-0.000362032
-0.00042814
-0.000497057
-0.000568587
-0.000642564
-0.000718849
-0.000797319
-0.000877868
-0.000960398
-0.00104481
-0.00113101
-0.0012189
-0.00130836
-0.00139928
-0.0014915
-0.00158487
-0.00167923
-0.00177436
-0.00187005
-0.00196607
-0.00206214
-0.00215799
-0.00225331
-0.00234776
-0.00244099
-0.00253262
-0.00262225
-0.00270948
-0.00279386
-0.00287493
-0.00295224
-0.00302531
-0.00309364
-0.00315675
-0.00321416
-0.00326537
-0.00330992
-0.00334735
-0.00337723
-0.00339916
-0.00341275
-0.00341769
-0.00341369
-0.00340054
-0.00337805
-0.00334614
-0.00330479
-0.00325406
-0.00319408
-0.0031251
-0.00304743
-0.00296151
-0.00286786
-0.00276708
-0.00265991
-0.00254714
-0.0024297
-0.00230855
-0.00218478
-0.00205952
-0.00193397
-0.0018094
-0.00168709
-0.00156836
-0.00145454
-0.00134695
-0.0012469
-0.00115565
-0.00107442
-0.00100435
-0.000946494
-0.000901814
-0.000871149
-0.000855216
-0.00085459
-0.000869699
-0.000900814
-0.000948047
-0.00101135
-0.0010905
-0.00118513
-0.0012947
-0.00141854
-0.00155583
-0.00170562
-0.00186684
-0.00203835
-0.00221889
-0.00240715
-0.00260179
-0.00280142
-0.00300464
-0.00321005
-0.00341628
-0.003622
-0.00382591
-0.0040268
-0.00422351
-0.00441496
-0.00460017
-0.00477823
-0.00494833
-0.00510976
-0.0052619
-0.0054042
-0.00553623
-0.00565757
-0.00576795
-0.00586712
-0.00595493
-0.00603125
-0.00609603
-0.00614926
-0.00619095
-0.00622118
-0.00624004
-0.00624761
-0.00624405
-0.00622942
-0.00620266
-0.00616091
-0.00611468
0.000135716
0.000135819
0.000129545
0.000115186
9.38402e-05
6.63074e-05
3.31233e-05
-5.23285e-06
-4.83134e-05
-9.5709e-05
-0.00014705
-0.000202005
-0.000260282
-0.000321626
-0.000385817
-0.000452672
-0.000522035
-0.000593778
-0.000667793
-0.000743989
-0.000822286
-0.00090261
-0.000984887
-0.00106904
-0.00115499
-0.00124264
-0.00133188
-0.00142259
-0.00151463
-0.00160784
-0.00170203
-0.00179701
-0.00189254
-0.00198839
-0.00208427
-0.00217989
-0.00227493
-0.00236906
-0.00246189
-0.00255304
-0.00264211
-0.00272866
-0.00281223
-0.00289237
-0.00296859
-0.0030404
-0.00310731
-0.00316882
-0.00322443
-0.00327365
-0.00331601
-0.00335106
-0.00337836
-0.00339754
-0.00340822
-0.0034101
-0.00340292
-0.00338649
-0.00336069
-0.00332545
-0.0032808
-0.00322686
-0.00316383
-0.00309201
-0.00301178
-0.00292364
-0.00282819
-0.00272612
-0.00261821
-0.00250536
-0.00238853
-0.00226879
-0.00214726
-0.00202514
-0.00190368
-0.00178417
-0.00166793
-0.00155629
-0.00145059
-0.00135213
-0.0012622
-0.00118201
-0.00111273
-0.00105543
-0.00101108
-0.00098054
-0.000964537
-0.000963663
-0.000978358
-0.00100891
-0.00105543
-0.00111789
-0.00119607
-0.0012896
-0.00139796
-0.00152047
-0.0016563
-0.0018045
-0.00196402
-0.00213368
-0.00231224
-0.00249838
-0.00269074
-0.00288793
-0.00308856
-0.00329122
-0.00349456
-0.00369723
-0.00389797
-0.00409555
-0.00428885
-0.0044768
-0.00465845
-0.00483293
-0.00499946
-0.00515736
-0.00530604
-0.00544502
-0.0055739
-0.00569231
-0.00580001
-0.00589679
-0.00598253
-0.00605713
-0.00612053
-0.0061727
-0.00621365
-0.00624335
-0.0062618
-0.00626895
-0.00626476
-0.00624908
-0.0062205
-0.00617576
-0.00612608
0.000195255
0.00019067
0.000179822
0.000161944
0.000137851
0.000108214
7.35334e-05
3.42505e-05
-9.23537e-06
-5.6568e-05
-0.000107432
-0.000161552
-0.000218689
-0.000278641
-0.000341239
-0.000406346
-0.000473849
-0.00054366
-0.000615708
-0.000689933
-0.000766288
-0.000844724
-0.000925195
-0.00100765
-0.00109202
-0.00117824
-0.00126622
-0.00135585
-0.00144702
-0.00153957
-0.00163335
-0.00172815
-0.00182379
-0.00192001
-0.00201656
-0.00211316
-0.0022095
-0.00230523
-0.00240001
-0.00249345
-0.00258514
-0.00267466
-0.00276153
-0.00284531
-0.0029255
-0.00300159
-0.00307309
-0.00313947
-0.00320022
-0.00325484
-0.00330282
-0.00334369
-0.00337699
-0.00340229
-0.00341921
-0.00342741
-0.00342659
-0.00341652
-0.00339705
-0.00336808
-0.0033296
-0.0032817
-0.00322454
-0.00315839
-0.00308361
-0.00300067
-0.00291014
-0.00281269
-0.0027091
-0.00260023
-0.00248704
-0.00237059
-0.00225199
-0.00213245
-0.00201321
-0.00189557
-0.00178086
-0.00167043
-0.00156561
-0.00146775
-0.00137813
-0.001298
-0.00122854
-0.00117085
-0.00112592
-0.00109463
-0.00107774
-0.00107585
-0.00108943
-0.00111877
-0.00116402
-0.00122515
-0.00130196
-0.00139409
-0.001501
-0.00162203
-0.00175635
-0.00190301
-0.00206093
-0.00222894
-0.00240578
-0.00259014
-0.00278063
-0.00297586
-0.00317442
-0.00337491
-0.00357595
-0.0037762
-0.00397441
-0.00416935
-0.0043599
-0.00454502
-0.00472377
-0.0048953
-0.00505887
-0.00521383
-0.00535963
-0.00549578
-0.00562193
-0.00573783
-0.00584322
-0.00593793
-0.00602186
-0.00609492
-0.00615708
-0.00620829
-0.00624851
-0.0062777
-0.00629575
-0.00630251
-0.00629781
-0.00628135
-0.00625154
-0.00620484
-0.00615299
0.00026305
0.000253048
0.000236882
0.000214868
0.000187493
0.00015527
0.000118653
7.80349e-05
3.37594e-05
-1.38755e-05
-6.46128e-05
-0.000118235
-0.000174561
-0.000233443
-0.000294764
-0.000358436
-0.000424393
-0.000492587
-0.000562988
-0.000635573
-0.000710325
-0.000787229
-0.000866264
-0.000947405
-0.00103061
-0.00111584
-0.00120302
-0.00129207
-0.00138288
-0.00147533
-0.00156926
-0.00166452
-0.0017609
-0.00185818
-0.00195611
-0.00205443
-0.00215282
-0.00225097
-0.00234852
-0.00244508
-0.00254025
-0.0026336
-0.00272466
-0.00281296
-0.00289799
-0.00297925
-0.0030562
-0.0031283
-0.00319503
-0.00325584
-0.0033102
-0.00335762
-0.00339758
-0.00342964
-0.00345338
-0.0034684
-0.00347438
-0.00347105
-0.00345822
-0.00343575
-0.0034036
-0.00336181
-0.00331052
-0.00324996
-0.00318047
-0.0031025
-0.00301657
-0.00292336
-0.00282361
-0.00271818
-0.00260802
-0.00249418
-0.00237779
-0.00226003
-0.00214218
-0.00202553
-0.00191143
-0.00180125
-0.00169634
-0.00159807
-0.00150775
-0.00142666
-0.00135601
-0.00129693
-0.00125043
-0.00121744
-0.00119873
-0.00119494
-0.00120657
-0.00123394
-0.0012772
-0.00133635
-0.00141121
-0.00150143
-0.00160647
-0.00172568
-0.00185823
-0.00200317
-0.0021594
-0.00232576
-0.00250096
-0.00268368
-0.00287252
-0.00306608
-0.00326291
-0.00346162
-0.00366081
-0.00385914
-0.00405533
-0.00424817
-0.00443654
-0.0046194
-0.00479582
-0.00496498
-0.00512614
-0.00527869
-0.0054221
-0.00555594
-0.00567987
-0.00579366
-0.0058971
-0.00599006
-0.00607245
-0.00614422
-0.00620532
-0.00625572
-0.00629535
-0.00632414
-0.00634192
-0.00634846
-0.00634353
-0.00632671
-0.00629632
-0.00624872
-0.00619588
0.000338039
0.000321999
0.000299869
0.000273174
0.000242036
0.000206795
0.000167846
0.000125526
8.01154e-05
3.18479e-05
-1.90827e-05
-7.25205e-05
-0.000128345
-0.000186465
-0.00024682
-0.000309373
-0.000374105
-0.000441015
-0.000510113
-0.000581414
-0.000654938
-0.000730701
-0.000808715
-0.000888982
-0.000971491
-0.00105622
-0.00114312
-0.00123213
-0.00132317
-0.00141613
-0.00151088
-0.00160727
-0.00170511
-0.0018042
-0.0019043
-0.00200515
-0.00210646
-0.00220789
-0.0023091
-0.00240971
-0.0025093
-0.00260743
-0.00270364
-0.00279742
-0.00288826
-0.00297563
-0.00305898
-0.00313774
-0.00321134
-0.00327922
-0.00334081
-0.00339556
-0.00344295
-0.00348248
-0.00351367
-0.00353611
-0.00354942
-0.00355329
-0.00354749
-0.00353184
-0.00350625
-0.00347074
-0.00342541
-0.00337045
-0.00330618
-0.003233
-0.00315145
-0.00306216
-0.00296586
-0.00286341
-0.00275574
-0.00264392
-0.00252905
-0.00241235
-0.00229508
-0.00217857
-0.00206419
-0.00195331
-0.00184733
-0.00174764
-0.00165558
-0.00157247
-0.00149956
-0.001438
-0.00138887
-0.00135311
-0.00133155
-0.00132485
-0.00133355
-0.001358
-0.00139839
-0.00145473
-0.00152687
-0.00161447
-0.00171702
-0.00183387
-0.00196418
-0.002107
-0.00226125
-0.00242573
-0.00259917
-0.00278019
-0.00296741
-0.00315938
-0.00335467
-0.00355183
-0.00374946
-0.00394621
-0.00414078
-0.00433195
-0.00451859
-0.00469968
-0.00487427
-0.00504155
-0.00520081
-0.00535145
-0.00549296
-0.00562495
-0.00574711
-0.00585921
-0.00596109
-0.00605265
-0.00613383
-0.00620458
-0.00626488
-0.00631469
-0.00635394
-0.00638253
-0.00640026
-0.00640687
-0.00640206
-0.00638538
-0.0063551
-0.0063076
-0.00625486
0.000419123
0.00039651
0.00036786
0.000336007
0.000300686
0.000262045
0.000220415
0.000176069
0.000129215
8.00174e-05
2.86018e-05
-2.49425e-05
-8.05584e-05
-0.000138217
-0.000197914
-0.000259667
-0.000323508
-0.000389482
-0.000457643
-0.000528048
-0.000600753
-0.000675809
-0.000753261
-0.000833141
-0.000915467
-0.00100024
-0.00108744
-0.00117703
-0.00126895
-0.00136311
-0.0014594
-0.00155768
-0.00165778
-0.00175952
-0.00186265
-0.00196694
-0.00207208
-0.00217776
-0.00228362
-0.00238927
-0.0024943
-0.00259826
-0.00270065
-0.00280097
-0.00289867
-0.0029932
-0.00308397
-0.00317039
-0.00325186
-0.00332777
-0.00339751
-0.00346049
-0.00351615
-0.00356392
-0.00360331
-0.00363385
-0.0036551
-0.00366672
-0.00366843
-0.00366
-0.00364131
-0.00361233
-0.00357313
-0.00352387
-0.00346483
-0.00339639
-0.00331907
-0.00323347
-0.00314031
-0.00304045
-0.00293482
-0.00282445
-0.0027105
-0.00259416
-0.00247672
-0.00235953
-0.00224397
-0.00213145
-0.0020234
-0.00192124
-0.00182637
-0.00174012
-0.0016638
-0.00159861
-0.00154567
-0.00150596
-0.00148037
-0.0014696
-0.00147422
-0.00149465
-0.00153109
-0.0015836
-0.00165205
-0.00173613
-0.00183535
-0.00194906
-0.00207645
-0.00221656
-0.0023683
-0.00253047
-0.00270178
-0.00288086
-0.00306627
-0.00325658
-0.0034503
-0.00364598
-0.0038422
-0.00403757
-0.00423077
-0.00442058
-0.00460586
-0.00478555
-0.00495873
-0.00512458
-0.0052824
-0.00543159
-0.00557167
-0.00570226
-0.00582308
-0.00593392
-0.00603464
-0.00612518
-0.00620549
-0.00627554
-0.00633534
-0.00638484
-0.00642398
-0.00645265
-0.00647064
-0.00647767
-0.0064734
-0.00645739
-0.0064279
-0.00638141
-0.00632972
0.000505174
0.000475526
0.000439874
0.00040245
0.000362582
0.000320212
0.000275598
0.000228941
0.000180373
0.000129979
7.78126e-05
2.38907e-05
-3.17971e-05
-8.92862e-05
-0.000148633
-0.000209911
-0.000273207
-0.000338614
-0.000406231
-0.000476157
-0.000548489
-0.000623314
-0.000700711
-0.000780744
-0.00086346
-0.000948888
-0.00103704
-0.00112789
-0.00122141
-0.00131753
-0.00141616
-0.00151717
-0.00162041
-0.0017257
-0.00183282
-0.00194152
-0.00205151
-0.00216248
-0.00227406
-0.00238586
-0.00249744
-0.00260834
-0.00271806
-0.00282605
-0.00293175
-0.00303457
-0.00313389
-0.00322908
-0.00331949
-0.00340447
-0.00348338
-0.00355557
-0.00362042
-0.00367734
-0.00372576
-0.00376515
-0.00379506
-0.00381508
-0.00382487
-0.00382417
-0.00381281
-0.00379072
-0.00375793
-0.00371456
-0.00366086
-0.00359719
-0.00352404
-0.00344199
-0.00335176
-0.00325417
-0.00315017
-0.00304079
-0.00292717
-0.00281055
-0.00269221
-0.00257353
-0.00245591
-0.00234081
-0.00222967
-0.00212397
-0.00202514
-0.00193457
-0.00185361
-0.00178353
-0.00172548
-0.00168052
-0.00164957
-0.0016334
-0.00163264
-0.00164774
-0.00167897
-0.00172642
-0.00179
-0.00186943
-0.00196425
-0.00207383
-0.00219737
-0.00233392
-0.0024824
-0.00264161
-0.00281023
-0.00298688
-0.00317012
-0.00335847
-0.00355044
-0.00374453
-0.0039393
-0.00413334
-0.00432532
-0.00451396
-0.00469811
-0.00487671
-0.00504883
-0.00521362
-0.0053704
-0.00551856
-0.00565764
-0.00578727
-0.00590718
-0.00601718
-0.00611717
-0.00620708
-0.0062869
-0.00635663
-0.00641626
-0.00646579
-0.00650516
-0.00653424
-0.00655285
-0.00656068
-0.00655741
-0.00654259
-0.00651455
-0.0064699
-0.00642009
0.000595034
0.000557947
0.000514876
0.00047153
0.000426805
0.000380423
0.000332566
0.000283354
0.000232834
0.000181007
0.000127846
7.32928e-05
1.7264e-05
-4.03438e-05
-9.96505e-05
-0.000160789
-0.000223899
-0.000289128
-0.000356621
-0.00042652
-0.000498964
-0.000574077
-0.000651974
-0.000732751
-0.000816488
-0.000903242
-0.000993048
-0.00108592
-0.00118183
-0.00128074
-0.00138258
-0.00148724
-0.00159458
-0.00170443
-0.00181657
-0.00193076
-0.00204671
-0.0021641
-0.00228257
-0.00240169
-0.00252104
-0.0026401
-0.00275837
-0.00287527
-0.0029902
-0.00310254
-0.00321162
-0.00331677
-0.0034173
-0.00351251
-0.0036017
-0.00368417
-0.00375925
-0.00382629
-0.00388467
-0.00393381
-0.00397319
-0.00400235
-0.00402091
-0.00402855
-0.00402506
-0.00401033
-0.00398432
-0.00394714
-0.00389901
-0.00384024
-0.0037713
-0.00369275
-0.0036053
-0.00350976
-0.00340706
-0.00329824
-0.00318446
-0.00306694
-0.00294701
-0.00282604
-0.00270549
-0.00258683
-0.00247157
-0.00236119
-0.00225721
-0.00216106
-0.00207414
-0.00199778
-0.00193321
-0.00188153
-0.00184375
-0.0018207
-0.00181305
-0.00182134
-0.00184587
-0.00188681
-0.0019441
-0.00201751
-0.00210663
-0.00221083
-0.00232937
-0.00246129
-0.00260552
-0.00276086
-0.002926
-0.00309954
-0.00328001
-0.00346592
-0.00365574
-0.00384796
-0.0040411
-0.00423372
-0.00442444
-0.00461198
-0.00479514
-0.00497286
-0.00514416
-0.00530821
-0.00546429
-0.00561181
-0.00575029
-0.00587938
-0.00599881
-0.00610841
-0.00620808
-0.00629779
-0.00637753
-0.00644733
-0.00650719
-0.00655713
-0.00659709
-0.00662697
-0.00664659
-0.00665566
-0.00665385
-0.00664074
-0.00661475
-0.00657268
-0.00652547
0.000687508
0.000642632
0.000591783
0.000542216
0.000492371
0.000441744
0.000390424
0.00033845
0.000285771
0.0002323
0.000177922
0.000122497
6.58655e-05
7.8528e-06
-5.17279e-05
-0.000113071
-0.000176375
-0.000241837
-0.000309654
-0.000380012
-0.000453091
-0.000529056
-0.000608057
-0.000690226
-0.000775673
-0.000864486
-0.000956727
-0.00105243
-0.00115161
-0.00125423
-0.00136024
-0.00146955
-0.00158203
-0.00169751
-0.0018158
-0.00193664
-0.00205975
-0.0021848
-0.0023114
-0.00243914
-0.00256754
-0.00269609
-0.00282424
-0.00295137
-0.00307687
-0.00320004
-0.0033202
-0.00343661
-0.00354854
-0.00365522
-0.00375591
-0.00384985
-0.0039363
-0.00401456
-0.00408394
-0.00414381
-0.00419359
-0.00423277
-0.00426089
-0.00427761
-0.00428264
-0.00427583
-0.00425712
-0.00422655
-0.0041843
-0.00413067
-0.00406608
-0.00399109
-0.00390637
-0.00381272
-0.00371108
-0.00360247
-0.00348806
-0.00336908
-0.00324688
-0.00312286
-0.0029985
-0.00287531
-0.00275483
-0.00263862
-0.00252822
-0.00242513
-0.00233083
-0.00224671
-0.00217406
-0.00211407
-0.0020678
-0.00203618
-0.00201996
-0.00201972
-0.00203587
-0.00206861
-0.00211796
-0.00218375
-0.0022656
-0.00236295
-0.00247506
-0.00260101
-0.00273976
-0.0028901
-0.00305072
-0.00322021
-0.0033971
-0.00357987
-0.00376696
-0.00395683
-0.00414797
-0.0043389
-0.00452821
-0.00471458
-0.00489679
-0.00507372
-0.00524439
-0.00540793
-0.0055636
-0.00571081
-0.00584907
-0.00597801
-0.00609738
-0.00620701
-0.0063068
-0.00639675
-0.00647685
-0.00654714
-0.00660766
-0.00665842
-0.00669939
-0.00673049
-0.00675154
-0.00676228
-0.00676241
-0.00675152
-0.00672814
-0.00668927
-0.00664528
0.000781362
0.000728393
0.00066946
0.000613419
0.000558241
0.000503173
0.000448212
0.0003933
0.000338285
0.00028298
0.000227178
0.000170652
0.000113162
5.44576e-05
-5.71834e-06
-6.76241e-05
-0.000131517
-0.00019765
-0.000266268
-0.000337606
-0.000411886
-0.000489312
-0.000570074
-0.000654335
-0.000742241
-0.000833909
-0.00092943
-0.00102886
-0.00113224
-0.00123956
-0.00135078
-0.00146582
-0.00158457
-0.00170687
-0.00183252
-0.00196127
-0.00209283
-0.00222686
-0.00236295
-0.00250067
-0.00263953
-0.00277898
-0.00291843
-0.00305724
-0.00319472
-0.00333017
-0.00346282
-0.0035919
-0.0037166
-0.00383612
-0.00394963
-0.00405633
-0.00415541
-0.00424609
-0.00432764
-0.00439935
-0.00446059
-0.00451076
-0.00454938
-0.00457602
-0.00459037
-0.00459219
-0.00458138
-0.00455795
-0.00452204
-0.0044739
-0.00441392
-0.00434264
-0.0042607
-0.00416889
-0.00406813
-0.00395945
-0.00384401
-0.00372306
-0.00359795
-0.00347012
-0.00334107
-0.00321235
-0.00308556
-0.00296228
-0.00284414
-0.00273269
-0.00262949
-0.00253598
-0.00245356
-0.00238349
-0.00232693
-0.00228487
-0.00225817
-0.00224749
-0.00225331
-0.00227594
-0.00231545
-0.00237175
-0.00244452
-0.00253325
-0.00263725
-0.00275564
-0.0028874
-0.00303133
-0.00318615
-0.00335043
-0.00352269
-0.00370138
-0.00388495
-0.00407181
-0.0042604
-0.00444921
-0.0046368
-0.0048218
-0.00500295
-0.00517909
-0.0053492
-0.00551239
-0.00566789
-0.00581507
-0.00595344
-0.00608261
-0.00620232
-0.0063124
-0.00641277
-0.0065034
-0.00658432
-0.00665557
-0.00671719
-0.00676922
-0.00681165
-0.0068444
-0.00686733
-0.0068802
-0.00688272
-0.00687453
-0.00685426
-0.00681916
-0.0067789
0.000875323
0.000813998
0.00074672
0.000684
0.000623312
0.000563649
0.000504901
0.000446905
0.000389399
0.00033209
0.000274672
0.000216825
0.000158223
9.85354e-05
3.74337e-05
-2.54074e-05
-9.03065e-05
-0.000157572
-0.000227502
-0.000300377
-0.000376463
-0.000456007
-0.000539234
-0.000626346
-0.000717519
-0.000812903
-0.000912615
-0.00101674
-0.00112534
-0.00123842
-0.00135597
-0.00147791
-0.00160415
-0.00173453
-0.00186885
-0.00200685
-0.00214824
-0.00229266
-0.0024397
-0.00258888
-0.0027397
-0.00289156
-0.00304383
-0.00319584
-0.00334686
-0.00349611
-0.00364278
-0.00378604
-0.00392502
-0.00405884
-0.00418663
-0.00430749
-0.00442057
-0.00452502
-0.00462002
-0.00470481
-0.00477868
-0.00484098
-0.00489115
-0.00492871
-0.00495327
-0.00496456
-0.00496242
-0.0049468
-0.00491779
-0.00487562
-0.00482063
-0.00475331
-0.00467431
-0.00458437
-0.00448441
-0.00437546
-0.00425865
-0.00413526
-0.00400665
-0.00387427
-0.00373967
-0.00360442
-0.00347017
-0.00333858
-0.0032113
-0.00308998
-0.00297624
-0.00287162
-0.0027776
-0.00269553
-0.00262667
-0.00257213
-0.00253283
-0.00250956
-0.0025029
-0.00251324
-0.00254076
-0.00258543
-0.00264703
-0.00272511
-0.00281903
-0.00292799
-0.00305097
-0.00318683
-0.00333428
-0.00349192
-0.00365825
-0.00383172
-0.00401074
-0.00419369
-0.00437899
-0.00456508
-0.00475047
-0.00493375
-0.0051136
-0.00528883
-0.00545837
-0.00562128
-0.00577676
-0.00592415
-0.00606292
-0.00619267
-0.00631311
-0.00642408
-0.00652546
-0.00661724
-0.00669944
-0.00677212
-0.00683533
-0.0068891
-0.00693345
-0.00696832
-0.00699359
-0.00700906
-0.00701441
-0.00700936
-0.00699266
-0.00696181
-0.00692569
0.000968067
0.000898163
0.000822326
0.00075276
0.000686427
0.000622047
0.000559395
0.000498196
0.000438067
0.0003786
0.000319383
0.000259998
0.000200029
0.000139062
7.66928e-05
1.25267e-05
-5.38172e-05
-0.000122706
-0.000194487
-0.000269494
-0.000348035
-0.000430398
-0.000516848
-0.000607623
-0.000702932
-0.000802955
-0.000907839
-0.0010177
-0.0011326
-0.0012526
-0.00137767
-0.00150776
-0.00164279
-0.00178259
-0.00192697
-0.00207567
-0.00222837
-0.0023847
-0.00254422
-0.00270644
-0.0028708
-0.00303669
-0.00320343
-0.00337028
-0.00353647
-0.00370116
-0.00386349
-0.00402256
-0.00417742
-0.00432715
-0.00447077
-0.00460734
-0.00473593
-0.0048556
-0.00496547
-0.00506471
-0.00515253
-0.00522822
-0.00529114
-0.00534075
-0.00537659
-0.00539832
-0.00540574
-0.00539873
-0.00537734
-0.00534174
-0.00529223
-0.00522927
-0.00515346
-0.00506555
-0.0049664
-0.00485704
-0.0047386
-0.00461237
-0.0044797
-0.00434208
-0.00420107
-0.0040583
-0.00391544
-0.00377422
-0.00363636
-0.00350359
-0.00337759
-0.00326002
-0.00315243
-0.00305629
-0.00297297
-0.00290368
-0.00284947
-0.00281125
-0.0027897
-0.00278533
-0.00279842
-0.00282906
-0.00287711
-0.00294221
-0.00302381
-0.00312116
-0.00323329
-0.00335912
-0.00349737
-0.00364666
-0.0038055
-0.00397233
-0.00414553
-0.00432348
-0.00450453
-0.00468709
-0.00486963
-0.00505067
-0.00522886
-0.00540294
-0.00557178
-0.00573439
-0.00588993
-0.0060377
-0.00617712
-0.00630775
-0.00642929
-0.00654154
-0.00664438
-0.00673778
-0.00682176
-0.00689635
-0.00696164
-0.00701765
-0.0070644
-0.00710186
-0.00712995
-0.00714845
-0.00715708
-0.00715561
-0.00714289
-0.00711668
-0.00708506
0.00105823
0.000979559
0.000894988
0.000818448
0.000746368
0.000677181