/*--------------------------------*- C++ -*----------------------------------*\
  =========                 |
  \\      /  F ield         | OpenFOAM: The Open Source CFD Toolbox
   \\    /   O peration     | Website:  https://openfoam.org
    \\  /    A nd           | Version:  12
     \\/     M anipulation  |
\*---------------------------------------------------------------------------*/
FoamFile
{
    format      ascii;
    class       surfaceScalarField;
    location    "3.5";
    object      phi;
}
// * * * * * * * * * * * * * * * * * * * * * * * * * * * * * * * * * * * * * //

dimensions      [0 3 -1 0 0 0 0];

internalField   nonuniform List<scalar> 
36180
(
3.25147e-11
-3.30935e-11
1.63795e-10
-1.31269e-10
3.65668e-10
-2.01849e-10
5.9893e-10
-2.33236e-10
8.33327e-10
-2.34377e-10
1.04715e-09
-2.1381e-10
1.22558e-09
-1.78414e-10
1.35899e-09
-1.33397e-10
1.44157e-09
-8.25804e-11
1.47028e-09
-2.86988e-11
1.44396e-09
2.63219e-11
1.36278e-09
8.11762e-11
1.22778e-09
1.34994e-10
1.04053e-09
1.87245e-10
8.02872e-10
2.37654e-10
5.16738e-10
2.86124e-10
1.84037e-10
3.32691e-10
-1.93451e-10
3.77477e-10
-6.14137e-10
4.20675e-10
-1.07665e-09
4.62505e-10
-1.57985e-09
5.03193e-10
-2.12282e-09
5.4296e-10
-2.70484e-09
5.82016e-10
-3.3254e-09
6.20547e-10
-3.98412e-09
6.58713e-10
-4.68076e-09
6.96635e-10
-5.41516e-09
7.34398e-10
-6.18721e-09
7.72049e-10
-6.99681e-09
8.09597e-10
-7.84383e-09
8.47015e-10
-8.72807e-09
8.84237e-10
-9.64924e-09
9.21166e-10
-1.06069e-08
9.57672e-10
-1.16005e-08
9.93595e-10
-1.26293e-08
1.02875e-09
-1.36922e-08
1.06292e-09
-1.47881e-08
1.09588e-09
-1.59155e-08
1.12737e-09
-1.70726e-08
1.15712e-09
-1.82574e-08
1.18484e-09
-1.94677e-08
1.21023e-09
-2.07006e-08
1.23298e-09
-2.19534e-08
1.25278e-09
-2.32227e-08
1.2693e-09
-2.45049e-08
1.2822e-09
-2.57961e-08
1.29118e-09
-2.7092e-08
1.29589e-09
-2.8388e-08
1.29602e-09
-2.96793e-08
1.29127e-09
-3.09606e-08
1.28133e-09
-3.22266e-08
1.26593e-09
-3.34714e-08
1.24481e-09
-3.46891e-08
1.21773e-09
-3.58736e-08
1.18448e-09
-3.70185e-08
1.14489e-09
-3.81173e-08
1.09882e-09
-3.91635e-08
1.04616e-09
-4.01503e-08
9.86859e-10
-4.10712e-08
9.20909e-10
-4.19196e-08
8.48347e-10
-4.26889e-08
7.69266e-10
-4.33727e-08
6.83816e-10
-4.39649e-08
5.92205e-10
-4.44596e-08
4.94698e-10
-4.48512e-08
3.91614e-10
-4.51345e-08
2.83307e-10
-4.53047e-08
1.70195e-10
-4.53581e-08
5.34222e-11
-4.52906e-08
-6.75554e-11
-4.50992e-08
-1.91329e-10
-4.47818e-08
-3.17404e-10
-4.43368e-08
-4.45039e-10
-4.37633e-08
-5.73444e-10
-4.30616e-08
-7.01792e-10
-4.22323e-08
-8.29221e-10
-4.12775e-08
-9.54843e-10
-4.01997e-08
-1.07775e-09
-3.90027e-08
-1.19702e-09
-3.7691e-08
-1.31175e-09
-3.62699e-08
-1.42103e-09
-3.4746e-08
-1.52396e-09
-3.31263e-08
-1.61969e-09
-3.14189e-08
-1.70742e-09
-2.96325e-08
-1.78637e-09
-2.77767e-08
-1.85585e-09
-2.58614e-08
-1.91524e-09
-2.38974e-08
-1.96399e-09
-2.18958e-08
-2.00164e-09
-1.98679e-08
-2.02786e-09
-1.78256e-08
-2.04237e-09
-1.57805e-08
-2.04505e-09
-1.37447e-08
-2.03586e-09
-1.17298e-08
-2.01489e-09
-9.74743e-09
-1.98234e-09
-7.80891e-09
-1.93853e-09
-5.92503e-09
-1.88387e-09
-4.10614e-09
-1.8189e-09
-2.36191e-09
-1.74422e-09
-7.01349e-10
-1.66057e-09
8.67361e-10
-1.56871e-09
2.33688e-09
-1.46951e-09
3.70076e-09
-1.36389e-09
4.95354e-09
-1.25277e-09
6.09068e-09
-1.13714e-09
7.10871e-09
-1.01803e-09
8.00513e-09
-8.96421e-10
8.77842e-09
-7.7329e-10
9.42802e-09
-6.49604e-10
9.95432e-09
-5.26297e-10
1.03586e-08
-4.04261e-10
1.06429e-08
-2.84339e-10
1.08102e-08
-1.67321e-10
1.08642e-08
-5.39447e-11
1.08091e-08
5.51222e-11
1.06498e-08
1.59226e-10
1.0392e-08
2.57818e-10
1.00417e-08
3.50326e-10
9.60549e-09
4.36198e-10
9.09061e-09
5.14881e-10
8.50482e-09
5.85791e-10
7.85654e-09
6.48278e-10
7.15496e-09
7.01586e-10
6.41015e-09
7.44808e-10
5.63331e-09
7.76832e-10
4.83703e-09
7.9628e-10
4.03559e-09
8.01445e-10
3.24537e-09
7.90223e-10
2.4853e-09
7.60065e-10
1.77732e-09
7.07977e-10
1.14664e-09
6.30681e-10
6.21502e-10
5.2514e-10
2.31653e-10
3.89849e-10
3.60201e-12
2.28051e-10
-5.48383e-11
5.84401e-11
-5.48384e-11
1.32673e-10
-1.65796e-10
4.62236e-10
-4.60836e-10
9.16815e-10
-6.56411e-10
1.42401e-09
-7.40413e-10
1.92167e-09
-7.32016e-10
2.36163e-09
-6.53743e-10
2.70853e-09
-5.25299e-10
2.93773e-09
-3.62585e-10
3.03307e-09
-1.7792e-10
2.98493e-09
1.94472e-11
2.78851e-09
2.22747e-10
2.44254e-09
4.27151e-10
1.94819e-09
6.29337e-10
1.30827e-09
8.27155e-10
5.26554e-10
1.01936e-09
-3.92717e-10
1.20538e-09
-1.4452e-09
1.38516e-09
-2.62672e-09
1.55898e-09
-3.93337e-09
1.72732e-09
-5.36168e-09
1.89081e-09
-6.90866e-09
2.05015e-09
-8.57178e-09
2.20607e-09
-1.0349e-08
2.35924e-09
-1.22387e-08
2.51026e-09
-1.42396e-08
2.65961e-09
-1.63507e-08
2.80769e-09
-1.8571e-08
2.95473e-09
-2.08998e-08
3.10086e-09
-2.33363e-08
3.24605e-09
-2.58794e-08
3.39015e-09
-2.85281e-08
3.53287e-09
-3.12807e-08
3.67381e-09
-3.41355e-08
3.81243e-09
-3.709e-08
3.94812e-09
-4.01414e-08
4.08013e-09
-4.32861e-08
4.20764e-09
-4.652e-08
4.32975e-09
-4.98381e-08
4.44548e-09
-5.32348e-08
4.55379e-09
-5.67036e-08
4.65359e-09
-6.02371e-08
4.74375e-09
-6.38272e-08
4.8231e-09
-6.74649e-08
4.89044e-09
-7.11402e-08
4.94458e-09
-7.48422e-08
4.98429e-09
-7.85595e-08
5.00838e-09
-8.22792e-08
5.01567e-09
-8.59882e-08
5.00501e-09
-8.96723e-08
4.9753e-09
-9.33164e-08
4.92548e-09
-9.69051e-08
4.85458e-09
-1.00422e-07
4.76171e-09
-1.0385e-07
4.64607e-09
-1.07173e-07
4.50698e-09
-1.10372e-07
4.34389e-09
-1.13429e-07
4.15638e-09
-1.16327e-07
3.94418e-09
-1.19048e-07
3.7072e-09
-1.21572e-07
3.44552e-09
-1.23883e-07
3.1594e-09
-1.25963e-07
2.84932e-09
-1.27796e-07
2.51595e-09
-1.29364e-07
2.16018e-09
-1.30652e-07
1.7831e-09
-1.31646e-07
1.38604e-09
-1.32334e-07
9.70475e-10
-1.32701e-07
5.38039e-10
-1.3274e-07
9.1747e-11
-1.3244e-07
-3.67561e-10
-1.31794e-07
-8.36925e-10
-1.30798e-07
-1.31376e-09
-1.29448e-07
-1.79531e-09
-1.27742e-07
-2.27868e-09
-1.25683e-07
-2.76081e-09
-1.23274e-07
-3.23856e-09
-1.2052e-07
-3.70869e-09
-1.1743e-07
-4.16791e-09
-1.14014e-07
-4.6129e-09
-1.10285e-07
-5.04037e-09
-1.06259e-07
-5.44705e-09
-1.01954e-07
-5.82978e-09
-9.73878e-08
-6.18548e-09
-9.2584e-08
-6.51127e-09
-8.75659e-08
-6.80443e-09
-8.23593e-08
-7.06248e-09
-7.69913e-08
-7.2832e-09
-7.14906e-08
-7.46466e-09
-6.5887e-08
-7.60525e-09
-6.02112e-08
-7.70371e-09
-5.44944e-08
-7.75915e-09
-4.87684e-08
-7.77107e-09
-4.30649e-08
-7.73936e-09
-3.74154e-08
-7.66431e-09
-3.18512e-08
-7.54663e-09
-2.64023e-08
-7.3874e-09
-2.10981e-08
-7.18811e-09
-1.59663e-08
-6.95061e-09
-1.10335e-08
-6.67711e-09
-6.32392e-09
-6.37011e-09
-1.86021e-09
-6.03242e-09
2.33737e-09
-5.6671e-09
6.25085e-09
-5.27737e-09
9.86476e-09
-4.86668e-09
1.31662e-08
-4.43856e-09
1.61447e-08
-3.9966e-09
1.87928e-08
-3.54443e-09
2.11051e-08
-3.08567e-09
2.30794e-08
-2.62386e-09
2.47156e-08
-2.16247e-09
2.60161e-08
-1.70483e-09
2.69859e-08
-1.25411e-09
2.76319e-08
-8.13323e-10
2.79633e-08
-3.85309e-10
2.79911e-08
2.72892e-11
2.77284e-08
4.21909e-10
2.71899e-08
7.96306e-10
2.63921e-08
1.14818e-09
2.5353e-08
1.47524e-09
2.40927e-08
1.77524e-09
2.26326e-08
2.04582e-09
2.09966e-08
2.28437e-09
1.92102e-08
2.48796e-09
1.73018e-08
2.65318e-09
1.53027e-08
2.77598e-09
1.32474e-08
2.85156e-09
1.11747e-08
2.87415e-09
9.1279e-09
2.837e-09
7.1556e-09
2.73236e-09
5.31185e-09
2.55173e-09
3.65578e-09
2.28675e-09
2.24977e-09
1.93115e-09
1.15466e-09
1.48496e-09
4.19318e-10
9.63391e-10
5.85414e-11
4.19216e-10
3.70279e-12
2.03783e-10
-3.69629e-10
6.60633e-10
-9.17711e-10
1.25462e-09
-1.2504e-09
1.89169e-09
-1.37746e-09
2.49308e-09
-1.3334e-09
2.99589e-09
-1.15653e-09
3.35214e-09
-8.81534e-10
3.52697e-09
-5.37406e-10
3.49642e-09
-1.47353e-10
3.24523e-09
2.70635e-10
2.765e-09
7.02979e-10
2.0524e-09
1.13975e-09
1.10778e-09
1.57395e-09
-6.59812e-11
2.00091e-09
-1.46439e-09
2.41775e-09
-3.082e-09
2.82299e-09
-4.91302e-09
3.21616e-09
-6.95163e-09
3.59758e-09
-9.19236e-09
3.96803e-09
-1.16302e-08
4.32865e-09
-1.42608e-08
4.68071e-09
-1.70802e-08
5.02552e-09
-2.00853e-08
5.36433e-09
-2.32733e-08
5.69824e-09
-2.66419e-08
6.02817e-09
-3.0189e-08
6.35477e-09
-3.39127e-08
6.67847e-09
-3.78113e-08
6.99939e-09
-4.18826e-08
7.31739e-09
-4.61245e-08
7.63205e-09
-5.05343e-08
7.94266e-09
-5.51088e-08
8.24829e-09
-5.98441e-08
8.54772e-09
-6.47355e-08
8.83955e-09
-6.97775e-08
9.12213e-09
-7.49636e-08
9.39366e-09
-8.0286e-08
9.65215e-09
-8.5736e-08
9.89547e-09
-9.13036e-08
1.01214e-08
-9.69774e-08
1.03275e-08
-1.02745e-07
1.05113e-08
-1.08592e-07
1.06704e-08
-1.14504e-07
1.08023e-08
-1.20464e-07
1.09043e-08
-1.26453e-07
1.09739e-08
-1.32454e-07
1.10085e-08
-1.38444e-07
1.10058e-08
-1.44402e-07
1.09634e-08
-1.50306e-07
1.08789e-08
-1.5613e-07
1.07502e-08
-1.61851e-07
1.05755e-08
-1.67443e-07
1.03528e-08
-1.72877e-07
1.00808e-08
-1.78128e-07
9.75803e-09
-1.83168e-07
9.38356e-09
-1.87968e-07
8.95669e-09
-1.92501e-07
8.47705e-09
-1.96739e-07
7.94464e-09
-2.00653e-07
7.35983e-09
-2.04217e-07
6.7234e-09
-2.07404e-07
6.03657e-09
-2.10189e-07
5.30096e-09
-2.12548e-07
4.51864e-09
-2.14457e-07
3.69216e-09
-2.15895e-07
2.82448e-09
-2.16844e-07
1.91901e-09
-2.17285e-07
9.79664e-10
-2.17205e-07
1.11824e-11
-2.1659e-07
-9.82276e-10
-2.15432e-07
-1.99537e-09
-2.13723e-07
-3.02258e-09
-2.1146e-07
-4.05801e-09
-2.08643e-07
-5.09553e-09
-2.05275e-07
-6.12873e-09
-2.01363e-07
-7.15099e-09
-1.96916e-07
-8.15556e-09
-1.91948e-07
-9.13559e-09
-1.86477e-07
-1.00842e-08
-1.80523e-07
-1.09946e-08
-1.7411e-07
-1.186e-08
-1.67266e-07
-1.26738e-08
-1.60021e-07
-1.34299e-08
-1.52411e-07
-1.41222e-08
-1.4447e-07
-1.47451e-08
-1.36239e-07
-1.52937e-08
-1.27759e-07
-1.57633e-08
-1.19073e-07
-1.61499e-08
-1.10228e-07
-1.64504e-08
-1.0127e-07
-1.66621e-08
-9.22458e-08
-1.67831e-08
-8.32044e-08
-1.68124e-08
-7.4194e-08
-1.67498e-08
-6.52624e-08
-1.65959e-08
-5.6457e-08
-1.6352e-08
-4.7824e-08
-1.60204e-08
-3.94081e-08
-1.5604e-08
-3.12521e-08
-1.51066e-08
-2.33964e-08
-1.45328e-08
-1.58789e-08
-1.38876e-08
-8.73465e-09
-1.31767e-08
-1.99527e-09
-1.24065e-08
4.31091e-09
-1.15836e-08
1.01592e-08
-1.0715e-08
1.55288e-08
-9.80814e-09
2.04027e-08
-8.87045e-09
2.47677e-08
-7.90952e-09
2.8615e-08
-6.93291e-09
3.19392e-08
-5.94812e-09
3.47393e-08
-4.96248e-09
3.70175e-08
-3.9831e-09
3.87802e-08
-3.0168e-09
4.0037e-08
-2.07012e-09
4.08009e-08
-1.14923e-09
4.10882e-08
-2.60005e-10
4.09181e-08
5.91991e-10
4.0313e-08
1.40149e-09
3.92978e-08
2.16337e-09
3.79004e-08
2.87255e-09
3.61518e-08
3.52389e-09
3.40855e-08
4.11207e-09
3.17386e-08
4.63134e-09
2.91512e-08
5.07535e-09
2.63675e-08
5.43687e-09
2.34359e-08
5.70755e-09
2.04097e-08
5.87774e-09
1.73476e-08
5.93629e-09
1.43141e-08
5.8705e-09
1.138e-08
5.66645e-09
8.62202e-09
5.30972e-09
6.12152e-09
4.78725e-09
3.96159e-09
4.09107e-09
2.22123e-09
3.22532e-09
9.65281e-10
2.21934e-09
2.28737e-10
1.15576e-09
2.3244e-10
2.3673e-10
-6.0641e-10
7.46841e-10
-1.42785e-09
1.38342e-09
-1.88698e-09
2.03512e-09
-2.02916e-09
2.61252e-09
-1.91079e-09
3.04434e-09
-1.58834e-09
3.27545e-09
-1.11263e-09
3.26488e-09
-5.26815e-10
2.98362e-09
1.33913e-10
2.41256e-09
8.41698e-10
1.54042e-09
1.57512e-09
3.61985e-10
2.31819e-09
-1.12345e-09
3.05938e-09
-2.91336e-09
3.79081e-09
-5.00306e-09
4.50744e-09
-7.3866e-09
5.20652e-09
-1.00574e-08
5.88696e-09
-1.30088e-08
6.54892e-09
-1.62342e-08
7.19341e-09
-1.97275e-08
7.822e-09
-2.34833e-08
8.43652e-09
-2.74967e-08
9.0389e-09
-3.17634e-08
9.63097e-09
-3.62795e-08
1.02143e-08
-4.10416e-08
1.07903e-08
-4.60465e-08
1.13597e-08
-5.12912e-08
1.19232e-08
-5.67724e-08
1.24806e-08
-6.24868e-08
1.30317e-08
-6.84303e-08
1.35755e-08
-7.45984e-08
1.41108e-08
-8.09857e-08
1.46357e-08
-8.75861e-08
1.5148e-08
-9.43919e-08
1.56454e-08
-1.01395e-07
1.61248e-08
-1.08584e-07
1.65832e-08
-1.15949e-07
1.7017e-08
-1.23476e-07
1.74226e-08
-1.31151e-07
1.77961e-08
-1.38957e-07
1.81335e-08
-1.46876e-07
1.84305e-08
-1.54889e-07
1.86829e-08
-1.62973e-07
1.88864e-08
-1.71105e-07
1.90367e-08
-1.79261e-07
1.91296e-08
-1.87413e-07
1.91608e-08
-1.95534e-07
1.91262e-08
-2.03592e-07
1.90221e-08
-2.11558e-07
1.88446e-08
-2.19398e-07
1.85904e-08
-2.27079e-07
1.82564e-08
-2.34566e-07
1.78397e-08
-2.41823e-07
1.73382e-08
-2.48815e-07
1.67498e-08
-2.55505e-07
1.60731e-08
-2.61855e-07
1.53074e-08
-2.67831e-07
1.44522e-08
-2.73394e-07
1.35079e-08
-2.7851e-07
1.24755e-08
-2.83143e-07
1.13567e-08
-2.8726e-07
1.01537e-08
-2.90829e-07
8.86971e-09
-2.93819e-07
7.50846e-09
-2.96201e-07
6.07452e-09
-2.9795e-07
4.57318e-09
-2.99041e-07
3.01047e-09
-2.99455e-07
1.39318e-09
-2.99172e-07
-2.71112e-10
-2.9818e-07
-1.97447e-09
-2.96467e-07
-3.70813e-09
-2.94027e-07
-5.46275e-09
-2.90857e-07
-7.22847e-09
-2.86957e-07
-8.99497e-09
-2.82334e-07
-1.07516e-08
-2.76998e-07
-1.24873e-08
-2.70963e-07
-1.41909e-08
-2.64247e-07
-1.58511e-08
-2.56875e-07
-1.74565e-08
-2.48874e-07
-1.8996e-08
-2.40275e-07
-2.04585e-08
-2.31116e-07
-2.18332e-08
-2.21436e-07
-2.31099e-08
-2.11279e-07
-2.42788e-08
-2.00693e-07
-2.53308e-08
-1.89729e-07
-2.62577e-08
-1.78441e-07
-2.70521e-08
-1.66883e-07
-2.77074e-08
-1.55115e-07
-2.82183e-08
-1.43197e-07
-2.85806e-08
-1.31189e-07
-2.87912e-08
-1.19153e-07
-2.88483e-08
-1.07151e-07
-2.87516e-08
-9.52449e-08
-2.85019e-08
-8.34954e-08
-2.81015e-08
-7.19621e-08
-2.75537e-08
-6.07025e-08
-2.68636e-08
-4.97721e-08
-2.60371e-08
-3.92235e-08
-2.50814e-08
-2.9106e-08
-2.4005e-08
-1.94656e-08
-2.28171e-08
-1.03441e-08
-2.1528e-08
-1.77908e-09
-2.01485e-08
6.19628e-09
-1.86904e-08
1.35536e-08
-1.71655e-08
2.02695e-08
-1.55863e-08
2.63255e-08
-1.39654e-08
3.1708e-08
-1.23154e-08
3.64088e-08
-1.06489e-08
4.04244e-08
-8.97811e-09
4.37564e-08
-7.31515e-09
4.64113e-08
-5.67163e-09
4.83999e-08
-4.05873e-09
4.97378e-08
-2.48712e-09
5.04448e-08
-9.67072e-10
5.05451e-08
4.9171e-10
5.00667e-08
1.87987e-09
4.90417e-08
3.18836e-09
4.75061e-08
4.40821e-09
4.54996e-08
5.53032e-09
4.30664e-08
6.54533e-09
4.02544e-08
7.44331e-09
3.71163e-08
8.21342e-09
3.37096e-08
8.84361e-09
3.00968e-08
9.32029e-09
2.63465e-08
9.62809e-09
2.25331e-08
9.74972e-09
1.87374e-08
9.66615e-09
1.50468e-08
9.35711e-09
1.1554e-08
8.80251e-09
8.35603e-09
7.98519e-09
5.55113e-09
6.89597e-09
3.23415e-09
5.54231e-09
1.49061e-09
3.96287e-09
3.91734e-10
2.25464e-09
6.24174e-10
2.38196e-10
-8.44656e-10
7.35688e-10
-1.92539e-09
1.32918e-09
-2.48049e-09
1.89617e-09
-2.59615e-09
2.34056e-09
-2.35517e-09
2.58656e-09
-1.83432e-09
2.57552e-09
-1.10157e-09
2.26343e-09
-2.14713e-10
1.6187e-09
7.78659e-10
6.19996e-10
1.84041e-09
-7.45679e-10
2.9408e-09
-2.48479e-09
4.0573e-09
-4.59885e-09
5.17344e-09
-7.08578e-09
6.27773e-09
-9.94102e-09
7.36267e-09
-1.31585e-08
8.42395e-09
-1.67312e-08
9.45964e-09
-2.06519e-08
1.04696e-08
-2.49135e-08
1.1455e-08
-2.95091e-08
1.24176e-08
-3.44325e-08
1.33599e-08
-3.96779e-08
1.42843e-08
-4.524e-08
1.51931e-08
-5.1114e-08
1.60883e-08
-5.72954e-08
1.69716e-08
-6.37796e-08
1.7844e-08
-7.05624e-08
1.87059e-08
-7.76388e-08
1.95571e-08
-8.50038e-08
2.03967e-08
-9.26513e-08
2.12231e-08
-1.00575e-07
2.20341e-08
-1.08766e-07
2.2827e-08
-1.17216e-07
2.35982e-08
-1.25915e-07
2.43438e-08
-1.34849e-07
2.50594e-08
-1.44006e-07
2.57401e-08
-1.5337e-07
2.63805e-08
-1.62922e-07
2.69751e-08
-1.72644e-07
2.75179e-08
-1.82513e-07
2.8003e-08
-1.92507e-07
2.84239e-08
-2.02598e-07
2.87743e-08
-2.1276e-07
2.90479e-08
-2.22961e-07
2.92382e-08
-2.33171e-07
2.93391e-08
-2.43354e-07
2.93443e-08
-2.53476e-07
2.92479e-08
-2.63498e-07
2.90445e-08
-2.73382e-07
2.87286e-08
-2.83088e-07
2.82956e-08
-2.92572e-07
2.77411e-08
-3.01794e-07
2.70613e-08
-3.10709e-07
2.62531e-08
-3.19273e-07
2.53142e-08
-3.27443e-07
2.42428e-08
-3.35174e-07
2.3038e-08
-3.42421e-07
2.17001e-08
-3.49143e-07
2.02298e-08
-3.55297e-07
1.86291e-08
-3.60841e-07
1.69009e-08
-3.65737e-07
1.50493e-08
-3.69946e-07
1.30791e-08
-3.73434e-07
1.09965e-08
-3.76168e-07
8.80859e-09
-3.78118e-07
6.52362e-09
-3.79259e-07
4.15085e-09
-3.79566e-07
1.70058e-09
-3.79021e-07
-8.15894e-10
-3.7761e-07
-3.38644e-09
-3.7532e-07
-5.99802e-09
-3.72146e-07
-8.63675e-09
-3.68086e-07
-1.12881e-08
-3.63144e-07
-1.39368e-08
-3.57329e-07
-1.65672e-08
-3.50653e-07
-1.91633e-08
-3.43135e-07
-2.17086e-08
-3.34799e-07
-2.41867e-08
-3.25675e-07
-2.65812e-08
-3.15795e-07
-2.88758e-08
-3.05199e-07
-3.10544e-08
-2.9393e-07
-3.31017e-08
-2.82037e-07
-3.50028e-08
-2.69573e-07
-3.67436e-08
-2.56592e-07
-3.8311e-08
-2.43157e-07
-3.96931e-08
-2.2933e-07
-4.08792e-08
-2.15177e-07
-4.186e-08
-2.00768e-07
-4.26276e-08
-1.86173e-07
-4.3176e-08
-1.71463e-07
-4.35007e-08
-1.56713e-07
-4.3599e-08
-1.41994e-07
-4.34704e-08
-1.2738e-07
-4.31158e-08
-1.12943e-07
-4.25384e-08
-9.87535e-08
-4.17432e-08
-8.48803e-08
-4.07368e-08
-7.13893e-08
-3.9528e-08
-5.83436e-08
-3.81271e-08
-4.58027e-08
-3.65459e-08
-3.3822e-08
-3.47979e-08
-2.24524e-08
-3.28976e-08
-1.17399e-08
-3.0861e-08
-1.7257e-09
-2.87046e-08
7.5549e-09
-2.64461e-08
1.6072e-08
-2.41035e-08
2.38017e-08
-2.16951e-08
3.07258e-08
-1.92395e-08
3.68322e-08
-1.67553e-08
4.21148e-08
-1.42607e-08
4.65733e-08
-1.17736e-08
5.02133e-08
-9.31159e-09
5.30459e-08
-6.89141e-09
5.50882e-08
-4.52934e-09
5.6362e-08
-2.24092e-09
5.68949e-08
-4.1152e-11
5.67193e-08
2.05547e-09
5.58726e-08
4.03499e-09
5.43973e-08
5.88353e-09
5.23406e-08
7.58702e-09
4.97549e-08
9.13111e-09
4.66974e-08
1.05008e-08
4.32309e-08
1.16799e-08
3.94238e-08
1.26508e-08
3.53502e-08
1.33939e-08
3.10906e-08
1.38877e-08
2.67319e-08
1.41084e-08
2.23675e-08
1.40305e-08
1.80971e-08
1.36275e-08
1.40258e-08
1.28738e-08
1.02631e-08
1.17479e-08
6.92068e-09
1.02384e-08
4.11023e-09
8.35276e-09
1.94219e-09
6.13092e-09
5.2869e-10
3.66813e-09
1.15286e-09
2.15531e-10
-1.06024e-09
6.45181e-10
-2.35507e-09
1.12122e-09
-2.95655e-09
1.51661e-09
-2.99155e-09
1.73256e-09
-2.57111e-09
1.69186e-09
-1.79361e-09
1.33505e-09
-7.44746e-10
6.17485e-10
5.02865e-10
-4.93052e-10
1.88921e-09
-2.0185e-09
3.36586e-09
-3.97242e-09
4.89473e-09
-6.3618e-09
6.44667e-09
-9.18851e-09
8.00015e-09
-1.24507e-08
9.53993e-09
-1.6144e-08
1.10559e-08
-2.02621e-08
1.25421e-08
-2.47981e-08
1.39956e-08
-2.97444e-08
1.54159e-08
-3.50934e-08
1.6804e-08
-4.08378e-08
1.81621e-08
-4.69708e-08
1.94929e-08
-5.34859e-08
2.07993e-08
-6.03768e-08
2.2084e-08
-6.76379e-08
2.33494e-08
-7.52635e-08
2.45971e-08
-8.32477e-08
2.58282e-08
-9.15847e-08
2.70428e-08
-1.00268e-07
2.82403e-08
-1.0929e-07
2.94189e-08
-1.18643e-07
3.05763e-08
-1.28318e-07
3.1709e-08
-1.38304e-07
3.28128e-08
-1.48589e-07
3.38827e-08
-1.59158e-07
3.49131e-08
-1.69996e-07
3.58975e-08
-1.81085e-07
3.68289e-08
-1.92404e-07
3.77e-08
-2.03932e-07
3.85028e-08
-2.15643e-07
3.92291e-08
-2.27511e-07
3.98705e-08
-2.39505e-07
4.04181e-08
-2.51594e-07
4.08634e-08
-2.63744e-07
4.11975e-08
-2.75917e-07
4.14118e-08
-2.88076e-07
4.14977e-08
-3.00179e-07
4.14471e-08
-3.12183e-07
4.12521e-08
-3.24044e-07
4.09052e-08
-3.35715e-07
4.03997e-08
-3.47148e-07
3.97293e-08
-3.58296e-07
3.88886e-08
-3.69107e-07
3.78728e-08
-3.79533e-07
3.66782e-08
-3.8952e-07
3.53021e-08
-3.99021e-07
3.37428e-08
-4.07982e-07
3.19997e-08
-4.16356e-07
3.00736e-08
-4.24092e-07
2.79663e-08
-4.31144e-07
2.56812e-08
-4.37466e-07
2.32228e-08
-4.43014e-07
2.05972e-08
-4.47747e-07
1.78118e-08
-4.51626e-07
1.48756e-08
-4.54616e-07
1.17987e-08
-4.56685e-07
8.59285e-09
-4.57806e-07
5.27112e-09
-4.57953e-07
1.8479e-09
-4.57108e-07
-1.66116e-09
-4.55255e-07
-5.23923e-09
-4.52385e-07
-8.86838e-09
-4.48492e-07
-1.25297e-08
-4.43577e-07
-1.62032e-08
-4.37645e-07
-1.98684e-08
-4.30708e-07
-2.3504e-08
-4.22783e-07
-2.70883e-08
-4.13892e-07
-3.05994e-08
-4.04064e-07
-3.4015e-08
-3.93332e-07
-3.73132e-08
-3.81736e-07
-4.04722e-08
-3.69319e-07
-4.34706e-08
-3.56133e-07
-4.62878e-08
-3.42232e-07
-4.8904e-08
-3.27675e-07
-5.13004e-08
-3.12527e-07
-5.34596e-08
-2.96854e-07
-5.53656e-08
-2.80729e-07
-5.70042e-08
-2.64226e-07
-5.83629e-08
-2.47423e-07
-5.94312e-08
-2.30398e-07
-6.02009e-08
-2.13232e-07
-6.06659e-08
-1.96009e-07
-6.08227e-08
-1.78809e-07
-6.067e-08
-1.61716e-07
-6.02093e-08
-1.4481e-07
-5.94443e-08
-1.28172e-07
-5.83814e-08
-1.11879e-07
-5.70296e-08
-9.60069e-08
-5.54e-08
-8.06279e-08
-5.35062e-08
-6.58099e-08
-5.13639e-08
-5.16171e-08
-4.89908e-08
-3.81084e-08
-4.64063e-08
-2.53379e-08
-4.36315e-08
-1.33538e-08
-4.06887e-08
-2.19837e-09
-3.76015e-08
8.09224e-09
-3.43941e-08
1.74885e-08
-3.10913e-08
2.59673e-08
-2.77184e-08
3.35125e-08
-2.43005e-08
4.01145e-08
-2.08627e-08
4.57705e-08
-1.74297e-08
5.04844e-08
-1.40255e-08
5.42668e-08
-1.06738e-08
5.71344e-08
-7.39702e-09
5.91108e-08
-4.21723e-09
6.02252e-08
-1.15559e-09
6.05132e-08
1.76745e-09
6.00163e-08
4.53195e-09
5.87815e-08
7.11829e-09
5.68621e-08
9.50645e-09
5.43169e-08
1.16763e-08
5.12107e-08
1.3607e-08
4.76143e-08
1.52763e-08
4.36048e-08
1.66603e-08
3.92656e-08
1.77331e-08
3.46866e-08
1.84666e-08
2.99646e-08
1.88304e-08
2.52027e-08
1.87924e-08
2.05104e-08
1.83197e-08
1.60033e-08
1.73809e-08
1.18016e-08
1.59495e-08
8.03043e-09
1.40096e-08
4.81919e-09
1.1564e-08
2.30418e-09
8.64593e-09
6.36114e-10
5.3362e-09
1.78898e-09
1.74374e-10
-1.23466e-09
4.90856e-10
-2.67159e-09
7.85901e-10
-3.25162e-09
9.33919e-10
-3.13957e-09
8.3733e-10
-2.47452e-09
4.20428e-10
-1.37669e-09
-3.74736e-10
5.04317e-11
-1.59144e-09
1.71958e-09
-3.26081e-09
3.5586e-09
-5.40401e-09
5.50906e-09
-8.03406e-09
7.52479e-09
-1.11576e-08
9.57024e-09
-1.47764e-08
1.16189e-08
-1.88885e-08
1.3652e-08
-2.34893e-08
1.56568e-08
-2.85727e-08
1.76255e-08
-3.41315e-08
1.95543e-08
-4.01579e-08
2.14423e-08
-4.66442e-08
2.32903e-08
-5.35828e-08
2.51006e-08
-6.09662e-08
2.68763e-08
-6.87873e-08
2.86204e-08
-7.70394e-08
3.0336e-08
-8.57154e-08
3.20255e-08
-9.48087e-08
3.36904e-08
-1.04312e-07
3.53317e-08
-1.14218e-07
3.69488e-08
-1.24518e-07
3.85404e-08
-1.35203e-07
4.01038e-08
-1.46262e-07
4.16354e-08
-1.57684e-07
4.31303e-08
-1.69453e-07
4.45826e-08
-1.81556e-07
4.59853e-08
-1.93974e-07
4.73308e-08
-2.06687e-07
4.86103e-08
-2.19672e-07
4.98146e-08
-2.32906e-07
5.09337e-08
-2.4636e-07
5.1957e-08
-2.60005e-07
5.28739e-08
-2.73807e-07
5.3673e-08
-2.87733e-07
5.43432e-08
-3.01742e-07
5.4873e-08
-3.15796e-07
5.52511e-08
-3.2985e-07
5.54663e-08
-3.4386e-07
5.55079e-08
-3.57779e-07
5.53655e-08
-3.71556e-07
5.50291e-08
-3.8514e-07
5.44895e-08
-3.98479e-07
5.37384e-08
-4.11518e-07
5.27682e-08
-4.24201e-07
5.15723e-08
-4.36474e-07
5.01453e-08
-4.48279e-07
4.84832e-08
-4.5956e-07
4.65831e-08
-4.7026e-07
4.44434e-08
-4.80325e-07
4.20645e-08
-4.897e-07
3.94479e-08
-4.9833e-07
3.65969e-08
-5.06166e-07
3.35166e-08
-5.13157e-07
3.02138e-08
-5.19256e-07
2.6697e-08
-5.24421e-07
2.29765e-08
-5.2861e-07
1.90645e-08
-5.31786e-07
1.49749e-08
-5.33917e-07
1.07233e-08
-5.34973e-07
6.32703e-09
-5.3493e-07
1.80504e-09
-5.33769e-07
-2.82216e-09
-5.31475e-07
-7.53264e-09
-5.28041e-07
-1.23031e-08
-5.23461e-07
-1.71091e-08
-5.17739e-07
-2.1925e-08
-5.10883e-07
-2.67245e-08
-5.02907e-07
-3.14804e-08
-4.9383e-07
-3.61649e-08
-4.83679e-07
-4.07501e-08
-4.72487e-07
-4.52079e-08
-4.60289e-07
-4.95104e-08
-4.47132e-07
-5.36298e-08
-4.33063e-07
-5.75393e-08
-4.18138e-07
-6.12126e-08
-4.02418e-07
-6.46248e-08
-3.85966e-07
-6.77521e-08
-3.68853e-07
-7.05725e-08
-3.51153e-07
-7.30658e-08
-3.32943e-07
-7.52139e-08
-3.14305e-07
-7.70009e-08
-2.95323e-07
-7.84135e-08
-2.76083e-07
-7.9441e-08
-2.56673e-07
-8.00756e-08
-2.37183e-07
-8.03126e-08
-2.17703e-07
-8.01501e-08
-1.98323e-07
-7.95896e-08
-1.79131e-07
-7.86356e-08
-1.60217e-07
-7.72958e-08
-1.41665e-07
-7.55812e-08
-1.2356e-07
-7.35055e-08
-1.0598e-07
-7.10856e-08
-8.90032e-08
-6.83411e-08
-7.26999e-08
-6.5294e-08
-5.71372e-08
-6.1969e-08
-4.23763e-08
-5.83924e-08
-2.84725e-08
-5.45926e-08
-1.54746e-08
-5.05994e-08
-3.42492e-09
-4.64437e-08
7.64122e-09
-4.21575e-08
1.76957e-08
-3.77729e-08
2.67177e-08
-3.33225e-08
3.46939e-08
-2.88389e-08
4.16182e-08
-2.4354e-08
4.74923e-08
-1.98996e-08
5.23249e-08
-1.55063e-08
5.61322e-08
-1.12043e-08
5.89375e-08
-7.02259e-09
6.07713e-08
-2.98935e-09
6.16707e-08
8.67996e-10
6.16801e-08
4.52258e-09
6.08503e-08
7.94814e-09
5.92383e-08
1.11184e-08
5.69083e-08
1.40063e-08
5.39308e-08
1.65845e-08
5.03829e-08
1.88242e-08
4.63485e-08
2.06946e-08
4.19184e-08
2.21632e-08
3.719e-08
2.3195e-08
3.22678e-08
2.37527e-08
2.72629e-08
2.37973e-08
2.22933e-08
2.32894e-08
1.74831e-08
2.21911e-08
1.29634e-08
2.04693e-08
8.87206e-09
1.81009e-08
5.35612e-09
1.50799e-08
2.57599e-09
1.14261e-08
7.15277e-10
7.19691e-09
2.50426e-09
1.18882e-10
-1.35358e-09
2.85054e-10
-2.83781e-09
3.45125e-10
-3.31171e-09
1.79876e-10
-2.97433e-09
-3.03396e-10
-1.99124e-09
-1.17618e-09
-5.03901e-10
-2.49273e-09
1.36699e-09
-4.29316e-09
3.52003e-09
-6.60599e-09
5.87144e-09
-9.45031e-09
8.35339e-09
-1.28376e-08
1.09121e-08
-1.67734e-08
1.3506e-08
-2.12585e-08
1.61041e-08
-2.62907e-08
1.86841e-08
-3.18649e-08
2.1231e-08
-3.79749e-08
2.37354e-08
-4.46132e-08
2.61926e-08
-5.17719e-08
2.8601e-08
-5.94432e-08
3.09615e-08
-6.76191e-08
3.32765e-08
-7.62918e-08
3.5549e-08
-8.54536e-08
3.77822e-08
-9.50969e-08
3.99793e-08
-1.05214e-07
4.21425e-08
-1.15797e-07
4.42732e-08
-1.26837e-07
4.63716e-08
-1.38324e-07
4.84365e-08
-1.5025e-07
5.04656e-08
-1.62601e-07
5.24548e-08
-1.75364e-07
5.4399e-08
-1.88525e-07
5.62915e-08
-2.02067e-07
5.81243e-08
-2.1597e-07
5.98885e-08
-2.30213e-07
6.15737e-08
-2.44772e-07
6.31688e-08
-2.59619e-07
6.46617e-08
-2.74725e-07
6.60398e-08
-2.90058e-07
6.72897e-08
-3.05581e-07
6.83977e-08
-3.21258e-07
6.93498e-08
-3.37047e-07
7.01318e-08
-3.52903e-07
7.07295e-08
-3.68781e-07
7.11289e-08
-3.84631e-07
7.13164e-08
-4.00402e-07
7.12788e-08
-4.1604e-07
7.10034e-08
-4.31489e-07
7.04783e-08
-4.46692e-07
6.96927e-08
-4.61591e-07
6.86367e-08
-4.76124e-07
6.73015e-08
-4.90232e-07
6.56797e-08
-5.03852e-07
6.37656e-08
-5.16923e-07
6.15548e-08
-5.29385e-07
5.90446e-08
-5.41176e-07
5.62344e-08
-5.52236e-07
5.31251e-08
-5.62508e-07
4.97198e-08
-5.71935e-07
4.60236e-08
-5.80462e-07
4.20438e-08
-5.88038e-07
3.77898e-08
-5.94614e-07
3.32728e-08
-6.00144e-07
2.85068e-08
-6.04587e-07
2.35074e-08
-6.07905e-07
1.82925e-08
-6.10064e-07
1.28822e-08
-6.11035e-07
7.29839e-09
-6.10795e-07
1.56502e-09
-6.09325e-07
-4.29222e-09
-6.06612e-07
-1.0246e-08
-6.02648e-07
-1.62673e-08
-5.97431e-07
-2.23258e-08
-5.90966e-07
-2.83902e-08
-5.83262e-07
-3.44277e-08
-5.74338e-07
-4.04051e-08
-5.64214e-07
-4.62885e-08
-5.5292e-07
-5.20437e-08
-5.40492e-07
-5.76364e-08
-5.2697e-07
-6.30324e-08
-5.12401e-07
-6.81982e-08
-4.9684e-07
-7.31009e-08
-4.80344e-07
-7.77086e-08
-4.62978e-07
-8.19909e-08
-4.44811e-07
-8.5919e-08
-4.25917e-07
-8.94659e-08
-4.06376e-07
-9.2607e-08
-3.8627e-07
-9.53201e-08
-3.65685e-07
-9.75857e-08
-3.44711e-07
-9.93874e-08
-3.2344e-07
-1.00712e-07
-3.01967e-07
-1.0155e-07
-2.80385e-07
-1.01894e-07
-2.58793e-07
-1.01743e-07
-2.37285e-07
-1.01097e-07
-2.1596e-07
-9.99615e-08
-1.9491e-07
-9.83457e-08
-1.74229e-07
-9.62621e-08
-1.54007e-07
-9.37272e-08
-1.34332e-07
-9.07609e-08
-1.15286e-07
-8.73866e-08
-9.69492e-08
-8.3631e-08
-7.93945e-08
-7.95236e-08
-6.26903e-08
-7.50966e-08
-4.68985e-08
-7.03844e-08
-3.20746e-08
-6.54233e-08
-1.82669e-08
-6.02514e-08
-5.51665e-09
-5.49077e-08
6.14271e-09
-4.94322e-08
1.66855e-08
-4.38653e-08
2.6094e-08
-3.82473e-08
3.43585e-08
-3.26185e-08
4.14774e-08
-2.70185e-08
4.74574e-08
-2.14863e-08
5.23129e-08
-1.60598e-08
5.60665e-08
-1.07762e-08
5.87484e-08
-5.67125e-09
6.03966e-08
-7.80197e-10
6.10566e-08
3.86255e-09
6.07819e-08
8.22286e-09
5.96329e-08
1.22674e-08
5.7677e-08
1.59622e-08
5.4989e-08
1.92726e-08
5.16509e-08
2.21622e-08
4.7752e-08
2.45935e-08
4.33888e-08
2.65265e-08
3.86648e-08
2.7919e-08
3.36906e-08
2.87268e-08
2.85842e-08
2.89037e-08
2.34706e-08
2.8403e-08
1.84824e-08
2.71793e-08
1.37603e-08
2.51913e-08
9.45472e-09
2.24065e-08
5.72868e-09
1.8806e-08
2.7636e-09
1.43911e-08
7.69074e-10
9.19144e-09
3.27333e-09
5.20434e-11
-1.40567e-09
3.72382e-11
-2.82304e-09
-1.8357e-10
-3.09092e-09
-7.19331e-10
-2.43858e-09
-1.65464e-09
-1.05593e-09
-3.05425e-09
8.9572e-10
-4.96668e-09
3.27944e-09
-7.42721e-09
5.98056e-09
-1.04603e-08
8.90457e-09
-1.40819e-08
1.19749e-08
-1.83008e-08
1.5131e-08
-2.31207e-08
1.83259e-08
-2.85411e-08
2.15245e-08
-3.45587e-08
2.47016e-08
-4.11678e-08
2.78401e-08
-4.83616e-08
3.09293e-08
-5.61326e-08
3.39636e-08
-6.44727e-08
3.69411e-08
-7.33737e-08
3.98625e-08
-8.28273e-08
4.27301e-08
-9.28255e-08
4.55471e-08
-1.0336e-07
4.83167e-08
-1.14422e-07
5.10417e-08
-1.26004e-07
5.37241e-08
-1.38096e-07
5.63647e-08
-1.50687e-07
5.8963e-08
-1.63767e-07
6.15166e-08
-1.77323e-07
6.40218e-08
-1.91342e-07
6.64731e-08
-2.05806e-07
6.88634e-08
-2.20698e-07
7.11839e-08
-2.35998e-07
7.34243e-08
-2.51683e-07
7.5573e-08
-2.67726e-07
7.76171e-08
-2.841e-07
7.95425e-08
-3.00773e-07
8.13343e-08
-3.1771e-07
8.29767e-08
-3.34873e-07
8.44533e-08
-3.52223e-07
8.57472e-08
-3.69714e-07
8.68416e-08
-3.87302e-07
8.7719e-08
-4.04935e-07
8.83627e-08
-4.22562e-07
8.87557e-08
-4.40127e-07
8.8882e-08
-4.57574e-07
8.87257e-08
-4.74843e-07
8.82723e-08
-4.91873e-07
8.7508e-08
-5.086e-07
8.64202e-08
-5.24961e-07
8.49979e-08
-5.40891e-07
8.32313e-08
-5.56324e-07
8.11126e-08
-5.71194e-07
7.86356e-08
-5.85436e-07
7.57962e-08
-5.98983e-07
7.25924e-08
-6.11773e-07
6.90243e-08
-6.23743e-07
6.50944e-08
-6.3483e-07
6.08075e-08
-6.44978e-07
5.61709e-08
-6.54128e-07
5.11943e-08
-6.62229e-07
4.58901e-08
-6.69229e-07
4.0273e-08
-6.75082e-07
3.43605e-08
-6.79747e-07
2.81722e-08
-6.83185e-07
2.17306e-08
-6.85363e-07
1.50601e-08
-6.86253e-07
8.18778e-09
-6.8583e-07
1.1427e-09
-6.84079e-07
-6.04401e-09
-6.80985e-07
-1.33393e-08
-6.76544e-07
-2.07084e-08
-6.70755e-07
-2.81151e-08
-6.63623e-07
-3.55216e-08
-6.55162e-07
-4.28892e-08
-6.45389e-07
-5.01783e-08
-6.34329e-07
-5.73486e-08
-6.22013e-07
-6.43596e-08
-6.08479e-07
-7.11706e-08
-5.9377e-07
-7.77414e-08
-5.77936e-07
-8.4032e-08
-5.61033e-07
-9.00038e-08
-5.43123e-07
-9.56189e-08
-5.24272e-07
-1.00841e-07
-5.04554e-07
-1.05637e-07
-4.84047e-07
-1.09974e-07
-4.62831e-07
-1.13823e-07
-4.40994e-07
-1.17157e-07
-4.18627e-07
-1.19953e-07
-3.95823e-07
-1.22192e-07
-3.72678e-07
-1.23857e-07
-3.49292e-07
-1.24936e-07
-3.25765e-07
-1.25421e-07
-3.02198e-07
-1.25309e-07
-2.78695e-07
-1.246e-07
-2.55356e-07
-1.23301e-07
-2.32282e-07
-1.21419e-07
-2.09573e-07
-1.18971e-07
-1.87325e-07
-1.15975e-07
-1.65632e-07
-1.12454e-07
-1.44585e-07
-1.08434e-07
-1.24267e-07
-1.03948e-07
-1.04761e-07
-9.90297e-08