/*--------------------------------*- C++ -*----------------------------------*\
  =========                 |
  \\      /  F ield         | OpenFOAM: The Open Source CFD Toolbox
   \\    /   O peration     | Website:  https://openfoam.org
    \\  /    A nd           | Version:  12
     \\/     M anipulation  |
\*---------------------------------------------------------------------------*/
FoamFile
{
    format      ascii;
    class       volScalarField;
    location    "2.5";
    object      epsilon;
}
// * * * * * * * * * * * * * * * * * * * * * * * * * * * * * * * * * * * * * //

dimensions      [0 2 -3 0 0 0 0];

internalField   nonuniform List<scalar> 
5625
(
7.67821e-07
1.44991e-06
3.07342e-06
5.0114e-06
7.19433e-06
9.56965e-06
1.2099e-05
1.47526e-05
1.75062e-05
2.03388e-05
2.32313e-05
2.61666e-05
2.91282e-05
3.2101e-05
3.50702e-05
3.80219e-05
4.09426e-05
4.38194e-05
4.664e-05
4.93924e-05
5.20653e-05
5.46477e-05
5.71294e-05
5.95004e-05
6.17514e-05
6.38738e-05
6.58593e-05
6.77004e-05
6.93901e-05
7.09219e-05
7.22903e-05
7.34899e-05
7.45165e-05
7.53661e-05
7.60355e-05
7.65223e-05
7.68247e-05
7.69415e-05
7.68724e-05
7.66175e-05
7.61774e-05
7.55536e-05
7.47485e-05
7.37649e-05
7.26064e-05
7.1277e-05
6.97818e-05
6.8126e-05
6.63158e-05
6.4358e-05
6.22598e-05
6.00293e-05
5.76748e-05
5.52056e-05
5.26312e-05
4.99619e-05
4.72085e-05
4.43823e-05
4.14951e-05
3.85593e-05
3.5588e-05
3.25946e-05
2.95935e-05
2.65995e-05
2.36283e-05
2.06967e-05
1.78225e-05
1.50254e-05
1.23273e-05
9.75329e-06
7.33423e-06
5.1098e-06
3.13414e-06
1.47861e-06
7.82997e-07
5.19085e-06
2.82375e-06
2.74839e-06
3.28287e-06
4.10493e-06
5.09926e-06
6.21042e-06
7.40643e-06
8.66618e-06
9.97421e-06
1.13182e-05
1.26879e-05
1.40742e-05
1.54687e-05
1.6864e-05
1.82529e-05
1.96286e-05
2.09848e-05
2.23155e-05
2.36147e-05
2.4877e-05
2.60971e-05
2.72701e-05
2.83911e-05
2.94558e-05
3.04599e-05
3.13995e-05
3.2271e-05
3.3071e-05
3.37966e-05
3.44448e-05
3.50134e-05
3.55e-05
3.5903e-05
3.62207e-05
3.6452e-05
3.6596e-05
3.66522e-05
3.66203e-05
3.65003e-05
3.62927e-05
3.59981e-05
3.56175e-05
3.51524e-05
3.46044e-05
3.39755e-05
3.32681e-05
3.24846e-05
3.16281e-05
3.07017e-05
2.9709e-05
2.86539e-05
2.75402e-05
2.63726e-05
2.51556e-05
2.38942e-05
2.25937e-05
2.12595e-05
1.98974e-05
1.85137e-05
1.71147e-05
1.57074e-05
1.42989e-05
1.2897e-05
1.15103e-05
1.0148e-05
8.82085e-06
7.54153e-06
6.32596e-06
5.19584e-06
4.18398e-06
3.34712e-06
2.80298e-06
2.88035e-06
5.29459e-06
1.15374e-05
5.65527e-06
4.36179e-06
4.11866e-06
4.31816e-06
4.76175e-06
5.35996e-06
6.06412e-06
6.84423e-06
7.68005e-06
8.55687e-06
9.46337e-06
1.03904e-05
1.133e-05
1.22756e-05
1.32211e-05
1.4161e-05
1.50901e-05
1.60039e-05
1.68977e-05
1.77676e-05
1.86096e-05
1.942e-05
2.01954e-05
2.09325e-05
2.16282e-05
2.22798e-05
2.28847e-05
2.34403e-05
2.39446e-05
2.43955e-05
2.47912e-05
2.51303e-05
2.54114e-05
2.56334e-05
2.57953e-05
2.58967e-05
2.5937e-05
2.59161e-05
2.58339e-05
2.56908e-05
2.54871e-05
2.52237e-05
2.49015e-05
2.45216e-05
2.40856e-05
2.3595e-05
2.30517e-05
2.24578e-05
2.18156e-05
2.11277e-05
2.03969e-05
1.96261e-05
1.88186e-05
1.79778e-05
1.71074e-05
1.62115e-05
1.5294e-05
1.43597e-05
1.34133e-05
1.24599e-05
1.15053e-05
1.05557e-05
9.61795e-06
8.70015e-06
7.81175e-06
6.9644e-06
6.17317e-06
5.45879e-06
4.85193e-06
4.40227e-06
4.20115e-06
4.45112e-06
5.77229e-06
1.17754e-05
1.90685e-05
9.14806e-06
6.63416e-06
5.72052e-06
5.44179e-06
5.49775e-06
5.75941e-06
6.15928e-06
6.65704e-06
7.22626e-06
7.84833e-06
8.50942e-06
9.19871e-06
9.90751e-06
1.06285e-05
1.13555e-05
1.20829e-05
1.28059e-05
1.35199e-05
1.42208e-05
1.4905e-05
1.55689e-05
1.62093e-05
1.68232e-05
1.74077e-05
1.79602e-05
1.84784e-05
1.896e-05
1.94029e-05
1.98053e-05
2.01656e-05
2.04821e-05
2.07537e-05
2.09791e-05
2.11575e-05
2.1288e-05
2.13701e-05
2.14035e-05
2.1388e-05
2.13236e-05
2.12103e-05
2.10487e-05
2.08393e-05
2.0583e-05
2.02806e-05
1.99335e-05
1.95429e-05
1.91105e-05
1.8638e-05
1.81274e-05
1.75809e-05
1.70009e-05
1.639e-05
1.57511e-05
1.50872e-05
1.44016e-05
1.36979e-05
1.298e-05
1.22521e-05
1.15188e-05
1.07852e-05
1.00571e-05
9.3408e-06
8.64398e-06
7.97558e-06
7.34667e-06
6.77139e-06
6.26873e-06
5.86569e-06
5.60345e-06
5.55089e-06
5.83961e-06
6.77607e-06
9.34614e-06
1.94808e-05
2.74322e-05
1.30655e-05
9.26921e-06
7.70287e-06
6.99307e-06
6.72129e-06
6.71265e-06
6.87822e-06
7.16637e-06
7.54394e-06
7.98811e-06
8.48223e-06
9.0136e-06
9.57214e-06
1.01496e-05
1.07391e-05
1.13346e-05
1.19309e-05
1.25236e-05
1.31084e-05
1.36816e-05
1.42399e-05
1.47799e-05
1.5299e-05
1.57944e-05
1.62636e-05
1.67044e-05
1.71147e-05
1.74927e-05
1.78365e-05
1.81446e-05
1.84157e-05
1.86486e-05
1.88421e-05
1.89955e-05
1.91081e-05
1.91792e-05
1.92086e-05
1.9196e-05
1.91416e-05
1.90452e-05
1.89075e-05
1.87288e-05
1.851e-05
1.82518e-05
1.79554e-05
1.76221e-05
1.72532e-05
1.68506e-05
1.6416e-05
1.59515e-05
1.54593e-05
1.4942e-05
1.44024e-05
1.38433e-05
1.32681e-05
1.26803e-05
1.20839e-05
1.14831e-05
1.08828e-05
1.02883e-05
9.70595e-06
9.14278e-06
8.60733e-06
8.1099e-06
7.66357e-06
7.28538e-06
6.99865e-06
6.83715e-06
6.85358e-06
7.13865e-06
7.87095e-06
9.47817e-06
1.33645e-05
2.80603e-05
3.64003e-05
1.72817e-05
1.21414e-05
9.91696e-06
8.79309e-06
8.22116e-06
7.97517e-06
7.94227e-06
8.05807e-06
8.2822e-06
8.58722e-06
8.95349e-06
9.36623e-06
9.81387e-06
1.02871e-05
1.07783e-05
1.12808e-05
1.17892e-05
1.22984e-05
1.28041e-05
1.33024e-05
1.37898e-05
1.42631e-05
1.47194e-05
1.5156e-05
1.55705e-05
1.59606e-05
1.63244e-05
1.666e-05
1.69657e-05
1.724e-05
1.74815e-05
1.76892e-05
1.7862e-05
1.7999e-05
1.80996e-05
1.81633e-05
1.81896e-05
1.81785e-05
1.813e-05
1.8044e-05
1.7921e-05
1.77616e-05
1.75662e-05
1.7336e-05
1.70718e-05
1.6775e-05
1.64469e-05
1.60892e-05
1.57038e-05
1.52926e-05
1.48581e-05
1.44026e-05
1.3929e-05
1.34404e-05
1.294e-05
1.24316e-05
1.19194e-05
1.14078e-05
1.09021e-05
1.0408e-05
9.93252e-06
9.48358e-06
9.07084e-06
8.70618e-06
8.40469e-06
8.1864e-06
8.07922e-06
8.1244e-06
8.38759e-06
8.98411e-06
1.0145e-05
1.24316e-05
1.77027e-05
3.72888e-05
4.58013e-05
2.17094e-05
1.51758e-05
1.22835e-05
1.07519e-05
9.89431e-06
9.42997e-06
9.22003e-06
9.18636e-06
9.28048e-06
9.47016e-06
9.73247e-06
1.00504e-05
1.04109e-05
1.08034e-05
1.12194e-05
1.16517e-05
1.20943e-05
1.25418e-05
1.29895e-05
1.34334e-05
1.38698e-05
1.42954e-05
1.4707e-05
1.51021e-05
1.54781e-05
1.58327e-05
1.6164e-05
1.647e-05
1.67491e-05
1.69997e-05
1.72206e-05
1.74105e-05
1.75685e-05
1.76938e-05
1.77856e-05
1.78435e-05
1.78671e-05
1.78563e-05
1.78111e-05
1.77314e-05
1.76178e-05
1.74707e-05
1.72907e-05
1.70789e-05
1.68362e-05
1.65639e-05
1.62634e-05
1.59364e-05
1.55848e-05
1.52107e-05
1.48165e-05
1.44047e-05
1.39781e-05
1.35401e-05
1.30942e-05
1.26443e-05
1.21947e-05
1.17506e-05
1.13174e-05
1.09016e-05
1.05107e-05
1.01535e-05
9.84073e-06
9.58596e-06
9.40651e-06
9.32573e-06
9.37654e-06
9.60834e-06
1.0101e-05
1.09964e-05
1.2582e-05
1.55615e-05
2.22739e-05
4.69968e-05
5.54955e-05
2.62798e-05
1.83185e-05
1.47504e-05
1.28141e-05
1.16798e-05
1.10094e-05
1.06368e-05
1.04692e-05
1.04496e-05
1.05403e-05
1.07151e-05
1.09546e-05
1.12441e-05
1.15718e-05
1.19283e-05
1.23057e-05
1.26974e-05
1.30976e-05
1.35014e-05
1.39044e-05
1.43026e-05
1.46926e-05
1.50713e-05
1.54358e-05
1.57835e-05
1.61121e-05
1.64195e-05
1.67039e-05
1.69634e-05
1.71966e-05
1.74022e-05
1.75789e-05
1.77258e-05
1.78419e-05
1.79268e-05
1.79798e-05
1.80006e-05
1.7989e-05
1.79452e-05
1.7869e-05
1.7761e-05
1.76217e-05
1.74517e-05
1.7252e-05
1.70236e-05
1.6768e-05
1.64865e-05
1.61809e-05
1.58531e-05
1.55055e-05
1.51403e-05
1.47605e-05
1.4369e-05
1.39691e-05
1.35647e-05
1.31599e-05
1.27595e-05
1.23687e-05
1.19935e-05
1.16411e-05
1.13195e-05
1.10387e-05
1.08106e-05
1.06504e-05
1.05778e-05
1.06198e-05
1.08145e-05
1.12203e-05
1.19318e-05
1.31193e-05
1.51294e-05
1.88139e-05
2.70095e-05
5.70446e-05
6.53641e-05
3.09355e-05
2.15267e-05
1.72787e-05
1.49406e-05
1.35364e-05
1.26692e-05
1.21445e-05
1.18543e-05
1.17329e-05
1.17371e-05
1.18367e-05
1.201e-05
1.22406e-05
1.25153e-05
1.28238e-05
1.31575e-05
1.35091e-05
1.38725e-05
1.42424e-05
1.4614e-05
1.49833e-05
1.53465e-05
1.57003e-05
1.60418e-05
1.63684e-05
1.66775e-05
1.69671e-05
1.72351e-05
1.74799e-05
1.76999e-05
1.78936e-05
1.806e-05
1.8198e-05
1.83068e-05
1.83857e-05
1.84341e-05
1.84518e-05
1.84386e-05
1.83946e-05
1.83198e-05
1.82146e-05
1.80797e-05
1.79158e-05
1.77238e-05
1.75049e-05
1.72604e-05
1.69919e-05
1.67013e-05
1.63905e-05
1.60619e-05
1.57181e-05
1.5362e-05
1.49967e-05
1.46259e-05
1.42535e-05
1.3884e-05
1.35225e-05
1.31747e-05
1.28471e-05
1.25472e-05
1.22842e-05
1.20687e-05
1.19141e-05
1.18374e-05
1.18609e-05
1.20149e-05
1.23437e-05
1.29145e-05
1.38378e-05
1.53128e-05
1.77472e-05
2.21445e-05
3.18503e-05
6.73102e-05
7.53041e-05
3.5627e-05
2.47641e-05
1.98372e-05
1.71015e-05
1.54336e-05
1.4377e-05
1.37088e-05
1.33054e-05
1.30917e-05
1.30188e-05
1.3053e-05
1.31698e-05
1.33509e-05
1.35819e-05
1.38514e-05
1.41501e-05
1.44701e-05
1.48047e-05
1.51484e-05
1.5496e-05
1.58431e-05
1.6186e-05
1.65212e-05
1.68454e-05
1.71561e-05
1.74505e-05
1.77266e-05
1.79822e-05
1.82157e-05
1.84253e-05
1.86098e-05
1.87679e-05
1.88985e-05
1.90009e-05
1.90743e-05
1.91183e-05
1.91325e-05
1.91169e-05
1.90715e-05
1.89963e-05
1.88919e-05
1.87588e-05
1.85979e-05
1.84102e-05
1.81968e-05
1.79592e-05
1.76991e-05
1.74184e-05
1.71192e-05
1.6804e-05
1.64755e-05
1.61367e-05
1.57911e-05
1.54425e-05
1.5095e-05
1.47535e-05
1.44233e-05
1.41106e-05
1.38224e-05
1.3567e-05
1.33541e-05
1.31954e-05
1.31059e-05
1.31042e-05
1.32151e-05
1.34732e-05
1.39285e-05
1.46574e-05
1.57866e-05
1.75451e-05
2.04021e-05
2.55148e-05
3.67434e-05
7.76836e-05
8.52249e-05
4.0311e-05
2.8e-05
2.23995e-05
1.92723e-05
1.73473e-05
1.61085e-05
1.53042e-05
1.47952e-05
1.44971e-05
1.43553e-05
1.43321e-05
1.44001e-05
1.45395e-05
1.47343e-05
1.49722e-05
1.52429e-05
1.5538e-05
1.58503e-05
1.61739e-05
1.65033e-05
1.68339e-05
1.71616e-05
1.74828e-05
1.77942e-05
1.80929e-05
1.83764e-05
1.86422e-05
1.88884e-05
1.91131e-05
1.93146e-05
1.94915e-05
1.96427e-05
1.9767e-05
1.98636e-05
1.99319e-05
1.99713e-05
1.99817e-05
1.99628e-05
1.99147e-05
1.98377e-05
1.97321e-05
1.95987e-05
1.94383e-05
1.92521e-05
1.90411e-05
1.88071e-05
1.85517e-05
1.82769e-05
1.79851e-05
1.76787e-05
1.73607e-05
1.70343e-05
1.67031e-05
1.63712e-05
1.60429e-05
1.57234e-05
1.54185e-05
1.51346e-05
1.48794e-05
1.46617e-05
1.44921e-05
1.43835e-05
1.4352e-05
1.44183e-05
1.46101e-05
1.49657e-05
1.55409e-05
1.64221e-05
1.77518e-05
1.97889e-05
2.30647e-05
2.88901e-05
4.16402e-05
8.80625e-05
9.50476e-05
4.49502e-05
3.12077e-05
2.49437e-05
2.14328e-05
1.92579e-05
1.7844e-05
1.69105e-05
1.63029e-05
1.59274e-05
1.57234e-05
1.56494e-05
1.56756e-05
1.57796e-05
1.59445e-05
1.61568e-05
1.64053e-05
1.66811e-05
1.69765e-05
1.7285e-05
1.76009e-05
1.79193e-05
1.8236e-05
1.8547e-05
1.88491e-05
1.91391e-05
1.94145e-05
1.96727e-05
1.99116e-05
2.01294e-05
2.03244e-05
2.04951e-05
2.06403e-05
2.07589e-05
2.08502e-05
2.09134e-05
2.09481e-05
2.0954e-05
2.09311e-05
2.08793e-05
2.0799e-05
2.06907e-05
2.05551e-05
2.03932e-05
2.02059e-05
1.99948e-05
1.97615e-05
1.95076e-05
1.92355e-05
1.89475e-05
1.86463e-05
1.83349e-05
1.80167e-05
1.76956e-05
1.73757e-05
1.70619e-05
1.67596e-05
1.64748e-05
1.62145e-05
1.59868e-05
1.58014e-05
1.56695e-05
1.56052e-05
1.5626e-05
1.57545e-05
1.60212e-05
1.64685e-05
1.7158e-05
1.81856e-05
1.97101e-05
2.202e-05
2.57081e-05
3.22379e-05
4.64948e-05
9.83505e-05
0.000104704
4.95121e-05
3.43644e-05
2.7451e-05
2.35663e-05
2.11495e-05
1.95676e-05
1.85117e-05
1.78119e-05
1.73651e-05
1.71051e-05
1.69863e-05
1.69762e-05
1.70504e-05
1.71908e-05
1.73826e-05
1.76139e-05
1.7875e-05
1.81578e-05
1.84554e-05
1.87617e-05
1.90716e-05
1.93805e-05
1.96845e-05
1.998e-05
2.02639e-05
2.05334e-05
2.07859e-05
2.10193e-05
2.12316e-05
2.14212e-05
2.15866e-05
2.17265e-05
2.18399e-05
2.19259e-05
2.1984e-05
2.20135e-05
2.20144e-05
2.19867e-05
2.19302e-05
2.18454e-05
2.17329e-05
2.15934e-05
2.1428e-05
2.12377e-05
2.10242e-05
2.0789e-05
2.05342e-05
2.02619e-05
1.99746e-05
1.96753e-05
1.93672e-05
1.90537e-05
1.8739e-05
1.84274e-05
1.81241e-05
1.78347e-05
1.75656e-05
1.73245e-05
1.71198e-05
1.69618e-05
1.68628e-05
1.68379e-05
1.69058e-05
1.70915e-05
1.74279e-05
1.79614e-05
1.87597e-05
1.99279e-05
2.16409e-05
2.42163e-05
2.83073e-05
3.55273e-05
5.12632e-05
0.000108455
0.000114138
5.39698e-05
3.74513e-05
2.99057e-05
2.56588e-05
2.30091e-05
2.12666e-05
2.0095e-05
1.9309e-05
1.87968e-05
1.84862e-05
1.83278e-05
1.82864e-05
1.83357e-05
1.84561e-05
1.86317e-05
1.88499e-05
1.91003e-05
1.93742e-05
1.96643e-05
1.99642e-05
2.02685e-05
2.05725e-05
2.08719e-05
2.11631e-05
2.14428e-05
2.1708e-05
2.19564e-05
2.21855e-05
2.23934e-05
2.25784e-05
2.2739e-05
2.2874e-05
2.29823e-05
2.3063e-05
2.31155e-05
2.31395e-05
2.31347e-05
2.31013e-05
2.3039e-05
2.29485e-05
2.28304e-05
2.26855e-05
2.25149e-05
2.23198e-05
2.21018e-05
2.18626e-05
2.16044e-05
2.13294e-05
2.10404e-05
2.07403e-05
2.04324e-05
2.01206e-05
1.9809e-05
1.95024e-05
1.92061e-05
1.8926e-05
1.86691e-05
1.84431e-05
1.82574e-05
1.81228e-05
1.80523e-05
1.80622e-05
1.81728e-05
1.84108e-05
1.8812e-05
1.94265e-05
2.03278e-05
2.16305e-05
2.35247e-05
2.63566e-05
3.08383e-05
3.87289e-05
5.59032e-05
0.000118287
0.000123303
5.83015e-05
4.0453e-05
3.22956e-05
2.76994e-05
2.48263e-05
2.29309e-05
2.16502e-05
2.07841e-05
2.02118e-05
1.98556e-05
1.96623e-05
1.9594e-05
1.96227e-05
1.9727e-05
1.98902e-05
2.00988e-05
2.03418e-05
2.06098e-05
2.08952e-05
2.11913e-05
2.14925e-05
2.17936e-05
2.20903e-05
2.23789e-05
2.26558e-05
2.29182e-05
2.31634e-05
2.33891e-05
2.35932e-05
2.37741e-05
2.39302e-05
2.40602e-05
2.41632e-05
2.42383e-05
2.4285e-05
2.43027e-05
2.42915e-05
2.42514e-05
2.41823e-05
2.40849e-05
2.39598e-05
2.3808e-05
2.36305e-05
2.34288e-05
2.32045e-05
2.29594e-05
2.26957e-05
2.24158e-05
2.21227e-05
2.18193e-05
2.15092e-05
2.11963e-05
2.08851e-05
2.05805e-05
2.02881e-05
2.00142e-05
1.9766e-05
1.95519e-05
1.93815e-05
1.92665e-05
1.92207e-05
1.92614e-05
1.94103e-05
1.96961e-05
2.01572e-05
2.08473e-05
2.18459e-05
2.32761e-05
2.53433e-05
2.84209e-05
3.32779e-05
4.18138e-05
6.03736e-05
0.00012776
0.000132164
6.24911e-05
4.33583e-05
3.46115e-05
2.96799e-05
2.65935e-05
2.45532e-05
2.317e-05
2.22293e-05
2.16021e-05
2.1205e-05
2.09811e-05
2.08899e-05
2.09016e-05
2.09932e-05
2.11472e-05
2.13492e-05
2.15874e-05
2.18521e-05
2.21351e-05
2.24295e-05
2.27293e-05
2.30292e-05
2.33247e-05
2.36118e-05
2.38871e-05
2.41474e-05
2.43901e-05
2.46127e-05
2.48133e-05
2.49901e-05
2.51416e-05
2.52665e-05
2.53639e-05
2.54328e-05
2.54728e-05
2.54835e-05
2.5465e-05
2.5417e-05
2.534e-05
2.52343e-05
2.5101e-05
2.49408e-05
2.47549e-05
2.4545e-05
2.43125e-05
2.40596e-05
2.37885e-05
2.35018e-05
2.32024e-05
2.28935e-05
2.25789e-05
2.22626e-05
2.19493e-05
2.16442e-05
2.1353e-05
2.10824e-05
2.08399e-05
2.06345e-05
2.04762e-05
2.03773e-05
2.03526e-05
2.04201e-05
2.06033e-05
2.09325e-05
2.14484e-05
2.22088e-05
2.32982e-05
2.48484e-05
2.7079e-05
3.03898e-05
3.56036e-05
4.4754e-05
6.46339e-05
0.000136787
0.000140701
6.6528e-05
4.61598e-05
3.68473e-05
3.1595e-05
2.83056e-05
2.61284e-05
2.46492e-05
2.36396e-05
2.29623e-05
2.25285e-05
2.22778e-05
2.21673e-05
2.21653e-05
2.22472e-05
2.23947e-05
2.25925e-05
2.28281e-05
2.30915e-05
2.3374e-05
2.36682e-05
2.3968e-05
2.42678e-05
2.4563e-05
2.48495e-05
2.51236e-05
2.53823e-05
2.56226e-05
2.58423e-05
2.60392e-05
2.62117e-05
2.63581e-05
2.64773e-05
2.65682e-05
2.66302e-05
2.66626e-05
2.66653e-05
2.66383e-05
2.65813e-05
2.64949e-05
2.63797e-05
2.62366e-05
2.60664e-05
2.58707e-05
2.56508e-05
2.54086e-05
2.51462e-05
2.48658e-05
2.45704e-05
2.42628e-05
2.39464e-05
2.36252e-05
2.33033e-05
2.29857e-05
2.26775e-05
2.23851e-05
2.21152e-05
2.18759e-05
2.16762e-05
2.1527e-05
2.14411e-05
2.14339e-05
2.15246e-05
2.17379e-05
2.21059e-05
2.26718e-05
2.34965e-05
2.46699e-05
2.63317e-05
2.87151e-05
3.22443e-05
3.77934e-05
4.7522e-05
6.86444e-05
0.000145285
0.000148902
7.0408e-05
4.88545e-05
3.90005e-05
3.34424e-05
2.99603e-05
2.76541e-05
2.60852e-05
2.5012e-05
2.42891e-05
2.38226e-05
2.35488e-05
2.3422e-05
2.3409e-05
2.34838e-05
2.3627e-05
2.38226e-05
2.40576e-05
2.43211e-05
2.46044e-05
2.48996e-05
2.52002e-05
2.55007e-05
2.57962e-05
2.60823e-05
2.63554e-05
2.66122e-05
2.685e-05
2.70663e-05
2.7259e-05
2.74264e-05
2.7567e-05
2.76795e-05
2.7763e-05
2.78169e-05
2.78405e-05
2.78338e-05
2.77969e-05
2.77295e-05
2.76323e-05
2.7506e-05
2.73515e-05
2.71699e-05
2.69625e-05
2.67311e-05
2.64774e-05
2.62037e-05
2.59124e-05
2.56064e-05
2.52888e-05
2.49631e-05
2.46333e-05
2.43039e-05
2.39798e-05
2.36666e-05
2.33706e-05
2.30991e-05
2.28604e-05
2.26638e-05
2.25208e-05
2.24447e-05
2.24518e-05
2.25619e-05
2.28013e-05
2.32035e-05
2.38139e-05
2.46968e-05
2.59466e-05
2.77109e-05
3.0235e-05
3.39662e-05
3.98258e-05
5.00904e-05
7.23658e-05
0.000153171
0.000156774
7.41329e-05
5.14436e-05
4.10719e-05
3.52225e-05
3.1558e-05
2.91303e-05
2.74777e-05
2.63459e-05
2.55816e-05
2.50861e-05
2.47922e-05
2.4652e-05
2.46304e-05
2.47003e-05
2.48412e-05
2.50362e-05
2.52718e-05
2.55367e-05
2.58215e-05
2.61184e-05
2.64204e-05
2.67218e-05
2.70175e-05
2.73031e-05
2.75748e-05
2.78294e-05
2.80639e-05
2.8276e-05
2.84635e-05
2.86247e-05
2.87582e-05
2.88627e-05
2.89374e-05
2.89815e-05
2.89948e-05
2.89772e-05
2.89285e-05
2.8849e-05
2.87394e-05
2.86002e-05
2.84326e-05
2.82377e-05
2.8017e-05
2.77722e-05
2.75054e-05
2.72186e-05
2.69147e-05
2.65964e-05
2.6267e-05
2.59302e-05
2.559e-05
2.52511e-05
2.49187e-05
2.45984e-05
2.42968e-05
2.40215e-05
2.37809e-05
2.3585e-05
2.34454e-05
2.33762e-05
2.3394e-05
2.352e-05
2.37812e-05
2.42128e-05
2.48622e-05
2.57966e-05
2.71148e-05
2.89712e-05
3.16226e-05
3.55372e-05
4.16794e-05
5.24326e-05
7.57594e-05
0.000160363
0.000164332
7.7711e-05
5.39328e-05
4.30661e-05
3.69391e-05
3.31016e-05
3.05595e-05
2.88289e-05
2.7643e-05
2.68412e-05
2.632e-05
2.60088e-05
2.58577e-05
2.58296e-05
2.58962e-05
2.60363e-05
2.6232e-05
2.64692e-05
2.67361e-05
2.70231e-05
2.73219e-05
2.76253e-05
2.79274e-05
2.82229e-05
2.85074e-05
2.8777e-05
2.90283e-05
2.92584e-05
2.94649e-05
2.96458e-05
2.97993e-05
2.99239e-05
3.00186e-05
3.00826e-05
3.01152e-05
3.01161e-05
3.00855e-05
3.00231e-05
2.99295e-05
2.98053e-05
2.96512e-05
2.94685e-05
2.92584e-05
2.90225e-05
2.87625e-05
2.84805e-05
2.8179e-05
2.78605e-05
2.75281e-05
2.71852e-05
2.68355e-05
2.64832e-05
2.61331e-05
2.57904e-05
2.54612e-05
2.5152e-05
2.48707e-05
2.46261e-05
2.44283e-05
2.42896e-05
2.42241e-05
2.42495e-05
2.43875e-05
2.46663e-05
2.51222e-05
2.58046e-05
2.67833e-05
2.81612e-05
3.00984e-05
3.28623e-05
3.69397e-05
4.33334e-05
5.45222e-05
7.87871e-05
0.00016678
0.000171609
8.11571e-05
5.63324e-05
4.4991e-05
3.85989e-05
3.45969e-05
3.19469e-05
3.01433e-05
2.89075e-05
2.80716e-05
2.75274e-05
2.72015e-05
2.70414e-05
2.70086e-05
2.70736e-05
2.72139e-05
2.74112e-05
2.76506e-05
2.79201e-05
2.82094e-05
2.85099e-05
2.88143e-05
2.91165e-05
2.9411e-05
2.96933e-05
2.99595e-05
3.0206e-05
3.04301e-05
3.06293e-05
3.08015e-05
3.09451e-05
3.10588e-05
3.11414e-05
3.11923e-05
3.12109e-05
3.11971e-05
3.1151e-05
3.10725e-05
3.09623e-05
3.08211e-05
3.06498e-05
3.04497e-05
3.02221e-05
2.99687e-05
2.96914e-05
2.93924e-05
2.9074e-05
2.87391e-05
2.83908e-05
2.80326e-05
2.76682e-05
2.7302e-05
2.69389e-05
2.65843e-05
2.62442e-05
2.59255e-05
2.56362e-05
2.53853e-05
2.51833e-05
2.50427e-05
2.49781e-05
2.50077e-05
2.51538e-05
2.54457e-05
2.59206e-05
2.66298e-05
2.76451e-05
2.9073e-05
3.10789e-05
3.39391e-05
3.81565e-05
4.47676e-05
5.63335e-05
8.14114e-05
0.000172342
0.00017865
8.44929e-05
5.86572e-05
4.68583e-05
4.02116e-05
3.60525e-05
3.33001e-05
3.14278e-05
3.01455e-05
2.92785e-05
2.87139e-05
2.83753e-05
2.82081e-05
2.81721e-05
2.82365e-05
2.8378e-05
2.85775e-05
2.88195e-05
2.90915e-05
2.93828e-05
2.96847e-05
2.99894e-05
3.02907e-05
3.0583e-05
3.08616e-05
3.11225e-05
3.13624e-05
3.15782e-05
3.17677e-05
3.19288e-05
3.206e-05
3.21598e-05
3.22275e-05
3.22624e-05
3.22641e-05
3.22327e-05
3.21679e-05
3.20704e-05
3.19407e-05
3.17798e-05
3.15885e-05
3.13684e-05
3.11207e-05
3.08474e-05
3.05504e-05
3.0232e-05
2.98946e-05
2.95413e-05
2.91751e-05
2.87995e-05
2.84186e-05
2.80368e-05
2.76589e-05
2.72904e-05
2.69377e-05
2.66076e-05
2.63083e-05
2.60489e-05
2.58403e-05
2.56951e-05
2.56284e-05
2.56587e-05
2.5809e-05
2.61092e-05
2.65976e-05
2.73267e-05
2.83705e-05
2.98381e-05
3.18995e-05
3.48383e-05
3.91712e-05
4.59622e-05
5.78416e-05
8.35963e-05
0.000176974
0.000185516
8.77465e-05
6.09265e-05
4.86833e-05
4.17901e-05
3.74796e-05
3.46291e-05
3.26916e-05
3.13657e-05
3.04699e-05
2.98871e-05
2.95375e-05
2.93646e-05
2.93265e-05
2.93913e-05
2.95347e-05
2.97368e-05
2.99816e-05
3.02559e-05
3.05489e-05
3.08512e-05
3.11552e-05
3.14541e-05
3.17425e-05
3.20155e-05
3.2269e-05
3.24997e-05
3.27046e-05
3.28815e-05
3.30284e-05
3.31438e-05
3.32266e-05
3.32759e-05
3.32912e-05
3.32726e-05
3.32198e-05
3.3133e-05
3.3013e-05
3.28604e-05
3.26763e-05
3.24619e-05
3.22185e-05
3.19478e-05
3.16517e-05
3.13323e-05
3.09919e-05
3.06331e-05
3.0259e-05
2.98727e-05
2.94778e-05
2.90784e-05
2.86789e-05
2.82843e-05
2.79002e-05
2.75329e-05
2.71895e-05
2.68781e-05
2.66081e-05
2.63904e-05
2.62379e-05
2.6166e-05
2.61936e-05
2.63438e-05
2.66474e-05
2.71434e-05
2.78854e-05
2.89489e-05
3.04451e-05
3.25478e-05
3.55463e-05
3.99679e-05
4.68987e-05
5.90227e-05
8.5307e-05
0.000180601
0.000192278
9.09522e-05
6.3164e-05
5.04846e-05
4.33501e-05
3.8892e-05
3.59464e-05
3.39461e-05
3.25789e-05
3.16562e-05
3.10567e-05
3.06976e-05
3.05202e-05
3.04811e-05
3.05471e-05
3.06928e-05
3.08978e-05
3.11453e-05
3.14216e-05
3.17154e-05
3.20172e-05
3.2319e-05
3.26139e-05
3.28963e-05
3.31612e-05
3.34047e-05
3.36232e-05
3.38139e-05
3.39747e-05
3.41037e-05
3.41995e-05
3.42612e-05
3.4288e-05
3.42797e-05
3.42364e-05
3.4158e-05
3.40451e-05
3.38985e-05
3.3719e-05
3.35079e-05
3.32664e-05
3.29962e-05
3.2699e-05
3.23768e-05
3.20318e-05
3.16665e-05
3.12836e-05
3.0886e-05
3.04771e-05
3.00606e-05
2.96404e-05
2.92212e-05
2.88079e-05
2.84062e-05
2.80223e-05
2.76634e-05
2.73378e-05
2.70549e-05
2.68257e-05
2.66631e-05
2.65829e-05
2.66039e-05
2.67498e-05
2.70517e-05
2.75492e-05
2.82965e-05
2.93703e-05
3.08835e-05
3.30123e-05
3.60502e-05
4.05321e-05
4.75595e-05
5.98546e-05
8.65112e-05
0.000183154
0.000199023
9.41505e-05
6.53977e-05
5.22842e-05
4.49101e-05
4.03059e-05
3.72665e-05
3.5205e-05
3.37976e-05
3.28494e-05
3.22344e-05
3.18671e-05
3.16863e-05
3.1647e-05
3.17149e-05
3.18635e-05
3.20715e-05
3.23215e-05
3.25993e-05
3.28932e-05
3.31932e-05
3.34912e-05
3.378e-05
3.40539e-05
3.4308e-05
3.45381e-05
3.47409e-05
3.49136e-05
3.50542e-05
3.51609e-05
3.52326e-05
3.52684e-05
3.52679e-05
3.52313e-05
3.51582e-05
3.50494e-05
3.49055e-05
3.47275e-05
3.45164e-05
3.42737e-05
3.40009e-05
3.36996e-05
3.33719e-05
3.30198e-05
3.26456e-05
3.2252e-05
3.18416e-05
3.14176e-05
3.09834e-05
3.05425e-05
3.00992e-05
2.96579e-05
2.92236e-05
2.8802e-05
2.83994e-05
2.8023e-05
2.76809e-05
2.73827e-05
2.71393e-05
2.69638e-05
2.68718e-05
2.68826e-05
2.70196e-05
2.73144e-05
2.78068e-05
2.85516e-05
2.96259e-05
3.11438e-05
3.32826e-05
3.63385e-05
4.08505e-05
4.79289e-05
6.03171e-05
8.71794e-05
0.000184572
0.000205848
9.73873e-05
6.76589e-05
5.41068e-05
4.64909e-05
4.17396e-05
3.86063e-05
3.64836e-05
3.50367e-05
3.40637e-05
3.34342e-05
3.30595e-05
3.28763e-05
3.28378e-05
3.29083e-05
3.30603e-05
3.32715e-05
3.35239e-05
3.38028e-05
3.40957e-05
3.43926e-05
3.46849e-05
3.49653e-05
3.52279e-05
3.54678e-05
3.56809e-05
3.58639e-05
3.60141e-05
3.61297e-05
3.6209e-05
3.62513e-05
3.62558e-05
3.62227e-05
3.61516e-05
3.60433e-05
3.58984e-05
3.57179e-05
3.5503e-05
3.5255e-05
3.49755e-05
3.46663e-05
3.43291e-05
3.39662e-05
3.35798e-05
3.31723e-05
3.27464e-05
3.2305e-05
3.18511e-05
3.13883e-05
3.09201e-05
3.04507e-05
2.99847e-05
2.95269e-05
2.90831e-05
2.86594e-05
2.8263e-05
2.7902e-05
2.75859e-05
2.73255e-05
2.7134e-05
2.70269e-05
2.70234e-05
2.71469e-05
2.74289e-05
2.79096e-05
2.86436e-05
2.97082e-05
3.12176e-05
3.33498e-05
3.64011e-05
4.09116e-05
4.79932e-05
6.03927e-05
8.72864e-05
0.000184799
0.00021286
0.000100713
6.99824e-05
5.59797e-05
4.81156e-05
4.32134e-05
3.9984e-05
3.77992e-05
3.63124e-05
3.53149e-05
3.46716e-05
3.42904e-05
3.41058e-05
3.40692e-05
3.41433e-05
3.42994e-05
3.45143e-05
3.47691e-05
3.50485e-05
3.53396e-05
3.56318e-05
3.59163e-05
3.61857e-05
3.64338e-05
3.66558e-05
3.68476e-05
3.7006e-05
3.71286e-05
3.72136e-05
3.72598e-05
3.72666e-05
3.72337e-05
3.71612e-05
3.70495e-05
3.68994e-05
3.6712e-05
3.64885e-05
3.62304e-05
3.59394e-05
3.56172e-05
3.52657e-05
3.48872e-05
3.44839e-05
3.40582e-05
3.36126e-05
3.315e-05
3.26733e-05
3.21856e-05
3.16905e-05
3.11916e-05
3.0693e-05
3.01991e-05
2.9715e-05
2.92461e-05
2.87987e-05
2.83797e-05
2.79971e-05
2.76602e-05
2.738e-05
2.71692e-05
2.70433e-05
2.70215e-05
2.71271e-05
2.7391e-05
2.78534e-05
2.85684e-05
2.96131e-05
3.1101e-05
3.32092e-05
3.62328e-05
4.0709e-05
4.7744e-05
6.00704e-05
8.68153e-05
0.000183802
0.000220176
0.000104183
7.24056e-05
5.79323e-05
4.98087e-05
4.4749e-05
4.14195e-05
3.91701e-05
3.76425e-05
3.66204e-05
3.59638e-05
3.55773e-05
3.53926e-05
3.53591e-05
3.54381e-05
3.55994e-05
3.58187e-05
3.60762e-05
3.63558e-05
3.66442e-05
3.69301e-05
3.72046e-05
3.74599e-05
3.76899e-05
3.78897e-05
3.80553e-05
3.81837e-05
3.82727e-05
3.83209e-05
3.83273e-05
3.82917e-05
3.82141e-05
3.8095e-05
3.79354e-05
3.77362e-05
3.7499e-05
3.72254e-05
3.69171e-05
3.65761e-05
3.62044e-05
3.58044e-05
3.53784e-05
3.49287e-05
3.44581e-05
3.39692e-05
3.34648e-05
3.29481e-05
3.24222e-05
3.18906e-05
3.1357e-05
3.08255e-05
3.03004e-05
2.97867e-05
2.92896e-05
2.88155e-05
2.83712e-05
2.79646e-05
2.76047e-05
2.7302e-05
2.70691e-05
2.69211e-05
2.68768e-05
2.6959e-05
2.71983e-05
2.76345e-05
2.83211e-05
2.93343e-05
3.07863e-05
3.28522e-05
3.58235e-05
4.02312e-05
4.71681e-05
5.93335e-05
8.5742e-05
0.000181527
0.000227916
0.000107853
7.49676e-05
5.99952e-05
5.15962e-05
4.63691e-05
4.29334e-05
4.06161e-05
3.9046e-05
3.79989e-05
3.73297e-05
3.69391e-05
3.67561e-05
3.67277e-05
3.68134e-05
3.69814e-05
3.72062e-05
3.7467e-05
3.77468e-05
3.80315e-05
3.83095e-05
3.85713e-05
3.88092e-05
3.9017e-05
3.91896e-05
3.93234e-05
3.94156e-05
3.94642e-05
3.94683e-05
3.94273e-05
3.93414e-05
3.9211e-05
3.90372e-05
3.88213e-05
3.85649e-05
3.82698e-05
3.7938e-05
3.75717e-05
3.71732e-05
3.67448e-05
3.62891e-05
3.58088e-05
3.53063e-05
3.47846e-05
3.42464e-05
3.36948e-05
3.31328e-05
3.25637e-05
3.19911e-05
3.14184e-05
3.08499e-05
3.029e-05
2.97435e-05
2.92155e-05
2.87118e-05
2.8239e-05
2.78045e-05
2.74174e-05
2.70878e-05
2.68282e-05
2.66533e-05
2.65813e-05
2.6635e-05
2.68438e-05
2.72467e-05
2.78964e-05
2.88674e-05
3.02699e-05
3.22755e-05
3.51704e-05
3.94753e-05
4.6262e-05
5.81772e-05
8.40591e-05
0.000177958
0.000236207
0.000111782
7.77084e-05
6.21996e-05
5.35041e-05
4.80969e-05
4.45471e-05
4.21573e-05
4.05426e-05
3.94702e-05
3.87894e-05
3.83967e-05
3.82177e-05
3.8197e-05
3.8292e-05
3.84689e-05
3.87009e-05
3.89658e-05
3.92458e-05
3.95259e-05
3.97941e-05
4.00404e-05
4.0257e-05
4.04375e-05
4.05773e-05
4.06727e-05
4.07213e-05
4.07218e-05
4.06734e-05
4.05763e-05
4.04311e-05
4.02389e-05
4.00012e-05
3.97199e-05
3.93971e-05
3.90352e-05
3.86365e-05
3.82037e-05
3.77394e-05
3.72464e-05
3.67274e-05
3.61854e-05
3.56232e-05
3.50437e-05
3.445e-05
3.38451e-05
3.32323e-05
3.26147e-05
3.1996e-05
3.138e-05
3.07704e-05
3.01714e-05
2.95874e-05
2.90236e-05
2.84858e-05
2.79803e-05
2.75145e-05
2.70969e-05
2.67373e-05
2.64476e-05
2.62421e-05
2.61383e-05
2.61584e-05
2.63307e-05
2.66932e-05
2.72971e-05
2.82149e-05
2.95539e-05
3.14811e-05
3.42752e-05
3.84428e-05
4.50272e-05
5.66032e-05
8.1769e-05
0.0001731
0.000245172
0.000116029
8.06679e-05
6.45767e-05
5.55587e-05
4.99554e-05
4.62818e-05
4.38142e-05
4.21525e-05
4.10548e-05
4.0364e-05
3.99718e-05
3.98004e-05
3.9791e-05
3.98985e-05
4.00873e-05
4.03286e-05
4.0599e-05
4.08793e-05
4.11538e-05
4.14098e-05
4.1637e-05
4.18275e-05
4.19749e-05
4.20748e-05
4.21238e-05
4.21205e-05
4.20636e-05
4.19532e-05
4.179e-05
4.15753e-05
4.1311e-05
4.09992e-05
4.06424e-05
4.02433e-05
3.98048e-05
3.93298e-05
3.88214e-05
3.82827e-05
3.77167e-05
3.71265e-05
3.65152e-05
3.5886e-05
3.5242e-05
3.45862e-05
3.39219e-05
3.32522e-05
3.25808e-05
3.19109e-05
3.12459e-05
3.05898e-05
2.99467e-05
2.93211e-05
2.87178e-05
2.81423e-05
2.76007e-05
2.71e-05
2.66483e-05
2.62549e-05
2.59312e-05
2.56909e-05
2.55507e-05
2.5532e-05
2.56618e-05
2.59767e-05
2.65263e-05
2.73802e-05
2.86421e-05
3.04732e-05
3.31425e-05
3.71392e-05
4.34699e-05
5.46195e-05
7.88827e-05
0.000166977
0.000254934
0.000120652
8.38848e-05
6.71565e-05
5.7785e-05
5.19669e-05
4.81585e-05
4.56069e-05
4.38961e-05
4.27737e-05
4.20754e-05
4.16877e-05
4.15285e-05
4.15349e-05
4.16594e-05
4.18638e-05
4.21171e-05
4.23942e-05
4.26748e-05
4.29421e-05
4.31828e-05
4.33863e-05
4.35446e-05
4.36516e-05
4.37028e-05
4.36964e-05
4.36307e-05
4.35056e-05
4.33218e-05
4.3081e-05
4.27854e-05
4.24374e-05
4.20401e-05
4.15968e-05
4.11107e-05
4.05853e-05
4.00242e-05
3.94308e-05
3.88086e-05
3.81611e-05
3.74916e-05
3.68035e-05
3.61001e-05
3.53846e-05
3.46603e-05
3.39304e-05
3.31983e-05
3.24671e-05
3.17403e-05
3.10215e-05
3.03144e-05
2.96229e-05
2.89514e-05
2.83045e-05
2.76873e-05
2.71057e-05
2.65663e-05
2.60766e-05
2.56456e-05
2.5284e-05
2.50046e-05
2.48236e-05
2.47609e-05
2.48426e-05
2.51032e-05
2.55901e-05
2.637e-05
2.75418e-05
2.92599e-05
3.17816e-05
3.5575e-05
4.16029e-05
5.22419e-05
7.54233e-05
0.000159637
0.000265606
0.000125702
8.7395e-05
6.99666e-05
6.02063e-05
5.41522e-05
5.01967e-05
4.75551e-05
4.57935e-05
4.4648e-05
4.3946e-05
4.35682e-05
4.3427e-05
4.34553e-05
4.36022e-05
4.38263e-05
4.40945e-05
4.43796e-05
4.46598e-05
4.49173e-05
4.51382e-05
4.53117e-05
4.54297e-05
4.54862e-05
4.54789e-05
4.54051e-05
4.52647e-05
4.50584e-05
4.47881e-05
4.44565e-05
4.40666e-05
4.36222e-05
4.3127e-05
4.25851e-05
4.20006e-05
4.13776e-05
4.07202e-05
4.00323e-05
3.93178e-05
3.85805e-05
3.7824e-05
3.70519e-05
3.62675e-05
3.54743e-05
3.46755e-05
3.38745e-05
3.30744e-05
3.22785e-05
3.14903e-05
3.07131e-05
2.99505e-05
2.92065e-05
2.84849e-05
2.77904e-05
2.71277e-05
2.65023e-05
2.59204e-05
2.53891e-05
2.49168e-05
2.45134e-05
2.41911e-05
2.39649e-05
2.38536e-05
2.38817e-05
2.40817e-05
2.44984e-05
2.51948e-05
2.62646e-05
2.78541e-05