/*--------------------------------*- C++ -*----------------------------------*\
  =========                 |
  \\      /  F ield         | OpenFOAM: The Open Source CFD Toolbox
   \\    /   O peration     | Website:  https://openfoam.org
    \\  /    A nd           | Version:  12
     \\/     M anipulation  |
\*---------------------------------------------------------------------------*/
FoamFile
{
    format      ascii;
    class       volScalarField;
    location    "2.5";
    object      nut;
}
// * * * * * * * * * * * * * * * * * * * * * * * * * * * * * * * * * * * * * //

dimensions      [0 2 -1 0 0 0 0];

internalField   nonuniform List<scalar> 
5625
(
1.34216e-14
4.05513e-13
8.59583e-13
1.4016e-12
2.01213e-12
2.67648e-12
3.38389e-12
4.12608e-12
4.89624e-12
5.68849e-12
6.49753e-12
7.31852e-12
8.14691e-12
8.97842e-12
9.80894e-12
1.06346e-11
1.14516e-11
1.22563e-11
1.30453e-11
1.38153e-11
1.4563e-11
1.52854e-11
1.59797e-11
1.6643e-11
1.72728e-11
1.78666e-11
1.84222e-11
1.89373e-11
1.94101e-11
1.98388e-11
2.02218e-11
2.05575e-11
2.08449e-11
2.10827e-11
2.12702e-11
2.14065e-11
2.14913e-11
2.15242e-11
2.1505e-11
2.14339e-11
2.13109e-11
2.11366e-11
2.09115e-11
2.06365e-11
2.03125e-11
1.99408e-11
1.95226e-11
1.90595e-11
1.85531e-11
1.80055e-11
1.74186e-11
1.67946e-11
1.6136e-11
1.54453e-11
1.47251e-11
1.39783e-11
1.3208e-11
1.24173e-11
1.16096e-11
1.07883e-11
9.95695e-12
9.11949e-12
8.27983e-12
7.44216e-12
6.61088e-12
5.79066e-12
4.98652e-12
4.20394e-12
3.44902e-12
2.72886e-12
2.05203e-12
1.42966e-12
8.76896e-13
4.13699e-13
1.36921e-14
9.07367e-14
1.3215e-11
7.05332e-11
1.64933e-10
2.77354e-10
3.98847e-10
5.26207e-10
6.58063e-10
7.93551e-10
9.31945e-10
1.07256e-09
1.21471e-09
1.35775e-09
1.50102e-09
1.64389e-09
1.78574e-09
1.92595e-09
2.06394e-09
2.19915e-09
2.33101e-09
2.459e-09
2.58261e-09
2.70136e-09
2.81477e-09
2.92243e-09
3.0239e-09
3.11882e-09
3.20681e-09
3.28756e-09
3.36075e-09
3.42612e-09
3.48343e-09
3.53246e-09
3.57304e-09
3.60501e-09
3.62826e-09
3.64269e-09
3.64826e-09
3.64493e-09
3.63271e-09
3.61166e-09
3.58183e-09
3.54335e-09
3.49635e-09
3.441e-09
3.37749e-09
3.30605e-09
3.22694e-09
3.14046e-09
3.04691e-09
2.94663e-09
2.84002e-09
2.72745e-09
2.60936e-09
2.48621e-09
2.35846e-09
2.22661e-09
2.0912e-09
1.95275e-09
1.81186e-09
1.66909e-09
1.52507e-09
1.38041e-09
1.23577e-09
1.09181e-09
9.49212e-10
8.08674e-10
6.70914e-10
5.36692e-10
4.06917e-10
2.83021e-10
1.68314e-10
7.19749e-11
1.3484e-11
9.25854e-14
2.01674e-13
3.30895e-11
2.25798e-10
6.74416e-10
1.36209e-09
2.21771e-09
3.17738e-09
4.19992e-09
5.26134e-09
6.34749e-09
7.4492e-09
8.55977e-09
9.6737e-09
1.07861e-08
1.18924e-08
1.29882e-08
1.40692e-08
1.51313e-08
1.61703e-08
1.71823e-08
1.81635e-08
1.91102e-08
2.00188e-08
2.0886e-08
2.17086e-08
2.24834e-08
2.32078e-08
2.38789e-08
2.44945e-08
2.50523e-08
2.55502e-08
2.59865e-08
2.63596e-08
2.66683e-08
2.69113e-08
2.70879e-08
2.71974e-08
2.72394e-08
2.72138e-08
2.71206e-08
2.69601e-08
2.6733e-08
2.64399e-08
2.60819e-08
2.56603e-08
2.51766e-08
2.46323e-08
2.40295e-08
2.33702e-08
2.26568e-08
2.18918e-08
2.10779e-08
2.0218e-08
1.93152e-08
1.83728e-08
1.73942e-08
1.63829e-08
1.53428e-08
1.42776e-08
1.31914e-08
1.20882e-08
1.09724e-08
9.84836e-09
8.72071e-09
7.59446e-09
6.47528e-09
5.37013e-09
4.28858e-09
3.2454e-09
2.26548e-09
1.39139e-09
6.88804e-10
2.30566e-10
3.37845e-11
2.05915e-13
3.33319e-13
5.60616e-11
4.08577e-10
1.34186e-09
2.99778e-09
5.34388e-09
8.24756e-09
1.15572e-08
1.51444e-08
1.89133e-08
2.2796e-08
2.67444e-08
3.07232e-08
3.47051e-08
3.86679e-08
4.25925e-08
4.64617e-08
5.02599e-08
5.39723e-08
5.75848e-08
6.1084e-08
6.44572e-08
6.76921e-08
7.0777e-08
7.3701e-08
7.64537e-08
7.90252e-08
8.14067e-08
8.35898e-08
8.55669e-08
8.73311e-08
8.88763e-08
9.01974e-08
9.12897e-08
9.21495e-08
9.2774e-08
9.3161e-08
9.33093e-08
9.32187e-08
9.28892e-08
9.23216e-08
9.15182e-08
9.04815e-08
8.92152e-08
8.77235e-08
8.60113e-08
8.40845e-08
8.19495e-08
7.96133e-08
7.7084e-08
7.43699e-08
7.14802e-08
6.84248e-08
6.52139e-08
6.18586e-08
5.83704e-08
5.47616e-08
5.10449e-08
4.72337e-08
4.33426e-08
3.93867e-08
3.53832e-08
3.13511e-08
2.73131e-08
2.32973e-08
1.93405e-08
1.54932e-08
1.18265e-08
8.44033e-09
5.46803e-09
3.06647e-09
1.37207e-09
4.17637e-10
5.72958e-11
3.40658e-13
4.79513e-13
8.13349e-11
6.07051e-10
2.07296e-09
4.86246e-09
9.12834e-09
1.4803e-08
2.16817e-08
2.95109e-08
3.80468e-08
4.70813e-08
5.64471e-08
6.60126e-08
7.56751e-08
8.53525e-08
9.49777e-08
1.04495e-07
1.13854e-07
1.23013e-07
1.31932e-07
1.40574e-07
1.48905e-07
1.56895e-07
1.64514e-07
1.71734e-07
1.7853e-07
1.84877e-07
1.90754e-07
1.96141e-07
2.01018e-07
2.05371e-07
2.09183e-07
2.12442e-07
2.15137e-07
2.17261e-07
2.18804e-07
2.19764e-07
2.20136e-07
2.19921e-07
2.19118e-07
2.17729e-07
2.1576e-07
2.13217e-07
2.10108e-07
2.06444e-07
2.02236e-07
1.97497e-07
1.92244e-07
1.86493e-07
1.80263e-07
1.73575e-07
1.66449e-07
1.5891e-07
1.50984e-07
1.42697e-07
1.34079e-07
1.25161e-07
1.15978e-07
1.06567e-07
9.69707e-08
8.72377e-08
7.74248e-08
6.76007e-08
5.78505e-08
4.82825e-08
3.90347e-08
3.02836e-08
2.22486e-08
1.51857e-08
9.35972e-09
4.98262e-09
2.12285e-09
6.21364e-10
8.32328e-11
4.90686e-13
6.3627e-13
1.08329e-10
8.17234e-10
2.84254e-09
6.83521e-09
1.32069e-08
2.20743e-08
3.33017e-08
4.65918e-08
6.15753e-08
7.78774e-08
9.51548e-08
1.1311e-07
1.31492e-07
1.50093e-07
1.6874e-07
1.87287e-07
2.05609e-07
2.23601e-07
2.41166e-07
2.5822e-07
2.74688e-07
2.905e-07
3.05592e-07
3.19906e-07
3.33386e-07
3.45985e-07
3.57656e-07
3.68357e-07
3.78052e-07
3.86707e-07
3.94293e-07
4.00784e-07
4.0616e-07
4.10401e-07
4.13495e-07
4.15431e-07
4.16203e-07
4.15811e-07
4.14255e-07
4.11537e-07
4.07668e-07
4.0266e-07
3.9653e-07
3.89297e-07
3.80983e-07
3.71616e-07
3.61226e-07
3.49846e-07
3.37513e-07
3.24268e-07
3.10156e-07
2.95226e-07
2.7953e-07
2.63129e-07
2.46086e-07
2.28473e-07
2.10371e-07
1.91874e-07
1.73087e-07
1.54137e-07
1.35174e-07
1.16377e-07
9.7968e-08
8.02126e-08
6.343e-08
4.79876e-08
3.42841e-08
2.27094e-08
1.35748e-08
7.01881e-09
2.9163e-09
8.37878e-10
1.11027e-10
6.52063e-13
8.00589e-13
1.36571e-10
1.03604e-09
3.63896e-09
8.87061e-09
1.74275e-08
2.96716e-08
4.56277e-08
6.50509e-08
8.75231e-08
1.12541e-07
1.39587e-07
1.68169e-07
1.97841e-07
2.28213e-07
2.58946e-07
2.89748e-07
3.20365e-07
3.5058e-07
3.80199e-07
4.09053e-07
4.3699e-07
4.63875e-07
4.89584e-07
5.14005e-07
5.37039e-07
5.58591e-07
5.7858e-07
5.96929e-07
6.13571e-07
6.28446e-07
6.415e-07
6.52689e-07
6.61972e-07
6.69319e-07
6.74704e-07
6.7811e-07
6.79523e-07
6.78942e-07
6.7637e-07
6.71804e-07
6.65265e-07
6.56774e-07
6.46357e-07
6.34049e-07
6.19888e-07
6.0392e-07
5.86199e-07
5.66782e-07
5.45737e-07
5.23137e-07
4.99065e-07
4.73612e-07
4.46881e-07
4.18986e-07
3.90053e-07
3.60227e-07
3.29674e-07
2.98587e-07
2.67188e-07
2.35741e-07
2.04554e-07
1.73992e-07
1.44478e-07
1.16493e-07
9.0572e-08
6.72762e-08
4.71449e-08
3.06221e-08
1.79618e-08
9.13034e-09
3.74106e-09
1.06417e-09
1.40212e-10
8.21826e-13
9.70028e-13
1.6566e-10
1.26072e-09
4.45316e-09
1.09431e-08
2.17173e-08
3.74061e-08
5.82423e-08
8.41005e-08
1.14584e-07
1.49124e-07
1.87064e-07
2.27733e-07
2.70481e-07
3.14708e-07
3.59872e-07
4.0549e-07
4.51135e-07
4.96431e-07
5.41045e-07
5.84681e-07
6.27076e-07
6.67993e-07
7.07222e-07
7.4457e-07
7.79865e-07
8.12952e-07
8.43689e-07
8.71951e-07
8.97625e-07
9.2061e-07
9.4082e-07
9.58177e-07
9.72618e-07
9.8409e-07
9.9255e-07
9.97967e-07
1.00032e-06
9.99604e-07
9.95821e-07
9.88965e-07
9.79067e-07
9.66158e-07
9.50279e-07
9.31483e-07
9.09831e-07
8.85397e-07
8.58264e-07
8.28529e-07
7.96302e-07
7.61703e-07
7.24873e-07
6.85967e-07
6.4516e-07
6.02653e-07
5.58673e-07
5.13479e-07
4.67368e-07
4.20685e-07
3.73824e-07
3.27241e-07
2.81459e-07
2.37074e-07
1.94746e-07
1.55195e-07
1.19161e-07
8.73621e-08
6.04137e-08
3.87354e-08
2.24488e-08
1.1292e-08
4.58823e-09
1.29751e-09
1.70388e-10
9.9753e-13
1.14251e-12
1.95249e-10
1.4888e-09
5.27704e-09
1.30328e-08
2.60301e-08
4.51714e-08
7.09158e-08
1.03293e-07
1.41975e-07
1.86375e-07
2.35751e-07
2.89276e-07
3.46117e-07
4.05464e-07
4.6656e-07
5.2871e-07
5.91286e-07
6.5372e-07
7.15506e-07
7.76187e-07
8.35357e-07
8.92649e-07
9.47732e-07
1.00031e-06
1.05011e-06
1.0969e-06
1.14045e-06
1.18057e-06
1.21709e-06
1.24986e-06
1.27872e-06
1.30358e-06
1.32433e-06
1.34088e-06
1.35316e-06
1.36114e-06
1.36477e-06
1.36405e-06
1.35897e-06
1.34951e-06
1.33572e-06
1.31765e-06
1.29535e-06
1.2689e-06
1.23839e-06
1.20392e-06
1.16563e-06
1.12365e-06
1.07817e-06
1.02936e-06
9.77441e-07
9.22664e-07
8.65304e-07
8.05679e-07
7.4415e-07
6.8113e-07
6.17091e-07
5.5257e-07
4.8818e-07
4.24611e-07
3.62637e-07
3.03108e-07
2.46936e-07
1.95061e-07
1.48405e-07
1.07792e-07
7.38576e-08
4.69414e-08
2.69886e-08
1.34836e-08
5.44953e-09
1.53537e-09
2.01201e-10
1.17704e-12
1.31623e-12
2.25035e-10
1.71805e-09
6.10317e-09
1.51219e-08
3.0329e-08
5.28938e-08
8.35035e-08
1.22356e-07
1.69217e-07
2.23518e-07
2.84458e-07
3.51099e-07
4.2244e-07
4.97483e-07
5.75261e-07
6.54864e-07
7.3545e-07
8.16247e-07
8.96555e-07
9.75736e-07
1.05321e-06
1.12847e-06
1.20103e-06
1.27047e-06
1.33641e-06
1.39849e-06
1.45641e-06
1.50988e-06
1.55865e-06
1.60249e-06
1.64122e-06
1.67466e-06
1.70265e-06
1.72509e-06
1.74188e-06
1.75292e-06
1.75818e-06
1.75762e-06
1.75126e-06
1.73904e-06
1.72104e-06
1.69731e-06
1.66793e-06
1.63299e-06
1.59263e-06
1.547e-06
1.49627e-06
1.44065e-06
1.38039e-06
1.31575e-06
1.24705e-06
1.17465e-06
1.09896e-06
1.02043e-06
9.39604e-07
8.57073e-07
7.73517e-07
6.89701e-07
6.06483e-07
5.24814e-07
4.45733e-07
3.7035e-07
2.99819e-07
2.35281e-07
1.77805e-07
1.28281e-07
8.7324e-08
5.51623e-08
3.15423e-08
1.56862e-08
6.31704e-09
1.77537e-09
2.32324e-10
1.35844e-12
1.4896e-12
2.54749e-10
1.9465e-09
6.92478e-09
1.71944e-08
3.45821e-08
6.05144e-08
9.58998e-08
1.41104e-07
1.95997e-07
2.60045e-07
3.32412e-07
4.12075e-07
4.97891e-07
5.88691e-07
6.83314e-07
7.80644e-07
8.79629e-07
9.79291e-07
1.07873e-06
1.17711e-06
1.27368e-06
1.36776e-06
1.45871e-06
1.54597e-06
1.62902e-06
1.70739e-06
1.78065e-06
1.84843e-06
1.91039e-06
1.96622e-06
2.01565e-06
2.05844e-06
2.0944e-06
2.12335e-06
2.14516e-06
2.15971e-06
2.16693e-06
2.16676e-06
2.15922e-06
2.14425e-06
2.12191e-06
2.09228e-06
2.05546e-06
2.01157e-06
1.96078e-06
1.9033e-06
1.83935e-06
1.76923e-06
1.69324e-06
1.61177e-06
1.52525e-06
1.43416e-06
1.33906e-06
1.24058e-06
1.13943e-06
1.03644e-06
9.32493e-07
8.28617e-07
7.25927e-07
6.25645e-07
5.29076e-07
4.37587e-07
3.52555e-07
2.75304e-07
2.07015e-07
1.48621e-07
1.00694e-07
6.3331e-08
3.60734e-08
1.78816e-08
7.18308e-09
2.01526e-09
2.63457e-10
1.53993e-12
1.66125e-12
2.84157e-10
2.17236e-09
7.73581e-09
1.92357e-08
3.87608e-08
6.79827e-08
1.0802e-07
1.594e-07
2.22094e-07
2.9561e-07
3.79094e-07
4.71446e-07
5.71414e-07
6.77668e-07
7.88873e-07
9.03723e-07
1.02096e-06
1.13942e-06
1.25799e-06
1.37565e-06
1.49147e-06
1.60459e-06
1.71422e-06
1.81963e-06
1.92017e-06
2.01525e-06
2.10432e-06
2.18689e-06
2.26252e-06
2.33081e-06
2.39143e-06
2.44405e-06
2.48841e-06
2.52429e-06
2.5515e-06
2.56989e-06
2.57936e-06
2.57981e-06
2.57129e-06
2.55367e-06
2.52706e-06
2.49152e-06
2.44718e-06
2.3942e-06
2.33279e-06
2.2632e-06
2.18573e-06
2.10074e-06
2.00864e-06
1.90992e-06
1.80512e-06
1.69489e-06
1.57994e-06
1.46109e-06
1.33924e-06
1.21545e-06
1.09085e-06
9.66712e-07
8.44426e-07
7.25482e-07
6.11448e-07
5.03934e-07
4.04526e-07
3.14711e-07
2.35763e-07
1.68643e-07
1.13863e-07
7.13849e-08
4.05466e-08
2.00518e-08
8.04022e-09
2.25289e-09
2.94311e-10
1.71983e-12
1.82999e-12
3.13056e-10
2.39413e-09
8.53093e-09
2.12331e-08
4.284e-08
7.52551e-08
1.19793e-07
1.77131e-07
2.47338e-07
3.29961e-07
4.24132e-07
5.28689e-07
6.4228e-07
7.63435e-07
8.90662e-07
1.02248e-06
1.15744e-06
1.29419e-06
1.43144e-06
1.56798e-06
1.7027e-06
1.83456e-06
1.96263e-06
2.08602e-06
2.20395e-06
2.31567e-06
2.42053e-06
2.51792e-06
2.60729e-06
2.68817e-06
2.76011e-06
2.82273e-06
2.87569e-06
2.91871e-06
2.95155e-06
2.97401e-06
2.98595e-06
2.98725e-06
2.97797e-06
2.95792e-06
2.92722e-06
2.88596e-06
2.83427e-06
2.77234e-06
2.70043e-06
2.61884e-06
2.52794e-06
2.42816e-06
2.32002e-06
2.20411e-06
2.08112e-06
1.95183e-06
1.81712e-06
1.67801e-06
1.53561e-06
1.39119e-06
1.24614e-06
1.10198e-06
9.60379e-07
8.23078e-07
6.91903e-07
5.68694e-07
4.55237e-07
3.53156e-07
2.63816e-07
1.88191e-07
1.26731e-07
7.92627e-08
4.49269e-08
2.21792e-08
8.88119e-09
2.48619e-09
3.24612e-10
1.89652e-12
1.99481e-12
3.41276e-10
2.6105e-09
9.30563e-09
2.31755e-08
4.67982e-08
8.22943e-08
1.3116e-07
1.9421e-07
2.71598e-07
3.62906e-07
4.67256e-07
5.83427e-07
7.09975e-07
8.4531e-07
9.8779e-07
1.13577e-06
1.28766e-06
1.44189e-06
1.59702e-06
1.75167e-06
1.90456e-06
2.05448e-06
2.20035e-06
2.34114e-06
2.47592e-06
2.60382e-06
2.72407e-06
2.83594e-06
2.93879e-06
3.03204e-06
3.11515e-06
3.18767e-06
3.2492e-06
3.29937e-06
3.3379e-06
3.36454e-06
3.3791e-06
3.38146e-06
3.37165e-06
3.34943e-06
3.31494e-06
3.26827e-06
3.20958e-06
3.13908e-06
3.05706e-06
2.96388e-06
2.85997e-06
2.74584e-06
2.62212e-06
2.4895e-06
2.3488e-06
2.20095e-06
2.04701e-06
1.88818e-06
1.72578e-06
1.56131e-06
1.3964e-06
1.23282e-06
1.07249e-06
9.17415e-07
7.69658e-07
6.31281e-07
5.04252e-07
3.90329e-07
2.90956e-07
2.07116e-07
1.392e-07
8.69039e-08
4.91796e-08
2.42463e-08
9.69888e-09
2.71313e-09
3.54093e-10
2.06844e-12
2.15491e-12
3.6868e-10
2.82043e-09
1.00562e-08
2.50541e-08
5.06177e-08
8.90702e-08
1.42074e-07
2.10564e-07
2.94771e-07
3.94304e-07
5.08269e-07
6.35392e-07
7.74139e-07
9.22818e-07
1.07964e-06
1.24284e-06
1.41063e-06
1.58133e-06
1.75331e-06
1.92503e-06
2.09507e-06
2.26207e-06
2.42479e-06
2.58208e-06
2.73286e-06
2.87616e-06
3.01108e-06
3.13679e-06
3.25254e-06
3.35766e-06
3.45154e-06
3.53363e-06
3.60347e-06
3.66062e-06
3.70476e-06
3.73557e-06
3.75283e-06
3.7564e-06
3.74627e-06
3.72218e-06
3.68425e-06
3.6326e-06
3.56739e-06
3.48885e-06
3.39731e-06
3.29317e-06
3.17693e-06
3.04919e-06
2.91064e-06
2.7621e-06
2.60452e-06
2.43897e-06
2.26668e-06
2.08901e-06
1.90751e-06
1.72389e-06
1.54e-06
1.35787e-06
1.17966e-06
1.00761e-06
8.4402e-07
6.91162e-07
5.51171e-07
4.25935e-07
3.16972e-07
2.25274e-07
1.51173e-07
9.42475e-08
5.327e-08
2.62359e-08
1.04863e-08
2.93173e-09
3.82495e-10
2.23406e-12
2.3097e-12
3.95164e-10
3.02314e-09
1.078e-08
2.68621e-08
5.42854e-08
9.55601e-08
1.52499e-07
2.26143e-07
3.16785e-07
4.24054e-07
5.47035e-07
6.844e-07
8.34533e-07
9.95641e-07
1.16581e-06
1.34314e-06
1.52571e-06
1.71169e-06
1.89931e-06
2.08689e-06
2.27285e-06
2.45571e-06
2.6341e-06
2.80674e-06
2.97243e-06
3.13009e-06
3.2787e-06
3.41735e-06
3.54519e-06
3.66145e-06
3.76546e-06
3.85659e-06
3.93429e-06
3.9981e-06
4.0476e-06
4.08247e-06
4.1024e-06
4.10725e-06
4.097e-06
4.0713e-06
4.03033e-06
3.97417e-06
3.903e-06
3.81708e-06
3.71675e-06
3.60247e-06
3.47479e-06
3.33437e-06
3.182e-06
3.0186e-06
2.84523e-06
2.66311e-06
2.47361e-06
2.27828e-06
2.07885e-06
1.87723e-06
1.6755e-06
1.47592e-06
1.28088e-06
1.09285e-06
9.14342e-07
7.47831e-07
5.95607e-07
4.59685e-07
3.41654e-07
2.42515e-07
1.62552e-07
1.01233e-07
5.71635e-08
2.81308e-08
1.12365e-08
3.14004e-09
4.09561e-10
2.3919e-12
2.45879e-12
4.20663e-10
3.21813e-09
1.14752e-08
2.85952e-08
5.77927e-08
1.0175e-07
1.62412e-07
2.40914e-07
3.37596e-07
4.52096e-07
5.83473e-07
7.30344e-07
8.91011e-07
1.06359e-06
1.24605e-06
1.43636e-06
1.63249e-06
1.83247e-06
2.0344e-06
2.23647e-06
2.43698e-06
2.63433e-06
2.82703e-06
3.01367e-06
3.19297e-06
3.36374e-06
3.52487e-06
3.67534e-06
3.81424e-06
3.94072e-06
4.05402e-06
4.15345e-06
4.23841e-06
4.30837e-06
4.36287e-06
4.40153e-06
4.42401e-06
4.43016e-06
4.4199e-06
4.39287e-06
4.34923e-06
4.28906e-06
4.21255e-06
4.11997e-06
4.0117e-06
3.88821e-06
3.75011e-06
3.59814e-06
3.43314e-06
3.25613e-06
3.06828e-06
2.87093e-06
2.6656e-06
2.454e-06
2.23803e-06
2.0198e-06
1.80159e-06
1.58586e-06
1.37522e-06
1.17236e-06
9.80002e-07
8.00794e-07
6.37178e-07
4.91292e-07
3.64791e-07
2.58693e-07
1.7324e-07
1.07798e-07
6.08254e-08
2.99139e-08
1.19426e-08
3.33613e-09
4.35041e-10
2.54048e-12
2.60201e-12
4.4515e-10
3.40518e-09
1.2141e-08
3.02515e-08
6.11363e-08
1.07633e-07
1.71807e-07
2.54867e-07
3.57189e-07
4.7841e-07
6.17558e-07
7.73188e-07
9.43525e-07
1.12659e-06
1.32025e-06
1.52235e-06
1.73077e-06
1.9434e-06
2.15822e-06
2.37333e-06
2.58691e-06
2.79724e-06
3.00273e-06
3.2019e-06
3.39335e-06
3.57581e-06
3.74809e-06
3.9091e-06
4.05785e-06
4.19343e-06
4.31501e-06
4.42185e-06
4.51329e-06
4.58875e-06
4.64774e-06
4.6898e-06
4.7146e-06
4.72196e-06
4.71175e-06
4.68359e-06
4.63763e-06
4.57396e-06
4.49275e-06
4.39428e-06
4.27896e-06
4.14729e-06
3.99992e-06
3.83763e-06
3.66133e-06
3.47213e-06
3.27128e-06
3.06024e-06
2.84066e-06
2.61437e-06
2.38345e-06
2.15017e-06
1.917e-06
1.68661e-06
1.46177e-06
1.2454e-06
1.04038e-06
8.49558e-07
6.755e-07
5.20463e-07
3.86171e-07
2.73658e-07
1.83135e-07
1.13883e-07
6.42211e-08
3.1568e-08
1.25979e-08
3.51811e-09
4.58685e-10
2.67834e-12
2.73944e-12
4.68635e-10
3.58439e-09
1.27778e-08
3.18321e-08
6.43182e-08
1.13215e-07
1.8069e-07
2.68012e-07
3.75581e-07
5.03021e-07
6.49317e-07
8.12964e-07
9.92106e-07
1.18467e-06
1.38843e-06
1.60112e-06
1.82051e-06
2.04439e-06
2.27066e-06
2.49728e-06
2.72234e-06
2.94406e-06
3.16074e-06
3.37082e-06
3.57283e-06
3.76542e-06
3.94735e-06
4.11745e-06
4.27468e-06
4.41808e-06
4.54676e-06
4.65994e-06
4.75693e-06
4.83709e-06
4.8999e-06
4.94486e-06
4.97165e-06
4.98002e-06
4.96983e-06
4.94068e-06
4.89271e-06
4.826e-06
4.74072e-06
4.63716e-06
4.51573e-06
4.37696e-06
4.22153e-06
4.05025e-06
3.86411e-06
3.66425e-06
3.45203e-06
3.22899e-06
2.99687e-06
2.75766e-06
2.51355e-06
2.26696e-06
2.02054e-06
1.77711e-06
1.53964e-06
1.3112e-06
1.09487e-06
8.93628e-07
7.10185e-07
5.46905e-07
4.05576e-07
2.87259e-07
1.92139e-07
1.19423e-07
6.73157e-08
3.30762e-08
1.31955e-08
3.68408e-09
4.80248e-10
2.80406e-12
2.87139e-12
4.91173e-10
3.75616e-09
1.3387e-08
3.33407e-08
6.73462e-08
1.18509e-07
1.89084e-07
2.80385e-07
3.92822e-07
5.25993e-07
6.78836e-07
8.49776e-07
1.03687e-06
1.23797e-06
1.45073e-06
1.6728e-06
1.90185e-06
2.13558e-06
2.37177e-06
2.60834e-06
2.84327e-06
3.07469e-06
3.30086e-06
3.52014e-06
3.731e-06
3.93204e-06
4.12196e-06
4.29957e-06
4.46376e-06
4.61353e-06
4.74799e-06
4.8663e-06
4.96774e-06
5.05165e-06
5.11748e-06
5.1647e-06
5.193e-06
5.2021e-06
5.1918e-06
5.16172e-06
5.11198e-06
5.04266e-06
4.95391e-06
4.84604e-06
4.71946e-06
4.57471e-06
4.41248e-06
4.23363e-06
4.03917e-06
3.83031e-06
3.60846e-06
3.37522e-06
3.13244e-06
2.8822e-06
2.62681e-06
2.36882e-06
2.111e-06
1.85633e-06
1.60793e-06
1.36903e-06
1.14285e-06
9.32507e-07
7.40844e-07
5.70319e-07
4.2279e-07
2.99343e-07
2.00149e-07
1.24359e-07
7.00745e-08
3.44215e-08
1.37287e-08
3.83219e-09
4.99487e-10
2.91623e-12
2.99841e-12
5.12857e-10
3.92122e-09
1.39713e-08
3.47837e-08
7.02338e-08
1.2354e-07
1.97028e-07
2.92045e-07
4.08994e-07
5.47439e-07
7.06256e-07
8.83796e-07
1.07803e-06
1.28671e-06
1.5074e-06
1.73766e-06
1.97506e-06
2.21721e-06
2.46183e-06
2.70672e-06
2.94984e-06
3.18925e-06
3.42313e-06
3.6498e-06
3.8677e-06
4.07539e-06
4.27154e-06
4.45492e-06
4.62441e-06
4.77899e-06
4.91773e-06
5.0398e-06
5.14445e-06
5.23102e-06
5.29891e-06
5.34764e-06
5.37685e-06
5.38626e-06
5.37562e-06
5.34458e-06
5.29324e-06
5.22167e-06
5.13003e-06
5.01861e-06
4.88782e-06
4.73821e-06
4.57049e-06
4.38552e-06
4.18435e-06
3.96822e-06
3.73857e-06
3.49708e-06
3.24564e-06
2.98641e-06
2.72179e-06
2.45443e-06
2.18722e-06
1.92325e-06
1.66577e-06
1.41813e-06
1.1837e-06
9.65695e-07
7.67083e-07
5.90409e-07
4.37594e-07
3.09758e-07
2.07066e-07
1.28627e-07
7.24632e-08
3.55873e-08
1.41909e-08
3.96059e-09
5.16166e-10
3.01344e-12
3.12129e-12
5.33825e-10
4.08063e-09
1.45345e-08
3.61709e-08
7.30004e-08
1.28342e-07
2.04578e-07
3.03075e-07
4.24214e-07
5.67511e-07
7.31773e-07
9.15263e-07
1.11586e-06
1.33121e-06
1.5588e-06
1.79608e-06
2.04053e-06
2.2897e-06
2.5412e-06
2.79281e-06
3.04241e-06
3.288e-06
3.52775e-06
3.75994e-06
3.98298e-06
4.19542e-06
4.3959e-06
4.5832e-06
4.75619e-06
4.91385e-06
5.05525e-06
5.17957e-06
5.28604e-06
5.37402e-06
5.44288e-06
5.49223e-06
5.5216e-06
5.5308e-06
5.51947e-06
5.48735e-06
5.4345e-06
5.36099e-06
5.26697e-06
5.15272e-06
5.01865e-06
4.86532e-06
4.69343e-06
4.50384e-06
4.29762e-06
4.07602e-06
3.8405e-06
3.59277e-06
3.33477e-06
3.06871e-06
2.79705e-06
2.52251e-06
2.24804e-06
1.97685e-06
1.71227e-06
1.45777e-06
1.2168e-06
9.92697e-07
7.88513e-07
6.06878e-07
4.49772e-07
3.18352e-07
2.12789e-07
1.32167e-07
7.4448e-08
3.65571e-08
1.45757e-08
4.06752e-09
5.30053e-10
3.09438e-12
3.24108e-12
5.54256e-10
4.23575e-09
1.50814e-08
3.75146e-08
7.56716e-08
1.32959e-07
2.11807e-07
3.13581e-07
4.3863e-07
5.86407e-07
7.55634e-07
9.44479e-07
1.15072e-06
1.37189e-06
1.60538e-06
1.84855e-06
2.09878e-06
2.35355e-06
2.61043e-06
2.86711e-06
3.12143e-06
3.37138e-06
3.6151e-06
3.85084e-06
4.07703e-06
4.2922e-06
4.49502e-06
4.68426e-06
4.85883e-06
5.01771e-06
5.16001e-06
5.28491e-06
5.39167e-06
5.47966e-06
5.54832e-06
5.5972e-06
5.62589e-06
5.63423e-06
5.62175e-06
5.58833e-06
5.53397e-06
5.45875e-06
5.36281e-06
5.24642e-06
5.10999e-06
4.95406e-06
4.77932e-06
4.58664e-06
4.37706e-06
4.15184e-06
3.91245e-06
3.66061e-06
3.39826e-06
3.12763e-06
2.85123e-06
2.5718e-06
2.29236e-06
2.01615e-06
1.7466e-06
1.48722e-06
1.24156e-06
1.01303e-06
8.04754e-07
6.19436e-07
4.59111e-07
3.24977e-07
2.17223e-07
1.34919e-07
7.59961e-08
3.73153e-08
1.4877e-08
4.15126e-09
5.40928e-10
3.15774e-12
3.35907e-12
5.74368e-10
4.38828e-09
1.56182e-08
3.88301e-08
7.82783e-08
1.37448e-07
2.18801e-07
3.23693e-07
4.52423e-07
6.04364e-07
7.78138e-07
9.71803e-07
1.18302e-06
1.40921e-06
1.64766e-06
1.89562e-06
2.1504e-06
2.40939e-06
2.6701e-06
2.93019e-06
3.18747e-06
3.4399e-06
3.68562e-06
3.92289e-06
4.15014e-06
4.36594e-06
4.56899e-06
4.75809e-06
4.93218e-06
5.0903e-06
5.23159e-06
5.35527e-06
5.46066e-06
5.54715e-06
5.61425e-06
5.6615e-06
5.68853e-06
5.69524e-06
5.68107e-06
5.64602e-06
5.59008e-06
5.5133e-06
5.41584e-06
5.29796e-06
5.16004e-06
5.00262e-06
4.82636e-06
4.63212e-06
4.42092e-06
4.19399e-06
3.95279e-06
3.69901e-06
3.4346e-06
3.16178e-06
2.88304e-06
2.60114e-06
2.31912e-06
2.04023e-06
1.76794e-06
1.5058e-06
1.2574e-06
1.02623e-06
8.15439e-07
6.27804e-07
4.6541e-07
3.29494e-07
2.20273e-07
1.36828e-07
7.70765e-08
3.78468e-08
1.50888e-08
4.21021e-09
5.48585e-10
3.20233e-12
3.47674e-12
5.94421e-10
4.5402e-09
1.61521e-08
4.01353e-08
8.08571e-08
1.41873e-07
2.25665e-07
3.33563e-07
4.658e-07
6.21651e-07
7.99623e-07
9.97643e-07
1.21324e-06
1.44371e-06
1.68622e-06
1.93792e-06
2.19602e-06
2.45786e-06
2.72088e-06
2.98271e-06
3.24113e-06
3.49412e-06
3.73981e-06
3.9765e-06
4.20266e-06
4.41689e-06
4.61795e-06
4.80471e-06
4.97616e-06
5.13142e-06
5.26968e-06
5.39024e-06
5.49245e-06
5.57584e-06
5.63989e-06
5.68422e-06
5.70855e-06
5.7127e-06
5.69621e-06
5.65915e-06
5.60147e-06
5.52323e-06
5.4246e-06
5.30581e-06
5.16725e-06
5.00943e-06
4.83298e-06
4.63872e-06
4.42764e-06
4.20095e-06
3.96004e-06
3.70658e-06
3.44248e-06
3.1699e-06
2.89132e-06
2.60947e-06
2.32736e-06
2.04823e-06
1.77555e-06
1.51287e-06
1.2638e-06
1.03186e-06
8.2023e-07
6.31725e-07
4.68478e-07
3.31769e-07
2.21855e-07
1.37842e-07
7.76606e-08
3.81379e-08
1.52057e-08
4.24289e-09
5.52833e-10
3.22705e-12
3.59581e-12
6.14707e-10
4.69377e-09
1.6691e-08
4.14506e-08
8.34495e-08
1.46306e-07
2.32513e-07
3.43359e-07
4.78992e-07
6.38571e-07
8.20462e-07
1.02244e-06
1.24189e-06
1.47596e-06
1.72168e-06
1.9761e-06
2.23634e-06
2.49965e-06
2.76344e-06
3.0253e-06
3.28303e-06
3.53459e-06
3.77817e-06
4.0121e-06
4.23492e-06
4.44529e-06
4.64206e-06
4.82418e-06
4.99074e-06
5.14093e-06
5.27405e-06
5.38945e-06
5.48666e-06
5.56518e-06
5.62463e-06
5.66467e-06
5.68513e-06
5.68572e-06
5.66624e-06
5.62669e-06
5.56705e-06
5.4874e-06
5.38789e-06
5.26876e-06
5.13038e-06
4.97321e-06
4.79788e-06
4.60515e-06
4.39597e-06
4.17146e-06
3.93299e-06
3.68214e-06
3.42075e-06
3.15093e-06
2.87508e-06
2.59587e-06
2.31625e-06
2.03942e-06
1.76878e-06
1.50788e-06
1.2603e-06
1.02954e-06
8.18825e-07
6.30969e-07
4.68148e-07
3.31688e-07
2.21891e-07
1.37913e-07
7.77231e-08
3.81767e-08
1.52232e-08
4.24805e-09
5.53511e-10
3.23097e-12
3.71815e-12
6.35549e-10
4.85148e-09
1.72441e-08
4.27987e-08
8.61013e-08
1.50828e-07
2.39472e-07
3.53266e-07
4.92251e-07
6.55445e-07
8.41049e-07
1.04666e-06
1.2695e-06
1.50653e-06
1.75466e-06
2.01081e-06
2.27199e-06
2.5354e-06
2.7984e-06
3.05857e-06
3.3137e-06
3.56181e-06
3.80112e-06
4.03005e-06
4.2472e-06
4.45136e-06
4.64146e-06
4.81656e-06
4.97588e-06
5.11873e-06
5.24449e-06
5.3527e-06
5.44291e-06
5.51474e-06
5.56792e-06
5.60224e-06
5.61763e-06
5.61371e-06
5.59049e-06
5.54794e-06
5.4861e-06
5.40505e-06
5.30498e-06
5.18612e-06
5.04879e-06
4.89343e-06
4.72061e-06
4.53104e-06
4.32558e-06
4.10531e-06
3.87147e-06
3.62558e-06
3.36936e-06
3.10484e-06
2.83432e-06
2.56036e-06
2.28582e-06
2.01381e-06
1.74766e-06
1.49084e-06
1.24688e-06
1.01926e-06
8.11188e-07
6.25493e-07
4.64378e-07
3.29213e-07
2.20355e-07
1.37024e-07
7.72524e-08
3.7957e-08
1.51388e-08
4.22496e-09
5.50519e-10
3.21347e-12
3.8458e-12
6.57295e-10
5.01603e-09
1.78209e-08
4.42039e-08
8.88618e-08
1.55526e-07
2.46679e-07
3.63479e-07
5.05839e-07
6.72607e-07
8.61787e-07
1.07078e-06
1.29658e-06
1.536e-06
1.78575e-06
2.04264e-06
2.30358e-06
2.56569e-06
2.8263e-06
3.083e-06
3.33359e-06
3.57615e-06
3.80898e-06
4.03059e-06
4.2397e-06
4.43521e-06
4.61619e-06
4.78185e-06
4.93154e-06
5.06471e-06
5.18089e-06
5.27968e-06
5.36086e-06
5.42424e-06
5.4696e-06
5.49684e-06
5.50583e-06
5.49647e-06
5.46878e-06
5.42279e-06
5.35855e-06
5.27618e-06
5.17581e-06
5.05769e-06
4.92212e-06
4.76952e-06
4.6004e-06
4.4154e-06
4.21533e-06
4.00115e-06
3.77402e-06
3.53533e-06
3.28669e-06
3.03e-06
2.76738e-06
2.5013e-06
2.23448e-06
1.96991e-06
1.71081e-06
1.46053e-06
1.22252e-06
1.00019e-06
7.96707e-07
6.14859e-07
4.5687e-07
3.24151e-07
2.17129e-07
1.35107e-07
7.62146e-08
3.74638e-08
1.49468e-08
4.17219e-09
5.43688e-10
3.17363e-12
3.98086e-12
6.80313e-10
5.19023e-09
1.84318e-08
4.56919e-08
9.17831e-08
1.6049e-07
2.54274e-07
3.74199e-07
5.20023e-07
6.90389e-07
8.83071e-07
1.09523e-06
1.32362e-06
1.56485e-06
1.81546e-06
2.0721e-06
2.33158e-06
2.59095e-06
2.84754e-06
3.09892e-06
3.34296e-06
3.57782e-06
3.80189e-06
4.01382e-06
4.21245e-06
4.39684e-06
4.56623e-06
4.71999e-06
4.85765e-06
4.97875e-06
5.08307e-06
5.17048e-06
5.2408e-06
5.29394e-06
5.32984e-06
5.34849e-06
5.3499e-06
5.3341e-06
5.30115e-06
5.25113e-06
5.18414e-06
5.10032e-06
4.99984e-06
4.88293e-06
4.74989e-06
4.60106e-06
4.4369e-06
4.258e-06
4.06504e-06
3.85889e-06
3.64057e-06
3.41133e-06
3.17265e-06
2.92627e-06
2.67421e-06
2.41874e-06
2.16239e-06
1.90797e-06
1.65852e-06
1.41727e-06
1.18752e-06
9.72565e-07
7.75521e-07
5.99142e-07
4.45654e-07
3.1651e-07
2.12208e-07
1.32157e-07
7.46047e-08
3.66941e-08
1.46461e-08
4.0894e-09
5.32972e-10
3.11117e-12
4.12554e-12
7.0498e-10
5.37702e-09
1.90872e-08
4.7289e-08
9.49182e-08
1.65811e-07
2.62398e-07
3.85626e-07
5.35063e-07
7.0911e-07
9.05268e-07
1.12041e-06
1.35105e-06
1.59353e-06
1.8442e-06
2.09955e-06
2.3563e-06
2.61144e-06
2.86228e-06
3.10644e-06
3.34186e-06
3.5668e-06
3.77979e-06
3.97961e-06
4.16531e-06
4.33613e-06
4.49146e-06
4.6309e-06
4.75409e-06
4.86096e-06
4.95141e-06
5.02538e-06
5.08288e-06
5.12407e-06
5.14899e-06
5.15776e-06
5.15051e-06
5.12737e-06
5.08848e-06
5.034e-06
4.96408e-06
4.87887e-06
4.77858e-06
4.66342e-06
4.53365e-06
4.38959e-06
4.23163e-06
4.06025e-06
3.87602e-06
3.67971e-06
3.47223e-06
3.2547e-06
3.0284e-06
2.79488e-06
2.55591e-06
2.31358e-06
2.07023e-06
1.82845e-06
1.5911e-06
1.36121e-06
1.14192e-06
9.36383e-07
7.47628e-07
5.7834e-07
4.30731e-07
3.06289e-07
2.05595e-07
1.28175e-07
7.24237e-08
3.56486e-08
1.42371e-08
3.97671e-09
5.18387e-10
3.02619e-12
4.28202e-12
7.31671e-10
5.57931e-09
1.97978e-08
4.9022e-08
9.83206e-08
1.71582e-07
2.71191e-07
3.97952e-07
5.51204e-07
7.2906e-07
9.287e-07
1.14667e-06
1.37919e-06
1.62231e-06
1.8722e-06
2.12516e-06
2.37783e-06
2.62716e-06
2.87046e-06
3.10541e-06
3.33007e-06
3.54282e-06
3.74236e-06
3.92767e-06
4.09801e-06
4.25279e-06
4.39167e-06
4.51439e-06
4.62102e-06
4.71154e-06
4.78604e-06
4.84463e-06
4.88772e-06
4.91545e-06
4.92807e-06
4.92583e-06
4.90898e-06
4.87779e-06
4.83246e-06
4.77322e-06
4.70027e-06
4.61382e-06
4.51406e-06
4.4012e-06
4.27548e-06
4.13716e-06
3.98655e-06
3.82405e-06
3.65018e-06
3.46553e-06
3.27086e-06
3.06707e-06
2.85528e-06
2.63682e-06
2.41329e-06
2.1865e-06
1.95856e-06
1.73183e-06
1.50893e-06
1.29267e-06
1.08598e-06
8.91853e-07
7.13174e-07
5.52553e-07
4.12166e-07
2.93532e-07
1.97316e-07
1.23175e-07
6.96801e-08
3.43316e-08
1.37214e-08
3.83462e-09
5e-10
2.9191e-12
4.45241e-12
7.60745e-10
5.79993e-09
2.05738e-08
5.09165e-08
1.02042e-07
1.7789e-07
2.80784e-07
4.11352e-07
5.6866e-07
7.50479e-07
9.53613e-07
1.17423e-06
1.40822e-06
1.65134e-06
1.8995e-06
2.14889e-06
2.39604e-06
2.63786e-06
2.87172e-06
3.09541e-06
3.3071e-06
3.50536e-06
3.68909e-06
3.85753e-06
4.01009e-06
4.14651e-06
4.26661e-06
4.37059e-06
4.45855e-06
4.53075e-06
4.58741e-06
4.62924e-06
4.65645e-06
4.66948e-06
4.66874e-06
4.65462e-06
4.62752e-06
4.58778e-06
4.53571e-06
4.4716e-06
4.3957e-06
4.30825e-06
4.20945e-06
4.09951e-06
3.97862e-06
3.84698e-06
3.70487e-06
3.55259e-06
3.39049e-06
3.21905e-06
3.03886e-06
2.85065e-06
2.65533e-06
2.45401e-06
2.24803e-06
2.03896e-06
1.82865e-06
1.61918e-06
1.4129e-06
1.21235e-06
1.02026e-06
8.39386e-07
6.72463e-07
5.21996e-07
3.90108e-07
2.78336e-07
1.8743e-07
1.17196e-07
6.63937e-08
3.27525e-08
1.31028e-08
3.66419e-09
4.77954e-10
2.79072e-12
4.63872e-12
7.92543e-10
6.04155e-09
2.1425e-08
5.2997e-08
1.0613e-07
1.84814e-07
2.91292e-07
4.25975e-07
5.87601e-07
7.73541e-07
9.80155e-07
1.2032e-06
1.43817e-06
1.68052e-06
1.92593e-06
2.17042e-06
2.41046e-06
2.64298e-06
2.86542e-06
3.0757e-06
3.27218e-06
3.45364e-06
3.61928e-06
3.76848e-06
3.90103e-06
4.01686e-06
4.11626e-06
4.19951e-06
4.26695e-06
4.31913e-06
4.35686e-06
4.38057e-06
4.39086e-06
4.38832e-06
4.37353e-06
4.34704e-06
4.30934e-06
4.26088e-06
4.20205e-06
4.13321e-06
4.05464e-06
3.96661e-06
3.86932e-06
3.76295e-06
3.64768e-06
3.52367e-06
3.39109e-06
3.25014e-06
3.10107e-06
2.94421e-06
2.77998e-06
2.60892e-06
2.43173e-06
2.24929e-06
2.06268e-06
1.8732e-06
1.68241e-06
1.4921e-06
1.30432e-06
1.12134e-06
9.45596e-07
7.79635e-07
6.25983e-07
4.87021e-07
3.648e-07
2.60863e-07
1.76043e-07
1.10296e-07
6.25975e-08