/*--------------------------------*- C++ -*----------------------------------*\
  =========                 |
  \\      /  F ield         | OpenFOAM: The Open Source CFD Toolbox
   \\    /   O peration     | Website:  https://openfoam.org
    \\  /    A nd           | Version:  12
     \\/     M anipulation  |
\*---------------------------------------------------------------------------*/
FoamFile
{
    format      ascii;
    class       volScalarField;
    location    "2.5";
    object      p;
}
// * * * * * * * * * * * * * * * * * * * * * * * * * * * * * * * * * * * * * //

dimensions      [0 2 -2 0 0 0 0];

internalField   nonuniform List<scalar> 
5625
(
1.79834e-08
1.09147e-07
1.00526e-06
2.79129e-06
5.23889e-06
8.15007e-06
1.13479e-05
1.46786e-05
1.80048e-05
2.12079e-05
2.41841e-05
2.68468e-05
2.91221e-05
3.09508e-05
3.22833e-05
3.30827e-05
3.33195e-05
3.29748e-05
3.20357e-05
3.04982e-05
2.83627e-05
2.56375e-05
2.23342e-05
1.84712e-05
1.40693e-05
9.15535e-06
3.7573e-06
-2.09114e-06
-8.35606e-06
-1.49985e-05
-2.19801e-05
-2.9258e-05
-3.67907e-05
-4.45325e-05
-5.244e-05
-6.04662e-05
-6.85664e-05
-7.66933e-05
-8.48022e-05
-9.28464e-05
-0.000100782
-0.000108564
-0.000116151
-0.000123499
-0.000130569
-0.000137321
-0.000143719
-0.000149727
-0.000155312
-0.000160444
-0.000165096
-0.000169241
-0.00017286
-0.000175932
-0.000178445
-0.000180388
-0.000181756
-0.000182549
-0.000182773
-0.00018244
-0.000181569
-0.000180187
-0.000178331
-0.000176046
-0.000173389
-0.00017043
-0.000167253
-0.000163956
-0.000160656
-0.000157484
-0.000154593
-0.000152154
-0.000150365
-0.000149459
-0.000149364
-3.10267e-06
-2.64399e-06
-1.62714e-06
-3.34672e-08
2.02481e-06
4.40383e-06
6.98097e-06
9.64546e-06
1.22931e-05
1.48314e-05
1.71767e-05
1.9258e-05
2.10125e-05
2.23891e-05
2.33439e-05
2.38432e-05
2.38598e-05
2.33751e-05
2.23759e-05
2.08566e-05
1.88159e-05
1.62593e-05
1.31954e-05
9.63914e-06
5.60757e-06
1.12333e-06
-3.78957e-06
-9.10212e-06
-1.47846e-05
-2.08032e-05
-2.71238e-05
-3.37087e-05
-4.05209e-05
-4.75201e-05
-5.46671e-05
-6.19203e-05
-6.92395e-05
-7.65825e-05
-8.39093e-05
-9.11781e-05
-9.83496e-05
-0.000105384
-0.000112242
-0.000118888
-0.000125285
-0.000131398
-0.000137196
-0.000142646
-0.00014772
-0.000152392
-0.000156638
-0.000160436
-0.000163769
-0.000166621
-0.000168983
-0.000170846
-0.000172207
-0.000173069
-0.000173439
-0.000173328
-0.000172757
-0.00017175
-0.00017034
-0.000168567
-0.000166482
-0.000164143
-0.000161619
-0.000158988
-0.000156342
-0.00015378
-0.000151411
-0.000149355
-0.000147757
-0.000146731
-0.000146264
-9.05818e-06
-7.88885e-06
-6.28466e-06
-4.40782e-06
-2.31069e-06
-5.36719e-08
2.28783e-06
4.63863e-06
6.92541e-06
9.08123e-06
1.10434e-05
1.2757e-05
1.41722e-05
1.52475e-05
1.59465e-05
1.62408e-05
1.61069e-05
1.55285e-05
1.44937e-05
1.29971e-05
1.10371e-05
8.61785e-06
5.74659e-06
2.43597e-06
-1.29927e-06
-5.43935e-06
-9.96319e-06
-1.48451e-05
-2.00588e-05
-2.55739e-05
-3.13601e-05
-3.73836e-05
-4.36111e-05
-5.00063e-05
-5.6534e-05
-6.31566e-05
-6.9838e-05
-7.654e-05
-8.32265e-05
-8.98599e-05
-9.64049e-05
-0.000102825
-0.000109087
-0.000115156
-0.000121
-0.000126589
-0.000131894
-0.000136886
-0.000141541
-0.000145835
-0.000149748
-0.00015326
-0.000156357
-0.000159027
-0.000161259
-0.000163048
-0.000164393
-0.000165295
-0.000165762
-0.000165804
-0.000165439
-0.000164687
-0.000163577
-0.000162141
-0.000160421
-0.000158461
-0.000156315
-0.000154042
-0.000151706
-0.000149378
-0.000147131
-0.000145039
-0.000143164
-0.000141558
-0.000140388
-1.66618e-05
-1.46263e-05
-1.21927e-05
-9.74316e-06
-7.27864e-06
-4.80112e-06
-2.35278e-06
1.55426e-08
2.25319e-06
4.31336e-06
6.15076e-06
7.72484e-06
8.99799e-06
9.93839e-06
1.05178e-05
1.07139e-05
1.05084e-05
9.88853e-06
8.84513e-06
7.37467e-06
5.47652e-06
3.1554e-06
4.18338e-07
-2.72258e-06
-6.25357e-06
-1.01562e-05
-1.44109e-05
-1.8994e-05
-2.38811e-05
-2.90442e-05
-3.44555e-05
-4.00836e-05
-4.58979e-05
-5.18649e-05
-5.79524e-05
-6.41254e-05
-7.0351e-05
-7.65938e-05
-8.28209e-05
-8.89976e-05
-9.50916e-05
-0.00010107
-0.000106901
-0.000112553
-0.000117999
-0.000123209
-0.000128158
-0.000132819
-0.000137171
-0.000141191
-0.000144862
-0.000148166
-0.000151089
-0.00015362
-0.000155751
-0.000157476
-0.000158792
-0.000159701
-0.000160208
-0.000160322
-0.000160054
-0.000159423
-0.000158449
-0.000157158
-0.00015558
-0.000153749
-0.000151703
-0.000149484
-0.000147136
-0.000144708
-0.000142248
-0.000139797
-0.000137358
-0.000134931
-0.0001329
-2.47106e-05
-2.17785e-05
-1.84364e-05
-1.52904e-05
-1.23041e-05
-9.43397e-06
-6.69865e-06
-4.13201e-06
-1.7681e-06
3.61849e-07
2.2266e-06
3.79783e-06
5.04851e-06
5.95584e-06
6.49924e-06
6.66288e-06
6.43349e-06
5.80273e-06
4.76476e-06
3.31865e-06
1.4657e-06
-7.88027e-07
-3.43463e-06
-6.46167e-06
-9.85534e-06
-1.35976e-05
-1.76694e-05
-2.20481e-05
-2.67105e-05
-3.16298e-05
-3.67798e-05
-4.21308e-05
-4.7654e-05
-5.33179e-05
-5.90922e-05
-6.49443e-05
-7.08431e-05
-7.67559e-05
-8.26516e-05
-8.84982e-05
-9.42654e-05
-9.99223e-05
-0.00010544
-0.00011079
-0.000115945
-0.000120879
-0.000125568
-0.000129987
-0.000134117
-0.000137936
-0.000141429
-0.000144578
-0.00014737
-0.000149795
-0.000151843
-0.000153509
-0.00015479
-0.000155684
-0.000156194
-0.000156326
-0.000156088
-0.000155492
-0.000154552
-0.000153286
-0.000151715
-0.000149863
-0.000147755
-0.000145419
-0.000142884
-0.000140179
-0.000137339
-0.000134377
-0.00013125
-0.000127921
-0.000124996
-3.24049e-05
-2.85997e-05
-2.43438e-05
-2.04547e-05
-1.68693e-05
-1.35091e-05
-1.0377e-05
-7.49623e-06
-4.88944e-06
-2.57661e-06
-5.78332e-07
1.08667e-06
2.40009e-06
3.34683e-06
3.91312e-06
4.08905e-06
3.86644e-06
3.24128e-06
2.21142e-06
7.78955e-07
-1.05231e-06
-3.27434e-06
-5.87766e-06
-8.84871e-06
-1.21729e-05
-1.58316e-05
-1.98059e-05
-2.40729e-05
-2.86099e-05
-3.33908e-05
-3.83898e-05
-4.35783e-05
-4.89286e-05
-5.44102e-05
-5.99942e-05
-6.56493e-05
-7.13461e-05
-7.70531e-05
-8.27411e-05
-8.83795e-05
-9.39398e-05
-9.93926e-05
-0.000104711
-0.000109867
-0.000114836
-0.000119593
-0.000124114
-0.000128378
-0.000132365
-0.000136054
-0.000139431
-0.000142478
-0.000145184
-0.000147535
-0.000149524
-0.000151143
-0.000152387
-0.000153253
-0.000153742
-0.000153853
-0.000153593
-0.000152968
-0.000151985
-0.000150657
-0.000148997
-0.000147018
-0.000144736
-0.000142168
-0.000139331
-0.000136244
-0.000132926
-0.000129377
-0.000125517
-0.000121279
-0.000117483
-3.9193e-05
-3.45551e-05
-2.94089e-05
-2.47685e-05
-2.05513e-05
-1.66516e-05
-1.3062e-05
-9.79955e-06
-6.87953e-06
-4.3141e-06
-2.11609e-06
-2.96955e-07
1.1319e-06
2.16171e-06
2.78451e-06
2.99564e-06
2.79165e-06
2.17273e-06
1.14045e-06
-2.99883e-07
-2.1416e-06
-4.37426e-06
-6.98632e-06
-9.96253e-06
-1.32868e-05
-1.69396e-05
-2.0901e-05
-2.51476e-05
-2.96562e-05
-3.44007e-05
-3.93553e-05
-4.44915e-05
-4.9782e-05
-5.51969e-05
-6.07078e-05
-6.62843e-05
-7.18975e-05
-7.75172e-05
-8.3115e-05
-8.86612e-05
-9.41283e-05
-9.94881e-05
-0.000104715
-0.000109781
-0.000114663
-0.000119337
-0.000123781
-0.000127972
-0.000131892
-0.000135521
-0.000138844
-0.000141843
-0.000144507
-0.000146822
-0.000148779
-0.000150368
-0.000151583
-0.000152419
-0.000152873
-0.000152942
-0.000152628
-0.000151932
-0.000150857
-0.00014941
-0.000147595
-0.000145421
-0.000142895
-0.000140025
-0.000136819
-0.000133289
-0.000129446
-0.000125278
-0.000120677
-0.000115556
-0.000110929
-4.46805e-05
-3.92475e-05
-3.32397e-05
-2.78557e-05
-2.29974e-05
-1.85369e-05
-1.44603e-05
-1.07812e-05
-7.51042e-06
-4.65488e-06
-2.22183e-06
-2.17284e-07
1.35271e-06
2.48448e-06
3.17498e-06
3.42412e-06
3.23275e-06
2.605e-06
1.54609e-06
6.46603e-08
-1.82959e-06
-4.12354e-06
-6.80316e-06
-9.85109e-06
-1.32493e-05
-1.69767e-05
-2.10118e-05
-2.53302e-05
-2.99078e-05
-3.47174e-05
-3.97329e-05
-4.49254e-05
-5.02672e-05
-5.57284e-05
-6.12806e-05
-6.68934e-05
-7.25384e-05
-7.81856e-05
-8.38069e-05
-8.93732e-05
-9.48575e-05
-0.000100232
-0.000105471
-0.000110549
-0.000115441
-0.000120125
-0.000124577
-0.000128778
-0.000132707
-0.000136345
-0.000139677
-0.000142684
-0.000145355
-0.000147674
-0.000149631
-0.000151215
-0.000152418
-0.000153232
-0.000153652
-0.000153672
-0.000153288
-0.0001525
-0.000151306
-0.000149705
-0.000147699
-0.000145289
-0.000142478
-0.000139266
-0.000135657
-0.000131654
-0.000127266
-0.000122473
-0.000117141
-0.000111168
-0.000105752
-4.85651e-05
-4.23642e-05
-3.55183e-05
-2.94019e-05
-2.39039e-05
-1.88771e-05
-1.43029e-05
-1.01938e-05
-6.55781e-06
-3.39828e-06
-7.18488e-07
1.47963e-06
3.19425e-06
4.42584e-06
5.17554e-06
5.44725e-06
5.24575e-06
4.57888e-06
3.45544e-06
1.8874e-06
-1.12362e-07
-2.5278e-06
-5.34214e-06
-8.53551e-06
-1.20876e-05
-1.59752e-05
-2.0175e-05
-2.46609e-05
-2.94071e-05
-3.43855e-05
-3.95686e-05
-4.49267e-05
-5.04311e-05
-5.60515e-05
-6.17588e-05
-6.75224e-05
-7.33134e-05
-7.91017e-05
-8.48592e-05
-9.05565e-05
-9.61669e-05
-0.000101662
-0.000107018
-0.000112206
-0.000117205
-0.00012199
-0.00012654
-0.000130832
-0.000134847
-0.000138566
-0.000141971
-0.000145046
-0.000147775
-0.000150145
-0.000152141
-0.000153753
-0.00015497
-0.000155781
-0.000156178
-0.000156154
-0.000155702
-0.000154816
-0.000153491
-0.000151723
-0.000149509
-0.000146845
-0.00014373
-0.000140159
-0.00013613
-0.000131644
-0.000126706
-0.000121291
-0.000115245
-0.00010845
-0.000102279
-5.05907e-05
-4.36368e-05
-3.59668e-05
-2.91273e-05
-2.2995e-05
-1.74047e-05
-1.23345e-05
-7.7965e-06
-3.79733e-06
-3.37733e-07
2.582e-06
4.96311e-06
6.80721e-06
8.11828e-06
8.90111e-06
9.16321e-06
8.91302e-06
8.16194e-06
6.92229e-06
5.20943e-06
3.03953e-06
4.31763e-07
-2.59408e-06
-6.01532e-06
-9.80898e-06
-1.39493e-05
-1.84108e-05
-2.31651e-05
-2.81846e-05
-3.34394e-05
-3.89002e-05
-4.45361e-05
-5.0317e-05
-5.62115e-05
-6.21895e-05
-6.82195e-05
-7.42718e-05
-8.03158e-05
-8.63227e-05
-9.22628e-05
-9.81087e-05
-0.000103832
-0.000109408
-0.000114809
-0.000120011
-0.000124991
-0.000129726
-0.000134193
-0.000138374
-0.000142247
-0.000145796
-0.000149001
-0.000151847
-0.000154318
-0.000156401
-0.00015808
-0.000159344
-0.00016018
-0.000160579
-0.000160528
-0.000160019
-0.000159044
-0.000157593
-0.000155659
-0.000153236
-0.000150315
-0.000146891
-0.000142957
-0.000138507
-0.000133538
-0.000128055
-0.000122027
-0.000115281
-0.000107686
-0.000100781
-5.05158e-05
-4.28117e-05
-3.43219e-05
-2.67647e-05
-2.00044e-05
-1.38584e-05
-8.30173e-06
-3.34679e-06
1.00086e-06
4.7424e-06
7.87998e-06
1.04175e-05
1.23597e-05
1.37136e-05
1.44873e-05
1.46918e-05
1.43391e-05
1.3444e-05
1.20225e-05
1.00934e-05
7.67632e-06
4.79376e-06
1.46881e-06
-2.27274e-06
-6.40489e-06
-1.08991e-05
-1.5727e-05
-2.08579e-05
-2.62617e-05
-3.19062e-05
-3.77603e-05
-4.37909e-05
-4.99664e-05
-5.62538e-05
-6.26214e-05
-6.90366e-05
-7.54685e-05
-8.18854e-05
-8.82574e-05
-9.45541e-05
-0.000100747
-0.000106808
-0.00011271
-0.000118426
-0.000123932
-0.000129202
-0.000134214
-0.000138945
-0.000143374
-0.00014748
-0.000151244
-0.000154648
-0.000157674
-0.000160305
-0.000162525
-0.000164319
-0.000165673
-0.000166572
-0.000167004
-0.000166955
-0.000166413
-0.000165368
-0.000163807
-0.000161721
-0.000159098
-0.000155929
-0.000152205
-0.000147914
-0.000143049
-0.000137604
-0.000131584
-0.000124952
-0.000117517
-0.000109136
-0.000101511
-4.80893e-05
-3.96283e-05
-3.03147e-05
-2.20415e-05
-1.46603e-05
-7.9701e-06
-1.94308e-06
3.40804e-06
8.07858e-06
1.20715e-05
1.53912e-05
1.80441e-05
2.00378e-05
2.13823e-05
2.20892e-05
2.21727e-05
2.16483e-05
2.05347e-05
1.88513e-05
1.66206e-05
1.3866e-05
1.06135e-05
6.88988e-06
2.72423e-06
-1.854e-06
-6.8131e-06
-1.21216e-05
-1.77458e-05
-2.36529e-05
-2.98081e-05
-3.61778e-05
-4.27266e-05
-4.94207e-05
-5.62252e-05
-6.31066e-05
-7.00305e-05
-7.69645e-05
-8.38754e-05
-9.07322e-05
-9.75032e-05
-0.000104159
-0.00011067
-0.000117008
-0.000123146
-0.000129058
-0.000134718
-0.000140102
-0.000145187
-0.000149952
-0.000154374
-0.000158432
-0.000162108
-0.000165383
-0.000168238
-0.000170655
-0.000172619
-0.000174113
-0.00017512
-0.000175626
-0.000175616
-0.000175075
-0.000173989
-0.000172345
-0.000170128
-0.000167327
-0.000163928
-0.000159918
-0.000155284
-0.000150016
-0.000144107
-0.000137558
-0.000130332
-0.000122216
-0.000113055
-0.000104715
-4.30338e-05
-3.38021e-05
-2.36554e-05
-1.46661e-05
-6.67226e-06
5.46255e-07
7.02081e-06
1.27385e-05
1.76957e-05
2.18973e-05
2.53501e-05
2.80631e-05
3.00468e-05
3.13145e-05
3.18811e-05
3.17644e-05
3.09838e-05
2.95615e-05
2.7521e-05
2.48887e-05
2.1692e-05
1.79608e-05
1.37256e-05
9.01954e-06
3.87567e-06
-1.67071e-06
-7.58458e-06
-1.38291e-05
-2.03681e-05
-2.71638e-05
-3.41797e-05
-4.13779e-05
-4.87221e-05
-5.61747e-05
-6.37003e-05
-7.12624e-05
-7.88268e-05
-8.63584e-05
-9.38246e-05
-0.000101192
-0.000108431
-0.000115509
-0.000122397
-0.000129068
-0.000135494
-0.000141647
-0.000147505
-0.000153041
-0.000158233
-0.000163058
-0.000167495
-0.000171522
-0.000175121
-0.00017827
-0.000180952
-0.000183147
-0.000184838
-0.000186007
-0.000186637
-0.000186711
-0.000186213
-0.000185125
-0.000183431
-0.000181116
-0.000178164
-0.00017456
-0.000170287
-0.000165331
-0.000159676
-0.000153316
-0.000146251
-0.000138438
-0.000129647
-0.000119707
-0.000110651
-3.50312e-05
-2.50113e-05
-1.40198e-05
-4.31524e-06
4.27912e-06
1.20042e-05
1.88953e-05
2.49401e-05
3.01362e-05
3.44909e-05
3.80137e-05
4.07166e-05
4.26133e-05
4.37207e-05
4.40573e-05
4.36448e-05
4.25067e-05
4.06693e-05
3.81604e-05
3.50107e-05
3.12518e-05
2.69181e-05
2.20443e-05
1.66676e-05
1.08253e-05
4.55659e-06
-2.09955e-06
-9.10261e-06
-1.64128e-05
-2.39892e-05
-3.17917e-05
-3.97796e-05
-4.79136e-05
-5.61536e-05
-6.44615e-05
-7.27986e-05
-8.11284e-05
-8.94138e-05
-9.76204e-05
-0.000105713
-0.00011366
-0.000121428
-0.000128987
-0.000136306
-0.000143359
-0.000150116
-0.000156552
-0.00016264
-0.000168358
-0.00017368
-0.000178585
-0.00018305
-0.000187054
-0.000190575
-0.000193594
-0.00019609
-0.000198044
-0.000199436
-0.000200248
-0.00020046
-0.000200053
-0.000199009
-0.00019731
-0.000194936
-0.000191869
-0.00018809
-0.000183583
-0.000178329
-0.00017231
-0.000165516
-0.000157948
-0.000149556
-0.000140093
-0.000129373
-0.000119595
-2.37106e-05
-1.28853e-05
-1.03931e-06
9.37529e-06
1.85515e-05
2.67526e-05
3.40191e-05
4.03394e-05
4.57133e-05
5.01509e-05
5.36651e-05
5.62714e-05
5.79872e-05
5.88333e-05
5.88325e-05
5.80109e-05
5.63963e-05
5.40198e-05
5.09139e-05
4.7114e-05
4.26565e-05
3.75803e-05
3.19251e-05
2.57326e-05
1.90446e-05
1.19047e-05
4.35624e-06
-3.55627e-06
-1.17891e-05
-2.02973e-05
-2.90377e-05
-3.79658e-05
-4.70392e-05
-5.62148e-05
-6.54518e-05
-7.47087e-05
-8.39467e-05
-9.31265e-05
-0.000102211
-0.000111165
-0.000119952
-0.000128539
-0.000136894
-0.000144985
-0.000152784
-0.000160259
-0.000167386
-0.000174135
-0.000180482
-0.000186402
-0.000191871
-0.000196865
-0.000201363
-0.000205341
-0.000208778
-0.000211651
-0.000213942
-0.000215626
-0.000216685
-0.000217097
-0.000216841
-0.000215895
-0.00021424
-0.000211853
-0.000208714
-0.000204801
-0.000200095
-0.000194572
-0.000188214
-0.000181009
-0.000172953
-0.000163995
-0.000153863
-0.000142359
-0.000131852
-8.63856e-06
3.00516e-06
1.57087e-05
2.68196e-05
3.65486e-05
4.51832e-05
5.27701e-05
5.92995e-05
6.4774e-05
6.92074e-05
7.26167e-05
7.50214e-05
7.64435e-05
7.69083e-05
7.64435e-05
7.50801e-05
7.2851e-05
6.97925e-05
6.59423e-05
6.1341e-05
5.60303e-05
5.00545e-05
4.34583e-05
3.62886e-05
2.85922e-05
2.04174e-05
1.18123e-05
2.82583e-06
-6.4938e-06
-1.60978e-05
-2.59386e-05
-3.59685e-05
-4.61413e-05
-5.64109e-05
-6.67332e-05
-7.70639e-05
-8.73616e-05
-9.75845e-05
-0.000107694
-0.00011765
-0.000127418
-0.00013696
-0.000146245
-0.000155237
-0.000163907
-0.000172224
-0.000180159
-0.000187683
-0.000194771
-0.000201396
-0.000207533
-0.000213157
-0.000218245
-0.000222771
-0.000226715
-0.000230052
-0.000232759
-0.000234814
-0.000236194
-0.000236875
-0.000236836
-0.000236051
-0.000234499
-0.000232154
-0.000228993
-0.000224993
-0.000220128
-0.000214375
-0.00020771
-0.000200118
-0.000191596
-0.000182084
-0.000171291
-0.000159002
-0.000147758
1.06906e-05
2.31566e-05
3.67088e-05
4.84888e-05
5.87267e-05
6.77361e-05
7.5571e-05
8.22245e-05
8.77031e-05
9.20253e-05
9.52126e-05
9.729e-05
9.82845e-05
9.82268e-05
9.71502e-05
9.50912e-05
9.20887e-05
8.81847e-05
8.34227e-05
7.78493e-05
7.15121e-05
6.4461e-05
5.67465e-05
4.8421e-05
3.95368e-05
3.01476e-05
2.03064e-05
1.00672e-05
-5.17297e-07
-1.13937e-05
-2.25103e-05
-3.38153e-05
-4.52589e-05
-5.67914e-05
-6.83652e-05
-7.99334e-05
-9.14514e-05
-0.000102875
-0.000114163
-0.000125274
-0.00013617
-0.000146812
-0.000157166
-0.000167197
-0.000176872
-0.000186159
-0.000195029
-0.000203452
-0.0002114
-0.000218845
-0.000225761
-0.000232123
-0.000237905
-0.000243081
-0.000247629
-0.000251522
-0.000254737
-0.000257248
-0.000259032
-0.000260063
-0.000260315
-0.000259764
-0.000258382
-0.000256142
-0.00025302
-0.000248985
-0.000244013
-0.000238073
-0.00023114
-0.000223195
-0.000214232
-0.000204185
-0.000192742
-0.000179668
-0.000167685
3.48633e-05
4.81406e-05
6.25145e-05
7.49173e-05
8.56e-05
9.49043e-05
0.000102893
0.000109563
0.000114926
0.000119007
0.000121831
0.000123432
0.000123841
0.000123096
0.000121237
0.000118305
0.000114348
0.000109413
0.000103551
9.68136e-05
8.92563e-05
8.09348e-05
7.1906e-05
6.22282e-05
5.19599e-05
4.11602e-05
2.98879e-05
1.8202e-05
6.16052e-06
-6.1786e-06
-1.87591e-05
-3.15249e-05
-4.44222e-05
-5.73977e-05
-7.04003e-05
-8.33796e-05
-9.62883e-05
-0.00010908
-0.00012171
-0.000134136
-0.000146316
-0.000158211
-0.000169784
-0.000180999
-0.000191821
-0.000202217
-0.000212157
-0.000221608
-0.000230543
-0.000238932
-0.000246749
-0.000253965
-0.000260555
-0.000266492
-0.00027175
-0.000276303
-0.000280126
-0.000283191
-0.000285472
-0.000286941
-0.000287572
-0.000287335
-0.000286201
-0.000284142
-0.000281126
-0.000277122
-0.0002721
-0.000266028
-0.000258874
-0.000250616
-0.000241246
-0.000230691
-0.000218614
-0.000204765
-0.000192044
6.45541e-05
7.86107e-05
9.37539e-05
0.000106707
0.000117745
0.000127238
0.000135259
0.000141811
0.000146912
0.000150592
0.000152887
0.000153834
0.000153474
0.000151851
0.000149012
0.000145008
0.00013989
0.000133716
0.000126541
0.000118428
0.000109436
9.96287e-05
8.90703e-05
7.78255e-05
6.5959e-05
5.35363e-05
4.06217e-05
2.72802e-05
1.3575e-05
-4.30936e-07
-1.46766e-05
-2.91014e-05
-4.36475e-05
-5.82577e-05
-7.28774e-05
-8.74526e-05
-0.000101932
-0.000116268
-0.000130414
-0.000144324
-0.000157954
-0.000171264
-0.000184214
-0.000196767
-0.000208888
-0.00022054
-0.000231693
-0.000242314
-0.000252374
-0.000261841
-0.000270688
-0.000278887
-0.000286409
-0.000293227
-0.000299314
-0.000304643
-0.000309185
-0.000312911
-0.000315795
-0.000317804
-0.000318911
-0.000319083
-0.000318288
-0.000316493
-0.000313665
-0.000309768
-0.000304768
-0.000298627
-0.00029131
-0.000282791
-0.000273058
-0.00026203
-0.000249347
-0.000234739
-0.000221288
0.000100533
0.000115308
0.000131134
0.000144533
0.000155803
0.000165345
0.000173245
0.000179512
0.000184171
0.000187263
0.000188829
0.000188917
0.000187575
0.000184855
0.000180814
0.000175508
0.000169
0.000161353
0.000152632
0.000142906
0.000132244
0.000120717
0.000108394
9.53494e-05
8.16534e-05
6.73783e-05
5.25949e-05
3.73737e-05
2.17838e-05
5.89345e-06
-1.02314e-05
-2.65258e-05
-4.29272e-05
-5.93746e-05
-7.58099e-05
-9.21766e-05
-0.000108421
-0.000124489
-0.000140334
-0.000155908
-0.000171164
-0.00018606
-0.000200555
-0.00021461
-0.000228189
-0.000241256
-0.000253777
-0.00026572
-0.000277052
-0.000287742
-0.000297763
-0.000307083
-0.000315675
-0.000323508
-0.000330556
-0.000336787
-0.000342174
-0.000346684
-0.000350289
-0.000352955
-0.00035465
-0.000355339
-0.000354987
-0.000353557
-0.000351012
-0.000347312
-0.000342417
-0.000336286
-0.000328877
-0.000320161
-0.000310121
-0.000298667
-0.000285415
-0.000270077
-0.000255912
0.000143668
0.000159064
0.000175443
0.000189141
0.00020048
0.000209893
0.000217478
0.000223255
0.000227258
0.000229536
0.000230143
0.000229132
0.000226564
0.000222499
0.000217003
0.000210142
0.000201986
0.000192609
0.000182085
0.00017049
0.000157902
0.000144399
0.000130059
0.000114964
9.91902e-05
8.28177e-05
6.59236e-05
4.85846e-05
3.08755e-05
1.287e-05
-5.36079e-06
-2.37471e-05
-4.22222e-05
-6.07209e-05
-7.91812e-05
-9.75432e-05
-0.000115751
-0.000133747
-0.000151484
-0.000168916
-0.000185988
-0.000202652
-0.000218871
-0.000234605
-0.000249816
-0.000264467
-0.000278523
-0.00029195
-0.000304716
-0.000316789
-0.000328139
-0.000338735
-0.000348547
-0.000357545
-0.000365699
-0.000372977
-0.00037935
-0.000384784
-0.000389246
-0.0003927
-0.000395113
-0.000396444
-0.000396657
-0.000395709
-0.000393559
-0.000390162
-0.000385474
-0.000379446
-0.000372034
-0.0003632
-0.000352922
-0.000341104
-0.000327333
-0.000311306
-0.000296457
0.000194932
0.000210802
0.00022755
0.000241349
0.000252544
0.000261602
0.000268635
0.000273674
0.000276765
0.000277966
0.000277343
0.000274961
0.00027089
0.000265201
0.000257968
0.000249271
0.000239187
0.000227799
0.000215192
0.000201449
0.000186659
0.000170907
0.000154281
0.000136867
0.000118753
0.000100023
8.07631e-05
6.1055e-05
4.09797e-05
2.06164e-05
4.14794e-08
-2.06707e-05
-4.14491e-05
-6.22246e-05
-8.29317e-05
-0.000103507
-0.000123891
-0.000144027
-0.000163858
-0.000183336
-0.000202417
-0.000221049
-0.000239185
-0.000256786
-0.000273815
-0.000290232
-0.000306004
-0.000321094
-0.000335471
-0.000349101
-0.000361953
-0.000373995
-0.000385197
-0.000395526
-0.000404952
-0.000413441
-0.000420961
-0.000427476
-0.000432951
-0.000437348
-0.000440628
-0.000442749
-0.000443668
-0.00044334
-0.000441718
-0.000438751
-0.00043439
-0.00042858
-0.000421268
-0.000412412
-0.000401985
-0.000389879
-0.00037566
-0.000359
-0.00034351
0.000255396
0.000271534
0.0002884
0.000302038
0.000312821
0.000321242
0.000327434
0.000331439
0.000333315
0.000333134
0.000330973
0.000326911
0.000321026
0.000313402
0.000304125
0.000293282
0.000280965
0.000267263
0.000252273
0.000236087
0.000218801
0.000200511
0.000181313
0.000161301
0.000140569
0.000119212
9.73182e-05
7.49787e-05
5.22798e-05
2.9306e-05
6.13875e-06
-1.71429e-05
-4.04637e-05
-6.37507e-05
-8.69353e-05
-0.000109951
-0.000132737
-0.000155232
-0.000177378
-0.000199118
-0.000220406
-0.000241202
-0.00026146
-0.000281132
-0.000300179
-0.000318562
-0.000336245
-0.000353194
-0.000369375
-0.000384755
-0.000399301
-0.00041298
-0.000425761
-0.000437611
-0.000448496
-0.000458383
-0.000467234
-0.000475014
-0.000481684
-0.000487201
-0.000491524
-0.000494606
-0.0004964
-0.000496855
-0.000495917
-0.000493532
-0.000489642
-0.000484186
-0.000477104
-0.000468346
-0.000457879
-0.000445585
-0.000431001
-0.000413785
-0.00039771
0.000326227
0.000342355
0.000359004
0.000372147
0.000382179
0.000389621
0.000394623
0.000397243
0.000397553
0.000395641
0.000391594
0.000385504
0.000377463
0.000367565
0.000355907
0.000342589
0.000327711
0.000311374
0.000293683
0.000274741
0.000254654
0.000233525
0.000211458
0.000188557
0.000164923
0.000140656
0.000115854
9.06131e-05
6.50251e-05
3.91804e-05
1.31652e-05
-1.29369e-05
-3.90465e-05
-6.50872e-05
-9.09869e-05
-0.000116676
-0.000142091
-0.00016717
-0.000191853
-0.000216087
-0.000239821
-0.000263006
-0.000285598
-0.000307553
-0.000328832
-0.000349394
-0.000369204
-0.000388226
-0.000406425
-0.000423769
-0.000440223
-0.000455755
-0.00047033
-0.000483916
-0.000496475
-0.000507973
-0.000518371
-0.000527628
-0.000535703
-0.000542549
-0.000548121
-0.000552367
-0.000555235
-0.000556666
-0.000556602
-0.00055498
-0.000551735
-0.000546799
-0.000540102
-0.000531587
-0.000521213
-0.00050885
-0.000494012
-0.000476336
-0.000459751
0.000408671
0.000424421
0.000440422
0.000452648
0.000461512
0.000467561
0.000470961
0.000471789
0.000470131
0.000466091
0.000459769
0.000451271
0.000440699
0.000428162
0.000413766
0.000397621
0.000379839
0.000360532
0.000339812
0.000317792
0.000294588
0.000270311
0.000245073
0.000218986
0.000192158
0.000164697
0.000136707
0.000108289
7.95423e-05
5.05613e-05
2.14373e-05
-7.74186e-06
-3.6893e-05
-6.59364e-05
-9.47971e-05
-0.000123404
-0.000151689
-0.00017959
-0.000207047
-0.000234005
-0.000260412
-0.00028622
-0.000311382
-0.000335855
-0.000359599
-0.000382576
-0.000404748
-0.000426079
-0.000446536
-0.000466084
-0.000484688
-0.000502316
-0.000518931
-0.000534499
-0.000548981
-0.000562339
-0.000574532
-0.000585515
-0.000595243
-0.000603665
-0.000610731
-0.000616381
-0.000620558
-0.000623198
-0.000624232
-0.000623591
-0.000621201
-0.000616983
-0.00061086
-0.000602765
-0.000592646
-0.000580364
-0.000565404
-0.000547389
-0.000530386
0.000504033
0.000518931
0.000533737
0.000544521
0.000551715
0.000555876
0.000557194
0.00055576
0.000551681
0.000545071
0.000536049
0.000524729
0.000511228
0.000495664
0.000478155
0.00045882
0.000437781
0.000415159
0.000391077
0.000365655
0.000339016
0.000311281
0.000282569
0.000253
0.000222688
0.000191748
0.000160289
0.00012842
9.62438e-05
6.38605e-05
3.13656e-05
-1.14918e-06
-3.35973e-05
-6.58961e-05
-9.7968e-05
-0.00012974
-0.000161143
-0.000192112
-0.000222589
-0.000252516
-0.000281842
-0.000310518
-0.000338498
-0.00036574
-0.000392203
-0.000417849
-0.000442642
-0.000466546
-0.000489526
-0.000511548
-0.000532577
-0.000552577
-0.000571514
-0.000589348
-0.00060604
-0.000621548
-0.000635828
-0.00064883
-0.000660504
-0.000670794
-0.000679643
-0.000686986
-0.000692755
-0.00069688
-0.000699283
-0.000699885
-0.000698601
-0.000695342
-0.00069002
-0.000682557
-0.000672891
-0.000660868
-0.000645953
-0.000627747
-0.000610442
0.000613638
0.000627084
0.000640013
0.000648718
0.000653638
0.000655334
0.000654014
0.000649789
0.000642781
0.000633121
0.000620938
0.000606359
0.00058951
0.000570518
0.000549512
0.00052662
0.00050197
0.000475692
0.000447916
0.000418771
0.000388387
0.00035689
0.000324409
0.000291068
0.000256988
0.00022229
0.00018709
0.0001515
0.000115629
7.95818e-05
4.34572e-05
7.35032e-06
-2.86489e-05
-6.44557e-05
-9.99903e-05
-0.000135178
-0.000169949
-0.000204239
-0.000237987
-0.000271138
-0.000303639
-0.000335443
-0.000366505
-0.000396784
-0.000426239
-0.000454833
-0.000482531
-0.000509298
-0.000535098
-0.000559898
-0.000583662
-0.000606353
-0.000627934
-0.000648364
-0.000667601
-0.000685599
-0.000702307
-0.000717674
-0.000731641
-0.000744147
-0.000755126
-0.000764504
-0.000772206
-0.000778149
-0.000782246
-0.000784406
-0.000784532
-0.000782524
-0.000778279
-0.000771706
-0.000762733
-0.000751189
-0.000736516
-0.000718298
-0.00070083
0.000738777
0.000750029
0.000760245
0.000766102
0.000768038
0.000766602
0.000762014
0.000754407
0.000743919
0.000730691
0.000714861
0.000696567
0.000675942
0.00065312
0.000628235
0.000601424
0.000572818
0.000542554
0.000510768
0.000477594
0.000443167
0.000407622
0.00037109
0.000333702
0.000295585
0.000256865
0.000217663
0.000178095
0.000138275
9.83114e-05
5.83067e-05
1.83589e-05
-2.14395e-05
-6.10019e-05
-0.000100247
-0.0001391
-0.00017749
-0.000215352
-0.000252628
-0.000289262
-0.000325204
-0.000360407
-0.000394829
-0.000428428
-0.000461168
-0.000493012
-0.000523927
-0.000553877
-0.000582829
-0.000610748
-0.000637599
-0.000663343
-0.00068794
-0.000711347
-0.000733518
-0.000754402
-0.000773945
-0.000792085
-0.000808758
-0.000823894
-0.000837416
-0.000849242
-0.000859284
-0.000867448
-0.000873632
-0.000877732
-0.000879637
-0.000879231
-0.000876396
-0.000871027
-0.000863035
-0.000852233
-0.000838041
-0.000820026
-0.000802563
0.000880632
0.000888779
0.000895268
0.000897369
0.000895501
0.000890173
0.000881617
0.000869983
0.000855421
0.00083808
0.000818105
0.000795636
0.00077081
0.000743764
0.000714633
0.000683557
0.000650674
0.000616118
0.000580029
0.000542545
0.000503806
0.000463949
0.000423111
0.000381425
0.000339025
0.000296039
0.000252594
0.00020881
0.000164804
0.000120688
7.65686e-05
3.25451e-05
-1.12879e-05
-5.48424e-05
-9.80365e-05
-0.000140795
-0.000183048
-0.000224732
-0.00026579
-0.000306168
-0.000345818
-0.000384697
-0.000422764
-0.000459983
-0.000496317
-0.000531734
-0.000566201
-0.000599686
-0.000632156
-0.000663575
-0.000693909
-0.000723117
-0.000751157
-0.000777982
-0.000803541
-0.000827777
-0.000850628
-0.000872025
-0.000891895
-0.000910154
-0.000926716
-0.000941485
-0.000954359
-0.000965228
-0.000973974
-0.000980475
-0.000984604
-0.000986227
-0.000985206
-0.000981419
-0.000974758
-0.000965017
-0.000951592
-0.000934037
-0.000916775
0.00104016
0.00104411
0.00104568
0.00104297
0.00103636
0.00102629
0.00101299
0.00099664
0.000977382
0.00095537
0.000930748
0.000903653
0.00087422
0.000842581
0.000808869
0.000773218
0.000735766
0.000696647
0.000656
0.000613963
0.000570676
0.000526279
0.000480911
0.000434709
0.000387808
0.000340343
0.000292442
0.000244229
0.000195826
0.000147346
9.88991e-05
5.05864e-05
2.50409e-06
-4.52592e-05
-9.26219e-05
-0.000139509
-0.000185854
-0.000231595
-0.000276677
-0.00032105
-0.000364672
-0.000407501
-0.000449503
-0.000490643
-0.000530892
-0.00057022
-0.000608598
-0.000645995
-0.000682382
-0.000717723
-0.000751982
-0.000785119
-0.000817087
-0.000847835
-0.000877306
-0.000905435
-0.000932152
-0.000957378
-0.000981024
-0.001003
-0.00102319
-0.00104149
-0.00105779
-0.00107195
-0.00108384
-0.0010933
-0.00110019
-0.00110435
-0.00110564
-0.00110389
-0.00109898
-0.00109068
-0.00107837
-0.00106158
-0.00104476
0.00121802
0.00121648
0.00121173
0.00120299
0.00119057
0.00117482
0.00115595
0.00113415
0.00110956
0.00108232
0.00105256
0.00102042
0.000986004
0.000949442
0.000910856
0.000870368
0.000828108
0.000784204
0.000738789
0.000692001
0.000643975
0.000594852
0.000544772
0.000493873
0.000442294
0.00039017
0.000337634
0.000284815
0.000231834
0.000178811
0.000125855
7.30703e-05
2.05543e-05
-3.16043e-05
-8.33252e-05
-0.000134536
-0.000185173
-0.000235179
-0.000284502
-0.0003331
-0.000380935
-0.000427972
-0.000474184
-0.000519543
-0.000564025
-0.000607606
-0.000650263
-0.000691969
-0.000732697
-0.000772414
-0.000811084
-0.000848664
-0.000885105
-0.000920351
-0.000954335
-0.000986985
-0.00101822
-0.00104794
-0.00107605
-0.00110243
-0.00112696
-0.00114951
-0.00116996
-0.00118811
-0.00120381
-0.0012169
-0.00122721
-0.00123455
-0.00123873
-0.00123958
-0.00123693
-0.00123055
-0.00121976
-0.00120411
-0.00118801
0.00141435
0.0014058
0.00139308
0.00137692
0.00135753
0.00133508
0.00130978
0.00128178
0.00125122
0.00121822