/*--------------------------------*- C++ -*----------------------------------*\
  =========                 |
  \\      /  F ield         | OpenFOAM: The Open Source CFD Toolbox
   \\    /   O peration     | Website:  https://openfoam.org
    \\  /    A nd           | Version:  12
     \\/     M anipulation  |
\*---------------------------------------------------------------------------*/
FoamFile
{
    format      ascii;
    class       surfaceScalarField;
    location    "2.5";
    object      phi;
}
// * * * * * * * * * * * * * * * * * * * * * * * * * * * * * * * * * * * * * //

dimensions      [0 3 -1 0 0 0 0];

internalField   nonuniform List<scalar> 
11100
(
-3.05533e-11
3.01089e-11
-7.48415e-11
4.43308e-11
-1.05187e-10
3.02961e-11
-1.0472e-10
-4.57388e-13
-6.51641e-11
-3.95982e-11
1.81999e-11
-8.33615e-11
1.46538e-10
-1.28368e-10
3.19102e-10
-1.7256e-10
5.33682e-10
-2.14602e-10
7.87294e-10
-2.53605e-10
1.0763e-09
-2.89022e-10
1.39682e-09
-3.20506e-10
1.74468e-09
-3.47874e-10
2.11572e-09
-3.71035e-10
2.50569e-09
-3.89983e-10
2.91046e-09
-4.04753e-10
3.32588e-09
-4.15431e-10
3.74801e-09
-4.22121e-10
4.17296e-09
-4.2496e-10
4.59706e-09
-4.24092e-10
5.01673e-09
-4.19687e-10
5.42866e-09
-4.11913e-10
5.82961e-09
-4.00961e-10
6.21665e-09
-3.87017e-10
6.58691e-09
-3.70284e-10
6.93789e-09
-3.50958e-10
7.26713e-09
-3.29251e-10
7.57252e-09
-3.05368e-10
7.85202e-09
-2.79523e-10
8.10397e-09
-2.51924e-10
8.32674e-09
-2.22788e-10
8.51908e-09
-1.92321e-10
8.6798e-09
-1.60742e-10
8.80807e-09
-1.28253e-10
8.90312e-09
-9.50686e-11
8.96452e-09
-6.13907e-11
8.99193e-09
-2.74291e-11
8.98533e-09
6.61971e-12
8.94476e-09
4.05507e-11
8.87059e-09
7.41727e-11
8.76329e-09
1.07285e-10
8.6236e-09
1.39701e-10
8.45235e-09
1.71226e-10
8.25069e-09
2.01676e-10
8.01981e-09
2.30862e-10
7.76121e-09
2.58606e-10
7.47647e-09
2.84721e-10
7.16745e-09
3.09031e-10
6.83608e-09
3.31355e-10
6.48456e-09
3.5152e-10
6.1152e-09
3.69346e-10
5.73054e-09
3.84664e-10
5.33323e-09
3.97297e-10
4.92615e-09
4.0708e-10
4.5123e-09
4.1384e-10
4.09489e-09
4.17417e-10
3.67723e-09
4.17647e-10
3.26285e-09
4.14379e-10
2.85538e-09
4.07464e-10
2.45861e-09
3.9677e-10
2.07642e-09
3.82178e-10
1.71282e-09
3.63595e-10
1.37186e-09
3.40958e-10
1.0576e-09
3.14255e-10
7.7405e-10
2.83543e-10
5.25068e-10
2.48979e-10
3.14197e-10
2.10865e-10
1.4447e-10
1.69723e-10
1.8074e-11
1.26391e-10
-6.41099e-11
8.21808e-11
-1.03207e-10
3.90922e-11
-1.03702e-10
4.9343e-13
-7.37647e-11
-2.99409e-11
-2.98758e-11
-4.38919e-11
-2.98764e-11
-1.28825e-11
4.30116e-11
-6.18639e-12
3.76833e-11
5.42736e-11
-3.01708e-11
1.9101e-10
-1.37174e-10
4.18781e-10
-2.67387e-10
7.45021e-10
-4.09592e-10
1.17237e-09
-5.55731e-10
1.69979e-09
-6.99977e-10
2.32338e-09
-8.38204e-10
3.03725e-09
-9.67473e-10
3.83397e-09
-1.08575e-09
4.70513e-09
-1.19165e-09
5.6415e-09
-1.28426e-09
6.63352e-09
-1.36304e-09
7.67125e-09
-1.42772e-09
8.74476e-09
-1.47825e-09
9.84405e-09
-1.51473e-09
1.09594e-08
-1.53741e-09
1.2081e-08
-1.54662e-09
1.31997e-08
-1.5428e-09
1.43065e-08
-1.52644e-09
1.53927e-08
-1.4981e-09
1.64501e-08
-1.45838e-09
1.7471e-08
-1.40791e-09
1.84481e-08
-1.34737e-09
1.93746e-08
-1.27746e-09
2.02442e-08
-1.19889e-09
2.10513e-08
-1.1124e-09
2.17905e-08
-1.01874e-09
2.24572e-08
-9.18647e-10
2.30473e-08
-8.12899e-10
2.35572e-08
-7.02252e-10
2.3984e-08
-5.87473e-10
2.4325e-08
-4.69324e-10
2.45785e-08
-3.48566e-10
2.47431e-08
-2.25952e-10
2.48179e-08
-1.02235e-10
2.48027e-08
2.18459e-11
2.46977e-08
1.45553e-10
2.45037e-08
2.68161e-10
2.4222e-08
3.88949e-10
2.38545e-08
5.07209e-10
2.34035e-08
6.22238e-10
2.28718e-08
7.33346e-10
2.22628e-08
8.39847e-10
2.15803e-08
9.41068e-10
2.08287e-08
1.03634e-09
2.00127e-08
1.12502e-09
1.91376e-08
1.20644e-09
1.82092e-08
1.27998e-09
1.72335e-08
1.345e-09
1.62173e-08
1.4009e-09
1.51675e-08
1.44708e-09
1.40916e-08
1.48294e-09
1.29975e-08
1.50794e-09
1.18934e-08
1.52152e-09
1.07879e-08
1.52319e-09
9.68976e-09
1.51248e-09
8.60825e-09
1.48897e-09
7.55271e-09
1.45231e-09
6.53265e-09
1.40224e-09
5.55764e-09
1.3386e-09
4.6372e-09
1.26139e-09
3.78065e-09
1.1708e-09
2.9969e-09
1.06728e-09
2.29424e-09
9.51642e-10
1.67994e-09
8.25152e-10
1.15993e-09
6.89738e-10
7.38103e-10
5.48208e-10
4.15694e-10
4.04586e-10
1.90218e-10
2.64564e-10
5.45954e-11
1.36109e-10
-5.64703e-12
3.02994e-11
-1.25606e-11
-3.69823e-11
-4.24377e-11
2.83619e-11
1.46646e-11
1.40863e-10
-7.47836e-11
3.59785e-10
-2.49093e-10
7.01611e-10
-4.78979e-10
1.17708e-09
-7.42863e-10
1.79186e-09
-1.02436e-09
2.54708e-09
-1.31096e-09
3.44025e-09
-1.59314e-09
4.46574e-09
-1.8637e-09
5.61553e-09
-2.11726e-09
6.87961e-09
-2.34985e-09
8.24659e-09
-2.55862e-09
9.70388e-09
-2.74156e-09
1.12382e-08
-2.89738e-09
1.28358e-08
-3.0253e-09
1.44825e-08
-3.12499e-09
1.61643e-08
-3.19647e-09
1.78669e-08
-3.24007e-09
1.95766e-08
-3.25632e-09
2.12798e-08
-3.24597e-09
2.29633e-08
-3.20993e-09
2.46144e-08
-3.14924e-09
2.62211e-08
-3.06507e-09
2.77719e-08
-2.95867e-09
2.92558e-08
-2.83137e-09
3.0663e-08
-2.68457e-09
3.19838e-08
-2.51972e-09
3.32097e-08
-2.33831e-09
3.43328e-08
-2.14188e-09
3.53462e-08
-1.93197e-09
3.62434e-08
-1.71016e-09
3.70192e-08
-1.47803e-09
3.76689e-08
-1.23717e-09
3.81888e-08
-9.89174e-10
3.85758e-08
-7.35627e-10
3.8828e-08
-4.78112e-10
3.89439e-08
-2.18204e-10
3.89232e-08
4.25366e-11
3.87662e-08
3.0256e-10
3.8474e-08
5.60335e-10
3.80486e-08
8.14344e-10
3.74928e-08
1.06309e-09
3.68099e-08
1.30509e-09
3.60044e-08
1.53889e-09
3.50811e-08
1.76305e-09
3.40461e-08
1.97614e-09
3.29056e-08
2.17678e-09
3.16671e-08
2.36358e-09
3.03383e-08
2.53521e-09
2.89279e-08
2.69035e-09
2.74452e-08
2.8277e-09
2.59001e-08
2.94601e-09
2.43031e-08
3.04407e-09
2.26653e-08
3.12073e-09
2.09984e-08
3.17486e-09
1.93145e-08
3.20543e-09
1.76261e-08
3.2115e-09
1.59464e-08
3.19221e-09
1.42885e-08
3.14684e-09
1.2666e-08
3.07484e-09
1.10924e-08
2.97585e-09
9.5812e-09
2.84977e-09
8.14578e-09
2.69681e-09
6.79899e-09
2.51759e-09
5.55302e-09
2.31325e-09
4.41905e-09
2.0856e-09
3.40691e-09
1.83729e-09
2.5246e-09
1.57205e-09
1.77776e-09
1.29504e-09
1.1691e-09
1.01324e-09
6.97703e-10
7.35956e-10
3.58309e-10
4.75504e-10
1.40531e-10
2.48071e-10
2.84026e-11
7.51421e-11
-1.40358e-11
7.40729e-11
-5.94048e-11
3.05463e-10
-3.06156e-10
7.02685e-10
-6.46319e-10
1.27235e-09
-1.04863e-09
2.01804e-09
-1.48855e-09
2.94016e-09
-1.94647e-09
4.03589e-09
-2.4067e-09
5.29949e-09
-2.85673e-09
6.72252e-09
-3.28674e-09
8.29435e-09
-3.68908e-09
1.00024e-08
-4.05787e-09
1.18325e-08
-4.38873e-09
1.37694e-08
-4.67846e-09
1.57969e-08
-4.92486e-09
1.78981e-08
-5.12654e-09
2.00559e-08
-5.28281e-09
2.2253e-08
-5.39352e-09
2.44719e-08
-5.45902e-09
2.66956e-08
-5.48004e-09
2.89073e-08
-5.45766e-09
3.10906e-08
-5.39324e-09
3.32298e-08
-5.28839e-09
3.53096e-08
-5.14492e-09
3.73158e-08
-4.96481e-09
3.92346e-08
-4.75018e-09
4.10533e-08
-4.50329e-09
4.27601e-08
-4.22648e-09
4.4344e-08
-3.92219e-09
4.5795e-08
-3.59291e-09
4.71042e-08
-3.24118e-09
4.82636e-08
-2.8696e-09
4.92664e-08
-2.48077e-09
5.01065e-08
-2.07733e-09
5.07793e-08
-1.66192e-09
5.12808e-08
-1.23716e-09
5.16084e-08
-8.05708e-10
5.17604e-08
-3.70171e-10
5.17361e-08
6.68394e-11
5.15359e-08
5.02738e-10
5.11613e-08
9.34961e-10
5.06146e-08
1.36097e-09
4.98995e-08
1.77827e-09
4.90202e-08
2.18436e-09
4.79822e-08
2.57683e-09
4.6792e-08
2.95325e-09
4.54569e-08
3.31127e-09
4.39851e-08
3.64855e-09
4.23859e-08
3.96283e-09
4.06692e-08
4.25187e-09
3.88461e-08
4.51349e-09
3.69282e-08
4.74559e-09
3.49281e-08
4.94612e-09
3.2859e-08
5.11312e-09
3.0735e-08
5.24473e-09
2.85706e-08
5.3392e-09
2.63812e-08
5.39492e-09
2.41822e-08
5.41042e-09
2.199e-08
5.38443e-09
1.98209e-08
5.31594e-09
1.76916e-08
5.20419e-09
1.56186e-08
5.04879e-09
1.36186e-08
4.84974e-09
1.17079e-08
4.60758e-09
9.90197e-09
4.32348e-09
8.21583e-09
3.99939e-09
6.66324e-09
3.63819e-09
5.25657e-09
3.24395e-09
4.00641e-09
2.8222e-09
2.92121e-09
2.38024e-09
2.0069e-09
1.92754e-09
1.26657e-09
1.47628e-09
7.00219e-10
1.04184e-09
3.04723e-10
6.43564e-10
7.40093e-11
3.05852e-10
5.99728e-11
1.17686e-10
-1.77093e-10
4.66032e-10
-6.54493e-10
1.04156e-09
-1.22186e-09
1.84094e-09
-1.848e-09
2.85965e-09
-2.50728e-09
4.09156e-09
-3.17837e-09
5.52846e-09
-3.84361e-09
7.16018e-09
-4.48844e-09
8.97448e-09
-5.10106e-09
1.09574e-08
-5.67198e-09
1.30933e-08
-6.19375e-09
1.53651e-08
-6.66062e-09
1.7755e-08
-7.06831e-09
2.02439e-08
-7.41377e-09
2.28124e-08
-7.69504e-09
2.54406e-08
-7.91105e-09
2.81086e-08
-8.0615e-09
3.07964e-08
-8.14677e-09
3.34841e-08
-8.16782e-09
3.61526e-08
-8.12608e-09
3.87827e-08
-8.02342e-09
4.13564e-08
-7.86207e-09
4.3856e-08
-7.64455e-09
4.62649e-08
-7.37368e-09
4.85672e-08
-7.05248e-09
5.07481e-08
-6.68416e-09
5.27937e-08
-6.2721e-09
5.46914e-08
-5.8198e-09
5.64293e-08
-5.33088e-09
5.79972e-08
-4.80901e-09
5.93855e-08
-4.25797e-09
6.05863e-08
-3.68157e-09
6.15926e-08
-3.08363e-09
6.23987e-08
-2.46802e-09
6.30001e-08
-1.83861e-09
6.33937e-08
-1.19925e-09
6.35773e-08
-5.53802e-10
6.35503e-08
9.39069e-11
6.33129e-08
7.4007e-10
6.2867e-08
1.38092e-09
6.22152e-08
2.01271e-09
6.13617e-08
2.63176e-09
6.03117e-08
3.23441e-09
5.90714e-08
3.81708e-09
5.76484e-08
4.37623e-09
5.60513e-08
4.90838e-09
5.42897e-08
5.41012e-09
5.23745e-08
5.8781e-09
5.03172e-08
6.30909e-09
4.81308e-08
6.6999e-09
4.58289e-08
7.04748e-09
4.34262e-08
7.34887e-09
4.0938e-08
7.60128e-09
3.83807e-08
7.80203e-09
3.57712e-08
7.94866e-09
3.31273e-08
8.0389e-09
3.04669e-08
8.07073e-09
2.78089e-08
8.04243e-09
2.51722e-08
7.95265e-09
2.2576e-08
7.80043e-09
2.00394e-08
7.58532e-09
1.75817e-08
7.30745e-09
1.52216e-08
6.96767e-09
1.29774e-08
6.56766e-09
1.08667e-08
6.11011e-09
8.906e-09
5.59888e-09
7.11066e-09
5.03928e-09
5.49457e-09
4.43828e-09
4.06994e-09
3.80486e-09
2.84715e-09
3.15034e-09
1.83465e-09
2.48878e-09
1.03907e-09
1.83742e-09
4.65413e-10
1.21721e-09
1.17695e-10
6.53566e-10
1.77667e-10
1.57747e-10
-3.34842e-10
6.16236e-10
-1.11298e-09
1.36243e-09
-1.96806e-09
2.38424e-09
-2.8698e-09
3.66942e-09
-3.79246e-09
5.20504e-09
-4.71399e-09
6.97706e-09
-5.61564e-09
8.97021e-09
-6.48159e-09
1.11678e-08
-7.29868e-09
1.3552e-08
-8.05614e-09
1.61036e-08
-8.74533e-09
1.88024e-08
-9.35947e-09
2.16276e-08
-9.89343e-09
2.45573e-08
-1.03435e-08
2.75695e-08
-1.07073e-08
3.06419e-08
-1.09834e-08
3.37519e-08
-1.11716e-08
3.68774e-08
-1.12722e-08
3.99962e-08
-1.12867e-08
4.30869e-08
-1.12167e-08
4.61283e-08
-1.10648e-08
4.91002e-08
-1.0834e-08
5.1983e-08
-1.05274e-08
5.47583e-08
-1.01489e-08
5.74083e-08
-9.70253e-09
5.99167e-08
-9.19248e-09
6.22678e-08
-8.62329e-09
6.44477e-08
-7.99965e-09
6.64432e-08
-7.32642e-09
6.82428e-08
-6.60855e-09
6.98359e-08
-5.85111e-09
7.12136e-08
-5.05922e-09
7.2368e-08
-4.23808e-09
7.32929e-08
-3.39289e-09
7.39832e-08
-2.5289e-09
7.44352e-08
-1.65132e-09
7.46468e-08
-7.65395e-10
7.46171e-08
1.23692e-10
7.43463e-08
1.01077e-09
7.38366e-08
1.89071e-09
7.30908e-08
2.75844e-09
7.21136e-08
3.60895e-09
7.09108e-08
4.43726e-09
6.94893e-08
5.23851e-09
6.78577e-08
6.00789e-09
6.60254e-08
6.74068e-09
6.40032e-08
7.43225e-09
6.18033e-08
8.07808e-09
5.94385e-08
8.67378e-09
5.69234e-08
9.21508e-09
5.4273e-08
9.69785e-09
5.15037e-08
1.01181e-08
4.86328e-08
1.04722e-08
4.56783e-08
1.07565e-08
4.26592e-08
1.09677e-08
3.95951e-08
1.11029e-08
3.65064e-08
1.11595e-08
3.34137e-08
1.11351e-08
3.03383e-08
1.10281e-08
2.73016e-08
1.08371e-08
2.43252e-08
1.05617e-08
2.14305e-08
1.02021e-08
1.86391e-08
9.75914e-09
1.59717e-08
9.23503e-09
1.34488e-08
8.63298e-09
1.10901e-08
7.95759e-09
8.91432e-09
7.21506e-09
6.93919e-09
6.41341e-09
5.18132e-09
5.56272e-09
3.65615e-09
4.6755e-09
2.37802e-09
3.7669e-09
1.36035e-09
2.85508e-09
6.16024e-10
1.96153e-09
1.57936e-10
1.11165e-09
3.35601e-10
1.94519e-10
-5.29364e-10
7.55958e-10
-1.67441e-09
1.66374e-09
-2.87585e-09
2.89835e-09
-4.10441e-09
4.44055e-09
-5.33466e-09
6.27096e-09
-6.5444e-09
8.36966e-09
-7.71435e-09
1.07161e-08
-8.828e-09
1.32888e-08
-9.87139e-09
1.60656e-08
-1.08329e-08
1.90234e-08
-1.17032e-08
2.21387e-08
-1.24747e-08
2.53872e-08
-1.31419e-08
2.87442e-08
-1.37006e-08
3.21851e-08
-1.41481e-08
3.56847e-08
-1.44831e-08
3.92184e-08
-1.47053e-08
4.27616e-08
-1.48154e-08
4.62901e-08
-1.48152e-08
4.97804e-08
-1.4707e-08
5.32096e-08
-1.4494e-08
5.65555e-08
-1.41799e-08
5.9797e-08
-1.3769e-08
6.2914e-08
-1.32659e-08
6.58873e-08
-1.26758e-08
6.86991e-08
-1.20042e-08
7.13326e-08
-1.12568e-08
7.37725e-08
-1.04396e-08
7.60048e-08
-9.55871e-09
7.80168e-08
-8.62055e-09
7.97972e-08
-7.63156e-09
8.13363e-08
-6.59831e-09
8.26257e-08
-5.52745e-09
8.36584e-08
-4.42564e-09
8.44292e-08
-3.29961e-09
8.49339e-08
-2.15607e-09
8.51702e-08
-1.00172e-09
8.51372e-08
1.56763e-10
8.48352e-08
1.31274e-09
8.42663e-08
2.45961e-09
8.34339e-08
3.59086e-09
8.23428e-08
4.70002e-09
8.09993e-08
5.78073e-09
7.94111e-08
6.8267e-09
7.75873e-08
7.83175e-09
7.55381e-08
8.78981e-09
7.32754e-08
9.69495e-09
7.08122e-08
1.05414e-08
6.81625e-08
1.13234e-08
6.5342e-08
1.20356e-08
6.23672e-08
1.26727e-08
5.92558e-08
1.32296e-08
5.60264e-08
1.37015e-08
5.26989e-08
1.4084e-08
4.92938e-08
1.43729e-08
4.58324e-08
1.45643e-08
4.23369e-08
1.4655e-08
3.883e-08
1.4642e-08
3.5335e-08
1.45231e-08
3.18754e-08
1.42968e-08
2.8475e-08
1.39621e-08
2.51579e-08
1.35192e-08
2.19479e-08
1.29691e-08
1.88689e-08
1.2314e-08
1.59444e-08
1.15575e-08
1.31973e-08
1.07047e-08
1.06502e-08
9.76212e-09
8.32513e-09
8.73852e-09
6.24324e-09
7.6446e-09
4.42529e-09
6.49345e-09
2.89147e-09
5.30071e-09
1.66173e-09
4.08482e-09
7.56028e-10
2.86723e-09
1.94872e-10
1.6728e-09
5.30471e-10
2.28805e-10
-7.58172e-10
8.87381e-10
-2.33299e-09
1.949e-09
-3.93747e-09
3.38781e-09
-5.54321e-09
5.1783e-09
-7.12515e-09
7.29506e-09
-8.66116e-09
9.7125e-09
-1.01318e-08
1.24047e-08
-1.15202e-08
1.53454e-08
-1.28121e-08
1.85079e-08
-1.39954e-08
2.18649e-08
-1.50603e-08
2.53893e-08
-1.59991e-08
2.90532e-08
-1.68058e-08
3.28289e-08
-1.74763e-08
3.66887e-08
-1.80079e-08
4.06051e-08
-1.83995e-08
4.45508e-08
-1.8651e-08
4.84991e-08
-1.87637e-08
5.24237e-08
-1.87398e-08
5.62991e-08
-1.85824e-08
6.01007e-08
-1.82956e-08
6.38047e-08
-1.78839e-08
6.73885e-08
-1.73527e-08
7.08305e-08
-1.67079e-08
7.41103e-08
-1.59557e-08
7.7209e-08
-1.51029e-08
8.01087e-08
-1.41565e-08
8.27931e-08
-1.3124e-08
8.52473e-08
-1.2013e-08
8.7458e-08
-1.08312e-08
8.94131e-08
-9.58669e-09
9.11023e-08
-8.28753e-09
9.25168e-08
-6.9419e-09
9.36492e-08
-5.55805e-09
9.44938e-08
-4.14424e-09
9.50465e-08
-2.70876e-09
9.53047e-08
-1.25989e-09
9.52673e-08
1.94134e-10
9.49349e-08
1.6451e-09
9.43097e-08
3.08487e-09
9.33951e-08
4.50539e-09
9.21965e-08
5.89866e-09
9.07204e-08
7.25681e-09
8.8975e-08
8.57207e-09
8.69699e-08
9.83681e-09
8.47163e-08
1.10435e-08
8.22264e-08
1.21848e-08
7.95141e-08
1.32536e-08
7.65947e-08
1.42428e-08
7.34844e-08
1.51458e-08
7.02011e-08
1.5956e-08
6.67637e-08
1.66671e-08
6.3192e-08
1.72732e-08
5.95072e-08
1.77688e-08
5.57314e-08
1.81487e-08
5.18876e-08
1.84081e-08
4.79996e-08
1.8543e-08
4.40919e-08
1.85497e-08
4.01897e-08
1.84253e-08
3.63188e-08
1.81676e-08
3.25053e-08
1.77755e-08
2.87758e-08
1.72487e-08
2.51568e-08
1.65881e-08
2.16752e-08
1.57957e-08
1.83576e-08
1.48751e-08
1.52308e-08
1.38315e-08
1.23212e-08
1.26717e-08
9.65512e-09
1.14046e-08
7.25864e-09
1.00411e-08
5.15767e-09
8.59441e-09
3.37806e-09
7.08031e-09
1.94578e-09
5.51709e-09
8.8715e-10
3.92585e-09
2.29173e-10
2.33076e-09
7.59643e-10
2.61508e-10
-1.01968e-09
1.01335e-09
-3.08482e-09
2.22347e-09
-5.1476e-09
3.86037e-09
-7.1801e-09
5.8928e-09
-9.15759e-09
8.28969e-09
-1.1058e-08
1.102e-08
-1.28621e-08
1.40525e-08
-1.45527e-08
1.7356e-08
-1.61156e-08
2.08993e-08
-1.75386e-08
2.46509e-08
-1.88119e-08
2.85794e-08
-1.99276e-08
3.26537e-08
-2.08801e-08
3.68427e-08
-2.16653e-08
4.11156e-08
-2.22808e-08
4.54422e-08
-2.2726e-08
4.97926e-08
-2.30014e-08
5.41379e-08
-2.3109e-08
5.84497e-08
-2.30516e-08
6.27007e-08
-2.28335e-08
6.68646e-08
-2.24594e-08
7.0916e-08
-2.19353e-08
7.48308e-08
-2.12676e-08
7.85863e-08
-2.04634e-08
8.2161e-08
-1.95304e-08
8.55349e-08
-1.84767e-08
8.86892e-08
-1.73108e-08
9.16068e-08
-1.60417e-08
9.42722e-08
-1.46784e-08
9.66713e-08
-1.32303e-08
9.87917e-08
-1.17071e-08
1.00622e-07
-1.01183e-08
1.02154e-07
-8.47391e-09
1.0338e-07
-6.78367e-09
1.04293e-07
-5.05754e-09
1.0489e-07
-3.30543e-09
1.05167e-07
-1.53727e-09
1.05125e-07
2.37082e-10
1.04762e-07
2.00778e-09
1.04082e-07
3.76508e-09
1.03088e-07
5.49929e-09
1.01786e-07
7.20085e-09
1.00182e-07
8.86031e-09
9.82858e-08
1.04683e-08
9.61068e-08
1.20158e-08
9.36568e-08
1.34936e-08
9.09487e-08
1.48929e-08
8.7997e-08
1.62052e-08
8.48178e-08
1.74221e-08
8.14283e-08
1.85353e-08
7.78472e-08
1.95371e-08
7.40943e-08
2.04199e-08
7.01909e-08
2.11766e-08
6.61593e-08
2.18004e-08
6.2023e-08
2.2285e-08
5.78064e-08
2.26247e-08
5.35351e-08
2.28144e-08
4.92353e-08
2.28494e-08
4.49343e-08
2.27263e-08
4.066e-08
2.2442e-08
3.64408e-08
2.19947e-08
3.23059e-08
2.13836e-08
2.82848e-08
2.06092e-08
2.44073e-08
1.96731e-08
2.07036e-08
1.85788e-08
1.72041e-08
1.7331e-08
1.39394e-08
1.59364e-08
1.094e-08
1.44039e-08
8.237e-09
1.27441e-08
5.86123e-09
1.09702e-08
3.84396e-09
9.09756e-09
2.21679e-09
7.14426e-09
1.01175e-09
5.13087e-09
2.61605e-10
3.0809e-09
1.02125e-09
2.93467e-10
-1.31315e-09
1.13665e-09
-3.92801e-09
2.49254e-09
-6.50349e-09
4.3243e-09
-9.01187e-09
6.59527e-09
-1.14286e-08
9.26889e-09
-1.37317e-08
1.23087e-08
-1.59019e-08
1.56785e-08
-1.79225e-08
1.93421e-08
-1.97792e-08
2.32634e-08
-2.14599e-08
2.74067e-08
-2.29552e-08
3.17367e-08
-2.42577e-08
3.62184e-08
-2.53618e-08
4.08173e-08
-2.62641e-08
4.54994e-08
-2.6963e-08
5.02318e-08
-2.74584e-08
5.49821e-08
-2.77517e-08
5.97188e-08
-2.78457e-08
6.44117e-08
-2.77445e-08
6.90315e-08
-2.74532e-08
7.35502e-08
-2.69781e-08
7.7941e-08
-2.63261e-08
8.21785e-08
-2.55052e-08
8.62389e-08
-2.45238e-08
9.00995e-08
-2.3391e-08
9.37395e-08
-2.21167e-08
9.71395e-08
-2.07107e-08
1.00282e-07
-1.91837e-08
1.0315e-07
-1.75464e-08
1.05729e-07
-1.58098e-08
1.08007e-07
-1.39851e-08
1.09973e-07
-1.20838e-08
1.11616e-07
-1.01173e-08
1.1293e-07
-8.09724e-09
1.13907e-07
-6.03516e-09
1.14544e-07
-3.94271e-09
1.14839e-07
-1.83148e-09
1.14789e-07
2.86945e-10
1.14396e-07
2.40107e-09
1.13661e-07
4.49947e-09
1.1259e-07
6.57081e-09
1.11187e-07
8.60388e-09
1.09459e-07
1.05876e-08
1.07417e-07
1.2511e-08
1.05069e-07
1.43634e-08
1.02428e-07
1.61341e-08
9.95085e-08
1.78128e-08
9.63244e-08
1.93894e-08
9.28926e-08
2.08538e-08
8.92312e-08
2.21967e-08
8.53597e-08
2.34086e-08
8.12991e-08
2.44806e-08
7.70714e-08
2.54043e-08
7.27002e-08
2.61715e-08
6.82103e-08
2.67749e-08
6.36277e-08
2.72073e-08
5.89795e-08
2.74626e-08
5.42937e-08
2.75352e-08
4.95997e-08
2.74203e-08
4.49273e-08
2.71143e-08
4.03077e-08
2.66143e-08
3.57726e-08
2.59188e-08
3.13543e-08
2.50274e-08
2.7086e-08
2.39414e-08
2.30014e-08
2.26634e-08
1.91345e-08
2.11978e-08
1.55202e-08
1.95508e-08
1.21934e-08
1.77306e-08
9.18975e-09
1.57478e-08
6.54516e-09
1.36148e-08
4.29603e-09
1.13467e-08
2.47924e-09
8.96105e-09
1.13218e-09
6.47792e-09
2.92877e-10
3.9202e-09
1.31412e-09
3.25398e-10
-1.63855e-09
1.25974e-09
-4.86235e-09
2.76103e-09
-8.00478e-09
4.78716e-09
-1.1038e-08
7.29606e-09
-1.39374e-08
1.02458e-08
-1.66814e-08
1.35945e-08
-1.92506e-08
1.73007e-08
-2.16288e-08
2.13234e-08
-2.38018e-08
2.56217e-08
-2.57583e-08
3.01556e-08
-2.74891e-08
3.48855e-08
-2.89875e-08
3.97726e-08
-3.02488e-08
4.47789e-08
-3.12704e-08
4.98673e-08
-3.20515e-08
5.50019e-08
-3.2593e-08
6.01477e-08
-3.28975e-08
6.52711e-08
-3.2969e-08
7.03395e-08
-3.28129e-08
7.5322e-08
-3.24357e-08
8.01889e-08
-3.1845e-08
8.4912e-08
-3.10492e-08
8.94647e-08
-3.00579e-08
9.38221e-08
-2.88811e-08
9.79607e-08
-2.75296e-08
1.01859e-07
-2.60147e-08
1.05496e-07
-2.43482e-08
1.08855e-07
-2.25423e-08
1.11918e-07
-2.06094e-08
1.1467e-07
-1.85624e-08
1.17099e-07
-1.64142e-08
1.19193e-07
-1.41779e-08
1.20943e-07
-1.18667e-08
1.2234e-07
-9.49407e-09
1.23378e-07
-7.07324e-09
1.24053e-07
-4.61759e-09
1.24362e-07
-2.14046e-09
1.24304e-07
3.44882e-10
1.2388e-07
2.82521e-09
1.23092e-07
5.28739e-09
1.21944e-07
7.71841e-09
1.20443e-07
1.01054e-08
1.18595e-07
1.24355e-08
1.16409e-07
1.46963e-08
1.13898e-07
1.68752e-08
1.11072e-07
1.89601e-08
1.07945e-07
2.0939e-08
1.04535e-07
2.28001e-08
1.00856e-07
2.45321e-08
9.69295e-08
2.61236e-08
9.2774e-08
2.7564e-08
8.84119e-08
2.88428e-08
8.38661e-08
2.995e-08
7.91614e-08
3.08762e-08
7.43238e-08
3.16124e-08
6.93807e-08
3.21504e-08
6.43608e-08
3.24825e-08
5.9294e-08
3.2602e-08
5.42115e-08
3.25028e-08
4.91456e-08
3.21802e-08
4.41296e-08
3.16302e-08
3.91982e-08
3.08502e-08
3.43866e-08
2.9839e-08
2.97312e-08
2.85968e-08
2.52693e-08
2.71253e-08
2.10389e-08
2.54282e-08
1.70787e-08
2.35109e-08
1.34283e-08
2.1381e-08
1.01278e-08
1.90482e-08
7.21811e-09
1.65245e-08
4.74056e-09
1.38242e-08
2.73717e-09
1.09644e-08
1.25049e-09
7.96458e-09
3.23589e-10
4.84708e-09
1.63771e-09
3.57875e-10
-1.99643e-09
1.3846e-09
-5.88907e-09
3.03286e-09
-9.65304e-09
5.25508e-09
-1.32602e-08
8.00357e-09
-1.66859e-08
1.12309e-08
-1.99086e-08
1.48897e-08
-2.29095e-08
1.89333e-08
-2.56724e-08
2.33155e-08
-2.8184e-08
2.79908e-08
-3.04336e-08
3.29145e-08
-3.24128e-08
3.80429e-08
-3.41159e-08
4.33333e-08
-3.55393e-08
4.87442e-08
-3.66813e-08
5.42354e-08
-3.75426e-08
5.97679e-08
-3.81255e-08
6.53042e-08
-3.84338e-08
7.08083e-08
-3.84732e-08
7.62457e-08
-3.82504e-08
8.15838e-08
-3.77737e-08
8.67912e-08
-3.70524e-08
9.18385e-08
-3.60965e-08
9.66979e-08
-3.49174e-08
1.01344e-07
-3.35268e-08
1.05751e-07
-3.19374e-08
1.09899e-07
-3.01621e-08
1.13765e-07
-2.82147e-08
1.17332e-07
-2.61091e-08
1.20582e-07
-2.38596e-08
1.235e-07
-2.14807e-08
1.26074e-07
-1.89874e-08
1.2829e-07
-1.63944e-08
1.3014e-07
-1.37168e-08
1.31616e-07
-1.09697e-08
1.32711e-07
-8.16822e-09
1.33421e-07
-5.32748e-09
1.33743e-07
-2.46254e-09
1.33676e-07
4.11563e-10
1.33221e-07
3.27989e-09
1.32381e-07
6.12759e-09
1.3116e-07
8.93993e-09
1.29563e-07
1.17023e-08
1.27598e-07
1.44003e-08
1.25275e-07
1.70195e-08
1.22604e-07
1.9546e-08
1.19598e-07
2.19658e-08
1.16272e-07
2.42653e-08
1.12641e-07
2.64311e-08
1.08723e-07
2.845e-08
1.04537e-07
3.03093e-08
1.00105e-07
3.19965e-08
9.54477e-08
3.34997e-08
9.05905e-08
3.48072e-08
8.55588e-08
3.59079e-08
8.03798e-08
3.67915e-08
7.50821e-08
3.74481e-08
6.9696e-08
3.78686e-08
6.42534e-08
3.80447e-08
5.87872e-08
3.7969e-08
5.3332e-08
3.76353e-08
4.79238e-08
3.70384e-08
4.25997e-08
3.61743e-08
3.73981e-08
3.50406e-08
3.23588e-08
3.36361e-08
2.75225e-08
3.19616e-08
2.29311e-08
3.00196e-08
1.86275e-08
2.78145e-08
1.46557e-08
2.53529e-08
1.10604e-08
2.26435e-08
7.88727e-09
1.96976e-08
5.18274e-09
1.65288e-08
2.99386e-09
1.31533e-08
1.36831e-09
9.59012e-09
3.54217e-10
5.86116e-09
1.99192e-09
3.91324e-10
-2.38775e-09
1.51267e-09
-7.01041e-09
3.31086e-09
-1.14512e-08
5.73238e-09
-1.56817e-08
8.72364e-09
-1.96772e-08
1.22313e-08
-2.34163e-08
1.62025e-08
-2.68807e-08
2.0585e-08
-3.00549e-08
2.53274e-08
-3.29264e-08
3.03793e-08
-3.54855e-08
3.56914e-08
-3.7725e-08
4.12159e-08
-3.96404e-08
4.69061e-08
-4.12295e-08
5.2717e-08
-4.24923e-08
5.86052e-08
-4.34308e-08
6.45289e-08
-4.40491e-08
7.0448e-08
-4.43529e-08
7.63244e-08
-4.43495e-08
8.21216e-08
-4.40477e-08
8.78053e-08
-4.34574e-08
9.33428e-08
-4.25899e-08
9.87035e-08
-4.14572e-08
1.03859e-07
-4.00726e-08
1.08782e-07
-3.84498e-08
1.13448e-07
-3.66032e-08
1.17834e-07
-3.45481e-08
1.21919e-07
-3.22997e-08
1.25684e-07
-2.98742e-08
1.29112e-07
-2.72875e-08
1.32187e-07
-2.45563e-08
1.34897e-07
-2.16971e-08
1.37229e-07
-1.87267e-08
1.39174e-07
-1.56619e-08
1.40724e-07
-1.25196e-08
1.41873e-07
-9.31675e-09
1.42615e-07
-6.07018e-09
1.4295e-07
-2.79675e-09
1.42874e-07
4.86796e-10
1.42391e-07
3.76377e-09
1.41501e-07
7.0176e-09
1.40209e-07
1.02318e-08
1.38521e-07
1.33902e-08
1.36445e-07
1.64764e-08
1.3399e-07
1.94746e-08
1.31167e-07
2.23689e-08
1.27989e-07
2.51437e-08
1.24471e-07
2.77837e-08
1.20628e-07
3.02737e-08
1.16479e-07
3.25989e-08
1.12044e-07
3.47447e-08
1.07343e-07
3.66971e-08
1.02401e-07
3.84422e-08
9.72408e-08
3.99668e-08
9.18906e-08
4.12581e-08
8.63783e-08
4.23039e-08
8.07338e-08
4.30926e-08
7.49889e-08
4.36134e-08
6.91771e-08
4.38564e-08
6.33335e-08
4.38127e-08
5.74947e-08
4.34741e-08
5.16992e-08
4.28339e-08
4.59869e-08
4.18867e-08
4.03992e-08
4.06282e-08
3.49792e-08
3.90561e-08
2.97711e-08
3.71696e-08
2.48209e-08
3.49698e-08
2.01756e-08
3.24598e-08
1.58835e-08
2.96449e-08
1.19941e-08
2.65329e-08
8.55796e-09
2.31337e-08
5.62643e-09
1.94603e-08
3.25177e-09
1.55279e-08
1.48689e-09
1.1355e-08
3.85112e-10
6.96292e-09
2.37703e-09
4.26013e-10
-2.81377e-09
1.64481e-09
-8.22921e-09
3.59662e-09
-1.34031e-08
6.22137e-09
-1.83065e-08
9.45906e-09
-2.29149e-08
1.32501e-08
-2.72074e-08
1.75357e-08
-3.11663e-08
2.22579e-08
-3.47771e-08
2.73599e-08
-3.80284e-08
3.27864e-08
-4.09119e-08
3.84834e-08
-4.3422e-08
4.43988e-08
-4.55558e-08
5.04821e-08
-4.73128e-08
5.66849e-08
-4.8695e-08
6.29605e-08
-4.97064e-08
6.92644e-08
-5.03531e-08
7.55544e-08
-5.06429e-08
8.179e-08
-5.05852e-08
8.79332e-08
-5.01909e-08
9.39481e-08
-4.94723e-08
9.98009e-08
-4.84426e-08
1.0546e-07
-4.71162e-08
1.10896e-07
-4.55084e-08
1.16081e-07
-4.3635e-08
1.2099e-07
-4.15127e-08
1.25601e-07
-3.91585e-08
1.29891e-07
-3.659e-08
1.33842e-07
-3.3825e-08
1.37436e-07
-3.08819e-08
1.40659e-07
-2.77788e-08
1.43496e-07
-2.45343e-08
1.45936e-07
-2.11671e-08
1.4797e-07
-1.76958e-08
1.4959e-07
-1.41391e-08
1.50789e-07
-1.05157e-08
1.51563e-07
-6.84413e-09
1.51909e-07
-3.14306e-09
1.51827e-07
5.69048e-10
1.51317e-07
4.27381e-09
1.50381e-07
7.95293e-09
1.49025e-07
1.15883e-08
1.47253e-07
1.51618e-08
1.45074e-07
1.86556e-08
1.42497e-07
2.2052e-08
1.39532e-07
2.53335e-08
1.36193e-07
2.84826e-08
1.32494e-07
3.14823e-08
1.28452e-07
3.43157e-08
1.24085e-07
3.69661e-08
1.19413e-07
3.94172e-08
1.14457e-07
4.16529e-08
1.09241e-07
4.36578e-08
1.03792e-07
4.54166e-08
9.81352e-08
4.69146e-08
9.23013e-08
4.81378e-08
8.63211e-08
4.90727e-08
8.0228e-08
4.97066e-08
7.40568e-08
5.00276e-08
6.78447e-08
5.00248e-08
6.16304e-08
4.96883e-08
5.54548e-08
4.90095e-08
4.93605e-08
4.79809e-08
4.33921e-08
4.65967e-08
3.75957e-08
4.48525e-08
3.20194e-08
4.27459e-08
2.6713e-08
4.02762e-08
2.17277e-08
3.74451e-08
1.71163e-08
3.42563e-08
1.29331e-08
3.07161e-08
9.23345e-09
2.68333e-08
6.07407e-09
2.26196e-08
3.51249e-09
1.80895e-08
1.60702e-09
1.32604e-08
4.16505e-10
8.15342e-09
2.79353e-09
4.62049e-10
-3.27582e-09
1.78128e-09
-9.54844e-09
3.8904e-09
-1.55122e-08
6.72203e-09
-2.11381e-08
1.02091e-08
-2.6402e-08
1.42855e-08
-3.12837e-08
1.88858e-08
-3.57666e-08
2.39462e-08
-3.98375e-08
2.94044e-08
-4.34866e-08
3.51999e-08
-4.67074e-08
4.12741e-08
-4.94962e-08
4.75706e-08
-5.18523e-08
5.40352e-08
-5.37774e-08
6.0616e-08
-5.52758e-08
6.72635e-08
-5.63539e-08
7.39307e-08
-5.70203e-08
8.05731e-08
-5.72852e-08
8.71486e-08
-5.71606e-08
9.36174e-08
-5.66598e-08
9.99427e-08
-5.57975e-08
1.06089e-07
-5.45894e-08
1.12026e-07
-5.30523e-08
1.17721e-07
-5.12038e-08
1.23148e-07
-4.9062e-08
1.28281e-07
-4.66459e-08
1.33097e-07
-4.39746e-08
1.37575e-07
-4.10678e-08
1.41696e-07
-3.79455e-08
1.45442e-07
-3.46279e-08
1.48798e-07
-3.11353e-08
1.51752e-07
-2.7488e-08
1.54291e-07
-2.37066e-08
1.56407e-07
-1.98115e-08
1.58091e-07
-1.58233e-08
1.59338e-07
-1.17622e-08
1.60142e-07
-7.64862e-09
1.60502e-07
-3.50289e-09
1.60416e-07
6.54857e-10
1.59886e-07
4.80455e-09
1.58912e-07
8.92624e-09
1.575e-07
1.30001e-08
1.55656e-07
1.70064e-08
1.53386e-07
2.09255e-08
1.507e-07
2.47381e-08
1.47608e-07
2.84248e-08
1.44124e-07
3.19666e-08
1.40262e-07
3.53444e-08
1.36038e-07
3.85396e-08
1.31471e-07
4.15337e-08
1.26579e-07
4.43084e-08
1.21387e-07
4.68457e-08
1.15916e-07
4.91281e-08
1.10195e-07
5.11384e-08
1.04249e-07
5.28599e-08
9.81107e-08
5.42764e-08
9.1811e-08
5.53723e-08
8.53848e-08
5.61328e-08
7.88685e-08
5.65438e-08
7.2301e-08
5.65923e-08
6.57232e-08
5.62662e-08
5.91782e-08
5.55545e-08
5.27114e-08
5.44477e-08
4.63702e-08
5.29379e-08
4.02042e-08
5.10185e-08
3.4265e-08
4.8685e-08
2.86064e-08
4.59349e-08
2.32838e-08
4.27676e-08
1.83548e-08
3.91854e-08
1.38783e-08
3.51926e-08
9.91489e-09
3.07967e-08
6.52667e-09
2.60079e-08
3.77671e-09
2.08394e-08
1.72909e-09
1.5308e-08
4.48521e-10
9.43397e-09
3.24205e-09
4.99365e-10
-3.77518e-09
1.92163e-09
-1.09707e-08
4.19095e-09
-1.77815e-08
7.23177e-09
-2.41789e-08
1.09693e-08
-3.01396e-08
1.533e-08
-3.56444e-08
2.02419e-08
-4.06785e-08
2.56349e-08
-4.52304e-08
3.14409e-08
-4.92926e-08
3.75941e-08
-5.28607e-08
4.40315e-08
-5.59336e-08
5.06924e-08
-5.85132e-08
5.75189e-08
-6.06039e-08
6.44561e-08
-6.2213e-08
7.14519e-08
-6.33497e-08
7.84568e-08
-6.40253e-08
8.54246e-08
-6.4253e-08
9.23116e-08
-6.40476e-08
9.90772e-08
-6.34254e-08
1.05683e-07
-6.24036e-08
1.12095e-07
-6.10008e-08
1.18279e-07
-5.92364e-08
1.24205e-07
-5.71303e-08
1.29846e-07
-5.47033e-08
1.35177e-07
-5.19766e-08
1.40174e-07
-4.89717e-08
1.44817e-07
-4.57104e-08
1.49086e-07
-4.22149e-08
1.52966e-07
-3.85072e-08
1.5644e-07
-3.46098e-08
1.59497e-07
-3.05447e-08
1.62125e-07
-2.63345e-08
1.64314e-07
-2.20011e-08
1.66058e-07
-1.75669e-08
1.6735e-07
-1.3054e-08
1.68185e-07
-8.48424e-09
1.68562e-07
-3.87962e-09
1.68479e-07
7.38109e-10
1.67936e-07
5.34727e-09
1.66936e-07
9.92628e-09
1.65482e-07
1.44537e-08
1.63581e-07
1.89082e-08
1.61238e-07
2.32684e-08
1.58462e-07
2.75133e-08
1.55265e-07
3.16219e-08
1.51659e-07
3.55732e-08
1.47657e-07
3.93465e-08
1.43275e-07
4.29211e-08
1.38532e-07
4.62766e-08
1.33448e-07
4.93928e-08
1.28044e-07
5.22498e-08
1.22344e-07
5.48277e-08
1.16375e-07
5.71072e-08
1.10166e-07
5.90694e-08
1.03746e-07
6.06958e-08
9.71502e-08
6.19686e-08
9.04126e-08
6.28704e-08
8.35716e-08
6.33848e-08
7.66677e-08
6.34963e-08
6.97437e-08
6.31902e-08
6.28449e-08
6.24532e-08
5.60194e-08
6.12732e-08
4.93175e-08
5.96398e-08
4.27921e-08
5.75439e-08
3.64985e-08
5.49786e-08
3.04943e-08
5.19391e-08
2.48394e-08
4.84225e-08
1.95959e-08
4.44288e-08
1.48279e-08
3.99606e-08
1.06013e-08
3.50232e-08
6.9838e-09
2.96254e-08
4.04434e-09
2.37789e-08
1.85312e-09
1.74992e-08
4.81176e-10
1.08059e-08
3.72322e-09
5.37695e-10
-4.31288e-09
2.06468e-09
-1.24977e-08
4.49536e-09
-2.02122e-08
7.74505e-09
-2.74286e-08
1.17305e-08
-3.4125e-08
1.63703e-08
-4.02842e-08
2.15852e-08
-4.58934e-08
2.72986e-08
-5.09438e-08
3.34366e-08
-5.54306e-08
3.99283e-08
-5.93524e-08
4.67059e-08
-6.27112e-08
5.37048e-08
-6.55121e-08
6.08638e-08
-6.7763e-08
6.81252e-08