/*--------------------------------*- C++ -*----------------------------------*\
  =========                 |
  \\      /  F ield         | OpenFOAM: The Open Source CFD Toolbox
   \\    /   O peration     | Website:  https://openfoam.org
    \\  /    A nd           | Version:  12
     \\/     M anipulation  |
\*---------------------------------------------------------------------------*/
FoamFile
{
    format      ascii;
    class       volVectorField;
    location    "0.8";
    object      U;
}
// * * * * * * * * * * * * * * * * * * * * * * * * * * * * * * * * * * * * * //

dimensions      [0 1 -1 0 0 0 0];

internalField   nonuniform List<vector> 
900
(
(0.000363237 -0.000155498 0)
(-3.93084e-05 8.38966e-05 0)
(-0.00225437 0.000246927 0)
(-0.00567851 0.00033233 0)
(-0.00968758 0.000360441 0)
(-0.0137992 0.00034974 0)
(-0.0176862 0.000316658 0)
(-0.0211601 0.000273097 0)
(-0.0241373 0.000227087 0)
(-0.0266052 0.000183461 0)
(-0.028594 0.000144651 0)
(-0.0301537 0.000111371 0)
(-0.0313384 8.31791e-05 0)
(-0.0321945 5.88023e-05 0)
(-0.0327535 3.65791e-05 0)
(-0.0330264 1.46458e-05 0)
(-0.033004 -9.57689e-06 0)
(-0.0326498 -3.78806e-05 0)
(-0.0319085 -7.25665e-05 0)
(-0.0307055 -0.000115119 0)
(-0.0289578 -0.000166143 0)
(-0.0265881 -0.00022461 0)
(-0.0235467 -0.000287064 0)
(-0.019842 -0.000346753 0)
(-0.0155764 -0.000392913 0)
(-0.0109849 -0.000410537 0)
(-0.00646831 -0.000380559 0)
(-0.00259843 -0.000283457 0)
(-8.81212e-05 -9.95085e-05 0)
(0.000393255 0.00016746 0)
(0.000359681 -0.000151012 0)
(-0.00181022 0.00143838 0)
(-0.00815614 0.00291103 0)
(-0.0174165 0.00379302 0)
(-0.0281515 0.00413421 0)
(-0.0391819 0.00407149 0)
(-0.0496671 0.00375001 0)
(-0.0590993 0.00329029 0)
(-0.067236 0.00278059 0)
(-0.0740218 0.00227842 0)
(-0.0795173 0.00181577 0)
(-0.0838409 0.00140508 0)
(-0.0871258 0.00104477 0)
(-0.0894881 0.000723474 0)
(-0.0910079 0.000423407 0)
(-0.0917101 0.000124877 0)
(-0.091572 -0.000197677 0)
(-0.0904991 -0.000565719 0)
(-0.0883491 -0.000999527 0)
(-0.0849348 -0.00151227 0)
(-0.0800515 -0.00210521 0)
(-0.0735154 -0.00276105 0)
(-0.0652214 -0.00343635 0)
(-0.0552183 -0.00405452 0)
(-0.0437976 -0.00450186 0)
(-0.0315818 -0.00463047 0)
(-0.0195881 -0.00427361 0)
(-0.00920689 -0.00328759 0)
(-0.00208358 -0.00163703 0)
(0.000381797 0.000142585 0)
(7.86331e-05 0.000463343 0)
(-0.00443448 0.00435139 0)
(-0.0147456 0.00791283 0)
(-0.0291268 0.0101111 0)
(-0.0455854 0.0109905 0)
(-0.0624541 0.0108491 0)
(-0.0785075 0.0100324 0)
(-0.0929862 0.00884157 0)
(-0.105514 0.0075042 0)
(-0.115993 0.00617231 0)
(-0.1245 0.00493279 0)
(-0.131202 0.00382153 0)
(-0.136291 0.00283699 0)
(-0.139936 0.00195152 0)
(-0.142254 0.0011197 0)
(-0.143282 0.000290332 0)
(-0.142983 -0.000600445 0)
(-0.141222 -0.00160893 0)
(-0.137788 -0.00278492 0)
(-0.132411 -0.00415963 0)
(-0.124797 -0.00573238 0)
(-0.114688 -0.00745388 0)
(-0.101946 -0.00920788 0)
(-0.0866623 -0.010795 0)
(-0.0692825 -0.0119259 0)
(-0.0507262 -0.0122337 0)
(-0.0324629 -0.011322 0)
(-0.0164516 -0.00887892 0)
(-0.00496709 -0.00490007 0)
(7.23638e-05 -0.000558881 0)
(-0.000268931 0.00184275 0)
(-0.00733617 0.00892845 0)
(-0.0214735 0.0151874 0)
(-0.0404641 0.0190819 0)
(-0.061877 0.0206468 0)
(-0.0836968 0.0203747 0)
(-0.104422 0.018866 0)
(-0.123111 0.0166594 0)
(-0.139293 0.0141691 0)
(-0.152841 0.0116763 0)
(-0.163847 0.00934389 0)
(-0.172519 0.00724109 0)
(-0.179094 0.00536749 0)
(-0.183784 0.00367404 0)
(-0.186736 0.00207915 0)
(-0.187998 0.000484989 0)
(-0.187521 -0.00121877 0)
(-0.185139 -0.00313795 0)
(-0.180594 -0.00536106 0)
(-0.17355 -0.00794235 0)
(-0.163647 -0.0108769 0)
(-0.15057 -0.0140704 0)
(-0.134155 -0.0173074 0)
(-0.114518 -0.0202236 0)
(-0.0922101 -0.0222962 0)
(-0.0683574 -0.0228726 0)
(-0.0447477 -0.0212641 0)
(-0.0237403 -0.0169546 0)
(-0.00810628 -0.00998074 0)
(-0.000302428 -0.00209513 0)
(-0.000608464 0.00402678 0)
(-0.0102318 0.0151247 0)
(-0.0280274 0.0245127 0)
(-0.0512124 0.0303211 0)
(-0.0769498 0.0326175 0)
(-0.102963 0.0321247 0)
(-0.127559 0.0297383 0)
(-0.149682 0.0262734 0)
(-0.168809 0.0223642 0)
(-0.184808 0.0184442 0)
(-0.197794 0.0147668 0)
(-0.208014 0.0114407 0)
(-0.215747 0.00846673 0)
(-0.22124 0.00577025 0)
(-0.224663 0.00322647 0)
(-0.226078 0.000683096 0)
(-0.225426 -0.00202805 0)
(-0.222522 -0.00506908 0)
(-0.217069 -0.00857504 0)
(-0.208687 -0.0126272 0)
(-0.19696 -0.0172156 0)
(-0.181526 -0.0221937 0)
(-0.162184 -0.0272298 0)
(-0.139049 -0.0317673 0)
(-0.112724 -0.0350122 0)
(-0.0844563 -0.0359799 0)
(-0.056247 -0.0336424 0)
(-0.0307522 -0.0272393 0)
(-0.0111982 -0.016805 0)
(-0.000662163 -0.00449568 0)
(-0.000919184 0.00698392 0)
(-0.012995 0.0228682 0)
(-0.0342472 0.0357264 0)
(-0.0612519 0.0435583 0)
(-0.090762 0.0465483 0)
(-0.120291 0.0456995 0)
(-0.148022 0.0422412 0)
(-0.172846 0.0372958 0)
(-0.194232 0.03174 0)
(-0.212072 0.0261745 0)
(-0.226519 0.0209509 0)
(-0.237862 0.0162199 0)
(-0.246419 0.0119822 0)
(-0.25247 0.00813326 0)
(-0.256207 0.00449944 0)
(-0.257703 0.000867297 0)
(-0.256896 -0.0029961 0)
(-0.253589 -0.00731565 0)
(-0.247459 -0.0122788 0)
(-0.238088 -0.0179984 0)
(-0.225017 -0.0244611 0)
(-0.207833 -0.0314659 0)
(-0.186287 -0.0385577 0)
(-0.160459 -0.0449719 0)
(-0.130944 -0.0496181 0)
(-0.0990397 -0.0511441 0)
(-0.0668743 -0.048137 0)
(-0.0373386 -0.0395336 0)
(-0.0141166 -0.0252759 0)
(-0.000986224 -0.00771565 0)
(-0.00119857 0.0106611 0)
(-0.015581 0.0320711 0)
(-0.0400656 0.0486869 0)
(-0.0705295 0.0585751 0)
(-0.1033 0.0621495 0)
(-0.135712 0.0607625 0)
(-0.165881 0.0560205 0)
(-0.1927 0.0493807 0)
(-0.215676 0.0419779 0)
(-0.234755 0.0345874 0)
(-0.250146 0.0276609 0)
(-0.262186 0.0213895 0)
(-0.271235 0.0157701 0)
(-0.277603 0.0106638 0)
(-0.281502 0.005843 0)
(-0.283017 0.00102806 0)
(-0.282089 -0.004084 0)
(-0.278513 -0.00978619 0)
(-0.271949 -0.0163237 0)
(-0.261953 -0.0238461 0)
(-0.248025 -0.0323418 0)
(-0.229695 -0.041559 0)
(-0.206651 -0.0509195 0)
(-0.1789 -0.0594452 0)
(-0.146975 -0.0657334 0)
(-0.11215 -0.068033 0)
(-0.0766148 -0.064494 0)
(-0.0434544 -0.0536699 0)
(-0.0168263 -0.0352868 0)
(-0.00127402 -0.0116907 0)
(-0.00145157 0.015004 0)
(-0.0179898 0.0426366 0)
(-0.0454733 0.0632502 0)
(-0.0790373 0.0751607 0)
(-0.114568 0.0791454 0)
(-0.149249 0.0769921 0)
(-0.181176 0.0707349 0)
(-0.209298 0.0621918 0)
(-0.233206 0.0527655 0)
(-0.25293 0.0434069 0)
(-0.268753 0.0346637 0)
(-0.281069 0.0267618 0)
(-0.290281 0.0196885 0)
(-0.296729 0.0132653 0)
(-0.300645 0.00720601 0)
(-0.302126 0.00116089 0)
(-0.301119 -0.00524713 0)
(-0.297418 -0.0123834 0)
(-0.290674 -0.020556 0)
(-0.280421 -0.0299576 0)
(-0.266123 -0.0405867 0)
(-0.24725 -0.0521498 0)
(-0.223402 -0.0639541 0)
(-0.194479 -0.0748115 0)
(-0.160897 -0.0829982 0)
(-0.123841 -0.0863352 0)
(-0.0854994 -0.0824744 0)
(-0.0491168 -0.0694846 0)
(-0.0193417 -0.0467277 0)
(-0.0015331 -0.0163591 0)
(-0.00168684 0.0199654 0)
(-0.0202479 0.0544683 0)
(-0.0504977 0.0792682 0)
(-0.0867971 0.0931012 0)
(-0.124581 0.097259 0)
(-0.160912 0.0940666 0)
(-0.193917 0.0860437 0)
(-0.222652 0.0753936 0)
(-0.246838 0.0637916 0)
(-0.266619 0.0523583 0)
(-0.282369 0.0417279 0)
(-0.294548 0.0321511 0)
(-0.303603 0.023598 0)
(-0.309903 0.0158442 0)
(-0.313698 0.00854071 0)
(-0.315098 0.00126488 0)
(-0.314059 -0.00643737 0)
(-0.310381 -0.0150071 0)
(-0.303712 -0.0248198 0)
(-0.293571 -0.0361187 0)
(-0.279387 -0.0489243 0)
(-0.260565 -0.0629163 0)
(-0.236603 -0.0773027 0)
(-0.207254 -0.0906977 0)
(-0.172767 -0.101055 0)
(-0.134169 -0.105741 0)
(-0.0935843 -0.10184 0)
(-0.0543795 -0.0868153 0)
(-0.0217043 -0.0594951 0)
(-0.00177483 -0.021671 0)
(-0.00191502 0.0255096 0)
(-0.0223973 0.0674774 0)
(-0.055189 0.0965915 0)
(-0.0938471 0.112176 0)
(-0.133357 0.116205 0)
(-0.170696 0.111658 0)
(-0.20408 0.101602 0)
(-0.232731 0.0886497 0)
(-0.256539 0.0747463 0)
(-0.275795 0.06117 0)
(-0.290978 0.048626 0)
(-0.302618 0.0373765 0)
(-0.311207 0.0273637 0)
(-0.31714 0.0183111 0)
(-0.320685 0.00980286 0)
(-0.321964 0.00134139 0)
(-0.320942 -0.00760533 0)
(-0.317432 -0.0175563 0)
(-0.311088 -0.0289591 0)
(-0.30142 -0.0421173 0)
(-0.287826 -0.0570861 0)
(-0.269645 -0.0735384 0)
(-0.246253 -0.0906067 0)
(-0.217231 -0.106728 0)
(-0.182604 -0.119542 0)
(-0.143177 -0.125934 0)
(-0.100935 -0.122348 0)
(-0.0593158 -0.105502 0)
(-0.0239705 -0.0734992 0)
(-0.00201251 -0.0275924 0)
(-0.00214841 0.0316161 0)
(-0.0244911 0.0815875 0)
(-0.0596112 0.11507 0)
(-0.100232 0.132153 0)
(-0.140901 0.135684 0)
(-0.178569 0.129425 0)
(-0.211605 0.117058 0)
(-0.239457 0.10162 0)
(-0.26223 0.0853206 0)
(-0.280384 0.0695746 0)
(-0.294517 0.055137 0)
(-0.305233 0.0422636 0)
(-0.313061 0.030858 0)
(-0.318422 0.0205826 0)
(-0.321598 0.0109521 0)
(-0.322719 0.00139357 0)
(-0.321766 -0.00870229 0)
(-0.318564 -0.0199325 0)
(-0.312783 -0.0328234 0)
(-0.303934 -0.047747 0)
(-0.29139 -0.0648087 0)
(-0.274425 -0.0836988 0)
(-0.252288 -0.103505 0)
(-0.224358 -0.122519 0)
(-0.190388 -0.138081 0)
(-0.150884 -0.146583 0)
(-0.107611 -0.143744 0)
(-0.0640073 -0.125387 0)
(-0.0262056 -0.0886667 0)
(-0.00226081 -0.0341082 0)
(-0.00240139 0.0382818 0)
(-0.0265913 0.0967361 0)
(-0.0638359 0.134549 0)
(-0.105993 0.152783 0)
(-0.147202 0.155372 0)
(-0.184464 0.147005 0)
(-0.216385 0.132041 0)
(-0.242701 0.113958 0)
(-0.263777 0.0952063 0)
(-0.280262 0.0773103 0)
(-0.29288 0.0610475 0)
(-0.302304 0.046647 0)
(-0.309102 0.0339566 0)
(-0.313704 0.0225776 0)
(-0.316398 0.0119497 0)
(-0.317327 0.00142479 0)
(-0.316488 -0.00968246 0)
(-0.313725 -0.0220467 0)
(-0.308727 -0.0362727 0)
(-0.301019 -0.0528109 0)
(-0.289964 -0.0718366 0)
(-0.274776 -0.0930842 0)
(-0.254575 -0.115634 0)
(-0.228516 -0.137673 0)
(-0.196038 -0.156275 0)
(-0.157272 -0.167327 0)
(-0.113659 -0.165755 0)
(-0.0685353 -0.146309 0)
(-0.0284813 -0.104942 0)
(-0.00253621 -0.0412244 0)
(-0.00269147 0.0455244 0)
(-0.0287701 0.112876 0)
(-0.067938 0.15487 0)
(-0.111159 0.173791 0)
(-0.152215 0.174916 0)
(-0.188266 0.164008 0)
(-0.218253 0.146169 0)
(-0.242274 0.12531 0)
(-0.260988 0.104097 0)
(-0.275253 0.0841226 0)
(-0.285912 0.0661551 0)
(-0.293705 0.0503721 0)
(-0.29922 0.0365547 0)
(-0.302892 0.0242288 0)
(-0.305009 0.0127632 0)
(-0.305719 0.00143839 0)
(-0.305034 -0.0105035 0)
(-0.302824 -0.0238128 0)
(-0.298807 -0.0391747 0)
(-0.292537 -0.0571251 0)
(-0.283377 -0.0779261 0)
(-0.2705 -0.101388 0)
(-0.252904 -0.126628 0)
(-0.229514 -0.151779 0)
(-0.199411 -0.173696 0)
(-0.162272 -0.187774 0)
(-0.119094 -0.188075 0)
(-0.0729757 -0.168095 0)
(-0.0308758 -0.122284 0)
(-0.00285813 -0.0489701 0)
(-0.00304095 0.053386 0)
(-0.0311112 0.129973 0)
(-0.071991 0.175857 0)
(-0.115733 0.194869 0)
(-0.155848 0.19392 0)
(-0.189798 0.180013 0)
(-0.216977 0.159037 0)
(-0.237919 0.135319 0)
(-0.253612 0.111691 0)
(-0.265125 0.0897686 0)
(-0.273416 0.0702709 0)
(-0.27927 0.0532984 0)
(-0.283281 0.0385493 0)
(-0.285877 0.0254716 0)
(-0.287335 0.013363 0)
(-0.287803 0.00143726 0)
(-0.287305 -0.01113 0)
(-0.285742 -0.0251593 0)
(-0.282875 -0.0414146 0)
(-0.278297 -0.060523 0)
(-0.271398 -0.0828503 0)
(-0.26133 -0.108314 0)
(-0.246989 -0.136118 0)
(-0.227073 -0.164408 0)
(-0.200279 -0.189885 0)
(-0.165748 -0.207485 0)
(-0.123891 -0.210357 0)
(-0.0773918 -0.190554 0)
(-0.0334753 -0.140667 0)
(-0.00325059 -0.0574004 0)
(-0.00347917 0.061938 0)
(-0.0337128 0.148006 0)
(-0.0760606 0.197311 0)
(-0.119679 0.215656 0)
(-0.157941 0.211939 0)
(-0.188797 0.194559 0)
(-0.212236 0.170219 0)
(-0.229298 0.14362 0)
(-0.241325 0.117694 0)
(-0.249591 0.094021 0)
(-0.255148 0.073225 0)
(-0.258799 0.0553029 0)
(-0.261126 0.0398571 0)
(-0.262528 0.0262546 0)
(-0.263262 0.0137251 0)
(-0.263465 0.00142285 0)
(-0.263178 -0.0115338 0)
(-0.262335 -0.0260274 0)
(-0.260747 -0.042896 0)
(-0.25807 -0.0628604 0)
(-0.253744 -0.0864046 0)
(-0.246931 -0.113585 0)
(-0.236459 -0.143745 0)
(-0.22082 -0.17512 0)
(-0.198315 -0.204343 0)
(-0.167473 -0.225963 0)
(-0.127965 -0.232195 0)
(-0.0818273 -0.21346 0)
(-0.0363758 -0.160069 0)
(-0.0037446 -0.0666005 0)
(-0.00404566 0.0712877 0)
(-0.0366901 0.166959 0)
(-0.0801941 0.21899 0)
(-0.1229 0.235731 0)
(-0.158238 0.228465 0)
(-0.184896 0.207143 0)
(-0.203605 0.179274 0)
(-0.215983 0.149855 0)
(-0.223733 0.121832 0)
(-0.228308 0.0966759 0)
(-0.230819 0.0748722 0)
(-0.232059 0.0562859 0)
(-0.232566 0.0404129 0)
(-0.232692 0.0265384 0)
(-0.232655 0.0138309 0)
(-0.23258 0.00139521 0)
(-0.232516 -0.0116955 0)
(-0.232437 -0.0263744 0)
(-0.232217 -0.0435456 0)
(-0.231592 -0.0640218 0)
(-0.230081 -0.0884148 0)
(-0.226901 -0.116948 0)
(-0.220855 -0.149161 0)
(-0.210273 -0.183463 0)
(-0.193072 -0.216537 0)
(-0.167111 -0.242648 0)
(-0.131152 -0.253106 0)
(-0.0862925 -0.236532 0)
(-0.0396852 -0.180468 0)
(-0.00438126 -0.0766912 0)
(-0.00479432 0.0815871 0)
(-0.0401769 0.18681 0)
(-0.0844018 0.240591 0)
(-0.125203 0.254582 0)
(-0.156356 0.242916 0)
(-0.177586 0.217219 0)
(-0.190533 0.185748 0)
(-0.197441 0.153674 0)
(-0.200357 0.123851 0)
(-0.200871 0.0975607 0)
(-0.200102 0.0750987 0)
(-0.19879 0.0561752 0)
(-0.197396 0.0401726 0)
(-0.196201 0.0262982 0)
(-0.195372 0.0136687 0)
(-0.19501 0.00135324 0)
(-0.195172 -0.0116055 0)
(-0.195873 -0.0261765 0)
(-0.197061 -0.0433174 0)
(-0.19857 -0.0639259 0)
(-0.200036 -0.0887452 0)
(-0.200773 -0.118189 0)
(-0.199627 -0.152044 0)
(-0.19483 -0.18899 0)
(-0.18396 -0.225896 0)
(-0.164178 -0.256904 0)
(-0.133169 -0.272509 0)
(-0.0907452 -0.259406 0)
(-0.0435228 -0.201824 0)
(-0.00521591 -0.087836 0)
(-0.00579915 0.0930437 0)
(-0.044324 0.207517 0)
(-0.0886256 0.261708 0)
(-0.126256 0.271587 0)
(-0.151733 0.254629 0)
(-0.166186 0.224203 0)
(-0.17232 0.189184 0)
(-0.173025 0.154756 0)
(-0.170641 0.123541 0)
(-0.166821 0.0965453 0)
(-0.162632 0.0738301 0)
(-0.158706 0.054932 0)
(-0.155395 0.0391182 0)
(-0.152882 0.0255263 0)
(-0.151268 0.0132354 0)
(-0.15062 0.00129508 0)
(-0.150999 -0.0112644 0)
(-0.152464 -0.0254301 0)
(-0.155046 -0.0421962 0)
(-0.158697 -0.0625322 0)
(-0.1632 -0.0873088 0)
(-0.168025 -0.117144 0)
(-0.172135 -0.152117 0)
(-0.173759 -0.191272 0)
(-0.170221 -0.231826 0)
(-0.158004 -0.268015 0)
(-0.133575 -0.289699 0)
(-0.0950567 -0.281603 0)
(-0.0480144 -0.224059 0)
(-0.00632311 -0.10025 0)
(-0.00716017 0.105932 0)
(-0.0492823 0.228983 0)
(-0.092696 0.281798 0)
(-0.12552 0.285978 0)
(-0.143569 0.262845 0)
(-0.149794 0.227479 0)
(-0.148093 0.189148 0)
(-0.141963 0.152824 0)
(-0.13394 0.120744 0)
(-0.125647 0.0935542 0)
(-0.118014 0.0710407 0)
(-0.111512 0.0525569 0)
(-0.10634 0.0372608 0)
(-0.102564 0.0242348 0)
(-0.100201 0.0125375 0)
(-0.0992782 0.00121868 0)
(-0.0998566 -0.0106837 0)
(-0.102038 -0.0241538 0)
(-0.105941 -0.040201 0)
(-0.111656 -0.0598472 0)
(-0.119144 -0.084077 0)
(-0.128086 -0.113713 0)
(-0.13765 -0.149161 0)
(-0.146185 -0.18992 0)
(-0.150899 -0.233727 0)
(-0.147683 -0.275186 0)
(-0.131704 -0.303819 0)
(-0.0989589 -0.302479 0)
(-0.0532777 -0.247021 0)
(-0.00780233 -0.11421 0)
(-0.00900908 0.120607 0)
(-0.0551751 0.251005 0)
(-0.0962427 0.300118 0)
(-0.12216 0.296816 0)
(-0.130749 0.266718 0)
(-0.127244 0.226424 0)
(-0.116781 0.185247 0)
(-0.103351 0.14767 0)
(-0.0895368 0.115379 0)
(-0.0767988 0.0885816 0)
(-0.0658388 0.0667629 0)
(-0.0569053 0.0490959 0)
(-0.0500122 0.0346451 0)
(-0.0450832 0.0224575 0)
(-0.0420428 0.0115927 0)
(-0.0408685 0.00112248 0)
(-0.0416184 -0.00988523 0)
(-0.0444358 -0.0223885 0)
(-0.0495318 -0.0373874 0)
(-0.0571416 -0.0559301 0)
(-0.0674341 -0.0790908 0)
(-0.080354 -0.107883 0)
(-0.0953691 -0.143051 0)
(-0.111094 -0.184618 0)
(-0.124812 -0.231022 0)
(-0.13202 -0.277563 0)
(-0.126574 -0.313836 0)
(-0.10196 -0.321161 0)
(-0.0593888 -0.270427 0)
(-0.00978273 -0.130059 0)
(-0.01151 0.137502 0)
(-0.0620447 0.273208 0)
(-0.0985832 0.315646 0)
(-0.11489 0.302955 0)
(-0.111743 0.265327 0)
(-0.0970512 0.220448 0)
(-0.0771036 0.17718 0)
(-0.0561641 0.139193 0)
(-0.0366484 0.107466 0)
(-0.0196996 0.0817064 0)
(-0.00569253 0.0610961 0)
(0.00540361 0.0446456 0)
(0.0137916 0.0313514 0)
(0.0197033 0.0202512 0)
(0.0233155 0.0104305 0)
(0.0247036 0.00100619 0)
(0.0238167 -0.00890082 0)
(0.0204735 -0.0201983 0)
(0.0143736 -0.0338494 0)
(0.0051313 -0.0508968 0)
(-0.00764618 -0.0724696 0)
(-0.0242126 -0.09974 0)
(-0.0444269 -0.133776 0)
(-0.0673321 -0.175167 0)
(-0.0905324 -0.223205 0)
(-0.10944 -0.27423 0)
(-0.116762 -0.318573 0)
(-0.103221 -0.336471 0)
(-0.066312 -0.29378 0)
(-0.0124235 -0.148211 0)
(-0.0148499 0.157126 0)
(-0.0697204 0.294901 0)
(-0.0985065 0.32699 0)
(-0.101792 0.303029 0)
(-0.0844958 0.257726 0)
(-0.0573681 0.209054 0)
(-0.0275673 0.164784 0)
(0.000729286 0.127437 0)
(0.0255451 0.0971483 0)
(0.0462258 0.0731074 0)
(0.0628181 0.0542153 0)
(0.0756782 0.0393571 0)
(0.0852444 0.0274977 0)
(0.0919095 0.017697 0)
(0.0959526 0.00909307 0)
(0.0975026 0.000871486 0)
(0.0965189 -0.00777125 0)
(0.0927878 -0.0176688 0)
(0.0859275 -0.0297188 0)
(0.0754081 -0.0449226 0)
(0.0606088 -0.0644199 0)
(0.0409394 -0.0894899 0)
(0.016073 -0.121479 0)
(-0.0136252 -0.161535 0)
(-0.0463753 -0.209908 0)
(-0.0779139 -0.264325 0)
(-0.100316 -0.316609 0)
(-0.101297 -0.346856 0)
(-0.0737644 -0.316225 0)
(-0.0159003 -0.169129 0)
(-0.0191918 0.180004 0)
(-0.0776138 0.314914 0)
(-0.0938888 0.332234 0)
(-0.0800749 0.295481 0)
(-0.0463043 0.24303 0)
(-0.00596145 0.191934 0)
(0.0335122 0.148117 0)
(0.0685271 0.112638 0)
(0.097862 0.0847237 0)
(0.121519 0.0630769 0)
(0.140041 0.046376 0)
(0.154135 0.0334372 0)
(0.164475 0.0232391 0)
(0.171609 0.014899 0)
(0.17591 0.00763469 0)
(0.177556 0.000722497 0)
(0.176519 -0.00654483 0)
(0.172561 -0.0149052 0)
(0.165233 -0.0251633 0)
(0.153878 -0.0382418 0)
(0.137663 -0.0552394 0)
(0.115657 -0.0774736 0)
(0.0870195 -0.106487 0)
(0.0513836 -0.143918 0)
(0.00960377 -0.190999 0)
(-0.0349229 -0.247132 0)
(-0.0743934 -0.306416 0)
(-0.0939254 -0.350326 0)
(-0.0809671 -0.336379 0)
(-0.0203504 -0.193257 0)
(-0.0245117 0.206519 0)
(-0.0842229 0.331287 0)
(-0.081339 0.328903 0)
(-0.0457653 0.278645 0)
(0.00627823 0.220577 0)
(0.0597732 0.169105 0)
(0.107948 0.127537 0)
(0.148427 0.0952721 0)
(0.181062 0.0706649 0)
(0.206644 0.0520289 0)
(0.226248 0.0379159 0)
(0.240921 0.0271463 0)
(0.251554 0.0187648 0)
(0.258824 0.0119822 0)
(0.263182 0.00612054 0)
(0.264847 0.000566 0)
(0.263802 -0.00527568 0)
(0.259796 -0.0120294 0)
(0.252333 -0.0203828 0)
(0.240659 -0.031144 0)
(0.223763 -0.0453172 0)
(0.200408 -0.0641763 0)
(0.16924 -0.0893448 0)
(0.129074 -0.122813 0)
(0.0795624 -0.166699 0)
(0.0226103 -0.222212 0)
(-0.0351458 -0.286482 0)
(-0.0775204 -0.344325 0)
(-0.0861373 -0.352008 0)
(-0.0256816 -0.220828 0)
(-0.0301445 0.236643 0)
(-0.0861883 0.340857 0)
(-0.0550184 0.313845 0)
(0.00665811 0.250988 0)
(0.0774908 0.190171 0)
(0.142722 0.14108 0)
(0.197568 0.103805 0)
(0.241524 0.0761025 0)
(0.27577 0.0556348 0)
(0.301935 0.0404994 0)
(0.321595 0.0292486 0)
(0.336091 0.0207915 0)
(0.346475 0.0142923 0)
(0.353516 0.00908765 0)
(0.357712 0.0046242 0)
(0.35931 0.000411158 0)
(0.358303 -0.00402164 0)
(0.354439 -0.00917493 0)
(0.347199 -0.0156018 0)
(0.335779 -0.0239659 0)
(0.319046 -0.0351264 0)
(0.29553 -0.0502276 0)
(0.26343 -0.0708346 0)
(0.220751 -0.0990829 0)
(0.165772 -0.137729 0)
(0.0983049 -0.189672 0)
(0.0225028 -0.255567 0)
(-0.0464783 -0.325777 0)
(-0.0856718 -0.359589 0)
(-0.0310825 -0.251594 0)
(-0.033828 0.269793 0)
(-0.0767681 0.338671 0)
(-0.0060229 0.283362 0)
(0.0845264 0.211541 0)
(0.172255 0.152447 0)
(0.245847 0.109068 0)
(0.30402 0.0781662 0)
(0.348671 0.0562002 0)
(0.382379 0.0404822 0)
(0.407531 0.029132 0)
(0.42609 0.0208483 0)
(0.439583 0.0147132 0)
(0.449144 0.0100566 0)
(0.455575 0.00636561 0)
(0.459386 0.00322372 0)
(0.460829 0.000268752 0)
(0.459905 -0.00284199 0)
(0.456374 -0.00648178 0)
(0.449729 -0.0110601 0)
(0.439164 -0.0170771 0)
(0.423514 -0.0252074 0)
(0.401185 -0.0363876 0)
(0.370073 -0.0519781 0)
(0.327516 -0.0740036 0)
(0.270449 -0.10546 0)
(0.196206 -0.150464 0)
(0.105038 -0.213145 0)
(0.00775548 -0.291294 0)
(-0.072498 -0.354284 0)
(-0.0340197 -0.284641 0)
(-0.029301 0.303687 0)
(-0.042625 0.317657 0)
(0.0789781 0.234122 0)
(0.197075 0.160794 0)
(0.295818 0.109407 0)
(0.371805 0.0752196 0)
(0.428505 0.0524293 0)
(0.470303 0.0369503 0)
(0.500948 0.0262226 0)
(0.523319 0.0186544 0)
(0.539551 0.0132285 0)
(0.551198 0.00926758 0)
(0.559367 0.00629746 0)
(0.564818 0.0039668 0)
(0.568029 0.00199679 0)
(0.569233 0.000149668 0)
(0.568436 -0.00179626 0)
(0.565428 -0.00409009 0)
(0.559739 -0.00700252 0)
(0.550635 -0.0108653 0)
(0.537013 -0.016148 0)
(0.517313 -0.0235242 0)
(0.489351 -0.0340249 0)
(0.450105 -0.0493023 0)
(0.395497 -0.0720848 0)
(0.32048 -0.106852 0)
(0.220423 -0.160213 0)
(0.0975563 -0.238102 0)
(-0.0335449 -0.328899 0)
(-0.0278557 -0.31718 0)
(0.00190331 0.325843 0)
(0.041919 0.267798 0)
(0.219259 0.165808 0)
(0.354857 0.102616 0)
(0.452916 0.0652915 0)
(0.522342 0.0429388 0)
(0.571394 0.0290549 0)
(0.606222 0.0200597 0)
(0.631081 0.0140221 0)
(0.648869 0.00985918 0)
(0.661577 0.00692631 0)
(0.670584 0.00481549 0)
(0.676841 0.00325176 0)
(0.680984 0.00203697 0)
(0.683409 0.00101702 0)
(0.684301 6.07303e-05 0)
(0.683676 -0.00094233 0)
(0.681365 -0.00214017 0)
(0.676969 -0.00367705 0)
(0.669898 -0.00573284 0)
(0.659222 -0.00857698 0)
(0.643598 -0.0126061 0)
(0.621055 -0.0184554 0)
(0.588684 -0.0272126 0)
(0.542103 -0.0408562 0)
(0.474787 -0.063139 0)
(0.37754 -0.101091 0)
(0.240167 -0.166716 0)
(0.0554351 -0.2741 0)
(0.00616295 -0.335949 0)
(0.118928 0.288972 0)
(0.227589 0.178381 0)
(0.440447 0.0867757 0)
(0.567448 0.0468355 0)
(0.646084 0.0273521 0)
(0.697352 0.0170217 0)
(0.731766 0.0111186 0)
(0.755374 0.00749596 0)
(0.771823 0.00514944 0)
(0.783383 0.00357155 0)
(0.791524 0.00248108 0)
(0.797229 0.00170875 0)
(0.801155 0.00114457 0)
(0.803735 0.000711402 0)
(0.805233 0.000350509 0)
(0.805768 1.078e-05 0)
(0.805358 -0.000343054 0)
(0.803889 -0.000774406 0)
(0.801081 -0.00133484 0)
(0.796544 -0.00209251 0)
(0.78964 -0.00315405 0)
(0.77943 -0.00468113 0)
(0.764493 -0.00694412 0)
(0.742615 -0.0104374 0)
(0.710188 -0.0161523 0)
(0.661092 -0.0262474 0)
(0.584413 -0.0456341 0)
(0.45839 -0.0861937 0)
(0.242213 -0.180091 0)
(0.127095 -0.293553 0)
(0.49993 0.115021 0)
(0.615794 0.046612 0)
(0.770228 0.0116628 0)
(0.838278 0.0052119 0)
(0.87308 0.00272857 0)
(0.893793 0.00152355 0)
(0.906953 0.000921901 0)
(0.915662 0.000588542 0)
(0.921583 0.00038687 0)
(0.925667 0.000258355 0)
(0.928499 0.000173529 0)
(0.930459 0.00011593 0)
(0.931793 7.54954e-05 0)
(0.93266 4.54616e-05 0)
(0.933158 2.12062e-05 0)
(0.933327 -2.17174e-06 0)
(0.933174 -2.68578e-05 0)
(0.932656 -5.83001e-05 0)
(0.931665 -0.000100912 0)
(0.930057 -0.00016058 0)
(0.92759 -0.000246687 0)
(0.923903 -0.000374997 0)
(0.918435 -0.00057319 0)
(0.910274 -0.000896674 0)
(0.897814 -0.0014744 0)
(0.878007 -0.0026295 0)
(0.844328 -0.00505534 0)
(0.777725 -0.0113226 0)
(0.62305 -0.0461637 0)
(0.505666 -0.11508 0)
)
;

boundaryField
{
    movingWall
    {
        type            fixedValue;
        value           uniform (1 0 0);
    }
    fixedWalls
    {
        type            noSlip;
    }
    frontAndBack
    {
        type            empty;
    }
}


// ************************************************************************* //
