/*--------------------------------*- C++ -*----------------------------------*\
  =========                 |
  \\      /  F ield         | OpenFOAM: The Open Source CFD Toolbox
   \\    /   O peration     | Website:  https://openfoam.org
    \\  /    A nd           | Version:  12
     \\/     M anipulation  |
\*---------------------------------------------------------------------------*/
FoamFile
{
    format      ascii;
    class       volScalarField;
    location    "2";
    object      p;
}
// * * * * * * * * * * * * * * * * * * * * * * * * * * * * * * * * * * * * * //

dimensions      [0 2 -2 0 0 0 0];

internalField   nonuniform List<scalar> 
5625
(
8.44713e-08
-1.82479e-05
-9.31991e-05
-0.000227441
-0.000405366
-0.000612023
-0.000834931
-0.00106365
-0.00128968
-0.0015063
-0.00170826
-0.00189155
-0.00205314
-0.00219081
-0.00230292
-0.00238834
-0.00244624
-0.00247609
-0.0024775
-0.00245023
-0.00239414
-0.00230916
-0.00219526
-0.0020525
-0.00188101
-0.00168101
-0.00145284
-0.00119697
-0.000914063
-0.00060497
-0.000270775
8.71841e-05
0.000467286
0.000867614
0.00128594
0.00171969
0.00216598
0.00262165
0.00308326
0.00354698
0.00400883
0.00446462
0.00491002
0.0053406
0.00575192
0.00613962
0.00649943
0.00682733
0.0071196
0.00737288
0.00758429
0.00775148
0.00787272
0.00794692
0.00797372
0.0079535
0.00788744
0.00777748
0.00762635
0.00743758
0.00721541
0.00696484
0.00669153
0.00640178
0.00610248
0.00580107
0.00550549
0.00522411
0.00496565
0.00473904
0.00455304
0.00441578
0.00433413
0.00431051
0.00432559
1.83008e-05
-1.56442e-07
-6.69932e-05
-0.000184865
-0.000340602
-0.000521829
-0.000718121
-0.000920552
-0.00112163
-0.00131525
-0.00149652
-0.00166162
-0.00180756
-0.00193211
-0.00203356
-0.00211067
-0.00216252
-0.00218846
-0.00218801
-0.00216085
-0.00210677
-0.00202562
-0.00191735
-0.00178198
-0.00161963
-0.00143049
-0.00121489
-0.000973295
-0.000706343
-0.000414858
-9.98853e-05
0.000237291
0.000595123
0.000971785
0.00136516
0.00177282
0.00219205
0.00261989
0.00305307
0.00348802
0.00392102
0.00434816
0.00476541
0.00516863
0.00555371
0.00591659
0.00625334
0.00656023
0.00683384
0.00707108
0.00726933
0.00742645
0.0075409
0.00761172
0.00763865
0.00762213
0.00756331
0.00746407
0.00732703
0.00715552
0.00695357
0.00672584
0.00647763
0.0062148
0.00594371
0.00567118
0.00540445
0.00515101
0.00491859
0.00471492
0.00454742
0.00442284
0.00434741
0.00432524
0.00434056
9.34474e-05
6.63425e-05
-1.04283e-06
-0.000109577
-0.000248903
-0.000409403
-0.000582757
-0.000761615
-0.000939629
-0.00111147
-0.00127278
-0.00142003
-0.00155043
-0.0016618
-0.00175247
-0.00182115
-0.00186686
-0.00188889
-0.0018867
-0.00185988
-0.00180816
-0.00173136
-0.00162936
-0.00150215
-0.00134982
-0.00117252
-0.000970555
-0.000744362
-0.000494532
-0.000221844
7.27172e-05
0.000387942
0.000722375
0.0010743
0.00144173
0.0018224
0.00221378
0.0026131
0.00301726
0.00342299
0.00382682
0.00422509
0.00461407
0.00498991
0.00534881
0.005687
0.00600084
0.0062869
0.00654202
0.00676338
0.00694857
0.00709566
0.00720325
0.00727054
0.00729733
0.00728408
0.00723194
0.00714272
0.00701892
0.00686366
0.00668074
0.00647452
0.00624989
0.00601228
0.00576751
0.00552178
0.00528156
0.00505353
0.00484443
0.0046609
0.00450918
0.00439495
0.0043241
0.0043026
0.00431743
0.000229252
0.000184606
0.000106055
-3.68241e-06
-0.000137223
-0.000287245
-0.000447075
-0.000610704
-0.000772858
-0.000929026
-0.00107544
-0.001209
-0.00132722
-0.00142811
-0.0015101
-0.00157197
-0.00161278
-0.0016318
-0.00162847
-0.00160236
-0.00155317
-0.00148066
-0.00138468
-0.00126519
-0.00112221
-0.000955876
-0.000766427
-0.000554247
-0.000319871
-6.40074e-05
0.000212436
0.000508339
0.000822348
0.00115286
0.00149803
0.00185572
0.00222358
0.00259897
0.00297901
0.00336063
0.00374054
0.00411532
0.00448143
0.00483526
0.00517321
0.00549174
0.00578742
0.00605702
0.00629756
0.00650638
0.00668124
0.00682034
0.00692237
0.00698661
0.00701289
0.00700171
0.00695417
0.00687201
0.00675762
0.00661399
0.00644469
0.00625383
0.006046
0.00582624
0.00559993
0.00537276
0.0051506
0.00493946
0.00474534
0.00457409
0.00443123
0.00432183
0.00425161
0.00422719
0.0042375
0.00041129
0.000342328
0.000244631
0.000126071
-9.1597e-06
-0.000155893
-0.000308853
-0.000463223
-0.000614741
-0.000759716
-0.000895019
-0.00101805
-0.00112667
-0.00121918
-0.00129419
-0.00135061
-0.00138758
-0.00140441
-0.00140058
-0.00137565
-0.00132929
-0.00126125
-0.00117134
-0.00105947
-0.000925607
-0.000769836
-0.000592337
-0.000393421
-0.000173546
6.66632e-05
0.000326393
0.000604625
0.000900118
0.00121139
0.00153672
0.00187413
0.00222139
0.00257602
0.00293532
0.00329637
0.00365605
0.0040111
0.00435816
0.00469378
0.00501454
0.00531702
0.00559796
0.00585425
0.00608303
0.00628178
0.00644833
0.00658094
0.00667839
0.00673996
0.00676553
0.00675557
0.00671113
0.00663392
0.00652619
0.00639082
0.0062312
0.00605122
0.00585522
0.0056479
0.00543429
0.00521963
0.00500932
0.00480879
0.00462348
0.00445861
0.00431916
0.00420974
0.00413563
0.00410295
0.00410314
0.000625531
0.000527745
0.000405443
0.000272624
0.000130303
-1.83989e-05
-0.000169441
-0.000319083
-0.00046402
-0.000601361
-0.000728629
-0.000843744
-0.000944987
-0.00103096
-0.00110052
-0.00115275
-0.00118693
-0.00120244
-0.00119879
-0.00117558
-0.00113247
-0.0010692
-0.000985549
-0.000881367
-0.00075658
-0.000611197
-0.000445326
-0.000259196
-5.31752e-05
0.000172209
0.000416251
0.000678044
0.000956465
0.00125016
0.00155754
0.00187676
0.00220573
0.00254212
0.00288336
0.00322666
0.00356907
0.00390744
0.00423855
0.00455907
0.00486568
0.00515508
0.00542409
0.0056697
0.00588912
0.00607986
0.00623981
0.00636728
0.00646105
0.0065204
0.00654521
0.0065359
0.00649349
0.00641961
0.00631643
0.00618669
0.00603365
0.005861
0.00567286
0.00547367
0.00526814
0.00506115
0.00485769
0.00466274
0.00448123
0.0043179
0.00417724
0.00406345
0.00398112
0.00393519
0.00392035
0.00085995
0.000730617
0.000580124
0.000429115
0.000275592
0.000120792
-3.23303e-05
-0.000181004
-0.000322811
-0.000455627
-0.000577616
-0.000687229
-0.000783179
-0.000864411
-0.000930059
-0.000979414
-0.00101189
-0.00102699
-0.00102429
-0.00100343
-0.000964076
-0.000905949
-0.000828804
-0.000732446
-0.000616737
-0.000481612
-0.000327097
-0.000153328
3.94315e-05
0.000250762
0.000480074
0.000726583
0.000989293
0.00126698
0.00155818
0.00186119
0.00217405
0.00249455
0.00282025
0.00314849
0.0034764
0.00380098
0.00411905
0.00442741
0.00472278
0.00500193
0.00526173
0.00549919
0.00571155
0.00589634
0.00605144
0.00617516
0.00626624
0.00632396
0.00634813
0.00633914
0.00629796
0.00622611
0.0061257
0.00599935
0.00585019
0.00568177
0.005498
0.00530312
0.00510157
0.00489794
0.00469687
0.004503
0.00432083
0.00415469
0.00400866
0.00388654
0.00379214
0.00372893
0.00369541
0.00110397
0.000941677
0.000760794
0.000588864
0.000421095
0.000257015
9.86302e-05
-5.21523e-05
-0.000193732
-0.000324706
-0.000443857
-0.000550161
-0.000642768
-0.000720981
-0.00078422
-0.000832003
-0.000863912
-0.000879577
-0.000878658
-0.000860835
-0.000825801
-0.000773263
-0.000702948
-0.000614612
-0.00050805
-0.000383118
-0.000239749
-7.79755e-05
0.000102049
0.000300026
0.00051549
0.000747786
0.00099605
0.00125919
0.00153588
0.00182454
0.00212332
0.00243016
0.0027427
0.00305839
0.00337446
0.00368796
0.0039958
0.0042948
0.00458172
0.00485336
0.00510658
0.00533839
0.005546
0.00572691
0.00587896
0.0060004
0.00608994
0.00614677
0.00617065
0.0061619
0.0061214
0.00605062
0.00595155
0.00582673
0.00567916
0.00551227
0.00532983
0.00513589
0.00493468
0.00473058
0.00452795
0.00433112
0.00414429
0.00397144
0.00381632
0.0036824
0.00357266
0.00348907
0.00343431
0.00134832
0.00115253
0.000940066
0.000745434
0.000561262
0.000385538
0.000219438
6.40955e-05
-7.96382e-05
-0.000211032
-0.000329461
-0.000434406
-0.00052545
-0.000602253
-0.00066453
-0.00071203
-0.000744518
-0.000761754
-0.00076349
-0.00074946
-0.000719377
-0.000672944
-0.000609856
-0.000529816
-0.000432549
-0.000317825
-0.000185476
-3.54235e-05
0.0001323
0.000317523
0.000519914
0.000738953
0.000973914
0.00122384
0.00148754
0.00176355
0.00205016
0.00234538
0.00264699
0.0029525
0.0032592
0.00356421
0.00386445
0.00415678
0.00443794
0.00470472
0.00495394
0.00518256
0.00538773
0.00556687
0.00571775
0.00583852
0.0059278
0.0059847
0.00600887
0.00600054
0.00596051
0.00589014
0.00579136
0.00566658
0.00551873
0.00535112
0.0051674
0.00497148
0.00476745
0.00455949
0.00435179
0.00414845
0.00395341
0.0037704
0.00360293
0.00345418
0.00332641
0.00322009
0.00314236
0.00158486
0.0013556
0.00111107
0.000892675
0.000690654
0.00050159
0.000325931
0.000164115
1.63063e-05
-0.000117391
-0.000236907
-0.00034221
-0.0004333
-0.000510187
-0.000572877
-0.000621353
-0.000655559
-0.000675395
-0.000680702
-0.00067127
-0.000646836
-0.000607094
-0.000551705
-0.000480317
-0.000392579
-0.000288167
-0.000166807
-2.82993e-05
0.000127451
0.00030041
0.000490384
0.000696998
0.000919665
0.00115757
0.00140965
0.00167457
0.00195073
0.00223626
0.00252899
0.00282653
0.00312621
0.00342516
0.00372035
0.00400858
0.0042866
0.00455112
0.00479889
0.00502679
0.00523187
0.00541144
0.00556314
0.005685
0.0057755
0.00583363
0.00585894
0.00585151
0.00581204
0.00574179
0.00564259
0.00551677
0.00536716
0.00519697
0.00500978
0.00480939
0.00459979
0.00438504
0.00416918
0.00395617
0.00374979
0.00355358
0.00337087
0.00320468
0.00305663
0.00292579
0.00282395
0.00180633
0.001544
0.00126742
0.00102474
0.000803973
0.000600407
0.000413843
0.00024409
9.0678e-05
-4.68731e-05
-0.000169015
-0.000276178
-0.000368759
-0.000447108
-0.000511512
-0.000562182
-0.00059924
-0.000622715
-0.000632543
-0.000628565
-0.000610536
-0.000578142
-0.000531004
-0.000468709
-0.000390825
-0.000296926
-0.000186625
-5.95952e-05
8.43962e-05
0.000245458
0.000423545
0.00061843
0.000829674
0.00105661
0.00129829
0.00155353
0.00182083
0.00209841
0.00238419
0.00267583
0.00297069
0.00326593
0.00355849
0.00384515
0.00412258
0.00438742
0.00463631
0.00486601
0.00507344
0.00525574
0.0054104
0.00553528
0.00562871
0.00568951
0.00571706
0.00571132
0.00567284
0.00560277
0.00550282
0.00537524
0.00522277
0.00504856
0.0048561
0.00464915
0.00443162
0.0042075
0.00398077
0.0037553
0.00353478
0.00332266
0.00312219
0.00293629
0.00276605
0.00260929
0.0024825
0.00200619
0.00171145
0.00140317
0.00113608
0.000896084
0.000677276
0.000478866
0.000300083
0.000139871
-2.79771e-06
-0.000128865
-0.000239196
-0.000334565
-0.000415646
-0.000482993
-0.000537034
-0.000578061
-0.000606228
-0.000621555
-0.000623931
-0.000613127
-0.000588807
-0.000550554
-0.000497883
-0.000430276
-0.000347199
-0.000248141
-0.000132641
-3.21567e-07
0.000149077
0.000315666
0.000499374
0.000699915
0.000916765
0.00114913
0.00139594
0.0016558
0.00192704
0.00220765
0.00249533
0.00278748
0.00308124
0.00337353
0.00366107
0.00394045
0.00420819
0.00446082
0.00469492
0.00490722
0.00509471
0.00525465
0.00538472
0.00548302
0.00554819
0.00557942
0.00557648
0.00553977
0.0054703
0.00536965
0.00523997
0.00508393
0.00490462
0.00470548
0.00449023
0.00426277
0.00402707
0.00378709
0.00354669
0.00330955
0.00307909
0.00285857
0.00265094
0.00245684
0.002273
0.0021206
0.00217846
0.00185211
0.00151273
0.0012214
0.000962024
0.000727565
0.000516689
0.000328087
0.000160152
1.13443e-05
-0.000119741
-0.000234379
-0.000333701
-0.000418684
-0.000490135
-0.000548686
-0.000594787
-0.000628707
-0.000650542
-0.00066022
-0.000657518
-0.000642077
-0.000613427
-0.00057101
-0.000514209
-0.000442377
-0.000354871
-0.000251087
-0.000130494
7.32889e-06
0.000162655
0.000335577
0.000525971
0.000733466
0.000957416
0.00119687
0.00145057
0.00171692
0.00199399
0.00227953
0.00257094
0.00286537
0.00315969
0.00345053
0.0037344
0.00400767
0.00426669
0.00450788
0.00472775
0.00492305
0.00509082
0.00522847
0.00533389
0.00540544
0.0054421
0.00544344
0.00540965
0.00534156
0.00524065
0.00510894
0.004949
0.00476389
0.00455701
0.00433209
0.00409304
0.00384385
0.00358853
0.00333101
0.003075
0.00282401
0.00258139
0.00235018
0.0021307
0.00191868
0.00174005
0.00231757
0.00196055
0.00159084
0.00127566
0.000996995
0.000746735
0.00052303
0.000324064
0.000147709
-8.05847e-06
-0.000145081
-0.000265021
-0.000369344
-0.000459314
-0.000535972
-0.000600138
-0.000652409
-0.000693156
-0.000722539
-0.000740516
-0.00074686
-0.000741181
-0.000722947
-0.000691518
-0.000646171
-0.000586135
-0.000510628
-0.000418892
-0.000310235
-0.000184067
-3.99393e-05
0.000122412
0.000303035
0.00050172
0.000717973
0.000950987
0.00119962
0.00146237
0.00173738
0.00202245
0.00231501
0.00261216
0.00291073
0.00320728
0.00349817
0.00377962
0.0040478
0.00429889
0.00452918
0.00473513
0.00491351
0.00506144
0.00517651
0.00525681
0.00530103
0.00530849
0.00527916
0.00521367
0.00511333
0.00498003
0.00481628
0.00462504
0.00440975
0.00417412
0.00392212
0.00365784
0.00338538
0.00310878
0.00283188
0.00255835
0.0022917
0.00203516
0.00178884
0.00154753
0.00134199
0.00241833
0.00203165
0.00163252
0.00129404
0.00099637
0.000730356
0.000493661
0.00028398
9.86902e-05
-6.4695e-05
-0.000208433
-0.000334549
-0.000444828
-0.000540796
-0.000623716
-0.00069458
-0.000754112
-0.000802777
-0.000840785
-0.000868112
-0.000884518
-0.000889569
-0.000882667
-0.000863075
-0.000829957
-0.000782408
-0.000719499
-0.000640308
-0.00054397
-0.000429715
-0.000296912
-0.000145112
2.59147e-05
0.000216133
0.000425212
0.000652491
0.000896957
0.00115722
0.0014315
0.00171764
0.00201309
0.00231493
0.00261993
0.00292455
0.00322502
0.00351737
0.00379756
0.00406152
0.00430525
0.00452492
0.00471696
0.00487816
0.00500577
0.00509755
0.00515186
0.00516771
0.00514481
0.00508357
0.00498506
0.00485106
0.00468396
0.00448669
0.00426265
0.00401563
0.00374967
0.00346897
0.0031778
0.00288037
0.00258074
0.00228278
0.00199028
0.00170672
0.00143207
0.00116028
0.000927007
0.00247581
0.00206055
0.00163301
0.00127193
0.000955681
0.00067412
0.00042443
0.000203836
9.23858e-06
-0.000162292
-0.000313408
-0.000446481
-0.000563592
-0.000666517
-0.000756718
-0.000835345
-0.000903238
-0.000960935
-0.00100869
-0.00104648
-0.00107404
-0.00109089
-0.00109634
-0.00108956
-0.00106959
-0.00103537
-0.000985826
-0.000919856
-0.000836412
-0.000734532
-0.00061339
-0.000472337
-0.000310952
-0.000129082
7.31208e-05
0.000295157
0.000536154
0.000794841
0.00106953
0.00135812
0.00165807
0.00196647
0.00228001
0.00259505
0.00290765
0.00321368
0.00350884
0.00378878
0.00404919
0.00428589
0.00449495
0.00467277
0.00481618
0.00492258
0.00498993
0.00501691
0.00500288
0.00494798
0.00485305
0.00471968
0.00455015
0.00434733
0.00411462
0.00385586
0.00357522
0.00327705
0.00296585
0.00264605
0.00232199
0.00199783
0.0016777
0.00136543
0.00106091
0.000757275
0.000495263
0.00248535
0.00204266
0.0015878
0.00120491
0.000870629
0.000573847
0.000311279
7.96928e-05
-0.000124474
-0.000304577
-0.000463647
-0.000604384
-0.000729148
-0.000839947
-0.000938428
-0.00102588
-0.00110325
-0.00117112
-0.00122979
-0.00127922
-0.00131912
-0.00134893
-0.00136789
-0.00137503
-0.00136927
-0.00134941
-0.00131418
-0.0012623
-0.00119254
-0.00110372
-0.000994803
-0.000864937
-0.000713485
-0.000540091
-0.000344714
-0.000127674
0.000110316
0.000368119
0.000644154
0.000936384
0.00124232
0.00155901
0.00188311
0.00221086
0.00253818
0.00286071
0.0031739
0.00347311
0.00375365
0.00401098
0.00424072
0.00443885
0.00460176
0.00472636
0.0048102
0.00485152
0.00484931
0.00480336
0.00471425
0.00458335
0.00441278
0.00420533
0.00396442
0.00369396
0.00339825
0.00308185
0.00274951
0.00240598
0.00205592
0.00170386
0.00135434
0.00101164
0.00067559
0.000338571
4.65625e-05
0.00244247
0.00197358
0.00149258
0.00108876
0.000737083
0.0004255
0.000150265
-9.23036e-05
-0.000306218
-0.000495246
-0.00066278
-0.000811834
-0.000945033
-0.0010646
-0.00117235
-0.0012697
-0.00135767
-0.00143692
-0.00150773
-0.00157007
-0.00162358
-0.00166763
-0.00170136
-0.0017237
-0.00173339
-0.00172907
-0.00170931
-0.00167262
-0.00161755
-0.00154272
-0.00144686
-0.00132888
-0.00118793
-0.00102342
-0.00083509
-0.000623071
-0.000387892
-0.000130533
0.000147549
0.000444409
0.000757602
0.00108419
0.00142076
0.00176346
0.00210806
0.00244997
0.00278437
0.00310628
0.00341064
0.00369246
0.0039469
0.00416944
0.00435595
0.00450283
0.00460711
0.00466653
0.00467965
0.00464584
0.00456534
0.00443927
0.00426956
0.00405891
0.00381072
0.00352898
0.00321816
0.00288305
0.00252871
0.00216025
0.00178274
0.00140114
0.00102048
0.000645532
0.000276166
-9.60149e-05
-0.000419532
0.00234295
0.00184913
0.00134325
0.000919456
0.000551089
0.000225199
-6.24224e-05
-0.000315896
-0.000539674
-0.000737924
-0.000914388
-0.00107238
-0.00121477
-0.00134399
-0.001462
-0.00157033
-0.00167008
-0.00176194
-0.0018462
-0.00192278
-0.00199128
-0.00205099
-0.00210092
-0.00213986
-0.00216642
-0.00217905
-0.00217612
-0.00215594
-0.00211684
-0.00205719
-0.00197549
-0.0018704
-0.00174081
-0.00158589
-0.00140515
-0.00119848
-0.000966215
-0.000709148
-0.000428583
-0.000126353
0.000195167
0.000533062
0.000883889
0.0012437
0.0016081
0.00197229
0.00233116
0.00267936
0.00301143
0.0033219
0.00360541
0.00385687
0.00407158
0.00424532
0.00437455
0.00445644
0.00448899
0.00447111
0.00440265
0.00428438
0.004118
0.00390609
0.00365202
0.00335986
0.00303425
0.00268028
0.00230332
0.00190892
0.00150262
0.00108989
0.0006763
0.000267218
-0.000137422
-0.000546801
-0.000903623
0.00218274
0.00166534
0.00113592
0.000693161
0.00030888
-3.07661e-05
-0.000330438
-0.000594691
-0.000828407
-0.00103614
-0.00122197
-0.0013895
-0.00154183
-0.00168158
-0.00181086
-0.00193129
-0.00204404
-0.00214981
-0.00224889
-0.00234116
-0.00242614
-0.00250303
-0.00257073
-0.00262787
-0.00267291
-0.0027041
-0.00271961
-0.00271752
-0.00269592
-0.00265294
-0.0025868
-0.00249591
-0.00237887
-0.0022346
-0.00206232
-0.00186168
-0.00163276
-0.00137616
-0.00109299
-0.000784935
-0.000454274
-0.000103873
0.000262813
0.000641763
0.00102843
0.0014178
0.00180445
0.00218267
0.00254656
0.00289011
0.00320742
0.00349274
0.00374073
0.00394648
0.00410578
0.00421511
0.00427188
0.00427442
0.00422207
0.00411522
0.00395528
0.00374465
0.00348665
0.00318541
0.00284577
0.0024731
0.00207318
0.00165203
0.00121572
0.00077029
0.000321972
-0.000123235
-0.000565287
-0.00101417
-0.00140639
0.00195802
0.00141846
0.000866899
0.00040626
6.89076e-06
-0.000345914
-0.000657261
-0.000932134
-0.00117583
-0.00139329
-0.00158891
-0.00176657
-0.00192959
-0.00208077
-0.00222235
-0.00235604
-0.00248305
-0.00260409
-0.00271945
-0.00282894
-0.00293202
-0.00302777
-0.00311496
-0.00319209
-0.0032574
-0.00330899
-0.00334478
-0.00336262
-0.00336036
-0.00333584
-0.00328701
-0.00321197
-0.00310904
-0.00297682
-0.00281425
-0.00262069
-0.00239594
-0.00214034
-0.00185479
-0.0015408
-0.00120049
-0.000836651
-0.000452727
-5.27854e-05
0.000358495
0.000775886
0.00119367
0.00160576
0.00200575
0.0023871
0.00274327
0.00306784
0.0033547
0.0035982
0.00379331
0.00393578
0.00402227
0.00405044
0.00401904
0.00392797
0.00377828
0.00357213
0.00331275
0.00300432
0.00265185
0.00226106
0.00183813
0.00138963
0.000922213
0.000442589
-4.23019e-05
-0.000525733
-0.00100752
-0.00149851
-0.00192853
0.00166518
0.00110498
0.000532744
5.53626e-05
-0.000358227
-0.000723557
-0.00104617
-0.00133148
-0.0015852
-0.00181261
-0.00201843
-0.00220682
-0.0023813
-0.00254482
-0.00269976
-0.0028479
-0.00299048
-0.00312824
-0.00326141
-0.00338977
-0.00351268
-0.00362911
-0.00373769
-0.00383675
-0.00392437
-0.00399842
-0.00405659
-0.0040965
-0.0041157
-0.00411175
-0.00408231
-0.00402515
-0.00393826
-0.00381992
-0.00366872
-0.0034837
-0.00326436
-0.00301072
-0.00272342
-0.00240375
-0.00205364
-0.00167577
-0.0012735
-0.000850945
-0.000412871
3.5293e-05
0.000487541
0.000937376
0.00137792
0.00180203
0.00220249
0.00257211
0.00290396
0.00319152
0.00342889
0.00361092
0.00373341
0.00379323
0.00378844
0.00371833
0.00358348
0.00338576
0.00312823
0.0028151
0.00245156
0.00204363
0.00159801
0.0011218
0.000622354
0.000107095
-0.000416232
-0.000940094
-0.00146414
-0.00200011
-0.00247064
0.00130088
0.000721602
0.000130251
-0.000362683
-0.000789584
-0.00116677
-0.00150024
-0.00179578
-0.00205953
-0.00229712
-0.00251357
-0.00271329
-0.0029
-0.00307681
-0.0032462
-0.00341003
-0.00356957
-0.00372555
-0.00387817
-0.00402714
-0.00417173
-0.00431079
-0.00444282
-0.00456598
-0.00467813
-0.00477694
-0.00485986
-0.00492425
-0.00496735
-0.00498644
-0.00497883
-0.00494196
-0.00487346
-0.00477124
-0.00463352
-0.00445896
-0.0042467
-0.00399644
-0.00370849
-0.00338383
-0.00302419
-0.00263206
-0.00221071
-0.00176421
-0.0012974
-0.000815872
-0.000325921
0.000165569
0.000651208
0.00112324
0.00157371
0.0019946
0.00237808
0.00271665
0.00300341
0.00323218
0.0033978
0.00349618
0.00352454
0.00348145
0.00336693
0.0031824
0.00293074
0.0026161
0.00224383
0.0018203
0.00135267
0.000848714
0.000316494
-0.00023575
-0.000799387
-0.00136599
-0.001935
-0.00251912
-0.00303319
0.000862026
0.000265329
-0.000343519
-0.000850767
-0.00129003
-0.0016784
-0.00202226
-0.00232784
-0.00260163
-0.00284963
-0.00307714
-0.0032888
-0.00348853
-0.0036796
-0.00386457
-0.00404537
-0.0042233
-0.00439908
-0.00457286
-0.00474429
-0.00491254
-0.00507634
-0.00523404
-0.00538361
-0.00552275
-0.00564886
-0.00575916
-0.00585072
-0.0059205
-0.00596543
-0.00598248
-0.00596871
-0.00592137
-0.00583795
-0.00571628
-0.00555459
-0.00535162
-0.00510664
-0.00481962
-0.00449118
-0.00412277
-0.00371662
-0.00327585
-0.00280443
-0.00230725
-0.00179002
-0.00125928
-0.000722303
-0.000186983
0.000338278
0.00084474
0.00132351
0.00176575
0.00216288
0.00250687
0.0027904
0.00300714
0.00315192
0.00322096
0.00321195
0.00312418
0.00295857
0.00271765
0.00240548
0.00202753
0.00159048
0.00110204
0.000570628
5.12756e-06
-0.000585335
-0.00119114
-0.00180287
-0.00241974
-0.00305548
-0.00361644
0.000345815
-0.000266566
-0.000891219
-0.00141149
-0.00186215
-0.00226098
-0.00261479
-0.00293018
-0.00321404
-0.00347267
-0.00371168
-0.00393591
-0.00414948
-0.0043558
-0.00455751
-0.0047566
-0.0049544
-0.00515161
-0.00534834
-0.00554417
-0.00573816
-0.00592894
-0.00611467
-0.00629318
-0.00646194
-0.00661812
-0.00675869
-0.00688042
-0.00697995
-0.00705387
-0.00709878
-0.00711133
-0.00708836
-0.00702691
-0.00692435
-0.00677846
-0.00658749
-0.00635027
-0.00606632
-0.00573586
-0.00535996
-0.00494055
-0.00448051
-0.00398368
-0.00345489
-0.00289994
-0.00232558
-0.00173943
-0.00114989
-0.000566031
2.61163e-06
0.000546187
0.00105477
0.00151862
0.0019284
0.00227551
0.00255229
0.00275231
0.0028706
0.00290378
0.00285028
0.00271032
0.002486
0.00218118
0.00180139
0.00135361
0.000846073
0.000287929
-0.000311072
-0.000940823
-0.00159062
-0.00224994
-0.00291773
-0.00360883
-0.00422033
-0.000250234
-0.000876494
-0.0015152
-0.00204717
-0.00250822
-0.00291678
-0.00328006
-0.00360506
-0.003899
-0.0041685
-0.00441943
-0.00465687
-0.00488511
-0.00510767
-0.00532731
-0.00554605
-0.00576524
-0.00598556
-0.00620709
-0.00642934
-0.00665126
-0.00687136
-0.00708765
-0.00729776
-0.00749896
-0.00768821
-0.00786218
-0.00801734
-0.00815002
-0.00825643
-0.00833277
-0.00837528
-0.00838032
-0.00834447
-0.0082646
-0.00813795
-0.00796227
-0.00773586
-0.00745772
-0.00712759
-0.0067461
-0.00631479
-0.00583622
-0.005314
-0.00475286
-0.00415861
-0.00353814
-0.00289939
-0.00225125
-0.00160344
-0.000966327
-0.000350767
0.000232157
0.000771396
0.00125623
0.00167656
0.00202324
0.00228838
0.00246559
0.00255026
0.00253969
0.00243328
0.0022325
0.00194092
0.00156402
0.00110907
0.000584814
1.15846e-06
-0.000631206
-0.0013011
-0.00199662
-0.00270603
-0.00342795
-0.00417843
-0.00484444
-0.000928265
-0.00156653
-0.00221747
-0.00275978
-0.00323018
-0.00364773
-0.00402002
-0.0043544
-0.00465842
-0.00493902
-0.00520232
-0.0054536
-0.00569733
-0.00593715
-0.00617589
-0.00641565
-0.00665777
-0.00690293
-0.00715117
-0.0074019
-0.00765402
-0.00790587
-0.00815534
-0.00839987
-0.00863652
-0.008862
-0.00907272
-0.00926485
-0.00943435
-0.00957706
-0.00968877
-0.00976527
-0.00980242
-0.00979628
-0.00974318
-0.00963978
-0.00948325
-0.00927131
-0.00900235
-0.00867556
-0.00829104
-0.00784984
-0.00735412
-0.00680718
-0.00621354
-0.00557892
-0.00491032
-0.00421594
-0.00350508
-0.00278811
-0.00207624
-0.00138137
-0.000715809
-9.20105e-05
0.000477759
0.000981764
0.00140916
0.00175035
0.00199733
0.00214397
0.00218627
0.00212254
0.00195347
0.00168215
0.00131393
0.000856259
0.000318403
-0.000288949
-0.000954107
-0.00166472
-0.00240757
-0.00316956
-0.00394896
-0.0047631
-0.00548788
-0.00169005
-0.0023384
-0.00299971
-0.00355095
-0.00402967
-0.00445545
-0.00483626
-0.00517977
-0.00549388
-0.0057858
-0.00606189
-0.00632764
-0.00658767
-0.00684574
-0.00710477
-0.0073669
-0.0076335
-0.00790523
-0.00818208
-0.00846342
-0.00874803
-0.00903415
-0.00931951
-0.00960138
-0.00987661
-0.0101417
-0.0103927
-0.0106255
-0.0108358
-0.0110189
-0.0111703
-0.0112851
-0.0113589
-0.0113871
-0.0113653
-0.0112897
-0.0111568
-0.0109636
-0.0107078
-0.0103881
-0.0100038
-0.00955546
-0.00904471
-0.00847442
-0.0078488
-0.00717342
-0.00645526
-0.00570269
-0.0049254
-0.00413436
-0.00334159
-0.00256006
-0.00180337
-0.00108547
-0.000420307
0.000178564
0.000698393
0.00112765
0.00145643
0.00167684
0.00178328
0.00177273
0.00164486
0.00140208
0.00104946
0.000594564
4.71023e-05
-0.000581433
-0.00127829
-0.00202985
-0.00282144
-0.00363848
-0.0044788
-0.00536111
-0.00614922
-0.00253699
-0.00319344
-0.00386322
-0.00442197
-0.00490793
-0.00534118
-0.00573
-0.00608241
-0.00640658
-0.00671002
-0.0069993
-0.00728011
-0.00755722
-0.00783451
-0.00811497
-0.00840081
-0.0086934
-0.0089934
-0.00930078
-0.00961483
-0.00993425
-0.0102572
-0.0105812
-0.0109034
-0.0112204
-0.0115285
-0.0118235
-0.012101
-0.0123562
-0.0125841
-0.0127796
-0.0129377
-0.0130529
-0.0131203
-0.013135
-0.0130923
-0.012988
-0.0128184
-0.0125806
-0.0122723
-0.0118923
-0.0114403
-0.0109174
-0.010326
-0.0096697
-0.00895391
-0.00818548
-0.00737282
-0.00652595
-0.00565634
-0.00477683
-0.00390143
-0.00304507
-0.00222328
-0.00145182
-0.000746231
-0.000121389
0.000408985
0.000832813
0.00114011
0.00132338
0.00137796
0.00130222
0.00109767
0.000768887
0.0003234
-0.000228675
-0.000875063
-0.0016019
-0.0023942
-0.0032357
-0.00411015
-0.0050149
-0.00597011
-0.00682639
-0.00347006
-0.0041326
-0.00480891
-0.00537374
-0.00586587
-0.00630579
-0.00670211
-0.00706314
-0.00739733
-0.00771245
-0.00801528
-0.00831169
-0.00860661
-0.00890401
-0.009207
-0.00951781
-0.00983785
-0.0101678
-0.0105075
-0.0108564
-0.0112129
-0.0115751
-0.0119406
-0.0123061
-0.0126682
-0.0130228
-0.0133656
-0.0136918
-0.0139962
-0.0142735
-0.0145181
-0.0147242
-0.0148862
-0.0149983
-0.0150549
-0.0150506
-0.0149805
-0.0148401
-0.0146256
-0.0143339
-0.0139629
-0.0135116
-0.0129803
-0.0123707
-0.011686
-0.0109311
-0.0101125
-0.00923862
-0.00831973
-0.00736769
-0.00639607
-0.0054199
-0.00445546
-0.00351992
-0.00263094
-0.00180625
-0.00106305
-0.000417529
0.000115759
0.000524402
0.000798657
0.000931863
0.000920751
0.00076562
0.000470345
4.22259e-05
-0.000508329
-0.00116829
-0.00192264
-0.00275493
-0.00364716
-0.00458125
-0.00555397
-0.00658701
-0.00751656
-0.00448979
-0.00515642
-0.00583732
-0.00640677
-0.00690399
-0.00734979
-0.00775308
-0.00812242
-0.00846655
-0.00879344
-0.00911012
-0.0094226
-0.00973596
-0.0100543
-0.0103808
-0.0107177
-0.0110666
-0.011428
-0.0118019
-0.0121875
-0.0125833
-0.0129873
-0.0133969
-0.0138087
-0.0142191
-0.0146239
-0.0150183
-0.0153973
-0.0157553
-0.0160867
-0.0163853
-0.0166449
-0.0168591
-0.0170215
-0.0171259
-0.0171661
-0.0171362
-0.0170311
-0.0168458
-0.0165765
-0.0162201
-0.0157747
-0.0152396
-0.0146159
-0.0139058
-0.0131139
-0.0122462
-0.011311
-0.0103186
-0.00928101
-0.00821259
-0.00712928
-0.00604868
-0.00498964
-0.00397184
-0.00301529
-0.00213978
-0.00136419
-0.000705913
-0.000180142
0.000200729
0.000427643
0.000495305
0.00040245
0.000151926
-0.000249414
-0.000791024
-0.00145918
-0.00223771
-0.00310861
-0.00405197
-0.00504771
-0.0060919
-0.00720784
-0.00821601
-0.00559632
-0.006265
-0.00694857
-0.00752121
-0.00802242
-0.0084733
-0.00888298
-0.00926029
-0.00961421
-0.00995293
-0.0102836
-0.0106126
-0.0109449
-0.0112849
-0.0116357
-0.0119998
-0.0123787
-0.012773
-0.0131826
-0.0136068
-0.014044
-0.0144921
-0.0149483
-0.0154094
-0.0158713
-0.0163296
-0.0167794
-0.0172153
-0.0176315
-0.0180217
-0.0183793
-0.0186977
-0.0189698
-0.0191886
-0.0193469
-0.0194379
-0.0194549
-0.0193915
-0.0192421
-0.0190017
-0.0186661
-0.0182325
-0.0176993
-0.0170662
-0.0163351
-0.0155093
-0.0145947
-0.0135991
-0.0125325
-0.0114074
-0.0102384
-0.00904232
-0.00783805
-0.00664612
-0.00548827
-0.00438697
-0.00336473
-0.00244345
-0.00164366
-0.000983726
-0.000479141
-0.000141808
2.04966e-05
4.51742e-06
-0.000188296
-0.000551836
-0.00107563
-0.00174537
-0.00254373
-0.00345108
-0.00444545
-0.00550454
-0.00662363
-0.00782769
-0.00892005
-0.00678929
-0.00745806
-0.00814238
-0.00871679
-0.00922091
-0.00967603
-0.0100915
-0.0104764
-0.0108399
-0.0111904
-0.0115352
-0.0118808
-0.0122325
-0.0125946
-0.0129704
-0.0133625
-0.0137724
-0.0142008
-0.0146475
-0.0151119
-0.0155924
-0.0160867
-0.0165921
-0.017105
-0.0176214
-0.0181367
-0.0186456
-0.0191424
-0.019621
-0.0200747
-0.0204966
-0.0208792
-0.0212149
-0.0214961
-0.0217148
-0.0218633
-0.0219339
-0.0219194
-0.0218129
-0.0216084
-0.0213007
-0.0208856
-0.0203605
-0.019724
-0.0189769
-0.0181217
-0.0171634
-0.0161094
-0.0149695
-0.0137559
-0.0124836
-0.0111701
-0.00983545
-0.00850185
-0.00719314
-0.00593427
-0.0047507
-0.00366758
-0.00270891
-0.00189666
-0.00124986
-0.000783782
-0.000509203
-0.000431867
-0.000552174
-0.000865139
-0.00136063
-0.00202394
-0.00283662
-0.00377737
-0.004822
-0.00594576
-0.00714302
-0.00844047
-0.0096228
-0.00806793
-0.00873484
-0.00941808
-0.00999286
-0.0104988
-0.0109574
-0.011378
-0.01177
-0.0121428
-0.0125048
-0.0128637
-0.013226
-0.0135972
-0.0139817
-0.014383
-0.0148037
-0.0152453
-0.0157087
-0.0161937
-0.0166997
-0.017225
-0.0177674
-0.0183241
-0.0188913
-0.019465
-0.0200402
-0.0206116
-0.0211732
-0.0217185
-0.0222404
-0.0227314
-0.0231836
-0.0235888
-0.0239385
-0.024224
-0.0244367
-0.024568
-0.0246096
-0.0245536
-0.0243926
-0.0241203
-0.0237312
-0.0232214
-0.0225883
-0.0218314
-0.0209521
-0.0199546
-0.0188457
-0.0176345
-0.0163328
-0.0149558
-0.0135214
-0.0120508
-0.0105676
-0.00909787
-0.00766904
-0.00630963
-0.00504826
-0.00391273