/*--------------------------------*- C++ -*----------------------------------*\
  =========                 |
  \\      /  F ield         | OpenFOAM: The Open Source CFD Toolbox
   \\    /   O peration     | Website:  https://openfoam.org
    \\  /    A nd           | Version:  12
     \\/     M anipulation  |
\*---------------------------------------------------------------------------*/
FoamFile
{
    format      ascii;
    class       volVectorField;
    location    "2";
    object      U;
}
// * * * * * * * * * * * * * * * * * * * * * * * * * * * * * * * * * * * * * //

dimensions      [0 1 -1 0 0 0 0];

internalField   nonuniform List<vector> 
5625
(
(8.85067e-06 -8.87012e-06 0)
(4.06117e-05 -1.27394e-05 0)
(7.10725e-05 -1.10049e-05 0)
(8.63837e-05 -6.72143e-06 0)
(7.72889e-05 -1.71948e-06 0)
(4.07615e-05 3.32167e-06 0)
(-2.32862e-05 8.05874e-06 0)
(-0.000113513 1.23287e-05 0)
(-0.000227814 1.60757e-05 0)
(-0.000363716 1.93012e-05 0)
(-0.000518613 2.20337e-05 0)
(-0.00068992 2.43139e-05 0)
(-0.000875153 2.61868e-05 0)
(-0.00107197 2.76966e-05 0)
(-0.0012782 2.8885e-05 0)
(-0.00149183 2.97889e-05 0)
(-0.001711 3.04404e-05 0)
(-0.001934 3.08662e-05 0)
(-0.00215924 3.10876e-05 0)
(-0.00238523 3.11207e-05 0)
(-0.00261054 3.0977e-05 0)
(-0.00283383 3.06635e-05 0)
(-0.00305377 3.01836e-05 0)
(-0.00326905 2.95375e-05 0)
(-0.00347838 2.87229e-05 0)
(-0.00368047 2.77358e-05 0)
(-0.003874 2.65709e-05 0)
(-0.00405765 2.52227e-05 0)
(-0.0042301 2.36857e-05 0)
(-0.00439001 2.19554e-05 0)
(-0.00453603 2.00287e-05 0)
(-0.00466685 1.79044e-05 0)
(-0.00478116 1.55842e-05 0)
(-0.00487772 1.30723e-05 0)
(-0.00495534 1.03759e-05 0)
(-0.00501291 7.50573e-06 0)
(-0.00504943 4.47838e-06 0)
(-0.00506406 1.32234e-06 0)
(-0.00505611 -1.95787e-06 0)
(-0.00502502 -5.31841e-06 0)
(-0.00497049 -8.73341e-06 0)
(-0.00489242 -1.21665e-05 0)
(-0.00479098 -1.55787e-05 0)
(-0.00466657 -1.89281e-05 0)
(-0.00451987 -2.21709e-05 0)
(-0.00435186 -2.52616e-05 0)
(-0.00416377 -2.81544e-05 0)
(-0.00395716 -3.08035e-05 0)
(-0.00373383 -3.31645e-05 0)
(-0.00349585 -3.51953e-05 0)
(-0.00324556 -3.6857e-05 0)
(-0.00298547 -3.81151e-05 0)
(-0.00271834 -3.89399e-05 0)
(-0.00244705 -3.9308e-05 0)
(-0.00217459 -3.92023e-05 0)
(-0.00190407 -3.86131e-05 0)
(-0.00163857 -3.7538e-05 0)
(-0.00138118 -3.59824e-05 0)
(-0.00113493 -3.39592e-05 0)
(-0.000902717 -3.1489e-05 0)
(-0.000687264 -2.85995e-05 0)
(-0.000491085 -2.53253e-05 0)
(-0.000316423 -2.17079e-05 0)
(-0.000165203 -1.77951e-05 0)
(-3.89774e-05 -1.36427e-05 0)
(6.11346e-05 -9.31599e-06 0)
(0.000134521 -4.89197e-06 0)
(0.000181181 -4.70154e-07 0)
(0.000201862 3.81457e-06 0)
(0.000198281 7.76444e-06 0)
(0.00017343 1.10796e-05 0)
(0.000132057 1.33098e-05 0)
(8.17528e-05 1.3741e-05 0)
(3.48423e-05 1.09735e-05 0)
(4.39486e-06 4.39179e-06 0)
(1.28326e-05 -4.0722e-05 0)
(6.038e-05 -6.00782e-05 0)
(9.10627e-05 -4.02377e-05 0)
(7.93001e-05 9.02991e-07 0)
(7.27567e-06 5.189e-05 0)
(-0.000132348 0.000105922 0)
(-0.000340913 0.000159022 0)
(-0.000616249 0.000208941 0)
(-0.000954042 0.00025448 0)
(-0.00134875 0.00029509 0)
(-0.00179422 0.000330613 0)
(-0.00228408 0.000361128 0)
(-0.00281203 0.000386849 0)
(-0.00337196 0.000408058 0)
(-0.00395807 0.000425067 0)
(-0.00456488 0.000438182 0)
(-0.00518725 0.000447691 0)
(-0.00582036 0.000453849 0)
(-0.00645966 0.000456873 0)
(-0.00710084 0.000456936 0)
(-0.0077398 0.000454173 0)
(-0.00837257 0.000448676 0)
(-0.00899529 0.000440505 0)
(-0.00960417 0.00042969 0)
(-0.0101954 0.000416237 0)
(-0.0107653 0.000400137 0)
(-0.0113102 0.000381372 0)
(-0.0118261 0.000359922 0)
(-0.0123095 0.000335772 0)
(-0.0127565 0.000308923 0)
(-0.0131635 0.000279392 0)
(-0.0135268 0.000247226 0)
(-0.0138429 0.0002125 0)
(-0.0141085 0.00017533 0)
(-0.0143203 0.000135867 0)
(-0.0144755 9.43054e-05 0)
(-0.0145714 5.08923e-05 0)
(-0.0146059 5.99821e-06 0)
(-0.0145773 -4.01737e-05 0)
(-0.0144843 -8.71518e-05 0)
(-0.0143261 -0.000134516 0)
(-0.0141027 -0.000181796 0)
(-0.0138148 -0.000228486 0)
(-0.0134635 -0.000274051 0)
(-0.0130509 -0.000317936 0)
(-0.0125799 -0.000359574 0)
(-0.0120538 -0.000398397 0)
(-0.0114769 -0.000433845 0)
(-0.0108543 -0.00046538 0)
(-0.0101917 -0.000492493 0)
(-0.00949531 -0.000514722 0)
(-0.0087721 -0.000531656 0)
(-0.00802943 -0.000542949 0)
(-0.00727509 -0.00054833 0)
(-0.00651719 -0.000547609 0)
(-0.00576399 -0.000540687 0)
(-0.00502382 -0.000527558 0)
(-0.00430496 -0.000508313 0)
(-0.00361546 -0.000483143 0)
(-0.00296308 -0.00045234 0)
(-0.00235506 -0.000416296 0)
(-0.00179808 -0.000375502 0)
(-0.00129802 -0.000330553 0)
(-0.000859909 -0.000282149 0)
(-0.000487709 -0.000231107 0)
(-0.000184168 -0.000178385 0)
(4.93915e-05 -0.000125111 0)
(0.000213317 -7.26548e-05 0)
(0.000309963 -2.27292e-05 0)
(0.000344128 2.24495e-05 0)
(0.000323617 5.99221e-05 0)
(0.000260003 8.56524e-05 0)
(0.000170099 9.41496e-05 0)
(7.85951e-05 7.86356e-05 0)
(1.08934e-05 3.47505e-05 0)
(1.12742e-05 -7.16297e-05 0)
(4.10764e-05 -9.10361e-05 0)
(3.04045e-05 -2.97659e-05 0)
(-4.96355e-05 7.72306e-05 0)
(-0.000219231 0.000207185 0)
(-0.000487642 0.000345443 0)
(-0.000857056 0.000482681 0)
(-0.001325 0.000613151 0)
(-0.00188592 0.000733488 0)
(-0.00253233 0.000841894 0)
(-0.00325561 0.000937596 0)
(-0.00404666 0.00102048 0)
(-0.00489623 0.00109084 0)
(-0.00579523 0.0011492 0)
(-0.00673486 0.00119621 0)
(-0.0077067 0.00123257 0)
(-0.00870274 0.00125893 0)
(-0.00971539 0.0012759 0)
(-0.0107374 0.00128402 0)
(-0.0117619 0.00128371 0)
(-0.0127823 0.00127532 0)
(-0.0137921 0.0012591 0)
(-0.0147851 0.00123522 0)
(-0.0157552 0.00120378 0)
(-0.0166962 0.00116483 0)
(-0.0176022 0.00111838 0)
(-0.0184671 0.00106441 0)
(-0.019285 0.00100292 0)
(-0.0200498 0.000933907 0)
(-0.0207559 0.00085743 0)
(-0.0213972 0.000773585 0)
(-0.0219683 0.000682546 0)
(-0.0224637 0.000584571 0)
(-0.0228781 0.000480014 0)
(-0.0232068 0.000369341 0)
(-0.0234454 0.000253128 0)
(-0.0235901 0.000132085 0)
(-0.0236377 7.06196e-06 0)
(-0.0235855 -0.000121021 0)
(-0.0234318 -0.000251087 0)
(-0.0231758 -0.00038195 0)
(-0.0228176 -0.000512324 0)
(-0.0223583 -0.000640838 0)
(-0.0218 -0.000766052 0)
(-0.021146 -0.000886477 0)
(-0.0204008 -0.0010006 0)
(-0.0195699 -0.0011069 0)
(-0.01866 -0.00120391 0)
(-0.0176789 -0.00129018 0)
(-0.0166354 -0.00136438 0)
(-0.0155393 -0.0014253 0)
(-0.0144011 -0.00147184 0)
(-0.0132323 -0.00150311 0)
(-0.0120448 -0.0015184 0)
(-0.010851 -0.00151722 0)
(-0.00966346 -0.00149933 0)
(-0.00849503 -0.00146472 0)
(-0.00735829 -0.00141366 0)
(-0.00626556 -0.00134668 0)
(-0.00522862 -0.0012646 0)
(-0.00425852 -0.00116849 0)
(-0.00336537 -0.00105972 0)
(-0.00255808 -0.000939936 0)
(-0.0018442 -0.000811085 0)
(-0.00122963 -0.000675439 0)
(-0.000718386 -0.000535641 0)
(-0.000312278 -0.000394794 0)
(-1.05958e-05 -0.000256582 0)
(0.000190328 -0.000125472 0)
(0.000297626 -6.99615e-06 0)
(0.000322479 9.18592e-05 0)
(0.0002808 0.000162196 0)
(0.000194573 0.000192776 0)
(9.48027e-05 0.000170213 0)
(1.3645e-05 8.15496e-05 0)
(7.13623e-06 -8.7651e-05 0)
(-2.47308e-07 -7.94555e-05 0)
(-7.82089e-05 5.0449e-05 0)
(-0.000254197 0.000251417 0)
(-0.000546566 0.000489549 0)
(-0.000964233 0.000741914 0)
(-0.00150915 0.000993139 0)
(-0.00217825 0.00123324 0)
(-0.00296491 0.00145601 0)
(-0.00386016 0.00165788 0)
(-0.00485358 0.00183709 0)
(-0.00593396 0.00199307 0)
(-0.00708976 0.00212605 0)
(-0.0083095 0.00223674 0)
(-0.00958189 0.00232613 0)
(-0.0108961 0.00239531 0)
(-0.0122415 0.00244538 0)
(-0.0136082 0.00247736 0)
(-0.0149866 0.00249216 0)
(-0.0163674 0.00249056 0)
(-0.0177416 0.00247316 0)
(-0.0191007 0.00244042 0)
(-0.020436 0.00239269 0)
(-0.0217394 0.00233015 0)
(-0.0230026 0.00225295 0)
(-0.0242174 0.00216113 0)
(-0.0253758 0.00205473 0)
(-0.0264698 0.00193378 0)
(-0.0274915 0.00179838 0)
(-0.028433 0.00164868 0)
(-0.0292867 0.00148493 0)
(-0.0300452 0.00130752 0)
(-0.0307015 0.00111703 0)
(-0.0312487 0.000914167 0)
(-0.0316809 0.000699886 0)
(-0.0319922 0.000475337 0)
(-0.032178 0.000241901 0)
(-0.032234 1.1949e-06 0)
(-0.0321573 -0.000244968 0)
(-0.0319456 -0.00049454 0)
(-0.0315983 -0.00074527 0)
(-0.0311154 -0.000994729 0)
(-0.0304988 -0.00124033 0)
(-0.0297514 -0.00147937 0)
(-0.0288777 -0.00170907 0)
(-0.0278837 -0.00192659 0)
(-0.0267766 -0.00212911 0)
(-0.0255654 -0.00231389 0)
(-0.0242601 -0.00247825 0)
(-0.0228725 -0.00261973 0)
(-0.0214151 -0.00273607 0)
(-0.0199017 -0.00282526 0)
(-0.0183472 -0.00288565 0)
(-0.0167671 -0.00291594 0)
(-0.0151773 -0.00291524 0)
(-0.0135943 -0.00288311 0)
(-0.0120345 -0.00281956 0)
(-0.0105142 -0.00272513 0)
(-0.00904948 -0.00260083 0)
(-0.00765539 -0.0024482 0)
(-0.00634626 -0.00226932 0)
(-0.0051351 -0.00206678 0)
(-0.00403342 -0.00184372 0)
(-0.00305089 -0.00160386 0)
(-0.00219509 -0.00135152 0)
(-0.00147112 -0.00109171 0)
(-0.000881316 -0.000830245 0)
(-0.000424818 -0.000573947 0)
(-9.71455e-05 -0.000330887 0)
(0.000110294 -0.000110768 0)
(0.000210726 7.46047e-05 0)
(0.000222555 0.000210795 0)
(0.000170559 0.000280264 0)
(8.88492e-05 0.000262126 0)
(1.33915e-05 0.000132436 0)
(2.15307e-06 -7.89629e-05 0)
(-5.30552e-05 -5.83949e-06 0)
(-0.000214292 0.000223347 0)
(-0.000504618 0.000545646 0)
(-0.000937624 0.000917557 0)
(-0.00152004 0.00130856 0)
(-0.00225245 0.00169741 0)
(-0.00313054 0.00206978 0)
(-0.00414646 0.00241641 0)
(-0.00528986 0.00273169 0)
(-0.00654875 0.00301259 0)
(-0.00791019 0.00325792 0)
(-0.00936081 0.00346769 0)
(-0.0108871 0.00364268 0)
(-0.0124758 0.00378416 0)
(-0.0141139 0.00389361 0)
(-0.0157889 0.00397254 0)
(-0.0174884 0.00402243 0)
(-0.0192009 0.00404459 0)
(-0.020915 0.00404014 0)
(-0.0226196 0.00401001 0)
(-0.0243041 0.00395491 0)
(-0.0259579 0.00387535 0)
(-0.0275708 0.00377169 0)
(-0.0291326 0.00364415 0)
(-0.0306332 0.0034929 0)
(-0.0320626 0.00331804 0)
(-0.033411 0.00311973 0)
(-0.0346688 0.00289816 0)
(-0.0358263 0.00265368 0)
(-0.0368744 0.00238679 0)
(-0.037804 0.00209819 0)
(-0.0386066 0.00178887 0)
(-0.0392743 0.00146007 0)
(-0.0397997 0.00111335 0)
(-0.0401761 0.00075063 0)
(-0.0403979 0.000374144 0)
(-0.0404603 -1.35044e-05 0)
(-0.0403598 -0.000409384 0)
(-0.0400941 -0.000810227 0)
(-0.0396624 -0.00121246 0)
(-0.0390651 -0.00161222 0)
(-0.0383046 -0.00200545 0)
(-0.0373846 -0.00238787 0)
(-0.0363106 -0.00275512 0)
(-0.0350899 -0.00310276 0)
(-0.0337315 -0.00342638 0)
(-0.0322461 -0.00372167 0)
(-0.0306459 -0.00398449 0)
(-0.0289448 -0.00421098 0)
(-0.0271582 -0.00439762 0)
(-0.0253024 -0.00454131 0)
(-0.0233953 -0.00463947 0)
(-0.0214553 -0.00469008 0)
(-0.0195017 -0.00469177 0)
(-0.0175539 -0.00464387 0)
(-0.0156318 -0.00454643 0)
(-0.0137548 -0.00440029 0)
(-0.0119419 -0.00420709 0)
(-0.0102113 -0.00396927 0)
(-0.00858008 -0.00369013 0)
(-0.00706384 -0.00337378 0)
(-0.00567633 -0.00302521 0)
(-0.00442915 -0.00265033 0)
(-0.0033314 -0.00225595 0)
(-0.0023893 -0.00184997 0)
(-0.00160581 -0.00144147 0)
(-0.000980244 -0.00104093 0)
(-0.000507856 -0.000660559 0)
(-0.000179372 -0.000314689 0)
(1.94217e-05 -2.02882e-05 0)
(0.000108128 0.000202455 0)
(0.000112731 0.000329547 0)
(6.81043e-05 0.000332399 0)
(1.16072e-05 0.000176226 0)
(-3.07595e-06 -4.14989e-05 0)
(-0.000111336 0.000139914 0)
(-0.000365133 0.000502477 0)
(-0.000781419 0.000974552 0)
(-0.00136711 0.00150505 0)
(-0.00212534 0.00205704 0)
(-0.00305428 0.00260409 0)
(-0.00414774 0.00312781 0)
(-0.00539622 0.00361598 0)
(-0.00678788 0.00406089 0)
(-0.00830923 0.00445821 0)
(-0.00994579 0.00480596 0)
(-0.0116826 0.00510384 0)
(-0.0135044 0.00535265 0)
(-0.0153962 0.00555385 0)
(-0.0173433 0.00570924 0)
(-0.0193312 0.00582078 0)
(-0.0213459 0.00589033 0)
(-0.0233738 0.00591963 0)
(-0.0254018 0.00591017 0)
(-0.027417 0.00586319 0)
(-0.0294067 0.00577966 0)
(-0.0313588 0.00566032 0)
(-0.033261 0.00550568 0)
(-0.0351015 0.00531614 0)
(-0.0368684 0.00509195 0)
(-0.0385501 0.00483339 0)
(-0.040135 0.00454073 0)
(-0.0416119 0.00421439 0)
(-0.0429698 0.00385495 0)
(-0.0441978 0.00346323 0)
(-0.0452857 0.00304039 0)
(-0.0462237 0.00258791 0)
(-0.0470027 0.00210768 0)
(-0.0476142 0.00160205 0)
(-0.0480508 0.00107383 0)
(-0.0483061 0.000526302 0)
(-0.0483749 -3.67605e-05 0)
(-0.0482531 -0.000611109 0)
(-0.0479385 -0.00119204 0)
(-0.0474301 -0.00177442 0)
(-0.0467287 -0.00235277 0)
(-0.0458371 -0.00292125 0)
(-0.0447598 -0.00347382 0)
(-0.0435032 -0.00400426 0)
(-0.0420757 -0.0045063 0)
(-0.0404878 -0.00497369 0)
(-0.0387515 -0.00540035 0)
(-0.0368811 -0.00578043 0)
(-0.0348925 -0.00610847 0)
(-0.0328031 -0.00637952 0)
(-0.0306317 -0.0065892 0)
(-0.0283987 -0.00673388 0)
(-0.0261252 -0.00681071 0)
(-0.023833 -0.00681778 0)
(-0.0215446 -0.00675412 0)
(-0.0192824 -0.00661984 0)
(-0.0170688 -0.00641613 0)
(-0.0149255 -0.00614533 0)
(-0.0128734 -0.00581094 0)
(-0.0109319 -0.00541763 0)
(-0.00911914 -0.00497131 0)
(-0.00745081 -0.00447909 0)
(-0.00594039 -0.00394936 0)
(-0.00459849 -0.00339182 0)
(-0.00343251 -0.00281762 0)
(-0.00244627 -0.00223949 0)
(-0.00163961 -0.00167195 0)
(-0.00100799 -0.00113168 0)
(-0.000542144 -0.000637877 0)
(-0.00022768 -0.000212817 0)
(-4.47702e-05 0.000117545 0)
(3.25825e-05 0.000322879 0)
(3.82262e-05 0.000367295 0)
(9.03121e-06 0.000206682 0)
(-8.26334e-06 2.62231e-05 0)
(-0.000171697 0.000362759 0)
(-0.000522873 0.00089551 0)
(-0.00107184 0.00154724 0)
(-0.00181772 0.00226133 0)
(-0.00275904 0.00299581 0)
(-0.00389075 0.00371994 0)
(-0.00520413 0.00441187 0)
(-0.00668767 0.00505671 0)
(-0.00832775 0.00564484 0)
(-0.0101093 0.00617064 0)
(-0.0120164 0.00663138 0)
(-0.0140325 0.00702641 0)
(-0.016141 0.00735646 0)
(-0.0183252 0.00762318 0)
(-0.020569 0.00782866 0)
(-0.0228562 0.00797523 0)
(-0.0251713 0.00806516 0)
(-0.027499 0.00810058 0)
(-0.0298246 0.00808334 0)
(-0.0321336 0.008015 0)
(-0.0344116 0.00789681 0)
(-0.0366449 0.00772973 0)
(-0.0388196 0.00751448 0)
(-0.0409222 0.00725161 0)
(-0.0429394 0.00694155 0)
(-0.0448579 0.00658474 0)
(-0.0466648 0.00618166 0)
(-0.0483474 0.00573299 0)
(-0.0498931 0.00523963 0)
(-0.0512901 0.00470283 0)
(-0.0525268 0.00412423 0)
(-0.0535922 0.00350596 0)
(-0.0544763 0.00285068 0)
(-0.0551698 0.00216163 0)
(-0.0556644 0.00144268 0)
(-0.055953 0.000698293 0)
(-0.0560301 -6.64045e-05 0)
(-0.0558912 -0.00084568 0)
(-0.0555339 -0.00163321 0)
(-0.0549573 -0.00242212 0)
(-0.0541624 -0.00320507 0)
(-0.0531524 -0.0039743 0)
(-0.0519323 -0.00472175 0)
(-0.0505093 -0.00543917 0)
(-0.0488928 -0.00611822 0)
(-0.0470944 -0.00675063 0)
(-0.0451276 -0.00732832 0)
(-0.0430082 -0.00784356 0)
(-0.0407536 -0.00828913 0)
(-0.0383833 -0.00865844 0)
(-0.0359183 -0.00894572 0)
(-0.0333808 -0.00914612 0)
(-0.0307944 -0.0092559 0)
(-0.0281834 -0.00927247 0)
(-0.0255725 -0.00919458 0)
(-0.0229869 -0.00902235 0)
(-0.0204514 -0.00875734 0)
(-0.0179901 -0.00840266 0)
(-0.0156264 -0.00796296 0)
(-0.0133823 -0.00744445 0)
(-0.0112776 -0.00685499 0)
(-0.00933047 -0.00620402 0)
(-0.00755599 -0.00550269 0)
(-0.0059664 -0.00476386 0)
(-0.00457046 -0.00400219 0)
(-0.00337307 -0.00323434 0)
(-0.00237493 -0.00247915 0)
(-0.0015722 -0.00175794 0)
(-0.000956135 -0.00109492 0)
(-0.000512849 -0.000517679 0)
(-0.000223034 -5.78336e-05 0)
(-6.15843e-05 0.000248276 0)
(3.06607e-06 0.000358212 0)
(6.10328e-06 0.000220394 0)
(-1.32781e-05 0.0001245 0)
(-0.000232261 0.000664737 0)
(-0.00068273 0.00140631 0)
(-0.00136762 0.00226882 0)
(-0.00227773 0.00319195 0)
(-0.00340633 0.00413011 0)
(-0.00474453 0.00504927 0)
(-0.00628059 0.00592482 0)
(-0.00800053 0.00673968 0)
(-0.00988874 0.00748263 0)
(-0.0119285 0.00814693 0)
(-0.0141022 0.0087292 0)
(-0.0163919 0.00922847 0)
(-0.0187797 0.00964544 0)
(-0.0212475 0.0099819 0)
(-0.0237776 0.0102402 0)
(-0.0263528 0.0104231 0)
(-0.0289559 0.0105332 0)
(-0.0315704 0.010573 0)
(-0.0341799 0.0105447 0)
(-0.0367686 0.0104502 0)
(-0.0393208 0.010291 0)
(-0.041821 0.0100683 0)
(-0.0442542 0.00978304 0)
(-0.0466054 0.00943596 0)
(-0.0488598 0.00902768 0)
(-0.0510029 0.00855885 0)
(-0.0530202 0.00803022 0)
(-0.054898 0.00744275 0)
(-0.0566224 0.00679776 0)
(-0.0581804 0.00609696 0)
(-0.0595593 0.0053426 0)
(-0.0607472 0.00453755 0)
(-0.0617331 0.00368533 0)
(-0.0625068 0.00279019 0)
(-0.0630595 0.00185717 0)
(-0.0633835 0.00089207 0)
(-0.0634726 -9.85039e-05 0)
(-0.0633224 -0.00110718 0)
(-0.0629299 -0.00212587 0)
(-0.0622944 -0.00314578 0)
(-0.061417 -0.00415755 0)
(-0.060301 -0.00515132 0)
(-0.0589521 -0.00611684 0)
(-0.0573779 -0.00704364 0)
(-0.0555888 -0.00792114 0)
(-0.053597 -0.00873886 0)
(-0.0514175 -0.00948655 0)
(-0.0490671 -0.0101544 0)
(-0.0465648 -0.0107333 0)
(-0.0439318 -0.0112149 0)
(-0.0411906 -0.0115917 0)
(-0.0383657 -0.0118578 0)
(-0.0354824 -0.0120082 0)
(-0.0325673 -0.0120397 0)
(-0.0296474 -0.0119506 0)
(-0.0267501 -0.0117411 0)
(-0.0239026 -0.011413 0)
(-0.0211313 -0.0109703 0)
(-0.018462 -0.0104188 0)
(-0.0159188 -0.00976648 0)
(-0.0135238 -0.00902312 0)
(-0.0112971 -0.00820075 0)
(-0.00925583 -0.00731342 0)
(-0.0074138 -0.00637734 0)
(-0.00578135 -0.00541093 0)
(-0.00436476 -0.00443497 0)
(-0.00316593 -0.00347276 0)
(-0.00218209 -0.0025504 0)
(-0.00140553 -0.00169715 0)
(-0.00082337 -0.000945876 0)
(-0.000417407 -0.000333633 0)
(-0.000164076 9.76517e-05 0)
(-3.48826e-05 0.000299826 0)
(3.0868e-06 0.000215546 0)
(-1.80744e-05 0.000252998 0)
(-0.000292012 0.00104611 0)
(-0.000841836 0.00203617 0)
(-0.0016635 0.00314147 0)
(-0.0027393 0.00429961 0)
(-0.00405692 0.00546263 0)
(-0.00560318 0.00659427 0)
(-0.00736292 0.00766794 0)
(-0.00931939 0.00866495 0)
(-0.0114547 0.00957287 0)
(-0.0137503 0.0103841 0)
(-0.016187 0.0110949 0)
(-0.0187453 0.011704 0)
(-0.021406 0.0122121 0)
(-0.0241498 0.0126212 0)
(-0.0269577 0.0129341 0)
(-0.0298111 0.0131536 0)
(-0.0326918 0.0132828 0)
(-0.0355819 0.0133246 0)
(-0.0384639 0.0132816 0)
(-0.0413206 0.0131559 0)
(-0.0441351 0.0129493 0)
(-0.0468907 0.0126633 0)
(-0.049571 0.0122989 0)
(-0.0521598 0.0118572 0)
(-0.054641 0.0113391 0)
(-0.056999 0.0107453 0)
(-0.0592182 0.0100769 0)
(-0.0612835 0.00933525 0)
(-0.0631801 0.00852213 0)
(-0.0648938 0.00763978 0)
(-0.0664111 0.00669113 0)
(-0.0677191 0.00567985 0)
(-0.0688059 0.00461041 0)
(-0.0696607 0.00348818 0)
(-0.0702739 0.00231948 0)
(-0.0706372 0.00111154 0)
(-0.0707441 -0.000127438 0)
(-0.0705897 -0.00138832 0)
(-0.0701708 -0.00266109 0)
(-0.0694866 -0.00393494 0)
(-0.0685381 -0.00519833 0)
(-0.0673289 -0.00643915 0)
(-0.0658648 -0.00764481 0)
(-0.064154 -0.00880245 0)
(-0.0622072 -0.00989911 0)
(-0.0600378 -0.0109219 0)
(-0.0576612 -0.0118583 0)
(-0.0550955 -0.0126962 0)
(-0.0523611 -0.0134245 0)
(-0.0494802 -0.0140327 0)
(-0.0464772 -0.0145119 0)
(-0.043378 -0.0148544 0)
(-0.04021 -0.0150544 0)
(-0.0370016 -0.0151075 0)
(-0.033782 -0.0150118 0)
(-0.0305807 -0.0147673 0)
(-0.0274271 -0.0143763 0)
(-0.02435 -0.0138433 0)
(-0.0213773 -0.0131756 0)
(-0.0185355 -0.0123827 0)
(-0.0158489 -0.0114767 0)
(-0.0133397 -0.0104721 0)
(-0.011027 -0.00938606 0)
(-0.00892655 -0.00823833 0)
(-0.00705049 -0.00705121 0)
(-0.00540671 -0.00584972 0)
(-0.00399866 -0.00466176 0)
(-0.00282501 -0.00351826 0)
(-0.00187946 -0.00245355 0)
(-0.00115058 -0.00150567 0)
(-0.000621687 -0.000716895 0)
(-0.000271196 -0.000134294 0)
(-7.40861e-05 0.000189029 0)
(1.21183e-07 0.000191298 0)
(-2.26487e-05 0.000411058 0)
(-0.000350419 0.00150605 0)
(-0.000998492 0.00278469 0)
(-0.00195612 0.00416534 0)
(-0.0031972 0.00558481 0)
(-0.00470362 0.00699399 0)
(-0.00645772 0.00835533 0)
(-0.00844062 0.00964108 0)
(-0.0106326 0.0108316 0)
(-0.0130132 0.0119136 0)
(-0.0155619 0.0128792 0)
(-0.0182578 0.0137243 0)
(-0.02108 0.0144476 0)
(-0.0240078 0.0150499 0)
(-0.0270208 0.0155336 0)
(-0.0300988 0.0159016 0)
(-0.0332222 0.0161573 0)
(-0.0363715 0.0163041 0)
(-0.0395279 0.0163452 0)
(-0.0426728 0.0162835 0)
(-0.0457877 0.0161214 0)
(-0.0488547 0.0158611 0)
(-0.0518562 0.0155043 0)
(-0.0547744 0.0150522 0)
(-0.0575921 0.0145061 0)
(-0.0602922 0.013867 0)
(-0.062858 0.0131361 0)
(-0.0652727 0.0123148 0)
(-0.0675203 0.0114047 0)
(-0.0695851 0.0104082 0)
(-0.0714519 0.00932806 0)
(-0.0731061 0.00816798 0)
(-0.0745342 0.00693247 0)
(-0.0757235 0.00562706 0)
(-0.0766623 0.0042583 0)
(-0.0773405 0.00283383 0)
(-0.0777491 0.00136245 0)
(-0.0778811 -0.000145964 0)
(-0.0777311 -0.00168042 0)
(-0.0772958 -0.00322888 0)
(-0.076574 -0.00477839 0)
(-0.0755666 -0.00631513 0)
(-0.0742771 -0.00782459 0)
(-0.0727114 -0.00929172 0)
(-0.0708781 -0.0107011 0)
(-0.0687882 -0.0120373 0)
(-0.0664554 -0.0132849 0)
(-0.0638961 -0.0144288 0)
(-0.0611291 -0.0154546 0)
(-0.0581757 -0.0163487 0)
(-0.0550595 -0.0170988 0)
(-0.0518061 -0.017694 0)
(-0.048443 -0.0181251 0)
(-0.0449992 -0.0183847 0)
(-0.041505 -0.0184678 0)
(-0.0379916 -0.0183716 0)
(-0.0344905 -0.0180961 0)
(-0.0310334 -0.0176438 0)
(-0.0276514 -0.0170202 0)
(-0.0243746 -0.0162334 0)
(-0.0212318 -0.015295 0)
(-0.0182498 -0.014219 0)
(-0.0154529 -0.0130227 0)
(-0.0128625 -0.0117266 0)
(-0.0104965 -0.0103538 0)
(-0.00836901 -0.00893074 0)
(-0.00648985 -0.00748675 0)
(-0.00486433 -0.00605439 0)
(-0.0034929 -0.00466952 0)
(-0.00237101 -0.00337149 0)
(-0.00148899 -0.00220343 0)
(-0.000832021 -0.00121265 0)
(-0.00038072 -0.000450976 0)
(-0.00011367 2.41376e-05 0)
(-2.72878e-06 0.000147389 0)
(-2.70137e-05 0.000597861 0)
(-0.000407214 0.00204308 0)
(-0.0011517 0.00365032 0)
(-0.00224336 0.00533907 0)
(-0.0036479 0.00704644 0)
(-0.00534144 0.00872315 0)
(-0.00730169 0.0103313 0)
(-0.00950588 0.0118428 0)
(-0.0119311 0.0132376 0)
(-0.0145543 0.0145023 0)
(-0.0173528 0.0156288 0)
(-0.0203039 0.016613 0)
(-0.0233852 0.017454 0)
(-0.0265746 0.0181529 0)
(-0.0298506 0.0187123 0)
(-0.033192 0.0191355 0)
(-0.0365779 0.0194263 0)
(-0.0399882 0.0195886 0)
(-0.0434028 0.0196259 0)
(-0.0468023 0.0195414 0)
(-0.0501673 0.0193379 0)
(-0.0534789 0.0190178 0)
(-0.0567184 0.0185829 0)
(-0.0598673 0.0180349 0)
(-0.0629073 0.0173752 0)
(-0.0658204 0.016605 0)
(-0.0685888 0.0157258 0)
(-0.0711951 0.0147393 0)
(-0.0736221 0.0136477 0)
(-0.0758533 0.0124538 0)
(-0.0778725 0.0111609 0)
(-0.0796646 0.00977361 0)
(-0.081215 0.00829731 0)
(-0.0825102 0.00673859 0)
(-0.0835381 0.00510526 0)
(-0.0842875 0.00340638 0)
(-0.0847491 0.00165231 0)
(-0.0849152 -0.000145283 0)
(-0.0847799 -0.00197348 0)
(-0.0843393 -0.00381817 0)
(-0.0835919 -0.00566412 0)
(-0.0825384 -0.00749514 0)
(-0.0811821 -0.00929423 0)
(-0.0795288 -0.0110437 0)
(-0.0775869 -0.0127257 0)
(-0.0753678 -0.0143218 0)
(-0.0728855 -0.015814 0)
(-0.0701567 -0.0171846 0)
(-0.067201 -0.0184166 0)
(-0.0640404 -0.0194941 0)
(-0.0606994 -0.0204024 0)
(-0.0572049 -0.0211285 0)
(-0.0535858 -0.0216614 0)
(-0.0498727 -0.0219924 0)
(-0.0460975 -0.0221152 0)
(-0.0422934 -0.0220264 0)
(-0.0384941 -0.0217256 0)
(-0.0347332 -0.0212155 0)
(-0.0310444 -0.0205022 0)
(-0.0274601 -0.0195952 0)
(-0.0240116 -0.0185075 0)
(-0.0207281 -0.0172556 0)
(-0.0176365 -0.0158594 0)
(-0.0147606 -0.0143425 0)
(-0.0121205 -0.0127318 0)
(-0.00973289 -0.0110578 0)
(-0.00760969 -0.00935434 0)
(-0.00575835 -0.00765864 0)
(-0.00418141 -0.00601152 0)
(-0.00287638 -0.00445737 0)
(-0.00183561 -0.00304437 0)
(-0.00104633 -0.00182467 0)
(-0.00049149 -0.000854671 0)
(-0.000153216 -0.000195725 0)
(-5.44268e-06 8.38563e-05 0)
(-3.11856e-05 0.000812519 0)
(-0.000462269 0.00265533 0)
(-0.00130085 0.00463079 0)
(-0.00252384 0.00666029 0)
(-0.00408902 0.00868212 0)
(-0.00596683 0.0106478 0)
(-0.00813032 0.0125198 0)
(-0.0105528 0.0142705 0)
(-0.013208 0.01588 0)
(-0.0160703 0.0173354 0)
(-0.0191146 0.0186288 0)
(-0.0223164 0.0197567 0)
(-0.0256519 0.0207183 0)
(-0.0290975 0.0215154 0)
(-0.0326306 0.022151 0)
(-0.0362289 0.022629 0)
(-0.0398708 0.0229536 0)
(-0.0435351 0.023129 0)
(-0.047201 0.0231593 0)
(-0.0508481 0.0230479 0)
(-0.0544563 0.0227981 0)
(-0.0580058 0.0224123 0)
(-0.0614773 0.0218927 0)
(-0.0648512 0.0212411 0)
(-0.0681085 0.0204592 0)
(-0.0712305 0.0195486 0)
(-0.0741984 0.0185108 0)
(-0.0769939 0.0173481 0)
(-0.0795992 0.016063 0)
(-0.0819969 0.0146587 0)
(-0.0841701 0.0131395 0)
(-0.0861028 0.0115105 0)
(-0.0877795 0.00977823 0)
(-0.0891863 0.00795025 0)
(-0.0903099 0.00603567 0)
(-0.0911387 0.00404501 0)
(-0.0916626 0.00199026 0)
(-0.0918733 -0.000115108 0)
(-0.0917641 -0.0022562 0)
(-0.0913307 -0.00441672 0)
(-0.0905709 -0.00657916 0)
(-0.0894851 -0.00872484 0)
(-0.088076 -0.0108342 0)
(-0.0863492 -0.0128868 0)
(-0.0843131 -0.014862 0)
(-0.0819787 -0.0167387 0)
(-0.0793603 -0.018496 0)
(-0.0764747 -0.0201133 0)
(-0.0733419 -0.0215709 0)
(-0.0699847 -0.0228503 0)
(-0.0664283 -0.0239343 0)
(-0.0627006 -0.0248077 0)
(-0.0588316 -0.0254574 0)
(-0.0548536 -0.025873 0)
(-0.0508002 -0.0260471 0)
(-0.0467064 -0.0259752 0)
(-0.0426079 -0.0256564 0)
(-0.0385407 -0.0250936 0)
(-0.0345409 -0.0242934 0)
(-0.0306435 -0.0232663 0)
(-0.0268824 -0.0220269 0)
(-0.0232895 -0.0205941 0)
(-0.0198943 -0.0189904 0)
(-0.0167233 -0.0172426 0)
(-0.0137996 -0.0153815 0)
(-0.0111421 -0.0134416 0)
(-0.0087654 -0.0114612 0)
(-0.00667946 -0.0094826 0)
(-0.00488913 -0.00755142 0)
(-0.00339422 -0.0057172 0)
(-0.00218932 -0.00403312 0)
(-0.00126386 -0.00255616 0)
(-0.000603117 -0.00134711 0)
(-0.000192616 -0.000471072 0)
(-8.02612e-06 8.4668e-07 0)
(-3.51798e-05 0.00105412 0)
(-0.000515521 0.00334071 0)
(-0.00144558 0.0057233 0)
(-0.00279664 0.00812584 0)
(-0.00451887 0.0104885 0)
(-0.00657718 0.0127644 0)
(-0.00894004 0.0149173 0)
(-0.0115768 0.0169205 0)
(-0.0144578 0.0187551 0)
(-0.0175548 0.0204089 0)
(-0.0208403 0.0218749 0)
(-0.024288 0.0231503 0)
(-0.0278723 0.0242351 0)
(-0.0315685 0.0251317 0)
(-0.0353529 0.0258438 0)
(-0.0392022 0.0263758 0)
(-0.0430938 0.0267325 0)
(-0.0470058 0.0269188 0)
(-0.0509166 0.0269388 0)
(-0.0548052 0.0267967 0)
(-0.0586507 0.0264957 0)
(-0.0624328 0.0260388 0)
(-0.0661312 0.0254283 0)
(-0.0697258 0.0246663 0)
(-0.073197 0.0237545 0)
(-0.0765251 0.0226948 0)
(-0.0796908 0.0214893 0)
(-0.082675 0.0201403 0)
(-0.0854593 0.0186508 0)
(-0.0880253 0.0170247 0)
(-0.0903556 0.0152668 0)
(-0.0924332 0.0133831 0)
(-0.0942422 0.0113809 0)
(-0.0957675 0.00926904 0)
(-0.0969953 0.00705783 0)
(-0.0979132 0.00475927 0)
(-0.0985103 0.00238698 0)
(-0.0987774 -4.37306e-05 0)
(-0.0987072 -0.00251594 0)
(-0.0982946 -0.00501119 0)
(-0.0975367 -0.00750958 0)
(-0.0964332 -0.00998993 0)
(-0.0949862 -0.01243 0)
(-0.0932009 -0.0148066 0)
(-0.0910851 -0.0170961 0)
(-0.0886496 -0.0192745 0)
(-0.0859084 -0.021318 0)
(-0.0828786 -0.0232029 0)
(-0.0795802 -0.0249066 0)
(-0.0760363 -0.0264078 0)
(-0.0722729 -0.0276866 0)
(-0.0683187 -0.0287252 0)
(-0.064205 -0.0295084 0)
(-0.0599652 -0.0300239 0)
(-0.0556347 -0.0302625 0)
(-0.0512503 -0.0302189 0)
(-0.0468501 -0.0298913 0)
(-0.0424723 -0.0292825 0)
(-0.0381554 -0.0283995 0)
(-0.0339374 -0.0272538 0)
(-0.0298548 -0.0258616 0)
(-0.0259426 -0.0242437 0)
(-0.0222333 -0.0224256 0)
(-0.0187564 -0.0204372 0)
(-0.0155379 -0.0183131 0)
(-0.0125996 -0.016092 0)
(-0.00995918 -0.0138169 0)
(-0.0076291 -0.0115348 0)
(-0.00561696 -0.00929669 0)
(-0.00392508 -0.00715708 0)
(-0.00255048 -0.00517429 0)
(-0.00148483 -0.00341016 0)
(-0.000715765 -0.00192991 0)
(-0.000231976 -0.000802382 0)
(-1.05004e-05 -0.000101508 0)
(-3.90084e-05 0.00132173 0)
(-0.000566933 0.00409695 0)
(-0.00158564 0.00692472 0)
(-0.00306109 0.00973202 0)
(-0.00493618 0.0124617 0)
(-0.00717049 0.0150689 0)
(-0.009728 0.0175195 0)
(-0.0125742 0.0197883 0)
(-0.0156761 0.021858 0)
(-0.0190025 0.0237179 0)
(-0.0225239 0.025362 0)
(-0.0262119 0.0267886 0)
(-0.0300395 0.0279989 0)
(-0.0339806 0.0289961 0)
(-0.0380103 0.0297847 0)
(-0.0421045 0.0303699 0)
(-0.0462399 0.0307572 0)
(-0.0503937 0.0309518 0)
(-0.0545437 0.0309587 0)
(-0.0586683 0.0307821 0)
(-0.0627461 0.0304257 0)
(-0.0667561 0.0298927 0)
(-0.0706774 0.0291857 0)
(-0.0744895 0.028307 0)
(-0.0781721 0.0272585 0)
(-0.0817048 0.0260424 0)
(-0.0850679 0.0246608 0)
(-0.0882416 0.0231167 0)
(-0.0912067 0.0214133 0)
(-0.0939443 0.0195551 0)
(-0.0964361 0.0175475 0)
(-0.0986646 0.0153972 0)
(-0.100613 0.0131126 0)
(-0.102265 0.0107035 0)
(-0.103607 0.00818155 0)
(-0.104625 0.00556013 0)
(-0.105308 0.00285455 0)
(-0.105645 8.1901e-05 0)
(-0.105628 -0.00273886 0)
(-0.105251 -0.00558706 0)
(-0.10451 -0.00844041 0)
(-0.103404 -0.0112752 0)
(-0.101935 -0.0140663 0)
(-0.100107 -0.0167879 0)
(-0.0979269 -0.0194133 0)
(-0.095405 -0.0219153 0)
(-0.092555 -0.0242669 0)
(-0.0893936 -0.0264415 0)
(-0.0859409 -0.0284132 0)
(-0.0822202 -0.0301576 0)
(-0.078258 -0.0316519 0)
(-0.0740836 -0.0328756 0)
(-0.0697293 -0.0338109 0)
(-0.06523 -0.0344434 0)
(-0.0606226 -0.034762 0)
(-0.0559458 -0.0347599 0)
(-0.0512398 -0.0344346 0)
(-0.0465455 -0.0337883 0)
(-0.0419041 -0.0328283 0)
(-0.0373563 -0.0315669 0)
(-0.0329419 -0.0300217 0)
(-0.028699 -0.0282156 0)
(-0.0246635 -0.0261766 0)
(-0.0208682 -0.023938 0)
(-0.0173424 -0.0215382 0)
(-0.0141113 -0.0190202 0)
(-0.0111956 -0.0164317 0)
(-0.00861084 -0.0138248 0)
(-0.00636762 -0.0112554 0)
(-0.00447098 -0.00878359 0)
(-0.00292051 -0.00647287 0)
(-0.00171022 -0.00439005 0)
(-0.000829995 -0.00260493 0)
(-0.000271541 -0.00119031 0)
(-1.28981e-05 -0.000223183 0)
(-4.26799e-05 0.00161442 0)
(-0.000616472 0.0049217 0)
(-0.00172082 0.00823162 0)
(-0.00331665 0.0114747 0)
(-0.00533993 0.0145969 0)
(-0.00774512 0.0175562 0)
(-0.0104919 0.020321 0)
(-0.0135418 0.0228685 0)
(-0.0168588 0.0251834 0)
(-0.0204089 0.0272567 0)
(-0.0241602 0.0290843 0)
(-0.0280825 0.0306658 0)
(-0.0321472 0.0320038 0)
(-0.036327 0.0331025 0)
(-0.0405959 0.0339677 0)
(-0.044929 0.0346053 0)
(-0.0493022 0.0350217 0)
(-0.053692 0.0352226 0)
(-0.0580758 0.0352135 0)
(-0.0624313 0.0349991 0)
(-0.0667368 0.0345835 0)
(-0.0709707 0.0339701 0)
(-0.0751117 0.0331618 0)
(-0.0791388 0.0321609 0)
(-0.0830311 0.0309698 0)
(-0.086768 0.0295907 0)
(-0.090329 0.0280261 0)
(-0.0936939 0.0262792 0)
(-0.0968428 0.0243536 0)
(-0.0997563 0.0222543 0)
(-0.102415 0.0199873 0)
(-0.104802 0.0175601 0)
(-0.106898 0.0149818 0)
(-0.108687 0.0122635 0)
(-0.110154 0.00941794 0)
(-0.111285 0.00645992 0)
(-0.112066 0.00340633 0)
(-0.112487 0.000276086 0)
(-0.112539 -0.00290987 0)
(-0.112213 -0.00612865 0)
(-0.111506 -0.00935558 0)
(-0.110415 -0.0125643 0)
(-0.108941 -0.0157271 0)
(-0.107087 -0.018815 0)
(-0.104858 -0.0217982 0)
(-0.102265 -0.0246464 0)
(-0.0993209 -0.0273293 0)
(-0.0960412 -0.0298169 0)
(-0.0924461 -0.03208 0)
(-0.0885588 -0.0340907 0)