/*--------------------------------*- C++ -*----------------------------------*\
  =========                 |
  \\      /  F ield         | OpenFOAM: The Open Source CFD Toolbox
   \\    /   O peration     | Website:  https://openfoam.org
    \\  /    A nd           | Version:  12
     \\/     M anipulation  |
\*---------------------------------------------------------------------------*/
FoamFile
{
    format      ascii;
    class       volScalarField;
    location    "6";
    object      epsilon;
}
// * * * * * * * * * * * * * * * * * * * * * * * * * * * * * * * * * * * * * //

dimensions      [0 2 -3 0 0 0 0];

internalField   nonuniform List<scalar> 
5625
(
1.10818e-12
2.09257e-12
4.43443e-12
7.22831e-12
1.03736e-11
1.37943e-11
1.74348e-11
2.12519e-11
2.52104e-11
2.92796e-11
3.34319e-11
3.76423e-11
4.18869e-11
4.61435e-11
5.03909e-11
5.46087e-11
5.87774e-11
6.28785e-11
6.68938e-11
7.08064e-11
7.45997e-11
7.82581e-11
8.17667e-11
8.51115e-11
8.82792e-11
9.12573e-11
9.40344e-11
9.65997e-11
9.89435e-11
1.01057e-10
1.02932e-10
1.04563e-10
1.05942e-10
1.07065e-10
1.07929e-10
1.0853e-10
1.08866e-10
1.08936e-10
1.08741e-10
1.08282e-10
1.07561e-10
1.0658e-10
1.05344e-10
1.03858e-10
1.02127e-10
1.00159e-10
9.79618e-11
9.55432e-11
9.2913e-11
9.00815e-11
8.70597e-11
8.38595e-11
8.04934e-11
7.69747e-11
7.33174e-11
6.95361e-11
6.56463e-11
6.16637e-11
5.7605e-11
5.34874e-11
4.93289e-11
4.5148e-11
4.09641e-11
3.67974e-11
3.26692e-11
2.86019e-11
2.46197e-11
2.07487e-11
1.70182e-11
1.34624e-11
1.01225e-11
7.05251e-12
4.32619e-12
2.04137e-12
1.08102e-12
7.49565e-12
4.06596e-12
3.95168e-12
4.7171e-12
5.89622e-12
7.32242e-12
8.91565e-12
1.06297e-11
1.24341e-11
1.43064e-11
1.6229e-11
1.81868e-11
2.01666e-11
2.21565e-11
2.41455e-11
2.61233e-11
2.80801e-11
3.00068e-11
3.18946e-11
3.3735e-11
3.55202e-11
3.72426e-11
3.88951e-11
4.04708e-11
4.19636e-11
4.33673e-11
4.46766e-11
4.58862e-11
4.69916e-11
4.79886e-11
4.88734e-11
4.96427e-11
5.02937e-11
5.08241e-11
5.12319e-11
5.15158e-11
5.16748e-11
5.17086e-11
5.16171e-11
5.14009e-11
5.10609e-11
5.05987e-11
5.0016e-11
4.93153e-11
4.84994e-11
4.75715e-11
4.65353e-11
4.53949e-11
4.41547e-11
4.28198e-11
4.13953e-11
3.9887e-11
3.83007e-11
3.66429e-11
3.49204e-11
3.314e-11
3.13093e-11
2.9436e-11
2.75282e-11
2.55943e-11
2.36431e-11
2.16841e-11
1.9727e-11
1.77825e-11
1.58618e-11
1.39776e-11
1.21443e-11
1.0379e-11
8.7031e-12
7.14627e-12
5.7533e-12
4.60207e-12
3.85493e-12
3.96627e-12
7.31194e-12
1.66648e-11
8.14741e-12
6.2722e-12
5.91343e-12
6.19226e-12
6.82193e-12
7.67329e-12
8.67614e-12
9.78724e-12
1.09774e-11
1.22254e-11
1.3515e-11
1.48327e-11
1.61675e-11
1.75095e-11
1.88499e-11
2.01809e-11
2.14951e-11
2.27858e-11
2.40464e-11
2.52712e-11
2.64544e-11
2.75908e-11
2.86756e-11
2.9704e-11
3.06718e-11
3.1575e-11
3.241e-11
3.31733e-11
3.38622e-11
3.44737e-11
3.50056e-11
3.54559e-11
3.58229e-11
3.61052e-11
3.63019e-11
3.64122e-11
3.64359e-11
3.63729e-11
3.62237e-11
3.59888e-11
3.56693e-11
3.52666e-11
3.47822e-11
3.42182e-11
3.3577e-11
3.28609e-11
3.20731e-11
3.12167e-11
3.02951e-11
2.93123e-11
2.82721e-11
2.7179e-11
2.60377e-11
2.4853e-11
2.363e-11
2.23745e-11
2.1092e-11
1.9789e-11
1.84718e-11
1.71477e-11
1.58243e-11
1.45099e-11
1.32141e-11
1.19476e-11
1.07232e-11
9.55668e-12
8.46863e-12
7.48735e-12
6.65485e-12
6.03945e-12
5.76696e-12
6.1169e-12
7.94624e-12
1.62541e-11
2.75669e-11
1.31924e-11
9.54971e-12
8.21976e-12
7.80535e-12
7.87253e-12
8.23508e-12
8.79564e-12
9.49611e-12
1.02984e-11
1.11758e-11
1.21084e-11
1.30806e-11
1.408e-11
1.50959e-11
1.61194e-11
1.71424e-11
1.81581e-11
1.91598e-11
2.01417e-11
2.10985e-11
2.20251e-11
2.29169e-11
2.37697e-11
2.45793e-11
2.53422e-11
2.60549e-11
2.67144e-11
2.73179e-11
2.78627e-11
2.83468e-11
2.8768e-11
2.91246e-11
2.94154e-11
2.96391e-11
2.9795e-11
2.98823e-11
2.99009e-11
2.98508e-11
2.97321e-11
2.95456e-11
2.92919e-11
2.89721e-11
2.85878e-11
2.81404e-11
2.76319e-11
2.70645e-11
2.64405e-11
2.57628e-11
2.50341e-11
2.42577e-11
2.34371e-11
2.25761e-11
2.16785e-11
2.07487e-11
1.97913e-11
1.88113e-11
1.78138e-11
1.68048e-11
1.57903e-11
1.47774e-11
1.37737e-11
1.2788e-11
1.18304e-11
1.09132e-11
1.00512e-11
9.26387e-12
8.57716e-12
8.02806e-12
7.67313e-12
7.6072e-12
8.01165e-12
9.3094e-12
1.28625e-11
2.68798e-11
3.97148e-11
1.88695e-11
1.3363e-11
1.10842e-11
1.00423e-11
9.63148e-12
9.59903e-12
9.81658e-12
1.02096e-11
1.07304e-11
1.13462e-11
1.20329e-11
1.27725e-11
1.35503e-11
1.43545e-11
1.51753e-11
1.6004e-11
1.68332e-11
1.76564e-11
1.84676e-11
1.92614e-11
2.00329e-11
2.07776e-11
2.14916e-11
2.21709e-11
2.28121e-11
2.3412e-11
2.39679e-11
2.4477e-11
2.49371e-11
2.5346e-11
2.5702e-11
2.60036e-11
2.62494e-11
2.64384e-11
2.65698e-11
2.66431e-11
2.6658e-11
2.66146e-11
2.6513e-11
2.63536e-11
2.61374e-11
2.58652e-11
2.55382e-11
2.5158e-11
2.47263e-11
2.4245e-11
2.37163e-11
2.31427e-11
2.2527e-11
2.1872e-11
2.11811e-11
2.04577e-11
1.97056e-11
1.89289e-11
1.81322e-11
1.73201e-11
1.64982e-11
1.56721e-11
1.48483e-11
1.40341e-11
1.32379e-11
1.24691e-11
1.17395e-11
1.10628e-11
1.0457e-11
9.94516e-12
9.55932e-12
9.34586e-12
9.3773e-12
9.77856e-12
1.07958e-11
1.30191e-11
1.83882e-11
3.8706e-11
5.28012e-11
2.50078e-11
1.75382e-11
1.42976e-11
1.26494e-11
1.17979e-11
1.14158e-11
1.134e-11
1.14775e-11
1.177e-11
1.21782e-11
1.26737e-11
1.32354e-11
1.38467e-11
1.44942e-11
1.5167e-11
1.58555e-11
1.65519e-11
1.72491e-11
1.79408e-11
1.86215e-11
1.92861e-11
1.99302e-11
2.05495e-11
2.11403e-11
2.16993e-11
2.22232e-11
2.27094e-11
2.31552e-11
2.35583e-11
2.3917e-11
2.42292e-11
2.44936e-11
2.4709e-11
2.48743e-11
2.49888e-11
2.50519e-11
2.50635e-11
2.50235e-11
2.4932e-11
2.47896e-11
2.4597e-11
2.4355e-11
2.40648e-11
2.37279e-11
2.33459e-11
2.29207e-11
2.24543e-11
2.19493e-11
2.14082e-11
2.0834e-11
2.02298e-11
1.9599e-11
1.89456e-11
1.82736e-11
1.75875e-11
1.68925e-11
1.61938e-11
1.54978e-11
1.48113e-11
1.41421e-11
1.34994e-11
1.28939e-11
1.23385e-11
1.18495e-11
1.14473e-11
1.11594e-11
1.10241e-11
1.10981e-11
1.14718e-11
1.23038e-11
1.39128e-11
1.70732e-11
2.4352e-11
5.14233e-11
6.66007e-11
3.14919e-11
2.19747e-11
1.77514e-11
1.55017e-11
1.42272e-11
1.35203e-11
1.31797e-11
1.30924e-11
1.31886e-11
1.34216e-11
1.37585e-11
1.4175e-11
1.46522e-11
1.51751e-11
1.57315e-11
1.63111e-11
1.69052e-11
1.75063e-11
1.81076e-11
1.87034e-11
1.92883e-11
1.98576e-11
2.04072e-11
2.09331e-11
2.14318e-11
2.19003e-11
2.23357e-11
2.27354e-11
2.30972e-11
2.34191e-11
2.36993e-11
2.39365e-11
2.41293e-11
2.42768e-11
2.43783e-11
2.44332e-11
2.44412e-11
2.44025e-11
2.43171e-11
2.41854e-11
2.40083e-11
2.37865e-11
2.35213e-11
2.3214e-11
2.28663e-11
2.24801e-11
2.20574e-11
2.16007e-11
2.11125e-11
2.05959e-11
2.00541e-11
1.94906e-11
1.89093e-11
1.83144e-11
1.77107e-11
1.71034e-11
1.64984e-11
1.59022e-11
1.53222e-11
1.4767e-11
1.42466e-11
1.37728e-11
1.33603e-11
1.30272e-11
1.27972e-11
1.27023e-11
1.27877e-11
1.31213e-11
1.3813e-11
1.50583e-11
1.72535e-11
2.13692e-11
3.06353e-11
6.47991e-11
8.09331e-11
3.82328e-11
2.66017e-11
2.13761e-11
1.8524e-11
1.68356e-11
1.58186e-11
1.52314e-11
1.49395e-11
1.48605e-11
1.49401e-11
1.51403e-11
1.54334e-11
1.5798e-11
1.62177e-11
1.66787e-11
1.71698e-11
1.76816e-11
1.82059e-11
1.87357e-11
1.92646e-11
1.97871e-11
2.02983e-11
2.07937e-11
2.12694e-11
2.17218e-11
2.21476e-11
2.2544e-11
2.29082e-11
2.32382e-11
2.35318e-11
2.37872e-11
2.40031e-11
2.41781e-11
2.43113e-11
2.44019e-11
2.44495e-11
2.44537e-11
2.44146e-11
2.43324e-11
2.42074e-11
2.40404e-11
2.38324e-11
2.35844e-11
2.32979e-11
2.29746e-11
2.26163e-11
2.22252e-11
2.18038e-11
2.13547e-11
2.0881e-11
2.0386e-11
1.98733e-11
1.93471e-11
1.88117e-11
1.82722e-11
1.7734e-11
1.72034e-11
1.66873e-11
1.61937e-11
1.5732e-11
1.5313e-11
1.49499e-11
1.46589e-11
1.44606e-11
1.43818e-11
1.44593e-11
1.47459e-11
1.53214e-11
1.63164e-11
1.79653e-11
2.0746e-11
2.58333e-11
3.71441e-11
7.86423e-11
9.56469e-11
4.51572e-11
3.1364e-11
2.51207e-11
2.16645e-11
1.95677e-11
1.82502e-11
1.74288e-11
1.69464e-11
1.67073e-11
1.66491e-11
1.67284e-11
1.69139e-11
1.71818e-11
1.75135e-11
1.78942e-11
1.83116e-11
1.87553e-11
1.92167e-11
1.9688e-11
2.01627e-11
2.0635e-11
2.10995e-11
2.15517e-11
2.19873e-11
2.24028e-11
2.27946e-11
2.31599e-11
2.34959e-11
2.38004e-11
2.40712e-11
2.43065e-11
2.45049e-11
2.46652e-11
2.47862e-11
2.48673e-11
2.49079e-11
2.49078e-11
2.4867e-11
2.47857e-11
2.46643e-11
2.45037e-11
2.43046e-11
2.40684e-11
2.37965e-11
2.34905e-11
2.31525e-11
2.27846e-11
2.23894e-11
2.19697e-11
2.15286e-11
2.10695e-11
2.05963e-11
2.01132e-11
1.96248e-11
1.91365e-11
1.8654e-11
1.81839e-11
1.77337e-11
1.73121e-11
1.6929e-11
1.65963e-11
1.63286e-11
1.61438e-11
1.60648e-11
1.6122e-11
1.63572e-11
1.6831e-11
1.7636e-11
1.89242e-11
2.09702e-11
2.43359e-11
3.04056e-11
4.37982e-11
9.27869e-11
1.10611e-10
5.22022e-11
3.62153e-11
2.89447e-11
2.48837e-11
2.23826e-11
2.0772e-11
1.97256e-11
1.90632e-11
1.86753e-11
1.84911e-11
1.84616e-11
1.85516e-11
1.87347e-11
1.89904e-11
1.93022e-11
1.9657e-11
2.00435e-11
2.04522e-11
2.08752e-11
2.13052e-11
2.17361e-11
2.21625e-11
2.25794e-11
2.29824e-11
2.33678e-11
2.3732e-11
2.40719e-11
2.43848e-11
2.46683e-11
2.49202e-11
2.51387e-11
2.53223e-11
2.54697e-11
2.55799e-11
2.56521e-11
2.56859e-11
2.56809e-11
2.56373e-11
2.55551e-11
2.5435e-11
2.52776e-11
2.50839e-11
2.48553e-11
2.45931e-11
2.42992e-11
2.39756e-11
2.36246e-11
2.32488e-11
2.28511e-11
2.24347e-11
2.20033e-11
2.15608e-11
2.11117e-11
2.06609e-11
2.02139e-11
1.97769e-11
1.93569e-11
1.89618e-11
1.86009e-11
1.8285e-11
1.80272e-11
1.78431e-11
1.77525e-11
1.7781e-11
1.79625e-11
1.83442e-11
1.89946e-11
2.00193e-11
2.15926e-11
2.40298e-11
2.79783e-11
3.50339e-11
5.05262e-11
1.07083e-10
1.2571e-10
5.93126e-11
4.11161e-11
3.28143e-11
2.81498e-11
2.52486e-11
2.3351e-11
2.20872e-11
2.12531e-11
2.07255e-11
2.04246e-11
2.02958e-11
2.02999e-11
2.04077e-11
2.05966e-11
2.08487e-11
2.11497e-11
2.14874e-11
2.18518e-11
2.22341e-11
2.26269e-11
2.30235e-11
2.34182e-11
2.3806e-11
2.41821e-11
2.45426e-11
2.48839e-11
2.52028e-11
2.54963e-11
2.57621e-11
2.5998e-11
2.6202e-11
2.63726e-11
2.65085e-11
2.66087e-11
2.66724e-11
2.66992e-11
2.66887e-11
2.66411e-11
2.65564e-11
2.64354e-11
2.62788e-11
2.60876e-11
2.58631e-11
2.56069e-11
2.53208e-11
2.50069e-11
2.46676e-11
2.43057e-11
2.39241e-11
2.35263e-11
2.3116e-11
2.26974e-11
2.22751e-11
2.18543e-11
2.14408e-11
2.10412e-11
2.06627e-11
2.0314e-11
2.0005e-11
1.97472e-11
1.95547e-11
1.94448e-11
1.9439e-11
1.95654e-11
1.98618e-11
2.03806e-11
2.11988e-11
2.2435e-11
2.42857e-11
2.71077e-11
3.16335e-11
3.96715e-11
5.72625e-11
1.21394e-10
1.40841e-10
6.64397e-11
4.60315e-11
3.67003e-11
3.1436e-11
2.81397e-11
2.5961e-11
2.44863e-11
2.34876e-11
2.28277e-11
2.24178e-11
2.21975e-11
2.21235e-11
2.21636e-11
2.22933e-11
2.24932e-11
2.27475e-11
2.30434e-11
2.33699e-11
2.37178e-11
2.40793e-11
2.44472e-11
2.48155e-11
2.51789e-11
2.55326e-11
2.58724e-11
2.61944e-11
2.64955e-11
2.67726e-11
2.70232e-11
2.72451e-11
2.74362e-11
2.75951e-11
2.77204e-11
2.78111e-11
2.78664e-11
2.78858e-11
2.78691e-11
2.78163e-11
2.77278e-11
2.76041e-11
2.7446e-11
2.72546e-11
2.70313e-11
2.67778e-11
2.64959e-11
2.61878e-11
2.58561e-11
2.55035e-11
2.51333e-11
2.47489e-11
2.43543e-11
2.39539e-11
2.35524e-11
2.31554e-11
2.27689e-11
2.23998e-11
2.2056e-11
2.17465e-11
2.14818e-11
2.12745e-11
2.11398e-11
2.10961e-11
2.1167e-11
2.13833e-11
2.17865e-11
2.24345e-11
2.34125e-11
2.48522e-11
2.69726e-11
3.01713e-11
3.52658e-11
4.42752e-11
6.39458e-11
1.3559e-10
1.55912e-10
7.354e-11
5.09311e-11
4.05775e-11
3.47194e-11
3.10339e-11
2.85802e-11
2.69007e-11
2.57438e-11
2.4958e-11
2.44457e-11
2.41404e-11
2.39947e-11
2.39736e-11
2.40504e-11
2.4204e-11
2.44175e-11
2.46772e-11
2.49712e-11
2.52899e-11
2.56248e-11
2.59685e-11
2.63147e-11
2.66576e-11
2.69924e-11
2.73146e-11
2.76203e-11
2.79061e-11
2.8169e-11
2.84062e-11
2.86156e-11
2.87951e-11
2.89431e-11
2.90583e-11
2.91396e-11
2.91863e-11
2.91978e-11
2.91741e-11
2.91151e-11
2.90212e-11
2.88931e-11
2.87315e-11
2.85377e-11
2.83131e-11
2.80593e-11
2.77785e-11
2.74728e-11
2.7145e-11
2.67979e-11
2.64348e-11
2.60595e-11
2.5676e-11
2.52888e-11
2.49031e-11
2.45246e-11
2.41596e-11
2.38153e-11
2.35002e-11
2.32238e-11
2.29973e-11
2.2834e-11
2.27503e-11
2.2766e-11
2.29068e-11
2.3206e-11
2.37088e-11
2.44786e-11
2.56088e-11
2.72442e-11
2.96257e-11
3.31912e-11
3.88419e-11
4.88042e-11
7.05184e-11
1.4955e-10
1.70843e-10
8.05753e-11
5.57879e-11
4.44237e-11
3.79803e-11
3.39126e-11
3.11902e-11
2.93121e-11
2.80029e-11
2.7097e-11
2.64879e-11
2.61032e-11
2.58913e-11
2.58144e-11
2.58435e-11
2.59559e-11
2.61335e-11
2.63616e-11
2.66276e-11
2.69212e-11
2.72335e-11
2.75566e-11
2.7884e-11
2.82096e-11
2.85282e-11
2.88354e-11
2.9127e-11
2.93994e-11
2.96497e-11
2.98749e-11
3.00728e-11
3.02414e-11
3.0379e-11
3.04842e-11
3.05561e-11
3.05937e-11
3.05968e-11
3.05652e-11
3.04988e-11
3.03982e-11
3.02639e-11
3.00969e-11
2.98985e-11
2.96702e-11
2.94137e-11
2.91311e-11
2.88249e-11
2.84977e-11
2.81526e-11
2.77931e-11
2.7423e-11
2.70466e-11
2.66685e-11
2.62941e-11
2.59295e-11
2.55812e-11
2.52569e-11
2.49654e-11
2.47167e-11
2.45228e-11
2.4398e-11
2.43594e-11
2.44286e-11
2.4633e-11
2.50087e-11
2.56044e-11
2.6489e-11
2.77638e-11
2.95865e-11
3.22194e-11
3.61398e-11
4.23306e-11
5.32201e-11
7.6925e-11
1.63156e-10
1.85563e-10
8.75119e-11
6.05783e-11
4.82198e-11
4.12017e-11
3.676e-11
3.37757e-11
3.1705e-11
3.02491e-11
2.92284e-11
2.85277e-11
2.80685e-11
2.77952e-11
2.7667e-11
2.76528e-11
2.77283e-11
2.78741e-11
2.80744e-11
2.83161e-11
2.8588e-11
2.88808e-11
2.91863e-11
2.94975e-11
2.98082e-11
3.01129e-11
3.04069e-11
3.06861e-11
3.09466e-11
3.11853e-11
3.13994e-11
3.15866e-11
3.17446e-11
3.18719e-11
3.19671e-11
3.20291e-11
3.20572e-11
3.2051e-11
3.20104e-11
3.19354e-11
3.18266e-11
3.16845e-11
3.15104e-11
3.13054e-11
3.10711e-11
3.08094e-11
3.05225e-11
3.02129e-11
2.98835e-11
2.95374e-11
2.91782e-11
2.88099e-11
2.84369e-11
2.80642e-11
2.76974e-11
2.73426e-11
2.70068e-11
2.66981e-11
2.64256e-11
2.62001e-11
2.6034e-11
2.59425e-11
2.59439e-11
2.6061e-11
2.63234e-11
2.67694e-11
2.74516e-11
2.8444e-11
2.98557e-11
3.18567e-11
3.47301e-11
3.89914e-11
4.57022e-11
5.7486e-11
8.31128e-11
1.76296e-10
2.00011e-10
9.4321e-11
6.52821e-11
5.19492e-11
4.4369e-11
3.95624e-11
3.63235e-11
3.40664e-11
3.24693e-11
3.13389e-11
3.05512e-11
3.00219e-11
2.96914e-11
2.95159e-11
2.94622e-11
2.95043e-11
2.96216e-11
2.97973e-11
3.00176e-11
3.02706e-11
3.05465e-11
3.08367e-11
3.11339e-11
3.14315e-11
3.17239e-11
3.20062e-11
3.2274e-11
3.25235e-11
3.27515e-11
3.2955e-11
3.31315e-11
3.3279e-11
3.33959e-11
3.34806e-11
3.35322e-11
3.355e-11
3.35336e-11
3.34828e-11
3.33978e-11
3.32793e-11
3.31278e-11
3.29446e-11
3.2731e-11
3.24886e-11
3.22195e-11
3.19259e-11
3.16104e-11
3.1276e-11
3.09261e-11
3.05642e-11
3.01947e-11
2.9822e-11
2.94514e-11
2.90885e-11
2.874e-11
2.8413e-11
2.8116e-11
2.78586e-11
2.76519e-11
2.75092e-11
2.74465e-11
2.7483e-11
2.76431e-11
2.7958e-11
2.84686e-11
2.92309e-11
3.03238e-11
3.18642e-11
3.40337e-11
3.71354e-11
4.17213e-11
4.89282e-11
6.15666e-11
8.90311e-11
1.88864e-10
2.14134e-10
1.00978e-10
6.98823e-11
5.55983e-11
4.74701e-11
4.23086e-11
3.88228e-11
3.63856e-11
3.46526e-11
3.34173e-11
3.25469e-11
3.19515e-11
3.15675e-11
3.13482e-11
3.12581e-11
3.12699e-11
3.13615e-11
3.15153e-11
3.17165e-11
3.19528e-11
3.22138e-11
3.24904e-11
3.27751e-11
3.3061e-11
3.33423e-11
3.36138e-11
3.3871e-11
3.411e-11
3.43275e-11
3.45204e-11
3.46863e-11
3.4823e-11
3.49289e-11
3.50025e-11
3.50429e-11
3.50493e-11
3.50214e-11
3.49592e-11
3.48628e-11
3.47329e-11
3.45703e-11
3.43762e-11
3.4152e-11
3.38994e-11
3.36206e-11
3.3318e-11
3.29942e-11
3.26524e-11
3.2296e-11
3.19288e-11
3.15551e-11
3.11798e-11
3.08082e-11
3.04463e-11
3.01007e-11
2.97792e-11
2.94903e-11
2.92443e-11
2.90527e-11
2.89294e-11
2.88912e-11
2.89583e-11
2.91565e-11
2.95186e-11
3.0088e-11
3.09239e-11
3.21101e-11
3.37704e-11
3.60978e-11
3.94141e-11
4.4306e-11
5.19816e-11
6.54279e-11
9.46309e-11
2.00755e-10
2.27892e-10
1.07464e-10
7.4365e-11
5.91557e-11
5.04951e-11
4.49894e-11
4.12647e-11
3.86538e-11
3.67904e-11
3.54547e-11
3.45057e-11
3.38478e-11
3.34135e-11
3.31533e-11
3.30297e-11
3.30136e-11
3.30819e-11
3.32158e-11
3.33998e-11
3.36211e-11
3.38686e-11
3.41331e-11
3.44063e-11
3.46814e-11
3.49522e-11
3.52134e-11
3.54603e-11
3.5689e-11
3.58959e-11
3.60779e-11
3.62327e-11
3.6358e-11
3.64521e-11
3.65137e-11
3.65417e-11
3.65355e-11
3.64948e-11
3.64196e-11
3.63102e-11
3.61673e-11
3.59917e-11
3.57847e-11
3.55478e-11
3.5283e-11
3.49924e-11
3.46784e-11
3.4344e-11
3.39923e-11
3.36269e-11
3.32518e-11
3.28715e-11
3.24909e-11
3.21155e-11
3.17516e-11
3.1406e-11
3.10868e-11
3.08029e-11
3.05649e-11
3.03848e-11
3.02771e-11
3.02594e-11
3.03529e-11
3.05845e-11
3.09887e-11
3.16111e-11
3.2514e-11
3.37856e-11
3.55565e-11
3.80302e-11
4.15461e-11
4.67231e-11
5.48361e-11
6.90372e-11
9.98649e-11
2.1187e-10
2.41252e-10
1.13762e-10
7.87196e-11
6.26128e-11
5.34364e-11
4.75977e-11
4.36423e-11
4.08642e-11
3.88755e-11
3.74439e-11
3.642e-11
3.5703e-11
3.52214e-11
3.49229e-11
3.47681e-11
3.47263e-11
3.4773e-11
3.48887e-11
3.50571e-11
3.52645e-11
3.54997e-11
3.57528e-11
3.60153e-11
3.628e-11
3.65406e-11
3.67915e-11
3.70281e-11
3.7246e-11
3.74418e-11
3.76125e-11
3.77553e-11
3.78682e-11
3.79494e-11
3.79977e-11
3.8012e-11
3.79917e-11
3.79366e-11
3.78467e-11
3.77225e-11
3.75645e-11
3.7374e-11
3.71521e-11
3.69005e-11
3.66213e-11
3.63166e-11
3.59891e-11
3.56417e-11
3.52778e-11
3.49011e-11
3.45157e-11
3.41262e-11
3.37377e-11
3.33559e-11
3.29873e-11
3.2639e-11
3.23192e-11
3.20373e-11
3.18041e-11
3.16322e-11
3.15366e-11
3.15355e-11
3.16511e-11
3.19115e-11
3.23526e-11
3.30221e-11
3.39852e-11
3.53342e-11
3.72057e-11
3.98131e-11
4.3512e-11
4.8951e-11
5.74666e-11
7.23629e-11
1.04688e-10
2.22112e-10
2.54192e-10
1.19863e-10
8.29387e-11
6.59635e-11
5.62886e-11
5.01283e-11
4.59507e-11
4.30117e-11
4.09029e-11
3.93795e-11
3.82843e-11
3.75112e-11
3.69848e-11
3.66504e-11
3.64664e-11
3.64005e-11
3.64273e-11
3.6526e-11
3.66798e-11
3.68743e-11
3.70977e-11
3.73399e-11
3.75919e-11
3.78463e-11
3.80966e-11
3.8337e-11
3.85626e-11
3.87692e-11
3.89531e-11
3.91113e-11
3.9241e-11
3.93402e-11
3.94072e-11
3.94405e-11
3.94394e-11
3.94033e-11
3.93319e-11
3.92254e-11
3.90842e-11
3.89093e-11
3.87016e-11
3.84627e-11
3.81942e-11
3.78982e-11
3.75772e-11
3.72339e-11
3.68713e-11
3.64929e-11
3.61025e-11
3.57044e-11
3.53033e-11
3.49045e-11
3.45139e-11
3.4138e-11
3.37844e-11
3.34613e-11
3.31785e-11
3.29471e-11
3.27802e-11
3.26933e-11
3.27051e-11
3.28388e-11
3.31233e-11
3.3596e-11
3.43066e-11
3.53227e-11
3.67405e-11
3.87021e-11
4.14296e-11
4.52935e-11
5.09693e-11
5.98491e-11
7.53749e-11
1.09056e-10
2.31388e-10
2.66699e-10
1.25761e-10
8.7018e-11
6.92043e-11
5.90483e-11
5.25782e-11
4.81866e-11
4.50931e-11
4.28691e-11
4.1258e-11
4.00948e-11
3.92682e-11
3.86995e-11
3.83311e-11
3.81195e-11
3.8031e-11
3.80389e-11
3.81217e-11
3.82615e-11
3.84436e-11
3.86556e-11
3.88869e-11
3.91283e-11
3.93721e-11
3.96115e-11
3.98407e-11
4.00546e-11
4.02488e-11
4.04196e-11
4.05639e-11
4.06791e-11
4.07629e-11
4.08138e-11
4.08304e-11
4.08119e-11
4.07577e-11
4.06679e-11
4.05425e-11
4.03823e-11
4.0188e-11
3.99609e-11
3.97025e-11
3.94148e-11
3.90998e-11
3.87601e-11
3.83986e-11
3.80184e-11
3.76231e-11
3.72167e-11
3.68036e-11
3.63886e-11
3.59771e-11
3.55753e-11
3.51898e-11
3.48283e-11
3.44994e-11
3.4213e-11
3.39806e-11
3.38156e-11
3.37339e-11
3.3755e-11
3.39025e-11
3.42066e-11
3.47057e-11
3.54511e-11
3.65128e-11
3.79902e-11
4.00306e-11
4.28638e-11
4.68732e-11
5.27583e-11
6.19606e-11
7.80443e-11
1.12927e-10
2.3961e-10
2.7877e-10
1.31454e-10
9.09564e-11
7.23341e-11
6.17145e-11
5.4946e-11
5.03487e-11
4.71067e-11
4.47723e-11
4.30771e-11
4.1849e-11
4.09715e-11
4.03625e-11
3.99618e-11
3.9724e-11
3.9614e-11
3.96039e-11
3.96713e-11
3.97976e-11
3.99674e-11
4.0168e-11
4.03881e-11
4.06186e-11
4.08511e-11
4.10789e-11
4.12958e-11
4.14966e-11
4.1677e-11
4.18332e-11
4.19619e-11
4.20606e-11
4.21271e-11
4.21597e-11
4.21573e-11
4.21191e-11
4.20446e-11
4.19338e-11
4.17871e-11
4.16052e-11
4.1389e-11
4.11399e-11
4.08596e-11
4.055e-11
4.02135e-11
3.98527e-11
3.94705e-11
3.90703e-11
3.86558e-11
3.8231e-11
3.78005e-11
3.73692e-11
3.69428e-11
3.65274e-11
3.61299e-11
3.57581e-11
3.54209e-11
3.51282e-11
3.4892e-11
3.47259e-11
3.46463e-11
3.46729e-11
3.48303e-11
3.51491e-11
3.56691e-11
3.64428e-11
3.75424e-11
3.907e-11
4.11772e-11
4.41004e-11
4.82346e-11
5.42996e-11
6.37795e-11
8.03437e-11
1.16262e-10
2.46694e-10
2.90412e-10
1.36945e-10
9.4756e-11
7.53543e-11
6.42881e-11
5.72324e-11
5.24372e-11
4.90525e-11
4.66121e-11
4.48364e-11
4.35461e-11
4.26199e-11
4.19724e-11
4.15409e-11
4.12781e-11
4.11474e-11
4.112e-11
4.11723e-11
4.12852e-11
4.14427e-11
4.16314e-11
4.184e-11
4.20586e-11
4.22789e-11
4.24938e-11
4.2697e-11
4.28833e-11
4.30481e-11
4.31877e-11
4.32987e-11
4.33787e-11
4.34254e-11
4.34373e-11
4.34133e-11
4.33527e-11
4.32551e-11
4.31206e-11
4.29498e-11
4.27433e-11
4.25024e-11
4.22285e-11
4.19234e-11
4.15893e-11
4.12285e-11
4.08439e-11
4.04385e-11
4.00157e-11
3.95795e-11
3.91339e-11
3.86836e-11
3.82338e-11
3.77901e-11
3.73588e-11
3.6947e-11
3.65626e-11
3.62145e-11
3.59131e-11
3.56703e-11
3.55001e-11
3.54192e-11
3.54478e-11
3.56108e-11
3.59397e-11
3.64749e-11
3.72703e-11
3.83996e-11
3.99674e-11
4.21287e-11
4.51256e-11
4.93623e-11
5.55758e-11
6.52852e-11
8.22474e-11
1.19023e-10
2.5256e-10
3.01641e-10
1.42241e-10
9.84215e-11
7.82686e-11
6.6772e-11
5.94398e-11
5.4454e-11
5.09321e-11
4.83898e-11
4.65368e-11
4.51867e-11
4.42139e-11
4.35294e-11
4.30683e-11
4.27813e-11
4.26307e-11
4.25862e-11
4.26236e-11
4.2723e-11
4.28678e-11
4.30442e-11
4.32402e-11
4.3446e-11
4.36528e-11
4.38534e-11
4.40412e-11
4.4211e-11
4.43581e-11
4.44787e-11
4.45696e-11
4.46282e-11
4.46524e-11
4.46407e-11
4.45921e-11
4.4506e-11
4.43822e-11
4.42209e-11
4.40227e-11
4.37885e-11
4.35198e-11
4.32179e-11
4.2885e-11
4.25233e-11
4.21354e-11
4.17241e-11
4.12927e-11
4.08447e-11
4.03841e-11
3.99153e-11
3.94428e-11
3.89721e-11
3.85088e-11
3.80593e-11
3.76308e-11
3.72313e-11
3.687e-11
3.65573e-11
3.63052e-11
3.6128e-11
3.60426e-11
3.60695e-11
3.6234e-11
3.6568e-11
3.71127e-11
3.79229e-11
3.90735e-11
4.0671e-11
4.28732e-11
4.59264e-11
5.02422e-11
5.65709e-11
6.6459e-11
8.37314e-11
1.21176e-10
2.57134e-10
3.12481e-10
1.47355e-10
1.01961e-10
8.1083e-11
6.91712e-11
6.15721e-11
5.64026e-11
5.27485e-11
5.0108e-11
4.81804e-11
4.67729e-11
4.57552e-11
4.50351e-11
4.45452e-11
4.42349e-11
4.40647e-11
4.40034e-11
4.40258e-11
4.41114e-11
4.42429e-11
4.44061e-11
4.45887e-11
4.47803e-11
4.4972e-11
4.51564e-11
4.53268e-11
4.54778e-11
4.56048e-11
4.57038e-11
4.57716e-11
4.58057e-11
4.58043e-11
4.57657e-11
4.56891e-11
4.5574e-11
4.54205e-11
4.52288e-11
4.49997e-11
4.47343e-11
4.44342e-11
4.4101e-11
4.37369e-11
4.33443e-11
4.2926e-11
4.2485e-11
4.20247e-11
4.15487e-11
4.1061e-11
4.05663e-11
4.00691e-11
3.9575e-11
3.90897e-11
3.86197e-11
3.81722e-11
3.77554e-11
3.73784e-11
3.70518e-11
3.67878e-11
3.66007e-11
3.65075e-11
3.6529e-11
3.66908e-11
3.7025e-11
3.75733e-11
3.83911e-11
3.95543e-11
4.11706e-11
4.33998e-11
4.64912e-11
5.08615e-11
5.72704e-11
6.72837e-11
8.47741e-11
1.2269e-10
2.60351e-10
3.22964e-10
1.523e-10
1.05384e-10
8.38055e-11
7.14922e-11
6.36351e-11
5.82879e-11
5.45059e-11
5.17705e-11
4.97709e-11
4.83079e-11
4.72466e-11
4.6492e-11
4.59744e-11
4.56412e-11
4.54517e-11
4.53737e-11
4.53809e-11
4.54522e-11
4.55697e-11
4.57187e-11
4.58865e-11
4.60624e-11
4.62372e-11
4.64033e-11
4.65539e-11
4.66836e-11
4.67875e-11
4.68618e-11
4.69033e-11
4.69096e-11
4.68788e-11
4.68096e-11
4.67012e-11
4.65533e-11
4.6366e-11
4.61399e-11
4.5876e-11
4.55755e-11
4.52401e-11
4.48718e-11
4.44728e-11
4.40458e-11
4.35937e-11
4.31197e-11
4.26272e-11
4.21202e-11
4.16026e-11
4.10792e-11
4.05547e-11
4.00347e-11
3.9525e-11
3.90321e-11
3.85633e-11
3.81268e-11
3.77318e-11
3.73889e-11
3.71103e-11
3.69103e-11
3.68061e-11
3.68185e-11
3.69732e-11
3.73026e-11
3.78485e-11
3.86667e-11
3.98335e-11
4.14573e-11
4.3699e-11
4.68098e-11
5.1209e-11
5.76616e-11
6.77443e-11
8.53565e-11
1.23536e-10
2.6215e-10
3.33131e-10
1.57097e-10
1.08705e-10
8.64458e-11
7.3743e-11
6.56355e-11
6.01159e-11
5.62098e-11
5.33822e-11
5.13128e-11
4.97959e-11
4.86924e-11
4.79043e-11
4.73596e-11
4.7004e-11
4.67953e-11
4.67005e-11
4.66922e-11
4.67486e-11
4.68513e-11
4.69848e-11
4.71364e-11
4.72947e-11
4.74506e-11
4.75961e-11
4.77242e-11
4.78295e-11
4.79072e-11
4.79532e-11
4.79647e-11
4.79393e-11
4.78752e-11
4.77711e-11
4.76266e-11
4.74415e-11
4.72161e-11
4.69513e-11
4.66481e-11
4.63081e-11
4.59332e-11
4.55256e-11
4.50878e-11
4.46226e-11
4.41329e-11
4.36223e-11
4.30944e-11
4.2553e-11
4.20025e-11
4.14475e-11
4.08931e-11
4.03445e-11
3.98079e-11
3.92898e-11
3.87974e-11
3.83389e-11
3.79235e-11
3.75617e-11
3.72658e-11
3.70501e-11
3.69317e-11
3.69314e-11
3.70747e-11
3.73941e-11
3.79315e-11
3.87426e-11
3.99038e-11
4.15236e-11
4.37631e-11
4.68736e-11
5.12752e-11
5.77338e-11
6.78281e-11
8.54624e-11
1.23691e-10
2.62483e-10
3.43027e-10
1.61766e-10
1.11936e-10
8.90155e-11
7.59332e-11
6.75816e-11
6.18939e-11
5.78667e-11
5.49493e-11
5.28118e-11
5.12423e-11
5.00978e-11
4.92769e-11
4.87057e-11
4.8328e-11
4.81004e-11
4.79885e-11
4.79644e-11
4.80052e-11
4.8092e-11
4.82089e-11
4.83425e-11
4.84814e-11
4.8616e-11
4.87381e-11
4.88408e-11
4.89184e-11
4.89661e-11
4.89801e-11
4.89576e-11
4.8896e-11
4.8794e-11
4.86504e-11
4.8465e-11
4.82378e-11
4.79695e-11
4.7661e-11
4.73137e-11
4.69295e-11
4.65105e-11
4.60591e-11
4.5578e-11
4.50703e-11
4.45391e-11
4.39881e-11
4.34211e-11
4.28421e-11
4.22554e-11
4.16659e-11
4.10786e-11
4.04989e-11
3.99329e-11
3.93871e-11
3.88687e-11
3.83859e-11
3.79478e-11
3.75648e-11
3.72491e-11
3.70149e-11
3.68792e-11
3.68625e-11
3.69902e-11
3.72947e-11
3.78175e-11
3.8614e-11
3.97602e-11
4.13643e-11
4.35864e-11
4.66768e-11
5.10536e-11
5.74794e-11
6.75259e-11
8.50799e-11
1.23137e-10
2.61311e-10
3.52704e-10
1.66331e-10
1.15096e-10
9.15271e-11
7.80732e-11
6.94825e-11
6.36299e-11
5.9484e-11
5.64785e-11
5.42743e-11
5.26534e-11
5.14687e-11
5.06158e-11
5.00186e-11
4.96191e-11
4.93726e-11
4.92437e-11
4.92033e-11
4.92277e-11
4.92976e-11
4.93964e-11
4.95103e-11
4.96276e-11
4.97383e-11
4.98341e-11
4.9908e-11
4.99542e-11
4.9968e-11
4.99457e-11
4.98844e-11
4.97819e-11
4.96369e-11
4.94487e-11
4.9217e-11
4.89424e-11
4.86257e-11
4.82681e-11
4.78715e-11
4.74379e-11
4.69697e-11
4.64695e-11
4.59405e-11
4.53857e-11
4.48088e-11
4.42133e-11
4.36033e-11
4.2983e-11
4.23569e-11
4.17299e-11
4.11068e-11
4.04934e-11
3.98955e-11
3.93197e-11
3.87731e-11
3.82638e-11
3.78007e-11
3.73942e-11
3.70562e-11
3.68007e-11
3.66445e-11
3.66079e-11
3.67158e-11
3.70002e-11
3.75022e-11
3.82765e-11
3.93984e-11
4.09747e-11
4.3164e-11
4.62139e-11
5.05383e-11
5.68918e-11
6.68299e-11
8.41993e-11
1.21861e-10
2.58604e-10
3.62215e-10
1.70818e-10
1.18201e-10
9.3994e-11
8.01741e-11
7.13477e-11
6.53326e-11
6.10695e-11
5.79773e-11
5.57074e-11
5.4036e-11
5.28119e-11
5.19277e-11
5.1305e-11
5.08842e-11
5.0619e-11
5.04727e-11
5.04157e-11
5.04231e-11
5.04749e-11
5.05541e-11
5.06463e-11
5.07395e-11
5.08236e-11
5.08898e-11
5.09312e-11
5.09419e-11
5.09174e-11
5.08539e-11
5.07487e-11
5.05999e-11
5.04064e-11
5.01678e-11
4.98841e-11
4.95561e-11
4.91851e-11
4.87726e-11
4.83208e-11
4.78321e-11
4.73092e-11
4.6755e-11
4.61729e-11
4.55663e-11
4.49389e-11
4.42948e-11
4.3638e-11
4.29729e-11
4.2304e-11
4.16361e-11
4.09745e-11
4.03246e-11
3.96924e-11
3.90842e-11
3.85072e-11
3.79691e-11
3.74789e-11
3.70467e-11
3.6684e-11
3.64047e-11
3.62251e-11
3.6165e-11
3.62491e-11
3.65085e-11
3.69837e-11
3.77284e-11
3.88166e-11
4.03533e-11
4.24943e-11
4.54834e-11
4.97276e-11
5.5969e-11
6.57377e-11
8.28171e-11
1.19857e-10
2.5435e-10
3.71617e-10
1.75253e-10
1.21268e-10
9.64303e-11
8.22476e-11
7.31873e-11
6.70108e-11
6.26317e-11
5.94535e-11
5.71187e-11
5.53976e-11
5.41347e-11
5.32199e-11
5.25723e-11
5.21306e-11
5.18469e-11
5.16833e-11
5.16092e-11
5.15989e-11
5.16315e-11
5.16895e-11
5.1758e-11
5.18246e-11
5.18788e-11
5.19118e-11
5.19166e-11
5.18875e-11
5.18196e-11
5.17096e-11
5.15548e-11
5.13538e-11
5.11056e-11
5.08102e-11
5.0468e-11
5.00802e-11
4.96484e-11
4.91747e-11
4.86614e-11
4.81115e-11
4.7528e-11
4.69141e-11
4.62736e-11
4.56101e-11
4.49278e-11
4.42306e-11
4.35229e-11
4.28091e-11
4.2094e-11
4.13823e-11
4.06793e-11
3.99903e-11
3.93214e-11
3.86787e-11
3.80692e-11
3.75005e-11
3.69812e-11
3.65212e-11
3.61318e-11
3.58262e-11
3.56205e-11
3.55339e-11
3.55903e-11
3.58201e-11
3.62627e-11
3.69705e-11
3.80158e-11
3.9501e-11
4.15787e-11
4.44867e-11
4.86228e-11
5.47124e-11
6.42508e-11
8.09353e-11
1.17128e-10
2.48555e-10
3.80967e-10
1.79662e-10
1.24317e-10
9.88497e-11
8.43051e-11
7.50113e-11
6.86737e-11
6.41787e-11
6.0915e-11
5.85158e-11
5.67456e-11
5.54448e-11
5.45002e-11
5.38284e-11
5.33663e-11
5.30645e-11
5.28837e-11
5.27922e-11
5.27635e-11
5.27758e-11
5.28108e-11
5.28533e-11
5.28904e-11
5.29113e-11
5.29073e-11
5.28711e-11
5.27969e-11
5.26802e-11
5.25177e-11
5.23071e-11
5.20472e-11
5.17375e-11
5.13783e-11
5.09706e-11
5.05159e-11
5.00163e-11
4.94744e-11
4.8893e-11
4.82753e-11
4.76249e-11
4.69456e-11
4.62411e-11
4.55157e-11
4.47734e-11
4.40187e-11
4.3256e-11
4.24899e-11
4.17251e-11
4.09666e-11
4.02195e-11
3.94892e-11
3.87814e-11
3.81023e-11
3.74585e-11
3.68576e-11
3.63076e-11
3.58182e-11
3.54002e-11
3.50664e-11
3.48321e-11
3.47162e-11
3.47413e-11
3.49371e-11
3.53416e-11
3.60057e-11
3.69992e-11
3.84217e-11
4.0421e-11
4.32282e-11
4.72291e-11
5.3128e-11
6.23761e-11
7.85624e-11
1.13685e-10
2.41245e-10
3.90317e-10
1.84071e-10
1.27363e-10
1.01265e-10
8.63575e-11
7.68292e-11
7.03299e-11
6.57188e-11
6.23695e-11
5.99064e-11
5.80878e-11
5.67499e-11
5.57763e-11
5.50813e-11
5.45996e-11
5.42803e-11
5.40825e-11
5.39734e-11
5.39256e-11
5.39163e-11
5.39265e-11
5.39405e-11
5.3945e-11
5.3929e-11
5.38834e-11
5.38011e-11
5.36762e-11
5.35045e-11
5.32829e-11
5.30096e-11
5.26835e-11
5.23048e-11
5.18742e-11
5.13932e-11
5.0864e-11
5.02891e-11
4.96715e-11
4.90148e-11
4.83226e-11
4.75989e-11
4.68479e-11
4.60737e-11
4.52809e-11
4.44739e-11
4.36573e-11
4.28356e-11
4.20137e-11
4.11963e-11
4.03883e-11
3.95948e-11
3.8821e-11
3.80726e-11
3.73555e-11
3.66762e-11
3.60416e-11
3.54598e-11
3.49397e-11
3.44917e-11
3.4128e-11
3.38632e-11
3.37155e-11
3.37064e-11
3.38643e-11
3.42257e-11
3.48396e-11
3.57731e-11
3.71221e-11
3.90289e-11
4.17161e-11