/*--------------------------------*- C++ -*----------------------------------*\
  =========                 |
  \\      /  F ield         | OpenFOAM: The Open Source CFD Toolbox
   \\    /   O peration     | Website:  https://openfoam.org
    \\  /    A nd           | Version:  12
     \\/     M anipulation  |
\*---------------------------------------------------------------------------*/
FoamFile
{
    format      ascii;
    class       volScalarField;
    location    "6";
    object      k;
}
// * * * * * * * * * * * * * * * * * * * * * * * * * * * * * * * * * * * * * //

dimensions      [0 2 -2 0 0 0 0];

internalField   nonuniform List<scalar> 
5625
(
2.42496e-16
1.83161e-15
3.88142e-15
6.32689e-15
9.07997e-15
1.20741e-14
1.52605e-14
1.86017e-14
2.20665e-14
2.56282e-14
2.92628e-14
3.2948e-14
3.66633e-14
4.03891e-14
4.41068e-14
4.77986e-14
5.14475e-14
5.50371e-14
5.85517e-14
6.19763e-14
6.52966e-14
6.84988e-14
7.15699e-14
7.44975e-14
7.72702e-14
7.98769e-14
8.23077e-14
8.45531e-14
8.66046e-14
8.84546e-14
9.0096e-14
9.1523e-14
9.27303e-14
9.37136e-14
9.44694e-14
9.49953e-14
9.52895e-14
9.53512e-14
9.51806e-14
9.47786e-14
9.4147e-14
9.32885e-14
9.22067e-14
9.09058e-14
8.93912e-14
8.76688e-14
8.57453e-14
8.36283e-14
8.13262e-14
7.88478e-14
7.62028e-14
7.34017e-14
7.04553e-14
6.73754e-14
6.41742e-14
6.08645e-14
5.74597e-14
5.39738e-14
5.04213e-14
4.68172e-14
4.31773e-14
3.95177e-14
3.58556e-14
3.22086e-14
2.85952e-14
2.50351e-14
2.15494e-14
1.81612e-14
1.48959e-14
1.17835e-14
8.86016e-15
6.17301e-15
3.78669e-15
1.7868e-15
2.36553e-16
1.64022e-15
1.46003e-14
3.32627e-14
5.55693e-14
8.05516e-14
1.07626e-13
1.36383e-13
1.66502e-13
1.97715e-13
2.29787e-13
2.62505e-13
2.95672e-13
3.29105e-13
3.62628e-13
3.96075e-13
4.29286e-13
4.6211e-13
4.94398e-13
5.26011e-13
5.56814e-13
5.86677e-13
6.15477e-13
6.43098e-13
6.69428e-13
6.94364e-13
7.17807e-13
7.39668e-13
7.59861e-13
7.78311e-13
7.94947e-13
8.09709e-13
8.22542e-13
8.33399e-13
8.42241e-13
8.49038e-13
8.53767e-13
8.56412e-13
8.56967e-13
8.55432e-13
8.51816e-13
8.46134e-13
8.38413e-13
8.28682e-13
8.16983e-13
8.03361e-13
7.8787e-13
7.70572e-13
7.51533e-13
7.30829e-13
7.0854e-13
6.84753e-13
6.59561e-13
6.33063e-13
6.05364e-13
5.76573e-13
5.46806e-13
5.16183e-13
4.8483e-13
4.52876e-13
4.20457e-13
3.87713e-13
3.54792e-13
3.21843e-13
2.89027e-13
2.56508e-13
2.24462e-13
1.93077e-13
1.62555e-13
1.33122e-13
1.05034e-13
7.86003e-14
5.42171e-14
3.24506e-14
1.4243e-14
1.60002e-15
3.64664e-15
3.27039e-14
7.4996e-14
1.25902e-13
1.83147e-13
2.45328e-13
3.11454e-13
3.80756e-13
4.52598e-13
5.26429e-13
6.01751e-13
6.7811e-13
7.55078e-13
8.32253e-13
9.09251e-13
9.85705e-13
1.06126e-12
1.13559e-12
1.20836e-12
1.27926e-12
1.348e-12
1.41428e-12
1.47786e-12
1.53846e-12
1.59585e-12
1.6498e-12
1.70011e-12
1.74658e-12
1.78904e-12
1.82733e-12
1.8613e-12
1.89083e-12
1.91581e-12
1.93616e-12
1.95179e-12
1.96267e-12
1.96875e-12
1.97003e-12
1.96649e-12
1.95816e-12
1.94508e-12
1.92731e-12
1.90491e-12
1.87798e-12
1.84663e-12
1.81098e-12
1.77116e-12
1.72735e-12
1.67969e-12
1.62839e-12
1.57365e-12
1.51567e-12
1.45468e-12
1.39093e-12
1.32466e-12
1.25615e-12
1.18567e-12
1.1135e-12
1.03995e-12
9.65328e-13
8.89959e-13
8.14177e-13
7.38333e-13
6.6279e-13
5.87933e-13
5.14167e-13
4.41926e-13
3.71683e-13
3.03967e-13
2.39388e-13
1.78687e-13
1.22822e-13
7.31552e-14
3.18993e-14
3.55678e-15
6.03229e-15
5.41877e-14
1.24525e-13
2.09481e-13
3.05287e-13
4.0957e-13
5.2063e-13
6.37142e-13
7.58007e-13
8.82274e-13
1.00909e-12
1.13768e-12
1.26732e-12
1.39731e-12
1.52702e-12
1.65581e-12
1.7831e-12
1.90831e-12
2.0309e-12
2.15034e-12
2.26614e-12
2.37781e-12
2.4849e-12
2.58699e-12
2.68366e-12
2.77455e-12
2.85929e-12
2.93757e-12
3.00908e-12
3.07356e-12
3.13077e-12
3.1805e-12
3.22257e-12
3.25683e-12
3.28315e-12
3.30146e-12
3.31169e-12
3.31381e-12
3.30783e-12
3.29379e-12
3.27174e-12
3.24178e-12
3.20404e-12
3.15866e-12
3.10583e-12
3.04576e-12
2.97868e-12
2.90486e-12
2.82457e-12
2.73815e-12
2.64592e-12
2.54824e-12
2.44551e-12
2.33811e-12
2.22648e-12
2.11107e-12
1.99234e-12
1.87078e-12
1.74689e-12
1.62121e-12
1.49426e-12
1.36663e-12
1.2389e-12
1.1117e-12
9.85664e-13
8.61495e-13
7.39933e-13
6.21789e-13
5.07974e-13
3.99541e-13
2.97768e-13
2.04298e-13
1.21433e-13
5.28391e-14
5.88193e-15
8.69052e-15
7.81133e-14
1.79672e-13
3.02566e-13
4.41395e-13
5.92734e-13
7.54105e-13
9.2356e-13
1.09948e-12
1.28044e-12
1.46521e-12
1.65261e-12
1.84158e-12
2.03111e-12
2.22024e-12
2.40806e-12
2.5937e-12
2.77632e-12
2.95512e-12
3.12934e-12
3.29824e-12
3.46112e-12
3.61733e-12
3.76623e-12
3.90723e-12
4.03979e-12
4.16338e-12
4.27754e-12
4.38183e-12
4.47586e-12
4.55928e-12
4.63178e-12
4.6931e-12
4.74303e-12
4.78139e-12
4.80805e-12
4.82292e-12
4.82597e-12
4.81721e-12
4.79668e-12
4.76447e-12
4.72073e-12
4.66563e-12
4.5994e-12
4.52231e-12
4.43465e-12
4.33677e-12
4.22906e-12
4.11193e-12
3.98585e-12
3.8513e-12
3.70882e-12
3.55896e-12
3.40231e-12
3.2395e-12
3.07118e-12
2.89803e-12
2.72075e-12
2.5401e-12
2.35684e-12
2.17176e-12
1.98571e-12
1.79955e-12
1.61418e-12
1.43057e-12
1.24974e-12
1.07278e-12
9.00896e-13
7.35434e-13
5.77949e-13
4.30319e-13
2.94938e-13
1.75127e-13
7.61325e-14
8.46979e-15
1.15541e-14
1.03882e-13
2.39058e-13
4.02803e-13
5.87984e-13
7.9006e-13
1.00573e-12
1.23238e-12
1.46783e-12
1.71017e-12
1.9577e-12
2.20886e-12
2.46219e-12
2.71632e-12
2.96997e-12
3.22189e-12
3.47091e-12
3.7159e-12
3.95578e-12
4.18952e-12
4.41613e-12
4.63468e-12
4.84426e-12
5.04404e-12
5.23322e-12
5.41105e-12
5.57686e-12
5.73001e-12
5.8699e-12
5.99602e-12
6.10789e-12
6.20511e-12
6.28733e-12
6.35424e-12
6.40563e-12
6.44131e-12
6.46118e-12
6.46519e-12
6.45334e-12
6.4257e-12
6.38239e-12
6.3236e-12
6.24958e-12
6.16063e-12
6.05709e-12
5.93939e-12
5.80799e-12
5.6634e-12
5.50619e-12
5.33696e-12
5.1564e-12
4.96519e-12
4.7641e-12
4.55392e-12
4.33548e-12
4.10967e-12
3.87739e-12
3.63962e-12
3.39734e-12
3.15159e-12
2.90345e-12
2.65403e-12
2.40453e-12
2.15616e-12
1.91021e-12
1.66808e-12
1.43125e-12
1.20133e-12
9.80161e-13
7.69822e-13
5.72829e-13
3.92372e-13
2.32845e-13
1.01175e-13
1.12526e-14
1.45738e-14
1.31051e-13
3.01666e-13
5.08471e-13
7.42517e-13
9.98099e-13
1.27106e-12
1.5581e-12
1.85643e-12
2.16365e-12
2.47757e-12
2.79619e-12
3.11765e-12
3.44022e-12
3.76222e-12
4.08208e-12
4.3983e-12
4.70943e-12
5.01409e-12
5.31097e-12
5.59879e-12
5.87638e-12
6.14258e-12
6.39633e-12
6.6366e-12
6.86247e-12
7.07304e-12
7.26751e-12
7.44514e-12
7.60525e-12
7.74727e-12
7.87065e-12
7.97497e-12
8.05984e-12
8.12497e-12
8.17015e-12
8.19523e-12
8.20016e-12
8.18494e-12
8.14966e-12
8.09448e-12
8.01964e-12
7.92545e-12
7.81229e-12
7.68062e-12
7.53097e-12
7.36392e-12
7.18013e-12
6.98032e-12
6.76528e-12
6.53584e-12
6.29291e-12
6.03745e-12
5.77046e-12
5.49302e-12
5.20625e-12
4.91131e-12
4.60942e-12
4.30185e-12
3.98993e-12
3.67502e-12
3.35858e-12
3.04209e-12
2.72713e-12
2.41534e-12
2.10851e-12
1.80852e-12
1.51744e-12
1.23758e-12
9.71607e-13
7.22684e-13
4.94823e-13
2.93539e-13
1.27512e-13
1.41796e-14
1.771e-14
1.59268e-13
3.66681e-13
6.18196e-13
9.02976e-13
1.21412e-12
1.54658e-12
1.89635e-12
2.26005e-12
2.63472e-12
3.01768e-12
3.4065e-12
3.79889e-12
4.1927e-12
4.5859e-12
4.97654e-12
5.36277e-12
5.74283e-12
6.115e-12
6.47768e-12
6.82932e-12
7.16844e-12
7.49366e-12
7.80364e-12
8.09717e-12
8.37306e-12
8.63026e-12
8.86776e-12
9.08467e-12
9.28016e-12
9.45352e-12
9.60409e-12
9.73135e-12
9.83483e-12
9.91417e-12
9.96913e-12
9.99952e-12
1.00053e-11
9.98641e-12
9.94302e-12
9.87532e-12
9.78361e-12
9.66826e-12
9.52974e-12
9.36862e-12
9.18554e-12
8.98122e-12
8.75647e-12
8.51217e-12
8.24928e-12
7.96883e-12
7.67194e-12
7.35977e-12
7.03356e-12
6.69463e-12
6.34434e-12
5.98413e-12
5.61548e-12
5.23997e-12
4.85921e-12
4.47489e-12
4.08878e-12
3.7027e-12
3.31859e-12
2.93848e-12
2.56453e-12
2.19907e-12
1.84461e-12
1.50398e-12
1.18041e-12
8.77746e-13
6.00835e-13
3.56345e-13
1.54767e-13
1.72088e-14
2.09298e-14
1.88234e-13
4.33419e-13
7.3082e-13
1.06767e-12
1.43583e-12
1.82936e-12
2.24353e-12
2.67433e-12
3.11826e-12
3.57214e-12
4.03308e-12
4.49834e-12
4.96538e-12
5.43176e-12
5.89516e-12
6.35338e-12
6.8043e-12
7.2459e-12
7.67624e-12
8.09348e-12
8.49588e-12
8.88176e-12
9.24955e-12
9.59778e-12
9.92508e-12
1.02302e-11
1.05118e-11
1.0769e-11
1.10008e-11
1.12063e-11
1.13847e-11
1.15354e-11
1.16578e-11
1.17516e-11
1.18164e-11
1.18521e-11
1.18585e-11
1.18357e-11
1.17838e-11
1.17031e-11
1.15938e-11
1.14565e-11
1.12917e-11
1.11002e-11
1.08826e-11
1.06398e-11
1.03728e-11
1.00826e-11
9.77042e-12
9.43745e-12
9.08501e-12
8.71449e-12
8.32738e-12
7.92523e-12
7.50967e-12
7.08241e-12
6.64523e-12
6.19998e-12
5.7486e-12
5.29309e-12
4.83556e-12
4.37819e-12
3.92327e-12
3.47321e-12
3.03059e-12
2.59816e-12
2.1789e-12
1.77616e-12
1.39373e-12
1.03616e-12
7.09141e-13
4.20513e-13
1.82614e-13
2.03039e-14
2.42043e-14
2.17692e-13
5.01287e-13
8.45344e-13
1.23513e-12
1.66126e-12
2.11688e-12
2.59651e-12
3.09553e-12
3.60987e-12
4.13587e-12
4.67014e-12
5.20951e-12
5.75102e-12
6.29183e-12
6.82924e-12
7.36068e-12
7.88368e-12
8.39588e-12
8.89503e-12
9.37898e-12
9.84569e-12
1.02932e-11
1.07197e-11
1.11235e-11
1.1503e-11
1.18567e-11
1.21831e-11
1.24812e-11
1.27497e-11
1.29876e-11
1.31941e-11
1.33684e-11
1.351e-11
1.36182e-11
1.36929e-11
1.37337e-11
1.37405e-11
1.37134e-11
1.36526e-11
1.35583e-11
1.3431e-11
1.32711e-11
1.30795e-11
1.28567e-11
1.26038e-11
1.23217e-11
1.20116e-11
1.16746e-11
1.13122e-11
1.09257e-11
1.05168e-11
1.00869e-11
9.63783e-12
9.17142e-12
8.68955e-12
8.1942e-12
7.68745e-12
7.17145e-12
6.64845e-12
6.12078e-12
5.59088e-12
5.06129e-12
4.53467e-12
4.01383e-12
3.50172e-12
3.00155e-12
2.51678e-12
2.05124e-12
1.60933e-12
1.19626e-12
8.18601e-13
4.85366e-13
2.1076e-13
2.34324e-14
2.75082e-14
2.47414e-13
5.6976e-13
9.60885e-13
1.40407e-12
1.88866e-12
2.40689e-12
2.95254e-12
3.52035e-12
4.1057e-12
4.70441e-12
5.31262e-12
5.92672e-12
6.54331e-12
7.15915e-12
7.77116e-12
8.37639e-12
8.97202e-12
9.55536e-12
1.01238e-11
1.06749e-11
1.12064e-11
1.1716e-11
1.22016e-11
1.26612e-11
1.30931e-11
1.34956e-11
1.3867e-11
1.42059e-11
1.45112e-11
1.47816e-11
1.50161e-11
1.52139e-11
1.53744e-11
1.54969e-11
1.55811e-11
1.56267e-11
1.56336e-11
1.56019e-11
1.55318e-11
1.54236e-11
1.52777e-11
1.50949e-11
1.48758e-11
1.46214e-11
1.43326e-11
1.40107e-11
1.3657e-11
1.32728e-11
1.28596e-11
1.24192e-11
1.19532e-11
1.14635e-11
1.09521e-11
1.0421e-11
9.87242e-12
9.30862e-12
8.73195e-12
8.14488e-12
7.54997e-12
6.94988e-12
6.34738e-12
5.74537e-12
5.14688e-12
4.55509e-12
3.97338e-12
3.40537e-12
2.85498e-12
2.32658e-12
1.82512e-12
1.35651e-12
9.28163e-13
5.50282e-13
2.38934e-13
2.65639e-14
3.08192e-14
2.77199e-13
6.38375e-13
1.07666e-12
1.57333e-12
2.1165e-12
2.69743e-12
3.30919e-12
3.94588e-12
4.60232e-12
5.27382e-12
5.95603e-12
6.64491e-12
7.33662e-12
8.02753e-12
8.71415e-12
9.39317e-12
1.00614e-11
1.07158e-11
1.13535e-11
1.19717e-11
1.25678e-11
1.31392e-11
1.36837e-11
1.4199e-11
1.4683e-11
1.5134e-11
1.555e-11
1.59295e-11
1.62712e-11
1.65736e-11
1.68358e-11
1.70567e-11
1.72357e-11
1.7372e-11
1.74653e-11
1.75153e-11
1.75219e-11
1.74852e-11
1.74053e-11
1.72827e-11
1.7118e-11
1.69118e-11
1.6665e-11
1.63786e-11
1.60538e-11
1.56919e-11
1.52944e-11
1.48628e-11
1.43989e-11
1.39044e-11
1.33814e-11
1.28319e-11
1.22583e-11
1.16627e-11
1.10476e-11
1.04156e-11
9.76928e-12
9.11146e-12
8.44501e-12
7.77289e-12
7.09822e-12
6.42425e-12
5.75436e-12
5.09213e-12
4.44132e-12
3.80598e-12
3.19049e-12
2.59971e-12
2.03917e-12
1.51546e-12
1.03684e-12
6.14675e-13
2.66881e-13
2.96703e-14
3.41172e-14
3.06867e-13
7.06716e-13
1.19196e-12
1.74191e-12
2.34338e-12
2.98674e-12
3.6643e-12
4.36953e-12
5.0967e-12
5.84059e-12
6.5964e-12
7.35962e-12
8.12599e-12
8.89147e-12
9.65219e-12
1.04045e-11
1.11447e-11
1.18696e-11
1.2576e-11
1.32606e-11
1.39206e-11
1.45532e-11
1.51559e-11
1.57261e-11
1.62616e-11
1.67603e-11
1.72202e-11
1.76396e-11
1.80169e-11
1.83507e-11
1.86397e-11
1.88831e-11
1.90798e-11
1.92293e-11
1.9331e-11
1.93848e-11
1.93905e-11
1.93483e-11
1.92582e-11
1.91209e-11
1.8937e-11
1.87072e-11
1.84325e-11
1.81141e-11
1.77532e-11
1.73514e-11
1.69102e-11
1.64314e-11
1.59169e-11
1.53688e-11
1.47893e-11
1.41806e-11
1.35453e-11
1.28858e-11
1.2205e-11
1.15056e-11
1.07906e-11
1.00629e-11
9.32589e-12
8.58277e-12
7.83698e-12
7.09212e-12
6.35193e-12
5.62034e-12
4.90153e-12
4.19994e-12
3.52041e-12
2.86828e-12
2.24966e-12
1.67176e-12
1.14371e-12
6.77993e-13
2.94362e-13
3.2725e-14
3.73845e-14
3.36257e-13
7.74418e-13
1.30618e-12
1.90888e-12
2.56809e-12
3.27325e-12
4.01594e-12
4.789e-12
5.58613e-12
6.40161e-12
7.23017e-12
8.06685e-12
8.90697e-12
9.74608e-12
1.05799e-11
1.14044e-11
1.22157e-11
1.30101e-11
1.37839e-11
1.45338e-11
1.52567e-11
1.59494e-11
1.66091e-11
1.7233e-11
1.78188e-11
1.83641e-11
1.88667e-11
1.93248e-11
1.97366e-11
2.01006e-11
2.04156e-11
2.06802e-11
2.08938e-11
2.10555e-11
2.1165e-11
2.12218e-11
2.12259e-11
2.11775e-11
2.10768e-11
2.09244e-11
2.07209e-11
2.04673e-11
2.01647e-11
1.98142e-11
1.94175e-11
1.89759e-11
1.84915e-11
1.79661e-11
1.74017e-11
1.68007e-11
1.61655e-11
1.54986e-11
1.48026e-11
1.40805e-11
1.33352e-11
1.25698e-11
1.17874e-11
1.09914e-11
1.01854e-11
9.37282e-12
8.55755e-12
7.74345e-12
6.93463e-12
6.13537e-12
5.35021e-12
4.584e-12
3.84202e-12
3.13008e-12
2.45482e-12
1.82411e-12
1.24787e-12
7.39708e-13
3.21147e-13
3.57022e-14
4.06055e-14
3.65232e-13
8.41159e-13
1.41877e-12
2.07346e-12
2.78956e-12
3.5556e-12
4.36242e-12
5.20225e-12
6.06824e-12
6.95415e-12
7.85425e-12
8.76312e-12
9.67568e-12
1.05871e-11
1.14926e-11
1.23879e-11
1.32688e-11
1.4131e-11
1.49708e-11
1.57846e-11
1.65687e-11
1.73198e-11
1.80349e-11
1.87111e-11
1.93455e-11
1.99358e-11
2.04796e-11
2.09749e-11
2.14197e-11
2.18126e-11
2.21519e-11
2.24367e-11
2.26658e-11
2.28387e-11
2.29547e-11
2.30136e-11
2.30153e-11
2.29601e-11
2.28482e-11
2.26802e-11
2.24569e-11
2.21793e-11
2.18487e-11
2.14664e-11
2.10341e-11
2.05534e-11
2.00263e-11
1.9455e-11
1.88417e-11
1.81889e-11
1.74992e-11
1.67754e-11
1.60204e-11
1.52373e-11
1.44292e-11
1.35995e-11
1.27517e-11
1.18895e-11
1.10165e-11
1.01367e-11
9.25408e-12
8.37296e-12
7.49772e-12
6.633e-12
5.78369e-12
4.95502e-12
4.15268e-12
3.38295e-12
2.65298e-12
1.97125e-12
1.34847e-12
7.99312e-13
3.47017e-13
3.85777e-14
4.3767e-14
3.9367e-13
9.0666e-13
1.52927e-12
2.23496e-12
3.00686e-12
3.8326e-12
4.70229e-12
5.60755e-12
6.54098e-12
7.49584e-12
8.46592e-12
9.44538e-12
1.04287e-11
1.14106e-11
1.23861e-11
1.33504e-11
1.42989e-11
1.52272e-11
1.61311e-11
1.70066e-11
1.785e-11
1.86576e-11
1.94261e-11
2.01524e-11
2.08336e-11
2.14669e-11
2.205e-11
2.25805e-11
2.30565e-11
2.34764e-11
2.38385e-11
2.41417e-11
2.4385e-11
2.45675e-11
2.46888e-11
2.47487e-11
2.4747e-11
2.46841e-11
2.45603e-11
2.43762e-11
2.41328e-11
2.38312e-11
2.34727e-11
2.30588e-11
2.25912e-11
2.2072e-11
2.15031e-11
2.08869e-11
2.02259e-11
1.95227e-11
1.87802e-11
1.80013e-11
1.71891e-11
1.63469e-11
1.54783e-11
1.45867e-11
1.3676e-11
1.27499e-11
1.18126e-11
1.08682e-11
9.92098e-12
8.97558e-12
8.03667e-12
7.10921e-12
6.19846e-12
5.30999e-12
4.44988e-12
3.62484e-12
2.84252e-12
2.11199e-12
1.44468e-12
8.5632e-13
3.71758e-13
4.13279e-14
4.68576e-14
4.21469e-13
9.70689e-13
1.63727e-12
2.39281e-12
3.21922e-12
4.10326e-12
5.03432e-12
6.00342e-12
7.00261e-12
8.02466e-12
9.0629e-12
1.0111e-11
1.11632e-11
1.22136e-11
1.32569e-11
1.42881e-11
1.5302e-11
1.62941e-11
1.72597e-11
1.81947e-11
1.9095e-11
1.99567e-11
2.07762e-11
2.15503e-11
2.22758e-11
2.29498e-11
2.35697e-11
2.41332e-11
2.46383e-11
2.5083e-11
2.54659e-11
2.57856e-11
2.60411e-11
2.62317e-11
2.63568e-11
2.64163e-11
2.641e-11
2.63385e-11
2.62019e-11
2.60012e-11
2.57373e-11
2.54115e-11
2.50251e-11
2.45799e-11
2.40778e-11
2.35208e-11
2.29111e-11
2.22513e-11
2.15441e-11
2.07922e-11
1.99986e-11
1.91666e-11
1.82996e-11
1.74009e-11
1.64743e-11
1.55236e-11
1.45528e-11
1.35659e-11
1.25673e-11
1.15614e-11
1.05529e-11
9.5464e-12
8.54708e-12
7.56014e-12
6.59113e-12
5.646e-12
4.73117e-12
3.85376e-12
3.02189e-12
2.24516e-12
1.53573e-12
9.10259e-13
3.95168e-13
4.393e-14
4.98681e-14
4.48549e-13
1.03306e-12
1.74246e-12
2.54653e-12
3.42599e-12
4.36675e-12
5.35751e-12
6.38865e-12
7.45171e-12
8.53897e-12
9.64329e-12
1.07579e-11
1.18766e-11
1.29932e-11
1.41021e-11
1.51975e-11
1.62744e-11
1.73276e-11
1.83524e-11
1.93442e-11
2.02986e-11
2.12117e-11
2.20795e-11
2.28986e-11
2.36656e-11
2.43776e-11
2.50317e-11
2.56256e-11
2.61571e-11
2.66243e-11
2.70255e-11
2.73595e-11
2.76252e-11
2.78218e-11
2.7949e-11
2.80064e-11
2.79942e-11
2.79128e-11
2.77626e-11
2.75445e-11
2.72597e-11
2.69095e-11
2.64954e-11
2.60193e-11
2.54831e-11
2.48892e-11
2.424e-11
2.3538e-11
2.27862e-11
2.19875e-11
2.11451e-11
2.02625e-11
1.93432e-11
1.83908e-11
1.74093e-11
1.64026e-11
1.5375e-11
1.43308e-11
1.32745e-11
1.22108e-11
1.11445e-11
1.00807e-11
9.02473e-12
7.98202e-12
6.95844e-12
5.96025e-12
4.99421e-12
4.0678e-12
3.18958e-12
2.36966e-12
1.62083e-12
9.60678e-13
4.17049e-13
4.63621e-14
5.27916e-14
4.74844e-13
1.09361e-12
1.84459e-12
2.69576e-12
3.6267e-12
4.62247e-12
5.67107e-12
6.76231e-12
7.88718e-12
9.03747e-12
1.02056e-11
1.13844e-11
1.25672e-11
1.37475e-11
1.49191e-11
1.60762e-11
1.72132e-11
1.83248e-11
1.94057e-11
2.04513e-11
2.14569e-11
2.24182e-11
2.33312e-11
2.41921e-11
2.49976e-11
2.57444e-11
2.64298e-11
2.7051e-11
2.7606e-11
2.80928e-11
2.85096e-11
2.88553e-11
2.91287e-11
2.93292e-11
2.94564e-11
2.951e-11
2.94902e-11
2.93975e-11
2.92326e-11
2.89963e-11
2.869e-11
2.83152e-11
2.78734e-11
2.73667e-11
2.67972e-11
2.61674e-11
2.54798e-11
2.47373e-11
2.39428e-11
2.30995e-11
2.22108e-11
2.12802e-11
2.03116e-11
1.93086e-11
1.82755e-11
1.72165e-11
1.61359e-11
1.50382e-11
1.39282e-11
1.28108e-11
1.1691e-11
1.05741e-11
9.46556e-12
8.37126e-12
7.29725e-12
6.25005e-12
5.23673e-12
4.26512e-12
3.34414e-12
2.48439e-12
1.69925e-12
1.00714e-12
4.37212e-13
4.86033e-14
5.56231e-14
5.00313e-13
1.15226e-12
1.9435e-12
2.84025e-12
3.821e-12
4.86996e-12
5.97445e-12
7.12372e-12
8.30821e-12
9.51924e-12
1.07488e-11
1.19892e-11
1.32334e-11
1.44746e-11
1.57062e-11
1.69221e-11
1.81162e-11
1.92829e-11
2.04168e-11
2.15129e-11
2.25663e-11
2.35724e-11
2.45272e-11
2.54266e-11
2.6267e-11
2.70453e-11
2.77583e-11
2.84036e-11
2.89788e-11
2.9482e-11
2.99114e-11
3.02659e-11
3.05443e-11
3.07461e-11
3.08708e-11
3.09184e-11
3.08893e-11
3.07838e-11
3.06028e-11
3.03474e-11
3.0019e-11
2.96191e-11
2.91496e-11
2.86127e-11
2.80106e-11
2.7346e-11
2.66214e-11
2.584e-11
2.50049e-11
2.41193e-11
2.3187e-11
2.22115e-11
2.11967e-11
2.01468e-11
1.90659e-11
1.79584e-11
1.68289e-11
1.5682e-11
1.45227e-11
1.33561e-11
1.21874e-11
1.1022e-11
9.86565e-12
8.72439e-12
7.60451e-12
6.51278e-12
5.45655e-12
4.44392e-12
3.48418e-12
2.58834e-12
1.7703e-12
1.04922e-12
4.55474e-13
5.06331e-14
5.83599e-14
5.24928e-13
1.20895e-12
2.03907e-12
2.97986e-12
4.00869e-12
5.10897e-12
6.26735e-12
7.47249e-12
8.71433e-12
9.98371e-12
1.12721e-11
1.25716e-11
1.38745e-11
1.51737e-11
1.64622e-11
1.77336e-11
1.89816e-11
2.02002e-11
2.13836e-11
2.25267e-11
2.36242e-11
2.46716e-11
2.56643e-11
2.65984e-11
2.747e-11
2.82758e-11
2.90129e-11
2.96785e-11
3.02702e-11
3.07862e-11
3.12248e-11
3.15847e-11
3.18651e-11
3.20652e-11
3.21849e-11
3.22242e-11
3.21835e-11
3.20634e-11
3.18648e-11
3.15891e-11
3.12377e-11
3.08124e-11
3.03152e-11
2.97484e-11
2.91144e-11
2.84159e-11
2.76559e-11
2.68375e-11
2.59639e-11
2.50387e-11
2.40656e-11
2.30484e-11
2.19911e-11
2.0898e-11
1.97733e-11
1.86217e-11
1.74478e-11
1.62564e-11
1.50527e-11
1.38418e-11
1.26291e-11
1.14203e-11
1.02212e-11
9.03808e-12
7.87734e-12
6.74598e-12
5.65158e-12
4.60252e-12
3.60837e-12
2.6805e-12
1.83328e-12
1.08652e-12
4.71661e-13
5.24323e-14
6.10014e-14
5.48686e-13
1.26365e-12
2.1313e-12
3.11455e-12
4.18972e-12
5.33943e-12
6.54966e-12
7.80851e-12
9.10539e-12
1.04307e-11
1.17754e-11
1.31311e-11
1.44898e-11
1.5844e-11
1.71865e-11
1.85102e-11
1.98086e-11
2.10755e-11
2.23048e-11
2.3491e-11
2.46289e-11
2.57134e-11
2.67401e-11
2.77047e-11
2.86034e-11
2.94327e-11
3.01896e-11
3.08714e-11
3.14757e-11
3.20006e-11
3.24445e-11
3.28063e-11
3.30851e-11
3.32804e-11
3.3392e-11
3.34203e-11
3.33656e-11
3.32288e-11
3.3011e-11
3.27136e-11
3.23383e-11
3.18869e-11
3.13618e-11
3.07653e-11
3.01001e-11
2.93689e-11
2.8575e-11
2.77214e-11
2.68118e-11
2.58497e-11
2.48389e-11
2.37834e-11
2.26874e-11
2.15551e-11
2.03911e-11
1.92e-11
1.79866e-11
1.67558e-11
1.55129e-11
1.4263e-11
1.30119e-11
1.17651e-11
1.05288e-11
9.30917e-12
8.11296e-12
6.94727e-12
5.81985e-12
4.73931e-12
3.71544e-12
2.75993e-12
1.88755e-12
1.11867e-12
4.85607e-13
5.39823e-14
6.35489e-14
5.71599e-13
1.3164e-12
2.22022e-12
3.24439e-12
4.36419e-12
5.56145e-12
6.82152e-12
8.1319e-12
9.48151e-12
1.08602e-11
1.22586e-11
1.36679e-11
1.50796e-11
1.64857e-11
1.78788e-11
1.92514e-11
2.05967e-11
2.19082e-11
2.31796e-11
2.44051e-11
2.55791e-11
2.66966e-11
2.77529e-11
2.87437e-11
2.9665e-11
3.05133e-11
3.12855e-11
3.1979e-11
3.25914e-11
3.31209e-11
3.35661e-11
3.39257e-11
3.41991e-11
3.43859e-11
3.44862e-11
3.45003e-11
3.4429e-11
3.42731e-11
3.40341e-11
3.37134e-11
3.3313e-11
3.2835e-11
3.22817e-11
3.16557e-11
3.09599e-11
3.01971e-11
2.93708e-11
2.84842e-11
2.75409e-11
2.65447e-11
2.54996e-11
2.44095e-11
2.32788e-11
2.21118e-11
2.09131e-11
1.96875e-11
1.84397e-11
1.71749e-11
1.58983e-11
1.46153e-11
1.33314e-11
1.20526e-11
1.07849e-11
9.53468e-12
8.30877e-12
7.11441e-12
5.95948e-12
4.85274e-12
3.80419e-12
2.82575e-12
1.93251e-12
1.14529e-12
4.97157e-13
5.5266e-14
6.6006e-14
5.93698e-13
1.36727e-12
2.30596e-12
3.36956e-12
4.53233e-12
5.77532e-12
7.08326e-12
8.44307e-12
9.84315e-12
1.12729e-11
1.27224e-11
1.41824e-11
1.56442e-11
1.70992e-11
1.85396e-11
1.99577e-11
2.13463e-11
2.26986e-11
2.4008e-11
2.52685e-11
2.64744e-11
2.76205e-11
2.87018e-11
2.9714e-11
3.06531e-11
3.15156e-11
3.22983e-11
3.29987e-11
3.36145e-11
3.41439e-11
3.45856e-11
3.49387e-11
3.52025e-11
3.5377e-11
3.54622e-11
3.54588e-11
3.53678e-11
3.51902e-11
3.49277e-11
3.4582e-11
3.41552e-11
3.36495e-11
3.30677e-11
3.24123e-11
3.16864e-11
3.08932e-11
3.00361e-11
2.91185e-11
2.81441e-11
2.71169e-11
2.60408e-11
2.492e-11
2.37588e-11
2.25618e-11
2.13334e-11
2.00785e-11
1.88019e-11
1.75088e-11
1.62045e-11
1.48943e-11
1.35839e-11
1.22793e-11
1.09864e-11
9.71181e-12
8.46235e-12
7.24533e-12
6.06873e-12
4.94141e-12
3.87351e-12
2.87713e-12
1.96759e-12
1.16605e-12
5.06165e-13
5.6267e-14
6.8378e-14
6.1503e-13
1.41638e-12
2.38871e-12
3.49032e-12
4.69449e-12
5.9815e-12
7.33544e-12
8.74266e-12
1.0191e-11
1.16695e-11
1.31676e-11
1.46757e-11
1.61846e-11
1.76854e-11
1.91699e-11
2.063e-11
2.20581e-11
2.34473e-11
2.47906e-11
2.60818e-11
2.73151e-11
2.84849e-11
2.95864e-11
3.06151e-11
3.15669e-11
3.24384e-11
3.32265e-11
3.39285e-11
3.45425e-11
3.50668e-11
3.55002e-11
3.58419e-11
3.60915e-11
3.62492e-11
3.63153e-11
3.62908e-11
3.61767e-11
3.59746e-11
3.56861e-11
3.53133e-11
3.48585e-11
3.43242e-11
3.37132e-11
3.30284e-11
3.22731e-11
3.14505e-11
3.05641e-11
2.96176e-11
2.86148e-11
2.75597e-11
2.64563e-11
2.53088e-11
2.41217e-11
2.28994e-11
2.16465e-11
2.03678e-11
1.90683e-11
1.7753e-11
1.64271e-11
1.50962e-11
1.37658e-11
1.24419e-11
1.11304e-11
9.83801e-12
8.57146e-12
7.33812e-12
6.14601e-12
5.00403e-12
3.9224e-12
2.91333e-12
1.99228e-12
1.18066e-12
5.12499e-13
5.69709e-14
7.06721e-14
6.3566e-13
1.46386e-12
2.46871e-12
3.60704e-12
4.85116e-12
6.1806e-12
7.57879e-12
9.03152e-12
1.05261e-11
1.2051e-11
1.35954e-11
1.51489e-11
1.67021e-11
1.82457e-11
1.9771e-11
2.12695e-11
2.27335e-11
2.41555e-11
2.55285e-11
2.6846e-11
2.81019e-11
2.92906e-11
3.04072e-11
3.14471e-11
3.24062e-11
3.32812e-11
3.4069e-11
3.47673e-11
3.53739e-11
3.58875e-11
3.63072e-11
3.66323e-11
3.68629e-11
3.6999e-11
3.70417e-11
3.69919e-11
3.68512e-11
3.66212e-11
3.63039e-11
3.59018e-11
3.54172e-11
3.48531e-11
3.42123e-11
3.34981e-11
3.27137e-11
3.18627e-11
3.09488e-11
2.99756e-11
2.89471e-11
2.78673e-11
2.67403e-11
2.55704e-11
2.4362e-11
2.31195e-11
2.18475e-11
2.05509e-11
1.92345e-11
1.79033e-11
1.65625e-11
1.52175e-11
1.38739e-11
1.25375e-11
1.12144e-11
9.91101e-12
8.63413e-12
7.39109e-12
6.18989e-12
5.03943e-12
3.94995e-12
2.93367e-12
2.00613e-12
1.18884e-12
5.16043e-13
5.73646e-14
7.28968e-14
6.55666e-13
1.5099e-12
2.54627e-12
3.72016e-12
5.00294e-12
6.37336e-12
7.81422e-12
9.31073e-12
1.08497e-11
1.24189e-11
1.40072e-11
1.56038e-11
1.71986e-11
1.8782e-11
2.03448e-11
2.18783e-11
2.33744e-11
2.48252e-11
2.62235e-11
2.75626e-11
2.88362e-11
3.00387e-11
3.1165e-11
3.22106e-11
3.31714e-11
3.4044e-11
3.48257e-11
3.55141e-11
3.61075e-11
3.66046e-11
3.70048e-11
3.73078e-11
3.75139e-11
3.76234e-11
3.76378e-11
3.75585e-11
3.73871e-11
3.71257e-11
3.67767e-11
3.63427e-11
3.58264e-11
3.5231e-11
3.45597e-11
3.38158e-11
3.30029e-11
3.21246e-11
3.11847e-11
3.0187e-11
2.91356e-11
2.80344e-11
2.68878e-11
2.56998e-11
2.44749e-11
2.32175e-11
2.19322e-11
2.06237e-11
1.92967e-11
1.79561e-11
1.66072e-11
1.52551e-11
1.39054e-11
1.25637e-11
1.12361e-11
9.92883e-12
8.64865e-12
7.40279e-12
6.19918e-12
5.04665e-12
3.95539e-12
2.93759e-12
2.00875e-12
1.19037e-12
5.16699e-13
5.74374e-14
7.50623e-14
6.75139e-13
1.55471e-12
2.62173e-12
3.8302e-12
5.1505e-12
6.56064e-12
8.04279e-12
9.58153e-12
1.11631e-11
1.27748e-11
1.44049e-11
1.60421e-11
1.76759e-11
1.92962e-11
2.08935e-11
2.24585e-11
2.39828e-11
2.54583e-11
2.68775e-11
2.82335e-11
2.95199e-11
3.07308e-11
3.18613e-11
3.29067e-11
3.38631e-11
3.47273e-11
3.54966e-11
3.61688e-11
3.67426e-11
3.7217e-11
3.75916e-11
3.78665e-11
3.80422e-11
3.81197e-11
3.81009e-11
3.79872e-11
3.77809e-11
3.74844e-11
3.71004e-11
3.66317e-11
3.60817e-11
3.54535e-11
3.47507e-11
3.39769e-11
3.31358e-11
3.22313e-11
3.12671e-11
3.02472e-11
2.91758e-11
2.80568e-11
2.68945e-11
2.5693e-11
2.44567e-11
2.31899e-11
2.18971e-11
2.05828e-11
1.92518e-11
1.79087e-11
1.65587e-11
1.52067e-11
1.38582e-11
1.25186e-11
1.11938e-11
9.89004e-12
8.61378e-12
7.37217e-12
6.17299e-12
5.02498e-12
3.93818e-12
2.92468e-12
1.99986e-12
1.18507e-12
5.14394e-13
5.71809e-14
7.71798e-14
6.94179e-13
1.59852e-12
2.6955e-12
3.93771e-12
5.2946e-12
6.74343e-12
8.26566e-12
9.84531e-12
1.1468e-11
1.31205e-11
1.47904e-11
1.64661e-11
1.81365e-11
1.9791e-11
2.14195e-11
2.30126e-11
2.45614e-11
2.60575e-11
2.74931e-11
2.88611e-11
3.0155e-11
3.13689e-11
3.24977e-11
3.35369e-11
3.44826e-11
3.53318e-11
3.60821e-11
3.67315e-11
3.7279e-11
3.7724e-11
3.80665e-11
3.83069e-11
3.84461e-11
3.84859e-11
3.84284e-11
3.82754e-11
3.80296e-11
3.76939e-11
3.72713e-11
3.67652e-11
3.61792e-11
3.55167e-11
3.47816e-11
3.39776e-11
3.31088e-11
3.21789e-11
3.11922e-11
3.01525e-11
2.9064e-11
2.79308e-11
2.67569e-11
2.55466e-11
2.4304e-11
2.30334e-11
2.17392e-11
2.04256e-11
1.90973e-11
1.77588e-11
1.64148e-11
1.50704e-11
1.37305e-11
1.24005e-11
1.10862e-11
9.79331e-12
8.52837e-12
7.29824e-12
6.11052e-12
4.97376e-12
3.89781e-12
2.89458e-12
1.97921e-12
1.17282e-12
5.09067e-13
5.65885e-14
7.92611e-14
7.12894e-13
1.64157e-12
2.76797e-12
4.04331e-12
5.43607e-12
6.92274e-12
8.48411e-12
1.01035e-11
1.1766e-11
1.34578e-11
1.51659e-11
1.68781e-11
1.85827e-11
2.02687e-11
2.19256e-11
2.35434e-11
2.5113e-11
2.66255e-11
2.8073e-11
2.9448e-11
3.07441e-11
3.19552e-11
3.30762e-11
3.41028e-11
3.50312e-11
3.58586e-11
3.65829e-11
3.72024e-11
3.77166e-11
3.81252e-11
3.84286e-11
3.86279e-11
3.8724e-11
3.87202e-11
3.86181e-11
3.84205e-11
3.81305e-11
3.77514e-11
3.72869e-11
3.67404e-11
3.6116e-11
3.54175e-11
3.46491e-11
3.38147e-11
3.29185e-11
3.19646e-11
3.0957e-11
2.99e-11
2.87975e-11
2.76537e-11
2.64726e-11
2.52583e-11
2.40148e-11
2.27462e-11
2.14567e-11
2.01504e-11
1.88317e-11
1.75048e-11
1.61743e-11
1.48448e-11
1.35212e-11
1.22086e-11
1.09123e-11
9.63804e-12
8.39192e-12
7.18061e-12
6.01145e-12
4.89274e-12
3.8341e-12
2.84714e-12
1.94672e-12
1.15354e-12
5.00695e-13
5.56577e-14
8.13186e-14
7.31393e-13
1.68413e-12
2.83959e-12
4.14763e-12
5.57575e-12
7.09966e-12
8.69943e-12
1.03578e-11
1.2059e-11
1.37888e-11
1.55335e-11
1.72804e-11
1.90171e-11
2.07321e-11
2.24145e-11
2.40538e-11
2.56403e-11
2.7165e-11
2.86197e-11
2.99967e-11
3.12894e-11
3.24918e-11
3.35987e-11
3.4606e-11
3.55102e-11
3.63087e-11
3.69996e-11
3.75819e-11
3.80553e-11
3.842e-11
3.86772e-11
3.88279e-11
3.88748e-11
3.88207e-11
3.86683e-11
3.84207e-11
3.80816e-11
3.76549e-11
3.71445e-11
3.65547e-11
3.58895e-11
3.51535e-11
3.43508e-11
3.34858e-11
3.25628e-11
3.1586e-11
3.05596e-11
2.94879e-11
2.83747e-11
2.72242e-11
2.60403e-11
2.48269e-11
2.3588e-11
2.23274e-11
2.10489e-11
1.97566e-11
1.84544e-11
1.71465e-11
1.58369e-11
1.453e-11
1.32304e-11
1.19429e-11
1.06724e-11
9.42431e-12
8.20452e-12
7.01936e-12
5.87587e-12
4.78202e-12
3.74712e-12
2.78243e-12
1.90242e-12
1.12727e-12
4.8929e-13
5.43897e-14
8.33644e-14
7.49787e-13
1.72644e-12
2.91078e-12
4.25128e-12
5.71447e-12
7.27523e-12
8.91291e-12
1.06095e-11
1.23487e-11
1.41154e-11
1.58955e-11
1.76753e-11
1.94422e-11
2.11839e-11
2.28889e-11
2.45464e-11
2.61462e-11
2.76789e-11
2.9136e-11
3.05098e-11
3.17934e-11
3.29808e-11
3.40671e-11
3.50482e-11
3.59209e-11
3.66829e-11
3.73328e-11
3.787e-11
3.82948e-11
3.86081e-11
3.88114e-11
3.89063e-11
3.88971e-11
3.87862e-11
3.85773e-11
3.82741e-11
3.78809e-11
3.74022e-11
3.68423e-11
3.62061e-11
3.5498e-11
3.47228e-11
3.38852e-11
3.29895e-11
3.20405e-11
3.10423e-11
2.99993e-11
2.89156e-11
2.77952e-11
2.66421e-11
2.546e-11
2.42528e-11
2.3024e-11
2.17774e-11
2.05165e-11
1.9245e-11
1.79664e-11
1.66846e-11
1.54034e-11
1.41268e-11
1.28589e-11
1.16041e-11
1.0367e-11
9.15281e-12
7.96683e-12
6.81509e-12
5.70428e-12
4.64201e-12
3.6372e-12
2.70071e-12
1.8465e-12
1.09412e-12
4.74898e-13
5.279e-14
8.54105e-14
7.68183e-13
1.76875e-12
2.98196e-12
4.35488e-12
5.85304e-12
7.45049e-12
9.1258e-12
1.08602e-11
1.26368e-11
1.44396e-11
1.62539e-11
1.80653e-11
1.98605e-11
2.16266e-11
2.33515e-11
2.50239e-11
2.66332e-11
2.81696e-11
2.96243e-11
3.09894e-11
3.2258e-11
3.34241e-11
3.44828e-11
3.54304e-11
3.6264e-11
3.69816e-11
3.75825e-11
3.80666e-11
3.84347e-11
3.86885e-11
3.88295e-11
3.8862e-11
3.87893e-11
3.86149e-11
3.83432e-11
3.79789e-11
3.75267e-11
3.69916e-11
3.63788e-11
3.56933e-11
3.49403e-11
3.41248e-11
3.32516e-11
3.23256e-11
3.13515e-11
3.03337e-11
2.92764e-11
2.81839e-11
2.706e-11
2.59086e-11
2.47332e-11
2.35375e-11
2.23247e-11
2.10983e-11
1.98615e-11
1.86175e-11
1.73697e-11
1.61214e-11
1.48761e-11
1.36372e-11
1.24085e-11
1.11941e-11
9.99805e-12
8.82508e-12
7.6802e-12