/*--------------------------------*- C++ -*----------------------------------*\
  =========                 |
  \\      /  F ield         | OpenFOAM: The Open Source CFD Toolbox
   \\    /   O peration     | Website:  https://openfoam.org
    \\  /    A nd           | Version:  12
     \\/     M anipulation  |
\*---------------------------------------------------------------------------*/
FoamFile
{
    format      ascii;
    class       volScalarField;
    location    "6";
    object      nut;
}
// * * * * * * * * * * * * * * * * * * * * * * * * * * * * * * * * * * * * * //

dimensions      [0 2 -1 0 0 0 0];

internalField   nonuniform List<scalar> 
5625
(
4.77574e-21
1.44288e-19
3.05765e-19
4.9841e-19
7.15288e-19
9.51154e-19
1.20217e-18
1.46537e-18
1.73832e-18
2.0189e-18
2.30521e-18
2.59553e-18
2.8882e-18
3.18171e-18
3.47458e-18
3.7654e-18
4.05285e-18
4.33562e-18
4.61249e-18
4.88227e-18
5.14383e-18
5.39609e-18
5.63802e-18
5.86865e-18
6.08707e-18
6.29242e-18
6.4839e-18
6.66079e-18
6.8224e-18
6.96813e-18
7.09744e-18
7.20985e-18
7.30496e-18
7.38242e-18
7.44196e-18
7.48339e-18
7.50656e-18
7.51142e-18
7.49799e-18
7.46632e-18
7.41656e-18
7.34893e-18
7.26371e-18
7.16123e-18
7.04192e-18
6.90623e-18
6.75471e-18
6.58794e-18
6.40658e-18
6.21134e-18
6.00298e-18
5.78232e-18
5.55022e-18
5.30759e-18
5.05542e-18
4.79469e-18
4.52647e-18
4.25186e-18
3.972e-18
3.68809e-18
3.40135e-18
3.11307e-18
2.82458e-18
2.53727e-18
2.25262e-18
1.97217e-18
1.69759e-18
1.43067e-18
1.17345e-18
9.28263e-19
6.97971e-19
4.86288e-19
2.98302e-19
1.40757e-19
4.65869e-21
3.23027e-20
4.7185e-18
2.51986e-17
5.89167e-17
9.90416e-17
1.42372e-16
1.87764e-16
2.34727e-16
2.8295e-16
3.32171e-16
3.82143e-16
4.32622e-16
4.83369e-16
5.3415e-16
5.84736e-16
6.34904e-16
6.84437e-16
7.33123e-16
7.80758e-16
8.27146e-16
8.72098e-16
9.15433e-16
9.56979e-16
9.96572e-16
1.03406e-15
1.06929e-15
1.10214e-15
1.13248e-15
1.16019e-15
1.18517e-15
1.20734e-15
1.2266e-15
1.2429e-15
1.25616e-15
1.26636e-15
1.27345e-15
1.27741e-15
1.27823e-15
1.27591e-15
1.27047e-15
1.26192e-15
1.25031e-15
1.23569e-15
1.21811e-15
1.19765e-15
1.17437e-15
1.14838e-15
1.11978e-15
1.08867e-15
1.05518e-15
1.01943e-15
9.81571e-16
9.41738e-16
9.0009e-16
8.56787e-16
8.12001e-16
7.65908e-16
7.1869e-16
6.70537e-16
6.21645e-16
5.72215e-16
5.22454e-16
4.72574e-16
4.22792e-16
3.73329e-16
3.24411e-16
2.76269e-16
2.29135e-16
1.8326e-16
1.38939e-16
9.66438e-17
5.74861e-17
2.45852e-17
4.60326e-18
3.1511e-20
7.18173e-20
1.18146e-17
8.07046e-17
2.41249e-16
4.87521e-16
7.94019e-16
1.13775e-15
1.50387e-15
1.88368e-15
2.27207e-15
2.6657e-15
3.06215e-15
3.45943e-15
3.85576e-15
4.24949e-15
4.63903e-15
5.02283e-15
5.39939e-15
5.76727e-15
6.12504e-15
6.47134e-15
6.80484e-15
7.1243e-15
7.42851e-15
7.71633e-15
7.9867e-15
8.23862e-15
8.47117e-15
8.6835e-15
8.87486e-15
9.04455e-15
9.19197e-15
9.31663e-15
9.41808e-15
9.49599e-15
9.55011e-15
9.58028e-15
9.58643e-15
9.56858e-15
9.52681e-15
9.46132e-15
9.3724e-15
9.2604e-15
9.12577e-15
8.96903e-15
8.79079e-15
8.59173e-15
8.3726e-15
8.13423e-15
7.87751e-15
7.60341e-15
7.31294e-15
7.00718e-15
6.68728e-15
6.35441e-15
6.00982e-15
5.65477e-15
5.29059e-15
4.91863e-15
4.54028e-15
4.15696e-15
3.77013e-15
3.38128e-15
2.99197e-15
2.60386e-15
2.21885e-15
1.83922e-15
1.46816e-15
1.11062e-15
7.75015e-16
4.75806e-16
2.35421e-16
7.87411e-17
1.1525e-17
7.00476e-20
1.18801e-19
2.00317e-17
1.46138e-16
4.80479e-16
1.07465e-15
1.91772e-15
2.96233e-15
4.15381e-15
5.44557e-15
6.80266e-15
8.2002e-15
9.62049e-15
1.10505e-14
1.24804e-14
1.39018e-14
1.53079e-14
1.66924e-14
1.80497e-14
1.93744e-14
2.06614e-14
2.1906e-14
2.31035e-14
2.42496e-14
2.53401e-14
2.63711e-14
2.7339e-14
2.82403e-14
2.90718e-14
2.98307e-14
3.05143e-14
3.11202e-14
3.16465e-14
3.20913e-14
3.24532e-14
3.2731e-14
3.29239e-14
3.30314e-14
3.30532e-14
3.29894e-14
3.28404e-14
3.26068e-14
3.22897e-14
3.18902e-14
3.141e-14
3.08509e-14
3.0215e-14
2.95047e-14
2.87224e-14
2.78712e-14
2.69541e-14
2.59744e-14
2.49356e-14
2.38414e-14
2.26957e-14
2.15026e-14
2.02663e-14
1.89912e-14
1.7682e-14
1.63434e-14
1.49805e-14
1.35987e-14
1.22037e-14
1.08022e-14
9.40186e-15
8.01216e-15
6.64554e-15
5.31906e-15
4.05682e-15
2.89277e-15
1.87237e-15
1.04899e-15
4.68866e-16
1.42559e-16
1.95356e-17
1.15839e-19
1.71152e-19
2.91026e-17
2.1742e-16
7.43325e-16
1.74609e-15
3.28299e-15
5.33186e-15
7.8201e-15
1.06562e-14
1.37514e-14
1.7029e-14
2.04273e-14
2.38973e-14
2.74007e-14
3.09068e-14
3.43907e-14
3.78316e-14
4.12112e-14
4.45135e-14
4.77242e-14
5.083e-14
5.38187e-14
5.6679e-14
5.94002e-14
6.19724e-14
6.43865e-14
6.6634e-14
6.8707e-14
7.05985e-14
7.23019e-14
7.38116e-14
7.51226e-14
7.62306e-14
7.71321e-14
7.78244e-14
7.83054e-14
7.85739e-14
7.86293e-14
7.8472e-14
7.81027e-14
7.75232e-14
7.67359e-14
7.5744e-14
7.45512e-14
7.31621e-14
7.15817e-14
6.98158e-14
6.78708e-14
6.57536e-14
6.34719e-14
6.10337e-14
5.84476e-14
5.57228e-14
5.28692e-14
4.98969e-14
4.6817e-14
4.36411e-14
4.03818e-14
3.70526e-14
3.36687e-14
3.0247e-14
2.68075e-14
2.33739e-14
1.99755e-14
1.66493e-14
1.34424e-14
1.04148e-14
7.64126e-15
5.20847e-15
3.20586e-15
1.70431e-15
7.25187e-16
2.12015e-16
2.83689e-17
1.66805e-19
2.27548e-19
3.8837e-17
2.93268e-16
1.02133e-15
2.45982e-15
4.76166e-15
7.97441e-15
1.20537e-14
1.68946e-14
2.23639e-14
2.8324e-14
3.46477e-14
4.12237e-14
4.79577e-14
5.47709e-14
6.15978e-14
6.8383e-14
7.50796e-14
8.16471e-14
8.805e-14
9.42567e-14
1.00239e-13
1.05971e-13
1.11429e-13
1.16592e-13
1.2144e-13
1.25955e-13
1.30121e-13
1.33923e-13
1.37348e-13
1.40384e-13
1.43022e-13
1.45252e-13
1.47067e-13
1.48462e-13
1.49433e-13
1.49977e-13
1.50094e-13
1.49783e-13
1.49048e-13
1.4789e-13
1.46315e-13
1.4433e-13
1.41942e-13
1.39159e-13
1.35993e-13
1.32455e-13
1.28557e-13
1.24315e-13
1.19743e-13
1.14858e-13
1.09679e-13
1.04224e-13
9.85155e-14
9.25749e-14
8.64272e-14
8.00994e-14
7.36215e-14
6.7027e-14
6.03543e-14
5.36483e-14
4.69615e-14
4.0357e-14
3.39109e-14
2.77145e-14
2.18764e-14
1.65209e-14
1.17822e-14
7.79092e-15
4.64936e-15
2.40023e-15
9.95916e-16
2.85801e-16
3.78318e-17
2.2161e-19
2.87018e-19
4.90824e-17
3.72711e-16
1.31082e-15
3.20093e-15
6.30189e-15
1.07545e-14
1.65777e-14
2.36908e-14
3.19461e-14
4.11613e-14
5.1145e-14
6.17129e-14
7.26964e-14
8.39461e-14
9.53317e-14
1.06741e-13
1.18075e-13
1.29251e-13
1.40194e-13
1.50838e-13
1.61127e-13
1.71008e-13
1.80435e-13
1.89366e-13
1.97762e-13
2.05591e-13
2.12821e-13
2.19425e-13
2.25378e-13
2.30659e-13
2.35249e-13
2.39133e-13
2.42298e-13
2.44734e-13
2.46433e-13
2.47392e-13
2.47607e-13
2.47081e-13
2.45816e-13
2.43818e-13
2.41096e-13
2.37661e-13
2.33527e-13
2.2871e-13
2.23228e-13
2.17102e-13
2.10355e-13
2.03014e-13
1.95107e-13
1.86665e-13
1.77722e-13
1.68316e-13
1.58486e-13
1.48277e-13
1.37739e-13
1.26927e-13
1.15902e-13
1.04736e-13
9.35085e-14
8.23134e-14
7.12596e-14
6.04733e-14
5.01e-14
4.03042e-14
3.12665e-14
2.31742e-14
1.62058e-14
1.05054e-14
6.15084e-15
3.1215e-15
1.27722e-15
3.62899e-16
4.77664e-17
2.79254e-19
3.48783e-19
5.97121e-17
4.54893e-16
1.60904e-15
3.9615e-15
7.88016e-15
1.36088e-14
2.12491e-14
3.0771e-14
4.20412e-14
5.48575e-14
6.89803e-14
8.41581e-14
1.00145e-13
1.16709e-13
1.3364e-13
1.5075e-13
1.6787e-13
1.84851e-13
2.01564e-13
2.1789e-13
2.33728e-13
2.48983e-13
2.63575e-13
2.77429e-13
2.90479e-13
3.02666e-13
3.13936e-13
3.24242e-13
3.33543e-13
3.41802e-13
3.48989e-13
3.55076e-13
3.60042e-13
3.63871e-13
3.6655e-13
3.6807e-13
3.6843e-13
3.6763e-13
3.65675e-13
3.62574e-13
3.58343e-13
3.52997e-13
3.46561e-13
3.3906e-13
3.30525e-13
3.2099e-13
3.10495e-13
2.99082e-13
2.86801e-13
2.73704e-13
2.59849e-13
2.45302e-13
2.30133e-13
2.14421e-13
1.98255e-13
1.81734e-13
1.64969e-13
1.48086e-13
1.31228e-13
1.14558e-13
9.82581e-14
8.25354e-14
6.76157e-14
5.37406e-14
4.11573e-14
3.01003e-14
2.07673e-14
1.32871e-14
7.68572e-15
3.85963e-15
1.5661e-15
4.42388e-16
5.80377e-17
3.38911e-19
4.12193e-19
7.06174e-17
5.39049e-16
1.91351e-15
4.7355e-15
9.48224e-15
1.65035e-14
2.59919e-14
3.79835e-14
5.23793e-14
6.8978e-14
8.75108e-14
1.07672e-13
1.29145e-13
1.51618e-13
1.74792e-13
1.98393e-13
2.2217e-13
2.45895e-13
2.69363e-13
2.92391e-13
3.14815e-13
3.36487e-13
3.57275e-13
3.77061e-13
3.95739e-13
4.13214e-13
4.29401e-13
4.44226e-13
4.57623e-13
4.69534e-13
4.7991e-13
4.88709e-13
4.95899e-13
5.0145e-13
5.05346e-13
5.07572e-13
5.08123e-13
5.07001e-13
5.04213e-13
4.99773e-13
4.93701e-13
4.86025e-13
4.76779e-13
4.66004e-13
4.53746e-13
4.40058e-13
4.25001e-13
4.08644e-13
3.91061e-13
3.72337e-13
3.52565e-13
3.31847e-13
3.10298e-13
2.88045e-13
2.6523e-13
2.4201e-13
2.18562e-13
1.95085e-13
1.71798e-13
1.48947e-13
1.26801e-13
1.05653e-13
8.58089e-14
6.75819e-14
5.1272e-14
3.71419e-14
2.53867e-14
1.60993e-14
9.23815e-15
4.6078e-15
1.85977e-15
5.23417e-16
6.85262e-17
3.99868e-19
4.76681e-19
8.17031e-17
6.24486e-16
2.22198e-15
5.51762e-15
1.10971e-14
1.94158e-14
3.07603e-14
4.52394e-14
6.27997e-14
8.32556e-14
1.06324e-13
1.3166e-13
1.58886e-13
1.87613e-13
2.1746e-13
2.48062e-13
2.79079e-13
3.10194e-13
3.4112e-13
3.71593e-13
4.01377e-13
4.30255e-13
4.58036e-13
4.84543e-13
5.09622e-13
5.33131e-13
5.54947e-13
5.74957e-13
5.93065e-13
6.09185e-13
6.23246e-13
6.35185e-13
6.44951e-13
6.52507e-13
6.57821e-13
6.60876e-13
6.61661e-13
6.60181e-13
6.56442e-13
6.50464e-13
6.42278e-13
6.31922e-13
6.19446e-13
6.04906e-13
5.88371e-13
5.6992e-13
5.49639e-13
5.27629e-13
5.04e-13
4.78877e-13
4.52395e-13
4.24708e-13
3.95983e-13
3.66409e-13
3.36191e-13
3.05561e-13
2.74772e-13
2.44105e-13
2.1387e-13
1.844e-13
1.56054e-13
1.2921e-13
1.04249e-13
8.15461e-14
6.14384e-14
4.42015e-14
3.00125e-14
1.89158e-14
1.07951e-14
5.35972e-15
2.15559e-15
6.05192e-16
7.91232e-17
4.61479e-19
5.4175e-19
9.28849e-17
7.10584e-16
2.53234e-15
6.30294e-15
1.2715e-14
2.2328e-14
3.55217e-14
5.24799e-14
7.32003e-14
9.75212e-14
1.25156e-13
1.55732e-13
1.88818e-13
2.2396e-13
2.60696e-13
2.98574e-13
3.37162e-13
3.76053e-13
4.14869e-13
4.53262e-13
4.90911e-13
5.27527e-13
5.62844e-13
5.96623e-13
6.28648e-13
6.58727e-13
6.86684e-13
7.12368e-13
7.35641e-13
7.56386e-13
7.74501e-13
7.899e-13
8.02513e-13
8.12283e-13
8.19171e-13
8.23148e-13
8.24201e-13
8.22334e-13
8.17553e-13
8.09889e-13
7.9938e-13
7.86079e-13
7.70054e-13
7.51383e-13
7.30159e-13
7.06489e-13
6.80496e-13
6.52317e-13
6.22105e-13
5.9003e-13
5.56283e-13
5.21074e-13
4.84635e-13
4.47222e-13
4.09117e-13
3.70632e-13
3.32107e-13
2.93911e-13
2.56446e-13
2.20136e-13
1.8543e-13
1.52783e-13
1.22647e-13
9.54436e-14
7.15393e-14
5.12099e-14
3.4605e-14
2.17146e-14
1.23445e-14
6.10934e-15
2.45101e-15
6.86963e-16
8.9728e-17
5.23152e-19
6.06956e-19
1.04088e-16
7.9678e-16
2.84268e-15
7.08691e-15
1.43271e-14
2.52245e-14
4.02498e-14
5.96612e-14
8.35093e-14
1.1166e-13
1.43831e-13
1.79625e-13
2.18572e-13
2.60154e-13
3.03838e-13
3.49086e-13
3.95379e-13
4.42218e-13
4.89133e-13
5.35687e-13
5.81473e-13
6.26119e-13
6.69285e-13
7.10659e-13
7.4996e-13
7.86935e-13
8.21355e-13
8.53019e-13
8.81747e-13
9.07382e-13
9.29791e-13
9.48858e-13
9.64491e-13
9.76615e-13
9.85175e-13
9.90134e-13
9.91472e-13
9.89194e-13
9.83309e-13
9.73853e-13
9.60878e-13
9.44453e-13
9.24664e-13
9.01616e-13
8.7543e-13
8.46247e-13
8.14227e-13
7.7955e-13
7.42418e-13
7.03056e-13
6.61711e-13
6.18659e-13
5.74202e-13
5.28672e-13
4.82431e-13
4.35878e-13
3.89441e-13
3.43582e-13
2.98794e-13
2.55592e-13
2.14507e-13
1.7607e-13
1.40792e-13
1.09135e-13
8.14852e-14
5.81109e-14
3.91299e-14
2.44752e-14
1.38748e-14
6.85077e-15
2.74357e-15
7.68021e-16
1.00246e-16
5.84331e-19
6.71907e-19
1.15244e-16
8.82571e-16
3.15125e-15
7.86538e-15
1.59254e-14
2.80913e-14
4.49221e-14
6.67481e-14
9.3672e-14
1.25589e-13
1.62223e-13
2.0316e-13
2.47891e-13
2.95847e-13
3.46423e-13
3.99006e-13
4.52988e-13
5.07783e-13
5.62829e-13
6.17599e-13
6.71601e-13
7.24376e-13
7.75505e-13
8.24602e-13
8.71317e-13
9.1533e-13
9.56358e-13
9.94145e-13
1.02846e-12
1.05912e-12
1.08593e-12
1.10877e-12
1.12751e-12
1.14205e-12
1.15232e-12
1.15829e-12
1.15991e-12
1.1572e-12
1.15016e-12
1.13885e-12
1.12332e-12
1.10367e-12
1.08e-12
1.05244e-12
1.02115e-12
9.86295e-13
9.4809e-13
9.06757e-13
8.6255e-13
8.15751e-13
7.66672e-13
7.15655e-13
6.63077e-13
6.0935e-13
5.54919e-13
5.0027e-13
4.45921e-13
3.92426e-13
3.40367e-13
2.90345e-13
2.42971e-13
1.98842e-13
1.58522e-13
1.22509e-13
9.12004e-14
6.48548e-14
4.35552e-14
2.71777e-14
1.53747e-14
7.57828e-15
3.03091e-15
8.47687e-16
1.10587e-16
6.44489e-19
7.36253e-19
1.26294e-16
9.67506e-16
3.45649e-15
8.63459e-15
1.75025e-14
3.09159e-14
4.95187e-14
7.37103e-14
1.03644e-13
1.39243e-13
1.80238e-13
2.26202e-13
2.76593e-13
3.3079e-13
3.88125e-13
4.47911e-13
5.09459e-13
5.72095e-13
6.35172e-13
6.98072e-13
7.60215e-13
8.21061e-13
8.80109e-13
9.36897e-13
9.91003e-13
1.04204e-12
1.08967e-12
1.13358e-12
1.1735e-12
1.20917e-12
1.2404e-12
1.26701e-12
1.28885e-12
1.3058e-12
1.31778e-12
1.32474e-12
1.32662e-12
1.32345e-12
1.31524e-12
1.30203e-12
1.28392e-12
1.261e-12
1.2334e-12
1.20129e-12
1.16485e-12
1.1243e-12
1.07988e-12
1.03188e-12
9.80592e-13
9.26366e-13
8.69577e-13
8.10638e-13
7.50001e-13
6.88157e-13
6.25637e-13
5.6301e-13
5.00886e-13
4.39906e-13
3.80737e-13
3.24063e-13
2.70567e-13
2.20909e-13
1.757e-13
1.35467e-13
1.00617e-13
7.13949e-14
4.78501e-14
2.9803e-14
1.68331e-14
8.28627e-15
3.31074e-15
9.2531e-16
1.20666e-16
7.03124e-19
7.99689e-19
1.37187e-16
1.05119e-15
3.75702e-15
9.39117e-15
1.90519e-14
3.36871e-14
5.40219e-14
8.05218e-14
1.13387e-13
1.52568e-13
1.97803e-13
2.48651e-13
3.04539e-13
3.64799e-13
4.28704e-13
4.95495e-13
5.64407e-13
6.34682e-13
7.05589e-13
7.76423e-13
8.46521e-13
9.15258e-13
9.82055e-13
1.04637e-12
1.10772e-12
1.16565e-12
1.21976e-12
1.26967e-12
1.31507e-12
1.35567e-12
1.39122e-12
1.42152e-12
1.44638e-12
1.46568e-12
1.47931e-12
1.4872e-12
1.48931e-12
1.48565e-12
1.47623e-12
1.46112e-12
1.44042e-12
1.41423e-12
1.38274e-12
1.34611e-12
1.30458e-12
1.25839e-12
1.20785e-12
1.15327e-12
1.09502e-12
1.03351e-12
9.69163e-13
9.02476e-13
8.33971e-13
7.64218e-13
6.9383e-13
6.23461e-13
5.53804e-13
4.85585e-13
4.19554e-13
3.56469e-13
2.97081e-13
2.42108e-13
1.92203e-13
1.47919e-13
1.09669e-13
7.76861e-14
5.19845e-14
3.23321e-14
1.82391e-14
8.9693e-15
3.58085e-15
1.00026e-15
1.30399e-16
7.59754e-19
8.61952e-19
1.47876e-16
1.13328e-15
4.05164e-15
1.01322e-14
2.05677e-14
3.6395e-14
5.84165e-14
8.716e-14
1.22869e-13
1.65522e-13
2.14859e-13
2.70428e-13
3.31625e-13
3.97738e-13
4.67982e-13
5.41533e-13
6.1755e-13
6.95197e-13
7.7366e-13
8.52153e-13
9.2993e-13
1.00629e-12
1.08057e-12
1.15216e-12
1.2205e-12
1.28508e-12
1.34543e-12
1.40113e-12
1.45181e-12
1.49714e-12
1.53685e-12
1.57067e-12
1.59843e-12
1.61995e-12
1.63513e-12
1.64387e-12
1.64614e-12
1.64195e-12
1.6313e-12
1.61429e-12
1.59101e-12
1.56162e-12
1.52629e-12
1.48524e-12
1.43873e-12
1.38706e-12
1.33056e-12
1.2696e-12
1.20461e-12
1.13604e-12
1.0644e-12
9.90244e-13
9.14167e-13
8.36815e-13
7.58878e-13
6.81091e-13
6.04228e-13
5.29094e-13
4.56514e-13
3.87318e-13
3.2232e-13
2.62289e-13
2.07916e-13
1.59779e-13
1.18295e-13
8.36847e-14
5.59289e-14
3.47465e-14
1.95822e-14
9.62208e-15
3.83909e-15
1.07194e-15
1.39708e-16
8.13915e-19
9.22817e-19
1.58324e-16
1.21349e-15
4.33933e-15
1.08552e-14
2.20452e-14
3.90313e-14
6.26896e-14
9.36061e-14
1.32066e-13
1.78068e-13
2.31358e-13
2.9147e-13
3.5777e-13
4.29503e-13
5.05828e-13
5.85858e-13
6.6868e-13
7.53384e-13
8.39076e-13
9.24892e-13
1.01001e-12
1.09364e-12
1.17506e-12
1.25359e-12
1.32859e-12
1.39949e-12
1.46578e-12
1.52697e-12
1.58266e-12
1.63247e-12
1.67608e-12
1.71322e-12
1.74367e-12
1.76724e-12
1.78382e-12
1.7933e-12
1.79564e-12
1.79085e-12
1.77896e-12
1.76005e-12
1.73424e-12
1.70171e-12
1.66266e-12
1.61733e-12
1.56602e-12
1.50906e-12
1.44684e-12
1.37977e-12
1.30832e-12
1.23302e-12
1.15443e-12
1.07317e-12
9.89896e-13
9.05334e-13
8.20246e-13
7.3544e-13
6.51767e-13
5.70104e-13
4.91346e-13
4.1639e-13
3.46106e-13
2.81311e-13
2.22732e-13
1.70965e-13
1.26435e-13
8.93475e-14
5.96546e-14
3.70282e-14
2.08519e-14
1.02394e-14
4.08338e-15
1.13975e-15
1.48516e-16
8.65161e-19
9.82107e-19
1.685e-16
1.29158e-15
4.61926e-15
1.15582e-14
2.34804e-14
4.15893e-14
6.68307e-14
9.98452e-14
1.40955e-13
1.90179e-13
2.47265e-13
3.11731e-13
3.82914e-13
4.60016e-13
5.42143e-13
6.28346e-13
7.17644e-13
8.09054e-13
9.01607e-13
9.94366e-13
1.08643e-12
1.17694e-12
1.2651e-12
1.35016e-12
1.43143e-12
1.50828e-12
1.58012e-12
1.64645e-12
1.70679e-12
1.76075e-12
1.80796e-12
1.84814e-12
1.88104e-12
1.90645e-12
1.92424e-12
1.93431e-12
1.93662e-12
1.93117e-12
1.91799e-12
1.89719e-12
1.86891e-12
1.83333e-12
1.79068e-12
1.74124e-12
1.68534e-12
1.62336e-12
1.5557e-12
1.48284e-12
1.4053e-12
1.32365e-12
1.23852e-12
1.15057e-12
1.06055e-12
9.69238e-13
8.77459e-13
7.86095e-13
6.96064e-13
6.08312e-13
5.23797e-13
4.43475e-13
3.68269e-13
2.99038e-13
2.36542e-13
1.81397e-13
1.34028e-13
9.46324e-14
6.3133e-14
3.91592e-14
2.20383e-14
1.08164e-14
4.31172e-15
1.20314e-15
1.56749e-16
9.1306e-19
1.03968e-18
1.7838e-16
1.36738e-15
4.89081e-15
1.22396e-14
2.48703e-14
4.40639e-14
7.0832e-14
1.05866e-13
1.49522e-13
2.01835e-13
2.62552e-13
3.31176e-13
4.07013e-13
4.89222e-13
5.76858e-13
6.6891e-13
7.64332e-13
8.62072e-13
9.6109e-13
1.06037e-12
1.15895e-12
1.2559e-12
1.35036e-12
1.4415e-12
1.52859e-12
1.61094e-12
1.68791e-12
1.75895e-12
1.82355e-12
1.88128e-12
1.93175e-12
1.97464e-12
2.00969e-12
2.03668e-12
2.05547e-12
2.06596e-12
2.06809e-12
2.06189e-12
2.04738e-12
2.0247e-12
1.99398e-12
1.95546e-12
1.90936e-12
1.85602e-12
1.79578e-12
1.72904e-12
1.65628e-12
1.578e-12
1.49477e-12
1.40721e-12
1.316e-12
1.22186e-12
1.1256e-12
1.02804e-12
9.30085e-13
8.32676e-13
7.36791e-13
6.43435e-13
5.53627e-13
4.68373e-13
3.88645e-13
3.1534e-13
2.49245e-13
1.90994e-13
1.41017e-13
9.94979e-14
6.63365e-14
4.11224e-14
2.31314e-14
1.1348e-14
4.52214e-15
1.26155e-15
1.64335e-16
9.57198e-19
1.09545e-18
1.87948e-16
1.44075e-15
5.15354e-15
1.28984e-14
2.62128e-14
4.64516e-14
7.46883e-14
1.11661e-13
1.57756e-13
2.13023e-13
2.77204e-13
3.49785e-13
4.3004e-13
5.17087e-13
6.09928e-13
7.07492e-13
8.08672e-13
9.12347e-13
1.01741e-12
1.12278e-12
1.22741e-12
1.33032e-12
1.43059e-12
1.52733e-12
1.61974e-12
1.7071e-12
1.78872e-12
1.86401e-12
1.93242e-12
1.99349e-12
2.04682e-12
2.09206e-12
2.12892e-12
2.1572e-12
2.17674e-12
2.18743e-12
2.18923e-12
2.18215e-12
2.16627e-12
2.14169e-12
2.1086e-12
2.06723e-12
2.01786e-12
1.96081e-12
1.89649e-12
1.82533e-12
1.74782e-12
1.66453e-12
1.57605e-12
1.48306e-12
1.38628e-12
1.28648e-12
1.18452e-12
1.08128e-12
9.77718e-13
8.74824e-13
7.73633e-13
6.75204e-13
5.80606e-13
4.90892e-13
4.07076e-13
3.30086e-13
2.60739e-13
1.9968e-13
1.47343e-13
1.03904e-13
6.92379e-14
4.29007e-14
2.41217e-14
1.18297e-14
4.71278e-15
1.31447e-15
1.71207e-16
9.97174e-19
1.14935e-18
1.97195e-16
1.51163e-15
5.40722e-15
1.3534e-14
2.75069e-14
4.87508e-14
7.83972e-14
1.17227e-13
1.65654e-13
2.23737e-13
2.91214e-13
3.67549e-13
4.51985e-13
5.43596e-13
6.41331e-13
7.44064e-13
8.50623e-13
9.59822e-13
1.07049e-12
1.18148e-12
1.29168e-12
1.40006e-12
1.50561e-12
1.60742e-12
1.70464e-12
1.79648e-12
1.88223e-12
1.96125e-12
2.03298e-12
2.09693e-12
2.15267e-12
2.19984e-12
2.23815e-12
2.26738e-12
2.28737e-12
2.29803e-12
2.29931e-12
2.29124e-12
2.27389e-12
2.24741e-12
2.21199e-12
2.16788e-12
2.11539e-12
2.05487e-12
1.98675e-12
1.91149e-12
1.82963e-12
1.74176e-12
1.64852e-12
1.55061e-12
1.4488e-12
1.34392e-12
1.23686e-12
1.12854e-12
1.01998e-12
9.12198e-13
8.06291e-13
7.03358e-13
6.04512e-13
5.10845e-13
4.23406e-13
3.43154e-13
2.70925e-13
2.07379e-13
1.52952e-13
1.0781e-13
7.18109e-14
4.44779e-14
2.5e-14
1.22569e-14
4.88183e-15
1.36138e-15
1.77299e-16
1.03261e-18
1.20137e-18
2.06119e-16
1.58001e-15
5.6518e-15
1.41464e-14
2.87526e-14
5.09616e-14
8.19592e-14
1.22566e-13
1.73218e-13
2.33981e-13
3.04585e-13
3.84472e-13
4.72851e-13
5.6875e-13
6.71068e-13
7.78619e-13
8.90171e-13
1.00448e-12
1.1203e-12
1.23642e-12
1.35169e-12
1.465e-12
1.57531e-12
1.68163e-12
1.78309e-12
1.87884e-12
1.96816e-12
2.05038e-12
2.12489e-12
2.1912e-12
2.24887e-12
2.29752e-12
2.33687e-12
2.36668e-12
2.38681e-12
2.39716e-12
2.39771e-12
2.38849e-12
2.36959e-12
2.34118e-12
2.30346e-12
2.25672e-12
2.20127e-12
2.13751e-12
2.06588e-12
1.98688e-12
1.90108e-12
1.80908e-12
1.71158e-12
1.60931e-12
1.50306e-12
1.39371e-12
1.28217e-12
1.16942e-12
1.05649e-12
9.44473e-13
8.34478e-13
7.27648e-13
6.2513e-13
5.28051e-13
4.37487e-13
3.54422e-13
2.79709e-13
2.14019e-13
1.5779e-13
1.1118e-13
7.40304e-14
4.58384e-14
2.57575e-14
1.26253e-14
5.02757e-15
1.40182e-15
1.82547e-16
1.06313e-18
1.25154e-18
2.14724e-16
1.64593e-15
5.88744e-15
1.47359e-14
2.99508e-14
5.30859e-14
8.53774e-14
1.27681e-13
1.80454e-13
2.43765e-13
3.17331e-13
4.00571e-13
4.92657e-13
5.9257e-13
6.99157e-13
8.11176e-13
9.27332e-13
1.04632e-12
1.16683e-12
1.2876e-12
1.40741e-12
1.52511e-12
1.63959e-12
1.74985e-12
1.85495e-12
1.95403e-12
2.04633e-12
2.13114e-12
2.20787e-12
2.276e-12
2.33507e-12
2.38471e-12
2.42465e-12
2.45464e-12
2.47455e-12
2.4843e-12
2.48388e-12
2.47333e-12
2.45277e-12
2.42238e-12
2.3824e-12
2.33311e-12
2.27488e-12
2.20811e-12
2.13327e-12
2.0509e-12
1.96157e-12
1.86594e-12
1.7647e-12
1.65864e-12
1.54857e-12
1.43538e-12
1.32003e-12
1.20352e-12
1.08692e-12
9.71338e-13
8.57918e-13
7.47832e-13
6.42254e-13
5.42335e-13
4.49174e-13
3.63772e-13
2.86998e-13
2.19529e-13
1.61804e-13
1.13976e-13
7.5872e-14
4.69671e-14
2.63859e-14
1.29308e-14
5.14837e-15
1.43532e-15
1.86895e-16
1.08841e-18
1.29993e-18
2.23022e-16
1.70948e-15
6.11448e-15
1.53036e-14
3.11034e-14
5.51271e-14
8.86578e-14
1.32583e-13
1.87376e-13
2.53106e-13
3.29475e-13
4.15873e-13
5.11434e-13
6.15092e-13
7.25639e-13
8.41773e-13
9.62141e-13
1.08537e-12
1.21011e-12
1.33502e-12
1.45884e-12
1.58035e-12
1.69843e-12
1.81201e-12
1.92013e-12
2.02191e-12
2.11655e-12
2.20335e-12
2.28169e-12
2.35104e-12
2.41096e-12
2.46107e-12
2.5011e-12
2.53084e-12
2.55014e-12
2.55896e-12
2.5573e-12
2.54523e-12
2.52288e-12
2.49046e-12
2.44822e-12
2.39648e-12
2.33562e-12
2.26608e-12
2.18835e-12
2.10297e-12
2.01056e-12
1.91179e-12
1.80738e-12
1.69812e-12
1.58486e-12
1.46852e-12
1.35005e-12
1.2305e-12
1.11093e-12
9.92498e-13
8.76351e-13
7.63684e-13
6.55688e-13
5.53533e-13
4.5833e-13
3.71095e-13
2.92705e-13
2.23842e-13
1.64946e-13
1.16165e-13
7.7313e-14
4.785e-14
2.68772e-14
1.31695e-14
5.24273e-15
1.46147e-15
1.90286e-16
1.10813e-18
1.34664e-18
2.31032e-16
1.77079e-15
6.33344e-15
1.58507e-14
3.22133e-14
5.70905e-14
9.18088e-14
1.37285e-13
1.94003e-13
2.62029e-13
3.41048e-13
4.30417e-13
5.29229e-13
6.36367e-13
7.50567e-13
8.70468e-13
9.94656e-13
1.1217e-12
1.25018e-12
1.37872e-12
1.50599e-12
1.63074e-12
1.7518e-12
1.86807e-12
1.97857e-12
2.08239e-12
2.17871e-12
2.26684e-12
2.34614e-12
2.4161e-12
2.47627e-12
2.52629e-12
2.5659e-12
2.59491e-12
2.61319e-12
2.62072e-12
2.61753e-12
2.60371e-12
2.57943e-12
2.5449e-12
2.50041e-12
2.4463e-12
2.38298e-12
2.31091e-12
2.23058e-12
2.14259e-12
2.04755e-12
1.94615e-12
1.83914e-12
1.72731e-12
1.61153e-12
1.49272e-12
1.37186e-12
1.25e-12
1.12823e-12
1.00768e-12
8.89533e-13
7.7499e-13
6.65249e-13
5.61488e-13
4.64826e-13
3.76286e-13
2.96747e-13
2.26896e-13
1.6717e-13
1.17713e-13
7.83323e-14
4.84742e-14
2.72243e-14
1.3338e-14
5.30926e-15
1.47989e-15
1.92672e-16
1.12199e-18
1.39182e-18
2.38776e-16
1.83006e-15
6.54502e-15
1.6379e-14
3.32842e-14
5.89828e-14
9.48416e-14
1.41802e-13
2.00357e-13
2.70565e-13
3.52089e-13
4.44252e-13
5.46098e-13
6.5646e-13
7.74014e-13
8.97336e-13
1.02495e-12
1.15537e-12
1.28712e-12
1.41876e-12
1.54892e-12
1.67631e-12
1.79971e-12
1.91802e-12
2.03022e-12
2.13539e-12
2.23271e-12
2.32148e-12
2.40107e-12
2.47098e-12
2.53076e-12
2.5801e-12
2.61874e-12
2.64651e-12
2.66332e-12
2.66919e-12
2.66416e-12
2.64836e-12
2.62196e-12
2.58524e-12
2.5385e-12
2.4821e-12
2.41648e-12
2.3421e-12
2.25951e-12
2.16929e-12
2.07209e-12
1.96859e-12
1.85956e-12
1.7458e-12
1.62818e-12
1.50763e-12
1.38514e-12
1.26173e-12
1.13852e-12
1.01663e-12
8.97241e-13
7.81555e-13
6.70769e-13
5.6606e-13
4.68546e-13
3.79251e-13
2.99052e-13
2.28634e-13
1.68435e-13
1.18593e-13
7.89108e-14
4.8828e-14
2.74207e-14
1.34332e-14
5.34672e-15
1.49023e-15
1.94009e-16
1.12975e-18
1.43564e-18
2.46287e-16
1.88752e-15
6.75005e-15
1.68906e-14
3.43205e-14
6.0812e-14
9.77691e-14
1.46155e-13
2.06467e-13
2.78753e-13
3.62647e-13
4.57434e-13
5.62109e-13
6.75446e-13
7.9606e-13
9.22463e-13
1.05312e-12
1.18647e-12
1.321e-12
1.4552e-12
1.58768e-12
1.71709e-12
1.84219e-12
1.96186e-12
2.07506e-12
2.18086e-12
2.27846e-12
2.36715e-12
2.44633e-12
2.51549e-12
2.57424e-12
2.62227e-12
2.65935e-12
2.68534e-12
2.70023e-12
2.70403e-12
2.69682e-12
2.67877e-12
2.65009e-12
2.61108e-12
2.56207e-12
2.50345e-12
2.43568e-12
2.35925e-12
2.27471e-12
2.18267e-12
2.08377e-12
1.97872e-12
1.86827e-12
1.75324e-12
1.63449e-12
1.51295e-12
1.38958e-12
1.26542e-12
1.14156e-12
1.01913e-12
8.99282e-13
7.83211e-13
6.72102e-13
5.67125e-13
4.69387e-13
3.79906e-13
2.99553e-13
2.29008e-13
1.68704e-13
1.18779e-13
7.90319e-14
4.89013e-14
2.74608e-14
1.34522e-14
5.35406e-15
1.49221e-15
1.94259e-16
1.13118e-18
1.47829e-18
2.53596e-16
1.94344e-15
6.94951e-15
1.73881e-14
3.53274e-14
6.25875e-14
1.00607e-13
1.50366e-13
2.12365e-13
2.86632e-13
3.72774e-13
4.70028e-13
5.77335e-13
6.93409e-13
8.16798e-13
9.45947e-13
1.07925e-12
1.21511e-12
1.35191e-12
1.48814e-12
1.62234e-12
1.75314e-12
1.87927e-12
1.9996e-12
2.11307e-12
2.21877e-12
2.3159e-12
2.40376e-12
2.48178e-12
2.54948e-12
2.6065e-12
2.65256e-12
2.68748e-12
2.71115e-12
2.72362e-12
2.72493e-12
2.71519e-12
2.69462e-12
2.66347e-12
2.62206e-12
2.57076e-12
2.50998e-12
2.44022e-12
2.36198e-12
2.27582e-12
2.18236e-12
2.08226e-12
1.97621e-12
1.86497e-12
1.74934e-12
1.63019e-12
1.5084e-12
1.38496e-12
1.26086e-12
1.13718e-12
1.01501e-12
8.95504e-13
7.79824e-13
6.69135e-13
5.64587e-13
4.67271e-13
3.78189e-13
2.98201e-13
2.27979e-13
1.6795e-13
1.18252e-13
7.86834e-14
4.86866e-14
2.73406e-14
1.33933e-14
5.33052e-15
1.48562e-15
1.93395e-16
1.12613e-18
1.51999e-18
2.60743e-16
1.99811e-15
7.14448e-15
1.78743e-14
3.63107e-14
6.43195e-14
1.03371e-13
1.5446e-13
2.18084e-13
2.9425e-13
3.82527e-13
4.82103e-13
5.91858e-13
7.10439e-13
8.36324e-13
9.67887e-13
1.10346e-12
1.24136e-12
1.37996e-12
1.51766e-12
1.65297e-12
1.78451e-12
1.91098e-12
2.03124e-12
2.14424e-12
2.24907e-12
2.34495e-12
2.43121e-12
2.50731e-12
2.5728e-12
2.62738e-12
2.67081e-12
2.70291e-12
2.72371e-12
2.73326e-12
2.73163e-12
2.719e-12
2.69562e-12
2.66179e-12
2.61788e-12
2.56427e-12
2.50143e-12
2.42984e-12
2.35004e-12
2.26261e-12
2.16815e-12
2.06733e-12
1.96084e-12
1.84944e-12
1.7339e-12
1.61506e-12
1.49382e-12
1.3711e-12
1.24788e-12
1.1252e-12
1.00413e-12
8.85779e-13
7.71281e-13
6.61768e-13
5.58361e-13
4.62126e-13
3.74041e-13
2.9495e-13
2.25512e-13
1.66148e-13
1.16994e-13
7.78535e-14
4.81769e-14
2.7056e-14
1.32545e-14
5.2754e-15
1.47026e-15
1.91393e-16
1.11446e-18
1.56098e-18
2.67768e-16
2.05184e-15
7.33611e-15
1.8352e-14
3.72764e-14
6.60191e-14
1.06079e-13
1.58464e-13
2.23661e-13
3.01653e-13
3.91966e-13
4.9373e-13
6.05759e-13
7.26626e-13
8.54734e-13
9.88384e-13
1.12583e-12
1.26534e-12
1.40522e-12
1.54383e-12
1.67964e-12
1.81125e-12
1.93735e-12
2.05679e-12
2.16855e-12
2.27172e-12
2.36555e-12
2.44941e-12
2.5228e-12
2.58533e-12
2.63673e-12
2.67682e-12
2.70546e-12
2.72282e-12
2.72891e-12
2.7239e-12
2.70803e-12
2.68158e-12
2.64489e-12
2.59838e-12
2.54246e-12
2.47762e-12
2.40438e-12
2.32327e-12
2.23489e-12
2.13986e-12
2.03882e-12
1.93247e-12
1.82154e-12
1.70678e-12
1.58902e-12
1.46909e-12
1.3479e-12
1.22639e-12
1.10555e-12
9.86417e-13
8.70046e-13
7.57527e-13
6.49954e-13
5.48407e-13
4.53918e-13
3.67435e-13
2.89778e-13
2.21591e-13
1.63286e-13
1.14997e-13
7.65368e-14
4.7369e-14
2.66056e-14
1.30351e-14
5.18841e-15
1.44606e-15
1.88246e-16
1.09613e-18
1.6015e-18
2.74713e-16
2.10497e-15
7.52559e-15
1.88243e-14
3.82308e-14
6.76974e-14
1.0875e-13
1.62404e-13
2.29134e-13
3.08891e-13
4.0115e-13
5.04979e-13
6.19117e-13
7.42057e-13
8.7212e-13
1.00753e-12
1.14647e-12
1.28713e-12
1.42777e-12
1.56671e-12
1.70239e-12
1.83338e-12
1.95839e-12
2.07625e-12
2.18596e-12
2.28666e-12
2.37762e-12
2.45827e-12
2.52815e-12
2.58693e-12
2.63442e-12
2.67043e-12
2.69503e-12
2.70835e-12
2.71048e-12
2.70167e-12
2.68219e-12
2.65239e-12
2.61266e-12
2.56345e-12
2.50522e-12
2.43847e-12
2.36374e-12
2.2816e-12
2.19264e-12
2.09747e-12
1.99673e-12
1.8911e-12
1.78128e-12
1.66801e-12
1.55205e-12
1.43422e-12
1.31538e-12
1.19641e-12
1.07825e-12
9.61883e-13
8.48311e-13
7.38568e-13
6.33697e-13
5.34726e-13
4.42648e-13
3.58371e-13
2.82685e-13
2.16215e-13
1.59362e-13
1.12261e-13
7.47336e-14
4.62631e-14
2.59894e-14
1.27352e-14
5.06963e-15
1.41306e-15
1.83956e-16
1.07116e-18
1.64179e-18
2.81619e-16
2.15782e-15
7.71413e-15
1.92943e-14
3.91803e-14
6.93658e-14
1.11401e-13
1.66306e-13
2.34538e-13
3.16009e-13
4.10137e-13
5.15917e-13
6.32007e-13
7.56811e-13
8.88564e-13
1.02541e-12
1.16544e-12
1.30679e-12
1.44767e-12
1.58635e-12
1.72125e-12
1.85092e-12
1.97408e-12
2.08958e-12
2.19643e-12
2.29383e-12
2.38109e-12
2.4577e-12
2.52326e-12
2.57752e-12
2.62032e-12
2.65156e-12
2.67152e-12
2.68022e-12
2.67789e-12
2.66484e-12
2.64142e-12
2.60802e-12
2.56509e-12
2.51311e-12
2.45258e-12
2.38403e-12
2.30803e-12
2.22514e-12
2.13596e-12
2.0411e-12
1.94118e-12
1.83686e-12
1.7288e-12
1.6177e-12
1.5043e-12
1.38936e-12
1.27366e-12
1.15805e-12
1.0434e-12
9.3062e-13
8.20655e-13
7.14473e-13
6.13054e-13
5.17367e-13
4.28354e-13
3.46878e-13
2.73695e-13
2.09402e-13
1.54391e-13
1.08795e-13
7.24497e-14
4.4863e-14
2.52097e-14
1.23559e-14
4.91953e-15
1.37139e-15
1.78541e-16
1.03965e-18
1.68208e-18
2.88528e-16
2.2107e-15
7.90287e-15
1.97649e-14
4.0131e-14
7.10349e-14
1.1405e-13
1.70196e-13
2.39907e-13
3.23051e-13
4.18977e-13
5.26603e-13
6.44492e-13
7.70955e-13
9.04131e-13
1.04207e-12
1.1828e-12
1.32437e-12
1.46494e-12
1.60275e-12
1.73621e-12
1.86385e-12
1.98439e-12
2.09672e-12
2.1999e-12
2.29315e-12
2.37587e-12
2.44761e-12
2.50805e-12
2.55701e-12
2.59433e-12
2.62024e-12
2.63487e-12
2.63841e-12
2.63116e-12
2.61348e-12
2.5858e-12
2.54858e-12
2.50231e-12
2.44752e-12
2.38475e-12
2.31455e-12
2.2375e-12
2.15417e-12
2.06516e-12
1.97107e-12
1.8725e-12
1.77007e-12
1.66441e-12
1.55619e-12
1.44608e-12
1.33477e-12
1.22301e-12
1.11156e-12
1.00122e-12
8.92825e-13
7.87252e-13
6.85392e-13
5.88153e-13
4.96434e-13
4.11121e-13
3.33024e-13
2.62857e-13
2.0119e-13
1.48399e-13
1.04618e-13
6.96979e-14