/*--------------------------------*- C++ -*----------------------------------*\
  =========                 |
  \\      /  F ield         | OpenFOAM: The Open Source CFD Toolbox
   \\    /   O peration     | Website:  https://openfoam.org
    \\  /    A nd           | Version:  12
     \\/     M anipulation  |
\*---------------------------------------------------------------------------*/
FoamFile
{
    format      ascii;
    class       surfaceScalarField;
    location    "6";
    object      phi;
}
// * * * * * * * * * * * * * * * * * * * * * * * * * * * * * * * * * * * * * //

dimensions      [0 3 -1 0 0 0 0];

internalField   nonuniform List<scalar> 
11100
(
-1.37309e-11
1.37363e-11
-3.00555e-11
1.63253e-11
-3.49664e-11
4.91193e-12
-2.13011e-11
-1.36645e-11
1.42835e-11
-3.55835e-11
7.28563e-11
-5.85723e-11
1.54068e-10
-8.12111e-11
2.56693e-10
-1.02625e-10
3.78986e-10
-1.22293e-10
5.18913e-10
-1.39927e-10
6.74299e-10
-1.55386e-10
8.42923e-10
-1.68624e-10
1.02258e-09
-1.79656e-10
1.21111e-09
-1.88535e-10
1.40645e-09
-1.95337e-10
1.6066e-09
-2.00154e-10
1.80968e-09
-2.03084e-10
2.01391e-09
-2.04232e-10
2.21761e-09
-2.03703e-10
2.41921e-09
-2.016e-10
2.61724e-09
-1.98026e-10
2.81032e-09
-1.93083e-10
2.99718e-09
-1.86868e-10
3.17665e-09
-1.79478e-10
3.34765e-09
-1.71004e-10
3.50919e-09
-1.61536e-10
3.66034e-09
-1.51161e-10
3.8003e-09
-1.39963e-10
3.92832e-09
-1.28023e-10
4.04374e-09
-1.15421e-10
4.14596e-09
-1.02233e-10
4.23449e-09
-8.85355e-11
4.30889e-09
-7.44009e-11
4.36879e-09
-5.9902e-11
4.41389e-09
-4.51102e-11
4.44398e-09
-3.0096e-11
4.45891e-09
-1.49297e-11
4.45858e-09
3.18484e-13
4.443e-09
1.55783e-11
4.41221e-09
3.0779e-11
4.36635e-09
4.5849e-11
4.30563e-09
6.07156e-11
4.23032e-09
7.53053e-11
4.14076e-09
8.95425e-11
4.03741e-09
1.03351e-10
3.92074e-09
1.16651e-10
3.79137e-09
1.29362e-10
3.64996e-09
1.41402e-10
3.49727e-09
1.52685e-10
3.33413e-09
1.63124e-10
3.16149e-09
1.72629e-10
2.98037e-09
1.81109e-10
2.79189e-09
1.88468e-10
2.59727e-09
1.94611e-10
2.39782e-09
1.99438e-10
2.19495e-09
2.02851e-10
1.99019e-09
2.04747e-10
1.78516e-09
2.05024e-10
1.58156e-09
2.03581e-10
1.38123e-09
2.00317e-10
1.18608e-09
1.95135e-10
9.98128e-10
1.87943e-10
8.19451e-10
1.78663e-10
6.5221e-10
1.67229e-10
4.98592e-10
1.53604e-10
3.60787e-10
1.37793e-10
2.40913e-10
1.19861e-10
1.40929e-10
9.99743e-11
6.24716e-11
7.84461e-11
6.63957e-12
5.58242e-11
-2.63791e-11
3.30108e-11
-3.78302e-11
1.14473e-11
-3.12393e-11
-6.59465e-12
-1.3958e-11
-1.72832e-11
-1.39582e-11
8.89072e-15
1.37273e-11
1.9887e-11
-3.55264e-12
7.44824e-11
-4.96831e-11
1.73032e-10
-1.12214e-10
3.20446e-10
-1.82997e-10
5.18471e-10
-2.56596e-10
7.66573e-10
-3.29312e-10
1.0626e-09
-3.98649e-10
1.40327e-09
-4.62961e-10
1.78455e-09
-5.21211e-10
2.20194e-09
-5.72779e-10
2.65067e-09
-6.17346e-10
3.12581e-09
-6.548e-10
3.62245e-09
-6.85174e-10
4.13572e-09
-7.08605e-10
4.66087e-09
-7.25298e-10
5.19329e-09
-7.35508e-10
5.72858e-09
-7.39521e-10
6.26252e-09
-7.37646e-10
6.79113e-09
-7.30201e-10
7.31061e-09
-7.17512e-10
7.81744e-09
-6.99906e-10
8.30828e-09
-6.77709e-10
8.78004e-09
-6.51243e-10
9.22987e-09
-6.20827e-10
9.65511e-09
-5.86772e-10
1.00533e-08
-5.49384e-10
1.04223e-08
-5.08961e-10
1.07601e-08
-4.65796e-10
1.10649e-08
-4.20174e-10
1.1335e-08
-3.72377e-10
1.15692e-08
-3.2268e-10
1.17661e-08
-2.71354e-10
1.19249e-08
-2.18667e-10
1.20446e-08
-1.64883e-10
1.21248e-08
-1.10265e-10
1.2165e-08
-5.50746e-11
1.21649e-08
4.25354e-13
1.21245e-08
5.59725e-11
1.20439e-08
1.11302e-10
1.19237e-08
1.66148e-10
1.17641e-08
2.20239e-10
1.15661e-08
2.733e-10
1.13306e-08
3.25054e-10
1.10588e-08
3.75215e-10
1.07519e-08
4.23493e-10
1.04117e-08
4.69593e-10
1.00399e-08
5.13213e-10
9.63853e-09
5.54045e-10
9.20988e-09
5.91774e-10
8.75643e-09
6.26081e-10
8.2809e-09
6.56641e-10
7.78624e-09
6.83124e-10
7.27566e-09
7.05199e-10
6.75256e-09
7.22531e-10
6.22063e-09
7.34788e-10
5.68374e-09
7.41639e-10
5.146e-09
7.42761e-10
4.61174e-09
7.37843e-10
4.08546e-09
7.26593e-10
3.57185e-09
7.08745e-10
3.07572e-09
6.84072e-10
2.60198e-09
6.52404e-10
2.15556e-09
6.13648e-10
1.74134e-09
5.6782e-10
1.36404e-09
5.1509e-10
1.02806e-09
4.55842e-10
7.37266e-10
3.90764e-10
4.94738e-10
3.20972e-10
3.02376e-10
2.48184e-10
1.60416e-10
1.74969e-10
6.67734e-11
1.05087e-10
1.61718e-11
4.4005e-11
-1.05575e-12
-5.71492e-14
-1.5015e-11
2.35604e-11
-9.83303e-12
1.02721e-10
-8.27134e-11
2.44615e-10
-1.91577e-10
4.54012e-10
-3.21611e-10
7.33281e-10
-4.62266e-10
1.08257e-09
-6.05884e-10
1.50014e-09
-7.46881e-10
1.98273e-09
-8.81236e-10
2.52589e-09
-1.00612e-09
3.12429e-09
-1.11961e-09
3.77198e-09
-1.22047e-09
4.46258e-09
-1.30794e-09
5.18947e-09
-1.38168e-09
5.94591e-09
-1.44162e-09
6.72518e-09
-1.48787e-09
7.52063e-09
-1.52075e-09
8.32577e-09
-1.54064e-09
9.13429e-09
-1.54804e-09
9.94014e-09
-1.54349e-09
1.07375e-08
-1.52758e-09
1.15209e-08
-1.50092e-09
1.22852e-08
-1.46413e-09
1.30253e-08
-1.41784e-09
1.37368e-08
-1.3627e-09
1.44153e-08
-1.29932e-09
1.50568e-08
-1.22835e-09
1.56579e-08
-1.1504e-09
1.6215e-08
-1.06607e-09
1.67252e-08
-9.75978e-10
1.71857e-08
-8.80706e-10
1.75942e-08
-7.80839e-10
1.79485e-08
-6.76952e-10
1.82467e-08
-5.69612e-10
1.84874e-08
-4.59382e-10
1.86694e-08
-3.46819e-10
1.87916e-08
-2.32479e-10
1.88535e-08
-1.16915e-10
1.88546e-08
-6.8217e-13
1.87949e-08
1.15664e-10
1.86747e-08
2.31561e-10
1.84944e-08
3.46446e-10
1.82549e-08
4.59745e-10
1.79573e-08
5.70878e-10
1.76031e-08
6.79257e-10
1.71941e-08
7.84283e-10
1.67322e-08
8.85348e-10
1.622e-08
9.81833e-10
1.56601e-08
1.07311e-09
1.50556e-08
1.15853e-09
1.441e-08
1.23746e-09
1.37268e-08
1.30923e-09
1.30103e-08
1.37319e-09
1.22648e-08
1.42867e-09
1.1495e-08
1.475e-09
1.0706e-08
1.51152e-09
9.90325e-09
1.53758e-09
9.09236e-09
1.55255e-09
8.27932e-09
1.55581e-09
7.47036e-09
1.54681e-09
6.67195e-09
1.52502e-09
5.8907e-09
1.49e-09
5.13339e-09
1.4414e-09
4.40682e-09
1.37899e-09
3.71777e-09
1.30272e-09
3.07284e-09
1.21276e-09
2.47835e-09
1.10959e-09
1.94015e-09
9.94054e-10
1.46339e-09
8.67537e-10
1.05227e-09
7.321e-10
7.09754e-10
5.9071e-10
4.37206e-10
4.47524e-10
2.3405e-10
3.08249e-10
9.74143e-11
1.80642e-10
2.2048e-11
7.53091e-11
7.03027e-12
4.73924e-11
-5.72249e-11
1.88042e-10
-2.23363e-10
4.21148e-10
-4.24683e-10
7.45735e-10
-6.46199e-10
1.15998e-09
-8.76511e-10
1.66096e-09
-1.10687e-09
2.24465e-09
-1.33057e-09
2.90597e-09
-1.54255e-09
3.63895e-09
-1.7391e-09
4.43689e-09
-1.91756e-09
5.29254e-09
-2.07612e-09
6.19824e-09
-2.21364e-09
7.14607e-09
-2.32952e-09
8.12801e-09
-2.42355e-09
9.13599e-09
-2.49585e-09
1.0162e-08
-2.54678e-09
1.11983e-08
-2.57688e-09
1.22371e-08
-2.58686e-09
1.32711e-08
-2.5775e-09
1.42932e-08
-2.54967e-09
1.52966e-08
-2.50432e-09
1.62749e-08
-2.4424e-09
1.72219e-08
-2.3649e-09
1.8132e-08
-2.27282e-09
1.89999e-08
-2.16718e-09
1.98205e-08
-2.04896e-09
2.05893e-08
-1.91918e-09
2.13021e-08
-1.77882e-09
2.19549e-08
-1.62885e-09
2.25445e-08
-1.47026e-09
2.30677e-08
-1.304e-09
2.35217e-08
-1.13102e-09
2.39044e-08
-9.52246e-10
2.42136e-08
-7.68625e-10
2.44479e-08
-5.8108e-10
2.4606e-08
-3.90537e-10
2.4687e-08
-1.97919e-10
2.46905e-08
-4.15279e-12
2.46163e-08
1.89831e-10
2.44648e-08
3.83096e-10
2.42365e-08
5.74695e-10
2.39326e-08
7.63673e-10
2.35544e-08
9.49061e-10
2.31038e-08
1.12988e-09
2.2583e-08
1.30512e-09
2.19946e-08
1.47379e-09
2.13416e-08
1.63484e-09
2.06275e-08
1.78725e-09
1.9856e-08
1.92996e-09
1.90316e-08
2.0619e-09
1.81589e-08
2.182e-09
1.72429e-08
2.28919e-09
1.62892e-08
2.38238e-09
1.53037e-08
2.46052e-09
1.42927e-08
2.52255e-09
1.32628e-08
2.56745e-09
1.22211e-08
2.59424e-09
1.1175e-08
2.60198e-09
1.0132e-08
2.58982e-09
9.10003e-09
2.557e-09
8.08717e-09
2.50289e-09
7.10156e-09
2.42702e-09
6.15141e-09
2.32915e-09
5.24486e-09
2.20929e-09
4.38986e-09
2.06778e-09
3.59405e-09
1.90542e-09
2.86459e-09
1.72353e-09
2.20802e-09
1.52412e-09
1.63008e-09
1.31006e-09
1.13551e-09
1.0853e-09
7.27935e-10
8.55107e-10
4.0978e-10
6.26411e-10
1.82277e-10
4.0815e-10
4.57017e-11
2.11886e-10
5.27298e-11
6.88332e-11
-1.26057e-10
2.66508e-10
-4.21038e-10
5.85726e-10
-7.43902e-10
1.02007e-09
-1.08054e-09
1.56327e-09
-1.41972e-09
2.20888e-09
-1.75248e-09
2.95e-09
-2.07169e-09
3.77926e-09
-2.37182e-09
4.68881e-09
-2.64865e-09
5.67034e-09
-2.89909e-09
6.71521e-09
-3.12099e-09
7.81451e-09
-3.31294e-09
8.95917e-09
-3.47418e-09
1.01401e-08
-3.60444e-09
1.13481e-08
-3.70386e-09
1.25742e-08
-3.77288e-09
1.38095e-08
-3.81224e-09
1.50455e-08
-3.82284e-09
1.62738e-08
-3.80576e-09
1.74863e-08
-3.76219e-09
1.86753e-08
-3.69338e-09
1.98336e-08
-3.60069e-09
2.09542e-08
-3.48549e-09
2.20306e-08
-3.34917e-09
2.30565e-08
-3.19316e-09
2.40265e-08
-3.01888e-09
2.4935e-08
-2.82776e-09
2.57774e-08
-2.6212e-09
2.65492e-08
-2.40062e-09
2.72463e-08
-2.1674e-09
2.78653e-08
-1.92294e-09
2.84028e-08
-1.6686e-09
2.88563e-08
-1.40576e-09
2.92235e-08
-1.13576e-09
2.95024e-08
-8.59969e-10
2.96915e-08
-5.79726e-10
2.979e-08
-2.96386e-10
2.97972e-08
-1.13059e-11
2.97128e-08
2.74151e-10
2.95373e-08
5.5861e-10
2.92713e-08
8.40684e-10
2.8916e-08
1.11897e-09
2.8473e-08
1.39205e-09
2.79444e-08
1.65848e-09
2.73327e-08
1.91681e-09
2.66409e-08
2.16555e-09
2.58726e-08
2.40321e-09
2.50315e-08
2.62827e-09
2.41223e-08
2.8392e-09
2.31497e-08
3.03445e-09
2.21192e-08
3.21249e-09
2.10367e-08
3.37175e-09
1.99083e-08
3.51071e-09
1.8741e-08
3.62783e-09
1.75419e-08
3.72164e-09
1.63187e-08
3.7907e-09
1.50793e-08
3.83362e-09
1.38321e-08
3.84912e-09
1.25859e-08
3.83604e-09
1.13496e-08
3.79334e-09
1.01323e-08
3.7202e-09
8.94329e-09
3.61601e-09
7.79199e-09
3.48046e-09
6.6877e-09
3.31359e-09
5.6396e-09
3.11589e-09
4.65665e-09
2.88837e-09
3.74749e-09
2.6327e-09
2.92029e-09
2.35133e-09
2.18268e-09
2.04767e-09
1.54174e-09
1.72624e-09
1.00392e-09
1.39293e-09
5.75149e-10
1.05518e-09
2.61031e-10
7.22271e-10
6.7193e-11
4.05726e-10
1.19924e-10
8.74698e-11
-2.13526e-10
3.35866e-10
-6.69434e-10
7.32863e-10
-1.1409e-09
1.26742e-09
-1.6151e-09
1.92923e-09
-2.08153e-09
2.70833e-09
-2.53157e-09
3.59487e-09
-2.95823e-09
4.57898e-09
-3.35593e-09
5.65072e-09
-3.72039e-09
6.80001e-09
-4.04839e-09
8.01671e-09
-4.33768e-09
9.29058e-09
-4.58682e-09
1.06114e-08
-4.79503e-09
1.19691e-08
-4.9621e-09
1.33535e-08
-5.08828e-09
1.47548e-08
-5.1742e-09
1.61634e-08
-5.2208e-09
1.75698e-08
-5.22927e-09
1.8965e-08
-5.20099e-09
2.03403e-08
-5.1375e-09
2.16874e-08
-5.04045e-09
2.29982e-08
-4.91156e-09
2.42654e-08
-4.75262e-09
2.54817e-08
-4.56549e-09
2.66405e-08
-4.352e-09
2.77356e-08
-4.11403e-09
2.87613e-08
-3.85346e-09
2.97122e-08
-3.57214e-09
3.05836e-08
-3.27196e-09
3.13709e-08
-2.95475e-09
3.20703e-08
-2.62236e-09
3.26783e-08
-2.27663e-09
3.31919e-08
-1.91936e-09
3.36085e-08
-1.55239e-09
3.3926e-08
-1.17752e-09
3.41429e-08
-7.96565e-10
3.42578e-08
-4.11342e-10
3.42701e-08
-2.36759e-11
3.41797e-08
3.64597e-10
3.39866e-08
7.51624e-10
3.36918e-08
1.13553e-09
3.32963e-08
1.51444e-09
3.28019e-08
1.88641e-09
3.22108e-08
2.24953e-09
3.15258e-08
2.6018e-09
3.07501e-08
2.94125e-09
2.98874e-08
3.26586e-09
2.8942e-08
3.57358e-09
2.79189e-08
3.86235e-09
2.68232e-08
4.13012e-09
2.56608e-08
4.3748e-09
2.44382e-08
4.59433e-09
2.31622e-08
4.78666e-09
2.18403e-08
4.94977e-09
2.04802e-08
5.08169e-09
1.90903e-08
5.18052e-09
1.76795e-08
5.24445e-09
1.62568e-08
5.27181e-09
1.48317e-08
5.26105e-09
1.34142e-08
5.21085e-09
1.20143e-08
5.12012e-09
1.06422e-08
4.98805e-09
9.30843e-09
4.8142e-09
8.02343e-09
4.59857e-09
6.79766e-09
4.34164e-09
5.64149e-09
4.04452e-09
4.56515e-09
3.70902e-09
3.57867e-09
3.3378e-09
2.69183e-09
2.93449e-09
1.91423e-09
2.50383e-09
1.2553e-09
2.05186e-09
7.24446e-10
1.58603e-09
3.31297e-10
1.11542e-09
8.60392e-11
6.50984e-10
2.05967e-10
1.03563e-10
-3.17089e-10
3.96432e-10
-9.62303e-10
8.62382e-10
-1.60685e-09
1.48658e-09
-2.2393e-09
2.25516e-09
-2.85011e-09
3.15497e-09
-3.43139e-09
4.17334e-09
-3.9766e-09
5.29792e-09
-4.48052e-09
6.51664e-09
-4.9391e-09
7.81758e-09
-5.34933e-09
9.18903e-09
-5.70913e-09
1.06194e-08
-6.01722e-09
1.20974e-08
-6.27301e-09
1.36118e-08
-6.4765e-09
1.51517e-08
-6.62818e-09
1.67065e-08
-6.72898e-09
1.82658e-08
-6.78014e-09
1.98197e-08
-6.78319e-09
2.13586e-08
-6.7399e-09
2.28733e-08
-6.65217e-09
2.43549e-08
-6.52209e-09
2.57952e-08
-6.35182e-09
2.71862e-08
-6.14359e-09
2.85204e-08
-5.89969e-09
2.97908e-08
-5.62245e-09
3.0991e-08
-5.3142e-09
3.21148e-08
-4.97728e-09
3.31567e-08
-4.61403e-09
3.41115e-08
-4.22679e-09
3.49746e-08
-3.81789e-09
3.57419e-08
-3.38964e-09
3.64096e-08
-2.94435e-09
3.69745e-08
-2.4843e-09
3.74339e-08
-2.0118e-09
3.77855e-08
-1.52913e-09
3.80275e-08
-1.03858e-09
3.81586e-08
-5.42464e-10
3.8178e-08
-4.30835e-11
3.80854e-08
4.57227e-10
3.78809e-08
9.56114e-10
3.75652e-08
1.4512e-09
3.71395e-08
1.94007e-09
3.66056e-08
2.42029e-09
3.59657e-08
2.88939e-09
3.52227e-08
3.34485e-09
3.43798e-08
3.78414e-09
3.34409e-08
4.20468e-09
3.24106e-08
4.60387e-09
3.12938e-08
4.9791e-09
3.00962e-08
5.32772e-09
2.88239e-08
5.64709e-09
2.74836e-08
5.9346e-09
2.60826e-08
6.18763e-09
2.46287e-08
6.40363e-09
2.31303e-08
6.58008e-09
2.15962e-08
6.71459e-09
2.00358e-08
6.80487e-09
1.84588e-08
6.84876e-09
1.68755e-08
6.84433e-09
1.52964e-08
6.78986e-09
1.37326e-08
6.68392e-09
1.21952e-08
6.52542e-09
1.06957e-08
6.3137e-09
9.2457e-09
6.04854e-09
7.857e-09
5.73031e-09
6.54147e-09
5.36002e-09
5.31104e-09
4.93943e-09
4.17768e-09
4.47114e-09
3.15342e-09
3.95874e-09
2.25038e-09
3.40686e-09
1.48085e-09
2.82137e-09
8.57465e-10
2.2094e-09
3.93362e-10
1.57952e-09
1.02487e-10
9.41857e-10
3.08458e-10
1.17521e-10
-4.3461e-10
4.49286e-10
-1.29407e-09
9.7593e-10
-2.13349e-09
1.67945e-09
-2.94281e-09
2.54294e-09
-3.7136e-09
3.55039e-09
-4.43883e-09
4.6865e-09
-5.11271e-09
5.93662e-09
-5.73064e-09
7.28659e-09
-6.28907e-09
8.72272e-09
-6.78546e-09
1.02317e-08
-7.21814e-09
1.18007e-08
-7.58622e-09
1.34172e-08
-7.8895e-09
1.50691e-08
-8.12837e-09
1.67447e-08
-8.30373e-09
1.84326e-08
-8.41688e-09
2.01219e-08
-8.4695e-09
2.18023e-08
-8.46357e-09
2.34637e-08
-8.40127e-09
2.50965e-08
-8.285e-09
2.66917e-08
-8.11728e-09
2.82407e-08
-7.90076e-09
2.97352e-08
-7.63815e-09
3.11677e-08
-7.33221e-09
3.25311e-08
-6.98576e-09
3.38185e-08
-6.60161e-09
3.50238e-08
-6.18258e-09
3.61413e-08
-5.7315e-09
3.71657e-08
-5.25118e-09
3.80922e-08
-4.74442e-09
3.89166e-08
-4.214e-09
3.96349e-08
-3.66271e-09
4.0244e-08
-3.09332e-09
4.07407e-08
-2.50859e-09
4.11229e-08
-1.91128e-09
4.13885e-08
-1.30418e-09
4.15361e-08
-6.90075e-10
4.15648e-08
-7.17624e-11
4.14741e-08
5.47924e-10
4.12641e-08
1.16612e-09
4.09354e-08
1.77994e-09
4.04891e-08
2.38643e-09
3.99268e-08
2.98262e-09
3.92507e-08
3.56549e-09
3.84636e-08
4.13197e-09
3.75688e-08
4.67895e-09
3.65702e-08
5.20328e-09
3.54723e-08
5.70176e-09
3.42802e-08
6.17118e-09
3.29997e-08
6.6083e-09
3.16369e-08
7.00989e-09
3.01988e-08
7.37272e-09
2.86928e-08
7.69357e-09
2.71272e-08
7.96929e-09
2.55105e-08
8.1968e-09
2.3852e-08
8.37312e-09
2.21614e-08
8.49541e-09
2.04492e-08
8.561e-09
1.87261e-08
8.56745e-09
1.70034e-08
8.51256e-09
1.52928e-08
8.39449e-09
1.36065e-08
8.21173e-09
1.19569e-08
7.96324e-09
1.0357e-08
7.6485e-09
8.81972e-09
7.26756e-09
7.35857e-09
6.82116e-09
5.9872e-09
6.31079e-09
4.71953e-09
5.7388e-09
3.5698e-09
5.10846e-09
2.55256e-09
4.42409e-09
1.68279e-09
3.69113e-09
9.75993e-10
2.91619e-09
4.48358e-10
2.10715e-09
1.16955e-10
1.27326e-09
4.25412e-10
1.29721e-10
-5.64331e-10
4.95559e-10
-1.6599e-09
1.07547e-09
-2.7134e-09
1.84872e-09
-3.71607e-09
2.79574e-09
-4.66061e-09
3.89795e-09
-5.54104e-09
5.13772e-09
-6.35247e-09
6.49821e-09
-7.09113e-09
7.96336e-09
-7.75421e-09
9.51778e-09
-8.33987e-09
1.11467e-08
-8.84707e-09
1.2836e-08
-9.27552e-09
1.45721e-08
-9.62562e-09
1.63421e-08
-9.89831e-09
1.81334e-08
-1.0095e-08
1.99342e-08
-1.02177e-08
2.17331e-08
-1.02684e-08
2.35193e-08
-1.02498e-08
2.52826e-08
-1.01645e-08
2.70131e-08
-1.00155e-08
2.87016e-08
-9.8058e-09
3.03395e-08
-9.53859e-09
3.19184e-08
-9.21709e-09
3.34308e-08
-8.84457e-09
3.48694e-08
-8.42434e-09
3.62275e-08
-7.9597e-09
3.74989e-08
-7.45396e-09
3.86779e-08
-6.91043e-09
3.97591e-08
-6.33238e-09
4.07378e-08
-5.72309e-09
4.16096e-08
-5.0858e-09
4.23706e-08
-4.42375e-09
4.30175e-08
-3.74017e-09
4.35472e-08
-3.03828e-09
4.39573e-08
-2.32133e-09
4.42457e-08
-1.59253e-09
4.44108e-08
-8.55162e-10
4.44516e-08
-1.12502e-10
4.43674e-08
6.32129e-10
4.41582e-08
1.37537e-09
4.38243e-08
2.11381e-09
4.33668e-08
2.84399e-09
4.27871e-08
3.5624e-09
4.20872e-08
4.26544e-09
4.12697e-08
4.9495e-09
4.03378e-08
5.61087e-09
3.92953e-08
6.2458e-09
3.81466e-08
6.8505e-09
3.68967e-08
7.42112e-09
3.55512e-08
7.95381e-09
3.41165e-08
8.44467e-09
3.25994e-08
8.88983e-09
3.10076e-08
9.28544e-09
2.93493e-08
9.62768e-09
2.76333e-08
9.91285e-09
2.58691e-08
1.01373e-08
2.4067e-08
1.02976e-08
2.22375e-08
1.03904e-08
2.03922e-08
1.04128e-08
1.8543e-08
1.03619e-08
1.67022e-08
1.02353e-08
1.48829e-08
1.0031e-08
1.30987e-08
9.7475e-09
1.13635e-08
9.38372e-09
9.69181e-09
8.93927e-09
8.09856e-09
8.41442e-09
6.59915e-09
7.81022e-09
5.20941e-09
7.12855e-09
3.9457e-09
6.37219e-09
2.82487e-09
5.54494e-09
1.86437e-09
4.65164e-09
1.08231e-09
3.69826e-09
4.97549e-10
2.6919e-09
1.29851e-10
1.64095e-09
5.55257e-10
1.40458e-10
-7.04788e-10
5.36164e-10
-2.05561e-09
1.16264e-09
-3.33988e-09
1.9967e-09
-4.55012e-09
3.01633e-09
-5.68025e-09
4.20069e-09
-6.7254e-09
5.52998e-09
-7.68176e-09
6.98542e-09
-8.54656e-09
8.54916e-09
-9.31795e-09
1.02043e-08
-9.99497e-09
1.19346e-08
-1.05774e-08
1.3725e-08
-1.10659e-08
1.55609e-08
-1.14615e-08
1.74284e-08
-1.17659e-08
1.93147e-08
-1.19813e-08
2.12072e-08
-1.21102e-08
2.30944e-08
-1.21556e-08
2.49651e-08
-1.21205e-08
2.6809e-08
-1.20084e-08
2.86161e-08
-1.18227e-08
3.03774e-08
-1.15671e-08
3.20841e-08
-1.12453e-08
3.37281e-08
-1.08611e-08
3.53018e-08
-1.04183e-08
3.67981e-08
-9.92065e-09
3.82105e-08
-9.37205e-09
3.95328e-08
-8.77625e-09
4.07593e-08
-8.13701e-09
4.18851e-08
-7.45807e-09
4.29051e-08
-6.74314e-09
4.38153e-08
-5.99592e-09
4.46116e-08
-5.22006e-09
4.52907e-08
-4.41923e-09
4.58495e-08
-3.59708e-09
4.62855e-08
-2.75728e-09
4.65965e-08
-1.90348e-09
4.67807e-08
-1.03941e-09
4.68371e-08
-1.68783e-10
4.67646e-08
7.04604e-10
4.65631e-08
1.57692e-09
4.62327e-08
2.44425e-09
4.57741e-08
3.30264e-09
4.51885e-08
4.14804e-09
4.44776e-08
4.97632e-09
4.36439e-08
5.78327e-09
4.26902e-08
6.56462e-09
4.162e-08
7.31601e-09
4.04375e-08
8.03301e-09
3.91476e-08
8.71114e-09
3.77555e-08
9.34587e-09
3.62676e-08
9.93263e-09
3.46906e-08
1.04669e-08
3.30321e-08
1.0944e-08
3.13003e-08
1.13596e-08
2.95041e-08
1.17091e-08
2.76532e-08
1.19882e-08
2.57581e-08
1.21928e-08
2.38298e-08
1.23188e-08
2.18801e-08
1.23625e-08
1.99215e-08
1.23205e-08
1.79672e-08
1.21896e-08
1.60311e-08
1.19672e-08
1.41276e-08
1.1651e-08
1.22719e-08
1.12394e-08
1.04799e-08
1.07313e-08
8.76792e-09
1.01264e-08
7.15305e-09
9.42512e-09
5.653e-09
8.62862e-09
4.28613e-09
7.73908e-09
3.07147e-09
6.75962e-09
2.02877e-09
5.69436e-09
1.17853e-09
4.54851e-09
5.42057e-10
3.32838e-09
1.41514e-10
2.0415e-09
6.96765e-10
1.49921e-10
-8.54708e-10
5.71688e-10
-2.47737e-09
1.23848e-09
-4.00666e-09
2.12476e-09
-5.4364e-09
3.20631e-09
-6.7618e-09
4.46014e-09
-7.97923e-09
5.8645e-09
-9.08612e-09
7.39881e-09
-1.00809e-08
9.04364e-09
-1.09628e-08
1.07807e-08
-1.1732e-08
1.25927e-08
-1.23894e-08
1.44633e-08
-1.29365e-08
1.63773e-08
-1.33755e-08
1.83203e-08
-1.37089e-08
2.02788e-08
-1.39397e-08
2.22401e-08
-1.40715e-08
2.41923e-08
-1.41078e-08
2.61244e-08
-1.40526e-08
2.80259e-08
-1.39099e-08
2.98872e-08
-1.36839e-08
3.16991e-08
-1.3379e-08
3.34532e-08
-1.29994e-08
3.51416e-08
-1.25495e-08
3.6757e-08
-1.20337e-08
3.82926e-08
-1.14562e-08
3.9742e-08
-1.08215e-08
4.10994e-08
-1.01336e-08
4.23594e-08
-9.39697e-09
4.35169e-08
-8.61561e-09
4.45674e-08
-7.79367e-09
4.55068e-08
-6.93525e-09
4.63311e-08
-6.04441e-09
4.70371e-08
-5.12517e-09
4.76216e-08
-4.18159e-09
4.8082e-08
-3.21769e-09
4.84161e-08
-2.23754e-09
4.86219e-08
-1.24524e-09
4.86981e-08
-2.44934e-10
4.86435e-08
7.59177e-10
4.84576e-08
1.76281e-09
4.81402e-08
2.76161e-09
4.76918e-08
3.75112e-09
4.7113e-08
4.7268e-09
4.64054e-08
5.68397e-09
4.55707e-08
6.61788e-09
4.46117e-08
7.52367e-09
4.35313e-08
8.39637e-09
4.23335e-08
9.2309e-09
4.10225e-08
1.00221e-08
3.96035e-08
1.07648e-08
3.80825e-08
1.14537e-08
3.64659e-08
1.20835e-08
3.47611e-08
1.26488e-08
3.29762e-08
1.31444e-08
3.11202e-08
1.35651e-08
2.92028e-08
1.39057e-08
2.72344e-08
1.41611e-08
2.52265e-08
1.43267e-08
2.31911e-08
1.43979e-08
2.11414e-08
1.43702e-08
1.90911e-08
1.42399e-08
1.70549e-08
1.40034e-08
1.50482e-08
1.36577e-08
1.30873e-08
1.32003e-08
1.11893e-08
1.26294e-08
9.37195e-09
1.19438e-08
7.65406e-09
1.1143e-08
6.05509e-09
1.02276e-08
4.59531e-09
9.19887e-09
3.29585e-09
8.05909e-09
2.17863e-09
6.81159e-09
1.2664e-09
5.46074e-09
5.82785e-10
4.01201e-09
1.52214e-10
2.47207e-09
8.48979e-10
1.58197e-10
-1.0129e-09
6.02357e-10
-2.92154e-09
1.30328e-09
-4.70759e-09
2.23317e-09
-6.36629e-09
3.36562e-09
-7.89426e-09
4.67568e-09
-9.28928e-09
6.13976e-09
-1.05502e-08
7.73569e-09
-1.16768e-08
9.44263e-09
-1.26697e-08
1.12411e-08
-1.35304e-08
1.31127e-08
-1.42611e-08
1.50406e-08
-1.48644e-08
1.70087e-08
-1.53436e-08
1.90023e-08
-1.57025e-08
2.10076e-08
-1.59451e-08
2.30119e-08
-1.60758e-08
2.50034e-08
-1.60992e-08
2.69709e-08
-1.60202e-08
2.89045e-08
-1.58434e-08
3.07946e-08
-1.5574e-08
3.26325e-08
-1.52169e-08
3.44103e-08
-1.47771e-08
3.61203e-08
-1.42596e-08
3.77559e-08
-1.36692e-08
3.93104e-08
-1.30108e-08
4.07781e-08
-1.22892e-08
4.21535e-08
-1.1509e-08
4.34314e-08
-1.06749e-08
4.46072e-08
-9.79146e-09
4.56766e-08
-8.86309e-09
4.66356e-08
-7.89425e-09
4.74805e-08
-6.88932e-09
4.82079e-08
-5.85266e-09
4.88149e-08
-4.78861e-09
4.92988e-08
-3.70155e-09
4.9657e-08
-2.59584e-09
4.98877e-08
-1.47593e-09
4.9989e-08
-3.46292e-10
4.99597e-08
7.88492e-10
4.97987e-08
1.92376e-09
4.95055e-08
3.05474e-09
4.90801e-08
4.17655e-09
4.85227e-08
5.28414e-09
4.78342e-08
6.37238e-09
4.70161e-08
7.43596e-09
4.60703e-08
8.46943e-09
4.49994e-08
9.46722e-09
4.38066e-08
1.04236e-08
4.2496e-08
1.13328e-08
4.1072e-08
1.21888e-08
3.954e-08
1.29856e-08
3.79064e-08
1.37171e-08
3.61781e-08
1.43771e-08
3.43628e-08
1.49596e-08
3.24695e-08
1.54584e-08
3.05076e-08
1.58675e-08
2.84878e-08
1.61809e-08
2.64214e-08
1.6393e-08
2.43211e-08
1.64982e-08
2.22001e-08
1.64912e-08
2.00728e-08
1.63672e-08
1.79546e-08
1.61216e-08
1.58617e-08
1.57505e-08
1.38117e-08
1.52504e-08
1.18226e-08
1.46185e-08
9.91377e-09
1.38525e-08
8.10547e-09
1.29513e-08
6.4189e-09
1.19142e-08
4.8762e-09
1.07415e-08
3.50051e-09
9.43478e-09
2.31585e-09
7.99625e-09
1.34719e-09
6.4294e-09
6.20388e-10
4.73882e-09
1.62149e-10
2.93031e-09
1.01113e-09
1.65266e-10
-1.17817e-09
6.28019e-10
-3.38429e-09
1.35658e-09
-5.43616e-09
2.32086e-09
-7.33057e-09
3.49234e-09
-9.06574e-09
4.84416e-09
-1.06411e-08
6.35108e-09
-1.20571e-08
7.98945e-09
-1.33152e-08
9.73723e-09
-1.44175e-08
1.15739e-08
-1.53671e-08
1.34804e-08
-1.61676e-08
1.54392e-08
-1.68232e-08
1.74341e-08
-1.73384e-08
1.94499e-08
-1.77184e-08
2.14731e-08
-1.79683e-08
2.34909e-08
-1.80937e-08
2.54918e-08
-1.81002e-08
2.74653e-08
-1.79936e-08
2.94015e-08
-1.77797e-08
3.12917e-08
-1.74642e-08
3.31276e-08
-1.70529e-08
3.4902e-08
-1.65515e-08
3.66079e-08
-1.59655e-08
3.82391e-08
-1.53004e-08
3.97898e-08
-1.45615e-08
4.12546e-08
-1.37541e-08
4.26287e-08
-1.28831e-08
4.39075e-08
-1.19537e-08
4.50866e-08
-1.09706e-08
4.61621e-08
-9.93863e-09
4.71303e-08
-8.86248e-09
4.79877e-08
-7.74677e-09
4.87311e-08
-6.5961e-09
4.93575e-08
-5.41505e-09
4.98642e-08
-4.2082e-09
5.02485e-08
-2.98018e-09
5.05082e-08
-1.73567e-09
5.06412e-08
-4.79413e-10
5.0646e-08
7.83718e-10
5.05209e-08
2.04875e-09
5.02651e-08
3.31056e-09
4.98777e-08
4.56387e-09
4.93586e-08
5.80323e-09
4.87079e-08
7.02302e-09
4.79264e-08
8.21745e-09
4.70152e-08
9.3805e-09
4.59764e-08
1.0506e-08
4.48124e-08
1.15876e-08
4.35264e-08
1.26187e-08
4.21224e-08
1.35927e-08
4.06052e-08
1.45027e-08
3.89803e-08
1.53419e-08
3.72543e-08
1.61031e-08
3.54345e-08
1.67793e-08
3.35293e-08
1.73635e-08
3.15482e-08
1.78486e-08
2.95015e-08
1.82276e-08
2.74008e-08
1.84937e-08
2.52585e-08
1.86404e-08
2.30884e-08
1.86613e-08
2.09053e-08
1.85502e-08
1.87251e-08
1.83017e-08
1.6565e-08
1.79105e-08
1.44433e-08
1.73721e-08
1.23793e-08
1.66824e-08
1.03937e-08
1.58381e-08
8.50821e-09
1.48367e-08
6.74572e-09
1.36766e-08
5.1302e-09
1.2357e-08
3.68675e-09
1.08782e-08
2.44151e-09
9.24147e-09
1.42164e-09
7.44925e-09
6.55278e-10
5.50517e-09
1.71445e-10
3.41415e-09
1.18258e-09
1.71006e-10
-1.34917e-09
6.48132e-10
-3.86142e-09
1.39708e-09
-6.18511e-09
2.3854e-09
-8.31888e-09
3.58249e-09
-1.02628e-08
4.95967e-09
-1.20183e-08
6.49014e-09
-1.35876e-08
8.14899e-09
-1.4974e-08
9.91317e-09
-1.61817e-08
1.17614e-08
-1.72154e-08
1.36741e-08
-1.80804e-08
1.56335e-08
-1.87826e-08
1.76232e-08
-1.93281e-08
1.96284e-08
-1.97236e-08
2.16357e-08
-1.99755e-08
2.36327e-08
-2.00907e-08
2.56087e-08
-2.00761e-08
2.75536e-08
-1.99385e-08
2.94585e-08
-1.96846e-08
3.13153e-08
-1.93211e-08
3.31169e-08
-1.88545e-08
3.48566e-08
-1.82912e-08
3.65286e-08
-1.76374e-08
3.81273e-08
-1.68991e-08
3.96479e-08
-1.60821e-08
4.10857e-08
-1.51919e-08
4.24366e-08
-1.4234e-08
4.36966e-08
-1.32137e-08
4.48621e-08
-1.2136e-08
4.59294e-08
-1.1006e-08
4.68952e-08
-9.82834e-09
4.77564e-08
-8.60796e-09
4.85098e-08
-7.34954e-09
4.91525e-08
-6.05778e-09
4.96817e-08
-4.73739e-09
5.00947e-08
-3.39312e-09
5.03888e-08
-2.0298e-09
5.05617e-08
-6.52337e-10
5.06112e-08
7.34202e-10
5.05353e-08
2.12461e-09
5.03324e-08
3.5135e-09
5.00009e-08
4.89529e-09
4.95399e-08
6.26418e-09
4.89488e-08
7.61412e-09
4.82274e-08
8.93885e-09
4.7376e-08
1.02318e-08
4.63957e-08
1.14863e-08
4.52879e-08
1.26953e-08
4.40551e-08
1.38515e-08
4.27003e-08
1.49475e-08
4.12274e-08
1.59756e-08
3.96413e-08
1.6928e-08
3.79476e-08
1.77967e-08
3.61531e-08
1.85737e-08
3.42658e-08
1.92508e-08
3.22945e-08
1.98198e-08
3.02494e-08
2.02727e-08
2.81417e-08
2.06014e-08
2.59841e-08
2.07981e-08
2.37903e-08
2.08551e-08
2.15754e-08
2.07651e-08
1.9356e-08
2.05211e-08
1.71498e-08
2.01167e-08
1.4976e-08
1.95459e-08
1.28551e-08
1.88033e-08
1.08089e-08
1.78843e-08
8.86057e-09
1.6785e-08
7.03469e-09
1.55025e-08
5.35703e-09
1.40347e-08
3.85466e-09
1.23806e-08
2.55585e-09
1.05403e-08
1.49e-09
8.51508e-09
6.87618e-10
6.30755e-09
1.80165e-10
3.9216e-09
1.36275e-09
1.75187e-10
-1.52436e-09
6.61752e-10
-4.34798e-09
1.42262e-09
-6.94597e-09
2.42289e-09
-9.31916e-09
3.62991e-09
-1.14699e-08
5.01324e-09
-1.34016e-08
6.5447e-09
-1.51191e-08
8.1983e-09
-1.66276e-08
9.95021e-09
-1.79336e-08
1.17787e-08
-1.90438e-08
1.3664e-08
-1.99657e-08
1.55883e-08
-2.07069e-08
1.75356e-08
-2.12754e-08
1.94914e-08
-2.16794e-08
2.14431e-08
-2.19272e-08
2.33793e-08
-2.20269e-08
2.52898e-08
-2.19867e-08
2.71659e-08
-2.18145e-08
2.89996e-08
-2.15183e-08
3.07842e-08
-2.11056e-08
3.25135e-08
-2.05838e-08
3.41822e-08
-1.99599e-08
3.57854e-08
-1.92407e-08
3.7319e-08
-1.84327e-08
3.8779e-08
-1.75421e-08
4.01619e-08
-1.65748e-08
4.14643e-08
-1.55365e-08
4.26832e-08
-1.44326e-08
4.38155e-08
-1.32683e-08
4.48582e-08
-1.20487e-08
4.58086e-08
-1.07787e-08
4.66637e-08
-9.46305e-09
4.74207e-08
-8.10647e-09
4.80766e-08
-6.71365e-09
4.86285e-08
-5.28929e-09
4.90735e-08
-3.83813e-09
4.94088e-08
-2.36502e-09
4.96314e-08
-8.74922e-10
4.97385e-08
6.27043e-10
4.97276e-08
2.13554e-09
4.95961e-08
3.64503e-09
4.93418e-08
5.14969e-09
4.89625e-08
6.64345e-09
4.84567e-08
8.11992e-09
4.78232e-08
9.57242e-09
4.70611e-08
1.09939e-08
4.61703e-08
1.23771e-08
4.51513e-08
1.37144e-08
4.40051e-08
1.49977e-08
4.27337e-08
1.62189e-08
4.13399e-08
1.73694e-08
3.98276e-08
1.84404e-08
3.82014e-08
1.94229e-08
3.64674e-08
2.03078e-08
3.46324e-08
2.10857e-08
3.2705e-08
2.17473e-08
3.06945e-08
2.22832e-08
2.8612e-08
2.26839e-08
2.64698e-08
2.29403e-08
2.42818e-08
2.30431e-08
2.20631e-08
2.29838e-08
1.98306e-08
2.27536e-08
1.76027e-08
2.23447e-08
1.53992e-08
2.17494e-08
1.32416e-08
2.09609e-08
1.11531e-08
1.99729e-08
9.15807e-09
1.87801e-08
7.28275e-09
1.73778e-08
5.55473e-09
1.57627e-08
4.00309e-09
1.39322e-08
2.65826e-09
1.18851e-08
1.55202e-09
9.62133e-09
7.17331e-10
7.14223e-09
1.883e-10
4.45062e-09
1.55105e-09
1.7747e-10
-1.70183e-09
6.67507e-10
-4.83802e-09
1.43008e-09
-7.70855e-09
2.42783e-09
-1.03169e-08
3.62602e-09
-1.26681e-08
4.99262e-09
-1.47682e-08
6.49821e-09
-1.66246e-08
8.11596e-09
-1.82454e-08
9.82157e-09
-1.96392e-08
1.15932e-08
-2.08154e-08
1.34111e-08
-2.17837e-08
1.52582e-08
-2.25539e-08
1.71188e-08
-2.31361e-08
1.89797e-08
-2.35403e-08
2.08292e-08
-2.37766e-08
2.2657e-08
-2.38547e-08
2.44545e-08
-2.37842e-08
2.62143e-08
-2.35744e-08
2.79302e-08
-2.32342e-08
2.95967e-08
-2.27721e-08
3.12093e-08
-2.21965e-08
3.27643e-08
-2.15149e-08
3.42584e-08
-2.07347e-08
3.56887e-08
-1.98629e-08
3.70527e-08
-1.8906e-08
3.83481e-08
-1.78701e-08
3.95727e-08
-1.67611e-08
4.07244e-08
-1.55843e-08
4.18012e-08
-1.4345e-08
4.28007e-08
-1.30482e-08
4.37206e-08
-1.16986e-08
4.45585e-08
-1.03009e-08
4.53118e-08
-8.8597e-09
4.59776e-08
-7.37938e-09
4.65528e-08
-5.86452e-09
4.70344e-08
-4.31969e-09
4.7419e-08
-2.7496e-09
4.77032e-08
-1.15909e-09
4.78836e-08
4.46766e-10
4.79565e-08
2.06267e-09
4.79185e-08
3.68303e-09
4.77663e-08
5.30192e-09
4.74967e-08
6.91309e-09
4.71068e-08
8.50989e-09
4.6594e-08
1.00853e-08
4.59561e-08
1.16319e-08
4.51916e-08
1.31417e-08
4.42994e-08
1.46067e-08
4.32792e-08
1.6018e-08
4.21316e-08
1.73666e-08
4.0858e-08
1.86431e-08
3.94608e-08
1.98377e-08
3.79436e-08
2.09402e-08
3.6311e-08
2.19404e-08
3.45692e-08
2.28276e-08
3.27254e-08
2.35912e-08
3.07886e-08
2.42201e-08
2.87689e-08
2.47037e-08
2.66783e-08
2.50309e-08
2.45304e-08
2.51911e-08
2.23405e-08
2.51738e-08
2.01254e-08
2.49687e-08
1.79041e-08
2.45661e-08
1.56969e-08
2.39566e-08
1.35263e-08
2.31315e-08
1.14165e-08
2.20828e-08
9.39329e-09
2.08033e-08
7.48451e-09
1.92866e-08
5.71958e-09
1.75277e-08
4.1296e-09
1.55222e-08
2.74731e-09
1.32674e-08
1.60693e-09
1.07617e-08
7.44114e-10
8.00506e-09
1.95779e-10
4.99896e-09
1.74682e-09
1.77393e-10
-1.87922e-09
6.63565e-10
-5.32419e-09
1.4154e-09
-8.46038e-09
2.39301e-09
-1.12945e-08
3.55971e-09
-1.38347e-08
4.88198e-09
-1.60905e-08
6.32942e-09
-1.80721e-08
7.87467e-09
-1.97906e-08
9.49332e-09
-2.12579e-08
1.11637e-08
-2.24858e-08
1.2867e-08
-2.34869e-08
1.45865e-08
-2.42734e-08
1.63082e-08
-2.48578e-08
1.80201e-08
-2.52522e-08