/*--------------------------------*- C++ -*----------------------------------*\
  =========                 |
  \\      /  F ield         | OpenFOAM: The Open Source CFD Toolbox
   \\    /   O peration     | Website:  https://openfoam.org
    \\  /    A nd           | Version:  12
     \\/     M anipulation  |
\*---------------------------------------------------------------------------*/
FoamFile
{
    format      ascii;
    class       volVectorField;
    location    "6";
    object      U;
}
// * * * * * * * * * * * * * * * * * * * * * * * * * * * * * * * * * * * * * //

dimensions      [0 1 -1 0 0 0 0];

internalField   nonuniform List<vector> 
5625
(
(-2.63227e-07 5.89575e-07 0)
(-9.12048e-07 8.91241e-07 0)
(-1.33967e-06 7.84321e-07 0)
(-1.21985e-06 5.07539e-07 0)
(-3.22113e-07 1.73903e-07 0)
(1.43735e-06 -1.67742e-07 0)
(4.06393e-06 -4.93254e-07 0)
(7.52281e-06 -7.90239e-07 0)
(1.17557e-05 -1.05325e-06 0)
(1.669e-05 -1.28085e-06 0)
(2.2246e-05 -1.47376e-06 0)
(2.83403e-05 -1.63375e-06 0)
(3.48896e-05 -1.76305e-06 0)
(4.18117e-05 -1.86404e-06 0)
(4.90272e-05 -1.93905e-06 0)
(5.64598e-05 -1.9903e-06 0)
(6.40369e-05 -2.01986e-06 0)
(7.16895e-05 -2.02964e-06 0)
(7.93528e-05 -2.02138e-06 0)
(8.69658e-05 -1.99668e-06 0)
(9.44715e-05 -1.957e-06 0)
(0.000101817 -1.90368e-06 0)
(0.000108952 -1.83796e-06 0)
(0.000115831 -1.76099e-06 0)
(0.000122412 -1.67382e-06 0)
(0.000128655 -1.57744e-06 0)
(0.000134526 -1.47275e-06 0)
(0.000139992 -1.36064e-06 0)
(0.000145023 -1.24189e-06 0)
(0.000149593 -1.11729e-06 0)
(0.000153679 -9.8755e-07 0)
(0.00015726 -8.53369e-07 0)
(0.000160318 -7.15412e-07 0)
(0.000162839 -5.74324e-07 0)
(0.00016481 -4.3073e-07 0)
(0.000166222 -2.85244e-07 0)
(0.000167067 -1.3847e-07 0)
(0.000167341 8.98978e-09 0)
(0.000167043 1.56523e-07 0)
(0.000166172 3.03542e-07 0)
(0.000164734 4.49425e-07 0)
(0.000162733 5.93538e-07 0)
(0.000160179 7.35238e-07 0)
(0.000157085 8.73858e-07 0)
(0.000153463 1.00871e-06 0)
(0.000149333 1.13907e-06 0)
(0.000144714 1.2642e-06 0)
(0.00013963 1.38331e-06 0)
(0.000134109 1.49557e-06 0)
(0.000128179 1.60011e-06 0)
(0.000121874 1.69601e-06 0)
(0.000115231 1.78231e-06 0)
(0.000108291 1.85796e-06 0)
(0.000101096 1.92188e-06 0)
(9.36949e-05 1.97288e-06 0)
(8.61382e-05 2.00972e-06 0)
(7.84812e-05 2.03103e-06 0)
(7.07825e-05 2.03537e-06 0)
(6.31048e-05 2.02117e-06 0)
(5.55146e-05 1.98673e-06 0)
(4.80819e-05 1.93023e-06 0)
(4.08806e-05 1.84969e-06 0)
(3.39876e-05 1.74302e-06 0)
(2.74827e-05 1.60807e-06 0)
(2.14476e-05 1.44266e-06 0)
(1.5965e-05 1.24483e-06 0)
(1.11163e-05 1.01314e-06 0)
(6.97912e-06 7.47258e-07 0)
(3.62239e-06 4.49074e-07 0)
(1.10001e-06 1.24587e-07 0)
(-5.58515e-07 -2.13253e-07 0)
(-1.36501e-06 -5.39869e-07 0)
(-1.41066e-06 -8.06223e-07 0)
(-9.33584e-07 -9.00307e-07 0)
(-2.63034e-07 -5.88268e-07 0)
(-1.02086e-07 1.38216e-06 0)
(1.02213e-07 1.45286e-06 0)
(1.40584e-06 -1.94549e-07 0)
(4.21654e-06 -2.79223e-06 0)
(8.79775e-06 -5.85718e-06 0)
(1.52689e-05 -9.08452e-06 0)
(2.3646e-05 -1.22787e-05 0)
(3.38731e-05 -1.53154e-05 0)
(4.58443e-05 -1.81182e-05 0)
(5.94199e-05 -2.06422e-05 0)
(7.44375e-05 -2.28639e-05 0)
(9.07215e-05 -2.47734e-05 0)
(0.000108089 -2.63701e-05 0)
(0.000126355 -2.76593e-05 0)
(0.000145335 -2.86502e-05 0)
(0.000164848 -2.93547e-05 0)
(0.000184719 -2.97858e-05 0)
(0.000204778 -2.99576e-05 0)
(0.000224864 -2.98848e-05 0)
(0.000244823 -2.95819e-05 0)
(0.000264508 -2.90635e-05 0)
(0.000283783 -2.8344e-05 0)
(0.000302519 -2.74376e-05 0)
(0.000320596 -2.63579e-05 0)
(0.000337901 -2.51185e-05 0)
(0.000354332 -2.37325e-05 0)
(0.000369793 -2.22123e-05 0)
(0.000384198 -2.05704e-05 0)
(0.000397468 -1.88188e-05 0)
(0.000409531 -1.69691e-05 0)
(0.000420324 -1.50326e-05 0)
(0.000429792 -1.30204e-05 0)
(0.000437885 -1.09435e-05 0)
(0.000444563 -8.8125e-06 0)
(0.000449793 -6.63804e-06 0)
(0.000453546 -4.43059e-06 0)
(0.000455805 -2.20055e-06 0)
(0.000456557 4.16549e-08 0)
(0.000455797 2.28559e-06 0)
(0.000453528 4.52074e-06 0)
(0.000449758 6.73651e-06 0)
(0.000444506 8.92211e-06 0)
(0.000437794 1.10666e-05 0)
(0.000429656 1.31589e-05 0)
(0.000420132 1.51875e-05 0)
(0.000409267 1.71409e-05 0)
(0.000397119 1.90072e-05 0)
(0.00038375 2.0774e-05 0)
(0.000369234 2.2429e-05 0)
(0.000353649 2.39592e-05 0)
(0.000337085 2.53515e-05 0)
(0.000319641 2.65925e-05 0)
(0.000301421 2.76685e-05 0)
(0.000282542 2.85654e-05 0)
(0.000263128 2.9269e-05 0)
(0.000243312 2.9765e-05 0)
(0.000223234 3.00389e-05 0)
(0.000203046 3.00762e-05 0)
(0.000182905 2.98626e-05 0)
(0.000162978 2.93842e-05 0)
(0.000143436 2.86279e-05 0)
(0.000124459 2.75817e-05 0)
(0.000106229 2.62354e-05 0)
(8.89306e-05 2.45817e-05 0)
(7.27498e-05 2.26173e-05 0)
(5.78672e-05 2.03456e-05 0)
(4.44555e-05 1.77792e-05 0)
(3.26718e-05 1.49451e-05 0)
(2.26494e-05 1.18914e-05 0)
(1.44856e-05 8.69837e-06 0)
(8.22585e-06 5.4936e-06 0)
(3.84237e-06 2.47527e-06 0)
(1.20149e-06 -5.08711e-08 0)
(2.29329e-08 -1.60489e-06 0)
(-1.10168e-07 -1.42976e-06 0)
(8.16814e-08 5.39643e-07 0)
(1.87046e-06 -2.14327e-06 0)
(5.90395e-06 -7.38484e-06 0)
(1.24539e-05 -1.41395e-05 0)
(2.16099e-05 -2.16737e-05 0)
(3.34048e-05 -2.94744e-05 0)
(4.7807e-05 -3.71803e-05 0)
(6.47209e-05 -4.45399e-05 0)
(8.39993e-05 -5.13823e-05 0)
(0.000105456 -5.75954e-05 0)
(0.000128878 -6.31097e-05 0)
(0.000154031 -6.78866e-05 0)
(0.000180671 -7.19095e-05 0)
(0.000208546 -7.51779e-05 0)
(0.000237402 -7.77028e-05 0)
(0.00026699 -7.95033e-05 0)
(0.00029706 -8.06044e-05 0)
(0.000327373 -8.10349e-05 0)
(0.000357698 -8.08263e-05 0)
(0.000387811 -8.00118e-05 0)
(0.000417501 -7.86258e-05 0)
(0.000446566 -7.67029e-05 0)
(0.000474817 -7.42779e-05 0)
(0.000502076 -7.13855e-05 0)
(0.000528176 -6.80599e-05 0)
(0.000552963 -6.43348e-05 0)
(0.000576294 -6.02434e-05 0)
(0.000598039 -5.58183e-05 0)
(0.000618077 -5.10913e-05 0)
(0.000636302 -4.60937e-05 0)
(0.000652617 -4.08564e-05 0)
(0.000666937 -3.54095e-05 0)
(0.000679188 -2.97829e-05 0)
(0.000689307 -2.4006e-05 0)
(0.000697242 -1.8108e-05 0)
(0.000702953 -1.21178e-05 0)
(0.000706409 -6.06433e-06 0)
(0.000707592 2.34687e-08 0)
(0.000706493 6.11663e-06 0)
(0.000703116 1.21859e-05 0)
(0.000697474 1.82019e-05 0)
(0.000689594 2.41348e-05 0)
(0.000679513 2.99543e-05 0)
(0.000667277 3.56296e-05 0)
(0.000652949 4.11296e-05 0)
(0.000636598 4.64222e-05 0)
(0.000618311 5.1475e-05 0)
(0.000598182 5.62549e-05 0)
(0.00057632 6.07283e-05 0)
(0.000552847 6.48606e-05 0)
(0.000527895 6.86172e-05 0)
(0.000501612 7.19627e-05 0)
(0.000474156 7.48614e-05 0)
(0.000445698 7.72774e-05 0)
(0.000416423 7.91749e-05 0)
(0.000386526 8.05182e-05 0)
(0.000356216 8.12723e-05 0)
(0.000325711 8.14033e-05 0)
(0.000295239 8.08788e-05 0)
(0.00026504 7.96687e-05 0)
(0.00023536 7.77466e-05 0)
(0.000206449 7.50904e-05 0)
(0.000178563 7.16848e-05 0)
(0.000151958 6.75234e-05 0)
(0.000126885 6.26121e-05 0)
(0.00010359 5.69733e-05 0)
(8.23008e-05 5.06525e-05 0)
(6.32267e-05 4.37266e-05 0)
(4.65455e-05 3.63152e-05 0)
(3.23943e-05 2.85971e-05 0)
(2.08562e-05 2.08311e-05 0)
(1.19477e-05 1.33849e-05 0)
(5.61798e-06 6.77588e-06 0)
(1.75546e-06 1.73798e-06 0)
(6.99263e-08 -6.88521e-07 0)
(2.5089e-07 -2.13261e-06 0)
(3.67193e-06 -1.04122e-05 0)
(1.05617e-05 -2.14767e-05 0)
(2.10205e-05 -3.42017e-05 0)
(3.49052e-05 -4.77401e-05 0)
(5.21018e-05 -6.14573e-05 0)
(7.24822e-05 -7.4878e-05 0)
(9.58777e-05 -8.7651e-05 0)
(0.00012208 -9.95233e-05 0)
(0.00015085 -0.000110318 0)
(0.000181925 -0.000119919 0)
(0.000215023 -0.000128252 0)
(0.000249851 -0.000135282 0)
(0.000286109 -0.000140996 0)
(0.000323495 -0.000145404 0)
(0.000361706 -0.00014853 0)
(0.000400446 -0.000150411 0)
(0.000439424 -0.000151089 0)
(0.000478357 -0.000150615 0)
(0.000516973 -0.000149043 0)
(0.000555013 -0.000146431 0)
(0.000592228 -0.000142837 0)
(0.000628383 -0.000138321 0)
(0.000663257 -0.000132945 0)
(0.000696642 -0.000126768 0)
(0.000728345 -0.000119851 0)
(0.000758188 -0.000112253 0)
(0.000786004 -0.000104035 0)
(0.000811643 -9.52524e-05 0)
(0.00083497 -8.59644e-05 0)
(0.00085586 -7.62271e-05 0)
(0.000874207 -6.60965e-05 0)
(0.000889915 -5.56279e-05 0)
(0.000902905 -4.48762e-05 0)
(0.000913109 -3.38959e-05 0)
(0.000920475 -2.27411e-05 0)
(0.000924964 -1.14661e-05 0)
(0.000926551 -1.25127e-07 0)
(0.000925225 1.12274e-05 0)
(0.000920989 2.25366e-05 0)
(0.000913861 3.37472e-05 0)
(0.000903871 4.48031e-05 0)
(0.000891067 5.56476e-05 0)
(0.000875509 6.62233e-05 0)
(0.000857272 7.64717e-05 0)
(0.000836447 8.63333e-05 0)
(0.00081314 9.57479e-05 0)
(0.000787472 0.000104654 0)
(0.000759581 0.00011299 0)
(0.000729617 0.000120692 0)
(0.000697749 0.000127698 0)
(0.000664161 0.000133942 0)
(0.000629051 0.000139362 0)
(0.000592634 0.000143893 0)
(0.000555139 0.000147472 0)
(0.000516808 0.000150036 0)
(0.0004779 0.000151527 0)
(0.000438683 0.000151887 0)
(0.00039944 0.000151063 0)
(0.000360461 0.000149008 0)
(0.000322045 0.000145681 0)
(0.000284497 0.000141052 0)
(0.000248125 0.000135103 0)
(0.000213237 0.000127833 0)
(0.000180135 0.000119262 0)
(0.000149113 0.000109438 0)
(0.00012045 9.84445e-05 0)
(9.44046e-05 8.64109e-05 0)
(7.12086e-05 7.35271e-05 0)
(5.10595e-05 6.00593e-05 0)
(3.41126e-05 4.63716e-05 0)
(2.04789e-05 3.29515e-05 0)
(1.02513e-05 2.04441e-05 0)
(3.54516e-06 9.70405e-06 0)
(2.37585e-07 1.85931e-06 0)
(3.92642e-07 -6.52928e-06 0)
(5.30484e-06 -2.3195e-05 0)
(1.48721e-05 -4.23186e-05 0)
(2.90428e-05 -6.28102e-05 0)
(4.74448e-05 -8.38075e-05 0)
(6.98024e-05 -0.000104633 0)
(9.58703e-05 -0.000124758 0)
(0.000125386 -0.000143773 0)
(0.000158064 -0.000161375 0)
(0.000193602 -0.000177341 0)
(0.000231679 -0.000191518 0)
(0.000271966 -0.000203808 0)
(0.000314126 -0.000214156 0)
(0.000357815 -0.000222543 0)
(0.000402692 -0.000228977 0)
(0.000448415 -0.000233487 0)
(0.000494648 -0.000236121 0)
(0.000541065 -0.000236937 0)
(0.000587347 -0.000236006 0)
(0.000633184 -0.000233404 0)
(0.000678284 -0.000229213 0)
(0.000722363 -0.000223518 0)
(0.000765155 -0.000216408 0)
(0.000806407 -0.000207973 0)
(0.00084588 -0.000198303 0)
(0.000883355 -0.000187488 0)
(0.000918624 -0.000175618 0)
(0.000951498 -0.000162783 0)
(0.000981802 -0.000149071 0)
(0.00100938 -0.000134571 0)
(0.00103409 -0.000119369 0)
(0.0010558 -0.000103552 0)
(0.00107441 -8.7206e-05 0)
(0.00108981 -7.0415e-05 0)
(0.00110194 -5.32641e-05 0)
(0.00111073 -3.58378e-05 0)
(0.00111613 -1.82206e-05 0)
(0.00111811 -4.97121e-07 0)
(0.00111667 1.72475e-05 0)
(0.00111179 3.49275e-05 0)
(0.0011035 5.24564e-05 0)
(0.00109184 6.97467e-05 0)
(0.00107685 8.67098e-05 0)
(0.00105861 0.000103256 0)
(0.00103721 0.000119294 0)
(0.00101274 0.000134732 0)
(0.000985325 0.000149475 0)
(0.00095511 0.00016343 0)
(0.000922249 0.0001765 0)
(0.000886917 0.000188588 0)
(0.000849307 0.000199598 0)
(0.000809631 0.000209431 0)
(0.000768115 0.000217991 0)
(0.000725006 0.000225181 0)
(0.000680567 0.000230908 0)
(0.000635075 0.000235079 0)
(0.000588824 0.000237606 0)
(0.000542122 0.000238408 0)
(0.000495289 0.00023741 0)
(0.000448656 0.000234544 0)
(0.000402564 0.000229757 0)
(0.000357359 0.000223009 0)
(0.000313391 0.000214281 0)
(0.000271012 0.000203575 0)
(0.00023057 0.000190925 0)
(0.000192405 0.000176401 0)
(0.00015685 0.000160118 0)
(0.000124219 0.000142248 0)
(9.48097e-05 0.000123032 0)
(6.88987e-05 0.000102795 0)
(4.67341e-05 8.1965e-05 0)
(2.85434e-05 6.10915e-05 0)
(1.4579e-05 4.08705e-05 0)
(5.18235e-06 2.21811e-05 0)
(3.79298e-07 6.12784e-06 0)
(5.10416e-07 -1.24327e-05 0)
(6.73123e-06 -4.00336e-05 0)
(1.86999e-05 -6.93357e-05 0)
(3.62432e-05 -9.93344e-05 0)
(5.8787e-05 -0.000129208 0)
(8.59027e-05 -0.000158288 0)
(0.000117225 -0.000186039 0)
(0.000152393 -0.000212036 0)
(0.000191034 -0.000235952 0)
(0.000232773 -0.000257547 0)
(0.00027723 -0.000276649 0)
(0.000324024 -0.000293147 0)
(0.000372771 -0.000306981 0)
(0.000423087 -0.000318129 0)
(0.000474594 -0.000326604 0)
(0.000526918 -0.000332445 0)
(0.000579692 -0.000335713 0)
(0.000632559 -0.000336486 0)
(0.000685173 -0.000334853 0)
(0.0007372 -0.000330918 0)
(0.000788321 -0.000324788 0)
(0.000838229 -0.000316578 0)
(0.000886634 -0.000306407 0)
(0.000933263 -0.000294394 0)
(0.000977857 -0.000280663 0)
(0.00102017 -0.000265337 0)
(0.00105999 -0.000248538 0)
(0.0010971 -0.00023039 0)
(0.00113131 -0.000211015 0)
(0.00116245 -0.000190533 0)
(0.00119036 -0.000169066 0)
(0.00121491 -0.000146733 0)
(0.00123596 -0.000123654 0)
(0.00125342 -9.99461e-05 0)
(0.00126721 -7.57284e-05 0)
(0.00127724 -5.11189e-05 0)
(0.00128347 -2.62359e-05 0)
(0.00128586 -1.19816e-06 0)
(0.00128439 2.3875e-05 0)
(0.00127907 4.8863e-05 0)
(0.00126992 7.36445e-05 0)
(0.00125696 9.80965e-05 0)
(0.00124025 0.000122095 0)
(0.00121988 0.000145513 0)
(0.00119592 0.000168223 0)
(0.0011685 0.000190096 0)
(0.00113775 0.000211001 0)
(0.0011038 0.000230804 0)
(0.00106685 0.000249373 0)
(0.00102706 0.000266573 0)
(0.000984668 0.000282269 0)
(0.000939889 0.000296325 0)
(0.000892973 0.000308609 0)
(0.00084419 0.000318988 0)
(0.000793826 0.000327333 0)
(0.000742185 0.000333521 0)
(0.000689588 0.000337433 0)
(0.000636371 0.000338957 0)
(0.000582886 0.000337995 0)
(0.000529494 0.000334459 0)
(0.000476571 0.000328277 0)
(0.000424499 0.000319399 0)
(0.000373667 0.000307798 0)
(0.000324467 0.000293478 0)
(0.000277293 0.000276477 0)
(0.000232535 0.000256878 0)
(0.00019058 0.000234817 0)
(0.000151809 0.000210488 0)
(0.000116594 0.000184161 0)
(8.5297e-05 0.000156191 0)
(5.82679e-05 0.000127032 0)
(3.58537e-05 9.72489e-05 0)
(1.84588e-05 6.75385e-05 0)
(6.62534e-06 3.87498e-05 0)
(4.97827e-07 1.19136e-05 0)
(6.09097e-07 -1.96349e-05 0)
(7.96669e-06 -6.04359e-05 0)
(2.20528e-05 -0.000101853 0)
(4.25993e-05 -0.000142982 0)
(6.88603e-05 -0.000183069 0)
(0.000100271 -0.000221491 0)
(0.000136354 -0.000257734 0)
(0.000176648 -0.000291388 0)
(0.000220697 -0.000322135 0)
(0.000268051 -0.000349736 0)
(0.000318268 -0.000374024 0)
(0.000370909 -0.000394893 0)
(0.000425547 -0.000412287 0)
(0.000481757 -0.000426196 0)
(0.000539126 -0.000436645 0)
(0.000597249 -0.000443689 0)
(0.000655734 -0.000447409 0)
(0.000714199 -0.000447905 0)
(0.000772277 -0.000445295 0)
(0.000829616 -0.000439705 0)
(0.000885877 -0.000431276 0)
(0.000940739 -0.000420151 0)
(0.000993896 -0.000406483 0)
(0.00104506 -0.000390424 0)
(0.00109396 -0.000372131 0)
(0.00114034 -0.000351762 0)
(0.00118397 -0.000329475 0)
(0.00122463 -0.000305426 0)
(0.00126211 -0.000279774 0)
(0.00129624 -0.000252675 0)
(0.00132685 -0.000224284 0)
(0.00135379 -0.000194757 0)
(0.00137693 -0.000164247 0)
(0.00139616 -0.00013291 0)
(0.00141138 -0.000100897 0)
(0.00142253 -6.83638e-05 0)
(0.00142953 -3.54639e-05 0)
(0.00143236 -2.35226e-06 0)
(0.00143099 3.0815e-05 0)
(0.00142541 6.38804e-05 0)
(0.00141565 9.6685e-05 0)
(0.00140173 0.000129068 0)
(0.00138372 0.000160866 0)
(0.00136169 0.000191914 0)
(0.00133573 0.000222045 0)
(0.00130596 0.000251089 0)
(0.00127251 0.000278875 0)
(0.00123555 0.000305229 0)
(0.00119524 0.000329976 0)
(0.00115179 0.000352941 0)
(0.00110542 0.000373948 0)
(0.00105637 0.000392822 0)
(0.0010049 0.000409388 0)
(0.000951293 0.000423476 0)
(0.000895857 0.000434919 0)
(0.000838912 0.000443557 0)
(0.0007808 0.000449237 0)
(0.000721879 0.000451816 0)
(0.000662527 0.000451167 0)
(0.000603132 0.000447175 0)
(0.0005441 0.000439749 0)
(0.000485845 0.00042882 0)
(0.000428795 0.000414347 0)
(0.000373382 0.000396325 0)
(0.000320046 0.000374791 0)
(0.00026923 0.000349825 0)
(0.000221381 0.000321566 0)
(0.000176948 0.000290217 0)
(0.00013638 0.000256051 0)
(0.000100129 0.000219426 0)
(6.86442e-05 0.000180794 0)
(4.23868e-05 0.000140706 0)
(2.18972e-05 9.98269e-05 0)
(7.88871e-06 5.8951e-05 0)
(5.97945e-07 1.90192e-05 0)
(6.93256e-07 -2.79586e-05 0)
(9.03983e-06 -8.39527e-05 0)
(2.49837e-05 -0.000139218 0)
(4.81808e-05 -0.000192955 0)
(7.77391e-05 -0.000244488 0)
(0.000112974 -0.000293255 0)
(0.000153305 -0.00033879 0)
(0.000198182 -0.000380721 0)
(0.000247064 -0.000418758 0)
(0.000299429 -0.000452688 0)
(0.000354773 -0.000482367 0)
(0.000412605 -0.000507708 0)
(0.000472449 -0.000528679 0)
(0.000533842 -0.000545291 0)
(0.000596339 -0.000557593 0)
(0.000659508 -0.000565666 0)
(0.000722932 -0.000569618 0)
(0.000786211 -0.000569578 0)
(0.00084896 -0.000565692 0)
(0.000910814 -0.000558122 0)
(0.000971422 -0.000547039 0)
(0.00103045 -0.000532621 0)
(0.00108759 -0.000515055 0)
(0.00114254 -0.000494528 0)
(0.00119503 -0.000471234 0)
(0.00124479 -0.000445364 0)
(0.00129159 -0.000417114 0)
(0.00133519 -0.000386675 0)
(0.0013754 -0.000354242 0)
(0.00141202 -0.000320006 0)
(0.00144489 -0.00028416 0)
(0.00147385 -0.000246893 0)
(0.00149877 -0.000208396 0)
(0.00151952 -0.000168858 0)
(0.00153602 -0.00012847 0)
(0.00154819 -8.74221e-05 0)
(0.00155595 -4.59043e-05 0)
(0.00155926 -4.10904e-06 0)
(0.0015581 3.777e-05 0)
(0.00155246 7.95373e-05 0)
(0.00154235 0.000120995 0)
(0.0015278 0.000161943 0)
(0.00150887 0.000202178 0)
(0.00148563 0.000241494 0)
(0.00145816 0.000279683 0)
(0.0014266 0.000316531 0)
(0.00139106 0.000351827 0)
(0.0013517 0.000385352 0)
(0.00130872 0.000416888 0)
(0.0012623 0.000446216 0)
(0.00121267 0.000473116 0)
(0.00116009 0.000497369 0)
(0.00110481 0.000518759 0)
(0.00104714 0.00053707 0)
(0.000987391 0.000552097 0)
(0.000925891 0.000563637 0)
(0.000863002 0.000571499 0)
(0.000799101 0.000575505 0)
(0.000734585 0.000575491 0)
(0.000669868 0.000571314 0)
(0.000605382 0.000562851 0)
(0.000541575 0.000550009 0)
(0.00047891 0.000532725 0)
(0.00041786 0.000510976 0)
(0.000358912 0.000484779 0)
(0.000302565 0.000454204 0)
(0.000249326 0.000419377 0)
(0.000199713 0.000380487 0)
(0.000154252 0.000337794 0)
(0.000113484 0.00029164 0)
(7.79513e-05 0.000242451 0)
(4.82197e-05 0.000190746 0)
(2.49501e-05 0.000137143 0)
(9.00191e-06 8.23692e-05 0)
(6.84231e-07 2.72783e-05 0)
(7.66551e-07 -3.72586e-05 0)
(9.97818e-06 -0.000110194 0)
(2.75509e-05 -0.000180843 0)
(5.30761e-05 -0.000248504 0)
(8.55348e-05 -0.000312588 0)
(0.000124136 -0.000372603 0)
(0.000168209 -0.000428148 0)
(0.000217117 -0.000478904 0)
(0.000270246 -0.000524629 0)
(0.000327004 -0.000565155 0)
(0.000386827 -0.000600376 0)
(0.000449174 -0.000630244 0)
(0.000513525 -0.000654763 0)
(0.000579383 -0.00067398 0)
(0.00064627 -0.000687978 0)
(0.000713731 -0.000696876 0)
(0.00078133 -0.000700816 0)
(0.00084865 -0.000699964 0)
(0.000915296 -0.000694504 0)
(0.000980893 -0.000684631 0)
(0.00104508 -0.000670556 0)
(0.00110753 -0.000652494 0)
(0.00116792 -0.000630668 0)
(0.00122595 -0.000605304 0)
(0.00128135 -0.00057663 0)
(0.00133385 -0.000544876 0)
(0.00138321 -0.000510273 0)
(0.0014292 -0.000473049 0)
(0.00147163 -0.000433434 0)
(0.0015103 -0.000391655 0)
(0.00154503 -0.000347939 0)
(0.00157568 -0.000302513 0)
(0.00160211 -0.0002556 0)
(0.0016242 -0.000207428 0)
(0.00164184 -0.000158221 0)
(0.00165495 -0.000108204 0)
(0.00166347 -5.76059e-05 0)
(0.00166734 -6.65432e-06 0)
(0.00166653 4.44194e-05 0)
(0.00166102 9.53817e-05 0)
(0.00165083 0.000145996 0)
(0.00163598 0.000196022 0)
(0.00161652 0.000245216 0)
(0.0015925 0.00029333 0)
(0.00156403 0.000340114 0)
(0.00153119 0.000385312 0)
(0.00149414 0.000428666 0)
(0.00145301 0.000469913 0)
(0.00140798 0.00050879 0)
(0.00135926 0.000545032 0)
(0.00130707 0.000578371 0)
(0.00125166 0.000608541 0)
(0.00119329 0.00063528 0)
(0.00113227 0.000658328 0)
(0.00106892 0.000677429 0)
(0.00100357 0.000692338 0)
(0.000936606 0.000702821 0)
(0.000868411 0.000708655 0)
(0.000799402 0.000709637 0)
(0.000730014 0.000705584 0)
(0.000660706 0.000696337 0)
(0.000591956 0.000681767 0)
(0.000524261 0.00066178 0)
(0.000458138 0.00063632 0)
(0.000394122 0.000605379 0)
(0.000332762 0.000568996 0)
(0.000274628 0.00052727 0)
(0.000220306 0.000480363 0)
(0.000170399 0.000428507 0)
(0.000125528 0.000372008 0)
(8.63281e-05 0.000311254 0)
(5.34569e-05 0.000246719 0)
(2.76834e-05 0.000178965 0)
(9.99487e-06 0.000108654 0)
(7.60421e-07 3.65575e-05 0)
(8.31636e-07 -4.74152e-05 0)
(1.08033e-05 -0.000138826 0)
(2.9802e-05 -0.000226202 0)
(5.73602e-05 -0.00030894 0)
(9.23448e-05 -0.000386537 0)
(0.00013387 -0.000458584 0)
(0.000181181 -0.000524753 0)
(0.000233565 -0.000584794 0)
(0.000290337 -0.000638529 0)
(0.000350846 -0.00068585 0)
(0.00041447 -0.000726706 0)
(0.000480624 -0.000761104 0)
(0.000548748 -0.000789097 0)
(0.000618313 -0.000810782 0)
(0.000688816 -0.000826291 0)
(0.000759781 -0.000835786 0)
(0.000830756 -0.000839456 0)
(0.000901317 -0.000837512 0)
(0.00097106 -0.00083018 0)
(0.00103961 -0.000817699 0)
(0.0011066 -0.000800319 0)
(0.0011717 -0.000778299 0)
(0.0012346 -0.000751899 0)
(0.001295 -0.000721384 0)
(0.00135263 -0.000687022 0)
(0.00140722 -0.00064908 0)
(0.00145855 -0.000607822 0)
(0.0015064 -0.000563516 0)
(0.00155055 -0.000516424 0)
(0.00159082 -0.000466808 0)
(0.00162705 -0.00041493 0)
(0.00165908 -0.000361049 0)
(0.00168678 -0.000305424 0)
(0.00171002 -0.000248314 0)
(0.00172869 -0.000189977 0)
(0.00174271 -0.000130675 0)
(0.00175201 -7.06679e-05 0)
(0.00175653 -1.02205e-05 0)
(0.00175624 5.04004e-05 0)
(0.0017511 0.000110924 0)
(0.00174112 0.000171076 0)
(0.00172632 0.000230578 0)
(0.00170673 0.000289144 0)
(0.0016824 0.000346487 0)
(0.00165342 0.000402312 0)
(0.00161987 0.00045632 0)
(0.00158189 0.000508206 0)
(0.00153961 0.000557664 0)
(0.0014932 0.000604381 0)
(0.00144286 0.000648043 0)
(0.0013888 0.000688333 0)
(0.00133127 0.000724938 0)
(0.00127053 0.00075754 0)
(0.00120688 0.000785831 0)
(0.00114064 0.000809506 0)
(0.00107216 0.000828267 0)
(0.00100183 0.000841829 0)
(0.000930028 0.000849922 0)
(0.000857202 0.000852293 0)
(0.000783801 0.000848712 0)
(0.000710308 0.000838973 0)
(0.000637229 0.000822903 0)
(0.000565097 0.000800365 0)
(0.000494469 0.000771259 0)
(0.000425923 0.000735535 0)
(0.000360066 0.000693194 0)
(0.000297525 0.000644291 0)
(0.000238951 0.000588948 0)
(0.000185022 0.000527352 0)
(0.000136437 0.000459764 0)
(9.39134e-05 0.000386525 0)
(5.81978e-05 0.000308053 0)
(3.01568e-05 0.000224853 0)
(1.0893e-05 0.00013752 0)
(8.29291e-07 4.67529e-05 0)
(8.90261e-07 -5.83275e-05 0)
(1.15293e-05 -0.00016955 0)
(3.17676e-05 -0.000274814 0)
(6.10797e-05 -0.000373611 0)
(9.82268e-05 -0.000465533 0)
(0.000142235 -0.000550256 0)
(0.000192274 -0.000627541 0)
(0.00024756 -0.000697218 0)
(0.000307346 -0.00075919 0)
(0.000370923 -0.00081342 0)
(0.000437624 -0.000859932 0)
(0.000506821 -0.0008988 0)
(0.000577922 -0.000930141 0)
(0.000650371 -0.000954115 0)
(0.000723647 -0.000970914 0)
(0.000797257 -0.000980758 0)
(0.000870744 -0.00098389 0)
(0.000943676 -0.000980572 0)
(0.00101565 -0.000971082 0)
(0.00108629 -0.000955708 0)
(0.00115524 -0.000934746 0)
(0.00122218 -0.000908498 0)
(0.0012868 -0.000877266 0)
(0.00134881 -0.000841358 0)
(0.00140796 -0.000801078 0)
(0.00146398 -0.00075673 0)
(0.00151666 -0.000708616 0)
(0.00156579 -0.000657037 0)
(0.00161116 -0.000602288 0)
(0.0016526 -0.000544664 0)
(0.00168995 -0.000484458 0)
(0.00172305 -0.000421961 0)
(0.00175178 -0.000357461 0)
(0.001776 -0.000291249 0)
(0.00179561 -0.000223614 0)
(0.00181053 -0.000154848 0)
(0.00182067 -8.52433e-05 0)
(0.00182597 -1.50972e-05 0)
(0.00182638 5.52901e-05 0)
(0.00182187 0.000125613 0)
(0.00181244 0.000195562 0)
(0.00179807 0.000264819 0)
(0.0017788 0.000333062 0)
(0.00175467 0.000399961 0)
(0.00172573 0.00046518 0)
(0.00169207 0.000528376 0)
(0.0016538 0.000589198 0)
(0.00161104 0.00064729 0)
(0.00156396 0.000702293 0)
(0.00151272 0.000753841 0)
(0.00145754 0.000801566 0)
(0.00139864 0.000845098 0)
(0.00133629 0.000884068 0)
(0.00127078 0.00091811 0)
(0.00120243 0.000946863 0)
(0.00113158 0.000969973 0)
(0.00105862 0.000987098 0)
(0.000983954 0.00099791 0)
(0.000908026 0.0010021 0)
(0.000831306 0.000999379 0)
(0.000754297 0.000989487 0)
(0.000677534 0.000972194 0)
(0.000601581 0.000947307 0)
(0.000527032 0.000914674 0)
(0.000454512 0.000874189 0)
(0.000384678 0.000825798 0)
(0.000318214 0.000769504 0)
(0.000255837 0.000705374 0)
(0.000198292 0.00063354 0)
(0.000146355 0.000554209 0)
(0.000100823 0.00046766 0)
(6.25243e-05 0.000374255 0)
(3.24185e-05 0.000274436 0)
(1.17166e-05 0.000168735 0)
(8.92966e-07 5.77835e-05 0)
(9.43382e-07 -6.99047e-05 0)
(1.21622e-05 -0.000202092 0)
(3.34588e-05 -0.000326221 0)
(6.42468e-05 -0.000441883 0)
(0.000103187 -0.00054877 0)
(0.000149222 -0.000646659 0)
(0.000201451 -0.000735406 0)
(0.000259027 -0.00081494 0)
(0.000321144 -0.000885255 0)
(0.000387047 -0.000946406 0)
(0.000456027 -0.000998503 0)
(0.000527422 -0.0010417 0)
(0.000600614 -0.0010762 0)
(0.00067503 -0.00110223 0)
(0.000750135 -0.00112006 0)
(0.000825431 -0.00112998 0)
(0.000900458 -0.00113229 0)
(0.000974788 -0.00112733 0)
(0.00104802 -0.00111541 0)
(0.0011198 -0.00109689 0)
(0.00118978 -0.00107211 0)
(0.00125765 -0.00104141 0)
(0.00132311 -0.00100516 0)
(0.00138591 -0.000963696 0)
(0.00144578 -0.00091736 0)
(0.0015025 -0.000866493 0)
(0.00155585 -0.000811433 0)
(0.00160565 -0.000752512 0)
(0.0016517 -0.000690056 0)
(0.00169384 -0.000624389 0)
(0.0017319 -0.000555832 0)
(0.00176576 -0.000484702 0)
(0.00179527 -0.000411316 0)
(0.00182032 -0.00033599 0)
(0.0018408 -0.00025904 0)
(0.00185661 -0.000180784 0)
(0.00186767 -0.000101544 0)
(0.0018739 -2.16436e-05 0)
(0.00187526 5.8586e-05 0)
(0.0018717 0.000138808 0)
(0.00186319 0.00021868 0)
(0.00184972 0.00029785 0)
(0.00183128 0.000375957 0)
(0.00180791 0.000452635 0)
(0.00177965 0.000527503 0)
(0.00174655 0.000600177 0)
(0.00170871 0.00067026 0)
(0.00166624 0.000737348 0)
(0.00161926 0.000801029 0)
(0.00156793 0.000860886 0)
(0.00151246 0.000916495 0)
(0.00145304 0.000967429 0)
(0.00138993 0.00101326 0)
(0.00132341 0.00105356 0)
(0.00125379 0.00108791 0)
(0.00118141 0.00111589 0)
(0.00110665 0.00113709 0)
(0.00102992 0.00115111 0)
(0.000951678 0.00115759 0)
(0.000872397 0.00115617 0)
(0.000792602 0.00114652 0)
(0.00071285 0.00112834 0)
(0.000633736 0.00110137 0)
(0.00055589 0.0010654 0)
(0.000479979 0.00102025 0)
(0.000406709 0.000965792 0)
(0.000336819 0.000901976 0)
(0.000271087 0.000828796 0)
(0.000210327 0.00074632 0)
(0.000155387 0.000654686 0)
(0.00010714 0.00055411 0)
(6.64957e-05 0.000444888 0)
(3.45038e-05 0.000327398 0)
(1.24802e-05 0.000202107 0)
(9.53073e-07 6.95859e-05 0)
(9.91253e-07 -8.20591e-05 0)
(1.27003e-05 -0.000236177 0)
(3.48657e-05 -0.000379955 0)
(6.68353e-05 -0.000513096 0)
(0.000107172 -0.000635403 0)
(0.00015474 -0.000746766 0)
(0.000208569 -0.000847155 0)
(0.000267756 -0.000936609 0)
(0.000331446 -0.00101523 0)
(0.00039884 -0.00108319 0)
(0.000469196 -0.00114068 0)
(0.00054183 -0.00118798 0)
(0.000616106 -0.00122536 0)
(0.000691441 -0.00125316 0)
(0.000767296 -0.00127172 0)
(0.000843178 -0.0012814 0)
(0.000918633 -0.0012826 0)
(0.000993247 -0.00127571 0)
(0.00106664 -0.00126112 0)
(0.00113846 -0.00123923 0)
(0.0012084 -0.00121044 0)
(0.00127616 -0.00117516 0)
(0.00134148 -0.00113378 0)
(0.00140411 -0.00108669 0)
(0.00146382 -0.00103427 0)
(0.00152041 -0.000976887 0)
(0.00157368 -0.000914922 0)
(0.00162346 -0.00084873 0)
(0.00166959 -0.000778666 0)
(0.0017119 -0.000705077 0)
(0.00175025 -0.000628308 0)
(0.00178451 -0.000548698 0)
(0.00181456 -0.000466584 0)
(0.00184027 -0.000382303 0)
(0.00186154 -0.000296193 0)
(0.00187827 -0.000208593 0)
(0.00189036 -0.000119846 0)
(0.00189774 -3.0301e-05 0)
(0.00190034 5.96872e-05 0)
(0.0018981 0.000149756 0)
(0.00189096 0.000239532 0)
(0.00187891 0.000328633 0)
(0.00186191 0.000416665 0)
(0.00183997 0.000503224 0)
(0.00181311 0.000587892 0)
(0.00178136 0.00067024 0)
(0.00174478 0.000749826 0)
(0.00170345 0.000826198 0)
(0.00165748 0.000898892 0)
(0.001607 0.000967435 0)
(0.00155218 0.00103135 0)
(0.00149321 0.00109014 0)
(0.00143031 0.00114332 0)
(0.00136375 0.00119039 0)
(0.00129383 0.00123086 0)
(0.00122087 0.00126425 0)
(0.00114524 0.00129007 0)
(0.00106737 0.00130786 0)
(0.000987685 0.00131715 0)
(0.000906694 0.00131753 0)
(0.000824927 0.00130858 0)
(0.000742961 0.00128992 0)
(0.000661415 0.00126123 0)
(0.000580954 0.00122219 0)
(0.000502285 0.00117255 0)
(0.000426157 0.00111212 0)
(0.000353365 0.00104075 0)
(0.000284746 0.00095836 0)
(0.000221179 0.000864944 0)
(0.000163584 0.000760564 0)
(0.00011291 0.00064536 0)
(7.0147e-05 0.000519555 0)
(3.64342e-05 0.000383459 0)
(1.31934e-05 0.000237474 0)
(1.01073e-06 8.21084e-05 0)
(1.03347e-06 -9.46973e-05 0)
(1.3134e-05 -0.000271509 0)
(3.59574e-05 -0.000435509 0)
(6.87791e-05 -0.000586527 0)
(0.000110066 -0.000724495 0)
(0.000158606 -0.000849434 0)
(0.000213366 -0.000961445 0)
(0.000273389 -0.0010607 0)
(0.000337778 -0.00114742 0)
(0.000405702 -0.00122191 0)
(0.000476395 -0.00128448 0)
(0.000549158 -0.00133552 0)
(0.000623349 -0.00137542 0)
(0.000698386 -0.00140461 0)
(0.000773739 -0.00142354 0)
(0.000848928 -0.00143266 0)
(0.00092352 -0.00143243 0)
(0.000997123 -0.00142334 0)
(0.00106939 -0.00140585 0)
(0.00113999 -0.00138041 0)
(0.00120865 -0.00134751 0)
(0.00127511 -0.00130757 0)
(0.00133913 -0.00126105 0)
(0.0014005 -0.00120838 0)
(0.00145904 -0.00114997 0)
(0.00151455 -0.00108622 0)
(0.00156687 -0.00101755 0)
(0.00161586 -0.000944325 0)
(0.00166138 -0.000866926 0)
(0.00170327 -0.00078572 0)
(0.00174142 -0.000701067 0)
(0.00177571 -0.000613321 0)
(0.00180601 -0.000522834 0)
(0.00183222 -0.000429956 0)
(0.00185422 -0.000335039 0)
(0.00187191 -0.000238435 0)
(0.00188519 -0.000140505 0)
(0.00189396 -4.16116e-05 0)
(0.00189815 5.78702e-05 0)
(0.00189768 0.000157557 0)
(0.00189246 0.000257052 0)
(0.00188246 0.000355948 0)
(0.00186761 0.00045382 0)
(0.00184788 0.000550231 0)
(0.00182327 0.000644727 0)
(0.00179378 0.000736838 0)
(0.00175942 0.000826077 0)
(0.00172025 0.000911943 0)
(0.00167634 0.00099392 0)
(0.00162779 0.00107148 0)
(0.00157473 0.00114407 0)
(0.00151732 0.00121115 0)
(0.00145577 0.00127216 0)
(0.0013903 0.00132652 0)
(0.00132118 0.00137367 0)
(0.00124875 0.00141305 0)
(0.00117334 0.00144408 0)
(0.00109536 0.00146622 0)
(0.00101526 0.00147893 0)
(0.000933536 0.00148168 0)
(0.000850726 0.00147398 0)
(0.000767424 0.00145536 0)
(0.000684271 0.00142538 0)
(0.000601961 0.00138366 0)
(0.000521236 0.00132984 0)
(0.00044289 0.00126363 0)
(0.000367769 0.0011848 0)
(0.000296768 0.00109317 0)
(0.00023083 0.000988646 0)
(0.000170946 0.000871203 0)
(0.000118141 0.000740896 0)
(7.34881e-05 0.000597869 0)
(3.82179e-05 0.000442355 0)
(1.38604e-05 0.000274686 0)
(1.06661e-06 9.53063e-05 0)
(1.06901e-06 -0.000107713 0)