/*--------------------------------*- C++ -*----------------------------------*\
  =========                 |
  \\      /  F ield         | OpenFOAM: The Open Source CFD Toolbox
   \\    /   O peration     | Website:  https://openfoam.org
    \\  /    A nd           | Version:  12
     \\/     M anipulation  |
\*---------------------------------------------------------------------------*/
FoamFile
{
    format      ascii;
    class       volScalarField;
    location    "9.5";
    object      epsilon;
}
// * * * * * * * * * * * * * * * * * * * * * * * * * * * * * * * * * * * * * //

dimensions      [0 2 -3 0 0 0 0];

internalField   nonuniform List<scalar> 
5625
(
9.99201e-13
2.498e-13
2.498e-13
2.498e-13
2.498e-13
2.498e-13
2.498e-13
2.498e-13
2.498e-13
2.498e-13
2.498e-13
2.498e-13
2.498e-13
2.498e-13
2.498e-13
2.498e-13
2.498e-13
2.498e-13
2.498e-13
2.498e-13
2.498e-13
2.498e-13
2.498e-13
2.498e-13
2.498e-13
2.498e-13
2.498e-13
2.498e-13
2.498e-13
2.498e-13
2.498e-13
2.498e-13
2.498e-13
2.498e-13
2.498e-13
2.498e-13
2.498e-13
2.498e-13
2.498e-13
2.498e-13
2.498e-13
2.498e-13
2.498e-13
2.498e-13
2.498e-13
2.498e-13
2.498e-13
2.498e-13
2.498e-13
2.498e-13
2.498e-13
2.498e-13
2.498e-13
2.498e-13
2.498e-13
2.498e-13
2.498e-13
2.498e-13
2.498e-13
2.498e-13
2.498e-13
2.498e-13
2.498e-13
2.498e-13
2.498e-13
2.498e-13
2.498e-13
2.498e-13
2.498e-13
2.498e-13
2.498e-13
2.498e-13
2.498e-13
2.498e-13
9.99201e-13
9.99201e-13
2.10202e-13
9.11539e-14
6.32721e-14
5.55176e-14
5.31467e-14
5.23593e-14
5.20739e-14
5.19605e-14
5.19111e-14
5.18878e-14
5.1876e-14
5.18697e-14
5.18661e-14
5.1864e-14
5.18627e-14
5.18619e-14
5.18613e-14
5.1861e-14
5.18608e-14
5.18606e-14
5.18605e-14
5.18605e-14
5.18604e-14
5.18604e-14
5.18604e-14
5.18605e-14
5.18605e-14
5.18605e-14
5.18606e-14
5.18606e-14
5.18606e-14
5.18607e-14
5.18607e-14
5.18608e-14
5.18608e-14
5.18609e-14
5.1861e-14
5.18611e-14
5.18612e-14
5.18613e-14
5.18614e-14
5.18615e-14
5.18616e-14
5.18617e-14
5.18618e-14
5.18619e-14
5.1862e-14
5.18621e-14
5.18622e-14
5.18622e-14
5.18623e-14
5.18624e-14
5.18626e-14
5.18627e-14
5.18629e-14
5.18631e-14
5.18635e-14
5.1864e-14
5.18648e-14
5.1866e-14
5.1868e-14
5.18715e-14
5.18778e-14
5.18894e-14
5.19125e-14
5.19617e-14
5.20749e-14
5.23601e-14
5.31472e-14
5.55179e-14
6.32721e-14
9.11539e-14
2.10202e-13
9.99201e-13
9.99201e-13
2.07698e-13
7.87575e-14
4.23975e-14
2.92243e-14
2.38409e-14
2.14852e-14
2.04018e-14
1.98811e-14
1.96199e-14
1.94832e-14
1.94088e-14
1.93666e-14
1.93418e-14
1.93268e-14
1.93175e-14
1.93115e-14
1.93075e-14
1.93049e-14
1.93031e-14
1.93019e-14
1.93011e-14
1.93005e-14
1.93002e-14
1.92999e-14
1.92998e-14
1.92997e-14
1.92996e-14
1.92996e-14
1.92997e-14
1.92997e-14
1.92998e-14
1.92999e-14
1.92999e-14
1.93e-14
1.93001e-14
1.93002e-14
1.93003e-14
1.93004e-14
1.93005e-14
1.93007e-14
1.93008e-14
1.93009e-14
1.9301e-14
1.93012e-14
1.93013e-14
1.93014e-14
1.93016e-14
1.93018e-14
1.9302e-14
1.93023e-14
1.93027e-14
1.93031e-14
1.93038e-14
1.93047e-14
1.93059e-14
1.93077e-14
1.93103e-14
1.93142e-14
1.93202e-14
1.93294e-14
1.93443e-14
1.93689e-14
1.94109e-14
1.94851e-14
1.96215e-14
1.98824e-14
2.04027e-14
2.14857e-14
2.38411e-14
2.92241e-14
4.23972e-14
7.87572e-14
2.07697e-13
9.99201e-13
9.99201e-13
2.07478e-13
7.74397e-14
3.93048e-14
2.4286e-14
1.73742e-14
1.39069e-14
1.20741e-14
1.10693e-14
1.05021e-14
1.01733e-14
9.97796e-15
9.85909e-15
9.78508e-15
9.73798e-15
9.70739e-15
9.68715e-15
9.67354e-15
9.66426e-15
9.65784e-15
9.65337e-15
9.65024e-15
9.64804e-15
9.6465e-15
9.64543e-15
9.6447e-15
9.64421e-15
9.64391e-15
9.64373e-15
9.64364e-15
9.64363e-15
9.64366e-15
9.64373e-15
9.64381e-15
9.64391e-15
9.64402e-15
9.64413e-15
9.64425e-15
9.64437e-15
9.64449e-15
9.64461e-15
9.64474e-15
9.64488e-15
9.64504e-15
9.64522e-15
9.64544e-15
9.64572e-15
9.64608e-15
9.64657e-15
9.64722e-15
9.64809e-15
9.64929e-15
9.65094e-15
9.65323e-15
9.65643e-15
9.66093e-15
9.66735e-15
9.67661e-15
9.69016e-15
9.71029e-15
9.74072e-15
9.78762e-15
9.86139e-15
9.97995e-15
1.01749e-14
1.05033e-14
1.10701e-14
1.20744e-14
1.39067e-14
1.73736e-14
2.42852e-14
3.9304e-14
7.7439e-14
2.07478e-13
9.99201e-13
9.99201e-13
2.07451e-13
7.72484e-14
3.87378e-14
2.31845e-14
1.56901e-14
1.16827e-14
9.39885e-15
8.04248e-15
7.21327e-15
6.69488e-15
6.36465e-15
6.1507e-15
6.00989e-15
5.91584e-15
5.85215e-15
5.80846e-15
5.77815e-15
5.7569e-15
5.74188e-15
5.7312e-15
5.72356e-15
5.7181e-15
5.7142e-15
5.71143e-15
5.70948e-15
5.70813e-15
5.70722e-15
5.70663e-15
5.70627e-15
5.70608e-15
5.706e-15
5.706e-15
5.70605e-15
5.70614e-15
5.70623e-15
5.70633e-15
5.70643e-15
5.70652e-15
5.70662e-15
5.70672e-15
5.70683e-15
5.70697e-15
5.70715e-15
5.70741e-15
5.70778e-15
5.70831e-15
5.70906e-15
5.71013e-15
5.71162e-15
5.7137e-15
5.71658e-15
5.72058e-15
5.72611e-15
5.73378e-15
5.74448e-15
5.75948e-15
5.78067e-15
5.81087e-15
5.8544e-15
5.91788e-15
6.01165e-15
6.15213e-15
6.36568e-15
6.69546e-15
7.21337e-15
8.04209e-15
9.398e-15
1.16815e-14
1.56887e-14
2.3183e-14
3.87364e-14
7.72473e-14
2.0745e-13
9.99201e-13
9.99201e-13
2.07446e-13
7.72107e-14
3.86088e-14
2.28971e-14
1.51937e-14
1.09553e-14
8.44485e-15
6.8839e-15
5.88061e-15
5.22024e-15
4.77766e-15
4.47665e-15
4.26937e-15
4.12506e-15
4.02358e-15
3.9516e-15
3.90015e-15
3.86312e-15
3.83634e-15
3.8169e-15
3.80276e-15
3.79248e-15
3.78503e-15
3.77965e-15
3.77582e-15
3.77312e-15
3.77125e-15
3.77e-15
3.76919e-15
3.76871e-15
3.76844e-15
3.76832e-15
3.76829e-15
3.76832e-15
3.76836e-15
3.76841e-15
3.76844e-15
3.76847e-15
3.76848e-15
3.7685e-15
3.76854e-15
3.76863e-15
3.76882e-15
3.76916e-15
3.76972e-15
3.7706e-15
3.77193e-15
3.77386e-15
3.77664e-15
3.78054e-15
3.78597e-15
3.79347e-15
3.80378e-15
3.81793e-15
3.83736e-15
3.8641e-15
3.90104e-15
3.95238e-15
4.02419e-15
4.12544e-15
4.26948e-15
4.47643e-15
4.77706e-15
5.21924e-15
5.87921e-15
6.88212e-15
8.44278e-15
1.0953e-14
1.51914e-14
2.28949e-14
3.8607e-14
7.72093e-14
2.07445e-13
9.99201e-13
9.99201e-13
2.07444e-13
7.72011e-14
3.85731e-14
2.28098e-14
1.50292e-14
1.0694e-14
8.07657e-15
6.40744e-15
5.30188e-15
4.54959e-15
4.02747e-15
3.65965e-15
3.39748e-15
3.20884e-15
3.07204e-15
2.97219e-15
2.89894e-15
2.84499e-15
2.80515e-15
2.77569e-15
2.75393e-15
2.73788e-15
2.7261e-15
2.71752e-15
2.71133e-15
2.70694e-15
2.70387e-15
2.70179e-15
2.70043e-15
2.69957e-15
2.69907e-15
2.69881e-15
2.69868e-15
2.69862e-15
2.69859e-15
2.69854e-15
2.69847e-15
2.69836e-15
2.69823e-15
2.69809e-15
2.69798e-15
2.69796e-15
2.69808e-15
2.69845e-15
2.69919e-15
2.70045e-15
2.70244e-15
2.70544e-15
2.70977e-15
2.71591e-15
2.72446e-15
2.73621e-15
2.75224e-15
2.77399e-15
2.80343e-15
2.84324e-15
2.89714e-15
2.97031e-15
3.07006e-15
3.20673e-15
3.39521e-15
3.65719e-15
4.0248e-15
4.54671e-15
5.29882e-15
6.40425e-15
8.07333e-15
1.06908e-14
1.50262e-14
2.28071e-14
3.85709e-14
7.71995e-14
2.07443e-13
9.99201e-13
9.99201e-13
2.07444e-13
7.71982e-14
3.85614e-14
2.27794e-14
1.49684e-14
1.05917e-14
7.92391e-15
6.1994e-15
5.03703e-15
4.22954e-15
3.6561e-15
3.24215e-15
2.93967e-15
2.71658e-15
2.55089e-15
2.42721e-15
2.33453e-15
2.26495e-15
2.21267e-15
2.17342e-15
2.14402e-15
2.1221e-15
2.10586e-15
2.09394e-15
2.0853e-15
2.07913e-15
2.07482e-15
2.07189e-15
2.06997e-15
2.06877e-15
2.06805e-15
2.06766e-15
2.06744e-15
2.06731e-15
2.06719e-15
2.06702e-15
2.0668e-15
2.0665e-15
2.06614e-15
2.06575e-15
2.06539e-15
2.06513e-15
2.06508e-15
2.06537e-15
2.06619e-15
2.06775e-15
2.07036e-15
2.07438e-15
2.08031e-15
2.08876e-15
2.10052e-15
2.11665e-15
2.1385e-15
2.16786e-15
2.20711e-15
2.25943e-15
2.32906e-15
2.4218e-15
2.54557e-15
2.71134e-15
2.93451e-15
3.23708e-15
3.65112e-15
4.22467e-15
5.03228e-15
6.19483e-15
7.91957e-15
1.05876e-14
1.49648e-14
2.27763e-14
3.85589e-14
7.71963e-14
2.07443e-13
9.99201e-13
9.99201e-13
2.07444e-13
7.71972e-14
3.85571e-14
2.27677e-14
1.49438e-14
1.05483e-14
7.85648e-15
6.1037e-15
4.91042e-15
4.07107e-15
3.46621e-15
3.02248e-15
2.69262e-15
2.44503e-15
2.25791e-15
2.11583e-15
2.00767e-15
1.92525e-15
1.86248e-15
1.8148e-15
1.77872e-15
1.7516e-15
1.73138e-15
1.71647e-15
1.70564e-15
1.69791e-15
1.69254e-15
1.68891e-15
1.68656e-15
1.68512e-15
1.68428e-15
1.68383e-15
1.68358e-15
1.68341e-15
1.68321e-15
1.68292e-15
1.6825e-15
1.68196e-15
1.6813e-15
1.68056e-15
1.67983e-15
1.6792e-15
1.67881e-15
1.67885e-15
1.67956e-15
1.68122e-15
1.68423e-15
1.68906e-15
1.69631e-15
1.70675e-15
1.72136e-15
1.74137e-15
1.76838e-15
1.80443e-15
1.85218e-15
1.91511e-15
1.99777e-15
2.10624e-15
2.24868e-15
2.43621e-15
2.68425e-15
3.01459e-15
3.45881e-15
4.06416e-15
4.90402e-15
6.09782e-15
7.85114e-15
1.05435e-14
1.49396e-14
2.27641e-14
3.85542e-14
7.71951e-14
2.07443e-13
9.99201e-13
9.99201e-13
2.07444e-13
7.71968e-14
3.85553e-14
2.27627e-14
1.49331e-14
1.05288e-14
7.82514e-15
6.05779e-15
4.84786e-15
3.9905e-15
3.36712e-15
2.90505e-15
2.55767e-15
2.29381e-15
2.09198e-15
1.93692e-15
1.81752e-15
1.72558e-15
1.6549e-15
1.60076e-15
1.55954e-15
1.52839e-15
1.5051e-15
1.48791e-15
1.47546e-15
1.46663e-15
1.46055e-15
1.45651e-15
1.45397e-15
1.45247e-15
1.45167e-15
1.45128e-15
1.45109e-15
1.45093e-15
1.45069e-15
1.45028e-15
1.44966e-15
1.44882e-15
1.44778e-15
1.4466e-15
1.44537e-15
1.44422e-15
1.44332e-15
1.4429e-15
1.44325e-15
1.44473e-15
1.44779e-15
1.45301e-15
1.4611e-15
1.47295e-15
1.48967e-15
1.51265e-15
1.54364e-15
1.58488e-15
1.63919e-15
1.7102e-15
1.80263e-15
1.92265e-15
2.07846e-15
2.28112e-15
2.54588e-15
2.8942e-15
3.35723e-15
3.98156e-15
4.83984e-15
6.05066e-15
7.81885e-15
1.05233e-14
1.49284e-14
2.27588e-14
3.85522e-14
7.71945e-14
2.07443e-13
9.99201e-13
9.99201e-13
2.07444e-13
7.71967e-14
3.85546e-14
2.27605e-14
1.49282e-14
1.05197e-14
7.8101e-15
6.03525e-15
4.81642e-15
3.94913e-15
3.3152e-15
2.84237e-15
2.4844e-15
2.21046e-15
1.99931e-15
1.83584e-15
1.70906e-15
1.61079e-15
1.53482e-15
1.47637e-15
1.43171e-15
1.39792e-15
1.37268e-15
1.35412e-15
1.34076e-15
1.3314e-15
1.32507e-15
1.32101e-15
1.31857e-15
1.31726e-15
1.31668e-15
1.3165e-15
1.31647e-15
1.31641e-15
1.31617e-15
1.31566e-15
1.31482e-15
1.31366e-15
1.31219e-15
1.31048e-15
1.30864e-15
1.30682e-15
1.30523e-15
1.30412e-15
1.30384e-15
1.3048e-15
1.30751e-15
1.31263e-15
1.32095e-15
1.33347e-15
1.35138e-15
1.3762e-15
1.4098e-15
1.4545e-15
1.51326e-15
1.58978e-15
1.68883e-15
1.8166e-15
1.98124e-15
2.19371e-15
2.46906e-15
2.82849e-15
3.30279e-15
3.93817e-15
4.80681e-15
6.0269e-15
7.80292e-15
1.05136e-14
1.4923e-14
2.27563e-14
3.85513e-14
7.71942e-14
2.07443e-13
9.99201e-13
9.99201e-13
2.07444e-13
7.71967e-14
3.85543e-14
2.27596e-14
1.49259e-14
1.05154e-14
7.80289e-15
6.02424e-15
4.80083e-15
3.92831e-15
3.28869e-15
2.80996e-15
2.44609e-15
2.16646e-15
1.95e-15
1.78171e-15
1.65071e-15
1.54884e-15
1.4699e-15
1.40909e-15
1.36265e-15
1.32759e-15
1.30151e-15
1.28249e-15
1.26897e-15
1.25969e-15
1.25361e-15
1.2499e-15
1.24788e-15
1.24701e-15
1.24683e-15
1.247e-15
1.24725e-15
1.24736e-15
1.24718e-15
1.24659e-15
1.24555e-15
1.24404e-15
1.2421e-15
1.2398e-15
1.23726e-15
1.23464e-15
1.23219e-15
1.23019e-15
1.22901e-15
1.22911e-15
1.23107e-15
1.23558e-15
1.24351e-15
1.25591e-15
1.27409e-15
1.29962e-15
1.33444e-15
1.38098e-15
1.44223e-15
1.52195e-15
1.62492e-15
1.75731e-15
1.92723e-15
2.14553e-15
2.42712e-15
2.79301e-15
3.27375e-15
3.91532e-15
4.78965e-15
6.01472e-15
7.79484e-15
1.05086e-14
1.49203e-14
2.2755e-14
3.85507e-14
7.71941e-14
2.07442e-13
9.99201e-13
9.99201e-13
2.07444e-13
7.71967e-14
3.85542e-14
2.27592e-14
1.4925e-14
1.05135e-14
7.79965e-15
6.01924e-15
4.79367e-15
3.91867e-15
3.27636e-15
2.79482e-15
2.42815e-15
2.14585e-15
1.92692e-15
1.75648e-15
1.62366e-15
1.52034e-15
1.44032e-15
1.3788e-15
1.33198e-15
1.29683e-15
1.27092e-15
1.25227e-15
1.23927e-15
1.23061e-15
1.22522e-15
1.22223e-15
1.22091e-15
1.22069e-15
1.22109e-15
1.22175e-15
1.22237e-15
1.22273e-15
1.22265e-15
1.22201e-15
1.22077e-15
1.21892e-15
1.21648e-15
1.21353e-15
1.21021e-15
1.2067e-15
1.20325e-15
1.20018e-15
1.19787e-15
1.19684e-15
1.19767e-15
1.20111e-15
1.20808e-15
1.21969e-15
1.23728e-15
1.2625e-15
1.29736e-15
1.34432e-15
1.4064e-15
1.48742e-15
1.59216e-15
1.72678e-15
1.89935e-15
2.12064e-15
2.40548e-15
2.77475e-15
3.25886e-15
3.90365e-15
4.78093e-15
6.00856e-15
7.79077e-15
1.05062e-14
1.4919e-14
2.27543e-14
3.85505e-14
7.7194e-14
2.07442e-13
9.99201e-13
9.99201e-13
2.07444e-13
7.71967e-14
3.85542e-14
2.27591e-14
1.49247e-14
1.05128e-14
7.79852e-15
6.0175e-15
4.79119e-15
3.91536e-15
3.27218e-15
2.78979e-15
2.42236e-15
2.13941e-15
1.92001e-15
1.74929e-15
1.6164e-15
1.51323e-15
1.43359e-15
1.37263e-15
1.32653e-15
1.29225e-15
1.26731e-15
1.2497e-15
1.23778e-15
1.23021e-15
1.22589e-15
1.2239e-15
1.22352e-15
1.22413e-15
1.22526e-15
1.22652e-15
1.22759e-15
1.22824e-15
1.22831e-15
1.22765e-15
1.22622e-15
1.224e-15
1.22104e-15
1.21741e-15
1.21326e-15
1.20878e-15
1.20423e-15
1.19994e-15
1.19633e-15
1.19391e-15
1.19332e-15
1.19532e-15
1.20087e-15
1.21111e-15
1.22744e-15
1.25153e-15
1.28545e-15
1.3317e-15
1.39334e-15
1.47421e-15
1.57911e-15
1.7142e-15
1.88753e-15
2.10985e-15
2.39591e-15
2.76655e-15
3.25209e-15
3.89829e-15
4.77689e-15
6.00567e-15
7.78884e-15
1.0505e-14
1.49183e-14
2.2754e-14
3.85503e-14
7.71939e-14
2.07442e-13
9.99201e-13
9.99201e-13
2.07444e-13
7.71967e-14
3.85542e-14
2.27591e-14
1.49247e-14
1.05129e-14
7.79857e-15
6.01759e-15
4.79138e-15
3.91574e-15
3.27283e-15
2.79085e-15
2.42396e-15
2.14172e-15
1.92319e-15
1.75349e-15
1.62178e-15
1.51992e-15
1.44169e-15
1.38223e-15
1.33769e-15
1.30499e-15
1.28163e-15
1.26557e-15
1.25516e-15
1.24902e-15
1.24604e-15
1.24529e-15
1.24601e-15
1.24759e-15
1.24955e-15
1.25147e-15
1.25305e-15
1.25404e-15
1.25426e-15
1.25359e-15
1.25196e-15
1.24937e-15
1.24586e-15
1.24152e-15
1.23649e-15
1.23097e-15
1.22523e-15
1.21962e-15
1.21456e-15
1.21058e-15
1.20834e-15
1.20863e-15
1.21241e-15
1.22085e-15
1.23539e-15
1.25775e-15
1.29001e-15
1.33472e-15
1.39497e-15
1.47464e-15
1.57856e-15
1.71289e-15
1.88568e-15
2.1077e-15
2.39366e-15
2.76436e-15
3.25011e-15
3.8966e-15
4.77553e-15
6.00464e-15
7.7881e-15
1.05045e-14
1.4918e-14
2.27538e-14
3.85502e-14
7.71938e-14
2.07442e-13
9.99201e-13
9.99201e-13
2.07444e-13
7.71967e-14
3.85542e-14
2.27592e-14
1.49249e-14
1.05133e-14
7.79928e-15
6.01876e-15
4.79317e-15
3.91832e-15
3.27642e-15
2.79565e-15
2.43016e-15
2.14951e-15
1.93274e-15
1.76495e-15
1.63525e-15
1.53549e-15
1.45939e-15
1.40208e-15
1.35967e-15
1.32906e-15
1.3077e-15
1.29357e-15
1.28495e-15
1.28049e-15
1.27904e-15
1.27966e-15
1.28161e-15
1.28425e-15
1.28709e-15
1.28972e-15
1.29183e-15
1.29317e-15
1.29355e-15
1.29285e-15
1.29101e-15
1.28803e-15
1.28395e-15
1.27886e-15
1.27291e-15
1.26631e-15
1.25933e-15
1.25232e-15
1.24571e-15
1.24006e-15
1.23601e-15
1.23439e-15
1.23615e-15
1.2425e-15
1.2549e-15
1.27508e-15
1.30518e-15
1.34776e-15
1.40598e-15
1.48372e-15
1.58587e-15
1.71861e-15
1.89001e-15
2.11085e-15
2.39585e-15
2.7658e-15
3.25098e-15
3.89707e-15
4.77573e-15
6.00468e-15
7.78805e-15
1.05044e-14
1.49179e-14
2.27537e-14
3.85501e-14
7.71938e-14
2.07442e-13
9.99201e-13
9.99201e-13
2.07444e-13
7.71967e-14
3.85543e-14
2.27593e-14
1.49252e-14
1.05139e-14
7.80038e-15
6.02055e-15
4.7959e-15
3.92225e-15
3.28181e-15
2.80275e-15
2.43922e-15
2.16074e-15
1.94631e-15
1.781e-15
1.65387e-15
1.55672e-15
1.48324e-15
1.4285e-15
1.3886e-15
1.36039e-15
1.34132e-15
1.32932e-15
1.32269e-15
1.32005e-15
1.32024e-15
1.32233e-15
1.32556e-15
1.32931e-15
1.33306e-15
1.33641e-15
1.33905e-15
1.34072e-15
1.34125e-15
1.3405e-15
1.33842e-15
1.33502e-15
1.33033e-15
1.32445e-15
1.31754e-15
1.30981e-15
1.30153e-15
1.29307e-15
1.28485e-15
1.27744e-15
1.27149e-15
1.26782e-15
1.26743e-15
1.27151e-15
1.28153e-15
1.29928e-15
1.3269e-15
1.367e-15
1.42277e-15
1.49814e-15
1.59802e-15
1.72865e-15
1.89812e-15
2.11724e-15
2.40074e-15
2.76943e-15
3.25357e-15
3.89883e-15
4.77687e-15
6.00536e-15
7.78842e-15
1.05046e-14
1.49179e-14
2.27537e-14
3.85501e-14
7.71937e-14
2.07442e-13
9.99201e-13
9.99201e-13
2.07444e-13
7.71967e-14
3.85543e-14
2.27594e-14
1.49255e-14
1.05146e-14
7.80168e-15
6.0227e-15
4.79919e-15
3.92698e-15
3.28829e-15
2.81127e-15
2.45005e-15
2.1741e-15
1.96238e-15
1.7999e-15
1.67568e-15
1.58145e-15
1.51087e-15
1.45897e-15
1.42179e-15
1.39617e-15
1.37954e-15
1.3698e-15
1.36526e-15
1.36451e-15
1.36639e-15
1.36998e-15
1.37452e-15
1.37936e-15
1.38401e-15
1.38807e-15
1.39121e-15
1.39318e-15
1.39381e-15
1.39298e-15
1.39062e-15
1.38675e-15
1.3814e-15
1.3747e-15
1.36678e-15
1.35787e-15
1.34826e-15
1.33829e-15
1.32842e-15
1.3192e-15
1.31129e-15
1.30552e-15
1.3029e-15
1.30462e-15
1.31216e-15
1.32734e-15
1.35232e-15
1.38975e-15
1.44285e-15
1.5156e-15
1.61294e-15
1.74116e-15
1.9084e-15
2.12548e-15
2.40718e-15
2.77431e-15
3.25715e-15
3.90135e-15
4.77856e-15
6.00643e-15
7.78904e-15
1.05049e-14
1.49181e-14
2.27537e-14
3.85501e-14
7.71937e-14
2.07442e-13
9.99201e-13
9.99201e-13
2.07444e-13
7.71967e-14
3.85542e-14
2.27595e-14
1.49258e-14
1.05153e-14
7.80306e-15
6.02503e-15
4.80278e-15
3.93217e-15
3.2954e-15
2.82061e-15
2.4619e-15
2.1887e-15
1.9799e-15
1.82047e-15
1.69934e-15
1.60822e-15
1.54069e-15
1.49174e-15
1.45739e-15
1.43444e-15
1.4203e-15
1.41287e-15
1.41043e-15
1.41157e-15
1.41514e-15
1.42022e-15
1.42603e-15
1.43194e-15
1.43745e-15
1.44217e-15
1.44575e-15
1.44797e-15
1.44865e-15
1.44767e-15
1.44498e-15
1.44058e-15
1.43454e-15
1.42695e-15
1.41797e-15
1.40785e-15
1.39686e-15
1.38536e-15
1.37381e-15
1.36276e-15
1.35288e-15
1.34499e-15
1.34011e-15
1.33945e-15
1.3445e-15
1.35707e-15
1.37937e-15
1.41407e-15
1.46443e-15
1.53446e-15
1.62916e-15
1.75486e-15
1.91973e-15
2.13464e-15
2.4144e-15
2.77984e-15
3.26124e-15
3.90427e-15
4.78054e-15
6.00771e-15
7.78981e-15
1.05053e-14
1.49182e-14
2.27538e-14
3.85501e-14
7.71937e-14
2.07442e-13
9.99201e-13
9.99201e-13
2.07444e-13
7.71966e-14
3.85541e-14
2.27595e-14
1.4926e-14
1.0516e-14
7.80445e-15
6.02742e-15
4.8065e-15
3.93756e-15
3.30281e-15
2.83038e-15
2.47429e-15
2.20394e-15
1.99817e-15
1.84187e-15
1.72392e-15
1.63596e-15
1.57152e-15
1.52556e-15
1.49405e-15
1.47377e-15
1.4621e-15
1.45695e-15
1.45657e-15
1.45956e-15
1.46478e-15
1.47128e-15
1.4783e-15
1.48521e-15
1.49151e-15
1.4968e-15
1.50077e-15
1.50316e-15
1.50382e-15
1.50261e-15
1.49951e-15
1.49452e-15
1.48771e-15
1.47918e-15
1.4691e-15
1.45771e-15
1.44531e-15
1.43226e-15
1.41902e-15
1.40614e-15
1.3943e-15
1.38432e-15
1.37722e-15
1.37423e-15
1.37683e-15
1.38684e-15
1.40652e-15
1.43853e-15
1.48619e-15
1.55355e-15
1.64563e-15
1.76881e-15
1.93132e-15
2.14406e-15
2.42186e-15
2.78558e-15
3.26553e-15
3.90735e-15
4.78266e-15
6.00909e-15
7.79066e-15
1.05058e-14
1.49185e-14
2.27539e-14
3.85501e-14
7.71937e-14
2.07442e-13
9.99201e-13
9.99201e-13
2.07444e-13
7.71964e-14
3.8554e-14
2.27594e-14
1.49262e-14
1.05166e-14
7.80577e-15
6.02976e-15
4.8102e-15
3.94299e-15
3.3103e-15
2.84025e-15
2.48683e-15
2.21937e-15
2.01665e-15
1.86349e-15
1.74872e-15
1.6639e-15
1.60253e-15
1.55951e-15
1.53078e-15
1.5131e-15
1.50383e-15
1.50087e-15
1.50246e-15
1.50722e-15
1.51397e-15
1.52181e-15
1.52993e-15
1.53773e-15
1.54473e-15
1.55051e-15
1.55476e-15
1.55723e-15
1.55776e-15
1.55624e-15
1.55265e-15
1.54699e-15
1.53933e-15
1.52979e-15
1.51854e-15
1.50585e-15
1.49202e-15
1.4774e-15
1.46248e-15
1.44779e-15
1.43403e-15
1.42203e-15
1.41278e-15
1.40754e-15
1.4078e-15
1.41539e-15
1.43256e-15
1.46203e-15
1.50713e-15
1.57193e-15
1.66153e-15
1.78232e-15
1.94258e-15
2.15323e-15
2.42916e-15
2.79123e-15
3.26976e-15
3.91042e-15
4.78479e-15
6.0105e-15
7.79154e-15
1.05063e-14
1.49188e-14
2.2754e-14
3.85501e-14
7.71937e-14
2.07442e-13
9.99201e-13
9.99201e-13
2.07444e-13
7.71962e-14
3.85537e-14
2.27592e-14
1.49263e-14
1.05171e-14
7.80696e-15
6.03197e-15
4.81378e-15
3.94828e-15
3.31767e-15
2.85e-15
2.49923e-15
2.23464e-15
2.03493e-15
1.88487e-15
1.77321e-15
1.69146e-15
1.63306e-15
1.59288e-15
1.56682e-15
1.55161e-15
1.54462e-15
1.54372e-15
1.54716e-15
1.55354e-15
1.5617e-15
1.57071e-15
1.57982e-15
1.58841e-15
1.59595e-15
1.60203e-15
1.60644e-15
1.60889e-15
1.6092e-15
1.60728e-15
1.6031e-15
1.59667e-15
1.58807e-15
1.57743e-15
1.56496e-15
1.55095e-15
1.53565e-15
1.51948e-15
1.50289e-15
1.48645e-15
1.47084e-15
1.4569e-15
1.44563e-15
1.43827e-15
1.43635e-15
1.44169e-15
1.45655e-15
1.48368e-15
1.52642e-15
1.5889e-15
1.67622e-15
1.79482e-15
1.95302e-15
2.16177e-15
2.43598e-15
2.79654e-15
3.27377e-15
3.91335e-15
4.78686e-15
6.0119e-15
7.79244e-15
1.05068e-14
1.49191e-14
2.27542e-14
3.85502e-14
7.71938e-14
2.07442e-13
9.99201e-13
9.99201e-13
2.07444e-13
7.71959e-14
3.85534e-14
2.27589e-14
1.49262e-14
1.05174e-14
7.80796e-15
6.03397e-15
4.81713e-15
3.95333e-15
3.32475e-15
2.85943e-15
2.51126e-15
2.24947e-15
2.0527e-15
1.90563e-15
1.79697e-15
1.71816e-15
1.6626e-15
1.6251e-15
1.60156e-15
1.58867e-15
1.58379e-15
1.58477e-15
1.58989e-15
1.59771e-15
1.60711e-15
1.61715e-15
1.62706e-15
1.6362e-15
1.64418e-15
1.65052e-15
1.65491e-15
1.65711e-15
1.65699e-15
1.65449e-15
1.64958e-15
1.64229e-15
1.63272e-15
1.621e-15
1.60732e-15
1.59191e-15
1.5751e-15
1.55739e-15
1.53919e-15
1.52106e-15
1.50369e-15
1.48793e-15
1.47478e-15
1.4655e-15
1.46159e-15
1.4649e-15
1.47771e-15
1.50276e-15
1.54343e-15
1.60386e-15
1.68919e-15
1.80588e-15
1.96228e-15
2.16937e-15
2.44208e-15
2.80131e-15
3.27741e-15
3.91604e-15
4.78879e-15
6.01323e-15
7.79332e-15
1.05074e-14
1.49194e-14
2.27544e-14
3.85503e-14
7.71938e-14
2.07442e-13
9.99201e-13
9.99201e-13
2.07443e-13
7.71955e-14
3.85529e-14
2.27585e-14
1.49259e-14
1.05175e-14
7.80873e-15
6.03571e-15
4.82017e-15
3.95802e-15
3.33142e-15
2.86836e-15
2.52272e-15
2.26362e-15
2.06967e-15
1.92546e-15
1.81965e-15
1.74363e-15
1.69073e-15
1.65574e-15
1.63451e-15
1.62375e-15
1.62076e-15
1.62343e-15
1.62999e-15
1.63906e-15
1.6495e-15
1.66031e-15
1.67085e-15
1.68045e-15
1.68858e-15
1.69483e-15
1.69893e-15
1.70066e-15
1.69993e-15
1.69668e-15
1.69091e-15
1.68268e-15
1.67206e-15
1.65922e-15
1.64433e-15
1.62765e-15
1.60948e-15
1.59021e-15
1.57043e-15
1.5507e-15
1.5317e-15
1.51427e-15
1.49944e-15
1.48844e-15
1.48279e-15
1.48435e-15
1.49539e-15
1.51869e-15
1.55762e-15
1.61635e-15
1.70002e-15
1.81514e-15
1.97006e-15
2.17579e-15
2.44727e-15
2.80542e-15
3.28058e-15
3.91843e-15
4.79054e-15
6.01448e-15
7.79419e-15
1.0508e-14
1.49198e-14
2.27546e-14
3.85505e-14
7.71939e-14
2.07442e-13
9.99201e-13
9.99201e-13
2.07443e-13
7.7195e-14
3.85524e-14
2.27579e-14
1.49254e-14
1.05174e-14
7.8092e-15
6.0371e-15
4.82281e-15
3.96225e-15
3.33755e-15
2.87667e-15
2.53343e-15
2.27691e-15
2.08562e-15
1.94412e-15
1.84098e-15
1.76754e-15
1.7171e-15
1.6844e-15
1.66527e-15
1.65638e-15
1.65506e-15
1.65916e-15
1.66696e-15
1.67704e-15
1.6882e-15
1.69966e-15
1.71057e-15
1.72025e-15
1.72823e-15
1.73414e-15
1.73771e-15
1.73875e-15
1.73723e-15
1.73308e-15
1.72632e-15
1.71703e-15
1.70529e-15
1.69126e-15
1.67515e-15
1.6572e-15
1.63773e-15
1.61711e-15
1.59583e-15
1.57461e-15
1.55413e-15
1.53523e-15
1.51892e-15
1.50645e-15
1.49935e-15
1.49947e-15
1.50909e-15
1.53099e-15
1.56856e-15
1.62597e-15
1.70839e-15
1.82231e-15
1.97612e-15
2.18084e-15
2.4514e-15
2.80874e-15
3.2832e-15
3.92045e-15
4.79208e-15
6.01563e-15
7.79503e-15
1.05086e-14
1.49202e-14
2.27549e-14
3.85507e-14
7.7194e-14
2.07442e-13
9.99201e-13
9.99201e-13
2.07443e-13
7.71945e-14
3.85517e-14
2.27571e-14
1.49247e-14
1.05169e-14
7.80933e-15
6.03809e-15
4.82499e-15
3.96593e-15
3.34303e-15
2.88422e-15
2.54325e-15
2.28915e-15
2.10036e-15
1.96138e-15
1.86071e-15
1.78964e-15
1.74142e-15
1.71077e-15
1.69349e-15
1.68622e-15
1.6863e-15
1.69158e-15
1.70033e-15
1.71111e-15
1.72284e-15
1.73459e-15
1.74551e-15
1.75497e-15
1.76252e-15
1.76784e-15
1.77065e-15
1.77081e-15
1.76831e-15
1.7631e-15
1.75522e-15
1.74475e-15
1.7318e-15
1.71653e-15
1.69916e-15
1.67994e-15
1.6592e-15
1.63732e-15
1.61476e-15
1.59217e-15
1.57039e-15
1.55022e-15
1.53268e-15
1.51904e-15
1.5108e-15
1.50983e-15
1.51841e-15
1.53931e-15
1.57594e-15
1.63246e-15
1.71404e-15
1.82721e-15
1.98031e-15
2.18438e-15
2.45437e-15
2.8112e-15
3.28522e-15
3.9221e-15
4.7934e-15
6.01668e-15
7.79586e-15
1.05092e-14
1.49207e-14
2.27553e-14
3.85509e-14
7.71941e-14
2.07442e-13
9.99201e-13
9.99201e-13
2.07442e-13
7.71939e-14
3.85508e-14
2.2756e-14
1.49236e-14
1.05162e-14
7.80905e-15
6.03861e-15
4.82661e-15
3.96896e-15
3.34775e-15
2.89088e-15
2.55205e-15
2.30021e-15
2.11374e-15
1.97707e-15
1.87865e-15
1.80971e-15
1.76347e-15
1.73461e-15
1.71891e-15
1.71298e-15
1.71416e-15
1.72032e-15
1.72972e-15
1.74091e-15
1.7529e-15
1.7646e-15
1.77521e-15
1.78416e-15
1.79103e-15
1.79549e-15
1.79728e-15
1.79638e-15
1.79272e-15
1.78629e-15
1.77715e-15
1.76538e-15
1.75113e-15
1.73456e-15
1.7159e-15
1.69542e-15
1.67344e-15
1.65035e-15
1.62664e-15
1.60288e-15
1.58e-15
1.5588e-15
1.54032e-15
1.52581e-15
1.51679e-15
1.51511e-15
1.52305e-15
1.54339e-15
1.57953e-15
1.63563e-15
1.71684e-15
1.82969e-15
1.98252e-15
2.18635e-15
2.45613e-15
2.81278e-15
3.28664e-15
3.92335e-15
4.7945e-15
6.01764e-15
7.79669e-15
1.05099e-14
1.49213e-14
2.27557e-14
3.85512e-14
7.71943e-14
2.07443e-13
9.99201e-13
9.99201e-13
2.07442e-13
7.71931e-14
3.85497e-14
2.27547e-14
1.49223e-14
1.0515e-14
7.8083e-15
6.03858e-15
4.8276e-15
3.97127e-15
3.35164e-15
2.89658e-15
2.55972e-15
2.30996e-15
2.12561e-15
1.99104e-15
1.89464e-15
1.82759e-15
1.78306e-15
1.75571e-15
1.7413e-15
1.7364e-15
1.73838e-15
1.74512e-15
1.75482e-15
1.76618e-15
1.77802e-15
1.78933e-15
1.79933e-15
1.80749e-15
1.81342e-15
1.81676e-15
1.81733e-15
1.81513e-15
1.81012e-15
1.80231e-15
1.79176e-15
1.77859e-15
1.76293e-15
1.74499e-15
1.72501e-15
1.70325e-15
1.68007e-15
1.65586e-15
1.63111e-15
1.6064e-15
1.58265e-15
1.56069e-15
1.54157e-15
1.52653e-15
1.51711e-15
1.51512e-15
1.52286e-15
1.5431e-15
1.57922e-15
1.63537e-15
1.71671e-15
1.82971e-15
1.98272e-15
2.18674e-15
2.45669e-15
2.81349e-15
3.28745e-15
3.92424e-15
4.79542e-15
6.01854e-15
7.79754e-15
1.05107e-14
1.49219e-14
2.27563e-14
3.85516e-14
7.71946e-14
2.07443e-13
9.99201e-13
9.99201e-13
2.07441e-13
7.71922e-14
3.85484e-14
2.27531e-14
1.49206e-14
1.05134e-14
7.80704e-15
6.03796e-15
4.82791e-15
3.97278e-15
3.35461e-15
2.90121e-15
2.56616e-15
2.3183e-15
2.13588e-15
2.00318e-15
1.90856e-15
1.84313e-15
1.80004e-15
1.77391e-15
1.76048e-15
1.7563e-15
1.75877e-15
1.76574e-15
1.77541e-15
1.78657e-15
1.79794e-15
1.80854e-15
1.81763e-15
1.82472e-15
1.8294e-15
1.83131e-15
1.83046e-15
1.82678e-15
1.82023e-15
1.81086e-15
1.79876e-15
1.78406e-15
1.76693e-15
1.74758e-15
1.72625e-15
1.70325e-15
1.67892e-15
1.65369e-15
1.62803e-15
1.60255e-15
1.57818e-15
1.55576e-15
1.53633e-15
1.52113e-15
1.51169e-15
1.50982e-15
1.51782e-15
1.53843e-15
1.57503e-15
1.63174e-15
1.71368e-15
1.82732e-15
1.98097e-15
2.18559e-15
2.45609e-15
2.81337e-15
3.28773e-15
3.92481e-15
4.79619e-15
6.01943e-15
7.79844e-15
1.05116e-14
1.49227e-14
2.27569e-14
3.85521e-14
7.71949e-14
2.07443e-13
9.99201e-13
9.99201e-13
2.07441e-13
7.71911e-14
3.85468e-14
2.27511e-14
1.49184e-14
1.05112e-14
7.8052e-15
6.03668e-15
4.82745e-15
3.97342e-15
3.35658e-15
2.9047e-15
2.5713e-15
2.32515e-15
2.14444e-15
2.0134e-15
1.9203e-15
1.85623e-15
1.8143e-15
1.78909e-15
1.77634e-15
1.77255e-15
1.77516e-15
1.78203e-15
1.79133e-15
1.80193e-15
1.81249e-15
1.82206e-15
1.82995e-15
1.8357e-15
1.83881e-15
1.83908e-15
1.83655e-15
1.83115e-15
1.82289e-15
1.81182e-15
1.79805e-15
1.78173e-15
1.76305e-15
1.74224e-15
1.71956e-15
1.69534e-15
1.66994e-15
1.64378e-15
1.61737e-15
1.59136e-15
1.56665e-15
1.54407e-15
1.52467e-15
1.5097e-15
1.50066e-15
1.49935e-15
1.50807e-15
1.52954e-15
1.56712e-15
1.62488e-15
1.70792e-15
1.82267e-15
1.9774e-15
2.18304e-15
2.45446e-15
2.81253e-15
3.28755e-15
3.92515e-15
4.79689e-15
6.02034e-15
7.79946e-15
1.05126e-14
1.49236e-14
2.27577e-14
3.85526e-14
7.71952e-14
2.07443e-13
9.99201e-13
9.99201e-13
2.0744e-13
7.71898e-14
3.85449e-14
2.27487e-14
1.49158e-14
1.05086e-14
7.80273e-15
6.03467e-15
4.82618e-15
3.97314e-15
3.3575e-15
2.90699e-15
2.57507e-15
2.33045e-15
2.15124e-15
2.02162e-15
1.92981e-15
1.86684e-15
1.82578e-15
1.8012e-15
1.7888e-15
1.78508e-15
1.7875e-15
1.79391e-15
1.8025e-15
1.81217e-15
1.82158e-15
1.82981e-15
1.83621e-15
1.84022e-15
1.84144e-15
1.8399e-15
1.8355e-15
1.82821e-15
1.81805e-15
1.80513e-15
1.78957e-15
1.77154e-15
1.75126e-15
1.72897e-15
1.70497e-15
1.67958e-15
1.65319e-15
1.62625e-15
1.59926e-15
1.57299e-15
1.54823e-15
1.52584e-15
1.50684e-15
1.49249e-15
1.48429e-15
1.48398e-15
1.49389e-15
1.51671e-15
1.55575e-15
1.61506e-15
1.69968e-15
1.816e-15
1.97224e-15
2.17928e-15
2.45197e-15
2.81114e-15
3.28705e-15
3.92535e-15
4.7976e-15
6.02137e-15
7.80065e-15
1.05138e-14
1.49248e-14
2.27586e-14
3.85534e-14
7.71957e-14
2.07443e-13
9.99201e-13
9.99201e-13
2.07439e-13
7.71883e-14
3.85427e-14
2.27459e-14
1.49126e-14
1.05053e-14
7.79957e-15
6.03189e-15
4.82404e-15
3.97186e-15
3.35731e-15
2.90802e-15
2.57743e-15
2.33415e-15
2.15624e-15
2.02782e-15
1.93704e-15
1.87491e-15
1.83444e-15
1.81019e-15
1.79784e-15
1.79386e-15
1.79573e-15
1.80134e-15
1.80889e-15
1.81725e-15
1.82517e-15
1.83175e-15
1.83628e-15
1.83816e-15
1.83739e-15
1.8338e-15
1.82731e-15
1.81794e-15
1.80574e-15
1.79083e-15
1.77338e-15
1.75358e-15
1.73167e-15
1.70791e-15
1.68263e-15
1.65616e-15
1.62892e-15
1.60136e-15
1.57408e-15
1.54784e-15
1.52335e-15
1.50147e-15
1.48325e-15
1.46995e-15
1.463e-15
1.46415e-15
1.47571e-15
1.50036e-15
1.54134e-15
1.60266e-15
1.68932e-15
1.80764e-15
1.96578e-15
2.17459e-15
2.44885e-15
2.80937e-15
3.28641e-15
3.92557e-15
4.79844e-15
6.02261e-15
7.80208e-15
1.05152e-14
1.49261e-14
2.27598e-14
3.85543e-14
7.71964e-14
2.07444e-13
9.99201e-13
9.99201e-13
2.07438e-13
7.71865e-14
3.85401e-14
2.27426e-14
1.49089e-14
1.05013e-14
7.79567e-15
6.02828e-15
4.82097e-15
3.96956e-15
3.35596e-15
2.90777e-15
2.57834e-15
2.33623e-15
2.15943e-15
2.03198e-15
1.942e-15
1.88044e-15
1.84028e-15
1.81607e-15
1.80347e-15
1.79891e-15
1.79989e-15
1.80436e-15
1.81052e-15
1.81717e-15
1.82325e-15
1.82782e-15
1.82999e-15
1.8297e-15
1.82669e-15
1.82083e-15
1.81206e-15
1.80045e-15
1.78607e-15
1.76908e-15
1.74967e-15
1.72806e-15
1.70452e-15
1.67934e-15
1.65286e-15
1.62545e-15
1.59752e-15
1.56961e-15
1.54239e-15
1.51646e-15
1.49256e-15
1.47157e-15
1.45453e-15
1.44266e-15
1.43735e-15
1.44043e-15
1.45412e-15
1.48105e-15
1.52443e-15
1.58821e-15
1.67732e-15
1.79802e-15
1.95842e-15
2.16931e-15
2.44541e-15
2.8075e-15
3.28582e-15
3.92597e-15
4.79955e-15
6.02416e-15
7.80384e-15
1.0517e-14
1.49278e-14
2.27612e-14
3.85555e-14
7.71973e-14
2.07444e-13
9.99201e-13
9.99201e-13