/*--------------------------------*- C++ -*----------------------------------*\
  =========                 |
  \\      /  F ield         | OpenFOAM: The Open Source CFD Toolbox
   \\    /   O peration     | Website:  https://openfoam.org
    \\  /    A nd           | Version:  12
     \\/     M anipulation  |
\*---------------------------------------------------------------------------*/
FoamFile
{
    format      ascii;
    class       surfaceScalarField;
    location    "9.5";
    object      phi;
}
// * * * * * * * * * * * * * * * * * * * * * * * * * * * * * * * * * * * * * //

dimensions      [0 3 -1 0 0 0 0];

internalField   nonuniform List<scalar> 
11100
(
-1.3735e-11
1.37478e-11
-3.00802e-11
1.63484e-11
-3.5021e-11
4.9378e-12
-2.1382e-11
-1.36425e-11
1.41819e-11
-3.55696e-11
7.2747e-11
-5.85694e-11
1.53962e-10
-8.12213e-11
2.56606e-10
-1.02649e-10
3.78932e-10
-1.22332e-10
5.18907e-10
-1.39981e-10
6.74355e-10
-1.55454e-10
8.43055e-10
-1.68706e-10
1.0228e-09
-1.7975e-10
1.21143e-09
-1.8864e-10
1.40688e-09
-1.95452e-10
1.60715e-09
-2.00278e-10
1.81036e-09
-2.03216e-10
2.01473e-09
-2.04369e-10
2.21857e-09
-2.03844e-10
2.42031e-09
-2.01743e-10
2.61847e-09
-1.98171e-10
2.81169e-09
-1.93227e-10
2.9987e-09
-1.8701e-10
3.17831e-09
-1.79617e-10
3.34945e-09
-1.71138e-10
3.51111e-09
-1.61664e-10
3.66239e-09
-1.51282e-10
3.80246e-09
-1.40076e-10
3.93058e-09
-1.28127e-10
4.04609e-09
-1.15515e-10
4.14841e-09
-1.02316e-10
4.23701e-09
-8.86066e-11
4.31147e-09
-7.44598e-11
4.37141e-09
-5.99481e-11
4.41655e-09
-4.5143e-11
4.44666e-09
-3.01153e-11
4.46159e-09
-1.49353e-11
4.46126e-09
3.26638e-13
4.44565e-09
1.56001e-11
4.41483e-09
3.08142e-11
4.36893e-09
4.58974e-11
4.30815e-09
6.07768e-11
4.23277e-09
7.53786e-11
4.14314e-09
8.96275e-11
4.03968e-09
1.03446e-10
3.92292e-09
1.16757e-10
3.79344e-09
1.29477e-10
3.65191e-09
1.41525e-10
3.49909e-09
1.52815e-10
3.33583e-09
1.6326e-10
3.16305e-09
1.7277e-10
2.9818e-09
1.81253e-10
2.79318e-09
1.88615e-10
2.59842e-09
1.94758e-10
2.39883e-09
1.99586e-10
2.19583e-09
2.02996e-10
1.99094e-09
2.04889e-10
1.78577e-09
2.05162e-10
1.58206e-09
2.03713e-10
1.38162e-09
2.00442e-10
1.18637e-09
1.95251e-10
9.98316e-10
1.8805e-10
8.19558e-10
1.78759e-10
6.52246e-10
1.67313e-10
4.98571e-10
1.53675e-10
3.60723e-10
1.3785e-10
2.40819e-10
1.19905e-10
1.40818e-10
1.00003e-10
6.23587e-11
7.8461e-11
6.53478e-12
5.5826e-11
-2.64647e-11
3.30013e-11
-3.78923e-11
1.14294e-11
-3.12736e-11
-6.6162e-12
-1.39692e-11
-1.73021e-11
-1.39671e-11
-2.77778e-15
1.3753e-11
1.9851e-11
-3.5036e-12
7.44192e-11
-4.96322e-11
1.72955e-10
-1.12179e-10
3.20373e-10
-1.82991e-10
5.1843e-10
-2.56629e-10
7.66593e-10
-3.29389e-10
1.06271e-09
-3.98773e-10
1.40351e-09
-4.63136e-10
1.78496e-09
-5.21435e-10
2.20255e-09
-5.73051e-10
2.65151e-09
-6.17665e-10
3.12691e-09
-6.55162e-10
3.62384e-09
-6.85575e-10
4.13743e-09
-7.09041e-10
4.66291e-09
-7.25764e-10
5.19569e-09
-7.35999e-10
5.73134e-09
-7.40033e-10
6.26567e-09
-7.38172e-10
6.79466e-09
-7.30736e-10
7.31453e-09
-7.18051e-10
7.82174e-09
-7.00443e-10
8.31297e-09
-6.78239e-10
8.78511e-09
-6.51762e-10
9.23529e-09
-6.21329e-10
9.66088e-09
-5.87253e-10
1.00594e-08
-5.49839e-10
1.04287e-08
-5.09386e-10
1.07668e-08
-4.66187e-10
1.10718e-08
-4.20529e-10
1.13422e-08
-3.72692e-10
1.15765e-08
-3.22952e-10
1.17736e-08
-2.71581e-10
1.19325e-08
-2.18847e-10
1.20524e-08
-1.65015e-10
1.21326e-08
-1.10347e-10
1.21728e-08
-5.51077e-11
1.21727e-08
4.42074e-13
1.21322e-08
5.60386e-11
1.20516e-08
1.11417e-10
1.19312e-08
1.6631e-10
1.17715e-08
2.20447e-10
1.15733e-08
2.73552e-10
1.13376e-08
3.25347e-10
1.10655e-08
3.75547e-10
1.07584e-08
4.23861e-10
1.04178e-08
4.69994e-10
1.00457e-08
5.13643e-10
9.64403e-09
5.545e-10
9.21503e-09
5.9225e-10
8.76122e-09
6.26574e-10
8.28532e-09
6.57146e-10
7.79029e-09
6.83637e-10
7.27932e-09
7.05715e-10
6.75585e-09
7.23045e-10
6.22355e-09
7.35295e-10
5.68629e-09
7.42135e-10
5.14821e-09
7.43241e-10
4.61361e-09
7.38303e-10
4.08702e-09
7.27027e-10
3.57311e-09
7.0915e-10
3.07671e-09
6.84444e-10
2.60273e-09
6.52739e-10
2.15609e-09
6.13943e-10
1.74169e-09
5.68071e-10
1.36424e-09
5.15296e-10
1.02814e-09
4.56002e-10
7.37262e-10
3.90879e-10
4.94678e-10
3.21042e-10
3.02289e-10
2.48213e-10
1.60325e-10
1.74963e-10
6.66987e-11
1.05055e-10
1.6125e-11
4.39582e-11
-1.0733e-12
-1.02646e-13
-1.50384e-11
2.35539e-11
-9.80009e-12
1.02709e-10
-8.26577e-11
2.44612e-10
-1.91535e-10
4.54044e-10
-3.21611e-10
7.33382e-10
-4.62329e-10
1.08278e-09
-6.06026e-10
1.5005e-09
-7.47112e-10
1.98329e-09
-8.81563e-10
2.5267e-09
-1.00655e-09
3.1254e-09
-1.12014e-09
3.77343e-09
-1.22109e-09
4.46442e-09
-1.30866e-09
5.19174e-09
-1.38248e-09
5.94866e-09
-1.44249e-09
6.72843e-09
-1.48882e-09
7.52442e-09
-1.52175e-09
8.33012e-09
-1.5417e-09
9.13922e-09
-1.54914e-09
9.94566e-09
-1.54462e-09
1.07437e-08
-1.52873e-09
1.15277e-08
-1.50207e-09
1.22925e-08
-1.46527e-09
1.30332e-08
-1.41897e-09
1.37453e-08
-1.3638e-09
1.44243e-08
-1.30039e-09
1.50664e-08
-1.22937e-09
1.5668e-08
-1.15136e-09
1.62255e-08
-1.06698e-09
1.67362e-08
-9.7681e-10
1.71971e-08
-8.8146e-10
1.76059e-08
-7.81508e-10
1.79605e-08
-6.77531e-10
1.8259e-08
-5.70096e-10
1.84999e-08
-4.59767e-10
1.8682e-08
-3.47103e-10
1.88043e-08
-2.32659e-10
1.88662e-08
-1.1699e-10
1.88673e-08
-6.52088e-13
1.88075e-08
1.15798e-10
1.86871e-08
2.31798e-10
1.85067e-08
3.46782e-10
1.82669e-08
4.60178e-10
1.79691e-08
5.71403e-10
1.76145e-08
6.7987e-10
1.72051e-08
7.84978e-10
1.67428e-08
8.86118e-10
1.62302e-08
9.82671e-10
1.56698e-08
1.07401e-09
1.50648e-08
1.15948e-09
1.44186e-08
1.23846e-09
1.37349e-08
1.31027e-09
1.30178e-08
1.37425e-09
1.22717e-08
1.42974e-09
1.15013e-08
1.47608e-09
1.07118e-08
1.51259e-09
9.9084e-09
1.53864e-09
9.09694e-09
1.55359e-09
8.28335e-09
1.55682e-09
7.47387e-09
1.54778e-09
6.67495e-09
1.52594e-09
5.89323e-09
1.49086e-09
5.13548e-09
1.44219e-09
4.4085e-09
1.3797e-09
3.71908e-09
1.30335e-09
3.07383e-09
1.21331e-09
2.47907e-09
1.11005e-09
1.94064e-09
9.94425e-10
1.4637e-09
8.67818e-10
1.05244e-09
7.32294e-10
7.09824e-10
5.90823e-10
4.37214e-10
4.47567e-10
2.34029e-10
3.08237e-10
9.73899e-11
1.80594e-10
2.2035e-11
7.52512e-11
6.99684e-12
4.73971e-11
-5.71966e-11
1.88076e-10
-2.23334e-10
4.21243e-10
-4.247e-10
7.45934e-10
-6.46299e-10
1.16033e-09
-8.76723e-10
1.66152e-09
-1.10721e-09
2.24547e-09
-1.33106e-09
2.90711e-09
-1.5432e-09
3.64047e-09
-1.73991e-09
4.43886e-09
-1.91852e-09
5.295e-09
-2.07724e-09
6.20125e-09
-2.21491e-09
7.14969e-09
-2.33093e-09
8.13228e-09
-2.42508e-09
9.14095e-09
-2.49749e-09
1.01677e-08
-2.54851e-09
1.12047e-08
-2.5787e-09
1.22443e-08
-2.58873e-09
1.32791e-08
-2.57942e-09
1.4302e-08
-2.55162e-09
1.53062e-08
-2.50627e-09
1.62853e-08
-2.44434e-09
1.72331e-08
-2.36681e-09
1.8144e-08
-2.27469e-09
1.90126e-08
-2.16898e-09
1.98339e-08
-2.05068e-09
2.06033e-08
-1.9208e-09
2.13167e-08
-1.78033e-09
2.19701e-08
-1.63025e-09
2.25602e-08
-1.47153e-09
2.30838e-08
-1.30512e-09
2.35383e-08
-1.13198e-09
2.39212e-08
-9.5305e-10
2.42307e-08
-7.69262e-10
2.44652e-08
-5.81545e-10
2.46234e-08
-3.90827e-10
2.47044e-08
-1.98032e-10
2.47078e-08
-4.08811e-12
2.46336e-08
1.90072e-10
2.44819e-08
3.83509e-10
2.42534e-08
5.75277e-10
2.39492e-08
7.64418e-10
2.35706e-08
9.49962e-10
2.31196e-08
1.13092e-09
2.25982e-08
1.30631e-09
2.20093e-08
1.4751e-09
2.13557e-08
1.63627e-09
2.06409e-08
1.78878e-09
1.98688e-08
1.93158e-09
1.90437e-08
2.0636e-09
1.81702e-08
2.18376e-09
1.72535e-08
2.29099e-09
1.6299e-08
2.38421e-09
1.53127e-08
2.46237e-09
1.43009e-08
2.52439e-09
1.32703e-08
2.56928e-09
1.22278e-08
2.59602e-09
1.1181e-08
2.60371e-09
1.01373e-08
2.59148e-09
9.10462e-09
2.55858e-09
8.09111e-09
2.50438e-09
7.10489e-09
2.4284e-09
6.15418e-09
2.33041e-09
5.24712e-09
2.21042e-09
4.39165e-09
2.06878e-09
3.59543e-09
1.90627e-09
2.86562e-09
1.72423e-09
2.20876e-09
1.52468e-09
1.63057e-09
1.31048e-09
1.13581e-09
1.08558e-09
7.28103e-10
8.55275e-10
4.09856e-10
6.26481e-10
1.823e-10
4.08147e-10
4.5703e-11
2.11846e-10
5.26977e-11
6.8852e-11
-1.26049e-10
2.66595e-10
-4.21076e-10
5.85935e-10
-7.44038e-10
1.02046e-09
-1.08082e-09
1.56391e-09
-1.42018e-09
2.20983e-09
-1.75313e-09
2.95133e-09
-2.07257e-09
3.78105e-09
-2.37292e-09
4.69112e-09
-2.64998e-09
5.67324e-09
-2.90065e-09
6.71877e-09
-3.12276e-09
7.81879e-09
-3.31493e-09
8.96423e-09
-3.47636e-09
1.01459e-08
-3.6068e-09
1.13548e-08
-3.70636e-09
1.25818e-08
-3.77552e-09
1.38181e-08
-3.81499e-09
1.50551e-08
-3.82567e-09
1.62843e-08
-3.80865e-09
1.74978e-08
-3.7651e-09
1.86878e-08
-3.69631e-09
1.98471e-08
-3.60359e-09
2.09686e-08
-3.48834e-09
2.20459e-08
-3.35195e-09
2.30727e-08
-3.19584e-09
2.40435e-08
-3.02144e-09
2.49529e-08
-2.83017e-09
2.5796e-08
-2.62345e-09
2.65684e-08
-2.40268e-09
2.72662e-08
-2.16926e-09
2.78857e-08
-1.92458e-09
2.84237e-08
-1.67001e-09
2.88776e-08
-1.40693e-09
2.9245e-08
-1.13668e-09
2.95241e-08
-8.60629e-10
2.97134e-08
-5.80123e-10
2.98119e-08
-2.96519e-10
2.9819e-08
-1.11736e-11
2.97346e-08
2.74546e-10
2.95588e-08
5.59264e-10
2.92925e-08
8.4159e-10
2.89369e-08
1.12012e-09
2.84934e-08
1.39343e-09
2.79643e-08
1.66009e-09
2.7352e-08
1.91862e-09
2.66595e-08
2.16755e-09
2.58904e-08
2.40539e-09
2.50486e-08
2.6306e-09
2.41386e-08
2.84167e-09
2.31652e-08
3.03704e-09
2.21338e-08
3.21516e-09
2.10503e-08
3.3745e-09
1.9921e-08
3.5135e-09
1.87528e-08
3.63065e-09
1.75527e-08
3.72446e-09
1.63285e-08
3.79349e-09
1.50882e-08
3.83636e-09
1.38401e-08
3.85179e-09
1.2593e-08
3.83861e-09
1.13558e-08
3.7958e-09
1.01377e-08
3.72252e-09
8.94796e-09
3.61817e-09
7.79594e-09
3.48245e-09
6.69097e-09
3.31539e-09
5.64227e-09
3.11749e-09
4.65878e-09
2.88977e-09
3.74913e-09
2.63389e-09
2.92151e-09
2.35231e-09
2.18356e-09
2.04844e-09
1.54233e-09
1.72682e-09
1.00428e-09
1.39333e-09
5.75346e-10
1.05542e-09
2.61116e-10
7.22379e-10
6.72157e-11
4.05746e-10
1.19909e-10
8.75037e-11
-2.13552e-10
3.36008e-10
-6.69579e-10
7.33189e-10
-1.14122e-09
1.26801e-09
-1.61564e-09
1.93017e-09
-2.08233e-09
2.70969e-09
-2.53266e-09
3.59674e-09
-2.95961e-09
4.58144e-09
-3.35762e-09
5.65385e-09
-3.72238e-09
6.80389e-09
-4.05069e-09
8.0214e-09
-4.34027e-09
9.29616e-09
-4.58969e-09
1.0618e-08
-4.79815e-09
1.19766e-08
-4.96545e-09
1.33621e-08
-5.09182e-09
1.47645e-08
-5.17791e-09
1.61741e-08
-5.22465e-09
1.75817e-08
-5.23322e-09
1.8978e-08
-5.20502e-09
2.03545e-08
-5.14156e-09
2.17027e-08
-5.0445e-09
2.30147e-08
-4.91557e-09
2.42829e-08
-4.75656e-09
2.55003e-08
-4.56931e-09
2.66601e-08
-4.35568e-09
2.77562e-08
-4.11754e-09
2.87828e-08
-3.85676e-09
2.97346e-08
-3.57522e-09
3.06067e-08
-3.27477e-09
3.13948e-08
-2.95728e-09
3.20948e-08
-2.62459e-09
3.27033e-08
-2.27854e-09
3.32173e-08
-1.92094e-09
3.36343e-08
-1.55362e-09
3.39521e-08
-1.17839e-09
3.4169e-08
-7.97073e-10
3.4284e-08
-4.11484e-10
3.42963e-08
-2.3451e-11
3.42057e-08
3.65185e-10
3.40124e-08
7.5257e-10
3.37172e-08
1.13683e-09
3.33212e-08
1.51607e-09
3.28263e-08
1.88837e-09
3.22346e-08
2.25179e-09
3.15489e-08
2.60436e-09
3.07724e-08
2.94407e-09
2.99089e-08
3.26892e-09
2.89627e-08
3.57685e-09
2.79385e-08
3.86582e-09
2.68418e-08
4.13375e-09
2.56785e-08
4.37856e-09
2.44548e-08
4.59819e-09
2.31777e-08
4.79059e-09
2.18546e-08
4.95374e-09
2.04935e-08
5.08566e-09
1.91025e-08
5.18446e-09
1.76905e-08
5.24834e-09
1.62667e-08
5.2756e-09
1.48407e-08
5.26472e-09
1.34221e-08
5.21437e-09
1.20212e-08
5.12345e-09
1.06482e-08
4.99118e-09
9.31355e-09
4.81711e-09
8.02774e-09
4.60123e-09
6.80122e-09
4.34404e-09
5.64436e-09
4.04664e-09
4.56741e-09
3.71086e-09
3.58039e-09
3.33935e-09
2.69309e-09
2.93575e-09
1.9151e-09
2.50482e-09
1.25586e-09
2.05258e-09
7.24763e-10
1.58652e-09
3.31442e-10
1.1157e-09
8.60806e-11
6.51108e-10
2.05986e-10
1.03613e-10
-3.17164e-10
3.9663e-10
-9.62596e-10
8.62826e-10
-1.60742e-09
1.48736e-09
-2.24018e-09
2.25639e-09
-2.85136e-09
3.15675e-09
-3.43301e-09
4.17575e-09
-3.97861e-09
5.30106e-09
-4.48293e-09
6.52058e-09
-4.94191e-09
7.82242e-09
-5.35253e-09
9.19484e-09
-5.7127e-09
1.06263e-08
-6.02113e-09
1.21054e-08
-6.27723e-09
1.36209e-08
-6.481e-09
1.5162e-08
-6.63294e-09
1.67181e-08
-6.73394e-09
1.82787e-08
-6.78527e-09
1.98339e-08
-6.78844e-09
2.13741e-08
-6.74522e-09
2.28901e-08
-6.65753e-09
2.4373e-08
-6.52744e-09
2.58146e-08
-6.3571e-09
2.72068e-08
-6.14876e-09
2.85422e-08
-5.90472e-09
2.98138e-08
-5.62728e-09
3.1015e-08
-5.31879e-09
3.21398e-08
-4.9816e-09
3.31827e-08
-4.61804e-09
3.41384e-08
-4.23047e-09
3.50023e-08
-3.8212e-09
3.57702e-08
-3.39255e-09
3.64385e-08
-2.94684e-09
3.70039e-08
-2.48635e-09
3.74637e-08
-2.01339e-09
3.78156e-08
-1.53026e-09
3.80577e-08
-1.03924e-09
3.81889e-08
-5.42637e-10
3.82082e-08
-4.27766e-11
3.81154e-08
4.58009e-10
3.79106e-08
9.57364e-10
3.75945e-08
1.45291e-09
3.71684e-08
1.94222e-09
3.66339e-08
2.42287e-09
3.59933e-08
2.89237e-09
3.52494e-08
3.34821e-09
3.44056e-08
3.78784e-09
3.34659e-08
4.2087e-09
3.24345e-08
4.60818e-09
3.13167e-08
4.98366e-09
3.01179e-08
5.33249e-09
2.88445e-08
5.65205e-09
2.7503e-08
5.93969e-09
2.61007e-08
6.19282e-09
2.46456e-08
6.40887e-09
2.31459e-08
6.58534e-09
2.16106e-08
6.71982e-09
2.00489e-08
6.81003e-09
1.84706e-08
6.85381e-09
1.68861e-08
6.84923e-09
1.53059e-08
6.79457e-09
1.3741e-08
6.68841e-09
1.22025e-08
6.52967e-09
1.0702e-08
6.31766e-09
9.251e-09
6.05219e-09
7.86141e-09
5.73363e-09
6.54506e-09
5.36299e-09
5.31389e-09
4.94203e-09
4.17987e-09
4.47338e-09
3.15504e-09
3.9606e-09
2.2515e-09
3.40836e-09
1.48158e-09
2.82252e-09
8.5788e-10
2.21022e-09
3.93553e-10
1.58004e-09
1.02539e-10
9.42125e-10
3.08526e-10
1.17585e-10
-4.34748e-10
4.49535e-10
-1.29455e-09
9.76485e-10
-2.13437e-09
1.68043e-09
-2.94413e-09
2.54446e-09
-3.71539e-09
3.55255e-09
-4.4411e-09
4.68942e-09
-5.11549e-09
5.9404e-09
-5.73391e-09
7.29132e-09
-6.29284e-09
8.72849e-09
-6.7897e-09
1.02386e-08
-7.22283e-09
1.18088e-08
-7.59134e-09
1.34266e-08
-7.895e-09
1.50798e-08
-8.13422e-09
1.67567e-08
-8.30986e-09
1.8446e-08
-8.42326e-09
2.01368e-08
-8.47608e-09
2.18187e-08
-8.47028e-09
2.34815e-08
-8.40807e-09
2.51158e-08
-8.29182e-09
2.67124e-08
-8.12407e-09
2.82628e-08
-7.90746e-09
2.97587e-08
-7.6447e-09
3.11926e-08
-7.33857e-09
3.25571e-08
-6.99187e-09
3.38458e-08
-6.60742e-09
3.50522e-08
-6.18805e-09
3.61707e-08
-5.73657e-09
3.71961e-08
-5.25582e-09
3.81234e-08
-4.74859e-09
3.89485e-08
-4.21768e-09
3.96675e-08
-3.66586e-09
4.02771e-08
-3.09591e-09
4.07743e-08
-2.51061e-09
4.11567e-08
-1.91272e-09
4.14225e-08
-1.30503e-09
4.15702e-08
-6.90319e-10
4.15988e-08
-7.14062e-11
4.15079e-08
5.48875e-10
4.12976e-08
1.16766e-09
4.09684e-08
1.78204e-09
4.05215e-08
2.38909e-09
3.99585e-08
2.98582e-09
3.92817e-08
3.56919e-09
3.84937e-08
4.13615e-09
3.75979e-08
4.68357e-09
3.65983e-08
5.20829e-09
3.54993e-08
5.70714e-09
3.43061e-08
6.17688e-09
3.30243e-08
6.61428e-09
3.16602e-08
7.0161e-09
3.02207e-08
7.3791e-09
2.87135e-08
7.70008e-09
2.71464e-08
7.97588e-09
2.55283e-08
8.20342e-09
2.38684e-08
8.37971e-09
2.21765e-08
8.50193e-09
2.04628e-08
8.5674e-09
1.87384e-08
8.57368e-09
1.70143e-08
8.51857e-09
1.53025e-08
8.40024e-09
1.3615e-08
8.21717e-09
1.19643e-08
7.96835e-09
1.03632e-08
7.65323e-09
8.82492e-09
7.27189e-09
7.36283e-09
6.82507e-09
5.99059e-09
6.31426e-09
4.72216e-09
5.7418e-09
3.57174e-09
5.111e-09
2.55392e-09
4.42618e-09
1.68366e-09
3.69277e-09
9.76487e-10
2.9174e-09
4.48578e-10
2.10795e-09
1.17009e-10
1.2737e-09
4.25539e-10
1.29797e-10
-5.64544e-10
4.95855e-10
-1.6606e-09
1.07613e-09
-2.71464e-09
1.84988e-09
-3.71788e-09
2.79751e-09
-4.66303e-09
3.90048e-09
-5.54407e-09
5.14111e-09
-6.35612e-09
6.50259e-09
-7.09539e-09
7.96882e-09
-7.75908e-09
9.52442e-09
-8.3453e-09
1.11546e-08
-8.85304e-09
1.28453e-08
-9.282e-09
1.45828e-08
-9.63254e-09
1.63542e-08
-9.90563e-09
1.81471e-08
-1.01027e-08
1.99494e-08
-1.02256e-08
2.17499e-08
-1.02766e-08
2.35378e-08
-1.02581e-08
2.53026e-08
-1.01729e-08
2.70347e-08
-1.00239e-08
2.87248e-08
-9.81418e-09
3.03642e-08
-9.54685e-09
3.19446e-08
-9.22516e-09
3.34584e-08
-8.85239e-09
3.48984e-08
-8.43184e-09
3.62578e-08
-7.96683e-09
3.75304e-08
-7.46066e-09
3.87105e-08
-6.91665e-09
3.97927e-08
-6.33807e-09
4.07723e-08
-5.7282e-09
4.16449e-08
-5.0903e-09
4.24066e-08
-4.42761e-09
4.30541e-08
-3.74336e-09
4.35842e-08
-3.04078e-09
4.39946e-08
-2.32311e-09
4.42831e-08
-1.59359e-09
4.44483e-08
-8.5549e-10
4.44889e-08
-1.12102e-10
4.44045e-08
6.33252e-10
4.4195e-08
1.3772e-09
4.38606e-08
2.11634e-09
4.34025e-08
2.84719e-09
4.28221e-08
3.56624e-09
4.21213e-08
4.2699e-09
4.13029e-08
4.95454e-09
4.037e-08
5.61644e-09
3.93264e-08
6.25187e-09
3.81765e-08
6.85701e-09
3.69253e-08
7.42803e-09
3.55785e-08
7.96105e-09
3.41423e-08
8.45219e-09
3.26238e-08
8.89758e-09
3.10305e-08
9.29335e-09
2.93706e-08
9.63571e-09
2.76531e-08
9.92091e-09
2.58874e-08
1.01454e-08
2.40838e-08
1.03056e-08
2.22528e-08
1.03983e-08
2.04061e-08
1.04204e-08
1.85553e-08
1.03693e-08
1.67132e-08
1.02424e-08
1.48925e-08
1.00378e-08
1.3107e-08
9.75385e-09
1.13706e-08
9.38963e-09
9.69775e-09
8.94471e-09
8.10344e-09
8.41936e-09
6.60305e-09
7.81463e-09
5.21244e-09
7.1324e-09
3.94794e-09
6.37548e-09
2.82644e-09
5.54767e-09
1.86538e-09
4.65382e-09
1.08287e-09
3.69989e-09
4.97794e-10
2.69302e-09
1.29905e-10
1.64158e-09
5.5545e-10
1.40544e-10
-7.05088e-10
5.365e-10
-2.05656e-09
1.16339e-09
-3.34152e-09
1.998e-09
-4.55249e-09
3.01835e-09
-5.68337e-09
4.20355e-09
-6.72927e-09
5.53382e-09
-7.68639e-09
6.99035e-09
-8.55192e-09
8.55529e-09
-9.32402e-09
1.02117e-08
-1.00017e-08
1.19435e-08
-1.05848e-08
1.37353e-08
-1.10738e-08
1.55728e-08
-1.147e-08
1.74419e-08
-1.17748e-08
1.93298e-08
-1.19906e-08
2.12241e-08
-1.21199e-08
2.31129e-08
-1.21655e-08
2.49854e-08
-1.21306e-08
2.6831e-08
-1.20185e-08
2.86399e-08
-1.18328e-08
3.04028e-08
-1.15771e-08
3.21111e-08
-1.12552e-08
3.37567e-08
-1.08707e-08
3.53319e-08
-1.04276e-08
3.68297e-08
-9.92962e-09
3.82435e-08
-9.38057e-09
3.9567e-08
-8.78425e-09
4.07948e-08
-8.14442e-09
4.19216e-08
-7.46485e-09
4.29426e-08
-6.74924e-09
4.38536e-08
-6.00128e-09
4.46506e-08
-5.22465e-09
4.53303e-08
-4.42302e-09
4.58896e-08
-3.60004e-09
4.63259e-08
-2.75939e-09
4.6637e-08
-1.90473e-09
4.68213e-08
-1.03979e-09
4.68775e-08
-1.683e-10
4.68048e-08
7.05947e-10
4.66029e-08
1.5791e-09
4.62719e-08
2.44727e-09
4.58127e-08
3.30646e-09
4.52263e-08
4.15262e-09
4.45146e-08
4.98163e-09
4.36798e-08
5.78927e-09
4.2725e-08
6.57126e-09
4.16536e-08
7.32323e-09
4.04699e-08
8.04076e-09
3.91785e-08
8.71936e-09
3.77851e-08
9.3545e-09
3.62957e-08
9.9416e-09
3.47171e-08
1.04761e-08
3.3057e-08
1.09535e-08
3.13236e-08
1.13691e-08
2.95257e-08
1.17187e-08
2.76733e-08
1.19978e-08
2.57765e-08
1.22023e-08
2.38465e-08
1.23282e-08
2.18952e-08
1.23717e-08
1.99351e-08
1.23294e-08
1.79793e-08
1.21982e-08
1.60417e-08
1.19754e-08
1.41368e-08
1.16587e-08
1.22798e-08
1.12466e-08
1.04865e-08
1.0738e-08
8.77335e-09
1.01325e-08
7.15741e-09
9.43056e-09
5.65639e-09
8.63341e-09
4.28865e-09
7.7432e-09
3.07324e-09
6.76306e-09
2.02991e-09
5.69713e-09
1.17917e-09
4.55062e-09
5.42339e-10
3.32985e-09
1.41579e-10
2.04234e-09
6.9703e-10
1.50015e-10
-8.55102e-10
5.7206e-10
-2.4786e-09
1.2393e-09
-4.00876e-09
2.12621e-09
-5.4394e-09
3.20854e-09
-6.76569e-09
4.4633e-09
-7.98403e-09
5.86872e-09
-9.09181e-09
7.40423e-09
-1.00874e-08
9.05039e-09
-1.09702e-08
1.07889e-08
-1.17402e-08
1.26024e-08
-1.23983e-08
1.44746e-08
-1.29461e-08
1.63903e-08
-1.33856e-08
1.8335e-08
-1.37195e-08
2.02953e-08
-1.39509e-08
2.22584e-08
-1.4083e-08
2.42125e-08
-1.41195e-08
2.61464e-08
-1.40645e-08
2.80498e-08
-1.39218e-08
2.99128e-08
-1.36959e-08
3.17265e-08
-1.33908e-08
3.34824e-08
-1.3011e-08
3.51725e-08
-1.25608e-08
3.67895e-08
-1.20446e-08
3.83266e-08
-1.14667e-08
3.97774e-08
-1.08314e-08
4.11362e-08
-1.0143e-08
4.23974e-08
-9.40561e-09
4.3556e-08
-8.6235e-09
4.46076e-08
-7.80075e-09
4.55478e-08
-6.94147e-09
4.63729e-08
-6.04972e-09
4.70794e-08
-5.12954e-09
4.76643e-08
-4.18498e-09
4.81251e-08
-3.22009e-09
4.84593e-08
-2.23893e-09
4.86651e-08
-1.24562e-09
4.87411e-08
-2.44294e-10
4.86863e-08
7.60821e-10
4.85e-08
1.76545e-09
4.8182e-08
2.76521e-09
4.77329e-08
3.75565e-09
4.71533e-08
4.73222e-09
4.64447e-08
5.69025e-09
4.5609e-08
6.62497e-09
4.46488e-08
7.5315e-09
4.35672e-08
8.40488e-09
4.23679e-08
9.24004e-09
4.10555e-08
1.00318e-08
3.9635e-08
1.0775e-08
3.81124e-08
1.14643e-08
3.64942e-08
1.20944e-08
3.47877e-08
1.266e-08
3.30011e-08
1.31557e-08
3.11434e-08
1.35765e-08
2.92242e-08
1.39171e-08
2.72541e-08
1.41725e-08
2.52445e-08
1.43379e-08
2.32074e-08
1.44088e-08
2.11561e-08
1.43808e-08
1.91042e-08
1.42501e-08
1.70664e-08
1.40132e-08
1.50582e-08
1.36669e-08
1.30958e-08
1.3209e-08
1.11964e-08
1.26374e-08
9.37786e-09
1.19511e-08
7.65882e-09
1.11496e-08
6.0588e-09
1.02334e-08
4.59809e-09
9.20392e-09
3.29781e-09
8.06335e-09
2.1799e-09
6.81504e-09
1.26714e-09
5.46339e-09
5.83116e-10
4.01387e-09
1.523e-10
2.47315e-09
8.49325e-10
1.58298e-10
-1.0134e-09
6.02761e-10
-2.92306e-09
1.30418e-09
-4.71018e-09
2.23474e-09
-6.36995e-09
3.36804e-09
-7.89899e-09
4.6791e-09
-9.29508e-09
6.14433e-09
-1.0557e-08
7.74155e-09
-1.16846e-08
9.44991e-09
-1.26785e-08
1.12499e-08
-1.35401e-08
1.31232e-08
-1.42716e-08
1.50527e-08
-1.48756e-08
1.70226e-08
-1.53555e-08
1.90181e-08
-1.5715e-08
2.10253e-08
-1.59581e-08
2.30315e-08
-1.60892e-08
2.50249e-08
-1.61129e-08
2.69944e-08
-1.6034e-08
2.89299e-08
-1.58573e-08
3.08219e-08
-1.55879e-08
3.26617e-08
-1.52306e-08
3.44413e-08
-1.47906e-08
3.61531e-08
-1.42727e-08
3.77903e-08
-1.36818e-08
3.93465e-08
-1.30229e-08
4.08157e-08
-1.23006e-08
4.21924e-08
-1.15197e-08
4.34716e-08
-1.06848e-08
4.46486e-08
-9.80046e-09
4.5719e-08
-8.87115e-09
4.66789e-08
-7.9013e-09
4.75245e-08
-6.89532e-09
4.82525e-08
-5.85757e-09
4.886e-08
-4.7924e-09
4.93441e-08
-3.70418e-09
4.97025e-08
-2.59732e-09
4.99332e-08
-1.47623e-09
5.00343e-08
-3.45426e-10
5.00047e-08
7.90515e-10
4.98432e-08
1.92692e-09
4.95495e-08
3.05902e-09
4.91233e-08
4.18189e-09
4.8565e-08
5.29052e-09
4.78755e-08
6.37974e-09
4.70563e-08
7.44424e-09
4.61093e-08
8.47857e-09
4.5037e-08
9.47716e-09
4.38429e-08
1.04343e-08
4.25307e-08
1.13441e-08
4.11051e-08
1.22006e-08
3.95715e-08
1.29979e-08
3.79362e-08
1.37298e-08
3.62061e-08
1.43901e-08
3.43891e-08
1.49728e-08
3.24939e-08
1.54717e-08
3.05302e-08
1.58808e-08
2.85086e-08
1.61942e-08
2.64404e-08
1.64061e-08
2.43383e-08
1.6511e-08
2.22155e-08
1.65036e-08
2.00865e-08
1.63791e-08
1.79667e-08
1.61331e-08
1.58723e-08
1.57614e-08
1.38207e-08
1.52606e-08
1.18302e-08
1.46279e-08
9.92007e-09
1.38612e-08
8.11055e-09
1.29592e-08
6.42286e-09
1.19212e-08
4.87918e-09
1.07476e-08
3.50262e-09
9.43992e-09
2.31724e-09
8.00044e-09
1.348e-09
6.43264e-09
6.20763e-10
4.7411e-09
1.62252e-10
2.93166e-09
1.01157e-09
1.65376e-10
-1.17877e-09
6.28452e-10
-3.38614e-09
1.35754e-09
-5.43927e-09
2.32254e-09
-7.33494e-09
3.49492e-09
-9.07138e-09
4.84781e-09
-1.0648e-08
6.35596e-09
-1.20652e-08
7.9957e-09
-1.33244e-08
9.74498e-09
-1.44278e-08
1.15833e-08
-1.53784e-08
1.34915e-08
-1.61798e-08
1.54521e-08
-1.68362e-08
1.74488e-08
-1.73522e-08
1.94666e-08
-1.77328e-08
2.14918e-08
-1.79832e-08
2.35116e-08
-1.8109e-08
2.55146e-08
-1.81158e-08
2.749e-08
-1.80094e-08
2.94283e-08
-1.77955e-08
3.13204e-08
-1.748e-08
3.31583e-08
-1.70685e-08
3.49346e-08
-1.65668e-08
3.66423e-08
-1.59804e-08
3.82752e-08
-1.53147e-08
3.98276e-08
-1.45752e-08
4.12939e-08
-1.3767e-08
4.26695e-08
-1.28952e-08
4.39495e-08
-1.19648e-08
4.51298e-08
-1.09807e-08
4.62063e-08
-9.94769e-09
4.71754e-08
-8.87039e-09
4.80336e-08
-7.75348e-09
4.87776e-08
-6.60157e-09
4.94044e-08
-5.41923e-09
4.99113e-08
-4.21107e-09
5.02958e-08
-2.98173e-09
5.05554e-08
-1.73588e-09
5.06883e-08
-4.78306e-10
5.06927e-08
7.86139e-10
5.05672e-08
2.05246e-09
5.03107e-08
3.31553e-09
4.99226e-08
4.57005e-09
4.94025e-08
5.81059e-09
4.87508e-08
7.0315e-09
4.79681e-08
8.22697e-09
4.70557e-08
9.39099e-09
4.60154e-08
1.05174e-08
4.48499e-08
1.15998e-08
4.35624e-08
1.26316e-08
4.21567e-08
1.36063e-08
4.06378e-08
1.45168e-08
3.90112e-08
1.53564e-08
3.72833e-08
1.6118e-08
3.54617e-08
1.67944e-08
3.35547e-08
1.73787e-08
3.15717e-08
1.78638e-08
2.95231e-08
1.82427e-08
2.74205e-08
1.85087e-08
2.52764e-08
1.86551e-08
2.31044e-08
1.86755e-08
2.09196e-08
1.8564e-08
1.87377e-08
1.83149e-08
1.6576e-08
1.79231e-08
1.44527e-08
1.73839e-08
1.23872e-08
1.66934e-08
1.04003e-08
1.58482e-08
8.5135e-09
1.48459e-08
6.74984e-09
1.36848e-08
5.1333e-09
1.23642e-08
3.68895e-09
1.08843e-08
2.44296e-09
9.24645e-09
1.42248e-09
7.45312e-09
6.55672e-10
5.50792e-09
1.71555e-10
3.41578e-09
1.18312e-09
1.71123e-10
-1.3499e-09
6.48592e-10
-3.86361e-09
1.3981e-09
-6.18878e-09
2.38718e-09
-8.32402e-09
3.58522e-09
-1.02694e-08
4.96352e-09
-1.20263e-08
6.49528e-09
-1.35969e-08
8.15557e-09
-1.49847e-08
9.92131e-09
-1.61935e-08
1.17712e-08
-1.72283e-08
1.36858e-08
-1.80944e-08
1.5647e-08
-1.87975e-08
1.76387e-08
-1.93439e-08
1.96459e-08
-1.974e-08
2.16552e-08
-1.99925e-08
2.36544e-08
-2.01082e-08
2.56324e-08
-2.00939e-08
2.75794e-08
-1.99564e-08
2.94864e-08
-1.97025e-08
3.13453e-08
-1.93389e-08
3.31488e-08
-1.88721e-08
3.48905e-08
-1.83085e-08
3.65643e-08
-1.76542e-08
3.81648e-08
-1.69152e-08
3.9687e-08
-1.60974e-08
4.11264e-08
-1.52064e-08
4.24788e-08
-1.42476e-08
4.37401e-08
-1.32262e-08
4.49067e-08
-1.21473e-08
4.5975e-08
-1.1016e-08
4.69418e-08
-9.83714e-09
4.78037e-08
-8.61541e-09
4.85577e-08
-7.35559e-09
4.92008e-08
-6.06239e-09
4.97303e-08
-4.74053e-09
5.01433e-08
-3.39478e-09
5.04374e-08
-2.02996e-09
5.06101e-08
-6.51017e-10
5.06592e-08
7.36991e-10
5.05828e-08
2.12884e-09
5.03792e-08
3.51914e-09
5.00469e-08
4.90229e-09
4.9585e-08
6.27249e-09
4.89928e-08
7.62368e-09
4.82701e-08
8.94958e-09
4.74174e-08
1.02437e-08
4.64357e-08
1.14991e-08
4.53264e-08
1.2709e-08
4.4092e-08
1.38661e-08
4.27355e-08
1.49628e-08
4.12608e-08
1.59915e-08
3.96728e-08
1.69444e-08
3.79773e-08
1.78135e-08
3.6181e-08
1.85907e-08
3.42917e-08
1.92679e-08
3.23185e-08
1.9837e-08
3.02715e-08
2.02898e-08
2.81619e-08
2.06183e-08
2.60023e-08
2.08146e-08
2.38067e-08
2.08712e-08
2.15901e-08
2.07807e-08
1.93689e-08
2.05361e-08
1.71611e-08
2.0131e-08
1.49857e-08
1.95593e-08
1.28632e-08
1.88158e-08
1.08156e-08
1.78959e-08
8.86597e-09
1.67955e-08
7.0389e-09
1.55119e-08
5.36019e-09
1.40429e-08
3.85689e-09
1.23876e-08
2.55731e-09
1.0546e-08
1.49084e-09
8.51958e-09
6.88003e-10
6.31077e-09
1.80266e-10
3.92352e-09
1.36339e-09
1.75311e-10
-1.52521e-09
6.62233e-10
-4.35053e-09
1.42368e-09
-6.95022e-09
2.42474e-09
-9.32508e-09
3.63275e-09
-1.14774e-08
5.01725e-09
-1.34108e-08
6.55005e-09
-1.51297e-08
8.20514e-09
-1.66398e-08
9.95867e-09
-1.79471e-08
1.17889e-08
-1.90586e-08
1.36761e-08
-1.99816e-08
1.56023e-08
-2.07238e-08
1.75516e-08
-2.12932e-08
1.95095e-08
-2.1698e-08
2.14633e-08
-2.19463e-08
2.34016e-08
-2.20465e-08
2.53143e-08
-2.20066e-08
2.71925e-08
-2.18346e-08
2.90284e-08
-2.15384e-08
3.0815e-08
-2.11256e-08
3.25463e-08
-2.06034e-08
3.4217e-08
-1.99791e-08
3.58221e-08
-1.92593e-08
3.73574e-08
-1.84506e-08
3.88191e-08
-1.75591e-08
4.02036e-08
-1.65908e-08
4.15074e-08
-1.55515e-08
4.27276e-08
-1.44464e-08
4.38611e-08
-1.32808e-08
4.49049e-08
-1.20599e-08
4.58562e-08
-1.07884e-08
4.6712e-08
-9.47126e-09
4.74695e-08
-8.11312e-09
4.81258e-08
-6.7187e-09
4.86779e-08
-5.29271e-09
4.9123e-08
-3.83991e-09
4.94582e-08
-2.36515e-09
4.96805e-08
-8.73401e-10
4.97873e-08
6.30188e-10
4.97758e-08
2.14028e-09
4.96436e-08
3.65132e-09
4.93884e-08
5.15749e-09
4.90081e-08
6.65269e-09
4.85012e-08
8.13053e-09
4.78664e-08
9.58432e-09
4.7103e-08
1.1007e-08
4.62108e-08
1.23914e-08
4.51901e-08
1.37296e-08
4.40423e-08
1.50139e-08
4.27692e-08
1.62358e-08
4.13736e-08
1.7387e-08
3.98594e-08
1.84585e-08
3.82314e-08
1.94415e-08
3.64954e-08
2.03266e-08
3.46586e-08
2.11047e-08
3.27292e-08
2.17664e-08
3.07168e-08
2.23021e-08
2.86323e-08
2.27026e-08
2.64883e-08
2.29587e-08
2.42983e-08
2.30611e-08
2.20778e-08
2.30011e-08
1.98436e-08
2.27703e-08
1.7614e-08
2.23605e-08
1.54089e-08
2.17644e-08
1.32498e-08
2.09749e-08
1.11598e-08
1.99858e-08
9.16348e-09
1.87918e-08
7.28697e-09
1.73884e-08
5.55788e-09
1.5772e-08
4.00531e-09
1.39401e-08
2.6597e-09
1.18916e-08
1.55283e-09
9.62644e-09
7.17694e-10
7.1459e-09
1.88385e-10
4.45283e-09
1.55178e-09
1.77597e-10
-1.7028e-09
6.68003e-10
-4.84093e-09
1.43118e-09
-7.71339e-09
2.42974e-09
-1.03236e-08
3.62895e-09
-1.26766e-08
4.99675e-09
-1.47786e-08
6.50371e-09
-1.66367e-08
8.12299e-09
-1.8259e-08
9.83027e-09
-1.96544e-08
1.16036e-08
-2.08319e-08
1.34235e-08
-2.18014e-08
1.52725e-08
-2.25728e-08
1.71353e-08
-2.31559e-08
1.89983e-08
-2.3561e-08
2.08498e-08
-2.37979e-08
2.26798e-08
-2.38765e-08
2.44795e-08
-2.38063e-08
2.62415e-08
-2.35966e-08
2.79595e-08
-2.32564e-08
2.96281e-08
-2.27942e-08
3.12428e-08
-2.22181e-08
3.27997e-08
-2.15361e-08
3.42957e-08
-2.07553e-08
3.57277e-08
-1.98826e-08
3.70934e-08
-1.89248e-08
3.83903e-08
-1.78878e-08
3.96164e-08
-1.67775e-08
4.07694e-08
-1.55994e-08
4.18473e-08
-1.43587e-08
4.28478e-08
-1.30604e-08
4.37686e-08
-1.17092e-08
4.46072e-08
-1.03099e-08
4.5361e-08
-8.86691e-09
4.60271e-08
-7.38483e-09
4.66026e-08
-5.86818e-09
4.70842e-08
-4.32155e-09
4.74687e-08
-2.74965e-09
4.77526e-08
-1.15734e-09
4.79325e-08
4.50299e-10
4.80048e-08
2.06795e-09
4.79661e-08
3.69001e-09
4.7813e-08
5.31054e-09
4.75424e-08
6.92329e-09
4.71514e-08
8.52158e-09
4.66373e-08
1.00984e-08
4.5998e-08
1.16463e-08
4.5232e-08
1.31574e-08
4.43382e-08
1.46234e-08
4.33164e-08
1.60357e-08
4.2167e-08
1.73851e-08
4.08916e-08
1.86624e-08
3.94926e-08
1.98575e-08
3.79734e-08
2.09605e-08
3.6339e-08
2.19611e-08
3.45952e-08
2.28485e-08
3.27495e-08
2.36121e-08
3.08107e-08
2.42409e-08
2.87891e-08
2.47242e-08
2.66966e-08
2.50511e-08
2.45469e-08
2.52108e-08
2.23551e-08
2.51928e-08
2.01383e-08
2.4987e-08
1.79153e-08
2.45836e-08
1.57065e-08
2.39731e-08
1.35344e-08
2.31469e-08
1.14232e-08
2.20971e-08
9.39866e-09
2.08163e-08
7.4887e-09
1.92983e-08
5.7227e-09
1.75379e-08
4.1318e-09
1.5531e-08
2.74873e-09
1.32747e-08
1.60773e-09
1.07674e-08
7.44463e-10
8.00916e-09
1.95858e-10
5.00143e-09
1.74764e-09
1.77521e-10
-1.88032e-09
6.6407e-10
-5.32748e-09
1.41652e-09
-8.46584e-09
2.39496e-09
-1.13021e-08
3.56269e-09
-1.38444e-08
4.88619e-09
-1.61021e-08
6.33502e-09
-1.80855e-08
7.88183e-09
-1.98058e-08
9.50218e-09
-2.12747e-08
1.11744e-08
-2.25042e-08
1.28796e-08
-2.35066e-08
1.46011e-08
-2.42943e-08
1.63249e-08
-2.48797e-08
1.80389e-08
-2.52749e-08