/*--------------------------------*- C++ -*----------------------------------*\
  =========                 |
  \\      /  F ield         | OpenFOAM: The Open Source CFD Toolbox
   \\    /   O peration     | Website:  https://openfoam.org
    \\  /    A nd           | Version:  12
     \\/     M anipulation  |
\*---------------------------------------------------------------------------*/
FoamFile
{
    format      ascii;
    class       volScalarField;
    location    "4";
    object      epsilon;
}
// * * * * * * * * * * * * * * * * * * * * * * * * * * * * * * * * * * * * * //

dimensions      [0 2 -3 0 0 0 0];

internalField   nonuniform List<scalar> 
18225
(
2.49308e-07
4.70942e-07
9.99357e-07
1.63212e-06
2.34806e-06
3.1317e-06
3.97233e-06
4.86223e-06
5.79552e-06
6.76748e-06
7.77414e-06
8.8121e-06
9.87835e-06
1.09702e-05
1.20851e-05
1.32209e-05
1.43753e-05
1.55464e-05
1.67321e-05
1.79307e-05
1.91403e-05
2.03593e-05
2.15859e-05
2.28184e-05
2.40554e-05
2.52951e-05
2.65361e-05
2.77768e-05
2.90157e-05
3.02513e-05
3.14823e-05
3.2707e-05
3.39242e-05
3.51323e-05
3.63301e-05
3.75161e-05
3.86889e-05
3.98474e-05
4.099e-05
4.21156e-05
4.32229e-05
4.43106e-05
4.53774e-05
4.64222e-05
4.74437e-05
4.84408e-05
4.94123e-05
5.03572e-05
5.12742e-05
5.21624e-05
5.30206e-05
5.38478e-05
5.46431e-05
5.54054e-05
5.61337e-05
5.68273e-05
5.74851e-05
5.81063e-05
5.869e-05
5.92355e-05
5.97419e-05
6.02084e-05
6.06345e-05
6.10193e-05
6.13623e-05
6.16627e-05
6.192e-05
6.21336e-05
6.23032e-05
6.2428e-05
6.25078e-05
6.25421e-05
6.25305e-05
6.24727e-05
6.23685e-05
6.22176e-05
6.20199e-05
6.17751e-05
6.14833e-05
6.11445e-05
6.07586e-05
6.03257e-05
5.98461e-05
5.93199e-05
5.87473e-05
5.81288e-05
5.74648e-05
5.67556e-05
5.60019e-05
5.52042e-05
5.43633e-05
5.34798e-05
5.25547e-05
5.15889e-05
5.05832e-05
4.95389e-05
4.84569e-05
4.73386e-05
4.61853e-05
4.49983e-05
4.3779e-05
4.25291e-05
4.12501e-05
3.99438e-05
3.86119e-05
3.72562e-05
3.58789e-05
3.44817e-05
3.3067e-05
3.16368e-05
3.01935e-05
2.87393e-05
2.72768e-05
2.58085e-05
2.43369e-05
2.28649e-05
2.13953e-05
1.9931e-05
1.84751e-05
1.70307e-05
1.56013e-05
1.41903e-05
1.28016e-05
1.14391e-05
1.01071e-05
8.81038e-06
7.55409e-06
6.34419e-06
5.18761e-06
4.09273e-06
3.07034e-06
2.13505e-06
1.30765e-06
6.16302e-07
3.26263e-07
1.68678e-06
9.17397e-07
8.92198e-07
1.06599e-06
1.33486e-06
1.66214e-06
2.03068e-06
2.431e-06
2.85721e-06
3.30528e-06
3.77227e-06
4.25586e-06
4.75418e-06
5.26561e-06
5.78877e-06
6.3224e-06
6.86535e-06
7.41659e-06
7.97511e-06
8.53998e-06
9.1103e-06
9.68524e-06
1.02639e-05
1.08456e-05
1.14295e-05
1.20148e-05
1.26008e-05
1.31867e-05
1.37718e-05
1.43555e-05
1.4937e-05
1.55156e-05
1.60907e-05
1.66616e-05
1.72275e-05
1.7788e-05
1.83423e-05
1.88898e-05
1.94298e-05
1.99618e-05
2.04852e-05
2.09993e-05
2.15036e-05
2.19975e-05
2.24804e-05
2.29518e-05
2.34111e-05
2.38579e-05
2.42914e-05
2.47114e-05
2.51171e-05
2.55083e-05
2.58843e-05
2.62448e-05
2.65892e-05
2.69172e-05
2.72283e-05
2.7522e-05
2.77981e-05
2.8056e-05
2.82955e-05
2.85162e-05
2.87177e-05
2.88997e-05
2.90618e-05
2.92039e-05
2.93256e-05
2.94266e-05
2.95068e-05
2.95658e-05
2.96035e-05
2.96197e-05
2.96142e-05
2.95869e-05
2.95375e-05
2.94661e-05
2.93725e-05
2.92567e-05
2.91187e-05
2.89584e-05
2.87758e-05
2.8571e-05
2.83441e-05
2.80952e-05
2.78244e-05
2.75318e-05
2.72177e-05
2.68823e-05
2.65258e-05
2.61486e-05
2.57509e-05
2.53332e-05
2.48958e-05
2.44391e-05
2.39636e-05
2.34699e-05
2.29585e-05
2.24299e-05
2.18848e-05
2.13238e-05
2.07476e-05
2.0157e-05
1.95528e-05
1.89357e-05
1.83066e-05
1.76664e-05
1.7016e-05
1.63564e-05
1.56887e-05
1.50137e-05
1.43328e-05
1.36469e-05
1.29573e-05
1.22651e-05
1.15718e-05
1.08785e-05
1.01867e-05
9.49783e-06
8.81342e-06
8.13508e-06
7.4645e-06
6.80352e-06
6.15412e-06
5.51849e-06
4.89906e-06
4.29866e-06
3.72065e-06
3.16924e-06
2.65002e-06
2.17103e-06
1.74494e-06
1.39447e-06
1.16782e-06
1.20116e-06
2.20812e-06
3.75608e-06
1.83985e-06
1.41541e-06
1.33305e-06
1.3957e-06
1.53936e-06
1.73557e-06
1.96914e-06
2.23102e-06
2.51533e-06
2.818e-06
3.13609e-06
3.46735e-06
3.81e-06
4.16258e-06
4.52386e-06
4.89278e-06
5.26838e-06
5.64982e-06
6.03632e-06
6.42715e-06
6.82164e-06
7.21915e-06
7.61905e-06
8.02078e-06
8.42374e-06
8.82741e-06
9.23123e-06
9.6347e-06
1.00373e-05
1.04385e-05
1.08379e-05
1.12349e-05
1.16291e-05
1.202e-05
1.24072e-05
1.27902e-05
1.31686e-05
1.35419e-05
1.39096e-05
1.42715e-05
1.4627e-05
1.49758e-05
1.53174e-05
1.56515e-05
1.59777e-05
1.62955e-05
1.66046e-05
1.69047e-05
1.71954e-05
1.74763e-05
1.77472e-05
1.80076e-05
1.82572e-05
1.84958e-05
1.8723e-05
1.89385e-05
1.91421e-05
1.93334e-05
1.95122e-05
1.96782e-05
1.98313e-05
1.9971e-05
2.00972e-05
2.02098e-05
2.03084e-05
2.03929e-05
2.04631e-05
2.05188e-05
2.05599e-05
2.05862e-05
2.05976e-05
2.0594e-05
2.05752e-05
2.05412e-05
2.0492e-05
2.04273e-05
2.03473e-05
2.02518e-05
2.01409e-05
2.00147e-05
1.9873e-05
1.9716e-05
1.95438e-05
1.93564e-05
1.91539e-05
1.89366e-05
1.87045e-05
1.84578e-05
1.81969e-05
1.79217e-05
1.76328e-05
1.73302e-05
1.70144e-05
1.66856e-05
1.63443e-05
1.59907e-05
1.56254e-05
1.52487e-05
1.48612e-05
1.44633e-05
1.40556e-05
1.36385e-05
1.32127e-05
1.27788e-05
1.23375e-05
1.18893e-05
1.14351e-05
1.09754e-05
1.05112e-05
1.00431e-05
9.57204e-06
9.09888e-06
8.62452e-06
8.14992e-06
7.67609e-06
7.2041e-06
6.7351e-06
6.27029e-06
5.81101e-06
5.35871e-06
4.91502e-06
4.48175e-06
4.06107e-06
3.65551e-06
3.26824e-06
2.90335e-06
2.56636e-06
2.26515e-06
2.01178e-06
1.82629e-06
1.74612e-06
1.85521e-06
2.41188e-06
4.92266e-06
6.22347e-06
2.98303e-06
2.15598e-06
1.8507e-06
1.75304e-06
1.76565e-06
1.84705e-06
1.97578e-06
2.13927e-06
2.3295e-06
2.54099e-06
2.76984e-06
3.01315e-06
3.26866e-06
3.5346e-06
3.80951e-06
4.09218e-06
4.38157e-06
4.67677e-06
4.97698e-06
5.28146e-06
5.58957e-06
5.90069e-06
6.21424e-06
6.5297e-06
6.84655e-06
7.1643e-06
7.48249e-06
7.80067e-06
8.11841e-06
8.43528e-06
8.75086e-06
9.06477e-06
9.3766e-06
9.68597e-06
9.99251e-06
1.02958e-05
1.05956e-05
1.08915e-05
1.1183e-05
1.147e-05
1.1752e-05
1.20288e-05
1.22999e-05
1.25651e-05
1.28241e-05
1.30765e-05
1.33221e-05
1.35606e-05
1.37917e-05
1.4015e-05
1.42304e-05
1.44375e-05
1.46362e-05
1.48261e-05
1.50069e-05
1.51786e-05
1.53407e-05
1.54932e-05
1.56357e-05
1.57681e-05
1.58902e-05
1.60017e-05
1.61025e-05
1.61924e-05
1.62713e-05
1.6339e-05
1.63953e-05
1.644e-05
1.64732e-05
1.64946e-05
1.65041e-05
1.65017e-05
1.64872e-05
1.64606e-05
1.64219e-05
1.63709e-05
1.63077e-05
1.62322e-05
1.61445e-05
1.60444e-05
1.59322e-05
1.58078e-05
1.56712e-05
1.55226e-05
1.53621e-05
1.51897e-05
1.50057e-05
1.481e-05
1.4603e-05
1.43849e-05
1.41557e-05
1.39159e-05
1.36655e-05
1.3405e-05
1.31345e-05
1.28545e-05
1.25652e-05
1.22671e-05
1.19604e-05
1.16457e-05
1.13234e-05
1.09939e-05
1.06578e-05
1.03154e-05
9.96748e-06
9.61447e-06
9.257e-06
8.89569e-06
8.53121e-06
8.16425e-06
7.79553e-06
7.42584e-06
7.05598e-06
6.68684e-06
6.31934e-06
5.95449e-06
5.5934e-06
5.23727e-06
4.88744e-06
4.54545e-06
4.21304e-06
3.89229e-06
3.58568e-06
3.29632e-06
3.02815e-06
2.78645e-06
2.57852e-06
2.41499e-06
2.31247e-06
2.29921e-06
2.42973e-06
2.83189e-06
3.9182e-06
8.17209e-06
8.98088e-06
4.27313e-06
3.01995e-06
2.49557e-06
2.25151e-06
2.15149e-06
2.13887e-06
2.18511e-06
2.27385e-06
2.39477e-06
2.54096e-06
2.70751e-06
2.89079e-06
3.08803e-06
3.29706e-06
3.51613e-06
3.74381e-06
3.9789e-06
4.22036e-06
4.46729e-06
4.71891e-06
4.9745e-06
5.23344e-06
5.49512e-06
5.75902e-06
6.02462e-06
6.29144e-06
6.55904e-06
6.82699e-06
7.09488e-06
7.36232e-06
7.62892e-06
7.89433e-06
8.15819e-06
8.42014e-06
8.67986e-06
8.93701e-06
9.19128e-06
9.44235e-06
9.68992e-06
9.93367e-06
1.01733e-05
1.04086e-05
1.06392e-05
1.08648e-05
1.10853e-05
1.13002e-05
1.15094e-05
1.17126e-05
1.19095e-05
1.21e-05
1.22837e-05
1.24605e-05
1.263e-05
1.27922e-05
1.29467e-05
1.30934e-05
1.32321e-05
1.33625e-05
1.34845e-05
1.35979e-05
1.37026e-05
1.37982e-05
1.38848e-05
1.39621e-05
1.403e-05
1.40883e-05
1.41369e-05
1.41758e-05
1.42047e-05
1.42236e-05
1.42324e-05
1.4231e-05
1.42194e-05
1.41973e-05
1.4165e-05
1.41221e-05
1.40689e-05
1.40052e-05
1.3931e-05
1.38463e-05
1.37513e-05
1.36458e-05
1.35301e-05
1.34041e-05
1.32679e-05
1.31216e-05
1.29654e-05
1.27994e-05
1.26238e-05
1.24386e-05
1.22442e-05
1.20408e-05
1.18284e-05
1.16075e-05
1.13783e-05
1.11411e-05
1.08961e-05
1.06437e-05
1.03844e-05
1.01183e-05
9.84606e-06
9.56796e-06
9.28449e-06
8.99612e-06
8.70336e-06
8.40672e-06
8.10677e-06
7.80411e-06
7.49935e-06
7.19316e-06
6.88625e-06
6.57937e-06
6.27334e-06
5.96902e-06
5.66738e-06
5.36945e-06
5.0764e-06
4.78952e-06
4.51029e-06
4.24042e-06
3.98191e-06
3.73718e-06
3.50919e-06
3.30167e-06
3.11947e-06
2.96913e-06
2.85985e-06
2.80522e-06
2.82685e-06
2.96232e-06
3.28622e-06
3.97802e-06
5.62819e-06
1.1825e-05
1.19603e-05
5.67222e-06
3.96863e-06
3.22109e-06
2.83457e-06
2.62965e-06
2.53273e-06
2.50734e-06
2.53289e-06
2.59661e-06
2.69004e-06
2.80724e-06
2.94383e-06
3.09653e-06
3.26277e-06
3.44048e-06
3.62798e-06
3.82388e-06
4.02699e-06
4.2363e-06
4.45092e-06
4.67009e-06
4.89309e-06
5.11932e-06
5.34818e-06
5.57915e-06
5.81174e-06
6.0455e-06
6.28e-06
6.51481e-06
6.74957e-06
6.98389e-06
7.21743e-06
7.44983e-06
7.68078e-06
7.90995e-06
8.13703e-06
8.36173e-06
8.58376e-06
8.80282e-06
9.01863e-06
9.23094e-06
9.43947e-06
9.64396e-06
9.84417e-06
1.00398e-05
1.02307e-05
1.04166e-05
1.05972e-05
1.07724e-05
1.09418e-05
1.11054e-05
1.12628e-05
1.14139e-05
1.15584e-05
1.16963e-05
1.18272e-05
1.1951e-05
1.20676e-05
1.21767e-05
1.22782e-05
1.23719e-05
1.24577e-05
1.25354e-05
1.26048e-05
1.2666e-05
1.27186e-05
1.27627e-05
1.2798e-05
1.28245e-05
1.28422e-05
1.28508e-05
1.28504e-05
1.28408e-05
1.28221e-05
1.27941e-05
1.27568e-05
1.27103e-05
1.26544e-05
1.25892e-05
1.25148e-05
1.2431e-05
1.23381e-05
1.2236e-05
1.21248e-05
1.20045e-05
1.18754e-05
1.17374e-05
1.15908e-05
1.14356e-05
1.12721e-05
1.11004e-05
1.09208e-05
1.07334e-05
1.05384e-05
1.03363e-05
1.01271e-05
9.91132e-06
9.68915e-06
9.46096e-06
9.22713e-06
8.98805e-06
8.74411e-06
8.49577e-06
8.24348e-06
7.98774e-06
7.72906e-06
7.46801e-06
7.20518e-06
6.94118e-06
6.67669e-06
6.41244e-06
6.14921e-06
5.88783e-06
5.62922e-06
5.37441e-06
5.1245e-06
4.88078e-06
4.64466e-06
4.41781e-06
4.20214e-06
3.99995e-06
3.81404e-06
3.64786e-06
3.50585e-06
3.39378e-06
3.31953e-06
3.29431e-06
3.33497e-06
3.46874e-06
3.7438e-06
4.25739e-06
5.24655e-06
7.49752e-06
1.58038e-05
1.51118e-05
7.15459e-06
4.97964e-06
4.00317e-06
3.47447e-06
3.16802e-06
2.99189e-06
2.90095e-06
2.87e-06
2.8836e-06
2.93162e-06
3.00703e-06
3.10469e-06
3.22078e-06
3.3523e-06
3.49688e-06
3.65259e-06
3.81786e-06
3.99133e-06
4.17187e-06
4.35847e-06
4.55029e-06
4.74654e-06
4.94654e-06
5.14968e-06
5.35539e-06
5.56316e-06
5.77251e-06
5.98299e-06
6.19419e-06
6.4057e-06
6.61716e-06
6.82821e-06
7.03851e-06
7.24772e-06
7.45555e-06
7.66169e-06
7.86584e-06
8.06772e-06
8.26706e-06
8.46359e-06
8.65705e-06
8.84719e-06
9.03376e-06
9.21653e-06
9.39525e-06
9.56971e-06
9.73968e-06
9.90493e-06
1.00653e-05
1.02205e-05
1.03703e-05
1.05147e-05
1.06533e-05
1.0786e-05
1.09126e-05
1.10329e-05
1.11468e-05
1.12541e-05
1.13546e-05
1.14482e-05
1.15347e-05
1.16139e-05
1.16858e-05
1.17502e-05
1.1807e-05
1.1856e-05
1.18972e-05
1.19304e-05
1.19556e-05
1.19727e-05
1.19815e-05
1.1982e-05
1.19742e-05
1.19579e-05
1.19332e-05
1.19e-05
1.18583e-05
1.18081e-05
1.17494e-05
1.16822e-05
1.16066e-05
1.15225e-05
1.143e-05
1.13292e-05
1.12202e-05
1.11031e-05
1.0978e-05
1.0845e-05
1.07042e-05
1.05559e-05
1.04002e-05
1.02373e-05
1.00675e-05
9.89092e-06
9.70787e-06
9.51862e-06
9.32348e-06
9.12275e-06
8.91679e-06
8.70596e-06
8.49064e-06
8.27125e-06
8.04824e-06
7.82207e-06
7.59323e-06
7.36227e-06
7.12975e-06
6.89629e-06
6.66252e-06
6.42915e-06
6.19694e-06
5.9667e-06
5.73934e-06
5.51584e-06
5.29729e-06
5.08492e-06
4.88011e-06
4.68443e-06
4.49974e-06
4.32822e-06
4.17248e-06
4.0357e-06
3.92185e-06
3.83605e-06
3.78508e-06
3.77828e-06
3.82906e-06
3.95788e-06
4.19815e-06
4.60974e-06
5.31462e-06
6.61206e-06
9.49826e-06
2.00552e-05
1.83948e-05
8.70031e-06
6.03719e-06
4.82631e-06
4.15455e-06
3.74807e-06
3.49562e-06
3.34287e-06
3.25969e-06
3.22779e-06
3.23525e-06
3.27387e-06
3.33773e-06
3.42241e-06
3.5245e-06
3.64132e-06
3.7707e-06
3.91083e-06
4.06023e-06
4.21761e-06
4.38189e-06
4.55211e-06
4.72743e-06
4.9071e-06
5.09045e-06
5.27687e-06
5.4658e-06
5.65673e-06
5.84919e-06
6.04275e-06
6.23699e-06
6.43153e-06
6.62601e-06
6.82008e-06
7.01341e-06
7.20568e-06
7.39661e-06
7.58589e-06
7.77324e-06
7.95839e-06
8.14107e-06
8.32105e-06
8.49806e-06
8.67187e-06
8.84225e-06
9.00896e-06
9.17179e-06
9.33052e-06
9.48494e-06
9.63485e-06
9.78005e-06
9.92033e-06
1.00555e-05
1.01854e-05
1.03099e-05
1.04287e-05
1.05417e-05
1.06487e-05
1.07496e-05
1.08442e-05
1.09324e-05
1.1014e-05
1.10888e-05
1.11568e-05
1.12179e-05
1.12718e-05
1.13185e-05
1.13579e-05
1.13899e-05
1.14143e-05
1.14312e-05
1.14404e-05
1.14418e-05
1.14355e-05
1.14213e-05
1.13992e-05
1.13691e-05
1.13312e-05
1.12853e-05
1.12314e-05
1.11696e-05
1.11e-05
1.10224e-05
1.09371e-05
1.08441e-05
1.07434e-05
1.06351e-05
1.05195e-05
1.03965e-05
1.02664e-05
1.01293e-05
9.9854e-06
9.83491e-06
9.67805e-06
9.51506e-06
9.3462e-06
9.17174e-06
8.992e-06
8.8073e-06
8.61799e-06
8.42444e-06
8.22705e-06
8.02625e-06
7.82249e-06
7.61625e-06
7.40806e-06
7.19846e-06
6.98805e-06
6.77748e-06
6.56741e-06
6.35859e-06
6.15183e-06
5.94798e-06
5.74802e-06
5.55299e-06
5.3641e-06
5.18269e-06
5.01027e-06
4.84861e-06
4.69974e-06
4.56605e-06
4.45049e-06
4.35665e-06
4.28905e-06
4.25358e-06
4.25808e-06
4.31344e-06
4.43552e-06
4.64866e-06
4.99297e-06
5.54089e-06
6.44078e-06
8.05789e-06
1.16102e-05
2.45389e-05
2.1775e-05
1.02927e-05
7.12874e-06
5.67908e-06
4.86324e-06
4.35748e-06
4.03055e-06
3.8185e-06
3.68606e-06
3.61192e-06
3.58229e-06
3.58773e-06
3.62146e-06
3.6785e-06
3.75498e-06
3.84789e-06
3.95481e-06
4.07373e-06
4.20299e-06
4.3412e-06
4.48715e-06
4.63979e-06
4.79821e-06
4.96158e-06
5.1292e-06
5.30039e-06
5.47457e-06
5.6512e-06
5.82977e-06
6.00983e-06
6.19093e-06
6.37268e-06
6.5547e-06
6.73662e-06
6.91811e-06
7.09884e-06
7.2785e-06
7.45679e-06
7.63345e-06
7.80819e-06
7.98076e-06
8.15089e-06
8.31836e-06
8.48291e-06
8.64432e-06
8.80236e-06
8.95682e-06
9.10748e-06
9.25414e-06
9.3966e-06
9.53466e-06
9.66813e-06
9.79684e-06
9.92059e-06
1.00392e-05
1.01525e-05
1.02604e-05
1.03626e-05
1.04591e-05
1.05496e-05
1.06341e-05
1.07123e-05
1.07842e-05
1.08496e-05
1.09084e-05
1.09605e-05
1.10057e-05
1.1044e-05
1.10753e-05
1.10995e-05
1.11165e-05
1.11261e-05
1.11285e-05
1.11235e-05
1.1111e-05
1.1091e-05
1.10635e-05
1.10285e-05
1.09859e-05
1.09359e-05
1.08783e-05
1.08132e-05
1.07407e-05
1.06609e-05
1.05737e-05
1.04793e-05
1.03778e-05
1.02693e-05
1.0154e-05
1.0032e-05
9.90341e-06
9.7685e-06
9.62746e-06
9.48052e-06
9.32792e-06
9.16993e-06
9.00684e-06
8.83897e-06
8.66666e-06
8.49026e-06
8.31016e-06
8.12678e-06
7.94057e-06
7.75198e-06
7.56154e-06
7.36978e-06
7.17729e-06
6.98468e-06
6.79261e-06
6.60182e-06
6.41309e-06
6.2273e-06
6.04538e-06
5.86837e-06
5.69741e-06
5.53378e-06
5.37892e-06
5.23448e-06
5.10239e-06
4.98489e-06
4.88466e-06
4.80496e-06
4.74982e-06
4.72437e-06
4.73528e-06
4.79154e-06
4.90574e-06
5.0963e-06
5.39174e-06
5.83931e-06
6.52473e-06
7.62408e-06
9.57176e-06
1.38176e-05
2.92227e-05
2.5222e-05
1.19172e-05
8.24368e-06
6.55224e-06
5.59165e-06
4.9872e-06
4.58713e-06
4.31766e-06
4.1382e-06
4.0243e-06
3.96022e-06
3.93524e-06
3.9417e-06
3.97398e-06
4.02779e-06
4.09975e-06
4.18718e-06
4.28788e-06
4.40002e-06
4.52206e-06
4.6527e-06
4.79079e-06
4.93533e-06
5.08545e-06
5.24036e-06
5.39937e-06
5.56184e-06
5.72718e-06
5.89486e-06
6.0644e-06
6.23534e-06
6.40726e-06
6.57975e-06
6.75245e-06
6.92501e-06
7.09708e-06
7.26835e-06
7.43852e-06
7.60731e-06
7.77442e-06
7.93959e-06
8.10258e-06
8.26312e-06
8.42098e-06
8.57594e-06
8.72775e-06
8.87622e-06
9.02112e-06
9.16226e-06
9.29942e-06
9.43243e-06
9.5611e-06
9.68523e-06
9.80465e-06
9.91919e-06
1.00287e-05
1.0133e-05
1.02319e-05
1.03253e-05
1.0413e-05
1.04949e-05
1.05709e-05
1.06408e-05
1.07045e-05
1.07619e-05
1.08128e-05
1.08572e-05
1.08949e-05
1.09259e-05
1.09501e-05
1.09674e-05
1.09776e-05
1.09809e-05
1.0977e-05
1.0966e-05
1.09478e-05
1.09224e-05
1.08897e-05
1.08499e-05
1.08028e-05
1.07485e-05
1.06871e-05
1.06185e-05
1.05429e-05
1.04603e-05
1.03708e-05
1.02746e-05
1.01717e-05
1.00622e-05
9.94647e-06
9.82452e-06
9.69659e-06
9.5629e-06
9.42368e-06
9.27919e-06
9.12972e-06
8.97556e-06
8.81705e-06
8.65453e-06
8.48837e-06
8.31898e-06
8.14679e-06
7.97227e-06
7.79593e-06
7.61829e-06
7.43993e-06
7.26147e-06
7.08357e-06
6.90694e-06
6.73236e-06
6.56065e-06
6.39271e-06
6.22956e-06
6.07228e-06
5.92212e-06
5.78047e-06
5.64888e-06
5.52916e-06
5.42341e-06
5.33408e-06
5.26414e-06
5.2172e-06
5.19774e-06
5.21151e-06
5.26605e-06
5.37156e-06
5.54243e-06
5.79981e-06
6.1766e-06
6.72755e-06
7.55223e-06
8.8556e-06
1.11439e-05
1.61074e-05
3.40795e-05
2.87085e-05
1.35607e-05
9.37269e-06
7.43793e-06
6.33247e-06
5.63001e-06
5.15802e-06
4.83271e-06
4.60805e-06
4.45641e-06
4.36003e-06
4.30686e-06
4.28836e-06
4.29824e-06
4.33173e-06
4.38514e-06
4.45549e-06
4.54038e-06
4.63781e-06
4.7461e-06
4.86383e-06
4.98977e-06
5.12285e-06
5.26211e-06
5.40672e-06
5.55593e-06
5.70905e-06
5.86547e-06
6.02462e-06
6.18599e-06
6.3491e-06
6.51349e-06
6.67876e-06
6.8445e-06
7.01036e-06
7.17599e-06
7.34105e-06
7.50524e-06
7.66825e-06
7.8298e-06
7.98962e-06
8.14745e-06
8.30302e-06
8.45611e-06
8.60648e-06
8.75389e-06
8.89814e-06
9.03901e-06
9.17629e-06
9.30978e-06
9.4393e-06
9.56465e-06
9.68565e-06
9.80214e-06
9.91392e-06
1.00208e-05
1.01228e-05
1.02195e-05
1.03109e-05
1.03968e-05
1.04771e-05
1.05517e-05
1.06203e-05
1.0683e-05
1.07396e-05
1.07899e-05
1.08339e-05
1.08714e-05
1.09024e-05
1.09268e-05
1.09445e-05
1.09554e-05
1.09594e-05
1.09567e-05
1.09469e-05
1.09302e-05
1.09065e-05
1.08758e-05
1.08382e-05
1.07935e-05
1.07418e-05
1.06832e-05
1.06178e-05
1.05455e-05
1.04665e-05
1.03809e-05
1.02887e-05
1.01901e-05
1.00853e-05
9.97442e-06
9.85763e-06
9.73516e-06
9.60722e-06
9.47407e-06
9.33597e-06
9.19323e-06
9.04615e-06
8.89508e-06
8.7404e-06
8.5825e-06
8.42182e-06
8.25879e-06
8.09392e-06
7.92771e-06
7.76074e-06
7.5936e-06
7.42695e-06
7.26146e-06
7.09792e-06
6.93712e-06
6.77996e-06
6.62742e-06
6.48055e-06
6.34055e-06
6.20873e-06
6.08658e-06
5.9758e-06
5.87834e-06
5.79648e-06
5.7329e-06
5.69087e-06
5.67434e-06
5.68831e-06
5.73918e-06
5.83539e-06
5.98842e-06
6.21454e-06
6.53776e-06
6.99557e-06
7.65047e-06
8.61641e-06
1.01281e-05
1.27659e-05
1.84682e-05
3.9086e-05
3.22096e-05
1.52115e-05
1.05074e-05
8.32919e-06
7.07941e-06
6.2799e-06
5.73724e-06
5.35754e-06
5.0893e-06
4.90166e-06
4.77481e-06
4.69537e-06
4.65385e-06
4.64332e-06
4.65852e-06
4.69539e-06
4.75069e-06
4.82179e-06
4.90653e-06
5.00309e-06
5.10993e-06
5.22572e-06
5.34932e-06
5.47971e-06
5.61598e-06
5.75734e-06
5.90307e-06
6.0525e-06
6.20504e-06
6.36014e-06
6.51729e-06
6.67603e-06
6.83591e-06
6.99652e-06
7.15749e-06
7.31844e-06
7.47905e-06
7.63897e-06
7.79791e-06
7.95557e-06
8.11166e-06
8.26592e-06
8.4181e-06
8.56794e-06
8.7152e-06
8.85966e-06
9.00109e-06
9.13927e-06
9.27401e-06
9.4051e-06
9.53235e-06
9.65556e-06
9.77456e-06
9.88917e-06
9.99922e-06
1.01045e-05
1.0205e-05
1.03004e-05
1.03906e-05
1.04754e-05
1.05548e-05
1.06286e-05
1.06966e-05
1.07588e-05
1.0815e-05
1.08651e-05
1.0909e-05
1.09466e-05
1.09778e-05
1.10025e-05
1.10207e-05
1.10323e-05
1.10371e-05
1.10353e-05
1.10267e-05
1.10113e-05
1.0989e-05
1.09599e-05
1.0924e-05
1.08812e-05
1.08316e-05
1.07753e-05
1.07123e-05
1.06427e-05
1.05665e-05
1.04839e-05
1.03949e-05
1.02997e-05
1.01986e-05
1.00915e-05
9.97884e-06
9.86069e-06
9.73734e-06
9.60903e-06
9.47606e-06
9.33872e-06
9.19736e-06
9.05233e-06
8.90402e-06
8.75284e-06
8.59925e-06
8.44372e-06
8.28678e-06
8.12896e-06
7.97087e-06
7.81314e-06
7.65646e-06
7.50155e-06
7.34923e-06
7.20035e-06
7.05586e-06
6.9168e-06
6.7843e-06
6.65963e-06
6.5442e-06
6.43962e-06
6.3477e-06
6.27056e-06
6.21067e-06
6.17095e-06
6.15496e-06
6.16706e-06
6.21275e-06
6.29913e-06
6.43557e-06
6.6349e-06
6.91533e-06
7.30386e-06
7.84269e-06
8.60234e-06
9.71151e-06
1.14356e-05
1.44309e-05
2.08902e-05
4.42213e-05
3.57024e-05
1.68586e-05
1.16402e-05
9.2198e-06
7.82694e-06
6.93169e-06
6.31972e-06
5.88709e-06
5.57681e-06
5.35477e-06
5.19911e-06
5.09508e-06
5.03227e-06
5.00307e-06
5.00174e-06
5.02382e-06
5.06582e-06
5.1249e-06
5.1987e-06
5.28526e-06
5.38295e-06
5.49032e-06
5.60615e-06
5.72935e-06
5.85897e-06
5.99415e-06
6.13412e-06
6.2782e-06
6.42574e-06
6.57617e-06
6.72895e-06
6.88358e-06
7.03962e-06
7.19662e-06
7.35419e-06
7.51194e-06
7.66953e-06
7.82662e-06
7.98288e-06
8.138e-06
8.29171e-06
8.44372e-06
8.59377e-06
8.7416e-06
8.88697e-06
9.02964e-06
9.16939e-06
9.30601e-06
9.43927e-06
9.56898e-06
9.69494e-06
9.81696e-06
9.93486e-06
1.00485e-05
1.01576e-05
1.02621e-05
1.03618e-05
1.04565e-05
1.05462e-05
1.06306e-05
1.07096e-05
1.07831e-05
1.08509e-05
1.0913e-05
1.09692e-05
1.10194e-05
1.10635e-05
1.11013e-05
1.11329e-05
1.11582e-05
1.11769e-05
1.11892e-05
1.11949e-05
1.11939e-05
1.11863e-05
1.1172e-05
1.11509e-05
1.11232e-05
1.10887e-05
1.10475e-05
1.09996e-05
1.09451e-05
1.0884e-05
1.08164e-05
1.07424e-05
1.06622e-05
1.05757e-05
1.04832e-05
1.03848e-05
1.02808e-05
1.01713e-05
1.00565e-05
9.93673e-06
9.81222e-06
9.68327e-06
9.55022e-06
9.4134e-06
9.2732e-06
9.13003e-06
8.98431e-06
8.83653e-06
8.68719e-06
8.53683e-06
8.38603e-06
8.23541e-06
8.08566e-06
7.93749e-06
7.79168e-06
7.64907e-06
7.51059e-06
7.37723e-06
7.2501e-06
7.1304e-06
7.01949e-06
6.91888e-06
6.83027e-06
6.75564e-06
6.69725e-06
6.65778e-06
6.64041e-06
6.64898e-06
6.68829e-06
6.76439e-06
6.88505e-06
7.06065e-06
7.3054e-06
7.63953e-06
8.09308e-06
8.71311e-06
9.57835e-06
1.08326e-05
1.27726e-05
1.61322e-05
2.33642e-05
4.94665e-05
3.91658e-05
1.8492e-05
1.2764e-05
1.01041e-05
8.57012e-06
7.58079e-06
6.90108e-06
6.41705e-06
6.06626e-06
5.81135e-06
5.62843e-06
5.50137e-06
5.41883e-06
5.37253e-06
5.35624e-06
5.36513e-06
5.3954e-06
5.44401e-06
5.50842e-06
5.58654e-06
5.6766e-06
5.77706e-06
5.88662e-06
6.00413e-06
6.12856e-06
6.25902e-06
6.39468e-06
6.53481e-06
6.67876e-06
6.82589e-06
6.97566e-06
7.12753e-06
7.28104e-06
7.43573e-06
7.59118e-06
7.74699e-06
7.9028e-06
8.05825e-06
8.21301e-06
8.36676e-06
8.51921e-06
8.67007e-06
8.81906e-06
8.96592e-06
9.11041e-06
9.25229e-06
9.39131e-06
9.52727e-06
9.65994e-06
9.78913e-06
9.91462e-06
1.00362e-05
1.01538e-05
1.02671e-05
1.0376e-05
1.04803e-05
1.05799e-05
1.06745e-05
1.07641e-05
1.08486e-05
1.09276e-05
1.10013e-05
1.10693e-05
1.11316e-05
1.11881e-05
1.12386e-05
1.12831e-05
1.13215e-05
1.13536e-05
1.13794e-05
1.13988e-05
1.14117e-05
1.14182e-05
1.1418e-05
1.14113e-05
1.1398e-05
1.1378e-05
1.13513e-05
1.1318e-05
1.1278e-05
1.12314e-05
1.11784e-05
1.11188e-05
1.10528e-05
1.09805e-05
1.0902e-05
1.08175e-05
1.0727e-05
1.06308e-05
1.0529e-05
1.0422e-05
1.03098e-05
1.01928e-05
1.00712e-05
9.94541e-06
9.81573e-06
9.68251e-06
9.54617e-06
9.40712e-06
9.26583e-06
9.12279e-06
8.97854e-06
8.83364e-06
8.68871e-06
8.5444e-06
8.40143e-06
8.26056e-06
8.12261e-06
7.98847e-06
7.85911e-06
7.7356e-06
7.6191e-06
7.51089e-06
7.41243e-06
7.32531e-06
7.25137e-06
7.19271e-06
7.15179e-06
7.13146e-06
7.13519e-06
7.16713e-06
7.23253e-06
7.33797e-06
7.49196e-06
7.7059e-06
7.99541e-06
8.3828e-06
8.90123e-06
9.60271e-06
1.05744e-05
1.19754e-05
1.41343e-05
1.78641e-05
2.58819e-05
5.48039e-05
4.25805e-05
2.01027e-05
1.38726e-05
1.09771e-05
9.30452e-06
8.22314e-06
7.47748e-06
6.94369e-06
6.55395e-06
6.26768e-06
6.05899e-06
5.91038e-06
5.80959e-06
5.74765e-06
5.71784e-06
5.71498e-06
5.73495e-06
5.77452e-06
5.83095e-06
5.90202e-06
5.98582e-06
6.08075e-06
6.18539e-06
6.29853e-06
6.41909e-06
6.54612e-06
6.67874e-06
6.8162e-06
6.95778e-06
7.10284e-06
7.2508e-06
7.4011e-06
7.55324e-06
7.70675e-06
7.86119e-06
8.01615e-06
8.17124e-06
8.3261e-06
8.48039e-06
8.63376e-06
8.78593e-06
8.93658e-06
9.08544e-06
9.23223e-06
9.37671e-06
9.51863e-06
9.65774e-06
9.79382e-06
9.92666e-06
1.0056e-05
1.01818e-05
1.03036e-05
1.04215e-05
1.05351e-05
1.06443e-05
1.0749e-05
1.08489e-05
1.0944e-05
1.1034e-05
1.11189e-05
1.11984e-05
1.12725e-05
1.1341e-05
1.14039e-05
1.14609e-05
1.1512e-05
1.15571e-05
1.1596e-05
1.16287e-05
1.16552e-05
1.16753e-05
1.16889e-05
1.16961e-05
1.16967e-05
1.16908e-05
1.16783e-05
1.16591e-05
1.16334e-05
1.1601e-05
1.1562e-05
1.15165e-05
1.14645e-05
1.1406e-05
1.13412e-05
1.12702e-05
1.1193e-05
1.11099e-05
1.10209e-05
1.09263e-05
1.08263e-05
1.0721e-05
1.06108e-05
1.04958e-05
1.03765e-05
1.02531e-05
1.0126e-05
9.99563e-06
9.86231e-06
9.72653e-06
9.58878e-06
9.44958e-06
9.30949e-06
9.1691e-06
9.02906e-06
8.89007e-06
8.75286e-06
8.61825e-06
8.4871e-06
8.36036e-06
8.23904e-06
8.12428e-06
8.0173e-06
7.91948e-06
7.83233e-06
7.75759e-06
7.69721e-06
7.65342e-06
7.62887e-06
7.62663e-06
7.65039e-06
7.70474e-06
7.7953e-06
7.92921e-06
8.11577e-06
8.36738e-06
8.70115e-06
9.14147e-06
9.72471e-06
1.05079e-05
1.15867e-05
1.31358e-05
1.55162e-05
1.9621e-05
2.84357e-05
6.02173e-05
4.5929e-05
2.16824e-05
1.49602e-05
1.1834e-05
1.00261e-05
8.85515e-06
8.04554e-06
7.46375e-06
7.03667e-06
6.72059e-06
6.48759e-06
6.31886e-06
6.20121e-06
6.12502e-06
6.08306e-06
6.06979e-06
6.08081e-06
6.11263e-06
6.16239e-06
6.22768e-06
6.30651e-06
6.39713e-06
6.49809e-06
6.60808e-06
6.72596e-06
6.85073e-06
6.98147e-06
7.11739e-06
7.25772e-06
7.40181e-06
7.54902e-06
7.6988e-06
7.85061e-06
8.00395e-06
8.15838e-06
8.31345e-06
8.46878e-06
8.62398e-06
8.77868e-06
8.93256e-06
9.08529e-06
9.23657e-06
9.3861e-06
9.53361e-06
9.67883e-06
9.82152e-06
9.96142e-06
1.00983e-05
1.0232e-05
1.03622e-05
1.04887e-05
1.06115e-05
1.07301e-05
1.08446e-05
1.09546e-05
1.10601e-05
1.11609e-05
1.12567e-05
1.13476e-05
1.14332e-05
1.15135e-05
1.15884e-05
1.16577e-05
1.17213e-05
1.1779e-05
1.18309e-05
1.18767e-05
1.19163e-05
1.19498e-05
1.1977e-05
1.19978e-05
1.20121e-05
1.202e-05
1.20213e-05
1.20162e-05
1.20043e-05
1.19859e-05
1.19608e-05
1.19292e-05
1.1891e-05
1.18462e-05
1.1795e-05
1.17374e-05
1.16734e-05
1.16033e-05
1.15271e-05
1.14449e-05
1.1357e-05
1.12635e-05
1.11646e-05
1.10606e-05
1.09518e-05
1.08383e-05
1.07206e-05
1.0599e-05
1.04739e-05
1.03455e-05
1.02145e-05
1.00813e-05
9.94632e-06
9.81017e-06
9.67343e-06
9.53672e-06
9.40073e-06
9.26618e-06
9.13385e-06
9.0046e-06
8.87934e-06
8.75906e-06
8.64484e-06
8.53787e-06
8.43946e-06
8.35105e-06
8.27427e-06
8.21094e-06
8.16314e-06
8.13328e-06
8.12417e-06
8.13908e-06
8.18204e-06
8.25796e-06
8.37287e-06
8.53453e-06
8.75301e-06
9.04176e-06
9.41936e-06
9.91236e-06
1.05603e-05
1.14254e-05
1.26119e-05
1.43103e-05
1.69142e-05
2.13979e-05
3.1018e-05
6.56912e-05
4.91955e-05
2.32235e-05
1.60217e-05
1.26708e-05
1.07314e-05
9.47362e-06
8.60227e-06
7.97438e-06
7.51166e-06
7.16732e-06
6.9115e-06
6.72407e-06
6.59093e-06
6.5018e-06
6.44899e-06
6.42658e-06
6.42991e-06
6.45521e-06
6.49951e-06
6.56022e-06
6.63523e-06
6.72272e-06
6.82112e-06
6.92907e-06
7.04538e-06
7.16897e-06
7.29889e-06
7.4343e-06
7.5744e-06
7.71851e-06
7.86596e-06
8.01617e-06
8.16857e-06
8.32267e-06
8.47797e-06
8.63403e-06
8.79044e-06
8.9468e-06
9.10273e-06
9.25789e-06
9.41195e-06
9.56459e-06
9.71551e-06
9.86442e-06
1.00111e-05
1.01552e-05
1.02965e-05
1.04348e-05
1.05698e-05
1.07014e-05
1.08293e-05
1.09534e-05
1.10734e-05
1.11891e-05
1.13004e-05
1.14071e-05
1.15091e-05
1.16061e-05
1.1698e-05
1.17848e-05
1.18662e-05
1.19421e-05
1.20123e-05
1.20769e-05
1.21356e-05
1.21883e-05
1.2235e-05
1.22755e-05
1.23097e-05
1.23377e-05
1.23592e-05
1.23743e-05
1.23829e-05
1.23849e-05
1.23803e-05
1.23691e-05
1.23513e-05
1.23268e-05
1.22957e-05
1.2258e-05
1.22138e-05
1.21631e-05
1.21061e-05
1.20427e-05
1.19731e-05
1.18974e-05
1.18159e-05
1.17286e-05
1.16358e-05
1.15377e-05
1.14345e-05
1.13265e-05
1.1214e-05
1.10974e-05
1.0977e-05
1.08532e-05
1.07264e-05
1.05971e-05
1.04657e-05
1.03328e-05
1.0199e-05
1.00649e-05
9.93119e-06
9.79849e-06
9.66762e-06
9.5394e-06
9.41471e-06
9.29453e-06
9.17989e-06
9.07194e-06
8.97193e-06
8.88123e-06
8.80139e-06
8.73412e-06
8.68136e-06
8.64532e-06
8.62855e-06
8.63405e-06
8.66533e-06
8.72675e-06
8.82348e-06
8.96208e-06
9.15087e-06
9.4007e-06
9.72611e-06
1.01472e-05
1.06926e-05
1.14052e-05
1.23524e-05
1.36469e-05
1.54954e-05
1.83244e-05
2.31899e-05
3.3622e-05
7.12106e-05
5.2366e-05
2.47195e-05
1.70524e-05
1.34839e-05
1.14173e-05
1.00758e-05
9.1451e-06
8.47314e-06
7.97655e-06
7.60557e-06
7.3284e-06
7.12368e-06
6.97638e-06
6.87562e-06
6.81321e-06
6.78289e-06
6.7797e-06
6.79967e-06
6.83964e-06
6.8969e-06
6.9692e-06
7.05462e-06
7.15153e-06
7.25848e-06
7.37422e-06
7.49763e-06
7.62771e-06
7.76356e-06
7.90438e-06
8.04942e-06
8.198e-06
8.34951e-06
8.50337e-06
8.65904e-06
8.81602e-06
8.97386e-06
9.13212e-06
9.29038e-06
9.44827e-06
9.60541e-06
9.76148e-06
9.91614e-06
1.00691e-05
1.022e-05
1.03687e-05
1.05148e-05
1.0658e-05
1.07983e-05
1.09352e-05
1.10687e-05
1.11984e-05
1.13243e-05
1.1446e-05
1.15634e-05
1.16763e-05
1.17846e-05
1.18881e-05
1.19866e-05
1.208e-05
1.21681e-05
1.22507e-05
1.23279e-05
1.23994e-05
1.2465e-05
1.25248e-05
1.25786e-05
1.26262e-05
1.26676e-05
1.27028e-05
1.27315e-05
1.27538e-05
1.27696e-05
1.27788e-05
1.27815e-05
1.27775e-05
1.27668e-05
1.27495e-05
1.27254e-05
1.26948e-05
1.26575e-05
1.26136e-05
1.25632e-05
1.25065e-05
1.24433e-05
1.2374e-05
1.22987e-05
1.22174e-05
1.21304e-05
1.20379e-05
1.19401e-05
1.18373e-05
1.17298e-05
1.16178e-05
1.15018e-05
1.13821e-05
1.12591e-05
1.11333e-05
1.10051e-05
1.0875e-05
1.07437e-05
1.06116e-05
1.04795e-05
1.03481e-05
1.0218e-05
1.00901e-05
9.9653e-06
9.84447e-06
9.72865e-06
9.61892e-06
9.5165e-06
9.42269e-06
9.33897e-06
9.26694e-06
9.20843e-06
9.16548e-06
9.14044e-06
9.13604e-06
9.15541e-06
9.2024e-06
9.28157e-06
9.39849e-06
9.56016e-06
9.77551e-06
1.00562e-05
1.04178e-05
1.0882e-05
1.14796e-05
1.22567e-05
1.32859e-05
1.46887e-05
1.66878e-05
1.97429e-05
2.49922e-05
3.62408e-05
7.67613e-05
5.54285e-05
2.61648e-05
1.80485e-05
1.42701e-05
1.20811e-05
1.06592e-05
9.67184e-06
8.95795e-06
8.42935e-06
8.03336e-06
7.73637e-06
7.51575e-06
7.35564e-06
7.2445e-06
7.17372e-06
7.13666e-06
7.12811e-06
7.14386e-06
7.18059e-06
7.23545e-06
7.30608e-06
7.39046e-06
7.48687e-06
7.5938e-06
7.70993e-06
7.83408e-06
7.96522e-06
8.10242e-06
8.24481e-06
8.39163e-06
8.54217e-06
8.69578e-06
8.85187e-06
9.00987e-06
9.16928e-06
9.32961e-06
9.49041e-06
9.65126e-06