/*--------------------------------*- C++ -*----------------------------------*\
  =========                 |
  \\      /  F ield         | OpenFOAM: The Open Source CFD Toolbox
   \\    /   O peration     | Website:  https://openfoam.org
    \\  /    A nd           | Version:  12
     \\/     M anipulation  |
\*---------------------------------------------------------------------------*/
FoamFile
{
    format      ascii;
    class       volScalarField;
    location    "4";
    object      k;
}
// * * * * * * * * * * * * * * * * * * * * * * * * * * * * * * * * * * * * * //

dimensions      [0 2 -2 0 0 0 0];

internalField   nonuniform List<scalar> 
18225
(
6.80332e-11
5.14058e-10
1.09085e-09
1.78155e-09
2.56304e-09
3.41842e-09
4.33602e-09
5.3074e-09
6.32615e-09
7.3871e-09
8.48594e-09
9.61896e-09
1.07829e-08
1.19747e-08
1.31918e-08
1.44315e-08
1.56917e-08
1.697e-08
1.82644e-08
1.95728e-08
2.08933e-08
2.22239e-08
2.35629e-08
2.49084e-08
2.62588e-08
2.76122e-08
2.89669e-08
3.03214e-08
3.16739e-08
3.30229e-08
3.43668e-08
3.57039e-08
3.70327e-08
3.83517e-08
3.96594e-08
4.09543e-08
4.22349e-08
4.34997e-08
4.47473e-08
4.59764e-08
4.71854e-08
4.8373e-08
4.95379e-08
5.06788e-08
5.17943e-08
5.28831e-08
5.39441e-08
5.49759e-08
5.59774e-08
5.69473e-08
5.78846e-08
5.87881e-08
5.96567e-08
6.04893e-08
6.12849e-08
6.20425e-08
6.27611e-08
6.34397e-08
6.40774e-08
6.46734e-08
6.52267e-08
6.57366e-08
6.62022e-08
6.66228e-08
6.69976e-08
6.73261e-08
6.76075e-08
6.78412e-08
6.80268e-08
6.81636e-08
6.82511e-08
6.8289e-08
6.82768e-08
6.82142e-08
6.81008e-08
6.79365e-08
6.7721e-08
6.74542e-08
6.7136e-08
6.67664e-08
6.63454e-08
6.58732e-08
6.53499e-08
6.47756e-08
6.41508e-08
6.34758e-08
6.2751e-08
6.19769e-08
6.11542e-08
6.02835e-08
5.93655e-08
5.84011e-08
5.73911e-08
5.63367e-08
5.52387e-08
5.40985e-08
5.29172e-08
5.16963e-08
5.0437e-08
4.91409e-08
4.78096e-08
4.64448e-08
4.50482e-08
4.36217e-08
4.21673e-08
4.0687e-08
3.91829e-08
3.76573e-08
3.61124e-08
3.45506e-08
3.29744e-08
3.13864e-08
2.97892e-08
2.81857e-08
2.65787e-08
2.49712e-08
2.33662e-08
2.17671e-08
2.0177e-08
1.85996e-08
1.70386e-08
1.54977e-08
1.3981e-08
1.2493e-08
1.10383e-08
9.62209e-09
8.25007e-09
6.92871e-09
5.66556e-09
4.46982e-09
3.35323e-09
2.33177e-09
1.42813e-09
6.73086e-10
8.90808e-11
4.60303e-10
4.09846e-09
9.3515e-09
1.56537e-08
2.27471e-08
3.04842e-08
3.87675e-08
4.75264e-08
5.67061e-08
6.62617e-08
7.61555e-08
8.63547e-08
9.68303e-08
1.07556e-07
1.18508e-07
1.29663e-07
1.41001e-07
1.52502e-07
1.64146e-07
1.75917e-07
1.87796e-07
1.99766e-07
2.11811e-07
2.23914e-07
2.36061e-07
2.48235e-07
2.60421e-07
2.72605e-07
2.84771e-07
2.96905e-07
3.08993e-07
3.2102e-07
3.32973e-07
3.44838e-07
3.566e-07
3.68248e-07
3.79767e-07
3.91144e-07
4.02367e-07
4.13423e-07
4.24298e-07
4.34982e-07
4.45461e-07
4.55723e-07
4.65758e-07
4.75553e-07
4.85098e-07
4.9438e-07
5.0339e-07
5.12116e-07
5.20549e-07
5.28678e-07
5.36492e-07
5.43984e-07
5.51142e-07
5.57959e-07
5.64425e-07
5.70532e-07
5.76271e-07
5.81634e-07
5.86614e-07
5.91203e-07
5.95394e-07
5.99181e-07
6.02556e-07
6.05513e-07
6.08047e-07
6.10153e-07
6.11824e-07
6.13057e-07
6.13846e-07
6.14189e-07
6.14081e-07
6.1352e-07
6.12503e-07
6.11027e-07
6.0909e-07
6.06692e-07
6.03832e-07
6.00509e-07
5.96725e-07
5.92479e-07
5.87773e-07
5.82609e-07
5.76991e-07
5.7092e-07
5.64402e-07
5.5744e-07
5.50041e-07
5.4221e-07
5.33953e-07
5.25279e-07
5.16195e-07
5.0671e-07
4.96834e-07
4.86577e-07
4.75951e-07
4.64968e-07
4.5364e-07
4.4198e-07
4.30004e-07
4.17726e-07
4.05162e-07
3.92328e-07
3.79244e-07
3.65926e-07
3.52393e-07
3.38667e-07
3.24766e-07
3.10714e-07
2.96532e-07
2.82243e-07
2.67872e-07
2.53443e-07
2.38982e-07
2.24516e-07
2.10072e-07
1.9568e-07
1.8137e-07
1.67172e-07
1.53121e-07
1.3925e-07
1.25595e-07
1.12197e-07
9.90968e-08
8.63402e-08
7.39779e-08
6.20666e-08
5.06723e-08
3.98737e-08
2.977e-08
2.04947e-08
1.22466e-08
5.36791e-09
6.02891e-10
1.02499e-09
9.1952e-09
2.11178e-08
3.55209e-08
5.17976e-08
6.95905e-08
8.8662e-08
1.08841e-07
1.29995e-07
1.52018e-07
1.74821e-07
1.98329e-07
2.22473e-07
2.47193e-07
2.72432e-07
2.9814e-07
3.24269e-07
3.50772e-07
3.77606e-07
4.04729e-07
4.32101e-07
4.59684e-07
4.87439e-07
5.15328e-07
5.43317e-07
5.71369e-07
5.99449e-07
6.27523e-07
6.55557e-07
6.83518e-07
7.11373e-07
7.39088e-07
7.66632e-07
7.93974e-07
8.21081e-07
8.47923e-07
8.7447e-07
9.0069e-07
9.26555e-07
9.52035e-07
9.77102e-07
1.00173e-06
1.02588e-06
1.04954e-06
1.07267e-06
1.09525e-06
1.11725e-06
1.13865e-06
1.15943e-06
1.17955e-06
1.19899e-06
1.21774e-06
1.23576e-06
1.25304e-06
1.26955e-06
1.28527e-06
1.30019e-06
1.31428e-06
1.32752e-06
1.3399e-06
1.3514e-06
1.36199e-06
1.37167e-06
1.38042e-06
1.38821e-06
1.39505e-06
1.40091e-06
1.40579e-06
1.40966e-06
1.41253e-06
1.41437e-06
1.41518e-06
1.41496e-06
1.41369e-06
1.41137e-06
1.40799e-06
1.40355e-06
1.39805e-06
1.39148e-06
1.38384e-06
1.37514e-06
1.36537e-06
1.35454e-06
1.34266e-06
1.32973e-06
1.31575e-06
1.30075e-06
1.28472e-06
1.26767e-06
1.24964e-06
1.23062e-06
1.21063e-06
1.1897e-06
1.16785e-06
1.14509e-06
1.12145e-06
1.09696e-06
1.07164e-06
1.04553e-06
1.01865e-06
9.91041e-07
9.62734e-07
9.33766e-07
9.04176e-07
8.74004e-07
8.43294e-07
8.12087e-07
7.80431e-07
7.48374e-07
7.15964e-07
6.83254e-07
6.50296e-07
6.17147e-07
5.83863e-07
5.50504e-07
5.17133e-07
4.83812e-07
4.50609e-07
4.17592e-07
3.84835e-07
3.52413e-07
3.20405e-07
2.88898e-07
2.5798e-07
2.27749e-07
1.98311e-07
1.69784e-07
1.42302e-07
1.16021e-07
9.11291e-08
6.78666e-08
4.6559e-08
2.76873e-08
1.20571e-08
1.34405e-09
1.69831e-09
1.52608e-08
3.51219e-08
5.91976e-08
8.64809e-08
1.16366e-07
1.48445e-07
1.82418e-07
2.18057e-07
2.55176e-07
2.93622e-07
3.33261e-07
3.73979e-07
4.15671e-07
4.58243e-07
5.01606e-07
5.45679e-07
5.90385e-07
6.35649e-07
6.81403e-07
7.27577e-07
7.74106e-07
8.20926e-07
8.67975e-07
9.15191e-07
9.62515e-07
1.00989e-06
1.05725e-06
1.10455e-06
1.15172e-06
1.19872e-06
1.24548e-06
1.29195e-06
1.33809e-06
1.38383e-06
1.42913e-06
1.47392e-06
1.51817e-06
1.56183e-06
1.60483e-06
1.64714e-06
1.68871e-06
1.72948e-06
1.76942e-06
1.80847e-06
1.84659e-06
1.88375e-06
1.91989e-06
1.95497e-06
1.98895e-06
2.0218e-06
2.05346e-06
2.08391e-06
2.11311e-06
2.14101e-06
2.16759e-06
2.19281e-06
2.21663e-06
2.23903e-06
2.25997e-06
2.27942e-06
2.29735e-06
2.31374e-06
2.32855e-06
2.34177e-06
2.35337e-06
2.36332e-06
2.37161e-06
2.37821e-06
2.3831e-06
2.38628e-06
2.38771e-06
2.3874e-06
2.38532e-06
2.38146e-06
2.37582e-06
2.36839e-06
2.35916e-06
2.34812e-06
2.33529e-06
2.32066e-06
2.30423e-06
2.28601e-06
2.266e-06
2.24422e-06
2.22067e-06
2.19538e-06
2.16836e-06
2.13963e-06
2.10922e-06
2.07714e-06
2.04343e-06
2.00813e-06
1.97125e-06
1.93285e-06
1.89296e-06
1.85163e-06
1.80889e-06
1.76481e-06
1.71944e-06
1.67282e-06
1.62502e-06
1.57611e-06
1.52614e-06
1.47518e-06
1.42331e-06
1.3706e-06
1.31713e-06
1.26297e-06
1.20822e-06
1.15296e-06
1.09727e-06
1.04126e-06
9.85022e-07
9.28654e-07
8.72261e-07
8.15953e-07
7.59843e-07
7.04047e-07
6.48688e-07
5.93896e-07
5.39807e-07
4.86563e-07
4.3432e-07
3.83244e-07
3.33518e-07
2.85344e-07
2.38955e-07
1.94621e-07
1.52672e-07
1.13526e-07
7.77416e-08
4.61359e-08
2.00491e-08
2.23126e-09
2.45078e-09
2.20358e-08
5.0761e-08
8.56457e-08
1.25246e-07
1.68688e-07
2.15374e-07
2.64863e-07
3.16816e-07
3.70955e-07
4.27052e-07
4.84909e-07
5.44353e-07
6.05229e-07
6.67398e-07
7.30729e-07
7.95103e-07
8.60404e-07
9.26527e-07
9.93366e-07
1.06082e-06
1.1288e-06
1.19721e-06
1.26595e-06
1.33494e-06
1.40409e-06
1.47331e-06
1.54252e-06
1.61164e-06
1.68058e-06
1.74926e-06
1.81761e-06
1.88554e-06
1.95298e-06
2.01984e-06
2.08606e-06
2.15155e-06
2.21625e-06
2.28008e-06
2.34297e-06
2.40484e-06
2.46563e-06
2.52527e-06
2.58368e-06
2.64082e-06
2.6966e-06
2.75096e-06
2.80385e-06
2.85519e-06
2.90494e-06
2.95302e-06
2.99939e-06
3.04398e-06
3.08674e-06
3.12762e-06
3.16657e-06
3.20353e-06
3.23846e-06
3.2713e-06
3.30202e-06
3.33056e-06
3.35689e-06
3.38097e-06
3.40275e-06
3.42219e-06
3.43927e-06
3.45395e-06
3.46619e-06
3.47596e-06
3.48325e-06
3.48801e-06
3.49024e-06
3.4899e-06
3.487e-06
3.48148e-06
3.47336e-06
3.46261e-06
3.44924e-06
3.43322e-06
3.41458e-06
3.39329e-06
3.36937e-06
3.34283e-06
3.31367e-06
3.28191e-06
3.24757e-06
3.21067e-06
3.17124e-06
3.12929e-06
3.08488e-06
3.03803e-06
2.98878e-06
2.93719e-06
2.8833e-06
2.82717e-06
2.76885e-06
2.70841e-06
2.64592e-06
2.58145e-06
2.51507e-06
2.44688e-06
2.37695e-06
2.30537e-06
2.23224e-06
2.15767e-06
2.08175e-06
2.00459e-06
1.92631e-06
1.84703e-06
1.76687e-06
1.68595e-06
1.60442e-06
1.5224e-06
1.44005e-06
1.3575e-06
1.27492e-06
1.19246e-06
1.11029e-06
1.02858e-06
9.47513e-07
8.67279e-07
7.8808e-07
7.10129e-07
6.33655e-07
5.58904e-07
4.86151e-07
4.15697e-07
3.4789e-07
2.83134e-07
2.21918e-07
1.6486e-07
1.1278e-07
6.68608e-08
2.90286e-08
3.22863e-09
3.26384e-09
2.93547e-08
6.76535e-08
1.14214e-07
1.67126e-07
2.25231e-07
2.87732e-07
3.54039e-07
4.2369e-07
4.96312e-07
5.71592e-07
6.4926e-07
7.29082e-07
8.10845e-07
8.94359e-07
9.79448e-07
1.06595e-06
1.1537e-06
1.24257e-06
1.33241e-06
1.42309e-06
1.51447e-06
1.60643e-06
1.69885e-06
1.79161e-06
1.88459e-06
1.97767e-06
2.07075e-06
2.1637e-06
2.25643e-06
2.34881e-06
2.44075e-06
2.53213e-06
2.62286e-06
2.71282e-06
2.80192e-06
2.89005e-06
2.97712e-06
3.06303e-06
3.14768e-06
3.23097e-06
3.31281e-06
3.39312e-06
3.47179e-06
3.54873e-06
3.62387e-06
3.69711e-06
3.76837e-06
3.83757e-06
3.90461e-06
3.96944e-06
4.03196e-06
4.0921e-06
4.14979e-06
4.20495e-06
4.25752e-06
4.30742e-06
4.3546e-06
4.39898e-06
4.4405e-06
4.4791e-06
4.51473e-06
4.54733e-06
4.57685e-06
4.60323e-06
4.62642e-06
4.64639e-06
4.66308e-06
4.67646e-06
4.68649e-06
4.69313e-06
4.69635e-06
4.69612e-06
4.69244e-06
4.68524e-06
4.67452e-06
4.66027e-06
4.64248e-06
4.62114e-06
4.59624e-06
4.56778e-06
4.53578e-06
4.50023e-06
4.46116e-06
4.41857e-06
4.3725e-06
4.32297e-06
4.27002e-06
4.21369e-06
4.15401e-06
4.09104e-06
4.02483e-06
3.95546e-06
3.88297e-06
3.80745e-06
3.72898e-06
3.64763e-06
3.56351e-06
3.47671e-06
3.38733e-06
3.29549e-06
3.20129e-06
3.10487e-06
3.00635e-06
2.90586e-06
2.80355e-06
2.69956e-06
2.59406e-06
2.48719e-06
2.37913e-06
2.27005e-06
2.16012e-06
2.04955e-06
1.93851e-06
1.82721e-06
1.71586e-06
1.60467e-06
1.49388e-06
1.38371e-06
1.27441e-06
1.16625e-06
1.0595e-06
9.54438e-07
8.51391e-07
7.50695e-07
6.5272e-07
5.57883e-07
4.66656e-07
3.7959e-07
2.97349e-07
2.20762e-07
1.5093e-07
8.94264e-08
3.88071e-08
4.31499e-09
4.12382e-09
3.70952e-08
8.55171e-08
1.44422e-07
2.11413e-07
2.85031e-07
3.64273e-07
4.48393e-07
5.36804e-07
6.2903e-07
7.24669e-07
8.23378e-07
9.24851e-07
1.02882e-06
1.13504e-06
1.24328e-06
1.35333e-06
1.46499e-06
1.57808e-06
1.69243e-06
1.80784e-06
1.92417e-06
2.04125e-06
2.15892e-06
2.27703e-06
2.39543e-06
2.51398e-06
2.63252e-06
2.75092e-06
2.86904e-06
2.98673e-06
3.10386e-06
3.2203e-06
3.33592e-06
3.45057e-06
3.56414e-06
3.67648e-06
3.78749e-06
3.89702e-06
4.00496e-06
4.11119e-06
4.21558e-06
4.31802e-06
4.4184e-06
4.51659e-06
4.61249e-06
4.70599e-06
4.79697e-06
4.88534e-06
4.97098e-06
5.05381e-06
5.13371e-06
5.21059e-06
5.28435e-06
5.35491e-06
5.42217e-06
5.48605e-06
5.54646e-06
5.60332e-06
5.65654e-06
5.70606e-06
5.75179e-06
5.79367e-06
5.83163e-06
5.86559e-06
5.89551e-06
5.92131e-06
5.94294e-06
5.96035e-06
5.97349e-06
5.98231e-06
5.98677e-06
5.98683e-06
5.98249e-06
5.97366e-06
5.96034e-06
5.94252e-06
5.92017e-06
5.89328e-06
5.86185e-06
5.82587e-06
5.78536e-06
5.74032e-06
5.69077e-06
5.63672e-06
5.57822e-06
5.51529e-06
5.44798e-06
5.37633e-06
5.3004e-06
5.22025e-06
5.13596e-06
5.0476e-06
4.95525e-06
4.85901e-06
4.75898e-06
4.65528e-06
4.548e-06
4.43729e-06
4.32326e-06
4.20607e-06
4.08586e-06
3.96279e-06
3.83701e-06
3.70872e-06
3.57808e-06
3.44529e-06
3.31054e-06
3.17404e-06
3.036e-06
2.89665e-06
2.75621e-06
2.61494e-06
2.47307e-06
2.33086e-06
2.18859e-06
2.04653e-06
1.90497e-06
1.76422e-06
1.6246e-06
1.48644e-06
1.35009e-06
1.21594e-06
1.08438e-06
9.55859e-07
8.30851e-07
7.09893e-07
5.93594e-07
4.82659e-07
3.77936e-07
2.8048e-07
1.91683e-07
1.13533e-07
4.92543e-08
5.47576e-09
5.01971e-09
4.51583e-08
1.04124e-07
1.75887e-07
2.5754e-07
3.47319e-07
4.44005e-07
5.46693e-07
6.54668e-07
7.67348e-07
8.8424e-07
1.00492e-06
1.12902e-06
1.2562e-06
1.38616e-06
1.51862e-06
1.65332e-06
1.79001e-06
1.92848e-06
2.06849e-06
2.20983e-06
2.35231e-06
2.49572e-06
2.63987e-06
2.78457e-06
2.92965e-06
3.07492e-06
3.2202e-06
3.36532e-06
3.51011e-06
3.65439e-06
3.79801e-06
3.94079e-06
4.08257e-06
4.2232e-06
4.36251e-06
4.50034e-06
4.63654e-06
4.77096e-06
4.90345e-06
5.03385e-06
5.16202e-06
5.28782e-06
5.41111e-06
5.53173e-06
5.64957e-06
5.76447e-06
5.87632e-06
5.98497e-06
6.09031e-06
6.1922e-06
6.29052e-06
6.38516e-06
6.476e-06
6.56292e-06
6.64582e-06
6.72458e-06
6.7991e-06
6.86928e-06
6.93502e-06
6.99622e-06
7.0528e-06
7.10466e-06
7.15171e-06
7.19388e-06
7.23108e-06
7.26325e-06
7.29031e-06
7.31219e-06
7.32884e-06
7.34018e-06
7.34618e-06
7.34679e-06
7.34197e-06
7.33166e-06
7.31582e-06
7.29445e-06
7.26751e-06
7.23499e-06
7.19689e-06
7.15319e-06
7.10391e-06
7.04905e-06
6.98863e-06
6.92268e-06
6.85123e-06
6.77432e-06
6.69201e-06
6.60435e-06
6.5114e-06
6.41325e-06
6.30999e-06
6.20169e-06
6.08848e-06
5.97045e-06
5.84774e-06
5.72048e-06
5.58881e-06
5.45288e-06
5.31286e-06
5.16892e-06
5.02124e-06
4.87002e-06
4.71545e-06
4.55776e-06
4.39717e-06
4.2339e-06
4.06821e-06
3.90036e-06
3.73059e-06
3.5592e-06
3.38646e-06
3.21268e-06
3.03816e-06
2.86323e-06
2.68821e-06
2.51346e-06
2.33933e-06
2.1662e-06
1.99448e-06
1.82457e-06
1.65692e-06
1.49199e-06
1.33028e-06
1.17235e-06
1.01878e-06
8.70237e-07
7.27471e-07
5.9135e-07
4.62912e-07
3.43448e-07
2.34655e-07
1.38953e-07
6.02718e-08
6.69997e-09
5.94212e-09
5.34598e-08
1.2328e-07
2.08278e-07
3.05025e-07
4.1144e-07
5.26088e-07
6.47898e-07
7.76026e-07
9.09783e-07
1.04858e-06
1.19193e-06
1.33936e-06
1.4905e-06
1.64497e-06
1.80244e-06
1.9626e-06
2.12517e-06
2.28986e-06
2.45641e-06
2.62458e-06
2.79411e-06
2.96478e-06
3.13635e-06
3.3086e-06
3.48131e-06
3.65428e-06
3.82727e-06
4.0001e-06
4.17256e-06
4.34444e-06
4.51554e-06
4.68567e-06
4.85464e-06
5.02225e-06
5.18832e-06
5.35265e-06
5.51507e-06
5.67539e-06
5.83343e-06
5.98902e-06
6.14197e-06
6.29213e-06
6.43931e-06
6.58335e-06
6.7241e-06
6.86138e-06
6.99504e-06
7.12492e-06
7.25087e-06
7.37275e-06
7.4904e-06
7.60369e-06
7.71247e-06
7.81661e-06
7.91597e-06
8.01042e-06
8.09984e-06
8.18411e-06
8.26311e-06
8.33671e-06
8.40482e-06
8.46732e-06
8.5241e-06
8.57507e-06
8.62014e-06
8.65921e-06
8.6922e-06
8.71902e-06
8.7396e-06
8.75386e-06
8.76175e-06
8.76319e-06
8.75817e-06
8.74659e-06
8.72842e-06
8.70362e-06
8.67218e-06
8.63406e-06
8.58926e-06
8.53777e-06
8.47959e-06
8.41474e-06
8.34322e-06
8.26508e-06
8.18035e-06
8.08907e-06
7.99131e-06
7.88712e-06
7.7766e-06
7.65983e-06
7.53691e-06
7.40795e-06
7.27308e-06
7.13242e-06
6.98613e-06
6.83436e-06
6.67729e-06
6.51509e-06
6.34797e-06
6.17612e-06
5.99977e-06
5.81916e-06
5.63451e-06
5.4461e-06
5.25419e-06
5.05906e-06
4.861e-06
4.66033e-06
4.45736e-06
4.25242e-06
4.04586e-06
3.83804e-06
3.62932e-06
3.42011e-06
3.21079e-06
3.0018e-06
2.79356e-06
2.58653e-06
2.38119e-06
2.17804e-06
1.97762e-06
1.78049e-06
1.58724e-06
1.39855e-06
1.21511e-06
1.03774e-06
8.67311e-07
7.04876e-07
5.51667e-07
4.09216e-07
2.79539e-07
1.65505e-07
7.17804e-08
7.97881e-09
6.88277e-09
6.19252e-08
1.42813e-07
2.41306e-07
3.53443e-07
4.7682e-07
6.09782e-07
7.51093e-07
8.99779e-07
1.05504e-06
1.2162e-06
1.38267e-06
1.55394e-06
1.72954e-06
1.90905e-06
2.09209e-06
2.27829e-06
2.46731e-06
2.65884e-06
2.85256e-06
3.04818e-06
3.24542e-06
3.44401e-06
3.64367e-06
3.84416e-06
4.04521e-06
4.24658e-06
4.44802e-06
4.64928e-06
4.85015e-06
5.05037e-06
5.24972e-06
5.44796e-06
5.64489e-06
5.84027e-06
6.03387e-06
6.2255e-06
6.41493e-06
6.60194e-06
6.78634e-06
6.96791e-06
7.14645e-06
7.32176e-06
7.49365e-06
7.66192e-06
7.82638e-06
7.98683e-06
8.1431e-06
8.29501e-06
8.44238e-06
8.58502e-06
8.72278e-06
8.85549e-06
8.98297e-06
9.10507e-06
9.22164e-06
9.33252e-06
9.43756e-06
9.53663e-06
9.62957e-06
9.71625e-06
9.79654e-06
9.87031e-06
9.93744e-06
9.99781e-06
1.00513e-05
1.00978e-05
1.01373e-05
1.01695e-05
1.01945e-05
1.02121e-05
1.02223e-05
1.02249e-05
1.02201e-05
1.02075e-05
1.01873e-05
1.01593e-05
1.01235e-05
1.00799e-05
1.00285e-05
9.96929e-06
9.90222e-06
9.82734e-06
9.74464e-06
9.65417e-06
9.55597e-06
9.45009e-06
9.3366e-06
9.21556e-06
9.08707e-06
8.95124e-06
8.80818e-06
8.65801e-06
8.50088e-06
8.33695e-06
8.16638e-06
7.98936e-06
7.80609e-06
7.61678e-06
7.42166e-06
7.22098e-06
7.01498e-06
6.80395e-06
6.58817e-06
6.36793e-06
6.14357e-06
5.9154e-06
5.68378e-06
5.44907e-06
5.21164e-06
4.97188e-06
4.73021e-06
4.48704e-06
4.24283e-06
3.99801e-06
3.75308e-06
3.50852e-06
3.26485e-06
3.02261e-06
2.78237e-06
2.54471e-06
2.31027e-06
2.0797e-06
1.85373e-06
1.63311e-06
1.4187e-06
1.21141e-06
1.0123e-06
8.22581e-07
6.43687e-07
4.77406e-07
3.26076e-07
1.93036e-07
8.3714e-08
9.30491e-09
7.8342e-09
7.04874e-08
1.6257e-07
2.7471e-07
4.0241e-07
5.42941e-07
6.94425e-07
8.55459e-07
1.02494e-06
1.20195e-06
1.38573e-06
1.57561e-06
1.77101e-06
1.97138e-06
2.17626e-06
2.3852e-06
2.59779e-06
2.81363e-06
3.03236e-06
3.25364e-06
3.47712e-06
3.70249e-06
3.92942e-06
4.15763e-06
4.3868e-06
4.61665e-06
4.8469e-06
5.07727e-06
5.30748e-06
5.53726e-06
5.76635e-06
5.99448e-06
6.22139e-06
6.44682e-06
6.67053e-06
6.89225e-06
7.11175e-06
7.32878e-06
7.54309e-06
7.75445e-06
7.96263e-06
8.16738e-06
8.36849e-06
8.56572e-06
8.75885e-06
8.94767e-06
9.13196e-06
9.31151e-06
9.4861e-06
9.65555e-06
9.81963e-06
9.97817e-06
1.0131e-05
1.02778e-05
1.04186e-05
1.0553e-05
1.0681e-05
1.08023e-05
1.09168e-05
1.10243e-05
1.11247e-05
1.12178e-05
1.13035e-05
1.13816e-05
1.14519e-05
1.15144e-05
1.1569e-05
1.16154e-05
1.16536e-05
1.16835e-05
1.17049e-05
1.17178e-05
1.17222e-05
1.17178e-05
1.17047e-05
1.16827e-05
1.16518e-05
1.1612e-05
1.15632e-05
1.15054e-05
1.14386e-05
1.13628e-05
1.1278e-05
1.11841e-05
1.10813e-05
1.09696e-05
1.08491e-05
1.07197e-05
1.05816e-05
1.0435e-05
1.02798e-05
1.01163e-05
9.94453e-06
9.76473e-06
9.57705e-06
9.3817e-06
9.17887e-06
8.96879e-06
8.75172e-06
8.52791e-06
8.29765e-06
8.06122e-06
7.81895e-06
7.57117e-06
7.31821e-06
7.06046e-06
6.7983e-06
6.53211e-06
6.26234e-06
5.9894e-06
5.71377e-06
5.4359e-06
5.15629e-06
4.87545e-06
4.59392e-06
4.31225e-06
4.031e-06
3.75079e-06
3.47223e-06
3.19597e-06
2.92272e-06
2.65318e-06
2.38814e-06
2.12841e-06
1.87489e-06
1.62853e-06
1.39041e-06
1.16174e-06
9.43896e-07
7.38532e-07
5.47689e-07
3.74044e-07
2.21415e-07
9.60151e-08
1.06719e-08
8.7896e-09
7.90852e-08
1.82408e-07
3.08252e-07
4.51577e-07
6.0933e-07
7.7941e-07
9.60247e-07
1.1506e-06
1.34946e-06
1.55596e-06
1.76936e-06
1.98899e-06
2.21427e-06
2.44464e-06
2.67962e-06
2.91874e-06
3.16156e-06
3.40768e-06
3.65669e-06
3.90823e-06
4.16192e-06
4.41742e-06
4.67439e-06
4.93249e-06
5.1914e-06
5.45079e-06
5.71036e-06
5.9698e-06
6.2288e-06
6.48707e-06
6.7443e-06
7.00022e-06
7.25451e-06
7.50692e-06
7.75714e-06
8.00491e-06
8.24995e-06
8.49198e-06
8.73074e-06
8.96597e-06
9.19739e-06
9.42477e-06
9.64783e-06
9.86633e-06
1.008e-05
1.02887e-05
1.0492e-05
1.06899e-05
1.08819e-05
1.1068e-05
1.12479e-05
1.14214e-05
1.15882e-05
1.17482e-05
1.19011e-05
1.20467e-05
1.21849e-05
1.23155e-05
1.24382e-05
1.25529e-05
1.26595e-05
1.27576e-05
1.28473e-05
1.29282e-05
1.30003e-05
1.30634e-05
1.31174e-05
1.31621e-05
1.31975e-05
1.32233e-05
1.32394e-05
1.32459e-05
1.32425e-05
1.32293e-05
1.3206e-05
1.31726e-05
1.31291e-05
1.30754e-05
1.30116e-05
1.29375e-05
1.28532e-05
1.27586e-05
1.26538e-05
1.25388e-05
1.24137e-05
1.22785e-05
1.21333e-05
1.19782e-05
1.18132e-05
1.16386e-05
1.14545e-05
1.12609e-05
1.10582e-05
1.08465e-05
1.0626e-05
1.0397e-05
1.01597e-05
9.91435e-06
9.66134e-06
9.40093e-06
9.13347e-06
8.85932e-06
8.57885e-06
8.29246e-06
8.00058e-06
7.70363e-06
7.40208e-06
7.0964e-06
6.7871e-06
6.47469e-06
6.15973e-06
5.84276e-06
5.52438e-06
5.20519e-06
4.88583e-06
4.56695e-06
4.24924e-06
3.93341e-06
3.62022e-06
3.31044e-06
3.00491e-06
2.7045e-06
2.41014e-06
2.12286e-06
1.84374e-06
1.574e-06
1.315e-06
1.06832e-06
8.35807e-07
6.19774e-07
4.23243e-07
2.50522e-07
1.08632e-07
1.2074e-08
9.74273e-09
8.76624e-08
2.02197e-07
3.41711e-07
5.00622e-07
6.75553e-07
8.64181e-07
1.06477e-06
1.27595e-06
1.4966e-06
1.72577e-06
1.96263e-06
2.20645e-06
2.45658e-06
2.71241e-06
2.97339e-06
3.23901e-06
3.50879e-06
3.78226e-06
4.059e-06
4.33859e-06
4.62062e-06
4.9047e-06
5.19046e-06
5.47753e-06
5.76554e-06
6.05415e-06
6.343e-06
6.63176e-06
6.92009e-06
7.20766e-06
7.49414e-06
7.77921e-06
8.06254e-06
8.34383e-06
8.62275e-06
8.89901e-06
9.17229e-06
9.4423e-06
9.70874e-06
9.97131e-06
1.02297e-05
1.04837e-05
1.07329e-05
1.09772e-05
1.12161e-05
1.14495e-05
1.16771e-05
1.18986e-05
1.21138e-05
1.23223e-05
1.25241e-05
1.27187e-05
1.2906e-05
1.30857e-05
1.32576e-05
1.34215e-05
1.35772e-05
1.37244e-05
1.38629e-05
1.39925e-05
1.4113e-05
1.42243e-05
1.43261e-05
1.44182e-05
1.45005e-05
1.45728e-05
1.4635e-05
1.46868e-05
1.47281e-05
1.47589e-05
1.47789e-05
1.4788e-05
1.47861e-05
1.47733e-05
1.47492e-05
1.47138e-05
1.46671e-05
1.4609e-05
1.45394e-05
1.44584e-05
1.43659e-05
1.4262e-05
1.41465e-05
1.40196e-05
1.38813e-05
1.37316e-05
1.35707e-05
1.33986e-05
1.32155e-05
1.30214e-05
1.28166e-05
1.26013e-05
1.23755e-05
1.21396e-05
1.18938e-05
1.16383e-05
1.13735e-05
1.10996e-05
1.08171e-05
1.05261e-05
1.02272e-05
9.92067e-06
9.60701e-06
9.28663e-06
8.96003e-06
8.62768e-06
8.29012e-06
7.94787e-06
7.60151e-06
7.25162e-06
6.89882e-06
6.54374e-06
6.18704e-06
5.82942e-06
5.47159e-06
5.11429e-06
4.75829e-06
4.40441e-06
4.05349e-06
3.70641e-06
3.36411e-06
3.02758e-06
2.69786e-06
2.3761e-06
2.06352e-06
1.76149e-06
1.47153e-06
1.19539e-06
9.35154e-07
6.93397e-07
4.73491e-07
2.80251e-07
1.2152e-07
1.35061e-08
1.06878e-08
9.61673e-08
2.2182e-07
3.74886e-07
5.4925e-07
7.41212e-07
9.48228e-07
1.1684e-06
1.40023e-06
1.64248e-06
1.89413e-06
2.15425e-06
2.42206e-06
2.69683e-06
2.97791e-06
3.2647e-06
3.55662e-06
3.85316e-06
4.1538e-06
4.45808e-06
4.76554e-06
5.07573e-06
5.38824e-06
5.70264e-06
6.01853e-06
6.33552e-06
6.65322e-06
6.97126e-06
7.28925e-06
7.60684e-06
7.92365e-06
8.23934e-06
8.55354e-06
8.86591e-06
9.1761e-06
9.48376e-06
9.78857e-06
1.00902e-05
1.03883e-05
1.06825e-05
1.09726e-05
1.12582e-05
1.15389e-05
1.18146e-05
1.20848e-05
1.23493e-05
1.26077e-05
1.28598e-05
1.31053e-05
1.33439e-05
1.35754e-05
1.37993e-05
1.40155e-05
1.42238e-05
1.44237e-05
1.46151e-05
1.47978e-05
1.49714e-05
1.51357e-05
1.52906e-05
1.54357e-05
1.55708e-05
1.56957e-05
1.58103e-05
1.59142e-05
1.60073e-05
1.60894e-05
1.61603e-05
1.62198e-05
1.62678e-05
1.63041e-05
1.63285e-05
1.63409e-05
1.63412e-05
1.63293e-05
1.63049e-05
1.62681e-05
1.62187e-05
1.61567e-05
1.6082e-05
1.59945e-05
1.58943e-05
1.57814e-05
1.56556e-05
1.55171e-05
1.5366e-05
1.52021e-05
1.50258e-05
1.4837e-05
1.46358e-05
1.44225e-05
1.41972e-05
1.396e-05
1.37113e-05
1.34512e-05
1.318e-05
1.2898e-05
1.26056e-05
1.2303e-05
1.19906e-05
1.16689e-05
1.13382e-05
1.0999e-05
1.06518e-05
1.0297e-05
9.93526e-06
9.56706e-06
9.19299e-06
8.81366e-06
8.42969e-06
8.04175e-06
7.65053e-06
7.25674e-06
6.86111e-06
6.46443e-06
6.06748e-06
5.67111e-06
5.27618e-06
4.8836e-06
4.4943e-06
4.10928e-06
3.72958e-06
3.35629e-06
2.9906e-06
2.63377e-06
2.28715e-06
1.95226e-06
1.63079e-06
1.32468e-06
1.03624e-06
7.68311e-07
5.24623e-07
3.10504e-07
1.34634e-07
1.49635e-08
1.16197e-08
1.04553e-07
2.41166e-07
4.07594e-07
5.97191e-07
8.05941e-07
1.03108e-06
1.27055e-06
1.52273e-06
1.78629e-06
2.06009e-06
2.34315e-06
2.63461e-06
2.93368e-06
3.23967e-06
3.5519e-06
3.86978e-06
4.19272e-06
4.52018e-06
4.85166e-06
5.18665e-06
5.52467e-06
5.86526e-06
6.20799e-06
6.5524e-06
6.89807e-06
7.24458e-06
7.59153e-06
7.93851e-06
8.28511e-06
8.63095e-06
8.97564e-06
9.3188e-06
9.66004e-06
9.999e-06
1.03353e-05
1.06686e-05
1.09984e-05
1.13246e-05
1.16466e-05
1.19642e-05
1.2277e-05
1.25846e-05
1.28867e-05
1.3183e-05
1.34732e-05
1.37569e-05
1.40338e-05
1.43035e-05
1.45659e-05
1.48204e-05
1.5067e-05
1.53051e-05
1.55347e-05
1.57552e-05
1.59666e-05
1.61684e-05
1.63605e-05
1.65425e-05
1.67142e-05
1.68753e-05
1.70256e-05
1.71648e-05
1.72927e-05
1.7409e-05
1.75135e-05
1.7606e-05
1.76864e-05
1.77542e-05
1.78095e-05
1.7852e-05
1.78815e-05
1.78978e-05
1.79008e-05
1.78905e-05
1.78666e-05
1.78289e-05
1.77774e-05
1.77121e-05
1.76328e-05
1.75394e-05
1.7432e-05
1.73106e-05
1.71751e-05
1.70255e-05
1.68619e-05
1.66843e-05
1.64929e-05
1.62877e-05
1.60688e-05
1.58365e-05
1.55909e-05
1.53322e-05
1.50606e-05
1.47764e-05
1.448e-05
1.41715e-05
1.38514e-05
1.352e-05
1.31778e-05
1.28252e-05
1.24626e-05
1.20905e-05
1.17095e-05
1.13202e-05
1.0923e-05
1.05186e-05
1.01077e-05
9.69088e-06
9.26891e-06
8.84251e-06
8.41242e-06
7.97944e-06
7.54441e-06
7.10817e-06
6.67161e-06
6.23566e-06
5.80128e-06
5.36947e-06
4.94127e-06
4.51779e-06
4.10017e-06
3.68963e-06
3.28746e-06
2.89506e-06
2.51393e-06
2.14572e-06
1.79231e-06
1.45581e-06
1.13876e-06
8.44287e-07
5.7648e-07
3.41186e-07
1.47934e-07
1.64415e-08
1.25334e-08
1.12775e-07
2.60137e-07
4.39665e-07
6.44198e-07
8.69407e-07
1.11232e-06
1.37071e-06
1.64284e-06
1.92727e-06
2.22279e-06
2.52834e-06
2.84299e-06
3.1659e-06
3.4963e-06
3.8335e-06
4.17684e-06
4.52569e-06
4.87948e-06
5.23766e-06
5.59969e-06
5.96506e-06
6.33327e-06
6.70384e-06
7.0763e-06
7.45021e-06
7.8251e-06
8.20053e-06
8.57608e-06
8.95132e-06
9.32582e-06
9.69916e-06
1.00709e-05
1.04408e-05
1.08082e-05
1.11729e-05
1.15344e-05
1.18923e-05
1.22463e-05
1.2596e-05
1.2941e-05
1.32809e-05
1.36153e-05
1.3944e-05
1.42664e-05
1.45823e-05
1.48913e-05
1.51931e-05
1.54873e-05
1.57735e-05
1.60514e-05
1.63208e-05
1.65812e-05
1.68323e-05
1.70739e-05
1.73056e-05
1.75271e-05
1.7738e-05
1.79382e-05
1.81272e-05
1.83048e-05
1.84708e-05
1.86248e-05
1.87666e-05
1.8896e-05
1.90125e-05
1.91161e-05
1.92065e-05
1.92834e-05
1.93466e-05
1.9396e-05
1.94312e-05
1.94522e-05
1.94586e-05
1.94506e-05
1.94277e-05
1.93899e-05
1.9337e-05
1.9269e-05
1.91857e-05
1.90872e-05
1.89732e-05
1.88439e-05
1.86991e-05
1.8539e-05
1.83635e-05
1.81727e-05
1.79667e-05
1.77455e-05
1.75094e-05
1.72584e-05
1.69929e-05
1.67129e-05
1.64188e-05
1.61108e-05
1.57892e-05
1.54545e-05
1.51069e-05
1.47469e-05
1.43749e-05
1.39913e-05
1.35968e-05
1.31918e-05
1.2777e-05
1.23529e-05
1.19201e-05
1.14793e-05
1.10314e-05
1.05769e-05
1.01166e-05
9.65144e-06
9.18217e-06
8.70969e-06
8.23489e-06
7.75873e-06
7.28218e-06
6.80627e-06
6.33204e-06
5.8606e-06
5.39311e-06
4.93076e-06
4.47482e-06
4.02662e-06
3.58758e-06
3.15923e-06
2.74321e-06
2.34132e-06
1.95561e-06
1.58839e-06
1.24242e-06
9.21109e-07
6.28915e-07
3.7221e-07
1.61383e-07
1.79361e-08
1.34248e-08
1.20796e-07
2.78642e-07
4.70949e-07
6.90049e-07
9.3131e-07
1.19155e-06
1.4684e-06
1.75998e-06
2.06477e-06
2.38147e-06
2.70895e-06
3.04621e-06
3.39236e-06
3.74659e-06
4.10815e-06
4.47633e-06
4.85048e-06
5.22997e-06
5.61423e-06
6.00267e-06
6.39476e-06
6.78997e-06
7.18778e-06
7.58771e-06
7.98925e-06
8.39194e-06
8.7953e-06
9.19888e-06
9.60222e-06
1.00049e-05
1.04064e-05
1.08063e-05
1.12043e-05
1.15998e-05
1.19925e-05
1.23818e-05
1.27675e-05
1.31491e-05
1.35262e-05
1.38984e-05
1.42652e-05
1.46263e-05
1.49813e-05
1.53298e-05
1.56714e-05
1.60057e-05
1.63324e-05
1.6651e-05
1.69613e-05
1.72628e-05
1.75551e-05
1.7838e-05
1.8111e-05
1.83739e-05
1.86262e-05
1.88677e-05
1.90979e-05
1.93166e-05
1.95235e-05
1.97182e-05
1.99004e-05
2.00698e-05
2.02261e-05
2.0369e-05
2.04982e-05
2.06135e-05
2.07146e-05
2.08012e-05
2.08731e-05
2.093e-05
2.09717e-05
2.0998e-05
2.10087e-05
2.10036e-05
2.09826e-05
2.09454e-05
2.08918e-05
2.08218e-05
2.07353e-05
2.06322e-05
2.05124e-05
2.03758e-05
2.02225e-05
2.00525e-05
1.98657e-05
1.96622e-05
1.94422e-05
1.92056e-05
1.89527e-05
1.86837e-05
1.83986e-05
1.80978e-05
1.77815e-05
1.745e-05
1.71037e-05
1.6743e-05
1.63681e-05
1.59796e-05
1.5578e-05
1.51638e-05
1.47374e-05
1.42996e-05
1.38509e-05
1.3392e-05
1.29236e-05
1.24465e-05
1.19613e-05
1.1469e-05
1.09704e-05
1.04663e-05
9.95762e-06
9.44541e-06
8.93063e-06
8.4143e-06
7.89751e-06
7.38135e-06
6.867e-06
6.35565e-06
5.84856e-06
5.34706e-06
4.8525e-06
4.36635e-06
3.89016e-06
3.42557e-06
2.97437e-06
2.53853e-06
2.12026e-06
1.72207e-06
1.34694e-06
9.98569e-07
6.81786e-07
4.03492e-07
1.74944e-07
1.94431e-08
1.429e-08
1.28582e-07
2.96603e-07
5.01312e-07
7.34549e-07
9.91387e-07
1.26844e-06
1.56319e-06
1.87365e-06
2.19819e-06
2.53544e-06
2.88419e-06
3.24339e-06
3.6121e-06
3.98945e-06
4.37465e-06
4.76695e-06
5.16565e-06
5.57011e-06
5.9797e-06
6.39382e-06
6.81189e-06
7.23336e-06
7.65768e-06
8.08434e-06
8.51281e-06
8.94259e-06
9.37319e-06
9.80413e-06
1.02349e-05
1.06651e-05
1.10942e-05
1.15217e-05
1.19472e-05
1.23703e-05
1.27904e-05
1.32072e-05
1.36202e-05
1.4029e-05
1.44331e-05
1.4832e-05
1.52255e-05
1.5613e-05
1.59942e-05
1.63685e-05
1.67357e-05
1.70953e-05
1.74468e-05
1.77899e-05
1.81242e-05
1.84493e-05
1.87648e-05
1.90703e-05
1.93654e-05
1.96498e-05
1.99231e-05
2.01848e-05
2.04347e-05
2.06724e-05
2.08975e-05
2.11097e-05
2.13086e-05
2.1494e-05
2.16653e-05
2.18225e-05
2.1965e-05
2.20927e-05
2.22051e-05
2.23021e-05
2.23834e-05
2.24486e-05
2.24975e-05
2.25299e-05
2.25455e-05
2.25442e-05
2.25258e-05
2.24899e-05
2.24364e-05
2.23653e-05
2.22763e-05
2.21694e-05
2.20444e-05
2.19014e-05
2.17403e-05
2.1561e-05
2.13637e-05
2.11482e-05
2.09148e-05
2.06634e-05
2.03944e-05
2.01077e-05
1.98037e-05
1.94826e-05
1.91447e-05
1.87902e-05
1.84195e-05
1.80331e-05
1.76314e-05
1.72148e-05
1.67838e-05
1.63391e-05
1.58811e-05
1.54107e-05
1.49283e-05
1.44348e-05
1.39309e-05
1.34173e-05
1.28951e-05
1.23649e-05
1.18278e-05
1.12847e-05
1.07367e-05
1.01846e-05
9.62976e-06
9.07314e-06
8.51595e-06
7.9594e-06
7.40475e-06
6.85332e-06
6.30646e-06
5.7656e-06
5.23224e-06
4.70795e-06
4.1944e-06
3.69338e-06
3.20682e-06
2.73685e-06
2.28583e-06
1.85649e-06
1.45205e-06
1.07647e-06
7.34956e-07
4.34952e-07
1.88582e-07
2.09587e-08
1.51257e-08
1.36102e-07
3.13952e-07
5.30638e-07
7.77528e-07
1.04941e-06
1.3427e-06
1.65473e-06
1.98342e-06
2.32702e-06
2.6841e-06
3.05339e-06
3.43378e-06
3.82427e-06
4.22394e-06
4.63196e-06
5.04756e-06
5.46999e-06
5.89858e-06
6.33265e-06
6.7716e-06
7.2148e-06
7.66168e-06
8.11167e-06
8.56422e-06
9.01879e-06
9.47486e-06
9.9319e-06
1.03894e-05
1.08469e-05
1.13038e-05
1.17597e-05
1.22141e-05
1.26665e-05
1.31165e-05
1.35635e-05
1.40071e-05
1.44469e-05