/*--------------------------------*- C++ -*----------------------------------*\
  =========                 |
  \\      /  F ield         | OpenFOAM: The Open Source CFD Toolbox
   \\    /   O peration     | Website:  https://openfoam.org
    \\  /    A nd           | Version:  12
     \\/     M anipulation  |
\*---------------------------------------------------------------------------*/
FoamFile
{
    format      ascii;
    class       volScalarField;
    location    "4";
    object      nut;
}
// * * * * * * * * * * * * * * * * * * * * * * * * * * * * * * * * * * * * * //

dimensions      [0 2 -1 0 0 0 0];

internalField   nonuniform List<scalar> 
18225
(
1.67089e-15
5.0501e-14
1.07165e-13
1.75019e-13
2.51792e-13
3.35826e-13
4.25971e-13
5.214e-13
6.21482e-13
7.25711e-13
8.33663e-13
9.44972e-13
1.05932e-12
1.1764e-12
1.29597e-12
1.41777e-12
1.54158e-12
1.66717e-12
1.79433e-12
1.92288e-12
2.05261e-12
2.18334e-12
2.31489e-12
2.44709e-12
2.57976e-12
2.71273e-12
2.84584e-12
2.97892e-12
3.11181e-12
3.24436e-12
3.3764e-12
3.50778e-12
3.63835e-12
3.76796e-12
3.89645e-12
4.02369e-12
4.14953e-12
4.27381e-12
4.39641e-12
4.51719e-12
4.636e-12
4.75271e-12
4.86719e-12
4.97931e-12
5.08894e-12
5.19595e-12
5.30022e-12
5.40164e-12
5.50007e-12
5.59541e-12
5.68754e-12
5.77635e-12
5.86173e-12
5.94358e-12
6.02179e-12
6.09627e-12
6.16692e-12
6.23364e-12
6.29634e-12
6.35495e-12
6.40936e-12
6.4595e-12
6.5053e-12
6.54667e-12
6.58355e-12
6.61587e-12
6.64357e-12
6.66658e-12
6.68486e-12
6.69835e-12
6.70699e-12
6.71076e-12
6.70961e-12
6.7035e-12
6.6924e-12
6.6763e-12
6.65516e-12
6.62898e-12
6.59775e-12
6.56147e-12
6.52014e-12
6.47377e-12
6.42238e-12
6.36598e-12
6.30462e-12
6.23831e-12
6.16712e-12
6.09108e-12
6.01025e-12
5.92471e-12
5.83452e-12
5.73977e-12
5.64054e-12
5.53693e-12
5.42905e-12
5.31701e-12
5.20093e-12
5.08095e-12
4.9572e-12
4.82983e-12
4.69901e-12
4.56488e-12
4.42764e-12
4.28745e-12
4.14452e-12
3.99904e-12
3.85122e-12
3.70127e-12
3.54944e-12
3.39594e-12
3.24103e-12
3.08495e-12
2.92798e-12
2.77037e-12
2.61243e-12
2.45443e-12
2.29668e-12
2.1395e-12
1.98322e-12
1.82818e-12
1.67474e-12
1.52329e-12
1.37422e-12
1.22796e-12
1.08497e-12
9.45774e-13
8.10916e-13
6.81037e-13
5.5688e-13
4.39348e-13
3.29596e-13
2.29194e-13
1.40374e-13
6.61592e-14
2.18899e-15
1.1305e-14
1.64788e-12
8.82154e-12
2.06881e-11
3.48866e-11
5.03179e-11
6.66095e-11
8.36234e-11
1.01288e-10
1.19553e-10
1.3837e-10
1.57698e-10
1.77497e-10
1.97726e-10
2.18348e-10
2.39327e-10
2.60629e-10
2.8222e-10
3.04067e-10
3.26138e-10
3.48402e-10
3.7083e-10
3.93391e-10
4.16056e-10
4.38797e-10
4.61585e-10
4.84393e-10
5.07193e-10
5.29957e-10
5.5266e-10
5.75274e-10
5.97774e-10
6.20134e-10
6.42327e-10
6.64328e-10
6.86114e-10
7.07658e-10
7.28937e-10
7.49926e-10
7.70602e-10
7.90941e-10
8.10921e-10
8.30518e-10
8.49711e-10
8.68478e-10
8.86796e-10
9.04646e-10
9.22005e-10
9.38855e-10
9.55176e-10
9.70947e-10
9.8615e-10
1.00077e-09
1.01478e-09
1.02817e-09
1.04092e-09
1.05302e-09
1.06444e-09
1.07518e-09
1.08522e-09
1.09453e-09
1.10312e-09
1.11097e-09
1.11806e-09
1.12438e-09
1.12992e-09
1.13467e-09
1.13862e-09
1.14176e-09
1.14407e-09
1.14556e-09
1.14621e-09
1.14602e-09
1.14499e-09
1.1431e-09
1.14035e-09
1.13675e-09
1.13228e-09
1.12695e-09
1.12075e-09
1.11369e-09
1.10576e-09
1.09698e-09
1.08734e-09
1.07685e-09
1.06551e-09
1.05334e-09
1.04033e-09
1.02651e-09
1.01188e-09
9.9645e-10
9.8024e-10
9.63261e-10
9.45532e-10
9.2707e-10
9.07894e-10
8.88024e-10
8.67484e-10
8.46297e-10
8.24487e-10
8.02081e-10
7.79108e-10
7.55597e-10
7.31578e-10
7.07085e-10
6.8215e-10
6.5681e-10
6.31101e-10
6.0506e-10
5.78729e-10
5.52148e-10
5.25359e-10
4.98406e-10
4.71336e-10
4.44194e-10
4.17031e-10
3.89894e-10
3.62838e-10
3.35914e-10
3.09179e-10
2.8269e-10
2.56505e-10
2.30687e-10
2.05298e-10
1.80405e-10
1.56076e-10
1.32382e-10
1.09397e-10
8.72035e-11
6.59099e-11
4.57109e-11
2.71092e-11
1.15585e-11
2.159e-12
1.48149e-14
2.51737e-14
4.13602e-12
2.83569e-11
8.51848e-11
1.7301e-10
2.8314e-10
4.07639e-10
5.41436e-10
6.81694e-10
8.2687e-10
9.76093e-10
1.12883e-09
1.28469e-09
1.44341e-09
1.60471e-09
1.76838e-09
1.93418e-09
2.10191e-09
2.27135e-09
2.4423e-09
2.61454e-09
2.78787e-09
2.96208e-09
3.13696e-09
3.31232e-09
3.48795e-09
3.66365e-09
3.83922e-09
4.01445e-09
4.18915e-09
4.36313e-09
4.53618e-09
4.70812e-09
4.87875e-09
5.04788e-09
5.21532e-09
5.38089e-09
5.5444e-09
5.70567e-09
5.86452e-09
6.02077e-09
6.17425e-09
6.32478e-09
6.4722e-09
6.61633e-09
6.75702e-09
6.8941e-09
7.02742e-09
7.15682e-09
7.28215e-09
7.40327e-09
7.52002e-09
7.63228e-09
7.73989e-09
7.84273e-09
7.94067e-09
8.03359e-09
8.12135e-09
8.20385e-09
8.28096e-09
8.35258e-09
8.41861e-09
8.47894e-09
8.53347e-09
8.58211e-09
8.62477e-09
8.66137e-09
8.69183e-09
8.71608e-09
8.73404e-09
8.74566e-09
8.75087e-09
8.74964e-09
8.74191e-09
8.72764e-09
8.70679e-09
8.67934e-09
8.64528e-09
8.60458e-09
8.55725e-09
8.50328e-09
8.44269e-09
8.3755e-09
8.30172e-09
8.2214e-09
8.13457e-09
8.0413e-09
7.94165e-09
7.83568e-09
7.72348e-09
7.60514e-09
7.48076e-09
7.35045e-09
7.21435e-09
7.07257e-09
6.92526e-09
6.77259e-09
6.61471e-09
6.45179e-09
6.28404e-09
6.11164e-09
5.93481e-09
5.75376e-09
5.56873e-09
5.37995e-09
5.18769e-09
4.99219e-09
4.79373e-09
4.5926e-09
4.38909e-09
4.18349e-09
3.97613e-09
3.76731e-09
3.55737e-09
3.34665e-09
3.1355e-09
2.92426e-09
2.7133e-09
2.50299e-09
2.29371e-09
2.08586e-09
1.87982e-09
1.67603e-09
1.47494e-09
1.27705e-09
1.08298e-09
8.93588e-10
7.10148e-10
5.34834e-10
3.71515e-10
2.26979e-10
1.11732e-10
3.71886e-11
5.42469e-12
3.30275e-14
4.17105e-14
7.02651e-12
5.14935e-11
1.70418e-10
3.83964e-10
6.90225e-10
1.07373e-09
1.5158e-09
2.0004e-09
2.51571e-09
3.05362e-09
3.60875e-09
4.17751e-09
4.75743e-09
5.34679e-09
5.94426e-09
6.5488e-09
7.1595e-09
7.77556e-09
8.39624e-09
9.02082e-09
9.64862e-09
1.02789e-08
1.09111e-08
1.15444e-08
1.21783e-08
1.28119e-08
1.34447e-08
1.4076e-08
1.4705e-08
1.53312e-08
1.59538e-08
1.65722e-08
1.71857e-08
1.77936e-08
1.83954e-08
1.89903e-08
1.95776e-08
2.01568e-08
2.07273e-08
2.12883e-08
2.18393e-08
2.23796e-08
2.29087e-08
2.3426e-08
2.39309e-08
2.44228e-08
2.49012e-08
2.53654e-08
2.58151e-08
2.62496e-08
2.66685e-08
2.70712e-08
2.74573e-08
2.78262e-08
2.81776e-08
2.8511e-08
2.88259e-08
2.9122e-08
2.93987e-08
2.96558e-08
2.98929e-08
3.01096e-08
3.03055e-08
3.04803e-08
3.06337e-08
3.07655e-08
3.08752e-08
3.09628e-08
3.10278e-08
3.10701e-08
3.10896e-08
3.10859e-08
3.1059e-08
3.10086e-08
3.09347e-08
3.08371e-08
3.07159e-08
3.05708e-08
3.0402e-08
3.02093e-08
2.99929e-08
2.97527e-08
2.9489e-08
2.92016e-08
2.88909e-08
2.85571e-08
2.82002e-08
2.78205e-08
2.74184e-08
2.69941e-08
2.6548e-08
2.60804e-08
2.55918e-08
2.50826e-08
2.45534e-08
2.40046e-08
2.34369e-08
2.28507e-08
2.22469e-08
2.16259e-08
2.09887e-08
2.03358e-08
1.96682e-08
1.89865e-08
1.82918e-08
1.75848e-08
1.68666e-08
1.6138e-08
1.54001e-08
1.46538e-08
1.39003e-08
1.31406e-08
1.23759e-08
1.16072e-08
1.08359e-08
1.0063e-08
9.28996e-09
8.51806e-09
7.74877e-09
6.98373e-09
6.22477e-09
5.47415e-09
4.73469e-09
4.01019e-09
3.306e-09
2.62983e-09
1.99298e-09
1.41159e-09
9.07166e-10
5.0449e-10
2.23867e-10
6.76463e-11
9.23303e-12
5.48289e-14
6.01909e-14
1.02271e-11
7.67899e-11
2.64536e-10
6.27044e-10
1.19034e-09
1.95183e-09
2.88943e-09
3.97279e-09
5.17156e-09
6.4596e-09
7.81615e-09
9.22544e-09
1.06758e-08
1.21587e-08
1.36675e-08
1.51976e-08
1.6745e-08
1.83067e-08
1.988e-08
2.14628e-08
2.3053e-08
2.46486e-08
2.6248e-08
2.78494e-08
2.9451e-08
3.10513e-08
3.26486e-08
3.42411e-08
3.58274e-08
3.74058e-08
3.89745e-08
4.05321e-08
4.20769e-08
4.36072e-08
4.51215e-08
4.66181e-08
4.80955e-08
4.95521e-08
5.09864e-08
5.23968e-08
5.37817e-08
5.51398e-08
5.64694e-08
5.77691e-08
5.90376e-08
6.02733e-08
6.1475e-08
6.26412e-08
6.37707e-08
6.4862e-08
6.5914e-08
6.69255e-08
6.78952e-08
6.88219e-08
6.97045e-08
7.05419e-08
7.1333e-08
7.20768e-08
7.27723e-08
7.34185e-08
7.40144e-08
7.45593e-08
7.50521e-08
7.54921e-08
7.58785e-08
7.62106e-08
7.64876e-08
7.67089e-08
7.68739e-08
7.6982e-08
7.70327e-08
7.70255e-08
7.69601e-08
7.68358e-08
7.66525e-08
7.64098e-08
7.61077e-08
7.57458e-08
7.53241e-08
7.48427e-08
7.43014e-08
7.37005e-08
7.30401e-08
7.23204e-08
7.15417e-08
7.07045e-08
6.98093e-08
6.88565e-08
6.78468e-08
6.6781e-08
6.56598e-08
6.44841e-08
6.3255e-08
6.19734e-08
6.06406e-08
5.92578e-08
5.78263e-08
5.63476e-08
5.48232e-08
5.32547e-08
5.16438e-08
4.99924e-08
4.83022e-08
4.65753e-08
4.48137e-08
4.30196e-08
4.11952e-08
3.93429e-08
3.74651e-08
3.55642e-08
3.3643e-08
3.17043e-08
2.97508e-08
2.77857e-08
2.58123e-08
2.38342e-08
2.18554e-08
1.98805e-08
1.79146e-08
1.59644e-08
1.40376e-08
1.21443e-08
1.02977e-08
8.51498e-09
6.81873e-09
5.23801e-09
3.80875e-09
2.57192e-09
1.56793e-09
8.25735e-10
3.48345e-10
1.01139e-10
1.34749e-11
7.93374e-14
8.01596e-14
1.36724e-11
1.03797e-10
3.64481e-10
8.86836e-10
1.73621e-09
2.94191e-09
4.49914e-09
6.37857e-09
8.53779e-09
1.09309e-08
1.35145e-08
1.62511e-08
1.91092e-08
2.20638e-08
2.5095e-08
2.8187e-08
3.13276e-08
3.45068e-08
3.77165e-08
4.095e-08
4.42016e-08
4.7466e-08
5.07389e-08
5.40162e-08
5.72939e-08
6.05683e-08
6.38359e-08
6.70932e-08
7.03369e-08
7.35636e-08
7.67699e-08
7.99526e-08
8.31084e-08
8.62341e-08
8.93264e-08
9.23821e-08
9.53981e-08
9.83711e-08
1.01298e-07
1.04176e-07
1.07002e-07
1.09772e-07
1.12485e-07
1.15136e-07
1.17723e-07
1.20243e-07
1.22694e-07
1.25073e-07
1.27376e-07
1.29602e-07
1.31747e-07
1.3381e-07
1.35788e-07
1.37678e-07
1.39479e-07
1.41187e-07
1.42802e-07
1.4432e-07
1.45739e-07
1.47059e-07
1.48276e-07
1.49389e-07
1.50397e-07
1.51297e-07
1.52088e-07
1.52769e-07
1.53337e-07
1.53792e-07
1.54133e-07
1.54358e-07
1.54466e-07
1.54456e-07
1.54328e-07
1.5408e-07
1.53712e-07
1.53222e-07
1.52612e-07
1.51879e-07
1.51025e-07
1.50048e-07
1.48949e-07
1.47728e-07
1.46386e-07
1.44922e-07
1.43337e-07
1.41632e-07
1.39808e-07
1.37865e-07
1.35805e-07
1.3363e-07
1.31341e-07
1.28938e-07
1.26425e-07
1.23804e-07
1.21076e-07
1.18244e-07
1.1531e-07
1.12278e-07
1.0915e-07
1.05929e-07
1.02619e-07
9.92232e-08
9.57454e-08
9.21894e-08
8.85595e-08
8.486e-08
8.10955e-08
7.7271e-08
7.33915e-08
6.94626e-08
6.54902e-08
6.14807e-08
5.7441e-08
5.33789e-08
4.93031e-08
4.52233e-08
4.11512e-08
3.71003e-08
3.30869e-08
2.9131e-08
2.52572e-08
2.14958e-08
1.78839e-08
1.44669e-08
1.12983e-08
8.43826e-09
5.94939e-09
3.88848e-09
2.29405e-09
1.1716e-09
4.81563e-10
1.37183e-10
1.80779e-11
1.06033e-13
1.01281e-13
1.73098e-11
1.32175e-10
4.6893e-10
1.15776e-09
2.30802e-09
3.99164e-09
6.23763e-09
9.03634e-09
1.23495e-08
1.61218e-08
2.0291e-08
2.47952e-08
2.95774e-08
3.45875e-08
3.9783e-08
4.51281e-08
5.05934e-08
5.61546e-08
6.17919e-08
6.74884e-08
7.32302e-08
7.90054e-08
8.48035e-08
9.0615e-08
9.64316e-08
1.02245e-07
1.08049e-07
1.13836e-07
1.196e-07
1.25334e-07
1.31032e-07
1.36688e-07
1.42296e-07
1.4785e-07
1.53346e-07
1.58775e-07
1.64134e-07
1.69417e-07
1.74618e-07
1.79731e-07
1.84751e-07
1.89674e-07
1.94493e-07
1.99204e-07
2.03801e-07
2.08279e-07
2.12634e-07
2.16861e-07
2.20954e-07
2.2491e-07
2.28724e-07
2.32391e-07
2.35908e-07
2.39269e-07
2.42472e-07
2.45511e-07
2.48384e-07
2.51086e-07
2.53614e-07
2.55964e-07
2.58134e-07
2.60119e-07
2.61917e-07
2.63524e-07
2.64939e-07
2.66157e-07
2.67177e-07
2.67996e-07
2.68612e-07
2.69023e-07
2.69227e-07
2.69221e-07
2.69005e-07
2.68577e-07
2.67934e-07
2.67076e-07
2.66003e-07
2.64713e-07
2.63205e-07
2.6148e-07
2.59538e-07
2.57377e-07
2.54999e-07
2.52404e-07
2.49593e-07
2.46567e-07
2.43328e-07
2.39876e-07
2.36213e-07
2.32343e-07
2.28267e-07
2.23988e-07
2.19509e-07
2.14833e-07
2.09965e-07
2.04908e-07
1.99667e-07
1.94246e-07
1.8865e-07
1.82885e-07
1.76957e-07
1.70873e-07
1.64637e-07
1.58259e-07
1.51745e-07
1.45105e-07
1.38345e-07
1.31477e-07
1.24511e-07
1.17457e-07
1.10329e-07
1.03141e-07
9.59075e-08
8.86469e-08
8.13798e-08
7.41299e-08
6.69252e-08
5.97988e-08
5.27896e-08
4.59439e-08
3.93166e-08
3.29722e-08
2.69846e-08
2.14361e-08
1.6414e-08
1.20042e-08
8.28188e-09
5.29737e-09
3.06211e-09
1.53593e-09
6.22214e-10
1.75447e-10
2.29873e-11
1.34556e-13
1.23284e-13
2.10952e-11
1.61625e-10
5.76892e-10
1.43684e-09
2.89662e-09
5.07569e-09
8.04656e-09
1.18334e-08
1.64181e-08
2.17508e-08
2.77617e-08
3.43712e-08
4.14981e-08
4.90649e-08
5.70007e-08
6.52429e-08
7.37371e-08
8.24367e-08
9.13021e-08
1.00299e-07
1.094e-07
1.18579e-07
1.27815e-07
1.37089e-07
1.46385e-07
1.55688e-07
1.64984e-07
1.74261e-07
1.83505e-07
1.92707e-07
2.01855e-07
2.10939e-07
2.19949e-07
2.28874e-07
2.37706e-07
2.46434e-07
2.5505e-07
2.63544e-07
2.71907e-07
2.80131e-07
2.88207e-07
2.96126e-07
3.0388e-07
3.1146e-07
3.18859e-07
3.26068e-07
3.33079e-07
3.39885e-07
3.46478e-07
3.52851e-07
3.58996e-07
3.64907e-07
3.70576e-07
3.75996e-07
3.81162e-07
3.86067e-07
3.90705e-07
3.95069e-07
3.99154e-07
4.02954e-07
4.06464e-07
4.09679e-07
4.12593e-07
4.15201e-07
4.175e-07
4.19484e-07
4.2115e-07
4.22492e-07
4.23509e-07
4.24195e-07
4.24547e-07
4.24563e-07
4.24242e-07
4.23577e-07
4.22567e-07
4.21211e-07
4.19506e-07
4.17452e-07
4.15047e-07
4.1229e-07
4.09181e-07
4.05719e-07
4.01905e-07
3.97739e-07
3.93223e-07
3.88357e-07
3.83144e-07
3.77586e-07
3.71684e-07
3.65444e-07
3.58867e-07
3.51959e-07
3.44724e-07
3.37167e-07
3.29294e-07
3.21111e-07
3.12626e-07
3.03845e-07
2.94777e-07
2.85431e-07
2.75816e-07
2.65944e-07
2.55826e-07
2.45473e-07
2.349e-07
2.24122e-07
2.13154e-07
2.02015e-07
1.90723e-07
1.79302e-07
1.67776e-07
1.56174e-07
1.44526e-07
1.3287e-07
1.21247e-07
1.09706e-07
9.83022e-08
8.71011e-08
7.61778e-08
6.5618e-08
5.55183e-08
4.59855e-08
3.71338e-08
2.90805e-08
2.19376e-08
1.58013e-08
1.07381e-08
6.77024e-09
3.86261e-09
1.91596e-09
7.69423e-10
2.15652e-10
2.81598e-11
1.64639e-13
1.45938e-13
2.49901e-11
1.91874e-10
6.87467e-10
1.72182e-09
3.49639e-09
6.18009e-09
9.8938e-09
1.47039e-08
2.06243e-08
2.76241e-08
3.56387e-08
4.45815e-08
5.43544e-08
6.48559e-08
7.59873e-08
8.76562e-08
9.97787e-08
1.1228e-07
1.25094e-07
1.38163e-07
1.51437e-07
1.64873e-07
1.78431e-07
1.9208e-07
2.05789e-07
2.19531e-07
2.33282e-07
2.47021e-07
2.60726e-07
2.7438e-07
2.87965e-07
3.01463e-07
3.14858e-07
3.28135e-07
3.41278e-07
3.54274e-07
3.67107e-07
3.79763e-07
3.92229e-07
4.04491e-07
4.16536e-07
4.28351e-07
4.39922e-07
4.51238e-07
4.62286e-07
4.73055e-07
4.83531e-07
4.93703e-07
5.03561e-07
5.13093e-07
5.22288e-07
5.31136e-07
5.39625e-07
5.47746e-07
5.5549e-07
5.62846e-07
5.69805e-07
5.76358e-07
5.82496e-07
5.88211e-07
5.93495e-07
5.98339e-07
6.02736e-07
6.06678e-07
6.10158e-07
6.1317e-07
6.15707e-07
6.17762e-07
6.1933e-07
6.20405e-07
6.20982e-07
6.21056e-07
6.20625e-07
6.19681e-07
6.1822e-07
6.1624e-07
6.13738e-07
6.10711e-07
6.07157e-07
6.03075e-07
5.98464e-07
5.93322e-07
5.87649e-07
5.81447e-07
5.74716e-07
5.67458e-07
5.59674e-07
5.51369e-07
5.42545e-07
5.33208e-07
5.23361e-07
5.13011e-07
5.02165e-07
4.9083e-07
4.79015e-07
4.6673e-07
4.53984e-07
4.4079e-07
4.2716e-07
4.13109e-07
3.98652e-07
3.83805e-07
3.68589e-07
3.53023e-07
3.37131e-07
3.20938e-07
3.04472e-07
2.87766e-07
2.70853e-07
2.53774e-07
2.36572e-07
2.19299e-07
2.02012e-07
1.84776e-07
1.67666e-07
1.50768e-07
1.34179e-07
1.18006e-07
1.02371e-07
8.74062e-08
7.32553e-08
6.00678e-08
4.79938e-08
3.7175e-08
2.77333e-08
1.97566e-08
1.32843e-08
8.29352e-09
4.69067e-09
2.30986e-09
9.22443e-10
2.57556e-10
3.35599e-11
1.96064e-13
1.6904e-13
2.89603e-11
2.22669e-10
7.99816e-10
2.01067e-09
4.10294e-09
7.29543e-09
1.17593e-08
1.76077e-08
2.48936e-08
3.36148e-08
4.37228e-08
5.51348e-08
6.77451e-08
8.14353e-08
9.6083e-08
1.11568e-07
1.27776e-07
1.44601e-07
1.61948e-07
1.79729e-07
1.97869e-07
2.16299e-07
2.34959e-07
2.53795e-07
2.7276e-07
2.91811e-07
3.1091e-07
3.30021e-07
3.49111e-07
3.68153e-07
3.87117e-07
4.05977e-07
4.24709e-07
4.4329e-07
4.61695e-07
4.79905e-07
4.97896e-07
5.1565e-07
5.33145e-07
5.50363e-07
5.67284e-07
5.83889e-07
6.0016e-07
6.16079e-07
6.31628e-07
6.4679e-07
6.61549e-07
6.75887e-07
6.89789e-07
7.03237e-07
7.16218e-07
7.28715e-07
7.40714e-07
7.522e-07
7.63159e-07
7.73578e-07
7.83442e-07
7.92739e-07
8.01455e-07
8.0958e-07
8.17099e-07
8.24003e-07
8.3028e-07
8.35919e-07
8.40909e-07
8.45241e-07
8.48905e-07
8.51891e-07
8.54191e-07
8.55797e-07
8.56701e-07
8.56895e-07
8.56376e-07
8.55132e-07
8.53159e-07
8.50451e-07
8.47004e-07
8.42813e-07
8.37877e-07
8.3219e-07
8.25752e-07
8.1856e-07
8.10615e-07
8.01915e-07
7.92463e-07
7.82259e-07
7.71307e-07
7.59611e-07
7.47174e-07
7.34003e-07
7.20105e-07
7.05487e-07
6.9016e-07
6.74134e-07
6.57422e-07
6.40037e-07
6.21994e-07
6.03313e-07
5.84011e-07
5.64111e-07
5.43637e-07
5.22616e-07
5.01076e-07
4.79052e-07
4.56578e-07
4.33697e-07
4.10455e-07
3.86902e-07
3.63097e-07
3.39107e-07
3.15005e-07
2.90875e-07
2.66809e-07
2.42914e-07
2.19308e-07
1.96123e-07
1.73504e-07
1.51612e-07
1.30621e-07
1.10711e-07
9.20723e-08
7.48909e-08
5.9343e-08
4.55815e-08
3.37225e-08
2.383e-08
1.59019e-08
9.85939e-09
5.54289e-09
2.71608e-09
1.08059e-09
3.00943e-10
3.91574e-11
2.28651e-13
1.92407e-13
3.29748e-11
2.5378e-10
9.13148e-10
2.30148e-09
4.71236e-09
8.41414e-09
1.36286e-08
2.05173e-08
2.91764e-08
3.9638e-08
5.18778e-08
6.58252e-08
8.13757e-08
9.84021e-08
1.16764e-07
1.36318e-07
1.56922e-07
1.7844e-07
2.00745e-07
2.23719e-07
2.47257e-07
2.71262e-07
2.95647e-07
3.20335e-07
3.45256e-07
3.70346e-07
3.95549e-07
4.20813e-07
4.46091e-07
4.71338e-07
4.96514e-07
5.2158e-07
5.46502e-07
5.71245e-07
5.95776e-07
6.20065e-07
6.44082e-07
6.67798e-07
6.91185e-07
7.14215e-07
7.36863e-07
7.59102e-07
7.80907e-07
8.02253e-07
8.23117e-07
8.43474e-07
8.633e-07
8.82575e-07
9.01274e-07
9.19376e-07
9.36861e-07
9.53706e-07
9.69892e-07
9.85399e-07
1.00021e-06
1.0143e-06
1.02765e-06
1.04025e-06
1.05207e-06
1.06311e-06
1.07334e-06
1.08275e-06
1.09132e-06
1.09904e-06
1.10589e-06
1.11186e-06
1.11693e-06
1.12109e-06
1.12433e-06
1.12664e-06
1.12801e-06
1.12841e-06
1.12786e-06
1.12634e-06
1.12382e-06
1.12032e-06
1.11581e-06
1.11031e-06
1.10379e-06
1.09625e-06
1.0877e-06
1.07813e-06
1.06753e-06
1.05591e-06
1.04326e-06
1.0296e-06
1.01491e-06
9.99215e-07
9.82509e-07
9.64804e-07
9.46107e-07
9.26431e-07
9.05787e-07
8.84192e-07
8.61662e-07
8.38218e-07
8.1388e-07
7.88675e-07
7.62631e-07
7.35778e-07
7.08155e-07
6.798e-07
6.50759e-07
6.21083e-07
5.90828e-07
5.60057e-07
5.28842e-07
4.97261e-07
4.65404e-07
4.33371e-07
4.01274e-07
3.69237e-07
3.37401e-07
3.0592e-07
2.74965e-07
2.44722e-07
2.15394e-07
1.87195e-07
1.60352e-07
1.35095e-07
1.11651e-07
9.02358e-08
7.10403e-08
5.42155e-08
3.98587e-08
2.79977e-08
1.85794e-08
1.14622e-08
6.41643e-09
3.13317e-09
1.24325e-09
3.45622e-10
4.49259e-11
2.62242e-13
2.15871e-13
3.70051e-11
2.84992e-10
1.02672e-09
2.59244e-09
5.32102e-09
9.52953e-09
1.54897e-08
2.34118e-08
3.34365e-08
4.56337e-08
6.00075e-08
7.65062e-08
9.50329e-08
1.15458e-07
1.37632e-07
1.6139e-07
1.86569e-07
2.13003e-07
2.40537e-07
2.69022e-07
2.98321e-07
3.28308e-07
3.58868e-07
3.89896e-07
4.21297e-07
4.52985e-07
4.84881e-07
5.16913e-07
5.49016e-07
5.81129e-07
6.13195e-07
6.45163e-07
6.76982e-07
7.08606e-07
7.39992e-07
7.71097e-07
8.01881e-07
8.32304e-07
8.6233e-07
8.91922e-07
9.21045e-07
9.49663e-07
9.77745e-07
1.00526e-06
1.03216e-06
1.05844e-06
1.08405e-06
1.10897e-06
1.13316e-06
1.1566e-06
1.17926e-06
1.20111e-06
1.22212e-06
1.24227e-06
1.26153e-06
1.27988e-06
1.29729e-06
1.31373e-06
1.32919e-06
1.34364e-06
1.35706e-06
1.36942e-06
1.3807e-06
1.39089e-06
1.39997e-06
1.40791e-06
1.41469e-06
1.4203e-06
1.42473e-06
1.42794e-06
1.42994e-06
1.4307e-06
1.43021e-06
1.42846e-06
1.42543e-06
1.42111e-06
1.41549e-06
1.40856e-06
1.40031e-06
1.39075e-06
1.37985e-06
1.36762e-06
1.35405e-06
1.33914e-06
1.32289e-06
1.30531e-06
1.28639e-06
1.26615e-06
1.24458e-06
1.2217e-06
1.19752e-06
1.17206e-06
1.14534e-06
1.11736e-06
1.08817e-06
1.05777e-06
1.02622e-06
9.9354e-07
9.59771e-07
9.24961e-07
8.89161e-07
8.52428e-07
8.14827e-07
7.76433e-07
7.37326e-07
6.97598e-07
6.57353e-07
6.16704e-07
5.75781e-07
5.34726e-07
4.93697e-07
4.5287e-07
4.12439e-07
3.72614e-07
3.33625e-07
2.95719e-07
2.59154e-07
2.24204e-07
1.91144e-07
1.60247e-07
1.31773e-07
1.05957e-07
8.29943e-08
6.30229e-08
4.61114e-08
3.22433e-08
2.13081e-08
1.30972e-08
7.30866e-09
3.55978e-09
1.40982e-09
3.91419e-10
5.08417e-11
2.96697e-13
2.3928e-13
4.1025e-11
3.16108e-10
1.13982e-09
2.88184e-09
5.92547e-09
1.06354e-08
1.73322e-08
2.6274e-08
3.76457e-08
5.15561e-08
6.80408e-08
8.70699e-08
1.08559e-07
1.32383e-07
1.58384e-07
1.86388e-07
2.16208e-07
2.47657e-07
2.80553e-07
3.14716e-07
3.49981e-07
3.86192e-07
4.23203e-07
4.60883e-07
4.99109e-07
5.37769e-07
5.76763e-07
6.15995e-07
6.55381e-07
6.94839e-07
7.34297e-07
7.73685e-07
8.12939e-07
8.51997e-07
8.90803e-07
9.29302e-07
9.67441e-07
1.00517e-06
1.04244e-06
1.0792e-06
1.11542e-06
1.15103e-06
1.18601e-06
1.22031e-06
1.25389e-06
1.2867e-06
1.31871e-06
1.34989e-06
1.38018e-06
1.40956e-06
1.43799e-06
1.46543e-06
1.49185e-06
1.51721e-06
1.54148e-06
1.56463e-06
1.58663e-06
1.60743e-06
1.62702e-06
1.64536e-06
1.66242e-06
1.67818e-06
1.6926e-06
1.70566e-06
1.71733e-06
1.72759e-06
1.7364e-06
1.74376e-06
1.74963e-06
1.75398e-06
1.75681e-06
1.75809e-06
1.7578e-06
1.75594e-06
1.75245e-06
1.74735e-06
1.74061e-06
1.73222e-06
1.72217e-06
1.71044e-06
1.69704e-06
1.68195e-06
1.66516e-06
1.64668e-06
1.62651e-06
1.60464e-06
1.58108e-06
1.55583e-06
1.52891e-06
1.50032e-06
1.47009e-06
1.43823e-06
1.40476e-06
1.36971e-06
1.33312e-06
1.29502e-06
1.25546e-06
1.21447e-06
1.17213e-06
1.12849e-06
1.08362e-06
1.0376e-06
9.90518e-07
9.42484e-07
8.93606e-07
8.44011e-07
7.9384e-07
7.43251e-07
6.92418e-07
6.41533e-07
5.9081e-07
5.40481e-07
4.90799e-07
4.42036e-07
3.94486e-07
3.48454e-07
3.04262e-07
2.62234e-07
2.22692e-07
1.85949e-07
1.52289e-07
1.21956e-07
9.51426e-08
7.1966e-08
5.24587e-08
3.65542e-08
2.40805e-08
1.47601e-08
8.21709e-09
3.99459e-09
1.57975e-09
4.38172e-10
5.68833e-11
3.31889e-13
2.62491e-13
4.50104e-11
3.46942e-10
1.25182e-09
3.16808e-09
6.52249e-09
1.1726e-08
1.91465e-08
2.90883e-08
4.17799e-08
5.73686e-08
7.59216e-08
9.74332e-08
1.21835e-07
1.49007e-07
1.78792e-07
2.11006e-07
2.45447e-07
2.81908e-07
3.20181e-07
3.60063e-07
4.01359e-07
4.43884e-07
4.87466e-07
5.31943e-07
5.77167e-07
6.23e-07
6.69317e-07
7.16e-07
7.62943e-07
8.10044e-07
8.57211e-07
9.04359e-07
9.51405e-07
9.98273e-07
1.04489e-06
1.09119e-06
1.1371e-06
1.18257e-06
1.22753e-06
1.27192e-06
1.31569e-06
1.35878e-06
1.40114e-06
1.44272e-06
1.48346e-06
1.52331e-06
1.56223e-06
1.60016e-06
1.63707e-06
1.6729e-06
1.7076e-06
1.74114e-06
1.77347e-06
1.80454e-06
1.83432e-06
1.86276e-06
1.88981e-06
1.91545e-06
1.93963e-06
1.96231e-06
1.98345e-06
2.00303e-06
2.02099e-06
2.03731e-06
2.05195e-06
2.06488e-06
2.07606e-06
2.08547e-06
2.09307e-06
2.09883e-06
2.10273e-06
2.10474e-06
2.10484e-06
2.10301e-06
2.0992e-06
2.0934e-06
2.0856e-06
2.07577e-06
2.06391e-06
2.04998e-06
2.03399e-06
2.01593e-06
1.99577e-06
1.97353e-06
1.9492e-06
1.92277e-06
1.89426e-06
1.86366e-06
1.831e-06
1.79628e-06
1.75953e-06
1.72077e-06
1.68003e-06
1.63735e-06
1.59276e-06
1.54633e-06
1.49809e-06
1.44812e-06
1.3965e-06
1.3433e-06
1.28862e-06
1.23256e-06
1.17525e-06
1.11682e-06
1.05742e-06
9.97218e-07
9.36399e-07
8.75168e-07
8.13753e-07
7.52402e-07
6.91389e-07
6.31006e-07
5.71572e-07
5.13425e-07
4.56919e-07
4.02426e-07
3.50322e-07
3.00984e-07
2.54777e-07
2.12045e-07
1.7309e-07
1.38161e-07
1.0744e-07
8.10165e-08
5.88831e-08
4.09194e-08
2.68899e-08
1.64465e-08
9.13926e-09
4.43637e-09
1.75252e-09
4.8573e-10
6.30307e-11
3.67701e-13
2.85376e-13
4.89392e-11
3.77327e-10
1.36211e-09
3.44965e-09
7.10904e-09
1.2796e-08
2.09237e-08
3.18411e-08
4.58182e-08
6.30396e-08
8.36039e-08
1.0753e-07
1.34766e-07
1.652e-07
1.98678e-07
2.35009e-07
2.7398e-07
3.15366e-07
3.5894e-07
4.04475e-07
4.5175e-07
5.00554e-07
5.50687e-07
6.01962e-07
6.54205e-07
7.07253e-07
7.60955e-07
8.15172e-07
8.69775e-07
9.24643e-07
9.79665e-07
1.03474e-06
1.08976e-06
1.14464e-06
1.19928e-06
1.25362e-06
1.30757e-06
1.36104e-06
1.41397e-06
1.46629e-06
1.51793e-06
1.56883e-06
1.6189e-06
1.66811e-06
1.71637e-06
1.76363e-06
1.80984e-06
1.85492e-06
1.89884e-06
1.94152e-06
1.98291e-06
2.02296e-06
2.06161e-06
2.09882e-06
2.13452e-06
2.16866e-06
2.2012e-06
2.23209e-06
2.26127e-06
2.28871e-06
2.31434e-06
2.33812e-06
2.36001e-06
2.37997e-06
2.39794e-06
2.4139e-06
2.42779e-06
2.43957e-06
2.44921e-06
2.45667e-06
2.46192e-06
2.4649e-06
2.46561e-06
2.46401e-06
2.46006e-06
2.45372e-06
2.44498e-06
2.43381e-06
2.42019e-06
2.4041e-06
2.38553e-06
2.36446e-06
2.34088e-06
2.31478e-06
2.28616e-06
2.25501e-06
2.22135e-06
2.18517e-06
2.1465e-06
2.10535e-06
2.06175e-06
2.01573e-06
1.96732e-06
1.91657e-06
1.86353e-06
1.80827e-06
1.75086e-06
1.69138e-06
1.62992e-06
1.5666e-06
1.50153e-06
1.43485e-06
1.36672e-06
1.29731e-06
1.2268e-06
1.15542e-06
1.08339e-06
1.01098e-06
9.38477e-07
8.66181e-07
7.94431e-07
7.23588e-07
6.54036e-07
5.8618e-07
5.2044e-07
4.57248e-07
3.97036e-07
3.4023e-07
2.87234e-07
2.38416e-07
1.94094e-07
1.54517e-07
1.19849e-07
9.01504e-08
6.53689e-08
4.53287e-08
2.97297e-08
1.81525e-08
1.00728e-08
4.8839e-09
1.92764e-09
5.33951e-10
6.92652e-11
4.04022e-13
3.07818e-13
5.27913e-11
4.07106e-10
1.47012e-09
3.72518e-09
7.68232e-09
1.38403e-08
2.26557e-08
3.45197e-08
4.97418e-08
6.85419e-08
9.10488e-08
1.17305e-07
1.47275e-07
1.80858e-07
2.17901e-07
2.58212e-07
3.01567e-07
3.47729e-07
3.96452e-07
4.47488e-07
5.00594e-07
5.55536e-07
6.12089e-07
6.70041e-07
7.29193e-07
7.89359e-07
8.50367e-07
9.12053e-07
9.74268e-07
1.03687e-06
1.09974e-06
1.16273e-06
1.22575e-06
1.28868e-06
1.35142e-06
1.41387e-06
1.47594e-06
1.53754e-06
1.59858e-06
1.65897e-06
1.71865e-06
1.77752e-06
1.83551e-06
1.89256e-06
1.94857e-06
2.00349e-06
2.05724e-06
2.10975e-06
2.16096e-06
2.21079e-06
2.25917e-06
2.30605e-06
2.35136e-06
2.39503e-06
2.437e-06
2.47721e-06
2.51559e-06
2.55209e-06
2.58664e-06
2.61918e-06
2.64967e-06
2.67803e-06
2.70421e-06
2.72817e-06
2.74983e-06
2.76916e-06
2.78609e-06
2.80059e-06
2.81259e-06
2.82205e-06
2.82893e-06
2.83317e-06
2.83475e-06
2.83363e-06
2.82976e-06
2.82308e-06
2.81359e-06
2.80124e-06
2.786e-06
2.76787e-06
2.7468e-06
2.72278e-06
2.6958e-06
2.66584e-06
2.6329e-06
2.59698e-06
2.55808e-06
2.51621e-06
2.47138e-06
2.42363e-06
2.37297e-06
2.31944e-06
2.2631e-06
2.20399e-06
2.14219e-06
2.07777e-06
2.01082e-06
1.94145e-06
1.86977e-06
1.79591e-06
1.72003e-06
1.64231e-06
1.56292e-06
1.4821e-06
1.40006e-06
1.31708e-06
1.23344e-06
1.14947e-06
1.06551e-06
9.81923e-07
8.99123e-07
8.17536e-07
7.37614e-07
6.59829e-07
5.84667e-07
5.12619e-07
4.44171e-07
3.79797e-07
3.19933e-07
2.6497e-07
2.15238e-07
1.70979e-07
1.32339e-07
9.93464e-08
7.19015e-08
4.97723e-08
3.25933e-08
1.98739e-08
1.10154e-08
5.33601e-09
2.10462e-09
5.82701e-10
7.5569e-11
4.4075e-13
3.29709e-13
5.65486e-11
4.36142e-10
1.57538e-09
3.99341e-09
8.23977e-09
1.48544e-08
2.43351e-08
3.71127e-08
5.3534e-08
7.38516e-08
9.82225e-08
1.26711e-07
1.59299e-07
1.95895e-07
2.36349e-07
2.80467e-07
3.2802e-07
3.78757e-07
4.32418e-07
4.88737e-07
5.47452e-07
6.08306e-07
6.71054e-07
7.35461e-07
8.01306e-07
8.68381e-07
9.36492e-07
1.00546e-06
1.07511e-06
1.14528e-06
1.21584e-06
1.28663e-06
1.35753e-06
1.42841e-06
1.49915e-06
1.56965e-06
1.63979e-06
1.70948e-06
1.77861e-06
1.8471e-06
1.91483e-06
1.98174e-06
2.04771e-06
2.11268e-06
2.17656e-06
2.23925e-06
2.30069e-06
2.36079e-06
2.41946e-06
2.47663e-06
2.53222e-06
2.58616e-06
2.63836e-06
2.68875e-06
2.73726e-06
2.7838e-06
2.82832e-06
2.87073e-06
2.91095e-06
2.94893e-06
2.98459e-06
3.01786e-06
3.04867e-06
3.07696e-06
3.10265e-06
3.12568e-06
3.146e-06
3.16353e-06
3.17822e-06
3.19e-06
3.19883e-06
3.20464e-06
3.20738e-06
3.20701e-06
3.2035e-06
3.19674e-06
3.18673e-06
3.17342e-06
3.15678e-06
3.13677e-06
3.11336e-06
3.08653e-06
3.05627e-06
3.02255e-06
2.98536e-06
2.94471e-06
2.90059e-06
2.85301e-06
2.802e-06
2.74758e-06
2.68977e-06
2.62864e-06
2.56423e-06
2.49661e-06
2.42587e-06
2.35209e-06
2.27538e-06
2.19588e-06
2.11372e-06
2.02907e-06
1.94211e-06
1.85306e-06
1.76214e-06
1.66961e-06
1.57576e-06
1.48091e-06
1.3854e-06
1.28961e-06
1.19394e-06
1.09885e-06
1.0048e-06
9.1229e-07
8.2184e-07
7.33992e-07
6.49294e-07
5.68298e-07
4.91543e-07
4.19544e-07
3.52768e-07
2.9163e-07
2.36464e-07
1.87507e-07
1.44883e-07
1.08585e-07
7.84671e-08
5.42407e-08
3.54745e-08
2.16069e-08
1.19648e-08
5.79157e-09
2.28302e-09
6.3185e-10
8.1925e-11
4.77783e-13
3.50958e-13
6.0195e-11
4.64311e-10
1.67742e-09
4.25323e-09
8.77911e-09
1.58341e-08
2.59551e-08
3.961e-08
5.71797e-08
7.89475e-08
1.05096e-07
1.3571e-07
1.70786e-07
2.10241e-07
2.5393e-07
3.01656e-07
3.53187e-07
4.08261e-07
4.66604e-07
5.27935e-07
5.91976e-07
6.58451e-07
7.27096e-07
7.97655e-07
8.6989e-07
9.43573e-07
1.01849e-06
1.09444e-06
1.17124e-06
1.24871e-06
1.32669e-06
1.40502e-06
1.48356e-06
1.56217e-06
1.64071e-06
1.71907e-06
1.79711e-06
1.87474e-06
1.95183e-06
2.02829e-06
2.10399e-06
2.17885e-06
2.25276e-06
2.32563e-06
2.39735e-06
2.46784e-06
2.53699e-06
2.60473e-06
2.67094e-06
2.73555e-06
2.79847e-06
2.8596e-06
2.91885e-06
2.97614e-06
3.03137e-06
3.08447e-06
3.13534e-06
3.1839e-06
3.23006e-06
3.27374e-06
3.31486e-06
3.35332e-06
3.38906e-06
3.42199e-06
3.45202e-06
3.47909e-06
3.50311e-06
3.52401e-06
3.54171e-06
3.55615e-06
3.56725e-06
3.57495e-06
3.57917e-06
3.57986e-06
3.57701e-06
3.57047e-06
3.56023e-06
3.54623e-06
3.52843e-06
3.50679e-06
3.48128e-06
3.45186e-06
3.4185e-06
3.38119e-06
3.33992e-06
3.29466e-06
3.24544e-06
3.19225e-06
3.13513e-06
3.07408e-06
3.00917e-06
2.94043e-06
2.86794e-06
2.79178e-06
2.71204e-06
2.62882e-06
2.54227e-06
2.45254e-06
2.35978e-06
2.26421e-06
2.16603e-06
2.0655e-06
1.96289e-06
1.85851e-06
1.7527e-06
1.64582e-06
1.53829e-06
1.43054e-06
1.32305e-06
1.21633e-06
1.11092e-06
1.00739e-06
9.06333e-07
8.08356e-07
7.14071e-07
6.24087e-07
5.38996e-07
4.59349e-07
3.85649e-07
3.18327e-07
2.57723e-07
2.04064e-07
1.57452e-07
1.17845e-07
8.50517e-08
5.87242e-08
3.83669e-08
2.33474e-08
1.29187e-08
6.24946e-09
2.46237e-09
6.81271e-10
8.83169e-11
5.15026e-13
3.71484e-13
6.37167e-11
4.91506e-10
1.77587e-09
4.50367e-09
9.29835e-09
1.6776e-08
2.75099e-08
4.20026e-08
6.06662e-08
8.38115e-08
1.11644e-07
1.44267e-07
1.8169e-07
2.23838e-07
2.70569e-07
3.21685e-07
3.76949e-07
4.36091e-07
4.98825e-07
5.64859e-07
6.33898e-07
7.05651e-07
7.79837e-07
8.56186e-07
9.34439e-07
1.01435e-06
1.0957e-06
1.17826e-06
1.26184e-06
1.34624e-06
1.43129e-06
1.51681e-06
1.60265e-06
1.68866e-06
1.77469e-06