/*--------------------------------*- C++ -*----------------------------------*\
  =========                 |
  \\      /  F ield         | OpenFOAM: The Open Source CFD Toolbox
   \\    /   O peration     | Website:  https://openfoam.org
    \\  /    A nd           | Version:  12
     \\/     M anipulation  |
\*---------------------------------------------------------------------------*/
FoamFile
{
    format      ascii;
    class       volVectorField;
    location    "4";
    object      U;
}
// * * * * * * * * * * * * * * * * * * * * * * * * * * * * * * * * * * * * * //

dimensions      [0 1 -1 0 0 0 0];

internalField   nonuniform List<vector> 
18225
(
(2.51301e-10 2.61593e-07 0)
(-6.35898e-07 6.10554e-07 0)
(-1.71869e-06 7.68248e-07 0)
(-3.087e-06 8.35681e-07 0)
(-4.43241e-06 8.34131e-07 0)
(-5.64655e-06 7.80938e-07 0)
(-6.61102e-06 6.89535e-07 0)
(-7.24529e-06 5.73329e-07 0)
(-7.48527e-06 4.40952e-07 0)
(-7.28919e-06 2.99381e-07 0)
(-6.6268e-06 1.53174e-07 0)
(-5.48042e-06 6.12159e-09 0)
(-3.83961e-06 -1.39784e-07 0)
(-1.70229e-06 -2.82658e-07 0)
(9.29255e-07 -4.21635e-07 0)
(4.04751e-06 -5.55673e-07 0)
(7.64218e-06 -6.84442e-07 0)
(1.16993e-05 -8.07346e-07 0)
(1.62033e-05 -9.24305e-07 0)
(2.11358e-05 -1.03492e-06 0)
(2.64776e-05 -1.13924e-06 0)
(3.22075e-05 -1.23698e-06 0)
(3.83034e-05 -1.32825e-06 0)
(4.47423e-05 -1.41283e-06 0)
(5.15004e-05 -1.49084e-06 0)
(5.85529e-05 -1.56213e-06 0)
(6.5875e-05 -1.62683e-06 0)
(7.3441e-05 -1.68483e-06 0)
(8.12254e-05 -1.73628e-06 0)
(8.92019e-05 -1.7811e-06 0)
(9.73446e-05 -1.81944e-06 0)
(0.000105627 -1.85127e-06 0)
(0.000114024 -1.87675e-06 0)
(0.000122508 -1.89589e-06 0)
(0.000131054 -1.90885e-06 0)
(0.000139637 -1.91568e-06 0)
(0.000148231 -1.91656e-06 0)
(0.000156811 -1.91155e-06 0)
(0.000165353 -1.90086e-06 0)
(0.000173833 -1.88457e-06 0)
(0.000182227 -1.86292e-06 0)
(0.000190514 -1.83601e-06 0)
(0.00019867 -1.80407e-06 0)
(0.000206674 -1.76724e-06 0)
(0.000214506 -1.72577e-06 0)
(0.000222146 -1.6798e-06 0)
(0.000229574 -1.6296e-06 0)
(0.000236773 -1.57534e-06 0)
(0.000243724 -1.51726e-06 0)
(0.000250412 -1.45556e-06 0)
(0.00025682 -1.39051e-06 0)
(0.000262935 -1.32228e-06 0)
(0.000268742 -1.25115e-06 0)
(0.000274228 -1.17732e-06 0)
(0.000279382 -1.10105e-06 0)
(0.000284193 -1.02253e-06 0)
(0.00028865 -9.42046e-07 0)
(0.000292746 -8.59775e-07 0)
(0.000296472 -7.75984e-07 0)
(0.000299821 -6.90862e-07 0)
(0.000302787 -6.04667e-07 0)
(0.000305366 -5.17578e-07 0)
(0.000307553 -4.29846e-07 0)
(0.000309344 -3.41644e-07 0)
(0.000310738 -2.5321e-07 0)
(0.000311734 -1.64709e-07 0)
(0.00031233 -7.63696e-08 0)
(0.000312528 1.166e-08 0)
(0.000312328 9.91328e-08 0)
(0.000311733 1.85957e-07 0)
(0.000310745 2.71911e-07 0)
(0.000309369 3.56853e-07 0)
(0.000307608 4.40592e-07 0)
(0.000305468 5.23011e-07 0)
(0.000302955 6.03932e-07 0)
(0.000300075 6.83246e-07 0)
(0.000296835 7.60784e-07 0)
(0.000293244 8.36446e-07 0)
(0.000289311 9.10075e-07 0)
(0.000285044 9.8158e-07 0)
(0.000280452 1.05081e-06 0)
(0.000275548 1.11769e-06 0)
(0.000270341 1.18207e-06 0)
(0.000264843 1.24387e-06 0)
(0.000259066 1.30296e-06 0)
(0.000253023 1.35926e-06 0)
(0.000246727 1.41265e-06 0)
(0.000240191 1.46305e-06 0)
(0.00023343 1.51033e-06 0)
(0.000226459 1.55442e-06 0)
(0.000219291 1.59519e-06 0)
(0.000211943 1.63256e-06 0)
(0.000204432 1.66641e-06 0)
(0.000196773 1.69665e-06 0)
(0.000188983 1.72315e-06 0)
(0.00018108 1.74582e-06 0)
(0.000173083 1.76452e-06 0)
(0.000165008 1.77915e-06 0)
(0.000156876 1.78958e-06 0)
(0.000148705 1.79568e-06 0)
(0.000140516 1.79731e-06 0)
(0.000132328 1.79433e-06 0)
(0.000124163 1.78659e-06 0)
(0.000116041 1.77394e-06 0)
(0.000107985 1.75621e-06 0)
(0.000100016 1.73323e-06 0)
(9.21569e-05 1.70483e-06 0)
(8.44311e-05 1.67082e-06 0)
(7.68617e-05 1.63101e-06 0)
(6.94727e-05 1.58519e-06 0)
(6.22881e-05 1.53316e-06 0)
(5.53323e-05 1.47471e-06 0)
(4.86302e-05 1.4096e-06 0)
(4.22065e-05 1.33763e-06 0)
(3.60863e-05 1.25856e-06 0)
(3.02945e-05 1.17218e-06 0)
(2.48557e-05 1.07827e-06 0)
(1.97945e-05 9.76657e-07 0)
(1.51346e-05 8.67174e-07 0)
(1.08989e-05 7.49743e-07 0)
(7.109e-06 6.24356e-07 0)
(3.78461e-06 4.91162e-07 0)
(9.43045e-07 3.50508e-07 0)
(-1.40172e-06 2.03086e-07 0)
(-3.2402e-06 5.00477e-08 0)
(-4.56894e-06 -1.06713e-07 0)
(-5.39246e-06 -2.64259e-07 0)
(-5.72605e-06 -4.1808e-07 0)
(-5.59899e-06 -5.6143e-07 0)
(-5.05921e-06 -6.84679e-07 0)
(-4.1787e-06 -7.74119e-07 0)
(-3.06182e-06 -8.11097e-07 0)
(-1.86466e-06 -7.69219e-07 0)
(-8.17239e-07 -6.06411e-07 0)
(-1.28141e-07 -2.77257e-07 0)
(-1.67121e-07 1.44339e-06 0)
(-1.36207e-06 3.4265e-06 0)
(-3.10894e-06 4.46692e-06 0)
(-5.0707e-06 4.77845e-06 0)
(-6.8668e-06 4.4926e-06 0)
(-8.2176e-06 3.73498e-06 0)
(-8.90139e-06 2.6107e-06 0)
(-8.74473e-06 1.21251e-06 0)
(-7.61083e-06 -3.87438e-07 0)
(-5.39718e-06 -2.12907e-06 0)
(-2.02791e-06 -3.96609e-06 0)
(2.54785e-06 -5.86012e-06 0)
(8.36226e-06 -7.78186e-06 0)
(1.54301e-05 -9.70667e-06 0)
(2.37531e-05 -1.16156e-05 0)
(3.33204e-05 -1.34923e-05 0)
(4.41122e-05 -1.53243e-05 0)
(5.60993e-05 -1.71005e-05 0)
(6.92463e-05 -1.88123e-05 0)
(8.3511e-05 -2.04521e-05 0)
(9.88464e-05 -2.20138e-05 0)
(0.000115201 -2.3492e-05 0)
(0.000132519 -2.48826e-05 0)
(0.000150743 -2.61817e-05 0)
(0.000169811 -2.73864e-05 0)
(0.000189659 -2.84941e-05 0)
(0.000210223 -2.9503e-05 0)
(0.000231434 -3.04113e-05 0)
(0.000253226 -3.12182e-05 0)
(0.000275529 -3.19226e-05 0)
(0.000298273 -3.25243e-05 0)
(0.000321389 -3.30231e-05 0)
(0.000344805 -3.34194e-05 0)
(0.000368453 -3.37137e-05 0)
(0.000392263 -3.39067e-05 0)
(0.000416164 -3.39996e-05 0)
(0.000440089 -3.39937e-05 0)
(0.000463971 -3.38906e-05 0)
(0.000487742 -3.36922e-05 0)
(0.000511338 -3.34004e-05 0)
(0.000534695 -3.30176e-05 0)
(0.000557749 -3.25461e-05 0)
(0.000580442 -3.19887e-05 0)
(0.000602714 -3.1348e-05 0)
(0.000624507 -3.0627e-05 0)
(0.000645768 -2.98289e-05 0)
(0.000666444 -2.89568e-05 0)
(0.000686484 -2.8014e-05 0)
(0.000705839 -2.70042e-05 0)
(0.000724465 -2.59307e-05 0)
(0.000742318 -2.47972e-05 0)
(0.000759356 -2.36074e-05 0)
(0.000775542 -2.2365e-05 0)
(0.000790841 -2.10739e-05 0)
(0.000805218 -1.97377e-05 0)
(0.000818643 -1.83605e-05 0)
(0.00083109 -1.6946e-05 0)
(0.000842532 -1.5498e-05 0)
(0.000852947 -1.40205e-05 0)
(0.000862315 -1.25171e-05 0)
(0.000870619 -1.09919e-05 0)
(0.000877845 -9.4483e-06 0)
(0.000883981 -7.89025e-06 0)
(0.000889017 -6.32131e-06 0)
(0.000892947 -4.74512e-06 0)
(0.000895765 -3.16518e-06 0)
(0.000897472 -1.58499e-06 0)
(0.000898066 -7.91344e-09 0)
(0.00089755 1.56269e-06 0)
(0.000895931 3.12363e-06 0)
(0.000893216 4.6717e-06 0)
(0.000889414 6.20385e-06 0)
(0.000884537 7.71705e-06 0)
(0.000878599 9.20842e-06 0)
(0.000871617 1.06751e-05 0)
(0.000863608 1.21143e-05 0)
(0.000854593 1.35235e-05 0)
(0.000844592 1.49e-05 0)
(0.000833631 1.62412e-05 0)
(0.000821734 1.75448e-05 0)
(0.000808929 1.88084e-05 0)
(0.000795244 2.00296e-05 0)
(0.000780711 2.12063e-05 0)
(0.00076536 2.23362e-05 0)
(0.000749227 2.34172e-05 0)
(0.000732347 2.44472e-05 0)
(0.000714755 2.54241e-05 0)
(0.00069649 2.6346e-05 0)
(0.000677593 2.72109e-05 0)
(0.000658103 2.80168e-05 0)
(0.000638063 2.87619e-05 0)
(0.000617518 2.94441e-05 0)
(0.000596511 3.00617e-05 0)
(0.00057509 3.06128e-05 0)
(0.000553302 3.10954e-05 0)
(0.000531196 3.15079e-05 0)
(0.000508822 3.18482e-05 0)
(0.000486232 3.21146e-05 0)
(0.000463478 3.23052e-05 0)
(0.000440615 3.24182e-05 0)
(0.000417697 3.24518e-05 0)
(0.00039478 3.24041e-05 0)
(0.000371923 3.22733e-05 0)
(0.000349182 3.20577e-05 0)
(0.000326619 3.17556e-05 0)
(0.000304293 3.13651e-05 0)
(0.000282266 3.08847e-05 0)
(0.000260601 3.03129e-05 0)
(0.000239359 2.96481e-05 0)
(0.000218605 2.88892e-05 0)
(0.000198404 2.80348e-05 0)
(0.000178818 2.70842e-05 0)
(0.000159914 2.60366e-05 0)
(0.000141754 2.48919e-05 0)
(0.000124404 2.36501e-05 0)
(0.000107925 2.23119e-05 0)
(9.23786e-05 2.08789e-05 0)
(7.78246e-05 1.93531e-05 0)
(6.43195e-05 1.77382e-05 0)
(5.19161e-05 1.60387e-05 0)
(4.06627e-05 1.42614e-05 0)
(3.06015e-05 1.24151e-05 0)
(2.17673e-05 1.05118e-05 0)
(1.41849e-05 8.56727e-06 0)
(7.86732e-06 6.60216e-06 0)
(2.81229e-06 4.64379e-06 0)
(-1.00111e-06 2.72795e-06 0)
(-3.61714e-06 9.01441e-07 0)
(-5.10902e-06 -7.7466e-07 0)
(-5.58502e-06 -2.2213e-06 0)
(-5.19548e-06 -3.33683e-06 0)
(-4.14379e-06 -3.99268e-06 0)
(-2.70836e-06 -4.02993e-06 0)
(-1.26784e-06 -3.26013e-06 0)
(-1.82939e-07 -1.48118e-06 0)
(-1.76758e-07 2.86103e-06 0)
(-1.26692e-06 6.42904e-06 0)
(-2.66034e-06 8.07695e-06 0)
(-3.98081e-06 8.15632e-06 0)
(-4.80628e-06 6.9565e-06 0)
(-4.80921e-06 4.72272e-06 0)
(-3.72871e-06 1.66709e-06 0)
(-1.35307e-06 -2.02784e-06 0)
(2.48902e-06 -6.20976e-06 0)
(7.93112e-06 -1.07505e-05 0)
(1.50748e-05 -1.55442e-05 0)
(2.3992e-05 -2.05022e-05 0)
(3.473e-05 -2.55512e-05 0)
(4.73137e-05 -3.06295e-05 0)
(6.17492e-05 -3.56858e-05 0)
(7.80253e-05 -4.06768e-05 0)
(9.61168e-05 -4.55661e-05 0)
(0.000115985 -5.03226e-05 0)
(0.000137582 -5.49201e-05 0)
(0.000160848 -5.93364e-05 0)
(0.000185716 -6.35522e-05 0)
(0.000212112 -6.75514e-05 0)
(0.000239955 -7.13201e-05 0)
(0.000269158 -7.48465e-05 0)
(0.000299632 -7.81209e-05 0)
(0.000331281 -8.11349e-05 0)
(0.000364007 -8.38819e-05 0)
(0.00039771 -8.63566e-05 0)
(0.000432287 -8.85547e-05 0)
(0.000467632 -9.04732e-05 0)
(0.00050364 -9.21104e-05 0)
(0.000540205 -9.34653e-05 0)
(0.000577218 -9.45379e-05 0)
(0.000614573 -9.53291e-05 0)
(0.000652163 -9.58407e-05 0)
(0.00068988 -9.60754e-05 0)
(0.000727621 -9.60363e-05 0)
(0.00076528 -9.57276e-05 0)
(0.000802755 -9.51539e-05 0)
(0.000839945 -9.43207e-05 0)
(0.000876751 -9.32337e-05 0)
(0.000913077 -9.18997e-05 0)
(0.000948829 -9.03256e-05 0)
(0.000983915 -8.85189e-05 0)
(0.00101825 -8.64876e-05 0)
(0.00105174 -8.42403e-05 0)
(0.00108431 -8.17856e-05 0)
(0.00111588 -7.91326e-05 0)
(0.00114637 -7.6291e-05 0)
(0.00117572 -7.32702e-05 0)
(0.00120385 -7.00805e-05 0)
(0.00123071 -6.67318e-05 0)
(0.00125622 -6.32346e-05 0)
(0.00128034 -5.95993e-05 0)
(0.00130301 -5.58364e-05 0)
(0.00132419 -5.19568e-05 0)
(0.00134382 -4.79709e-05 0)
(0.00136188 -4.38896e-05 0)
(0.00137832 -3.97236e-05 0)
(0.00139312 -3.54835e-05 0)
(0.00140624 -3.11799e-05 0)
(0.00141767 -2.68233e-05 0)
(0.00142738 -2.24241e-05 0)
(0.00143535 -1.79926e-05 0)
(0.00144159 -1.3539e-05 0)
(0.00144607 -9.0731e-06 0)
(0.0014488 -4.60483e-06 0)
(0.00144977 -1.43766e-07 0)
(0.001449 4.30068e-06 0)
(0.00144649 8.71931e-06 0)
(0.00144224 1.31031e-05 0)
(0.00143628 1.74433e-05 0)
(0.00142862 2.17314e-05 0)
(0.00141928 2.59589e-05 0)
(0.0014083 3.01178e-05 0)
(0.00139569 3.42003e-05 0)
(0.00138148 3.81985e-05 0)
(0.00136572 4.21051e-05 0)
(0.00134844 4.59128e-05 0)
(0.00132968 4.96146e-05 0)
(0.00130948 5.32035e-05 0)
(0.00128789 5.6673e-05 0)
(0.00126495 6.00164e-05 0)
(0.00124072 6.32276e-05 0)
(0.00121524 6.63003e-05 0)
(0.00118859 6.92285e-05 0)
(0.0011608 7.20062e-05 0)
(0.00113194 7.46278e-05 0)
(0.00110209 7.70876e-05 0)
(0.00107129 7.938e-05 0)
(0.00103961 8.14995e-05 0)
(0.00100714 8.34409e-05 0)
(0.000973927 8.51987e-05 0)
(0.000940057 8.67677e-05 0)
(0.000905602 8.81428e-05 0)
(0.000870639 8.93189e-05 0)
(0.000835247 9.02908e-05 0)
(0.000799507 9.10538e-05 0)
(0.000763502 9.16027e-05 0)
(0.000727316 9.19328e-05 0)
(0.000691035 9.20393e-05 0)
(0.000654747 9.19176e-05 0)
(0.000618542 9.15631e-05 0)
(0.00058251 9.09714e-05 0)
(0.000546744 9.01385e-05 0)
(0.000511337 8.90602e-05 0)
(0.000476384 8.77331e-05 0)
(0.00044198 8.61537e-05 0)
(0.000408221 8.43193e-05 0)
(0.000375204 8.22274e-05 0)
(0.000343027 7.98765e-05 0)
(0.000311786 7.72656e-05 0)
(0.000281577 7.43949e-05 0)
(0.000252495 7.12657e-05 0)
(0.000224636 6.78805e-05 0)
(0.000198089 6.4244e-05 0)
(0.000172944 6.03626e-05 0)
(0.000149285 5.62457e-05 0)
(0.000127192 5.19055e-05 0)
(0.000106738 4.73583e-05 0)
(8.79901e-05 4.26252e-05 0)
(7.10028e-05 3.77332e-05 0)
(5.58211e-05 3.27166e-05 0)
(4.2475e-05 2.76187e-05 0)
(3.09778e-05 2.24941e-05 0)
(2.13224e-05 1.74112e-05 0)
(1.3477e-05 1.24557e-05 0)
(7.38162e-06 7.73444e-06 0)
(2.94187e-06 3.38039e-06 0)
(2.42417e-08 -4.41633e-07 0)
(-1.55005e-06 -3.52866e-06 0)
(-2.01348e-06 -5.63277e-06 0)
(-1.67003e-06 -6.45361e-06 0)
(-9.17e-07 -5.62792e-06 0)
(-1.51425e-07 -2.71929e-06 0)
(-1.20435e-07 3.94384e-06 0)
(-6.81901e-07 8.39895e-06 0)
(-1.09249e-06 9.90236e-06 0)
(-9.69421e-07 8.9791e-06 0)
(8.5328e-08 6.06037e-06 0)
(2.39494e-06 1.51054e-06 0)
(6.22369e-06 -4.35598e-06 0)
(1.17903e-05 -1.12669e-05 0)
(1.92742e-05 -1.89894e-05 0)
(2.88177e-05 -2.73237e-05 0)
(4.05307e-05 -3.60998e-05 0)
(5.44924e-05 -4.51718e-05 0)
(7.07554e-05 -5.44157e-05 0)
(8.93477e-05 -6.37247e-05 0)
(0.000110275 -7.30077e-05 0)
(0.000133525 -8.21864e-05 0)
(0.000159067 -9.11933e-05 0)
(0.000186853 -9.99704e-05 0)
(0.000216824 -0.000108467 0)
(0.000248908 -0.000116641 0)
(0.000283022 -0.000124454 0)
(0.000319072 -0.000131874 0)
(0.000356957 -0.000138873 0)
(0.00039657 -0.000145427 0)
(0.000437795 -0.000151516 0)
(0.000480512 -0.000157124 0)
(0.000524596 -0.000162235 0)
(0.000569919 -0.000166839 0)
(0.000616348 -0.000170927 0)
(0.000663748 -0.000174491 0)
(0.000711984 -0.000177528 0)
(0.000760917 -0.000180034 0)
(0.000810408 -0.000182009 0)
(0.00086032 -0.000183454 0)
(0.000910512 -0.000184371 0)
(0.000960847 -0.000184765 0)
(0.00101119 -0.000184642 0)
(0.0010614 -0.000184008 0)
(0.00111134 -0.000182873 0)
(0.00116089 -0.000181245 0)
(0.00120992 -0.000179135 0)
(0.00125829 -0.000176556 0)
(0.00130589 -0.000173521 0)
(0.0013526 -0.000170044 0)
(0.0013983 -0.000166139 0)
(0.00144287 -0.000161822 0)
(0.00148622 -0.000157109 0)
(0.00152823 -0.000152019 0)
(0.00156881 -0.000146568 0)
(0.00160786 -0.000140775 0)
(0.00164529 -0.000134658 0)
(0.00168103 -0.000128237 0)
(0.00171498 -0.000121531 0)
(0.00174708 -0.00011456 0)
(0.00177726 -0.000107344 0)
(0.00180545 -9.99031e-05 0)
(0.00183159 -9.22578e-05 0)
(0.00185564 -8.44283e-05 0)
(0.00187754 -7.64348e-05 0)
(0.00189725 -6.82977e-05 0)
(0.00191474 -6.00372e-05 0)
(0.00192997 -5.16732e-05 0)
(0.00194291 -4.32257e-05 0)
(0.00195356 -3.47143e-05 0)
(0.00196188 -2.61583e-05 0)
(0.00196788 -1.75768e-05 0)
(0.00197154 -8.98864e-06 0)
(0.00197287 -4.12277e-07 0)
(0.00197187 8.13422e-06 0)
(0.00196855 1.66331e-05 0)
(0.00196292 2.50671e-05 0)
(0.001955 3.34192e-05 0)
(0.00194483 4.1673e-05 0)
(0.00193242 4.98122e-05 0)
(0.0019178 5.78212e-05 0)
(0.00190102 6.56846e-05 0)
(0.00188212 7.33877e-05 0)
(0.00186114 8.09158e-05 0)
(0.00183812 8.8255e-05 0)
(0.00181313 9.53915e-05 0)
(0.00178622 0.000102312 0)
(0.00175744 0.000109003 0)
(0.00172687 0.000115453 0)
(0.00169457 0.000121649 0)
(0.0016606 0.000127579 0)
(0.00162505 0.000133231 0)
(0.00158799 0.000138594 0)
(0.0015495 0.000143656 0)
(0.00150966 0.000148408 0)
(0.00146856 0.000152837 0)
(0.00142629 0.000156934 0)
(0.00138294 0.000160689 0)
(0.0013386 0.00016409 0)
(0.00129337 0.000167129 0)
(0.00124735 0.000169795 0)
(0.00120065 0.000172079 0)
(0.00115336 0.000173972 0)
(0.00110559 0.000175464 0)
(0.00105746 0.000176546 0)
(0.00100907 0.00017721 0)
(0.000960543 0.000177446 0)
(0.000911986 0.000177248 0)
(0.000863519 0.000176606 0)
(0.000815261 0.000175514 0)
(0.000767333 0.000173964 0)
(0.000719856 0.00017195 0)
(0.000672952 0.000169466 0)
(0.000626747 0.000166508 0)
(0.000581362 0.000163071 0)
(0.000536924 0.000159153 0)
(0.000493556 0.000154753 0)
(0.000451381 0.00014987 0)
(0.000410521 0.000144508 0)
(0.000371098 0.000138671 0)
(0.000333227 0.000132366 0)
(0.000297024 0.000125606 0)
(0.000262599 0.000118404 0)
(0.000230055 0.000110782 0)
(0.00019949 0.000102765 0)
(0.000170993 9.43854e-05 0)
(0.000144643 8.56854e-05 0)
(0.000120508 7.6716e-05 0)
(9.86403e-05 6.75406e-05 0)
(7.90766e-05 5.82374e-05 0)
(6.18342e-05 4.89018e-05 0)
(4.69078e-05 3.96502e-05 0)
(3.42666e-05 3.06245e-05 0)
(2.38501e-05 2.19961e-05 0)
(1.55643e-05 1.39729e-05 0)
(9.27748e-06 6.80502e-06 0)
(4.81576e-06 7.92693e-07 0)
(1.95731e-06 -3.70531e-06 0)
(4.23661e-07 -6.26102e-06 0)
(-1.29801e-07 -6.35845e-06 0)
(-7.75078e-08 -3.36785e-06 0)
(-5.0608e-08 4.30889e-06 0)
(1.25638e-07 8.43827e-06 0)
(1.066e-06 8.71901e-06 0)
(3.12598e-06 5.79874e-06 0)
(6.63809e-06 2.19012e-07 0)
(1.1889e-05 -7.55634e-06 0)
(1.91224e-05 -1.71237e-05 0)
(2.8543e-05 -2.81301e-05 0)
(4.03196e-05 -4.02684e-05 0)
(5.45875e-05 -5.32708e-05 0)
(7.1451e-05 -6.69048e-05 0)
(9.09852e-05 -8.09673e-05 0)
(0.000113239 -9.52819e-05 0)
(0.000138235 -0.000109694 0)
(0.000165975 -0.000124071 0)
(0.000196439 -0.000138293 0)
(0.000229589 -0.00015226 0)
(0.000265369 -0.000165881 0)
(0.000303708 -0.000179077 0)
(0.000344521 -0.000191781 0)
(0.00038771 -0.000203933 0)
(0.000433166 -0.00021548 0)
(0.000480771 -0.000226377 0)
(0.000530397 -0.000236586 0)
(0.000581908 -0.000246072 0)
(0.000635163 -0.000254807 0)
(0.000690014 -0.000262767 0)
(0.000746307 -0.000269933 0)
(0.000803887 -0.000276288 0)
(0.000862593 -0.000281822 0)
(0.000922263 -0.000286526 0)
(0.000982731 -0.000290394 0)
(0.00104383 -0.000293424 0)
(0.0011054 -0.000295617 0)
(0.00116727 -0.000296976 0)
(0.00122928 -0.000297507 0)
(0.00129125 -0.000297219 0)
(0.00135304 -0.000296121 0)
(0.00141447 -0.000294227 0)
(0.00147539 -0.000291552 0)
(0.00153564 -0.000288112 0)
(0.00159507 -0.000283926 0)
(0.00165353 -0.000279015 0)
(0.00171089 -0.000273399 0)
(0.00176699 -0.000267102 0)
(0.0018217 -0.000260149 0)
(0.00187489 -0.000252566 0)
(0.00192644 -0.000244379 0)
(0.00197623 -0.000235616 0)
(0.00202414 -0.000226306 0)
(0.00207006 -0.00021648 0)
(0.00211389 -0.000206166 0)
(0.00215554 -0.000195396 0)
(0.00219492 -0.000184202 0)
(0.00223193 -0.000172615 0)
(0.00226651 -0.000160666 0)
(0.00229857 -0.000148389 0)
(0.00232807 -0.000135815 0)
(0.00235493 -0.000122976 0)
(0.00237911 -0.000109906 0)
(0.00240056 -9.66363e-05 0)
(0.00241925 -8.31985e-05 0)
(0.00243514 -6.96245e-05 0)
(0.0024482 -5.59456e-05 0)
(0.00245842 -4.2193e-05 0)
(0.00246578 -2.83971e-05 0)
(0.00247028 -1.4588e-05 0)
(0.00247192 -7.95315e-07 0)
(0.00247069 1.29519e-05 0)
(0.00246662 2.66251e-05 0)
(0.00245972 4.01965e-05 0)
(0.00245001 5.36388e-05 0)
(0.00243752 6.69254e-05 0)
(0.00242229 8.00302e-05 0)
(0.00240435 9.2928e-05 0)
(0.00238375 0.000105594 0)
(0.00236054 0.000118004 0)
(0.00233477 0.000130135 0)
(0.0023065 0.000141963 0)
(0.0022758 0.000153468 0)
(0.00224273 0.000164626 0)
(0.00220737 0.000175417 0)
(0.0021698 0.000185821 0)
(0.00213009 0.000195818 0)
(0.00208834 0.000205388 0)
(0.00204463 0.000214512 0)
(0.00199905 0.000223172 0)
(0.00195171 0.000231349 0)
(0.00190271 0.000239027 0)
(0.00185214 0.000246188 0)
(0.00180013 0.000252815 0)
(0.00174677 0.000258892 0)
(0.00169219 0.000264402 0)
(0.00163651 0.000269331 0)
(0.00157984 0.000273662 0)
(0.0015223 0.000277381 0)
(0.00146404 0.000280472 0)
(0.00140517 0.000282923 0)
(0.00134583 0.000284718 0)
(0.00128615 0.000285845 0)
(0.00122627 0.00028629 0)
(0.00116633 0.000286042 0)
(0.00110647 0.000285089 0)
(0.00104684 0.00028342 0)
(0.000987576 0.000281025 0)
(0.000928825 0.000277896 0)
(0.000870736 0.000274025 0)
(0.000813456 0.000269406 0)
(0.000757133 0.000264035 0)
(0.000701913 0.00025791 0)
(0.000647944 0.00025103 0)
(0.000595372 0.0002434 0)
(0.000544339 0.000235024 0)
(0.000494986 0.000225914 0)
(0.000447452 0.000216084 0)
(0.000401869 0.000205555 0)
(0.000358364 0.000194352 0)
(0.000317058 0.00018251 0)
(0.000278064 0.000170072 0)
(0.000241486 0.00015709 0)
(0.000207414 0.000143629 0)
(0.000175929 0.000129769 0)
(0.000147094 0.000115604 0)
(0.000120956 0.00010125 0)
(9.75425e-05 8.68449e-05 0)
(7.68581e-05 7.2554e-05 0)
(5.88836e-05 5.85734e-05 0)
(4.35718e-05 4.51362e-05 0)
(3.08457e-05 3.25183e-05 0)
(2.05947e-05 2.10455e-05 0)
(1.26724e-05 1.11011e-05 0)
(6.89334e-06 3.13466e-06 0)
(3.03601e-06 -2.32647e-06 0)
(8.48529e-07 -4.65642e-06 0)
(7.03322e-09 -3.10365e-06 0)
(2.43418e-08 3.81204e-06 0)
(1.03127e-06 6.14506e-06 0)
(3.51148e-06 3.91087e-06 0)
(7.78106e-06 -2.16726e-06 0)
(1.40876e-05 -1.14717e-05 0)
(2.26637e-05 -2.3464e-05 0)
(3.37171e-05 -3.76692e-05 0)
(4.74241e-05 -5.3666e-05 0)
(6.39303e-05 -7.10828e-05 0)
(8.33519e-05 -8.95905e-05 0)
(0.000105777 -0.000108899 0)
(0.000131268 -0.00012875 0)
(0.00015986 -0.000148917 0)
(0.000191567 -0.000169199 0)
(0.000226378 -0.000189418 0)
(0.000264264 -0.000209416 0)
(0.000305174 -0.000229054 0)
(0.000349041 -0.000248209 0)
(0.000395782 -0.000266771 0)
(0.000445298 -0.000284644 0)
(0.000497476 -0.000301743 0)
(0.000552193 -0.000317994 0)
(0.000609313 -0.000333332 0)
(0.00066869 -0.000347699 0)
(0.000730171 -0.000361046 0)
(0.000793595 -0.000373332 0)
(0.000858793 -0.00038452 0)
(0.00092559 -0.000394583 0)
(0.00099381 -0.000403495 0)
(0.00106327 -0.000411238 0)
(0.00113378 -0.0004178 0)
(0.00120516 -0.000423171 0)
(0.00127721 -0.000427347 0)
(0.00134975 -0.000430327 0)
(0.00142259 -0.000432117 0)
(0.00149553 -0.000432723 0)
(0.00156839 -0.000432156 0)
(0.00164098 -0.000430431 0)
(0.00171312 -0.000427565 0)
(0.00178462 -0.000423579 0)
(0.00185531 -0.000418497 0)
(0.00192501 -0.000412344 0)
(0.00199354 -0.000405149 0)
(0.00206076 -0.000396942 0)
(0.00212648 -0.000387757 0)
(0.00219056 -0.000377628 0)
(0.00225285 -0.000366593 0)
(0.0023132 -0.000354688 0)
(0.00237147 -0.000341955 0)
(0.00242754 -0.000328433 0)
(0.00248127 -0.000314166 0)
(0.00253255 -0.000299197 0)
(0.00258127 -0.000283569 0)
(0.00262732 -0.000267327 0)
(0.0026706 -0.000250518 0)
(0.00271103 -0.000233186 0)
(0.00274853 -0.000215378 0)
(0.00278301 -0.00019714 0)
(0.00281441 -0.000178519 0)
(0.00284267 -0.000159561 0)
(0.00286774 -0.000140312 0)
(0.00288957 -0.000120818 0)
(0.00290813 -0.000101125 0)
(0.00292339 -8.1278e-05 0)
(0.00293531 -6.13218e-05 0)
(0.0029439 -4.13005e-05 0)
(0.00294913 -2.12575e-05 0)
(0.00295102 -1.23564e-06 0)
(0.00294956 1.87231e-05 0)
(0.00294476 3.85774e-05 0)
(0.00293665 5.82869e-05 0)
(0.00292526 7.7812e-05 0)
(0.00291061 9.71142e-05 0)
(0.00289275 0.000116156 0)
(0.00287171 0.000134899 0)
(0.00284756 0.00015331 0)
(0.00282035 0.000171351 0)
(0.00279014 0.00018899 0)
(0.002757 0.000206193 0)
(0.002721 0.000222928 0)
(0.00268223 0.000239163 0)
(0.00264077 0.000254867 0)
(0.00259671 0.000270011 0)
(0.00255014 0.000284567 0)
(0.00250117 0.000298504 0)
(0.00244989 0.000311797 0)
(0.00239643 0.000324418 0)
(0.00234088 0.00033634 0)
(0.00228337 0.00034754 0)
(0.00222403 0.000357991 0)
(0.00216296 0.00036767 0)
(0.00210032 0.000376552 0)
(0.00203622 0.000384616 0)
(0.00197081 0.000391837 0)
(0.00190422 0.000398196 0)
(0.00183661 0.00040367 0)
(0.00176811 0.000408238 0)
(0.00169887 0.000411882 0)
(0.00162906 0.000414581 0)
(0.00155882 0.000416318 0)
(0.00148831 0.000417075 0)
(0.0014177 0.000416835 0)
(0.00134714 0.000415583 0)
(0.0012768 0.000413305 0)
(0.00120685 0.000409989 0)
(0.00113745 0.000405623 0)
(0.00106876 0.000400199 0)
(0.00100097 0.000393711 0)
(0.000934229 0.000386153 0)
(0.000868711 0.000377526 0)
(0.000804582 0.000367832 0)
(0.000742007 0.000357078 0)
(0.000681146 0.000345276 0)
(0.000622159 0.000332441 0)
(0.000565202 0.000318599 0)
(0.000510423 0.00030378 0)
(0.000457966 0.000288024 0)
(0.000407967 0.00027138 0)
(0.000360554 0.000253909 0)
(0.000315845 0.000235685 0)
(0.000273946 0.000216798 0)
(0.00023495 0.000197356 0)
(0.000198936 0.000177486 0)
(0.000165965 0.00015734 0)
(0.000136081 0.000137098 0)
(0.000109308 0.000116968 0)
(8.56457e-05 9.71963e-05 0)
(6.50719e-05 7.8071e-05 0)
(4.75383e-05 5.99259e-05 0)
(3.29693e-05 4.31487e-05 0)
(2.12601e-05 2.81885e-05 0)
(1.22768e-05 1.55629e-05 0)
(5.87074e-06 5.86872e-06 0)
(1.89884e-06 -1.98871e-07 0)
(9.40668e-08 -1.8225e-06 0)
(9.91141e-08 2.40122e-06 0)
(1.9684e-06 1.33618e-06 0)
(6.07008e-06 -4.83523e-06 0)
(1.2681e-05 -1.53484e-05 0)
(2.19588e-05 -2.95375e-05 0)
(3.4075e-05 -4.68124e-05 0)
(4.91932e-05 -6.66438e-05 0)
(6.74528e-05 -8.85564e-05 0)
(8.89679e-05 -0.000112124 0)
(0.000113827 -0.000136966 0)
(0.000142096 -0.000162738 0)
(0.000173814 -0.000189135 0)
(0.000209 -0.000215882 0)
(0.00024765 -0.000242733 0)
(0.000289737 -0.000269467 0)
(0.000335217 -0.000295887 0)
(0.000384026 -0.000321817 0)
(0.00043608 -0.0003471 0)
(0.000491282 -0.000371593 0)
(0.000549517 -0.000395172 0)
(0.000610659 -0.000417726 0)
(0.000674566 -0.000439156 0)
(0.000741087 -0.000459375 0)
(0.000810059 -0.000478306 0)
(0.00088131 -0.000495884 0)
(0.00095466 -0.000512052 0)
(0.00102992 -0.00052676 0)
(0.0011069 -0.00053997 0)
(0.0011854 -0.000551647 0)
(0.00126522 -0.000561766 0)
(0.00134615 -0.000570308 0)
(0.00142798 -0.00057726 0)
(0.0015105 -0.000582615 0)
(0.0015935 -0.000586373 0)
(0.00167677 -0.000588536 0)
(0.0017601 -0.000589115 0)
(0.00184327 -0.000588123 0)
(0.00192608 -0.000585579 0)
(0.00200833 -0.000581506 0)
(0.0020898 -0.000575931 0)
(0.0021703 -0.000568884 0)
(0.00224965 -0.0005604 0)
(0.00232763 -0.000550516 0)
(0.00240408 -0.000539274 0)
(0.00247881 -0.000526716 0)
(0.00255164 -0.00051289 0)
(0.00262241 -0.000497843 0)
(0.00269096 -0.000481628 0)
(0.00275713 -0.000464296 0)
(0.00282078 -0.000445904 0)
(0.00288176 -0.000426506 0)
(0.00293995 -0.000406162 0)
(0.00299522 -0.00038493 0)
(0.00304744 -0.00036287 0)
(0.00309652 -0.000340044 0)
(0.00314235 -0.000316511 0)
(0.00318485 -0.000292336 0)
(0.00322391 -0.000267578 0)
(0.00325948 -0.000242302 0)
(0.00329149 -0.00021657 0)
(0.00331987 -0.000190443 0)
(0.00334457 -0.000163983 0)
(0.00336556 -0.000137252 0)
(0.00338279 -0.000110311 0)
(0.00339625 -8.32202e-05 0)
(0.00340592 -5.60389e-05 0)
(0.00341178 -2.88259e-05 0)
(0.00341384 -1.63912e-06 0)
(0.0034121 2.54648e-05 0)
(0.00340658 5.24299e-05 0)
(0.00339729 7.92017e-05 0)
(0.00338428 0.000105727 0)
(0.00336757 0.000131952 0)
(0.00334721 0.000157827 0)
(0.00332325 0.000183301 0)
(0.00329574 0.000208327 0)
(0.00326476 0.000232855 0)
(0.00323037 0.00025684 0)
(0.00319266 0.000280237 0)
(0.00315169 0.000303001 0)
(0.00310757 0.000325091 0)
(0.00306039 0.000346463 0)
(0.00301024 0.000367079 0)
(0.00295725 0.000386898 0)
(0.00290151 0.000405882 0)
(0.00284315 0.000423994 0)
(0.00278229 0.000441197 0)
(0.00271905 0.000457457 0)
(0.00265357 0.000472738 0)
(0.00258599 0.000487007 0)
(0.00251644 0.000500233 0)
(0.00244507 0.000512382 0)
(0.00237203 0.000523424 0)
(0.00229748 0.00053333 0)
(0.00222157 0.00054207 0)
(0.00214446 0.000549616 0)
(0.00206632 0.000555941 0)
(0.00198731 0.00056102 0)
(0.00190761 0.000564827 0)
(0.00182739 0.000567338 0)
(0.00174682 0.000568532 0)
(0.00166609 0.000568387 0)
(0.00158537 0.000566884 0)
(0.00150485 0.000564006 0)
(0.00142471 0.000559738 0)
(0.00134514 0.000554067 0)
(0.00126631 0.000546983 0)
(0.00118843 0.00053848 0)
(0.00111167 0.000528554 0)
(0.00103621 0.000517206 0)
(0.000962249 0.000504443 0)
(0.00088996 0.000490275 0)
(0.000819523 0.000474721 0)
(0.000751113 0.000457805 0)
(0.000684901 0.00043956 0)
(0.000621053 0.00042003 0)
(0.000559727 0.000399266 0)
(0.000501077 0.000377336 0)
(0.000445245 0.000354318 0)
(0.000392365 0.000330308 0)
(0.00034256 0.000305421 0)
(0.000295941 0.00027979 0)
(0.000252603 0.000253574 0)
(0.000212629 0.000226959 0)
(0.000176083 0.000200159 0)
(0.000143015 0.000173425 0)
(0.000113452 0.000147044 0)
(8.74032e-05 0.00012135 0)
(6.48585e-05 9.67214e-05 0)
(4.57853e-05 7.35958e-05 0)
(3.01282e-05 5.24701e-05 0)
(1.78125e-05 3.39088e-05 0)
(8.76763e-06 1.85529e-05 0)
(2.96107e-06 7.13587e-06 0)
(1.78988e-07 5.0353e-07 0)
(1.71323e-07 6.9852e-08 0)
(2.90277e-06 -6.04427e-06 0)
(8.64647e-06 -1.76417e-05 0)
(1.76455e-05 -3.39386e-05 0)
(2.99702e-05 -5.42414e-05 0)
(4.57306e-05 -7.79251e-05 0)
(6.50431e-05 -0.000104421 0)
(8.80066e-05 -0.000133213 0)
(0.000114698 -0.000163829 0)
(0.000145175 -0.000195844 0)
(0.000179472 -0.000228871 0)
(0.000217605 -0.000262558 0)
(0.000259569 -0.000296589 0)
(0.000305336 -0.000330674 0)
(0.000354862 -0.000364555 0)
(0.000408082 -0.000397994 0)
(0.000464913 -0.000430781 0)
(0.000525256 -0.000462723 0)
(0.000588995 -0.000493647 0)
(0.000655999 -0.0005234 0)
(0.000726123 -0.000551843 0)
(0.000799208 -0.000578853 0)
(0.000875087 -0.00060432 0)
(0.000953578 -0.000628148 0)
(0.00103449 -0.000650252 0)
(0.00111763 -0.00067056 0)
(0.00120278 -0.00068901 0)
(0.00128975 -0.000705549 0)
(0.0013783 -0.000720135 0)
(0.00146821 -0.000732734 0)
(0.00155927 -0.00074332 0)
(0.00165123 -0.000751877 0)
(0.00174388 -0.000758395 0)
(0.00183698 -0.00076287 0)
(0.0019303 -0.000765309 0)
(0.0020236 -0.000765721 0)
(0.00211667 -0.000764125 0)
(0.00220926 -0.000760542 0)
(0.00230116 -0.000755002 0)
(0.00239214 -0.000747539 0)
(0.00248199 -0.00073819 0)
(0.00257049 -0.000727001 0)
(0.00265744 -0.000714017 0)
(0.00274264 -0.000699292 0)
(0.00282588 -0.000682881 0)
(0.00290697 -0.000664842 0)
(0.00298574 -0.000645237 0)
(0.00306201 -0.000624133 0)
(0.0031356 -0.000601596 0)
(0.00320636 -0.000577696 0)
(0.00327414 -0.000552506 0)
(0.00333878 -0.000526099 0)
(0.00340016 -0.000498552 0)
(0.00345815 -0.00046994 0)
(0.00351262 -0.000440341 0)
(0.00356347 -0.000409835 0)
(0.0036106 -0.0003785 0)
(0.00365391 -0.000346417 0)
(0.00369333 -0.000313666 0)
(0.00372877 -0.000280325 0)
(0.00376018 -0.000246476 0)
(0.0037875 -0.000212197 0)
(0.00381069 -0.000177568 0)
(0.00382971 -0.000142667 0)
(0.00384453 -0.000107571 0)
(0.00385513 -7.23565e-05 0)
(0.0038615 -3.70998e-05 0)
(0.00386365 -1.8751e-06 0)
(0.00386157 3.32446e-05 0)
(0.00385529 6.81873e-05 0)
(0.00384483 0.000102882 0)
(0.00383022 0.000137261 0)
(0.0038115 0.000171256 0)
(0.00378873 0.0002048 0)
(0.00376195 0.000237829 0)
(0.00373123 0.00027028 0)
(0.00369665 0.000302092 0)
(0.00365827 0.000333205 0)
(0.0036162 0.00036356 0)
(0.0035705 0.0003931 0)
(0.0035213 0.000421771 0)
(0.00346868 0.000449518 0)
(0.00341277 0.00047629 0)
(0.00335368 0.000502034 0)
(0.00329152 0.000526703 0)
(0.00322645 0.000550246 0)
(0.00315857 0.000572619 0)
(0.00308805 0.000593774 0)
(0.00301501 0.000613669 0)
(0.00293962 0.00063226 0)
(0.00286202 0.000649505 0)
(0.00278238 0.000665364 0)
(0.00270085 0.000679797 0)
(0.00261762 0.000692767 0)
(0.00253285 0.000704237 0)
(0.00244671 0.000714172 0)
(0.00235939 0.000722537 0)
(0.00227107 0.0007293 0)
(0.00218194 0.00073443 0)
(0.00209219 0.000737898 0)
(0.002002 0.000739676 0)
(0.00191158 0.000739738 0)
(0.00182112 0.000738063 0)
(0.00173082 0.00073463 0)
(0.00164087 0.00072942 0)