/*--------------------------------*- C++ -*----------------------------------*\
  =========                 |
  \\      /  F ield         | OpenFOAM: The Open Source CFD Toolbox
   \\    /   O peration     | Website:  https://openfoam.org
    \\  /    A nd           | Version:  12
     \\/     M anipulation  |
\*---------------------------------------------------------------------------*/
FoamFile
{
    format      ascii;
    class       volScalarField;
    location    "9";
    object      epsilon;
}
// * * * * * * * * * * * * * * * * * * * * * * * * * * * * * * * * * * * * * //

dimensions      [0 2 -3 0 0 0 0];

internalField   nonuniform List<scalar> 
5625
(
1.08481e-12
7.33251e-12
1.62632e-11
2.67746e-11
3.83014e-11
5.04544e-11
6.29318e-11
7.54902e-11
8.79329e-11
1.00105e-10
1.1189e-10
1.23211e-10
1.34023e-10
1.44318e-10
1.54114e-10
1.63456e-10
1.72408e-10
1.81051e-10
1.89474e-10
1.97773e-10
2.06046e-10
2.14388e-10
2.2289e-10
2.3164e-10
2.40716e-10
2.50192e-10
2.60131e-10
2.70593e-10
2.81628e-10
2.9328e-10
3.05588e-10
3.18583e-10
3.3229e-10
3.46728e-10
3.61909e-10
3.77836e-10
3.94503e-10
4.11893e-10
4.29979e-10
4.48714e-10
4.68036e-10
4.8786e-10
5.08073e-10
5.2853e-10
5.49053e-10
5.69415e-10
5.89346e-10
6.0852e-10
6.26552e-10
6.42999e-10
6.57354e-10
6.69042e-10
6.7738e-10
6.81481e-10
6.81735e-10
6.76944e-10
6.66498e-10
6.50029e-10
6.27363e-10
5.98543e-10
5.63863e-10
5.23894e-10
4.79475e-10
4.3168e-10
3.81757e-10
3.31035e-10
2.8083e-10
2.32341e-10
1.86575e-10
1.44295e-10
1.06029e-10
7.21307e-11
4.29384e-11
1.91297e-11
2.82291e-12
2.04938e-12
3.98346e-12
7.9565e-12
1.28177e-11
1.82022e-11
2.39018e-11
2.97655e-11
3.56751e-11
4.15359e-11
4.72738e-11
5.28334e-11
5.81772e-11
6.32847e-11
6.81506e-11
7.27839e-11
7.72051e-11
8.14445e-11
8.55396e-11
8.95326e-11
9.34685e-11
9.73934e-11
1.01352e-10
1.05389e-10
1.09543e-10
1.13854e-10
1.18356e-10
1.23079e-10
1.28051e-10
1.33296e-10
1.38836e-10
1.4469e-10
1.50871e-10
1.57392e-10
1.64263e-10
1.71488e-10
1.79069e-10
1.87002e-10
1.95281e-10
2.03889e-10
2.12805e-10
2.21998e-10
2.31425e-10
2.41031e-10
2.50746e-10
2.60481e-10
2.70127e-10
2.79551e-10
2.88597e-10
2.97079e-10
3.04784e-10
3.11472e-10
3.16868e-10
3.20651e-10
3.22431e-10
3.22358e-10
3.19895e-10
3.14767e-10
3.06812e-10
2.95958e-10
2.82238e-10
2.65799e-10
2.46916e-10
2.25982e-10
2.035e-10
1.80045e-10
1.56232e-10
1.32666e-10
1.09901e-10
8.84034e-11
6.8534e-11
5.05518e-11
3.4653e-11
2.10748e-11
1.04108e-11
5.32977e-12
4.35075e-12
3.87866e-12
6.12713e-12
9.27204e-12
1.28757e-11
1.67412e-11
2.0745e-11
2.47968e-11
2.88272e-11
3.27823e-11
3.66224e-11
4.03204e-11
4.38613e-11
4.72407e-11
5.04643e-11
5.35458e-11
5.65058e-11
5.93698e-11
6.21669e-11
6.49283e-11
6.76857e-11
7.04707e-11
7.33135e-11
7.62428e-11
7.92852e-11
8.2465e-11
8.58042e-11
8.93224e-11
9.30373e-11
9.69639e-11
1.01115e-10
1.05502e-10
1.10134e-10
1.15016e-10
1.20152e-10
1.25543e-10
1.31185e-10
1.37073e-10
1.43193e-10
1.49528e-10
1.56053e-10
1.62736e-10
1.69534e-10
1.76392e-10
1.83244e-10
1.90006e-10
1.96583e-10
2.02857e-10
2.08695e-10
2.13945e-10
2.18437e-10
2.21983e-10
2.24338e-10
2.25304e-10
2.24934e-10
2.22884e-10
2.18992e-10
2.13162e-10
2.05363e-10
1.95635e-10
1.84094e-10
1.70935e-10
1.56432e-10
1.40922e-10
1.2479e-10
1.08443e-10
9.228e-11
7.66693e-11
6.19258e-11
4.83033e-11
3.60049e-11
2.52276e-11
1.62941e-11
1.01274e-11
1.12868e-11
7.11209e-12
4.6456e-12
5.79017e-12
7.98762e-12
1.06799e-11
1.3643e-11
1.67523e-11
1.99239e-11
2.3096e-11
2.62224e-11
2.92691e-11
3.22129e-11
3.50405e-11
3.77477e-11
4.0338e-11
4.28219e-11
4.52152e-11
4.7538e-11
4.98134e-11
5.20661e-11
5.43216e-11
5.66053e-11
5.89419e-11
6.13545e-11
6.38651e-11
6.64937e-11
6.92587e-11
7.21763e-11
7.52612e-11
7.85262e-11
8.19823e-11
8.56384e-11
8.95016e-11
9.35768e-11
9.78662e-11
1.02369e-10
1.07082e-10
1.11998e-10
1.17103e-10
1.22381e-10
1.27807e-10
1.33349e-10
1.38968e-10
1.44614e-10
1.50226e-10
1.55732e-10
1.61045e-10
1.66067e-10
1.70686e-10
1.74776e-10
1.78202e-10
1.80815e-10
1.82388e-10
1.82872e-10
1.82227e-10
1.80222e-10
1.76749e-10
1.71751e-10
1.6522e-10
1.57201e-10
1.47797e-10
1.3717e-10
1.25535e-10
1.13155e-10
1.00325e-10
8.73565e-11
7.45545e-11
6.22028e-11
5.05507e-11
3.98121e-11
3.01842e-11
2.19061e-11
1.54339e-11
1.20801e-11
1.83716e-11
1.02469e-11
5.83406e-12
6.09224e-12
7.61208e-12
9.70062e-12
1.20949e-11
1.46585e-11
1.73051e-11
1.99744e-11
2.26222e-11
2.52164e-11
2.77352e-11
3.01656e-11
3.25029e-11
3.47492e-11
3.69126e-11
3.90064e-11
4.10474e-11
4.30553e-11
4.50514e-11
4.70577e-11
4.90964e-11
5.1189e-11
5.33563e-11
5.56177e-11
5.7991e-11
6.04928e-11
6.31379e-11
6.59396e-11
6.89093e-11
7.20568e-11
7.53902e-11
7.89153e-11
8.26356e-11
8.65522e-11
9.06632e-11
9.49631e-11
9.94423e-11
1.04087e-10
1.08876e-10
1.13785e-10
1.18781e-10
1.23822e-10
1.28859e-10
1.33833e-10
1.38675e-10
1.43304e-10
1.47632e-10
1.51559e-10
1.54977e-10
1.57771e-10
1.59815e-10
1.60884e-10
1.61059e-10
1.60207e-10
1.58175e-10
1.54889e-10
1.50309e-10
1.44439e-10
1.37324e-10
1.29055e-10
1.19773e-10
1.09659e-10
9.89368e-11
8.78545e-11
7.66743e-11
6.56564e-11
5.50456e-11
4.50641e-11
3.59161e-11
2.78148e-11
2.10552e-11
1.62419e-11
1.50812e-11
2.63106e-11
1.36946e-11
7.28721e-12
6.75707e-12
7.72663e-12
9.35609e-12
1.13391e-11
1.35227e-11
1.58146e-11
1.81524e-11
2.04912e-11
2.2799e-11
2.50538e-11
2.72422e-11
2.93585e-11
3.14037e-11
3.33844e-11
3.53118e-11
3.72009e-11
3.90691e-11
4.09357e-11
4.28208e-11
4.47446e-11
4.67272e-11
4.87876e-11
5.09441e-11
5.32136e-11
5.56115e-11
5.81518e-11
6.0847e-11
6.37078e-11
6.67432e-11
6.99601e-11
7.33633e-11
7.69548e-11
8.07342e-11
8.46973e-11
8.88363e-11
9.3139e-11
9.75882e-11
1.02161e-10
1.06829e-10
1.11556e-10
1.16298e-10
1.21007e-10
1.25621e-10
1.30076e-10
1.34295e-10
1.38197e-10
1.41693e-10
1.4469e-10
1.47092e-10
1.48773e-10
1.49536e-10
1.49539e-10
1.4858e-10
1.46563e-10
1.43426e-10
1.39135e-10
1.33693e-10
1.27135e-10
1.1954e-10
1.11028e-10
1.01761e-10
9.19373e-11
8.17857e-11
7.15491e-11
6.14723e-11
5.17899e-11
4.27212e-11
3.4478e-11
2.73006e-11
2.15546e-11
1.79871e-11
1.87049e-11
3.48969e-11
1.74165e-11
8.93362e-12
7.66272e-12
8.15297e-12
9.40433e-12
1.10641e-11
1.2961e-11
1.49944e-11
1.7098e-11
1.92248e-11
2.13415e-11
2.34252e-11
2.54615e-11
2.74437e-11
2.93714e-11
3.12501e-11
3.30897e-11
3.49037e-11
3.67083e-11
3.85214e-11
4.03618e-11
4.2249e-11
4.42018e-11
4.62388e-11
4.83773e-11
5.06338e-11
5.30232e-11
5.55589e-11
5.82528e-11
6.1115e-11
6.41534e-11
6.73739e-11
7.07798e-11
7.43715e-11
7.8146e-11
8.20969e-11
8.62132e-11
9.04795e-11
9.48749e-11
9.9373e-11
1.03942e-10
1.08542e-10
1.13129e-10
1.17652e-10
1.22052e-10
1.26267e-10
1.30226e-10
1.33857e-10
1.37081e-10
1.39819e-10
1.4199e-10
1.43473e-10
1.44105e-10
1.44058e-10
1.43121e-10
1.41212e-10
1.38271e-10
1.34259e-10
1.29164e-10
1.23004e-10
1.15834e-10
1.07761e-10
9.89336e-11
8.95416e-11
7.98087e-11
6.99792e-11
6.03039e-11
5.10277e-11
4.23846e-11
3.46098e-11
2.79813e-11
2.29319e-11
2.03422e-11
2.27469e-11
4.39812e-11
2.13875e-11
1.07357e-11
8.74524e-12
8.79944e-12
9.72338e-12
1.11153e-11
1.27841e-11
1.46199e-11
1.65511e-11
1.85279e-11
2.05148e-11
2.24873e-11
2.44297e-11
2.6334e-11
2.8199e-11
3.00287e-11
3.18322e-11
3.36218e-11
3.54131e-11
3.7223e-11
3.90698e-11
4.09723e-11
4.29489e-11
4.50178e-11
4.7196e-11
4.94995e-11
5.1943e-11
5.45394e-11
5.72999e-11
6.02336e-11
6.33477e-11
6.66464e-11
7.01312e-11
7.38002e-11
7.76479e-11
8.16643e-11
8.58355e-11
9.01419e-11
9.45589e-11
9.90566e-11
1.03599e-10
1.08147e-10
1.12652e-10
1.17066e-10
1.21333e-10
1.25394e-10
1.29188e-10
1.32651e-10
1.35717e-10
1.38319e-10
1.4039e-10
1.41831e-10
1.42482e-10
1.42506e-10
1.41716e-10
1.40017e-10
1.37338e-10
1.33625e-10
1.28843e-10
1.22991e-10
1.16107e-10
1.08277e-10
9.96369e-11
9.03761e-11
8.07242e-11
7.09408e-11
6.12976e-11
5.20649e-11
4.3505e-11
3.58853e-11
2.95261e-11
2.4942e-11
2.31318e-11
2.70897e-11
5.34479e-11
2.55915e-11
1.26719e-11
9.96742e-12
9.6129e-12
1.02437e-11
1.14053e-11
1.28862e-11
1.45663e-11
1.63678e-11
1.82374e-11
2.01371e-11
2.20402e-11
2.39296e-11
2.57958e-11
2.76364e-11
2.94546e-11
3.12585e-11
3.30599e-11
3.48736e-11
3.67162e-11
3.86057e-11
4.05604e-11
4.25987e-11
4.47384e-11
4.69965e-11
4.93888e-11
5.19295e-11
5.463e-11
5.75013e-11
6.05517e-11
6.37867e-11
6.72088e-11
7.08171e-11
7.46071e-11
7.857e-11
8.26926e-11
8.69571e-11
9.13404e-11
9.58141e-11
1.00345e-10
1.04896e-10
1.09425e-10
1.13887e-10
1.18234e-10
1.22417e-10
1.26384e-10
1.30082e-10
1.33461e-10
1.36465e-10
1.39041e-10
1.4113e-10
1.42663e-10
1.43489e-10
1.43689e-10
1.43166e-10
1.41782e-10
1.39447e-10
1.36085e-10
1.31633e-10
1.26061e-10
1.19383e-10
1.11667e-10
1.03043e-10
9.36992e-11
8.38818e-11
7.38746e-11
6.39823e-11
5.45123e-11
4.57665e-11
3.80539e-11
3.17427e-11
2.74383e-11
2.6249e-11
3.16574e-11
6.32082e-11
3.00177e-11
1.4729e-11
1.13062e-11
1.056e-11
1.09217e-11
1.18803e-11
1.32024e-11
1.47569e-11
1.64604e-11
1.82547e-11
2.00987e-11
2.19635e-11
2.38302e-11
2.56878e-11
2.75327e-11
2.93673e-11
3.11989e-11
3.30389e-11
3.49015e-11
3.6803e-11
3.87614e-11
4.0795e-11
4.29219e-11
4.51599e-11
4.75257e-11
5.00349e-11
5.27012e-11
5.55366e-11
5.85503e-11
6.17488e-11
6.51359e-11
6.87118e-11
7.24729e-11
7.64113e-11
8.05147e-11
8.4766e-11
8.91428e-11
9.36188e-11
9.81629e-11
1.0274e-10
1.07311e-10
1.11835e-10
1.16269e-10
1.20572e-10
1.24699e-10
1.28611e-10
1.32266e-10
1.35626e-10
1.38651e-10
1.41298e-10
1.43517e-10
1.45249e-10
1.46389e-10
1.46875e-10
1.4672e-10
1.45745e-10
1.43832e-10
1.40872e-10
1.36771e-10
1.31469e-10
1.24952e-10
1.17271e-10
1.08547e-10
9.89735e-11
8.88151e-11
7.83864e-11
6.80325e-11
5.81073e-11
4.89615e-11
4.09537e-11
3.45068e-11
3.03248e-11
2.96232e-11
3.6397e-11
7.31915e-11
3.46587e-11
1.68987e-11
1.27464e-11
1.16185e-11
1.17284e-11
1.25046e-11
1.36904e-11
1.51431e-11
1.67721e-11
1.85151e-11
2.03277e-11
2.21784e-11
2.40458e-11
2.59175e-11
2.77887e-11
2.96609e-11
3.15408e-11
3.34396e-11
3.53713e-11
3.73525e-11
3.94008e-11
4.15344e-11
4.37716e-11
4.613e-11
4.8626e-11
5.12744e-11
5.40883e-11
5.70787e-11
6.02535e-11
6.36176e-11
6.71725e-11
7.09157e-11
7.48404e-11
7.89353e-11
8.31844e-11
8.75666e-11
9.20562e-11
9.66235e-11
1.01235e-10
1.05855e-10
1.10444e-10
1.14966e-10
1.19382e-10
1.23656e-10
1.27757e-10
1.31654e-10
1.35319e-10
1.38728e-10
1.41851e-10
1.44656e-10
1.471e-10
1.49128e-10
1.50664e-10
1.51584e-10
1.51846e-10
1.51356e-10
1.49924e-10
1.47411e-10
1.43685e-10
1.38653e-10
1.32276e-10
1.24584e-10
1.15689e-10
1.05792e-10
9.51734e-11
8.41825e-11
7.32092e-11
6.26599e-11
5.29416e-11
4.44706e-11
3.77312e-11
3.35344e-11
3.32047e-11
4.12696e-11
8.33413e-11
3.95099e-11
1.91753e-11
1.42782e-11
1.27733e-11
1.26438e-11
1.32534e-11
1.43206e-11
1.56903e-11
1.72649e-11
1.89767e-11
2.07777e-11
2.26334e-11
2.45203e-11
2.64246e-11
2.834e-11
3.02672e-11
3.22124e-11
3.41864e-11
3.62033e-11
3.82795e-11
4.04328e-11
4.26813e-11
4.50434e-11
4.75363e-11
5.01762e-11
5.29773e-11
5.59517e-11
5.9109e-11
6.24556e-11
6.59941e-11
6.97234e-11
7.3638e-11
7.77278e-11
8.19777e-11
8.63679e-11
9.08738e-11
9.54666e-11
1.00114e-10
1.04782e-10
1.09435e-10
1.14037e-10
1.18554e-10
1.22957e-10
1.27219e-10
1.31318e-10
1.35238e-10
1.38963e-10
1.42481e-10
1.45772e-10
1.48813e-10
1.51566e-10
1.53973e-10
1.55958e-10
1.57424e-10
1.5816e-10
1.58188e-10
1.57279e-10
1.55244e-10
1.51911e-10
1.47157e-10
1.40915e-10
1.33194e-10
1.24096e-10
1.13822e-10
1.02673e-10
9.10274e-11
7.93227e-11
6.80214e-11
5.75929e-11
4.85184e-11
4.13514e-11
3.70177e-11
3.69575e-11
4.62459e-11
9.36125e-11
4.45685e-11
2.15554e-11
1.58945e-11
1.40133e-11
1.36536e-11
1.41088e-11
1.50717e-11
1.63741e-11
1.79103e-11
1.96074e-11
2.14131e-11
2.32899e-11
2.5212e-11
2.71636e-11
2.91373e-11
3.1133e-11
3.31565e-11
3.52183e-11
3.73325e-11
3.95154e-11
4.1785e-11
4.41595e-11
4.66569e-11
4.92944e-11
5.20875e-11
5.50497e-11
5.81917e-11
6.15217e-11
6.50438e-11
6.87584e-11
7.26614e-11
7.6744e-11
8.09924e-11
8.5388e-11
8.99075e-11
9.4523e-11
9.92035e-11
1.03916e-10
1.08625e-10
1.13299e-10
1.17906e-10
1.22419e-10
1.26816e-10
1.31082e-10
1.35208e-10
1.39188e-10
1.43021e-10
1.46703e-10
1.50226e-10
1.53568e-10
1.56692e-10
1.5954e-10
1.62026e-10
1.64042e-10
1.65382e-10
1.65893e-10
1.65528e-10
1.63989e-10
1.61063e-10
1.56597e-10
1.50496e-10
1.4275e-10
1.33446e-10
1.22782e-10
1.11072e-10
9.87223e-11
8.62146e-11
7.40696e-11
6.28233e-11
5.3029e-11
4.53178e-11
4.07372e-11
4.08546e-11
5.13038e-11
1.0397e-10
4.9833e-11
2.40367e-11
1.75906e-11
1.5331e-11
1.4747e-11
1.50577e-11
1.59282e-11
1.71764e-11
1.86879e-11
2.03842e-11
2.22084e-11
2.41197e-11
2.60897e-11
2.81009e-11
3.01444e-11
3.22195e-11
3.43315e-11
3.64907e-11
3.87112e-11
4.10096e-11
4.34036e-11
4.59116e-11
4.85514e-11
5.13395e-11
5.42909e-11
5.74179e-11
6.073e-11
6.42332e-11
6.79294e-11
7.18162e-11
7.58864e-11
8.01279e-11
8.45232e-11
8.90503e-11
9.36827e-11
9.83903e-11
1.03141e-10
1.079e-10
1.12637e-10
1.17322e-10
1.21929e-10
1.26439e-10
1.30842e-10
1.35134e-10
1.39316e-10
1.43395e-10
1.47381e-10
1.51277e-10
1.55081e-10
1.58773e-10
1.62315e-10
1.6564e-10
1.68653e-10
1.71227e-10
1.73195e-10
1.74222e-10
1.74359e-10
1.73325e-10
1.70812e-10
1.66644e-10
1.60702e-10
1.52951e-10
1.43463e-10
1.32428e-10
1.20161e-10
1.07095e-10
9.37485e-11
8.07003e-11
6.85558e-11
5.79466e-11
4.959e-11
4.46653e-11
4.48761e-11
5.64265e-11
1.14387e-10
5.53029e-11
2.66178e-11
1.93629e-11
1.67206e-11
1.59162e-11
1.609e-11
1.68781e-11
1.80833e-11
1.95821e-11
2.12895e-11
2.3144e-11
2.51011e-11
2.71299e-11
2.92105e-11
3.13332e-11
3.34962e-11
3.57045e-11
3.79684e-11
4.03019e-11
4.27216e-11
4.52454e-11
4.78915e-11
5.06773e-11
5.36189e-11
5.67302e-11
6.00222e-11
6.35027e-11
6.71756e-11
7.10402e-11
7.50913e-11
7.93183e-11
8.37056e-11
8.82328e-11
9.28744e-11
9.76016e-11
1.02383e-10
1.07185e-10
1.11977e-10
1.1673e-10
1.21418e-10
1.26026e-10
1.30542e-10
1.34967e-10
1.39308e-10
1.43578e-10
1.47794e-10
1.51972e-10
1.56124e-10
1.60248e-10
1.64324e-10
1.68308e-10
1.72126e-10
1.7567e-10
1.788e-10
1.81344e-10
1.82956e-10
1.83519e-10
1.82981e-10
1.80883e-10
1.77023e-10
1.71261e-10
1.6354e-10
1.53909e-10
1.42544e-10
1.29757e-10
1.15992e-10
1.01804e-10
8.78225e-11
7.47244e-11
6.32248e-11
5.41356e-11
4.87814e-11
4.9007e-11
6.16022e-11
1.24844e-10
6.09785e-11
2.92977e-11
2.12091e-11
1.81779e-11
1.71549e-11
1.71981e-11
1.79123e-11
1.90842e-11
2.05806e-11
2.23096e-11
2.42046e-11
2.62172e-11
2.83135e-11
3.04719e-11
3.2681e-11
3.49385e-11
3.72489e-11
3.96225e-11
4.20733e-11
4.46181e-11
4.72746e-11
5.00608e-11
5.29938e-11
5.60888e-11
5.93585e-11
6.28126e-11
6.64568e-11
7.02928e-11
7.43171e-11
7.85215e-11
8.28922e-11
8.74105e-11
9.20527e-11
9.67912e-11
1.01595e-10
1.06433e-10
1.11272e-10
1.16085e-10
1.20846e-10
1.25537e-10
1.30151e-10
1.34687e-10
1.39155e-10
1.43573e-10
1.47963e-10
1.5235e-10
1.56758e-10
1.61198e-10
1.65668e-10
1.70145e-10
1.74579e-10
1.78884e-10
1.82944e-10
1.86604e-10
1.89681e-10
1.91867e-10
1.92831e-10
1.92744e-10
1.91055e-10
1.87508e-10
1.8195e-10
1.743e-10
1.6458e-10
1.52946e-10
1.39697e-10
1.25281e-10
1.10275e-10
9.5356e-11
8.12715e-11
6.88243e-11
5.89286e-11
5.30691e-11
5.3237e-11
6.68232e-11
1.35329e-10
6.68602e-11
3.20762e-11
2.31273e-11
1.96997e-11
1.84583e-11
1.8376e-11
1.90234e-11
2.01706e-11
2.16737e-11
2.34335e-11
2.53778e-11
2.7454e-11
2.96253e-11
3.18678e-11
3.4169e-11
3.65257e-11
3.89422e-11
4.14286e-11
4.39992e-11
4.66707e-11
4.94607e-11
5.23869e-11
5.54658e-11
5.87117e-11
6.21361e-11
6.5747e-11
6.95479e-11
7.3538e-11
7.77113e-11
8.20563e-11
8.65563e-11
9.11898e-11
9.59306e-11
1.00749e-10
1.05614e-10
1.10494e-10
1.1536e-10
1.20186e-10
1.24954e-10
1.29655e-10
1.34287e-10
1.38862e-10
1.43397e-10
1.47921e-10
1.52463e-10
1.57055e-10
1.6172e-10
1.66471e-10
1.71303e-10
1.76185e-10
1.81059e-10
1.85832e-10
1.90376e-10
1.94525e-10
1.98084e-10
2.00786e-10
2.02176e-10
2.02445e-10
2.01159e-10
1.97929e-10
1.92596e-10
1.85058e-10
1.7531e-10
1.63479e-10
1.49843e-10
1.34842e-10
1.19065e-10
1.03229e-10
8.81466e-11
7.4712e-11
6.39489e-11
5.75157e-11
5.75592e-11
7.2085e-11
1.45836e-10
7.2949e-11
3.4953e-11
2.51164e-11
2.12835e-11
1.98227e-11
1.96191e-11
2.02057e-11
2.13357e-11
2.28536e-11
2.46522e-11
2.66533e-11
2.88e-11
3.10521e-11
3.33838e-11
3.57811e-11
3.82401e-11
4.0765e-11
4.33658e-11
4.60568e-11
4.88547e-11
5.17771e-11
5.48414e-11
5.80631e-11
6.14557e-11
6.50292e-11
6.87896e-11
7.27385e-11
7.68725e-11
8.11828e-11
8.56551e-11
9.02701e-11
9.50037e-11
9.98279e-11
1.04712e-10
1.09626e-10
1.14538e-10
1.19424e-10
1.24264e-10
1.29045e-10
1.33766e-10
1.38435e-10
1.43071e-10
1.47703e-10
1.52364e-10
1.5709e-10
1.61913e-10
1.66859e-10
1.71936e-10
1.77133e-10
1.82413e-10
1.87708e-10
1.92917e-10
1.97902e-10
2.02493e-10
2.06485e-10
2.09621e-10
2.11431e-10
2.1199e-10
2.11085e-10
2.08164e-10
2.03071e-10
1.95682e-10
1.85965e-10
1.74013e-10
1.60075e-10
1.44571e-10
1.28089e-10
1.11376e-10
9.53044e-11
8.08589e-11
6.91808e-11
6.21107e-11
6.19701e-11
7.73866e-11
1.56365e-10
7.92459e-11
3.7928e-11
2.71754e-11
2.29274e-11
2.12453e-11
2.09233e-11
2.14544e-11
2.25738e-11
2.41137e-11
2.5958e-11
2.80224e-11
3.02451e-11
3.25828e-11
3.50072e-11
3.75031e-11
4.00662e-11
4.27001e-11
4.54152e-11
4.82257e-11
5.11484e-11
5.42007e-11
5.73993e-11
6.07594e-11
6.42929e-11
6.80085e-11
7.19102e-11
7.59976e-11
8.02645e-11
8.46998e-11
8.92865e-11
9.40031e-11
9.88235e-11
1.03719e-10
1.08658e-10
1.13612e-10
1.18553e-10
1.2346e-10
1.28319e-10
1.33124e-10
1.37883e-10
1.42612e-10
1.47338e-10
1.52096e-10
1.56925e-10
1.61863e-10
1.66944e-10
1.72187e-10
1.77597e-10
1.83156e-10
1.88819e-10
1.94508e-10
2.00115e-10
2.05494e-10
2.10473e-10
2.14841e-10
2.18344e-10
2.20532e-10
2.21336e-10
2.20775e-10
2.18147e-10
2.13297e-10
2.06085e-10
1.9645e-10
1.84449e-10
1.70296e-10
1.54377e-10
1.37271e-10
1.19738e-10
1.02704e-10
8.72396e-11
7.46106e-11
6.68477e-11
6.64682e-11
8.2729e-11
1.6692e-10
8.57517e-11
4.10014e-11
2.93035e-11
2.46298e-11
2.27238e-11
2.22856e-11
2.27658e-11
2.38804e-11
2.54484e-11
2.73446e-11
2.94776e-11
3.17808e-11
3.42073e-11
3.67267e-11
3.93226e-11
4.19898e-11
4.47323e-11
4.75601e-11
5.04879e-11
5.35323e-11
5.67106e-11
6.0039e-11
6.35316e-11
6.71994e-11
7.10493e-11
7.50836e-11
7.92995e-11
8.36887e-11
8.82376e-11
9.29272e-11
9.7734e-11
1.02631e-10
1.07588e-10
1.12576e-10
1.17568e-10
1.22539e-10
1.27473e-10
1.32363e-10
1.37211e-10
1.42031e-10
1.46848e-10
1.51694e-10
1.56611e-10
1.61638e-10
1.66816e-10
1.72173e-10
1.77726e-10
1.83473e-10
1.89386e-10
1.95411e-10
2.01464e-10
2.07428e-10
2.13154e-10
2.18466e-10
2.23153e-10
2.26963e-10
2.29475e-10
2.30487e-10
2.3022e-10
2.27858e-10
2.23244e-10
2.16222e-10
2.06705e-10
1.94717e-10
1.80428e-10
1.64186e-10
1.46544e-10
1.28262e-10
1.10306e-10
9.38307e-11
8.02264e-11
7.17231e-11
7.10539e-11
8.81155e-11
1.77508e-10
9.24674e-11
4.41733e-11
3.15002e-11
2.63894e-11
2.42563e-11
2.37034e-11
2.41364e-11
2.52514e-11
2.68531e-11
2.88062e-11
3.10121e-11
3.33991e-11
3.59166e-11
3.85321e-11
4.12278e-11
4.39984e-11
4.68474e-11
4.97855e-11
5.28272e-11
5.59892e-11
5.92887e-11
6.27412e-11
6.63601e-11
7.0155e-11
7.41312e-11
7.82893e-11
8.26243e-11
8.71261e-11
9.17788e-11
9.65617e-11
1.0145e-10
1.06416e-10
1.11431e-10
1.16467e-10
1.21499e-10
1.26508e-10
1.31483e-10
1.36422e-10
1.41336e-10
1.46245e-10
1.5118e-10
1.5618e-10
1.61287e-10
1.66542e-10
1.71984e-10
1.77636e-10
1.83509e-10
1.89591e-10
1.95848e-10
2.02215e-10
2.08602e-10
2.14886e-10
2.20914e-10
2.26511e-10
2.31462e-10
2.35522e-10
2.38305e-10
2.39494e-10
2.39459e-10
2.37327e-10
2.32924e-10
2.26087e-10
2.16707e-10
2.04774e-10
1.90416e-10
1.73936e-10
1.55848e-10
1.36898e-10
1.18076e-10
1.0061e-10
8.60178e-11
7.67342e-11
7.57291e-11
9.35507e-11
1.88141e-10
9.93936e-11
4.74435e-11
3.37648e-11
2.82051e-11
2.58412e-11
2.51746e-11
2.55636e-11
2.66833e-11
2.83233e-11
3.03376e-11
3.262e-11
3.50929e-11
3.77025e-11
4.04139e-11
4.32083e-11
4.608e-11
4.90328e-11
5.20774e-11
5.52287e-11
5.85036e-11
6.19188e-11
6.54895e-11
6.92279e-11
7.31427e-11
7.72376e-11
8.15113e-11
8.59573e-11
9.05634e-11
9.53123e-11
1.00182e-10
1.05147e-10
1.1018e-10
1.15253e-10
1.2034e-10
1.25421e-10
1.30481e-10
1.35515e-10
1.40528e-10
1.45536e-10
1.50565e-10
1.55653e-10
1.60839e-10
1.66169e-10
1.71682e-10
1.7741e-10
1.83373e-10
1.89574e-10
1.95991e-10
2.02581e-10
2.09273e-10
2.15968e-10
2.22539e-10
2.28832e-10
2.3467e-10
2.3984e-10
2.44099e-10
2.47096e-10
2.48449e-10
2.48568e-10
2.46624e-10
2.42394e-10
2.35716e-10
2.26466e-10
2.14608e-10
2.00229e-10
1.83582e-10
1.65134e-10
1.45601e-10
1.25978e-10
1.07557e-10
9.19747e-11
8.18791e-11
8.04965e-11
9.90403e-11
1.98829e-10
1.06531e-10
5.08122e-11
3.6097e-11
3.0076e-11
2.74771e-11
2.66971e-11
2.70449e-11
2.81731e-11
2.98555e-11
3.19344e-11
3.42954e-11
3.68556e-11
3.95571e-11
4.23632e-11
4.52541e-11
4.82239e-11
5.12766e-11
5.44234e-11
5.76795e-11
6.10619e-11
6.45871e-11
6.82697e-11
7.21213e-11
7.61492e-11
8.03559e-11
8.47385e-11
8.92888e-11
9.39933e-11
9.88334e-11
1.03786e-10
1.08827e-10
1.13928e-10
1.19065e-10
1.24214e-10
1.29358e-10
1.34488e-10
1.39605e-10
1.44719e-10
1.49853e-10
1.55038e-10
1.60313e-10
1.65721e-10
1.71306e-10
1.77103e-10
1.8314e-10
1.8943e-10
1.95965e-10
2.02717e-10
2.09633e-10
2.16635e-10
2.23619e-10
2.30454e-10
2.36984e-10
2.43033e-10
2.48386e-10
2.52803e-10
2.55966e-10
2.57448e-10
2.57665e-10
2.55853e-10
2.51743e-10
2.45178e-10
2.36028e-10
2.24236e-10
2.09856e-10
1.93094e-10
1.74362e-10
1.54329e-10
1.33979e-10
1.14648e-10
9.8087e-11
8.71556e-11
8.5359e-11
1.0459e-10
2.09587e-10
1.13879e-10
5.4279e-11
3.84962e-11
3.20012e-11
2.91627e-11
2.82695e-11
2.85781e-11
2.97181e-11
3.14459e-11
3.35919e-11
3.60331e-11
3.86807e-11
4.14732e-11
4.43717e-11
4.7356e-11
5.04199e-11
5.35681e-11
5.68122e-11
6.01679e-11
6.36522e-11
6.72817e-11
7.10706e-11
7.50295e-11
7.91647e-11
8.34775e-11
8.79639e-11
9.26142e-11
9.74138e-11
1.02344e-10
1.07381e-10
1.125e-10
1.17677e-10
1.22887e-10
1.28112e-10
1.33339e-10
1.38563e-10
1.43791e-10
1.49039e-10
1.54334e-10
1.59711e-10
1.6521e-10
1.70875e-10
1.76746e-10
1.82855e-10
1.89223e-10
1.95853e-10
2.02732e-10
2.09821e-10
2.17061e-10
2.24366e-10
2.31627e-10
2.38711e-10
2.45461e-10
2.517e-10
2.57212e-10
2.61762e-10
2.65047e-10
2.66617e-10
2.66889e-10
2.65147e-10
2.61091e-10
2.54574e-10
2.45466e-10
2.33702e-10
2.19313e-10
2.02461e-10
1.83501e-10
1.63046e-10
1.42047e-10
1.21862e-10
1.04343e-10
9.25609e-11
9.03191e-11
1.10206e-10
2.20425e-10
1.21438e-10
5.78437e-11
4.09618e-11
3.39799e-11
3.0897e-11
2.98901e-11
3.01612e-11
3.13156e-11
3.30914e-11
3.53062e-11
3.78281e-11
4.05623e-11
4.34437e-11
4.64317e-11
4.95053e-11
5.26589e-11
5.58976e-11
5.92338e-11
6.26837e-11
6.62648e-11
6.99934e-11
7.38834e-11
7.79447e-11
8.21829e-11
8.6598e-11
9.11851e-11
9.59336e-11
1.00828e-10
1.0585e-10
1.10975e-10
1.16181e-10
1.21445e-10
1.26744e-10
1.32065e-10
1.37399e-10
1.42747e-10
1.48118e-10
1.53536e-10
1.59029e-10
1.64635e-10
1.70395e-10
1.76351e-10
1.82539e-10
1.88986e-10
1.95706e-10
2.02694e-10
2.09927e-10
2.17359e-10
2.24924e-10
2.32531e-10
2.40066e-10
2.47395e-10
2.54358e-10
2.60779e-10
2.66442e-10
2.71108e-10
2.74483e-10
2.76103e-10
2.76396e-10
2.74658e-10
2.70583e-10
2.64032e-10
2.54886e-10
2.43081e-10
2.28638e-10
2.11689e-10
1.92535e-10
1.71722e-10
1.5015e-10
1.29175e-10
1.10731e-10
9.80912e-11
9.53787e-11
1.15892e-10
2.31354e-10
1.29207e-10
6.15059e-11
4.34933e-11
3.60113e-11
3.26787e-11
3.15576e-11
3.17924e-11
3.29632e-11
3.47888e-11
3.70733e-11
3.96756e-11
4.24947e-11
4.54621e-11
4.85357e-11
5.16942e-11
5.49324e-11
5.82565e-11
6.16797e-11
6.52189e-11
6.88918e-11
7.2715e-11
7.67021e-11
8.08625e-11
8.52009e-11
8.97167e-11
9.44042e-11
9.92523e-11
1.04245e-10
1.09364e-10
1.14587e-10
1.19892e-10
1.25258e-10
1.30668e-10
1.36109e-10
1.41578e-10
1.47081e-10
1.52632e-10
1.58256e-10
1.63985e-10
1.69859e-10
1.75918e-10
1.82199e-10
1.88735e-10
1.95547e-10
2.02639e-10
2.10001e-10
2.17601e-10
2.25387e-10
2.33284e-10
2.41199e-10
2.49014e-10
2.56592e-10
2.63773e-10
2.70381e-10
2.76194e-10
2.80976e-10
2.84417e-10
2.86059e-10
2.86345e-10
2.8455e-10
2.80378e-10
2.73701e-10
2.64413e-10
2.52469e-10
2.37893e-10
2.20806e-10
2.0146e-10
1.80334e-10
1.58259e-10
1.36562e-10
1.17234e-10
1.03741e-10
1.00538e-10
1.21652e-10
2.42382e-10
1.37185e-10
6.52648e-11
4.609e-11
3.80946e-11
3.4507e-11
3.32705e-11
3.34699e-11
3.46586e-11
3.65349e-11
3.88892e-11
4.15707e-11
4.44722e-11
4.75221e-11
5.06768e-11
5.39153e-11
5.72331e-11
6.06374e-11
6.41427e-11
6.77666e-11
7.15275e-11
7.54421e-11
7.95237e-11
8.37815e-11
8.82197e-11
9.28372e-11
9.76276e-11
1.0258e-10
1.07678e-10
1.12905e-10
1.18238e-10
1.23659e-10
1.29148e-10
1.34692e-10
1.40282e-10
1.45919e-10
1.51612e-10
1.5738e-10
1.6325e-10
1.69255e-10
1.75436e-10
1.81828e-10
1.88469e-10
1.95382e-10
2.02584e-10
2.10071e-10
2.17825e-10
2.25807e-10
2.33959e-10
2.42201e-10
2.50436e-10
2.58543e-10
2.66384e-10
2.73798e-10
2.80605e-10
2.86583e-10
2.91488e-10
2.94991e-10
2.96638e-10
2.96894e-10
2.94988e-10
2.90644e-10
2.83741e-10
2.74195e-10
2.61987e-10
2.47167e-10
2.29858e-10
2.10287e-10
1.88867e-10
1.66346e-10
1.43996e-10
1.23836e-10
1.09502e-10
1.05797e-10
1.27489e-10
2.53515e-10
1.45371e-10
6.91196e-11
4.87511e-11
4.02289e-11
3.63807e-11
3.50277e-11
3.5192e-11
3.63993e-11
3.83269e-11
4.07503e-11
4.35089e-11
4.64896e-11
4.96177e-11
5.28487e-11
5.6162e-11
5.95543e-11
6.30342e-11
6.66173e-11
7.03224e-11
7.41686e-11
7.81727e-11
8.23482e-11
8.67041e-11
9.12441e-11
9.5967e-11
1.00866e-10
1.05931e-10
1.11146e-10
1.16493e-10
1.21955e-10
1.27512e-10
1.33149e-10
1.38855e-10
1.44626e-10
1.50466e-10
1.56387e-10
1.62411e-10
1.68567e-10
1.74888e-10
1.81413e-10
1.88175e-10
1.95207e-10
2.02527e-10
2.10143e-10
2.18047e-10
2.26212e-10
2.34593e-10
2.43127e-10
2.51731e-10
2.60302e-10
2.6872e-10
2.76844e-10
2.84513e-10
2.91543e-10
2.97707e-10
3.02756e-10
3.06329e-10
3.07978e-10
3.08193e-10
3.06136e-10
3.0155e-10
2.94323e-10
2.84391e-10
2.71774e-10
2.56565e-10
2.38915e-10
2.19046e-10
1.97318e-10
1.74389e-10
1.51451e-10
1.30517e-10
1.15364e-10
1.11151e-10
1.33403e-10
2.64753e-10
1.53762e-10
7.30694e-11
5.14757e-11
4.24132e-11
3.82987e-11
3.68277e-11
3.69569e-11
3.81832e-11
4.01618e-11
4.26528e-11
4.54858e-11
4.85419e-11
5.17435e-11
5.50457e-11
5.84287e-11
6.18907e-11
6.5442e-11
6.90997e-11
7.28838e-11
7.68141e-11
8.09079e-11
8.51788e-11
8.96358e-11
9.42826e-11
9.91178e-11
1.04135e-10
1.09324e-10
1.1467e-10
1.20156e-10
1.25767e-10
1.31486e-10
1.37299e-10
1.432e-10
1.49187e-10
1.55268e-10
1.61456e-10
1.67776e-10
1.74257e-10
1.80933e-10
1.87839e-10
1.95006e-10
2.02459e-10
2.10214e-10
2.18269e-10
2.26611e-10
2.35207e-10
2.44005e-10
2.52939e-10
2.61922e-10
2.7085e-10
2.79602e-10
2.88034e-10
2.95984e-10
3.03267e-10
3.09649e-10
3.14872e-10
3.18542e-10
3.20203e-10
3.20373e-10
3.1814e-10
3.13259e-10
3.05615e-10
2.95169e-10
2.81985e-10
2.66215e-10
2.48066e-10
2.27783e-10
2.05695e-10
1.82372e-10
1.58902e-10
1.37254e-10
1.21314e-10
1.16594e-10
1.3939e-10
2.76092e-10
1.62358e-10
7.7113e-11
5.42629e-11
4.46466e-11
4.02601e-11
3.86692e-11
3.87628e-11
4.0008e-11
4.20365e-11
4.4593e-11
4.74971e-11
5.06242e-11
5.38944e-11
5.72628e-11
6.07107e-11
6.42383e-11
6.78578e-11
7.15882e-11
7.54506e-11
7.94657e-11
8.36516e-11
8.8022e-11
9.2586e-11
9.73476e-11
1.02305e-10
1.07454e-10
1.12782e-10
1.18278e-10
1.23926e-10
1.29711e-10
1.35619e-10
1.41641e-10
1.47772e-10
1.54012e-10
1.60372e-10
1.66868e-10
1.73525e-10
1.80371e-10
1.8744e-10
1.94763e-10
2.02366e-10
2.10271e-10
2.18485e-10
2.27003e-10
2.35804e-10
2.44848e-10
2.54082e-10
2.63434e-10
2.72816e-10
2.82123e-10
2.91232e-10
3e-10
3.08263e-10
3.15833e-10
3.22468e-10
3.27903e-10
3.31711e-10
3.33412e-10
3.33546e-10
3.31131e-10
3.25916e-10
3.17779e-10
3.06697e-10
2.92782e-10
2.76259e-10
2.57419e-10
2.36564e-10
2.14022e-10
1.90285e-10
1.66323e-10
1.44024e-10
1.27336e-10
1.22119e-10
1.45445e-10
2.87525e-10
1.71154e-10
8.12489e-11
5.71114e-11
4.6928e-11
4.22636e-11
4.05508e-11
4.06081e-11
4.18713e-11
4.39482e-11
4.65675e-11
4.95387e-11
5.27321e-11
5.60659e-11
5.94955e-11
6.30042e-11
6.65943e-11
7.02803e-11
7.40829e-11
7.80249e-11
8.2128e-11
8.64109e-11
9.08877e-11
9.55679e-11
1.00456e-10
1.0555e-10
1.10845e-10
1.16333e-10
1.22001e-10
1.27836e-10
1.33824e-10
1.39955e-10
1.4622e-10
1.52617e-10
1.59149e-10
1.65829e-10
1.72674e-10
1.79707e-10
1.86959e-10
1.94457e-10
2.0223e-10
2.10301e-10
2.18685e-10
2.27383e-10
2.36384e-10
2.45662e-10
2.55173e-10
2.6486e-10
2.74647e-10
2.84447e-10
2.94153e-10
3.03644e-10
3.12776e-10
3.21383e-10
3.29274e-10
3.36204e-10
3.41893e-10
3.45893e-10
3.47676e-10
3.47795e-10
3.45213e-10
3.39651e-10
3.30963e-10
3.19137e-10
3.0433e-10
2.86852e-10
2.67099e-10
2.45473e-10
2.22335e-10
1.98128e-10
1.73692e-10
1.50799e-10
1.33411e-10
1.27715e-10
1.51562e-10
2.99039e-10
1.80147e-10
8.54754e-11
6.002e-11
4.92564e-11
4.4308e-11
4.2471e-11
4.24909e-11
4.37709e-11
4.5894e-11
4.85728e-11
5.16069e-11
5.48617e-11
5.82542e-11
6.17408e-11
6.53069e-11
6.89576e-11
7.27098e-11
7.65864e-11
8.06117e-11
8.48086e-11
8.91963e-11
9.37896e-11
9.85983e-11
1.03627e-10
1.08875e-10
1.14339e-10
1.20009e-10
1.25875e-10
1.31926e-10
1.3815e-10
1.44538e-10
1.51083e-10
1.57786e-10
1.64651e-10
1.71692e-10
1.78925e-10
1.86376e-10
1.94069e-10
2.02031e-10
2.10287e-10
2.18854e-10
2.27741e-10
2.36945e-10
2.46448e-10
2.5622e-10
2.66213e-10
2.76367e-10
2.86605e-10
2.96839e-10
3.06963e-10
3.16857e-10
3.26378e-10
3.35359e-10
3.43608e-10
3.50873e-10
3.56861e-10
3.61118e-10
3.63037e-10
3.63175e-10
3.60464e-10
3.54563e-10
3.45293e-10
3.32639e-10
3.16792e-10
2.98152e-10
2.77247e-10
2.5461e-10
2.30691e-10
2.05912e-10
1.80993e-10
1.57555e-10
1.39519e-10
1.33366e-10
1.57728e-10
3.10614e-10
1.89334e-10
8.97908e-11
6.29874e-11
5.16304e-11
4.63923e-11
4.4428e-11
4.44095e-11
4.57044e-11
4.7871e-11
5.06055e-11
5.36979e-11
5.70093e-11
6.04561e-11
6.39962e-11
6.76178e-11
7.13289e-11
7.51493e-11
7.91039e-11
8.32189e-11
8.75181e-11
9.20217e-11
9.67451e-11
1.01698e-10
1.06887e-10
1.12311e-10
1.17966e-10
1.23846e-10
1.29941e-10
1.3624e-10
1.42735e-10
1.49417e-10
1.56283e-10
1.63332e-10
1.70572e-10
1.78014e-10
1.85677e-10
1.93583e-10
2.01753e-10
2.10213e-10
2.1898e-10
2.28068e-10
2.3748e-10
2.47208e-10
2.57229e-10
2.67508e-10
2.77995e-10
2.88627e-10
2.99328e-10
3.10009e-10
3.20566e-10
3.30881e-10
3.40812e-10
3.50194e-10
3.58832e-10
3.6647e-10
3.72803e-10
3.77386e-10
3.79509e-10
3.79709e-10
3.76926e-10
3.70722e-10
3.60871e-10
3.4733e-10