/*--------------------------------*- C++ -*----------------------------------*\
  =========                 |
  \\      /  F ield         | OpenFOAM: The Open Source CFD Toolbox
   \\    /   O peration     | Website:  https://openfoam.org
    \\  /    A nd           | Version:  12
     \\/     M anipulation  |
\*---------------------------------------------------------------------------*/
FoamFile
{
    format      ascii;
    class       volScalarField;
    location    "9";
    object      k;
}
// * * * * * * * * * * * * * * * * * * * * * * * * * * * * * * * * * * * * * //

dimensions      [0 2 -2 0 0 0 0];

internalField   nonuniform List<scalar> 
5625
(
2.38905e-16
1.61481e-15
3.58159e-15
5.89647e-15
8.43498e-15
1.11114e-14
1.38592e-14
1.66249e-14
1.93652e-14
2.20457e-14
2.46412e-14
2.71342e-14
2.95154e-14
3.17826e-14
3.39399e-14
3.59973e-14
3.79688e-14
3.98722e-14
4.17272e-14
4.35549e-14
4.53768e-14
4.72138e-14
4.90863e-14
5.10132e-14
5.30121e-14
5.50988e-14
5.72878e-14
5.95917e-14
6.20219e-14
6.4588e-14
6.72985e-14
7.01604e-14
7.31791e-14
7.63587e-14
7.97019e-14
8.32094e-14
8.68799e-14
9.07098e-14
9.46927e-14
9.88187e-14
1.03074e-13
1.0744e-13
1.11891e-13
1.16396e-13
1.20916e-13
1.254e-13
1.2979e-13
1.34012e-13
1.37983e-13
1.41605e-13
1.44767e-13
1.47341e-13
1.49177e-13
1.5008e-13
1.50136e-13
1.49081e-13
1.4678e-13
1.43154e-13
1.38162e-13
1.31815e-13
1.24178e-13
1.15375e-13
1.05593e-13
9.50674e-14
8.40729e-14
7.29027e-14
6.18462e-14
5.11677e-14
4.10887e-14
3.17775e-14
2.33504e-14
1.58851e-14
9.45618e-15
4.21286e-15
6.2168e-16
1.80531e-15
1.43798e-14
3.21346e-14
5.29918e-14
7.58515e-14
9.99467e-14
1.24681e-13
1.49574e-13
1.74235e-13
1.98357e-13
2.21712e-13
2.44143e-13
2.65566e-13
2.85961e-13
3.05367e-13
3.23872e-13
3.41605e-13
3.58724e-13
3.75407e-13
3.91845e-13
4.0823e-13
4.24751e-13
4.41592e-13
4.58923e-13
4.76901e-13
4.9567e-13
5.1536e-13
5.36084e-13
5.57943e-13
5.81027e-13
6.05409e-13
6.31152e-13
6.58307e-13
6.86911e-13
7.16986e-13
7.48539e-13
7.81559e-13
8.16013e-13
8.51845e-13
8.88965e-13
9.27249e-13
9.66527e-13
1.00658e-12
1.04712e-12
1.08779e-12
1.12814e-12
1.16765e-12
1.20566e-12
1.24141e-12
1.27403e-12
1.30251e-12
1.32571e-12
1.34229e-12
1.35041e-12
1.35089e-12
1.34135e-12
1.32059e-12
1.2879e-12
1.24292e-12
1.18576e-12
1.11699e-12
1.03774e-12
9.49694e-13
8.54967e-13
7.56035e-13
6.55533e-13
5.56065e-13
4.60006e-13
3.69346e-13
2.85597e-13
2.09798e-13
1.4264e-13
8.47758e-14
3.74877e-14
4.69503e-15
3.8326e-15
3.28209e-14
7.38248e-14
1.21997e-13
1.74785e-13
2.30416e-13
2.87514e-13
3.44968e-13
4.01878e-13
4.57538e-13
5.11416e-13
5.63155e-13
6.12561e-13
6.59589e-13
7.04329e-13
7.46988e-13
7.87863e-13
8.27322e-13
8.65779e-13
9.03671e-13
9.41447e-13
9.79545e-13
1.01839e-12
1.05836e-12
1.09984e-12
1.14315e-12
1.1886e-12
1.23644e-12
1.28691e-12
1.34021e-12
1.39652e-12
1.45598e-12
1.5187e-12
1.58478e-12
1.65426e-12
1.72716e-12
1.80346e-12
1.88307e-12
1.96586e-12
2.05162e-12
2.14007e-12
2.2308e-12
2.3233e-12
2.41691e-12
2.5108e-12
2.60394e-12
2.69507e-12
2.78272e-12
2.86511e-12
2.94021e-12
3.00572e-12
3.05904e-12
3.09701e-12
3.11525e-12
3.11627e-12
3.09406e-12
3.04593e-12
2.97025e-12
2.86625e-12
2.73413e-12
2.57524e-12
2.39221e-12
2.18889e-12
1.97019e-12
1.74184e-12
1.50993e-12
1.28046e-12
1.05894e-12
8.49934e-13
6.56924e-13
4.82282e-13
3.27576e-13
1.94279e-13
8.53565e-14
9.94265e-15
6.26508e-15
5.49855e-14
1.24279e-13
2.05794e-13
2.95138e-13
3.89289e-13
4.8591e-13
5.83116e-13
6.79385e-13
7.73516e-13
8.64613e-13
9.52072e-13
1.03557e-12
1.11502e-12
1.1906e-12
1.26264e-12
1.33167e-12
1.39831e-12
1.46325e-12
1.52726e-12
1.59108e-12
1.65546e-12
1.72111e-12
1.78871e-12
1.85887e-12
1.93215e-12
2.00905e-12
2.09003e-12
2.17547e-12
2.26573e-12
2.36109e-12
2.4618e-12
2.56805e-12
2.67998e-12
2.79769e-12
2.92118e-12
3.05041e-12
3.18525e-12
3.32545e-12
3.47065e-12
3.62036e-12
3.77388e-12
3.93034e-12
4.08861e-12
4.24726e-12
4.40455e-12
4.55837e-12
4.7062e-12
4.84506e-12
4.97153e-12
5.08175e-12
5.17137e-12
5.23498e-12
5.26492e-12
5.26649e-12
5.22862e-12
5.14692e-12
5.01868e-12
4.84258e-12
4.61894e-12
4.35002e-12
4.04024e-12
3.6961e-12
3.32598e-12
2.93957e-12
2.54723e-12
2.1592e-12
1.78477e-12
1.43171e-12
1.10587e-12
8.11222e-13
5.50345e-13
3.25706e-13
1.42405e-13
1.61836e-14
9.02651e-15
8.00144e-14
1.81477e-13
3.01047e-13
4.32172e-13
5.70365e-13
7.1217e-13
8.5481e-13
9.96043e-13
1.1341e-12
1.26767e-12
1.39587e-12
1.51821e-12
1.6346e-12
1.74527e-12
1.85076e-12
1.95182e-12
2.04938e-12
2.14447e-12
2.2382e-12
2.3317e-12
2.42604e-12
2.5223e-12
2.62144e-12
2.72437e-12
2.83192e-12
2.94483e-12
3.06374e-12
3.18925e-12
3.32185e-12
3.46196e-12
3.60994e-12
3.76606e-12
3.93052e-12
4.10344e-12
4.28483e-12
4.47459e-12
4.67252e-12
4.87823e-12
5.09118e-12
5.3106e-12
5.53547e-12
5.76447e-12
5.99592e-12
6.22773e-12
6.45736e-12
6.68171e-12
6.89712e-12
7.09928e-12
7.28325e-12
7.44343e-12
7.57361e-12
7.66567e-12
7.7083e-12
7.71047e-12
7.65488e-12
7.53517e-12
7.34743e-12
7.08962e-12
6.7621e-12
6.36809e-12
5.91397e-12
5.40927e-12
4.86628e-12
4.29935e-12
3.7238e-12
3.15477e-12
2.60602e-12
2.08899e-12
1.61225e-12
1.18155e-12
8.00566e-13
4.72864e-13
2.06008e-13
2.31772e-14
1.20636e-14
1.07444e-13
2.44293e-13
4.05859e-13
5.83164e-13
7.70064e-13
9.61846e-13
1.15473e-12
1.34566e-12
1.53224e-12
1.71269e-12
1.88581e-12
2.05097e-12
2.20803e-12
2.35733e-12
2.4996e-12
2.63588e-12
2.76744e-12
2.8957e-12
3.02216e-12
3.14835e-12
3.27574e-12
3.40577e-12
3.53977e-12
3.67895e-12
3.82443e-12
3.9772e-12
4.13815e-12
4.30805e-12
4.48756e-12
4.67724e-12
4.87756e-12
5.08887e-12
5.31142e-12
5.54532e-12
5.79058e-12
6.04701e-12
6.31429e-12
6.59186e-12
6.87894e-12
7.17445e-12
7.47698e-12
7.7847e-12
8.09535e-12
8.40612e-12
8.71357e-12
9.01362e-12
9.3014e-12
9.57123e-12
9.81659e-12
1.00301e-11
1.02036e-11
1.03261e-11
1.03822e-11
1.03853e-11
1.0311e-11
1.01505e-11
9.89867e-12
9.55245e-12
9.11208e-12
8.58165e-12
7.96956e-12
7.28861e-12
6.55544e-12
5.7896e-12
5.01203e-12
4.24347e-12
3.50274e-12
2.80544e-12
2.16317e-12
1.58361e-12
1.07161e-12
6.31857e-13
2.74542e-13
3.07409e-14
1.53423e-14
1.36996e-13
3.12039e-13
5.19042e-13
7.46388e-13
9.86108e-13
1.23209e-12
1.47945e-12
1.72425e-12
1.96339e-12
2.19458e-12
2.41627e-12
2.62767e-12
2.82861e-12
3.01956e-12
3.20147e-12
3.3757e-12
3.54389e-12
3.7079e-12
3.86966e-12
4.03114e-12
4.19425e-12
4.36082e-12
4.53256e-12
4.71102e-12
4.89764e-12
5.09366e-12
5.30021e-12
5.51826e-12
5.74864e-12
5.99204e-12
6.24902e-12
6.51999e-12
6.80522e-12
7.10481e-12
7.41869e-12
7.74658e-12
8.08797e-12
8.44209e-12
8.80786e-12
9.18383e-12
9.56816e-12
9.95849e-12
1.03519e-11
1.07449e-11
1.11332e-11
1.15116e-11
1.18741e-11
1.22138e-11
1.25225e-11
1.27912e-11
1.30097e-11
1.31639e-11
1.32345e-11
1.32393e-11
1.31462e-11
1.2944e-11
1.26256e-11
1.21869e-11
1.16277e-11
1.09528e-11
1.01726e-11
9.30327e-12
8.36615e-12
7.38645e-12
6.39136e-12
5.40783e-12
4.46036e-12
3.5692e-12
2.74932e-12
2.0105e-12
1.35876e-12
7.99939e-13
3.46865e-13
3.87433e-14
1.88404e-14
1.68491e-13
3.8427e-13
6.39819e-13
9.207e-13
1.21697e-12
1.521e-12
1.82668e-12
2.12912e-12
2.42446e-12
2.70984e-12
2.98336e-12
3.24403e-12
3.4917e-12
3.72694e-12
3.95097e-12
4.1655e-12
4.37262e-12
4.57462e-12
4.77392e-12
4.97297e-12
5.17414e-12
5.37969e-12
5.59173e-12
5.81216e-12
6.04273e-12
6.28497e-12
6.54024e-12
6.8097e-12
7.09433e-12
7.39494e-12
7.71216e-12
8.04642e-12
8.39799e-12
8.76689e-12
9.15294e-12
9.55568e-12
9.97441e-12
1.0408e-11
1.08552e-11
1.1314e-11
1.17821e-11
1.22566e-11
1.27341e-11
1.32102e-11
1.36799e-11
1.41371e-11
1.45748e-11
1.49846e-11
1.53572e-11
1.56815e-11
1.59457e-11
1.61327e-11
1.62188e-11
1.62264e-11
1.61156e-11
1.58718e-11
1.54862e-11
1.49532e-11
1.42719e-11
1.34474e-11
1.24922e-11
1.14258e-11
1.02744e-11
9.06932e-12
7.8444e-12
6.63343e-12
5.46714e-12
4.37091e-12
3.36347e-12
2.45689e-12
1.65842e-12
9.75043e-13
4.22118e-13
4.70826e-14
2.25437e-14
2.01807e-13
4.60694e-13
7.67669e-13
1.10532e-12
1.4616e-12
1.82723e-12
2.19481e-12
2.55838e-12
2.91326e-12
3.256e-12
3.58431e-12
3.89699e-12
4.1939e-12
4.47577e-12
4.74411e-12
5.00103e-12
5.24906e-12
5.49101e-12
5.72982e-12
5.96844e-12
6.20973e-12
6.45641e-12
6.71098e-12
6.97573e-12
7.25272e-12
7.54374e-12
7.85039e-12
8.17399e-12
8.51567e-12
8.87631e-12
9.25657e-12
9.65689e-12
1.00774e-11
1.05181e-11
1.09786e-11
1.14582e-11
1.19559e-11
1.24703e-11
1.29996e-11
1.35416e-11
1.40935e-11
1.46518e-11
1.52124e-11
1.57705e-11
1.63203e-11
1.68549e-11
1.73663e-11
1.78452e-11
1.82807e-11
1.86603e-11
1.89702e-11
1.91908e-11
1.92934e-11
1.9305e-11
1.91779e-11
1.88936e-11
1.84414e-11
1.78138e-11
1.70091e-11
1.60326e-11
1.48985e-11
1.36297e-11
1.22573e-11
1.08188e-11
9.35523e-12
7.90743e-12
6.51293e-12
5.20275e-12
3.99974e-12
2.91855e-12
1.96779e-12
1.15556e-12
4.99624e-13
5.56805e-14
2.64428e-14
2.36864e-13
5.41114e-13
9.02244e-13
1.29973e-12
1.71927e-12
2.14987e-12
2.58271e-12
3.01069e-12
3.42824e-12
3.83127e-12
4.21707e-12
4.58426e-12
4.93268e-12
5.26326e-12
5.57784e-12
5.87895e-12
6.16963e-12
6.45323e-12
6.73325e-12
7.01317e-12
7.29637e-12
7.58603e-12
7.88507e-12
8.19615e-12
8.52164e-12
8.86359e-12
9.22379e-12
9.60374e-12
1.00046e-11
1.04274e-11
1.08727e-11
1.13409e-11
1.1832e-11
1.23458e-11
1.28816e-11
1.34386e-11
1.40154e-11
1.46102e-11
1.52209e-11
1.58447e-11
1.64784e-11
1.71182e-11
1.77594e-11
1.83967e-11
1.90237e-11
1.9633e-11
2.02157e-11
2.07614e-11
2.12582e-11
2.1692e-11
2.20469e-11
2.23013e-11
2.24212e-11
2.24374e-11
2.22954e-11
2.19718e-11
2.14541e-11
2.07328e-11
1.98051e-11
1.86765e-11
1.73624e-11
1.58892e-11
1.42927e-11
1.26165e-11
1.09089e-11
9.21808e-12
7.58876e-12
6.058e-12
4.65323e-12
3.39205e-12
2.28462e-12
1.34019e-12
5.78841e-13
6.44748e-14
3.05311e-14
2.73608e-13
6.25401e-13
1.04331e-12
1.50356e-12
1.9895e-12
2.48829e-12
2.98958e-12
3.48508e-12
3.96826e-12
4.43433e-12
4.88013e-12
5.30408e-12
5.70606e-12
6.08719e-12
6.44968e-12
6.79654e-12
7.13135e-12
7.45806e-12
7.78073e-12
8.10342e-12
8.43004e-12
8.76423e-12
9.10936e-12
9.46842e-12
9.84409e-12
1.02387e-11
1.06541e-11
1.1092e-11
1.15536e-11
1.20399e-11
1.25513e-11
1.30883e-11
1.36505e-11
1.42376e-11
1.48486e-11
1.54822e-11
1.61368e-11
1.68102e-11
1.74998e-11
1.82026e-11
1.89149e-11
1.96325e-11
2.03505e-11
2.10631e-11
2.17636e-11
2.24439e-11
2.30946e-11
2.37045e-11
2.42603e-11
2.47465e-11
2.51453e-11
2.54326e-11
2.55696e-11
2.55909e-11
2.54344e-11
2.50724e-11
2.44902e-11
2.36766e-11
2.26276e-11
2.13485e-11
1.98561e-11
1.81796e-11
1.63593e-11
1.44449e-11
1.24914e-11
1.05546e-11
8.68661e-12
6.93084e-12
5.31983e-12
3.87457e-12
2.60708e-12
1.52791e-12
6.59332e-13
7.34158e-14
3.48045e-14
3.12006e-13
7.13472e-13
1.19072e-12
1.71659e-12
2.27196e-12
2.84204e-12
3.41489e-12
3.98089e-12
4.5325e-12
5.06417e-12
5.57229e-12
6.05507e-12
6.51242e-12
6.94571e-12
7.35755e-12
7.75147e-12
8.13165e-12
8.50265e-12
8.86916e-12
9.23583e-12
9.60708e-12
9.98707e-12
1.03795e-11
1.07879e-11
1.1215e-11
1.16634e-11
1.21352e-11
1.26321e-11
1.31553e-11
1.37056e-11
1.42836e-11
1.48893e-11
1.55222e-11
1.61817e-11
1.68664e-11
1.75747e-11
1.83047e-11
1.90536e-11
1.98188e-11
2.05966e-11
2.13833e-11
2.21744e-11
2.29647e-11
2.37483e-11
2.45179e-11
2.52654e-11
2.59806e-11
2.66514e-11
2.72635e-11
2.77998e-11
2.82404e-11
2.85589e-11
2.87116e-11
2.87372e-11
2.85658e-11
2.81653e-11
2.75193e-11
2.66151e-11
2.54472e-11
2.40209e-11
2.23541e-11
2.04783e-11
1.8438e-11
1.62881e-11
1.40902e-11
1.19076e-11
9.79949e-12
7.81632e-12
5.99613e-12
4.36383e-12
2.93373e-12
1.7179e-12
7.40745e-13
8.24638e-14
3.92606e-14
3.52037e-13
8.0528e-13
1.34439e-12
1.93867e-12
2.56645e-12
3.21085e-12
3.85826e-12
4.49763e-12
5.12034e-12
5.72004e-12
6.29261e-12
6.83608e-12
7.35039e-12
7.83722e-12
8.29961e-12
8.74166e-12
9.16819e-12
9.58442e-12
9.99568e-12
1.04072e-11
1.08241e-11
1.12508e-11
1.16915e-11
1.215e-11
1.26295e-11
1.31325e-11
1.36613e-11
1.42176e-11
1.48025e-11
1.54169e-11
1.60609e-11
1.67345e-11
1.74368e-11
1.81668e-11
1.8923e-11
1.97032e-11
2.05052e-11
2.1326e-11
2.21625e-11
2.3011e-11
2.38674e-11
2.47273e-11
2.55852e-11
2.64352e-11
2.72698e-11
2.80805e-11
2.88565e-11
2.9585e-11
3.02503e-11
3.08337e-11
3.13133e-11
3.16597e-11
3.18257e-11
3.18538e-11
3.16654e-11
3.12254e-11
3.05159e-11
2.95225e-11
2.82389e-11
2.66701e-11
2.48346e-11
2.2766e-11
2.0512e-11
1.81323e-11
1.56945e-11
1.32687e-11
1.09215e-11
8.71034e-12
6.67937e-12
4.85802e-12
3.26345e-12
1.9095e-12
8.22806e-13
9.15877e-14
4.38982e-14
3.93691e-13
9.00799e-13
1.50426e-12
2.16972e-12
2.87283e-12
3.59455e-12
4.31943e-12
5.03495e-12
5.73131e-12
6.40131e-12
7.0403e-12
7.6461e-12
8.21877e-12
8.76026e-12
9.27414e-12
9.76513e-12
1.02387e-11
1.07009e-11
1.11575e-11
1.16146e-11
1.20776e-11
1.25517e-11
1.30413e-11
1.35505e-11
1.40826e-11
1.46406e-11
1.52265e-11
1.5842e-11
1.64884e-11
1.7166e-11
1.7875e-11
1.86149e-11
1.93847e-11
2.01828e-11
2.10074e-11
2.18562e-11
2.27263e-11
2.36148e-11
2.45181e-11
2.54327e-11
2.63543e-11
2.72784e-11
2.81997e-11
2.91119e-11
3.00077e-11
3.0878e-11
3.17114e-11
3.24941e-11
3.32091e-11
3.38361e-11
3.43511e-11
3.47206e-11
3.48959e-11
3.4924e-11
3.47152e-11
3.42337e-11
3.34602e-11
3.23791e-11
3.09832e-11
2.92771e-11
2.728e-11
2.50268e-11
2.25678e-11
1.99664e-11
1.72954e-11
1.46314e-11
1.20479e-11
9.60967e-12
7.36742e-12
5.35579e-12
3.59537e-12
2.10225e-12
9.05305e-13
1.00764e-13
4.87167e-14
4.36964e-13
1.00002e-12
1.67032e-12
2.40971e-12
3.19105e-12
3.99302e-12
4.79824e-12
5.59261e-12
6.36505e-12
7.10745e-12
7.81464e-12
8.48423e-12
9.11638e-12
9.71343e-12
1.02795e-11
1.082e-11
1.13411e-11
1.18495e-11
1.23519e-11
1.28549e-11
1.33644e-11
1.38861e-11
1.44249e-11
1.49849e-11
1.55698e-11
1.61825e-11
1.68252e-11
1.74995e-11
1.82063e-11
1.89459e-11
1.97182e-11
2.05224e-11
2.1357e-11
2.22204e-11
2.31101e-11
2.40237e-11
2.49581e-11
2.591e-11
2.68761e-11
2.78524e-11
2.88351e-11
2.98195e-11
3.08004e-11
3.17715e-11
3.27252e-11
3.36519e-11
3.45395e-11
3.5373e-11
3.61341e-11
3.68006e-11
3.73465e-11
3.77332e-11
3.79129e-11
3.79373e-11
3.77033e-11
3.71777e-11
3.63391e-11
3.51712e-11
3.36664e-11
3.1829e-11
2.96781e-11
2.72495e-11
2.45954e-11
2.17819e-11
1.88863e-11
1.59905e-11
1.31751e-11
1.05119e-11
8.05874e-12
5.85617e-12
3.92893e-12
2.29581e-12
9.88095e-13
1.09976e-13
5.37163e-14
4.81858e-13
1.10295e-12
1.84258e-12
2.65864e-12
3.52109e-12
4.40621e-12
5.29458e-12
6.1704e-12
7.02122e-12
7.83799e-12
8.61496e-12
9.34956e-12
1.00421e-11
1.06953e-11
1.1314e-11
1.19043e-11
1.24731e-11
1.30279e-11
1.35762e-11
1.41251e-11
1.46812e-11
1.52506e-11
1.58384e-11
1.64491e-11
1.70865e-11
1.77535e-11
1.84522e-11
1.91841e-11
1.99501e-11
2.07501e-11
2.15837e-11
2.24497e-11
2.33465e-11
2.42719e-11
2.52235e-11
2.61982e-11
2.71931e-11
2.82047e-11
2.92297e-11
3.02644e-11
3.13048e-11
3.23465e-11
3.33843e-11
3.44117e-11
3.54208e-11
3.64013e-11
3.73403e-11
3.82214e-11
3.90246e-11
3.9726e-11
4.02978e-11
4.06951e-11
4.08735e-11
4.08899e-11
4.06252e-11
4.00518e-11
3.91465e-11
3.78925e-11
3.62819e-11
3.43185e-11
3.20216e-11
2.94273e-11
2.65884e-11
2.35734e-11
2.04625e-11
1.73427e-11
1.43006e-11
1.14154e-11
8.75237e-12
6.35861e-12
4.26379e-12
2.48998e-12
1.07108e-12
1.19212e-13
5.88975e-14
5.28378e-13
1.2096e-12
2.02104e-12
2.91652e-12
3.86295e-12
4.8341e-12
5.80838e-12
6.76814e-12
7.69953e-12
8.59245e-12
9.44058e-12
1.02412e-11
1.09948e-11
1.17046e-11
1.2376e-11
1.3016e-11
1.36325e-11
1.42336e-11
1.48276e-11
1.54223e-11
1.60248e-11
1.66415e-11
1.7278e-11
1.7939e-11
1.86282e-11
1.93486e-11
2.01024e-11
2.08907e-11
2.17143e-11
2.25728e-11
2.34654e-11
2.43908e-11
2.5347e-11
2.63315e-11
2.73416e-11
2.83743e-11
2.94265e-11
3.04948e-11
3.15759e-11
3.26664e-11
3.37623e-11
3.48594e-11
3.59524e-11
3.70346e-11
3.80975e-11
3.913e-11
4.01179e-11
4.10434e-11
4.18848e-11
4.26164e-11
4.32086e-11
4.36099e-11
4.3782e-11
4.37843e-11
4.34833e-11
4.28579e-11
4.18839e-11
4.05437e-11
3.88294e-11
3.67448e-11
3.43089e-11
3.15576e-11
2.85441e-11
2.53379e-11
2.20216e-11
1.86859e-11
1.5423e-11
1.23194e-11
9.44784e-12
6.86287e-12
4.59981e-12
2.68468e-12
1.15422e-12
1.28468e-13
6.42612e-14
5.76531e-13
1.31998e-12
2.20574e-12
3.18338e-12
4.21666e-12
5.27667e-12
6.33955e-12
7.38569e-12
8.39967e-12
9.37035e-12
1.02908e-11
1.11581e-11
1.19731e-11
1.27396e-11
1.34637e-11
1.41533e-11
1.4817e-11
1.54641e-11
1.61034e-11
1.67434e-11
1.73918e-11
1.80554e-11
1.87401e-11
1.94506e-11
2.01909e-11
2.09638e-11
2.17714e-11
2.26147e-11
2.34941e-11
2.44091e-11
2.53587e-11
2.6341e-11
2.7354e-11
2.8395e-11
2.94611e-11
3.05492e-11
3.16563e-11
3.27792e-11
3.39148e-11
3.50596e-11
3.62102e-11
3.7362e-11
3.85098e-11
3.96463e-11
4.07623e-11
4.18455e-11
4.28805e-11
4.38476e-11
4.47235e-11
4.54806e-11
4.60877e-11
4.64863e-11
4.665e-11
4.66293e-11
4.62869e-11
4.56051e-11
4.45597e-11
4.31321e-11
4.13151e-11
3.91126e-11
3.65431e-11
3.36423e-11
3.04631e-11
2.70754e-11
2.35629e-11
2.00193e-11
1.65418e-11
1.32235e-11
1.01451e-11
7.36902e-12
4.93708e-12
2.87993e-12
1.23751e-12
1.37743e-13
6.98082e-14
6.26326e-13
1.43411e-12
2.39669e-12
3.45924e-12
4.58222e-12
5.73392e-12
6.88802e-12
8.02283e-12
9.1213e-12
1.01711e-11
1.11648e-11
1.20994e-11
1.29759e-11
1.37989e-11
1.45753e-11
1.53139e-11
1.60244e-11
1.67168e-11
1.74008e-11
1.80855e-11
1.87793e-11
1.94891e-11
2.02212e-11
2.09805e-11
2.17708e-11
2.25951e-11
2.34552e-11
2.4352e-11
2.52856e-11
2.62553e-11
2.72598e-11
2.82971e-11
2.93648e-11
3.04602e-11
3.15804e-11
3.27223e-11
3.38831e-11
3.50597e-11
3.62492e-11
3.74486e-11
3.86541e-11
3.98614e-11
4.10646e-11
4.22561e-11
4.34254e-11
4.4559e-11
4.56399e-11
4.66466e-11
4.75539e-11
4.83324e-11
4.89491e-11
4.93395e-11
4.94922e-11
4.94407e-11
4.90517e-11
4.8309e-11
4.71886e-11
4.56715e-11
4.37515e-11
4.14322e-11
3.87324e-11
3.56871e-11
3.23491e-11
2.87877e-11
2.50873e-11
2.13434e-11
1.76573e-11
1.41281e-11
1.08445e-11
7.87738e-12
5.27582e-12
3.07585e-12
1.32099e-12
1.47041e-13
7.55392e-14
6.77768e-13
1.55201e-12
2.59393e-12
3.74414e-12
4.95965e-12
6.20582e-12
7.45368e-12
8.67935e-12
9.86402e-12
1.09942e-11
1.20618e-11
1.30639e-11
1.40018e-11
1.48807e-11
1.57088e-11
1.64957e-11
1.72521e-11
1.79891e-11
1.87171e-11
1.94458e-11
2.01841e-11
2.09395e-11
2.17182e-11
2.25253e-11
2.33648e-11
2.42393e-11
2.51507e-11
2.60997e-11
2.7086e-11
2.81089e-11
2.91667e-11
3.02574e-11
3.13784e-11
3.2527e-11
3.37004e-11
3.48956e-11
3.611e-11
3.73408e-11
3.85852e-11
3.98404e-11
4.11027e-11
4.23673e-11
4.3628e-11
4.48761e-11
4.61e-11
4.72846e-11
4.8411e-11
4.94561e-11
5.03925e-11
5.11891e-11
5.18117e-11
5.21892e-11
5.23281e-11
5.22396e-11
5.17992e-11
5.09909e-11
4.97914e-11
4.81815e-11
4.61558e-11
4.37186e-11
4.08888e-11
3.77014e-11
3.42085e-11
3.04791e-11
2.65973e-11
2.26596e-11
1.87702e-11
1.50337e-11
1.15466e-11
8.38844e-12
5.61638e-12
3.27263e-12
1.40472e-12
1.56368e-13
8.14551e-14
7.30866e-13
1.67369e-12
2.79747e-12
4.0381e-12
5.34896e-12
6.69231e-12
8.03641e-12
9.35498e-12
1.06274e-11
1.18389e-11
1.29809e-11
1.40503e-11
1.50491e-11
1.59834e-11
1.68623e-11
1.76965e-11
1.8498e-11
1.92785e-11
2.00496e-11
2.08215e-11
2.16036e-11
2.24036e-11
2.32281e-11
2.40823e-11
2.497e-11
2.58939e-11
2.68555e-11
2.78555e-11
2.88936e-11
2.99685e-11
3.10788e-11
3.2222e-11
3.33958e-11
3.45973e-11
3.58241e-11
3.70733e-11
3.83425e-11
3.96292e-11
4.0931e-11
4.22448e-11
4.35669e-11
4.48921e-11
4.62133e-11
4.75208e-11
4.88014e-11
5.00386e-11
5.12112e-11
5.22944e-11
5.32589e-11
5.40718e-11
5.46975e-11
5.50589e-11
5.51818e-11
5.50514e-11
5.45553e-11
5.36769e-11
5.23934e-11
5.0686e-11
4.855e-11
4.59909e-11
4.30282e-11
3.96974e-11
3.60504e-11
3.21556e-11
2.80965e-11
2.39699e-11
1.98818e-11
1.59413e-11
1.22522e-11
8.9028e-12
5.9592e-12
3.4705e-12
1.48878e-12
1.65734e-13
8.75564e-14
7.85624e-13
1.79917e-12
3.00733e-12
4.34111e-12
5.75012e-12
7.19332e-12
8.63602e-12
1.00494e-11
1.14108e-11
1.27044e-11
1.39209e-11
1.50574e-11
1.61164e-11
1.71051e-11
1.80337e-11
1.89141e-11
1.97595e-11
2.05826e-11
2.13958e-11
2.221e-11
2.3035e-11
2.3879e-11
2.47487e-11
2.56491e-11
2.65844e-11
2.75569e-11
2.85681e-11
2.96185e-11
3.07077e-11
3.18343e-11
3.29966e-11
3.41925e-11
3.54194e-11
3.66749e-11
3.79563e-11
3.92615e-11
4.05881e-11
4.1934e-11
4.32967e-11
4.46732e-11
4.60594e-11
4.74495e-11
4.88355e-11
5.02061e-11
5.15469e-11
5.2839e-11
5.40598e-11
5.51822e-11
5.6175e-11
5.70037e-11
5.76312e-11
5.7975e-11
5.80803e-11
5.79049e-11
5.73494e-11
5.63964e-11
5.50236e-11
5.32125e-11
5.09596e-11
4.82717e-11
4.51698e-11
4.16903e-11
3.78859e-11
3.38248e-11
2.95899e-11
2.52773e-11
2.09938e-11
1.6852e-11
1.2962e-11
9.42113e-12
6.30474e-12
3.66974e-12
1.57329e-12
1.7515e-13
9.38436e-14
8.42045e-13
1.92844e-12
3.22351e-12
4.65316e-12
6.16309e-12
7.70874e-12
9.25227e-12
1.07622e-11
1.22138e-11
1.35899e-11
1.48807e-11
1.60837e-11
1.7202e-11
1.82439e-11
1.92209e-11
2.01463e-11
2.10343e-11
2.1899e-11
2.27533e-11
2.3609e-11
2.44763e-11
2.53636e-11
2.62779e-11
2.72242e-11
2.82065e-11
2.92273e-11
3.02879e-11
3.13887e-11
3.2529e-11
3.37076e-11
3.49227e-11
3.61722e-11
3.74537e-11
3.87651e-11
4.01039e-11
4.14683e-11
4.28563e-11
4.42657e-11
4.56943e-11
4.71388e-11
4.85945e-11
5.0055e-11
5.15108e-11
5.29494e-11
5.43544e-11
5.57053e-11
5.69772e-11
5.81411e-11
5.9164e-11
6.00098e-11
6.06389e-11
6.09654e-11
6.10528e-11
6.08305e-11
6.02129e-11
5.91813e-11
5.77133e-11
5.57913e-11
5.34127e-11
5.05862e-11
4.73349e-11
4.36975e-11
3.97283e-11
3.5496e-11
3.10831e-11
2.65849e-11
2.2108e-11
1.77668e-11
1.36769e-11
9.94406e-12
6.65348e-12
3.8706e-12
1.65833e-12
1.84626e-13
1.00317e-13
9.0013e-13
2.06151e-12
3.446e-12
4.97424e-12
6.58779e-12
8.23841e-12
9.88488e-12
1.14928e-11
1.30355e-11
1.44943e-11
1.58592e-11
1.71276e-11
1.8304e-11
1.93977e-11
2.04217e-11
2.13907e-11
2.23202e-11
2.32253e-11
2.41199e-11
2.50164e-11
2.59255e-11
2.68558e-11
2.78143e-11
2.88064e-11
2.98359e-11
3.09052e-11
3.20155e-11
3.31671e-11
3.43594e-11
3.55911e-11
3.68606e-11
3.81658e-11
3.95046e-11
4.0875e-11
4.22752e-11
4.37033e-11
4.51577e-11
4.66364e-11
4.81369e-11
4.96556e-11
5.11873e-11
5.27243e-11
5.42561e-11
5.57683e-11
5.72428e-11
5.8657e-11
5.99842e-11
6.11934e-11
6.225e-11
6.31159e-11
6.37471e-11
6.40587e-11
6.41289e-11
6.38595e-11
6.3178e-11
6.2064e-11
6.0495e-11
5.84538e-11
5.5939e-11
5.29615e-11
4.95475e-11
4.57387e-11
4.15925e-11
3.71797e-11
3.25831e-11
2.78969e-11
2.32264e-11
1.86868e-11
1.43976e-11
1.04722e-11
7.00585e-12
4.07335e-12
1.74401e-12
1.94173e-13
1.06975e-13
9.59875e-13
2.19837e-12
3.67478e-12
5.3043e-12
7.02412e-12
8.78212e-12
1.05335e-11
1.22408e-11
1.38752e-11
1.54166e-11
1.68547e-11
1.81876e-11
1.94206e-11
2.05646e-11
2.1634e-11
2.26451e-11
2.36149e-11
2.45595e-11
2.54937e-11
2.64305e-11
2.7381e-11
2.83543e-11
2.93573e-11
3.03955e-11
3.14727e-11
3.25912e-11
3.37523e-11
3.49561e-11
3.62021e-11
3.7489e-11
3.88154e-11
4.01795e-11
4.15793e-11
4.30133e-11
4.44797e-11
4.59772e-11
4.75042e-11
4.90588e-11
5.06382e-11
5.22384e-11
5.38532e-11
5.54739e-11
5.70883e-11
5.86806e-11
6.02306e-11
6.17139e-11
6.31017e-11
6.43612e-11
6.54561e-11
6.63471e-11
6.69819e-11
6.72829e-11
6.73374e-11
6.70221e-11
6.62761e-11
6.50768e-11
6.3401e-11
6.12318e-11
5.85689e-11
5.54259e-11
5.18324e-11
4.7835e-11
4.34954e-11
3.88882e-11
3.40977e-11
2.92176e-11
2.43514e-11
1.96131e-11
1.51246e-11
1.1006e-11
7.36223e-12
4.27821e-12
1.83041e-12
2.03801e-13
1.13819e-13
1.02128e-12
2.339e-12
3.90982e-12
5.64325e-12
7.47193e-12
9.33961e-12
1.11977e-11
1.30055e-11
1.47319e-11
1.63556e-11
1.7866e-11
1.92619e-11
2.05499e-11
2.17424e-11
2.28556e-11
2.39076e-11
2.49165e-11
2.58997e-11
2.6873e-11
2.78499e-11
2.8842e-11
2.98586e-11
3.09067e-11
3.1992e-11
3.3118e-11
3.42872e-11
3.55008e-11
3.6759e-11
3.80613e-11
3.94066e-11
4.07936e-11
4.22207e-11
4.36864e-11
4.51894e-11
4.67283e-11
4.83019e-11
4.99087e-11
5.15467e-11
5.32128e-11
5.49022e-11
5.6608e-11
5.83199e-11
6.00244e-11
6.17037e-11
6.33359e-11
6.48946e-11
6.63492e-11
6.7665e-11
6.88041e-11
6.97256e-11
7.03692e-11
7.06642e-11
7.07055e-11
7.03469e-11
6.95368e-11
6.82501e-11
6.64623e-11
6.41563e-11
6.13327e-11
5.80079e-11
5.42158e-11
5.00088e-11
4.54551e-11
4.06348e-11
3.56358e-11
3.05522e-11
2.54853e-11
2.05467e-11
1.58584e-11
1.15457e-11
7.72288e-12
4.48535e-12
1.9176e-12
2.13516e-13
1.20847e-13
1.08433e-12
2.48339e-12
4.15107e-12
5.99101e-12
7.93106e-12
9.91057e-12
1.18769e-11
1.37861e-11
1.56045e-11
1.73099e-11
1.88914e-11
2.03486e-11
2.16898e-11
2.2929e-11
2.40845e-11
2.51759e-11
2.6223e-11
2.72443e-11
2.82565e-11
2.92737e-11
3.0308e-11
3.13687e-11
3.24632e-11
3.35969e-11
3.47737e-11
3.59959e-11
3.72647e-11
3.85803e-11
3.99425e-11
4.13502e-11
4.28025e-11
4.4298e-11
4.58355e-11
4.74139e-11
4.90323e-11
5.06896e-11
5.23841e-11
5.41138e-11
5.58749e-11
5.7662e-11
5.94668e-11
6.1278e-11
6.30802e-11
6.4854e-11
6.65756e-11
6.82168e-11
6.97449e-11
7.11237e-11
7.23136e-11
7.3272e-11
7.39315e-11
7.42261e-11
7.4257e-11
7.38591e-11
7.29865e-11
7.16113e-11
6.97071e-11
6.72561e-11
6.42593e-11
6.07357e-11
5.67239e-11
5.22835e-11
4.74909e-11
4.24343e-11
3.72075e-11
3.19066e-11
2.6631e-11
2.14886e-11
1.65993e-11
1.20914e-11
8.08793e-12
4.69488e-12
2.00562e-12
2.23323e-13
1.28058e-13
1.14901e-12
2.63149e-12
4.39847e-12
6.34746e-12
8.40128e-12
1.04946e-11
1.25706e-11
1.45818e-11
1.64921e-11
1.82781e-11
1.99291e-11
2.14459e-11
2.28383e-11
2.41225e-11
2.53186e-11
2.64483e-11
2.75329e-11
2.8592e-11
2.96432e-11
3.07015e-11
3.17789e-11
3.28852e-11
3.40279e-11
3.52125e-11
3.64427e-11
3.77209e-11
3.90484e-11
4.04256e-11
4.18522e-11
4.33275e-11
4.48507e-11
4.64208e-11
4.8037e-11
4.96983e-11
5.14041e-11
5.31532e-11
5.4944e-11
5.6774e-11
5.86388e-11
6.05321e-11
6.24444e-11
6.43629e-11
6.62707e-11
6.81466e-11
6.9965e-11
7.16958e-11
7.33047e-11
7.47537e-11
7.60014e-11
7.70036e-11
7.76872e-11
7.79878e-11
7.8012e-11
7.75796e-11
7.66474e-11
7.51839e-11
7.31604e-11
7.05571e-11
6.73753e-11
6.36358e-11
5.93824e-11
5.46825e-11
4.9623e-11
4.43026e-11
3.8824e-11
3.32876e-11
2.77918e-11
2.24398e-11
1.73473e-11
1.26432e-11
8.45739e-12
4.90684e-12
2.09448e-12
2.33222e-13
1.3545e-13
1.21531e-12
2.78329e-12
4.65195e-12
6.71245e-12
8.88233e-12
1.10914e-11
1.32782e-11
1.53916e-11
1.73932e-11
1.92586e-11
2.09775e-11
2.25517e-11
2.39933e-11
2.53206e-11
2.65561e-11
2.77231e-11
2.88447e-11
2.99418e-11
3.10328e-11
3.21332e-11
3.32555e-11
3.44096e-11
3.56032e-11
3.68416e-11
3.81287e-11
3.94669e-11
4.08576e-11
4.23013e-11
4.37978e-11
4.53468e-11
4.69476e-11
4.85996e-11
5.0302e-11
5.20544e-11
5.3856e-11
5.57058e-11
5.76017e-11
5.95409e-11
6.15182e-11
6.35262e-11
6.55544e-11
6.75882e-11
6.96094e-11
7.15949e-11
7.35173e-11
7.53449e-11
7.70418e-11
7.85682e-11
7.98809e-11
8.0934e-11
8.16506e-11
8.1964e-11
8.19856e-11
8.15246e-11
8.05366e-11
7.89866e-11
7.68423e-11
7.40813e-11
7.0704e-11
6.67325e-11
6.22156e-11
5.72293e-11
5.18721e-11
4.62566e-11
4.04976e-11
3.47028e-11
2.89715e-11
2.34017e-11
1.81026e-11
1.32008e-11
8.83109e-12
5.12115e-12
2.18416e-12
2.43211e-13
1.43022e-13
1.28322e-12
2.93871e-12
4.91139e-12
7.0858e-12
9.37391e-12
1.17003e-11
1.39988e-11
1.62145e-11
1.83066e-11
2.02499e-11
2.20345e-11
2.36641e-11
2.51528e-11
2.65216e-11
2.77951e-11
2.89988e-11
3.01574e-11
3.12931e-11
3.24251e-11
3.35695e-11
3.4739e-11
3.59439e-11
3.71916e-11
3.84878e-11
3.98363e-11
4.12394e-11
4.26988e-11
4.42149e-11
4.57878e-11
4.74174e-11
4.91033e-11
5.08451e-11
5.26422e-11
5.44944e-11
5.64008e-11
5.83602e-11
6.03704e-11
6.24276e-11
6.45261e-11
6.66573e-11
6.88092e-11
7.09661e-11
7.31079e-11
7.521e-11
7.72434e-11
7.91746e-11
8.09662e-11
8.25768e-11
8.39615e-11
8.50724e-11
8.58309e-11
8.61642e-11
8.61875e-11
8.57043e-11
8.46657e-11
8.30322e-11
8.07674e-11
7.78456e-11
7.42645e-11
7.0047e-11
6.52458e-11
5.99458e-11
5.42589e-11
4.8314e-11
4.22415e-11
3.61608e-11
3.01743e-11
2.43755e-11
1.8865e-11
1.37636e-11
9.20871e-12
5.33767e-12
2.27458e-12
2.53283e-13
1.5077e-13
1.3527e-12
3.09771e-12
5.1767e-12
7.46731e-12
9.87565e-12
1.23208e-11
1.47317e-11
1.70494e-11
1.92308e-11
2.12501e-11
2.30983e-11
2.4781e-11
2.63148e-11
2.77234e-11
2.9034e-11
3.02742e-11
3.14703e-11
3.26458e-11
3.38207e-11
3.50115e-11
3.62314e-11
3.74907e-11
3.87969e-11
4.01557e-11
4.15708e-11
4.30447e-11
4.4579e-11
4.61745e-11
4.78312e-11
4.95493e-11
5.13286e-11
5.31688e-11
5.50696e-11
5.70305e-11
5.90509e-11
6.11292e-11
6.32625e-11
6.54466e-11
6.76746e-11
6.99368e-11
7.222e-11
7.45069e-11
7.6776e-11
7.90011e-11
8.11515e-11
8.31924e-11
8.50847e-11
8.67855e-11
8.82483e-11
8.94234e-11
9.02321e-11
9.05923e-11
9.06217e-11
9.01231e-11
8.90396e-11
8.73273e-11
8.49446e-11
8.1861e-11
7.80708e-11
7.35957e-11
6.84919e-11
6.28523e-11
5.68033e-11
5.04924e-11
4.407e-11
3.76712e-11
3.14056e-11
2.53631e-11
1.96344e-11
1.43311e-11
9.58978e-12
5.55615e-12
2.36566e-12
2.63425e-13
1.58693e-13
1.42374e-12
3.26023e-12
5.44774e-12
7.85675e-12
1.03872e-11
1.29523e-11
1.54758e-11
1.78949e-11
2.01642e-11
2.22575e-11
2.41669e-11
2.59003e-11
2.74773e-11
2.89244e-11
3.02714e-11
3.15482e-11
3.27829e-11
3.4e-11
3.52203e-11
3.64609e-11
3.77352e-11
3.90534e-11
4.04233e-11
4.18504e-11
4.33384e-11
4.48899e-11
4.65065e-11
4.8189e-11
4.99378e-11
5.1753e-11
5.36345e-11
5.55823e-11
5.7596e-11
5.96752e-11
6.18188e-11
6.4025e-11
6.62903e-11
6.86094e-11
7.09746e-11
7.33751e-11
7.57962e-11
7.82193e-11
8.06213e-11
8.29746e-11
8.52472e-11
8.74027e-11
8.94006e-11
9.11965e-11
9.27424e-11
9.3987e-11
9.4853e-11
9.52467e-11
9.52866e-11
9.47792e-11
9.36573e-11
9.18718e-11
8.93756e-11
8.61322e-11
8.21308e-11
7.73905e-11
7.19688e-11
6.59663e-11
5.95237e-11
5.28094e-11
4.59976e-11
3.92443e-11
3.26711e-11
2.63667e-11
2.04109e-11
1.49026e-11
9.97365e-12
5.77623e-12
2.45723e-12
2.73622e-13
1.66786e-13
1.4963e-12
3.42618e-12
5.72436e-12
8.25383e-12
1.0908e-11
1.35941e-11
1.62303e-11
1.87498e-11
2.11052e-11
2.327e-11
2.52381e-11
2.702e-11
2.86383e-11
3.01228e-11
3.15061e-11
3.28203e-11
3.40951e-11
3.53563e-11
3.66255e-11
3.792e-11
3.92534e-11
4.06362e-11
4.20758e-11
4.35778e-11
4.5146e-11
4.67828e-11
4.84898e-11
5.0268e-11
5.21177e-11
5.40393e-11
5.60326e-11
5.80975e-11
6.02337e-11
6.24405e-11
6.47165e-11
6.70594e-11
6.94647e-11
7.19265e-11
7.4436e-11
7.6981e-11
7.95456e-11
8.21099e-11
8.46493e-11
8.71348e-11
8.95332e-11
9.18067e-11
9.39134e-11
9.58079e-11
9.74405e-11
9.87584e-11
9.96875e-11
1.0012e-10
1.00175e-10
9.96645e-11
9.8511e-11
9.66592e-11
9.40558e-11
9.06573e-11
8.64462e-11
8.14369e-11
7.56865e-11
6.93014e-11
6.24362e-11
5.52815e-11
4.8039e-11