/*--------------------------------*- C++ -*----------------------------------*\
  =========                 |
  \\      /  F ield         | OpenFOAM: The Open Source CFD Toolbox
   \\    /   O peration     | Website:  https://openfoam.org
    \\  /    A nd           | Version:  12
     \\/     M anipulation  |
\*---------------------------------------------------------------------------*/
FoamFile
{
    format      ascii;
    class       volScalarField;
    location    "9";
    object      nut;
}
// * * * * * * * * * * * * * * * * * * * * * * * * * * * * * * * * * * * * * //

dimensions      [0 2 -1 0 0 0 0];

internalField   nonuniform List<scalar> 
5625
(
4.73518e-21
3.20062e-20
7.09884e-20
1.1687e-19
1.67185e-19
2.20232e-19
2.74695e-19
3.29513e-19
3.83825e-19
4.36955e-19
4.88398e-19
5.37811e-19
5.85007e-19
6.29943e-19
6.72702e-19
7.13479e-19
7.52556e-19
7.90282e-19
8.27049e-19
8.63275e-19
8.99385e-19
9.35796e-19
9.72909e-19
1.0111e-18
1.05072e-18
1.09208e-18
1.13546e-18
1.18113e-18
1.2293e-18
1.28016e-18
1.33388e-18
1.3906e-18
1.45044e-18
1.51346e-18
1.57972e-18
1.64924e-18
1.72199e-18
1.7979e-18
1.87685e-18
1.95862e-18
2.04297e-18
2.1295e-18
2.21772e-18
2.30702e-18
2.3966e-18
2.48548e-18
2.57248e-18
2.65617e-18
2.73488e-18
2.80667e-18
2.86933e-18
2.92035e-18
2.95675e-18
2.97465e-18
2.97575e-18
2.95484e-18
2.90924e-18
2.83736e-18
2.73842e-18
2.61262e-18
2.46125e-18
2.28678e-18
2.09289e-18
1.88427e-18
1.66636e-18
1.44496e-18
1.22582e-18
1.01416e-18
8.14393e-19
6.29843e-19
4.62813e-19
3.14848e-19
1.87425e-19
8.35004e-20
1.23219e-20
1.43128e-19
4.67186e-18
1.16806e-17
1.97174e-17
2.84476e-17
3.76139e-17
4.70036e-17
5.64402e-17
6.57792e-17
7.49063e-17
8.37357e-17
9.22098e-17
1.00297e-16
1.07991e-16
1.15306e-16
1.22277e-16
1.28952e-16
1.35393e-16
1.41666e-16
1.47845e-16
1.54001e-16
1.60206e-16
1.6653e-16
1.73036e-16
1.79784e-16
1.86827e-16
1.94214e-16
2.01988e-16
2.10187e-16
2.18842e-16
2.27983e-16
2.37632e-16
2.47809e-16
2.58526e-16
2.69793e-16
2.81612e-16
2.93981e-16
3.06887e-16
3.20309e-16
3.34218e-16
3.48567e-16
3.63296e-16
3.78324e-16
3.93549e-16
4.08841e-16
4.24037e-16
4.38941e-16
4.53315e-16
4.66877e-16
4.79301e-16
4.90213e-16
4.99184e-16
5.0571e-16
5.09021e-16
5.09501e-16
5.06198e-16
4.98644e-16
4.86555e-16
4.69785e-16
4.4835e-16
4.22458e-16
3.92531e-16
3.59199e-16
3.23279e-16
2.85723e-16
2.47549e-16
2.09765e-16
1.73288e-16
1.3888e-16
1.07114e-16
7.83624e-17
5.28426e-17
3.06918e-17
1.21489e-17
3.72229e-19
3.03854e-19
2.49955e-17
8.00552e-17
1.44467e-16
2.1354e-16
2.85417e-16
3.5863e-16
4.31919e-16
5.04231e-16
5.74721e-16
6.42753e-16
7.07903e-16
7.69945e-16
8.28843e-16
8.84728e-16
9.37874e-16
9.8867e-16
1.03759e-15
1.08517e-15
1.13196e-15
1.17852e-15
1.22541e-15
1.27316e-15
1.32225e-15
1.37313e-15
1.42621e-15
1.48185e-15
1.54038e-15
1.60207e-15
1.66716e-15
1.73588e-15
1.80838e-15
1.88481e-15
1.96528e-15
2.04984e-15
2.13854e-15
2.23136e-15
2.32822e-15
2.42899e-15
2.53346e-15
2.64133e-15
2.75219e-15
2.86548e-15
2.98048e-15
3.09627e-15
3.21171e-15
3.32536e-15
3.4355e-15
3.54007e-15
3.63661e-15
3.72233e-15
3.79397e-15
3.84792e-15
3.87667e-15
3.88561e-15
3.86564e-15
3.81289e-15
3.72495e-15
3.60038e-15
3.439e-15
3.24219e-15
3.01308e-15
2.75654e-15
2.47903e-15
2.18817e-15
1.89214e-15
1.59908e-15
1.31632e-15
1.04988e-15
8.04074e-16
5.81412e-16
3.82816e-16
2.08479e-16
6.47468e-17
7.88268e-19
4.96705e-19
5.8573e-17
2.40074e-16
4.77187e-16
7.34051e-16
9.99714e-16
1.26847e-15
1.53596e-15
1.79861e-15
2.05356e-15
2.29867e-15
2.53252e-15
2.7544e-15
2.96427e-15
3.16269e-15
3.35072e-15
3.52983e-15
3.70175e-15
3.86845e-15
4.03193e-15
4.19424e-15
4.35735e-15
4.52312e-15
4.69328e-15
4.86941e-15
5.05292e-15
5.24505e-15
5.44693e-15
5.6595e-15
5.8836e-15
6.11994e-15
6.36911e-15
6.6316e-15
6.90779e-15
7.19794e-15
7.50222e-15
7.82062e-15
8.15303e-15
8.4991e-15
8.8583e-15
9.22977e-15
9.61232e-15
1.00043e-14
1.04036e-14
1.08072e-14
1.12117e-14
1.16122e-14
1.20033e-14
1.23778e-14
1.27274e-14
1.30424e-14
1.33112e-14
1.35231e-14
1.3642e-14
1.36984e-14
1.36524e-14
1.3489e-14
1.31985e-14
1.27742e-14
1.22144e-14
1.15228e-14
1.07102e-14
9.79415e-15
8.79851e-15
7.75175e-15
6.68474e-15
5.62799e-15
4.60889e-15
3.64944e-15
2.76464e-15
1.9622e-15
1.24437e-15
6.18613e-16
1.51086e-16
1.28306e-18
7.15636e-19
9.8766e-17
4.86527e-16
1.07154e-15
1.73283e-15
2.42072e-15
3.11402e-15
3.80022e-15
4.47019e-15
5.11697e-15
5.73553e-15
6.32265e-15
6.87689e-15
7.39846e-15
7.88905e-15
8.35159e-15
8.78995e-15
9.20874e-15
9.61293e-15
1.00077e-14
1.03981e-14
1.07892e-14
1.11856e-14
1.15914e-14
1.20105e-14
1.24464e-14
1.2902e-14
1.338e-14
1.38827e-14
1.4412e-14
1.49696e-14
1.5557e-14
1.61754e-14
1.68258e-14
1.75089e-14
1.82254e-14
1.89756e-14
1.97594e-14
2.05766e-14
2.14262e-14
2.23071e-14
2.32169e-14
2.41525e-14
2.51095e-14
2.60819e-14
2.70618e-14
2.80388e-14
2.9e-14
2.99289e-14
3.08053e-14
3.16054e-14
3.23021e-14
3.28723e-14
3.32027e-14
3.33983e-14
3.33411e-14
3.2992e-14
3.23242e-14
3.13187e-14
2.99682e-14
2.82804e-14
2.62811e-14
2.40146e-14
2.15417e-14
1.89358e-14
1.62766e-14
1.36427e-14
1.11039e-14
8.71536e-15
6.51359e-15
4.51719e-15
2.73954e-15
1.23902e-15
2.53263e-16
1.83752e-18
9.56423e-19
1.42577e-16
7.94888e-16
1.91868e-15
3.27137e-15
4.70673e-15
6.15731e-15
7.58826e-15
8.97797e-15
1.03117e-14
1.15794e-14
1.27752e-14
1.38969e-14
1.49457e-14
1.59258e-14
1.68438e-14
1.77082e-14
1.85288e-14
1.9316e-14
2.00806e-14
2.08331e-14
2.15835e-14
2.23411e-14
2.31144e-14
2.39109e-14
2.47374e-14
2.55996e-14
2.65028e-14
2.74514e-14
2.84492e-14
2.94995e-14
3.06054e-14
3.17693e-14
3.29935e-14
3.42799e-14
3.56301e-14
3.70453e-14
3.85265e-14
4.00739e-14
4.1687e-14
4.33642e-14
4.51028e-14
4.68978e-14
4.87422e-14
5.06256e-14
5.25339e-14
5.4448e-14
5.63431e-14
5.81874e-14
5.99411e-14
6.15553e-14
6.29838e-14
6.4175e-14
6.48735e-14
6.53317e-14
6.52855e-14
6.46537e-14
6.3381e-14
6.14277e-14
5.87778e-14
5.54459e-14
5.14847e-14
4.69842e-14
4.20683e-14
3.6886e-14
3.15984e-14
2.63636e-14
2.13212e-14
1.65806e-14
1.22147e-14
8.26741e-15
4.79488e-15
1.99764e-15
3.62664e-16
2.43718e-18
1.21636e-18
1.89075e-16
1.14361e-15
2.97393e-15
5.33143e-15
7.91e-15
1.05413e-14
1.31376e-14
1.56494e-14
1.80466e-14
2.03104e-14
2.24311e-14
2.44061e-14
2.6239e-14
2.79386e-14
2.95182e-14
3.09939e-14
3.2384e-14
3.3708e-14
3.49853e-14
3.62348e-14
3.74744e-14
3.87203e-14
3.99873e-14
4.12887e-14
4.26358e-14
4.40389e-14
4.55066e-14
4.70467e-14
4.86659e-14
5.037e-14
5.21644e-14
5.40539e-14
5.60429e-14
5.81355e-14
6.03352e-14
6.26453e-14
6.50686e-14
6.76069e-14
7.0261e-14
7.303e-14
7.59104e-14
7.88959e-14
8.19758e-14
8.51337e-14
8.83466e-14
9.15827e-14
9.47994e-14
9.79417e-14
1.0094e-13
1.03707e-13
1.06171e-13
1.08226e-13
1.09425e-13
1.10223e-13
1.10147e-13
1.09055e-13
1.06856e-13
1.03487e-13
9.89261e-14
9.32086e-14
8.64259e-14
7.87354e-14
7.03508e-14
6.15268e-14
5.25364e-14
4.36458e-14
3.50894e-14
2.70505e-14
1.9656e-14
1.30012e-14
7.24581e-15
2.83111e-15
4.76037e-16
3.07162e-18
1.4937e-18
2.37992e-16
1.51965e-15
4.18698e-15
7.84624e-15
1.19917e-14
1.62865e-14
2.05411e-14
2.465e-14
2.85526e-14
3.22153e-14
3.5622e-14
3.877e-14
4.16675e-14
4.43316e-14
4.67857e-14
4.90582e-14
5.11804e-14
5.31849e-14
5.51038e-14
5.69682e-14
5.8807e-14
6.06464e-14
6.25101e-14
6.44188e-14
6.63908e-14
6.84419e-14
7.05861e-14
7.28357e-14
7.52014e-14
7.76928e-14
8.03188e-14
8.30877e-14
8.60073e-14
8.90849e-14
9.23275e-14
9.57413e-14
9.93322e-14
1.03105e-13
1.07062e-13
1.11203e-13
1.15524e-13
1.20017e-13
1.24666e-13
1.29445e-13
1.34318e-13
1.39234e-13
1.44125e-13
1.48903e-13
1.53455e-13
1.57646e-13
1.61346e-13
1.64399e-13
1.66129e-13
1.67212e-13
1.66938e-13
1.65084e-13
1.61528e-13
1.56189e-13
1.4905e-13
1.40172e-13
1.29714e-13
1.17922e-13
1.05124e-13
9.17038e-14
7.80669e-14
6.46064e-14
5.16675e-14
3.95228e-14
2.83728e-14
1.83995e-14
9.92433e-15
3.69897e-15
5.91978e-16
3.73278e-18
1.7873e-18
2.89249e-16
1.91639e-15
5.51742e-15
1.07341e-14
1.68574e-14
2.33187e-14
2.97639e-14
3.59901e-14
4.18831e-14
4.73823e-14
5.24611e-14
5.71172e-14
6.13662e-14
6.52374e-14
6.87701e-14
7.20102e-14
7.50074e-14
7.78127e-14
8.04761e-14
8.3045e-14
8.55631e-14
8.80701e-14
9.06011e-14
9.31872e-14
9.58551e-14
9.86285e-14
1.0153e-13
1.04576e-13
1.07784e-13
1.11167e-13
1.14741e-13
1.18516e-13
1.22507e-13
1.26725e-13
1.31181e-13
1.35884e-13
1.40846e-13
1.46072e-13
1.51568e-13
1.57335e-13
1.63366e-13
1.69647e-13
1.76154e-13
1.82848e-13
1.89673e-13
1.96551e-13
2.03379e-13
2.10022e-13
2.16314e-13
2.22055e-13
2.27025e-13
2.30998e-13
2.33152e-13
2.34282e-13
2.33466e-13
2.30389e-13
2.24915e-13
2.16967e-13
2.0655e-13
1.93781e-13
1.78897e-13
1.62255e-13
1.4431e-13
1.25585e-13
1.06624e-13
8.79537e-14
7.00328e-14
5.32306e-14
3.78362e-14
2.41509e-14
1.27012e-14
4.57837e-15
7.09667e-16
4.41443e-18
2.09642e-18
3.42819e-16
2.3308e-15
6.9379e-15
1.39206e-14
2.23925e-14
3.15076e-14
4.06816e-14
4.95603e-14
5.79443e-14
6.57297e-14
7.28723e-14
7.93695e-14
8.52475e-14
9.05532e-14
9.53478e-14
9.97017e-14
1.0369e-13
1.07387e-13
1.10869e-13
1.14201e-13
1.17449e-13
1.20668e-13
1.23908e-13
1.27214e-13
1.30622e-13
1.34166e-13
1.37874e-13
1.41773e-13
1.45887e-13
1.50236e-13
1.54841e-13
1.5972e-13
1.64892e-13
1.70374e-13
1.76183e-13
1.82334e-13
1.88839e-13
1.95709e-13
2.02948e-13
2.10556e-13
2.18523e-13
2.26825e-13
2.35425e-13
2.44263e-13
2.53254e-13
2.6228e-13
2.71191e-13
2.79791e-13
2.87847e-13
2.9508e-13
3.0118e-13
3.05769e-13
3.08042e-13
3.08815e-13
3.06958e-13
3.02079e-13
2.94061e-13
2.82856e-13
2.68519e-13
2.51239e-13
2.31351e-13
2.09329e-13
1.85759e-13
1.613e-13
1.36635e-13
1.12411e-13
8.91976e-14
6.746e-14
4.75838e-14
3.00098e-14
1.54907e-14
5.45686e-15
8.28508e-16
5.11166e-18
2.42055e-18
3.98702e-16
2.76166e-15
8.43178e-15
1.73478e-14
2.84879e-14
4.07031e-14
5.31189e-14
6.51749e-14
7.6545e-14
8.70582e-14
9.66442e-14
1.05299e-13
1.13063e-13
1.20007e-13
1.26222e-13
1.31809e-13
1.36875e-13
1.41528e-13
1.45869e-13
1.49994e-13
1.5399e-13
1.57935e-13
1.61895e-13
1.65932e-13
1.70096e-13
1.74432e-13
1.78979e-13
1.83772e-13
1.88843e-13
1.9422e-13
1.99931e-13
2.06002e-13
2.12456e-13
2.19317e-13
2.26607e-13
2.34344e-13
2.42545e-13
2.51221e-13
2.60374e-13
2.7e-13
2.80079e-13
2.90573e-13
3.01423e-13
3.12539e-13
3.23796e-13
3.35028e-13
3.46021e-13
3.56512e-13
3.66185e-13
3.74678e-13
3.81589e-13
3.86379e-13
3.88184e-13
3.8816e-13
3.84669e-13
3.77365e-13
3.66182e-13
3.51134e-13
3.32346e-13
3.10095e-13
2.84818e-13
2.57109e-13
2.27678e-13
1.97313e-13
1.66817e-13
1.36951e-13
1.08381e-13
8.16615e-14
5.72751e-14
3.58088e-14
1.82415e-14
6.32758e-15
9.48027e-16
5.82052e-18
2.75936e-18
4.56906e-16
3.20866e-15
9.98992e-15
2.09747e-14
3.50524e-14
5.07626e-14
6.68904e-14
8.26114e-14
9.7431e-14
1.11087e-13
1.2347e-13
1.34572e-13
1.4445e-13
1.53206e-13
1.60967e-13
1.67875e-13
1.74079e-13
1.79723e-13
1.84944e-13
1.89872e-13
1.9462e-13
1.99291e-13
2.03974e-13
2.08746e-13
2.13674e-13
2.18817e-13
2.24226e-13
2.29944e-13
2.36014e-13
2.42473e-13
2.49355e-13
2.56693e-13
2.64518e-13
2.72858e-13
2.8174e-13
2.91185e-13
3.0121e-13
3.11825e-13
3.23028e-13
3.34804e-13
3.47118e-13
3.59911e-13
3.73091e-13
3.86528e-13
4.00048e-13
4.13423e-13
4.26368e-13
4.38538e-13
4.49535e-13
4.58906e-13
4.66163e-13
4.7067e-13
4.7129e-13
4.69933e-13
4.6426e-13
4.53939e-13
4.39039e-13
4.19671e-13
3.96043e-13
3.68524e-13
3.37655e-13
3.04141e-13
2.68809e-13
2.32556e-13
1.96293e-13
1.60876e-13
1.27059e-13
9.54725e-14
6.66928e-14
4.14465e-14
2.09254e-14
7.18677e-15
1.06784e-15
6.53786e-18
3.11264e-18
5.17443e-16
3.67189e-15
1.16078e-14
2.47743e-14
4.20161e-14
6.15632e-14
8.18212e-14
1.0165e-13
1.20343e-13
1.37518e-13
1.53016e-13
1.6682e-13
1.7901e-13
1.89722e-13
1.9913e-13
2.07425e-13
2.14803e-13
2.21456e-13
2.27562e-13
2.33288e-13
2.3878e-13
2.44169e-13
2.49567e-13
2.55073e-13
2.6077e-13
2.66732e-13
2.73022e-13
2.79696e-13
2.86805e-13
2.94396e-13
3.0251e-13
3.11188e-13
3.20465e-13
3.30374e-13
3.40945e-13
3.52201e-13
3.64157e-13
3.76816e-13
3.90168e-13
4.04182e-13
4.188e-13
4.33932e-13
4.49446e-13
4.65163e-13
4.80845e-13
4.96194e-13
5.10847e-13
5.24375e-13
5.36293e-13
5.46067e-13
5.53134e-13
5.56763e-13
5.55702e-13
5.52175e-13
5.43982e-13
5.30137e-13
5.11069e-13
4.87027e-13
4.58308e-13
4.25368e-13
3.88848e-13
3.49551e-13
3.08405e-13
2.66407e-13
2.24555e-13
1.83789e-13
1.44933e-13
1.08691e-13
7.57182e-14
4.68697e-14
2.35291e-14
8.03235e-15
1.18765e-15
7.26121e-18
3.48031e-18
5.80333e-16
4.15163e-15
1.32837e-14
2.87306e-14
4.93291e-14
7.30069e-14
9.77604e-14
1.22088e-13
1.4503e-13
1.66059e-13
1.8495e-13
2.01676e-13
2.1634e-13
2.29123e-13
2.40254e-13
2.4998e-13
2.58555e-13
2.66221e-13
2.73207e-13
2.7972e-13
2.85944e-13
2.9204e-13
2.98148e-13
3.04386e-13
3.10859e-13
3.17654e-13
3.24849e-13
3.32512e-13
3.40702e-13
3.49476e-13
3.58883e-13
3.68967e-13
3.79772e-13
3.91332e-13
4.03678e-13
4.16831e-13
4.30801e-13
4.45582e-13
4.61147e-13
4.77443e-13
4.94384e-13
5.11837e-13
5.29623e-13
5.47501e-13
5.65164e-13
5.82237e-13
5.98274e-13
6.12765e-13
6.25146e-13
6.34814e-13
6.41149e-13
6.43313e-13
6.4006e-13
6.33805e-13
6.22554e-13
6.04934e-13
5.81353e-13
5.52398e-13
5.18448e-13
4.80041e-13
4.37904e-13
3.92929e-13
3.46132e-13
2.98592e-13
2.51384e-13
2.05517e-13
1.61879e-13
1.21231e-13
8.43034e-14
5.20589e-14
2.60471e-14
8.86336e-15
1.30722e-15
7.98871e-18
3.86233e-18
6.45597e-16
4.64827e-15
1.50173e-14
3.28348e-14
5.69579e-14
8.50198e-14
1.14585e-13
1.43751e-13
1.7127e-13
1.96441e-13
2.18961e-13
2.38792e-13
2.56063e-13
2.71008e-13
2.83917e-13
2.95102e-13
3.04881e-13
3.13558e-13
3.21414e-13
3.28703e-13
3.35648e-13
3.42444e-13
3.49259e-13
3.56236e-13
3.63496e-13
3.71145e-13
3.79273e-13
3.87961e-13
3.97278e-13
4.07288e-13
4.18046e-13
4.29604e-13
4.42007e-13
4.55291e-13
4.69484e-13
4.84604e-13
5.00651e-13
5.17603e-13
5.35414e-13
5.54001e-13
5.73238e-13
5.92946e-13
6.12886e-13
6.3275e-13
6.52157e-13
6.70651e-13
6.87708e-13
7.02739e-13
7.15116e-13
7.24182e-13
7.29283e-13
7.29442e-13
7.23517e-13
7.14284e-13
6.99286e-13
6.77839e-13
6.49506e-13
6.15487e-13
5.76246e-13
5.32389e-13
4.84719e-13
4.34207e-13
3.81945e-13
3.29083e-13
2.76762e-13
2.26049e-13
1.77886e-13
1.33089e-13
9.24463e-14
5.70148e-14
2.84798e-14
9.67961e-15
1.42641e-15
8.71903e-18
4.25871e-18
7.13257e-16
5.16218e-15
1.68094e-14
3.70829e-14
6.48808e-14
9.75488e-14
1.322e-13
1.66499e-13
1.98873e-13
2.28431e-13
2.54778e-13
2.77863e-13
2.97846e-13
3.15019e-13
3.29741e-13
3.424e-13
3.53386e-13
3.63067e-13
3.71783e-13
3.79838e-13
3.87498e-13
3.94993e-13
4.0252e-13
4.10246e-13
4.18313e-13
4.26843e-13
4.3594e-13
4.45695e-13
4.56187e-13
4.67487e-13
4.79657e-13
4.92752e-13
5.06817e-13
5.21889e-13
5.37993e-13
5.55135e-13
5.73302e-13
5.92455e-13
6.12518e-13
6.33371e-13
6.54844e-13
6.76702e-13
6.98642e-13
7.20283e-13
7.41167e-13
7.60761e-13
7.78465e-13
7.93626e-13
8.05562e-13
8.13582e-13
8.17019e-13
8.1472e-13
8.05762e-13
7.93322e-13
7.74164e-13
7.48704e-13
7.15565e-13
6.76382e-13
6.31831e-13
5.82567e-13
5.29459e-13
4.73548e-13
4.15995e-13
3.58013e-13
3.00799e-13
2.45471e-13
1.9302e-13
1.44307e-13
1.00173e-13
6.17505e-14
3.08313e-14
1.04814e-14
1.54511e-15
9.4513e-18
4.66949e-18
7.83338e-16
5.69376e-15
1.8661e-14
4.14745e-14
7.30852e-14
1.10557e-13
1.50534e-13
1.90216e-13
2.27685e-13
2.61833e-13
2.92169e-13
3.18625e-13
3.41398e-13
3.60845e-13
3.77403e-13
3.91543e-13
4.03732e-13
4.14409e-13
4.23977e-13
4.32792e-13
4.41167e-13
4.49367e-13
4.57619e-13
4.66115e-13
4.75017e-13
4.84462e-13
4.94568e-13
5.05436e-13
5.17155e-13
5.29801e-13
5.43442e-13
5.58135e-13
5.73924e-13
5.90843e-13
6.08909e-13
6.28116e-13
6.48435e-13
6.69798e-13
6.92097e-13
7.15172e-13
7.38797e-13
7.62679e-13
7.86446e-13
8.09642e-13
8.31734e-13
8.52115e-13
8.70121e-13
8.85043e-13
8.9616e-13
9.02765e-13
9.04194e-13
8.99087e-13
8.86864e-13
8.71025e-13
8.47528e-13
8.17664e-13
7.79885e-13
7.35442e-13
6.85573e-13
6.30938e-13
5.72465e-13
5.11262e-13
4.48554e-13
3.8561e-13
3.2368e-13
2.63928e-13
2.07386e-13
1.54958e-13
1.07527e-13
6.62859e-14
3.31082e-14
1.12697e-14
1.66332e-15
1.01851e-17
5.09473e-18
8.55863e-16
6.24337e-15
2.05734e-14
4.60105e-14
8.15644e-14
1.24019e-13
1.69533e-13
2.14817e-13
2.5758e-13
2.96486e-13
3.3094e-13
3.60856e-13
3.86476e-13
4.08226e-13
4.26631e-13
4.42251e-13
4.55636e-13
4.67302e-13
4.77718e-13
4.87295e-13
4.96391e-13
5.0531e-13
5.14308e-13
5.23602e-13
5.33373e-13
5.43774e-13
5.54936e-13
5.66969e-13
5.7997e-13
5.94021e-13
6.09192e-13
6.25542e-13
6.43113e-13
6.61932e-13
6.82006e-13
7.03313e-13
7.25801e-13
7.49374e-13
7.73883e-13
7.9912e-13
8.24805e-13
8.50578e-13
8.75996e-13
9.00533e-13
9.23584e-13
9.44476e-13
9.62487e-13
9.76867e-13
9.86868e-13
9.91773e-13
9.90925e-13
9.82747e-13
9.67243e-13
9.47704e-13
9.19865e-13
8.85321e-13
8.42967e-13
7.93205e-13
7.37997e-13
6.77999e-13
6.14191e-13
5.47751e-13
4.79965e-13
4.1216e-13
3.45636e-13
2.81597e-13
2.21115e-13
1.65128e-13
1.14559e-13
7.06443e-14
3.53197e-14
1.20455e-14
1.78105e-15
1.09205e-17
5.5345e-18
9.30856e-16
6.81134e-15
2.25482e-14
5.06923e-14
9.03159e-14
1.37921e-13
1.89159e-13
2.40234e-13
2.88459e-13
3.32259e-13
3.7093e-13
4.04373e-13
4.32875e-13
4.56943e-13
4.77197e-13
4.94292e-13
5.08866e-13
5.21517e-13
5.3278e-13
5.43126e-13
5.52959e-13
5.62618e-13
5.72392e-13
5.8252e-13
5.93202e-13
6.04606e-13
6.16875e-13
6.30129e-13
6.44471e-13
6.59987e-13
6.7675e-13
6.94816e-13
7.14225e-13
7.34994e-13
7.57118e-13
7.80556e-13
8.05227e-13
8.31002e-13
8.57689e-13
8.85028e-13
9.12679e-13
9.40217e-13
9.6713e-13
9.92822e-13
1.01662e-12
1.0378e-12
1.05559e-12
1.0692e-12
1.07788e-12
1.08089e-12
1.07759e-12
1.06618e-12
1.04742e-12
1.02399e-12
9.91767e-13
9.52417e-13
9.05449e-13
8.50325e-13
7.89731e-13
7.24327e-13
6.55156e-13
5.83465e-13
5.1061e-13
4.37978e-13
3.66916e-13
2.9867e-13
2.34346e-13
1.74913e-13
1.21325e-13
7.48524e-14
3.74745e-14
1.28103e-14
1.89838e-15
1.16576e-17
5.98886e-18
1.00834e-15
7.39798e-15
2.45866e-14
5.55222e-14
9.93392e-14
1.5225e-13
2.09384e-13
2.66413e-13
3.20243e-13
3.69045e-13
4.12007e-13
4.49021e-13
4.80425e-13
5.06816e-13
5.28913e-13
5.47473e-13
5.6323e-13
5.76864e-13
5.88981e-13
6.0011e-13
6.107e-13
6.21131e-13
6.31718e-13
6.42723e-13
6.54366e-13
6.66828e-13
6.80262e-13
6.94797e-13
7.10542e-13
7.27587e-13
7.46004e-13
7.65848e-13
7.87151e-13
8.09923e-13
8.34138e-13
8.59735e-13
8.86603e-13
9.14574e-13
9.43411e-13
9.72798e-13
1.00234e-12
1.03153e-12
1.05981e-12
1.08652e-12
1.11091e-12
1.13222e-12
1.14963e-12
1.16234e-12
1.16957e-12
1.17058e-12
1.16474e-12
1.15003e-12
1.12805e-12
1.10063e-12
1.06398e-12
1.01975e-12
9.68063e-13
9.07529e-13
8.41453e-13
7.70542e-13
6.95908e-13
6.18879e-13
5.40888e-13
4.63387e-13
3.87776e-13
3.1534e-13
2.47218e-13
1.84406e-13
1.27882e-13
7.89382e-14
3.95819e-14
1.35659e-14
2.01543e-15
1.23971e-17
6.45788e-18
1.08833e-15
8.00354e-15
2.66898e-14
6.05021e-14
1.08635e-13
1.67002e-13
2.30188e-13
2.93315e-13
3.52866e-13
4.06756e-13
4.54063e-13
4.94672e-13
5.28984e-13
5.5769e-13
5.81619e-13
6.01635e-13
6.1857e-13
6.33189e-13
6.46172e-13
6.58105e-13
6.69484e-13
6.80724e-13
6.92169e-13
7.04104e-13
7.16765e-13
7.30345e-13
7.45009e-13
7.60892e-13
7.78108e-13
7.96748e-13
8.16887e-13
8.38572e-13
8.6183e-13
8.86656e-13
9.13007e-13
9.40796e-13
9.69879e-13
1.00005e-12
1.03102e-12
1.06241e-12
1.09378e-12
1.12456e-12
1.15412e-12
1.18174e-12
1.20664e-12
1.22799e-12
1.24496e-12
1.25671e-12
1.26244e-12
1.26143e-12
1.25305e-12
1.23502e-12
1.20989e-12
1.17842e-12
1.13733e-12
1.08814e-12
1.03157e-12
9.65577e-13
8.93867e-13
8.17282e-13
7.37011e-13
6.54476e-13
5.71199e-13
4.88711e-13
4.08468e-13
3.31799e-13
2.5987e-13
1.93701e-13
1.34285e-13
8.29292e-14
4.16513e-14
1.43141e-14
2.13235e-15
1.31397e-17
6.94161e-18
1.17083e-15
8.62823e-15
2.88587e-14
6.56342e-14
1.18205e-13
1.82171e-13
2.51553e-13
3.20906e-13
3.86275e-13
4.45317e-13
4.97001e-13
5.41215e-13
5.78429e-13
6.09437e-13
6.35183e-13
6.56643e-13
6.74753e-13
6.90366e-13
7.04233e-13
7.16998e-13
7.29204e-13
7.41301e-13
7.53659e-13
7.66584e-13
7.80327e-13
7.95095e-13
8.11059e-13
8.28363e-13
8.47124e-13
8.67434e-13
8.89365e-13
9.12962e-13
9.3824e-13
9.65179e-13
9.93717e-13
1.02374e-12
1.05506e-12
1.08744e-12
1.12054e-12
1.15393e-12
1.1871e-12
1.21943e-12
1.25023e-12
1.27873e-12
1.3041e-12
1.32548e-12
1.34201e-12
1.35282e-12
1.35711e-12
1.35413e-12
1.34323e-12
1.32192e-12
1.29373e-12
1.2582e-12
1.21265e-12
1.15846e-12
1.09674e-12
1.02524e-12
9.47675e-13
8.6518e-13
7.79021e-13
6.9073e-13
6.01938e-13
5.14265e-13
4.29238e-13
3.4823e-13
2.72434e-13
2.02886e-13
1.40589e-13
8.6852e-14
4.36922e-14
1.50569e-14
2.24929e-15
1.38862e-17
7.44006e-18
1.25587e-15
9.27222e-15
3.10942e-14
7.09199e-14
1.28048e-13
1.97754e-13
2.73466e-13
3.49155e-13
4.20422e-13
4.84662e-13
5.40741e-13
5.88556e-13
6.28654e-13
6.61942e-13
6.89487e-13
7.12381e-13
7.31668e-13
7.48287e-13
7.63064e-13
7.767e-13
7.89781e-13
8.0279e-13
8.16125e-13
8.3011e-13
8.45009e-13
8.61041e-13
8.78386e-13
8.97191e-13
9.17577e-13
9.39638e-13
9.63442e-13
9.89026e-13
1.0164e-12
1.04552e-12
1.0763e-12
1.1086e-12
1.14221e-12
1.17683e-12
1.21207e-12
1.24747e-12
1.28245e-12
1.31633e-12
1.34838e-12
1.37778e-12
1.40367e-12
1.42514e-12
1.4413e-12
1.45127e-12
1.45422e-12
1.44936e-12
1.43602e-12
1.41153e-12
1.38035e-12
1.34078e-12
1.29074e-12
1.23149e-12
1.16441e-12
1.08723e-12
1.00355e-12
9.1485e-13
8.22479e-13
7.28104e-13
6.33486e-13
5.40355e-13
4.5032e-13
3.64807e-13
2.85033e-13
2.12043e-13
1.46842e-13
9.07317e-14
4.57135e-14
1.57961e-14
2.36643e-15
1.46374e-17
7.95325e-18
1.34345e-15
9.93563e-15
3.33968e-14
7.63604e-14
1.38167e-13
2.13745e-13
2.95913e-13
3.78036e-13
4.55264e-13
5.24731e-13
5.85206e-13
6.36604e-13
6.79562e-13
7.15105e-13
7.44429e-13
7.6875e-13
7.89217e-13
8.06864e-13
8.22584e-13
8.37137e-13
8.5115e-13
8.65139e-13
8.79525e-13
8.94648e-13
9.10787e-13
9.28171e-13
9.46984e-13
9.67381e-13
9.89483e-13
1.01338e-12
1.03915e-12
1.0668e-12
1.09635e-12
1.12772e-12
1.16082e-12
1.19547e-12
1.23141e-12
1.26832e-12
1.30576e-12
1.3432e-12
1.38003e-12
1.41552e-12
1.44888e-12
1.47926e-12
1.50575e-12
1.52743e-12
1.54336e-12
1.55264e-12
1.55441e-12
1.54786e-12
1.53211e-12
1.50458e-12
1.47051e-12
1.42692e-12
1.37236e-12
1.30798e-12
1.23536e-12
1.15222e-12
1.06215e-12
9.66877e-13
8.67902e-13
7.67041e-13
6.66208e-13
5.67271e-13
4.71938e-13
3.81694e-13
2.97781e-13
2.21249e-13
1.53091e-13
9.45917e-14
4.7724e-14
1.65335e-14
2.48391e-15
1.53944e-17
8.48116e-18
1.43356e-15
1.06185e-14
3.5767e-14
8.19563e-14
1.48559e-13
2.3014e-13
3.18879e-13
4.07521e-13
4.90758e-13
5.65466e-13
6.30324e-13
6.85279e-13
7.31062e-13
7.6883e-13
7.99914e-13
8.25656e-13
8.47316e-13
8.66016e-13
8.82724e-13
8.9825e-13
9.13263e-13
9.2831e-13
9.43831e-13
9.60184e-13
9.77658e-13
9.9649e-13
1.01687e-12
1.03896e-12
1.06288e-12
1.08872e-12
1.11654e-12
1.14636e-12
1.17817e-12
1.21189e-12
1.24739e-12
1.28446e-12
1.32281e-12
1.36208e-12
1.40178e-12
1.44134e-12
1.48009e-12
1.51727e-12
1.55205e-12
1.58354e-12
1.61078e-12
1.63283e-12
1.64872e-12
1.6575e-12
1.6583e-12
1.65027e-12
1.63218e-12
1.60179e-12
1.56488e-12
1.51732e-12
1.45819e-12
1.38861e-12
1.31028e-12
1.22086e-12
1.12405e-12
1.0218e-12
9.15773e-13
8.07957e-13
7.00453e-13
5.95292e-13
4.94303e-13
3.99044e-13
3.10787e-13
2.30574e-13
1.59378e-13
9.84532e-14
4.97315e-14
1.72709e-14
2.60187e-15
1.61576e-17
9.02374e-18
1.52621e-15
1.13209e-14
3.82047e-14
8.77074e-14
1.59223e-13
2.46931e-13
3.42348e-13
4.37582e-13
5.26861e-13
6.06809e-13
6.76026e-13
7.34499e-13
7.83069e-13
8.23029e-13
8.55853e-13
8.83016e-13
9.05886e-13
9.25676e-13
9.43423e-13
9.5999e-13
9.76084e-13
9.92278e-13
1.00903e-12
1.02672e-12
1.04563e-12
1.06602e-12
1.08808e-12
1.11197e-12
1.13782e-12
1.16571e-12
1.19569e-12
1.22779e-12
1.26197e-12
1.29813e-12
1.33612e-12
1.3757e-12
1.41656e-12
1.45827e-12
1.50032e-12
1.5421e-12
1.58289e-12
1.6219e-12
1.65824e-12
1.69099e-12
1.71918e-12
1.7418e-12
1.75786e-12
1.76639e-12
1.76643e-12
1.75713e-12
1.73686e-12
1.70377e-12
1.66407e-12
1.61257e-12
1.54883e-12
1.47399e-12
1.38975e-12
1.29369e-12
1.18979e-12
1.08012e-12
9.66537e-13
8.5124e-13
7.36546e-13
6.24677e-13
5.17613e-13
4.17003e-13
3.24148e-13
2.40082e-13
1.65742e-13
1.02336e-13
5.1743e-14
1.80096e-14
2.72043e-15
1.69279e-17
9.58094e-18
1.62138e-15
1.20427e-14
4.07099e-14
9.3613e-14
1.70155e-13
2.6411e-13
3.66302e-13
4.68186e-13
5.63527e-13
6.487e-13
7.22239e-13
7.84183e-13
8.35493e-13
8.77612e-13
9.1216e-13
9.40746e-13
9.64851e-13
9.85776e-13
1.00463e-12
1.02232e-12
1.03958e-12
1.05703e-12
1.07512e-12
1.09426e-12
1.11474e-12
1.13681e-12
1.16067e-12
1.18649e-12
1.21438e-12
1.24444e-12
1.27671e-12
1.3112e-12
1.34786e-12
1.38657e-12
1.42716e-12
1.46937e-12
1.51283e-12
1.5571e-12
1.60162e-12
1.64573e-12
1.6887e-12
1.72968e-12
1.76777e-12
1.80198e-12
1.83133e-12
1.85476e-12
1.87123e-12
1.87973e-12
1.87926e-12
1.8689e-12
1.84669e-12
1.81103e-12
1.76857e-12
1.71317e-12
1.64478e-12
1.56458e-12
1.47425e-12
1.37121e-12
1.25982e-12
1.14227e-12
1.02059e-12
8.97246e-13
7.74789e-13
6.55671e-13
5.42056e-13
4.35704e-13
3.37957e-13
2.49831e-13
1.72215e-13
1.06255e-13
5.37647e-14
1.87508e-14
2.83966e-15
1.77054e-17
1.01526e-17
1.71905e-15
1.27839e-14
4.32822e-14
9.96718e-14
1.81352e-13
2.81666e-13
3.90718e-13
4.993e-13
6.00707e-13
6.91076e-13
7.68887e-13
8.34246e-13
8.88247e-13
9.32488e-13
9.68746e-13
9.98765e-13
1.02414e-12
1.04626e-12
1.06629e-12
1.08519e-12
1.10374e-12
1.12255e-12
1.14211e-12
1.16283e-12
1.185e-12
1.20889e-12
1.23469e-12
1.26257e-12
1.29265e-12
1.32501e-12
1.3597e-12
1.39671e-12
1.43597e-12
1.47736e-12
1.52067e-12
1.56561e-12
1.6118e-12
1.65875e-12
1.70587e-12
1.75247e-12
1.79777e-12
1.8409e-12
1.88092e-12
1.91682e-12
1.94755e-12
1.97203e-12
1.98917e-12
1.99789e-12
1.99714e-12
1.98593e-12
1.96203e-12
1.92395e-12
1.87872e-12
1.81949e-12
1.7464e-12
1.66075e-12
1.56414e-12
1.45379e-12
1.33454e-12
1.20861e-12
1.07829e-12
9.46289e-13
8.15454e-13
6.885e-13
5.67807e-13
4.55274e-13
3.52298e-13
2.59873e-13
1.78828e-13
1.10228e-13
5.58015e-14
1.94955e-14
2.95959e-15
1.84902e-17
1.07387e-17
1.81922e-15
1.35443e-14
4.5921e-14
1.05882e-13
1.92807e-13
2.99584e-13
4.15573e-13
5.30883e-13
6.38346e-13
7.33868e-13
8.1589e-13
8.846e-13
9.41236e-13
9.87565e-13
1.02552e-12
1.05699e-12
1.08367e-12
1.10705e-12
1.12835e-12
1.14857e-12
1.16852e-12
1.18883e-12
1.21001e-12
1.23244e-12
1.25646e-12
1.28232e-12
1.31021e-12
1.3403e-12
1.37272e-12
1.40753e-12
1.44478e-12
1.48444e-12
1.52645e-12
1.57064e-12
1.6168e-12
1.66461e-12
1.71365e-12
1.76341e-12
1.81328e-12
1.86252e-12
1.91033e-12
1.9558e-12
1.99795e-12
2.03575e-12
2.0681e-12
2.09388e-12
2.11193e-12
2.12111e-12
2.12031e-12
2.10846e-12
2.08313e-12
2.04277e-12
1.99477e-12
1.93175e-12
1.85394e-12
1.76272e-12
1.65965e-12
1.54171e-12
1.41421e-12
1.27942e-12
1.1399e-12
9.98637e-13
8.58784e-13
7.23367e-13
5.95024e-13
4.75828e-13
3.67248e-13
2.70258e-13
1.85607e-13
1.14265e-13
5.78577e-14
2.02442e-14
3.08021e-15
1.92821e-17
1.1339e-17
1.92184e-15
1.43236e-14
4.86254e-14
1.1224e-13
2.04512e-13
3.17849e-13
4.40836e-13
5.62893e-13
6.76384e-13
7.77001e-13
8.6316e-13
9.35147e-13
9.94361e-13
1.04274e-12
1.08239e-12
1.11533e-12
1.14338e-12
1.1681e-12
1.19077e-12
1.21243e-12
1.23392e-12
1.25587e-12
1.27881e-12
1.30314e-12
1.32917e-12
1.35715e-12
1.3873e-12
1.41977e-12
1.45468e-12
1.4921e-12
1.53206e-12
1.57452e-12
1.61941e-12
1.66655e-12
1.71569e-12
1.7665e-12
1.81854e-12
1.87126e-12
1.92401e-12
1.97606e-12
2.02654e-12
2.07454e-12
2.11904e-12
2.15895e-12
2.19315e-12
2.22045e-12
2.23964e-12
2.24951e-12
2.24887e-12
2.23656e-12
2.21008e-12
2.16758e-12
2.11677e-12
2.05003e-12
1.96749e-12
1.87058e-12
1.7609e-12
1.63514e-12
1.49901e-12
1.35492e-12
1.20565e-12
1.05451e-12
9.04983e-13
7.60452e-13
6.23853e-13
4.97474e-13
3.82878e-13
2.81026e-13
1.92576e-13
1.18378e-13
5.99363e-14
2.09972e-14
3.20145e-15
2.00806e-17
1.19533e-17
2.02689e-15
1.51218e-14
5.13944e-14
1.18742e-13
2.16459e-13
3.36441e-13
4.66476e-13
5.95278e-13
7.14753e-13
8.20391e-13
9.10601e-13
9.85785e-13
1.04751e-12
1.09791e-12
1.13925e-12
1.17369e-12
1.20317e-12
1.22932e-12
1.25347e-12
1.27672e-12
1.29989e-12
1.32366e-12
1.34854e-12
1.37492e-12
1.40314e-12
1.43344e-12
1.46602e-12
1.50105e-12
1.53862e-12
1.57881e-12
1.62164e-12
1.66707e-12
1.71499e-12
1.76521e-12
1.81748e-12
1.87143e-12
1.9266e-12
1.98241e-12
2.03821e-12
2.09321e-12
2.14654e-12
2.19724e-12
2.24427e-12
2.2865e-12
2.32274e-12
2.35177e-12
2.3723e-12
2.38306e-12
2.38277e-12
2.37017e-12
2.34278e-12
2.29828e-12
2.24465e-12
2.17426e-12
2.08698e-12
1.98427e-12
1.86784e-12
1.73409e-12
1.58903e-12
1.43521e-12
1.27568e-12
1.11406e-12
9.54212e-13
7.99903e-13
6.54419e-13
5.20305e-13
3.99253e-13
2.92216e-13
1.99755e-13
1.22575e-13
6.20394e-14
2.17545e-14
3.3232e-15
2.08847e-17
1.25814e-17
2.13433e-15
1.59383e-14
5.42266e-14
1.25385e-13
2.28636e-13
3.55338e-13
4.92453e-13
6.27982e-13
7.53379e-13
8.63946e-13
9.58108e-13
1.0364e-12
1.10057e-12
1.15295e-12
1.19598e-12
1.23197e-12
1.26295e-12
1.29063e-12
1.3164e-12
1.34138e-12
1.36641e-12
1.39217e-12
1.41917e-12
1.44781e-12
1.47841e-12
1.51122e-12
1.54643e-12
1.58419e-12
1.62461e-12
1.66776e-12
1.71362e-12
1.76217e-12
1.81327e-12
1.86673e-12
1.92226e-12
1.97948e-12
2.03791e-12
2.09696e-12
2.15594e-12
2.21404e-12
2.27037e-12
2.32393e-12
2.37365e-12
2.41836e-12
2.45682e-12
2.48775e-12
2.5098e-12
2.52161e-12
2.52181e-12
2.50908e-12
2.48098e-12
2.43463e-12
2.37817e-12
2.30419e-12
2.21221e-12
2.10357e-12
1.98029e-12
1.83848e-12
1.6842e-12
1.52029e-12
1.35003e-12
1.17737e-12
1.00658e-12
8.41835e-13
6.86824e-13
5.44403e-13
4.16427e-13
3.03861e-13
2.07159e-13
1.26863e-13
6.41681e-14
2.25158e-14
3.44528e-15
2.16931e-17
1.3223e-17
2.24412e-15
1.67729e-14
5.71204e-14
1.32163e-13
2.41034e-13
3.74513e-13
5.18724e-13
6.60943e-13
7.92178e-13
9.07565e-13
1.00556e-12
1.08686e-12
1.15341e-12
1.20774e-12
1.25247e-12
1.29004e-12
1.3226e-12
1.35193e-12
1.37947e-12
1.40634e-12
1.43341e-12
1.46135e-12
1.49067e-12
1.52178e-12
1.55497e-12
1.5905e-12
1.62854e-12
1.66925e-12
1.71271e-12
1.75898e-12
1.80806e-12
1.85989e-12
1.91432e-12
1.97116e-12
2.03009e-12
2.09072e-12
2.15254e-12
2.21494e-12
2.27722e-12
2.33854e-12
2.39799e-12
2.45454e-12
2.50708e-12
2.5544e-12
2.59521e-12
2.62817e-12
2.65186e-12
2.66484e-12
2.66566e-12
2.65289e-12
2.62427e-12
2.57619e-12
2.5169e-12
2.43941e-12
2.34278e-12
2.22815e-12
2.09794e-12
1.94804e-12
1.78434e-12
1.61004e-12
1.42866e-12
1.24447e-12
1.06214e-12