/*--------------------------------*- C++ -*----------------------------------*\
  =========                 |
  \\      /  F ield         | OpenFOAM: The Open Source CFD Toolbox
   \\    /   O peration     | Website:  https://openfoam.org
    \\  /    A nd           | Version:  12
     \\/     M anipulation  |
\*---------------------------------------------------------------------------*/
FoamFile
{
    format      ascii;
    class       volScalarField;
    location    "3.5";
    object      epsilon;
}
// * * * * * * * * * * * * * * * * * * * * * * * * * * * * * * * * * * * * * //

dimensions      [0 2 -3 0 0 0 0];

internalField   nonuniform List<scalar> 
18225
(
4.27027e-07
8.06648e-07
1.71169e-06
2.79538e-06
4.02136e-06
5.36307e-06
6.80207e-06
8.32505e-06
9.92183e-06
1.15842e-05
1.33053e-05
1.50791e-05
1.69005e-05
1.87645e-05
2.0667e-05
2.26037e-05
2.4571e-05
2.65651e-05
2.85827e-05
3.06205e-05
3.26753e-05
3.4744e-05
3.68236e-05
3.89112e-05
4.1004e-05
4.30991e-05
4.51938e-05
4.72854e-05
4.93712e-05
5.14488e-05
5.35154e-05
5.55687e-05
5.7606e-05
5.96251e-05
6.16234e-05
6.35987e-05
6.55486e-05
6.74708e-05
6.93632e-05
7.12235e-05
7.30495e-05
7.48393e-05
7.65908e-05
7.83018e-05
7.99706e-05
8.15951e-05
8.31736e-05
8.47041e-05
8.6185e-05
8.76145e-05
8.8991e-05
9.03129e-05
9.15786e-05
9.27866e-05
9.39355e-05
9.50239e-05
9.60504e-05
9.70138e-05
9.79129e-05
9.87464e-05
9.95132e-05
0.000100212
0.000100843
0.000101404
0.000101894
0.000102313
0.00010266
0.000102934
0.000103135
0.000103262
0.000103314
0.000103291
0.000103194
0.00010302
0.000102771
0.000102446
0.000102045
0.000101567
0.000101014
0.000100385
9.96811e-05
9.89017e-05
9.80475e-05
9.71192e-05
9.61173e-05
9.50426e-05
9.38958e-05
9.26779e-05
9.13899e-05
9.00329e-05
8.86082e-05
8.7117e-05
8.55608e-05
8.39412e-05
8.22599e-05
8.05185e-05
7.87191e-05
7.68635e-05
7.49541e-05
7.29929e-05
7.09824e-05
6.89251e-05
6.68235e-05
6.46804e-05
6.24986e-05
6.02811e-05
5.8031e-05
5.57515e-05
5.34459e-05
5.11176e-05
4.87704e-05
4.64079e-05
4.40339e-05
4.16524e-05
3.92677e-05
3.68839e-05
3.45055e-05
3.21372e-05
2.97839e-05
2.74504e-05
2.51423e-05
2.28649e-05
2.06244e-05
1.84269e-05
1.62794e-05
1.41893e-05
1.21649e-05
1.02157e-05
8.35277e-06
6.5895e-06
4.94317e-06
3.43725e-06
2.10514e-06
9.92149e-07
5.25229e-07
2.88922e-06
1.57134e-06
1.52814e-06
1.82573e-06
2.28608e-06
2.84636e-06
3.47714e-06
4.16215e-06
4.89125e-06
5.6575e-06
6.4558e-06
7.28212e-06
8.1332e-06
9.00624e-06
9.89877e-06
1.08086e-05
1.17337e-05
1.26723e-05
1.36225e-05
1.45827e-05
1.55514e-05
1.6527e-05
1.7508e-05
1.84931e-05
1.94808e-05
2.04698e-05
2.14587e-05
2.24464e-05
2.34314e-05
2.44127e-05
2.53888e-05
2.63588e-05
2.73213e-05
2.82752e-05
2.92194e-05
3.01527e-05
3.10741e-05
3.19825e-05
3.28768e-05
3.3756e-05
3.46191e-05
3.5465e-05
3.62929e-05
3.71017e-05
3.78905e-05
3.86585e-05
3.94047e-05
4.01283e-05
4.08284e-05
4.15043e-05
4.21552e-05
4.27802e-05
4.33787e-05
4.395e-05
4.44933e-05
4.5008e-05
4.54934e-05
4.5949e-05
4.63742e-05
4.67685e-05
4.71312e-05
4.74619e-05
4.77601e-05
4.80254e-05
4.82573e-05
4.84555e-05
4.86196e-05
4.87493e-05
4.88443e-05
4.89043e-05
4.89291e-05
4.89185e-05
4.88722e-05
4.87902e-05
4.86723e-05
4.85185e-05
4.83287e-05
4.8103e-05
4.78414e-05
4.75439e-05
4.72108e-05
4.68421e-05
4.64381e-05
4.5999e-05
4.55251e-05
4.50167e-05
4.44744e-05
4.38983e-05
4.32892e-05
4.26474e-05
4.19737e-05
4.12685e-05
4.05327e-05
3.97669e-05
3.89719e-05
3.81487e-05
3.7298e-05
3.64209e-05
3.55183e-05
3.45914e-05
3.36413e-05
3.26691e-05
3.16762e-05
3.06637e-05
2.96331e-05
2.85858e-05
2.75232e-05
2.64469e-05
2.53586e-05
2.42597e-05
2.31522e-05
2.20377e-05
2.09182e-05
1.97955e-05
1.86717e-05
1.75489e-05
1.64293e-05
1.5315e-05
1.42087e-05
1.31127e-05
1.20297e-05
1.09628e-05
9.91497e-06
8.88972e-06
7.89095e-06
6.92314e-06
5.99167e-06
5.10326e-06
4.26689e-06
3.49543e-06
2.80928e-06
2.24496e-06
1.88003e-06
1.93369e-06
3.5547e-06
6.43383e-06
3.15147e-06
2.42444e-06
2.28332e-06
2.39048e-06
2.63632e-06
2.97202e-06
3.37158e-06
3.81943e-06
4.30547e-06
4.82272e-06
5.36609e-06
5.93169e-06
6.51642e-06
7.11776e-06
7.73356e-06
8.36194e-06
9.00126e-06
9.65001e-06
1.03068e-05
1.09704e-05
1.16396e-05
1.23133e-05
1.29903e-05
1.36697e-05
1.43504e-05
1.50315e-05
1.5712e-05
1.6391e-05
1.70676e-05
1.7741e-05
1.84102e-05
1.90745e-05
1.97331e-05
2.03851e-05
2.10297e-05
2.16662e-05
2.22938e-05
2.29119e-05
2.35195e-05
2.41161e-05
2.4701e-05
2.52734e-05
2.58328e-05
2.63784e-05
2.69097e-05
2.74259e-05
2.79266e-05
2.84112e-05
2.8879e-05
2.93295e-05
2.97623e-05
3.01767e-05
3.05723e-05
3.09486e-05
3.13051e-05
3.16415e-05
3.19572e-05
3.22519e-05
3.25252e-05
3.27767e-05
3.3006e-05
3.32129e-05
3.33969e-05
3.35579e-05
3.36956e-05
3.38096e-05
3.38998e-05
3.39659e-05
3.40079e-05
3.40254e-05
3.40184e-05
3.39867e-05
3.39302e-05
3.38489e-05
3.37426e-05
3.36115e-05
3.34554e-05
3.32745e-05
3.30687e-05
3.28382e-05
3.25831e-05
3.23035e-05
3.19997e-05
3.16717e-05
3.13199e-05
3.09445e-05
3.05459e-05
3.01244e-05
2.96803e-05
2.92141e-05
2.87262e-05
2.82171e-05
2.76874e-05
2.71376e-05
2.65683e-05
2.59801e-05
2.53738e-05
2.475e-05
2.41096e-05
2.34532e-05
2.27818e-05
2.20963e-05
2.13976e-05
2.06866e-05
1.99644e-05
1.9232e-05
1.84906e-05
1.77412e-05
1.69852e-05
1.62237e-05
1.54581e-05
1.46898e-05
1.39202e-05
1.31508e-05
1.23832e-05
1.16191e-05
1.08603e-05
1.01088e-05
9.36654e-06
8.63596e-06
7.91959e-06
7.22037e-06
6.54169e-06
5.88763e-06
5.26328e-06
4.67515e-06
4.13212e-06
3.64685e-06
3.23874e-06
2.94e-06
2.8109e-06
2.98652e-06
3.88271e-06
7.92459e-06
1.06608e-05
5.10993e-06
3.69327e-06
3.17033e-06
3.00295e-06
3.02437e-06
3.16349e-06
3.38355e-06
3.66299e-06
3.98803e-06
4.34929e-06
4.74004e-06
5.15526e-06
5.5911e-06
6.04446e-06
6.51283e-06
6.9941e-06
7.48645e-06
7.98829e-06
8.49824e-06
9.015e-06
9.53743e-06
1.00644e-05
1.05951e-05
1.11283e-05
1.16633e-05
1.21992e-05
1.27352e-05
1.32704e-05
1.38042e-05
1.43358e-05
1.48644e-05
1.53894e-05
1.59102e-05
1.64259e-05
1.69361e-05
1.744e-05
1.79371e-05
1.84267e-05
1.89083e-05
1.93813e-05
1.98451e-05
2.02991e-05
2.07429e-05
2.1176e-05
2.15977e-05
2.20076e-05
2.24053e-05
2.27903e-05
2.3162e-05
2.35201e-05
2.38642e-05
2.41938e-05
2.45085e-05
2.4808e-05
2.50918e-05
2.53596e-05
2.56111e-05
2.58459e-05
2.60638e-05
2.62643e-05
2.64473e-05
2.66125e-05
2.67595e-05
2.68882e-05
2.69984e-05
2.70898e-05
2.71623e-05
2.72156e-05
2.72497e-05
2.72643e-05
2.72595e-05
2.7235e-05
2.71908e-05
2.71268e-05
2.7043e-05
2.69393e-05
2.68159e-05
2.66726e-05
2.65096e-05
2.63269e-05
2.61246e-05
2.59029e-05
2.56619e-05
2.54017e-05
2.51225e-05
2.48247e-05
2.45083e-05
2.41738e-05
2.38215e-05
2.34516e-05
2.30645e-05
2.26607e-05
2.22406e-05
2.18047e-05
2.13534e-05
2.08873e-05
2.04069e-05
1.99129e-05
1.94059e-05
1.88866e-05
1.83556e-05
1.78137e-05
1.72618e-05
1.67005e-05
1.61309e-05
1.55537e-05
1.49699e-05
1.43806e-05
1.37868e-05
1.31895e-05
1.259e-05
1.19894e-05
1.1389e-05
1.07903e-05
1.01947e-05
9.60374e-06
9.01927e-06
8.44318e-06
7.87759e-06
7.32495e-06
6.78804e-06
6.27018e-06
5.77535e-06
5.3085e-06
4.87601e-06
4.4863e-06
4.15112e-06
3.88759e-06
3.7224e-06
3.70099e-06
3.91113e-06
4.55861e-06
6.30744e-06
1.31553e-05
1.53857e-05
7.32056e-06
5.17383e-06
4.27558e-06
3.85748e-06
3.68603e-06
3.66418e-06
3.74302e-06
3.8945e-06
4.10095e-06
4.35048e-06
4.63465e-06
4.94724e-06
5.28347e-06
5.63961e-06
6.01263e-06
6.40005e-06
6.79978e-06
7.21004e-06
7.62925e-06
8.05605e-06
8.4892e-06
8.92758e-06
9.37016e-06
9.81601e-06
1.02642e-05
1.0714e-05
1.11645e-05
1.1615e-05
1.20648e-05
1.25132e-05
1.29596e-05
1.34033e-05
1.38437e-05
1.42802e-05
1.47122e-05
1.51392e-05
1.55606e-05
1.5976e-05
1.63847e-05
1.67862e-05
1.71802e-05
1.7566e-05
1.79433e-05
1.83116e-05
1.86704e-05
1.90193e-05
1.93579e-05
1.96858e-05
2.00025e-05
2.03078e-05
2.06012e-05
2.08823e-05
2.11509e-05
2.14066e-05
2.1649e-05
2.18779e-05
2.20929e-05
2.22938e-05
2.24803e-05
2.2652e-05
2.28089e-05
2.29506e-05
2.30769e-05
2.31876e-05
2.32825e-05
2.33614e-05
2.34242e-05
2.34706e-05
2.35007e-05
2.35142e-05
2.3511e-05
2.34912e-05
2.34545e-05
2.34009e-05
2.33304e-05
2.3243e-05
2.31386e-05
2.30174e-05
2.28793e-05
2.27244e-05
2.25529e-05
2.23647e-05
2.21601e-05
2.19391e-05
2.1702e-05
2.14491e-05
2.11804e-05
2.08962e-05
2.05969e-05
2.02828e-05
1.99541e-05
1.96112e-05
1.92547e-05
1.88847e-05
1.85019e-05
1.81067e-05
1.76995e-05
1.72811e-05
1.68518e-05
1.64124e-05
1.59635e-05
1.55058e-05
1.504e-05
1.45668e-05
1.40871e-05
1.36017e-05
1.31115e-05
1.26175e-05
1.21205e-05
1.16218e-05
1.11223e-05
1.06234e-05
1.01263e-05
9.6323e-06
9.14304e-06
8.66015e-06
8.18546e-06
7.72104e-06
7.26927e-06
6.83285e-06
6.41501e-06
6.01961e-06
5.6514e-06
5.31636e-06
5.02228e-06
4.77969e-06
4.60337e-06
4.51519e-06
4.5499e-06
4.76799e-06
5.2895e-06
6.40328e-06
9.0598e-06
1.90349e-05
2.04925e-05
9.71865e-06
6.80005e-06
5.51947e-06
4.85733e-06
4.50623e-06
4.34006e-06
4.29628e-06
4.33961e-06
4.44818e-06
4.60745e-06
4.80722e-06
5.03999e-06
5.3001e-06
5.58312e-06
5.88549e-06
6.20433e-06
6.53722e-06
6.88209e-06
7.23719e-06
7.60101e-06
7.97218e-06
8.34949e-06
8.73186e-06
9.11827e-06
9.50781e-06
9.89962e-06
1.02929e-05
1.06869e-05
1.1081e-05
1.14743e-05
1.18664e-05
1.22566e-05
1.26443e-05
1.30289e-05
1.34099e-05
1.37867e-05
1.4159e-05
1.4526e-05
1.48875e-05
1.52428e-05
1.55916e-05
1.59334e-05
1.62678e-05
1.65944e-05
1.69128e-05
1.72225e-05
1.75232e-05
1.78145e-05
1.80961e-05
1.83676e-05
1.86286e-05
1.88789e-05
1.91181e-05
1.9346e-05
1.95621e-05
1.97663e-05
1.99583e-05
2.01377e-05
2.03044e-05
2.04581e-05
2.05986e-05
2.07256e-05
2.0839e-05
2.09385e-05
2.10241e-05
2.10954e-05
2.11524e-05
2.11949e-05
2.12228e-05
2.1236e-05
2.12344e-05
2.12179e-05
2.11864e-05
2.11399e-05
2.10783e-05
2.10017e-05
2.091e-05
2.08033e-05
2.06816e-05
2.0545e-05
2.03935e-05
2.02273e-05
2.00464e-05
1.98511e-05
1.96414e-05
1.94176e-05
1.91799e-05
1.89286e-05
1.86638e-05
1.83859e-05
1.80953e-05
1.77922e-05
1.7477e-05
1.71502e-05
1.68121e-05
1.64633e-05
1.61042e-05
1.57353e-05
1.53572e-05
1.49705e-05
1.45759e-05
1.41739e-05
1.37653e-05
1.33509e-05
1.29313e-05
1.25076e-05
1.20804e-05
1.16509e-05
1.12199e-05
1.07886e-05
1.03581e-05
9.92964e-06
9.50456e-06
9.08432e-06
8.67055e-06
8.26504e-06
7.86981e-06
7.48715e-06
7.11969e-06
6.77053e-06
6.44334e-06
6.1426e-06
5.87387e-06
5.64426e-06
5.46307e-06
5.34296e-06
5.30197e-06
5.36723e-06
5.58249e-06
6.02533e-06
6.85223e-06
8.44469e-06
1.20682e-05
2.54384e-05
2.58961e-05
1.22605e-05
8.53381e-06
6.86084e-06
5.9551e-06
5.4301e-06
5.12829e-06
4.9723e-06
4.91895e-06
4.94176e-06
5.02336e-06
5.15167e-06
5.3179e-06
5.51543e-06
5.73913e-06
5.98494e-06
6.24952e-06
6.53013e-06
6.82446e-06
7.13054e-06
7.44664e-06
7.77127e-06
8.10309e-06
8.44091e-06
8.78365e-06
9.13036e-06
9.48011e-06
9.8321e-06
1.01855e-05
1.05397e-05
1.08939e-05
1.12475e-05
1.15999e-05
1.19504e-05
1.22986e-05
1.26439e-05
1.29858e-05
1.33238e-05
1.36573e-05
1.3986e-05
1.43094e-05
1.46271e-05
1.49385e-05
1.52435e-05
1.55414e-05
1.5832e-05
1.61149e-05
1.63897e-05
1.66561e-05
1.69137e-05
1.71622e-05
1.74013e-05
1.76307e-05
1.785e-05
1.8059e-05
1.82575e-05
1.84451e-05
1.86215e-05
1.87866e-05
1.89401e-05
1.90817e-05
1.92113e-05
1.93287e-05
1.94336e-05
1.95258e-05
1.96053e-05
1.96718e-05
1.97252e-05
1.97654e-05
1.97922e-05
1.98055e-05
1.98053e-05
1.97915e-05
1.97639e-05
1.97226e-05
1.96675e-05
1.95987e-05
1.9516e-05
1.94196e-05
1.93095e-05
1.91857e-05
1.90483e-05
1.88974e-05
1.87332e-05
1.85557e-05
1.83652e-05
1.81618e-05
1.79458e-05
1.77173e-05
1.74767e-05
1.72242e-05
1.69601e-05
1.66848e-05
1.63987e-05
1.61021e-05
1.57955e-05
1.54793e-05
1.5154e-05
1.48202e-05
1.44784e-05
1.41292e-05
1.37732e-05
1.34111e-05
1.30436e-05
1.26715e-05
1.22955e-05
1.19166e-05
1.15355e-05
1.11534e-05
1.07712e-05
1.039e-05
1.00111e-05
9.6358e-06
9.26547e-06
8.90171e-06
8.54628e-06
8.20112e-06
7.86846e-06
7.55081e-06
7.25114e-06
6.97296e-06
6.72044e-06
6.4987e-06
6.31413e-06
6.17495e-06
6.09207e-06
6.0805e-06
6.16184e-06
6.36901e-06
6.75573e-06
7.41837e-06
8.55318e-06
1.06418e-05
1.52876e-05
3.22793e-05
3.15281e-05
1.49122e-05
1.03482e-05
8.27334e-06
7.12239e-06
6.42598e-06
5.99346e-06
5.73165e-06
5.58891e-06
5.53388e-06
5.54612e-06
5.61153e-06
5.71997e-06
5.86384e-06
6.0373e-06
6.23571e-06
6.45533e-06
6.69307e-06
6.94635e-06
7.21298e-06
7.49105e-06
7.77891e-06
8.07513e-06
8.37839e-06
8.68753e-06
9.0015e-06
9.31933e-06
9.64014e-06
9.96309e-06
1.02874e-05
1.06125e-05
1.09376e-05
1.12621e-05
1.15854e-05
1.19069e-05
1.22261e-05
1.25426e-05
1.28557e-05
1.3165e-05
1.34701e-05
1.37705e-05
1.40658e-05
1.43556e-05
1.46395e-05
1.4917e-05
1.51879e-05
1.54518e-05
1.57082e-05
1.5957e-05
1.61977e-05
1.643e-05
1.66537e-05
1.68683e-05
1.70738e-05
1.72696e-05
1.74557e-05
1.76317e-05
1.77974e-05
1.79526e-05
1.80969e-05
1.82303e-05
1.83525e-05
1.84632e-05
1.85624e-05
1.86498e-05
1.87253e-05
1.87886e-05
1.88398e-05
1.88786e-05
1.89049e-05
1.89187e-05
1.89198e-05
1.89082e-05
1.88837e-05
1.88464e-05
1.87963e-05
1.87332e-05
1.86573e-05
1.85685e-05
1.84669e-05
1.83525e-05
1.82255e-05
1.80858e-05
1.79338e-05
1.77694e-05
1.75928e-05
1.74043e-05
1.7204e-05
1.69923e-05
1.67693e-05
1.65353e-05
1.62907e-05
1.60357e-05
1.57709e-05
1.54965e-05
1.52131e-05
1.4921e-05
1.46208e-05
1.4313e-05
1.39982e-05
1.3677e-05
1.335e-05
1.30179e-05
1.26815e-05
1.23415e-05
1.19988e-05
1.16542e-05
1.13087e-05
1.09634e-05
1.06192e-05
1.02775e-05
9.93944e-06
9.60646e-06
9.28008e-06
8.96201e-06
8.65415e-06
8.35866e-06
8.07798e-06
7.81492e-06
7.57274e-06
7.35532e-06
7.16733e-06
7.01458e-06
6.90435e-06
6.84608e-06
6.8524e-06
6.94084e-06
7.13692e-06
7.47978e-06
8.03396e-06
8.91604e-06
1.03647e-05
1.29678e-05
1.86854e-05
3.94927e-05
3.73302e-05
1.76455e-05
1.22221e-05
9.73754e-06
8.33949e-06
7.47291e-06
6.91275e-06
6.54939e-06
6.32233e-06
6.19504e-06
6.14384e-06
6.15252e-06
6.20948e-06
6.30613e-06
6.43585e-06
6.59345e-06
6.77475e-06
6.97631e-06
7.19528e-06
7.42923e-06
7.67608e-06
7.93402e-06
8.20148e-06
8.47704e-06
8.75944e-06
9.04757e-06
9.34037e-06
9.63693e-06
9.93637e-06
1.02379e-05
1.05407e-05
1.08442e-05
1.11477e-05
1.14506e-05
1.17522e-05
1.20521e-05
1.23496e-05
1.26444e-05
1.29358e-05
1.32236e-05
1.35071e-05
1.37861e-05
1.406e-05
1.43286e-05
1.45913e-05
1.48479e-05
1.5098e-05
1.53413e-05
1.55773e-05
1.58059e-05
1.60266e-05
1.62392e-05
1.64434e-05
1.66389e-05
1.68255e-05
1.70028e-05
1.71707e-05
1.73288e-05
1.7477e-05
1.7615e-05
1.77426e-05
1.78596e-05
1.79658e-05
1.80611e-05
1.81452e-05
1.82181e-05
1.82795e-05
1.83292e-05
1.83673e-05
1.83936e-05
1.84079e-05
1.84102e-05
1.84005e-05
1.83785e-05
1.83444e-05
1.82981e-05
1.82395e-05
1.81687e-05
1.80857e-05
1.79906e-05
1.78833e-05
1.7764e-05
1.76329e-05
1.74899e-05
1.73353e-05
1.71692e-05
1.69919e-05
1.68034e-05
1.66042e-05
1.63944e-05
1.61743e-05
1.59444e-05
1.57048e-05
1.5456e-05
1.51985e-05
1.49326e-05
1.46589e-05
1.43778e-05
1.409e-05
1.37959e-05
1.34963e-05
1.31918e-05
1.28831e-05
1.2571e-05
1.22563e-05
1.19399e-05
1.16227e-05
1.13057e-05
1.099e-05
1.06766e-05
1.0367e-05
1.00625e-05
9.76458e-06
9.47492e-06
9.19534e-06
8.92791e-06
8.67492e-06
8.43904e-06
8.22334e-06
8.03145e-06
7.86766e-06
7.73722e-06
7.6466e-06
7.60406e-06
7.62031e-06
7.70982e-06
7.89289e-06
8.19914e-06
8.67442e-06
9.39477e-06
1.04981e-05
1.22677e-05
1.54026e-05
2.22358e-05
4.70262e-05
4.32509e-05
2.04359e-05
1.41374e-05
1.12378e-05
9.5913e-06
8.55544e-06
7.86991e-06
7.40817e-06
7.10058e-06
6.90524e-06
6.79511e-06
6.75179e-06
6.76215e-06
6.81651e-06
6.90752e-06
7.02936e-06
7.17742e-06
7.34791e-06
7.53768e-06
7.74409e-06
7.96486e-06
8.19803e-06
8.44189e-06
8.6949e-06
8.95573e-06
9.22315e-06
9.49607e-06
9.77348e-06
1.00545e-05
1.03382e-05
1.06238e-05
1.09107e-05
1.11981e-05
1.14854e-05
1.1772e-05
1.20573e-05
1.23407e-05
1.26218e-05
1.29001e-05
1.31751e-05
1.34463e-05
1.37133e-05
1.39757e-05
1.42331e-05
1.44852e-05
1.47315e-05
1.49717e-05
1.52054e-05
1.54324e-05
1.56522e-05
1.58647e-05
1.60695e-05
1.62662e-05
1.64547e-05
1.66346e-05
1.68058e-05
1.69679e-05
1.71207e-05
1.7264e-05
1.73976e-05
1.75212e-05
1.76347e-05
1.77379e-05
1.78305e-05
1.79125e-05
1.79836e-05
1.80438e-05
1.80928e-05
1.81306e-05
1.8157e-05
1.81719e-05
1.81754e-05
1.81672e-05
1.81474e-05
1.81158e-05
1.80725e-05
1.80174e-05
1.79506e-05
1.78721e-05
1.77819e-05
1.76801e-05
1.75668e-05
1.74421e-05
1.7306e-05
1.71589e-05
1.70008e-05
1.68319e-05
1.66525e-05
1.64627e-05
1.6263e-05
1.60536e-05
1.58348e-05
1.5607e-05
1.53706e-05
1.5126e-05
1.48738e-05
1.46143e-05
1.43481e-05
1.40759e-05
1.37981e-05
1.35156e-05
1.32289e-05
1.29388e-05
1.26461e-05
1.23518e-05
1.20567e-05
1.17618e-05
1.14682e-05
1.1177e-05
1.08894e-05
1.06069e-05
1.03308e-05
1.00628e-05
9.80456e-06
9.55815e-06
9.32577e-06
9.10995e-06
8.91357e-06
8.73999e-06
8.59319e-06
8.47791e-06
8.39996e-06
8.36657e-06
8.38697e-06
8.47328e-06
8.64195e-06
8.91611e-06
9.3298e-06
9.93595e-06
1.08226e-05
1.215e-05
1.42478e-05
1.79304e-05
2.59178e-05
5.48361e-05
4.92441e-05
2.32611e-05
1.60783e-05
1.27606e-05
1.08654e-05
9.66131e-06
8.8524e-06
8.29492e-06
7.9099e-06
7.64993e-06
7.48452e-06
7.393e-06
7.36069e-06
7.3768e-06
7.43312e-06
7.5233e-06
7.64223e-06
7.78576e-06
7.95045e-06
8.13343e-06
8.33223e-06
8.54472e-06
8.76906e-06
9.0036e-06
9.24691e-06
9.49767e-06
9.75471e-06
1.0017e-05
1.02835e-05
1.05533e-05
1.08257e-05
1.10998e-05
1.1375e-05
1.16505e-05
1.19258e-05
1.22002e-05
1.24732e-05
1.27442e-05
1.30127e-05
1.32783e-05
1.35406e-05
1.37989e-05
1.4053e-05
1.43025e-05
1.45468e-05
1.47858e-05
1.50189e-05
1.52459e-05
1.54665e-05
1.56803e-05
1.58869e-05
1.60862e-05
1.62778e-05
1.64614e-05
1.66368e-05
1.68038e-05
1.6962e-05
1.71112e-05
1.72512e-05
1.73818e-05
1.75028e-05
1.7614e-05
1.77152e-05
1.78062e-05
1.78868e-05
1.7957e-05
1.80165e-05
1.80652e-05
1.8103e-05
1.81297e-05
1.81454e-05
1.81498e-05
1.81431e-05
1.81249e-05
1.80954e-05
1.80545e-05
1.80022e-05
1.79385e-05
1.78634e-05
1.77771e-05
1.76795e-05
1.75707e-05
1.74509e-05
1.73201e-05
1.71786e-05
1.70266e-05
1.68641e-05
1.66916e-05
1.65091e-05
1.63171e-05
1.61158e-05
1.59056e-05
1.56869e-05
1.546e-05
1.52255e-05
1.49838e-05
1.47354e-05
1.4481e-05
1.42211e-05
1.39564e-05
1.36875e-05
1.34152e-05
1.31403e-05
1.28636e-05
1.25861e-05
1.23087e-05
1.20324e-05
1.17584e-05
1.14879e-05
1.12221e-05
1.09626e-05
1.07109e-05
1.04687e-05
1.02379e-05
1.00207e-05
9.81936e-06
9.63668e-06
9.47579e-06
9.34035e-06
9.2347e-06
9.16405e-06
9.1348e-06
9.15497e-06
9.23486e-06
9.38805e-06
9.63304e-06
9.99598e-06
1.05155e-05
1.1252e-05
1.23058e-05
1.38603e-05
1.62932e-05
2.05379e-05
2.97129e-05
6.28844e-05
5.52673e-05
2.6101e-05
1.80306e-05
1.42944e-05
1.21511e-05
1.07803e-05
9.85003e-06
9.19923e-06
8.7395e-06
8.41785e-06
8.20028e-06
8.0638e-06
7.99214e-06
7.97337e-06
7.99845e-06
8.06039e-06
8.15364e-06
8.27365e-06
8.41672e-06
8.5797e-06
8.75994e-06
8.95516e-06
9.16336e-06
9.3828e-06
9.61191e-06
9.84933e-06
1.00938e-05
1.03442e-05
1.05994e-05
1.08586e-05
1.11209e-05
1.13854e-05
1.16514e-05
1.19182e-05
1.21851e-05
1.24516e-05
1.2717e-05
1.29808e-05
1.32424e-05
1.35014e-05
1.37573e-05
1.40097e-05
1.4258e-05
1.45019e-05
1.47411e-05
1.4975e-05
1.52034e-05
1.54259e-05
1.56421e-05
1.58518e-05
1.60546e-05
1.62503e-05
1.64385e-05
1.66189e-05
1.67914e-05
1.69556e-05
1.71113e-05
1.72582e-05
1.73962e-05
1.7525e-05
1.76443e-05
1.77541e-05
1.78542e-05
1.79442e-05
1.80242e-05
1.80938e-05
1.81531e-05
1.82018e-05
1.82398e-05
1.8267e-05
1.82833e-05
1.82887e-05
1.82831e-05
1.82663e-05
1.82385e-05
1.81994e-05
1.81493e-05
1.80879e-05
1.80155e-05
1.79321e-05
1.78376e-05
1.77323e-05
1.76162e-05
1.74895e-05
1.73523e-05
1.72048e-05
1.70473e-05
1.68799e-05
1.67031e-05
1.6517e-05
1.63219e-05
1.61184e-05
1.59067e-05
1.56873e-05
1.54607e-05
1.52273e-05
1.49878e-05
1.47427e-05
1.44926e-05
1.42383e-05
1.39804e-05
1.37198e-05
1.34572e-05
1.31936e-05
1.293e-05
1.26672e-05
1.24066e-05
1.21491e-05
1.18962e-05
1.16492e-05
1.14097e-05
1.11792e-05
1.09597e-05
1.07532e-05
1.05619e-05
1.03885e-05
1.02357e-05
1.01072e-05
1.00068e-05
9.93917e-06
9.91013e-06
9.92667e-06
9.99762e-06
1.01344e-05
1.03522e-05
1.06715e-05
1.11217e-05
1.17461e-05
1.26128e-05
1.38351e-05
1.56199e-05
1.83941e-05
2.32134e-05
3.36052e-05
7.11372e-05
6.12816e-05
2.89372e-05
1.99813e-05
1.58283e-05
1.34389e-05
1.19035e-05
1.08542e-05
1.01125e-05
9.58059e-06
9.19995e-06
8.93301e-06
8.75444e-06
8.64634e-06
8.59564e-06
8.59247e-06
8.62915e-06
8.69971e-06
8.79921e-06
8.92361e-06
9.06956e-06
9.23419e-06
9.41504e-06
9.61e-06
9.8172e-06
1.0035e-05
1.02618e-05
1.04965e-05
1.07377e-05
1.09845e-05
1.12357e-05
1.14905e-05
1.1748e-05
1.20074e-05
1.2268e-05
1.25292e-05
1.27902e-05
1.30504e-05
1.33093e-05
1.35663e-05
1.3821e-05
1.40728e-05
1.43212e-05
1.45659e-05
1.48063e-05
1.50421e-05
1.5273e-05
1.54984e-05
1.57182e-05
1.59318e-05
1.61391e-05
1.63396e-05
1.65331e-05
1.67194e-05
1.6898e-05
1.70688e-05
1.72314e-05
1.73857e-05
1.75314e-05
1.76683e-05
1.77961e-05
1.79147e-05
1.80239e-05
1.81234e-05
1.82131e-05
1.82928e-05
1.83624e-05
1.84217e-05
1.84707e-05
1.85091e-05
1.85368e-05
1.85539e-05
1.85601e-05
1.85555e-05
1.85399e-05
1.85134e-05
1.84759e-05
1.84274e-05
1.83679e-05
1.82975e-05
1.82163e-05
1.81242e-05
1.80215e-05
1.79081e-05
1.77844e-05
1.76504e-05
1.75063e-05
1.73525e-05
1.7189e-05
1.70163e-05
1.68346e-05
1.66443e-05
1.64457e-05
1.62394e-05
1.60256e-05
1.58051e-05
1.55781e-05
1.53455e-05
1.51077e-05
1.48654e-05
1.46194e-05
1.43704e-05
1.41192e-05
1.38668e-05
1.3614e-05
1.33618e-05
1.31114e-05
1.2864e-05
1.26207e-05
1.23829e-05
1.21522e-05
1.193e-05
1.17183e-05
1.15189e-05
1.13341e-05
1.11662e-05
1.1018e-05
1.08927e-05
1.07939e-05
1.0726e-05
1.0694e-05
1.07042e-05
1.07642e-05
1.08838e-05
1.10755e-05
1.1356e-05
1.17482e-05
1.22846e-05
1.30135e-05
1.40107e-05
1.54026e-05
1.74206e-05
2.05418e-05
2.59466e-05
3.75798e-05
7.95638e-05
6.7251e-05
3.17525e-05
2.19185e-05
1.73529e-05
1.47204e-05
1.30231e-05
1.18572e-05
1.10272e-05
1.04257e-05
9.98867e-06
9.67497e-06
9.45693e-06
9.31504e-06
9.23508e-06
9.20632e-06
9.22046e-06
9.27096e-06
9.35258e-06
9.46097e-06
9.59249e-06
9.7441e-06
9.91316e-06
1.00974e-05
1.02949e-05
1.05038e-05
1.07226e-05
1.09499e-05
1.11844e-05
1.14249e-05
1.16705e-05
1.19201e-05
1.21728e-05
1.24279e-05
1.26845e-05
1.29419e-05
1.31995e-05
1.34566e-05
1.37126e-05
1.3967e-05
1.42192e-05
1.44687e-05
1.47151e-05
1.49578e-05
1.51965e-05
1.54307e-05
1.566e-05
1.58841e-05
1.61025e-05
1.6315e-05
1.65212e-05
1.67208e-05
1.69134e-05
1.70988e-05
1.72768e-05
1.74469e-05
1.7609e-05
1.77629e-05
1.79082e-05
1.80448e-05
1.81724e-05
1.82908e-05
1.83999e-05
1.84995e-05
1.85893e-05
1.86692e-05
1.8739e-05
1.87987e-05
1.88481e-05
1.8887e-05
1.89153e-05
1.89331e-05
1.89401e-05
1.89363e-05
1.89218e-05
1.88963e-05
1.886e-05
1.88127e-05
1.87546e-05
1.86857e-05
1.86061e-05
1.85157e-05
1.84148e-05
1.83035e-05
1.81819e-05
1.80501e-05
1.79085e-05
1.77573e-05
1.75966e-05
1.74269e-05
1.72484e-05
1.70615e-05
1.68666e-05
1.66642e-05
1.64547e-05
1.62387e-05
1.60167e-05
1.57893e-05
1.55572e-05
1.5321e-05
1.50816e-05
1.48397e-05
1.45961e-05
1.43519e-05
1.4108e-05
1.38655e-05
1.36255e-05
1.33892e-05
1.3158e-05
1.29333e-05
1.27167e-05
1.25099e-05
1.23148e-05
1.21334e-05
1.19681e-05
1.18214e-05
1.16964e-05
1.15964e-05
1.15253e-05
1.14877e-05
1.14893e-05
1.15367e-05
1.16384e-05
1.18049e-05
1.205e-05
1.23919e-05
1.28559e-05
1.34778e-05
1.43109e-05
1.54389e-05
1.70018e-05
1.92555e-05
2.27285e-05
2.87279e-05
4.16234e-05
8.81358e-05
7.31422e-05
3.45313e-05
2.38313e-05
1.88593e-05
1.5988e-05
1.41321e-05
1.28527e-05
1.1937e-05
1.12685e-05
1.07776e-05
1.04196e-05
1.01646e-05
9.99142e-06
9.88465e-06
9.83274e-06
9.82677e-06
9.85965e-06
9.9258e-06
1.00205e-05
1.014e-05
1.02809e-05
1.04405e-05
1.06163e-05
1.08063e-05
1.10086e-05
1.12215e-05
1.14435e-05
1.16734e-05
1.19098e-05
1.21518e-05
1.23982e-05
1.26482e-05
1.29008e-05
1.31553e-05
1.34109e-05
1.36669e-05
1.39226e-05
1.41775e-05
1.44309e-05
1.46823e-05
1.49312e-05
1.5177e-05
1.54193e-05
1.56576e-05
1.58916e-05
1.61208e-05
1.63448e-05
1.65632e-05
1.67757e-05
1.6982e-05
1.71817e-05
1.73745e-05
1.75602e-05
1.77383e-05
1.79088e-05
1.80712e-05
1.82253e-05
1.8371e-05
1.8508e-05
1.8636e-05
1.87548e-05
1.88644e-05
1.89643e-05
1.90546e-05
1.91351e-05
1.92055e-05
1.92657e-05
1.93156e-05
1.93552e-05
1.93842e-05
1.94026e-05
1.94103e-05
1.94073e-05
1.93936e-05
1.9369e-05
1.93335e-05
1.92872e-05
1.92301e-05
1.91622e-05
1.90836e-05
1.89944e-05
1.88948e-05
1.87847e-05
1.86645e-05
1.85343e-05
1.83943e-05
1.82448e-05
1.8086e-05
1.79183e-05
1.77419e-05
1.75574e-05
1.73651e-05
1.71655e-05
1.69591e-05
1.67463e-05
1.65279e-05
1.63044e-05
1.60766e-05
1.58451e-05
1.56108e-05
1.53745e-05
1.5137e-05
1.48995e-05
1.46629e-05
1.44283e-05
1.4197e-05
1.39702e-05
1.37494e-05
1.35361e-05
1.33318e-05
1.31386e-05
1.29582e-05
1.2793e-05
1.26454e-05
1.25182e-05
1.24144e-05
1.23379e-05
1.22927e-05
1.22838e-05
1.23173e-05
1.24003e-05
1.25421e-05
1.27541e-05
1.30513e-05
1.34536e-05
1.39885e-05
1.46953e-05
1.56325e-05
1.68917e-05
1.86266e-05
2.11182e-05
2.49469e-05
3.15485e-05
4.57233e-05
9.68268e-05
7.89248e-05
3.72592e-05
2.57097e-05
2.03395e-05
1.72347e-05
1.52242e-05
1.38346e-05
1.28362e-05
1.21034e-05
1.15612e-05
1.11614e-05
1.08718e-05
1.06697e-05
1.05384e-05
1.04657e-05
1.04419e-05
1.04594e-05
1.05123e-05
1.05955e-05
1.07051e-05
1.08375e-05
1.09896e-05
1.11591e-05
1.13437e-05
1.15413e-05
1.17503e-05
1.1969e-05
1.21961e-05
1.24304e-05
1.26705e-05
1.29156e-05
1.31645e-05
1.34164e-05
1.36705e-05
1.39259e-05
1.41819e-05
1.44379e-05
1.46931e-05
1.4947e-05
1.51991e-05
1.54487e-05
1.56953e-05
1.59385e-05
1.61778e-05
1.64128e-05
1.6643e-05
1.68681e-05
1.70876e-05
1.73012e-05
1.75086e-05
1.77094e-05
1.79033e-05
1.809e-05
1.82692e-05
1.84407e-05
1.86041e-05
1.87593e-05
1.89059e-05
1.90438e-05
1.91728e-05
1.92925e-05
1.94029e-05
1.95038e-05
1.95949e-05
1.96761e-05
1.97473e-05
1.98083e-05
1.98589e-05
1.98992e-05
1.99289e-05
1.9948e-05
1.99564e-05
1.9954e-05
1.99409e-05
1.99169e-05
1.98821e-05
1.98364e-05
1.97799e-05
1.97127e-05
1.96348e-05
1.95463e-05
1.94473e-05
1.9338e-05
1.92186e-05
1.90892e-05
1.89501e-05
1.88016e-05
1.86439e-05
1.84773e-05
1.83023e-05
1.81193e-05
1.79286e-05
1.77307e-05
1.75263e-05
1.73158e-05
1.70998e-05
1.68791e-05
1.66544e-05
1.64263e-05
1.61959e-05
1.59638e-05
1.57312e-05
1.54989e-05
1.52682e-05
1.50402e-05
1.48161e-05
1.45973e-05
1.43854e-05
1.41818e-05
1.39885e-05
1.38072e-05
1.364e-05
1.34894e-05
1.3358e-05
1.32486e-05
1.31646e-05
1.311e-05
1.30891e-05
1.31074e-05
1.31713e-05
1.32887e-05
1.34694e-05
1.37257e-05
1.40739e-05
1.45356e-05
1.51408e-05
1.5932e-05
1.69731e-05
1.83637e-05
2.02715e-05
2.30028e-05
2.71904e-05
3.44002e-05
4.98677e-05
0.000105612
8.45711e-05
3.99231e-05
2.75445e-05
2.17862e-05
1.84543e-05
1.62939e-05
1.47976e-05
1.37198e-05
1.29256e-05
1.23346e-05
1.18955e-05
1.15737e-05
1.13449e-05
1.11914e-05
1.11e-05
1.10605e-05
1.10648e-05
1.11064e-05
1.11803e-05
1.12819e-05
1.14077e-05
1.15545e-05
1.17195e-05
1.19005e-05
1.20953e-05
1.23021e-05
1.25193e-05
1.27455e-05
1.29792e-05
1.32192e-05
1.34645e-05
1.3714e-05
1.39668e-05
1.42219e-05
1.44786e-05
1.47361e-05
1.49937e-05
1.52507e-05
1.55065e-05
1.57604e-05
1.6012e-05
1.62607e-05
1.6506e-05
1.67474e-05
1.69844e-05
1.72168e-05
1.74439e-05
1.76655e-05
1.78811e-05
1.80904e-05
1.82932e-05
1.8489e-05
1.86775e-05
1.88585e-05
1.90317e-05
1.91968e-05
1.93535e-05
1.95017e-05
1.9641e-05
1.97714e-05
1.98924e-05
2.00041e-05
2.01061e-05
2.01983e-05
2.02806e-05
2.03528e-05
2.04147e-05
2.04662e-05
2.05072e-05
2.05377e-05
2.05574e-05
2.05664e-05
2.05646e-05
2.05521e-05
2.05285e-05
2.04941e-05
2.04488e-05
2.03926e-05
2.03257e-05
2.02481e-05
2.01599e-05
2.00612e-05
1.99521e-05
1.9833e-05
1.97038e-05
1.95651e-05
1.94168e-05
1.92595e-05
1.90934e-05
1.8919e-05
1.87365e-05
1.85466e-05
1.83497e-05
1.81463e-05
1.79371e-05
1.77227e-05
1.75037e-05
1.7281e-05
1.70554e-05
1.68276e-05
1.65987e-05
1.63697e-05
1.61415e-05
1.59155e-05
1.56927e-05
1.54746e-05
1.52626e-05
1.50582e-05
1.48631e-05
1.46792e-05
1.45085e-05
1.43532e-05
1.42158e-05
1.40991e-05
1.40062e-05
1.39406e-05
1.39066e-05
1.39088e-05
1.3953e-05
1.40461e-05
1.41966e-05
1.4415e-05
1.47146e-05
1.51129e-05
1.56333e-05
1.6308e-05
1.71834e-05
1.83281e-05
1.98504e-05
2.19316e-05
2.49038e-05
2.94525e-05
3.72749e-05
5.40453e-05
0.000114467
9.00561e-05
4.25111e-05
2.93277e-05
2.3193e-05
1.96412e-05
1.7336e-05
1.57374e-05
1.45833e-05
1.37307e-05
1.30937e-05
1.26178e-05
1.22662e-05
1.2013e-05
1.18394e-05
1.17314e-05
1.16782e-05
1.16712e-05
1.17037e-05
1.177e-05
1.18656e-05
1.19867e-05
1.21298e-05
1.22921e-05
1.24713e-05
1.2665e-05
1.28714e-05
1.30887e-05
1.33154e-05
1.35502e-05
1.37916e-05
1.40387e-05
1.42902e-05
1.45452e-05
1.48028e-05
1.50621e-05
1.53224e-05
1.55829e-05
1.58428e-05
1.61017e-05
1.63587e-05
1.66134e-05
1.68652e-05
1.71136e-05
1.73582e-05
1.75983e-05
1.78336e-05
1.80637e-05
1.82882e-05
1.85067e-05
1.87188e-05
1.89242e-05
1.91226e-05
1.93137e-05
1.94971e-05
1.96726e-05
1.98399e-05
1.99987e-05
2.01489e-05
2.02902e-05
2.04223e-05
2.05451e-05
2.06583e-05
2.07618e-05
2.08554e-05
2.09389e-05
2.10122e-05
2.10752e-05
2.11277e-05
2.11696e-05
2.12008e-05
2.12212e-05
2.12308e-05
2.12295e-05
2.12173e-05
2.11941e-05
2.11599e-05
2.11147e-05
2.10587e-05
2.09918e-05
2.09141e-05
2.08258e-05
2.07269e-05
2.06177e-05
2.04983e-05
2.0369e-05
2.023e-05
2.00815e-05
1.9924e-05
1.97577e-05
1.95831e-05
1.94006e-05
1.92108e-05
1.9014e-05
1.88109e-05
1.86021e-05
1.83883e-05
1.81702e-05
1.79487e-05
1.77244e-05
1.74984e-05
1.72717e-05
1.70452e-05
1.68201e-05
1.65976e-05
1.6379e-05
1.61657e-05
1.59593e-05
1.57613e-05
1.55735e-05
1.53979e-05
1.52365e-05
1.50919e-05
1.49665e-05
1.48633e-05
1.47856e-05
1.47372e-05
1.47226e-05
1.47466e-05
1.48156e-05
1.49369e-05
1.51194e-05
1.53745e-05
1.57165e-05
1.6164e-05
1.67424e-05
1.74862e-05
1.84451e-05
1.96932e-05
2.13471e-05
2.36021e-05
2.68159e-05
3.17273e-05
4.01653e-05
5.82453e-05
0.000123369
9.5358e-05
4.5013e-05
3.1052e-05
2.45542e-05
2.07906e-05
1.83464e-05
1.66497e-05
1.54231e-05
1.45151e-05
1.3835e-05
1.33248e-05
1.29457e-05
1.26703e-05
1.24788e-05
1.23563e-05
1.22913e-05
1.2275e-05
1.23001e-05
1.23608e-05
1.24521e-05
1.25702e-05
1.27113e-05
1.28727e-05
1.30516e-05
1.32458e-05
1.34533e-05
1.36722e-05
1.39011e-05
1.41383e-05
1.43825e-05
1.46327e-05
1.48875e-05
1.51461e-05
1.54074e-05
1.56706e-05
1.59349e-05