/*--------------------------------*- C++ -*----------------------------------*\
  =========                 |
  \\      /  F ield         | OpenFOAM: The Open Source CFD Toolbox
   \\    /   O peration     | Website:  https://openfoam.org
    \\  /    A nd           | Version:  12
     \\/     M anipulation  |
\*---------------------------------------------------------------------------*/
FoamFile
{
    format      ascii;
    class       volScalarField;
    location    "1.3";
    object      p;
}
// * * * * * * * * * * * * * * * * * * * * * * * * * * * * * * * * * * * * * //

dimensions      [0 2 -2 0 0 0 0];

internalField   nonuniform List<scalar> 
400
(
2.40143e-08
-0.0507848
-0.115515
-0.165098
-0.182031
-0.158715
-0.0945227
0.00610287
0.135122
0.28214
0.435408
0.582688
0.712136
0.813198
0.877682
0.901045
0.883923
0.834039
0.769084
0.718248
0.0497879
-0.00239736
-0.0600568
-0.100169
-0.111614
-0.0891736
-0.0324394
0.0549376
0.166274
0.292845
0.42472
0.551533
0.66327
0.751056
0.808066
0.830558
0.81894
0.778547
0.720679
0.668446
0.117791
0.0522892
-0.00991647
-0.0476931
-0.0570622
-0.0360706
0.014797
0.0920847
0.189943
0.300871
0.416365
0.527559
0.625864
0.703619
0.754817
0.77589
0.766347
0.728253
0.665787
0.600196
0.179471
0.0932512
0.0167397
-0.0262705
-0.0372884
-0.0174796
0.0313271
0.105163
0.198213
0.303393
0.412833
0.518367
0.612016
0.686502
0.735802
0.755793
0.74461
0.701201
0.624302
0.537888
0.218704
0.109327
0.0149364
-0.0360267
-0.0493089
-0.0288791
0.0219167
0.0981987
0.193694
0.301208
0.412977
0.520995
0.617356
0.694614
0.746212
0.767042
0.753667
0.70222
0.607249
0.497486
0.224084
0.0907102
-0.022342
-0.0810638
-0.0948786
-0.0704454
-0.0127766
0.0720587
0.176998
0.294398
0.416257
0.534388
0.640604
0.726929
0.785911
0.811142
0.797429
0.738175
0.624286
0.490226
0.185285
0.0273255
-0.103974
-0.168395
-0.179093
-0.14563
-0.0749498
0.0254119
0.147347
0.282535
0.422533
0.558778
0.682586
0.785206
0.857995
0.892924
0.882728
0.81782
0.68538
0.5263
0.0909331
-0.0921795
-0.240335
-0.306561
-0.308431
-0.259027
-0.167671
-0.0436826
0.103585
0.26503
0.43172
0.594675
0.74466
0.872014
0.96667
1.0186
1.01795
0.951471
0.801858
0.617044
-0.0731171
-0.281722
-0.443993
-0.505781
-0.49052
-0.415931
-0.294385
-0.13734
0.0444884
0.241267
0.443714
0.642612
0.828309
0.990269
1.11683
1.19555
1.21324
1.15174
0.987757
0.776732
-0.325659
-0.55928
-0.730645
-0.778308
-0.734063
-0.622015
-0.458498
-0.257461
-0.0309559
0.210731
0.458367
0.702953
0.934857
1.14289
1.3138
1.4323
1.48086
1.43455
1.26139
1.02455
-0.692663
-0.948803
-1.12015
-1.13863
-1.04844
-0.882634
-0.66262
-0.405072
-0.123066
0.173269
0.475513
0.775727
1.06502
1.33222
1.56275
1.73822
1.83551
1.82018
1.64736
1.38723
-1.21131
-1.48296
-1.63771
-1.60332
-1.44278
-1.2016
-0.907353
-0.579301
-0.230731
0.129434
0.494886
0.860055
1.21808
1.55895
1.86762
2.12269
2.29423
2.33461
2.17938
1.90324
-1.9372
-2.20746
-2.31511
-2.19016
-1.92409
-1.57907
-1.18942
-0.77595
-0.350644
0.0807366
0.515991
0.953689
1.3909
1.82071
2.22932
2.59343
2.87563
3.01077
2.90474
2.63016
-2.95882
-3.18833
-3.19163
-2.91567
-2.49361
-2.00813
-1.49903
-0.985891
-0.476122
0.0305292
0.538257
1.05231
1.57638
2.10955
2.64252
3.15303
3.5973
3.88948
3.8917
3.65938
-4.42348
-4.52221
-4.31347
-3.7898
-3.14107
-2.47017
-1.81671
-1.19253
-0.595638
-0.0159555
0.560421
1.14837
1.76143
2.40879
3.09096
3.79321
4.47158
5.01856
5.23975
5.1421
-6.56257
-6.34147
-5.72669
-4.80589
-3.83608
-2.92892
-2.10914
-1.37027
-0.692831
-0.0517018
0.580145
1.2301
1.925
2.68934
3.5416
4.48635
5.49466
6.44804
7.08472
7.31429
-9.73369
-8.81364
-7.44351
-5.90813
-4.506
-3.31685
-2.32354
-1.48243
-0.745847
-0.0682815
0.593004
1.27966
2.03445
2.90254
3.9311
5.16292
6.61249
8.19258
9.59657
10.5372
-14.9793
-12.2429
-9.33687
-6.88574
-4.9681
-3.49903
-2.36836
-1.47189
-0.723787
-0.0556632
0.590014
1.26738
2.03428
2.95888
4.12705
5.64296
7.61619
10.1269
13.0853
15.8605
-26.1286
-17.2919
-10.9969
-7.27966
-4.89386
-3.26353
-2.11509
-1.26584
-0.590622
-0.00412826
0.557842
1.15402
1.84904
2.72778
3.91598
5.5974
8.0474
11.843
18.2214
27.1278
-46.6089
-23.9397
-12.32
-7.18758
-4.42381
-2.74625
-1.67928
-0.950297
-0.39982
0.0654256
0.507693
0.983134
1.55462
2.31402
3.42164
5.15241
7.98919
13.222
24.9564
47.7224
)
;

boundaryField
{
    movingWall
    {
        type            zeroGradient;
    }
    fixedWalls
    {
        type            zeroGradient;
    }
    frontAndBack
    {
        type            empty;
    }
}


// ************************************************************************* //
