/*--------------------------------*- C++ -*----------------------------------*\
  =========                 |
  \\      /  F ield         | OpenFOAM: The Open Source CFD Toolbox
   \\    /   O peration     | Website:  https://openfoam.org
    \\  /    A nd           | Version:  12
     \\/     M anipulation  |
\*---------------------------------------------------------------------------*/
FoamFile
{
    format      ascii;
    class       volScalarField;
    location    "9";
    object      epsilon;
}
// * * * * * * * * * * * * * * * * * * * * * * * * * * * * * * * * * * * * * //

dimensions      [0 2 -3 0 0 0 0];

internalField   nonuniform List<scalar> 
5625
(
9.99201e-13
2.498e-13
2.498e-13
2.498e-13
2.498e-13
2.498e-13
2.498e-13
2.498e-13
2.498e-13
2.498e-13
2.498e-13
2.498e-13
2.498e-13
2.498e-13
2.498e-13
2.498e-13
2.498e-13
2.498e-13
2.498e-13
2.498e-13
2.498e-13
2.498e-13
2.498e-13
2.498e-13
2.498e-13
2.498e-13
2.498e-13
2.498e-13
2.498e-13
2.498e-13
2.498e-13
2.498e-13
2.498e-13
2.498e-13
2.498e-13
2.498e-13
2.498e-13
2.498e-13
2.498e-13
2.498e-13
2.498e-13
2.498e-13
2.498e-13
2.498e-13
2.498e-13
2.498e-13
2.498e-13
2.498e-13
2.498e-13
2.498e-13
2.498e-13
2.498e-13
2.498e-13
2.498e-13
2.498e-13
2.498e-13
2.498e-13
2.498e-13
2.498e-13
2.498e-13
2.498e-13
2.498e-13
2.498e-13
2.498e-13
2.498e-13
2.498e-13
2.498e-13
2.498e-13
2.498e-13
2.498e-13
2.498e-13
2.498e-13
2.498e-13
2.498e-13
9.99201e-13
9.99201e-13
2.10202e-13
9.11539e-14
6.32721e-14
5.55177e-14
5.31467e-14
5.23594e-14
5.2074e-14
5.19605e-14
5.19112e-14
5.1888e-14
5.18763e-14
5.187e-14
5.18665e-14
5.18644e-14
5.18632e-14
5.18625e-14
5.18621e-14
5.18618e-14
5.18617e-14
5.18617e-14
5.18618e-14
5.18619e-14
5.1862e-14
5.18621e-14
5.18622e-14
5.18624e-14
5.18625e-14
5.18627e-14
5.18628e-14
5.1863e-14
5.18631e-14
5.18633e-14
5.18634e-14
5.18635e-14
5.18636e-14
5.18637e-14
5.18637e-14
5.18638e-14
5.18639e-14
5.18639e-14
5.1864e-14
5.1864e-14
5.1864e-14
5.1864e-14
5.1864e-14
5.18639e-14
5.18639e-14
5.18639e-14
5.18638e-14
5.18638e-14
5.18638e-14
5.18637e-14
5.18637e-14
5.18637e-14
5.18638e-14
5.18639e-14
5.18642e-14
5.18646e-14
5.18652e-14
5.18664e-14
5.18684e-14
5.18718e-14
5.1878e-14
5.18896e-14
5.19127e-14
5.19618e-14
5.2075e-14
5.23601e-14
5.31472e-14
5.55179e-14
6.32722e-14
9.11539e-14
2.10202e-13
9.99201e-13
9.99201e-13
2.07698e-13
7.87575e-14
4.23976e-14
2.92243e-14
2.3841e-14
2.14855e-14
2.04023e-14
1.98818e-14
1.96209e-14
1.94847e-14
1.94107e-14
1.9369e-14
1.93449e-14
1.93305e-14
1.93219e-14
1.93167e-14
1.93137e-14
1.9312e-14
1.93113e-14
1.93111e-14
1.93114e-14
1.9312e-14
1.93128e-14
1.93137e-14
1.93147e-14
1.93157e-14
1.93167e-14
1.93177e-14
1.93187e-14
1.93196e-14
1.93205e-14
1.93213e-14
1.9322e-14
1.93226e-14
1.93231e-14
1.93233e-14
1.93234e-14
1.93233e-14
1.93231e-14
1.93227e-14
1.93222e-14
1.93216e-14
1.9321e-14
1.93202e-14
1.93195e-14
1.93187e-14
1.93178e-14
1.9317e-14
1.93161e-14
1.93153e-14
1.93145e-14
1.93139e-14
1.93134e-14
1.93132e-14
1.93134e-14
1.93142e-14
1.93159e-14
1.9319e-14
1.93242e-14
1.93328e-14
1.9347e-14
1.93711e-14
1.94126e-14
1.94864e-14
1.96224e-14
1.9883e-14
2.04032e-14
2.1486e-14
2.38412e-14
2.92242e-14
4.23972e-14
7.87572e-14
2.07697e-13
9.99201e-13
9.99201e-13
2.07478e-13
7.74398e-14
3.93049e-14
2.42863e-14
1.73748e-14
1.39081e-14
1.2076e-14
1.10722e-14
1.05063e-14
1.01791e-14
9.98562e-15
9.86893e-15
9.79741e-15
9.7531e-15
9.72561e-15
9.70875e-15
9.69882e-15
9.6935e-15
9.69134e-15
9.69138e-15
9.69298e-15
9.69564e-15
9.69898e-15
9.70273e-15
9.7067e-15
9.71075e-15
9.71478e-15
9.71871e-15
9.72249e-15
9.72606e-15
9.72937e-15
9.73237e-15
9.73497e-15
9.73709e-15
9.73861e-15
9.73945e-15
9.73956e-15
9.73894e-15
9.73766e-15
9.73582e-15
9.73353e-15
9.73087e-15
9.72791e-15
9.7247e-15
9.72127e-15
9.71765e-15
9.71389e-15
9.71003e-15
9.70613e-15
9.70231e-15
9.6987e-15
9.6955e-15
9.69301e-15
9.6916e-15
9.69176e-15
9.69413e-15
9.69964e-15
9.70973e-15
9.72669e-15
9.75426e-15
9.79859e-15
9.87007e-15
9.98665e-15
1.01799e-14
1.05069e-14
1.10726e-14
1.2076e-14
1.39077e-14
1.73742e-14
2.42854e-14
3.9304e-14
7.7439e-14
2.07478e-13
9.99201e-13
9.99201e-13
2.07451e-13
7.72485e-14
3.8738e-14
2.31852e-14
1.56916e-14
1.16855e-14
9.40367e-15
8.05002e-15
7.22434e-15
6.71034e-15
6.38536e-15
6.17754e-15
6.04374e-15
5.95757e-15
5.90261e-15
5.8685e-15
5.84857e-15
5.83853e-15
5.83557e-15
5.83788e-15
5.84405e-15
5.85283e-15
5.86324e-15
5.87453e-15
5.8862e-15
5.89786e-15
5.90926e-15
5.92021e-15
5.93054e-15
5.94015e-15
5.94891e-15
5.95669e-15
5.96334e-15
5.9687e-15
5.97256e-15
5.97467e-15
5.97489e-15
5.97322e-15
5.96981e-15
5.96489e-15
5.95873e-15
5.95149e-15
5.94332e-15
5.9343e-15
5.92453e-15
5.91409e-15
5.90309e-15
5.89167e-15
5.88e-15
5.86837e-15
5.85715e-15
5.84689e-15
5.83838e-15
5.83264e-15
5.83091e-15
5.83444e-15
5.84502e-15
5.86544e-15
5.9e-15
5.95535e-15
6.04184e-15
6.17589e-15
6.38387e-15
6.70893e-15
7.22293e-15
8.04854e-15
9.40209e-15
1.16839e-14
1.56899e-14
2.31836e-14
3.87366e-14
7.72474e-14
2.0745e-13
9.99201e-13
9.99201e-13
2.07446e-13
7.72108e-14
3.86093e-14
2.28983e-14
1.51966e-14
1.09609e-14
8.45461e-15
6.8994e-15
5.90366e-15
5.25277e-15
4.82166e-15
4.53414e-15
4.34235e-15
4.21549e-15
4.13343e-15
4.0828e-15
4.05441e-15
4.04203e-15
4.0418e-15
4.05185e-15
4.07051e-15
4.09427e-15
4.12084e-15
4.14865e-15
4.17666e-15
4.20411e-15
4.23048e-15
4.25538e-15
4.27849e-15
4.29957e-15
4.31838e-15
4.33468e-15
4.34826e-15
4.35888e-15
4.3663e-15
4.37034e-15
4.37086e-15
4.36788e-15
4.3615e-15
4.35191e-15
4.33936e-15
4.32409e-15
4.30633e-15
4.28628e-15
4.26415e-15
4.24014e-15
4.2145e-15
4.18751e-15
4.15957e-15
4.13122e-15
4.10325e-15
4.0768e-15
4.05357e-15
4.03604e-15
4.02781e-15
4.02931e-15
4.04277e-15
4.07222e-15
4.12392e-15
4.207e-15
4.33482e-15
4.52752e-15
4.81585e-15
5.24769e-15
5.89919e-15
6.89544e-15
8.45108e-15
1.09578e-14
1.51938e-14
2.2896e-14
3.86074e-14
7.72094e-14
2.07445e-13
9.99201e-13
9.99201e-13
2.07444e-13
7.72013e-14
3.85739e-14
2.2812e-14
1.50342e-14
1.07039e-14
8.09372e-15
6.43493e-15
5.34311e-15
4.60824e-15
4.1074e-15
3.76474e-15
3.5316e-15
3.37576e-15
3.27561e-15
3.21725e-15
3.18824e-15
3.17994e-15
3.18645e-15
3.20371e-15
3.22858e-15
3.25847e-15
3.29131e-15
3.32555e-15
3.36e-15
3.3938e-15
3.42626e-15
3.45687e-15
3.4852e-15
3.5109e-15
3.53366e-15
3.55323e-15
3.56935e-15
3.58181e-15
3.59041e-15
3.59503e-15
3.59557e-15
3.59203e-15
3.58447e-15
3.57304e-15
3.55792e-15
3.53932e-15
3.51749e-15
3.49267e-15
3.46513e-15
3.43517e-15
3.40314e-15
3.36944e-15
3.3346e-15
3.29931e-15
3.26447e-15
3.23131e-15
3.20144e-15
3.17696e-15
3.16047e-15
3.15496e-15
3.16456e-15
3.19527e-15
3.25594e-15
3.3581e-15
3.51589e-15
3.751e-15
4.09557e-15
4.5982e-15
5.33468e-15
6.42793e-15
8.08796e-15
1.06991e-14
1.50304e-14
2.28089e-14
3.85715e-14
7.71996e-14
2.07443e-13
9.99201e-13
9.99201e-13
2.07444e-13
7.71985e-14
3.85626e-14
2.27829e-14
1.49764e-14
1.06073e-14
7.95132e-15
6.24358e-15
5.10368e-15
4.32489e-15
3.78669e-15
3.41473e-15
3.16107e-15
2.9929e-15
2.88511e-15
2.82066e-15
2.78738e-15
2.77653e-15
2.78182e-15
2.79864e-15
2.82352e-15
2.8538e-15
2.88741e-15
2.92276e-15
2.95858e-15
2.99391e-15
3.02798e-15
3.06016e-15
3.08996e-15
3.11695e-15
3.1408e-15
3.16121e-15
3.17793e-15
3.19075e-15
3.19952e-15
3.20411e-15
3.20447e-15
3.20058e-15
3.1925e-15
3.18032e-15
3.16421e-15
3.14434e-15
3.12097e-15
3.09436e-15
3.06481e-15
3.03268e-15
2.99841e-15
2.96249e-15
2.92554e-15
2.88835e-15
2.85191e-15
2.81749e-15
2.78672e-15
2.76169e-15
2.74508e-15
2.74036e-15
2.75215e-15
2.78683e-15
2.85317e-15
2.96334e-15
3.13448e-15
3.39184e-15
3.76725e-15
4.30868e-15
5.09045e-15
6.23301e-15
7.94301e-15
1.06008e-14
1.49714e-14
2.27792e-14
3.85598e-14
7.71965e-14
2.07443e-13
9.99201e-13
9.99201e-13
2.07444e-13
7.71976e-14
3.85588e-14
2.27728e-14
1.49557e-14
1.05717e-14
7.89756e-15
6.17015e-15
5.01103e-15
4.21548e-15
3.66474e-15
3.28591e-15
3.02718e-15
2.85282e-15
2.73867e-15
2.66804e-15
2.6291e-15
2.61333e-15
2.61445e-15
2.62778e-15
2.6498e-15
2.67778e-15
2.7096e-15
2.74358e-15
2.77841e-15
2.81303e-15
2.84661e-15
2.87844e-15
2.90798e-15
2.93475e-15
2.95837e-15
2.97854e-15
2.99499e-15
3.00751e-15
3.01597e-15
3.02024e-15
3.02027e-15
3.01605e-15
3.00762e-15
2.99509e-15
2.97858e-15
2.95829e-15
2.93444e-15
2.90734e-15
2.87731e-15
2.84475e-15
2.81015e-15
2.77409e-15
2.73725e-15
2.70051e-15
2.66493e-15
2.63185e-15
2.60294e-15
2.58035e-15
2.56682e-15
2.56592e-15
2.58235e-15
2.62243e-15
2.69478e-15
2.81133e-15
2.98893e-15
3.25192e-15
3.6361e-15
4.19185e-15
4.99204e-15
6.15533e-15
7.8863e-15
1.05633e-14
1.49495e-14
2.27684e-14
3.85557e-14
7.71954e-14
2.07443e-13
9.99201e-13
9.99201e-13
2.07444e-13
7.71974e-14
3.85578e-14
2.27701e-14
1.495e-14
1.05622e-14
7.88406e-15
6.15331e-15
4.99279e-15
4.19914e-15
3.65489e-15
3.28002e-15
3.02131e-15
2.8443e-15
2.72597e-15
2.65041e-15
2.60636e-15
2.58564e-15
2.58218e-15
2.59139e-15
2.60977e-15
2.63459e-15
2.66371e-15
2.6954e-15
2.7283e-15
2.7613e-15
2.7935e-15
2.82417e-15
2.85269e-15
2.87857e-15
2.9014e-15
2.92084e-15
2.93662e-15
2.94854e-15
2.95644e-15
2.96022e-15
2.95981e-15
2.9552e-15
2.94646e-15
2.93365e-15
2.91694e-15
2.8965e-15
2.87259e-15
2.8455e-15
2.81559e-15
2.78331e-15
2.74918e-15
2.71383e-15
2.67801e-15
2.64264e-15
2.60885e-15
2.57802e-15
2.55187e-15
2.53258e-15
2.52288e-15
2.52632e-15
2.54749e-15
2.59254e-15
2.66972e-15
2.79041e-15
2.97068e-15
3.23383e-15
3.61454e-15
4.16621e-15
4.96667e-15
6.13326e-15
7.86919e-15
1.05515e-14
1.49425e-14
2.27649e-14
3.85543e-14
7.7195e-14
2.07443e-13
9.99201e-13
9.99201e-13
2.07444e-13
7.71975e-14
3.85581e-14
2.27707e-14
1.49516e-14
1.0566e-14
7.89189e-15
6.16805e-15
5.0185e-15
4.24138e-15
3.71095e-15
3.34354e-15
3.08769e-15
2.91046e-15
2.78995e-15
2.71111e-15
2.66324e-15
2.63852e-15
2.63114e-15
2.63665e-15
2.65163e-15
2.67338e-15
2.69975e-15
2.72903e-15
2.75981e-15
2.79096e-15
2.82153e-15
2.85076e-15
2.87802e-15
2.90276e-15
2.92457e-15
2.94309e-15
2.95804e-15
2.96921e-15
2.97643e-15
2.97959e-15
2.97864e-15
2.97358e-15
2.96445e-15
2.95134e-15
2.93442e-15
2.91387e-15
2.88995e-15
2.86299e-15
2.83336e-15
2.80154e-15
2.76807e-15
2.73363e-15
2.69901e-15
2.66517e-15
2.63326e-15
2.60471e-15
2.58124e-15
2.56503e-15
2.55878e-15
2.56594e-15
2.59098e-15
2.63977e-15
2.72019e-15
2.84304e-15
3.02354e-15
3.28385e-15
3.65729e-15
4.19571e-15
4.98303e-15
6.14132e-15
7.87249e-15
1.05524e-14
1.49425e-14
2.27646e-14
3.85541e-14
7.71949e-14
2.07443e-13
9.99201e-13
9.99201e-13
2.07444e-13
7.71978e-14
3.8559e-14
2.27733e-14
1.49576e-14
1.05779e-14
7.91338e-15
6.2038e-15
5.07425e-15
4.32162e-15
3.80656e-15
3.44795e-15
3.1964e-15
3.02048e-15
2.89937e-15
2.81874e-15
2.76839e-15
2.74086e-15
2.73057e-15
2.7332e-15
2.74543e-15
2.76462e-15
2.78864e-15
2.81578e-15
2.84463e-15
2.87403e-15
2.90304e-15
2.93085e-15
2.95682e-15
2.9804e-15
3.00115e-15
3.01869e-15
3.03274e-15
3.04308e-15
3.04953e-15
3.05201e-15
3.05043e-15
3.04481e-15
3.03519e-15
3.02169e-15
3.00446e-15
2.9837e-15
2.95969e-15
2.93276e-15
2.90331e-15
2.87184e-15
2.83893e-15
2.80526e-15
2.77166e-15
2.73911e-15
2.70878e-15
2.6821e-15
2.6608e-15
2.64702e-15
2.64342e-15
2.65334e-15
2.6811e-15
2.73234e-15
2.81457e-15
2.93806e-15
3.1173e-15
3.37342e-15
3.73831e-15
4.26211e-15
5.02696e-15
6.16865e-15
7.88831e-15
1.05608e-14
1.49464e-14
2.27661e-14
3.85545e-14
7.7195e-14
2.07443e-13
9.99201e-13
9.99201e-13
2.07444e-13
7.71981e-14
3.85604e-14
2.27773e-14
1.49668e-14
1.05962e-14
7.94602e-15
6.25797e-15
5.15978e-15
4.42887e-15
3.92779e-15
3.57761e-15
3.33071e-15
3.15691e-15
3.03624e-15
2.95496e-15
2.90329e-15
2.87404e-15
2.86181e-15
2.86245e-15
2.87268e-15
2.88995e-15
2.91214e-15
2.93757e-15
2.96483e-15
2.99276e-15
3.0204e-15
3.04696e-15
3.07175e-15
3.09423e-15
3.11395e-15
3.13052e-15
3.14366e-15
3.15313e-15
3.15878e-15
3.16048e-15
3.15819e-15
3.15191e-15
3.14169e-15
3.12766e-15
3.10997e-15
3.08884e-15
3.06456e-15
3.03747e-15
3.008e-15
2.97666e-15
2.94403e-15
2.91082e-15
2.87788e-15
2.84619e-15
2.81694e-15
2.79155e-15
2.77174e-15
2.75961e-15
2.75776e-15
2.76945e-15
2.79886e-15
2.85141e-15
2.93433e-15
3.05747e-15
3.23472e-15
3.48631e-15
3.84292e-15
4.35305e-15
5.09666e-15
6.21212e-15
7.91388e-15
1.05747e-14
1.49531e-14
2.27689e-14
3.85554e-14
7.71951e-14
2.07443e-13
9.99201e-13
9.99201e-13
2.07445e-13
7.71986e-14
3.85622e-14
2.27825e-14
1.49788e-14
1.06199e-14
7.98797e-15
6.32602e-15
5.26212e-15
4.5527e-15
4.06485e-15
3.72271e-15
3.4805e-15
3.30923e-15
3.18967e-15
3.10856e-15
3.05643e-15
3.02633e-15
3.01301e-15
3.01242e-15
3.02136e-15
3.03732e-15
3.05822e-15
3.08239e-15
3.10844e-15
3.13521e-15
3.16174e-15
3.18723e-15
3.21099e-15
3.23248e-15
3.25124e-15
3.26688e-15
3.2791e-15
3.28769e-15
3.29247e-15
3.29334e-15
3.29024e-15
3.28318e-15
3.27223e-15
3.2575e-15
3.23918e-15
3.21749e-15
3.19272e-15
3.16523e-15
3.13547e-15
3.10394e-15
3.07125e-15
3.03813e-15
3.00542e-15
2.97411e-15
2.9454e-15
2.92069e-15
2.90169e-15
2.89047e-15
2.88956e-15
2.90216e-15
2.93232e-15
2.98531e-15
3.06811e-15
3.19025e-15
3.36511e-15
3.61219e-15
3.96106e-15
4.45849e-15
5.182e-15
6.26691e-15
7.94678e-15
1.05928e-14
1.4962e-14
2.27726e-14
3.85566e-14
7.71954e-14
2.07443e-13
9.99201e-13
9.99201e-13
2.07445e-13
7.71992e-14
3.85645e-14
2.2789e-14
1.49939e-14
1.06501e-14
8.04262e-15
6.4186e-15
5.38166e-15
4.68949e-15
4.2126e-15
3.87737e-15
3.63948e-15
3.47082e-15
3.35272e-15
3.2723e-15
3.22034e-15
3.19004e-15
3.17628e-15
3.17509e-15
3.18332e-15
3.19849e-15
3.21858e-15
3.2419e-15
3.26708e-15
3.29298e-15
3.31864e-15
3.34324e-15
3.36613e-15
3.38673e-15
3.40458e-15
3.41932e-15
3.43064e-15
3.43832e-15
3.44218e-15
3.44212e-15
3.43811e-15
3.43015e-15
3.41831e-15
3.40273e-15
3.38358e-15
3.36111e-15
3.33561e-15
3.30746e-15
3.27711e-15
3.24508e-15
3.21198e-15
3.17856e-15
3.14565e-15
3.11425e-15
3.08556e-15
3.06097e-15
3.04217e-15
3.03119e-15
3.03055e-15
3.04335e-15
3.07357e-15
3.12636e-15
3.2085e-15
3.32927e-15
3.50167e-15
3.7446e-15
4.08664e-15
4.573e-15
5.27881e-15
6.33563e-15
7.98774e-15
1.06153e-14
1.4973e-14
2.27773e-14
3.85581e-14
7.71957e-14
2.07443e-13
9.99201e-13
9.99201e-13
2.07445e-13
7.71998e-14
3.85671e-14
2.27965e-14
1.50112e-14
1.06845e-14
8.10432e-15
6.52134e-15
5.50985e-15
4.83332e-15
4.36618e-15
4.03714e-15
3.80324e-15
3.63716e-15
3.52072e-15
3.44132e-15
3.38995e-15
3.35992e-15
3.3462e-15
3.34487e-15
3.35284e-15
3.36764e-15
3.38727e-15
3.41008e-15
3.43468e-15
3.45995e-15
3.48492e-15
3.5088e-15
3.53092e-15
3.5507e-15
3.56771e-15
3.58155e-15
3.59194e-15
3.59866e-15
3.60153e-15
3.60046e-15
3.59541e-15
3.58641e-15
3.57353e-15
3.55691e-15
3.53673e-15
3.51326e-15
3.48679e-15
3.45772e-15
3.42649e-15
3.39364e-15
3.3598e-15
3.32569e-15
3.29219e-15
3.26027e-15
3.23114e-15
3.20617e-15
3.18705e-15
3.17578e-15
3.17485e-15
3.18731e-15
3.21708e-15
3.26919e-15
3.35032e-15
3.46952e-15
3.63949e-15
3.87866e-15
4.21483e-15
4.69201e-15
5.38344e-15
6.4178e-15
8.03575e-15
1.06413e-14
1.49858e-14
2.27826e-14
3.85599e-14
7.71961e-14
2.07443e-13
9.99201e-13
9.99201e-13
2.07445e-13
7.72005e-14
3.85701e-14
2.28053e-14
1.50313e-14
1.07239e-14
8.17321e-15
6.63129e-15
5.64369e-15
4.98125e-15
4.52268e-15
4.19909e-15
3.96878e-15
3.80514e-15
3.69041e-15
3.61222e-15
3.56169e-15
3.53224e-15
3.51888e-15
3.51775e-15
3.52577e-15
3.5405e-15
3.55995e-15
3.58248e-15
3.60671e-15
3.63152e-15
3.65595e-15
3.6792e-15
3.70061e-15
3.71962e-15
3.73578e-15
3.74871e-15
3.75812e-15
3.7638e-15
3.76559e-15
3.76339e-15
3.75718e-15
3.74698e-15
3.73289e-15
3.71504e-15
3.69363e-15
3.66893e-15
3.64125e-15
3.61099e-15
3.5786e-15
3.54464e-15
3.50973e-15
3.47462e-15
3.44016e-15
3.40735e-15
3.37737e-15
3.35162e-15
3.33175e-15
3.31977e-15
3.31811e-15
3.32982e-15
3.35875e-15
3.40988e-15
3.48975e-15
3.60728e-15
3.77491e-15
4.01066e-15
4.34161e-15
4.81065e-15
5.48907e-15
6.50228e-15
8.08602e-15
1.0669e-14
1.49995e-14
2.27884e-14
3.85618e-14
7.71965e-14
2.07443e-13
9.99201e-13
9.99201e-13
2.07445e-13
7.72013e-14
3.85737e-14
2.28158e-14
1.5056e-14
1.07738e-14
8.26456e-15
6.75385e-15
5.78413e-15
5.13232e-15
4.68041e-15
4.3612e-15
4.13393e-15
3.9725e-15
3.85942e-15
3.7825e-15
3.73295e-15
3.70426e-15
3.69147e-15
3.69075e-15
3.69903e-15
3.71388e-15
3.73333e-15
3.75572e-15
3.77971e-15
3.80415e-15
3.82811e-15
3.85078e-15
3.8715e-15
3.88972e-15
3.905e-15
3.91695e-15
3.92531e-15
3.92986e-15
3.93044e-15
3.92697e-15
3.91944e-15
3.90787e-15
3.89238e-15
3.8731e-15
3.85025e-15
3.8241e-15
3.79497e-15
3.76328e-15
3.72948e-15
3.69413e-15
3.65787e-15
3.62144e-15
3.58571e-15
3.55168e-15
3.52054e-15
3.49366e-15
3.4727e-15
3.45966e-15
3.45696e-15
3.46761e-15
3.49543e-15
3.54536e-15
3.62386e-15
3.73972e-15
3.90519e-15
4.13793e-15
4.46444e-15
4.92654e-15
5.59353e-15
6.58741e-15
8.13843e-15
1.06985e-14
1.50142e-14
2.27946e-14
3.85639e-14
7.71969e-14
2.07443e-13
9.99201e-13
9.99201e-13
2.07445e-13
7.72022e-14
3.85775e-14
2.28273e-14
1.5083e-14
1.08289e-14
8.36625e-15
6.88148e-15
5.92645e-15
5.28337e-15
4.83697e-15
4.52147e-15
4.29686e-15
4.13744e-15
4.02594e-15
3.95029e-15
3.90178e-15
3.87394e-15
3.86183e-15
3.86162e-15
3.87027e-15
3.88535e-15
3.90488e-15
3.92721e-15
3.951e-15
3.97511e-15
3.99859e-15
4.02066e-15
4.04065e-15
4.05803e-15
4.07233e-15
4.08322e-15
4.0904e-15
4.09367e-15
4.09289e-15
4.08799e-15
4.07896e-15
4.06584e-15
4.04874e-15
4.02783e-15
4.00332e-15
3.97549e-15
3.94468e-15
3.91131e-15
3.87585e-15
3.83886e-15
3.80098e-15
3.76298e-15
3.72572e-15
3.6902e-15
3.65761e-15
3.62933e-15
3.60702e-15
3.59265e-15
3.58866e-15
3.59803e-15
3.62456e-15
3.67314e-15
3.7502e-15
3.86443e-15
4.02796e-15
4.25821e-15
4.58129e-15
5.03811e-15
5.69648e-15
6.67574e-15
8.20105e-15
1.07328e-14
1.5031e-14
2.28017e-14
3.85663e-14
7.71975e-14
2.07443e-13
9.99201e-13
9.99201e-13
2.07445e-13
7.7203e-14
3.85814e-14
2.2839e-14
1.51105e-14
1.08846e-14
8.46794e-15
7.00809e-15
6.06688e-15
5.43186e-15
4.99049e-15
4.67836e-15
4.45617e-15
4.29861e-15
4.18859e-15
4.11417e-15
4.06669e-15
4.03971e-15
4.0283e-15
4.02864e-15
4.03769e-15
4.05302e-15
4.07263e-15
4.0949e-15
4.11847e-15
4.1422e-15
4.16515e-15
4.18654e-15
4.20571e-15
4.22212e-15
4.23533e-15
4.24499e-15
4.25083e-15
4.25266e-15
4.25033e-15
4.24381e-15
4.23307e-15
4.21819e-15
4.19927e-15
4.1765e-15
4.1501e-15
4.12037e-15
4.08765e-15
4.05237e-15
4.01501e-15
3.97614e-15
3.93643e-15
3.89661e-15
3.85758e-15
3.82035e-15
3.78609e-15
3.75619e-15
3.73231e-15
3.71643e-15
3.71096e-15
3.71888e-15
3.74398e-15
3.79112e-15
3.86668e-15
3.97932e-15
4.14105e-15
4.36913e-15
4.6894e-15
5.14217e-15
5.79422e-15
6.76299e-15
8.27006e-15
1.07697e-14
1.50489e-14
2.28092e-14
3.85688e-14
7.7198e-14
2.07443e-13
9.99201e-13
9.99201e-13
2.07445e-13
7.72038e-14
3.85854e-14
2.2851e-14
1.51385e-14
1.09404e-14
8.56848e-15
7.1326e-15
6.20446e-15
5.57693e-15
5.14013e-15
4.831e-15
4.61096e-15
4.45504e-15
4.34637e-15
4.27308e-15
4.22656e-15
4.20039e-15
4.18964e-15
4.19049e-15
4.1999e-15
4.21542e-15
4.23507e-15
4.2572e-15
4.28045e-15
4.3037e-15
4.32601e-15
4.34658e-15
4.36478e-15
4.38005e-15
4.39199e-15
4.40023e-15
4.40453e-15
4.40469e-15
4.4006e-15
4.39222e-15
4.37955e-15
4.36267e-15
4.3417e-15
4.31683e-15
4.28831e-15
4.25643e-15
4.22157e-15
4.18415e-15
4.14467e-15
4.10371e-15
4.06193e-15
4.02011e-15
3.97911e-15
3.93997e-15
3.90386e-15
3.87217e-15
3.84657e-15
3.82902e-15
3.82195e-15
3.82831e-15
3.85189e-15
3.89752e-15
3.97156e-15
4.0826e-15
4.24259e-15
4.46866e-15
4.78641e-15
5.2357e-15
5.88245e-15
6.84237e-15
8.33364e-15
1.08041e-14
1.50657e-14
2.28163e-14
3.85711e-14
7.71986e-14
2.07443e-13
9.99201e-13
9.99201e-13
2.07445e-13
7.72047e-14
3.85899e-14
2.28642e-14
1.51686e-14
1.0999e-14
8.67031e-15
7.25652e-15
6.33991e-15
5.71871e-15
5.28563e-15
4.97893e-15
4.76062e-15
4.60607e-15
4.49854e-15
4.42622e-15
4.38054e-15
4.35507e-15
4.34488e-15
4.34615e-15
4.35581e-15
4.37142e-15
4.39098e-15
4.41284e-15
4.43564e-15
4.45825e-15
4.47972e-15
4.49929e-15
4.5163e-15
4.53023e-15
4.54066e-15
4.54724e-15
4.54975e-15
4.548e-15
4.54189e-15
4.53139e-15
4.51652e-15
4.49737e-15
4.47409e-15
4.44687e-15
4.41597e-15
4.38171e-15
4.34447e-15
4.30468e-15
4.26287e-15
4.2196e-15
4.17557e-15
4.13155e-15
4.08841e-15
4.0472e-15
4.00909e-15
3.97548e-15
3.94803e-15
3.92872e-15
3.91995e-15
3.9247e-15
3.9467e-15
3.9908e-15
4.06331e-15
4.17279e-15
4.3311e-15
4.55527e-15
4.87068e-15
5.31684e-15
5.95891e-15
6.91117e-15
8.38879e-15
1.08341e-14
1.50804e-14
2.28225e-14
3.85733e-14
7.71991e-14
2.07443e-13
9.99201e-13
9.99201e-13
2.07445e-13
7.72058e-14
3.85953e-14
2.28801e-14
1.52059e-14
1.10733e-14
8.77997e-15
7.38272e-15
6.47423e-15
5.85731e-15
5.42674e-15
5.12169e-15
4.90464e-15
4.75112e-15
4.64449e-15
4.57298e-15
4.52799e-15
4.50308e-15
4.49332e-15
4.49486e-15
4.50463e-15
4.52017e-15
4.53946e-15
4.56086e-15
4.58299e-15
4.60474e-15
4.62516e-15
4.64348e-15
4.65905e-15
4.67137e-15
4.68001e-15
4.68465e-15
4.68506e-15
4.6811e-15
4.67267e-15
4.65975e-15
4.64239e-15
4.62069e-15
4.59481e-15
4.56496e-15
4.53142e-15
4.49453e-15
4.45466e-15
4.41228e-15
4.36791e-15
4.32214e-15
4.27567e-15
4.22928e-15
4.18385e-15
4.14043e-15
4.1002e-15
4.06457e-15
4.03519e-15
4.01404e-15
4.00353e-15
4.00662e-15
4.02704e-15
4.06961e-15
4.14063e-15
4.2486e-15
4.40532e-15
4.62772e-15
4.94101e-15
5.38438e-15
6.02241e-15
6.96817e-15
8.43445e-15
1.08589e-14
1.50926e-14
2.28278e-14
3.85751e-14
7.71996e-14
2.07443e-13
9.99201e-13
9.99201e-13
2.07445e-13
7.7207e-14
3.86013e-14
2.28988e-14
1.52511e-14
1.11677e-14
8.89664e-15
7.50959e-15
6.60599e-15
5.99162e-15
5.56257e-15
5.2586e-15
5.04243e-15
4.8897e-15
4.78378e-15
4.71289e-15
4.66842e-15
4.64392e-15
4.63443e-15
4.63606e-15
4.64575e-15
4.661e-15
4.67981e-15
4.70051e-15
4.72174e-15
4.74236e-15
4.76144e-15
4.77821e-15
4.79203e-15
4.80241e-15
4.80893e-15
4.81129e-15
4.80928e-15
4.80277e-15
4.79168e-15
4.77601e-15
4.75583e-15
4.73126e-15
4.70246e-15
4.66969e-15
4.63322e-15
4.59342e-15
4.55068e-15
4.50547e-15
4.45832e-15
4.40986e-15
4.36078e-15
4.31185e-15
4.264e-15
4.21825e-15
4.1758e-15
4.13807e-15
4.1067e-15
4.08367e-15
4.07139e-15
4.07282e-15
4.09169e-15
4.13278e-15
4.20236e-15
4.30891e-15
4.46417e-15
4.68498e-15
4.99641e-15
5.43741e-15
6.0721e-15
7.01266e-15
8.47002e-15
1.08784e-14
1.51023e-14
2.28319e-14
3.85765e-14
7.71999e-14
2.07443e-13
9.99201e-13
9.99201e-13
2.07445e-13
7.72081e-14
3.86073e-14
2.29175e-14
1.52962e-14
1.12609e-14
9.0103e-15
7.63203e-15
6.73241e-15
6.12003e-15
5.69215e-15
5.38902e-15
5.17355e-15
5.02144e-15
4.91608e-15
4.84566e-15
4.80156e-15
4.7773e-15
4.76787e-15
4.76939e-15
4.77876e-15
4.79349e-15
4.81155e-15
4.83127e-15
4.85129e-15
4.87046e-15
4.88787e-15
4.90275e-15
4.91447e-15
4.92253e-15
4.92655e-15
4.92625e-15
4.92144e-15
4.91199e-15
4.89786e-15
4.87907e-15
4.8557e-15
4.8279e-15
4.79586e-15
4.75983e-15
4.72014e-15
4.67714e-15
4.63126e-15
4.58298e-15
4.53285e-15
4.4815e-15
4.42962e-15
4.37803e-15
4.32762e-15
4.27944e-15
4.2347e-15
4.1948e-15
4.1614e-15
4.13648e-15
4.12244e-15
4.12222e-15
4.13956e-15
4.17922e-15
4.24746e-15
4.3527e-15
4.50665e-15
4.72609e-15
5.036e-15
5.47513e-15
6.1073e-15
7.04406e-15
8.49508e-15
1.08921e-14
1.51091e-14
2.28349e-14
3.85776e-14
7.72003e-14
2.07443e-13
9.99201e-13
9.99201e-13
2.07444e-13
7.7209e-14
3.86128e-14
2.29351e-14
1.53389e-14
1.13492e-14
9.11794e-15
7.74805e-15
6.85225e-15
6.24178e-15
5.81501e-15
5.51267e-15
5.29781e-15
5.14622e-15
5.04128e-15
4.97119e-15
4.92728e-15
4.90304e-15
4.89347e-15
4.89463e-15
4.90343e-15
4.91735e-15
4.93436e-15
4.95277e-15
4.97123e-15
4.98861e-15
5.00396e-15
5.01655e-15
5.02576e-15
5.03108e-15
5.03217e-15
5.02878e-15
5.02073e-15
5.00792e-15
4.99034e-15
4.96801e-15
4.94105e-15
4.90963e-15
4.87398e-15
4.83436e-15
4.79111e-15
4.74461e-15
4.69532e-15
4.64372e-15
4.59038e-15
4.53594e-15
4.48112e-15
4.42671e-15
4.37364e-15
4.32295e-15
4.27586e-15
4.23376e-15
4.19831e-15
4.1715e-15
4.15571e-15
4.15389e-15
4.16975e-15
4.20805e-15
4.27503e-15
4.37909e-15
4.53192e-15
4.75025e-15
5.05899e-15
5.49682e-15
6.12738e-15
7.06186e-15
8.50925e-15
1.09e-14
1.51131e-14
2.28368e-14
3.85784e-14
7.72005e-14
2.07443e-13
9.99201e-13
9.99201e-13
2.07444e-13
7.72098e-14
3.86178e-14
2.29514e-14
1.53789e-14
1.1432e-14
9.21914e-15
7.85735e-15
6.96534e-15
6.35682e-15
5.93119e-15
5.62959e-15
5.41528e-15
5.2641e-15
5.15945e-15
5.0895e-15
5.04558e-15
5.02116e-15
5.01119e-15
5.01173e-15
5.01966e-15
5.03245e-15
5.04806e-15
5.06482e-15
5.08133e-15
5.09649e-15
5.10937e-15
5.11922e-15
5.12544e-15
5.12755e-15
5.12525e-15
5.1183e-15
5.10654e-15
5.0899e-15
5.06838e-15
5.04207e-15
5.01109e-15
4.97564e-15
4.93597e-15
4.89239e-15
4.84524e-15
4.79493e-15
4.74193e-15
4.68676e-15
4.62999e-15
4.57227e-15
4.51433e-15
4.45698e-15
4.40115e-15
4.34788e-15
4.29839e-15
4.25407e-15
4.21659e-15
4.1879e-15
4.17041e-15
4.16703e-15
4.18149e-15
4.21851e-15
4.28435e-15
4.38738e-15
4.53929e-15
4.75678e-15
5.06478e-15
5.50192e-15
6.13181e-15
7.06562e-15
8.51219e-15
1.09018e-14
1.51142e-14
2.28374e-14
3.85788e-14
7.72007e-14
2.07443e-13
9.99201e-13
9.99201e-13
2.07444e-13
7.72103e-14
3.86224e-14
2.29666e-14
1.54162e-14
1.15097e-14
9.31427e-15
7.96034e-15
7.0721e-15
6.46552e-15
6.041e-15
5.74008e-15
5.52621e-15
5.37529e-15
5.27075e-15
5.20075e-15
5.15661e-15
5.13176e-15
5.12114e-15
5.12074e-15
5.12747e-15
5.13879e-15
5.15263e-15
5.16732e-15
5.18146e-15
5.19396e-15
5.20388e-15
5.21049e-15
5.21319e-15
5.2116e-15
5.20539e-15
5.19435e-15
5.17836e-15
5.15737e-15
5.13143e-15
5.10064e-15
5.06516e-15
5.02524e-15
4.98113e-15
4.93318e-15
4.88176e-15
4.82731e-15
4.7703e-15
4.71129e-15
4.65086e-15
4.58967e-15
4.52847e-15
4.46807e-15
4.40939e-15
4.3535e-15
4.30158e-15
4.25505e-15
4.21555e-15
4.18504e-15
4.16591e-15
4.16107e-15
4.17421e-15
4.21008e-15
4.27491e-15
4.37709e-15
4.5283e-15
4.74528e-15
5.05296e-15
5.49006e-15
6.1203e-15
7.05506e-15
8.50371e-15
1.08974e-14
1.51124e-14
2.28369e-14
3.85788e-14
7.72009e-14
2.07443e-13
9.99201e-13
9.99201e-13
2.07444e-13
7.72107e-14
3.86264e-14
2.29806e-14
1.54512e-14
1.15828e-14
9.40402e-15
8.05769e-15
7.17312e-15
6.56842e-15
6.1449e-15
5.84453e-15
5.63094e-15
5.4801e-15
5.37545e-15
5.30517e-15
5.26055e-15
5.235e-15
5.22343e-15
5.2218e-15
5.22699e-15
5.23646e-15
5.24813e-15
5.2603e-15
5.27162e-15
5.28095e-15
5.28739e-15
5.29018e-15
5.28886e-15
5.283e-15
5.2723e-15
5.25661e-15
5.23581e-15
5.20992e-15
5.179e-15
5.14321e-15
5.10273e-15
5.05784e-15
5.00883e-15
4.95609e-15
4.90001e-15
4.84107e-15
4.77977e-15
4.71667e-15
4.65236e-15
4.58754e-15
4.52293e-15
4.45937e-15
4.39779e-15
4.33923e-15
4.2849e-15
4.23619e-15
4.19473e-15
4.16248e-15
4.14181e-15
4.13561e-15
4.14757e-15
4.18244e-15
4.24644e-15
4.34798e-15
4.49874e-15
4.71553e-15
5.02336e-15
5.46106e-15
6.09264e-15
7.03001e-15
8.48364e-15
1.08868e-14
1.51075e-14
2.28351e-14
3.85784e-14
7.7201e-14
2.07444e-13
9.99201e-13
9.99201e-13
2.07443e-13
7.72108e-14
3.86299e-14
2.29937e-14
1.54843e-14
1.1652e-14
9.48921e-15
8.1502e-15
7.26911e-15
6.66612e-15
6.24342e-15
5.94339e-15
5.72984e-15
5.57884e-15
5.47386e-15
5.40305e-15
5.35769e-15
5.33116e-15
5.31833e-15
5.31514e-15
5.31842e-15
5.32564e-15
5.33469e-15
5.3439e-15
5.35187e-15
5.35748e-15
5.35982e-15
5.35828e-15
5.35232e-15
5.34158e-15
5.32579e-15
5.30481e-15
5.2786e-15
5.2472e-15
5.21072e-15
5.16935e-15
5.12332e-15
5.07295e-15
5.01859e-15
4.96064e-15
4.89954e-15
4.83577e-15
4.76987e-15
4.70241e-15
4.63401e-15
4.56537e-15
4.49724e-15
4.43045e-15
4.36592e-15
4.30469e-15
4.24798e-15
4.19714e-15
4.15382e-15
4.11994e-15
4.09787e-15
4.09048e-15
4.10144e-15
4.13551e-15
4.1989e-15
4.30004e-15
4.45067e-15
4.66763e-15
4.97605e-15
5.415e-15
6.04888e-15
6.99046e-15
8.45195e-15
1.087e-14
1.50997e-14
2.28322e-14
3.85778e-14
7.72011e-14
2.07444e-13
9.99201e-13
9.99201e-13
2.07443e-13
7.72107e-14
3.86331e-14
2.30061e-14
1.55159e-14
1.17183e-14
9.5708e-15
8.23873e-15
7.36083e-15
6.75924e-15
6.33705e-15
6.03707e-15
5.8233e-15
5.67188e-15
5.56631e-15
5.49472e-15
5.44835e-15
5.42054e-15
5.40614e-15
5.40103e-15
5.40203e-15
5.40656e-15
5.41254e-15
5.41826e-15
5.42231e-15
5.42358e-15
5.42129e-15
5.41477e-15
5.40354e-15
5.38725e-15
5.3657e-15
5.33878e-15
5.3065e-15
5.26894e-15
5.22627e-15
5.17873e-15
5.12661e-15
5.07026e-15
5.01006e-15
4.94646e-15
4.87993e-15
4.81099e-15
4.74019e-15
4.66813e-15
4.59546e-15
4.52287e-15
4.45111e-15
4.38103e-15
4.31354e-15
4.24969e-15
4.19066e-15
4.13781e-15
4.09276e-15
4.05742e-15
4.03413e-15
4.02576e-15
4.03596e-15
4.06946e-15
4.13252e-15
4.23356e-15
4.38437e-15
4.60187e-15
4.91133e-15
5.35211e-15
5.98919e-15
6.93654e-15
8.40875e-15
1.08471e-14
1.50889e-14
2.28281e-14
3.85768e-14
7.72012e-14
2.07444e-13
9.99201e-13
9.99201e-13
2.07442e-13
7.72103e-14
3.8636e-14
2.30182e-14
1.55468e-14
1.17828e-14
9.6499e-15
8.32421e-15
7.44897e-15
6.84831e-15
6.42623e-15
6.12594e-15
5.91165e-15
5.75956e-15
5.65314e-15
5.58051e-15
5.53286e-15
5.50347e-15
5.48717e-15
5.47981e-15
5.4781e-15
5.47949e-15
5.48189e-15
5.48348e-15
5.48303e-15
5.47943e-15
5.47186e-15
5.4597e-15
5.44249e-15
5.41996e-15
5.39192e-15
5.35836e-15
5.3193e-15
5.27492e-15
5.22543e-15
5.17112e-15
5.11232e-15
5.04945e-15
4.98293e-15
4.91324e-15
4.8409e-15
4.76646e-15
4.69049e-15
4.61362e-15
4.5365e-15
4.45985e-15
4.38442e-15
4.31104e-15
4.24064e-15
4.17424e-15
4.11302e-15
4.05831e-15
4.01172e-15
3.97513e-15
3.95088e-15
3.94179e-15
3.9515e-15
3.98475e-15
4.04778e-15
4.14904e-15
4.30036e-15
4.51875e-15
4.82967e-15
5.27285e-15
5.914e-15
6.8686e-15
8.35431e-15
1.08182e-14
1.50754e-14
2.2823e-14
3.85756e-14
7.72014e-14
2.07444e-13
9.99201e-13
9.99201e-13
2.07441e-13
7.72099e-14
3.86391e-14
2.30305e-14
1.55781e-14
1.1847e-14
9.72779e-15
8.40755e-15
7.53417e-15
6.93378e-15
6.51129e-15
6.21032e-15
5.9952e-15
5.84217e-15
5.73468e-15
5.66077e-15
5.61158e-15
5.58032e-15
5.56174e-15
5.55169e-15
5.54687e-15
5.54464e-15
5.54289e-15
5.5399e-15
5.53435e-15
5.5252e-15
5.51165e-15
5.4931e-15
5.46918e-15
5.43964e-15
5.40438e-15
5.36341e-15
5.31687e-15
5.26496e-15
5.20798e-15
5.14626e-15
5.08021e-15
5.01028e-15
4.93696e-15
4.86077e-15
4.78226e-15
4.70202e-15
4.62065e-15
4.5388e-15
4.45712e-15
4.37635e-15
4.29724e-15
4.22062e-15
4.14741e-15
4.0786e-15
4.01537e-15
3.95903e-15
3.91115e-15
3.8736e-15
3.84867e-15
3.83919e-15
3.84875e-15
3.88209e-15
3.94544e-15
4.04729e-15
4.19949e-15
4.41916e-15
4.732e-15
5.17816e-15
5.82428e-15
6.78767e-15
8.28965e-15
1.07841e-14
1.50596e-14
2.28171e-14
3.85743e-14
7.72016e-14
2.07445e-13
9.99201e-13
9.99201e-13
2.0744e-13
7.72095e-14
3.86425e-14