/*--------------------------------*- C++ -*----------------------------------*\
  =========                 |
  \\      /  F ield         | OpenFOAM: The Open Source CFD Toolbox
   \\    /   O peration     | Website:  https://openfoam.org
    \\  /    A nd           | Version:  12
     \\/     M anipulation  |
\*---------------------------------------------------------------------------*/
FoamFile
{
    format      ascii;
    class       volScalarField;
    location    "9";
    object      k;
}
// * * * * * * * * * * * * * * * * * * * * * * * * * * * * * * * * * * * * * //

dimensions      [0 2 -2 0 0 0 0];

internalField   nonuniform List<scalar> 
5625
(
2.22045e-16
2.22045e-16
2.22045e-16
2.22045e-16
2.22045e-16
2.22045e-16
2.22045e-16
2.22045e-16
2.22045e-16
2.22045e-16
2.22045e-16
2.22045e-16
2.22045e-16
2.22045e-16
2.22045e-16
2.22045e-16
2.22045e-16
2.22045e-16
2.22045e-16
2.22045e-16
2.22045e-16
2.22045e-16
2.22045e-16
2.22045e-16
2.22045e-16
2.22045e-16
2.22045e-16
2.22045e-16
2.22045e-16
2.22045e-16
2.22045e-16
2.22045e-16
2.22045e-16
2.22045e-16
2.22045e-16
2.22045e-16
2.22045e-16
2.22045e-16
2.22045e-16
2.22045e-16
2.22045e-16
2.22045e-16
2.22045e-16
2.22045e-16
2.22045e-16
2.22045e-16
2.22045e-16
2.22045e-16
2.22045e-16
2.22045e-16
2.22045e-16
2.22045e-16
2.22045e-16
2.22045e-16
2.22045e-16
2.22045e-16
2.22045e-16
2.22045e-16
2.22045e-16
2.22045e-16
2.22045e-16
2.22045e-16
2.22045e-16
2.22045e-16
2.22045e-16
2.22045e-16
2.22045e-16
2.22045e-16
2.22045e-16
2.22045e-16
2.22045e-16
2.22045e-16
2.22045e-16
2.22045e-16
2.22045e-16
2.22045e-16
2.22045e-16
2.22045e-16
2.22045e-16
2.22045e-16
2.22045e-16
2.22045e-16
2.22045e-16
2.22045e-16
2.22045e-16
2.22045e-16
2.22045e-16
2.22045e-16
2.22045e-16
2.22045e-16
2.22045e-16
2.22045e-16
2.22045e-16
2.22045e-16
2.22045e-16
2.22045e-16
2.22045e-16
2.22045e-16
2.22045e-16
2.22045e-16
2.22045e-16
2.22045e-16
2.22045e-16
2.22045e-16
2.22045e-16
2.22045e-16
2.22045e-16
2.22045e-16
2.22045e-16
2.22045e-16
2.22045e-16
2.22045e-16
2.22045e-16
2.22045e-16
2.22045e-16
2.22045e-16
2.22045e-16
2.22045e-16
2.22045e-16
2.22045e-16
2.22045e-16
2.22045e-16
2.22045e-16
2.22045e-16
2.22045e-16
2.22045e-16
2.22045e-16
2.22045e-16
2.22045e-16
2.22045e-16
2.22045e-16
2.22045e-16
2.22045e-16
2.22045e-16
2.22045e-16
2.22045e-16
2.22045e-16
2.22045e-16
2.22045e-16
2.22045e-16
2.22045e-16
2.22045e-16
2.22045e-16
2.22045e-16
2.22045e-16
2.22045e-16
2.22045e-16
2.22045e-16
2.22045e-16
2.22045e-16
2.22045e-16
2.22045e-16
2.22045e-16
2.22045e-16
2.22045e-16
2.22045e-16
2.22045e-16
2.22045e-16
2.22045e-16
2.22045e-16
2.22045e-16
2.22045e-16
2.22045e-16
2.22045e-16
2.22045e-16
2.22045e-16
2.22045e-16
2.22045e-16
2.22045e-16
2.22045e-16
2.22045e-16
2.22045e-16
2.22045e-16
2.22045e-16
2.22045e-16
2.22045e-16
2.22045e-16
2.22045e-16
2.22045e-16
2.22045e-16
2.22045e-16
2.22045e-16
2.22045e-16
2.22045e-16
2.22045e-16
2.22045e-16
2.22045e-16
2.22045e-16
2.22045e-16
2.22045e-16
2.22045e-16
2.22045e-16
2.22045e-16
2.22045e-16
2.22045e-16
2.22045e-16
2.22045e-16
2.22045e-16
2.22045e-16
2.22045e-16
2.22045e-16
2.22045e-16
2.22045e-16
2.22045e-16
2.22045e-16
2.22045e-16
2.22045e-16
2.22045e-16
2.22045e-16
2.22045e-16
2.22045e-16
2.22045e-16
2.22045e-16
2.22045e-16
2.22045e-16
2.22045e-16
2.22045e-16
2.22045e-16
2.22045e-16
2.22045e-16
2.22045e-16
2.22045e-16
2.22045e-16
2.22045e-16
2.22045e-16
2.22045e-16
2.22045e-16
2.22045e-16
2.22045e-16
2.22045e-16
2.22045e-16
2.22045e-16
2.22045e-16
2.22045e-16
2.22045e-16
2.22045e-16
2.22045e-16
2.22045e-16
2.22045e-16
2.22045e-16
2.22045e-16
2.22045e-16
2.22045e-16
2.22045e-16
2.22045e-16
2.22045e-16
2.22045e-16
2.22045e-16
2.22045e-16
2.22045e-16
2.22045e-16
2.22045e-16
2.22045e-16
2.22045e-16
2.22045e-16
2.22045e-16
2.22045e-16
2.22045e-16
2.22045e-16
2.22045e-16
2.22045e-16
2.22045e-16
2.22045e-16
2.22045e-16
2.22045e-16
2.22045e-16
2.22045e-16
2.22045e-16
2.22045e-16
2.22045e-16
2.22045e-16
2.22045e-16
2.22045e-16
2.22045e-16
2.22045e-16
2.22045e-16
2.22045e-16
2.22045e-16
2.22045e-16
2.22045e-16
2.22045e-16
2.22045e-16
2.22045e-16
2.22045e-16
2.22045e-16
2.22045e-16
2.22045e-16
2.22045e-16
2.22045e-16
2.22045e-16
2.22045e-16
2.22045e-16
2.22045e-16
2.22045e-16
2.22045e-16
2.22045e-16
2.22045e-16
2.22045e-16
2.22045e-16
2.22045e-16
2.22045e-16
2.22045e-16
2.22045e-16
2.22045e-16
2.22045e-16
2.22045e-16
2.22045e-16
2.22045e-16
2.22045e-16
2.22045e-16
2.22045e-16
2.22045e-16
2.22045e-16
2.22045e-16
2.22045e-16
2.22045e-16
2.22045e-16
2.22045e-16
2.22045e-16
2.22045e-16
2.22045e-16
2.22045e-16
2.22045e-16
2.22045e-16
2.22045e-16
2.22045e-16
2.22045e-16
2.22045e-16
2.22045e-16
2.22045e-16
2.22045e-16
2.22045e-16
2.22045e-16
2.22045e-16
2.22045e-16
2.22045e-16
2.22045e-16
2.22045e-16
2.22045e-16
2.22045e-16
2.22045e-16
2.22045e-16
2.22045e-16
2.22045e-16
2.22045e-16
2.22045e-16
2.22045e-16
2.22045e-16
2.22045e-16
2.22045e-16
2.22045e-16
2.22045e-16
2.22045e-16
2.22045e-16
2.22045e-16
2.22045e-16
2.22045e-16
2.22045e-16
2.22045e-16
2.22045e-16
2.22045e-16
2.22045e-16
2.22045e-16
2.22045e-16
2.22045e-16
2.22045e-16
2.22045e-16
2.22045e-16
2.22045e-16
2.22045e-16
2.22045e-16
2.22045e-16
2.22045e-16
2.22045e-16
2.22045e-16
2.22045e-16
2.22045e-16
2.22045e-16
2.22045e-16
2.22045e-16
2.22045e-16
2.22045e-16
2.22045e-16
2.22045e-16
2.22045e-16
2.22045e-16
2.22045e-16
2.22045e-16
2.22045e-16
2.22045e-16
2.22045e-16
2.22045e-16
2.22045e-16
2.22045e-16
2.22045e-16
2.22045e-16
2.27273e-16
2.33277e-16
2.3947e-16
2.45651e-16
2.51683e-16
2.57471e-16
2.62942e-16
2.68037e-16
2.7271e-16
2.76921e-16
2.80636e-16
2.83822e-16
2.86451e-16
2.88496e-16
2.89932e-16
2.90739e-16
2.90903e-16
2.90423e-16
2.89307e-16
2.87574e-16
2.85251e-16
2.82362e-16
2.7894e-16
2.75013e-16
2.70616e-16
2.65787e-16
2.60568e-16
2.55009e-16
2.49174e-16
2.43139e-16
2.3701e-16
2.30935e-16
2.25138e-16
2.22045e-16
2.22045e-16
2.22045e-16
2.22045e-16
2.22045e-16
2.22045e-16
2.22045e-16
2.22045e-16
2.22045e-16
2.22045e-16
2.22045e-16
2.22045e-16
2.22045e-16
2.22045e-16
2.22045e-16
2.22045e-16
2.22045e-16
2.22045e-16
2.22045e-16
2.22045e-16
2.22045e-16
2.22045e-16
2.22045e-16
2.22045e-16
2.22045e-16
2.22045e-16
2.22045e-16
2.22045e-16
2.22045e-16
2.22045e-16
2.22045e-16
2.22045e-16
2.22045e-16
2.22045e-16
2.22045e-16
2.22045e-16
2.22045e-16
2.27395e-16
2.36121e-16
2.45723e-16
2.55961e-16
2.667e-16
2.77797e-16
2.89039e-16
3.00222e-16
3.11169e-16
3.21736e-16
3.31802e-16
3.41269e-16
3.5005e-16
3.58075e-16
3.65278e-16
3.71606e-16
3.77008e-16
3.81443e-16
3.84873e-16
3.87268e-16
3.88606e-16
3.88874e-16
3.88073e-16
3.86211e-16
3.83308e-16
3.79395e-16
3.74506e-16
3.68686e-16
3.6198e-16
3.54444e-16
3.46137e-16
3.37126e-16
3.27488e-16
3.17312e-16
3.06703e-16
2.95787e-16
2.84716e-16
2.73669e-16
2.62854e-16
2.52472e-16
2.42628e-16
2.33471e-16
2.25283e-16
2.22045e-16
2.22045e-16
2.22045e-16
2.22045e-16
2.22045e-16
2.22045e-16
2.22045e-16
2.22045e-16
2.22045e-16
2.22045e-16
2.22045e-16
2.22045e-16
2.22045e-16
2.22045e-16
2.22045e-16
2.22045e-16
2.22045e-16
2.22045e-16
2.22045e-16
2.22045e-16
2.22045e-16
2.22045e-16
2.22045e-16
2.22045e-16
2.22045e-16
2.22045e-16
2.22045e-16
2.22045e-16
2.22045e-16
2.23205e-16
2.34127e-16
2.46968e-16
2.6132e-16
2.76788e-16
2.93027e-16
3.09757e-16
3.26742e-16
3.43769e-16
3.60637e-16
3.77156e-16
3.93155e-16
4.08481e-16
4.23e-16
4.36593e-16
4.49157e-16
4.60598e-16
4.70837e-16
4.79803e-16
4.87434e-16
4.93678e-16
4.98492e-16
5.01843e-16
5.03708e-16
5.04074e-16
5.02943e-16
5.00324e-16
4.96239e-16
4.90721e-16
4.83813e-16
4.75566e-16
4.66039e-16
4.55302e-16
4.43432e-16
4.30514e-16
4.16647e-16
4.01939e-16
3.86512e-16
3.70507e-16
3.54076e-16
3.37394e-16
3.20647e-16
3.04032e-16
2.87754e-16
2.72043e-16
2.57183e-16
2.43508e-16
2.31373e-16
2.22045e-16
2.22045e-16
2.22045e-16
2.22045e-16
2.22045e-16
2.22045e-16
2.22045e-16
2.22045e-16
2.22045e-16
2.22045e-16
2.22045e-16
2.22045e-16
2.22045e-16
2.22045e-16
2.22045e-16
2.22045e-16
2.22045e-16
2.22045e-16
2.22045e-16
2.22045e-16
2.22045e-16
2.22045e-16
2.22045e-16
2.22045e-16
2.22045e-16
2.22045e-16
2.29713e-16
2.45418e-16
2.63618e-16
2.83695e-16
3.05151e-16
3.27572e-16
3.506e-16
3.73925e-16
3.97278e-16
4.20414e-16
4.43112e-16
4.65171e-16
4.86406e-16
5.06651e-16
5.25755e-16
5.43582e-16
5.60012e-16
5.74938e-16
5.88264e-16
5.99907e-16
6.09796e-16
6.17871e-16
6.24083e-16
6.28396e-16
6.30786e-16
6.31241e-16
6.29762e-16
6.26359e-16
6.21059e-16
6.13898e-16
6.04925e-16
5.94198e-16
5.81789e-16
5.67778e-16
5.52256e-16
5.35327e-16
5.17104e-16
4.97713e-16
4.77296e-16
4.56004e-16
4.34007e-16
4.11489e-16
3.8865e-16
3.65707e-16
3.429e-16
3.20494e-16
2.98791e-16
2.78141e-16
2.58952e-16
2.41715e-16
2.27055e-16
2.22045e-16
2.22045e-16
2.22045e-16
2.22045e-16
2.22045e-16
2.22045e-16
2.22045e-16
2.22045e-16
2.22045e-16
2.22045e-16
2.22045e-16
2.22045e-16
2.22045e-16
2.22045e-16
2.22045e-16
2.22045e-16
2.22045e-16
2.22045e-16
2.22045e-16
2.22045e-16
2.22045e-16
2.22045e-16
2.22045e-16
2.31736e-16
2.51546e-16
2.74599e-16
3.00104e-16
3.27421e-16
3.56021e-16
3.85455e-16
4.15339e-16
4.45334e-16
4.75137e-16
5.04479e-16
5.33115e-16
5.60822e-16
5.87395e-16
6.1265e-16
6.36418e-16
6.58546e-16
6.78899e-16
6.97354e-16
7.13802e-16
7.2815e-16
7.40317e-16
7.50236e-16
7.57852e-16
7.63128e-16
7.66035e-16
7.66562e-16
7.64712e-16
7.60497e-16
7.53945e-16
7.45099e-16
7.34013e-16
7.20755e-16
7.05405e-16
6.88056e-16
6.68813e-16
6.47792e-16
6.25125e-16
6.00955e-16
5.75439e-16
5.4875e-16
5.21073e-16
4.92614e-16
4.63593e-16
4.34251e-16
4.04854e-16
3.75697e-16
3.47109e-16
3.19469e-16
2.93215e-16
2.68867e-16
2.47054e-16
2.28561e-16
2.22045e-16
2.22045e-16
2.22045e-16
2.22045e-16
2.22045e-16
2.22045e-16
2.22045e-16
2.22045e-16
2.22045e-16
2.22045e-16
2.22045e-16
2.22045e-16
2.22045e-16
2.22045e-16
2.22045e-16
2.22045e-16
2.22045e-16
2.22045e-16
2.22045e-16
2.22045e-16
2.22045e-16
2.28723e-16
2.51549e-16
2.78635e-16
3.0896e-16
3.41712e-16
3.76224e-16
4.11937e-16
4.48371e-16
4.85108e-16
5.21777e-16
5.58048e-16
5.9362e-16
6.28223e-16
6.61609e-16
6.93552e-16
7.23846e-16
7.52304e-16
7.78754e-16
8.03045e-16
8.25039e-16
8.44616e-16
8.61671e-16
8.76113e-16
8.87869e-16
8.9688e-16
9.03103e-16
9.06509e-16
9.07086e-16
9.04839e-16
8.99779e-16
8.91941e-16
8.81374e-16
8.68137e-16
8.52308e-16
8.33976e-16
8.13246e-16
7.90237e-16
7.65081e-16
7.37924e-16
7.08928e-16
6.78269e-16
6.46139e-16
6.12746e-16
5.78315e-16
5.43092e-16
5.07344e-16
4.71365e-16
4.35476e-16
4.00038e-16
3.65459e-16
3.32206e-16
3.00824e-16
2.71967e-16
2.46428e-16
2.25205e-16
2.22045e-16
2.22045e-16
2.22045e-16
2.22045e-16
2.22045e-16
2.22045e-16
2.22045e-16
2.22045e-16
2.22045e-16
2.22045e-16
2.22045e-16
2.22045e-16
2.22045e-16
2.22045e-16
2.22045e-16
2.22045e-16
2.22045e-16
2.22045e-16
2.22045e-16
2.22045e-16
2.45337e-16
2.75378e-16
3.09651e-16
3.47152e-16
3.87057e-16
4.28678e-16
4.71425e-16
5.14787e-16
5.58314e-16
6.01604e-16
6.44293e-16
6.86055e-16
7.26589e-16
7.65623e-16
8.02906e-16
8.38211e-16
8.7133e-16
9.02074e-16
9.30275e-16
9.5578e-16
9.78456e-16
9.98187e-16
1.01488e-15
1.02844e-15
1.03881e-15
1.04595e-15
1.04983e-15
1.05042e-15
1.04774e-15
1.04181e-15
1.03265e-15
1.02034e-15
1.00492e-15
9.86498e-16
9.65164e-16
9.41038e-16
9.14251e-16
8.84951e-16
8.53301e-16
8.19482e-16
7.83688e-16
7.46133e-16
7.07047e-16
6.66679e-16
6.25301e-16
5.83206e-16
5.40714e-16
4.98179e-16
4.5599e-16
4.14584e-16
3.74459e-16
3.36187e-16
3.00444e-16
2.68046e-16
2.40008e-16
2.22045e-16
2.22045e-16
2.22045e-16
2.22045e-16
2.22045e-16
2.22045e-16
2.22045e-16
2.22045e-16
2.22045e-16
2.22045e-16
2.22045e-16
2.22045e-16
2.22045e-16
2.22045e-16
2.22045e-16
2.22045e-16
2.22045e-16
2.22045e-16
2.22045e-16
2.34138e-16
2.65432e-16
3.0238e-16
3.43638e-16
3.88155e-16
4.35073e-16
4.83671e-16
5.33328e-16
5.83501e-16
6.33705e-16
6.83508e-16
7.32515e-16
7.80369e-16
8.26742e-16
8.71336e-16
9.13876e-16
9.54112e-16
9.91815e-16
1.02678e-15
1.05882e-15
1.08776e-15
1.11347e-15
1.13582e-15
1.15469e-15
1.17001e-15
1.18169e-15
1.18969e-15
1.19399e-15
1.19456e-15
1.19142e-15
1.18457e-15
1.17408e-15
1.15999e-15
1.14238e-15
1.12136e-15
1.09702e-15
1.06951e-15
1.03896e-15
1.00554e-15
9.69436e-16
9.30839e-16
8.89967e-16
8.47054e-16
8.02354e-16
7.56141e-16
7.0871e-16
6.60383e-16
6.11509e-16
5.62468e-16
5.1368e-16
4.65613e-16
4.18793e-16
3.73822e-16
3.31402e-16
2.92374e-16
2.57772e-16
2.28915e-16
2.22045e-16
2.22045e-16
2.22045e-16
2.22045e-16
2.22045e-16
2.22045e-16
2.22045e-16
2.22045e-16
2.22045e-16
2.22045e-16
2.22045e-16
2.22045e-16
2.22045e-16
2.22045e-16
2.22045e-16
2.22045e-16
2.22045e-16
2.22045e-16
2.49613e-16
2.87798e-16
3.316e-16
3.79718e-16
4.31102e-16
4.84876e-16
5.40293e-16
5.96702e-16
6.53528e-16
7.10256e-16
7.66421e-16
8.21597e-16
8.754e-16
9.27472e-16
9.77491e-16
1.02516e-15
1.0702e-15
1.11236e-15
1.15143e-15
1.18719e-15
1.21947e-15
1.24811e-15
1.27297e-15
1.29394e-15
1.31092e-15
1.32384e-15
1.33264e-15
1.3373e-15
1.33779e-15
1.33413e-15
1.32635e-15
1.31448e-15
1.29861e-15
1.27881e-15
1.25519e-15
1.22787e-15
1.197e-15
1.16274e-15
1.12526e-15
1.08477e-15
1.04148e-15
9.9563e-16
9.47472e-16
8.97284e-16
8.45364e-16
7.92033e-16
7.3764e-16
6.82559e-16
6.27201e-16
5.72014e-16
5.17493e-16
4.64193e-16
4.12742e-16
3.63866e-16
3.18423e-16
2.77458e-16
2.42289e-16
2.22045e-16
2.22045e-16
2.22045e-16
2.22045e-16
2.22045e-16
2.22045e-16
2.22045e-16
2.22045e-16
2.22045e-16
2.22045e-16
2.22045e-16
2.22045e-16
2.22045e-16
2.22045e-16
2.22045e-16
2.22045e-16
2.22045e-16
2.30207e-16
2.67423e-16
3.12096e-16
3.62484e-16
4.17246e-16
4.75299e-16
5.35738e-16
5.97784e-16
6.60755e-16
7.24044e-16
7.87106e-16
8.49442e-16
9.10602e-16
9.70167e-16
1.02776e-15
1.08302e-15
1.13564e-15
1.18531e-15
1.23178e-15
1.27479e-15
1.31413e-15
1.3496e-15
1.38103e-15
1.40828e-15
1.43123e-15
1.44976e-15
1.46382e-15
1.47332e-15
1.47826e-15
1.47861e-15
1.47439e-15
1.46562e-15
1.45237e-15
1.43469e-15
1.4127e-15
1.38651e-15
1.35625e-15
1.32207e-15
1.28416e-15
1.24271e-15
1.19794e-15
1.15007e-15
1.09937e-15
1.04612e-15
9.90613e-16
9.33168e-16
8.74134e-16
8.13883e-16
7.52818e-16
6.91375e-16
6.3003e-16
5.69305e-16
5.0978e-16
4.5211e-16
3.97042e-16
3.4545e-16
2.98382e-16
2.57132e-16
2.23364e-16
2.22045e-16
2.22045e-16
2.22045e-16
2.22045e-16
2.22045e-16
2.22045e-16
2.22045e-16
2.22045e-16
2.22045e-16
2.22045e-16
2.22045e-16
2.22045e-16
2.22045e-16
2.22045e-16
2.22045e-16
2.22045e-16
2.43058e-16
2.86561e-16
3.37592e-16
3.94396e-16
4.55614e-16
5.20136e-16
5.87032e-16
6.55494e-16
7.2481e-16
7.94343e-16
8.63516e-16
9.31804e-16
9.98724e-16
1.06383e-15
1.12672e-15
1.18702e-15
1.24437e-15
1.29848e-15
1.34904e-15
1.3958e-15
1.43852e-15
1.47701e-15
1.51107e-15
1.54055e-15
1.56532e-15
1.58528e-15
1.60034e-15
1.61045e-15
1.61557e-15
1.61569e-15
1.61085e-15
1.60105e-15
1.58637e-15
1.5669e-15
1.54272e-15
1.51398e-15
1.48082e-15
1.44341e-15
1.40194e-15
1.35663e-15
1.3077e-15
1.25541e-15
1.20003e-15
1.14187e-15
1.08124e-15
1.01849e-15
9.53986e-16
8.88126e-16
8.21338e-16
7.54081e-16
6.86859e-16
6.20218e-16
5.54764e-16
4.91176e-16
4.30223e-16
3.72803e-16
3.19989e-16
2.73108e-16
2.33881e-16
2.22045e-16
2.22045e-16
2.22045e-16
2.22045e-16
2.22045e-16
2.22045e-16
2.22045e-16
2.22045e-16
2.22045e-16
2.22045e-16
2.22045e-16
2.22045e-16
2.22045e-16
2.22045e-16
2.22045e-16
2.22045e-16
2.56796e-16
3.06566e-16
3.63826e-16
4.26867e-16
4.94332e-16
5.65103e-16
6.38226e-16
7.12868e-16
7.88288e-16
8.63819e-16
9.38856e-16
1.01284e-15
1.08527e-15
1.15567e-15
1.22361e-15
1.28869e-15
1.35054e-15
1.40883e-15
1.46325e-15
1.51353e-15
1.55942e-15
1.6007e-15
1.63719e-15
1.66871e-15
1.69513e-15
1.71635e-15
1.73227e-15
1.74285e-15
1.74805e-15
1.74786e-15
1.74231e-15
1.73143e-15
1.7153e-15
1.694e-15
1.66766e-15
1.63641e-15
1.60041e-15
1.55984e-15
1.51492e-15
1.46587e-15
1.41293e-15
1.35639e-15
1.29653e-15
1.23367e-15
1.16816e-15
1.10035e-15
1.03065e-15
9.59465e-16
8.8725e-16
8.1449e-16
7.41709e-16
6.69477e-16
5.98423e-16
5.29247e-16
4.62738e-16
3.9981e-16
3.4155e-16
2.89292e-16
2.44761e-16
2.22045e-16
2.22045e-16
2.22045e-16
2.22045e-16
2.22045e-16
2.22045e-16
2.22045e-16
2.22045e-16
2.22045e-16
2.22045e-16
2.22045e-16
2.22045e-16
2.22045e-16
2.22045e-16
2.22045e-16
2.2605e-16
2.7181e-16
3.27409e-16
3.90568e-16
4.59561e-16
5.33013e-16
6.09778e-16
6.88872e-16
7.69434e-16
8.50693e-16
9.31953e-16
1.01258e-15
1.09199e-15
1.16965e-15
1.24505e-15
1.31776e-15
1.38734e-15
1.45341e-15
1.51561e-15
1.57363e-15
1.62717e-15
1.67597e-15
1.71981e-15
1.75849e-15
1.79183e-15
1.81971e-15
1.84199e-15
1.85861e-15
1.8695e-15
1.87464e-15
1.87402e-15
1.86768e-15
1.85566e-15
1.83803e-15
1.8149e-15
1.7864e-15
1.75268e-15
1.7139e-15
1.67028e-15
1.62202e-15
1.56937e-15
1.5126e-15
1.45199e-15
1.38787e-15
1.32056e-15
1.25043e-15
1.17785e-15
1.10325e-15
1.02706e-15
9.49751e-16
8.71832e-16
7.93847e-16
7.16388e-16
6.40103e-16
5.6571e-16
4.94016e-16
4.25946e-16
3.62588e-16
3.05268e-16
2.5567e-16
2.22045e-16
2.22045e-16
2.22045e-16
2.22045e-16
2.22045e-16
2.22045e-16
2.22045e-16
2.22045e-16
2.22045e-16
2.22045e-16
2.22045e-16
2.22045e-16
2.22045e-16
2.22045e-16
2.22045e-16
2.36392e-16
2.8752e-16
3.48636e-16
4.17419e-16
4.92106e-16
5.71286e-16
6.53782e-16
7.3858e-16
8.24786e-16
9.11602e-16
9.98301e-16
1.08422e-15
1.16875e-15
1.25133e-15
1.33145e-15
1.40861e-15
1.48238e-15
1.55236e-15
1.61817e-15
1.67948e-15
1.73599e-15
1.78743e-15
1.83355e-15
1.87416e-15
1.90908e-15
1.93817e-15
1.96131e-15
1.97843e-15
1.98946e-15
1.99439e-15
1.99322e-15
1.98598e-15
1.97274e-15
1.95357e-15
1.92859e-15
1.89794e-15
1.86178e-15
1.8203e-15
1.7737e-15
1.72224e-15
1.66615e-15
1.60573e-15
1.54128e-15
1.47314e-15
1.40164e-15
1.32717e-15
1.25014e-15
1.17097e-15
1.09012e-15
1.00809e-15
9.25391e-16
8.42593e-16
7.60307e-16
6.79199e-16
6.00006e-16
5.2355e-16
4.50772e-16
3.82769e-16
3.20868e-16
2.66735e-16
2.22581e-16
2.22045e-16
2.22045e-16
2.22045e-16
2.22045e-16
2.22045e-16
2.22045e-16
2.22045e-16
2.22045e-16
2.22045e-16
2.22045e-16
2.22045e-16
2.22045e-16
2.22045e-16
2.22045e-16
2.46936e-16
3.03342e-16
3.69818e-16
4.44024e-16
5.24176e-16
6.08836e-16
6.968e-16
7.87023e-16
8.78586e-16
9.70659e-16
1.06249e-15
1.15339e-15
1.24272e-15
1.3299e-15
1.41438e-15
1.49567e-15
1.5733e-15
1.64686e-15
1.71595e-15
1.78023e-15
1.83938e-15
1.89314e-15
1.94124e-15
1.98349e-15
2.01971e-15
2.04975e-15
2.07351e-15
2.0909e-15
2.10188e-15
2.10643e-15
2.10456e-15
2.09631e-15
2.08175e-15
2.06098e-15
2.03412e-15
2.00133e-15
1.96277e-15
1.91865e-15
1.8692e-15
1.81466e-15
1.7553e-15
1.69144e-15
1.62337e-15
1.55146e-15
1.47606e-15
1.39758e-15
1.31643e-15
1.23305e-15
1.14793e-15
1.06156e-15
9.74498e-16
8.87311e-16
8.00633e-16
7.15145e-16
6.316e-16
5.50839e-16
4.73817e-16
4.01651e-16
3.35685e-16
2.77609e-16
2.2967e-16
2.22045e-16
2.22045e-16
2.22045e-16
2.22045e-16
2.22045e-16
2.22045e-16
2.22045e-16
2.22045e-16
2.22045e-16
2.22045e-16
2.22045e-16
2.22045e-16
2.22045e-16
2.22045e-16
2.5749e-16
3.19072e-16
3.90745e-16
4.70169e-16
5.55549e-16
6.4543e-16
7.38584e-16
8.33943e-16
9.30559e-16
1.02758e-15
1.12422e-15
1.21976e-15
1.31355e-15
1.40498e-15
1.49348e-15
1.57854e-15
1.65967e-15
1.73644e-15
1.80845e-15
1.87534e-15
1.93679e-15
1.99252e-15
2.04227e-15
2.08584e-15
2.12305e-15
2.15376e-15
2.17787e-15
2.19529e-15
2.20599e-15
2.20996e-15
2.20722e-15
2.19783e-15
2.18185e-15
2.15941e-15
2.13063e-15
2.09569e-15
2.05477e-15
2.00809e-15
1.95588e-15
1.89841e-15
1.83597e-15
1.76886e-15
1.69743e-15
1.62203e-15
1.54305e-15
1.46088e-15
1.37598e-15
1.28878e-15
1.19979e-15
1.10952e-15
1.01853e-15
9.2741e-16
8.36804e-16
7.47409e-16
6.59991e-16
5.75403e-16
4.94616e-16
4.1876e-16
3.49194e-16
2.87621e-16
2.36297e-16
2.22045e-16
2.22045e-16
2.22045e-16
2.22045e-16
2.22045e-16
2.22045e-16
2.22045e-16
2.22045e-16
2.22045e-16
2.22045e-16
2.22045e-16
2.22045e-16
2.22045e-16
2.22045e-16
2.68103e-16
3.34701e-16
4.11351e-16
4.95742e-16
5.86081e-16
6.809e-16
7.7895e-16
8.79139e-16
9.80492e-16
1.08213e-15
1.18324e-15
1.28308e-15
1.38097e-15
1.47628e-15
1.56843e-15
1.65687e-15
1.74111e-15
1.82071e-15
1.89525e-15
1.96437e-15
2.02774e-15
2.08507e-15
2.13611e-15
2.18065e-15
2.21852e-15
2.24958e-15
2.27374e-15
2.29092e-15
2.3011e-15
2.30427e-15
2.30048e-15
2.28978e-15
2.27227e-15
2.24807e-15
2.21733e-15
2.18023e-15
2.13698e-15
2.0878e-15
2.03294e-15
1.97269e-15
1.90735e-15
1.83723e-15
1.76269e-15
1.6841e-15
1.60185e-15
1.51637e-15
1.42809e-15
1.33749e-15
1.24507e-15
1.15135e-15
1.05691e-15
9.62343e-16
8.68308e-16
7.7551e-16
6.84725e-16
5.96818e-16
5.12769e-16
4.33719e-16
3.61033e-16
2.96422e-16
2.42143e-16
2.22045e-16
2.22045e-16
2.22045e-16
2.22045e-16
2.22045e-16
2.22045e-16
2.22045e-16
2.22045e-16
2.22045e-16
2.22045e-16
2.22045e-16
2.22045e-16
2.22045e-16
2.22045e-16
2.79082e-16
3.50332e-16
4.31625e-16
5.2067e-16
6.15663e-16
7.15116e-16
8.17754e-16
9.22456e-16
1.02822e-15
1.13413e-15
1.23936e-15
1.34314e-15
1.44476e-15
1.54356e-15
1.63896e-15
1.73039e-15
1.81734e-15
1.89936e-15
1.97602e-15
2.04695e-15
2.11183e-15
2.17036e-15
2.22229e-15
2.26743e-15
2.30559e-15
2.33666e-15
2.36055e-15
2.37719e-15
2.38657e-15
2.38871e-15
2.38365e-15
2.37147e-15
2.35229e-15
2.32623e-15
2.29347e-15
2.2542e-15
2.20864e-15
2.15703e-15
2.09964e-15
2.03676e-15
1.9687e-15
1.89581e-15
1.81844e-15
1.73696e-15
1.6518e-15
1.56337e-15
1.47213e-15
1.37857e-15
1.28317e-15
1.18649e-15
1.0891e-15
9.91612e-16
8.94677e-16
7.99014e-16
7.05405e-16
6.1472e-16
5.27947e-16
4.4623e-16
3.70942e-16
3.03796e-16
2.47046e-16
2.22045e-16
2.22045e-16
2.22045e-16
2.22045e-16
2.22045e-16
2.22045e-16
2.22045e-16
2.22045e-16
2.22045e-16
2.22045e-16
2.22045e-16
2.22045e-16
2.22045e-16
2.28303e-16
2.90432e-16
3.65871e-16
4.51449e-16
5.44831e-16
6.44178e-16
7.47964e-16
8.54881e-16
9.63777e-16
1.07362e-15
1.18346e-15
1.29245e-15
1.39979e-15
1.50475e-15
1.60665e-15
1.70489e-15
1.79888e-15
1.88811e-15
1.97211e-15
2.05046e-15
2.12277e-15
2.18872e-15
2.24802e-15
2.30043e-15
2.34574e-15
2.38381e-15
2.41452e-15
2.43778e-15
2.45355e-15
2.46184e-15
2.46267e-15
2.45612e-15
2.44227e-15
2.42126e-15
2.39324e-15
2.35839e-15
2.31692e-15
2.26907e-15
2.21509e-15
2.15528e-15
2.08992e-15
2.01936e-15
1.94393e-15
1.864e-15
1.77998e-15
1.69226e-15
1.60129e-15
1.50752e-15
1.41145e-15
1.31357e-15
1.21445e-15
1.11464e-15
1.01477e-15
9.15495e-16
8.17537e-16
7.21677e-16
6.28791e-16
5.39867e-16
4.56052e-16
3.78719e-16
3.09582e-16
2.50894e-16
2.22045e-16
2.22045e-16
2.22045e-16
2.22045e-16
2.22045e-16
2.22045e-16
2.22045e-16
2.22045e-16
2.22045e-16
2.22045e-16
2.22045e-16
2.22045e-16
2.22045e-16
2.35643e-16
3.01621e-16
3.81019e-16
4.70633e-16
5.68093e-16
6.71521e-16
7.79355e-16
8.90253e-16
1.00303e-15
1.11661e-15
1.23004e-15
1.34242e-15
1.45293e-15
1.56083e-15
1.66542e-15
1.76607e-15
1.86219e-15
1.95325e-15
2.03878e-15
2.11834e-15
2.19157e-15
2.25813e-15
2.31774e-15
2.37017e-15
2.41523e-15
2.45278e-15
2.48271e-15
2.50497e-15
2.51953e-15
2.5264e-15
2.52564e-15
2.51734e-15
2.50161e-15
2.4786e-15
2.44848e-15
2.41146e-15
2.36776e-15
2.31764e-15
2.26136e-15
2.19923e-15
2.13156e-15
2.05869e-15
1.98098e-15
1.8988e-15
1.81256e-15
1.72267e-15
1.62957e-15
1.53373e-15
1.43564e-15
1.3358e-15
1.23475e-15
1.13309e-15
1.03142e-15
9.30396e-16
8.30742e-16
7.33239e-16
6.3876e-16
5.48291e-16
4.6298e-16
3.84197e-16
3.13654e-16
2.53599e-16
2.22045e-16
2.22045e-16
2.22045e-16
2.22045e-16
2.22045e-16
2.22045e-16
2.22045e-16
2.22045e-16
2.22045e-16
2.22045e-16
2.22045e-16
2.22045e-16
2.22045e-16
2.42784e-16
3.12459e-16
3.95632e-16
4.89073e-16
5.90378e-16
6.97634e-16
8.09245e-16
9.2383e-16
1.04017e-15
1.15717e-15
1.27383e-15
1.38922e-15
1.50253e-15
1.61296e-15
1.7198e-15
1.82242e-15
1.9202e-15
2.01262e-15
2.09919e-15
2.17949e-15
2.25314e-15
2.31982e-15
2.37926e-15
2.43123e-15
2.47558e-15
2.51215e-15
2.54089e-15
2.56173e-15
2.57469e-15
2.5798e-15
2.57714e-15
2.56682e-15
2.54898e-15
2.52379e-15
2.49144e-15
2.45215e-15
2.40618e-15
2.35379e-15
2.29527e-15
2.23094e-15
2.16111e-15
2.08615e-15
2.00642e-15
1.9223e-15
1.8342e-15
1.74253e-15
1.64775e-15
1.55031e-15
1.45069e-15
1.34942e-15
1.24703e-15
1.14409e-15
1.04122e-15
9.39069e-16
8.38347e-16
7.39835e-16
6.444e-16
5.53024e-16
4.66849e-16
3.87242e-16
3.15909e-16
2.55093e-16
2.22045e-16
2.22045e-16
2.22045e-16
2.22045e-16
2.22045e-16
2.22045e-16
2.22045e-16
2.22045e-16
2.22045e-16
2.22045e-16
2.22045e-16
2.22045e-16
2.22045e-16
2.49674e-16
3.22894e-16
4.09665e-16
5.06735e-16
6.11665e-16
7.22507e-16
8.37628e-16
9.55614e-16
1.07521e-15
1.19529e-15
1.31482e-15
1.43286e-15
1.54855e-15
1.66109e-15
1.76975e-15
1.87387e-15
1.97285e-15
2.06613e-15
2.15325e-15
2.23377e-15
2.30733e-15
2.37361e-15
2.43237e-15
2.48338e-15
2.52651e-15
2.56164e-15
2.58871e-15
2.60772e-15
2.61867e-15
2.62165e-15
2.61676e-15
2.60413e-15
2.58393e-15
2.55635e-15
2.52162e-15
2.47997e-15
2.43168e-15
2.37703e-15
2.31633e-15
2.24991e-15
2.17811e-15
2.10128e-15
2.0198e-15
1.93406e-15
1.84446e-15
1.75143e-15
1.65541e-15
1.55686e-15
1.45626e-15
1.35411e-15
1.25096e-15
1.14735e-15
1.04391e-15
9.41266e-16
8.40129e-16
7.41267e-16
6.45537e-16
5.53915e-16
4.67533e-16
3.87751e-16
3.16269e-16
2.55323e-16
2.22045e-16
2.22045e-16
2.22045e-16
2.22045e-16
2.22045e-16
2.22045e-16
2.22045e-16
2.22045e-16
2.22045e-16
2.22045e-16
2.22045e-16
2.22045e-16
2.22045e-16
2.56306e-16
3.32921e-16
4.23123e-16
5.2363e-16
6.31971e-16
7.46162e-16
8.64534e-16
9.85637e-16
1.10818e-15
1.23101e-15
1.35306e-15
1.47337e-15
1.59104e-15
1.70525e-15
1.81528e-15
1.92043e-15
2.0201e-15
2.11375e-15
2.20089e-15
2.2811e-15
2.35402e-15
2.41937e-15
2.47689e-15
2.52642e-15
2.56781e-15
2.60098e-15
2.62592e-15
2.64263e-15
2.65114e-15
2.65161e-15
2.64414e-15
2.6289e-15
2.60607e-15
2.5759e-15
2.53862e-15
2.49451e-15
2.44385e-15
2.38695e-15
2.32414e-15
2.25575e-15
2.18214e-15
2.10368e-15
2.02074e-15
1.93371e-15
1.843e-15
1.74904e-15
1.65226e-15
1.55311e-15
1.45206e-15
1.34962e-15
1.24631e-15
1.14267e-15
1.0393e-15
9.36825e-16
8.35944e-16
7.37409e-16
6.42065e-16
5.50875e-16
4.64959e-16
3.85668e-16
3.14692e-16
2.54261e-16
2.22045e-16
2.22045e-16
2.22045e-16
2.22045e-16
2.22045e-16
2.22045e-16
2.22045e-16
2.22045e-16
2.22045e-16
2.22045e-16
2.22045e-16
2.22045e-16
2.22045e-16
2.62695e-16
3.42564e-16
4.36033e-16
5.39792e-16
6.51338e-16
7.68647e-16
8.90015e-16
1.01396e-15
1.13915e-15
1.26439e-15
1.3886e-15
1.51078e-15
1.63002e-15
1.74548e-15
1.8564e-15
1.9621e-15
2.06196e-15
2.15544e-15
2.24205e-15
2.3214e-15
2.39313e-15
2.45697e-15
2.51271e-15
2.56018e-15
2.59929e-15
2.62999e-15
2.65228e-15
2.6662e-15
2.67184e-15
2.66939e-15
2.65897e-15
2.64079e-15
2.61509e-15
2.58211e-15
2.54213e-15
2.49545e-15
2.44238e-15
2.38324e-15
2.31839e-15
2.24816e-15
2.17293e-15
2.09307e-15
2.00896e-15
1.921e-15
1.82958e-15
1.73513e-15
1.63807e-15
1.53885e-15
1.43793e-15
1.33578e-15
1.23293e-15
1.12989e-15
1.02726e-15
9.25635e-16
8.25696e-16
7.28179e-16
6.33914e-16
5.43846e-16
4.59082e-16
3.80959e-16
3.11155e-16
2.51891e-16
2.22045e-16
2.22045e-16
2.22045e-16
2.22045e-16
2.22045e-16
2.22045e-16
2.22045e-16
2.22045e-16
2.22045e-16
2.22045e-16
2.22045e-16
2.22045e-16
2.22045e-16
2.68866e-16
3.51856e-16
4.48438e-16
5.55274e-16
6.69823e-16
7.90025e-16
9.1414e-16
1.04064e-15
1.16817e-15
1.29551e-15
1.42152e-15
1.54519e-15
1.66557e-15
1.78183e-15
1.89317e-15
1.99892e-15
2.09844e-15
2.1912e-15
2.27673e-15
2.35463e-15
2.42459e-15
2.48634e-15
2.5397e-15
2.58454e-15
2.6208e-15
2.64848e-15
2.6676e-15
2.67823e-15
2.68057e-15
2.67478e-15
2.66105e-15
2.63962e-15
2.61076e-15
2.57475e-15
2.53191e-15
2.48256e-15
2.42703e-15
2.36568e-15
2.29886e-15
2.22694e-15
2.15029e-15
2.06929e-15
1.98433e-15
1.89579e-15
1.80408e-15
1.7096e-15
1.61277e-15
1.51402e-15
1.41379e-15
1.31255e-15
1.21079e-15
1.10902e-15
1.00779e-15
9.07701e-16
8.09398e-16
7.13598e-16
6.2111e-16
5.32859e-16
4.49934e-16
3.73653e-16
3.05682e-16
2.48233e-16
2.22045e-16
2.22045e-16
2.22045e-16
2.22045e-16
2.22045e-16
2.22045e-16
2.22045e-16
2.22045e-16
2.22045e-16
2.22045e-16
2.22045e-16
2.22045e-16
2.22045e-16
2.7485e-16
3.60842e-16
4.60393e-16
5.70134e-16
6.8749e-16
8.10367e-16
9.36982e-16
1.06578e-15
1.19535e-15
1.32444e-15
1.45189e-15
1.57666e-15
1.69777e-15
1.81436e-15
1.92565e-15
2.03092e-15
2.12957e-15
2.22105e-15
2.30492e-15
2.38078e-15
2.44836e-15
2.50741e-15
2.55779e-15
2.59941e-15
2.63224e-15
2.65633e-15
2.67174e-15
2.67859e-15
2.67716e-15
2.66761e-15
2.65019e-15
2.62518e-15
2.5929e-15
2.55366e-15
2.50781e-15
2.45569e-15
2.39769e-15
2.33415e-15
2.26547e-15
2.19201e-15
2.11416e-15
2.0323e-15
1.94681e-15
1.85809e-15
1.76651e-15
1.67248e-15
1.57639e-15
1.47867e-15
1.37973e-15
1.28001e-15
1.17999e-15
1.08014e-15
9.81004e-16
8.83138e-16
7.87167e-16
6.93783e-16
6.03766e-16
5.1802e-16
4.3761e-16
3.63834e-16
2.98342e-16
2.43336e-16
2.22045e-16
2.22045e-16
2.22045e-16
2.22045e-16
2.22045e-16
2.22045e-16
2.22045e-16
2.22045e-16
2.22045e-16
2.22045e-16
2.22045e-16
2.22045e-16
2.22045e-16
2.80692e-16
3.69576e-16
4.71955e-16
5.84434e-16
7.04407e-16
8.29741e-16
9.58618e-16
1.08943e-15
1.22075e-15
1.35127e-15
1.47981e-15
1.60527e-15
1.72668e-15
1.84315e-15
1.95388e-15
2.05816e-15
2.15538e-15
2.24501e-15
2.32661e-15
2.39983e-15
2.4644e-15
2.52013e-15
2.56691e-15
2.60469e-15
2.6335e-15
2.65344e-15
2.66457e-15
2.66718e-15
2.6615e-15
2.64778e-15
2.6263e-15
2.59741e-15
2.56144e-15
2.51878e-15
2.46978e-15
2.41484e-15
2.35435e-15
2.2887e-15
2.21827e-15
2.14345e-15
2.06464e-15
1.98222e-15
1.89656e-15
1.80805e-15
1.71705e-15
1.62396e-15
1.52916e-15
1.43303e-15
1.33597e-15
1.2384e-15
1.14076e-15
1.04351e-15
9.47138e-16
8.52181e-16
7.59232e-16
6.68951e-16
5.8209e-16
4.99522e-16
4.22285e-16
3.51654e-16
2.89257e-16
2.37289e-16
2.22045e-16
2.22045e-16
2.22045e-16
2.22045e-16
2.22045e-16
2.22045e-16
2.22045e-16
2.22045e-16
2.22045e-16
2.22045e-16
2.22045e-16
2.22045e-16
2.22045e-16
2.86452e-16
3.78121e-16
4.83184e-16
5.98233e-16
7.20632e-16
8.48214e-16
9.79115e-16
1.11169e-15
1.24446e-15
1.37608e-15
1.50534e-15
1.63111e-15
1.75238e-15
1.86826e-15
1.97792e-15
2.08067e-15
2.17589e-15
2.26307e-15
2.3418e-15
2.41174e-15
2.47268e-15
2.52445e-15
2.567e-15
2.60033e-15
2.62453e-15
2.63971e-15
2.64606e-15
2.64393e-15
2.63355e-15
2.61524e-15
2.58936e-15
2.55629e-15
2.51642e-15
2.47016e-15
2.41792e-15
2.36012e-15
2.29717e-15
2.22948e-15
2.15746e-15
2.0815e-15
2.002e-15
1.91934e-15
1.83389e-15
1.74601e-15
1.65607e-15
1.56443e-15
1.47145e-15
1.37749e-15
1.28292e-15
1.18813e-15
1.09352e-15