/*--------------------------------*- C++ -*----------------------------------*\
  =========                 |
  \\      /  F ield         | OpenFOAM: The Open Source CFD Toolbox
   \\    /   O peration     | Website:  https://openfoam.org
    \\  /    A nd           | Version:  12
     \\/     M anipulation  |
\*---------------------------------------------------------------------------*/
FoamFile
{
    format      ascii;
    class       volScalarField;
    location    "9";
    object      nut;
}
// * * * * * * * * * * * * * * * * * * * * * * * * * * * * * * * * * * * * * //

dimensions      [0 2 -1 0 0 0 0];

internalField   nonuniform List<scalar> 
5625
(
4.44089e-21
1.77636e-20
1.77636e-20
1.77636e-20
1.77636e-20
1.77636e-20
1.77636e-20
1.77636e-20
1.77636e-20
1.77636e-20
1.77636e-20
1.77636e-20
1.77636e-20
1.77636e-20
1.77636e-20
1.77636e-20
1.77636e-20
1.77636e-20
1.77636e-20
1.77636e-20
1.77636e-20
1.77636e-20
1.77636e-20
1.77636e-20
1.77636e-20
1.77636e-20
1.77636e-20
1.77636e-20
1.77636e-20
1.77636e-20
1.77636e-20
1.77636e-20
1.77636e-20
1.77636e-20
1.77636e-20
1.77636e-20
1.77636e-20
1.77636e-20
1.77636e-20
1.77636e-20
1.77636e-20
1.77636e-20
1.77636e-20
1.77636e-20
1.77636e-20
1.77636e-20
1.77636e-20
1.77636e-20
1.77636e-20
1.77636e-20
1.77636e-20
1.77636e-20
1.77636e-20
1.77636e-20
1.77636e-20
1.77636e-20
1.77636e-20
1.77636e-20
1.77636e-20
1.77636e-20
1.77636e-20
1.77636e-20
1.77636e-20
1.77636e-20
1.77636e-20
1.77636e-20
1.77636e-20
1.77636e-20
1.77636e-20
1.77636e-20
1.77636e-20
1.77636e-20
1.77636e-20
1.77636e-20
4.44089e-21
4.44089e-21
2.11099e-20
4.86797e-20
7.01311e-20
7.99267e-20
8.34923e-20
8.47478e-20
8.52123e-20
8.53983e-20
8.54794e-20
8.55177e-20
8.55371e-20
8.55474e-20
8.55532e-20
8.55566e-20
8.55586e-20
8.55598e-20
8.55605e-20
8.55608e-20
8.5561e-20
8.5561e-20
8.5561e-20
8.55608e-20
8.55606e-20
8.55604e-20
8.55602e-20
8.55599e-20
8.55597e-20
8.55594e-20
8.55592e-20
8.55589e-20
8.55587e-20
8.55585e-20
8.55583e-20
8.55581e-20
8.55579e-20
8.55578e-20
8.55577e-20
8.55576e-20
8.55575e-20
8.55574e-20
8.55574e-20
8.55573e-20
8.55573e-20
8.55573e-20
8.55573e-20
8.55574e-20
8.55574e-20
8.55575e-20
8.55575e-20
8.55576e-20
8.55577e-20
8.55577e-20
8.55577e-20
8.55577e-20
8.55576e-20
8.55574e-20
8.5557e-20
8.55564e-20
8.55552e-20
8.55533e-20
8.55501e-20
8.55444e-20
8.55342e-20
8.55151e-20
8.54771e-20
8.53963e-20
8.52107e-20
8.47466e-20
8.34915e-20
7.99263e-20
7.01311e-20
4.86797e-20
2.11099e-20
4.44089e-21
4.44089e-21
2.13644e-20
5.63418e-20
1.0466e-19
1.51837e-19
1.86122e-19
2.06527e-19
2.17492e-19
2.23186e-19
2.26154e-19
2.27735e-19
2.28603e-19
2.29095e-19
2.29381e-19
2.29551e-19
2.29653e-19
2.29715e-19
2.29751e-19
2.29771e-19
2.2978e-19
2.29781e-19
2.29778e-19
2.29771e-19
2.29762e-19
2.29751e-19
2.2974e-19
2.29728e-19
2.29715e-19
2.29704e-19
2.29692e-19
2.29681e-19
2.2967e-19
2.29661e-19
2.29652e-19
2.29645e-19
2.2964e-19
2.29636e-19
2.29635e-19
2.29636e-19
2.29639e-19
2.29644e-19
2.2965e-19
2.29657e-19
2.29665e-19
2.29673e-19
2.29682e-19
2.29692e-19
2.29702e-19
2.29712e-19
2.29722e-19
2.29732e-19
2.29741e-19
2.29749e-19
2.29755e-19
2.29757e-19
2.29755e-19
2.29745e-19
2.29725e-19
2.29688e-19
2.29627e-19
2.29525e-19
2.29355e-19
2.2907e-19
2.28581e-19
2.27715e-19
2.26137e-19
2.23173e-19
2.17483e-19
2.06522e-19
1.86121e-19
1.51838e-19
1.04661e-19
5.63421e-20
2.13644e-20
4.44089e-21
4.44089e-21
2.1387e-20
5.73006e-20
1.12895e-19
1.8271e-19
2.55389e-19
3.19048e-19
3.67451e-19
4.00763e-19
4.22352e-19
4.35928e-19
4.44373e-19
4.49627e-19
4.5291e-19
4.54967e-19
4.56254e-19
4.57046e-19
4.57514e-19
4.57765e-19
4.57867e-19
4.57865e-19
4.57789e-19
4.57664e-19
4.57506e-19
4.57329e-19
4.57142e-19
4.56951e-19
4.56762e-19
4.56577e-19
4.564e-19
4.56232e-19
4.56077e-19
4.55936e-19
4.55815e-19
4.55716e-19
4.55644e-19
4.55605e-19
4.556e-19
4.55629e-19
4.55689e-19
4.55775e-19
4.55882e-19
4.56007e-19
4.56146e-19
4.56296e-19
4.56457e-19
4.56627e-19
4.56804e-19
4.56986e-19
4.57169e-19
4.57349e-19
4.57519e-19
4.5767e-19
4.57788e-19
4.57855e-19
4.57847e-19
4.57735e-19
4.57475e-19
4.57e-19
4.56203e-19
4.54913e-19
4.52855e-19
4.49575e-19
4.44327e-19
4.35891e-19
4.22327e-19
4.00752e-19
3.67452e-19
3.19057e-19
2.55399e-19
1.82717e-19
1.12898e-19
5.73011e-20
2.13871e-20
4.44089e-21
4.44089e-21
2.13899e-20
5.74425e-20
1.14548e-19
1.91387e-19
2.82784e-19
3.7973e-19
4.71874e-19
5.51221e-19
6.14221e-19
6.6127e-19
6.94925e-19
7.18303e-19
7.34204e-19
7.44824e-19
7.51759e-19
7.56129e-19
7.58705e-19
7.6001e-19
7.60395e-19
7.60095e-19
7.59292e-19
7.58153e-19
7.56808e-19
7.55352e-19
7.53855e-19
7.52364e-19
7.50913e-19
7.49525e-19
7.48219e-19
7.47009e-19
7.45909e-19
7.44935e-19
7.44103e-19
7.43435e-19
7.42955e-19
7.42693e-19
7.42665e-19
7.42872e-19
7.43297e-19
7.4391e-19
7.44679e-19
7.45585e-19
7.46611e-19
7.47745e-19
7.48978e-19
7.503e-19
7.51698e-19
7.53155e-19
7.5465e-19
7.56146e-19
7.57594e-19
7.58923e-19
7.6003e-19
7.60778e-19
7.61003e-19
7.60543e-19
7.59166e-19
7.56523e-19
7.52092e-19
7.45102e-19
7.34436e-19
7.18495e-19
6.95086e-19
6.61408e-19
6.14341e-19
5.51323e-19
4.71953e-19
3.79784e-19
2.82815e-19
1.914e-19
1.14552e-19
5.74433e-20
2.139e-20
4.44089e-21
4.44089e-21
2.13904e-20
5.74705e-20
1.14929e-19
1.93784e-19
2.91996e-19
4.04832e-19
5.24843e-19
6.43149e-19
7.51625e-19
8.44762e-19
9.20294e-19
9.78651e-19
1.02188e-18
1.05263e-18
1.07353e-18
1.08684e-18
1.09445e-18
1.0978e-18
1.09786e-18
1.09514e-18
1.14206e-18
1.19622e-18
1.25245e-18
1.30909e-18
1.36497e-18
1.41914e-18
1.47086e-18
1.51948e-18
1.56442e-18
1.60521e-18
1.64138e-18
1.67254e-18
1.69835e-18
1.71849e-18
1.73269e-18
1.74074e-18
1.7425e-18
1.73794e-18
1.72713e-18
1.71027e-18
1.6876e-18
1.65944e-18
1.62613e-18
1.58807e-18
1.54567e-18
1.49944e-18
1.4499e-18
1.39765e-18
1.34338e-18
1.28787e-18
1.23211e-18
1.17734e-18
1.12539e-18
1.09943e-18
1.10168e-18
1.10127e-18
1.0976e-18
1.08966e-18
1.076e-18
1.05475e-18
1.02365e-18
9.80083e-19
9.21403e-19
8.4558e-19
7.52195e-19
6.43518e-19
5.25062e-19
4.04949e-19
2.92049e-19
1.93804e-19
1.14935e-19
5.74715e-20
2.13905e-20
4.44089e-21
4.44089e-21
2.13905e-20
5.74776e-20
1.15035e-19
1.94518e-19
2.9515e-19
4.14555e-19
5.48245e-19
6.89571e-19
8.30479e-19
9.62914e-19
1.08033e-18
1.17866e-18
1.25647e-18
1.31447e-18
1.35466e-18
1.44651e-18
1.57384e-18
1.70889e-18
1.85048e-18
1.99819e-18
2.15123e-18
2.30751e-18
2.46466e-18
2.62042e-18
2.77269e-18
2.91955e-18
3.05925e-18
3.19022e-18
3.31102e-18
3.42036e-18
3.51708e-18
3.60015e-18
3.6687e-18
3.72198e-18
3.75942e-18
3.78058e-18
3.78524e-18
3.77338e-18
3.74513e-18
3.70085e-18
3.64107e-18
3.56649e-18
3.47794e-18
3.37641e-18
3.26302e-18
3.13899e-18
3.00571e-18
2.86467e-18
2.71751e-18
2.56599e-18
2.41206e-18
2.25781e-18
2.10547e-18
1.95731e-18
1.81518e-18
1.67931e-18
1.55023e-18
1.42953e-18
1.36285e-18
1.32138e-18
1.26208e-18
1.18297e-18
1.08345e-18
9.65018e-19
8.31791e-19
6.90322e-19
5.48636e-19
4.14738e-19
2.95225e-19
1.94544e-19
1.15042e-19
5.74788e-20
2.13906e-20
4.44089e-21
4.44089e-21
2.13905e-20
5.74797e-20
1.15069e-19
1.94766e-19
2.96289e-19
4.1833e-19
5.58064e-19
7.10705e-19
8.6944e-19
1.026e-18
1.17183e-18
1.29947e-18
1.41846e-18
1.64837e-18
1.90266e-18
2.1789e-18
2.47367e-18
2.78328e-18
3.10424e-18
3.43325e-18
3.76691e-18
4.10165e-18
4.43379e-18
4.75967e-18
5.07577e-18
5.37878e-18
5.66557e-18
5.93326e-18
6.17923e-18
6.40109e-18
6.59671e-18
6.76427e-18
6.90218e-18
7.00917e-18
7.08425e-18
7.12676e-18
7.13634e-18
7.11298e-18
7.05691e-18
6.96872e-18
6.84931e-18
6.69988e-18
6.52189e-18
6.3171e-18
6.0875e-18
5.83537e-18
5.56322e-18
5.27378e-18
4.97e-18
4.655e-18
4.3321e-18
4.00474e-18
3.67641e-18
3.35059e-18
3.03058e-18
2.71943e-18
2.42017e-18
2.13607e-18
1.87043e-18
1.62587e-18
1.41565e-18
1.30824e-18
1.17787e-18
1.02986e-18
8.71699e-19
7.11911e-19
5.58648e-19
4.18584e-19
2.96387e-19
1.94798e-19
1.15077e-19
5.74811e-20
2.13907e-20
4.44089e-21
4.44089e-21
2.13905e-20
5.74803e-20
1.1508e-19
1.94852e-19
2.967e-19
4.19739e-19
5.61862e-19
7.19163e-19
8.85514e-19
1.05263e-18
1.21082e-18
1.4453e-18
1.79067e-18
2.1924e-18
2.64487e-18
3.1411e-18
3.67324e-18
4.23323e-18
4.81319e-18
5.40558e-18
6.0032e-18
6.59925e-18
7.18726e-18
7.7611e-18
8.31503e-18
8.84369e-18
9.34211e-18
9.80574e-18
1.02304e-17
1.06125e-17
1.09486e-17
1.12359e-17
1.14721e-17
1.16552e-17
1.17837e-17
1.18568e-17
1.18737e-17
1.18347e-17
1.17399e-17
1.15904e-17
1.13874e-17
1.11328e-17
1.08288e-17
1.0478e-17
1.00836e-17
9.64894e-18
9.17805e-18
8.67516e-18
8.1449e-18
7.59226e-18
7.02253e-18
6.44132e-18
5.85456e-18
5.26842e-18
4.68937e-18
4.12415e-18
3.57987e-18
3.06389e-18
2.58374e-18
2.14668e-18
1.75928e-18
1.42681e-18
1.22036e-18
1.05856e-18
8.88883e-19
7.20895e-19
5.62665e-19
4.20072e-19
2.96822e-19
1.9489e-19
1.15089e-19
5.74819e-20
2.13907e-20
4.44089e-21
4.44089e-21
2.13905e-20
5.74805e-20
1.15083e-19
1.94876e-19
2.96812e-19
4.20115e-19
5.62825e-19
7.21131e-19
8.8875e-19
1.05673e-18
1.32238e-18
1.7362e-18
2.24619e-18
2.84978e-18
3.53944e-18
4.30407e-18
5.13046e-18
6.00455e-18
6.91237e-18
7.84057e-18
8.77661e-18
9.70892e-18
1.06269e-17
1.15207e-17
1.23816e-17
1.32012e-17
1.39723e-17
1.4688e-17
1.53425e-17
1.59302e-17
1.64466e-17
1.68877e-17
1.725e-17
1.75309e-17
1.77283e-17
1.78409e-17
1.78679e-17
1.78095e-17
1.7666e-17
1.74386e-17
1.71294e-17
1.67408e-17
1.62759e-17
1.57385e-17
1.51328e-17
1.4464e-17
1.37376e-17
1.29596e-17
1.21371e-17
1.12772e-17
1.03882e-17
9.47883e-18
8.5585e-18
7.63754e-18
6.7271e-18
5.83919e-18
4.9866e-18
4.18262e-18
3.4406e-18
2.77298e-18
2.19008e-18
1.69868e-18
1.30075e-18
1.06508e-18
8.93424e-19
7.23489e-19
5.63888e-19
4.2054e-19
2.96961e-19
1.94921e-19
1.15093e-19
5.74822e-20
2.13907e-20
4.44089e-21
4.44089e-21
2.13905e-20
5.74804e-20
1.15082e-19
1.94871e-19
2.9678e-19
4.19965e-19
5.62266e-19
7.19407e-19
8.84197e-19
1.11009e-18
1.53462e-18
2.08981e-18
2.78236e-18
3.61078e-18
4.56603e-18
5.63322e-18
6.79374e-18
8.02712e-18
9.31257e-18
1.063e-17
1.19604e-17
1.32865e-17
1.45922e-17
1.58633e-17
1.70866e-17
1.82505e-17
1.93445e-17
2.03592e-17
2.12862e-17
2.21182e-17
2.28488e-17
2.34725e-17
2.39848e-17
2.43821e-17
2.46616e-17
2.48216e-17
2.48612e-17
2.47802e-17
2.45794e-17
2.42603e-17
2.38254e-17
2.32782e-17
2.26227e-17
2.1864e-17
2.1008e-17
2.00614e-17
1.90318e-17
1.79278e-17
1.67588e-17
1.55354e-17
1.42692e-17
1.29731e-17
1.16612e-17
1.0349e-17
9.05348e-18
7.7931e-18
6.58729e-18
5.45605e-18
4.41896e-18
3.49361e-18
2.69372e-18
2.02717e-18
1.49439e-18
1.08791e-18
8.9049e-19
7.22538e-19
5.63652e-19
4.20504e-19
2.96962e-19
1.94923e-19
1.15094e-19
5.74823e-20
2.13907e-20
4.44089e-21
4.44089e-21
2.13905e-20
5.74802e-20
1.15079e-19
1.94849e-19
2.96662e-19
4.19491e-19
5.60739e-19
7.15262e-19
8.74482e-19
1.25349e-18
1.79294e-18
2.50281e-18
3.39329e-18
4.46393e-18
5.70427e-18
7.09598e-18
8.61531e-18
1.02356e-17
1.19292e-17
1.3669e-17
1.54294e-17
1.71864e-17
1.89182e-17
2.0605e-17
2.22292e-17
2.37748e-17
2.52275e-17
2.65749e-17
2.78056e-17
2.89101e-17
2.98799e-17
3.07079e-17
3.1388e-17
3.19157e-17
3.22873e-17
3.25006e-17
3.25542e-17
3.24483e-17
3.21833e-17
3.17616e-17
3.11863e-17
3.04616e-17
2.9593e-17
2.8587e-17
2.74513e-17
2.61946e-17
2.48271e-17
2.336e-17
2.18062e-17
2.01799e-17
1.8497e-17
1.67751e-17
1.50336e-17
1.32942e-17
1.15803e-17
9.91712e-18
8.33106e-18
6.84886e-18
5.49613e-18
4.29527e-18
3.26307e-18
2.40824e-18
1.72976e-18
1.21638e-18
8.82708e-19
7.19337e-19
5.62521e-19
4.20171e-19
2.96884e-19
1.9491e-19
1.15093e-19
5.74823e-20
2.13907e-20
4.44089e-21
4.44089e-21
2.13905e-20
5.74799e-20
1.15075e-19
1.94815e-19
2.9648e-19
4.18768e-19
5.58436e-19
7.09071e-19
9.56209e-19
1.43171e-18
2.09508e-18
2.97066e-18
4.07114e-18
5.39639e-18
6.93434e-18
8.66321e-18
1.05544e-17
1.25755e-17
1.46922e-17
1.68709e-17
1.90789e-17
2.12859e-17
2.34639e-17
2.55876e-17
2.76339e-17
2.95823e-17
3.14146e-17
3.31145e-17
3.46678e-17
3.6062e-17
3.72863e-17
3.83317e-17
3.91907e-17
3.98573e-17
4.03269e-17
4.05967e-17
4.06649e-17
4.05317e-17
4.01978e-17
3.96658e-17
3.89398e-17
3.80251e-17
3.69285e-17
3.56583e-17
3.4224e-17
3.2637e-17
3.09102e-17
2.9058e-17
2.70969e-17
2.50453e-17
2.29239e-17
2.07553e-17
1.8565e-17
1.63807e-17
1.42324e-17
1.21522e-17
1.01732e-17
8.32853e-18
6.64943e-18
5.16273e-18
3.88808e-18
2.83522e-18
2.00198e-18
1.37379e-18
9.25351e-19
7.14304e-19
5.60704e-19
4.19619e-19
2.96751e-19
1.94886e-19
1.1509e-19
5.74822e-20
2.13907e-20
4.44089e-21
4.44089e-21
2.13905e-20
5.74796e-20
1.1507e-19
1.9477e-19
2.96241e-19
4.17832e-19
5.55503e-19
7.01443e-19
1.06566e-18
1.63738e-18
2.43459e-18
3.48583e-18
4.80574e-18
6.39405e-18
8.23673e-18
1.03086e-17
1.25764e-17
1.50023e-17
1.75459e-17
2.01672e-17
2.28272e-17
2.54891e-17
2.81189e-17
3.06856e-17
3.31609e-17
3.55195e-17
3.77389e-17
3.97988e-17
4.16818e-17
4.33724e-17
4.48573e-17
4.61254e-17
4.71674e-17
4.79759e-17
4.85454e-17
4.88721e-17
4.89543e-17
4.87917e-17
4.83854e-17
4.77385e-17
4.68559e-17
4.57443e-17
4.4412e-17
4.2869e-17
4.11273e-17
3.92007e-17
3.71052e-17
3.48588e-17
3.24818e-17
2.99972e-17
2.74303e-17
2.48094e-17
2.21655e-17
1.95327e-17
1.69472e-17
1.44478e-17
1.20738e-17
9.86431e-18
7.85563e-18
6.07877e-18
4.55618e-18
3.2988e-18
2.30378e-18
1.554e-18
1.01956e-18
7.08059e-19
5.58383e-19
4.18901e-19
2.96574e-19
1.94854e-19
1.15086e-19
5.7482e-20
2.13907e-20
4.44089e-21
4.44089e-21
2.13905e-20
5.74792e-20
1.15063e-19
1.94714e-19
2.95944e-19
4.16649e-19
5.51728e-19
7.43085e-19
1.19598e-18
1.86936e-18
2.80717e-18
4.04101e-18
5.58647e-18
7.44244e-18
9.59254e-18
1.2008e-17
1.46511e-17
1.74788e-17
2.04452e-17
2.35041e-17
2.66107e-17
2.9722e-17
3.27985e-17
3.58034e-17
3.87034e-17
4.14684e-17
4.40715e-17
4.64888e-17
4.8699e-17
5.06839e-17
5.24274e-17
5.39163e-17
5.51394e-17
5.60879e-17
5.67552e-17
5.7137e-17
5.72308e-17
5.70367e-17
5.65555e-17
5.57913e-17
5.475e-17
5.34394e-17
5.18695e-17
5.00523e-17
4.80022e-17
4.57358e-17
4.32722e-17
4.0633e-17
3.78427e-17
3.49285e-17
3.19208e-17
2.8853e-17
2.5762e-17
2.26874e-17
1.96718e-17
1.67599e-17
1.39967e-17
1.14268e-17
9.09138e-18
7.02521e-18
5.25359e-18
3.78888e-18
2.62813e-18
1.75221e-18
1.12724e-18
7.08725e-19
5.55519e-19
4.18015e-19
2.96355e-19
1.94815e-19
1.15082e-19
5.74817e-20
2.13907e-20
4.44089e-21
4.44089e-21
2.13905e-20
5.74787e-20
1.15055e-19
1.9465e-19
2.95602e-19
4.15305e-19
5.47528e-19
8.15313e-19
1.34133e-18
2.12217e-18
3.20632e-18
4.62766e-18
6.40211e-18
8.52714e-18
1.09837e-17
1.37393e-17
1.6752e-17
1.99735e-17
2.33528e-17
2.68382e-17
3.03792e-17
3.39274e-17
3.74375e-17
4.08677e-17
4.41799e-17
4.73392e-17
5.03146e-17
5.30783e-17
5.56057e-17
5.78755e-17
5.98692e-17
6.15712e-17
6.29685e-17
6.40509e-17
6.48108e-17
6.52431e-17
6.5345e-17
6.51166e-17
6.45588e-17
6.36767e-17
6.2477e-17
6.09689e-17
5.91641e-17
5.70767e-17
5.47235e-17
5.2124e-17
4.93004e-17
4.6278e-17
4.30851e-17
3.97533e-17
3.63178e-17
3.28171e-17
2.92932e-17
2.57914e-17
2.23598e-17
1.90485e-17
1.59081e-17
1.29878e-17
1.03334e-17
7.98345e-18
5.96589e-18
4.29484e-18
2.96771e-18
1.96405e-18
1.24695e-18
7.67093e-19
5.522e-19
4.16991e-19
2.96104e-19
1.94769e-19
1.15077e-19
5.74815e-20
2.13907e-20
4.44089e-21
4.44089e-21
2.13905e-20
5.74782e-20
1.15046e-19
1.94575e-19
2.95207e-19
4.1378e-19
5.42913e-19
8.94993e-19
1.49874e-18
2.39162e-18
3.62603e-18
5.23752e-18
7.24172e-18
9.63432e-18
1.23933e-17
1.54824e-17
1.88552e-17
2.2459e-17
2.62375e-17
3.01338e-17
3.40924e-17
3.80594e-17
4.19848e-17
4.58218e-17
4.95274e-17
5.30629e-17
5.63929e-17
5.94861e-17
6.23148e-17
6.48547e-17
6.70847e-17
6.89873e-17
7.05477e-17
7.17545e-17
7.25988e-17
7.3075e-17
7.318e-17
7.29139e-17
7.22782e-17
7.12784e-17
6.99224e-17
6.82209e-17
6.61873e-17
6.38377e-17
6.11914e-17
5.82706e-17
5.51006e-17
5.17102e-17
4.81316e-17
4.44006e-17
4.05566e-17
3.66429e-17
3.27065e-17
2.87976e-17
2.49695e-17
2.12772e-17
1.77761e-17
1.45201e-17
1.1559e-17
8.93469e-18
6.67808e-18
4.80504e-18
3.31359e-18
2.18246e-18
1.3722e-18
8.29201e-19
5.48767e-19
4.15908e-19
2.95833e-19
1.9472e-19
1.15071e-19
5.74812e-20
2.13907e-20
4.44089e-21
4.44089e-21
2.13905e-20
5.74776e-20
1.15036e-19
1.94485e-19
2.94723e-19
4.11865e-19
5.56456e-19
9.84515e-19
1.66796e-18
2.67498e-18
4.06111e-18
5.8629e-18
8.0951e-18
1.07512e-17
1.38058e-17
1.7219e-17
2.09401e-17
2.49114e-17
2.90723e-17
3.33608e-17
3.77166e-17
4.2081e-17
4.63993e-17
5.06201e-17
5.46964e-17
5.85851e-17
6.22475e-17
6.56489e-17
6.87583e-17
7.1549e-17
7.39976e-17
7.60845e-17
7.77935e-17
7.91118e-17
8.00299e-17
8.05415e-17
8.06434e-17
8.03356e-17
7.96202e-17
7.85036e-17
7.69947e-17
7.51056e-17
7.28514e-17
7.02504e-17
6.73241e-17
6.40975e-17
6.05988e-17
5.68601e-17
5.29172e-17
4.88096e-17
4.4581e-17
4.0279e-17
3.59548e-17
3.16634e-17
2.74624e-17
2.34117e-17
1.95707e-17
1.59976e-17
1.27458e-17
9.86059e-18
7.37545e-18
5.30813e-18
3.6575e-18
2.40175e-18
1.4994e-18
8.93076e-19
5.45233e-19
4.14763e-19
2.95543e-19
1.94666e-19
1.15065e-19
5.74808e-20
2.13907e-20
4.44089e-21
4.44089e-21
2.13905e-20
5.74769e-20
1.15024e-19
1.94388e-19
2.94195e-19
4.09769e-19
6.01144e-19
1.08117e-18
1.84584e-18
2.96808e-18
4.50595e-18
6.49636e-18
8.95276e-18
1.1866e-17
1.52075e-17
1.89332e-17
2.29881e-17
2.73103e-17
3.18343e-17
3.64939e-17
4.12239e-17
4.59614e-17
5.06472e-17
5.52259e-17
5.96466e-17
6.38625e-17
6.78316e-17
7.15159e-17
7.48822e-17
7.79009e-17
8.05469e-17
8.27987e-17
8.46389e-17
8.60536e-17
8.70327e-17
8.75693e-17
8.76603e-17
8.73059e-17
8.65089e-17
8.52763e-17
8.36184e-17
8.15486e-17
7.90836e-17
7.62439e-17
7.30531e-17
6.95387e-17
6.57318e-17
6.16676e-17
5.73849e-17
5.29271e-17
4.83412e-17
4.36789e-17
3.89953e-17
3.43495e-17
2.98032e-17
2.54201e-17
2.12637e-17
1.73957e-17
1.38729e-17
1.07436e-17
8.04394e-18
5.79338e-18
3.9918e-18
2.61727e-18
1.62663e-18
9.59188e-19
5.43689e-19
4.13438e-19
2.95213e-19
1.94606e-19
1.15058e-19
5.74804e-20
2.13907e-20
4.44089e-21
4.44089e-21
2.13905e-20
5.74763e-20
1.15012e-19
1.94288e-19
2.93659e-19
4.07673e-19
6.4809e-19
1.1817e-18
2.02886e-18
3.26668e-18
4.95511e-18
7.13099e-18
9.8061e-18
1.29685e-17
1.65861e-17
2.06107e-17
2.49834e-17
2.96377e-17
3.4504e-17
3.95115e-17
4.45907e-17
4.96749e-17
5.47007e-17
5.96089e-17
6.43451e-17
6.88594e-17
7.31065e-17
7.70461e-17
8.06422e-17
8.38634e-17
8.66828e-17
8.90777e-17
9.10292e-17
9.25229e-17
9.35481e-17
9.40978e-17
9.4169e-17
9.3762e-17
9.28806e-17
9.15329e-17
8.97299e-17
8.74867e-17
8.48217e-17
8.17571e-17
7.83188e-17
7.45366e-17
7.04442e-17
6.60794e-17
6.14842e-17
5.67049e-17
5.1792e-17
4.68003e-17
4.17887e-17
3.68197e-17
3.19585e-17
2.72723e-17
2.28281e-17
1.86908e-17
1.49201e-17
1.1567e-17
8.66996e-18
6.25024e-18
4.30871e-18
2.82354e-18
1.7503e-18
1.02558e-18
5.7404e-19
4.1202e-19
2.94862e-19
1.94542e-19
1.1505e-19
5.748e-20
2.13907e-20
4.44089e-21
4.44089e-21
2.13905e-20
5.74757e-20
1.15e-19
1.94186e-19
2.93116e-19
4.05594e-19
6.96399e-19
1.28461e-18
2.21475e-18
3.56743e-18
5.40398e-18
7.76076e-18
1.06476e-17
1.40496e-17
1.7931e-17
2.22398e-17
2.69126e-17
3.18789e-17
3.70648e-17
4.23955e-17
4.77975e-17
5.32001e-17
5.85363e-17
6.37438e-17
6.87646e-17
7.35461e-17
7.80405e-17
8.2205e-17
8.60017e-17
8.93975e-17
9.23641e-17
9.48775e-17
9.69185e-17
9.84717e-17
9.95264e-17
1.00076e-16
1.00116e-16
9.965e-17
9.86809e-17
9.72181e-17
9.5274e-17
9.2865e-17
9.00111e-17
8.67363e-17
8.30686e-17
7.90398e-17
7.46861e-17
7.00476e-17
6.5169e-17
6.00993e-17
5.48918e-17
4.96043e-17
4.42987e-17
3.90403e-17
3.38975e-17
2.89405e-17
2.42391e-17
1.98609e-17
1.58683e-17
1.23147e-17
9.24032e-18
6.66819e-18
4.60011e-18
3.01438e-18
1.8656e-18
1.08812e-18
6.03009e-19
4.10709e-19
2.94533e-19
1.94481e-19
1.15043e-19
5.74796e-20
2.13907e-20
4.44089e-21
4.44089e-21
2.13905e-20
5.7475e-20
1.14987e-19
1.94074e-19
2.92534e-19
4.03432e-19
7.46126e-19
1.3894e-18
2.40206e-18
3.86774e-18
5.84873e-18
8.38057e-18
1.14709e-17
1.51017e-17
1.92335e-17
2.38103e-17
2.87645e-17
3.40215e-17
3.95033e-17
4.51312e-17
5.08279e-17
5.65192e-17
6.21349e-17
6.76094e-17
7.28822e-17
7.7898e-17
8.26068e-17
8.69639e-17
9.09298e-17
9.447e-17
9.75553e-17
1.00161e-16
1.02267e-16
1.03859e-16
1.04924e-16
1.05458e-16
1.05457e-16
1.04923e-16
1.03862e-16
1.02284e-16
1.00202e-16
9.76347e-17
9.46033e-17
9.11336e-17
8.72553e-17
8.30022e-17
7.84126e-17
7.35288e-17
6.83976e-17
6.30703e-17
5.76027e-17
5.2055e-17
4.64915e-17
4.098e-17
3.55915e-17
3.03984e-17
2.54731e-17
2.08854e-17
1.66998e-17
1.29715e-17
9.74266e-18
7.03741e-18
4.85844e-18
3.18424e-18
1.96865e-18
1.14423e-18
6.29051e-19
4.09573e-19
2.94246e-19
1.94428e-19
1.15037e-19
5.74792e-20
2.13907e-20
4.44089e-21
4.44089e-21
2.13905e-20
5.74742e-20
1.14971e-19
1.93939e-19
2.91817e-19
4.00724e-19
7.98387e-19
1.49619e-18
2.58981e-18
4.16552e-18
6.28623e-18
8.98633e-18
1.2271e-17
1.6119e-17
2.04868e-17
2.53144e-17
3.05303e-17
3.60556e-17
4.18084e-17
4.77063e-17
5.36686e-17
5.96177e-17
6.54804e-17
7.11885e-17
7.66789e-17
8.18943e-17
8.67828e-17
9.12982e-17
9.53999e-17
9.90525e-17
1.02226e-16
1.04896e-16
1.07042e-16
1.08648e-16
1.09705e-16
1.10206e-16
1.1015e-16
1.0954e-16
1.08382e-16
1.06687e-16
1.04471e-16
1.01752e-16
9.85549e-17
9.49057e-17
9.08362e-17
8.63819e-17
8.15828e-17
7.64831e-17
7.11315e-17
6.55812e-17
5.98898e-17
5.41194e-17
4.83364e-17
4.26104e-17
3.70143e-17
3.16225e-17
2.65091e-17
2.17457e-17
1.73984e-17
1.3524e-17
1.01658e-17
7.34904e-18
5.077e-18
3.32832e-18
2.05629e-18
1.19203e-18
6.51242e-19
4.08635e-19
2.94007e-19
1.94384e-19
1.15031e-19
5.74789e-20
2.13907e-20
4.44089e-21
4.44089e-21
2.13905e-20
5.74733e-20
1.14953e-19
1.9378e-19
2.90952e-19
4.20052e-19
8.53306e-19
1.60429e-18
2.77666e-18
4.45885e-18
6.71395e-18
9.57488e-18
1.30441e-17
1.70968e-17
2.16855e-17
2.67462e-17
3.22031e-17
3.79735e-17
4.39716e-17
5.01115e-17
5.63091e-17
6.24839e-17
6.85599e-17
7.44665e-17
8.01387e-17
8.55174e-17
9.05492e-17
9.51871e-17
9.93894e-17
1.0312e-16
1.0635e-16
1.09054e-16
1.11211e-16
1.12808e-16
1.13834e-16
1.14285e-16
1.1416e-16
1.13463e-16
1.12202e-16
1.10389e-16
1.08041e-16
1.05179e-16
1.01827e-16
9.80138e-17
9.37728e-17
8.9141e-17
8.41598e-17
7.88748e-17
7.33363e-17
6.75988e-17
6.17215e-17
5.57679e-17
4.98056e-17
4.39058e-17
3.81425e-17
3.25914e-17
2.7328e-17
2.24251e-17
1.79499e-17
1.39601e-17
1.05e-17
7.59535e-18
5.24998e-18
3.44253e-18
2.12588e-18
1.23002e-18
6.68863e-19
4.07906e-19
2.9382e-19
1.94348e-19
1.15027e-19
5.74786e-20
2.13907e-20
4.44089e-21
4.44089e-21
2.13905e-20
5.74725e-20
1.14935e-19
1.93623e-19
2.90095e-19
4.43789e-19
9.08713e-19
1.71197e-18
2.96099e-18
4.746e-18
7.12992e-18
1.01439e-17
1.37873e-17
1.80318e-17
2.28259e-17
2.81013e-17
3.37781e-17
3.97697e-17
4.59866e-17
5.23395e-17
5.87413e-17
6.51085e-17
7.1363e-17
7.74319e-17
8.32486e-17
8.87527e-17
9.389e-17
9.86126e-17
1.02879e-16
1.06653e-16
1.09905e-16
1.12611e-16
1.14751e-16
1.16312e-16
1.17284e-16
1.17665e-16
1.17456e-16
1.16661e-16
1.1529e-16
1.13356e-16
1.10879e-16
1.07879e-16
1.04384e-16
1.00423e-16
9.60311e-17
9.12461e-17
8.61108e-17
8.06721e-17
7.49812e-17
6.90939e-17
6.30701e-17
5.69743e-17
5.08747e-17
4.48435e-17
3.89555e-17
3.32868e-17
2.79137e-17
2.29095e-17
1.83421e-17
1.42697e-17
1.07369e-17
7.76989e-18
5.37254e-18
3.52348e-18
2.17521e-18
1.25696e-18
6.81351e-19
4.07391e-19
2.93686e-19
1.94323e-19
1.15024e-19
5.74783e-20
2.13906e-20
4.44089e-21
4.44089e-21
2.13905e-20
5.74718e-20
1.14919e-19
1.93474e-19
2.89287e-19
4.67429e-19
9.6368e-19
1.81816e-18
3.14164e-18
5.02568e-18
7.53264e-18
1.06915e-17
1.44987e-17
1.89218e-17
2.39053e-17
2.93766e-17
3.52517e-17
4.14401e-17
4.78488e-17
5.43851e-17
6.09589e-17
6.74845e-17
7.38814e-17
8.00752e-17
8.59979e-17
9.15882e-17
9.67914e-17
1.0156e-16
1.05851e-16
1.09631e-16
1.1287e-16
1.15545e-16
1.17637e-16
1.19134e-16
1.20028e-16
1.2032e-16
1.20009e-16
1.19104e-16
1.17616e-16
1.15559e-16
1.12954e-16
1.09824e-16
1.06197e-16
1.02104e-16
9.75815e-17
9.26681e-17
8.74075e-17
8.18476e-17
7.60402e-17
7.00414e-17
6.39119e-17
5.77162e-17
5.15231e-17
4.54048e-17
3.9436e-17
3.36932e-17
2.82524e-17
2.31872e-17
1.85652e-17
1.44446e-17
1.087e-17
7.86751e-18
5.44085e-18
3.56849e-18
2.20259e-18
1.27188e-18
6.88253e-19
4.07097e-19
2.93608e-19
1.94307e-19
1.15021e-19
5.74781e-20
2.13906e-20
4.44089e-21
4.44089e-21
2.13905e-20
5.74712e-20
1.14904e-19
1.93336e-19
2.88535e-19
4.90755e-19
1.01782e-18
1.92232e-18
3.31789e-18
5.297e-18
7.92108e-18
1.12168e-17
1.5177e-17
1.97654e-17
2.49222e-17
3.05704e-17
3.6622e-17
4.29824e-17
4.95551e-17
5.62446e-17
6.29577e-17
6.96065e-17
7.61088e-17
8.23888e-17
8.83777e-17
9.40137e-17
9.9242e-17
1.04015e-16
1.08293e-16
1.1204e-16
1.15229e-16
1.17838e-16
1.1985e-16
1.21253e-16
1.22045e-16
1.22225e-16
1.21797e-16
1.20769e-16
1.19155e-16
1.16972e-16
1.14241e-16
1.10987e-16
1.0724e-16
1.03032e-16
9.83996e-17
9.33833e-17
8.80271e-17
8.23793e-17
7.64919e-17
7.04213e-17
6.42279e-17
5.79762e-17
5.17345e-17
4.55746e-17
3.95707e-17
3.37987e-17
2.83339e-17
2.32492e-17
1.86116e-17
1.44787e-17
1.08944e-17
7.88446e-18
5.45216e-18
3.57564e-18
2.20679e-18
1.2741e-18
6.89255e-19
4.0703e-19
2.93587e-19
1.94301e-19
1.1502e-19
5.7478e-20
2.13906e-20
4.44089e-21
4.44089e-21
2.13906e-20
5.74708e-20
1.14891e-19
1.93209e-19
2.87836e-19
5.13684e-19
1.07097e-18
2.02415e-18
3.48933e-18
5.55946e-18
8.29469e-18
1.1719e-17
1.58216e-17
2.05619e-17
2.58758e-17
3.1682e-17
3.78879e-17
4.43952e-17
5.11039e-17
5.79156e-17
6.47346e-17
7.14708e-17
7.80404e-17
8.43669e-17
9.0381e-17
9.60208e-17
1.01232e-16
1.05969e-16
1.10192e-16
1.13866e-16
1.16967e-16
1.19474e-16
1.21373e-16
1.22653e-16
1.23317e-16
1.23363e-16
1.22799e-16
1.21635e-16
1.19887e-16
1.17574e-16
1.14719e-16
1.11349e-16
1.07494e-16
1.03187e-16
9.84673e-17
9.33743e-17
8.79528e-17
8.22511e-17
7.63214e-17
7.02194e-17
6.40051e-17
5.77422e-17
5.14981e-17
4.53434e-17
3.93511e-17
3.35959e-17
2.81519e-17
2.30903e-17
1.8477e-17
1.43685e-17
1.08075e-17
7.81878e-18
5.40508e-18
3.54401e-18
2.18725e-18
1.26332e-18
6.84214e-19
4.07193e-19
2.93624e-19
1.94306e-19
1.1502e-19
5.74779e-20
2.13906e-20
4.44089e-21
4.44089e-21
2.13906e-20
5.74706e-20
1.14879e-19
1.93091e-19
2.87184e-19
5.36209e-19
1.12308e-18
2.12359e-18
3.65585e-18
5.81292e-18
8.6533e-18
1.2198e-17
1.64324e-17
2.13115e-17
2.67665e-17
3.27114e-17
3.90495e-17
4.56785e-17
5.24948e-17
5.93973e-17
6.62878e-17
7.30745e-17
7.96726e-17
8.60048e-17
9.2002e-17
9.76029e-17
1.02755e-16
1.07413e-16
1.11538e-16
1.15099e-16
1.18073e-16
1.20441e-16
1.22192e-16
1.2332e-16
1.23828e-16
1.23719e-16
1.23001e-16
1.21689e-16
1.19799e-16
1.17354e-16
1.14378e-16
1.10898e-16
1.06948e-16
1.0256e-16
9.77742e-17
9.26309e-17
8.71749e-17
8.14542e-17
7.55202e-17
6.9428e-17
6.32364e-17
5.70078e-17
5.0808e-17
4.47058e-17
3.87726e-17
3.30809e-17
2.77028e-17
2.27076e-17
1.81592e-17
1.41122e-17
1.06079e-17
7.66958e-18
5.29907e-18
3.47333e-18
2.14385e-18
1.23948e-18
6.73109e-19
4.07588e-19
2.93718e-19
1.94321e-19
1.15021e-19
5.74778e-20
2.13906e-20
4.44089e-21
4.44089e-21
2.13906e-20
5.74705e-20
1.14868e-19
1.92981e-19
2.8657e-19
5.58357e-19
1.1742e-18
2.22065e-18
3.81747e-18
6.05743e-18
8.99709e-18
1.26542e-17
1.70099e-17
2.20147e-17
2.75948e-17
3.36595e-17
4.01076e-17
4.68326e-17
5.37277e-17
6.06889e-17
6.7616e-17
7.44157e-17
8.10023e-17
8.72987e-17
9.3236e-17
9.87547e-17
1.03804e-16
1.08338e-16
1.12323e-16
1.15729e-16
1.18536e-16
1.2073e-16
1.22298e-16
1.23245e-16
1.23572e-16
1.23285e-16
1.22398e-16
1.20924e-16
1.18886e-16
1.16306e-16
1.1321e-16
1.09629e-16
1.05596e-16
1.01146e-16
9.63168e-17
9.11508e-17
8.5692e-17
7.99876e-17
7.40881e-17
6.80474e-17
6.19226e-17
5.57741e-17
4.96656e-17
4.36637e-17
3.7837e-17
3.22556e-17
2.69887e-17
2.21032e-17
1.76601e-17
1.37118e-17
1.02973e-17
7.43846e-18
5.1355e-18
3.36466e-18
2.07733e-18
1.20303e-18
6.56149e-19
4.08218e-19
2.9387e-19
1.94346e-19
1.15023e-19
5.74777e-20
2.13906e-20
4.44089e-21
4.44089e-21
2.13907e-20
5.74706e-20
1.14859e-19
1.92877e-19
2.85986e-19
5.80189e-19
1.22441e-18
2.31547e-18
3.97438e-18
6.29329e-18
9.3265e-18
1.30882e-17
1.75552e-17
2.26728e-17
2.83621e-17
3.45275e-17
4.10631e-17
4.78584e-17
5.48029e-17
6.17902e-17
6.87183e-17
7.54927e-17
8.20274e-17
8.82456e-17
9.40802e-17
9.94732e-17
1.04374e-16
1.08741e-16
1.12541e-16
1.15751e-16
1.18353e-16
1.20334e-16
1.21688e-16
1.22425e-16
1.22545e-16
1.2206e-16
1.20985e-16
1.19339e-16
1.17145e-16
1.14429e-16
1.11219e-16
1.07546e-16
1.03444e-16
9.895e-17
9.41022e-17
8.89417e-17
8.35123e-17
7.78602e-17
7.20345e-17
6.60872e-17
6.00732e-17
5.40506e-17
4.80803e-17
4.22259e-17
3.65528e-17
3.11279e-17
2.60171e-17
2.12837e-17
1.69858e-17
1.31726e-17
9.88057e-18
7.12929e-18
4.91742e-18
3.22026e-18
1.98921e-18
1.15485e-18
6.33757e-19
4.09082e-19
2.94079e-19
1.94381e-19
1.15026e-19
5.74776e-20
2.13906e-20
4.44089e-21
4.44089e-21
2.13908e-20
5.74708e-20
1.1485e-19
1.92776e-19
2.85418e-19
6.01803e-19
1.27387e-18
2.40824e-18
4.12683e-18
6.52087e-18
9.64211e-18
1.35008e-17
1.8069e-17
2.32867e-17
2.90696e-17
3.53166e-17
4.1917e-17
4.87564e-17
5.57208e-17
6.27008e-17
6.9594e-17
7.63044e-17
8.27462e-17
8.88449e-17
9.45327e-17
9.97536e-17
1.04461e-16
1.08616e-16
1.12191e-16
1.15164e-16
1.17521e-16
1.19252e-16
1.20363e-16
1.20859e-16
1.20749e-16
1.20046e-16
1.18769e-16
1.16941e-16
1.14587e-16
1.11736e-16
1.08416e-16
1.04662e-16
1.00508e-16
9.59905e-17
9.11485e-17
8.60226e-17
8.06555e-17
7.50919e-17
6.93792e-17
6.35671e-17
5.77077e-17
5.18562e-17
4.60701e-17
4.04095e-17
3.49361e-17
2.97127e-17
2.48013e-17
2.02613e-17
1.61469e-17
1.25038e-17
9.36541e-18
6.74846e-18
4.6498e-18
3.04375e-18
1.88188e-18
1.09633e-18
6.0658e-19
4.10174e-19
2.94343e-19
1.94424e-19
1.1503e-19
5.74775e-20
2.13905e-20
4.44089e-21
4.44089e-21
2.13908e-20
5.74712e-20
1.14841e-19
1.92672e-19
2.84845e-19
6.23358e-19
1.32278e-18
2.49918e-18
4.27511e-18
6.74061e-18
9.94456e-18
1.3893e-17
1.85527e-17
2.38578e-17
2.97183e-17
3.60275e-17
4.26699e-17
4.95269e-17
5.64814e-17
6.34214e-17
7.02428e-17
7.685e-17
8.3158e-17
8.90922e-17
9.45884e-17
9.95931e-17
1.04063e-16
1.07963e-16
1.1127e-16
1.13966e-16
1.1604e-16
1.1749e-16
1.18328e-16
1.18558e-16
1.18195e-16
1.17257e-16
1.15766e-16
1.13749e-16
1.11233e-16
1.08248e-16
1.04828e-16
1.01005e-16
9.68158e-17
9.22969e-17
8.74868e-17
8.24253e-17
7.71537e-17
7.17151e-17
6.61544e-17
6.05185e-17
5.48566e-17
4.92202e-17
4.3663e-17
3.82408e-17
3.30111e-17
2.80322e-17
2.33617e-17
1.90541e-17
1.51594e-17
1.17192e-17
8.76312e-18
6.30506e-18
4.33964e-18
2.8402e-18
1.75875e-18