/*--------------------------------*- C++ -*----------------------------------*\
  =========                 |
  \\      /  F ield         | OpenFOAM: The Open Source CFD Toolbox
   \\    /   O peration     | Website:  https://openfoam.org
    \\  /    A nd           | Version:  12
     \\/     M anipulation  |
\*---------------------------------------------------------------------------*/
FoamFile
{
    format      ascii;
    class       surfaceScalarField;
    location    "9";
    object      phi;
}
// * * * * * * * * * * * * * * * * * * * * * * * * * * * * * * * * * * * * * //

dimensions      [0 3 -1 0 0 0 0];

internalField   nonuniform List<scalar> 
11100
(
-1.37513e-11
1.37462e-11
-3.00964e-11
1.6349e-11
-3.50314e-11
4.94053e-12
-2.13919e-11
-1.36384e-11
1.41757e-11
-3.55644e-11
7.27401e-11
-5.85634e-11
1.53957e-10
-8.12146e-11
2.56601e-10
-1.02642e-10
3.78928e-10
-1.22324e-10
5.18902e-10
-1.39972e-10
6.7435e-10
-1.55445e-10
8.43049e-10
-1.68697e-10
1.02279e-09
-1.79741e-10
1.21143e-09
-1.8863e-10
1.40687e-09
-1.95442e-10
1.60714e-09
-2.00268e-10
1.81035e-09
-2.03206e-10
2.01471e-09
-2.04359e-10
2.21855e-09
-2.03834e-10
2.42029e-09
-2.01733e-10
2.61845e-09
-1.9816e-10
2.81167e-09
-1.93216e-10
2.99867e-09
-1.87e-10
3.17828e-09
-1.79606e-10
3.34941e-09
-1.71127e-10
3.51107e-09
-1.61653e-10
3.66235e-09
-1.51271e-10
3.80242e-09
-1.40064e-10
3.93054e-09
-1.28115e-10
4.04605e-09
-1.15502e-10
4.14836e-09
-1.02303e-10
4.23696e-09
-8.85936e-11
4.31141e-09
-7.44465e-11
4.37135e-09
-5.99346e-11
4.41649e-09
-4.51293e-11
4.4466e-09
-3.01014e-11
4.46153e-09
-1.49214e-11
4.4612e-09
3.40678e-13
4.44559e-09
1.56142e-11
4.41477e-09
3.08283e-11
4.36887e-09
4.59114e-11
4.30809e-09
6.07908e-11
4.23271e-09
7.53925e-11
4.14308e-09
8.96412e-11
4.03963e-09
1.0346e-10
3.92287e-09
1.1677e-10
3.79339e-09
1.2949e-10
3.65186e-09
1.41538e-10
3.49905e-09
1.52828e-10
3.33579e-09
1.63272e-10
3.16302e-09
1.72782e-10
2.98176e-09
1.81265e-10
2.79315e-09
1.88626e-10
2.59839e-09
1.94769e-10
2.39881e-09
1.99596e-10
2.19581e-09
2.03007e-10
1.99092e-09
2.04899e-10
1.78576e-09
2.05172e-10
1.58205e-09
2.03722e-10
1.38161e-09
2.0045e-10
1.18637e-09
1.95259e-10
9.98318e-10
1.88058e-10
8.19563e-10
1.78766e-10
6.52252e-10
1.67319e-10
4.9858e-10
1.53681e-10
3.60732e-10
1.37856e-10
2.40831e-10
1.1991e-10
1.4083e-10
1.00007e-10
6.23725e-11
7.84647e-11
6.54758e-12
5.58288e-11
-2.64513e-11
3.30035e-11
-3.7881e-11
1.14309e-11
-3.12653e-11
-6.61503e-12
-1.39648e-11
-1.73011e-11
-1.39663e-11
-6.70147e-15
1.37569e-11
1.98411e-11
-3.49756e-12
7.44096e-11
-4.96253e-11
1.72943e-10
-1.12171e-10
3.20362e-10
-1.82982e-10
5.18416e-10
-2.56618e-10
7.6658e-10
-3.29377e-10
1.0627e-09
-3.98759e-10
1.4035e-09
-4.6312e-10
1.78494e-09
-5.21418e-10
2.20253e-09
-5.73033e-10
2.65148e-09
-6.17645e-10
3.12688e-09
-6.55141e-10
3.62381e-09
-6.85554e-10
4.13739e-09
-7.09018e-10
4.66286e-09
-7.25741e-10
5.19563e-09
-7.35975e-10
5.73129e-09
-7.40009e-10
6.2656e-09
-7.38147e-10
6.79458e-09
-7.30711e-10
7.31445e-09
-7.18025e-10
7.82165e-09
-7.00417e-10
8.31287e-09
-6.78213e-10
8.785e-09
-6.51736e-10
9.23518e-09
-6.21303e-10
9.66076e-09
-5.87226e-10
1.00593e-08
-5.49812e-10
1.04286e-08
-5.09359e-10
1.07666e-08
-4.6616e-10
1.10717e-08
-4.20502e-10
1.1342e-08
-3.72665e-10
1.15764e-08
-3.22926e-10
1.17735e-08
-2.71555e-10
1.19324e-08
-2.18821e-10
1.20522e-08
-1.64989e-10
1.21324e-08
-1.10322e-10
1.21726e-08
-5.50827e-11
1.21725e-08
4.66575e-13
1.2132e-08
5.60626e-11
1.20514e-08
1.11441e-10
1.1931e-08
1.66333e-10
1.17713e-08
2.20469e-10
1.15732e-08
2.73574e-10
1.13374e-08
3.25369e-10
1.10653e-08
3.75568e-10
1.07582e-08
4.23882e-10
1.04177e-08
4.70014e-10
1.00456e-08
5.13662e-10
9.6439e-09
5.54519e-10
9.21491e-09
5.92268e-10
8.76111e-09
6.26592e-10
8.28522e-09
6.57163e-10
7.7902e-09
6.83654e-10
7.27924e-09
7.05732e-10
6.75578e-09
7.23062e-10
6.22348e-09
7.35311e-10
5.68624e-09
7.4215e-10
5.14816e-09
7.43256e-10
4.61357e-09
7.38317e-10
4.08699e-09
7.27041e-10
3.57309e-09
7.09163e-10
3.0767e-09
6.84457e-10
2.60272e-09
6.52752e-10
2.15609e-09
6.13955e-10
1.74169e-09
5.68083e-10
1.36424e-09
5.15308e-10
1.02815e-09
4.56013e-10
7.37268e-10
3.90889e-10
4.94687e-10
3.21052e-10
3.02298e-10
2.48221e-10
1.60335e-10
1.7497e-10
6.67082e-11
1.05061e-10
1.61318e-11
4.39623e-11
-1.06962e-12
-9.92775e-14
-1.50364e-11
2.35539e-11
-9.79554e-12
1.02705e-10
-8.26499e-11
2.44606e-10
-1.91526e-10
4.54033e-10
-3.216e-10
7.33369e-10
-4.62317e-10
1.08276e-09
-6.06011e-10
1.50048e-09
-7.47095e-10
1.98326e-09
-8.81543e-10
2.52667e-09
-1.00653e-09
3.12537e-09
-1.12011e-09
3.77339e-09
-1.22106e-09
4.46438e-09
-1.30863e-09
5.19169e-09
-1.38245e-09
5.94859e-09
-1.44246e-09
6.72836e-09
-1.48879e-09
7.52434e-09
-1.52172e-09
8.33002e-09
-1.54166e-09
9.13911e-09
-1.5491e-09
9.94555e-09
-1.54458e-09
1.07435e-08
-1.52869e-09
1.15275e-08
-1.50203e-09
1.22923e-08
-1.46523e-09
1.30331e-08
-1.41893e-09
1.37451e-08
-1.36376e-09
1.44241e-08
-1.30035e-09
1.50662e-08
-1.22933e-09
1.56677e-08
-1.15132e-09
1.62253e-08
-1.06694e-09
1.67359e-08
-9.76773e-10
1.71968e-08
-8.81424e-10
1.76057e-08
-7.81474e-10
1.79602e-08
-6.77498e-10
1.82587e-08
-5.70065e-10
1.84996e-08
-4.59738e-10
1.86817e-08
-3.47076e-10
1.8804e-08
-2.32633e-10
1.88659e-08
-1.16967e-10
1.8867e-08
-6.30477e-13
1.88072e-08
1.15817e-10
1.86869e-08
2.31816e-10
1.85064e-08
3.46799e-10
1.82667e-08
4.60192e-10
1.79688e-08
5.71416e-10
1.76143e-08
6.79881e-10
1.72049e-08
7.84988e-10
1.67426e-08
8.86127e-10
1.62299e-08
9.82679e-10
1.56696e-08
1.07401e-09
1.50646e-08
1.15949e-09
1.44184e-08
1.23846e-09
1.37347e-08
1.31027e-09
1.30176e-08
1.37425e-09
1.22715e-08
1.42975e-09
1.15012e-08
1.47608e-09
1.07116e-08
1.5126e-09
9.90829e-09
1.53865e-09
9.09684e-09
1.55359e-09
8.28326e-09
1.55683e-09
7.47379e-09
1.54779e-09
6.67488e-09
1.52595e-09
5.89317e-09
1.49087e-09
5.13543e-09
1.44219e-09
4.40847e-09
1.37971e-09
3.71906e-09
1.30336e-09
3.07381e-09
1.21332e-09
2.47906e-09
1.11006e-09
1.94063e-09
9.94435e-10
1.46369e-09
8.67828e-10
1.05243e-09
7.32304e-10
7.09821e-10
5.90834e-10
4.37214e-10
4.47577e-10
2.34028e-10
3.08245e-10
9.739e-11
1.80601e-10
2.20344e-11
7.52573e-11
7.00042e-12
4.7398e-11
-5.71928e-11
1.88073e-10
-2.23326e-10
4.21237e-10
-4.2469e-10
7.45922e-10
-6.46287e-10
1.16031e-09
-8.76708e-10
1.6615e-09
-1.1072e-09
2.24544e-09
-1.33104e-09
2.90708e-09
-1.54318e-09
3.64043e-09
-1.73988e-09
4.43881e-09
-1.91849e-09
5.29494e-09
-2.0772e-09
6.20118e-09
-2.21487e-09
7.14961e-09
-2.33088e-09
8.13218e-09
-2.42503e-09
9.14084e-09
-2.49744e-09
1.01676e-08
-2.54846e-09
1.12046e-08
-2.57865e-09
1.22441e-08
-2.58868e-09
1.32789e-08
-2.57936e-09
1.43018e-08
-2.55156e-09
1.5306e-08
-2.50622e-09
1.6285e-08
-2.44429e-09
1.72329e-08
-2.36676e-09
1.81437e-08
-2.27464e-09
1.90123e-08
-2.16893e-09
1.98336e-08
-2.05064e-09
2.0603e-08
-1.92076e-09
2.13164e-08
-1.78029e-09
2.19698e-08
-1.63021e-09
2.25599e-08
-1.47149e-09
2.30835e-08
-1.30509e-09
2.35379e-08
-1.13195e-09
2.39209e-08
-9.53028e-10
2.42304e-08
-7.69244e-10
2.44648e-08
-5.81532e-10
2.4623e-08
-3.90817e-10
2.4704e-08
-1.98027e-10
2.47075e-08
-4.08774e-12
2.46332e-08
1.90068e-10
2.44815e-08
3.83501e-10
2.4253e-08
5.75266e-10
2.39488e-08
7.64403e-10
2.35703e-08
9.49943e-10
2.31192e-08
1.1309e-09
2.25979e-08
1.30628e-09
2.20089e-08
1.47507e-09
2.13554e-08
1.63624e-09
2.06406e-08
1.78875e-09
1.98685e-08
1.93155e-09
1.90434e-08
2.06356e-09
1.81699e-08
2.18372e-09
1.72532e-08
2.29095e-09
1.62988e-08
2.38418e-09
1.53125e-08
2.46233e-09
1.43007e-08
2.52436e-09
1.32701e-08
2.56924e-09
1.22277e-08
2.59599e-09
1.11808e-08
2.60368e-09
1.01371e-08
2.59145e-09
9.10452e-09
2.55855e-09
8.09102e-09
2.50435e-09
7.10482e-09
2.42838e-09
6.15412e-09
2.33039e-09
5.24706e-09
2.2104e-09
4.39161e-09
2.06876e-09
3.5954e-09
1.90626e-09
2.86559e-09
1.72423e-09
2.20874e-09
1.52467e-09
1.63055e-09
1.31048e-09
1.1358e-09
1.08558e-09
7.28088e-10
8.55279e-10
4.09844e-10
6.26486e-10
1.82291e-10
4.08153e-10
4.56969e-11
2.11852e-10
5.27013e-11
6.88525e-11
-1.26045e-10
2.66592e-10
-4.21067e-10
5.85928e-10
-7.44026e-10
1.02044e-09
-1.0808e-09
1.56389e-09
-1.42016e-09
2.2098e-09
-1.75311e-09
2.9513e-09
-2.07254e-09
3.78101e-09
-2.37289e-09
4.69106e-09
-2.64994e-09
5.67318e-09
-2.9006e-09
6.71869e-09
-3.12272e-09
7.8187e-09
-3.31488e-09
8.96412e-09
-3.47631e-09
1.01458e-08
-3.60674e-09
1.13547e-08
-3.7063e-09
1.25817e-08
-3.77546e-09
1.38179e-08
-3.81492e-09
1.50549e-08
-3.82561e-09
1.62841e-08
-3.80858e-09
1.74975e-08
-3.76503e-09
1.86876e-08
-3.69624e-09
1.98468e-08
-3.60352e-09
2.09683e-08
-3.48827e-09
2.20456e-08
-3.35188e-09
2.30724e-08
-3.19578e-09
2.40431e-08
-3.02138e-09
2.49525e-08
-2.83012e-09
2.57956e-08
-2.6234e-09
2.6568e-08
-2.40264e-09
2.72658e-08
-2.16923e-09
2.78852e-08
-1.92456e-09
2.84233e-08
-1.67e-09
2.88771e-08
-1.40692e-09
2.92446e-08
-1.13668e-09
2.95237e-08
-8.60632e-10
2.9713e-08
-5.80134e-10
2.98115e-08
-2.96536e-10
2.98186e-08
-1.11987e-11
2.97341e-08
2.74514e-10
2.95584e-08
5.59225e-10
2.92921e-08
8.41545e-10
2.89364e-08
1.12007e-09
2.8493e-08
1.39338e-09
2.79638e-08
1.66002e-09
2.73515e-08
1.91855e-09
2.66591e-08
2.16748e-09
2.589e-08
2.40531e-09
2.50483e-08
2.63052e-09
2.41382e-08
2.84158e-09
2.31648e-08
3.03695e-09
2.21335e-08
3.21508e-09
2.105e-08
3.37441e-09
1.99207e-08
3.51341e-09
1.87525e-08
3.63056e-09
1.75525e-08
3.72437e-09
1.63283e-08
3.7934e-09
1.5088e-08
3.83627e-09
1.384e-08
3.8517e-09
1.25929e-08
3.83853e-09
1.13557e-08
3.79572e-09
1.01376e-08
3.72245e-09
8.94785e-09
3.61811e-09
7.79585e-09
3.48239e-09
6.6909e-09
3.31534e-09
5.6422e-09
3.11744e-09
4.65873e-09
2.88973e-09
3.74909e-09
2.63385e-09
2.92147e-09
2.35228e-09
2.18352e-09
2.04841e-09
1.5423e-09
1.7268e-09
1.00426e-09
1.39331e-09
5.75326e-10
1.05541e-09
2.611e-10
7.22376e-10
6.72052e-11
4.05745e-10
1.1991e-10
8.7503e-11
-2.13548e-10
3.36003e-10
-6.69567e-10
7.33179e-10
-1.1412e-09
1.268e-09
-1.61562e-09
1.93014e-09
-2.0823e-09
2.70966e-09
-2.53262e-09
3.59669e-09
-2.95957e-09
4.58138e-09
-3.35758e-09
5.65378e-09
-3.72233e-09
6.8038e-09
-4.05063e-09
8.02129e-09
-4.34021e-09
9.29604e-09
-4.58962e-09
1.06178e-08
-4.79808e-09
1.19764e-08
-4.96537e-09
1.33619e-08
-5.09174e-09
1.47643e-08
-5.17782e-09
1.61739e-08
-5.22456e-09
1.75814e-08
-5.23313e-09
1.89778e-08
-5.20492e-09
2.03542e-08
-5.14147e-09
2.17024e-08
-5.04441e-09
2.30143e-08
-4.91548e-09
2.42825e-08
-4.75648e-09
2.54999e-08
-4.56923e-09
2.66597e-08
-4.35561e-09
2.77558e-08
-4.11747e-09
2.87824e-08
-3.8567e-09
2.97341e-08
-3.57516e-09
3.06062e-08
-3.27472e-09
3.13942e-08
-2.95724e-09
3.20943e-08
-2.62456e-09
3.27028e-08
-2.27851e-09
3.32168e-08
-1.92093e-09
3.36337e-08
-1.55362e-09
3.39515e-08
-1.1784e-09
3.41685e-08
-7.97089e-10
3.42834e-08
-4.11509e-10
3.42957e-08
-2.34866e-11
3.42051e-08
3.6514e-10
3.40118e-08
7.52516e-10
3.37166e-08
1.13677e-09
3.33207e-08
1.516e-09
3.28258e-08
1.88829e-09
3.22341e-08
2.2517e-09
3.15484e-08
2.60426e-09
3.07719e-08
2.94397e-09
2.99084e-08
3.26881e-09
2.89622e-08
3.57674e-09
2.79381e-08
3.8657e-09
2.68414e-08
4.13363e-09
2.56781e-08
4.37844e-09
2.44544e-08
4.59807e-09
2.31774e-08
4.79046e-09
2.18543e-08
4.95361e-09
2.04932e-08
5.08553e-09
1.91022e-08
5.18433e-09
1.76903e-08
5.24821e-09
1.62665e-08
5.27547e-09
1.48405e-08
5.2646e-09
1.34219e-08
5.21425e-09
1.2021e-08
5.12334e-09
1.06481e-08
4.99108e-09
9.31344e-09
4.81701e-09
8.02765e-09
4.60114e-09
6.80114e-09
4.34395e-09
5.6443e-09
4.04656e-09
4.56736e-09
3.71079e-09
3.58035e-09
3.33929e-09
2.69306e-09
2.9357e-09
1.91508e-09
2.50478e-09
1.25583e-09
2.05255e-09
7.24746e-10
1.5865e-09
3.31429e-10
1.11569e-09
8.60727e-11
6.51099e-10
2.05983e-10
1.03611e-10
-3.17158e-10
3.96623e-10
-9.6258e-10
8.62813e-10
-1.60739e-09
1.48734e-09
-2.24015e-09
2.25636e-09
-2.85132e-09
3.1567e-09
-3.43296e-09
4.17569e-09
-3.97856e-09
5.30098e-09
-4.48287e-09
6.52049e-09
-4.94184e-09
7.82231e-09
-5.35245e-09
9.19471e-09
-5.71261e-09
1.06261e-08
-6.02103e-09
1.21052e-08
-6.27713e-09
1.36207e-08
-6.4809e-09
1.51618e-08
-6.63283e-09
1.67178e-08
-6.73383e-09
1.82784e-08
-6.78515e-09
1.98336e-08
-6.78832e-09
2.13738e-08
-6.7451e-09
2.28897e-08
-6.65741e-09
2.43726e-08
-6.52731e-09
2.58141e-08
-6.35698e-09
2.72063e-08
-6.14865e-09
2.85417e-08
-5.9046e-09
2.98133e-08
-5.62717e-09
3.10145e-08
-5.31869e-09
3.21393e-08
-4.9815e-09
3.31821e-08
-4.61796e-09
3.41378e-08
-4.23039e-09
3.50017e-08
-3.82113e-09
3.57696e-08
-3.39249e-09
3.64379e-08
-2.94679e-09
3.70033e-08
-2.48631e-09
3.74631e-08
-2.01337e-09
3.78149e-08
-1.53024e-09
3.80571e-08
-1.03923e-09
3.81882e-08
-5.42645e-10
3.82076e-08
-4.27964e-11
3.81147e-08
4.57978e-10
3.79099e-08
9.57322e-10
3.75939e-08
1.45285e-09
3.71677e-08
1.94216e-09
3.66332e-08
2.42279e-09
3.59927e-08
2.89228e-09
3.52488e-08
3.34811e-09
3.44051e-08
3.78774e-09
3.34653e-08
4.2086e-09
3.2434e-08
4.60807e-09
3.13162e-08
4.98354e-09
3.01175e-08
5.33237e-09
2.8844e-08
5.65192e-09
2.75025e-08
5.93956e-09
2.61003e-08
6.19269e-09
2.46452e-08
6.40873e-09
2.31456e-08
6.5852e-09
2.16102e-08
6.71969e-09
2.00486e-08
6.80989e-09
1.84704e-08
6.85368e-09
1.68859e-08
6.8491e-09
1.53057e-08
6.79445e-09
1.37408e-08
6.68829e-09
1.22023e-08
6.52955e-09
1.07018e-08
6.31754e-09
9.25089e-09
6.05208e-09
7.86132e-09
5.73353e-09
6.545e-09
5.3629e-09
5.31384e-09
4.94195e-09
4.17984e-09
4.4733e-09
3.15501e-09
3.96054e-09
2.25149e-09
3.40831e-09
1.48157e-09
2.82247e-09
8.57878e-10
2.21019e-09
3.93552e-10
1.58001e-09
1.0254e-10
9.42111e-10
3.0852e-10
1.17582e-10
-4.3474e-10
4.49528e-10
-1.29453e-09
9.7647e-10
-2.13433e-09
1.6804e-09
-2.94409e-09
2.54442e-09
-3.71534e-09
3.5525e-09
-4.44104e-09
4.68935e-09
-5.11541e-09
5.94031e-09
-5.73383e-09
7.29122e-09
-6.29274e-09
8.72837e-09
-6.7896e-09
1.02385e-08
-7.22272e-09
1.18087e-08
-7.59121e-09
1.34264e-08
-7.89487e-09
1.50796e-08
-8.13407e-09
1.67565e-08
-8.30972e-09
1.84458e-08
-8.42311e-09
2.01365e-08
-8.47592e-09
2.18183e-08
-8.47012e-09
2.34811e-08
-8.4079e-09
2.51154e-08
-8.29166e-09
2.6712e-08
-8.12391e-09
2.82623e-08
-7.9073e-09
2.97582e-08
-7.64454e-09
3.1192e-08
-7.33842e-09
3.25566e-08
-6.99172e-09
3.38452e-08
-6.60728e-09
3.50516e-08
-6.18791e-09
3.61701e-08
-5.73645e-09
3.71954e-08
-5.2557e-09
3.81228e-08
-4.74848e-09
3.89478e-08
-4.21758e-09
3.96668e-08
-3.66577e-09
4.02764e-08
-3.09584e-09
4.07736e-08
-2.51054e-09
4.1156e-08
-1.91267e-09
4.14218e-08
-1.30499e-09
4.15694e-08
-6.9029e-10
4.1598e-08
-7.13898e-11
4.15071e-08
5.48879e-10
4.12968e-08
1.16765e-09
4.09677e-08
1.78202e-09
4.05208e-08
2.38906e-09
3.99578e-08
2.98577e-09
3.9281e-08
3.56914e-09
3.8493e-08
4.13608e-09
3.75973e-08
4.68349e-09
3.65977e-08
5.20821e-09
3.54987e-08
5.70705e-09
3.43055e-08
6.17678e-09
3.30237e-08
6.61418e-09
3.16597e-08
7.01599e-09
3.02203e-08
7.37899e-09
2.8713e-08
7.69997e-09
2.7146e-08
7.97576e-09
2.55279e-08
8.2033e-09
2.3868e-08
8.3796e-09
2.21761e-08
8.50181e-09
2.04626e-08
8.56728e-09
1.87381e-08
8.57356e-09
1.70141e-08
8.51846e-09
1.53023e-08
8.40013e-09
1.36148e-08
8.21707e-09
1.19641e-08
7.96825e-09
1.03631e-08
7.65314e-09
8.82483e-09
7.27181e-09
7.36275e-09
6.82499e-09
5.99054e-09
6.31418e-09
4.72212e-09
5.74174e-09
3.57172e-09
5.11095e-09
2.55391e-09
4.42613e-09
1.68366e-09
3.69273e-09
9.76495e-10
2.91737e-09
4.48589e-10
2.10792e-09
1.17017e-10
1.27368e-09
4.25534e-10
1.29795e-10
-5.64536e-10
4.95847e-10
-1.66058e-09
1.07611e-09
-2.7146e-09
1.84985e-09
-3.71782e-09
2.79747e-09
-4.66296e-09
3.90042e-09
-5.54399e-09
5.14104e-09
-6.35603e-09
6.50249e-09
-7.09529e-09
7.9687e-09
-7.75896e-09
9.52428e-09
-8.34517e-09
1.11545e-08
-8.85289e-09
1.28451e-08
-9.28184e-09
1.45826e-08
-9.63238e-09
1.6354e-08
-9.90546e-09
1.81468e-08
-1.01025e-08
1.99491e-08
-1.02254e-08
2.17496e-08
-1.02764e-08
2.35374e-08
-1.02579e-08
2.53022e-08
-1.01727e-08
2.70342e-08
-1.00237e-08
2.87243e-08
-9.81398e-09
3.03636e-08
-9.54665e-09
3.19441e-08
-9.22496e-09
3.34578e-08
-8.8522e-09
3.48978e-08
-8.43166e-09
3.62571e-08
-7.96665e-09
3.75297e-08
-7.46049e-09
3.87098e-08
-6.91649e-09
3.9792e-08
-6.33792e-09
4.07716e-08
-5.72806e-09
4.16442e-08
-5.09017e-09
4.24059e-08
-4.42749e-09
4.30533e-08
-3.74325e-09
4.35834e-08
-3.04068e-09
4.39938e-08
-2.32303e-09
4.42823e-08
-1.59352e-09
4.44475e-08
-8.55439e-10
4.44881e-08
-1.12064e-10
4.44037e-08
6.33276e-10
4.41942e-08
1.37721e-09
4.38599e-08
2.11634e-09
4.34017e-08
2.84718e-09
4.28213e-08
3.56622e-09
4.21206e-08
4.26986e-09
4.13022e-08
4.95449e-09
4.03693e-08
5.61638e-09
3.93257e-08
6.2518e-09
3.81758e-08
6.85693e-09
3.69247e-08
7.42794e-09
3.55779e-08
7.96096e-09
3.41418e-08
8.45209e-09
3.26233e-08
8.89748e-09
3.103e-08
9.29324e-09
2.93702e-08
9.63559e-09
2.76527e-08
9.9208e-09
2.5887e-08
1.01452e-08
2.40834e-08
1.03055e-08
2.22525e-08
1.03982e-08
2.04058e-08
1.04203e-08
1.85551e-08
1.03692e-08
1.67129e-08
1.02423e-08
1.48923e-08
1.00377e-08
1.31068e-08
9.75375e-09
1.13704e-08
9.38954e-09
9.69763e-09
8.94463e-09
8.10334e-09
8.41928e-09
6.60298e-09
7.81456e-09
5.21238e-09
7.13234e-09
3.94791e-09
6.37543e-09
2.82642e-09
5.54762e-09
1.86537e-09
4.65378e-09
1.08287e-09
3.69987e-09
4.97803e-10
2.693e-09
1.29913e-10
1.64157e-09
5.55446e-10
1.40542e-10
-7.05079e-10
5.36493e-10
-2.05653e-09
1.16337e-09
-3.34148e-09
1.99798e-09
-4.55243e-09
3.01831e-09
-5.68329e-09
4.20349e-09
-6.72918e-09
5.53374e-09
-7.68628e-09
6.99024e-09
-8.55179e-09
8.55516e-09
-9.32388e-09
1.02116e-08
-1.00016e-08
1.19433e-08
-1.05847e-08
1.37351e-08
-1.10737e-08
1.55725e-08
-1.14698e-08
1.74417e-08
-1.17746e-08
1.93295e-08
-1.19904e-08
2.12237e-08
-1.21196e-08
2.31126e-08
-1.21652e-08
2.4985e-08
-1.21303e-08
2.68305e-08
-1.20183e-08
2.86394e-08
-1.18326e-08
3.04023e-08
-1.15769e-08
3.21106e-08
-1.1255e-08
3.37561e-08
-1.08705e-08
3.53313e-08
-1.04274e-08
3.68291e-08
-9.92942e-09
3.82428e-08
-9.38037e-09
3.95663e-08
-8.78406e-09
4.07941e-08
-8.14425e-09
4.19208e-08
-7.46469e-09
4.29418e-08
-6.74909e-09
4.38528e-08
-6.00114e-09
4.46498e-08
-5.22453e-09
4.53295e-08
-4.42292e-09
4.58887e-08
-3.59996e-09
4.6325e-08
-2.75932e-09
4.66361e-08
-1.90468e-09
4.68204e-08
-1.03975e-09
4.68766e-08
-1.6828e-10
4.68039e-08
7.05949e-10
4.6602e-08
1.57909e-09
4.62711e-08
2.44724e-09
4.58119e-08
3.30641e-09
4.52255e-08
4.15256e-09
4.45138e-08
4.98155e-09
4.36791e-08
5.78918e-09
4.27243e-08
6.57116e-09
4.16529e-08
7.32312e-09
4.04692e-08
8.04064e-09
3.91779e-08
8.71923e-09
3.77845e-08
9.35435e-09
3.62951e-08
9.94145e-09
3.47166e-08
1.0476e-08
3.30565e-08
1.09533e-08
3.13231e-08
1.1369e-08
2.95253e-08
1.17185e-08
2.76728e-08
1.19977e-08
2.57761e-08
1.22022e-08
2.38462e-08
1.23281e-08
2.18949e-08
1.23716e-08
1.99348e-08
1.23293e-08
1.7979e-08
1.2198e-08
1.60414e-08
1.19752e-08
1.41366e-08
1.16586e-08
1.22796e-08
1.12465e-08
1.04864e-08
1.07379e-08
8.77323e-09
1.01324e-08
7.15731e-09
9.43047e-09
5.65631e-09
8.63333e-09
4.28859e-09
7.74314e-09
3.0732e-09
6.76301e-09
2.02988e-09
5.69709e-09
1.17916e-09
4.55059e-09
5.42333e-10
3.32982e-09
1.41578e-10
2.04233e-09
6.97028e-10
1.50014e-10
-8.55093e-10
5.72053e-10
-2.47857e-09
1.23928e-09
-4.00871e-09
2.12618e-09
-5.43933e-09
3.20849e-09
-6.76561e-09
4.46323e-09
-7.98392e-09
5.86863e-09
-9.09168e-09
7.40412e-09
-1.00873e-08
9.05025e-09
-1.097e-08
1.07887e-08
-1.174e-08
1.26021e-08
-1.23981e-08
1.44744e-08
-1.29459e-08
1.639e-08
-1.33854e-08
1.83347e-08
-1.37193e-08
2.02949e-08
-1.39506e-08
2.2258e-08
-1.40827e-08
2.42121e-08
-1.41193e-08
2.6146e-08
-1.40642e-08
2.80493e-08
-1.39216e-08
2.99123e-08
-1.36956e-08
3.17259e-08
-1.33906e-08
3.34818e-08
-1.30108e-08
3.51718e-08
-1.25606e-08
3.67888e-08
-1.20444e-08
3.83259e-08
-1.14665e-08
3.97767e-08
-1.08312e-08
4.11354e-08
-1.01428e-08
4.23966e-08
-9.40544e-09
4.35552e-08
-8.62333e-09
4.46067e-08
-7.80061e-09
4.55469e-08
-6.94134e-09
4.6372e-08
-6.04961e-09
4.70785e-08
-5.12945e-09
4.76635e-08
-4.18492e-09
4.81242e-08
-3.22004e-09
4.84584e-08
-2.23891e-09
4.86642e-08
-1.24562e-09
4.87402e-08
-2.44317e-10
4.86854e-08
7.60777e-10
4.84991e-08
1.76538e-09
4.81812e-08
2.76512e-09
4.7732e-08
3.75555e-09
4.71525e-08
4.7321e-09
4.64439e-08
5.6901e-09
4.56082e-08
6.6248e-09
4.4648e-08
7.53133e-09
4.35664e-08
8.40469e-09
4.23672e-08
9.23984e-09
4.10548e-08
1.00316e-08
3.96344e-08
1.07748e-08
3.81118e-08
1.1464e-08
3.64936e-08
1.20941e-08
3.47871e-08
1.26597e-08
3.30006e-08
1.31555e-08
3.11429e-08
1.35762e-08
2.92238e-08
1.39168e-08
2.72537e-08
1.41722e-08
2.52441e-08
1.43376e-08
2.32071e-08
1.44085e-08
2.11558e-08
1.43806e-08
1.91039e-08
1.42499e-08
1.70661e-08
1.4013e-08
1.50579e-08
1.36667e-08
1.30956e-08
1.32088e-08
1.11963e-08
1.26372e-08
9.37772e-09
1.19509e-08
7.6587e-09
1.11495e-08
6.0587e-09
1.02333e-08
4.59801e-09
9.20382e-09
3.29775e-09
8.06326e-09
2.17986e-09
6.81497e-09
1.2671e-09
5.46334e-09
5.83092e-10
4.01383e-09
1.52287e-10
2.47313e-09
8.49319e-10
1.58296e-10
-1.01339e-09
6.02752e-10
-2.92303e-09
1.30416e-09
-4.71012e-09
2.2347e-09
-6.36987e-09
3.36799e-09
-7.89889e-09
4.67903e-09
-9.29496e-09
6.14424e-09
-1.05569e-08
7.74143e-09
-1.16845e-08
9.44976e-09
-1.26783e-08
1.12497e-08
-1.35399e-08
1.31229e-08
-1.42714e-08
1.50525e-08
-1.48754e-08
1.70223e-08
-1.53553e-08
1.90177e-08
-1.57147e-08
2.10249e-08
-1.59578e-08
2.30311e-08
-1.60889e-08
2.50245e-08
-1.61126e-08
2.69939e-08
-1.60337e-08
2.89294e-08
-1.5857e-08
3.08213e-08
-1.55876e-08
3.26611e-08
-1.52303e-08
3.44406e-08
-1.47903e-08
3.61524e-08
-1.42724e-08
3.77896e-08
-1.36816e-08
3.93457e-08
-1.30226e-08
4.08149e-08
-1.23004e-08
4.21916e-08
-1.15195e-08
4.34708e-08
-1.06846e-08
4.46477e-08
-9.80029e-09
4.57181e-08
-8.871e-09
4.6678e-08
-7.90118e-09
4.75236e-08
-6.89522e-09
4.82516e-08
-5.8575e-09
4.88591e-08
-4.79235e-09
4.93432e-08
-3.70416e-09
4.97016e-08
-2.59732e-09
4.99322e-08
-1.47626e-09
5.00334e-08
-3.45485e-10
5.00037e-08
7.9043e-10
4.98423e-08
1.92681e-09
4.95486e-08
3.05888e-09
4.91224e-08
4.18173e-09
4.85641e-08
5.29034e-09
4.78747e-08
6.37953e-09
4.70555e-08
7.44401e-09
4.61085e-08
8.47833e-09
4.50363e-08
9.47689e-09
4.38421e-08
1.0434e-08
4.25299e-08
1.13438e-08
4.11044e-08
1.22003e-08
3.95709e-08
1.29976e-08
3.79356e-08
1.37294e-08
3.62055e-08
1.43898e-08
3.43885e-08
1.49724e-08
3.24934e-08
1.54713e-08
3.05298e-08
1.58804e-08
2.85081e-08
1.61938e-08
2.644e-08
1.64057e-08
2.43379e-08
1.65106e-08
2.22152e-08
1.65033e-08
2.00862e-08
1.63788e-08
1.79664e-08
1.61328e-08
1.58721e-08
1.57611e-08
1.38205e-08
1.52603e-08
1.183e-08
1.46277e-08
9.91992e-09
1.3861e-08
8.11043e-09
1.2959e-08
6.42276e-09
1.1921e-08
4.8791e-09
1.07475e-08
3.50255e-09
9.43979e-09
2.31718e-09
8.00033e-09
1.34796e-09
6.43255e-09
6.20735e-10
4.74105e-09
1.62237e-10
2.93163e-09
1.01156e-09
1.65371e-10
-1.17876e-09
6.28441e-10
-3.3861e-09
1.35752e-09
-5.4392e-09
2.3225e-09
-7.33485e-09
3.49487e-09
-9.07126e-09
4.84774e-09
-1.06478e-08
6.35585e-09
-1.2065e-08
7.99557e-09
-1.33242e-08
9.74482e-09
-1.44276e-08
1.15831e-08
-1.53782e-08
1.34913e-08
-1.61796e-08
1.54519e-08
-1.6836e-08
1.74485e-08
-1.73519e-08
1.94663e-08
-1.77325e-08
2.14914e-08
-1.79829e-08
2.35112e-08
-1.81087e-08
2.55141e-08
-1.81155e-08
2.74895e-08
-1.80091e-08
2.94277e-08
-1.77952e-08
3.13198e-08
-1.74797e-08
3.31577e-08
-1.70682e-08
3.49339e-08
-1.65665e-08
3.66416e-08
-1.59801e-08
3.82745e-08
-1.53144e-08
3.98268e-08
-1.45749e-08
4.12931e-08
-1.37667e-08
4.26686e-08
-1.2895e-08
4.39486e-08
-1.19646e-08
4.51289e-08
-1.09805e-08
4.62054e-08
-9.94752e-09
4.71745e-08
-8.87025e-09
4.80327e-08
-7.75337e-09
4.87767e-08
-6.60148e-09
4.94035e-08
-5.41917e-09
4.99104e-08
-4.21104e-09
5.02948e-08
-2.98173e-09
5.05545e-08
-1.73591e-09
5.06874e-08
-4.78364e-10
5.06918e-08
7.86051e-10
5.05663e-08
2.05234e-09
5.03098e-08
3.31538e-09
4.99216e-08
4.56988e-09
4.94016e-08
5.81039e-09
4.87499e-08
7.03127e-09
4.79672e-08
8.22672e-09
4.70548e-08
9.39072e-09
4.60146e-08
1.05171e-08
4.48492e-08
1.15995e-08
4.35617e-08
1.26313e-08
4.2156e-08
1.36059e-08
4.06371e-08
1.45165e-08
3.90105e-08
1.53561e-08
3.72827e-08
1.61176e-08
3.54611e-08
1.6794e-08
3.35542e-08
1.73783e-08
3.15712e-08
1.78634e-08
2.95227e-08
1.82424e-08
2.74201e-08
1.85083e-08
2.5276e-08
1.86547e-08
2.31041e-08
1.86752e-08
2.09193e-08
1.85637e-08
1.87374e-08
1.83146e-08
1.65758e-08
1.79228e-08
1.44525e-08
1.73836e-08
1.23871e-08
1.66931e-08
1.04001e-08
1.5848e-08
8.51339e-09
1.48457e-08
6.74976e-09
1.36846e-08
5.13323e-09
1.2364e-08
3.6889e-09
1.08841e-08
2.44292e-09
9.24632e-09
1.42246e-09
7.45302e-09
6.55657e-10
5.50785e-09
1.71549e-10
3.41574e-09
1.1831e-09
1.71117e-10
-1.34988e-09
6.48579e-10
-3.86356e-09
1.39808e-09
-6.1887e-09
2.38714e-09
-8.32391e-09
3.58516e-09
-1.02693e-08
4.96344e-09
-1.20261e-08
6.49517e-09
-1.35967e-08
8.15543e-09
-1.49844e-08
9.92114e-09
-1.61933e-08
1.1771e-08
-1.72281e-08
1.36855e-08
-1.80941e-08
1.56468e-08
-1.87972e-08
1.76384e-08
-1.93436e-08
1.96456e-08
-1.97397e-08
2.16548e-08
-1.99921e-08
2.36539e-08
-2.01078e-08
2.56319e-08
-2.00935e-08
2.75789e-08
-1.9956e-08
2.94858e-08
-1.97022e-08
3.13447e-08
-1.93385e-08
3.31482e-08
-1.88717e-08
3.48898e-08
-1.83081e-08
3.65636e-08
-1.76538e-08
3.8164e-08
-1.69149e-08
3.96862e-08
-1.60971e-08
4.11256e-08
-1.52061e-08
4.24779e-08
-1.42473e-08
4.37392e-08
-1.32259e-08
4.49058e-08
-1.21471e-08
4.59741e-08
-1.10158e-08
4.69408e-08
-9.83695e-09
4.78027e-08
-8.61525e-09
4.85567e-08
-7.35546e-09
4.91999e-08
-6.06229e-09
4.97293e-08
-4.74046e-09
5.01423e-08
-3.39473e-09
5.04364e-08
-2.02995e-09
5.06091e-08
-6.51034e-10
5.06582e-08
7.36943e-10
5.05818e-08
2.12876e-09
5.03782e-08
3.51903e-09
5.0046e-08
4.90216e-09
4.95841e-08
6.27232e-09
4.89919e-08
7.62349e-09
4.82693e-08
8.94936e-09
4.74166e-08
1.02434e-08
4.64348e-08
1.14989e-08
4.53256e-08
1.27088e-08
4.40912e-08
1.38658e-08
4.27347e-08
1.49624e-08
4.12601e-08
1.59911e-08
3.96722e-08
1.6944e-08
3.79767e-08
1.78131e-08
3.61804e-08
1.85904e-08
3.42912e-08
1.92676e-08
3.2318e-08
1.98366e-08
3.0271e-08
2.02894e-08
2.81615e-08
2.06179e-08
2.6002e-08
2.08143e-08
2.38064e-08
2.08708e-08
2.15898e-08
2.07803e-08
1.93687e-08
2.05358e-08
1.71608e-08
2.01306e-08
1.49855e-08
1.9559e-08
1.28631e-08
1.88156e-08
1.08155e-08
1.78956e-08
8.86588e-09
1.67953e-08
7.03883e-09
1.55117e-08
5.36014e-09
1.40427e-08
3.85687e-09
1.23874e-08
2.55729e-09
1.05459e-08
1.49084e-09
8.51948e-09
6.88007e-10
6.31069e-09
1.80272e-10
3.92347e-09
1.36337e-09
1.75306e-10
-1.52519e-09
6.62221e-10
-4.35048e-09
1.42365e-09
-6.95013e-09
2.4247e-09
-9.32496e-09
3.63269e-09
-1.14773e-08
5.01717e-09
-1.34106e-08
6.54994e-09
-1.51295e-08
8.205e-09
-1.66395e-08
9.9585e-09
-1.79468e-08
1.17887e-08
-1.90583e-08
1.36758e-08
-1.99812e-08
1.5602e-08
-2.07234e-08
1.75513e-08
-2.12928e-08
1.95092e-08
-2.16976e-08
2.14629e-08
-2.19459e-08
2.34012e-08
-2.20461e-08
2.53138e-08
-2.20061e-08
2.7192e-08
-2.18342e-08
2.90278e-08
-2.1538e-08
3.08144e-08
-2.11251e-08
3.25457e-08
-2.0603e-08
3.42163e-08
-1.99787e-08
3.58214e-08
-1.92589e-08
3.73567e-08
-1.84502e-08
3.88183e-08
-1.75587e-08
4.02027e-08
-1.65905e-08
4.15066e-08
-1.55511e-08
4.27267e-08
-1.44461e-08
4.38602e-08
-1.32805e-08
4.4904e-08
-1.20596e-08
4.58552e-08
-1.07882e-08
4.6711e-08
-9.47105e-09
4.74685e-08
-8.11294e-09
4.81248e-08
-6.71855e-09
4.86769e-08
-5.29259e-09
4.9122e-08
-3.83983e-09
4.94572e-08
-2.3651e-09
4.96795e-08
-8.73383e-10
4.97863e-08
6.30174e-10
4.97749e-08
2.14024e-09
4.96427e-08
3.65125e-09
4.93874e-08
5.15738e-09
4.90072e-08
6.65256e-09
4.85003e-08
8.13037e-09
4.78656e-08
9.58414e-09
4.71022e-08
1.10068e-08
4.621e-08
1.23911e-08
4.51894e-08
1.37294e-08
4.40415e-08
1.50136e-08
4.27685e-08
1.62355e-08
4.1373e-08
1.73867e-08
3.98588e-08
1.84582e-08
3.82308e-08
1.94411e-08
3.64949e-08
2.03263e-08
3.46581e-08
2.11044e-08
3.27287e-08
2.1766e-08
3.07163e-08
2.23018e-08
2.86319e-08
2.27023e-08
2.64879e-08
2.29583e-08
2.4298e-08
2.30608e-08
2.20775e-08
2.30008e-08
1.98433e-08
2.277e-08
1.76138e-08
2.23602e-08
1.54087e-08
2.17641e-08
1.32497e-08
2.09746e-08
1.11597e-08
1.99856e-08
9.16339e-09
1.87916e-08
7.2869e-09
1.73882e-08
5.55784e-09
1.57718e-08
4.00529e-09
1.394e-08
2.6597e-09
1.18915e-08
1.55284e-09
9.62634e-09
7.17707e-10
7.14583e-09
1.88397e-10
4.45278e-09
1.55177e-09
1.77594e-10
-1.70278e-09
6.67993e-10
-4.84088e-09
1.43116e-09
-7.7133e-09
2.4297e-09
-1.03235e-08
3.62889e-09
-1.26765e-08
4.99667e-09
-1.47784e-08
6.5036e-09
-1.66364e-08
8.12285e-09
-1.82588e-08
9.8301e-09
-1.9654e-08
1.16034e-08
-2.08316e-08
1.34233e-08
-2.18011e-08
1.52722e-08
-2.25724e-08
1.71349e-08
-2.31555e-08
1.89979e-08
-2.35605e-08
2.08494e-08
-2.37974e-08
2.26794e-08
-2.3876e-08
2.4479e-08
-2.38058e-08
2.6241e-08
-2.35961e-08
2.79589e-08
-2.32559e-08
2.96275e-08
-2.27937e-08
3.12421e-08
-2.22177e-08
3.27991e-08
-2.15356e-08
3.4295e-08
-2.07548e-08
3.5727e-08
-1.98822e-08
3.70926e-08
-1.89244e-08
3.83895e-08
-1.78874e-08
3.96156e-08
-1.67772e-08
4.07686e-08
-1.55991e-08
4.18464e-08
-1.43584e-08
4.28469e-08
-1.30601e-08
4.37677e-08
-1.1709e-08
4.46063e-08
-1.03097e-08
4.53601e-08
-8.86673e-09
4.60262e-08
-7.38468e-09
4.66016e-08
-5.86806e-09
4.70832e-08
-4.32147e-09
4.74677e-08
-2.7496e-09
4.77517e-08
-1.15733e-09
4.79315e-08
4.50274e-10
4.80039e-08
2.06789e-09
4.79652e-08
3.68992e-09
4.78121e-08
5.31042e-09
4.75415e-08
6.92313e-09
4.71505e-08
8.5214e-09
4.66364e-08
1.00982e-08
4.59972e-08
1.1646e-08
4.52312e-08
1.31571e-08
4.43374e-08
1.46231e-08
4.33156e-08
1.60354e-08
4.21663e-08
1.73848e-08
4.08909e-08
1.8662e-08
3.94919e-08
1.98572e-08
3.79729e-08
2.09602e-08
3.63384e-08
2.19607e-08
3.45947e-08
2.28481e-08
3.2749e-08
2.36117e-08
3.08103e-08
2.42406e-08
2.87887e-08
2.47239e-08
2.66963e-08
2.50507e-08
2.45466e-08
2.52104e-08
2.23548e-08
2.51925e-08
2.01381e-08
2.49867e-08
1.79151e-08
2.45833e-08
1.57063e-08
2.39728e-08
1.35343e-08
2.31467e-08
1.1423e-08
2.20968e-08
9.39857e-09
2.08161e-08
7.48862e-09
1.92981e-08
5.72264e-09
1.75378e-08
4.13176e-09
1.55309e-08
2.74871e-09
1.32746e-08
1.60773e-09
1.07673e-08
7.44467e-10
8.00909e-09
1.95863e-10
5.00139e-09
1.74763e-09
1.77519e-10
-1.8803e-09
6.64062e-10
-5.32742e-09
1.4165e-09
-8.46573e-09
2.39492e-09
-1.13019e-08
3.56264e-09
-1.38442e-08
4.88611e-09
-1.61018e-08
6.33492e-09
-1.80853e-08
7.8817e-09
-1.98055e-08
9.50201e-09
-2.12744e-08
1.11742e-08
-2.25038e-08
1.28793e-08
-2.35062e-08
1.46008e-08
-2.42939e-08
1.63246e-08
-2.48793e-08
1.80385e-08
-2.52745e-08
1.97325e-08