/*--------------------------------*- C++ -*----------------------------------*\
  =========                 |
  \\      /  F ield         | OpenFOAM: The Open Source CFD Toolbox
   \\    /   O peration     | Website:  https://openfoam.org
    \\  /    A nd           | Version:  12
     \\/     M anipulation  |
\*---------------------------------------------------------------------------*/
FoamFile
{
    format      ascii;
    class       volVectorField;
    location    "9";
    object      U;
}
// * * * * * * * * * * * * * * * * * * * * * * * * * * * * * * * * * * * * * //

dimensions      [0 1 -1 0 0 0 0];

internalField   nonuniform List<vector> 
5625
(
(-2.63558e-07 5.89781e-07 0)
(-9.13211e-07 8.91787e-07 0)
(-1.34168e-06 7.85069e-07 0)
(-1.22282e-06 5.08335e-07 0)
(-3.25908e-07 1.74645e-07 0)
(1.43305e-06 -1.67115e-07 0)
(4.05956e-06 -4.92776e-07 0)
(7.51888e-06 -7.89927e-07 0)
(1.17527e-05 -1.05311e-06 0)
(1.66886e-05 -1.28088e-06 0)
(2.22466e-05 -1.47395e-06 0)
(2.83435e-05 -1.6341e-06 0)
(3.48959e-05 -1.76354e-06 0)
(4.18215e-05 -1.86465e-06 0)
(4.9041e-05 -1.93977e-06 0)
(5.64778e-05 -1.99112e-06 0)
(6.40594e-05 -2.02076e-06 0)
(7.17169e-05 -2.03059e-06 0)
(7.93852e-05 -2.02237e-06 0)
(8.70034e-05 -1.99769e-06 0)
(9.45144e-05 -1.95802e-06 0)
(0.000101865 -1.90469e-06 0)
(0.000109005 -1.83895e-06 0)
(0.000115889 -1.76193e-06 0)
(0.000122475 -1.67471e-06 0)
(0.000128724 -1.57825e-06 0)
(0.000134599 -1.47349e-06 0)
(0.000140069 -1.36128e-06 0)
(0.000145104 -1.24244e-06 0)
(0.000149678 -1.11772e-06 0)
(0.000153767 -9.8786e-07 0)
(0.000157351 -8.53551e-07 0)
(0.000160412 -7.15462e-07 0)
(0.000162935 -5.74234e-07 0)
(0.000164907 -4.30498e-07 0)
(0.00016632 -2.84865e-07 0)
(0.000167165 -1.37946e-07 0)
(0.000167439 9.66115e-09 0)
(0.00016714 1.57339e-07 0)
(0.000166269 3.04501e-07 0)
(0.000164829 4.50522e-07 0)
(0.000162827 5.94768e-07 0)
(0.000160271 7.36594e-07 0)
(0.000157173 8.75335e-07 0)
(0.000153549 1.0103e-06 0)
(0.000149415 1.14077e-06 0)
(0.000144792 1.26599e-06 0)
(0.000139704 1.38518e-06 0)
(0.000134178 1.49751e-06 0)
(0.000128243 1.60211e-06 0)
(0.000121934 1.69806e-06 0)
(0.000115286 1.78439e-06 0)
(0.00010834 1.86007e-06 0)
(0.000101141 1.92399e-06 0)
(9.37345e-05 1.97498e-06 0)
(8.61729e-05 2.01179e-06 0)
(7.8511e-05 2.03306e-06 0)
(7.08076e-05 2.03735e-06 0)
(6.31254e-05 2.02307e-06 0)
(5.55309e-05 1.98854e-06 0)
(4.80943e-05 1.93192e-06 0)
(4.08893e-05 1.85125e-06 0)
(3.39931e-05 1.74444e-06 0)
(2.74854e-05 1.60931e-06 0)
(2.14481e-05 1.44372e-06 0)
(1.59636e-05 1.24569e-06 0)
(1.11136e-05 1.01378e-06 0)
(6.97561e-06 7.47661e-07 0)
(3.61857e-06 4.4924e-07 0)
(1.09633e-06 1.24513e-07 0)
(-5.61661e-07 -2.13537e-07 0)
(-1.36735e-06 -5.40315e-07 0)
(-1.41209e-06 -8.06728e-07 0)
(-9.34178e-07 -9.00736e-07 0)
(-2.63103e-07 -5.8847e-07 0)
(-1.02271e-07 1.3837e-06 0)
(1.01043e-07 1.45605e-06 0)
(1.40354e-06 -1.9093e-07 0)
(4.21334e-06 -2.78904e-06 0)
(8.79427e-06 -5.85504e-06 0)
(1.5266e-05 -9.08386e-06 0)
(2.36448e-05 -1.22798e-05 0)
(3.38748e-05 -1.53185e-05 0)
(4.58502e-05 -1.81233e-05 0)
(5.94312e-05 -2.06494e-05 0)
(7.44556e-05 -2.28731e-05 0)
(9.07475e-05 -2.47845e-05 0)
(0.000108124 -2.63829e-05 0)
(0.0001264 -2.76737e-05 0)
(0.000145391 -2.86661e-05 0)
(0.000164917 -2.93718e-05 0)
(0.0001848 -2.9804e-05 0)
(0.000204873 -2.99767e-05 0)
(0.000224973 -2.99044e-05 0)
(0.000244945 -2.96019e-05 0)
(0.000264645 -2.90836e-05 0)
(0.000283935 -2.83641e-05 0)
(0.000302685 -2.74574e-05 0)
(0.000320775 -2.63773e-05 0)
(0.000338094 -2.51372e-05 0)
(0.000354538 -2.37502e-05 0)
(0.000370012 -2.2229e-05 0)
(0.000384428 -2.0586e-05 0)
(0.000397709 -1.8833e-05 0)
(0.000409781 -1.69817e-05 0)
(0.000420583 -1.50436e-05 0)
(0.000430059 -1.30297e-05 0)
(0.000438158 -1.0951e-05 0)
(0.000444842 -8.81811e-06 0)
(0.000450075 -6.64172e-06 0)
(0.000453831 -4.43229e-06 0)
(0.000456092 -2.20025e-06 0)
(0.000456844 4.39495e-08 0)
(0.000456082 2.28987e-06 0)
(0.00045381 4.52697e-06 0)
(0.000450037 6.74463e-06 0)
(0.000444779 8.93207e-06 0)
(0.000438062 1.10783e-05 0)
(0.000429916 1.31723e-05 0)
(0.000420383 1.52025e-05 0)
(0.000409509 1.71573e-05 0)
(0.00039735 1.90248e-05 0)
(0.00038397 2.07928e-05 0)
(0.000369441 2.24487e-05 0)
(0.000353844 2.39798e-05 0)
(0.000337268 2.53727e-05 0)
(0.00031981 2.66142e-05 0)
(0.000301576 2.76905e-05 0)
(0.000282684 2.85875e-05 0)
(0.000263256 2.9291e-05 0)
(0.000243425 2.97867e-05 0)
(0.000223334 3.00601e-05 0)
(0.000203133 3.00967e-05 0)
(0.00018298 2.98822e-05 0)
(0.000163041 2.94027e-05 0)
(0.000143488 2.86452e-05 0)
(0.0001245 2.75975e-05 0)
(0.000106261 2.62496e-05 0)
(8.89542e-05 2.45941e-05 0)
(7.2766e-05 2.26279e-05 0)
(5.78774e-05 2.03542e-05 0)
(4.44607e-05 1.77857e-05 0)
(3.26733e-05 1.49496e-05 0)
(2.26483e-05 1.18939e-05 0)
(1.44829e-05 8.699e-06 0)
(8.22267e-06 5.49264e-06 0)
(3.83949e-06 2.47312e-06 0)
(1.19946e-06 -5.35881e-08 0)
(2.19211e-08 -1.60734e-06 0)
(-1.10318e-07 -1.43092e-06 0)
(8.16092e-08 5.42344e-07 0)
(1.86993e-06 -2.13828e-06 0)
(5.90328e-06 -7.37992e-06 0)
(1.24539e-05 -1.41364e-05 0)
(2.16116e-05 -2.16737e-05 0)
(3.34097e-05 -2.94784e-05 0)
(4.78166e-05 -3.71889e-05 0)
(6.47369e-05 -4.45535e-05 0)
(8.40236e-05 -5.14011e-05 0)
(0.000105491 -5.76194e-05 0)
(0.000128924 -6.31388e-05 0)
(0.000154091 -6.79205e-05 0)
(0.000180746 -7.19479e-05 0)
(0.000208637 -7.52204e-05 0)
(0.000237512 -7.7749e-05 0)
(0.000267118 -7.95528e-05 0)
(0.000297209 -8.06565e-05 0)
(0.000327543 -8.10891e-05 0)
(0.00035789 -8.0882e-05 0)
(0.000388025 -8.00685e-05 0)
(0.000417737 -7.86829e-05 0)
(0.000446824 -7.67598e-05 0)
(0.000475097 -7.4334e-05 0)
(0.000502377 -7.14403e-05 0)
(0.000528498 -6.81128e-05 0)
(0.000553305 -6.43854e-05 0)
(0.000576656 -6.02912e-05 0)
(0.000598418 -5.58628e-05 0)
(0.000618473 -5.11322e-05 0)
(0.000636713 -4.61306e-05 0)
(0.000653042 -4.08889e-05 0)
(0.000667374 -3.54375e-05 0)
(0.000679634 -2.9806e-05 0)
(0.000689761 -2.4024e-05 0)
(0.000697703 -1.81207e-05 0)
(0.000703417 -1.21252e-05 0)
(0.000706876 -6.06641e-06 0)
(0.000708058 2.67779e-08 0)
(0.000706957 6.12527e-06 0)
(0.000703576 1.21998e-05 0)
(0.000697929 1.8221e-05 0)
(0.000690041 2.41588e-05 0)
(0.000679949 2.9983e-05 0)
(0.000667703 3.56628e-05 0)
(0.000653361 4.11669e-05 0)
(0.000636996 4.64634e-05 0)
(0.000618692 5.15197e-05 0)
(0.000598546 5.63028e-05 0)
(0.000576666 6.07788e-05 0)
(0.000553173 6.49134e-05 0)
(0.000528201 6.86718e-05 0)
(0.000501897 7.20185e-05 0)
(0.00047442 7.4918e-05 0)
(0.000445941 7.73343e-05 0)
(0.000416644 7.92316e-05 0)
(0.000386726 8.05742e-05 0)
(0.000356394 8.13271e-05 0)
(0.000325868 8.14564e-05 0)
(0.000295377 8.09296e-05 0)
(0.000265159 7.97168e-05 0)
(0.000235461 7.77914e-05 0)
(0.000206533 7.51316e-05 0)
(0.000178632 7.17221e-05 0)
(0.000152012 6.75564e-05 0)
(0.000126927 6.26404e-05 0)
(0.000103621 5.69968e-05 0)
(8.23226e-05 5.06711e-05 0)
(6.32409e-05 4.37403e-05 0)
(4.65537e-05 3.63242e-05 0)
(3.23982e-05 2.86017e-05 0)
(2.08572e-05 2.0832e-05 0)
(1.19472e-05 1.33828e-05 0)
(5.61694e-06 6.77202e-06 0)
(1.75463e-06 1.73401e-06 0)
(6.97125e-08 -6.90596e-07 0)
(2.5089e-07 -2.12976e-06 0)
(3.67236e-06 -1.04078e-05 0)
(1.05635e-05 -2.1474e-05 0)
(2.10252e-05 -3.42032e-05 0)
(3.49145e-05 -4.77477e-05 0)
(5.21176e-05 -6.14724e-05 0)
(7.25066e-05 -7.49015e-05 0)
(9.59128e-05 -8.76836e-05 0)
(0.000122128 -9.95652e-05 0)
(0.000150913 -0.00011037 0)
(0.000182005 -0.000119979 0)
(0.000215123 -0.000128321 0)
(0.000249972 -0.000135358 0)
(0.000286253 -0.00014108 0)
(0.000323664 -0.000145494 0)
(0.000361901 -0.000148627 0)
(0.000400669 -0.000150512 0)
(0.000439674 -0.000151193 0)
(0.000478636 -0.000150722 0)
(0.000517282 -0.000149152 0)
(0.000555351 -0.00014654 0)
(0.000592595 -0.000142945 0)
(0.000628779 -0.000138428 0)
(0.000663681 -0.000133049 0)
(0.000697094 -0.000126869 0)
(0.000728823 -0.000119948 0)
(0.00075869 -0.000112345 0)
(0.00078653 -0.00010412 0)
(0.000812191 -9.5331e-05 0)
(0.000835537 -8.60354e-05 0)
(0.000856445 -7.629e-05 0)
(0.000874807 -6.61507e-05 0)
(0.000890529 -5.56731e-05 0)
(0.000903529 -4.49119e-05 0)
(0.000913741 -3.39218e-05 0)
(0.000921112 -2.27571e-05 0)
(0.000925603 -1.14721e-05 0)
(0.00092719 -1.21029e-07 0)
(0.000925862 1.12415e-05 0)
(0.00092162 2.25605e-05 0)
(0.000914484 3.37806e-05 0)
(0.000904484 4.48458e-05 0)
(0.000891667 5.56992e-05 0)
(0.000876094 6.62833e-05 0)
(0.00085784 7.65395e-05 0)
(0.000836996 8.64084e-05 0)
(0.000813668 9.58296e-05 0)
(0.000787978 0.000104742 0)
(0.000760062 0.000113083 0)
(0.000730072 0.000120789 0)
(0.000698178 0.000127798 0)
(0.000664563 0.000134045 0)
(0.000629425 0.000139466 0)
(0.00059298 0.000143998 0)
(0.000555456 0.000147576 0)
(0.000517097 0.00015014 0)
(0.00047816 0.000151629 0)
(0.000438916 0.000151985 0)
(0.000399646 0.000151157 0)
(0.000360641 0.000149097 0)
(0.000322201 0.000145765 0)
(0.00028463 0.000141129 0)
(0.000248237 0.000135174 0)
(0.000213329 0.000127896 0)
(0.000180209 0.000119317 0)
(0.000149171 0.000109485 0)
(0.000120494 9.84825e-05 0)
(9.44363e-05 8.64404e-05 0)
(7.12303e-05 7.35484e-05 0)
(5.10733e-05 6.00729e-05 0)
(3.41205e-05 4.63784e-05 0)
(2.04826e-05 3.29529e-05 0)
(1.02524e-05 2.04417e-05 0)
(3.54509e-06 9.70021e-06 0)
(2.37394e-07 1.8569e-06 0)
(3.92715e-07 -6.52735e-06 0)
(5.30635e-06 -2.3194e-05 0)
(1.48769e-05 -4.23224e-05 0)
(2.90531e-05 -6.28219e-05 0)
(4.74629e-05 -8.38295e-05 0)
(6.98307e-05 -0.000104667 0)
(9.59113e-05 -0.000124805 0)
(0.000125442 -0.000143834 0)
(0.000158139 -0.00016145 0)
(0.000193696 -0.00017743 0)
(0.000231797 -0.000191621 0)
(0.000272109 -0.000203924 0)
(0.000314296 -0.000214284 0)
(0.000358015 -0.000222682 0)
(0.000402923 -0.000229125 0)
(0.000448679 -0.000233644 0)
(0.000494947 -0.000236284 0)
(0.000541398 -0.000237106 0)
(0.000587715 -0.000236179 0)
(0.000633589 -0.000233578 0)
(0.000678724 -0.000229388 0)
(0.00072284 -0.000223692 0)
(0.000765666 -0.00021658 0)
(0.000806952 -0.00020814 0)
(0.000846459 -0.000198464 0)
(0.000883965 -0.000187642 0)
(0.000919265 -0.000175764 0)
(0.000952167 -0.000162919 0)
(0.000982497 -0.000149196 0)
(0.0010101 -0.000134684 0)
(0.00103483 -0.000119469 0)
(0.00105656 -0.000103639 0)
(0.00107518 -8.72777e-05 0)
(0.0010906 -7.04718e-05 0)
(0.00110274 -5.33054e-05 0)
(0.00111153 -3.58634e-05 0)
(0.00111693 -1.82303e-05 0)
(0.00111892 -4.90985e-07 0)
(0.00111747 1.72694e-05 0)
(0.00111258 3.49649e-05 0)
(0.00110429 5.2509e-05 0)
(0.00109261 6.98139e-05 0)
(0.00107761 8.67911e-05 0)
(0.00105935 0.00010335 0)
(0.00103793 0.000119401 0)
(0.00101343 0.00013485 0)
(0.000985995 0.000149604 0)
(0.000955752 0.000163568 0)
(0.000922862 0.000176646 0)
(0.000887499 0.000188742 0)
(0.000849857 0.000199757 0)
(0.000810147 0.000209594 0)
(0.000768597 0.000218156 0)
(0.000725454 0.000225348 0)
(0.00068098 0.000231074 0)
(0.000635453 0.000235244 0)
(0.000589168 0.000237768 0)
(0.000542432 0.000238566 0)
(0.000495566 0.000237561 0)
(0.000448901 0.000234688 0)
(0.000402778 0.000229893 0)
(0.000357544 0.000223136 0)
(0.000313549 0.000214397 0)
(0.000271144 0.00020368 0)
(0.000230678 0.000191018 0)
(0.000192492 0.000176481 0)
(0.000156918 0.000160185 0)
(0.00012427 0.000142302 0)
(9.48472e-05 0.000123073 0)
(6.89244e-05 0.000102825 0)
(4.67504e-05 8.1984e-05 0)
(2.85526e-05 6.11014e-05 0)
(1.45831e-05 4.08735e-05 0)
(5.18349e-06 2.21798e-05 0)
(3.79253e-07 6.12599e-06 0)
(5.10563e-07 -1.24328e-05 0)
(6.73383e-06 -4.00389e-05 0)
(1.87077e-05 -6.93506e-05 0)
(3.62591e-05 -9.93623e-05 0)
(5.8814e-05 -0.000129251 0)
(8.59439e-05 -0.000158349 0)
(0.000117284 -0.000186119 0)
(0.000152471 -0.000212135 0)
(0.000191135 -0.000236071 0)
(0.0002329 -0.000257685 0)
(0.000277387 -0.000276805 0)
(0.000324212 -0.000293321 0)
(0.000372992 -0.000307172 0)
(0.000423344 -0.000318335 0)
(0.000474889 -0.000326823 0)
(0.000527252 -0.000332675 0)
(0.000580066 -0.000335952 0)
(0.000632974 -0.000336731 0)
(0.00068563 -0.000335104 0)
(0.0007377 -0.000331171 0)
(0.000788862 -0.000325041 0)
(0.000838812 -0.000316829 0)
(0.000887258 -0.000306653 0)
(0.000933927 -0.000294634 0)
(0.000978559 -0.000280894 0)
(0.00102091 -0.000265558 0)
(0.00106077 -0.000248746 0)
(0.00109791 -0.000230584 0)
(0.00113215 -0.000211192 0)
(0.00116331 -0.000190694 0)
(0.00119125 -0.000169208 0)
(0.00121581 -0.000146855 0)
(0.00123689 -0.000123755 0)
(0.00125436 -0.000100026 0)
(0.00126816 -7.57857e-05 0)
(0.0012782 -5.11536e-05 0)
(0.00128443 -2.62478e-05 0)
(0.00128682 -1.18723e-06 0)
(0.00128535 2.39085e-05 0)
(0.00128002 4.89189e-05 0)
(0.00127086 7.37222e-05 0)
(0.00125788 9.81952e-05 0)
(0.00124116 0.000122213 0)
(0.00122076 0.000145651 0)
(0.00119679 0.000168379 0)
(0.00116934 0.000190268 0)
(0.00113855 0.000211188 0)
(0.00110458 0.000231005 0)
(0.00106758 0.000249586 0)
(0.00102777 0.000266796 0)
(0.000985335 0.0002825 0)
(0.000940516 0.000296562 0)
(0.000893561 0.00030885 0)
(0.000844738 0.000319231 0)
(0.000794333 0.000327577 0)
(0.000742652 0.000333763 0)
(0.000690014 0.00033767 0)
(0.000636757 0.000339189 0)
(0.000583232 0.000338219 0)
(0.000529803 0.000334672 0)
(0.000476843 0.000328479 0)
(0.000424736 0.000319588 0)
(0.000373871 0.000307973 0)
(0.00032464 0.000293637 0)
(0.000277436 0.000276619 0)
(0.000232652 0.000257003 0)
(0.000190674 0.000234924 0)
(0.000151882 0.000210577 0)
(0.000116648 0.000184233 0)
(8.53352e-05 0.000156246 0)
(5.82931e-05 0.00012707 0)
(3.58687e-05 9.72735e-05 0)
(1.84663e-05 6.75514e-05 0)
(6.62791e-06 3.87542e-05 0)
(4.98005e-07 1.19134e-05 0)
(6.09325e-07 -1.9638e-05 0)
(7.97038e-06 -6.04506e-05 0)
(2.20635e-05 -0.000101883 0)
(4.26208e-05 -0.000143032 0)
(6.88963e-05 -0.000183142 0)
(0.000100325 -0.000221587 0)
(0.000136429 -0.000257855 0)
(0.000176748 -0.000291536 0)
(0.000220826 -0.000322308 0)
(0.000268211 -0.000349934 0)
(0.000318462 -0.000374247 0)
(0.000371141 -0.000395138 0)
(0.000425818 -0.000412553 0)
(0.00048207 -0.00042648 0)
(0.000539483 -0.000436945 0)
(0.000597651 -0.000444003 0)
(0.000656183 -0.000447735 0)
(0.000714695 -0.00044824 0)
(0.000772821 -0.000445634 0)
(0.000830208 -0.000440047 0)
(0.000886517 -0.000431617 0)
(0.000941426 -0.000420489 0)
(0.00099463 -0.000406814 0)
(0.00104584 -0.000390746 0)
(0.00109478 -0.000372441 0)
(0.00114121 -0.000352058 0)
(0.00118487 -0.000329753 0)
(0.00122557 -0.000305685 0)
(0.00126308 -0.000280011 0)
(0.00129724 -0.000252888 0)
(0.00132788 -0.000224472 0)
(0.00135484 -0.000194918 0)
(0.001378 -0.00016438 0)
(0.00139724 -0.000133013 0)
(0.00141248 -0.000100971 0)
(0.00142363 -6.84073e-05 0)
(0.00143064 -3.54767e-05 0)
(0.00143347 -2.3344e-06 0)
(0.00143209 3.08633e-05 0)
(0.00142651 6.39588e-05 0)
(0.00141673 9.67927e-05 0)
(0.0014028 0.000129204 0)
(0.00138477 0.000161029 0)
(0.00136272 0.000192103 0)
(0.00133673 0.000222258 0)
(0.00130693 0.000251325 0)
(0.00127345 0.000279131 0)
(0.00123645 0.000305503 0)
(0.0011961 0.000330267 0)
(0.00115261 0.000353245 0)
(0.0011062 0.000374264 0)
(0.0010571 0.000393146 0)
(0.00100559 0.000409718 0)
(0.000951936 0.000423809 0)
(0.000896453 0.000435253 0)
(0.000839462 0.000443888 0)
(0.000781304 0.000449563 0)
(0.000722338 0.000452136 0)
(0.00066294 0.000451476 0)
(0.000603502 0.000447472 0)
(0.000544427 0.000440032 0)
(0.000486133 0.000429085 0)
(0.000429043 0.000414594 0)
(0.000373594 0.000396552 0)
(0.000320224 0.000374995 0)
(0.000269376 0.000350007 0)
(0.000221499 0.000321725 0)
(0.00017704 0.000290351 0)
(0.000136449 0.000256162 0)
(0.000100179 0.000219514 0)
(6.86778e-05 0.00018086 0)
(4.24072e-05 0.000140751 0)
(2.19077e-05 9.98547e-05 0)
(7.89258e-06 5.89642e-05 0)
(5.98326e-07 1.90219e-05 0)
(6.93572e-07 -2.79659e-05 0)
(9.04456e-06 -8.39796e-05 0)
(2.49972e-05 -0.000139269 0)
(4.82077e-05 -0.000193033 0)
(7.77836e-05 -0.000244597 0)
(0.00011304 -0.000293395 0)
(0.000153397 -0.000338963 0)
(0.000198303 -0.000380927 0)
(0.000247219 -0.000418996 0)
(0.000299621 -0.000452958 0)
(0.000355005 -0.000482666 0)
(0.000412879 -0.000508035 0)
(0.000472768 -0.000529032 0)
(0.00053421 -0.000545667 0)
(0.000596756 -0.000557989 0)
(0.000659976 -0.000566078 0)
(0.000723452 -0.000570043 0)
(0.000786784 -0.000570013 0)
(0.000849587 -0.000566133 0)
(0.000911494 -0.000558565 0)
(0.000972155 -0.00054748 0)
(0.00103124 -0.000533057 0)
(0.00108843 -0.000515482 0)
(0.00114343 -0.000494943 0)
(0.00119597 -0.000471632 0)
(0.00124577 -0.000445743 0)
(0.00129261 -0.00041747 0)
(0.00133625 -0.000387006 0)
(0.0013765 -0.000354545 0)
(0.00141315 -0.000320279 0)
(0.00144605 -0.000284399 0)
(0.00147503 -0.000247098 0)
(0.00149997 -0.000208565 0)
(0.00152075 -0.00016899 0)
(0.00153726 -0.000128563 0)
(0.00154943 -8.74761e-05 0)
(0.00155719 -4.5919e-05 0)
(0.00156051 -4.08432e-06 0)
(0.00155934 3.78338e-05 0)
(0.00155369 7.96396e-05 0)
(0.00154357 0.000121135 0)
(0.001529 0.000162119 0)
(0.00151005 0.000202389 0)
(0.00148678 0.000241738 0)
(0.00145929 0.000279958 0)
(0.00142768 0.000316836 0)
(0.00139211 0.000352157 0)
(0.00135271 0.000385706 0)
(0.00130969 0.000417263 0)
(0.00126322 0.000446609 0)
(0.00121355 0.000473524 0)
(0.00116092 0.000497789 0)
(0.0011056 0.000519186 0)
(0.00104788 0.000537503 0)
(0.000988071 0.00055253 0)
(0.00092652 0.000564068 0)
(0.00086358 0.000571925 0)
(0.000799628 0.000575923 0)
(0.000735061 0.000575897 0)
(0.000670295 0.000571705 0)
(0.000605762 0.000563224 0)
(0.000541909 0.000550362 0)
(0.0004792 0.000533055 0)
(0.000418108 0.00051128 0)
(0.000359122 0.000485057 0)
(0.000302739 0.000454454 0)
(0.000249467 0.000419597 0)
(0.000199823 0.000380676 0)
(0.000154336 0.000337953 0)
(0.000113544 0.000291769 0)
(7.79921e-05 0.000242551 0)
(4.82446e-05 0.000190819 0)
(2.49628e-05 0.00013719 0)
(9.00655e-06 8.23941e-05 0)
(6.84654e-07 2.7285e-05 0)
(7.66949e-07 -3.7271e-05 0)
(9.98386e-06 -0.000110236 0)
(2.7567e-05 -0.000180919 0)
(5.3108e-05 -0.000248617 0)
(8.55873e-05 -0.00031274 0)
(0.000124214 -0.000372795 0)
(0.000168317 -0.000428381 0)
(0.000217259 -0.000479177 0)
(0.000270425 -0.000524943 0)
(0.000327225 -0.000565506 0)
(0.000387093 -0.000600764 0)
(0.000449488 -0.000630666 0)
(0.00051389 -0.000655215 0)
(0.000579801 -0.000674459 0)
(0.000646744 -0.000688481 0)
(0.000714261 -0.000697398 0)
(0.000781918 -0.000701353 0)
(0.000849296 -0.000700512 0)
(0.000916001 -0.000695058 0)
(0.000981657 -0.000685187 0)
(0.00104591 -0.000671109 0)
(0.00110841 -0.000653039 0)
(0.00116886 -0.000631201 0)
(0.00122694 -0.000605821 0)
(0.00128239 -0.000577126 0)
(0.00133494 -0.000545348 0)
(0.00138434 -0.000510716 0)
(0.00143038 -0.00047346 0)
(0.00147285 -0.00043381 0)
(0.00151155 -0.000391993 0)
(0.00154631 -0.000348236 0)
(0.00157699 -0.000302767 0)
(0.00160344 -0.00025581 0)
(0.00162555 -0.000207591 0)
(0.0016432 -0.000158336 0)
(0.00165632 -0.000108272 0)
(0.00166484 -5.76244e-05 0)
(0.00166871 -6.62421e-06 0)
(0.00166789 4.44978e-05 0)
(0.00166238 9.55076e-05 0)
(0.00165218 0.000146168 0)
(0.00163731 0.000196239 0)
(0.00161782 0.000245476 0)
(0.00159377 0.000293632 0)
(0.00156526 0.000340454 0)
(0.00153239 0.000385688 0)
(0.0014953 0.000429074 0)
(0.00145412 0.000470351 0)
(0.00140906 0.000509254 0)
(0.00136029 0.000545518 0)
(0.00130805 0.000578876 0)
(0.00125258 0.000609062 0)
(0.00119416 0.000635811 0)
(0.00113309 0.000658865 0)
(0.00106967 0.000677969 0)
(0.00100427 0.000692877 0)
(0.000937251 0.000703354 0)
(0.000869 0.000709178 0)
(0.000799936 0.000710147 0)
(0.000730494 0.000706076 0)
(0.000661134 0.000696808 0)
(0.000592333 0.000682215 0)
(0.00052459 0.0006622 0)
(0.000458421 0.000636711 0)
(0.00039436 0.000605737 0)
(0.00033296 0.00056932 0)
(0.000274789 0.000527558 0)
(0.000220432 0.000480614 0)
(0.000170495 0.00042872 0)
(0.000125598 0.000372183 0)
(8.63749e-05 0.000311393 0)
(5.34852e-05 0.000246822 0)
(2.76976e-05 0.000179035 0)
(9.9998e-06 0.000108693 0)
(7.60726e-07 3.65691e-05 0)
(8.32092e-07 -4.74336e-05 0)
(1.08098e-05 -0.000138885 0)
(2.98204e-05 -0.000226306 0)
(5.73965e-05 -0.000309091 0)
(9.24044e-05 -0.000386738 0)
(0.000133958 -0.000458835 0)
(0.000181303 -0.000525054 0)
(0.000233725 -0.000585144 0)
(0.000290539 -0.000638927 0)
(0.000351094 -0.000686294 0)
(0.000414769 -0.000727193 0)
(0.000480975 -0.00076163 0)
(0.000549155 -0.000789659 0)
(0.000618778 -0.000811376 0)
(0.000689341 -0.000826911 0)
(0.000760368 -0.000836428 0)
(0.000831406 -0.000840116 0)
(0.00090203 -0.000838183 0)
(0.000971837 -0.000830857 0)
(0.00104045 -0.000818377 0)
(0.0011075 -0.000800993 0)
(0.00117266 -0.000778962 0)
(0.00123562 -0.000752547 0)
(0.00129608 -0.000722012 0)
(0.00135376 -0.000687624 0)
(0.00140841 -0.000649651 0)
(0.00145979 -0.000608359 0)
(0.00150768 -0.000564014 0)
(0.00155187 -0.000516879 0)
(0.00159218 -0.000467217 0)
(0.00162845 -0.00041529 0)
(0.00166051 -0.000361357 0)
(0.00168822 -0.000305678 0)
(0.00171148 -0.000248512 0)
(0.00173017 -0.000190118 0)
(0.0017442 -0.000130757 0)
(0.0017535 -7.06917e-05 0)
(0.00175802 -1.01858e-05 0)
(0.00175772 5.04932e-05 0)
(0.00175257 0.000111074 0)
(0.00174258 0.000171282 0)
(0.00172775 0.000230837 0)
(0.00170813 0.000289456 0)
(0.00168377 0.000346848 0)
(0.00165475 0.000402719 0)
(0.00162117 0.00045677 0)
(0.00158314 0.000508696 0)
(0.00154082 0.000558189 0)
(0.00149436 0.000604938 0)
(0.00144397 0.000648627 0)
(0.00138986 0.000688941 0)
(0.00133227 0.000725563 0)
(0.00127147 0.00075818 0)
(0.00120776 0.000786479 0)
(0.00114146 0.000810157 0)
(0.00107293 0.000828917 0)
(0.00100253 0.000842474 0)
(0.000930673 0.000850556 0)
(0.000857787 0.000852913 0)
(0.000784328 0.000849312 0)
(0.000710778 0.000839549 0)
(0.000637645 0.000823452 0)
(0.00056546 0.000800882 0)
(0.000494781 0.000771741 0)
(0.000426188 0.00073598 0)
(0.000360286 0.000693598 0)
(0.000297703 0.000644653 0)
(0.000239092 0.000589265 0)
(0.000185129 0.000527624 0)
(0.000136515 0.000459991 0)
(9.39656e-05 0.000386707 0)
(5.82292e-05 0.00030819 0)
(3.01725e-05 0.000224947 0)
(1.08983e-05 0.000137574 0)
(8.29505e-07 4.67697e-05 0)
(8.90741e-07 -5.83526e-05 0)
(1.15364e-05 -0.000169629 0)
(3.17881e-05 -0.00027495 0)
(6.112e-05 -0.000373807 0)
(9.82929e-05 -0.000465788 0)
(0.000142332 -0.000550573 0)
(0.000192408 -0.000627917 0)
(0.000247736 -0.000697653 0)
(0.000307568 -0.000759681 0)
(0.000371196 -0.000813965 0)
(0.000437951 -0.000860527 0)
(0.000507205 -0.00089944 0)
(0.000578367 -0.000930823 0)
(0.000650879 -0.000954833 0)
(0.000724219 -0.000971662 0)
(0.000797896 -0.00098153 0)
(0.00087145 -0.000984681 0)
(0.00094445 -0.000981375 0)
(0.00101649 -0.000971892 0)
(0.0010872 -0.000956517 0)
(0.00115622 -0.000935548 0)
(0.00122322 -0.000909286 0)
(0.0012879 -0.000878036 0)
(0.00134998 -0.000842102 0)
(0.00140918 -0.000801791 0)
(0.00146526 -0.000757407 0)
(0.00151799 -0.000709251 0)
(0.00156716 -0.000657625 0)
(0.00161258 -0.000602825 0)
(0.00165406 -0.000545147 0)
(0.00169144 -0.000484882 0)
(0.00172457 -0.000422323 0)
(0.00175332 -0.00035776 0)
(0.00177756 -0.000291482 0)
(0.00179719 -0.000223779 0)
(0.00181212 -0.000154944 0)
(0.00182226 -8.5271e-05 0)
(0.00182755 -1.50559e-05 0)
(0.00182796 5.53996e-05 0)
(0.00182344 0.00012579 0)
(0.00181398 0.000195804 0)
(0.0017996 0.000265125 0)
(0.0017803 0.000333429 0)
(0.00175613 0.000400386 0)
(0.00172715 0.00046566 0)
(0.00169346 0.000528906 0)
(0.00165514 0.000589775 0)
(0.00161234 0.00064791 0)
(0.0015652 0.00070295 0)
(0.00151391 0.00075453 0)
(0.00145867 0.000802282 0)
(0.00139971 0.000845836 0)
(0.0013373 0.000884823 0)
(0.00127173 0.000918876 0)
(0.00120331 0.000947634 0)
(0.0011324 0.000970744 0)
(0.00105938 0.000987863 0)
(0.000984647 0.000998664 0)
(0.000908655 0.00100284 0)
(0.000831873 0.00100009 0)
(0.000754804 0.000990175 0)
(0.000677982 0.000972851 0)
(0.000601973 0.000947928 0)
(0.00052737 0.000915255 0)
(0.000454799 0.000874726 0)
(0.000384917 0.000826288 0)
(0.000318409 0.000769945 0)
(0.00025599 0.000705764 0)
(0.000198409 0.000633877 0)
(0.00014644 0.000554491 0)
(0.00010088 0.000467888 0)
(6.2559e-05 0.000374429 0)
(3.2436e-05 0.000274558 0)
(1.17225e-05 0.000168806 0)
(8.93236e-07 5.7806e-05 0)
(9.43869e-07 -6.99373e-05 0)
(1.21699e-05 -0.000202193 0)
(3.34809e-05 -0.000326392 0)
(6.42904e-05 -0.000442126 0)
(0.000103259 -0.000549086 0)
(0.000149328 -0.000647047 0)
(0.000201596 -0.000735865 0)
(0.000259217 -0.000815467 0)
(0.000321385 -0.000885847 0)
(0.000387342 -0.00094706 0)
(0.000456379 -0.000999213 0)
(0.000527836 -0.00104246 0)
(0.000601093 -0.00107701 0)
(0.000675576 -0.00110308 0)
(0.000750749 -0.00112095 0)
(0.000826115 -0.00113089 0)
(0.000901213 -0.00113322 0)
(0.000975615 -0.00112827 0)
(0.00104892 -0.00111636 0)
(0.00112077 -0.00109783 0)
(0.00119082 -0.00107304 0)
(0.00125876 -0.00104233 0)
(0.00132429 -0.00100606 0)
(0.00138714 -0.000964561 0)
(0.00144707 -0.000918188 0)
(0.00150385 -0.000867278 0)
(0.00155726 -0.000812169 0)
(0.0016071 -0.000753192 0)
(0.0016532 -0.000690676 0)
(0.00169538 -0.000624945 0)
(0.00173348 -0.00055632 0)
(0.00176736 -0.000485119 0)
(0.0017969 -0.000411658 0)
(0.00182197 -0.000336255 0)
(0.00184246 -0.000259227 0)
(0.00185827 -0.000180892 0)
(0.00186934 -0.000101571 0)
(0.00187557 -2.15908e-05 0)
(0.00187692 5.8718e-05 0)
(0.00187335 0.000139018 0)
(0.00186482 0.000218966 0)
(0.00185132 0.000298209 0)
(0.00183285 0.000376387 0)
(0.00180945 0.000453132 0)
(0.00178115 0.000528064 0)
(0.00174801 0.000600797 0)
(0.00171012 0.000670934 0)
(0.00166759 0.000738071 0)
(0.00162056 0.000801795 0)
(0.00156918 0.00086169 0)
(0.00151364 0.000917331 0)
(0.00145417 0.000968291 0)
(0.001391 0.00101414 0)
(0.00132441 0.00105446 0)
(0.00125472 0.00108881 0)
(0.00118228 0.00111679 0)
(0.00110745 0.00113798 0)
(0.00103066 0.001152 0)
(0.000952343 0.00115846 0)
(0.000872997 0.00115701 0)
(0.000793138 0.00114733 0)
(0.000713325 0.00112911 0)
(0.000634152 0.00110211 0)
(0.000556249 0.00106609 0)
(0.000480284 0.00102088 0)
(0.000406963 0.000966377 0)
(0.000337026 0.000902504 0)
(0.000271251 0.000829265 0)
(0.000210453 0.000746726 0)
(0.000155478 0.000655029 0)
(0.000107202 0.00055439 0)
(6.65337e-05 0.000445103 0)
(3.45232e-05 0.000327549 0)
(1.24871e-05 0.000202196 0)
(9.53551e-07 6.96145e-05 0)
(9.91756e-07 -8.20995e-05 0)
(1.27086e-05 -0.0002363 0)
(3.48894e-05 -0.000380163 0)
(6.6882e-05 -0.00051339 0)
(0.000107249 -0.000635782 0)
(0.000154852 -0.00074723 0)
(0.000208724 -0.0008477 0)
(0.000267959 -0.000937233 0)
(0.000331702 -0.00101593 0)
(0.000399153 -0.00108395 0)
(0.000469571 -0.00114152 0)
(0.00054227 -0.00118887 0)
(0.000616614 -0.0012263 0)
(0.000692019 -0.00125415 0)
(0.000767946 -0.00127274 0)
(0.000843901 -0.00128246 0)
(0.000919431 -0.00128368 0)
(0.00099412 -0.0012768 0)
(0.00106759 -0.00126221 0)
(0.00113948 -0.00124031 0)
(0.0012095 -0.00121152 0)
(0.00127733 -0.00117622 0)
(0.00134271 -0.00113481 0)
(0.0014054 -0.00108768 0)
(0.00146518 -0.00103521 0)
(0.00152182 -0.000977781 0)
(0.00157515 -0.000915759 0)
(0.00162499 -0.000849503 0)
(0.00167115 -0.00077937 0)
(0.00171351 -0.000705707 0)
(0.00175189 -0.000628859 0)
(0.00178619 -0.000549166 0)
(0.00181626 -0.000466967 0)
(0.00184199 -0.000382598 0)
(0.00186327 -0.000296398 0)
(0.00188 -0.000208707 0)
(0.0018921 -0.000119868 0)
(0.00189948 -3.02317e-05 0)
(0.00190207 5.9847e-05 0)
(0.00189981 0.000150004 0)
(0.00189265 0.000239867 0)
(0.00188057 0.000329052 0)
(0.00186354 0.000417165 0)
(0.00184157 0.000503801 0)
(0.00181467 0.000588541 0)
(0.00178287 0.000670956 0)
(0.00174624 0.000750605 0)
(0.00170485 0.000827033 0)
(0.00165883 0.000899777 0)
(0.00160829 0.000968364 0)
(0.00155341 0.00103231 0)
(0.00149437 0.00109113 0)
(0.00143141 0.00114433 0)
(0.00136479 0.00119142 0)
(0.00129479 0.0012319 0)
(0.00122176 0.00126529 0)
(0.00114607 0.00129111 0)
(0.00106812 0.00130888 0)
(0.000988376 0.00131815 0)
(0.000907318 0.0013185 0)
(0.000825485 0.00130952 0)
(0.000743455 0.00129082 0)
(0.000661848 0.00126208 0)
(0.000581328 0.00122299 0)
(0.000502602 0.0011733 0)
(0.000426422 0.0011128 0)
(0.000353581 0.00104137 0)
(0.000284918 0.000958914 0)
(0.000221311 0.000865427 0)
(0.00016368 0.000760973 0)
(0.000112975 0.000645694 0)
(7.01873e-05 0.000519814 0)
(3.64552e-05 0.000383642 0)
(1.32011e-05 0.000237583 0)
(1.01145e-06 8.21438e-05 0)
(1.03402e-06 -9.4746e-05 0)
(1.31427e-05 -0.000271657 0)
(3.59824e-05 -0.000435757 0)
(6.88284e-05 -0.000586875 0)
(0.000110147 -0.000724942 0)
(0.000158725 -0.000849978 0)
(0.000213529 -0.000962083 0)
(0.000273603 -0.00106142 0)
(0.000338047 -0.00114823 0)
(0.000406031 -0.0012228 0)
(0.000476788 -0.00128545 0)
(0.000549619 -0.00133655 0)
(0.000623881 -0.00137651 0)
(0.000698991 -0.00140575 0)
(0.000774418 -0.00142471 0)
(0.000849684 -0.00143386 0)
(0.000924353 -0.00143366 0)
(0.000998033 -0.00142458 0)
(0.00107037 -0.00140709 0)
(0.00114105 -0.00138165 0)
(0.00120979 -0.00134872 0)
(0.00127632 -0.00130876 0)
(0.00134041 -0.00126221 0)
(0.00140185 -0.00120949 0)
(0.00146044 -0.00115103 0)
(0.00151601 -0.00108723 0)
(0.0015684 -0.00101849 0)
(0.00161744 -0.000945193 0)
(0.00166299 -0.000867715 0)
(0.00170493 -0.000786424 0)
(0.00174312 -0.000701681 0)
(0.00177744 -0.000613841 0)
(0.00180776 -0.000523257 0)
(0.00183399 -0.000430279 0)
(0.001856 -0.00033526 0)
(0.00187369 -0.000238554 0)
(0.00188697 -0.00014052 0)
(0.00189575 -4.15236e-05 0)
(0.00189993 5.80602e-05 0)
(0.00189943 0.000157847 0)
(0.0018942 0.00025744 0)
(0.00188416 0.00035643 0)
(0.00186928 0.000454394 0)
(0.00184952 0.000550891 0)
(0.00182487 0.000645469 0)
(0.00179532 0.000737655 0)
(0.00176092 0.000826964 0)
(0.00172169 0.000912894 0)
(0.00167772 0.000994927 0)
(0.00162911 0.00107253 0)
(0.00157599 0.00114517 0)
(0.00151851 0.00121228 0)
(0.00145689 0.00127332 0)
(0.00139135 0.0013277 0)
(0.00132217 0.00137486 0)
(0.00124966 0.00141424 0)
(0.00117418 0.00144526 0)
(0.00109614 0.00146739 0)
(0.00101597 0.00148007 0)
(0.000934174 0.0014828 0)
(0.000851297 0.00147506 0)
(0.000767929 0.00145639 0)
(0.000684714 0.00142636 0)
(0.000602343 0.00138458 0)
(0.000521561 0.0013307 0)
(0.000443162 0.00126442 0)
(0.000367991 0.00118552 0)
(0.000296944 0.00109381 0)
(0.000230965 0.000989208 0)
(0.000171044 0.000871681 0)
(0.000118208 0.000741289 0)
(7.35295e-05 0.000598175 0)
(3.82394e-05 0.000442573 0)
(1.38684e-05 0.000274816 0)
(1.06737e-06 9.5349e-05 0)
(1.06962e-06 -0.00010777 0)
(1.34543e-05 -0.000307923 0)