/*--------------------------------*- C++ -*----------------------------------*\
  =========                 |
  \\      /  F ield         | OpenFOAM: The Open Source CFD Toolbox
   \\    /   O peration     | Website:  https://openfoam.org
    \\  /    A nd           | Version:  12
     \\/     M anipulation  |
\*---------------------------------------------------------------------------*/
FoamFile
{
    format      ascii;
    class       volScalarField;
    location    "3";
    object      epsilon;
}
// * * * * * * * * * * * * * * * * * * * * * * * * * * * * * * * * * * * * * //

dimensions      [0 2 -3 0 0 0 0];

internalField   nonuniform List<scalar> 
5625
(
5.48706e-08
3.70881e-07
8.22584e-07
1.35421e-06
1.93714e-06
2.55168e-06
3.18254e-06
3.81738e-06
4.44626e-06
5.0613e-06
5.65664e-06
6.22831e-06
6.77414e-06
7.29362e-06
7.78774e-06
8.25876e-06
8.70995e-06
9.14536e-06
9.56955e-06
9.98736e-06
1.04037e-05
1.08235e-05
1.12512e-05
1.16914e-05
1.2148e-05
1.26246e-05
1.31247e-05
1.3651e-05
1.42061e-05
1.47924e-05
1.54117e-05
1.60656e-05
1.67554e-05
1.7482e-05
1.82461e-05
1.90477e-05
1.98867e-05
2.07622e-05
2.16727e-05
2.26159e-05
2.35888e-05
2.45869e-05
2.56047e-05
2.66349e-05
2.76683e-05
2.86938e-05
2.96975e-05
3.06631e-05
3.15713e-05
3.23997e-05
3.31227e-05
3.37114e-05
3.41315e-05
3.43381e-05
3.43509e-05
3.41096e-05
3.35834e-05
3.27539e-05
3.16121e-05
3.01603e-05
2.84132e-05
2.63997e-05
2.41618e-05
2.17539e-05
1.92385e-05
1.66829e-05
1.41531e-05
1.17097e-05
9.40342e-06
7.2727e-06
5.34416e-06
3.63567e-06
2.16429e-06
9.64233e-07
1.42289e-07
1.03659e-07
2.01483e-07
4.02432e-07
6.4829e-07
9.20595e-07
1.2088e-06
1.50527e-06
1.804e-06
2.10021e-06
2.39014e-06
2.67098e-06
2.94084e-06
3.19867e-06
3.44422e-06
3.67793e-06
3.90084e-06
4.1145e-06
4.32081e-06
4.52189e-06
4.72004e-06
4.91758e-06
5.11679e-06
5.31987e-06
5.52888e-06
5.74574e-06
5.97218e-06
6.20977e-06
6.45991e-06
6.72381e-06
7.00257e-06
7.29708e-06
7.60812e-06
7.93631e-06
8.28208e-06
8.64571e-06
9.02729e-06
9.42665e-06
9.84338e-06
1.02768e-05
1.07257e-05
1.11885e-05
1.16632e-05
1.21469e-05
1.26361e-05
1.31263e-05
1.3612e-05
1.40867e-05
1.45422e-05
1.49694e-05
1.53575e-05
1.56943e-05
1.59662e-05
1.61567e-05
1.62464e-05
1.62427e-05
1.61187e-05
1.58604e-05
1.54597e-05
1.4913e-05
1.42218e-05
1.33937e-05
1.24424e-05
1.13878e-05
1.0255e-05
9.07331e-06
7.87348e-06
6.68604e-06
5.53888e-06
4.45555e-06
3.45421e-06
2.54794e-06
1.74664e-06
1.06226e-06
5.24756e-07
2.68648e-07
2.20062e-07
1.96182e-07
3.09905e-07
4.6896e-07
6.51203e-07
8.46666e-07
1.04909e-06
1.25392e-06
1.45762e-06
1.65746e-06
1.85144e-06
2.03819e-06
2.21694e-06
2.38747e-06
2.55007e-06
2.70544e-06
2.85462e-06
2.99891e-06
3.13977e-06
3.2788e-06
3.41758e-06
3.55772e-06
3.70075e-06
3.84812e-06
4.00117e-06
4.16114e-06
4.32912e-06
4.50612e-06
4.69302e-06
4.89058e-06
5.09947e-06
5.32023e-06
5.55331e-06
5.799e-06
6.05751e-06
6.32885e-06
6.61288e-06
6.90924e-06
7.21735e-06
7.5363e-06
7.86485e-06
8.20135e-06
8.54362e-06
8.88896e-06
9.23398e-06
9.57456e-06
9.90576e-06
1.02217e-05
1.05158e-05
1.07802e-05
1.10065e-05
1.11851e-05
1.13037e-05
1.13524e-05
1.13338e-05
1.12306e-05
1.10345e-05
1.07408e-05
1.0348e-05
9.85799e-06
9.27659e-06
8.61367e-06
7.88298e-06
7.10155e-06
6.28877e-06
5.46509e-06
4.65068e-06
3.86405e-06
3.12107e-06
2.43456e-06
1.81474e-06
1.27156e-06
8.21296e-07
5.1047e-07
5.68916e-07
3.59731e-07
2.34974e-07
2.92864e-07
4.04e-07
5.40151e-07
6.89986e-07
8.47189e-07
1.00751e-06
1.16783e-06
1.32581e-06
1.47971e-06
1.62836e-06
1.77111e-06
1.90772e-06
2.03838e-06
2.16361e-06
2.28423e-06
2.40126e-06
2.51585e-06
2.62926e-06
2.74279e-06
2.85772e-06
2.97528e-06
3.09666e-06
3.22297e-06
3.35521e-06
3.4943e-06
3.64109e-06
3.7963e-06
3.96058e-06
4.13448e-06
4.31847e-06
4.51288e-06
4.71797e-06
4.93386e-06
5.16052e-06
5.39777e-06
5.64521e-06
5.90223e-06
6.16793e-06
6.44111e-06
6.72018e-06
7.00312e-06
7.28741e-06
7.57002e-06
7.84726e-06
8.11484e-06
8.36777e-06
8.60041e-06
8.80645e-06
8.97901e-06
9.11066e-06
9.1899e-06
9.21429e-06
9.18186e-06
9.08087e-06
8.90595e-06
8.65421e-06
8.32523e-06
7.9213e-06
7.44759e-06
6.9122e-06
6.32602e-06
5.70228e-06
5.05588e-06
4.40244e-06
3.75736e-06
3.13495e-06
2.54776e-06
2.00659e-06
1.52136e-06
1.10415e-06
7.77938e-07
6.08898e-07
9.26023e-07
5.18286e-07
2.95087e-07
3.08145e-07
3.8501e-07
4.9063e-07
6.117e-07
7.41308e-07
8.75094e-07
1.01e-06
1.14379e-06
1.27483e-06
1.40203e-06
1.52472e-06
1.64266e-06
1.75596e-06
1.86504e-06
1.97057e-06
2.0734e-06
2.17452e-06
2.27502e-06
2.37601e-06
2.4786e-06
2.5839e-06
2.69295e-06
2.80671e-06
2.92612e-06
3.05199e-06
3.18507e-06
3.32603e-06
3.47545e-06
3.63384e-06
3.80158e-06
3.97897e-06
4.16621e-06
4.36334e-06
4.57026e-06
4.7867e-06
5.01218e-06
5.24598e-06
5.48712e-06
5.73428e-06
5.98582e-06
6.23965e-06
6.4933e-06
6.74376e-06
6.98757e-06
7.22072e-06
7.4387e-06
7.63649e-06
7.80868e-06
7.94944e-06
8.05241e-06
8.10631e-06
8.11516e-06
8.07225e-06
7.96995e-06
7.80443e-06
7.57378e-06
7.2781e-06
6.91968e-06
6.50316e-06
6.03551e-06
5.52599e-06
4.98578e-06
4.42742e-06
3.86409e-06
3.30892e-06
2.77423e-06
2.27123e-06
1.81022e-06
1.40194e-06
1.06126e-06
8.18667e-07
7.60172e-07
1.32619e-06
6.9267e-07
3.68587e-07
3.41773e-07
3.90809e-07
4.73211e-07
5.7348e-07
6.83879e-07
7.99736e-07
9.17883e-07
1.03606e-06
1.15263e-06
1.26649e-06
1.37696e-06
1.48375e-06
1.58691e-06
1.68678e-06
1.78392e-06
1.87909e-06
1.97318e-06
2.06716e-06
2.16205e-06
2.25887e-06
2.35864e-06
2.46231e-06
2.57081e-06
2.68499e-06
2.80563e-06
2.93345e-06
3.06906e-06
3.21301e-06
3.36575e-06
3.52763e-06
3.69889e-06
3.87965e-06
4.06987e-06
4.26934e-06
4.47768e-06
4.69428e-06
4.91826e-06
5.14848e-06
5.38349e-06
5.62148e-06
5.8603e-06
6.09738e-06
6.32977e-06
6.5541e-06
6.7666e-06
6.96314e-06
7.13926e-06
7.29023e-06
7.41122e-06
7.49593e-06
7.53446e-06
7.5346e-06
7.48634e-06
7.38479e-06
7.22679e-06
7.01071e-06
6.73656e-06
6.40622e-06
6.02364e-06
5.59482e-06
5.12793e-06
4.63302e-06
4.12155e-06
3.60577e-06
3.09803e-06
2.61013e-06
2.15314e-06
1.73773e-06
1.37602e-06
1.08643e-06
9.06636e-07
9.42824e-07
1.75899e-06
8.80918e-07
4.51861e-07
3.87582e-07
4.12376e-07
4.75656e-07
5.59579e-07
6.5548e-07
7.58268e-07
8.64576e-07
9.72034e-07
1.07895e-06
1.18417e-06
1.28696e-06
1.38697e-06
1.48421e-06
1.57893e-06
1.67165e-06
1.76304e-06
1.85392e-06
1.94521e-06
2.03786e-06
2.13284e-06
2.23111e-06
2.3336e-06
2.4412e-06
2.55474e-06
2.67496e-06
2.80254e-06
2.93809e-06
3.08211e-06
3.235e-06
3.39707e-06
3.56847e-06
3.74923e-06
3.93921e-06
4.13807e-06
4.34527e-06
4.56003e-06
4.7813e-06
5.00776e-06
5.23777e-06
5.46941e-06
5.70039e-06
5.92815e-06
6.14976e-06
6.36202e-06
6.56146e-06
6.74435e-06
6.90677e-06
7.04469e-06
7.15409e-06
7.22885e-06
7.26075e-06
7.25841e-06
7.21123e-06
7.11514e-06
6.96702e-06
6.76495e-06
6.50829e-06
6.19799e-06
5.83682e-06
5.43012e-06
4.98541e-06
4.51224e-06
4.02187e-06
3.52662e-06
3.03911e-06
2.57169e-06
2.13616e-06
1.74437e-06
1.41032e-06
1.15585e-06
1.02534e-06
1.14657e-06
2.21688e-06
1.08177e-06
5.43008e-07
4.42336e-07
4.45076e-07
4.91797e-07
5.62175e-07
6.46544e-07
7.39337e-07
8.36931e-07
9.36804e-07
1.03716e-06
1.13676e-06
1.2348e-06
1.33089e-06
1.42495e-06
1.5172e-06
1.60809e-06
1.69826e-06
1.78847e-06
1.8796e-06
1.97257e-06
2.06832e-06
2.1678e-06
2.2719e-06
2.3815e-06
2.49741e-06
2.62035e-06
2.75099e-06
2.88989e-06
3.03752e-06
3.19422e-06
3.36022e-06
3.53559e-06
3.72025e-06
3.9139e-06
4.11606e-06
4.32602e-06
4.5428e-06
4.76516e-06
4.9916e-06
5.22033e-06
5.4493e-06
5.67619e-06
5.89845e-06
6.11334e-06
6.31789e-06
6.50901e-06
6.68346e-06
6.83794e-06
6.96906e-06
7.07342e-06
7.14605e-06
7.17891e-06
7.18018e-06
7.14043e-06
7.05487e-06
6.91996e-06
6.73292e-06
6.49207e-06
6.19728e-06
5.8505e-06
5.45603e-06
5.02078e-06
4.55422e-06
4.06795e-06
3.57502e-06
3.08915e-06
2.62394e-06
2.19261e-06
1.80864e-06
1.48818e-06
1.25717e-06
1.16595e-06
1.36547e-06
2.69406e-06
1.2944e-06
6.40937e-07
5.04153e-07
4.86222e-07
5.18117e-07
5.76846e-07
6.51712e-07
7.36628e-07
8.27666e-07
9.2212e-07
1.01806e-06
1.11415e-06
1.20952e-06
1.30368e-06
1.39651e-06
1.48817e-06
1.57908e-06
1.66984e-06
1.76118e-06
1.85396e-06
1.94907e-06
2.04746e-06
2.15004e-06
2.25771e-06
2.37133e-06
2.49171e-06
2.61954e-06
2.75543e-06
2.89991e-06
3.0534e-06
3.21619e-06
3.3884e-06
3.56999e-06
3.76073e-06
3.96018e-06
4.16769e-06
4.38235e-06
4.603e-06
4.82822e-06
5.05635e-06
5.2855e-06
5.51357e-06
5.73827e-06
5.9572e-06
6.16788e-06
6.36769e-06
6.55402e-06
6.72423e-06
6.87562e-06
7.00542e-06
7.11072e-06
7.18799e-06
7.22965e-06
7.23974e-06
7.21348e-06
7.14376e-06
7.0262e-06
6.85684e-06
6.63257e-06
6.35189e-06
6.0155e-06
5.62682e-06
5.19232e-06
4.72161e-06
4.227e-06
3.72282e-06
3.2244e-06
2.74725e-06
2.30656e-06
1.91792e-06
1.59989e-06
1.38299e-06
1.32308e-06
1.5957e-06
3.18604e-06
1.51826e-06
7.44982e-07
5.71864e-07
5.34125e-07
5.52409e-07
6.00876e-07
6.67707e-07
7.46273e-07
8.32348e-07
9.22994e-07
1.01612e-06
1.11027e-06
1.20448e-06
1.2982e-06
1.39124e-06
1.48373e-06
1.57604e-06
1.66873e-06
1.76254e-06
1.85828e-06
1.95687e-06
2.05922e-06
2.16626e-06
2.27888e-06
2.39792e-06
2.52418e-06
2.65834e-06
2.80101e-06
2.95265e-06
3.1136e-06
3.28404e-06
3.46399e-06
3.65326e-06
3.85147e-06
4.058e-06
4.27199e-06
4.49231e-06
4.71764e-06
4.9464e-06
5.17684e-06
5.40701e-06
5.63483e-06
5.85818e-06
6.07489e-06
6.2828e-06
6.47986e-06
6.66403e-06
6.83334e-06
6.98577e-06
7.11914e-06
7.23098e-06
7.31832e-06
7.37577e-06
7.40033e-06
7.39256e-06
7.34345e-06
7.24709e-06
7.09801e-06
6.89144e-06
6.62434e-06
6.29607e-06
5.90913e-06
5.46961e-06
4.98733e-06
4.47555e-06
3.95013e-06
3.42847e-06
2.92839e-06
2.46756e-06
2.06406e-06
1.7392e-06
1.52847e-06
1.49315e-06
1.83461e-06
3.68926e-06
1.75299e-06
8.54714e-07
6.44709e-07
5.87664e-07
5.93212e-07
6.32453e-07
6.92388e-07
7.65804e-07
8.48113e-07
9.36159e-07
1.02769e-06
1.12112e-06
1.21536e-06
1.30979e-06
1.40415e-06
1.49853e-06
1.59327e-06
1.68892e-06
1.7862e-06
1.88596e-06
1.98906e-06
2.09645e-06
2.20904e-06
2.32772e-06
2.45332e-06
2.58658e-06
2.72816e-06
2.87863e-06
3.03838e-06
3.20766e-06
3.38655e-06
3.57491e-06
3.77242e-06
3.97851e-06
4.19237e-06
4.41295e-06
4.63895e-06
4.86889e-06
5.10107e-06
5.33367e-06
5.5648e-06
5.79252e-06
6.01494e-06
6.23027e-06
6.43684e-06
6.63318e-06
6.81789e-06
6.98964e-06
7.14703e-06
7.28839e-06
7.4116e-06
7.51382e-06
7.59126e-06
7.63763e-06
7.65085e-06
7.62619e-06
7.55409e-06
7.42749e-06
7.23978e-06
6.9863e-06
6.66507e-06
6.27758e-06
5.82949e-06
5.33086e-06
4.79591e-06
4.24218e-06
3.68931e-06
3.15779e-06
2.66813e-06
2.24129e-06
1.90171e-06
1.69025e-06
1.67368e-06
2.08022e-06
4.20087e-06
1.99834e-06
9.69857e-07
7.22179e-07
6.46067e-07
6.39512e-07
6.70323e-07
7.24257e-07
7.93477e-07
8.73025e-07
9.59491e-07
1.05043e-06
1.14411e-06
1.23933e-06
1.33539e-06
1.43197e-06
1.52912e-06
1.62714e-06
1.72658e-06
1.82815e-06
1.93269e-06
2.04108e-06
2.15425e-06
2.27312e-06
2.39857e-06
2.5314e-06
2.67235e-06
2.82201e-06
2.98087e-06
3.14926e-06
3.32732e-06
3.51498e-06
3.71197e-06
3.91779e-06
4.13168e-06
4.35265e-06
4.57946e-06
4.81066e-06
5.04465e-06
5.27969e-06
5.51397e-06
5.74573e-06
5.97327e-06
6.19505e-06
6.40976e-06
6.61631e-06
6.81381e-06
7.00155e-06
7.17881e-06
7.34471e-06
7.49798e-06
7.6367e-06
7.75804e-06
7.85807e-06
7.93195e-06
7.96908e-06
7.97049e-06
7.92474e-06
7.82221e-06
7.65433e-06
7.41483e-06
7.10036e-06
6.71141e-06
6.25306e-06
5.7355e-06
5.17378e-06
4.58708e-06
3.99737e-06
3.42797e-06
2.90252e-06
2.44529e-06
2.08417e-06
1.86581e-06
1.86284e-06
2.33106e-06
4.71861e-06
2.25417e-06
1.09023e-06
8.03925e-07
7.08784e-07
6.9058e-07
7.13584e-07
7.62243e-07
8.28052e-07
9.05656e-07
9.91369e-07
1.08254e-06
1.17727e-06
1.27426e-06
1.3727e-06
1.47222e-06
1.57282e-06
1.67478e-06
1.77863e-06
1.8851e-06
1.995e-06
2.10925e-06
2.22875e-06
2.35444e-06
2.48716e-06
2.6277e-06
2.77675e-06
2.93484e-06
3.10239e-06
3.27962e-06
3.46653e-06
3.66293e-06
3.86837e-06
4.08218e-06
4.30341e-06
4.53089e-06
4.76322e-06
4.99886e-06
5.23611e-06
5.47326e-06
5.70863e-06
5.94066e-06
6.16798e-06
6.38951e-06
6.60446e-06
6.81236e-06
7.01295e-06
7.20612e-06
7.3917e-06
7.56922e-06
7.73765e-06
7.89513e-06
8.03865e-06
8.16393e-06
8.26553e-06
8.33309e-06
8.35884e-06
8.34045e-06
8.26295e-06
8.11556e-06
7.89054e-06
7.58321e-06
7.19297e-06
6.72423e-06
6.18702e-06
5.59703e-06
4.97484e-06
4.34467e-06
3.73275e-06
3.16611e-06
2.67261e-06
2.28407e-06
2.05328e-06
2.05927e-06
2.586e-06
5.2407e-06
2.52042e-06
1.21572e-06
8.89701e-07
7.75424e-07
7.45879e-07
7.61569e-07
8.05553e-07
8.68614e-07
9.44968e-07
1.03063e-06
1.12273e-06
1.2192e-06
1.31859e-06
1.42003e-06
1.52307e-06
1.62765e-06
1.73406e-06
1.84282e-06
1.95464e-06
2.07035e-06
2.19086e-06
2.31708e-06
2.44992e-06
2.59022e-06
2.73873e-06
2.89607e-06
3.06271e-06
3.23898e-06
3.42496e-06
3.62054e-06
3.82535e-06
4.03879e-06
4.25999e-06
4.48785e-06
4.72102e-06
4.958e-06
5.19716e-06
5.43682e-06
5.67537e-06
5.9113e-06
6.14336e-06
6.37061e-06
6.59246e-06
6.80869e-06
7.01944e-06
7.22504e-06
7.42591e-06
7.62229e-06
7.81399e-06
8.00008e-06
8.17857e-06
8.34615e-06
8.49798e-06
8.62767e-06
8.72686e-06
8.77866e-06
8.78553e-06
8.73346e-06
8.60692e-06
8.39691e-06
8.09756e-06
7.7071e-06
7.22907e-06
6.67309e-06
6.05509e-06
5.39676e-06
4.72434e-06
4.06691e-06
3.455e-06
2.92045e-06
2.49939e-06
2.25127e-06
2.26197e-06
2.84422e-06
5.76578e-06
2.79705e-06
1.34625e-06
9.79332e-07
8.457e-07
8.05005e-07
8.13771e-07
8.53586e-07
9.14467e-07
9.90169e-07
1.07639e-06
1.17001e-06
1.26878e-06
1.37113e-06
1.47606e-06
1.58308e-06
1.69209e-06
1.80335e-06
1.91737e-06
2.03487e-06
2.15669e-06
2.28372e-06
2.41689e-06
2.55708e-06
2.7051e-06
2.86165e-06
3.02729e-06
3.20241e-06
3.38721e-06
3.58166e-06
3.7855e-06
3.99821e-06
4.21899e-06
4.44683e-06
4.68046e-06
4.91841e-06
5.15911e-06
5.40091e-06
5.64221e-06
5.88156e-06
6.11773e-06
6.34984e-06
6.57741e-06
6.80039e-06
7.01913e-06
7.23432e-06
7.44681e-06
7.65742e-06
7.86669e-06
8.07453e-06
8.27995e-06
8.48072e-06
8.67312e-06
8.85172e-06
9.00944e-06
9.13768e-06
9.21889e-06
9.24728e-06
9.22022e-06
9.11455e-06
8.92005e-06
8.62977e-06
8.24079e-06
7.75556e-06
7.18294e-06
6.53869e-06
5.84519e-06
5.13031e-06
4.42584e-06
3.76588e-06
3.18646e-06
2.72849e-06
2.45873e-06
2.47019e-06
3.10511e-06
6.29289e-06
3.08407e-06
1.48178e-06
1.07269e-06
9.19395e-07
8.67646e-07
8.69805e-07
9.05875e-07
9.65069e-07
1.04064e-06
1.12794e-06
1.2236e-06
1.32516e-06
1.43091e-06
1.53976e-06
1.65112e-06
1.76489e-06
1.88128e-06
2.00083e-06
2.12423e-06
2.25234e-06
2.38604e-06
2.52626e-06
2.67385e-06
2.82958e-06
2.9941e-06
3.16789e-06
3.35125e-06
3.54425e-06
3.74674e-06
3.95829e-06
4.17823e-06
4.40561e-06
4.63925e-06
4.87776e-06
5.11959e-06
5.36315e-06
5.60683e-06
5.84918e-06
6.08898e-06
6.32534e-06
6.5578e-06
6.78637e-06
7.01153e-06
7.23416e-06
7.45543e-06
7.67658e-06
7.89872e-06
8.1225e-06
8.34781e-06
8.57345e-06
8.79686e-06
9.01385e-06
9.21842e-06
9.40287e-06
9.55796e-06
9.66813e-06
9.71672e-06
9.71236e-06
9.62729e-06
9.44864e-06
9.16862e-06
8.78317e-06
8.29345e-06
7.70726e-06
7.03972e-06
6.31334e-06
5.55722e-06
4.80552e-06
4.09585e-06
3.46867e-06
2.97006e-06
2.67485e-06
2.68341e-06
3.36829e-06
6.82142e-06
3.38151e-06
1.62228e-06
1.1697e-06
9.96352e-07
9.33556e-07
9.29368e-07
9.62055e-07
1.01999e-06
1.0959e-06
1.18474e-06
1.28288e-06
1.38764e-06
1.49717e-06
1.61025e-06
1.72624e-06
1.845e-06
1.96673e-06
2.09195e-06
2.22138e-06
2.35586e-06
2.49628e-06
2.64354e-06
2.79847e-06
2.96179e-06
3.13409e-06
3.31576e-06
3.507e-06
3.70776e-06
3.91774e-06
4.13637e-06
4.36282e-06
4.596e-06
4.83461e-06
5.07716e-06
5.32208e-06
5.56778e-06
5.8128e-06
6.05587e-06
6.29607e-06
6.53288e-06
6.7663e-06
6.99683e-06
7.22543e-06
7.45343e-06
7.68239e-06
7.91382e-06
8.14895e-06
8.38841e-06
8.63191e-06
8.87797e-06
9.12361e-06
9.36416e-06
9.59312e-06
9.80226e-06
9.98161e-06
1.01178e-05
1.01879e-05
1.02015e-05
1.01367e-05
9.97399e-06
9.70529e-06
9.32547e-06
8.83431e-06
8.23818e-06
7.55112e-06
6.79523e-06
6.00025e-06
5.2023e-06
4.44235e-06
3.76541e-06
3.22309e-06
2.89897e-06
2.90127e-06
3.63352e-06
7.35107e-06
3.68941e-06
1.76776e-06
1.27029e-06
1.07644e-06
1.00255e-06
9.9222e-07
1.02183e-06
1.07889e-06
1.15554e-06
1.24633e-06
1.34733e-06
1.45564e-06
1.56923e-06
1.6868e-06
1.80763e-06
1.93153e-06
2.05872e-06
2.18969e-06
2.32517e-06
2.46601e-06
2.61309e-06
2.76729e-06
2.9294e-06
3.1001e-06
3.27989e-06
3.46909e-06
3.66777e-06
3.87577e-06
4.09264e-06
4.31769e-06
4.54993e-06
4.78816e-06
5.03097e-06
5.27685e-06
5.52422e-06
5.77159e-06
6.01767e-06
6.26143e-06
6.50229e-06
6.74015e-06
6.97544e-06
7.20911e-06
7.44256e-06
7.67748e-06
7.91569e-06
8.15882e-06
8.40809e-06
8.66397e-06
8.92589e-06
9.19199e-06
9.45885e-06
9.72138e-06
9.97261e-06
1.0204e-05
1.04052e-05
1.05633e-05
1.06545e-05
1.06827e-05
1.06372e-05
1.04901e-05
1.02334e-05
9.86111e-06
9.37147e-06
8.76923e-06
8.06691e-06
7.28562e-06
6.45511e-06
5.61294e-06
4.80311e-06
4.07522e-06
3.48678e-06
3.13057e-06
3.1236e-06
3.90076e-06
7.88181e-06
4.00782e-06
1.9182e-06
1.3744e-06
1.15957e-06
1.07448e-06
1.05816e-06
1.08496e-06
1.14148e-06
1.21923e-06
1.31232e-06
1.4165e-06
1.52864e-06
1.64654e-06
1.76877e-06
1.89457e-06
2.0237e-06
2.15637e-06
2.29309e-06
2.43458e-06
2.58169e-06
2.7353e-06
2.89626e-06
3.06533e-06
3.24311e-06
3.43005e-06
3.62636e-06
3.832e-06
4.04669e-06
4.26986e-06
4.50066e-06
4.73802e-06
4.98063e-06
5.22703e-06
5.47569e-06
5.72511e-06
5.97394e-06
6.22109e-06
6.46584e-06
6.70796e-06
6.94775e-06
7.18608e-06
7.42428e-06
7.66411e-06
7.90752e-06
8.15642e-06
8.41248e-06
8.67675e-06
8.94943e-06
9.2296e-06
9.51497e-06
9.8017e-06
1.00843e-05
1.03554e-05
1.06063e-05
1.08265e-05
1.10031e-05
1.11134e-05
1.1154e-05
1.11258e-05
1.09934e-05
1.07491e-05
1.03857e-05
9.90011e-06
9.29539e-06
8.58214e-06
7.77996e-06
6.91795e-06
6.03445e-06
5.17605e-06
4.39682e-06
3.76046e-06
3.36934e-06
3.35033e-06
4.17006e-06
8.41386e-06
4.33679e-06
2.0736e-06
1.48201e-06
1.24565e-06
1.14924e-06
1.12704e-06
1.15126e-06
1.20753e-06
1.28669e-06
1.38239e-06
1.49002e-06
1.60621e-06
1.72858e-06
1.85559e-06
1.98642e-06
2.12079e-06
2.25892e-06
2.40131e-06
2.5487e-06
2.70193e-06
2.86187e-06
3.02935e-06
3.20509e-06
3.38962e-06
3.58332e-06
3.78629e-06
3.9984e-06
4.21925e-06
4.44814e-06
4.68412e-06
4.92603e-06
5.17249e-06
5.42203e-06
5.67317e-06
5.92451e-06
6.17487e-06
6.42342e-06
6.66977e-06
6.91405e-06
7.15695e-06
7.3997e-06
7.64398e-06
7.89178e-06
8.14519e-06
8.40615e-06
8.67617e-06
8.95607e-06
9.24569e-06
9.5437e-06
9.84735e-06
1.01524e-05
1.0453e-05
1.07416e-05
1.10094e-05
1.12456e-05
1.14377e-05
1.15645e-05
1.16155e-05
1.16021e-05
1.14832e-05
1.12506e-05
1.08968e-05
1.04172e-05
9.81308e-06
9.09296e-06
8.27446e-06
7.38539e-06
6.46412e-06
5.55926e-06
4.72904e-06
4.04352e-06
3.61508e-06
3.58148e-06
4.44158e-06
8.94761e-06
4.67636e-06
2.23398e-06
1.59308e-06
1.33462e-06
1.22673e-06
1.19873e-06
1.22055e-06
1.27683e-06
1.35768e-06
1.45625e-06
1.56755e-06
1.68796e-06
1.81491e-06
1.94675e-06
2.0826e-06
2.22217e-06
2.36565e-06
2.51358e-06
2.6667e-06
2.82584e-06
2.99188e-06
3.16561e-06
3.34769e-06
3.53861e-06
3.73867e-06
3.94787e-06
4.16598e-06
4.39248e-06
4.6266e-06
4.86729e-06
5.11332e-06
5.36329e-06
5.61575e-06
5.8693e-06
6.1227e-06
6.37498e-06
6.62558e-06
6.87445e-06
7.12206e-06
7.36947e-06
7.6182e-06
7.8702e-06
8.1276e-06
8.39251e-06
8.66676e-06
8.95165e-06
9.24764e-06
9.55419e-06
9.8695e-06
1.01904e-05
1.05123e-05
1.0829e-05
1.11329e-05
1.1415e-05
1.16646e-05
1.18693e-05
1.20097e-05
1.20697e-05
1.2068e-05
1.19607e-05
1.17389e-05
1.13943e-05
1.09216e-05
1.03202e-05
9.59658e-06
8.76604e-06
7.85445e-06
6.89946e-06
5.9509e-06
5.07077e-06
4.33543e-06
3.86767e-06
3.81714e-06
4.71556e-06
9.48358e-06
5.02657e-06
2.39933e-06
1.70759e-06
1.42642e-06
1.30686e-06
1.2731e-06
1.2927e-06
1.34921e-06
1.43198e-06
1.53363e-06
1.64878e-06
1.77351e-06
1.90509e-06
2.04176e-06
2.18257e-06
2.32723e-06
2.47593e-06
2.62922e-06
2.78784e-06
2.95266e-06
3.12452e-06
3.30418e-06
3.49228e-06
3.68924e-06
3.89526e-06
4.11028e-06
4.33397e-06
4.56574e-06
4.8047e-06
5.04977e-06
5.29966e-06
5.553e-06
5.8084e-06
6.06458e-06
6.32046e-06
6.57534e-06
6.82894e-06
7.08151e-06
7.33387e-06
7.58737e-06
7.84378e-06
8.10521e-06
8.37383e-06
8.65167e-06
8.94038e-06
9.24094e-06
9.55342e-06
9.87683e-06
1.02089e-05
1.05462e-05
1.08836e-05
1.12149e-05
1.15321e-05
1.18264e-05
1.20871e-05
1.23018e-05
1.2453e-05
1.25214e-05
1.25274e-05
1.24295e-05
1.22164e-05
1.18799e-05
1.14138e-05
1.08161e-05
1.00914e-05
9.2524e-06
8.32262e-06
7.33818e-06
6.34925e-06
5.42092e-06
4.6357e-06
4.127e-06
4.05745e-06
4.99228e-06
1.00224e-05
5.38742e-06
2.56965e-06
1.8255e-06
1.52101e-06
1.38957e-06
1.35008e-06
1.36758e-06
1.42451e-06
1.50941e-06
1.61431e-06
1.73342e-06
1.86254e-06
1.99875e-06
2.14018e-06
2.28584e-06
2.43543e-06
2.58915e-06
2.74758e-06
2.91147e-06
3.08169e-06
3.25908e-06
3.44438e-06
3.63817e-06
3.84082e-06
4.05246e-06
4.27296e-06
4.50191e-06
4.73863e-06
4.9822e-06
5.23148e-06
5.48519e-06
5.742e-06
6.00061e-06
6.25989e-06
6.51898e-06
6.77741e-06
7.0352e-06
7.29291e-06
7.55163e-06
7.81295e-06
8.07882e-06
8.35142e-06
8.63286e-06
8.92504e-06
9.22932e-06
9.54629e-06
9.87564e-06
1.02159e-05
1.05645e-05
1.09174e-05
1.12694e-05
1.16139e-05
1.19431e-05
1.2248e-05
1.25179e-05
1.27407e-05
1.29003e-05
1.29752e-05
1.29861e-05
1.2895e-05
1.26879e-05
1.23571e-05
1.1896e-05
1.13016e-05
1.05769e-05
9.73204e-06
8.78787e-06
7.77821e-06
6.75262e-06
5.77841e-06
4.9438e-06
4.39297e-06
4.30256e-06
5.27203e-06
1.05646e-05
5.75892e-06
2.74493e-06
1.9468e-06
1.61835e-06
1.47479e-06
1.42956e-06
1.44508e-06
1.50259e-06
1.58978e-06
1.69806e-06
1.82121e-06
1.95472e-06
2.09551e-06
2.24159e-06
2.39194e-06
2.54626e-06
2.70479e-06
2.8681e-06
3.037e-06
3.21235e-06
3.39498e-06
3.58562e-06
3.78481e-06
3.99286e-06
4.20985e-06
4.43557e-06
4.66956e-06
4.91108e-06
5.15917e-06
5.41268e-06
5.67038e-06
5.931e-06
6.19335e-06
6.45649e-06
6.71976e-06
6.98296e-06
7.24638e-06
7.51084e-06
7.77767e-06
8.04865e-06
8.32582e-06
8.61133e-06
8.9072e-06
9.21507e-06
9.53598e-06
9.87014e-06
1.02168e-05
1.05741e-05
1.09389e-05
1.13071e-05
1.1673e-05
1.20301e-05
1.23704e-05
1.2685e-05
1.29629e-05
1.31924e-05
1.33582e-05
1.34375e-05
1.34513e-05
1.33636e-05
1.31594e-05
1.2831e-05
1.2372e-05
1.17791e-05
1.10538e-05
1.02044e-05
9.24871e-06
8.21772e-06
7.15936e-06
6.14208e-06
5.25917e-06
4.66544e-06
4.55259e-06
5.5551e-06
1.1111e-05
6.14107e-06
2.92515e-06
2.07145e-06
1.71838e-06
1.56246e-06
1.51149e-06
1.5251e-06
1.58333e-06
1.67293e-06
1.78467e-06
1.91188e-06
2.04976e-06
2.19501e-06
2.34559e-06
2.50044e-06
2.65927e-06
2.82234e-06
2.99028e-06
3.16392e-06
3.34413e-06
3.53175e-06
3.72747e-06
3.93181e-06
4.14505e-06
4.36719e-06
4.59799e-06
4.83693e-06
5.08325e-06
5.33596e-06
5.59395e-06
5.85603e-06
6.12102e-06
6.3879e-06
6.65589e-06
6.92457e-06
7.19397e-06
7.46465e-06
7.73763e-06
8.01446e-06
8.29699e-06
8.58731e-06
8.88748e-06
9.19933e-06
9.52422e-06
9.86284e-06
1.0215e-05
1.05795e-05
1.0954e-05
1.13352e-05
1.17186e-05
1.20984e-05
1.24678e-05
1.28189e-05
1.31426e-05
1.34282e-05
1.36636e-05
1.38339e-05
1.39157e-05
1.39307e-05
1.38432e-05
1.3638e-05
1.3308e-05
1.2847e-05
1.2252e-05
1.1524e-05
1.06697e-05
9.70425e-06
8.65519e-06
7.56789e-06
6.51074e-06
5.58117e-06
4.94422e-06
4.80764e-06
5.84175e-06
1.16619e-05
6.53383e-06
3.11028e-06
2.19943e-06
1.82108e-06
1.65253e-06
1.59577e-06
1.60755e-06
1.6666e-06
1.7587e-06
1.87395e-06
2.0052e-06
2.14735e-06
2.29693e-06
2.45181e-06
2.61093e-06
2.77401e-06
2.94137e-06
3.11369e-06
3.29181e-06
3.47665e-06
3.66903e-06
3.86964e-06
4.07896e-06
4.29725e-06
4.52447e-06
4.76033e-06
5.00429e-06
5.25557e-06
5.51321e-06
5.77612e-06
6.04319e-06
6.31338e-06
6.5858e-06
6.85987e-06
7.13539e-06
7.41263e-06
7.69233e-06
7.97574e-06
8.26449e-06
8.56051e-06
8.86583e-06
9.18238e-06
9.51175e-06
9.85497e-06
1.02124e-05
1.05833e-05
1.09663e-05
1.13586e-05
1.17566e-05
1.21555e-05
1.25494e-05
1.29314e-05
1.32934e-05
1.36266e-05
1.39198e-05
1.4161e-05
1.43347e-05
1.44177e-05
1.44322e-05
1.4342e-05
1.41319e-05
1.37955e-05
1.33275e-05
1.27255e-05
1.19908e-05
1.11295e-05
1.01543e-05
9.08944e-06
7.97672e-06
6.88313e-06
5.90902e-06
5.22902e-06
5.06774e-06
6.13214e-06
1.22179e-05
6.93714e-06
3.3003e-06
2.3307e-06
1.92639e-06
1.74495e-06
1.68236e-06
1.69233e-06
1.75227e-06
1.84693e-06
1.96569e-06
2.10092e-06
2.24722e-06
2.40095e-06
2.55991e-06
2.72304e-06
2.89012e-06
3.06152e-06
3.23796e-06
3.42035e-06
3.60961e-06
3.80659e-06
4.01196e-06
4.22619e-06
4.44951e-06
4.68185e-06
4.92291e-06
5.17212e-06
5.42873e-06
5.69179e-06
5.96028e-06
6.2332e-06
6.50961e-06
6.78881e-06
7.0704e-06
7.35438e-06
7.64123e-06
7.93186e-06
8.22765e-06
8.5303e-06
8.84174e-06
9.1639e-06
9.4985e-06
9.84688e-06
1.02097e-05
1.0587e-05
1.09777e-05
1.13799e-05
1.17907e-05
1.2206e-05
1.2621e-05
1.30297e-05
1.34249e-05
1.37987e-05
1.41419e-05
1.44434e-05
1.46908e-05
1.48677e-05
1.49509e-05
1.49641e-05
1.48683e-05
1.46495e-05
1.43018e-05
1.38207e-05
1.32055e-05
1.24585e-05
1.1586e-05
1.05995e-05
9.51974e-06
8.3845e-06
7.25795e-06
6.24186e-06
5.51944e-06
5.33282e-06
6.42639e-06
1.27791e-05
7.35093e-06
3.49516e-06
2.46522e-06
2.03428e-06
1.83966e-06
1.77117e-06
1.77936e-06
1.84024e-06
1.93747e-06
2.05971e-06
2.19882e-06
2.3491e-06
2.50676e-06
2.66956e-06
2.83645e-06
3.00727e-06
3.18247e-06
3.36283e-06
3.5493e-06
3.74285e-06
3.94434e-06
4.15444e-06
4.37362e-06
4.60206e-06
4.83972e-06
5.08627e-06
5.34116e-06
5.60364e-06
5.87282e-06
6.14778e-06
6.42759e-06
6.71147e-06
6.99888e-06
7.2896e-06
7.58382e-06
7.88216e-06
8.18569e-06
8.49587e-06
8.81442e-06
9.14319e-06
9.48396e-06
9.83825e-06
1.02071e-05
1.05908e-05
1.0989e-05
1.14004e-05
1.18227e-05
1.22527e-05
1.26863e-05
1.31182e-05
1.35425e-05
1.39521e-05
1.43387e-05
1.46931e-05
1.5004e-05
1.52588e-05
1.54392e-05
1.55226e-05
1.55336e-05
1.54302e-05
1.51994e-05
1.48353e-05
1.43349e-05
1.3699e-05
1.29324e-05
1.20428e-05
1.10412e-05
9.94591e-06
8.79009e-06
7.63385e-06
6.57868e-06
5.81496e-06
5.60272e-06
6.72448e-06
1.33456e-05
7.7751e-06
3.69481e-06
2.60294e-06
2.14469e-06
1.93661e-06
1.86215e-06
1.86856e-06
1.93038e-06
2.03017e-06
2.15581e-06
2.29867e-06
2.45274e-06
2.6141e-06
2.78047e-06
2.95087e-06
3.1252e-06
3.30398e-06
3.48809e-06
3.67854e-06
3.87633e-06
4.08233e-06
4.29724e-06
4.52152e-06
4.75535e-06
4.99868e-06
5.25119e-06
5.51234e-06
5.78144e-06
6.05766e-06
6.34015e-06
6.62811e-06
6.9209e-06
7.21813e-06
7.51974e-06
7.82607e-06
8.13789e-06
8.45634e-06
8.78293e-06
9.11933e-06
9.46729e-06
9.82841e-06
1.02039e-05
1.05946e-05
1.10005e-05
1.14207e-05
1.18538e-05
1.22971e-05
1.27472e-05
1.31999e-05
1.36498e-05
1.40909e-05
1.45159e-05
1.49167e-05
1.5284e-05
1.56058e-05
1.58693e-05
1.60547e-05
1.61387e-05
1.61475e-05
1.60353e-05
1.57896e-05
1.54046e-05
1.48783e-05
1.42139e-05
1.34191e-05
1.25042e-05
1.14818e-05
1.03684e-05
9.19264e-06
8.00952e-06
6.91837e-06
6.11493e-06
5.87715e-06
7.0263e-06
1.39173e-05
8.20955e-06
3.89919e-06
2.74381e-06
2.25758e-06
2.03574e-06
1.95522e-06
1.95982e-06
2.02259e-06
2.12489e-06
2.25382e-06
2.40025e-06
2.55789e-06
2.7227e-06
2.8924e-06
3.06605e-06
3.24368e-06
3.4259e-06
3.61367e-06
3.80806e-06
4.01012e-06
4.22077e-06
4.4407e-06
4.67038e-06
4.91e-06
5.15952e-06
5.41864e-06
5.68685e-06
5.96351e-06
6.24786e-06
6.53916e-06
6.83672e-06
7.14002e-06
7.44882e-06
7.7632e-06
8.08361e-06
8.41093e-06
8.74635e-06
9.09134e-06
9.44751e-06
9.81645e-06
1.01996e-05
1.05978e-05
1.10116e-05
1.14408e-05
1.18841e-05
1.23398e-05
1.2805e-05
1.32762e-05
1.37489e-05
1.42179e-05
1.4677e-05
1.5119e-05
1.55355e-05
1.59172e-05
1.62519e-05
1.6526e-05
1.67183e-05
1.68044e-05
1.68114e-05
1.66901e-05
1.64276e-05
1.60178e-05
1.54595e-05
1.47583e-05
1.39255e-05
1.29759e-05
1.19247e-05
1.07883e-05
9.59168e-06
8.38373e-06
7.25968e-06
6.41854e-06
6.15569e-06
7.3316e-06
1.44937e-05
8.65411e-06
4.10823e-06
2.88779e-06
2.37289e-06
2.137e-06
2.05031e-06
2.05307e-06
2.11673e-06
2.22147e-06
2.35356e-06
2.50337e-06
2.66434e-06
2.83233e-06
3.00511e-06
3.18183e-06
3.3626e-06
3.54816e-06
3.73956e-06
3.93797e-06
4.14447e-06
4.36001e-06
4.58531e-06
4.82085e-06
5.06684e-06
5.32325e-06
5.58981e-06
5.86607e-06
6.15142e-06
6.44521e-06
6.74677e-06
7.05553e-06
7.37109e-06
7.69334e-06
8.02245e-06
8.35899e-06
8.70385e-06
9.05826e-06
9.42361e-06
9.8014e-06
1.0193e-05
1.05997e-05
1.1022e-05
1.14602e-05
1.19136e-05
1.2381e-05
1.28602e-05
1.33482e-05
1.38413e-05
1.4335e-05
1.48242e-05
1.53025e-05
1.57627e-05
1.61966e-05
1.65945e-05
1.6944e-05
1.7231e-05
1.74331e-05
1.75233e-05
1.75295e-05
1.73998e-05
1.71199e-05
1.66823e-05
1.60866e-05
1.53405e-05
1.44596e-05
1.34641e-05
1.2374e-05
1.12076e-05
9.98721e-06
8.75537e-06
7.60133e-06
6.72486e-06
6.43778e-06
7.63997e-06
1.50741e-05
9.10864e-06
4.32184e-06
3.03479e-06
2.49056e-06
2.24032e-06
2.14735e-06
2.14821e-06
2.21271e-06
2.31977e-06
2.45484e-06
2.60781e-06
2.77187e-06
2.94282e-06
3.11846e-06
3.29806e-06
3.48188e-06
3.67078e-06
3.86592e-06
4.06852e-06
4.27975e-06
4.50058e-06
4.73177e-06
4.9738e-06
5.22692e-06
5.4911e-06
5.76614e-06
6.05161e-06
6.34698e-06
6.65168e-06
6.96512e-06
7.28684e-06
7.61656e-06
7.95422e-06
8.30011e-06
8.65482e-06
9.01929e-06
9.39468e-06
9.78228e-06
1.01834e-05
1.05994e-05
1.10309e-05
1.14786e-05
1.19422e-05
1.2421e-05
1.29132e-05
1.34166e-05
1.39281e-05
1.44439e-05
1.49595e-05
1.54697e-05
1.59683e-05
1.64482e-05
1.6901e-05
1.73169e-05
1.76832e-05
1.79853e-05
1.82003e-05
1.82974e-05
1.83046e-05
1.81684e-05
1.78714e-05
1.74046e-05
1.67671e-05
1.59687e-05
1.50294e-05
1.39758e-05
1.28348e-05
1.1629e-05
1.03798e-05
9.12357e-06
7.94198e-06
7.0328e-06
6.7227e-06
7.95086e-06
1.56577e-05
9.57295e-06
4.53993e-06
3.18476e-06
2.61054e-06
2.34566e-06
2.24624e-06
2.24515e-06
2.31039e-06
2.41964e-06
2.55751e-06
2.71341e-06
2.88031e-06
3.05399e-06
3.23232e-06
3.41471e-06
3.60158e-06
3.79391e-06
3.99298e-06
4.20011e-06
4.41651e-06
4.64319e-06
4.88095e-06
5.13029e-06
5.39147e-06
5.66452e-06
5.94925e-06
6.2453e-06
6.55221e-06
6.86946e-06
7.19657e-06
7.53315e-06
7.879e-06
8.23414e-06
8.59888e-06
8.97385e-06
9.35995e-06
9.75826e-06
1.01699e-05
1.05961e-05
1.10378e-05
1.14956e-05
1.19697e-05
1.24597e-05
1.29645e-05
1.34822e-05
1.40105e-05
1.45461e-05
1.50852e-05
1.56233e-05
1.61552e-05
1.6675e-05
1.71756e-05
1.76485e-05
1.80841e-05
1.84693e-05
1.87887e-05
1.90201e-05
1.91275e-05
1.91379e-05
1.89981e-05
1.86859e-05
1.81898e-05
1.75077e-05
1.66506e-05
1.56428e-05
1.45184e-05