/*--------------------------------*- C++ -*----------------------------------*\
  =========                 |
  \\      /  F ield         | OpenFOAM: The Open Source CFD Toolbox
   \\    /   O peration     | Website:  https://openfoam.org
    \\  /    A nd           | Version:  12
     \\/     M anipulation  |
\*---------------------------------------------------------------------------*/
FoamFile
{
    format      ascii;
    class       volScalarField;
    location    "3";
    object      k;
}
// * * * * * * * * * * * * * * * * * * * * * * * * * * * * * * * * * * * * * //

dimensions      [0 2 -2 0 0 0 0];

internalField   nonuniform List<scalar> 
5625
(
1.20835e-11
8.1675e-11
1.81148e-10
2.98222e-10
4.26596e-10
5.61929e-10
7.00856e-10
8.40661e-10
9.79151e-10
1.1146e-09
1.2457e-09
1.3716e-09
1.4918e-09
1.6062e-09
1.71502e-09
1.81875e-09
1.91811e-09
2.014e-09
2.10742e-09
2.19943e-09
2.29112e-09
2.38356e-09
2.47777e-09
2.5747e-09
2.67525e-09
2.78022e-09
2.89034e-09
3.00624e-09
3.12851e-09
3.25762e-09
3.394e-09
3.53801e-09
3.68992e-09
3.84994e-09
4.01821e-09
4.19475e-09
4.37951e-09
4.57231e-09
4.77283e-09
4.98056e-09
5.1948e-09
5.41462e-09
5.63876e-09
5.86563e-09
6.09322e-09
6.31905e-09
6.5401e-09
6.75275e-09
6.95276e-09
7.13519e-09
7.29441e-09
7.42406e-09
7.51657e-09
7.56207e-09
7.56489e-09
7.51175e-09
7.39587e-09
7.21319e-09
6.96174e-09
6.64202e-09
6.25728e-09
5.81384e-09
5.32102e-09
4.79072e-09
4.23678e-09
3.67397e-09
3.11686e-09
2.57877e-09
2.07086e-09
1.60162e-09
1.17691e-09
8.0066e-10
4.76629e-10
2.12347e-10
3.13355e-11
9.13103e-11
7.27312e-10
1.62529e-09
2.68013e-09
3.83616e-09
5.05453e-09
6.30507e-09
7.56339e-09
8.80975e-09
1.00286e-08
1.12083e-08
1.23411e-08
1.34225e-08
1.44517e-08
1.54305e-08
1.63635e-08
1.72572e-08
1.81196e-08
1.89598e-08
1.97873e-08
2.06119e-08
2.14433e-08
2.22906e-08
2.31624e-08
2.40668e-08
2.5011e-08
2.60014e-08
2.7044e-08
2.81437e-08
2.93051e-08
3.0532e-08
3.18274e-08
3.31939e-08
3.46334e-08
3.61471e-08
3.77353e-08
3.93974e-08
4.11319e-08
4.29358e-08
4.48046e-08
4.67322e-08
4.87099e-08
5.07266e-08
5.2768e-08
5.4816e-08
5.68483e-08
5.88378e-08
6.07521e-08
6.25528e-08
6.41955e-08
6.56299e-08
6.67986e-08
6.76336e-08
6.80427e-08
6.80671e-08
6.75866e-08
6.65411e-08
6.48942e-08
6.26287e-08
5.9749e-08
5.62846e-08
5.22926e-08
4.78567e-08
4.30843e-08
3.80997e-08
3.30359e-08
2.80239e-08
2.31835e-08
1.86149e-08
1.43944e-08
1.05743e-08
7.18952e-09
4.27304e-09
1.88955e-09
2.36651e-10
1.93847e-10
1.66003e-09
3.73387e-09
6.17016e-09
8.83965e-09
1.16526e-08
1.45394e-08
1.74437e-08
2.03199e-08
2.31323e-08
2.58539e-08
2.84666e-08
3.09606e-08
3.33337e-08
3.55904e-08
3.77412e-08
3.98012e-08
4.1789e-08
4.37256e-08
4.56333e-08
4.75345e-08
4.94515e-08
5.14056e-08
5.34167e-08
5.55033e-08
5.76821e-08
5.99681e-08
6.23748e-08
6.49139e-08
6.75957e-08
7.04289e-08
7.34209e-08
7.65775e-08
7.9903e-08
8.34e-08
8.70694e-08
9.09098e-08
9.49173e-08
9.90852e-08
1.03403e-07
1.07856e-07
1.12425e-07
1.17083e-07
1.21796e-07
1.26524e-07
1.31215e-07
1.35804e-07
1.40218e-07
1.44368e-07
1.4815e-07
1.5145e-07
1.54136e-07
1.56048e-07
1.56967e-07
1.57019e-07
1.559e-07
1.53476e-07
1.49664e-07
1.44425e-07
1.3777e-07
1.29766e-07
1.20545e-07
1.10302e-07
9.92836e-08
8.77785e-08
7.60934e-08
6.45313e-08
5.33687e-08
4.28364e-08
3.31096e-08
2.43081e-08
1.65109e-08
9.79243e-09
4.30235e-09
5.01155e-10
3.16878e-10
2.78107e-09
6.28568e-09
1.04082e-08
1.49264e-08
1.96871e-08
2.45721e-08
2.94858e-08
3.43512e-08
3.91074e-08
4.37091e-08
4.81256e-08
5.23403e-08
5.63496e-08
6.01617e-08
6.37942e-08
6.72731e-08
7.063e-08
7.39006e-08
7.71226e-08
8.03346e-08
8.35741e-08
8.68772e-08
9.02778e-08
9.3807e-08
9.74932e-08
1.01362e-07
1.05435e-07
1.09734e-07
1.14275e-07
1.19073e-07
1.24141e-07
1.29488e-07
1.35121e-07
1.41045e-07
1.47261e-07
1.53766e-07
1.60554e-07
1.67612e-07
1.74922e-07
1.8246e-07
1.9019e-07
1.98068e-07
2.06038e-07
2.14027e-07
2.21948e-07
2.29695e-07
2.37139e-07
2.44133e-07
2.50503e-07
2.56055e-07
2.60569e-07
2.63773e-07
2.65281e-07
2.65361e-07
2.63454e-07
2.59339e-07
2.52879e-07
2.44009e-07
2.32743e-07
2.19196e-07
2.0359e-07
1.86253e-07
1.67605e-07
1.48137e-07
1.28369e-07
1.08817e-07
8.99492e-08
7.21577e-08
5.57371e-08
4.08874e-08
2.77392e-08
1.64169e-08
7.17786e-09
8.15729e-10
4.56545e-10
4.04697e-09
9.17858e-09
1.52257e-08
2.18567e-08
2.88444e-08
3.60138e-08
4.32242e-08
5.0362e-08
5.73378e-08
6.40848e-08
7.05583e-08
7.6734e-08
8.2607e-08
8.81895e-08
9.35081e-08
9.86011e-08
1.03516e-07
1.08304e-07
1.13023e-07
1.17728e-07
1.22476e-07
1.27318e-07
1.32305e-07
1.37483e-07
1.42893e-07
1.48573e-07
1.54555e-07
1.6087e-07
1.67541e-07
1.74591e-07
1.82037e-07
1.89893e-07
1.9817e-07
2.06873e-07
2.16003e-07
2.25555e-07
2.35519e-07
2.45875e-07
2.56596e-07
2.67643e-07
2.78966e-07
2.90497e-07
3.02151e-07
3.13825e-07
3.25389e-07
3.36688e-07
3.47536e-07
3.57718e-07
3.66984e-07
3.75052e-07
3.81609e-07
3.86247e-07
3.88394e-07
3.88504e-07
3.85704e-07
3.79675e-07
3.70219e-07
3.57232e-07
3.40734e-07
3.20885e-07
2.98008e-07
2.72581e-07
2.45225e-07
2.16661e-07
1.87662e-07
1.5899e-07
1.31339e-07
1.05284e-07
8.12593e-08
5.95526e-08
4.03511e-08
2.38342e-08
1.03837e-08
1.16824e-09
6.10155e-10
5.43431e-09
1.23556e-08
2.05266e-08
2.94929e-08
3.89434e-08
4.86395e-08
5.83895e-08
6.8039e-08
7.74665e-08
8.65817e-08
9.53238e-08
1.03661e-07
1.11586e-07
1.19116e-07
1.26289e-07
1.33157e-07
1.39785e-07
1.46244e-07
1.5261e-07
1.5896e-07
1.6537e-07
1.71912e-07
1.78653e-07
1.85654e-07
1.92972e-07
2.00657e-07
2.08754e-07
2.17301e-07
2.26333e-07
2.35877e-07
2.45957e-07
2.56591e-07
2.67791e-07
2.79563e-07
2.91907e-07
3.04815e-07
3.1827e-07
3.32244e-07
3.46697e-07
3.61575e-07
3.76808e-07
3.92303e-07
4.07946e-07
4.23595e-07
4.39079e-07
4.5419e-07
4.68683e-07
4.82274e-07
4.94632e-07
5.05386e-07
5.14127e-07
5.20295e-07
5.23123e-07
5.23281e-07
5.19536e-07
5.11455e-07
4.98769e-07
4.81329e-07
4.59146e-07
4.32425e-07
4.01589e-07
3.67283e-07
3.30346e-07
2.9176e-07
2.52583e-07
2.13857e-07
1.76532e-07
1.41393e-07
1.09026e-07
7.98177e-08
5.40127e-08
3.18481e-08
1.38381e-08
1.54948e-09
7.75979e-10
6.92895e-09
1.57819e-08
2.62508e-08
3.77476e-08
4.98689e-08
6.23054e-08
7.48092e-08
8.7181e-08
9.92641e-08
1.10942e-07
1.22137e-07
1.32808e-07
1.42947e-07
1.52578e-07
1.6175e-07
1.7053e-07
1.79002e-07
1.87261e-07
1.95404e-07
2.03531e-07
2.11738e-07
2.20118e-07
2.28757e-07
2.37735e-07
2.47122e-07
2.56982e-07
2.67373e-07
2.78343e-07
2.89933e-07
3.0218e-07
3.15111e-07
3.28747e-07
3.43102e-07
3.5818e-07
3.73978e-07
3.90483e-07
4.07668e-07
4.25496e-07
4.4391e-07
4.6284e-07
4.82191e-07
5.01846e-07
5.21658e-07
5.41448e-07
5.61001e-07
5.80059e-07
5.98319e-07
6.15428e-07
6.30978e-07
6.4451e-07
6.55516e-07
6.63285e-07
6.6684e-07
6.67085e-07
6.62397e-07
6.5221e-07
6.36172e-07
6.14073e-07
5.85904e-07
5.51905e-07
5.12601e-07
4.68805e-07
4.21592e-07
3.72232e-07
3.22094e-07
2.72537e-07
2.24794e-07
1.79886e-07
1.38569e-07
1.01334e-07
6.84859e-08
4.03202e-08
1.74836e-08
1.95284e-09
9.52902e-10
8.52181e-09
1.94351e-08
3.2359e-08
4.6563e-08
6.15435e-08
7.69144e-08
9.23666e-08
1.07651e-07
1.22574e-07
1.36989e-07
1.50801e-07
1.63959e-07
1.76456e-07
1.88321e-07
1.99615e-07
2.10427e-07
2.2086e-07
2.31031e-07
2.41064e-07
2.51081e-07
2.61203e-07
2.71544e-07
2.8221e-07
2.93299e-07
3.04897e-07
3.17083e-07
3.29924e-07
3.4348e-07
3.578e-07
3.72925e-07
3.88887e-07
4.05707e-07
4.234e-07
4.41966e-07
4.61397e-07
4.8167e-07
5.02748e-07
5.24579e-07
5.4709e-07
5.7019e-07
5.9376e-07
6.17655e-07
6.41699e-07
6.65676e-07
6.8933e-07
7.12358e-07
7.34402e-07
7.55045e-07
7.73808e-07
7.90146e-07
8.03453e-07
8.12876e-07
8.17213e-07
8.17597e-07
8.12017e-07
7.99737e-07
7.80315e-07
7.53465e-07
7.19142e-07
6.77609e-07
6.29487e-07
5.75762e-07
5.17755e-07
4.57038e-07
3.95321e-07
3.34303e-07
2.75534e-07
2.20293e-07
1.69523e-07
1.23833e-07
8.35901e-08
4.91462e-08
2.12767e-08
2.37319e-09
1.1402e-09
1.02068e-08
2.33002e-08
3.88248e-08
5.58997e-08
7.39143e-08
9.23997e-08
1.1098e-07
1.29355e-07
1.47286e-07
1.64598e-07
1.81176e-07
1.9696e-07
2.11941e-07
2.26157e-07
2.39686e-07
2.52633e-07
2.65126e-07
2.77309e-07
2.89331e-07
3.01339e-07
3.13479e-07
3.25889e-07
3.38695e-07
3.52012e-07
3.65945e-07
3.80584e-07
3.9601e-07
4.12289e-07
4.29479e-07
4.47625e-07
4.66758e-07
4.86903e-07
5.08066e-07
5.30246e-07
5.53422e-07
5.77563e-07
6.02617e-07
6.28514e-07
6.55165e-07
6.82453e-07
7.1024e-07
7.38352e-07
7.66584e-07
7.9469e-07
8.22379e-07
8.49305e-07
8.75065e-07
8.99186e-07
9.21121e-07
9.40244e-07
9.55853e-07
9.66967e-07
9.7214e-07
9.7272e-07
9.6632e-07
9.52001e-07
9.29221e-07
8.97609e-07
8.5707e-07
8.0788e-07
7.50745e-07
6.86822e-07
6.17679e-07
5.45204e-07
4.71459e-07
3.98509e-07
3.2824e-07
2.62217e-07
2.01591e-07
1.47102e-07
9.91835e-08
5.82449e-08
2.51834e-08
2.80657e-09
1.3374e-09
1.19798e-08
2.73673e-08
4.56307e-08
6.5731e-08
8.69447e-08
1.08715e-07
1.30594e-07
1.52223e-07
1.7332e-07
1.93678e-07
2.13159e-07
2.31693e-07
2.49273e-07
2.65947e-07
2.81805e-07
2.96979e-07
3.1162e-07
3.259e-07
3.39995e-07
3.54082e-07
3.68331e-07
3.82902e-07
3.97945e-07
4.13592e-07
4.29964e-07
4.47165e-07
4.65285e-07
4.84398e-07
5.04567e-07
5.25838e-07
5.48244e-07
5.71803e-07
5.96517e-07
6.22376e-07
6.49347e-07
6.77384e-07
7.06419e-07
7.36364e-07
7.67108e-07
7.98517e-07
8.30426e-07
8.62641e-07
8.94932e-07
9.27028e-07
9.58608e-07
9.89295e-07
1.01864e-06
1.04613e-06
1.07116e-06
1.09301e-06
1.11089e-06
1.1237e-06
1.12974e-06
1.13056e-06
1.12341e-06
1.10711e-06
1.08103e-06
1.0447e-06
9.97964e-07
9.41105e-07
8.74906e-07
8.00684e-07
7.20248e-07
6.35798e-07
5.49756e-07
4.64562e-07
3.8246e-07
3.05322e-07
2.34528e-07
1.70968e-07
1.15153e-07
6.75513e-08
2.91764e-08
3.24985e-09
1.54416e-09
1.38382e-08
3.163e-08
5.27648e-08
7.60389e-08
1.0061e-07
1.25827e-07
1.51166e-07
1.76208e-07
2.0062e-07
2.24162e-07
2.46672e-07
2.68072e-07
2.88354e-07
3.07576e-07
3.25849e-07
3.43328e-07
3.60192e-07
3.76642e-07
3.92883e-07
4.09122e-07
4.25554e-07
4.42366e-07
4.59726e-07
4.77787e-07
4.96683e-07
5.1653e-07
5.37427e-07
5.59456e-07
5.82679e-07
6.07144e-07
6.3288e-07
6.59898e-07
6.88192e-07
7.17737e-07
7.48489e-07
7.80384e-07
8.13335e-07
8.47236e-07
8.81957e-07
9.17342e-07
9.5321e-07
9.89348e-07
1.02551e-06
1.0614e-06
1.09668e-06
1.13094e-06
1.16372e-06
1.19444e-06
1.22244e-06
1.24693e-06
1.26702e-06
1.28149e-06
1.2884e-06
1.28947e-06
1.28159e-06
1.26335e-06
1.23402e-06
1.19304e-06
1.14019e-06
1.07575e-06
1.00057e-06
9.16105e-07
8.24396e-07
7.2794e-07
6.29509e-07
5.31922e-07
4.37791e-07
3.49313e-07
2.68126e-07
1.95288e-07
1.31406e-07
7.70134e-08
3.32336e-08
3.70053e-09
1.76029e-09
1.57801e-08
3.60841e-08
6.02196e-08
8.68116e-08
1.14893e-07
1.43714e-07
1.7267e-07
2.01274e-07
2.29144e-07
2.55999e-07
2.81656e-07
3.06024e-07
3.29099e-07
3.50952e-07
3.71713e-07
3.91562e-07
4.10711e-07
4.2939e-07
4.47837e-07
4.66288e-07
4.84966e-07
5.0408e-07
5.23822e-07
5.4436e-07
5.65844e-07
5.88399e-07
6.12132e-07
6.37126e-07
6.63447e-07
6.91136e-07
7.20218e-07
7.50694e-07
7.82546e-07
8.15734e-07
8.50197e-07
8.85853e-07
9.22597e-07
9.60304e-07
9.98827e-07
1.03799e-06
1.07761e-06
1.11745e-06
1.15725e-06
1.19671e-06
1.23548e-06
1.27313e-06
1.30915e-06
1.34294e-06
1.37377e-06
1.40079e-06
1.42299e-06
1.43903e-06
1.44673e-06
1.44802e-06
1.43939e-06
1.41921e-06
1.38667e-06
1.34112e-06
1.28229e-06
1.21043e-06
1.12646e-06
1.03195e-06
9.29153e-07
8.20829e-07
7.10086e-07
6.00107e-07
4.9388e-07
3.93942e-07
3.02213e-07
2.19948e-07
1.47871e-07
8.65897e-08
3.73373e-08
4.1566e-09
1.98565e-09
1.78045e-08
4.0727e-08
6.79906e-08
9.80419e-08
1.29784e-07
1.62363e-07
1.95087e-07
2.27399e-07
2.58861e-07
2.89151e-07
3.18062e-07
3.45493e-07
3.71442e-07
3.95993e-07
4.19302e-07
4.41575e-07
4.63058e-07
4.84013e-07
5.04712e-07
5.25421e-07
5.4639e-07
5.67855e-07
5.90025e-07
6.13086e-07
6.372e-07
6.62501e-07
6.891e-07
7.17082e-07
7.4651e-07
7.77419e-07
8.09825e-07
8.43716e-07
8.79061e-07
9.15801e-07
9.5386e-07
9.93135e-07
1.03351e-06
1.07483e-06
1.11694e-06
1.15967e-06
1.2028e-06
1.2461e-06
1.28931e-06
1.33212e-06
1.37416e-06
1.41499e-06
1.45408e-06
1.49078e-06
1.52429e-06
1.55368e-06
1.57784e-06
1.59529e-06
1.60366e-06
1.60508e-06
1.59559e-06
1.57343e-06
1.53768e-06
1.48764e-06
1.42298e-06
1.34394e-06
1.25146e-06
1.14724e-06
1.03368e-06
9.13774e-07
7.90941e-07
6.68707e-07
5.50429e-07
4.39002e-07
3.3665e-07
2.44857e-07
1.6449e-07
9.62478e-08
4.14737e-08
4.6165e-09
2.22017e-09
1.9911e-08
4.55574e-08
7.60753e-08
1.09726e-07
1.45277e-07
1.81763e-07
2.18404e-07
2.54564e-07
2.89746e-07
3.23587e-07
3.55851e-07
3.86427e-07
4.15319e-07
4.42627e-07
4.6853e-07
4.93268e-07
5.1712e-07
5.40386e-07
5.63369e-07
5.86367e-07
6.0966e-07
6.33505e-07
6.58132e-07
6.83742e-07
7.10507e-07
7.38569e-07
7.6804e-07
7.99005e-07
8.31519e-07
8.65612e-07
9.01285e-07
9.38514e-07
9.77251e-07
1.01742e-06
1.05892e-06
1.10165e-06
1.14545e-06
1.19018e-06
1.23567e-06
1.28172e-06
1.32813e-06
1.37467e-06
1.42107e-06
1.46702e-06
1.51214e-06
1.55597e-06
1.59795e-06
1.63738e-06
1.6734e-06
1.70499e-06
1.73093e-06
1.74955e-06
1.75838e-06
1.7598e-06
1.74928e-06
1.72503e-06
1.68607e-06
1.6316e-06
1.56128e-06
1.47533e-06
1.37471e-06
1.26118e-06
1.13728e-06
1.00621e-06
8.71627e-07
7.37385e-07
6.072e-07
4.84329e-07
3.71329e-07
2.69947e-07
1.81221e-07
1.05964e-07
4.56322e-08
5.07904e-09
2.46385e-09
2.20994e-08
5.05751e-08
8.44728e-08
1.21861e-07
1.61367e-07
2.01911e-07
2.42612e-07
2.82756e-07
3.21781e-07
3.59279e-07
3.94985e-07
4.2878e-07
4.60673e-07
4.90781e-07
5.19314e-07
5.46544e-07
5.72789e-07
5.98384e-07
6.23669e-07
6.48974e-07
6.74606e-07
7.00847e-07
7.27943e-07
7.56111e-07
7.85529e-07
8.16345e-07
8.48671e-07
8.82587e-07
9.18143e-07
9.55355e-07
9.94213e-07
1.03468e-06
1.07668e-06
1.12013e-06
1.16491e-06
1.2109e-06
1.25794e-06
1.30587e-06
1.35451e-06
1.40367e-06
1.45316e-06
1.50274e-06
1.55214e-06
1.60105e-06
1.64909e-06
1.69577e-06
1.74048e-06
1.78247e-06
1.82081e-06
1.85438e-06
1.88189e-06
1.90137e-06
1.91043e-06
1.91166e-06
1.89988e-06
1.8734e-06
1.83116e-06
1.77232e-06
1.69651e-06
1.60394e-06
1.49557e-06
1.37321e-06
1.23948e-06
1.09772e-06
9.51808e-07
8.05888e-07
6.64011e-07
5.29803e-07
4.06174e-07
2.95168e-07
1.98034e-07
1.1572e-07
4.98053e-08
5.54337e-09
2.71668e-09
2.43696e-08
5.57801e-08
9.31833e-08
1.34449e-07
1.78055e-07
2.22802e-07
2.67705e-07
3.11965e-07
3.5495e-07
3.96203e-07
4.35432e-07
4.72507e-07
5.07445e-07
5.40386e-07
5.71569e-07
6.01306e-07
6.29951e-07
6.57882e-07
6.85474e-07
7.1309e-07
7.41064e-07
7.697e-07
7.99263e-07
8.29979e-07
8.62035e-07
8.9558e-07
9.30724e-07
9.67542e-07
1.00607e-06
1.04632e-06
1.08826e-06
1.13184e-06
1.17697e-06
1.22355e-06
1.27144e-06
1.32051e-06
1.37059e-06
1.42152e-06
1.47314e-06
1.52524e-06
1.57763e-06
1.6301e-06
1.68236e-06
1.73411e-06
1.78494e-06
1.83433e-06
1.88163e-06
1.92602e-06
1.96648e-06
2.00181e-06
2.03062e-06
2.05064e-06
2.05964e-06
2.06046e-06
2.04714e-06
2.01825e-06
1.97265e-06
1.90948e-06
1.82833e-06
1.72942e-06
1.61369e-06
1.48297e-06
1.33993e-06
1.18801e-06
1.03125e-06
8.7404e-07
7.2074e-07
5.75343e-07
4.41135e-07
3.20493e-07
2.14912e-07
1.25507e-07
5.39884e-08
6.00895e-09
2.97868e-09
2.6722e-08
6.11729e-08
1.02207e-07
1.47488e-07
1.9534e-07
2.44436e-07
2.93681e-07
3.42182e-07
3.89237e-07
4.34335e-07
4.77156e-07
5.17561e-07
5.55577e-07
5.91368e-07
6.2521e-07
6.57453e-07
6.88496e-07
7.18756e-07
7.48647e-07
7.78564e-07
8.0887e-07
8.39888e-07
8.719e-07
9.05141e-07
9.39804e-07
9.76038e-07
1.01395e-06
1.0536e-06
1.09503e-06
1.13822e-06
1.18313e-06
1.2297e-06
1.27782e-06
1.32737e-06
1.37821e-06
1.4302e-06
1.48317e-06
1.53695e-06
1.59139e-06
1.6463e-06
1.7015e-06
1.75675e-06
1.8118e-06
1.86631e-06
1.91985e-06
1.97185e-06
2.02162e-06
2.06824e-06
2.11062e-06
2.14748e-06
2.17732e-06
2.19754e-06
2.20622e-06
2.20634e-06
2.19118e-06
2.15969e-06
2.11062e-06
2.0431e-06
1.95674e-06
1.85171e-06
1.72898e-06
1.59035e-06
1.4385e-06
1.27695e-06
1.10983e-06
9.41739e-07
7.77313e-07
6.20904e-07
4.76189e-07
3.4591e-07
2.3185e-07
1.35321e-07
5.81792e-08
6.47552e-09
3.24991e-09
2.9157e-08
6.67544e-08
1.11547e-07
1.60981e-07
2.13224e-07
2.66811e-07
3.20534e-07
3.73399e-07
4.24626e-07
4.7365e-07
5.20121e-07
5.63894e-07
6.05006e-07
6.43653e-07
6.80148e-07
7.14885e-07
7.48309e-07
7.80879e-07
8.13048e-07
8.45246e-07
8.7786e-07
9.11236e-07
9.45669e-07
9.81402e-07
1.01863e-06
1.0575e-06
1.09812e-06
1.14054e-06
1.18478e-06
1.23081e-06
1.27859e-06
1.32802e-06
1.379e-06
1.43139e-06
1.48505e-06
1.53983e-06
1.59556e-06
1.6521e-06
1.70928e-06
1.76693e-06
1.82488e-06
1.88289e-06
1.94069e-06
1.99794e-06
2.05415e-06
2.10871e-06
2.16085e-06
2.20957e-06
2.25369e-06
2.29183e-06
2.32242e-06
2.34251e-06
2.35076e-06
2.34973e-06
2.33249e-06
2.29815e-06
2.24549e-06
2.17357e-06
2.08203e-06
1.97106e-06
1.84159e-06
1.69543e-06
1.53523e-06
1.36452e-06
1.18752e-06
1.00895e-06
8.33705e-07
6.66476e-07
5.11335e-07
3.71422e-07
2.4885e-07
1.45163e-07
6.23776e-08
6.94305e-09
3.53039e-09
3.16749e-08
7.25255e-08
1.21202e-07
1.74929e-07
2.31706e-07
2.89928e-07
3.4826e-07
4.05606e-07
4.611e-07
5.14122e-07
5.64289e-07
6.11453e-07
6.55668e-07
6.97162e-07
7.3629e-07
7.73495e-07
8.0927e-07
8.44121e-07
8.78539e-07
9.12987e-07
9.47879e-07
9.8358e-07
1.0204e-06
1.05858e-06
1.09833e-06
1.13978e-06
1.18304e-06
1.22815e-06
1.27511e-06
1.3239e-06
1.37444e-06
1.42664e-06
1.48037e-06
1.5355e-06
1.59188e-06
1.64937e-06
1.70781e-06
1.76706e-06
1.82695e-06
1.88735e-06
1.94806e-06
2.00886e-06
2.06946e-06
2.12947e-06
2.18837e-06
2.24547e-06
2.29991e-06
2.35063e-06
2.39633e-06
2.43555e-06
2.46663e-06
2.4863e-06
2.494e-06
2.49142e-06
2.47183e-06
2.43443e-06
2.37799e-06
2.30157e-06
2.20483e-06
2.08798e-06
1.95194e-06
1.7985e-06
1.63029e-06
1.45083e-06
1.26436e-06
1.07569e-06
8.89928e-07
7.1207e-07
5.46588e-07
3.97046e-07
2.65925e-07
1.55039e-07
6.65855e-08
7.41173e-09
3.82018e-09
3.4276e-08
7.84868e-08
1.31174e-07
1.89334e-07
2.50789e-07
3.13785e-07
3.76856e-07
4.38791e-07
4.98639e-07
5.55718e-07
6.09617e-07
6.60182e-07
7.07492e-07
7.5181e-07
7.93539e-07
8.33176e-07
8.71263e-07
9.08354e-07
9.44982e-07
9.81642e-07
1.01877e-06
1.05676e-06
1.09592e-06
1.13651e-06
1.17873e-06
1.22271e-06
1.26855e-06
1.31628e-06
1.3659e-06
1.41736e-06
1.47059e-06
1.52547e-06
1.58189e-06
1.6397e-06
1.69876e-06
1.75893e-06
1.82007e-06
1.88204e-06
1.94471e-06
2.00791e-06
2.07148e-06
2.13517e-06
2.19866e-06
2.26152e-06
2.32317e-06
2.38283e-06
2.43957e-06
2.49221e-06
2.53938e-06
2.57952e-06
2.61089e-06
2.62992e-06
2.63693e-06
2.63248e-06
2.61031e-06
2.5696e-06
2.50918e-06
2.42808e-06
2.32602e-06
2.20323e-06
2.06064e-06
1.90003e-06
1.72402e-06
1.53609e-06
1.34047e-06
1.14203e-06
9.46024e-07
7.57719e-07
5.81978e-07
4.22806e-07
2.83091e-07
1.64958e-07
7.08061e-08
7.8819e-09
4.11929e-09
3.69607e-08
8.46392e-08
1.41465e-07
2.04196e-07
2.70471e-07
3.38378e-07
4.06312e-07
4.72941e-07
5.3722e-07
5.98405e-07
6.56055e-07
7.10021e-07
7.60402e-07
8.07508e-07
8.51794e-07
8.93814e-07
9.34165e-07
9.7345e-07
1.01224e-06
1.05107e-06
1.09041e-06
1.13064e-06
1.1721e-06
1.21506e-06
1.2597e-06
1.30617e-06
1.35453e-06
1.40484e-06
1.45705e-06
1.51114e-06
1.567e-06
1.62453e-06
1.6836e-06
1.74408e-06
1.80583e-06
1.86872e-06
1.93262e-06
1.9974e-06
2.06295e-06
2.12911e-06
2.19569e-06
2.26243e-06
2.32897e-06
2.39482e-06
2.45932e-06
2.52163e-06
2.58069e-06
2.63525e-06
2.68383e-06
2.72479e-06
2.75632e-06
2.77454e-06
2.78074e-06
2.77419e-06
2.74921e-06
2.70497e-06
2.64032e-06
2.55431e-06
2.4467e-06
2.31776e-06
2.16848e-06
2.00064e-06
1.81687e-06
1.6206e-06
1.41604e-06
1.20808e-06
1.00206e-06
8.03469e-07
6.17542e-07
4.48733e-07
3.00371e-07
1.74932e-07
7.50437e-08
8.35404e-09
4.42778e-09
3.97293e-08
9.09831e-08
1.52075e-07
2.19515e-07
2.90751e-07
3.63705e-07
4.36621e-07
5.08039e-07
5.76816e-07
6.42143e-07
7.03553e-07
7.609e-07
8.14318e-07
8.64164e-07
9.10952e-07
9.55298e-07
9.97857e-07
1.03928e-06
1.08019e-06
1.12115e-06
1.16265e-06
1.20509e-06
1.24882e-06
1.29411e-06
1.34114e-06
1.39005e-06
1.44091e-06
1.49375e-06
1.54854e-06
1.60522e-06
1.66371e-06
1.72389e-06
1.78563e-06
1.84882e-06
1.91333e-06
1.97904e-06
2.04583e-06
2.1136e-06
2.18221e-06
2.25153e-06
2.32133e-06
2.39134e-06
2.46113e-06
2.53016e-06
2.59768e-06
2.66276e-06
2.72424e-06
2.78078e-06
2.83079e-06
2.87254e-06
2.90415e-06
2.92149e-06
2.92681e-06
2.91799e-06
2.89002e-06
2.84203e-06
2.77288e-06
2.68165e-06
2.56815e-06
2.43272e-06
2.27643e-06
2.1011e-06
1.90939e-06
1.70474e-06
1.49132e-06
1.27398e-06
1.05811e-06
8.49372e-07
6.53321e-07
4.7486e-07
3.17788e-07
1.84975e-07
7.93034e-08
8.82866e-09
4.74565e-09
4.25818e-08
9.75187e-08
1.63005e-07
2.35291e-07
3.11627e-07
3.8976e-07
4.67771e-07
5.44065e-07
6.17395e-07
6.86887e-07
7.52051e-07
8.12749e-07
8.69155e-07
9.2168e-07
9.70906e-07
1.01751e-06
1.06222e-06
1.10573e-06
1.14872e-06
1.19176e-06
1.23538e-06
1.28e-06
1.32598e-06
1.37357e-06
1.42297e-06
1.47431e-06
1.52766e-06
1.58303e-06
1.64039e-06
1.69969e-06
1.76083e-06
1.82371e-06
1.88821e-06
1.95422e-06
2.02161e-06
2.0903e-06
2.16018e-06
2.23115e-06
2.30308e-06
2.37581e-06
2.44912e-06
2.52266e-06
2.59597e-06
2.66842e-06
2.73917e-06
2.8072e-06
2.87126e-06
2.92988e-06
2.98141e-06
3.02401e-06
3.05571e-06
3.07218e-06
3.07659e-06
3.06541e-06
3.03432e-06
2.98237e-06
2.90843e-06
2.81161e-06
2.69178e-06
2.54938e-06
2.38556e-06
2.20227e-06
2.00226e-06
1.78898e-06
1.56659e-06
1.3399e-06
1.11427e-06
8.95484e-07
6.89356e-07
5.01219e-07
3.35367e-07
1.951e-07
8.35902e-08
9.30634e-09
5.0729e-09
4.55183e-08
1.04246e-07
1.74252e-07
2.51522e-07
3.33096e-07
4.16533e-07
4.99745e-07
5.80993e-07
6.5892e-07
7.32589e-07
8.01485e-07
8.65489e-07
9.2482e-07
9.79955e-07
1.03155e-06
1.08035e-06
1.12714e-06
1.17269e-06
1.2177e-06
1.26279e-06
1.30851e-06
1.35529e-06
1.4035e-06
1.45339e-06
1.50517e-06
1.55895e-06
1.6148e-06
1.67273e-06
1.73271e-06
1.79468e-06
1.85856e-06
1.92425e-06
1.99163e-06
2.06061e-06
2.13109e-06
2.20299e-06
2.27621e-06
2.35066e-06
2.42621e-06
2.50269e-06
2.57981e-06
2.65721e-06
2.73434e-06
2.81048e-06
2.88473e-06
2.95595e-06
3.02279e-06
3.08369e-06
3.1369e-06
3.18052e-06
3.21233e-06
3.22804e-06
3.23159e-06
3.21804e-06
3.18373e-06
3.12764e-06
3.04861e-06
2.94579e-06
2.8191e-06
2.66909e-06
2.49708e-06
2.30516e-06
2.09623e-06
1.87385e-06
1.6422e-06
1.40603e-06
1.17065e-06
9.4186e-07
7.25682e-07
5.2784e-07
3.5313e-07
2.0532e-07
8.79092e-08
9.78761e-09
5.40952e-09
4.85387e-08
1.11165e-07
1.85818e-07
2.68207e-07
3.55152e-07
4.44015e-07
5.32528e-07
6.18796e-07
7.01351e-07
7.79191e-07
8.51785e-07
9.19037e-07
9.81221e-07
1.03889e-06
1.09277e-06
1.14369e-06
1.19251e-06
1.24004e-06
1.28704e-06
1.33416e-06
1.38196e-06
1.43091e-06
1.48135e-06
1.53357e-06
1.58774e-06
1.644e-06
1.7024e-06
1.76296e-06
1.82565e-06
1.89041e-06
1.95715e-06
2.0258e-06
2.09626e-06
2.16844e-06
2.24226e-06
2.31765e-06
2.39453e-06
2.4728e-06
2.55232e-06
2.63289e-06
2.71419e-06
2.79579e-06
2.87708e-06
2.95726e-06
3.0353e-06
3.10999e-06
3.17987e-06
3.2433e-06
3.29845e-06
3.34333e-06
3.37532e-06
3.39049e-06
3.39325e-06
3.37739e-06
3.33984e-06
3.27945e-06
3.19505e-06
3.08579e-06
2.95164e-06
2.79329e-06
2.61224e-06
2.41082e-06
2.19214e-06
1.95997e-06
1.71855e-06
1.47261e-06
1.22736e-06
9.88553e-07
7.62329e-07
5.54746e-07
3.71094e-07
2.15647e-07
9.22646e-08
1.02729e-08
5.75549e-09
5.16427e-08
1.18274e-07
1.97699e-07
2.8534e-07
3.77788e-07
4.72193e-07
5.66095e-07
6.5744e-07
7.44641e-07
8.26634e-07
9.02875e-07
9.73305e-07
1.03826e-06
1.09837e-06
1.15446e-06
1.20743e-06
1.25822e-06
1.30769e-06
1.35666e-06
1.4058e-06
1.4557e-06
1.50682e-06
1.55953e-06
1.61411e-06
1.67075e-06
1.72956e-06
1.79061e-06
1.85391e-06
1.91943e-06
1.98712e-06
2.05692e-06
2.12875e-06
2.20252e-06
2.27818e-06
2.35564e-06
2.43486e-06
2.51576e-06
2.59823e-06
2.68211e-06
2.76717e-06
2.85305e-06
2.93924e-06
3.02506e-06
3.10961e-06
3.19179e-06
3.27027e-06
3.34351e-06
3.40977e-06
3.46714e-06
3.51355e-06
3.54598e-06
3.56086e-06
3.56295e-06
3.54491e-06
3.50413e-06
3.43934e-06
3.3493e-06
3.23315e-06
3.09092e-06
2.92341e-06
2.73236e-06
2.52038e-06
2.29092e-06
2.04801e-06
1.79608e-06
1.53988e-06
1.28452e-06
1.03561e-06
7.9932e-07
5.81952e-07
3.89274e-07
2.26089e-07
9.66599e-08
1.07627e-08
6.11076e-09
5.48299e-08
1.25573e-07
2.09894e-07
3.02918e-07
4.00994e-07
5.0105e-07
6.00423e-07
6.96887e-07
7.88738e-07
8.74849e-07
9.54676e-07
1.0282e-06
1.09583e-06
1.1583e-06
1.21651e-06
1.27147e-06
1.32418e-06
1.37557e-06
1.42649e-06
1.47766e-06
1.52968e-06
1.58302e-06
1.63807e-06
1.6951e-06
1.75429e-06
1.81577e-06
1.87959e-06
1.94579e-06
2.01433e-06
2.08517e-06
2.15825e-06
2.23352e-06
2.31091e-06
2.39037e-06
2.47184e-06
2.55527e-06
2.64058e-06
2.72766e-06
2.81632e-06
2.90629e-06
2.99715e-06
3.08833e-06
3.17906e-06
3.26837e-06
3.35504e-06
3.43767e-06
3.51461e-06
3.58404e-06
3.64396e-06
3.69223e-06
3.72546e-06
3.74031e-06
3.74188e-06
3.72186e-06
3.67793e-06
3.60869e-06
3.51279e-06
3.38934e-06
3.23839e-06
3.06087e-06
2.85876e-06
2.63502e-06
2.39353e-06
2.13871e-06
1.87531e-06
1.60816e-06
1.34228e-06
1.08309e-06
8.36667e-07
6.09465e-07
4.07676e-07
2.36652e-07
1.01097e-07
1.1257e-08
6.47526e-09
5.80995e-08
1.33059e-07
2.22399e-07
3.20935e-07
4.2476e-07
5.30569e-07
6.35481e-07
7.37094e-07
8.33583e-07
9.23765e-07
1.0071e-06
1.08362e-06
1.15384e-06
1.21857e-06
1.27883e-06
1.33571e-06
1.39031e-06
1.4436e-06
1.49649e-06
1.54972e-06
1.60391e-06
1.65956e-06
1.71703e-06
1.77662e-06
1.8385e-06
1.9028e-06
1.96959e-06
2.03888e-06
2.11067e-06
2.18491e-06
2.26157e-06
2.3406e-06
2.42195e-06
2.50558e-06
2.59145e-06
2.6795e-06
2.76966e-06
2.86178e-06
2.95566e-06
3.05097e-06
3.14724e-06
3.24382e-06
3.33986e-06
3.4343e-06
3.52584e-06
3.61297e-06
3.69397e-06
3.76693e-06
3.82976e-06
3.88023e-06
3.91467e-06
3.92982e-06
3.93106e-06
3.9093e-06
3.86238e-06
3.78869e-06
3.68678e-06
3.55567e-06
3.3954e-06
3.20701e-06
2.99273e-06
2.75593e-06
2.50098e-06
2.23288e-06
1.95679e-06
1.67777e-06
1.40079e-06
1.13105e-06
8.74378e-07
6.3728e-07
4.263e-07
2.47336e-07
1.05577e-07
1.17561e-08
6.84891e-09
6.14509e-08
1.40731e-07
2.35211e-07
3.39382e-07
4.49072e-07
5.60726e-07
6.71236e-07
7.78015e-07
8.79115e-07
9.73303e-07
1.06006e-06
1.13948e-06
1.21217e-06
1.27907e-06
1.34131e-06
1.40008e-06
1.45653e-06
1.51174e-06
1.56663e-06
1.62198e-06
1.67843e-06
1.73649e-06
1.79653e-06
1.85882e-06
1.92357e-06
1.9909e-06
2.06087e-06
2.13352e-06
2.20883e-06
2.28678e-06
2.36735e-06
2.4505e-06
2.5362e-06
2.62441e-06
2.7151e-06
2.80822e-06
2.90367e-06
3.00129e-06
3.10083e-06
3.20191e-06
3.304e-06
3.40638e-06
3.50812e-06
3.60807e-06
3.70484e-06
3.79684e-06
3.88227e-06
3.95911e-06
4.02521e-06
4.07824e-06
4.11434e-06
4.13014e-06
4.13124e-06
4.10805e-06
4.05832e-06
3.98027e-06
3.87229e-06
3.73323e-06
3.56312e-06
3.36306e-06
3.1355e-06
2.88427e-06
2.61434e-06
2.33137e-06
2.04115e-06
1.74911e-06
1.46026e-06
1.17954e-06
9.12451e-07
6.65386e-07
4.45139e-07
2.5814e-07
1.10098e-07
1.22597e-08
7.2316e-09
6.4883e-08
1.48587e-07
2.48323e-07
3.58251e-07
4.73915e-07
5.91497e-07
7.0765e-07
8.19594e-07
9.25263e-07
1.02338e-06
1.11345e-06
1.19567e-06
1.27073e-06
1.33972e-06
1.40387e-06
1.46449e-06
1.52281e-06
1.57996e-06
1.63691e-06
1.69448e-06
1.75331e-06
1.81392e-06
1.87669e-06
1.9419e-06
2.00974e-06
2.08034e-06
2.15377e-06
2.23007e-06
2.30923e-06
2.39125e-06
2.47611e-06
2.56378e-06
2.65424e-06
2.74748e-06
2.84345e-06
2.94209e-06
3.04328e-06
3.14684e-06
3.25247e-06
3.35975e-06
3.46807e-06
3.57663e-06
3.68444e-06
3.79025e-06
3.8926e-06
3.98981e-06
4.08e-06
4.16108e-06
4.2308e-06
4.28674e-06
4.32494e-06
4.34174e-06
4.34293e-06
4.31862e-06
4.26634e-06
4.18409e-06
4.07005e-06
3.92289e-06
3.74252e-06
3.53006e-06
3.28819e-06
3.02117e-06
2.73463e-06
2.43506e-06
2.12906e-06
1.82261e-06
1.5209e-06
1.22863e-06
9.50885e-07
6.9376e-07
4.64176e-07
2.69056e-07
1.14656e-07
1.27674e-08
7.62321e-09
6.83948e-08
1.56623e-07
2.61732e-07
3.77532e-07
4.99271e-07
6.22854e-07
7.4468e-07
8.61776e-07
9.71954e-07
1.07391e-06
1.16719e-06
1.25208e-06
1.32942e-06
1.40041e-06
1.46643e-06
1.52888e-06
1.58909e-06
1.64824e-06
1.70735e-06
1.76727e-06
1.82864e-06
1.89199e-06
1.95771e-06
2.02607e-06
2.09728e-06
2.17145e-06
2.24866e-06
2.32895e-06
2.41233e-06
2.49881e-06
2.58837e-06
2.681e-06
2.77669e-06
2.8754e-06
2.97711e-06
3.08173e-06
3.18912e-06
3.29906e-06
3.41121e-06
3.52508e-06
3.64e-06
3.7551e-06
3.86931e-06
3.9813e-06
4.08954e-06
4.19226e-06
4.28752e-06
4.37313e-06
4.44678e-06
4.50595e-06
4.54668e-06
4.56483e-06
4.56633e-06
4.54124e-06
4.4867e-06
4.40048e-06
4.2805e-06
4.1252e-06
3.9343e-06
3.70888e-06
3.45176e-06
3.16763e-06
2.86286e-06
2.54486e-06
2.22122e-06
1.89874e-06
1.58296e-06
1.27842e-06
9.89676e-07
7.22371e-07
4.83387e-07
2.8007e-07
1.19248e-07
1.32787e-08
8.02359e-09
7.19848e-08
1.64836e-07
2.75429e-07
3.97212e-07
5.25119e-07
6.54764e-07
7.8228e-07
9.04495e-07
1.01911e-06
1.12479e-06
1.22116e-06
1.30861e-06
1.38812e-06
1.46105e-06
1.52891e-06
1.5932e-06
1.65535e-06
1.7166e-06
1.77801e-06
1.84043e-06
1.90454e-06
1.97087e-06
2.0398e-06
2.11161e-06
2.18649e-06
2.26457e-06
2.34593e-06
2.43061e-06
2.51863e-06
2.61e-06
2.70472e-06
2.80277e-06
2.90414e-06
3.0088e-06
3.11672e-06
3.22777e-06
3.3418e-06
3.45854e-06
3.57759e-06
3.69841e-06
3.82027e-06
3.94222e-06
4.06311e-06
4.18155e-06
4.29593e-06
4.40442e-06
4.50498e-06
4.59538e-06
4.6732e-06
4.73587e-06
4.77948e-06
4.79932e-06
4.80134e-06
4.77581e-06
4.71934e-06
4.62944e-06
4.50375e-06
4.3404e-06
4.13886e-06
3.90009e-06
3.62696e-06
3.32455e-06
2.99995e-06
2.66163e-06
2.31837e-06
1.97804e-06
1.64676e-06
1.32901e-06
1.02882e-06
7.51183e-07
5.0274e-07
2.91165e-07
1.23865e-07
1.37928e-08
8.43259e-09
7.56516e-08
1.73222e-07
2.89408e-07
4.17277e-07
5.51437e-07
6.87191e-07
8.20398e-07
9.47683e-07
1.06664e-06
1.17594e-06
1.27526e-06
1.36515e-06
1.44675e-06
1.52157e-06
1.59125e-06
1.65743e-06
1.7216e-06
1.78508e-06
1.84895e-06
1.91408e-06
1.98118e-06
2.05076e-06
2.12321e-06
2.19879e-06
2.27772e-06
2.3601e-06
2.44602e-06
2.53552e-06
2.62864e-06
2.72537e-06
2.82571e-06
2.92966e-06
3.0372e-06
3.1483e-06
3.26287e-06
3.38081e-06
3.50189e-06
3.6258e-06
3.75211e-06
3.8802e-06
4.00928e-06
4.13833e-06
4.26613e-06
4.39122e-06
4.51192e-06
4.62634e-06
4.73238e-06
4.82773e-06
4.90992e-06
4.97626e-06
5.02305e-06
5.04486e-06
5.04761e-06
5.02194e-06
4.96388e-06
4.87065e-06
4.73955e-06
4.5684e-06
4.3563e-06
4.10398e-06
3.8143e-06
3.49262e-06
3.14673e-06
2.78622e-06
2.42126e-06
2.06106e-06
1.71261e-06
1.38055e-06
1.06833e-06