/*--------------------------------*- C++ -*----------------------------------*\
  =========                 |
  \\      /  F ield         | OpenFOAM: The Open Source CFD Toolbox
   \\    /   O peration     | Website:  https://openfoam.org
    \\  /    A nd           | Version:  12
     \\/     M anipulation  |
\*---------------------------------------------------------------------------*/
FoamFile
{
    format      ascii;
    class       volScalarField;
    location    "3";
    object      nut;
}
// * * * * * * * * * * * * * * * * * * * * * * * * * * * * * * * * * * * * * //

dimensions      [0 2 -1 0 0 0 0];

internalField   nonuniform List<scalar> 
5625
(
2.39491e-16
1.61877e-15
3.5903e-15
5.91066e-15
8.45499e-15
1.11373e-14
1.38908e-14
1.66617e-14
1.94065e-14
2.2091e-14
2.46895e-14
2.71848e-14
2.95672e-14
3.18346e-14
3.39914e-14
3.60473e-14
3.80167e-14
3.99173e-14
4.17688e-14
4.35925e-14
4.54098e-14
4.7242e-14
4.91092e-14
5.10305e-14
5.30234e-14
5.5104e-14
5.72865e-14
5.95838e-14
6.2007e-14
6.4566e-14
6.72692e-14
7.01234e-14
7.31344e-14
7.63061e-14
7.96411e-14
8.31403e-14
8.68023e-14
9.06237e-14
9.45979e-14
9.87151e-14
1.02962e-13
1.07318e-13
1.11761e-13
1.16257e-13
1.20768e-13
1.25244e-13
1.29626e-13
1.33841e-13
1.37805e-13
1.4142e-13
1.44576e-13
1.47146e-13
1.4898e-13
1.49881e-13
1.49937e-13
1.48884e-13
1.46587e-13
1.42966e-13
1.37983e-13
1.31646e-13
1.2402e-13
1.15231e-13
1.05463e-13
9.49528e-14
8.39737e-14
7.28186e-14
6.17765e-14
5.11115e-14
4.10446e-14
3.17443e-14
2.33265e-14
1.58692e-14
9.44684e-15
4.20874e-15
6.21073e-16
7.23896e-15
2.3629e-13
5.90762e-13
9.97208e-13
1.43869e-12
1.90217e-12
2.37689e-12
2.85389e-12
3.32588e-12
3.78704e-12
4.23304e-12
4.66096e-12
5.0692e-12
5.45742e-12
5.8264e-12
6.17786e-12
6.51429e-12
6.83875e-12
7.15466e-12
7.46568e-12
7.7755e-12
8.08774e-12
8.40589e-12
8.73318e-12
9.07262e-12
9.42693e-12
9.79854e-12
1.01896e-11
1.06021e-11
1.10376e-11
1.14975e-11
1.1983e-11
1.24951e-11
1.30345e-11
1.36016e-11
1.41965e-11
1.48191e-11
1.54688e-11
1.61445e-11
1.68447e-11
1.75672e-11
1.83088e-11
1.90655e-11
1.98322e-11
2.06022e-11
2.13675e-11
2.21181e-11
2.2842e-11
2.3525e-11
2.41508e-11
2.47003e-11
2.51522e-11
2.54809e-11
2.56477e-11
2.56719e-11
2.55056e-11
2.51251e-11
2.45162e-11
2.36714e-11
2.25916e-11
2.12873e-11
1.97797e-11
1.81005e-11
1.62908e-11
1.43986e-11
1.24752e-11
1.05714e-11
8.73331e-12
6.99946e-12
5.39859e-12
3.94961e-12
2.66341e-12
1.54698e-12
6.12352e-13
1.87618e-14
1.5368e-14
1.2642e-12
4.04886e-12
7.30634e-12
1.07993e-11
1.44337e-11
1.81351e-11
2.18398e-11
2.54943e-11
2.9056e-11
3.24925e-11
3.57823e-11
3.89142e-11
4.18861e-11
4.47049e-11
4.73844e-11
4.99443e-11
5.24088e-11
5.48045e-11
5.71598e-11
5.95033e-11
6.18627e-11
6.42647e-11
6.67341e-11
6.92936e-11
7.19636e-11
7.47625e-11
7.77066e-11
8.08101e-11
8.40853e-11
8.75426e-11
9.11908e-11
9.50371e-11
9.90866e-11
1.03343e-10
1.07807e-10
1.12479e-10
1.17355e-10
1.22429e-10
1.27688e-10
1.3312e-10
1.38701e-10
1.44406e-10
1.50197e-10
1.56028e-10
1.61841e-10
1.67565e-10
1.73112e-10
1.78378e-10
1.8324e-10
1.87557e-10
1.91166e-10
1.93883e-10
1.95332e-10
1.95782e-10
1.94776e-10
1.92119e-10
1.87689e-10
1.81414e-10
1.73285e-10
1.63371e-10
1.51829e-10
1.38905e-10
1.24924e-10
1.10269e-10
9.5354e-11
8.05875e-11
6.63396e-11
5.29132e-11
4.05258e-11
2.93042e-11
1.9295e-11
1.05081e-11
3.26349e-12
3.97318e-14
2.51217e-14
2.96241e-12
1.21418e-11
2.41331e-11
3.71224e-11
5.05553e-11
6.41425e-11
7.76638e-11
9.0938e-11
1.0382e-10
1.16201e-10
1.2801e-10
1.3921e-10
1.498e-10
1.59808e-10
1.69288e-10
1.78313e-10
1.86974e-10
1.95368e-10
2.03597e-10
2.11765e-10
2.19972e-10
2.28311e-10
2.36871e-10
2.4573e-10
2.5496e-10
2.64624e-10
2.74779e-10
2.85473e-10
2.96748e-10
3.08639e-10
3.21176e-10
3.34385e-10
3.48285e-10
3.62888e-10
3.78203e-10
3.94231e-10
4.10964e-10
4.28387e-10
4.46471e-10
4.65174e-10
4.84436e-10
5.04175e-10
5.24279e-10
5.44606e-10
5.64973e-10
5.85146e-10
6.04839e-10
6.23701e-10
6.4131e-10
6.57172e-10
6.70714e-10
6.81385e-10
6.87376e-10
6.90216e-10
6.87897e-10
6.79667e-10
6.6503e-10
6.4366e-10
6.15457e-10
5.80618e-10
5.39681e-10
4.93533e-10
4.43373e-10
3.90635e-10
3.36874e-10
2.83628e-10
2.32277e-10
1.83928e-10
1.39339e-10
9.88983e-11
6.27195e-11
3.11802e-11
7.61533e-12
6.46714e-14
3.61943e-14
4.99519e-12
2.46059e-11
5.41908e-11
8.76311e-11
1.22413e-10
1.57464e-10
1.9215e-10
2.2601e-10
2.58689e-10
2.89935e-10
3.19582e-10
3.4756e-10
3.73878e-10
3.98622e-10
4.21941e-10
4.44032e-10
4.65126e-10
4.85478e-10
5.05348e-10
5.24996e-10
5.44671e-10
5.64607e-10
5.85019e-10
6.061e-10
6.28023e-10
6.5094e-10
6.74983e-10
7.00269e-10
7.26897e-10
7.54952e-10
7.84508e-10
8.15626e-10
8.48356e-10
8.82738e-10
9.18801e-10
9.56561e-10
9.96019e-10
1.03716e-09
1.07994e-09
1.12429e-09
1.17009e-09
1.21721e-09
1.2654e-09
1.31436e-09
1.36371e-09
1.41292e-09
1.46132e-09
1.5081e-09
1.55224e-09
1.59254e-09
1.62762e-09
1.65634e-09
1.67298e-09
1.68283e-09
1.67995e-09
1.66236e-09
1.62872e-09
1.57807e-09
1.51003e-09
1.42501e-09
1.32429e-09
1.21011e-09
1.08552e-09
9.54233e-10
8.20253e-10
6.87537e-10
5.59609e-10
4.39247e-10
3.28289e-10
2.27675e-10
1.3808e-10
6.24507e-11
1.27654e-11
9.26184e-14
4.83723e-14
7.21092e-12
4.02005e-11
9.70313e-11
1.65433e-10
2.38008e-10
3.11344e-10
3.83677e-10
4.53911e-10
5.213e-10
5.85336e-10
6.4572e-10
7.02343e-10
7.55265e-10
8.04699e-10
8.5098e-10
8.94537e-10
9.35868e-10
9.75503e-10
1.01399e-09
1.05185e-09
1.0896e-09
1.1277e-09
1.16659e-09
1.20665e-09
1.24822e-09
1.29158e-09
1.33701e-09
1.38472e-09
1.43492e-09
1.48776e-09
1.5434e-09
1.60196e-09
1.66357e-09
1.72831e-09
1.79627e-09
1.86751e-09
1.94207e-09
2.01997e-09
2.10118e-09
2.18563e-09
2.27317e-09
2.36356e-09
2.45643e-09
2.55127e-09
2.64737e-09
2.74376e-09
2.8392e-09
2.93208e-09
3.0204e-09
3.1017e-09
3.17364e-09
3.23363e-09
3.26881e-09
3.29188e-09
3.28954e-09
3.25771e-09
3.19359e-09
3.0952e-09
2.96171e-09
2.79386e-09
2.5943e-09
2.36757e-09
2.1199e-09
1.85881e-09
1.5924e-09
1.32863e-09
1.07454e-09
8.3565e-10
6.15631e-10
4.16694e-10
2.41675e-10
1.00688e-10
1.82796e-11
1.22844e-13
6.15186e-14
9.56254e-12
5.7836e-11
1.50395e-10
2.69605e-10
3.99982e-10
5.33008e-10
6.64248e-10
7.91195e-10
9.12316e-10
1.02667e-09
1.13376e-09
1.23346e-09
1.32595e-09
1.41167e-09
1.4913e-09
1.56566e-09
1.63568e-09
1.70234e-09
1.76662e-09
1.82948e-09
1.89183e-09
1.95449e-09
2.0182e-09
2.08364e-09
2.15138e-09
2.22194e-09
2.29575e-09
2.37322e-09
2.45466e-09
2.54039e-09
2.63066e-09
2.72574e-09
2.82583e-09
2.93114e-09
3.04185e-09
3.15813e-09
3.28011e-09
3.4079e-09
3.54152e-09
3.68093e-09
3.82596e-09
3.97629e-09
4.13138e-09
4.2904e-09
4.45219e-09
4.61516e-09
4.77715e-09
4.93539e-09
5.08638e-09
5.22574e-09
5.34983e-09
5.45333e-09
5.51372e-09
5.55386e-09
5.55004e-09
5.49503e-09
5.38426e-09
5.21454e-09
4.98476e-09
4.69673e-09
4.35503e-09
3.96758e-09
3.54516e-09
3.10057e-09
2.64759e-09
2.19961e-09
1.76845e-09
1.36334e-09
9.90683e-10
6.55286e-10
3.6521e-10
1.42698e-10
2.39941e-11
1.54822e-13
7.55449e-14
1.20365e-11
7.68532e-11
2.11737e-10
3.96769e-10
6.06366e-10
8.23493e-10
1.03856e-09
1.24621e-09
1.44341e-09
1.62843e-09
1.80046e-09
1.95937e-09
2.10558e-09
2.23995e-09
2.36367e-09
2.47818e-09
2.58507e-09
2.68598e-09
2.78254e-09
2.87633e-09
2.9688e-09
3.0613e-09
3.155e-09
3.25097e-09
3.35011e-09
3.45324e-09
3.56107e-09
3.6742e-09
3.79318e-09
3.9185e-09
4.05061e-09
4.18992e-09
4.33683e-09
4.49171e-09
4.6549e-09
4.82673e-09
5.00749e-09
5.1974e-09
5.3966e-09
5.6051e-09
5.82269e-09
6.04892e-09
6.283e-09
6.52363e-09
6.76901e-09
7.01657e-09
7.26288e-09
7.50348e-09
7.73275e-09
7.94378e-09
8.13012e-09
8.28386e-09
8.37102e-09
8.42553e-09
8.4117e-09
8.31828e-09
8.13914e-09
7.87019e-09
7.51053e-09
7.06331e-09
6.53642e-09
5.94234e-09
5.29756e-09
4.62138e-09
3.93426e-09
3.256e-09
2.60399e-09
1.99196e-09
1.43003e-09
9.2738e-10
5.00217e-10
1.86441e-10
2.9838e-11
1.88147e-13
9.03937e-14
1.46287e-11
9.69166e-11
2.79015e-10
5.42792e-10
8.52392e-10
1.17904e-09
1.50483e-09
1.8195e-09
2.11727e-09
2.39506e-09
2.65154e-09
2.88659e-09
3.101e-09
3.29626e-09
3.47435e-09
3.63761e-09
3.78856e-09
3.92977e-09
4.06378e-09
4.19299e-09
4.31962e-09
4.44566e-09
4.57289e-09
4.70289e-09
4.837e-09
4.97643e-09
5.1223e-09
5.27549e-09
5.4368e-09
5.60698e-09
5.78672e-09
5.97668e-09
6.17748e-09
6.38971e-09
6.61395e-09
6.85069e-09
7.10042e-09
7.36352e-09
7.64022e-09
7.93053e-09
8.23417e-09
8.55044e-09
8.87809e-09
9.21515e-09
9.55882e-09
9.90517e-09
1.0249e-08
1.05835e-08
1.09004e-08
1.11895e-08
1.14398e-08
1.16399e-08
1.17483e-08
1.18052e-08
1.17641e-08
1.1609e-08
1.13333e-08
1.09329e-08
1.04081e-08
9.76482e-09
9.01498e-09
8.17654e-09
7.27241e-09
6.3289e-09
5.37352e-09
4.43271e-09
3.52963e-09
2.68287e-09
1.90702e-09
1.21727e-09
6.40181e-10
2.30767e-10
3.57701e-11
2.22506e-13
1.06027e-13
1.73379e-11
1.17873e-10
3.50844e-10
7.03918e-10
1.13225e-09
1.59306e-09
2.05679e-09
2.50551e-09
2.92915e-09
3.32244e-09
3.68316e-09
4.01116e-09
4.30777e-09
4.57538e-09
4.8171e-09
5.03648e-09
5.2373e-09
5.42343e-09
5.59857e-09
5.76618e-09
5.92946e-09
6.09126e-09
6.25412e-09
6.42025e-09
6.59154e-09
6.76968e-09
6.95609e-09
7.15213e-09
7.35897e-09
7.5777e-09
7.80932e-09
8.05478e-09
8.31499e-09
8.59083e-09
8.88313e-09
9.19269e-09
9.52012e-09
9.86592e-09
1.02304e-08
1.06134e-08
1.10145e-08
1.14325e-08
1.18655e-08
1.23105e-08
1.27632e-08
1.32177e-08
1.36664e-08
1.40995e-08
1.45051e-08
1.48694e-08
1.51766e-08
1.54077e-08
1.55221e-08
1.5561e-08
1.54674e-08
1.52217e-08
1.48177e-08
1.42533e-08
1.3531e-08
1.26605e-08
1.16585e-08
1.05489e-08
9.36135e-09
8.12896e-09
6.88606e-09
5.66538e-09
4.49559e-09
3.40008e-09
2.39834e-09
1.51259e-09
7.80786e-10
2.75046e-10
4.17602e-11
2.5765e-13
1.22419e-13
2.01641e-11
1.39662e-10
4.26385e-10
8.77211e-10
1.44044e-09
2.05797e-09
2.68556e-09
3.29487e-09
3.8694e-09
4.4005e-09
4.88462e-09
5.32156e-09
5.71336e-09
6.06362e-09
6.37692e-09
6.65843e-09
6.91357e-09
7.14773e-09
7.3661e-09
7.57353e-09
7.7744e-09
7.97263e-09
8.17165e-09
8.37446e-09
8.5837e-09
8.80163e-09
9.03017e-09
9.27111e-09
9.52605e-09
9.79646e-09
1.00837e-08
1.0389e-08
1.07137e-08
1.10589e-08
1.14257e-08
1.18151e-08
1.22279e-08
1.26646e-08
1.31253e-08
1.36099e-08
1.41173e-08
1.46457e-08
1.51919e-08
1.57516e-08
1.63184e-08
1.6884e-08
1.74375e-08
1.79658e-08
1.84529e-08
1.88805e-08
1.92286e-08
1.94698e-08
1.95607e-08
1.95594e-08
1.93835e-08
1.90156e-08
1.84522e-08
1.76941e-08
1.67476e-08
1.56266e-08
1.43531e-08
1.29569e-08
1.14741e-08
9.94403e-09
8.40733e-09
6.90228e-09
5.46251e-09
4.11591e-09
2.88684e-09
1.80489e-09
9.19442e-10
3.18935e-10
4.77846e-11
2.9338e-13
1.39553e-13
2.31075e-11
1.62266e-10
5.05175e-10
1.06059e-09
1.77234e-09
2.56655e-09
3.38177e-09
4.17631e-09
4.92516e-09
5.61503e-09
6.24043e-09
6.80093e-09
7.29945e-09
7.7411e-09
8.13235e-09
8.48043e-09
8.79281e-09
9.07682e-09
9.33946e-09
9.58719e-09
9.82582e-09
1.00605e-08
1.02958e-08
1.05355e-08
1.07831e-08
1.10415e-08
1.13133e-08
1.16007e-08
1.19059e-08
1.22306e-08
1.25767e-08
1.29458e-08
1.33394e-08
1.3759e-08
1.42059e-08
1.46812e-08
1.51857e-08
1.572e-08
1.62839e-08
1.68767e-08
1.74966e-08
1.81406e-08
1.88042e-08
1.94807e-08
2.01614e-08
2.08349e-08
2.14866e-08
2.20995e-08
2.26532e-08
2.3125e-08
2.34905e-08
2.37174e-08
2.37486e-08
2.36801e-08
2.33944e-08
2.28745e-08
2.21238e-08
2.11481e-08
1.99577e-08
1.85712e-08
1.7016e-08
1.53274e-08
1.35471e-08
1.17203e-08
9.89301e-09
8.10823e-09
6.40396e-09
4.81207e-09
3.36154e-09
2.08906e-09
1.05473e-09
3.62243e-10
5.38239e-11
3.29538e-13
1.5742e-13
2.61689e-11
1.85691e-10
5.86984e-10
1.25271e-09
2.12442e-09
3.11259e-09
4.13658e-09
5.13873e-09
6.08331e-09
6.95102e-09
7.73373e-09
8.43068e-09
9.04583e-09
9.58616e-09
1.00605e-08
1.04784e-08
1.08499e-08
1.11847e-08
1.14918e-08
1.17796e-08
1.20555e-08
1.23262e-08
1.25974e-08
1.28739e-08
1.316e-08
1.34595e-08
1.37756e-08
1.4111e-08
1.44683e-08
1.48499e-08
1.52579e-08
1.56943e-08
1.6161e-08
1.66595e-08
1.71914e-08
1.77578e-08
1.83594e-08
1.89966e-08
1.96686e-08
2.0374e-08
2.11099e-08
2.18716e-08
2.26527e-08
2.34439e-08
2.42334e-08
2.50062e-08
2.5744e-08
2.64251e-08
2.70252e-08
2.75173e-08
2.78732e-08
2.80559e-08
2.80024e-08
2.78246e-08
2.74119e-08
2.67144e-08
2.57538e-08
2.45426e-08
2.30957e-08
2.14361e-08
1.95961e-08
1.76161e-08
1.55428e-08
1.34265e-08
1.13175e-08
9.26312e-09
7.30493e-09
5.47835e-09
3.81649e-09
2.36243e-09
1.18597e-09
4.04865e-10
5.98629e-11
3.65999e-13
1.76013e-13
2.93492e-11
2.09951e-10
6.71723e-10
1.45275e-09
2.49416e-09
3.69114e-09
4.94237e-09
6.17189e-09
7.3312e-09
8.39361e-09
9.3477e-09
1.01922e-08
1.09322e-08
1.15771e-08
1.21382e-08
1.26283e-08
1.306e-08
1.34457e-08
1.3797e-08
1.41243e-08
1.4437e-08
1.47431e-08
1.50498e-08
1.53631e-08
1.56881e-08
1.60294e-08
1.63909e-08
1.67759e-08
1.71875e-08
1.76286e-08
1.81015e-08
1.86087e-08
1.91521e-08
1.97336e-08
2.03548e-08
2.10166e-08
2.17195e-08
2.24634e-08
2.32468e-08
2.40671e-08
2.49198e-08
2.57983e-08
2.66937e-08
2.75937e-08
2.84829e-08
2.93424e-08
3.01498e-08
3.08794e-08
3.15028e-08
3.19895e-08
3.23085e-08
3.24174e-08
3.22534e-08
3.19382e-08
3.13714e-08
3.04838e-08
2.92958e-08
2.78371e-08
2.61266e-08
2.41916e-08
2.20685e-08
1.98024e-08
1.74443e-08
1.50487e-08
1.26698e-08
1.03584e-08
8.15909e-09
6.11048e-09
4.24924e-09
2.624e-09
1.3129e-09
4.46754e-10
6.58902e-11
4.02669e-13
1.95331e-13
3.26495e-11
2.35064e-10
7.59382e-10
1.66026e-09
2.87986e-09
4.29846e-09
5.79292e-09
7.267e-09
8.65757e-09
9.92925e-09
1.10667e-08
1.2068e-08
1.29396e-08
1.36935e-08
1.43443e-08
1.49078e-08
1.54001e-08
1.58367e-08
1.62317e-08
1.65979e-08
1.69467e-08
1.7288e-08
1.76301e-08
1.79803e-08
1.83448e-08
1.8729e-08
1.91373e-08
1.95737e-08
2.00419e-08
2.0545e-08
2.10859e-08
2.16671e-08
2.22909e-08
2.29591e-08
2.36731e-08
2.44338e-08
2.52413e-08
2.60944e-08
2.69908e-08
2.79262e-08
2.88945e-08
2.98865e-08
3.08902e-08
3.18901e-08
3.28671e-08
3.37981e-08
3.46568e-08
3.54135e-08
3.60366e-08
3.6493e-08
3.67497e-08
3.67577e-08
3.64591e-08
3.59938e-08
3.52383e-08
3.41578e-08
3.27305e-08
3.10166e-08
2.90395e-08
2.68299e-08
2.4428e-08
2.18828e-08
1.92494e-08
1.65856e-08
1.3949e-08
1.13933e-08
8.96597e-09
6.70818e-09
4.65971e-09
2.87382e-09
1.43552e-09
4.87899e-10
7.18979e-11
4.39481e-13
2.15375e-13
3.60709e-11
2.6105e-10
8.49995e-10
1.87505e-09
3.28042e-09
4.93187e-09
6.68341e-09
8.41688e-09
1.00529e-08
1.15462e-08
1.2877e-08
1.40425e-08
1.50511e-08
1.59173e-08
1.66595e-08
1.72973e-08
1.78504e-08
1.83374e-08
1.87755e-08
1.91802e-08
1.95648e-08
1.99411e-08
2.03189e-08
2.07067e-08
2.11117e-08
2.154e-08
2.19968e-08
2.24868e-08
2.3014e-08
2.3582e-08
2.41938e-08
2.48522e-08
2.55595e-08
2.63176e-08
2.71277e-08
2.79901e-08
2.89043e-08
2.9868e-08
3.08776e-08
3.19271e-08
3.30078e-08
3.4108e-08
3.52123e-08
3.63016e-08
3.73528e-08
3.83392e-08
3.92304e-08
3.99936e-08
4.05943e-08
4.0998e-08
4.11709e-08
4.1055e-08
4.06036e-08
3.99767e-08
3.90116e-08
3.7729e-08
3.60595e-08
3.40854e-08
3.18409e-08
2.93587e-08
2.66828e-08
2.38656e-08
2.09655e-08
1.80437e-08
1.51605e-08
1.23722e-08
9.7288e-09
7.27364e-09
5.0492e-09
3.11254e-09
1.55405e-09
5.28317e-10
7.78815e-11
4.76393e-13
2.36147e-13
3.96146e-11
2.87929e-10
9.43616e-10
2.09709e-09
3.69521e-09
5.58948e-09
7.6102e-09
9.61581e-09
1.15092e-08
1.32345e-08
1.47667e-08
1.61026e-08
1.72519e-08
1.82329e-08
1.90677e-08
1.978e-08
2.03936e-08
2.09307e-08
2.14116e-08
2.18544e-08
2.22748e-08
2.26864e-08
2.31005e-08
2.35269e-08
2.39737e-08
2.44479e-08
2.49553e-08
2.55013e-08
2.60901e-08
2.67256e-08
2.74113e-08
2.815e-08
2.8944e-08
2.9795e-08
3.07037e-08
3.167e-08
3.26923e-08
3.37672e-08
3.48893e-08
3.60505e-08
3.72395e-08
3.84414e-08
3.96375e-08
4.0805e-08
4.1917e-08
4.29428e-08
4.38491e-08
4.46001e-08
4.51597e-08
4.5492e-08
4.55636e-08
4.53062e-08
4.46904e-08
4.38922e-08
4.27085e-08
4.1204e-08
3.93008e-08
3.70617e-08
3.45492e-08
3.17965e-08
2.88502e-08
2.57664e-08
2.26065e-08
1.94346e-08
1.63138e-08
1.33025e-08
1.04529e-08
7.8105e-09
5.41988e-09
3.34116e-09
1.66883e-09
5.6805e-10
8.38398e-11
5.13383e-13
2.57649e-13
4.32819e-11
3.15719e-10
1.04031e-09
2.32642e-09
4.12388e-09
6.27006e-09
8.57062e-09
1.08594e-08
1.30203e-08
1.4986e-08
1.67262e-08
1.82368e-08
1.95299e-08
2.06271e-08
2.15549e-08
2.23418e-08
2.30156e-08
2.36023e-08
2.41258e-08
2.46068e-08
2.50633e-08
2.55109e-08
2.59624e-08
2.64288e-08
2.69191e-08
2.74413e-08
2.80017e-08
2.86061e-08
2.92593e-08
2.99654e-08
3.0728e-08
3.155e-08
3.24335e-08
3.338e-08
3.43897e-08
3.54615e-08
3.65929e-08
3.77789e-08
3.90121e-08
4.02821e-08
4.15745e-08
4.28715e-08
4.41507e-08
4.53856e-08
4.65457e-08
4.75971e-08
4.85035e-08
4.92272e-08
4.97304e-08
4.9977e-08
4.99339e-08
4.95218e-08
4.87405e-08
4.77561e-08
4.63536e-08
4.46133e-08
4.24796e-08
3.99725e-08
3.7191e-08
3.41681e-08
3.09531e-08
2.76053e-08
2.41896e-08
2.07728e-08
1.74204e-08
1.41931e-08
1.11449e-08
8.32316e-09
5.77434e-09
3.56085e-09
1.78031e-09
6.07155e-10
8.97742e-11
5.50449e-13
2.79885e-13
4.70738e-11
3.44437e-10
1.14016e-09
2.56312e-09
4.56631e-09
6.97281e-09
9.56273e-09
1.21441e-08
1.45812e-08
1.67941e-08
1.87474e-08
2.04361e-08
2.18746e-08
2.30887e-08
2.41098e-08
2.49709e-08
2.57045e-08
2.63407e-08
2.69067e-08
2.74262e-08
2.79197e-08
2.84044e-08
2.88947e-08
2.94029e-08
2.99389e-08
3.05114e-08
3.11274e-08
3.17931e-08
3.25136e-08
3.32933e-08
3.41358e-08
3.50441e-08
3.602e-08
3.70645e-08
3.81772e-08
3.93562e-08
4.05973e-08
4.1894e-08
4.32368e-08
4.46123e-08
4.60037e-08
4.73894e-08
4.87436e-08
5.00365e-08
5.12341e-08
5.22999e-08
5.31949e-08
5.38799e-08
5.43161e-08
5.44673e-08
5.43007e-08
5.37259e-08
5.27802e-08
5.15998e-08
4.99765e-08
4.79941e-08
4.5628e-08
4.28508e-08
3.97979e-08
3.65026e-08
3.30174e-08
2.94051e-08
2.5734e-08
2.2074e-08
1.84929e-08
1.50536e-08
1.18118e-08
8.81634e-09
6.11538e-09
3.77297e-09
1.88893e-09
6.45709e-10
9.56886e-11
5.87606e-13
3.02859e-13
5.09913e-11
3.74097e-10
1.24321e-09
2.80729e-09
5.02247e-09
7.6972e-09
1.05851e-08
1.34675e-08
1.61877e-08
1.86534e-08
2.08235e-08
2.26924e-08
2.42775e-08
2.56087e-08
2.67227e-08
2.76576e-08
2.84507e-08
2.91363e-08
2.97451e-08
3.03039e-08
3.08353e-08
3.13586e-08
3.18897e-08
3.24419e-08
3.30261e-08
3.36516e-08
3.43261e-08
3.50561e-08
3.58471e-08
3.67036e-08
3.76293e-08
3.86268e-08
3.9698e-08
4.08431e-08
4.2061e-08
4.33485e-08
4.47e-08
4.61071e-08
4.75579e-08
4.90364e-08
5.05225e-08
5.19916e-08
5.34145e-08
5.4758e-08
5.59854e-08
5.70575e-08
5.79335e-08
5.85728e-08
5.89359e-08
5.89863e-08
5.86919e-08
5.79505e-08
5.68427e-08
5.54611e-08
5.36149e-08
5.13864e-08
4.87828e-08
4.57331e-08
4.24041e-08
3.88314e-08
3.5071e-08
3.11897e-08
2.72598e-08
2.33545e-08
1.95442e-08
1.58938e-08
1.24606e-08
9.29484e-09
6.44588e-09
3.97892e-09
1.99515e-09
6.83797e-10
1.01589e-10
6.24882e-13
3.26573e-13
5.50355e-11
4.04713e-10
1.34954e-09
3.05905e-09
5.4924e-09
8.44291e-09
1.16367e-08
1.48273e-08
1.78366e-08
2.05594e-08
2.29489e-08
2.49994e-08
2.67313e-08
2.81794e-08
2.93857e-08
3.03939e-08
3.12462e-08
3.19813e-08
3.26336e-08
3.32326e-08
3.38036e-08
3.43674e-08
3.49415e-08
3.55403e-08
3.61756e-08
3.68572e-08
3.75935e-08
3.83911e-08
3.9256e-08
4.01927e-08
4.12048e-08
4.2295e-08
4.34644e-08
4.47127e-08
4.6038e-08
4.74356e-08
4.88985e-08
5.0416e-08
5.19739e-08
5.35534e-08
5.51314e-08
5.66801e-08
5.81672e-08
5.95566e-08
6.08091e-08
6.18832e-08
6.27366e-08
6.33274e-08
6.36154e-08
6.35638e-08
6.31409e-08
6.22323e-08
6.09658e-08
5.93805e-08
5.73101e-08
5.48322e-08
5.19827e-08
4.86578e-08
4.5045e-08
4.11865e-08
3.71421e-08
3.29834e-08
2.87872e-08
2.46306e-08
2.0587e-08
1.67232e-08
1.30982e-08
9.76332e-09
6.76864e-09
4.18009e-09
2.09947e-09
7.21514e-10
1.07483e-10
6.62313e-13
3.51029e-13
5.9207e-11
4.36296e-10
1.45919e-09
3.31849e-09
5.97614e-09
9.20969e-09
1.27167e-08
1.62218e-08
1.95252e-08
2.25083e-08
2.5119e-08
2.73516e-08
2.92298e-08
3.0794e-08
3.20918e-08
3.31728e-08
3.40842e-08
3.48692e-08
3.55658e-08
3.62067e-08
3.68191e-08
3.74259e-08
3.80458e-08
3.86942e-08
3.93838e-08
4.01251e-08
4.09266e-08
4.17957e-08
4.27381e-08
4.37587e-08
4.4861e-08
4.60471e-08
4.7318e-08
4.86726e-08
5.01077e-08
5.16176e-08
5.31931e-08
5.48217e-08
5.64866e-08
5.81663e-08
5.98347e-08
6.14611e-08
6.30104e-08
6.4444e-08
6.57201e-08
6.67956e-08
6.76266e-08
6.817e-08
6.83849e-08
6.82337e-08
6.76841e-08
6.66104e-08
6.51894e-08
6.33998e-08
6.11047e-08
5.83747e-08
5.52654e-08
5.16637e-08
4.7756e-08
4.35997e-08
3.92587e-08
3.48102e-08
3.03361e-08
2.59183e-08
2.16336e-08
1.75513e-08
1.37314e-08
1.02262e-08
7.08635e-09
4.37782e-09
2.20234e-09
7.58955e-10
1.13378e-10
6.99942e-13
3.76229e-13
6.35063e-11
4.68853e-10
1.5722e-09
3.58569e-09
6.47374e-09
9.99735e-09
1.38243e-08
1.76497e-08
2.12511e-08
2.44968e-08
2.73295e-08
2.97439e-08
3.17677e-08
3.34469e-08
3.48354e-08
3.59886e-08
3.69591e-08
3.77947e-08
3.8537e-08
3.92215e-08
3.98778e-08
4.05304e-08
4.11993e-08
4.19009e-08
4.26486e-08
4.34533e-08
4.43242e-08
4.52687e-08
4.62928e-08
4.74014e-08
4.85977e-08
4.98838e-08
5.12598e-08
5.2724e-08
5.42719e-08
5.58964e-08
5.75867e-08
5.93278e-08
6.11006e-08
6.2881e-08
6.46401e-08
6.63446e-08
6.79567e-08
6.94353e-08
7.0737e-08
7.18166e-08
7.2629e-08
7.31298e-08
7.32769e-08
7.30314e-08
7.23585e-08
7.11242e-08
6.9553e-08
6.75597e-08
6.50388e-08
6.20536e-08
5.86743e-08
5.47866e-08
5.05711e-08
4.61021e-08
4.14483e-08
3.66933e-08
3.19257e-08
2.7233e-08
2.2696e-08
1.83866e-08
1.43663e-08
1.06877e-08
7.40152e-09
4.57337e-09
2.30423e-09
7.96217e-10
1.19282e-10
7.37812e-13
4.02174e-13
6.79336e-11
5.0239e-10
1.6886e-09
3.8607e-09
6.98519e-09
1.08056e-08
1.49589e-08
1.91094e-08
2.30121e-08
2.65219e-08
2.95766e-08
3.21719e-08
3.43401e-08
3.6133e-08
3.76112e-08
3.88362e-08
3.98661e-08
4.07533e-08
4.1543e-08
4.22735e-08
4.29766e-08
4.36783e-08
4.44e-08
4.51587e-08
4.59687e-08
4.68413e-08
4.7786e-08
4.88104e-08
4.99208e-08
5.11218e-08
5.24166e-08
5.38069e-08
5.52922e-08
5.68697e-08
5.8534e-08
6.02764e-08
6.20841e-08
6.39402e-08
6.58231e-08
6.77062e-08
6.95582e-08
7.13431e-08
7.30209e-08
7.45486e-08
7.58805e-08
7.69702e-08
7.77708e-08
7.82366e-08
7.83241e-08
7.7993e-08
7.71992e-08
7.58118e-08
7.40945e-08
7.18988e-08
6.91501e-08
6.59065e-08
6.22486e-08
5.80607e-08
5.35229e-08
4.87232e-08
4.37367e-08
3.8655e-08
3.35745e-08
2.85892e-08
2.37853e-08
1.92376e-08
1.50088e-08
1.11517e-08
7.71649e-09
4.76793e-09
2.40557e-09
8.3339e-10
1.25204e-10
7.75967e-13
4.28861e-13
7.2489e-11
5.3691e-10
1.80841e-09
4.14356e-09
7.51047e-09
1.16343e-08
1.61196e-08
2.05996e-08
2.48059e-08
2.85805e-08
3.18566e-08
3.46316e-08
3.69423e-08
3.88474e-08
4.04143e-08
4.17108e-08
4.28008e-08
4.37409e-08
4.45801e-08
4.53595e-08
4.61128e-08
4.68677e-08
4.76464e-08
4.84669e-08
4.93439e-08
5.02893e-08
5.13128e-08
5.24223e-08
5.36239e-08
5.49224e-08
5.63207e-08
5.78199e-08
5.9419e-08
6.11143e-08
6.28991e-08
6.47632e-08
6.6692e-08
6.86665e-08
7.06629e-08
7.26523e-08
7.46011e-08
7.6471e-08
7.82199e-08
7.98028e-08
8.11725e-08
8.22805e-08
8.30786e-08
8.35193e-08
8.35575e-08
8.31518e-08
8.22396e-08
8.07083e-08
7.88483e-08
7.64519e-08
7.34733e-08
6.99681e-08
6.60224e-08
6.1518e-08
5.6641e-08
5.14902e-08
4.61484e-08
4.07163e-08
3.52998e-08
3.0001e-08
2.49122e-08
2.01119e-08
1.56642e-08
1.16216e-08
8.03336e-09
4.96256e-09
2.50676e-09
8.70558e-10
1.31151e-10
8.14444e-13
4.56289e-13
7.71723e-11
5.72415e-10
1.93163e-09
4.43425e-09
8.04946e-09
1.2483e-08
1.73058e-08
2.21189e-08
2.66305e-08
3.06698e-08
3.41661e-08
3.71187e-08
3.957e-08
4.15857e-08
4.32403e-08
4.46083e-08
4.57591e-08
4.6754e-08
4.76455e-08
4.84772e-08
4.92848e-08
5.00973e-08
5.0938e-08
5.18255e-08
5.27749e-08
5.37986e-08
5.49065e-08
5.61066e-08
5.74051e-08
5.88066e-08
6.03138e-08
6.19273e-08
6.36454e-08
6.54635e-08
6.73736e-08
6.93639e-08
7.14183e-08
7.35158e-08
7.56304e-08
7.77311e-08
7.97821e-08
8.17433e-08
8.35706e-08
8.52172e-08
8.66339e-08
8.77707e-08
8.85772e-08
8.90042e-08
8.90045e-08
8.85345e-08
8.75127e-08
8.58449e-08
8.38444e-08
8.12496e-08
7.80387e-08
7.42683e-08
7.00252e-08
6.51868e-08
5.99525e-08
5.4428e-08
4.87057e-08
4.28969e-08
3.71183e-08
3.14816e-08
2.60868e-08
2.10169e-08
1.63375e-08
1.21008e-08
8.35406e-09
5.15824e-09
2.60815e-09
9.07794e-10
1.37127e-10
8.5327e-13
4.84454e-13
8.19829e-11
6.089e-10
2.05825e-09
4.73273e-09
8.602e-09
1.33512e-08
1.85164e-08
2.36656e-08
2.84835e-08
3.27868e-08
3.65013e-08
3.96291e-08
4.22188e-08
4.43433e-08
4.60848e-08
4.75245e-08
4.87374e-08
4.97894e-08
5.07363e-08
5.16244e-08
5.2491e-08
5.33663e-08
5.42745e-08
5.52349e-08
5.62629e-08
5.73711e-08
5.85696e-08
5.98666e-08
6.12682e-08
6.27788e-08
6.44009e-08
6.61346e-08
6.79774e-08
6.99238e-08
7.19646e-08
7.40866e-08
7.62719e-08
7.84977e-08
8.07362e-08
8.29544e-08
8.51148e-08
8.71751e-08
8.90896e-08
9.08095e-08
9.22841e-08
9.34612e-08
9.42884e-08
9.47138e-08
9.46879e-08
9.41643e-08
9.30444e-08
9.12474e-08
8.91074e-08
8.63165e-08
8.28713e-08
7.88313e-08
7.42812e-08
6.90914e-08
6.34804e-08
5.75586e-08
5.14288e-08
4.52146e-08
3.90449e-08
3.30432e-08
2.73184e-08
2.19592e-08
1.70334e-08
1.25921e-08
8.68029e-09
5.35582e-09
2.71005e-09
9.45158e-10
1.43138e-10
8.92464e-13
5.13352e-13
8.69201e-11
6.46362e-10
2.18826e-09
5.03895e-09
9.16786e-09
1.42384e-08
1.97503e-08
2.52379e-08
3.03623e-08
3.49282e-08
3.88585e-08
4.21587e-08
4.48841e-08
4.71157e-08
4.89433e-08
5.04551e-08
5.17319e-08
5.28438e-08
5.38501e-08
5.47992e-08
5.57302e-08
5.66743e-08
5.76564e-08
5.86961e-08
5.98094e-08
6.1009e-08
6.23051e-08
6.37059e-08
6.52174e-08
6.68439e-08
6.85875e-08
7.04478e-08
7.24216e-08
7.45025e-08
7.668e-08
7.89395e-08
8.12617e-08
8.36221e-08
8.59912e-08
8.83342e-08
9.06117e-08
9.27799e-08
9.47915e-08
9.65957e-08
9.81397e-08
9.93694e-08
1.0023e-07
1.00666e-07
1.00626e-07
1.00059e-07
9.88541e-08
9.6935e-08
9.46556e-08
9.16714e-08
8.79898e-08
8.36751e-08
7.88087e-08
7.3251e-08
6.72438e-08
6.09002e-08
5.43352e-08
4.76853e-08
4.10936e-08
3.46972e-08
2.86158e-08
2.29453e-08
1.7756e-08
1.30982e-08
9.01357e-09
5.55603e-09
2.81272e-09
9.82696e-10
1.49183e-10
9.32029e-13
5.42974e-13
9.19828e-11
6.84793e-10
2.32163e-09
5.35278e-09
9.74675e-09
1.51439e-08
2.10063e-08
2.6834e-08
3.22643e-08
3.70905e-08
4.12334e-08
4.47028e-08
4.75613e-08
4.98981e-08
5.18113e-08
5.33961e-08
5.47388e-08
5.59141e-08
5.69842e-08
5.79998e-08
5.90013e-08
6.00208e-08
6.10838e-08
6.22104e-08
6.34166e-08
6.47152e-08
6.61164e-08
6.76285e-08
6.92574e-08
7.10072e-08
7.28794e-08
7.48733e-08
7.69849e-08
7.92068e-08
8.15275e-08
8.39311e-08
8.63967e-08
8.88985e-08
9.14053e-08
9.38809e-08
9.62842e-08
9.85698e-08
1.00689e-07
1.02588e-07
1.04213e-07
1.05508e-07
1.06414e-07
1.06873e-07
1.0683e-07
1.06231e-07
1.04954e-07
1.0292e-07
1.005e-07
9.73256e-08
9.34063e-08
8.88111e-08
8.36196e-08
7.76797e-08
7.12569e-08
6.44675e-08
5.7439e-08
5.03224e-08
4.32766e-08
3.64539e-08
2.99872e-08
2.3981e-08
1.85094e-08
1.36215e-08
9.35525e-09
5.75952e-09
2.91637e-09
1.02044e-09
1.55264e-10
9.71952e-13
5.73313e-13
9.71695e-11
7.24183e-10
2.4583e-09
5.67409e-09
1.03383e-08
1.60669e-08
2.22829e-08
2.84514e-08
3.41864e-08
3.92699e-08
4.36218e-08
4.72566e-08
5.02451e-08
5.26854e-08
5.46838e-08
5.63428e-08
5.77542e-08
5.89969e-08
6.01361e-08
6.12242e-08
6.23031e-08
6.34055e-08
6.45574e-08
6.57789e-08
6.70862e-08
6.84922e-08
7.0007e-08
7.16387e-08
7.33931e-08
7.52739e-08
7.72825e-08
7.94174e-08
8.16739e-08
8.40437e-08
8.65145e-08
8.90689e-08
9.16849e-08
9.43353e-08
9.69873e-08
9.96035e-08
1.02141e-07
1.04554e-07
1.0679e-07
1.08796e-07
1.10513e-07
1.11884e-07
1.12847e-07
1.13341e-07
1.13306e-07
1.12683e-07
1.11348e-07
1.09206e-07
1.06645e-07
1.03283e-07
9.91254e-08
9.42437e-08
8.87192e-08
8.23855e-08
7.55288e-08
6.82706e-08
6.07512e-08
5.3137e-08
4.56041e-08
3.83223e-08
3.14397e-08
2.50716e-08
1.9297e-08
1.41641e-08
9.70648e-09
5.96682e-09
3.02114e-09
1.0584e-09
1.61376e-10
1.01221e-12
6.0436e-13
1.02479e-10
7.64517e-10
2.59824e-09
6.00268e-09
1.09419e-08
1.70064e-08
2.35785e-08
3.00878e-08
3.61251e-08
4.14622e-08
4.60187e-08
4.98149e-08
5.29303e-08
5.54723e-08
5.75558e-08
5.92905e-08
6.07738e-08
6.20885e-08
6.33025e-08
6.44701e-08
6.56341e-08
6.68278e-08
6.80771e-08
6.94026e-08
7.08201e-08
7.23425e-08
7.39799e-08
7.57401e-08
7.76286e-08
7.9649e-08
8.1802e-08
8.40857e-08
8.64946e-08
8.90197e-08
9.16474e-08
9.43597e-08
9.7133e-08
9.9939e-08
1.02744e-07
1.05508e-07
1.08189e-07
1.10737e-07
1.131e-07
1.15222e-07
1.17043e-07
1.185e-07
1.1953e-07
1.20068e-07
1.2005e-07
1.19413e-07
1.18032e-07
1.15789e-07
1.13086e-07
1.0954e-07
1.05144e-07
9.99699e-08
9.41057e-08
8.737e-08
8.0063e-08
7.23149e-08
6.42787e-08
5.61369e-08
4.80842e-08
4.03099e-08
3.29797e-08
2.62221e-08
2.01221e-08
1.47281e-08
1.00683e-08
6.17836e-09
3.12715e-09
1.09658e-09
1.67514e-10
1.05274e-12
6.36102e-13
1.07908e-10
8.05781e-10
2.74135e-09
6.33834e-09
1.15573e-08
1.79612e-08
2.48911e-08
3.17403e-08
3.80767e-08
4.36628e-08
4.84189e-08
5.23719e-08
5.56107e-08
5.82526e-08
6.04214e-08
6.22338e-08
6.37927e-08
6.51847e-08
6.64801e-08
6.77348e-08
6.89923e-08
7.02862e-08
7.16426e-08
7.30816e-08
7.46193e-08
7.6268e-08
7.80377e-08
7.99358e-08
8.19678e-08
8.41365e-08
8.64425e-08
8.8883e-08
9.1452e-08
9.41396e-08
9.69314e-08
9.98083e-08
1.02746e-07
1.05714e-07
1.08679e-07
1.11599e-07
1.1443e-07
1.17122e-07
1.1962e-07
1.21866e-07
1.23798e-07
1.25351e-07
1.26457e-07
1.27048e-07
1.27054e-07
1.2641e-07
1.24993e-07
1.22657e-07
1.19811e-07
1.16085e-07
1.11452e-07
1.05979e-07
9.97701e-08
9.26279e-08
8.4857e-08
7.66005e-08
6.80242e-08
5.93267e-08
5.07226e-08
4.24226e-08
3.46125e-08
2.74363e-08
2.09875e-08
1.53149e-08
1.04414e-08
6.39448e-09
3.23445e-09
1.13495e-09
1.73669e-10
1.0935e-12
6.68527e-13
1.13456e-10
8.47956e-10
2.88757e-09
6.68079e-09
1.21837e-08
1.893e-08
2.62184e-08
3.34056e-08
4.00369e-08
4.58665e-08
5.08163e-08
5.49211e-08
5.82797e-08
6.10198e-08
6.32741e-08
6.51665e-08
6.68052e-08
6.82804e-08
6.96645e-08
7.10146e-08
7.23748e-08
7.37787e-08
7.52523e-08
7.68155e-08
7.84838e-08
8.02693e-08
8.21816e-08
8.42278e-08
8.64128e-08
8.87392e-08
9.12068e-08
9.38123e-08
9.65491e-08
9.94065e-08
1.02369e-07
1.05417e-07
1.08525e-07
1.11662e-07
1.14792e-07
1.17875e-07
1.20862e-07
1.23704e-07
1.26344e-07
1.28721e-07
1.30771e-07
1.32426e-07
1.33614e-07
1.34263e-07
1.343e-07
1.33654e-07
1.32211e-07
1.29787e-07
1.26799e-07
1.22896e-07
1.18029e-07
1.12254e-07
1.05696e-07
9.81468e-08
8.99015e-08
8.11219e-08
7.19854e-08
6.2707e-08
5.35219e-08
4.4664e-08
3.63419e-08
2.87176e-08
2.18955e-08
1.5926e-08