/*--------------------------------*- C++ -*----------------------------------*\
  =========                 |
  \\      /  F ield         | OpenFOAM: The Open Source CFD Toolbox
   \\    /   O peration     | Website:  https://openfoam.org
    \\  /    A nd           | Version:  12
     \\/     M anipulation  |
\*---------------------------------------------------------------------------*/
FoamFile
{
    format      ascii;
    class       volScalarField;
    location    "3";
    object      p;
}
// * * * * * * * * * * * * * * * * * * * * * * * * * * * * * * * * * * * * * //

dimensions      [0 2 -2 0 0 0 0];

internalField   nonuniform List<scalar> 
5625
(
3.25341e-08
-8.82803e-06
-8.77319e-05
-0.000238022
-0.000441177
-0.000681054
-0.000944506
-0.0012219
-0.00150682
-0.00179552
-0.00208633
-0.00237907
-0.00267461
-0.00297443
-0.0032803
-0.00359408
-0.00391751
-0.00425206
-0.00459891
-0.00495884
-0.00533219
-0.00571885
-0.00611819
-0.00652902
-0.00694955
-0.00737728
-0.00780893
-0.00824029
-0.00866615
-0.00908006
-0.00947422
-0.0098393
-0.0101642
-0.0104358
-0.0106391
-0.0107564
-0.0107679
-0.0106511
-0.0103809
-0.00992989
-0.00926817
-0.00836405
-0.00718442
-0.00569559
-0.00386426
-0.00165888
0.000948818
0.00398193
0.00745626
0.0113782
0.0157429
0.0205242
0.0256861
0.0311857
0.0369371
0.0428477
0.048807
0.0546887
0.0603566
0.0656704
0.0704943
0.0747053
0.0782029
0.0809171
0.0828155
0.0839078
0.0842464
0.0839243
0.0830697
0.0818382
0.0804057
0.0789609
0.0777024
0.076844
0.076503
-1.1952e-05
-2.10467e-05
-9.54115e-05
-0.000235933
-0.000426116
-0.000651985
-0.000901788
-0.00116664
-0.00144044
-0.00171947
-0.00200188
-0.00228727
-0.00257617
-0.00286976
-0.00316952
-0.00347701
-0.00379373
-0.00412093
-0.00445961
-0.00481039
-0.00517347
-0.00554863
-0.00593513
-0.00633173
-0.00673655
-0.00714705
-0.00755992
-0.00797096
-0.00837497
-0.00876557
-0.00913507
-0.00947429
-0.00977233
-0.0100164
-0.0101918
-0.0102815
-0.010266
-0.0101236
-0.00983004
-0.00935869
-0.00868078
-0.00776568
-0.00658153
-0.00509589
-0.0032768
-0.00109399
0.00147957
0.00446587
0.00787981
0.0117272
0.0160032
0.0206799
0.0257262
0.031101
0.0367141
0.0424815
0.0482958
0.054035
0.059568
0.0647603
0.0694817
0.0736146
0.0770631
0.0797609
0.081678
0.0828242
0.0832504
0.0830461
0.0823337
0.0812614
0.0799952
0.0787114
0.0775916
0.0768299
0.0765296
-1.32899e-05
-2.29291e-05
-9.33849e-05
-0.000224815
-0.000402272
-0.000613942
-0.000849514
-0.00110097
-0.00136261
-0.00163081
-0.00190365
-0.00218046
-0.00246153
-0.0027477
-0.00304014
-0.00334012
-0.00364888
-0.00396744
-0.00429658
-0.00463675
-0.00498802
-0.00535003
-0.00572196
-0.00610246
-0.00648961
-0.00688082
-0.00727279
-0.00766132
-0.00804128
-0.00840638
-0.00874911
-0.00906047
-0.00932987
-0.00954495
-0.00969134
-0.00975261
-0.00971004
-0.00954262
-0.00922699
-0.00873756
-0.00804664
-0.00712485
-0.00594155
-0.00446562
-0.00266638
-0.000514798
0.00201504
0.00494419
0.00828692
0.0120487
0.0162246
0.0207862
0.025711
0.0309502
0.0364189
0.042039
0.0477059
0.0533023
0.058702
0.0637758
0.0683985
0.0724576
0.0758613
0.0785464
0.0804846
0.0816861
0.0822002
0.082113
0.0815414
0.080626
0.0795228
0.0783949
0.0774052
0.0767258
0.0764423
4.22472e-06
-7.41787e-06
-7.61367e-05
-0.000201662
-0.000369931
-0.000570649
-0.000794659
-0.00103475
-0.00128568
-0.00154402
-0.00180783
-0.00207636
-0.00234967
-0.00262839
-0.00291345
-0.00320589
-0.00350671
-0.00381674
-0.00413658
-0.00446653
-0.00480653
-0.00515611
-0.00551437
-0.00587991
-0.00625077
-0.00662436
-0.00699738
-0.00736572
-0.00772431
-0.00806704
-0.00838657
-0.00867418
-0.00891962
-0.0091109
-0.00923419
-0.00927359
-0.00921109
-0.00902642
-0.00869709
-0.00819839
-0.00750364
-0.00658445
-0.00541122
-0.00395382
-0.00218248
-6.89629e-05
0.00241203
0.00528118
0.00855265
0.012232
0.0163145
0.0207756
0.0255945
0.030716
0.036068
0.0415711
0.047124
0.0526131
0.0579158
0.0629061
0.067462
0.0714739
0.0748519
0.0775346
0.0794943
0.0807411
0.0813232
0.0813239
0.0808566
0.0800561
0.0790702
0.0780511
0.077147
0.0765095
0.0762092
4.09744e-05
2.47299e-05
-4.48889e-05
-0.000167342
-0.000329394
-0.000521835
-0.000736522
-0.000966971
-0.00120842
-0.00145769
-0.00171296
-0.00197341
-0.00223903
-0.00251027
-0.00278788
-0.00307271
-0.00336557
-0.00366713
-0.00397783
-0.00429785
-0.004627
-0.00496474
-0.0053101
-0.00566164
-0.00601739
-0.00637479
-0.00673059
-0.00708078
-0.00742042
-0.00774361
-0.00804323
-0.00831089
-0.00853671
-0.00870916
-0.00881492
-0.00883873
-0.00876323
-0.00856891
-0.00823408
-0.00773488
-0.00704549
-0.00613837
-0.00498472
-0.0035551
-0.00182035
0.000247398
0.00267327
0.00547808
0.0086764
0.0122746
0.0162687
0.0206386
0.0253605
0.0303829
0.0356391
0.0410498
0.0465166
0.0519285
0.0571651
0.0621024
0.0666199
0.0706087
0.0739798
0.0766716
0.0786563
0.0799432
0.0805794
0.0806466
0.0802551
0.0795358
0.0786303
0.0776817
0.0768263
0.0761966
0.0758522
9.59815e-05
7.20955e-05
-1.15973e-06
-0.000122967
-0.000281139
-0.000467382
-0.000674448
-0.000896555
-0.00112944
-0.00137025
-0.0016173
-0.00186982
-0.00212775
-0.00239143
-0.00266148
-0.00293859
-0.00322342
-0.00351649
-0.00381812
-0.00412836
-0.00444693
-0.00477322
-0.00510623
-0.00544448
-0.00578604
-0.00612839
-0.00646837
-0.00680209
-0.00712483
-0.0074309
-0.00771349
-0.00796456
-0.00817467
-0.0083328
-0.0084262
-0.00844025
-0.00835829
-0.00816157
-0.00782917
-0.00733804
-0.0066631
-0.00577753
-0.00465314
-0.00326097
-0.00157212
0.000441216
0.00280441
0.0055388
0.00865988
0.0121752
0.0160824
0.0203646
0.024997
0.0299325
0.0351075
0.0404439
0.0458458
0.0512039
0.0563992
0.0613084
0.0658113
0.0697987
0.0731805
0.0758943
0.0779108
0.0792381
0.0799218
0.0800422
0.0797077
0.0790459
0.0781938
0.0772872
0.0764526
0.0758043
0.0753948
0.000168116
0.000133568
5.40072e-05
-6.93913e-05
-0.000225762
-0.000407632
-0.000608579
-0.000823513
-0.00104869
-0.00128161
-0.00152078
-0.00176555
-0.00201583
-0.00227193
-0.00253437
-0.00280371
-0.0030805
-0.00336513
-0.0036578
-0.00395845
-0.00426676
-0.00458204
-0.00490327
-0.005229
-0.00555732
-0.0058858
-0.00621141
-0.00653045
-0.00683841
-0.00712988
-0.00739842
-0.00763642
-0.00783491
-0.00798343
-0.00806986
-0.00808024
-0.00799867
-0.00780712
-0.00748545
-0.00701133
-0.00636036
-0.00550629
-0.00442136
-0.00307684
-0.00144383
0.000505765
0.00279791
0.0054549
0.0084935
0.0119229
0.0157427
0.019939
0.0244878
0.0293454
0.0344509
0.0397282
0.0450831
0.0504078
0.0555838
0.0604877
0.0649986
0.0690055
0.0724166
0.0751669
0.0772251
0.0785969
0.0793264
0.0794922
0.0792013
0.0785791
0.0777589
0.076871
0.0760342
0.075346
0.074856
0.00025603
0.000208007
0.000119636
-7.44888e-06
-0.000163931
-0.000343099
-0.000539323
-0.000748189
-0.000966488
-0.00119209
-0.00142378
-0.00166103
-0.0019038
-0.00215239
-0.00240725
-0.00266887
-0.00293768
-0.00321398
-0.00349788
-0.00378925
-0.00408768
-0.00439249
-0.00470264
-0.0050167
-0.00533287
-0.00564881
-0.00596167
-0.00626796
-0.00656346
-0.0068431
-0.00710086
-0.00732958
-0.00752086
-0.00766485
-0.00775009
-0.00776335
-0.00768946
-0.00751116
-0.00720903
-0.0067614
-0.00614447
-0.0053324
-0.00429767
-0.00301155
-0.00144487
0.000431061
0.00264316
0.00521504
0.00816512
0.0115046
0.0152354
0.0193466
0.0238158
0.0286024
0.0336485
0.0388796
0.0442035
0.0495131
0.05469
0.0596102
0.0641509
0.0681986
0.0716583
0.0744617
0.0765739
0.0779979
0.0787754
0.0789833
0.078727
0.0781307
0.077325
0.0764365
0.0755783
0.0748335
0.0742515
0.000358154
0.00029411
0.000194644
6.19505e-05
-9.63842e-05
-0.000274374
-0.000467154
-0.000670986
-0.000883204
-0.00110209
-0.00132672
-0.00155673
-0.00179218
-0.00203339
-0.00228079
-0.0025348
-0.00279579
-0.00306397
-0.00333937
-0.00362182
-0.00391087
-0.00420582
-0.00450566
-0.00480904
-0.00511424
-0.0054191
-0.00572097
-0.00601663
-0.00630218
-0.00657298
-0.00682344
-0.00704697
-0.00723576
-0.00738063
-0.00747084
-0.0074939
-0.00743542
-0.00727888
-0.00700554
-0.00659436
-0.00602199
-0.00526287
-0.00428954
-0.00307305
-0.00158366
0.000208197
0.00233071
0.00480913
0.00766389
0.0109086
0.0145475
0.0185731
0.0229651
0.0276859
0.0326806
0.0378765
0.0431831
0.0484938
0.0536903
0.058647
0.0632386
0.0673484
0.0708771
0.0737518
0.0759331
0.0774202
0.0782515
0.0785019
0.0782756
0.0776954
0.0768909
0.075986
0.0750907
0.0742763
0.0735944
0.000472784
0.000390491
0.000277861
0.000137817
-2.39392e-05
-0.000202123
-0.000392626
-0.000592382
-0.000799282
-0.00101204
-0.00123005
-0.00145315
-0.00168154
-0.00191558
-0.0021557
-0.0024023
-0.00265569
-0.00291602
-0.00318328
-0.00345724
-0.00373747
-0.00402326
-0.00431366
-0.00460742
-0.00490295
-0.0051983
-0.00549107
-0.00577835
-0.00605665
-0.00632176
-0.00656865
-0.00679131
-0.0069826
-0.00713406
-0.00723571
-0.00727586
-0.00724086
-0.00711495
-0.00688004
-0.00651561
-0.00599867
-0.00530381
-0.00440341
-0.00326808
-0.0018673
-0.000170303
0.00185264
0.00422871
0.00698067
0.0101247
0.013668
0.0176062
0.0219217
0.0265801
0.0315294
0.0366989
0.0419997
0.0473261
0.0525589
0.057571
0.0622341
0.0664271
0.0700458
0.0730116
0.0752794
0.0768434
0.0777379
0.0780351
0.0778376
0.0772678
0.0764546
0.0755212
0.0745763
0.0736825
0.0728954
0.000598185
0.000495666
0.000368045
0.00021909
5.25079e-05
-0.000127101
-0.000316386
-0.00051295
-0.000715255
-0.000922471
-0.00113431
-0.00135088
-0.00157252
-0.00179965
-0.00203275
-0.0022722
-0.00251828
-0.00277111
-0.00303064
-0.00329664
-0.00356867
-0.00384608
-0.00412798
-0.00441327
-0.00470053
-0.00498805
-0.00527373
-0.00555505
-0.00582894
-0.00609171
-0.00633894
-0.00656527
-0.00676429
-0.00692831
-0.00704815
-0.00711293
-0.00710979
-0.00702366
-0.00683708
-0.00652997
-0.00607957
-0.00546046
-0.00464471
-0.00360227
-0.00230159
-0.000710483
0.0012026
0.00346704
0.00610814
0.00914494
0.0125878
0.0164356
0.0206739
0.0252716
0.0301795
0.0353294
0.040634
0.0459883
0.0512725
0.0563576
0.0611118
0.0654093
0.0691396
0.0722175
0.0745912
0.0762484
0.0772186
0.0775702
0.0774042
0.0768424
0.0760141
0.0750431
0.0740389
0.0730583
0.0721626
0.000732601
0.000608119
0.000463892
0.000304638
0.000131981
-5.01558e-05
-0.000239177
-0.000433367
-0.000631764
-0.000834006
-0.00104017
-0.00125061
-0.00146584
-0.0016864
-0.00191279
-0.00214542
-0.00238456
-0.0026303
-0.00288259
-0.00314121
-0.00340573
-0.0036756
-0.00395003
-0.00422808
-0.00450855
-0.00479001
-0.00507073
-0.0053486
-0.00562107
-0.00588502
-0.00613667
-0.00637141
-0.00658359
-0.00676635
-0.00691135
-0.00700853
-0.0070458
-0.0070088
-0.0068806
-0.00664149
-0.00626884
-0.00573705
-0.00501771
-0.00407992
-0.00289087
-0.00141675
0.000376033
0.00251927
0.00504103
0.00796342
0.0113001
0.0150535
0.0192124
0.0237492
0.028618
0.0337532
0.0390691
0.0444617
0.0498108
0.0549851
0.0598492
0.0642718
0.0681358
0.071348
0.0738487
0.075618
0.0766789
0.0770958
0.0769669
0.0764137
0.0755668
0.0745519
0.0734812
0.0724083
0.0714021
0.000874264
0.000726298
0.000564044
0.000393264
0.000213427
2.77821e-05
-0.000161838
-0.000354405
-0.000549546
-0.000747379
-0.000948356
-0.00115311
-0.00136233
-0.0015767
-0.00179676
-0.00202296
-0.00225557
-0.0024947
-0.0027403
-0.00299216
-0.00324995
-0.00351317
-0.00378122
-0.00405332
-0.00432856
-0.00460583
-0.00488381
-0.00516086
-0.00543499
-0.00570375
-0.00596406
-0.00621208
-0.006443
-0.00665083
-0.00682809
-0.00696556
-0.00705193
-0.00707347
-0.00701375
-0.00685332
-0.00656956
-0.00613658
-0.00552529
-0.00470375
-0.00363775
-0.00229163
-0.000629606
0.00138272
0.00377634
0.00657659
0.0098006
0.0134544
0.0175305
0.0220049
0.0268351
0.0319582
0.0372911
0.0427304
0.0481558
0.0534341
0.0584258
0.0629939
0.0670137
0.0703833
0.0730336
0.0749358
0.0761053
0.0766007
0.0765175
0.0759766
0.0751104
0.0740477
0.0729054
0.0717359
0.0706181
0.00102141
0.00084862
0.000667089
0.000483703
0.000295713
0.000105692
-8.53013e-05
-0.000276936
-0.000469438
-0.000663417
-0.00085971
-0.00105924
-0.0012629
-0.00147149
-0.00168565
-0.00190586
-0.00213243
-0.00236547
-0.00260497
-0.00285077
-0.00310262
-0.00336016
-0.00362294
-0.00389045
-0.00416208
-0.00443708
-0.0047146
-0.00499354
-0.00527253
-0.00554982
-0.0058231
-0.00608937
-0.0063447
-0.006584
-0.00680069
-0.00698638
-0.0071305
-0.00721995
-0.0072387
-0.00716749
-0.00698358
-0.00666062
-0.00616873
-0.00547479
-0.00454297
-0.00333567
-0.00181472
5.69735e-05
0.00231346
0.00498342
0.00808762
0.0116359
0.0156245
0.0200333
0.0248235
0.0299356
0.0352888
0.0407813
0.0462927
0.0516879
0.0568237
0.0615569
0.0657546
0.0693052
0.072129
0.0741867
0.0754847
0.0760748
0.0760485
0.0755262
0.0746423
0.0735301
0.0723128
0.0710437
0.0698134
0.00117228
0.000973468
0.000771561
0.000574625
0.00037763
0.000182467
-1.05926e-05
-0.000201929
-0.000392375
-0.000583043
-0.000775161
-0.000969949
-0.00116851
-0.00137179
-0.00158053
-0.00179524
-0.00201628
-0.0022438
-0.00247783
-0.0027183
-0.00296505
-0.00321789
-0.00347659
-0.00374089
-0.00401055
-0.00428526
-0.00456464
-0.00484822
-0.00513531
-0.00542489
-0.0057155
-0.00600502
-0.00629046
-0.00656763
-0.00683087
-0.00707263
-0.00728306
-0.00744961
-0.0075566
-0.00758485
-0.00751137
-0.00730927
-0.00694771
-0.00639224
-0.00560534
-0.0045473
-0.00317751
-0.00145606
0.000654215
0.00318543
0.00616208
0.00959793
0.0134931
0.0178317
0.0225791
0.0276792
0.0330541
0.0386041
0.0442092
0.0497327
0.0550275
0.0599444
0.0643417
0.0680972
0.0711192
0.0733567
0.0748052
0.0755084
0.0755528
0.0750578
0.0741602
0.0729988
0.0717046
0.0703336
0.0689896
0.00132509
0.0010992
0.000875944
0.000664631
0.000457891
0.000256915
6.11703e-05
-0.000130447
-0.000319388
-0.000507273
-0.000695731
-0.00088628
-0.00108025
-0.00127871
-0.00148252
-0.00169226
-0.00190832
-0.00213091
-0.00236014
-0.00259602
-0.00283854
-0.00308768
-0.00334347
-0.00360598
-0.00387533
-0.00415171
-0.00443531
-0.00472629
-0.0050247
-0.00533034
-0.00564263
-0.00596038
-0.00628155
-0.00660292
-0.00691972
-0.00722522
-0.00751027
-0.00776282
-0.00796744
-0.00810494
-0.00815201
-0.00808104
-0.00786016
-0.00745348
-0.00682167
-0.00592287
-0.00471394
-0.00315213
-0.00119712
0.00118668
0.00402761
0.00734343
0.0111384
0.0154009
0.0201008
0.025186
0.0305821
0.0361918
0.0418959
0.0475569
0.0530242
0.0581421
0.0627599
0.0667441
0.0699898
0.0724326
0.0740556
0.0748924
0.0750237
0.074567
0.0736619
0.0724534
0.0710815
0.0696071
0.0681479
0.00147806
0.00122413
0.000978668
0.00075226
0.000535131
0.000327757
0.000128778
-6.3649e-05
-0.000251605
-0.00043722
-0.000622528
-0.00080935
-0.000999229
-0.0011934
-0.0013928
-0.00159811
-0.00180976
-0.00202804
-0.00225314
-0.00248519
-0.00272433
-0.00297078
-0.00322484
-0.00348693
-0.00375764
-0.00403765
-0.00432779
-0.0046289
-0.00494183
-0.00526724
-0.00560548
-0.00595634
-0.00631874
-0.00669045
-0.00706759
-0.00744423
-0.00781186
-0.00815888
-0.00847004
-0.00872604
-0.00890312
-0.0089729
-0.00890235
-0.00865407
-0.00818686
-0.00745667
-0.00641781
-0.0050247
-0.00323386
-0.00100622
0.00169048
0.00487811
0.00856506
0.0127442
0.0173906
0.0224562
0.0278709
0.0335402
0.0393467
0.0451522
0.0508031
0.0561377
0.0609961
0.0652324
0.0687276
0.0714022
0.0732251
0.0742183
0.0744549
0.0740498
0.0731454
0.0718935
0.0704446
0.0688654
0.0672892
0.0016294
0.00134654
0.00107811
0.00083598
0.000607909
0.000393629
0.00019093
-2.78828e-06
-0.000190244
-0.000374085
-0.000556749
-0.000740356
-0.000926667
-0.00111707
-0.00131261
-0.00151402
-0.00172184
-0.00193643
-0.00215806
-0.00238701
-0.00262362
-0.00286836
-0.00312183
-0.00338487
-0.00365854
-0.0039441
-0.00424302
-0.00455693
-0.00488749
-0.00523628
-0.00560462
-0.00599329
-0.00640223
-0.00683015
-0.00727409
-0.00772889
-0.00818662
-0.00863604
-0.00906203
-0.00944507
-0.00976089
-0.00998023
-0.0100688
-0.00998777
-0.00969391
-0.00914098
-0.00828082
-0.00706502
-0.00544699
-0.00338426
-0.000840486
0.00221041
0.00578076
0.00986829
0.0144536
0.0194934
0.024922
0.0306486
0.0365582
0.0425129
0.0483566
0.0539216
0.0590389
0.06355
0.0673205
0.0702542
0.072304
0.0734781
0.0738406
0.0735027
0.0726091
0.0713191
0.0697947
0.0681099
0.0664143
0.00177725
0.00146467
0.00117258
0.000914193
0.000674704
0.000453082
0.000246235
5.07907e-05
-0.000136618
-0.000319159
-0.000499669
-0.000680569
-0.000863828
-0.00105098
-0.00124319
-0.00144126
-0.00164581
-0.00185728
-0.00207609
-0.00230266
-0.00253754
-0.00278149
-0.00303547
-0.00330075
-0.00357892
-0.00387185
-0.00418173
-0.00451098
-0.00486215
-0.00523777
-0.00564015
-0.00607111
-0.00653159
-0.00702128
-0.00753809
-0.00807756
-0.00863233
-0.00919146
-0.00973984
-0.0102577
-0.0107201
-0.011097
-0.0113527
-0.0114467
-0.011334
-0.0109662
-0.0102927
-0.00926221
-0.00782528
-0.00593606
-0.00355389
-0.000648619
0.00279542
0.00678264
0.0112983
0.0163044
0.0217402
0.0275197
0.0335308
0.0396367
0.0456796
0.0514866
0.0568795
0.0616867
0.0657578
0.0689783
0.071283
0.0726644
0.0731755
0.0729225
0.0720518
0.0707306
0.0691332
0.0673419
0.0655242
0.00191977
0.00157671
0.00126036
0.00098523
0.000733918
0.00050458
0.000293213
9.56526e-05
-9.21271e-05
-0.000273815
-0.000452645
-0.000631327
-0.000812037
-0.000996455
-0.00118583
-0.00138109
-0.00158289
-0.00179181
-0.00200838
-0.00223322
-0.00246712
-0.00271114
-0.00296664
-0.00323536
-0.00351945
-0.00382146
-0.00414433
-0.00449131
-0.00486588
-0.00527156
-0.00571169
-0.00618911
-0.0067058
-0.00726239
-0.00785762
-0.00848774
-0.00914585
-0.00982124
-0.0104988
-0.0111583
-0.0117743
-0.0123156
-0.0127453
-0.0130213
-0.0130967
-0.012921
-0.0124412
-0.0116034
-0.0103553
-0.00864754
-0.00643546
-0.00368551
-0.000378502
0.00350036
0.00793648
0.0128993
0.0183341
0.0241598
0.0302683
0.0365248
0.0427705
0.0488283
0.0545111
0.0596343
0.0640304
0.0675654
0.0701538
0.0717705
0.0724547
0.0723064
0.0714727
0.0701285
0.0684616
0.0665635
0.0646207
0.00205506
0.00168081
0.00133962
0.00104735
0.000783873
0.000546504
0.000330298
0.000130274
-5.82581e-05
-0.000239509
-0.000417103
-0.000594031
-0.000772666
-0.000954824
-0.00114186
-0.00133476
-0.00153431
-0.00174116
-0.00195602
-0.00217971
-0.00241328
-0.00265813
-0.00291604
-0.00318928
-0.0034806
-0.00379324
-0.00413095
-0.00449786
-0.0048984
-0.00533711
-0.00581837
-0.00634608
-0.00692321
-0.00755133
-0.00822999
-0.00895607
-0.00972309
-0.0105205
-0.0113331
-0.0121402
-0.0129157
-0.0136273
-0.0142368
-0.0147006
-0.0149701
-0.0149925
-0.0147126
-0.014074
-0.0130213
-0.0115012
-0.00946737
-0.00688373
-0.0037211
3.77264e-05
0.00438301
0.00929202
0.0147157
0.0205788
0.0267781
0.0331817
0.0396311
0.0459456
0.05193
0.0573867
0.0621308
0.0660074
0.0689091
0.0707902
0.0716741
0.0716523
0.0708714
0.0695141
0.0677821
0.065777
0.0637058
0.00218116
0.00177506
0.00140852
0.00109874
0.000822812
0.00057715
0.000355833
0.000153046
-3.65793e-05
-0.000217771
-0.000394536
-0.000570136
-0.000747129
-0.000927458
-0.00111256
-0.00130353
-0.00150123
-0.00170644
-0.00192002
-0.00214303
-0.00237681
-0.00262312
-0.00288421
-0.0031629
-0.00346256
-0.00378721
-0.0041414
-0.00453019
-0.004959
-0.0054334
-0.00595882
-0.00654022
-0.00718155
-0.0078853
-0.00865176
-0.0094784
-0.0103591
-0.0112834
-0.012236
-0.0131956
-0.0141354
-0.0150221
-0.0158163
-0.0164726
-0.0169408
-0.0171663
-0.0170915
-0.0166577
-0.0158062
-0.0144814
-0.0126356
-0.0102253
-0.00721445
-0.00358818
0.000655744
0.00549948
0.0109006
0.0167906
0.0230717
0.0296162
0.036267
0.0428407
0.0491353
0.0549405
0.0600537
0.0642982
0.0675426
0.0697182
0.07083
0.0709584
0.0702482
0.0688892
0.0670976
0.0649856
0.0627826
0.00229609
0.00185748
0.00146511
0.00113752
0.000848894
0.000594728
0.00036808
0.000162274
-2.8738e-05
-0.000210203
-0.000386499
-0.000561145
-0.000736872
-0.000915735
-0.00109927
-0.00128863
-0.00148479
-0.00168866
-0.00190129
-0.00212396
-0.00235835
-0.00260661
-0.00287148
-0.00315635
-0.0034653
-0.0038031
-0.00417517
-0.00458753
-0.00504659
-0.00555897
-0.00613119
-0.0067692
-0.00747797
-0.00826083
-0.00911879
-0.0100498
-0.0110482
-0.0121034
-0.0131998
-0.0143158
-0.0154237
-0.0164892
-0.0174714
-0.0183239
-0.0189945
-0.0194268
-0.0195613
-0.019337
-0.018693
-0.0175714
-0.0159193
-0.0136881
-0.0108407
-0.00735569
-0.00322427
0.00154207
0.00690821
0.0128127
0.0191645
0.025841
0.0326875
0.0395198
0.0461296
0.0522952
0.0577962
0.0624333
0.0660494
0.0685502
0.0699194
0.0702237
0.0696039
0.0682562
0.0664114
0.0641931
0.0618548
0.0023978
0.00192605
0.00150739
0.00116171
0.000860197
0.000597364
0.000365213
0.000156185
-3.64561e-05
-0.00021847
-0.000394597
-0.000568597
-0.000743358
-0.00092104
-0.00110325
-0.00129124
-0.00148606
-0.00168878
-0.00190063
-0.00212317
-0.0023584
-0.00260891
-0.00287796
-0.00316956
-0.00348849
-0.00384034
-0.00423142
-0.00466871
-0.00515966
-0.00571195
-0.00633312
-0.0070302
-0.00780906
-0.00867387
-0.00962631
-0.0106648
-0.0117838
-0.0129729
-0.0142161
-0.0154913
-0.0167699
-0.0180166
-0.0191894
-0.0202403
-0.0211157
-0.0217575
-0.0221043
-0.022093
-0.0216605
-0.0207461
-0.0192931
-0.0172496
-0.0145748
-0.0112409
-0.00723323
-0.00255674
0.00276107
0.00866648
0.0150758
0.0218726
0.0289062
0.0359927
0.0429193
0.0494535
0.0553581
0.0604103
0.064426
0.067283
0.0689404
0.0694478
0.0689401
0.0676181
0.0657278
0.0634043
0.0609272
0.00248419
0.00197867
0.00153328
0.00116926
0.000854714
0.000583099
0.000345323
0.000132927
-6.15256e-05
-0.000244299
-0.000420483
-0.000594063
-0.000768067
-0.000944745
-0.00112578
-0.00131248
-0.00150603
-0.00170762
-0.00191872
-0.00214114
-0.00237726
-0.00263013
-0.00290356
-0.00320218
-0.00353155
-0.00389806
-0.00430897
-0.00477223
-0.00529633
-0.00589001
-0.00656186
-0.00731989
-0.0081709
-0.00911984
-0.010169
-0.0113172
-0.012559
-0.013884
-0.0152759
-0.0167119
-0.0181627
-0.019592
-0.0209565
-0.0222071
-0.0232885
-0.0241411
-0.0247019
-0.0249059
-0.0246877
-0.0239841
-0.0227351
-0.020886
-0.0183915
-0.0152178
-0.0113449
-0.00677071
-0.00151497
0.00437671
0.0108288
0.017732
0.024941
0.0322737
0.0395145
0.0464218
0.052742
0.0582294
0.0626712
0.065915
0.0678919
0.0686313
0.068259
0.066979
0.0650519
0.062625
0.0600059
0.0025531
0.00201316
0.00154062
0.00115805
0.00083035
0.000549885
0.00030642
9.057e-05
-0.000105805
-0.00028947
-0.000465847
-0.000639132
-0.000812475
-0.000988205
-0.00116806
-0.00135343
-0.0015456
-0.00174593
-0.00195609
-0.00217822
-0.00241507
-0.00267018
-0.00294792
-0.00325363
-0.0035936
-0.00397511
-0.00440634
-0.00489625
-0.00545436
-0.00609047
-0.0068142
-0.00763453
-0.00855913
-0.00959366
-0.010741
-0.0120002
-0.0133662
-0.0148282
-0.0163695
-0.017967
-0.0195904
-0.0212024
-0.0227587
-0.0242088
-0.0254962
-0.0265598
-0.0273351
-0.0277553
-0.0277532
-0.0272629
-0.0262218
-0.0245721
-0.0222641
-0.0192591
-0.0155311
-0.0110712
-0.0058913
-2.85989e-05
0.00645008
0.0134437
0.0208135
0.0283811
0.0359296
0.0432103
0.0499544
0.0558935
0.0607857
0.0644458
0.066774
0.0677756
0.0675637
0.0663435
0.0643896
0.0618617
0.0590977
0.00260229
0.00202727
0.00152716
0.00112585
0.000784923
0.00049559
0.000246432
2.71135e-05
-0.000171213
-0.000355807
-0.000532409
-0.000705404
-0.000878051
-0.00105274
-0.00123126
-0.00141508
-0.00160558
-0.0018043
-0.00201315
-0.00223458
-0.00247177
-0.00272875
-0.00301051
-0.00332306
-0.00367352
-0.00407003
-0.00452172
-0.00503858
-0.00563115
-0.00631027
-0.00708658
-0.00796998
-0.00896897
-0.0100899
-0.0113361
-0.0127069
-0.0141973
-0.0157964
-0.0174872
-0.0192457
-0.0210409
-0.0228346
-0.0245815
-0.0262298
-0.027722
-0.0289956
-0.0299846
-0.0306207
-0.0308349
-0.0305592
-0.0297283
-0.0282814
-0.0261652
-0.0233359
-0.0197619
-0.0154275
-0.0103369
-0.00451865
0.00196971
0.00903618
0.0165498
0.0243375
0.0321833
0.0398331
0.047005
0.0534087
0.0587727
0.0628774
0.0655884
0.0668831
0.0668582
0.0657173
0.0637479
0.0611224
0.058211
0.00262946
0.00201869
0.00149057
0.00107035
0.000716155
0.000417989
0.000163203
-5.95151e-05
-0.000259727
-0.000445177
-0.00062191
-0.000794482
-0.000966239
-0.00113962
-0.00131647
-0.00149831
-0.00168665
-0.0018832
-0.00209012
-0.00231022
-0.0025471
-0.00280532
-0.0030905
-0.00340939
-0.0037699
-0.00418109
-0.00465305
-0.00519676
-0.00582382
-0.00654607
-0.00737513
-0.0083218
-0.00939536
-0.0106028
-0.0119478
-0.0134299
-0.0150443
-0.0167796
-0.0186186
-0.0205367
-0.0225019
-0.0244753
-0.0264105
-0.0282547
-0.0299492
-0.0314304
-0.032631
-0.0334812
-0.0339106
-0.0338492
-0.0332294
-0.0319875
-0.0300667
-0.0274186
-0.0240063
-0.0198076
-0.0148191
-0.00906037
-0.00257964
0.00454089
0.0121793
0.0201693
0.0282982
0.0363085
0.0439075
0.0507845
0.0566383
0.0612136
0.0643384
0.0659578
0.0661478
0.0651071
0.063135
0.0604161
0.0573552
0.00263223
0.00198498
0.00142842
0.000989132
0.000621671
0.00031477
5.44974e-05
-0.000171457
-0.000373376
-0.000559481
-0.000736104
-0.000907956
-0.00107845
-0.00125008
-0.0014247
-0.00160392
-0.00178936
-0.00198294
-0.00218708
-0.00240494
-0.00264059
-0.00289915
-0.00318688
-0.00351128
-0.00388111
-0.00430631
-0.00479797
-0.00536806
-0.0060292
-0.00679422
-0.0076757
-0.00868529
-0.00983297
-0.0111263
-0.0125694
-0.0141617
-0.0158987
-0.0177686
-0.0197537
-0.0218289
-0.0239614
-0.0261113
-0.0282314
-0.030268
-0.0321611
-0.0338463
-0.0352551
-0.0363165
-0.0369586
-0.0371097
-0.0367001
-0.0356638
-0.0339403
-0.0314774
-0.028233
-0.0241788
-0.0193037
-0.013619
-0.00716309
-7.87214e-06
0.00773474
0.015907
0.0243011
0.0326592
0.0406798
0.0480339
0.0543917
0.0594609
0.0630289
0.0650047
0.0654387
0.0645209
0.06256
0.0597529
0.0565413
0.00260815
0.00192364
0.00133817
0.000879675
0.000498996
0.000183523
-8.20026e-05
-0.000310919
-0.000514236
-0.000700646
-0.000876751
-0.0010474
-0.00121607
-0.00138525
-0.00155687
-0.00173258
-0.00191415
-0.00210368
-0.00230391
-0.00251836
-0.00275159
-0.00300928
-0.0032984
-0.00362719
-0.00400526
-0.00444349
-0.00495391
-0.00554952
-0.00624391
-0.0070509
-0.00798396
-0.00905555
-0.0102763
-0.0116543
-0.013194
-0.0148947
-0.0167521
-0.0187541
-0.0208824
-0.0231113
-0.0254073
-0.0277296
-0.0300303
-0.0322545
-0.0343416
-0.0362261
-0.0378384
-0.0391067
-0.0399575
-0.0403179
-0.0401162
-0.0392841
-0.0377583
-0.0354826
-0.0324105
-0.0285077
-0.0237563
-0.0181589
-0.0117442
-0.00457371
0.00325161
0.0115839
0.0202224
0.0289114
0.0373436
0.045174
0.0520454
0.0576284
0.0616673
0.0640307
0.0647386
0.0639676
0.0620335
0.0591445
0.0557815
0.00255465
0.00183205
0.00121717
0.000739346
0.000345542
2.17417e-05
-0.000248699
-0.000480173
-0.000684428
-0.000870617
-0.0010456
-0.00121435
-0.00138039
-0.00154622
-0.0017138
-0.00188486
-0.00206129
-0.00224544
-0.00244033
-0.00264992
-0.00287923
-0.00313458
-0.0034236
-0.00375535
-0.00414028
-0.0045902
-0.00511811
-0.00573798
-0.0064644
-0.00731211
-0.00829544
-0.0094276
-0.0107199
-0.0121807
-0.0138149
-0.0156214
-0.0175963
-0.019727
-0.0219948
-0.0243731
-0.026828
-0.0293178
-0.0317936
-0.0341999
-0.0364752
-0.038553
-0.0403632
-0.0418326
-0.042887
-0.0434518
-0.0434541
-0.0428233
-0.0414936
-0.0394055
-0.0365081
-0.0327619
-0.0281423
-0.0226438
-0.0162858
-0.00911881
-0.00123254
0.00723626
0.016096
0.0250955
0.0339246
0.0422253
0.0496153
0.0557282
0.0602632
0.0630446
0.0640567
0.0634577
0.0615672
0.0586038
0.0550894
0.00246907
0.00170746
0.00106266
0.000565388
0.00015861
-0.000173183
-0.000448077
-0.000681555
-0.00088611
-0.00107136
-0.0012444
-0.00141032
-0.00157267
-0.00173397
-0.00189619
-0.00206115
-0.00223092
-0.00240804
-0.0025959
-0.00279885
-0.00302246
-0.00327367
-0.00356084
-0.0038938
-0.0042839
-0.00474386
-0.00528764
-0.00593018
-0.006687
-0.00757376
-0.00860559
-0.0097964
-0.011158
-0.0126993
-0.0144253
-0.0163343
-0.0184233
-0.0206786
-0.0230813
-0.0256042
-0.0282125
-0.0308639
-0.0335087
-0.0360905
-0.0385472
-0.0408116
-0.0428126
-0.0444764
-0.0457277
-0.0464909
-0.0466916
-0.0462575
-0.0451206
-0.0432184
-0.0404962
-0.0369096
-0.0324279
-0.0270381
-0.0207504
-0.0136047
-0.0056788
0.00290249
0.0119584
0.0212448
0.0304522
0.0392125
0.0471209
0.0537755
0.0588287
0.0620571
0.0634038
0.0630031
0.0611746
0.0581453
0.0544805
0.00234866
0.00154701
0.00087171
0.000354908
-6.46283e-05
-0.00040397
-0.000682712
-0.000917463
-0.00112148
-0.00130483
-0.00147487
-0.00163676
-0.00179408
-0.00194936
-0.00210462
-0.00226176
-0.00242299
-0.00259115
-0.00276995
-0.00296422
-0.00318006
-0.00342505
-0.00370829
-0.00404044
-0.00443371
-0.00490175
-0.00545945
-0.00612271
-0.00690797
-0.00783172
-0.00890987
-0.010157
-0.0115853
-0.0132041
-0.0150188
-0.0170264
-0.0192252
-0.0216004
-0.024133
-0.0267947
-0.0295503
-0.0323567
-0.0351634
-0.0379135
-0.040544
-0.0429871
-0.0451711
-0.0470213
-0.0484618
-0.049416
-0.0498082
-0.0495647
-0.0486154
-0.0468955
-0.0443467
-0.0409206
-0.0365807
-0.0313071
-0.0251013
-0.0179928
-0.0100476
-0.00137776
0.00784831
0.0173959
0.0269591
0.0361637
0.0445855
0.051789
0.0573787
0.061081
0.0627925
0.0626173
0.0608703
0.0577849
0.0539715
0.00219053
0.0013477
0.00064127
0.000104863
-0.000327135
-0.000673453
-0.000955266
-0.00119035
-0.00139275
-0.001573
-0.00173868
-0.00189505
-0.00204571
-0.00219319
-0.00233954
-0.00248678
-0.00263732
-0.00279426
-0.0029617
-0.00314493
-0.00335061
-0.00358701
-0.00386399
-0.00419301
-0.00458718
-0.00506104
-0.00563044
-0.00631217
-0.00712356
-0.0080819
-0.00920381
-0.0105044
-0.0119965
-0.0136894
-0.0155892
-0.0176907
-0.0199948
-0.0224847
-0.0251414
-0.0279357
-0.0308318
-0.0337859
-0.0367469
-0.0396571
-0.0424531
-0.0450663
-0.0474245
-0.0494523
-0.0510732
-0.0522096
-0.052785
-0.0527244
-0.0519561
-0.0504129
-0.048034
-0.0447668
-0.0405702
-0.0354178
-0.029303
-0.0222456
-0.0142997
-0.00556417
0.00380587
0.0135874
0.023481
0.0331105
0.0420358
0.0497906
0.0559312
0.0601319
0.0622376
0.0623155
0.0606708
0.0575403
0.053581
0.00199164
0.00110634
0.000368102
-0.000187953
-0.000632022
-0.000984589
-0.0012685
-0.00150275
-0.00170219
-0.00187783
-0.0020375
-0.00218652
-0.00232853
-0.00246607
-0.00260125
-0.00273621
-0.00287356
-0.0030167
-0.00317014
-0.00333968
-0.00353254
-0.00375773
-0.00402582
-0.00434915
-0.00474168
-0.00521887
-0.00579746
-0.00649514
-0.00733007
-0.00832029
-0.00948307
-0.0108341
-0.0123864
-0.0141498
-0.0161309
-0.0183208
-0.0207252
-0.0233241
-0.0260987
-0.0290188
-0.0320481
-0.0351421
-0.0382491
-0.0413109
-0.0442634
-0.0470374
-0.0495601
-0.0517559
-0.0535473
-0.0548564
-0.0556055
-0.0557187
-0.0551231
-0.0537494
-0.0515345
-0.0484226
-0.0443683
-0.0393394
-0.0333222
-0.026327
-0.0183966
-0.0096166