/*--------------------------------*- C++ -*----------------------------------*\
  =========                 |
  \\      /  F ield         | OpenFOAM: The Open Source CFD Toolbox
   \\    /   O peration     | Website:  https://openfoam.org
    \\  /    A nd           | Version:  12
     \\/     M anipulation  |
\*---------------------------------------------------------------------------*/
FoamFile
{
    format      ascii;
    class       volVectorField;
    location    "3";
    object      U;
}
// * * * * * * * * * * * * * * * * * * * * * * * * * * * * * * * * * * * * * //

dimensions      [0 1 -1 0 0 0 0];

internalField   nonuniform List<vector> 
5625
(
(7.57482e-06 -3.53453e-06 0)
(4.61762e-05 -5.87774e-06 0)
(9.08672e-05 -5.31321e-06 0)
(0.000121333 -3.30353e-06 0)
(0.000127565 -1.00104e-06 0)
(0.000107546 1.24682e-06 0)
(6.23624e-05 3.24109e-06 0)
(-5.36006e-06 4.91758e-06 0)
(-9.24546e-05 6.27773e-06 0)
(-0.000195792 7.35768e-06 0)
(-0.000312607 8.20874e-06 0)
(-0.00044067 8.88828e-06 0)
(-0.000578356 9.45304e-06 0)
(-0.000724649 9.95547e-06 0)
(-0.000879104 1.0442e-05 0)
(-0.00104179 1.09523e-05 0)
(-0.00121322 1.15196e-05 0)
(-0.00139429 1.21713e-05 0)
(-0.00158623 1.29303e-05 0)
(-0.00179052 1.38152e-05 0)
(-0.00200889 1.48421e-05 0)
(-0.00224327 1.60253e-05 0)
(-0.00249572 1.73775e-05 0)
(-0.0027685 1.89109e-05 0)
(-0.00306398 2.06372e-05 0)
(-0.00338465 2.25675e-05 0)
(-0.00373308 2.47123e-05 0)
(-0.00411195 2.70811e-05 0)
(-0.00452396 2.96816e-05 0)
(-0.00497181 3.25195e-05 0)
(-0.00545817 3.55966e-05 0)
(-0.0059856 3.89106e-05 0)
(-0.00655644 4.2453e-05 0)
(-0.00717276 4.62078e-05 0)
(-0.00783624 5.01496e-05 0)
(-0.00854797 5.42419e-05 0)
(-0.00930838 5.84348e-05 0)
(-0.010117 6.26626e-05 0)
(-0.0109723 6.68421e-05 0)
(-0.0118714 7.087e-05 0)
(-0.0128099 7.46215e-05 0)
(-0.0137818 7.79486e-05 0)
(-0.014779 8.06796e-05 0)
(-0.0157912 8.26192e-05 0)
(-0.0168058 8.35509e-05 0)
(-0.0178076 8.32398e-05 0)
(-0.0187789 8.14396e-05 0)
(-0.0196995 7.78998e-05 0)
(-0.0205468 7.23797e-05 0)
(-0.0212962 6.4695e-05 0)
(-0.0219205 5.44302e-05 0)
(-0.022394 4.18008e-05 0)
(-0.0226865 2.69101e-05 0)
(-0.0227786 9.06839e-06 0)
(-0.0226413 -1.0537e-05 0)
(-0.0222576 -3.20302e-05 0)
(-0.0216147 -5.47415e-05 0)
(-0.0207075 -7.78775e-05 0)
(-0.0195405 -0.000100501 0)
(-0.0181289 -0.000121541 0)
(-0.0164996 -0.000139852 0)
(-0.0146916 -0.000154299 0)
(-0.0127546 -0.000163854 0)
(-0.0107478 -0.000167703 0)
(-0.00873715 -0.000165346 0)
(-0.00679158 -0.000156667 0)
(-0.00497899 -0.000141971 0)
(-0.00336196 -0.000121959 0)
(-0.00199382 -9.76607e-05 0)
(-0.000915246 -7.03272e-05 0)
(-0.00015154 -4.13676e-05 0)
(0.000289896 -1.24867e-05 0)
(0.000424026 1.45751e-05 0)
(0.000312806 3.38958e-05 0)
(8.19699e-05 3.71714e-05 0)
(1.79836e-05 -2.50856e-05 0)
(0.000107436 -4.36069e-05 0)
(0.000200154 -3.7189e-05 0)
(0.00025309 -1.68655e-05 0)
(0.000242506 8.65158e-06 0)
(0.000162005 3.4769e-05 0)
(1.31712e-05 5.90761e-05 0)
(-0.000198073 8.05074e-05 0)
(-0.000464035 9.8787e-05 0)
(-0.000776803 0.000114098 0)
(-0.00112923 0.000126886 0)
(-0.00151546 0.000137721 0)
(-0.00193116 0.000147216 0)
(-0.00237361 0.000155967 0)
(-0.00284161 0.000164527 0)
(-0.00333536 0.000173387 0)
(-0.00385632 0.000182972 0)
(-0.004407 0.000193642 0)
(-0.00499085 0.000205704 0)
(-0.00561209 0.000219414 0)
(-0.00627559 0.000234992 0)
(-0.00698678 0.000252626 0)
(-0.00775158 0.00027248 0)
(-0.00857632 0.000294699 0)
(-0.0094677 0.000319411 0)
(-0.0104327 0.000346721 0)
(-0.0114784 0.000376717 0)
(-0.0126124 0.000409453 0)
(-0.0138418 0.00044495 0)
(-0.015174 0.00048318 0)
(-0.0166161 0.000524055 0)
(-0.0181746 0.000567409 0)
(-0.0198554 0.000612987 0)
(-0.0216633 0.000660421 0)
(-0.0236019 0.000709212 0)
(-0.025673 0.000758708 0)
(-0.0278763 0.000808088 0)
(-0.0302086 0.000856337 0)
(-0.0326637 0.000902231 0)
(-0.0352316 0.000944324 0)
(-0.0378979 0.000980939 0)
(-0.0406431 0.00101017 0)
(-0.0434426 0.00102989 0)
(-0.0462654 0.00103777 0)
(-0.0490744 0.00103134 0)
(-0.0518259 0.00100803 0)
(-0.0544696 0.000965274 0)
(-0.0569489 0.000900611 0)
(-0.0592015 0.000811829 0)
(-0.0611606 0.000697101 0)
(-0.0627545 0.000554817 0)
(-0.0639171 0.000383985 0)
(-0.0645624 0.000189194 0)
(-0.064651 -3.0545e-05 0)
(-0.0641068 -0.000273161 0)
(-0.0628905 -0.000530938 0)
(-0.0609733 -0.000797407 0)
(-0.0583481 -0.00106385 0)
(-0.0550323 -0.00132002 0)
(-0.0510714 -0.00155453 0)
(-0.0465403 -0.00175554 0)
(-0.0415439 -0.0019115 0)
(-0.0362146 -0.00201212 0)
(-0.0307082 -0.00204933 0)
(-0.0251968 -0.00201825 0)
(-0.0198603 -0.00191783 0)
(-0.0148757 -0.00175128 0)
(-0.0104069 -0.00152598 0)
(-0.00659389 -0.00125306 0)
(-0.00354348 -0.00094677 0)
(-0.00132129 -0.000624208 0)
(5.67235e-05 -0.00030652 0)
(0.000636637 -2.31265e-05 0)
(0.000573335 0.000172557 0)
(0.000150366 0.000182277 0)
(2.41356e-05 -5.9882e-05 0)
(0.000140271 -9.75108e-05 0)
(0.000247689 -7.67814e-05 0)
(0.000290576 -2.31744e-05 0)
(0.000236392 4.41495e-05 0)
(7.51284e-05 0.000113848 0)
(-0.000191837 0.00017961 0)
(-0.000556539 0.000238419 0)
(-0.00100806 0.000289311 0)
(-0.00153489 0.000332593 0)
(-0.00212648 0.000369312 0)
(-0.00277407 0.0004009 0)
(-0.00347115 0.00042894 0)
(-0.0042136 0.000455007 0)
(-0.00499964 0.000480578 0)
(-0.00582965 0.000506984 0)
(-0.00670596 0.000535388 0)
(-0.00763258 0.00056679 0)
(-0.00861498 0.000602037 0)
(-0.00965989 0.00064185 0)
(-0.0107751 0.000686837 0)
(-0.0119691 0.000737522 0)
(-0.0132516 0.000794354 0)
(-0.0146323 0.000857719 0)
(-0.0161221 0.000927942 0)
(-0.0177317 0.00100529 0)
(-0.0194726 0.00108994 0)
(-0.021356 0.001182 0)
(-0.0233934 0.00128144 0)
(-0.0255958 0.0013881 0)
(-0.0279737 0.00150164 0)
(-0.0305366 0.00162147 0)
(-0.0332929 0.00174676 0)
(-0.0362489 0.00187635 0)
(-0.0394087 0.00200872 0)
(-0.0427735 0.00214191 0)
(-0.0463405 0.0022735 0)
(-0.0501026 0.00240055 0)
(-0.0540476 0.00251957 0)
(-0.0581567 0.00262648 0)
(-0.0624044 0.00271661 0)
(-0.0667575 0.00278473 0)
(-0.0711739 0.00282506 0)
(-0.0756025 0.00283142 0)
(-0.0799827 0.00279729 0)
(-0.084244 0.00271603 0)
(-0.0883066 0.00258113 0)
(-0.0920816 0.00238651 0)
(-0.0954726 0.00212689 0)
(-0.0983771 0.0017982 0)
(-0.100688 0.00139767 0)
(-0.102306 0.000921916 0)
(-0.103106 0.000387273 0)
(-0.103028 -0.00021519 0)
(-0.101968 -0.000869479 0)
(-0.0998725 -0.00156097 0)
(-0.096705 -0.00227078 0)
(-0.0924619 -0.00297599 0)
(-0.0871766 -0.00365004 0)
(-0.0809229 -0.00426382 0)
(-0.0738179 -0.00478721 0)
(-0.0660213 -0.00519108 0)
(-0.0577327 -0.00544957 0)
(-0.0491847 -0.00554248 0)
(-0.0406338 -0.00545756 0)
(-0.0323475 -0.00519221 0)
(-0.0245896 -0.00475457 0)
(-0.0176048 -0.00416349 0)
(-0.0116029 -0.00344777 0)
(-0.00674478 -0.00264495 0)
(-0.00312864 -0.00180088 0)
(-0.00077651 -0.00097244 0)
(0.000383565 -0.000237089 0)
(0.000571526 0.000281503 0)
(0.00016611 0.000363162 0)
(2.67823e-05 -0.000101979 0)
(0.000148782 -0.000156716 0)
(0.00024397 -0.000111551 0)
(0.000249411 -9.97707e-06 0)
(0.000127428 0.00011648 0)
(-0.000134335 0.000247971 0)
(-0.000534684 0.000373019 0)
(-0.00106423 0.000485852 0)
(-0.0017097 0.00058445 0)
(-0.00245687 0.000669174 0)
(-0.00329255 0.000741824 0)
(-0.00420571 0.000804976 0)
(-0.00518811 0.000861534 0)
(-0.00623457 0.000914433 0)
(-0.0073429 0.000966453 0)
(-0.00851373 0.00102012 0)
(-0.00975024 0.00107765 0)
(-0.0110578 0.00114098 0)
(-0.0124439 0.00121173 0)
(-0.0139173 0.00129131 0)
(-0.0154887 0.00138089 0)
(-0.0171694 0.00148147 0)
(-0.0189722 0.00159392 0)
(-0.0209104 0.00171895 0)
(-0.0229981 0.00185714 0)
(-0.0252497 0.00200896 0)
(-0.0276802 0.00217469 0)
(-0.0303043 0.00235442 0)
(-0.0331366 0.002548 0)
(-0.0361913 0.00275497 0)
(-0.0394813 0.00297451 0)
(-0.0430184 0.00320534 0)
(-0.046812 0.00344564 0)
(-0.050869 0.00369298 0)
(-0.0551929 0.00394418 0)
(-0.0597826 0.00419527 0)
(-0.064632 0.00444136 0)
(-0.0697286 0.0046766 0)
(-0.0750527 0.00489408 0)
(-0.0805761 0.00508584 0)
(-0.0862614 0.00524287 0)
(-0.0920606 0.00535515 0)
(-0.0979148 0.00541178 0)
(-0.103753 0.00540115 0)
(-0.109493 0.00531124 0)
(-0.115039 0.00512997 0)
(-0.120285 0.00484569 0)
(-0.125114 0.00444773 0)
(-0.129402 0.00392716 0)
(-0.133016 0.00327748 0)
(-0.135821 0.00249534 0)
(-0.13769 0.00157936 0)
(-0.138487 0.000545074 0)
(-0.138109 -0.000600142 0)
(-0.136455 -0.00183893 0)
(-0.133458 -0.0031407 0)
(-0.129081 -0.00447012 0)
(-0.123329 -0.00578479 0)
(-0.11625 -0.00703612 0)
(-0.107945 -0.00817127 0)
(-0.0985664 -0.00913593 0)
(-0.0883181 -0.00987774 0)
(-0.0774527 -0.0103503 0)
(-0.0662636 -0.0105174 0)
(-0.0550726 -0.0103569 0)
(-0.044216 -0.00986417 0)
(-0.0340258 -0.0090536 0)
(-0.0248114 -0.00795934 0)
(-0.0168394 -0.00663404 0)
(-0.0103151 -0.00514723 0)
(-0.0053646 -0.00358475 0)
(-0.00201682 -0.00205291 0)
(-0.000182448 -0.000692937 0)
(0.000398222 0.00028591 0)
(0.000153747 0.000529148 0)
(2.69508e-05 -0.000144273 0)
(0.000137396 -0.000209002 0)
(0.000197824 -0.000127933 0)
(0.000142141 3.5413e-05 0)
(-6.95973e-05 0.00023616 0)
(-0.000450755 0.000445056 0)
(-0.00099993 0.000644698 0)
(-0.00170653 0.000826034 0)
(-0.00255544 0.0009857 0)
(-0.00353034 0.00112405 0)
(-0.00461598 0.00124372 0)
(-0.00579958 0.00134864 0)
(-0.00707161 0.00144331 0)
(-0.00842609 0.00153232 0)
(-0.00986061 0.00162006 0)
(-0.0113761 0.00171054 0)
(-0.0129766 0.00180731 0)
(-0.0146689 0.00191347 0)
(-0.0164621 0.00203165 0)
(-0.0183672 0.0021641 0)
(-0.020397 0.00231271 0)
(-0.0225659 0.00247911 0)
(-0.0248893 0.00266464 0)
(-0.0273835 0.00287043 0)
(-0.0300657 0.00309735 0)
(-0.0329535 0.00334606 0)
(-0.0360647 0.0036169 0)
(-0.0394169 0.00390987 0)
(-0.0430274 0.00422456 0)
(-0.0469125 0.00456004 0)
(-0.0510871 0.00491472 0)
(-0.0555638 0.00528629 0)
(-0.0603525 0.00567154 0)
(-0.0654595 0.0060662 0)
(-0.0708863 0.00646486 0)
(-0.0766287 0.00686077 0)
(-0.082676 0.00724576 0)
(-0.0890093 0.00761012 0)
(-0.0956003 0.00794251 0)
(-0.102411 0.00822998 0)
(-0.109391 0.008458 0)
(-0.116477 0.00861059 0)
(-0.123596 0.00867052 0)
(-0.130655 0.00861967 0)
(-0.137554 0.00843949 0)
(-0.144173 0.00811159 0)
(-0.150385 0.00761855 0)
(-0.15605 0.0069448 0)
(-0.161017 0.00607769 0)
(-0.165133 0.00500868 0)
(-0.168243 0.00373453 0)
(-0.170198 0.00225736 0)
(-0.170853 0.000596756 0)
(-0.170083 -0.00123005 0)
(-0.167786 -0.00319318 0)
(-0.163891 -0.00524607 0)
(-0.158366 -0.00733346 0)
(-0.151223 -0.00938967 0)
(-0.142528 -0.0113401 0)
(-0.132402 -0.0131044 0)
(-0.121026 -0.0145999 0)
(-0.10864 -0.0157474 0)
(-0.0955363 -0.0164766 0)
(-0.082055 -0.0167326 0)
(-0.0685682 -0.0164816 0)
(-0.0554652 -0.0157158 0)
(-0.0431323 -0.0144568 0)
(-0.0319304 -0.0127565 0)
(-0.0221731 -0.0106955 0)
(-0.0141035 -0.00838167 0)
(-0.00787321 -0.00594917 0)
(-0.00352081 -0.0035635 0)
(-0.000949116 -0.00143927 0)
(0.000118935 0.000121642 0)
(0.000128034 0.000634624 0)
(2.5334e-05 -0.000181582 0)
(0.000110054 -0.000244808 0)
(0.000116588 -0.000114895 0)
(-2.0991e-05 0.000123935 0)
(-0.000342457 0.00041303 0)
(-0.000860918 0.000713369 0)
(-0.00157418 0.00100123 0)
(-0.00247039 0.001264 0)
(-0.00353284 0.00149679 0)
(-0.00474352 0.00169991 0)
(-0.00608559 0.00187694 0)
(-0.00754492 0.0020333 0)
(-0.009111 0.00217531 0)
(-0.0107773 0.00230946 0)
(-0.0125414 0.00244202 0)
(-0.0144047 0.00257871 0)
(-0.016372 0.00272465 0)
(-0.0184513 0.00288431 0)
(-0.0206534 0.00306151 0)
(-0.0229913 0.00325951 0)
(-0.0254799 0.00348104 0)
(-0.028136 0.00372843 0)
(-0.0309776 0.0040036 0)
(-0.0340236 0.00430811 0)
(-0.0372938 0.00464315 0)
(-0.0408085 0.00500953 0)
(-0.0445878 0.00540758 0)
(-0.0486519 0.0058371 0)
(-0.0530198 0.00629725 0)
(-0.0577094 0.00678636 0)
(-0.0627364 0.00730182 0)
(-0.0681139 0.00783989 0)
(-0.073851 0.00839548 0)
(-0.0799523 0.008962 0)
(-0.0864167 0.00953113 0)
(-0.0932357 0.0100926 0)
(-0.100393 0.0106343 0)
(-0.107862 0.0111416 0)
(-0.115606 0.0115979 0)
(-0.123576 0.0119842 0)
(-0.131708 0.0122796 0)
(-0.139927 0.0124611 0)
(-0.14814 0.0125044 0)
(-0.156241 0.012384 0)
(-0.164108 0.0120741 0)
(-0.171605 0.0115498 0)
(-0.178584 0.0107877 0)
(-0.184885 0.00976732 0)
(-0.190341 0.00847283 0)
(-0.194783 0.00689442 0)
(-0.198038 0.00503012 0)
(-0.199947 0.00288696 0)
(-0.200357 0.000489678 0)
(-0.199134 -0.00213244 0)
(-0.196177 -0.00493422 0)
(-0.191414 -0.00785131 0)
(-0.18482 -0.0108061 0)
(-0.176416 -0.0137072 0)
(-0.166281 -0.0164515 0)
(-0.154554 -0.0189283 0)
(-0.141438 -0.0210244 0)
(-0.127197 -0.0226312 0)
(-0.112155 -0.0236521 0)
(-0.0966845 -0.0240112 0)
(-0.0811971 -0.0236614 0)
(-0.0661227 -0.0225912 0)
(-0.0518901 -0.0208291 0)
(-0.038903 -0.0184456 0)
(-0.0275144 -0.0155525 0)
(-0.0180014 -0.0123004 0)
(-0.0105404 -0.00887756 0)
(-0.00518355 -0.00551545 0)
(-0.00183547 -0.0025076 0)
(-0.000220333 -0.000249794 0)
(9.64896e-05 0.000655885 0)
(2.24386e-05 -0.000210102 0)
(7.00069e-05 -0.000256483 0)
(6.29754e-06 -6.31828e-05 0)
(-0.000231508 0.000265188 0)
(-0.00068089 0.00065621 0)
(-0.0013535 0.00106106 0)
(-0.00224567 0.0014496 0)
(-0.00334404 0.00180554 0)
(-0.00463039 0.00212245 0)
(-0.00608525 0.0024006 0)
(-0.00769049 0.00264459 0)
(-0.00943094 0.00286151 0)
(-0.0112954 0.00305967 0)
(-0.0132771 0.00324769 0)
(-0.0153736 0.00343389 0)
(-0.0175868 0.00362596 0)
(-0.0199225 0.00383077 0)
(-0.0223897 0.00405432 0)
(-0.0250009 0.00430178 0)
(-0.0277707 0.00457753 0)
(-0.0307162 0.00488529 0)
(-0.0338561 0.00522814 0)
(-0.0372107 0.00560862 0)
(-0.0408013 0.00602876 0)
(-0.0446498 0.00649002 0)
(-0.0487786 0.00699332 0)
(-0.0532101 0.00753888 0)
(-0.0579657 0.00812615 0)
(-0.0630661 0.00875363 0)
(-0.0685298 0.00941869 0)
(-0.0743728 0.0101173 0)
(-0.0806074 0.010844 0)
(-0.0872415 0.0115912 0)
(-0.094277 0.0123495 0)
(-0.101709 0.013107 0)
(-0.109524 0.0138494 0)
(-0.1177 0.0145595 0)
(-0.126201 0.0152173 0)
(-0.134982 0.0157999 0)
(-0.143982 0.0162818 0)
(-0.153127 0.0166344 0)
(-0.162325 0.0168274 0)
(-0.171471 0.0168286 0)
(-0.180441 0.0166047 0)
(-0.189099 0.0161226 0)
(-0.197292 0.0153507 0)
(-0.204857 0.0142596 0)
(-0.21162 0.0128248 0)
(-0.2174 0.0110279 0)
(-0.222017 0.00885868 0)
(-0.225292 0.0063178 0)
(-0.227055 0.00341819 0)
(-0.227151 0.000191578 0)
(-0.225446 -0.00331925 0)
(-0.221838 -0.00705236 0)
(-0.216262 -0.010924 0)
(-0.208696 -0.0148327 0)
(-0.19917 -0.01866 0)
(-0.187774 -0.0222727 0)
(-0.174657 -0.0255285 0)
(-0.160038 -0.0282818 0)
(-0.144198 -0.0303929 0)
(-0.127482 -0.0317372 0)
(-0.110286 -0.032216 0)
(-0.0930498 -0.0317671 0)
(-0.076235 -0.0303736 0)
(-0.0603049 -0.0280703 0)
(-0.0456992 -0.024947 0)
(-0.0328058 -0.021148 0)
(-0.0219336 -0.0168694 0)
(-0.0132848 -0.0123579 0)
(-0.00692978 -0.00791515 0)
(-0.00278411 -0.00391643 0)
(-0.000588073 -0.000849235 0)
(6.3469e-05 0.000582424 0)
(1.86462e-05 -0.000226876 0)
(1.98305e-05 -0.000237648 0)
(-0.000128138 3.52458e-05 0)
(-0.0004824 0.000467774 0)
(-0.00107626 0.000974113 0)
(-0.00191876 0.00149586 0)
(-0.00300402 0.00199661 0)
(-0.00431685 0.00245646 0)
(-0.00583743 0.00286748 0)
(-0.00754492 0.00323003 0)
(-0.00942009 0.00354983 0)
(-0.011447 0.00383579 0)
(-0.0136139 0.0040984 0)
(-0.015914 0.00434857 0)
(-0.018345 0.00459687 0)
(-0.0209093 0.00485312 0)
(-0.0236137 0.0051261 0)
(-0.0264683 0.00542351 0)
(-0.0294869 0.00575197 0)
(-0.0326859 0.00611713 0)
(-0.036084 0.00652372 0)
(-0.0397018 0.00697566 0)
(-0.0435615 0.00747613 0)
(-0.0476863 0.00802759 0)
(-0.0521001 0.00863177 0)
(-0.0568269 0.00928959 0)
(-0.0618904 0.010001 0)
(-0.0673133 0.010765 0)
(-0.0731169 0.0115792 0)
(-0.0793199 0.0124396 0)
(-0.0859377 0.0133405 0)
(-0.0929812 0.0142741 0)
(-0.100456 0.0152301 0)
(-0.108361 0.0161956 0)
(-0.116687 0.0171546 0)
(-0.125414 0.0180878 0)
(-0.134512 0.0189725 0)
(-0.14394 0.0197826 0)
(-0.153641 0.0204882 0)
(-0.163543 0.0210563 0)
(-0.17356 0.0214507 0)
(-0.18359 0.0216327 0)
(-0.193511 0.0215621 0)
(-0.203188 0.0211979 0)
(-0.212471 0.0204996 0)
(-0.221196 0.0194289 0)
(-0.229186 0.0179515 0)
(-0.236258 0.0160392 0)
(-0.242224 0.013672 0)
(-0.246897 0.0108406 0)
(-0.250093 0.00754918 0)
(-0.251641 0.00381757 0)
(-0.251387 -0.00031383 0)
(-0.249199 -0.00478798 0)
(-0.244978 -0.00952538 0)
(-0.238663 -0.0144219 0)
(-0.230237 -0.0193518 0)
(-0.219736 -0.0241685 0)
(-0.207255 -0.0287086 0)
(-0.192952 -0.0327972 0)
(-0.177051 -0.0362555 0)
(-0.159844 -0.0389114 0)
(-0.141688 -0.0406106 0)
(-0.122995 -0.0412298 0)
(-0.104224 -0.0406897 0)
(-0.0858618 -0.0389661 0)
(-0.0684007 -0.0360989 0)
(-0.0523116 -0.0321964 0)
(-0.0380152 -0.0274357 0)
(-0.0258518 -0.0220606 0)
(-0.0160513 -0.0163785 0)
(-0.0087079 -0.0107641 0)
(-0.0037561 -0.00567496 0)
(-0.000963656 -0.00168639 0)
(3.15967e-05 0.000410745 0)
(1.42288e-05 -0.000229556 0)
(-3.84819e-05 -0.000182923 0)
(-0.000282769 0.000187446 0)
(-0.000767894 0.000739441 0)
(-0.00152128 0.00137448 0)
(-0.0025483 0.00202504 0)
(-0.00384012 0.00264875 0)
(-0.00537924 0.00322234 0)
(-0.00714408 0.00373656 0)
(-0.00911245 0.00419199 0)
(-0.0112641 0.00459566 0)
(-0.0135825 0.00495846 0)
(-0.0160555 0.00529319 0)
(-0.0186764 0.00561323 0)
(-0.0214431 0.00593157 0)
(-0.0243587 0.0062603 0)
(-0.0274308 0.00661025 0)
(-0.0306706 0.00699093 0)
(-0.0340932 0.00741054 0)
(-0.0377164 0.00787602 0)
(-0.0415605 0.00839321 0)
(-0.0456477 0.00896688 0)
(-0.0500018 0.00960085 0)
(-0.0546475 0.010298 0)
(-0.0596101 0.0110603 0)
(-0.064915 0.0118884 0)
(-0.0705867 0.012782 0)
(-0.0766486 0.0137394 0)
(-0.0831219 0.0147568 0)
(-0.0900249 0.0158289 0)
(-0.0973717 0.0169479 0)
(-0.105171 0.018103 0)
(-0.113426 0.0192809 0)
(-0.122131 0.0204645 0)
(-0.131272 0.0216331 0)
(-0.140823 0.022762 0)
(-0.150747 0.0238224 0)
(-0.160992 0.0247812 0)
(-0.171494 0.0256012 0)
(-0.182171 0.0262413 0)
(-0.192926 0.0266574 0)
(-0.203642 0.0268023 0)
(-0.21419 0.0266277 0)
(-0.224423 0.0260847 0)
(-0.234179 0.0251261 0)
(-0.243286 0.0237077 0)
(-0.25156 0.0217906 0)
(-0.258812 0.019344 0)
(-0.26485 0.0163474 0)
(-0.269485 0.0127933 0)
(-0.272534 0.00869042 0)
(-0.273829 0.00406636 0)
(-0.273216 -0.00102869 0)
(-0.27057 -0.00652321 0)
(-0.265794 -0.01232 0)
(-0.258832 -0.0182942 0)
(-0.249671 -0.0242959 0)
(-0.238348 -0.0301509 0)
(-0.224959 -0.0356653 0)
(-0.209664 -0.0406316 0)
(-0.192687 -0.0448374 0)
(-0.174324 -0.0480769 0)
(-0.154935 -0.0501646 0)
(-0.134942 -0.0509508 0)
(-0.114819 -0.0503364 0)
(-0.0950703 -0.0482877 0)
(-0.0762139 -0.0448475 0)
(-0.0587498 -0.040141 0)
(-0.0431307 -0.0343783 0)
(-0.0297291 -0.0278509 0)
(-0.0188064 -0.0209288 0)
(-0.0104853 -0.0140605 0)
(-0.00472677 -0.00778604 0)
(-0.00133463 -0.00276378 0)
(2.29766e-06 0.000141501 0)
(9.36726e-06 -0.000216268 0)
(-0.000103413 -8.77438e-05 0)
(-0.000454448 0.000399612 0)
(-0.00108325 0.00108716 0)
(-0.00200985 0.00186441 0)
(-0.00323491 0.00265538 0)
(-0.00474589 0.00341218 0)
(-0.00652253 0.00410853 0)
(-0.00854123 0.00473417 0)
(-0.0107783 0.00529011 0)
(-0.0132127 0.00578489 0)
(-0.0158271 0.00623154 0)
(-0.0186093 0.00664537 0)
(-0.0215525 0.00704236 0)
(-0.0246552 0.00743808 0)
(-0.0279211 0.00784697 0)
(-0.0313585 0.00828206 0)
(-0.0349798 0.00875475 0)
(-0.0388011 0.00927487 0)
(-0.0428415 0.00985076 0)
(-0.0471226 0.0104893 0)
(-0.051668 0.0111963 0)
(-0.0565028 0.011976 0)
(-0.0616529 0.0128318 0)
(-0.0671447 0.0137655 0)
(-0.0730041 0.0147778 0)
(-0.0792564 0.0158678 0)
(-0.0859248 0.0170326 0)
(-0.0930301 0.0182673 0)
(-0.100589 0.0195644 0)
(-0.108615 0.0209136 0)
(-0.117113 0.0223012 0)
(-0.126083 0.02371 0)
(-0.135515 0.0251182 0)
(-0.145388 0.0265001 0)
(-0.155672 0.0278249 0)
(-0.16632 0.0290571 0)
(-0.177275 0.0301563 0)
(-0.18846 0.0310775 0)
(-0.199786 0.0317715 0)
(-0.211144 0.0321856 0)
(-0.22241 0.0322646 0)
(-0.233445 0.0319522 0)
(-0.244092 0.0311922 0)
(-0.254183 0.0299309 0)
(-0.263541 0.0281191 0)
(-0.271977 0.0257145 0)
(-0.279302 0.0226844 0)
(-0.285323 0.0190088 0)
(-0.289853 0.0146831 0)
(-0.292713 0.00972132 0)
(-0.293739 0.00415919 0)
(-0.292784 -0.00194266 0)
(-0.289726 -0.00849845 0)
(-0.284473 -0.0153936 0)
(-0.276971 -0.0224834 0)
(-0.267207 -0.0295939 0)
(-0.255217 -0.0365245 0)
(-0.241095 -0.0430513 0)
(-0.224993 -0.0489344 0)
(-0.207134 -0.0539274 0)
(-0.187806 -0.0577901 0)
(-0.167369 -0.0603043 0)
(-0.14625 -0.0612908 0)
(-0.12493 -0.0606286 0)
(-0.10393 -0.0582713 0)
(-0.0837887 -0.0542614 0)
(-0.0650355 -0.0487394 0)
(-0.0481554 -0.0419466 0)
(-0.0335558 -0.0342224 0)
(-0.021533 -0.0259994 0)
(-0.0122439 -0.0178012 0)
(-0.00568237 -0.0102486 0)
(-0.00169448 -0.00407958 0)
(-2.3859e-05 -0.000222275 0)
(4.18578e-06 -0.000185501 0)
(-0.000173816 5.17797e-05 0)
(-0.000640675 0.000677193 0)
(-0.00142456 0.00151719 0)
(-0.0025368 0.00245041 0)
(-0.00397234 0.00339315 0)
(-0.0057142 0.00429265 0)
(-0.00773887 0.00512009 0)
(-0.0100204 0.00586454 0)
(-0.0125336 0.00652778 0)
(-0.0152562 0.00712006 0)
(-0.0181705 0.00765679 0)
(-0.0212642 0.00815593 0)
(-0.0245306 0.00863623 0)
(-0.0279686 0.00911592 0)
(-0.0315825 0.00961195 0)
(-0.0353814 0.0101396 0)
(-0.0393786 0.0107122 0)
(-0.0435914 0.0113414 0)
(-0.0480398 0.0120368 0)
(-0.0527466 0.0128065 0)
(-0.0577364 0.013657 0)
(-0.0630354 0.0145933 0)
(-0.0686703 0.0156189 0)
(-0.074668 0.0167358 0)
(-0.081055 0.0179442 0)
(-0.0878563 0.0192423 0)
(-0.0950948 0.0206262 0)
(-0.10279 0.022089 0)
(-0.110958 0.0236213 0)
(-0.119608 0.0252097 0)
(-0.128743 0.026837 0)
(-0.138359 0.0284816 0)
(-0.14844 0.030117 0)
(-0.158961 0.0317114 0)
(-0.169884 0.0332279 0)
(-0.181155 0.0346237 0)
(-0.192709 0.0358509 0)
(-0.20446 0.0368564 0)
(-0.216311 0.0375828 0)
(-0.228146 0.0379691 0)
(-0.239831 0.0379521 0)
(-0.25122 0.0374679 0)
(-0.262152 0.0364537 0)
(-0.272456 0.0348504 0)
(-0.281949 0.0326044 0)
(-0.290446 0.029671 0)
(-0.297757 0.0260167 0)
(-0.303694 0.021623 0)
(-0.308074 0.0164887 0)
(-0.310727 0.0106338 0)
(-0.311492 0.00410225 0)
(-0.31023 -0.00303492 0)
(-0.306823 -0.0106783 0)
(-0.301184 -0.0186969 0)
(-0.293259 -0.026927 0)
(-0.28303 -0.0351725 0)
(-0.270531 -0.0432069 0)
(-0.255845 -0.0507778 0)
(-0.239116 -0.0576134 0)
(-0.220554 -0.0634331 0)
(-0.200438 -0.0679613 0)
(-0.179122 -0.070945 0)
(-0.15703 -0.0721735 0)
(-0.134647 -0.0714998 0)
(-0.112508 -0.0688613 0)
(-0.0911729 -0.064297 0)
(-0.0711981 -0.0579592 0)
(-0.0531035 -0.0501187 0)
(-0.0373345 -0.0411618 0)
(-0.0242269 -0.0315837 0)
(-0.013977 -0.0219826 0)
(-0.00661732 -0.01306 0)
(-0.00204078 -0.0056296 0)
(-4.68822e-05 -0.000676504 0)
(-1.2362e-06 -0.000135998 0)
(-0.00024883 0.000238997 0)
(-0.000839471 0.00102501 0)
(-0.00178866 0.00203518 0)
(-0.00309778 0.0031384 0)
(-0.00475518 0.00424416 0)
(-0.00673873 0.00529552 0)
(-0.00902113 0.00626171 0)
(-0.0115738 0.00713159 0)
(-0.0143697 0.00790806 0)
(-0.0173855 0.0086034 0)
(-0.020603 0.00923558 0)
(-0.0240096 0.00982543 0)
(-0.0275989 0.0103946 0)
(-0.0313703 0.010964 0)
(-0.0353286 0.0115534 0)
(-0.0394836 0.0121801 0)
(-0.0438496 0.0128597 0)
(-0.0484446 0.0136054 0)
(-0.0532896 0.0144284 0)
(-0.0584083 0.0153377 0)
(-0.0638262 0.0163407 0)
(-0.0695699 0.0174429 0)
(-0.0756668 0.018648 0)
(-0.0821441 0.0199578 0)
(-0.089028 0.021372 0)
(-0.0963432 0.0228877 0)
(-0.104112 0.0244995 0)
(-0.112351 0.0261987 0)
(-0.121076 0.0279731 0)
(-0.130291 0.0298061 0)
(-0.139999 0.0316766 0)
(-0.150188 0.0335583 0)
(-0.160838 0.0354193 0)
(-0.171919 0.0372217 0)
(-0.183385 0.0389216 0)
(-0.195177 0.0404692 0)
(-0.20722 0.0418085 0)
(-0.219423 0.0428785 0)
(-0.23168 0.0436136 0)
(-0.243867 0.0439448 0)
(-0.255849 0.0438013 0)
(-0.267471 0.0431125 0)
(-0.278573 0.0418097 0)
(-0.288979 0.039829 0)
(-0.29851 0.0371139 0)
(-0.306983 0.0336179 0)
(-0.314213 0.029308 0)
(-0.320019 0.0241676 0)
(-0.324226 0.0181997 0)
(-0.32667 0.0114302 0)
(-0.3272 0.00391117 0)
(-0.325682 -0.00427639 0)
(-0.322005 -0.0130205 0)
(-0.31608 -0.0221755 0)
(-0.307853 -0.03156 0)
(-0.297302 -0.0409572 0)
(-0.284449 -0.0501171 0)
(-0.269365 -0.0587594 0)
(-0.252179 -0.0665813 0)
(-0.233084 -0.0732682 0)
(-0.212345 -0.0785081 0)
(-0.190303 -0.082011 0)
(-0.167375 -0.0835314 0)
(-0.144049 -0.0828927 0)
(-0.120868 -0.0800115 0)
(-0.0984136 -0.074919 0)
(-0.0772706 -0.0677757 0)
(-0.0579958 -0.058879 0)
(-0.0410766 -0.0486603 0)
(-0.0268928 -0.0376772 0)
(-0.0156857 -0.0266023 0)
(-0.00753176 -0.0162168 0)
(-0.00237392 -0.00740903 0)
(-6.71413e-05 -0.00121703 0)
(-6.85002e-06 -6.66974e-05 0)
(-0.000327812 0.000476828 0)
(-0.00104927 0.00144733 0)
(-0.0021729 0.0026462 0)
(-0.00368909 0.00393378 0)
(-0.00557874 0.00521371 0)
(-0.00781385 0.0064257 0)
(-0.0103628 0.00753768 0)
(-0.0131941 0.00853886 0)
(-0.0162785 0.00943367 0)
(-0.0195917 0.0102367 0)
(-0.0231147 0.0109689 0)
(-0.0268348 0.0116539 0)
(-0.0307458 0.0123166 0)
(-0.0348474 0.0129807 0)
(-0.039145 0.0136686 0)
(-0.0436493 0.0144001 0)
(-0.0483751 0.0151927 0)
(-0.0533411 0.0160614 0)
(-0.0585692 0.0170187 0)
(-0.0640837 0.0180748 0)
(-0.0699105 0.0192378 0)
(-0.0760768 0.0205136 0)
(-0.0826099 0.021906 0)
(-0.0895371 0.0234164 0)
(-0.096884 0.0250437 0)
(-0.104674 0.026784 0)
(-0.112929 0.0286301 0)
(-0.121663 0.030571 0)
(-0.130889 0.0325913 0)
(-0.140609 0.0346711 0)
(-0.150819 0.0367849 0)
(-0.161506 0.0389012 0)
(-0.172643 0.0409826 0)
(-0.184194 0.0429846 0)
(-0.196108 0.0448564 0)
(-0.208317 0.0465406 0)
(-0.220741 0.0479735 0)
(-0.233283 0.049086 0)
(-0.245831 0.0498047 0)
(-0.258257 0.0500531 0)
(-0.270419 0.0497536 0)
(-0.282165 0.0488293 0)
(-0.293331 0.0472069 0)
(-0.303745 0.0448187 0)
(-0.313231 0.041606 0)
(-0.321612 0.0375219 0)
(-0.328711 0.0325344 0)
(-0.334357 0.0266294 0)
(-0.338382 0.0198144 0)
(-0.340633 0.012121 0)
(-0.340967 0.00360886 0)
(-0.339257 -0.00563197 0)
(-0.335394 -0.0154786 0)
(-0.329291 -0.0257721 0)
(-0.320887 -0.0363157 0)
(-0.310153 -0.0468743 0)
(-0.297098 -0.0571755 0)
(-0.281776 -0.0669134 0)
(-0.264296 -0.0757552 0)
(-0.244829 -0.0833517 0)
(-0.223622 -0.0893539 0)
(-0.200997 -0.0934324 0)
(-0.177362 -0.0953035 0)
(-0.1532 -0.0947565 0)
(-0.129064 -0.0916821 0)
(-0.105555 -0.0860984 0)
(-0.0832868 -0.0781698 0)
(-0.0628571 -0.0682165 0)
(-0.0447988 -0.056713 0)
(-0.0295415 -0.0442783 0)
(-0.0173768 -0.0316591 0)
(-0.00842979 -0.0197167 0)
(-0.00269617 -0.00941357 0)
(-8.51806e-05 -0.00184017 0)
(-1.26269e-05 2.33213e-05 0)
(-0.000410279 0.00076785 0)
(-0.00126882 0.00194798 0)
(-0.00257512 0.00335485 0)
(-0.00430761 0.00484144 0)
(-0.00643893 0.00630662 0)
(-0.00893454 0.00768763 0)
(-0.0117581 0.00895187 0)
(-0.0148745 0.0100895 0)
(-0.0182525 0.0111069 0)
(-0.0218663 0.0120215 0)
(-0.0256961 0.0128572 0)
(-0.0297293 0.013641 0)
(-0.0339595 0.0144009 0)
(-0.038387 0.0151637 0)
(-0.0430176 0.0159543 0)
(-0.0478625 0.0167951 0)
(-0.0529373 0.0177056 0)
(-0.0582612 0.0187025 0)
(-0.0638567 0.0197997 0)
(-0.0697484 0.0210083 0)
(-0.0759625 0.0223372 0)
(-0.0825263 0.0237926 0)
(-0.089467 0.0253781 0)
(-0.0968113 0.0270948 0)
(-0.104584 0.0289405 0)
(-0.112807 0.03091 0)
(-0.121501 0.0329938 0)
(-0.130677 0.0351786 0)
(-0.140345 0.0374458 0)
(-0.150504 0.0397712 0)
(-0.161147 0.042125 0)
(-0.172253 0.0444702 0)
(-0.183793 0.0467633 0)
(-0.195724 0.0489534 0)
(-0.207988 0.0509825 0)
(-0.220513 0.0527856 0)
(-0.233213 0.0542913 0)
(-0.245986 0.055423 0)
(-0.258715 0.0560998 0)
(-0.27127 0.0562383 0)
(-0.283509 0.0557549 0)
(-0.295277 0.0545675 0)
(-0.306415 0.0525989 0)
(-0.316755 0.0497787 0)
(-0.326128 0.0460472 0)
(-0.334365 0.0413577 0)
(-0.341299 0.0356799 0)
(-0.346767 0.0290029 0)
(-0.350617 0.0213382 0)
(-0.352702 0.012723 0)
(-0.352889 0.00322334 0)
(-0.351055 -0.00706277 0)
(-0.347096 -0.0180032 0)
(-0.340921 -0.0294284 0)
(-0.332465 -0.0411281 0)
(-0.321686 -0.0528511 0)
(-0.308577 -0.0643054 0)
(-0.29317 -0.0751609 0)
(-0.275552 -0.0850557 0)
(-0.255868 -0.0936067 0)
(-0.23434 -0.100426 0)
(-0.211268 -0.105144 0)
(-0.187045 -0.107433 0)
(-0.16215 -0.107045 0)
(-0.13714 -0.103837 0)
(-0.112633 -0.0978104 0)
(-0.089278 -0.0891263 0)
(-0.0677125 -0.0781238 0)
(-0.0485209 -0.065318 0)
(-0.0321877 -0.0513875 0)
(-0.0190606 -0.0371539 0)
(-0.00931797 -0.0235588 0)
(-0.00301086 -0.0116402 0)
(-0.000101621 -0.00254315 0)
(-1.85511e-05 0.000134875 0)
(-0.000495868 0.00111436 0)
(-0.00149714 0.0025304 0)
(-0.00299354 0.00416526 0)
(-0.00495066 0.0058658 0)
(-0.00733216 0.00752724 0)
(-0.0100963 0.00908533 0)
(-0.0132014 0.0105077 0)
(-0.0166087 0.0117861 0)
(-0.0202844 0.0129296 0)
(-0.0242011 0.0139586 0)
(-0.0283382 0.0149004 0)
(-0.0326828 0.0157856 0)
(-0.0372287 0.0166454 0)
(-0.0419763 0.0175098 0)
(-0.046932 0.0184064 0)
(-0.0521074 0.0193599 0)
(-0.0575186 0.0203921 0)
(-0.0631853 0.0215211 0)
(-0.0691302 0.0227622 0)
(-0.0753782 0.0241277 0)
(-0.0819555 0.0256267 0)
(-0.0888892 0.0272658 0)
(-0.096206 0.0290484 0)
(-0.103932 0.0309748 0)
(-0.11209 0.0330418 0)
(-0.120702 0.0352423 0)
(-0.129783 0.0375649 0)
(-0.139346 0.0399931 0)
(-0.149395 0.0425048 0)
(-0.159926 0.0450718 0)
(-0.170926 0.047659 0)
(-0.182373 0.0502243 0)
(-0.19423 0.0527176 0)
(-0.20645 0.0550815 0)
(-0.218969 0.0572507 0)
(-0.231711 0.059153 0)
(-0.244585 0.0607096 0)
(-0.257485 0.0618365 0)
(-0.270292 0.0624461 0)
(-0.282875 0.062449 0)
(-0.295092 0.0617562 0)
(-0.306793 0.0602817 0)
(-0.317822 0.0579451 0)
(-0.328019 0.0546748 0)
(-0.337224 0.0504106 0)
(-0.345276 0.0451069 0)
(-0.352022 0.0387355 0)
(-0.35731 0.0312886 0)
(-0.360999 0.0227819 0)
(-0.362953 0.013257 0)
(-0.363045 0.00278563 0)
(-0.361161 -0.00852815 0)
(-0.357195 -0.020545 0)
(-0.351055 -0.0330868 0)
(-0.342666 -0.0459327 0)
(-0.331973 -0.058818 0)
(-0.31895 -0.0714331 0)
(-0.303607 -0.083426 0)
(-0.286 -0.0944069 0)
(-0.266248 -0.103959 0)
(-0.24454 -0.111656 0)
(-0.221155 -0.117082 0)
(-0.196462 -0.119866 0)
(-0.170932 -0.119713 0)
(-0.145126 -0.116444 0)
(-0.119679 -0.110032 0)
(-0.095271 -0.100632 0)
(-0.0725859 -0.0885961 0)
(-0.052263 -0.0744755 0)
(-0.0348475 -0.0590078 0)
(-0.0207491 -0.0430894 0)
(-0.0102042 -0.0277441 0)
(-0.00332185 -0.0140875 0)
(-0.000117087 -0.00332432 0)
(-2.46149e-05 0.000268705 0)
(-0.000584309 0.00151845 0)
(-0.00173342 0.0031977 0)
(-0.00342666 0.00508117 0)
(-0.00561597 0.00701087 0)
(-0.00825528 0.0088795 0)
(-0.0112951 0.0106223 0)
(-0.014688 0.0122081 0)
(-0.0183909 0.013631 0)
(-0.0223674 0.0149031 0)
(-0.0265882 0.0160484 0)
(-0.0310321 0.0170981 0)
(-0.0356854 0.0180862 0)
(-0.040542 0.0190476 0)