/*--------------------------------*- C++ -*----------------------------------*\
  =========                 |
  \\      /  F ield         | OpenFOAM: The Open Source CFD Toolbox
   \\    /   O peration     | Website:  https://openfoam.org
    \\  /    A nd           | Version:  12
     \\/     M anipulation  |
\*---------------------------------------------------------------------------*/
FoamFile
{
    format      ascii;
    class       volScalarField;
    location    "1";
    object      p;
}
// * * * * * * * * * * * * * * * * * * * * * * * * * * * * * * * * * * * * * //

dimensions      [0 2 -2 0 0 0 0];

internalField   nonuniform List<scalar> 
900
(
1.80009e-08
6.46536e-05
0.00013586
0.000180048
0.000181567
0.000133579
3.37387e-05
-0.000117101
-0.000315672
-0.000557093
-0.000835478
-0.00114439
-0.00147713
-0.00182689
-0.00218688
-0.00255029
-0.00291035
-0.00326025
-0.00359317
-0.00390226
-0.00418078
-0.00442227
-0.0046208
-0.00477149
-0.00487107
-0.00491871
-0.0049168
-0.00487225
-0.0048008
-0.00473608
-0.000187069
-9.14382e-05
-6.9092e-06
3.31135e-05
2.54603e-05
-2.94798e-05
-0.00013129
-0.000278294
-0.000467284
-0.000693932
-0.00095316
-0.00123943
-0.00154691
-0.00186961
-0.00220148
-0.00253642
-0.00286831
-0.00319106
-0.00349858
-0.00378488
-0.00404408
-0.00427064
-0.00445945
-0.00460619
-0.00470765
-0.00476218
-0.00476939
-0.00472895
-0.00464407
-0.00454822
-0.0002311
-0.00010286
3.9984e-06
4.81679e-05
3.47889e-05
-2.92004e-05
-0.00014013
-0.000294677
-0.000488788
-0.000717829
-0.000976794
-0.00126045
-0.00156342
-0.00188022
-0.00220534
-0.00253323
-0.00285836
-0.00317516
-0.0034781
-0.0037617
-0.00402054
-0.00424938
-0.00444319
-0.00459732
-0.00470774
-0.00477113
-0.00478385
-0.00473901
-0.0046315
-0.00450275
-8.92465e-06
0.000134302
0.000248596
0.00028687
0.000258224
0.000173596
3.92178e-05
-0.000139854
-0.000358359
-0.000610883
-0.00089202
-0.00119643
-0.00151883
-0.00185403
-0.00219689
-0.00254231
-0.00288518
-0.0032204
-0.00354281
-0.00384716
-0.00412817
-0.00438044
-0.00459854
-0.00477703
-0.00491065
-0.00499436
-0.00502196
-0.00498253
-0.00486705
-0.00472282
0.000535085
0.000667775
0.000761683
0.000769601
0.000703171
0.000575981
0.000396399
0.000171147
-9.32873e-05
-0.000390653
-0.000715086
-0.0010611
-0.00142353
-0.00179751
-0.00217835
-0.00256148
-0.00294239
-0.00331648
-0.00367904
-0.00402514
-0.00434955
-0.00464672
-0.00491071
-0.00513524
-0.00531378
-0.00543961
-0.00550439
-0.00549456
-0.00539855
-0.00526403
0.00145299
0.00154397
0.00158192
0.00152626
0.00139092
0.00119155
0.000938627
0.000640598
0.000305201
-6.05292e-05
-0.000450376
-0.000858866
-0.00128118
-0.00171302
-0.00215047
-0.00258983
-0.00302748
-0.00345968
-0.00388245
-0.00429139
-0.00468157
-0.00504739
-0.0053825
-0.00567978
-0.00593139
-0.00612884
-0.00626169
-0.00631426
-0.00627272
-0.0061785
0.00280115
0.00280942
0.00274442
0.00258124
0.00233625
0.00202685
0.00166578
0.00126343
0.000828799
0.000369545
-0.00010803
-0.000598851
-0.0010989
-0.00160501
-0.0021146
-0.00262547
-0.00313553
-0.00364249
-0.00414368
-0.00463575
-0.00511449
-0.00557458
-0.0060095
-0.00641136
-0.006771
-0.00707792
-0.0073193
-0.00747766
-0.00753672
-0.00752289
0.0046428
0.00451188
0.00428009
0.00395103
0.0035437
0.00307671
0.00256535
0.00202213
0.00145728
0.000878728
0.000292349
-0.000297841
-0.000889421
-0.00148124
-0.00207302
-0.00266506
-0.00325779
-0.00385139
-0.00444542
-0.00503842
-0.00562763
-0.00620864
-0.00677516
-0.00731884
-0.00782911
-0.00829319
-0.00869558
-0.0090174
-0.00923966
-0.00936135
0.00704347
0.00669462
0.00620882
0.00563641
0.00499897
0.00431536
0.0036035
0.00287819
0.00215047
0.00142805
0.000715513
1.47309e-05
-0.000674703
-0.00135501
-0.00202971
-0.00270306
-0.00337955
-0.00406329
-0.00475748
-0.00546389
-0.00618236
-0.00691035
-0.00764256
-0.0083706
-0.00908272
-0.00976355
-0.0103947
-0.0109567
-0.0114277
-0.0117618
0.0100601
0.00938475
0.00852666
0.00760896
0.00665523
0.0056827
0.00471175
0.00375929
0.00283672
0.00195033
0.00110204
0.000289971
-0.00049095
-0.00124832
-0.0019915
-0.00273095
-0.00347733
-0.00424085
-0.0050304
-0.00585288
-0.00671248
-0.00761003
-0.00854243
-0.00950216
-0.0104766
-0.0114479
-0.0123945
-0.0132979
-0.014134
-0.0147865
0.0137234
0.0125741
0.0111858
0.00979062
0.00841279
0.00706471
0.00576843
0.00454252
0.00339746
0.00233647
0.00135672
0.000450164
-0.000395548
-0.00119619
-0.00196996
-0.00273644
-0.00351558
-0.00432662
-0.00518708
-0.00611173
-0.0071116
-0.00819312
-0.00935729
-0.0105989
-0.0119054
-0.0132564
-0.0146277
-0.0160046
-0.0173615
-0.0184767
0.0180096
0.01619
0.014065
0.0120244
0.0100906
0.00826605
0.00657301
0.00503041
0.00364588
0.00241692
0.00133287
0.000376178
-0.000476477
-0.0012529
-0.0019841
-0.00270292
-0.00344266
-0.00423573
-0.00511223
-0.0060986
-0.00721632
-0.00848062
-0.00989944
-0.0114721
-0.0131878
-0.0150242
-0.0169556
-0.018975
-0.0210573
-0.0228278
0.0228005
0.0200551
0.0169285
0.0140338
0.011387
0.00897308
0.0068116
0.00491964
0.00329881
0.00193706
0.000811554
-0.000109466
-0.000865205
-0.00150066
-0.00206496
-0.00260959
-0.0031867
-0.00384727
-0.00463936
-0.00560629
-0.00678492
-0.00820391
-0.00988223
-0.0118273
-0.0140325
-0.0164753
-0.0191301
-0.0220043
-0.0250762
-0.0277546
0.0278252
0.0238283
0.0193687
0.0153673
0.0118271
0.00870437
0.00601131
0.00375944
0.00193963
0.000524726
-0.000526223
-0.00126546
-0.00175457
-0.00206242
-0.0022631
-0.00243372
-0.00265228
-0.00299544
-0.00353627
-0.00434196
-0.00547151
-0.00697343
-0.00888367
-0.011223
-0.0139931
-0.0171739
-0.0207435
-0.0247328
-0.0291289
-0.0330398
0.0325806
0.026927
0.0207295
0.0153252
0.0106934
0.00674628
0.0034811
0.000898065
-0.00102958
-0.00235177
-0.00313559
-0.00346193
-0.00342306
-0.00312016
-0.00266077
-0.00215632
-0.00171948
-0.00146158
-0.00148983
-0.00190443
-0.00279563
-0.00424067
-0.00630096
-0.00901837
-0.0124092
-0.0164608
-0.0211604
-0.0265758
-0.0327106
-0.0382634
0.0362233
0.0284214
0.0200056
0.0128637
0.00693663
0.0020704
-0.00176345
-0.00458493
-0.00644828
-0.00743667
-0.00765381
-0.00721961
-0.0062673
-0.00494053
-0.0033906
-0.00177359
-0.000247558
0.00103049
0.00190777
0.00223926
0.00189139
0.00074599
-0.00129575
-0.00430812
-0.00833212
-0.0133702
-0.0194278
-0.0266287
-0.035004
-0.0427051
0.0374278
0.0268971
0.0157113
0.00647227
-0.000938084
-0.00676976
-0.0110932
-0.0139618
-0.015471
-0.0157514
-0.0149567
-0.0132586
-0.0108436
-0.00790954
-0.00466307
-0.00131678
0.0019137
0.0048127
0.00716807
0.00877508
0.00944111
0.00899056
0.00727031
0.004157
-0.000430288
-0.00652208
-0.0141567
-0.0235401
-0.0347473
-0.0452093
0.0342034
0.0202793
0.00571416
-0.00598073
-0.0150118
-0.0217651
-0.0263772
-0.0289542
-0.0296524
-0.0286684
-0.0262229
-0.0225549
-0.0179175
-0.0125756
-0.00680339
-0.0008821
0.0049021
0.0102608
0.0149064
0.0185568
0.0209401
0.0218011
0.0209087
0.018066
0.0131285
0.00601627
-0.00336471
-0.0153408
-0.0300546
-0.0440021
0.0236604
0.00560717
-0.0129767
-0.0274422
-0.0381245
-0.0456014
-0.0501108
-0.0518411
-0.0510373
-0.0479868
-0.0429988
-0.0363966
-0.0285146
-0.0196966
-0.0102951
-0.00067066
0.00880856
0.0177677
0.0258275
0.0326078
0.0377328
0.0408388
0.0415833
0.0396598
0.0348237
0.0269105
0.0157325
0.00078766
-0.0181693
-0.0364373
0.00171046
-0.0212569
-0.0444833
-0.0619187
-0.0740853
-0.0818314
-0.0855518
-0.0855626
-0.082238
-0.0759899
-0.067242
-0.056421
-0.0439553
-0.0302759
-0.0158196
-0.00103118
0.0136328
0.0277017
0.0406906
0.0521013
0.0614258
0.0681548
0.071789
0.0718593
0.0679633
0.0597937
0.0470052
0.0288356
0.00488131
-0.0186405
-0.0373345
-0.0660199
-0.0944242
-0.114792
-0.127925
-0.135062
-0.136845
-0.13379
-0.126462
-0.115443
-0.101303
-0.0845904
-0.0658345
-0.045553
-0.0242609
-0.00248127
0.019246
0.040356
0.060255
0.0783128
0.0938607
0.106202
0.114619
0.118403
0.116905
0.109575
0.0958025
0.0744258
0.0447887
0.0150098
-0.101351
-0.136537
-0.170442
-0.193251
-0.206204
-0.211134
-0.209085
-0.200895
-0.18741
-0.169447
-0.147758
-0.123024
-0.0958694
-0.066878
-0.0366187
-0.00567133
0.0253643
0.0558815
0.0852005
0.112536
0.13704
0.157797
0.173796
0.183982
0.187321
0.182858
0.169519
0.145507
0.109733
0.0726819
-0.201399
-0.243776
-0.283048
-0.306913
-0.317378
-0.317242
-0.308231
-0.291706
-0.268932
-0.241043
-0.209007
-0.173634
-0.13559
-0.0954892
-0.0539107
-0.011394
0.0315163
0.0741811
0.115868
0.155754
0.192839
0.225903
0.253561
0.274288
0.286467
0.28847
0.278419
0.253438
0.211639
0.166419
-0.353658
-0.403618
-0.447075
-0.468771
-0.472196
-0.461858
-0.440661
-0.410805
-0.374168
-0.332259
-0.286253
-0.237017
-0.185202
-0.131377
-0.0760405
-0.0195727
0.0376972
0.0953378
0.15273
0.209023
0.263086
0.313499
0.35851
0.395984
0.423467
0.438205
0.436921
0.414814
0.3684
0.314562
-0.583784
-0.640598
-0.684333
-0.696542
-0.683886
-0.654043
-0.611903
-0.560895
-0.503713
-0.442169
-0.377559
-0.3109
-0.24276
-0.173265
-0.102335
-0.0299156
0.0439623
0.119158
0.195354
0.27197
0.348069
0.422223
0.492366
0.555716
0.608773
0.647288
0.665333
0.65457
0.608166
0.54674
-0.938128
-0.996574
-1.02899
-1.0148
-0.967752
-0.901337
-0.823562
-0.739252
-0.651981
-0.564121
-0.476725
-0.389908
-0.303412
-0.216733
-0.129233
-0.0402369
0.0509087
0.144788
0.241828
0.342149
0.44541
0.550613
0.65584
0.757976
0.852482
0.933199
0.99106
1.01113
0.978299
0.915675
-1.50656
-1.54615
-1.53538
-1.45602
-1.33741
-1.20314
-1.06629
-0.932897
-0.805333
-0.68435
-0.569634
-0.460216
-0.35482
-0.2519
-0.149709
-0.04641
0.0598253
0.17077
0.288075
0.413178
0.54714
0.690396
0.84237
1.00094
1.16175
1.31708
1.45355
1.54582
1.56197
1.52145
-2.47199
-2.42335
-2.27717
-2.04661
-1.79144
-1.54529
-1.3193
-1.1164
-0.935916
-0.7754
-0.631872
-0.501874
-0.381731
-0.267866
-0.156849
-0.0453539
0.0699081
0.192265
0.325099
0.471896
0.636205
0.821457
1.03057
1.26524
1.52472
1.80366
2.08681
2.33814
2.49752
2.5525
-4.60255
-3.97447
-3.26134
-2.65572
-2.16288
-1.7589
-1.42857
-1.1592
-0.938807
-0.756739
-0.603672
-0.471832
-0.354726
-0.246838
-0.143339
-0.0398042
0.068103
0.184971
0.315565
0.465437
0.641151
0.850529
1.10293
1.40927
1.78122
2.22974
2.76674
3.41073
4.15412
4.80485
-11.2873
-7.78817
-5.25641
-3.7217
-2.71403
-2.00235
-1.49235
-1.12591
-0.859267
-0.660868
-0.508923
-0.388244
-0.287913
-0.199777
-0.117492
-0.0358509
0.0510122
0.148637
0.262799
0.401989
0.577546
0.805102
1.10705
1.5158
2.07661
2.84928
3.92713
5.5334
8.12542
11.6641
)
;

boundaryField
{
    movingWall
    {
        type            zeroGradient;
    }
    fixedWalls
    {
        type            zeroGradient;
    }
    frontAndBack
    {
        type            empty;
    }
}


// ************************************************************************* //
