/*--------------------------------*- C++ -*----------------------------------*\
  =========                 |
  \\      /  F ield         | OpenFOAM: The Open Source CFD Toolbox
   \\    /   O peration     | Website:  https://openfoam.org
    \\  /    A nd           | Version:  12
     \\/     M anipulation  |
\*---------------------------------------------------------------------------*/
FoamFile
{
    format      ascii;
    class       volVectorField;
    location    "1";
    object      U;
}
// * * * * * * * * * * * * * * * * * * * * * * * * * * * * * * * * * * * * * //

dimensions      [0 1 -1 0 0 0 0];

internalField   nonuniform List<vector> 
900
(
(-1.86366e-07 6.09627e-07 0)
(4.59041e-06 -1.68917e-06 0)
(1.59421e-05 -4.67819e-06 0)
(3.32103e-05 -7.12149e-06 0)
(5.46647e-05 -8.75043e-06 0)
(7.85423e-05 -9.59255e-06 0)
(0.000103298 -9.76484e-06 0)
(0.000127643 -9.4079e-06 0)
(0.000150546 -8.65649e-06 0)
(0.000171219 -7.62591e-06 0)
(0.000189089 -6.40768e-06 0)
(0.000203753 -5.07019e-06 0)
(0.000214946 -3.66157e-06 0)
(0.000222499 -2.21363e-06 0)
(0.000226317 -7.46301e-07 0)
(0.000226353 7.27603e-07 0)
(0.000222605 2.19753e-06 0)
(0.00021511 3.65035e-06 0)
(0.00020396 5.06547e-06 0)
(0.000189317 6.4102e-06 0)
(0.000171448 7.63536e-06 0)
(0.000150755 8.67151e-06 0)
(0.000127816 9.4262e-06 0)
(0.000103425 9.78342e-06 0)
(7.86202e-05 9.6081e-06 0)
(5.46991e-05 8.75987e-06 0)
(3.32131e-05 7.12262e-06 0)
(1.59293e-05 4.67052e-06 0)
(4.5771e-06 1.67542e-06 0)
(-1.90986e-07 -6.20766e-07 0)
(1.8302e-06 -1.03467e-05 0)
(1.90217e-05 -3.46491e-05 0)
(4.95443e-05 -5.7157e-05 0)
(9.09541e-05 -7.46556e-05 0)
(0.000139433 -8.61952e-05 0)
(0.000191662 -9.19535e-05 0)
(0.000244823 -9.26076e-05 0)
(0.00029654 -8.90241e-05 0)
(0.000344883 -8.20921e-05 0)
(0.000388358 -7.26293e-05 0)
(0.000425857 -6.13349e-05 0)
(0.000456598 -4.87729e-05 0)
(0.000480054 -3.53769e-05 0)
(0.000495887 -2.14675e-05 0)
(0.000503904 -7.27977e-06 0)
(0.00050401 7.00423e-06 0)
(0.000496195 2.12194e-05 0)
(0.000480536 3.51804e-05 0)
(0.000457214 4.86462e-05 0)
(0.000426553 6.12878e-05 0)
(0.000389077 7.26622e-05 0)
(0.00034557 8.21952e-05 0)
(0.000297148 8.91789e-05 0)
(0.000245319 9.27889e-05 0)
(0.000192029 9.21329e-05 0)
(0.000139672 8.63455e-05 0)
(9.10831e-05 7.47559e-05 0)
(4.95947e-05 5.71986e-05 0)
(1.90296e-05 3.46412e-05 0)
(1.82777e-06 1.03233e-05 0)
(2.97261e-06 -3.51542e-05 0)
(2.89862e-05 -9.72056e-05 0)
(7.2317e-05 -0.00014748 0)
(0.000128663 -0.000184007 0)
(0.000192409 -0.000206752 0)
(0.000259239 -0.000216839 0)
(0.000325794 -0.000215974 0)
(0.000389393 -0.000206082 0)
(0.000447959 -0.000189075 0)
(0.000499965 -0.000166694 0)
(0.000544351 -0.000140432 0)
(0.00058043 -0.000111493 0)
(0.000607784 -8.08021e-05 0)
(0.000626184 -4.90387e-05 0)
(0.000635514 -1.66943e-05 0)
(0.000635718 1.58566e-05 0)
(0.000626781 4.82763e-05 0)
(0.000608723 8.0182e-05 0)
(0.000581637 0.000111067 0)
(0.000545732 0.00014023 0)
(0.000501414 0.000166721 0)
(0.000449373 0.000189309 0)
(0.000390679 0.00020648 0)
(0.000326881 0.000216472 0)
(0.000260084 0.000217365 0)
(0.000193001 0.000207232 0)
(0.000129022 0.000184381 0)
(7.2489e-05 0.000147711 0)
(2.90377e-05 9.72951e-05 0)
(2.97332e-06 3.51509e-05 0)
(3.54462e-06 -6.76114e-05 0)
(3.37962e-05 -0.000176406 0)
(8.27174e-05 -0.000258382 0)
(0.000144555 -0.000314386 0)
(0.000212398 -0.000346622 0)
(0.000281311 -0.000358144 0)
(0.000347811 -0.00035239 0)
(0.000409415 -0.000332835 0)
(0.000464455 -0.000302735 0)
(0.000511943 -0.000264955 0)
(0.000551411 -0.000221865 0)
(0.000582757 -0.000175313 0)
(0.000606095 -0.000126647 0)
(0.000621623 -7.6781e-05 0)
(0.000629522 -2.62988e-05 0)
(0.000629888 2.44201e-05 0)
(0.000622692 7.50602e-05 0)
(0.000607786 0.000125226 0)
(0.000584941 0.000174302 0)
(0.000553924 0.000221332 0)
(0.000514604 0.000264919 0)
(0.000467081 0.000303162 0)
(0.000411837 0.000333641 0)
(0.000349894 0.000353452 0)
(0.000282966 0.000359315 0)
(0.000213589 0.000347746 0)
(0.000145303 0.000315325 0)
(8.3095e-05 0.000259039 0)
(3.3921e-05 0.000176745 0)
(3.55042e-06 6.76796e-05 0)
(3.80125e-06 -0.000102826 0)
(3.42744e-05 -0.000260004 0)
(8.14308e-05 -0.000372042 0)
(0.00013848 -0.000443593 0)
(0.000197893 -0.000480198 0)
(0.000254696 -0.000487822 0)
(0.000305848 -0.000472426 0)
(0.000349675 -0.00043961 0)
(0.000385559 -0.000394345 0)
(0.00041369 -0.000340792 0)
(0.000434811 -0.000282216 0)
(0.000449968 -0.000220983 0)
(0.000460279 -0.00015862 0)
(0.000466749 -9.59464e-05 0)
(0.000470115 -3.32446e-05 0)
(0.000470749 2.95314e-05 0)
(0.000468603 9.25297e-05 0)
(0.000463216 0.000155768 0)
(0.000453774 0.000218908 0)
(0.000439213 0.000281056 0)
(0.000418377 0.000340593 0)
(0.000390217 0.000395058 0)
(0.00035401 0.000441094 0)
(0.000309616 0.000474462 0)
(0.000257727 0.000490136 0)
(0.000200109 0.000482497 0)
(0.000139898 0.000445597 0)
(8.21664e-05 0.00037353 0)
(3.45287e-05 0.000260855 0)
(3.81632e-06 0.000103056 0)
(3.75981e-06 -0.000136725 0)
(3.01306e-05 -0.000336232 0)
(6.69693e-05 -0.00046988 0)
(0.000106774 -0.00054734 0)
(0.000142171 -0.000578688 0)
(0.000168927 -0.00057387 0)
(0.000185257 -0.000542238 0)
(0.000191141 -0.000492143 0)
(0.000187875 -0.000430649 0)
(0.000177681 -0.000363351 0)
(0.000163305 -0.000294325 0)
(0.000147656 -0.000226169 0)
(0.000133465 -0.00016015 0)
(0.000123014 -9.64176e-05 0)
(0.000117919 -3.42875e-05 0)
(0.000118985 2.74315e-05 0)
(0.000126136 9.0087e-05 0)
(0.000138421 0.000154823 0)
(0.000154095 0.00022223 0)
(0.000170779 0.000292031 0)
(0.000185678 0.000362804 0)
(0.000195869 0.000431785 0)
(0.000198632 0.000494734 0)
(0.000191824 0.000545914 0)
(0.000174263 0.000578154 0)
(0.000146117 0.000583048 0)
(0.000109337 0.000551251 0)
(6.83243e-05 0.000472894 0)
(3.06132e-05 0.000338053 0)
(3.79183e-06 0.000137278 0)
(3.34293e-06 -0.00016446 0)
(1.99939e-05 -0.000390491 0)
(3.52442e-05 -0.000528174 0)
(4.12297e-05 -0.000593982 0)
(3.17241e-05 -0.000604089 0)
(4.3012e-06 -0.000573729 0)
(-4.04426e-05 -0.000516649 0)
(-9.96881e-05 -0.000444642 0)
(-0.000169029 -0.000367222 0)
(-0.000243064 -0.000291464 0)
(-0.000315965 -0.000222004 0)
(-0.000382012 -0.00016117 0)
(-0.000436062 -0.000109239 0)
(-0.000473937 -6.47959e-05 0)
(-0.000492725 -2.51681e-05 0)
(-0.000490982 1.30753e-05 0)
(-0.000468827 5.35969e-05 0)
(-0.000427936 9.97508e-05 0)
(-0.000371427 0.00015406 0)
(-0.000303636 0.00021773 0)
(-0.000229813 0.000290231 0)
(-0.000155714 0.000368955 0)
(-8.71291e-05 0.00044899 0)
(-2.93501e-05 0.000523009 0)
(1.33948e-05 0.000581301 0)
(3.85197e-05 0.000611951 0)
(4.5698e-05 0.000601191 0)
(3.76443e-05 0.000533882 0)
(2.08694e-05 0.000394066 0)
(3.40568e-06 0.000165618 0)
(2.36527e-06 -0.000179337 0)
(1.35216e-06 -0.000402733 0)
(-2.07402e-05 -0.000514402 0)
(-7.16059e-05 -0.000540145 0)
(-0.000154912 -0.000504333 0)
(-0.000269782 -0.000429135 0)
(-0.000411668 -0.000333901 0)
(-0.000573283 -0.000234617 0)
(-0.00074548 -0.000143559 0)
(-0.000918111 -6.91723e-05 0)
(-0.00108083 -1.61629e-05 0)
(-0.00122385 1.42401e-05 0)
(-0.00133855 2.3857e-05 0)
(-0.00141806 1.7003e-05 0)
(-0.0014576 -1.68571e-07 0)
(-0.00145483 -2.04016e-05 0)
(-0.00140994 -3.61044e-05 0)
(-0.00132562 -4.01391e-05 0)
(-0.00120696 -2.6586e-05 0)
(-0.00106109 8.54044e-06 0)
(-0.000896802 6.66572e-05 0)
(-0.000723954 0.000146087 0)
(-0.000552853 0.000241667 0)
(-0.000393492 0.000344526 0)
(-0.000254753 0.000442034 0)
(-0.000143569 0.000517965 0)
(-6.40606e-05 0.00055288 0)
(-1.66286e-05 0.000524705 0)
(2.88366e-06 0.000409368 0)
(2.48281e-06 0.000181586 0)
(5.33591e-07 -0.000171649 0)
(-2.95643e-05 -0.000344419 0)
(-0.000111268 -0.000382762 0)
(-0.000251215 -0.000325231 0)
(-0.000448435 -0.000207126 0)
(-0.000696631 -5.96119e-05 0)
(-0.000985131 9.09372e-05 0)
(-0.00129995 0.000223542 0)
(-0.00162501 0.00032296 0)
(-0.00194334 0.000379718 0)
(-0.00223818 0.000389884 0)
(-0.002494 0.000354597 0)
(-0.00269735 0.000279405 0)
(-0.00283757 0.000173433 0)
(-0.00290736 4.84253e-05 0)
(-0.0029031 -8.23033e-05 0)
(-0.00282508 -0.000204971 0)
(-0.00267741 -0.000306443 0)
(-0.00246789 -0.000375325 0)
(-0.00220756 -0.000402993 0)
(-0.00191013 -0.000384518 0)
(-0.00159128 -0.000319459 0)
(-0.00126773 -0.000212478 0)
(-0.000956256 -7.37474e-05 0)
(-0.000672555 8.08824e-05 0)
(-0.000430087 0.000229982 0)
(-0.00023887 0.000346951 0)
(-0.000104448 0.000400669 0)
(-2.69729e-05 0.000356221 0)
(7.45279e-07 0.000175795 0)
(-2.57638e-06 -0.000127347 0)
(-7.79871e-05 -0.000175018 0)
(-0.000250442 -6.89863e-05 0)
(-0.000524084 0.000134991 0)
(-0.000890279 0.000387253 0)
(-0.00133432 0.000645141 0)
(-0.00183644 0.000873643 0)
(-0.00237297 0.001046 0)
(-0.002918 0.00114401 0)
(-0.003445 0.00115787 0)
(-0.00392834 0.00108576 0)
(-0.00434461 0.00093305 0)
(-0.00467377 0.000711342 0)
(-0.00490006 0.000437231 0)
(-0.0050127 0.000130963 0)
(-0.00500638 -0.000185037 0)
(-0.00488151 -0.000487698 0)
(-0.00464411 -0.000754855 0)
(-0.00430565 -0.000966768 0)
(-0.00388245 -0.00110757 0)
(-0.003395 -0.00116658 0)
(-0.00286692 -0.00113948 0)
(-0.00232384 -0.00102922 0)
(-0.00179206 -0.000846699 0)
(-0.00129699 -0.000611144 0)
(-0.000861543 -0.000350116 0)
(-0.000504529 -9.91242e-05 0)
(-0.000239489 9.9086e-05 0)
(-7.37441e-05 0.000195272 0)
(-2.20847e-06 0.000134683 0)
(-7.54088e-06 -2.64877e-05 0)
(-0.00015086 0.000162087 0)
(-0.000456812 0.000515703 0)
(-0.00092482 0.000955832 0)
(-0.00153426 0.00141427 0)
(-0.00225788 0.00183398 0)
(-0.0030628 0.00216959 0)
(-0.00391175 0.00238792 0)
(-0.00476519 0.00246815 0)
(-0.00558355 0.0024014 0)
(-0.00632921 0.00218997 0)
(-0.00696821 0.00184615 0)
(-0.00747169 0.0013908 0)
(-0.00781711 0.000851589 0)
(-0.00798911 0.000261191 0)
(-0.00798012 -0.000344773 0)
(-0.00779067 -0.000929805 0)
(-0.00742932 -0.00145863 0)
(-0.00691236 -0.0018993 0)
(-0.00626314 -0.00222512 0)
(-0.00551114 -0.00241657 0)
(-0.00469071 -0.00246286 0)
(-0.00383957 -0.00236339 0)
(-0.00299703 -0.00212874 0)
(-0.00220201 -0.00178135 0)
(-0.00149079 -0.00135579 0)
(-0.000894884 -0.000898421 0)
(-0.000439808 -0.000466687 0)
(-0.000144142 -0.00012845 0)
(-6.92492e-06 3.90137e-05 0)
(-1.51215e-05 0.000158602 0)
(-0.000257127 0.000744338 0)
(-0.000754051 0.00149152 0)
(-0.00149726 0.0022921 0)
(-0.00244811 0.00305446 0)
(-0.00356121 0.00370401 0)
(-0.00478529 0.00418334 0)
(-0.00606435 0.00445258 0)
(-0.00734043 0.00448921 0)
(-0.00855655 0.00428732 0)
(-0.00965924 0.00385627 0)
(-0.0106007 0.00321897 0)
(-0.0113405 0.00240985 0)
(-0.0118474 0.00147251 0)
(-0.0121 0.000457175 0)
(-0.0120879 -0.000581996 0)
(-0.0118116 -0.00158966 0)
(-0.0112829 -0.0025121 0)
(-0.0105244 -0.00330001 0)
(-0.00956853 -0.00391112 0)
(-0.00845644 -0.00431277 0)
(-0.00723662 -0.00448415 0)
(-0.0059628 -0.00441829 0)
(-0.00469181 -0.00412365 0)
(-0.00348092 -0.00362528 0)
(-0.00238487 -0.00296536 0)
(-0.00145312 -0.00220311 0)
(-0.000728593 -0.0014142 0)
(-0.000246864 -0.000690234 0)
(-1.41294e-05 -0.000137919 0)
(-2.63027e-05 0.000465448 0)
(-0.000407995 0.00167538 0)
(-0.00117151 0.00301783 0)
(-0.00229535 0.00434733 0)
(-0.00371461 0.00554343 0)
(-0.00535835 0.00651076 0)
(-0.00715005 0.00717859 0)
(-0.00900853 0.0075007 0)
(-0.0108515 0.00745477 0)
(-0.0125991 0.00704095 0)
(-0.0141776 0.00627984 0)
(-0.0155211 0.00521003 0)
(-0.0165749 0.00388526 0)
(-0.0172963 0.00237126 0)
(-0.0176565 0.000742419 0)
(-0.0176411 -0.000921736 0)
(-0.0172509 -0.00254012 0)
(-0.0165016 -0.00403372 0)
(-0.0154235 -0.00532924 0)
(-0.0140604 -0.00636256 0)
(-0.0124687 -0.00708216 0)
(-0.0107147 -0.00745221 0)
(-0.00887317 -0.00745535 0)
(-0.00702382 -0.00709507 0)
(-0.00524842 -0.00639748 0)
(-0.00362674 -0.0054125 0)
(-0.00223305 -0.00421407 0)
(-0.00113494 -0.00289985 0)
(-0.00039292 -0.00159117 0)
(-2.47652e-05 -0.000432414 0)
(-4.23224e-05 0.000943815 0)
(-0.000617126 0.00309093 0)
(-0.00174453 0.00530132 0)
(-0.00338345 0.00738326 0)
(-0.00543171 0.00918186 0)
(-0.00778316 0.0105781 0)
(-0.0103274 0.0114874 0)
(-0.01295 0.0118588 0)
(-0.0155373 0.0116734 0)
(-0.0179803 0.0109421 0)
(-0.0201793 0.00970245 0)
(-0.0220464 0.00801549 0)
(-0.0235086 0.00596162 0)
(-0.0245094 0.00363659 0)
(-0.0250105 0.00114719 0)
(-0.0249928 -0.0013932 0)
(-0.0244571 -0.00386919 0)
(-0.0234237 -0.00616793 0)
(-0.0219323 -0.00818372 0)
(-0.0200407 -0.00982255 0)
(-0.0178238 -0.0110065 0)
(-0.0153706 -0.0116779 0)
(-0.0127822 -0.0118033 0)
(-0.010168 -0.0113767 0)
(-0.00764178 -0.0104224 0)
(-0.0053165 -0.00899732 0)
(-0.00330011 -0.00719128 0)
(-0.00169456 -0.00512777 0)
(-0.000595973 -0.00296436 0)
(-4.00354e-05 -0.000892828 0)
(-6.47003e-05 0.00165823 0)
(-0.000900689 0.00516475 0)
(-0.00251437 0.00860402 0)
(-0.00483576 0.0117287 0)
(-0.00771107 0.0143443 0)
(-0.0109866 0.0163063 0)
(-0.0145073 0.0175174 0)
(-0.0181162 0.0179251 0)
(-0.0216595 0.0175193 0)
(-0.0249922 0.0163284 0)
(-0.0279828 0.014415 0)
(-0.0305166 0.0118711 0)
(-0.0324984 0.00881302 0)
(-0.0338554 0.00537628 0)
(-0.0345378 0.00171003 0)
(-0.0345209 -0.00202837 0)
(-0.0338048 -0.00567889 0)
(-0.0324151 -0.00908451 0)
(-0.0304025 -0.0120968 0)
(-0.0278413 -0.0145818 0)
(-0.0248282 -0.0164253 0)
(-0.0214799 -0.0175389 0)
(-0.0179301 -0.0178647 0)
(-0.0143253 -0.0173807 0)
(-0.0108203 -0.0161045 0)
(-0.00757164 -0.0140971 0)
(-0.004732 -0.0114645 0)
(-0.00245032 -0.00835918 0)
(-0.000872647 -0.0049818 0)
(-6.14528e-05 -0.00158239 0)
(-9.52541e-05 0.00269053 0)
(-0.0012772 0.00811421 0)
(-0.00352737 0.0132502 0)
(-0.00673434 0.0177865 0)
(-0.0106742 0.0214849 0)
(-0.0151303 0.024176 0)
(-0.01989 0.0257532 0)
(-0.0247426 0.0261692 0)
(-0.0294851 0.0254306 0)
(-0.0339288 0.0235932 0)
(-0.0379045 0.0207549 0)
(-0.0412661 0.0170498 0)
(-0.0438931 0.0126417 0)
(-0.0456935 0.00771715 0)
(-0.0466047 0.00247925 0)
(-0.0465947 -0.00285894 0)
(-0.0456629 -0.00808096 0)
(-0.0438403 -0.0129735 0)
(-0.0411891 -0.0173334 0)
(-0.0378021 -0.020974 0)
(-0.033801 -0.0237328 0)
(-0.0293347 -0.0254785 0)
(-0.0245758 -0.0261178 0)
(-0.0197163 -0.0256023 0)
(-0.0149622 -0.0239349 0)
(-0.0105257 -0.0211752 0)
(-0.00661846 -0.0174432 0)
(-0.00345252 -0.0129219 0)
(-0.00124278 -0.00786161 0)
(-9.08978e-05 -0.00258233 0)
(-0.000136103 0.00414211 0)
(-0.0017671 0.0122047 0)
(-0.00483336 0.0196305 0)
(-0.00916527 0.0260357 0)
(-0.0144453 0.0311373 0)
(-0.0203748 0.0347447 0)
(-0.0266686 0.0367505 0)
(-0.0330497 0.0371228 0)
(-0.0392563 0.0358982 0)
(-0.0450489 0.0331729 0)
(-0.0502155 0.0290942 0)
(-0.0545751 0.0238522 0)
(-0.0579798 0.0176711 0)
(-0.0603169 0.0108018 0)
(-0.0615096 0.00351399 0)
(-0.061518 -0.00391105 0)
(-0.0603399 -0.0111876 0)
(-0.0580107 -0.0180331 0)
(-0.054604 -0.0241754 0)
(-0.0502314 -0.0293611 0)
(-0.0450415 -0.0333642 0)
(-0.0392183 -0.0359947 0)
(-0.0329789 -0.0371082 0)
(-0.026569 -0.0366156 0)
(-0.020257 -0.0344922 0)
(-0.0143247 -0.0307858 0)
(-0.00905988 -0.0256238 0)
(-0.00475868 -0.0192189 0)
(-0.00172964 -0.0118754 0)
(-0.00013069 -0.00399525 0)
(-0.00018967 0.0061357 0)
(-0.00239213 0.0177518 0)
(-0.00648322 0.0282027 0)
(-0.0122129 0.0370282 0)
(-0.0191403 0.0439046 0)
(-0.0268621 0.048631 0)
(-0.0350026 0.0511135 0)
(-0.043206 0.0513539 0)
(-0.0511429 0.0494368 0)
(-0.0585174 0.0455183 0)
(-0.0650723 0.0398129 0)
(-0.0705908 0.0325832 0)
(-0.0748981 0.0241293 0)
(-0.0778612 0.0147798 0)
(-0.0793896 0.00488378 0)
(-0.079435 -0.00519696 0)
(-0.0779923 -0.0150952 0)
(-0.0750995 -0.0244458 0)
(-0.0708391 -0.0328937 0)
(-0.0653391 -0.0401022 0)
(-0.0587731 -0.0457637 0)
(-0.0513608 -0.04961 0)
(-0.0433665 -0.0514246 0)
(-0.0350962 -0.0510562 0)
(-0.0268913 -0.0484319 0)
(-0.0191192 -0.0435702 0)
(-0.0121643 -0.0365928 0)
(-0.00643298 -0.0277345 0)
(-0.00236008 -0.017355 0)
(-0.000183692 -0.00594878 0)
(-0.000258726 0.00881658 0)
(-0.00317474 0.0251211 0)
(-0.00852606 0.039485 0)
(-0.0159522 0.0513736 0)
(-0.0248518 0.0604352 0)
(-0.0346888 0.0664792 0)
(-0.0449782 0.0694512 0)
(-0.0552731 0.0694144 0)
(-0.0651702 0.0665298 0)
(-0.0743164 0.0610391 0)
(-0.0824116 0.0532474 0)
(-0.089208 0.0435091 0)
(-0.0945084 0.0322163 0)
(-0.0981647 0.0197884 0)
(-0.100075 0.00666457 0)
(-0.100185 -0.0067035 0)
(-0.0984839 -0.0198576 0)
(-0.0950084 -0.0323394 0)
(-0.0898443 -0.0436975 0)
(-0.0831285 -0.0534962 0)
(-0.0750528 -0.0613255 0)
(-0.0658666 -0.0668147 0)
(-0.0558789 -0.0696472 0)
(-0.0454577 -0.0695787 0)
(-0.0350261 -0.0664565 0)
(-0.0250527 -0.0602403 0)
(-0.0160424 -0.0510205 0)
(-0.00854514 -0.039037 0)
(-0.0031649 -0.0246986 0)
(-0.000253481 -0.00859952 0)
(-0.000346586 0.0123535 0)
(-0.0041384 0.0347243 0)
(-0.0110073 0.0540429 0)
(-0.0204411 0.069711 0)
(-0.0316303 0.081376 0)
(-0.0438727 0.0888952 0)
(-0.0565539 0.092297 0)
(-0.0691271 0.0917498 0)
(-0.0811155 0.0875326 0)
(-0.0921158 0.0800083 0)
(-0.101797 0.0696018 0)
(-0.109893 0.0567817 0)
(-0.116199 0.0420469 0)
(-0.120562 0.0259175 0)
(-0.122878 0.00892777 0)
(-0.123087 -0.0083776 0)
(-0.121173 -0.0254468 0)
(-0.117165 -0.041724 0)
(-0.111141 -0.0566538 0)
(-0.103231 -0.0696872 0)
(-0.09363 -0.0802917 0)
(-0.0826004 -0.087965 0)
(-0.0704827 -0.0922538 0)
(-0.0577 -0.092777 0)
(-0.0447588 -0.0892545 0)
(-0.0322417 -0.0815378 0)
(-0.0208004 -0.0696414 0)
(-0.0111696 -0.0537746 0)
(-0.0041798 -0.0343754 0)
(-0.000344696 -0.0121377 0)
(-0.000457725 0.0169407 0)
(-0.00531028 0.0470157 0)
(-0.0139704 0.0724674 0)
(-0.025715 0.0926611 0)
(-0.0394631 0.107295 0)
(-0.0543067 0.116339 0)
(-0.0694837 0.119976 0)
(-0.0843467 0.118549 0)
(-0.0983581 0.112514 0)
(-0.111087 0.102406 0)
(-0.122197 0.0888051 0)
(-0.131435 0.072316 0)
(-0.138611 0.0535565 0)
(-0.143592 0.0331485 0)
(-0.146284 0.0117168 0)
(-0.146631 -0.0101105 0)
(-0.144609 -0.0316984 0)
(-0.14023 -0.052402 0)
(-0.133546 -0.0715644 0)
(-0.124657 -0.0885178 0)
(-0.11373 -0.10259 0)
(-0.101009 -0.113116 0)
(-0.086834 -0.11946 0)
(-0.0716601 -0.121044 0)
(-0.0560637 -0.117389 0)
(-0.0407458 -0.108157 0)
(-0.0265295 -0.0932113 0)
(-0.0143855 -0.0726617 0)
(-0.00544808 -0.0469294 0)
(-0.000463772 -0.0167938 0)
(-0.000599428 0.0228063 0)
(-0.00672998 0.0624918 0)
(-0.0174671 0.095346 0)
(-0.0317864 0.120752 0)
(-0.0482496 0.138553 0)
(-0.0656962 0.148948 0)
(-0.0832066 0.152391 0)
(-0.10005 0.149506 0)
(-0.115663 0.141014 0)
(-0.129635 0.127684 0)
(-0.141677 0.110294 0)
(-0.151594 0.0896067 0)
(-0.159261 0.0663584 0)
(-0.164593 0.0412612 0)
(-0.167536 0.0150068 0)
(-0.168051 -0.0117232 0)
(-0.166108 -0.0382436 0)
(-0.161682 -0.063846 0)
(-0.154777 -0.0877933 0)
(-0.14543 -0.109313 0)
(-0.133729 -0.127586 0)
(-0.119844 -0.141759 0)
(-0.104061 -0.150961 0)
(-0.0868083 -0.154336 0)
(-0.0686938 -0.151101 0)
(-0.0505183 -0.140607 0)
(-0.0332922 -0.122427 0)
(-0.0182806 -0.0964502 0)
(-0.00702736 -0.0629847 0)
(-0.000620571 -0.0228502 0)
(-0.000785775 0.0302345 0)
(-0.00847043 0.0817078 0)
(-0.0215825 0.123227 0)
(-0.0386515 0.154303 0)
(-0.0577613 0.175103 0)
(-0.0774527 0.186259 0)
(-0.0966626 0.188689 0)
(-0.114631 0.183457 0)
(-0.130849 0.171672 0)
(-0.145009 0.154417 0)
(-0.156956 0.132705 0)
(-0.166632 0.107464 0)
(-0.174034 0.0795354 0)
(-0.179184 0.0496838 0)
(-0.182097 0.0186197 0)
(-0.182769 -0.0129791 0)
(-0.181171 -0.0444399 0)
(-0.177244 -0.07506 0)
(-0.170904 -0.104068 0)
(-0.162063 -0.130612 0)
(-0.15067 -0.153754 0)
(-0.136742 -0.172449 0)
(-0.12041 -0.185538 0)
(-0.101983 -0.191796 0)
(-0.0820064 -0.189987 0)
(-0.0613171 -0.178961 0)
(-0.0410966 -0.15778 0)
(-0.0229603 -0.125877 0)
(-0.00900532 -0.0832559 0)
(-0.000832125 -0.0306647 0)
(-0.00104708 0.0396259 0)
(-0.0106825 0.105329 0)
(-0.0264791 0.156563 0)
(-0.0462811 0.193215 0)
(-0.0675342 0.216131 0)
(-0.0884617 0.226739 0)
(-0.107937 0.226731 0)
(-0.125303 0.217846 0)
(-0.140249 0.201728 0)
(-0.152718 0.179851 0)
(-0.162807 0.153489 0)
(-0.170691 0.123722 0)
(-0.17658 0.0914328 0)
(-0.180661 0.057367 0)
(-0.183061 0.0221695 0)
(-0.183829 -0.0135738 0)
(-0.182934 -0.0492895 0)
(-0.18027 -0.0843714 0)
(-0.175652 -0.118134 0)
(-0.168833 -0.149749 0)
(-0.159542 -0.178199 0)
(-0.147529 -0.202255 0)
(-0.132641 -0.220462 0)
(-0.1149 -0.231142 0)
(-0.0946174 -0.232437 0)
(-0.0725086 -0.222419 0)
(-0.0498286 -0.199272 0)
(-0.0285599 -0.161558 0)
(-0.0115327 -0.108572 0)
(-0.00113117 -0.0407246 0)
(-0.00145603 0.0516425 0)
(-0.0136812 0.134238 0)
(-0.0324358 0.195587 0)
(-0.0544985 0.236558 0)
(-0.0765132 0.259406 0)
(-0.0964892 0.267007 0)
(-0.113474 0.2623 0)
(-0.127187 0.247989 0)
(-0.137763 0.226402 0)
(-0.145582 0.19944 0)
(-0.151175 0.168584 0)
(-0.155059 0.134964 0)
(-0.157691 0.0994312 0)
(-0.159446 0.0625975 0)
(-0.160591 0.0249142 0)
(-0.161262 -0.0132521 0)
(-0.161455 -0.0515537 0)
(-0.161017 -0.0896032 0)
(-0.159652 -0.126907 0)
(-0.156934 -0.162788 0)
(-0.152325 -0.196309 0)
(-0.145219 -0.226191 0)
(-0.135016 -0.250739 0)
(-0.121237 -0.267797 0)
(-0.103674 -0.274737 0)
(-0.0825979 -0.268488 0)
(-0.0590459 -0.245842 0)
(-0.0352356 -0.203733 0)
(-0.0148911 -0.139914 0)
(-0.00159016 -0.0537685 0)
(-0.00216885 0.067465 0)
(-0.0180486 0.169592 0)
(-0.0397009 0.239803 0)
(-0.0623577 0.281529 0)
(-0.081895 0.299941 0)
(-0.096614 0.300475 0)
(-0.106264 0.287941 0)
(-0.111479 0.26624 0)
(-0.113191 0.238384 0)
(-0.112428 0.206566 0)
(-0.110157 0.172312 0)
(-0.10727 0.136617 0)
(-0.104505 0.100097 0)
(-0.102426 0.0630939 0)
(-0.101423 0.02576 0)
(-0.101706 -0.0118645 0)
(-0.103305 -0.0497802 0)
(-0.106056 -0.0879561 0)
(-0.109603 -0.126251 0)
(-0.113387 -0.164324 0)
(-0.116636 -0.20152 0)
(-0.118379 -0.236743 0)
(-0.117487 -0.268292 0)
(-0.112765 -0.293703 0)
(-0.103129 -0.309585 0)
(-0.0878814 -0.311593 0)
(-0.067224 -0.294235 0)
(-0.0429529 -0.251634 0)
(-0.0195766 -0.178368 0)
(-0.0023679 -0.071012 0)
(-0.00331723 0.0893815 0)
(-0.0243978 0.212578 0)
(-0.0472455 0.286291 0)
(-0.0655818 0.320847 0)
(-0.0755253 0.327422 0)
(-0.0772044 0.315395 0)
(-0.0721444 0.291812 0)
(-0.0623029 0.261613 0)
(-0.0496213 0.22804 0)
(-0.0358182 0.193139 0)
(-0.0222992 0.158111 0)
(-0.0101875 0.123567 0)
(-0.000314904 0.0896955 0)
(0.0067265 0.0564167 0)
(0.0105486 0.0234781 0)
(0.0109343 -0.0094698 0)
(0.0078283 -0.042818 0)
(0.00134044 -0.0769449 0)
(-0.0082347 -0.112155 0)
(-0.020382 -0.148598 0)
(-0.0343155 -0.186155 0)
(-0.0489219 -0.224266 0)
(-0.0627114 -0.261694 0)
(-0.0738058 -0.296192 0)
(-0.0800041 -0.324097 0)
(-0.0790265 -0.339765 0)
(-0.0689987 -0.335616 0)
(-0.0499661 -0.3013 0)
(-0.0259111 -0.224522 0)
(-0.00354919 -0.0945641 0)
(-0.00518545 0.12432 0)
(-0.0314933 0.263416 0)
(-0.0470394 0.323806 0)
(-0.0476745 0.335691 0)
(-0.034328 0.320438 0)
(-0.0108499 0.291286 0)
(0.0184149 0.256173 0)
(0.0499541 0.219706 0)
(0.0811823 0.184331 0)
(0.110217 0.151179 0)
(0.135813 0.120563 0)
(0.157185 0.0923265 0)
(0.173839 0.0660702 0)
(0.185473 0.0412702 0)
(0.191906 0.0173394 0)
(0.19303 -0.00634334 0)
(0.188784 -0.0304227 0)
(0.17916 -0.0555591 0)
(0.164217 -0.082409 0)
(0.144134 -0.1116 0)
(0.119286 -0.143662 0)
(0.090369 -0.178894 0)
(0.0585573 -0.217125 0)
(0.0257044 -0.257309 0)
(-0.00544364 -0.296873 0)
(-0.0310885 -0.330734 0)
(-0.0464741 -0.349909 0)
(-0.0471546 -0.33978 0)
(-0.0320416 -0.277692 0)
(-0.00540412 -0.131196 0)
(-0.0142209 0.184015 0)
(-0.0279402 0.316504 0)
(-0.00304547 0.331174 0)
(0.0467455 0.301591 0)
(0.106384 0.258274 0)
(0.167087 0.213821 0)
(0.224526 0.173368 0)
(0.276452 0.138582 0)
(0.321743 0.109485 0)
(0.360112 0.0853588 0)
(0.391653 0.0652788 0)
(0.416639 0.0483359 0)
(0.435388 0.0337087 0)
(0.448183 0.0206712 0)
(0.455224 0.00857464 0)
(0.456607 -0.00318426 0)
(0.452307 -0.0152099 0)
(0.442173 -0.0281366 0)
(0.425945 -0.0426475 0)
(0.40325 -0.0595433 0)
(0.37365 -0.0797586 0)
(0.336718 -0.104353 0)
(0.292183 -0.134436 0)
(0.240169 -0.170935 0)
(0.181567 -0.214053 0)
(0.118558 -0.26215 0)
(0.055621 -0.309641 0)
(0.00193269 -0.342635 0)
(-0.0262302 -0.328098 0)
(-0.0141927 -0.190414 0)
(0.101828 0.0968716 0)
(0.169708 0.136217 0)
(0.284791 0.117478 0)
(0.400533 0.0906165 0)
(0.496069 0.0676764 0)
(0.571337 0.0496685 0)
(0.630367 0.0359968 0)
(0.676455 0.0258932 0)
(0.712195 0.0185355 0)
(0.739673 0.0131935 0)
(0.760539 0.00928844 0)
(0.776046 0.00638598 0)
(0.787107 0.004165 0)
(0.79436 0.00238524 0)
(0.798207 0.000859767 0)
(0.798826 -0.00057677 0)
(0.796322 -0.00201614 0)
(0.790404 -0.00370473 0)
(0.78075 -0.00578403 0)
(0.766725 -0.00848934 0)
(0.747391 -0.0121499 0)
(0.721446 -0.0172136 0)
(0.687134 -0.024284 0)
(0.642201 -0.0341352 0)
(0.583845 -0.0476576 0)
(0.508479 -0.0657384 0)
(0.411719 -0.0891336 0)
(0.293261 -0.117029 0)
(0.17425 -0.13731 0)
(0.10287 -0.0985612 0)
)
;

boundaryField
{
    movingWall
    {
        type            fixedValue;
        value           uniform (1 0 0);
    }
    fixedWalls
    {
        type            noSlip;
    }
    frontAndBack
    {
        type            empty;
    }
}


// ************************************************************************* //
