/*--------------------------------*- C++ -*----------------------------------*\
  =========                 |
  \\      /  F ield         | OpenFOAM: The Open Source CFD Toolbox
   \\    /   O peration     | Website:  https://openfoam.org
    \\  /    A nd           | Version:  12
     \\/     M anipulation  |
\*---------------------------------------------------------------------------*/
FoamFile
{
    format      ascii;
    class       volScalarField;
    location    "0.5";
    object      nut;
}
// * * * * * * * * * * * * * * * * * * * * * * * * * * * * * * * * * * * * * //

dimensions      [0 2 -1 0 0 0 0];

internalField   nonuniform List<scalar> 
5625
(
8.69762e-13
5.86524e-12
1.29219e-11
2.10582e-11
2.97211e-11
3.85089e-11
4.711e-11
5.52848e-11
6.28585e-11
6.97164e-11
7.57981e-11
8.10907e-11
8.56198e-11
8.94406e-11
9.26276e-11
9.52659e-11
9.74431e-11
9.92433e-11
1.00743e-10
1.02009e-10
1.03097e-10
1.04052e-10
1.04909e-10
1.05696e-10
1.06435e-10
1.07142e-10
1.0783e-10
1.08511e-10
1.09193e-10
1.09883e-10
1.10588e-10
1.11313e-10
1.1206e-10
1.12829e-10
1.13618e-10
1.14419e-10
1.15222e-10
1.16013e-10
1.16775e-10
1.17487e-10
1.18126e-10
1.18672e-10
1.19102e-10
1.19401e-10
1.19555e-10
1.19555e-10
1.19401e-10
1.19092e-10
1.18626e-10
1.17998e-10
1.17197e-10
1.16204e-10
1.14985e-10
1.1349e-10
1.11653e-10
1.09402e-10
1.06652e-10
1.03315e-10
9.93165e-11
9.46027e-11
8.91545e-11
8.29959e-11
7.61995e-11
6.88863e-11
6.12172e-11
5.33788e-11
4.55652e-11
3.79583e-11
3.07131e-11
2.39487e-11
1.77501e-11
1.21813e-11
7.31305e-12
3.28339e-12
4.8621e-13
2.62771e-11
8.54984e-10
2.12195e-09
3.54473e-09
5.04466e-09
6.5593e-09
8.03778e-09
9.44031e-09
1.07377e-08
1.19109e-08
1.29499e-08
1.38529e-08
1.46247e-08
1.5275e-08
1.58167e-08
1.62646e-08
1.66338e-08
1.69387e-08
1.71925e-08
1.74066e-08
1.75905e-08
1.77517e-08
1.78963e-08
1.80291e-08
1.81535e-08
1.82724e-08
1.8388e-08
1.8502e-08
1.8616e-08
1.87312e-08
1.88485e-08
1.89689e-08
1.90925e-08
1.92195e-08
1.93491e-08
1.94803e-08
1.96112e-08
1.97393e-08
1.98617e-08
1.99747e-08
2.00747e-08
2.01581e-08
2.02214e-08
2.02621e-08
2.02781e-08
2.02682e-08
2.02331e-08
2.01728e-08
2.00877e-08
1.99772e-08
1.98401e-08
1.96733e-08
1.94713e-08
1.9226e-08
1.89252e-08
1.85546e-08
1.80977e-08
1.75413e-08
1.68721e-08
1.60799e-08
1.51605e-08
1.41172e-08
1.29621e-08
1.17159e-08
1.04067e-08
9.06722e-09
7.73152e-09
6.43154e-09
5.19421e-09
4.0398e-09
2.98205e-09
2.02987e-09
1.19059e-09
4.7668e-10
1.46535e-11
5.57086e-11
4.54839e-09
1.44203e-08
2.57241e-08
3.74848e-08
4.92493e-08
6.06623e-08
7.14414e-08
8.1378e-08
9.03367e-08
9.82499e-08
1.0511e-07
1.10959e-07
1.15874e-07
1.19959e-07
1.23327e-07
1.26097e-07
1.28378e-07
1.30273e-07
1.31866e-07
1.33231e-07
1.34424e-07
1.3549e-07
1.36465e-07
1.37375e-07
1.38241e-07
1.39077e-07
1.39897e-07
1.4071e-07
1.41526e-07
1.42351e-07
1.43188e-07
1.44039e-07
1.44901e-07
1.45769e-07
1.4663e-07
1.47469e-07
1.48265e-07
1.48995e-07
1.49631e-07
1.50146e-07
1.50515e-07
1.50715e-07
1.50732e-07
1.50559e-07
1.50192e-07
1.4965e-07
1.48941e-07
1.4808e-07
1.47067e-07
1.459e-07
1.44564e-07
1.43023e-07
1.41216e-07
1.39052e-07
1.36423e-07
1.33202e-07
1.29265e-07
1.24493e-07
1.18791e-07
1.1211e-07
1.04463e-07
9.59317e-08
8.66732e-08
7.6905e-08
6.68857e-08
5.68858e-08
4.71573e-08
3.79089e-08
2.92904e-08
2.13904e-08
1.42453e-08
7.86916e-09
2.49584e-09
3.0779e-11
9.08965e-11
1.06012e-08
4.27728e-08
8.37806e-08
1.26843e-07
1.69634e-07
2.10843e-07
2.49523e-07
2.84998e-07
3.1684e-07
3.44854e-07
3.6905e-07
3.89604e-07
4.06817e-07
4.2107e-07
4.3278e-07
4.4237e-07
4.50239e-07
4.56743e-07
4.62188e-07
4.66825e-07
4.70856e-07
4.74435e-07
4.77682e-07
4.80685e-07
4.83512e-07
4.86214e-07
4.8883e-07
4.91391e-07
4.93919e-07
4.9643e-07
4.9893e-07
5.01413e-07
5.03862e-07
5.06244e-07
5.08511e-07
5.10597e-07
5.12426e-07
5.1391e-07
5.14957e-07
5.1548e-07
5.15404e-07
5.14678e-07
5.13277e-07
5.11211e-07
5.08515e-07
5.05286e-07
5.01598e-07
4.97598e-07
4.93214e-07
4.88529e-07
4.83504e-07
4.78025e-07
4.71882e-07
4.64755e-07
4.56258e-07
4.4592e-07
4.33249e-07
4.17774e-07
3.99108e-07
3.77023e-07
3.51513e-07
3.22836e-07
2.91523e-07
2.58339e-07
2.24206e-07
1.90093e-07
1.56898e-07
1.25353e-07
9.59561e-08
6.89643e-08
4.44459e-08
2.26151e-08
5.71847e-09
4.94831e-11
1.30655e-10
1.77965e-08
8.57644e-08
1.85156e-07
2.93727e-07
4.02106e-07
5.06034e-07
6.03015e-07
6.91449e-07
7.70411e-07
8.39546e-07
8.98987e-07
9.49262e-07
9.91183e-07
1.02574e-06
1.054e-06
1.07704e-06
1.09583e-06
1.11128e-06
1.12412e-06
1.13498e-06
1.14433e-06
1.15255e-06
1.15992e-06
1.16665e-06
1.17288e-06
1.17873e-06
1.18429e-06
1.1896e-06
1.1947e-06
1.19962e-06
1.20434e-06
1.20883e-06
1.21301e-06
1.21678e-06
1.21999e-06
1.22249e-06
1.22407e-06
1.22451e-06
1.22362e-06
1.22122e-06
1.21718e-06
1.21145e-06
1.20405e-06
1.19508e-06
1.18486e-06
1.17341e-06
1.1613e-06
1.149e-06
1.1361e-06
1.123e-06
1.10963e-06
1.09573e-06
1.08078e-06
1.06402e-06
1.04448e-06
1.02099e-06
9.92303e-07
9.57233e-07
9.14788e-07
8.64358e-07
8.05869e-07
7.39888e-07
6.67631e-07
5.90884e-07
5.11808e-07
4.32681e-07
3.55613e-07
2.82303e-07
2.13881e-07
1.50915e-07
9.37258e-08
4.39063e-08
9.40402e-09
6.97014e-11
1.74124e-10
2.55888e-08
1.38839e-07
3.2641e-07
5.43298e-07
7.63521e-07
9.75019e-07
1.17166e-06
1.35007e-06
1.50853e-06
1.64656e-06
1.76466e-06
1.86406e-06
1.94656e-06
2.01424e-06
2.06931e-06
2.11394e-06
2.15014e-06
2.17968e-06
2.20404e-06
2.22444e-06
2.24182e-06
2.25689e-06
2.2702e-06
2.28212e-06
2.29293e-06
2.30282e-06
2.31192e-06
2.32032e-06
2.32803e-06
2.33506e-06
2.34132e-06
2.34671e-06
2.35102e-06
2.35403e-06
2.3554e-06
2.3548e-06
2.35181e-06
2.34608e-06
2.33725e-06
2.32508e-06
2.30943e-06
2.29033e-06
2.26798e-06
2.24281e-06
2.21569e-06
2.18642e-06
2.15662e-06
2.12738e-06
2.09748e-06
2.06799e-06
2.03877e-06
2.00929e-06
1.97855e-06
1.94506e-06
1.90694e-06
1.86197e-06
1.8078e-06
1.74221e-06
1.66339e-06
1.57024e-06
1.46264e-06
1.34163e-06
1.2094e-06
1.06913e-06
9.24645e-07
7.79983e-07
6.38879e-07
5.04353e-07
3.78461e-07
2.62322e-07
1.57264e-07
6.86744e-08
1.31756e-08
9.05371e-11
2.20713e-10
3.38013e-08
1.982e-07
4.98872e-07
8.68027e-07
1.25246e-06
1.62439e-06
1.97001e-06
2.28246e-06
2.5587e-06
2.79815e-06
3.00202e-06
3.17281e-06
3.31386e-06
3.429e-06
3.52221e-06
3.59731e-06
3.65784e-06
3.70686e-06
3.74693e-06
3.78012e-06
3.80803e-06
3.83188e-06
3.85252e-06
3.8706e-06
3.88653e-06
3.9006e-06
3.91297e-06
3.92371e-06
3.93281e-06
3.94017e-06
3.9456e-06
3.94882e-06
3.94942e-06
3.94693e-06
3.94078e-06
3.93034e-06
3.91499e-06
3.89415e-06
3.86736e-06
3.83438e-06
3.79517e-06
3.75003e-06
3.69948e-06
3.64504e-06
3.58693e-06
3.52655e-06
3.46614e-06
3.40758e-06
3.34853e-06
3.29106e-06
3.23485e-06
3.17898e-06
3.12178e-06
3.06082e-06
2.99302e-06
2.91506e-06
2.82337e-06
2.71465e-06
2.58628e-06
2.43674e-06
2.26598e-06
2.07561e-06
1.86889e-06
1.65049e-06
1.42599e-06
1.20124e-06
9.81665e-07
7.71681e-07
5.74368e-07
3.91936e-07
2.28002e-07
9.43339e-08
1.68581e-08
1.11268e-10
2.70007e-10
4.23709e-08
2.61595e-07
6.93811e-07
1.25436e-06
1.85511e-06
2.44285e-06
2.99034e-06
3.48442e-06
3.91965e-06
4.2953e-06
4.6137e-06
4.87921e-06
5.09748e-06
5.27481e-06
5.41762e-06
5.53206e-06
5.6237e-06
5.69735e-06
5.75702e-06
5.8059e-06
5.84645e-06
5.88049e-06
5.90935e-06
5.93392e-06
5.95481e-06
5.97237e-06
5.98677e-06
5.99805e-06
6.00607e-06
6.01057e-06
6.01113e-06
6.00721e-06
5.9981e-06
5.98297e-06
5.96093e-06
5.93103e-06
5.89236e-06
5.84418e-06
5.786e-06
5.71765e-06
5.63942e-06
5.55186e-06
5.45718e-06
5.35576e-06
5.24988e-06
5.14155e-06
5.03432e-06
4.93035e-06
4.82628e-06
4.72533e-06
4.62691e-06
4.52962e-06
4.43107e-06
4.32782e-06
4.21572e-06
4.09032e-06
3.94703e-06
3.78173e-06
3.59126e-06
3.37397e-06
3.13006e-06
2.86178e-06
2.57338e-06
2.27075e-06
1.96084e-06
1.65087e-06
1.34755e-06
1.05644e-06
7.81673e-07
5.26949e-07
2.99443e-07
1.19161e-07
2.03485e-08
1.31333e-10
3.21685e-10
5.12672e-08
3.27856e-07
9.04605e-07
1.68827e-06
2.55217e-06
3.40893e-06
4.21051e-06
4.93357e-06
5.56887e-06
6.11523e-06
6.57647e-06
6.95954e-06
7.27311e-06
7.52672e-06
7.73e-06
7.89204e-06
8.02102e-06
8.12395e-06
8.20662e-06
8.2736e-06
8.32841e-06
8.37362e-06
8.41105e-06
8.44193e-06
8.46703e-06
8.48677e-06
8.50129e-06
8.51047e-06
8.514e-06
8.51134e-06
8.50175e-06
8.48429e-06
8.45786e-06
8.42129e-06
8.37319e-06
8.3122e-06
8.23719e-06
8.14726e-06
8.04199e-06
7.92146e-06
7.78609e-06
7.63865e-06
7.47965e-06
7.31205e-06
7.13872e-06
6.96271e-06
6.78939e-06
6.62025e-06
6.45161e-06
6.28782e-06
6.12794e-06
5.97017e-06
5.81145e-06
5.64771e-06
5.47413e-06
5.28538e-06
5.07626e-06
4.84226e-06
4.58008e-06
4.28815e-06
3.96699e-06
3.61938e-06
3.2502e-06
2.86603e-06
2.47455e-06
2.08364e-06
1.70065e-06
1.33171e-06
9.81779e-07
6.56311e-07
3.66715e-07
1.42107e-07
2.35802e-08
1.50289e-10
3.75488e-10
6.04678e-08
3.96398e-07
1.12686e-06
2.1581e-06
3.32456e-06
4.49739e-06
5.60095e-06
6.5975e-06
7.47172e-06
8.2214e-06
8.85207e-06
9.37377e-06
9.79912e-06
1.01417e-05
1.04152e-05
1.06321e-05
1.08038e-05
1.09399e-05
1.10484e-05
1.11354e-05
1.12057e-05
1.12626e-05
1.13086e-05
1.13453e-05
1.13736e-05
1.13939e-05
1.14062e-05
1.14103e-05
1.14055e-05
1.13909e-05
1.13653e-05
1.13272e-05
1.12751e-05
1.12069e-05
1.11208e-05
1.10153e-05
1.08889e-05
1.07407e-05
1.05704e-05
1.03782e-05
1.01671e-05
9.93794e-06
9.69387e-06
9.43855e-06
9.17607e-06
8.91053e-06
8.64953e-06
8.39279e-06
8.13764e-06
7.88917e-06
7.64633e-06
7.4072e-06
7.16846e-06
6.92569e-06
6.67381e-06
6.40735e-06
6.12099e-06
5.8102e-06
5.47173e-06
5.10411e-06
4.70799e-06
4.28628e-06
3.844e-06
3.38784e-06
2.92551e-06
2.46489e-06
2.01324e-06
1.5767e-06
1.16063e-06
7.72091e-07
4.26714e-07
1.62587e-07
2.65117e-08
1.67841e-10
4.31201e-10
6.99527e-08
4.66911e-07
1.35783e-06
2.65517e-06
4.15591e-06
5.68471e-06
7.13198e-06
8.44096e-06
9.58818e-06
1.05697e-05
1.1393e-05
1.20718e-05
1.26232e-05
1.30659e-05
1.34177e-05
1.36957e-05
1.39147e-05
1.40873e-05
1.42239e-05
1.43324e-05
1.44189e-05
1.44879e-05
1.45423e-05
1.45841e-05
1.46143e-05
1.46332e-05
1.46408e-05
1.46364e-05
1.4619e-05
1.45872e-05
1.45391e-05
1.44726e-05
1.43855e-05
1.4275e-05
1.4139e-05
1.39752e-05
1.37822e-05
1.35589e-05
1.33051e-05
1.3023e-05
1.27145e-05
1.23825e-05
1.2031e-05
1.16651e-05
1.12902e-05
1.09116e-05
1.05393e-05
1.01705e-05
9.80532e-06
9.44892e-06
9.10083e-06
8.75943e-06
8.42169e-06
8.08342e-06
7.73989e-06
7.38597e-06
7.01648e-06
6.62695e-06
6.21399e-06
5.77585e-06
5.31281e-06
4.82738e-06
4.3242e-06
3.80954e-06
3.29066e-06
2.77498e-06
2.26924e-06
1.77912e-06
1.30988e-06
8.69734e-07
4.77859e-07
1.80352e-07
2.91256e-08
1.83845e-10
4.88637e-10
7.97022e-08
5.3921e-07
1.59587e-06
3.17336e-06
5.03335e-06
6.95068e-06
8.77651e-06
1.0431e-05
1.18803e-05
1.31181e-05
1.41535e-05
1.50047e-05
1.56941e-05
1.62456e-05
1.66824e-05
1.70262e-05
1.72959e-05
1.75073e-05
1.76736e-05
1.78046e-05
1.7908e-05
1.79891e-05
1.80515e-05
1.80976e-05
1.81284e-05
1.81443e-05
1.81447e-05
1.81287e-05
1.80946e-05
1.80404e-05
1.79635e-05
1.7861e-05
1.77296e-05
1.75662e-05
1.73677e-05
1.71316e-05
1.6856e-05
1.65399e-05
1.61849e-05
1.57919e-05
1.53649e-05
1.49077e-05
1.44257e-05
1.39255e-05
1.3414e-05
1.28982e-05
1.23898e-05
1.18839e-05
1.13852e-05
1.08984e-05
1.04245e-05
9.96274e-06
9.51106e-06
9.06596e-06
8.62357e-06
8.17941e-06
7.72814e-06
7.26504e-06
6.78587e-06
6.28792e-06
5.77038e-06
5.23476e-06
4.68483e-06
4.12616e-06
3.56539e-06
3.00938e-06
2.46428e-06
1.93513e-06
1.42674e-06
9.4776e-07
5.19802e-07
1.95426e-07
3.14301e-08
1.98317e-10
5.47631e-10
8.9697e-08
6.13167e-07
1.83996e-06
3.70847e-06
5.94722e-06
8.27901e-06
1.05116e-05
1.25386e-05
1.43138e-05
1.58274e-05
1.70908e-05
1.81266e-05
1.89631e-05
1.96301e-05
2.01568e-05
2.05699e-05
2.08926e-05
2.11445e-05
2.13414e-05
2.14955e-05
2.16159e-05
2.1709e-05
2.1779e-05
2.18286e-05
2.18589e-05
2.18699e-05
2.18609e-05
2.18302e-05
2.17756e-05
2.1694e-05
2.15821e-05
2.14359e-05
2.12512e-05
2.1024e-05
2.07506e-05
2.04279e-05
2.00538e-05
1.96266e-05
1.91534e-05
1.86283e-05
1.80611e-05
1.7456e-05
1.682e-05
1.61614e-05
1.54888e-05
1.4812e-05
1.41426e-05
1.34759e-05
1.28219e-05
1.21852e-05
1.15689e-05
1.0974e-05
1.03999e-05
9.84387e-06
9.30321e-06
8.77412e-06
8.25007e-06
7.72541e-06
7.19396e-06
6.65105e-06
6.094e-06
5.52275e-06
4.93993e-06
4.35035e-06
3.76021e-06
3.17608e-06
2.60385e-06
2.04811e-06
1.5131e-06
1.00723e-06
5.53189e-07
2.08058e-07
3.3459e-08
2.11432e-10
6.08033e-10
9.99181e-08
6.8867e-07
2.08945e-06
4.25762e-06
6.89041e-06
9.65701e-06
1.23186e-05
1.47394e-05
1.68591e-05
1.86638e-05
2.01671e-05
2.13965e-05
2.23867e-05
2.3174e-05
2.37938e-05
2.42782e-05
2.46554e-05
2.49486e-05
2.51766e-05
2.53539e-05
2.54912e-05
2.5596e-05
2.56731e-05
2.57253e-05
2.57538e-05
2.57585e-05
2.57378e-05
2.56896e-05
2.56106e-05
2.54969e-05
2.5344e-05
2.51466e-05
2.48997e-05
2.45982e-05
2.42376e-05
2.38143e-05
2.33245e-05
2.27736e-05
2.21579e-05
2.14824e-05
2.07536e-05
1.9978e-05
1.91648e-05
1.8324e-05
1.74663e-05
1.6606e-05
1.57515e-05
1.49039e-05
1.40759e-05
1.32745e-05
1.2505e-05
1.17712e-05
1.10744e-05
1.04116e-05
9.78131e-06
9.18074e-06
8.59968e-06
8.03116e-06
7.46533e-06
6.89465e-06
6.31378e-06
5.7207e-06
5.11685e-06
4.5065e-06
3.89583e-06
3.29173e-06
2.70048e-06
2.12676e-06
1.57442e-06
1.05117e-06
5.79439e-07
2.18694e-07
3.52714e-08
2.23517e-10
6.69704e-10
1.10347e-07
7.65621e-07
2.34385e-06
4.81878e-06
7.8577e-06
1.10749e-05
1.41827e-05
1.70135e-05
1.94916e-05
2.15987e-05
2.33504e-05
2.47796e-05
2.59276e-05
2.6838e-05
2.75525e-05
2.81093e-05
2.85413e-05
2.88759e-05
2.91349e-05
2.93351e-05
2.94888e-05
2.96047e-05
2.96881e-05
2.97422e-05
2.97678e-05
2.97645e-05
2.97301e-05
2.96616e-05
2.95547e-05
2.94043e-05
2.92045e-05
2.8949e-05
2.86312e-05
2.82451e-05
2.77854e-05
2.72464e-05
2.6629e-05
2.59332e-05
2.51589e-05
2.43125e-05
2.34008e-05
2.24328e-05
2.14197e-05
2.0374e-05
1.93094e-05
1.82444e-05
1.71834e-05
1.61387e-05
1.51235e-05
1.41486e-05
1.32225e-05
1.23519e-05
1.15412e-05
1.07835e-05
1.00791e-05
9.42805e-06
8.81053e-06
8.2197e-06
7.63942e-06
7.0586e-06
6.46863e-06
5.8654e-06
5.24936e-06
4.62465e-06
3.99805e-06
3.37755e-06
2.77066e-06
2.18296e-06
1.61843e-06
1.08393e-06
6.0053e-07
2.27936e-07
3.69482e-08
2.3504e-10
7.32517e-10
1.20966e-07
8.43925e-07
2.60275e-06
5.39047e-06
8.84517e-06
1.25252e-05
1.6092e-05
1.93448e-05
2.21912e-05
2.46083e-05
2.66138e-05
2.82463e-05
2.95543e-05
3.05887e-05
3.13983e-05
3.20273e-05
3.25136e-05
3.28889e-05
3.31781e-05
3.34004e-05
3.35699e-05
3.36961e-05
3.37851e-05
3.38399e-05
3.38615e-05
3.38487e-05
3.37986e-05
3.37073e-05
3.35691e-05
3.33776e-05
3.31254e-05
3.28048e-05
3.24078e-05
3.19271e-05
3.13561e-05
3.06894e-05
2.99284e-05
2.90716e-05
2.8121e-05
2.70841e-05
2.59693e-05
2.47878e-05
2.35535e-05
2.22817e-05
2.09921e-05
1.97016e-05
1.84191e-05
1.71652e-05
1.59558e-05
1.48055e-05
1.37266e-05
1.27326e-05
1.182e-05
1.0989e-05
1.02358e-05
9.55076e-06
8.92448e-06
8.33498e-06
7.76018e-06
7.18561e-06
6.59906e-06
5.9944e-06
5.37155e-06
4.73512e-06
4.09316e-06
3.45556e-06
2.83196e-06
2.22981e-06
1.65395e-06
1.11057e-06
6.1879e-07
2.365e-07
3.85884e-08
2.46583e-10
7.96352e-10
1.31757e-07
9.23483e-07
2.8658e-06
5.97152e-06
9.84979e-06
1.4002e-05
1.80373e-05
2.17202e-05
2.49414e-05
2.7673e-05
2.9935e-05
3.17721e-05
3.32403e-05
3.43982e-05
3.53019e-05
3.60017e-05
3.6541e-05
3.69557e-05
3.72739e-05
3.75172e-05
3.77013e-05
3.78368e-05
3.79302e-05
3.79849e-05
3.80011e-05
3.79773e-05
3.79097e-05
3.7793e-05
3.76203e-05
3.73836e-05
3.70738e-05
3.66816e-05
3.61975e-05
3.56128e-05
3.49172e-05
3.41138e-05
3.31935e-05
3.216e-05
3.10162e-05
2.97704e-05
2.84333e-05
2.70188e-05
2.5544e-05
2.40283e-05
2.24978e-05
2.09633e-05
1.94502e-05
1.79808e-05
1.65769e-05
1.52553e-05
1.40393e-05
1.29351e-05
1.19448e-05
1.10659e-05
1.02903e-05
9.60297e-06
8.98332e-06
8.41591e-06
7.86969e-06
7.31528e-06
6.74165e-06
6.141e-06
5.51339e-06
4.86458e-06
4.20451e-06
3.54567e-06
2.90071e-06
2.27987e-06
1.68973e-06
1.13635e-06
6.36672e-07
2.45156e-07
4.03025e-08
2.58809e-10
8.61096e-10
1.42703e-07
1.00419e-06
3.13266e-06
6.56093e-06
1.08691e-05
1.55005e-05
2.00107e-05
2.41291e-05
2.77285e-05
3.07764e-05
3.32953e-05
3.53363e-05
3.69633e-05
3.82428e-05
3.92384e-05
4.0007e-05
4.05973e-05
4.10494e-05
4.13948e-05
4.16575e-05
4.18548e-05
4.19983e-05
4.20951e-05
4.21482e-05
4.21579e-05
4.21216e-05
4.20345e-05
4.18901e-05
4.16798e-05
4.1394e-05
4.10219e-05
4.0552e-05
3.99733e-05
3.92742e-05
3.84481e-05
3.74918e-05
3.64005e-05
3.51757e-05
3.38227e-05
3.23512e-05
3.07744e-05
2.91094e-05
2.73767e-05
2.5605e-05
2.38151e-05
2.20282e-05
2.02784e-05
1.85934e-05
1.70008e-05
1.55195e-05
1.41857e-05
1.29949e-05
1.19542e-05
1.1056e-05
1.02862e-05
9.62266e-06
9.03752e-06
8.50042e-06
7.99905e-06
7.48016e-06
6.92571e-06
6.33136e-06
5.69814e-06
5.03368e-06
4.35037e-06
3.66385e-06
2.99042e-06
2.34393e-06
1.73362e-06
1.16615e-06
6.56551e-07
2.54677e-07
4.22057e-08
2.72426e-10
9.26645e-10
1.53788e-07
1.08596e-06
3.40302e-06
7.15783e-06
1.1901e-05
1.70167e-05
2.20061e-05
2.65625e-05
3.05412e-05
3.3905e-05
3.66792e-05
3.89217e-05
4.07046e-05
4.21027e-05
4.31871e-05
4.40215e-05
4.466e-05
4.51471e-05
4.55174e-05
4.57975e-05
4.60063e-05
4.61563e-05
4.6255e-05
4.63054e-05
4.63071e-05
4.62568e-05
4.61485e-05
4.59741e-05
4.57235e-05
4.53851e-05
4.49459e-05
4.43928e-05
4.37128e-05
4.28896e-05
4.19262e-05
4.08056e-05
3.95308e-05
3.81016e-05
3.6525e-05
3.48128e-05
3.29809e-05
3.10503e-05
2.90471e-05
2.70077e-05
2.49438e-05
2.29013e-05
2.09144e-05
1.9019e-05
1.72493e-05
1.56267e-05
1.41985e-05
1.29493e-05
1.18879e-05
1.10001e-05
1.02636e-05
9.64793e-06
9.11689e-06
8.6318e-06
8.16855e-06
7.70139e-06
7.17193e-06
6.58344e-06
5.94146e-06
5.25631e-06
4.54322e-06
3.82131e-06
3.11096e-06
2.43026e-06
1.79195e-06
1.20415e-06
6.80533e-07
2.65779e-07
4.44098e-08
2.88143e-10
9.92899e-10
1.64996e-07
1.16868e-06
3.67653e-06
7.76137e-06
1.29436e-05
1.85473e-05
2.4018e-05
2.90129e-05
3.33699e-05
3.70472e-05
4.00735e-05
4.25136e-05
4.44482e-05
4.59608e-05
4.71302e-05
4.80267e-05
4.87102e-05
4.92292e-05
4.96218e-05
4.9917e-05
5.01352e-05
5.02899e-05
5.03889e-05
5.04351e-05
5.04275e-05
5.03617e-05
5.02304e-05
5.0024e-05
4.97305e-05
4.93362e-05
4.88262e-05
4.81849e-05
4.73958e-05
4.64466e-05
4.53319e-05
4.404e-05
4.25708e-05
4.09257e-05
3.91132e-05
3.71472e-05
3.50472e-05
3.28379e-05
3.05592e-05
2.82342e-05
2.58952e-05
2.35949e-05
2.13754e-05
1.92803e-05
1.73494e-05
1.56107e-05
1.41105e-05
1.28351e-05
1.1783e-05
1.0935e-05
1.02567e-05
9.70935e-06
9.24853e-06
8.82625e-06
8.40789e-06
7.9851e-06
7.4928e-06
6.90745e-06
6.2519e-06
5.53994e-06
4.78991e-06
4.02452e-06
3.26843e-06
2.54437e-06
1.86927e-06
1.25362e-06
7.10298e-07
2.79074e-07
4.70162e-08
3.06624e-10
1.05977e-09
1.76312e-07
1.25225e-06
3.9529e-06
8.37076e-06
1.39953e-05
2.0089e-05
2.60416e-05
3.14738e-05
3.62062e-05
4.01931e-05
4.34666e-05
4.60994e-05
4.81806e-05
4.98026e-05
5.10523e-05
5.20068e-05
5.27313e-05
5.32788e-05
5.36907e-05
5.39982e-05
5.42235e-05
5.4381e-05
5.44786e-05
5.45191e-05
5.45006e-05
5.44178e-05
5.4262e-05
5.40217e-05
5.36831e-05
5.32302e-05
5.26459e-05
5.19126e-05
5.10074e-05
4.99284e-05
4.86556e-05
4.71841e-05
4.55117e-05
4.3641e-05
4.15821e-05
3.93517e-05
3.69733e-05
3.44785e-05
3.19161e-05
2.92949e-05
2.66818e-05
2.4127e-05
2.16837e-05
1.94042e-05
1.73299e-05
1.55046e-05
1.39618e-05
1.26869e-05
1.16735e-05
1.08911e-05
1.02917e-05
9.82908e-06
9.4509e-06
9.09668e-06
8.72837e-06
8.33951e-06
7.88905e-06
7.30736e-06
6.63223e-06
5.88678e-06
5.09257e-06
4.27585e-06
3.46552e-06
2.68913e-06
1.96828e-06
1.31665e-06
7.471e-07
2.95038e-07
5.0109e-08
3.28454e-10
1.12716e-09
1.87722e-07
1.33657e-06
4.23179e-06
8.98525e-06
1.50545e-05
2.16393e-05
2.80728e-05
3.39395e-05
3.90429e-05
4.33338e-05
4.68488e-05
4.96679e-05
5.18897e-05
5.36155e-05
5.49402e-05
5.59478e-05
5.67091e-05
5.72814e-05
5.77089e-05
5.80258e-05
5.82556e-05
5.84136e-05
5.85079e-05
5.8541e-05
5.85102e-05
5.8409e-05
5.82271e-05
5.79515e-05
5.75659e-05
5.70523e-05
5.6391e-05
5.55612e-05
5.45399e-05
5.33222e-05
5.18879e-05
5.02305e-05
4.8348e-05
4.62443e-05
4.39311e-05
4.14283e-05
3.8763e-05
3.59841e-05
3.31214e-05
3.02087e-05
2.73217e-05
2.45192e-05
2.18646e-05
1.94187e-05
1.72274e-05
1.53353e-05
1.37784e-05
1.25336e-05
1.15848e-05
1.08935e-05
1.03871e-05
1.0019e-05
9.73552e-06
9.45301e-06
9.12886e-06
8.77219e-06
8.35333e-06
7.78306e-06
7.08129e-06
6.29535e-06
5.44989e-06
4.57452e-06
3.70218e-06
2.86516e-06
2.09001e-06
1.39426e-06
7.91703e-07
3.13988e-07
5.37507e-08
3.54107e-10
1.195e-09
1.99214e-07
1.42155e-06
4.51288e-06
9.60412e-06
1.61195e-05
2.31954e-05
3.01076e-05
3.64045e-05
4.18733e-05
4.64618e-05
5.0211e-05
5.32095e-05
5.55651e-05
5.73881e-05
5.8782e-05
5.98376e-05
6.0631e-05
6.12238e-05
6.1663e-05
6.1986e-05
6.22175e-05
6.23734e-05
6.24626e-05
6.24866e-05
6.2442e-05
6.2321e-05
6.21118e-05
6.17994e-05
6.13656e-05
6.07898e-05
6.00502e-05
5.91192e-05
5.79822e-05
5.66224e-05
5.50226e-05
5.31753e-05
5.10781e-05
4.87363e-05
4.61635e-05
4.33831e-05
4.04288e-05
3.73633e-05
3.4192e-05
3.0992e-05
2.78364e-05
2.4796e-05
2.19451e-05
1.93555e-05
1.70613e-05
1.5134e-05
1.3589e-05
1.23983e-05
1.15472e-05
1.0954e-05
1.05474e-05
1.02857e-05
1.0095e-05
9.90282e-06
9.61412e-06
9.28242e-06
8.88288e-06
8.32844e-06
7.59582e-06
6.76219e-06
5.85858e-06
4.91774e-06
3.97639e-06
3.07135e-06
2.23412e-06
1.48658e-06
8.44356e-07
3.36083e-07
5.7979e-08
3.83924e-10
1.26322e-09
2.10774e-07
1.50709e-06
4.79583e-06
1.02267e-05
1.7189e-05
2.47548e-05
3.21425e-05
3.88643e-05
4.46916e-05
4.957e-05
5.35455e-05
5.67154e-05
5.91971e-05
6.11105e-05
6.25672e-05
6.36651e-05
6.44859e-05
6.50944e-05
6.55407e-05
6.58666e-05
6.60967e-05
6.62478e-05
6.63296e-05
6.63429e-05
6.6283e-05
6.6141e-05
6.59035e-05
6.55535e-05
6.50705e-05
6.44318e-05
6.36129e-05
6.25798e-05
6.13265e-05
5.98229e-05
5.80563e-05
5.60171e-05
5.37033e-05
5.11208e-05
4.82858e-05
4.52246e-05
4.19869e-05
3.86239e-05
3.51506e-05
3.16661e-05
2.82494e-05
2.49832e-05
2.19512e-05
1.92348e-05
1.68633e-05
1.49263e-05
1.34175e-05
1.23073e-05
1.15738e-05
1.10664e-05
1.07816e-05
1.06307e-05
1.05354e-05
1.0423e-05
1.01938e-05
9.86418e-06
9.47753e-06
8.93462e-06
8.17243e-06
7.28346e-06
6.31471e-06
5.30186e-06
4.28508e-06
3.30548e-06
2.39929e-06
1.59299e-06
9.04846e-07
3.61346e-07
6.28063e-08
4.18107e-10
1.33175e-09
2.22391e-07
1.59312e-06
5.08035e-06
1.08524e-05
1.82614e-05
2.63154e-05
3.41741e-05
4.13143e-05
4.74922e-05
5.26518e-05
5.68448e-05
6.01775e-05
6.27772e-05
6.47734e-05
6.62863e-05
6.74225e-05
6.82637e-05
6.88803e-05
6.93308e-05
6.9656e-05
6.98826e-05
7.00247e-05
7.0097e-05
7.0098e-05
7.00214e-05
6.98572e-05
6.95906e-05
6.92025e-05
6.86704e-05
6.79687e-05
6.70706e-05
6.59383e-05
6.45653e-05
6.29204e-05
6.09876e-05
5.87573e-05
5.62272e-05
5.34044e-05
5.03075e-05
4.69666e-05
4.34533e-05
3.97833e-05
3.60166e-05
3.22539e-05
2.85858e-05
2.51073e-05
2.19141e-05
1.90863e-05
1.66585e-05
1.47332e-05
1.32757e-05
1.22909e-05
1.16467e-05
1.12538e-05
1.10895e-05
1.10506e-05
1.10509e-05
1.10152e-05
1.08503e-05
1.05215e-05
1.0137e-05
9.59118e-06
8.80915e-06
7.85618e-06
6.81499e-06
5.72342e-06
4.62498e-06
3.56483e-06
2.58362e-06
1.71238e-06
9.72568e-07
3.89716e-07
6.82204e-08
4.56723e-10
1.40053e-09
2.34056e-07
1.67955e-06
5.36616e-06
1.14804e-05
1.93354e-05
2.78747e-05
3.61991e-05
4.37502e-05
5.027e-05
5.57013e-05
6.01022e-05
6.35883e-05
6.62973e-05
6.83683e-05
6.99329e-05
7.10997e-05
7.19513e-05
7.25731e-05
7.30229e-05
7.33436e-05
7.35634e-05
7.36945e-05
7.37536e-05
7.37408e-05
7.36461e-05
7.34588e-05
7.31626e-05
7.27365e-05
7.21557e-05
7.13921e-05
7.04153e-05
6.9187e-05
6.76974e-05
6.59132e-05
6.38173e-05
6.13989e-05
5.86556e-05
5.55958e-05
5.22405e-05
4.86266e-05
4.48398e-05
4.0864e-05
3.68123e-05
3.27797e-05
2.8871e-05
2.51934e-05
2.18514e-05
1.89337e-05
1.64674e-05
1.45718e-05
1.31919e-05
1.23374e-05
1.17697e-05
1.15095e-05
1.14673e-05
1.15399e-05
1.16347e-05
1.16721e-05
1.1572e-05
1.12553e-05
1.08566e-05
1.03027e-05
9.50057e-06
8.47913e-06
7.35757e-06
6.17998e-06
4.9933e-06
3.84676e-06
2.78502e-06
1.8434e-06
1.04683e-06
4.20954e-07
7.4191e-08
4.99715e-10
1.46951e-09
2.45759e-07
1.7663e-06
5.65299e-06
1.211e-05
2.04097e-05
2.94308e-05
3.82144e-05
4.61681e-05
5.30201e-05
5.87128e-05
6.33112e-05
6.69408e-05
6.97497e-05
7.18894e-05
7.34991e-05
7.46826e-05
7.55418e-05
7.61631e-05
7.6607e-05
7.69191e-05
7.71281e-05
7.72474e-05
7.72888e-05
7.7261e-05
7.71468e-05
7.69355e-05
7.66096e-05
7.61461e-05
7.55179e-05
7.46946e-05
7.36414e-05
7.23209e-05
7.07194e-05
6.88006e-05
6.6547e-05
6.39465e-05
6.09961e-05
5.77052e-05
5.40968e-05
5.02238e-05
4.61595e-05
4.1892e-05
3.75613e-05
3.32685e-05
2.91305e-05
2.52672e-05
2.17921e-05
1.87982e-05
1.63074e-05
1.4449e-05
1.31861e-05
1.24388e-05
1.19528e-05
1.18293e-05
1.19084e-05
1.20912e-05
1.228e-05
1.2391e-05
1.23541e-05
1.20566e-05
1.16356e-05
1.10704e-05
1.02441e-05
9.15336e-06
7.94252e-06
6.6707e-06
5.38834e-06
4.14916e-06
3.00157e-06
1.98467e-06
1.12691e-06
4.54726e-07
8.06724e-08
5.46925e-10
1.53865e-09
2.57493e-07
1.85332e-06
5.94061e-06
1.27405e-05
2.14831e-05
3.09814e-05
4.02173e-05
4.85642e-05
5.57377e-05
6.16807e-05
6.64657e-05
7.02284e-05
7.31278e-05
7.53305e-05
7.69726e-05
7.81651e-05
7.90263e-05
7.96396e-05
8.00725e-05
8.03735e-05
8.05679e-05
8.06715e-05
8.06932e-05
8.06487e-05
8.05132e-05
8.02773e-05
7.99218e-05
7.9422e-05
7.87487e-05
7.78691e-05
7.67436e-05
7.53358e-05
7.36289e-05
7.15829e-05
6.91797e-05
6.64055e-05
6.32572e-05
5.97445e-05
5.5892e-05
5.17767e-05
4.74333e-05
4.28872e-05
3.82879e-05
3.37454e-05
2.93896e-05
2.53528e-05
2.17578e-05
1.86986e-05
1.61951e-05
1.43858e-05
1.3255e-05
1.25728e-05
1.22121e-05
1.22073e-05
1.2405e-05
1.26963e-05
1.29792e-05
1.31672e-05
1.31902e-05
1.29196e-05
1.2475e-05
1.18964e-05
1.10373e-05
9.88212e-06
8.57184e-06
7.19653e-06
5.80979e-06
4.47081e-06
3.23177e-06
2.13495e-06
1.21204e-06
4.90707e-07
8.76098e-08
5.98121e-10
1.60791e-09
2.6925e-07
1.94055e-06
6.22878e-06
1.33713e-05
2.25544e-05
3.25247e-05
4.22046e-05
5.09347e-05
5.84183e-05
6.45999e-05
6.95598e-05
7.34442e-05
7.64266e-05
7.86834e-05
8.03424e-05
8.15405e-05
8.23933e-05
8.29923e-05
8.34135e-05
8.36978e-05
8.38727e-05
8.39577e-05
8.39541e-05
8.38944e-05
8.37353e-05
8.34743e-05
8.30898e-05
8.25555e-05
8.18399e-05
8.09081e-05
7.9717e-05
7.82281e-05
7.6424e-05
7.42606e-05
7.17185e-05
6.87824e-05
6.54482e-05
6.17264e-05
5.76439e-05
5.32987e-05
4.86829e-05
4.38739e-05
3.90167e-05
3.42356e-05
2.96728e-05
2.54731e-05
2.17702e-05
1.86511e-05
1.61452e-05
1.43925e-05
1.33767e-05
1.27584e-05
1.25244e-05
1.26358e-05
1.29485e-05
1.33461e-05
1.37233e-05
1.3991e-05
1.40766e-05
1.38417e-05
1.33739e-05
1.27807e-05
1.18856e-05
1.06676e-05
9.24909e-06
7.76011e-06
6.25883e-06
4.81154e-06
3.4747e-06
2.29326e-06
1.30154e-06
5.28598e-07
9.49449e-08
6.53026e-10
1.67726e-09
2.81027e-07
2.02793e-06
6.51728e-06
1.40017e-05
2.36223e-05
3.40586e-05
4.41738e-05
5.32759e-05
6.10575e-05
6.74651e-05
7.25875e-05
7.6582e-05
7.96405e-05
8.1937e-05
8.36032e-05
8.4798e-05
8.56332e-05
8.62159e-05
8.66207e-05
8.68816e-05
8.70326e-05
8.7095e-05
8.70643e-05
8.69858e-05
8.6803e-05
8.65163e-05
8.61039e-05
8.55372e-05
8.47831e-05
8.38045e-05
8.25562e-05
8.09938e-05
7.91028e-05
7.68343e-05
7.41668e-05
7.10831e-05
6.75785e-05
6.36636e-05
5.93681e-05
5.48064e-05
4.99315e-05
4.48746e-05
3.97722e-05
3.47636e-05
3.00038e-05
2.56487e-05
2.18393e-05
1.86694e-05
1.6157e-05
1.44793e-05
1.35638e-05
1.29971e-05
1.28844e-05
1.31071e-05
1.35299e-05
1.40314e-05
1.45034e-05
1.48536e-05
1.50064e-05
1.48204e-05
1.43304e-05
1.37228e-05
1.27948e-05
1.15123e-05
9.97879e-06
8.36543e-06
6.73799e-06
5.17226e-06
3.73016e-06
2.45901e-06
1.39487e-06
5.68145e-07
1.02621e-07
7.11342e-10
1.74669e-09
2.92817e-07
2.11542e-06
6.80593e-06
1.46314e-05
2.46857e-05
3.55814e-05
4.61221e-05
5.55844e-05
6.36509e-05
7.0271e-05
7.55431e-05
7.96374e-05
8.27625e-05
8.50794e-05
8.67489e-05
8.79261e-05
8.87379e-05
8.93048e-05
8.96826e-05
8.99149e-05
9.00376e-05
9.00729e-05
9.00134e-05
8.99118e-05
8.97057e-05
8.93929e-05
8.89537e-05
8.83577e-05
8.75697e-05
8.65506e-05
8.5255e-05
8.36284e-05
8.16631e-05
7.9304e-05
7.65273e-05
7.33137e-05
6.96569e-05
6.55679e-05
6.108e-05
5.63168e-05
5.12016e-05
4.59122e-05
4.05786e-05
3.53541e-05
3.0406e-05
2.59008e-05
2.1985e-05
1.87566e-05
1.62353e-05
1.46383e-05
1.38034e-05
1.32909e-05
1.32871e-05
1.36136e-05
1.41408e-05
1.47435e-05
1.53107e-05
1.57465e-05
1.59704e-05
1.58507e-05
1.5349e-05
1.47181e-05
1.3766e-05
1.24192e-05
1.07657e-05
9.0172e-06
7.25089e-06
5.55491e-06
3.99865e-06
2.63195e-06
1.49167e-06
6.09153e-07
1.10585e-07
7.72768e-10
1.81617e-09
3.04619e-07
2.203e-06
7.09456e-06
1.52597e-05
2.57436e-05
3.70912e-05
4.80467e-05
5.78565e-05
6.6194e-05
7.30126e-05
7.84201e-05
8.26053e-05
8.57822e-05
8.81056e-05
8.97678e-05
9.09166e-05
9.17041e-05
9.22463e-05
9.25897e-05
9.27875e-05
9.28769e-05
9.28805e-05
9.27894e-05
9.26629e-05
9.24314e-05
9.20929e-05
9.16286e-05
9.10065e-05
9.01901e-05
8.91382e-05
8.78057e-05
8.61267e-05
8.4102e-05
8.16689e-05
7.88018e-05
7.54787e-05
7.16915e-05
6.74496e-05
6.27948e-05
5.7844e-05
5.25166e-05
4.70093e-05
4.14595e-05
3.6031e-05
3.09026e-05
2.62522e-05
2.22361e-05
1.89381e-05
1.64016e-05
1.48852e-05
1.40835e-05
1.36489e-05
1.37279e-05
1.41486e-05
1.47734e-05
1.54742e-05
1.61369e-05
1.66616e-05
1.69613e-05
1.69244e-05
1.6431e-05
1.57608e-05
1.4797e-05
1.33903e-05
1.1614e-05
9.7203e-06
7.80175e-06
5.96222e-06
4.2813e-06
2.81224e-06
1.59176e-06
6.51489e-07
1.18794e-07
8.3702e-10
1.88572e-09
3.16432e-07
2.29063e-06
7.38303e-06
1.58863e-05
2.6795e-05
3.85861e-05
4.99451e-05
6.00886e-05
6.86824e-05
7.56846e-05
8.12136e-05
8.54797e-05
8.86883e-05
9.10105e-05
9.26483e-05
9.37611e-05
9.4525e-05
9.50291e-05
9.53313e-05
9.54886e-05
9.55396e-05
9.55059e-05
9.53806e-05
9.52276e-05
9.49681e-05
9.46042e-05
9.41167e-05
9.34725e-05
9.26337e-05
9.15578e-05
9.0199e-05
8.84813e-05
8.6416e-05
8.39265e-05
8.09905e-05
7.75814e-05
7.36883e-05
6.93187e-05
6.45259e-05
5.94071e-05
5.3891e-05
4.8187e-05
4.24378e-05
3.68175e-05
3.15162e-05
2.67225e-05
2.26011e-05
1.92393e-05
1.66754e-05
1.52068e-05
1.44275e-05
1.40517e-05
1.42033e-05
1.47071e-05
1.54216e-05
1.62162e-05
1.69743e-05
1.75919e-05
1.79743e-05
1.8031e-05
1.75655e-05
1.68509e-05
1.58829e-05
1.44254e-05
1.25265e-05
1.0479e-05
8.395e-06