/*--------------------------------*- C++ -*----------------------------------*\
  =========                 |
  \\      /  F ield         | OpenFOAM: The Open Source CFD Toolbox
   \\    /   O peration     | Website:  https://openfoam.org
    \\  /    A nd           | Version:  12
     \\/     M anipulation  |
\*---------------------------------------------------------------------------*/
FoamFile
{
    format      ascii;
    class       surfaceScalarField;
    location    "0.5";
    object      phi;
}
// * * * * * * * * * * * * * * * * * * * * * * * * * * * * * * * * * * * * * //

dimensions      [0 3 -1 0 0 0 0];

internalField   nonuniform List<scalar> 
11100
(
3.01766e-10
-2.93061e-10
8.69192e-10
-5.67729e-10
1.27079e-09
-4.01861e-10
1.29912e-09
-2.8468e-11
9.08876e-10
3.90228e-10
1.25853e-10
7.83055e-10
-9.96361e-10
1.12224e-09
-2.39407e-09
1.39771e-09
-4.00379e-09
1.60973e-09
-5.76936e-09
1.76557e-09
-7.64527e-09
1.8759e-09
-9.59696e-09
1.95168e-09
-1.15999e-08
2.00291e-09
-1.36379e-08
2.03806e-09
-1.57019e-08
2.06402e-09
-1.77881e-08
2.08619e-09
-1.98968e-08
2.1087e-09
-2.20314e-08
2.13464e-09
-2.41978e-08
2.16636e-09
-2.64034e-08
2.20565e-09
-2.86575e-08
2.25402e-09
-3.09703e-08
2.31281e-09
-3.33537e-08
2.3834e-09
-3.58208e-08
2.46719e-09
-3.83867e-08
2.56581e-09
-4.10677e-08
2.68099e-09
-4.38824e-08
2.81471e-09
-4.68515e-08
2.96909e-09
-4.99979e-08
3.14644e-09
-5.3347e-08
3.3491e-09
-5.69265e-08
3.5795e-09
-6.07665e-08
3.83998e-09
-6.48993e-08
4.13277e-09
-6.93591e-08
4.45976e-09
-7.41815e-08
4.82245e-09
-7.94032e-08
5.22169e-09
-8.50606e-08
5.65739e-09
-9.11889e-08
6.12826e-09
-9.78202e-08
6.6313e-09
-1.04982e-07
7.16133e-09
-1.12692e-07
7.71032e-09
-1.20959e-07
8.26668e-09
-1.29773e-07
8.81443e-09
-1.39105e-07
9.33243e-09
-1.48899e-07
9.79352e-09
-1.59063e-07
1.01641e-08
-1.69467e-07
1.04036e-08
-1.79932e-07
1.04654e-08
-1.90229e-07
1.02975e-08
-2.00074e-07
9.84462e-09
-2.09126e-07
9.05183e-09
-2.16994e-07
7.86758e-09
-2.23234e-07
6.24074e-09
-2.27382e-07
4.14728e-09
-2.29093e-07
1.71145e-09
-2.27836e-07
-1.25656e-09
-2.23336e-07
-4.50042e-09
-2.15367e-07
-7.96934e-09
-2.03873e-07
-1.14936e-08
-1.88991e-07
-1.48818e-08
-1.71071e-07
-1.79207e-08
-1.50676e-07
-2.03948e-08
-1.28567e-07
-2.21086e-08
-1.05656e-07
-2.29115e-08
-8.29369e-08
-2.27188e-08
-6.14103e-08
-2.15267e-08
-4.19942e-08
-1.9416e-08
-2.54491e-08
-1.65451e-08
-1.23186e-08
-1.31306e-08
-2.89478e-09
-9.42379e-09
2.79786e-09
-5.69265e-09
5.01397e-09
-2.21611e-09
4.34379e-09
6.70173e-10
1.96357e-09
2.38022e-09
1.96357e-09
7.85547e-10
-1.07905e-09
1.85556e-09
-1.63824e-09
2.35373e-09
-9.00387e-10
1.8771e-09
4.47994e-10
3.1323e-10
1.95409e-09
-2.28672e-09
3.38305e-09
-5.79371e-09
4.62925e-09
-1.00485e-08
5.65249e-09
-1.48908e-08
6.45207e-09
-2.01757e-08
7.05044e-09
-2.57818e-08
7.48202e-09
-3.16143e-08
7.78413e-09
-3.76035e-08
7.99215e-09
-4.37024e-08
8.13694e-09
-4.98824e-08
8.24409e-09
-5.61302e-08
8.33401e-09
-6.24441e-08
8.42254e-09
-6.88312e-08
8.52181e-09
-7.5306e-08
8.64111e-09
-8.18881e-08
8.78778e-09
-8.8602e-08
8.96793e-09
-9.54763e-08
9.18712e-09
-1.02544e-07
9.45085e-09
-1.09841e-07
9.76482e-09
-1.17411e-07
1.01353e-08
-1.25299e-07
1.0569e-08
-1.33558e-07
1.10735e-08
-1.42245e-07
1.16567e-08
-1.51426e-07
1.2327e-08
-1.6117e-07
1.30933e-08
-1.71555e-07
1.39641e-08
-1.82662e-07
1.49478e-08
-1.94582e-07
1.60522e-08
-2.07406e-07
1.72835e-08
-2.21229e-07
1.86462e-08
-2.3615e-07
2.01421e-08
-2.52261e-07
2.17691e-08
-2.69653e-07
2.352e-08
-2.88403e-07
2.5381e-08
-3.08571e-07
2.73294e-08
-3.30192e-07
2.93317e-08
-3.53266e-07
3.13404e-08
-3.77744e-07
3.3292e-08
-4.03515e-07
3.51033e-08
-4.30391e-07
3.667e-08
-4.58091e-07
3.78645e-08
-4.86224e-07
3.85361e-08
-5.14272e-07
3.85134e-08
-5.41583e-07
3.76091e-08
-5.67368e-07
3.56289e-08
-5.907e-07
3.23837e-08
-6.10538e-07
2.77056e-08
-6.25756e-07
2.14594e-08
-6.35124e-07
1.35147e-08
-6.37687e-07
4.2745e-09
-6.32376e-07
-6.56742e-09
-6.18391e-07
-1.84851e-08
-5.95286e-07
-3.1075e-08
-5.63013e-07
-4.37665e-08
-5.22009e-07
-5.58855e-08
-4.73237e-07
-6.66926e-08
-4.18184e-07
-7.54476e-08
-3.58808e-07
-8.14854e-08
-2.97424e-07
-8.42947e-08
-2.36555e-07
-8.35881e-08
-1.7873e-07
-7.93514e-08
-1.26288e-07
-7.18583e-08
-8.11848e-08
-6.16484e-08
-4.48444e-08
-4.9471e-08
-1.8057e-08
-3.62112e-08
-9.19866e-10
-2.28297e-08
7.22743e-09
-1.03634e-08
7.92223e-09
-2.46326e-11
3.9378e-09
6.36466e-09
5.90136e-09
1.02352e-09
-2.10233e-09
2.16257e-09
-2.77739e-09
2.29965e-09
-1.03762e-09
9.15056e-10
1.83251e-09
-2.13202e-09
5.00117e-09
-6.76403e-09
8.01511e-09
-1.27895e-08
1.06548e-08
-1.99725e-08
1.28355e-08
-2.80741e-08
1.45536e-08
-3.68762e-08
1.58525e-08
-4.61943e-08
1.68001e-08
-5.58815e-08
1.74714e-08
-6.58282e-08
1.79389e-08
-7.59583e-08
1.8267e-08
-8.62242e-08
1.851e-08
-9.66017e-08
1.87115e-08
-1.07085e-07
1.89061e-08
-1.17684e-07
1.91204e-08
-1.28418e-07
1.93753e-08
-1.39317e-07
1.96872e-08
-1.5042e-07
2.00701e-08
-1.61769e-07
2.05366e-08
-1.73417e-07
2.1099e-08
-1.85422e-07
2.17701e-08
-1.97851e-07
2.25637e-08
-2.10776e-07
2.34945e-08
-2.24281e-07
2.45786e-08
-2.38458e-07
2.58332e-08
-2.53407e-07
2.72761e-08
-2.69239e-07
2.89257e-08
-2.86076e-07
3.08002e-08
-3.04044e-07
3.29166e-08
-3.23282e-07
3.52903e-08
-3.43933e-07
3.79335e-08
-3.6614e-07
4.0854e-08
-3.90051e-07
4.40531e-08
-4.15806e-07
4.75233e-08
-4.43531e-07
5.12456e-08
-4.73336e-07
5.51857e-08
-5.05297e-07
5.92901e-08
-5.39446e-07
6.34807e-08
-5.75755e-07
6.76501e-08
-6.14119e-07
7.16556e-08
-6.5433e-07
7.53139e-08
-6.96056e-07
7.8397e-08
-7.38822e-07
8.06301e-08
-7.81979e-07
8.16928e-08
-8.2469e-07
8.1225e-08
-8.65921e-07
7.88397e-08
-9.04434e-07
7.41414e-08
-9.38804e-07
6.67546e-08
-9.67458e-07
5.63592e-08
-9.88716e-07
4.27178e-08
-1.00086e-06
2.56561e-08
-1.00233e-06
5.75111e-09
-9.91788e-07
-1.71134e-08
-9.68105e-07
-4.21688e-08
-9.30734e-07
-6.84459e-08
-8.79718e-07
-9.47824e-08
-8.15798e-07
-1.19806e-07
-7.40462e-07
-1.42028e-07
-6.5594e-07
-1.5997e-07
-5.65116e-07
-1.7231e-07
-4.7138e-07
-1.78031e-07
-3.78405e-07
-1.76562e-07
-2.89887e-07
-1.6787e-07
-2.09255e-07
-1.52491e-07
-1.39403e-07
-1.31499e-07
-8.24719e-08
-1.06403e-07
-3.96765e-08
-7.90066e-08
-1.12045e-08
-5.13018e-08
3.88113e-09
-2.5449e-08
7.81666e-09
-3.96017e-09
4.44418e-09
9.73714e-09
1.03455e-08
1.02599e-09
-3.12849e-09
1.86654e-09
-3.61819e-09
1.26473e-09
-4.36025e-10
-1.34644e-09
4.44358e-09
-6.11851e-09
9.77326e-09
-1.29471e-08
1.48438e-08
-2.15908e-08
1.92985e-08
-3.17513e-08
2.2996e-08
-4.31247e-08
2.59271e-08
-5.5432e-08
2.81598e-08
-6.84341e-08
2.98022e-08
-8.19388e-08
3.0976e-08
-9.58e-08
3.18002e-08
-1.09915e-07
3.23817e-08
-1.24216e-07
3.28117e-08
-1.3867e-07
3.31649e-08
-1.53264e-07
3.35004e-08
-1.68008e-07
3.38648e-08
-1.82928e-07
3.42946e-08
-1.9806e-07
3.48191e-08
-2.13453e-07
3.54633e-08
-2.29166e-07
3.62495e-08
-2.45267e-07
3.71998e-08
-2.61833e-07
3.83364e-08
-2.78952e-07
3.96832e-08
-2.96724e-07
4.12658e-08
-3.15257e-07
4.31118e-08
-3.34674e-07
4.52502e-08
-3.55109e-07
4.77112e-08
-3.76709e-07
5.05255e-08
-3.99632e-07
5.37232e-08
-4.24048e-07
5.73322e-08
-4.50134e-07
6.1377e-08
-4.78077e-07
6.58762e-08
-5.08063e-07
7.084e-08
-5.40277e-07
7.62669e-08
-5.74893e-07
8.21396e-08
-6.12067e-07
8.84199e-08
-6.51924e-07
9.50427e-08
-6.94543e-07
1.01909e-07
-7.3994e-07
1.08877e-07
-7.88046e-07
1.15756e-07
-8.38683e-07
1.22293e-07
-8.91537e-07
1.28168e-07
-9.4613e-07
1.3299e-07
-1.00179e-06
1.36289e-07
-1.05762e-06
1.37525e-07
-1.11249e-06
1.36098e-07
-1.16503e-06
1.31373e-07
-1.2136e-06
1.22712e-07
-1.25636e-06
1.0952e-07
-1.29131e-06
9.13067e-08
-1.31634e-06
6.77448e-08
-1.3294e-06
3.87234e-08
-1.32849e-06
4.83861e-09
-1.31202e-06
-3.35877e-08
-1.27876e-06
-7.54219e-08
-1.22815e-06
-1.19062e-07
-1.16033e-06
-1.62596e-07
-1.07635e-06
-2.03794e-07
-9.78111e-07
-2.40264e-07
-8.68437e-07
-2.69644e-07
-7.50922e-07
-2.89824e-07
-6.29769e-07
-2.99184e-07
-5.09527e-07
-2.96803e-07
-3.94784e-07
-2.82613e-07
-2.8982e-07
-2.57455e-07
-1.98282e-07
-2.23037e-07
-1.22903e-07
-1.81782e-07
-6.52749e-08
-1.36635e-07
-2.57017e-08
-9.0875e-08
-3.07252e-09
-4.80782e-08
5.30837e-09
-1.23411e-08
3.9792e-09
1.10663e-08
1.43247e-08
8.26918e-10
-3.95524e-09
1.05789e-09
-3.84916e-09
-5.92299e-10
1.21412e-09
-4.70124e-09
8.55251e-09
-1.14089e-08
1.64809e-08
-2.05815e-08
2.40165e-08
-3.19346e-08
3.06515e-08
-4.51181e-08
3.61795e-08
-5.97742e-08
4.05832e-08
-7.55717e-08
4.39573e-08
-9.22249e-08
4.64554e-08
-1.09501e-07
4.82523e-08
-1.27222e-07
4.9521e-08
-1.45259e-07
5.0419e-08
-1.63529e-07
5.10814e-08
-1.81984e-07
5.162e-08
-2.00608e-07
5.21245e-08
-2.19409e-07
5.2666e-08
-2.38415e-07
5.33007e-08
-2.57671e-07
5.40743e-08
-2.77233e-07
5.50257e-08
-2.97173e-07
5.61898e-08
-3.17574e-07
5.76006e-08
-3.38531e-07
5.92928e-08
-3.6015e-07
6.13026e-08
-3.82553e-07
6.3669e-08
-4.05875e-07
6.64334e-08
-4.30264e-07
6.96393e-08
-4.55885e-07
7.33318e-08
-4.82915e-07
7.7556e-08
-5.11548e-07
8.23558e-08
-5.41987e-07
8.77714e-08
-5.74447e-07
9.38372e-08
-6.09149e-07
1.00578e-07
-6.46313e-07
1.08004e-07
-6.86156e-07
1.1611e-07
-7.28877e-07
1.2486e-07
-7.74649e-07
1.34192e-07
-8.23602e-07
1.43997e-07
-8.75809e-07
1.54116e-07
-9.31257e-07
1.64325e-07
-9.89827e-07
1.74325e-07
-1.05126e-06
1.83727e-07
-1.11513e-06
1.92042e-07
-1.18082e-06
1.98675e-07
-1.24746e-06
2.02925e-07
-1.31392e-06
2.03991e-07
-1.37882e-06
2.00995e-07
-1.44046e-06
1.93018e-07
-1.4969e-06
1.79152e-07
-1.54596e-06
1.58571e-07
-1.58527e-06
1.30617e-07
-1.61242e-06
9.48971e-08
-1.62508e-06
5.13834e-08
-1.621e-06
7.61869e-10
-1.59842e-06
-5.61661e-08
-1.55608e-06
-1.17761e-07
-1.49342e-06
-1.81725e-07
-1.41073e-06
-2.45285e-07
-1.30927e-06
-3.05251e-07
-1.19132e-06
-3.58222e-07
-1.06011e-06
-4.00849e-07
-9.19795e-07
-4.30142e-07
-7.75182e-07
-4.43797e-07
-6.31495e-07
-4.4049e-07
-4.94019e-07
-4.20089e-07
-3.67722e-07
-3.83752e-07
-2.56878e-07
-3.33881e-07
-1.64728e-07
-2.73931e-07
-9.32185e-08
-2.08145e-07
-4.27977e-08
-1.41296e-07
-1.22777e-08
-7.85982e-08
1.31639e-09
-2.59351e-08
2.94347e-09
9.43922e-09
1.72682e-08
5.05383e-10
-4.46074e-09
-1.202e-10
-3.22373e-09
-3.08597e-09
4.17978e-09
-8.93377e-09
1.44003e-08
-1.77709e-08
2.53182e-08
-2.94287e-08
3.56743e-08
-4.35814e-08
4.48043e-08
-5.98345e-08
5.24327e-08
-7.77842e-08
5.85329e-08
-9.7055e-08
6.32281e-08
-1.17321e-07
6.67211e-08
-1.38314e-07
6.92456e-08
-1.59828e-07
7.10347e-08
-1.81711e-07
7.23023e-08
-2.03863e-07
7.32338e-08
-2.26227e-07
7.39836e-08
-2.48779e-07
7.46768e-08
-2.71527e-07
7.54134e-08
-2.94499e-07
7.6273e-08
-3.17745e-07
7.73208e-08
-3.41332e-07
7.86126e-08
-3.65341e-07
8.01984e-08
-3.89867e-07
8.21268e-08
-4.15021e-07
8.44468e-08
-4.40928e-07
8.72096e-08
-4.67729e-07
9.04697e-08
-4.9558e-07
9.42846e-08
-5.24655e-07
9.87146e-08
-5.55145e-07
1.03821e-07
-5.87255e-07
1.09666e-07
-6.21208e-07
1.16309e-07
-6.57239e-07
1.23802e-07
-6.95593e-07
1.32191e-07
-7.36519e-07
1.41504e-07
-7.80267e-07
1.51753e-07
-8.27076e-07
1.62918e-07
-8.77163e-07
1.74947e-07
-9.30711e-07
1.87739e-07
-9.87847e-07
2.01133e-07
-1.04863e-06
2.14896e-07
-1.113e-06
2.28702e-07
-1.1808e-06
2.42123e-07
-1.25168e-06
2.54606e-07
-1.3251e-06
2.65465e-07
-1.4003e-06
2.73872e-07
-1.47623e-06
2.78859e-07
-1.55158e-06
2.79334e-07
-1.6247e-06
2.74114e-07
-1.69365e-06
2.61974e-07
-1.75622e-06
2.41722e-07
-1.80995e-06
2.12298e-07
-1.85222e-06
1.72891e-07
-1.88039e-06
1.23064e-07
-1.8919e-06
6.28967e-08
-1.88439e-06
-6.75544e-09
-1.85596e-06
-8.45888e-08
-1.80535e-06
-1.68373e-07
-1.73203e-06
-2.55051e-07
-1.63639e-06
-3.40924e-07
-1.51987e-06
-4.21772e-07
-1.38498e-06
-4.93113e-07
-1.23529e-06
-5.50535e-07
-1.07533e-06
-5.90098e-07
-9.10388e-07
-6.08741e-07
-7.46208e-07
-6.04671e-07
-5.88646e-07
-5.7765e-07
-4.43253e-07
-5.29145e-07
-3.14855e-07
-4.6228e-07
-2.07165e-07
-3.81621e-07
-1.22473e-07
-2.92837e-07
-6.14114e-08
-2.02357e-07
-2.27986e-08
-1.17211e-07
-3.51769e-09
-4.52161e-08
1.60491e-09
4.31662e-09
1.88731e-08
7.86459e-11
-4.53934e-09
-1.58451e-09
-1.56056e-09
-6.07956e-09
8.67484e-09
-1.38678e-08
2.21886e-08
-2.50035e-08
3.64539e-08
-3.92726e-08
4.99435e-08
-5.63074e-08
6.18391e-08
-7.56718e-08
7.17971e-08
-9.69214e-08
7.97825e-08
-1.19643e-07
8.59494e-08
-1.43475e-07
9.05533e-08
-1.68121e-07
9.38913e-08
-1.93348e-07
9.62617e-08
-2.18985e-07
9.794e-08
-2.44918e-07
9.91669e-08
-2.71079e-07
1.00144e-07
-2.97439e-07
1.01037e-07
-3.24002e-07
1.01976e-07
-3.50799e-07
1.0307e-07
-3.77884e-07
1.04406e-07
-4.05331e-07
1.06059e-07
-4.33229e-07
1.08096e-07
-4.61685e-07
1.10584e-07
-4.90825e-07
1.13587e-07
-5.20789e-07
1.17173e-07
-5.51735e-07
1.21416e-07
-5.83841e-07
1.2639e-07
-6.17301e-07
1.32175e-07
-6.52329e-07
1.3885e-07
-6.89157e-07
1.46494e-07
-7.28033e-07
1.55184e-07
-7.69217e-07
1.64986e-07
-8.1298e-07
1.75954e-07
-8.59598e-07
1.88122e-07
-9.0934e-07
2.01495e-07
-9.62464e-07
2.16042e-07
-1.0192e-06
2.31681e-07
-1.07973e-06
2.48268e-07
-1.14417e-06
2.65579e-07
-1.21257e-06
2.83289e-07
-1.28482e-06
3.00958e-07
-1.3607e-06
3.18005e-07
-1.43979e-06
3.33694e-07
-1.52144e-06
3.47116e-07
-1.60475e-06
3.57183e-07
-1.68853e-06
3.62637e-07
-1.77127e-06
3.62072e-07
-1.85113e-06
3.53978e-07
-1.92597e-06
3.36815e-07
-1.99335e-06
3.09103e-07
-2.05061e-06
2.69556e-07
-2.09494e-06
2.17221e-07
-2.12352e-06
1.51646e-07
-2.13366e-06
7.30357e-08
-2.1229e-06
-1.75198e-08
-2.08928e-06
-1.18204e-07
-2.03151e-06
-2.26146e-07
-1.94907e-06
-3.3749e-07
-1.84242e-06
-4.47575e-07
-1.71308e-06
-5.51108e-07
-1.56372e-06
-6.42473e-07
-1.39812e-06
-7.16141e-07
-1.22107e-06
-7.67145e-07
-1.03822e-06
-7.91591e-07
-8.55754e-07
-7.8714e-07
-6.80017e-07
-7.53388e-07
-5.17089e-07
-6.92072e-07
-3.72319e-07
-6.0705e-07
-2.49888e-07
-5.04052e-07
-1.52449e-07
-3.90276e-07
-8.08591e-08
-2.73947e-07
-3.40147e-08
-1.64055e-07
-8.76434e-09
-7.04665e-08
1.27517e-10
-4.57524e-09
1.90006e-08
-4.02759e-10
-4.1367e-09
-3.25117e-09
1.28775e-09
-9.44876e-09
1.48724e-08
-1.9348e-08
3.20878e-08
-3.29282e-08
5.00342e-08
-4.99195e-08
6.69348e-08
-6.99078e-08
8.18275e-08
-9.24167e-08
9.43059e-08
-1.16965e-07
1.04331e-07
-1.43106e-07
1.1209e-07
-1.7045e-07
1.17897e-07
-1.98672e-07
1.22114e-07
-2.27521e-07
1.2511e-07
-2.56808e-07
1.27227e-07
-2.86405e-07
1.28764e-07
-3.16234e-07
1.29974e-07
-3.46264e-07
1.31066e-07
-3.76494e-07
1.32207e-07
-4.06958e-07
1.33534e-07
-4.37711e-07
1.3516e-07
-4.68834e-07
1.37182e-07
-5.00425e-07
1.39687e-07
-5.32601e-07
1.4276e-07
-5.65499e-07
1.46484e-07
-5.99273e-07
1.50948e-07
-6.34099e-07
1.56242e-07
-6.7017e-07
1.62462e-07
-7.07702e-07
1.69707e-07
-7.46928e-07
1.78076e-07
-7.88103e-07
1.87669e-07
-8.31496e-07
1.98577e-07
-8.7739e-07
2.10881e-07
-9.26079e-07
2.24643e-07
-9.77857e-07
2.399e-07
-1.03301e-06
2.5665e-07
-1.09181e-06
2.74842e-07
-1.15449e-06
2.94363e-07
-1.22124e-06
3.15015e-07
-1.29216e-06
3.36498e-07
-1.36726e-06
3.58388e-07
-1.44641e-06
3.80111e-07
-1.52933e-06
4.0092e-07
-1.61551e-06
4.19874e-07
-1.70421e-06
4.35819e-07
-1.79442e-06
4.47392e-07
-1.88481e-06
4.53025e-07
-1.97372e-06
4.50981e-07
-2.05916e-06
4.39416e-07
-2.13881e-06
4.16468e-07
-2.21008e-06
3.80373e-07
-2.27015e-06
3.29628e-07
-2.31608e-06
2.63156e-07
-2.34494e-06
1.80504e-07
-2.35393e-06
8.20215e-08
-2.34052e-06
-3.09298e-08
-2.3027e-06
-1.5602e-07
-2.23913e-06
-2.89719e-07
-2.14926e-06
-4.27357e-07
-2.03354e-06
-5.63295e-07
-1.89351e-06
-6.91141e-07
-1.73187e-06
-8.04113e-07
-1.55251e-06
-8.95502e-07
-1.36041e-06
-9.5924e-07
-1.1615e-06
-9.90506e-07
-9.62316e-07
-9.86321e-07
-7.69681e-07
-9.46024e-07
-5.90187e-07
-8.71566e-07
-4.29716e-07
-7.67521e-07
-2.9294e-07
-6.40828e-07
-1.82915e-07
-5.00301e-07
-1.00774e-07
-3.56088e-07
-4.55584e-08
-2.19271e-07
-1.41573e-08
-1.01868e-07
-1.35213e-09
-1.73804e-08
1.76485e-08
-9.36871e-10
-3.19984e-09
-5.07411e-09
5.42497e-09
-1.31072e-08
2.29055e-08
-2.52536e-08
4.42343e-08
-4.13976e-08
6.61783e-08
-6.12013e-08
8.67387e-08
-8.41997e-08
1.04826e-07
-1.09875e-07
1.19981e-07
-1.37711e-07
1.32167e-07
-1.67232e-07
1.41611e-07
-1.98021e-07
1.48686e-07
-2.29735e-07
1.53828e-07
-2.62102e-07
1.57477e-07
-2.9492e-07
1.60045e-07
-3.2805e-07
1.61894e-07
-3.61408e-07
1.63331e-07
-3.94954e-07
1.64612e-07
-4.28688e-07
1.65942e-07
-4.62644e-07
1.6749e-07
-4.96881e-07
1.69397e-07
-5.31483e-07
1.71784e-07
-5.66556e-07
1.7476e-07
-6.02226e-07
1.7843e-07
-6.38641e-07
1.82899e-07
-6.75968e-07
1.88274e-07
-7.14395e-07
1.94669e-07
-7.54134e-07
2.022e-07
-7.95415e-07
2.10988e-07
-8.38492e-07
2.21153e-07
-8.83636e-07
2.32813e-07
-9.31136e-07
2.46078e-07
-9.81297e-07
2.61041e-07
-1.03443e-06
2.77774e-07
-1.09084e-06
2.96312e-07
-1.15083e-06
3.16644e-07
-1.21469e-06
3.38697e-07
-1.28264e-06
3.62316e-07
-1.35487e-06
3.87245e-07
-1.43147e-06
4.131e-07
-1.51243e-06
4.39343e-07
-1.59757e-06
4.65256e-07
-1.68656e-06
4.89909e-07
-1.77883e-06
5.12142e-07
-1.87356e-06
5.30544e-07
-1.96962e-06
5.4346e-07
-2.0656e-06
5.48999e-07
-2.1597e-06
5.45089e-07
-2.24983e-06
5.29545e-07
-2.33355e-06
5.00185e-07
-2.40815e-06
4.54969e-07
-2.4707e-06
3.92183e-07
-2.51819e-06
3.10642e-07
-2.54758e-06
2.09899e-07
-2.55602e-06
9.04546e-08
-2.5409e-06
-4.60433e-08
-2.50016e-06
-1.96766e-07
-2.43234e-06
-3.57532e-07
-2.33684e-06
-5.22862e-07
-2.21399e-06
-6.86142e-07
-2.06526e-06
-8.39871e-07
-1.89331e-06
-9.76064e-07
-1.70204e-06
-1.08678e-06
-1.49653e-06
-1.16475e-06
-1.28291e-06
-1.20412e-06
-1.06808e-06
-1.20115e-06
-8.59295e-07
-1.15481e-06
-6.63699e-07
-1.06716e-06
-4.8774e-07
-9.4348e-07
-3.36641e-07
-7.91927e-07
-2.13917e-07
-6.23025e-07
-1.21042e-07
-4.48962e-07
-5.72614e-08
-2.83052e-07
-1.95638e-08
-1.39565e-07
-2.80571e-09
-3.41385e-08
1.48428e-08
-1.49841e-09
-1.70156e-09
-7.00167e-09
1.09281e-08
-1.69752e-08
3.2879e-08
-3.14775e-08
5.87367e-08
-5.02814e-08
8.49823e-08
-7.29697e-08
1.09427e-07
-9.90194e-08
1.30876e-07
-1.2787e-07
1.48831e-07
-1.58972e-07
1.63269e-07
-1.91822e-07
1.74462e-07
-2.25984e-07
1.82848e-07
-2.61093e-07
1.88938e-07
-2.96865e-07
1.93249e-07
-3.33086e-07
1.96266e-07
-3.69607e-07
1.98415e-07
-4.06338e-07
2.00062e-07
-4.43237e-07
2.0151e-07
-4.80301e-07
2.03006e-07
-5.17563e-07
2.04752e-07
-5.55086e-07
2.0692e-07
-5.92959e-07
2.09656e-07
-6.31292e-07
2.13093e-07
-6.70221e-07
2.17358e-07
-7.09901e-07
2.22579e-07
-7.50513e-07
2.28886e-07
-7.92257e-07
2.36413e-07
-8.35357e-07
2.453e-07
-8.8006e-07
2.55691e-07
-9.26634e-07
2.67727e-07
-9.75368e-07
2.81547e-07
-1.02657e-06
2.97278e-07
-1.08055e-06
3.15026e-07
-1.13765e-06
3.34869e-07
-1.19818e-06
3.56841e-07
-1.26245e-06
3.80919e-07
-1.33076e-06
4.07001e-07
-1.40333e-06
4.34889e-07
-1.48034e-06
4.64259e-07
-1.56188e-06
4.94636e-07
-1.6479e-06
5.2536e-07
-1.7382e-06
5.55555e-07
-1.83239e-06
5.84102e-07
-1.92986e-06
6.09609e-07
-2.02971e-06
6.30398e-07
-2.13076e-06
6.44511e-07
-2.2315e-06
6.49735e-07
-2.33006e-06
6.43653e-07
-2.42426e-06
6.23745e-07
-2.51159e-06
5.87511e-07
-2.58926e-06
5.32643e-07
-2.6543e-06
4.57225e-07
-2.70362e-06
3.59964e-07
-2.73415e-06
2.40422e-07
-2.74293e-06
9.92406e-08
-2.72732e-06
-6.16525e-08
-2.68513e-06
-2.38961e-07
-2.61478e-06
-4.27881e-07
-2.5155e-06
-6.22146e-07
-2.38746e-06
-8.14182e-07
-2.23194e-06
-9.95382e-07
-2.05148e-06
-1.15653e-06
-1.84989e-06
-1.28837e-06
-1.63229e-06
-1.38235e-06
-1.40497e-06
-1.43144e-06
-1.17515e-06
-1.43098e-06
-9.50546e-07
-1.37941e-06
-7.38886e-07
-1.27882e-06
-5.47261e-07
-1.1351e-06
-3.81517e-07
-9.57671e-07
-2.45717e-07
-7.58825e-07
-1.41743e-07
-5.52935e-07
-6.91091e-08
-3.55687e-07
-2.49473e-08
-1.83727e-07
-4.20497e-09
-5.48809e-08
1.06378e-08
-2.08337e-09
3.81721e-10
-9.0084e-09
1.78531e-08
-2.09986e-08
4.48692e-08
-3.79382e-08
7.56765e-08
-5.94737e-08
1.06518e-07
-8.50977e-08
1.35051e-07
-1.14224e-07
1.60002e-07
-1.46245e-07
1.80853e-07
-1.8058e-07
1.97604e-07
-2.16701e-07
2.10582e-07
-2.5415e-07
2.20297e-07
-2.92551e-07
2.27338e-07
-3.31605e-07
2.32304e-07
-3.71091e-07
2.35752e-07
-4.10853e-07
2.38177e-07
-4.50795e-07
2.40005e-07
-4.90872e-07
2.41587e-07
-5.31081e-07
2.43214e-07
-5.71455e-07
2.45126e-07
-6.12058e-07
2.47524e-07
-6.52983e-07
2.50581e-07
-6.94347e-07
2.54457e-07
-7.36292e-07
2.59303e-07
-7.78982e-07
2.65269e-07
-8.22606e-07
2.7251e-07
-8.67375e-07
2.81183e-07
-9.13528e-07
2.91452e-07
-9.61321e-07
3.03485e-07
-1.01104e-06
3.17445e-07
-1.06298e-06
3.33491e-07
-1.11747e-06
3.51769e-07
-1.17485e-06
3.72396e-07
-1.23543e-06
3.95457e-07
-1.29957e-06
4.20981e-07
-1.36758e-06
4.48929e-07
-1.43975e-06
4.79171e-07
-1.51632e-06
5.11457e-07
-1.59746e-06
5.45393e-07
-1.68322e-06
5.80404e-07
-1.77356e-06
6.15701e-07
-1.86826e-06
6.50247e-07
-1.96688e-06
6.82721e-07
-2.06876e-06
7.11495e-07
-2.17298e-06
7.34618e-07
-2.2783e-06
7.49829e-07
-2.38315e-06
7.54586e-07
-2.48563e-06
7.46137e-07
-2.58352e-06
7.21625e-07
-2.67425e-06
6.78242e-07
-2.75502e-06
6.13414e-07
-2.82282e-06
5.25027e-07
-2.87453e-06
4.11675e-07
-2.90702e-06
2.72916e-07
-2.9173e-06
1.09511e-07
-2.90259e-06
-7.63601e-08
-2.86057e-06
-2.8098e-07
-2.78948e-06
-4.98968e-07
-2.68832e-06
-7.2331e-07
-2.557e-06
-9.45503e-07
-2.39655e-06
-1.15583e-06
-2.20925e-06
-1.34382e-06
-1.99878e-06
-1.49884e-06
-1.7702e-06
-1.61093e-06
-1.52993e-06
-1.67171e-06
-1.28548e-06
-1.67543e-06
-1.04507e-06
-1.61982e-06
-8.17053e-07
-1.50684e-06
-6.09252e-07
-1.34291e-06
-4.28241e-07
-1.13868e-06
-2.78729e-07
-9.08338e-07
-1.63101e-07
-6.68564e-07
-8.12001e-08
-4.37587e-07
-3.03414e-08
-2.34586e-07
-5.55698e-09
-7.96653e-08
5.08082e-09
-2.67807e-09
3.05965e-09
-1.10629e-08
2.62379e-08
-2.51256e-08
5.89318e-08
-4.4562e-08
9.5113e-08
-6.88805e-08
1.30836e-07
-9.74741e-08
1.63645e-07
-1.29686e-07
1.92214e-07
-1.64863e-07
2.16029e-07
-2.02387e-07
2.35129e-07
-2.41708e-07
2.49903e-07
-2.82353e-07
2.60942e-07
-3.23933e-07
2.68918e-07
-3.66141e-07
2.74512e-07
-4.08748e-07
2.78358e-07
-4.51593e-07
2.81022e-07
-4.94576e-07
2.82988e-07
-5.37651e-07
2.84662e-07
-5.80813e-07
2.86377e-07
-6.24097e-07
2.8841e-07
-6.67569e-07
2.90995e-07
-7.11324e-07
2.94336e-07
-7.55484e-07
2.98617e-07
-8.00197e-07
3.04016e-07
-8.45635e-07
3.10707e-07
-8.91994e-07
3.1887e-07
-9.39498e-07
3.28686e-07
-9.88391e-07
3.40346e-07
-1.03895e-06
3.54039e-07
-1.09145e-06
3.69954e-07
-1.14623e-06
3.8827e-07
-1.20361e-06
4.09149e-07
-1.26394e-06
4.32722e-07
-1.32756e-06
4.59076e-07
-1.39481e-06
4.88237e-07
-1.46603e-06
5.20148e-07
-1.54151e-06
5.54645e-07
-1.62147e-06
5.91425e-07
-1.7061e-06
6.30017e-07
-1.79544e-06
6.69746e-07
-1.88943e-06
7.09687e-07
-1.98782e-06
7.48637e-07
-2.09017e-06
7.8507e-07
-2.19579e-06
8.1712e-07
-2.30374e-06
8.42563e-07
-2.41274e-06
8.58835e-07
-2.52123e-06
8.6307e-07
-2.62727e-06
8.52183e-07
-2.72864e-06
8.22991e-07
-2.82277e-06
7.72379e-07
-2.90687e-06
6.97511e-07
-2.97791e-06
5.96069e-07
-3.03276e-06
4.66523e-07
-3.06825e-06
3.084e-07
-3.08128e-06
1.22546e-07
-3.06898e-06
-8.86555e-08
-3.02884e-06
-3.21123e-07
-2.95885e-06
-5.68958e-07
-2.85771e-06
-8.24452e-07
-2.725e-06
-1.07821e-06
-2.56141e-06
-1.31943e-06
-2.36889e-06
-1.53633e-06
-2.15088e-06
-1.71686e-06
-1.91232e-06
-1.84948e-06
-1.6597e-06
-1.92433e-06
-1.40082e-06
-1.93431e-06
-1.14439e-06
-1.87625e-06
-8.99477e-07
-1.75175e-06
-6.74727e-07
-1.56766e-06
-4.77567e-07
-1.33584e-06
-3.13473e-07
-1.07243e-06
-1.85438e-07
-7.96599e-07
-9.37127e-08
-5.29313e-07
-3.5829e-08
-2.92469e-07
-6.88755e-09
-1.08607e-07
-1.80673e-09
-3.28184e-09
6.34137e-09
-1.31511e-08
3.6107e-08
-2.93219e-08
7.51027e-08
-5.12941e-08
1.17085e-07
-7.84267e-08
1.57969e-07
-1.10006e-07
1.95224e-07
-1.45299e-07
2.27507e-07
-1.836e-07
2.5433e-07
-2.2426e-07
2.75788e-07
-2.66704e-07
2.92348e-07
-3.10447e-07
3.04684e-07
-3.55088e-07
3.13559e-07
-4.00314e-07
3.19738e-07
-4.45892e-07
3.23935e-07
-4.91657e-07
3.26787e-07
-5.37508e-07
3.28839e-07
-5.83395e-07
3.30549e-07
-6.29316e-07
3.32297e-07
-6.75304e-07
3.34398e-07
-7.21428e-07
3.3712e-07
-7.67787e-07
3.40695e-07
-8.14506e-07
3.45336e-07
-8.61738e-07
3.51248e-07
-9.09662e-07
3.58631e-07
-9.58481e-07
3.67689e-07
-1.00843e-06
3.78631e-07
-1.05975e-06
3.91671e-07
-1.11274e-06
4.07025e-07
-1.16769e-06
4.24905e-07
-1.22493e-06
4.45512e-07
-1.2848e-06
4.69022e-07
-1.34766e-06
4.9558e-07
-1.41386e-06
5.25277e-07
-1.48376e-06
5.58132e-07
-1.55768e-06
5.94067e-07
-1.63591e-06
6.32883e-07
-1.71871e-06
6.74224e-07
-1.80624e-06
7.1754e-07
-1.89854e-06
7.62049e-07
-1.99554e-06
8.06692e-07
-2.097e-06
8.50095e-07
-2.20247e-06
8.90532e-07
-2.31124e-06
9.25896e-07
-2.42238e-06
9.53696e-07
-2.53461e-06
9.71069e-07
-2.64637e-06
9.74834e-07
-2.75577e-06
9.61578e-07
-2.86057e-06
9.27797e-07
-2.95827e-06
8.70076e-07
-3.04607e-06
7.85312e-07
-3.12097e-06
6.70971e-07
-3.17983e-06
5.25376e-07
-3.21942e-06
3.4799e-07
-3.23656e-06
1.3969e-07
-3.22823e-06
-9.69904e-08
-3.19167e-06
-3.57678e-07
-3.1246e-06
-6.36027e-07
-3.02536e-06
-9.23694e-07
-2.89313e-06
-1.21044e-06
-2.72815e-06
-1.4844e-06
-2.53201e-06
-1.73248e-06
-2.30777e-06
-1.94109e-06
-2.06021e-06
-2.09704e-06
-1.7958e-06
-2.18874e-06
-1.5226e-06
-2.20752e-06
-1.24984e-06
-2.14901e-06
-9.87342e-07
-2.01425e-06
-7.44686e-07
-1.81031e-06
-5.30285e-07
-1.55024e-06
-3.50528e-07
-1.25219e-06
-2.09144e-07
-9.37983e-07
-1.06879e-07
-6.31577e-07
-4.15236e-08
-3.57825e-07
-8.23219e-09
-1.41898e-07
-1.00389e-08
-3.88643e-09
1.02277e-08
-1.52531e-08
4.74736e-08
-3.35539e-08
9.34035e-08
-5.80837e-08
1.41615e-07
-8.80456e-08
1.87931e-07
-1.22611e-07
2.29789e-07
-1.60966e-07
2.65863e-07
-2.02352e-07
2.95716e-07
-2.46084e-07
3.19521e-07
-2.91568e-07
3.37832e-07
-3.38303e-07
3.51419e-07
-3.85882e-07
3.61139e-07
-4.33988e-07
3.67844e-07
-4.82383e-07
3.72331e-07
-5.30902e-07
3.75307e-07
-5.79443e-07
3.7738e-07
-6.27956e-07
3.79062e-07
-6.76437e-07
3.80779e-07
-7.24923e-07
3.82884e-07
-7.73483e-07
3.85679e-07
-8.22218e-07
3.8943e-07
-8.71258e-07
3.94377e-07
-9.20761e-07
4.0075e-07
-9.70908e-07
4.08779e-07
-1.02191e-06
4.18692e-07
-1.07401e-06
4.30727e-07
-1.12746e-06
4.45123e-07
-1.18255e-06
4.62121e-07
-1.23961e-06
4.81956e-07
-1.29895e-06
5.04852e-07
-1.36093e-06
5.31002e-07
-1.42591e-06
5.60561e-07
-1.49425e-06
5.93623e-07
-1.56632e-06
6.302e-07
-1.64245e-06
6.70196e-07
-1.72294e-06
7.13373e-07
-1.80803e-06
7.59318e-07
-1.8979e-06
8.07404e-07
-1.99259e-06
8.56742e-07
-2.09203e-06
9.06138e-07
-2.19599e-06
9.54052e-07
-2.30402e-06
9.98558e-07
-2.41544e-06
1.03732e-06
-2.52931e-06
1.06757e-06
-2.64441e-06
1.08617e-06
-2.75921e-06
1.08963e-06
-2.87185e-06
1.07421e-06
-2.98016e-06
1.03611e-06
-3.08167e-06
9.71588e-07
-3.17364e-06
8.77283e-07
-3.25309e-06
7.50423e-07
-3.31686e-06
5.8915e-07
-3.36169e-06
3.92819e-07
-3.38428e-06
1.6228e-07
-3.38142e-06
-9.98508e-08
-3.35011e-06
-3.88987e-07
-3.28773e-06
-6.9841e-07
-3.19221e-06
-1.01922e-06
-3.06226e-06
-1.34039e-06
-2.89766e-06
-1.649e-06
-2.69947e-06
-1.93067e-06
-2.47037e-06
-2.17019e-06
-2.21484e-06
-2.35258e-06
-1.93927e-06
-2.46431e-06
-1.65191e-06
-2.49488e-06
-1.36251e-06
-2.43841e-06
-1.08168e-06
-2.29507e-06
-8.20055e-07
-2.07194e-06
-5.87168e-07
-1.78313e-06
-3.90492e-07
-1.44886e-06
-2.34638e-07
-1.09384e-06
-1.2096e-07
-7.45256e-07
-4.75579e-08
-4.31227e-07
-9.63324e-09
-1.79823e-07
-1.96722e-08
-4.49249e-09
1.472e-08
-1.73611e-08
6.03421e-08
-3.78e-08
1.13842e-07
-6.48945e-08
1.6871e-07
-9.76852e-08
2.20722e-07
-1.35223e-07
2.67326e-07
-1.76609e-07
3.0725e-07
-2.21029e-07
3.40136e-07
-2.67763e-07
3.66254e-07
-3.16195e-07
3.86263e-07
-3.65812e-07
4.01037e-07
-4.16203e-07
4.11529e-07
-4.67046e-07
4.18687e-07
-5.18104e-07
4.23388e-07
-5.6921e-07
4.26413e-07
-6.20263e-07
4.28433e-07
-6.71213e-07
4.30012e-07
-7.22057e-07
4.31623e-07
-7.72833e-07
4.3366e-07
-8.23612e-07
4.36459e-07
-8.74498e-07
4.40316e-07
-9.25623e-07
4.45502e-07
-9.77149e-07
4.52276e-07
-1.02926e-06
4.60892e-07
-1.08218e-06
4.71609e-07
-1.13614e-06
4.84689e-07
-1.19142e-06
5.00399e-07
-1.2483e-06
5.19007e-07
-1.30712e-06
5.40771e-07
-1.3682e-06
5.65934e-07
-1.43191e-06
5.9471e-07
-1.49861e-06
6.27263e-07
-1.56868e-06
6.63691e-07
-1.64248e-06
7.03997e-07
-1.72035e-06
7.48065e-07
-1.80259e-06
7.9562e-07
-1.88947e-06
8.46195e-07
-1.98115e-06
8.99083e-07
-2.0777e-06
9.53292e-07
-2.17906e-06
1.0075e-06
-2.285e-06
1.05999e-06
-2.39509e-06
1.10866e-06
-2.50871e-06
1.15093e-06
-2.62495e-06
1.18381e-06
-2.74263e-06
1.20385e-06
-2.86029e-06
1.20728e-06
-2.97613e-06
1.19006e-06
-3.08806e-06
1.14804e-06
-3.19369e-06
1.07722e-06
-3.29032e-06
9.73916e-07
-3.37501e-06
8.35113e-07
-3.44459e-06
6.58732e-07
-3.49574e-06
4.43963e-07
-3.52503e-06
1.9157e-07
-3.52905e-06
-9.58258e-08
-3.50454e-06
-4.13504e-07
-3.44849e-06
-7.54456e-07
-3.35841e-06
-1.1093e-06
-3.23252e-06
-1.46628e-06
-3.07002e-06
-1.8115e-06
-2.87144e-06
-2.12925e-06
-2.63893e-06
-2.4027e-06
-2.37659e-06
-2.61492e-06
-2.09064e-06
-2.75026e-06
-1.78943e-06
-2.79609e-06
-1.48318e-06
-2.74467e-06
-1.18333e-06
-2.59491e-06
-9.01643e-07
-2.35363e-06
-6.48936e-07
-2.03584e-06
-4.33947e-07
-1.66385e-06
-2.62348e-07
-1.26544e-06
-1.36228e-07
-8.71375e-07
-5.40719e-08
-5.13383e-07
-1.11341e-08
-2.22761e-07
-3.08063e-08
-5.09426e-09
1.98141e-08
-1.94627e-08
7.47104e-08
-4.20382e-08
1.36418e-07
-7.16927e-08
1.98364e-07
-1.073e-07
2.56329e-07
-1.47784e-07
3.07811e-07
-1.92161e-07
3.51627e-07
-2.39556e-07
3.87532e-07
-2.89214e-07
4.15912e-07
-3.40497e-07
4.37547e-07
-3.92884e-07
4.53424e-07
-4.45957e-07
4.64602e-07
-4.99395e-07
4.72124e-07
-5.52959e-07
4.76952e-07
-6.06484e-07
4.79939e-07
-6.59871e-07
4.81819e-07
-7.1307e-07
4.83211e-07
-7.66081e-07
4.84634e-07
-8.18941e-07
4.8652e-07
-8.71725e-07
4.89243e-07
-9.24539e-07
4.93129e-07
-9.77516e-07
4.98479e-07
-1.03082e-06
5.05581e-07
-1.08465e-06
5.14717e-07
-1.13921e-06
5.26172e-07
-1.19476e-06
5.40238e-07
-1.25157e-06
5.57207e-07
-1.30993e-06
5.77373e-07
-1.37018e-06
6.01021e-07
-1.43266e-06
6.28414e-07
-1.49773e-06
6.59782e-07
-1.56577e-06
6.95301e-07
-1.63715e-06
7.35072e-07
-1.71225e-06
7.79092e-07
-1.79141e-06
8.27224e-07
-1.87494e-06
8.79158e-07
-1.96312e-06
9.34372e-07
-2.05612e-06
9.92084e-07
-2.15403e-06
1.0512e-06
-2.2568e-06
1.11027e-06
-2.36425e-06
1.16743e-06
-2.47598e-06
1.22039e-06
-2.59139e-06
1.26635e-06
-2.70967e-06
1.30208e-06
-2.82969e-06
1.32387e-06
-2.95006e-06
1.32766e-06
-3.0691e-06
1.30909e-06
-3.1848e-06
1.26374e-06
-3.29483e-06
1.18725e-06
-3.39659e-06
1.07567e-06
-3.48715e-06
9.2567e-07
-3.56333e-06
7.34915e-07
-3.62174e-06
5.02377e-07
-3.65884e-06
2.28664e-07
-3.67099e-06