/*--------------------------------*- C++ -*----------------------------------*\
  =========                 |
  \\      /  F ield         | OpenFOAM: The Open Source CFD Toolbox
   \\    /   O peration     | Website:  https://openfoam.org
    \\  /    A nd           | Version:  12
     \\/     M anipulation  |
\*---------------------------------------------------------------------------*/
FoamFile
{
    format      ascii;
    class       volVectorField;
    location    "0.5";
    object      U;
}
// * * * * * * * * * * * * * * * * * * * * * * * * * * * * * * * * * * * * * //

dimensions      [0 1 -1 0 0 0 0];

internalField   nonuniform List<vector> 
5625
(
(8.58236e-06 -4.04426e-06 0)
(4.65716e-05 -7.36237e-06 0)
(8.54807e-05 -6.66184e-06 0)
(0.000102834 -3.87507e-06 0)
(8.94212e-05 -7.88266e-07 0)
(4.48307e-05 2.00713e-06 0)
(-2.75347e-05 4.37136e-06 0)
(-0.000123 6.26089e-06 0)
(-0.000236708 7.67522e-06 0)
(-0.00036411 8.66861e-06 0)
(-0.000501349 9.33906e-06 0)
(-0.000645403 9.7768e-06 0)
(-0.000794067 1.006e-05 0)
(-0.000945838 1.02477e-05 0)
(-0.00109979 1.03871e-05 0)
(-0.00125547 1.05126e-05 0)
(-0.00141276 1.06504e-05 0)
(-0.00157181 1.08186e-05 0)
(-0.00173299 1.10308e-05 0)
(-0.0018968 1.12958e-05 0)
(-0.00206387 1.16217e-05 0)
(-0.00223494 1.20141e-05 0)
(-0.00241082 1.248e-05 0)
(-0.00259247 1.30256e-05 0)
(-0.00278093 1.36604e-05 0)
(-0.00297738 1.43932e-05 0)
(-0.00318312 1.52369e-05 0)
(-0.00339963 1.62043e-05 0)
(-0.00362853 1.73118e-05 0)
(-0.00387165 1.85754e-05 0)
(-0.00413097 2.00135e-05 0)
(-0.00440866 2.16435e-05 0)
(-0.00470707 2.34835e-05 0)
(-0.00502869 2.55496e-05 0)
(-0.00537616 2.78576e-05 0)
(-0.00575221 3.04193e-05 0)
(-0.00615958 3.3244e-05 0)
(-0.00660101 3.63339e-05 0)
(-0.00707904 3.96837e-05 0)
(-0.00759594 4.32757e-05 0)
(-0.00815349 4.70764e-05 0)
(-0.00875275 5.10307e-05 0)
(-0.00939375 5.50554e-05 0)
(-0.0100752 5.90331e-05 0)
(-0.0107938 6.28037e-05 0)
(-0.0115443 6.61593e-05 0)
(-0.0123184 6.88375e-05 0)
(-0.0131047 7.0521e-05 0)
(-0.0138878 7.08417e-05 0)
(-0.0146486 6.93873e-05 0)
(-0.0153635 6.5729e-05 0)
(-0.0160049 5.94654e-05 0)
(-0.0165408 4.99602e-05 0)
(-0.0169396 3.7153e-05 0)
(-0.0171628 2.17942e-05 0)
(-0.0171883 2.00141e-06 0)
(-0.0169757 -1.96661e-05 0)
(-0.0165099 -4.37042e-05 0)
(-0.0157789 -6.85617e-05 0)
(-0.0147855 -9.2869e-05 0)
(-0.0135476 -0.000114984 0)
(-0.0120998 -0.00013321 0)
(-0.0104921 -0.000145982 0)
(-0.00878829 -0.000152079 0)
(-0.00706086 -0.000150814 0)
(-0.00538593 -0.000142159 0)
(-0.00383672 -0.000126775 0)
(-0.00247728 -0.000105931 0)
(-0.00135729 -8.13166e-05 0)
(-0.000508587 -5.48125e-05 0)
(5.66482e-05 -2.83265e-05 0)
(0.00034634 -3.70471e-06 0)
(0.000389914 1.7269e-05 0)
(0.000255539 2.97514e-05 0)
(6.0002e-05 2.73362e-05 0)
(2.27968e-05 -2.4162e-05 0)
(0.000107453 -4.05936e-05 0)
(0.000173003 -2.66753e-05 0)
(0.00017721 1.32669e-06 0)
(0.0001011 3.27596e-05 0)
(-5.67333e-05 6.2397e-05 0)
(-0.000288317 8.80669e-05 0)
(-0.000582129 0.000108986 0)
(-0.000925919 0.000125178 0)
(-0.00130805 0.000137161 0)
(-0.00171841 0.000145696 0)
(-0.00214885 0.000151592 0)
(-0.00259323 0.000155599 0)
(-0.00304723 0.000158361 0)
(-0.00350808 0.000160403 0)
(-0.00397427 0.00016214 0)
(-0.0044453 0.000163889 0)
(-0.0049214 0.00016589 0)
(-0.00540342 0.000168323 0)
(-0.00589266 0.00017133 0)
(-0.00639078 0.000175028 0)
(-0.00689979 0.000179524 0)
(-0.00742197 0.000184924 0)
(-0.00795995 0.000191339 0)
(-0.00851666 0.000198895 0)
(-0.00909542 0.000207726 0)
(-0.00969992 0.000217985 0)
(-0.0103343 0.000229834 0)
(-0.0110031 0.000243448 0)
(-0.0117115 0.000259008 0)
(-0.0124648 0.000276696 0)
(-0.0132693 0.00029669 0)
(-0.0141312 0.000319155 0)
(-0.0150573 0.000344236 0)
(-0.0160549 0.00037204 0)
(-0.0171311 0.000402625 0)
(-0.0182932 0.00043598 0)
(-0.0195481 0.000471992 0)
(-0.0209022 0.000510421 0)
(-0.0223609 0.000550854 0)
(-0.0239278 0.000592663 0)
(-0.0256044 0.00063494 0)
(-0.0273892 0.000676447 0)
(-0.0292764 0.000715544 0)
(-0.0312551 0.000750144 0)
(-0.033308 0.000777661 0)
(-0.0354101 0.000795007 0)
(-0.0375276 0.000798615 0)
(-0.0396167 0.000784545 0)
(-0.0416233 0.000748633 0)
(-0.0434829 0.000686747 0)
(-0.0451212 0.000595084 0)
(-0.0464545 0.000470285 0)
(-0.0474032 0.000309055 0)
(-0.0478578 0.00012191 0)
(-0.0477784 -0.000102547 0)
(-0.0470628 -0.000349914 0)
(-0.0456759 -0.000613178 0)
(-0.0435952 -0.000880146 0)
(-0.0408345 -0.0011364 0)
(-0.037446 -0.00136594 0)
(-0.033522 -0.00155265 0)
(-0.0291931 -0.00168195 0)
(-0.0246219 -0.0017426 0)
(-0.0199929 -0.00172827 0)
(-0.0154988 -0.00163865 0)
(-0.0113256 -0.00147975 0)
(-0.0076374 -0.00126333 0)
(-0.00456317 -0.00100561 0)
(-0.00218745 -0.000725507 0)
(-0.00054439 -0.000443263 0)
(0.000385231 -0.000180417 0)
(0.000678586 3.7375e-05 0)
(0.000501811 0.000168399 0)
(0.000116064 0.00014509 0)
(3.08234e-05 -5.97714e-05 0)
(0.000134416 -8.47534e-05 0)
(0.000192454 -4.20249e-05 0)
(0.000150198 3.24944e-05 0)
(-1.5836e-05 0.000115225 0)
(-0.000306494 0.000193799 0)
(-0.000710113 0.000262434 0)
(-0.0012097 0.000318929 0)
(-0.00178697 0.000363226 0)
(-0.00242452 0.000396513 0)
(-0.00310706 0.000420631 0)
(-0.00382212 0.000437594 0)
(-0.0045601 0.000449327 0)
(-0.00531411 0.000457521 0)
(-0.00607962 0.000463588 0)
(-0.00685402 0.000468658 0)
(-0.00763629 0.000473613 0)
(-0.0084266 0.000479132 0)
(-0.00922613 0.000485736 0)
(-0.0100368 0.000493839 0)
(-0.0108611 0.000503788 0)
(-0.0117021 0.000515897 0)
(-0.0125635 0.000530474 0)
(-0.0134494 0.000547843 0)
(-0.0143644 0.00056835 0)
(-0.0153137 0.000592374 0)
(-0.0163032 0.000620331 0)
(-0.0173395 0.000652659 0)
(-0.0184298 0.000689829 0)
(-0.019582 0.000732315 0)
(-0.0208048 0.000780597 0)
(-0.0221075 0.00083513 0)
(-0.0235002 0.000896327 0)
(-0.0249934 0.000964531 0)
(-0.0265979 0.00103997 0)
(-0.0283247 0.00112273 0)
(-0.0301848 0.00121265 0)
(-0.0321881 0.00130933 0)
(-0.0343439 0.00141194 0)
(-0.0366591 0.0015192 0)
(-0.0391383 0.00162918 0)
(-0.0417818 0.00173923 0)
(-0.044585 0.00184576 0)
(-0.0475366 0.00194413 0)
(-0.0506168 0.00202852 0)
(-0.0537958 0.00209186 0)
(-0.0570316 0.00212583 0)
(-0.060269 0.002121 0)
(-0.0634378 0.00206713 0)
(-0.0664527 0.00195365 0)
(-0.0692134 0.00177035 0)
(-0.0716064 0.00150831 0)
(-0.0735075 0.00116035 0)
(-0.0747958 0.000719813 0)
(-0.0753231 0.000209435 0)
(-0.0750125 -0.000387566 0)
(-0.0737408 -0.0010427 0)
(-0.0714557 -0.00173278 0)
(-0.0681336 -0.00242699 0)
(-0.0638028 -0.00308871 0)
(-0.0585467 -0.00367794 0)
(-0.0525056 -0.00415476 0)
(-0.0458732 -0.00448335 0)
(-0.0388882 -0.0046362 0)
(-0.0318198 -0.00459785 0)
(-0.0249491 -0.00436745 0)
(-0.0185483 -0.00395967 0)
(-0.0128589 -0.00340352 0)
(-0.00807339 -0.0027395 0)
(-0.00432003 -0.00201571 0)
(-0.00165322 -0.00128471 0)
(-4.71036e-05 -0.000603368 0)
(0.000610952 -3.8346e-05 0)
(0.000554632 0.000314809 0)
(0.000134744 0.000304578 0)
(3.3302e-05 -9.958e-05 0)
(0.000131052 -0.000124584 0)
(0.000151699 -3.63035e-05 0)
(3.62951e-05 0.000104662 0)
(-0.0002408 0.00025963 0)
(-0.00067936 0.000407049 0)
(-0.00126466 0.000536322 0)
(-0.00197532 0.000643324 0)
(-0.00278816 0.000727849 0)
(-0.00368095 0.000791965 0)
(-0.00463403 0.000838909 0)
(-0.00563116 0.000872297 0)
(-0.00665968 0.000895638 0)
(-0.00771034 0.000912064 0)
(-0.00877688 0.000924225 0)
(-0.00985562 0.000934275 0)
(-0.0109449 0.000943916 0)
(-0.0120448 0.000954471 0)
(-0.0131566 0.000966975 0)
(-0.0142827 0.000982257 0)
(-0.0154264 0.00100101 0)
(-0.0165918 0.00102388 0)
(-0.0177834 0.00105146 0)
(-0.0190069 0.00108441 0)
(-0.0202684 0.00112339 0)
(-0.0215749 0.00116915 0)
(-0.0229342 0.00122247 0)
(-0.0243549 0.0012842 0)
(-0.0258468 0.00135521 0)
(-0.0274203 0.00143639 0)
(-0.0290869 0.00152864 0)
(-0.0308589 0.00163278 0)
(-0.0327493 0.00174954 0)
(-0.034772 0.0018795 0)
(-0.0369409 0.00202302 0)
(-0.0392701 0.00218011 0)
(-0.0417732 0.00235035 0)
(-0.0444628 0.00253276 0)
(-0.0473496 0.00272557 0)
(-0.0504416 0.00292605 0)
(-0.0537427 0.00313028 0)
(-0.0572514 0.00333288 0)
(-0.0609588 0.00352672 0)
(-0.0648472 0.00370272 0)
(-0.0688872 0.0038496 0)
(-0.0730363 0.00395383 0)
(-0.077236 0.00399973 0)
(-0.0814108 0.00396972 0)
(-0.0854664 0.00384505 0)
(-0.0892899 0.00360664 0)
(-0.0927507 0.00323654 0)
(-0.0957028 0.00271964 0)
(-0.0979896 0.00204522 0)
(-0.0994574 0.00120806 0)
(-0.0999424 0.000227433 0)
(-0.0993187 -0.000889855 0)
(-0.0974688 -0.00211182 0)
(-0.0943272 -0.00339064 0)
(-0.0898747 -0.00466984 0)
(-0.0841547 -0.00588322 0)
(-0.0772776 -0.0069593 0)
(-0.0694222 -0.00782726 0)
(-0.0608312 -0.00842383 0)
(-0.0518011 -0.00870044 0)
(-0.0426652 -0.00862968 0)
(-0.0337719 -0.00820975 0)
(-0.0254597 -0.00746623 0)
(-0.0180317 -0.0064504 0)
(-0.0117318 -0.00523463 0)
(-0.00672544 -0.00390612 0)
(-0.00308643 -0.00256147 0)
(-0.000787004 -0.00130578 0)
(0.000309391 -0.000260615 0)
(0.000481032 0.000412725 0)
(0.000132655 0.000468306 0)
(3.1133e-05 -0.000134827 0)
(0.000101076 -0.000146926 0)
(6.05614e-05 3.29809e-06 0)
(-0.000150458 0.000228311 0)
(-0.000556856 0.000473059 0)
(-0.00115669 0.000705863 0)
(-0.00193243 0.000910617 0)
(-0.00285908 0.00108086 0)
(-0.00390941 0.00121612 0)
(-0.00505713 0.00131943 0)
(-0.00627884 0.00139566 0)
(-0.007555 0.00145031 0)
(-0.00887023 0.00148878 0)
(-0.0102131 0.00151598 0)
(-0.0115758 0.00153608 0)
(-0.0129536 0.00155252 0)
(-0.0143441 0.00156804 0)
(-0.0157472 0.00158482 0)
(-0.0171643 0.00160454 0)
(-0.0185982 0.00162859 0)
(-0.0200527 0.00165813 0)
(-0.0215326 0.00169422 0)
(-0.0230437 0.00173788 0)
(-0.0245928 0.00179015 0)
(-0.0261873 0.00185215 0)
(-0.0278357 0.00192505 0)
(-0.0295478 0.00201014 0)
(-0.031334 0.00210874 0)
(-0.0332062 0.00222225 0)
(-0.0351772 0.00235208 0)
(-0.0372609 0.00249959 0)
(-0.0394722 0.00266605 0)
(-0.0418269 0.00285256 0)
(-0.0443414 0.00305994 0)
(-0.0470323 0.0032886 0)
(-0.0499162 0.00353842 0)
(-0.0530089 0.00380851 0)
(-0.0563245 0.00409701 0)
(-0.0598749 0.00440079 0)
(-0.0636679 0.00471517 0)
(-0.0677062 0.00503346 0)
(-0.0719853 0.00534667 0)
(-0.0764919 0.00564303 0)
(-0.0812008 0.0059077 0)
(-0.0860731 0.00612246 0)
(-0.0910537 0.00626572 0)
(-0.0960686 0.00631268 0)
(-0.101023 0.00623595 0)
(-0.105803 0.00600667 0)
(-0.110269 0.005596 0)
(-0.114267 0.00497737 0)
(-0.117625 0.00412923 0)
(-0.120161 0.00303782 0)
(-0.121697 0.00170031 0)
(-0.122055 0.000139605 0)
(-0.121084 -0.00162256 0)
(-0.118665 -0.00353608 0)
(-0.114729 -0.00552825 0)
(-0.109264 -0.007512 0)
(-0.102325 -0.00938664 0)
(-0.0940461 -0.0110444 0)
(-0.0846345 -0.0123789 0)
(-0.0743702 -0.0132955 0)
(-0.063593 -0.0137212 0)
(-0.0526851 -0.0136144 0)
(-0.0420469 -0.0129717 0)
(-0.0320698 -0.0118306 0)
(-0.0231069 -0.0102676 0)
(-0.0154456 -0.00839193 0)
(-0.00928489 -0.00633701 0)
(-0.0047177 -0.00425213 0)
(-0.00171903 -0.00230022 0)
(-0.000137962 -0.000666798 0)
(0.00033055 0.000414208 0)
(0.00012055 0.000602529 0)
(2.73994e-05 -0.000161267 0)
(5.3627e-05 -0.000141516 0)
(-6.85491e-05 8.77122e-05 0)
(-0.000394779 0.000413019 0)
(-0.000946974 0.0007629 0)
(-0.00172066 0.00109527 0)
(-0.00269542 0.00138814 0)
(-0.00384306 0.0016325 0)
(-0.00513288 0.00182753 0)
(-0.00653516 0.00197729 0)
(-0.00802331 0.00208843 0)
(-0.00957494 0.00216857 0)
(-0.0111723 0.00222527 0)
(-0.012802 0.00226544 0)
(-0.0144548 0.00229503 0)
(-0.0161248 0.00231899 0)
(-0.0178093 0.00234131 0)
(-0.0195077 0.00236515 0)
(-0.0212215 0.00239303 0)
(-0.0229536 0.002427 0)
(-0.0247085 0.00246881 0)
(-0.0264917 0.00252003 0)
(-0.0283098 0.00258218 0)
(-0.0301706 0.00265681 0)
(-0.0320829 0.00274554 0)
(-0.0340567 0.00285011 0)
(-0.0361031 0.00297234 0)
(-0.0382345 0.00311417 0)
(-0.0404645 0.00327758 0)
(-0.042808 0.00346456 0)
(-0.0452811 0.00367702 0)
(-0.047901 0.00391672 0)
(-0.0506859 0.00418513 0)
(-0.0536542 0.00448329 0)
(-0.056825 0.00481161 0)
(-0.0602166 0.00516967 0)
(-0.0638465 0.00555589 0)
(-0.0677299 0.00596726 0)
(-0.0718788 0.00639886 0)
(-0.0763006 0.00684345 0)
(-0.0809961 0.00729093 0)
(-0.0859574 0.00772781 0)
(-0.091166 0.00813668 0)
(-0.0965895 0.00849577 0)
(-0.10218 0.00877867 0)
(-0.107869 0.00895434 0)
(-0.11357 0.00898756 0)
(-0.11917 0.00883988 0)
(-0.124537 0.00847128 0)
(-0.129513 0.00784246 0)
(-0.133922 0.00691801 0)
(-0.137571 0.00567025 0)
(-0.14026 0.0040834 0)
(-0.141794 0.00215814 0)
(-0.141983 -7.7223e-05 0)
(-0.140664 -0.00258329 0)
(-0.137716 -0.00528839 0)
(-0.133069 -0.00809247 0)
(-0.126715 -0.0108747 0)
(-0.118722 -0.0134967 0)
(-0.109238 -0.0158113 0)
(-0.0984914 -0.0176734 0)
(-0.0867894 -0.018954 0)
(-0.074504 -0.019553 0)
(-0.0620548 -0.0194127 0)
(-0.049884 -0.0185265 0)
(-0.0384268 -0.0169439 0)
(-0.0280796 -0.0147683 0)
(-0.0191693 -0.0121493 0)
(-0.0119263 -0.00927174 0)
(-0.00646388 -0.0063443 0)
(-0.00276414 -0.00359502 0)
(-0.000669662 -0.00127964 0)
(0.000137768 0.000291616 0)
(0.000104213 0.00069 0)
(2.19404e-05 -0.000172583 0)
(-7.78589e-06 -9.9925e-05 0)
(-0.000227152 0.000225907 0)
(-0.000684639 0.000667014 0)
(-0.00139678 0.00113595 0)
(-0.00235546 0.00158031 0)
(-0.00353706 0.0019722 0)
(-0.00491025 0.00229999 0)
(-0.00644124 0.00256251 0)
(-0.00809737 0.00276491 0)
(-0.00984927 0.00291576 0)
(-0.0116721 0.00302498 0)
(-0.0135461 0.00310248 0)
(-0.0154562 0.0031574 0)
(-0.0173917 0.00319768 0)
(-0.0193461 0.00322997 0)
(-0.0213159 0.00325965 0)
(-0.0233001 0.00329105 0)
(-0.0253003 0.00332765 0)
(-0.0273198 0.00337227 0)
(-0.0293632 0.00342734 0)
(-0.0314368 0.00349506 0)
(-0.0335479 0.00357754 0)
(-0.0357053 0.0036769 0)
(-0.0379189 0.00379538 0)
(-0.0401999 0.00393532 0)
(-0.0425609 0.0040992 0)
(-0.0450158 0.00428961 0)
(-0.04758 0.00450921 0)
(-0.0502701 0.00476061 0)
(-0.0531043 0.00504634 0)
(-0.0561016 0.00536865 0)
(-0.059282 0.00572938 0)
(-0.0626662 0.00612975 0)
(-0.0662748 0.00657007 0)
(-0.0701277 0.00704946 0)
(-0.0742435 0.00756544 0)
(-0.078638 0.00811351 0)
(-0.0833231 0.00868654 0)
(-0.088305 0.0092742 0)
(-0.0935823 0.00986231 0)
(-0.0991435 0.0104321 0)
(-0.104965 0.0109596 0)
(-0.111007 0.0114151 0)
(-0.117213 0.0117629 0)
(-0.123504 0.0119615 0)
(-0.129779 0.0119642 0)
(-0.135914 0.0117207 0)
(-0.141759 0.0111791 0)
(-0.14714 0.0102894 0)
(-0.151865 0.00900755 0)
(-0.155727 0.00730027 0)
(-0.158512 0.0051507 0)
(-0.160012 0.00256397 0)
(-0.160029 -0.000423852 0)
(-0.158394 -0.00375442 0)
(-0.154984 -0.00733237 0)
(-0.149725 -0.0110284 0)
(-0.142615 -0.014686 0)
(-0.133727 -0.0181271 0)
(-0.123216 -0.0211628 0)
(-0.111325 -0.0236073 0)
(-0.0983795 -0.0252943 0)
(-0.0847744 -0.0260941 0)
(-0.0709593 -0.02593 0)
(-0.0574113 -0.0247908 0)
(-0.044605 -0.0227367 0)
(-0.0329769 -0.0198988 0)
(-0.0228919 -0.0164696 0)
(-0.0146124 -0.0126895 0)
(-0.0082741 -0.00883191 0)
(-0.0038706 -0.00519604 0)
(-0.00124445 -0.00211244 0)
(-7.39965e-05 3.07546e-05 0)
(8.70297e-05 0.000723289 0)
(1.59124e-05 -0.000167238 0)
(-7.80383e-05 -1.65244e-05 0)
(-0.000407252 0.000425021 0)
(-0.00100941 0.000997284 0)
(-0.00189361 0.00159818 0)
(-0.00304706 0.00216553 0)
(-0.00444233 0.00266581 0)
(-0.00604494 0.00308488 0)
(-0.00781823 0.00342129 0)
(-0.00972691 0.00368142 0)
(-0.0117392 0.00387589 0)
(-0.0138283 0.00401704 0)
(-0.0159726 0.00411733 0)
(-0.0181556 0.0041883 0)
(-0.0203657 0.00424005 0)
(-0.0225952 0.00428107 0)
(-0.0248402 0.00431832 0)
(-0.0270996 0.00435741 0)
(-0.0293748 0.00440287 0)
(-0.0316691 0.00445844 0)
(-0.0339879 0.00452731 0)
(-0.0363376 0.0046124 0)
(-0.0387265 0.00471647 0)
(-0.041164 0.00484232 0)
(-0.0436612 0.00499285 0)
(-0.0462302 0.00517111 0)
(-0.0488851 0.00538029 0)
(-0.051641 0.0056237 0)
(-0.0545149 0.00590473 0)
(-0.0575251 0.00622668 0)
(-0.0606912 0.00659269 0)
(-0.0640341 0.00700554 0)
(-0.0675754 0.0074674 0)
(-0.0713375 0.00797961 0)
(-0.0753422 0.00854229 0)
(-0.0796108 0.00915393 0)
(-0.0841624 0.00981092 0)
(-0.0890132 0.0105069 0)
(-0.0941746 0.0112322 0)
(-0.0996513 0.0119729 0)
(-0.10544 0.01271 0)
(-0.111525 0.0134189 0)
(-0.117877 0.0140682 0)
(-0.124452 0.0146195 0)
(-0.131183 0.0150269 0)
(-0.137983 0.0152376 0)
(-0.144741 0.0151927 0)
(-0.15132 0.0148296 0)
(-0.157557 0.0140842 0)
(-0.163267 0.0128959 0)
(-0.168246 0.0112121 0)
(-0.172277 0.00899486 0)
(-0.175135 0.00622685 0)
(-0.176603 0.00291847 0)
(-0.176479 -0.000884593 0)
(-0.174588 -0.00510455 0)
(-0.170803 -0.00962144 0)
(-0.165049 -0.0142755 0)
(-0.15732 -0.0188736 0)
(-0.14769 -0.023197 0)
(-0.136316 -0.0270134 0)
(-0.123446 -0.030094 0)
(-0.109416 -0.0322327 0)
(-0.0946381 -0.0332669 0)
(-0.079586 -0.0330981 0)
(-0.0647685 -0.0317071 0)
(-0.0506973 -0.0291636 0)
(-0.0378495 -0.0256261 0)
(-0.0266292 -0.0213316 0)
(-0.0173331 -0.0165796 0)
(-0.0101232 -0.0117133 0)
(-0.00500858 -0.00710808 0)
(-0.00183706 -0.00317312 0)
(-0.000290452 -0.000375201 0)
(7.08618e-05 0.000700443 0)
(9.18477e-06 -0.00014228 0)
(-0.000155327 0.000113708 0)
(-0.00060379 0.000690804 0)
(-0.00136121 0.00140954 0)
(-0.00242729 0.00215454 0)
(-0.00378348 0.0028547 0)
(-0.005398 0.00347137 0)
(-0.00723294 0.0039882 0)
(-0.00924887 0.00440368 0)
(-0.0114081 0.00472553 0)
(-0.0136768 0.00496656 0)
(-0.0160265 0.00514173 0)
(-0.0184339 0.00526616 0)
(-0.0208815 0.00535395 0)
(-0.0233566 0.00541748 0)
(-0.025851 0.00546724 0)
(-0.0283603 0.00551187 0)
(-0.030883 0.00555837 0)
(-0.0334205 0.00561245 0)
(-0.0359764 0.00567884 0)
(-0.0385561 0.00576159 0)
(-0.0411667 0.00586439 0)
(-0.0438171 0.00599077 0)
(-0.0465173 0.00614425 0)
(-0.0492793 0.00632848 0)
(-0.0521163 0.00654727 0)
(-0.0550434 0.00680458 0)
(-0.0580772 0.00710452 0)
(-0.0612357 0.00745122 0)
(-0.0645387 0.00784872 0)
(-0.0680074 0.0083008 0)
(-0.0716639 0.00881074 0)
(-0.0755316 0.00938105 0)
(-0.0796337 0.0100131 0)
(-0.0839935 0.0107067 0)
(-0.088633 0.0114595 0)
(-0.0935718 0.0122666 0)
(-0.0988261 0.0131195 0)
(-0.104407 0.0140055 0)
(-0.110317 0.0149066 0)
(-0.11655 0.0157988 0)
(-0.123088 0.0166507 0)
(-0.129899 0.017423 0)
(-0.136929 0.0180677 0)
(-0.144108 0.0185285 0)
(-0.151339 0.0187404 0)
(-0.158504 0.0186322 0)
(-0.165456 0.0181283 0)
(-0.172023 0.0171528 0)
(-0.178013 0.0156345 0)
(-0.183212 0.0135127 0)
(-0.187395 0.0107452 0)
(-0.190333 0.00731487 0)
(-0.191802 0.00323779 0)
(-0.191594 -0.00142969 0)
(-0.189531 -0.00659063 0)
(-0.185478 -0.0121003 0)
(-0.179356 -0.0177683 0)
(-0.17115 -0.0233648 0)
(-0.160927 -0.0286295 0)
(-0.148841 -0.0332857 0)
(-0.135137 -0.0370593 0)
(-0.120154 -0.0397013 0)
(-0.104316 -0.0410127 0)
(-0.0881187 -0.0408686 0)
(-0.0720995 -0.0392385 0)
(-0.0568085 -0.0361987 0)
(-0.0427653 -0.0319342 0)
(-0.0304174 -0.0267277 0)
(-0.0201004 -0.0209413 0)
(-0.0120067 -0.0149923 0)
(-0.00616555 -0.00933699 0)
(-0.00243491 -0.00446721 0)
(-0.00050392 -0.000929045 0)
(5.6843e-05 0.000622252 0)
(2.41893e-06 -9.70211e-05 0)
(-0.000236771 0.000293794 0)
(-0.000811886 0.00102758 0)
(-0.00173293 0.00190835 0)
(-0.00298883 0.00280907 0)
(-0.00455422 0.00365089 0)
(-0.0063923 0.00439075 0)
(-0.00846148 0.00501056 0)
(-0.0107195 0.00550905 0)
(-0.0131266 0.00589552 0)
(-0.015647 0.00618515 0)
(-0.0182507 0.00639563 0)
(-0.0209134 0.0065449 0)
(-0.0236165 0.0066497 0)
(-0.0263465 0.00672485 0)
(-0.0290947 0.00678291 0)
(-0.0318562 0.00683431 0)
(-0.0346295 0.00688756 0)
(-0.0374159 0.00694961 0)
(-0.0402189 0.00702626 0)
(-0.0430444 0.0071225 0)
(-0.0458998 0.00724289 0)
(-0.0487944 0.00739176 0)
(-0.0517391 0.00757344 0)
(-0.0547465 0.00779238 0)
(-0.0578309 0.0080532 0)
(-0.0610082 0.00836071 0)
(-0.064296 0.00871983 0)
(-0.0677137 0.0091355 0)
(-0.0712821 0.00961251 0)
(-0.0750238 0.0101553 0)
(-0.0789622 0.0107676 0)
(-0.0831216 0.0114522 0)
(-0.0875265 0.0122106 0)
(-0.0922011 0.0130419 0)
(-0.0971678 0.013943 0)
(-0.102447 0.0149074 0)
(-0.108054 0.0159242 0)
(-0.113999 0.0169773 0)
(-0.120284 0.0180445 0)
(-0.126902 0.0190958 0)
(-0.13383 0.020093 0)
(-0.141031 0.0209883 0)
(-0.14845 0.0217238 0)
(-0.156009 0.0222318 0)
(-0.163608 0.0224355 0)
(-0.17112 0.0222507 0)
(-0.178393 0.021589 0)
(-0.18525 0.0203628 0)
(-0.191492 0.0184904 0)
(-0.1969 0.0159036 0)
(-0.201247 0.0125562 0)
(-0.204297 0.00843139 0)
(-0.205823 0.00355091 0)
(-0.205611 -0.00201809 0)
(-0.203478 -0.0081604 0)
(-0.199278 -0.0147073 0)
(-0.192921 -0.0214381 0)
(-0.184382 -0.0280868 0)
(-0.173713 -0.0343513 0)
(-0.161055 -0.0399094 0)
(-0.146646 -0.0444393 0)
(-0.130821 -0.0476456 0)
(-0.114012 -0.049288 0)
(-0.0967312 -0.0492103 0)
(-0.0795468 -0.0473657 0)
(-0.0630486 -0.0438334 0)
(-0.0478036 -0.0388229 0)
(-0.0343079 -0.032664 0)
(-0.0229422 -0.0257838 0)
(-0.0139354 -0.0186788 0)
(-0.00734239 -0.0118915 0)
(-0.00303498 -0.00600016 0)
(-0.000711882 -0.00163167 0)
(4.53059e-05 0.000490548 0)
(-4.59544e-06 -2.9911e-05 0)
(-0.000321551 0.000526451 0)
(-0.00102852 0.00143883 0)
(-0.00211947 0.00249727 0)
(-0.00357114 0.00356488 0)
(-0.00535048 0.00455637 0)
(-0.00741504 0.00542515 0)
(-0.00971926 0.00615202 0)
(-0.012218 0.00673637 0)
(-0.0148693 0.00718934 0)
(-0.017636 0.00752868 0)
(-0.0204867 0.00777498 0)
(-0.0233961 0.00794909 0)
(-0.0263449 0.00807054 0)
(-0.029319 0.00815662 0)
(-0.0323092 0.00822211 0)
(-0.0353103 0.00827928 0)
(-0.0383207 0.0083382 0)
(-0.0413417 0.00840717 0)
(-0.0443768 0.00849311 0)
(-0.0474322 0.00860203 0)
(-0.0505156 0.00873941 0)
(-0.0536369 0.00891045 0)
(-0.0568073 0.00912034 0)
(-0.0600404 0.00937438 0)
(-0.0633509 0.00967808 0)
(-0.0667559 0.0100371 0)
(-0.0702738 0.0104573 0)
(-0.073925 0.0109443 0)
(-0.0777315 0.0115038 0)
(-0.0817167 0.0121408 0)
(-0.0859053 0.0128596 0)
(-0.0903224 0.0136632 0)
(-0.0949935 0.0145528 0)
(-0.0999434 0.0155273 0)
(-0.105195 0.0165823 0)
(-0.110769 0.0177095 0)
(-0.116681 0.0188955 0)
(-0.122939 0.0201206 0)
(-0.129546 0.0213578 0)
(-0.136491 0.0225712 0)
(-0.14375 0.0237151 0)
(-0.151284 0.0247329 0)
(-0.159033 0.0255566 0)
(-0.166917 0.0261072 0)
(-0.174831 0.0262954 0)
(-0.182645 0.0260243 0)
(-0.190204 0.0251931 0)
(-0.197328 0.0237021 0)
(-0.203814 0.0214598 0)
(-0.209443 0.0183907 0)
(-0.213983 0.0144442 0)
(-0.217198 0.00960403 0)
(-0.218855 0.00389677 0)
(-0.218735 -0.00260025 0)
(-0.216645 -0.00975502 0)
(-0.212428 -0.0173761 0)
(-0.205977 -0.0252141 0)
(-0.197249 -0.0329674 0)
(-0.186277 -0.0402923 0)
(-0.173181 -0.0468197 0)
(-0.158184 -0.0521779 0)
(-0.141614 -0.0560208 0)
(-0.123904 -0.0580611 0)
(-0.105582 -0.0581051 0)
(-0.0872455 -0.0560833 0)
(-0.0695282 -0.052073 0)
(-0.0530493 -0.046306 0)
(-0.0383614 -0.0391585 0)
(-0.0258981 -0.0311263 0)
(-0.0159322 -0.0227902 0)
(-0.00854992 -0.0147844 0)
(-0.00364124 -0.00777916 0)
(-0.000915359 -0.00248435 0)
(3.6135e-05 0.000307368 0)
(-1.14746e-05 5.91642e-05 0)
(-0.000407972 0.000813152 0)
(-0.00125066 0.00192688 0)
(-0.00251608 0.00317888 0)
(-0.00416787 0.00442429 0)
(-0.0061645 0.00557276 0)
(-0.00845726 0.00657526 0)
(-0.0109963 0.00741222 0)
(-0.0137335 0.00808421 0)
(-0.0166248 0.00860458 0)
(-0.0196316 0.00899387 0)
(-0.0227216 0.00927571 0)
(-0.0258686 0.00947402 0)
(-0.0290528 0.00961116 0)
(-0.0322596 0.00970702 0)
(-0.0354795 0.0097786 0)
(-0.0387072 0.0098401 0)
(-0.0419408 0.00990323 0)
(-0.0451815 0.00997766 0)
(-0.0484333 0.0100715 0)
(-0.0517023 0.0101919 0)
(-0.0549966 0.0103452 0)
(-0.0583264 0.0105376 0)
(-0.0617036 0.0107752 0)
(-0.0651421 0.0110642 0)
(-0.0686576 0.0114109 0)
(-0.0722676 0.0118221 0)
(-0.0759916 0.0123044 0)
(-0.0798508 0.0128643 0)
(-0.083868 0.0135083 0)
(-0.0880676 0.0142421 0)
(-0.0924751 0.0150704 0)
(-0.0971165 0.0159963 0)
(-0.102018 0.017021 0)
(-0.107205 0.0181427 0)
(-0.112701 0.0193557 0)
(-0.118526 0.02065 0)
(-0.124696 0.0220092 0)
(-0.13122 0.0234099 0)
(-0.138098 0.02482 0)
(-0.145318 0.0261976 0)
(-0.152856 0.0274893 0)
(-0.160671 0.0286296 0)
(-0.1687 0.0295401 0)
(-0.176863 0.0301305 0)
(-0.185052 0.0302992 0)
(-0.193136 0.0299367 0)
(-0.200959 0.0289298 0)
(-0.208341 0.0271674 0)
(-0.21508 0.024548 0)
(-0.220955 0.0209886 0)
(-0.225735 0.0164344 0)
(-0.229181 0.0108684 0)
(-0.231055 0.00432131 0)
(-0.231133 -0.00312095 0)
(-0.229207 -0.0113115 0)
(-0.225107 -0.0200384 0)
(-0.218704 -0.0290249 0)
(-0.209931 -0.0379351 0)
(-0.198795 -0.0463843 0)
(-0.185391 -0.0539555 0)
(-0.169919 -0.0602239 0)
(-0.152692 -0.0647881 0)
(-0.134142 -0.0673076 0)
(-0.114808 -0.0675434 0)
(-0.0953184 -0.0653961 0)
(-0.0763525 -0.0609343 0)
(-0.0585887 -0.0544079 0)
(-0.0426442 -0.0462397 0)
(-0.0290154 -0.0369971 0)
(-0.0180278 -0.0273509 0)
(-0.00980604 -0.0180339 0)
(-0.00426255 -0.00981438 0)
(-0.00111792 -0.00349017 0)
(2.8889e-05 7.41254e-05 0)
(-1.84282e-05 0.000170939 0)
(-0.000495705 0.00115529 0)
(-0.00147649 0.00249353 0)
(-0.00291943 0.00395504 0)
(-0.00477414 0.00538881 0)
(-0.00698993 0.00670093 0)
(-0.00951135 0.00784111 0)
(-0.0122839 0.00879026 0)
(-0.0152564 0.00955072 0)
(-0.0183827 0.0101385 0)
(-0.0216231 0.0105771 0)
(-0.0249441 0.0108935 0)
(-0.0283192 0.0111147 0)
(-0.0317281 0.011266 0)
(-0.0351559 0.01137 0)
(-0.0385929 0.0114459 0)
(-0.0420335 0.0115099 0)
(-0.045476 0.0115754 0)
(-0.0489216 0.0116534 0)
(-0.0523743 0.0117535 0)
(-0.0558403 0.0118837 0)
(-0.0593281 0.0120514 0)
(-0.0628482 0.0122639 0)
(-0.0664129 0.0125282 0)
(-0.0700367 0.0128514 0)
(-0.0737358 0.0132408 0)
(-0.0775284 0.0137041 0)
(-0.0814347 0.0142488 0)
(-0.0854765 0.0148825 0)
(-0.0896775 0.0156122 0)
(-0.0940627 0.0164443 0)
(-0.0986585 0.017384 0)
(-0.103492 0.0184346 0)
(-0.108589 0.019597 0)
(-0.113976 0.0208687 0)
(-0.119677 0.0222428 0)
(-0.125712 0.023707 0)
(-0.132097 0.0252423 0)
(-0.13884 0.0268212 0)
(-0.145942 0.0284067 0)
(-0.153391 0.0299503 0)
(-0.161161 0.0313911 0)
(-0.169211 0.0326546 0)
(-0.177478 0.0336523 0)
(-0.185881 0.0342824 0)
(-0.194314 0.0344315 0)
(-0.202646 0.0339775 0)
(-0.210724 0.0327953 0)
(-0.218368 0.0307621 0)
(-0.225379 0.0277669 0)
(-0.231538 0.0237187 0)
(-0.236613 0.0185577 0)
(-0.240364 0.0122654 0)
(-0.242549 0.00487445 0)
(-0.242932 -0.00352219 0)
(-0.241295 -0.0127654 0)
(-0.237444 -0.0226249 0)
(-0.231229 -0.0327992 0)
(-0.222553 -0.0429197 0)
(-0.211391 -0.052561 0)
(-0.197806 -0.0612573 0)
(-0.181969 -0.0685281 0)
(-0.164173 -0.0739114 0)
(-0.144841 -0.0770066 0)
(-0.124521 -0.0775207 0)
(-0.103871 -0.0753148 0)
(-0.083617 -0.0704409 0)
(-0.0645041 -0.0631618 0)
(-0.0472235 -0.0539453 0)
(-0.0323451 -0.0434332 0)
(-0.0202579 -0.0323928 0)
(-0.0111333 -0.0216637 0)
(-0.00491112 -0.0121203 0)
(-0.00132448 -0.00465475 0)
(2.30404e-05 -0.000208926 0)
(-2.52113e-05 0.000305244 0)
(-0.000583713 0.00155334 0)
(-0.0017041 0.00313971 0)
(-0.00332635 0.00482683 0)
(-0.00538552 0.00645929 0)
(-0.00782117 0.00794122 0)
(-0.0105707 0.00922228 0)
(-0.0135745 0.0102848 0)
(-0.0167785 0.0111337 0)
(-0.0201343 0.011788 0)
(-0.023601 0.0122746 0)
(-0.0271446 0.0126238 0)
(-0.0307379 0.012866 0)
(-0.0343604 0.0130295 0)
(-0.0379972 0.0131394 0)
(-0.0416384 0.0132174 0)
(-0.0452784 0.0132817 0)
(-0.0489153 0.0133473 0)
(-0.0525506 0.0134268 0)
(-0.0561882 0.0135308 0)
(-0.0598346 0.0136688 0)
(-0.0634985 0.0138491 0)
(-0.0671906 0.01408 0)
(-0.0709238 0.0143694 0)
(-0.0747128 0.0147256 0)
(-0.0785744 0.0151568 0)
(-0.0825273 0.0156715 0)
(-0.0865921 0.0162783 0)
(-0.0907916 0.0169857 0)
(-0.0951498 0.0178014 0)
(-0.0996926 0.0187326 0)
(-0.104447 0.0197847 0)
(-0.10944 0.0209614 0)
(-0.114699 0.022263 0)
(-0.12025 0.0236865 0)
(-0.126118 0.0252236 0)
(-0.132323 0.0268599 0)
(-0.138882 0.0285733 0)
(-0.145803 0.0303325 0)
(-0.153086 0.0320952 0)
(-0.16072 0.0338069 0)
(-0.16868 0.0353988 0)
(-0.176924 0.0367876 0)
(-0.185393 0.0378749 0)
(-0.194006 0.0385479 0)
(-0.20266 0.0386812 0)
(-0.211226 0.0381411 0)
(-0.219556 0.0367901 0)
(-0.227474 0.0344945 0)
(-0.234783 0.0311329 0)
(-0.241269 0.0266061 0)
(-0.2467 0.0208483 0)
(-0.250834 0.0138376 0)
(-0.253422 0.00560718 0)
(-0.254219 -0.00374591 0)
(-0.252989 -0.0140529 0)
(-0.249517 -0.0250681 0)
(-0.243626 -0.0364675 0)
(-0.235184 -0.047852 0)
(-0.22413 -0.0587565 0)
(-0.210491 -0.0686657 0)
(-0.194402 -0.0770407 0)
(-0.176129 -0.083354 0)
(-0.156078 -0.0871369 0)
(-0.134802 -0.0880327 0)
(-0.112985 -0.0858522 0)
(-0.0914023 -0.0806208 0)
(-0.0708701 -0.0726066 0)
(-0.0521637 -0.0623196 0)
(-0.0359389 -0.0504787 0)
(-0.0226605 -0.0379546 0)
(-0.0125567 -0.0257037 0)
(-0.00560106 -0.0147159 0)
(-0.00154088 -0.0059869 0)
(1.78993e-05 -0.000543088 0)
(-3.20088e-05 0.000462415 0)
(-0.000671908 0.00200777 0)
(-0.0019324 0.00386608 0)
(-0.00373468 0.0057948 0)
(-0.00599868 0.00763598 0)
(-0.00865376 0.00929334 0)
(-0.0116297 0.0107178 0)
(-0.0148619 0.0118942 0)
(-0.0182927 0.0128307 0)
(-0.0218719 0.0135498 0)
(-0.0255574 0.0140822 0)
(-0.0293146 0.0144619 0)
(-0.0331161 0.0147226 0)
(-0.0369411 0.0148957 0)
(-0.0407747 0.015009 0)
(-0.0446071 0.0150865 0)
(-0.0484326 0.0151484 0)
(-0.0522496 0.0152115 0)
(-0.0560593 0.0152899 0)
(-0.059866 0.0153955 0)
(-0.0636762 0.0155388 0)
(-0.0674989 0.0157294 0)
(-0.071345 0.0159766 0)
(-0.0752277 0.0162892 0)
(-0.079162 0.0166766 0)
(-0.0831652 0.017148 0)
(-0.0872564 0.0177129 0)
(-0.0914567 0.0183809 0)
(-0.0957893 0.0191612 0)
(-0.100279 0.0200626 0)
(-0.104952 0.0210927 0)
(-0.109835 0.0222575 0)
(-0.114957 0.0235605 0)
(-0.120345 0.0250021 0)
(-0.126027 0.0265782 0)
(-0.132026 0.0282794 0)
(-0.138364 0.030089 0)
(-0.145057 0.031982 0)
(-0.152116 0.0339231 0)
(-0.15954 0.035865 0)
(-0.16732 0.037747 0)
(-0.175431 0.0394929 0)
(-0.183835 0.0410109 0)
(-0.192474 0.0421927 0)
(-0.201271 0.0429149 0)
(-0.210127 0.0430409 0)
(-0.21892 0.0424251 0)
(-0.227504 0.0409182 0)
(-0.235711 0.0383753 0)
(-0.243349 0.0346645 0)
(-0.250206 0.0296773 0)
(-0.256052 0.0233406 0)
(-0.260642 0.0156274 0)
(-0.263722 0.00656867 0)
(-0.265032 -0.0037367 0)
(-0.264321 -0.0151134 0)
(-0.26135 -0.0273035 0)
(-0.255908 -0.0399631 0)
(-0.247832 -0.0526651 0)
(-0.237019 -0.0649056 0)
(-0.223454 -0.0761204 0)
(-0.207231 -0.0857096 0)
(-0.18858 -0.0930754 0)
(-0.167886 -0.097673 0)
(-0.145696 -0.0990716 0)
(-0.122715 -0.0970191 0)
(-0.0997699 -0.0915018 0)
(-0.0777495 -0.0827834 0)
(-0.0575233 -0.0714115 0)
(-0.0398464 -0.0581838 0)
(-0.0252736 -0.0440817 0)
(-0.0141023 -0.0301896 0)
(-0.00634727 -0.0176254 0)
(-0.00177322 -0.00749901 0)
(1.28359e-05 -0.000931295 0)
(-3.86266e-05 0.000642133 0)
(-0.000759609 0.00251846 0)
(-0.00216019 0.00467264 0)
(-0.00414234 0.00685894 0)
(-0.00661063 0.00891863 0)