/*--------------------------------*- C++ -*----------------------------------*\
  =========                 |
  \\      /  F ield         | OpenFOAM: The Open Source CFD Toolbox
   \\    /   O peration     | Website:  https://openfoam.org
    \\  /    A nd           | Version:  12
     \\/     M anipulation  |
\*---------------------------------------------------------------------------*/
FoamFile
{
    format      ascii;
    class       volScalarField;
    location    "4.5";
    object      k;
}
// * * * * * * * * * * * * * * * * * * * * * * * * * * * * * * * * * * * * * //

dimensions      [0 2 -2 0 0 0 0];

internalField   nonuniform List<scalar> 
18225
(
4.01559e-11
3.03418e-10
6.43875e-10
1.05159e-09
1.51293e-09
2.01794e-09
2.55976e-09
3.13342e-09
3.73517e-09
4.36198e-09
5.01133e-09
5.68106e-09
6.36926e-09
7.07422e-09
7.79437e-09
8.52825e-09
9.27453e-09
1.00319e-08
1.07992e-08
1.15752e-08
1.23588e-08
1.3149e-08
1.39446e-08
1.47446e-08
1.55481e-08
1.63539e-08
1.71613e-08
1.79691e-08
1.87764e-08
1.95824e-08
2.0386e-08
2.11864e-08
2.19826e-08
2.27738e-08
2.35591e-08
2.43376e-08
2.51084e-08
2.58706e-08
2.66235e-08
2.73661e-08
2.80977e-08
2.88174e-08
2.95244e-08
3.0218e-08
3.08972e-08
3.15614e-08
3.22098e-08
3.28416e-08
3.3456e-08
3.40525e-08
3.46301e-08
3.51883e-08
3.57264e-08
3.62436e-08
3.67393e-08
3.72129e-08
3.76637e-08
3.80911e-08
3.84945e-08
3.88734e-08
3.92271e-08
3.95551e-08
3.98569e-08
4.0132e-08
4.03799e-08
4.06e-08
4.0792e-08
4.09554e-08
4.10899e-08
4.11951e-08
4.12705e-08
4.13158e-08
4.13308e-08
4.13152e-08
4.12687e-08
4.11911e-08
4.10822e-08
4.09419e-08
4.077e-08
4.05665e-08
4.03314e-08
4.00646e-08
3.97662e-08
3.94363e-08
3.9075e-08
3.86824e-08
3.82589e-08
3.78045e-08
3.73198e-08
3.6805e-08
3.62606e-08
3.5687e-08
3.50847e-08
3.44544e-08
3.37967e-08
3.31122e-08
3.24017e-08
3.16659e-08
3.09059e-08
3.01224e-08
2.93165e-08
2.84891e-08
2.76414e-08
2.67746e-08
2.58897e-08
2.49881e-08
2.40711e-08
2.31401e-08
2.21965e-08
2.12418e-08
2.02776e-08
1.93054e-08
1.8327e-08
1.7344e-08
1.63583e-08
1.53717e-08
1.43862e-08
1.34038e-08
1.24266e-08
1.14567e-08
1.04965e-08
9.5484e-09
8.61491e-09
7.69878e-09
6.80295e-09
5.93062e-09
5.08534e-09
4.27112e-09
3.49265e-09
2.75564e-09
2.06734e-09
1.43763e-09
8.80516e-10
4.14999e-10
5.4924e-11
2.71689e-10
2.41907e-09
5.51973e-09
9.23984e-09
1.34273e-08
1.79953e-08
2.28863e-08
2.8059e-08
3.34812e-08
3.91266e-08
4.49733e-08
5.10022e-08
5.71962e-08
6.35403e-08
7.00205e-08
7.66238e-08
8.33382e-08
9.01523e-08
9.7055e-08
1.04036e-07
1.11085e-07
1.18193e-07
1.2535e-07
1.32547e-07
1.39774e-07
1.47023e-07
1.54285e-07
1.61551e-07
1.68813e-07
1.76063e-07
1.83291e-07
1.90491e-07
1.97653e-07
2.0477e-07
2.11833e-07
2.18835e-07
2.25769e-07
2.32625e-07
2.39398e-07
2.46078e-07
2.52659e-07
2.59133e-07
2.65493e-07
2.71731e-07
2.77842e-07
2.83817e-07
2.8965e-07
2.95333e-07
3.00861e-07
3.06227e-07
3.11424e-07
3.16446e-07
3.21287e-07
3.2594e-07
3.30401e-07
3.34662e-07
3.38718e-07
3.42564e-07
3.46194e-07
3.49604e-07
3.52787e-07
3.55739e-07
3.58456e-07
3.60932e-07
3.63163e-07
3.65146e-07
3.66875e-07
3.68346e-07
3.69557e-07
3.70504e-07
3.71184e-07
3.71593e-07
3.71729e-07
3.7159e-07
3.71173e-07
3.70476e-07
3.69498e-07
3.68237e-07
3.66692e-07
3.64863e-07
3.62749e-07
3.60351e-07
3.57668e-07
3.54701e-07
3.51452e-07
3.47922e-07
3.44112e-07
3.40027e-07
3.35667e-07
3.31037e-07
3.2614e-07
3.20981e-07
3.15564e-07
3.09894e-07
3.03978e-07
2.97821e-07
2.91429e-07
2.84811e-07
2.77974e-07
2.70926e-07
2.63676e-07
2.56232e-07
2.48606e-07
2.40807e-07
2.32847e-07
2.24735e-07
2.16485e-07
2.08108e-07
1.99618e-07
1.91029e-07
1.82352e-07
1.73605e-07
1.64801e-07
1.55955e-07
1.47085e-07
1.38207e-07
1.29338e-07
1.20497e-07
1.11702e-07
1.02972e-07
9.43292e-08
8.57942e-08
7.73901e-08
6.91412e-08
6.10738e-08
5.32162e-08
4.55999e-08
3.82602e-08
3.1238e-08
2.45821e-08
1.83538e-08
1.26358e-08
7.55068e-09
3.30964e-09
3.7172e-10
6.04999e-10
5.42745e-09
1.2465e-08
2.09671e-08
3.0576e-08
4.1081e-08
5.23423e-08
6.42591e-08
7.67543e-08
8.97657e-08
1.03241e-07
1.17137e-07
1.31413e-07
1.46035e-07
1.60969e-07
1.76187e-07
1.9166e-07
2.07363e-07
2.2327e-07
2.39357e-07
2.55601e-07
2.71979e-07
2.8847e-07
3.05053e-07
3.21706e-07
3.3841e-07
3.55143e-07
3.71886e-07
3.8862e-07
4.05325e-07
4.21982e-07
4.38573e-07
4.55077e-07
4.71477e-07
4.87755e-07
5.03892e-07
5.1987e-07
5.35672e-07
5.5128e-07
5.66676e-07
5.81843e-07
5.96765e-07
6.11425e-07
6.25805e-07
6.3989e-07
6.53664e-07
6.6711e-07
6.80214e-07
6.92959e-07
7.0533e-07
7.17314e-07
7.28894e-07
7.40057e-07
7.50789e-07
7.61077e-07
7.70906e-07
7.80263e-07
7.89136e-07
7.97513e-07
8.05381e-07
8.12728e-07
8.19543e-07
8.25815e-07
8.31534e-07
8.36688e-07
8.41269e-07
8.45267e-07
8.48672e-07
8.51477e-07
8.53674e-07
8.55254e-07
8.56211e-07
8.56539e-07
8.56233e-07
8.55287e-07
8.53695e-07
8.51454e-07
8.48562e-07
8.45015e-07
8.40812e-07
8.35953e-07
8.30437e-07
8.24265e-07
8.17439e-07
8.09961e-07
8.01834e-07
7.93064e-07
7.83656e-07
7.73616e-07
7.62951e-07
7.51671e-07
7.39785e-07
7.27304e-07
7.14239e-07
7.00605e-07
6.86414e-07
6.71683e-07
6.56429e-07
6.40668e-07
6.2442e-07
6.07705e-07
5.90545e-07
5.72962e-07
5.54979e-07
5.36622e-07
5.17917e-07
4.98891e-07
4.79573e-07
4.59993e-07
4.40181e-07
4.2017e-07
3.99993e-07
3.79684e-07
3.59281e-07
3.38819e-07
3.18338e-07
2.97877e-07
2.77479e-07
2.57187e-07
2.37045e-07
2.17103e-07
1.97408e-07
1.78015e-07
1.5898e-07
1.40363e-07
1.2223e-07
1.04655e-07
8.77205e-08
7.15235e-08
5.61809e-08
4.18412e-08
2.87054e-08
1.70706e-08
7.43396e-09
8.28695e-10
1.00244e-09
9.00782e-09
2.07314e-08
3.49436e-08
5.10503e-08
6.8695e-08
8.76369e-08
1.07701e-07
1.28752e-07
1.50683e-07
1.73402e-07
1.96834e-07
2.2091e-07
2.45571e-07
2.70761e-07
2.9643e-07
3.22531e-07
3.49018e-07
3.75851e-07
4.02987e-07
4.30389e-07
4.58018e-07
4.85838e-07
5.13812e-07
5.41906e-07
5.70085e-07
5.98314e-07
6.26562e-07
6.54794e-07
6.82978e-07
7.11081e-07
7.39073e-07
7.66921e-07
7.94594e-07
8.22061e-07
8.49291e-07
8.76255e-07
9.02923e-07
9.29264e-07
9.55249e-07
9.8085e-07
1.00604e-06
1.03078e-06
1.05506e-06
1.07884e-06
1.10209e-06
1.1248e-06
1.14692e-06
1.16845e-06
1.18934e-06
1.20958e-06
1.22915e-06
1.24801e-06
1.26614e-06
1.28352e-06
1.30014e-06
1.31595e-06
1.33096e-06
1.34512e-06
1.35843e-06
1.37086e-06
1.38239e-06
1.39301e-06
1.40269e-06
1.41143e-06
1.41919e-06
1.42598e-06
1.43176e-06
1.43653e-06
1.44028e-06
1.44298e-06
1.44463e-06
1.44523e-06
1.44475e-06
1.44319e-06
1.44054e-06
1.43679e-06
1.43195e-06
1.426e-06
1.41894e-06
1.41077e-06
1.40149e-06
1.39111e-06
1.37961e-06
1.36702e-06
1.35333e-06
1.33855e-06
1.3227e-06
1.30577e-06
1.28779e-06
1.26876e-06
1.24872e-06
1.22766e-06
1.20562e-06
1.18261e-06
1.15867e-06
1.1338e-06
1.10805e-06
1.08145e-06
1.05402e-06
1.0258e-06
9.96818e-07
9.67125e-07
9.36756e-07
9.05752e-07
8.74158e-07
8.4202e-07
8.09387e-07
7.76309e-07
7.42837e-07
7.09028e-07
6.74936e-07
6.40621e-07
6.06144e-07
5.71567e-07
5.36957e-07
5.0238e-07
4.67908e-07
4.33614e-07
3.99576e-07
3.65873e-07
3.3259e-07
2.99818e-07
2.67653e-07
2.36198e-07
2.05568e-07
1.75888e-07
1.47302e-07
1.19979e-07
9.41232e-08
6.99916e-08
4.79311e-08
2.84455e-08
1.23616e-08
1.37573e-09
1.44662e-09
1.30071e-08
2.99633e-08
5.05565e-08
7.39353e-08
9.95843e-08
1.27152e-07
1.5638e-07
1.87068e-07
2.19055e-07
2.52206e-07
2.86407e-07
3.21556e-07
3.57565e-07
3.94352e-07
4.31842e-07
4.69965e-07
5.08656e-07
5.47853e-07
5.87496e-07
6.27528e-07
6.67894e-07
7.0854e-07
7.49413e-07
7.90463e-07
8.31638e-07
8.72889e-07
9.14168e-07
9.55425e-07
9.96615e-07
1.03769e-06
1.0786e-06
1.1193e-06
1.15976e-06
1.19991e-06
1.23972e-06
1.27914e-06
1.31813e-06
1.35664e-06
1.39464e-06
1.43208e-06
1.46892e-06
1.50511e-06
1.54062e-06
1.57541e-06
1.60943e-06
1.64266e-06
1.67504e-06
1.70654e-06
1.73712e-06
1.76675e-06
1.7954e-06
1.82302e-06
1.84957e-06
1.87504e-06
1.89938e-06
1.92256e-06
1.94456e-06
1.96533e-06
1.98485e-06
2.00308e-06
2.02001e-06
2.03561e-06
2.04984e-06
2.06268e-06
2.07411e-06
2.0841e-06
2.09263e-06
2.09969e-06
2.10524e-06
2.10927e-06
2.11177e-06
2.11271e-06
2.11209e-06
2.10988e-06
2.10609e-06
2.10069e-06
2.09367e-06
2.08505e-06
2.07479e-06
2.06292e-06
2.04942e-06
2.03429e-06
2.01755e-06
1.99919e-06
1.97923e-06
1.95767e-06
1.93452e-06
1.90981e-06
1.88356e-06
1.85577e-06
1.82648e-06
1.79571e-06
1.7635e-06
1.72987e-06
1.69486e-06
1.6585e-06
1.62084e-06
1.58193e-06
1.5418e-06
1.50051e-06
1.45811e-06
1.41466e-06
1.37022e-06
1.32484e-06
1.27859e-06
1.23155e-06
1.18378e-06
1.13535e-06
1.08634e-06
1.03684e-06
9.86915e-07
9.36665e-07
8.86176e-07
8.35539e-07
7.84852e-07
7.34214e-07
6.83729e-07
6.33506e-07
5.83658e-07
5.34304e-07
4.85569e-07
4.37588e-07
3.90502e-07
3.44467e-07
2.99651e-07
2.56243e-07
2.14459e-07
1.74549e-07
1.36816e-07
1.01642e-07
6.95352e-08
4.12243e-08
1.78984e-08
1.99071e-09
1.92658e-09
1.73276e-08
3.99355e-08
6.74215e-08
9.86599e-08
1.32967e-07
1.69875e-07
2.09035e-07
2.50179e-07
2.93087e-07
3.37575e-07
3.83488e-07
4.30688e-07
4.79053e-07
5.28471e-07
5.78842e-07
6.3007e-07
6.82067e-07
7.34748e-07
7.88034e-07
8.41846e-07
8.96111e-07
9.50756e-07
1.00571e-06
1.0609e-06
1.11627e-06
1.17174e-06
1.22726e-06
1.28274e-06
1.33814e-06
1.39339e-06
1.44843e-06
1.50318e-06
1.5576e-06
1.61163e-06
1.6652e-06
1.71825e-06
1.77072e-06
1.82256e-06
1.87371e-06
1.92411e-06
1.97371e-06
2.02244e-06
2.07027e-06
2.11712e-06
2.16295e-06
2.20771e-06
2.25134e-06
2.29379e-06
2.33501e-06
2.37496e-06
2.41358e-06
2.45083e-06
2.48666e-06
2.52102e-06
2.55387e-06
2.58517e-06
2.61487e-06
2.64293e-06
2.66931e-06
2.69397e-06
2.71687e-06
2.73798e-06
2.75726e-06
2.77467e-06
2.79018e-06
2.80376e-06
2.81538e-06
2.82501e-06
2.83262e-06
2.83818e-06
2.84168e-06
2.84309e-06
2.84239e-06
2.83956e-06
2.83458e-06
2.82744e-06
2.81814e-06
2.80665e-06
2.79297e-06
2.77711e-06
2.75905e-06
2.7388e-06
2.71637e-06
2.69176e-06
2.66498e-06
2.63604e-06
2.60497e-06
2.57178e-06
2.5365e-06
2.49916e-06
2.45978e-06
2.4184e-06
2.37507e-06
2.32982e-06
2.28271e-06
2.23377e-06
2.18308e-06
2.13068e-06
2.07664e-06
2.02103e-06
1.96391e-06
1.90537e-06
1.84549e-06
1.78434e-06
1.72201e-06
1.65861e-06
1.59421e-06
1.52892e-06
1.46286e-06
1.39611e-06
1.3288e-06
1.26105e-06
1.19297e-06
1.12469e-06
1.05634e-06
9.88056e-07
9.19982e-07
8.52263e-07
7.85053e-07
7.18516e-07
6.52822e-07
5.88153e-07
5.24704e-07
4.62687e-07
4.02333e-07
3.439e-07
2.87682e-07
2.3402e-07
1.83326e-07
1.36113e-07
9.30599e-08
5.51392e-08
2.39284e-08
2.66062e-09
2.43428e-09
2.18972e-08
5.04817e-08
8.52564e-08
1.24807e-07
1.68275e-07
2.1507e-07
2.64752e-07
3.16979e-07
3.71471e-07
4.27993e-07
4.86345e-07
5.4635e-07
6.07851e-07
6.70706e-07
7.34783e-07
7.99961e-07
8.66126e-07
9.33171e-07
1.00099e-06
1.06949e-06
1.13857e-06
1.20814e-06
1.27811e-06
1.3484e-06
1.4189e-06
1.48955e-06
1.56026e-06
1.63094e-06
1.70151e-06
1.7719e-06
1.84202e-06
1.9118e-06
1.98115e-06
2.05e-06
2.11828e-06
2.18591e-06
2.25281e-06
2.31891e-06
2.38414e-06
2.44842e-06
2.51169e-06
2.57386e-06
2.63488e-06
2.69468e-06
2.75318e-06
2.81031e-06
2.86602e-06
2.92024e-06
2.9729e-06
3.02393e-06
3.07329e-06
3.12091e-06
3.16672e-06
3.21067e-06
3.2527e-06
3.29276e-06
3.33079e-06
3.36674e-06
3.40055e-06
3.43217e-06
3.46156e-06
3.48867e-06
3.51344e-06
3.53585e-06
3.55583e-06
3.57336e-06
3.58838e-06
3.60087e-06
3.61079e-06
3.61811e-06
3.62278e-06
3.6248e-06
3.62412e-06
3.62073e-06
3.6146e-06
3.6057e-06
3.59404e-06
3.57959e-06
3.56235e-06
3.54231e-06
3.51947e-06
3.49382e-06
3.46538e-06
3.43415e-06
3.40014e-06
3.36338e-06
3.32388e-06
3.28168e-06
3.23679e-06
3.18925e-06
3.13912e-06
3.08642e-06
3.03121e-06
2.97354e-06
2.91348e-06
2.85108e-06
2.78642e-06
2.71958e-06
2.65063e-06
2.57967e-06
2.50677e-06
2.43204e-06
2.35558e-06
2.2775e-06
2.19791e-06
2.11692e-06
2.03467e-06
1.95127e-06
1.86687e-06
1.78159e-06
1.69559e-06
1.60902e-06
1.52203e-06
1.43478e-06
1.34744e-06
1.26019e-06
1.17321e-06
1.08669e-06
1.00082e-06
9.15825e-07
8.31916e-07
7.49332e-07
6.68323e-07
5.89164e-07
5.12153e-07
4.37622e-07
3.6595e-07
2.97575e-07
2.3302e-07
1.72939e-07
1.18192e-07
7.00056e-08
3.03713e-08
3.37649e-09
2.96322e-09
2.66578e-08
6.14675e-08
1.03834e-07
1.52043e-07
2.05055e-07
2.62153e-07
3.22804e-07
3.8659e-07
4.53169e-07
5.22254e-07
5.93598e-07
6.66985e-07
7.4222e-07
8.19127e-07
8.97545e-07
9.77325e-07
1.05833e-06
1.14041e-06
1.22346e-06
1.30735e-06
1.39197e-06
1.47719e-06
1.56291e-06
1.64903e-06
1.73542e-06
1.822e-06
1.90866e-06
1.9953e-06
2.08182e-06
2.16811e-06
2.25409e-06
2.33966e-06
2.42472e-06
2.50918e-06
2.59294e-06
2.67592e-06
2.75801e-06
2.83914e-06
2.9192e-06
2.99812e-06
3.0758e-06
3.15216e-06
3.22711e-06
3.30057e-06
3.37246e-06
3.44268e-06
3.51117e-06
3.57783e-06
3.6426e-06
3.7054e-06
3.76614e-06
3.82475e-06
3.88117e-06
3.93531e-06
3.98711e-06
4.0365e-06
4.08341e-06
4.12777e-06
4.16953e-06
4.20861e-06
4.24495e-06
4.2785e-06
4.3092e-06
4.33699e-06
4.36182e-06
4.38364e-06
4.4024e-06
4.41804e-06
4.43054e-06
4.43983e-06
4.4459e-06
4.44869e-06
4.44817e-06
4.44433e-06
4.43712e-06
4.42651e-06
4.4125e-06
4.39506e-06
4.37419e-06
4.34986e-06
4.32209e-06
4.29087e-06
4.25621e-06
4.2181e-06
4.17658e-06
4.13166e-06
4.08336e-06
4.03172e-06
3.97677e-06
3.91856e-06
3.85713e-06
3.79254e-06
3.72484e-06
3.65411e-06
3.58042e-06
3.50384e-06
3.42447e-06
3.34239e-06
3.25771e-06
3.17053e-06
3.08096e-06
2.98913e-06
2.89515e-06
2.79916e-06
2.7013e-06
2.60172e-06
2.50056e-06
2.39799e-06
2.29417e-06
2.18928e-06
2.08348e-06
1.97698e-06
1.86995e-06
1.76261e-06
1.65516e-06
1.54782e-06
1.44081e-06
1.33438e-06
1.22876e-06
1.12422e-06
1.02104e-06
9.195e-07
8.19922e-07
7.22642e-07
6.28029e-07
5.36497e-07
4.48509e-07
3.64605e-07
2.85427e-07
2.11775e-07
1.44696e-07
8.56843e-08
3.71668e-08
4.13157e-09
3.50787e-09
3.15595e-08
7.27787e-08
1.22961e-07
1.80084e-07
2.42922e-07
3.10629e-07
3.82578e-07
4.58272e-07
5.37308e-07
6.19345e-07
7.0409e-07
7.91282e-07
8.80692e-07
9.72109e-07
1.06534e-06
1.16021e-06
1.25654e-06
1.35419e-06
1.45299e-06
1.55281e-06
1.6535e-06
1.75492e-06
1.85696e-06
1.95947e-06
2.06234e-06
2.16543e-06
2.26863e-06
2.37182e-06
2.47488e-06
2.57769e-06
2.68014e-06
2.78211e-06
2.88348e-06
2.98416e-06
3.08402e-06
3.18296e-06
3.28087e-06
3.37764e-06
3.47316e-06
3.56733e-06
3.66004e-06
3.75119e-06
3.84068e-06
3.92841e-06
4.01428e-06
4.09819e-06
4.18004e-06
4.25974e-06
4.33719e-06
4.41231e-06
4.48499e-06
4.55516e-06
4.62272e-06
4.68759e-06
4.74968e-06
4.8089e-06
4.86519e-06
4.91845e-06
4.96862e-06
5.0156e-06
5.05934e-06
5.09976e-06
5.13678e-06
5.17035e-06
5.2004e-06
5.22685e-06
5.24966e-06
5.26877e-06
5.28412e-06
5.29565e-06
5.30333e-06
5.30711e-06
5.30694e-06
5.30281e-06
5.29463e-06
5.28241e-06
5.26612e-06
5.24572e-06
5.22122e-06
5.19259e-06
5.15984e-06
5.12295e-06
5.08193e-06
5.0368e-06
4.98757e-06
4.93425e-06
4.87689e-06
4.81552e-06
4.75017e-06
4.68091e-06
4.60778e-06
4.53085e-06
4.45019e-06
4.36588e-06
4.27801e-06
4.18667e-06
4.09197e-06
3.99401e-06
3.89292e-06
3.78881e-06
3.68184e-06
3.57213e-06
3.45984e-06
3.34513e-06
3.22817e-06
3.10912e-06
2.98818e-06
2.86554e-06
2.74139e-06
2.61594e-06
2.48941e-06
2.36202e-06
2.23401e-06
2.10561e-06
1.97709e-06
1.8487e-06
1.72071e-06
1.59342e-06
1.46711e-06
1.34211e-06
1.21875e-06
1.09738e-06
9.78365e-07
8.62128e-07
7.49108e-07
6.398e-07
5.34759e-07
4.34628e-07
3.40174e-07
2.52344e-07
1.72383e-07
1.02064e-07
4.42664e-08
4.92048e-09
4.06337e-09
3.65588e-08
8.43145e-08
1.42467e-07
2.0868e-07
2.81537e-07
3.60065e-07
4.43536e-07
5.31379e-07
6.23126e-07
7.18383e-07
8.16807e-07
9.18099e-07
1.02199e-06
1.12824e-06
1.23661e-06
1.34691e-06
1.45893e-06
1.57249e-06
1.68742e-06
1.80354e-06
1.9207e-06
2.03873e-06
2.15748e-06
2.27681e-06
2.39657e-06
2.5166e-06
2.63678e-06
2.75697e-06
2.87702e-06
2.99679e-06
3.11617e-06
3.235e-06
3.35317e-06
3.47054e-06
3.58698e-06
3.70237e-06
3.81657e-06
3.92947e-06
4.04094e-06
4.15085e-06
4.25908e-06
4.36552e-06
4.47005e-06
4.57255e-06
4.6729e-06
4.77098e-06
4.86669e-06
4.95992e-06
5.05055e-06
5.13848e-06
5.22359e-06
5.30579e-06
5.38498e-06
5.46104e-06
5.53388e-06
5.60341e-06
5.66952e-06
5.73213e-06
5.79114e-06
5.84646e-06
5.898e-06
5.94569e-06
5.98943e-06
6.02916e-06
6.06478e-06
6.09622e-06
6.12342e-06
6.14631e-06
6.16481e-06
6.17887e-06
6.18843e-06
6.19343e-06
6.19382e-06
6.18959e-06
6.18064e-06
6.16696e-06
6.1485e-06
6.12526e-06
6.0972e-06
6.06432e-06
6.02659e-06
5.98402e-06
5.93661e-06
5.88438e-06
5.82733e-06
5.76549e-06
5.6989e-06
5.62759e-06
5.55162e-06
5.47104e-06
5.38591e-06
5.29632e-06
5.20233e-06
5.10405e-06
5.00157e-06
4.89501e-06
4.78449e-06
4.67013e-06
4.55207e-06
4.43047e-06
4.30548e-06
4.17726e-06
4.046e-06
3.91189e-06
3.77511e-06
3.63588e-06
3.49442e-06
3.35093e-06
3.20568e-06
3.05889e-06
2.91082e-06
2.76174e-06
2.61192e-06
2.46166e-06
2.31124e-06
2.16098e-06
2.0112e-06
1.86223e-06
1.71444e-06
1.56819e-06
1.42387e-06
1.28189e-06
1.14271e-06
1.0068e-06
8.74682e-07
7.46932e-07
6.24202e-07
5.07243e-07
3.96946e-07
2.94415e-07
2.01096e-07
1.19051e-07
5.16295e-08
5.7387e-09
4.62535e-09
4.16162e-08
9.5984e-08
1.62198e-07
2.37605e-07
3.20598e-07
4.1007e-07
5.05197e-07
6.05331e-07
7.0994e-07
8.18575e-07
9.30848e-07
1.04642e-06
1.16497e-06
1.28624e-06
1.40996e-06
1.5359e-06
1.66382e-06
1.79353e-06
1.92482e-06
2.05749e-06
2.19137e-06
2.32627e-06
2.46201e-06
2.59843e-06
2.73536e-06
2.87263e-06
3.01009e-06
3.14757e-06
3.28493e-06
3.42199e-06
3.55862e-06
3.69466e-06
3.82995e-06
3.96436e-06
4.09774e-06
4.22993e-06
4.36079e-06
4.49019e-06
4.61798e-06
4.74402e-06
4.86817e-06
4.99029e-06
5.11025e-06
5.22791e-06
5.34314e-06
5.45582e-06
5.5658e-06
5.67297e-06
5.77719e-06
5.87835e-06
5.97631e-06
6.07097e-06
6.16219e-06
6.24987e-06
6.33388e-06
6.41412e-06
6.49048e-06
6.56284e-06
6.6311e-06
6.69516e-06
6.75491e-06
6.81026e-06
6.8611e-06
6.90736e-06
6.94892e-06
6.98571e-06
7.01765e-06
7.04464e-06
7.06662e-06
7.08351e-06
7.09525e-06
7.10175e-06
7.10297e-06
7.09888e-06
7.08938e-06
7.07443e-06
7.054e-06
7.02807e-06
6.99659e-06
6.95956e-06
6.91695e-06
6.86877e-06
6.815e-06
6.75567e-06
6.69079e-06
6.62038e-06
6.54448e-06
6.46314e-06
6.3764e-06
6.28433e-06
6.18701e-06
6.08452e-06
5.97695e-06
5.86441e-06
5.74701e-06
5.62488e-06
5.49815e-06
5.36698e-06
5.23153e-06
5.09196e-06
4.94846e-06
4.80123e-06
4.65046e-06
4.49638e-06
4.33921e-06
4.17919e-06
4.01657e-06
3.85161e-06
3.68459e-06
3.51579e-06
3.34551e-06
3.17405e-06
3.00174e-06
2.8289e-06
2.65589e-06
2.48306e-06
2.31078e-06
2.13946e-06
1.96949e-06
1.80131e-06
1.63537e-06
1.47215e-06
1.31216e-06
1.15596e-06
1.00414e-06
8.57377e-07
7.1641e-07
5.82101e-07
4.55473e-07
3.37786e-07
2.30697e-07
1.36564e-07
5.9221e-08
6.58231e-09
5.18981e-09
4.66959e-08
1.07705e-07
1.82016e-07
2.66656e-07
3.59827e-07
4.6029e-07
5.67124e-07
6.79602e-07
7.97131e-07
9.19206e-07
1.04539e-06
1.17531e-06
1.30861e-06
1.44498e-06
1.58413e-06
1.7258e-06
1.86974e-06
2.0157e-06
2.16346e-06
2.3128e-06
2.46352e-06
2.61542e-06
2.76829e-06
2.92195e-06
3.07621e-06
3.23089e-06
3.38579e-06
3.54076e-06
3.6956e-06
3.85015e-06
4.00424e-06
4.15769e-06
4.31034e-06
4.46202e-06
4.61256e-06
4.76181e-06
4.90959e-06
5.05576e-06
5.20014e-06
5.34258e-06
5.48293e-06
5.62103e-06
5.75673e-06
5.88987e-06
6.02031e-06
6.1479e-06
6.27249e-06
6.39394e-06
6.51211e-06
6.62685e-06
6.73802e-06
6.84549e-06
6.94913e-06
7.04879e-06
7.14436e-06
7.23569e-06
7.32267e-06
7.40517e-06
7.48307e-06
7.55625e-06
7.62459e-06
7.68798e-06
7.74631e-06
7.79947e-06
7.84735e-06
7.88985e-06
7.92688e-06
7.95834e-06
7.98414e-06
8.0042e-06
8.01842e-06
8.02674e-06
8.02909e-06
8.02542e-06
8.01564e-06
7.99968e-06
7.97751e-06
7.9491e-06
7.9144e-06
7.8734e-06
7.82607e-06
7.7724e-06
7.71239e-06
7.64604e-06
7.57338e-06
7.49444e-06
7.40924e-06
7.31783e-06
7.22028e-06
7.11666e-06
7.00704e-06
6.89152e-06
6.7702e-06
6.6432e-06
6.51066e-06
6.37271e-06
6.2295e-06
6.08122e-06
5.92804e-06
5.77015e-06
5.60776e-06
5.4411e-06
5.27039e-06
5.09588e-06
4.91784e-06
4.73654e-06
4.55226e-06
4.3653e-06
4.17597e-06
3.98461e-06
3.79154e-06
3.59713e-06
3.40173e-06
3.20574e-06
3.00954e-06
2.81354e-06
2.61818e-06
2.42391e-06
2.23118e-06
2.04049e-06
1.85236e-06
1.66734e-06
1.486e-06
1.30897e-06
1.13695e-06
9.70677e-07
8.11001e-07
6.58895e-07
5.15513e-07
3.82281e-07
2.61066e-07
1.54531e-07
6.70095e-08
7.44783e-09
5.75313e-09
5.17652e-08
1.19401e-07
2.01792e-07
2.95646e-07
3.98971e-07
5.10401e-07
6.28915e-07
7.53711e-07
8.84132e-07
1.01962e-06
1.1597e-06
1.30393e-06
1.45195e-06
1.60341e-06
1.75798e-06
1.91537e-06
2.0753e-06
2.23751e-06
2.40174e-06
2.56776e-06
2.73534e-06
2.90426e-06
3.07429e-06
3.24522e-06
3.41685e-06
3.58897e-06
3.76138e-06
3.93389e-06
4.1063e-06
4.27842e-06
4.45005e-06
4.62102e-06
4.79113e-06
4.9602e-06
5.12805e-06
5.29449e-06
5.45935e-06
5.62244e-06
5.7836e-06
5.94264e-06
6.09938e-06
6.25367e-06
6.40533e-06
6.55419e-06
6.70008e-06
6.84284e-06
6.9823e-06
7.11831e-06
7.2507e-06
7.37932e-06
7.50401e-06
7.62461e-06
7.74098e-06
7.85297e-06
7.96042e-06
8.0632e-06
8.16116e-06
8.25416e-06
8.34206e-06
8.42473e-06
8.50203e-06
8.57384e-06
8.64002e-06
8.70046e-06
8.75503e-06
8.80363e-06
8.84612e-06
8.88241e-06
8.9124e-06
8.93598e-06
8.95305e-06
8.96353e-06
8.96733e-06
8.96441e-06
8.95466e-06
8.93799e-06
8.91437e-06
8.88375e-06
8.84609e-06
8.80134e-06
8.7495e-06
8.69054e-06
8.62446e-06
8.55126e-06
8.47096e-06
8.38358e-06
8.28916e-06
8.18775e-06
8.07942e-06
7.96425e-06
7.84231e-06
7.71371e-06
7.57857e-06
7.43702e-06
7.2892e-06
7.13527e-06
6.97541e-06
6.80981e-06
6.63866e-06
6.46219e-06
6.28062e-06
6.09422e-06
5.90324e-06
5.70796e-06
5.50867e-06
5.30569e-06
5.09933e-06
4.88994e-06
4.67786e-06
4.46348e-06
4.24716e-06
4.02931e-06
3.81035e-06
3.5907e-06
3.37082e-06
3.15116e-06
2.93222e-06
2.71449e-06
2.49851e-06
2.28483e-06
2.07403e-06
1.86673e-06
1.66358e-06
1.46529e-06
1.27262e-06
1.08642e-06
9.0763e-07
7.37345e-07
5.76849e-07
4.27736e-07
2.92091e-07
1.72887e-07
7.49667e-08
8.3321e-09
6.31195e-09
5.6794e-08
1.31004e-07
2.21409e-07
3.24401e-07
4.37799e-07
5.60106e-07
6.90205e-07
8.27218e-07
9.70426e-07
1.11922e-06
1.27307e-06
1.43152e-06
1.59415e-06
1.76057e-06
1.93045e-06
2.10345e-06
2.27926e-06
2.45761e-06
2.63822e-06
2.82082e-06
3.00517e-06
3.19101e-06
3.37811e-06
3.56624e-06
3.75517e-06
3.94468e-06
4.13455e-06
4.32456e-06
4.5145e-06
4.70416e-06
4.89334e-06
5.08182e-06
5.2694e-06
5.45589e-06
5.64107e-06
5.82476e-06
6.00675e-06
6.18684e-06
6.36485e-06
6.54059e-06
6.71385e-06
6.88446e-06
7.05222e-06
7.21695e-06
7.37846e-06
7.53658e-06
7.69111e-06
7.84189e-06
7.98874e-06
8.13148e-06
8.26994e-06
8.40395e-06
8.53333e-06
8.65793e-06
8.77758e-06
8.89212e-06
9.00138e-06
9.10521e-06
9.20346e-06
9.29597e-06
9.3826e-06
9.46319e-06
9.5376e-06
9.6057e-06
9.66735e-06
9.72241e-06
9.77076e-06
9.81227e-06
9.84683e-06
9.87431e-06
9.8946e-06
9.90762e-06
9.91325e-06
9.91142e-06
9.90206e-06
9.88502e-06
9.86028e-06
9.82777e-06
9.78744e-06
9.73926e-06
9.68318e-06
9.61919e-06
9.54727e-06
9.46743e-06
9.37968e-06
9.28405e-06
9.18057e-06
9.06929e-06
8.95029e-06
8.82364e-06
8.68944e-06
8.5478e-06
8.39885e-06
8.24272e-06
8.07959e-06
7.90962e-06
7.733e-06
7.54995e-06
7.36069e-06
7.16546e-06
6.96453e-06
6.75817e-06
6.54667e-06
6.33035e-06
6.10953e-06
5.88457e-06
5.65582e-06
5.42365e-06
5.18848e-06
4.95071e-06
4.71076e-06
4.46909e-06
4.22617e-06
3.98247e-06
3.73849e-06
3.49476e-06
3.25182e-06
3.01024e-06
2.7706e-06
2.53351e-06
2.29964e-06
2.06967e-06
1.84432e-06
1.62438e-06
1.4107e-06
1.20422e-06
1.00598e-06
8.17191e-07
6.39279e-07
4.74003e-07
3.2367e-07
1.91572e-07
8.30663e-08
9.23219e-09
6.86324e-09
6.1755e-08
1.4245e-07
2.40761e-07
3.52767e-07
4.761e-07
6.09134e-07
7.50659e-07
8.99721e-07
1.05554e-06
1.21746e-06
1.3849e-06
1.55737e-06
1.73441e-06
1.91561e-06
2.10058e-06
2.28899e-06
2.4805e-06
2.67479e-06
2.87157e-06
3.07056e-06
3.27148e-06
3.47407e-06
3.67806e-06
3.88322e-06
4.08928e-06
4.29602e-06
4.50319e-06
4.71056e-06
4.9179e-06
5.12499e-06
5.33159e-06
5.53749e-06
5.74246e-06
5.94629e-06
6.14876e-06
6.34964e-06
6.54873e-06
6.74582e-06
6.94069e-06
7.13314e-06
7.32296e-06
7.50993e-06
7.69386e-06
7.87455e-06
8.05179e-06
8.22538e-06
8.39513e-06
8.56085e-06
8.72232e-06
8.87938e-06
9.03181e-06
9.17945e-06
9.32209e-06
9.45956e-06
9.59168e-06
9.71826e-06
9.83913e-06
9.95411e-06
1.0063e-05
1.01657e-05
1.0262e-05
1.03518e-05
1.04348e-05
1.05109e-05
1.058e-05
1.06419e-05
1.06965e-05
1.07437e-05
1.07832e-05
1.0815e-05
1.08389e-05
1.08548e-05
1.08627e-05
1.08624e-05
1.08538e-05
1.08368e-05
1.08113e-05
1.07772e-05
1.07346e-05
1.06833e-05
1.06233e-05
1.05546e-05
1.04771e-05
1.03909e-05
1.0296e-05
1.01924e-05
1.008e-05
9.95909e-06
9.82959e-06
9.69163e-06
9.5453e-06
9.39073e-06
9.22804e-06
9.0574e-06
8.87898e-06
8.69298e-06
8.49959e-06
8.29905e-06
8.09161e-06
7.87755e-06
7.65713e-06
7.43068e-06
7.19851e-06
6.96097e-06
6.71843e-06
6.47127e-06
6.21988e-06
5.9647e-06
5.70616e-06
5.44472e-06
5.18085e-06
4.91506e-06
4.64786e-06
4.37979e-06
4.1114e-06
3.84327e-06
3.576e-06
3.31022e-06
3.04658e-06
2.78577e-06
2.52849e-06
2.27552e-06
2.02766e-06
1.78576e-06
1.55077e-06
1.32372e-06
1.10575e-06
8.98193e-07
7.02612e-07
5.2094e-07
3.55708e-07
2.10527e-07
9.12836e-08
1.01454e-08
7.40425e-09
6.66233e-08
1.53682e-07
2.5975e-07
3.80601e-07
5.13681e-07
6.5724e-07
8.09974e-07
9.70858e-07
1.13905e-06
1.31384e-06
1.49462e-06
1.68084e-06
1.87202e-06
2.06772e-06
2.26753e-06
2.47106e-06
2.67797e-06
2.88793e-06
3.1006e-06
3.3157e-06
3.53292e-06
3.75197e-06
3.97259e-06
4.19451e-06
4.41745e-06
4.64116e-06
4.8654e-06
5.0899e-06
5.31442e-06
5.53872e-06
5.76255e-06
5.98568e-06
6.20787e-06
6.42888e-06
6.64849e-06
6.86644e-06
7.08253e-06
7.29652e-06
7.50817e-06
7.71728e-06
7.92361e-06
8.12693e-06
8.32704e-06
8.5237e-06
8.71671e-06
8.90584e-06
9.09089e-06
9.27163e-06
9.44786e-06
9.61937e-06
9.78595e-06
9.94739e-06
1.01035e-05
1.02541e-05
1.03989e-05
1.05378e-05
1.06705e-05
1.07969e-05
1.09168e-05
1.103e-05
1.11363e-05
1.12356e-05
1.13276e-05
1.14121e-05
1.14891e-05
1.15582e-05
1.16195e-05
1.16726e-05
1.17176e-05
1.17541e-05
1.1782e-05
1.18013e-05
1.18118e-05
1.18134e-05
1.1806e-05
1.17895e-05
1.17636e-05
1.17285e-05
1.16839e-05
1.16299e-05
1.15664e-05
1.14933e-05
1.14106e-05
1.13184e-05
1.12166e-05
1.11053e-05
1.09844e-05
1.0854e-05
1.07143e-05
1.05652e-05
1.04069e-05
1.02396e-05
1.00634e-05
9.87833e-06
9.68473e-06
9.48277e-06
9.27267e-06
9.05469e-06
8.82909e-06
8.59616e-06
8.35623e-06
8.10963e-06
7.85671e-06
7.59786e-06
7.33347e-06
7.06398e-06
6.78981e-06
6.51144e-06
6.22934e-06
5.94403e-06
5.65603e-06
5.3659e-06
5.07419e-06
4.7815e-06
4.48844e-06
4.19566e-06
3.9038e-06
3.61357e-06
3.32567e-06
3.04087e-06
2.75994e-06
2.48371e-06
2.21308e-06
1.94898e-06
1.69244e-06
1.44458e-06
1.20666e-06
9.80121e-07
7.66671e-07
5.68415e-07
3.88113e-07
2.29701e-07
9.95953e-08
1.10691e-08
7.93252e-09
7.1377e-08
1.6465e-07
2.78292e-07
4.07777e-07
5.50373e-07
7.04206e-07
8.67882e-07
1.0403e-06
1.22057e-06
1.40793e-06
1.60173e-06
1.80138e-06
2.00636e-06
2.21622e-06
2.4305e-06
2.64881e-06
2.87077e-06
3.09603e-06
3.32424e-06
3.55509e-06
3.78825e-06
4.02342e-06
4.26031e-06
4.49864e-06
4.73812e-06
4.97849e-06
5.21946e-06
5.46077e-06
5.70217e-06
5.94339e-06
6.18417e-06
6.42427e-06
6.66342e-06
6.90138e-06
7.1379e-06
7.37272e-06
7.60562e-06
7.83633e-06
8.06463e-06
8.29026e-06
8.51299e-06
8.73258e-06
8.9488e-06
9.1614e-06
9.37015e-06
9.57482e-06
9.77519e-06
9.97101e-06
1.01621e-05
1.03481e-05
1.0529e-05
1.07044e-05
1.08741e-05
1.10379e-05
1.11957e-05
1.13471e-05
1.1492e-05
1.16301e-05
1.17613e-05
1.18853e-05
1.20019e-05
1.2111e-05
1.22123e-05
1.23056e-05
1.23908e-05
1.24676e-05
1.2536e-05
1.25956e-05
1.26463e-05
1.26879e-05
1.27204e-05
1.27435e-05
1.27571e-05
1.27611e-05
1.27553e-05
1.27396e-05
1.27139e-05
1.2678e-05
1.2632e-05
1.25757e-05
1.2509e-05
1.2432e-05
1.23446e-05
1.22467e-05
1.21384e-05
1.20197e-05
1.18906e-05
1.17511e-05
1.16014e-05
1.14415e-05
1.12716e-05
1.10918e-05
1.09021e-05
1.07029e-05
1.04943e-05
1.02766e-05
1.00499e-05
9.81456e-06
9.57087e-06
9.31916e-06
9.05975e-06
8.79302e-06
8.51935e-06
8.23916e-06
7.95289e-06
7.66099e-06
7.36396e-06
7.0623e-06
6.75654e-06
6.44724e-06
6.13497e-06
5.82034e-06
5.50396e-06
5.18649e-06
4.86859e-06
4.55097e-06
4.23434e-06
3.91946e-06
3.60712e-06
3.29813e-06
2.99334e-06
2.69368e-06
2.40009e-06
2.1136e-06
1.83532e-06
1.56648e-06
1.30844e-06
1.06276e-06
8.31283e-07
6.16301e-07
4.20799e-07
2.4904e-07
1.07979e-07
1.20008e-08
8.44591e-09
7.59967e-08
1.75308e-07
2.96309e-07
4.34184e-07
5.86026e-07
7.4984e-07
9.24145e-07
1.10777e-06
1.29977e-06
1.49934e-06
1.70578e-06
1.91847e-06
2.13687e-06
2.36047e-06
2.58883e-06
2.8215e-06
3.05809e-06
3.29823e-06
3.54155e-06
3.78772e-06
4.03639e-06
4.28725e-06
4.54e-06
4.79433e-06
5.04994e-06
5.30654e-06
5.56385e-06
5.82159e-06
6.07949e-06
6.33726e-06
6.59464e-06
6.85135e-06
7.10714e-06
7.36173e-06
7.61487e-06
7.86629e-06
8.11574e-06
8.36295e-06
8.60766e-06
8.84963e-06
9.08859e-06
9.32429e-06
9.55649e-06
9.78492e-06
1.00093e-05
1.02295e-05
1.04452e-05
1.06561e-05
1.0862e-05
1.10626e-05
1.12578e-05
1.14472e-05
1.16307e-05
1.1808e-05
1.19788e-05
1.21429e-05
1.23002e-05
1.24503e-05
1.2593e-05
1.27281e-05
1.28554e-05
1.29746e-05
1.30856e-05
1.31881e-05
1.32819e-05
1.33668e-05
1.34425e-05
1.3509e-05
1.3566e-05
1.36132e-05
1.36506e-05
1.3678e-05
1.36952e-05
1.37019e-05
1.36983e-05
1.3684e-05
1.36588e-05
1.36227e-05
1.35757e-05
1.35175e-05
1.34482e-05
1.33677e-05
1.32759e-05
1.31728e-05
1.30584e-05
1.29327e-05
1.27958e-05
1.26476e-05
1.24883e-05
1.23179e-05
1.21367e-05
1.19446e-05
1.17419e-05
1.15287e-05
1.13054e-05
1.1072e-05
1.0829e-05
1.05765e-05
1.03149e-05
1.00445e-05
9.7657e-06
9.47893e-06
9.18457e-06
8.88309e-06
8.57496e-06
8.26068e-06
7.94078e-06
7.61581e-06
7.28635e-06
6.953e-06
6.61639e-06
6.27718e-06
5.93605e-06
5.59369e-06
5.25085e-06
4.90828e-06
4.56676e-06
4.22711e-06
3.89019e-06
3.55688e-06
3.22812e-06
2.90488e-06
2.5882e-06
2.27919e-06
1.97905e-06
1.68911e-06
1.41082e-06
1.14589e-06
8.96282e-07
6.64474e-07
4.53681e-07
2.68497e-07
1.16414e-07
1.29381e-08
8.94259e-09
8.0466e-08
1.85618e-07
3.13739e-07
4.59729e-07
6.20513e-07
7.93979e-07
9.78562e-07
1.17303e-06
1.37637e-06
1.58774e-06
1.8064e-06
2.0317e-06
2.26307e-06
2.49997e-06
2.74193e-06
2.98849e-06
3.23924e-06
3.49378e-06
3.75172e-06
4.01272e-06
4.27642e-06
4.54249e-06
4.8106e-06
5.08044e-06
5.3517e-06
5.62407e-06
5.89726e-06
6.17097e-06
6.44492e-06
6.71881e-06
6.99236e-06
7.26528e-06
7.53731e-06
7.80817e-06
8.07757e-06
8.34524e-06