/*--------------------------------*- C++ -*----------------------------------*\
  =========                 |
  \\      /  F ield         | OpenFOAM: The Open Source CFD Toolbox
   \\    /   O peration     | Website:  https://openfoam.org
    \\  /    A nd           | Version:  12
     \\/     M anipulation  |
\*---------------------------------------------------------------------------*/
FoamFile
{
    format      ascii;
    class       volScalarField;
    location    "4.5";
    object      nut;
}
// * * * * * * * * * * * * * * * * * * * * * * * * * * * * * * * * * * * * * //

dimensions      [0 2 -1 0 0 0 0];

internalField   nonuniform List<scalar> 
18225
(
9.86349e-16
2.98114e-14
6.3262e-14
1.03321e-13
1.48648e-13
1.98267e-13
2.51502e-13
3.07865e-13
3.66988e-13
4.28574e-13
4.92375e-13
5.58178e-13
6.25796e-13
6.95061e-13
7.65818e-13
8.37925e-13
9.1125e-13
9.85668e-13
1.06106e-12
1.1373e-12
1.2143e-12
1.29194e-12
1.37011e-12
1.44872e-12
1.52766e-12
1.60685e-12
1.68618e-12
1.76555e-12
1.84488e-12
1.92408e-12
2.00304e-12
2.08169e-12
2.15993e-12
2.23768e-12
2.31484e-12
2.39134e-12
2.46708e-12
2.54199e-12
2.61597e-12
2.68895e-12
2.76084e-12
2.83157e-12
2.90105e-12
2.96921e-12
3.03596e-12
3.10124e-12
3.16496e-12
3.22705e-12
3.28744e-12
3.34606e-12
3.40284e-12
3.4577e-12
3.51058e-12
3.56142e-12
3.61014e-12
3.65669e-12
3.70101e-12
3.74302e-12
3.78268e-12
3.81993e-12
3.8547e-12
3.88695e-12
3.91662e-12
3.94367e-12
3.96805e-12
3.9897e-12
4.00858e-12
4.02466e-12
4.03789e-12
4.04824e-12
4.05567e-12
4.06014e-12
4.06163e-12
4.06012e-12
4.05556e-12
4.04795e-12
4.03727e-12
4.0235e-12
4.00662e-12
3.98664e-12
3.96355e-12
3.93735e-12
3.90804e-12
3.87563e-12
3.84014e-12
3.80158e-12
3.75996e-12
3.71533e-12
3.66771e-12
3.61713e-12
3.56363e-12
3.50727e-12
3.4481e-12
3.38616e-12
3.32153e-12
3.25426e-12
3.18445e-12
3.11215e-12
3.03746e-12
2.96047e-12
2.88127e-12
2.79996e-12
2.71666e-12
2.63146e-12
2.5445e-12
2.4559e-12
2.36578e-12
2.27429e-12
2.18155e-12
2.08772e-12
1.99296e-12
1.89741e-12
1.80125e-12
1.70464e-12
1.60777e-12
1.5108e-12
1.41395e-12
1.31739e-12
1.22135e-12
1.12603e-12
1.03165e-12
9.38468e-13
8.4672e-13
7.56679e-13
6.68633e-13
5.82895e-13
4.99816e-13
4.1979e-13
3.43278e-13
2.7084e-13
2.0319e-13
1.41298e-13
8.65424e-14
4.07885e-14
1.34956e-15
6.67349e-15
9.72743e-13
5.20755e-12
1.22132e-11
2.05961e-11
2.97079e-11
3.93287e-11
4.93775e-11
5.98127e-11
7.06041e-11
8.17252e-11
9.31512e-11
1.04858e-10
1.16825e-10
1.29028e-10
1.41447e-10
1.54063e-10
1.66856e-10
1.79807e-10
1.92898e-10
2.06111e-10
2.19429e-10
2.32835e-10
2.46311e-10
2.59843e-10
2.73412e-10
2.87004e-10
3.00602e-10
3.14191e-10
3.27755e-10
3.41278e-10
3.54747e-10
3.68144e-10
3.81456e-10
3.94668e-10
4.07765e-10
4.20732e-10
4.33555e-10
4.46221e-10
4.58714e-10
4.71021e-10
4.83128e-10
4.95021e-10
5.06688e-10
5.18114e-10
5.29287e-10
5.40194e-10
5.50823e-10
5.6116e-10
5.71195e-10
5.80913e-10
5.90305e-10
5.99358e-10
6.0806e-10
6.16402e-10
6.24371e-10
6.31958e-10
6.39152e-10
6.45943e-10
6.52321e-10
6.58277e-10
6.63801e-10
6.68884e-10
6.73518e-10
6.77695e-10
6.81407e-10
6.84645e-10
6.87403e-10
6.89672e-10
6.91448e-10
6.92724e-10
6.93495e-10
6.93755e-10
6.93501e-10
6.92728e-10
6.91432e-10
6.8961e-10
6.8726e-10
6.84379e-10
6.80967e-10
6.77022e-10
6.72545e-10
6.67536e-10
6.61997e-10
6.55929e-10
6.49336e-10
6.4222e-10
6.34587e-10
6.26442e-10
6.1779e-10
6.08639e-10
5.98996e-10
5.8887e-10
5.78271e-10
5.67209e-10
5.55696e-10
5.43744e-10
5.31366e-10
5.18577e-10
5.05392e-10
4.91827e-10
4.779e-10
4.63628e-10
4.4903e-10
4.34127e-10
4.1894e-10
4.0349e-10
3.878e-10
3.71894e-10
3.55798e-10
3.39535e-10
3.23134e-10
3.06622e-10
2.90027e-10
2.73378e-10
2.56707e-10
2.40044e-10
2.23422e-10
2.06874e-10
1.90436e-10
1.74142e-10
1.5803e-10
1.42139e-10
1.26508e-10
1.11179e-10
9.61928e-11
8.15951e-11
6.7432e-11
5.37549e-11
4.06306e-11
2.81798e-11
1.67128e-11
7.12596e-12
1.33108e-12
9.13372e-15
1.48606e-14
2.44155e-12
1.67405e-11
5.02929e-11
1.02152e-10
1.6719e-10
2.4072e-10
3.19753e-10
4.02615e-10
4.88398e-10
5.76592e-10
6.66882e-10
7.59053e-10
8.52936e-10
9.48386e-10
1.04527e-09
1.14346e-09
1.24284e-09
1.34328e-09
1.44467e-09
1.54688e-09
1.6498e-09
1.75331e-09
1.85729e-09
1.96163e-09
2.0662e-09
2.17089e-09
2.27559e-09
2.38018e-09
2.48455e-09
2.58858e-09
2.69216e-09
2.79517e-09
2.89751e-09
2.99906e-09
3.09971e-09
3.19936e-09
3.29788e-09
3.39518e-09
3.49115e-09
3.58569e-09
3.67868e-09
3.77002e-09
3.85962e-09
3.94736e-09
4.03316e-09
4.11692e-09
4.19853e-09
4.27791e-09
4.35495e-09
4.42957e-09
4.50169e-09
4.5712e-09
4.63802e-09
4.70207e-09
4.76327e-09
4.82154e-09
4.87679e-09
4.92895e-09
4.97794e-09
5.0237e-09
5.06615e-09
5.10522e-09
5.14085e-09
5.17297e-09
5.20153e-09
5.22646e-09
5.24771e-09
5.26522e-09
5.27895e-09
5.28885e-09
5.29488e-09
5.297e-09
5.29517e-09
5.28937e-09
5.27955e-09
5.2657e-09
5.24779e-09
5.22581e-09
5.19975e-09
5.1696e-09
5.13536e-09
5.09704e-09
5.05464e-09
5.00817e-09
4.95767e-09
4.90314e-09
4.84463e-09
4.78217e-09
4.71581e-09
4.6456e-09
4.5716e-09
4.49387e-09
4.41248e-09
4.32751e-09
4.23905e-09
4.14719e-09
4.05202e-09
3.95366e-09
3.85222e-09
3.74782e-09
3.64059e-09
3.53066e-09
3.41817e-09
3.30329e-09
3.18615e-09
3.06693e-09
2.94579e-09
2.82291e-09
2.69847e-09
2.57266e-09
2.44568e-09
2.31773e-09
2.189e-09
2.05972e-09
1.9301e-09
1.80037e-09
1.67075e-09
1.54147e-09
1.41277e-09
1.28491e-09
1.15812e-09
1.03267e-09
9.08849e-10
7.86974e-10
6.67431e-10
5.50744e-10
4.37709e-10
3.29668e-10
2.29009e-10
1.3992e-10
6.88794e-11
2.29267e-11
3.34444e-12
2.03623e-14
2.4623e-14
4.14794e-12
3.04003e-11
1.0062e-10
2.26731e-10
4.07621e-10
6.34166e-10
8.95348e-10
1.1817e-09
1.48625e-09
1.80422e-09
2.13243e-09
2.46879e-09
2.81186e-09
3.16063e-09
3.51432e-09
3.87234e-09
4.23416e-09
4.59934e-09
4.96745e-09
5.33807e-09
5.71081e-09
6.08529e-09
6.46112e-09
6.83789e-09
7.21524e-09
7.59278e-09
7.9701e-09
8.34683e-09
8.72257e-09
9.09694e-09
9.46954e-09
9.83999e-09
1.02079e-08
1.05729e-08
1.09345e-08
1.12925e-08
1.16463e-08
1.19957e-08
1.23403e-08
1.26797e-08
1.30134e-08
1.33413e-08
1.36628e-08
1.39776e-08
1.42855e-08
1.4586e-08
1.48787e-08
1.51635e-08
1.54398e-08
1.57075e-08
1.59661e-08
1.62154e-08
1.64551e-08
1.66848e-08
1.69043e-08
1.71133e-08
1.73115e-08
1.74986e-08
1.76744e-08
1.78385e-08
1.79909e-08
1.81311e-08
1.8259e-08
1.83744e-08
1.8477e-08
1.85666e-08
1.86431e-08
1.87062e-08
1.87557e-08
1.87916e-08
1.88135e-08
1.88215e-08
1.88154e-08
1.8795e-08
1.87602e-08
1.8711e-08
1.86472e-08
1.85688e-08
1.84758e-08
1.83681e-08
1.82458e-08
1.81087e-08
1.7957e-08
1.77908e-08
1.76099e-08
1.74146e-08
1.7205e-08
1.69811e-08
1.67431e-08
1.64913e-08
1.62257e-08
1.59467e-08
1.56544e-08
1.53491e-08
1.50311e-08
1.47007e-08
1.43584e-08
1.40043e-08
1.3639e-08
1.32628e-08
1.28762e-08
1.24796e-08
1.20736e-08
1.16586e-08
1.12351e-08
1.08038e-08
1.03652e-08
9.91993e-09
9.46857e-09
9.01177e-09
8.5502e-09
8.08455e-09
7.6155e-09
7.14379e-09
6.67016e-09
6.19539e-09
5.72028e-09
5.24569e-09
4.77253e-09
4.30182e-09
3.83471e-09
3.37261e-09
2.91727e-09
2.47106e-09
2.03728e-09
1.6207e-09
1.22829e-09
8.70023e-10
5.59159e-10
3.10977e-10
1.38005e-10
4.17037e-11
5.69241e-12
3.38036e-14
3.55333e-14
6.03747e-12
4.53359e-11
1.56198e-10
3.70295e-10
7.03044e-10
1.15296e-09
1.70702e-09
2.34733e-09
3.05599e-09
3.81756e-09
4.6198e-09
5.45343e-09
6.31159e-09
7.18921e-09
8.08255e-09
8.98876e-09
9.90562e-09
1.08314e-08
1.17645e-08
1.27037e-08
1.36478e-08
1.45957e-08
1.55465e-08
1.64991e-08
1.74525e-08
1.84059e-08
1.93582e-08
2.03085e-08
2.12559e-08
2.21994e-08
2.31381e-08
2.4071e-08
2.49972e-08
2.59157e-08
2.68257e-08
2.77261e-08
2.8616e-08
2.94945e-08
3.03607e-08
3.12136e-08
3.20524e-08
3.28761e-08
3.36839e-08
3.44748e-08
3.52481e-08
3.60027e-08
3.6738e-08
3.7453e-08
3.81469e-08
3.8819e-08
3.94684e-08
4.00944e-08
4.06961e-08
4.12729e-08
4.1824e-08
4.23488e-08
4.28464e-08
4.33163e-08
4.37577e-08
4.41701e-08
4.45528e-08
4.49052e-08
4.52267e-08
4.55167e-08
4.57748e-08
4.60004e-08
4.61929e-08
4.6352e-08
4.64772e-08
4.6568e-08
4.6624e-08
4.6645e-08
4.66305e-08
4.65803e-08
4.6494e-08
4.63715e-08
4.62124e-08
4.60167e-08
4.57842e-08
4.55149e-08
4.52086e-08
4.48653e-08
4.44852e-08
4.40683e-08
4.36147e-08
4.31246e-08
4.25983e-08
4.2036e-08
4.14381e-08
4.08049e-08
4.01369e-08
3.94347e-08
3.86988e-08
3.79298e-08
3.71285e-08
3.62955e-08
3.54316e-08
3.45378e-08
3.3615e-08
3.26641e-08
3.16862e-08
3.06824e-08
2.96539e-08
2.86019e-08
2.75276e-08
2.64325e-08
2.53179e-08
2.41852e-08
2.30361e-08
2.1872e-08
2.06946e-08
1.95058e-08
1.83072e-08
1.71008e-08
1.58888e-08
1.46733e-08
1.34569e-08
1.22423e-08
1.1033e-08
9.83295e-09
8.64698e-09
7.48139e-09
6.34431e-09
5.24637e-09
4.20154e-09
3.22776e-09
2.34719e-09
1.58509e-09
9.664e-10
5.08988e-10
2.1474e-10
6.23525e-11
8.30779e-12
4.89148e-14
4.73228e-14
8.07157e-12
6.1282e-11
2.15219e-10
5.23741e-10
1.02553e-09
1.73799e-09
2.6584e-09
3.76947e-09
5.04622e-09
6.46156e-09
7.98994e-09
9.60911e-09
1.13007e-08
1.30498e-08
1.48448e-08
1.66765e-08
1.85376e-08
2.04225e-08
2.23263e-08
2.42451e-08
2.61757e-08
2.81151e-08
3.00607e-08
3.20102e-08
3.39613e-08
3.59118e-08
3.78599e-08
3.98034e-08
4.17405e-08
4.36691e-08
4.55874e-08
4.74934e-08
4.93853e-08
5.12611e-08
5.3119e-08
5.4957e-08
5.67733e-08
5.85661e-08
6.03335e-08
6.20736e-08
6.37846e-08
6.54647e-08
6.71121e-08
6.87251e-08
7.03018e-08
7.18406e-08
7.33397e-08
7.47975e-08
7.62123e-08
7.75825e-08
7.89065e-08
8.01827e-08
8.14096e-08
8.25857e-08
8.37095e-08
8.47795e-08
8.57945e-08
8.67529e-08
8.76534e-08
8.84948e-08
8.92758e-08
8.99952e-08
9.06517e-08
9.12443e-08
9.17718e-08
9.22332e-08
9.26274e-08
9.29535e-08
9.32106e-08
9.33977e-08
9.35142e-08
9.35591e-08
9.35319e-08
9.3432e-08
9.32585e-08
9.3011e-08
9.2689e-08
9.22923e-08
9.18204e-08
9.12732e-08
9.06505e-08
8.99523e-08
8.91785e-08
8.83294e-08
8.7405e-08
8.64058e-08
8.53321e-08
8.41844e-08
8.29634e-08
8.16697e-08
8.03043e-08
7.88681e-08
7.73621e-08
7.57876e-08
7.41458e-08
7.24382e-08
7.06663e-08
6.88318e-08
6.69365e-08
6.49824e-08
6.29714e-08
6.09058e-08
5.87879e-08
5.66201e-08
5.44049e-08
5.21453e-08
4.98439e-08
4.75039e-08
4.51285e-08
4.27212e-08
4.02857e-08
3.7826e-08
3.53464e-08
3.28519e-08
3.03477e-08
2.78402e-08
2.53364e-08
2.28448e-08
2.03756e-08
1.79412e-08
1.55568e-08
1.3241e-08
1.10171e-08
8.91277e-09
6.96119e-09
5.19946e-09
3.66619e-09
2.39642e-09
1.41393e-09
7.22186e-10
2.96868e-10
8.45759e-11
1.1146e-11
6.53754e-14
5.97934e-14
1.02192e-11
7.80394e-11
2.76905e-10
6.83773e-10
1.36337e-09
2.35835e-09
3.68604e-09
5.3409e-09
7.30044e-09
9.53207e-09
1.19991e-08
1.46649e-08
1.74961e-08
2.0463e-08
2.35405e-08
2.67078e-08
2.99474e-08
3.32452e-08
3.65895e-08
3.99705e-08
4.33802e-08
4.68116e-08
5.02586e-08
5.37158e-08
5.71784e-08
6.06418e-08
6.41019e-08
6.75547e-08
7.09964e-08
7.44235e-08
7.78323e-08
8.12193e-08
8.4581e-08
8.79142e-08
9.12153e-08
9.4481e-08
9.7708e-08
1.00893e-07
1.04033e-07
1.07124e-07
1.10163e-07
1.13148e-07
1.16075e-07
1.1894e-07
1.21741e-07
1.24474e-07
1.27138e-07
1.29728e-07
1.32241e-07
1.34676e-07
1.37029e-07
1.39297e-07
1.41477e-07
1.43568e-07
1.45566e-07
1.47468e-07
1.49273e-07
1.50978e-07
1.52581e-07
1.54078e-07
1.55469e-07
1.5675e-07
1.5792e-07
1.58977e-07
1.59918e-07
1.60743e-07
1.61448e-07
1.62032e-07
1.62494e-07
1.62831e-07
1.63044e-07
1.63129e-07
1.63086e-07
1.62914e-07
1.62611e-07
1.62177e-07
1.6161e-07
1.6091e-07
1.60076e-07
1.59108e-07
1.58005e-07
1.56768e-07
1.55395e-07
1.53888e-07
1.52246e-07
1.5047e-07
1.4856e-07
1.46518e-07
1.44344e-07
1.4204e-07
1.39606e-07
1.37044e-07
1.34357e-07
1.31545e-07
1.28612e-07
1.2556e-07
1.22391e-07
1.19108e-07
1.15714e-07
1.12213e-07
1.08608e-07
1.04904e-07
1.01104e-07
9.72121e-08
9.32342e-08
8.9175e-08
8.504e-08
8.08353e-08
7.65673e-08
7.22432e-08
6.78708e-08
6.34589e-08
5.90173e-08
5.4557e-08
5.00909e-08
4.56339e-08
4.12032e-08
3.68195e-08
3.25068e-08
2.82938e-08
2.42146e-08
2.03088e-08
1.66222e-08
1.32055e-08
1.01125e-08
7.39645e-09
5.10343e-09
3.26468e-09
1.88734e-09
9.46779e-10
3.83587e-10
1.08171e-10
1.41735e-11
8.29654e-14
7.27858e-14
1.24544e-11
9.54308e-11
3.40669e-10
8.4864e-10
1.71117e-09
2.99906e-09
4.75548e-09
6.99495e-09
9.70704e-09
1.28625e-08
1.64203e-08
2.03333e-08
2.45539e-08
2.90362e-08
3.37385e-08
3.86239e-08
4.36605e-08
4.88208e-08
5.40815e-08
5.9423e-08
6.48284e-08
7.02833e-08
7.57753e-08
8.12934e-08
8.6828e-08
9.23705e-08
9.7913e-08
1.03448e-07
1.08969e-07
1.14469e-07
1.19942e-07
1.25382e-07
1.30782e-07
1.36138e-07
1.41444e-07
1.46693e-07
1.51881e-07
1.57002e-07
1.6205e-07
1.67022e-07
1.71911e-07
1.76712e-07
1.8142e-07
1.8603e-07
1.90537e-07
1.94937e-07
1.99224e-07
2.03393e-07
2.07441e-07
2.11362e-07
2.15152e-07
2.18806e-07
2.2232e-07
2.2569e-07
2.28912e-07
2.31981e-07
2.34893e-07
2.37645e-07
2.40232e-07
2.42652e-07
2.44899e-07
2.46972e-07
2.48866e-07
2.50578e-07
2.52104e-07
2.53443e-07
2.54589e-07
2.55542e-07
2.56298e-07
2.56854e-07
2.57209e-07
2.57359e-07
2.57302e-07
2.57038e-07
2.56562e-07
2.55874e-07
2.54972e-07
2.53856e-07
2.52523e-07
2.50972e-07
2.49204e-07
2.47218e-07
2.45012e-07
2.42588e-07
2.39946e-07
2.37086e-07
2.34008e-07
2.30715e-07
2.27207e-07
2.23485e-07
2.19553e-07
2.15412e-07
2.11065e-07
2.06515e-07
2.01766e-07
1.96821e-07
1.91684e-07
1.8636e-07
1.80855e-07
1.75173e-07
1.69321e-07
1.63305e-07
1.57132e-07
1.5081e-07
1.44348e-07
1.37755e-07
1.31041e-07
1.24217e-07
1.17295e-07
1.10289e-07
1.03216e-07
9.60918e-08
8.8937e-08
8.17743e-08
7.46296e-08
6.75329e-08
6.05189e-08
5.3628e-08
4.69066e-08
4.04077e-08
3.41912e-08
2.83228e-08
2.2873e-08
1.79141e-08
1.35153e-08
9.73596e-09
6.61705e-09
4.17247e-09
2.38081e-09
1.18109e-09
4.74361e-10
1.32965e-10
1.73636e-11
1.01519e-13
8.61642e-14
1.47546e-11
1.13295e-10
4.05985e-10
1.01701e-09
2.0656e-09
3.65189e-09
5.84771e-09
8.69273e-09
1.21956e-08
1.63383e-08
2.10831e-08
2.6379e-08
3.21681e-08
3.83908e-08
4.49887e-08
5.19075e-08
5.90977e-08
6.65152e-08
7.41215e-08
8.18826e-08
8.97692e-08
9.77559e-08
1.0582e-07
1.13943e-07
1.22106e-07
1.30295e-07
1.38496e-07
1.46695e-07
1.54881e-07
1.63043e-07
1.71171e-07
1.79255e-07
1.87285e-07
1.95252e-07
2.03149e-07
2.10965e-07
2.18692e-07
2.26323e-07
2.33849e-07
2.41261e-07
2.48552e-07
2.55715e-07
2.62741e-07
2.69623e-07
2.76353e-07
2.82924e-07
2.89329e-07
2.95561e-07
3.01612e-07
3.07476e-07
3.13145e-07
3.18614e-07
3.23875e-07
3.28922e-07
3.33749e-07
3.3835e-07
3.42718e-07
3.46847e-07
3.50733e-07
3.54368e-07
3.57748e-07
3.60867e-07
3.63721e-07
3.66303e-07
3.68609e-07
3.70634e-07
3.72374e-07
3.73824e-07
3.7498e-07
3.75838e-07
3.76394e-07
3.76644e-07
3.76585e-07
3.76216e-07
3.75529e-07
3.74524e-07
3.73199e-07
3.7155e-07
3.69577e-07
3.67277e-07
3.6465e-07
3.61693e-07
3.58408e-07
3.54792e-07
3.50847e-07
3.46573e-07
3.41971e-07
3.37041e-07
3.31787e-07
3.26211e-07
3.20314e-07
3.14101e-07
3.07576e-07
3.00742e-07
2.93605e-07
2.86171e-07
2.78446e-07
2.70437e-07
2.62153e-07
2.53601e-07
2.44791e-07
2.35735e-07
2.26444e-07
2.1693e-07
2.07209e-07
1.97296e-07
1.87209e-07
1.76967e-07
1.66594e-07
1.56112e-07
1.4555e-07
1.3494e-07
1.24318e-07
1.13723e-07
1.03203e-07
9.28105e-08
8.26055e-08
7.26549e-08
6.30336e-08
5.38237e-08
4.51136e-08
3.69955e-08
2.95619e-08
2.29004e-08
1.70861e-08
1.21732e-08
8.18626e-09
5.11146e-09
2.89133e-09
1.42398e-09
5.68733e-10
1.58811e-10
2.06946e-11
1.20904e-13
9.98092e-14
1.70995e-11
1.31486e-10
4.72359e-10
1.18769e-09
2.42409e-09
4.31127e-09
6.9509e-09
1.04104e-08
1.47218e-08
1.98843e-08
2.58696e-08
3.26293e-08
4.01012e-08
4.82155e-08
5.69003e-08
6.60845e-08
7.5701e-08
8.56876e-08
9.59876e-08
1.06551e-07
1.17332e-07
1.2829e-07
1.39392e-07
1.50605e-07
1.61902e-07
1.73257e-07
1.84649e-07
1.96057e-07
2.07462e-07
2.18847e-07
2.30196e-07
2.41493e-07
2.52725e-07
2.63877e-07
2.74936e-07
2.85889e-07
2.96724e-07
3.07429e-07
3.17992e-07
3.28401e-07
3.38645e-07
3.48713e-07
3.58593e-07
3.68275e-07
3.77747e-07
3.87001e-07
3.96024e-07
4.04807e-07
4.1334e-07
4.21613e-07
4.29616e-07
4.37339e-07
4.44774e-07
4.51911e-07
4.5874e-07
4.65254e-07
4.71442e-07
4.77298e-07
4.82811e-07
4.87975e-07
4.92781e-07
4.97221e-07
5.01288e-07
5.04974e-07
5.08272e-07
5.11176e-07
5.13678e-07
5.15772e-07
5.17451e-07
5.1871e-07
5.19543e-07
5.19945e-07
5.1991e-07
5.19436e-07
5.18513e-07
5.1714e-07
5.15313e-07
5.13028e-07
5.10282e-07
5.07073e-07
5.03398e-07
4.99255e-07
4.94644e-07
4.89564e-07
4.84014e-07
4.77995e-07
4.71508e-07
4.64554e-07
4.57136e-07
4.49258e-07
4.40922e-07
4.32134e-07
4.22899e-07
4.13223e-07
4.03114e-07
3.9258e-07
3.81631e-07
3.70277e-07
3.58531e-07
3.46407e-07
3.33918e-07
3.21082e-07
3.07917e-07
2.94444e-07
2.80686e-07
2.66668e-07
2.52419e-07
2.37971e-07
2.23362e-07
2.08632e-07
1.93826e-07
1.78998e-07
1.64205e-07
1.49513e-07
1.34995e-07
1.20733e-07
1.06818e-07
9.33473e-08
8.04289e-08
6.81752e-08
5.67023e-08
4.61255e-08
3.65532e-08
2.80797e-08
2.07766e-08
1.46837e-08
9.79982e-09
6.07688e-09
3.41686e-09
1.67452e-09
6.66288e-10
1.85578e-10
2.41481e-11
1.41009e-13
1.13613e-13
1.9471e-11
1.49866e-10
5.39325e-10
1.35956e-09
2.78434e-09
4.97276e-09
8.05652e-09
1.21319e-08
1.72565e-08
2.34502e-08
3.06992e-08
3.89624e-08
4.81786e-08
5.82729e-08
6.91629e-08
8.07639e-08
9.29923e-08
1.05768e-07
1.19017e-07
1.32669e-07
1.46662e-07
1.6094e-07
1.75453e-07
1.90154e-07
2.05003e-07
2.19962e-07
2.35e-07
2.50085e-07
2.6519e-07
2.80289e-07
2.95359e-07
3.10378e-07
3.25324e-07
3.40178e-07
3.54921e-07
3.69535e-07
3.84002e-07
3.98305e-07
4.12427e-07
4.26353e-07
4.40067e-07
4.53552e-07
4.66795e-07
4.79779e-07
4.92491e-07
5.04916e-07
5.17039e-07
5.28847e-07
5.40325e-07
5.51461e-07
5.62241e-07
5.72651e-07
5.8268e-07
5.92313e-07
6.01539e-07
6.10345e-07
6.1872e-07
6.26651e-07
6.34127e-07
6.41137e-07
6.47669e-07
6.53713e-07
6.59258e-07
6.64294e-07
6.6881e-07
6.72797e-07
6.76245e-07
6.79145e-07
6.81488e-07
6.83266e-07
6.84471e-07
6.85094e-07
6.85128e-07
6.84571e-07
6.83407e-07
6.81635e-07
6.79248e-07
6.76242e-07
6.72612e-07
6.68353e-07
6.63463e-07
6.57938e-07
6.51777e-07
6.44978e-07
6.37541e-07
6.29465e-07
6.20753e-07
6.11405e-07
6.01425e-07
5.90817e-07
5.79586e-07
5.67738e-07
5.55281e-07
5.42224e-07
5.28577e-07
5.14353e-07
4.99565e-07
4.84228e-07
4.6836e-07
4.51981e-07
4.35113e-07
4.17782e-07
4.00015e-07
3.81846e-07
3.63308e-07
3.44442e-07
3.25292e-07
3.05908e-07
2.86345e-07
2.66666e-07
2.46941e-07
2.27247e-07
2.07671e-07
1.88309e-07
1.69267e-07
1.5066e-07
1.32614e-07
1.1526e-07
9.87396e-08
8.31935e-08
6.87622e-08
5.55787e-08
4.37602e-08
3.34001e-08
2.45585e-08
1.72528e-08
1.14507e-08
7.0653e-09
3.95565e-09
1.93182e-09
7.66642e-10
2.13147e-10
2.77078e-11
1.61738e-13
1.27479e-13
2.18525e-11
1.68311e-10
6.06449e-10
1.53156e-09
3.14423e-09
5.63244e-09
9.15757e-09
1.38449e-08
1.97784e-08
2.70006e-08
3.55149e-08
4.52914e-08
5.62737e-08
6.8386e-08
8.15395e-08
9.56387e-08
1.10586e-07
1.26286e-07
1.42645e-07
1.59577e-07
1.77001e-07
1.94843e-07
2.13036e-07
2.31518e-07
2.50234e-07
2.69133e-07
2.88169e-07
3.07302e-07
3.26491e-07
3.45702e-07
3.64902e-07
3.84061e-07
4.03149e-07
4.2214e-07
4.41007e-07
4.59727e-07
4.78275e-07
4.96628e-07
5.14764e-07
5.32662e-07
5.50301e-07
5.67659e-07
5.84718e-07
6.01456e-07
6.17854e-07
6.33895e-07
6.49557e-07
6.64824e-07
6.79677e-07
6.94097e-07
7.08068e-07
7.21571e-07
7.3459e-07
7.47108e-07
7.59108e-07
7.70574e-07
7.81489e-07
7.91838e-07
8.01606e-07
8.10777e-07
8.19335e-07
8.27268e-07
8.34559e-07
8.41196e-07
8.47164e-07
8.52451e-07
8.57042e-07
8.60927e-07
8.64092e-07
8.66526e-07
8.68217e-07
8.69154e-07
8.69328e-07
8.68733e-07
8.67353e-07
8.65179e-07
8.62205e-07
8.58424e-07
8.53829e-07
8.48415e-07
8.42175e-07
8.35106e-07
8.27205e-07
8.18469e-07
8.08897e-07
7.98488e-07
7.87245e-07
7.75169e-07
7.62264e-07
7.48535e-07
7.33989e-07
7.18635e-07
7.02483e-07
6.85545e-07
6.67836e-07
6.49373e-07
6.30175e-07
6.10265e-07
5.89667e-07
5.6841e-07
5.46526e-07
5.24052e-07
5.01027e-07
4.77499e-07
4.53518e-07
4.29142e-07
4.04436e-07
3.7947e-07
3.54326e-07
3.29091e-07
3.03866e-07
2.78758e-07
2.53889e-07
2.29388e-07
2.05398e-07
1.82071e-07
1.59569e-07
1.38058e-07
1.17708e-07
9.86889e-08
8.11602e-08
6.52664e-08
5.11273e-08
3.88288e-08
2.84132e-08
1.98707e-08
1.31335e-08
8.07383e-09
4.50611e-09
2.19506e-09
8.69437e-10
2.41413e-10
3.13593e-11
1.83005e-13
1.41316e-13
2.42287e-11
1.86706e-10
6.73323e-10
1.70269e-09
3.50175e-09
6.2867e-09
1.02479e-08
1.55391e-08
2.22708e-08
3.05086e-08
4.02747e-08
5.15526e-08
6.42934e-08
7.84234e-08
9.38514e-08
1.10473e-07
1.28181e-07
1.46864e-07
1.66414e-07
1.86727e-07
2.07705e-07
2.29256e-07
2.51296e-07
2.73747e-07
2.96538e-07
3.19603e-07
3.42882e-07
3.66322e-07
3.89872e-07
4.13484e-07
4.37117e-07
4.60731e-07
4.84286e-07
5.07748e-07
5.31084e-07
5.5426e-07
5.77246e-07
6.00013e-07
6.22532e-07
6.44774e-07
6.66714e-07
6.88323e-07
7.09578e-07
7.30451e-07
7.50919e-07
7.70956e-07
7.90539e-07
8.09644e-07
8.28248e-07
8.46327e-07
8.63858e-07
8.8082e-07
8.9719e-07
9.12947e-07
9.28068e-07
9.42533e-07
9.56321e-07
9.69411e-07
9.81783e-07
9.93417e-07
1.00429e-06
1.01439e-06
1.0237e-06
1.03219e-06
1.03985e-06
1.04666e-06
1.0526e-06
1.05766e-06
1.06181e-06
1.06506e-06
1.06737e-06
1.06874e-06
1.06914e-06
1.06858e-06
1.06703e-06
1.06449e-06
1.06093e-06
1.05635e-06
1.05075e-06
1.04411e-06
1.03643e-06
1.0277e-06
1.01791e-06
1.00706e-06
9.95157e-07
9.82191e-07
9.68165e-07
9.53083e-07
9.36948e-07
9.19767e-07
9.0155e-07
8.82308e-07
8.62054e-07
8.40805e-07
8.18581e-07
7.95404e-07
7.71302e-07
7.46304e-07
7.20445e-07
6.93765e-07
6.66307e-07
6.38123e-07
6.09269e-07
5.79809e-07
5.49812e-07
5.19359e-07
4.88539e-07
4.57448e-07
4.26197e-07
3.94906e-07
3.63706e-07
3.32742e-07
3.02171e-07
2.72163e-07
2.42898e-07
2.14565e-07
1.87363e-07
1.61491e-07
1.37149e-07
1.14528e-07
9.38043e-08
7.51278e-08
5.86163e-08
4.43428e-08
3.23274e-08
2.25295e-08
1.48438e-08
9.09981e-09
5.06671e-09
2.46343e-09
9.74335e-10
2.70276e-10
3.50894e-11
2.04733e-13
1.55043e-13
2.65856e-11
2.04942e-10
7.39569e-10
1.87203e-09
3.85502e-09
6.93219e-09
1.1322e-08
1.72057e-08
2.47197e-08
3.39526e-08
4.49457e-08
5.76969e-08
7.21668e-08
8.8286e-08
1.05962e-07
1.25087e-07
1.45543e-07
1.67208e-07
1.8996e-07
2.13679e-07
2.38251e-07
2.63567e-07
2.89527e-07
3.16035e-07
3.43006e-07
3.70358e-07
3.98018e-07
4.25917e-07
4.53993e-07
4.82188e-07
5.10448e-07
5.38721e-07
5.66961e-07
5.95123e-07
6.23165e-07
6.51046e-07
6.78728e-07
7.06174e-07
7.33347e-07
7.60214e-07
7.8674e-07
8.12893e-07
8.38641e-07
8.63951e-07
8.88793e-07
9.13136e-07
9.36951e-07
9.60207e-07
9.82876e-07
1.00493e-06
1.02634e-06
1.04707e-06
1.06711e-06
1.08641e-06
1.10497e-06
1.12274e-06
1.1397e-06
1.15582e-06
1.17109e-06
1.18547e-06
1.19894e-06
1.21148e-06
1.22305e-06
1.23365e-06
1.24323e-06
1.25179e-06
1.25929e-06
1.26573e-06
1.27106e-06
1.27529e-06
1.27837e-06
1.2803e-06
1.28107e-06
1.28064e-06
1.27901e-06
1.27615e-06
1.27205e-06
1.26671e-06
1.26009e-06
1.25221e-06
1.24303e-06
1.23257e-06
1.2208e-06
1.20773e-06
1.19335e-06
1.17766e-06
1.16066e-06
1.14236e-06
1.12275e-06
1.10186e-06
1.07968e-06
1.05624e-06
1.03155e-06
1.00564e-06
9.78521e-07
9.50236e-07
9.20816e-07
8.90303e-07
8.58741e-07
8.26183e-07
7.92689e-07
7.58326e-07
7.23168e-07
6.87301e-07
6.50818e-07
6.13825e-07
5.76437e-07
5.38784e-07
5.01006e-07
4.63259e-07
4.25712e-07
3.88548e-07
3.51964e-07
3.16169e-07
2.81382e-07
2.47833e-07
2.15754e-07
1.85377e-07
1.56927e-07
1.30616e-07
1.06629e-07
8.51197e-08
6.61995e-08
4.99248e-08
3.62904e-08
2.52227e-08
1.65774e-08
1.01407e-08
5.63596e-09
2.73618e-09
1.08102e-09
2.99645e-10
3.8886e-11
2.2685e-13
1.68585e-13
2.89104e-11
2.22922e-10
8.04839e-10
2.0387e-09
4.20228e-09
7.56578e-09
1.23747e-08
1.88366e-08
2.71128e-08
3.73142e-08
4.95008e-08
6.36853e-08
7.98384e-08
9.78961e-08
1.17767e-07
1.39341e-07
1.62492e-07
1.87088e-07
2.12997e-07
2.40083e-07
2.68219e-07
2.9728e-07
3.2715e-07
3.57717e-07
3.88881e-07
4.20547e-07
4.52625e-07
4.85036e-07
5.17703e-07
5.50557e-07
5.83531e-07
6.16566e-07
6.49603e-07
6.82588e-07
7.15471e-07
7.48203e-07
7.80736e-07
8.13026e-07
8.4503e-07
8.76705e-07
9.08012e-07
9.38909e-07
9.69359e-07
9.99323e-07
1.02876e-06
1.05764e-06
1.08593e-06
1.11358e-06
1.14056e-06
1.16684e-06
1.19238e-06
1.21714e-06
1.2411e-06
1.26422e-06
1.28647e-06
1.30781e-06
1.32821e-06
1.34763e-06
1.36606e-06
1.38344e-06
1.39976e-06
1.41499e-06
1.42908e-06
1.44201e-06
1.45376e-06
1.46429e-06
1.47358e-06
1.48159e-06
1.4883e-06
1.49369e-06
1.49772e-06
1.50038e-06
1.50164e-06
1.50148e-06
1.49988e-06
1.49681e-06
1.49225e-06
1.48619e-06
1.47862e-06
1.46951e-06
1.45885e-06
1.44663e-06
1.43285e-06
1.41749e-06
1.40056e-06
1.38204e-06
1.36195e-06
1.34028e-06
1.31703e-06
1.29223e-06
1.26589e-06
1.23801e-06
1.20864e-06
1.17778e-06
1.14549e-06
1.11179e-06
1.07673e-06
1.04037e-06
1.00275e-06
9.6396e-07
9.24063e-07
8.8315e-07
8.41317e-07
7.98671e-07
7.55334e-07
7.11439e-07
6.67133e-07
6.22578e-07
5.77952e-07
5.33447e-07
4.89273e-07
4.45653e-07
4.02825e-07
3.61039e-07
3.20555e-07
2.8164e-07
2.44561e-07
2.09579e-07
1.76943e-07
1.46879e-07
1.19584e-07
9.52085e-08
7.38548e-08
5.55603e-08
4.02926e-08
2.79441e-08
1.83304e-08
1.11939e-08
6.21243e-09
3.01257e-09
1.18918e-09
3.29433e-10
4.27375e-11
2.49289e-13
1.81874e-13
3.11915e-11
2.40558e-10
8.68816e-10
2.20191e-09
4.54192e-09
8.1846e-09
1.34012e-08
2.04245e-08
2.94394e-08
4.05777e-08
5.39174e-08
6.94856e-08
8.72632e-08
1.07192e-07
1.29183e-07
1.53124e-07
1.78884e-07
2.06324e-07
2.35298e-07
2.65664e-07
2.97276e-07
3.29999e-07
3.637e-07
3.98255e-07
4.33548e-07
4.69471e-07
5.05922e-07
5.42806e-07
5.80037e-07
6.17532e-07
6.55215e-07
6.93015e-07
7.30864e-07
7.687e-07
8.06461e-07
8.44092e-07
8.81536e-07
9.18742e-07
9.55657e-07
9.92234e-07
1.02842e-06
1.06418e-06
1.09946e-06
1.13421e-06
1.16839e-06
1.20196e-06
1.23487e-06
1.26708e-06
1.29856e-06
1.32925e-06
1.35911e-06
1.38811e-06
1.4162e-06
1.44335e-06
1.46951e-06
1.49463e-06
1.5187e-06
1.54165e-06
1.56346e-06
1.58408e-06
1.60348e-06
1.62162e-06
1.63846e-06
1.65397e-06
1.6681e-06
1.68082e-06
1.6921e-06
1.70191e-06
1.7102e-06
1.71694e-06
1.72211e-06
1.72568e-06
1.7276e-06
1.72786e-06
1.72644e-06
1.72329e-06
1.71839e-06
1.71172e-06
1.70326e-06
1.693e-06
1.68091e-06
1.66698e-06
1.6512e-06
1.63356e-06
1.61405e-06
1.59267e-06
1.56942e-06
1.5443e-06
1.51733e-06
1.48851e-06
1.45786e-06
1.4254e-06
1.39117e-06
1.35519e-06
1.31751e-06
1.27818e-06
1.23725e-06
1.19479e-06
1.15087e-06
1.10558e-06
1.05901e-06
1.01127e-06
9.6249e-07
9.12791e-07
8.62327e-07
8.11264e-07
7.59782e-07
7.0808e-07
6.56372e-07
6.04893e-07
5.53891e-07
5.03634e-07
4.54401e-07
4.06485e-07
3.60184e-07
3.15803e-07
2.73642e-07
2.3399e-07
1.97117e-07
1.63263e-07
1.32629e-07
1.05367e-07
8.15633e-08
6.12363e-08
4.43253e-08
3.06876e-08
2.00987e-08
1.22571e-08
6.79469e-09
3.29189e-09
1.29854e-09
3.59558e-10
4.66331e-11
2.71986e-13
1.94851e-13
3.34186e-11
2.5777e-10
9.31215e-10
2.36095e-09
4.87249e-09
8.78604e-09
1.43974e-08
2.19629e-08
3.16896e-08
4.3729e-08
5.8176e-08
7.50708e-08
9.44043e-08
1.16124e-07
1.40144e-07
1.6635e-07
1.94609e-07
2.24772e-07
2.56689e-07
2.90203e-07
3.2516e-07
3.6141e-07
3.98809e-07
4.3722e-07
4.76513e-07
5.16569e-07
5.57272e-07
5.98517e-07
6.40205e-07
6.82243e-07
7.24546e-07
7.67032e-07
8.09623e-07
8.52249e-07
8.9484e-07
9.37331e-07
9.79659e-07
1.02176e-06
1.06359e-06
1.10507e-06
1.14617e-06
1.18681e-06
1.22696e-06
1.26655e-06
1.30554e-06
1.34387e-06
1.38151e-06
1.41839e-06
1.45446e-06
1.48969e-06
1.52401e-06
1.55738e-06
1.58976e-06
1.62109e-06
1.65133e-06
1.68042e-06
1.70833e-06
1.735e-06
1.76039e-06
1.78445e-06
1.80714e-06
1.8284e-06
1.8482e-06
1.86649e-06
1.88322e-06
1.89835e-06
1.91184e-06
1.92364e-06
1.93372e-06
1.94203e-06
1.94853e-06
1.95319e-06
1.95597e-06
1.95683e-06
1.95574e-06
1.95268e-06
1.94758e-06
1.94045e-06
1.93124e-06
1.91993e-06
1.90651e-06
1.89096e-06
1.87325e-06
1.85338e-06
1.83133e-06
1.80711e-06
1.78072e-06
1.75214e-06
1.72141e-06
1.68852e-06
1.65351e-06
1.6164e-06
1.57721e-06
1.53601e-06
1.49282e-06
1.44773e-06
1.40078e-06
1.35207e-06
1.30168e-06
1.24972e-06
1.1963e-06
1.14156e-06
1.08563e-06
1.0287e-06
9.70921e-07
9.1251e-07
8.53679e-07
7.94663e-07
7.35719e-07
6.77121e-07
6.19161e-07
5.6215e-07
5.06409e-07
4.52274e-07
4.00083e-07
3.50175e-07
3.02884e-07
2.58524e-07
2.17384e-07
1.79719e-07
1.45732e-07
1.1557e-07
8.93076e-08
6.69406e-08
4.83799e-08
3.34475e-08
2.18786e-08
1.33278e-08
7.38134e-09
3.57344e-09
1.40881e-09
3.89939e-10
5.05624e-11
2.9488e-13
2.07463e-13
3.55827e-11
2.74489e-10
9.91785e-10
2.51519e-09
5.19269e-09
9.36779e-09
1.53594e-08
2.34461e-08
3.38552e-08
4.67564e-08
6.22599e-08
8.04182e-08
1.01231e-07
1.24652e-07
1.50596e-07
1.7895e-07
2.09577e-07
2.42323e-07
2.77029e-07
3.13531e-07
3.51664e-07
3.91268e-07
4.32187e-07
4.74273e-07
5.17387e-07
5.61394e-07
6.06171e-07
6.51602e-07
6.97576e-07
7.43993e-07
7.90757e-07
8.37776e-07
8.84967e-07
9.32249e-07
9.79546e-07
1.02678e-06
1.07389e-06
1.1208e-06
1.16746e-06
1.21378e-06
1.25972e-06
1.30521e-06
1.3502e-06
1.39462e-06
1.43841e-06
1.48153e-06
1.5239e-06
1.56548e-06
1.60621e-06
1.64603e-06
1.68488e-06
1.72272e-06
1.75948e-06
1.79511e-06
1.82954e-06
1.86274e-06
1.89464e-06
1.92518e-06
1.95431e-06
1.98198e-06
2.00813e-06
2.03271e-06
2.05565e-06
2.07692e-06
2.09645e-06
2.11419e-06
2.13009e-06
2.1441e-06
2.15617e-06
2.16625e-06
2.17429e-06
2.18025e-06
2.18408e-06
2.18573e-06
2.18518e-06
2.18238e-06
2.17727e-06
2.16984e-06
2.16004e-06
2.14785e-06
2.13323e-06
2.11618e-06
2.09666e-06
2.07467e-06
2.05018e-06
2.0232e-06
1.99372e-06
1.96175e-06
1.92729e-06
1.89037e-06
1.851e-06
1.80923e-06
1.76508e-06
1.71861e-06
1.66988e-06
1.61896e-06
1.56594e-06
1.5109e-06
1.45395e-06
1.39523e-06
1.33486e-06
1.27301e-06
1.20985e-06
1.14556e-06
1.08037e-06
1.01451e-06
9.4823e-07
8.81806e-07
8.15536e-07
7.49738e-07
6.84748e-07
6.20918e-07
5.58615e-07
4.98215e-07
4.40097e-07
3.84634e-07
3.32192e-07
2.83108e-07
2.37691e-07
1.96207e-07
1.58862e-07
1.25796e-07
9.70713e-08
7.26615e-08
5.24481e-08
3.62179e-08
2.36661e-08
1.44036e-08
7.97103e-09
3.85653e-09
1.5197e-09
4.20501e-10
5.45153e-11
3.17913e-13
2.19664e-13
3.76761e-11
2.90655e-10
1.05031e-09
2.66408e-09
5.50142e-09
9.92787e-09
1.6284e-08
2.4869e-08
3.59287e-08
4.96494e-08
6.6155e-08
8.55087e-08
1.07718e-07
1.32742e-07
1.60497e-07
1.90869e-07
2.23719e-07
2.58889e-07
2.96212e-07
3.35517e-07
3.76631e-07
4.19384e-07
4.63612e-07
5.09156e-07
5.55867e-07
6.03602e-07
6.52228e-07
7.01619e-07
7.51658e-07
8.02233e-07
8.53242e-07
9.04586e-07
9.56173e-07