/*--------------------------------*- C++ -*----------------------------------*\
  =========                 |
  \\      /  F ield         | OpenFOAM: The Open Source CFD Toolbox
   \\    /   O peration     | Website:  https://openfoam.org
    \\  /    A nd           | Version:  12
     \\/     M anipulation  |
\*---------------------------------------------------------------------------*/
FoamFile
{
    format      ascii;
    class       volScalarField;
    location    "4.5";
    object      p;
}
// * * * * * * * * * * * * * * * * * * * * * * * * * * * * * * * * * * * * * //

dimensions      [0 2 -2 0 0 0 0];

internalField   nonuniform List<scalar> 
18225
(
2.07202e-07
2.15372e-07
2.76651e-07
5.65538e-07
1.08403e-06
1.84214e-06
2.81713e-06
3.99951e-06
5.36091e-06
6.88313e-06
8.53719e-06
1.0303e-05
1.21538e-05
1.40704e-05
1.6029e-05
1.80118e-05
1.99982e-05
2.19721e-05
2.3916e-05
2.58155e-05
2.76555e-05
2.94237e-05
3.11072e-05
3.26953e-05
3.41774e-05
3.55444e-05
3.67874e-05
3.78992e-05
3.88725e-05
3.97017e-05
4.03811e-05
4.09066e-05
4.12741e-05
4.14807e-05
4.1524e-05
4.14023e-05
4.11146e-05
4.06604e-05
4.004e-05
3.92541e-05
3.8304e-05
3.71918e-05
3.59196e-05
3.44904e-05
3.29076e-05
3.1175e-05
2.92967e-05
2.72773e-05
2.51218e-05
2.28356e-05
2.04243e-05
1.78938e-05
1.52502e-05
1.25002e-05
9.65026e-06
6.70733e-06
3.67838e-06
5.70642e-07
-2.60866e-06
-5.85205e-06
-9.15214e-06
-1.25013e-05
-1.58921e-05
-1.93169e-05
-2.27681e-05
-2.62381e-05
-2.97195e-05
-3.32047e-05
-3.66865e-05
-4.01574e-05
-4.36103e-05
-4.7038e-05
-5.04337e-05
-5.37904e-05
-5.71015e-05
-6.03603e-05
-6.35607e-05
-6.66962e-05
-6.97609e-05
-7.27489e-05
-7.56545e-05
-7.84722e-05
-8.11968e-05
-8.38232e-05
-8.63465e-05
-8.8762e-05
-9.10653e-05
-9.32522e-05
-9.53188e-05
-9.72612e-05
-9.90761e-05
-0.00010076
-0.00010231
-0.000103724
-0.000104998
-0.000106132
-0.000107122
-0.000107967
-0.000108667
-0.00010922
-0.000109626
-0.000109885
-0.000109996
-0.00010996
-0.00010978
-0.000109455
-0.000108989
-0.000108384
-0.000107644
-0.000106771
-0.000105772
-0.000104651
-0.000103414
-0.000102069
-0.000100624
-9.90879e-05
-9.74704e-05
-9.57832e-05
-9.40392e-05
-9.22524e-05
-9.04385e-05
-8.86149e-05
-8.68007e-05
-8.50169e-05
-8.32865e-05
-8.16342e-05
-8.00869e-05
-7.86728e-05
-7.74215e-05
-7.63627e-05
-7.55248e-05
-7.49342e-05
-7.46179e-05
-7.45853e-05
-7.47307e-05
5.16943e-07
3.59739e-07
3.40352e-07
5.62231e-07
1.00727e-06
1.66151e-06
2.50435e-06
3.52402e-06
4.69864e-06
6.01216e-06
7.44175e-06
8.97008e-06
1.05756e-05
1.22413e-05
1.39474e-05
1.5678e-05
1.74155e-05
1.91451e-05
2.08514e-05
2.25211e-05
2.41409e-05
2.5699e-05
2.71838e-05
2.85852e-05
2.98934e-05
3.10997e-05
3.21959e-05
3.31748e-05
3.40299e-05
3.47554e-05
3.53461e-05
3.57977e-05
3.61064e-05
3.62692e-05
3.62837e-05
3.6148e-05
3.5861e-05
3.54221e-05
3.48313e-05
3.40891e-05
3.31965e-05
3.21551e-05
3.09669e-05
2.96344e-05
2.81605e-05
2.65486e-05
2.48024e-05
2.29261e-05
2.09241e-05
1.88013e-05
1.65626e-05
1.42137e-05
1.17599e-05
9.20739e-06
6.56208e-06
3.83036e-06
1.0186e-06
-1.86653e-06
-4.8184e-06
-7.83011e-06
-1.08948e-05
-1.40056e-05
-1.71554e-05
-2.03372e-05
-2.3544e-05
-2.67688e-05
-3.00047e-05
-3.32446e-05
-3.64818e-05
-3.97093e-05
-4.29206e-05
-4.6109e-05
-4.92681e-05
-5.23914e-05
-5.54727e-05
-5.85059e-05
-6.1485e-05
-6.44044e-05
-6.72582e-05
-7.00411e-05
-7.27479e-05
-7.53732e-05
-7.79124e-05
-8.03605e-05
-8.27133e-05
-8.49662e-05
-8.71153e-05
-8.91565e-05
-9.10864e-05
-9.29015e-05
-9.45985e-05
-9.61745e-05
-9.76269e-05
-9.89532e-05
-0.000100151
-0.000101219
-0.000102155
-0.000102958
-0.000103627
-0.000104162
-0.000104561
-0.000104826
-0.000104956
-0.000104953
-0.000104818
-0.000104552
-0.000104158
-0.000103639
-0.000102998
-0.000102239
-0.000101366
-0.000100386
-9.93036e-05
-9.8126e-05
-9.6861e-05
-9.55172e-05
-9.41041e-05
-9.26323e-05
-9.11136e-05
-8.95608e-05
-8.7988e-05
-8.64106e-05
-8.48452e-05
-8.33099e-05
-8.18241e-05
-8.04084e-05
-7.90846e-05
-7.78755e-05
-7.68046e-05
-7.58948e-05
-7.51685e-05
-7.46483e-05
-7.43618e-05
-7.43272e-05
-7.44552e-05
-3.56675e-07
-4.84429e-07
-4.76623e-07
-2.45936e-07
1.86019e-07
7.97887e-07
1.57145e-06
2.49446e-06
3.5495e-06
4.72238e-06
5.99499e-06
7.35256e-06
8.77748e-06
1.02551e-05
1.1769e-05
1.3305e-05
1.48481e-05
1.63851e-05
1.79025e-05
1.93884e-05
2.08306e-05
2.22185e-05
2.35415e-05
2.47904e-05
2.59559e-05
2.70301e-05
2.80053e-05
2.88748e-05
2.96323e-05
3.02723e-05
3.079e-05
3.11812e-05
3.14421e-05
3.15699e-05
3.15621e-05
3.1417e-05
3.11331e-05
3.07099e-05
3.01472e-05
2.94453e-05
2.86049e-05
2.76275e-05
2.65147e-05
2.52688e-05
2.38922e-05
2.23881e-05
2.07598e-05
1.9011e-05
1.71458e-05
1.51685e-05
1.30838e-05
1.08967e-05
8.61223e-06
6.23593e-06
3.77333e-06
1.23029e-06
-1.38731e-06
-4.07332e-06
-6.82158e-06
-9.62575e-06
-1.24795e-05
-1.53763e-05
-1.83097e-05
-2.12732e-05
-2.42602e-05
-2.72643e-05
-3.02789e-05
-3.32977e-05
-3.63141e-05
-3.93219e-05
-4.23149e-05
-4.52868e-05
-4.82317e-05
-5.11435e-05
-5.40166e-05
-5.68451e-05
-5.96236e-05
-6.23465e-05
-6.50088e-05
-6.76053e-05
-7.01311e-05
-7.25814e-05
-7.49517e-05
-7.72375e-05
-7.94349e-05
-8.15396e-05
-8.3548e-05
-8.54565e-05
-8.72617e-05
-8.89605e-05
-9.055e-05
-9.20275e-05
-9.33906e-05
-9.4637e-05
-9.5765e-05
-9.67728e-05
-9.76592e-05
-9.84229e-05
-9.90633e-05
-9.95799e-05
-9.99725e-05
-0.000100241
-0.000100387
-0.000100411
-0.000100314
-0.000100099
-9.97666e-05
-9.93207e-05
-9.87645e-05
-9.81016e-05
-9.73367e-05
-9.64748e-05
-9.55216e-05
-9.44834e-05
-9.33676e-05
-9.2182e-05
-9.09353e-05
-8.96372e-05
-8.82981e-05
-8.69294e-05
-8.55436e-05
-8.41538e-05
-8.27743e-05
-8.14204e-05
-8.0108e-05
-7.8854e-05
-7.7676e-05
-7.65921e-05
-7.56204e-05
-7.47792e-05
-7.40861e-05
-7.35601e-05
-7.32257e-05
-7.31036e-05
-7.31332e-05
-2.35709e-06
-2.35687e-06
-2.2246e-06
-1.90669e-06
-1.41921e-06
-7.80172e-07
-4.50726e-09
8.96303e-07
1.90796e-06
3.01803e-06
4.2117e-06
5.47624e-06
6.79703e-06
8.16143e-06
9.55542e-06
1.09668e-05
1.23825e-05
1.37909e-05
1.51801e-05
1.65395e-05
1.78581e-05
1.91265e-05
2.03349e-05
2.14749e-05
2.25381e-05
2.35172e-05
2.4405e-05
2.51952e-05
2.58821e-05
2.64605e-05
2.69258e-05
2.7274e-05
2.75016e-05
2.76058e-05
2.75843e-05
2.74352e-05
2.71574e-05
2.67501e-05
2.62129e-05
2.55463e-05
2.47507e-05
2.38275e-05
2.27781e-05
2.16045e-05
2.0309e-05
1.88945e-05
1.73639e-05
1.57207e-05
1.39687e-05
1.2112e-05
1.01547e-05
8.10161e-06
5.95741e-06
3.72721e-06
1.41618e-06
-9.70215e-07
-3.42648e-06
-5.94687e-06
-8.52564e-06
-1.11568e-05
-1.38345e-05
-1.65526e-05
-1.93051e-05
-2.20858e-05
-2.48887e-05
-2.77075e-05
-3.05364e-05
-3.33691e-05
-3.61997e-05
-3.90223e-05
-4.18311e-05
-4.46201e-05
-4.73839e-05
-5.01167e-05
-5.28133e-05
-5.54682e-05
-5.80762e-05
-6.06323e-05
-6.31317e-05
-6.55695e-05
-6.79411e-05
-7.02422e-05
-7.24684e-05
-7.46157e-05
-7.66803e-05
-7.86584e-05
-8.05465e-05
-8.23413e-05
-8.40397e-05
-8.56388e-05
-8.7136e-05
-8.85289e-05
-8.98151e-05
-9.09928e-05
-9.20603e-05
-9.30159e-05
-9.38587e-05
-9.45876e-05
-9.5202e-05
-9.57016e-05
-9.60864e-05
-9.63566e-05
-9.65129e-05
-9.65564e-05
-9.64884e-05
-9.63107e-05
-9.60255e-05
-9.56355e-05
-9.51438e-05
-9.4554e-05
-9.38702e-05
-9.30971e-05
-9.224e-05
-9.13046e-05
-9.02975e-05
-8.92257e-05
-8.8097e-05
-8.69199e-05
-8.57035e-05
-8.44578e-05
-8.31934e-05
-8.19215e-05
-8.06542e-05
-7.94041e-05
-7.81845e-05
-7.70092e-05
-7.58924e-05
-7.48484e-05
-7.3892e-05
-7.30377e-05
-7.22998e-05
-7.16931e-05
-7.12341e-05
-7.09366e-05
-7.07851e-05
-5.22935e-06
-5.03855e-06
-4.71237e-06
-4.2452e-06
-3.64578e-06
-2.92425e-06
-2.09194e-06
-1.1586e-06
-1.35865e-07
9.65911e-07
2.13463e-06
3.35958e-06
4.62861e-06
5.93097e-06
7.25479e-06
8.58954e-06
9.92393e-06
1.12479e-05
1.25509e-05
1.38235e-05
1.50562e-05
1.62402e-05
1.73669e-05
1.84287e-05
1.94179e-05
2.03278e-05
2.11518e-05
2.18843e-05
2.25197e-05
2.30534e-05
2.34809e-05
2.37988e-05
2.40036e-05
2.40927e-05
2.40639e-05
2.39156e-05
2.36464e-05
2.32558e-05
2.27433e-05
2.21093e-05
2.13542e-05
2.04793e-05
1.94858e-05
1.83756e-05
1.71509e-05
1.58143e-05
1.43687e-05
1.28172e-05
1.11634e-05
9.41104e-06
7.56421e-06
5.62723e-06
3.6046e-06
1.50109e-06
-6.78423e-07
-2.9288e-06
-5.24486e-06
-7.6212e-06
-1.00524e-05
-1.25328e-05
-1.50569e-05
-1.7619e-05
-2.02133e-05
-2.2834e-05
-2.54755e-05
-2.81318e-05
-3.07975e-05
-3.34666e-05
-3.61337e-05
-3.8793e-05
-4.14392e-05
-4.40668e-05
-4.66704e-05
-4.92448e-05
-5.17849e-05
-5.42858e-05
-5.67425e-05
-5.91503e-05
-6.15047e-05
-6.38012e-05
-6.60354e-05
-6.82033e-05
-7.0301e-05
-7.23245e-05
-7.42703e-05
-7.61349e-05
-7.79152e-05
-7.9608e-05
-8.12105e-05
-8.272e-05
-8.41341e-05
-8.54505e-05
-8.66673e-05
-8.77825e-05
-8.87947e-05
-8.97025e-05
-9.05049e-05
-9.1201e-05
-9.17903e-05
-9.22725e-05
-9.26476e-05
-9.2916e-05
-9.30782e-05
-9.31353e-05
-9.30885e-05
-9.29395e-05
-9.26903e-05
-9.23433e-05
-9.19014e-05
-9.13678e-05
-9.07463e-05
-9.0041e-05
-8.92565e-05
-8.83981e-05
-8.74713e-05
-8.64824e-05
-8.54382e-05
-8.43458e-05
-8.32133e-05
-8.20488e-05
-8.08615e-05
-7.96607e-05
-7.84563e-05
-7.72587e-05
-7.60786e-05
-7.4927e-05
-7.38153e-05
-7.27547e-05
-7.17567e-05
-7.08325e-05
-6.99934e-05
-6.92496e-05
-6.86072e-05
-6.80706e-05
-6.76824e-05
-8.75577e-06
-8.34005e-06
-7.77925e-06
-7.12222e-06
-6.3699e-06
-5.52367e-06
-4.59147e-06
-3.5812e-06
-2.50238e-06
-1.36329e-06
-1.73837e-07
1.05718e-06
2.31962e-06
3.60445e-06
4.9016e-06
6.20208e-06
7.49613e-06
8.77505e-06
1.00296e-05
1.12515e-05
1.24322e-05
1.3564e-05
1.46392e-05
1.56509e-05
1.65921e-05
1.74568e-05
1.8239e-05
1.89334e-05
1.95352e-05
2.00398e-05
2.04435e-05
2.07427e-05
2.09344e-05
2.10163e-05
2.09862e-05
2.08426e-05
2.05844e-05
2.0211e-05
1.9722e-05
1.91178e-05
1.83988e-05
1.75662e-05
1.66212e-05
1.55657e-05
1.44017e-05
1.31317e-05
1.17583e-05
1.02848e-05
8.7143e-06
7.05059e-06
5.29747e-06
3.45906e-06
1.53964e-06
-4.56226e-07
-2.52392e-06
-4.65854e-06
-6.85518e-06
-9.10867e-06
-1.14139e-05
-1.37654e-05
-1.61581e-05
-1.85864e-05
-2.10449e-05
-2.35281e-05
-2.60307e-05
-2.85471e-05
-3.10719e-05
-3.35996e-05
-3.61252e-05
-3.8643e-05
-4.11482e-05
-4.36353e-05
-4.60996e-05
-4.8536e-05
-5.09397e-05
-5.3306e-05
-5.56304e-05
-5.79084e-05
-6.01357e-05
-6.23081e-05
-6.44216e-05
-6.64724e-05
-6.84567e-05
-7.0371e-05
-7.2212e-05
-7.39764e-05
-7.56612e-05
-7.72636e-05
-7.87809e-05
-8.02107e-05
-8.15507e-05
-8.27987e-05
-8.3953e-05
-8.50119e-05
-8.5974e-05
-8.68379e-05
-8.76029e-05
-8.8268e-05
-8.88328e-05
-8.9297e-05
-8.96606e-05
-8.99239e-05
-9.00875e-05
-9.01521e-05
-9.01189e-05
-8.99894e-05
-8.97654e-05
-8.9449e-05
-8.90426e-05
-8.85492e-05
-8.79719e-05
-8.73144e-05
-8.65806e-05
-8.5775e-05
-8.49025e-05
-8.39683e-05
-8.29781e-05
-8.1938e-05
-8.08546e-05
-7.97348e-05
-7.85861e-05
-7.74159e-05
-7.62325e-05
-7.50441e-05
-7.38592e-05
-7.26864e-05
-7.15346e-05
-7.04123e-05
-6.93282e-05
-6.82908e-05
-6.73088e-05
-6.63882e-05
-6.55241e-05
-6.47122e-05
-6.40587e-05
-1.27525e-05
-1.20951e-05
-1.12777e-05
-1.04048e-05
-9.47123e-06
-8.46966e-06
-7.40495e-06
-6.28347e-06
-5.113e-06
-3.90004e-06
-2.65274e-06
-1.3782e-06
-8.49571e-08
1.2195e-06
2.52656e-06
3.82861e-06
5.1172e-06
6.38483e-06
7.62335e-06
8.82559e-06
9.9839e-06
1.10916e-05
1.21415e-05
1.31277e-05
1.40438e-05
1.48844e-05
1.5644e-05
1.63179e-05
1.69015e-05
1.7391e-05
1.77827e-05
1.80735e-05
1.82606e-05
1.83419e-05
1.83155e-05
1.818e-05
1.79344e-05
1.75782e-05
1.71113e-05
1.65339e-05
1.58466e-05
1.50504e-05
1.41468e-05
1.31375e-05
1.20244e-05
1.081e-05
9.49701e-06
8.08834e-06
6.58723e-06
4.99723e-06
3.32202e-06
1.56561e-06
-2.6789e-07
-2.17408e-06
-4.14851e-06
-6.18647e-06
-8.28322e-06
-1.04338e-05
-1.26333e-05
-1.48766e-05
-1.71587e-05
-1.94742e-05
-2.1818e-05
-2.4185e-05
-2.65698e-05
-2.89673e-05
-3.13723e-05
-3.37797e-05
-3.61844e-05
-3.85813e-05
-4.09656e-05
-4.33324e-05
-4.5677e-05
-4.79945e-05
-5.02807e-05
-5.25308e-05
-5.47408e-05
-5.69063e-05
-5.90234e-05
-6.1088e-05
-6.30966e-05
-6.50453e-05
-6.69307e-05
-6.87496e-05
-7.04988e-05
-7.21753e-05
-7.37763e-05
-7.52991e-05
-7.67412e-05
-7.81004e-05
-7.93746e-05
-8.05618e-05
-8.16603e-05
-8.26685e-05
-8.35851e-05
-8.44089e-05
-8.5139e-05
-8.57746e-05
-8.63154e-05
-8.67608e-05
-8.71111e-05
-8.73662e-05
-8.75266e-05
-8.7593e-05
-8.75664e-05
-8.7448e-05
-8.72392e-05
-8.69419e-05
-8.65581e-05
-8.60903e-05
-8.5541e-05
-8.49135e-05
-8.42109e-05
-8.34371e-05
-8.25959e-05
-8.16919e-05
-8.07295e-05
-7.9714e-05
-7.86505e-05
-7.75446e-05
-7.64024e-05
-7.52298e-05
-7.40333e-05
-7.28193e-05
-7.15943e-05
-7.03652e-05
-6.91383e-05
-6.79201e-05
-6.67169e-05
-6.5535e-05
-6.43811e-05
-6.32574e-05
-6.21493e-05
-6.10444e-05
-6.01139e-05
-1.70699e-05
-1.61643e-05
-1.50789e-05
-1.39755e-05
-1.28421e-05
-1.16636e-05
-1.04423e-05
-9.18361e-06
-7.89387e-06
-6.57817e-06
-5.24322e-06
-3.89479e-06
-2.54007e-06
-1.18527e-06
1.62187e-07
1.49588e-06
2.80843e-06
4.09338e-06
5.34357e-06
6.55272e-06
7.71402e-06
8.82155e-06
9.869e-06
1.08509e-05
1.17617e-05
1.25963e-05
1.33499e-05
1.40183e-05
1.45974e-05
1.50835e-05
1.54734e-05
1.57644e-05
1.59539e-05
1.60401e-05
1.60212e-05
1.58962e-05
1.56641e-05
1.53247e-05
1.48778e-05
1.43238e-05
1.36635e-05
1.28979e-05
1.20284e-05
1.10568e-05
9.98514e-06
8.81585e-06
7.55154e-06
6.19519e-06
4.74996e-06
3.21934e-06
1.60695e-06
-8.3288e-08
-1.84736e-06
-3.68096e-06
-5.57977e-06
-7.53918e-06
-9.55462e-06
-1.16213e-05
-1.37343e-05
-1.58889e-05
-1.808e-05
-2.03026e-05
-2.25518e-05
-2.48225e-05
-2.71096e-05
-2.94082e-05
-3.17134e-05
-3.40201e-05
-3.63236e-05
-3.86191e-05
-4.09017e-05
-4.3167e-05
-4.54104e-05
-4.76273e-05
-4.98137e-05
-5.19651e-05
-5.40775e-05
-5.6147e-05
-5.81698e-05
-6.01421e-05
-6.20604e-05
-6.39213e-05
-6.57216e-05
-6.7458e-05
-6.91278e-05
-7.0728e-05
-7.2256e-05
-7.37094e-05
-7.50858e-05
-7.63831e-05
-7.75994e-05
-7.87327e-05
-7.97814e-05
-8.07442e-05
-8.16196e-05
-8.24067e-05
-8.31044e-05
-8.3712e-05
-8.42291e-05
-8.46552e-05
-8.49903e-05
-8.52343e-05
-8.53877e-05
-8.54507e-05
-8.54242e-05
-8.53092e-05
-8.51067e-05
-8.48183e-05
-8.44455e-05
-8.39904e-05
-8.3455e-05
-8.28418e-05
-8.21535e-05
-8.13931e-05
-8.05637e-05
-7.96689e-05
-7.87123e-05
-7.76979e-05
-7.66298e-05
-7.55126e-05
-7.43507e-05
-7.31489e-05
-7.1912e-05
-7.06449e-05
-6.93526e-05
-6.80399e-05
-6.67117e-05
-6.53725e-05
-6.40266e-05
-6.26786e-05
-6.13338e-05
-5.99913e-05
-5.86275e-05
-5.7223e-05
-5.60133e-05
-2.15896e-05
-2.0435e-05
-1.90779e-05
-1.77354e-05
-1.63899e-05
-1.50193e-05
-1.36239e-05
-1.22083e-05
-1.07778e-05
-9.33664e-06
-7.89022e-06
-6.44331e-06
-5.00203e-06
-3.57161e-06
-2.15845e-06
-7.68029e-07
5.93163e-07
1.91956e-06
3.2048e-06
4.4434e-06
5.62926e-06
6.75717e-06
7.82144e-06
8.81723e-06
9.73941e-06
1.05836e-05
1.13455e-05
1.20211e-05
1.26067e-05
1.30994e-05
1.3496e-05
1.37941e-05
1.39916e-05
1.40868e-05
1.40782e-05
1.39649e-05
1.37464e-05
1.34223e-05
1.29927e-05
1.24583e-05
1.18198e-05
1.10784e-05
1.02356e-05
9.29332e-06
8.25355e-06
7.11881e-06
5.89175e-06
4.57538e-06
3.17287e-06
1.68769e-06
1.23464e-07
-1.51592e-06
-3.22648e-06
-5.00398e-06
-6.84414e-06
-8.74243e-06
-1.06944e-05
-1.26952e-05
-1.47403e-05
-1.68247e-05
-1.89438e-05
-2.10925e-05
-2.32661e-05
-2.54596e-05
-2.76682e-05
-2.9887e-05
-3.21113e-05
-3.43362e-05
-3.65573e-05
-3.87696e-05
-4.09689e-05
-4.31506e-05
-4.53105e-05
-4.74441e-05
-4.95476e-05
-5.16168e-05
-5.36478e-05
-5.56369e-05
-5.75806e-05
-5.94751e-05
-6.13173e-05
-6.31039e-05
-6.48319e-05
-6.64982e-05
-6.81002e-05
-6.96351e-05
-7.11006e-05
-7.24942e-05
-7.38139e-05
-7.50575e-05
-7.62232e-05
-7.73092e-05
-7.83141e-05
-7.92364e-05
-8.00749e-05
-8.08284e-05
-8.14961e-05
-8.20772e-05
-8.25711e-05
-8.29774e-05
-8.32958e-05
-8.35263e-05
-8.3669e-05
-8.3724e-05
-8.36921e-05
-8.35737e-05
-8.33697e-05
-8.30812e-05
-8.27094e-05
-8.22557e-05
-8.17219e-05
-8.11097e-05
-8.04211e-05
-7.96585e-05
-7.88243e-05
-7.79211e-05
-7.69518e-05
-7.59192e-05
-7.48267e-05
-7.36774e-05
-7.24748e-05
-7.12224e-05
-6.99237e-05
-6.85822e-05
-6.72015e-05
-6.57851e-05
-6.43362e-05
-6.28578e-05
-6.13528e-05
-5.98245e-05
-5.8277e-05
-5.67071e-05
-5.5083e-05
-5.3379e-05
-5.18932e-05
-2.62176e-05
-2.48164e-05
-2.31872e-05
-2.16012e-05
-2.0036e-05
-1.84628e-05
-1.68803e-05
-1.52927e-05
-1.3705e-05
-1.21203e-05
-1.05433e-05
-8.97794e-06
-7.42961e-06
-5.90271e-06
-4.40288e-06
-2.93484e-06
-1.50435e-06
-1.1627e-07
1.22371e-06
2.51075e-06
3.73939e-06
4.90497e-06
6.00238e-06
7.02729e-06
7.97508e-06
8.84186e-06
9.6236e-06
1.03169e-05
1.09185e-05
1.14256e-05
1.18355e-05
1.21461e-05
1.23556e-05
1.24625e-05
1.24657e-05
1.23644e-05
1.21583e-05
1.18473e-05
1.14317e-05
1.09122e-05
1.02898e-05
9.56585e-06
8.74194e-06
7.82005e-06
6.8024e-06
5.69154e-06
4.49021e-06
3.20149e-06
1.8286e-06
3.75084e-07
-1.15542e-06
-2.759e-06
-4.43165e-06
-6.16913e-06
-7.96718e-06
-9.82129e-06
-1.1727e-05
-1.36796e-05
-1.56745e-05
-1.77069e-05
-1.97721e-05
-2.18653e-05
-2.39816e-05
-2.61164e-05
-2.82648e-05
-3.04222e-05
-3.25838e-05
-3.47451e-05
-3.69015e-05
-3.90486e-05
-4.11819e-05
-4.32973e-05
-4.53905e-05
-4.74575e-05
-4.94942e-05
-5.1497e-05
-5.3462e-05
-5.53857e-05
-5.72646e-05
-5.90954e-05
-6.0875e-05
-6.26002e-05
-6.42682e-05
-6.58762e-05
-6.74215e-05
-6.89018e-05
-7.03145e-05
-7.16576e-05
-7.2929e-05
-7.41267e-05
-7.5249e-05
-7.62941e-05
-7.72608e-05
-7.81474e-05
-7.89529e-05
-7.96761e-05
-8.03162e-05
-8.08722e-05
-8.13436e-05
-8.17298e-05
-8.20306e-05
-8.22455e-05
-8.23746e-05
-8.24178e-05
-8.23755e-05
-8.2248e-05
-8.20358e-05
-8.17396e-05
-8.13601e-05
-8.08984e-05
-8.03557e-05
-7.9733e-05
-7.9032e-05
-7.82542e-05
-7.74014e-05
-7.64753e-05
-7.5478e-05
-7.44116e-05
-7.32784e-05
-7.20806e-05
-7.08206e-05
-6.95008e-05
-6.81236e-05
-6.66915e-05
-6.52067e-05
-6.36715e-05
-6.20881e-05
-6.0458e-05
-5.87831e-05
-5.70655e-05
-5.53087e-05
-5.35076e-05
-5.16228e-05
-4.9623e-05
-4.78668e-05
-3.08804e-05
-2.92359e-05
-2.73359e-05
-2.55044e-05
-2.37142e-05
-2.19307e-05
-2.01514e-05
-1.83804e-05
-1.66222e-05
-1.48795e-05
-1.31565e-05
-1.14565e-05
-9.78422e-06
-8.14363e-06
-6.53971e-06
-4.97665e-06
-3.45961e-06
-1.99292e-06
-5.81711e-07
7.69697e-07
2.05634e-06
3.27406e-06
4.41821e-06
5.48492e-06
6.46999e-06
7.36996e-06
8.18117e-06
8.90065e-06
9.5254e-06
1.0053e-05
1.04811e-05
1.0808e-05
1.10319e-05
1.11519e-05
1.1167e-05
1.10767e-05
1.08808e-05
1.05796e-05
1.01736e-05
9.66361e-06
9.05087e-06
8.3369e-06
7.52346e-06
6.61272e-06
5.607e-06
4.50902e-06
3.32163e-06
2.04805e-06
6.91596e-07
-7.44098e-07
-2.25531e-06
-3.83805e-06
-5.48826e-06
-7.20164e-06
-8.97389e-06
-1.08005e-05
-1.2677e-05
-1.45986e-05
-1.65608e-05
-1.85587e-05
-2.05878e-05
-2.26432e-05
-2.47202e-05
-2.68141e-05
-2.89202e-05
-3.10339e-05
-3.31505e-05
-3.52656e-05
-3.73748e-05
-3.94737e-05
-4.1558e-05
-4.36236e-05
-4.56665e-05
-4.76827e-05
-4.96684e-05
-5.16199e-05
-5.35337e-05
-5.54063e-05
-5.72344e-05
-5.90149e-05
-6.07447e-05
-6.24209e-05
-6.40409e-05
-6.56017e-05
-6.71012e-05
-6.85368e-05
-6.99064e-05
-7.12078e-05
-7.24391e-05
-7.35985e-05
-7.46842e-05
-7.56946e-05
-7.66284e-05
-7.74841e-05
-7.82606e-05
-7.89567e-05
-7.95716e-05
-8.01043e-05
-8.05541e-05
-8.09204e-05
-8.12026e-05
-8.14005e-05
-8.15136e-05
-8.15419e-05
-8.14853e-05
-8.13439e-05
-8.11179e-05
-8.08075e-05
-8.04132e-05
-7.99355e-05
-7.9375e-05
-7.87326e-05
-7.8009e-05
-7.72053e-05
-7.63225e-05
-7.53617e-05
-7.43243e-05
-7.32114e-05
-7.20247e-05
-7.07653e-05
-6.94349e-05
-6.80348e-05
-6.65666e-05
-6.50316e-05
-6.34312e-05
-6.17666e-05
-6.00388e-05
-5.82487e-05
-5.63968e-05
-5.44848e-05
-5.25157e-05
-5.04825e-05
-4.83392e-05
-4.60491e-05
-4.40291e-05
-3.55199e-05
-3.36352e-05
-3.1466e-05
-2.93878e-05
-2.7369e-05
-2.53694e-05
-2.33856e-05
-2.14219e-05
-1.94826e-05
-1.75701e-05
-1.56883e-05
-1.38402e-05
-1.203e-05
-1.02614e-05
-8.53888e-06
-6.86626e-06
-5.24826e-06
-3.68881e-06
-2.19261e-06
-7.63597e-07
5.93703e-07
1.87551e-06
3.07758e-06
4.19642e-06
5.2282e-06
6.16981e-06
7.01796e-06
7.77002e-06
8.4233e-06
8.97572e-06
9.42524e-06
9.77041e-06
1.00099e-05
1.01428e-05
1.01685e-05
1.00869e-05
9.89793e-06
9.60217e-06
9.20031e-06
8.6935e-06
8.0831e-06
7.37088e-06
6.55882e-06
5.64926e-06
4.64474e-06
3.54814e-06
2.3625e-06
1.09118e-06
-2.62342e-07
-1.69429e-06
-3.20083e-06
-4.77782e-06
-6.42112e-06
-8.12634e-06
-9.88908e-06
-1.17048e-05
-1.35688e-05
-1.54765e-05
-1.74232e-05
-1.94042e-05
-2.14146e-05
-2.34498e-05
-2.5505e-05
-2.75755e-05
-2.96567e-05
-3.1744e-05
-3.38329e-05
-3.5919e-05
-3.79978e-05
-4.00651e-05
-4.21168e-05
-4.41487e-05
-4.61571e-05
-4.81379e-05
-5.00877e-05
-5.20027e-05
-5.38795e-05
-5.57149e-05
-5.75057e-05
-5.92488e-05
-6.09414e-05
-6.25806e-05
-6.41638e-05
-6.56886e-05
-6.71524e-05
-6.85532e-05
-6.98887e-05
-7.1157e-05
-7.23562e-05
-7.34845e-05
-7.45403e-05
-7.5522e-05
-7.64283e-05
-7.72578e-05
-7.80093e-05
-7.86816e-05
-7.92739e-05
-7.9785e-05
-8.02144e-05
-8.05611e-05
-8.08247e-05
-8.10044e-05
-8.10999e-05
-8.11107e-05
-8.10367e-05
-8.08775e-05
-8.06331e-05
-8.03033e-05
-7.98883e-05
-7.93881e-05
-7.88029e-05
-7.8133e-05
-7.73787e-05
-7.65403e-05
-7.56185e-05
-7.46136e-05
-7.35263e-05
-7.23571e-05
-7.11068e-05
-6.97759e-05
-6.83651e-05
-6.68751e-05
-6.53064e-05
-6.36597e-05
-6.19354e-05
-6.01339e-05
-5.82553e-05
-5.62997e-05
-5.42669e-05
-5.21579e-05
-4.99756e-05
-4.77116e-05
-4.53131e-05
-4.27388e-05
-4.04619e-05
-4.00906e-05
-3.79679e-05
-3.55306e-05
-3.32043e-05
-3.09536e-05
-2.8733e-05
-2.65382e-05
-2.43739e-05
-2.22445e-05
-2.01524e-05
-1.81011e-05
-1.60935e-05
-1.41336e-05
-1.22249e-05
-1.03716e-05
-8.5772e-06
-6.84617e-06
-5.18217e-06
-3.58956e-06
-2.07198e-06
-6.33642e-07
7.21973e-07
1.99097e-06
3.17013e-06
4.25598e-06
5.2457e-06
6.13632e-06
6.92549e-06
7.61086e-06
8.19063e-06
8.66308e-06
9.02701e-06
9.28139e-06
9.42565e-06
9.45944e-06
9.38287e-06
9.19624e-06
8.90034e-06
8.49614e-06
7.98505e-06
7.36869e-06
6.64908e-06
5.82842e-06
4.90933e-06
3.89454e-06
2.78718e-06
1.59047e-06
3.08012e-07
-1.05655e-06
-2.49925e-06
-4.01607e-06
-5.60272e-06
-7.2549e-06
-8.96808e-06
-1.07378e-05
-1.25592e-05
-1.44278e-05
-1.63386e-05
-1.82871e-05
-2.02683e-05
-2.22774e-05
-2.43097e-05
-2.63605e-05
-2.8425e-05
-3.04985e-05
-3.25766e-05
-3.46547e-05
-3.67284e-05
-3.87934e-05
-4.08454e-05
-4.28805e-05
-4.48945e-05
-4.68837e-05
-4.88443e-05
-5.07728e-05
-5.26656e-05
-5.45195e-05
-5.63312e-05
-5.80977e-05
-5.9816e-05
-6.14834e-05
-6.30971e-05
-6.46548e-05
-6.61539e-05
-6.75922e-05
-6.89675e-05
-7.02779e-05
-7.15214e-05
-7.26962e-05
-7.38006e-05
-7.4833e-05
-7.57919e-05
-7.66759e-05
-7.74838e-05
-7.82142e-05
-7.88662e-05
-7.94385e-05
-7.99303e-05
-8.03406e-05
-8.06686e-05
-8.09135e-05
-8.10746e-05
-8.11513e-05
-8.1143e-05
-8.10491e-05
-8.08692e-05
-8.06028e-05
-8.02495e-05
-7.98091e-05
-7.92812e-05
-7.86656e-05
-7.79621e-05
-7.71706e-05
-7.62909e-05
-7.53229e-05
-7.42666e-05
-7.31219e-05
-7.18888e-05
-7.05672e-05
-6.91572e-05
-6.76587e-05
-6.60716e-05
-6.43958e-05
-6.2631e-05
-6.07771e-05
-5.88337e-05
-5.68002e-05
-5.4676e-05
-5.24602e-05
-5.01536e-05
-4.77586e-05
-4.52659e-05
-4.26164e-05
-3.97641e-05
-3.72367e-05
-4.45564e-05
-4.21966e-05
-3.94909e-05
-3.69146e-05
-3.44285e-05
-3.1982e-05
-2.95701e-05
-2.71983e-05
-2.48708e-05
-2.25903e-05
-2.03602e-05
-1.81833e-05
-1.60637e-05
-1.40046e-05
-1.20101e-05
-1.00837e-05
-8.22948e-06
-6.45111e-06
-4.75265e-06
-3.13757e-06
-1.6098e-06
-1.72629e-07
1.17032e-06
2.41608e-06
3.56144e-06
4.60384e-06
5.5406e-06
6.36964e-06
7.0889e-06
7.69684e-06
8.19205e-06
8.57361e-06
8.84078e-06
8.99329e-06
9.03107e-06
8.95453e-06
8.76428e-06
8.46138e-06
8.0471e-06
7.52314e-06
6.8914e-06
6.15419e-06
5.314e-06
4.37371e-06
3.33632e-06
2.20522e-06
9.83906e-07
-3.23806e-07
-1.71402e-06
-3.18254e-06
-4.72513e-06
-6.3373e-06
-8.01457e-06
-9.75221e-06
-1.15455e-05
-1.33897e-05
-1.52799e-05
-1.72112e-05
-1.91787e-05
-2.11775e-05
-2.32028e-05
-2.52496e-05
-2.73132e-05
-2.93889e-05
-3.14719e-05
-3.35577e-05
-3.56417e-05
-3.77196e-05
-3.97871e-05
-4.18399e-05
-4.38741e-05
-4.58857e-05
-4.7871e-05
-4.98261e-05
-5.17477e-05
-5.36323e-05
-5.54768e-05
-5.72779e-05
-5.90328e-05
-6.07385e-05
-6.23925e-05
-6.39921e-05
-6.55349e-05
-6.70186e-05
-6.84411e-05
-6.98002e-05
-7.10941e-05
-7.23209e-05
-7.34788e-05
-7.45662e-05
-7.55816e-05
-7.65234e-05
-7.73905e-05
-7.81813e-05
-7.88948e-05
-7.95298e-05
-8.00851e-05
-8.05597e-05
-8.09527e-05
-8.1263e-05
-8.14899e-05
-8.16323e-05
-8.16896e-05
-8.1661e-05
-8.15456e-05
-8.13427e-05
-8.10517e-05
-8.06719e-05
-8.02025e-05
-7.9643e-05
-7.89926e-05
-7.82509e-05
-7.74172e-05
-7.64908e-05
-7.54713e-05
-7.4358e-05
-7.31502e-05
-7.18475e-05
-7.04492e-05
-6.89545e-05
-6.7363e-05
-6.56737e-05
-6.3886e-05
-6.1999e-05
-6.00118e-05
-5.79234e-05
-5.57327e-05
-5.34384e-05
-5.10391e-05
-4.85352e-05
-4.59292e-05
-4.32105e-05
-4.03141e-05
-3.71896e-05
-3.44176e-05
-4.88884e-05
-4.62905e-05
-4.33145e-05
-4.04852e-05
-3.77595e-05
-3.5082e-05
-3.24471e-05
-2.98608e-05
-2.73279e-05
-2.4851e-05
-2.24336e-05
-2.00788e-05
-1.77905e-05
-1.55721e-05
-1.34275e-05
-1.13603e-05
-9.37446e-06
-7.47356e-06
-5.66152e-06
-3.94173e-06
-2.31792e-06
-7.93244e-07
6.28905e-07
1.94571e-06
3.15424e-06
4.25211e-06
5.23692e-06
6.10683e-06
6.86003e-06
7.49527e-06
8.01141e-06
8.40782e-06
8.68405e-06
8.84015e-06
8.87633e-06
8.79333e-06
8.59207e-06
8.27392e-06
7.84048e-06
7.29377e-06
6.636e-06
5.86982e-06
4.99802e-06
4.02379e-06
2.95045e-06
1.78169e-06
5.21301e-07
-8.26615e-07
-2.25788e-06
-3.76803e-06
-5.35257e-06
-7.00676e-06
-8.72588e-06
-1.0505e-05
-1.23392e-05
-1.42234e-05
-1.61527e-05
-1.81219e-05
-2.01261e-05
-2.21601e-05
-2.42191e-05
-2.62979e-05
-2.83918e-05
-3.04959e-05
-3.26055e-05
-3.47159e-05
-3.68226e-05
-3.89212e-05
-4.10073e-05
-4.30769e-05
-4.51258e-05
-4.71502e-05
-4.91463e-05
-5.11105e-05
-5.30394e-05
-5.49295e-05
-5.67779e-05
-5.85813e-05
-6.03369e-05
-6.20421e-05
-6.36941e-05
-6.52905e-05
-6.6829e-05
-6.83073e-05
-6.97234e-05
-7.10753e-05
-7.23611e-05
-7.3579e-05
-7.47274e-05
-7.58046e-05
-7.68092e-05
-7.77398e-05
-7.8595e-05
-7.93734e-05
-8.0074e-05
-8.06955e-05
-8.12368e-05
-8.16967e-05
-8.20742e-05
-8.23683e-05
-8.2578e-05
-8.27022e-05
-8.274e-05
-8.26904e-05
-8.25526e-05
-8.23253e-05
-8.20079e-05
-8.15992e-05
-8.10983e-05
-8.05042e-05
-7.98159e-05
-7.90325e-05
-7.81529e-05
-7.71761e-05
-7.6101e-05
-7.49266e-05
-7.36518e-05
-7.22754e-05
-7.07963e-05
-6.92132e-05
-6.7525e-05
-6.57302e-05
-6.38276e-05
-6.18157e-05
-5.96931e-05
-5.74581e-05
-5.51092e-05
-5.26444e-05
-5.0062e-05
-4.7362e-05
-4.4547e-05
-4.16053e-05
-3.84661e-05
-3.50746e-05
-3.20631e-05
-5.30623e-05
-5.02236e-05
-4.69737e-05
-4.38869e-05
-4.09164e-05
-3.8002e-05
-3.51377e-05
-3.23301e-05
-2.95843e-05
-2.69034e-05
-2.4291e-05
-2.17503e-05
-1.92853e-05
-1.68997e-05
-1.45973e-05
-1.23818e-05
-1.02572e-05
-8.22705e-06
-6.29523e-06
-4.4651e-06
-2.74024e-06
-1.12376e-06
3.81149e-07
1.77178e-06
3.04541e-06
4.19982e-06
5.23287e-06
6.1429e-06
6.92839e-06
7.58834e-06
8.12188e-06
8.52869e-06
8.8086e-06
8.96198e-06
8.98938e-06
8.89185e-06
8.67065e-06
8.32752e-06
7.86439e-06
7.28363e-06
6.58783e-06
5.77997e-06
4.86321e-06
3.84109e-06
2.71728e-06
1.49582e-06
1.80824e-07
-1.22325e-06
-2.71192e-06
-4.2804e-06
-5.9239e-06
-7.63737e-06
-9.41583e-06
-1.12541e-05
-1.31469e-05
-1.50891e-05
-1.70755e-05
-1.91007e-05
-2.11595e-05
-2.32467e-05
-2.53571e-05
-2.74857e-05
-2.96275e-05
-3.17774e-05
-3.39307e-05
-3.60827e-05
-3.82288e-05
-4.03645e-05
-4.24855e-05
-4.45875e-05
-4.66666e-05
-4.87189e-05
-5.07407e-05
-5.27282e-05
-5.46783e-05
-5.65874e-05
-5.84527e-05
-6.0271e-05
-6.20396e-05
-6.37558e-05
-6.54171e-05
-6.7021e-05
-6.85654e-05
-7.0048e-05
-7.1467e-05
-7.28203e-05
-7.41061e-05
-7.53229e-05
-7.64689e-05
-7.75426e-05
-7.85426e-05
-7.94674e-05
-8.03158e-05
-8.10865e-05
-8.17783e-05
-8.23898e-05
-8.29201e-05
-8.33679e-05
-8.37322e-05
-8.40116e-05
-8.42054e-05
-8.43121e-05
-8.43308e-05
-8.42603e-05
-8.40994e-05
-8.3847e-05
-8.3502e-05
-8.3063e-05
-8.25288e-05
-8.18981e-05
-8.11697e-05
-8.03422e-05
-7.94142e-05
-7.83842e-05
-7.72509e-05
-7.60127e-05
-7.46679e-05
-7.32152e-05
-7.16527e-05
-6.99787e-05
-6.81915e-05
-6.62893e-05
-6.42701e-05
-6.2132e-05
-5.98729e-05
-5.74908e-05
-5.49836e-05
-5.23488e-05
-4.95843e-05
-4.669e-05
-4.36683e-05
-4.05066e-05
-3.71283e-05
-3.34745e-05
-3.0228e-05
-5.70571e-05
-5.39731e-05
-5.04434e-05
-4.70931e-05
-4.38715e-05
-4.07135e-05
-3.76126e-05
-3.45764e-05
-3.16104e-05
-2.87179e-05
-2.59028e-05
-2.31688e-05
-2.05199e-05
-1.79599e-05
-1.54929e-05
-1.31227e-05
-1.08534e-05
-8.68855e-06
-6.63209e-06
-4.6874e-06
-2.85799e-06
-1.14693e-06
4.42691e-07
1.90828e-06
3.24726e-06
4.4576e-06
5.53733e-06
6.48502e-06
7.2994e-06
7.97971e-06
8.52539e-06
8.93638e-06
9.21285e-06
9.3555e-06
9.36522e-06
9.24341e-06
8.99172e-06
8.61223e-06
8.10729e-06
7.47965e-06
6.73228e-06
5.86857e-06
4.89207e-06
3.80673e-06
2.61661e-06
1.32613e-06
-6.01965e-08
-1.53755e-06
-3.10108e-06
-4.74562e-06
-6.46606e-06
-8.25701e-06
-1.01132e-05
-1.2029e-05
-1.39991e-05
-1.60178e-05
-1.80798e-05
-2.01795e-05
-2.23114e-05
-2.44701e-05
-2.66503e-05
-2.88466e-05
-3.10541e-05
-3.32675e-05
-3.5482e-05
-3.76926e-05
-3.98949e-05
-4.20841e-05
-4.42561e-05
-4.64064e-05
-4.85311e-05
-5.06263e-05
-5.26882e-05
-5.47133e-05
-5.66983e-05
-5.86398e-05
-6.05348e-05
-6.23803e-05
-6.41738e-05
-6.59124e-05
-6.75939e-05
-6.92158e-05
-7.0776e-05
-7.22724e-05
-7.37031e-05
-7.50663e-05
-7.63602e-05
-7.75832e-05
-7.87338e-05
-7.98104e-05
-8.08117e-05
-8.17363e-05
-8.2583e-05
-8.33504e-05
-8.40374e-05
-8.46427e-05
-8.51651e-05
-8.56035e-05
-8.59567e-05
-8.62234e-05
-8.64026e-05
-8.64929e-05
-8.64932e-05
-8.64021e-05
-8.62184e-05
-8.59406e-05
-8.55673e-05
-8.50972e-05
-8.45288e-05
-8.38604e-05
-8.30904e-05
-8.22173e-05
-8.12392e-05
-8.01544e-05
-7.89611e-05
-7.76573e-05
-7.6241e-05
-7.47102e-05
-7.30629e-05
-7.12966e-05
-6.94094e-05
-6.73987e-05
-6.52622e-05
-6.29974e-05
-6.06019e-05
-5.8073e-05
-5.54082e-05
-5.26045e-05
-4.96596e-05
-4.65728e-05
-4.33469e-05
-3.99681e-05
-3.63543e-05
-3.24424e-05
-2.89648e-05
-6.08536e-05
-5.75175e-05
-5.37003e-05
-5.00787e-05
-4.65983e-05
-4.31888e-05
-3.98436e-05
-3.65709e-05
-3.33768e-05
-3.02652e-05
-2.72401e-05
-2.43054e-05
-2.14656e-05
-1.87248e-05
-1.60872e-05
-1.35568e-05
-1.11378e-05
-8.83404e-06
-6.64934e-06
-4.58722e-06
-2.65118e-06
-8.44296e-07
8.3044e-07
2.37048e-06
3.77342e-06
5.03732e-06
6.16044e-06
7.14154e-06
7.9796e-06
8.6741e-06