/*--------------------------------*- C++ -*----------------------------------*\
  =========                 |
  \\      /  F ield         | OpenFOAM: The Open Source CFD Toolbox
   \\    /   O peration     | Website:  https://openfoam.org
    \\  /    A nd           | Version:  12
     \\/     M anipulation  |
\*---------------------------------------------------------------------------*/
FoamFile
{
    format      ascii;
    class       volScalarField;
    location    "6.5";
    object      nut;
}
// * * * * * * * * * * * * * * * * * * * * * * * * * * * * * * * * * * * * * //

dimensions      [0 2 -1 0 0 0 0];

internalField   nonuniform List<scalar> 
5625
(
4.44089e-21
4.44089e-21
4.44089e-21
4.44089e-21
4.44089e-21
4.44089e-21
4.44089e-21
4.44089e-21
4.44089e-21
4.44089e-21
4.44089e-21
4.44089e-21
4.44089e-21
4.44089e-21
4.44089e-21
4.44089e-21
4.44089e-21
4.44089e-21
4.44089e-21
4.44089e-21
4.44089e-21
4.44089e-21
4.44089e-21
4.44089e-21
4.44089e-21
4.44089e-21
4.44089e-21
4.44089e-21
4.44089e-21
4.44089e-21
4.44089e-21
4.44089e-21
4.44089e-21
4.44089e-21
4.44089e-21
4.44089e-21
4.44089e-21
4.44089e-21
4.44089e-21
4.44089e-21
4.44089e-21
4.44089e-21
4.44089e-21
4.44089e-21
4.44089e-21
4.44089e-21
4.44089e-21
4.44089e-21
4.44089e-21
4.44089e-21
4.44089e-21
4.44089e-21
4.44089e-21
4.44089e-21
4.44089e-21
4.44089e-21
4.44089e-21
4.44089e-21
4.44089e-21
4.44089e-21
4.44089e-21
4.44089e-21
4.44089e-21
4.44089e-21
4.44089e-21
4.44089e-21
4.44089e-21
4.44089e-21
4.44089e-21
4.44089e-21
4.44089e-21
4.44089e-21
4.44089e-21
4.44089e-21
4.44089e-21
4.44089e-21
1.53754e-20
2.03398e-20
2.12076e-20
2.13498e-20
2.13782e-20
2.13851e-20
2.1387e-20
2.13874e-20
2.13874e-20
2.13872e-20
2.1387e-20
2.13868e-20
2.13866e-20
2.13864e-20
2.13863e-20
2.13862e-20
2.13861e-20
2.13861e-20
2.13861e-20
2.13861e-20
2.13862e-20
2.13863e-20
2.13864e-20
2.13865e-20
2.13867e-20
2.13869e-20
2.13871e-20
2.13873e-20
2.13876e-20
2.13879e-20
2.13882e-20
2.13885e-20
2.13889e-20
2.13893e-20
2.13897e-20
2.13901e-20
2.13905e-20
2.13908e-20
2.13911e-20
2.13913e-20
2.13915e-20
2.13918e-20
2.1392e-20
2.13922e-20
2.13924e-20
2.13926e-20
2.13928e-20
2.1393e-20
2.13931e-20
2.13932e-20
2.13933e-20
2.13934e-20
2.13934e-20
2.13934e-20
2.13933e-20
2.13933e-20
2.13932e-20
2.13931e-20
2.13929e-20
2.13927e-20
2.13925e-20
2.13923e-20
2.1392e-20
2.13917e-20
2.13912e-20
2.13906e-20
2.13895e-20
2.13869e-20
2.13791e-20
2.13498e-20
2.12069e-20
2.03392e-20
1.53754e-20
4.44089e-21
4.44089e-21
2.03396e-20
4.13776e-20
5.23805e-20
5.59095e-20
5.69433e-20
5.72667e-20
5.73781e-20
5.74197e-20
5.7436e-20
5.74422e-20
5.74442e-20
5.74444e-20
5.74439e-20
5.74432e-20
5.74425e-20
5.74419e-20
5.74416e-20
5.74414e-20
5.74414e-20
5.74417e-20
5.74422e-20
5.7443e-20
5.74439e-20
5.74452e-20
5.74466e-20
5.74483e-20
5.74502e-20
5.74523e-20
5.74547e-20
5.74573e-20
5.74602e-20
5.74632e-20
5.74665e-20
5.74699e-20
5.74736e-20
5.74773e-20
5.74811e-20
5.74845e-20
5.74877e-20
5.74909e-20
5.74941e-20
5.74973e-20
5.75004e-20
5.75033e-20
5.75062e-20
5.75088e-20
5.75112e-20
5.75133e-20
5.75151e-20
5.75166e-20
5.75178e-20
5.75186e-20
5.75189e-20
5.75189e-20
5.75184e-20
5.75175e-20
5.75162e-20
5.75143e-20
5.75121e-20
5.75092e-20
5.75058e-20
5.75014e-20
5.74958e-20
5.74877e-20
5.7475e-20
5.74518e-20
5.74029e-20
5.7284e-20
5.69532e-20
5.59127e-20
5.23798e-20
4.13773e-20
2.03399e-20
4.44089e-21
4.44089e-21
2.12077e-20
5.2383e-20
8.3213e-20
1.0131e-19
1.09293e-19
1.12525e-19
1.13849e-19
1.14415e-19
1.14669e-19
1.14787e-19
1.14843e-19
1.14869e-19
1.14881e-19
1.14886e-19
1.14887e-19
1.14887e-19
1.14887e-19
1.14888e-19
1.14889e-19
1.14891e-19
1.14894e-19
1.14898e-19
1.14903e-19
1.1491e-19
1.14917e-19
1.14926e-19
1.14936e-19
1.14947e-19
1.14959e-19
1.14973e-19
1.14988e-19
1.15003e-19
1.1502e-19
1.15038e-19
1.15056e-19
1.15075e-19
1.15095e-19
1.15113e-19
1.15132e-19
1.15151e-19
1.15169e-19
1.15187e-19
1.15205e-19
1.15222e-19
1.15238e-19
1.15253e-19
1.15266e-19
1.15278e-19
1.15289e-19
1.15297e-19
1.15303e-19
1.15308e-19
1.15309e-19
1.15309e-19
1.15305e-19
1.15299e-19
1.1529e-19
1.15278e-19
1.15261e-19
1.1524e-19
1.15211e-19
1.15173e-19
1.15116e-19
1.15026e-19
1.14872e-19
1.14579e-19
1.13971e-19
1.12607e-19
1.09336e-19
1.01323e-19
8.32127e-20
5.23827e-20
2.12079e-20
4.44089e-21
4.44089e-21
2.13507e-20
5.59184e-20
1.01334e-19
1.41373e-19
1.67063e-19
1.80752e-19
1.8752e-19
1.90827e-19
1.92469e-19
1.93305e-19
1.9374e-19
1.93971e-19
1.94094e-19
1.94161e-19
1.94197e-19
1.94217e-19
1.94229e-19
1.94239e-19
1.94248e-19
1.94259e-19
1.94272e-19
1.94288e-19
1.94308e-19
1.94331e-19
1.94358e-19
1.94389e-19
1.94424e-19
1.94464e-19
1.94507e-19
1.94554e-19
1.94605e-19
1.9466e-19
1.94718e-19
1.94779e-19
1.94843e-19
1.9491e-19
1.94977e-19
1.95045e-19
1.95113e-19
1.95181e-19
1.95249e-19
1.95315e-19
1.95379e-19
1.95441e-19
1.95499e-19
1.95553e-19
1.95602e-19
1.95646e-19
1.95683e-19
1.95712e-19
1.95734e-19
1.95747e-19
1.95751e-19
1.95745e-19
1.95728e-19
1.95698e-19
1.95655e-19
1.95594e-19
1.95512e-19
1.954e-19
1.95244e-19
1.95016e-19
1.94669e-19
1.94103e-19
1.93126e-19
1.91333e-19
1.8787e-19
1.80952e-19
1.67139e-19
1.41377e-19
1.01323e-19
5.59154e-20
2.13506e-20
4.44089e-21
4.44089e-21
2.13799e-20
5.69606e-20
1.09362e-19
1.67172e-19
2.16025e-19
2.49514e-19
2.69656e-19
2.8102e-19
2.87294e-19
2.90762e-19
2.92699e-19
2.93796e-19
2.94426e-19
2.94791e-19
2.95008e-19
2.95139e-19
2.95223e-19
2.95281e-19
2.95328e-19
2.95372e-19
2.95418e-19
2.95469e-19
2.95527e-19
2.95594e-19
2.95671e-19
2.95757e-19
2.95854e-19
2.95961e-19
2.96079e-19
2.96208e-19
2.96346e-19
2.96494e-19
2.9665e-19
2.96815e-19
2.96987e-19
2.97164e-19
2.97345e-19
2.97529e-19
2.97714e-19
2.97899e-19
2.98082e-19
2.98261e-19
2.98435e-19
2.98601e-19
2.98757e-19
2.98901e-19
2.99031e-19
2.99145e-19
2.9924e-19
2.99314e-19
2.99366e-19
2.99392e-19
2.99389e-19
2.99356e-19
2.99286e-19
2.99174e-19
2.99011e-19
2.98782e-19
2.98465e-19
2.98022e-19
2.97387e-19
2.96446e-19
2.94997e-19
2.92669e-19
2.88777e-19
2.82061e-19
2.70267e-19
2.49757e-19
2.16033e-19
1.67107e-19
1.09324e-19
5.69525e-20
2.13794e-20
4.44089e-21
4.44089e-21
2.13876e-20
5.72926e-20
1.12644e-19
1.81031e-19
2.49839e-19
3.07235e-19
3.48556e-19
3.75534e-19
3.92209e-19
4.02261e-19
4.08276e-19
4.11883e-19
4.14061e-19
4.15389e-19
4.1621e-19
4.16727e-19
4.17064e-19
4.17295e-19
4.17469e-19
4.17615e-19
4.1775e-19
4.17888e-19
4.18036e-19
4.18199e-19
4.18381e-19
4.18583e-19
4.18808e-19
4.19055e-19
4.19325e-19
4.19618e-19
4.19932e-19
4.20267e-19
4.20621e-19
4.20992e-19
4.21378e-19
4.21777e-19
4.22185e-19
4.22598e-19
4.23014e-19
4.23429e-19
4.23838e-19
4.24238e-19
4.24624e-19
4.24991e-19
4.25335e-19
4.2565e-19
4.25931e-19
4.26173e-19
4.2637e-19
4.26517e-19
4.26605e-19
4.2663e-19
4.2658e-19
4.26446e-19
4.26211e-19
4.25854e-19
4.25342e-19
4.24626e-19
4.23628e-19
4.22221e-19
4.20202e-19
4.17229e-19
4.12728e-19
4.05738e-19
3.94664e-19
3.7699e-19
3.49147e-19
3.07238e-19
2.49609e-19
1.80844e-19
1.1257e-19
5.72783e-20
2.13866e-20
4.44089e-21
4.44089e-21
2.13903e-20
5.74124e-20
1.14017e-19
1.8799e-19
2.70459e-19
3.49325e-19
4.15026e-19
4.64082e-19
4.98015e-19
5.20402e-19
5.34794e-19
5.43939e-19
5.49732e-19
5.53413e-19
5.55769e-19
5.57296e-19
5.58309e-19
5.59007e-19
5.59515e-19
5.59917e-19
5.60265e-19
5.60595e-19
5.60929e-19
5.61282e-19
5.61665e-19
5.62084e-19
5.62544e-19
5.63045e-19
5.63589e-19
5.64176e-19
5.64804e-19
5.65472e-19
5.66176e-19
5.66912e-19
5.67676e-19
5.68463e-19
5.69267e-19
5.70081e-19
5.70897e-19
5.71709e-19
5.72509e-19
5.73287e-19
5.74035e-19
5.74742e-19
5.75398e-19
5.75993e-19
5.76516e-19
5.76953e-19
5.77294e-19
5.77522e-19
5.77621e-19
5.77575e-19
5.77356e-19
5.76934e-19
5.76264e-19
5.75286e-19
5.73909e-19
5.72e-19
5.69353e-19
5.65653e-19
5.60405e-19
5.52837e-19
5.4175e-19
5.25324e-19
5.00949e-19
4.65282e-19
4.14989e-19
3.48712e-19
2.69851e-19
1.8765e-19
1.13903e-19
5.73911e-20
2.13887e-20
4.44089e-21
4.44089e-21
2.13914e-20
5.74621e-20
1.14631e-19
1.91486e-19
2.82358e-19
3.77387e-19
4.65642e-19
5.39376e-19
5.95947e-19
6.36736e-19
6.64953e-19
6.83983e-19
6.96642e-19
7.05014e-19
7.10554e-19
7.14245e-19
7.16738e-19
7.18466e-19
7.19715e-19
7.20672e-19
7.21464e-19
7.22174e-19
7.2286e-19
7.23557e-19
7.24291e-19
7.25079e-19
7.25931e-19
7.26853e-19
7.27847e-19
7.28914e-19
7.30051e-19
7.31256e-19
7.32523e-19
7.33844e-19
7.35213e-19
7.36618e-19
7.38049e-19
7.39495e-19
7.40942e-19
7.42376e-19
7.43782e-19
7.45143e-19
7.46442e-19
7.47661e-19
7.4878e-19
7.49777e-19
7.50632e-19
7.51318e-19
7.51809e-19
7.52069e-19
7.52071e-19
7.51765e-19
7.51094e-19
7.49981e-19
7.48326e-19
7.45984e-19
7.42752e-19
7.38332e-19
7.32287e-19
7.23976e-19
7.1245e-19
6.96335e-19
6.73692e-19
6.41947e-19
5.98057e-19
5.39199e-19
4.64267e-19
3.75855e-19
2.81295e-19
1.90983e-19
1.14474e-19
5.74334e-20
2.13892e-20
4.44089e-21
4.44089e-21
2.13921e-20
5.74858e-20
1.14929e-19
1.93305e-19
2.89163e-19
3.95278e-19
5.017e-19
5.98778e-19
6.80179e-19
7.43892e-19
7.91231e-19
8.25136e-19
8.48837e-19
8.65168e-19
8.76342e-19
8.83988e-19
8.89257e-19
8.9295e-19
8.95617e-19
8.97632e-19
8.9925e-19
9.00647e-19
9.01941e-19
9.03213e-19
9.04516e-19
9.05886e-19
9.07347e-19
9.08913e-19
9.1059e-19
9.12381e-19
9.14282e-19
9.16289e-19
9.18392e-19
9.2058e-19
9.22838e-19
9.25151e-19
9.275e-19
9.29865e-19
9.32222e-19
9.34547e-19
9.36814e-19
9.38995e-19
9.41058e-19
9.42972e-19
9.447e-19
9.46204e-19
9.47443e-19
9.48369e-19
9.48925e-19
9.49057e-19
9.4869e-19
9.47728e-19
9.46054e-19
9.43512e-19
9.39895e-19
9.34918e-19
9.28187e-19
9.19147e-19
9.07021e-19
8.90728e-19
8.68782e-19
8.39216e-19
7.99584e-19
7.47172e-19
6.7961e-19
5.96011e-19
4.9841e-19
3.92653e-19
2.87617e-19
1.92636e-19
1.14729e-19
5.74498e-20
2.13891e-20
4.44089e-21
4.44089e-21
2.13925e-20
5.7499e-20
1.15087e-19
1.94303e-19
2.93128e-19
4.06548e-19
5.26473e-19
6.43313e-19
7.4861e-19
8.37151e-19
9.0744e-19
9.60797e-19
9.99991e-19
1.02813e-18
1.04806e-18
1.06207e-18
1.07193e-18
1.07894e-18
1.08402e-18
1.08784e-18
1.09085e-18
1.09338e-18
1.09565e-18
1.09782e-18
1.09998e-18
1.10221e-18
1.10456e-18
1.10705e-18
1.10969e-18
1.1125e-18
1.11547e-18
1.1186e-18
1.12186e-18
1.12524e-18
1.12872e-18
1.13228e-18
1.13587e-18
1.13947e-18
1.14305e-18
1.14655e-18
1.14994e-18
1.15318e-18
1.1562e-18
1.15896e-18
1.1614e-18
1.16344e-18
1.16502e-18
1.16605e-18
1.16643e-18
1.16607e-18
1.16481e-18
1.16249e-18
1.15888e-18
1.15372e-18
1.14663e-18
1.13711e-18
1.12451e-18
1.10795e-18
1.08624e-18
1.05786e-18
1.02088e-18
9.73038e-19
9.11956e-19
8.3566e-19
7.43451e-19
6.36969e-19
5.20917e-19
4.02759e-19
2.91097e-19
1.93471e-19
1.14846e-19
5.74556e-20
2.13889e-20
4.44089e-21
4.44089e-21
2.13929e-20
5.75075e-20
1.1518e-19
1.94886e-19
2.95519e-19
4.1371e-19
5.43277e-19
6.75729e-19
8.02029e-19
9.14781e-19
1.00969e-18
1.08574e-18
1.14433e-18
1.18815e-18
1.22025e-18
1.24346e-18
1.26015e-18
1.2722e-18
1.28101e-18
1.28762e-18
1.29278e-18
1.29704e-18
1.30077e-18
1.30424e-18
1.30762e-18
1.31105e-18
1.3146e-18
1.31833e-18
1.32227e-18
1.32643e-18
1.33081e-18
1.3354e-18
1.34016e-18
1.34509e-18
1.35014e-18
1.35528e-18
1.36044e-18
1.3656e-18
1.37068e-18
1.37562e-18
1.38037e-18
1.38483e-18
1.38894e-18
1.39261e-18
1.39573e-18
1.39821e-18
1.39991e-18
1.4007e-18
1.40044e-18
1.39893e-18
1.39592e-18
1.39115e-18
1.38425e-18
1.37477e-18
1.36213e-18
1.34558e-18
1.32416e-18
1.29665e-18
1.2615e-18
1.21691e-18
1.16081e-18
1.09115e-18
1.00629e-18
9.05695e-19
7.90716e-19
6.65172e-19
5.35295e-19
4.0875e-19
2.93013e-19
1.93894e-19
1.14898e-19
5.74567e-20
2.13886e-20
4.44089e-21
4.44089e-21
2.13932e-20
5.75136e-20
1.1524e-19
1.95249e-19
2.97024e-19
4.18366e-19
5.54715e-19
6.99033e-19
8.42719e-19
9.77359e-19
1.09651e-18
1.19671e-18
1.2774e-18
1.34014e-18
1.38766e-18
1.42298e-18
1.44895e-18
1.468e-18
1.48208e-18
1.49267e-18
1.50091e-18
1.50761e-18
1.51337e-18
1.51861e-18
1.52362e-18
1.52862e-18
1.53373e-18
1.53905e-18
1.54461e-18
1.55046e-18
1.55658e-18
1.56296e-18
1.56957e-18
1.57636e-18
1.5833e-18
1.59032e-18
1.59734e-18
1.6043e-18
1.6111e-18
1.61766e-18
1.62387e-18
1.62962e-18
1.6348e-18
1.63926e-18
1.64287e-18
1.64546e-18
1.64681e-18
1.64678e-18
1.64509e-18
1.64143e-18
1.63546e-18
1.62675e-18
1.61477e-18
1.59886e-18
1.57821e-18
1.55181e-18
1.51842e-18
1.47655e-18
1.42452e-18
1.36047e-18
1.28266e-18
1.18971e-18
1.08124e-18
9.58363e-19
8.24198e-19
6.83938e-19
5.44271e-19
4.12255e-19
2.94056e-19
1.94102e-19
1.14917e-19
5.74557e-20
2.13883e-20
4.44089e-21
4.44089e-21
2.13935e-20
5.75185e-20
1.15283e-19
1.95493e-19
2.98019e-19
4.21486e-19
5.62613e-19
7.15783e-19
8.73341e-19
1.02676e-18
1.16828e-18
1.29238e-18
1.39637e-18
1.48022e-18
1.54577e-18
1.5958e-18
1.63341e-18
1.66145e-18
1.6824e-18
1.69826e-18
1.71056e-18
1.72048e-18
1.72889e-18
1.73641e-18
1.74348e-18
1.75042e-18
1.75743e-18
1.76464e-18
1.77214e-18
1.77997e-18
1.78812e-18
1.79657e-18
1.80529e-18
1.81421e-18
1.82327e-18
1.83236e-18
1.84141e-18
1.85029e-18
1.85889e-18
1.86707e-18
1.87469e-18
1.88159e-18
1.8876e-18
1.89253e-18
1.89616e-18
1.89823e-18
1.89855e-18
1.89678e-18
1.89255e-18
1.88544e-18
1.87497e-18
1.86054e-18
1.84145e-18
1.81683e-18
1.78565e-18
1.74671e-18
1.69858e-18
1.63971e-18
1.56847e-18
1.48335e-18
1.38323e-18
1.26778e-18
1.13793e-18
9.96249e-19
8.47037e-19
6.96051e-19
5.4974e-19
4.14257e-19
2.94602e-19
1.94194e-19
1.14919e-19
5.74534e-20
2.13879e-20
4.44089e-21
4.44089e-21
2.13937e-20
5.75226e-20
1.15315e-19
1.95668e-19
2.9871e-19
4.23651e-19
5.68182e-19
7.27925e-19
8.96324e-19
1.06529e-18
1.22651e-18
1.37297e-18
1.50005e-18
1.60591e-18
1.69111e-18
1.75782e-18
1.809e-18
1.84781e-18
1.87713e-18
1.89946e-18
1.91679e-18
1.9307e-18
1.94235e-18
1.95262e-18
1.96214e-18
1.97134e-18
1.98053e-18
1.9899e-18
1.99957e-18
2.00958e-18
2.01995e-18
2.03066e-18
2.04163e-18
2.05279e-18
2.06405e-18
2.07527e-18
2.08633e-18
2.09707e-18
2.10733e-18
2.11692e-18
2.12566e-18
2.13331e-18
2.13967e-18
2.14445e-18
2.14734e-18
2.1481e-18
2.14636e-18
2.14166e-18
2.13356e-18
2.12149e-18
2.10484e-18
2.08286e-18
2.05468e-18
2.01927e-18
1.97547e-18
1.92195e-18
1.8573e-18
1.78008e-18
1.68898e-18
1.58304e-18
1.46198e-18
1.32656e-18
1.17883e-18
1.02235e-18
8.62023e-19
7.0359e-19
5.52942e-19
4.15336e-19
2.94856e-19
1.94218e-19
1.14912e-19
5.74505e-20
2.13875e-20
4.44089e-21
4.44089e-21
2.1394e-20
5.75263e-20
1.15342e-19
1.95801e-19
2.99216e-19
4.25209e-19
5.72208e-19
7.36846e-19
9.13637e-19
1.0952e-18
1.27319e-18
1.43967e-18
1.58849e-18
1.71606e-18
1.82146e-18
1.90591e-18
1.97198e-18
2.02284e-18
2.06172e-18
2.09152e-18
2.11469e-18
2.1332e-18
2.14859e-18
2.16199e-18
2.17424e-18
2.18594e-18
2.1975e-18
2.20917e-18
2.22111e-18
2.2334e-18
2.24605e-18
2.25902e-18
2.27223e-18
2.28558e-18
2.29893e-18
2.31211e-18
2.32496e-18
2.33726e-18
2.3488e-18
2.35935e-18
2.36864e-18
2.37641e-18
2.38235e-18
2.3861e-18
2.38735e-18
2.38572e-18
2.38069e-18
2.37176e-18
2.35837e-18
2.33985e-18
2.31547e-18
2.28435e-18
2.24553e-18
2.19788e-18
2.14021e-18
2.07122e-18
1.98962e-18
1.89428e-18
1.78435e-18
1.65953e-18
1.52038e-18
1.36853e-18
1.20686e-18
1.03946e-18
8.7136e-19
7.0801e-19
5.54668e-19
4.15837e-19
2.94931e-19
1.94203e-19
1.149e-19
5.74471e-20
2.13871e-20
4.44089e-21
4.44089e-21
2.13942e-20
5.75297e-20
1.15365e-19
1.95907e-19
2.99602e-19
4.26373e-19
5.75194e-19
7.43511e-19
9.26777e-19
1.1184e-18
1.31032e-18
1.49416e-18
1.66263e-18
1.81062e-18
1.93572e-18
2.03804e-18
2.1195e-18
2.18312e-18
2.23225e-18
2.27015e-18
2.29968e-18
2.32322e-18
2.34264e-18
2.3594e-18
2.37454e-18
2.38882e-18
2.40278e-18
2.41675e-18
2.43093e-18
2.44542e-18
2.46023e-18
2.47532e-18
2.49057e-18
2.50584e-18
2.52096e-18
2.53573e-18
2.5499e-18
2.56323e-18
2.57544e-18
2.58624e-18
2.59532e-18
2.60234e-18
2.6069e-18
2.60866e-18
2.6072e-18
2.60196e-18
2.59243e-18
2.57801e-18
2.55808e-18
2.53189e-18
2.49862e-18
2.45735e-18
2.40708e-18
2.34668e-18
2.27501e-18
2.19092e-18
2.09337e-18
1.98158e-18
1.85523e-18
1.71463e-18
1.56101e-18
1.39663e-18
1.22482e-18
1.04986e-18
8.76672e-19
7.10292e-19
5.55415e-19
4.15967e-19
2.94894e-19
1.94163e-19
1.14883e-19
5.74434e-20
2.13867e-20
4.44089e-21
4.44089e-21
2.13944e-20
5.75327e-20
1.15385e-19
1.95996e-19
2.99909e-19
4.2727e-19
5.77466e-19
7.48577e-19
9.36844e-19
1.13643e-18
1.33972e-18
1.53822e-18
1.72385e-18
1.89029e-18
2.03377e-18
2.15321e-18
2.24978e-18
2.32613e-18
2.38565e-18
2.43183e-18
2.46788e-18
2.49657e-18
2.52011e-18
2.54023e-18
2.55822e-18
2.57502e-18
2.59126e-18
2.60737e-18
2.6236e-18
2.64005e-18
2.65674e-18
2.6736e-18
2.6905e-18
2.70726e-18
2.72364e-18
2.73941e-18
2.75426e-18
2.7679e-18
2.77999e-18
2.79019e-18
2.79814e-18
2.80343e-18
2.80567e-18
2.80444e-18
2.79912e-18
2.78921e-18
2.77412e-18
2.75325e-18
2.72589e-18
2.69129e-18
2.64862e-18
2.59695e-18
2.5353e-18
2.46266e-18
2.37799e-18
2.28033e-18
2.16895e-18
2.04345e-18
1.90393e-18
1.75118e-18
1.58688e-18
1.41366e-18
1.23504e-18
1.0553e-18
8.79106e-19
7.11097e-19
5.55506e-19
4.15849e-19
2.94782e-19
1.94104e-19
1.14863e-19
5.74394e-20
2.13862e-20
4.44089e-21
4.44089e-21
2.13946e-20
5.75356e-20
1.15402e-19
1.96072e-19
3.00161e-19
4.27983e-19
5.79236e-19
7.52491e-19
9.44633e-19
1.1505e-18
1.36294e-18
1.57353e-18
1.77373e-18
1.95626e-18
2.11618e-18
2.25129e-18
2.36195e-18
2.45037e-18
2.51983e-18
2.57399e-18
2.61635e-18
2.64999e-18
2.67745e-18
2.70073e-18
2.72136e-18
2.74042e-18
2.75868e-18
2.77662e-18
2.79455e-18
2.81258e-18
2.83073e-18
2.84889e-18
2.86691e-18
2.88456e-18
2.90157e-18
2.91762e-18
2.93239e-18
2.94552e-18
2.95663e-18
2.96532e-18
2.9712e-18
2.97392e-18
2.97298e-18
2.96775e-18
2.95771e-18
2.94232e-18
2.92099e-18
2.8931e-18
2.85797e-18
2.81486e-18
2.76295e-18
2.70141e-18
2.62932e-18
2.54582e-18
2.45001e-18
2.34115e-18
2.21876e-18
2.08274e-18
1.93351e-18
1.77222e-18
1.60079e-18
1.42201e-18
1.23941e-18
1.05713e-18
8.7951e-19
7.10876e-19
5.55139e-19
4.15557e-19
2.94615e-19
1.94033e-19
1.14841e-19
5.74351e-20
2.13858e-20
4.44089e-21
4.44089e-21
2.13948e-20
5.75383e-20
1.15419e-19
1.96138e-19
3.00374e-19
4.28563e-19
5.80642e-19
7.55559e-19
9.50709e-19
1.16149e-18
1.38121e-18
1.60159e-18
1.81383e-18
2.00993e-18
2.18399e-18
2.33282e-18
2.45599e-18
2.55525e-18
2.63373e-18
2.69513e-18
2.74319e-18
2.78129e-18
2.81223e-18
2.83828e-18
2.86115e-18
2.88209e-18
2.90196e-18
2.92133e-18
2.9405e-18
2.95964e-18
2.97871e-18
2.99762e-18
3.01615e-18
3.03404e-18
3.05097e-18
3.06657e-18
3.08047e-18
3.09228e-18
3.10158e-18
3.10793e-18
3.1111e-18
3.11057e-18
3.10561e-18
3.09574e-18
3.08042e-18
3.05913e-18
3.03131e-18
2.99635e-18
2.95365e-18
2.90252e-18
2.84221e-18
2.77195e-18
2.69096e-18
2.59845e-18
2.49377e-18
2.37635e-18
2.24595e-18
2.10269e-18
1.94721e-18
1.78079e-18
1.60544e-18
1.42388e-18
1.23954e-18
1.05634e-18
8.78436e-19
7.09905e-19
5.54438e-19
4.15136e-19
2.94407e-19
1.93951e-19
1.14817e-19
5.74304e-20
2.13853e-20
4.44089e-21
4.44089e-21
2.1395e-20
5.75407e-20
1.15433e-19
1.96197e-19
3.00555e-19
4.29043e-19
5.81776e-19
7.57991e-19
9.55478e-19
1.17008e-18
1.39551e-18
1.62367e-18
1.84558e-18
2.05275e-18
2.23849e-18
2.3988e-18
2.53255e-18
2.64103e-18
2.72717e-18
2.79473e-18
2.84762e-18
2.88943e-18
2.92323e-18
2.95149e-18
2.97609e-18
2.99842e-18
3.01942e-18
3.03972e-18
3.05965e-18
3.07936e-18
3.09882e-18
3.11789e-18
3.13633e-18
3.15382e-18
3.16999e-18
3.18445e-18
3.19678e-18
3.20657e-18
3.21338e-18
3.21689e-18
3.21697e-18
3.21253e-18
3.20314e-18
3.18831e-18
3.16757e-18
3.1404e-18
3.10627e-18
3.06467e-18
3.015e-18
2.95668e-18
2.88907e-18
2.81152e-18
2.72341e-18
2.62413e-18
2.51315e-18
2.39016e-18
2.2549e-18
2.10757e-18
1.94886e-18
1.78007e-18
1.60319e-18
1.42088e-18
1.23642e-18
1.05357e-18
8.76256e-19
7.08374e-19
5.53482e-19
4.14614e-19
2.94164e-19
1.93859e-19
1.14791e-19
5.74254e-20
2.13847e-20
4.44089e-21
4.44089e-21
2.13952e-20
5.7543e-20
1.15447e-19
1.96249e-19
3.00711e-19
4.29444e-19
5.827e-19
7.59931e-19
9.59229e-19
1.17679e-18
1.40662e-18
1.64079e-18
1.87025e-18
2.08611e-18
2.2811e-18
2.45055e-18
2.59273e-18
2.70855e-18
2.80079e-18
2.87321e-18
2.92984e-18
2.97447e-18
3.01037e-18
3.04018e-18
3.06594e-18
3.08912e-18
3.11075e-18
3.13149e-18
3.15168e-18
3.17146e-18
3.19079e-18
3.20949e-18
3.22729e-18
3.24382e-18
3.25868e-18
3.27143e-18
3.28164e-18
3.28891e-18
3.29296e-18
3.29365e-18
3.29e-18
3.28144e-18
3.2675e-18
3.24774e-18
3.2217e-18
3.18893e-18
3.14896e-18
3.10136e-18
3.04567e-18
2.98143e-18
2.90822e-18
2.82541e-18
2.73244e-18
2.62877e-18
2.51395e-18
2.38768e-18
2.24986e-18
2.10076e-18
1.94107e-18
1.77205e-18
1.59557e-18
1.41414e-18
1.23087e-18
1.04931e-18
8.73232e-19
7.06405e-19
5.52322e-19
4.14008e-19
2.9389e-19
1.93757e-19
1.14762e-19
5.742e-20
2.13841e-20
4.44089e-21
4.44089e-21
2.13953e-20
5.7545e-20
1.15459e-19
1.96295e-19
3.00846e-19
4.29782e-19
5.83456e-19
7.61482e-19
9.6217e-19
1.18197e-18
1.41512e-18
1.65382e-18
1.88894e-18
2.11132e-18
2.31324e-18
2.4895e-18
2.63795e-18
2.75918e-18
2.85584e-18
2.9317e-18
2.9909e-18
3.03738e-18
3.07458e-18
3.10527e-18
3.13159e-18
3.15511e-18
3.17688e-18
3.19758e-18
3.21759e-18
3.23701e-18
3.25577e-18
3.27368e-18
3.2904e-18
3.30555e-18
3.31868e-18
3.32933e-18
3.33706e-18
3.34163e-18
3.34318e-18
3.34056e-18
3.33314e-18
3.32049e-18
3.30216e-18
3.27777e-18
3.24695e-18
3.20939e-18
3.16464e-18
3.11232e-18
3.05205e-18
2.98344e-18
2.90604e-18
2.81941e-18
2.72311e-18
2.61671e-18
2.49984e-18
2.37225e-18
2.23388e-18
2.08497e-18
1.92615e-18
1.75857e-18
1.58394e-18
1.4046e-18
1.22347e-18
1.0439e-18
8.69543e-19
7.04082e-19
5.5099e-19
4.13326e-19
2.93588e-19
1.93646e-19
1.14731e-19
5.74141e-20
2.13835e-20
4.44089e-21
4.44089e-21
2.13954e-20
5.75468e-20
1.15469e-19
1.96335e-19
3.00962e-19
4.30065e-19
5.84073e-19
7.62714e-19
9.64452e-19
1.18591e-18
1.42148e-18
1.66344e-18
1.90258e-18
2.12953e-18
2.33624e-18
2.51716e-18
2.66978e-18
2.79453e-18
2.89395e-18
2.97185e-18
3.03247e-18
3.07987e-18
3.11759e-18
3.14851e-18
3.17486e-18
3.19822e-18
3.2197e-18
3.24e-18
3.25943e-18
3.27813e-18
3.296e-18
3.3128e-18
3.32817e-18
3.34166e-18
3.35282e-18
3.36114e-18
3.36624e-18
3.36873e-18
3.36743e-18
3.36157e-18
3.35071e-18
3.33442e-18
3.31233e-18
3.28408e-18
3.24935e-18
3.20779e-18
3.15909e-18
3.10296e-18
3.03909e-18
2.96717e-18
2.88687e-18
2.79783e-18
2.6997e-18
2.5921e-18
2.47474e-18
2.34738e-18
2.20996e-18
2.06266e-18
1.90604e-18
1.74109e-18
1.56935e-18
1.39297e-18
1.21464e-18
1.03758e-18
8.65313e-19
7.01458e-19
5.49504e-19
4.12573e-19
2.93257e-19
1.93525e-19
1.14697e-19
5.74078e-20
2.13828e-20
4.44089e-21
4.44089e-21
2.13956e-20
5.75485e-20
1.15479e-19
1.9637e-19
3.01061e-19
4.303e-19
5.84571e-19
7.6368e-19
9.66188e-19
1.18882e-18
1.42606e-18
1.67019e-18
1.91194e-18
2.14177e-18
2.35139e-18
2.53498e-18
2.68985e-18
2.81635e-18
2.917e-18
2.99565e-18
3.05663e-18
3.10408e-18
3.14163e-18
3.17223e-18
3.19813e-18
3.22097e-18
3.24184e-18
3.2614e-18
3.28001e-18
3.29778e-18
3.31444e-18
3.32993e-18
3.34378e-18
3.3555e-18
3.36457e-18
3.37051e-18
3.37357e-18
3.37398e-18
3.37004e-18
3.36133e-18
3.34746e-18
3.32805e-18
3.30277e-18
3.27129e-18
3.23333e-18
3.18862e-18
3.13692e-18
3.07799e-18
3.01159e-18
2.9375e-18
2.85545e-18
2.76517e-18
2.66636e-18
2.55872e-18
2.44199e-18
2.31595e-18
2.18051e-18
2.03581e-18
1.88227e-18
1.72075e-18
1.5526e-18
1.37975e-18
1.20472e-18
1.03054e-18
8.60629e-19
6.9857e-19
5.47878e-19
4.11752e-19
2.92896e-19
1.93394e-19
1.1466e-19
5.74009e-20
2.13821e-20
4.44089e-21
4.44089e-21
2.13957e-20
5.75499e-20
1.15487e-19
1.964e-19
3.01143e-19
4.30491e-19
5.84965e-19
7.64415e-19
9.67459e-19
1.19087e-18
1.42914e-18
1.67453e-18
1.91768e-18
2.14892e-18
2.3598e-18
2.54434e-18
2.69983e-18
2.82641e-18
2.92691e-18
3.00518e-18
3.06558e-18
3.11235e-18
3.14916e-18
3.17898e-18
3.20409e-18
3.22611e-18
3.24614e-18
3.26482e-18
3.28247e-18
3.29916e-18
3.31472e-18
3.32888e-18
3.34117e-18
3.35106e-18
3.35805e-18
3.36185e-18
3.36349e-18
3.36153e-18
3.35519e-18
3.34403e-18
3.32766e-18
3.30573e-18
3.27792e-18
3.24395e-18
3.20358e-18
3.15659e-18
3.10278e-18
3.04198e-18
2.974e-18
2.89866e-18
2.81579e-18
2.72515e-18
2.62653e-18
2.51967e-18
2.40433e-18
2.28031e-18
2.1475e-18
2.00598e-18
1.85606e-18
1.69844e-18
1.5343e-18
1.36536e-18
1.19394e-18
1.0229e-18
8.55553e-19
6.95444e-19
5.46117e-19
4.10864e-19
2.92507e-19
1.93252e-19
1.1462e-19
5.73934e-20
2.13813e-20
4.44089e-21
4.44089e-21
2.13958e-20
5.75511e-20
1.15493e-19
1.96425e-19
3.0121e-19
4.30642e-19
5.85264e-19
7.64949e-19
9.68328e-19
1.19217e-18
1.43095e-18
1.67683e-18
1.92034e-18
2.15173e-18
2.36247e-18
2.54656e-18
2.70128e-18
2.82696e-18
2.92639e-18
3.0035e-18
3.06272e-18
3.10833e-18
3.14402e-18
3.17278e-18
3.19686e-18
3.21787e-18
3.23688e-18
3.25451e-18
3.27104e-18
3.28649e-18
3.30068e-18
3.31328e-18
3.32383e-18
3.33175e-18
3.33661e-18
3.33869e-18
3.33893e-18
3.3351e-18
3.32684e-18
3.31373e-18
3.29542e-18
3.27158e-18
3.24192e-18
3.2062e-18
3.1642e-18
3.11572e-18
3.06062e-18
2.99874e-18
2.92996e-18
2.85414e-18
2.77114e-18
2.6808e-18
2.58295e-18
2.47738e-18
2.36389e-18
2.24228e-18
2.11244e-18
1.97439e-18
1.82834e-18
1.67486e-18
1.51494e-18
1.35012e-18
1.18249e-18
1.01477e-18
8.50135e-19
6.92097e-19
5.44228e-19
4.09909e-19
2.92087e-19
1.93098e-19
1.14577e-19
5.73853e-20
2.13804e-20
4.44089e-21
4.44089e-21
2.13958e-20
5.7552e-20
1.15499e-19
1.96444e-19
3.01262e-19
4.30755e-19
5.85476e-19
7.65301e-19
9.68844e-19
1.19283e-18
1.43165e-18
1.67739e-18
1.9205e-18
2.15117e-18
2.36079e-18
2.54342e-18
2.69639e-18
2.82014e-18
2.91746e-18
2.99249e-18
3.04976e-18
3.09357e-18
3.12763e-18
3.15491e-18
3.17764e-18
3.19739e-18
3.21519e-18
3.23163e-18
3.24695e-18
3.26118e-18
3.27408e-18
3.28528e-18
3.29426e-18
3.30034e-18
3.3033e-18
3.30491e-18
3.30354e-18
3.29821e-18
3.28845e-18
3.2739e-18
3.25421e-18
3.22908e-18
3.19823e-18
3.16145e-18
3.11851e-18
3.06927e-18
3.01357e-18
2.9513e-18
2.88235e-18
2.80663e-18
2.72403e-18
2.63444e-18
2.53774e-18
2.43375e-18
2.32232e-18
2.20329e-18
2.07652e-18
1.94199e-18
1.79986e-18
1.65056e-18
1.49492e-18
1.33427e-18
1.17053e-18
1.00623e-18
8.44414e-19
6.88544e-19
5.42213e-19
4.08886e-19
2.91635e-19
1.92933e-19
1.14531e-19
5.73765e-20
2.13795e-20
4.44089e-21
4.44089e-21
2.13959e-20
5.75527e-20
1.15503e-19
1.96458e-19
3.01298e-19
4.30832e-19
5.85608e-19
7.65489e-19
9.69045e-19
1.19294e-18
1.43147e-18
1.67661e-18
1.91868e-18
2.14771e-18
2.35515e-18
2.53516e-18
2.68524e-18
2.80605e-18
2.90054e-18
2.97294e-18
3.02785e-18
3.06958e-18
3.10183e-18
3.12753e-18
3.14885e-18
3.16732e-18
3.18392e-18
3.19921e-18
3.2134e-18
3.22647e-18
3.23817e-18
3.24807e-18
3.25552e-18
3.26025e-18
3.26198e-18
3.26276e-18
3.26021e-18
3.25375e-18
3.24294e-18
3.22743e-18
3.20688e-18
3.18102e-18
3.14959e-18
3.11235e-18
3.06911e-18
3.01972e-18
2.96403e-18
2.90193e-18
2.83334e-18
2.75817e-18
2.67636e-18
2.58782e-18
2.49247e-18
2.3902e-18
2.28089e-18
2.16441e-18
2.04065e-18
1.90955e-18
1.77123e-18
1.626e-18
1.47456e-18
1.31805e-18
1.1582e-18
9.97352e-19
8.38426e-19
6.848e-19
5.40075e-19
4.07794e-19
2.91151e-19
1.92755e-19
1.1448e-19
5.7367e-20
2.13785e-20
4.44089e-21
4.44089e-21
2.13959e-20
5.75532e-20
1.15505e-19
1.96467e-19
3.0132e-19
4.30873e-19
5.85664e-19
7.65525e-19
9.68979e-19
1.19259e-18
1.4305e-18
1.67453e-18
1.91486e-18
2.14153e-18
2.34603e-18
2.52267e-18
2.66919e-18
2.78646e-18
2.87761e-18
2.94699e-18
2.99925e-18
3.0387e-18
3.069e-18
3.09302e-18
3.11288e-18
3.13006e-18
3.14548e-18
3.15965e-18
3.17276e-18
3.18474e-18
3.19533e-18
3.20403e-18
3.2101e-18
3.21381e-18
3.21462e-18
3.21471e-18
3.21131e-18
3.20406e-18
3.19259e-18
3.17655e-18
3.15563e-18
3.12955e-18
3.09805e-18
3.06091e-18
3.01792e-18
2.96892e-18
2.91375e-18
2.8523e-18
2.78449e-18
2.71023e-18
2.62948e-18
2.54218e-18
2.44831e-18
2.34778e-18
2.24053e-18
2.12648e-18
2.00553e-18
1.87765e-18
1.74291e-18
1.60154e-18
1.45412e-18
1.30163e-18
1.14561e-18
9.88213e-19
8.32206e-19
6.80878e-19
5.37819e-19
4.06634e-19
2.90634e-19
1.92564e-19
1.14426e-19
5.73567e-20
2.13773e-20
4.44089e-21
4.44089e-21
2.13959e-20
5.75534e-20
1.15506e-19
1.96471e-19
3.01328e-19
4.3088e-19
5.8565e-19
7.6543e-19
9.6866e-19
1.19178e-18
1.42878e-18
1.67131e-18
1.90945e-18
2.13321e-18
2.33417e-18
2.50687e-18
2.6493e-18
2.76259e-18
2.85006e-18
2.91616e-18
2.9656e-18
3.00266e-18
3.03094e-18
3.05326e-18
3.07166e-18
3.08756e-18
3.10182e-18
3.11491e-18
3.12699e-18
3.13797e-18
3.14755e-18
3.15516e-18
3.16e-18
3.16276e-18
3.16305e-18
3.16264e-18
3.15867e-18
3.15095e-18
3.13915e-18
3.12296e-18
3.10207e-18
3.07621e-18
3.04511e-18
3.00854e-18
2.96628e-18
2.91813e-18
2.86393e-18
2.80354e-18
2.73686e-18
2.6638e-18
2.58434e-18
2.49843e-18
2.40607e-18
2.30725e-18
2.20194e-18
2.09011e-18
1.97173e-18
1.84677e-18
1.7153e-18
1.57751e-18
1.43387e-18
1.28521e-18
1.13289e-18
9.7888e-19
8.2579e-19
6.76793e-19
5.35449e-19
4.05406e-19
2.90082e-19
1.92359e-19
1.14368e-19
5.73456e-20
2.13761e-20
4.44089e-21
4.44089e-21
2.13959e-20
5.75534e-20
1.15506e-19
1.9647e-19
3.01322e-19
4.30856e-19
5.85569e-19
7.652e-19
9.68097e-19
1.19056e-18
1.42642e-18
1.66714e-18
1.90271e-18
2.12312e-18
2.3201e-18
2.48845e-18
2.62644e-18
2.73547e-18
2.81905e-18
2.88176e-18
2.92829e-18
2.96292e-18
2.98918e-18
3.0098e-18
3.02676e-18
3.0414e-18
3.05454e-18
3.06661e-18
3.07771e-18
3.08776e-18
3.0964e-18
3.10303e-18
3.10678e-18
3.1086e-18
3.10933e-18
3.1081e-18
3.10369e-18
3.09573e-18
3.08389e-18
3.06786e-18
3.04735e-18
3.02208e-18
2.99177e-18
2.95618e-18
2.91505e-18
2.86817e-18
2.81533e-18
2.75636e-18
2.69113e-18
2.61954e-18
2.54155e-18
2.45713e-18
2.36631e-18
2.26912e-18
2.1656e-18
2.05577e-18
1.93966e-18
1.81729e-18
1.68874e-18
1.55419e-18
1.41401e-18
1.26893e-18
1.12014e-18
9.69425e-19
8.19217e-19
6.72565e-19
5.3297e-19
4.04111e-19
2.89496e-19
1.9214e-19
1.14305e-19
5.73336e-20
2.13748e-20
4.44089e-21
4.44089e-21
2.13959e-20
5.75531e-20
1.15505e-19
1.96464e-19
3.01302e-19
4.308e-19
5.85421e-19
7.64846e-19
9.67318e-19
1.18899e-18
1.4235e-18
1.66217e-18
1.89486e-18
2.11161e-18
2.30431e-18
2.46802e-18
2.60136e-18
2.70598e-18
2.7856e-18
2.84485e-18
2.88848e-18
2.92069e-18
2.94496e-18
2.96392e-18
2.97947e-18
2.99289e-18
3.00495e-18
3.01601e-18
3.02619e-18
3.03535e-18
3.04312e-18
3.04886e-18
3.05171e-18
3.05347e-18
3.05362e-18
3.05197e-18
3.04734e-18
3.03934e-18
3.02768e-18
3.01206e-18
2.99221e-18
2.96783e-18
2.93865e-18
2.90439e-18
2.86475e-18
2.8195e-18
2.76836e-18
2.71114e-18
2.64766e-18
2.57778e-18
2.50144e-18
2.41863e-18
2.32938e-18
2.23376e-18
2.13187e-18
2.0238e-18
1.90966e-18
1.78953e-18
1.66352e-18
1.53181e-18
1.39475e-18
1.25296e-18
1.10748e-18