/*--------------------------------*- C++ -*----------------------------------*\
  =========                 |
  \\      /  F ield         | OpenFOAM: The Open Source CFD Toolbox
   \\    /   O peration     | Website:  https://openfoam.org
    \\  /    A nd           | Version:  12
     \\/     M anipulation  |
\*---------------------------------------------------------------------------*/
FoamFile
{
    format      ascii;
    class       volScalarField;
    location    "6.5";
    object      p;
}
// * * * * * * * * * * * * * * * * * * * * * * * * * * * * * * * * * * * * * //

dimensions      [0 2 -2 0 0 0 0];

internalField   nonuniform List<scalar> 
5625
(
5.13166e-09
-1.83266e-05
-9.33106e-05
-0.000227703
-0.000405899
-0.000612924
-0.000836274
-0.00106548
-0.00129205
-0.00150922
-0.00171175
-0.0018956
-0.00205775
-0.00219597
-0.00230863
-0.00239457
-0.00245299
-0.00248332
-0.0024852
-0.00245838
-0.00240271
-0.00231812
-0.00220458
-0.00206215
-0.00189095
-0.0016912
-0.00146324
-0.00120754
-0.000924766
-0.000615759
-0.000281605
7.63549e-05
0.000456501
0.000856912
0.00127536
0.00170926
0.00215574
0.00261161
0.00307345
0.0035374
0.00399949
0.00445552
0.00490114
0.00533193
0.00574343
0.00613127
0.00649119
0.00681914
0.00711141
0.00736463
0.00757592
0.00774292
0.00786391
0.00793779
0.0079642
0.00794354
0.00787698
0.00776646
0.00761474
0.00742534
0.00720252
0.00695129
0.00667731
0.0063869
0.00608697
0.00578496
0.00548883
0.00520695
0.00494808
0.00472113
0.00453489
0.00439749
0.00431579
0.0042922
0.00430735
1.81791e-05
-2.35203e-07
-6.70982e-05
-0.000185108
-0.00034109
-0.000522648
-0.000719342
-0.000922225
-0.00112379
-0.00131792
-0.00149972
-0.00166535
-0.00181183
-0.0019369
-0.00203887
-0.00211649
-0.00216884
-0.00219526
-0.00219527
-0.00216855
-0.00211489
-0.00203413
-0.00192623
-0.0017912
-0.00162915
-0.00144028
-0.00122491
-0.000983515
-0.000716719
-0.00042535
-0.000110453
0.000226688
0.000584524
0.000961227
0.00135468
0.00176245
0.00218181
0.00260981
0.00304317
0.0034783
0.00391149
0.00433882
0.00475624
0.00515963
0.00554485
0.00590784
0.00624465
0.00655157
0.00682515
0.00706231
0.00726043
0.00741736
0.00753155
0.00760206
0.00762862
0.00761168
0.00755238
0.00745262
0.00731502
0.00714292
0.00694036
0.00671201
0.00646318
0.00619974
0.00592807
0.00565499
0.00538775
0.00513386
0.00490105
0.00469708
0.00452935
0.00440463
0.00432914
0.004307
0.00432238
9.34282e-05
6.63585e-05
-1.06011e-06
-0.000109728
-0.00024928
-0.000410084
-0.000583805
-0.000763078
-0.000941542
-0.00111386
-0.00127565
-0.0014234
-0.00155431
-0.00166618
-0.00175735
-0.00182652
-0.00187272
-0.00189522
-0.00189348
-0.0018671
-0.0018158
-0.0017394
-0.00163778
-0.00151092
-0.0013589
-0.00118189
-0.00098019
-0.000754219
-0.000504576
-0.000232038
6.24104e-05
0.00037756
0.000711953
0.00106387
0.00143133
0.00181206
0.00220352
0.00260295
0.00300724
0.0034131
0.00381707
0.00421548
0.00460459
0.00498055
0.00533955
0.00567781
0.00599169
0.00627774
0.00653282
0.00675408
0.00693912
0.00708602
0.00719336
0.00726034
0.00728677
0.00727311
0.00722052
0.00713081
0.00700648
0.00685068
0.00666719
0.00646039
0.00623519
0.00599702
0.00575171
0.00550546
0.00526478
0.00503634
0.00482688
0.00464306
0.00449113
0.00437676
0.00430586
0.00428438
0.00429929
0.000229464
0.000184827
0.000106222
-3.6565e-06
-0.000137419
-0.000287732
-0.000447909
-0.000611931
-0.000774509
-0.000931124
-0.001078
-0.00121204
-0.00133074
-0.00143211
-0.00151458
-0.00157693
-0.00161821
-0.0016377
-0.00163482
-0.00160915
-0.00156038
-0.00148828
-0.00139269
-0.00127357
-0.00113093
-0.000964903
-0.000775736
-0.000563806
-0.000329646
-7.39657e-05
0.00020233
0.00049812
0.000812051
0.00114252
0.00148767
0.00184538
0.00221328
0.00258873
0.00296886
0.00335057
0.00373058
0.00410546
0.00447166
0.00482557
0.00516359
0.00548216
0.00577785
0.00604743
0.0062879
0.00649662
0.00667133
0.00681022
0.006912
0.00697593
0.00700187
0.00699029
0.00694232
0.00685969
0.0067448
0.00660065
0.00643081
0.00623941
0.00603104
0.00581075
0.00558393
0.00535628
0.00513369
0.00492216
0.0047277
0.00455618
0.00441311
0.00430359
0.00423331
0.00420892
0.00421931
0.000411837
0.000342847
0.000245064
0.000126345
-9.11329e-06
-0.000156136
-0.000309437
-0.000464186
-0.000616112
-0.000761516
-0.000897262
-0.00102075
-0.00112983
-0.00122281
-0.00129828
-0.00135517
-0.00139261
-0.00140991
-0.00140653
-0.00138204
-0.00133612
-0.00126849
-0.00117899
-0.00106749
-0.000933996
-0.00077856
-0.000601369
-0.000402732
-0.000183104
5.68887e-05
0.000316436
0.000594519
0.000889895
0.00120109
0.00152636
0.00186375
0.002211
0.00256566
0.00292501
0.00328611
0.00364585
0.00400097
0.00434809
0.00468377
0.00500457
0.00530707
0.005588
0.00584425
0.00607296
0.00627159
0.00643797
0.00657038
0.00666758
0.00672885
0.00675409
0.00674374
0.00669888
0.00662121
0.00651301
0.00637714
0.006217
0.0060365
0.00583998
0.00563216
0.00541807
0.00520295
0.00499222
0.00479133
0.00460569
0.00444056
0.0043009
0.00419136
0.0041172
0.00408455
0.00408482
0.000626502
0.000528639
0.00040621
0.000273206
0.000130641
-1.83571e-05
-0.00016974
-0.000319756
-0.000465092
-0.00060285
-0.000730548
-0.000846103
-0.000947796
-0.00103422
-0.00110424
-0.00115694
-0.00119158
-0.00120755
-0.00120436
-0.00118161
-0.00113894
-0.0010761
-0.000992871
-0.000889091
-0.000764687
-0.000619664
-0.000454129
-0.000268309
-6.25683e-05
0.000162567
0.00040639
0.000667997
0.000946266
0.00123984
0.00154713
0.00186629
0.00219523
0.0025316
0.00287285
0.00321618
0.00355862
0.00389703
0.00422817
0.00454873
0.00485535
0.00514476
0.00541375
0.0056593
0.00587863
0.00606925
0.00622904
0.0063563
0.00644982
0.00650888
0.00653336
0.00652367
0.00648086
0.00640653
0.00630289
0.00617267
0.00601912
0.00584597
0.00565733
0.00545766
0.00525166
0.00504423
0.00484036
0.00464505
0.00446323
0.00429965
0.00415878
0.00404486
0.00396246
0.00391656
0.00390179
0.000861419
0.000731953
0.000581281
0.000430052
0.000276263
0.000121152
-3.23184e-05
-0.000181368
-0.000323571
-0.000456798
-0.000579209
-0.000689254
-0.000785646
-0.000867327
-0.000933431
-0.000983247
-0.00101619
-0.00103175
-0.00102952
-0.00100912
-0.000970228
-0.000912551
-0.000835845
-0.000739912
-0.000624612
-0.000489876
-0.000335728
-0.0001623
3.01453e-05
0.000241191
0.000470249
0.000716536
0.000979057
0.00125659
0.00154766
0.00185058
0.00216337
0.00248382
0.0028095
0.00313774
0.00346566
0.00379025
0.00410834
0.00441671
0.00471208
0.00499122
0.00525098
0.00548838
0.00570065
0.00588532
0.00604026
0.00616377
0.0062546
0.00631203
0.00633588
0.00632653
0.00628494
0.00621266
0.0061118
0.00598498
0.00583534
0.00566642
0.00548217
0.00528681
0.0050848
0.00488074
0.00467928
0.00448505
0.00430257
0.00413617
0.00398993
0.00386768
0.0037732
0.00370999
0.00367652
0.00110599
0.000943502
0.000762383
0.000590193
0.000422129
0.000257717
9.89711e-05
-5.21946e-05
-0.000194173
-0.000325557
-0.000445127
-0.000551859
-0.000644905
-0.000723564
-0.000787259
-0.000835506
-0.000867885
-0.000884025
-0.000883583
-0.000866238
-0.000831679
-0.000779612
-0.00070976
-0.000621875
-0.000515751
-0.000391239
-0.00024827
-8.68723e-05
9.28024e-05
0.000290458
0.000505632
0.000737669
0.000985708
0.00124866
0.00152519
0.00181371
0.0021124
0.00241916
0.00273166
0.00304732
0.00336338
0.00367687
0.00398471
0.00428371
0.00457062
0.00484224
0.00509542
0.00532716
0.00553468
0.00571546
0.00586736
0.0059886
0.00607789
0.00613444
0.00615801
0.0061489
0.00610801
0.0060368
0.00593729
0.00581201
0.00566396
0.00549659
0.00531367
0.00511926
0.00491761
0.00471307
0.00451005
0.00431286
0.00412571
0.0039526
0.00379726
0.00366319
0.00355336
0.00346975
0.00341502
0.00135093
0.00115488
0.000942113
0.000747177
0.000562678
0.000386597
0.000220118
6.43798e-05
-7.97598e-05
-0.000211568
-0.000330417
-0.000435791
-0.000527274
-0.000604526
-0.000667263
-0.000715234
-0.0007482
-0.000765924
-0.000768153
-0.000754619
-0.000725034
-0.000679096
-0.000616498
-0.000536939
-0.000440142
-0.000325872
-0.000193959
-4.43195e-05
0.000123016
0.000307881
0.000509943
0.000728687
0.000963386
0.00121309
0.00147659
0.00175244
0.00203892
0.00233404
0.00263558
0.00294104
0.00324771
0.00355269
0.00385293
0.00414524
0.00442639
0.00469314
0.00494232
0.00517088
0.00537596
0.00555498
0.0057057
0.00582628
0.00591532
0.00597195
0.00599581
0.00598714
0.00594673
0.00587595
0.00577672
0.00565149
0.00550318
0.00533509
0.00515089
0.00495451
0.00475003
0.00454165
0.00433355
0.00412984
0.00393448
0.00375119
0.00358349
0.00343456
0.00330668
0.0032003
0.00312258
0.00158808
0.00135848
0.00111359
0.000894843
0.000692457
0.000503009
0.000326949
0.000164722
1.64964e-05
-0.000117623
-0.000237565
-0.000343303
-0.000434836
-0.000512178
-0.000575337
-0.000624294
-0.000658994
-0.000679333
-0.000685153
-0.000676241
-0.00065233
-0.000613112
-0.000558245
-0.000487372
-0.00040014
-0.00029622
-0.000175334
-3.72789e-05
0.000118044
0.000290604
0.000480211
0.00068649
0.000908859
0.0011465
0.00139835
0.00166308
0.00193909
0.00222449
0.00251713
0.0028146
0.00311423
0.00341315
0.00370832
0.00399653
0.00427453
0.00453903
0.00478676
0.00501461
0.0052196
0.00539906
0.00555061
0.00567229
0.00576257
0.00582044
0.00584545
0.00583769
0.00579785
0.0057272
0.00562757
0.0055013
0.00535122
0.00518057
0.0049929
0.00479205
0.004582
0.00436682
0.00415055
0.00393717
0.00373045
0.00353395
0.00335099
0.00318461
0.00303641
0.00290548
0.0028036
0.00181016
0.00154743
0.00127041
0.00102733
0.000806158
0.000602178
0.00041519
0.000245007
9.11635e-05
-4.68203e-05
-0.000169399
-0.000277005
-0.000370039
-0.000448854
-0.00051374
-0.000564906
-0.000602476
-0.000626476
-0.000636841
-0.00063341
-0.000615936
-0.000584098
-0.000537518
-0.000475777
-0.000398438
-0.000305073
-0.000195288
-6.87535e-05
7.47679e-05
0.000235388
0.000413066
0.000607577
0.000818485
0.00104512
0.00128654
0.00154156
0.00180868
0.00208611
0.00237178
0.00266333
0.00295813
0.00325334
0.00354587
0.00383251
0.00410992
0.00437474
0.00462361
0.00485326
0.00506061
0.00524282
0.00539735
0.00552206
0.00561528
0.00567584
0.00570311
0.00569704
0.00565821
0.00558775
0.00548738
0.00535936
0.00520643
0.00503176
0.00483883
0.00463141
0.00441343
0.00418887
0.00396173
0.00373587
0.003515
0.00330257
0.00310182
0.0029157
0.00274528
0.0025884
0.00246154
0.00201062
0.0017154
0.00140662
0.00113907
0.000898635
0.00067938
0.00048052
0.000301286
0.000140626
-2.48967e-06
-0.000129006
-0.000239792
-0.000335629
-0.000417191
-0.000485037
-0.000539594
-0.000581156
-0.000609875
-0.000625768
-0.000628724
-0.000618508
-0.000594784
-0.000557129
-0.000505055
-0.000438037
-0.000355539
-0.000257043
-0.000142084
-1.02809e-05
0.000138632
0.000304769
0.00048806
0.000688225
0.00090474
0.00113681
0.00138337
0.00164303
0.00191409
0.00219457
0.00248215
0.00277423
0.00306795
0.00336021
0.00364773
0.00392711
0.00419484
0.00444745
0.00468152
0.00489377
0.00508118
0.00524101
0.00537093
0.00546905
0.005534
0.00556496
0.00556172
0.00552467
0.00545482
0.00535376
0.00522366
0.00506717
0.00488739
0.00468779
0.00447207
0.00424415
0.004008
0.00376759
0.00352679
0.00328928
0.00305848
0.00283767
0.00262979
0.00243548
0.00225147
0.00209896
0.00218345
0.00185655
0.0015166
0.00122477
0.000964909
0.000729971
0.000518618
0.000329543
0.000161141
1.18692e-05
-0.000119681
-0.00023479
-0.000334597
-0.00042008
-0.000492052
-0.000551144
-0.000597807
-0.000632311
-0.000654747
-0.000665042
-0.000662969
-0.000648167
-0.00062016
-0.000578387
-0.000522225
-0.00045102
-0.000364127
-0.000260934
-0.000140906
-3.61724e-06
0.00015121
0.000323673
0.000513649
0.000720771
0.000944393
0.00118357
0.00143703
0.00170319
0.00198012
0.00226554
0.00255688
0.00285126
0.00314555
0.00343639
0.00372026
0.00399353
0.00425256
0.00449373
0.00471358
0.00490882
0.00507651
0.00521405
0.0053193
0.00539066
0.00542708
0.00542814
0.00539403
0.00532559
0.00522428
0.00509215
0.00493178
0.00474621
0.00453887
0.00431347
0.00407395
0.0038243
0.00356855
0.00331061
0.00305421
0.00280286
0.00255991
0.00232842
0.00210869
0.00189646
0.00171768
0.00232308
0.00196544
0.00159509
0.00127936
0.00100017
0.000749399
0.00052519
0.000325728
0.000148885
-7.36512e-06
-0.000144872
-0.000265302
-0.00037013
-0.000460624
-0.000537828
-0.000602566
-0.000655432
-0.000696798
-0.000726821
-0.000745458
-0.000752478
-0.000747485
-0.000729946
-0.000699213
-0.000654558
-0.000595204
-0.000520363
-0.000429273
-0.000321234
-0.000195651
-5.20718e-05
0.000109774
0.000289935
0.000488208
0.000704098
0.000936801
0.00118517
0.00144771
0.00172256
0.00200751
0.00229998
0.00259709
0.00289564
0.0031922
0.0034831
0.00376458
0.00403279
0.00428389
0.00451418
0.00472011
0.00489844
0.00504628
0.00516123
0.00524136
0.00528538
0.00529259
0.00526296
0.00519715
0.00509643
0.00496274
0.00479855
0.00460687
0.00439111
0.00415501
0.00390254
0.00363779
0.00336488
0.00308783
0.00281053
0.00253661
0.0022696
0.00201275
0.00176614
0.00152458
0.00131884
0.00242429
0.00203692
0.00163709
0.00129801
0.000999781
0.000733225
0.000495998
0.000285797
9.99971e-05
-6.3892e-05
-0.000208134
-0.000334764
-0.000445572
-0.000542091
-0.000625588
-0.000697057
-0.000757223
-0.000806548
-0.000845241
-0.000873276
-0.000890409
-0.000896201
-0.000890048
-0.00087121
-0.000838842
-0.000792036
-0.000729852
-0.000651365
-0.000555702
-0.000442088
-0.000309886
-0.000158641
1.18784e-05
0.000201642
0.000410321
0.000637257
0.000881435
0.00114146
0.00141557
0.00170158
0.00199694
0.00229874
0.00260374
0.00290838
0.00320888
0.00350128
0.00378153
0.00404553
0.0042893
0.00450898
0.00470102
0.00486218
0.0049897
0.00508136
0.0051355
0.00515114
0.00512798
0.00506643
0.00496758
0.0048332
0.00466569
0.00446798
0.00424348
0.00399599
0.00372955
0.00344837
0.00315674
0.00285885
0.00255879
0.00226042
0.00196752
0.00168362
0.00140865
0.00113655
0.000903048
0.00248214
0.00206613
0.00163783
0.00127611
0.00095926
0.000677125
0.000426877
0.000205739
1.06088e-05
-0.000161448
-0.000313092
-0.000446704
-0.000564372
-0.000667879
-0.000758693
-0.000837964
-0.000906532
-0.000964936
-0.00101342
-0.00105198
-0.00108032
-0.00109797
-0.00110423
-0.00109827
-0.00107911
-0.0010457
-0.000996946
-0.000931743
-0.000849036
-0.000747857
-0.000627371
-0.000486928
-0.000326099
-0.000144727
5.70369e-05
0.000278696
0.000519377
0.00077781
0.00105231
0.00134076
0.00164063
0.00194899
0.00226253
0.0025776
0.00289027
0.00319638
0.00349163
0.00377166
0.00403215
0.00426892
0.00447801
0.00465583
0.00479922
0.00490554
0.00497277
0.00499958
0.00498534
0.00493016
0.00483492
0.00470121
0.00453128
0.00432804
0.00409488
0.00383565
0.00355453
0.00325588
0.00294419
0.00262392
0.00229941
0.0019748
0.00165425
0.0013416
0.00103672
0.000732741
0.000470448
0.00249195
0.00204845
0.00159278
0.00120921
0.000874296
0.000576911
0.000313759
8.16043e-05
-0.000123119
-0.000303772
-0.000463395
-0.000604699
-0.000730052
-0.000841467
-0.000940599
-0.00102874
-0.00110683
-0.00117546
-0.00123492
-0.00128518
-0.00132592
-0.0013566
-0.00137643
-0.00138446
-0.00137958
-0.00136059
-0.00132622
-0.00127518
-0.00120622
-0.00111817
-0.00100997
-0.000880771
-0.000729927
-0.000557079
-0.000362183
-0.000145556
9.20897e-05
0.000349617
0.000625443
0.000917529
0.00122338
0.00154004
0.00186416
0.00219197
0.00251938
0.00284202
0.00315535
0.00345469
0.00373537
0.00399281
0.00422265
0.00442084
0.00458377
0.00470836
0.00479213
0.00483334
0.00483096
0.00478479
0.00469541
0.00456419
0.00439325
0.00418541
0.00394406
0.00367314
0.00337695
0.00306007
0.00272723
0.0023832
0.00203267
0.00168014
0.00133017
0.00098704
0.000650592
0.000313189
2.08583e-05
0.00244924
0.00197949
0.00149763
0.00109309
0.000740746
0.000428534
0.000152689
-9.04708e-05
-0.000304965
-0.000494568
-0.000662683
-0.000812335
-0.000946156
-0.00106638
-0.00117482
-0.00127291
-0.00136166
-0.00144172
-0.00151339
-0.00157661
-0.00163103
-0.00167602
-0.0017107
-0.00173399
-0.00174465
-0.00174128
-0.00172245
-0.00168667
-0.00163248
-0.00155848
-0.0014634
-0.00134615
-0.00120586
-0.00104195
-0.000854148
-0.00064258
-0.000407777
-0.000150717
0.000127141
0.000423849
0.000736957
0.00106352
0.00140013
0.00174292
0.00208764
0.00242971
0.00276429
0.00308638
0.00339093
0.00367293
0.00392753
0.00415021
0.00433681
0.00448374
0.00458802
0.00464739
0.0046604
0.00462642
0.00454571
0.00441936
0.00424932
0.00403829
0.00378969
0.0035075
0.0031962
0.00286061
0.00250577
0.0021368
0.00175879
0.00137669
0.000995546
0.000620138
0.000250333
-0.000122277
-0.000446159
0.00234977
0.00185504
0.00134826
0.0009237
0.000554647
0.000228103
-6.01506e-05
-0.000314239
-0.000538621
-0.000737473
-0.000914547
-0.00107317
-0.00121622
-0.00134613
-0.00146488
-0.00157401
-0.00167459
-0.00176733
-0.00185251
-0.00193005
-0.00199953
-0.00206025
-0.00211121
-0.00215119
-0.00217879
-0.00219245
-0.00219054
-0.00217135
-0.0021332
-0.00207446
-0.00199361
-0.00188931
-0.00176044
-0.00160618
-0.00142601
-0.00121984
-0.000987979
-0.000731237
-0.000450913
-0.000148843
0.000172594
0.000510479
0.000861361
0.00122129
0.00158585
0.00195024
0.00230934
0.00265779
0.00299011
0.00330083
0.00358458
0.00383625
0.00405113
0.004225
0.00435431
0.00443621
0.00446873
0.00445075
0.00438213
0.00426363
0.00409696
0.00388471
0.00363026
0.00333767
0.0030116
0.00265714
0.00227967
0.00188475
0.00147793
0.00106467
0.000650573
0.000240997
-0.000164122
-0.000573974
-0.000931202
0.00218948
0.00167112
0.00114076
0.000697213
0.000312222
-2.81006e-05
-0.000328426
-0.000593316
-0.00082766
-0.00103602
-0.00122249
-0.00139069
-0.00154372
-0.00168421
-0.00181429
-0.00193556
-0.00204921
-0.00215592
-0.00225599
-0.00234929
-0.00243534
-0.00251333
-0.00258214
-0.00264041
-0.00268657
-0.00271888
-0.00273549
-0.00273447
-0.00271391
-0.00267191
-0.00260671
-0.00251668
-0.00240043
-0.00225686
-0.00208521
-0.00188511
-0.00165664
-0.00140039
-0.00111748
-0.000809591
-0.000479012
-0.00012861
0.000238151
0.000617245
0.00100411
0.00139373
0.00178067
0.00215921
0.00252342
0.00286731
0.00318493
0.00347055
0.0037188
0.00392477
0.00408423
0.00419368
0.00425049
0.004253
0.00420056
0.00409355
0.00393338
0.00372245
0.0034641
0.00316246
0.00282237
0.00244922
0.00204879
0.00162711
0.00119025
0.00074428
0.000295422
-0.000150313
-0.000592882
-0.00104228
-0.00143495
0.00196453
0.00142399
0.000871444
0.000409996
9.89618e-06
-0.000343604
-0.000655624
-0.000931155
-0.00117551
-0.00139362
-0.00158992
-0.00176828
-0.00193204
-0.00208402
-0.00222644
-0.00236104
-0.00248901
-0.00261107
-0.00272749
-0.0028381
-0.00294232
-0.00303926
-0.00312765
-0.003206
-0.00327253
-0.00332533
-0.00336231
-0.00338132
-0.00338018
-0.00335673
-0.0033089
-0.0032348
-0.00313274
-0.00300129
-0.00283941
-0.00264643
-0.00242217
-0.00216695
-0.00188168
-0.00156786
-0.00122764
-0.000863789
-0.000479767
-7.96495e-05
0.000331877
0.000749571
0.00116771
0.00158018
0.00198058
0.00236235
0.00271893
0.00304389
0.00333111
0.00357493
0.00377031
0.00391299
0.00399961
0.00402785
0.00399644
0.00390528
0.00375542
0.00354903
0.00328934
0.00298054
0.00262765
0.00223639
0.00181295
0.00136391
0.000895943
0.000415754
-6.97032e-05
-0.000553695
-0.00103604
-0.00152758
-0.00195809
0.00167131
0.0011101
0.00053686
5.86506e-05
-0.000355685
-0.000721726
-0.00104503
-0.00133102
-0.00158541
-0.00181351
-0.00202004
-0.00220916
-0.00238443
-0.0025488
-0.00270465
-0.00285376
-0.00299738
-0.00313623
-0.00327055
-0.00340011
-0.00352425
-0.00364196
-0.00375184
-0.00385222
-0.00394116
-0.00401651
-0.00407597
-0.00411714
-0.00413755
-0.00413477
-0.00410642
-0.00405028
-0.00396433
-0.00384683
-0.00369638
-0.00351199
-0.00329318
-0.00303995
-0.00275296
-0.00243348
-0.00208345
-0.00170556
-0.00130318
-0.000880408
-0.000442043
6.48175e-06
0.000459148
0.000909447
0.00135048
0.00177511
0.00217607
0.00254619
0.00287852
0.00316651
0.00340426
0.0035866
0.00370934
0.00376933
0.00376462
0.0036945
0.00355957
0.00336167
0.00310389
0.00279043
0.0024265
0.00201813
0.001572
0.00109526
0.000595248
7.94068e-05
-0.000444511
-0.000968964
-0.0014936
-0.00203017
-0.00250123
0.00130647
0.000726165
0.000133794
-0.000359981
-0.000787639
-0.00116555
-0.00149972
-0.00179597
-0.00206041
-0.00229871
-0.00251591
-0.00271641
-0.00290395
-0.00308167
-0.00325203
-0.00341689
-0.00357754
-0.0037347
-0.00388855
-0.00403881
-0.00418474
-0.00432517
-0.0044586
-0.00458317
-0.00469675
-0.00479697
-0.00488129
-0.00494703
-0.00499145
-0.0050118
-0.00500537
-0.00496961
-0.00490213
-0.00480081
-0.0046639
-0.00449004
-0.00427836
-0.00402855
-0.00374093
-0.00341648
-0.00305693
-0.00266477
-0.00224328
-0.00179653
-0.00132938
-0.000847434
-0.000356993
0.000135042
0.000621268
0.00109391
0.001545
0.00196651
0.00235058
0.00268971
0.00297697
0.00320618
0.00337216
0.00347083
0.00349938
0.00345639
0.00334186
0.00315724
0.00290539
0.00259048
0.00221786
0.00179391
0.0013258
0.000821309
0.00028852
-0.000264321
-0.00082857
-0.00139579
-0.00196542
-0.00255019
-0.00306483
0.000866913
0.000269179
-0.000340697
-0.000848792
-0.00128882
-0.00167792
-0.0020225
-0.00232879
-0.00260331
-0.00285205
-0.00308034
-0.00329282
-0.00349345
-0.00368547
-0.00387148
-0.00405339
-0.00423251
-0.00440954
-0.00458464
-0.00475746
-0.00492714
-0.00509242
-0.00525162
-0.00540272
-0.00554339
-0.00567102
-0.00578283
-0.00587585
-0.00594705
-0.00599333
-0.00601166
-0.00599909
-0.00595285
-0.00587042
-0.00574963
-0.0055887
-0.00538635
-0.00514188
-0.00485521
-0.004527
-0.00415868
-0.00375249
-0.00331156
-0.00283987
-0.0023423
-0.00182459
-0.00129329
-0.000755678
-0.000219674
0.000306307
0.000813508
0.00129302
0.00173598
0.00213381
0.00247843
0.00276254
0.00297978
0.00312497
0.00319432
0.00318552
0.00309786
0.00293224
0.00269121
0.00237883
0.00200058
0.00156316
0.00107425
0.000542324
-2.37455e-05
-0.000614814
-0.00122125
-0.00183363
-0.00245115
-0.00308757
-0.00364914
0.000349829
-0.00026359
-0.000889271
-0.00141039
-0.00186182
-0.00226138
-0.00261592
-0.00293205
-0.00321665
-0.00347605
-0.00371587
-0.00394097
-0.00415549
-0.00436282
-0.00456563
-0.00476591
-0.00496498
-0.00516353
-0.00536168
-0.00555899
-0.00575453
-0.00594688
-0.00613424
-0.00631438
-0.00648478
-0.0066426
-0.00678478
-0.00690809
-0.00700914
-0.00708453
-0.00713082
-0.00714467
-0.00712288
-0.00706251
-0.0069609
-0.00681583
-0.00662554
-0.00638887
-0.00610531
-0.00577509
-0.00539929
-0.00497984
-0.00451962
-0.00402248
-0.00349326
-0.00293777
-0.00236277
-0.0017759
-0.00118558
-0.000600886
-3.13813e-05
0.000513066
0.00102252
0.0014872
0.00189777
0.0022456
0.00252303
0.0027236
0.00284234
0.00287586
0.00282258
0.00268273
0.00245839
0.00215344
0.0017734
0.00132529
0.000817331
0.000258688
-0.000340873
-0.000971233
-0.00162167
-0.00228166
-0.00295013
-0.00364196
-0.0042541
-0.000247264
-0.000874553
-0.00151428
-0.00204709
-0.0025089
-0.0029182
-0.00328222
-0.00360797
-0.00390267
-0.00417297
-0.00442476
-0.00466311
-0.00489235
-0.00511598
-0.00533679
-0.00555679
-0.00577734
-0.0059991
-0.00622214
-0.00644597
-0.00666955
-0.00689133
-0.00710935
-0.00732121
-0.00752417
-0.00771517
-0.00789087
-0.00804773
-0.00818204
-0.00829002
-0.00836785
-0.00841176
-0.00841808
-0.0083834
-0.00830456
-0.0081788
-0.00800386
-0.00777804
-0.00750033
-0.00717048
-0.0067891
-0.00635774
-0.00587897
-0.00535642
-0.0047948
-0.00419994
-0.00357876
-0.00293921
-0.00229018
-0.00164142
-0.00100331
-0.000386744
0.000197191
0.000737419
0.0012232
0.00164441
0.00199191
0.00225775
0.00243557
0.00252071
0.00251049
0.0024043
0.00220362
0.00191199
0.00153494
0.00107971
0.000555071
-2.90535e-05
-0.000661963
-0.00133246
-0.00202863
-0.00273872
-0.00346135
-0.0042126
-0.00487928
-0.00092651
-0.00156579
-0.00221773
-0.00276086
-0.00323202
-0.00365031
-0.00402335
-0.00435848
-0.00466328
-0.00494472
-0.0052089
-0.00546115
-0.00570593
-0.00594689
-0.00618687
-0.00642797
-0.00667153
-0.00691822
-0.00716807
-0.0074205
-0.00767437
-0.00792802
-0.00817934
-0.00842574
-0.00866427
-0.00889162
-0.00910419
-0.00929812
-0.00946938
-0.00961378
-0.00972709
-0.00980508
-0.00984361
-0.00983873
-0.00978674
-0.00968431
-0.00952858
-0.00931728
-0.00904879
-0.00872231
-0.00833791
-0.00789667
-0.00740075
-0.00685344
-0.00625927
-0.005624
-0.00495461
-0.00425933
-0.00354748
-0.00282944
-0.00211645
-0.00142043
-0.000753701
-0.000128752
0.000442132
0.000947193
0.00137557
0.00171764
0.00196538
0.00211266
0.00215546
0.00209209
0.00192323
0.00165197
0.00128367
0.0008258
0.000287618
-0.000320166
-0.000985845
-0.00169706
-0.00244056
-0.00320324
-0.00398338
-0.00479831
-0.0055238
-0.00168968
-0.00233901
-0.0030013
-0.00355335
-0.00403281
-0.00445932
-0.00484087
-0.00518516
-0.00550007
-0.00579285
-0.00606987
-0.00633662
-0.00659776
-0.00685703
-0.00711738
-0.00738093
-0.00764906
-0.00792241
-0.00820098
-0.00848412
-0.00877059
-0.00905863
-0.00934595
-0.00962981
-0.00990704
-0.0101741
-0.0104271
-0.0106618
-0.010874
-0.0110589
-0.011212
-0.0113285
-0.0114037
-0.0114332
-0.0114126
-0.0113381
-0.011206
-0.0110135
-0.0107583
-0.0104389
-0.0100547
-0.00960637
-0.0090954
-0.00852472
-0.00789854
-0.00722245
-0.00650343
-0.00574987
-0.00497149
-0.00417926
-0.00338524
-0.00260241
-0.00184439
-0.00112518
-0.000458726
0.000141381
0.000662369
0.00109269
0.00142241
0.00164363
0.00175073
0.00174069
0.00161316
0.00137056
0.00101798
0.000562955
1.52334e-05
-0.000613684
-0.00131103
-0.00206317
-0.00285541
-0.00367315
-0.00451423
-0.00539736
-0.00618622
-0.00253817
-0.00319557
-0.00386628
-0.00442582
-0.0049125
-0.00534647
-0.00573604
-0.00608922
-0.00641422
-0.00671854
-0.00700879
-0.00729065
-0.00756892
-0.00784748
-0.00812933
-0.00841667
-0.00871088
-0.0090126
-0.0093218
-0.00963775
-0.00995915
-0.0102841
-0.0106102
-0.0109345
-0.0112537
-0.0115639
-0.011861
-0.0121405
-0.0123977
-0.0126275
-0.0128249
-0.0129846
-0.0131015
-0.0131703
-0.0131863
-0.0131447
-0.0130413
-0.0128725
-0.0126353
-0.0123273
-0.0119475
-0.0114955
-0.0109724
-0.0103805
-0.00972362
-0.00900707
-0.00823771
-0.00742398
-0.00657592
-0.005705
-0.00482411
-0.00394726
-0.00308942
-0.00226615
-0.00149322
-0.000786205
-0.000160015
0.000371611
0.00079657
0.00110486
0.00128897
0.00134422
0.00126897
0.00106473
0.000736099
0.000290589
-0.000261667
-0.000908376
-0.00163566
-0.00242851
-0.00327065
-0.00414581
-0.00505133
-0.00600739
-0.00686444
-0.00347294
-0.00413639
-0.0048136
-0.00537917
-0.005872
-0.00631264
-0.0067097
-0.0070715
-0.00740654
-0.00772256
-0.00802639
-0.00832391
-0.00862004
-0.00891878
-0.00922323
-0.00953562
-0.00985736
-0.0101891
-0.0105308
-0.0108816
-0.0112402
-0.0116046
-0.0119722
-0.01234
-0.0127044
-0.0130613
-0.0134063
-0.0137346
-0.0140411
-0.0143204
-0.014567
-0.0147749
-0.0149386
-0.0150522
-0.0151102
-0.0151071
-0.015038
-0.0148985
-0.0146845
-0.0143932
-0.0140224
-0.0135711
-0.0130396
-0.0124296
-0.0117443
-0.0109885
-0.0101689
-0.00929391
-0.00837373
-0.00742027
-0.00644714
-0.00546938
-0.0045033
-0.0035661
-0.00267548
-0.00184918
-0.00110444
-0.000457465
7.71527e-05
0.000486983
0.000762262
0.000896314
0.000885862
0.000731197
0.000436197
8.16515e-06
-0.000542478
-0.00120269
-0.00195743
-0.00279024
-0.00368309
-0.00461788
-0.00559138
-0.00662528
-0.00755564
-0.00449454
-0.00516201
-0.00584376
-0.00641392
-0.00691181
-0.0073583
-0.00776232
-0.00813245
-0.00847743
-0.00880526
-0.00912297
-0.0094366
-0.00975123
-0.010071
-0.010399
-0.0107376
-0.0110882
-0.0114516
-0.0118275
-0.0122152
-0.0126132
-0.0130195
-0.0134313
-0.0138455
-0.0142583
-0.0146654
-0.0150622
-0.0154434
-0.0158037
-0.0161372
-0.0164379
-0.0166994
-0.0169154
-0.0170794
-0.0171853
-0.0172267
-0.017198
-0.0170937
-0.0169091
-0.0166402
-0.0162841
-0.0158386
-0.0153034
-0.0146792
-0.0139685
-0.0131757
-0.0123069
-0.0113706
-0.0103767
-0.00933764
-0.00826758
-0.00718255
-0.00610016
-0.0050393
-0.00401967
-0.00306132
-0.00218406
-0.00140682
-0.000747011
-0.00021985
0.000162243
0.000390193
0.000458691
0.000366464
0.000116359
-0.000284768
-0.00082636
-0.00149468
-0.00227354
-0.00314491
-0.00408887
-0.00508529
-0.00613026
-0.0072471
-0.0082561
-0.00560306
-0.00627253
-0.00695688
-0.00753018
-0.00803203
-0.00848358
-0.00889398
-0.00927208
-0.00962687
-0.00996654
-0.0102983
-0.0106284
-0.0109621
-0.0113035
-0.011656
-0.0120218
-0.0124025
-0.0127988
-0.0132106
-0.013637
-0.0140765
-0.014527
-0.0149856
-0.0154491
-0.0159135
-0.0163743
-0.0168266
-0.0172649
-0.0176834
-0.0180758
-0.0184357
-0.0187561
-0.0190301
-0.0192506
-0.0194105
-0.0195028
-0.0195209
-0.0194585
-0.0193098
-0.0190699
-0.0187346
-0.018301
-0.0177675
-0.017134
-0.0164022
-0.0155755
-0.0146598
-0.0136629
-0.0125949
-0.0114682
-0.0102974
-0.00909947
-0.00789326
-0.00669934
-0.0055395
-0.00443621
-0.00341203
-0.00248889
-0.00168736
-0.00102583
-0.000519815
-0.000181248
-1.79183e-05
-3.30944e-05
-0.000225331
-0.000588519
-0.00111217
-0.00178198
-0.0025806
-0.00348836
-0.00448329
-0.00554305
-0.00666291
-0.00786787
-0.00896109
-0.00679816
-0.00746764
-0.00815268
-0.00872769
-0.00923242
-0.00968819
-0.0101044
-0.0104901
-0.0108544
-0.0112059
-0.0115518
-0.0118986
-0.0122517
-0.0126153
-0.0129928
-0.0133867
-0.0137985
-0.014229
-0.014678
-0.0151447
-0.0156276
-0.0161244
-0.0166323
-0.0171478
-0.0176668
-0.0181846
-0.0186961
-0.0191954
-0.0196765
-0.0201326
-0.0205567
-0.0209414
-0.0212791
-0.0215621
-0.0217825
-0.0219324
-0.0220042
-0.0219906
-0.0218849
-0.021681
-0.0213735
-0.0209585
-0.0204332
-0.0197963
-0.0190484
-0.0181923
-0.0172329
-0.0161776
-0.0150361
-0.0138208
-0.0125466
-0.0112312
-0.00989445
-0.00855871
-0.00724782
-0.00598679
-0.00480109
-0.00371592
-0.00275529
-0.00194123
-0.0012928
-0.000825283
-0.000549482
-0.000471157
-0.000590719
-0.00090318
-0.00139841
-0.00206167
-0.00287452
-0.00381562
-0.00486076
-0.00598516
-0.00718318
-0.00848154
-0.00966474
-0.00807904
-0.00874658
-0.00943046
-0.0100058
-0.0105123
-0.0109715
-0.0113928
-0.0117856
-0.0121592
-0.0125222
-0.0128823
-0.0132458
-0.0136184
-0.0140045
-0.0144076
-0.0148301
-0.0152738
-0.0157393
-0.0162267
-0.016735
-0.0172629
-0.0178079
-0.0183671
-0.0189371
-0.0195134
-0.0200914
-0.0206655
-0.0212297
-0.0217775
-0.0223018
-0.0227952
-0.0232496
-0.0236569
-0.0240084
-0.0242957
-0.0245099
-0.0246425
-0.0246851
-0.0246299
-0.0244695
-0.0241974
-0.0238084
-0.0232984
-0.0226649
-0.0219072
-0.021027
-0.0200283
-0.0189181
-0.0177052
-0.0164017
-0.0150228
-0.0135864
-0.0121135
-0.0106281
-0.00915604
-0.00772488
-0.00636316