/*--------------------------------*- C++ -*----------------------------------*\
  =========                 |
  \\      /  F ield         | OpenFOAM: The Open Source CFD Toolbox
   \\    /   O peration     | Website:  https://openfoam.org
    \\  /    A nd           | Version:  12
     \\/     M anipulation  |
\*---------------------------------------------------------------------------*/
FoamFile
{
    format      ascii;
    class       volScalarField;
    location    "2.5";
    object      k;
}
// * * * * * * * * * * * * * * * * * * * * * * * * * * * * * * * * * * * * * //

dimensions      [0 2 -2 0 0 0 0];

internalField   nonuniform List<scalar> 
5625
(
4.01217e-11
2.00306e-10
4.3712e-10
7.19135e-10
1.03146e-09
1.36464e-09
1.71159e-09
2.06658e-09
2.42479e-09
2.7822e-09
3.13538e-09
3.48154e-09
3.81842e-09
4.14432e-09
4.458e-09
4.75873e-09
5.04617e-09
5.32033e-09
5.5815e-09
5.83019e-09
6.06701e-09
6.29263e-09
6.50769e-09
6.71274e-09
6.9082e-09
7.09432e-09
7.27111e-09
7.43841e-09
7.5958e-09
7.74267e-09
7.87819e-09
8.00138e-09
8.11108e-09
8.20602e-09
8.28482e-09
8.34606e-09
8.38827e-09
8.40968e-09
8.41029e-09
8.38824e-09
8.34237e-09
8.27183e-09
8.17602e-09
8.05463e-09
7.90762e-09
7.73534e-09
7.53843e-09
7.3179e-09
7.0751e-09
6.8117e-09
6.52966e-09
6.23122e-09
5.91883e-09
5.5951e-09
5.26274e-09
4.92452e-09
4.58316e-09
4.24131e-09
3.90148e-09
3.56599e-09
3.23694e-09
2.91615e-09
2.6052e-09
2.30538e-09
2.01773e-09
1.74308e-09
1.48212e-09
1.23536e-09
1.00335e-09
7.86796e-10
5.86738e-10
4.049e-10
2.44383e-10
1.11542e-10
2.23204e-11
2.00549e-10
1.72429e-09
3.88493e-09
6.43561e-09
9.25336e-09
1.22562e-08
1.53814e-08
1.85779e-08
2.18027e-08
2.50195e-08
2.81977e-08
3.13123e-08
3.43428e-08
3.72741e-08
4.00952e-08
4.27993e-08
4.53836e-08
4.78483e-08
5.0196e-08
5.24313e-08
5.45598e-08
5.65877e-08
5.85208e-08
6.0364e-08
6.21212e-08
6.37945e-08
6.53843e-08
6.6889e-08
6.83048e-08
6.96262e-08
7.08459e-08
7.19548e-08
7.29425e-08
7.37977e-08
7.4508e-08
7.50604e-08
7.54417e-08
7.56343e-08
7.56384e-08
7.54381e-08
7.50234e-08
7.43868e-08
7.35228e-08
7.24286e-08
7.11043e-08
6.95526e-08
6.77796e-08
6.57944e-08
6.3609e-08
6.12386e-08
5.87009e-08
5.60159e-08
5.32057e-08
5.02939e-08
4.73047e-08
4.4263e-08
4.11932e-08
3.81193e-08
3.50637e-08
3.20473e-08
2.90889e-08
2.62048e-08
2.34093e-08
2.07138e-08
1.81278e-08
1.56585e-08
1.33117e-08
1.10924e-08
9.0057e-09
7.05763e-09
5.2572e-09
3.6192e-09
2.16963e-09
9.59284e-10
1.1147e-10
4.39821e-10
3.90379e-09
8.87056e-09
1.4757e-08
2.12675e-08
2.82078e-08
3.54309e-08
4.2818e-08
5.02693e-08
5.77008e-08
6.50418e-08
7.22337e-08
7.923e-08
8.5995e-08
9.25037e-08
9.87408e-08
1.047e-07
1.10381e-07
1.15792e-07
1.20942e-07
1.25846e-07
1.30517e-07
1.34969e-07
1.39215e-07
1.43262e-07
1.47115e-07
1.50776e-07
1.5424e-07
1.57499e-07
1.60539e-07
1.63345e-07
1.65894e-07
1.68163e-07
1.70125e-07
1.71752e-07
1.73014e-07
1.73881e-07
1.74309e-07
1.7431e-07
1.73837e-07
1.72871e-07
1.71392e-07
1.69388e-07
1.66854e-07
1.63789e-07
1.60201e-07
1.56103e-07
1.51516e-07
1.46469e-07
1.40996e-07
1.35138e-07
1.28942e-07
1.2246e-07
1.15744e-07
1.08851e-07
1.0184e-07
9.47647e-08
8.76818e-08
8.06427e-08
7.36953e-08
6.68828e-08
6.02429e-08
5.38078e-08
4.76041e-08
4.1653e-08
3.59712e-08
3.05717e-08
2.54658e-08
2.06644e-08
1.61814e-08
1.20378e-08
8.26843e-09
4.93602e-09
2.16396e-09
2.43568e-10
7.29768e-10
6.52169e-09
1.48814e-08
2.48268e-08
3.58469e-08
4.76041e-08
5.98447e-08
7.23641e-08
8.49916e-08
9.75834e-08
1.10019e-07
1.22198e-07
1.34041e-07
1.45488e-07
1.56496e-07
1.6704e-07
1.77109e-07
1.86705e-07
1.95839e-07
2.04532e-07
2.12806e-07
2.20685e-07
2.28194e-07
2.35353e-07
2.42176e-07
2.48673e-07
2.54843e-07
2.6068e-07
2.66171e-07
2.71291e-07
2.76012e-07
2.803e-07
2.84111e-07
2.87403e-07
2.90127e-07
2.92234e-07
2.93671e-07
2.94361e-07
2.94336e-07
2.9351e-07
2.91848e-07
2.89319e-07
2.85905e-07
2.81594e-07
2.76386e-07
2.70295e-07
2.63344e-07
2.55568e-07
2.47016e-07
2.37747e-07
2.27831e-07
2.17347e-07
2.0638e-07
1.95024e-07
1.83374e-07
1.71525e-07
1.59576e-07
1.47617e-07
1.35736e-07
1.24015e-07
1.12526e-07
1.01332e-07
9.04863e-08
8.00342e-08
7.00104e-08
6.04425e-08
5.13519e-08
4.27565e-08
3.46748e-08
2.71301e-08
2.01584e-08
1.3821e-08
8.22767e-09
3.5919e-09
4.01531e-10
1.05944e-09
9.49082e-09
2.17057e-08
3.62788e-08
5.24559e-08
6.9733e-08
8.77304e-08
1.06142e-07
1.24714e-07
1.43231e-07
1.61513e-07
1.79412e-07
1.96809e-07
2.13615e-07
2.29767e-07
2.45228e-07
2.59982e-07
2.74034e-07
2.87403e-07
3.00117e-07
3.12213e-07
3.23727e-07
3.34696e-07
3.45149e-07
3.5511e-07
3.64589e-07
3.7359e-07
3.82102e-07
3.90102e-07
3.97559e-07
4.04429e-07
4.10661e-07
4.16194e-07
4.20963e-07
4.24899e-07
4.27929e-07
4.29972e-07
4.3092e-07
4.30828e-07
4.29563e-07
4.27072e-07
4.23312e-07
4.18254e-07
4.11885e-07
4.04204e-07
3.9523e-07
3.84997e-07
3.7356e-07
3.60989e-07
3.4737e-07
3.32808e-07
3.17418e-07
3.01327e-07
2.84673e-07
2.67594e-07
2.50234e-07
2.32734e-07
2.1523e-07
1.97849e-07
1.8071e-07
1.63919e-07
1.47568e-07
1.31734e-07
1.16482e-07
1.0186e-07
8.79093e-08
7.46586e-08
6.21335e-08
5.03602e-08
3.9373e-08
2.92257e-08
2.00102e-08
1.18903e-08
5.17904e-09
5.77544e-10
1.42368e-09
1.27679e-08
2.9239e-08
4.89303e-08
7.08222e-08
9.42272e-08
1.18624e-07
1.43591e-07
1.68779e-07
1.9389e-07
2.18677e-07
2.42933e-07
2.66497e-07
2.89243e-07
3.11087e-07
3.31978e-07
3.51897e-07
3.70851e-07
3.88866e-07
4.05986e-07
4.22261e-07
4.37742e-07
4.5248e-07
4.66517e-07
4.79883e-07
4.92597e-07
5.04661e-07
5.16061e-07
5.26767e-07
5.36736e-07
5.4591e-07
5.54219e-07
5.61583e-07
5.67914e-07
5.7312e-07
5.77104e-07
5.79748e-07
5.80922e-07
5.80704e-07
5.78902e-07
5.75447e-07
5.70284e-07
5.63373e-07
5.54695e-07
5.44252e-07
5.32067e-07
5.18189e-07
5.02688e-07
4.85662e-07
4.67229e-07
4.47528e-07
4.26717e-07
4.0497e-07
3.82471e-07
3.5941e-07
3.35983e-07
3.12379e-07
2.88783e-07
2.65368e-07
2.42293e-07
2.19701e-07
1.97715e-07
1.76437e-07
1.55953e-07
1.36327e-07
1.17611e-07
9.98425e-08
8.30545e-08
6.7281e-08
5.25679e-08
3.89884e-08
2.66675e-08
1.58269e-08
6.88462e-09
7.66877e-10
1.81972e-09
1.63293e-08
3.74257e-08
6.26834e-08
9.0799e-08
1.20887e-07
1.52271e-07
1.84402e-07
2.16822e-07
2.49142e-07
2.81034e-07
3.12229e-07
3.42511e-07
3.71719e-07
3.99739e-07
4.26507e-07
4.52e-07
4.76228e-07
4.9923e-07
5.21063e-07
5.41795e-07
5.61496e-07
5.80233e-07
5.98062e-07
6.15024e-07
6.31143e-07
6.46423e-07
6.60846e-07
6.74377e-07
6.8696e-07
6.98521e-07
7.08972e-07
7.18212e-07
7.26132e-07
7.32613e-07
7.37536e-07
7.40732e-07
7.42073e-07
7.41643e-07
7.39193e-07
7.34634e-07
7.27898e-07
7.18935e-07
7.07721e-07
6.94258e-07
6.78575e-07
6.60734e-07
6.40827e-07
6.18976e-07
5.95334e-07
5.70079e-07
5.43415e-07
5.15565e-07
4.86766e-07
4.57263e-07
4.27306e-07
3.9714e-07
3.67001e-07
3.37113e-07
3.07679e-07
2.7888e-07
2.50871e-07
2.23785e-07
1.97725e-07
1.72775e-07
1.48995e-07
1.26433e-07
1.05127e-07
8.51203e-08
6.64691e-08
4.92668e-08
3.36729e-08
1.99682e-08
8.67904e-09
9.66172e-10
2.24604e-09
2.0162e-08
4.62351e-08
7.74849e-08
1.12306e-07
1.49602e-07
1.88529e-07
2.28401e-07
2.68638e-07
3.08747e-07
3.48312e-07
3.86988e-07
4.24501e-07
4.60643e-07
4.95274e-07
5.28311e-07
5.59727e-07
5.89539e-07
6.17799e-07
6.44583e-07
6.69979e-07
6.94079e-07
7.16969e-07
7.38722e-07
7.59391e-07
7.79009e-07
7.97581e-07
8.15089e-07
8.31488e-07
8.46713e-07
8.60675e-07
8.73267e-07
8.84368e-07
8.93844e-07
9.01554e-07
9.0735e-07
9.11006e-07
9.12427e-07
9.11674e-07
9.08444e-07
9.02631e-07
8.94151e-07
8.82945e-07
8.68984e-07
8.52268e-07
8.32836e-07
8.10761e-07
7.86157e-07
7.59174e-07
7.29998e-07
6.98851e-07
6.65983e-07
6.31669e-07
5.96201e-07
5.59884e-07
5.23024e-07
4.85926e-07
4.48881e-07
4.12164e-07
3.76027e-07
3.40691e-07
3.06349e-07
2.7316e-07
2.41252e-07
2.10723e-07
1.81645e-07
1.54075e-07
1.28057e-07
1.0364e-07
8.08922e-08
5.99264e-08
4.0936e-08
2.42616e-08
1.05397e-08
1.17288e-09
2.70174e-09
2.42581e-08
5.56496e-08
9.33049e-08
1.35299e-07
1.80311e-07
2.27323e-07
2.75493e-07
3.24112e-07
3.7257e-07
4.20349e-07
4.67019e-07
5.12239e-07
5.5575e-07
5.97378e-07
6.37023e-07
6.74656e-07
7.103e-07
7.44025e-07
7.75927e-07
8.06123e-07
8.34727e-07
8.61849e-07
8.87582e-07
9.11995e-07
9.35129e-07
9.56994e-07
9.77572e-07
9.96813e-07
1.01464e-06
1.03095e-06
1.04562e-06
1.0585e-06
1.06944e-06
1.07828e-06
1.08484e-06
1.08881e-06
1.0902e-06
1.08898e-06
1.08482e-06
1.07759e-06
1.06719e-06
1.05356e-06
1.03665e-06
1.01648e-06
9.93084e-07
9.66553e-07
9.3702e-07
9.04663e-07
8.69706e-07
8.3241e-07
7.93073e-07
7.52023e-07
7.0961e-07
6.66197e-07
6.22152e-07
5.77837e-07
5.33605e-07
4.89783e-07
4.46672e-07
4.0454e-07
3.63616e-07
3.2409e-07
2.86115e-07
2.49805e-07
2.15246e-07
1.82501e-07
1.5162e-07
1.2266e-07
9.56978e-08
7.0865e-08
4.83879e-08
2.86667e-08
1.2449e-08
1.38506e-09
3.18629e-09
2.86131e-08
6.56587e-08
1.10126e-07
1.59752e-07
2.12981e-07
2.68606e-07
3.25623e-07
3.83176e-07
4.40525e-07
4.97039e-07
5.52191e-07
6.05561e-07
6.56835e-07
7.05802e-07
7.52344e-07
7.96427e-07
8.38089e-07
8.77418e-07
9.14539e-07
9.49596e-07
9.82735e-07
1.01409e-06
1.04379e-06
1.07191e-06
1.0985e-06
1.12359e-06
1.14715e-06
1.16913e-06
1.18945e-06
1.20799e-06
1.2246e-06
1.23913e-06
1.25139e-06
1.2612e-06
1.26836e-06
1.27247e-06
1.27368e-06
1.27183e-06
1.26656e-06
1.25773e-06
1.24524e-06
1.229e-06
1.20898e-06
1.18518e-06
1.15765e-06
1.12649e-06
1.09186e-06
1.05397e-06
1.01306e-06
9.69451e-07
9.23475e-07
8.75515e-07
8.25977e-07
7.75283e-07
7.2386e-07
6.72134e-07
6.20513e-07
5.69383e-07
5.19098e-07
4.6997e-07
4.22271e-07
3.76224e-07
3.32006e-07
2.89754e-07
2.49566e-07
2.11514e-07
1.75654e-07
1.42048e-07
1.10783e-07
8.20067e-08
5.59772e-08
3.31531e-08
1.4394e-08
1.60123e-09
3.69927e-09
3.32232e-08
7.62542e-08
1.27934e-07
1.85646e-07
2.47586e-07
3.12347e-07
3.78751e-07
4.45779e-07
5.12547e-07
5.78296e-07
6.42389e-07
7.04321e-07
7.63712e-07
8.20311e-07
8.73982e-07
9.24692e-07
9.72491e-07
1.0175e-06
1.05986e-06
1.09977e-06
1.13741e-06
1.17293e-06
1.2065e-06
1.2382e-06
1.26813e-06
1.29629e-06
1.32268e-06
1.34724e-06
1.36988e-06
1.39045e-06
1.40882e-06
1.42479e-06
1.43818e-06
1.44876e-06
1.45631e-06
1.46033e-06
1.46119e-06
1.45851e-06
1.45193e-06
1.44133e-06
1.42657e-06
1.40757e-06
1.38428e-06
1.35672e-06
1.32494e-06
1.28906e-06
1.24925e-06
1.20573e-06
1.1588e-06
1.1088e-06
1.05612e-06
1.00118e-06
9.44436e-07
8.86372e-07
8.27474e-07
7.68224e-07
7.09093e-07
6.50524e-07
5.92923e-07
5.36654e-07
4.82032e-07
4.29317e-07
3.78717e-07
3.3039e-07
2.84451e-07
2.40982e-07
2.00048e-07
1.61714e-07
1.26077e-07
9.32987e-08
6.36679e-08
3.76996e-08
1.63652e-08
1.82035e-09
4.24025e-09
3.80847e-08
8.7428e-08
1.46716e-07
2.12962e-07
2.84102e-07
3.58516e-07
4.34836e-07
5.11868e-07
5.88568e-07
6.64029e-07
7.37495e-07
8.08361e-07
8.76179e-07
9.40653e-07
1.00163e-06
1.05908e-06
1.11307e-06
1.16375e-06
1.21132e-06
1.256e-06
1.29801e-06
1.33756e-06
1.37483e-06
1.40995e-06
1.44301e-06
1.47404e-06
1.50303e-06
1.52993e-06
1.55464e-06
1.57701e-06
1.59688e-06
1.61405e-06
1.6283e-06
1.6394e-06
1.64707e-06
1.65077e-06
1.65109e-06
1.64734e-06
1.63927e-06
1.6267e-06
1.60952e-06
1.58762e-06
1.56097e-06
1.52957e-06
1.49349e-06
1.45285e-06
1.40785e-06
1.35873e-06
1.3058e-06
1.24945e-06
1.19009e-06
1.1282e-06
1.06427e-06
9.9885e-07
9.32467e-07
8.65667e-07
7.98977e-07
7.32899e-07
6.67896e-07
6.04386e-07
5.42729e-07
4.83229e-07
4.26128e-07
3.71611e-07
3.19814e-07
2.70832e-07
2.24739e-07
1.81606e-07
1.41537e-07
1.04709e-07
7.14377e-08
4.22928e-08
1.83568e-08
2.04176e-09
4.8087e-09
4.31929e-08
9.91693e-08
1.66456e-07
2.41677e-07
3.22497e-07
4.0707e-07
4.93825e-07
5.81376e-07
6.68498e-07
7.54124e-07
8.3736e-07
9.17493e-07
9.93999e-07
1.06654e-06
1.13493e-06
1.19917e-06
1.25934e-06
1.31563e-06
1.36829e-06
1.41758e-06
1.46379e-06
1.50715e-06
1.54789e-06
1.58617e-06
1.62209e-06
1.65571e-06
1.68702e-06
1.71597e-06
1.74245e-06
1.76632e-06
1.78739e-06
1.80545e-06
1.82027e-06
1.8316e-06
1.83903e-06
1.84222e-06
1.84173e-06
1.8367e-06
1.82693e-06
1.81224e-06
1.7925e-06
1.76762e-06
1.73754e-06
1.70229e-06
1.66193e-06
1.6166e-06
1.56649e-06
1.51188e-06
1.45309e-06
1.39052e-06
1.32463e-06
1.25593e-06
1.18494e-06
1.11226e-06
1.03847e-06
9.64169e-07
8.89937e-07
8.16338e-07
7.43892e-07
6.73074e-07
6.04298e-07
5.37914e-07
4.74206e-07
4.13393e-07
3.55634e-07
3.01045e-07
2.49709e-07
2.01707e-07
1.57149e-07
1.16226e-07
7.92773e-08
4.69266e-08
2.0366e-08
2.26519e-09
5.4039e-09
4.85414e-08
1.11464e-07
1.87128e-07
2.71755e-07
3.62724e-07
4.57951e-07
5.55645e-07
6.54209e-07
7.52219e-07
8.4843e-07
9.41795e-07
1.03148e-06
1.11689e-06
1.19762e-06
1.27349e-06
1.34449e-06
1.41076e-06
1.47252e-06
1.53009e-06
1.58378e-06
1.63392e-06
1.68082e-06
1.72473e-06
1.76585e-06
1.8043e-06
1.84017e-06
1.87346e-06
1.90411e-06
1.93201e-06
1.95701e-06
1.97893e-06
1.99753e-06
2.01257e-06
2.0238e-06
2.03066e-06
2.03318e-06
2.03156e-06
2.02503e-06
2.01338e-06
1.99643e-06
1.97405e-06
1.94613e-06
1.91265e-06
1.8736e-06
1.82907e-06
1.77919e-06
1.72417e-06
1.66428e-06
1.59986e-06
1.53133e-06
1.45916e-06
1.38388e-06
1.30605e-06
1.22631e-06
1.14526e-06
1.06358e-06
9.81879e-07
9.00793e-07
8.20901e-07
7.42736e-07
6.66772e-07
5.93415e-07
5.22997e-07
4.55777e-07
3.91948e-07
3.31648e-07
2.74979e-07
2.22031e-07
1.72922e-07
1.27853e-07
8.7189e-08
5.16021e-08
2.2393e-08
2.49066e-09
6.02488e-09
5.41215e-08
1.24291e-07
2.087e-07
3.03149e-07
4.0472e-07
5.11077e-07
6.20192e-07
7.30237e-07
8.39571e-07
9.4675e-07
1.05056e-06
1.15004e-06
1.2445e-06
1.33349e-06
1.41683e-06
1.49452e-06
1.56674e-06
1.63377e-06
1.69599e-06
1.75378e-06
1.80755e-06
1.85764e-06
1.90436e-06
1.94794e-06
1.98855e-06
2.02628e-06
2.06114e-06
2.09308e-06
2.122e-06
2.14774e-06
2.17011e-06
2.18887e-06
2.20377e-06
2.21454e-06
2.22049e-06
2.22212e-06
2.21912e-06
2.21088e-06
2.1972e-06
2.17789e-06
2.15283e-06
2.12191e-06
2.08509e-06
2.0424e-06
1.99389e-06
1.9397e-06
1.88005e-06
1.81519e-06
1.74549e-06
1.67134e-06
1.59323e-06
1.51171e-06
1.42735e-06
1.34081e-06
1.25275e-06
1.16386e-06
1.07482e-06
9.86327e-07
8.99014e-07
8.13482e-07
7.30273e-07
6.49854e-07
5.72615e-07
4.98868e-07
4.28846e-07
3.62718e-07
3.00609e-07
2.42623e-07
1.88887e-07
1.39613e-07
9.51858e-08
5.63264e-08
2.44409e-08
2.71849e-09
6.6704e-09
5.99221e-08
1.37627e-07
2.31131e-07
3.35799e-07
4.48403e-07
5.66341e-07
6.8733e-07
8.09293e-07
9.30348e-07
1.04883e-06
1.16336e-06
1.27282e-06
1.37642e-06
1.47369e-06
1.56442e-06
1.64865e-06
1.72661e-06
1.79865e-06
1.8652e-06
1.92676e-06
1.98376e-06
2.03665e-06
2.08576e-06
2.13138e-06
2.17371e-06
2.21285e-06
2.24883e-06
2.28163e-06
2.31113e-06
2.33718e-06
2.35958e-06
2.3781e-06
2.39249e-06
2.4024e-06
2.40716e-06
2.40769e-06
2.40307e-06
2.39294e-06
2.37712e-06
2.35542e-06
2.3277e-06
2.29386e-06
2.25388e-06
2.20775e-06
2.15554e-06
2.09739e-06
2.03347e-06
1.96406e-06
1.8895e-06
1.81017e-06
1.72656e-06
1.63921e-06
1.54871e-06
1.45572e-06
1.36093e-06
1.26508e-06
1.16888e-06
1.07309e-06
9.78406e-07
8.85503e-07
7.94993e-07
7.07419e-07
6.23239e-07
5.42825e-07
4.66465e-07
3.94369e-07
3.2669e-07
2.63552e-07
2.05095e-07
1.51539e-07
1.0329e-07
6.11121e-08
2.6515e-08
2.94926e-09
7.33888e-09
6.5929e-08
1.51439e-07
2.54365e-07
3.69624e-07
4.93666e-07
6.23605e-07
7.56887e-07
8.91164e-07
1.02429e-06
1.15438e-06
1.27983e-06
1.39939e-06
1.51219e-06
1.61768e-06
1.71567e-06
1.80624e-06
1.88965e-06
1.96637e-06
2.0369e-06
2.1018e-06
2.16162e-06
2.21684e-06
2.26788e-06
2.31507e-06
2.35863e-06
2.39871e-06
2.43535e-06
2.46852e-06
2.49814e-06
2.52404e-06
2.54605e-06
2.56394e-06
2.57745e-06
2.58606e-06
2.58955e-06
2.58864e-06
2.58222e-06
2.5701e-06
2.55209e-06
2.52802e-06
2.49773e-06
2.46115e-06
2.41822e-06
2.36896e-06
2.31341e-06
2.25168e-06
2.18396e-06
2.11048e-06
2.03155e-06
1.94756e-06
1.85895e-06
1.76626e-06
1.67007e-06
1.57105e-06
1.46989e-06
1.36736e-06
1.26423e-06
1.16129e-06
1.05931e-06
9.5904e-07
8.61178e-07
7.66348e-07
6.75089e-07
5.8785e-07
5.04982e-07
4.26748e-07
3.53341e-07
2.84912e-07
2.21614e-07
1.63681e-07
1.11533e-07
6.59766e-08
2.86226e-08
3.18378e-09
8.0284e-09
7.21251e-08
1.65686e-07
2.78337e-07
4.0453e-07
5.40378e-07
6.827e-07
8.28651e-07
9.7559e-07
1.12109e-06
1.26301e-06
1.39955e-06
1.52929e-06
1.65125e-06
1.76486e-06
1.86992e-06
1.96654e-06
2.0551e-06
2.1361e-06
2.21018e-06
2.27798e-06
2.34014e-06
2.39721e-06
2.44968e-06
2.49792e-06
2.54221e-06
2.58271e-06
2.6195e-06
2.65257e-06
2.68183e-06
2.70715e-06
2.72834e-06
2.7452e-06
2.75747e-06
2.76445e-06
2.76662e-06
2.76396e-06
2.75564e-06
2.74147e-06
2.72129e-06
2.69493e-06
2.66226e-06
2.62315e-06
2.57759e-06
2.52554e-06
2.46706e-06
2.40223e-06
2.3312e-06
2.25419e-06
2.17145e-06
2.08335e-06
1.99031e-06
1.89282e-06
1.79145e-06
1.68686e-06
1.57974e-06
1.47087e-06
1.36106e-06
1.25115e-06
1.14197e-06
1.03437e-06
9.29105e-07
8.26912e-07
7.28423e-07
6.34175e-07
5.446e-07
4.60029e-07
3.80704e-07
3.06812e-07
2.38527e-07
1.76095e-07
1.19952e-07
7.0941e-08
3.07726e-08
3.42303e-09
8.73669e-09
7.849e-08
1.80324e-07
3.02968e-07
4.404e-07
5.88383e-07
7.43424e-07
9.02368e-07
1.06226e-06
1.22039e-06
1.37432e-06
1.52203e-06
1.66195e-06
1.79299e-06
1.91455e-06
2.02643e-06
2.1288e-06
2.2221e-06
2.30698e-06
2.38414e-06
2.45434e-06
2.51832e-06
2.57672e-06
2.63008e-06
2.67885e-06
2.72334e-06
2.76376e-06
2.80019e-06
2.83267e-06
2.86112e-06
2.88542e-06
2.90541e-06
2.92089e-06
2.93157e-06
2.93673e-06
2.93747e-06
2.93291e-06
2.92263e-06
2.90644e-06
2.88418e-06
2.8557e-06
2.82086e-06
2.77953e-06
2.73167e-06
2.67726e-06
2.6163e-06
2.54886e-06
2.47506e-06
2.39506e-06
2.3091e-06
2.21748e-06
2.12058e-06
2.01886e-06
1.91286e-06
1.8032e-06
1.69057e-06
1.57574e-06
1.45956e-06
1.3429e-06
1.22666e-06
1.11175e-06
9.99053e-07
8.89391e-07
7.83509e-07
6.82049e-07
5.85542e-07
4.94401e-07
4.08935e-07
3.29375e-07
2.55925e-07
1.88846e-07
1.28588e-07
7.60295e-08
3.29752e-08
3.66814e-09
9.46113e-09
8.50002e-08
1.95298e-07
3.28169e-07
4.77102e-07
6.375e-07
8.05542e-07
9.77746e-07
1.15083e-06
1.32175e-06
1.4878e-06
1.64672e-06
1.79677e-06
1.93676e-06
2.06603e-06
2.18442e-06
2.29217e-06
2.38981e-06
2.47808e-06
2.55783e-06
2.62991e-06
2.69517e-06
2.75435e-06
2.80807e-06
2.85682e-06
2.90098e-06
2.9408e-06
2.97639e-06
3.00782e-06
3.03503e-06
3.05793e-06
3.07639e-06
3.09024e-06
3.09893e-06
3.1024e-06
3.10147e-06
3.09499e-06
3.08278e-06
3.06469e-06
3.04053e-06
3.01016e-06
2.97344e-06
2.93023e-06
2.88047e-06
2.82411e-06
2.76114e-06
2.6916e-06
2.61554e-06
2.53311e-06
2.44449e-06
2.34993e-06
2.24977e-06
2.1444e-06
2.03432e-06
1.9201e-06
1.80244e-06
1.68207e-06
1.55986e-06
1.4367e-06
1.31356e-06
1.19143e-06
1.07128e-06
9.54054e-07
8.40612e-07
7.31724e-07
6.28036e-07
5.30065e-07
4.38201e-07
3.52735e-07
2.73909e-07
2.02005e-07
1.37488e-07
8.12679e-08
3.52413e-08
3.92032e-09
1.01987e-08
9.1629e-08
2.10546e-07
3.53834e-07
5.14483e-07
6.87522e-07
8.68787e-07
1.05445e-06
1.24089e-06
1.42471e-06
1.60293e-06
1.77302e-06
1.93308e-06
2.08181e-06
2.21852e-06
2.34309e-06
2.4558e-06
2.55731e-06
2.64849e-06
2.73029e-06
2.80372e-06
2.86971e-06
2.92911e-06
2.98264e-06
3.03085e-06
3.07417e-06
3.11289e-06
3.14719e-06
3.17715e-06
3.20276e-06
3.22394e-06
3.2406e-06
3.25257e-06
3.25916e-06
3.2611e-06
3.25831e-06
3.24999e-06
3.23601e-06
3.2162e-06
3.1904e-06
3.15844e-06
3.12019e-06
3.0755e-06
3.02425e-06
2.96638e-06
2.90186e-06
2.83068e-06
2.75287e-06
2.66851e-06
2.57775e-06
2.48079e-06
2.3779e-06
2.26942e-06
2.1558e-06
2.03756e-06
1.91535e-06
1.78989e-06
1.66202e-06
1.53266e-06
1.40284e-06
1.27359e-06
1.14601e-06
1.02113e-06
8.99972e-07
7.83436e-07
6.72305e-07
5.67217e-07
4.68667e-07
3.77024e-07
2.92581e-07
2.15644e-07
1.46699e-07
8.66831e-08
3.75823e-08
4.18083e-09
1.09462e-08
9.83465e-08
2.26e-07
3.7985e-07
5.52375e-07
7.38219e-07
9.32861e-07
1.13212e-06
1.33199e-06
1.52876e-06
1.7191e-06
1.90027e-06
2.07016e-06
2.22737e-06
2.3712e-06
2.50155e-06
2.61879e-06
2.72369e-06
2.81725e-06
2.90058e-06
2.9748e-06
3.04097e-06
3.10006e-06
3.15286e-06
3.20002e-06
3.24202e-06
3.27921e-06
3.31182e-06
3.33996e-06
3.36367e-06
3.38292e-06
3.39763e-06
3.40753e-06
3.41211e-06
3.41259e-06
3.40801e-06
3.39805e-06
3.38254e-06
3.36132e-06
3.33421e-06
3.30104e-06
3.26165e-06
3.21587e-06
3.16356e-06
3.10462e-06
3.03897e-06
2.96658e-06
2.88744e-06
2.8016e-06
2.70915e-06
2.61024e-06
2.50508e-06
2.39398e-06
2.2773e-06
2.15553e-06
2.02924e-06
1.89912e-06
1.766e-06
1.63079e-06
1.49453e-06
1.35833e-06
1.22336e-06
1.0908e-06
9.61789e-07
8.37392e-07
7.18548e-07
6.06043e-07
5.00497e-07
4.02376e-07
3.12041e-07
2.29837e-07
1.56269e-07
9.23021e-08
4.00094e-08
4.45092e-09
1.16999e-08
1.0512e-07
2.41585e-07
4.06089e-07
5.90592e-07
7.89338e-07
9.97438e-07
1.21033e-06
1.42366e-06
1.63332e-06
1.83569e-06
2.02776e-06
2.20724e-06
2.37264e-06
2.52322e-06
2.65892e-06
2.78023e-06
2.88802e-06
2.98344e-06
3.06775e-06
3.14222e-06
3.20805e-06
3.2663e-06
3.31788e-06
3.36352e-06
3.40377e-06
3.43906e-06
3.46965e-06
3.49572e-06
3.51734e-06
3.53453e-06
3.54724e-06
3.55502e-06
3.55799e-06
3.55697e-06
3.55088e-06
3.53958e-06
3.52289e-06
3.50066e-06
3.47266e-06
3.43872e-06
3.39864e-06
3.35222e-06
3.29927e-06
3.23966e-06
3.17328e-06
3.10004e-06
3.01992e-06
2.93293e-06
2.83911e-06
2.73859e-06
2.63152e-06
2.51816e-06
2.39883e-06
2.27394e-06
2.144e-06
2.00966e-06
1.87169e-06
1.73098e-06
1.58858e-06
1.44564e-06
1.3034e-06
1.16316e-06
1.0262e-06
8.93753e-07
7.66938e-07
6.46708e-07
5.33838e-07
4.28915e-07
3.32388e-07
2.44652e-07
1.66242e-07
9.81507e-08
4.25335e-08
4.73179e-09
1.24559e-08
1.11915e-07
2.57222e-07
4.32417e-07
6.28933e-07
8.40608e-07
1.06217e-06
1.28867e-06
1.51537e-06
1.7378e-06
1.95202e-06
2.15475e-06
2.34352e-06
2.51676e-06
2.67369e-06
2.81431e-06
2.9392e-06
3.04938e-06
3.14615e-06
3.23092e-06
3.30512e-06
3.37009e-06
3.42703e-06
3.47694e-06
3.52065e-06
3.55881e-06
3.59189e-06
3.62024e-06
3.64407e-06
3.66353e-06
3.67865e-06
3.68943e-06
3.6953e-06
3.69702e-06
3.69467e-06
3.68746e-06
3.67526e-06
3.65789e-06
3.63514e-06
3.60678e-06
3.57258e-06
3.53229e-06
3.48569e-06
3.43255e-06
3.37265e-06
3.30587e-06
3.23208e-06
3.15123e-06
3.0633e-06
2.96832e-06
2.86637e-06
2.7576e-06
2.64222e-06
2.52049e-06
2.39278e-06
2.25954e-06
2.12134e-06
1.97889e-06
1.83305e-06
1.68484e-06
1.53541e-06
1.38608e-06
1.23822e-06
1.09326e-06
9.52623e-07
8.176e-07
6.89348e-07
5.68818e-07
4.56752e-07
3.53709e-07
2.60154e-07
1.76662e-07
1.04253e-07
4.51645e-08
5.02456e-09
1.32101e-08
1.18695e-07
2.72825e-07
4.58688e-07
6.67187e-07
8.9174e-07
1.12668e-06
1.36668e-06
1.60658e-06
1.84158e-06
2.06739e-06
2.28048e-06
2.4782e-06
2.65887e-06
2.82173e-06
2.96681e-06
3.0948e-06
3.20688e-06
3.30448e-06
3.38922e-06
3.46267e-06
3.52632e-06
3.58151e-06
3.62937e-06
3.67083e-06
3.70662e-06
3.7373e-06
3.76328e-06
3.78485e-06
3.80219e-06
3.81539e-06
3.82443e-06
3.82881e-06
3.82963e-06
3.82638e-06
3.81857e-06
3.80604e-06
3.78857e-06
3.76592e-06
3.7378e-06
3.70393e-06
3.664e-06
3.61772e-06
3.56481e-06
3.50502e-06
3.43814e-06
3.36403e-06
3.2826e-06
3.19383e-06
3.09773e-06
2.9944e-06
2.88395e-06
2.76658e-06
2.64254e-06
2.51215e-06
2.3758e-06
2.23401e-06
2.0874e-06
1.93677e-06
1.78307e-06
1.62745e-06
1.47124e-06
1.3159e-06
1.16297e-06
1.01404e-06
8.70611e-07
7.34058e-07
6.0554e-07
4.85982e-07
3.76083e-07
2.76402e-07
1.87567e-07
1.1063e-07
4.79115e-08
5.33021e-09
1.39581e-08
1.25419e-07
2.88303e-07
4.84752e-07
7.05132e-07
9.42434e-07
1.19059e-06
1.44387e-06
1.69674e-06
1.94401e-06
2.18108e-06
2.40416e-06
2.61043e-06
2.79813e-06
2.96646e-06
3.11554e-06
3.24616e-06
3.35964e-06
3.45762e-06
3.54186e-06
3.61412e-06
3.67606e-06
3.72915e-06
3.77465e-06
3.81361e-06
3.84686e-06
3.87505e-06
3.89866e-06
3.91805e-06
3.93346e-06
3.94504e-06
3.95269e-06
3.95613e-06
3.95647e-06
3.95293e-06
3.94518e-06
3.93301e-06
3.91617e-06
3.89434e-06
3.86717e-06
3.8343e-06
3.79535e-06
3.74994e-06
3.69775e-06
3.63844e-06
3.57176e-06
3.49751e-06
3.41558e-06
3.32596e-06
3.22867e-06
3.1238e-06
3.01151e-06
2.89199e-06
2.76551e-06
2.63236e-06
2.49292e-06
2.34763e-06
2.19704e-06
2.04187e-06
1.88299e-06
1.72148e-06
1.55866e-06
1.39602e-06
1.23521e-06
1.07796e-06
9.25987e-07
7.80891e-07
6.44075e-07
5.16678e-07
3.99575e-07
2.93445e-07
1.98988e-07
1.173e-07
5.07819e-08
5.64957e-09
1.46955e-08
1.32049e-07
3.03566e-07
5.10454e-07
7.4254e-07
9.92381e-07
1.2535e-06
1.51977e-06
1.78526e-06
2.04443e-06
2.29236e-06
2.52501e-06
2.73941e-06
2.93367e-06
3.10702e-06
3.25963e-06
3.39242e-06
3.50687e-06
3.60478e-06
3.68812e-06
3.75882e-06
3.8187e-06
3.86941e-06
3.91234e-06
3.94866e-06
3.97931e-06
4.00503e-06
4.02639e-06
4.04382e-06
4.0576e-06
4.06795e-06
4.07482e-06
4.07796e-06
4.07835e-06
4.07527e-06
4.06837e-06
4.05739e-06
4.042e-06
4.02182e-06
3.99641e-06
3.96531e-06
3.92805e-06
3.88416e-06
3.8332e-06
3.77481e-06
3.70863e-06
3.63442e-06
3.55205e-06
3.46148e-06
3.36279e-06
3.25609e-06
3.14159e-06
3.01954e-06
2.89024e-06
2.75402e-06
2.61125e-06
2.46233e-06
2.30777e-06
2.14817e-06
1.98432e-06
1.81719e-06
1.64804e-06
1.47834e-06
1.3098e-06
1.14428e-06
9.8368e-07
8.29853e-07
6.84458e-07
5.48888e-07
4.24231e-07
3.1132e-07
2.10953e-07
1.24279e-07
5.37817e-08
5.98332e-09
1.54178e-08
1.38543e-07
3.18521e-07
5.35635e-07
7.7918e-07
1.04127e-06
1.31501e-06
1.59389e-06
1.87158e-06
2.1422e-06
2.40052e-06
2.64227e-06
2.8643e-06
3.06467e-06
3.24258e-06
3.39828e-06
3.53281e-06
3.64781e-06
3.74528e-06
3.82736e-06
3.89619e-06
3.95377e-06
4.0019e-06
4.04214e-06
4.07577e-06
4.10386e-06
4.12725e-06
4.1466e-06
4.1624e-06
4.175e-06
4.18464e-06
4.19142e-06
4.19509e-06
4.19614e-06
4.19438e-06
4.18923e-06
4.18038e-06
4.1674e-06
4.14981e-06
4.12708e-06
4.09862e-06
4.06386e-06
4.0222e-06
3.97311e-06
3.91611e-06
3.8508e-06
3.77686e-06
3.6941e-06
3.60248e-06
3.50211e-06
3.39317e-06
3.27593e-06
3.15075e-06
3.01801e-06
2.87811e-06
2.73148e-06
2.57854e-06
2.41975e-06
2.25563e-06
2.08686e-06
1.91429e-06
1.73905e-06
1.56255e-06
1.38649e-06
1.21281e-06
1.04358e-06
8.80894e-07
7.26686e-07
5.82635e-07
4.50082e-07
3.30057e-07
2.23481e-07
1.31576e-07
5.69152e-08
6.33193e-09
1.61205e-08
1.44862e-07
3.33073e-07
5.6014e-07
8.14821e-07
1.08879e-06
1.37474e-06
1.66574e-06
1.95513e-06
2.23668e-06
2.50487e-06
2.75519e-06
2.98436e-06
3.19034e-06
3.37235e-06
3.53071e-06
3.66658e-06
3.78177e-06
3.87847e-06
3.95902e-06
4.02576e-06
4.08087e-06
4.12633e-06
4.16384e-06
4.19485e-06
4.22054e-06
4.24185e-06
4.25953e-06
4.27414e-06
4.28611e-06
4.2957e-06
4.30305e-06
4.30817e-06
4.3108e-06
4.31123e-06
4.30882e-06
4.30311e-06
4.29358e-06
4.27963e-06
4.2606e-06
4.23578e-06
4.20445e-06
4.16587e-06
4.11938e-06
4.06437e-06
4.00037e-06
3.92698e-06
3.84397e-06
3.75125e-06
3.64892e-06
3.53726e-06
3.41665e-06
3.28755e-06
3.1505e-06
3.00605e-06
2.85473e-06
2.69704e-06
2.53344e-06
2.36444e-06
2.19058e-06
2.01258e-06
1.8314e-06
1.64832e-06
1.46497e-06
1.28331e-06
1.10552e-06
9.33917e-07
7.70717e-07
6.17913e-07
4.77141e-07
3.4967e-07
2.36584e-07
1.39199e-07
6.01848e-08
6.69567e-09
1.67991e-08
1.50965e-07
3.47131e-07
5.83812e-07
8.49238e-07
1.13463e-06
1.43228e-06
1.73487e-06
2.03538e-06
2.32725e-06
2.60472e-06
2.86305e-06
3.09882e-06
3.30993e-06
3.49561e-06
3.65623e-06
3.79309e-06
3.90817e-06
4.00384e-06
4.08265e-06
4.14715e-06
4.19971e-06
4.24249e-06
4.27735e-06
4.30589e-06
4.32942e-06
4.349e-06
4.36545e-06
4.37943e-06
4.39141e-06
4.40168e-06
4.4104e-06
4.41761e-06
4.42317e-06
4.42675e-06
4.428e-06
4.42653e-06
4.42156e-06
4.41237e-06
4.39817e-06
4.3781e-06
4.35126e-06
4.31678e-06
4.27382e-06
4.22162e-06
4.15954e-06
4.08713e-06
4.00405e-06
3.91019e-06
3.8057e-06
3.69086e-06
3.56617e-06
3.43226e-06
3.28985e-06
3.13971e-06
2.98254e-06
2.81902e-06
2.6497e-06
2.47509e-06
2.29567e-06
2.11201e-06
1.92488e-06
1.73536e-06
1.54494e-06
1.3555e-06
1.16928e-06
9.88776e-07
8.16469e-07
6.54686e-07
5.05399e-07
3.70163e-07
2.50266e-07
1.47149e-07
6.35911e-08
7.0746e-09
1.74493e-08
1.56814e-07
3.60607e-07
6.06503e-07
8.82212e-07
1.17851e-06
1.48728e-06
1.80083e-06
2.1118e-06
2.41334e-06
2.69945e-06
2.9652e-06
3.20703e-06
3.42278e-06
3.61169e-06
3.7742e-06
3.91174e-06
4.02646e-06
4.12092e-06
4.19788e-06
4.26007e-06
4.31009e-06
4.35027e-06
4.38265e-06
4.40897e-06
4.43068e-06
4.44894e-06
4.46469e-06
4.47864e-06
4.49132e-06
4.50305e-06
4.514e-06
4.52418e-06
4.53343e-06
4.54142e-06
4.54773e-06
4.55133e-06
4.55206e-06
4.54877e-06
4.5406e-06
4.52645e-06
4.50529e-06
4.47605e-06
4.4377e-06
4.3893e-06
4.33004e-06
4.25925e-06
4.17656e-06
4.08178e-06
3.97499e-06
3.85657e-06
3.72714e-06
3.58748e-06
3.43855e-06
3.28137e-06
3.11694e-06
2.94617e-06
2.76981e-06
2.58846e-06
2.40263e-06
2.21275e-06
2.01941e-06
1.82344e-06
1.62608e-06
1.42907e-06
1.23461e-06
1.04528e-06
8.63821e-07
6.92891e-07
5.34828e-07
3.91525e-07
2.64524e-07
1.55425e-07
6.71329e-08
7.46861e-09
1.80672e-08
1.62372e-07
3.73416e-07
6.28071e-07
9.13537e-07
1.22015e-06
1.53939e-06
1.8632e-06
2.18391e-06
2.49442e-06
2.78849e-06
3.06103e-06
3.30835e-06
3.52826e-06
3.72e-06
3.88408e-06
4.02206e-06
4.13624e-06
4.22937e-06
4.30442e-06
4.36434e-06
4.41191e-06
4.44965e-06
4.47979e-06
4.50422e-06
4.52451e-06
4.54194e-06
4.55755e-06
4.57211e-06
4.5862e-06
4.60017e-06
4.6142e-06
4.62826e-06
4.64216e-06
4.65549e-06
4.66772e-06
4.67807e-06
4.68567e-06
4.68906e-06
4.68816e-06
4.68116e-06
4.66691e-06
4.64413e-06
4.61159e-06
4.56812e-06
4.5127e-06
4.44452e-06
4.36298e-06
4.26778e-06
4.15893e-06
4.03683e-06
3.90216e-06
3.75592e-06
3.59931e-06
3.43366e-06
3.26032e-06
3.08057e-06
2.89548e-06
2.70587e-06
2.51234e-06
2.3153e-06
2.11515e-06
1.91246e-06
1.70817e-06
1.50373e-06
1.30121e-06
1.1032e-06
9.12618e-07
7.32433e-07
5.6538e-07
4.13735e-07
2.79346e-07
1.64021e-07
7.08074e-08
7.87737e-09
1.86488e-08
1.67606e-07
3.8548e-07
6.48383e-07
9.43022e-07
1.2593e-06
1.58829e-06
1.92161e-06
2.2513e-06
2.57002e-06
2.87132e-06
3.15e-06
3.40226e-06
3.62586e-06
3.82005e-06
3.98542e-06
4.12363e-06
4.23715e-06
4.32892e-06
4.4021e-06
4.45984e-06
4.50513e-06
4.54068e-06
4.56889e-06
4.5918e-06
4.61111e-06
4.62824e-06
4.64429e-06
4.66012e-06
4.67632e-06
4.69329e-06
4.7112e-06
4.73e-06
4.74943e-06
4.76906e-06
4.78822e-06
4.80609e-06
4.82168e-06
4.83386e-06
4.84067e-06
4.84194e-06
4.83585e-06
4.82084e-06
4.79542e-06
4.7582e-06
4.70791e-06
4.64349e-06
4.56416e-06
4.46942e-06
4.35913e-06
4.23358e-06
4.09355e-06
3.94015e-06
3.77485e-06
3.59933e-06
3.41537e-06
3.2247e-06
3.02886e-06
2.82904e-06
2.62608e-06
2.42048e-06
2.21253e-06
2.00253e-06
1.79107e-06
1.57924e-06
1.36883e-06
1.1623e-06
9.62673e-07
7.73192e-07
5.96985e-07