/*--------------------------------*- C++ -*----------------------------------*\
  =========                 |
  \\      /  F ield         | OpenFOAM: The Open Source CFD Toolbox
   \\    /   O peration     | Website:  https://openfoam.org
    \\  /    A nd           | Version:  12
     \\/     M anipulation  |
\*---------------------------------------------------------------------------*/
FoamFile
{
    format      ascii;
    class       surfaceScalarField;
    location    "2.5";
    object      phi;
}
// * * * * * * * * * * * * * * * * * * * * * * * * * * * * * * * * * * * * * //

dimensions      [0 3 -1 0 0 0 0];

internalField   nonuniform List<scalar> 
11100
(
3.82936e-10
-3.868e-10
1.00655e-09
-6.23474e-10
1.50212e-09
-4.95391e-10
1.66572e-09
-1.63449e-10
1.40888e-09
2.56946e-10
7.07902e-10
7.01045e-10
-4.24236e-10
1.13218e-09
-1.9558e-09
1.53159e-09
-3.84664e-09
1.89085e-09
-6.05449e-09
2.20785e-09
-8.53862e-09
2.48413e-09
-1.12618e-08
2.72318e-09
-1.41911e-08
2.92929e-09
-1.72979e-08
3.10682e-09
-2.05577e-08
3.2597e-09
-2.39488e-08
3.39118e-09
-2.74525e-08
3.50362e-09
-3.1051e-08
3.59852e-09
-3.47275e-08
3.67644e-09
-3.84646e-08
3.73716e-09
-4.22443e-08
3.77968e-09
-4.60468e-08
3.80243e-09
-4.98501e-08
3.80335e-09
-5.36302e-08
3.78006e-09
-5.73601e-08
3.72997e-09
-6.10106e-08
3.65045e-09
-6.45496e-08
3.53895e-09
-6.79427e-08
3.39313e-09
-7.11536e-08
3.21095e-09
-7.41445e-08
2.99083e-09
-7.68762e-08
2.73172e-09
-7.93094e-08
2.43323e-09
-8.14051e-08
2.09567e-09
-8.31253e-08
1.72013e-09
-8.44337e-08
1.30846e-09
-8.52973e-08
8.63541e-10
-8.56879e-08
3.90672e-10
-8.55797e-08
-1.08195e-10
-8.49545e-08
-6.25243e-10
-8.37998e-08
-1.15473e-09
-8.21105e-08
-1.68928e-09
-7.98896e-08
-2.22091e-09
-7.71484e-08
-2.74118e-09
-7.39072e-08
-3.24126e-09
-7.01949e-08
-3.71221e-09
-6.60498e-08
-4.14515e-09
-6.15183e-08
-4.53152e-09
-5.6655e-08
-4.86331e-09
-5.15217e-08
-5.13331e-09
-4.61863e-08
-5.33535e-09
-4.07218e-08
-5.46448e-09
-3.52046e-08
-5.51719e-09
-2.97131e-08
-5.49152e-09
-2.43259e-08
-5.38719e-09
-1.91203e-08
-5.20562e-09
-1.41704e-08
-4.94991e-09
-9.54557e-09
-4.62483e-09
-5.30892e-09
-4.23664e-09
-1.51592e-09
-3.79301e-09
1.78688e-09
-3.30279e-09
4.56275e-09
-2.77587e-09
6.78572e-09
-2.22297e-09
8.44122e-09
-1.6555e-09
9.52683e-09
-1.08561e-09
1.0053e-08
-5.26209e-10
1.00442e-08
8.82222e-12
9.53973e-09
5.04493e-10
8.59651e-09
9.43224e-10
7.29183e-09
1.30467e-09
5.72839e-09
1.56344e-09
4.0404e-09
1.68799e-09
2.401e-09
1.6394e-09
1.02887e-09
1.37214e-09
1.78242e-10
8.50625e-10
1.78242e-10
6.28739e-10
-1.01554e-09
1.47641e-09
-1.47105e-09
1.86824e-09
-8.87074e-10
1.41971e-09
2.85213e-10
-6.50992e-11
1.74186e-09
-2.6547e-09
3.29071e-09
-6.33773e-09
4.81525e-09
-1.10543e-08
6.24817e-09
-1.67189e-08
7.55546e-09
-2.32355e-08
8.72442e-09
-3.05068e-08
9.75549e-09
-3.84403e-08
1.06566e-08
-4.69504e-08
1.14395e-08
-5.59603e-08
1.21166e-08
-6.54006e-08
1.27e-08
-7.52089e-08
1.31995e-08
-8.53278e-08
1.36225e-08
-9.57029e-08
1.39736e-08
-1.06281e-07
1.42543e-08
-1.17007e-07
1.44635e-08
-1.27825e-07
1.45976e-08
-1.38674e-07
1.46511e-08
-1.49487e-07
1.46168e-08
-1.60193e-07
1.44865e-08
-1.70715e-07
1.42514e-08
-1.80967e-07
1.39026e-08
-1.9086e-07
1.34317e-08
-2.00298e-07
1.28309e-08
-2.09181e-07
1.20938e-08
-2.17406e-07
1.12159e-08
-2.24868e-07
1.01943e-08
-2.31464e-07
9.02879e-09
-2.3709e-07
7.72169e-09
-2.41648e-07
6.27824e-09
-2.45046e-07
4.70659e-09
-2.472e-07
3.01754e-09
-2.48038e-07
1.22912e-09
-2.47503e-07
-6.43967e-10
-2.45548e-07
-2.57972e-09
-2.42149e-07
-4.55395e-09
-2.37298e-07
-6.54001e-09
-2.3101e-07
-8.50914e-09
-2.2332e-07
-1.04309e-08
-2.14288e-07
-1.22739e-08
-2.03993e-07
-1.40064e-08
-1.92542e-07
-1.55969e-08
-1.80058e-07
-1.70154e-08
-1.66687e-07
-1.82338e-08
-1.52594e-07
-1.92268e-08
-1.37956e-07
-1.99729e-08
-1.22966e-07
-2.04547e-08
-1.07823e-07
-2.06601e-08
-9.27324e-08
-2.05821e-08
-7.78997e-08
-2.02199e-08
-6.35272e-08
-1.95782e-08
-4.98091e-08
-1.8668e-08
-3.6928e-08
-1.75059e-08
-2.50504e-08
-1.61142e-08
-1.43236e-08
-1.45198e-08
-4.87181e-09
-1.27546e-08
3.20623e-09
-1.08539e-08
9.84e-09
-8.85674e-09
1.49894e-08
-6.80489e-09
1.86469e-08
-4.7431e-09
2.08395e-08
-2.71877e-09
2.16311e-08
-7.82806e-10
2.11263e-08
1.0093e-09
1.94738e-08
2.59566e-09
1.68725e-08
3.90607e-09
1.35777e-08
4.85822e-09
9.90909e-09
5.35658e-09
6.25585e-09
5.29264e-09
3.0732e-09
4.55479e-09
8.47451e-10
3.07637e-09
1.02569e-09
5.06415e-10
-1.52206e-09
8.9232e-10
-1.85695e-09
4.15975e-10
-4.10656e-10
-1.36053e-09
2.06181e-09
-4.67213e-09
5.05353e-09
-9.60855e-09
8.22719e-09
-1.6159e-08
1.13658e-08
-2.42487e-08
1.43378e-08
-3.37651e-08
1.70719e-08
-4.45775e-08
1.95368e-08
-5.65492e-08
2.17272e-08
-6.95466e-08
2.3654e-08
-8.34429e-08
2.53358e-08
-9.81209e-08
2.67946e-08
-1.13472e-07
2.80514e-08
-1.29397e-07
2.91241e-08
-1.458e-07
3.0026e-08
-1.62592e-07
3.07648e-08
-1.79681e-07
3.13431e-08
-1.96975e-07
3.17577e-08
-2.14378e-07
3.20012e-08
-2.31789e-07
3.20619e-08
-2.49098e-07
3.19253e-08
-2.66186e-07
3.1575e-08
-2.82928e-07
3.09933e-08
-2.99188e-07
3.01628e-08
-3.14824e-07
2.9067e-08
-3.29684e-07
2.76914e-08
-3.43615e-07
2.60241e-08
-3.56456e-07
2.40572e-08
-3.68048e-07
2.17869e-08
-3.78234e-07
1.92144e-08
-3.86859e-07
1.63466e-08
-3.93777e-07
1.31963e-08
-3.98853e-07
9.78259e-09
-4.01967e-07
6.13123e-09
-4.03013e-07
2.27589e-09
-4.01912e-07
-1.74577e-09
-3.98603e-07
-5.88876e-09
-3.93054e-07
-1.01022e-08
-3.85264e-07
-1.43302e-08
-3.75261e-07
-1.85128e-08
-3.63104e-07
-2.25873e-08
-3.48889e-07
-2.64887e-08
-3.32744e-07
-3.0152e-08
-3.14828e-07
-3.35129e-08
-2.95333e-07
-3.651e-08
-2.74481e-07
-3.90862e-08
-2.52518e-07
-4.119e-08
-2.29713e-07
-4.27778e-08
-2.06353e-07
-4.38144e-08
-1.82738e-07
-4.42748e-08
-1.59176e-07
-4.41449e-08
-1.35973e-07
-4.34226e-08
-1.13434e-07
-4.21176e-08
-9.18499e-08
-4.02517e-08
-7.14969e-08
-3.78589e-08
-5.26269e-08
-3.49842e-08
-3.54635e-08
-3.16832e-08
-2.0197e-08
-2.8021e-08
-6.9798e-09
-2.40712e-08
4.07805e-09
-1.99146e-08
1.2912e-08
-1.56389e-08
1.95066e-08
-1.13377e-08
2.38986e-08
-7.11084e-09
2.61809e-08
-3.06509e-09
2.65059e-08
6.84379e-10
2.50898e-08
4.01167e-09
2.22188e-08
6.77707e-09
1.82532e-08
8.82383e-09
1.36323e-08
9.97754e-09
8.87491e-09
1.005e-08
4.57255e-09
8.85716e-09
1.37273e-09
6.27619e-09
2.39842e-09
1.61409e-10
-1.68355e-09
-3.49852e-10
-1.34571e-09
-2.21463e-09
1.45416e-09
-5.84549e-09
5.69273e-09
-1.14634e-08
1.06715e-08
-1.91478e-08
1.59116e-08
-2.88761e-08
2.10941e-08
-4.05569e-08
2.60186e-08
-5.40559e-08
3.0571e-08
-6.92163e-08
3.46971e-08
-8.5872e-08
3.8383e-08
-1.03858e-07
4.16399e-08
-1.23015e-07
4.44925e-08
-1.43192e-07
4.69714e-08
-1.64247e-07
4.91066e-08
-1.86046e-07
5.09235e-08
-2.08461e-07
5.24411e-08
-2.31366e-07
5.36698e-08
-2.54635e-07
5.46119e-08
-2.78139e-07
5.52614e-08
-3.01743e-07
5.56051e-08
-3.25305e-07
5.56238e-08
-3.48673e-07
5.52937e-08
-3.71686e-07
5.45883e-08
-3.94173e-07
5.34795e-08
-4.1595e-07
5.194e-08
-4.36827e-07
4.99442e-08
-4.56606e-07
4.74701e-08
-4.75082e-07
4.45006e-08
-4.9205e-07
4.10249e-08
-5.07303e-07
3.70396e-08
-5.20638e-07
3.25498e-08
-5.31861e-07
2.75696e-08
-5.40788e-07
2.21233e-08
-5.47251e-07
1.62455e-08
-5.51101e-07
9.9815e-09
-5.52213e-07
3.38781e-09
-5.50489e-07
-3.46973e-09
-5.45863e-07
-1.05152e-08
-5.38301e-07
-1.76636e-08
-5.27809e-07
-2.4822e-08
-5.14431e-07
-3.18912e-08
-4.98251e-07
-3.87676e-08
-4.79395e-07
-4.53449e-08
-4.5803e-07
-5.15163e-08
-4.34366e-07
-5.71773e-08
-4.08648e-07
-6.22277e-08
-3.8116e-07
-6.65744e-08
-3.52216e-07
-7.0134e-08
-3.22159e-07
-7.28351e-08
-2.91353e-07
-7.46205e-08
-2.60178e-07
-7.54493e-08
-2.29025e-07
-7.52981e-08
-1.98285e-07
-7.41627e-08
-1.68344e-07
-7.20584e-08
-1.39576e-07
-6.902e-08
-1.12332e-07
-6.51022e-08
-8.69386e-08
-6.0378e-08
-6.36839e-08
-5.4938e-08
-4.28161e-08
-4.88888e-08
-2.45356e-08
-4.23516e-08
-8.99013e-09
-3.54601e-08
3.73073e-09
-2.83597e-08
1.35994e-08
-2.12063e-08
2.06545e-08
-1.4166e-08
2.50052e-08
-7.41578e-09
2.68346e-08
-1.14503e-09
2.64043e-08
4.44199e-09
2.40578e-08
9.1236e-09
2.02237e-08
1.26579e-08
1.54185e-08
1.47828e-08
1.02462e-08
1.52223e-08
5.39792e-09
1.37055e-08
1.66231e-09
1.00118e-08
4.06073e-09
-3.0546e-10
-1.37818e-09
-1.99454e-09
3.43324e-10
-5.6111e-09
5.07072e-09
-1.14861e-08
1.15677e-08
-1.97867e-08
1.89721e-08
-3.05547e-08
2.66797e-08
-4.37391e-08
3.42785e-08
-5.92238e-08
4.15033e-08
-7.68513e-08
4.81985e-08
-9.64411e-08
5.42868e-08
-1.17803e-07
5.97445e-08
-1.40745e-07
6.4582e-08
-1.65081e-07
6.88292e-08
-1.90634e-07
7.25241e-08
-2.17232e-07
7.57045e-08
-2.44711e-07
7.84028e-08
-2.72912e-07
8.06421e-08
-3.01677e-07
8.24345e-08
-3.30846e-07
8.37807e-08
-3.60254e-07
8.46701e-08
-3.89732e-07
8.50824e-08
-4.19097e-07
8.49892e-08
-4.48159e-07
8.43561e-08
-4.76716e-07
8.3145e-08
-5.04553e-07
8.13167e-08
-5.31446e-07
7.88329e-08
-5.57161e-07
7.56588e-08
-5.81456e-07
7.1765e-08
-6.04085e-07
6.713e-08
-6.24802e-07
6.17415e-08
-6.4336e-07
5.55983e-08
-6.59522e-07
4.87116e-08
-6.73059e-07
4.11064e-08
-6.83758e-07
3.28219e-08
-6.91425e-07
2.39125e-08
-6.95891e-07
1.44476e-08
-6.97015e-07
4.51217e-09
-6.9469e-07
-5.79471e-09
-6.88845e-07
-1.63602e-08
-6.7945e-07
-2.70589e-08
-6.66518e-07
-3.77546e-08
-6.50106e-07
-4.83028e-08
-6.30321e-07
-5.85525e-08
-6.07316e-07
-6.83496e-08
-5.81293e-07
-7.754e-08
-5.52498e-07
-8.59723e-08
-5.21223e-07
-9.35023e-08
-4.87802e-07
-9.99957e-08
-4.52604e-07
-1.05332e-07
-4.1603e-07
-1.09408e-07
-3.7851e-07
-1.12141e-07
-3.40488e-07
-1.13471e-07
-3.02423e-07
-1.13363e-07
-2.64776e-07
-1.1181e-07
-2.28002e-07
-1.08832e-07
-1.92543e-07
-1.04479e-07
-1.58819e-07
-9.88266e-08
-1.27216e-07
-9.19805e-08
-9.80835e-08
-8.40707e-08
-7.1721e-08
-7.52513e-08
-4.83747e-08
-6.56979e-08
-2.8229e-08
-5.56058e-08
-1.14014e-08
-4.51874e-08
2.06341e-09
-3.46711e-08
1.21976e-08
-2.43002e-08
1.91151e-08
-1.43332e-08
2.30148e-08
-5.04469e-09
2.4184e-08
3.27278e-09
2.30016e-08
1.0306e-08
1.99398e-08
1.57197e-08
1.55659e-08
1.91567e-08
1.05444e-08
2.02438e-08
5.64361e-09
1.86062e-08
1.76052e-09
1.38949e-08
5.82125e-09
-8.39698e-10
-5.38556e-10
-3.88439e-09
3.38796e-09
-9.50269e-09
1.0689e-08
-1.79063e-08
1.99713e-08
-2.91783e-08
3.02441e-08
-4.32998e-08
4.08013e-08
-6.01749e-08
5.11536e-08
-7.96531e-08
6.09815e-08
-1.01548e-07
7.00939e-08
-1.25656e-07
7.83939e-08
-1.51761e-07
8.58495e-08
-1.7965e-07
9.24712e-08
-2.09114e-07
9.82933e-08
-2.39951e-07
1.03361e-07
-2.71964e-07
1.07718e-07
-3.04964e-07
1.11403e-07
-3.38763e-07
1.14441e-07
-3.73174e-07
1.16845e-07
-4.08006e-07
1.18613e-07
-4.43063e-07
1.19726e-07
-4.78138e-07
1.20157e-07
-5.13016e-07
1.19867e-07
-5.47468e-07
1.18809e-07
-5.81255e-07
1.16932e-07
-6.14124e-07
1.14186e-07
-6.45812e-07
1.10521e-07
-6.76046e-07
1.05893e-07
-7.04548e-07
1.00267e-07
-7.31035e-07
9.3617e-08
-7.55225e-07
8.59315e-08
-7.76841e-07
7.72137e-08
-7.95612e-07
6.74836e-08
-8.11286e-07
5.67797e-08
-8.23624e-07
4.51598e-08
-8.32413e-07
3.27016e-08
-8.37468e-07
1.9503e-08
-8.38638e-07
5.68188e-09
-8.35807e-07
-8.6252e-09
-8.28904e-07
-2.32638e-08
-8.17899e-07
-3.80633e-08
-8.02814e-07
-5.28397e-08
-7.83719e-07
-6.73977e-08
-7.60737e-07
-8.15347e-08
-7.34043e-07
-9.50439e-08
-7.03864e-07
-1.07719e-07
-6.7048e-07
-1.19357e-07
-6.34217e-07
-1.29765e-07
-5.95449e-07
-1.38764e-07
-5.5459e-07
-1.46191e-07
-5.1209e-07
-1.51909e-07
-4.68427e-07
-1.55804e-07
-4.24104e-07
-1.57795e-07
-3.79634e-07
-1.57833e-07
-3.35537e-07
-1.55906e-07
-2.9233e-07
-1.52039e-07
-2.50514e-07
-1.46294e-07
-2.10568e-07
-1.38773e-07
-1.72937e-07
-1.29612e-07
-1.38022e-07
-1.18986e-07
-1.06174e-07
-1.07099e-07
-7.76854e-08
-9.41869e-08
-5.27777e-08
-8.05134e-08
-3.15999e-08
-6.63652e-08
-1.42197e-08
-5.20512e-08
-6.19347e-10
-3.79006e-08
9.30953e-09
-2.42621e-08
1.57689e-08
-1.15041e-08
1.90576e-08
-1.59049e-11
1.95731e-08
9.79052e-09
1.78136e-08
1.74791e-08
1.43801e-08
2.25902e-08
9.97966e-09
2.46442e-08
5.4364e-09
2.31495e-08
1.71792e-09
1.76134e-08
7.53917e-09
-1.41101e-09
8.72375e-10
-5.9223e-09
7.8992e-09
-1.37105e-08
1.84772e-08
-2.48449e-08
3.11058e-08
-3.93027e-08
4.47019e-08
-5.69858e-08
5.84844e-08
-7.77392e-08
7.1907e-08
-1.01368e-07
8.461e-08
-1.27651e-07
9.63771e-08
-1.56355e-07
1.07098e-07
-1.87243e-07
1.16737e-07
-2.20079e-07
1.25307e-07
-2.54633e-07
1.32847e-07
-2.90681e-07
1.39409e-07
-3.28006e-07
1.45043e-07
-3.66394e-07
1.49791e-07
-4.05633e-07
1.53681e-07
-4.4551e-07
1.56722e-07
-4.85806e-07
1.58908e-07
-5.26293e-07
1.60214e-07
-5.66736e-07
1.606e-07
-6.06885e-07
1.60016e-07
-6.4648e-07
1.58403e-07
-6.85245e-07
1.55697e-07
-7.22894e-07
1.51835e-07
-7.59129e-07
1.46756e-07
-7.93644e-07
1.40408e-07
-8.26128e-07
1.3275e-07
-8.56266e-07
1.23755e-07
-8.83747e-07
1.13413e-07
-9.08266e-07
1.01733e-07
-9.2953e-07
8.87468e-08
-9.47259e-07
7.45096e-08
-9.612e-07
5.91004e-08
-9.71122e-07
4.26237e-08
-9.76828e-07
2.52088e-08
-9.78156e-07
7.01003e-09
-9.74986e-07
-1.17951e-08
-9.67243e-07
-3.10071e-08
-9.549e-07
-5.04067e-08
-9.37981e-07
-6.97581e-08
-9.16567e-07
-8.88122e-08
-8.90791e-07
-1.07311e-07
-8.60844e-07
-1.2499e-07
-8.26974e-07
-1.41589e-07
-7.89482e-07
-1.56849e-07
-7.48723e-07
-1.70524e-07
-7.05102e-07
-1.82385e-07
-6.59066e-07
-1.92226e-07
-6.11106e-07
-1.99869e-07
-5.61742e-07
-2.05168e-07
-5.11522e-07
-2.08015e-07
-4.6101e-07
-2.08346e-07
-4.10777e-07
-2.06139e-07
-3.61392e-07
-2.01423e-07
-3.13414e-07
-1.94273e-07
-2.67375e-07
-1.84812e-07
-2.23774e-07
-1.73213e-07
-1.83068e-07
-1.59692e-07
-1.45657e-07
-1.44509e-07
-1.11879e-07
-1.27965e-07
-8.19977e-08
-1.10395e-07
-5.61972e-08
-9.21656e-08
-3.45749e-08
-7.36736e-08
-1.71346e-08
-5.53409e-08
-3.78284e-09
-3.76138e-08
5.67501e-09
-2.09619e-08
1.15375e-08
-5.87838e-09
1.42089e-08
7.11912e-09
1.42007e-08
1.74873e-08
1.21338e-08
2.46571e-08
8.74341e-09
2.80346e-08
4.8887e-09
2.70042e-08
1.57525e-09
2.09268e-08
9.11441e-09
-2.0022e-09
2.87452e-09
-8.04757e-09
1.39445e-08
-1.81152e-08
2.85447e-08
-3.2119e-08
4.51096e-08
-4.99149e-08
6.24979e-08
-7.1312e-08
7.98815e-08
-9.60845e-08
9.66795e-08
-1.23983e-07
1.12509e-07
-1.54748e-07
1.27141e-07
-1.88112e-07
1.40463e-07
-2.23813e-07
1.52438e-07
-2.61593e-07
1.63087e-07
-3.01203e-07
1.72457e-07
-3.42399e-07
1.80605e-07
-3.84945e-07
1.87589e-07
-4.28607e-07
1.93453e-07
-4.73151e-07
1.98225e-07
-5.1834e-07
2.01911e-07
-5.63929e-07
2.04498e-07
-6.09666e-07
2.05951e-07
-6.55286e-07
2.0622e-07
-7.0051e-07
2.05241e-07
-7.45048e-07
2.02941e-07
-7.88594e-07
1.99243e-07
-8.30831e-07
1.94072e-07
-8.71432e-07
1.87356e-07
-9.1006e-07
1.79037e-07
-9.46376e-07
1.69067e-07
-9.8004e-07
1.57419e-07
-1.01071e-06
1.44087e-07
-1.03807e-06
1.29089e-07
-1.06179e-06
1.12471e-07
-1.08159e-06
9.43053e-08
-1.09719e-06
7.46954e-08
-1.10834e-06
5.37745e-08
-1.11483e-06
3.17062e-08
-1.11651e-06
8.6835e-09
-1.11323e-06
-1.50727e-08
-1.10492e-06
-3.93153e-08
-1.09155e-06
-6.37741e-08
-1.07315e-06
-8.81592e-08
-1.0498e-06
-1.12165e-07
-1.02164e-06
-1.35474e-07
-9.88863e-07
-1.57765e-07
-9.51737e-07
-1.78715e-07
-9.10576e-07
-1.98009e-07
-8.65754e-07
-2.15345e-07
-8.17698e-07
-2.30441e-07
-7.66885e-07
-2.43039e-07
-7.13835e-07
-2.5292e-07
-6.59104e-07
-2.59899e-07
-6.03278e-07
-2.6384e-07
-5.46967e-07
-2.64657e-07
-4.90788e-07
-2.62318e-07
-4.35362e-07
-2.5685e-07
-3.81297e-07
-2.48338e-07
-3.29181e-07
-2.36928e-07
-2.79569e-07
-2.22825e-07
-2.32969e-07
-2.06291e-07
-1.89836e-07
-1.87643e-07
-1.50555e-07
-1.67246e-07
-1.15438e-07
-1.45512e-07
-8.47096e-08
-1.22894e-07
-5.85022e-08
-9.9881e-08
-3.68493e-08
-7.69938e-08
-1.96804e-08
-5.47827e-08
-6.81696e-09
-3.38253e-08
2.0299e-09
-1.47252e-08
7.26136e-09
1.88767e-09
9.39213e-09
1.53566e-08
9.05259e-09
2.49966e-08
6.99283e-09
3.00944e-08
4.09001e-09
2.9907e-08
1.363e-09
2.36539e-08
1.04774e-08
-2.60322e-09
5.47768e-09
-1.02213e-08
2.15626e-08
-2.26356e-08
4.0959e-08
-3.95974e-08
6.20715e-08
-6.08324e-08
8.37328e-08
-8.60464e-08
1.05096e-07
-1.14934e-07
1.25567e-07
-1.47186e-07
1.44761e-07
-1.82494e-07
1.62449e-07
-2.20557e-07
1.78526e-07
-2.61085e-07
1.92967e-07
-3.03798e-07
2.058e-07
-3.48426e-07
2.17085e-07
-3.9471e-07
2.26889e-07
-4.42394e-07
2.35273e-07
-4.91227e-07
2.42286e-07
-5.40955e-07
2.47953e-07
-5.91322e-07
2.52277e-07
-6.4206e-07
2.55236e-07
-6.92893e-07
2.56784e-07
-7.43532e-07
2.56859e-07
-7.93673e-07
2.55382e-07
-8.42998e-07
2.52266e-07
-8.91176e-07
2.47421e-07
-9.37863e-07
2.40759e-07
-9.82706e-07
2.32199e-07
-1.02534e-06
2.21674e-07
-1.06541e-06
2.09134e-07
-1.10255e-06
1.94554e-07
-1.13639e-06
1.77931e-07
-1.16659e-06
1.59295e-07
-1.19283e-06
1.38705e-07
-1.21478e-06
1.16255e-07
-1.23216e-06
9.20741e-08
-1.24471e-06
6.63254e-08
-1.25221e-06
3.92083e-08
-1.25448e-06
1.09559e-08
-1.25139e-06
-1.8166e-08
-1.24284e-06
-4.78617e-08
-1.22881e-06
-7.78083e-08
-1.20931e-06
-1.0766e-07
-1.18442e-06
-1.37053e-07
-1.15428e-06
-1.65609e-07
-1.1191e-06
-1.92946e-07
-1.07914e-06
-2.18679e-07
-1.03472e-06
-2.42431e-07
-9.86224e-07
-2.63839e-07
-9.34101e-07
-2.82564e-07
-8.78844e-07
-2.98297e-07
-8.20997e-07
-3.10766e-07
-7.61149e-07
-3.19747e-07
-6.9992e-07
-3.25069e-07
-6.37959e-07
-3.26619e-07
-5.75927e-07
-3.2435e-07
-5.14494e-07
-3.18283e-07
-4.54321e-07
-3.08511e-07
-3.9605e-07
-2.95198e-07
-3.40293e-07
-2.78582e-07
-2.87616e-07
-2.58969e-07
-2.38528e-07
-2.3673e-07
-1.93471e-07
-2.12302e-07
-1.52807e-07
-1.86176e-07
-1.16809e-07
-1.58892e-07
-8.56514e-08
-1.31039e-07
-5.94047e-08
-1.03241e-07
-3.8029e-08
-7.61585e-08
-2.13698e-08
-5.04845e-08
-9.15609e-09
-2.6939e-08
-9.97752e-10
-6.27067e-09
3.61485e-09
1.0744e-08
5.31244e-09
2.32991e-08
4.8492e-09
3.05576e-08
3.10703e-09
3.16492e-08
1.10278e-09
2.56581e-08
1.15802e-08
-3.20775e-09
8.68538e-09
-1.24171e-08
3.07719e-08
-2.72135e-08
5.57553e-08
-4.71828e-08
8.20407e-08
-7.19142e-08
1.08464e-07
-1.01005e-07
1.34186e-07
-1.34063e-07
1.58625e-07
-1.70712e-07
1.8141e-07
-2.10593e-07
2.02331e-07
-2.53369e-07
2.21301e-07
-2.98717e-07
2.38315e-07
-3.46336e-07
2.53419e-07
-3.95937e-07
2.66686e-07
-4.47242e-07
2.78194e-07
-4.99982e-07
2.88013e-07
-5.53888e-07
2.96192e-07
-6.08691e-07
3.02756e-07
-6.64115e-07
3.07701e-07
-7.19875e-07
3.10996e-07
-7.75675e-07
3.12584e-07
-8.31203e-07
3.12387e-07
-8.86134e-07
3.10313e-07
-9.40128e-07
3.0626e-07
-9.92831e-07
3.00124e-07
-1.04388e-06
2.91804e-07
-1.09289e-06
2.8121e-07
-1.13948e-06
2.6827e-07
-1.18328e-06
2.52931e-07
-1.22389e-06
2.35168e-07
-1.26095e-06
2.14988e-07
-1.29408e-06
1.92428e-07
-1.32295e-06
1.67566e-07
-1.34721e-06
1.40517e-07
-1.36657e-06
1.11434e-07
-1.38076e-06
8.05141e-08
-1.38954e-06
4.79912e-08
-1.39272e-06
1.41396e-08
-1.39016e-06
-2.07301e-08
-1.38175e-06
-5.62726e-08
-1.36744e-06
-9.21121e-08
-1.34726e-06
-1.27846e-07
-1.32126e-06
-1.63052e-07
-1.28958e-06
-1.97289e-07
-1.25241e-06
-2.30111e-07
-1.21002e-06
-2.61069e-07
-1.16273e-06
-2.89721e-07
-1.11093e-06
-3.15641e-07
-1.05507e-06
-3.38426e-07
-9.95658e-07
-3.5771e-07
-9.33258e-07
-3.73166e-07
-8.68482e-07
-3.84523e-07
-8.01984e-07
-3.91567e-07
-7.34447e-07
-3.94155e-07
-6.66579e-07
-3.92218e-07
-5.99097e-07
-3.85765e-07
-5.32715e-07
-3.74893e-07
-4.68134e-07
-3.59779e-07
-4.06025e-07
-3.40691e-07
-3.47015e-07
-3.17978e-07
-2.91678e-07
-2.92068e-07
-2.40515e-07
-2.63466e-07
-1.93946e-07
-2.32745e-07
-1.52299e-07
-2.00539e-07
-1.15799e-07
-1.67538e-07
-8.45616e-08
-1.34478e-07
-5.85844e-08
-1.02136e-07
-3.77451e-08
-7.13238e-08
-2.17973e-08
-4.28868e-08
-1.03694e-08
-1.76986e-08
-2.96397e-09
3.33851e-09
1.04261e-09
1.92925e-08
2.40081e-09
2.91994e-08
1.98785e-09
3.20621e-08
8.09463e-10
2.68365e-08
1.23897e-08
-3.81135e-09
1.24967e-08
-1.46155e-08
4.15761e-08
-3.18045e-08
7.29443e-08
-5.47982e-08
1.05034e-07
-8.30469e-08
1.36713e-07
-1.16034e-07
1.67173e-07
-1.53279e-07
1.9587e-07
-1.94334e-07
2.22465e-07
-2.38788e-07
2.46785e-07
-2.8626e-07
2.68773e-07
-3.36399e-07
2.88454e-07
-3.88879e-07
3.05899e-07
-4.43392e-07
3.21199e-07
-4.99645e-07
3.34447e-07
-5.57354e-07
3.45721e-07
-6.16236e-07
3.55074e-07
-6.76007e-07
3.62528e-07
-7.36378e-07
3.68072e-07
-7.97047e-07
3.71665e-07
-8.57701e-07
3.73237e-07
-9.1801e-07
3.72696e-07
-9.77631e-07
3.69934e-07
-1.0362e-06
3.64834e-07
-1.09336e-06
3.57277e-07
-1.14871e-06
3.47153e-07
-1.20186e-06
3.34361e-07
-1.25241e-06
3.18822e-07
-1.29996e-06
3.00484e-07
-1.34412e-06
2.79324e-07
-1.38449e-06
2.55354e-07
-1.42068e-06
2.28625e-07
-1.45235e-06
1.99229e-07
-1.47913e-06
1.67304e-07
-1.50073e-06
1.3303e-07
-1.51685e-06
9.66334e-08
-1.52724e-06
5.83842e-08
-1.5317e-06
1.85967e-08
-1.53005e-06
-2.23738e-08
-1.52219e-06
-6.41332e-08
-1.50805e-06
-1.06253e-07
-1.48763e-06
-1.48274e-07
-1.46096e-06
-1.89713e-07
-1.42819e-06
-2.30068e-07
-1.38947e-06
-2.68826e-07
-1.34507e-06
-3.05471e-07
-1.2953e-06
-3.39493e-07
-1.24054e-06
-3.70397e-07
-1.18125e-06
-3.97716e-07
-1.11794e-06
-4.21016e-07
-1.0512e-06
-4.39912e-07
-9.81645e-07
-4.54076e-07
-9.09966e-07
-4.63246e-07
-8.36881e-07
-4.6724e-07
-7.63139e-07
-4.6596e-07
-6.89508e-07
-4.59397e-07
-6.16758e-07
-4.47643e-07
-5.4565e-07
-4.30887e-07
-4.76922e-07
-4.0942e-07
-4.11268e-07
-3.83631e-07
-3.4933e-07
-3.54005e-07
-2.9168e-07
-3.21116e-07
-2.38803e-07
-2.85621e-07
-1.91092e-07
-2.48251e-07
-1.48829e-07
-2.09801e-07
-1.12183e-07
-1.71124e-07
-8.11974e-08
-1.33121e-07
-5.579e-08
-9.67312e-08
-3.5746e-08
-6.29308e-08
-2.07189e-08
-3.27257e-08
-1.02295e-08
-7.15085e-09
-3.6675e-09
1.27305e-08
-2.92277e-10
2.58242e-08
7.64407e-10
3.10054e-08
4.92658e-10
2.71083e-08
1.28823e-08
-4.41035e-09
1.6907e-08
-1.68004e-08
5.39661e-08
-3.63718e-08
9.25156e-08
-6.23792e-08
1.31042e-07
-9.41335e-08
1.68467e-07
-1.31004e-07
2.04044e-07
-1.72416e-07
2.37282e-07
-2.17852e-07
2.67901e-07
-2.66844e-07
2.95776e-07
-3.18969e-07
3.20898e-07
-3.73844e-07
3.4333e-07
-4.31119e-07
3.63174e-07
-4.90467e-07
3.80548e-07
-5.51582e-07
3.95561e-07
-6.14165e-07
4.08304e-07
-6.77922e-07
4.18831e-07
-7.42557e-07
4.27163e-07
-8.07768e-07
4.33283e-07
-8.7324e-07
4.37137e-07
-9.38646e-07
4.38643e-07
-1.00364e-06
4.37694e-07
-1.06787e-06
4.34164e-07
-1.13096e-06
4.27922e-07
-1.19252e-06
4.18836e-07
-1.25215e-06
4.06782e-07
-1.30944e-06
3.91653e-07
-1.36399e-06
3.73365e-07
-1.41536e-06
3.51861e-07
-1.46316e-06
3.27123e-07
-1.50698e-06
2.9917e-07
-1.54642e-06
2.68064e-07
-1.5811e-06
2.33915e-07
-1.61068e-06
1.96879e-07
-1.63481e-06
1.57162e-07
-1.65319e-06
1.1502e-07
-1.66557e-06
7.07585e-08
-1.6717e-06
2.47292e-08
-1.67141e-06
-2.26689e-08
-1.66455e-06
-7.09945e-08
-1.65103e-06
-1.19767e-07
-1.63083e-06
-1.68472e-07
-1.60398e-06
-2.16565e-07
-1.57057e-06
-2.63481e-07
-1.53075e-06
-3.08641e-07
-1.48476e-06
-3.51459e-07
-1.4329e-06
-3.91352e-07
-1.37555e-06
-4.27755e-07
-1.31314e-06
-4.60126e-07
-1.24619e-06
-4.87962e-07
-1.17529e-06
-5.10808e-07
-1.1011e-06
-5.28273e-07
-1.0243e-06
-5.4004e-07
-9.45668e-07
-5.45876e-07
-8.65983e-07
-5.45644e-07
-7.86067e-07
-5.39314e-07
-7.06748e-07
-5.26961e-07
-6.28856e-07
-5.0878e-07
-5.53196e-07
-4.8508e-07
-4.80541e-07
-4.56287e-07
-4.11608e-07
-4.22938e-07
-3.47047e-07
-3.85677e-07
-2.87421e-07
-3.45248e-07
-2.33193e-07
-3.02479e-07
-1.84715e-07
-2.58279e-07
-1.42217e-07
-2.13622e-07
-1.058e-07
-1.69539e-07
-7.54254e-08
-1.27105e-07
-5.09197e-08
-8.74365e-08
-3.1967e-08
-5.16783e-08
-1.81123e-08
-2.10055e-08
-8.76294e-09
3.38109e-09
-3.19263e-09
2.02539e-08
-5.4401e-10
2.83568e-08
1.57934e-10
2.64063e-08
1.30402e-08
-5.00132e-09
2.19083e-08
-1.89573e-08
6.7922e-08
-4.08824e-08
1.14441e-07
-6.98682e-08
1.60027e-07
-1.05087e-07
2.03687e-07
-1.45794e-07
2.44751e-07
-1.91323e-07
2.82811e-07
-2.41082e-07
3.17659e-07
-2.94546e-07
3.49241e-07
-3.51251e-07
3.77603e-07
-4.10781e-07
4.0286e-07
-4.72763e-07
4.25155e-07
-5.36852e-07
4.44636e-07
-6.02726e-07
4.61436e-07
-6.70077e-07
4.75654e-07
-7.386e-07
4.87354e-07
-8.07989e-07
4.96552e-07
-8.77932e-07
5.03226e-07
-9.48104e-07
5.0731e-07
-1.01817e-06
5.08708e-07
-1.08777e-06
5.07296e-07
-1.15654e-06
5.02934e-07
-1.22409e-06
4.95475e-07
-1.29003e-06
4.84772e-07
-1.35394e-06
4.70691e-07
-1.4154e-06
4.53116e-07
-1.47399e-06
4.31956e-07
-1.52929e-06
4.07156e-07
-1.58086e-06
3.78698e-07
-1.6283e-06
3.46607e-07
-1.67119e-06
3.10958e-07
-1.70915e-06
2.71875e-07
-1.74181e-06
2.29532e-07
-1.7688e-06
1.8416e-07
-1.78983e-06
1.36042e-07
-1.80458e-06
8.55154e-08
-1.81282e-06
3.29683e-08
-1.81433e-06
-2.11593e-08
-1.80895e-06
-7.63808e-08
-1.79655e-06
-1.32166e-07
-1.77707e-06
-1.87944e-07
-1.75053e-06
-2.43113e-07
-1.71696e-06
-2.97044e-07
-1.67652e-06
-3.49089e-07
-1.62939e-06
-3.98589e-07
-1.57585e-06
-4.4489e-07
-1.51626e-06
-4.87345e-07
-1.45105e-06
-5.25337e-07
-1.38073e-06
-5.58282e-07
-1.30589e-06
-5.8565e-07
-1.22718e-06
-6.06978e-07
-1.14534e-06
-6.21881e-07
-1.06115e-06
-6.30067e-07
-9.7544e-07
-6.31352e-07
-8.89088e-07
-6.25666e-07
-8.02983e-07
-6.13066e-07
-7.18022e-07
-5.9374e-07
-6.35092e-07
-5.6801e-07
-5.55047e-07
-5.36332e-07
-4.78692e-07
-4.99293e-07
-4.06763e-07
-4.57607e-07
-3.3991e-07
-4.12101e-07
-2.78681e-07
-3.63708e-07
-2.23506e-07
-3.13453e-07
-1.74688e-07
-2.6244e-07
-1.32392e-07
-2.11836e-07
-9.66355e-08
-1.62862e-07
-6.72917e-08
-1.1678e-07
-4.40822e-08
-7.48878e-08
-2.65812e-08
-3.85065e-08
-1.42177e-08
-8.98246e-09
-6.28155e-09
1.23177e-08
-1.92775e-09
2.4003e-08
-1.91768e-10
2.46703e-08
1.28485e-08
-5.58075e-09
2.7489e-08
-2.10719e-08
8.34131e-08
-4.53047e-08
1.38673e-07
-7.72109e-08
1.91934e-07
-1.15827e-07
2.42303e-07
-1.60295e-07
2.89219e-07
-2.09857e-07
3.32373e-07
-2.63849e-07
3.71651e-07
-3.21691e-07
4.07082e-07
-3.82874e-07
4.38786e-07
-4.46953e-07
4.66939e-07
-5.13529e-07
4.91731e-07
-5.82242e-07
5.1335e-07
-6.52758e-07
5.31951e-07
-7.24756e-07
5.47652e-07
-7.97924e-07
5.60522e-07
-8.71949e-07
5.70577e-07
-9.46511e-07
5.77788e-07
-1.02128e-06
5.82077e-07
-1.09591e-06
5.83335e-07
-1.17003e-06
5.81422e-07
-1.24328e-06
5.76181e-07
-1.31525e-06
5.67449e-07
-1.38555e-06
5.55068e-07
-1.45375e-06
5.38889e-07
-1.51942e-06
5.18789e-07
-1.58214e-06
4.94672e-07
-1.64146e-06
4.6648e-07
-1.69696e-06
4.34197e-07
-1.74821e-06
3.97855e-07
-1.79479e-06
3.57537e-07
-1.83629e-06
3.13379e-07
-1.87233e-06
2.65574e-07
-1.90255e-06
2.14374e-07
-1.92659e-06
1.60085e-07
-1.94415e-06
1.03073e-07
-1.95494e-06
4.37619e-08
-1.95873e-06
-1.7372e-08
-1.95531e-06
-7.97993e-08
-1.94453e-06
-1.42942e-07
-1.9263e-06
-2.06176e-07
-1.90057e-06
-2.68843e-07
-1.86737e-06
-3.30248e-07
-1.82678e-06
-3.89675e-07
-1.77897e-06
-4.46393e-07
-1.7242e-06
-4.99667e-07
-1.66277e-06
-5.4877e-07
-1.59511e-06
-5.92998e-07
-1.52171e-06
-6.31683e-07
-1.44315e-06
-6.64209e-07
-1.3601e-06
-6.9003e-07
-1.2733e-06
-7.08682e-07
-1.18356e-06
-7.19803e-07
-1.09177e-06
-7.23147e-07
-9.98838e-07
-7.18597e-07
-9.05729e-07
-7.06175e-07
-8.13415e-07
-6.86055e-07
-7.22865e-07
-6.5856e-07
-6.35026e-07
-6.2417e-07
-5.50799e-07
-5.8352e-07
-4.7102e-07
-5.37386e-07
-3.96437e-07
-4.86684e-07
-3.27694e-07
-4.32451e-07
-2.65312e-07
-3.75835e-07
-2.09678e-07
-3.18073e-07
-1.61032e-07
-2.60482e-07
-1.19458e-07
-2.04436e-07
-8.48827e-08
-1.51356e-07
-5.7073e-08
-1.02697e-07
-3.56371e-08
-5.99424e-08
-2.00292e-08
-2.45904e-08
-9.55603e-09
1.84459e-09
-3.38517e-09
1.78322e-08
-5.56257e-10
2.18414e-08
1.22922e-08
-6.1449e-09
3.36338e-08
-2.31299e-08
1.00398e-07
-4.96076e-08
1.65151e-07
-8.43542e-08
2.2668e-07
-1.26274e-07
2.84223e-07
-1.74399e-07
3.37344e-07
-2.27882e-07
3.85856e-07
-2.85988e-07
4.29757e-07
-3.48081e-07
4.69176e-07
-4.13614e-07
5.04319e-07
-4.82107e-07
5.35432e-07
-5.53142e-07
5.62766e-07
-6.26342e-07
5.86549e-07
-7.01359e-07
6.06968e-07
-7.77867e-07
6.2416e-07
-8.55545e-07
6.382e-07
-9.34076e-07
6.49108e-07
-1.01313e-06
6.56846e-07
-1.09238e-06
6.61327e-07
-1.17147e-06
6.62426e-07
-1.25004e-06
6.59987e-07
-1.3277e-06
6.53839e-07
-1.40405e-06
6.43803e-07
-1.47869e-06
6.29705e-07
-1.55119e-06
6.11387e-07
-1.62112e-06
5.88716e-07
-1.68803e-06
5.61589e-07
-1.7515e-06
5.29947e-07
-1.81108e-06
4.93774e-07
-1.86633e-06
4.53106e-07
-1.91682e-06
4.08032e-07
-1.96214e-06
3.58701e-07
-2.00189e-06
3.05318e-07
-2.03567e-06
2.48153e-07
-2.06312e-06
1.87534e-07
-2.0839e-06
1.23853e-07
-2.0977e-06
5.75619e-08
-2.10424e-06
-1.08284e-08
-2.10329e-06
-8.07491e-08
-2.09466e-06
-1.51577e-07
-2.07819e-06
-2.22641e-07
-2.05381e-06
-2.93222e-07
-2.0215e-06
-3.62564e-07
-1.98129e-06
-4.29883e-07
-1.93331e-06
-4.94371e-07
-1.87777e-06
-5.55211e-07
-1.81495e-06
-6.11593e-07
-1.74522e-06
-6.62718e-07
-1.66908e-06
-7.07827e-07
-1.58708e-06
-7.46208e-07
-1.49989e-06
-7.7722e-07
-1.40826e-06
-8.00309e-07
-1.31304e-06
-8.15029e-07
-1.21513e-06
-8.21058e-07
-1.11551e-06
-8.18217e-07
-1.0152e-06
-8.0648e-07
-9.15263e-07
-7.85992e-07
-8.16754e-07
-7.57069e-07
-7.20719e-07
-7.20205e-07
-6.28166e-07
-6.76072e-07
-5.40043e-07
-6.2551e-07
-4.57208e-07
-5.69519e-07
-3.80415e-07
-5.09244e-07
-3.10292e-07
-4.45959e-07
-2.4732e-07
-3.81045e-07
-1.91827e-07
-3.15975e-07
-1.43974e-07
-2.52288e-07
-1.03753e-07
-1.91577e-07
-7.09813e-08
-1.35469e-07
-4.53076e-08
-8.56162e-08
-2.62141e-08
-4.36839e-08
-1.30255e-08
-1.1344e-08
-4.9202e-09
9.72684e-09
-9.36599e-10
1.78578e-08
1.13556e-08
-6.68979e-09
4.03236e-08
-2.51165e-08
1.18825e-07
-5.37595e-08
1.93794e-07
-9.12452e-08
2.64166e-07
-1.3635e-07
3.29328e-07
-1.88001e-07
3.88994e-07
-2.45263e-07
4.43118e-07
-3.07334e-07
4.91828e-07
-3.73527e-07
5.35368e-07
-4.43251e-07
5.74043e-07
-5.15999e-07
6.08181e-07
-5.91332e-07
6.38099e-07
-6.68856e-07
6.64073e-07
-7.48216e-07
6.86328e-07
-8.29075e-07
7.0502e-07
-9.11112e-07
7.20236e-07
-9.94002e-07
7.31998e-07
-1.07742e-06
7.40262e-07
-1.16102e-06
7.44932e-07
-1.24446e-06
7.45867e-07
-1.32738e-06
7.42897e-07
-1.40937e-06
7.35835e-07
-1.49005e-06
7.24484e-07
-1.56901e-06
7.08659e-07
-1.64581e-06
6.88189e-07
-1.72002e-06
6.62931e-07
-1.79121e-06
6.32777e-07
-1.85893e-06
5.97662e-07
-1.92272e-06
5.57571e-07
-1.98216e-06
5.1254e-07
-2.03679e-06
4.62664e-07
-2.08619e-06
4.08099e-07
-2.12993e-06
3.49062e-07
-2.16761e-06
2.85836e-07
-2.19885e-06
2.18766e-07
-2.22326e-06
1.48265e-07
-2.24051e-06
7.48102e-08
-2.25028e-06
-1.05698e-09
-2.25229e-06
-7.87334e-08
-2.24632e-06
-1.57555e-07
-2.23215e-06
-2.36802e-07
-2.20967e-06
-3.15704e-07
-2.17879e-06
-3.93443e-07
-2.13951e-06
-4.69165e-07
-2.0919e-06
-5.41987e-07
-2.0361e-06
-6.11009e-07
-1.97236e-06
-6.75328e-07
-1.90103e-06
-7.34052e-07
-1.82254e-06
-7.86316e-07
-1.73744e-06
-8.31307e-07