/*--------------------------------*- C++ -*----------------------------------*\
  =========                 |
  \\      /  F ield         | OpenFOAM: The Open Source CFD Toolbox
   \\    /   O peration     | Website:  https://openfoam.org
    \\  /    A nd           | Version:  12
     \\/     M anipulation  |
\*---------------------------------------------------------------------------*/
FoamFile
{
    format      ascii;
    class       volVectorField;
    location    "2.5";
    object      U;
}
// * * * * * * * * * * * * * * * * * * * * * * * * * * * * * * * * * * * * * //

dimensions      [0 1 -1 0 0 0 0];

internalField   nonuniform List<vector> 
5625
(
(1.11214e-05 -1.1265e-05 0)
(5.38279e-05 -1.68604e-05 0)
(9.78845e-05 -1.52265e-05 0)
(0.000124879 -1.01496e-05 0)
(0.000122502 -4.07885e-06 0)
(8.67833e-05 2.04258e-06 0)
(1.77473e-05 7.72863e-06 0)
(-8.26802e-05 1.2767e-05 0)
(-0.000211667 1.71063e-05 0)
(-0.000366043 2.07828e-05 0)
(-0.000542642 2.38692e-05 0)
(-0.000738516 2.64546e-05 0)
(-0.000951021 2.86295e-05 0)
(-0.00117785 3.04768e-05 0)
(-0.00141702 3.20669e-05 0)
(-0.0016668 3.34558e-05 0)
(-0.00192571 3.46837e-05 0)
(-0.00219237 3.57762e-05 0)
(-0.00246551 3.67443e-05 0)
(-0.00274387 3.75868e-05 0)
(-0.00302611 3.82914e-05 0)
(-0.00331084 3.88368e-05 0)
(-0.00359648 3.91948e-05 0)
(-0.00388134 3.93317e-05 0)
(-0.00416348 3.92109e-05 0)
(-0.0044408 3.87938e-05 0)
(-0.004711 3.80422e-05 0)
(-0.00497159 3.69193e-05 0)
(-0.0052199 3.53916e-05 0)
(-0.00545314 3.34301e-05 0)
(-0.00566842 3.10119e-05 0)
(-0.00586279 2.81215e-05 0)
(-0.00603329 2.47521e-05 0)
(-0.00617702 2.09059e-05 0)
(-0.00629117 1.65896e-05 0)
(-0.00637319 1.1836e-05 0)
(-0.00642061 6.70119e-06 0)
(-0.00643158 1.20296e-06 0)
(-0.00640433 -4.5774e-06 0)
(-0.0063377 -1.05686e-05 0)
(-0.00623105 -1.66835e-05 0)
(-0.00608427 -2.2823e-05 0)
(-0.00589789 -2.88814e-05 0)
(-0.0056731 -3.47464e-05 0)
(-0.00541175 -4.03022e-05 0)
(-0.00511635 -4.54325e-05 0)
(-0.00479009 -5.00238e-05 0)
(-0.00443677 -5.39693e-05 0)
(-0.00406077 -5.71719e-05 0)
(-0.00366697 -5.95479e-05 0)
(-0.00326068 -6.10303e-05 0)
(-0.00284753 -6.15712e-05 0)
(-0.00243335 -6.11438e-05 0)
(-0.00202405 -5.97439e-05 0)
(-0.00162551 -5.73904e-05 0)
(-0.00124343 -5.41246e-05 0)
(-0.000883226 -5.00094e-05 0)
(-0.000549888 -4.51269e-05 0)
(-0.000247884 -3.95763e-05 0)
(1.894e-05 -3.34706e-05 0)
(0.000247442 -2.6933e-05 0)
(0.000435258 -2.00948e-05 0)
(0.000580858 -1.30945e-05 0)
(0.000683582 -6.06323e-06 0)
(0.000743724 8.42721e-07 0)
(0.000762567 7.46322e-06 0)
(0.000742479 1.362e-05 0)
(0.000687028 1.91018e-05 0)
(0.000601189 2.363e-05 0)
(0.000491647 2.68171e-05 0)
(0.000367185 2.81222e-05 0)
(0.000239243 2.68031e-05 0)
(0.000122919 2.18208e-05 0)
(3.77385e-05 1.18476e-05 0)
(-5.74665e-07 -5.73131e-07 0)
(1.70449e-05 -5.42804e-05 0)
(8.5029e-05 -8.45564e-05 0)
(0.000137303 -6.40368e-05 0)
(0.000140197 -1.532e-05 0)
(7.02143e-05 4.63925e-05 0)
(-8.20417e-05 0.000111908 0)
(-0.000317908 0.000175902 0)
(-0.000634174 0.000235508 0)
(-0.00102508 0.000289383 0)
(-0.0014836 0.000337125 0)
(-0.00200235 0.000378892 0)
(-0.00257414 0.000415145 0)
(-0.00319225 0.000446476 0)
(-0.0038506 0.000473498 0)
(-0.00454369 0.000496774 0)
(-0.00526663 0.00051677 0)
(-0.00601495 0.000533829 0)
(-0.00678449 0.000548165 0)
(-0.00757124 0.000559862 0)
(-0.00837119 0.000568881 0)
(-0.0091802 0.000575079 0)
(-0.00999389 0.00057822 0)
(-0.0108075 0.000578002 0)
(-0.0116159 0.000574072 0)
(-0.0124135 0.00056605 0)
(-0.0131941 0.00055355 0)
(-0.0139512 0.000536197 0)
(-0.0146779 0.000513648 0)
(-0.0153668 0.000485609 0)
(-0.0160103 0.000451855 0)
(-0.0166005 0.000412239 0)
(-0.0171295 0.000366714 0)
(-0.0175897 0.000315338 0)
(-0.0179733 0.000258289 0)
(-0.0182732 0.00019586 0)
(-0.0184829 0.000128447 0)
(-0.0185961 5.69401e-05 0)
(-0.0186085 -1.83785e-05 0)
(-0.0185157 -9.64177e-05 0)
(-0.0183152 -0.000176237 0)
(-0.0180057 -0.000256743 0)
(-0.0175875 -0.000336745 0)
(-0.0170625 -0.000414979 0)
(-0.0164341 -0.000490132 0)
(-0.0157076 -0.00056087 0)
(-0.0148901 -0.000625875 0)
(-0.01399 -0.000683873 0)
(-0.0130176 -0.000733677 0)
(-0.0119846 -0.000774217 0)
(-0.0109038 -0.000804577 0)
(-0.00978926 -0.000824026 0)
(-0.00865559 -0.000832043 0)
(-0.0075181 -0.000828338 0)
(-0.00639228 -0.000812869 0)
(-0.00529348 -0.000785846 0)
(-0.00423665 -0.000747731 0)
(-0.003236 -0.000699229 0)
(-0.00230469 -0.000641274 0)
(-0.00145455 -0.000575003 0)
(-0.000695806 -0.00050174 0)
(-3.68797e-05 -0.000422961 0)
(0.000515841 -0.000340272 0)
(0.000958158 -0.000255389 0)
(0.00128826 -0.000170153 0)
(0.00150683 -8.64991e-05 0)
(0.00161723 -6.51079e-06 0)
(0.00162569 6.75266e-05 0)
(0.00154168 0.000132995 0)
(0.00137808 0.000186887 0)
(0.00115185 0.000225503 0)
(0.000884397 0.000244376 0)
(0.000602134 0.000238173 0)
(0.000337422 0.00020114 0)
(0.000129969 0.000130156 0)
(1.16943e-05 3.7591e-05 0)
(1.57718e-05 -9.91426e-05 0)
(6.49596e-05 -0.000137238 0)
(6.93345e-05 -6.96909e-05 0)
(-9.14737e-06 5.81552e-05 0)
(-0.000196933 0.000215909 0)
(-0.00050556 0.000383858 0)
(-0.00093715 0.00054969 0)
(-0.00148789 0.000706144 0)
(-0.00215036 0.000849426 0)
(-0.00291515 0.000978005 0)
(-0.00377204 0.00109178 0)
(-0.00471078 0.00119148 0)
(-0.00572155 0.00127827 0)
(-0.00679518 0.00135343 0)
(-0.00792321 0.00141819 0)
(-0.00909788 0.00147358 0)
(-0.0103119 0.00152038 0)
(-0.0115584 0.00155904 0)
(-0.0128306 0.00158973 0)
(-0.0141218 0.00161232 0)
(-0.0154248 0.00162641 0)
(-0.0167323 0.0016314 0)
(-0.0180364 0.00162652 0)
(-0.0193286 0.00161087 0)
(-0.0205997 0.00158351 0)
(-0.0218398 0.00154349 0)
(-0.0230386 0.00148989 0)
(-0.0241851 0.00142192 0)
(-0.0252676 0.00133888 0)
(-0.0262745 0.00124031 0)
(-0.0271937 0.00112594 0)
(-0.0280133 0.000995778 0)
(-0.0287215 0.000850106 0)
(-0.0293069 0.000689538 0)
(-0.029759 0.000515009 0)
(-0.0300682 0.000327795 0)
(-0.0302259 0.000129663 0)
(-0.0302251 -7.7473e-05 0)
(-0.0300605 -0.000291304 0)
(-0.0297287 -0.000509167 0)
(-0.0292282 -0.000728134 0)
(-0.0285601 -0.000945057 0)
(-0.0277276 -0.00115661 0)
(-0.0267366 -0.00135938 0)
(-0.0255955 -0.0015499 0)
(-0.0243149 -0.00172475 0)
(-0.0229082 -0.00188067 0)
(-0.0213909 -0.00201462 0)
(-0.0197805 -0.00212384 0)
(-0.0180966 -0.00220602 0)
(-0.01636 -0.00225926 0)
(-0.0145929 -0.00228225 0)
(-0.0128181 -0.00227424 0)
(-0.0110588 -0.00223513 0)
(-0.00933795 -0.00216543 0)
(-0.0076781 -0.00206632 0)
(-0.0061006 -0.00193963 0)
(-0.00462534 -0.00178774 0)
(-0.00327026 -0.00161362 0)
(-0.00205096 -0.00142071 0)
(-0.000980374 -0.0012129 0)
(-6.84175e-05 -0.000994429 0)
(0.000678294 -0.000769906 0)
(0.0012567 -0.000544233 0)
(0.00166754 -0.00032263 0)
(0.00191561 -0.000110693 0)
(0.00201002 8.54932e-05 0)
(0.00196452 0.000259217 0)
(0.00179785 0.000402901 0)
(0.00153419 0.000507863 0)
(0.00120339 0.000564213 0)
(0.000841136 0.000561037 0)
(0.000489791 0.000487572 0)
(0.000201685 0.000337597 0)
(2.15763e-05 0.000122442 0)
(1.08187e-05 -0.000126902 0)
(1.38762e-05 -0.000138804 0)
(-6.6705e-05 1.01399e-05 0)
(-0.000267137 0.00025263 0)
(-0.000611227 0.000543018 0)
(-0.00110961 0.000850502 0)
(-0.0017637 0.00115491 0)
(-0.00256867 0.00144382 0)
(-0.00351564 0.00171028 0)
(-0.00459337 0.00195114 0)
(-0.00578955 0.00216573 0)
(-0.00709164 0.00235487 0)
(-0.00848737 0.00252025 0)
(-0.0099651 0.00266382 0)
(-0.0115139 0.00278752 0)
(-0.0131234 0.00289299 0)
(-0.0147838 0.00298145 0)
(-0.0164856 0.00305359 0)
(-0.0182196 0.00310962 0)
(-0.019976 0.00314922 0)
(-0.0217451 0.00317165 0)
(-0.0235166 0.00317577 0)
(-0.0252794 0.0031602 0)
(-0.0270219 0.00312333 0)
(-0.0287314 0.00306349 0)
(-0.0303948 0.00297901 0)
(-0.0319979 0.00286834 0)
(-0.0335263 0.0027301 0)
(-0.0349647 0.00256321 0)
(-0.0362977 0.00236693 0)
(-0.0375097 0.00214097 0)
(-0.0385855 0.00188553 0)
(-0.0395099 0.00160132 0)
(-0.0402688 0.00128968 0)
(-0.0408488 0.000952532 0)
(-0.0412381 0.000592446 0)
(-0.0414262 0.000212688 0)
(-0.0414048 -0.000182959 0)
(-0.0411675 -0.000590096 0)
(-0.0407107 -0.00100375 0)
(-0.0400332 -0.00141848 0)
(-0.0391369 -0.00182847 0)
(-0.0380265 -0.00222759 0)
(-0.0367098 -0.00260958 0)
(-0.0351981 -0.00296812 0)
(-0.0335053 -0.00329701 0)
(-0.0316485 -0.00359032 0)
(-0.0296478 -0.00384253 0)
(-0.0275255 -0.00404868 0)
(-0.0253064 -0.00420455 0)
(-0.0230171 -0.00430674 0)
(-0.0206857 -0.00435285 0)
(-0.0183412 -0.0043415 0)
(-0.016013 -0.00427248 0)
(-0.0137304 -0.00414671 0)
(-0.0115221 -0.0039663 0)
(-0.0094154 -0.0037345 0)
(-0.00743581 -0.00345567 0)
(-0.00560649 -0.00313517 0)
(-0.0039477 -0.00277932 0)
(-0.00247639 -0.00239526 0)
(-0.00120567 -0.00199085 0)
(-0.000144553 -0.00157463 0)
(0.000702496 -0.00115573 0)
(0.00133582 -0.00074389 0)
(0.00176087 -0.000349512 0)
(0.00198855 1.62247e-05 0)
(0.00203544 0.000341166 0)
(0.0019242 0.000611976 0)
(0.00168371 0.000813883 0)
(0.00134932 0.000930695 0)
(0.000962682 0.00094521 0)
(0.000572956 0.000840711 0)
(0.000242227 0.000604988 0)
(2.67174e-05 0.00023926 0)
(4.41838e-06 -0.000123273 0)
(-5.51344e-05 -6.05497e-05 0)
(-0.00024555 0.000210008 0)
(-0.000597102 0.000602884 0)
(-0.00112689 0.0010589 0)
(-0.00184213 0.00153705 0)
(-0.00274196 0.00200968 0)
(-0.00381964 0.00245918 0)
(-0.00506452 0.00287537 0)
(-0.00646365 0.00325327 0)
(-0.00800288 0.00359148 0)
(-0.00966779 0.00389079 0)
(-0.0114442 0.00415328 0)
(-0.0133183 0.00438153 0)
(-0.015277 0.00457811 0)
(-0.017308 0.0047452 0)
(-0.0193989 0.0048844 0)
(-0.0215381 0.00499659 0)
(-0.0237137 0.0050819 0)
(-0.0259135 0.00513975 0)
(-0.028125 0.00516891 0)
(-0.0303351 0.00516762 0)
(-0.0325298 0.00513372 0)
(-0.0346944 0.00506481 0)
(-0.0368133 0.00495838 0)
(-0.03887 0.00481198 0)
(-0.0408472 0.00462334 0)
(-0.0427271 0.00439054 0)
(-0.0444914 0.0041121 0)
(-0.0461214 0.00378713 0)
(-0.0475988 0.00341541 0)
(-0.0489051 0.00299752 0)
(-0.0500229 0.00253485 0)
(-0.0509356 0.00202972 0)
(-0.0516276 0.00148539 0)
(-0.0520855 0.00090608 0)
(-0.0522974 0.000297006 0)
(-0.052254 -0.000335743 0)
(-0.0519485 -0.000985188 0)
(-0.0513772 -0.00164354 0)
(-0.0505392 -0.00230231 0)
(-0.0494372 -0.00295247 0)
(-0.0480774 -0.00358457 0)
(-0.0464695 -0.00418895 0)
(-0.0446267 -0.00475593 0)
(-0.042566 -0.00527602 0)
(-0.0403076 -0.00574013 0)
(-0.037875 -0.00613983 0)
(-0.0352946 -0.00646756 0)
(-0.0325955 -0.00671685 0)
(-0.0298088 -0.00688251 0)
(-0.0269676 -0.00696081 0)
(-0.0241058 -0.00694962 0)
(-0.0212581 -0.00684851 0)
(-0.018459 -0.00665885 0)
(-0.0157423 -0.00638378 0)
(-0.0131404 -0.0060282 0)
(-0.0106838 -0.00559872 0)
(-0.00840014 -0.00510356 0)
(-0.00631395 -0.00455239 0)
(-0.00444582 -0.00395623 0)
(-0.00281202 -0.00332728 0)
(-0.00142395 -0.0026788 0)
(-0.000287815 -0.00202503 0)
(0.000595843 -0.00138114 0)
(0.00123243 -0.000763277 0)
(0.00163359 -0.000188655 0)
(0.00181752 0.000324262 0)
(0.00180913 0.000755573 0)
(0.00164035 0.00108378 0)
(0.00135 0.00128581 0)
(0.000983831 0.00133751 0)
(0.000596038 0.00121494 0)
(0.000255964 0.000897082 0)
(2.85903e-05 0.000370289 0)
(-2.64014e-06 -8.1316e-05 0)
(-0.000134416 0.000114339 0)
(-0.000451157 0.000552518 0)
(-0.00097453 0.00113389 0)
(-0.00171204 0.00178827 0)
(-0.00266544 0.00246604 0)
(-0.00383016 0.00313304 0)
(-0.00519658 0.00376712 0)
(-0.00675178 0.00435512 0)
(-0.00848081 0.0048904 0)
(-0.0103678 0.00537082 0)
(-0.0123965 0.00579713 0)
(-0.0145511 0.00617174 0)
(-0.0168161 0.00649775 0)
(-0.0191766 0.00677829 0)
(-0.0216182 0.007016 0)
(-0.0241266 0.00721275 0)
(-0.0266881 0.00736947 0)
(-0.0292883 0.00748614 0)
(-0.0319129 0.00756175 0)
(-0.0345468 0.00759449 0)
(-0.0371742 0.00758185 0)
(-0.0397785 0.00752083 0)
(-0.0423421 0.00740813 0)
(-0.0448465 0.00724036 0)
(-0.0472724 0.00701423 0)
(-0.0495996 0.00672679 0)
(-0.0518075 0.00637558 0)
(-0.0538749 0.00595882 0)
(-0.0557805 0.00547557 0)
(-0.0575033 0.00492587 0)
(-0.0590227 0.00431084 0)
(-0.060319 0.0036328 0)
(-0.0613736 0.00289533 0)
(-0.0621695 0.00210332 0)
(-0.0626918 0.00126297 0)
(-0.0629277 0.000381824 0)
(-0.0628671 -0.000531368 0)
(-0.062503 -0.00146665 0)
(-0.0618315 -0.00241302 0)
(-0.0608522 -0.00335852 0)
(-0.0595687 -0.00429051 0)
(-0.057988 -0.0051958 0)
(-0.0561213 -0.00606093 0)
(-0.0539839 -0.00687246 0)
(-0.0515946 -0.00761722 0)
(-0.0489763 -0.00828261 0)
(-0.0461553 -0.00885694 0)
(-0.0431613 -0.00932971 0)
(-0.0400267 -0.00969192 0)
(-0.0367865 -0.00993631 0)
(-0.0334776 -0.0100576 0)
(-0.0301382 -0.0100528 0)
(-0.0268073 -0.00992108 0)
(-0.023524 -0.00966425 0)
(-0.0203265 -0.00928649 0)
(-0.0172518 -0.00879448 0)
(-0.0143347 -0.00819726 0)
(-0.0116072 -0.00750617 0)
(-0.00909759 -0.00673463 0)
(-0.00683014 -0.00589799 0)
(-0.00482425 -0.00501331 0)
(-0.00309397 -0.00409921 0)
(-0.00164751 -0.0031757 0)
(-0.000486853 -0.00226411 0)
(0.000392661 -0.00138704 0)
(0.0010026 -0.000568469 0)
(0.0013617 0.000166176 0)
(0.00149603 0.00078983 0)
(0.00143917 0.00127371 0)
(0.00123219 0.00158731 0)
(0.000923643 0.00169881 0)
(0.000571357 0.00157589 0)
(0.000249369 0.00118707 0)
(2.83198e-05 0.000502723 0)
(-9.96315e-06 2.52539e-06 0)
(-0.000219516 0.000396066 0)
(-0.000673309 0.00105275 0)
(-0.00138283 0.00186348 0)
(-0.00234409 0.0027498 0)
(-0.0035518 0.00365541 0)
(-0.00499647 0.0045411 0)
(-0.0066647 0.00538107 0)
(-0.00854067 0.00615985 0)
(-0.0106071 0.00686951 0)
(-0.0128463 0.00750741 0)
(-0.0152403 0.00807435 0)
(-0.0177717 0.00857308 0)
(-0.0204234 0.00900719 0)
(-0.0231789 0.00938029 0)
(-0.0260221 0.00969536 0)
(-0.0289371 0.00995444 0)
(-0.0319081 0.0101584 0)
(-0.0349187 0.0103069 0)
(-0.0379524 0.0103984 0)
(-0.0409919 0.0104304 0)
(-0.0440189 0.0103995 0)
(-0.0470143 0.0103018 0)
(-0.0499581 0.0101331 0)
(-0.0528291 0.00988896 0)
(-0.0556054 0.00956539 0)
(-0.0582643 0.00915874 0)
(-0.0607826 0.00866608 0)
(-0.0631368 0.00808543 0)
(-0.0653033 0.00741593 0)
(-0.0672589 0.00665803 0)
(-0.068981 0.00581363 0)
(-0.0704482 0.00488616 0)
(-0.0716404 0.00388073 0)
(-0.0725392 0.0028041 0)
(-0.0731286 0.00166475 0)
(-0.0733949 0.00047282 0)
(-0.0733277 -0.00075996 0)
(-0.0729193 -0.00202037 0)
(-0.0721661 -0.00329386 0)
(-0.0710677 -0.00456473 0)
(-0.0696282 -0.00581639 0)
(-0.0678555 -0.0070316 0)
(-0.0657618 -0.00819281 0)
(-0.0633636 -0.00928248 0)
(-0.0606814 -0.0102835 0)
(-0.0577399 -0.0111793 0)
(-0.0545677 -0.0119548 0)
(-0.0511968 -0.0125963 0)
(-0.0476626 -0.0130918 0)
(-0.044003 -0.0134318 0)
(-0.0402583 -0.0136093 0)
(-0.0364702 -0.0136201 0)
(-0.0326817 -0.0134629 0)
(-0.0289355 -0.0131399 0)
(-0.0252743 -0.0126561 0)
(-0.021739 -0.0120201 0)
(-0.0183685 -0.0112435 0)
(-0.015199 -0.0103408 0)
(-0.0122627 -0.00932949 0)
(-0.00958746 -0.00822958 0)
(-0.00719596 -0.00706342 0)
(-0.0051052 -0.00585546 0)
(-0.00332583 -0.00463202 0)
(-0.00186175 -0.00342116 0)
(-0.000709671 -0.00225255 0)
(0.000141137 -0.00115749 0)
(0.000709128 -0.000168954 0)
(0.00102063 0.000678326 0)
(0.00110996 0.00134775 0)
(0.00101944 0.00180085 0)
(0.000799443 0.0019975 0)
(0.000510169 0.00189623 0)
(0.000228021 0.00145454 0)
(2.66898e-05 0.000627666 0)
(-1.73553e-05 0.000130205 0)
(-0.000307835 0.000790956 0)
(-0.000905445 0.00172074 0)
(-0.00181071 0.0028041 0)
(-0.00300688 0.00395702 0)
(-0.00448058 0.00511861 0)
(-0.00621638 0.00624617 0)
(-0.00819635 0.00731153 0)
(-0.0104012 0.00829774 0)
(-0.012811 0.00919619 0)
(-0.0154058 0.0100041 0)
(-0.0181661 0.0107226 0)
(-0.0210729 0.0113549 0)
(-0.0241076 0.0119051 0)
(-0.0272524 0.0123771 0)
(-0.0304896 0.0127743 0)
(-0.0338017 0.0130988 0)
(-0.0371712 0.0133511 0)
(-0.04058 0.0135306 0)
(-0.0440096 0.013635 0)
(-0.0474406 0.013661 0)
(-0.0508526 0.0136044 0)
(-0.0542243 0.0134601 0)
(-0.0575333 0.013223 0)
(-0.0607562 0.0128878 0)
(-0.0638688 0.0124497 0)
(-0.0668463 0.0119042 0)
(-0.0696631 0.0112483 0)
(-0.0722936 0.0104798 0)
(-0.0747125 0.00959799 0)
(-0.0768947 0.00860398 0)
(-0.0788159 0.00750059 0)
(-0.0804532 0.00629257 0)
(-0.0817852 0.00498673 0)
(-0.0827923 0.00359195 0)
(-0.0834576 0.00211918 0)
(-0.0837668 0.000581394 0)
(-0.0837085 -0.0010065 0)
(-0.083275 -0.00262778 0)
(-0.0824622 -0.00426415 0)
(-0.0812698 -0.00589591 0)
(-0.0797019 -0.00750231 0)
(-0.0777669 -0.00906183 0)
(-0.0754774 -0.0105526 0)
(-0.0728507 -0.0119526 0)
(-0.0699085 -0.0132407 0)
(-0.0666767 -0.0143961 0)
(-0.0631854 -0.0153999 0)
(-0.0594686 -0.0162347 0)
(-0.0555637 -0.0168857 0)
(-0.0515112 -0.0173406 0)
(-0.0473542 -0.0175904 0)
(-0.0431377 -0.0176295 0)
(-0.0389078 -0.0174559 0)
(-0.0347112 -0.0170717 0)
(-0.0305941 -0.0164832 0)
(-0.0266016 -0.0157003 0)
(-0.0227769 -0.0147372 0)
(-0.0191599 -0.013612 0)
(-0.015787 -0.0123462 0)
(-0.0126899 -0.0109647 0)
(-0.00989493 -0.00949547 0)
(-0.0074223 -0.00796922 0)
(-0.00528557 -0.00641901 0)
(-0.00349108 -0.0048801 0)
(-0.00203752 -0.00338975 0)
(-0.000915613 -0.0019871 0)
(-0.000107882 -0.000713161 0)
(0.000411527 0.000389152 0)
(0.000676943 0.00127495 0)
(0.000731184 0.00189732 0)
(0.000625575 0.0022073 0)
(0.000421623 0.00215397 0)
(0.000196213 0.00168394 0)
(2.42472e-05 0.000738901 0)
(-2.47315e-05 0.000302747 0)
(-0.000397806 0.00130279 0)
(-0.00114325 0.00256287 0)
(-0.00225027 0.00396407 0)
(-0.00368867 0.00541925 0)
(-0.00543617 0.00686507 0)
(-0.00747073 0.00825708 0)
(-0.00976925 0.00956605 0)
(-0.0123084 0.0107746 0)
(-0.0150654 0.0118743 0)
(-0.018018 0.0128627 0)
(-0.0211447 0.0137416 0)
(-0.0244249 0.0145147 0)
(-0.027839 0.0151868 0)
(-0.0313675 0.0157624 0)
(-0.0349917 0.0162448 0)
(-0.0386925 0.0166362 0)
(-0.042451 0.0169368 0)
(-0.0462475 0.0171454 0)
(-0.0500617 0.0172591 0)
(-0.0538725 0.0172735 0)
(-0.0576576 0.0171833 0)
(-0.0613937 0.0169826 0)
(-0.0650564 0.0166652 0)
(-0.0686204 0.0162247 0)
(-0.0720595 0.0156557 0)
(-0.0753468 0.0149532 0)
(-0.078455 0.0141138 0)
(-0.0813569 0.0131352 0)
(-0.0840252 0.0120173 0)
(-0.0864334 0.0107618 0)
(-0.0885559 0.00937257 0)
(-0.0903684 0.00785584 0)
(-0.0918483 0.0062203 0)
(-0.0929751 0.00447706 0)
(-0.0937308 0.00263971 0)
(-0.0941002 0.000724205 0)
(-0.0940715 -0.00125122 0)
(-0.0936361 -0.00326623 0)
(-0.0927894 -0.0052986 0)
(-0.0915308 -0.00732452 0)
(-0.0898642 -0.00931889 0)
(-0.0877976 -0.0112557 0)
(-0.0853438 -0.0131086 0)
(-0.0825203 -0.0148511 0)
(-0.0793493 -0.0164573 0)
(-0.0758572 -0.0179023 0)
(-0.0720754 -0.0191629 0)
(-0.0680389 -0.020218 0)
(-0.063787 -0.0210492 0)
(-0.0593622 -0.0216413 0)
(-0.05481 -0.0219829 0)
(-0.0501782 -0.0220666 0)
(-0.045516 -0.0218896 0)
(-0.0408737 -0.0214538 0)
(-0.0363013 -0.0207658 0)
(-0.0318479 -0.0198374 0)
(-0.0275609 -0.0186853 0)
(-0.0234845 -0.0173307 0)
(-0.0196594 -0.0157995 0)
(-0.0161214 -0.0141216 0)
(-0.0129009 -0.0123309 0)
(-0.0100218 -0.0104647 0)
(-0.00750103 -0.00856309 0)
(-0.005348 -0.00666903 0)
(-0.0035639 -0.00482783 0)
(-0.0021415 -0.00308695 0)
(-0.00106491 -0.00149593 0)
(-0.00030933 -0.000106339 0)
(0.000158947 0.00102817 0)
(0.000382598 0.0018518 0)
(0.000413236 0.00230647 0)
(0.000312647 0.00233164 0)
(0.00015705 0.00186357 0)
(2.13489e-05 0.00083213 0)
(-3.20562e-05 0.000520605 0)
(-0.000488427 0.00193361 0)
(-0.00138375 0.00358285 0)
(-0.00269578 0.0053484 0)
(-0.00438053 0.00714231 0)
(-0.00640635 0.0089008 0)
(-0.00874406 0.0105794 0)
(-0.011365 0.0121494 0)
(-0.0142414 0.013594 0)
(-0.0173473 0.0149058 0)
(-0.0206578 0.0160835 0)
(-0.0241496 0.0171297 0)
(-0.0278006 0.0180493 0)
(-0.0315898 0.0188477 0)
(-0.0354965 0.0195299 0)
(-0.0395008 0.0200994 0)
(-0.0435825 0.0205582 0)
(-0.0477213 0.0209062 0)
(-0.0518962 0.0211414 0)
(-0.0560854 0.0212601 0)
(-0.0602662 0.021257 0)
(-0.0644147 0.0211257 0)
(-0.0685059 0.0208591 0)
(-0.0725138 0.0204499 0)
(-0.0764113 0.0198911 0)
(-0.0801705 0.0191762 0)
(-0.083763 0.0183 0)
(-0.0871599 0.0172587 0)
(-0.0903325 0.0160503 0)
(-0.0932521 0.0146749 0)
(-0.0958909 0.0131351 0)
(-0.098222 0.011436 0)
(-0.10022 0.00958538 0)
(-0.101861 0.00759388 0)
(-0.103124 0.00547495 0)
(-0.103989 0.00324486 0)
(-0.104441 0.000922633 0)
(-0.104467 -0.00147012 0)
(-0.104056 -0.00390935 0)
(-0.103205 -0.00636887 0)
(-0.101911 -0.00882064 0)
(-0.100177 -0.0112351 0)
(-0.0980107 -0.0135818 0)
(-0.0954248 -0.0158294 0)
(-0.092436 -0.0179469 0)
(-0.0890663 -0.0199035 0)
(-0.0853426 -0.0216698 0)
(-0.0812962 -0.0232181 0)
(-0.0769635 -0.024523 0)
(-0.0723845 -0.0255624 0)
(-0.0676037 -0.0263176 0)
(-0.0626684 -0.0267745 0)
(-0.0576292 -0.0269235 0)
(-0.0525382 -0.0267605 0)
(-0.0474492 -0.0262866 0)
(-0.0424161 -0.025509 0)
(-0.0374922 -0.0244407 0)
(-0.0327292 -0.0231007 0)
(-0.028176 -0.0215135 0)
(-0.0238779 -0.0197093 0)
(-0.0198754 -0.0177231 0)
(-0.0162034 -0.015595 0)
(-0.01289 -0.0133689 0)
(-0.00995625 -0.0110926 0)
(-0.00741495 -0.00881704 0)
(-0.00527048 -0.00659605 0)
(-0.00351824 -0.0044859 0)
(-0.00214445 -0.00254516 0)
(-0.00112596 -0.000834534 0)
(-0.00043017 0.000583121 0)
(-1.51004e-05 0.00164273 0)
(0.000170569 0.00227682 0)
(0.00018831 0.00241533 0)
(0.000112705 0.00198464 0)
(1.82202e-05 0.000904401 0)
(-3.93108e-05 0.00078385 0)
(-0.000578979 0.00268415 0)
(-0.00162469 0.00478231 0)
(-0.00314281 0.00695947 0)
(-0.00507539 0.00912901 0)
(-0.00738115 0.0112287 0)
(-0.0100235 0.0132158 0)
(-0.0129678 0.0150635 0)
(-0.0161818 0.016757 0)
(-0.0196359 0.0182907 0)
(-0.0233027 0.0196651 0)
(-0.0271568 0.0208845 0)
(-0.0311747 0.0219549 0)
(-0.0353339 0.0228827 0)
(-0.0396128 0.0236734 0)
(-0.0439902 0.0243308 0)
(-0.0484452 0.0248567 0)
(-0.0529561 0.0252506 0)
(-0.0575009 0.0255096 0)
(-0.0620565 0.0256292 0)
(-0.066599 0.0256028 0)
(-0.071103 0.0254232 0)
(-0.0755422 0.0250819 0)
(-0.0798891 0.0245707 0)
(-0.0841153 0.0238816 0)
(-0.0881915 0.0230076 0)
(-0.0920878 0.0219429 0)
(-0.0957743 0.0206835 0)
(-0.0992208 0.0192277 0)
(-0.102398 0.0175761 0)
(-0.105276 0.0157321 0)
(-0.107827 0.013702 0)
(-0.110025 0.0114954 0)
(-0.111845 0.00912465 0)
(-0.113264 0.00660572 0)
(-0.114263 0.00395752 0)
(-0.114823 0.00120214 0)
(-0.114931 -0.00163543 0)
(-0.114576 -0.00452745 0)
(-0.113752 -0.00744376 0)
(-0.112455 -0.010352 0)
(-0.110688 -0.0132183 0)
(-0.108456 -0.0160072 0)
(-0.105771 -0.0186829 0)
(-0.102649 -0.0212092 0)
(-0.0991105 -0.0235504 0)
(-0.0951828 -0.0256721 0)
(-0.0908971 -0.0275418 0)
(-0.0862895 -0.0291296 0)
(-0.0814013 -0.0304089 0)
(-0.0762779 -0.0313573 0)
(-0.0709686 -0.0319574 0)
(-0.0655263 -0.0321968 0)
(-0.0600061 -0.0320696 0)
(-0.0544653 -0.0315759 0)
(-0.0489617 -0.0307229 0)
(-0.043553 -0.0295244 0)
(-0.0382958 -0.0280015 0)
(-0.0332439 -0.0261819 0)
(-0.0284479 -0.0241 0)
(-0.0239533 -0.021796 0)
(-0.0198003 -0.0193162 0)
(-0.0160218 -0.0167116 0)
(-0.0126435 -0.014038 0)
(-0.00968227 -0.0113546 0)
(-0.00714636 -0.00872433 0)
(-0.00503434 -0.00621277 0)
(-0.0033351 -0.00388802 0)
(-0.00202763 -0.00182045 0)
(-0.00108093 -8.25755e-05 0)
(-0.000454171 0.00125089 0)
(-9.67871e-05 0.0021028 0)
(5.19782e-05 0.00239366 0)
(6.46068e-05 0.00204044 0)
(1.49948e-05 0.000953666 0)
(-4.64782e-05 0.00109226 0)
(-0.000668875 0.00355419 0)
(-0.00186425 0.00616119 0)
(-0.00358767 0.00879745 0)
(-0.00576726 0.0113796 0)
(-0.00835203 0.013849 0)
(-0.0112978 0.0161662 0)
(-0.0145639 0.0183077 0)
(-0.0181133 0.0202622 0)
(-0.0219127 0.0220268 0)
(-0.0259321 0.0236045 0)
(-0.030144 0.0250018 0)
(-0.0345234 0.0262264 0)
(-0.0390464 0.0272858 0)
(-0.0436907 0.0281863 0)
(-0.048434 0.0289318 0)
(-0.0532543 0.0295241 0)
(-0.0581294 0.0299619 0)
(-0.063036 0.0302419 0)
(-0.0679503 0.0303583 0)
(-0.072847 0.0303035 0)
(-0.0777 0.030069 0)
(-0.0824816 0.0296453 0)
(-0.0871632 0.0290231 0)
(-0.0917154 0.0281936 0)
(-0.0961077 0.027149 0)
(-0.100309 0.0258831 0)
(-0.104289 0.0243919 0)
(-0.108016 0.0226738 0)
(-0.111459 0.02073 0)
(-0.114588 0.0185648 0)
(-0.117375 0.0161858 0)
(-0.119791 0.0136038 0)
(-0.121811 0.0108336 0)
(-0.12341 0.00789321 0)
(-0.124569 0.00480418 0)
(-0.125266 0.00159159 0)
(-0.125488 -0.00171626 0)
(-0.125222 -0.00508801 0)
(-0.124459 -0.00848955 0)
(-0.123195 -0.0118843 0)
(-0.121429 -0.0152339 0)
(-0.119167 -0.0184981 0)
(-0.116417 -0.0216361 0)
(-0.113194 -0.0246066 0)
(-0.109519 -0.0273688 0)
(-0.105415 -0.0298829 0)
(-0.100915 -0.0321111 0)
(-0.096054 -0.0340186 0)
(-0.0908735 -0.0355739 0)
(-0.0854199 -0.0367502 0)
(-0.0797441 -0.037526 0)
(-0.0739012 -0.037886 0)
(-0.0679492 -0.0378214 0)
(-0.0619488 -0.037331 0)
(-0.055962 -0.0364212 0)
(-0.0500513 -0.0351066 0)
(-0.0442783 -0.0334098 0)
(-0.0387025 -0.0313614 0)
(-0.0333802 -0.0289997 0)
(-0.0283627 -0.0263706 0)
(-0.023696 -0.0235263 0)
(-0.0194187 -0.0205255 0)
(-0.0155617 -0.0174319 0)
(-0.012147 -0.0143139 0)
(-0.00918694 -0.0112438 0)
(-0.00668414 -0.00829693 0)
(-0.00463067 -0.00555167 0)
(-0.00300815 -0.00308852 0)
(-0.00178767 -0.000990205 0)
(-0.000929884 0.000658508 0)
(-0.000385319 0.00177062 0)
(-9.42726e-05 0.00225693 0)
(1.35974e-05 0.00202552 0)
(1.17433e-05 0.000978425 0)
(-5.35365e-05 0.00144537 0)
(-0.000757574 0.00454263 0)
(-0.00210076 0.007718 0)
(-0.00402705 0.0108606 0)
(-0.00645079 0.0138922 0)
(-0.00931133 0.0167593 0)
(-0.0125569 0.0194278 0)
(-0.0161406 0.021879 0)
(-0.0200207 0.0241058 0)
(-0.0241603 0.0261095 0)
(-0.0285266 0.0278965 0)
(-0.03309 0.0294758 0)
(-0.0378239 0.0308573 0)
(-0.0427035 0.03205 0)
(-0.0477052 0.0330609 0)
(-0.0528062 0.0338945 0)
(-0.0579837 0.0345521 0)
(-0.0632147 0.0350323 0)
(-0.0684753 0.0353306 0)
(-0.0737407 0.0354402 0)
(-0.078985 0.0353526 0)
(-0.0841811 0.0350577 0)
(-0.0893006 0.0345452 0)
(-0.094314 0.0338047 0)
(-0.099191 0.0328263 0)
(-0.1039 0.0316017 0)
(-0.10841 0.0301244 0)
(-0.112689 0.0283902 0)
(-0.116705 0.0263977 0)
(-0.120425 0.0241487 0)
(-0.12382 0.0216483 0)
(-0.126859 0.0189051 0)
(-0.129514 0.0159318 0)
(-0.131757 0.0127447 0)
(-0.133564 0.00936408 0)
(-0.13491 0.00581402 0)
(-0.135777 0.00212241 0)
(-0.136146 -0.00167928 0)
(-0.136003 -0.00555621 0)
(-0.135338 -0.00947042 0)
(-0.134143 -0.0133812 0)
(-0.132417 -0.0172456 0)
(-0.130161 -0.0210188 0)
(-0.127382 -0.0246547 0)
(-0.124094 -0.0281068 0)
(-0.120313 -0.0313288 0)
(-0.116063 -0.0342753 0)
(-0.111374 -0.0369028 0)
(-0.106282 -0.0391709 0)
(-0.100826 -0.0410427 0)
(-0.0950555 -0.0424865 0)
(-0.0890209 -0.0434759 0)
(-0.0827796 -0.0439917 0)
(-0.0763925 -0.0440219 0)
(-0.0699239 -0.043563 0)
(-0.06344 -0.0426202 0)
(-0.0570084 -0.041208 0)
(-0.0506962 -0.0393502 0)
(-0.0445691 -0.03708 0)
(-0.0386896 -0.0344396 0)
(-0.0331159 -0.03148 0)
(-0.0279003 -0.02826 0)
(-0.0230879 -0.0248457 0)
(-0.0187158 -0.0213095 0)
(-0.0148116 -0.0177291 0)
(-0.011393 -0.0141869 0)
(-0.00846696 -0.0107688 0)
(-0.00602945 -0.00756379 0)
(-0.00406524 -0.00466327 0)
(-0.00254792 -0.0021607 0)
(-0.00144003 -0.000151438 0)
(-0.000693317 0.00126736 0)
(-0.000249386 0.00199647 0)
(-3.98952e-05 0.00193528 0)
(8.50338e-06 0.000977491 0)
(-6.04565e-05 0.00184243 0)
(-0.000844529 0.00564755 0)
(-0.00233264 0.00944992 0)
(-0.00445784 0.0131453 0)
(-0.00712098 0.0166625 0)
(-0.0102519 0.019955 0)
(-0.0137912 0.0229955 0)
(-0.0176862 0.0257716 0)
(-0.0218901 0.0282819 0)
(-0.0263625 0.0305325 0)
(-0.0310678 0.0325341 0)
(-0.0359745 0.0342991 0)
(-0.0410544 0.0358398 0)
(-0.0462816 0.0371671 0)
(-0.0516318 0.0382889 0)
(-0.0570814 0.0392103 0)
(-0.0626071 0.0399325 0)
(-0.0681853 0.0404534 0)
(-0.0737916 0.0407679 0)
(-0.0794006 0.040868 0)
(-0.0849858 0.0407439 0)
(-0.0905196 0.0403846 0)
(-0.0959729 0.0397783 0)
(-0.101316 0.0389137 0)
(-0.106517 0.0377801 0)
(-0.111546 0.0363685 0)
(-0.116368 0.034672 0)
(-0.120953 0.0326863 0)
(-0.125267 0.0304102 0)
(-0.129278 0.0278459 0)
(-0.132954 0.0249992 0)
(-0.136264 0.02188 0)
(-0.139179 0.0185021 0)
(-0.141671 0.0148836 0)
(-0.143711 0.0110468 0)
(-0.145277 0.00701804 0)
(-0.146345 0.00282781 0)
(-0.146896 -0.00148945 0)
(-0.146913 -0.00589556 0)
(-0.146383 -0.0103489 0)
(-0.145296 -0.0148047 0)
(-0.143648 -0.0192156 0)
(-0.141436 -0.023532 0)
(-0.138667 -0.0277027 0)
(-0.135348 -0.0316757 0)
(-0.131496 -0.0353988 0)
(-0.127132 -0.0388208 0)
(-0.122283 -0.0418921 0)
(-0.116983 -0.044566 0)
(-0.111273 -0.0467997 0)
(-0.105199 -0.0485554 0)
(-0.0988151 -0.0498017 0)
(-0.0921793 -0.0505142 0)
(-0.0853551 -0.050677 0)
(-0.0784104 -0.0502834 0)
(-0.0714159 -0.0493366 0)
(-0.0644443 -0.0478503 0)
(-0.057569 -0.045849 0)
(-0.0508621 -0.0433678 0)
(-0.0443934 -0.0404528 0)
(-0.0382282 -0.0371597 0)
(-0.0324265 -0.0335541 0)
(-0.0270408 -0.0297097 0)
(-0.022115 -0.0257079 0)
(-0.0176835 -0.0216364 0)
(-0.0137698 -0.0175882 0)
(-0.0103863 -0.0136602 0)
(-0.00753354 -0.00995316 0)
(-0.00519991 -0.00656985 0)
(-0.00336197 -0.00361527 0)
(-0.00198445 -0.00119593 0)
(-0.00102057 0.000580301 0)
(-0.000413123 0.00160398 0)
(-9.58485e-05 0.00176527 0)
(5.27052e-06 0.000949788 0)
(-6.7201e-05 0.00228244 0)
(-0.000929172 0.00686626 0)
(-0.00255827 0.0113529 0)
(-0.00487697 0.0156465 0)
(-0.00777292 0.0196846 0)
(-0.0111667 0.0234295 0)
(-0.0149917 0.0268621 0)
(-0.0191891 0.0299778 0)
(-0.0237077 0.0327821 0)
(-0.0285033 0.0352871 0)
(-0.0335378 0.0375083 0)
(-0.0387776 0.0394623 0)
(-0.0441932 0.0411643 0)
(-0.0497577 0.0426273 0)
(-0.0554459 0.0438607 0)
(-0.0612339 0.0448698 0)
(-0.0670979 0.045656 0)
(-0.0730137 0.0462166 0)
(-0.0789567 0.0465457 0)
(-0.0849012 0.0466344 0)
(-0.0908204 0.0464715 0)
(-0.0966862 0.0460448 0)
(-0.102469 0.0453415 0)
(-0.108139 0.044349 0)
(-0.113665 0.043056 0)
(-0.119014 0.0414527 0)
(-0.124154 0.0395318 0)
(-0.129052 0.0372889 0)
(-0.133674 0.0347228 0)
(-0.137988 0.031836 0)
(-0.141962 0.0286352 0)
(-0.145562 0.025131 0)
(-0.14876 0.0213384 0)
(-0.151524 0.0172769 0)
(-0.153827 0.0129707 0)
(-0.155641 0.00844798 0)
(-0.156943 0.00374176 0)
(-0.157711 -0.00111085 0)
(-0.157925 -0.00606861 0)
(-0.157568 -0.0110864 0)
(-0.156629 -0.0161157 0)
(-0.155098 -0.0211046 0)
(-0.152972 -0.0259989 0)
(-0.150251 -0.0307422 0)
(-0.146941 -0.0352769 0)
(-0.143054 -0.0395448 0)
(-0.138609 -0.0434884 0)
(-0.133631 -0.0470514 0)
(-0.128151 -0.0501805 0)
(-0.122209 -0.052826 0)
(-0.115852 -0.0549436 0)
(-0.109131 -0.0564954 0)
(-0.102108 -0.0574514 0)
(-0.0948475 -0.0577906 0)
(-0.0874214 -0.0575021 0)
(-0.0799048 -0.0565861 0)
(-0.072376 -0.0550547 0)
(-0.0649145 -0.0529323 0)
(-0.0575999 -0.0502554 0)
(-0.0505095 -0.0470733 0)
(-0.0437172 -0.0434466 0)
(-0.0372911 -0.0394472 0)
(-0.031292 -0.035157 0)
(-0.0257721 -0.0306665 0)
(-0.0207734 -0.026074 0)