/*--------------------------------*- C++ -*----------------------------------*\
  =========                 |
  \\      /  F ield         | OpenFOAM: The Open Source CFD Toolbox
   \\    /   O peration     | Website:  https://openfoam.org
    \\  /    A nd           | Version:  12
     \\/     M anipulation  |
\*---------------------------------------------------------------------------*/
FoamFile
{
    format      ascii;
    class       volScalarField;
    location    "6";
    object      k;
}
// * * * * * * * * * * * * * * * * * * * * * * * * * * * * * * * * * * * * * //

dimensions      [0 2 -2 0 0 0 0];

internalField   nonuniform List<scalar> 
5625
(
9.84431e-13
7.43589e-12
1.57631e-11
2.57051e-11
3.69066e-11
4.90997e-11
6.20888e-11
7.57236e-11
8.98806e-11
1.04454e-10
1.19347e-10
1.34473e-10
1.4975e-10
1.65101e-10
1.8045e-10
1.95727e-10
2.10864e-10
2.25794e-10
2.40454e-10
2.54783e-10
2.68722e-10
2.82214e-10
2.95205e-10
3.07643e-10
3.19479e-10
3.30667e-10
3.41162e-10
3.50924e-10
3.59915e-10
3.68099e-10
3.75445e-10
3.81924e-10
3.8751e-10
3.92182e-10
3.9592e-10
3.98708e-10
4.00535e-10
4.01393e-10
4.01278e-10
4.00188e-10
3.98123e-10
3.95091e-10
3.911e-10
3.86165e-10
3.80301e-10
3.73531e-10
3.65876e-10
3.57366e-10
3.4803e-10
3.37904e-10
3.27026e-10
3.15436e-10
3.0318e-10
2.90305e-10
2.76862e-10
2.62904e-10
2.4849e-10
2.33679e-10
2.18534e-10
2.03122e-10
1.8751e-10
1.71773e-10
1.55986e-10
1.40227e-10
1.24582e-10
1.09138e-10
9.39927e-11
7.92489e-11
6.5023e-11
5.14493e-11
3.86906e-11
2.6957e-11
1.65347e-11
7.80081e-12
1.03273e-12
6.65528e-12
5.92393e-11
1.35029e-10
2.25689e-10
3.27306e-10
4.37531e-10
5.54719e-10
6.77593e-10
8.05087e-10
9.36268e-10
1.07029e-09
1.20639e-09
1.34381e-09
1.48188e-09
1.61993e-09
1.75733e-09
1.89345e-09
2.02771e-09
2.15954e-09
2.28839e-09
2.41373e-09
2.53504e-09
2.65186e-09
2.7637e-09
2.87013e-09
2.97073e-09
3.06511e-09
3.1529e-09
3.23375e-09
3.30735e-09
3.37342e-09
3.4317e-09
3.48195e-09
3.52397e-09
3.5576e-09
3.5827e-09
3.59915e-09
3.60688e-09
3.60585e-09
3.59606e-09
3.5775e-09
3.55024e-09
3.51436e-09
3.46999e-09
3.41728e-09
3.3564e-09
3.28758e-09
3.21107e-09
3.12713e-09
3.03609e-09
2.93828e-09
2.83407e-09
2.72386e-09
2.60809e-09
2.4872e-09
2.36169e-09
2.23207e-09
2.09887e-09
1.96267e-09
1.82405e-09
1.68363e-09
1.54207e-09
1.40004e-09
1.25826e-09
1.11746e-09
9.78462e-10
8.42097e-10
7.09289e-10
5.81058e-10
4.58566e-10
3.43199e-10
2.3673e-10
1.41667e-10
6.21595e-11
6.98336e-12
1.47922e-11
1.32658e-10
3.04356e-10
5.11178e-10
7.43937e-10
9.96981e-10
1.26634e-09
1.54894e-09
1.84227e-09
2.14412e-09
2.45255e-09
2.76574e-09
3.082e-09
3.39974e-09
3.71743e-09
4.03361e-09
4.34687e-09
4.65584e-09
4.95921e-09
5.25573e-09
5.54418e-09
5.82338e-09
6.09223e-09
6.34964e-09
6.59461e-09
6.82617e-09
7.04342e-09
7.24551e-09
7.43166e-09
7.60113e-09
7.75327e-09
7.88749e-09
8.00325e-09
8.10008e-09
8.17761e-09
8.23551e-09
8.27352e-09
8.29148e-09
8.28927e-09
8.26691e-09
8.22437e-09
8.1618e-09
8.0794e-09
7.97745e-09
7.85627e-09
7.71631e-09
7.55805e-09
7.38206e-09
7.18898e-09
6.97952e-09
6.75446e-09
6.51466e-09
6.26104e-09
5.99458e-09
5.71634e-09
5.42742e-09
5.12902e-09
4.82237e-09
4.50877e-09
4.1896e-09
3.86627e-09
3.54029e-09
3.21322e-09
2.8867e-09
2.56246e-09
2.24235e-09
1.92832e-09
1.62254e-09
1.32739e-09
1.04564e-09
7.80598e-10
5.36552e-10
3.19538e-10
1.39293e-10
1.55321e-11
2.4447e-11
2.19605e-10
5.04897e-10
8.49738e-10
1.23891e-09
1.66287e-09
2.11482e-09
2.58947e-09
3.08246e-09
3.59003e-09
4.10881e-09
4.63572e-09
5.1679e-09
5.70262e-09
6.23731e-09
6.7695e-09
7.2968e-09
7.81692e-09
8.32765e-09
8.82687e-09
9.31253e-09
9.78265e-09
1.02354e-08
1.06689e-08
1.10814e-08
1.14715e-08
1.18374e-08
1.21779e-08
1.24915e-08
1.27771e-08
1.30336e-08
1.32599e-08
1.34551e-08
1.36185e-08
1.37494e-08
1.38473e-08
1.39116e-08
1.39423e-08
1.3939e-08
1.39017e-08
1.38305e-08
1.37255e-08
1.35871e-08
1.34158e-08
1.32121e-08
1.29767e-08
1.27105e-08
1.24144e-08
1.20894e-08
1.17369e-08
1.13581e-08
1.09543e-08
1.05273e-08
1.00786e-08
9.61001e-09
9.12342e-09
8.62082e-09
8.10429e-09
7.57604e-09
7.03838e-09
6.49371e-09
5.94458e-09
5.39363e-09
4.84365e-09
4.29758e-09
3.75856e-09
3.22995e-09
2.71546e-09
2.21919e-09
1.74592e-09
1.30137e-09
8.92886e-10
5.30658e-10
2.30839e-10
2.56978e-11
3.51666e-11
3.1609e-10
7.27397e-10
1.22546e-09
1.78853e-09
2.40285e-09
3.05852e-09
3.74778e-09
4.46422e-09
5.20225e-09
5.95693e-09
6.7237e-09
7.49833e-09
8.27684e-09
9.05544e-09
9.83051e-09
1.05986e-08
1.13563e-08
1.21004e-08
1.28278e-08
1.35355e-08
1.42206e-08
1.48805e-08
1.55124e-08
1.61139e-08
1.66826e-08
1.72163e-08
1.77129e-08
1.81705e-08
1.85872e-08
1.89615e-08
1.92919e-08
1.95771e-08
1.9816e-08
2.00074e-08
2.01508e-08
2.02454e-08
2.02908e-08
2.02867e-08
2.02333e-08
2.01302e-08
1.99779e-08
1.97769e-08
1.95278e-08
1.92315e-08
1.8889e-08
1.85015e-08
1.80704e-08
1.75971e-08
1.70836e-08
1.65316e-08
1.59433e-08
1.5321e-08
1.4667e-08
1.39839e-08
1.32746e-08
1.25418e-08
1.17887e-08
1.10186e-08
1.02346e-08
9.44054e-09
8.63998e-09
7.83684e-09
7.03524e-09
6.23952e-09
5.45431e-09
4.68459e-09
3.93583e-09
3.21412e-09
2.52652e-09
1.88143e-09
1.28955e-09
7.65614e-10
3.32739e-10
3.70194e-11
4.66568e-11
4.19486e-10
9.658e-10
1.62804e-09
2.37753e-09
3.19609e-09
4.07054e-09
4.99054e-09
5.94743e-09
6.93374e-09
7.94274e-09
8.9683e-09
1.00047e-08
1.10466e-08
1.20889e-08
1.31266e-08
1.41551e-08
1.51699e-08
1.61667e-08
1.71413e-08
1.80896e-08
1.90078e-08
1.98922e-08
2.07394e-08
2.15458e-08
2.23085e-08
2.30243e-08
2.36906e-08
2.43046e-08
2.4864e-08
2.53666e-08
2.58105e-08
2.61938e-08
2.6515e-08
2.67729e-08
2.69662e-08
2.70943e-08
2.71564e-08
2.71522e-08
2.70818e-08
2.69449e-08
2.6742e-08
2.64737e-08
2.6141e-08
2.57448e-08
2.52867e-08
2.47681e-08
2.41909e-08
2.35572e-08
2.28693e-08
2.21298e-08
2.13415e-08
2.05075e-08
1.96309e-08
1.87152e-08
1.77643e-08
1.67819e-08
1.57722e-08
1.47396e-08
1.36885e-08
1.26239e-08
1.15508e-08
1.04743e-08
9.40009e-09
8.33404e-09
7.28242e-09
6.252e-09
5.25016e-09
4.28517e-09
3.36649e-09
2.50541e-09
1.71619e-09
1.01832e-09
4.42356e-10
4.92009e-11
5.86955e-11
5.27805e-10
1.21552e-09
2.04971e-09
2.99448e-09
4.02705e-09
5.13088e-09
6.29293e-09
7.50225e-09
8.74936e-09
1.00257e-08
1.13235e-08
1.26355e-08
1.39547e-08
1.52748e-08
1.65894e-08
1.78927e-08
1.91788e-08
2.04423e-08
2.16779e-08
2.28804e-08
2.40449e-08
2.51669e-08
2.62416e-08
2.72651e-08
2.82331e-08
2.91419e-08
2.99879e-08
3.07679e-08
3.14788e-08
3.21177e-08
3.26823e-08
3.31701e-08
3.35793e-08
3.39081e-08
3.41552e-08
3.43195e-08
3.44002e-08
3.43968e-08
3.43094e-08
3.41375e-08
3.38819e-08
3.35433e-08
3.31228e-08
3.26217e-08
3.20419e-08
3.13852e-08
3.0654e-08
2.9851e-08
2.89791e-08
2.80415e-08
2.70419e-08
2.5984e-08
2.48721e-08
2.37104e-08
2.25039e-08
2.12574e-08
1.99762e-08
1.86659e-08
1.73323e-08
1.59815e-08
1.462e-08
1.32546e-08
1.18923e-08
1.05407e-08
9.20783e-09
7.90233e-09
6.63366e-09
5.4123e-09
4.25029e-09
3.16188e-09
2.16502e-09
1.28419e-09
5.57693e-10
6.20196e-11
7.11012e-11
6.39419e-10
1.47283e-09
2.48415e-09
3.63008e-09
4.88314e-09
6.22337e-09
7.63494e-09
9.10462e-09
1.06208e-08
1.21732e-08
1.37521e-08
1.53488e-08
1.69548e-08
1.85623e-08
2.01635e-08
2.17512e-08
2.33183e-08
2.48582e-08
2.63644e-08
2.78305e-08
2.92507e-08
3.06191e-08
3.19303e-08
3.31792e-08
3.43607e-08
3.54703e-08
3.65035e-08
3.74564e-08
3.83252e-08
3.91064e-08
3.9797e-08
4.03942e-08
4.08957e-08
4.12992e-08
4.16031e-08
4.18061e-08
4.19071e-08
4.19055e-08
4.18015e-08
4.15944e-08
4.1285e-08
4.08742e-08
4.03635e-08
3.97543e-08
3.90488e-08
3.82494e-08
3.73589e-08
3.63806e-08
3.53179e-08
3.4175e-08
3.29561e-08
3.1666e-08
3.03096e-08
2.88925e-08
2.74205e-08
2.58995e-08
2.43363e-08
2.27375e-08
2.11103e-08
1.94623e-08
1.78014e-08
1.61359e-08
1.44745e-08
1.28266e-08
1.1202e-08
9.61134e-09
8.06612e-09
6.5792e-09
5.16519e-09
3.84143e-09
2.62964e-09
1.55943e-09
6.771e-10
7.52915e-11
8.37197e-11
7.52941e-10
1.73451e-09
2.92595e-09
4.27643e-09
5.7537e-09
7.33431e-09
8.99968e-09
1.07342e-08
1.25243e-08
1.43576e-08
1.62228e-08
1.81096e-08
2.00078e-08
2.19082e-08
2.38017e-08
2.56795e-08
2.75336e-08
2.93557e-08
3.11383e-08
3.28738e-08
3.45553e-08
3.61759e-08
3.77291e-08
3.92088e-08
4.06091e-08
4.19245e-08
4.31498e-08
4.42802e-08
4.53112e-08
4.62388e-08
4.70594e-08
4.77695e-08
4.83663e-08
4.88473e-08
4.92105e-08
4.94541e-08
4.9577e-08
4.95784e-08
4.94587e-08
4.92165e-08
4.88532e-08
4.83697e-08
4.77675e-08
4.70486e-08
4.62154e-08
4.52707e-08
4.42178e-08
4.30606e-08
4.18032e-08
4.04505e-08
3.90074e-08
3.74797e-08
3.58733e-08
3.41947e-08
3.24508e-08
3.06489e-08
2.87968e-08
2.69025e-08
2.49747e-08
2.30222e-08
2.10547e-08
1.9082e-08
1.71146e-08
1.51635e-08
1.32404e-08
1.13581e-08
9.53008e-09
7.77167e-09
6.10011e-09
4.53585e-09
3.10443e-09
1.8407e-09
7.99134e-10
8.88559e-11
9.64167e-11
8.67165e-10
1.99779e-09
3.37044e-09
4.92666e-09
6.62944e-09
8.45184e-09
1.03725e-08
1.23735e-08
1.4439e-08
1.6555e-08
1.87085e-08
2.08872e-08
2.30798e-08
2.52753e-08
2.74632e-08
2.96336e-08
3.17768e-08
3.38837e-08
3.59451e-08
3.79527e-08
3.98981e-08
4.17734e-08
4.35712e-08
4.52844e-08
4.6906e-08
4.84297e-08
4.98496e-08
5.116e-08
5.23557e-08
5.34321e-08
5.43848e-08
5.52099e-08
5.59042e-08
5.64646e-08
5.68887e-08
5.71746e-08
5.73209e-08
5.73265e-08
5.71919e-08
5.69156e-08
5.64989e-08
5.5943e-08
5.52494e-08
5.44206e-08
5.34591e-08
5.23683e-08
5.1152e-08
4.98145e-08
4.83608e-08
4.67963e-08
4.51269e-08
4.33592e-08
4.15001e-08
3.95572e-08
3.75384e-08
3.54522e-08
3.33078e-08
3.11145e-08
2.88824e-08
2.6622e-08
2.43442e-08
2.20607e-08
1.97836e-08
1.75258e-08
1.53009e-08
1.31236e-08
1.10098e-08
8.97692e-09
7.04505e-09
5.23771e-09
3.58432e-09
2.125e-09
9.22487e-10
1.02567e-10
1.09075e-10
9.81035e-10
2.26025e-09
3.81349e-09
5.57477e-09
7.50226e-09
9.56558e-09
1.17406e-08
1.4007e-08
1.63471e-08
1.87448e-08
2.11854e-08
2.36552e-08
2.61411e-08
2.86308e-08
3.11124e-08
3.35746e-08
3.60063e-08
3.83972e-08
4.07371e-08
4.30162e-08
4.52252e-08
4.73551e-08
4.93974e-08
5.13439e-08
5.3187e-08
5.49193e-08
5.65341e-08
5.80249e-08
5.93859e-08
6.06116e-08
6.16972e-08
6.26382e-08
6.34308e-08
6.40716e-08
6.45577e-08
6.4887e-08
6.50577e-08
6.50687e-08
6.49205e-08
6.46112e-08
6.41422e-08
6.35149e-08
6.27311e-08
6.17932e-08
6.07044e-08
5.94683e-08
5.80893e-08
5.65722e-08
5.49227e-08
5.31468e-08
5.12514e-08
4.92439e-08
4.71321e-08
4.49248e-08
4.26309e-08
4.02604e-08
3.78234e-08
3.53308e-08
3.27941e-08
3.02253e-08
2.76369e-08
2.50421e-08
2.2455e-08
1.98901e-08
1.73631e-08
1.48905e-08
1.24906e-08
1.01831e-08
7.99068e-09
5.94009e-09
4.06458e-09
2.40953e-09
1.04594e-09
1.1629e-10
1.21592e-10
1.09364e-09
2.51976e-09
4.25156e-09
6.21552e-09
8.36511e-09
1.06665e-08
1.30928e-08
1.56215e-08
1.82328e-08
2.09088e-08
2.36331e-08
2.63904e-08
2.91661e-08
3.19464e-08
3.47181e-08
3.74685e-08
4.01854e-08
4.2857e-08
4.5472e-08
4.80195e-08
5.04891e-08
5.28708e-08
5.51549e-08
5.73324e-08
5.93947e-08
6.13337e-08
6.31415e-08
6.48112e-08
6.63361e-08
6.77102e-08
6.89279e-08
6.99842e-08
7.08748e-08
7.15959e-08
7.21443e-08
7.25174e-08
7.27133e-08
7.27306e-08
7.25698e-08
7.22289e-08
7.17092e-08
7.10122e-08
7.01399e-08
6.90951e-08
6.78811e-08
6.6502e-08
6.49626e-08
6.32683e-08
6.14254e-08
5.94407e-08
5.73218e-08
5.5077e-08
5.27152e-08
5.02461e-08
4.76799e-08
4.50275e-08
4.23006e-08
3.95113e-08
3.66726e-08
3.3798e-08
3.09015e-08
2.79982e-08
2.51036e-08
2.22343e-08
1.94076e-08
1.66424e-08
1.39587e-08
1.13789e-08
8.92822e-09
6.63646e-09
4.54074e-09
2.69163e-09
1.16834e-09
1.29896e-10
1.33882e-10
1.20418e-09
2.77454e-09
4.68158e-09
6.84445e-09
9.21196e-09
1.17469e-08
1.44197e-08
1.72056e-08
2.00827e-08
2.30315e-08
2.60339e-08
2.90728e-08
3.21324e-08
3.51974e-08
3.82533e-08
4.1286e-08
4.42821e-08
4.72286e-08
5.0113e-08
5.29234e-08
5.56482e-08
5.82763e-08
6.07973e-08
6.32011e-08
6.54781e-08
6.76194e-08
6.96166e-08
7.14616e-08
7.31473e-08
7.46669e-08
7.60143e-08
7.7184e-08
7.81711e-08
7.89714e-08
7.95813e-08
7.99979e-08
8.02191e-08
8.02433e-08
8.0071e-08
7.96998e-08
7.91311e-08
7.83666e-08
7.74084e-08
7.62595e-08
7.49234e-08
7.34047e-08
7.17086e-08
6.98412e-08
6.78091e-08
6.562e-08
6.32823e-08
6.0805e-08
5.81981e-08
5.54723e-08
5.26388e-08
4.97099e-08
4.66984e-08
4.36179e-08
4.04827e-08
3.73077e-08
3.41087e-08
3.09022e-08
2.77056e-08
2.45372e-08
2.14162e-08
1.83633e-08
1.54009e-08
1.25536e-08
9.84922e-09
7.32055e-09
5.00849e-09
2.96875e-09
1.28858e-09
1.43262e-10
1.45871e-10
1.31203e-09
3.02307e-09
5.10104e-09
7.45787e-09
1.00378e-08
1.28004e-08
1.57133e-08
1.87497e-08
2.18857e-08
2.51e-08
2.83729e-08
3.16859e-08
3.50215e-08
3.83633e-08
4.16952e-08
4.50022e-08
4.82694e-08
5.14827e-08
5.46286e-08
5.7694e-08
6.06663e-08
6.35335e-08
6.6284e-08
6.89071e-08
7.13922e-08
7.37296e-08
7.591e-08
7.7925e-08
7.97664e-08
8.1427e-08
8.29e-08
8.41796e-08
8.52602e-08
8.61373e-08
8.68069e-08
8.72659e-08
8.75118e-08
8.75429e-08
8.73597e-08
8.69594e-08
8.63436e-08
8.5514e-08
8.44728e-08
8.32232e-08
8.17691e-08
8.01153e-08
7.82675e-08
7.62323e-08
7.40168e-08
7.16295e-08
6.90795e-08
6.63766e-08
6.35318e-08
6.05566e-08
5.74635e-08
5.42659e-08
5.09777e-08
4.7614e-08
4.41903e-08
4.07232e-08
3.72298e-08
3.37284e-08
3.02379e-08
2.67783e-08
2.33709e-08
2.00381e-08
1.68045e-08
1.36968e-08
1.07455e-08
7.98629e-09
5.4637e-09
3.23844e-09
1.4056e-09
1.5627e-10
1.57505e-10
1.41668e-09
3.26421e-09
5.50797e-09
8.05289e-09
1.08388e-08
1.38219e-08
1.69675e-08
2.02464e-08
2.36329e-08
2.7104e-08
3.06384e-08
3.42161e-08
3.78183e-08
4.14271e-08
4.50254e-08
4.85966e-08
5.21249e-08
5.55951e-08
5.89924e-08
6.23029e-08
6.55129e-08
6.86095e-08
7.15802e-08
7.44134e-08
7.70978e-08
7.96229e-08
8.19787e-08
8.4156e-08
8.61462e-08
8.79414e-08
8.95343e-08
9.09185e-08
9.20882e-08
9.30383e-08
9.37647e-08
9.42637e-08
9.45328e-08
9.45701e-08
9.4376e-08
9.39475e-08
9.32862e-08
9.23938e-08
9.12728e-08
8.99265e-08
8.8359e-08
8.65755e-08
8.4582e-08
8.23856e-08
7.9994e-08
7.74163e-08
7.46622e-08
7.17425e-08
6.86688e-08
6.54539e-08
6.2111e-08
5.86548e-08
5.51004e-08
5.1464e-08
4.77626e-08
4.40141e-08
4.02372e-08
3.64517e-08
3.2678e-08
2.89379e-08
2.52545e-08
2.1652e-08
1.8157e-08
1.47984e-08
1.16092e-08
8.62777e-09
5.90231e-09
3.4983e-09
1.51835e-09
1.68803e-10
1.68744e-10
1.51776e-09
3.49712e-09
5.90097e-09
8.62744e-09
1.1612e-08
1.48079e-08
1.81777e-08
2.16902e-08
2.53179e-08
2.90361e-08
3.28218e-08
3.66537e-08
4.05116e-08
4.43764e-08
4.82295e-08
5.20535e-08
5.58312e-08
5.95464e-08
6.31835e-08
6.67272e-08
7.01631e-08
7.34775e-08
7.6657e-08
7.96892e-08
8.2562e-08
8.52643e-08
8.77854e-08
9.01155e-08
9.22455e-08
9.41668e-08
9.58719e-08
9.73538e-08
9.86064e-08
9.96242e-08
1.00403e-07
1.00938e-07
1.01228e-07
1.0127e-07
1.01064e-07
1.00608e-07
9.9902e-08
9.89491e-08
9.77515e-08
9.63126e-08
9.46368e-08
9.27295e-08
9.05972e-08
8.82472e-08
8.5688e-08
8.29291e-08
7.99809e-08
7.68548e-08
7.35634e-08
7.01202e-08
6.65397e-08
6.28373e-08
5.90294e-08
5.51333e-08
5.11674e-08
4.71509e-08
4.31039e-08
3.90475e-08
3.5004e-08
3.09966e-08
2.705e-08
2.31904e-08
1.94462e-08
1.58485e-08
1.24324e-08
9.2392e-09
6.32037e-09
3.74597e-09
1.62581e-09
1.80748e-10
1.79564e-10
1.61507e-09
3.72133e-09
6.27924e-09
9.18035e-09
1.2356e-08
1.57562e-08
1.93413e-08
2.3078e-08
2.69368e-08
3.08914e-08
3.49175e-08
3.89922e-08
4.3094e-08
4.72025e-08
5.1298e-08
5.53619e-08
5.9376e-08
6.3323e-08
6.71862e-08
7.09497e-08
7.4598e-08
7.81167e-08
8.14916e-08
8.47095e-08
8.77577e-08
9.06246e-08
9.32988e-08
9.577e-08
9.80286e-08
1.00066e-07
1.01873e-07
1.03444e-07
1.04771e-07
1.0585e-07
1.06674e-07
1.07241e-07
1.07547e-07
1.07591e-07
1.07372e-07
1.06887e-07
1.06137e-07
1.05126e-07
1.03855e-07
1.02327e-07
1.00549e-07
9.8524e-08
9.62603e-08
9.37654e-08
9.10481e-08
8.81184e-08
8.49873e-08
8.1667e-08
7.81708e-08
7.4513e-08
7.07088e-08
6.67748e-08
6.27284e-08
5.85881e-08
5.43733e-08
5.01045e-08
4.58032e-08
4.14919e-08
3.71943e-08
3.29352e-08
2.87408e-08
2.46391e-08
2.06602e-08
1.68372e-08
1.32075e-08
9.8149e-09
6.71398e-09
3.97915e-09
1.72698e-09
1.91994e-10
1.89961e-10
1.70858e-09
3.93674e-09
6.6426e-09
9.71135e-09
1.30703e-08
1.66664e-08
2.04577e-08
2.44086e-08
2.84883e-08
3.26685e-08
3.69234e-08
4.12289e-08
4.55622e-08
4.99014e-08
5.42259e-08
5.85158e-08
6.2752e-08
6.69162e-08
7.09908e-08
7.49589e-08
7.88045e-08
8.25121e-08
8.60671e-08
8.94555e-08
9.26642e-08
9.56808e-08
9.84938e-08
1.01092e-07
1.03466e-07
1.05606e-07
1.07504e-07
1.09153e-07
1.10545e-07
1.11674e-07
1.12537e-07
1.13128e-07
1.13446e-07
1.13486e-07
1.13251e-07
1.12736e-07
1.11942e-07
1.10873e-07
1.09531e-07
1.07919e-07
1.06043e-07
1.03907e-07
1.0152e-07
9.88899e-08
9.60249e-08
9.2936e-08
8.96348e-08
8.61339e-08
8.24474e-08
7.85902e-08
7.45785e-08
7.04297e-08
6.6162e-08
6.1795e-08
5.73492e-08
5.28464e-08
4.83091e-08
4.37612e-08
3.92278e-08
3.47349e-08
3.03105e-08
2.5984e-08
2.17872e-08
1.77551e-08
1.3927e-08
1.03493e-08
7.07931e-09
4.19557e-09
1.82088e-09
2.02431e-10
1.9995e-10
1.79841e-09
4.14365e-09
6.99154e-09
1.02211e-08
1.37557e-08
1.75395e-08
2.1528e-08
2.56837e-08
2.99739e-08
3.43688e-08
3.88411e-08
4.33652e-08
4.7917e-08
5.24735e-08
5.7013e-08
6.15143e-08
6.59575e-08
7.03233e-08
7.45931e-08
7.87495e-08
8.27755e-08
8.66551e-08
9.0373e-08
9.39148e-08
9.72668e-08
1.00416e-07
1.03351e-07
1.06061e-07
1.08534e-07
1.10762e-07
1.12736e-07
1.14449e-07
1.15893e-07
1.17063e-07
1.17953e-07
1.18561e-07
1.18881e-07
1.18913e-07
1.18657e-07
1.18108e-07
1.1727e-07
1.16144e-07
1.14732e-07
1.13039e-07
1.1107e-07
1.08831e-07
1.06329e-07
1.03572e-07
1.00571e-07
9.73353e-08
9.38778e-08
9.02114e-08
8.63506e-08
8.23111e-08
7.81098e-08
7.37648e-08
6.92951e-08
6.47213e-08
6.00649e-08
5.53485e-08
5.05959e-08
4.58322e-08
4.10835e-08
3.63774e-08
3.1743e-08
2.72113e-08
2.28156e-08
1.85926e-08
1.45835e-08
1.08368e-08
7.4126e-09
4.39299e-09
1.90653e-09
2.11952e-10
2.09562e-10
1.88485e-09
4.34273e-09
7.32721e-09
1.07114e-08
1.44146e-08
1.83783e-08
2.25555e-08
2.69069e-08
3.13978e-08
3.59969e-08
4.06753e-08
4.5406e-08
5.01636e-08
5.4924e-08
5.96641e-08
6.43618e-08
6.89962e-08
7.3547e-08
7.79951e-08
8.2322e-08
8.65102e-08
9.05432e-08
9.44051e-08
9.80811e-08
1.01557e-07
1.0482e-07
1.07858e-07
1.1066e-07
1.13215e-07
1.15513e-07
1.17547e-07
1.19307e-07
1.20789e-07
1.21985e-07
1.22891e-07
1.23503e-07
1.23817e-07
1.23832e-07
1.23549e-07
1.22963e-07
1.22076e-07
1.20892e-07
1.19412e-07
1.17641e-07
1.15584e-07
1.13248e-07
1.10639e-07
1.07766e-07
1.0464e-07
1.01271e-07
9.76722e-08
9.38564e-08
8.98389e-08
8.56359e-08
8.12646e-08
7.6744e-08
7.20937e-08
6.73351e-08
6.24905e-08
5.75833e-08
5.26385e-08
4.76819e-08
4.2741e-08
3.78444e-08
3.30224e-08
2.83074e-08
2.37341e-08
1.93405e-08
1.51698e-08
1.12721e-08
7.71016e-09
4.56924e-09
1.98299e-09
2.20451e-10
2.18852e-10
1.96838e-09
4.53508e-09
7.65143e-09
1.11847e-08
1.50505e-08
1.91872e-08
2.35457e-08
2.80846e-08
3.27672e-08
3.75607e-08
4.24345e-08
4.73604e-08
5.23115e-08
5.72623e-08
6.21888e-08
6.70677e-08
7.18771e-08
7.6596e-08
8.12042e-08
8.56829e-08
9.00139e-08
9.418e-08
9.81653e-08
1.01954e-07
1.05533e-07
1.08889e-07
1.12008e-07
1.14881e-07
1.17496e-07
1.19844e-07
1.21918e-07
1.23708e-07
1.25209e-07
1.26415e-07
1.27322e-07
1.27924e-07
1.28221e-07
1.28209e-07
1.27891e-07
1.2726e-07
1.26321e-07
1.25076e-07
1.23528e-07
1.21681e-07
1.19541e-07
1.17113e-07
1.14406e-07
1.11427e-07
1.08189e-07
1.047e-07
1.00976e-07
9.70277e-08
9.28723e-08
8.85257e-08
8.40059e-08
7.9332e-08
7.45245e-08
6.96051e-08
6.45968e-08
5.9524e-08
5.44122e-08
4.92882e-08
4.41803e-08
3.91182e-08
3.41334e-08
2.92591e-08
2.45315e-08
1.99898e-08
1.56786e-08
1.16499e-08
7.96839e-09
4.72218e-09
2.04933e-09
2.27825e-10
2.2789e-10
2.04965e-09
4.72217e-09
7.96669e-09
1.16447e-08
1.56681e-08
1.99724e-08
2.4506e-08
2.92253e-08
3.40919e-08
3.90712e-08
4.4131e-08
4.92414e-08
5.43743e-08
5.95028e-08
6.46016e-08
6.96466e-08
7.46147e-08
7.94841e-08
8.42339e-08
8.88446e-08
9.32976e-08
9.75754e-08
1.01662e-07
1.05541e-07
1.09199e-07
1.12623e-07
1.158e-07
1.1872e-07
1.21372e-07
1.23747e-07
1.25838e-07
1.27636e-07
1.29136e-07
1.30333e-07
1.31222e-07
1.318e-07
1.32064e-07
1.32013e-07
1.31649e-07
1.30966e-07
1.29969e-07
1.2866e-07
1.27042e-07
1.2512e-07
1.22899e-07
1.20385e-07
1.17587e-07
1.14514e-07
1.11175e-07
1.07581e-07
1.03747e-07
9.96855e-08
9.5412e-08
9.09435e-08
8.6298e-08
8.1495e-08
7.65553e-08
7.15011e-08
6.63559e-08
6.11445e-08
5.58931e-08
5.06293e-08
4.5382e-08
4.01818e-08
3.50609e-08
3.00536e-08
2.51971e-08
2.05318e-08
1.61033e-08
1.19651e-08
8.18382e-09
4.84974e-09
2.10466e-09
2.33974e-10
2.36767e-10
2.12946e-09
4.90588e-09
8.27617e-09
1.20961e-08
1.62737e-08
2.07416e-08
2.54456e-08
3.03401e-08
3.53846e-08
4.05426e-08
4.57801e-08
5.10657e-08
5.63697e-08
6.1664e-08
6.69218e-08
7.2118e-08
7.72285e-08
8.22306e-08
8.71028e-08
9.1825e-08
9.63781e-08
1.00744e-07
1.04908e-07
1.08852e-07
1.12564e-07
1.1603e-07
1.19238e-07
1.22179e-07
1.24841e-07
1.27217e-07
1.293e-07
1.31082e-07
1.32558e-07
1.33723e-07
1.34574e-07
1.35108e-07
1.35323e-07
1.35218e-07
1.34794e-07
1.34049e-07
1.32985e-07
1.31607e-07
1.29916e-07
1.27919e-07
1.2562e-07
1.23026e-07
1.20144e-07
1.16985e-07
1.13559e-07
1.09875e-07
1.05949e-07
1.01792e-07
9.74216e-08
9.28538e-08
8.81069e-08
8.32004e-08
7.81554e-08
7.29942e-08
6.77407e-08
6.24199e-08
5.70586e-08
5.16846e-08
4.63276e-08
4.10186e-08
3.57906e-08
3.06787e-08
2.57207e-08
2.09579e-08
1.64372e-08
1.22129e-08
8.35313e-09
4.94998e-09
2.14813e-09
2.38805e-10
2.45592e-10
2.2088e-09
5.08846e-09
8.58362e-09
1.25443e-08
1.68746e-08
2.15041e-08
2.6376e-08
3.14424e-08
3.66605e-08
4.19918e-08
4.74006e-08
5.28536e-08
5.83195e-08
6.37686e-08
6.91729e-08
7.45059e-08
7.97427e-08
8.48597e-08
8.98347e-08
9.4647e-08
9.92774e-08
1.03708e-07
1.07922e-07
1.11905e-07
1.15642e-07
1.19122e-07
1.22332e-07
1.25264e-07
1.27908e-07
1.30256e-07
1.32302e-07
1.3404e-07
1.35465e-07
1.36574e-07
1.37364e-07
1.37832e-07
1.37977e-07
1.37802e-07
1.37303e-07
1.36483e-07
1.35343e-07
1.33888e-07
1.3212e-07
1.30045e-07
1.27669e-07
1.24999e-07
1.22042e-07
1.18807e-07
1.15305e-07
1.11546e-07
1.07544e-07
1.03313e-07
9.8867e-08
9.42237e-08
8.94008e-08
8.44179e-08
7.9296e-08
7.40573e-08
6.87258e-08
6.33268e-08
5.78869e-08
5.24345e-08
4.69994e-08
4.16131e-08
3.6309e-08
3.11227e-08
2.60925e-08
2.12606e-08
1.66742e-08
1.23888e-08
8.4732e-09
5.02103e-09
2.17893e-09
2.42228e-10
2.54489e-10
2.28878e-09
5.2725e-09
8.89343e-09
1.29957e-08
1.74793e-08
2.22706e-08
2.73102e-08
3.25473e-08
3.79371e-08
4.34387e-08
4.90142e-08
5.46286e-08
6.02486e-08
6.58429e-08
7.13821e-08
7.68385e-08
8.21858e-08
8.73998e-08
9.24575e-08
9.73379e-08
1.02021e-07
1.0649e-07
1.10728e-07
1.1472e-07
1.18453e-07
1.21915e-07
1.25096e-07
1.27987e-07
1.3058e-07
1.32868e-07
1.34846e-07
1.36509e-07
1.37854e-07
1.38878e-07
1.3958e-07
1.39958e-07
1.40012e-07
1.39746e-07
1.39155e-07
1.38245e-07
1.37017e-07
1.35476e-07
1.33625e-07
1.31471e-07
1.29018e-07
1.26274e-07
1.23247e-07
1.19946e-07
1.1638e-07
1.12562e-07
1.08502e-07
1.04216e-07
9.97172e-08
9.5023e-08
9.01507e-08
8.51197e-08
7.99506e-08
7.46655e-08
6.92881e-08
6.38435e-08
5.83584e-08
5.28611e-08
4.73815e-08
4.19512e-08
3.66037e-08
3.1375e-08
2.63038e-08
2.14324e-08
1.68086e-08
1.24884e-08
8.5412e-09
5.06124e-09
2.19635e-09
2.44163e-10
2.63599e-10
2.37068e-09
5.4609e-09
9.21047e-09
1.34574e-08
1.80974e-08
2.30533e-08
2.82627e-08
3.36722e-08
3.92341e-08
4.49051e-08
5.06452e-08
5.64169e-08
6.21851e-08
6.79165e-08
7.35802e-08
7.9147e-08
8.45895e-08
8.98825e-08
9.50026e-08
9.99281e-08
1.0464e-07
1.09119e-07
1.13351e-07
1.17321e-07
1.21017e-07
1.24428e-07
1.27545e-07
1.3036e-07
1.32867e-07
1.3506e-07
1.36936e-07
1.38491e-07
1.39723e-07
1.40632e-07
1.41217e-07
1.41478e-07
1.41416e-07
1.41035e-07
1.40333e-07
1.39316e-07
1.37987e-07
1.36349e-07
1.34408e-07
1.3217e-07
1.29639e-07
1.26825e-07
1.23733e-07
1.20374e-07
1.16757e-07
1.12893e-07
1.08794e-07
1.04473e-07
9.9945e-08
9.52251e-08
9.0331e-08
8.52811e-08
8.00958e-08
7.47966e-08
6.94067e-08
6.39508e-08
5.84554e-08
5.29484e-08
4.74594e-08
4.202e-08
3.66636e-08
3.14263e-08
2.63465e-08
2.1467e-08
1.68356e-08
1.25083e-08
8.55464e-09
5.06913e-09
2.19975e-09
2.4454e-10
2.73074e-10
2.45586e-09
5.65682e-09
9.54006e-09
1.39371e-08
1.87391e-08
2.38652e-08
2.92495e-08
3.48356e-08
4.05728e-08
4.64152e-08
5.232e-08
5.82472e-08
6.41593e-08
7.00213e-08
7.58002e-08
8.14652e-08
8.69879e-08
9.2342e-08
9.75034e-08
1.0245e-07
1.07163e-07
1.11625e-07
1.1582e-07
1.19735e-07
1.23359e-07
1.26682e-07
1.29698e-07
1.32399e-07
1.34781e-07
1.36841e-07
1.38577e-07
1.39988e-07
1.41073e-07
1.41832e-07
1.42268e-07
1.42382e-07
1.42178e-07
1.41658e-07
1.40824e-07
1.39682e-07
1.38236e-07
1.3649e-07
1.3445e-07
1.32123e-07
1.29514e-07
1.26631e-07
1.23482e-07
1.20075e-07
1.1642e-07
1.12526e-07
1.08406e-07
1.04072e-07
9.95381e-08
9.48189e-08
8.99311e-08
8.48926e-08
7.97227e-08
7.44423e-08
6.9074e-08
6.36418e-08
5.81713e-08
5.26902e-08
4.72276e-08
4.18145e-08
3.64842e-08
3.12723e-08
2.62172e-08
2.13614e-08
1.67525e-08
1.24463e-08
8.51204e-09
5.04378e-09
2.18871e-09
2.43311e-10
2.83078e-10
2.54578e-09
5.86363e-09
9.88788e-09
1.44431e-08
1.94155e-08
2.47201e-08
3.02874e-08
3.60573e-08
4.1976e-08
4.79943e-08
5.40663e-08
6.01494e-08
6.62034e-08
7.21908e-08
7.80766e-08
8.38285e-08
8.94164e-08
9.48132e-08
9.99943e-08
1.04938e-07
1.09624e-07
1.14036e-07
1.1816e-07
1.21984e-07
1.25498e-07
1.28695e-07
1.31569e-07
1.34115e-07
1.36332e-07
1.38219e-07
1.39775e-07
1.41001e-07
1.419e-07
1.42475e-07
1.42728e-07
1.42665e-07
1.4229e-07
1.41605e-07
1.40618e-07
1.39332e-07
1.37753e-07
1.35888e-07
1.33741e-07
1.3132e-07
1.2863e-07
1.2568e-07
1.22476e-07
1.19028e-07
1.15344e-07
1.11435e-07
1.07311e-07
1.02983e-07
9.84661e-08
9.37731e-08
8.89197e-08
8.39227e-08
7.88007e-08
7.35733e-08
6.82621e-08
6.28901e-08
5.74822e-08
5.20649e-08
4.66666e-08
4.13178e-08
3.60509e-08
3.0901e-08
2.5906e-08
2.11078e-08
1.65535e-08
1.22983e-08
8.41071e-09
4.98366e-09
2.1626e-09
2.40408e-10
2.93779e-10
2.64198e-09
6.08483e-09
1.02598e-08
1.4984e-08
2.01382e-08
2.56327e-08
3.1394e-08
3.7358e-08
4.34671e-08
4.96685e-08
5.5913e-08
6.21544e-08
6.83498e-08
7.44588e-08
8.04443e-08
8.62717e-08
9.19099e-08
9.73304e-08
1.02508e-07
1.07421e-07
1.1205e-07
1.1638e-07
1.20397e-07
1.24091e-07
1.27455e-07
1.30482e-07
1.33171e-07
1.35518e-07
1.37526e-07
1.39195e-07
1.40528e-07
1.41529e-07
1.42203e-07
1.42556e-07
1.42592e-07
1.42319e-07
1.41742e-07
1.40867e-07
1.39701e-07
1.38251e-07
1.36522e-07
1.34522e-07
1.32257e-07
1.29735e-07
1.26961e-07
1.23944e-07
1.20691e-07
1.1721e-07
1.1351e-07
1.096e-07
1.0549e-07
1.01191e-07
9.67145e-08
9.20744e-08
8.72847e-08
8.23608e-08
7.73199e-08
7.21805e-08
6.69628e-08
6.16885e-08
5.63812e-08
5.10663e-08
4.57712e-08
4.05251e-08
3.53596e-08
3.03088e-08
2.54099e-08
2.07037e-08
1.62367e-08
1.20629e-08
8.24972e-09
4.88823e-09
2.12117e-09
2.35801e-10
3.05349e-10
2.746e-09
6.32399e-09
1.06619e-08
1.55685e-08
2.09186e-08
2.66175e-08
3.25869e-08
3.87583e-08
4.50698e-08
5.14643e-08
5.78886e-08
6.42929e-08
7.06307e-08
7.68587e-08
8.29368e-08
8.88285e-08
9.45009e-08
9.99248e-08
1.05074e-07
1.09928e-07
1.14467e-07
1.18677e-07
1.22548e-07
1.2607e-07
1.29238e-07
1.32051e-07
1.34507e-07
1.36609e-07
1.38361e-07
1.39766e-07
1.40831e-07
1.41565e-07
1.41973e-07
1.42064e-07
1.41848e-07
1.41331e-07
1.40522e-07
1.3943e-07
1.38062e-07
1.36427e-07
1.34533e-07
1.32386e-07
1.29994e-07
1.27366e-07
1.24507e-07
1.21425e-07
1.18128e-07
1.14623e-07
1.10919e-07
1.07023e-07
1.02946e-07
9.86962e-08
9.42854e-08
8.97251e-08
8.50281e-08
8.02086e-08
7.5282e-08
7.02654e-08
6.51772e-08
6.00378e-08
5.48692e-08
4.96952e-08
4.45418e-08
3.94368e-08
3.44106e-08
2.94961e-08
2.47291e-08
2.01495e-08
1.58023e-08
1.17403e-08
8.02907e-09
4.75747e-09
2.06442e-09
2.29492e-10
3.17959e-10
2.85937e-09
6.58464e-09
1.11e-08
1.62052e-08
2.17684e-08
2.76891e-08
3.38837e-08
4.02787e-08
4.68072e-08
5.34072e-08
6.0021e-08
6.65943e-08
7.30767e-08
7.94211e-08
8.55847e-08
9.15285e-08
9.72179e-08
1.02622e-07
1.07716e-07
1.12478e-07
1.1689e-07
1.20941e-07
1.24621e-07
1.27924e-07
1.30849e-07
1.33397e-07
1.35571e-07
1.37378e-07
1.38822e-07
1.39916e-07
1.40668e-07
1.41088e-07
1.41188e-07
1.4098e-07
1.40474e-07
1.39681e-07
1.38612e-07
1.37277e-07
1.35686e-07
1.33849e-07
1.31774e-07
1.2947e-07
1.26945e-07
1.24207e-07
1.21262e-07
1.1812e-07
1.14785e-07
1.11267e-07
1.07571e-07
1.03707e-07
9.96813e-08
9.55033e-08
9.11824e-08
8.67287e-08
8.21537e-08
7.74698e-08
7.26906e-08
6.78314e-08
6.29089e-08
5.79415e-08
5.29493e-08
4.79545e-08
4.29811e-08
3.80555e-08
3.32063e-08
2.84648e-08
2.38654e-08
1.94465e-08
1.52514e-08
1.13313e-08
7.74945e-09
4.59181e-09
1.99253e-09
2.215e-10
3.31774e-10
2.98357e-09
6.87016e-09
1.15798e-08
1.69023e-08
2.26985e-08
2.88613e-08
3.53011e-08
4.19386e-08
4.87011e-08
5.55213e-08
6.23357e-08
6.90853e-08
7.57148e-08
8.21731e-08
8.84139e-08
9.43956e-08
1.00082e-07
1.05441e-07
1.10447e-07
1.1508e-07
1.19324e-07
1.23169e-07
1.26609e-07
1.29643e-07
1.32271e-07
1.34501e-07
1.36338e-07
1.37794e-07
1.38882e-07
1.39614e-07
1.40002e-07
1.40065e-07
1.39817e-07
1.39271e-07
1.38441e-07
1.37341e-07
1.35985e-07
1.34385e-07
1.32552e-07
1.30498e-07
1.28231e-07
1.25763e-07
1.23101e-07
1.20253e-07
1.17226e-07
1.14029e-07
1.10667e-07
1.07147e-07
1.03476e-07
9.96599e-08
9.57067e-08
9.16231e-08
8.74172e-08
8.30977e-08
7.8674e-08
7.41569e-08
6.9558e-08
6.48905e-08
6.01691e-08
5.541e-08
5.06314e-08
4.58532e-08
4.10975e-08
3.63885e-08
3.17531e-08
2.72206e-08
2.28237e-08
1.85987e-08
1.45873e-08
1.08383e-08
7.41254e-09
4.39225e-09
1.90595e-09
2.11876e-10
3.46946e-10
3.11994e-09
7.18368e-09
1.21067e-08
1.76677e-08
2.37191e-08
3.01468e-08
3.68543e-08
4.37555e-08
5.07713e-08
5.78277e-08
6.48552e-08
7.17885e-08
7.85671e-08
8.51353e-08
9.14427e-08
9.74448e-08
1.03103e-07
1.08386e-07
1.13268e-07
1.17729e-07
1.21757e-07
1.25344e-07
1.28489e-07
1.31195e-07
1.33468e-07
1.3532e-07
1.36762e-07
1.37813e-07
1.38488e-07
1.38803e-07
1.38784e-07
1.38446e-07
1.37807e-07
1.36887e-07
1.35702e-07
1.34268e-07
1.32603e-07
1.30719e-07
1.2863e-07
1.26349e-07
1.23885e-07
1.2125e-07
1.18452e-07
1.15499e-07
1.12398e-07
1.09156e-07
1.0578e-07
1.02274e-07
9.86455e-08
9.48992e-08
9.10407e-08
8.70761e-08
8.30116e-08
7.88542e-08
7.46116e-08
7.02922e-08
6.5906e-08
6.14637e-08
5.69779e-08
5.24624e-08
4.79331e-08
4.34076e-08
3.89056e-08
3.44491e-08
3.00628e-08
2.57738e-08
2.16125e-08