/*--------------------------------*- C++ -*----------------------------------*\
  =========                 |
  \\      /  F ield         | OpenFOAM: The Open Source CFD Toolbox
   \\    /   O peration     | Website:  https://openfoam.org
    \\  /    A nd           | Version:  12
     \\/     M anipulation  |
\*---------------------------------------------------------------------------*/
FoamFile
{
    format      ascii;
    class       volScalarField;
    location    "6";
    object      p;
}
// * * * * * * * * * * * * * * * * * * * * * * * * * * * * * * * * * * * * * //

dimensions      [0 2 -2 0 0 0 0];

internalField   nonuniform List<scalar> 
5625
(
-2.20218e-09
5.7219e-08
9.57699e-07
2.79044e-06
5.33217e-06
8.3708e-06
1.17309e-05
1.52536e-05
1.87997e-05
2.22453e-05
2.5483e-05
2.84212e-05
3.09827e-05
3.31032e-05
3.47307e-05
3.58236e-05
3.63503e-05
3.62884e-05
3.56233e-05
3.43483e-05
3.24631e-05
2.99738e-05
2.68924e-05
2.32356e-05
1.90251e-05
1.42868e-05
9.05018e-06
3.34828e-06
-2.78298e-06
-9.30505e-06
-1.61772e-05
-2.33567e-05
-3.07994e-05
-3.84598e-05
-4.62915e-05
-5.42474e-05
-6.22802e-05
-7.03424e-05
-7.83865e-05
-8.63655e-05
-9.42331e-05
-0.000101944
-0.000109453
-0.000116718
-0.000123697
-0.000130349
-0.000136637
-0.000142526
-0.00014798
-0.00015297
-0.000157467
-0.000161447
-0.000164887
-0.000167771
-0.000170083
-0.000171816
-0.000172964
-0.000173529
-0.000173518
-0.000172944
-0.000171829
-0.000170203
-0.000168103
-0.000165579
-0.000162691
-0.000159512
-0.000156129
-0.000152646
-0.000149182
-0.00014587
-0.000142872
-0.000140358
-0.000138536
-0.000137633
-0.000137562
-3.12895e-06
-2.69743e-06
-1.67664e-06
-3.45962e-08
2.10399e-06
4.5973e-06
7.31937e-06
1.01547e-05
1.29968e-05
1.57492e-05
1.8326e-05
2.06519e-05
2.26618e-05
2.43005e-05
2.5522e-05
2.62891e-05
2.65727e-05
2.6351e-05
2.56096e-05
2.43405e-05
2.25418e-05
2.02169e-05
1.73748e-05
1.40289e-05
1.01968e-05
5.90043e-06
1.1648e-06
-3.9817e-06
-9.50794e-06
-1.53803e-05
-2.15631e-05
-2.80188e-05
-3.47084e-05
-4.15917e-05
-4.86274e-05
-5.57738e-05
-6.29888e-05
-7.023e-05
-7.74552e-05
-8.46225e-05
-9.16907e-05
-9.86193e-05
-0.000105369
-0.000111901
-0.000118178
-0.000124166
-0.000129831
-0.000135141
-0.000140067
-0.000144583
-0.000148664
-0.000152289
-0.000155441
-0.000158104
-0.000160269
-0.000161928
-0.00016308
-0.000163727
-0.000163878
-0.000163546
-0.000162753
-0.000161525
-0.000159898
-0.000157913
-0.000155624
-0.000153092
-0.000150388
-0.000147595
-0.000144806
-0.000142124
-0.000139663
-0.000137544
-0.000135911
-0.000134886
-0.000134443
-9.21893e-06
-8.07259e-06
-6.46314e-06
-4.53966e-06
-2.36061e-06
7.52846e-09
2.4866e-06
4.9976e-06
7.46528e-06
9.81932e-06
1.19952e-05
1.39346e-05
1.55861e-05
1.69046e-05
1.78524e-05
1.83978e-05
1.8516e-05
1.81881e-05
1.7401e-05
1.61474e-05
1.44251e-05
1.22365e-05
9.58909e-06
6.49413e-06
2.96694e-06
-9.73657e-07
-5.30559e-06
-1.00039e-05
-1.50412e-05
-2.03874e-05
-2.6011e-05
-3.18784e-05
-3.79548e-05
-4.42042e-05
-5.05896e-05
-5.70737e-05
-6.36186e-05
-7.01863e-05
-7.6739e-05
-8.32392e-05
-8.96497e-05
-9.59344e-05
-0.000102058
-0.000107986
-0.000113686
-0.000119126
-0.000124277
-0.00012911
-0.000133601
-0.000137726
-0.000141463
-0.000144795
-0.000147706
-0.000150184
-0.00015222
-0.00015381
-0.000154951
-0.000155648
-0.000155907
-0.000155742
-0.000155169
-0.000154213
-0.000152903
-0.000151274
-0.000149367
-0.000147232
-0.000144922
-0.0001425
-0.000140032
-0.000137591
-0.000135253
-0.000133094
-0.000131179
-0.000129564
-0.000128405
-1.71156e-05
-1.50845e-05
-1.26282e-05
-1.01205e-05
-7.56623e-06
-4.97261e-06
-2.38439e-06
1.44243e-07
2.5608e-06
4.81546e-06
6.86129e-06
8.65494e-06
1.01573e-05
1.13337e-05
1.21547e-05
1.25954e-05
1.26362e-05
1.22622e-05
1.14634e-05
1.02345e-05
8.57437e-06
6.48632e-06
3.97755e-06
1.05893e-06
-2.2552e-06
-5.94735e-06
-9.9971e-06
-1.43815e-05
-1.90751e-05
-2.40507e-05
-2.92788e-05
-3.47289e-05
-4.03689e-05
-4.61658e-05
-5.20858e-05
-5.80946e-05
-6.41574e-05
-7.02396e-05
-7.63065e-05
-8.23237e-05
-8.82577e-05
-9.40751e-05
-9.9744e-05
-0.000105233
-0.000110513
-0.000115554
-0.00012033
-0.000124817
-0.00012899
-0.000132828
-0.000136313
-0.000139428
-0.000142159
-0.000144495
-0.000146428
-0.000147953
-0.000149068
-0.000149775
-0.000150079
-0.000149992
-0.000149525
-0.000148697
-0.000147532
-0.000146055
-0.000144298
-0.000142297
-0.000140092
-0.000137726
-0.000135246
-0.000132701
-0.000130143
-0.000127613
-0.000125116
-0.000122656
-0.000120612
-2.5595e-05
-2.2636e-05
-1.92407e-05
-1.60134e-05
-1.29197e-05
-9.91944e-06
-7.0332e-06
-4.29768e-06
-1.74849e-06
5.80517e-07
2.65673e-06
4.44932e-06
5.93006e-06
7.07375e-06
7.85872e-06
8.26691e-06
8.28417e-06
7.90015e-06
7.10848e-06
5.90652e-06
4.29545e-06
2.27994e-06
-1.31836e-07
-2.92857e-06
-6.09584e-06
-9.61653e-06
-1.34709e-05
-1.76368e-05
-2.20902e-05
-2.68052e-05
-3.1754e-05
-3.69078e-05
-4.22365e-05
-4.77093e-05
-5.32943e-05
-5.89597e-05
-6.46731e-05
-7.04022e-05
-7.61148e-05
-8.1779e-05
-8.73636e-05
-9.2838e-05
-9.81724e-05
-0.000103338
-0.000108307
-0.000113054
-0.000117554
-0.000121783
-0.000125719
-0.000129344
-0.00013264
-0.000135591
-0.000138184
-0.000140408
-0.000142254
-0.000143718
-0.000144796
-0.000145487
-0.000145796
-0.000145728
-0.000145293
-0.000144502
-0.000143372
-0.000141922
-0.000140174
-0.000138151
-0.000135882
-0.000133394
-0.000130718
-0.000127886
-0.000124932
-0.000121871
-0.000118662
-0.000115266
-0.000112295
-3.38336e-05
-2.99634e-05
-2.56149e-05
-2.16125e-05
-1.78934e-05
-1.43809e-05
-1.1079e-05
-8.01311e-06
-5.20726e-06
-2.68362e-06
-4.63874e-07
1.43108e-06
2.98197e-06
4.1716e-06
4.98535e-06
5.41133e-06
5.44071e-06
5.06774e-06
4.28989e-06
3.10777e-06
1.52516e-06
-4.51119e-07
-2.81127e-06
-5.54274e-06
-8.6303e-06
-1.20563e-05
-1.58008e-05
-1.9842e-05
-2.41559e-05
-2.87171e-05
-3.3499e-05
-3.84735e-05
-4.36116e-05
-4.88837e-05
-5.42596e-05
-5.97087e-05
-6.52002e-05
-7.07036e-05
-7.61883e-05
-8.16243e-05
-8.6982e-05
-9.22327e-05
-9.73482e-05
-0.000102302
-0.000107067
-0.00011162
-0.000115936
-0.000119995
-0.000123775
-0.000127258
-0.000130426
-0.000133266
-0.000135763
-0.000137906
-0.000139687
-0.000141098
-0.000142134
-0.000142795
-0.000143078
-0.000142988
-0.000142528
-0.000141706
-0.000140531
-0.000139015
-0.000137172
-0.000135017
-0.000132565
-0.000129836
-0.000126845
-0.000123613
-0.000120161
-0.000116489
-0.000112515
-0.000108173
-0.000104294
-4.12561e-05
-3.65113e-05
-3.12279e-05
-2.64364e-05
-2.20532e-05
-1.79726e-05
-1.41879e-05
-1.07179e-05
-7.57903e-06
-4.78519e-06
-2.35009e-06
-2.87013e-07
1.39186e-06
2.67595e-06
3.55666e-06
4.0276e-06
4.08488e-06
3.72713e-06
2.9557e-06
1.77462e-06
1.90638e-07
-1.78689e-06
-4.14604e-06
-6.87243e-06
-9.94941e-06
-1.33582e-05
-1.70779e-05
-2.1086e-05
-2.53584e-05
-2.98694e-05
-3.45924e-05
-3.94995e-05
-4.45623e-05
-4.97515e-05
-5.50377e-05
-6.0391e-05
-6.57816e-05
-7.11799e-05
-7.65565e-05
-8.18823e-05
-8.7129e-05
-9.22688e-05
-9.7275e-05
-0.000102122
-0.000106784
-0.000111238
-0.000115461
-0.000119432
-0.000123132
-0.000126541
-0.000129644
-0.000132425
-0.00013487
-0.000136968
-0.000138708
-0.000140081
-0.000141082
-0.000141706
-0.000141949
-0.000141811
-0.000141291
-0.000140393
-0.000139119
-0.000137477
-0.000135471
-0.00013311
-0.000130403
-0.000127357
-0.000123981
-0.000120286
-0.000116285
-0.000111967
-0.000107219
-0.000101954
-9.72071e-05
-4.74466e-05
-4.18633e-05
-3.56711e-05
-3.00948e-05
-2.50342e-05
-2.03599e-05
-1.60583e-05
-1.21447e-05
-8.63072e-06
-5.52477e-06
-2.83479e-06
-5.68321e-07
1.26801e-06
2.669e-06
3.63115e-06
4.15289e-06
4.23478e-06
3.87963e-06
3.09257e-06
1.88114e-06
2.55189e-07
-1.77305e-06
-4.18917e-06
-6.97651e-06
-1.01165e-05
-1.35886e-05
-1.73705e-05
-2.14385e-05
-2.57674e-05
-3.03309e-05
-3.51016e-05
-4.00512e-05
-4.51511e-05
-5.0372e-05
-5.56844e-05
-6.10586e-05
-6.64653e-05
-7.18749e-05
-7.72586e-05
-8.2588e-05
-8.78352e-05
-9.29732e-05
-9.79755e-05
-0.000102817
-0.000107473
-0.000111921
-0.000116139
-0.000120104
-0.000123799
-0.000127205
-0.000130303
-0.00013308
-0.000135521
-0.000137612
-0.000139342
-0.000140701
-0.000141681
-0.000142275
-0.000142475
-0.000142279
-0.000141682
-0.000140683
-0.000139281
-0.000137475
-0.000135267
-0.000132659
-0.000129652
-0.000126248
-0.000122449
-0.00011826
-0.00011369
-0.000108717
-0.000103206
-9.70501e-05
-9.14778e-05
-5.20849e-05
-4.569e-05
-3.86115e-05
-3.22598e-05
-2.65209e-05
-2.12447e-05
-1.64128e-05
-1.20392e-05
-8.13262e-06
-4.69771e-06
-1.73827e-06
7.42469e-07
2.74226e-06
4.26032e-06
5.29747e-06
5.85641e-06
5.94177e-06
5.56031e-06
4.72084e-06
3.43444e-06
1.71421e-06
-4.24527e-07
-2.96454e-06
-5.88655e-06
-9.16961e-06
-1.2791e-05
-1.67265e-05
-2.09507e-05
-2.54368e-05
-3.0157e-05
-3.5083e-05
-4.01855e-05
-4.54349e-05
-5.08014e-05
-5.62549e-05
-6.17654e-05
-6.73032e-05
-7.28387e-05
-7.83431e-05
-8.37877e-05
-8.9145e-05
-9.43879e-05
-9.94902e-05
-0.000104427
-0.000109174
-0.000113707
-0.000118006
-0.000122048
-0.000125814
-0.000129286
-0.000132445
-0.000135276
-0.000137763
-0.000139892
-0.000141651
-0.000143027
-0.000144009
-0.000144589
-0.000144758
-0.000144508
-0.000143832
-0.000142725
-0.000141182
-0.000139197
-0.000136769
-0.000133893
-0.000130566
-0.000126786
-0.000122548
-0.000117854
-0.00011271
-0.000107088
-0.000100831
-9.38154e-05
-8.74528e-05
-5.49006e-05
-4.77091e-05
-3.97581e-05
-3.26397e-05
-2.62266e-05
-2.035e-05
-1.49877e-05
-1.01533e-05
-5.85429e-06
-2.0925e-06
1.13134e-06
3.81737e-06
5.96692e-06
7.58293e-06
8.67006e-06
9.23484e-06
9.28574e-06
8.83327e-06
7.88995e-06
6.4704e-06
4.59118e-06
2.27087e-06
-4.70175e-07
-3.60974e-06
-7.1241e-06
-1.0988e-05
-1.51748e-05
-1.96567e-05
-2.44052e-05
-2.93905e-05
-3.45826e-05
-3.99508e-05
-4.54642e-05
-5.10916e-05
-5.68022e-05
-6.25651e-05
-6.83497e-05
-7.41259e-05
-7.98643e-05
-8.55359e-05
-9.11127e-05
-9.65674e-05
-0.000101874
-0.000107006
-0.00011194
-0.000116652
-0.000121119
-0.000125321
-0.000129238
-0.000132849
-0.000136136
-0.000139083
-0.000141674
-0.000143892
-0.000145723
-0.000147154
-0.000148173
-0.000148767
-0.000148926
-0.000148638
-0.000147895
-0.000146687
-0.000145006
-0.000142844
-0.000140193
-0.000137046
-0.000133396
-0.000129235
-0.000124557
-0.00011936
-0.000113647
-0.000107386
-0.000100399
-9.25504e-05
-8.54241e-05
-5.564e-05
-4.76554e-05
-3.88366e-05
-3.09567e-05
-2.38755e-05
-1.74054e-05
-1.15214e-05
-6.2373e-06
-1.55956e-06
2.51188e-06
5.97885e-06
8.84429e-06
1.11127e-05
1.27903e-05
1.38853e-05
1.44079e-05
1.43702e-05
1.37866e-05
1.26733e-05
1.10485e-05
8.93246e-06
6.34727e-06
3.31672e-06
-1.33744e-07
-3.97722e-06
-8.18547e-06
-1.27291e-05
-1.75777e-05
-2.27002e-05
-2.80646e-05
-3.36387e-05
-3.93899e-05
-4.52855e-05
-5.12929e-05
-5.73795e-05
-6.35133e-05
-6.96627e-05
-7.57963e-05
-8.1884e-05
-8.78959e-05
-9.38032e-05
-9.95781e-05
-0.000105194
-0.000110623
-0.000115843
-0.000120828
-0.000125556
-0.000130004
-0.000134152
-0.00013798
-0.000141468
-0.000144598
-0.000147354
-0.000149717
-0.000151673
-0.000153207
-0.000154303
-0.000154948
-0.000155128
-0.000154831
-0.000154044
-0.000152756
-0.000150954
-0.000148627
-0.000145764
-0.000142355
-0.00013839
-0.000133856
-0.000128746
-0.000123054
-0.000116782
-0.000109895
-0.000102194
-9.35299e-05
-8.56573e-05
-5.40431e-05
-4.52593e-05
-3.55693e-05
-2.69298e-05
-1.91875e-05
-1.21354e-05
-5.74557e-06
-3.23878e-08
4.99862e-06
9.34923e-06
1.30236e-05
1.60272e-05
1.83676e-05
2.00542e-05
2.10986e-05
2.15148e-05
2.13185e-05
2.0528e-05
1.91633e-05
1.72467e-05
1.48022e-05
1.18556e-05
8.43463e-06
4.56821e-06
2.86813e-07
-4.37798e-06
-9.39353e-06
-1.47264e-05
-2.03425e-05
-2.62074e-05
-3.22861e-05
-3.85438e-05
-4.49456e-05
-5.14568e-05
-5.80431e-05
-6.46707e-05
-7.13065e-05
-7.79179e-05
-8.44733e-05
-9.09419e-05
-9.72938e-05
-0.0001035
-0.000109533
-0.000115366
-0.000120973
-0.000126329
-0.000131411
-0.000136195
-0.000140661
-0.000144786
-0.000148552
-0.000151938
-0.000154927
-0.000157499
-0.000159639
-0.000161328
-0.000162552
-0.000163293
-0.000163537
-0.000163268
-0.000162471
-0.000161131
-0.000159235
-0.000156767
-0.000153714
-0.000150063
-0.000145799
-0.000140909
-0.000135381
-0.000129207
-0.00012239
-0.000114889
-0.000106487
-9.70202e-05
-8.84114e-05
-4.98247e-05
-4.02286e-05
-2.96589e-05
-2.02604e-05
-1.18657e-05
-4.24791e-06
2.62452e-06
8.73679e-06
1.40843e-05
1.86708e-05
2.25026e-05
2.55882e-05
2.7938e-05
2.95648e-05
3.04839e-05
3.07128e-05
3.02715e-05
2.91822e-05
2.74691e-05
2.51586e-05
2.22791e-05
1.88604e-05
1.49343e-05
1.05339e-05
5.69345e-06
4.48356e-07
-5.16512e-06
-1.11101e-05
-1.73492e-05
-2.38448e-05
-3.0559e-05
-3.74544e-05
-4.44933e-05
-5.16388e-05
-5.88544e-05
-6.61043e-05
-7.33535e-05
-8.05679e-05
-8.77141e-05
-9.476e-05
-0.000101675
-0.000108428
-0.00011499
-0.000121335
-0.000127435
-0.000133264
-0.000138798
-0.000144013
-0.000148886
-0.000153396
-0.000157522
-0.000161242
-0.000164538
-0.000167389
-0.000169778
-0.000171686
-0.000173094
-0.000173986
-0.000174342
-0.000174147
-0.000173382
-0.000172031
-0.000170076
-0.000167501
-0.000164288
-0.000160421
-0.000155884
-0.00015066
-0.000144733
-0.000138097
-0.00013075
-0.000122649
-0.000113555
-0.000103293
-9.39526e-05
-4.26604e-05
-3.22355e-05
-2.07752e-05
-1.06194e-05
-1.58533e-06
6.57544e-06
1.38985e-05
2.03692e-05
2.59842e-05
3.07495e-05
3.46743e-05
3.77698e-05
4.005e-05
4.15313e-05
4.22329e-05
4.21766e-05
4.13866e-05
3.98894e-05
3.7714e-05
3.48912e-05
3.1454e-05
2.74369e-05
2.28763e-05
1.78094e-05
1.22752e-05
6.31298e-06
-3.67886e-08
-6.73337e-06
-1.37357e-05
-2.10025e-05
-2.84929e-05
-3.6166e-05
-4.39816e-05
-5.18998e-05
-5.98817e-05
-6.78893e-05
-7.58853e-05
-8.38337e-05
-9.16996e-05
-9.94491e-05
-0.00010705
-0.00011447
-0.000121679
-0.00012865
-0.000135352
-0.000141761
-0.000147851
-0.000153596
-0.000158973
-0.000163959
-0.000168533
-0.000172671
-0.000176354
-0.000179561
-0.000182272
-0.000184467
-0.000186125
-0.000187228
-0.000187755
-0.000187688
-0.000187007
-0.000185691
-0.000183722
-0.000181079
-0.000177744
-0.000173696
-0.000168916
-0.000163386
-0.000157087
-0.000150009
-0.000142151
-0.000133463
-0.000123688
-0.000112636
-0.000102564
-3.21736e-05
-2.09034e-05
-8.54393e-06
2.36279e-06
1.20163e-05
2.06882e-05
2.8419e-05
3.51948e-05
4.10141e-05
4.58859e-05
4.98225e-05
5.28389e-05
5.49527e-05
5.61847e-05
5.65584e-05
5.61002e-05
5.48391e-05
5.28068e-05
5.00369e-05
4.65657e-05
4.2431e-05
3.76725e-05
3.23315e-05
2.64503e-05
2.00725e-05
1.32422e-05
6.00425e-06
-1.59628e-06
-9.51422e-06
-1.77045e-05
-2.61224e-05
-3.47237e-05
-4.34649e-05
-5.23032e-05
-6.11969e-05
-7.01054e-05
-7.89892e-05
-8.78101e-05
-9.65311e-05
-0.000105117
-0.000113533
-0.000121746
-0.000129725
-0.000137441
-0.000144863
-0.000151964
-0.000158717
-0.000165098
-0.00017108
-0.00017664
-0.000181755
-0.000186403
-0.00019056
-0.000194206
-0.000197318
-0.000199875
-0.000201856
-0.00020324
-0.000204004
-0.000204127
-0.000203587
-0.000202363
-0.000200431
-0.00019777
-0.000194357
-0.000190169
-0.000185186
-0.000179383
-0.000172741
-0.000165247
-0.000156898
-0.00014764
-0.000137194
-0.000125356
-0.000114553
-1.79238e-05
-5.79609e-06
7.46449e-06
1.9107e-05
2.93494e-05
3.8488e-05
4.65696e-05
5.35817e-05
5.95256e-05
6.44139e-05
6.82629e-05
7.10918e-05
7.29229e-05
7.37818e-05
7.3697e-05
7.27003e-05
7.08261e-05
6.81114e-05
6.45957e-05
6.03209e-05
5.53304e-05
4.96696e-05
4.33852e-05
3.65251e-05
2.9138e-05
2.12733e-05
1.29806e-05
4.30989e-06
-4.68929e-06
-1.39675e-05
-2.34762e-05
-3.31672e-05
-4.29936e-05
-5.29093e-05
-6.28697e-05
-7.28312e-05
-8.2752e-05
-9.25916e-05
-0.000102311
-0.000111872
-0.00012124
-0.00013038
-0.000139258
-0.000147845
-0.000156108
-0.00016402
-0.000171553
-0.00017868
-0.000185375
-0.000191614
-0.000197372
-0.000202625
-0.000207351
-0.000211526
-0.000215126
-0.00021813
-0.000220514
-0.000222255
-0.00022333
-0.000223714
-0.000223383
-0.000222313
-0.000220479
-0.000217856
-0.000214418
-0.00021014
-0.000204997
-0.000198963
-0.000192014
-0.000184134
-0.00017532
-0.000165511
-0.000154408
-0.000141789
-0.000130256
6.03094e-07
1.35914e-05
2.77432e-05
4.00929e-05
5.08784e-05
6.0423e-05
6.87805e-05
7.59413e-05
8.19102e-05
8.67044e-05
9.03451e-05
9.28567e-05
9.4267e-05
9.46071e-05
9.39115e-05
9.22178e-05
8.95667e-05
8.60015e-05
8.1568e-05
7.63142e-05
7.029e-05
6.3547e-05
5.61379e-05
4.81167e-05
3.95378e-05
3.04562e-05
2.0927e-05
1.10052e-05
7.45307e-07
-9.79869e-06
-2.05738e-05
-3.15278e-05
-4.26102e-05
-5.37712e-05
-6.4963e-05
-7.61393e-05
-8.72554e-05
-9.82685e-05
-0.000109137
-0.000119822
-0.000130286
-0.000140492
-0.000150407
-0.000159997
-0.000169232
-0.00017808
-0.000186514
-0.000194507
-0.00020203
-0.000209059
-0.000215568
-0.000221533
-0.000226929
-0.000231731
-0.000235916
-0.000239459
-0.000242335
-0.00024452
-0.000245987
-0.000246711
-0.000246666
-0.000245823
-0.000244156
-0.000241636
-0.000238235
-0.000233924
-0.000228674
-0.000222457
-0.000215243
-0.000207016
-0.000197768
-0.000187432
-0.00017569
-0.000162301
-0.000150041
2.40034e-05
3.78408e-05
5.28557e-05
6.5865e-05
7.71278e-05
8.69962e-05
9.55327e-05
0.000102731
0.000108602
0.000113168
0.000116455
0.000118495
0.000119322
0.000118974
0.000117491
0.000114919
0.000111304
0.000106698
0.000101152
9.47229e-05
8.74666e-05
7.94416e-05
7.07075e-05
6.13247e-05
5.13539e-05
4.08564e-05
2.98929e-05
1.8524e-05
6.80961e-06
-5.19151e-06
-1.74216e-05
-2.98243e-05
-4.23449e-05
-5.49302e-05
-6.75289e-05
-8.00913e-05
-9.25703e-05
-0.000104921
-0.0001171
-0.000129065
-0.000140777
-0.000152199
-0.000163294
-0.000174029
-0.000184371
-0.00019429
-0.000203756
-0.00021274
-0.000221215
-0.000229154
-0.000236532
-0.000243321
-0.000249498
-0.000255036
-0.00025991
-0.000264094
-0.000267561
-0.000270285
-0.000272238
-0.000273393
-0.000273719
-0.000273187
-0.000271766
-0.000269426
-0.000266133
-0.000261856
-0.000256562
-0.000250218
-0.000242792
-0.000234262
-0.00022462
-0.000213791
-0.000201432
-0.000187289
-0.000174311
5.29636e-05
6.76174e-05
8.34422e-05
9.70375e-05
0.000108686
0.000118769
0.00012736
0.000134458
0.000140079
0.000144254
0.000147016
0.000148403
0.000148458
0.000147224
0.000144752
0.000141094
0.000136304
0.000130442
0.000123568
0.000115745
0.000107037
9.75096e-05
8.72306e-05
7.6267e-05
6.46866e-05
5.2557e-05
3.99454e-05
2.69181e-05
1.35407e-05
-1.22764e-07
-1.40097e-05
-2.80593e-05
-4.22127e-05
-5.6413e-05
-7.06056e-05
-8.47362e-05
-9.8754e-05
-0.000112615
-0.000126274
-0.000139684
-0.000152806
-0.0001656
-0.000178029
-0.000190058
-0.000201654
-0.000212786
-0.000223422
-0.000233534
-0.000243094
-0.000252073
-0.000260445
-0.000268184
-0.000275262
-0.000281654
-0.000287332
-0.00029227
-0.000296439
-0.00029981
-0.000302354
-0.00030404
-0.000304837
-0.000304711
-0.000303628
-0.000301554
-0.000298453
-0.000294289
-0.000289025
-0.000282623
-0.000275047
-0.000266271
-0.000256283
-0.000245001
-0.000232061
-0.000217188
-0.000203508
8.82663e-05
0.000103675
0.000120222
0.000134297
0.000146205
0.000156361
0.000164849
0.000171675
0.000176864
0.000180453
0.000182486
0.000183009
0.000182072
0.000179728
0.000176037
0.000171059
0.000164858
0.000157501
0.000149057
0.000139598
0.000129197
0.000117927
0.000105864
9.30819e-05
7.96563e-05
6.56618e-05
5.11722e-05
3.62601e-05
2.0997e-05
5.45245e-06
-1.03059e-05
-2.62124e-05
-4.22038e-05
-5.82193e-05
-7.42007e-05
-9.0094e-05
-0.000105845
-0.000121402
-0.000136718
-0.000151749
-0.00016645
-0.000180781
-0.000194706
-0.000208189
-0.000221195
-0.000233691
-0.000245647
-0.000257032
-0.000267819
-0.000277979
-0.000287484
-0.000296306
-0.00030442
-0.000311796
-0.000318407
-0.000324225
-0.000329219
-0.000333358
-0.000336611
-0.000338944
-0.000340324
-0.000340712
-0.000340074
-0.000338368
-0.000335557
-0.000331598
-0.00032645
-0.000320072
-0.000312421
-0.000303468
-0.000293195
-0.000281513
-0.000268035
-0.000252468
-0.000238109
0.000130796
0.000146861
0.000163999
0.000178404
0.000190406
0.000200452
0.00020864
0.000214985
0.000219521
0.000222295
0.00022336
0.000222773
0.000220593
0.000216885
0.000211716
0.000205156
0.00019728
0.000188164
0.000177887
0.000166529
0.000154172
0.000140898
0.000126792
0.000111936
9.64122e-05
8.03036e-05
6.36908e-05
4.66529e-05
2.92674e-05
1.16096e-05
-6.24749e-06
-2.42336e-05
-4.2281e-05
-6.0325e-05
-7.83036e-05
-9.61582e-05
-0.000113834
-0.000131277
-0.000148443
-0.000165283
-0.000181748
-0.000197795
-0.000213389
-0.000228495
-0.000243077
-0.000257101
-0.000270537
-0.000283355
-0.000295524
-0.000307017
-0.000317806
-0.000327862
-0.000337157
-0.000345663
-0.00035335
-0.000360189
-0.000366147
-0.000371191
-0.000375288
-0.000378401
-0.000380492
-0.000381522
-0.000381449
-0.000380231
-0.000377822
-0.000374178
-0.000369251
-0.000362993
-0.000355358
-0.00034631
-0.000335827
-0.000323812
-0.000309853
-0.00029364
-0.000278638
0.000181542
0.000198116
0.00021566
0.000230194
0.000242074
0.00025178
0.000259425
0.000265036
0.000268656
0.000270345
0.000270166
0.000268189
0.000264483
0.000259122
0.000252187
0.000243757
0.000233917
0.000222753
0.000210355
0.000196813
0.000182217
0.000166661
0.000150235
0.000133032
0.000115143
9.66564e-05
7.76611e-05
5.8243e-05
3.84857e-05
1.84704e-05
-1.72477e-06
-2.20246e-05
-4.23571e-05
-6.26537e-05
-8.28494e-05
-0.000102883
-0.000122695
-0.000142232
-0.000161439
-0.000180272
-0.000198689
-0.000216644
-0.000234095
-0.000251006
-0.000267343
-0.000283073
-0.000298163
-0.000312584
-0.000326307
-0.000339302
-0.000351541
-0.000362996
-0.000373637
-0.000383435
-0.00039236
-0.000400379
-0.000407459
-0.000413565
-0.00041866
-0.000422704
-0.000425657
-0.000427475
-0.000428111
-0.000427518
-0.000425647
-0.000422446
-0.000417862
-0.000411842
-0.000404331
-0.000395289
-0.000384688
-0.000372421
-0.000358053
-0.000341257
-0.000325659
0.0002416
0.000258476
0.000276171
0.000290569
0.000302054
0.000311135
0.000317942
0.000322516
0.000324911
0.000325202
0.000323465
0.00031978
0.000314229
0.000306899
0.000297879
0.000287263
0.000275145
0.000261624
0.000246797
0.000230767
0.000213633
0.000195497
0.000176461
0.000156625
0.000136088
0.000114947
9.32982e-05
7.12341e-05
4.88449e-05
2.62174e-05
3.43502e-06
-1.94222e-05
-4.22782e-05
-6.50608e-05
-8.77016e-05
-0.000110137
-0.000132306
-0.000154151
-0.000175618
-0.000196655
-0.000217222
-0.000237279
-0.000256783
-0.000275695
-0.000293979
-0.000311605
-0.000328539
-0.000344752
-0.000360215
-0.000374899
-0.000388774
-0.000401812
-0.000413984
-0.000425259
-0.000435604
-0.000444987
-0.000453371
-0.000460719
-0.000466991
-0.000472144
-0.000476133
-0.000478909
-0.000480423
-0.000480619
-0.000479444
-0.000476839
-0.000472745
-0.000467101
-0.000459845
-0.00045093
-0.000440322
-0.000427905
-0.000413218
-0.000395919
-0.000379785
0.000312162
0.000329059
0.000346569
0.000360494
0.000371241
0.000379348
0.000384963
0.000388142
0.000388956
0.000387492
0.00038384
0.000378092
0.000370345
0.000360697
0.00034925
0.000336109
0.000321378
0.000305169
0.000287589
0.000268751
0.000248764
0.000227741
0.000205792
0.000183025
0.000159549
0.000135468
0.000110886
8.59021e-05
6.06125e-05
3.51101e-05
9.48342e-06
-1.61829e-05
-4.18088e-05
-6.73184e-05
-9.26405e-05
-0.000117708
-0.000142459
-0.000166835
-0.000190781
-0.000214248
-0.000237189
-0.000259562
-0.000281328
-0.000302449
-0.00032289
-0.000342619
-0.000361605
-0.000379818
-0.000397228
-0.000413808
-0.000429529
-0.00044436
-0.000458273
-0.000471234
-0.000483211
-0.000494168
-0.000504066
-0.000512867
-0.000520525
-0.000526994
-0.000532224
-0.000536161
-0.00053875
-0.00053993
-0.00053964
-0.000537813
-0.000534384
-0.000529282
-0.000522439
-0.000513798
-0.000503319
-0.000490874
-0.000475979
-0.000458275
-0.000441682
0.000394507
0.000411056
0.000427946
0.000440971
0.000450559
0.000457271
0.000461277
0.000462647
0.00046147
0.000457846
0.000451882
0.000443683
0.000433358
0.000421018
0.000406778
0.000390751
0.000373058
0.000353816
0.000333146
0.00031117
0.000288009
0.000263782
0.00023861
0.000212609
0.000185897
0.000158586
0.000130786
0.000102603
7.41402e-05
4.5495e-05
1.67615e-05
-1.19715e-05
-4.062e-05
-6.91051e-05
-9.73527e-05
-0.000125294
-0.000152865
-0.000180006
-0.000206663
-0.000232785
-0.000258326
-0.000283244
-0.0003075
-0.000331057
-0.000353882
-0.000375942
-0.000397208
-0.000417651
-0.000437242
-0.000455952
-0.000473753
-0.000490616
-0.000506509
-0.000521399
-0.000535251
-0.000548027
-0.000559686
-0.000570185
-0.000579475
-0.000587505
-0.000594219
-0.000599559
-0.00060346
-0.000605855
-0.000606675
-0.000605846
-0.000603291
-0.000598933
-0.000592692
-0.000584502
-0.000574314
-0.00056199
-0.000547023
-0.000529035
-0.000512076
0.000489976
0.000505699
0.000521418
0.000533015
0.000540935
0.000545754
0.00054766
0.000546745
0.000543114
0.000536883
0.000528173
0.000517101
0.000503791
0.000488364
0.000470946
0.000451664
0.000430645
0.00040802
0.000383919
0.000358472
0.00033181
0.000304063
0.000275357
0.000245821
0.000215576
0.000184744
0.00015344
0.000121779
8.98689e-05
5.7812e-05
2.57073e-05
-6.35232e-06
-3.82795e-05
-6.99923e-05
-0.000101415
-0.000132476
-0.000163111
-0.000193261
-0.000222869
-0.000251887
-0.000280269
-0.000307973
-0.000334961
-0.000361199
-0.000386653
-0.000411294
-0.000435093
-0.000458021
-0.000480052
-0.000501157
-0.000521307
-0.000540473
-0.000558622
-0.000575721
-0.000591732
-0.000606614
-0.000620323
-0.00063281
-0.000644023
-0.000653905
-0.000662393
-0.000669421
-0.000674917
-0.000678806
-0.000681007
-0.000681437
-0.00068001
-0.000676636
-0.000671225
-0.0006637
-0.000654001
-0.000641978
-0.0006271
-0.000608975
-0.000591764
0.000599931
0.000614228
0.000628089
0.000637614
0.000643257
0.000645597
0.000644842
0.000641104
0.000634505
0.000625177
0.000613252
0.000598862
0.000582139
0.000563217
0.00054223
0.000519316
0.00049461
0.000468252
0.000440381
0.000411135
0.000380653
0.000349074
0.000316532
0.000283162
0.000249094
0.000214456
0.000179371
0.000143957
0.000108329
7.2595e-05
3.68572e-05
1.21246e-06
-3.42488e-05
-6.94425e-05
-0.000104291
-0.000138722
-0.00017267
-0.000206076
-0.000238886
-0.00027105
-0.000302524
-0.000333268
-0.000363248
-0.000392428
-0.000420779
-0.000448274
-0.000474884
-0.000500582
-0.000525344
-0.000549142
-0.000571946
-0.000593727
-0.000614452
-0.000634085
-0.000652585
-0.000669908
-0.000686006
-0.000700826
-0.000714308
-0.000726388
-0.000736995
-0.000746055
-0.000753486
-0.000759201
-0.000763109
-0.000765116
-0.000765121
-0.000763022
-0.000758716
-0.000752113
-0.000743142
-0.000731635
-0.000717043
-0.000698955
-0.000681628
0.00072571
0.000737831
0.000748993
0.000755672
0.000758321
0.000757506
0.000753454
0.000746294
0.000736166
0.000723215
0.000707582
0.00068941
0.000668839
0.000646009
0.000621064
0.00059415
0.000565404
0.000534975
0.000503008
0.000469649
0.000435044
0.000399336
0.000362669
0.000325183
0.000287016
0.0002483
0.000209165
0.000169735
0.000130129
9.04608e-05
5.08356e-05
1.13535e-05
-2.78924e-05
-6.68161e-05
-0.000105339
-0.000143388
-0.0001809
-0.000217814
-0.000254078
-0.000289645
-0.000324473
-0.000358525
-0.000391767
-0.000424171
-0.000455707
-0.00048635
-0.000516077
-0.000544862
-0.00057268
-0.000599506
-0.000625312
-0.000650066
-0.000673733
-0.000696277
-0.000717652
-0.000737811
-0.0007567
-0.000774259
-0.00079042
-0.000805111
-0.000818251
-0.000829755
-0.000839528
-0.000847471
-0.00085348
-0.000857444
-0.000859248
-0.000858776
-0.000855908
-0.000850538
-0.000842579
-0.00083185
-0.000817777
-0.000799936
-0.000782653
0.000868546
0.000877578
0.000885021
0.000887935
0.000886758
0.000882022
0.000873961
0.000862726
0.000848468
0.00083134
0.000811493
0.000789071
0.00076422
0.000737084
0.000707804
0.000676534
0.00064342
0.000608606
0.000572243
0.000534482
0.000495473
0.000455366
0.000414309
0.000372447
0.000329924
0.000286878
0.000243445
0.000199753
0.000155926
0.000112081
6.83275e-05
2.47684e-05
-1.85015e-05
-6.13949e-05
-0.000103832
-0.000145743
-0.000187061
-0.000227732
-0.000267703
-0.000306932
-0.00034538
-0.000383013
-0.000419802
-0.000455722
-0.000490749
-0.00052486
-0.000558035
-0.000590252
-0.000621489
-0.00065172
-0.000680919
-0.000709052
-0.000736085
-0.000761976
-0.000786677
-0.000810135
-0.000832287
-0.000853066
-0.000872395
-0.000890189
-0.000906357
-0.000920798
-0.000933404
-0.00094406
-0.000952643
-0.000959025
-0.000963073
-0.000964652
-0.000963623
-0.000959861
-0.000953261
-0.000943622
-0.000930349
-0.000913004
-0.000895955
0.00102944
0.00103428
0.00103679
0.00103488
0.00102894
0.00101942
0.00100658
0.000990565
0.000971548
0.00094968
0.00092511
0.000897981
0.000868437
0.000836618
0.000802665
0.000766722
0.000728939
0.000689461
0.000648438
0.000606022
0.000562366
0.000517621
0.00047194
0.000425473
0.000378367
0.000330767
0.000282812
0.000234636
0.000186367
0.000138125
9.00231e-05
4.21667e-05
-5.34782e-06
-5.24326e-05
-9.9009e-05
-0.000145007
-0.000190364
-0.000235027
-0.000278949
-0.000322092
-0.00036442
-0.000405908
-0.00044653
-0.000486268
-0.000525102
-0.000563016
-0.000599994
-0.000636017
-0.000671068
-0.000705121
-0.000738151
-0.000770125
-0.000801005
-0.000830746
-0.000859294
-0.000886588
-0.000912559
-0.000937126
-0.000960202
-0.000981687
-0.00100147
-0.00101944
-0.00103547
-0.00104943
-0.00106116
-0.00107051
-0.00107734
-0.00108149
-0.00108278
-0.00108108
-0.00107626
-0.00106809
-0.00105595
-0.0010394
-0.00102281
0.00120909
0.00120843
0.00120463
0.00119667
0.00118488
0.00116963
0.00115116
0.00112964
0.00110522
0.00107804
0.00104826
0.00101599
0.000981379
0.000944542
0.000905616
0.000864734
0.000822036
0.000777664
0.000731763
0.000684484
0.000635977
0.000586397
0.000535898
0.000484633
0.000432754
0.000380408
0.00032774
0.000274889
0.000221986
0.000169156
0.000116514
6.41684e-05
1.22167e-05
-3.92531e-05
-9.01643e-05
-0.000140449
-0.00019005
-0.000238918
-0.000287011
-0.000334298
-0.000380751
-0.00042635
-0.000471081
-0.000514931
-0.000557889
-0.000599946
-0.000641093
-0.000681317
-0.000720603
-0.000758931
-0.000796275
-0.000832602
-0.000867872
-0.000902033
-0.000935027
-0.000966783
-0.000997219
-0.00102624
-0.00105375
-0.00107962
-0.00110373
-0.00112594
-0.00114611
-0.00116406
-0.00117962
-0.00119262
-0.00120289
-0.00121022
-0.00121443
-0.00121535
-0.0012128
-0.00120656
-0.00119597
-0.00118057
-0.00116471
0.00140773
0.00140006
0.00138827
0.00137285
0.00135403
0.00133204
0.00130706
0.00127927
0.00124881
0.00121579
0.00118034
0.00114255