/*--------------------------------*- C++ -*----------------------------------*\
  =========                 |
  \\      /  F ield         | OpenFOAM: The Open Source CFD Toolbox
   \\    /   O peration     | Website:  https://openfoam.org
    \\  /    A nd           | Version:  12
     \\/     M anipulation  |
\*---------------------------------------------------------------------------*/
FoamFile
{
    format      ascii;
    class       surfaceScalarField;
    location    "6";
    object      phi;
}
// * * * * * * * * * * * * * * * * * * * * * * * * * * * * * * * * * * * * * //

dimensions      [0 3 -1 0 0 0 0];

internalField   nonuniform List<scalar> 
11100
(
-3.15824e-11
3.16422e-11
-7.97361e-11
4.81615e-11
-1.1522e-10
3.54912e-11
-1.20709e-10
5.49264e-12
-8.66525e-11
-3.40513e-11
-8.13595e-12
-7.85132e-11
1.16504e-10
-1.24636e-10
2.86764e-10
-1.70257e-10
5.00691e-10
-2.13922e-10
7.55366e-10
-2.54672e-10
1.04725e-09
-2.91883e-10
1.37241e-09
-3.2516e-10
1.72669e-09
-3.54269e-10
2.10578e-09
-3.79087e-10
2.50535e-09
-3.99571e-10
2.92109e-09
-4.1574e-10
3.34875e-09
-4.27652e-10
3.78415e-09
-4.35404e-10
4.22327e-09
-4.39115e-10
4.6622e-09
-4.38929e-10
5.09721e-09
-4.35003e-10
5.52472e-09
-4.27514e-10
5.94137e-09
-4.16644e-10
6.34396e-09
-4.02592e-10
6.72952e-09
-3.8556e-10
7.09529e-09
-3.65759e-10
7.43869e-09
-3.43405e-10
7.75742e-09
-3.18719e-10
8.04934e-09
-2.91925e-10
8.31259e-09
-2.63248e-10
8.54551e-09
-2.32916e-10
8.74667e-09
-2.01156e-10
8.91487e-09
-1.68196e-10
9.04914e-09
-1.34264e-10
9.14873e-09
-9.95833e-11
9.21311e-09
-6.43783e-11
9.24198e-09
-2.887e-11
9.23526e-09
6.72311e-12
9.19308e-09
4.21855e-11
9.11578e-09
7.73057e-11
9.00391e-09
1.11874e-10
8.85823e-09
1.45683e-10
8.6797e-09
1.78531e-10
8.46949e-09
2.10218e-10
8.22895e-09
2.40547e-10
7.95963e-09
2.69325e-10
7.66327e-09
2.96361e-10
7.3418e-09
3.21466e-10
6.99735e-09
3.44455e-10
6.63221e-09
3.65144e-10
6.24886e-09
3.83353e-10
5.84996e-09
3.98904e-10
5.43834e-09
4.1162e-10
5.01702e-09
4.21329e-10
4.58915e-09
4.27862e-10
4.1581e-09
4.31055e-10
3.72736e-09
4.30748e-10
3.30057e-09
4.2679e-10
2.88153e-09
4.19039e-10
2.47417e-09
4.07367e-10
2.0825e-09
3.91665e-10
1.71065e-09
3.7185e-10
1.36278e-09
3.47875e-10
1.04303e-09
3.19747e-10
7.55489e-10
2.87544e-10
5.04034e-10
2.51455e-10
2.92212e-10
2.11823e-10
1.22998e-10
1.69214e-10
-1.53995e-12
1.24538e-10
-8.07551e-11
7.92154e-11
-1.1606e-10
3.53054e-11
-1.12149e-10
-3.91119e-12
-7.81748e-11
-3.39742e-11
-3.11708e-11
-4.70039e-11
-3.11709e-11
-1.58079e-11
4.74526e-11
-1.57819e-11
4.81362e-11
3.62883e-11
-1.65773e-11
1.64599e-10
-1.22818e-10
3.84817e-10
-2.54267e-10
7.05584e-10
-3.9928e-10
1.13038e-09
-5.49428e-10
1.65871e-09
-6.98589e-10
2.28713e-09
-8.42342e-10
3.00998e-09
-9.77519e-10
3.81997e-09
-1.10187e-09
4.70864e-09
-1.21383e-09
5.66672e-09
-1.31235e-09
6.68438e-09
-1.39674e-09
7.75146e-09
-1.46665e-09
8.85763e-09
-1.52192e-09
9.99257e-09
-1.56259e-09
1.1146e-08
-1.58884e-09
1.23079e-08
-1.60098e-09
1.34683e-08
-1.5994e-09
1.46179e-08
-1.58459e-09
1.57475e-08
-1.55709e-09
1.68484e-08
-1.51749e-09
1.79122e-08
-1.46647e-09
1.89314e-08
-1.4047e-09
1.98985e-08
-1.33291e-09
2.0807e-08
-1.25185e-09
2.16505e-08
-1.16229e-09
2.24237e-08
-1.06504e-09
2.31213e-08
-9.60885e-10
2.3739e-08
-8.5065e-10
2.4273e-08
-7.35151e-10
2.47201e-08
-6.15213e-10
2.50775e-08
-4.91657e-10
2.53432e-08
-3.65305e-10
2.55158e-08
-2.36974e-10
2.55944e-08
-1.07472e-10
2.55787e-08
2.23961e-11
2.54691e-08
1.51838e-10
2.52663e-08
2.80071e-10
2.49719e-08
4.0632e-10
2.45877e-08
5.29826e-10
2.41164e-08
6.49837e-10
2.3561e-08
7.65616e-10
2.29251e-08
8.76437e-10
2.22129e-08
9.81587e-10
2.14289e-08
1.08037e-09
2.05783e-08
1.17209e-09
1.96666e-08
1.25607e-09
1.87001e-08
1.33166e-09
1.76853e-08
1.39821e-09
1.66291e-08
1.45509e-09
1.5539e-08
1.50169e-09
1.44229e-08
1.53742e-09
1.32891e-08
1.56172e-09
1.21461e-08
1.57404e-09
1.10029e-08
1.57389e-09
9.86892e-09
1.56082e-09
8.75353e-09
1.53443e-09
7.6665e-09
1.4944e-09
6.61768e-09
1.44049e-09
5.61692e-09
1.37261e-09
4.674e-09
1.2908e-09
3.79843e-09
1.19532e-09
2.99927e-09
1.08671e-09
2.28486e-09
9.65869e-10
1.66247e-09
8.34214e-10
1.13786e-09
6.93822e-10
7.14704e-10
5.47694e-10
3.93835e-10
4.00085e-10
1.72182e-10
2.56959e-10
4.16643e-11
1.26607e-10
-1.28544e-11
2.0545e-11
-1.48999e-11
-4.49582e-11
-4.60707e-11
2.54498e-11
2.20022e-11
1.31936e-10
-5.83529e-11
3.44044e-10
-2.28689e-10
6.80025e-10
-4.58802e-10
1.15207e-09
-7.26311e-10
1.76697e-09
-1.01418e-09
2.52683e-09
-1.3093e-09
3.42981e-09
-1.60158e-09
4.4708e-09
-1.88333e-09
5.64204e-09
-2.14876e-09
6.93367e-09
-2.3935e-09
8.3342e-09
-2.61437e-09
9.83093e-09
-2.80908e-09
1.14103e-08
-2.97607e-09
1.3058e-08
-3.11436e-09
1.47595e-08
-3.22344e-09
1.65001e-08
-3.30319e-09
1.82651e-08
-3.3538e-09
2.00398e-08
-3.37574e-09
2.18101e-08
-3.36967e-09
2.3562e-08
-3.33648e-09
2.52821e-08
-3.27718e-09
2.69575e-08
-3.19294e-09
2.85761e-08
-3.08503e-09
3.01262e-08
-2.95483e-09
3.15971e-08
-2.80378e-09
3.29786e-08
-2.63341e-09
3.42616e-08
-2.4453e-09
3.54377e-08
-2.24106e-09
3.64991e-08
-2.02235e-09
3.74393e-08
-1.79086e-09
3.82525e-08
-1.54827e-09
3.89336e-08
-1.29632e-09
3.94786e-08
-1.0367e-09
3.98844e-08
-7.71138e-10
4.01488e-08
-5.01345e-10
4.02704e-08
-2.29019e-10
4.02486e-08
4.41502e-11
4.00839e-08
3.16493e-10
3.97777e-08
5.86357e-10
3.93319e-08
8.52112e-10
3.87495e-08
1.11215e-09
3.80345e-08
1.36489e-09
3.71913e-08
1.60877e-09
3.62255e-08
1.84227e-09
3.51432e-08
2.06388e-09
3.39514e-08
2.27213e-09
3.26579e-08
2.46559e-09
3.12711e-08
2.64285e-09
2.98003e-08
2.80254e-09
2.82551e-08
2.94334e-09
2.66463e-08
3.06395e-09
2.49848e-08
3.16315e-09
2.32825e-08
3.23975e-09
2.15516e-08
3.29266e-09
1.98048e-08
3.32084e-09
1.80553e-08
3.32335e-09
1.63167e-08
3.29939e-09
1.46029e-08
3.24829e-09
1.29277e-08
3.16953e-09
1.13054e-08
3.06286e-09
9.74975e-09
2.92825e-09
8.27451e-09
2.76604e-09
6.89283e-09
2.577e-09
5.6171e-09
2.36243e-09
4.45862e-09
2.12435e-09
3.42719e-09
1.86564e-09
2.53067e-09
1.59034e-09
1.77442e-09
1.30394e-09
1.16069e-09
1.01382e-09
6.87895e-10
7.29756e-10
3.49891e-10
4.64611e-10
1.35232e-10
2.35206e-10
2.65053e-11
6.37689e-11
-1.95651e-11
7.224e-11
-5.02385e-11
3.00538e-10
-2.86655e-10
6.95618e-10
-6.23774e-10
1.26579e-09
-1.02898e-09
2.01609e-09
-1.47661e-09
2.94803e-09
-1.94613e-09
4.0597e-09
-2.42098e-09
5.34601e-09
-2.88788e-09
6.79898e-09
-3.33631e-09
8.40818e-09
-3.75796e-09
1.01611e-08
-4.14641e-09
1.20435e-08
-4.49675e-09
1.40397e-08
-4.80535e-09
1.61333e-08
-5.06961e-09
1.83067e-08
-5.28781e-09
2.05422e-08
-5.45897e-09
2.28218e-08
-5.58272e-09
2.51271e-08
-5.65919e-09
2.74404e-08
-5.68898e-09
2.97438e-08
-5.67306e-09
3.202e-08
-5.61273e-09
3.42524e-08
-5.50956e-09
3.64248e-08
-5.36536e-09
3.85219e-08
-5.18213e-09
4.05292e-08
-4.96209e-09
4.24329e-08
-4.70755e-09
4.42205e-08
-4.42098e-09
4.58801e-08
-4.10495e-09
4.74012e-08
-3.76211e-09
4.8774e-08
-3.39517e-09
4.999e-08
-3.0069e-09
5.10419e-08
-2.60011e-09
5.19232e-08
-2.17762e-09
5.26287e-08
-1.7423e-09
5.31546e-08
-1.29698e-09
5.34977e-08
-8.44511e-10
5.36564e-08
-3.87737e-10
5.36301e-08
7.05306e-11
5.3419e-08
5.27498e-10
5.3025e-08
9.80404e-10
5.24506e-08
1.42652e-09
5.16996e-08
1.86315e-09
5.07768e-08
2.28766e-09
4.96881e-08
2.69743e-09
4.84405e-08
3.08991e-09
4.70417e-08
3.4626e-09
4.55008e-08
3.81304e-09
4.38276e-08
4.13886e-09
4.20327e-08
4.43772e-09
4.01279e-08
4.70736e-09
3.81256e-08
4.94561e-09
3.60392e-08
5.15038e-09
3.38826e-08
5.31967e-09
3.16708e-08
5.45161e-09
2.9419e-08
5.54443e-09
2.71433e-08
5.59655e-09
2.48601e-08
5.60654e-09
2.25863e-08
5.5732e-09
2.0339e-08
5.49557e-09
1.81355e-08
5.37303e-09
1.59931e-08
5.20529e-09
1.39288e-08
4.99253e-09
1.19593e-08
4.73549e-09
1.01008e-08
4.43555e-09
8.36829e-09
4.09492e-09
6.77582e-09
3.71682e-09
5.33579e-09
3.30568e-09
4.05869e-09
2.86744e-09
2.95273e-09
2.4099e-09
2.02344e-09
1.94312e-09
1.2733e-09
1.4799e-09
7.01534e-10
1.03637e-09
3.03999e-10
6.32741e-10
7.33731e-11
2.94396e-10
5.38084e-11
1.17403e-10
-1.67641e-10
4.66906e-10
-6.36161e-10
1.04688e-09
-1.20375e-09
1.85547e-09
-1.83757e-09
2.88945e-09
-2.51059e-09
4.14364e-09
-3.20032e-09
5.61065e-09
-3.88799e-09
7.28079e-09
-4.55804e-09
9.14221e-09
-5.19773e-09
1.1181e-08
-5.79676e-09
1.33815e-08
-6.34691e-09
1.57265e-08
-6.84174e-09
1.81975e-08
-7.27637e-09
2.07751e-08
-7.64722e-09
2.34391e-08
-7.95184e-09
2.61689e-08
-8.18878e-09
2.89436e-08
-8.3574e-09
3.17422e-08
-8.45782e-09
3.4544e-08
-8.49077e-09
3.73285e-08
-8.45755e-09
4.00757e-08
-8.35992e-09
4.27662e-08
-8.20006e-09
4.53813e-08
-7.9805e-09
4.79033e-08
-7.70411e-09
5.03152e-08
-7.37399e-09
5.26011e-08
-6.99349e-09
5.47462e-08
-6.56614e-09
5.67369e-08
-6.09566e-09
5.85607e-08
-5.58587e-09
6.02062e-08
-5.04072e-09
6.16636e-08
-4.46422e-09
6.29239e-08
-3.86049e-09
6.39799e-08
-3.23365e-09
6.48255e-08
-2.58786e-09
6.54558e-08
-1.92731e-09
6.58675e-08
-1.25618e-09
6.60584e-08
-5.78625e-10
6.60277e-08
1.01207e-10
6.5776e-08
7.79207e-10
6.53051e-08
1.45131e-09
6.46181e-08
2.11349e-09
6.37194e-08
2.76178e-09
6.26148e-08
3.39229e-09
6.1311e-08
4.00118e-09
5.98163e-08
4.58468e-09
5.81397e-08
5.13913e-09
5.62918e-08
5.66091e-09
5.42841e-08
6.14654e-09
5.21292e-08
6.59262e-09
4.98407e-08
6.99586e-09
4.74332e-08
7.3531e-09
4.49223e-08
7.66132e-09
4.23243e-08
7.91767e-09
3.96564e-08
8.11947e-09
3.69366e-08
8.26424e-09
3.41834e-08
8.34975e-09
3.14159e-08
8.37405e-09
2.86536e-08
8.3355e-09
2.59163e-08
8.23288e-09
2.32239e-08
8.06537e-09
2.05965e-08
7.83272e-09
1.80537e-08
7.5353e-09
1.5615e-08
7.17422e-09
1.3299e-08
6.75149e-09
1.11238e-08
6.27015e-09
9.1061e-09
5.73451e-09
7.26142e-09
5.15035e-09
5.60365e-09
4.52522e-09
4.14484e-09
3.8687e-09
2.8951e-09
3.19286e-09
1.86243e-09
2.51256e-09
1.05285e-09
1.84596e-09
4.70585e-10
1.21501e-09
1.1866e-10
6.46322e-10
1.72469e-10
1.5925e-10
-3.26891e-10
6.23816e-10
-1.10073e-09
1.38211e-09
-1.96204e-09
2.42323e-09
-2.87869e-09
3.73596e-09
-3.82332e-09
5.30815e-09
-4.7725e-09
7.12633e-09
-5.70617e-09
9.17558e-09
-6.60729e-09
1.14394e-08
-7.46157e-09
1.38999e-08
-8.25722e-09
1.65376e-08
-8.98463e-09
1.9332e-08
-9.63618e-09
2.22616e-08
-1.0206e-08
2.5304e-08
-1.06896e-08
2.84361e-08
-1.1084e-08
3.16348e-08
-1.13874e-08
3.48765e-08
-1.15991e-08
3.81377e-08
-1.17191e-08
4.13953e-08
-1.17484e-08
4.46264e-08
-1.16887e-08
4.78088e-08
-1.15423e-08
5.09208e-08
-1.1312e-08
5.39416e-08
-1.10013e-08
5.68514e-08
-1.0614e-08
5.96315e-08
-1.0154e-08
6.2264e-08
-9.62602e-09
6.47325e-08
-9.03466e-09
6.70218e-08
-8.38492e-09
6.91178e-08
-7.68193e-09
7.10081e-08
-6.93102e-09
7.26815e-08
-6.1376e-09
7.41282e-08
-5.3072e-09
7.534e-08
-4.4454e-09
7.63099e-08
-3.55785e-09
7.70328e-08
-2.6502e-09
7.75048e-08
-1.72812e-09
7.77234e-08
-7.97254e-10
7.76878e-08
1.36767e-10
7.73987e-08
1.06836e-09
7.6858e-08
1.992e-09
7.60692e-08
2.90222e-09
7.50374e-08
3.79363e-09
7.37687e-08
4.66093e-09
7.2271e-08
5.49889e-09
7.05533e-08
6.30242e-09
6.86259e-08
7.06651e-09
6.65005e-08
7.78629e-09
6.419e-08
8.45703e-09
6.17085e-08
9.07413e-09
5.90711e-08
9.63317e-09
5.62943e-08
1.01299e-08
5.33954e-08
1.05603e-08
5.03926e-08
1.09204e-08
4.73052e-08
1.12069e-08
4.41531e-08
1.14163e-08
4.0957e-08
1.15458e-08
3.77382e-08
1.15928e-08
3.45185e-08
1.15552e-08
3.132e-08
1.14314e-08
2.8165e-08
1.12204e-08
2.50759e-08
1.09218e-08
2.2075e-08
1.05362e-08
1.91843e-08
1.00649e-08
1.64253e-08
9.51048e-09
1.38189e-08
8.87656e-09
1.13851e-08
8.1683e-09
9.1429e-09
7.39251e-09
7.11023e-09
6.55788e-09
5.30367e-09
5.67526e-09
3.73853e-09
4.758e-09
2.42889e-09
3.8222e-09
1.3878e-09
2.88705e-09
6.27623e-10
1.97518e-09
1.60634e-10
1.11331e-09
3.33103e-10
1.97896e-10
-5.24786e-10
7.70634e-10
-1.67346e-09
1.69871e-09
-2.89012e-09
2.96349e-09
-4.14347e-09
4.54648e-09
-5.40631e-09
6.42882e-09
-6.65484e-09
8.59095e-09
-7.8683e-09
1.10124e-08
-9.02874e-09
1.36717e-08
-1.01209e-08
1.65465e-08
-1.1132e-08
1.96133e-08
-1.20514e-08
2.28478e-08
-1.28707e-08
2.62252e-08
-1.35833e-08
2.97198e-08
-1.41842e-08
3.33059e-08
-1.46701e-08
3.69573e-08
-1.50389e-08
4.06482e-08
-1.52899e-08
4.43525e-08
-1.54234e-08
4.80448e-08
-1.54407e-08
5.17001e-08
-1.5344e-08
5.52941e-08
-1.51363e-08
5.88033e-08
-1.48212e-08
6.22049e-08
-1.4403e-08
6.54775e-08
-1.38866e-08
6.86007e-08
-1.32772e-08
7.15552e-08
-1.25805e-08
7.43231e-08
-1.18026e-08
7.68879e-08
-1.09498e-08
7.92346e-08
-1.00286e-08
8.13495e-08
-9.04592e-09
8.32206e-08
-8.00864e-09
8.48372e-08
-6.92384e-09
8.61905e-08
-5.7987e-09
8.72731e-08
-4.64043e-09
8.80792e-08
-3.45631e-09
8.86047e-08
-2.2536e-09
8.8847e-08
-1.03958e-09
8.88053e-08
1.78536e-10
8.84801e-08
1.39356e-09
8.78737e-08
2.59837e-09
8.699e-08
3.78595e-09
8.58343e-08
4.94935e-09
8.44135e-08
6.08175e-09
8.27359e-08
7.17643e-09
8.08115e-08
8.22683e-09
7.86515e-08
9.22652e-09
7.62686e-08
1.01692e-08
7.36767e-08
1.10489e-08
7.08912e-08
1.18596e-08
6.79287e-08
1.25957e-08
6.48068e-08
1.32518e-08
6.15444e-08
1.38226e-08
5.81615e-08
1.43034e-08
5.46788e-08
1.46895e-08
5.11182e-08
1.49769e-08
4.75022e-08
1.51618e-08
4.38541e-08
1.5241e-08
4.01976e-08
1.52117e-08
3.6557e-08
1.5072e-08
3.2957e-08
1.48204e-08
2.94222e-08
1.44566e-08
2.59775e-08
1.39809e-08
2.26476e-08
1.33948e-08
1.94569e-08
1.27011e-08
1.64295e-08
1.19039e-08
1.3589e-08
1.10088e-08
1.09582e-08
1.00233e-08
8.55942e-09
8.95671e-09
6.41399e-09
7.82069e-09
4.54273e-09
6.62926e-09
2.96581e-09
5.39912e-09
1.70301e-09
4.14984e-09
7.74106e-10
2.90409e-09
1.99303e-10
1.68811e-09
5.32406e-10
2.34066e-10
-7.58851e-10
9.09261e-10
-2.34865e-09
1.9996e-09
-3.98045e-09
3.47979e-09
-5.62366e-09
5.32479e-09
-7.25131e-09
7.50944e-09
-8.83948e-09
1.00082e-08
-1.03671e-08
1.27952e-08
-1.18157e-08
1.58437e-08
-1.31694e-08
1.91267e-08
-1.44149e-08
2.26163e-08
-1.5541e-08
2.62843e-08
-1.65388e-08
3.01022e-08
-1.74012e-08
3.40412e-08
-1.81231e-08
3.80722e-08
-1.87011e-08
4.21664e-08
-1.91331e-08
4.62952e-08
-1.94187e-08
5.04302e-08
-1.95585e-08
5.45438e-08
-1.95543e-08
5.86089e-08
-1.9409e-08
6.25991e-08
-1.91265e-08
6.64893e-08
-1.87113e-08
7.02551e-08
-1.81688e-08
7.38734e-08
-1.75049e-08
7.73225e-08
-1.67262e-08
8.05817e-08
-1.58398e-08
8.36322e-08
-1.4853e-08
8.64563e-08
-1.37738e-08
8.90379e-08
-1.26102e-08
9.13627e-08
-1.13707e-08
9.34179e-08
-1.00638e-08
9.51922e-08
-8.69816e-09
9.66762e-08
-7.28272e-09
9.78622e-08
-5.82639e-09
9.87441e-08
-4.33814e-09
9.93174e-08
-2.82695e-09
9.95796e-08
-1.30179e-09
9.95298e-08
2.284e-10
9.91686e-08
1.75474e-09
9.84986e-08
3.26844e-09
9.75238e-08
4.76079e-09
9.62499e-08
6.22322e-09
9.46844e-08
7.64729e-09
9.28361e-08
9.02469e-09
9.07157e-08
1.03473e-08
8.83351e-08
1.16072e-08
8.57078e-08
1.27965e-08
8.28487e-08
1.39079e-08
7.97743e-08
1.4934e-08
7.65022e-08
1.58679e-08
7.30513e-08
1.67027e-08
6.94418e-08
1.74322e-08
6.5695e-08
1.80502e-08
6.18332e-08
1.85513e-08
5.78798e-08
1.89303e-08
5.38592e-08
1.91825e-08
4.97962e-08
1.93039e-08
4.57167e-08
1.92912e-08
4.16471e-08
1.91416e-08
3.7614e-08
1.88535e-08
3.36448e-08
1.84258e-08
2.97668e-08
1.78589e-08
2.60075e-08
1.71541e-08
2.23945e-08
1.63141e-08
1.89552e-08
1.53432e-08
1.5717e-08
1.42471e-08
1.27067e-08
1.30336e-08
9.95102e-09
1.17123e-08
7.47646e-09
1.02952e-08
5.30914e-09
8.79658e-09
3.4751e-09
7.23317e-09
2.00041e-09
5.62453e-09
9.11449e-10
3.99305e-09
2.35258e-10
2.3643e-09
7.67663e-10
2.6863e-10
-1.02748e-09
1.04239e-09
-3.12241e-09
2.28967e-09
-5.22773e-09
3.97926e-09
-7.31325e-09
6.0801e-09
-9.35214e-09
8.56109e-09
-1.13205e-08
1.1391e-08
-1.3197e-08
1.45383e-08
-1.4963e-08
1.79713e-08
-1.66024e-08
2.1658e-08
-1.81016e-08
2.55661e-08
-1.94491e-08
2.96633e-08
-2.06359e-08
3.39172e-08
-2.1655e-08
3.82953e-08
-2.25013e-08
4.27656e-08
-2.31714e-08
4.72962e-08
-2.36637e-08
5.18558e-08
-2.39783e-08
5.64136e-08
-2.41163e-08
6.09397e-08
-2.40803e-08
6.54048e-08
-2.38742e-08
6.97809e-08
-2.35026e-08
7.4041e-08
-2.29714e-08
7.81593e-08
-2.2287e-08
8.21113e-08
-2.14569e-08
8.58739e-08
-2.04888e-08
8.94255e-08
-1.93914e-08
9.27461e-08
-1.81736e-08
9.58173e-08
-1.68449e-08
9.86221e-08
-1.54151e-08
1.01146e-07
-1.38942e-08
1.03374e-07
-1.22925e-08
1.05297e-07
-1.06205e-08
1.06903e-07
-8.88885e-09
1.08185e-07
-7.10822e-09
1.09136e-07
-5.28939e-09
1.09752e-07
-3.44314e-09
1.10031e-07
-1.58022e-09
1.0997e-07
2.88626e-10
1.09572e-07
2.15276e-09
1.08839e-07
4.00163e-09
1.07775e-07
5.8248e-09
1.06387e-07
7.61196e-09
1.04681e-07
9.35297e-09
1.02668e-07
1.10379e-08
1.00358e-07
1.26569e-08
9.77646e-08
1.42006e-08
9.49017e-08
1.56595e-08
9.1785e-08
1.70247e-08
8.84317e-08
1.82873e-08
8.48605e-08
1.94391e-08
8.10914e-08
2.04718e-08
7.71457e-08
2.13779e-08
7.3046e-08
2.215e-08
6.8816e-08
2.27813e-08
6.44805e-08
2.32658e-08
6.00654e-08
2.35976e-08
5.55976e-08
2.37718e-08
5.11047e-08
2.37842e-08
4.6615e-08
2.36313e-08
4.21576e-08
2.33108e-08
3.77622e-08
2.28213e-08
3.34589e-08
2.21623e-08
2.9278e-08
2.1335e-08
2.52505e-08
2.03417e-08
2.14071e-08
1.91865e-08
1.77791e-08
1.78752e-08
1.43975e-08
1.64152e-08
1.12937e-08
1.48162e-08
8.49883e-09
1.30901e-08
6.04446e-09
1.1251e-08
3.96214e-09
9.31548e-09
2.2838e-09
7.30287e-09
1.04181e-09
5.23504e-09
2.6921e-10
3.1369e-09
1.03687e-09
3.02408e-10
-1.32989e-09
1.17273e-09
-3.99274e-09
2.57415e-09
-6.62915e-09
4.46986e-09
-9.20897e-09
6.8231e-09
-1.17054e-08
9.59704e-09
-1.40944e-08
1.27548e-08
-1.63548e-08
1.62596e-08
-1.84677e-08
2.00743e-08
-2.04172e-08
2.41621e-08
-2.21894e-08
2.84861e-08
-2.37732e-08
3.30098e-08
-2.51596e-08
3.76966e-08
-2.63419e-08
4.25107e-08
-2.73153e-08
4.74164e-08
-2.80771e-08
5.2379e-08
-2.86263e-08
5.73643e-08
-2.89635e-08
6.2339e-08
-2.9091e-08
6.7271e-08
-2.90122e-08
7.21289e-08
-2.87321e-08
7.6883e-08
-2.82567e-08
8.15045e-08
-2.75929e-08
8.59662e-08
-2.67487e-08
9.02423e-08
-2.5733e-08
9.43086e-08
-2.45552e-08
9.81426e-08
-2.32254e-08
1.01723e-07
-2.17544e-08
1.05032e-07
-2.01532e-08
1.0805e-07
-1.84335e-08
1.10763e-07
-1.66071e-08
1.13156e-07
-1.4686e-08
1.15219e-07
-1.26828e-08
1.1694e-07
-1.06097e-08
1.18311e-07
-8.47936e-09
1.19326e-07
-6.30444e-09
1.1998e-07
-4.09756e-09
1.20271e-07
-1.87133e-09
1.20198e-07
3.61672e-10
1.19762e-07
2.58897e-09
1.18965e-07
4.79819e-09
1.17813e-07
6.9771e-09
1.16311e-07
9.11362e-09
1.14469e-07
1.11959e-08
1.12294e-07
1.32121e-08
1.098e-07
1.5151e-08
1.07e-07
1.70012e-08
1.03907e-07
1.87518e-08
1.0054e-07
2.03923e-08
9.69149e-08
2.19122e-08
9.30522e-08
2.33017e-08
8.89728e-08
2.45513e-08
8.46989e-08
2.56518e-08
8.02543e-08
2.65946e-08
7.5664e-08
2.73716e-08
7.09543e-08
2.79755e-08
6.61526e-08
2.83993e-08
6.12873e-08
2.8637e-08
5.63881e-08
2.86834e-08
5.14854e-08
2.85341e-08
4.66105e-08
2.81858e-08
4.17955e-08
2.76362e-08
3.70733e-08
2.68845e-08
3.24774e-08
2.59309e-08
2.80418e-08
2.47774e-08
2.38009e-08
2.34274e-08
1.97899e-08
2.18862e-08
1.6044e-08
2.01611e-08
1.2599e-08
1.82612e-08
9.49115e-09
1.6198e-08
6.75687e-09
1.39852e-08
4.43312e-09
1.16392e-08
2.5573e-09
9.17869e-09
1.16736e-09
6.62499e-09
3.01832e-10
4.00242e-09
1.3387e-09
3.36112e-10
-1.666e-09
1.30272e-09
-4.95934e-09
2.85776e-09
-8.18419e-09
4.95894e-09
-1.13102e-08
7.56383e-09
-1.43103e-08
1.06299e-08
-1.71605e-08
1.41148e-08
-1.98396e-08
1.7976e-08
-2.2329e-08
2.21714e-08
-2.46126e-08
2.66592e-08
-2.66771e-08
3.13977e-08
-2.85117e-08
3.6346e-08
-3.01079e-08
4.14637e-08
-3.14595e-08
4.67109e-08
-3.25625e-08
5.20487e-08
-3.3415e-08
5.74392e-08
-3.40169e-08
6.28455e-08
-3.43698e-08
6.82317e-08
-3.44772e-08
7.35634e-08
-3.43439e-08
7.88073e-08
-3.39761e-08
8.39318e-08
-3.33811e-08
8.89066e-08
-3.25677e-08
9.37031e-08
-3.15452e-08
9.82944e-08
-3.03243e-08
1.02655e-07
-2.8916e-08
1.06762e-07
-2.73324e-08
1.10594e-07
-2.55858e-08
1.1413e-07
-2.36893e-08
1.17352e-07
-2.16563e-08
1.20246e-07
-1.95006e-08
1.22796e-07
-1.72362e-08
1.24991e-07
-1.48772e-08
1.26819e-07
-1.24382e-08
1.28273e-07
-9.93363e-09
1.29347e-07
-7.37797e-09
1.30035e-07
-4.78582e-09
1.30335e-07
-2.17169e-09
1.30247e-07
4.49952e-10
1.29771e-07
3.06476e-09
1.28911e-07
5.6585e-09
1.27671e-07
8.21709e-09
1.26058e-07
1.07266e-08
1.2408e-07
1.31734e-08
1.21748e-07
1.55441e-08
1.19074e-07
1.78253e-08
1.16071e-07
2.00042e-08
1.12755e-07
2.20681e-08
1.09142e-07
2.40048e-08
1.05252e-07
2.58023e-08
1.01105e-07
2.74491e-08
9.6722e-08
2.89341e-08
9.2127e-08
3.02468e-08
8.73446e-08
3.13769e-08
8.24012e-08
3.23151e-08
7.73242e-08
3.30524e-08
7.21427e-08
3.35808e-08
6.68867e-08
3.3893e-08
6.15877e-08
3.39824e-08
5.62783e-08
3.38436e-08
5.09919e-08
3.34721e-08
4.57633e-08
3.28648e-08
4.06281e-08
3.20197e-08
3.56228e-08
3.09362e-08
3.07848e-08
2.96154e-08
2.61521e-08
2.80601e-08
2.17637e-08
2.62746e-08
1.76591e-08
2.42656e-08
1.38787e-08
2.20416e-08
1.04632e-08
1.96134e-08
7.45421e-09
1.69942e-08
4.8938e-09
1.41996e-08
2.82465e-09
1.12478e-08
1.29001e-09
8.15963e-09
3.33688e-10
4.95875e-09
1.67239e-09
3.70316e-10
-2.03632e-09
1.4343e-09
-6.02333e-09
3.14439e-09
-9.89429e-09
5.45256e-09
-1.36183e-08
8.31055e-09
-1.71683e-08
1.16701e-08
-2.052e-08
1.54829e-08
-2.36525e-08
1.97012e-08
-2.65473e-08
2.42775e-08
-2.91889e-08
2.91647e-08
-3.15644e-08
3.43167e-08
-3.36637e-08
3.96878e-08
-3.54791e-08
4.52337e-08
-3.70053e-08
5.09106e-08
-3.82395e-08
5.66763e-08
-3.91807e-08
6.24897e-08
-3.98302e-08
6.83109e-08
-4.01911e-08
7.41018e-08
-4.02681e-08
7.98256e-08
-4.00677e-08
8.54472e-08
-3.95976e-08
9.09331e-08
-3.88671e-08
9.62517e-08
-3.78863e-08
1.01373e-07
-3.66667e-08
1.06269e-07
-3.52205e-08
1.10914e-07
-3.3561e-08
1.15284e-07
-3.17018e-08
1.19355e-07
-2.96576e-08
1.23109e-07
-2.74431e-08
1.26527e-07
-2.50738e-08
1.29592e-07
-2.25655e-08
1.3229e-07
-1.99342e-08
1.34608e-07
-1.7196e-08
1.36538e-07
-1.43674e-08
1.38069e-07
-1.14648e-08
1.39196e-07
-8.50476e-09
1.39913e-07
-5.50373e-09
1.4022e-07
-2.47817e-09
1.40114e-07
5.55517e-10
1.39598e-07
3.58109e-09
1.38674e-07
6.58242e-09
1.37348e-07
9.54358e-09
1.35625e-07
1.24488e-08
1.33516e-07
1.52826e-08
1.31031e-07
1.80297e-08
1.28181e-07
2.0675e-08
1.24981e-07
2.3204e-08
1.21447e-07
2.56021e-08
1.17596e-07
2.78555e-08
1.13448e-07
2.99504e-08
1.09024e-07
3.18737e-08
1.04345e-07
3.36126e-08
9.94368e-08
3.51549e-08
9.43247e-08
3.6489e-08
8.9036e-08
3.76037e-08
8.35996e-08
3.84888e-08
7.80459e-08
3.91345e-08
7.24067e-08
3.95322e-08
6.67151e-08
3.96739e-08
6.10058e-08
3.95529e-08
5.53146e-08
3.91633e-08
4.96787e-08
3.85007e-08
4.41365e-08
3.75618e-08
3.87276e-08
3.63451e-08
3.34925e-08
3.48504e-08
2.84732e-08
3.30794e-08
2.37124e-08
3.10354e-08
1.92538e-08
2.87242e-08
1.51422e-08
2.61532e-08
1.14231e-08
2.33325e-08
8.14295e-09
2.02744e-08
5.34892e-09
1.69937e-08
3.08888e-09
1.35079e-08
1.41131e-09
9.8372e-09
3.65226e-10
6.00484e-09
2.03762e-09
4.05449e-10
-2.44176e-09
1.56895e-09
-7.18683e-09
3.43687e-09
-1.17622e-08
5.95503e-09
-1.61365e-08
9.06901e-09
-2.02822e-08
1.27244e-08
-2.41755e-08
1.68672e-08
-2.77953e-08
2.14437e-08
-3.11238e-08
2.6401e-08
-3.41461e-08
3.16868e-08
-3.68503e-08
3.72502e-08
-3.9227e-08
4.30411e-08
-4.12699e-08
4.90107e-08
-4.2975e-08
5.51119e-08
-4.43406e-08
6.12987e-08
-4.53675e-08
6.75271e-08
-4.60586e-08
7.37545e-08
-4.64185e-08
7.99402e-08
-4.64539e-08
8.60454e-08
-4.61729e-08
9.20331e-08
-4.55854e-08
9.78683e-08
-4.47023e-08
1.03518e-07
-4.35361e-08
1.08952e-07
-4.21001e-08
1.1414e-07
-4.04086e-08
1.19056e-07
-3.84769e-08
1.23675e-07
-3.63209e-08
1.27974e-07
-3.39571e-08
1.31934e-07
-3.14025e-08
1.35534e-07
-2.86746e-08
1.3876e-07
-2.57911e-08
1.41596e-07
-2.27703e-08
1.4403e-07
-1.96303e-08
1.46052e-07
-1.63895e-08
1.47654e-07
-1.30664e-08
1.48829e-07
-9.67955e-09
1.49572e-07
-6.24731e-09
1.49882e-07
-2.78814e-09
1.49758e-07
6.79665e-10
1.49201e-07
4.13793e-09
1.48215e-07
7.56864e-09
1.46805e-07
1.0954e-08
1.44977e-07
1.42764e-08
1.42741e-07
1.75184e-08
1.40108e-07
2.06629e-08
1.3709e-07
2.36933e-08
1.33701e-07
2.65928e-08
1.29958e-07
2.93454e-08
1.25878e-07
3.19352e-08
1.21482e-07
3.43469e-08
1.1679e-07
3.65655e-08
1.11826e-07
3.85765e-08
1.06615e-07
4.0366e-08
1.01183e-07
4.19205e-08
9.55598e-08
4.32273e-08
8.97742e-08
4.42744e-08
8.38582e-08
4.50505e-08
7.78453e-08
4.55451e-08
7.17703e-08
4.57489e-08
6.56699e-08
4.56533e-08
5.95821e-08
4.5251e-08
5.35467e-08
4.45361e-08
4.76047e-08
4.35038e-08
4.17987e-08
4.21511e-08
3.61728e-08
4.04763e-08
3.07723e-08
3.84799e-08
2.56439e-08
3.61638e-08
2.08355e-08
3.35325e-08
1.63964e-08
3.05924e-08
1.23767e-08
2.73522e-08
8.82779e-09
2.38233e-08
5.80193e-09
2.00195e-08
3.3522e-09
1.59576e-08
1.53238e-09
1.1657e-08
3.9677e-10
7.14045e-09
2.43439e-09
4.41787e-10
-2.88355e-09
1.70754e-09
-8.45258e-09
3.73682e-09
-1.37915e-08
6.46866e-09
-1.88683e-08
9.84201e-09
-2.36556e-08
1.3796e-08
-2.81295e-08
1.82703e-08
-3.22696e-08
2.32053e-08
-3.60588e-08
2.85423e-08
-3.94832e-08
3.42241e-08
-4.2532e-08
4.01944e-08
-4.51974e-08
4.63989e-08
-4.74744e-08
5.27847e-08
-4.93608e-08
5.93007e-08
-5.08566e-08
6.58978e-08
-5.19646e-08
7.25289e-08
-5.26896e-08
7.91488e-08
-5.30384e-08
8.57146e-08
-5.30196e-08
9.21855e-08
-5.26438e-08
9.85229e-08
-5.19228e-08
1.0469e-07
-5.08699e-08
1.10654e-07
-4.94998e-08
1.16382e-07
-4.7828e-08
1.21845e-07
-4.58712e-08
1.27014e-07
-4.36468e-08
1.31866e-07
-4.11729e-08
1.36378e-07
-3.84684e-08
1.40528e-07
-3.55523e-08
1.44297e-07
-3.24444e-08
1.47671e-07
-2.91645e-08
1.50633e-07
-2.5733e-08
1.53173e-07
-2.217e-08
1.5528e-07
-1.8496e-08
1.56945e-07
-1.47315e-08
1.58162e-07
-1.08971e-08
1.58928e-07
-7.01307e-09
1.5924e-07
-3.09982e-09
1.59097e-07
8.22426e-10
1.58501e-07
4.7336e-09
1.57456e-07
8.61382e-09
1.55967e-07
1.24434e-08
1.5404e-07
1.62028e-08
1.51686e-07
1.98729e-08
1.48914e-07
2.34347e-08
1.45738e-07
2.68696e-08
1.42171e-07
3.01592e-08
1.38231e-07
3.32855e-08
1.33935e-07
3.62309e-08
1.29304e-07
3.89781e-08
1.24359e-07
4.15104e-08
1.19124e-07
4.38114e-08
1.13625e-07
4.58652e-08
1.07889e-07
4.76568e-08
1.01945e-07
4.91714e-08
9.58239e-08
5.03952e-08
8.95595e-08
5.1315e-08
8.3186e-08
5.19186e-08
7.67403e-08
5.21946e-08
7.02607e-08
5.21329e-08
6.37875e-08
5.17242e-08
5.73628e-08
5.09608e-08
5.10304e-08
4.98362e-08
4.48359e-08
4.83456e-08
3.88266e-08
4.64856e-08
3.30515e-08
4.4255e-08
2.75611e-08
4.16542e-08
2.24077e-08
3.8686e-08
1.76447e-08
3.53553e-08
1.33272e-08
3.16697e-08
9.51146e-09
2.7639e-08
6.25492e-09
2.32761e-08
3.61599e-09
1.85965e-08
1.65392e-09
1.36191e-08
4.28531e-10
8.36583e-09
2.86292e-09
4.79449e-10
-3.363e-09
1.85034e-09
-9.82347e-09
4.04452e-09
-1.59857e-08
6.99349e-09
-2.18173e-08
1.06289e-08
-2.7291e-08
1.48829e-08
-3.23835e-08
1.96885e-08
-3.70752e-08
2.49799e-08
-4.13501e-08
3.06926e-08
-4.51959e-08
3.67638e-08
-4.86032e-08
4.31325e-08
-5.15661e-08
4.97397e-08
-5.40816e-08
5.65284e-08
-5.61495e-08
6.34441e-08
-5.77723e-08
7.04343e-08
-5.89549e-08
7.74492e-08
-5.97045e-08
8.44412e-08
-6.00304e-08
9.13655e-08
-5.99439e-08
9.81795e-08
-5.94578e-08
1.04843e-07
-5.85865e-08
1.11319e-07
-5.7346e-08
1.17573e-07
-5.57533e-08
1.23572e-07
-5.38266e-08
1.29285e-07
-5.15848e-08
1.34686e-07
-4.90478e-08
1.39749e-07
-4.62361e-08
1.44452e-07
-4.31708e-08
1.48773e-07
-3.98734e-08
1.52694e-07
-3.63657e-08
1.562e-07
-3.26699e-08
1.59275e-07
-2.88083e-08
1.61908e-07
-2.48032e-08
1.6409e-07
-2.06772e-08
1.65811e-07
-1.64528e-08
1.67066e-07
-1.21523e-08
1.67851e-07
-7.79825e-09
1.68164e-07
-3.4128e-09
1.68005e-07
9.81929e-10
1.67374e-07
5.364e-09
1.66277e-07
9.71166e-09
1.64717e-07
1.40034e-08
1.62701e-07
1.82179e-08
1.6024e-07
2.23341e-08
1.57344e-07
2.63313e-08
1.54025e-07
3.01889e-08
1.50297e-07
3.38867e-08
1.46178e-07
3.74049e-08
1.41685e-07
4.0724e-08
1.36838e-07
4.38247e-08
1.3166e-07
4.66885e-08
1.26174e-07
4.9297e-08
1.20407e-07
5.16324e-08
1.14386e-07
5.36776e-08
1.08142e-07
5.54159e-08
1.01706e-07
5.68314e-08
9.51118e-08
5.79089e-08
8.83963e-08
5.86342e-08
8.15972e-08
5.89937e-08
7.47549e-08
5.89752e-08
6.79116e-08
5.85675e-08
6.11118e-08
5.77606e-08
5.44019e-08
5.65461e-08
4.78304e-08
5.49171e-08
4.14479e-08
5.28681e-08
3.5307e-08
5.0396e-08
2.9462e-08
4.74992e-08
2.39693e-08
4.41787e-08
1.88871e-08
4.04376e-08
1.42751e-08
3.62817e-08
1.01947e-08
3.17194e-08
6.7086e-09
2.67621e-08
3.8808e-09
2.14243e-08
1.77625e-09
1.57237e-08
4.6061e-10
9.68146e-09
3.32353e-09
5.18373e-10
-3.88137e-09
1.99695e-09
-1.1302e-08
4.35878e-09
-1.83475e-08
7.52695e-09
-2.49855e-08
1.14251e-08
-3.11891e-08
1.59779e-08
-3.69362e-08
2.11111e-08
-4.22085e-08
2.67526e-08
-4.69916e-08
3.28317e-08
-5.1275e-08
3.92801e-08
-5.50517e-08
4.6032e-08
-5.83179e-08
5.30237e-08
-6.10733e-08
6.01946e-08
-6.33203e-08
6.74865e-08
-6.50641e-08
7.48441e-08
-6.63125e-08
8.22151e-08
-6.70755e-08
8.95499e-08
-6.73652e-08
9.68019e-08
-6.71959e-08
1.03927e-07
-6.65832e-08
1.10885e-07
-6.55444e-08
1.17637e-07
-6.40983e-08
1.24149e-07
-6.22645e-08
1.30386e-07
-6.0064e-08
1.3632e-07
-5.75185e-08
1.41922e-07
-5.46502e-08
1.47169e-07
-5.14823e-08
1.52036e-07
-4.80381e-08
1.56504e-07
-4.43416e-08
1.60555e-07
-4.04168e-08
1.64173e-07
-3.6288e-08
1.67345e-07
-3.19797e-08
1.70058e-07
-2.75163e-08
1.72303e-07
-2.29224e-08
1.74073e-07
-1.82224e-08
1.75361e-07
-1.34406e-08
1.76164e-07
-8.60131e-09
1.7648e-07
-3.72859e-09
1.76308e-07
1.15365e-09
1.7565e-07
6.02166e-09
1.7451e-07
1.08519e-08
1.72892e-07
1.56211e-08
1.70804e-07
2.03062e-08
1.68254e-07
2.48842e-08
1.65253e-07
2.93327e-08
1.61812e-07
3.36292e-08
1.57947e-07
3.77518e-08
1.53673e-07
4.16787e-08
1.49009e-07
4.53884e-08
1.43974e-07
4.88598e-08
1.3859e-07
5.20723e-08
1.32882e-07
5.50054e-08
1.26875e-07
5.76395e-08
1.20597e-07
5.9955e-08
1.1408e-07
6.19333e-08
1.07355e-07
6.35561e-08
1.00458e-07
6.48061e-08
9.34257e-08
6.56667e-08
8.62973e-08
6.61221e-08
7.91149e-08
6.61577e-08
7.19226e-08
6.57598e-08
6.47671e-08
6.49162e-08
5.76974e-08
6.36159e-08
5.07647e-08
6.18497e-08
4.4023e-08
5.96099e-08
3.75281e-08
5.68908e-08
3.13386e-08
5.36887e-08
2.55149e-08
5.00023e-08
2.01199e-08
4.58327e-08
1.52181e-08
4.11835e-08
1.08761e-08
3.60613e-08
7.16233e-09
3.0476e-08
4.14639e-09
2.44403e-08
1.89931e-09
1.79707e-08
4.93009e-10
1.10878e-08
3.81654e-09
5.58301e-10
-4.43967e-09
2.14618e-09
-1.28899e-08
4.6767e-09
-2.0878e-08
8.06355e-09
-2.83723e-08
1.22216e-08
-3.53472e-08
1.70673e-08
-4.17819e-08
2.25191e-08
-4.76603e-08
2.84977e-08
-5.29702e-08
3.49265e-08
-5.77038e-08
4.17317e-08
-6.18568e-08
4.88424e-08
-6.54286e-08
5.61908e-08
-6.84218e-08
6.37125e-08
-7.0842e-08
7.13463e-08
-7.2698e-08
7.90344e-08
-7.40006e-08
8.67223e-08