/*--------------------------------*- C++ -*----------------------------------*\
  =========                 |
  \\      /  F ield         | OpenFOAM: The Open Source CFD Toolbox
   \\    /   O peration     | Website:  https://openfoam.org
    \\  /    A nd           | Version:  12
     \\/     M anipulation  |
\*---------------------------------------------------------------------------*/
FoamFile
{
    format      ascii;
    class       volVectorField;
    location    "6";
    object      U;
}
// * * * * * * * * * * * * * * * * * * * * * * * * * * * * * * * * * * * * * //

dimensions      [0 1 -1 0 0 0 0];

internalField   nonuniform List<vector> 
5625
(
(-5.34607e-07 1.19519e-06 0)
(-2.19621e-06 1.97389e-06 0)
(-3.82819e-06 1.94623e-06 0)
(-4.70535e-06 1.5349e-06 0)
(-4.24533e-06 9.56297e-07 0)
(-2.16881e-06 3.13424e-07 0)
(1.6332e-06 -3.3677e-07 0)
(7.17206e-06 -9.61427e-07 0)
(1.43953e-05 -1.54165e-06 0)
(2.32085e-05 -2.0677e-06 0)
(3.34884e-05 -2.53536e-06 0)
(4.5093e-05 -2.94359e-06 0)
(5.78692e-05 -3.29309e-06 0)
(7.16576e-05 -3.58554e-06 0)
(8.62957e-05 -3.82316e-06 0)
(0.000101621 -4.00844e-06 0)
(0.000117472 -4.14393e-06 0)
(0.000133691 -4.23226e-06 0)
(0.000150124 -4.27602e-06 0)
(0.000166621 -4.27778e-06 0)
(0.000183041 -4.2401e-06 0)
(0.000199244 -4.16548e-06 0)
(0.000215102 -4.05642e-06 0)
(0.00023049 -3.91538e-06 0)
(0.000245294 -3.74483e-06 0)
(0.000259406 -3.54719e-06 0)
(0.000272725 -3.32487e-06 0)
(0.00028516 -3.08027e-06 0)
(0.000296628 -2.81574e-06 0)
(0.000307053 -2.53362e-06 0)
(0.000316371 -2.23623e-06 0)
(0.000324522 -1.92582e-06 0)
(0.000331457 -1.60465e-06 0)
(0.000337136 -1.27491e-06 0)
(0.000341527 -9.38742e-07 0)
(0.000344605 -5.98268e-07 0)
(0.000346355 -2.55556e-07 0)
(0.00034677 8.73939e-08 0)
(0.000345852 4.28481e-07 0)
(0.000343607 7.65978e-07 0)
(0.000340054 1.09788e-06 0)
(0.000335217 1.42231e-06 0)
(0.000329129 1.73744e-06 0)
(0.000321829 2.04147e-06 0)
(0.000313364 2.33262e-06 0)
(0.000303789 2.60911e-06 0)
(0.000293166 2.86918e-06 0)
(0.000281563 3.11105e-06 0)
(0.000269057 3.33293e-06 0)
(0.000255731 3.53303e-06 0)
(0.000241673 3.70949e-06 0)
(0.000226981 3.86042e-06 0)
(0.000211757 3.98389e-06 0)
(0.000196112 4.07788e-06 0)
(0.00018016 4.14029e-06 0)
(0.000164025 4.16891e-06 0)
(0.000147834 4.16145e-06 0)
(0.000131722 4.11546e-06 0)
(0.000115828 4.02839e-06 0)
(0.000100297 3.89753e-06 0)
(8.52793e-05 3.72007e-06 0)
(7.09269e-05 3.49312e-06 0)
(5.73956e-05 3.21377e-06 0)
(4.48419e-05 2.87929e-06 0)
(3.34209e-05 2.48737e-06 0)
(2.32831e-05 2.03658e-06 0)
(1.45696e-05 1.52718e-06 0)
(7.40442e-06 9.62478e-07 0)
(1.884e-06 3.51746e-07 0)
(-1.93079e-06 -2.86445e-07 0)
(-4.04408e-06 -9.22067e-07 0)
(-4.5594e-06 -1.49829e-06 0)
(-3.74277e-06 -1.91187e-06 0)
(-2.16181e-06 -1.94792e-06 0)
(-5.30593e-07 -1.18425e-06 0)
(-3.2744e-07 3.55353e-06 0)
(-9.8889e-07 5.26761e-06 0)
(-2.11751e-07 3.30083e-06 0)
(2.99944e-06 -9.41742e-07 0)
(9.42101e-06 -6.51719e-06 0)
(1.95074e-05 -1.27878e-05 0)
(3.3473e-05 -1.93144e-05 0)
(5.13621e-05 -2.57947e-05 0)
(7.30927e-05 -3.2021e-05 0)
(9.84881e-05 -3.78524e-05 0)
(0.000127301 -4.31942e-05 0)
(0.000159232 -4.79849e-05 0)
(0.000193946 -5.21856e-05 0)
(0.000231083 -5.57747e-05 0)
(0.000270266 -5.87425e-05 0)
(0.000311109 -6.10885e-05 0)
(0.000353225 -6.28191e-05 0)
(0.000396226 -6.39461e-05 0)
(0.000439729 -6.44855e-05 0)
(0.000483362 -6.44567e-05 0)
(0.000526762 -6.38821e-05 0)
(0.000569579 -6.27861e-05 0)
(0.000611477 -6.11952e-05 0)
(0.00065214 -5.91375e-05 0)
(0.000691266 -5.66424e-05 0)
(0.000728574 -5.37405e-05 0)
(0.000763801 -5.04631e-05 0)
(0.000796706 -4.68424e-05 0)
(0.000827068 -4.29111e-05 0)
(0.000854688 -3.87022e-05 0)
(0.00087939 -3.42491e-05 0)
(0.000901018 -2.9585e-05 0)
(0.000919439 -2.47435e-05 0)
(0.000934544 -1.9758e-05 0)
(0.000946243 -1.46614e-05 0)
(0.000954473 -9.4869e-06 0)
(0.000959188 -4.26693e-06 0)
(0.000960368 9.66232e-07 0)
(0.000958013 6.1808e-06 0)
(0.000952145 1.13454e-05 0)
(0.000942806 1.64291e-05 0)
(0.000930062 2.14014e-05 0)
(0.000913996 2.62323e-05 0)
(0.000894715 3.08924e-05 0)
(0.000872343 3.53525e-05 0)
(0.000847024 3.9584e-05 0)
(0.000818924 4.35588e-05 0)
(0.000788225 4.72491e-05 0)
(0.000755129 5.06275e-05 0)
(0.000719856 5.36673e-05 0)
(0.000682642 5.63418e-05 0)
(0.000643743 5.8625e-05 0)
(0.00060343 6.04915e-05 0)
(0.00056199 6.19161e-05 0)
(0.000519726 6.28747e-05 0)
(0.000476954 6.33437e-05 0)
(0.000434005 6.33006e-05 0)
(0.000391221 6.27243e-05 0)
(0.000348956 6.15955e-05 0)
(0.00030757 5.98972e-05 0)
(0.000267432 5.76154e-05 0)
(0.000228912 5.47406e-05 0)
(0.00019238 5.12691e-05 0)
(0.000158198 4.72054e-05 0)
(0.000126717 4.25653e-05 0)
(9.82663e-05 3.73808e-05 0)
(7.31418e-05 3.17064e-05 0)
(5.15927e-05 2.5629e-05 0)
(3.38017e-05 1.92823e-05 0)
(1.98614e-05 1.28669e-05 0)
(9.742e-06 6.6762e-06 0)
(3.24691e-06 1.14348e-06 0)
(-5.69374e-08 -3.09835e-06 0)
(-9.21019e-07 -5.11004e-06 0)
(-3.19041e-07 -3.48659e-06 0)
(-9.273e-09 3.34544e-06 0)
(2.12464e-06 1.69318e-06 0)
(7.84986e-06 -5.98901e-06 0)
(1.79846e-05 -1.76416e-05 0)
(3.30527e-05 -3.17547e-05 0)
(5.3394e-05 -4.72176e-05 0)
(7.91705e-05 -6.32019e-05 0)
(0.000110382 -7.909e-05 0)
(0.000146892 -9.4425e-05 0)
(0.000188453 -0.000108871 0)
(0.000234731 -0.000122185 0)
(0.000285322 -0.000134193 0)
(0.000339768 -0.000144773 0)
(0.000397573 -0.000153848 0)
(0.000458213 -0.00016137 0)
(0.000521148 -0.000167318 0)
(0.000585824 -0.00017169 0)
(0.00065169 -0.000174503 0)
(0.000718194 -0.000175786 0)
(0.000784794 -0.000175578 0)
(0.000850961 -0.000173929 0)
(0.000916183 -0.000170898 0)
(0.000979966 -0.000166547 0)
(0.00104184 -0.000160947 0)
(0.00110136 -0.000154171 0)
(0.0011581 -0.000146299 0)
(0.00121167 -0.000137411 0)
(0.00126171 -0.000127591 0)
(0.00130789 -0.000116926 0)
(0.00134991 -0.000105504 0)
(0.0013875 -9.34129e-05 0)
(0.00142043 -8.07427e-05 0)
(0.00144849 -6.75835e-05 0)
(0.00147151 -5.40255e-05 0)
(0.00148936 -4.01588e-05 0)
(0.00150195 -2.6073e-05 0)
(0.00150919 -1.18571e-05 0)
(0.00151106 2.40079e-06 0)
(0.00150756 1.66133e-05 0)
(0.00149871 3.06942e-05 0)
(0.00148459 4.45584e-05 0)
(0.00146528 5.81221e-05 0)
(0.00144092 7.13027e-05 0)
(0.00141165 8.4019e-05 0)
(0.00137768 9.61912e-05 0)
(0.00133922 0.000107741 0)
(0.00129651 0.000118591 0)
(0.00124983 0.000128666 0)
(0.0011995 0.000137892 0)
(0.00114583 0.000146196 0)
(0.00108918 0.00015351 0)
(0.00102994 0.000159763 0)
(0.00096852 0.00016489 0)
(0.000905338 0.000168827 0)
(0.000840847 0.000171513 0)
(0.000775519 0.000172893 0)
(0.00070984 0.000172914 0)
(0.000644312 0.000171528 0)
(0.00057945 0.000168695 0)
(0.000515776 0.000164386 0)
(0.000453817 0.000158578 0)
(0.000394102 0.000151266 0)
(0.000337148 0.000142461 0)
(0.000283462 0.000132197 0)
(0.000233526 0.000120541 0)
(0.000187786 0.000107597 0)
(0.000146643 9.35219e-05 0)
(0.000110432 7.85418e-05 0)
(7.94068e-05 6.29749e-05 0)
(5.37157e-05 4.72609e-05 0)
(3.33766e-05 3.20009e-05 0)
(1.82498e-05 1.80089e-05 0)
(8.0224e-06 6.38388e-06 0)
(2.2027e-06 -1.37228e-06 0)
(3.0041e-10 -3.20351e-06 0)
(3.20576e-07 -2.74951e-07 0)
(5.66283e-06 -1.07359e-05 0)
(1.70763e-05 -2.85621e-05 0)
(3.50977e-05 -5.13822e-05 0)
(5.98405e-05 -7.735e-05 0)
(9.13898e-05 -0.000105022 0)
(0.000129741 -0.000133262 0)
(0.000174765 -0.000161175 0)
(0.000226212 -0.000188066 0)
(0.000283736 -0.0002134 0)
(0.000346901 -0.000236768 0)
(0.000415201 -0.000257866 0)
(0.000488076 -0.00027647 0)
(0.000564919 -0.000292425 0)
(0.000645089 -0.000305632 0)
(0.000727925 -0.000316034 0)
(0.000812751 -0.000323615 0)
(0.000898887 -0.000328388 0)
(0.000985652 -0.000330391 0)
(0.00107238 -0.000329688 0)
(0.0011584 -0.000326357 0)
(0.00124309 -0.000320496 0)
(0.00132583 -0.000312215 0)
(0.00140602 -0.000301634 0)
(0.00148311 -0.000288886 0)
(0.00155657 -0.000274109 0)
(0.00162589 -0.000257451 0)
(0.00169063 -0.000239064 0)
(0.00175036 -0.000219104 0)
(0.00180471 -0.000197733 0)
(0.00185332 -0.000175112 0)
(0.00189591 -0.000151408 0)
(0.00193221 -0.000126788 0)
(0.00196201 -0.000101417 0)
(0.00198513 -7.54642e-05 0)
(0.00200145 -4.90956e-05 0)
(0.00201087 -2.24776e-05 0)
(0.00201335 4.22521e-06 0)
(0.00200889 3.08494e-05 0)
(0.00199752 5.72336e-05 0)
(0.00197933 8.32183e-05 0)
(0.00195444 0.000108646 0)
(0.00192301 0.000133363 0)
(0.00188523 0.000157216 0)
(0.00184136 0.000180055 0)
(0.00179166 0.000201736 0)
(0.00173646 0.000222113 0)
(0.00167609 0.000241046 0)
(0.00161096 0.0002584 0)
(0.00154148 0.00027404 0)
(0.0014681 0.000287838 0)
(0.00139131 0.000299671 0)
(0.00131162 0.000309419 0)
(0.00122957 0.000316969 0)
(0.00114573 0.000322215 0)
(0.00106069 0.000325062 0)
(0.000975056 0.000325421 0)
(0.000889454 0.000323216 0)
(0.000804523 0.000318388 0)
(0.000720909 0.000310893 0)
(0.000639263 0.00030071 0)
(0.000560229 0.000287845 0)
(0.000484443 0.000272336 0)
(0.000412523 0.000254263 0)
(0.000345055 0.000233759 0)
(0.000282588 0.000211019 0)
(0.000225621 0.000186321 0)
(0.000174587 0.000160042 0)
(0.000129841 0.000132689 0)
(9.16416e-05 0.000104927 0)
(6.01386e-05 7.76223e-05 0)
(3.53611e-05 5.18879e-05 0)
(1.72556e-05 2.91464e-05 0)
(5.74658e-06 1.12291e-05 0)
(3.31037e-07 4.99314e-07 0)
(6.15177e-07 -7.41709e-06 0)
(9.10591e-06 -3.24658e-05 0)
(2.62335e-05 -6.51867e-05 0)
(5.22641e-05 -0.000103126 0)
(8.68746e-05 -0.000144282 0)
(0.000129845 -0.000187017 0)
(0.000180948 -0.000229986 0)
(0.00023987 -0.000272092 0)
(0.000306208 -0.000312448 0)
(0.000379476 -0.000350348 0)
(0.000459116 -0.000385234 0)
(0.000544511 -0.000416677 0)
(0.000634989 -0.000444353 0)
(0.000729836 -0.000468029 0)
(0.000828307 -0.000487546 0)
(0.000929635 -0.000502811 0)
(0.00103304 -0.000513787 0)
(0.00113773 -0.000520481 0)
(0.00124293 -0.000522943 0)
(0.00134787 -0.000521257 0)
(0.00145177 -0.000515536 0)
(0.0015539 -0.00050592 0)
(0.00165355 -0.00049257 0)
(0.00175004 -0.000475666 0)
(0.0018427 -0.000455407 0)
(0.00193093 -0.000432003 0)
(0.00201414 -0.000405676 0)
(0.00209181 -0.000376659 0)
(0.00216344 -0.000345193 0)
(0.00222859 -0.000311525 0)
(0.00228686 -0.000275906 0)
(0.00233789 -0.000238592 0)
(0.00238139 -0.000199841 0)
(0.00241709 -0.000159914 0)
(0.0024448 -0.00011907 0)
(0.00246437 -7.75705e-05 0)
(0.00247568 -3.56737e-05 0)
(0.00247868 6.36225e-06 0)
(0.00247338 4.82819e-05 0)
(0.0024598 8.98322e-05 0)
(0.00243806 0.000130764 0)
(0.00240828 0.000170829 0)
(0.00237066 0.000209787 0)
(0.00232543 0.000247399 0)
(0.00227288 0.00028343 0)
(0.00221333 0.000317652 0)
(0.00214714 0.000349841 0)
(0.00207474 0.000379779 0)
(0.00199656 0.000407254 0)
(0.00191312 0.000432059 0)
(0.00182493 0.000453998 0)
(0.00173256 0.000472881 0)
(0.00163661 0.000488527 0)
(0.00153771 0.000500768 0)
(0.00143652 0.000509446 0)
(0.00133372 0.000514418 0)
(0.00123003 0.00051556 0)
(0.00112616 0.000512766 0)
(0.00102286 0.000505954 0)
(0.000920866 0.000495071 0)
(0.000820934 0.000480098 0)
(0.00072381 0.000461056 0)
(0.000630228 0.000438016 0)
(0.000540906 0.000411106 0)
(0.000456534 0.000380526 0)
(0.000377765 0.000346563 0)
(0.000305208 0.000309604 0)
(0.000239415 0.000270163 0)
(0.000180876 0.000228902 0)
(0.000130005 0.000186665 0)
(8.71362e-05 0.000144507 0)
(5.2523e-05 0.000103734 0)
(2.64212e-05 6.59514e-05 0)
(9.19786e-06 3.31377e-05 0)
(6.27533e-07 7.73125e-06 0)
(8.75087e-07 -1.78386e-05 0)
(1.2313e-05 -6.31065e-05 0)
(3.49117e-05 -0.000115515 0)
(6.87133e-05 -0.000172638 0)
(0.000112988 -0.000232423 0)
(0.000167211 -0.000293134 0)
(0.000230913 -0.000353301 0)
(0.000303574 -0.000411689 0)
(0.000384606 -0.000467274 0)
(0.000473362 -0.000519217 0)
(0.00056914 -0.000566842 0)
(0.00067119 -0.000609614 0)
(0.000778722 -0.000647123 0)
(0.000890907 -0.000679067 0)
(0.0010069 -0.000705236 0)
(0.00112582 -0.000725505 0)
(0.00124679 -0.000739818 0)
(0.00136894 -0.000748182 0)
(0.00149139 -0.000750659 0)
(0.00161326 -0.000747359 0)
(0.00173372 -0.000738432 0)
(0.00185194 -0.000724067 0)
(0.00196712 -0.000704483 0)
(0.0020785 -0.000679926 0)
(0.00218535 -0.000650667 0)
(0.002287 -0.000616996 0)
(0.00238279 -0.000579221 0)
(0.00247214 -0.000537666 0)
(0.00255448 -0.000492664 0)
(0.00262934 -0.00044456 0)
(0.00269626 -0.000393707 0)
(0.00275484 -0.000340462 0)
(0.00280476 -0.000285188 0)
(0.00284572 -0.000228249 0)
(0.00287751 -0.000170012 0)
(0.00289994 -0.000110843 0)
(0.0029129 -5.11087e-05 0)
(0.00291634 8.82832e-06 0)
(0.00291023 6.86069e-05 0)
(0.00289465 0.00012787 0)
(0.00286968 0.000186264 0)
(0.00283549 0.00024344 0)
(0.00279229 0.000299057 0)
(0.00274035 0.000352777 0)
(0.00267997 0.00040427 0)
(0.00261152 0.000453213 0)
(0.00253541 0.000499291 0)
(0.00245211 0.000542197 0)
(0.00236213 0.000581633 0)
(0.002266 0.000617312 0)
(0.00216433 0.000648959 0)
(0.00205774 0.00067631 0)
(0.00194691 0.000699117 0)
(0.00183253 0.000717146 0)
(0.00171535 0.000730185 0)
(0.00159613 0.000738041 0)
(0.00147565 0.000740546 0)
(0.00135472 0.000737562 0)
(0.00123417 0.000728984 0)
(0.00111483 0.000714745 0)
(0.000997545 0.000694826 0)
(0.000883151 0.000669261 0)
(0.000772479 0.000638147 0)
(0.000666348 0.000601655 0)
(0.000565555 0.000560043 0)
(0.000470868 0.000513672 0)
(0.000383021 0.000463018 0)
(0.000302706 0.000408701 0)
(0.000230572 0.000351498 0)
(0.000167215 0.000292371 0)
(0.000113175 0.000232498 0)
(6.89486e-05 0.000173293 0)
(3.51012e-05 0.000116445 0)
(1.24128e-05 6.39644e-05 0)
(8.89849e-07 1.8253e-05 0)
(1.10638e-06 -3.12743e-05 0)
(1.52853e-05 -0.000102114 0)
(4.30604e-05 -0.000178901 0)
(8.42983e-05 -0.00025927 0)
(0.000137907 -0.000341173 0)
(0.000203075 -0.000422831 0)
(0.000279096 -0.000502705 0)
(0.000365234 -0.000579475 0)
(0.000460704 -0.000652023 0)
(0.000564684 -0.000719418 0)
(0.000676311 -0.000780897 0)
(0.000794692 -0.000835849 0)
(0.0009189 -0.000883798 0)
(0.00104799 -0.000924391 0)
(0.001181 -0.000957382 0)
(0.00131694 -0.000982622 0)
(0.00145486 -0.00100005 0)
(0.00159376 -0.00100968 0)
(0.00173268 -0.00101159 0)
(0.00187068 -0.00100593 0)
(0.00200683 -0.000992898 0)
(0.00214023 -0.000972726 0)
(0.00227001 -0.000945704 0)
(0.00239535 -0.000912152 0)
(0.00251546 -0.000872421 0)
(0.00262959 -0.00082689 0)
(0.00273704 -0.00077596 0)
(0.00283718 -0.000720053 0)
(0.0029294 -0.000659608 0)
(0.00301318 -0.000595074 0)
(0.00308802 -0.000526915 0)
(0.00315351 -0.0004556 0)
(0.00320927 -0.000381606 0)
(0.003255 -0.000305413 0)
(0.00329046 -0.000227504 0)
(0.00331546 -0.000148361 0)
(0.00332987 -6.84669e-05 0)
(0.00333364 1.16982e-05 0)
(0.00332674 9.16579e-05 0)
(0.00330925 0.00017094 0)
(0.00328127 0.000249078 0)
(0.00324297 0.000325612 0)
(0.00319459 0.000400088 0)
(0.00313641 0.000472061 0)
(0.00306877 0.000541096 0)
(0.00299208 0.000606766 0)
(0.00290677 0.000668656 0)
(0.00281336 0.00072636 0)
(0.00271238 0.000779489 0)
(0.00260445 0.000827665 0)
(0.00249019 0.000870527 0)
(0.00237031 0.000907732 0)
(0.00224552 0.000938954 0)
(0.00211659 0.000963893 0)
(0.00198432 0.000982271 0)
(0.00184954 0.000993841 0)
(0.00171312 0.000998388 0)
(0.00157593 0.000995733 0)
(0.00143889 0.000985743 0)
(0.00130289 0.000968332 0)
(0.00116888 0.000943472 0)
(0.00103778 0.000911201 0)
(0.00091053 0.000871631 0)
(0.000788041 0.000824962 0)
(0.00067123 0.000771493 0)
(0.00056099 0.000711634 0)
(0.000458191 0.000645927 0)
(0.000363682 0.000575058 0)
(0.00027828 0.000499878 0)
(0.000202776 0.000421424 0)
(0.000137922 0.000340934 0)
(8.44538e-05 0.000259873 0)
(4.3225e-05 0.000179948 0)
(1.53845e-05 0.00010315 0)
(1.12329e-06 3.17968e-05 0)
(1.31747e-06 -4.75046e-05 0)
(1.80733e-05 -0.000148994 0)
(5.07726e-05 -0.000254706 0)
(9.91438e-05 -0.000362338 0)
(0.000161771 -0.000469858 0)
(0.000237581 -0.000575474 0)
(0.000325636 -0.000677613 0)
(0.000424989 -0.000774904 0)
(0.000534656 -0.000866174 0)
(0.000653628 -0.000950433 0)
(0.000780876 -0.00102686 0)
(0.000915348 -0.0010948 0)
(0.00105598 -0.00115373 0)
(0.00120169 -0.00120327 0)
(0.0013514 -0.00124315 0)
(0.00150401 -0.00127323 0)
(0.00165846 -0.00129345 0)
(0.00181367 -0.00130384 0)
(0.00196859 -0.00130452 0)
(0.00212219 -0.00129567 0)
(0.00227347 -0.00127754 0)
(0.00242146 -0.00125044 0)
(0.00256523 -0.00121474 0)
(0.00270389 -0.00117083 0)
(0.0028366 -0.00111915 0)
(0.00296257 -0.00106017 0)
(0.00308105 -0.000994414 0)
(0.00319135 -0.000922396 0)
(0.00329285 -0.000844669 0)
(0.00338498 -0.000761799 0)
(0.00346721 -0.000674366 0)
(0.00353911 -0.000582961 0)
(0.00360029 -0.000488184 0)
(0.00365041 -0.000390637 0)
(0.00368924 -0.000290928 0)
(0.00371655 -0.000189666 0)
(0.00373224 -8.74561e-05 0)
(0.00373622 1.50954e-05 0)
(0.0037285 0.000117389 0)
(0.00370913 0.000218828 0)
(0.00367825 0.000318826 0)
(0.00363602 0.000416802 0)
(0.00358271 0.000512185 0)
(0.00351861 0.000604413 0)
(0.00344409 0.000692938 0)
(0.00335957 0.000777221 0)
(0.00326554 0.000856739 0)
(0.00316253 0.000930984 0)
(0.00305112 0.000999464 0)
(0.00293195 0.0010617 0)
(0.00280571 0.00111725 0)
(0.00267313 0.00116568 0)
(0.002535 0.00120657 0)
(0.00239212 0.00123955 0)
(0.00224536 0.00126428 0)
(0.00209562 0.00128045 0)
(0.00194381 0.00128778 0)
(0.0017909 0.00128604 0)
(0.00163785 0.00127508 0)
(0.00148567 0.00125476 0)
(0.00133538 0.00122505 0)
(0.00118798 0.00118597 0)
(0.00104452 0.00113764 0)
(0.000906037 0.00108026 0)
(0.000773551 0.00101415 0)
(0.000648093 0.000939751 0)
(0.00053068 0.000857633 0)
(0.00042232 0.000768522 0)
(0.000324009 0.000673304 0)
(0.00023673 0.00057305 0)
(0.000161445 0.000469023 0)
(9.91149e-05 0.000362695 0)
(5.0859e-05 0.00025576 0)
(1.81533e-05 0.000150161 0)
(1.33522e-06 4.81302e-05 0)
(1.51633e-06 -6.63747e-05 0)
(2.07404e-05 -0.00020338 0)
(5.81889e-05 -0.000342439 0)
(0.000113476 -0.000481289 0)
(0.000184889 -0.000617915 0)
(0.000271109 -0.000750522 0)
(0.000370981 -0.000877521 0)
(0.000483348 -0.000997516 0)
(0.000607028 -0.0011093 0)
(0.000740823 -0.00121186 0)
(0.000883529 -0.00130434 0)
(0.00103393 -0.00138606 0)
(0.00119082 -0.00145649 0)
(0.00135297 -0.00151523 0)
(0.00151918 -0.00156204 0)
(0.00168824 -0.00159676 0)
(0.00185897 -0.00161937 0)
(0.00203021 -0.00162995 0)
(0.00220081 -0.00162864 0)
(0.00236966 -0.0016157 0)
(0.00253569 -0.00159144 0)
(0.00269787 -0.00155625 0)
(0.0028552 -0.00151058 0)
(0.00300674 -0.00145491 0)
(0.0031516 -0.00138978 0)
(0.00328893 -0.00131579 0)
(0.00341797 -0.00123353 0)
(0.00353798 -0.00114367 0)
(0.0036483 -0.00104686 0)
(0.00374834 -0.000943796 0)
(0.00383756 -0.000835187 0)
(0.0039155 -0.000721749 0)
(0.00398174 -0.000604211 0)
(0.00403596 -0.000483308 0)
(0.00407788 -0.000359779 0)
(0.0041073 -0.000234362 0)
(0.0041241 -0.000107797 0)
(0.00412819 1.91792e-05 0)
(0.00411958 0.000145837 0)
(0.00409834 0.000271452 0)
(0.00406459 0.000395307 0)
(0.00401854 0.000516696 0)
(0.00396044 0.000634923 0)
(0.00389061 0.000749304 0)
(0.00380945 0.000859171 0)
(0.00371739 0.000963868 0)
(0.00361495 0.00106276 0)
(0.00350267 0.00115522 0)
(0.00338119 0.00124066 0)
(0.00325118 0.00131849 0)
(0.00311335 0.00138817 0)
(0.00296849 0.00144917 0)
(0.00281743 0.00150099 0)
(0.00266102 0.00154317 0)
(0.00250018 0.00157528 0)
(0.00233586 0.00159695 0)
(0.00216905 0.00160784 0)
(0.00200077 0.00160766 0)
(0.00183208 0.0015962 0)
(0.00166404 0.0015733 0)
(0.00149777 0.00153887 0)
(0.00133439 0.00149291 0)
(0.00117502 0.00143553 0)
(0.00102083 0.00136691 0)
(0.000872957 0.00128738 0)
(0.000732577 0.00119738 0)
(0.000600853 0.00109747 0)
(0.000478959 0.000988401 0)
(0.000368066 0.000871057 0)
(0.000269349 0.000746514 0)
(0.000183971 0.000616032 0)
(0.000113105 0.000481066 0)
(5.81147e-05 0.000343279 0)
(2.07709e-05 0.000204565 0)
(1.53248e-06 6.70749e-05 0)
(1.7097e-06 -8.77957e-05 0)
(2.33478e-05 -0.000265052 0)
(6.5454e-05 -0.000441794 0)
(0.000127539 -0.000615773 0)
(0.00020761 -0.00078498 0)
(0.00030411 -0.00094762 0)
(0.000415675 -0.0011021 0)
(0.000540942 -0.001247 0)
(0.000678527 -0.00138113 0)
(0.000827045 -0.00150344 0)
(0.000985112 -0.00161308 0)
(0.00115135 -0.00170938 0)
(0.00132438 -0.00179181 0)
(0.00150286 -0.00186 0)
(0.00168544 -0.0019137 0)
(0.00187079 -0.00195283 0)
(0.00205763 -0.00197739 0)
(0.00224469 -0.00198752 0)
(0.00243073 -0.00198343 0)
(0.00261458 -0.00196544 0)
(0.00279508 -0.00193396 0)
(0.00297113 -0.00188946 0)
(0.00314169 -0.00183248 0)
(0.00330576 -0.00176363 0)
(0.0034624 -0.00168354 0)
(0.00361073 -0.00159292 0)
(0.00374995 -0.00149251 0)
(0.00387929 -0.00138307 0)
(0.00399807 -0.0012654 0)
(0.00410567 -0.00114032 0)
(0.00420153 -0.00100868 0)
(0.00428518 -0.000871316 0)
(0.0043562 -0.000729104 0)
(0.00441425 -0.000582911 0)
(0.00445904 -0.000433616 0)
(0.00449038 -0.000282093 0)
(0.00450812 -0.00012922 0)
(0.00451221 2.41309e-05 0)
(0.00450264 0.000177094 0)
(0.00447949 0.00032881 0)
(0.0044429 0.00047843 0)
(0.00439307 0.000625116 0)
(0.00433028 0.000768042 0)
(0.00425486 0.000906398 0)
(0.00416721 0.00103939 0)
(0.0040678 0.00116624 0)
(0.00395716 0.00128619 0)
(0.00383588 0.0013985 0)
(0.00370459 0.00150246 0)
(0.00356401 0.00159739 0)
(0.00341489 0.00168263 0)
(0.00325805 0.00175754 0)
(0.00309435 0.00182154 0)
(0.00292471 0.00187406 0)
(0.00275008 0.00191461 0)
(0.00257148 0.00194271 0)
(0.00238995 0.00195796 0)
(0.00220659 0.00196 0)
(0.00202251 0.00194854 0)
(0.00183888 0.00192337 0)
(0.0016569 0.00188437 0)
(0.00147776 0.00183148 0)
(0.00130273 0.00176477 0)
(0.00113307 0.0016844 0)
(0.000970059 0.00159066 0)
(0.000815006 0.00148396 0)
(0.00066923 0.00136487 0)
(0.000534065 0.0012341 0)
(0.000410861 0.00109253 0)
(0.000300978 0.000941203 0)
(0.000205771 0.000781366 0)
(0.000126618 0.000614441 0)
(6.51074e-05 0.000442052 0)
(2.32871e-05 0.000266043 0)
(1.72073e-06 8.85067e-05 0)
(1.9031e-06 -0.000111737 0)
(2.59489e-05 -0.00033393 0)
(7.26979e-05 -0.000552652 0)
(0.00014156 -0.000765647 0)
(0.000230261 -0.000970901 0)
(0.000337013 -0.00116662 0)
(0.000460239 -0.00135119 0)
(0.000598372 -0.00152323 0)
(0.000749828 -0.00168151 0)
(0.000913029 -0.00182503 0)
(0.00108641 -0.00195295 0)
(0.00126842 -0.00206461 0)
(0.00145753 -0.00215952 0)
(0.00165224 -0.00223735 0)
(0.00185107 -0.00229791 0)
(0.00205258 -0.00234115 0)
(0.00225536 -0.00236717 0)
(0.00245805 -0.00237616 0)
(0.00265932 -0.00236844 0)
(0.00285792 -0.0023444 0)
(0.00305262 -0.00230456 0)
(0.00324225 -0.00224948 0)
(0.00342572 -0.00217983 0)
(0.00360199 -0.00209633 0)
(0.00377007 -0.00199974 0)
(0.00392905 -0.00189089 0)
(0.00407809 -0.00177064 0)
(0.00421641 -0.00163991 0)
(0.0043433 -0.00149962 0)
(0.00445812 -0.00135073 0)
(0.00456031 -0.00119422 0)
(0.00464938 -0.00103109 0)
(0.0047249 -0.000862335 0)
(0.00478652 -0.000688978 0)
(0.00483397 -0.000512035 0)
(0.00486703 -0.000332524 0)
(0.00488558 -0.000151462 0)
(0.00488956 3.01383e-05 0)
(0.00487896 0.000211271 0)
(0.00485387 0.000390939 0)
(0.00481444 0.000568156 0)
(0.00476088 0.000741949 0)
(0.00469346 0.000911359 0)
(0.00461256 0.00107545 0)
(0.00451857 0.00123328 0)
(0.00441198 0.00138397 0)
(0.00429334 0.00152661 0)
(0.00416326 0.00166037 0)
(0.0040224 0.0017844 0)
(0.0038715 0.0018979 0)
(0.00371135 0.0020001 0)
(0.00354279 0.00209026 0)
(0.00336672 0.00216768 0)
(0.00318411 0.00223171 0)
(0.00299597 0.00228175 0)
(0.00280334 0.00231722 0)
(0.00260735 0.00233763 0)
(0.00240915 0.00234255 0)
(0.00220993 0.00233162 0)
(0.00201094 0.00230454 0)
(0.00181345 0.00226111 0)
(0.00161879 0.00220124 0)
(0.00142831 0.00212492 0)
(0.00124339 0.00203226 0)
(0.00106546 0.00192351 0)
(0.000895943 0.00179904 0)
(0.000736326 0.00165936 0)
(0.000588102 0.00150514 0)
(0.000452795 0.00133724 0)
(0.000331946 0.00115666 0)
(0.0002271 0.000964593 0)
(0.000139829 0.000762437 0)
(7.194e-05 0.000551769 0)
(2.57443e-05 0.000334391 0)
(1.90442e-06 0.000112348 0)
(2.10091e-06 -0.000138217 0)
(2.85867e-05 -0.000410049 0)
(8.00266e-05 -0.000675056 0)
(0.000155721 -0.000930956 0)
(0.00025311 -0.00117572 0)
(0.000370166 -0.00140754 0)
(0.000505097 -0.00162483 0)
(0.000656126 -0.00182619 0)
(0.000821466 -0.00201045 0)
(0.000999344 -0.00217661 0)
(0.00118801 -0.00232387 0)
(0.00138574 -0.00245163 0)
(0.00159084 -0.00255946 0)
(0.00180167 -0.00264708 0)
(0.00201661 -0.00271439 0)
(0.0022341 -0.00276142 0)
(0.00245261 -0.00278834 0)
(0.00267069 -0.00279546 0)
(0.00288693 -0.00278318 0)
(0.00309998 -0.00275204 0)
(0.00330855 -0.00270264 0)
(0.00351142 -0.00263569 0)
(0.00370744 -0.00255197 0)
(0.00389552 -0.00245232 0)
(0.00407466 -0.00233767 0)
(0.00424389 -0.00220897 0)
(0.00440237 -0.00206722 0)
(0.00454928 -0.00191348 0)
(0.0046839 -0.00174883 0)
(0.00480559 -0.00157435 0)
(0.00491377 -0.00139119 0)
(0.00500794 -0.00120049 0)
(0.00508767 -0.00100339 0)
(0.00515263 -0.000801051 0)
(0.00520251 -0.000594644 0)
(0.00523713 -0.000385331 0)
(0.00525636 -0.000174273 0)
(0.00526012 3.73752e-05 0)
(0.00524844 0.000248465 0)
(0.00522139 0.000457859 0)
(0.00517914 0.000664431 0)
(0.00512191 0.000867072 0)
(0.00504998 0.00106468 0)
(0.00496372 0.00125619 0)
(0.00486356 0.00144054 0)
(0.00474999 0.00161669 0)
(0.00462357 0.00178363 0)
(0.00448494 0.00194038 0)
(0.00433477 0.00208598 0)
(0.00417383 0.00221951 0)
(0.00400293 0.00234006 0)
(0.00382294 0.00244679 0)
(0.00363481 0.00253889 0)
(0.00343953 0.00261559 0)
(0.00323816 0.00267616 0)
(0.0030318 0.00271995 0)
(0.00282163 0.00274636 0)
(0.00260886 0.00275485 0)
(0.00239476 0.00274497 0)
(0.00218066 0.00271633 0)
(0.00196792 0.00266866 0)
(0.00175797 0.00260176 0)
(0.00155226 0.00251557 0)
(0.0013523 0.00241011 0)
(0.00115963 0.00228556 0)
(0.00097585 0.00214222 0)
(0.000802571 0.00198055 0)
(0.000641457 0.00180117 0)
(0.000494203 0.00160485 0)
(0.00036253 0.00139255 0)
(0.000248169 0.00116543 0)
(0.000152884 0.000924814 0)
(7.86952e-05 0.000672249 0)
(2.8176e-05 0.000409494 0)
(2.08695e-06 0.000138561 0)
(2.3065e-06 -0.000167292 0)
(3.12937e-05 -0.000493538 0)
(8.75183e-05 -0.000809175 0)
(0.000170158 -0.00111188 0)
(0.000276348 -0.00139961 0)
(0.000403811 -0.00167055 0)
(0.00055053 -0.00192313 0)
(0.000714513 -0.00215598 0)
(0.000893763 -0.00236796 0)
(0.00108631 -0.00255813 0)
(0.0012902 -0.00272575 0)
(0.00150356 -0.00287029 0)
(0.00172452 -0.0029914 0)
(0.00195128 -0.00308889 0)
(0.0021821 -0.00316277 0)
(0.00241529 -0.00321316 0)
(0.00264923 -0.00324037 0)
(0.00288235 -0.0032448 0)
(0.00311315 -0.00322701 0)
(0.00334023 -0.00318764 0)
(0.00356223 -0.00312745 0)
(0.00377788 -0.00304728 0)
(0.00398597 -0.00294805 0)
(0.00418538 -0.00283077 0)
(0.00437508 -0.00269648 0)
(0.00455408 -0.00254631 0)
(0.00472151 -0.00238141 0)
(0.00487654 -0.00220298 0)
(0.00501846 -0.00201225 0)
(0.0051466 -0.00181047 0)
(0.00526038 -0.00159892 0)
(0.00535931 -0.0013789 0)
(0.00544295 -0.00115171 0)
(0.00551096 -0.000918656 0)
(0.00556307 -0.000681052 0)
(0.00559907 -0.000440208 0)
(0.00561884 -0.000197432 0)
(0.00562232 4.59754e-05 0)
(0.00560953 0.000288723 0)
(0.00558056 0.000529531 0)
(0.00553556 0.000767133 0)
(0.00547478 0.00100028 0)
(0.0053985 0.00122774 0)
(0.00530709 0.00144829 0)
(0.005201 0.00166075 0)
(0.00508073 0.00186394 0)
(0.00494684 0.00205672 0)
(0.00479998 0.00223798 0)
(0.00464086 0.00240662 0)
(0.00447025 0.00256159 0)
(0.00428898 0.00270187 0)
(0.00409795 0.00282649 0)
(0.00389815 0.0029345 0)
(0.00369059 0.00302502 0)
(0.00347638 0.00309721 0)
(0.00325667 0.00315028 0)
(0.00303268 0.00318352 0)
(0.0028057 0.00319629 0)
(0.00257706 0.00318802 0)
(0.00234817 0.00315822 0)
(0.00212048 0.0031065 0)
(0.00189551 0.00303257 0)
(0.00167483 0.00293627 0)
(0.00146006 0.00281752 0)
(0.00125289 0.00267641 0)
(0.00105503 0.00251317 0)
(0.000868256 0.00232815 0)
(0.0006944 0.00212189 0)
(0.000535323 0.0018951 0)
(0.000392929 0.00164868 0)
(0.000269132 0.0013837 0)
(0.000165887 0.00110145 0)
(8.54334e-05 0.000803408 0)
(3.06068e-05 0.000491308 0)
(2.27077e-06 0.000167136 0)
(2.52229e-06 -0.000199044 0)
(3.40902e-05 -0.000584587 0)
(9.52196e-05 -0.000955257 0)
(0.000184944 -0.00130869 0)
(0.000300073 -0.00164283 0)
(0.000438058 -0.00195586 0)
(0.000596649 -0.00224625 0)
(0.000773623 -0.00251268 0)
(0.000966767 -0.00275404 0)
(0.0011739 -0.00296949 0)
(0.0013929 -0.00315838 0)
(0.00162168 -0.00332027 0)
(0.00185823 -0.00345492 0)
(0.00210061 -0.00356226 0)
(0.00234693 -0.00364242 0)
(0.00259539 -0.00369568 0)
(0.00284426 -0.00372245 0)
(0.00309188 -0.00372332 0)
(0.00333669 -0.00369896 0)
(0.0035772 -0.0036502 0)
(0.003812 -0.00357793 0)
(0.00403977 -0.00348316 0)
(0.00425927 -0.00336698 0)
(0.00446936 -0.00323054 0)
(0.00466896 -0.00307507 0)
(0.0048571 -0.00290183 0)
(0.00503286 -0.00271216 0)
(0.00519544 -0.00250739 0)
(0.0053441 -0.00228894 0)
(0.00547818 -0.0020582 0)
(0.00559711 -0.00181661 0)
(0.00570038 -0.00156563 0)
(0.00578758 -0.0013067 0)
(0.00585837 -0.00104129 0)
(0.00591247 -0.000770861 0)
(0.00594968 -0.000496868 0)
(0.0059699 -0.000220766 0)
(0.00597306 5.59991e-05 0)
(0.00595919 0.000331993 0)
(0.00592839 0.000605794 0)
(0.00588081 0.000875995 0)
(0.00581668 0.00114121 0)
(0.00573632 0.00140005 0)
(0.00564009 0.00165119 0)
(0.00552844 0.00189328 0)
(0.00540187 0.00212502 0)
(0.00526096 0.00234512 0)
(0.00510636 0.00255235 0)
(0.00493878 0.00274546 0)
(0.00475902 0.00292328 0)
(0.00456792 0.00308465 0)
(0.0043664 0.00322845 0)
(0.00415547 0.00335362 0)
(0.00393618 0.00345913 0)
(0.00370966 0.00354401 0)
(0.00347712 0.00360735 0)
(0.00323983 0.0036483 0)
(0.00299911 0.0036661 0)
(0.0027564 0.00366003 0)
(0.00251314 0.0036295 0)
(0.00227091 0.00357398 0)
(0.00203129 0.00349307 0)
(0.00179598 0.00338647 0)
(0.0015667 0.003254 0)
(0.00134528 0.00309564 0)
(0.00113357 0.00291149 0)
(0.000933504 0.00270181 0)
(0.000747062 0.00246704 0)
(0.000576284 0.0022078 0)
(0.000423255 0.00192489 0)
(0.000290078 0.00161931 0)
(0.000178904 0.00129228 0)
(9.2193e-05 0.000945228 0)
(3.30524e-05 0.000579841 0)
(2.45753e-06 0.000198081 0)
(2.74978e-06 -0.000233572 0)
(3.69845e-05 -0.000683416 0)
(0.000103143 -0.00111358 0)
(0.00020009 -0.00152167 0)
(0.000324277 -0.00190562 0)
(0.000472868 -0.00226366 0)
(0.000643357 -0.00259428 0)
(0.000833283 -0.00289624 0)
(0.00104021 -0.00316853 0)
(0.00126173 -0.0034104 0)
(0.00149554 -0.00362131 0)
(0.00173939 -0.00380097 0)
(0.00199108 -0.00394927 0)
(0.00224854 -0.0040663 0)
(0.00250975 -0.00415234 0)
(0.00277281 -0.00420783 0)
(0.00303587 -0.00423336 0)
(0.00329721 -0.00422968 0)
(0.00355519 -0.00419765 0)
(0.00380826 -0.00413825 0)
(0.00405497 -0.00405259 0)