/*--------------------------------*- C++ -*----------------------------------*\
  =========                 |
  \\      /  F ield         | OpenFOAM: The Open Source CFD Toolbox
   \\    /   O peration     | Website:  https://openfoam.org
    \\  /    A nd           | Version:  12
     \\/     M anipulation  |
\*---------------------------------------------------------------------------*/
FoamFile
{
    format      ascii;
    class       volScalarField;
    location    "2";
    object      epsilon;
}
// * * * * * * * * * * * * * * * * * * * * * * * * * * * * * * * * * * * * * //

dimensions      [0 2 -3 0 0 0 0];

internalField   nonuniform List<scalar> 
5625
(
3.44366e-07
2.32749e-06
5.16072e-06
8.49247e-06
1.21414e-05
1.5982e-05
1.99165e-05
2.38663e-05
2.77676e-05
3.15708e-05
3.52391e-05
3.87481e-05
4.20854e-05
4.52495e-05
4.82483e-05
5.1098e-05
5.38212e-05
5.64452e-05
5.90001e-05
6.15175e-05
6.40293e-05
6.6566e-05
6.91568e-05
7.18287e-05
7.4606e-05
7.75106e-05
8.05622e-05
8.37776e-05
8.7172e-05
9.07582e-05
9.45471e-05
9.85478e-05
0.000102768
0.000107212
0.000111884
0.000116784
0.000121911
0.00012726
0.000132822
0.000138583
0.000144523
0.000150617
0.000156831
0.000163119
0.000169426
0.000175684
0.00018181
0.000187701
0.000193242
0.000198294
0.000202703
0.00020629
0.000208846
0.000210099
0.00021017
0.000208686
0.000205461
0.000200383
0.000193396
0.000184515
0.00017383
0.000161515
0.000147829
0.000133102
0.000117718
0.000102087
8.66124e-05
7.16649e-05
5.75542e-05
4.45163e-05
3.27139e-05
2.22569e-05
1.32501e-05
5.90338e-06
8.71154e-07
6.50548e-07
1.26421e-06
2.52442e-06
4.06501e-06
5.76927e-06
7.57016e-06
9.41895e-06
1.12773e-05
1.31148e-05
1.49075e-05
1.66379e-05
1.82943e-05
1.98708e-05
2.13665e-05
2.27851e-05
2.4134e-05
2.54238e-05
2.66674e-05
2.78788e-05
2.9073e-05
3.02649e-05
3.1469e-05
3.26991e-05
3.39679e-05
3.52871e-05
3.6667e-05
3.8117e-05
3.96451e-05
4.12586e-05
4.29637e-05
4.47655e-05
4.66684e-05
4.86759e-05
5.07906e-05
5.3014e-05
5.53464e-05
5.7787e-05
6.03331e-05
6.29803e-05
6.57218e-05
6.8548e-05
7.14459e-05
7.43988e-05
7.73847e-05
8.03766e-05
8.3341e-05
8.62372e-05
8.90167e-05
9.16227e-05
9.39897e-05
9.60434e-05
9.76998e-05
9.88589e-05
9.94025e-05
9.93764e-05
9.8614e-05
9.70314e-05
9.45785e-05
9.12333e-05
8.70054e-05
8.19404e-05
7.61223e-05
6.96725e-05
6.27452e-05
5.55177e-05
4.81791e-05
4.09156e-05
3.3898e-05
2.72699e-05
2.11428e-05
1.55967e-05
1.06923e-05
6.50312e-06
3.21263e-06
1.64477e-06
1.381e-06
1.23095e-06
1.9441e-06
2.94072e-06
4.08126e-06
5.30256e-06
6.56484e-06
7.83895e-06
9.10244e-06
1.03381e-05
1.15332e-05
1.26795e-05
1.37725e-05
1.48114e-05
1.57984e-05
1.67387e-05
1.76395e-05
1.85094e-05
1.93582e-05
2.01962e-05
2.10337e-05
2.18809e-05
2.27474e-05
2.36421e-05
2.45731e-05
2.5548e-05
2.65731e-05
2.76545e-05
2.87972e-05
3.00056e-05
3.12836e-05
3.26342e-05
3.40599e-05
3.55626e-05
3.71432e-05
3.88019e-05
4.05377e-05
4.23484e-05
4.42305e-05
4.61784e-05
4.81847e-05
5.02391e-05
5.23286e-05
5.44365e-05
5.65423e-05
5.86207e-05
6.06417e-05
6.25696e-05
6.43633e-05
6.5976e-05
6.73553e-05
6.84435e-05
6.91651e-05
6.94596e-05
6.93431e-05
6.87094e-05
6.75085e-05
6.5711e-05
6.33075e-05
6.031e-05
5.6754e-05
5.26997e-05
4.82309e-05
4.34517e-05
3.84806e-05
3.34425e-05
2.84607e-05
2.36484e-05
1.91027e-05
1.49019e-05
1.11087e-05
7.78411e-06
5.02794e-06
3.12514e-06
3.48306e-06
2.25734e-06
1.4744e-06
1.83743e-06
2.53381e-06
3.38586e-06
4.32202e-06
5.30221e-06
6.2994e-06
7.29375e-06
8.27039e-06
9.21852e-06
1.0131e-05
1.10038e-05
1.18359e-05
1.26292e-05
1.33872e-05
1.41156e-05
1.48213e-05
1.5512e-05
1.61959e-05
1.68812e-05
1.75761e-05
1.82884e-05
1.90254e-05
1.97939e-05
2.05998e-05
2.14488e-05
2.23456e-05
2.32945e-05
2.42994e-05
2.53633e-05
2.64889e-05
2.76782e-05
2.89326e-05
3.02527e-05
3.16383e-05
3.30882e-05
3.46001e-05
3.61702e-05
3.7793e-05
3.94612e-05
4.11651e-05
4.28924e-05
4.46278e-05
4.63526e-05
4.80446e-05
4.96774e-05
5.12206e-05
5.26397e-05
5.38963e-05
5.49482e-05
5.575e-05
5.62315e-05
5.63784e-05
5.6178e-05
5.55586e-05
5.44873e-05
5.29466e-05
5.09338e-05
4.8463e-05
4.55656e-05
4.22912e-05
3.87061e-05
3.48912e-05
3.09376e-05
2.69407e-05
2.29946e-05
1.91868e-05
1.55941e-05
1.22825e-05
9.31296e-06
6.75935e-06
4.76252e-06
3.72769e-06
5.66924e-06
3.25204e-06
1.85159e-06
1.93356e-06
2.41523e-06
3.07619e-06
3.83257e-06
4.64059e-06
5.47258e-06
6.30913e-06
7.13608e-06
7.94325e-06
8.72382e-06
9.47393e-06
1.01924e-05
1.08802e-05
1.15406e-05
1.2178e-05
1.27982e-05
1.34079e-05
1.40141e-05
1.4624e-05
1.52446e-05
1.58828e-05
1.6545e-05
1.72373e-05
1.79651e-05
1.87334e-05
1.95465e-05
2.04084e-05
2.13224e-05
2.22914e-05
2.33177e-05
2.44029e-05
2.55481e-05
2.67535e-05
2.80185e-05
2.93413e-05
3.07191e-05
3.21474e-05
3.36202e-05
3.51296e-05
3.66654e-05
3.82151e-05
3.97634e-05
4.12922e-05
4.27801e-05
4.42028e-05
4.55327e-05
4.67393e-05
4.77893e-05
4.86473e-05
4.92742e-05
4.96013e-05
4.96536e-05
4.93894e-05
4.87623e-05
4.77487e-05
4.63372e-05
4.45282e-05
4.23357e-05
3.97881e-05
3.69279e-05
3.38116e-05
3.05076e-05
2.70924e-05
2.36466e-05
2.02504e-05
1.69793e-05
1.39017e-05
1.10807e-05
8.58199e-06
6.4968e-06
5.01182e-06
4.65369e-06
8.11891e-06
4.34585e-06
2.3127e-06
2.14477e-06
2.45211e-06
2.96777e-06
3.59409e-06
4.28221e-06
5.0025e-06
5.73491e-06
6.46512e-06
7.18292e-06
7.88146e-06
8.5567e-06
9.20712e-06
9.83338e-06
1.0438e-05
1.10248e-05
1.15991e-05
1.21666e-05
1.27338e-05
1.33071e-05
1.3893e-05
1.44979e-05
1.51277e-05
1.57881e-05
1.64843e-05
1.72207e-05
1.80017e-05
1.88309e-05
1.97115e-05
2.06459e-05
2.16364e-05
2.26841e-05
2.37897e-05
2.49528e-05
2.61723e-05
2.74457e-05
2.87692e-05
3.01375e-05
3.15437e-05
3.29789e-05
3.44321e-05
3.58901e-05
3.73374e-05
3.87558e-05
4.01249e-05
4.14216e-05
4.26207e-05
4.3695e-05
4.46156e-05
4.5353e-05
4.58684e-05
4.61018e-05
4.61011e-05
4.58043e-05
4.51819e-05
4.42144e-05
4.2892e-05
4.12147e-05
3.91939e-05
3.68539e-05
3.42311e-05
3.13756e-05
2.83486e-05
2.52203e-05
2.20655e-05
1.89595e-05
1.59747e-05
1.31787e-05
1.06368e-05
8.4232e-06
6.65079e-06
5.55022e-06
5.77169e-06
1.07681e-05
5.52642e-06
2.83504e-06
2.43234e-06
2.58787e-06
2.98384e-06
3.50795e-06
4.1055e-06
4.7443e-06
5.40302e-06
6.06672e-06
6.72478e-06
7.37003e-06
7.9981e-06
8.60711e-06
9.19733e-06
9.77081e-06
1.0331e-05
1.08827e-05
1.14311e-05
1.19823e-05
1.25423e-05
1.31174e-05
1.37135e-05
1.43364e-05
1.49916e-05
1.56839e-05
1.64179e-05
1.71976e-05
1.80264e-05
1.89074e-05
1.98428e-05
2.08344e-05
2.18829e-05
2.29885e-05
2.41502e-05
2.53659e-05
2.66323e-05
2.79446e-05
2.92964e-05
3.06796e-05
3.20843e-05
3.34987e-05
3.4909e-05
3.62993e-05
3.76519e-05
3.89474e-05
4.01644e-05
4.12801e-05
4.22708e-05
4.31118e-05
4.37784e-05
4.42331e-05
4.44263e-05
4.44103e-05
4.41202e-05
4.3531e-05
4.2624e-05
4.13872e-05
3.98167e-05
3.79185e-05
3.57094e-05
3.3222e-05
3.05021e-05
2.76083e-05
2.46092e-05
2.158e-05
1.85981e-05
1.57388e-05
1.30742e-05
1.0677e-05
8.63287e-06
7.0755e-06
6.27668e-06
7.01866e-06
1.35707e-05
6.78575e-06
3.40664e-06
2.77596e-06
2.79341e-06
3.08574e-06
3.52511e-06
4.05057e-06
4.62694e-06
5.23133e-06
5.8478e-06
6.46512e-06
7.07558e-06
7.67441e-06
8.25932e-06
8.83018e-06
9.38869e-06
9.93799e-06
1.04824e-05
1.1027e-05
1.15775e-05
1.21398e-05
1.27199e-05
1.33236e-05
1.39565e-05
1.46241e-05
1.5331e-05
1.60818e-05
1.68802e-05
1.77296e-05
1.86327e-05
1.95914e-05
2.0607e-05
2.16798e-05
2.28092e-05
2.39933e-05
2.52292e-05
2.65124e-05
2.7837e-05
2.91955e-05
3.05786e-05
3.19755e-05
3.33736e-05
3.47588e-05
3.61156e-05
3.74272e-05
3.86756e-05
3.98418e-05
4.09061e-05
4.18483e-05
4.26477e-05
4.32836e-05
4.37253e-05
4.39241e-05
4.39302e-05
4.36854e-05
4.31605e-05
4.23341e-05
4.11891e-05
3.97152e-05
3.79118e-05
3.57906e-05
3.3378e-05
3.07162e-05
2.78629e-05
2.48891e-05
2.18745e-05
1.89028e-05
1.60573e-05
1.34188e-05
1.10697e-05
9.10892e-06
7.69528e-06
7.13705e-06
8.35825e-06
1.6491e-05
8.11863e-06
4.02063e-06
3.16379e-06
3.05184e-06
3.25139e-06
3.61786e-06
4.08385e-06
4.61094e-06
5.17432e-06
5.75693e-06
6.3467e-06
6.9353e-06
7.51743e-06
8.09038e-06
8.65364e-06
9.20857e-06
9.75807e-06
1.03062e-05
1.08579e-05
1.14186e-05
1.19942e-05
1.25905e-05
1.32134e-05
1.38683e-05
1.45606e-05
1.52949e-05
1.60757e-05
1.69062e-05
1.77898e-05
1.87288e-05
1.97247e-05
2.07783e-05
2.18891e-05
2.30556e-05
2.42752e-05
2.55437e-05
2.68557e-05
2.82039e-05
2.95798e-05
3.09732e-05
3.23726e-05
3.37652e-05
3.51371e-05
3.64735e-05
3.77594e-05
3.89789e-05
4.01159e-05
4.11542e-05
4.20775e-05
4.28689e-05
4.35104e-05
4.39805e-05
4.42328e-05
4.42928e-05
4.41301e-05
4.37019e-05
4.29813e-05
4.19442e-05
4.05716e-05
3.88543e-05
3.67967e-05
3.44195e-05
3.17624e-05
2.8884e-05
2.58596e-05
2.27764e-05
1.97285e-05
1.68103e-05
1.41149e-05
1.17376e-05
9.79196e-06
8.46486e-06
8.09835e-06
9.76702e-06
1.95014e-05
9.52161e-06
4.6728e-06
3.58847e-06
3.35257e-06
3.46695e-06
3.76917e-06
4.18482e-06
4.67209e-06
5.2043e-06
5.76295e-06
6.33495e-06
6.91126e-06
7.48601e-06
8.05603e-06
8.62043e-06
9.18028e-06
9.73826e-06
1.02983e-05
1.0865e-05
1.1444e-05
1.20409e-05
1.26616e-05
1.33118e-05
1.39971e-05
1.47226e-05
1.5493e-05
1.63125e-05
1.71846e-05
1.8112e-05
1.90966e-05
2.01393e-05
2.12402e-05
2.23979e-05
2.36101e-05
2.48729e-05
2.6181e-05
2.75275e-05
2.89043e-05
3.03018e-05
3.17093e-05
3.31149e-05
3.4506e-05
3.58696e-05
3.71925e-05
3.84615e-05
3.9664e-05
4.07878e-05
4.18207e-05
4.27503e-05
4.35633e-05
4.42447e-05
4.47762e-05
4.51248e-05
4.52729e-05
4.5223e-05
4.49205e-05
4.43293e-05
4.34159e-05
4.21513e-05
4.05169e-05
3.8509e-05
3.61425e-05
3.34549e-05
3.0506e-05
2.73769e-05
2.41643e-05
2.09746e-05
1.79167e-05
1.50985e-05
1.26307e-05
1.06436e-05
9.3546e-06
9.13873e-06
1.12286e-05
2.25802e-05
1.09923e-05
5.36044e-06
4.04523e-06
3.68855e-06
3.72322e-06
3.96767e-06
4.34007e-06
4.79494e-06
5.30336e-06
5.84547e-06
6.4072e-06
6.97863e-06
7.55321e-06
8.12724e-06
8.69949e-06
9.27073e-06
9.84344e-06
1.04214e-05
1.10095e-05
1.16129e-05
1.22375e-05
1.2889e-05
1.35733e-05
1.42957e-05
1.50613e-05
1.58747e-05
1.67396e-05
1.76594e-05
1.86364e-05
1.9672e-05
2.07664e-05
2.19187e-05
2.31268e-05
2.43871e-05
2.56946e-05
2.7043e-05
2.84241e-05
2.9829e-05
3.12474e-05
3.26681e-05
3.40795e-05
3.547e-05
3.68279e-05
3.81423e-05
3.94031e-05
4.06013e-05
4.17283e-05
4.2776e-05
4.37358e-05
4.45975e-05
4.53481e-05
4.59704e-05
4.64411e-05
4.67217e-05
4.68001e-05
4.66468e-05
4.62035e-05
4.54273e-05
4.42778e-05
4.27265e-05
4.07615e-05
3.83918e-05
3.56519e-05
3.26034e-05
2.93329e-05
2.59477e-05
2.25676e-05
1.93179e-05
1.63238e-05
1.37138e-05
1.1637e-05
1.03438e-05
1.02429e-05
1.2731e-05
2.57098e-05
1.25291e-05
6.08179e-06
4.53084e-06
4.0549e-06
4.01386e-06
4.20549e-06
4.54018e-06
4.96857e-06
5.4594e-06
5.99123e-06
6.5488e-06
7.12127e-06
7.70143e-06
8.28509e-06
8.87061e-06
9.45853e-06
1.00512e-05
1.06522e-05
1.12663e-05
1.18989e-05
1.25558e-05
1.32427e-05
1.39654e-05
1.47293e-05
1.55392e-05
1.63996e-05
1.7314e-05
1.82852e-05
1.93151e-05
2.04043e-05
2.15523e-05
2.27574e-05
2.40162e-05
2.53242e-05
2.66752e-05
2.80615e-05
2.94744e-05
3.09041e-05
3.23398e-05
3.37708e-05
3.51861e-05
3.65754e-05
3.79294e-05
3.924e-05
4.05006e-05
4.17059e-05
4.28513e-05
4.39325e-05
4.49442e-05
4.58785e-05
4.67237e-05
4.74625e-05
4.8071e-05
4.85194e-05
4.87432e-05
4.87493e-05
4.84667e-05
4.78373e-05
4.68087e-05
4.53428e-05
4.34191e-05
4.10404e-05
3.8238e-05
3.5074e-05
3.16402e-05
2.80538e-05
2.4449e-05
2.09681e-05
1.77558e-05
1.49603e-05
1.27522e-05
1.14171e-05
1.13996e-05
1.42651e-05
2.88763e-05
1.41311e-05
6.83569e-06
5.0431e-06
4.44817e-06
4.33426e-06
4.47697e-06
4.77846e-06
5.18521e-06
5.66348e-06
6.19011e-06
6.74855e-06
7.327e-06
7.91751e-06
8.51533e-06
9.11844e-06
9.72714e-06
1.03436e-05
1.09714e-05
1.16153e-05
1.22807e-05
1.29733e-05
1.36989e-05
1.44633e-05
1.52717e-05
1.61288e-05
1.70388e-05
1.80048e-05
1.90292e-05
2.01131e-05
2.12565e-05
2.2458e-05
2.37147e-05
2.50223e-05
2.63751e-05
2.77658e-05
2.91859e-05
3.06259e-05
3.20754e-05
3.35241e-05
3.49616e-05
3.63785e-05
3.77665e-05
3.9119e-05
4.04311e-05
4.16999e-05
4.29239e-05
4.41024e-05
4.52343e-05
4.63167e-05
4.73434e-05
4.8303e-05
4.9177e-05
4.99394e-05
5.0557e-05
5.09662e-05
5.11207e-05
5.10052e-05
5.05284e-05
4.96249e-05
4.82472e-05
4.63671e-05
4.39807e-05
4.11148e-05
3.78309e-05
3.42246e-05
3.04217e-05
2.657e-05
2.28297e-05
1.93659e-05
1.63491e-05
1.39739e-05
1.25631e-05
1.26005e-05
1.5824e-05
3.20688e-05
1.57977e-05
7.62138e-06
5.58044e-06
4.8659e-06
4.68106e-06
4.7779e-06
5.04993e-06
5.43913e-06
5.90911e-06
6.43484e-06
6.99839e-06
7.58693e-06
8.19171e-06
8.8074e-06
9.43159e-06
1.00643e-05
1.07077e-05
1.13653e-05
1.20417e-05
1.27424e-05
1.34732e-05
1.42399e-05
1.50481e-05
1.59028e-05
1.68087e-05
1.77694e-05
1.87878e-05
1.98655e-05
2.1003e-05
2.21994e-05
2.34523e-05
2.47579e-05
2.61107e-05
2.7504e-05
2.89295e-05
3.03779e-05
3.18394e-05
3.33037e-05
3.47608e-05
3.62018e-05
3.76189e-05
3.90064e-05
4.03608e-05
4.16806e-05
4.29668e-05
4.42213e-05
4.54466e-05
4.66444e-05
4.78132e-05
4.89475e-05
5.00351e-05
5.10559e-05
5.19802e-05
5.27691e-05
5.33715e-05
5.36842e-05
5.37233e-05
5.34015e-05
5.26251e-05
5.13391e-05
4.95075e-05
4.71197e-05
4.41972e-05
4.07987e-05
3.70215e-05
3.2998e-05
2.88884e-05
2.48704e-05
2.11305e-05
1.78632e-05
1.52895e-05
1.37731e-05
1.38396e-05
1.74025e-05
3.52789e-05
1.75289e-05
8.43838e-06
6.14175e-06
5.30626e-06
5.05169e-06
5.10512e-06
5.3508e-06
5.72596e-06
6.19132e-06
6.71986e-06
7.29216e-06
7.89426e-06
8.51657e-06
9.15317e-06
9.80126e-06
1.04607e-05
1.11333e-05
1.18228e-05
1.25337e-05
1.32717e-05
1.40423e-05
1.48514e-05
1.57045e-05
1.66064e-05
1.75615e-05
1.85731e-05
1.96433e-05
2.07732e-05
2.19626e-05
2.32095e-05
2.45107e-05
2.58611e-05
2.72545e-05
2.86831e-05
3.01377e-05
3.16089e-05
3.30865e-05
3.45608e-05
3.60228e-05
3.74652e-05
3.88826e-05
4.02721e-05
4.16333e-05
4.29684e-05
4.42816e-05
4.5578e-05
4.68627e-05
4.8139e-05
4.94062e-05
5.06583e-05
5.18817e-05
5.30538e-05
5.41413e-05
5.51011e-05
5.58807e-05
5.63726e-05
5.65431e-05
5.6374e-05
5.57248e-05
5.45333e-05
5.27571e-05
5.03783e-05
4.74117e-05
4.39117e-05
3.99743e-05
3.57361e-05
3.13675e-05
2.70624e-05
2.30292e-05
1.9488e-05
1.66891e-05
1.50408e-05
1.51121e-05
1.89971e-05
3.85007e-05
1.93245e-05
9.2864e-06
6.72625e-06
5.76789e-06
5.4442e-06
5.45617e-06
5.67815e-06
6.04231e-06
6.50626e-06
7.04084e-06
7.62501e-06
8.24361e-06
8.88617e-06
9.54615e-06
1.02203e-05
1.09084e-05
1.16121e-05
1.23349e-05
1.30818e-05
1.3858e-05
1.46693e-05
1.55215e-05
1.64197e-05
1.73689e-05
1.83728e-05
1.94342e-05
2.05549e-05
2.1735e-05
2.29735e-05
2.42676e-05
2.5613e-05
2.70038e-05
2.84327e-05
2.9891e-05
3.13694e-05
3.2858e-05
3.43471e-05
3.58278e-05
3.72926e-05
3.87362e-05
4.01557e-05
4.15512e-05
4.29257e-05
4.42844e-05
4.56346e-05
4.69838e-05
4.83387e-05
4.97033e-05
5.1077e-05
5.24524e-05
5.38138e-05
5.51358e-05
5.63816e-05
5.75045e-05
5.84479e-05
5.91163e-05
5.94098e-05
5.93794e-05
5.88558e-05
5.77609e-05
5.60472e-05
5.36898e-05
5.06959e-05
4.71129e-05
4.30333e-05
3.85945e-05
3.39741e-05
2.93808e-05
2.50442e-05
2.12117e-05
1.81648e-05
1.63611e-05
1.64149e-05
2.06053e-05
4.17305e-05
2.11847e-05
1.01653e-05
7.33336e-06
6.24979e-06
5.85703e-06
5.82918e-06
6.02968e-06
6.38548e-06
6.85086e-06
7.39428e-06
7.99302e-06
8.63062e-06
9.29567e-06
9.98099e-06
1.0683e-05
1.14011e-05
1.2137e-05
1.28942e-05
1.36776e-05
1.44926e-05
1.53448e-05
1.624e-05
1.71831e-05
1.81787e-05
1.92302e-05
2.03399e-05
2.15088e-05
2.27365e-05
2.40208e-05
2.53582e-05
2.67435e-05
2.81697e-05
2.96289e-05
3.1112e-05
3.26092e-05
3.4111e-05
3.56083e-05
3.70933e-05
3.85606e-05
4.00069e-05
4.14323e-05
4.28397e-05
4.4235e-05
4.56265e-05
4.70235e-05
4.84353e-05
4.98693e-05
5.13295e-05
5.2814e-05
5.43138e-05
5.58107e-05
5.72763e-05
5.86709e-05
5.99442e-05
6.10355e-05
6.1863e-05
6.22868e-05
6.23664e-05
6.19666e-05
6.09688e-05
5.93241e-05
5.70009e-05
5.3998e-05
5.03543e-05
4.61556e-05
4.15366e-05
3.66791e-05
3.18035e-05
2.71601e-05
2.30238e-05
1.97102e-05
1.77301e-05
1.77459e-05
2.22257e-05
4.49664e-05
2.31097e-05
1.10749e-05
7.96266e-06
6.75114e-06
6.289e-06
6.22261e-06
6.40353e-06
6.75331e-06
7.2226e-06
7.77735e-06
8.39297e-06
9.05164e-06
9.74097e-06
1.04531e-05
1.11841e-05
1.19332e-05
1.2702e-05
1.34941e-05
1.43142e-05
1.51679e-05
1.60607e-05
1.69982e-05
1.79853e-05
1.9026e-05
2.01234e-05
2.12791e-05
2.24936e-05
2.37656e-05
2.50921e-05
2.64688e-05
2.78894e-05
2.93466e-05
3.08315e-05
3.23349e-05
3.38472e-05
3.53592e-05
3.68629e-05
3.83522e-05
3.98235e-05
4.12762e-05
4.27129e-05
4.41394e-05
4.55643e-05
4.69979e-05
4.84512e-05
4.99342e-05
5.14544e-05
5.30146e-05
5.46113e-05
5.62332e-05
5.78595e-05
5.9459e-05
6.09894e-05
6.23984e-05
6.36229e-05
6.45838e-05
6.51365e-05
6.53056e-05
6.50228e-05
6.412e-05
6.25487e-05
6.02713e-05
5.72776e-05
5.35966e-05
4.93045e-05
4.45305e-05
3.9456e-05
3.43106e-05
2.93628e-05
2.49156e-05
2.13205e-05
1.91447e-05
1.91039e-05
2.38581e-05
4.82083e-05
2.50997e-05
1.20154e-05
8.61383e-06
7.2713e-06
6.73923e-06
6.63523e-06
6.79821e-06
7.14402e-06
7.61942e-06
8.18764e-06
8.82211e-06
9.50354e-06
1.02185e-05
1.09586e-05
1.17194e-05
1.24999e-05
1.33018e-05
1.41286e-05
1.49852e-05
1.5877e-05
1.68097e-05
1.77885e-05
1.8818e-05
1.99021e-05
2.10432e-05
2.22425e-05
2.34996e-05
2.48126e-05
2.61776e-05
2.75896e-05
2.90416e-05
3.05255e-05
3.20324e-05
3.35529e-05
3.50777e-05
3.65986e-05
3.81089e-05
3.96042e-05
4.10832e-05
4.25477e-05
4.40029e-05
4.54571e-05
4.69208e-05
4.8406e-05
4.99244e-05
5.14862e-05
5.30977e-05
5.47602e-05
5.64681e-05
5.82074e-05
5.99548e-05
6.16765e-05
6.33281e-05
6.48563e-05
6.61964e-05
6.72704e-05
6.79391e-05
6.81838e-05
6.80065e-05
6.71937e-05
6.56972e-05
6.3474e-05
6.05052e-05
5.68089e-05
5.245e-05
4.75484e-05
4.22816e-05
3.68839e-05
3.16397e-05
2.68791e-05
2.29916e-05
2.06027e-05
2.04885e-05
2.55027e-05
5.14574e-05
2.71551e-05
1.29865e-05
9.28663e-06
7.80976e-06
7.20696e-06
7.06604e-06
7.21247e-06
7.55612e-06
8.03955e-06
8.6231e-06
9.27805e-06
9.98359e-06
1.07253e-05
1.14939e-05
1.22848e-05
1.30969e-05
1.39316e-05
1.47928e-05
1.56851e-05
1.66141e-05
1.75854e-05
1.8604e-05
1.96743e-05
2.07997e-05
2.19822e-05
2.32223e-05
2.45191e-05
2.58697e-05
2.72698e-05
2.87135e-05
3.01933e-05
3.17009e-05
3.3227e-05
3.47627e-05
3.62992e-05
3.78295e-05
3.93484e-05
4.08536e-05
4.23457e-05
4.38291e-05
4.53113e-05
4.68024e-05
4.83147e-05
4.98608e-05
5.14526e-05
5.30994e-05
5.48061e-05
5.65718e-05
5.83883e-05
6.0239e-05
6.2098e-05
6.39296e-05
6.56878e-05
6.73186e-05
6.87567e-05
6.9925e-05
7.06935e-05
7.1002e-05
7.09153e-05
7.01843e-05
6.87599e-05
6.65949e-05
6.36624e-05
5.99694e-05
5.55685e-05
5.05672e-05
4.51352e-05
3.95069e-05
3.3979e-05
2.89073e-05
2.47197e-05
2.21031e-05
2.18999e-05
2.71605e-05
5.47164e-05
2.9276e-05
1.39884e-05
9.98084e-06
8.36612e-06
7.69159e-06
7.51422e-06
7.64528e-06
7.98834e-06
8.48149e-06
9.08193e-06
9.75868e-06
1.04893e-05
1.12583e-05
1.20559e-05
1.28769e-05
1.37201e-05
1.45871e-05
1.54818e-05
1.64088e-05
1.73738e-05
1.83822e-05
1.94389e-05
2.0548e-05
2.17126e-05
2.2934e-05
2.42122e-05
2.55457e-05
2.69311e-05
2.83633e-05
2.98358e-05
3.13408e-05
3.28699e-05
3.4414e-05
3.59644e-05
3.75136e-05
3.90556e-05
4.05871e-05
4.21076e-05
4.36201e-05
4.5131e-05
4.66496e-05
4.81877e-05
4.97584e-05
5.13746e-05
5.30473e-05
5.47846e-05
5.65893e-05
5.8458e-05
6.03799e-05
6.23358e-05
6.42974e-05
6.62272e-05
6.80783e-05
6.97964e-05
7.1316e-05
7.25612e-05
7.34127e-05
7.37755e-05
7.37607e-05
7.31003e-05
7.1741e-05
6.96326e-05
6.67418e-05
6.30655e-05
5.86431e-05
5.35681e-05
4.79986e-05
4.21644e-05
3.63698e-05
3.09934e-05
2.65018e-05
2.36452e-05
2.33386e-05
2.88331e-05
5.79883e-05
3.14626e-05
1.5021e-05
1.06963e-05
8.94001e-06
8.19258e-06
7.97906e-06
8.09576e-06
8.4396e-06
8.9439e-06
9.56252e-06
1.02621e-05
1.10185e-05
1.18151e-05
1.26414e-05
1.34921e-05
1.43659e-05
1.52643e-05
1.61913e-05
1.71518e-05
1.81513e-05
1.91951e-05
2.02881e-05
2.1434e-05
2.26354e-05
2.38934e-05
2.52074e-05
2.65751e-05
2.79927e-05
2.94546e-05
3.09539e-05
3.24827e-05
3.40324e-05
3.55946e-05
3.71611e-05
3.87255e-05
4.02835e-05
4.18333e-05
4.33764e-05
4.49179e-05
4.64658e-05
4.80312e-05
4.96268e-05
5.12658e-05
5.29607e-05
5.47215e-05
5.65541e-05
5.84592e-05
6.04306e-05
6.24549e-05
6.45102e-05
6.65665e-05
6.85846e-05
7.05171e-05
7.23097e-05
7.38964e-05
7.52028e-05
7.61202e-05
7.65329e-05
7.6566e-05
7.59632e-05
7.46571e-05
7.25976e-05
6.97467e-05
6.60931e-05
6.16638e-05
5.65372e-05
5.08565e-05
4.48424e-05
3.88014e-05
3.31308e-05
2.83347e-05
2.52282e-05
2.48055e-05
3.05222e-05
6.12769e-05
3.3715e-05
1.60843e-05
1.14328e-05
9.53113e-06
8.7095e-06
8.45997e-06
8.56312e-06
8.9089e-06
9.42557e-06
1.00634e-05
1.07865e-05
1.1569e-05
1.23932e-05
1.32479e-05
1.41276e-05
1.50309e-05
1.59596e-05
1.69176e-05
1.791e-05
1.89423e-05
2.00199e-05
2.11473e-05
2.2328e-05
2.35643e-05
2.48567e-05
2.62043e-05
2.76043e-05
2.90522e-05
3.05423e-05
3.20675e-05
3.36197e-05
3.51908e-05
3.67726e-05
3.83582e-05
3.99423e-05
4.1522e-05
4.30974e-05
4.46718e-05
4.62521e-05
4.78477e-05
4.94708e-05
5.11343e-05
5.28515e-05
5.46336e-05
5.64892e-05
5.84218e-05
6.04296e-05
6.25037e-05
6.4628e-05
6.67785e-05
6.89234e-05
7.10225e-05
7.30278e-05
7.4885e-05
7.65281e-05
7.78834e-05
7.88516e-05
7.93038e-05
7.93674e-05
7.88052e-05
7.75359e-05
7.55112e-05
7.26908e-05
6.90573e-05
6.46276e-05
5.94652e-05
5.36966e-05
4.75284e-05
4.12635e-05
3.53128e-05
3.02153e-05
2.68517e-05
2.63015e-05
3.22296e-05
6.45863e-05
3.60332e-05
1.71782e-05
1.21902e-05
1.01392e-05
9.24195e-06
8.95641e-06
9.04667e-06
9.39539e-06
9.92538e-06
1.05832e-05
1.13302e-05
1.21389e-05
1.29903e-05
1.38727e-05
1.47804e-05
1.57121e-05
1.66696e-05
1.76572e-05
1.86799e-05
1.97434e-05
2.08529e-05
2.20129e-05
2.32267e-05
2.44961e-05
2.58213e-05
2.72009e-05
2.86317e-05
3.01092e-05
3.1627e-05
3.31782e-05
3.47549e-05
3.63493e-05
3.7954e-05
3.95632e-05
4.11729e-05
4.27818e-05
4.43916e-05
4.60073e-05
4.7637e-05
4.92916e-05
5.09834e-05
5.27257e-05
5.45306e-05
5.64083e-05
5.83651e-05
6.04024e-05
6.25154e-05
6.4693e-05
6.69164e-05
6.91598e-05
7.13898e-05
7.35653e-05
7.5638e-05
7.75536e-05
7.92459e-05
8.06418e-05
8.16477e-05
8.21268e-05
8.22078e-05
8.16669e-05
8.04145e-05
7.84045e-05
7.55971e-05
7.19722e-05
6.75392e-05
6.23487e-05
5.65098e-05
5.02113e-05
4.37463e-05
3.75326e-05
3.21402e-05
2.85147e-05
2.78274e-05
3.39571e-05
6.79202e-05
3.8417e-05
1.83027e-05
1.29684e-05
1.0764e-05
9.78955e-06
9.4679e-06
9.54579e-06
9.89822e-06
1.04423e-05
1.11206e-05
1.18917e-05
1.27263e-05
1.36042e-05
1.45134e-05
1.54479e-05
1.64066e-05
1.73914e-05
1.84069e-05
1.94583e-05
2.05514e-05
2.16913e-05
2.28824e-05
2.41277e-05
2.54289e-05
2.67857e-05
2.81964e-05
2.96577e-05
3.11645e-05
3.27108e-05
3.42894e-05
3.5893e-05
3.75142e-05
3.91467e-05
4.07856e-05
4.24284e-05
4.40752e-05
4.57293e-05
4.73971e-05
4.90877e-05
5.08127e-05
5.25847e-05
5.44162e-05
5.63185e-05
5.82999e-05
6.03645e-05
6.25112e-05
6.47328e-05
6.70155e-05
6.93387e-05
7.16747e-05
7.39888e-05
7.62392e-05
7.83774e-05
8.0349e-05
8.20872e-05
8.35191e-05
8.45524e-05
8.5047e-05
8.51345e-05
8.45951e-05
8.33368e-05
8.13167e-05
7.84974e-05
7.48598e-05
7.04102e-05
6.51898e-05
5.92907e-05
5.28818e-05
4.62399e-05
3.97828e-05
3.41054e-05
3.02161e-05
2.93839e-05
3.57062e-05
7.12818e-05
4.08663e-05
1.94574e-05
1.3767e-05
1.14051e-05
1.0352e-05
9.99398e-06
1.00599e-05
1.04166e-05
1.09754e-05
1.16744e-05
1.24695e-05
1.33293e-05
1.42329e-05
1.51677e-05
1.61276e-05
1.71117e-05
1.81223e-05
1.91642e-05
2.02428e-05
2.13639e-05
2.25329e-05
2.37539e-05
2.50298e-05
2.63618e-05
2.77498e-05
2.91916e-05
3.06837e-05
3.2221e-05
3.37975e-05
3.54063e-05
3.70405e-05
3.86936e-05
4.036e-05
4.20362e-05
4.37209e-05
4.54155e-05
4.71248e-05
4.88561e-05
5.06195e-05
5.24267e-05
5.42901e-05
5.62214e-05
5.82304e-05
6.03234e-05
6.25023e-05
6.47636e-05
6.70977e-05
6.94885e-05
7.19137e-05
7.4344e-05
7.67439e-05
7.90708e-05
8.12759e-05
8.33046e-05
8.50891e-05
8.65562e-05
8.76102e-05
8.81115e-05
8.81968e-05
8.764e-05
8.63521e-05
8.42932e-05
8.14307e-05
7.77504e-05
7.32602e-05
6.79966e-05
6.20383e-05
5.55327e-05
4.87355e-05
4.20558e-05
3.61064e-05
3.19541e-05
3.09711e-05
3.7478e-05
7.46738e-05
4.33807e-05
2.06423e-05
1.4586e-05
1.20625e-05
1.09289e-05
1.05342e-05
1.05884e-05
1.09499e-05
1.15236e-05
1.22433e-05
1.3062e-05
1.39464e-05
1.48745e-05
1.58335e-05
1.68173e-05
1.78252e-05
1.88601e-05
1.99268e-05
2.10312e-05
2.21793e-05
2.33763e-05
2.46265e-05
2.59324e-05
2.72953e-05
2.87147e-05
3.01884e-05
3.17127e-05
3.32827e-05
3.48925e-05
3.65355e-05
3.82056e-05
3.98968e-05
4.16047e-05
4.3327e-05
4.50633e-05
4.68167e-05
4.85927e-05
5.03995e-05
5.22478e-05
5.4149e-05
5.61149e-05
5.81563e-05
6.0281e-05
6.24935e-05
6.47934e-05
6.71749e-05
6.96261e-05
7.21291e-05
7.46599e-05
7.71883e-05
7.96777e-05
8.20851e-05
8.43615e-05
8.64515e-05
8.82863e-05
8.97914e-05
9.08641e-05
9.1367e-05
9.14433e-05
9.08527e-05
8.9512e-05
8.73838e-05
8.44421e-05
8.06808e-05
7.61153e-05
7.07838e-05
6.4756e-05
5.81596e-05
5.12247e-05
4.43436e-05
3.81378e-05
3.37265e-05
3.25887e-05
3.92734e-05
7.80978e-05
4.59598e-05
2.18571e-05
1.5425e-05
1.27357e-05
1.15199e-05
1.10882e-05
1.11307e-05
1.14973e-05
1.2086e-05
1.28262e-05
1.36678e-05
1.45757e-05
1.55271e-05
1.65088e-05
1.75149e-05
1.85451e-05
1.96028e-05
2.06931e-05
2.18223e-05
2.29965e-05
2.42211e-05
2.55002e-05
2.68364e-05
2.82308e-05
2.96828e-05
3.11902e-05
3.27493e-05
3.43553e-05
3.60026e-05
3.76853e-05
3.93976e-05
4.11346e-05
4.28928e-05
4.46709e-05
4.64698e-05
4.82934e-05
5.01481e-05
5.20428e-05
5.3988e-05
5.59948e-05
5.80743e-05
6.02355e-05
6.24848e-05
6.48246e-05
6.72521e-05
6.97595e-05
7.2333e-05
7.49531e-05
7.75945e-05
8.0226e-05
8.28107e-05
8.53049e-05
8.76592e-05
8.98175e-05
9.17095e-05
9.32587e-05
9.43531e-05
9.48566e-05
9.49199e-05
9.42829e-05
9.28683e-05
9.06405e-05
8.75806e-05
8.36939e-05
7.90089e-05
7.35724e-05
6.74529e-05
6.07613e-05
5.37006e-05
4.66381e-05
4.01936e-05
3.553e-05
3.42356e-05
4.10921e-05
8.1554e-05
4.86028e-05
2.31014e-05
1.62837e-05
1.34244e-05
1.21247e-05
1.16556e-05
1.16864e-05
1.2058e-05
1.26616e-05
1.34219e-05
1.42856e-05
1.52158e-05
1.6189e-05
1.71918e-05
1.82187e-05
1.92698e-05
2.0349e-05
2.14619e-05
2.26153e-05
2.38153e-05
2.50675e-05
2.6376e-05
2.77435e-05
2.91709e-05
3.06577e-05
3.22016e-05
3.37992e-05
3.54458e-05
3.71362e-05
3.88651e-05
4.06273e-05
4.24189e-05
4.42372e-05
4.60818e-05
4.79548e-05
4.98607e-05
5.18065e-05
5.38013e-05
5.58553e-05
5.79792e-05
6.01826e-05
6.24733e-05
6.48557e-05
6.73301e-05
6.98918e-05
7.25311e-05
7.52324e-05
7.7975e-05
8.07327e-05
8.34736e-05
8.61602e-05
8.87489e-05
9.11895e-05
9.34253e-05
9.53839e-05
9.69864e-05
9.81103e-05
9.86178e-05
9.86674e-05
9.79763e-05
9.64709e-05
9.41154e-05
9.08977e-05
8.68369e-05
8.19797e-05
7.63899e-05
7.01431e-05
6.33406e-05
5.61581e-05
4.89313e-05
4.22669e-05
3.73607e-05
3.59102e-05
4.29336e-05
8.50416e-05
5.13091e-05
2.43748e-05
1.71619e-05
1.41285e-05
1.2743e-05
1.22358e-05
1.22548e-05
1.26314e-05
1.32497e-05
1.40293e-05
1.4914e-05
1.58652e-05
1.68587e-05
1.7881e-05
1.89272e-05
1.9998e-05
2.10978e-05
2.22328e-05
2.34101e-05
2.46362e-05
2.59168e-05
2.7256e-05
2.86566e-05
3.01196e-05
3.16443e-05
3.32288e-05
3.48696e-05
3.65626e-05
3.83029e-05
4.00857e-05
4.19067e-05
4.37625e-05
4.56516e-05
4.75743e-05
4.95334e-05
5.15339e-05
5.35833e-05
5.56904e-05
5.7865e-05
6.01168e-05
6.24542e-05
6.48834e-05
6.74068e-05
7.00228e-05
7.27251e-05
7.55019e-05
7.83367e-05
8.12074e-05
8.40873e-05
8.69441e-05
8.97403e-05
9.24318e-05
9.49682e-05
9.72917e-05
9.93282e-05
0.000100995
0.000102162
0.000102681
0.00010272
0.000101973
0.000100365
9.78581e-05
9.44451e-05
9.01599e-05
8.50716e-05
7.92695e-05
7.28469e-05
6.59043e-05
5.85943e-05
5.12156e-05
4.43502e-05
3.92136e-05
3.76099e-05
4.47963e-05
8.85581e-05
5.40779e-05
2.56769e-05
1.80592e-05
1.48475e-05
1.33745e-05
1.28284e-05
1.28354e-05
1.32168e-05
1.38492e-05
1.46473e-05
1.55518e-05
1.65225e-05
1.75347e-05
1.85752e-05
1.96394e-05
2.07289e-05
2.18487e-05
2.30058e-05
2.42075e-05
2.54607e-05
2.67712e-05
2.81433e-05
2.95799e-05
3.10819e-05
3.26489e-05
3.4279e-05
3.59691e-05
3.77153e-05
3.95134e-05
4.1359e-05
4.32486e-05
4.51795e-05
4.71508e-05
4.91636e-05
5.12211e-05
5.33289e-05
5.54942e-05
5.77255e-05
6.00319e-05
6.2422e-05
6.49029e-05
6.74788e-05
7.01506e-05
7.29149e-05
7.57634e-05
7.86832e-05
8.16566e-05
8.46608e-05
8.76686e-05
9.06478e-05
9.35608e-05
9.63637e-05
9.90055e-05
0.000101428
0.000103554
0.0001053
0.000106525
0.000107069
0.000107103
0.000106305
0.00010459
0.000101914
9.82727e-05
9.37136e-05
8.83319e-05
8.22498e-05
7.55899e-05
6.84643e-05
6.10092e-05
5.34845e-05
4.64357e-05
4.10832e-05
3.93313e-05
4.66777e-05
9.20994e-05
5.69079e-05
2.70072e-05
1.89752e-05
1.55811e-05
1.40186e-05
1.3433e-05
1.34277e-05
1.38134e-05
1.44592e-05
1.52748e-05
1.61977e-05
1.71865e-05
1.82159e-05
1.92732e-05
2.03545e-05
2.14622e-05
2.26021e-05
2.37817e-05
2.5009e-05
2.62911e-05
2.7634e-05
2.90422e-05
3.05185e-05
3.20642e-05
3.36789e-05
3.53609e-05
3.71075e-05
3.89151e-05
4.078e-05
4.26983e-05
4.46672e-05
4.66846e-05
4.87502e-05
5.08655e-05
5.30341e-05
5.52615e-05
5.75549e-05
5.9922e-05
6.2371e-05
6.49092e-05
6.75421e-05
7.02724e-05
7.30992e-05
7.60174e-05
7.90173e-05
8.20848e-05
8.52012e-05
8.83435e-05
9.14843e-05
9.45916e-05
9.76281e-05
0.00010055
0.000103307
0.000105838
0.000108068
0.000109905
0.000111209
0.000111795
0.000111834
0.000110996
0.000109177
0.000106323
0.000102426
9.75479e-05
9.18096e-05
8.53734e-05
7.84033e-05
7.10373e-05
6.34062e-05
5.57325e-05
4.85152e-05
4.29627e-05
4.107e-05
4.85746e-05
9.56598e-05
5.97982e-05
2.83651e-05
1.99094e-05
1.63288e-05
1.46752e-05
1.40489e-05
1.4031e-05
1.44205e-05
1.50789e-05
1.59107e-05
1.68507e-05
1.78561e-05
1.89014e-05
1.99744e-05
2.10722e-05
2.2198e-05
2.33587e-05
2.45622e-05
2.58171e-05
2.71308e-05
2.85095e-05
2.9958e-05
3.14791e-05
3.30742e-05
3.47432e-05
3.64846e-05
3.8296e-05
4.01742e-05
4.2116e-05
4.4118e-05
4.61777e-05
4.82938e-05
5.04662e-05
5.26967e-05
5.4989e-05
5.73485e-05
5.97818e-05
6.22957e-05
6.48973e-05
6.75925e-05
7.03853e-05
7.32768e-05
7.62642e-05
7.93411e-05
8.24965e-05
8.57152e-05
8.89782e-05
9.22621e-05
9.55398e-05
9.87797e-05
0.000101945
0.000104993
0.000107872
0.000110523
0.000112867
0.00011481
0.000116213
0.000116862
0.00011692
0.00011606
0.000114148
0.000111114
0.000106946
0.000101709
9.55539e-05
8.8686e-05