/*--------------------------------*- C++ -*----------------------------------*\
  =========                 |
  \\      /  F ield         | OpenFOAM: The Open Source CFD Toolbox
   \\    /   O peration     | Website:  https://openfoam.org
    \\  /    A nd           | Version:  12
     \\/     M anipulation  |
\*---------------------------------------------------------------------------*/
FoamFile
{
    format      ascii;
    class       volScalarField;
    location    "2";
    object      nut;
}
// * * * * * * * * * * * * * * * * * * * * * * * * * * * * * * * * * * * * * //

dimensions      [0 2 -1 0 0 0 0];

internalField   nonuniform List<scalar> 
5625
(
1.50118e-15
1.01462e-14
2.24973e-14
3.70223e-14
5.2931e-14
6.96765e-14
8.68336e-14
1.04059e-13
1.21076e-13
1.37668e-13
1.53674e-13
1.68989e-13
1.83557e-13
1.97373e-13
2.1047e-13
2.22918e-13
2.34816e-13
2.46282e-13
2.57447e-13
2.68447e-13
2.79422e-13
2.90505e-13
3.01822e-13
3.13491e-13
3.25618e-13
3.38299e-13
3.51619e-13
3.65653e-13
3.80466e-13
3.96114e-13
4.12646e-13
4.30101e-13
4.48512e-13
4.67901e-13
4.88284e-13
5.09665e-13
5.32035e-13
5.55372e-13
5.79639e-13
6.04774e-13
6.30694e-13
6.57285e-13
6.84396e-13
7.11834e-13
7.39357e-13
7.66664e-13
7.93391e-13
8.191e-13
8.43277e-13
8.65323e-13
8.8456e-13
9.00216e-13
9.11369e-13
9.16835e-13
9.17142e-13
9.10667e-13
8.96594e-13
8.74432e-13
8.43945e-13
8.05188e-13
7.58558e-13
7.04818e-13
6.45094e-13
5.80829e-13
5.13696e-13
4.45483e-13
3.77956e-13
3.12729e-13
2.51152e-13
1.94258e-13
1.42755e-13
9.71231e-14
5.78198e-14
2.57607e-14
3.80148e-15
4.53746e-14
1.48124e-12
3.70223e-12
6.24684e-12
9.00761e-12
1.19015e-11
1.48598e-11
1.78254e-11
2.07518e-11
2.36022e-11
2.63495e-11
2.89758e-11
3.1472e-11
3.38372e-11
3.60775e-11
3.82051e-11
4.02372e-11
4.21942e-11
4.40987e-11
4.59744e-11
4.78451e-11
4.97336e-11
5.16617e-11
5.36494e-11
5.57149e-11
5.78744e-11
6.01423e-11
6.25315e-11
6.50528e-11
6.77159e-11
7.05288e-11
7.34982e-11
7.66297e-11
7.99271e-11
8.33929e-11
8.7028e-11
9.08312e-11
9.4799e-11
9.89252e-11
1.032e-10
1.0761e-10
1.12136e-10
1.16754e-10
1.21433e-10
1.26131e-10
1.308e-10
1.35379e-10
1.39794e-10
1.4396e-10
1.47776e-10
1.51126e-10
1.53879e-10
1.55879e-10
1.5689e-10
1.57032e-10
1.56009e-10
1.53677e-10
1.4995e-10
1.44782e-10
1.38178e-10
1.30202e-10
1.20984e-10
1.10717e-10
9.96516e-11
8.80817e-11
7.63203e-11
6.46775e-11
5.34358e-11
4.28302e-11
3.30368e-11
2.41714e-11
1.6301e-11
9.46854e-12
3.74818e-12
1.14837e-13
9.63228e-14
7.92384e-12
2.53693e-11
4.57611e-11
6.76024e-11
9.02937e-11
1.13359e-10
1.36391e-10
1.59049e-10
1.81062e-10
2.0223e-10
2.2242e-10
2.41569e-10
2.59673e-10
2.76785e-10
2.93004e-10
3.08464e-10
3.23326e-10
3.37767e-10
3.5197e-10
3.66119e-10
3.80389e-10
3.94947e-10
4.09944e-10
4.25519e-10
4.41793e-10
4.58877e-10
4.76863e-10
4.95834e-10
5.15862e-10
5.37006e-10
5.59316e-10
5.82834e-10
6.07588e-10
6.33599e-10
6.60876e-10
6.89413e-10
7.19188e-10
7.50162e-10
7.82269e-10
8.15419e-10
8.49484e-10
8.84293e-10
9.19626e-10
9.55201e-10
9.90664e-10
1.02558e-09
1.05941e-09
1.09153e-09
1.12118e-09
1.14749e-09
1.16948e-09
1.18601e-09
1.1948e-09
1.19751e-09
1.19131e-09
1.17502e-09
1.1479e-09
1.10952e-09
1.0598e-09
9.99177e-10
9.28607e-10
8.49591e-10
7.64113e-10
6.74512e-10
5.83315e-10
4.93018e-10
4.05883e-10
3.23762e-10
2.47986e-10
1.79332e-10
1.18087e-10
6.43142e-11
1.99751e-11
2.43186e-13
1.57446e-13
1.85648e-11
7.60575e-11
1.51105e-10
2.32311e-10
3.16169e-10
4.00832e-10
4.8489e-10
5.67187e-10
6.46806e-10
7.23068e-10
7.95537e-10
8.64014e-10
9.2852e-10
9.89269e-10
1.04664e-09
1.10114e-09
1.15336e-09
1.20394e-09
1.25356e-09
1.30287e-09
1.3525e-09
1.40304e-09
1.45502e-09
1.50893e-09
1.56519e-09
1.62418e-09
1.68622e-09
1.75159e-09
1.82053e-09
1.89325e-09
1.96991e-09
2.05067e-09
2.13562e-09
2.22485e-09
2.3184e-09
2.41629e-09
2.51845e-09
2.62481e-09
2.73519e-09
2.84932e-09
2.96686e-09
3.08729e-09
3.20994e-09
3.33395e-09
3.45818e-09
3.58123e-09
3.70134e-09
3.81636e-09
3.92372e-09
4.02042e-09
4.10293e-09
4.16787e-09
4.20423e-09
4.22145e-09
4.20707e-09
4.15659e-09
4.06698e-09
3.93624e-09
3.76377e-09
3.55076e-09
3.30048e-09
3.01836e-09
2.71171e-09
2.3893e-09
2.06061e-09
1.73504e-09
1.42102e-09
1.12533e-09
8.52588e-10
6.05186e-10
3.83826e-10
1.90828e-10
4.66101e-11
3.95825e-13
2.26826e-13
3.1299e-11
1.54091e-10
3.39183e-10
5.48183e-10
7.65268e-10
9.83647e-10
1.19927e-09
1.40919e-09
1.61118e-09
1.80365e-09
1.9856e-09
2.15665e-09
2.31695e-09
2.46714e-09
2.60824e-09
2.74159e-09
2.86874e-09
2.99136e-09
3.11112e-09
3.2297e-09
3.34867e-09
3.46947e-09
3.59343e-09
3.72171e-09
3.85534e-09
3.99521e-09
4.1421e-09
4.29666e-09
4.45947e-09
4.63102e-09
4.81172e-09
5.00193e-09
5.20194e-09
5.41198e-09
5.63224e-09
5.86279e-09
6.10366e-09
6.35474e-09
6.61579e-09
6.88639e-09
7.16587e-09
7.45327e-09
7.74723e-09
8.04592e-09
8.3469e-09
8.647e-09
8.94219e-09
9.22743e-09
9.49655e-09
9.74216e-09
9.95599e-09
1.01307e-08
1.02318e-08
1.02916e-08
1.02735e-08
1.01656e-08
9.95956e-09
9.64968e-09
9.23365e-09
8.71382e-09
8.09812e-09
7.40014e-09
6.63857e-09
5.836e-09
5.01693e-09
4.20552e-09
3.4233e-09
2.68724e-09
2.00859e-09
1.39311e-09
8.44965e-10
3.8219e-10
7.81288e-11
5.6686e-13
3.03119e-13
4.51763e-11
2.51686e-10
6.07098e-10
1.03444e-09
1.48727e-09
1.94409e-09
2.3937e-09
2.82915e-09
3.2457e-09
3.64019e-09
4.01082e-09
4.35703e-09
4.67938e-09
4.97939e-09
5.25938e-09
5.52226e-09
5.7713e-09
6.01e-09
6.24187e-09
6.47029e-09
6.69847e-09
6.92932e-09
7.16546e-09
7.40919e-09
7.66251e-09
7.92718e-09
8.20468e-09
8.49631e-09
8.80317e-09
9.12624e-09
9.46636e-09
9.82428e-09
1.02007e-08
1.05961e-08
1.1011e-08
1.14459e-08
1.1901e-08
1.23763e-08
1.28718e-08
1.3387e-08
1.3921e-08
1.44723e-08
1.50387e-08
1.56172e-08
1.62032e-08
1.6791e-08
1.7373e-08
1.79393e-08
1.84777e-08
1.89732e-08
1.94116e-08
1.97766e-08
1.99903e-08
2.01306e-08
2.01153e-08
1.99198e-08
1.95272e-08
1.89253e-08
1.8109e-08
1.70829e-08
1.58631e-08
1.44772e-08
1.29634e-08
1.13675e-08
9.73892e-09
8.12638e-09
6.57287e-09
5.11203e-09
3.76641e-09
2.54955e-09
1.47882e-09
6.16168e-10
1.11874e-10
7.51826e-13
3.85465e-13
5.99016e-11
3.62015e-10
9.40653e-10
1.6851e-09
2.49829e-09
3.32671e-09
4.14239e-09
4.92945e-09
5.6782e-09
6.38278e-09
7.0402e-09
7.64987e-09
8.21324e-09
8.73349e-09
9.21518e-09
9.66383e-09
1.00856e-08
1.04868e-08
1.08739e-08
1.1253e-08
1.16297e-08
1.20091e-08
1.23959e-08
1.2794e-08
1.32068e-08
1.36374e-08
1.40882e-08
1.45616e-08
1.50595e-08
1.55835e-08
1.61352e-08
1.67161e-08
1.73275e-08
1.79705e-08
1.86464e-08
1.93561e-08
2.01004e-08
2.088e-08
2.1695e-08
2.25453e-08
2.34299e-08
2.43466e-08
2.52924e-08
2.62621e-08
2.72486e-08
2.82423e-08
2.92299e-08
3.01946e-08
3.1115e-08
3.19642e-08
3.27205e-08
3.335e-08
3.37168e-08
3.39611e-08
3.39358e-08
3.35981e-08
3.29199e-08
3.18818e-08
3.04768e-08
2.87161e-08
2.66276e-08
2.42595e-08
2.16777e-08
1.89604e-08
1.61914e-08
1.34529e-08
1.08168e-08
8.3397e-09
6.06066e-09
4.00918e-09
2.23463e-09
8.73215e-10
1.46841e-10
9.47503e-13
4.73305e-13
7.53897e-11
4.80955e-10
1.32391e-09
2.4789e-09
3.78567e-09
5.13742e-09
6.47386e-09
7.76128e-09
8.98043e-09
1.01206e-08
1.11769e-08
1.21489e-08
1.30396e-08
1.38551e-08
1.46034e-08
1.52941e-08
1.59376e-08
1.65447e-08
1.71258e-08
1.7691e-08
1.82494e-08
1.88093e-08
1.93779e-08
1.99615e-08
2.05656e-08
2.11948e-08
2.18533e-08
2.25446e-08
2.32717e-08
2.40376e-08
2.48448e-08
2.56958e-08
2.65929e-08
2.75384e-08
2.85344e-08
2.95828e-08
3.06854e-08
3.18438e-08
3.30586e-08
3.433e-08
3.56568e-08
3.70363e-08
3.84634e-08
3.99306e-08
4.14266e-08
4.29358e-08
4.44373e-08
4.59039e-08
4.73012e-08
4.85871e-08
4.97224e-08
5.06575e-08
5.11865e-08
5.15181e-08
5.14306e-08
5.08574e-08
4.97608e-08
4.81159e-08
4.59171e-08
4.31835e-08
3.99633e-08
3.63326e-08
3.23919e-08
2.82591e-08
2.40592e-08
1.9913e-08
1.59268e-08
1.21846e-08
8.74808e-09
5.67366e-09
3.06057e-09
1.14084e-09
1.82596e-10
1.1514e-12
5.66275e-13
9.16147e-11
6.06405e-10
1.74408e-09
3.38995e-09
5.3194e-09
7.35229e-09
9.3764e-09
1.13272e-08
1.31683e-08
1.48805e-08
1.64557e-08
1.78937e-08
1.92002e-08
2.03853e-08
2.14623e-08
2.24468e-08
2.33551e-08
2.42041e-08
2.50101e-08
2.57881e-08
2.65522e-08
2.73147e-08
2.80864e-08
2.88766e-08
2.96935e-08
3.0544e-08
3.14346e-08
3.23705e-08
3.33561e-08
3.43959e-08
3.54938e-08
3.66539e-08
3.78797e-08
3.9175e-08
4.05431e-08
4.19872e-08
4.35103e-08
4.51146e-08
4.68017e-08
4.85717e-08
5.04228e-08
5.23509e-08
5.43484e-08
5.64031e-08
5.8498e-08
6.06091e-08
6.27047e-08
6.47434e-08
6.66742e-08
6.84356e-08
6.99598e-08
7.11764e-08
7.18342e-08
7.21796e-08
7.19242e-08
7.09736e-08
6.92862e-08
6.68376e-08
6.36297e-08
5.96979e-08
5.51153e-08
4.99913e-08
4.44658e-08
3.86993e-08
3.28598e-08
2.71087e-08
2.15876e-08
1.64102e-08
1.16656e-08
7.4469e-09
3.91677e-09
1.41201e-09
2.18887e-10
1.36159e-12
6.64137e-13
1.08568e-10
7.37405e-10
2.19252e-09
4.39477e-09
7.06311e-09
9.92996e-09
1.28104e-08
1.55921e-08
1.82116e-08
2.06361e-08
2.28521e-08
2.48593e-08
2.66671e-08
2.82915e-08
2.97531e-08
3.10756e-08
3.22834e-08
3.34017e-08
3.4454e-08
3.54625e-08
3.6447e-08
3.74251e-08
3.84123e-08
3.94218e-08
4.04648e-08
4.15511e-08
4.2689e-08
4.38863e-08
4.51498e-08
4.64859e-08
4.79003e-08
4.93989e-08
5.0987e-08
5.267e-08
5.44529e-08
5.63406e-08
5.83371e-08
6.04452e-08
6.26669e-08
6.50016e-08
6.74463e-08
6.99941e-08
7.26332e-08
7.53456e-08
7.81047e-08
8.08748e-08
8.3609e-08
8.62479e-08
8.87191e-08
9.09375e-08
9.28074e-08
9.42112e-08
9.49042e-08
9.51394e-08
9.4562e-08
9.3056e-08
9.05848e-08
8.71335e-08
8.27186e-08
7.73981e-08
7.12748e-08
6.44943e-08
5.72367e-08
4.97047e-08
4.2108e-08
3.46463e-08
2.74948e-08
2.07965e-08
1.46706e-08
9.25317e-09
4.7768e-09
1.68285e-09
2.55527e-10
1.57655e-12
7.6672e-13
1.26248e-10
8.73571e-10
2.66399e-09
5.47503e-09
8.98239e-09
1.2823e-08
1.67204e-08
2.04971e-08
2.40499e-08
2.73246e-08
3.02994e-08
3.2974e-08
3.53624e-08
3.74886e-08
3.9383e-08
4.10795e-08
4.26131e-08
4.40189e-08
4.53299e-08
4.65768e-08
4.77868e-08
4.89842e-08
5.01898e-08
5.14216e-08
5.26951e-08
5.40236e-08
5.54183e-08
5.68894e-08
5.84463e-08
6.00976e-08
6.18511e-08
6.37148e-08
6.56959e-08
6.78014e-08
7.00382e-08
7.24122e-08
7.49283e-08
7.75899e-08
8.03981e-08
8.33514e-08
8.64436e-08
8.96633e-08
9.29921e-08
9.64027e-08
9.98564e-08
1.03302e-07
1.06675e-07
1.09893e-07
1.12859e-07
1.15463e-07
1.1758e-07
1.19043e-07
1.19591e-07
1.1958e-07
1.18498e-07
1.16245e-07
1.12799e-07
1.08164e-07
1.02379e-07
9.55279e-08
8.77457e-08
7.9214e-08
7.01519e-08
6.08012e-08
5.14089e-08
4.22091e-08
3.34073e-08
2.51739e-08
1.7658e-08
1.10408e-08
5.62479e-09
1.95127e-09
2.92371e-10
1.79506e-12
8.73918e-13
1.44657e-10
1.0148e-09
3.15558e-09
6.61778e-09
1.10485e-08
1.59863e-08
2.10477e-08
2.59721e-08
3.0603e-08
3.48573e-08
3.87011e-08
4.2133e-08
4.51726e-08
4.78539e-08
5.02195e-08
5.23163e-08
5.4193e-08
5.58967e-08
5.74719e-08
5.89594e-08
6.03956e-08
6.1812e-08
6.32361e-08
6.46913e-08
6.61977e-08
6.77726e-08
6.94306e-08
7.1185e-08
7.3048e-08
7.50304e-08
7.71427e-08
7.93946e-08
8.17955e-08
8.43542e-08
8.70786e-08
8.99756e-08
9.30505e-08
9.63062e-08
9.97424e-08
1.03354e-07
1.07131e-07
1.11055e-07
1.15098e-07
1.1922e-07
1.23367e-07
1.27469e-07
1.31438e-07
1.3517e-07
1.38541e-07
1.41412e-07
1.43634e-07
1.45006e-07
1.45188e-07
1.44767e-07
1.43011e-07
1.39829e-07
1.35238e-07
1.29273e-07
1.21998e-07
1.13525e-07
1.04021e-07
9.37023e-08
8.28229e-08
7.16593e-08
6.0491e-08
4.95818e-08
3.91633e-08
2.94304e-08
2.05606e-08
1.27785e-08
6.45203e-09
2.21608e-09
3.293e-10
2.01615e-12
9.85666e-13
1.63799e-10
1.16111e-09
3.66587e-09
7.81456e-09
1.32393e-08
1.93813e-08
2.57374e-08
3.19479e-08
3.77892e-08
4.31409e-08
4.79527e-08
5.2221e-08
5.59725e-08
5.92533e-08
6.21206e-08
6.46375e-08
6.68681e-08
6.88745e-08
7.07146e-08
7.2441e-08
7.41001e-08
7.57324e-08
7.73726e-08
7.90503e-08
8.07906e-08
8.26151e-08
8.45425e-08
8.65892e-08
8.87702e-08
9.10991e-08
9.35886e-08
9.62505e-08
9.9096e-08
1.02135e-07
1.05377e-07
1.08828e-07
1.12494e-07
1.16376e-07
1.2047e-07
1.24767e-07
1.2925e-07
1.3389e-07
1.38647e-07
1.43467e-07
1.48275e-07
1.52981e-07
1.57473e-07
1.61619e-07
1.6527e-07
1.68263e-07
1.70423e-07
1.71522e-07
1.71184e-07
1.70096e-07
1.67562e-07
1.63293e-07
1.57419e-07
1.50016e-07
1.41173e-07
1.31031e-07
1.19787e-07
1.07688e-07
9.50195e-08
8.20868e-08
6.91977e-08
5.6641e-08
4.46708e-08
3.35035e-08
2.33419e-08
1.44497e-08
7.25439e-09
2.47665e-09
3.66219e-10
2.23905e-12
1.10193e-12
1.83678e-10
1.31259e-09
4.19428e-09
9.06026e-09
1.55393e-08
2.2977e-08
3.0742e-08
3.83606e-08
4.55299e-08
5.20832e-08
5.79496e-08
6.31226e-08
6.76367e-08
7.15523e-08
7.49443e-08
7.78944e-08
8.04848e-08
8.27947e-08
8.48974e-08
8.68588e-08
8.87369e-08
9.05815e-08
9.24355e-08
9.43351e-08
9.63111e-08
9.83896e-08
1.00593e-07
1.02942e-07
1.05454e-07
1.08144e-07
1.11029e-07
1.14122e-07
1.17435e-07
1.20979e-07
1.24764e-07
1.28796e-07
1.33078e-07
1.37609e-07
1.42381e-07
1.47376e-07
1.52569e-07
1.5792e-07
1.63372e-07
1.68852e-07
1.74266e-07
1.79498e-07
1.84412e-07
1.88851e-07
1.92641e-07
1.95598e-07
1.9753e-07
1.98175e-07
1.97161e-07
1.95232e-07
1.91757e-07
1.86323e-07
1.79059e-07
1.70143e-07
1.5969e-07
1.47865e-07
1.34893e-07
1.21046e-07
1.06638e-07
9.19989e-08
7.74611e-08
6.33339e-08
4.98909e-08
3.7367e-08
2.59869e-08
1.60485e-08
8.03019e-09
2.73268e-09
4.03059e-10
2.46318e-12
1.22268e-12
2.04301e-10
1.46935e-09
4.74073e-09
1.03521e-08
1.79377e-08
2.67503e-08
3.60228e-08
4.51558e-08
5.37552e-08
6.16e-08
6.85949e-08
7.47294e-08
8.00471e-08
8.46249e-08
8.85581e-08
9.19494e-08
9.49019e-08
9.7514e-08
9.98759e-08
1.02068e-07
1.04161e-07
1.06216e-07
1.08283e-07
1.10406e-07
1.12621e-07
1.14959e-07
1.17448e-07
1.2011e-07
1.22966e-07
1.26035e-07
1.29333e-07
1.32876e-07
1.36678e-07
1.40749e-07
1.45099e-07
1.49733e-07
1.5465e-07
1.59845e-07
1.65304e-07
1.71e-07
1.76895e-07
1.82935e-07
1.89045e-07
1.95132e-07
2.01078e-07
2.06743e-07
2.11966e-07
2.16567e-07
2.20352e-07
2.2312e-07
2.2467e-07
2.24694e-07
2.22856e-07
2.20009e-07
2.1538e-07
2.08766e-07
2.00039e-07
1.89563e-07
1.77482e-07
1.6398e-07
1.49304e-07
1.33753e-07
1.17663e-07
1.01387e-07
8.52752e-08
6.96565e-08
5.48207e-08
4.1019e-08
2.8495e-08
1.7575e-08
8.77952e-09
2.98409e-09
4.3977e-10
2.68814e-12
1.34794e-12
2.25675e-10
1.63151e-09
5.30543e-09
1.16889e-08
2.04278e-08
3.06844e-08
4.155e-08
5.22888e-08
6.24056e-08
7.16181e-08
7.98031e-08
8.69453e-08
9.30987e-08
9.83591e-08
1.02844e-07
1.06681e-07
1.09996e-07
1.12907e-07
1.15525e-07
1.17945e-07
1.20251e-07
1.22515e-07
1.24796e-07
1.27146e-07
1.29606e-07
1.32213e-07
1.34997e-07
1.37984e-07
1.41199e-07
1.44662e-07
1.48392e-07
1.52405e-07
1.56715e-07
1.61334e-07
1.66268e-07
1.71519e-07
1.77085e-07
1.82953e-07
1.891e-07
1.95489e-07
2.02067e-07
2.08763e-07
2.15484e-07
2.22112e-07
2.28507e-07
2.34506e-07
2.39923e-07
2.4456e-07
2.48205e-07
2.50647e-07
2.51682e-07
2.50947e-07
2.48173e-07
2.44337e-07
2.38426e-07
2.30576e-07
2.20368e-07
2.08303e-07
1.94587e-07
1.79421e-07
1.63072e-07
1.45861e-07
1.28142e-07
1.10291e-07
9.26737e-08
7.56351e-08
5.94797e-08
4.44729e-08
3.08743e-08
1.90333e-08
9.50362e-09
3.23102e-09
4.76327e-10
2.91365e-12
1.47771e-12
2.47805e-10
1.7992e-09
5.88869e-09
1.30703e-08
2.30056e-08
3.47676e-08
4.73007e-08
5.97241e-08
7.14323e-08
8.20762e-08
9.15013e-08
9.96877e-08
1.06701e-07
1.12658e-07
1.17702e-07
1.21986e-07
1.25661e-07
1.28869e-07
1.3174e-07
1.34386e-07
1.36905e-07
1.39379e-07
1.41879e-07
1.44461e-07
1.47175e-07
1.5006e-07
1.53152e-07
1.56479e-07
1.60069e-07
1.63944e-07
1.68123e-07
1.72625e-07
1.77462e-07
1.82644e-07
1.88178e-07
1.94061e-07
2.00284e-07
2.06827e-07
2.13657e-07
2.20724e-07
2.27959e-07
2.35273e-07
2.42549e-07
2.49651e-07
2.56412e-07
2.62648e-07
2.68153e-07
2.7271e-07
2.76099e-07
2.78102e-07
2.78515e-07
2.76912e-07
2.73133e-07
2.68247e-07
2.60998e-07
2.51795e-07
2.40155e-07
2.26472e-07
2.1112e-07
1.94302e-07
1.76303e-07
1.57463e-07
1.38159e-07
1.18782e-07
9.97141e-08
8.13147e-08
6.3901e-08
4.7751e-08
3.31378e-08
2.04295e-08
1.02046e-08
3.47369e-09
5.1272e-10
3.13959e-12
1.61199e-12
2.707e-10
1.97251e-09
6.49093e-09
1.44967e-08
2.56688e-08
3.89923e-08
5.32585e-08
6.7434e-08
8.07961e-08
9.29235e-08
1.03629e-07
1.12887e-07
1.20777e-07
1.27439e-07
1.33045e-07
1.37775e-07
1.41809e-07
1.45312e-07
1.48434e-07
1.51306e-07
1.5404e-07
1.56729e-07
1.59454e-07
1.62277e-07
1.65255e-07
1.68431e-07
1.71845e-07
1.75528e-07
1.79509e-07
1.83813e-07
1.8846e-07
1.93468e-07
1.98849e-07
2.04613e-07
2.1076e-07
2.17284e-07
2.2417e-07
2.31388e-07
2.38892e-07
2.46618e-07
2.54481e-07
2.6237e-07
2.7015e-07
2.77657e-07
2.84708e-07
2.91094e-07
2.96595e-07
3.00981e-07
3.04021e-07
3.05496e-07
3.05203e-07
3.02653e-07
2.97869e-07
2.91835e-07
2.83248e-07
2.72605e-07
2.59556e-07
2.44236e-07
2.27242e-07
2.08774e-07
1.89134e-07
1.68684e-07
1.47819e-07
1.26947e-07
1.06467e-07
8.67498e-08
6.81245e-08
5.08802e-08
3.53016e-08
2.17707e-08
1.08852e-08
3.71247e-09
5.48959e-10
3.36595e-12
1.75082e-12
2.94366e-10
2.15155e-09
7.11258e-09
1.59686e-08
2.84167e-08
4.33532e-08
5.94112e-08
7.53974e-08
9.04657e-08
1.04119e-07
1.16135e-07
1.26485e-07
1.35263e-07
1.42635e-07
1.48802e-07
1.53977e-07
1.58366e-07
1.62162e-07
1.65536e-07
1.68636e-07
1.7159e-07
1.74501e-07
1.77459e-07
1.80535e-07
1.8379e-07
1.87272e-07
1.91023e-07
1.95079e-07
1.9947e-07
2.04222e-07
2.09355e-07
2.14887e-07
2.2083e-07
2.27189e-07
2.33962e-07
2.41137e-07
2.48689e-07
2.56579e-07
2.64747e-07
2.73114e-07
2.81576e-07
2.90001e-07
2.98233e-07
3.0609e-07
3.13364e-07
3.19833e-07
3.25259e-07
3.29403e-07
3.3203e-07
3.32916e-07
3.31865e-07
3.28319e-07
3.22532e-07
3.15294e-07
3.05358e-07
2.93236e-07
2.78766e-07
2.61797e-07
2.43145e-07
2.23016e-07
2.01727e-07
1.79663e-07
1.57241e-07
1.34885e-07
1.1301e-07
9.19995e-08
7.21931e-08
5.38896e-08
3.73829e-08
2.30653e-08
1.15482e-08
3.94783e-09
5.85069e-10
3.59282e-12
1.8942e-12
3.18808e-10
2.33641e-09
7.75405e-09
1.74864e-08
3.12491e-08
4.78472e-08
6.57499e-08
8.35977e-08
1.00416e-07
1.15628e-07
1.28978e-07
1.40433e-07
1.50105e-07
1.58188e-07
1.64915e-07
1.70531e-07
1.75274e-07
1.79363e-07
1.8299e-07
1.86323e-07
1.89502e-07
1.92645e-07
1.95848e-07
1.99191e-07
2.02737e-07
2.06541e-07
2.10648e-07
2.15096e-07
2.19915e-07
2.25134e-07
2.30773e-07
2.36848e-07
2.43369e-07
2.5034e-07
2.57751e-07
2.65585e-07
2.73807e-07
2.82366e-07
2.9119e-07
3.0018e-07
3.09215e-07
3.18144e-07
3.2679e-07
3.3495e-07
3.424e-07
3.48902e-07
3.54206e-07
3.58066e-07
3.6024e-07
3.60506e-07
3.5867e-07
3.54103e-07
3.47326e-07
3.38855e-07
3.27556e-07
3.13931e-07
2.9801e-07
2.79377e-07
2.5904e-07
2.37218e-07
2.14251e-07
1.90547e-07
1.66546e-07
1.42694e-07
1.19421e-07
9.71237e-08
7.61503e-08
5.68084e-08
3.93991e-08
2.4322e-08
1.21964e-08
4.18029e-09
6.21087e-10
3.82037e-12
2.04216e-12
3.44032e-10
2.52717e-09
8.41567e-09
1.90509e-08
3.41661e-08
5.24722e-08
7.22681e-08
9.20219e-08
1.10626e-07
1.27424e-07
1.42124e-07
1.54692e-07
1.65259e-07
1.74049e-07
1.81332e-07
1.87387e-07
1.92483e-07
1.96864e-07
2.00749e-07
2.04321e-07
2.07736e-07
2.11122e-07
2.14585e-07
2.18209e-07
2.22065e-07
2.26211e-07
2.30693e-07
2.35552e-07
2.40822e-07
2.46528e-07
2.52692e-07
2.5933e-07
2.66448e-07
2.74046e-07
2.82109e-07
2.90612e-07
2.99509e-07
3.08738e-07
3.1821e-07
3.27812e-07
3.37402e-07
3.46811e-07
3.55843e-07
3.64277e-07
3.71874e-07
3.78382e-07
3.83542e-07
3.87099e-07
3.8881e-07
3.88448e-07
3.85822e-07
3.80231e-07
3.72483e-07
3.62764e-07
3.50095e-07
3.34946e-07
3.17525e-07
2.9721e-07
2.75143e-07
2.51577e-07
2.26878e-07
2.01482e-07
1.75858e-07
1.50474e-07
1.25779e-07
1.02181e-07
8.00386e-08
5.96653e-08
4.13676e-08
2.55491e-08
1.28328e-08
4.41044e-09
6.57056e-10
4.04884e-12
2.19471e-12
3.70042e-10
2.72389e-09
9.09775e-09
2.06627e-08
3.7168e-08
5.72266e-08
7.89603e-08
1.00659e-07
1.2108e-07
1.39483e-07
1.55542e-07
1.69225e-07
1.80685e-07
1.90179e-07
1.98013e-07
2.04503e-07
2.0995e-07
2.14627e-07
2.18774e-07
2.22595e-07
2.26258e-07
2.29902e-07
2.33642e-07
2.37567e-07
2.41753e-07
2.46261e-07
2.5114e-07
2.56434e-07
2.62175e-07
2.68391e-07
2.75104e-07
2.82325e-07
2.9006e-07
2.98303e-07
3.07033e-07
3.16216e-07
3.25797e-07
3.35699e-07
3.45818e-07
3.56026e-07
3.66162e-07
3.7604e-07
3.85445e-07
3.94142e-07
4.01877e-07
4.08386e-07
4.13403e-07
4.16665e-07
4.17923e-07
4.16948e-07
4.13542e-07
4.06939e-07
3.98247e-07
3.87278e-07
3.73234e-07
3.56547e-07
3.37543e-07
3.15535e-07
2.91669e-07
2.66288e-07
2.39781e-07
2.12618e-07
1.85299e-07
1.58324e-07
1.3216e-07
1.07229e-07
8.38987e-08
6.24876e-08
4.33049e-08
2.67549e-08
1.34603e-08
4.63887e-09
6.93028e-10
4.27847e-12
2.35185e-12
3.96841e-10
2.92662e-09
9.80054e-09
2.23222e-08
4.0255e-08
6.21091e-08
8.5822e-08
1.09501e-07
1.31761e-07
1.51783e-07
1.69207e-07
1.84003e-07
1.9635e-07
2.06541e-07
2.14921e-07
2.21842e-07
2.27641e-07
2.32618e-07
2.37036e-07
2.41117e-07
2.45043e-07
2.48964e-07
2.52999e-07
2.57247e-07
2.61785e-07
2.66679e-07
2.71981e-07
2.77733e-07
2.83971e-07
2.90723e-07
2.98007e-07
3.05836e-07
3.1421e-07
3.23117e-07
3.32533e-07
3.42411e-07
3.52687e-07
3.63271e-07
3.74044e-07
3.8486e-07
3.95544e-07
4.05891e-07
4.15672e-07
4.24638e-07
4.32521e-07
4.39049e-07
4.43945e-07
4.46941e-07
4.47779e-07
4.46223e-07
4.42055e-07
4.3447e-07
4.2486e-07
4.12644e-07
3.9722e-07
3.78975e-07
3.58324e-07
3.3457e-07
3.08828e-07
2.8154e-07
2.53125e-07
2.24095e-07
1.94988e-07
1.66336e-07
1.38635e-07
1.12321e-07
8.77687e-08
6.53008e-08
4.52263e-08
2.79473e-08
1.40817e-08
4.86617e-09
7.29054e-10
4.50955e-12
2.51357e-12
4.2443e-10
3.13539e-09
1.05242e-08
2.40297e-08
4.34271e-08
6.71182e-08
9.28488e-08
1.18537e-07
1.42657e-07
1.64306e-07
1.83095e-07
1.98999e-07
2.12225e-07
2.23104e-07
2.32022e-07
2.39373e-07
2.45525e-07
2.50809e-07
2.55509e-07
2.59865e-07
2.64072e-07
2.68289e-07
2.72643e-07
2.77238e-07
2.82156e-07
2.87463e-07
2.93213e-07
2.99452e-07
3.06215e-07
3.13529e-07
3.21412e-07
3.29874e-07
3.38912e-07
3.48508e-07
3.58629e-07
3.69223e-07
3.80211e-07
3.9149e-07
4.02929e-07
4.14366e-07
4.2561e-07
4.36442e-07
4.46617e-07
4.55874e-07
4.63935e-07
4.70516e-07
4.75334e-07
4.78109e-07
4.78578e-07
4.76495e-07
4.71574e-07
4.63055e-07
4.52553e-07
4.39099e-07
4.22282e-07
4.02461e-07
3.8011e-07
3.54524e-07
3.26817e-07
2.97513e-07
2.67071e-07
2.36049e-07
2.05035e-07
1.74601e-07
1.45273e-07
1.17507e-07
9.16843e-08
6.81286e-08
4.71462e-08
2.91334e-08
1.46997e-08
5.09291e-09
7.65182e-10
4.74235e-12
2.67989e-12
4.52808e-10
3.35022e-09
1.12688e-08
2.57854e-08
4.6684e-08
7.22521e-08
1.00036e-07
1.2776e-07
1.53754e-07
1.77034e-07
1.97183e-07
2.14185e-07
2.28279e-07
2.39837e-07
2.49289e-07
2.57067e-07
2.63576e-07
2.69175e-07
2.74171e-07
2.78819e-07
2.83329e-07
2.87866e-07
2.92567e-07
2.97537e-07
3.02862e-07
3.08612e-07
3.14843e-07
3.216e-07
3.28918e-07
3.36825e-07
3.45337e-07
3.54461e-07
3.6419e-07
3.74501e-07
3.85354e-07
3.96685e-07
4.08407e-07
4.20404e-07
4.3253e-07
4.44609e-07
4.56436e-07
4.67779e-07
4.78381e-07
4.87967e-07
4.9625e-07
5.02936e-07
5.07731e-07
5.10346e-07
5.10507e-07
5.07963e-07
5.0231e-07
4.92909e-07
4.81535e-07
4.66854e-07
4.48633e-07
4.27216e-07
4.03109e-07
3.75593e-07
3.45818e-07
3.14374e-07
2.81767e-07
2.4861e-07
2.15549e-07
1.83205e-07
1.5214e-07
1.22835e-07
9.56784e-08
7.09926e-08
4.90775e-08
3.03199e-08
1.53167e-08
5.31959e-09
8.01457e-10
4.97709e-12
2.85077e-12
4.81975e-10
3.5711e-09
1.20344e-08
2.75893e-08
5.0025e-08
7.75085e-08
1.07378e-07
1.3716e-07
1.65038e-07
1.89948e-07
2.11448e-07
2.29537e-07
2.44487e-07
2.56713e-07
2.66692e-07
2.74898e-07
2.81769e-07
2.87695e-07
2.93003e-07
2.97965e-07
3.02802e-07
3.07689e-07
3.12765e-07
3.18142e-07
3.23909e-07
3.30136e-07
3.36881e-07
3.44189e-07
3.52097e-07
3.60631e-07
3.69805e-07
3.79624e-07
3.90076e-07
4.01133e-07
4.12746e-07
4.24843e-07
4.37326e-07
4.50067e-07
4.62907e-07
4.75659e-07
4.88103e-07
4.99995e-07
5.11067e-07
5.21034e-07
5.29596e-07
5.36449e-07
5.41288e-07
5.43811e-07
5.43734e-07
5.40791e-07
5.34461e-07
5.24224e-07
5.11991e-07
4.96097e-07
4.76458e-07
4.53422e-07
4.27501e-07
3.97948e-07
3.65996e-07
3.32275e-07
2.9735e-07
2.61898e-07
2.26629e-07
1.92226e-07
1.59298e-07
1.28349e-07
9.97815e-08
7.39127e-08
5.10321e-08
3.15127e-08
1.59348e-08
5.54667e-09
8.37912e-10
5.21394e-12
3.02619e-12
5.11927e-10
3.79803e-09
1.28209e-08
2.9441e-08
5.34492e-08
8.28847e-08
1.1487e-07
1.46727e-07
1.76494e-07
2.03029e-07
2.25869e-07
2.45029e-07
2.6082e-07
2.73704e-07
2.84205e-07
2.92839e-07
3.00081e-07
3.06348e-07
3.11988e-07
3.17289e-07
3.22482e-07
3.2775e-07
3.33237e-07
3.39058e-07
3.45302e-07
3.52044e-07
3.59341e-07
3.6724e-07
3.75775e-07
3.84973e-07
3.94847e-07
4.05396e-07
4.16606e-07
4.28442e-07
4.40848e-07
4.53744e-07
4.6702e-07
4.80538e-07
4.94128e-07
5.07589e-07
5.20693e-07
5.33181e-07
5.44777e-07
5.55183e-07
5.6409e-07
5.71181e-07
5.76137e-07
5.78644e-07
5.78399e-07
5.75122e-07
5.68186e-07
5.57156e-07
5.44072e-07
5.26978e-07
5.05908e-07
4.81227e-07
4.53435e-07
4.21739e-07
3.87492e-07
3.5135e-07
3.13942e-07
2.7602e-07
2.38369e-07
2.01742e-07
1.66802e-07
1.34091e-07
1.04022e-07
7.69067e-08
5.30203e-08
3.27169e-08
1.65561e-08
5.77453e-09
8.74573e-10
5.45303e-12
3.20612e-12
5.42658e-10
4.03097e-09
1.36283e-08
3.13402e-08
5.6955e-08
8.83771e-08
1.22505e-07
1.5645e-07
1.88107e-07
2.16258e-07
2.40421e-07
2.60635e-07
2.7725e-07
2.90781e-07
3.01799e-07
3.10865e-07
3.18489e-07
3.25114e-07
3.31111e-07
3.3678e-07
3.42363e-07
3.48048e-07
3.53984e-07
3.60288e-07
3.67053e-07
3.74352e-07
3.82243e-07
3.90774e-07
3.99979e-07
4.09882e-07
4.20495e-07
4.31815e-07
4.43821e-07
4.56473e-07
4.69709e-07
4.83439e-07
4.97545e-07
5.11878e-07
5.26257e-07
5.40472e-07
5.54283e-07
5.67422e-07
5.79601e-07
5.90513e-07
5.99835e-07
6.07237e-07
6.12387e-07
6.14953e-07
6.14613e-07
6.11066e-07
6.03604e-07
5.91824e-07
5.77888e-07
5.59612e-07
5.37099e-07
5.10743e-07
4.81022e-07
4.47084e-07
4.10421e-07
3.7171e-07
3.3165e-07
2.91074e-07
2.50852e-07
2.11821e-07
1.74709e-07
1.401e-07
1.08426e-07
7.99909e-08
5.50515e-08
3.39373e-08
1.7182e-08
6.00344e-09
9.11449e-10
5.69438e-12
3.39053e-12
5.74162e-10
4.26987e-09
1.44562e-08
3.32861e-08
6.05406e-08
9.39813e-08
1.30274e-07
1.66318e-07
1.9986e-07
2.29612e-07
2.5508e-07
2.76326e-07
2.93749e-07
3.07915e-07
3.19447e-07
3.2895e-07
3.36969e-07
3.43974e-07
3.50355e-07
3.56426e-07
3.62436e-07
3.68579e-07
3.75008e-07
3.81842e-07
3.89172e-07
3.97074e-07
4.05607e-07
4.14816e-07
4.24737e-07
4.3539e-07
4.46786e-07
4.58918e-07
4.71761e-07
4.8527e-07
4.99375e-07
5.13979e-07
5.28954e-07
5.44144e-07
5.59357e-07
5.74373e-07
5.88943e-07
6.0279e-07
6.15615e-07
6.27098e-07
6.36907e-07
6.44696e-07
6.50114e-07
6.52812e-07
6.52448e-07
6.48695e-07
6.40787e-07
6.28301e-07
6.13509e-07
5.94069e-07
5.70104e-07
5.42037e-07
5.10334e-07
4.74066e-07
4.34872e-07
3.93445e-07
3.50562e-07
3.07142e-07
2.64154e-07
2.22525e-07
1.83065e-07
1.46412e-07
1.13017e-07
8.318e-08
5.71339e-08
3.51776e-08
1.78139e-08
6.23359e-09
9.48537e-10
5.93792e-12
3.57934e-12
6.0643e-10
4.51467e-09
1.53045e-08
3.52778e-08
6.42035e-08
9.96923e-08
1.38168e-07
1.76315e-07
2.11735e-07
2.43068e-07
2.69816e-07
2.92072e-07
3.10284e-07
3.25075e-07
3.37119e-07
3.47066e-07
3.55496e-07
3.62907e-07
3.69704e-07
3.76214e-07
3.82694e-07
3.89342e-07
3.96312e-07
4.03724e-07
4.11672e-07
4.20228e-07
4.29453e-07
4.39392e-07
4.50077e-07
4.61529e-07
4.73754e-07
4.86744e-07
5.00468e-07
5.14876e-07
5.29892e-07
5.45411e-07
5.61298e-07
5.77387e-07
5.93479e-07
6.09345e-07
6.24728e-07
6.39339e-07
6.52872e-07
6.64993e-07
6.75357e-07
6.83602e-07
6.8936e-07
6.92259e-07
6.91934e-07
6.88034e-07
6.79762e-07
6.66612e-07
6.50958e-07
6.30373e-07
6.04952e-07
5.75138e-07
5.41405e-07
5.02737e-07
4.60899e-07
4.16616e-07
3.70743e-07
3.24292e-07
2.78336e-07
2.33911e-07
1.91917e-07
1.53059e-07
1.17817e-07
8.64872e-08
5.92746e-08
3.64412e-08
1.84527e-08
6.46508e-09
9.85818e-10
6.18347e-12
3.77252e-12
6.39452e-10
4.76527e-09
1.61728e-08
3.73142e-08
6.79411e-08
1.05504e-07
1.46178e-07
1.86427e-07
2.23708e-07
2.56601e-07
2.84602e-07
3.07841e-07
3.26823e-07
3.42227e-07
3.54782e-07
3.65183e-07
3.74045e-07
3.81889e-07
3.89139e-07
3.96131e-07
4.03128e-07
4.10331e-07
4.17895e-07
4.25941e-07
4.34561e-07
4.43828e-07
4.53801e-07
4.64523e-07
4.76025e-07
4.88327e-07
5.01433e-07
5.15327e-07
5.29979e-07
5.4533e-07
5.61299e-07
5.77776e-07
5.94616e-07
6.11648e-07
6.28664e-07
6.45429e-07
6.61674e-07
6.77105e-07
6.91402e-07
7.04222e-07
7.15203e-07
7.23968e-07
7.30127e-07
7.33288e-07
7.3306e-07
7.29065e-07
7.20503e-07
7.06734e-07
6.90211e-07
6.68501e-07
6.41625e-07
6.10027e-07
5.74223e-07
5.33106e-07
4.88525e-07
4.41257e-07
3.92236e-07
3.42571e-07
2.93449e-07
2.46023e-07
2.01302e-07
1.6007e-07
1.22846e-07
8.99242e-08
6.14797e-08
3.77307e-08
1.9099e-08
6.69789e-09
1.02326e-09
6.43076e-12
3.96997e-12
6.73216e-10
5.0216e-09
1.70606e-08
3.93938e-08
7.17503e-08
1.11409e-07
1.54291e-07
1.96635e-07
2.35759e-07
2.7018e-07
2.99403e-07
3.23598e-07
3.43327e-07
3.59334e-07
3.72401e-07
3.83269e-07
3.92585e-07
4.00895e-07
4.08638e-07
4.16159e-07
4.23724e-07
4.31538e-07
4.39755e-07
4.48494e-07
4.57847e-07
4.67885e-07
4.78664e-07
4.90228e-07
5.02605e-07
5.15811e-07
5.29847e-07
5.44696e-07
5.60321e-07
5.76661e-07
5.93627e-07
6.11102e-07
6.28938e-07
6.46954e-07
6.64937e-07
6.82643e-07
6.99798e-07
7.16096e-07
7.31208e-07
7.44778e-07
7.56428e-07
7.65765e-07
7.72378e-07
7.75851e-07
7.75766e-07
7.71719e-07
7.62934e-07
7.48588e-07
7.31193e-07
7.08379e-07
6.80057e-07
6.4664e-07
6.08734e-07
5.6514e-07
5.17733e-07
4.67369e-07
4.15057e-07
3.62008e-07
3.09527e-07
2.58897e-07
2.11253e-07
1.6747e-07
1.2812e-07
9.3501e-08
6.37542e-08
3.90481e-08
1.97532e-08
6.93192e-09
1.0608e-09
6.67939e-12
4.17163e-12
7.07707e-10
5.28352e-09
1.79675e-08
4.1515e-08
7.56272e-08
1.17399e-07
1.62493e-07
2.06921e-07
2.47859e-07
2.83776e-07
3.14183e-07
3.39302e-07
3.59757e-07
3.76355e-07
3.89937e-07
4.01285e-07
4.11082e-07
4.19894e-07
4.28174e-07
4.36275e-07
4.44466e-07
4.5295e-07
4.61882e-07
4.71378e-07
4.81528e-07
4.92401e-07
5.04051e-07
5.16517e-07
5.29827e-07
5.43994e-07
5.59015e-07
5.74869e-07
5.91515e-07
6.08886e-07
6.26891e-07
6.45405e-07
6.64274e-07
6.83312e-07
7.02299e-07
7.20985e-07
7.39087e-07
7.56292e-07
7.72258e-07
7.86617e-07
7.98977e-07
8.08924e-07
8.16029e-07
8.19851e-07
8.19946e-07
8.15879e-07
8.06926e-07
7.92045e-07
7.73777e-07
7.4988e-07
7.20129e-07
6.84871e-07
6.44838e-07
5.98764e-07
5.48467e-07
4.94917e-07
4.39193e-07
3.82605e-07
3.26585e-07
2.72557e-07
2.21792e-07