/*--------------------------------*- C++ -*----------------------------------*\
  =========                 |
  \\      /  F ield         | OpenFOAM: The Open Source CFD Toolbox
   \\    /   O peration     | Website:  https://openfoam.org
    \\  /    A nd           | Version:  12
     \\/     M anipulation  |
\*---------------------------------------------------------------------------*/
FoamFile
{
    format      ascii;
    class       surfaceScalarField;
    location    "2";
    object      phi;
}
// * * * * * * * * * * * * * * * * * * * * * * * * * * * * * * * * * * * * * //

dimensions      [0 3 -1 0 0 0 0];

internalField   nonuniform List<scalar> 
11100
(
3.20559e-10
-3.20764e-10
9.14165e-10
-5.93609e-10
1.42758e-09
-5.13416e-10
1.66952e-09
-2.41942e-10
1.57359e-09
9.59249e-11
1.13381e-09
4.39786e-10
3.75554e-10
7.58252e-10
-6.62226e-10
1.03778e-09
-1.9374e-09
1.27517e-09
-3.41058e-09
1.47318e-09
-5.04843e-09
1.63785e-09
-6.82523e-09
1.7768e-09
-8.72338e-09
1.89815e-09
-1.07331e-08
2.00975e-09
-1.28519e-08
2.11882e-09
-1.50837e-08
2.23179e-09
-1.74379e-08
2.35417e-09
-1.99286e-08
2.49065e-09
-2.25737e-08
2.64518e-09
-2.53948e-08
2.82108e-09
-2.8416e-08
3.02117e-09
-3.16639e-08
3.24789e-09
-3.51672e-08
3.50336e-09
-3.89567e-08
3.78947e-09
-4.30646e-08
4.10787e-09
-4.75245e-08
4.45998e-09
-5.23715e-08
4.84694e-09
-5.7641e-08
5.26955e-09
-6.33692e-08
5.72812e-09
-6.95915e-08
6.22239e-09
-7.63428e-08
6.7513e-09
-8.36557e-08
7.31285e-09
-9.15595e-08
7.90382e-09
-1.00079e-07
8.51958e-09
-1.09233e-07
9.15382e-09
-1.19031e-07
9.79826e-09
-1.29474e-07
1.04424e-08
-1.40547e-07
1.10731e-08
-1.52222e-07
1.16748e-08
-1.6445e-07
1.22288e-08
-1.77164e-07
1.27133e-08
-1.90267e-07
1.31036e-08
-2.03639e-07
1.3372e-08
-2.17128e-07
1.34882e-08
-2.30547e-07
1.34198e-08
-2.4368e-07
1.3133e-08
-2.56274e-07
1.25939e-08
-2.68044e-07
1.17699e-08
-2.78675e-07
1.06313e-08
-2.87829e-07
9.15344e-09
-2.95139e-07
7.30987e-09
-3.00239e-07
5.09987e-09
-3.02822e-07
2.58341e-09
-3.02522e-07
-3.00395e-10
-2.99061e-07
-3.46024e-09
-2.92234e-07
-6.82771e-09
-2.81918e-07
-1.03161e-08
-2.68108e-07
-1.38096e-08
-2.50935e-07
-1.7173e-08
-2.30679e-07
-2.0256e-08
-2.07777e-07
-2.29017e-08
-1.82821e-07
-2.49568e-08
-1.56536e-07
-2.62846e-08
-1.29758e-07
-2.6778e-08
-1.03386e-07
-2.63717e-08
-7.83342e-08
-2.50521e-08
-5.54727e-08
-2.28615e-08
-3.5575e-08
-1.98977e-08
-1.92675e-08
-1.63076e-08
-6.98928e-09
-1.22782e-08
1.04295e-09
-8.03223e-09
4.88798e-09
-3.84504e-09
4.98088e-09
-9.28952e-11
2.50508e-09
2.47579e-09
2.50508e-09
7.87731e-10
-1.1085e-09
2.052e-09
-1.85788e-09
3.03704e-09
-1.49846e-09
3.31321e-09
-5.18122e-10
2.69767e-09
7.11455e-10
1.15782e-09
1.97963e-09
-1.25525e-09
3.17132e-09
-4.45012e-09
4.23265e-09
-8.3223e-09
5.14735e-09
-1.27711e-08
5.92199e-09
-1.77096e-08
6.57635e-09
-2.30698e-08
7.13697e-09
-2.88045e-08
7.63282e-09
-3.48874e-08
8.09266e-09
-4.13118e-08
8.54327e-09
-4.80888e-08
9.00872e-09
-5.52446e-08
9.50997e-09
-6.28189e-08
1.0065e-08
-7.08626e-08
1.06889e-08
-7.94362e-08
1.13947e-08
-8.86081e-08
1.21931e-08
-9.84539e-08
1.30937e-08
-1.09055e-07
1.41044e-08
-1.20498e-07
1.52322e-08
-1.32873e-07
1.6483e-08
-1.46274e-07
1.78617e-08
-1.60799e-07
1.93719e-08
-1.76545e-07
2.10155e-08
-1.9361e-07
2.27926e-08
-2.12088e-07
2.47005e-08
-2.3207e-07
2.67334e-08
-2.53639e-07
2.88818e-08
-2.76866e-07
3.1131e-08
-3.01807e-07
3.34609e-08
-3.28498e-07
3.58448e-08
-3.56949e-07
3.82485e-08
-3.87136e-07
4.06292e-08
-4.18997e-07
4.29347e-08
-4.52425e-07
4.51028e-08
-4.87257e-07
4.70608e-08
-5.23269e-07
4.87251e-08
-5.60167e-07
5.00015e-08
-5.97581e-07
5.07862e-08
-6.3506e-07
5.09667e-08
-6.72064e-07
5.04247e-08
-7.07971e-07
4.90391e-08
-7.42067e-07
4.66902e-08
-7.73562e-07
4.32653e-08
-8.01597e-07
3.8666e-08
-8.25258e-07
3.28146e-08
-8.43601e-07
2.56528e-08
-8.55636e-07
1.71348e-08
-8.60553e-07
7.50032e-09
-8.57507e-07
-3.34616e-09
-8.45801e-07
-1.51664e-08
-8.24946e-07
-2.76833e-08
-7.94706e-07
-4.05556e-08
-7.55149e-07
-5.33664e-08
-7.06692e-07
-6.563e-08
-6.50135e-07
-7.68128e-08
-5.86676e-07
-8.63614e-08
-5.17893e-07
-9.37394e-08
-4.45708e-07
-9.847e-08
-3.72305e-07
-1.00181e-07
-3.00031e-07
-9.86458e-08
-2.31266e-07
-9.38174e-08
-1.68282e-07
-8.5845e-08
-1.13105e-07
-7.50748e-08
-6.73791e-08
-6.20335e-08
-3.22532e-08
-4.74041e-08
-8.26911e-09
-3.20163e-08
4.78427e-09
-1.68984e-08
8.14773e-09
-3.45636e-09
4.65652e-09
5.967e-09
7.1616e-09
1.05178e-09
-2.16029e-09
2.58758e-09
-3.39369e-09
3.5997e-09
-2.51058e-09
3.51452e-09
-4.32943e-10
2.06616e-09
2.15982e-09
-8.04577e-10
4.85036e-09
-5.03418e-09
7.40093e-09
-1.04959e-08
9.69436e-09
-1.70396e-08
1.1691e-08
-2.45176e-08
1.34e-08
-3.28008e-08
1.48596e-08
-4.17871e-08
1.61233e-08
-5.14054e-08
1.72511e-08
-6.16162e-08
1.83034e-08
-7.24098e-08
1.93369e-08
-8.38043e-08
2.04032e-08
-9.58416e-08
2.15473e-08
-1.08585e-07
2.28081e-08
-1.22115e-07
2.4219e-08
-1.36528e-07
2.58078e-08
-1.51933e-07
2.75985e-08
-1.68451e-07
2.96113e-08
-1.8621e-07
3.18635e-08
-2.05348e-07
3.43698e-08
-2.26007e-07
3.71425e-08
-2.48336e-07
4.01909e-08
-2.72486e-07
4.35213e-08
-2.98607e-07
4.71364e-08
-3.26848e-07
5.10337e-08
-3.57352e-07
5.52051e-08
-3.90254e-07
5.96349e-08
-4.25671e-07
6.42986e-08
-4.637e-07
6.91608e-08
-5.04413e-07
7.41738e-08
-5.47843e-07
7.9275e-08
-5.93981e-07
8.43858e-08
-6.4276e-07
8.94088e-08
-6.94053e-07
9.42269e-08
-7.47652e-07
9.87021e-08
-8.03265e-07
1.02674e-07
-8.605e-07
1.0596e-07
-9.18857e-07
1.08358e-07
-9.77717e-07
1.09646e-07
-1.03634e-06
1.09586e-07
-1.09384e-06
1.07932e-07
-1.14924e-06
1.04434e-07
-1.2014e-06
9.88508e-08
-1.24909e-06
9.09582e-08
-1.29099e-06
8.05668e-08
-1.32571e-06
6.75362e-08
-1.35185e-06
5.17874e-08
-1.36796e-06
3.32407e-08
-1.37278e-06
1.23297e-08
-1.3652e-06
-1.09337e-08
-1.3442e-06
-3.61616e-08
-1.30916e-06
-6.27207e-08
-1.25983e-06
-8.98933e-08
-1.19638e-06
-1.1681e-07
-1.11955e-06
-1.42467e-07
-1.03058e-06
-1.65775e-07
-9.3134e-07
-1.85605e-07
-8.24206e-07
-2.00873e-07
-7.12061e-07
-2.10615e-07
-5.98165e-07
-2.14077e-07
-4.86008e-07
-2.10803e-07
-3.79132e-07
-2.00694e-07
-2.80925e-07
-1.84052e-07
-1.94416e-07
-1.61584e-07
-1.22075e-07
-1.34374e-07
-6.56276e-08
-1.03851e-07
-2.58755e-08
-7.17685e-08
-2.47328e-09
-4.03006e-08
6.43315e-09
-1.23628e-08
4.79263e-09
7.60752e-09
1.19542e-08
1.13048e-09
-3.29078e-09
2.61788e-09
-4.88109e-09
3.29517e-09
-3.18788e-09
2.50426e-09
3.57963e-10
-7.04563e-11
4.73453e-09
-4.50538e-09
9.28528e-09
-1.0729e-08
1.36245e-08
-1.85891e-08
1.75545e-08
-2.79016e-08
2.10035e-08
-3.8483e-08
2.39814e-08
-5.01712e-08
2.65477e-08
-6.28373e-08
2.87894e-08
-7.63915e-08
3.08053e-08
-9.07842e-08
3.26962e-08
-1.06005e-07
3.45575e-08
-1.22078e-07
3.64767e-08
-1.39062e-07
3.85307e-08
-1.5704e-07
4.07862e-08
-1.76121e-07
4.33004e-08
-1.96435e-07
4.61215e-08
-2.18127e-07
4.92907e-08
-2.41358e-07
5.28426e-08
-2.66302e-07
5.68066e-08
-2.93139e-07
6.12071e-08
-3.2206e-07
6.60637e-08
-3.5326e-07
7.1391e-08
-3.86936e-07
7.71974e-08
-4.23284e-07
8.34842e-08
-4.62494e-07
9.02439e-08
-5.04747e-07
9.74579e-08
-5.50207e-07
1.05094e-07
-5.99014e-07
1.13106e-07
-6.51278e-07
1.21425e-07
-7.07067e-07
1.29963e-07
-7.66397e-07
1.38605e-07
-8.29221e-07
1.4721e-07
-8.95415e-07
1.55603e-07
-9.64766e-07
1.63577e-07
-1.03695e-06
1.7089e-07
-1.11154e-06
1.77264e-07
-1.18797e-06
1.82385e-07
-1.26552e-06
1.85906e-07
-1.34332e-06
1.87454e-07
-1.42037e-06
1.86633e-07
-1.49547e-06
1.83035e-07
-1.56729e-06
1.76255e-07
-1.63435e-06
1.65905e-07
-1.69502e-06
1.51634e-07
-1.74761e-06
1.33156e-07
-1.79035e-06
1.10269e-07
-1.82144e-06
8.28838e-08
-1.83921e-06
5.10052e-08
-1.842e-06
1.51248e-08
-1.82847e-06
-2.44666e-08
-1.79751e-06
-6.71202e-08
-1.74842e-06
-1.1181e-07
-1.68099e-06
-1.5733e-07
-1.59555e-06
-2.02241e-07
-1.49312e-06
-2.44902e-07
-1.37536e-06
-2.83534e-07
-1.24465e-06
-3.16316e-07
-1.10403e-06
-3.41492e-07
-9.5714e-07
-3.57506e-07
-8.08074e-07
-3.63143e-07
-6.61219e-07
-3.57658e-07
-5.21027e-07
-3.40885e-07
-3.91775e-07
-3.13305e-07
-2.77297e-07
-2.76061e-07
-1.8074e-07
-2.30932e-07
-1.04311e-07
-1.8028e-07
-4.90439e-08
-1.27036e-07
-1.45225e-08
-7.4822e-08
1.49437e-09
-2.83797e-08
3.62092e-09
5.48097e-09
1.55751e-08
1.06183e-09
-4.35261e-09
2.23175e-09
-6.05102e-09
2.26585e-09
-3.22198e-09
4.64947e-10
2.15887e-09
-3.50857e-09
8.70804e-09
-9.73691e-09
1.55136e-08
-1.81388e-08
2.20264e-08
-2.85417e-08
2.79574e-08
-4.07351e-08
3.31969e-08
-5.45077e-08
3.7754e-08
-6.96719e-08
4.17119e-08
-8.60783e-08
4.51958e-08
-1.03623e-07
4.835e-08
-1.22249e-07
5.13227e-08
-1.41948e-07
5.42558e-08
-1.6275e-07
5.72794e-08
-1.84729e-07
6.05093e-08
-2.07989e-07
6.40458e-08
-2.32663e-07
6.79752e-08
-2.58912e-07
7.23706e-08
-2.86916e-07
7.72938e-08
-3.1687e-07
8.27972e-08
-3.48988e-07
8.89241e-08
-3.83491e-07
9.57101e-08
-4.2061e-07
1.03183e-07
-4.60581e-07
1.11362e-07
-5.03639e-07
1.20256e-07
-5.50017e-07
1.29862e-07
-5.99938e-07
1.40164e-07
-6.53607e-07
1.51128e-07
-7.1121e-07
1.62697e-07
-7.72895e-07
1.74791e-07
-8.3877e-07
1.873e-07
-9.08886e-07
2.00079e-07
-9.83228e-07
2.12947e-07
-1.06169e-06
2.25677e-07
-1.14409e-06
2.37997e-07
-1.2301e-06
2.49587e-07
-1.31928e-06
2.60074e-07
-1.41105e-06
2.69033e-07
-1.50466e-06
2.75992e-07
-1.59918e-06
2.80433e-07
-1.69353e-06
2.81802e-07
-1.78642e-06
2.79519e-07
-1.87638e-06
2.72995e-07
-1.96177e-06
2.61651e-07
-2.04081e-06
2.44943e-07
-2.11157e-06
2.22392e-07
-2.17203e-06
1.93617e-07
-2.22013e-06
1.58373e-07
-2.25384e-06
1.1659e-07
-2.27122e-06
6.83893e-08
-2.27046e-06
1.43611e-08
-2.25004e-06
-4.48816e-08
-2.20883e-06
-1.08333e-07
-2.14612e-06
-1.7452e-07
-2.06178e-06
-2.41672e-07
-1.95633e-06
-3.07696e-07
-1.831e-06
-3.70227e-07
-1.68782e-06
-4.26718e-07
-1.52957e-06
-4.74561e-07
-1.35981e-06
-5.11251e-07
-1.18275e-06
-5.34566e-07
-1.00313e-06
-5.42763e-07
-8.26027e-07
-5.34762e-07
-6.56605e-07
-5.10307e-07
-4.99845e-07
-4.70065e-07
-3.60242e-07
-4.15664e-07
-2.41504e-07
-3.4967e-07
-1.46262e-07
-2.75522e-07
-7.57815e-08
-1.97516e-07
-2.96639e-08
-1.2094e-07
-5.48224e-09
-5.25613e-08
1.67087e-09
-1.67214e-09
1.7246e-08
8.77428e-10
-5.23005e-09
1.50475e-09
-6.67835e-09
6.29048e-10
-2.34629e-09
-2.45334e-09
5.24125e-09
-8.07854e-09
1.43332e-08
-1.63214e-08
2.37564e-08
-2.70868e-08
3.27919e-08
-4.01833e-08
4.10539e-08
-5.53783e-08
4.83919e-08
-7.24384e-08
5.48141e-08
-9.11562e-08
6.04297e-08
-1.11367e-07
6.54063e-08
-1.32956e-07
6.99393e-08
-1.55864e-07
7.42303e-08
-1.80082e-07
7.84738e-08
-2.05651e-07
8.28491e-08
-2.32658e-07
8.75159e-08
-2.61226e-07
9.26136e-08
-2.91513e-07
9.8262e-08
-3.23705e-07
1.04563e-07
-3.58013e-07
1.11602e-07
-3.94667e-07
1.19451e-07
-4.33913e-07
1.2817e-07
-4.76008e-07
1.37806e-07
-5.21219e-07
1.48394e-07
-5.69814e-07
1.59957e-07
-6.22062e-07
1.72503e-07
-6.78221e-07
1.86022e-07
-7.38539e-07
2.00482e-07
-8.03238e-07
2.15827e-07
-8.72509e-07
2.31968e-07
-9.465e-07
2.48782e-07
-1.0253e-06
2.66103e-07
-1.10894e-06
2.83717e-07
-1.19735e-06
3.01356e-07
-1.29037e-06
3.18692e-07
-1.3877e-06
3.35335e-07
-1.48894e-06
3.50827e-07
-1.59351e-06
3.64641e-07
-1.70066e-06
3.76184e-07
-1.80947e-06
3.84801e-07
-1.91882e-06
3.8978e-07
-2.02738e-06
3.90366e-07
-2.13365e-06
3.85781e-07
-2.23589e-06
3.75241e-07
-2.33223e-06
3.57989e-07
-2.42061e-06
3.33324e-07
-2.49887e-06
3.00646e-07
-2.56475e-06
2.59497e-07
-2.61598e-06
2.09611e-07
-2.65036e-06
1.50968e-07
-2.66581e-06
8.38339e-08
-2.6604e-06
8.95687e-09
-2.63258e-06
-7.27032e-08
-2.58119e-06
-1.59719e-07
-2.50559e-06
-2.50121e-07
-2.40574e-06
-3.41524e-07
-2.2823e-06
-4.31131e-07
-2.13673e-06
-5.15798e-07
-1.9713e-06
-5.92152e-07
-1.78911e-06
-6.56748e-07
-1.59409e-06
-7.06273e-07
-1.39087e-06
-7.37782e-07
-1.18469e-06
-7.48951e-07
-9.81127e-07
-7.38321e-07
-7.85922e-07
-7.05512e-07
-6.0462e-07
-6.51368e-07
-4.42262e-07
-5.78022e-07
-3.03048e-07
-4.88884e-07
-1.89996e-07
-3.88573e-07
-1.0463e-07
-2.82882e-07
-4.66589e-08
-1.78911e-07
-1.36519e-08
-8.55683e-08
-7.07948e-10
-1.46161e-08
1.65381e-08
6.02446e-10
-5.8325e-09
4.99056e-10
-6.57496e-09
-1.51819e-09
-3.29042e-10
-6.12544e-09
9.8485e-09
-1.3636e-08
2.18438e-08
-2.41043e-08
3.42248e-08
-3.74157e-08
4.61033e-08
-5.33582e-08
5.69964e-08
-7.16794e-08
6.67131e-08
-9.21274e-08
7.5262e-08
-1.14479e-07
8.27815e-08
-1.38558e-07
8.94854e-08
-1.64244e-07
9.56248e-08
-1.91474e-07
1.0146e-07
-2.20244e-07
1.07244e-07
-2.50605e-07
1.1321e-07
-2.82655e-07
1.19566e-07
-3.16537e-07
1.26495e-07
-3.5243e-07
1.34155e-07
-3.90545e-07
1.42678e-07
-4.31121e-07
1.52178e-07
-4.74416e-07
1.62746e-07
-5.20706e-07
1.7446e-07
-5.7028e-07
1.87379e-07
-6.23431e-07
2.01545e-07
-6.80457e-07
2.16983e-07
-7.41649e-07
2.33695e-07
-8.07288e-07
2.5166e-07
-8.77633e-07
2.70827e-07
-9.52914e-07
2.91107e-07
-1.03332e-06
3.12373e-07
-1.11898e-06
3.34446e-07
-1.20997e-06
3.57091e-07
-1.30626e-06
3.8001e-07
-1.40774e-06
4.02832e-07
-1.51416e-06
4.25111e-07
-1.62514e-06
4.46317e-07
-1.74015e-06
4.65835e-07
-1.85848e-06
4.82966e-07
-1.97922e-06
4.96927e-07
-2.10128e-06
5.06861e-07
-2.22335e-06
5.11848e-07
-2.3439e-06
5.10921e-07
-2.46121e-06
5.03093e-07
-2.57336e-06
4.87386e-07
-2.67823e-06
4.62864e-07
-2.77359e-06
4.28682e-07
-2.85708e-06
3.84135e-07
-2.92629e-06
3.28709e-07
-2.97883e-06
2.62146e-07
-3.01237e-06
1.84506e-07
-3.02476e-06
9.62254e-08
-3.01406e-06
-1.73879e-09
-2.97871e-06
-1.08058e-07
-2.91758e-06
-2.20848e-07
-2.83009e-06
-3.3761e-07
-2.7163e-06
-4.55316e-07
-2.57699e-06
-5.70436e-07
-2.41377e-06
-6.79022e-07
-2.22908e-06
-7.76846e-07
-2.02623e-06
-8.59589e-07
-1.80942e-06
-9.23092e-07
-1.58356e-06
-9.63641e-07
-1.35423e-06
-9.7828e-07
-1.12743e-06
-9.6512e-07
-9.09327e-07
-9.23615e-07
-7.05938e-07
-8.54757e-07
-5.22776e-07
-7.61183e-07
-3.64487e-07
-6.47174e-07
-2.34472e-07
-5.18588e-07
-1.34548e-07
-3.82806e-07
-6.46235e-08
-2.48835e-07
-2.24225e-08
-1.27769e-07
-3.2753e-09
-3.37633e-08
1.32628e-08
2.56473e-10
-6.08899e-09
-7.35257e-10
-5.58324e-09
-4.09616e-09
3.03185e-09
-1.04467e-08
1.6199e-08
-2.0058e-08
3.1455e-08
-3.29514e-08
4.71183e-08
-4.89851e-08
6.2137e-08
-6.79242e-08
7.59355e-08
-8.94962e-08
8.82851e-08
-1.13433e-07
9.91988e-08
-1.39499e-07
1.08847e-07
-1.67508e-07
1.17495e-07
-1.97336e-07
1.25453e-07
-2.28922e-07
1.33046e-07
-2.62265e-07
1.40588e-07
-2.97426e-07
1.48371e-07
-3.34517e-07
1.56657e-07
-3.73697e-07
1.65675e-07
-4.15165e-07
1.75623e-07
-4.59156e-07
1.86669e-07
-5.0593e-07
1.98952e-07
-5.55773e-07
2.12589e-07
-6.08985e-07
2.27673e-07
-6.6588e-07
2.44274e-07
-7.26775e-07
2.62441e-07
-7.91989e-07
2.82197e-07
-8.6183e-07
3.03536e-07
-9.3659e-07
3.2642e-07
-1.01653e-06
3.50771e-07
-1.10189e-06
3.76463e-07
-1.19283e-06
4.03317e-07
-1.28947e-06
4.31087e-07
-1.39184e-06
4.59458e-07
-1.49986e-06
4.88031e-07
-1.61335e-06
5.1632e-07
-1.73198e-06
5.43739e-07
-1.85526e-06
5.69604e-07
-1.98255e-06
5.93125e-07
-2.113e-06
6.13414e-07
-2.24556e-06
6.29482e-07
-2.37896e-06
6.4026e-07
-2.51172e-06
6.44608e-07
-2.64214e-06
6.41345e-07
-2.76832e-06
6.29275e-07
-2.88816e-06
6.07228e-07
-2.99941e-06
5.74106e-07
-3.09966e-06
5.28935e-07
-3.18645e-06
4.70924e-07
-3.25727e-06
3.99531e-07
-3.30966e-06
3.14535e-07
-3.34126e-06
2.16103e-07
-3.34989e-06
1.04865e-07
-3.33366e-06
-1.79754e-08
-3.29101e-06
-1.50707e-07
-3.22088e-06
-2.90978e-07
-3.12275e-06
-4.35741e-07
-2.99674e-06
-5.8132e-07
-2.84373e-06
-7.23449e-07
-2.66539e-06
-8.57366e-07
-2.46426e-06
-9.77976e-07
-2.24378e-06
-1.08007e-06
-2.00826e-06
-1.15861e-06
-1.76284e-06
-1.20907e-06
-1.51331e-06
-1.2278e-06
-1.26598e-06
-1.21245e-06
-1.02738e-06
-1.16222e-06
-8.03908e-07
-1.07823e-06
-6.01521e-07
-9.6357e-07
-4.25285e-07
-8.2341e-07
-2.79e-07
-6.64873e-07
-1.64823e-07
-4.96983e-07
-8.2954e-08
-3.30705e-07
-3.13982e-08
-1.79325e-07
-5.88376e-09
-5.92778e-08
7.379e-09
-1.45977e-10
-5.94301e-09
-2.15847e-09
-3.57075e-09
-7.0398e-09
7.91318e-09
-1.53299e-08
2.44892e-08
-2.72398e-08
4.33649e-08
-4.27454e-08
6.26239e-08
-6.16698e-08
8.10614e-08
-8.37509e-08
9.80166e-08
-1.08695e-07
1.1323e-07
-1.36219e-07
1.26723e-07
-1.66075e-07
1.38703e-07
-1.98072e-07
1.49492e-07
-2.32082e-07
1.59463e-07
-2.68047e-07
1.6901e-07
-3.05972e-07
1.78513e-07
-3.45926e-07
1.88325e-07
-3.88036e-07
1.98767e-07
-4.32476e-07
2.10115e-07
-4.79463e-07
2.2261e-07
-5.2925e-07
2.36457e-07
-5.82121e-07
2.51823e-07
-6.38382e-07
2.68849e-07
-6.98354e-07
2.87645e-07
-7.6237e-07
3.0829e-07
-8.30767e-07
3.30838e-07
-9.03877e-07
3.55306e-07
-9.82017e-07
3.81677e-07
-1.06549e-06
4.09889e-07
-1.15454e-06
4.39829e-07
-1.24941e-06
4.71327e-07
-1.35023e-06
5.0414e-07
-1.45709e-06
5.37947e-07
-1.56997e-06
5.72337e-07
-1.68874e-06
6.06798e-07
-1.81313e-06
6.4071e-07
-1.94272e-06
6.73337e-07
-2.07694e-06
7.03823e-07
-2.21501e-06
7.31191e-07
-2.35594e-06
7.54348e-07
-2.49855e-06
7.72093e-07
-2.64143e-06
7.83135e-07
-2.78294e-06
7.86116e-07
-2.92123e-06
7.79637e-07
-3.05426e-06
7.62304e-07
-3.1798e-06
7.3277e-07
-3.29548e-06
6.89789e-07
-3.39883e-06
6.3228e-07
-3.4873e-06
5.59395e-07
-3.55836e-06
4.70591e-07
-3.60953e-06
3.65705e-07
-3.63846e-06
2.45039e-07
-3.64303e-06
1.09431e-07
-3.62136e-06
-3.96444e-08
-3.57197e-06
-2.00094e-07
-3.49385e-06
-3.69099e-07
-3.38652e-06
-5.4307e-07
-3.25015e-06
-7.17695e-07
-3.08562e-06
-8.87979e-07
-2.89463e-06
-1.04836e-06
-2.67972e-06
-1.19288e-06
-2.44438e-06
-1.31542e-06
-2.19295e-06
-1.41004e-06
-1.93066e-06
-1.47136e-06
-1.66347e-06
-1.495e-06
-1.3979e-06
-1.47802e-06
-1.14076e-06
-1.41936e-06
-8.98837e-07
-1.32015e-06
-6.7848e-07
-1.18393e-06
-4.85187e-07
-1.0167e-06
-3.2318e-07
-8.2688e-07
-1.95016e-07
-6.25147e-07
-1.01268e-07
-4.24452e-07
-4.03328e-08
-2.4026e-07
-8.44237e-09
-9.11682e-08
-1.06338e-09
-5.93144e-10
-5.34988e-09
-3.73932e-09
-4.24584e-10
-1.02963e-08
1.44702e-08
-2.07025e-08
3.48953e-08
-3.50923e-08
5.77547e-08
-5.33841e-08
8.09157e-08
-7.53579e-08
1.03035e-07
-1.0072e-07
1.23378e-07
-1.29152e-07
1.41663e-07
-1.60356e-07
1.57926e-07
-1.94074e-07
1.72421e-07
-2.30108e-07
1.85526e-07
-2.68331e-07
1.97686e-07
-3.08686e-07
2.09365e-07
-3.51186e-07
2.21013e-07
-3.95911e-07
2.3305e-07
-4.42998e-07
2.45853e-07
-4.92635e-07
2.59752e-07
-5.45057e-07
2.75033e-07
-6.00535e-07
2.91934e-07
-6.59368e-07
3.10656e-07
-7.21879e-07
3.31361e-07
-7.88409e-07
3.54174e-07
-8.59305e-07
3.79186e-07
-9.34914e-07
4.06447e-07
-1.01558e-06
4.35969e-07
-1.10162e-06
4.67716e-07
-1.19332e-06
5.01597e-07
-1.29095e-06
5.37458e-07
-1.3947e-06
5.75072e-07
-1.50468e-06
6.14126e-07
-1.62095e-06
6.5421e-07
-1.74342e-06
6.94805e-07
-1.87189e-06
7.35273e-07
-2.00603e-06
7.74849e-07
-2.14532e-06
8.12631e-07
-2.28908e-06
8.47579e-07
-2.43641e-06
8.78518e-07
-2.5862e-06
9.04145e-07
-2.73715e-06
9.23039e-07
-2.88771e-06
9.33689e-07
-3.03611e-06
9.34519e-07
-3.1804e-06
9.23925e-07
-3.31842e-06
9.00327e-07
-3.44787e-06
8.62218e-07
-3.56631e-06
8.08229e-07
-3.67122e-06
7.37197e-07
-3.76007e-06
6.48243e-07
-3.83033e-06
5.40845e-07
-3.87955e-06
4.14928e-07
-3.90545e-06
2.70939e-07
-3.90595e-06
1.09935e-07
-3.87927e-06
-6.63305e-08
-3.82397e-06
-2.55394e-07
-3.73908e-06
-4.53989e-07
-3.62414e-06
-6.58004e-07
-3.47932e-06
-8.62515e-07
-3.30547e-06
-1.06183e-06
-3.10422e-06
-1.24961e-06
-2.87807e-06
-1.41903e-06
-2.63042e-06
-1.56307e-06
-2.36559e-06
-1.67486e-06
-2.08883e-06
-1.74812e-06
-1.80616e-06
-1.77766e-06
-1.52427e-06
-1.75991e-06
-1.25024e-06
-1.69339e-06
-9.91166e-07
-1.57922e-06
-7.5382e-07
-1.42127e-06
-5.44147e-07
-1.22638e-06
-3.66833e-07
-1.00419e-06
-2.24893e-07
-7.67087e-07
-1.19355e-07
-5.29991e-07
-4.90913e-08
-3.10524e-07
-1.09058e-08
-1.29354e-07
-1.19691e-08
-1.0773e-09
-4.27259e-09
-5.45348e-09
3.9516e-09
-1.38229e-08
2.28396e-08
-2.65039e-08
4.75763e-08
-4.35391e-08
7.47899e-08
-6.47781e-08
1.02155e-07
-8.99491e-08
1.28206e-07
-1.18721e-07
1.5215e-07
-1.5075e-07
1.73692e-07
-1.8572e-07
1.92896e-07
-2.23362e-07
2.10063e-07
-2.63475e-07
2.25638e-07
-3.0593e-07
2.40141e-07
-3.50675e-07
2.5411e-07
-3.9773e-07
2.68068e-07
-4.47183e-07
2.82503e-07
-4.99183e-07
2.97854e-07
-5.53933e-07
3.14502e-07
-6.1168e-07
3.32779e-07
-6.72709e-07
3.52963e-07
-7.37335e-07
3.75282e-07
-8.05895e-07
3.99921e-07
-8.78741e-07
4.2702e-07
-9.5623e-07
4.56674e-07
-1.03872e-06
4.88933e-07
-1.12654e-06
5.23795e-07
-1.22003e-06
5.612e-07
-1.31945e-06
6.01023e-07
-1.42505e-06
6.4306e-07
-1.537e-06
6.87018e-07
-1.65538e-06
7.32503e-07
-1.78017e-06
7.79006e-07
-1.91126e-06
8.2589e-07
-2.04836e-06
8.72378e-07
-2.19106e-06
9.17546e-07
-2.33874e-06
9.60317e-07
-2.49063e-06
9.99462e-07
-2.64571e-06
1.0336e-06
-2.80277e-06
1.06121e-06
-2.96038e-06
1.08065e-06
-3.11689e-06
1.0902e-06
-3.27045e-06
1.08808e-06
-3.419e-06
1.07248e-06
-3.56034e-06
1.04166e-06
-3.69211e-06
9.93988e-07
-3.81186e-06
9.27982e-07
-3.9171e-06
8.42431e-07
-4.0053e-06
7.36447e-07
-4.07401e-06
6.09555e-07
-4.12086e-06
4.61779e-07
-4.14365e-06
2.93726e-07
-4.14038e-06
1.06668e-07
-4.10934e-06
-9.73694e-08
-4.04916e-06
-3.15575e-07
-3.95889e-06
-5.44265e-07
-3.83805e-06
-7.78844e-07
-3.68675e-06
-1.01381e-06
-3.50575e-06
-1.24283e-06
-3.29657e-06
-1.45879e-06
-3.06156e-06
-1.65404e-06
-2.80398e-06
-1.82065e-06
-2.52805e-06
-1.95079e-06
-2.23894e-06
-2.03724e-06
-1.94271e-06
-2.07389e-06
-1.64615e-06
-2.05646e-06
-1.35657e-06
-1.98298e-06
-1.08141e-06
-1.85438e-06
-8.27831e-07
-1.67485e-06
-6.02277e-07
-1.45193e-06
-4.09946e-07
-1.19652e-06
-2.5438e-07
-9.22653e-07
-1.37131e-07
-6.4724e-07
-5.76201e-08
-3.90035e-07
-1.32591e-08
-1.73715e-07
-2.52282e-08
-1.59226e-09
-2.68034e-09
-7.28197e-09
9.6413e-09
-1.75851e-08
3.31427e-08
-3.26835e-08
6.26747e-08
-5.25151e-08
9.46215e-08
-7.68488e-08
1.26488e-07
-1.05354e-07
1.56711e-07
-1.37655e-07
1.84451e-07
-1.7338e-07
2.09417e-07
-2.12192e-07
2.31708e-07
-2.53812e-07
2.51683e-07
-2.98033e-07
2.6986e-07
-3.44729e-07
2.86836e-07
-3.93849e-07
3.0323e-07
-4.45421e-07
3.1964e-07
-4.99542e-07
3.36625e-07
-5.56371e-07
3.54683e-07
-6.16123e-07
3.74254e-07
-6.79057e-07
3.95713e-07
-7.45469e-07
4.19375e-07
-8.15686e-07
4.455e-07
-8.90056e-07
4.74291e-07
-9.68936e-07
5.059e-07
-1.05269e-06
5.40428e-07
-1.14167e-06
5.77915e-07
-1.23622e-06
6.18345e-07
-1.33665e-06
6.61627e-07
-1.44322e-06
7.07593e-07
-1.55614e-06
7.55983e-07
-1.67555e-06
8.06429e-07
-1.8015e-06
8.58448e-07
-1.93391e-06
9.11418e-07
-2.07259e-06
9.64574e-07
-2.21721e-06
1.01699e-06
-2.36724e-06
1.06758e-06
-2.522e-06
1.11508e-06
-2.6806e-06
1.15806e-06
-2.84194e-06
1.19493e-06
-3.00471e-06
1.22397e-06
-3.16737e-06
1.24332e-06
-3.32821e-06
1.25104e-06
-3.4853e-06
1.24516e-06
-3.63653e-06
1.22372e-06
-3.77968e-06
1.18481e-06
-3.9124e-06
1.1267e-06
-4.03225e-06
1.04784e-06
-4.1368e-06
9.46976e-07
-4.2236e-06
8.2325e-07
-4.29029e-06
6.76246e-07
-4.33461e-06
5.06098e-07
-4.35445e-06
3.1357e-07
-4.34793e-06
1.00143e-07
-4.31339e-06
-1.31907e-07
-4.24951e-06
-3.79453e-07
-4.15534e-06
-6.38442e-07
-4.03034e-06
-9.03835e-07
-3.87454e-06
-1.16962e-06
-3.68854e-06
-1.42883e-06
-3.47366e-06
-1.67366e-06
-3.23206e-06
-1.89564e-06
-2.96678e-06
-2.08593e-06
-2.68186e-06
-2.23572e-06
-2.38234e-06
-2.33675e-06
-2.07426e-06
-2.38198e-06
-1.76448e-06
-2.36623e-06
-1.4605e-06
-2.28695e-06
-1.17009e-06
-2.14479e-06
-9.00873e-07
-1.94407e-06
-6.59792e-07
-1.69301e-06
-4.52629e-07
-1.40369e-06
-2.83517e-07
-1.09176e-06
-1.54607e-07
-7.7615e-07
-6.59231e-08
-4.7872e-07
-1.5508e-08
-2.2413e-07
-4.07362e-08
-2.13359e-09
-5.46747e-10
-9.21001e-09
1.67177e-08
-2.15546e-08
4.54873e-08
-3.91993e-08
8.03194e-08
-6.1964e-08
1.17386e-07
-8.95273e-08
1.54052e-07
-1.2149e-07
1.88674e-07
-1.57429e-07
2.2039e-07
-1.96938e-07
2.48926e-07
-2.39659e-07
2.74428e-07
-2.85299e-07
2.97323e-07
-3.33648e-07
3.18209e-07
-3.84578e-07
3.37766e-07
-4.38043e-07
3.56695e-07
-4.94077e-07
3.75675e-07
-5.52786e-07
3.95333e-07
-6.14338e-07
4.16235e-07
-6.78957e-07
4.38873e-07
-7.46912e-07
4.63668e-07
-8.18508e-07
4.90972e-07
-8.94082e-07
5.21073e-07
-9.73984e-07
5.54193e-07
-1.05858e-06
5.90494e-07
-1.14823e-06
6.30076e-07
-1.24328e-06
6.7297e-07
-1.34407e-06
7.19134e-07
-1.45089e-06
7.68446e-07
-1.56398e-06
8.20686e-07
-1.68353e-06
8.75529e-07
-1.80962e-06
9.32525e-07
-1.94227e-06
9.9109e-07
-2.08133e-06
1.05049e-06
-2.22656e-06
1.10981e-06
-2.37754e-06
1.16797e-06
-2.53368e-06
1.22372e-06
-2.69419e-06
1.27559e-06
-2.85811e-06
1.32198e-06
-3.02424e-06
1.36107e-06
-3.1912e-06
1.39093e-06
-3.35739e-06
1.40951e-06
-3.52102e-06
1.41467e-06
-3.68014e-06
1.40428e-06
-3.83263e-06
1.37621e-06
-3.97626e-06
1.32845e-06
-4.10874e-06
1.25917e-06
-4.22769e-06
1.16679e-06
-4.33077e-06
1.05005e-06
-4.41564e-06
9.08124e-07
-4.48006e-06
7.40669e-07
-4.5219e-06
5.47935e-07
-4.53917e-06
3.30835e-07
-4.53006e-06
9.10369e-08
-4.49301e-06
-1.68957e-07
-4.42671e-06
-4.45754e-07
-4.33017e-06
-7.34979e-07
-4.20279e-06
-1.03121e-06
-4.04443e-06
-1.32798e-06
-3.8555e-06
-1.61776e-06
-3.63709e-06
-1.89208e-06
-3.39105e-06
-2.14168e-06
-3.12017e-06
-2.35681e-06
-2.82824e-06
-2.52765e-06
-2.52013e-06
-2.64487e-06
-2.20176e-06
-2.70035e-06
-1.88005e-06
-2.68794e-06
-1.56268e-06
-2.60433e-06
-1.25775e-06
-2.44972e-06
-9.73334e-07
-2.22848e-06
-7.16969e-07
-1.94938e-06
-4.95065e-07
-1.62559e-06
-3.12422e-07
-1.27441e-06
-1.71855e-07
-9.16717e-07
-7.40426e-08
-5.76532e-07
-1.76713e-08
-2.80501e-07
-5.84075e-08
-2.69801e-09
2.15126e-09
-1.12261e-08
2.52458e-08
-2.57088e-08
5.997e-08
-4.60157e-08
1.00626e-07
-7.18376e-08
1.43208e-07
-1.02753e-07
1.84966e-07
-1.38286e-07
2.24207e-07
-1.7796e-07
2.60064e-07
-2.2133e-07
2.92296e-07
-2.68013e-07
3.21111e-07
-3.17704e-07
3.47015e-07
-3.70186e-07
3.70691e-07
-4.2533e-07
3.9291e-07
-4.83095e-07
4.14459e-07
-5.43519e-07
4.36098e-07
-6.06715e-07
4.58529e-07
-6.7286e-07
4.8238e-07
-7.42185e-07
5.08198e-07
-8.14968e-07
5.3645e-07
-8.9152e-07
5.67524e-07
-9.7218e-07
6.01733e-07
-1.0573e-06
6.39317e-07
-1.14725e-06
6.80444e-07
-1.24239e-06
7.25209e-07
-1.34305e-06
7.7363e-07
-1.44955e-06
8.25636e-07
-1.56217e-06
8.81063e-07
-1.68111e-06
9.39635e-07
-1.80654e-06
1.00095e-06
-1.9385e-06
1.06448e-06
-2.07693e-06
1.12952e-06
-2.22166e-06
1.19521e-06
-2.37236e-06
1.2605e-06
-2.52854e-06
1.32415e-06
-2.68953e-06
1.38471e-06
-2.85448e-06
1.44054e-06
-3.02234e-06
1.48983e-06
-3.19184e-06
1.53057e-06
-3.36154e-06
1.56063e-06
-3.5298e-06
1.57776e-06
-3.6948e-06
1.57967e-06
-3.85458e-06
1.56405e-06
-4.00704e-06
1.52867e-06
-4.15001e-06
1.47142e-06
-4.28125e-06
1.39041e-06
-4.3985e-06
1.28404e-06
-4.49952e-06
1.15108e-06
-4.58213e-06
9.90734e-07
-4.64422e-06
8.02758e-07
-4.68379e-06
5.87505e-07
-4.69898e-06
3.46022e-07
-4.68808e-06
8.01369e-08
-4.64957e-06
-2.07463e-07
-4.58216e-06
-5.13164e-07
-4.4848e-06
-8.32337e-07
-4.35678e-06
-1.15924e-06
-4.19775e-06
-1.487e-06
-4.0079e-06
-1.80761e-06
-3.78801e-06
-2.11197e-06
-3.5396e-06
-2.39008e-06
-3.26514e-06
-2.63127e-06
-2.96809e-06
-2.82469e-06
-2.65309e-06
-2.95988e-06
-2.32591e-06
-3.02752e-06
-1.99348e-06
-3.02037e-06
-1.66364e-06
-2.93417e-06
-1.34482e-06
-2.76855e-06
-1.04559e-06
-2.52771e-06
-7.74107e-07
-2.22086e-06
-5.37483e-07
-1.86222e-06
-3.4126e-07
-1.47063e-06
-1.88987e-07
-1.06899e-06
-8.20446e-08
-6.83474e-07
-1.97748e-08
-3.42771e-07
-7.81823e-08
-3.28314e-09
5.43439e-09
-1.33211e-08
3.52837e-08
-3.00289e-08
7.66778e-08
-5.31031e-08
1.23701e-07
-8.20941e-08
1.72199e-07
-1.16471e-07
2.19343e-07
-1.55675e-07
2.63411e-07
-1.99167e-07
3.03557e-07
-2.46463e-07
3.39592e-07
-2.97151e-07
3.718e-07
-3.50911e-07
4.00775e-07
-4.07518e-07
4.27298e-07
-4.66841e-07
4.52233e-07
-5.28842e-07
4.7646e-07
-5.93564e-07
5.00821e-07
-6.61126e-07
5.26092e-07
-7.31712e-07
5.52966e-07
-8.05559e-07
5.82045e-07
-8.82948e-07
6.1384e-07
-9.64197e-07
6.48773e-07
-1.04964e-06
6.8718e-07
-1.13964e-06
7.29317e-07
-1.23455e-06
7.75354e-07
-1.33473e-06
8.2538e-07
-1.44048e-06
8.79389e-07
-1.55213e-06
9.37282e-07
-1.66991e-06
9.98843e-07
-1.79401e-06
1.06374e-06
-1.92454e-06
1.13148e-06
-2.0615e-06
1.20144e-06
-2.20478e-06
1.27281e-06
-2.35416e-06
1.34459e-06
-2.50923e-06
1.41557e-06
-2.66943e-06
1.48436e-06
-2.83404e-06
1.54932e-06
-3.00213e-06
1.60863e-06
-3.17258e-06
1.66028e-06
-3.34409e-06
1.70208e-06
-3.51516e-06
1.7317e-06
-3.68413e-06
1.74673e-06
-3.84918e-06
1.74472e-06
-4.00838e-06
1.72325e-06
-4.15968e-06
1.67997e-06
-4.30098e-06
1.61272e-06
-4.43014e-06
1.51958e-06
-4.54505e-06
1.39895e-06
-4.64361e-06
1.24963e-06
-4.72378e-06
1.0709e-06
-4.7836e-06
8.62585e-07
-4.82124e-06
6.25139e-07
-4.83493e-06
3.5972e-07
-4.82308e-06
6.82824e-08
-4.7842e-06
-2.46343e-07
-4.71698e-06
-5.80382e-07
-4.62031e-06
-9.29011e-07
-4.49331e-06
-1.28624e-06
-4.33544e-06
-1.64487e-06
-4.14658e-06
-1.99647e-06
-3.92718e-06
-2.33138e-06
-3.67839e-06
-2.63886e-06
-3.40228e-06
-2.90739e-06
-3.10194e-06
-3.12502e-06
-2.78171e-06
-3.28011e-06
-2.44718e-06
-3.36205e-06
-2.10522e-06
-3.36233e-06
-1.7638e-06
-3.27559e-06
-1.43169e-06
-3.10065e-06
-1.11798e-06
-2.84141e-06
-8.31498e-07
-2.50735e-06
-5.80125e-07
-2.11359e-06
-3.70219e-07
-1.68054e-06
-2.06135e-07
-1.23307e-06
-9.00081e-08
-7.99601e-07
-2.18474e-08
-4.10932e-07
-1.0003e-07
-3.88718e-09
9.32156e-09
-1.5488e-08
4.68846e-08
-3.44999e-08
9.56896e-08
-6.0436e-08
1.49637e-07
-9.26973e-08
2.0446e-07
-1.30633e-07
2.57279e-07
-1.73596e-07
3.06374e-07
-2.20981e-07
3.50941e-07
-2.72254e-07
3.90865e-07
-3.26976e-07
4.26522e-07
-3.84809e-07
4.58607e-07
-4.45517e-07
4.88006e-07
-5.08968e-07
5.15685e-07
-5.75125e-07
5.42617e-07
-6.44035e-07
5.69731e-07
-7.15822e-07
5.97879e-07
-7.90674e-07
6.27817e-07
-8.68832e-07
6.60203e-07
-9.5058e-07
6.95589e-07
-1.03624e-06
7.34429e-07
-1.12614e-06
7.77083e-07
-1.22064e-06
8.23815e-07
-1.32008e-06
8.74797e-07
-1.4248e-06
9.30104e-07
-1.53512e-06
9.89707e-07
-1.65131e-06
1.05347e-06
-1.77358e-06
1.12112e-06
-1.90209e-06
1.19225e-06
-2.0369e-06
1.26629e-06
-2.17798e-06
1.34252e-06
-2.32516e-06
1.41999e-06
-2.47814e-06
1.49757e-06
-2.63647e-06
1.57391e-06
-2.79954e-06
1.64742e-06
-2.96654e-06
1.71632e-06
-3.1365e-06
1.77859e-06
-3.30825e-06
1.83203e-06
-3.48045e-06
1.87428e-06
-3.65159e-06
1.90284e-06
-3.82e-06
1.91515e-06
-3.9839e-06
1.90863e-06
-4.1414e-06
1.88075e-06
-4.29054e-06
1.82911e-06
-4.42932e-06
1.7515e-06
-4.55574e-06
1.646e-06
-4.66782e-06
1.51103e-06
-4.76362e-06
1.34543e-06
-4.84128e-06
1.14856e-06
-4.89901e-06
9.20315e-07
-4.9351e-06
6.61233e-07
-4.94793e-06
3.72554e-07
-4.93597e-06
5.632e-08
-4.89777e-06
-2.84543e-07
-4.832e-06
-6.46156e-07
-4.73743e-06