/*--------------------------------*- C++ -*----------------------------------*\
  =========                 |
  \\      /  F ield         | OpenFOAM: The Open Source CFD Toolbox
   \\    /   O peration     | Website:  https://openfoam.org
    \\  /    A nd           | Version:  12
     \\/     M anipulation  |
\*---------------------------------------------------------------------------*/
FoamFile
{
    format      ascii;
    class       volScalarField;
    location    "8.5";
    object      epsilon;
}
// * * * * * * * * * * * * * * * * * * * * * * * * * * * * * * * * * * * * * //

dimensions      [0 2 -3 0 0 0 0];

internalField   nonuniform List<scalar> 
5625
(
3.64226e-11
6.87795e-11
1.45804e-10
2.37764e-10
3.41376e-10
4.54158e-10
5.74302e-10
7.00418e-10
8.31363e-10
9.66154e-10
1.10391e-09
1.24381e-09
1.3851e-09
1.52707e-09
1.66902e-09
1.8103e-09
1.95027e-09
2.08833e-09
2.22389e-09
2.35637e-09
2.48524e-09
2.60997e-09
2.73005e-09
2.84502e-09
2.95441e-09
3.05779e-09
3.15477e-09
3.24495e-09
3.328e-09
3.40358e-09
3.47141e-09
3.53121e-09
3.58275e-09
3.62583e-09
3.66027e-09
3.68593e-09
3.7027e-09
3.71051e-09
3.70932e-09
3.69912e-09
3.67991e-09
3.65176e-09
3.61476e-09
3.56903e-09
3.51472e-09
3.45203e-09
3.38118e-09
3.30243e-09
3.21606e-09
3.12239e-09
3.02178e-09
2.9146e-09
2.80127e-09
2.68223e-09
2.55796e-09
2.42894e-09
2.29571e-09
2.15882e-09
2.01886e-09
1.87643e-09
1.73218e-09
1.58677e-09
1.44091e-09
1.29531e-09
1.15077e-09
1.00811e-09
8.68196e-10
7.32e-10
6.00593e-10
4.75213e-10
3.57363e-10
2.48984e-10
1.5272e-10
7.20503e-11
3.81542e-11
2.46239e-10
1.33954e-10
1.3038e-10
1.55742e-10
1.94761e-10
2.41973e-10
2.94754e-10
3.51594e-10
4.11498e-10
4.7374e-10
5.37742e-10
6.03021e-10
6.6915e-10
7.35741e-10
8.02439e-10
8.68909e-10
9.34832e-10
9.99907e-10
1.06385e-09
1.12637e-09
1.18722e-09
1.24614e-09
1.30289e-09
1.35723e-09
1.40896e-09
1.45786e-09
1.50374e-09
1.54642e-09
1.58573e-09
1.62152e-09
1.65365e-09
1.68198e-09
1.70641e-09
1.72684e-09
1.74318e-09
1.75537e-09
1.76335e-09
1.76709e-09
1.76658e-09
1.76179e-09
1.75274e-09
1.73945e-09
1.72197e-09
1.70036e-09
1.67469e-09
1.64505e-09
1.61154e-09
1.5743e-09
1.53345e-09
1.48915e-09
1.44157e-09
1.39089e-09
1.33731e-09
1.28104e-09
1.22232e-09
1.16137e-09
1.09846e-09
1.03387e-09
9.67865e-10
9.00758e-10
8.32864e-10
7.6452e-10
6.96083e-10
6.27936e-10
5.60496e-10
4.94221e-10
4.29635e-10
3.6736e-10
3.08174e-10
2.53138e-10
2.03855e-10
1.6309e-10
1.36584e-10
1.40359e-10
2.58002e-10
5.47318e-10
2.68278e-10
2.06899e-10
1.95351e-10
2.04809e-10
2.2586e-10
2.54264e-10
2.87716e-10
3.24797e-10
3.64553e-10
4.06291e-10
4.49476e-10
4.93676e-10
5.38527e-10
5.83707e-10
6.28934e-10
6.73948e-10
7.18507e-10
7.6239e-10
8.05385e-10
8.47294e-10
8.8793e-10
9.27116e-10
9.64683e-10
1.00047e-09
1.03434e-09
1.06614e-09
1.09575e-09
1.12304e-09
1.1479e-09
1.17024e-09
1.18996e-09
1.20698e-09
1.22122e-09
1.23264e-09
1.24118e-09
1.2468e-09
1.24948e-09
1.24919e-09
1.24595e-09
1.23974e-09
1.23058e-09
1.21852e-09
1.20358e-09
1.18582e-09
1.16531e-09
1.14211e-09
1.11633e-09
1.08805e-09
1.05738e-09
1.02446e-09
9.89404e-10
9.52368e-10
9.13505e-10
8.72983e-10
8.30982e-10
7.87696e-10
7.43329e-10
6.98103e-10
6.52254e-10
6.06037e-10
5.59728e-10
5.13633e-10
4.68094e-10
4.23503e-10
3.80324e-10
3.39125e-10
3.00644e-10
2.65893e-10
2.36366e-10
2.14489e-10
2.04713e-10
2.16911e-10
2.81304e-10
5.73856e-10
9.04606e-10
4.33972e-10
3.14671e-10
2.71284e-10
2.58021e-10
2.60644e-10
2.73037e-10
2.92003e-10
3.15633e-10
3.42676e-10
3.72254e-10
4.03714e-10
4.36546e-10
4.70341e-10
5.04755e-10
5.39492e-10
5.74294e-10
6.08929e-10
6.43183e-10
6.76864e-10
7.09792e-10
7.41801e-10
7.72735e-10
8.02448e-10
8.30804e-10
8.57675e-10
8.82944e-10
9.06499e-10
9.2824e-10
9.48071e-10
9.65909e-10
9.81677e-10
9.95306e-10
1.00674e-09
1.01592e-09
1.02281e-09
1.02738e-09
1.0296e-09
1.02946e-09
1.02696e-09
1.02209e-09
1.01487e-09
1.00533e-09
9.93495e-10
9.79415e-10
9.63141e-10
9.44737e-10
9.24277e-10
9.01843e-10
8.77532e-10
8.51446e-10
8.23701e-10
7.94423e-10
7.63749e-10
7.31828e-10
6.98821e-10
6.64902e-10
6.30261e-10
5.95105e-10
5.59658e-10
5.2417e-10
4.8892e-10
4.54225e-10
4.20455e-10
3.88048e-10
3.57544e-10
3.29634e-10
3.05244e-10
2.85689e-10
2.72979e-10
2.70472e-10
2.84584e-10
3.30252e-10
4.55529e-10
9.49486e-10
1.30137e-09
6.19803e-10
4.39636e-10
3.65248e-10
3.31493e-10
3.18521e-10
3.1804e-10
3.25835e-10
3.39459e-10
3.57344e-10
3.78411e-10
4.01873e-10
4.27131e-10
4.53709e-10
4.81218e-10
5.09333e-10
5.37773e-10
5.66293e-10
5.94677e-10
6.22729e-10
6.50271e-10
6.77142e-10
7.0319e-10
7.28278e-10
7.52277e-10
7.75066e-10
7.96536e-10
8.16584e-10
8.35117e-10
8.52049e-10
8.67301e-10
8.80804e-10
8.92495e-10
9.02319e-10
9.1023e-10
9.16189e-10
9.20167e-10
9.2214e-10
9.22096e-10
9.20034e-10
9.15947e-10
9.09853e-10
9.01773e-10
8.91738e-10
8.79787e-10
8.65969e-10
8.50343e-10
8.32976e-10
8.13947e-10
7.93343e-10
7.71263e-10
7.47816e-10
7.23122e-10
6.97314e-10
6.70535e-10
6.42944e-10
6.14715e-10
5.86037e-10
5.57122e-10
5.28204e-10
4.99548e-10
4.71455e-10
4.44273e-10
4.18418e-10
3.94393e-10
3.72835e-10
3.54575e-10
3.40749e-10
3.33003e-10
3.33906e-10
3.47882e-10
3.83638e-10
4.62025e-10
6.51497e-10
1.36788e-09
1.72677e-09
8.19788e-10
5.75829e-10
4.70182e-10
4.16736e-10
3.89472e-10
3.77672e-10
3.75988e-10
3.81369e-10
3.91902e-10
4.06292e-10
4.23609e-10
4.43155e-10
4.64385e-10
4.86861e-10
5.10219e-10
5.34154e-10
5.584e-10
5.82725e-10
6.06924e-10
6.30811e-10
6.5422e-10
6.76998e-10
6.99005e-10
7.20114e-10
7.40209e-10
7.59182e-10
7.76932e-10
7.9337e-10
8.08411e-10
8.21982e-10
8.34014e-10
8.44448e-10
8.5323e-10
8.60318e-10
8.65672e-10
8.69265e-10
8.71075e-10
8.71089e-10
8.69308e-10
8.65722e-10
8.60349e-10
8.5321e-10
8.44335e-10
8.3376e-10
8.21535e-10
8.07715e-10
7.92367e-10
7.75568e-10
7.57405e-10
7.37975e-10
7.17388e-10
6.95763e-10
6.73236e-10
6.49952e-10
6.26076e-10
6.01786e-10
5.77283e-10
5.52789e-10
5.28555e-10
5.04865e-10
4.82052e-10
4.60508e-10
4.40703e-10
4.23214e-10
4.08778e-10
3.98369e-10
3.93347e-10
3.95722e-10
4.08694e-10
4.37889e-10
4.94572e-10
6.06115e-10
8.63155e-10
1.81814e-09
2.17263e-09
1.02976e-09
7.19689e-10
5.82317e-10
5.09476e-10
4.68604e-10
4.46382e-10
4.3623e-10
4.34446e-10
4.38734e-10
4.4757e-10
4.5987e-10
4.74832e-10
4.91835e-10
5.10389e-10
5.30089e-10
5.50599e-10
5.7163e-10
5.92933e-10
6.14288e-10
6.35501e-10
6.56398e-10
6.7682e-10
6.96625e-10
7.15681e-10
7.3387e-10
7.51081e-10
7.67217e-10
7.82184e-10
7.95902e-10
8.08295e-10
8.19296e-10
8.28848e-10
8.36897e-10
8.43401e-10
8.48323e-10
8.51634e-10
8.53315e-10
8.53352e-10
8.51747e-10
8.4849e-10
8.436e-10
8.37096e-10
8.29009e-10
8.19376e-10
8.08246e-10
7.95676e-10
7.81733e-10
7.66495e-10
7.50051e-10
7.32501e-10
7.13956e-10
6.94541e-10
6.74393e-10
6.53666e-10
6.32532e-10
6.11181e-10
5.89827e-10
5.6871e-10
5.48102e-10
5.28317e-10
5.09716e-10
4.9273e-10
4.77882e-10
4.65829e-10
4.57416e-10
4.5378e-10
4.56523e-10
4.68052e-10
4.92262e-10
5.36075e-10
6.13515e-10
7.58902e-10
1.08631e-09
2.29205e-09
2.63227e-09
1.24645e-09
8.68644e-10
6.99173e-10
6.07083e-10
5.53024e-10
5.20961e-10
5.03018e-10
4.948e-10
4.9361e-10
4.97664e-10
5.05725e-10
5.16876e-10
5.30418e-10
5.45803e-10
5.62585e-10
5.80393e-10
5.98915e-10
6.17882e-10
6.3706e-10
6.5624e-10
6.7524e-10
6.93894e-10
7.12052e-10
7.2958e-10
7.46356e-10
7.62266e-10
7.7721e-10
7.91095e-10
8.03837e-10
8.15362e-10
8.25603e-10
8.345e-10
8.42002e-10
8.48066e-10
8.52655e-10
8.5574e-10
8.57303e-10
8.57331e-10
8.55826e-10
8.52778e-10
8.48206e-10
8.42132e-10
8.34587e-10
8.25609e-10
8.15248e-10
8.03564e-10
7.90626e-10
7.76514e-10
7.61321e-10
7.45151e-10
7.28122e-10
7.10363e-10
6.92021e-10
6.73259e-10
6.54257e-10
6.35215e-10
6.16362e-10
5.97953e-10
5.80282e-10
5.63688e-10
5.48571e-10
5.35408e-10
5.24781e-10
5.1743e-10
5.14315e-10
5.16741e-10
5.26575e-10
5.46654e-10
5.81601e-10
6.39716e-10
7.37916e-10
9.17756e-10
1.31762e-09
2.78286e-09
3.10004e-09
1.46711e-09
1.02065e-09
8.18897e-10
7.07699e-10
6.40774e-10
5.993e-10
5.74066e-10
5.59955e-10
5.5385e-10
5.53707e-10
5.58105e-10
5.66022e-10
5.76672e-10
5.89447e-10
6.03854e-10
6.19491e-10
6.36018e-10
6.53145e-10
6.70621e-10
6.88227e-10
7.05766e-10
7.23066e-10
7.3997e-10
7.56338e-10
7.72043e-10
7.86968e-10
8.01011e-10
8.14077e-10
8.26079e-10
8.36943e-10
8.466e-10
8.54991e-10
8.62063e-10
8.67774e-10
8.72087e-10
8.74974e-10
8.76415e-10
8.76399e-10
8.74929e-10
8.71996e-10
8.67622e-10
8.61828e-10
8.54648e-10
8.46122e-10
8.36304e-10
8.25254e-10
8.13045e-10
7.99762e-10
7.855e-10
7.70369e-10
7.5449e-10
7.38002e-10
7.21058e-10
7.03829e-10
6.86509e-10
6.6931e-10
6.52477e-10
6.36284e-10
6.21048e-10
6.07138e-10
5.94987e-10
5.8512e-10
5.78185e-10
5.75006e-10
5.76665e-10
5.84648e-10
6.01103e-10
6.29307e-10
6.74652e-10
7.46862e-10
8.65833e-10
1.08054e-09
1.55424e-09
3.28464e-09
3.57099e-09
1.68938e-09
1.17398e-09
9.39997e-10
8.09894e-10
7.304e-10
6.79876e-10
6.47755e-10
6.28184e-10
6.17612e-10
6.13725e-10
6.14925e-10
6.20058e-10
6.28264e-10
6.38865e-10
6.51325e-10
6.65203e-10
6.80132e-10
6.958e-10
7.11941e-10
7.28318e-10
7.44727e-10
7.60985e-10
7.76927e-10
7.92408e-10
8.07295e-10
8.21468e-10
8.34821e-10
8.47257e-10
8.58688e-10
8.69036e-10
8.78233e-10
8.86218e-10
8.9294e-10
8.98355e-10
9.02426e-10
9.05126e-10
9.06436e-10
9.06346e-10
9.04859e-10
9.01968e-10
8.97696e-10
8.92066e-10
8.85115e-10
8.76885e-10
8.67431e-10
8.56818e-10
8.45123e-10
8.32434e-10
8.18852e-10
8.04492e-10
7.89482e-10
7.73968e-10
7.58112e-10
7.42095e-10
7.2612e-10
7.10416e-10
6.95242e-10
6.80893e-10
6.6771e-10
6.5609e-10
6.46506e-10
6.39533e-10
6.35882e-10
6.36469e-10
6.425e-10
6.55659e-10
6.78371e-10
7.14376e-10
7.69848e-10
8.55965e-10
9.95645e-10
1.24537e-09
1.79358e-09
3.79205e-09
4.04084e-09
1.91121e-09
1.32716e-09
1.06123e-09
9.1251e-10
8.20762e-10
7.61525e-10
7.22871e-10
6.98207e-10
6.83542e-10
6.76288e-10
6.74666e-10
6.77391e-10
6.83515e-10
6.92299e-10
7.03156e-10
7.15607e-10
7.29259e-10
7.43776e-10
7.58872e-10
7.74298e-10
7.89838e-10
8.05298e-10
8.20506e-10
8.35311e-10
8.49575e-10
8.63174e-10
8.75997e-10
8.87945e-10
8.98928e-10
9.08868e-10
9.17695e-10
9.25346e-10
9.31771e-10
9.36925e-10
9.40773e-10
9.43288e-10
9.44451e-10
9.44254e-10
9.427e-10
9.39784e-10
9.35532e-10
9.29969e-10
9.23132e-10
9.15069e-10
9.05836e-10
8.95503e-10
8.8415e-10
8.7187e-10
8.5877e-10
8.4497e-10
8.30606e-10
8.1583e-10
8.00814e-10
7.85749e-10
7.7085e-10
7.56361e-10
7.42557e-10
7.29754e-10
7.18316e-10
7.08672e-10
7.01334e-10
6.96928e-10
6.96234e-10
7.00254e-10
7.10341e-10
7.28359e-10
7.57027e-10
8.0055e-10
8.65896e-10
9.65704e-10
1.12592e-09
1.41057e-09
2.03327e-09
4.3001e-09
4.50585e-09
2.13081e-09
1.47895e-09
1.18155e-09
1.01459e-09
9.10937e-10
8.43322e-10
7.98465e-10
7.69036e-10
7.50606e-10
7.40309e-10
7.36182e-10
7.36817e-10
7.41163e-10
7.48428e-10
7.57969e-10
7.69271e-10
7.81909e-10
7.95525e-10
8.09816e-10
8.24516e-10
8.39397e-10
8.54256e-10
8.68914e-10
8.83212e-10
8.97005e-10
9.10168e-10
9.22585e-10
9.34155e-10
9.44785e-10
9.54397e-10
9.62917e-10
9.70285e-10
9.76449e-10
9.81364e-10
9.84996e-10
9.87319e-10
9.88314e-10
9.87976e-10
9.86308e-10
9.83307e-10
9.79002e-10
9.73419e-10
9.666e-10
9.58593e-10
9.4946e-10
9.39274e-10
9.2812e-10
9.16095e-10
9.03311e-10
8.89896e-10
8.75991e-10
8.61758e-10
8.47377e-10
8.3305e-10
8.19004e-10
8.05497e-10
7.92822e-10
7.81315e-10
7.71366e-10
7.63436e-10
7.58076e-10
7.55964e-10
7.57947e-10
7.65129e-10
7.78993e-10
8.01594e-10
8.35945e-10
8.86718e-10
9.61671e-10
1.0749e-09
1.25535e-09
1.57453e-09
2.27107e-09
4.80407e-09
4.96282e-09
2.34668e-09
1.62828e-09
1.30007e-09
1.11536e-09
1.00018e-09
9.24526e-10
8.73785e-10
8.39896e-10
8.17997e-10
8.04944e-10
7.98591e-10
7.97404e-10
8.00238e-10
8.06235e-10
8.14702e-10
8.25086e-10
8.36932e-10
8.49858e-10
8.6354e-10
8.77699e-10
8.92095e-10
9.06513e-10
9.20768e-10
9.34692e-10
9.48138e-10
9.60973e-10
9.7308e-10
9.84355e-10
9.94703e-10
1.00404e-09
1.0123e-09
1.01942e-09
1.02535e-09
1.03003e-09
1.03345e-09
1.03556e-09
1.03636e-09
1.03585e-09
1.03402e-09
1.03088e-09
1.02645e-09
1.02077e-09
1.01388e-09
1.00584e-09
9.96697e-10
9.86542e-10
9.75462e-10
9.63559e-10
9.5095e-10
9.37768e-10
9.24165e-10
9.10308e-10
8.96386e-10
8.82614e-10
8.6923e-10
8.56507e-10
8.44756e-10
8.34333e-10
8.25653e-10
8.19211e-10
8.15597e-10
8.15543e-10
8.1996e-10
8.30061e-10
8.4745e-10
8.74377e-10
9.14148e-10
9.71894e-10
1.05615e-09
1.18245e-09
1.38271e-09
1.73576e-09
2.50482e-09
5.29943e-09
5.40913e-09
2.55757e-09
1.77426e-09
1.41608e-09
1.21416e-09
1.08788e-09
1.00455e-09
9.48239e-10
9.10181e-10
8.85084e-10
8.69535e-10
8.61204e-10
8.58431e-10
8.59984e-10
8.64926e-10
8.72528e-10
8.8219e-10
8.93429e-10
9.05838e-10
9.19076e-10
9.32847e-10
9.46897e-10
9.61005e-10
9.74974e-10
9.88631e-10
1.00182e-09
1.01442e-09
1.02629e-09
1.03733e-09
1.04744e-09
1.05655e-09
1.06458e-09
1.07147e-09
1.07716e-09
1.08161e-09
1.0848e-09
1.08669e-09
1.08727e-09
1.08654e-09
1.0845e-09
1.08115e-09
1.07654e-09
1.07069e-09
1.06365e-09
1.05548e-09
1.04624e-09
1.03601e-09
1.0249e-09
1.013e-09
1.00044e-09
9.87359e-10
9.73917e-10
9.6029e-10
9.46677e-10
9.333e-10
9.20412e-10
9.08301e-10
8.97294e-10
8.87768e-10
8.80166e-10
8.75012e-10
8.7294e-10
8.74727e-10
8.81365e-10
8.94155e-10
9.14831e-10
9.45834e-10
9.90754e-10
1.05518e-09
1.1484e-09
1.28733e-09
1.50681e-09
1.8928e-09
2.73246e-09
5.78181e-09
5.84272e-09
2.7625e-09
1.91622e-09
1.52903e-09
1.31051e-09
1.17358e-09
1.08293e-09
1.02137e-09
9.79425e-10
9.51387e-10
9.33579e-10
9.23493e-10
9.19345e-10
9.19814e-10
9.23889e-10
9.30801e-10
9.39908e-10
9.50695e-10
9.62733e-10
9.7566e-10
9.89166e-10
1.00299e-09
1.01688e-09
1.03066e-09
1.04413e-09
1.05714e-09
1.06955e-09
1.08123e-09
1.09208e-09
1.102e-09
1.11089e-09
1.1187e-09
1.12536e-09
1.13082e-09
1.13503e-09
1.13796e-09
1.13959e-09
1.13991e-09
1.13893e-09
1.13662e-09
1.13303e-09
1.12816e-09
1.12207e-09
1.11481e-09
1.10642e-09
1.09699e-09
1.0866e-09
1.07534e-09
1.06334e-09
1.05072e-09
1.03763e-09
1.02423e-09
1.0107e-09
9.97259e-10
9.84137e-10
9.71599e-10
9.59946e-10
9.49523e-10
9.40729e-10
9.34032e-10
9.29987e-10
9.29268e-10
9.32699e-10
9.41353e-10
9.56612e-10
9.80341e-10
1.01517e-09
1.06495e-09
1.13572e-09
1.2375e-09
1.38857e-09
1.62652e-09
2.04423e-09
2.95195e-09
6.24691e-09
6.26212e-09
2.96079e-09
2.05367e-09
1.63853e-09
1.40406e-09
1.25696e-09
1.15937e-09
1.09286e-09
1.04729e-09
1.01656e-09
9.96708e-10
9.85068e-10
9.79731e-10
9.79289e-10
9.82661e-10
9.89033e-10
9.97724e-10
1.00819e-09
1.01997e-09
1.0327e-09
1.04604e-09
1.05971e-09
1.07348e-09
1.08713e-09
1.10047e-09
1.11335e-09
1.12561e-09
1.13714e-09
1.14782e-09
1.15754e-09
1.16623e-09
1.17382e-09
1.18024e-09
1.18544e-09
1.18938e-09
1.19203e-09
1.19336e-09
1.19338e-09
1.19208e-09
1.18946e-09
1.18555e-09
1.18037e-09
1.17397e-09
1.1664e-09
1.15772e-09
1.14801e-09
1.13736e-09
1.12588e-09
1.11368e-09
1.10089e-09
1.08768e-09
1.07421e-09
1.06066e-09
1.04727e-09
1.03428e-09
1.02196e-09
1.01063e-09
1.00064e-09
9.92432e-10
9.8648e-10
9.83377e-10
9.83833e-10
9.88724e-10
9.99194e-10
1.01671e-09
1.04325e-09
1.08163e-09
1.13598e-09
1.21273e-09
1.32262e-09
1.4852e-09
1.74074e-09
2.18869e-09
3.16131e-09
6.69055e-09
6.66653e-09
3.15204e-09
2.18635e-09
1.74434e-09
1.49461e-09
1.33781e-09
1.23365e-09
1.1625e-09
1.11358e-09
1.08036e-09
1.05868e-09
1.04567e-09
1.03931e-09
1.0381e-09
1.04091e-09
1.04687e-09
1.05526e-09
1.06551e-09
1.07713e-09
1.08974e-09
1.10298e-09
1.11658e-09
1.13027e-09
1.14384e-09
1.15709e-09
1.16986e-09
1.182e-09
1.19337e-09
1.20388e-09
1.21341e-09
1.22188e-09
1.22922e-09
1.23537e-09
1.24028e-09
1.24391e-09
1.24623e-09
1.24722e-09
1.24688e-09
1.24521e-09
1.2422e-09
1.2379e-09
1.23234e-09
1.22555e-09
1.2176e-09
1.20855e-09
1.19849e-09
1.1875e-09
1.17569e-09
1.1632e-09
1.15016e-09
1.13672e-09
1.12307e-09
1.10941e-09
1.09596e-09
1.08298e-09
1.07075e-09
1.05962e-09
1.04994e-09
1.04217e-09
1.03682e-09
1.0345e-09
1.03596e-09
1.04213e-09
1.05422e-09
1.07376e-09
1.10288e-09
1.14453e-09
1.2031e-09
1.28543e-09
1.40291e-09
1.5763e-09
1.84838e-09
2.32482e-09
3.35859e-09
7.1086e-09
7.05576e-09
3.33617e-09
2.31418e-09
1.84642e-09
1.58211e-09
1.41609e-09
1.30571e-09
1.23022e-09
1.17818e-09
1.1427e-09
1.11936e-09
1.10514e-09
1.09791e-09
1.09607e-09
1.09844e-09
1.10409e-09
1.11227e-09
1.12238e-09
1.13392e-09
1.14647e-09
1.15967e-09
1.17323e-09
1.18687e-09
1.20038e-09
1.21355e-09
1.22622e-09
1.23822e-09
1.24944e-09
1.25975e-09
1.26906e-09
1.27727e-09
1.28433e-09
1.29017e-09
1.29473e-09
1.29799e-09
1.29992e-09
1.3005e-09
1.29973e-09
1.29762e-09
1.29416e-09
1.2894e-09
1.28337e-09
1.27612e-09
1.2677e-09
1.2582e-09
1.24769e-09
1.23628e-09
1.22407e-09
1.21119e-09
1.1978e-09
1.18405e-09
1.17013e-09
1.15624e-09
1.14263e-09
1.12956e-09
1.11732e-09
1.10626e-09
1.09677e-09
1.0893e-09
1.08441e-09
1.08272e-09
1.08502e-09
1.09229e-09
1.10579e-09
1.12715e-09
1.15857e-09
1.20319e-09
1.26563e-09
1.35309e-09
1.47757e-09
1.66098e-09
1.9484e-09
2.45128e-09
3.54186e-09
7.49699e-09
7.43034e-09
3.51344e-09
2.43735e-09
1.94489e-09
1.66665e-09
1.49186e-09
1.37562e-09
1.29606e-09
1.24113e-09
1.20358e-09
1.17875e-09
1.16347e-09
1.15549e-09
1.15314e-09
1.15516e-09
1.16058e-09
1.16863e-09
1.17867e-09
1.19017e-09
1.2027e-09
1.21589e-09
1.22942e-09
1.24303e-09
1.25647e-09
1.26956e-09
1.2821e-09
1.29395e-09
1.30497e-09
1.31504e-09
1.32408e-09
1.33198e-09
1.33869e-09
1.34415e-09
1.3483e-09
1.35112e-09
1.35257e-09
1.35266e-09
1.35139e-09
1.34874e-09
1.34474e-09
1.33943e-09
1.33285e-09
1.32504e-09
1.31608e-09
1.30603e-09
1.29499e-09
1.28306e-09
1.27036e-09
1.25701e-09
1.24318e-09
1.22902e-09
1.21474e-09
1.20054e-09
1.18667e-09
1.1734e-09
1.16104e-09
1.14995e-09
1.14052e-09
1.13324e-09
1.12867e-09
1.12746e-09
1.13044e-09
1.13863e-09
1.15334e-09
1.17626e-09
1.20973e-09
1.25699e-09
1.3229e-09
1.41498e-09
1.54582e-09
1.73834e-09
2.03975e-09
2.56676e-09
3.70924e-09
7.85171e-09
7.79149e-09
3.68442e-09
2.55626e-09
2.04008e-09
1.7485e-09
1.56537e-09
1.44357e-09
1.36018e-09
1.30257e-09
1.26312e-09
1.23695e-09
1.22074e-09
1.21211e-09
1.20934e-09
1.21109e-09
1.21636e-09
1.22432e-09
1.23433e-09
1.24582e-09
1.25835e-09
1.27154e-09
1.28505e-09
1.29861e-09
1.31197e-09
1.32493e-09
1.33731e-09
1.34895e-09
1.35971e-09
1.36948e-09
1.37817e-09
1.38569e-09
1.39196e-09
1.39695e-09
1.40059e-09
1.40287e-09
1.40376e-09
1.40326e-09
1.40137e-09
1.39809e-09
1.39345e-09
1.38749e-09
1.38026e-09
1.3718e-09
1.36218e-09
1.3515e-09
1.33983e-09
1.32729e-09
1.314e-09
1.3001e-09
1.28573e-09
1.27109e-09
1.25635e-09
1.24174e-09
1.22752e-09
1.21396e-09
1.20138e-09
1.19014e-09
1.18066e-09
1.17344e-09
1.16905e-09
1.16819e-09
1.17167e-09
1.1806e-09
1.1963e-09
1.22055e-09
1.25576e-09
1.30532e-09
1.37427e-09
1.47043e-09
1.6069e-09
1.80752e-09
2.12142e-09
2.67e-09
3.85886e-09
8.16883e-09
8.14116e-09
3.85002e-09
2.67152e-09
2.13246e-09
1.82807e-09
1.63695e-09
1.50988e-09
1.42288e-09
1.36276e-09
1.32156e-09
1.29418e-09
1.27713e-09
1.26795e-09
1.26483e-09
1.26638e-09
1.27154e-09
1.27947e-09
1.28946e-09
1.30096e-09
1.3135e-09
1.32666e-09
1.34013e-09
1.3536e-09
1.36684e-09
1.37962e-09
1.39177e-09
1.40312e-09
1.41355e-09
1.42293e-09
1.43117e-09
1.43819e-09
1.44392e-09
1.44832e-09
1.45134e-09
1.45296e-09
1.45316e-09
1.45195e-09
1.44931e-09
1.44528e-09
1.43988e-09
1.43316e-09
1.42515e-09
1.41593e-09
1.40556e-09
1.39412e-09
1.38173e-09
1.36848e-09
1.3545e-09
1.33994e-09
1.32495e-09
1.30972e-09
1.29444e-09
1.27933e-09
1.26466e-09
1.25071e-09
1.23781e-09
1.22633e-09
1.21669e-09
1.20941e-09
1.20507e-09
1.20438e-09
1.20822e-09
1.21767e-09
1.23415e-09
1.25946e-09
1.29611e-09
1.34759e-09
1.41911e-09
1.51876e-09
1.66008e-09
1.86771e-09
2.19243e-09
2.75974e-09
3.98892e-09
8.44451e-09
8.48198e-09
4.01149e-09
2.784e-09
2.22274e-09
1.90593e-09
1.70712e-09
1.57499e-09
1.48456e-09
1.42207e-09
1.37925e-09
1.35075e-09
1.33296e-09
1.32331e-09
1.3199e-09
1.32129e-09
1.32637e-09
1.33428e-09
1.34428e-09
1.35578e-09
1.3683e-09
1.38142e-09
1.3948e-09
1.40814e-09
1.42118e-09
1.4337e-09
1.44553e-09
1.4565e-09
1.46648e-09
1.47535e-09
1.48302e-09
1.48941e-09
1.49446e-09
1.49813e-09
1.50038e-09
1.50119e-09
1.50056e-09
1.49848e-09
1.49496e-09
1.49004e-09
1.48373e-09
1.4761e-09
1.46719e-09
1.45706e-09
1.44581e-09
1.43351e-09
1.42027e-09
1.4062e-09
1.39143e-09
1.37611e-09
1.36039e-09
1.34448e-09
1.32855e-09
1.31286e-09
1.29765e-09
1.28321e-09
1.26988e-09
1.25805e-09
1.24814e-09
1.24067e-09
1.23624e-09
1.23559e-09
1.23959e-09
1.24939e-09
1.2664e-09
1.29251e-09
1.33025e-09
1.38326e-09
1.45685e-09
1.55934e-09
1.70465e-09
1.91808e-09
2.25181e-09
2.83477e-09
4.09766e-09
8.67503e-09
8.81731e-09
4.17042e-09
2.8948e-09
2.31175e-09
1.98282e-09
1.77651e-09
1.63948e-09
1.54574e-09
1.481e-09
1.43664e-09
1.40711e-09
1.38864e-09
1.37857e-09
1.37491e-09
1.37618e-09
1.38121e-09
1.3891e-09
1.3991e-09
1.41059e-09
1.42306e-09
1.4361e-09
1.44933e-09
1.46245e-09
1.47521e-09
1.48738e-09
1.49878e-09
1.50924e-09
1.51863e-09
1.52684e-09
1.53379e-09
1.53939e-09
1.5436e-09
1.54637e-09
1.54767e-09
1.5475e-09
1.54586e-09
1.54273e-09
1.53815e-09
1.53216e-09
1.52478e-09
1.51608e-09
1.5061e-09
1.49493e-09
1.48265e-09
1.46934e-09
1.45512e-09
1.4401e-09
1.42442e-09
1.40822e-09
1.39168e-09
1.37497e-09
1.3583e-09
1.34191e-09
1.32606e-09
1.31104e-09
1.29718e-09
1.28488e-09
1.27458e-09
1.2668e-09
1.26215e-09
1.26138e-09
1.26537e-09
1.2753e-09
1.2926e-09
1.31921e-09
1.35771e-09
1.4118e-09
1.48692e-09
1.59157e-09
1.73994e-09
1.95789e-09
2.29868e-09
2.89394e-09
4.18341e-09
8.85684e-09
9.15117e-09
4.3287e-09
3.0052e-09
2.40053e-09
2.05958e-09
1.84587e-09
1.70402e-09
1.60705e-09
1.54012e-09
1.49429e-09
1.46378e-09
1.44468e-09
1.43423e-09
1.43036e-09
1.43153e-09
1.43652e-09
1.4444e-09
1.45438e-09
1.46583e-09
1.47822e-09
1.4911e-09
1.50412e-09
1.51694e-09
1.52931e-09
1.541e-09
1.55182e-09
1.56162e-09
1.57027e-09
1.57765e-09
1.58368e-09
1.58831e-09
1.59147e-09
1.59313e-09
1.59328e-09
1.59193e-09
1.58905e-09
1.58467e-09
1.57884e-09
1.57157e-09
1.56292e-09
1.55296e-09
1.54174e-09
1.52934e-09
1.51586e-09
1.50138e-09
1.48603e-09
1.46992e-09
1.45319e-09
1.43598e-09
1.41848e-09
1.40086e-09
1.38334e-09
1.36615e-09
1.34955e-09
1.33383e-09
1.31935e-09
1.30647e-09
1.29566e-09
1.28743e-09
1.28241e-09
1.28135e-09
1.28515e-09
1.29499e-09
1.31233e-09
1.33913e-09
1.37802e-09
1.43274e-09
1.50882e-09
1.61488e-09
1.76534e-09
1.98642e-09
2.33217e-09
2.93617e-09
4.24459e-09
8.98658e-09
9.48818e-09
4.4885e-09
3.11673e-09
2.49027e-09
2.13723e-09
1.91609e-09
1.76941e-09
1.66923e-09
1.60014e-09
1.55285e-09
1.52139e-09
1.50171e-09
1.4909e-09
1.48684e-09
1.48793e-09
1.49289e-09
1.50076e-09
1.51071e-09
1.52208e-09
1.53433e-09
1.54699e-09
1.55969e-09
1.57211e-09
1.58396e-09
1.59503e-09
1.60512e-09
1.61408e-09
1.62179e-09
1.62813e-09
1.63304e-09
1.63645e-09
1.63833e-09
1.63865e-09
1.63742e-09
1.63461e-09
1.63027e-09
1.6244e-09
1.61706e-09
1.60829e-09
1.59815e-09
1.5867e-09
1.57402e-09
1.5602e-09
1.54532e-09
1.52949e-09
1.51283e-09
1.49546e-09
1.47752e-09
1.45917e-09
1.44057e-09
1.42192e-09
1.40341e-09
1.38529e-09
1.36782e-09
1.3513e-09
1.33606e-09
1.32249e-09
1.31104e-09
1.30223e-09
1.29669e-09
1.29517e-09
1.29858e-09
1.3081e-09
1.32521e-09
1.35188e-09
1.39076e-09
1.44564e-09
1.52207e-09
1.62877e-09
1.78027e-09
2.00301e-09
2.35152e-09
2.96047e-09
4.27977e-09
9.06121e-09
9.83353e-09
4.65228e-09
3.23105e-09
2.58228e-09
2.21688e-09
1.98814e-09
1.83654e-09
1.73309e-09
1.6618e-09
1.61307e-09
1.58068e-09
1.56041e-09
1.54928e-09
1.54506e-09
1.54608e-09
1.55102e-09
1.55887e-09
1.56876e-09
1.58002e-09
1.59208e-09
1.60445e-09
1.61674e-09
1.62862e-09
1.63981e-09
1.65009e-09
1.65926e-09
1.66718e-09
1.67372e-09
1.67879e-09
1.68231e-09
1.68425e-09
1.68458e-09
1.68329e-09
1.68037e-09
1.67585e-09
1.66975e-09
1.66212e-09
1.653e-09
1.64246e-09
1.63056e-09
1.61738e-09
1.603e-09
1.58751e-09
1.57101e-09
1.55362e-09
1.53545e-09
1.51663e-09
1.49731e-09
1.47763e-09
1.45778e-09
1.43793e-09
1.4183e-09
1.39912e-09
1.38066e-09
1.36319e-09
1.34707e-09
1.33267e-09
1.32044e-09
1.3109e-09
1.30468e-09
1.30253e-09
1.30535e-09
1.31431e-09
1.33092e-09
1.35712e-09
1.39559e-09
1.45011e-09
1.52627e-09
1.63279e-09
1.78423e-09
2.00711e-09
2.35605e-09
2.966e-09
4.28769e-09
9.07807e-09
1.01929e-08
4.82271e-09
3.35e-09
2.678e-09
2.29972e-09
2.06308e-09
1.90637e-09
1.79952e-09
1.72598e-09
1.67576e-09
1.64243e-09
1.6216e-09
1.61016e-09
1.60581e-09
1.60678e-09
1.61172e-09
1.61955e-09
1.62938e-09
1.6405e-09
1.6523e-09
1.66429e-09
1.67606e-09
1.68727e-09
1.69764e-09
1.70693e-09
1.71497e-09
1.7216e-09
1.72672e-09
1.73023e-09
1.73209e-09
1.73226e-09
1.73073e-09
1.7275e-09
1.72258e-09
1.71601e-09
1.70785e-09
1.69813e-09
1.68692e-09
1.6743e-09
1.66035e-09
1.64514e-09
1.62878e-09
1.61136e-09
1.593e-09
1.5738e-09
1.55389e-09
1.53341e-09
1.51249e-09
1.49131e-09
1.47001e-09
1.44881e-09
1.42789e-09
1.4075e-09
1.38788e-09
1.36933e-09
1.35218e-09
1.33681e-09
1.32366e-09
1.31323e-09
1.30616e-09
1.30318e-09
1.3052e-09
1.31338e-09
1.32921e-09
1.35462e-09
1.39228e-09
1.44595e-09
1.52119e-09
1.62669e-09
1.77694e-09
1.99836e-09
2.34532e-09
2.95214e-09
4.26748e-09
9.0353e-09
1.05723e-08
5.00262e-09
3.47553e-09
2.77897e-09
2.38706e-09
2.14204e-09
1.97992e-09
1.86949e-09
1.79358e-09
1.74182e-09
1.70753e-09
1.68615e-09
1.67444e-09
1.66998e-09
1.67096e-09
1.67592e-09
1.68375e-09
1.69352e-09
1.70445e-09
1.71594e-09
1.72746e-09
1.73859e-09
1.74897e-09
1.75833e-09
1.76643e-09
1.77308e-09
1.77816e-09
1.78155e-09
1.7832e-09
1.78306e-09
1.78111e-09
1.77736e-09
1.77183e-09
1.76455e-09
1.75558e-09
1.74498e-09
1.73281e-09
1.71917e-09
1.70413e-09
1.68778e-09
1.67023e-09
1.65158e-09
1.63194e-09
1.61142e-09
1.59014e-09
1.56824e-09
1.54585e-09
1.52311e-09
1.50019e-09
1.47726e-09
1.4545e-09
1.43211e-09
1.41033e-09
1.3894e-09
1.36961e-09
1.3513e-09
1.33482e-09
1.32061e-09
1.30916e-09
1.30109e-09
1.29711e-09
1.29812e-09
1.30525e-09
1.31997e-09
1.34421e-09
1.38059e-09
1.43284e-09
1.50645e-09
1.61003e-09
1.75791e-09
1.97621e-09
2.31867e-09
2.9181e-09
4.21796e-09
8.93037e-09
1.09781e-08
5.19498e-09
3.60967e-09
2.88677e-09
2.48021e-09
2.22619e-09
2.05824e-09
1.94398e-09
1.86555e-09
1.81218e-09
1.77692e-09
1.75501e-09
1.74307e-09
1.73858e-09
1.73962e-09
1.74466e-09
1.75253e-09
1.76223e-09
1.77297e-09
1.78408e-09
1.79504e-09
1.80539e-09
1.81477e-09
1.8229e-09
1.82954e-09
1.83453e-09
1.83774e-09
1.83907e-09
1.83849e-09
1.83597e-09
1.8315e-09
1.82513e-09
1.81689e-09
1.80684e-09
1.79506e-09
1.78162e-09
1.76661e-09
1.75014e-09
1.7323e-09
1.7132e-09
1.69294e-09
1.67166e-09
1.64946e-09
1.62647e-09
1.60282e-09
1.57864e-09
1.55407e-09
1.52926e-09
1.50437e-09
1.47956e-09
1.45504e-09
1.43099e-09
1.40765e-09
1.38526e-09
1.36407e-09
1.34441e-09
1.32662e-09
1.31114e-09
1.29845e-09
1.28913e-09
1.28391e-09
1.28366e-09
1.28946e-09
1.30278e-09
1.3255e-09
1.36018e-09
1.41048e-09
1.48181e-09
1.58259e-09
1.72691e-09
1.9404e-09
2.27583e-09
2.86351e-09
4.13857e-09
8.76208e-09
1.14167e-08
5.4028e-09
3.75446e-09
3.00299e-09
2.58052e-09
2.3167e-09
2.14243e-09
2.02401e-09
1.94287e-09
1.88782e-09
1.85158e-09
1.8292e-09
1.81711e-09
1.81268e-09
1.81387e-09
1.81908e-09
1.82704e-09
1.8367e-09
1.84723e-09
1.85791e-09
1.86819e-09
1.8776e-09
1.88578e-09
1.89242e-09
1.89732e-09
1.90031e-09
1.90127e-09
1.90015e-09
1.89692e-09
1.89157e-09
1.88415e-09
1.8747e-09
1.86329e-09
1.85001e-09
1.83496e-09
1.81823e-09
1.79995e-09
1.78022e-09
1.75916e-09
1.7369e-09
1.71357e-09
1.68928e-09
1.66417e-09
1.63838e-09
1.61203e-09
1.58526e-09
1.55822e-09
1.53107e-09
1.50395e-09
1.47705e-09
1.45054e-09
1.42461e-09
1.39946e-09
1.37535e-09
1.35253e-09
1.33132e-09
1.31205e-09
1.29512e-09
1.28102e-09
1.2703e-09
1.26364e-09
1.2619e-09
1.26614e-09
1.27776e-09
1.29859e-09
1.33114e-09
1.37896e-09
1.44731e-09
1.5444e-09
1.68397e-09
1.89097e-09
2.2168e-09
2.78835e-09
4.02929e-09
8.53035e-09
1.18944e-08
5.62905e-09
3.91193e-09
3.12922e-09
2.6893e-09
2.41473e-09
2.23352e-09
2.11058e-09
2.02655e-09
1.96974e-09
1.93254e-09
1.90977e-09
1.89767e-09
1.89344e-09
1.89492e-09
1.90041e-09
1.90854e-09
1.91821e-09
1.9285e-09
1.93868e-09
1.94815e-09
1.95643e-09
1.96314e-09
1.968e-09
1.97079e-09
1.97137e-09
1.96966e-09
1.96561e-09
1.95924e-09
1.95057e-09
1.93967e-09
1.92662e-09
1.91153e-09
1.89451e-09
1.87569e-09
1.85519e-09
1.83315e-09
1.8097e-09
1.78499e-09
1.75915e-09
1.73233e-09
1.70466e-09
1.67627e-09
1.64732e-09
1.61794e-09
1.58827e-09
1.55846e-09
1.52868e-09
1.49907e-09
1.46978e-09
1.44101e-09
1.41294e-09
1.38579e-09
1.35977e-09
1.33514e-09
1.31219e-09
1.29125e-09
1.2727e-09
1.25699e-09
1.24466e-09
1.23637e-09
1.23292e-09
1.23534e-09
1.24496e-09
1.26356e-09
1.29354e-09
1.33835e-09
1.40305e-09
1.49559e-09
1.62922e-09
1.82806e-09
2.14175e-09
2.69285e-09
3.89044e-09
8.23589e-09
1.24173e-08
5.87663e-09
4.08404e-09
3.26694e-09
2.80779e-09
2.52138e-09
2.33255e-09
2.20469e-09
2.11758e-09
2.05896e-09
2.02087e-09
1.99784e-09
1.98591e-09
1.98207e-09
1.98402e-09
1.98994e-09
1.99835e-09
2.00806e-09
2.0181e-09
2.02767e-09
2.03616e-09
2.04305e-09
2.04798e-09
2.05065e-09
2.05089e-09
2.04858e-09
2.04366e-09
2.03614e-09
2.02604e-09
2.01346e-09
1.99849e-09
1.98126e-09
1.96191e-09
1.94058e-09
1.91744e-09
1.89264e-09
1.86634e-09
1.8387e-09
1.80987e-09
1.78002e-09
1.74929e-09
1.71784e-09
1.68581e-09
1.65335e-09
1.6206e-09
1.58772e-09
1.55485e-09
1.52214e-09
1.48975e-09
1.45784e-09
1.42658e-09
1.39616e-09
1.36677e-09
1.33864e-09
1.312e-09
1.28713e-09
1.26433e-09
1.24397e-09
1.22648e-09
1.21235e-09
1.20221e-09
1.19683e-09
1.19718e-09
1.20453e-09
1.22056e-09
1.24759e-09
1.28887e-09
1.34929e-09
1.43643e-09
1.56299e-09
1.75206e-09
2.05117e-09
2.57761e-09
3.72288e-09
7.88046e-09
1.29913e-08
6.14819e-09
4.27256e-09
3.41755e-09
2.93715e-09
2.63765e-09
2.44047e-09
2.30727e-09
2.21689e-09
2.15648e-09
2.11763e-09
2.09455e-09
2.08303e-09
2.07985e-09
2.0825e-09
2.08902e-09
2.09782e-09
2.1076e-09
2.11732e-09
2.12613e-09
2.13337e-09
2.13853e-09
2.14122e-09
2.14122e-09
2.13836e-09
2.13254e-09
2.12377e-09
2.11209e-09
2.09759e-09
2.0804e-09
2.06068e-09
2.0386e-09
2.01434e-09
1.98809e-09
1.96004e-09
1.93037e-09
1.89929e-09
1.86695e-09
1.83355e-09
1.79926e-09
1.76422e-09
1.72862e-09
1.69259e-09
1.6563e-09
1.61988e-09
1.5835e-09
1.54729e-09
1.51141e-09
1.47601e-09
1.44124e-09
1.40728e-09
1.3743e-09
1.3425e-09
1.31206e-09
1.28323e-09
1.25626e-09
1.23144e-09
1.2091e-09
1.18965e-09
1.17355e-09
1.16139e-09
1.15388e-09
1.15195e-09
1.15677e-09
1.16993e-09
1.19362e-09
1.23094e-09