/*--------------------------------*- C++ -*----------------------------------*\
  =========                 |
  \\      /  F ield         | OpenFOAM: The Open Source CFD Toolbox
   \\    /   O peration     | Website:  https://openfoam.org
    \\  /    A nd           | Version:  12
     \\/     M anipulation  |
\*---------------------------------------------------------------------------*/
FoamFile
{
    format      ascii;
    class       volScalarField;
    location    "8.5";
    object      k;
}
// * * * * * * * * * * * * * * * * * * * * * * * * * * * * * * * * * * * * * //

dimensions      [0 2 -2 0 0 0 0];

internalField   nonuniform List<scalar> 
5625
(
1.60553e-14
1.21273e-13
2.57085e-13
4.19231e-13
6.01921e-13
8.00781e-13
1.01262e-12
1.23499e-12
1.46588e-12
1.70354e-12
1.94643e-12
2.19311e-12
2.44224e-12
2.69256e-12
2.94285e-12
3.19196e-12
3.43877e-12
3.6822e-12
3.92121e-12
4.15481e-12
4.38203e-12
4.60195e-12
4.81369e-12
5.0164e-12
5.20928e-12
5.39157e-12
5.56255e-12
5.72157e-12
5.868e-12
6.00127e-12
6.12086e-12
6.2263e-12
6.31718e-12
6.39314e-12
6.45386e-12
6.49911e-12
6.52868e-12
6.54245e-12
6.54036e-12
6.52237e-12
6.4885e-12
6.43887e-12
6.37362e-12
6.29298e-12
6.19723e-12
6.08669e-12
5.96177e-12
5.82291e-12
5.67062e-12
5.50546e-12
5.32806e-12
5.13909e-12
4.93926e-12
4.72937e-12
4.51024e-12
4.28276e-12
4.04784e-12
3.80648e-12
3.5597e-12
3.30857e-12
3.05422e-12
2.79783e-12
2.54064e-12
2.28393e-12
2.02907e-12
1.77752e-12
1.53082e-12
1.29068e-12
1.05898e-12
8.37905e-13
6.3011e-13
4.39015e-13
2.69278e-13
1.27041e-13
1.68186e-14
1.08543e-13
9.66157e-13
2.20224e-12
3.68087e-12
5.33819e-12
7.1359e-12
9.04717e-12
1.10512e-11
1.31305e-11
1.52699e-11
1.74556e-11
1.96751e-11
2.19162e-11
2.41678e-11
2.64189e-11
2.86592e-11
3.08788e-11
3.30678e-11
3.52172e-11
3.73177e-11
3.93609e-11
4.13385e-11
4.32424e-11
4.50652e-11
4.67996e-11
4.84388e-11
4.99764e-11
5.14064e-11
5.27232e-11
5.39218e-11
5.49973e-11
5.59457e-11
5.67632e-11
5.74465e-11
5.79929e-11
5.84001e-11
5.86664e-11
5.87906e-11
5.87719e-11
5.86102e-11
5.83058e-11
5.78596e-11
5.7273e-11
5.6548e-11
5.56871e-11
5.46933e-11
5.35701e-11
5.23216e-11
5.09523e-11
4.94674e-11
4.78723e-11
4.61731e-11
4.43763e-11
4.24889e-11
4.05185e-11
3.84728e-11
3.63603e-11
3.41897e-11
3.19702e-11
2.97115e-11
2.74237e-11
2.51174e-11
2.28036e-11
2.04938e-11
1.82004e-11
1.59362e-11
1.3715e-11
1.15519e-11
9.46332e-12
7.46829e-12
5.58936e-12
3.85537e-12
2.30717e-12
1.01231e-12
1.13729e-13
2.41261e-13
2.16366e-12
4.96407e-12
8.33735e-12
1.21337e-11
1.62609e-11
2.06541e-11
2.52633e-11
3.00473e-11
3.49705e-11
4.00006e-11
4.51083e-11
5.02661e-11
5.54478e-11
6.06285e-11
6.57843e-11
7.08922e-11
7.59301e-11
8.08764e-11
8.57107e-11
9.0413e-11
9.49643e-11
9.93464e-11
1.03542e-10
1.07534e-10
1.11307e-10
1.14847e-10
1.18139e-10
1.2117e-10
1.2393e-10
1.26407e-10
1.28591e-10
1.30475e-10
1.32049e-10
1.33309e-10
1.34248e-10
1.34864e-10
1.35152e-10
1.35111e-10
1.34742e-10
1.34045e-10
1.3302e-10
1.31673e-10
1.30007e-10
1.28028e-10
1.25743e-10
1.2316e-10
1.20288e-10
1.17138e-10
1.13722e-10
1.10051e-10
1.06141e-10
1.02006e-10
9.7662e-11
9.31264e-11
8.84173e-11
8.35539e-11
7.85565e-11
7.34463e-11
6.82455e-11
6.29774e-11
5.76664e-11
5.23378e-11
4.70185e-11
4.17367e-11
3.65221e-11
3.14071e-11
2.64264e-11
2.1619e-11
1.703e-11
1.27132e-11
8.7385e-12
5.20409e-12
2.26855e-12
2.52959e-13
3.98755e-13
3.58199e-12
8.23541e-12
1.38601e-11
2.02079e-11
2.71232e-11
3.44949e-11
4.22368e-11
5.02779e-11
5.85565e-11
6.70179e-11
7.56117e-11
8.42912e-11
9.30119e-11
1.01732e-10
1.10411e-10
1.19009e-10
1.2749e-10
1.35818e-10
1.43957e-10
1.51875e-10
1.59539e-10
1.66918e-10
1.73984e-10
1.80708e-10
1.87063e-10
1.93026e-10
1.98573e-10
2.03681e-10
2.08332e-10
2.12508e-10
2.16191e-10
2.19367e-10
2.22024e-10
2.24151e-10
2.25739e-10
2.26781e-10
2.27272e-10
2.27211e-10
2.26596e-10
2.25427e-10
2.23709e-10
2.21446e-10
2.18646e-10
2.15319e-10
2.11476e-10
2.0713e-10
2.02298e-10
1.96997e-10
1.91246e-10
1.85067e-10
1.78484e-10
1.71521e-10
1.64206e-10
1.56567e-10
1.48635e-10
1.40443e-10
1.32025e-10
1.23417e-10
1.14655e-10
1.0578e-10
9.68333e-11
8.7857e-11
7.88969e-11
7.00009e-11
6.12202e-11
5.26094e-11
4.42288e-11
3.61453e-11
2.84365e-11
2.11958e-11
1.45426e-11
8.64284e-12
3.75966e-12
4.18539e-13
5.73653e-13
5.15619e-12
1.18656e-11
1.99903e-11
2.91754e-11
3.91965e-11
4.98919e-11
6.11354e-11
7.28218e-11
8.48605e-11
9.71704e-11
1.09677e-10
1.22312e-10
1.3501e-10
1.47708e-10
1.60349e-10
1.72875e-10
1.85231e-10
1.97365e-10
2.09225e-10
2.20764e-10
2.31934e-10
2.42691e-10
2.52991e-10
2.62795e-10
2.72063e-10
2.80759e-10
2.8885e-10
2.96303e-10
3.0309e-10
3.09185e-10
3.14562e-10
3.19202e-10
3.23086e-10
3.26197e-10
3.28524e-10
3.30055e-10
3.30784e-10
3.30706e-10
3.29823e-10
3.28131e-10
3.25638e-10
3.22351e-10
3.1828e-10
3.1344e-10
3.07847e-10
3.01522e-10
2.94485e-10
2.86764e-10
2.78386e-10
2.69383e-10
2.59789e-10
2.49641e-10
2.38977e-10
2.27842e-10
2.16278e-10
2.04334e-10
1.9206e-10
1.79508e-10
1.66733e-10
1.53793e-10
1.40748e-10
1.27663e-10
1.14602e-10
1.01639e-10
8.88464e-11
7.63072e-11
6.41098e-11
5.23536e-11
4.11529e-11
3.06452e-11
2.10044e-11
1.24703e-11
5.41965e-12
6.02969e-13
7.61172e-13
6.84361e-12
1.57563e-11
2.65604e-11
3.87878e-11
5.21419e-11
6.64079e-11
8.14167e-11
9.70273e-11
1.13117e-10
1.29577e-10
1.46307e-10
1.63214e-10
1.80209e-10
1.9721e-10
2.14136e-10
2.30911e-10
2.47462e-10
2.63717e-10
2.7961e-10
2.95073e-10
3.10044e-10
3.24463e-10
3.38273e-10
3.51418e-10
3.63848e-10
3.75513e-10
3.86368e-10
3.96371e-10
4.05482e-10
4.13666e-10
4.20891e-10
4.27128e-10
4.32352e-10
4.36542e-10
4.3968e-10
4.41753e-10
4.4275e-10
4.42666e-10
4.41503e-10
4.39255e-10
4.35932e-10
4.31544e-10
4.26105e-10
4.19633e-10
4.1215e-10
4.03684e-10
3.94263e-10
3.83922e-10
3.72699e-10
3.60637e-10
3.47779e-10
3.34177e-10
3.19883e-10
3.04955e-10
2.89451e-10
2.73437e-10
2.56979e-10
2.40148e-10
2.23019e-10
2.05669e-10
1.88181e-10
1.7064e-10
1.53137e-10
1.35768e-10
1.18634e-10
1.01847e-10
8.55255e-11
6.98049e-11
5.48391e-11
4.08121e-11
2.79557e-11
1.65878e-11
7.20564e-12
8.01445e-13
9.57707e-13
8.61195e-12
1.98332e-11
3.34443e-11
4.88596e-11
6.57075e-11
8.37181e-11
1.02678e-10
1.2241e-10
1.42757e-10
1.63581e-10
1.84755e-10
2.06159e-10
2.27681e-10
2.49216e-10
2.70662e-10
2.91921e-10
3.12899e-10
3.33507e-10
3.53658e-10
3.73269e-10
3.92258e-10
4.10551e-10
4.28074e-10
4.44758e-10
4.60536e-10
4.75348e-10
4.89134e-10
5.01841e-10
5.1342e-10
5.23825e-10
5.33015e-10
5.40953e-10
5.47607e-10
5.52951e-10
5.56961e-10
5.5962e-10
5.60916e-10
5.6084e-10
5.59395e-10
5.56572e-10
5.52384e-10
5.46844e-10
5.39969e-10
5.31782e-10
5.22311e-10
5.11588e-10
4.99653e-10
4.86547e-10
4.7232e-10
4.57024e-10
4.40718e-10
4.23464e-10
4.0533e-10
3.86388e-10
3.66715e-10
3.46393e-10
3.25507e-10
3.04148e-10
2.82412e-10
2.60397e-10
2.38208e-10
2.15956e-10
1.93757e-10
1.71733e-10
1.50015e-10
1.28744e-10
1.08073e-10
8.81743e-11
6.92426e-11
5.15107e-11
3.52704e-11
2.09207e-11
9.08527e-12
1.01035e-12
1.16032e-12
1.04349e-11
2.40355e-11
4.05396e-11
5.92404e-11
7.96894e-11
1.01561e-10
1.24596e-10
1.48579e-10
1.73321e-10
1.98653e-10
2.24417e-10
2.50471e-10
2.76676e-10
3.02903e-10
3.29027e-10
3.54929e-10
3.80495e-10
4.05615e-10
4.30183e-10
4.54096e-10
4.77257e-10
4.99573e-10
5.20953e-10
5.41314e-10
5.60575e-10
5.7866e-10
5.95499e-10
6.11025e-10
6.25177e-10
6.379e-10
6.49143e-10
6.58862e-10
6.67017e-10
6.73575e-10
6.78507e-10
6.81792e-10
6.83414e-10
6.83363e-10
6.81642e-10
6.78238e-10
6.73168e-10
6.66445e-10
6.58093e-10
6.48137e-10
6.36611e-10
6.23556e-10
6.09017e-10
5.93048e-10
5.75706e-10
5.57057e-10
5.37171e-10
5.16125e-10
4.94003e-10
4.70892e-10
4.46887e-10
4.22088e-10
3.966e-10
3.70536e-10
3.4401e-10
3.17147e-10
2.90076e-10
2.62931e-10
2.35855e-10
2.09e-10
1.82525e-10
1.56604e-10
1.31425e-10
1.07197e-10
8.41571e-11
6.25884e-11
4.28443e-11
2.54074e-11
1.10318e-11
1.2267e-12
1.36651e-12
1.22899e-11
2.83115e-11
4.77589e-11
6.9802e-11
9.39146e-11
1.19714e-10
1.46896e-10
1.75207e-10
2.04423e-10
2.34344e-10
2.64787e-10
2.95579e-10
3.26558e-10
3.5757e-10
3.88468e-10
4.1911e-10
4.49361e-10
4.7909e-10
5.08171e-10
5.36484e-10
5.63912e-10
5.90344e-10
6.15674e-10
6.39802e-10
6.62632e-10
6.84075e-10
7.04046e-10
7.22466e-10
7.39264e-10
7.54373e-10
7.67732e-10
7.79289e-10
7.88996e-10
7.96813e-10
8.02707e-10
8.0665e-10
8.08624e-10
8.08615e-10
8.0663e-10
8.0265e-10
7.96693e-10
7.88778e-10
7.78928e-10
7.67175e-10
7.5356e-10
7.38128e-10
7.20934e-10
7.02041e-10
6.81518e-10
6.59441e-10
6.35894e-10
6.10969e-10
5.84764e-10
5.57384e-10
5.28942e-10
4.99558e-10
4.69356e-10
4.38469e-10
4.07038e-10
3.75209e-10
3.43135e-10
3.10979e-10
2.78911e-10
2.4711e-10
2.15767e-10
1.85089e-10
1.55299e-10
1.26643e-10
9.94029e-11
7.39122e-11
5.05867e-11
2.9994e-11
1.30217e-11
1.44789e-12
1.57411e-12
1.41575e-11
3.26163e-11
5.50263e-11
8.04335e-11
1.08233e-10
1.37985e-10
1.69341e-10
2.02008e-10
2.35728e-10
2.70272e-10
3.05425e-10
3.4099e-10
3.7678e-10
4.12615e-10
4.48326e-10
4.83748e-10
5.18725e-10
5.53106e-10
5.86743e-10
6.19499e-10
6.51237e-10
6.8183e-10
7.11154e-10
7.39093e-10
7.65537e-10
7.9038e-10
8.13525e-10
8.34882e-10
8.54365e-10
8.71898e-10
8.87411e-10
9.00841e-10
9.12134e-10
9.21241e-10
9.28125e-10
9.32752e-10
9.351e-10
9.35154e-10
9.32921e-10
9.28375e-10
9.2154e-10
9.12435e-10
9.01087e-10
8.87533e-10
8.71818e-10
8.53995e-10
8.34128e-10
8.12288e-10
7.88554e-10
7.63016e-10
7.3577e-10
7.06924e-10
6.76591e-10
6.44894e-10
6.11963e-10
5.77937e-10
5.42963e-10
5.07196e-10
4.70799e-10
4.33942e-10
3.96805e-10
3.59577e-10
3.22455e-10
2.85649e-10
2.49382e-10
2.13892e-10
1.79437e-10
1.46304e-10
1.14818e-10
8.53615e-11
5.84151e-11
3.46318e-11
1.50339e-11
1.67156e-12
1.78123e-12
1.60206e-11
3.69106e-11
6.22756e-11
9.10377e-11
1.22514e-10
1.56208e-10
1.91725e-10
2.28735e-10
2.66946e-10
3.06098e-10
3.45949e-10
3.86275e-10
4.26862e-10
4.67509e-10
5.08022e-10
5.48216e-10
5.87911e-10
6.26935e-10
6.65124e-10
7.02317e-10
7.38363e-10
7.73115e-10
8.06434e-10
8.38186e-10
8.68246e-10
8.96495e-10
9.22822e-10
9.47123e-10
9.69302e-10
9.89271e-10
1.00695e-09
1.02227e-09
1.03516e-09
1.04557e-09
1.05346e-09
1.05879e-09
1.06153e-09
1.06167e-09
1.0592e-09
1.05411e-09
1.04641e-09
1.03613e-09
1.0233e-09
1.00796e-09
9.90161e-10
9.6996e-10
9.47428e-10
9.22649e-10
8.95711e-10
8.66716e-10
8.35775e-10
8.03009e-10
7.68546e-10
7.32528e-10
6.95103e-10
6.56431e-10
6.16679e-10
5.76023e-10
5.34651e-10
4.92758e-10
4.50549e-10
4.08239e-10
3.66056e-10
3.24238e-10
2.83039e-10
2.4273e-10
2.03605e-10
1.65989e-10
1.30251e-10
9.68245e-11
6.62529e-11
3.92752e-11
1.70487e-11
1.89551e-12
1.9862e-12
1.78645e-11
4.11603e-11
6.9449e-11
1.0153e-10
1.36643e-10
1.74235e-10
2.13868e-10
2.55171e-10
2.97823e-10
3.41531e-10
3.86026e-10
4.31058e-10
4.76389e-10
5.21793e-10
5.67054e-10
6.11964e-10
6.56324e-10
6.99941e-10
7.4263e-10
7.84214e-10
8.24522e-10
8.6339e-10
9.00662e-10
9.3619e-10
9.69832e-10
1.00146e-09
1.03094e-09
1.05816e-09
1.08301e-09
1.1054e-09
1.12523e-09
1.14243e-09
1.15691e-09
1.16863e-09
1.17753e-09
1.18357e-09
1.18671e-09
1.18694e-09
1.18427e-09
1.17865e-09
1.17011e-09
1.15869e-09
1.1444e-09
1.12731e-09
1.10745e-09
1.08491e-09
1.05975e-09
1.03206e-09
1.00196e-09
9.69548e-10
9.3495e-10
8.98302e-10
8.59751e-10
8.19452e-10
7.77574e-10
7.34295e-10
6.89804e-10
6.443e-10
5.97994e-10
5.51104e-10
5.03863e-10
4.56513e-10
4.09308e-10
3.62517e-10
3.16424e-10
2.71335e-10
2.27577e-10
1.85515e-10
1.45559e-10
1.08195e-10
7.40275e-11
4.38812e-11
1.90472e-11
2.11766e-12
2.18764e-12
1.96765e-11
4.53362e-11
7.64975e-11
1.11839e-10
1.50523e-10
1.91943e-10
2.35615e-10
2.81134e-10
3.28143e-10
3.7632e-10
4.25371e-10
4.75018e-10
5.25e-10
5.75068e-10
6.24983e-10
6.74517e-10
7.23449e-10
7.71567e-10
8.18668e-10
8.64554e-10
9.09038e-10
9.51939e-10
9.93086e-10
1.03231e-09
1.06947e-09
1.1044e-09
1.13697e-09
1.16706e-09
1.19453e-09
1.2193e-09
1.24124e-09
1.26029e-09
1.27635e-09
1.28935e-09
1.29925e-09
1.30599e-09
1.30954e-09
1.30987e-09
1.30699e-09
1.30087e-09
1.29153e-09
1.27899e-09
1.26329e-09
1.24448e-09
1.22262e-09
1.19778e-09
1.17006e-09
1.13953e-09
1.10633e-09
1.07057e-09
1.03239e-09
9.91935e-10
9.49372e-10
9.04873e-10
8.58623e-10
8.1082e-10
7.61675e-10
7.11409e-10
6.60254e-10
6.08454e-10
5.56268e-10
5.03963e-10
4.51822e-10
4.00142e-10
3.4924e-10
2.99451e-10
2.5114e-10
2.04707e-10
1.60605e-10
1.19371e-10
8.16692e-11
4.84086e-11
2.10116e-11
2.33602e-12
2.38438e-12
2.14461e-11
4.94144e-11
8.33802e-11
1.21904e-10
1.64074e-10
2.09228e-10
2.56841e-10
3.06469e-10
3.57724e-10
4.10257e-10
4.63745e-10
5.17886e-10
5.72396e-10
6.27001e-10
6.81444e-10
7.35473e-10
7.88848e-10
8.4134e-10
8.92724e-10
9.42788e-10
9.91326e-10
1.03814e-09
1.08305e-09
1.12586e-09
1.16642e-09
1.20456e-09
1.24013e-09
1.27299e-09
1.30301e-09
1.33007e-09
1.35407e-09
1.3749e-09
1.39249e-09
1.40674e-09
1.4176e-09
1.42503e-09
1.42897e-09
1.4294e-09
1.42634e-09
1.41973e-09
1.4096e-09
1.39599e-09
1.37892e-09
1.35846e-09
1.33466e-09
1.3076e-09
1.27738e-09
1.24411e-09
1.2079e-09
1.16889e-09
1.12722e-09
1.08307e-09
1.03661e-09
9.8803e-10
9.37529e-10
8.85327e-10
8.31654e-10
7.76753e-10
7.20879e-10
6.64301e-10
6.07299e-10
5.5017e-10
4.93222e-10
4.36783e-10
3.81196e-10
3.26831e-10
2.74085e-10
2.23396e-10
1.75258e-10
1.30254e-10
8.91105e-11
5.28172e-11
2.29244e-11
2.54865e-12
2.57551e-12
2.31653e-11
5.33758e-11
9.00653e-11
1.31679e-10
1.77232e-10
2.2601e-10
2.77443e-10
3.31055e-10
3.86425e-10
4.43175e-10
5.00958e-10
5.59446e-10
6.18331e-10
6.77321e-10
7.36134e-10
7.945e-10
8.5216e-10
9.08864e-10
9.64373e-10
1.01846e-09
1.07089e-09
1.12147e-09
1.16998e-09
1.21624e-09
1.26006e-09
1.30127e-09
1.3397e-09
1.37522e-09
1.40767e-09
1.43694e-09
1.46289e-09
1.48543e-09
1.50446e-09
1.5199e-09
1.53168e-09
1.53975e-09
1.54406e-09
1.54458e-09
1.54133e-09
1.53425e-09
1.52337e-09
1.50871e-09
1.49033e-09
1.46827e-09
1.4426e-09
1.41341e-09
1.38079e-09
1.34487e-09
1.30577e-09
1.26363e-09
1.21862e-09
1.17091e-09
1.1207e-09
1.06819e-09
1.01359e-09
9.57156e-10
8.99122e-10
8.39756e-10
7.79334e-10
7.18149e-10
6.56506e-10
5.94726e-10
5.33144e-10
4.72115e-10
4.12012e-10
3.53234e-10
2.96211e-10
2.41417e-10
1.89386e-10
1.40747e-10
9.62855e-11
5.7068e-11
2.47688e-11
2.75367e-12
2.76038e-12
2.48281e-11
5.72073e-11
9.65303e-11
1.4113e-10
1.89953e-10
2.42229e-10
2.9735e-10
3.54804e-10
4.1414e-10
4.74953e-10
5.36868e-10
5.99536e-10
6.62625e-10
7.25821e-10
7.88824e-10
8.51342e-10
9.131e-10
9.73829e-10
1.03327e-09
1.09119e-09
1.14733e-09
1.20148e-09
1.25341e-09
1.30293e-09
1.34984e-09
1.39395e-09
1.4351e-09
1.47311e-09
1.50785e-09
1.53918e-09
1.56696e-09
1.59109e-09
1.61147e-09
1.62801e-09
1.64064e-09
1.64929e-09
1.65393e-09
1.65451e-09
1.65106e-09
1.6435e-09
1.63188e-09
1.61622e-09
1.59657e-09
1.57298e-09
1.54552e-09
1.51429e-09
1.47939e-09
1.44094e-09
1.39908e-09
1.35397e-09
1.30577e-09
1.25468e-09
1.20089e-09
1.14463e-09
1.08614e-09
1.02566e-09
9.63474e-10
8.99851e-10
8.35094e-10
7.69517e-10
7.03448e-10
6.37232e-10
5.7123e-10
5.05822e-10
4.4141e-10
3.78421e-10
3.17318e-10
2.58608e-10
2.02863e-10
1.50758e-10
1.0313e-10
6.11227e-11
2.65281e-11
2.94923e-12
2.93865e-12
2.64314e-11
6.09012e-11
1.02762e-10
1.5024e-10
2.02209e-10
2.57852e-10
3.1652e-10
3.77665e-10
4.40808e-10
5.05516e-10
5.71388e-10
6.38053e-10
7.05158e-10
7.72366e-10
8.39357e-10
9.05823e-10
9.71468e-10
1.03601e-09
1.09917e-09
1.1607e-09
1.22033e-09
1.27783e-09
1.33298e-09
1.38554e-09
1.43533e-09
1.48214e-09
1.52579e-09
1.56612e-09
1.60296e-09
1.63618e-09
1.66563e-09
1.69121e-09
1.71281e-09
1.73033e-09
1.7437e-09
1.75286e-09
1.75775e-09
1.75835e-09
1.75466e-09
1.74663e-09
1.73427e-09
1.71764e-09
1.69677e-09
1.67171e-09
1.64255e-09
1.60939e-09
1.57232e-09
1.53148e-09
1.48702e-09
1.4391e-09
1.38789e-09
1.3336e-09
1.27645e-09
1.21667e-09
1.1545e-09
1.09022e-09
1.02412e-09
9.56486e-10
8.87646e-10
8.17931e-10
7.47692e-10
6.77295e-10
6.07127e-10
5.37592e-10
4.69118e-10
4.02161e-10
3.37212e-10
2.74811e-10
2.15565e-10
1.60191e-10
1.09579e-10
6.49436e-11
2.81859e-11
3.13351e-12
3.11022e-12
2.79745e-11
6.44559e-11
1.08758e-10
1.59002e-10
2.13995e-10
2.72871e-10
3.3494e-10
3.99622e-10
4.66408e-10
5.34836e-10
6.04484e-10
6.74955e-10
7.45875e-10
8.16887e-10
8.87652e-10
9.57843e-10
1.02715e-09
1.09527e-09
1.16191e-09
1.2268e-09
1.28968e-09
1.35029e-09
1.40839e-09
1.46376e-09
1.51619e-09
1.56545e-09
1.61138e-09
1.65379e-09
1.69252e-09
1.72742e-09
1.75836e-09
1.7852e-09
1.80785e-09
1.8262e-09
1.84019e-09
1.84973e-09
1.85479e-09
1.85533e-09
1.85136e-09
1.84281e-09
1.82973e-09
1.81213e-09
1.79008e-09
1.76362e-09
1.73285e-09
1.69785e-09
1.65874e-09
1.61567e-09
1.56877e-09
1.51822e-09
1.46421e-09
1.40695e-09
1.34666e-09
1.2836e-09
1.21802e-09
1.15021e-09
1.08047e-09
1.00911e-09
9.36481e-10
8.62922e-10
7.88809e-10
7.14528e-10
6.40489e-10
5.67119e-10
4.9487e-10
4.24224e-10
3.557e-10
2.89867e-10
2.27368e-10
1.68956e-10
1.15572e-10
6.84936e-11
2.97261e-11
3.30472e-12
3.27534e-12
2.94594e-11
6.78763e-11
1.14527e-10
1.67429e-10
2.25327e-10
2.87304e-10
3.52632e-10
4.20698e-10
4.90963e-10
5.62939e-10
6.36178e-10
7.1026e-10
7.84791e-10
8.59392e-10
9.33705e-10
1.00739e-09
1.08011e-09
1.15155e-09
1.22142e-09
1.28941e-09
1.35526e-09
1.41871e-09
1.47949e-09
1.53739e-09
1.59216e-09
1.64362e-09
1.69155e-09
1.73578e-09
1.77614e-09
1.81248e-09
1.84465e-09
1.87255e-09
1.89604e-09
1.91504e-09
1.92947e-09
1.93926e-09
1.94436e-09
1.94474e-09
1.94042e-09
1.93131e-09
1.91746e-09
1.89891e-09
1.8757e-09
1.8479e-09
1.81559e-09
1.77887e-09
1.73786e-09
1.6927e-09
1.64354e-09
1.59057e-09
1.53398e-09
1.47399e-09
1.41084e-09
1.34477e-09
1.27607e-09
1.20503e-09
1.13196e-09
1.0572e-09
9.81103e-10
9.04032e-10
8.26379e-10
7.4855e-10
6.70973e-10
5.94098e-10
5.18399e-10
4.44382e-10
3.72591e-10
3.03623e-10
2.3815e-10
1.76964e-10
1.21046e-10
7.1736e-11
3.11328e-11
3.46108e-12
3.43454e-12
3.0891e-11
7.11733e-11
1.20086e-10
1.75548e-10
2.36238e-10
3.01195e-10
3.69649e-10
4.40955e-10
5.14543e-10
5.89899e-10
6.66549e-10
7.44052e-10
8.21988e-10
8.99961e-10
9.77594e-10
1.05452e-09
1.13041e-09
1.20491e-09
1.27772e-09
1.34853e-09
1.41706e-09
1.48304e-09
1.5462e-09
1.6063e-09
1.66312e-09
1.71645e-09
1.76607e-09
1.81182e-09
1.85351e-09
1.891e-09
1.92415e-09
1.95282e-09
1.97692e-09
1.99635e-09
2.01102e-09
2.02087e-09
2.02586e-09
2.02594e-09
2.02116e-09
2.01141e-09
1.99676e-09
1.97723e-09
1.95289e-09
1.92379e-09
1.89001e-09
1.85168e-09
1.8089e-09
1.76181e-09
1.71059e-09
1.65542e-09
1.59649e-09
1.53403e-09
1.46828e-09
1.39951e-09
1.32801e-09
1.25407e-09
1.17803e-09
1.10022e-09
1.02102e-09
9.40808e-10
8.59988e-10
7.78984e-10
6.98243e-10
6.18232e-10
5.39447e-10
4.62414e-10
3.87699e-10
3.15925e-10
2.47793e-10
1.84124e-10
1.2594e-10
7.4635e-11
3.23904e-11
3.60087e-12
3.58868e-12
3.2277e-11
7.43648e-11
1.25465e-10
1.83401e-10
2.46788e-10
3.14616e-10
3.86078e-10
4.60494e-10
5.37263e-10
6.15844e-10
6.95737e-10
7.76475e-10
8.57619e-10
9.38751e-10
1.01947e-09
1.09941e-09
1.17819e-09
1.25547e-09
1.33094e-09
1.40426e-09
1.47515e-09
1.54333e-09
1.60853e-09
1.67051e-09
1.72903e-09
1.78387e-09
1.83484e-09
1.88176e-09
1.92444e-09
1.96275e-09
1.99655e-09
2.0257e-09
2.05011e-09
2.06969e-09
2.08436e-09
2.09405e-09
2.09873e-09
2.09836e-09
2.09298e-09
2.08249e-09
2.06696e-09
2.04642e-09
2.02093e-09
1.99056e-09
1.95539e-09
1.91554e-09
1.87112e-09
1.82228e-09
1.76919e-09
1.71203e-09
1.65102e-09
1.58637e-09
1.51834e-09
1.4472e-09
1.37323e-09
1.29676e-09
1.21812e-09
1.13766e-09
1.05575e-09
9.72806e-10
8.8923e-10
8.05464e-10
7.21969e-10
6.3923e-10
5.57759e-10
4.781e-10
4.00841e-10
3.26626e-10
2.56179e-10
1.9035e-10
1.30196e-10
7.71554e-11
3.34837e-11
3.72239e-12
3.73891e-12
3.36278e-11
7.74748e-11
1.30706e-10
1.91049e-10
2.57056e-10
3.27668e-10
4.0204e-10
4.79456e-10
5.59283e-10
6.40952e-10
7.23936e-10
8.07742e-10
8.91907e-10
9.75991e-10
1.05958e-09
1.14227e-09
1.22369e-09
1.30347e-09
1.38129e-09
1.4568e-09
1.52972e-09
1.59975e-09
1.66663e-09
1.7301e-09
1.78993e-09
1.84591e-09
1.89783e-09
1.94552e-09
1.98882e-09
2.02757e-09
2.06164e-09
2.09092e-09
2.11531e-09
2.13473e-09
2.1491e-09
2.15837e-09
2.1625e-09
2.16148e-09
2.15532e-09
2.14395e-09
2.12744e-09
2.10583e-09
2.07918e-09
2.04755e-09
2.01104e-09
1.96976e-09
1.92383e-09
1.8734e-09
1.81864e-09
1.75974e-09
1.6969e-09
1.63036e-09
1.56037e-09
1.4872e-09
1.41115e-09
1.33254e-09
1.25171e-09
1.16901e-09
1.08484e-09
9.99598e-10
9.13713e-10
8.27633e-10
7.41832e-10
6.56808e-10
5.73087e-10
4.9123e-10
4.11841e-10
3.35581e-10
2.63196e-10
1.95559e-10
1.33756e-10
7.92633e-11
3.4398e-11
3.82401e-12
3.88673e-12
3.49569e-11
8.05339e-11
1.35859e-10
1.98565e-10
2.6714e-10
3.40477e-10
4.17688e-10
4.9802e-10
5.8081e-10
6.65455e-10
7.51398e-10
8.38122e-10
9.25138e-10
1.01198e-09
1.09822e-09
1.18343e-09
1.26722e-09
1.34922e-09
1.42907e-09
1.50644e-09
1.58103e-09
1.65254e-09
1.72069e-09
1.78525e-09
1.84597e-09
1.90265e-09
1.9551e-09
2.00314e-09
2.04661e-09
2.08537e-09
2.11931e-09
2.14832e-09
2.1723e-09
2.19119e-09
2.20493e-09
2.21346e-09
2.21677e-09
2.21485e-09
2.2077e-09
2.19529e-09
2.17767e-09
2.1549e-09
2.12703e-09
2.09414e-09
2.05632e-09
2.01369e-09
1.96637e-09
1.91452e-09
1.85829e-09
1.79788e-09
1.7335e-09
1.66538e-09
1.59377e-09
1.51895e-09
1.44121e-09
1.36087e-09
1.27828e-09
1.19381e-09
1.10783e-09
1.02077e-09
9.33057e-10
8.45147e-10
7.57523e-10
6.70693e-10
5.85194e-10
5.016e-10
4.20527e-10
3.42652e-10
2.68735e-10
1.9967e-10
1.36564e-10
8.0926e-11
3.51191e-11
3.90415e-12
4.0339e-12
3.62799e-11
8.35788e-11
1.40987e-10
2.06039e-10
2.77161e-10
3.53194e-10
4.33205e-10
5.16404e-10
6.0209e-10
6.89628e-10
7.78429e-10
8.67947e-10
9.57664e-10
1.04709e-09
1.13577e-09
1.22327e-09
1.30917e-09
1.39309e-09
1.47466e-09
1.55355e-09
1.62943e-09
1.70201e-09
1.77103e-09
1.83623e-09
1.89739e-09
1.95431e-09
2.0068e-09
2.0547e-09
2.09786e-09
2.13617e-09
2.16951e-09
2.19779e-09
2.22093e-09
2.23889e-09
2.2516e-09
2.25905e-09
2.26121e-09
2.2581e-09
2.24971e-09
2.23604e-09
2.21716e-09
2.1931e-09
2.16394e-09
2.12977e-09
2.09066e-09
2.04675e-09
1.99816e-09
1.94503e-09
1.88754e-09
1.82587e-09
1.76023e-09
1.69084e-09
1.61797e-09
1.54188e-09
1.46286e-09
1.38124e-09
1.29736e-09
1.21159e-09
1.12431e-09
1.03593e-09
9.46906e-10
8.57683e-10
7.68752e-10
6.80629e-10
5.93857e-10
5.09019e-10
4.2674e-10
3.47707e-10
2.72695e-10
2.02607e-10
1.3857e-10
8.21132e-11
3.56337e-11
3.96134e-12
4.18246e-12
3.76154e-11
8.66517e-11
1.46159e-10
2.13576e-10
2.87259e-10
3.65994e-10
4.48805e-10
5.34857e-10
6.2341e-10
7.13793e-10
8.05382e-10
8.97597e-10
9.89892e-10
1.08175e-09
1.17269e-09
1.26226e-09
1.35001e-09
1.43556e-09
1.51852e-09
1.59856e-09
1.67534e-09
1.74857e-09
1.818e-09
1.88337e-09
1.94447e-09
2.00112e-09
2.05313e-09
2.10036e-09
2.1427e-09
2.18002e-09
2.21224e-09
2.23929e-09
2.26111e-09
2.27767e-09
2.28893e-09
2.29489e-09
2.29553e-09
2.29092e-09
2.281e-09
2.26583e-09
2.24548e-09
2.22e-09
2.18945e-09
2.15394e-09
2.11356e-09
2.06841e-09
2.01864e-09
1.9644e-09
1.90584e-09
1.84315e-09
1.77654e-09
1.70622e-09
1.63245e-09
1.55549e-09
1.47563e-09
1.3932e-09
1.30851e-09
1.22194e-09
1.13388e-09
1.04473e-09
9.54929e-10
8.6494e-10
7.75251e-10
6.86377e-10
5.98868e-10
5.13309e-10
4.30331e-10
3.50628e-10
2.7498e-10
2.04302e-10
1.39726e-10
8.27967e-11
3.59299e-11
3.99424e-12
4.33469e-12
3.8984e-11
8.98e-11
1.51458e-10
2.21292e-10
2.97588e-10
3.79075e-10
4.64725e-10
5.53659e-10
6.45091e-10
7.38309e-10
8.32652e-10
9.27502e-10
1.02228e-09
1.11644e-09
1.20947e-09
1.30089e-09
1.39025e-09
1.47713e-09
1.56115e-09
1.64196e-09
1.71923e-09
1.79267e-09
1.86202e-09
1.92706e-09
1.98757e-09
2.04338e-09
2.09435e-09
2.14035e-09
2.18127e-09
2.21703e-09
2.24757e-09
2.27284e-09
2.29281e-09
2.30746e-09
2.31679e-09
2.32081e-09
2.31954e-09
2.31303e-09
2.30127e-09
2.28434e-09
2.26229e-09
2.2352e-09
2.20316e-09
2.16624e-09
2.12455e-09
2.07822e-09
2.02737e-09
1.97215e-09
1.91272e-09
1.84925e-09
1.78196e-09
1.71104e-09
1.63675e-09
1.55934e-09
1.47909e-09
1.39631e-09
1.31133e-09
1.2245e-09
1.1362e-09
1.04683e-09
9.56831e-10
8.66652e-10
7.76778e-10
6.87726e-10
6.00042e-10
5.14312e-10
4.31169e-10
3.51307e-10
2.75509e-10
2.04691e-10
1.39991e-10
8.2952e-11
3.59969e-11
4.00167e-12
4.4931e-12
4.04081e-11
9.30755e-11
1.56968e-10
2.29312e-10
3.08317e-10
3.9265e-10
4.81226e-10
5.73114e-10
6.67482e-10
7.63568e-10
8.6067e-10
9.58127e-10
1.05532e-09
1.15167e-09
1.24664e-09
1.33972e-09
1.43044e-09
1.51836e-09
1.6031e-09
1.68429e-09
1.76161e-09
1.83478e-09
1.90354e-09
1.96769e-09
2.02703e-09
2.08142e-09
2.13073e-09
2.17486e-09
2.21374e-09
2.24732e-09
2.27556e-09
2.29845e-09
2.31599e-09
2.32819e-09
2.33507e-09
2.33667e-09
2.33305e-09
2.32423e-09
2.31029e-09
2.29128e-09
2.2673e-09
2.23841e-09
2.20472e-09
2.16631e-09
2.12332e-09
2.07584e-09
2.02401e-09
1.96797e-09
1.90788e-09
1.8439e-09
1.77623e-09
1.70507e-09
1.63065e-09
1.55322e-09
1.47305e-09
1.39042e-09
1.30566e-09
1.2191e-09
1.13112e-09
1.04211e-09
9.52489e-10
8.62703e-10
7.7323e-10
6.8458e-10
5.97294e-10
5.11954e-10
4.29188e-10
3.49689e-10
2.74236e-10
2.03741e-10
1.39337e-10
8.25632e-11
3.58275e-11
3.98282e-12
4.66036e-12
4.19116e-11
9.65334e-11
1.62784e-10
2.37773e-10
3.19628e-10
4.06947e-10
4.98584e-10
5.93548e-10
6.90953e-10
7.89986e-10
8.89891e-10
9.89963e-10
1.08954e-09
1.188e-09
1.28478e-09
1.37933e-09
1.47116e-09
1.55982e-09
1.64492e-09
1.72608e-09
1.80298e-09
1.87537e-09
1.94299e-09
2.00565e-09
2.06321e-09
2.11552e-09
2.16251e-09
2.20411e-09
2.24027e-09
2.271e-09
2.29628e-09
2.31615e-09
2.33063e-09
2.33978e-09
2.34365e-09
2.34232e-09
2.33587e-09
2.32435e-09
2.30786e-09
2.28647e-09
2.2603e-09
2.22943e-09
2.19396e-09
2.154e-09
2.10965e-09
2.06104e-09
2.0083e-09
1.95155e-09
1.89097e-09
1.8267e-09
1.75893e-09
1.68786e-09
1.61368e-09
1.53665e-09
1.457e-09
1.37502e-09
1.29101e-09
1.20529e-09
1.11822e-09
1.03016e-09
9.41528e-10
8.52755e-10
7.64306e-10
6.76676e-10
5.90398e-10
5.06044e-10
4.24233e-10
3.45651e-10
2.71067e-10
2.01384e-10
1.37724e-10
8.16058e-11
3.54116e-11
3.93657e-12
4.83924e-12
4.35197e-11
1.00231e-10
1.69001e-10
2.46815e-10
3.31709e-10
4.22204e-10
5.17085e-10
6.15298e-10
7.15891e-10
8.17991e-10
9.20786e-10
1.02352e-09
1.12547e-09
1.22598e-09
1.32444e-09
1.42028e-09
1.51297e-09
1.60206e-09
1.68713e-09
1.76782e-09
1.84382e-09
1.91487e-09
1.98075e-09
2.04129e-09
2.09638e-09
2.14593e-09
2.18988e-09
2.22821e-09
2.26094e-09
2.28809e-09
2.30971e-09
2.32586e-09
2.33664e-09
2.34213e-09
2.34243e-09
2.33764e-09
2.32786e-09
2.3132e-09
2.29377e-09
2.26967e-09
2.24102e-09
2.20792e-09
2.17049e-09
2.12884e-09
2.08309e-09
2.03336e-09
1.97977e-09
1.92247e-09
1.86159e-09
1.79728e-09
1.72972e-09
1.65907e-09
1.58554e-09
1.50935e-09
1.43071e-09
1.3499e-09
1.26719e-09
1.18288e-09
1.0973e-09
1.01082e-09
9.23802e-10
8.36677e-10
7.49887e-10
6.63911e-10
5.79266e-10
4.96507e-10
4.16244e-10
3.39144e-10
2.65965e-10
1.97594e-10
1.35131e-10
8.00688e-11
3.47444e-11
3.86238e-12
5.03256e-12
4.52576e-11
1.04227e-10
1.75719e-10
2.56581e-10
3.44749e-10
4.38661e-10
5.37022e-10
6.38703e-10
7.42681e-10
8.48015e-10
9.53824e-10
1.05929e-09
1.16363e-09
1.26615e-09
1.36618e-09
1.46311e-09
1.55641e-09
1.64559e-09
1.73023e-09
1.80997e-09
1.88452e-09
1.95362e-09
2.0171e-09
2.07483e-09
2.12672e-09
2.17274e-09
2.21288e-09
2.24718e-09
2.2757e-09
2.29851e-09
2.31572e-09
2.32747e-09
2.33387e-09
2.33506e-09
2.33119e-09
2.32239e-09
2.30879e-09
2.29055e-09
2.26778e-09
2.24064e-09
2.20924e-09
2.17372e-09
2.13419e-09
2.09078e-09
2.0436e-09
1.99279e-09
1.93846e-09
1.88074e-09
1.81976e-09
1.75567e-09
1.68862e-09
1.61876e-09
1.54627e-09
1.47135e-09
1.39421e-09
1.31508e-09
1.23421e-09
1.15189e-09
1.06841e-09
9.84099e-10
8.99327e-10
8.14482e-10
7.29985e-10
6.46294e-10
5.63903e-10
4.8335e-10
4.05222e-10
3.30171e-10
2.58932e-10
1.9237e-10
1.31559e-10
7.79519e-11
3.38256e-11
3.76023e-12
5.24313e-12
4.71508e-11
1.08579e-10
1.83034e-10
2.67213e-10
3.5894e-10
4.56556e-10
5.58681e-10
6.64099e-10
7.71705e-10
8.80478e-10
9.8946e-10
1.09776e-09
1.20453e-09
1.30902e-09
1.4105e-09
1.50833e-09
1.60194e-09
1.69084e-09
1.77459e-09
1.85284e-09
1.92532e-09
1.99181e-09
2.05217e-09
2.10632e-09
2.15422e-09
2.19588e-09
2.23139e-09
2.26082e-09
2.28429e-09
2.30198e-09
2.31404e-09
2.32062e-09
2.32196e-09
2.31822e-09
2.30958e-09
2.29623e-09
2.27834e-09
2.2561e-09
2.22965e-09
2.19917e-09
2.1648e-09
2.12667e-09
2.08493e-09
2.0397e-09
1.99111e-09
1.93927e-09
1.88431e-09
1.82635e-09
1.7655e-09
1.70189e-09
1.63566e-09
1.56695e-09
1.49591e-09
1.42271e-09
1.34755e-09
1.27061e-09
1.19213e-09
1.11236e-09
1.03157e-09
9.50052e-10
8.68146e-10
7.86209e-10
7.04637e-10
6.23858e-10
5.44342e-10
4.66599e-10
3.91194e-10
3.18752e-10
2.49985e-10
1.85727e-10
1.27017e-10
7.52611e-11
3.2658e-11
3.63043e-12
5.47366e-12
4.92233e-11
1.13344e-10
1.91042e-10
2.78848e-10
3.74462e-10
4.76119e-10
5.82337e-10
6.91805e-10
8.03323e-10
9.15775e-10
1.02812e-09
1.13937e-09
1.24862e-09
1.35502e-09
1.45781e-09
1.55631e-09
1.6499e-09
1.73808e-09
1.82042e-09
1.89658e-09
1.9663e-09
2.02943e-09
2.08586e-09
2.13556e-09
2.17858e-09
2.21501e-09
2.24498e-09
2.26865e-09
2.28624e-09
2.29797e-09
2.30404e-09
2.30476e-09
2.30035e-09
2.29104e-09
2.27707e-09
2.25867e-09
2.23605e-09
2.20943e-09
2.179e-09
2.14494e-09
2.10741e-09
2.06657e-09
2.02256e-09
1.97551e-09
1.92555e-09
1.8728e-09
1.81736e-09
1.75936e-09
1.69888e-09
1.63606e-09
1.57099e-09
1.50381e-09
1.43464e-09
1.36362e-09
1.29091e-09
1.21669e-09
1.14114e-09
1.06449e-09
9.86965e-10
9.0884e-10
8.3041e-10
7.52e-10
6.73971e-10
5.9672e-10
5.20684e-10
4.46345e-10
3.74236e-10
3.04952e-10
2.39174e-10
1.77702e-10
1.21532e-10
7.20125e-11
3.12485e-11
3.47376e-12
5.72667e-12
5.14974e-11
1.18572e-10
1.99828e-10
2.9161e-10
3.91482e-10
4.97557e-10
6.08241e-10
7.22111e-10
8.37857e-10
9.54256e-10
1.07016e-09
1.18449e-09
1.29624e-09
1.4045e-09
1.50843e-09
1.6073e-09
1.70047e-09
1.78742e-09
1.86772e-09
1.94107e-09
2.00725e-09
2.06615e-09
2.11773e-09
2.16205e-09
2.19922e-09
2.22943e-09
2.25289e-09
2.26988e-09
2.28067e-09
2.28554e-09
2.2849e-09
2.27901e-09
2.26818e-09
2.2527e-09
2.23288e-09
2.20898e-09
2.18127e-09
2.14998e-09
2.11533e-09
2.07752e-09
2.03674e-09
1.99315e-09
1.94689e-09
1.8981e-09
1.84691e-09
1.79342e-09
1.73773e-09
1.67994e-09
1.62015e-09
1.55845e-09
1.49492e-09
1.42967e-09
1.3628e-09
1.29442e-09
1.22466e-09
1.15366e-09
1.08158e-09
1.0086e-09
9.34919e-10
8.60768e-10
7.86403e-10
7.12114e-10
6.38224e-10
5.65091e-10
4.93118e-10
4.2275e-10