/*--------------------------------*- C++ -*----------------------------------*\
  =========                 |
  \\      /  F ield         | OpenFOAM: The Open Source CFD Toolbox
   \\    /   O peration     | Website:  https://openfoam.org
    \\  /    A nd           | Version:  12
     \\/     M anipulation  |
\*---------------------------------------------------------------------------*/
FoamFile
{
    format      ascii;
    class       volScalarField;
    location    "8.5";
    object      p;
}
// * * * * * * * * * * * * * * * * * * * * * * * * * * * * * * * * * * * * * //

dimensions      [0 2 -2 0 0 0 0];

internalField   nonuniform List<scalar> 
5625
(
1.05734e-09
6.19815e-08
9.63496e-07
2.79819e-06
5.34294e-06
8.38562e-06
1.17504e-05
1.52787e-05
1.88309e-05
2.22829e-05
2.55273e-05
2.84724e-05
3.10408e-05
3.31682e-05
3.48023e-05
3.59015e-05
3.64342e-05
3.63777e-05
3.57177e-05
3.44472e-05
3.25659e-05
3.008e-05
2.70013e-05
2.33467e-05
1.91378e-05
1.44004e-05
9.16419e-06
3.46211e-06
-2.66981e-06
-9.19306e-06
-1.60668e-05
-2.32482e-05
-3.06932e-05
-3.83562e-05
-4.61907e-05
-5.41496e-05
-6.21855e-05
-7.02509e-05
-7.82981e-05
-8.62801e-05
-9.41507e-05
-0.000101864
-0.000109376
-0.000116643
-0.000123624
-0.000130278
-0.000136568
-0.000142457
-0.000147912
-0.000152901
-0.000157398
-0.000161376
-0.000164815
-0.000167696
-0.000170006
-0.000171735
-0.00017288
-0.00017344
-0.000173424
-0.000172846
-0.000171726
-0.000170093
-0.000167988
-0.000165458
-0.000162563
-0.000159378
-0.000155989
-0.000152501
-0.000149032
-0.000145715
-0.000142713
-0.000140196
-0.000138372
-0.000137468
-0.000137398
-3.12273e-06
-2.69145e-06
-1.67022e-06
-2.66223e-08
2.11439e-06
4.611e-06
7.33705e-06
1.0177e-05
1.30242e-05
1.57821e-05
1.83646e-05
2.06963e-05
2.27122e-05
2.43568e-05
2.55841e-05
2.63568e-05
2.66456e-05
2.6429e-05
2.56922e-05
2.44274e-05
2.26324e-05
2.0311e-05
1.74718e-05
1.41283e-05
1.02982e-05
6.00331e-06
1.26873e-06
-3.87717e-06
-9.40321e-06
-1.52758e-05
-2.14591e-05
-2.79157e-05
-3.46064e-05
-4.14911e-05
-4.85284e-05
-5.56765e-05
-6.28933e-05
-7.01364e-05
-7.73635e-05
-8.45327e-05
-9.16026e-05
-9.85329e-05
-0.000105284
-0.000111817
-0.000118096
-0.000124084
-0.000129749
-0.00013506
-0.000139986
-0.000144501
-0.000148581
-0.000152205
-0.000155355
-0.000158016
-0.000160178
-0.000161834
-0.000162982
-0.000163625
-0.000163772
-0.000163436
-0.000162638
-0.000161405
-0.000159772
-0.000157783
-0.000155489
-0.000152951
-0.000150243
-0.000147445
-0.000144652
-0.000141966
-0.000139501
-0.00013738
-0.000135746
-0.00013472
-0.000134277
-9.21683e-06
-8.07032e-06
-6.46003e-06
-4.53484e-06
-2.35336e-06
1.78798e-08
2.50059e-06
5.01574e-06
7.48795e-06
9.84687e-06
1.20278e-05
1.39725e-05
1.56293e-05
1.69531e-05
1.79061e-05
1.84567e-05
1.85798e-05
1.82565e-05
1.74739e-05
1.62245e-05
1.45059e-05
1.23209e-05
9.67654e-06
6.58436e-06
3.05958e-06
-8.78959e-07
-5.20921e-06
-9.90621e-06
-1.49424e-05
-2.0288e-05
-2.59112e-05
-3.17785e-05
-3.7855e-05
-4.41046e-05
-5.04905e-05
-5.69752e-05
-6.35208e-05
-7.00893e-05
-7.66428e-05
-8.31437e-05
-8.9555e-05
-9.58403e-05
-0.000101964
-0.000107893
-0.000113593
-0.000119033
-0.000124184
-0.000129017
-0.000133507
-0.00013763
-0.000141366
-0.000144697
-0.000147606
-0.000150081
-0.000152115
-0.000153701
-0.00015484
-0.000155533
-0.000155788
-0.000155619
-0.000155042
-0.000154082
-0.000152767
-0.000151133
-0.000149222
-0.000147083
-0.000144769
-0.000142343
-0.000139871
-0.000137427
-0.000135086
-0.000132924
-0.000131007
-0.000129391
-0.000128232
-1.71229e-05
-1.50907e-05
-1.26328e-05
-1.01228e-05
-7.56567e-06
-4.96872e-06
-2.37678e-06
1.55983e-07
2.57696e-06
4.83632e-06
6.88702e-06
8.68568e-06
1.0193e-05
1.13746e-05
1.22005e-05
1.26462e-05
1.26917e-05
1.23224e-05
1.1528e-05
1.03032e-05
8.64704e-06
6.56268e-06
4.05728e-06
1.14178e-06
-2.16956e-06
-5.85917e-06
-9.90674e-06
-1.42892e-05
-1.89812e-05
-2.39553e-05
-2.91823e-05
-3.46315e-05
-4.02708e-05
-4.60671e-05
-5.19868e-05
-5.79952e-05
-6.40578e-05
-7.01399e-05
-7.62067e-05
-8.22238e-05
-8.81576e-05
-9.39749e-05
-9.96435e-05
-0.000105132
-0.000110411
-0.000115452
-0.000120227
-0.000124713
-0.000128884
-0.000132721
-0.000136204
-0.000139317
-0.000142046
-0.00014438
-0.00014631
-0.000147832
-0.000148944
-0.000149647
-0.000149949
-0.000149857
-0.000149387
-0.000148555
-0.000147385
-0.000145904
-0.000144144
-0.000142139
-0.00013993
-0.00013756
-0.000135077
-0.000132529
-0.000129967
-0.000127435
-0.000124936
-0.000122474
-0.000120429
-2.56159e-05
-2.26548e-05
-1.92568e-05
-1.60264e-05
-1.29293e-05
-9.92527e-06
-7.03498e-06
-4.29513e-06
-1.74139e-06
5.92369e-07
2.67345e-06
4.47102e-06
5.95675e-06
7.10546e-06
7.89537e-06
8.30846e-06
8.33045e-06
7.95107e-06
7.16381e-06
5.96613e-06
4.35906e-06
2.3474e-06
-6.08439e-08
-2.85421e-06
-6.01845e-06
-9.53628e-06
-1.33881e-05
-1.75517e-05
-2.2003e-05
-2.67161e-05
-3.16632e-05
-3.68155e-05
-4.2143e-05
-4.76145e-05
-5.31986e-05
-5.8863e-05
-6.45755e-05
-7.03037e-05
-7.60154e-05
-8.16788e-05
-8.72626e-05
-9.2736e-05
-9.80694e-05
-0.000103234
-0.000108202
-0.000112948
-0.000117446
-0.000121673
-0.000125608
-0.000129231
-0.000132524
-0.000135473
-0.000138063
-0.000140284
-0.000142128
-0.000143588
-0.000144663
-0.000145351
-0.000145656
-0.000145585
-0.000145146
-0.000144351
-0.000143218
-0.000141763
-0.000140011
-0.000137984
-0.000135711
-0.00013322
-0.00013054
-0.000127705
-0.000124747
-0.000121683
-0.000118471
-0.000115072
-0.000112099
-3.38706e-05
-2.99973e-05
-2.56451e-05
-2.16387e-05
-1.79157e-05
-1.43988e-05
-1.10924e-05
-8.02189e-06
-5.21124e-06
-2.68267e-06
-4.57927e-07
1.44209e-06
2.99803e-06
4.19271e-06
5.01142e-06
5.44231e-06
5.47647e-06
5.10815e-06
4.33477e-06
3.15695e-06
1.57843e-06
-3.93949e-07
-2.75045e-06
-5.47847e-06
-8.56283e-06
-1.19858e-05
-1.57276e-05
-1.97662e-05
-2.40777e-05
-2.86368e-05
-3.34167e-05
-3.83893e-05
-4.35257e-05
-4.87962e-05
-5.41706e-05
-5.96182e-05
-6.51084e-05
-7.06103e-05
-7.60937e-05
-8.15282e-05
-8.68845e-05
-9.21336e-05
-9.72475e-05
-0.000102199
-0.000106963
-0.000111513
-0.000115828
-0.000119884
-0.000123662
-0.000127142
-0.000130308
-0.000133145
-0.000135639
-0.000137779
-0.000139556
-0.000140964
-0.000141997
-0.000142654
-0.000142933
-0.000142839
-0.000142375
-0.000141549
-0.00014037
-0.00013885
-0.000137003
-0.000134843
-0.000132388
-0.000129654
-0.000126659
-0.000123423
-0.000119967
-0.000116291
-0.000112313
-0.000107967
-0.000104085
-4.13103e-05
-3.65614e-05
-3.12732e-05
-2.64769e-05
-2.20889e-05
-1.80035e-05
-1.42138e-05
-1.07387e-05
-7.59467e-06
-4.79564e-06
-2.35532e-06
-2.87039e-07
1.39702e-06
2.68625e-06
3.57202e-06
4.04793e-06
4.11005e-06
3.75699e-06
2.9901e-06
1.81337e-06
2.33543e-07
-1.74005e-06
-4.09545e-06
-6.81833e-06
-9.89199e-06
-1.32976e-05
-1.70144e-05
-2.10199e-05
-2.52897e-05
-2.97984e-05
-3.45191e-05
-3.94241e-05
-4.44848e-05
-4.96721e-05
-5.49563e-05
-6.03078e-05
-6.56966e-05
-7.10931e-05
-7.64678e-05
-8.17917e-05
-8.70364e-05
-9.21743e-05
-9.71783e-05
-0.000102023
-0.000106682
-0.000111134
-0.000115354
-0.000119323
-0.00012302
-0.000126426
-0.000129526
-0.000132304
-0.000134745
-0.000136839
-0.000138576
-0.000139946
-0.000140943
-0.000141563
-0.000141802
-0.000141659
-0.000141135
-0.000140232
-0.000138955
-0.000137307
-0.000135297
-0.000132932
-0.00013022
-0.000127169
-0.000123788
-0.000120088
-0.000116083
-0.00011176
-0.000107007
-0.000101736
-9.69847e-05
-4.75176e-05
-4.19292e-05
-3.57312e-05
-3.01491e-05
-2.50829e-05
-2.04031e-05
-1.60959e-05
-1.21767e-05
-8.65717e-06
-5.54567e-06
-2.85015e-06
-5.78201e-07
1.26356e-06
2.66989e-06
3.63728e-06
4.16413e-06
4.25101e-06
3.90067e-06
3.1183e-06
1.91132e-06
2.89675e-07
-1.73451e-06
-4.14671e-06
-6.93041e-06
-1.00669e-05
-1.35357e-05
-1.73145e-05
-2.13796e-05
-2.57056e-05
-3.02665e-05
-3.50345e-05
-3.99818e-05
-4.50793e-05
-5.02979e-05
-5.5608e-05
-6.098e-05
-6.63843e-05
-7.17917e-05
-7.71731e-05
-8.25002e-05
-8.7745e-05
-9.28804e-05
-9.78802e-05
-0.000102719
-0.000107373
-0.000111817
-0.000116032
-0.000119994
-0.000123686
-0.000127088
-0.000130183
-0.000132957
-0.000135393
-0.000137481
-0.000139207
-0.000140563
-0.000141539
-0.000142128
-0.000142324
-0.000142123
-0.000141522
-0.000140518
-0.000139111
-0.000137301
-0.000135088
-0.000132475
-0.000129463
-0.000126054
-0.00012225
-0.000118055
-0.00011348
-0.000108501
-0.000102984
-9.68214e-05
-9.12433e-05
-5.21718e-05
-4.57708e-05
-3.86852e-05
-3.23268e-05
-2.65815e-05
-2.1299e-05
-1.64608e-05
-1.20809e-05
-8.16814e-06
-4.72715e-06
-1.7617e-06
7.24937e-07
2.73054e-06
4.25427e-06
5.29698e-06
5.86132e-06
5.95195e-06
5.57556e-06
4.74103e-06
3.45934e-06
1.74368e-06
-3.90721e-07
-2.92653e-06
-5.84459e-06
-9.12382e-06
-1.27416e-05
-1.66736e-05
-2.08945e-05
-2.53773e-05
-3.00945e-05
-3.50175e-05
-4.01171e-05
-4.53637e-05
-5.07274e-05
-5.6178e-05
-6.16858e-05
-6.72208e-05
-7.27536e-05
-7.82551e-05
-8.36969e-05
-8.90513e-05
-9.42912e-05
-9.93905e-05
-0.000104324
-0.000109067
-0.000113598
-0.000117893
-0.000121932
-0.000125694
-0.000129162
-0.000132318
-0.000135145
-0.000137628
-0.000139753
-0.000141508
-0.00014288
-0.000143858
-0.000144434
-0.000144599
-0.000144344
-0.000143664
-0.000142552
-0.000141004
-0.000139015
-0.000136582
-0.000133701
-0.00013037
-0.000126584
-0.000122341
-0.000117641
-0.000112491
-0.000106863
-0.000100599
-9.35763e-05
-8.72073e-05
-5.50024e-05
-4.78037e-05
-3.98446e-05
-3.27185e-05
-2.62982e-05
-2.04143e-05
-1.50449e-05
-1.02036e-05
-5.89781e-06
-2.12934e-06
1.10103e-06
3.79346e-06
5.94925e-06
7.57136e-06
8.66442e-06
9.23498e-06
9.29147e-06
8.84443e-06
7.90635e-06
6.49186e-06
4.61751e-06
2.30189e-06
-4.34629e-07
-3.56985e-06
-7.08003e-06
-1.09399e-05
-1.51228e-05
-1.9601e-05
-2.43457e-05
-2.93275e-05
-3.45161e-05
-3.98809e-05
-4.53909e-05
-5.1015e-05
-5.67223e-05
-6.24819e-05
-6.82631e-05
-7.4036e-05
-7.9771e-05
-8.54392e-05
-9.10126e-05
-9.64638e-05
-0.000101766
-0.000106895
-0.000111825
-0.000116533
-0.000120997
-0.000125196
-0.000129108
-0.000132715
-0.000135999
-0.000138942
-0.000141528
-0.000143742
-0.000145569
-0.000146997
-0.000148011
-0.000148601
-0.000148755
-0.000148464
-0.000147717
-0.000146505
-0.000144819
-0.000142653
-0.000139997
-0.000136845
-0.00013319
-0.000129024
-0.000124341
-0.000119138
-0.000113419
-0.000107152
-0.000100159
-9.2302e-05
-8.51688e-05
-5.57561e-05
-4.77636e-05
-3.89358e-05
-3.10474e-05
-2.39581e-05
-1.74801e-05
-1.15884e-05
-6.29679e-06
-1.61172e-06
2.4669e-06
5.94084e-06
8.8131e-06
1.10881e-05
1.27721e-05
1.38734e-05
1.44021e-05
1.43703e-05
1.37923e-05
1.26844e-05
1.1065e-05
8.95402e-06
6.37379e-06
3.34798e-06
-9.78624e-08
-3.93691e-06
-8.14082e-06
-1.26803e-05
-1.75248e-05
-2.26433e-05
-2.80037e-05
-3.3574e-05
-3.93213e-05
-4.52132e-05
-5.12168e-05
-5.72997e-05
-6.34297e-05
-6.95752e-05
-7.57051e-05
-8.17889e-05
-8.77969e-05
-9.37003e-05
-9.94712e-05
-0.000105083
-0.000110509
-0.000115724
-0.000120705
-0.000125428
-0.000129873
-0.000134016
-0.00013784
-0.000141324
-0.00014445
-0.000147201
-0.00014956
-0.000151512
-0.000153041
-0.000154133
-0.000154774
-0.00015495
-0.000154649
-0.000153858
-0.000152565
-0.000150758
-0.000148427
-0.00014556
-0.000142147
-0.000138176
-0.000133638
-0.000128522
-0.000122824
-0.000116547
-0.000109653
-0.000101945
-9.32737e-05
-8.53941e-05
-5.41732e-05
-4.53809e-05
-3.56813e-05
-2.70327e-05
-1.92818e-05
-1.22214e-05
-5.82338e-06
-1.02258e-07
4.93645e-06
9.29456e-06
1.29762e-05
1.59869e-05
1.83341e-05
2.00273e-05
2.10781e-05
2.15004e-05
2.13102e-05
2.05254e-05
1.91663e-05
1.7255e-05
1.48156e-05
1.18741e-05
8.45789e-06
4.59616e-06
3.19286e-07
-4.34107e-06
-9.35233e-06
-1.4681e-05
-2.0293e-05
-2.61537e-05
-3.22284e-05
-3.8482e-05
-4.48798e-05
-5.13869e-05
-5.79692e-05
-6.45927e-05
-7.12244e-05
-7.78316e-05
-8.43828e-05
-9.08471e-05
-9.71947e-05
-0.000103397
-0.000109425
-0.000115254
-0.000120856
-0.000126208
-0.000131285
-0.000136065
-0.000140526
-0.000144647
-0.000148408
-0.000151789
-0.000154773
-0.000157341
-0.000159476
-0.000161162
-0.00016238
-0.000163117
-0.000163356
-0.000163083
-0.000162281
-0.000160937
-0.000159036
-0.000156564
-0.000153506
-0.00014985
-0.000145581
-0.000140686
-0.000135152
-0.000128973
-0.00012215
-0.000114643
-0.000106234
-9.67589e-05
-8.81429e-05
-4.99681e-05
-4.03632e-05
-2.97833e-05
-2.03754e-05
-1.19719e-05
-4.34543e-06
2.53541e-06
8.65584e-06
1.40113e-05
1.86054e-05
2.24446e-05
2.55374e-05
2.7894e-05
2.95275e-05
3.04529e-05
3.0688e-05
3.02527e-05
2.9169e-05
2.74615e-05
2.51562e-05
2.22818e-05
1.8868e-05
1.49467e-05
1.05508e-05
5.71484e-06
4.74099e-07
-5.13511e-06
-1.10759e-05
-1.73108e-05
-2.38023e-05
-3.05124e-05
-3.74036e-05
-4.44384e-05
-5.15798e-05
-5.87912e-05
-6.60369e-05
-7.32817e-05
-8.04917e-05
-8.76334e-05
-9.46748e-05
-0.000101585
-0.000108333
-0.000114891
-0.000121231
-0.000127326
-0.00013315
-0.000138679
-0.000143889
-0.000148758
-0.000153263
-0.000157383
-0.000161099
-0.00016439
-0.000167236
-0.00016962
-0.000171523
-0.000172926
-0.000173813
-0.000174165
-0.000173964
-0.000173195
-0.000171839
-0.000169879
-0.000167298
-0.00016408
-0.000160208
-0.000155666
-0.000150436
-0.000144504
-0.000137862
-0.000130509
-0.000122401
-0.0001133
-0.00010303
-9.36818e-05
-4.28158e-05
-3.23817e-05
-2.0911e-05
-1.07456e-05
-1.70235e-06
6.46725e-06
1.37989e-05
2.02779e-05
2.5901e-05
3.0674e-05
3.46062e-05
3.77089e-05
3.9996e-05
4.1484e-05
4.2192e-05
4.21417e-05
4.13575e-05
3.98659e-05
3.76959e-05
3.48782e-05
3.1446e-05
2.74337e-05
2.28777e-05
1.78153e-05
1.22854e-05
6.32747e-06
-1.80682e-08
-6.71052e-06
-1.37087e-05
-2.09715e-05
-2.84577e-05
-3.61267e-05
-4.39379e-05
-5.18519e-05
-5.98295e-05
-6.78326e-05
-7.58241e-05
-8.3768e-05
-9.16291e-05
-9.93738e-05
-0.000106969
-0.000114385
-0.000121589
-0.000128554
-0.000135252
-0.000141656
-0.00014774
-0.00015348
-0.000158851
-0.000163832
-0.0001684
-0.000172534
-0.000176212
-0.000179413
-0.000182119
-0.000184308
-0.000185961
-0.000187059
-0.000187581
-0.000187509
-0.000186822
-0.000185501
-0.000183527
-0.000180879
-0.000177538
-0.000173485
-0.0001687
-0.000163164
-0.000156859
-0.000149775
-0.00014191
-0.000133215
-0.000123433
-0.000112373
-0.000102294
-3.23386e-05
-2.1059e-05
-8.68883e-06
2.22779e-06
1.18907e-05
2.05717e-05
2.83113e-05
3.50956e-05
4.09232e-05
4.58028e-05
4.9747e-05
5.27706e-05
5.48914e-05
5.61301e-05
5.65102e-05
5.6058e-05
5.48028e-05
5.27759e-05
5.00115e-05
4.65453e-05
4.24155e-05
3.76618e-05
3.23254e-05
2.64486e-05
2.00752e-05
1.32491e-05
6.01544e-06
-1.58091e-06
-9.49461e-06
-1.76807e-05
-2.60943e-05
-3.46913e-05
-4.3428e-05
-5.22619e-05
-6.1151e-05
-7.00548e-05
-7.89337e-05
-8.77497e-05
-9.64656e-05
-0.000105046
-0.000113457
-0.000121665
-0.000129639
-0.000137348
-0.000144765
-0.00015186
-0.000158608
-0.000164983
-0.000170959
-0.000176514
-0.000181624
-0.000186265
-0.000190417
-0.000194057
-0.000197164
-0.000199716
-0.000201692
-0.00020307
-0.000203829
-0.000203946
-0.000203402
-0.000202172
-0.000200235
-0.000197569
-0.000194151
-0.000189958
-0.000184969
-0.000179161
-0.000172514
-0.000165014
-0.000156659
-0.000147394
-0.000136941
-0.000125095
-0.000114286
-1.80963e-05
-5.95885e-06
7.31274e-06
1.89655e-05
2.92176e-05
3.83656e-05
4.64561e-05
5.3477e-05
5.94293e-05
6.43256e-05
6.81823e-05
7.10186e-05
7.28568e-05
7.37224e-05
7.36441e-05
7.26535e-05
7.07851e-05
6.8076e-05
6.45657e-05
6.02959e-05
5.53104e-05
4.96543e-05
4.33746e-05
3.65189e-05
2.91363e-05
2.12759e-05
1.29876e-05
4.32127e-06
-4.67351e-06
-1.39473e-05
-2.34515e-05
-3.31379e-05
-4.29595e-05
-5.28704e-05
-6.28258e-05
-7.27823e-05
-8.26978e-05
-9.2532e-05
-0.000102246
-0.000111802
-0.000121164
-0.000130297
-0.00013917
-0.00014775
-0.000156008
-0.000163914
-0.00017144
-0.000178561
-0.00018525
-0.000191483
-0.000197235
-0.000202483
-0.000207203
-0.000211372
-0.000214967
-0.000217965
-0.000220344
-0.00022208
-0.000223149
-0.000223528
-0.000223193
-0.000222118
-0.00022028
-0.000217652
-0.000214209
-0.000209927
-0.000204779
-0.00019874
-0.000191786
-0.000183901
-0.000175081
-0.000165266
-0.000154158
-0.000141532
-0.000129993
4.24734e-07
1.34229e-05
2.75859e-05
3.99462e-05
5.07416e-05
6.02957e-05
6.86624e-05
7.58321e-05
8.18095e-05
8.66117e-05
9.02602e-05
9.27793e-05
9.41967e-05
9.45435e-05
9.38543e-05
9.21667e-05
8.95214e-05
8.59617e-05
8.15335e-05
7.62847e-05
7.02654e-05
6.35271e-05
5.61226e-05
4.81058e-05
3.95313e-05
3.04542e-05
2.09294e-05
1.10121e-05
7.56729e-07
-9.78263e-06
-2.0553e-05
-3.15022e-05
-4.25795e-05
-5.37353e-05
-6.49218e-05
-7.60925e-05
-8.7203e-05
-9.82102e-05
-0.000109073
-0.000119752
-0.000130209
-0.000140409
-0.000150317
-0.000159901
-0.000169129
-0.000177971
-0.000186398
-0.000194384
-0.000201901
-0.000208924
-0.000215427
-0.000221385
-0.000226775
-0.000231572
-0.000235751
-0.000239288
-0.000242159
-0.000244339
-0.000245801
-0.000246521
-0.000246471
-0.000245624
-0.000243952
-0.000241428
-0.000238023
-0.000233708
-0.000228454
-0.000222232
-0.000215015
-0.000206783
-0.000197531
-0.000187191
-0.000175443
-0.000162049
-0.000149784
2.382e-05
3.76673e-05
5.26935e-05
6.57133e-05
7.69861e-05
8.68639e-05
9.54096e-05
0.000102617
0.000108496
0.00011307
0.000116365
0.000118412
0.000119246
0.000118904
0.000117428
0.000114861
0.000111252
0.000106651
0.000101111
9.46861e-05
8.74344e-05
7.94139e-05
7.06842e-05
6.13057e-05
5.13392e-05
4.0846e-05
2.98868e-05
1.85224e-05
6.81253e-06
-5.18386e-06
-1.74091e-05
-2.98068e-05
-4.23221e-05
-5.4902e-05
-6.7495e-05
-8.00514e-05
-9.25244e-05
-0.000104869
-0.000117041
-0.000129
-0.000140705
-0.000152119
-0.000163208
-0.000173935
-0.000184271
-0.000194182
-0.000203641
-0.000212618
-0.000221086
-0.000229019
-0.000236389
-0.000243173
-0.000249343
-0.000254875
-0.000259742
-0.000263921
-0.000267383
-0.000270102
-0.00027205
-0.0002732
-0.000273521
-0.000272985
-0.000271561
-0.000269216
-0.00026592
-0.000261639
-0.000256341
-0.000249994
-0.000242565
-0.000234032
-0.000224385
-0.000213553
-0.000201191
-0.000187044
-0.000174062
5.27755e-05
6.74391e-05
8.32749e-05
9.68805e-05
0.000108538
0.000118631
0.00012723
0.000134337
0.000139967
0.000144149
0.000146918
0.000148313
0.000148373
0.000147146
0.00014468
0.000141027
0.000136243
0.000130385
0.000123516
0.000115696
0.000106992
9.74695e-05
8.71944e-05
7.62348e-05
6.46584e-05
5.25328e-05
3.99253e-05
2.69023e-05
1.35294e-05
-1.29469e-07
-1.40116e-05
-2.8056e-05
-4.2204e-05
-5.63987e-05
-7.05853e-05
-8.47097e-05
-9.8721e-05
-0.000112575
-0.000126227
-0.000139631
-0.000152745
-0.000165531
-0.000177952
-0.000189974
-0.000201563
-0.000212686
-0.000223315
-0.000233419
-0.000242971
-0.000251943
-0.000260308
-0.000268039
-0.000275111
-0.000281496
-0.000287168
-0.0002921
-0.000296263
-0.000299629
-0.000302168
-0.000303849
-0.000304641
-0.00030451
-0.000303424
-0.000301346
-0.000298242
-0.000294074
-0.000288806
-0.000282401
-0.000274823
-0.000266044
-0.000256053
-0.000244769
-0.000231826
-0.000216951
-0.000203268
8.80741e-05
0.000103493
0.00012005
0.000134135
0.000146052
0.000156217
0.000164713
0.000171548
0.000176744
0.00018034
0.00018238
0.000182909
0.000181978
0.00017964
0.000175954
0.00017098
0.000164784
0.000157431
0.000148991
0.000139536
0.000129138
0.000117872
0.000105812
9.30335e-05
7.96114e-05
6.56205e-05
5.11347e-05
3.62267e-05
2.09679e-05
5.42781e-06
-1.03256e-05
-2.6227e-05
-4.22129e-05
-5.82225e-05
-7.41977e-05
-9.00844e-05
-0.000105829
-0.000121378
-0.000136687
-0.00015171
-0.000166403
-0.000180726
-0.000194643
-0.000208117
-0.000221114
-0.000233602
-0.000245549
-0.000256927
-0.000267705
-0.000277856
-0.000287353
-0.000296168
-0.000304274
-0.000311644
-0.000318248
-0.000324059
-0.000329046
-0.00033318
-0.000336427
-0.000338756
-0.00034013
-0.000340515
-0.000339872
-0.000338162
-0.000335347
-0.000331385
-0.000326235
-0.000319854
-0.000312201
-0.000303245
-0.00029297
-0.000281288
-0.000267807
-0.000252239
-0.000237879
0.000130601
0.000146676
0.000163824
0.000178238
0.000190249
0.000200303
0.000208499
0.000214852
0.000219395
0.000222175
0.000223247
0.000222665
0.000220491
0.000216787
0.000211622
0.000205067
0.000197195
0.000188082
0.000177808
0.000166453
0.000154099
0.000140828
0.000126725
0.000111872
9.63513e-05
8.0246e-05
6.36367e-05
4.66026e-05
2.92213e-05
1.1568e-05
-6.28418e-06
-2.4265e-05
-4.23066e-05
-6.03444e-05
-7.83163e-05
-9.6164e-05
-0.000113832
-0.000131268
-0.000148425
-0.000165257
-0.000181713
-0.000197751
-0.000213336
-0.000228433
-0.000243005
-0.00025702
-0.000270447
-0.000283255
-0.000295415
-0.000306899
-0.000317679
-0.000327727
-0.000337014
-0.000345512
-0.000353192
-0.000360024
-0.000365975
-0.000371013
-0.000375104
-0.000378212
-0.000380298
-0.000381323
-0.000381247
-0.000380025
-0.000377613
-0.000373966
-0.000369037
-0.000362777
-0.000355141
-0.000346091
-0.000335607
-0.000323592
-0.000309632
-0.000293419
-0.000278417
0.000181348
0.000197931
0.000215484
0.000230027
0.000241915
0.000251629
0.000259282
0.0002649
0.000268526
0.000270221
0.000270049
0.000268076
0.000264374
0.000259018
0.000252086
0.00024366
0.000233823
0.000222662
0.000210267
0.000196727
0.000182134
0.00016658
0.000150156
0.000132956
0.000115069
9.65856e-05
7.75936e-05
5.81791e-05
3.8426e-05
1.84152e-05
-1.77485e-06
-2.20691e-05
-4.23955e-05
-6.26855e-05
-8.2874e-05
-0.0001029
-0.000122704
-0.000142232
-0.00016143
-0.000180254
-0.000198661
-0.000216606
-0.000234047
-0.000250948
-0.000267274
-0.000282994
-0.000298074
-0.000312485
-0.000326197
-0.000339183
-0.000351412
-0.000362858
-0.000373491
-0.000383281
-0.000392197
-0.000400209
-0.000407282
-0.000413382
-0.000418471
-0.00042251
-0.000425458
-0.000427272
-0.000427904
-0.000427308
-0.000425434
-0.000422231
-0.000417646
-0.000411624
-0.000404113
-0.00039507
-0.000384469
-0.000372204
-0.000357837
-0.000341043
-0.000325446
0.000241408
0.000258292
0.000275997
0.000290404
0.000301897
0.000310985
0.0003178
0.00032238
0.000324782
0.000325078
0.000323346
0.000319665
0.000314118
0.000306792
0.000297775
0.000287162
0.000275046
0.000261527
0.000246702
0.000230673
0.000213541
0.000195407
0.000176373
0.000156539
0.000136004
0.000114866
9.32203e-05
7.11599e-05
4.87748e-05
2.61519e-05
3.37487e-06
-1.94764e-05
-4.23259e-05
-6.51013e-05
-8.77344e-05
-0.000110161
-0.000132321
-0.000154157
-0.000175613
-0.00019664
-0.000217197
-0.000237243
-0.000256736
-0.000275636
-0.00029391
-0.000311524
-0.000328447
-0.000344649
-0.000360101
-0.000374774
-0.000388639
-0.000401668
-0.00041383
-0.000425096
-0.000435434
-0.000444809
-0.000453186
-0.000460528
-0.000466794
-0.000471942
-0.000475926
-0.000478698
-0.000480208
-0.000480402
-0.000479225
-0.000476618
-0.000472523
-0.000466878
-0.000459623
-0.000450709
-0.000440103
-0.000427688
-0.000413004
-0.000395708
-0.000379578
0.000311974
0.00032888
0.000346399
0.000360333
0.000371087
0.000379201
0.000384824
0.000388009
0.000388829
0.000387369
0.000383721
0.000377978
0.000370234
0.000360589
0.000349144
0.000336004
0.000321276
0.000305067
0.000287489
0.000268651
0.000248666
0.000227644
0.000205696
0.000182931
0.000159456
0.000135378
0.000110799
8.58185e-05
6.05331e-05
3.50355e-05
9.41431e-06
-1.62458e-05
-4.18647e-05
-6.73665e-05
-9.26801e-05
-0.000117739
-0.00014248
-0.000166845
-0.00019078
-0.000214236
-0.000237165
-0.000259527
-0.00028128
-0.000302389
-0.000322817
-0.000342534
-0.000361507
-0.000379708
-0.000397107
-0.000413676
-0.000429385
-0.000444207
-0.000458109
-0.000471061
-0.000483029
-0.000493978
-0.00050387
-0.000512664
-0.000520316
-0.00052678
-0.000532006
-0.00053594
-0.000538526
-0.000539704
-0.000539412
-0.000537585
-0.000534155
-0.000529054
-0.000522212
-0.000513573
-0.000503096
-0.000490655
-0.000475765
-0.000458066
-0.000441478
0.000394326
0.000410883
0.000427781
0.000440815
0.00045041
0.000457129
0.000461141
0.000462517
0.000461344
0.000457725
0.000451765
0.000443569
0.000433246
0.000420909
0.000406669
0.000390644
0.000372951
0.000353709
0.00033304
0.000311064
0.000287903
0.000263676
0.000238505
0.000212506
0.000185795
0.000158486
0.000130688
0.000102509
7.40499e-05
4.54097e-05
1.66819e-05
-1.20444e-05
-4.06854e-05
-6.91621e-05
-9.74005e-05
-0.000125332
-0.000152892
-0.000180022
-0.000206666
-0.000232776
-0.000258304
-0.000283209
-0.000307451
-0.000330995
-0.000353806
-0.000375853
-0.000397105
-0.000417535
-0.000437113
-0.000455811
-0.000473601
-0.000490453
-0.000506335
-0.000521215
-0.000535058
-0.000547826
-0.000559479
-0.000569971
-0.000579255
-0.00058728
-0.00059399
-0.000599326
-0.000603225
-0.000605618
-0.000606437
-0.000605608
-0.000603053
-0.000598696
-0.000592457
-0.00058427
-0.000574086
-0.000561766
-0.000546805
-0.000528824
-0.000511872
0.000489801
0.000505533
0.00052126
0.000532865
0.000540792
0.000545616
0.000547528
0.000546618
0.000542991
0.000536764
0.000528056
0.000516987
0.000503678
0.000488252
0.000470834
0.000451552
0.000430533
0.000407907
0.000383805
0.000358358
0.000331695
0.000303947
0.000275242
0.000245705
0.000215461
0.00018463
0.00015333
0.000121672
8.97652e-05
5.77134e-05
2.56148e-05
-6.43774e-06
-3.83568e-05
-7.00605e-05
-0.000101473
-0.000132523
-0.000163147
-0.000193283
-0.000222878
-0.000251882
-0.00028025
-0.000307939
-0.000334912
-0.000361135
-0.000386574
-0.000411201
-0.000434985
-0.000457899
-0.000479916
-0.000501007
-0.000521145
-0.000540299
-0.000558438
-0.000575526
-0.000591527
-0.0006064
-0.000620102
-0.000632582
-0.00064379
-0.000653666
-0.00066215
-0.000669175
-0.000674669
-0.000678556
-0.000680756
-0.000681187
-0.000679761
-0.000676388
-0.00067098
-0.000663458
-0.000653764
-0.000641746
-0.000626875
-0.000608758
-0.000591555
0.000599765
0.000614069
0.000627938
0.000637471
0.000643119
0.000645465
0.000644715
0.000640981
0.000634386
0.00062506
0.000613137
0.000598748
0.000582025
0.000563103
0.000542115
0.000519199
0.000494492
0.000468132
0.000440259
0.000411011
0.000380528
0.000348947
0.000316404
0.000283033
0.000248966
0.000214328
0.000179245
0.000143835
0.000108211
7.24817e-05
3.67504e-05
1.11322e-06
-3.43392e-05
-6.95229e-05
-0.00010436
-0.000138779
-0.000172714
-0.000206106
-0.000238901
-0.000271049
-0.000302507
-0.000333236
-0.000363198
-0.000392362
-0.000420697
-0.000448174
-0.000474768
-0.000500451
-0.000525198
-0.000548981
-0.000571772
-0.00059354
-0.000614253
-0.000633874
-0.000652364
-0.000669678
-0.000685769
-0.000700581
-0.000714057
-0.000726132
-0.000736735
-0.000745791
-0.00075322
-0.000758934
-0.000762842
-0.000764849
-0.000764855
-0.000762758
-0.000758456
-0.000751857
-0.000742891
-0.00073139
-0.000716806
-0.000698728
-0.000681409
0.000725553
0.000737682
0.000748851
0.000755537
0.000758191
0.000757381
0.000753333
0.000746177
0.000736051
0.000723101
0.000707469
0.000689297
0.000668725
0.000645894
0.000620947
0.00059403
0.000565281
0.000534848
0.000502878
0.000469516
0.000434908
0.000399198
0.000362529
0.000325041
0.000286873
0.000248158
0.000209025
0.000169598
0.000129996
9.03333e-05
5.0715e-05
1.12412e-05
-2.7995e-05
-6.69078e-05
-0.000105418
-0.000143454
-0.000180951
-0.000217849
-0.000254097
-0.000289646
-0.000324457
-0.00035849
-0.000391714
-0.000424099
-0.000455617
-0.000486242
-0.000515951
-0.000544718
-0.00057252
-0.00059933
-0.00062512
-0.00064986
-0.000673515
-0.000696046
-0.000717411
-0.00073756
-0.000756441
-0.000773992
-0.000790147
-0.000804832
-0.000817969
-0.000829469
-0.00083924
-0.000847182
-0.000853191
-0.000857155
-0.000858962
-0.000858492
-0.000855627
-0.000850262
-0.000842309
-0.000831587
-0.000817522
-0.000799692
-0.000782418
0.000868402
0.00087744
0.000884891
0.000887811
0.00088664
0.000881907
0.00087385
0.000862617
0.000848361
0.000831234
0.000811386
0.000788963
0.00076411
0.000736971
0.000707688
0.000676413
0.000643295
0.000608476
0.000572108
0.000534343
0.00049533
0.000455219
0.000414159
0.000372295
0.000329771
0.000286725
0.000243293
0.000199604
0.000155781
0.000111942
6.81957e-05
2.46455e-05
-1.86137e-05
-6.1495e-05
-0.000103919
-0.000145814
-0.000187117
-0.000227769
-0.000267723
-0.000306932
-0.00034536
-0.000382973
-0.000419742
-0.000455641
-0.000490647
-0.000524738
-0.000557894
-0.000590092
-0.00062131
-0.000651524
-0.000680706
-0.000708825
-0.000735844
-0.000761722
-0.000786411
-0.000809858
-0.000832001
-0.000852772
-0.000872095
-0.000889884
-0.000906047
-0.000920485
-0.000933089
-0.000943745
-0.000952327
-0.00095871
-0.000962761
-0.000964343
-0.000963317
-0.000959561
-0.000952967
-0.000943335
-0.000930071
-0.000912737
-0.000895698
0.00102931
0.00103415
0.00103668
0.00103477
0.00102883
0.00101932
0.00100648
0.000990469
0.000971453
0.000949584
0.000925012
0.000897882
0.000868334
0.000836511
0.000802553
0.000766604
0.000728815
0.000689332
0.000648303
0.000605881
0.000562219
0.000517469
0.000471784
0.000425314
0.000378206
0.000330606
0.000282652
0.000234479
0.000186214
0.000137978
8.98838e-05
4.20372e-05
-5.46573e-06
-5.25372e-05
-9.90985e-05
-0.00014508
-0.000190419
-0.000235063
-0.000278965
-0.000322086
-0.000364393
-0.000405858
-0.000446458
-0.000486172
-0.000524984
-0.000562876
-0.000599832
-0.000635835
-0.000670865
-0.0007049
-0.000737913
-0.00076987
-0.000800735
-0.000830462
-0.000858998
-0.000886281
-0.000912243
-0.000936802
-0.000959871
-0.00098135
-0.00100113
-0.0010191
-0.00103513
-0.00104908
-0.00106081
-0.00107017
-0.001077
-0.00108115
-0.00108245
-0.00108075
-0.00107594
-0.00106777
-0.00105565
-0.00103911
-0.00102253
0.00120898
0.00120833
0.00120453
0.00119658
0.00118479
0.00116955
0.00115108
0.00112956
0.00110514
0.00107796
0.00104818
0.00101591
0.000981288
0.000944445
0.000905512
0.000864624
0.000821918
0.000777539
0.000731631
0.000684344
0.000635831
0.000586245
0.00053574
0.000484471
0.000432589
0.000380242
0.000327575
0.000274727
0.000221828
0.000169004
0.000116371
6.40362e-05
1.20972e-05
-3.9358e-05
-9.02527e-05
-0.00014052
-0.000190101
-0.000238947
-0.000287018
-0.000334281
-0.00038071
-0.000426285
-0.000470991
-0.000514816
-0.00055775
-0.000599783
-0.000640906
-0.000681108
-0.000720372
-0.00075868
-0.000796005
-0.000832315
-0.000867568
-0.000901715
-0.000934696
-0.000966441
-0.000996867
-0.00102588
-0.00105338
-0.00107925
-0.00110335
-0.00112556
-0.00114573
-0.00116368
-0.00117924
-0.00119225
-0.00120251
-0.00120985
-0.00121407
-0.00121498
-0.00121245
-0.00120621
-0.00119563
-0.00118024
-0.00116439
0.00140765
0.00139998
0.00138819
0.00137278
0.00135397
0.00133198
0.001307
0.00127921
0.00124875
0.00121573
0.00118027