/*--------------------------------*- C++ -*----------------------------------*\
  =========                 |
  \\      /  F ield         | OpenFOAM: The Open Source CFD Toolbox
   \\    /   O peration     | Website:  https://openfoam.org
    \\  /    A nd           | Version:  12
     \\/     M anipulation  |
\*---------------------------------------------------------------------------*/
FoamFile
{
    format      ascii;
    class       volVectorField;
    location    "8.5";
    object      U;
}
// * * * * * * * * * * * * * * * * * * * * * * * * * * * * * * * * * * * * * //

dimensions      [0 1 -1 0 0 0 0];

internalField   nonuniform List<vector> 
5625
(
(-5.36224e-07 1.19541e-06 0)
(-2.20144e-06 1.9754e-06 0)
(-3.83686e-06 1.94862e-06 0)
(-4.7179e-06 1.53752e-06 0)
(-4.26138e-06 9.58779e-07 0)
(-2.18722e-06 3.15525e-07 0)
(1.61395e-06 -3.35221e-07 0)
(7.15374e-06 -9.60504e-07 0)
(1.43799e-05 -1.54139e-06 0)
(2.31981e-05 -2.06811e-06 0)
(3.3485e-05 -2.53644e-06 0)
(4.50987e-05 -2.9453e-06 0)
(5.7886e-05 -3.29538e-06 0)
(7.16871e-05 -3.58838e-06 0)
(8.63397e-05 -3.82649e-06 0)
(0.000101681 -4.0122e-06 0)
(0.000117549 -4.14806e-06 0)
(0.000133787 -4.2367e-06 0)
(0.000150239 -4.2807e-06 0)
(0.000166756 -4.28265e-06 0)
(0.000183196 -4.24508e-06 0)
(0.00019942 -4.17052e-06 0)
(0.000215298 -4.06146e-06 0)
(0.000230707 -3.92038e-06 0)
(0.000245531 -3.74971e-06 0)
(0.000259661 -3.55191e-06 0)
(0.000272999 -3.32938e-06 0)
(0.000285451 -3.08452e-06 0)
(0.000296936 -2.81969e-06 0)
(0.000307376 -2.53724e-06 0)
(0.000316707 -2.23948e-06 0)
(0.00032487 -1.92868e-06 0)
(0.000331816 -1.60709e-06 0)
(0.000337503 -1.2769e-06 0)
(0.0003419 -9.40282e-07 0)
(0.000344983 -5.99343e-07 0)
(0.000346737 -2.5616e-07 0)
(0.000347153 8.72617e-08 0)
(0.000346233 4.28817e-07 0)
(0.000343985 7.66776e-07 0)
(0.000340428 1.09913e-06 0)
(0.000335584 1.42399e-06 0)
(0.000329487 1.73954e-06 0)
(0.000322177 2.04396e-06 0)
(0.000313701 2.33547e-06 0)
(0.000304113 2.6123e-06 0)
(0.000293475 2.87267e-06 0)
(0.000281857 3.11481e-06 0)
(0.000269334 3.33693e-06 0)
(0.00025599 3.53721e-06 0)
(0.000241915 3.71382e-06 0)
(0.000227204 3.86487e-06 0)
(0.000211961 3.9884e-06 0)
(0.000196296 4.0824e-06 0)
(0.000180325 4.14478e-06 0)
(0.00016417 4.17332e-06 0)
(0.00014796 4.16573e-06 0)
(0.000131829 4.11956e-06 0)
(0.000115918 4.03225e-06 0)
(0.00010037 3.90111e-06 0)
(8.53366e-05 3.72331e-06 0)
(7.09697e-05 3.49596e-06 0)
(5.74252e-05 3.21617e-06 0)
(4.48599e-05 2.88119e-06 0)
(3.34289e-05 2.48871e-06 0)
(2.3283e-05 2.03734e-06 0)
(1.45632e-05 1.52734e-06 0)
(7.39372e-06 9.62042e-07 0)
(1.87126e-06 3.50653e-07 0)
(-1.94408e-06 -2.8835e-07 0)
(-4.05657e-06 -9.24494e-07 0)
(-4.56935e-06 -1.50101e-06 0)
(-3.74927e-06 -1.91469e-06 0)
(-2.16491e-06 -1.95036e-06 0)
(-5.31178e-07 -1.18551e-06 0)
(-3.28372e-07 3.55799e-06 0)
(-9.94105e-07 5.27841e-06 0)
(-2.21889e-07 3.3142e-06 0)
(2.98502e-06 -9.29165e-07 0)
(9.40432e-06 -6.50793e-06 0)
(1.94915e-05 -1.27837e-05 0)
(3.34618e-05 -1.93167e-05 0)
(5.13599e-05 -2.58043e-05 0)
(7.31043e-05 -3.20383e-05 0)
(9.85182e-05 -3.78775e-05 0)
(0.000127354 -4.32273e-05 0)
(0.000159314 -4.80254e-05 0)
(0.000194061 -5.22334e-05 0)
(0.000231235 -5.58291e-05 0)
(0.000270459 -5.8803e-05 0)
(0.000311347 -6.11543e-05 0)
(0.000353511 -6.28895e-05 0)
(0.000396562 -6.40203e-05 0)
(0.000440118 -6.45627e-05 0)
(0.000483806 -6.45361e-05 0)
(0.000527261 -6.39627e-05 0)
(0.000570133 -6.28671e-05 0)
(0.000612087 -6.12758e-05 0)
(0.000652805 -5.92168e-05 0)
(0.000691984 -5.67197e-05 0)
(0.000729344 -5.38149e-05 0)
(0.00076462 -5.0534e-05 0)
(0.000797572 -4.69091e-05 0)
(0.000827978 -4.29729e-05 0)
(0.000855638 -3.87586e-05 0)
(0.000880376 -3.42995e-05 0)
(0.000902036 -2.9629e-05 0)
(0.000920485 -2.47808e-05 0)
(0.000935612 -1.97882e-05 0)
(0.00094733 -1.46843e-05 0)
(0.000955572 -9.50233e-06 0)
(0.000960295 -4.2748e-06 0)
(0.000961477 9.65952e-07 0)
(0.000959119 6.18806e-06 0)
(0.000953243 1.13601e-05 0)
(0.000943892 1.6451e-05 0)
(0.000931129 2.14304e-05 0)
(0.000915041 2.6268e-05 0)
(0.000895733 3.09344e-05 0)
(0.000873329 3.54004e-05 0)
(0.000847976 3.96374e-05 0)
(0.000819837 4.36172e-05 0)
(0.000789096 4.73119e-05 0)
(0.000755955 5.06942e-05 0)
(0.000720634 5.37372e-05 0)
(0.000683371 5.64143e-05 0)
(0.000644421 5.86995e-05 0)
(0.000604056 6.05671e-05 0)
(0.000562563 6.19923e-05 0)
(0.000520246 6.29507e-05 0)
(0.000477421 6.34188e-05 0)
(0.00043442 6.33741e-05 0)
(0.000391585 6.27955e-05 0)
(0.000349271 6.16637e-05 0)
(0.000307838 5.99616e-05 0)
(0.000267656 5.76754e-05 0)
(0.000229095 5.47955e-05 0)
(0.000192524 5.13183e-05 0)
(0.000158308 4.72484e-05 0)
(0.000126797 4.26016e-05 0)
(9.83205e-05 3.741e-05 0)
(7.31747e-05 3.17283e-05 0)
(5.16088e-05 2.56437e-05 0)
(3.38056e-05 1.92898e-05 0)
(1.98574e-05 1.28675e-05 0)
(9.73393e-06 6.67104e-06 0)
(3.23821e-06 1.13405e-06 0)
(-6.37266e-08 -3.10991e-06 0)
(-9.24652e-07 -5.12064e-06 0)
(-3.19668e-07 -3.49197e-06 0)
(-9.87345e-09 3.35492e-06 0)
(2.12164e-06 1.71219e-06 0)
(7.84526e-06 -5.96862e-06 0)
(1.79807e-05 -1.76264e-05 0)
(3.30533e-05 -3.17498e-05 0)
(5.34041e-05 -4.72267e-05 0)
(7.91959e-05 -6.32276e-05 0)
(0.000110429 -7.91342e-05 0)
(0.000146967 -9.44887e-05 0)
(0.000188563 -0.000108955 0)
(0.000234883 -0.000122288 0)
(0.000285522 -0.000134315 0)
(0.000340024 -0.000144914 0)
(0.00039789 -0.000154006 0)
(0.000458597 -0.000161543 0)
(0.000521603 -0.000167504 0)
(0.000586356 -0.000171888 0)
(0.000652301 -0.000174711 0)
(0.000718888 -0.000176001 0)
(0.000785572 -0.000175798 0)
(0.000851825 -0.000174153 0)
(0.000917133 -0.000171122 0)
(0.000981002 -0.000166769 0)
(0.00104296 -0.000161165 0)
(0.00110256 -0.000154384 0)
(0.00115938 -0.000146503 0)
(0.00121303 -0.000137605 0)
(0.00126314 -0.000127774 0)
(0.00130939 -0.000117096 0)
(0.00135147 -0.000105658 0)
(0.00138912 -9.35507e-05 0)
(0.00142209 -8.08629e-05 0)
(0.00145019 -6.76851e-05 0)
(0.00147325 -5.41077e-05 0)
(0.00149113 -4.0221e-05 0)
(0.00150373 -2.61146e-05 0)
(0.00151099 -1.18778e-05 0)
(0.00151286 2.40088e-06 0)
(0.00150936 1.66341e-05 0)
(0.0015005 3.07355e-05 0)
(0.00148635 4.46197e-05 0)
(0.00146702 5.82027e-05 0)
(0.00144262 7.14018e-05 0)
(0.00141331 8.41356e-05 0)
(0.00137929 9.63242e-05 0)
(0.00134077 0.000107889 0)
(0.00129801 0.000118753 0)
(0.00125127 0.00012884 0)
(0.00120086 0.000138077 0)
(0.00114712 0.000146391 0)
(0.0010904 0.000153711 0)
(0.00103108 0.00015997 0)
(0.000969575 0.0001651 0)
(0.00090631 0.000169039 0)
(0.000841737 0.000171726 0)
(0.000776327 0.000173104 0)
(0.000710566 0.00017312 0)
(0.000644958 0.000171728 0)
(0.000580018 0.000168888 0)
(0.00051627 0.000164569 0)
(0.000454241 0.000158749 0)
(0.000394459 0.000151424 0)
(0.000337443 0.000142605 0)
(0.000283701 0.000132326 0)
(0.000233713 0.000120653 0)
(0.000187929 0.000107691 0)
(0.000146747 9.35969e-05 0)
(0.000110504 7.85984e-05 0)
(7.9453e-05 6.30134e-05 0)
(5.37423e-05 4.72825e-05 0)
(3.33894e-05 3.20075e-05 0)
(1.8254e-05 1.80035e-05 0)
(8.02236e-06 6.37091e-06 0)
(2.20158e-06 -1.38695e-06 0)
(-7.13226e-11 -3.21183e-06 0)
(3.20286e-07 -2.63514e-07 0)
(5.66328e-06 -1.07162e-05 0)
(1.70807e-05 -2.85462e-05 0)
(3.51108e-05 -5.13797e-05 0)
(5.98681e-05 -7.73684e-05 0)
(9.14386e-05 -0.000105067 0)
(0.000129819 -0.000133337 0)
(0.000174879 -0.000161284 0)
(0.000226372 -0.00018821 0)
(0.000283949 -0.000213579 0)
(0.000347176 -0.000236982 0)
(0.000415547 -0.000258114 0)
(0.000488499 -0.00027675 0)
(0.000565427 -0.000292735 0)
(0.000645689 -0.000305969 0)
(0.000728622 -0.000316395 0)
(0.000813551 -0.000323996 0)
(0.000899793 -0.000328786 0)
(0.000986668 -0.000330802 0)
(0.0010735 -0.000330107 0)
(0.00115964 -0.000326781 0)
(0.00124445 -0.00032092 0)
(0.0013273 -0.000312635 0)
(0.0014076 -0.000302047 0)
(0.0014848 -0.000289286 0)
(0.00155835 -0.000274495 0)
(0.00162778 -0.000257817 0)
(0.00169261 -0.000239408 0)
(0.00175243 -0.000219422 0)
(0.00180686 -0.000198022 0)
(0.00185554 -0.000175371 0)
(0.00189819 -0.000151633 0)
(0.00193455 -0.000126978 0)
(0.00196439 -0.00010157 0)
(0.00198754 -7.55795e-05 0)
(0.00200388 -4.91723e-05 0)
(0.00201332 -2.2515e-05 0)
(0.00201581 4.22707e-06 0)
(0.00201134 3.08904e-05 0)
(0.00199996 5.73131e-05 0)
(0.00198174 8.33354e-05 0)
(0.00195682 0.0001088 0)
(0.00192534 0.000133551 0)
(0.00188751 0.000157437 0)
(0.00184357 0.000180308 0)
(0.0017938 0.000202017 0)
(0.00173852 0.00022242 0)
(0.00167807 0.000241377 0)
(0.00161285 0.000258751 0)
(0.00154327 0.000274409 0)
(0.00146979 0.000288222 0)
(0.0013929 0.000300065 0)
(0.0013131 0.00030982 0)
(0.00123094 0.000317374 0)
(0.001147 0.000322621 0)
(0.00106184 0.000325464 0)
(0.000976102 0.000325816 0)
(0.000890394 0.000323601 0)
(0.000805359 0.00031876 0)
(0.000721646 0.000311248 0)
(0.000639903 0.000301044 0)
(0.000560779 0.000288156 0)
(0.000484908 0.000272621 0)
(0.000412909 0.000254521 0)
(0.000345369 0.000233986 0)
(0.000282838 0.000211215 0)
(0.000225814 0.000186484 0)
(0.000174731 0.000160172 0)
(0.000129942 0.000132786 0)
(9.17096e-05 0.000104994 0)
(6.01804e-05 7.76618e-05 0)
(3.53837e-05 5.1904e-05 0)
(1.72655e-05 2.91452e-05 0)
(5.74929e-06 1.1219e-05 0)
(3.31058e-07 4.91272e-07 0)
(6.15255e-07 -7.40761e-06 0)
(9.11038e-06 -3.24556e-05 0)
(2.62485e-05 -6.51907e-05 0)
(5.2297e-05 -0.000103157 0)
(8.69334e-05 -0.000144348 0)
(0.000129939 -0.000187125 0)
(0.000181085 -0.000230142 0)
(0.000240061 -0.000272299 0)
(0.000306462 -0.000312709 0)
(0.000379803 -0.000350662 0)
(0.000459527 -0.000385601 0)
(0.000545013 -0.000417095 0)
(0.000635591 -0.000444819 0)
(0.000730547 -0.000468539 0)
(0.000829134 -0.000488096 0)
(0.000930584 -0.000503397 0)
(0.00103412 -0.000514402 0)
(0.00113894 -0.000521121 0)
(0.00124428 -0.000523601 0)
(0.00134935 -0.000521927 0)
(0.00145339 -0.000516211 0)
(0.00155566 -0.000506594 0)
(0.00165545 -0.000493237 0)
(0.00175206 -0.00047632 0)
(0.00184485 -0.000456041 0)
(0.00193321 -0.000432612 0)
(0.00201654 -0.000406254 0)
(0.00209432 -0.000377201 0)
(0.00216606 -0.000345694 0)
(0.0022313 -0.00031198 0)
(0.00228965 -0.000276312 0)
(0.00234076 -0.000238945 0)
(0.00238432 -0.000200139 0)
(0.00242008 -0.000160154 0)
(0.00244783 -0.00011925 0)
(0.00246742 -7.76891e-05 0)
(0.00247875 -3.57303e-05 0)
(0.00248176 6.36778e-06 0)
(0.00247645 4.83492e-05 0)
(0.00246285 8.99605e-05 0)
(0.00244108 0.000130951 0)
(0.00241125 0.000171075 0)
(0.00237358 0.000210088 0)
(0.00232829 0.000247752 0)
(0.00227566 0.000283833 0)
(0.00221602 0.0003181 0)
(0.00214974 0.000350331 0)
(0.00207723 0.000380306 0)
(0.00199895 0.000407813 0)
(0.00191539 0.000432647 0)
(0.00182707 0.000454609 0)
(0.00173458 0.00047351 0)
(0.0016385 0.000489168 0)
(0.00153947 0.000501416 0)
(0.00143815 0.000510095 0)
(0.00133522 0.000515063 0)
(0.00123139 0.000516196 0)
(0.00112739 0.000513386 0)
(0.00102396 0.000506554 0)
(0.000921847 0.000495646 0)
(0.000821796 0.000480644 0)
(0.000724558 0.000461567 0)
(0.000630869 0.000438488 0)
(0.000541447 0.000411536 0)
(0.000456982 0.000380911 0)
(0.000378128 0.0003469 0)
(0.000305495 0.000309892 0)
(0.000239635 0.000270401 0)
(0.000181038 0.000229091 0)
(0.000130119 0.000186807 0)
(8.72101e-05 0.000144604 0)
(5.25661e-05 0.000103792 0)
(2.6442e-05 6.59782e-05 0)
(9.20477e-06 3.31429e-05 0)
(6.27958e-07 7.72762e-06 0)
(8.7556e-07 -1.78352e-05 0)
(1.23216e-05 -6.31168e-05 0)
(3.49376e-05 -0.000115556 0)
(6.87667e-05 -0.000172723 0)
(0.00011308 -0.000232562 0)
(0.000167351 -0.000293336 0)
(0.000231113 -0.000353571 0)
(0.000303845 -0.000412032 0)
(0.000384959 -0.000467691 0)
(0.000473808 -0.000519707 0)
(0.000569689 -0.000567404 0)
(0.000671853 -0.000610246 0)
(0.000779507 -0.00064782 0)
(0.000891824 -0.000679824 0)
(0.00100795 -0.000706048 0)
(0.00112702 -0.000726364 0)
(0.00124815 -0.000740716 0)
(0.00137045 -0.000749112 0)
(0.00149305 -0.000751612 0)
(0.00161509 -0.000748327 0)
(0.0017357 -0.000739406 0)
(0.00185408 -0.000725038 0)
(0.00196942 -0.000705442 0)
(0.00208095 -0.000680864 0)
(0.00218796 -0.000651575 0)
(0.00228975 -0.000617867 0)
(0.00238568 -0.000580047 0)
(0.00247515 -0.000538439 0)
(0.00255762 -0.000493378 0)
(0.00263258 -0.000445209 0)
(0.00269959 -0.000394285 0)
(0.00275826 -0.000340964 0)
(0.00280825 -0.00028561 0)
(0.00284928 -0.000228588 0)
(0.00288111 -0.000170265 0)
(0.00290357 -0.000111009 0)
(0.00291655 -5.11863e-05 0)
(0.00291999 8.83953e-06 0)
(0.00291388 6.87064e-05 0)
(0.00289827 0.000128056 0)
(0.00287326 0.000186535 0)
(0.00283902 0.000243794 0)
(0.00279576 0.00029949 0)
(0.00274373 0.000353285 0)
(0.00268327 0.000404849 0)
(0.00261472 0.000453857 0)
(0.0025385 0.000499995 0)
(0.00245509 0.000542954 0)
(0.00236497 0.000582438 0)
(0.00226871 0.000618158 0)
(0.0021669 0.000649838 0)
(0.00206017 0.000677215 0)
(0.00194919 0.00070004 0)
(0.00183466 0.000718081 0)
(0.00171732 0.000731123 0)
(0.00159794 0.000738975 0)
(0.00147731 0.000741468 0)
(0.00135623 0.000738465 0)
(0.00123553 0.000729859 0)
(0.00111605 0.000715587 0)
(0.000998622 0.000695628 0)
(0.000884092 0.000670016 0)
(0.000773292 0.000638849 0)
(0.00066704 0.0006023 0)
(0.000566135 0.000560626 0)
(0.000471344 0.000514189 0)
(0.000383402 0.000463468 0)
(0.000303003 0.000409082 0)
(0.000230794 0.00035181 0)
(0.000167374 0.000292616 0)
(0.00011328 0.000232679 0)
(6.90118e-05 0.000173416 0)
(3.51327e-05 0.000116516 0)
(1.24237e-05 6.39959e-05 0)
(8.90614e-07 1.8258e-05 0)
(1.10722e-06 -3.12812e-05 0)
(1.52978e-05 -0.000102155 0)
(4.30969e-05 -0.000178995 0)
(8.43718e-05 -0.000259431 0)
(0.00013803 -0.000341412 0)
(0.000203261 -0.000423157 0)
(0.000279357 -0.000503123 0)
(0.000365583 -0.000579988 0)
(0.000461154 -0.000652633 0)
(0.000565246 -0.000720125 0)
(0.000676997 -0.000781698 0)
(0.000795512 -0.000836739 0)
(0.000919865 -0.000884772 0)
(0.00104911 -0.000925441 0)
(0.00118228 -0.0009585 0)
(0.00131839 -0.0009838 0)
(0.00145647 -0.00100128 0)
(0.00159555 -0.00101095 0)
(0.00173466 -0.00101289 0)
(0.00187284 -0.00100724 0)
(0.00200917 -0.000994213 0)
(0.00214274 -0.000974034 0)
(0.0022727 -0.000946994 0)
(0.00239822 -0.000913412 0)
(0.00251849 -0.000873639 0)
(0.00263278 -0.000828056 0)
(0.00274038 -0.000777065 0)
(0.00284066 -0.000721087 0)
(0.00293302 -0.000660561 0)
(0.00301691 -0.000595939 0)
(0.00309186 -0.000527684 0)
(0.00315744 -0.000456268 0)
(0.00321328 -0.000382167 0)
(0.00325908 -0.000305862 0)
(0.00329459 -0.000227838 0)
(0.00331962 -0.000148578 0)
(0.00333405 -6.85662e-05 0)
(0.00333782 1.17176e-05 0)
(0.00333091 9.17952e-05 0)
(0.00331339 0.000171194 0)
(0.00328536 0.000249445 0)
(0.003247 0.000326089 0)
(0.00319855 0.000400671 0)
(0.00314028 0.000472745 0)
(0.00307255 0.000541874 0)
(0.00299574 0.000607632 0)
(0.00291032 0.000669601 0)
(0.00281677 0.000727378 0)
(0.00271565 0.000780571 0)
(0.00260757 0.000828802 0)
(0.00249316 0.00087171 0)
(0.00237311 0.00090895 0)
(0.00224815 0.000940198 0)
(0.00211905 0.000965153 0)
(0.00198661 0.000983538 0)
(0.00185166 0.000995104 0)
(0.00171506 0.000999636 0)
(0.0015777 0.000996958 0)
(0.00144049 0.000986934 0)
(0.00130433 0.000969481 0)
(0.00117016 0.00094457 0)
(0.00103891 0.000912239 0)
(0.000911503 0.000872602 0)
(0.000788875 0.00082586 0)
(0.000671933 0.000772311 0)
(0.000561571 0.000712369 0)
(0.000458661 0.000646574 0)
(0.00036405 0.000575615 0)
(0.000278559 0.000500344 0)
(0.000202977 0.000421799 0)
(0.000138057 0.000341223 0)
(8.45357e-05 0.00026008 0)
(4.32664e-05 0.000180081 0)
(1.5399e-05 0.000103218 0)
(1.1243e-06 3.18142e-05 0)
(1.3186e-06 -4.75254e-05 0)
(1.80894e-05 -0.000149077 0)
(5.08189e-05 -0.00025487 0)
(9.92359e-05 -0.000362597 0)
(0.000161925 -0.000470222 0)
(0.000237809 -0.000575952 0)
(0.000325955 -0.00067821 0)
(0.000425412 -0.000775624 0)
(0.000535197 -0.000867016 0)
(0.0006543 -0.000951395 0)
(0.000781691 -0.00102794 0)
(0.000916317 -0.00109599 0)
(0.00105711 -0.00115502 0)
(0.001203 -0.00120465 0)
(0.00135289 -0.00124462 0)
(0.00150569 -0.00127477 0)
(0.00166033 -0.00129505 0)
(0.00181574 -0.00130548 0)
(0.00197086 -0.00130619 0)
(0.00212466 -0.00129736 0)
(0.00227614 -0.00127923 0)
(0.00242432 -0.00125213 0)
(0.00256829 -0.0012164 0)
(0.00270714 -0.00117244 0)
(0.00284003 -0.00112071 0)
(0.00296617 -0.00106167 0)
(0.00308481 -0.000995825 0)
(0.00319527 -0.000923714 0)
(0.00329691 -0.000845883 0)
(0.00338916 -0.000762899 0)
(0.00347151 -0.000675343 0)
(0.00354351 -0.000583808 0)
(0.00360477 -0.000488893 0)
(0.00365496 -0.000391204 0)
(0.00369383 -0.000291349 0)
(0.00372118 -0.000189937 0)
(0.00373689 -8.75762e-05 0)
(0.00374087 1.51266e-05 0)
(0.00373313 0.00011757 0)
(0.00371373 0.000219158 0)
(0.00368279 0.000319301 0)
(0.00364051 0.000417417 0)
(0.00358711 0.000512934 0)
(0.00352291 0.000605291 0)
(0.00344829 0.000693936 0)
(0.00336365 0.000778331 0)
(0.00326948 0.000857952 0)
(0.00316632 0.000932289 0)
(0.00305476 0.00100085 0)
(0.00293542 0.00106316 0)
(0.00280901 0.00111877 0)
(0.00267626 0.00116724 0)
(0.00253794 0.00120817 0)
(0.00239488 0.00124117 0)
(0.00224793 0.00126591 0)
(0.002098 0.00128208 0)
(0.001946 0.00128939 0)
(0.0017929 0.00128763 0)
(0.00163967 0.00127662 0)
(0.0014873 0.00125626 0)
(0.00133683 0.00122648 0)
(0.00118926 0.00118733 0)
(0.00104564 0.00113892 0)
(0.000906996 0.00108145 0)
(0.000774363 0.00101524 0)
(0.000648767 0.000940734 0)
(0.000531228 0.000858508 0)
(0.000422752 0.000769283 0)
(0.000324338 0.000673951 0)
(0.000236969 0.000573582 0)
(0.000161606 0.000469442 0)
(9.92132e-05 0.000363005 0)
(5.09091e-05 0.000255967 0)
(1.81709e-05 0.000150276 0)
(1.33643e-06 4.81634e-05 0)
(1.51766e-06 -6.64128e-05 0)
(2.07596e-05 -0.000203514 0)
(5.82439e-05 -0.000342687 0)
(0.000113585 -0.000481664 0)
(0.000185069 -0.000618428 0)
(0.000271376 -0.00075118 0)
(0.000371353 -0.000878329 0)
(0.000483839 -0.000998474 0)
(0.000607653 -0.00111041 0)
(0.000741597 -0.00121311 0)
(0.000884463 -0.00130574 0)
(0.00103504 -0.00138759 0)
(0.00119211 -0.00145814 0)
(0.00135445 -0.001517 0)
(0.00152086 -0.0015639 0)
(0.00169013 -0.0015987 0)
(0.00186107 -0.00162138 0)
(0.00203252 -0.00163201 0)
(0.00220334 -0.00163073 0)
(0.00237241 -0.00161781 0)
(0.00253866 -0.00159355 0)
(0.00270104 -0.00155834 0)
(0.00285858 -0.00151263 0)
(0.00301032 -0.0014569 0)
(0.00315537 -0.00139171 0)
(0.00329289 -0.00131763 0)
(0.0034221 -0.00123527 0)
(0.00354227 -0.00114529 0)
(0.00365275 -0.00104835 0)
(0.00375292 -0.000945145 0)
(0.00384226 -0.000836384 0)
(0.0039203 -0.000722784 0)
(0.00398663 -0.000605076 0)
(0.00404091 -0.000483997 0)
(0.00408289 -0.000360286 0)
(0.00411234 -0.000234685 0)
(0.00412915 -0.000107935 0)
(0.00413324 1.92283e-05 0)
(0.00412461 0.000146071 0)
(0.00410333 0.000271868 0)
(0.00406953 0.000395901 0)
(0.0040234 0.000517463 0)
(0.00396521 0.000635855 0)
(0.00389529 0.000750394 0)
(0.003814 0.000860409 0)
(0.00372181 0.000965244 0)
(0.00361922 0.00106426 0)
(0.00350679 0.00115684 0)
(0.00338515 0.00124238 0)
(0.00325495 0.0013203 0)
(0.00311694 0.00139005 0)
(0.0029719 0.0014511 0)
(0.00282063 0.00150297 0)
(0.00266402 0.00154518 0)
(0.00250298 0.00157731 0)
(0.00233845 0.00159897 0)
(0.00217144 0.00160984 0)
(0.00200296 0.00160964 0)
(0.00183406 0.00159813 0)
(0.00166583 0.00157516 0)
(0.00149937 0.00154066 0)
(0.0013358 0.00149462 0)
(0.00117626 0.00143714 0)
(0.00102189 0.00136842 0)
(0.000873861 0.00128877 0)
(0.000733329 0.00119864 0)
(0.000601467 0.0010986 0)
(0.000479444 0.000989394 0)
(0.000368437 0.00087191 0)
(0.000269619 0.000747224 0)
(0.000184154 0.0006166 0)
(0.000113217 0.000481495 0)
(5.8172e-05 0.000343574 0)
(2.07913e-05 0.000204733 0)
(1.5339e-06 6.71268e-05 0)
(1.71117e-06 -8.78539e-05 0)
(2.33697e-05 -0.000265246 0)
(6.55166e-05 -0.000442139 0)
(0.000127663 -0.000616282 0)
(0.000207814 -0.000785662 0)
(0.000304413 -0.000948482 0)
(0.000416094 -0.00110314 0)
(0.000541493 -0.00124823 0)
(0.000679227 -0.00138253 0)
(0.000827909 -0.00150502 0)
(0.000986152 -0.00161483 0)
(0.00115258 -0.00171128 0)
(0.00132581 -0.00179385 0)
(0.0015045 -0.00186217 0)
(0.00168729 -0.00191599 0)
(0.00187287 -0.00195521 0)
(0.00205993 -0.00197985 0)
(0.00224722 -0.00199002 0)
(0.0024335 -0.00198597 0)
(0.00261758 -0.001968 0)
(0.00279831 -0.00193651 0)
(0.00297458 -0.00189199 0)
(0.00314536 -0.00183496 0)
(0.00330964 -0.00176603 0)
(0.00346648 -0.00168586 0)
(0.00361501 -0.00159513 0)
(0.00375441 -0.00149459 0)
(0.00388391 -0.00138501 0)
(0.00400285 -0.00126718 0)
(0.00411058 -0.00114193 0)
(0.00420657 -0.0010101 0)
(0.00429033 -0.000872543 0)
(0.00436143 -0.000730126 0)
(0.00441954 -0.000583721 0)
(0.00446439 -0.000434208 0)
(0.00449575 -0.000282464 0)
(0.00451351 -0.000129368 0)
(0.00451759 2.42069e-05 0)
(0.004508 0.000177392 0)
(0.00448481 0.000329326 0)
(0.00444815 0.000479159 0)
(0.00439824 0.000626051 0)
(0.00433535 0.000769175 0)
(0.00425982 0.000907719 0)
(0.00417205 0.00104089 0)
(0.0040725 0.0011679 0)
(0.00396171 0.001288 0)
(0.00384025 0.00140045 0)
(0.00370879 0.00150454 0)
(0.00356802 0.00159957 0)
(0.00341871 0.00168489 0)
(0.00326167 0.00175987 0)
(0.00309776 0.00182393 0)
(0.00292791 0.00187649 0)
(0.00275307 0.00191705 0)
(0.00257425 0.00194516 0)
(0.00239251 0.00196038 0)
(0.00220893 0.00196239 0)
(0.00202464 0.00195088 0)
(0.0018408 0.00192564 0)
(0.00165861 0.00188655 0)
(0.00147928 0.00183357 0)
(0.00130406 0.00176674 0)
(0.00113421 0.00168625 0)
(0.000971033 0.00159237 0)
(0.000815819 0.00148552 0)
(0.000669893 0.00136628 0)
(0.000534591 0.00123534 0)
(0.000411264 0.0010936 0)
(0.000301271 0.000942109 0)
(0.000205971 0.000782099 0)
(0.000126741 0.000615002 0)
(6.51704e-05 0.000442444 0)
(2.33096e-05 0.000266272 0)
(1.72236e-06 8.85794e-05 0)
(1.90471e-06 -0.000111818 0)
(2.59731e-05 -0.00033419 0)
(7.27671e-05 -0.000553105 0)
(0.000141696 -0.000766305 0)
(0.000230486 -0.000971772 0)
(0.000337346 -0.0011677 0)
(0.000460699 -0.0013525 0)
(0.000598976 -0.00152475 0)
(0.000750594 -0.00168325 0)
(0.000913971 -0.00182697 0)
(0.00108754 -0.00195508 0)
(0.00126975 -0.00206692 0)
(0.00145908 -0.00216199 0)
(0.00165401 -0.00223996 0)
(0.00185307 -0.00230064 0)
(0.00205482 -0.002344 0)
(0.00225784 -0.0023701 0)
(0.00246077 -0.00237915 0)
(0.00266229 -0.00237145 0)
(0.00286113 -0.00234743 0)
(0.00305607 -0.00230757 0)
(0.00324594 -0.00225246 0)
(0.00342963 -0.00218275 0)
(0.00360612 -0.00209916 0)
(0.00377441 -0.00200246 0)
(0.00393359 -0.00189347 0)
(0.00408281 -0.00177308 0)
(0.0042213 -0.00164217 0)
(0.00434834 -0.00150169 0)
(0.00446331 -0.0013526 0)
(0.00456562 -0.00119587 0)
(0.00465479 -0.0010325 0)
(0.0047304 -0.000863511 0)
(0.00479208 -0.000689904 0)
(0.00483958 -0.000512705 0)
(0.00487267 -0.000332934 0)
(0.00489123 -0.00015161 0)
(0.0048952 3.02523e-05 0)
(0.00488457 0.000211644 0)
(0.00485943 0.000391567 0)
(0.00481993 0.000569034 0)
(0.00476628 0.000743068 0)
(0.00469876 0.000912709 0)
(0.00461773 0.00107701 0)
(0.00452361 0.00123506 0)
(0.00441687 0.00138593 0)
(0.00429807 0.00152876 0)
(0.00416781 0.00166267 0)
(0.00402677 0.00178684 0)
(0.00387568 0.00190047 0)
(0.00371532 0.00200277 0)
(0.00354655 0.00209301 0)
(0.00337027 0.0021705 0)
(0.00318744 0.00223458 0)
(0.00299907 0.00228463 0)
(0.00280622 0.0023201 0)
(0.00261001 0.0023405 0)
(0.00241158 0.00234538 0)
(0.00221214 0.00233439 0)
(0.00201293 0.00230723 0)
(0.00181524 0.00226371 0)
(0.00162038 0.00220372 0)
(0.0014297 0.00212727 0)
(0.00124459 0.00203447 0)
(0.00106648 0.00192557 0)
(0.000896796 0.00180092 0)
(0.000737022 0.00166106 0)
(0.000588656 0.00150666 0)
(0.000453219 0.00133856 0)
(0.000332256 0.00115777 0)
(0.000227312 0.000965503 0)
(0.000139959 0.00076314 0)
(7.20068e-05 0.000552266 0)
(2.57682e-05 0.000334685 0)
(1.90624e-06 0.000112444 0)
(2.10268e-06 -0.000138322 0)
(2.8613e-05 -0.000410381 0)
(8.01014e-05 -0.000675627 0)
(0.000155869 -0.000931775 0)
(0.000253353 -0.00117679 0)
(0.000370524 -0.00140887 0)
(0.000505591 -0.00162642 0)
(0.000656774 -0.00182803 0)
(0.000822287 -0.00201253 0)
(0.00100035 -0.00217892 0)
(0.00118922 -0.0023264 0)
(0.00138716 -0.00245437 0)
(0.00159249 -0.00256238 0)
(0.00180356 -0.00265016 0)
(0.00201874 -0.0027176 0)
(0.00223647 -0.00276475 0)
(0.00245524 -0.00279176 0)
(0.00267357 -0.00279894 0)
(0.00289006 -0.00278669 0)
(0.00310336 -0.00275555 0)
(0.00331217 -0.00270613 0)
(0.00351529 -0.00263913 0)
(0.00371154 -0.00255533 0)
(0.00389985 -0.00245558 0)
(0.00407919 -0.0023408 0)
(0.00424863 -0.00221194 0)
(0.00440729 -0.00207002 0)
(0.00455437 -0.00191607 0)
(0.00468915 -0.00175119 0)
(0.00481098 -0.00157648 0)
(0.00491928 -0.00139307 0)
(0.00501355 -0.00120209 0)
(0.00509337 -0.00100471 0)
(0.00515838 -0.000802086 0)
(0.00520831 -0.000595383 0)
(0.00524295 -0.00038577 0)
(0.00526218 -0.00017441 0)
(0.00526592 3.75395e-05 0)
(0.0052542 0.000248928 0)
(0.0052271 0.000458615 0)
(0.00518477 0.000665473 0)
(0.00512744 0.000868389 0)
(0.00505541 0.00106627 0)
(0.00496902 0.00125803 0)
(0.00486872 0.00144261 0)
(0.00475499 0.00161898 0)
(0.00462841 0.00178613 0)
(0.00448959 0.00194306 0)
(0.00433923 0.00208882 0)
(0.00417809 0.00222248 0)
(0.00400698 0.00234315 0)
(0.00382678 0.00244998 0)
(0.00363842 0.00254215 0)
(0.00344292 0.0026189 0)
(0.00324132 0.0026795 0)
(0.00303474 0.00272329 0)
(0.00282434 0.00274968 0)
(0.00261134 0.00275812 0)
(0.00239702 0.00274818 0)
(0.0021827 0.00271945 0)
(0.00196975 0.00267168 0)
(0.00175958 0.00260465 0)
(0.00155367 0.00251831 0)
(0.00135352 0.00241269 0)
(0.00116067 0.00228796 0)
(0.00097672 0.00214444 0)
(0.000803282 0.00198256 0)
(0.000642022 0.00180296 0)
(0.000494636 0.00160641 0)
(0.000362847 0.00139388 0)
(0.000248386 0.00116652 0)
(0.000153017 0.000925665 0)
(7.87637e-05 0.000672855 0)
(2.82006e-05 0.000409855 0)
(2.08885e-06 0.00013868 0)
(2.30844e-06 -0.000167423 0)
(3.13215e-05 -0.000493947 0)
(8.75976e-05 -0.000809872 0)
(0.000170314 -0.00111287 0)
(0.000276605 -0.0014009 0)
(0.000404189 -0.00167214 0)
(0.000551052 -0.00192502 0)
(0.000715197 -0.00215816 0)
(0.000894627 -0.00237041 0)
(0.00108737 -0.00256084 0)
(0.00129147 -0.00272871 0)
(0.00150505 -0.00287347 0)
(0.00172624 -0.00299478 0)
(0.00195325 -0.00309246 0)
(0.00218432 -0.00316648 0)
(0.00241777 -0.003217 0)
(0.00265196 -0.0032443 0)
(0.00288534 -0.0032488 0)
(0.00311641 -0.00323103 0)
(0.00334374 -0.00319166 0)
(0.00356599 -0.00313143 0)
(0.00378188 -0.0030512 0)
(0.0039902 -0.00295188 0)
(0.00418984 -0.00283447 0)
(0.00437975 -0.00270003 0)
(0.00455895 -0.00254967 0)
(0.00472657 -0.00238456 0)
(0.00488177 -0.00220589 0)
(0.00502384 -0.0020149 0)
(0.00515211 -0.00181285 0)
(0.00526601 -0.00160101 0)
(0.00536503 -0.00138069 0)
(0.00544875 -0.00115317 0)
(0.00551682 -0.000919789 0)
(0.00556897 -0.000681848 0)
(0.00560498 -0.000440663 0)
(0.00562474 -0.000197545 0)
(0.0056282 4.62031e-05 0)
(0.00561536 0.000289288 0)
(0.00558633 0.000530427 0)
(0.00554125 0.000768351 0)
(0.00548036 0.00100181 0)
(0.00540396 0.00122956 0)
(0.00531243 0.0014504 0)
(0.00520619 0.00166312 0)
(0.00508575 0.00186656 0)
(0.00495169 0.00205957 0)
(0.00480464 0.00224103 0)
(0.00464533 0.00240985 0)
(0.00447451 0.00256498 0)
(0.00429302 0.0027054 0)
(0.00410178 0.00283012 0)
(0.00390176 0.00293822 0)
(0.00369397 0.00302879 0)
(0.00347953 0.003101 0)
(0.00325959 0.00315408 0)
(0.00303538 0.0031873 0)
(0.00280817 0.00320002 0)
(0.0025793 0.00319168 0)
(0.00235019 0.00316178 0)
(0.00212229 0.00310994 0)
(0.00189711 0.00303587 0)
(0.00167623 0.0029394 0)
(0.00146128 0.00282048 0)
(0.00125392 0.00267917 0)
(0.00105589 0.00251571 0)
(0.000868962 0.00233046 0)
(0.000694961 0.00212396 0)
(0.000535754 0.00189692 0)
(0.000393243 0.00165023 0)
(0.000269347 0.00138498 0)
(0.000166019 0.00110245 0)
(8.55014e-05 0.000804124 0)
(3.06312e-05 0.000491739 0)
(2.27261e-06 0.000167279 0)
(2.52437e-06 -0.000199204 0)
(3.41194e-05 -0.000585077 0)
(9.53023e-05 -0.000956086 0)
(0.000185107 -0.00130986 0)
(0.00030034 -0.00164434 0)
(0.000438453 -0.00195773 0)
(0.000597192 -0.00224845 0)
(0.000774334 -0.0025152 0)
(0.000967665 -0.00275688 0)
(0.001175 -0.00297262 0)
(0.00139421 -0.00316178 0)
(0.00162323 -0.00332392 0)
(0.00186002 -0.00345879 0)
(0.00210265 -0.00356633 0)
(0.00234922 -0.00364665 0)
(0.00259794 -0.00370003 0)
(0.00284707 -0.00372691 0)
(0.00309496 -0.00372783 0)
(0.00334003 -0.0037035 0)
(0.00358079 -0.00365473 0)
(0.00381584 -0.00358241 0)
(0.00404385 -0.00348756 0)
(0.00426359 -0.00337127 0)
(0.0044739 -0.00323468 0)
(0.00467371 -0.00307902 0)
(0.00486204 -0.00290557 0)
(0.00503799 -0.00271565 0)
(0.00520073 -0.00251062 0)
(0.00534954 -0.00229188 0)
(0.00548374 -0.00206083 0)
(0.00560278 -0.00181891 0)
(0.00570614 -0.00156758 0)
(0.00579341 -0.00130829 0)
(0.00586424 -0.00104251 0)
(0.00591836 -0.000771701 0)
(0.00595559 -0.000497326 0)
(0.00597579 -0.000220842 0)
(0.00597892 5.63047e-05 0)
(0.005965 0.000332675 0)
(0.00593412 0.000606845 0)
(0.00588645 0.000877404 0)
(0.00582222 0.00114296 0)
(0.00574173 0.00140214 0)
(0.00564536 0.00165359 0)
(0.00553356 0.00189597 0)
(0.00540682 0.00212798 0)
(0.00526573 0.00234834 0)
(0.00511094 0.00255578 0)
(0.00494316 0.0027491 0)
(0.00476319 0.00292709 0)
(0.00457188 0.0030886 0)
(0.00437014 0.00323252 0)
(0.00415899 0.00335778 0)
(0.00393947 0.00346335 0)
(0.00371273 0.00354826 0)
(0.00347996 0.0036116 0)
(0.00324244 0.00365253 0)
(0.00300151 0.00367027 0)
(0.00275857 0.00366413 0)
(0.00251511 0.00363349 0)
(0.00227266 0.00357784 0)
(0.00203284 0.00349677 0)
(0.00179733 0.00338999 0)
(0.00156788 0.00325733 0)
(0.00134628 0.00309874 0)
(0.00113441 0.00291435 0)
(0.000934185 0.00270442 0)
(0.000747603 0.00246939 0)
(0.000576699 0.00220986 0)
(0.000423558 0.00192665 0)
(0.000290285 0.00162077 0)
(0.000179031 0.00129342 0)
(9.22583e-05 0.000946052 0)
(3.30758e-05 0.000580338 0)
(2.45923e-06 0.000198248 0)
(2.75192e-06 -0.00023376 0)
(3.70145e-05 -0.000683991 0)
(0.000103228 -0.00111455 0)
(0.000200257 -0.00152303 0)
(0.000324552 -0.00190738 0)
(0.000473273 -0.0022658 0)
(0.000643913 -0.0025968 0)
(0.000834012 -0.00289912 0)
(0.00104112 -0.00317176 0)
(0.00126286 -0.00341395 0)
(0.00149689 -0.00362517 0)
(0.00174097 -0.0038051 0)
(0.0019929 -0.00395364 0)
(0.00225061 -0.00407088 0)
(0.00251209 -0.00415709 0)
(0.0027754 -0.00421271 0)
(0.00303872 -0.00423834 0)
(0.00330032 -0.00423471 0)
(0.00355856 -0.0042027 0)
(0.00381189 -0.00414329 0)