/*--------------------------------*- C++ -*----------------------------------*\
  =========                 |
  \\      /  F ield         | OpenFOAM: The Open Source CFD Toolbox
   \\    /   O peration     | Website:  https://openfoam.org
    \\  /    A nd           | Version:  12
     \\/     M anipulation  |
\*---------------------------------------------------------------------------*/
FoamFile
{
    format      ascii;
    class       volScalarField;
    location    "0.5";
    object      epsilon;
}
// * * * * * * * * * * * * * * * * * * * * * * * * * * * * * * * * * * * * * //

dimensions      [0 2 -3 0 0 0 0];

internalField   nonuniform List<scalar> 
5625
(
4.52041e-05
8.53233e-05
0.000180607
0.000293937
0.000421
0.00055848
0.000703895
0.000855292
0.00101105
0.00116977
0.0013302
0.00149123
0.00165183
0.0018111
0.00196819
0.00212234
0.00227287
0.00241914
0.00256061
0.00269679
0.00282724
0.00295158
0.00306947
0.00318063
0.00328482
0.00338183
0.00347149
0.00355365
0.00362821
0.00369506
0.00375413
0.00380537
0.00384873
0.00388419
0.0039117
0.00393127
0.00394288
0.00394651
0.00394218
0.00392989
0.00390963
0.00388143
0.0038453
0.00380127
0.00374937
0.00368964
0.00362217
0.00354701
0.00346427
0.00337407
0.00327656
0.00317191
0.00306035
0.00294212
0.00281752
0.00268688
0.00255059
0.00240909
0.00226289
0.00211253
0.00195864
0.0018019
0.00164308
0.00148301
0.00132261
0.00116288
0.00100492
0.000849979
0.000699427
0.00055487
0.000418238
0.000291986
0.000179398
8.47482e-05
4.48972e-05
0.000305053
0.00016578
0.00016165
0.000193326
0.000241694
0.000299845
0.000364398
0.000433363
0.000505401
0.000579516
0.000654917
0.000730941
0.000807017
0.000882646
0.000957381
0.00103083
0.00110263
0.00117248
0.00124008
0.0013052
0.00136762
0.00142714
0.00148359
0.00153684
0.00158676
0.00163325
0.00167623
0.00171562
0.00175137
0.00178343
0.00181176
0.00183633
0.00185713
0.00187413
0.00188733
0.00189672
0.00190228
0.00190403
0.00190195
0.00189605
0.00188633
0.00187281
0.00185548
0.00183436
0.00180947
0.00178083
0.00174847
0.00171244
0.00167278
0.00162954
0.00158282
0.00153268
0.00147925
0.00142264
0.001363
0.0013005
0.00123533
0.00116772
0.0010979
0.00102618
0.000952852
0.00087828
0.000802858
0.000727027
0.000651284
0.000576195
0.000502417
0.000430733
0.000362129
0.000297933
0.000240119
0.000192039
0.000160557
0.000164649
0.000302983
0.000674126
0.000330342
0.000255872
0.000243068
0.000256218
0.000283583
0.000319816
0.000361966
0.000408187
0.000457213
0.000508114
0.000560171
0.000612801
0.000665523
0.000717926
0.000769658
0.000820411
0.000869919
0.000917948
0.000964294
0.00100878
0.00105125
0.00109158
0.00112964
0.00116535
0.00119862
0.00122939
0.0012576
0.00128321
0.00130617
0.00132647
0.00134408
0.00135898
0.00137117
0.00138062
0.00138734
0.00139133
0.00139257
0.00139107
0.00138684
0.00137986
0.00137016
0.00135773
0.00134259
0.00132475
0.00130422
0.00128103
0.00125522
0.00122681
0.00119586
0.00116242
0.00112656
0.00108836
0.00104793
0.00100537
0.000960822
0.000914442
0.000866407
0.00081692
0.000766217
0.000714564
0.000662266
0.000609675
0.000557198
0.000505315
0.000454601
0.000405771
0.000359747
0.000317785
0.000281719
0.000254479
0.000241376
0.000254066
0.000328011
0.000669408
0.00110479
0.000529992
0.000386337
0.000336015
0.000322836
0.00032925
0.000347651
0.000374007
0.000405874
0.000441623
0.000480092
0.000520407
0.000561884
0.000603973
0.000646218
0.000688237
0.000729705
0.000770345
0.000809918
0.000848219
0.000885072
0.000920324
0.000953848
0.000985533
0.00101529
0.00104303
0.00106871
0.00109226
0.00111364
0.00113283
0.00114978
0.0011645
0.00117695
0.00118712
0.00119502
0.00120063
0.00120394
0.00120497
0.00120371
0.00120015
0.00119431
0.00118618
0.00117577
0.0011631
0.00114817
0.001131
0.00111162
0.00109005
0.00106632
0.00104048
0.00101258
0.000982692
0.000950891
0.000917271
0.000881942
0.000845034
0.0008067
0.000767116
0.000726487
0.000685052
0.000643087
0.000600914
0.000558914
0.000517538
0.000477335
0.000438981
0.000403343
0.000371575
0.000345294
0.000326929
0.000320486
0.000333517
0.000383444
0.000526039
0.00109662
0.00157181
0.000748665
0.000534064
0.000448173
0.000411976
0.000401311
0.000406007
0.00042083
0.000442691
0.000469573
0.000500064
0.000533116
0.000567923
0.000603842
0.000640349
0.00067701
0.000713463
0.000749399
0.000784556
0.000818711
0.000851674
0.000883284
0.000913402
0.000941913
0.000968721
0.000993744
0.00101692
0.00103818
0.0010575
0.00107484
0.00109017
0.00110347
0.00111472
0.00112392
0.00113105
0.00113611
0.0011391
0.00114001
0.00113885
0.00113561
0.0011303
0.00112293
0.00111349
0.00110201
0.00108848
0.00107293
0.00105539
0.00103587
0.00101442
0.000991079
0.000965902
0.000938957
0.000910326
0.000880107
0.000848417
0.000815393
0.000781197
0.00074602
0.000710082
0.000673646
0.000637017
0.000600556
0.000564695
0.000529952
0.000496965
0.000466533
0.000439695
0.000417852
0.000403006
0.00039823
0.000408719
0.00044457
0.000529751
0.000742646
0.00155927
0.00205733
0.000976881
0.000690186
0.000569555
0.000511989
0.000486276
0.000479468
0.000485028
0.000499169
0.000519463
0.000544236
0.00057226
0.000602602
0.000634521
0.00066742
0.000700809
0.000734278
0.000767482
0.00080013
0.000831974
0.000862806
0.000892447
0.000920749
0.000947586
0.000972851
0.00099646
0.00101834
0.00103843
0.0010567
0.00107309
0.00108758
0.00110016
0.00111079
0.00111949
0.00112622
0.001131
0.00113381
0.00113465
0.00113352
0.00113044
0.00112539
0.00111838
0.00110942
0.00109852
0.00108569
0.00107096
0.00105433
0.00103586
0.00101556
0.000993491
0.000969711
0.000944293
0.000917323
0.000888908
0.000859172
0.000828267
0.000796369
0.000763687
0.000730466
0.000696995
0.000663618
0.000630739
0.000598847
0.000568534
0.000540531
0.000515765
0.00049545
0.00048125
0.000475571
0.000482176
0.000507553
0.000564542
0.000684086
0.000968279
0.00203935
0.00254739
0.00120766
0.000848999
0.000694412
0.0006166
0.000577143
0.000560224
0.000557943
0.000565783
0.000580886
0.000601306
0.000625632
0.000652796
0.000681964
0.000712463
0.000743743
0.000775349
0.000806898
0.000838068
0.000868587
0.000898225
0.000926788
0.000954113
0.000980063
0.00100452
0.0010274
0.00104862
0.00106812
0.00108584
0.00110176
0.00111583
0.00112804
0.00113837
0.0011468
0.00115333
0.00115795
0.00116066
0.00116146
0.00116034
0.00115731
0.00115237
0.00114553
0.00113679
0.00112616
0.00111366
0.00109931
0.00108313
0.00106516
0.00104543
0.00102399
0.00100091
0.000976274
0.000950167
0.000922705
0.000894027
0.000864295
0.000833702
0.000802478
0.000770891
0.000739262
0.000707969
0.000677465
0.000648294
0.00062112
0.000596772
0.000576304
0.000561113
0.000553128
0.000555183
0.000571761
0.000610695
0.000687656
0.000840695
0.00119588
0.00252268
0.00303068
0.00143552
0.0010063
0.000818824
0.000721773
0.000669576
0.000643552
0.000634425
0.000636936
0.00064779
0.000664761
0.000686253
0.000711066
0.000738267
0.000767112
0.000796993
0.000827409
0.00085794
0.000888235
0.000917997
0.000946978
0.000974966
0.00100179
0.00102729
0.00105135
0.00107388
0.00109478
0.00111399
0.00113147
0.00114715
0.00116103
0.00117306
0.00118324
0.00119154
0.00119797
0.00120251
0.00120516
0.00120591
0.00120478
0.00120175
0.00119685
0.00119006
0.00118139
0.00117087
0.0011585
0.0011443
0.0011283
0.00111053
0.00109104
0.00106989
0.00104713
0.00102285
0.000997158
0.000970173
0.000942042
0.000912941
0.00088308
0.000852706
0.000822113
0.000791649
0.000761729
0.000732848
0.000705608
0.000680745
0.000659181
0.000642101
0.000631082
0.00062833
0.000637108
0.000662629
0.000714078
0.000809947
0.000995317
0.00141986
0.00299779
0.00349818
0.00165611
0.00115888
0.000939915
0.00082467
0.000760628
0.000726311
0.000711097
0.000708993
0.000716271
0.000730427
0.000749679
0.000772697
0.000798452
0.000826128
0.000855061
0.000884706
0.00091461
0.000944394
0.000973737
0.00100237
0.00103008
0.00105666
0.00108196
0.00110585
0.00112823
0.001149
0.0011681
0.00118548
0.00120107
0.00121487
0.00122683
0.00123693
0.00124518
0.00125155
0.00125604
0.00125864
0.00125936
0.0012582
0.00125515
0.00125023
0.00124343
0.00123476
0.00122425
0.00121189
0.00119771
0.00118175
0.00116403
0.0011446
0.00112353
0.00110087
0.00107672
0.00105119
0.00102441
0.000996527
0.000967738
0.000938266
0.000908374
0.000878378
0.000848654
0.00081965
0.000791904
0.00076607
0.000742955
0.000723574
0.000709239
0.000701709
0.000703459
0.000718179
0.000751801
0.00081483
0.000928493
0.00114467
0.00163578
0.00345543
0.00394287
0.00186606
0.00130427
0.00105555
0.000923246
0.000848218
0.000806321
0.000785642
0.000779482
0.000783689
0.000795492
0.000812927
0.000834535
0.000859197
0.000886024
0.000914303
0.000943445
0.000972965
0.00100246
0.00103158
0.00106006
0.00108764
0.00111413
0.00113937
0.00116321
0.00118555
0.0012063
0.00122537
0.00124272
0.00125829
0.00127206
0.001284
0.00129408
0.00130229
0.00130863
0.00131308
0.00131565
0.00131633
0.00131513
0.00131204
0.00130707
0.00130023
0.00129152
0.00128095
0.00126855
0.00125433
0.00123832
0.00122056
0.0012011
0.00118
0.00115732
0.00113317
0.00110766
0.00108092
0.00105312
0.00102445
0.00099516
0.000965523
0.000935877
0.000906622
0.000878235
0.000851296
0.000826511
0.000804751
0.000787122
0.00077506
0.000770498
0.000776174
0.00079619
0.000837166
0.000910865
0.00104112
0.00128624
0.0018402
0.00388843
0.0043596
0.0020629
0.00144069
0.0011642
0.00101605
0.000930888
0.000882072
0.000856468
0.000846709
0.000848243
0.000858041
0.000873966
0.000894439
0.000918249
0.000944444
0.000972259
0.00100107
0.00103035
0.00105969
0.00108871
0.00111712
0.00114468
0.00117116
0.0011964
0.00122026
0.00124261
0.00126337
0.00128246
0.00129982
0.0013154
0.00132916
0.00134109
0.00135116
0.00135935
0.00136566
0.00137008
0.00137261
0.00137325
0.001372
0.00136886
0.00136383
0.00135692
0.00134814
0.0013375
0.00132502
0.00131072
0.00129463
0.00127678
0.00125723
0.00123604
0.00121329
0.00118907
0.00116349
0.00113671
0.00110889
0.00108024
0.001051
0.00102149
0.000992034
0.000963072
0.000935107
0.000908755
0.000884767
0.000864082
0.000847888
0.000837738
0.000835733
0.000844858
0.000869602
0.000917232
0.00100069
0.00114624
0.00141819
0.00203056
0.00429144
0.00474489
0.00224497
0.00156693
0.00126483
0.0011021
0.00100767
0.00095256
0.000922517
0.000909551
0.000908734
0.000916799
0.000931446
0.000950979
0.000974108
0.000999815
0.00102729
0.00105587
0.00108501
0.00111426
0.00114325
0.00117165
0.00119922
0.00122573
0.00125101
0.0012749
0.00129729
0.00131808
0.0013372
0.00135457
0.00137016
0.00138393
0.00139585
0.0014059
0.00141407
0.00142036
0.00142474
0.00142723
0.00142781
0.0014265
0.0014233
0.0014182
0.00141121
0.00140235
0.00139162
0.00137905
0.00136465
0.00134845
0.0013305
0.00131084
0.00128954
0.00126667
0.00124234
0.00121667
0.00118979
0.0011619
0.00113321
0.00110396
0.00107448
0.00104513
0.00101635
0.000988673
0.000962756
0.000939391
0.000919574
0.000904574
0.000896051
0.000896262
0.000908423
0.00093738
0.000990996
0.0010833
0.00124278
0.00153925
0.00220511
0.00466081
0.00509676
0.00241131
0.00168231
0.00135684
0.00118083
0.00107798
0.00101718
0.000983146
0.000967317
0.000964424
0.000970975
0.000984521
0.00100326
0.00102583
0.00105114
0.00107836
0.00110677
0.00113582
0.00116503
0.00119401
0.00122243
0.00125003
0.00127658
0.0013019
0.00132583
0.00134826
0.00136908
0.00138821
0.0014056
0.00142119
0.00143496
0.00144686
0.0014569
0.00146504
0.00147128
0.00147562
0.00147805
0.00147858
0.0014772
0.00147392
0.00146874
0.00146167
0.00145272
0.0014419
0.00142922
0.00141471
0.00139841
0.00138034
0.00136056
0.00133913
0.00131615
0.00129169
0.0012659
0.00123892
0.00121093
0.00118215
0.00115286
0.00112337
0.00109405
0.00106539
0.00103792
0.00101233
0.000989462
0.00097036
0.000956363
0.000949235
0.000951372
0.000966199
0.00099889
0.00105785
0.00115808
0.00133009
0.00164868
0.00236281
0.0049944
0.00541454
0.00256159
0.00178657
0.00143999
0.001252
0.00114156
0.00107565
0.00103804
0.00101966
0.00101493
0.00102015
0.00103273
0.00105079
0.00107288
0.00109788
0.00112488
0.00115317
0.00118215
0.00121134
0.00124032
0.00126876
0.0012964
0.00132298
0.00134833
0.0013723
0.00139475
0.00141559
0.00143473
0.00145212
0.00146771
0.00148145
0.00149333
0.00150333
0.00151143
0.00151762
0.0015219
0.00152427
0.00152473
0.00152328
0.00151991
0.00151465
0.00150749
0.00149844
0.00148751
0.00147473
0.00146011
0.00144369
0.0014255
0.0014056
0.00138405
0.00136094
0.00133636
0.00131044
0.00128334
0.00125525
0.00122638
0.00119702
0.00116749
0.00113818
0.00110958
0.00108226
0.00105693
0.00103447
0.00101596
0.00100281
0.000996881
0.00100069
0.00101785
0.00105382
0.0011175
0.00122476
0.00140791
0.00174616
0.00250325
0.00529135
0.00569868
0.002696
0.00187983
0.00151437
0.00131566
0.00119844
0.00112796
0.00108716
0.0010665
0.00106014
0.00106418
0.00107593
0.00109339
0.00111507
0.00113978
0.00116661
0.0011948
0.00122372
0.00125289
0.00128188
0.00131034
0.001338
0.00136461
0.00138999
0.00141397
0.00143643
0.00145727
0.00147641
0.00149379
0.00150935
0.00152306
0.0015349
0.00154485
0.00155289
0.00155902
0.00156323
0.00156552
0.0015659
0.00156436
0.00156091
0.00155555
0.00154829
0.00153914
0.00152811
0.00151521
0.00150048
0.00148394
0.00146564
0.00144561
0.00142394
0.0014007
0.001376
0.00134996
0.00132274
0.00129453
0.00126557
0.00123613
0.00120655
0.00117723
0.00114867
0.00112146
0.00109633
0.0010742
0.00105618
0.00104376
0.00103886
0.0010441
0.00106329
0.00110212
0.00116992
0.00128333
0.00147624
0.00183174
0.00262653
0.0055519
0.00595048
0.00281516
0.00196249
0.00158029
0.00137206
0.00124882
0.00117428
0.00113064
0.00110797
0.00110016
0.00110316
0.00111416
0.0011311
0.00115242
0.00117689
0.00120356
0.00123165
0.00126053
0.00128968
0.00131867
0.00134714
0.00137481
0.00140143
0.00142682
0.00145081
0.00147326
0.00149409
0.00151321
0.00153055
0.00154607
0.00155974
0.00157152
0.0015814
0.00158937
0.00159542
0.00159956
0.00160176
0.00160204
0.00160041
0.00159686
0.00159139
0.00158403
0.00157477
0.00156362
0.00155062
0.00153577
0.00151911
0.00150068
0.00148054
0.00145874
0.00143537
0.00141055
0.00138439
0.00135705
0.00132874
0.00129968
0.00127016
0.00124052
0.00121118
0.00118264
0.00115551
0.00113054
0.00110868
0.00109108
0.00107927
0.00107524
0.00108172
0.00110264
0.00114394
0.00121529
0.00133402
0.00153536
0.00190578
0.00273315
0.00577717
0.00617197
0.00292001
0.00203522
0.00163825
0.00142164
0.00129307
0.00121494
0.00116881
0.00114435
0.00113526
0.00113734
0.00114768
0.00116415
0.00118514
0.0012094
0.00123593
0.00126394
0.00129277
0.00132189
0.00135087
0.00137934
0.00140701
0.00143364
0.00145902
0.00148299
0.00150543
0.00152623
0.0015453
0.0015626
0.00157806
0.00159166
0.00160337
0.00161318
0.00162106
0.00162703
0.00163106
0.00163316
0.00163334
0.0016316
0.00162794
0.00162236
0.00161488
0.0016055
0.00159424
0.00158111
0.00156614
0.00154936
0.00153081
0.00151053
0.00148861
0.00146512
0.00144017
0.00141389
0.00138645
0.00135802
0.00132887
0.00129926
0.00126957
0.00124019
0.00121166
0.00118459
0.00115975
0.0011381
0.00112085
0.00110955
0.00110626
0.00111378
0.00113618
0.00117957
0.00125395
0.0013772
0.00158573
0.00196884
0.00282396
0.00596894
0.00636568
0.00301173
0.00209883
0.00168893
0.00146495
0.0013317
0.00125041
0.00120206
0.00117603
0.0011658
0.00116707
0.00117682
0.00119288
0.00121359
0.00123765
0.00126405
0.00129198
0.00132076
0.00134985
0.00137881
0.00140728
0.00143494
0.00146155
0.00148691
0.00151085
0.00153326
0.00155401
0.00157304
0.00159027
0.00160566
0.00161918
0.00163081
0.00164052
0.0016483
0.00165416
0.00165809
0.00166008
0.00166014
0.00165828
0.00165449
0.00164879
0.00164118
0.00163167
0.00162028
0.00160702
0.00159192
0.00157501
0.00155633
0.00153592
0.00151387
0.00149026
0.00146518
0.00143878
0.00141122
0.00138269
0.00135344
0.00132375
0.00129399
0.00126457
0.00123603
0.001209
0.00118426
0.00116279
0.00114582
0.00113494
0.00113226
0.00114065
0.00116428
0.00120942
0.00128634
0.00141338
0.00162792
0.00202167
0.00290002
0.00612948
0.00653447
0.00309167
0.00215425
0.00173305
0.00150262
0.00136526
0.0012812
0.0012309
0.00120348
0.00119225
0.00119279
0.00120203
0.00121772
0.00123817
0.00126205
0.00128834
0.00131619
0.00134492
0.00137398
0.00140292
0.00143136
0.001459
0.00148559
0.00151092
0.00153482
0.00155718
0.00157788
0.00159683
0.00161399
0.0016293
0.00164273
0.00165425
0.00166386
0.00167153
0.00167727
0.00168107
0.00168293
0.00168286
0.00168086
0.00167694
0.0016711
0.00166335
0.0016537
0.00164217
0.00162877
0.00161353
0.00159647
0.00157765
0.00155711
0.00153493
0.00151118
0.00148598
0.00145945
0.00143177
0.00140313
0.00137378
0.001344
0.00131417
0.00128471
0.00125615
0.00122914
0.00120447
0.00118313
0.00116638
0.00115584
0.00115365
0.00116276
0.00118739
0.00123397
0.00131296
0.00144312
0.00166261
0.0020651
0.00296252
0.00626136
0.00668143
0.00316129
0.00220249
0.00177141
0.00153534
0.00139438
0.00130787
0.00125586
0.00122721
0.00121509
0.00121499
0.00122377
0.00123913
0.00125935
0.00128307
0.00130925
0.00133703
0.00136571
0.00139474
0.00142365
0.00145207
0.00147968
0.00150624
0.00153152
0.00155538
0.00157768
0.00159831
0.00161719
0.00163426
0.00164947
0.00166279
0.0016742
0.00168368
0.00169123
0.00169683
0.0017005
0.00170221
0.001702
0.00169985
0.00169577
0.00168978
0.00168188
0.00167207
0.00166038
0.00164683
0.00163143
0.00161422
0.00159525
0.00157456
0.00155223
0.00152834
0.001503
0.00147634
0.00144854
0.00141978
0.00139032
0.00136045
0.00133054
0.00130102
0.00127243
0.00124542
0.00122079
0.00119955
0.00118297
0.00117269
0.00117089
0.00118056
0.001206
0.00125372
0.00133439
0.00146704
0.0016905
0.00210001
0.00301277
0.0063673
0.00680971
0.00322207
0.00224458
0.00180485
0.00156382
0.00141969
0.00133102
0.00127749
0.00124774
0.00123484
0.00123417
0.00124253
0.0012576
0.00127762
0.0013012
0.00132728
0.00135499
0.00138363
0.00141263
0.00144151
0.0014699
0.00149748
0.00152399
0.00154924
0.00157304
0.00159527
0.00161582
0.00163461
0.00165158
0.00166669
0.00167989
0.00169117
0.00170052
0.00170793
0.00171338
0.00171689
0.00171844
0.00171806
0.00171575
0.0017115
0.00170534
0.00169726
0.00168728
0.00167542
0.00166169
0.00164612
0.00162874
0.0016096
0.00158875
0.00156626
0.00154221
0.00151673
0.00148993
0.00146199
0.0014331
0.00140353
0.00137355
0.00134355
0.00131396
0.00128532
0.00125828
0.00123367
0.00121249
0.00119602
0.00118594
0.00118443
0.00119453
0.00122059
0.0012692
0.00135116
0.00148576
0.00171232
0.00212732
0.00305205
0.00645006
0.00692244
0.00327549
0.00228154
0.00183418
0.00158875
0.0014418
0.00135122
0.00129633
0.00126561
0.001252
0.00125082
0.00125882
0.00127363
0.00129346
0.00131692
0.00134292
0.00137057
0.00139917
0.00142813
0.00145699
0.00148535
0.0015129
0.00153937
0.00156456
0.00158831
0.00161046
0.00163093
0.00164962
0.00166649
0.00168147
0.00169455
0.00170569
0.00171489
0.00172214
0.00172743
0.00173076
0.00173214
0.00173158
0.00172908
0.00172464
0.00171829
0.00171001
0.00169984
0.00168778
0.00167386
0.0016581
0.00164053
0.0016212
0.00160017
0.0015775
0.00155328
0.00152762
0.00150067
0.00147257
0.00144355
0.00141384
0.00138375
0.00135365
0.00132397
0.00129526
0.00126818
0.00124355
0.00122239
0.00120599
0.00119603
0.00119473
0.00120513
0.00123164
0.00128091
0.00136384
0.00149989
0.00172877
0.00214788
0.00308161
0.0065123
0.00702268
0.00332299
0.00231438
0.0018602
0.00161083
0.00146135
0.00136903
0.00131291
0.00128131
0.00126707
0.00126543
0.0012731
0.00128768
0.00130735
0.00133071
0.00135663
0.00138424
0.00141281
0.00144175
0.00147058
0.00149892
0.00152643
0.00155287
0.00157801
0.00160168
0.00162376
0.00164414
0.00166273
0.00167948
0.00169434
0.00170727
0.00171827
0.0017273
0.00173438
0.00173949
0.00174263
0.00174382
0.00174305
0.00174034
0.0017357
0.00172912
0.00172063
0.00171024
0.00169796
0.00168382
0.00166784
0.00165005
0.00163051
0.00160927
0.0015864
0.00156199
0.00153614
0.00150901
0.00148074
0.00145156
0.0014217
0.00139148
0.00136125
0.00133147
0.00130267
0.00127552
0.00125084
0.00122966
0.00121328
0.00120339
0.0012022
0.0012128
0.00123961
0.00128933
0.00137292
0.00151
0.00174052
0.00216255
0.00310267
0.00655655
0.00711335
0.00336595
0.00234405
0.00188366
0.0016307
0.0014789
0.00138499
0.00132775
0.00129534
0.00128051
0.00127846
0.00128583
0.00130021
0.00131974
0.00134301
0.00136888
0.00139646
0.00142501
0.00145393
0.00148275
0.00151107
0.00153856
0.00156495
0.00159004
0.00161366
0.00163566
0.00165594
0.00167443
0.00169106
0.00170578
0.00171856
0.00172939
0.00173825
0.00174514
0.00175005
0.00175299
0.00175396
0.00175297
0.00175003
0.00174514
0.00173833
0.00172959
0.00171895
0.00170642
0.00169203
0.0016758
0.00165777
0.00163799
0.00161651
0.00159341
0.00156877
0.00154271
0.00151537
0.00148691
0.00145754
0.00142752
0.00139713
0.00136676
0.00133684
0.00130793
0.00128068
0.00125593
0.00123469
0.00121828
0.00120839
0.00120725
0.00121794
0.00124491
0.00129489
0.00137889
0.0015166
0.00174816
0.00217205
0.00311628
0.0065851
0.00719721
0.00340568
0.00237145
0.00190529
0.00164898
0.00149501
0.00139961
0.00134131
0.00130815
0.00129278
0.00129034
0.00129745
0.00131164
0.00133106
0.00135426
0.0013801
0.00140765
0.0014362
0.00146513
0.00149395
0.00152226
0.00154973
0.00157609
0.00160114
0.0016247
0.00164662
0.00166681
0.00168519
0.00170169
0.00171627
0.0017289
0.00173955
0.00174822
0.00175491
0.00175961
0.00176231
0.00176304
0.0017618
0.0017586
0.00175345
0.00174637
0.00173735
0.00172643
0.00171362
0.00169894
0.00168243
0.00166412
0.00164406
0.00162231
0.00159894
0.00157404
0.00154774
0.00152015
0.00149147
0.00146188
0.00143165
0.00140108
0.00137053
0.00134045
0.00131139
0.00128402
0.00125915
0.00123782
0.00122133
0.00121138
0.0012102
0.0012209
0.00124791
0.00129798
0.00138215
0.00152016
0.00175223
0.00217708
0.00312343
0.0066
0.00727685
0.00344338
0.00239742
0.00192575
0.00166623
0.00151017
0.00141334
0.00135404
0.00132015
0.00130427
0.00130147
0.00130834
0.00132238
0.0013417
0.00136485
0.00139067
0.00141824
0.0014468
0.00147575
0.00150458
0.0015329
0.00156037
0.00158672
0.00161174
0.00163524
0.0016571
0.0016772
0.00169547
0.00171185
0.00172628
0.00173874
0.00174921
0.00175768
0.00176415
0.00176861
0.00177106
0.00177153
0.00177002
0.00176653
0.00176108
0.00175369
0.00174436
0.00173312
0.00171999
0.00170498
0.00168815
0.00166951
0.00164913
0.00162706
0.00160338
0.00157818
0.00155158
0.00152372
0.00149477
0.00146493
0.00143445
0.00140365
0.00137289
0.00134262
0.00131338
0.00128583
0.00126081
0.00123934
0.00122272
0.00121266
0.00121138
0.00122199
0.00124892
0.00129895
0.00138308
0.00152109
0.00175321
0.00217821
0.00312497
0.00660304
0.00735467
0.00348022
0.00242276
0.00194567
0.00168299
0.00152488
0.00142663
0.00136633
0.00133174
0.00131537
0.00131223
0.00131887
0.00133278
0.00135204
0.00137517
0.001401
0.0014286
0.0014572
0.00148619
0.00151507
0.00154342
0.00157091
0.00159727
0.00162226
0.00164573
0.00166754
0.00168756
0.00170573
0.00172198
0.00173626
0.00174855
0.00175883
0.00176709
0.00177332
0.00177753
0.00177971
0.00177989
0.00177807
0.00177426
0.00176848
0.00176074
0.00175106
0.00173945
0.00172594
0.00171057
0.00169335
0.00167434
0.00165358
0.00163115
0.0016071
0.00158155
0.00155461
0.00152641
0.00149714
0.00146699
0.00143623
0.00140516
0.00137414
0.00134363
0.00131416
0.00128641
0.00126119
0.00123953
0.00122273
0.0012125
0.00121105
0.00122149
0.00124824
0.00129807
0.00138198
0.00151972
0.00175149
0.00217594
0.00312158
0.00659571
0.00743295
0.00351725
0.0024482
0.00196564
0.00169975
0.00153956
0.00143988
0.00137857
0.00134328
0.00132642
0.00132296
0.0013294
0.00134319
0.00136241
0.00138555
0.00141143
0.00143909
0.00146777
0.00149685
0.0015258
0.00155422
0.00158175
0.00160814
0.00163315
0.00165661
0.00167837
0.00169833
0.00171641
0.00173254
0.00174668
0.0017588
0.00176889
0.00177692
0.00178291
0.00178684
0.00178872
0.00178858
0.00178643
0.00178226
0.0017761
0.00176797
0.00175788
0.00174586
0.00173193
0.00171612
0.00169846
0.00167901
0.00165782
0.00163494
0.00161047
0.0015845
0.00155714
0.00152855
0.00149889
0.00146839
0.00143728
0.00140588
0.00137455
0.00134374
0.001314
0.00128598
0.00126051
0.00123861
0.00122158
0.00121111
0.00120942
0.00121959
0.00124607
0.00129557
0.00137909
0.00151633
0.00174737
0.00217065
0.00311384
0.00657919
0.0075138
0.00355548
0.00247443
0.0019862
0.00171698
0.00155462
0.00145346
0.00139112
0.0013551
0.00133775
0.00133398
0.00134024
0.00135395
0.00137316
0.00139635
0.00142232
0.00145009
0.00147889
0.00150809
0.00153716
0.00156568
0.00159331
0.00161977
0.00164483
0.0016683
0.00169006
0.00170998
0.00172799
0.00174402
0.00175802
0.00176998
0.00177987
0.00178768
0.0017934
0.00179704
0.0017986
0.00179812
0.00179559
0.00179102
0.00178444
0.00177586
0.00176531
0.00175281
0.00173838
0.00172207
0.0017039
0.00168393
0.00166222
0.00163883
0.00161385
0.00158737
0.00155953
0.00153046
0.00150034
0.00146939
0.00143786
0.00140606
0.00137435
0.00134318
0.00131309
0.00128475
0.00125897
0.00123676
0.00121943
0.00120866
0.00120665
0.00121649
0.00124258
0.00129163
0.00137461
0.00151111
0.00174111
0.00216264
0.00310217
0.00655438
0.00759927
0.00359587
0.00250212
0.00200786
0.00173511
0.00157045
0.00146772
0.00140429
0.00136752
0.00134968
0.00134561
0.00135171
0.00136537
0.00138462
0.0014079
0.00143401
0.00146194
0.00149093
0.0015203
0.00154955
0.00157824
0.00160602
0.0016326
0.00165775
0.00168129
0.00170308
0.001723
0.00174096
0.00175692
0.00177081
0.00178262
0.00179231
0.00179989
0.00180535
0.00180868
0.0018099
0.00180904
0.00180609
0.00180108
0.00179403
0.00178495
0.00177386
0.00176081
0.00174581
0.0017289
0.00171013
0.00168955
0.00166722
0.00164321
0.00161762
0.00159054
0.0015621
0.00153246
0.00150178
0.00147029
0.00143825
0.00140595
0.00137377
0.00134216
0.00131165
0.0012829
0.00125673
0.00123415
0.00121644
0.00120529
0.00120288
0.00121229
0.0012379
0.00128638
0.00136865
0.00150422
0.00173284
0.0021521
0.00308684
0.00652187
0.00769131
0.00363936
0.0025319
0.00203113
0.00175456
0.00158742
0.00148301
0.00141841
0.00138086
0.00136252
0.00135814
0.00136411
0.00137777
0.0013971
0.00142055
0.00144685
0.00147503
0.00150426
0.0015339
0.0015634
0.00159233
0.00162032
0.0016471
0.00167241
0.00169608
0.00171796
0.00173793
0.0017559
0.00177182
0.00178563
0.00179731
0.00180683
0.00181419
0.00181938
0.00182238
0.00182324
0.00182197
0.00181857
0.00181306
0.00180547
0.00179581
0.00178411
0.00177041
0.00175474
0.00173714
0.00171766
0.00169635
0.00167328
0.00164853
0.0016222
0.00159439
0.00156523
0.00153488
0.00150352
0.00147137
0.00143869
0.00140579
0.00137303
0.00134087
0.00130983
0.00128059
0.00125393
0.00123088
0.00121271
0.00120109
0.0011982
0.00120708
0.00123209
0.00127988
0.00136128
0.0014957
0.00172266
0.00213913
0.00306799
0.00648195
0.00779187
0.00368684
0.00256439
0.0020565
0.00177575
0.00160589
0.00149964
0.0014338
0.00139541
0.00137655
0.0013719
0.00137776
0.00139147
0.00141095
0.00143463
0.00146122
0.00148973
0.00151931
0.0015493
0.00157916
0.00160842
0.00163674
0.00166379
0.00168936
0.00171324
0.00173529
0.00175538
0.00177343
0.00178937
0.00180315
0.00181474
0.00182411
0.00183126
0.00183619
0.00183886
0.00183934
0.00183762
0.00183373
0.00182766
0.00181946
0.00180914
0.00179673
0.00178228
0.00176582
0.00174739
0.00172706
0.00170488
0.00168092
0.00165528
0.00162804
0.00159934
0.00156929
0.00153808
0.00150588
0.00147291
0.00143945
0.00140579
0.00137232
0.00133948
0.0013078
0.00127793
0.00125068
0.00122705
0.00120832
0.00119612
0.00119264
0.00120088
0.00122519
0.00127215
0.00135252
0.00148557
0.00171054
0.00212371
0.0030456
0.00643455
0.00790288
0.00373925
0.00260022
0.00208445
0.00179907
0.00162623
0.00151796
0.00145075
0.00141147
0.00139208
0.00138717
0.00139298
0.0014068
0.00142652
0.00145053
0.00147752
0.00150647
0.00153652
0.001567
0.00159733
0.00162706
0.00165582
0.00168329
0.00170922
0.00173343
0.00175576
0.00177607
0.00179428
0.00181032
0.00182414
0.0018357
0.00184497
0.00185195
0.00185662
0.00185896
0.00185905
0.00185686
0.00185241
0.00184572
0.00183683
0.00182574
0.00181252
0.00179718
0.00177978
0.00176037
0.00173901
0.00171577
0.00169073
0.00166399
0.00163566
0.00160586
0.00157473
0.00154244
0.0015092
0.00147522
0.00144079
0.0014062
0.00137184
0.00133815
0.00130566
0.00127503
0.00124705
0.00122271
0.00120328
0.00119039
0.00118619
0.00119367
0.00121713
0.00126311
0.00134227
0.00147372
0.00169638
0.00210568
0.00301943
0.00637923
0.00802629
0.00379749
0.00264001
0.00211547
0.00182494
0.00164878
0.00153829
0.0014696
0.00142936
0.00140943
0.00140429
0.00141011
0.00142412
0.00144419
0.00146865
0.00149619
0.00152573
0.00155641
0.00158753
0.0016185
0.00164886
0.00167822
0.00170626
0.00173272
0.00175741
0.00178015
0.00180082
0.00181932
0.00183557
0.00184952
0.00186113
0.00187037
0.00187722
0.00188167
0.00188369
0.00188337
0.00188067
0.00187562
0.00186823
0.00185854
0.00184658
0.00183238
0.00181599
0.00179747
0.00177688
0.00175428
0.00172975
0.0017034
0.00167531
0.00164562
0.00161446
0.00158198
0.00154837
0.00151384
0.0014786
0.00144296
0.00140721
0.00137174
0.001337
0.00130352
0.00127194
0.00124305
0.00121785
0.00119757
0.00118383
0.00117878
0.00118535
0.00120781
0.00125263
0.00133038
0.00145997
0.00167993
0.00208476
0.00298906
0.00631506
0.00816414
0.00386252
0.00268442
0.00215006
0.00185379
0.00167392
0.00156097
0.00149065
0.00144941
0.00142892
0.00142359
0.00142951
0.00144383
0.00146439
0.00148946
0.00151771
0.00154802
0.00157953
0.00161149
0.00164332
0.00167452
0.00170468
0.0017335
0.00176069
0.00178605
0.00180939
0.0018306
0.00184955
0.00186616
0.00188038
0.00189215
0.00190144
0.00190824
0.00191251
0.00191424
0.0019135
0.00191026
0.00190454
0.00189636
0.00188575
0.00187275
0.0018574
0.00183976
0.00181989
0.00179785
0.00177374
0.00174764
0.00171965
0.00168991
0.00165854
0.00162569
0.00159155
0.00155629
0.00152014
0.00148334
0.00144619
0.001409
0.00137216
0.00133611
0.0013014
0.00126865
0.00123866
0.00121239
0.00119108
0.00117633
0.00117025
0.00117574
0.00119702
0.00124049
0.00131657
0.00144399
0.00166081
0.00206044
0.00295378
0.00624056
0.00831851
0.00393533
0.00273411
0.00218874
0.00188603
0.00170203
0.00158636
0.00151427
0.00147194
0.00145092
0.00144546
0.00145157
0.00146635
0.00148756
0.00151345
0.00154263
0.00157396
0.00160654
0.0016396
0.00167254
0.00170483
0.00173608
0.00176593
0.00179411
0.00182039
0.00184458
0.00186654