/*--------------------------------*- C++ -*----------------------------------*\
  =========                 |
  \\      /  F ield         | OpenFOAM: The Open Source CFD Toolbox
   \\    /   O peration     | Website:  https://openfoam.org
    \\  /    A nd           | Version:  12
     \\/     M anipulation  |
\*---------------------------------------------------------------------------*/
FoamFile
{
    format      ascii;
    class       volScalarField;
    location    "0.5";
    object      nut;
}
// * * * * * * * * * * * * * * * * * * * * * * * * * * * * * * * * * * * * * //

dimensions      [0 2 -1 0 0 0 0];

internalField   nonuniform List<scalar> 
5625
(
7.76526e-13
2.34516e-11
4.9643e-11
8.07981e-11
1.15734e-10
1.53542e-10
1.9354e-10
2.35195e-10
2.78061e-10
3.21756e-10
3.65937e-10
4.10299e-10
4.54563e-10
4.98476e-10
5.41807e-10
5.84346e-10
6.25904e-10
6.66308e-10
7.05404e-10
7.43057e-10
7.79142e-10
8.13554e-10
8.46199e-10
8.76994e-10
9.05872e-10
9.32771e-10
9.57642e-10
9.80443e-10
1.00114e-09
1.01971e-09
1.03611e-09
1.05035e-09
1.0624e-09
1.07225e-09
1.0799e-09
1.08534e-09
1.08856e-09
1.08956e-09
1.08835e-09
1.08492e-09
1.07928e-09
1.07142e-09
1.06137e-09
1.04912e-09
1.03469e-09
1.01809e-09
9.99337e-10
9.78463e-10
9.55494e-10
9.30467e-10
9.03424e-10
8.74418e-10
8.4351e-10
8.10772e-10
7.76288e-10
7.40152e-10
7.02473e-10
6.63375e-10
6.22997e-10
5.81492e-10
5.39033e-10
4.9581e-10
4.52032e-10
4.07928e-10
3.6375e-10
3.19773e-10
2.763e-10
2.3367e-10
1.9226e-10
1.52508e-10
1.14945e-10
8.0241e-11
4.92977e-11
2.32874e-11
7.71054e-13
5.24062e-12
7.63473e-10
4.05511e-09
9.43439e-09
1.57946e-08
2.26206e-08
2.97241e-08
3.70197e-08
4.44507e-08
5.19689e-08
5.95295e-08
6.709e-08
7.46103e-08
8.20527e-08
8.93824e-08
9.65669e-08
1.03577e-07
1.10385e-07
1.16967e-07
1.23301e-07
1.29368e-07
1.3515e-07
1.40633e-07
1.45804e-07
1.50651e-07
1.55164e-07
1.59337e-07
1.63161e-07
1.66632e-07
1.69745e-07
1.72496e-07
1.74883e-07
1.76903e-07
1.78554e-07
1.79836e-07
1.80747e-07
1.81286e-07
1.81454e-07
1.8125e-07
1.80675e-07
1.79728e-07
1.78411e-07
1.76725e-07
1.7467e-07
1.7225e-07
1.69466e-07
1.66321e-07
1.62819e-07
1.58966e-07
1.54766e-07
1.50227e-07
1.45358e-07
1.40168e-07
1.34669e-07
1.28874e-07
1.22798e-07
1.16459e-07
1.09877e-07
1.03074e-07
9.60738e-08
8.89038e-08
8.15937e-08
7.41757e-08
6.66846e-08
5.91576e-08
5.16347e-08
4.41575e-08
3.67705e-08
2.95208e-08
2.24643e-08
1.56849e-08
9.36883e-09
4.02699e-09
7.58169e-10
5.20362e-12
1.1583e-11
1.89959e-09
1.28692e-08
3.80627e-08
7.6109e-08
1.22794e-07
1.74509e-07
2.28983e-07
2.84903e-07
3.41487e-07
3.98224e-07
4.54742e-07
5.10737e-07
5.65951e-07
6.20152e-07
6.7313e-07
7.24694e-07
7.7467e-07
8.22903e-07
8.69249e-07
9.13583e-07
9.55794e-07
9.95783e-07
1.03347e-06
1.06877e-06
1.10162e-06
1.13198e-06
1.1598e-06
1.18504e-06
1.20767e-06
1.22767e-06
1.24501e-06
1.25968e-06
1.27168e-06
1.28098e-06
1.2876e-06
1.29151e-06
1.29272e-06
1.29122e-06
1.28703e-06
1.28014e-06
1.27056e-06
1.25829e-06
1.24334e-06
1.22574e-06
1.20548e-06
1.18261e-06
1.15713e-06
1.12909e-06
1.09852e-06
1.06547e-06
1.02999e-06
9.92165e-07
9.52055e-07
9.09753e-07
8.65359e-07
8.18989e-07
7.70769e-07
7.20844e-07
6.69373e-07
6.16528e-07
5.62503e-07
5.07506e-07
4.51766e-07
3.95541e-07
3.3913e-07
2.829e-07
2.27353e-07
1.7326e-07
1.21915e-07
7.55673e-08
3.77932e-08
1.2778e-08
1.88601e-09
1.14987e-11
1.89876e-11
3.19129e-09
2.30705e-08
7.48353e-08
1.64766e-07
2.89361e-07
4.40291e-07
6.08974e-07
7.88564e-07
9.7417e-07
1.16243e-06
1.35102e-06
1.53828e-06
1.72297e-06
1.90413e-06
2.08097e-06
2.25281e-06
2.4191e-06
2.57934e-06
2.73309e-06
2.87997e-06
3.01966e-06
3.15186e-06
3.27632e-06
3.39283e-06
3.50121e-06
3.60129e-06
3.69296e-06
3.77609e-06
3.8506e-06
3.91642e-06
3.97349e-06
4.02177e-06
4.06122e-06
4.09182e-06
4.11354e-06
4.12637e-06
4.13031e-06
4.12535e-06
4.11151e-06
4.08879e-06
4.0572e-06
4.01677e-06
3.96753e-06
3.90951e-06
3.84278e-06
3.76739e-06
3.68342e-06
3.59097e-06
3.49016e-06
3.38113e-06
3.26404e-06
3.13908e-06
3.0065e-06
2.86653e-06
2.7195e-06
2.56572e-06
2.40561e-06
2.23958e-06
2.06816e-06
1.8919e-06
1.71146e-06
1.52765e-06
1.3414e-06
1.15395e-06
9.66936e-07
7.82639e-07
6.04378e-07
4.36975e-07
2.87196e-07
1.63542e-07
7.42806e-08
2.28985e-08
3.16721e-09
1.88417e-11
2.70224e-11
4.57978e-09
3.38948e-08
1.14185e-07
2.63287e-07
4.84967e-07
7.7134e-07
1.10872e-06
1.48262e-06
1.88038e-06
2.29196e-06
2.70978e-06
3.12823e-06
3.54313e-06
3.95134e-06
4.35044e-06
4.73853e-06
5.11407e-06
5.47582e-06
5.82273e-06
6.15393e-06
6.46869e-06
6.76638e-06
7.04647e-06
7.3085e-06
7.55211e-06
7.77698e-06
7.98284e-06
8.16947e-06
8.33669e-06
8.48436e-06
8.61237e-06
8.72061e-06
8.80903e-06
8.87756e-06
8.92617e-06
8.95483e-06
8.96353e-06
8.95227e-06
8.92107e-06
8.86994e-06
8.79893e-06
8.70807e-06
8.59743e-06
8.4671e-06
8.31719e-06
8.14782e-06
7.95917e-06
7.75144e-06
7.52486e-06
7.27973e-06
7.01638e-06
6.73522e-06
6.43673e-06
6.12146e-06
5.79007e-06
5.44331e-06
5.08207e-06
4.70741e-06
4.32058e-06
3.92313e-06
3.51693e-06
3.10438e-06
2.68859e-06
2.27368e-06
1.86518e-06
1.47056e-06
1.09971e-06
7.65101e-07
4.81076e-07
2.61188e-07
1.13274e-07
3.36223e-08
4.54252e-09
2.6799e-11
3.53832e-11
6.01886e-09
4.50198e-08
1.54402e-07
3.64479e-07
6.893e-07
1.12598e-06
1.65967e-06
2.26998e-06
2.93592e-06
3.63872e-06
4.36282e-06
5.09588e-06
5.82835e-06
6.55288e-06
7.2638e-06
7.95675e-06
8.62828e-06
9.2757e-06
9.89681e-06
1.04899e-05
1.10534e-05
1.15863e-05
1.20876e-05
1.25564e-05
1.29922e-05
1.33942e-05
1.37622e-05
1.40957e-05
1.43945e-05
1.46582e-05
1.48867e-05
1.50799e-05
1.52376e-05
1.53598e-05
1.54463e-05
1.54972e-05
1.55124e-05
1.5492e-05
1.54359e-05
1.53442e-05
1.52169e-05
1.50543e-05
1.48562e-05
1.46231e-05
1.43549e-05
1.40519e-05
1.37145e-05
1.33429e-05
1.29375e-05
1.2499e-05
1.20278e-05
1.15247e-05
1.09905e-05
1.04263e-05
9.8332e-06
9.21277e-06
8.56678e-06
7.89741e-06
7.20737e-06
6.50009e-06
5.7799e-06
5.05238e-06
4.32476e-06
3.60648e-06
2.90965e-06
2.2496e-06
1.64482e-06
1.11597e-06
6.83227e-07
3.61286e-07
1.53049e-07
4.46227e-08
5.96521e-09
3.50633e-11
4.3831e-11
7.46995e-09
5.61844e-08
1.94543e-07
4.65237e-07
8.93386e-07
1.48324e-06
2.2217e-06
3.08503e-06
4.0453e-06
5.07502e-06
6.14968e-06
7.24867e-06
8.35529e-06
9.45628e-06
1.05412e-05
1.16021e-05
1.26324e-05
1.36272e-05
1.45826e-05
1.54954e-05
1.63631e-05
1.71838e-05
1.79558e-05
1.86778e-05
1.93488e-05
1.99678e-05
2.05343e-05
2.10475e-05
2.15072e-05
2.19128e-05
2.22642e-05
2.25611e-05
2.28033e-05
2.29908e-05
2.31234e-05
2.3201e-05
2.32238e-05
2.31916e-05
2.31046e-05
2.29627e-05
2.27661e-05
2.2515e-05
2.22096e-05
2.18499e-05
2.14365e-05
2.09695e-05
2.04495e-05
1.9877e-05
1.92526e-05
1.8577e-05
1.78513e-05
1.70766e-05
1.62542e-05
1.53859e-05
1.44737e-05
1.35202e-05
1.25285e-05
1.15026e-05
1.04474e-05
9.36926e-06
8.27619e-06
7.17842e-06
6.08898e-06
5.02428e-06
4.00458e-06
3.05395e-06
2.19942e-06
1.46849e-06
8.84589e-07
4.60688e-07
1.92643e-07
5.56333e-08
7.39609e-09
4.33924e-11
5.21731e-11
8.90107e-09
6.71642e-08
2.33867e-07
5.63631e-07
1.09248e-06
1.83244e-06
2.77363e-06
3.89078e-06
5.1506e-06
6.51786e-06
7.95929e-06
9.44564e-06
1.09523e-05
1.24592e-05
1.39502e-05
1.54126e-05
1.68362e-05
1.82131e-05
1.95371e-05
2.08032e-05
2.20076e-05
2.31471e-05
2.42192e-05
2.52221e-05
2.6154e-05
2.70138e-05
2.78005e-05
2.85132e-05
2.91513e-05
2.97143e-05
3.02018e-05
3.06135e-05
3.09491e-05
3.12086e-05
3.13918e-05
3.14985e-05
3.15289e-05
3.1483e-05
3.13609e-05
3.11625e-05
3.08882e-05
3.05382e-05
3.01126e-05
2.96119e-05
2.90364e-05
2.83868e-05
2.76635e-05
2.68674e-05
2.59995e-05
2.50607e-05
2.40526e-05
2.29768e-05
2.18354e-05
2.0631e-05
1.93666e-05
1.80464e-05
1.66753e-05
1.52594e-05
1.38067e-05
1.2327e-05
1.08331e-05
9.34069e-06
7.86946e-06
6.44354e-06
5.09161e-06
3.84627e-06
2.74211e-06
1.81183e-06
1.08033e-06
5.57416e-07
2.31298e-07
6.64251e-08
8.80257e-09
5.15897e-11
6.02543e-11
1.02863e-08
7.77733e-08
2.71765e-07
6.58203e-07
1.2835e-06
2.16735e-06
3.30363e-06
4.66657e-06
6.21874e-06
7.91816e-06
9.72355e-06
1.15973e-05
1.35069e-05
1.54251e-05
1.73297e-05
1.92029e-05
2.10303e-05
2.28007e-05
2.45052e-05
2.61366e-05
2.76896e-05
2.91595e-05
3.05431e-05
3.18374e-05
3.30404e-05
3.41502e-05
3.51656e-05
3.60854e-05
3.69087e-05
3.76349e-05
3.82635e-05
3.8794e-05
3.92262e-05
3.95599e-05
3.97948e-05
3.9931e-05
3.99685e-05
3.99074e-05
3.97477e-05
3.94896e-05
3.91334e-05
3.86794e-05
3.81279e-05
3.74795e-05
3.67347e-05
3.58942e-05
3.4959e-05
3.393e-05
3.28085e-05
3.1596e-05
3.02946e-05
2.89064e-05
2.74345e-05
2.58824e-05
2.42546e-05
2.25567e-05
2.07958e-05
1.89808e-05
1.71227e-05
1.52356e-05
1.33371e-05
1.14488e-05
9.59737e-06
7.81459e-06
6.13719e-06
4.60558e-06
3.26081e-06
2.13959e-06
1.26727e-06
6.49969e-07
2.68387e-07
7.68075e-08
1.01581e-08
5.94972e-11
6.79542e-11
1.16053e-08
8.78639e-08
3.0775e-07
7.47826e-07
1.46422e-06
2.48391e-06
3.80455e-06
5.4004e-06
7.23068e-06
9.24759e-06
1.14026e-05
1.36502e-05
1.59505e-05
1.82692e-05
2.05781e-05
2.28541e-05
2.50786e-05
2.72367e-05
2.93169e-05
3.13096e-05
3.32076e-05
3.50051e-05
3.66975e-05
3.8281e-05
3.9753e-05
4.1111e-05
4.23534e-05
4.34786e-05
4.44856e-05
4.53736e-05
4.61418e-05
4.67897e-05
4.73171e-05
4.77236e-05
4.80091e-05
4.81735e-05
4.82168e-05
4.81393e-05
4.7941e-05
4.76222e-05
4.71833e-05
4.66246e-05
4.59467e-05
4.51502e-05
4.42359e-05
4.32048e-05
4.20579e-05
4.07967e-05
3.94227e-05
3.79381e-05
3.63454e-05
3.46475e-05
3.28483e-05
3.09525e-05
2.89661e-05
2.68964e-05
2.47527e-05
2.25466e-05
2.02927e-05
1.80092e-05
1.57186e-05
1.34485e-05
1.12321e-05
9.10848e-06
7.12183e-06
5.31951e-06
3.74812e-06
2.44755e-06
1.4431e-06
7.37178e-07
3.03406e-07
8.66284e-08
1.14419e-08
6.69908e-11
7.51832e-11
1.28429e-08
9.7326e-08
3.41456e-07
8.31663e-07
1.63307e-06
2.77938e-06
4.27191e-06
6.08514e-06
8.17547e-06
1.049e-05
1.29736e-05
1.55739e-05
1.82437e-05
2.09422e-05
2.36354e-05
2.62952e-05
2.88988e-05
3.14278e-05
3.38677e-05
3.62069e-05
3.84361e-05
4.05481e-05
4.25372e-05
4.43988e-05
4.61294e-05
4.7726e-05
4.91865e-05
5.05092e-05
5.16926e-05
5.27356e-05
5.36376e-05
5.43978e-05
5.50158e-05
5.54914e-05
5.58244e-05
5.60146e-05
5.60622e-05
5.59674e-05
5.57304e-05
5.53515e-05
5.48313e-05
5.41702e-05
5.3369e-05
5.24284e-05
5.13495e-05
5.01335e-05
4.87817e-05
4.7296e-05
4.56784e-05
4.39314e-05
4.20582e-05
4.00627e-05
3.79494e-05
3.57244e-05
3.3395e-05
3.09704e-05
2.84622e-05
2.58846e-05
2.32555e-05
2.05973e-05
1.79372e-05
1.53084e-05
1.27502e-05
1.03085e-05
8.03415e-06
5.98061e-06
4.19934e-06
2.73286e-06
1.60617e-06
8.18169e-07
3.35976e-07
9.57734e-08
1.26382e-08
7.39779e-11
8.18804e-11
1.39891e-08
1.06085e-07
3.72637e-07
9.09157e-07
1.78901e-06
3.05209e-06
4.70307e-06
6.71677e-06
9.04716e-06
1.16368e-05
1.44247e-05
1.7352e-05
2.03651e-05
2.34173e-05
2.64689e-05
2.94871e-05
3.24452e-05
3.53214e-05
3.80985e-05
4.07625e-05
4.33026e-05
4.57101e-05
4.79779e-05
5.01007e-05
5.20742e-05
5.3895e-05
5.55603e-05
5.70682e-05
5.84169e-05
5.96052e-05
6.06321e-05
6.14969e-05
6.21991e-05
6.27384e-05
6.31145e-05
6.33274e-05
6.33774e-05
6.32646e-05
6.29894e-05
6.25521e-05
6.19535e-05
6.11942e-05
6.0275e-05
5.91971e-05
5.79617e-05
5.65701e-05
5.50243e-05
5.33263e-05
5.14786e-05
4.94844e-05
4.73473e-05
4.5072e-05
4.26641e-05
4.01308e-05
3.74808e-05
3.4725e-05
3.18771e-05
2.89542e-05
2.59772e-05
2.29721e-05
1.99708e-05
1.70114e-05
1.41391e-05
1.14056e-05
8.86775e-06
6.58456e-06
4.61163e-06
2.99369e-06
1.75537e-06
8.92343e-07
3.65834e-07
1.04163e-07
1.37363e-08
8.03945e-11
8.80106e-11
1.50378e-08
1.14097e-07
4.01153e-07
9.8e-07
1.9315e-06
3.30119e-06
5.09682e-06
7.29355e-06
9.84323e-06
1.26844e-05
1.57508e-05
1.89777e-05
2.23056e-05
2.56824e-05
2.90634e-05
3.24114e-05
3.56959e-05
3.88921e-05
4.19801e-05
4.4944e-05
4.7771e-05
5.04511e-05
5.29764e-05
5.53403e-05
5.75381e-05
5.95656e-05
6.14198e-05
6.30982e-05
6.4599e-05
6.59206e-05
6.7062e-05
6.80223e-05
6.88009e-05
6.93975e-05
6.9812e-05
7.0044e-05
7.00942e-05
6.99628e-05
6.96501e-05
6.91567e-05
6.84834e-05
6.76311e-05
6.66008e-05
6.53939e-05
6.40118e-05
6.24563e-05
6.07296e-05
5.8834e-05
5.67727e-05
5.45492e-05
5.21679e-05
4.96341e-05
4.69546e-05
4.41375e-05
4.11928e-05
3.81333e-05
3.49745e-05
3.17359e-05
2.84414e-05
2.51205e-05
2.1809e-05
1.85498e-05
1.53929e-05
1.23955e-05
9.61969e-06
7.1293e-06
4.98355e-06
3.22906e-06
1.89008e-06
9.59356e-07
3.92825e-07
1.11751e-07
1.47298e-08
8.62017e-11
9.35605e-11
1.59868e-08
1.21349e-07
4.26961e-07
1.04411e-06
2.06044e-06
3.52659e-06
5.4531e-06
7.81548e-06
1.05637e-05
1.36326e-05
1.69514e-05
2.045e-05
2.40638e-05
2.77355e-05
3.14158e-05
3.50637e-05
3.86452e-05
4.21327e-05
4.55038e-05
4.87407e-05
5.18291e-05
5.47577e-05
5.75173e-05
6.01008e-05
6.25025e-05
6.47181e-05
6.67438e-05
6.85769e-05
7.02154e-05
7.16574e-05
7.29018e-05
7.39476e-05
7.47942e-05
7.54413e-05
7.58886e-05
7.6136e-05
7.61842e-05
7.60334e-05
7.56841e-05
7.51371e-05
7.43932e-05
7.34537e-05
7.23198e-05
7.0993e-05
6.94751e-05
6.77682e-05
6.58748e-05
6.37978e-05
6.15405e-05
5.91073e-05
5.6503e-05
5.37338e-05
5.08072e-05
4.77324e-05
4.45208e-05
4.11864e-05
3.77469e-05
3.42238e-05
3.06437e-05
2.70392e-05
2.34496e-05
1.99218e-05
1.65105e-05
1.32775e-05
1.02895e-05
7.61446e-06
5.31479e-06
3.43872e-06
2.0101e-06
1.01908e-06
4.16889e-07
1.18518e-07
1.56158e-08
9.13833e-11
9.85357e-11
1.68374e-08
1.27849e-07
4.50098e-07
1.1016e-06
2.1761e-06
3.72881e-06
5.77281e-06
8.28395e-06
1.12105e-05
1.44842e-05
1.80299e-05
2.17729e-05
2.56439e-05
2.9581e-05
3.35309e-05
3.7449e-05
4.12981e-05
4.5048e-05
4.86743e-05
5.21572e-05
5.54811e-05
5.86333e-05
6.16038e-05
6.43848e-05
6.69699e-05
6.93542e-05
7.15336e-05
7.35052e-05
7.52664e-05
7.68155e-05
7.81511e-05
7.92722e-05
8.01781e-05
8.08684e-05
8.1343e-05
8.16018e-05
8.16455e-05
8.14745e-05
8.10895e-05
8.04914e-05
7.96813e-05
7.86605e-05
7.74306e-05
7.59933e-05
7.43507e-05
7.25053e-05
7.04599e-05
6.82177e-05
6.57828e-05
6.31597e-05
6.0354e-05
5.73727e-05
5.4224e-05
5.0918e-05
4.74674e-05
4.38876e-05
4.01977e-05
3.64214e-05
3.25875e-05
2.87314e-05
2.48955e-05
2.11303e-05
1.74944e-05
1.40535e-05
1.08786e-05
8.04108e-06
5.60602e-06
3.62304e-06
2.11562e-06
1.0716e-06
4.38047e-07
1.24468e-07
1.63949e-08
9.59412e-11
1.02957e-10
1.75931e-08
1.33625e-07
4.70669e-07
1.15274e-06
2.27904e-06
3.90887e-06
6.05763e-06
8.70144e-06
1.17871e-05
1.52436e-05
1.8992e-05
2.29533e-05
2.70541e-05
3.12283e-05
3.54191e-05
3.95786e-05
4.36668e-05
4.76512e-05
5.15053e-05
5.52078e-05
5.87417e-05
6.20934e-05
6.52518e-05
6.82085e-05
7.09565e-05
7.34904e-05
7.58058e-05
7.78995e-05
7.97687e-05
8.14116e-05
8.28265e-05
8.40125e-05
8.49688e-05
8.56951e-05
8.61914e-05
8.64574e-05
8.64942e-05
8.63022e-05
8.58823e-05
8.52356e-05
8.43633e-05
8.3267e-05
8.19485e-05
8.04099e-05
7.86537e-05
7.66824e-05
7.44994e-05
7.21083e-05
6.95135e-05
6.67203e-05
6.37346e-05
6.05641e-05
5.72178e-05
5.37068e-05
5.00446e-05
4.62479e-05
4.23374e-05
3.83383e-05
3.42816e-05
3.0205e-05
2.61537e-05
2.21812e-05
1.83494e-05
1.47275e-05
1.139e-05
8.41123e-06
5.85861e-06
3.78287e-06
2.2071e-06
1.11711e-06
4.56385e-07
1.29624e-07
1.70701e-08
9.98927e-11
1.06859e-10
1.82597e-08
1.38723e-07
4.88834e-07
1.19794e-06
2.37006e-06
4.06822e-06
6.30983e-06
9.07135e-06
1.22983e-05
1.5917e-05
1.98453e-05
2.40006e-05
2.83054e-05
3.26902e-05
3.70949e-05
4.14685e-05
4.57688e-05
4.9961e-05
5.40169e-05
5.79139e-05
6.16335e-05
6.51613e-05
6.84855e-05
7.15968e-05
7.44878e-05
7.71528e-05
7.9587e-05
8.1787e-05
8.37497e-05
8.54732e-05
8.69559e-05
8.81966e-05
8.91947e-05
8.99498e-05
9.0462e-05
9.0731e-05
9.07583e-05
9.05443e-05
9.00901e-05
8.93968e-05
8.84662e-05
8.72999e-05
8.59001e-05
8.42691e-05
8.24096e-05
8.03247e-05
7.8018e-05
7.54936e-05
7.27562e-05
6.98117e-05
6.66665e-05
6.3329e-05
5.98086e-05
5.61175e-05
5.227e-05
4.82839e-05
4.41811e-05
3.99884e-05
3.57385e-05
3.14711e-05
2.72337e-05
2.30825e-05
1.90821e-05
1.53047e-05
1.18277e-05
8.72784e-06
6.07456e-06
3.91944e-06
2.28525e-06
1.15599e-06
4.72041e-07
1.34025e-07
1.76464e-08
1.03267e-10
1.10281e-10
1.88444e-08
1.43196e-07
5.04789e-07
1.23767e-06
2.45017e-06
4.20858e-06
6.53217e-06
9.39767e-06
1.27495e-05
1.65117e-05
2.0599e-05
2.49257e-05
2.94108e-05
3.39817e-05
3.85752e-05
4.31378e-05
4.7625e-05
5.20002e-05
5.62337e-05
6.03014e-05
6.41839e-05
6.78657e-05
7.13346e-05
7.45806e-05
7.75959e-05
8.03743e-05
8.29109e-05
8.52018e-05
8.72442e-05
8.90357e-05
9.05748e-05
9.18603e-05
9.28916e-05
9.36684e-05
9.41908e-05
9.44587e-05
9.44738e-05
9.42366e-05
9.37483e-05
9.30105e-05
9.2025e-05
9.07937e-05
8.93191e-05
8.76039e-05
8.56511e-05
8.3464e-05
8.10467e-05
7.84037e-05
7.55401e-05
7.2462e-05
6.91768e-05
6.5693e-05
6.2021e-05
5.81733e-05
5.41653e-05
5.00157e-05
4.57474e-05
4.13885e-05
3.69732e-05
3.25429e-05
2.8147e-05
2.38438e-05
1.97004e-05
1.57914e-05
1.21964e-05
8.99439e-06
6.25624e-06
4.03429e-06
2.35093e-06
1.18864e-06
4.8519e-07
1.37721e-07
1.81301e-08
1.061e-10
1.13274e-10
1.93555e-08
1.4711e-07
5.18761e-07
1.2725e-06
2.52049e-06
4.33191e-06
6.72771e-06
9.68489e-06
1.31468e-05
1.70355e-05
2.12632e-05
2.5741e-05
3.0385e-05
3.51196e-05
3.9879e-05
4.46076e-05
4.92587e-05
5.37942e-05
5.81827e-05
6.23992e-05
6.64234e-05
7.02389e-05
7.38329e-05
7.71949e-05
8.03168e-05
8.31919e-05
8.58153e-05
8.81828e-05
9.02915e-05
9.21389e-05
9.37236e-05
9.50443e-05
9.61006e-05
9.68921e-05
9.74191e-05
9.76816e-05
9.76816e-05
9.74198e-05
9.68976e-05
9.61167e-05
9.50792e-05
9.37875e-05
9.22442e-05
9.04523e-05
8.84152e-05
8.61366e-05
8.36208e-05
8.08727e-05
7.7898e-05
7.47031e-05
7.12958e-05
6.76852e-05
6.38822e-05
5.99e-05
5.57546e-05
5.14656e-05
4.70567e-05
4.25572e-05
3.80023e-05
3.34349e-05
2.89061e-05
2.44759e-05
2.02132e-05
1.61945e-05
1.25015e-05
9.21475e-06
6.40633e-06
4.1291e-06
2.40512e-06
1.21557e-06
4.96029e-07
1.40766e-07
1.85288e-08
1.08436e-10
1.15889e-10
1.9802e-08
1.50531e-07
5.3099e-07
1.30303e-06
2.5822e-06
4.44029e-06
6.89973e-06
9.93774e-06
1.34967e-05
1.74971e-05
2.18485e-05
2.64594e-05
3.12431e-05
3.61215e-05
4.10266e-05
4.59004e-05
5.06947e-05
5.53697e-05
5.9893e-05
6.42384e-05
6.83848e-05
7.23153e-05
7.60163e-05
7.9477e-05
8.2689e-05
8.56453e-05
8.83409e-05
9.07714e-05
9.29338e-05
9.48257e-05
9.64456e-05
9.77924e-05
9.88655e-05
9.9665e-05
0.000100191
0.000100444
0.000100426
0.000100138
9.95812e-05
9.87583e-05
9.76714e-05
9.63231e-05
9.47164e-05
9.28546e-05
9.07413e-05
8.83808e-05
8.57775e-05
8.29369e-05
7.98649e-05
7.65685e-05
7.30558e-05
6.93362e-05
6.54214e-05
6.13249e-05
5.70634e-05
5.2657e-05
4.81305e-05
4.35137e-05
3.88431e-05
3.41625e-05
2.95242e-05
2.49897e-05
2.06294e-05
1.65213e-05
1.27486e-05
9.39301e-06
6.52763e-06
4.20567e-06
2.44885e-06
1.2373e-06
5.0477e-07
1.43222e-07
1.88501e-08
1.1032e-10
1.18179e-10
2.01931e-08
1.53531e-07
5.41726e-07
1.32988e-06
2.63654e-06
4.53586e-06
7.05158e-06
1.01611e-05
1.38061e-05
1.79051e-05
2.23658e-05
2.70941e-05
3.20009e-05
3.70058e-05
4.20384e-05
4.70392e-05
5.19582e-05
5.67544e-05
6.13943e-05
6.58507e-05
7.01018e-05
7.41301e-05
7.79216e-05
8.14653e-05
8.47522e-05
8.77755e-05
9.05296e-05
9.30104e-05
9.52148e-05
9.71404e-05
9.87856e-05
0.00010015
0.000101232
0.000102033
0.000102552
0.000102791
0.000102752
0.000102435
0.000101844
0.00010098
9.98452e-05
9.84436e-05
9.6778e-05
9.48521e-05
9.26699e-05
9.0236e-05
8.75552e-05
8.46333e-05
8.14766e-05
7.80924e-05
7.44892e-05
7.06771e-05
6.66677e-05
6.24754e-05
5.81171e-05
5.36138e-05
4.89904e-05
4.42778e-05
3.9513e-05
3.47408e-05
3.00145e-05
2.53964e-05
2.09583e-05
1.67791e-05
1.29432e-05
9.53326e-06
6.62298e-06
4.26581e-06
2.48319e-06
1.25435e-06
5.11626e-07
1.45147e-07
1.91021e-08
1.11799e-10
1.20199e-10
2.0538e-08
1.56179e-07
5.5122e-07
1.35366e-06
2.68476e-06
4.62078e-06
7.18665e-06
1.036e-05
1.40815e-05
1.82684e-05
2.28262e-05
2.76586e-05
3.26743e-05
3.77906e-05
4.29354e-05
4.80473e-05
5.3075e-05
5.79762e-05
6.27165e-05
6.72679e-05
7.16081e-05
7.5719e-05
7.95862e-05
8.31984e-05
8.65465e-05
8.96235e-05
9.24237e-05
9.4943e-05
9.71783e-05
9.91273e-05
0.000100789
0.000102161
0.000103245
0.000104041
0.000104548
0.000104768
0.000104705
0.000104358
0.00010373
0.000102825
0.000101644
0.000100192
9.84709e-05
9.64859e-05
9.4241e-05
9.17412e-05
8.89916e-05
8.59984e-05
8.27681e-05
7.93086e-05
7.56285e-05
7.17383e-05
6.76501e-05
6.33786e-05
5.89411e-05
5.43589e-05
4.96577e-05
4.48686e-05
4.00292e-05
3.5185e-05
3.03899e-05
2.5707e-05
2.12088e-05
1.69751e-05
1.30908e-05
9.63952e-06
6.69514e-06
4.31129e-06
2.50914e-06
1.26723e-06
5.16809e-07
1.46603e-07
1.92926e-08
1.12917e-10
1.22001e-10
2.08457e-08
1.58545e-07
5.59716e-07
1.37498e-06
2.72807e-06
4.69716e-06
7.30826e-06
1.05391e-05
1.43296e-05
1.85956e-05
2.32405e-05
2.81661e-05
3.32788e-05
3.84941e-05
4.37379e-05
4.89474e-05
5.407e-05
5.90624e-05
6.38892e-05
6.85218e-05
7.29372e-05
7.71171e-05
8.10468e-05
8.47145e-05
8.81113e-05
9.12299e-05
9.40647e-05
9.66116e-05
9.88675e-05
0.00010083
0.000102499
0.000103872
0.00010495
0.000105734
0.000106224
0.000106421
0.000106329
0.000105949
0.000105284
0.000104337
0.000103111
0.000101609
9.98358e-05
9.77958e-05
9.54935e-05
9.29341e-05
9.01233e-05
8.70674e-05
8.37734e-05
8.02494e-05
7.65044e-05
7.25492e-05
6.83962e-05
6.40603e-05
5.95594e-05
5.49148e-05
5.01526e-05
4.53043e-05
4.0408e-05
3.55093e-05
3.06627e-05
2.59318e-05
2.13894e-05
1.7116e-05
1.31967e-05
9.71559e-06
6.74674e-06
4.34379e-06
2.52769e-06
1.27644e-06
5.20514e-07
1.47644e-07
1.94289e-08
1.13719e-10
1.23636e-10
2.1125e-08
1.60695e-07
5.67452e-07
1.39443e-06
2.76766e-06
4.76706e-06
7.41965e-06
1.07032e-05
1.45569e-05
1.8895e-05
2.36194e-05
2.86294e-05
3.38297e-05
3.91338e-05
4.4466e-05
4.9762e-05
5.4968e-05
6.00397e-05
6.4941e-05
6.96428e-05
7.41215e-05
7.83585e-05
8.23388e-05
8.60506e-05
8.94847e-05
9.26339e-05
9.54927e-05
9.8057e-05
0.000100324
0.000102291
0.000103958
0.000105324
0.00010639
0.000107155
0.000107622
0.000107791
0.000107667
0.000107252
0.000106547
0.000105557
0.000104285
0.000102735
0.000100911
9.88195e-05
9.6464e-05
9.38503e-05
9.09846e-05
8.78734e-05
8.45242e-05
8.09452e-05
7.71459e-05
7.31372e-05
6.89318e-05
6.45448e-05
5.99943e-05
5.53019e-05
5.04939e-05
4.5602e-05
4.06643e-05
3.57269e-05
3.08444e-05
2.60804e-05
2.15081e-05
1.72081e-05
1.32657e-05
9.76499e-06
6.7802e-06
4.36487e-06
2.53972e-06
1.28242e-06
5.22925e-07
1.48322e-07
1.95178e-08
1.14243e-10
1.25152e-10
2.1384e-08
1.62692e-07
5.74652e-07
1.41257e-06
2.80464e-06
4.83246e-06
7.52393e-06
1.08569e-05
1.47696e-05
1.9175e-05
2.39729e-05
2.9061e-05
3.43417e-05
3.97267e-05
4.51388e-05
5.05124e-05
5.57924e-05
6.09338e-05
6.58997e-05
7.06605e-05
7.51922e-05
7.94758e-05
8.34964e-05
8.72419e-05
9.07032e-05
9.3873e-05
9.67461e-05
9.93183e-05
0.000101587
0.000103551
0.000105208
0.000106559
0.000107604
0.000108345
0.000108783
0.000108919
0.000108759
0.000108304
0.000107557
0.000106522
0.000105203
0.000103606
0.000101733
9.95916e-05
9.71859e-05
9.45222e-05
9.16068e-05
8.84466e-05
8.50494e-05
8.14237e-05
7.75792e-05
7.3527e-05
6.928e-05
6.48537e-05
6.0266e-05
5.55388e-05
5.06984e-05
4.57766e-05
4.08116e-05
3.58495e-05
3.09447e-05
2.61612e-05
2.15717e-05
1.72568e-05
1.33019e-05
9.79079e-06
6.79765e-06
4.37587e-06
2.54603e-06
1.28558e-06
5.24203e-07
1.48683e-07
1.95653e-08
1.14525e-10
1.26595e-10
2.16306e-08
1.64596e-07
5.81529e-07
1.42993e-06
2.84009e-06
4.89522e-06
7.62407e-06
1.10044e-05
1.49736e-05
1.94432e-05
2.4311e-05
2.94727e-05
3.48287e-05
4.0289e-05
4.57748e-05
5.12191e-05
5.65658e-05
6.17691e-05
6.67914e-05
7.16026e-05
7.61786e-05
8.05e-05
8.45517e-05
8.83218e-05
9.18011e-05
9.49824e-05
9.78607e-05
0.000100432
0.000102694
0.000104645
0.000106285
0.000107613
0.000108632
0.000109341
0.000109743
0.000109842
0.000109641
0.000109142
0.000108349
0.000107268
0.000105901
0.000104255
0.000102333
0.000100143
9.76895e-05
9.49788e-05
9.20178e-05
8.88137e-05
8.53745e-05
8.17091e-05
7.78272e-05
7.37401e-05
6.9461e-05
6.50053e-05
6.03913e-05
5.56408e-05
5.07801e-05
4.58409e-05
4.08614e-05
3.58874e-05
3.0973e-05
2.61819e-05
2.15866e-05
1.72673e-05
1.33093e-05
9.79586e-06
6.80106e-06
4.37806e-06
2.54733e-06
1.28626e-06
5.24493e-07
1.48768e-07
1.95768e-08
1.14595e-10
1.28007e-10
2.18721e-08
1.66463e-07
5.88287e-07
1.44702e-06
2.87504e-06
4.95715e-06
7.72291e-06
1.11499e-05
1.51747e-05
1.9707e-05
2.4643e-05
2.98759e-05
3.53043e-05
4.08362e-05
4.63914e-05
5.19015e-05
5.73096e-05
6.25687e-05
6.7641e-05
7.24957e-05
7.71085e-05
8.146e-05
8.55349e-05
8.93214e-05
9.28103e-05
9.59948e-05
9.88698e-05
0.000101432
0.000103679
0.000105609
0.000107223
0.000108522
0.000109506
0.000110177
0.000110537
0.000110592
0.000110344
0.000109797
0.000108956
0.000107824
0.000106407
0.00010471
0.00010274
0.000100501
9.80005e-05
9.52449e-05
9.22414e-05
8.89973e-05
8.5521e-05
8.18214e-05
7.79086e-05
7.37943e-05
6.94917e-05
6.50163e-05
6.03861e-05
5.5623e-05
5.0753e-05
4.58077e-05
4.08249e-05
3.585e-05
3.0937e-05
2.6149e-05
2.1558e-05
1.72438e-05
1.32909e-05
9.78249e-06
6.792e-06
4.37245e-06
2.54422e-06
1.28477e-06
5.23914e-07
1.48611e-07
1.95566e-08
1.1448e-10
1.29428e-10
2.21153e-08
1.68347e-07
5.95115e-07
1.46432e-06
2.91047e-06
5.01997e-06
7.82316e-06
1.12975e-05
1.53783e-05
1.99738e-05
2.49777e-05
3.02814e-05
3.57811e-05
4.13831e-05
4.70053e-05
5.25782e-05
5.80438e-05
6.33545e-05
6.84716e-05
7.33643e-05
7.80079e-05
8.23829e-05
8.6474e-05
9.02695e-05
9.37605e-05
9.69402e-05
9.98039e-05
0.000102348
0.000104572
0.000106474
0.000108054
0.000109315
0.000110257
0.000110883
0.000111194
0.000111199
0.000110898
0.000110298
0.000109402
0.000108216
0.000106745
0.000104996
0.000102975
0.000100687
9.81399e-05
9.53406e-05
9.22966e-05
8.90154e-05
8.55059e-05
8.17773e-05
7.784e-05
7.37055e-05
6.93869e-05
6.48997e-05
6.02621e-05
5.54955e-05
5.06259e-05
4.56845e-05
4.07086e-05
3.57434e-05
3.0842e-05
2.60671e-05
2.14898e-05
1.71893e-05
1.32493e-05
9.75248e-06
6.77173e-06
4.35984e-06
2.53715e-06
1.28133e-06
5.22561e-07
1.48237e-07
1.95083e-08
1.142e-10
1.30897e-10
2.23668e-08
1.70297e-07
6.02196e-07
1.48229e-06
2.9473e-06
5.08532e-06
7.92747e-06
1.14509e-05
1.55898e-05
2.02502e-05
2.5324e-05
3.06997e-05
3.62715e-05
4.19436e-05
4.76323e-05
5.32667e-05
5.87877e-05
6.41469e-05
6.93053e-05
7.42316e-05
7.89009e-05
8.32937e-05
8.73948e-05
9.11926e-05
9.46784e-05
9.78457e-05
0.00010069
0.000103209
0.000105401
0.000107266
0.000108805
0.000110019
0.00011091
0.000111483
0.000111738
0.000111685
0.000111326
0.000110665
0.00010971
0.000108465
0.000106936
0.000105131
0.000103056
0.000100718
9.81235e-05
9.52809e-05
9.21974e-05
8.88817e-05
8.53424e-05
8.15891e-05
7.7632e-05
7.34829e-05
6.91549e-05
6.46634e-05
6.00264e-05
5.52651e-05
5.04051e-05
4.54772e-05
4.05181e-05
3.55723e-05
3.06923e-05
2.59397e-05
2.1385e-05
1.71062e-05
1.31863e-05
9.70716e-06
6.74119e-06
4.34083e-06
2.52649e-06
1.27614e-06
5.20507e-07
1.47669e-07
1.94345e-08
1.13772e-10
1.3245e-10
2.26329e-08
1.72363e-07
6.09708e-07
1.50137e-06
2.98645e-06
5.15483e-06
8.03838e-06
1.16139e-05
1.58142e-05
2.05432e-05
2.56901e-05
3.1141e-05
3.67874e-05
4.25314e-05
4.82876e-05
5.39836e-05
5.95592e-05
6.49654e-05
7.01625e-05
7.51189e-05
7.98097e-05
8.42154e-05
8.83208e-05
9.21145e-05
9.55881e-05
9.87357e-05
0.000101553
0.000104038
0.00010619
0.000108009
0.000109497
0.000110655
0.000111488
0.000111998
0.000112189
0.00011207
0.000111644
0.000110917
0.000109895
0.000108585
0.000106994
0.000105128
0.000102996
0.000100604
9.79614e-05
9.50747e-05
9.19526e-05
8.86037e-05
8.5037e-05
8.12622e-05
7.72898e-05
7.31315e-05
6.88004e-05
6.43117e-05
5.96831e-05
5.49355e-05
5.00941e-05
4.51889e-05
4.02561e-05
3.53392e-05
3.04899e-05
2.57687e-05
2.1245e-05
1.69958e-05
1.31029e-05
9.64736e-06
6.70094e-06
4.3158e-06
2.51244e-06
1.26929e-06
5.17798e-07
1.46918e-07
1.93371e-08
1.13204e-10
1.34124e-10
2.29197e-08
1.74591e-07
6.17822e-07
1.52201e-06
3.02883e-06
5.23008e-06
8.15845e-06
1.17903e-05
1.60567e-05
2.08592e-05
2.60843e-05
3.1615e-05
3.73402e-05
4.31596e-05
4.89857e-05
5.47448e-05
6.03756e-05
6.58282e-05
7.10624e-05
7.60464e-05
8.07551e-05
8.5169e-05
8.92733e-05
9.30567e-05
9.65112e-05
9.96313e-05
0.000102413
0.000104856
0.000106958
0.000108722
0.000110149
0.000111242
0.000112006
0.000112443
0.000112561
0.000112367
0.000111865
0.000111063
0.000109967
0.000108585
0.000106924
0.000104993
0.000102799
0.000100351
9.76568e-05
9.47247e-05
9.15636e-05
8.81824e-05
8.45902e-05
8.07971e-05
7.68135e-05
7.26511e-05
6.8323e-05
6.38441e-05
5.92317e-05
5.45063e-05
4.96924e-05
4.48194e-05
3.99225e-05
3.50442e-05
3.02351e-05
2.55544e-05
2.10703e-05
1.68583e-05
1.29994e-05
9.57329e-06
6.65117e-06
4.28489e-06
2.4951e-06
1.26083e-06
5.14454e-07
1.45991e-07
1.92167e-08
1.12502e-10
1.35953e-10
2.32332e-08
1.7703e-07
6.26711e-07
1.54464e-06
3.07534e-06
5.31268e-06
8.29022e-06
1.19837e-05
1.63224e-05
2.1205e-05
2.65148e-05
3.21316e-05
3.79413e-05
4.38409e-05
4.97409e-05
5.55658e-05
6.12533e-05
6.67526e-05
7.20231e-05
7.70325e-05
8.17559e-05
8.61737e-05
9.02714e-05
9.40381e-05
9.74662e-05
0.000100551
0.000103288
0.000105679
0.000107722
0.000109419
0.000110775
0.000111792
0.000112475
0.000112828
0.000112862
0.000112582
0.000111994
0.000111106
0.000109927
0.000108465
0.000106728
0.000104724
0.000102463
9.99541e-05
9.72053e-05
9.42258e-05
9.10248e-05
8.76116e-05
8.39957e-05
8.01871e-05
7.61964e-05
7.20353e-05
6.77166e-05
6.32548e-05
5.86668e-05
5.39725e-05
4.91956e-05
4.43646e-05
3.95137e-05
3.46842e-05
2.99253e-05
2.52948e-05
2.08593e-05
1.66929e-05
1.28751e-05
9.48452e-06
6.59163e-06
4.24796e-06
2.47441e-06
1.25075e-06
5.10467e-07
1.44885e-07
1.90732e-08
1.11663e-10
1.37972e-10
2.35795e-08
1.79727e-07
6.36549e-07
1.56971e-06
3.12689e-06
5.40427e-06
8.43629e-06
1.2198e-05
1.66164e-05
2.15872e-05
2.69899e-05
3.27006e-05
3.86019e-05
4.45879e-05
5.05668e-05
5.64614e-05
6.2208e-05
6.77549e-05
7.30612e-05
7.80943e-05
8.28291e-05
8.72463e-05
9.13316e-05
9.50747e-05
9.84682e-05
0.000101508
0.000104191
0.000106519
0.000108491
0.00011011
0.000111382
0.00011231
0.0001129
0.000113155
0.000113092
0.000112714
0.000112028
0.000111044
0.000109771
0.000108218
0.000106395
0.000104312
0.000101977
9.94012e-05
9.65937e-05
9.35641e-05
9.0322e-05
8.6877e-05
8.3239e-05
7.9418e-05
7.54247e-05
7.12706e-05
6.69681e-05
6.25314e-05
5.79769e-05
5.33236e-05
4.85942e-05
4.38162e-05
3.90226e-05
3.42532e-05
2.95555e-05
2.49858e-05
2.06088e-05
1.6497e-05
1.27282e-05