/*--------------------------------*- C++ -*----------------------------------*\
  =========                 |
  \\      /  F ield         | OpenFOAM: The Open Source CFD Toolbox
   \\    /   O peration     | Website:  https://openfoam.org
    \\  /    A nd           | Version:  12
     \\/     M anipulation  |
\*---------------------------------------------------------------------------*/
FoamFile
{
    format      ascii;
    class       volScalarField;
    location    "1";
    object      epsilon;
}
// * * * * * * * * * * * * * * * * * * * * * * * * * * * * * * * * * * * * * //

dimensions      [0 2 -3 0 0 0 0];

internalField   nonuniform List<scalar> 
18225
(
1.20273e-05
8.13297e-05
0.000180726
0.00029845
0.000428692
0.000567531
0.000711916
0.000859312
0.00100756
0.00115482
0.0012995
0.00144028
0.00157607
0.00170601
0.00182941
0.0019458
0.00205486
0.00215644
0.00225051
0.00233717
0.0024166
0.00248908
0.00255495
0.00261459
0.00266844
0.00271693
0.00276051
0.00279964
0.00283475
0.00286625
0.00289452
0.0029199
0.00294269
0.00296316
0.00298149
0.00299785
0.00301234
0.00302503
0.00303593
0.00304502
0.00305225
0.00305756
0.00306088
0.00306217
0.00306141
0.00305866
0.00305402
0.00304777
0.00304027
0.00303211
0.00302409
0.00301723
0.00301288
0.00301266
0.00301856
0.00303294
0.00305851
0.00309831
0.00315572
0.00323435
0.00333797
0.00347042
0.00363545
0.00383657
0.00407692
0.00435906
0.00468492
0.00505564
0.00547157
0.00593228
0.00643662
0.00698282
0.00756871
0.00819183
0.00884962
0.00953954
0.0102592
0.0110065
0.0117794
0.0125761
0.013395
0.0142345
0.015093
0.0159687
0.0168598
0.0177638
0.0186782
0.0196
0.0205253
0.02145
0.0223691
0.0232767
0.0241661
0.02503
0.0258596
0.0266455
0.0273773
0.0280433
0.0286311
0.0291268
0.0295159
0.0297745
0.0298909
0.0298983
0.0297442
0.0294163
0.02891
0.0282237
0.0273586
0.0263202
0.0251189
0.02377
0.022294
0.0207159
0.0190644
0.0173703
0.0156656
0.0139814
0.0123468
0.0107872
0.0093234
0.00797096
0.00673992
0.00563494
0.00465588
0.00379844
0.00305512
0.00241614
0.00187026
0.00140586
0.00101187
0.00067889
0.000400761
0.000177722
2.62051e-05
2.27182e-05
4.42044e-05
8.84724e-05
0.000142964
0.000203842
0.000268978
0.000336836
0.000406181
0.000475977
0.00054534
0.000613518
0.000679884
0.000743918
0.000805206
0.00086343
0.00091836
0.000969845
0.00101781
0.00106224
0.00110318
0.00114071
0.00117497
0.0012061
0.00123431
0.00125977
0.00128271
0.00130334
0.00132186
0.00133847
0.00135339
0.00136677
0.00137879
0.00138958
0.00139927
0.00140795
0.0014157
0.00142257
0.00142857
0.00143374
0.00143804
0.00144147
0.001444
0.00144559
0.00144623
0.00144591
0.00144466
0.00144254
0.00143968
0.00143625
0.00143254
0.00142893
0.00142592
0.00142414
0.00142438
0.00142757
0.00143485
0.0014475
0.00146698
0.00149489
0.00153295
0.00158295
0.00164673
0.00172606
0.00182262
0.0019379
0.00207315
0.00222927
0.00240684
0.00260605
0.00282671
0.0030683
0.00333003
0.0036109
0.00390976
0.00422542
0.00455671
0.00490252
0.00526182
0.00563366
0.0060172
0.00641164
0.00681617
0.00722998
0.00765217
0.00808174
0.00851752
0.00895814
0.00940198
0.00984718
0.0102915
0.0107325
0.0111671
0.0115921
0.0120036
0.0123974
0.0127689
0.013113
0.0134241
0.0136961
0.0139225
0.0140965
0.0142073
0.0142512
0.0142404
0.0141528
0.013983
0.0137291
0.0133909
0.0129693
0.0124675
0.0118906
0.0112462
0.0105439
0.00979541
0.00901402
0.008214
0.00740998
0.00661625
0.0058461
0.00511119
0.0044211
0.00378302
0.00320163
0.00267919
0.00221572
0.00180932
0.00145659
0.00115307
0.000893584
0.000672788
0.000485636
0.000327987
0.000197637
9.71775e-05
4.95127e-05
4.82018e-05
4.30154e-05
6.81179e-05
0.000103408
0.000144161
0.000188311
0.000234579
0.000282018
0.000329865
0.000377484
0.000424343
0.000469996
0.000514078
0.000556297
0.000596427
0.000634306
0.000669827
0.000702933
0.000733612
0.000761889
0.000787825
0.000811504
0.000833036
0.000852546
0.000870168
0.000886048
0.000900331
0.000913164
0.000924687
0.000935034
0.000944329
0.000952687
0.000960205
0.000966967
0.000973044
0.000978486
0.000983333
0.000987604
0.00099131
0.000994446
0.000997001
0.000998958
0.0010003
0.00100101
0.0010011
0.00100058
0.000999486
0.000997917
0.000995998
0.000993922
0.00099195
0.000990427
0.000989794
0.000990592
0.000993481
0.00099924
0.00100877
0.00102309
0.00104333
0.00107071
0.00110649
0.00115198
0.00120846
0.00127717
0.00135919
0.00145547
0.00156672
0.00169344
0.00183585
0.00199391
0.00216735
0.0023557
0.00255832
0.00277448
0.00300339
0.00324424
0.00349626
0.00375869
0.00403085
0.00431206
0.00460167
0.00489901
0.00520336
0.00551391
0.00582977
0.00614987
0.00647299
0.00679774
0.00712247
0.00744531
0.00776416
0.00807661
0.00838
0.00867138
0.0089475
0.00920488
0.00943975
0.00964815
0.00982583
0.00996831
0.0100707
0.0101255
0.0101353
0.010102
0.0100144
0.00986944
0.00966662
0.00940639
0.00909026
0.00872095
0.00830256
0.00784061
0.00734195
0.00681459
0.00626744
0.00570992
0.00515163
0.00460187
0.00406925
0.00356133
0.00308434
0.00264295
0.00224026
0.00187779
0.00155561
0.00127252
0.00102636
0.000814204
0.0006327
0.000478402
0.000348173
0.000239771
0.000153129
9.46874e-05
0.000105127
7.87156e-05
5.14432e-05
6.42781e-05
8.89599e-05
0.000119389
0.000153164
0.000188968
0.000225913
0.000263324
0.00030066
0.000337473
0.000373396
0.000408128
0.000441428
0.000473112
0.000503043
0.000531132
0.000557329
0.000581621
0.000604025
0.000624585
0.000643367
0.000660456
0.000675948
0.000689951
0.000702577
0.000713943
0.000724164
0.000733352
0.000741615
0.000749052
0.000755755
0.000761803
0.000767267
0.000772202
0.000776653
0.000780654
0.000784224
0.000787374
0.000790106
0.000792413
0.000794285
0.000795712
0.000796687
0.000797212
0.000797305
0.000797003
0.000796375
0.000795524
0.000794605
0.000793827
0.000793466
0.000793874
0.000795488
0.000798841
0.000804564
0.000813394
0.000826166
0.000843811
0.000867339
0.000897824
0.000936373
0.000984092
0.00104205
0.00111124
0.00119252
0.00128659
0.00139399
0.001515
0.00164974
0.00179809
0.00195977
0.00213435
0.00232128
0.00251994
0.00272968
0.00294984
0.00317972
0.00341867
0.00366598
0.00392096
0.00418285
0.00445081
0.00472391
0.00500109
0.00528116
0.00556276
0.00584434
0.00612421
0.00640045
0.00667097
0.00693348
0.0071855
0.00742439
0.00764734
0.00785137
0.00803343
0.00819035
0.0083189
0.00841547
0.00847452
0.00849575
0.00847971
0.00842484
0.00832554
0.00818007
0.00798851
0.0077518
0.00747169
0.00715082
0.00679285
0.00640247
0.0059853
0.00554776
0.00509688
0.00464003
0.00418459
0.00373768
0.00330584
0.00289476
0.0025091
0.00215234
0.00182678
0.0015335
0.00127252
0.00104291
0.000843005
0.000670599
0.000523194
0.000398309
0.000293868
0.000208898
0.000145172
0.000113086
0.000171721
0.000113247
6.44758e-05
6.74643e-05
8.45474e-05
0.000108108
0.000135288
0.000164624
0.000195196
0.000226345
0.00025756
0.000288432
0.000318629
0.00034788
0.00037597
0.000402733
0.000428046
0.000451827
0.000474028
0.000494632
0.000513652
0.00053112
0.00054709
0.000561632
0.000574826
0.000586763
0.000597537
0.000607248
0.000615993
0.000623868
0.000630966
0.000637373
0.000643169
0.000648423
0.000653197
0.000657543
0.000661501
0.000665104
0.000668372
0.000671319
0.00067395
0.000676264
0.000678257
0.000679925
0.000681265
0.000682285
0.000683001
0.000683449
0.000683691
0.00068382
0.000683969
0.000684322
0.00068512
0.000686672
0.000689363
0.000693664
0.000700138
0.000709445
0.000722339
0.000739668
0.000762363
0.000791423
0.000827891
0.000872825
0.00092727
0.00099221
0.00106854
0.00115701
0.00125822
0.00137258
0.0015003
0.0016414
0.00179572
0.00196292
0.00214256
0.00233407
0.00253682
0.00275012
0.00297322
0.00320533
0.00344562
0.00369317
0.00394702
0.00420608
0.00446917
0.00473495
0.00500197
0.00526865
0.00553323
0.00579385
0.00604852
0.00629515
0.00653152
0.00675534
0.00696423
0.00715578
0.0073275
0.00747691
0.00760156
0.00769909
0.00776533
0.00779565
0.00779691
0.00776219
0.00769222
0.00758331
0.00743428
0.00724534
0.00701743
0.00675214
0.00645183
0.00611974
0.00576003
0.00537767
0.0049784
0.00456849
0.0041545
0.00374304
0.00334041
0.00295238
0.0025839
0.00223896
0.00192049
0.00163031
0.00136924
0.00113712
0.000933058
0.000755533
0.000602649
0.000472331
0.000362651
0.000272248
0.000201144
0.000152769
0.000141457
0.000246971
0.000151062
8.03495e-05
7.45961e-05
8.55002e-05
0.00010381
0.000126168
0.00015092
0.000177072
0.000203943
0.000231025
0.00025792
0.000284309
0.000309937
0.0003346
0.000358139
0.000380439
0.000401417
0.000421027
0.000439248
0.000456085
0.000471565
0.000485732
0.000498646
0.000510376
0.000521001
0.000530605
0.000539275
0.000547098
0.000554161
0.000560546
0.000566332
0.000571591
0.000576387
0.000580779
0.000584814
0.000588534
0.00059197
0.000595146
0.000598078
0.000600775
0.000603242
0.00060548
0.000607491
0.000609277
0.00061085
0.000612231
0.000613455
0.000614585
0.000615707
0.000616948
0.000618481
0.000620532
0.00062339
0.000627418
0.000633063
0.000640861
0.000651445
0.000665546
0.000683992
0.000707701
0.00073767
0.000774951
0.000820629
0.000875787
0.000941472
0.00101865
0.00110816
0.0012107
0.00132677
0.00145668
0.00160052
0.0017582
0.00192941
0.00211369
0.00231045
0.00251896
0.00273837
0.00296775
0.00320607
0.00345214
0.00370484
0.00396287
0.00422484
0.00448921
0.00475439
0.00501863
0.00528014
0.00553702
0.00578722
0.00602881
0.00625987
0.00647843
0.00668252
0.00687021
0.00703961
0.00718879
0.00731589
0.00741916
0.00749706
0.00754368
0.00755981
0.00755047
0.00750744
0.00743192
0.00732102
0.00717336
0.00698882
0.00676783
0.00651145
0.00622152
0.00590077
0.00555291
0.00518259
0.00479532
0.00439725
0.00399495
0.00359508
0.00320403
0.00282765
0.00247092
0.0021378
0.0018311
0.0015525
0.00130261
0.00108115
0.000887098
0.000718861
0.000574564
0.000452295
0.000350397
0.000267995
0.000205918
0.000169145
0.000175908
0.000329138
0.000191665
9.82436e-05
8.43045e-05
8.98277e-05
0.000103787
0.000122308
0.00014352
0.000166339
0.000190041
0.000214102
0.000238122
0.000261784
0.000284835
0.000307075
0.00032835
0.000348542
0.00036757
0.000385384
0.000401959
0.000417297
0.000431416
0.000444354
0.000456162
0.000466904
0.000476649
0.000485472
0.000493455
0.000500676
0.000507215
0.00051315
0.000518553
0.000523492
0.000528031
0.000532223
0.000536118
0.000539756
0.00054317
0.000546387
0.000549427
0.000552302
0.000555023
0.000557598
0.000560032
0.000562336
0.000564525
0.000566625
0.000568678
0.000570745
0.000572919
0.000575324
0.000578131
0.000581566
0.000585916
0.000591542
0.000598889
0.000608498
0.000621008
0.000637162
0.000657812
0.000683909
0.000716495
0.000756679
0.000805618
0.00086448
0.000934404
0.00101646
0.00111157
0.00122049
0.00134384
0.00148197
0.00163501
0.00180282
0.00198507
0.00218117
0.00239038
0.00261178
0.00284424
0.00308653
0.0033373
0.00359511
0.00385835
0.00412532
0.00439425
0.00466328
0.00493053
0.00519409
0.00545206
0.00570257
0.00594388
0.00617424
0.00639197
0.00659553
0.00678347
0.00695447
0.00710729
0.00724058
0.00735314
0.00744377
0.00751144
0.00755024
0.00756256
0.00755236
0.00751125
0.00744001
0.00733587
0.00719673
0.00702172
0.0068104
0.00656301
0.00628059
0.00596526
0.00562025
0.00525
0.00486002
0.00445676
0.00404726
0.00363884
0.00323861
0.00285312
0.00248797
0.00214758
0.00183507
0.00155222
0.00129959
0.00107672
0.000882381
0.00071479
0.000571934
0.000451854
0.000352993
0.000274788
0.000218767
0.000191294
0.00021462
0.000416988
0.000234703
0.00011771
9.58628e-05
9.64995e-05
0.000106673
0.00012197
0.000140294
0.000160452
0.000181673
0.000203406
0.000225238
0.000246845
0.000267974
0.000288422
0.000308032
0.000326686
0.0003443
0.000360818
0.000376214
0.000390481
0.000403634
0.000415706
0.00042674
0.000436794
0.000445932
0.000454225
0.000461745
0.000468569
0.000474771
0.000480426
0.000485602
0.000490367
0.000494781
0.000498899
0.000502769
0.000506434
0.000509928
0.000513283
0.000516521
0.00051966
0.000522717
0.000525704
0.000528633
0.000531522
0.000534392
0.000537275
0.00054022
0.000543296
0.000546598
0.000550261
0.000554461
0.000559433
0.000565474
0.000572959
0.000582353
0.000594218
0.00060923
0.000628171
0.000651947
0.000681576
0.000718175
0.000762926
0.000817103
0.000881981
0.00095881
0.00104877
0.00115293
0.00127213
0.00140701
0.00155791
0.00172493
0.00190784
0.00210614
0.00231903
0.00254544
0.00278409
0.00303354
0.00329213
0.00355807
0.00382947
0.00410431
0.00438049
0.00465592
0.00492851
0.00519624
0.00545716
0.00570949
0.00595161
0.0061821
0.00639968
0.0066033
0.00679208
0.00696526
0.00712223
0.00726234
0.00738513
0.00748995
0.00757604
0.00764245
0.00768532
0.00770338
0.00770214
0.00767322
0.00761611
0.00752778
0.00740503
0.00724592
0.00704891
0.00681316
0.00653878
0.00622712
0.00588092
0.00550439
0.00510319
0.00468423
0.00425534
0.00382484
0.00340101
0.00299159
0.00260329
0.00224143
0.00190978
0.00161053
0.00134436
0.00111074
0.000908194
0.000734665
0.000587854
0.000465592
0.00036629
0.000289565
0.000237448
0.000217642
0.000256596
0.000509622
0.000279919
0.000138476
0.000108839
0.000104911
0.000111687
0.000124172
0.000140043
0.000157996
0.000177198
0.000197067
0.000217172
0.000237179
0.000256826
0.000275906
0.000294258
0.000311759
0.00032832
0.000343883
0.000358413
0.000371902
0.000384359
0.00039581
0.000406296
0.000415869
0.000424587
0.000432519
0.000439733
0.000446301
0.000452297
0.000457791
0.000462852
0.000467546
0.000471931
0.000476065
0.000479997
0.000483772
0.000487427
0.000490996
0.000494506
0.000497982
0.000501443
0.00050491
0.000508401
0.000511941
0.000515558
0.000519293
0.000523203
0.000527366
0.000531889
0.000536918
0.000542644
0.000549317
0.000557259
0.000566869
0.000578646
0.000593197
0.000611241
0.000633624
0.000661334
0.000695482
0.000737308
0.00078814
0.000849349
0.000922337
0.00100847
0.00110902
0.00122511
0.00135766
0.00150727
0.00167425
0.00185855
0.00205975
0.00227707
0.00250937
0.0027552
0.00301283
0.00328033
0.00355554
0.00383619
0.00411991
0.00440427
0.00468688
0.00496542
0.00523773
0.00550184
0.00575603
0.00599885
0.00622917
0.00644617
0.00664929
0.00683823
0.00701291
0.00717336
0.0073197
0.007452
0.00757028
0.00767429
0.00776346
0.00783674
0.00789211
0.00792742
0.0079418
0.00793373
0.00789887
0.00783384
0.0077342
0.00759673
0.00741867
0.00719797
0.00693371
0.00662638
0.00627811
0.00589283
0.00547631
0.00503595
0.00458045
0.00411935
0.00366233
0.00321866
0.00279651
0.00240253
0.00204149
0.00171628
0.00142793
0.00117597
0.000958728
0.000773839
0.000618639
0.000490646
0.000388084
0.00031061
0.000260682
0.000247278
0.00030123
0.000606378
0.000327115
0.000160358
0.000122957
0.000114678
0.000118333
0.000128304
0.000142035
0.000158105
0.000175618
0.000193954
0.000212661
0.000231391
0.000249871
0.000267887
0.00028527
0.000301892
0.00031766
0.000332508
0.0003464
0.000359319
0.000371272
0.00038228
0.00039238
0.000401619
0.000410054
0.000417748
0.000424768
0.000431186
0.000437071
0.000442494
0.000447523
0.000452223
0.000456655
0.000460877
0.00046494
0.000468891
0.000472772
0.000476619
0.000480466
0.000484341
0.000488271
0.000492281
0.000496398
0.000500653
0.000505086
0.000509745
0.000514698
0.000520035
0.00052588
0.000532393
0.000539787
0.000548338
0.000558393
0.000570387
0.000584871
0.00060251
0.000624111
0.000650611
0.000683089
0.000722767
0.000770992
0.000829231
0.000899004
0.000981842
0.00107923
0.00119252
0.00132288
0.00147121
0.00163805
0.00182355
0.00202742
0.00224893
0.00248691
0.00273977
0.00300554
0.00328195
0.00356651
0.00385653
0.00414924
0.00444184
0.00473161
0.00501598
0.00529262
0.0055595
0.00581495
0.00605772
0.00628697
0.00650228
0.00670363
0.00689129
0.00706583
0.00722796
0.00737848
0.00751814
0.00764755
0.00776707
0.00787665
0.00797577
0.00806328
0.00813736
0.00819613
0.00823621
0.00825283
0.00824606
0.00820973
0.00813822
0.008027
0.00787201
0.00766993
0.00741877
0.00711805
0.00676917
0.00637563
0.00594314
0.00547948
0.00499415
0.00449789
0.00400192
0.00351722
0.00305372
0.0026197
0.00222132
0.00186246
0.0015448
0.00126808
0.00103058
0.000829636
0.00066218
0.000525342
0.000417059
0.000336919
0.000287711
0.000279651
0.000348135
0.000706767
0.00037613
0.000183228
0.000138026
0.00012554
0.000126277
0.000133957
0.000145785
0.000160213
0.000176281
0.000193333
0.000210888
0.000228581
0.000246128
0.000263304
0.000279934
0.000295883
0.00031105
0.000325366
0.000338786
0.000351292
0.000362885
0.000373582
0.000383416
0.000392432
0.000400685
0.000408235
0.000415148
0.000421494
0.000427342
0.000432763
0.000437825
0.000442594
0.000447133
0.0004515
0.000455752
0.000459936
0.000464099
0.000468282
0.000472523
0.000476855
0.000481312
0.000485926
0.000490731
0.000495768
0.000501085
0.000506742
0.000512821
0.000519427
0.000526698
0.000534816
0.000544022
0.000554623
0.000567015
0.000581688
0.000599247
0.000620428
0.000646113
0.000677349
0.000715335
0.000761425
0.000817112
0.000884002
0.000963756
0.00105803
0.00116841
0.0012963
0.00144287
0.00160891
0.00179483
0.0020005
0.0022253
0.00246806
0.00272709
0.00300024
0.00328495
0.00357833
0.00387729
0.00417863
0.00447915
0.00477576
0.00506559
0.00534611
0.00561519
0.00587121
0.00611306
0.0063402
0.00655259
0.00675069
0.00693535
0.00710775
0.00726925
0.0074213
0.0075653
0.00770246
0.0078337
0.00795955
0.00807998
0.00819433
0.00830126
0.00839872
0.00848414
0.0085541
0.00860324
0.00862491
0.0086205
0.00858044
0.00849886
0.00837045
0.00819058
0.00795615
0.00766562
0.0073195
0.00692064
0.00647443
0.00598877
0.00547375
0.00494117
0.00440374
0.00387424
0.00336455
0.00288486
0.00244305
0.00204437
0.0016914
0.00138439
0.00112171
0.000900473
0.000717247
0.000568717
0.000452456
0.000367895
0.000318072
0.000314416
0.000397062
0.000810448
0.000426834
0.00020699
0.000153913
0.000137315
0.000135281
0.000140847
0.000150952
0.000163926
0.000178741
0.000194698
0.00021129
0.000228132
0.000244927
0.000261439
0.000277482
0.000292915
0.00030763
0.000321551
0.00033463
0.000346842
0.000358185
0.000368673
0.000378335
0.000387215
0.000395364
0.000402842
0.000409715
0.00041605
0.00042192
0.000427393
0.000432541
0.00043743
0.000442125
0.000446689
0.000451177
0.000455644
0.00046014
0.00046471
0.000469397
0.00047424
0.00047928
0.000484556
0.000490112
0.000495995
0.000502265
0.000508996
0.000516282
0.000524249
0.00053306
0.000542924
0.000554114
0.000566975
0.000581944
0.000599575
0.000620546
0.00064568
0.000675963
0.000712556
0.000756792
0.000810171
0.000874336
0.00095104
0.00104208
0.00114922
0.00127411
0.00141817
0.00158247
0.00176767
0.00197389
0.00220064
0.00244684
0.00271076
0.0029901
0.00328204
0.00358335
0.00389053
0.00419993
0.0045079
0.00481096
0.00510588
0.00538989
0.00566073
0.00591677
0.00615702
0.00638117
0.00658955
0.00678305
0.00696306
0.00713132
0.00728978
0.00744051
0.00758548
0.00772649
0.007865
0.00800203
0.00813808
0.00827296
0.00840582
0.008535
0.00865812
0.008772
0.00887261
0.00895499
0.00901209
0.00903678
0.00902993
0.00898035
0.00888153
0.00872745
0.00851392
0.00823825
0.00789987
0.00750071
0.00704551
0.00654192
0.00600029
0.00543319
0.00485467
0.00427924
0.00372086
0.00319186
0.00270215
0.00225869
0.00186536
0.00152319
0.00123087
0.000985446
0.000783151
0.00062023
0.000493842
0.000403188
0.000351489
0.000351367
0.000447858
0.000917207
0.000479118
0.000231568
0.000170519
0.000149865
0.000145173
0.000148762
0.000157288
0.00016896
0.000182674
0.000197688
0.000213467
0.000229606
0.000245792
0.000261777
0.000277366
0.000292407
0.000306788
0.000320424
0.000333263
0.000345276
0.000356456
0.000366814
0.000376378
0.000385188
0.000393295
0.000400759
0.000407644
0.00041402
0.000419957
0.000425528
0.000430805
0.000435857
0.000440751
0.000445552
0.000450321
0.000455115
0.000459989
0.000464993
0.000470174
0.00047558
0.000481256
0.00048725
0.000493614
0.000500409
0.000507707
0.000515594
0.000524184
0.000533622
0.000544093
0.000555841
0.000569174
0.000584487
0.000602273
0.000623155
0.000647893
0.000677411
0.000712808
0.000755375
0.000806589
0.000868103
0.000941714
0.00102932
0.00113284
0.00125411
0.00139481
0.00155629
0.00173948
0.00194477
0.0021719
0.00241992
0.00268713
0.00297116
0.00326899
0.0035771
0.00389158
0.00420834
0.00452327
0.00483242
0.00513219
0.00541951
0.00569193
0.00594773
0.006186
0.00640661
0.00661019
0.00679804
0.006972
0.00713433
0.00728753
0.0074342
0.00757683
0.00771775
0.00785889
0.00800176
0.00814729
0.0082958
0.00844688
0.0085994
0.0087514
0.00890016
0.00904211
0.0091728
0.00928694
0.0093786
0.00943813
0.00946032
0.00944422
0.00937764
0.00925291
0.00906487
0.0088096
0.00848524
0.00809252
0.00763514
0.00712005
0.00655743
0.00596023
0.00534352
0.00472344
0.00411598
0.00353581
0.00299516
0.00250308
0.00206514
0.00168348
0.00135742
0.00108411
0.000859569
0.00067963
0.000541008
0.000442619
0.000387815
0.000390392
0.000500447
0.00102694
0.000532889
0.000256902
0.000187765
0.000163086
0.000155822
0.000157542
0.000164608
0.000175099
0.000187836
0.000202032
0.000217121
0.000232677
0.000248371
0.00026394
0.00027918
0.000293931
0.000308071
0.000321511
0.000334192
0.000346082
0.000357168
0.00036746
0.000376984
0.000385777
0.000393892
0.000401387
0.000408327
0.000414783
0.000420827
0.000426533
0.000431975
0.000437225
0.000442354
0.00044743
0.000452518
0.000457678
0.000462971
0.000468453
0.000474176
0.000480194
0.00048656
0.000493331
0.000500569
0.000508343
0.000516741
0.000525865
0.000535849
0.00054686
0.000559115
0.000572891
0.000588541
0.000606511
0.000627364
0.000651796
0.000680664
0.000714998
0.000756027
0.000805179
0.000864084
0.000934549
0.00101852
0.00111804
0.0012351
0.00137159
0.00152915
0.001709
0.00191181
0.00213762
0.00238566
0.00265437
0.00294138
0.00324356
0.00355714
0.00387787
0.00420122
0.00452259
0.00483756
0.00514211
0.00543278
0.00570686
0.00596251
0.00619879
0.00641569
0.0066141
0.00679562
0.00696253
0.00711751
0.00726357
0.00740376
0.00754107
0.00767825
0.00781766
0.00796122
0.00811027
0.00826554
0.00842708
0.00859422
0.00876558
0.008939
0.0091115
0.00927931
0.00943782
0.00958156
0.00970434
0.00979961
0.0098537
0.00986768
0.0098357
0.0097438
0.00958609
0.0093573
0.00905418
0.00867593
0.00822481
0.00770663
0.00713081
0.00651023
0.00586054
0.00519923
0.00454427
0.00391274
0.00331944
0.0027759
0.00228977
0.00186476
0.0015011
0.00119635
0.000946453
0.000746877
0.000593906
0.000486133
0.000426997
0.000431454
0.00055481
0.00113966
0.000588066
0.000282941
0.000205592
0.0001769
0.000167125
0.000167063
0.000172765
0.000182178
0.000194041
0.000207522
0.000222023
0.000237096
0.000252393
0.00026764
0.000282619
0.000297162
0.000311139
0.000324454
0.000337043
0.000348869
0.000359918
0.000370195
0.000379725
0.000388546
0.000396708
0.000404271
0.0004113
0.000417869
0.000424051
0.000429923
0.000435561
0.000441041
0.000446437
0.000451822
0.000457263
0.000462828
0.000468579
0.00047458
0.000480889
0.000487566
0.000494674
0.000502276
0.000510447
0.000519267
0.000528839
0.000539284
0.000550756
0.000563451
0.000577616
0.00059357
0.000611715
0.000632558
0.000656731
0.000685021
0.000718385
0.000757975
0.000805151
0.00086149
0.000928777
0.00100897
0.00110417
0.0012165
0.00134804
0.00150065
0.00167586
0.00187467
0.0020974
0.0023436
0.00261191
0.00290005
0.00320487
0.00352244
0.00384822
0.00417728
0.00450457
0.00482517
0.00513454
0.00542881
0.00570493
0.00596083
0.00619548
0.00640893
0.00660219
0.00677715
0.00693642
0.0070831
0.00722059
0.00735235
0.00748183
0.00761213
0.00774599
0.00788566
0.00803283
0.00818859
0.00835336
0.00852692
0.00870838
0.00889618
0.00908806
0.00928096
0.00947112
0.00965395
0.00982409
0.00997536
0.0101014
0.0101925
0.010235
0.0102373
0.0101814
0.0100588
0.00986282
0.00958865
0.00923372
0.00879848
0.00828707
0.00770763
0.00707233
0.00639692
0.00569982
0.00500078
0.00431926
0.00367288
0.00307598
0.00253874
0.0020669
0.00166202
0.00132235
0.00104396
0.000822099
0.000652616
0.000533769
0.000469054
0.000474573
0.000610983
0.00125545
0.000644579
0.000309644
0.000223952
0.000191241
0.000179002
0.000177224
0.000181646
0.000190063
0.00020114
0.000213993
0.000227993
0.000242666
0.000257648
0.000272649
0.000287441
0.000301845
0.000315722
0.000328972
0.000341524
0.000353337
0.000364393
0.000374697
0.000384272
0.000393154
0.000401395
0.000409055
0.000416202
0.00042291
0.000429256
0.00043532
0.00044118
0.000446917
0.000452608
0.00045833
0.000464157
0.000470158
0.000476405
0.000482964
0.000489901
0.000497285
0.000505184
0.000513673
0.000522836
0.00053277
0.000543592
0.000555442
0.0005685
0.00058299
0.000599198
0.000617486
0.00063831
0.000662243
0.00069
0.000722459
0.000760691
0.000805973
0.000859807
0.000923922
0.00100026
0.00109092
0.00119811
0.00132406
0.00147084
0.00164025
0.00183361
0.0020516
0.0022941
0.00256004
0.00284735
0.00315296
0.00347289
0.00380239
0.0041362
0.00446882
0.00479482
0.00510915
0.00540743
0.00568619
0.00594305
0.0061768
0.00638741
0.00657598
0.00674459
0.00689611
0.00703397
0.00716196
0.00728393
0.00740358
0.00752449
0.00764966
0.00778164
0.00792238
0.00807325
0.008235
0.00840778
0.00859111
0.00878394
0.00898464
0.009191
0.00940006
0.00960821
0.00981115
0.0100038
0.0101802
0.0103337
0.0104575
0.0105377
0.0105689
0.0105515
0.0104686
0.0103114
0.0100739
0.00975139
0.00934228
0.0088485
0.00827633
0.0076366
0.0069445
0.00621889
0.0054809
0.00475234
0.0040537
0.00340248
0.00281186
0.00229007
0.0018405
0.00146248
0.00115245
0.000905562
0.000717325
0.000585645
0.000514069
0.000519812
0.000669043
0.0013745
0.000702366
0.000336973
0.000242803
0.000206058
0.000191386
0.000187946
0.000191154
0.000198649
0.000209013
0.000221314
0.000234886
0.000249232
0.000263967
0.000278788
0.000293455
0.000307776
0.000321608
0.000334841
0.000347401
0.000359241
0.000370342
0.000380706
0.000390355
0.000399327
0.000407672
0.000415453
0.00042274
0.00042961
0.000436141
0.000442418
0.000448523
0.000454539
0.000460551
0.000466637
0.000472877
0.000479347
0.000486123
0.000493278
0.000500885
0.000509019
0.000517759
0.000527189
0.000537407
0.000548522
0.000560669
0.000574012
0.000588755
0.000605157
0.000623542
0.000644322
0.000668013
0.000695261
0.000726867
0.000763811
0.000807282
0.00085869
0.000919684
0.000992141
0.00107815
0.00117995
0.00129984
0.00144007
0.00160268
0.00178932
0.00200101
0.00223802
0.00249965
0.00278413
0.00308858
0.0034091
0.00374083
0.00407826
0.00441551
0.00474664
0.00506607
0.00536886
0.00565104
0.00590981
0.00614366
0.00635242
0.00653714
0.00670002
0.00684411
0.00697315
0.00709118
0.00720249
0.00731111
0.00742064
0.00753474
0.00765605
0.00778675
0.00792844
0.00808212
0.0082482
0.00842657
0.00861659
0.00881709
0.00902635
0.00924226
0.00946238
0.00968351
0.0099018
0.0101127
0.010311
0.0104901
0.0106428
0.0107605
0.0108268
0.0108444
0.0108049
0.010692
0.0104983
0.0102171
0.00984444
0.00937958
0.00882642
0.00819374
0.0074955
0.00675029
0.00598019
0.00520904
0.00446025
0.00375473
0.00310911
0.00253466
0.00203711
0.00161729
0.00127239
0.000997652
0.000788308
0.000641937
0.000562178
0.00056727
0.000729105
0.00149703
0.000761372
0.000364898
0.000262112
0.000221308
0.000204223
0.000199165
0.000201214
0.000207847
0.000217563
0.000229375
0.000242583
0.000256664
0.000271212
0.00028591
0.000300503
0.000314791
0.000328622
0.000341879
0.000354483
0.000366384
0.000377559
0.00038801
0.000397758
0.00040684
0.00041531
0.000423231
0.000430676
0.000437724
0.000444459
0.000450966
0.000457335
0.000463652
0.000470005
0.00047648
0.000483161
0.000490129
0.000497467
0.000505253
0.00051357
0.000522499
0.000532128
0.000542554
0.000553886
0.000566251
0.000579801
0.000594724
0.000611255
0.000629686
0.000650386
0.000673821
0.000700571
0.000731361
0.000767083
0.000808829
0.000857908
0.000915869
0.000984505
0.00106584
0.0011621
0.00127563
0.0014088
0.00156384
0.00174267
0.00194669
0.00217656
0.00243201
0.00271167
0.00301296
0.00333217
0.00366448
0.00400423
0.00434523
0.00468111
0.0050057
0.0053135
0.00559995
0.00586174
0.00609695
0.00630512
0.0064872
0.00664537
0.00678279
0.00690343
0.00701165
0.00711181
0.00720859
0.00730598
0.0074081
0.00751693
0.00763504
0.00776426
0.00790583
0.00806045
0.00822828
0.00840904
0.00860205
0.00880618
0.00901985
0.00924119
0.00946793
0.00969727
0.00992586
0.0101497
0.010364
0.0105637
0.0107431
0.0108941
0.0110049
0.0110577
0.0110616
0.0109973
0.0108535
0.0106217
0.0102952
0.00987043
0.00934833
0.00873498
0.0080423
0.00728788
0.00649407
0.00568631
0.00489083
0.00413209
0.00343058
0.00280117
0.00225253
0.00178751
0.00140442
0.00109886
0.00086592
0.000702886
0.000613559
0.000617081
0.000791314
0.00162336
0.000821545
0.00039339
0.000281851
0.000236954
0.000217468
0.000210825
0.000211761
0.000217584
0.000226708
0.000238088
0.000250988
0.000264857
0.00027927
0.000293891
0.000308456
0.000322753
0.000336619
0.000349934
0.000362613
0.000374601
0.000385875
0.000396434
0.000406299
0.00041551
0.00042412
0.000432196
0.000439812
0.000447053
0.000454005
0.000460759
0.000467407
0.000474043
0.000480758
0.000487643
0.000494789
0.000502284
0.000510214
0.000518667
0.000527731
0.000537498
0.000548066
0.000559542
0.000572049
0.000585731
0.000600763
0.000617356
0.000635777
0.000656357
0.000679513
0.000705767
0.00073577
0.00077033
0.000810439
0.000857299
0.000912349
0.000977274
0.00105401
0.00114473
0.00125176
0.00137753
0.00152443
0.00169462
0.00188981
0.0021111
0.00235865
0.00263156
0.00292768
0.00324359
0.00357467
0.00391525
0.00425892
0.00459893
0.00492862
0.00524185
0.00553342
0.00579941
0.00603739
0.00624649
0.00642741
0.00658222
0.00671417
0.00682725
0.00692608
0.00701563
0.00710119
0.00718659
0.00727497
0.00736921
0.00747256
0.00758705
0.007714
0.00785421
0.00800797
0.00817518
0.0083554
0.0085479
0.0087517
0.00896565
0.00918822
0.00941748
0.00965117
0.00988655
0.0101203
0.0103482
0.0105655
0.0107658
0.0109427
0.0110887
0.0111916
0.0112366
0.0112234
0.0111344
0.0109586
0.0106869
0.0103126
0.0098334
0.00925196
0.00857737
0.00782533
0.00701767
0.00618082
0.00534349
0.00453376
0.00377631
0.00309016
0.00248753
0.00197393
0.00154924
0.00120975
0.000950588
0.000768794
0.000668409
0.000669403
0.000855835
0.00175381
0.000882842
0.000422424
0.000301993
0.000252966
0.000231084
0.00022288
0.000222741
0.000227801
0.00023638
0.000247377
0.000260017
0.000273721
0.000288043
0.000302631
0.000317206
0.000331546
0.00034548
0.000358881
0.000371659
0.000383756
0.000395148
0.000405831
0.000415828
0.00042518
0.000433942
0.000442183
0.000449982
0.000457426