/*--------------------------------*- C++ -*----------------------------------*\
  =========                 |
  \\      /  F ield         | OpenFOAM: The Open Source CFD Toolbox
   \\    /   O peration     | Website:  https://openfoam.org
    \\  /    A nd           | Version:  12
     \\/     M anipulation  |
\*---------------------------------------------------------------------------*/
FoamFile
{
    format      ascii;
    class       volScalarField;
    location    "1";
    object      k;
}
// * * * * * * * * * * * * * * * * * * * * * * * * * * * * * * * * * * * * * //

dimensions      [0 2 -2 0 0 0 0];

internalField   nonuniform List<scalar> 
18225
(
3.2724e-09
2.21283e-08
4.91747e-08
8.12104e-08
1.16655e-07
1.54444e-07
1.93745e-07
2.33873e-07
2.74238e-07
3.1434e-07
3.53748e-07
3.92103e-07
4.29106e-07
4.6452e-07
4.98164e-07
5.29904e-07
5.59657e-07
5.87376e-07
6.13057e-07
6.36721e-07
6.58422e-07
6.78232e-07
6.96242e-07
7.12558e-07
7.27293e-07
7.40566e-07
7.525e-07
7.63215e-07
7.72828e-07
7.81448e-07
7.89177e-07
7.96108e-07
8.02318e-07
8.07876e-07
8.12833e-07
8.17232e-07
8.21097e-07
8.24442e-07
8.27272e-07
8.29579e-07
8.3135e-07
8.32568e-07
8.33218e-07
8.33291e-07
8.32789e-07
8.3173e-07
8.3016e-07
8.28158e-07
8.25847e-07
8.234e-07
8.21054e-07
8.19116e-07
8.17975e-07
8.18102e-07
8.2007e-07
8.2455e-07
8.32311e-07
8.44211e-07
8.61192e-07
8.84255e-07
9.14442e-07
9.52797e-07
1.00033e-06
1.05798e-06
1.12656e-06
1.20673e-06
1.29895e-06
1.40348e-06
1.52035e-06
1.64939e-06
1.79024e-06
1.94237e-06
2.10517e-06
2.27796e-06
2.46003e-06
2.65072e-06
2.84939e-06
3.05547e-06
3.26847e-06
3.48791e-06
3.71337e-06
3.94444e-06
4.18068e-06
4.42164e-06
4.66677e-06
4.91548e-06
5.16704e-06
5.42059e-06
5.67514e-06
5.9295e-06
6.18231e-06
6.43197e-06
6.67664e-06
6.91426e-06
7.14248e-06
7.35867e-06
7.55996e-06
7.74317e-06
7.90484e-06
8.04118e-06
8.14814e-06
8.21914e-06
8.25105e-06
8.25296e-06
8.21036e-06
8.11984e-06
7.98017e-06
7.79085e-06
7.55225e-06
7.26585e-06
6.93447e-06
6.56237e-06
6.15516e-06
5.71975e-06
5.26401e-06
4.79648e-06
4.32596e-06
3.86107e-06
3.40982e-06
2.97923e-06
2.57507e-06
2.20162e-06
1.86167e-06
1.55652e-06
1.28612e-06
1.04931e-06
8.43998e-07
6.67499e-07
5.1671e-07
3.88421e-07
2.79579e-07
1.87584e-07
1.10739e-07
4.91105e-08
7.24141e-09
2.47249e-08
1.97022e-07
4.41133e-07
7.29724e-07
1.04886e-06
1.38902e-06
1.74276e-06
2.10391e-06
2.46718e-06
2.82807e-06
3.1827e-06
3.52784e-06
3.86081e-06
4.17949e-06
4.48221e-06
4.76781e-06
5.03552e-06
5.28493e-06
5.51599e-06
5.72891e-06
5.92415e-06
6.10238e-06
6.26442e-06
6.4112e-06
6.54376e-06
6.66318e-06
6.77054e-06
6.86693e-06
6.9534e-06
7.03095e-06
7.10047e-06
7.16281e-06
7.21866e-06
7.26864e-06
7.31322e-06
7.35275e-06
7.38748e-06
7.41753e-06
7.44293e-06
7.46362e-06
7.47947e-06
7.49034e-06
7.49608e-06
7.49661e-06
7.49195e-06
7.48227e-06
7.46798e-06
7.44981e-06
7.42885e-06
7.40668e-06
7.38542e-06
7.36786e-06
7.35751e-06
7.3586e-06
7.37631e-06
7.41669e-06
7.48667e-06
7.59399e-06
7.74712e-06
7.95512e-06
8.22733e-06
8.57318e-06
9.00175e-06
9.52148e-06
1.01397e-05
1.08623e-05
1.16934e-05
1.26353e-05
1.36884e-05
1.48509e-05
1.61196e-05
1.74898e-05
1.89559e-05
2.05117e-05
2.2151e-05
2.38677e-05
2.56561e-05
2.75111e-05
2.94282e-05
3.14033e-05
3.34325e-05
3.5512e-05
3.76382e-05
3.98067e-05
4.20128e-05
4.42511e-05
4.65151e-05
4.8797e-05
5.1088e-05
5.33774e-05
5.56529e-05
5.79002e-05
6.01027e-05
6.22419e-05
6.42967e-05
6.62434e-05
6.80562e-05
6.97066e-05
7.11634e-05
7.23923e-05
7.33558e-05
7.39893e-05
7.42683e-05
7.42819e-05
7.38929e-05
7.30725e-05
7.18101e-05
7.01016e-05
6.79502e-05
6.53694e-05
6.23847e-05
5.90345e-05
5.53692e-05
5.14509e-05
4.73503e-05
4.31442e-05
3.89116e-05
3.47298e-05
3.06708e-05
2.67978e-05
2.31624e-05
1.98032e-05
1.67454e-05
1.40004e-05
1.15681e-05
9.43775e-06
7.59083e-06
6.0028e-06
4.64611e-06
3.49197e-06
2.51276e-06
1.685e-06
9.93168e-07
4.37204e-07
5.47279e-08
5.24599e-08
4.49451e-07
1.01292e-06
1.67911e-06
2.4157e-06
3.2007e-06
4.01697e-06
4.85024e-06
5.68837e-06
6.52094e-06
7.33904e-06
8.1352e-06
8.90327e-06
9.63831e-06
1.03366e-05
1.09953e-05
1.16127e-05
1.21879e-05
1.27208e-05
1.32118e-05
1.36621e-05
1.40731e-05
1.44467e-05
1.47852e-05
1.50909e-05
1.53663e-05
1.56138e-05
1.58361e-05
1.60354e-05
1.62142e-05
1.63745e-05
1.65181e-05
1.66468e-05
1.67619e-05
1.68645e-05
1.69554e-05
1.70351e-05
1.7104e-05
1.71621e-05
1.72093e-05
1.72452e-05
1.72695e-05
1.72819e-05
1.72821e-05
1.72704e-05
1.72471e-05
1.72131e-05
1.71701e-05
1.71208e-05
1.70689e-05
1.70193e-05
1.69784e-05
1.69546e-05
1.69577e-05
1.69997e-05
1.70948e-05
1.72591e-05
1.75105e-05
1.78688e-05
1.8355e-05
1.89907e-05
1.97979e-05
2.07976e-05
2.20092e-05
2.34496e-05
2.51323e-05
2.70669e-05
2.92585e-05
3.17075e-05
3.44099e-05
3.73581e-05
4.0541e-05
4.39456e-05
4.75576e-05
5.13625e-05
5.53462e-05
5.94958e-05
6.37993e-05
6.82462e-05
7.28269e-05
7.75326e-05
8.23542e-05
8.72829e-05
9.23084e-05
9.74195e-05
0.000102603
0.000107843
0.000113123
0.00011842
0.000123709
0.000128963
0.000134146
0.000139222
0.000144147
0.000148872
0.000153343
0.0001575
0.000161278
0.000164606
0.000167407
0.000169599
0.000171026
0.000171631
0.000171645
0.000170722
0.000168804
0.000165867
0.000161904
0.000156921
0.00015095
0.000144048
0.000136303
0.000127833
0.000118779
0.000109306
9.95899e-05
8.98134e-05
8.01553e-05
7.07816e-05
6.18383e-05
5.34447e-05
4.56897e-05
3.8631e-05
3.22954e-05
2.6682e-05
2.17661e-05
1.75046e-05
1.3841e-05
1.07113e-05
8.04871e-06
5.78941e-06
3.87907e-06
2.28193e-06
9.98193e-07
1.16196e-07
8.56702e-08
7.52253e-07
1.70358e-06
2.82986e-06
4.07547e-06
5.40295e-06
6.78321e-06
8.19212e-06
9.60913e-06
1.10166e-05
1.23995e-05
1.37453e-05
1.50434e-05
1.62857e-05
1.74657e-05
1.85787e-05
1.9622e-05
2.05939e-05
2.14941e-05
2.23237e-05
2.30842e-05
2.37785e-05
2.44096e-05
2.49813e-05
2.54976e-05
2.59626e-05
2.63806e-05
2.67559e-05
2.70925e-05
2.73943e-05
2.76648e-05
2.79072e-05
2.81243e-05
2.83184e-05
2.84912e-05
2.86442e-05
2.87782e-05
2.88938e-05
2.89909e-05
2.90693e-05
2.91286e-05
2.9168e-05
2.91872e-05
2.91858e-05
2.91639e-05
2.91223e-05
2.90627e-05
2.89881e-05
2.89029e-05
2.88136e-05
2.87287e-05
2.86594e-05
2.86198e-05
2.86268e-05
2.87011e-05
2.88669e-05
2.91518e-05
2.95865e-05
3.02047e-05
3.10422e-05
3.21361e-05
3.35235e-05
3.52402e-05
3.73191e-05
3.97888e-05
4.26721e-05
4.59847e-05
4.97348e-05
5.39229e-05
5.85416e-05
6.35774e-05
6.90112e-05
7.48205e-05
8.09807e-05
8.74668e-05
9.42548e-05
0.000101322
0.000108648
0.000116215
0.000124005
0.000132003
0.000140192
0.000148556
0.000157077
0.000165734
0.000174505
0.00018336
0.00019227
0.000201198
0.0002101
0.000218928
0.000227626
0.00023613
0.000244369
0.000252262
0.00025972
0.000266644
0.000272928
0.000278455
0.000283103
0.000286736
0.000289076
0.000290037
0.000290041
0.000288468
0.000285223
0.000280271
0.000273593
0.000265199
0.000255136
0.0002435
0.000230435
0.000216136
0.000200843
0.000184832
0.000168402
0.000151865
0.000135524
0.000119662
0.000104529
9.03264e-05
7.72068e-05
6.52677e-05
5.45542e-05
4.50642e-05
3.67554e-05
2.95543e-05
2.33648e-05
1.80779e-05
1.35801e-05
9.76353e-06
6.53607e-06
3.83776e-06
1.67103e-06
1.8979e-07
1.23254e-07
1.09313e-06
2.48422e-06
4.13409e-06
5.95984e-06
7.90591e-06
9.92935e-06
1.19947e-05
1.40717e-05
1.61346e-05
1.81612e-05
2.01332e-05
2.20352e-05
2.38551e-05
2.55836e-05
2.72139e-05
2.87418e-05
3.0165e-05
3.14832e-05
3.26977e-05
3.38112e-05
3.48274e-05
3.57512e-05
3.65879e-05
3.73433e-05
3.80238e-05
3.86354e-05
3.91845e-05
3.96769e-05
4.01183e-05
4.05139e-05
4.08683e-05
4.11855e-05
4.14689e-05
4.17211e-05
4.19441e-05
4.21391e-05
4.23068e-05
4.24472e-05
4.25599e-05
4.26443e-05
4.26994e-05
4.27244e-05
4.2719e-05
4.26835e-05
4.26189e-05
4.25281e-05
4.24155e-05
4.22879e-05
4.21549e-05
4.20294e-05
4.19282e-05
4.18724e-05
4.18872e-05
4.20035e-05
4.22574e-05
4.26899e-05
4.33469e-05
4.42782e-05
4.55371e-05
4.71785e-05
4.92572e-05
5.1826e-05
5.49334e-05
5.8621e-05
6.29218e-05
6.78585e-05
7.34422e-05
7.96722e-05
8.65369e-05
9.40149e-05
0.000102077
0.000110689
0.000119812
0.00012941
0.000139445
0.000149883
0.000160692
0.000171843
0.000183308
0.000195061
0.000207077
0.000219329
0.000231786
0.000244417
0.000257185
0.000270049
0.000282961
0.000295868
0.000308709
0.000321414
0.000333906
0.000346096
0.000357884
0.000369161
0.000379804
0.000389676
0.00039863
0.000406505
0.000413135
0.000418329
0.000421675
0.000423044
0.000423071
0.000420855
0.000416226
0.000409133
0.000399542
0.000387454
0.000372926
0.000356084
0.00033713
0.000316341
0.000294062
0.000270696
0.000246684
0.000222485
0.000198551
0.000175304
0.000153116
0.00013229
0.000113052
9.55481e-05
7.98456e-05
6.5941e-05
5.37714e-05
4.32275e-05
3.41674e-05
2.64299e-05
1.98481e-05
1.42631e-05
9.54018e-06
5.59262e-06
2.42713e-06
2.72938e-07
1.64414e-07
1.46512e-06
3.33798e-06
5.56336e-06
8.02785e-06
1.06555e-05
1.33878e-05
1.61765e-05
1.89808e-05
2.17657e-05
2.45014e-05
2.71628e-05
2.97295e-05
3.2185e-05
3.45169e-05
3.6716e-05
3.87766e-05
4.06958e-05
4.24731e-05
4.41103e-05
4.56111e-05
4.69807e-05
4.82255e-05
4.93529e-05
5.03706e-05
5.12872e-05
5.21111e-05
5.28505e-05
5.35136e-05
5.41079e-05
5.46403e-05
5.51172e-05
5.55439e-05
5.59247e-05
5.62634e-05
5.65624e-05
5.68234e-05
5.70472e-05
5.72337e-05
5.73825e-05
5.74925e-05
5.75626e-05
5.75917e-05
5.75795e-05
5.75263e-05
5.74339e-05
5.73063e-05
5.71497e-05
5.69738e-05
5.67919e-05
5.6622e-05
5.64874e-05
5.64174e-05
5.64466e-05
5.66178e-05
5.69808e-05
5.75919e-05
5.85141e-05
5.98159e-05
6.15703e-05
6.38521e-05
6.67362e-05
7.02942e-05
7.45916e-05
7.96843e-05
8.5616e-05
9.24157e-05
0.000100097
0.000108656
0.000118075
0.000128322
0.000139355
0.000151123
0.000163573
0.000176649
0.000190299
0.000204472
0.00021912
0.0002342
0.000249669
0.000265488
0.000281617
0.000298014
0.000314635
0.000331434
0.00034836
0.000365355
0.000382359
0.000399302
0.000416108
0.00043269
0.000448955
0.000464794
0.000480088
0.000494703
0.000508491
0.000521285
0.000532901
0.000543142
0.000551798
0.000558621
0.000563103
0.000565001
0.000565149
0.000562459
0.000556588
0.000547472
0.000535047
0.00051929
0.000500253
0.00047808
0.000453019
0.000425427
0.000395754
0.000364537
0.000332372
0.000299882
0.00026769
0.000236378
0.000206461
0.000178362
0.000152399
0.000128774
0.000107585
8.88265e-05
7.24151e-05
5.82016e-05
4.59925e-05
3.55685e-05
2.67028e-05
1.91803e-05
1.28195e-05
7.50503e-06
3.24955e-06
3.6371e-07
2.08608e-07
1.86373e-06
4.25387e-06
7.09875e-06
1.02519e-05
1.3615e-05
1.71124e-05
2.06821e-05
2.42713e-05
2.78353e-05
3.13357e-05
3.47406e-05
3.80237e-05
4.1164e-05
4.41457e-05
4.6957e-05
4.95908e-05
5.20433e-05
5.43142e-05
5.64056e-05
5.83225e-05
6.00714e-05
6.16607e-05
6.30998e-05
6.43988e-05
6.55686e-05
6.66198e-05
6.75631e-05
6.8409e-05
6.91669e-05
6.98458e-05
7.04537e-05
7.09972e-05
7.14821e-05
7.19128e-05
7.22924e-05
7.26231e-05
7.29056e-05
7.31401e-05
7.33256e-05
7.34609e-05
7.35446e-05
7.35753e-05
7.35527e-05
7.34775e-05
7.33523e-05
7.31823e-05
7.29763e-05
7.27469e-05
7.25121e-05
7.22956e-05
7.21284e-05
7.20491e-05
7.21028e-05
7.23462e-05
7.28442e-05
7.36705e-05
7.49074e-05
7.66443e-05
7.89757e-05
8.19988e-05
8.58104e-05
9.05023e-05
9.61581e-05
0.000102848
0.000110627
0.000119529
0.000129566
0.000140732
0.000152997
0.000166316
0.000180627
0.00019586
0.000211942
0.000228793
0.000246339
0.000264508
0.000283231
0.000302444
0.000322086
0.000342099
0.000362424
0.000383003
0.000403777
0.000424683
0.000445656
0.000466629
0.000487527
0.000508274
0.000528784
0.000548965
0.000568714
0.000587916
0.000606442
0.000624146
0.000640863
0.000656407
0.000670566
0.000683108
0.000693785
0.000702292
0.0007081
0.00071072
0.000711148
0.0007083
0.000701503
0.000690687
0.000675745
0.000656615
0.000633321
0.000606008
0.000574958
0.000540588
0.000503451
0.000464214
0.000423632
0.000382505
0.000341639
0.000301799
0.000263664
0.000227801
0.000194633
0.000164438
0.000137352
0.000113376
9.2405e-05
7.42492e-05
5.86595e-05
4.53533e-05
3.40387e-05
2.44396e-05
1.6324e-05
9.54659e-06
4.12675e-06
4.60734e-07
2.55455e-07
2.28577e-06
5.22417e-06
8.72681e-06
1.26122e-05
1.67578e-05
2.10697e-05
2.54706e-05
2.98952e-05
3.4288e-05
3.86018e-05
4.27969e-05
4.68412e-05
5.07087e-05
5.43799e-05
5.78407e-05
6.10822e-05
6.40998e-05
6.68932e-05
6.94654e-05
7.18223e-05
7.39722e-05
7.59255e-05
7.76938e-05
7.92898e-05
8.07266e-05
8.20176e-05
8.3176e-05
8.42144e-05
8.51448e-05
8.5978e-05
8.67236e-05
8.739e-05
8.7984e-05
8.8511e-05
8.89748e-05
8.93777e-05
8.97208e-05
9.00039e-05
9.0226e-05
9.03855e-05
9.04805e-05
9.05097e-05
9.04728e-05
9.03708e-05
9.02076e-05
8.999e-05
8.97294e-05
8.94425e-05
8.91521e-05
8.88891e-05
8.86929e-05
8.86123e-05
8.87049e-05
8.90426e-05
8.97075e-05
9.07926e-05
9.24016e-05
9.46466e-05
9.76461e-05
0.000101521
0.000106392
0.000112372
0.000119563
0.00012805
0.000137895
0.000149136
0.000161784
0.00017582
0.000191201
0.000207861
0.000225714
0.000244665
0.000264609
0.000285442
0.000307058
0.000329357
0.000352245
0.000375631
0.000399432
0.000423565
0.000447952
0.000472519
0.000497189
0.00052189
0.000546547
0.000571087
0.000595436
0.000619516
0.000643246
0.000666539
0.000689297
0.00071141
0.000732753
0.000753177
0.000772513
0.00079056
0.000807088
0.000821836
0.000834511
0.000844757
0.000852099
0.00085569
0.000856582
0.000853972
0.000846668
0.000834605
0.000817625
0.000795608
0.000768536
0.000736535
0.000699894
0.00065908
0.000614727
0.000567621
0.00051867
0.00046885
0.000419162
0.000370564
0.000323922
0.000279963
0.000239243
0.000202133
0.00016882
0.000139327
0.00011353
9.12016e-05
7.20347e-05
5.56804e-05
4.17777e-05
2.9985e-05
2.0017e-05
1.16966e-05
5.05026e-06
5.63011e-07
3.04674e-07
2.72888e-06
6.24314e-06
1.04375e-05
1.50937e-05
2.00638e-05
2.52338e-05
3.05106e-05
3.58153e-05
4.10809e-05
4.62506e-05
5.12771e-05
5.61216e-05
6.07531e-05
6.51483e-05
6.92905e-05
7.31691e-05
7.67788e-05
8.01194e-05
8.31946e-05
8.60116e-05
8.85806e-05
9.0914e-05
9.30259e-05
9.49315e-05
9.66468e-05
9.81877e-05
9.957e-05
0.000100809
0.000101919
0.000102912
0.000103801
0.000104595
0.000105302
0.000105929
0.000106479
0.000106956
0.00010736
0.000107692
0.00010795
0.000108131
0.000108235
0.000108259
0.000108203
0.00010807
0.000107863
0.000107593
0.000107274
0.000106926
0.00010658
0.000106272
0.000106053
0.000105983
0.000106134
0.000106594
0.000107464
0.000108859
0.000110906
0.000113741
0.00011751
0.000122358
0.00012843
0.000135862
0.000144771
0.000155257
0.000167389
0.000181203
0.000196701
0.00021385
0.000232585
0.000252811
0.000274413
0.000297259
0.000321209
0.000346122
0.000371857
0.000398279
0.000425261
0.000452684
0.000480436
0.000508413
0.000536518
0.00056466
0.000592754
0.000620724
0.000648496
0.000676002
0.00070318
0.000729965
0.000756295
0.000782098
0.000807297
0.000831797
0.000855485
0.000878221
0.000899835
0.00092012
0.00093883
0.000955673
0.000970318
0.000982365
0.000991366
0.000996209
0.000997743
0.000995759
0.000988399
0.000975593
0.000957133
0.000932832
0.000902612
0.000866562
0.000824959
0.000778291
0.00072725
0.000672721
0.000615744
0.000557464
0.00049907
0.000441723
0.000386486
0.00033427
0.000285785
0.000241517
0.00020173
0.000166476
0.000135631
0.000108933
8.60187e-05
6.64727e-05
4.98614e-05
3.57748e-05
2.38711e-05
1.39397e-05
6.01372e-06
6.69799e-07
3.56049e-07
3.19117e-06
7.30631e-06
1.2223e-05
1.76848e-05
2.35169e-05
2.95845e-05
3.57771e-05
4.20017e-05
4.81792e-05
5.42428e-05
6.01367e-05
6.58155e-05
7.12431e-05
7.63921e-05
8.12432e-05
8.5784e-05
9.00087e-05
9.39171e-05
9.75138e-05
0.000100808
0.00010381
0.000106537
0.000109004
0.00011123
0.000113232
0.000115031
0.000116644
0.00011809
0.000119385
0.000120543
0.000121579
0.000122504
0.000123327
0.000124055
0.000124694
0.000125245
0.000125711
0.00012609
0.000126382
0.000126584
0.000126692
0.000126707
0.000126628
0.000126458
0.000126203
0.000125876
0.000125494
0.000125084
0.000124682
0.000124335
0.000124104
0.00012406
0.000124292
0.000124908
0.000126028
0.000127792
0.000130351
0.000133869
0.000138517
0.000144468
0.000151892
0.000160945
0.000171762
0.000184451
0.000199083
0.00021569
0.000234258
0.000254732
0.000277015
0.000300977
0.000326461
0.000353292
0.000381286
0.000410256
0.000440021
0.000470405
0.000501247
0.000532394
0.00056371
0.000595069
0.000626361
0.000657489
0.000688368
0.000718929
0.000749112
0.00077887
0.000808165
0.00083696
0.000865222
0.00089291
0.000919972
0.000946337
0.00097191
0.000996561
0.00102012
0.00104238
0.00106308
0.00108189
0.00109844
0.00111231
0.00112302
0.00112936
0.00113168
0.00113062
0.00112363
0.00111058
0.00109122
0.00106529
0.00103265
0.000993328
0.000947565
0.000895841
0.000838879
0.000777627
0.000713232
0.000646986
0.000580252
0.000514391
0.000450672
0.000390204
0.000333873
0.000282307
0.00023587
0.000194668
0.000158591
0.000127351
0.000100541
7.76748e-05
5.82478e-05
4.17785e-05
2.78661e-05
1.62644e-05
7.01238e-06
7.80553e-07
4.09407e-07
3.67116e-06
8.41016e-06
1.40772e-05
2.03762e-05
2.71044e-05
3.41051e-05
4.12496e-05
4.84299e-05
5.55542e-05
6.25453e-05
6.93386e-05
7.58817e-05
8.21331e-05
8.80616e-05
9.36449e-05
9.88692e-05
0.000103728
0.000108221
0.000112355
0.000116139
0.000119587
0.000122717
0.000125548
0.000128102
0.000130399
0.000132461
0.000134311
0.000135968
0.000137451
0.000138778
0.000139964
0.000141022
0.000141963
0.000142794
0.000143521
0.000144147
0.000144673
0.000145099
0.000145422
0.00014564
0.00014575
0.000145751
0.000145644
0.000145432
0.000145125
0.000144736
0.00014429
0.000143817
0.000143362
0.000142982
0.000142752
0.000142754
0.000143097
0.000143908
0.000145331
0.00014753
0.000150684
0.000154984
0.00016063
0.000167823
0.000176755
0.000187603
0.000200515
0.000215606
0.000232943
0.000252543
0.00027437
0.000298338
0.000324308
0.000352104
0.000381518
0.000412324
0.000444283
0.00047716
0.000510724
0.00054476
0.000579068
0.000613468
0.000647802
0.000681932
0.000715743
0.000749143
0.000782064
0.000814456
0.000846289
0.000877552
0.000908242
0.000938363
0.000967918
0.000996903
0.0010253
0.00105305
0.00108009
0.00110629
0.00113149
0.00115545
0.00117792
0.00119852
0.00121687
0.00123249
0.00124487
0.00125286
0.00125612
0.0012561
0.00124988
0.00123704
0.00121735
0.00119048
0.0011562
0.00111447
0.00106548
0.00100966
0.000947734
0.000880673
0.000809695
0.000736204
0.000661718
0.000587783
0.000515875
0.000447313
0.000383179
0.000324271
0.000271078
0.000223788
0.000182326
0.000146397
0.000115553
8.92502e-05
6.69087e-05
4.79756e-05
3.19884e-05
1.86628e-05
8.04289e-06
8.94887e-07
4.64605e-07
4.1676e-06
9.55176e-06
1.59949e-05
2.31603e-05
3.08159e-05
3.8782e-05
4.69112e-05
5.50796e-05
6.3182e-05
7.11303e-05
7.88511e-05
8.62846e-05
9.33841e-05
0.000100114
0.000106449
0.000112375
0.000117884
0.000122976
0.000127658
0.000131942
0.000135845
0.000139387
0.000142589
0.000145476
0.000148072
0.000150402
0.000152491
0.000154362
0.000156037
0.000157535
0.000158872
0.000160065
0.000161124
0.000162058
0.000162874
0.000163573
0.000164158
0.000164628
0.00016498
0.00016521
0.000165317
0.000165299
0.000165159
0.0001649
0.000164535
0.000164083
0.00016357
0.000163035
0.000162533
0.000162131
0.000161918
0.00016199
0.000162477
0.000163529
0.000165314
0.000168021
0.00017186
0.00017705
0.00018382
0.000192397
0.000202998
0.000215816
0.000231008
0.000248688
0.000268912
0.000291678
0.000316914
0.000344491
0.000374221
0.000405869
0.000439168
0.000473829
0.000509556
0.000546058
0.000583056
0.000620293
0.000657537
0.000694587
0.000731273
0.000767455
0.000803032
0.00083793
0.00087211
0.000905562
0.000938298
0.000970352
0.00100177
0.00103259
0.00106288
0.00109265
0.00112191
0.00115063
0.00117876
0.00120617
0.00123268
0.00125808
0.00128204
0.00130422
0.00132416
0.00134137
0.00135528
0.00136494
0.0013694
0.00137025
0.00136517
0.00135297
0.0013335
0.00130636
0.00127126
0.00122806
0.00117686
0.00111803
0.00105224
0.000980455
0.00090391
0.000824085
0.00074262
0.000661228
0.000581584
0.000505222
0.000433441
0.000367231
0.000307238
0.000253762
0.000206789
0.000166037
0.000131033
0.00010118
7.58285e-05
5.43539e-05
3.62293e-05
2.113e-05
9.10314e-06
1.01256e-06
5.21526e-07
4.67944e-06
1.07287e-05
1.7972e-05
2.60307e-05
3.46426e-05
4.3604e-05
5.27477e-05
6.19333e-05
7.10421e-05
7.99742e-05
8.86472e-05
9.69939e-05
0.000104962
0.000112512
0.000119616
0.000126257
0.000132428
0.00013813
0.00014337
0.000148163
0.000152527
0.000156486
0.000160063
0.000163287
0.000166185
0.000168785
0.000171116
0.000173202
0.000175069
0.000176738
0.000178228
0.000179555
0.000180733
0.000181769
0.000182671
0.000183443
0.000184085
0.000184595
0.000184971
0.00018521
0.000185308
0.000185267
0.000185088
0.000184778
0.000184352
0.000183832
0.000183252
0.000182659
0.000182116
0.000181705
0.000181529
0.000181699
0.000182371
0.000183714
0.000185925
0.000189221
0.000193841
0.000200034
0.00020806
0.000218169
0.000230599
0.000245556
0.000263201
0.00028364
0.000306911
0.000332975
0.000361721
0.000392962
0.000426448
0.000461878
0.000498915
0.000537202
0.000576381
0.000616104
0.000656047
0.000695918
0.000735461
0.000774464
0.000812759
0.000850225
0.000886783
0.000922401
0.000957082
0.000990867
0.00102382
0.00105604
0.0010876
0.00111861
0.00114914
0.00117926
0.00120899
0.00123832
0.00126718
0.00129546
0.00132297
0.00134946
0.00137462
0.00139806
0.00141932
0.00143788
0.00145313
0.00146437
0.0014701
0.00147175
0.00146804
0.00145686
0.00143813
0.0014114
0.0013763
0.00133259
0.00128026
0.00121959
0.00115115
0.00107584
0.000994882
0.000909782
0.000822265
0.000734179
0.000647385
0.000563636
0.000484458
0.000411059
0.000344276
0.000284551
0.00023196
0.000186262
0.000146974
0.000113459
8.50031e-05
6.09093e-05
4.05856e-05
2.36638e-05
1.01921e-05
1.13345e-06
5.80068e-07
5.20581e-06
1.19389e-05
2.00049e-05
2.8982e-05
3.8577e-05
4.85612e-05
5.87469e-05
6.89764e-05
7.91168e-05
8.90564e-05
9.87032e-05
0.000107983
0.000116837
0.000125222
0.000133108
0.000140477
0.00014732
0.00015364
0.000159445
0.000164751
0.000169581
0.000173959
0.000177914
0.000181476
0.000184677
0.000187549
0.000190121
0.000192423
0.000194482
0.000196322
0.000197963
0.000199424
0.000200718
0.000201855
0.000202842
0.000203683
0.000204377
0.000204924
0.000205321
0.000205563
0.000205648
0.000205578
0.000205354
0.000204988
0.000204496
0.000203907
0.000203262
0.000202615
0.000202041
0.000201639
0.00020152
0.000201823
0.000202721
0.000204412
0.00020712
0.00021109
0.000216593
0.000223909
0.000233323
0.000245111
0.000259527
0.000276783
0.00029704
0.000320384
0.000346823
0.000376276
0.000408574
0.000443464
0.000480622
0.00051967
0.000560197
0.000601774
0.00064398
0.000686414
0.000728714
0.000770562
0.000811693
0.0008519
0.000891035
0.00092901
0.00096579
0.0010014
0.00103589
0.00106937
0.00110196
0.0011338
0.00116504
0.0011958
0.0012262
0.00125631
0.00128616
0.00131576
0.00134502
0.00137382
0.00140196
0.00142919
0.00145518
0.00147952
0.00150176
0.00152137
0.00153776
0.00155028
0.00155732
0.00155975
0.00155753
0.00154772
0.00153022
0.00150455
0.00147026
0.001427
0.00137465
0.00131333
0.0012435
0.00116595
0.00108183
0.000992624
0.000900096
0.000806198
0.000712956
0.00062233
0.000536088
0.000455679
0.000382159
0.000316149
0.000257849
0.000207086
0.000163391
0.000126098
9.44382e-05
6.76446e-05
4.50583e-05
2.62644e-05
1.13099e-05
1.25756e-06
6.40145e-07
5.74592e-06
1.31806e-05
2.20906e-05
3.20098e-05
4.26128e-05
5.36454e-05
6.48983e-05
7.61961e-05
8.73908e-05
9.8359e-05
0.000108999
0.000119228
0.000128983
0.000138217
0.000146895
0.000155
0.000162523
0.000169465
0.000175839
0.000181662
0.000186959
0.000191758
0.00019609
0.000199991
0.000203495
0.000206636
0.000209449
0.000211965
0.000214214
0.000216223
0.000218014
0.000219606
0.000221014
0.000222249
0.000223318
0.000224225
0.000224968
0.000225548
0.000225959
0.000226199
0.000226264
0.000226159
0.000225886
0.000225459
0.000224899
0.00022424
0.00022353
0.000222836
0.000222243
0.000221869
0.000221834
0.000222305
0.000223479
0.000225579
0.000228858
0.000233594
0.000240085
0.000248644
0.00025958
0.000273191
0.000289741
0.000309445
0.000332448
0.000358812
0.000388502
0.00042138
0.000457209
0.000495657
0.000536318
0.00057873
0.000622401
0.000666834
0.000711548
0.000756098
0.000800094
0.000843207
0.000885182
0.000925834
0.000965055
0.00100281
0.00103911
0.00107406
0.00110778
0.00114042
0.00117218
0.00120324
0.00123377
0.00126395
0.00129389
0.00132368
0.00135335
0.00138289
0.00141221
0.00144117
0.00146956
0.00149713
0.00152354
0.00154839
0.00157124
0.00159157
0.00160881
0.00162235
0.00163069
0.00163393
0.00163318
0.00162505
0.00160922
0.00158523
0.00155252
0.00151064
0.00145932
0.00139855
0.0013286
0.00125013
0.00116415
0.00107209
0.000975679
0.000876944
0.000778044
0.000681139
0.000588237
0.000501051
0.000420886
0.000348578
0.000284488
0.000228542
0.000180311
0.000139118
0.000104149
7.45691e-05
4.96524e-05
2.89344e-05
1.24574e-05
1.38499e-06
7.0168e-07
6.2991e-06
1.44522e-05
2.42263e-05
3.51099e-05
4.67446e-05
5.88494e-05
7.11929e-05
8.35811e-05
9.58509e-05
0.000107866
0.000119516
0.000130709
0.000141377
0.000151469
0.000160949
0.000169796
0.000178002
0.000185571
0.000192515
0.000198856
0.000204619
0.000209838
0.000214547
0.000218784
0.000222587
0.000225996
0.000229046
0.000231774
0.000234211
0.000236386
0.000238323
0.000240044
0.000241563
0.000242892
0.000244039
0.000245006
0.000245794
0.0002464
0.000246821
0.000247052
0.000247092
0.000246945
0.000246617
0.000246124
0.000245494
0.000244765
0.000243995
0.000243262
0.000242664
0.000242339
0.000242417
0.000243098
0.000244599
0.000247173
0.000251103
0.000256698
0.000264287
0.000274209
0.000286799
0.00030237
0.00032119
0.000343468
0.000369326
0.000398788
0.000431764
0.000468046
0.000507316
0.000549154
0.000593065
0.000638498
0.000684882
0.000731654
0.000778282
0.000824292
0.000869281
0.000912929
0.000955008
0.000995376
0.00103398
0.00107085
0.00110609
0.00113984
0.0011723
0.0012037
0.00123426
0.00126422
0.00129378
0.0013231
0.00135232
0.00138152
0.00141072
0.00143989
0.00146892
0.00149767
0.00152592
0.00155342
0.00157984
0.0016048
0.00162788
0.00164858
0.00166637
0.00168066
0.00169028
0.0016945
0.00169498
0.00168881
0.00167506
0.00165328
0.00162284
0.0015832
0.00153393
0.00147484
0.00140602
0.00132793
0.00124141
0.00114776
0.00104866
0.000946141
0.000842452
0.000739937
0.000640845
0.000547165
0.000460482
0.000381883
0.000311929
0.00025068
0.000197778
0.000152553
0.000114158
8.16974e-05
5.43765e-05
3.1678e-05
1.36363e-05
1.51592e-06
7.64606e-07
6.86476e-06
1.57523e-05
2.64098e-05
3.8279e-05
5.09675e-05
6.41668e-05
7.76226e-05
9.11217e-05
0.000104485
0.000117564
0.000130238
0.000142408
0.000153999
0.000164956
0.000175243
0.000184836
0.000193728
0.000201924
0.000209439
0.000216296
0.000222524
0.000228159
0.000233241
0.000237811
0.00024191
0.000245582
0.000248866
0.000251801
0.000254421
0.000256758
0.000258838
0.000260682
0.000262308
0.000263727
0.000264946
0.000265969
0.000266796
0.000267422
0.000267846
0.000268061
0.00026807
0.000267876
0.000267487
0.000266925
0.000266221
0.000265424
0.000264599
0.000263836
0.000263252
0.000262997
0.000263224
0.000264157
0.000266042
0.000269159
0.000273822
0.000280371
0.000289166
0.000300571
0.000314941
0.000332597
0.000353807
0.000378763
0.000407552
0.000440147
0.00047639
0.000515993
0.000558545
0.00060353
0.000650357
0.000698389
0.00074698
0.000795509
0.000843409
0.000890191
0.00093546
0.000978927
0.00102041
0.00105983
0.0010972
0.00113264
0.00116631
0.00119844
0.00122929
0.00125914
0.00128826
0.00131689
0.00134525
0.00137351
0.00140179
0.00143016
0.00145861
0.0014871
0.00151551
0.00154369
0.00157143
0.00159847
0.00162451
0.0016492
0.00167215
0.00169291
0.00171097
0.00172577
0.00173658
0.001742
0.00174346
0.00173944
0.00172807
0.00170895
0.00168139
0.00164473
0.00159841
0.00154204
0.00147551
0.00139904
0.00131329
0.00121934
0.00111877
0.00101355
0.000906008
0.000798621
0.000693869
0.000594028
0.000500987
0.000416123
0.000340236
0.000273562
0.000215842
0.000166443
0.000124495
8.90487e-05
5.9242e-05
3.45014e-05
1.48491e-05
1.65063e-06
8.28864e-07
7.44237e-06
1.70798e-05
2.8639e-05
4.15139e-05
5.52772e-05
6.95921e-05
8.41805e-05
9.88093e-05
0.000113284
0.000127441
0.000141151
0.000154307
0.000166829
0.000178658
0.000189755
0.000200096
0.000209675
0.000218497
0.000226579
0.000233948
0.000240637
0.000246685
0.000252135
0.000257032
0.000261422
0.000265352
0.000268864
0.000272001
0.000274799
0.000277293
0.00027951
0.000281473
0.0002832
0.000284702
0.000285989
0.000287061
0.000287919
0.00028856
0.00028898
0.000289172
0.000289143
0.000288894
0.000288441
0.000287805
0.000287028
0.000286163
0.000285289
0.000284508
0.00028396
0.000283798
0.00028421
0.000285443
0.00028777
0.000291501
0.000296982
0.000304583
0.00031469
0.000327693
0.000343958
0.000363812
0.000387511
0.000415218
0.000446977
0.000482694
0.000522132
0.000564909
0.000610513
0.000658329
0.000707667
0.000757809
0.000808044
0.000857706
0.000906211
0.000953075
0.000997933
0.00104054
0.0010808
0.00111868
0.00115431
0.00118787
0.0012196
0.00124981
0.00127881
0.00130691
0.0013344
0.00136154
0.00138855
0.00141558
0.00144274
0.00147005
0.00149751
0.00152504
0.00155253
0.00157982
0.0016067
0.00163294
0.00165826
0.00168236
0.00170487
0.00172541
0.00174352
0.00175871
0.00177041
0.00177719
0.0017796
0.00177775
0.00176898
0.00175286
0.00172864
0.00169556
0.00165294
0.00160019
0.00153699
0.00146331
0.00137954
0.00128655
0.00118573
0.00107896
0.000968545
0.000857084
0.000747264
0.000641646
0.000542445
0.000451362
0.000369482
0.000297257
0.000234566
0.000180835
0.000135193
9.66459e-05
6.42628e-05
3.74119e-05
1.60987e-05
1.78943e-06
8.94399e-07
8.03145e-06
1.84335e-05
3.09119e-05
4.48118e-05
5.967e-05
7.51204e-05
9.08602e-05
0.000106636
0.000122236
0.000137486
0.000152242
0.000166393
0.000179852
0.000192556
0.000204464
0.000215553
0.000225817
0.000235262
0.000243908
0.000251785
0.000258928
0.000265382
0.000271193
0.000276411
0.000281085
0.000285265
0.000288999
0.000292331
0.000295302
0.000297946
0.000300293
0.000302369
0.000304191
0.000305771
0.000307118
0.000308233
0.000309116
0.000309763
0.000310171
0.000310333
0.000310259
0.000309951
0.000309426
0.000308715
0.000307863
0.000306935
0.00030602
0.000305235
0.000304744
0.000304702
0.000305339
0.000306921
0.000309751
0.00031417
0.000320553
0.000329301
0.000340824
0.000355531
0.000373796