/*--------------------------------*- C++ -*----------------------------------*\
  =========                 |
  \\      /  F ield         | OpenFOAM: The Open Source CFD Toolbox
   \\    /   O peration     | Website:  https://openfoam.org
    \\  /    A nd           | Version:  12
     \\/     M anipulation  |
\*---------------------------------------------------------------------------*/
FoamFile
{
    format      ascii;
    class       volScalarField;
    location    "1";
    object      nut;
}
// * * * * * * * * * * * * * * * * * * * * * * * * * * * * * * * * * * * * * //

dimensions      [0 2 -1 0 0 0 0];

internalField   nonuniform List<scalar> 
18225
(
8.01323e-14
5.41865e-13
1.20422e-12
1.98881e-12
2.85698e-12
3.78262e-12
4.74545e-12
5.72863e-12
6.7178e-12
7.70068e-12
8.66674e-12
9.60716e-12
1.05146e-11
1.13834e-11
1.22089e-11
1.29879e-11
1.37184e-11
1.43992e-11
1.50301e-11
1.56117e-11
1.61453e-11
1.66326e-11
1.70758e-11
1.74775e-11
1.78404e-11
1.81674e-11
1.84615e-11
1.87255e-11
1.89624e-11
1.91747e-11
1.93649e-11
1.95352e-11
1.96875e-11
1.98234e-11
1.9944e-11
2.00504e-11
2.01431e-11
2.02224e-11
2.02884e-11
2.03408e-11
2.03794e-11
2.04036e-11
2.04133e-11
2.04083e-11
2.03887e-11
2.03552e-11
2.03092e-11
2.02529e-11
2.01897e-11
2.01242e-11
2.00628e-11
2.00136e-11
1.99867e-11
1.99943e-11
2.00513e-11
2.01749e-11
2.03847e-11
2.07023e-11
2.11516e-11
2.17576e-11
2.25462e-11
2.3543e-11
2.47726e-11
2.62575e-11
2.80168e-11
3.00654e-11
3.24133e-11
3.50653e-11
3.80206e-11
4.12733e-11
4.48133e-11
4.86268e-11
5.26981e-11
5.70101e-11
6.15459e-11
6.6289e-11
7.12248e-11
7.63398e-11
8.16223e-11
8.70617e-11
9.26481e-11
9.83717e-11
1.04222e-10
1.10189e-10
1.16258e-10
1.22416e-10
1.28644e-10
1.34921e-10
1.41223e-10
1.4752e-10
1.53779e-10
1.59959e-10
1.66017e-10
1.71899e-10
1.77549e-10
1.82901e-10
1.87884e-10
1.9242e-10
1.96422e-10
1.99797e-10
2.02443e-10
2.04198e-10
2.04985e-10
2.05029e-10
2.03969e-10
2.0172e-10
1.98252e-10
1.93552e-10
1.8763e-10
1.8052e-10
1.72294e-10
1.63055e-10
1.52944e-10
1.42132e-10
1.30814e-10
1.19201e-10
1.07513e-10
9.59639e-11
8.47523e-11
7.40532e-11
6.40098e-11
5.47291e-11
4.62802e-11
3.86957e-11
3.19747e-11
2.60881e-11
2.09844e-11
1.65967e-11
1.2848e-11
9.65846e-12
6.95227e-12
4.66482e-12
2.75396e-12
1.22137e-12
1.80095e-13
2.42179e-12
7.90326e-11
1.97958e-10
3.35222e-10
4.85716e-10
6.45566e-10
8.1152e-10
9.80787e-10
1.15096e-09
1.31994e-09
1.48596e-09
1.6475e-09
1.80333e-09
1.95245e-09
2.09411e-09
2.22776e-09
2.35303e-09
2.46976e-09
2.5779e-09
2.67757e-09
2.76898e-09
2.85243e-09
2.92832e-09
2.99708e-09
3.05918e-09
3.11513e-09
3.16543e-09
3.21058e-09
3.25108e-09
3.28737e-09
3.31987e-09
3.34897e-09
3.37498e-09
3.39818e-09
3.41878e-09
3.43693e-09
3.45273e-09
3.46624e-09
3.47746e-09
3.48634e-09
3.49283e-09
3.49686e-09
3.49837e-09
3.49731e-09
3.49373e-09
3.48773e-09
3.47953e-09
3.46951e-09
3.45824e-09
3.44653e-09
3.43543e-09
3.42633e-09
3.42097e-09
3.42143e-09
3.43022e-09
3.45029e-09
3.48497e-09
3.53799e-09
3.61338e-09
3.71542e-09
3.8485e-09
4.01702e-09
4.22514e-09
4.47667e-09
4.77484e-09
5.12216e-09
5.52028e-09
5.96993e-09
6.47091e-09
7.02213e-09
7.62173e-09
8.2673e-09
8.95604e-09
9.68495e-09
1.04511e-08
1.12515e-08
1.20838e-08
1.29457e-08
1.3835e-08
1.47502e-08
1.56895e-08
1.66515e-08
1.76345e-08
1.86367e-08
1.96563e-08
2.06908e-08
2.17376e-08
2.27934e-08
2.38544e-08
2.4916e-08
2.59728e-08
2.70185e-08
2.80459e-08
2.90468e-08
3.00115e-08
3.09295e-08
3.17889e-08
3.25767e-08
3.32782e-08
3.38773e-08
3.43557e-08
3.46792e-08
3.48335e-08
3.48728e-08
3.47221e-08
3.43678e-08
3.38043e-08
3.30286e-08
3.2041e-08
3.08469e-08
2.94574e-08
2.789e-08
2.61685e-08
2.43224e-08
2.23856e-08
2.03954e-08
1.839e-08
1.64072e-08
1.44819e-08
1.2645e-08
1.09214e-08
9.3299e-09
7.88242e-09
6.58445e-09
5.43562e-09
4.43062e-09
3.56028e-09
2.81251e-09
2.17414e-09
1.63119e-09
1.17013e-09
7.79084e-10
4.49179e-10
1.77029e-10
5.44432e-12
5.13847e-12
4.22653e-10
1.3556e-09
2.45387e-09
3.64319e-09
4.89618e-09
6.19084e-09
7.50745e-09
8.82842e-09
1.01383e-08
1.14236e-08
1.26732e-08
1.38775e-08
1.50293e-08
1.61227e-08
1.71536e-08
1.81195e-08
1.9019e-08
1.9852e-08
2.06194e-08
2.13229e-08
2.1965e-08
2.25485e-08
2.30771e-08
2.35543e-08
2.3984e-08
2.43701e-08
2.47166e-08
2.5027e-08
2.5305e-08
2.55537e-08
2.57759e-08
2.59741e-08
2.61503e-08
2.6306e-08
2.64425e-08
2.65603e-08
2.66598e-08
2.67409e-08
2.68031e-08
2.68461e-08
2.68691e-08
2.68716e-08
2.68533e-08
2.68146e-08
2.67561e-08
2.66798e-08
2.65886e-08
2.64871e-08
2.63816e-08
2.62805e-08
2.61948e-08
2.61381e-08
2.61265e-08
2.61798e-08
2.63209e-08
2.65756e-08
2.69726e-08
2.75429e-08
2.83191e-08
2.93346e-08
3.06224e-08
3.22133e-08
3.41352e-08
3.64109e-08
3.90575e-08
4.20851e-08
4.54963e-08
4.92867e-08
5.34448e-08
5.7954e-08
6.27931e-08
6.79388e-08
7.33669e-08
7.90539e-08
8.49778e-08
9.11195e-08
9.74624e-08
1.03993e-07
1.10698e-07
1.1757e-07
1.24597e-07
1.3177e-07
1.3908e-07
1.46515e-07
1.54062e-07
1.61706e-07
1.69425e-07
1.77199e-07
1.84997e-07
1.92787e-07
2.00527e-07
2.08169e-07
2.15658e-07
2.22929e-07
2.29907e-07
2.36506e-07
2.42632e-07
2.48178e-07
2.53029e-07
2.57057e-07
2.59988e-07
2.61576e-07
2.62481e-07
2.61938e-07
2.59845e-07
2.56148e-07
2.50805e-07
2.43798e-07
2.35149e-07
2.24928e-07
2.13258e-07
2.00316e-07
1.86331e-07
1.7157e-07
1.5633e-07
1.40922e-07
1.25653e-07
1.10808e-07
9.66374e-08
8.33469e-08
7.10871e-08
5.99538e-08
4.99894e-08
4.11888e-08
3.35071e-08
2.68688e-08
2.11762e-08
1.63204e-08
1.21871e-08
8.66395e-09
5.6481e-09
3.06047e-09
9.47065e-10
1.15587e-11
8.39153e-12
9.90017e-10
4.06355e-09
8.10171e-09
1.25209e-08
1.71533e-08
2.19141e-08
2.67358e-08
3.15588e-08
3.63298e-08
4.10029e-08
4.55386e-08
4.99045e-08
5.40747e-08
5.80295e-08
6.17548e-08
6.52419e-08
6.84868e-08
7.14896e-08
7.42537e-08
7.6786e-08
7.90956e-08
8.11934e-08
8.30921e-08
8.48051e-08
8.63464e-08
8.77302e-08
8.89703e-08
9.00801e-08
9.1072e-08
9.19573e-08
9.2746e-08
9.34466e-08
9.40659e-08
9.46091e-08
9.50798e-08
9.548e-08
9.58101e-08
9.60693e-08
9.62558e-08
9.63671e-08
9.64008e-08
9.63545e-08
9.6227e-08
9.60194e-08
9.57346e-08
9.53793e-08
9.49651e-08
9.45088e-08
9.40342e-08
9.35725e-08
9.31639e-08
9.2859e-08
9.27159e-08
9.2807e-08
9.32145e-08
9.40312e-08
9.53591e-08
9.73075e-08
9.99905e-08
1.03523e-07
1.08017e-07
1.13575e-07
1.20287e-07
1.28221e-07
1.37425e-07
1.4792e-07
1.597e-07
1.72733e-07
1.86963e-07
2.02319e-07
2.18714e-07
2.36058e-07
2.5426e-07
2.73237e-07
2.92912e-07
3.13222e-07
3.34117e-07
3.55557e-07
3.77512e-07
3.99958e-07
4.22878e-07
4.46255e-07
4.70074e-07
4.94313e-07
5.18951e-07
5.43956e-07
5.69287e-07
5.94892e-07
6.20703e-07
6.4663e-07
6.72566e-07
6.98376e-07
7.23893e-07
7.48922e-07
7.73229e-07
7.96538e-07
8.18534e-07
8.38856e-07
8.5714e-07
8.73158e-07
8.8525e-07
8.92831e-07
8.98671e-07
8.99551e-07
8.95068e-07
8.8498e-07
8.69063e-07
8.47166e-07
8.19279e-07
7.85576e-07
7.46434e-07
7.02444e-07
6.54394e-07
6.03242e-07
5.50071e-07
4.96027e-07
4.42254e-07
3.8983e-07
3.39704e-07
2.92654e-07
2.49254e-07
2.09872e-07
1.74669e-07
1.43628e-07
1.16584e-07
9.32511e-08
7.32663e-08
5.62178e-08
4.16708e-08
2.91947e-08
1.84053e-08
9.13092e-09
2.22229e-09
1.88785e-11
1.20731e-11
1.66797e-09
8.23279e-09
1.81929e-08
2.95703e-08
4.15802e-08
5.39002e-08
6.63359e-08
7.87346e-08
9.0966e-08
1.02918e-07
1.14494e-07
1.25617e-07
1.36223e-07
1.46268e-07
1.55717e-07
1.6455e-07
1.72761e-07
1.80351e-07
1.8733e-07
1.93718e-07
1.99538e-07
2.04819e-07
2.09594e-07
2.13898e-07
2.17765e-07
2.21232e-07
2.24334e-07
2.27104e-07
2.29574e-07
2.3177e-07
2.33717e-07
2.35436e-07
2.36943e-07
2.38249e-07
2.39361e-07
2.40284e-07
2.41015e-07
2.41553e-07
2.4189e-07
2.42018e-07
2.41931e-07
2.4162e-07
2.41084e-07
2.40323e-07
2.39346e-07
2.38171e-07
2.36827e-07
2.3536e-07
2.33831e-07
2.32321e-07
2.30934e-07
2.298e-07
2.29064e-07
2.2891e-07
2.29544e-07
2.31193e-07
2.34108e-07
2.38554e-07
2.448e-07
2.53117e-07
2.6376e-07
2.76956e-07
2.92893e-07
3.11706e-07
3.33469e-07
3.5819e-07
3.85812e-07
4.16215e-07
4.49227e-07
4.84641e-07
5.22227e-07
5.61752e-07
6.02994e-07
6.45753e-07
6.8986e-07
7.35186e-07
7.81635e-07
8.29146e-07
8.7768e-07
9.27224e-07
9.77773e-07
1.02933e-06
1.08191e-06
1.13551e-06
1.19012e-06
1.24574e-06
1.30231e-06
1.35978e-06
1.41805e-06
1.47695e-06
1.5363e-06
1.59584e-06
1.65522e-06
1.71403e-06
1.77176e-06
1.82779e-06
1.88139e-06
1.93168e-06
1.97818e-06
2.02035e-06
2.05246e-06
2.07506e-06
2.0942e-06
2.10207e-06
2.0973e-06
2.07928e-06
2.04734e-06
2.00098e-06
1.94002e-06
1.86473e-06
1.77588e-06
1.67478e-06
1.56326e-06
1.44356e-06
1.31827e-06
1.1902e-06
1.06215e-06
9.36818e-07
8.16596e-07
7.03473e-07
5.98944e-07
5.03983e-07
4.19049e-07
3.44148e-07
2.78892e-07
2.22592e-07
1.74342e-07
1.33103e-07
9.7767e-08
6.72522e-08
4.07238e-08
1.84263e-08
3.74804e-09
2.71471e-11
1.61051e-11
2.40439e-09
1.34429e-08
3.25799e-08
5.58729e-08
8.09914e-08
1.06884e-07
1.33003e-07
1.58988e-07
1.84556e-07
2.09478e-07
2.33561e-07
2.56651e-07
2.78628e-07
2.99401e-07
3.18911e-07
3.37122e-07
3.54023e-07
3.69625e-07
3.83952e-07
3.97048e-07
4.08964e-07
4.19763e-07
4.29513e-07
4.38287e-07
4.46159e-07
4.53202e-07
4.59489e-07
4.65087e-07
4.70058e-07
4.74458e-07
4.78335e-07
4.81726e-07
4.84663e-07
4.87166e-07
4.89245e-07
4.90904e-07
4.92138e-07
4.92934e-07
4.93276e-07
4.93144e-07
4.9252e-07
4.91387e-07
4.89737e-07
4.87574e-07
4.84914e-07
4.81797e-07
4.78288e-07
4.74481e-07
4.70507e-07
4.66537e-07
4.62787e-07
4.59526e-07
4.57047e-07
4.55725e-07
4.5597e-07
4.58234e-07
4.63004e-07
4.70788e-07
4.82097e-07
4.97428e-07
5.17238e-07
5.4192e-07
5.71773e-07
6.06989e-07
6.47631e-07
6.93634e-07
7.44811e-07
8.00857e-07
8.61382e-07
9.25942e-07
9.9407e-07
1.06531e-06
1.13926e-06
1.21554e-06
1.29389e-06
1.3741e-06
1.45606e-06
1.53972e-06
1.62511e-06
1.71224e-06
1.80115e-06
1.89193e-06
1.98466e-06
2.07942e-06
2.17627e-06
2.27524e-06
2.37634e-06
2.47956e-06
2.58477e-06
2.69173e-06
2.80013e-06
2.90953e-06
3.01935e-06
3.12884e-06
3.23707e-06
3.34291e-06
3.44494e-06
3.54143e-06
3.63262e-06
3.71506e-06
3.77959e-06
3.82691e-06
3.86783e-06
3.88913e-06
3.88676e-06
3.85978e-06
3.80694e-06
3.72722e-06
3.62014e-06
3.48605e-06
3.32625e-06
3.143e-06
2.93951e-06
2.71985e-06
2.48874e-06
2.25131e-06
2.01284e-06
1.7784e-06
1.5526e-06
1.33931e-06
1.14155e-06
9.61326e-07
7.99705e-07
6.56811e-07
5.32022e-07
4.241e-07
3.31343e-07
2.5174e-07
1.83146e-07
1.23546e-07
7.18273e-08
2.99701e-08
5.40259e-09
3.61721e-11
2.04344e-11
3.18202e-09
1.93179e-08
5.04889e-08
9.11404e-08
1.36402e-07
1.83633e-07
2.31439e-07
2.78987e-07
3.25696e-07
3.71126e-07
4.1493e-07
4.56834e-07
4.96631e-07
5.34173e-07
5.69363e-07
6.0215e-07
6.32527e-07
6.60521e-07
6.86187e-07
7.09608e-07
7.30886e-07
7.50136e-07
7.67487e-07
7.8307e-07
7.9702e-07
8.09471e-07
8.20551e-07
8.30379e-07
8.39064e-07
8.46702e-07
8.53374e-07
8.59144e-07
8.64059e-07
8.68148e-07
8.71426e-07
8.73887e-07
8.75516e-07
8.76282e-07
8.76148e-07
8.75073e-07
8.73018e-07
8.69949e-07
8.65852e-07
8.60731e-07
8.54621e-07
8.47595e-07
8.39776e-07
8.31339e-07
8.22528e-07
8.13655e-07
8.05112e-07
7.97379e-07
7.90973e-07
7.86552e-07
7.84825e-07
7.86561e-07
7.92578e-07
8.03711e-07
8.20788e-07
8.44587e-07
8.75811e-07
9.15025e-07
9.62631e-07
1.01883e-06
1.08361e-06
1.15678e-06
1.23792e-06
1.32643e-06
1.42158e-06
1.52261e-06
1.62874e-06
1.73924e-06
1.85347e-06
1.97088e-06
2.09109e-06
2.21388e-06
2.33912e-06
2.46682e-06
2.59701e-06
2.72988e-06
2.86562e-06
3.00444e-06
3.14654e-06
3.29214e-06
3.44138e-06
3.59439e-06
3.7512e-06
3.91172e-06
4.07583e-06
4.24324e-06
4.41347e-06
4.58586e-06
4.75945e-06
4.933e-06
5.10504e-06
5.2737e-06
5.43667e-06
5.59112e-06
5.73763e-06
5.86961e-06
5.97515e-06
6.0524e-06
6.11771e-06
6.15497e-06
6.15412e-06
6.11451e-06
6.03442e-06
5.91236e-06
5.74763e-06
5.54078e-06
5.29369e-06
5.00975e-06
4.69374e-06
4.35172e-06
3.99078e-06
3.61871e-06
3.24354e-06
2.87315e-06
2.51479e-06
2.17471e-06
1.85789e-06
1.56782e-06
1.30648e-06
1.07443e-06
8.70917e-07
6.94141e-07
5.41469e-07
4.09696e-07
2.95409e-07
1.95628e-07
1.09626e-07
4.28782e-08
7.14148e-09
4.58162e-11
2.50238e-11
3.9948e-09
2.56229e-08
7.10278e-08
1.34205e-07
2.07217e-07
2.84787e-07
3.63894e-07
4.42748e-07
5.20192e-07
5.9541e-07
6.67795e-07
7.36895e-07
8.0238e-07
8.6402e-07
9.21678e-07
9.75292e-07
1.02487e-06
1.07046e-06
1.11219e-06
1.1502e-06
1.18466e-06
1.21578e-06
1.24377e-06
1.26884e-06
1.29123e-06
1.31116e-06
1.32882e-06
1.34441e-06
1.3581e-06
1.37005e-06
1.38037e-06
1.38916e-06
1.39649e-06
1.40239e-06
1.40687e-06
1.40991e-06
1.41147e-06
1.41149e-06
1.40989e-06
1.40661e-06
1.40156e-06
1.39469e-06
1.38598e-06
1.37543e-06
1.36311e-06
1.34915e-06
1.33376e-06
1.31723e-06
1.29998e-06
1.28253e-06
1.26553e-06
1.24973e-06
1.23599e-06
1.22533e-06
1.21886e-06
1.21776e-06
1.22327e-06
1.23663e-06
1.25904e-06
1.2916e-06
1.33531e-06
1.39087e-06
1.45874e-06
1.5391e-06
1.63177e-06
1.73623e-06
1.85175e-06
1.97735e-06
2.11194e-06
2.25432e-06
2.40335e-06
2.55799e-06
2.71736e-06
2.88081e-06
3.04789e-06
3.21831e-06
3.392e-06
3.56904e-06
3.74963e-06
3.93407e-06
4.12272e-06
4.31594e-06
4.51409e-06
4.71749e-06
4.92641e-06
5.14102e-06
5.3614e-06
5.58742e-06
5.81887e-06
6.05525e-06
6.29583e-06
6.53951e-06
6.78487e-06
7.03008e-06
7.2727e-06
7.50988e-06
7.73825e-06
7.9539e-06
8.15538e-06
8.33728e-06
8.4842e-06
8.5881e-06
8.67055e-06
8.71892e-06
8.71247e-06
8.65188e-06
8.5355e-06
8.36166e-06
8.1297e-06
7.84046e-06
7.49657e-06
7.10248e-06
6.66446e-06
6.19045e-06
5.68971e-06
5.17247e-06
4.64942e-06
4.13111e-06
3.62745e-06
3.14716e-06
2.69734e-06
2.28322e-06
1.908e-06
1.57289e-06
1.27728e-06
1.01896e-06
7.9443e-07
5.99296e-07
4.28851e-07
2.7945e-07
1.51869e-07
5.65744e-08
8.94583e-09
5.59793e-11
2.98457e-11
4.83991e-09
3.22301e-08
9.34576e-08
1.83583e-07
2.91772e-07
4.0921e-07
5.30269e-07
6.5151e-07
7.70742e-07
8.86492e-07
9.97732e-07
1.10373e-06
1.20398e-06
1.29814e-06
1.38603e-06
1.46757e-06
1.54282e-06
1.61188e-06
1.67496e-06
1.73229e-06
1.78416e-06
1.83089e-06
1.87281e-06
1.91028e-06
1.94363e-06
1.97319e-06
1.99927e-06
2.02217e-06
2.04213e-06
2.05937e-06
2.07407e-06
2.08635e-06
2.09629e-06
2.10393e-06
2.10926e-06
2.11223e-06
2.11277e-06
2.11075e-06
2.10607e-06
2.09857e-06
2.08816e-06
2.07474e-06
2.05828e-06
2.0388e-06
2.01641e-06
1.99133e-06
1.9639e-06
1.9346e-06
1.90407e-06
1.87312e-06
1.84276e-06
1.81409e-06
1.78841e-06
1.76723e-06
1.75214e-06
1.74485e-06
1.74711e-06
1.76059e-06
1.78692e-06
1.82751e-06
1.88354e-06
1.95591e-06
2.04512e-06
2.15121e-06
2.27381e-06
2.4121e-06
2.56486e-06
2.73067e-06
2.90793e-06
3.095e-06
3.29031e-06
3.49251e-06
3.70045e-06
3.91334e-06
4.13065e-06
4.3521e-06
4.57771e-06
4.80765e-06
5.04227e-06
5.28205e-06
5.52748e-06
5.7791e-06
6.03738e-06
6.30277e-06
6.57557e-06
6.856e-06
7.14406e-06
7.43952e-06
7.74193e-06
8.05047e-06
8.36395e-06
8.6807e-06
8.99858e-06
9.31489e-06
9.62624e-06
9.92873e-06
1.02179e-05
1.04888e-05
1.07369e-05
1.09561e-05
1.11376e-05
1.12581e-05
1.13427e-05
1.13914e-05
1.13682e-05
1.12759e-05
1.11138e-05
1.08803e-05
1.0575e-05
1.01992e-05
9.75616e-06
9.2513e-06
8.69205e-06
8.08782e-06
7.44962e-06
6.78966e-06
6.12079e-06
5.4559e-06
4.80722e-06
4.18572e-06
3.60059e-06
3.0588e-06
2.56492e-06
2.12105e-06
1.7269e-06
1.38009e-06
1.07644e-06
8.10515e-07
5.76562e-07
3.70835e-07
1.96731e-07
7.07229e-08
1.08051e-08
6.65868e-11
3.48789e-11
5.71549e-09
3.90739e-08
1.17252e-07
2.3787e-07
3.8794e-07
5.54591e-07
7.28629e-07
9.04081e-07
1.07711e-06
1.2452e-06
1.40662e-06
1.56021e-06
1.70521e-06
1.84113e-06
1.96772e-06
2.08493e-06
2.19285e-06
2.29168e-06
2.38174e-06
2.46341e-06
2.53712e-06
2.60337e-06
2.66265e-06
2.71545e-06
2.76229e-06
2.80362e-06
2.83991e-06
2.87155e-06
2.89889e-06
2.92222e-06
2.94177e-06
2.95771e-06
2.97013e-06
2.97904e-06
2.98442e-06
2.98616e-06
2.98413e-06
2.97813e-06
2.96799e-06
2.9535e-06
2.93447e-06
2.91081e-06
2.88248e-06
2.84951e-06
2.81211e-06
2.77062e-06
2.72557e-06
2.6777e-06
2.62796e-06
2.57753e-06
2.52793e-06
2.48064e-06
2.43758e-06
2.40082e-06
2.37255e-06
2.35499e-06
2.35045e-06
2.36116e-06
2.38918e-06
2.43634e-06
2.50401e-06
2.59318e-06
2.70429e-06
2.83719e-06
2.9912e-06
3.16504e-06
3.35703e-06
3.56517e-06
3.7873e-06
4.02127e-06
4.26508e-06
4.51699e-06
4.77562e-06
5.04e-06
5.30953e-06
5.58397e-06
5.86338e-06
6.14809e-06
6.43859e-06
6.73548e-06
7.03941e-06
7.35104e-06
7.67094e-06
7.9996e-06
8.33733e-06
8.68423e-06
9.04016e-06
9.40464e-06
9.7768e-06
1.01553e-05
1.05384e-05
1.09236e-05
1.1308e-05
1.16877e-05
1.20584e-05
1.24153e-05
1.27526e-05
1.30646e-05
1.33449e-05
1.35859e-05
1.37812e-05
1.39092e-05
1.3978e-05
1.40135e-05
1.39624e-05
1.3829e-05
1.36139e-05
1.33165e-05
1.29366e-05
1.24758e-05
1.19378e-05
1.13287e-05
1.06567e-05
9.93221e-06
9.16733e-06
8.37575e-06
7.57195e-06
6.77064e-06
5.98597e-06
5.23088e-06
4.51641e-06
3.85123e-06
3.24126e-06
2.68957e-06
2.19641e-06
1.75939e-06
1.37388e-06
1.03362e-06
7.32156e-07
4.66254e-07
2.42907e-07
8.51334e-08
1.27123e-08
7.75838e-11
4.01065e-11
6.61999e-09
4.61199e-08
1.42066e-07
2.95915e-07
4.93581e-07
7.18073e-07
9.55839e-07
1.19747e-06
1.43672e-06
1.66947e-06
1.89301e-06
2.1055e-06
2.3058e-06
2.49321e-06
2.66742e-06
2.82836e-06
2.97621e-06
3.11131e-06
3.23413e-06
3.34524e-06
3.44529e-06
3.53495e-06
3.61493e-06
3.68595e-06
3.74869e-06
3.80379e-06
3.85188e-06
3.89348e-06
3.92905e-06
3.95899e-06
3.98356e-06
4.00297e-06
4.01731e-06
4.02657e-06
4.03066e-06
4.02943e-06
4.02265e-06
4.01005e-06
3.99133e-06
3.96624e-06
3.93452e-06
3.89605e-06
3.85079e-06
3.79886e-06
3.74058e-06
3.67648e-06
3.60735e-06
3.53428e-06
3.45865e-06
3.38212e-06
3.30683e-06
3.23462e-06
3.1682e-06
3.11032e-06
3.06386e-06
3.03177e-06
3.01692e-06
3.02208e-06
3.04978e-06
3.10215e-06
3.18077e-06
3.28665e-06
3.4201e-06
3.5807e-06
3.76733e-06
3.97819e-06
4.21099e-06
4.46309e-06
4.73172e-06
5.01413e-06
5.30785e-06
5.61074e-06
5.92116e-06
6.23796e-06
6.56048e-06
6.8885e-06
7.22217e-06
7.5619e-06
7.90832e-06
8.26217e-06
8.6242e-06
8.99515e-06
9.37561e-06
9.76604e-06
1.01666e-05
1.05773e-05
1.09976e-05
1.14266e-05
1.18628e-05
1.23043e-05
1.27485e-05
1.31921e-05
1.36311e-05
1.40609e-05
1.44761e-05
1.48709e-05
1.5239e-05
1.55737e-05
1.58679e-05
1.6114e-05
1.63049e-05
1.64205e-05
1.64646e-05
1.64725e-05
1.63858e-05
1.62051e-05
1.59341e-05
1.5573e-05
1.51218e-05
1.45825e-05
1.39589e-05
1.32571e-05
1.24857e-05
1.16556e-05
1.07795e-05
9.87209e-06
8.94883e-06
8.02582e-06
7.11876e-06
6.24224e-06
5.40896e-06
4.62915e-06
3.91007e-06
3.25581e-06
2.66723e-06
2.14209e-06
1.67548e-06
1.26056e-06
8.90494e-07
5.63066e-07
2.89535e-07
9.9699e-08
1.46625e-08
8.89311e-11
4.55147e-11
7.55205e-09
5.33497e-08
1.67683e-07
3.56856e-07
6.06801e-07
8.96739e-07
1.20822e-06
1.52756e-06
1.8453e-06
2.15513e-06
2.45285e-06
2.73573e-06
3.00205e-06
3.25085e-06
3.48166e-06
3.69447e-06
3.88954e-06
4.06739e-06
4.22869e-06
4.37425e-06
4.50497e-06
4.62178e-06
4.72566e-06
4.81755e-06
4.89838e-06
4.96901e-06
5.03022e-06
5.08271e-06
5.12707e-06
5.16377e-06
5.19315e-06
5.21543e-06
5.23069e-06
5.23887e-06
5.23983e-06
5.23332e-06
5.21899e-06
5.19648e-06
5.1654e-06
5.12539e-06
5.07613e-06
5.01753e-06
4.94958e-06
4.87251e-06
4.78682e-06
4.69332e-06
4.59314e-06
4.48777e-06
4.37912e-06
4.26946e-06
4.16169e-06
4.05822e-06
3.96264e-06
3.87845e-06
3.80928e-06
3.75879e-06
3.73053e-06
3.72782e-06
3.75362e-06
3.81033e-06
3.89968e-06
4.02261e-06
4.17919e-06
4.36861e-06
4.5892e-06
4.83853e-06
5.11358e-06
5.41099e-06
5.72729e-06
6.05911e-06
6.40343e-06
6.75772e-06
7.12006e-06
7.48912e-06
7.86419e-06
8.24506e-06
8.63194e-06
9.02537e-06
9.42607e-06
9.83488e-06
1.02526e-05
1.068e-05
1.11177e-05
1.15659e-05
1.20245e-05
1.24933e-05
1.29711e-05
1.34565e-05
1.39474e-05
1.4441e-05
1.49339e-05
1.54218e-05
1.58999e-05
1.63628e-05
1.68044e-05
1.72185e-05
1.75982e-05
1.79365e-05
1.82263e-05
1.84603e-05
1.86315e-05
1.87243e-05
1.87275e-05
1.86995e-05
1.8575e-05
1.83454e-05
1.80193e-05
1.75987e-05
1.70836e-05
1.64757e-05
1.57786e-05
1.49985e-05
1.41437e-05
1.32249e-05
1.22552e-05
1.12495e-05
1.02239e-05
9.19556e-06
8.18134e-06
7.19721e-06
6.2574e-06
5.37359e-06
4.55438e-06
3.80489e-06
3.12668e-06
2.51779e-06
1.97314e-06
1.48551e-06
1.0479e-06
6.59472e-07
3.36087e-07
1.14362e-07
1.66527e-08
1.00604e-10
5.10919e-11
8.51044e-09
6.07525e-08
1.93971e-07
4.20075e-07
7.26057e-07
1.08792e-06
1.48206e-06
1.8898e-06
2.2977e-06
2.69657e-06
3.08026e-06
3.4448e-06
3.7877e-06
4.10758e-06
4.40384e-06
4.67645e-06
4.92581e-06
5.15265e-06
5.35789e-06
5.54264e-06
5.70811e-06
5.85554e-06
5.9862e-06
6.10134e-06
6.20214e-06
6.28971e-06
6.36505e-06
6.42903e-06
6.48237e-06
6.52564e-06
6.55922e-06
6.58335e-06
6.59808e-06
6.6033e-06
6.59877e-06
6.58412e-06
6.5589e-06
6.52263e-06
6.47481e-06
6.415e-06
6.3428e-06
6.25825e-06
6.16132e-06
6.05244e-06
5.93237e-06
5.80228e-06
5.66376e-06
5.51889e-06
5.3702e-06
5.22075e-06
5.07411e-06
4.93351e-06
4.80349e-06
4.68839e-06
4.59267e-06
4.52074e-06
4.47681e-06
4.46477e-06
4.48793e-06
4.54893e-06
4.64951e-06
4.79044e-06
4.97144e-06
5.19116e-06
5.44724e-06
5.7365e-06
6.05511e-06
6.39887e-06
6.76355e-06
7.1451e-06
7.53996e-06
7.94518e-06
8.35855e-06
8.77859e-06
9.20454e-06
9.6362e-06
1.00739e-05
1.05182e-05
1.097e-05
1.14301e-05
1.18994e-05
1.23786e-05
1.2868e-05
1.33678e-05
1.38774e-05
1.4396e-05
1.4922e-05
1.54531e-05
1.59865e-05
1.65186e-05
1.7045e-05
1.75609e-05
1.80608e-05
1.85387e-05
1.89883e-05
1.9403e-05
1.97761e-05
2.0101e-05
2.03707e-05
2.05786e-05
2.07181e-05
2.07812e-05
2.07394e-05
2.06549e-05
2.05027e-05
2.02262e-05
1.98492e-05
1.93761e-05
1.88065e-05
1.81417e-05
1.73851e-05
1.6542e-05
1.56203e-05
1.46303e-05
1.35848e-05
1.24984e-05
1.13878e-05
1.02704e-05
9.16421e-06
8.08633e-06
7.05236e-06
6.07542e-06
5.16544e-06
4.32867e-06
3.56744e-06
2.88016e-06
2.26175e-06
1.70469e-06
1.20201e-06
7.54361e-07
3.82263e-07
1.29096e-07
1.86816e-08
1.1259e-10
5.68282e-11
9.49404e-09
6.83212e-08
2.2085e-07
4.85145e-07
8.50162e-07
1.28935e-06
1.7739e-06
2.27963e-06
2.78843e-06
3.28754e-06
3.76835e-06
4.22525e-06
4.65478e-06
5.055e-06
5.4251e-06
5.76503e-06
6.07535e-06
6.35701e-06
6.61126e-06
6.83956e-06
7.04346e-06
7.22459e-06
7.38456e-06
7.52495e-06
7.64726e-06
7.75286e-06
7.84298e-06
7.91869e-06
7.98084e-06
8.03009e-06
8.06689e-06
8.09145e-06
8.1038e-06
8.10374e-06
8.09092e-06
8.06486e-06
8.02495e-06
7.9706e-06
7.90119e-06
7.81623e-06
7.71529e-06
7.59855e-06
7.46608e-06
7.31857e-06
7.15713e-06
6.98338e-06
6.7995e-06
6.60822e-06
6.41284e-06
6.21749e-06
6.02617e-06
5.84336e-06
5.67452e-06
5.5249e-06
5.39982e-06
5.30447e-06
5.24371e-06
5.2219e-06
5.24269e-06
5.3088e-06
5.42189e-06
5.58241e-06
5.78957e-06
6.04134e-06
6.33457e-06
6.66516e-06
7.02836e-06
7.41909e-06
7.83228e-06
8.26317e-06
8.70766e-06
9.16237e-06
9.62484e-06
1.00935e-05
1.05675e-05
1.10467e-05
1.15315e-05
1.20226e-05
1.25209e-05
1.30273e-05
1.35426e-05
1.40673e-05
1.46015e-05
1.5145e-05
1.56967e-05
1.62551e-05
1.6818e-05
1.73823e-05
1.79444e-05
1.85e-05
1.9044e-05
1.95711e-05
2.00754e-05
2.05509e-05
2.09913e-05
2.13903e-05
2.17417e-05
2.20392e-05
2.22769e-05
2.24491e-05
2.255e-05
2.25749e-05
2.24921e-05
2.23431e-05
2.21573e-05
2.18482e-05
2.14261e-05
2.09089e-05
2.02951e-05
1.95858e-05
1.87835e-05
1.78926e-05
1.69202e-05
1.58758e-05
1.47714e-05
1.36212e-05
1.24418e-05
1.12509e-05
1.00671e-05
8.90848e-06
7.792e-06
6.73219e-06
5.74035e-06
4.82396e-06
3.98624e-06
3.22613e-06
2.53863e-06
1.91606e-06
1.35151e-06
8.47138e-07
4.27925e-07
1.43894e-07
2.07498e-08
1.24889e-10
6.27153e-11
1.05018e-08
7.60507e-08
2.48272e-07
5.51779e-07
9.78235e-07
1.49917e-06
2.08072e-06
2.69286e-06
3.31215e-06
3.92168e-06
4.50984e-06
5.06901e-06
5.59448e-06
6.08362e-06
6.5353e-06
6.94948e-06
7.32684e-06
7.66864e-06
7.97647e-06
8.25219e-06
8.49776e-06
8.71523e-06
8.90662e-06
9.07388e-06
9.21884e-06
9.34318e-06
9.44838e-06
9.5357e-06
9.60614e-06
9.66045e-06
9.69912e-06
9.72234e-06
9.73008e-06
9.72205e-06
9.69778e-06
9.65664e-06
9.5979e-06
9.52082e-06
9.42473e-06
9.30905e-06
9.17344e-06
9.01819e-06
8.84361e-06
8.65072e-06
8.44109e-06
8.21691e-06
7.98105e-06
7.73704e-06
7.48905e-06
7.24249e-06
7.00161e-06
6.77256e-06
6.56163e-06
6.37504e-06
6.21898e-06
6.0994e-06
6.02176e-06
5.99082e-06
6.01044e-06
6.08331e-06
6.21085e-06
6.39303e-06
6.62842e-06
6.91415e-06
7.2461e-06
7.61919e-06
8.02763e-06
8.46538e-06
8.9265e-06
9.40554e-06
9.89784e-06
1.03996e-05
1.09083e-05
1.14221e-05
1.19402e-05
1.24626e-05
1.29898e-05
1.35226e-05
1.40618e-05
1.46084e-05
1.51629e-05
1.57258e-05
1.62967e-05
1.68747e-05
1.74585e-05
1.80456e-05
1.86332e-05
1.92174e-05
1.97939e-05
2.03579e-05
2.09039e-05
2.14264e-05
2.19195e-05
2.23775e-05
2.27944e-05
2.31646e-05
2.34826e-05
2.37429e-05
2.39407e-05
2.4071e-05
2.41294e-05
2.41123e-05
2.39915e-05
2.37864e-05
2.35521e-05
2.32214e-05
2.27663e-05
2.22136e-05
2.15659e-05
2.08239e-05
1.99889e-05
1.90643e-05
1.80561e-05
1.69727e-05
1.58249e-05
1.46265e-05
1.33932e-05
1.2143e-05
1.08947e-05
9.66728e-06
8.47891e-06
7.34552e-06
6.27989e-06
5.29083e-06
4.38264e-06
3.55491e-06
2.80287e-06
2.11879e-06
1.49587e-06
9.37577e-07
4.73043e-07
1.5877e-07
2.28594e-08
1.3751e-10
6.87455e-11
1.15329e-08
8.3937e-08
2.76208e-07
6.1979e-07
1.10964e-06
1.71594e-06
2.40004e-06
3.12579e-06
3.86398e-06
4.59296e-06
5.29763e-06
5.96798e-06
6.59779e-06
7.18358e-06
7.72384e-06
8.21844e-06
8.66828e-06
9.07488e-06
9.44027e-06
9.76672e-06
1.00567e-05
1.03127e-05
1.05372e-05
1.07325e-05
1.09009e-05
1.10443e-05
1.11646e-05
1.1263e-05
1.13409e-05
1.13991e-05
1.1438e-05
1.14578e-05
1.14584e-05
1.14394e-05
1.14003e-05
1.13402e-05
1.12582e-05
1.11536e-05
1.10256e-05
1.08735e-05
1.06973e-05
1.04973e-05
1.02742e-05
1.00295e-05
9.76526e-06
9.4844e-06
9.1906e-06
8.88832e-06
8.58274e-06
8.28055e-06
7.98643e-06
7.70824e-06
7.45314e-06
7.22833e-06
7.04087e-06
6.8974e-06
6.8039e-06
6.76543e-06
6.7859e-06
6.86785e-06
7.01227e-06
7.21852e-06
7.48433e-06
7.80584e-06
8.17788e-06
8.59422e-06
9.04799e-06
9.53214e-06
1.00399e-05
1.0565e-05
1.11024e-05
1.1648e-05
1.2199e-05
1.27536e-05
1.33111e-05
1.38716e-05
1.44356e-05
1.5004e-05
1.55778e-05
1.61577e-05
1.67441e-05
1.7337e-05
1.79356e-05
1.85386e-05
1.91437e-05
1.9748e-05
2.03479e-05
2.09388e-05
2.1516e-05
2.20744e-05
2.26084e-05
2.31127e-05
2.35816e-05
2.401e-05
2.43927e-05
2.47248e-05
2.50017e-05
2.52188e-05
2.53721e-05
2.54578e-05
2.54721e-05
2.5412e-05
2.52585e-05
2.50074e-05
2.47253e-05
2.4359e-05
2.38933e-05
2.33141e-05
2.26416e-05
2.18774e-05
2.10212e-05
2.00755e-05
1.90446e-05
1.79358e-05
1.67586e-05
1.55256e-05
1.4252e-05
1.29551e-05
1.16542e-05
1.03687e-05
9.11796e-06
7.91925e-06
6.78694e-06
5.73132e-06
4.75791e-06
3.86717e-06
3.05475e-06
2.31295e-06
1.63508e-06
1.02571e-06
5.17659e-07
1.73745e-07
2.50138e-08
1.50471e-10
7.49126e-11
1.25863e-08
9.19765e-08
3.04637e-07
6.89054e-07
1.24393e-06
1.93856e-06
2.72982e-06
3.5753e-06
4.4396e-06
5.29588e-06
6.12509e-06
6.91447e-06
7.65602e-06
8.34526e-06
8.98021e-06
9.56065e-06
1.00876e-05
1.05631e-05
1.09894e-05
1.13693e-05
1.17059e-05
1.20022e-05
1.2261e-05
1.24852e-05
1.26774e-05
1.28399e-05
1.29748e-05
1.30837e-05
1.31679e-05
1.32284e-05
1.32656e-05
1.32797e-05
1.32705e-05
1.32374e-05
1.31798e-05
1.30966e-05
1.2987e-05
1.28499e-05
1.26847e-05
1.24906e-05
1.2268e-05
1.20173e-05
1.17396e-05
1.14371e-05
1.11124e-05
1.07693e-05
1.04124e-05
1.00472e-05
9.68017e-06
9.3188e-06
8.96901e-06
8.63994e-06
8.33979e-06
8.07671e-06
7.85854e-06
7.69255e-06
7.58513e-06
7.54151e-06
7.56551e-06
7.65931e-06
7.82335e-06
8.05617e-06
8.35451e-06
8.71342e-06
9.1265e-06
9.58631e-06
1.00849e-05
1.0614e-05
1.11662e-05
1.17346e-05
1.23136e-05
1.28989e-05
1.34875e-05
1.40779e-05
1.46694e-05
1.52621e-05
1.58569e-05
1.64545e-05
1.7056e-05
1.76619e-05
1.82723e-05
1.88868e-05
1.95041e-05
2.01221e-05
2.07379e-05
2.13479e-05
2.19485e-05
2.2534e-05
2.30997e-05
2.36404e-05
2.41509e-05
2.46262e-05
2.50612e-05
2.54515e-05
2.57927e-05
2.60811e-05
2.63133e-05
2.64858e-05
2.65946e-05
2.66364e-05
2.6608e-05
2.65056e-05
2.63229e-05
2.60349e-05
2.57045e-05
2.53062e-05
2.48236e-05
2.4238e-05
2.35482e-05
2.27705e-05
2.19028e-05
2.09461e-05
1.99037e-05
1.87811e-05
1.75864e-05
1.63309e-05
1.50287e-05
1.36966e-05
1.23535e-05
1.10196e-05
9.71491e-06
8.45819e-06
7.26539e-06
6.14845e-06
5.11432e-06
4.16452e-06
3.29529e-06
2.49916e-06
1.76949e-06
1.11174e-06
5.6186e-07
1.88854e-07
2.72177e-08
1.63799e-10
8.12105e-11
1.36614e-08
1.00166e-07
3.3355e-07
7.59493e-07
1.38078e-06
2.16623e-06
3.06847e-06
4.0388e-06
5.03534e-06
6.02563e-06
6.98627e-06
7.90142e-06
8.76109e-06
9.55963e-06
1.02945e-05
1.09654e-05
1.15734e-05
1.2121e-05
1.26109e-05
1.30466e-05
1.34315e-05
1.37692e-05
1.40632e-05
1.43167e-05
1.45328e-05
1.47141e-05
1.4863e-05
1.49813e-05
1.50706e-05
1.51316e-05
1.5165e-05
1.51709e-05
1.5149e-05
1.50985e-05
1.50186e-05
1.49083e-05
1.47664e-05
1.45921e-05
1.43844e-05
1.41429e-05
1.38683e-05
1.35613e-05
1.32235e-05
1.28576e-05
1.24673e-05
1.20572e-05
1.1633e-05
1.12011e-05
1.07699e-05
1.03469e-05
9.94007e-06
9.55956e-06
9.21458e-06
8.91421e-06
8.66701e-06
8.48076e-06
8.36212e-06
8.31632e-06
8.34693e-06
8.45564e-06
8.64211e-06
8.90392e-06
9.23669e-06
9.63419e-06
1.00887e-05
1.05916e-05
1.11337e-05
1.17058e-05
1.22995e-05
1.29075e-05
1.35238e-05
1.4144e-05
1.47651e-05
1.53856e-05
1.60052e-05
1.66241e-05
1.72432e-05
1.78634e-05
1.84855e-05
1.911e-05
1.97366e-05
2.03642e-05
2.09911e-05
2.16148e-05
2.22312e-05
2.28364e-05
2.3424e-05
2.39924e-05
2.45361e-05
2.505e-05
2.5529e-05
2.59686e-05
2.63643e-05
2.67123e-05
2.70091e-05
2.72518e-05
2.74377e-05
2.75645e-05
2.76294e-05
2.76298e-05
2.75632e-05
2.7427e-05
2.72183e-05
2.69088e-05
2.65312e-05
2.61091e-05
2.55918e-05
2.50074e-05
2.43127e-05
2.3528e-05
2.2656e-05
2.16966e-05
2.06514e-05
1.95245e-05
1.83222e-05
1.70544e-05
1.57339e-05
1.43765e-05
1.30007e-05
1.16268e-05
1.02756e-05
8.96733e-06
7.71944e-06
6.54565e-06
5.45455e-06
4.44896e-06
3.52594e-06
2.67834e-06
1.89966e-06
1.19598e-06
6.05768e-07
2.04136e-07
2.94767e-08
1.77525e-10
8.76341e-11
1.47573e-08
1.08502e-07
3.62936e-07
8.31058e-07
1.51996e-06
2.39835e-06
3.41478e-06
4.51424e-06
5.64815e-06
6.77808e-06
7.87596e-06
8.92258e-06
9.90573e-06
1.08185e-05
1.16576e-05
1.24226e-05
1.3115e-05
1.37374e-05
1.42931e-05
1.47861e-05
1.52206e-05
1.56006e-05
1.59301e-05
1.6213e-05
1.64527e-05
1.66522e-05
1.68142e-05
1.69408e-05
1.70334e-05
1.70931e-05
1.71205e-05
1.71155e-05
1.70778e-05
1.70065e-05
1.69006e-05
1.6759e-05