/*--------------------------------*- C++ -*----------------------------------*\
  =========                 |
  \\      /  F ield         | OpenFOAM: The Open Source CFD Toolbox
   \\    /   O peration     | Website:  https://openfoam.org
    \\  /    A nd           | Version:  12
     \\/     M anipulation  |
\*---------------------------------------------------------------------------*/
FoamFile
{
    format      ascii;
    class       volScalarField;
    location    "2.5";
    object      epsilon;
}
// * * * * * * * * * * * * * * * * * * * * * * * * * * * * * * * * * * * * * //

dimensions      [0 2 -3 0 0 0 0];

internalField   nonuniform List<scalar> 
18225
(
1.87093e-06
1.26562e-05
2.81722e-05
4.66546e-05
6.72721e-05
8.94824e-05
0.000112864
0.000137054
0.000161726
0.000186575
0.000211313
0.000235673
0.000259408
0.000282293
0.000304131
0.000324751
0.000344018
0.000361828
0.000378114
0.000392842
0.000406016
0.000417673
0.000427883
0.00043675
0.00044441
0.000451029
0.000456803
0.000461958
0.000466752
0.000471473
0.000476442
0.000482015
0.000488584
0.000496578
0.000506468
0.000518765
0.000534022
0.000552836
0.000575843
0.000603718
0.000637171
0.000676945
0.000723806
0.000778542
0.000841955
0.000914856
0.000998059
0.00109238
0.00119863
0.00131763
0.00145018
0.0015971
0.0017592
0.00193732
0.00213226
0.00234489
0.00257602
0.0028265
0.00309715
0.00338878
0.00370214
0.00403793
0.00439679
0.00477927
0.00518581
0.00561675
0.00607231
0.00655261
0.00705765
0.00758732
0.00814144
0.00871974
0.00932185
0.00994737
0.0105958
0.0112666
0.0119592
0.0126728
0.0134067
0.01416
0.0149316
0.0157202
0.0165246
0.0173431
0.0181737
0.0190142
0.0198619
0.0207139
0.0215665
0.0224155
0.0232563
0.0240831
0.0248899
0.0256692
0.0264131
0.0271125
0.0277575
0.0283369
0.0288383
0.0292483
0.0295528
0.0297242
0.0297822
0.0297185
0.029492
0.0290965
0.0285284
0.0277855
0.026869
0.0257843
0.0245419
0.0231576
0.0216524
0.0200518
0.0183853
0.0166843
0.0149814
0.0133081
0.0116933
0.0101621
0.00873452
0.00742483
0.00624164
0.00518801
0.00426212
0.00345812
0.00276711
0.00217822
0.00167932
0.00125823
0.000903463
0.00060528
0.000357122
0.000158417
2.33629e-05
3.53393e-06
6.88288e-06
1.37998e-05
2.23622e-05
3.20062e-05
4.24315e-05
5.34235e-05
6.48052e-05
7.64188e-05
8.8119e-05
9.97702e-05
0.000111246
0.000122429
0.000133213
0.000143507
0.000153229
0.000162317
0.00017072
0.000178408
0.000185364
0.000191589
0.000197102
0.000201935
0.000206137
0.000209772
0.000212917
0.000215667
0.000218126
0.000220418
0.000222678
0.000225057
0.000227725
0.000230866
0.000234683
0.0002394
0.000245257
0.000252517
0.000261462
0.000272392
0.000285628
0.000301506
0.000320376
0.000342603
0.00036856
0.000398628
0.000433191
0.000472639
0.000517359
0.000567742
0.000624177
0.000687054
0.000756763
0.000833701
0.000918265
0.00101086
0.00111189
0.00122177
0.00134091
0.00146971
0.00160857
0.00175788
0.00191798
0.00208921
0.00227184
0.0024661
0.0026722
0.00289027
0.00312038
0.00336257
0.00361682
0.00388306
0.0041612
0.00445107
0.00475252
0.0050653
0.00538919
0.00572387
0.006069
0.0064242
0.006789
0.00716287
0.00754516
0.00793514
0.00833195
0.00873455
0.00914177
0.00955222
0.00996427
0.0103761
0.0107854
0.0111899
0.0115867
0.0119725
0.0123437
0.0126964
0.013026
0.0133277
0.0135961
0.0138252
0.0140087
0.0141401
0.0142075
0.0142203
0.0141724
0.0140475
0.0138426
0.0135565
0.0131886
0.0127403
0.0122144
0.0116165
0.0109541
0.0102372
0.00947776
0.00868932
0.00788637
0.00708371
0.00629567
0.00553545
0.00481446
0.00414185
0.00352424
0.00296564
0.00246754
0.00202921
0.00164803
0.00131999
0.0010401
0.000802784
0.000602415
0.000433748
0.000292453
0.000176065
8.65305e-05
4.41293e-05
7.4982e-06
6.6963e-06
1.06244e-05
1.61755e-05
2.26362e-05
2.97047e-05
3.7198e-05
4.49785e-05
5.29302e-05
6.09494e-05
6.89407e-05
7.68161e-05
8.44948e-05
9.19042e-05
9.89801e-05
0.000105668
0.000111923
0.000117713
0.000123014
0.000127817
0.000132121
0.000135938
0.00013929
0.000142212
0.000144746
0.000146946
0.000148875
0.000150608
0.000152228
0.000153828
0.000155515
0.000157404
0.000159623
0.000162314
0.00016563
0.00016974
0.000174826
0.000181083
0.000188721
0.000197962
0.000209042
0.000222205
0.000237707
0.000255811
0.000276784
0.000300899
0.000328433
0.000359665
0.000394875
0.000434346
0.000478363
0.000527215
0.000581196
0.000640606
0.000705749
0.00077694
0.000854495
0.000938738
0.00102999
0.00112858
0.00123481
0.00134899
0.0014714
0.00160229
0.00174191
0.00189044
0.00204805
0.00221486
0.00239097
0.0025764
0.00277119
0.00297528
0.00318864
0.00341114
0.00364265
0.00388298
0.00413189
0.0043891
0.00465425
0.00492692
0.0052066
0.00549269
0.00578446
0.0060811
0.00638164
0.00668495
0.00698975
0.00729459
0.00759779
0.00789747
0.00819153
0.00847761
0.00875311
0.00901519
0.00926072
0.00948639
0.00968861
0.00986351
0.010007
0.0101148
0.0101811
0.0102029
0.0101838
0.0101185
0.00999901
0.00982375
0.00959265
0.00930633
0.00896637
0.00857563
0.00813839
0.00766032
0.00714843
0.0066109
0.00605674
0.00549548
0.00493673
0.00438973
0.00386297
0.00336374
0.00289794
0.00246983
0.00208202
0.00173554
0.00142993
0.00116354
0.000933763
0.000737337
0.000570615
0.000429942
0.000312002
0.000214362
0.000136624
8.42971e-05
9.35915e-05
1.22442e-05
8.00409e-06
1.00194e-05
1.39088e-05
1.87379e-05
2.41475e-05
2.99439e-05
3.59961e-05
4.22013e-05
4.84718e-05
5.47292e-05
6.09025e-05
6.69274e-05
7.27463e-05
7.83085e-05
8.35711e-05
8.84991e-05
9.30661e-05
9.72543e-05
0.000101055
0.000104468
0.000107503
0.000110176
0.000112514
0.00011455
0.000116326
0.000117893
0.000119308
0.000120639
0.000121958
0.00012335
0.000124907
0.000126732
0.000128937
0.000131646
0.000134994
0.000139125
0.000144199
0.000150384
0.00015786
0.000166818
0.000177458
0.000189988
0.000204626
0.000221594
0.00024112
0.000263438
0.000288784
0.000317403
0.00034954
0.000385449
0.00042539
0.00046963
0.000518447
0.000572129
0.000630974
0.00069529
0.000765397
0.00084162
0.000924288
0.00101373
0.00111028
0.00121424
0.00132591
0.00144559
0.00157352
0.00170992
0.001855
0.00200889
0.00217171
0.00234351
0.00252432
0.0027141
0.00291276
0.00312015
0.00333605
0.00356018
0.00379215
0.00403151
0.0042777
0.00453005
0.00478778
0.00505
0.00531568
0.00558365
0.0058526
0.00612109
0.00638751
0.0066501
0.00690694
0.00715596
0.00739492
0.00762144
0.00783301
0.00802701
0.00820068
0.00835118
0.0084755
0.00857037
0.00863152
0.00865699
0.00864705
0.00859982
0.00851322
0.00838248
0.00820704
0.00798739
0.00772459
0.00742046
0.00707778
0.00670032
0.0062929
0.00586127
0.00541198
0.00495217
0.00448928
0.0040307
0.00358351
0.00315412
0.002748
0.00236953
0.00202184
0.00170679
0.00142506
0.00117624
0.00095901
0.000771343
0.00061074
0.000474452
0.000359793
0.000264498
0.000187352
0.000129676
0.000100569
0.000152618
1.76131e-05
1.00265e-05
1.05067e-05
1.32072e-05
1.69529e-05
2.13094e-05
2.60571e-05
3.10583e-05
3.62121e-05
4.14367e-05
4.66618e-05
5.18253e-05
5.68716e-05
6.17516e-05
6.64223e-05
7.08475e-05
7.49976e-05
7.88502e-05
8.23904e-05
8.56103e-05
8.85097e-05
9.10957e-05
9.33826e-05
9.53917e-05
9.71515e-05
9.86973e-05
0.000100071
0.000101322
0.000102506
0.000103688
0.000104937
0.000106334
0.000107967
0.000109933
0.000112338
0.0001153
0.000118944
0.00012341
0.000128846
0.000135409
0.000143269
0.000152604
0.000163602
0.000176459
0.000191378
0.000208571
0.000228257
0.000250662
0.00027602
0.000304572
0.000336573
0.000372285
0.000411985
0.000455965
0.000504531
0.000558006
0.00061673
0.000681059
0.000751364
0.000828026
0.00091143
0.00100197
0.00110002
0.00120597
0.00132017
0.00144295
0.00157461
0.0017154
0.00186553
0.00202516
0.00219434
0.0023731
0.00256136
0.00275898
0.00296569
0.00318113
0.00340485
0.00363625
0.00387463
0.00411916
0.00436886
0.00462266
0.00487934
0.00513756
0.00539587
0.00565273
0.00590645
0.0061553
0.00639742
0.00663091
0.00685378
0.00706397
0.00725943
0.00743805
0.00759773
0.00773633
0.00785173
0.0079418
0.00800275
0.00803091
0.00803221
0.00799912
0.00793268
0.00783138
0.00769189
0.00751391
0.00729789
0.00704474
0.00675602
0.00643408
0.00608221
0.00570461
0.00530637
0.00489337
0.00447205
0.00404914
0.00363136
0.0032251
0.00283609
0.00246917
0.00212809
0.00181545
0.00153271
0.00128025
0.00105752
0.000863213
0.000695464
0.000552069
0.000430699
0.000329201
0.000245987
0.000180782
0.000136419
0.000125536
0.000218995
2.34894e-05
1.2489e-05
1.16069e-05
1.33422e-05
1.62617e-05
1.98501e-05
2.38558e-05
2.81282e-05
3.25624e-05
3.70777e-05
4.16071e-05
4.60931e-05
5.04853e-05
5.47397e-05
5.8818e-05
6.26883e-05
6.63245e-05
6.97069e-05
7.2822e-05
7.5663e-05
7.82295e-05
8.05272e-05
8.25686e-05
8.43721e-05
8.59626e-05
8.7371e-05
8.86344e-05
8.97963e-05
9.09067e-05
9.20223e-05
9.32071e-05
9.45325e-05
9.6078e-05
9.79317e-05
0.000100191
0.000102962
0.000106362
0.000110519
0.000115569
0.000121661
0.000128954
0.000137617
0.00014783
0.000159783
0.000173676
0.000189718
0.000208131
0.000229145
0.000253005
0.000279967
0.000310302
0.0003443
0.000382268
0.000424534
0.000471449
0.000523387
0.000580747
0.000643949
0.000713437
0.000789671
0.00087312
0.000964264
0.00106358
0.00117153
0.00128855
0.00141506
0.00155141
0.00169791
0.0018548
0.0020222
0.00220008
0.00238837
0.00258691
0.00279536
0.00301326
0.00323997
0.00347472
0.0037166
0.00396452
0.00421727
0.00447351
0.00473178
0.00499052
0.0052481
0.00550281
0.00575294
0.00599672
0.0062324
0.00645825
0.00667255
0.00687362
0.00705974
0.00722916
0.00738073
0.00751301
0.00762461
0.00771416
0.00778043
0.00781734
0.00782876
0.00781613
0.00777246
0.00769907
0.00759462
0.00745587
0.00728217
0.00707338
0.00682974
0.00655209
0.00624211
0.00590246
0.00553684
0.00514999
0.0047476
0.0043361
0.00392235
0.00351329
0.00311556
0.00273512
0.00237696
0.00204491
0.00174152
0.00146808
0.00122481
0.00101094
0.000824999
0.000665041
0.000528851
0.000414213
0.00031921
0.000242698
0.000185132
0.000150757
0.00015565
0.000291008
2.97941e-05
1.52637e-05
1.31073e-05
1.40036e-05
1.6241e-05
1.9221e-05
2.2656e-05
2.63799e-05
3.02811e-05
3.42766e-05
3.83002e-05
4.22965e-05
4.62179e-05
5.00236e-05
5.36784e-05
5.71532e-05
6.04242e-05
6.34735e-05
6.62891e-05
6.88645e-05
7.11992e-05
7.32984e-05
7.51731e-05
7.68399e-05
7.83212e-05
7.96452e-05
8.08455e-05
8.19622e-05
8.3041e-05
8.41346e-05
8.53021e-05
8.66104e-05
8.81339e-05
8.99556e-05
9.21675e-05
9.48713e-05
9.81788e-05
0.000102212
0.000107105
0.000113003
0.000120062
0.00012845
0.000138349
0.000149952
0.000163465
0.000179107
0.000197112
0.00021773
0.000241226
0.000267886
0.000298016
0.000331944
0.000370029
0.000412651
0.000460226
0.0005132
0.00057205
0.000637284
0.00070944
0.000789077
0.000876745
0.00097303
0.00107851
0.00119373
0.00131921
0.00145541
0.00160272
0.00176145
0.00193181
0.00211383
0.00230746
0.00251243
0.00272826
0.00295433
0.00318978
0.00343359
0.00368455
0.00394125
0.00420216
0.00446558
0.00472974
0.00499281
0.00525293
0.00550825
0.00575698
0.00599742
0.00622795
0.00644713
0.00665361
0.00684623
0.00702396
0.00718594
0.00733148
0.00745963
0.00756973
0.00766113
0.00773313
0.00778496
0.00781069
0.00781677
0.0078018
0.00776009
0.00769199
0.00759602
0.00746874
0.00730845
0.00711398
0.00688452
0.00661988
0.00632078
0.0059891
0.00562799
0.00524194
0.00483668
0.00441902
0.00399644
0.00357671
0.00316738
0.00277534
0.00240635
0.00206483
0.00175369
0.00147437
0.001227
0.00101062
0.000823509
0.000663424
0.000527954
0.000414796
0.000322075
0.00024891
0.000196383
0.000169953
0.000189207
0.000367383
3.64713e-05
1.82806e-05
1.48952e-05
1.50319e-05
1.66787e-05
1.91504e-05
2.21228e-05
2.54112e-05
2.88963e-05
3.24912e-05
3.61284e-05
3.97531e-05
4.3319e-05
4.67871e-05
5.01245e-05
5.33035e-05
5.63024e-05
5.91044e-05
6.16984e-05
6.40785e-05
6.62442e-05
6.82003e-05
6.9957e-05
7.15298e-05
7.29393e-05
7.42119e-05
7.53793e-05
7.6479e-05
7.75544e-05
7.86554e-05
7.98387e-05
8.11683e-05
8.27163e-05
8.4563e-05
8.67985e-05
8.95226e-05
9.28458e-05
9.689e-05
0.000101789
0.00010769
0.000114753
0.000123152
0.000133075
0.000144727
0.000158327
0.000174114
0.000192343
0.000213292
0.000237261
0.000264574
0.000295585
0.000330679
0.000370273
0.000414818
0.00046481
0.000520782
0.000583306
0.000652992
0.000730483
0.000816458
0.000911607
0.00101661
0.00113214
0.00125883
0.00139725
0.00154789
0.00171112
0.00188717
0.00207607
0.00227771
0.00249177
0.00271765
0.0029545
0.00320123
0.00345649
0.00371873
0.00398616
0.00425687
0.0045288
0.00479982
0.00506782
0.00533072
0.00558654
0.00583346
0.00606988
0.00629441
0.00650593
0.00670356
0.00688668
0.00705489
0.00720802
0.00734604
0.00746903
0.00757697
0.00766991
0.00774777
0.00781041
0.00785742
0.0078852
0.00789592
0.00789024
0.00786254
0.00781145
0.00773515
0.00762962
0.00749179
0.00731922
0.00710982
0.00686218
0.00657592
0.00625201
0.005893
0.00550309
0.00508813
0.00465543
0.00421335
0.00377084
0.00333678
0.00291943
0.00252586
0.00216152
0.00183012
0.00153351
0.00127197
0.00104442
0.000848842
0.00068264
0.00054305
0.000427491
0.000334014
0.000261847
0.000212483
0.00019255
0.000225243
0.00044714
4.34796e-05
2.14969e-05
1.69037e-05
1.63338e-05
1.74538e-05
1.94861e-05
2.20693e-05
2.50004e-05
2.81491e-05
3.14241e-05
3.47562e-05
3.80896e-05
4.13784e-05
4.45845e-05
4.7676e-05
5.06268e-05
5.34161e-05
5.60283e-05
5.84529e-05
6.06845e-05
6.27229e-05
6.45727e-05
6.62436e-05
6.77504e-05
6.9113e-05
7.03566e-05
7.15116e-05
7.26141e-05
7.37063e-05
7.48368e-05
7.60609e-05
7.74417e-05
7.90503e-05
8.09671e-05
8.32818e-05
8.60953e-05
8.95198e-05
9.36799e-05
9.87141e-05
0.000104775
0.00011203
0.000120665
0.00013088
0.000142898
0.000156959
0.000173326
0.000192288
0.000214156
0.000239274
0.000268018
0.000300799
0.000338068
0.000380322
0.000428104
0.000482
0.000542648
0.000610735
0.000686987
0.000772169
0.000867062
0.000972475
0.00108919
0.00121797
0.00135948
0.00151433
0.00168295
0.00186562
0.00206241
0.00227313
0.00249733
0.00273428
0.00298291
0.00324184
0.00350937
0.00378355
0.00406219
0.00434293
0.00462331
0.00490082
0.00517305
0.00543769
0.00569266
0.00593615
0.00616668
0.00638315
0.00658483
0.00677136
0.00694274
0.00709925
0.00724144
0.00737006
0.00748594
0.00758995
0.0076828
0.0077651
0.00783722
0.00789922
0.00795058
0.00798984
0.00801672
0.00802839
0.00802435
0.00799925
0.00795088
0.00787482
0.00776641
0.00762187
0.00743775
0.00721137
0.00694116
0.0066271
0.006271
0.00587666
0.00544996
0.00499864
0.00453195
0.00406009
0.00359352
0.00314215
0.0027147
0.0023181
0.00195719
0.00163463
0.00135106
0.00110544
0.000895531
0.00071836
0.000570728
0.000449678
0.000353008
0.000279922
0.000232248
0.000217686
0.000263145
0.000529518
5.07873e-05
2.48843e-05
1.90903e-05
1.78505e-05
1.84908e-05
2.01341e-05
2.23822e-05
2.50119e-05
2.7883e-05
3.08976e-05
3.39831e-05
3.70829e-05
4.0151e-05
4.31493e-05
4.60466e-05
4.88173e-05
5.14416e-05
5.39046e-05
5.61966e-05
5.83127e-05
6.02528e-05
6.20218e-05
6.36293e-05
6.50899e-05
6.6423e-05
6.76533e-05
6.88108e-05
6.99311e-05
7.10558e-05
7.22333e-05
7.35187e-05
7.49755e-05
7.66754e-05
7.87e-05
8.11412e-05
8.41028e-05
8.77011e-05
9.20665e-05
9.73445e-05
0.000103697
0.000111305
0.000120367
0.000131103
0.000143758
0.000158598
0.000175921
0.000196052
0.000219352
0.000246214
0.000277077
0.000312423
0.000352782
0.000398736
0.000450929
0.000510058
0.000576876
0.000652192
0.00073686
0.000831769
0.000937824
0.00105593
0.00118696
0.00133171
0.00149087
0.00166498
0.00185436
0.00205909
0.00227896
0.0025134
0.0027615
0.00302197
0.0032931
0.00357285
0.00385882
0.00414838
0.0044387
0.00472686
0.00500997
0.00528529
0.00555029
0.00580279
0.00604101
0.00626366
0.00646993
0.00665954
0.00683267
0.00698997
0.00713244
0.00726136
0.00737823
0.00748463
0.00758212
0.00767219
0.00775603
0.00783457
0.00790833
0.00797735
0.00804105
0.0080982
0.00814753
0.00818672
0.00821036
0.00821691
0.00820141
0.00815953
0.00808504
0.00797281
0.00781811
0.00761697
0.00736663
0.00706599
0.00671594
0.00631969
0.00588289
0.00541348
0.00492143
0.0044181
0.00391548
0.00342533
0.00295825
0.00252297
0.00212585
0.0017707
0.00145883
0.00118949
0.000960335
0.000768061
0.000609017
0.000479792
0.000377831
0.000302203
0.000254962
0.000244824
0.000302499
0.000613926
5.83694e-05
2.84229e-05
2.14263e-05
1.95427e-05
1.97389e-05
2.10327e-05
2.29875e-05
2.53591e-05
2.79965e-05
3.07957e-05
3.36804e-05
3.65912e-05
3.94811e-05
4.23122e-05
4.50534e-05
4.768e-05
5.01724e-05
5.25164e-05
5.47028e-05
5.67273e-05
5.85904e-05
6.02971e-05
6.18574e-05
6.32859e-05
6.46023e-05
6.58312e-05
6.70028e-05
6.81526e-05
6.93228e-05
7.05621e-05
7.19267e-05
7.34813e-05
7.52997e-05
7.7466e-05
8.00761e-05
8.32383e-05
8.70755e-05
9.17259e-05
9.73455e-05
0.000104109
0.000112212
0.000121873
0.000133336
0.000146873
0.000162785
0.000181408
0.000203113
0.000228313
0.000257467
0.000291082
0.000329722
0.000374007
0.000424624
0.000482325
0.000547927
0.000622312
0.000706419
0.000801232
0.000907764
0.00102703
0.00116002
0.00130765
0.00147071
0.00164985
0.00184544
0.0020576
0.00228609
0.00253025
0.00278899
0.00306079
0.00334363
0.00363508
0.0039323
0.00423218
0.00453139
0.00482655
0.00511434
0.00539166
0.00565578
0.00590441
0.00613582
0.00634893
0.00654324
0.00671894
0.00687678
0.00701802
0.00714441
0.00725793
0.00736077
0.00745522
0.00754349
0.00762763
0.00770946
0.00779037
0.00787133
0.00795276
0.00803453
0.00811583
0.00819521
0.0082706
0.00833895
0.00839607
0.0084372
0.00845485
0.008449
0.00841068
0.00833338
0.00821119
0.00803897
0.00781272
0.00753015
0.0071911
0.00679789
0.00635557
0.00587197
0.00535737
0.00482406
0.00428542
0.00375501
0.00324547
0.0027676
0.00232964
0.00193688
0.00159171
0.00129391
0.00104126
0.000830234
0.000656756
0.000516926
0.00040777
0.000328124
0.000280182
0.000273616
0.000343021
0.000699924
6.62059e-05
3.20982e-05
2.38914e-05
2.13827e-05
2.11625e-05
2.2139e-05
2.38339e-05
2.59824e-05
2.84216e-05
3.10408e-05
3.37595e-05
3.65162e-05
3.92623e-05
4.19589e-05
4.45746e-05
4.70846e-05
4.94704e-05
5.17181e-05
5.38193e-05
5.57702e-05
5.7572e-05
5.92303e-05
6.07555e-05
6.21627e-05
6.34722e-05
6.47091e-05
6.59039e-05
6.70934e-05
6.83203e-05
6.96349e-05
7.1095e-05
7.27676e-05
7.47297e-05
7.70694e-05
7.98878e-05
8.32998e-05
8.74364e-05
9.24465e-05
9.84987e-05
0.000105784
0.000114517
0.00012494
0.000137324
0.000151975
0.000169233
0.000189479
0.00021314
0.000240689
0.000272656
0.000309632
0.000352269
0.000401292
0.0004575
0.000521766
0.000595038
0.000678331
0.000772719
0.000879314
0.000999242
0.00113361
0.00128344
0.00144967
0.00163302
0.00183396
0.00205265
0.00228882
0.00254178
0.00281029
0.00309258
0.00338634
0.00368874
0.00399652
0.00430605
0.00461349
0.00491497
0.00520673
0.0054853
0.00574769
0.00599151
0.0062151
0.00641753
0.00659871
0.00675926
0.00690048
0.0070243
0.00713302
0.00722942
0.00731635
0.00739661
0.00747305
0.00754825
0.0076245
0.00770352
0.00778652
0.00787445
0.00796756
0.0080653
0.00816655
0.0082696
0.00837176
0.00846954
0.00855864
0.00863412
0.00868965
0.00871539
0.00871367
0.00867259
0.00858521
0.00844525
0.00824755
0.00798853
0.00766677
0.0072834
0.00684249
0.00635125
0.00581986
0.00526107
0.0046894
0.00412004
0.00356772
0.00304549
0.00256376
0.00212974
0.00174726
0.00141699
0.0011371
0.000904002
0.000713286
0.000560571
0.000442414
0.000357351
0.000307634
0.000303845
0.000384527
0.000787213
7.42808e-05
3.58991e-05
2.6471e-05
2.33505e-05
2.2736e-05
2.34223e-05
2.48846e-05
2.68389e-05
2.91092e-05
3.15778e-05
3.41595e-05
3.67899e-05
3.94188e-05
4.20062e-05
4.45206e-05
4.6937e-05
4.9237e-05
5.14072e-05
5.34397e-05
5.53315e-05
5.70843e-05
5.87048e-05
6.02041e-05
6.15985e-05
6.29088e-05
6.41611e-05
6.53872e-05
6.66249e-05
6.79187e-05
6.93208e-05
7.08918e-05
7.27019e-05
7.48321e-05
7.73758e-05
8.04406e-05
8.41498e-05
8.86447e-05
9.40868e-05
0.00010066
0.000108575
0.000118068
0.000129409
0.000142903
0.000158892
0.000177763
0.00019995
0.00022594
0.000256278
0.000291574
0.000332509
0.000379839
0.0004344
0.000497114
0.000568985
0.000651098
0.000744605
0.000850712
0.000970647
0.00110563
0.00125682
0.00142525
0.00161177
0.00181694
0.002041
0.00228369
0.00254428
0.00282142
0.00311314
0.00341686
0.00372938
0.00404698
0.00436554
0.0046807
0.00498807
0.0052834
0.00556286
0.00582317
0.0060618
0.00627713
0.00646843
0.00663589
0.00678067
0.00690461
0.00701014
0.00710036
0.00717838
0.00724787
0.00731253
0.00737588
0.00743989
0.00750717
0.00757981
0.00765977
0.00774821
0.00784555
0.00795165
0.0080659
0.00818674
0.00831199
0.00843915
0.00856445
0.00868296
0.00878972
0.00887895
0.00894257
0.00897082
0.00896625
0.0089153
0.00881068
0.00864605
0.0084165
0.0081192
0.00775376
0.00732287
0.0068326
0.00629247
0.00571519
0.00511595
0.00451134
0.00391806
0.00335152
0.00282462
0.00234685
0.00192388
0.00155771
0.00124719
0.000988929
0.000778298
0.000610485
0.000481562
0.000389707
0.000337167
0.000335388
0.000426912
0.000875628
8.25812e-05
3.9817e-05
2.91543e-05
2.54314e-05
2.44406e-05
2.48591e-05
2.61121e-05
2.78969e-05
3.00234e-05
3.23661e-05
3.48351e-05
3.73628e-05
3.98969e-05
4.23964e-05
4.48289e-05
4.71695e-05
4.93997e-05
5.15067e-05
5.34833e-05
5.53272e-05
5.70412e-05
5.86327e-05
6.01141e-05
6.15026e-05
6.28202e-05
6.40947e-05
6.53592e-05
6.66535e-05
6.80243e-05
6.95264e-05
7.12237e-05
7.31905e-05
7.5513e-05
7.82911e-05
8.16403e-05
8.56937e-05
9.06049e-05
9.65503e-05
0.000103732
0.000112382
0.000122764
0.000135179
0.000149968
0.00016752
0.000188271
0.000212716
0.00024141
0.000274978
0.00031412
0.000359616
0.000412335
0.000473235
0.000543369
0.00062388
0.00071599
0.000820987
0.000940199
0.00107495
0.00122653
0.00139609
0.0015846
0.00179275
0.00202084
0.00226871
0.00253558
0.00282007
0.00312003
0.00343264
0.00375437
0.00408107
0.00440813
0.00473066
0.00504374
0.00534262
0.00562304
0.00588141
0.00611505
0.00632229
0.00650258
0.00665646
0.00678534
0.00689183
0.00697895
0.00705007
0.00710945
0.0071618
0.0072102
0.00725743
0.00730662
0.00736152
0.00742451
0.00749744
0.00758146
0.00767727
0.00778497
0.00790407
0.00803347
0.00817155
0.00831602
0.00846387
0.00861154
0.0087552
0.00888976
0.00900924
0.0091068
0.00917149
0.0091968
0.00918329
0.00911663
0.00898939
0.00879527
0.00852992
0.00819119
0.00777998
0.0073007
0.00676161
0.00617476
0.00555547
0.00492132
0.00429079
0.00368167
0.00310953
0.00258651
0.0021206
0.00171555
0.00137129
0.00108491
0.000851746
0.000666631
0.000525165
0.000425133
0.00036872
0.000368191
0.000470136
0.000965123
9.1097e-05
4.38456e-05
3.1933e-05
2.76142e-05
2.6262e-05
2.64316e-05
2.74958e-05
2.91324e-05
3.11364e-05
3.33745e-05
3.57517e-05
3.81968e-05
4.06553e-05
4.30847e-05
4.54519e-05
4.77317e-05
4.99057e-05
5.19617e-05
5.3893e-05
5.56983e-05
5.73814e-05
5.8951e-05
6.04207e-05
6.18092e-05
6.31402e-05
6.44429e-05
6.57528e-05
6.71118e-05
6.85694e-05
7.01837e-05
7.20228e-05
7.41658e-05
7.67051e-05
7.97482e-05
8.342e-05
8.78651e-05
9.32512e-05
9.97717e-05
0.00010765
0.000117142
0.000128543
0.000142188
0.000158463
0.000177804
0.000200706
0.00022773
0.000259509
0.000296756
0.000340268
0.000390936
0.000449749
0.000517798
0.000596271
0.000686452
0.000789701
0.000907434
0.00104108
0.00119203
0.00136159
0.00155085
0.00176062
0.00199134
0.00224291
0.00251463
0.00280504
0.00311195
0.00343231
0.0037623
0.00409739
0.0044325
0.00476223
0.00508108
0.0053838
0.00566564
0.00592269
0.00615203
0.00635194
0.00652192
0.00666278
0.00677655
0.00686574
0.00693452
0.00698699
0.00702901
0.00706352
0.00709269
0.00712193
0.00715561
0.00719655
0.00724725
0.0073096
0.00738497
0.0074741
0.00757725
0.00769417
0.0078241
0.00796578
0.00811749
0.00827696
0.00844134
0.00860721
0.00877041
0.00892624
0.00906938
0.00919503
0.00929573
0.00935794
0.00937738
0.00935071
0.00926464
0.00911145
0.00888532
0.00858211
0.00820062
0.00774313
0.00721598
0.00662992
0.00599977
0.00534353
0.00468112
0.00403261
0.00341638
0.00284756
0.00233691
0.00189039
0.0015095
0.00119212
0.000933792
0.000729133
0.000573299
0.000463661
0.000402302
0.000402259
0.00051422
0.00105577
9.98204e-05
4.79799e-05
3.4801e-05
2.98904e-05
2.81892e-05
2.81257e-05
2.90196e-05
3.05264e-05
3.24268e-05
3.4579e-05
3.68825e-05
3.92624e-05
4.16617e-05
4.40364e-05
4.63524e-05
4.85842e-05
5.07135e-05
5.27286e-05
5.46235e-05
5.6398e-05
5.80571e-05
5.96108e-05
6.10744e-05
6.24682e-05
6.38179e-05
6.51548e-05
6.65168e-05
6.79486e-05
6.95031e-05
7.12423e-05
7.32389e-05
7.55781e-05
7.83595e-05
8.16991e-05
8.57326e-05
9.06179e-05
9.65386e-05
0.000103708
0.000112372
0.000122816
0.000135368
0.000150406
0.000168359
0.000189721
0.000215051
0.000244985
0.000280241
0.000321626
0.000370045
0.00042651
0.000492137
0.000568152
0.000655888
0.000756766
0.000872277
0.00100395
0.00115328
0.00132169
0.00151043
0.00172046
0.00195233
0.00220609
0.0024811
0.00277597
0.00308843
0.00341532
0.00375258
0.00409535
0.00443812
0.00477497
0.00509986
0.00540697
0.00569106
0.00594778
0.00617394
0.00636773
0.00652867
0.0066577
0.00675707
0.00683056
0.00688114
0.00691688
0.00694084
0.00695492
0.00696596
0.0069777
0.00699437
0.00701985
0.00705622
0.00710547
0.00716896
0.0072475
0.00734141
0.00745057
0.00757444
0.0077121
0.00786224
0.00802318
0.00819283
0.00836864
0.00854757
0.00872596
0.0088996
0.00906348
0.00921188
0.00933841
0.00943547
0.00949175
0.00950479
0.00946423
0.00935658
0.00917613
0.00891666
0.00857465
0.00814987
0.00764613
0.00707218
0.0064416
0.00577219
0.00508478
0.00440147
0.00374349
0.00312922
0.00257262
0.00208242
0.00166215
0.00131092
0.00102477
0.000798249
0.000626141
0.0005054
0.000437987
0.000437648
0.000559235
0.00114773
0.000108746
5.22162e-05
3.77536e-05
3.22535e-05
3.02136e-05
2.99306e-05
3.06709e-05
3.20641e-05
3.38776e-05
3.59604e-05
3.82061e-05
4.0536e-05
4.28905e-05
4.52237e-05
4.75007e-05
4.96955e-05
5.179e-05
5.37728e-05
5.5639e-05
5.73894e-05
5.90303e-05
6.05736e-05
6.20361e-05
6.34402e-05
6.48138e-05
6.61908e-05
6.76119e-05
6.91249e-05
7.07867e-05
7.2664e-05
7.48348e-05
7.73912e-05
8.04406e-05
8.41094e-05
8.85453e-05
9.39209e-05
0.000100438
0.000108332
0.000117875
0.000129384
0.000143225
0.00015982
0.000179652
0.000203275
0.000231321
0.000264507
0.000303642
0.000349638
0.000403519
0.000466419
0.000539591
0.000624403
0.000722326
0.000834917
0.000963781
0.00111053
0.0012767
0.00146367
0.00167258
0.00190413
0.00215852
0.00243525
0.00273302
0.00304958
0.00338171
0.00372519
0.00407489
0.00442492
0.00476887
0.00510016
0.00541242
0.00569984
0.00595758
0.00618208
0.0063713
0.00652484
0.00664372
0.0067304
0.00678831
0.0068247
0.00684253
0.0068469
0.00684237
0.00683447
0.00683019
0.00683
0.00683809
0.0068589
0.00689332
0.00694275
0.00700798
0.00708934
0.00718672
0.00729973
0.00742765
0.00756948
0.007724
0.00788969
0.00806476
0.00824706
0.00843404
0.00862265
0.00880926
0.00898952
0.00915831
0.0093099
0.00943691
0.0095299
0.00957534
0.00958062
0.00952657
0.00939699
0.00918829
0.00889462
0.00851297
0.00804408
0.00749402
0.00687436
0.00620187
0.0054977
0.00478552
0.0040893
0.00343085
0.00282776
0.00229203
0.0018298
0.00144188
0.00112517
0.000874353
0.000683953
0.000550517
0.000475898
0.000474454
0.000605296
0.00124126
0.000117869
5.65519e-05
4.07875e-05
3.46987e-05
3.23285e-05
3.18381e-05
3.24394e-05
3.37332e-05
3.54748e-05
3.7503e-05
3.97051e-05
4.19985e-05
4.43208e-05
4.66241e-05
4.88727e-05
5.10401e-05
5.31082e-05
5.50664e-05
5.69105e-05
5.86427e-05
6.02709e-05
6.18086e-05
6.32749e-05
6.46942e-05
6.6097e-05
6.75201e-05
6.90074e-05
7.06107e-05
7.2391e-05
7.44202e-05
7.67828e-05
7.95782e-05
8.29232e-05
8.69553e-05
9.18358e-05
9.77541e-05
0.000104932
0.000113629
0.000124147
0.000136839
0.000152112
0.000170437
0.000192356
0.000218491
0.00024955
0.000286341
0.000329773
0.000380871
0.000440781
0.00051077
0.000592232
0.000686674
0.000795705
0.000921001
0.00106426
0.00122714
0.00141117
0.00161763
0.0018474
0.00210088
0.00237773
0.0026768
0.00299593
0.00333194
0.0036805
0.00403631
0.00439313
0.00474416
0.00508228
0.00540054
0.00569253
0.00595288
0.00617756
0.00636419
0.00651214
0.0066228
0.00669873
0.00674396
0.00676465
0.00676812
0.00675311
0.00673051
0.00670509
0.00668136
0.00666556
0.00665923
0.0066615
0.0066802
0.00671428
0.00676454
0.00683126
0.00691433
0.00701335
0.00712772
0.00725665
0.00739919
0.00755425
0.0077206
0.0078968
0.00808117
0.00827172
0.00846602
0.00866114
0.00885344
0.00903854
0.00921133
0.00936529
0.00949253
0.00958117
0.00961968
0.00961432
0.00954491
0.00939342
0.00915547
0.0088263
0.0084031
0.00788864
0.00729172
0.00662722
0.00591573
0.00518193
0.0044522
0.00375184
0.00310239
0.00251971
0.00201311
0.00158569
0.00123558
0.000957914
0.000747073
0.000599234
0.000516208
0.000512808
0.000652553
0.00133668
0.000127188
6.09855e-05
4.39004e-05
3.72222e-05
3.45288e-05
3.38416e-05
3.43168e-05
3.55241e-05
3.72074e-05
3.91941e-05
4.13654e-05
4.36343e-05
4.59354e-05
4.82192e-05
5.04487e-05
5.2597e-05
5.46463e-05
5.65864e-05
5.84144e-05
6.01338e-05
6.17541e-05
6.3291e-05
6.47655e-05
6.6205e-05
6.76425e-05
6.91182e-05
7.06795e-05
7.23825e-05
7.42932e-05
7.64892e-05
7.90621e-05
8.21198e-05
8.57894e-05
9.02207e-05
9.55903e-05
0.000102106
0.000110012
0.000119595
0.000131189
0.000145186
0.00016204
0.000182275
0.000206498
0.000235405
0.000269789
0.000310552
0.000358714
0.00041542
0.000481943
0.000559689
0.000650192
0.000755098
0.00087614
0.0010151
0.00117373
0.0013537
0.00155644
0.00178305
0.00203409
0.00230947
0.00260822
0.00292836
0.00326678
0.00361919
0.00398016
0.00434324
0.00470124
0.00504657
0.00537168
0.00566956
0.00593423
0.00616114
0.00634747
0.00649231
0.00659654
0.00666372
0.00669711
0.00670693
0.00669303
0.00666285
0.00662296
0.00658022
0.00653939
0.00650474
0.00648191
0.00647228
0.00647172
0.0064899
0.00652442
0.00657548
0.0066429
0.00672627
0.00682497
0.00693831
0.0070655
0.00720573
0.00735811
0.00752171
0.0076955
0.00787829
0.00806863
0.00826474
0.00846438
0.00866468
0.008862
0.00905194
0.00922892
0.00938559
0.0095135
0.00959922
0.00963327
0.00961506
0.00952974
0.00935427
0.00908534
0.00871753
0.00824985
0.00768757
0.00704273
0.00633441
0.00558749
0.00483026
0.00409135
0.00339652
0.00276596
0.00221284
0.0017431
0.00135668
0.00104948
0.000815906
0.00065184
0.000559101
0.00055287
0.000701186
0.00143438
0.000136702
6.55163e-05
4.70907e-05
3.98216e-05
3.68107e-05
3.5936e-05
3.62963e-05
3.74289e-05
3.90661e-05
4.10232e-05
4.31751e-05
4.54302e-05
4.77201e-05
4.99934e-05
5.2212e-05
5.43487e-05
5.63858e-05
5.83139e-05
6.01311e-05
6.18425e-05