/*--------------------------------*- C++ -*----------------------------------*\
  =========                 |
  \\      /  F ield         | OpenFOAM: The Open Source CFD Toolbox
   \\    /   O peration     | Website:  https://openfoam.org
    \\  /    A nd           | Version:  12
     \\/     M anipulation  |
\*---------------------------------------------------------------------------*/
FoamFile
{
    format      ascii;
    class       volScalarField;
    location    "2.5";
    object      k;
}
// * * * * * * * * * * * * * * * * * * * * * * * * * * * * * * * * * * * * * //

dimensions      [0 2 -2 0 0 0 0];

internalField   nonuniform List<scalar> 
18225
(
5.10092e-10
3.45058e-09
7.6809e-09
1.272e-08
1.83412e-08
2.43968e-08
3.07717e-08
3.73674e-08
4.40945e-08
5.087e-08
5.76157e-08
6.42586e-08
7.07313e-08
7.69727e-08
8.29288e-08
8.85535e-08
9.38098e-08
9.86695e-08
1.03114e-07
1.07135e-07
1.10732e-07
1.13917e-07
1.16708e-07
1.19135e-07
1.21233e-07
1.23049e-07
1.24636e-07
1.26056e-07
1.2738e-07
1.28686e-07
1.30063e-07
1.31608e-07
1.33428e-07
1.35641e-07
1.38376e-07
1.41772e-07
1.45982e-07
1.51168e-07
1.57504e-07
1.65177e-07
1.74379e-07
1.85315e-07
1.98194e-07
2.13233e-07
2.30651e-07
2.5067e-07
2.73515e-07
2.99409e-07
3.28576e-07
3.61241e-07
3.97628e-07
4.37961e-07
4.82467e-07
5.31373e-07
5.84911e-07
6.43311e-07
7.06807e-07
7.75632e-07
8.50012e-07
9.3017e-07
1.01631e-06
1.10864e-06
1.20732e-06
1.3125e-06
1.4243e-06
1.54282e-06
1.66811e-06
1.80021e-06
1.9391e-06
2.08476e-06
2.23713e-06
2.39614e-06
2.56169e-06
2.73367e-06
2.91194e-06
3.09635e-06
3.28673e-06
3.4829e-06
3.68462e-06
3.89166e-06
4.10373e-06
4.3205e-06
4.54158e-06
4.76652e-06
4.99479e-06
5.22578e-06
5.45875e-06
5.69288e-06
5.92717e-06
6.16049e-06
6.39153e-06
6.61875e-06
6.84043e-06
7.05459e-06
7.25899e-06
7.45118e-06
7.6284e-06
7.78763e-06
7.9254e-06
8.03805e-06
8.12171e-06
8.16878e-06
8.18472e-06
8.16719e-06
8.10494e-06
7.99625e-06
7.84011e-06
7.63596e-06
7.3841e-06
7.08601e-06
6.74458e-06
6.36415e-06
5.95048e-06
5.51063e-06
5.05262e-06
4.58517e-06
4.11718e-06
3.65732e-06
3.21354e-06
2.79273e-06
2.40038e-06
2.04045e-06
1.71528e-06
1.42571e-06
1.17125e-06
9.50295e-07
7.60393e-07
5.98558e-07
4.61456e-07
3.4574e-07
2.48252e-07
1.66315e-07
9.8127e-08
4.35281e-08
6.4194e-09
3.85397e-09
3.07214e-08
6.89009e-08
1.14292e-07
1.64902e-07
2.19409e-07
2.76786e-07
3.36146e-07
3.96687e-07
4.57662e-07
5.18368e-07
5.78148e-07
6.36396e-07
6.92561e-07
7.46158e-07
7.96773e-07
8.44071e-07
8.87799e-07
9.27792e-07
9.63969e-07
9.96337e-07
1.02499e-06
1.0501e-06
1.07193e-06
1.0908e-06
1.10713e-06
1.1214e-06
1.13417e-06
1.14608e-06
1.15782e-06
1.1702e-06
1.18408e-06
1.20045e-06
1.22034e-06
1.24493e-06
1.27547e-06
1.31333e-06
1.35998e-06
1.41697e-06
1.48599e-06
1.56878e-06
1.66716e-06
1.78303e-06
1.91834e-06
2.07506e-06
2.25519e-06
2.46075e-06
2.69376e-06
2.95623e-06
3.25017e-06
3.57762e-06
3.94057e-06
4.34109e-06
4.78121e-06
5.26302e-06
5.7886e-06
6.36005e-06
6.97946e-06
7.64888e-06
8.37031e-06
9.14562e-06
9.97658e-06
1.08647e-05
1.18114e-05
1.28177e-05
1.38844e-05
1.50121e-05
1.6201e-05
1.7451e-05
1.8762e-05
2.01334e-05
2.15645e-05
2.30544e-05
2.46022e-05
2.62065e-05
2.78661e-05
2.95794e-05
3.13447e-05
3.31601e-05
3.50233e-05
3.69317e-05
3.88823e-05
4.08718e-05
4.2896e-05
4.49502e-05
4.70288e-05
4.91254e-05
5.12324e-05
5.3341e-05
5.54408e-05
5.75202e-05
5.95655e-05
6.1561e-05
6.3489e-05
6.53294e-05
6.706e-05
6.86563e-05
7.00908e-05
7.13325e-05
7.23483e-05
7.30999e-05
7.35149e-05
7.36513e-05
7.34882e-05
7.29211e-05
7.19362e-05
7.05251e-05
6.86827e-05
6.64119e-05
6.37263e-05
6.06518e-05
5.72276e-05
5.35055e-05
4.95488e-05
4.54296e-05
4.12261e-05
3.70182e-05
3.28835e-05
2.88937e-05
2.51104e-05
2.15829e-05
1.83467e-05
1.5423e-05
1.28193e-05
1.05313e-05
8.54437e-06
6.83663e-06
5.38091e-06
4.14782e-06
3.10715e-06
2.23043e-06
1.49345e-06
8.79785e-07
3.87403e-07
4.85014e-08
8.17727e-09
7.00875e-08
1.58217e-07
2.63002e-07
3.79814e-07
5.05609e-07
6.38013e-07
7.74988e-07
9.14683e-07
1.05537e-06
1.19544e-06
1.33337e-06
1.46777e-06
1.59735e-06
1.721e-06
1.83777e-06
1.94688e-06
2.04776e-06
2.14e-06
2.22345e-06
2.2981e-06
2.36417e-06
2.42207e-06
2.47239e-06
2.5159e-06
2.55354e-06
2.58642e-06
2.61584e-06
2.64325e-06
2.6703e-06
2.6988e-06
2.73079e-06
2.76849e-06
2.81433e-06
2.87101e-06
2.94143e-06
3.02873e-06
3.13631e-06
3.2678e-06
3.42703e-06
3.61805e-06
3.8451e-06
4.11253e-06
4.42486e-06
4.78665e-06
5.20253e-06
5.67717e-06
6.21524e-06
6.82142e-06
7.50037e-06
8.25679e-06
9.09536e-06
1.00208e-05
1.1038e-05
1.21516e-05
1.33667e-05
1.4688e-05
1.61205e-05
1.7669e-05
1.93382e-05
2.11324e-05
2.30558e-05
2.51121e-05
2.73045e-05
2.96355e-05
3.21071e-05
3.47205e-05
3.74765e-05
4.03749e-05
4.34153e-05
4.65964e-05
4.99168e-05
5.33743e-05
5.69664e-05
6.06903e-05
6.45428e-05
6.852e-05
7.26178e-05
7.68314e-05
8.11553e-05
8.55832e-05
9.01077e-05
9.47203e-05
9.94112e-05
0.000104169
0.00010898
0.000113829
0.000118698
0.000123566
0.000128409
0.0001332
0.000137907
0.000142493
0.000146917
0.000151135
0.000155093
0.000158738
0.000162005
0.000164825
0.000167123
0.000168818
0.000169728
0.00017001
0.000169609
0.000168271
0.000165972
0.000162695
0.000158426
0.000153174
0.000146967
0.000139866
0.00013196
0.00012337
0.000114239
0.000104735
9.50369e-05
8.533e-05
7.57933e-05
6.65915e-05
5.78671e-05
4.97337e-05
4.22729e-05
3.55333e-05
2.95322e-05
2.42591e-05
1.96804e-05
1.57455e-05
1.23919e-05
9.551e-06
7.15325e-06
5.1329e-06
3.43413e-06
2.01908e-06
8.8345e-07
1.02864e-07
1.33531e-08
1.17304e-07
2.66089e-07
4.43229e-07
6.40754e-07
8.53476e-07
1.07737e-06
1.30899e-06
1.5452e-06
1.7831e-06
2.01993e-06
2.25315e-06
2.48037e-06
2.69946e-06
2.9085e-06
3.1059e-06
3.29033e-06
3.46083e-06
3.61673e-06
3.75773e-06
3.88385e-06
3.99547e-06
4.09326e-06
4.17822e-06
4.25166e-06
4.31517e-06
4.37064e-06
4.42025e-06
4.46646e-06
4.51205e-06
4.5601e-06
4.61403e-06
4.67761e-06
4.75498e-06
4.85067e-06
4.9696e-06
5.11709e-06
5.29891e-06
5.52118e-06
5.79042e-06
6.1135e-06
6.49759e-06
6.9501e-06
7.47866e-06
8.09106e-06
8.79515e-06
9.59888e-06
1.05102e-05
1.1537e-05
1.26874e-05
1.39693e-05
1.53907e-05
1.69598e-05
1.86848e-05
2.05739e-05
2.26356e-05
2.48783e-05
2.73106e-05
2.99406e-05
3.27765e-05
3.58261e-05
3.90965e-05
4.2594e-05
4.63244e-05
5.0292e-05
5.45003e-05
5.89516e-05
6.36471e-05
6.85865e-05
7.37689e-05
7.91922e-05
8.48533e-05
9.07482e-05
9.68722e-05
0.00010322
0.000109784
0.000116559
0.000123534
0.000130702
0.00013805
0.000145568
0.00015324
0.000161052
0.000168984
0.000177016
0.000185125
0.000193282
0.000201458
0.000209616
0.000217717
0.000225714
0.000233556
0.000241183
0.000248528
0.000255516
0.000262065
0.000268083
0.000273469
0.000278112
0.000281888
0.000284666
0.000286118
0.000286548
0.000285861
0.0002836
0.000279736
0.000274237
0.000267079
0.000258266
0.000247847
0.000235916
0.00022262
0.000208159
0.000192775
0.000176749
0.000160387
0.000144002
0.000127898
0.000112358
9.7624e-05
8.38892e-05
7.12925e-05
5.99163e-05
4.97893e-05
4.08931e-05
3.31704e-05
2.65348e-05
2.08804e-05
1.60909e-05
1.20483e-05
8.64166e-06
5.77667e-06
3.39005e-06
1.47646e-06
1.67739e-07
1.92082e-08
1.70438e-07
3.87972e-07
6.47429e-07
9.3692e-07
1.24875e-06
1.57698e-06
1.91654e-06
2.26284e-06
2.6116e-06
2.9588e-06
3.30069e-06
3.63377e-06
3.9549e-06
4.2613e-06
4.55059e-06
4.82085e-06
5.07065e-06
5.29903e-06
5.50554e-06
5.69024e-06
5.85364e-06
5.99676e-06
6.12107e-06
6.22847e-06
6.32131e-06
6.40236e-06
6.47481e-06
6.54228e-06
6.60884e-06
6.679e-06
6.7578e-06
6.85074e-06
6.96392e-06
7.10396e-06
7.27812e-06
7.49422e-06
7.76071e-06
8.08662e-06
8.48154e-06
8.95559e-06
9.51931e-06
1.01837e-05
1.09599e-05
1.18595e-05
1.2894e-05
1.40753e-05
1.54151e-05
1.69252e-05
1.86174e-05
2.05036e-05
2.25959e-05
2.49063e-05
2.74471e-05
3.02309e-05
3.32701e-05
3.65778e-05
4.01664e-05
4.40488e-05
4.82372e-05
5.27432e-05
5.75778e-05
6.27506e-05
6.82701e-05
7.41431e-05
8.03746e-05
8.69678e-05
9.39241e-05
0.000101243
0.000108921
0.000116956
0.00012534
0.000134067
0.000143126
0.000152508
0.0001622
0.000172189
0.000182457
0.000192988
0.000203763
0.000214759
0.000225954
0.000237319
0.000248827
0.000260444
0.000272134
0.000283859
0.000295573
0.000307227
0.000318766
0.000330126
0.000341238
0.000352022
0.00036239
0.00037224
0.000381462
0.000389933
0.000397515
0.00040406
0.000409394
0.00041333
0.00041539
0.000416005
0.000415098
0.000411936
0.000406484
0.000398688
0.0003885
0.000375912
0.000360977
0.000343818
0.000324639
0.000303718
0.000281406
0.000258112
0.000234284
0.000210386
0.000186871
0.000164162
0.000142619
0.000122533
0.000104113
8.74806e-05
7.26791e-05
5.96811e-05
4.84017e-05
3.87132e-05
3.04592e-05
2.34687e-05
1.75683e-05
1.25955e-05
8.41292e-06
4.92925e-06
2.13976e-06
2.40694e-07
2.56169e-08
2.28388e-07
5.21198e-07
8.71091e-07
1.2618e-06
1.68279e-06
2.12601e-06
2.58456e-06
3.05223e-06
3.52322e-06
3.99211e-06
4.45379e-06
4.90356e-06
5.33716e-06
5.75081e-06
6.14131e-06
6.50608e-06
6.84316e-06
7.15127e-06
7.42981e-06
7.67884e-06
7.8991e-06
8.09194e-06
8.25937e-06
8.40396e-06
8.52889e-06
8.63788e-06
8.73527e-06
8.82594e-06
8.91539e-06
9.00973e-06
9.11574e-06
9.2409e-06
9.39343e-06
9.58232e-06
9.81737e-06
1.01092e-05
1.04693e-05
1.09098e-05
1.14439e-05
1.20852e-05
1.28482e-05
1.37477e-05
1.4799e-05
1.60178e-05
1.742e-05
1.90216e-05
2.08387e-05
2.28876e-05
2.51845e-05
2.77458e-05
3.05881e-05
3.37282e-05
3.71831e-05
4.09701e-05
4.51071e-05
4.96117e-05
5.45019e-05
5.97953e-05
6.55092e-05
7.16599e-05
7.82625e-05
8.53304e-05
9.28751e-05
0.000100906
0.000109428
0.000118446
0.00012796
0.000137967
0.000148461
0.000159434
0.000170873
0.000182763
0.000195088
0.000207827
0.000220956
0.000234451
0.000248282
0.000262421
0.000276833
0.000291485
0.000306338
0.000321353
0.000336488
0.0003517
0.00036694
0.000382158
0.000397301
0.00041231
0.000427119
0.000441657
0.000455844
0.000469589
0.00048279
0.000495329
0.000507077
0.000517886
0.00052759
0.000536012
0.000542921
0.000548093
0.000550906
0.000551812
0.000550896
0.000547059
0.000540246
0.00053037
0.000517343
0.000501125
0.000481756
0.000459375
0.000434227
0.000406664
0.000377143
0.000346206
0.000314456
0.000282524
0.000251036
0.000220572
0.000191638
0.000164639
0.000139869
0.000117501
9.75985e-05
8.01264e-05
6.49702e-05
5.19564e-05
4.08727e-05
3.14872e-05
2.35657e-05
1.6889e-05
1.12728e-05
6.59628e-06
2.85676e-06
3.19845e-07
3.24928e-08
2.90436e-07
6.64016e-07
1.1112e-06
1.61098e-06
2.14975e-06
2.71708e-06
3.30412e-06
3.90287e-06
4.5059e-06
5.10622e-06
5.69729e-06
6.27307e-06
6.82807e-06
7.35747e-06
7.85716e-06
8.32381e-06
8.75493e-06
9.14889e-06
9.50493e-06
9.82313e-06
1.01045e-05
1.03507e-05
1.05643e-05
1.07487e-05
1.09079e-05
1.10468e-05
1.11708e-05
1.12863e-05
1.14002e-05
1.15204e-05
1.16557e-05
1.18155e-05
1.20106e-05
1.22523e-05
1.25533e-05
1.29273e-05
1.3389e-05
1.39542e-05
1.46398e-05
1.54634e-05
1.64436e-05
1.75998e-05
1.89517e-05
2.05196e-05
2.23242e-05
2.43863e-05
2.6727e-05
2.93674e-05
3.23288e-05
3.56328e-05
3.93011e-05
4.33559e-05
4.78199e-05
5.27161e-05
5.80678e-05
6.3899e-05
7.02333e-05
7.70942e-05
8.45044e-05
9.24855e-05
0.000101057
0.000110236
0.000120036
0.000130469
0.00014154
0.00015325
0.000165597
0.000178573
0.000192164
0.000206353
0.000221115
0.000236424
0.000252248
0.000268549
0.000285289
0.000302423
0.000319905
0.000337687
0.000355719
0.000373949
0.000392325
0.000410795
0.000429306
0.000447806
0.000466241
0.000484559
0.000502703
0.000520615
0.000538233
0.000555486
0.000572296
0.000588573
0.000604213
0.000619096
0.000633081
0.000646005
0.00065768
0.000667902
0.000676398
0.00068291
0.000686714
0.000688076
0.000687462
0.000683342
0.000675583
0.000664067
0.000648649
0.000629239
0.000605844
0.000578597
0.000547765
0.000513761
0.000477136
0.000438559
0.000398789
0.000358635
0.000318904
0.000280358
0.000243668
0.000209377
0.00017788
0.000149421
0.000124093
0.000101859
8.25759e-05
6.60243e-05
5.19318e-05
4.0001e-05
2.99319e-05
2.14446e-05
1.43051e-05
8.36207e-06
3.61559e-06
4.03789e-07
3.9775e-08
3.56072e-07
8.15185e-07
1.36559e-06
1.98128e-06
2.64534e-06
3.34481e-06
4.06869e-06
4.80707e-06
5.55076e-06
6.2911e-06
7.01999e-06
7.72995e-06
8.4142e-06
9.06676e-06
9.68256e-06
1.02575e-05
1.07885e-05
1.12735e-05
1.17117e-05
1.21032e-05
1.24491e-05
1.27517e-05
1.30141e-05
1.32405e-05
1.34358e-05
1.36061e-05
1.37581e-05
1.38997e-05
1.40394e-05
1.41871e-05
1.43534e-05
1.45502e-05
1.47906e-05
1.50889e-05
1.54608e-05
1.59231e-05
1.64942e-05
1.71937e-05
1.80426e-05
1.9063e-05
2.0278e-05
2.17118e-05
2.33891e-05
2.53354e-05
2.75766e-05
3.01389e-05
3.30488e-05
3.6333e-05
4.00186e-05
4.41328e-05
4.87035e-05
5.37589e-05
5.9328e-05
6.54404e-05
7.21261e-05
7.94155e-05
8.73389e-05
9.59262e-05
0.000105206
0.000115205
0.000125947
0.000137451
0.000149734
0.000162804
0.000176666
0.000191316
0.000206742
0.000222927
0.000239843
0.000257456
0.000275726
0.000294603
0.000314033
0.000333957
0.00035431
0.000375025
0.000396033
0.000417262
0.000438645
0.000460113
0.000481602
0.000503053
0.000524407
0.000545614
0.000566625
0.000587394
0.000607877
0.000628029
0.000647803
0.000667144
0.000685989
0.000704259
0.000721861
0.000738677
0.000754565
0.000769352
0.000782832
0.00079477
0.000804867
0.000812823
0.000817905
0.000819948
0.000819916
0.000815983
0.000807782
0.000795177
0.000777961
0.00075598
0.000729191
0.000697697
0.000661771
0.000621859
0.000578586
0.000532732
0.000485201
0.00043697
0.000389038
0.000342356
0.000297778
0.000256006
0.000217562
0.000182778
0.000151794
0.000124584
0.000100985
8.0731e-05
6.34902e-05
4.8897e-05
3.65822e-05
2.62021e-05
1.74705e-05
1.02043e-05
4.40703e-06
4.91454e-07
4.74184e-08
4.24912e-07
9.73781e-07
1.63265e-06
2.3703e-06
3.16632e-06
4.00505e-06
4.87322e-06
5.75888e-06
6.65094e-06
7.53897e-06
8.4132e-06
9.26462e-06
1.00851e-05
1.08673e-05
1.16053e-05
1.22941e-05
1.29301e-05
1.35107e-05
1.4035e-05
1.45032e-05
1.49167e-05
1.52781e-05
1.55914e-05
1.58615e-05
1.60944e-05
1.62974e-05
1.64785e-05
1.66473e-05
1.68141e-05
1.69906e-05
1.71897e-05
1.74257e-05
1.77144e-05
1.8073e-05
1.85205e-05
1.90772e-05
1.97654e-05
2.06089e-05
2.16332e-05
2.28649e-05
2.43324e-05
2.6065e-05
2.8093e-05
3.04474e-05
3.316e-05
3.6263e-05
3.9789e-05
4.37708e-05
4.82419e-05
5.32362e-05
5.87882e-05
6.49331e-05
7.17071e-05
7.91469e-05
8.72899e-05
9.61738e-05
0.000105836
0.000116313
0.000127639
0.000139845
0.000152958
0.000166999
0.000181982
0.000197912
0.000214786
0.00023259
0.000251298
0.000270873
0.000291269
0.000312425
0.000334275
0.00035674
0.000379735
0.000403169
0.000426949
0.000450978
0.000475163
0.000499411
0.000523637
0.000547763
0.000571721
0.000595452
0.000618907
0.000642048
0.000664845
0.000687275
0.00070932
0.000730961
0.000752179
0.000772946
0.00079322
0.000812945
0.00083204
0.000850396
0.000867871
0.000884283
0.000899407
0.000912978
0.000924667
0.000934116
0.000940711
0.000943785
0.000944402
0.000941137
0.000932985
0.000919856
0.000901483
0.000877639
0.000848217
0.000813277
0.000773067
0.000728044
0.000678876
0.000626423
0.000571709
0.000515867
0.000460071
0.000405468
0.000353103
0.000303856
0.0002584
0.000217177
0.000180399
0.000148069
0.000120014
9.59323e-05
7.54348e-05
5.80878e-05
4.3451e-05
3.11145e-05
2.0738e-05
1.21056e-05
5.22383e-06
5.82e-07
5.53885e-08
4.9666e-07
1.1391e-06
1.91113e-06
2.77617e-06
3.71015e-06
4.69456e-06
5.71375e-06
6.75359e-06
7.80098e-06
8.8436e-06
9.86994e-06
1.08694e-05
1.18322e-05
1.275e-05
1.36155e-05
1.44231e-05
1.51683e-05
1.58485e-05
1.64623e-05
1.701e-05
1.74935e-05
1.79158e-05
1.82817e-05
1.85968e-05
1.88685e-05
1.91052e-05
1.93165e-05
1.95135e-05
1.97084e-05
1.99151e-05
2.01488e-05
2.04263e-05
2.07663e-05
2.11891e-05
2.17172e-05
2.23748e-05
2.31882e-05
2.41858e-05
2.53977e-05
2.68561e-05
2.85945e-05
3.0648e-05
3.3053e-05
3.58466e-05
3.90672e-05
4.27533e-05
4.69444e-05
5.16803e-05
5.70016e-05
6.29494e-05
6.95658e-05
7.68938e-05
8.49773e-05
9.3861e-05
0.00010359
0.000114211
0.000125766
0.0001383
0.000151851
0.000166453
0.000182135
0.000198914
0.0002168
0.000235788
0.000255861
0.000276987
0.000299118
0.00032219
0.000346126
0.000370832
0.000396203
0.000422125
0.000448474
0.000475125
0.000501949
0.000528822
0.000555629
0.000582261
0.000608626
0.000634646
0.000660262
0.000685432
0.000710131
0.000734348
0.000758089
0.000781365
0.000804197
0.000826605
0.000848601
0.000870191
0.000891359
0.000912069
0.000932254
0.00095181
0.000970591
0.000988405
0.00100501
0.0010201
0.00103333
0.00104428
0.00105245
0.00105678
0.00105812
0.00105587
0.00104819
0.00103505
0.00101615
0.000991172
0.000959947
0.00092247
0.000878943
0.000829801
0.000775718
0.0007176
0.000656554
0.000593835
0.000530778
0.000468711
0.000408874
0.000352339
0.000299951
0.00025229
0.000209665
0.00017213
0.000139524
0.000111521
8.76817e-05
6.75079e-05
5.04886e-05
3.6146e-05
2.40839e-05
1.40523e-05
6.06029e-06
6.74778e-07
6.3658e-08
5.71077e-07
1.31057e-06
2.20006e-06
3.19743e-06
4.27481e-06
5.41075e-06
6.58707e-06
7.78737e-06
8.99642e-06
1.01999e-05
1.13845e-05
1.25377e-05
1.36485e-05
1.4707e-05
1.57048e-05
1.66354e-05
1.74937e-05
1.82766e-05
1.89827e-05
1.96125e-05
2.01679e-05
2.06528e-05
2.10725e-05
2.14339e-05
2.17453e-05
2.20165e-05
2.22587e-05
2.24849e-05
2.27091e-05
2.29474e-05
2.32175e-05
2.3539e-05
2.39335e-05
2.44248e-05
2.50389e-05
2.58042e-05
2.67515e-05
2.79139e-05
2.93269e-05
3.10281e-05
3.3057e-05
3.5455e-05
3.8265e-05
4.1531e-05
4.52983e-05
4.96128e-05
5.45213e-05
6.00714e-05
6.63115e-05
7.32909e-05
8.10599e-05
8.96699e-05
9.91734e-05
0.000109624
0.000121074
0.000133577
0.000147185
0.000161945
0.000177898
0.000195081
0.000213518
0.000233221
0.000254186
0.000276394
0.000299805
0.00032436
0.000349978
0.00037656
0.000403985
0.000432118
0.000460808
0.000489896
0.000519219
0.000548611
0.000577916
0.000606986
0.00063569
0.000663918
0.000691584
0.000718627
0.000745014
0.000770735
0.000795807
0.000820262
0.000844152
0.000867536
0.000890477
0.000913035
0.00093526
0.000957185
0.000978818
0.00100014
0.00102108
0.00104154
0.00106137
0.00108035
0.00109823
0.00111468
0.00112931
0.00114168
0.00115131
0.00115701
0.00115912
0.00115804
0.00115119
0.0011385
0.00111965
0.00109426
0.00106208
0.00102304
0.000977255
0.000925118
0.000867266
0.000804605
0.000738283
0.000669639
0.000600133
0.00053126
0.000464449
0.000400971
0.00034186
0.00028786
0.000239406
0.000196634
0.000159418
0.000127423
0.000100174
7.71127e-05
5.76603e-05
4.12709e-05
2.74909e-05
1.60345e-05
6.91218e-06
7.69306e-07
7.22052e-08
6.47972e-07
1.48774e-06
2.49866e-06
3.63288e-06
4.85868e-06
6.15152e-06
7.49059e-06
8.85709e-06
1.02336e-05
1.16037e-05
1.2952e-05
1.42644e-05
1.55281e-05
1.67318e-05
1.78661e-05
1.89233e-05
1.9898e-05
2.07864e-05
2.15872e-05
2.23008e-05
2.29298e-05
2.34785e-05
2.39531e-05
2.43615e-05
2.47133e-05
2.50198e-05
2.52938e-05
2.55499e-05
2.58047e-05
2.60762e-05
2.63848e-05
2.6753e-05
2.72056e-05
2.777e-05
2.84761e-05
2.93566e-05
3.04473e-05
3.17863e-05
3.34147e-05
3.53763e-05
3.7717e-05
4.04849e-05
4.37302e-05
4.75042e-05
5.18599e-05
5.68513e-05
6.25333e-05
6.8962e-05
7.61944e-05
8.42885e-05
9.33036e-05
0.0001033
0.00011434
0.000126484
0.000139794
0.000154331
0.000170151
0.000187304
0.000205834
0.000225771
0.000247133
0.000269917
0.000294104
0.000319645
0.000346472
0.000374486
0.000403565
0.000433559
0.000464299
0.000495598
0.000527254
0.000559061
0.000590815
0.000622319
0.000653391
0.000683875
0.000713639
0.000742588
0.000770661
0.000797832
0.000824112
0.000849543
0.000874194
0.000898154
0.000921525
0.000944416
0.000966932
0.000989172
0.00101121
0.00103311
0.00105488
0.00107651
0.00109793
0.00111903
0.00113963
0.00115953
0.00117842
0.00119597
0.00121177
0.00122537
0.00123625
0.00124332
0.00124623
0.00124628
0.00124055
0.00122869
0.00121042
0.00118531
0.00115302
0.0011134
0.00106647
0.00101254
0.000952159
0.000886201
0.000815799
0.000742333
0.000667351
0.000592483
0.000519337
0.000449383
0.00038386
0.000323702
0.0002695
0.0002215
0.000179638
0.000143598
0.000112879
8.68762e-05
6.49452e-05
4.64732e-05
3.09479e-05
1.80455e-05
7.7766e-06
8.65256e-07
8.10127e-08
7.27193e-07
1.67027e-06
2.80629e-06
4.0816e-06
5.46045e-06
6.91516e-06
8.42215e-06
9.96016e-06
1.15094e-05
1.30513e-05
1.45684e-05
1.60447e-05
1.74657e-05
1.88188e-05
2.00931e-05
2.12802e-05
2.23739e-05
2.33701e-05
2.42674e-05
2.50664e-05
2.57701e-05
2.63836e-05
2.69138e-05
2.73699e-05
2.77627e-05
2.8105e-05
2.84115e-05
2.86987e-05
2.89852e-05
2.92917e-05
2.96412e-05
3.00592e-05
3.0574e-05
3.12167e-05
3.20215e-05
3.30257e-05
3.42701e-05
3.57986e-05
3.76584e-05
3.98995e-05
4.25751e-05
4.57406e-05
4.94538e-05
5.37744e-05
5.87636e-05
6.44842e-05
7.1e-05
7.83761e-05
8.6679e-05
9.59762e-05
0.000106336
0.00011783
0.000130526
0.000144497
0.00015981
0.000176531
0.00019472
0.000214429
0.000235696
0.000258544
0.000282975
0.000308966
0.000336467
0.000365396
0.000395642
0.000427057
0.000459463
0.000492656
0.000526408
0.000560473
0.000594599
0.000628536
0.000662044
0.000694905
0.000726928
0.000757964
0.000787903
0.000816683
0.000844289
0.000870751
0.000896137
0.000920554
0.000944132
0.000967019
0.000989369
0.00101133
0.00103305
0.00105466
0.00107623
0.00109784
0.0011195
0.00114119
0.00116282
0.00118428
0.00120537
0.00122587
0.00124546
0.00126379
0.00128045
0.00129496
0.00130681
0.00131514
0.00131904
0.00131987
0.00131553
0.00130483
0.00128762
0.00126343
0.00123185
0.00119261
0.00114565
0.00109113
0.00102951
0.000961556
0.000888352
0.000811261
0.000731877
0.000651935
0.000573196
0.000497328
0.000425784
0.00035971
0.000299882
0.000246692
0.000200167
0.000160034
0.00012579
9.6791e-05
7.23356e-05
5.17457e-05
3.44491e-05
2.00817e-05
8.65196e-06
9.62444e-07
9.00664e-08
8.08615e-07
1.85787e-06
3.12247e-06
4.54282e-06
6.07907e-06
7.70028e-06
9.38002e-06
1.10944e-05
1.28213e-05
1.45397e-05
1.62302e-05
1.78747e-05
1.9457e-05
2.09629e-05
2.23804e-05
2.37001e-05
2.4915e-05
2.60209e-05
2.70162e-05
2.79017e-05
2.8681e-05
2.93598e-05
2.99461e-05
3.04503e-05
3.08846e-05
3.12634e-05
3.16032e-05
3.19225e-05
3.22423e-05
3.25857e-05
3.29788e-05
3.34503e-05
3.40319e-05
3.47588e-05
3.56698e-05
3.6807e-05
3.82168e-05
3.99491e-05
4.20575e-05
4.45992e-05
4.76349e-05
5.1228e-05
5.54448e-05
6.03537e-05
6.6025e-05
7.2531e-05
7.99451e-05
8.83424e-05
9.77991e-05
0.000108393
0.000120202
0.000133306
0.000147785
0.000163716
0.000181175
0.00020023
0.000220942
0.000243358
0.000267507
0.000293396
0.000321005
0.00035028
0.000381132
0.000413433
0.000447016
0.000481674
0.000517166
0.000553223
0.000589554
0.000625857
0.000661833
0.000697194
0.000731679
0.000765065
0.000797175
0.000827887
0.000857134
0.000884911
0.000911266
0.000936299
0.00096015
0.000982993
0.00100502
0.00102644
0.00104744
0.00106821
0.00108891
0.00110968
0.0011306
0.00115173
0.00117308
0.0011946
0.00121619
0.00123772
0.00125898
0.00127972
0.00129964
0.00131839
0.00133555
0.00135066
0.0013632
0.00137257
0.00137744
0.00137893
0.00137607
0.00136682
0.0013511
0.00132842
0.00129828
0.00126033
0.00121438
0.00116045
0.00109885
0.0010302
0.000955495
0.00087602
0.000793369
0.000709339
0.000625821
0.000544665
0.000467547
0.000395842
0.000330542
0.000272217
0.000221021
0.00017675
0.00013892
0.000106866
7.98361e-05
5.70898e-05
3.79943e-05
2.21425e-05
9.53787e-06
1.06082e-06
9.93554e-08
8.92142e-07
2.05029e-06
3.4468e-06
5.01594e-06
6.71369e-06
8.50576e-06
1.03628e-05
1.22581e-05
1.41672e-05
1.60665e-05
1.79345e-05
1.97511e-05
2.14981e-05
2.31599e-05
2.47232e-05
2.61776e-05
2.75156e-05
2.87326e-05
2.98269e-05
3.07997e-05
3.16551e-05
3.23997e-05
3.30425e-05
3.35951e-05
3.40713e-05
3.44871e-05
3.4861e-05
3.52137e-05
3.55684e-05
3.59513e-05
3.63911e-05
3.69201e-05
3.75738e-05
3.83917e-05
3.94172e-05
4.06979e-05
4.2286e-05
4.42378e-05
4.6614e-05
4.94794e-05
5.29027e-05
5.69562e-05
6.1715e-05
6.72572e-05
7.3663e-05
8.10147e-05
8.9396e-05
9.88926e-05
0.000109591
0.000121579
0.000134946
0.00014978
0.000166168
0.000184195
0.00020394
0.000225472
0.000248849
0.000274106
0.000301258
0.000330288
0.000361142
0.000393724
0.000427896
0.000463472
0.000500217
0.000537857
0.000576081
0.00061455
0.000652913
0.000690815
0.00072792
0.000763919
0.00079855
0.000831605
0.000862946
0.0008925
0.000920269
0.00094632
0.000970781
0.000993833
0.00101568
0.00103658
0.00105676
0.00107648
0.00109597
0.00111542
0.001135
0.00115482
0.00117497
0.00119549
0.00121634
0.00123747
0.00125877
0.00128006
0.00130115
0.00132178
0.00134166
0.00136045
0.00137774
0.00139313
0.00140611
0.00141618
0.00142201
0.00142411
0.00142273
0.00141514
0.00140126
0.00138058
0.00135254
0.00131669
0.0012727
0.00122044
0.00116005
0.00109197
0.00101703
0.000936409
0.000851646
0.000764551
0.00067711
0.000591339
0.000509134
0.000432116
0.000361519
0.000298123
0.000242246
0.000193786
0.000152302
0.000117125
8.74618e-05
6.25142e-05
4.1588e-05
2.423e-05
1.0435e-05
1.16046e-06
1.08871e-07
9.77698e-07
2.24738e-06
3.77897e-06
5.50051e-06
7.36367e-06
9.33071e-06
1.13692e-05
1.34498e-05
1.55452e-05
1.76295e-05
1.96788e-05
2.16708e-05
2.35856e-05
2.54059e-05
2.71173e-05
2.87082e-05
3.01707e-05
3.14997e-05
3.26938e-05
3.37544e-05
3.46862e-05
3.54967e-05
3.61961e-05
3.67973e-05
3.73157e-05
3.77692e-05
3.81782e-05
3.85657e-05
3.89575e-05
3.93824e-05
3.98726e-05
4.04638e-05
4.11956e-05
4.2112e-05
4.32615e-05
4.46974e-05
4.6478e-05
4.86667e-05
5.13316e-05
5.45459e-05
5.83868e-05
6.29361e-05
6.82786e-05
7.45027e-05
8.1699e-05
8.99606e-05
9.93824e-05
0.000110061
0.000122093
0.000135578
0.000150613
0.000167296
0.000185722
0.000205978
0.000228145
0.000252289
0.000278456
0.000306668
0.000336914
0.000369141
0.000403254
0.000439105
0.000476491
0.000515156
0.000554794
0.000595052
0.000635546
0.000675871
0.000715619
0.000754397
0.000791847
0.000827662
0.0008616
0.000893497
0.000923275
0.000950937
0.00097657
0.00100033
0.00102242
0.00104312
0.00106269
0.00108144
0.00109967
0.00111763
0.00113557
0.00115367
0.00117208
0.00119092
0.00121022
0.00122999
0.00125019
0.00127073
0.00129147
0.00131224
0.00133284
0.00135302
0.00137251
0.00139098
0.00140809
0.00142344
0.00143659
0.00144709
0.00145385
0.0014566
0.00145653
0.00145079
0.001439
0.00142072
0.0013953
0.00136221
0.00132099
0.00127136
0.00121324
0.00114689
0.00107293
0.000992366
0.000906635
0.000817511
0.000727031
0.000637352
0.000550578
0.000468587
0.000392881
0.000324485
0.000263915
0.000211205
0.000165986
0.000127604
9.52376e-05
6.80345e-05
4.5239e-05
2.63484e-05
1.13452e-05
1.26155e-06
1.18607e-07
1.06523e-06
2.44901e-06
4.11876e-06
5.99617e-06
8.0285e-06
1.01745e-05
1.23985e-05
1.46684e-05
1.69539e-05
1.92269e-05
2.14608e-05
2.36313e-05
2.57166e-05
2.76977e-05
2.95588e-05
3.12877e-05
3.28756e-05
3.43174e-05
3.56116e-05
3.67602e-05
3.77684e-05
3.86448e-05
3.94009e-05
4.00509e-05
4.0612e-05
4.11038e-05
4.1549e-05
4.19729e-05
4.24041e-05
4.28743e-05
4.3419e-05
4.40778e-05
4.48945e-05
4.59179e-05
4.72018e-05
4.88058e-05
5.07947e-05
5.32393e-05
5.62159e-05
5.98064e-05
6.40975e-05
6.91808e-05
7.51518e-05
8.21096e-05
9.01562e-05
9.9396e-05
0.000109935
0.000121882
0.000135344
0.00015043
0.000167247
0.000185901
0.00020649
0.000229103
0.000253819
0.000280694
0.000309758
0.000341008
0.000374399
0.000409835
0.000447164
0.000486173
0.000526586
0.000568069
0.000610233
0.000652647
0.000694854
0.00073639
0.000776805
0.000815685
0.000852673
0.000887487
0.000919936
0.000949924
0.000977454
0.00100263
0.00102563
0.0010467
0.00106614
0.00108429
0.00110149
0.00111808
0.00113436
0.00115059
0.00116703
0.00118384
0.00120112
0.00121895
0.00123735
0.00125629
0.00127569
0.00129545
0.00131541
0.00133541
0.00135524
0.00137468
0.00139348
0.00141135
0.00142799
0.00144304
0.00145612
0.0014668
0.0014744
0.00147804
0.00147887
0.00147513
0.00146558
0.00144997
0.00142754
0.00139771
0.00135991
0.00131369
0.00125877
0.00119517
0.00112328
0.00104391
0.000958324
0.000868201
0.000775583
0.000682728
0.000591933
0.000505334
0.00042472
0.000351397
0.000286115
0.000229083
0.000180034
0.00013835
0.000103196
7.36716e-05
4.89595e-05
2.85043e-05
1.22709e-05
1.36437e-06
1.2856e-07
1.1547e-06
2.65508e-06
4.46602e-06
6.50269e-06
8.70783e-06
1.10365e-05
1.34499e-05
1.59128e-05
1.83922e-05
2.08572e-05
2.32788e-05
2.56305e-05
2.78885e-05
3.00323e-05
3.20446e-05
3.39125e-05
3.56265e-05
3.71813e-05
3.85757e-05
3.98122e-05
4.08967e-05
4.18389e-05
4.26516e-05
4.33505e-05
4.39546e-05
4.44857e-05
4.49684e-05
4.54308e-05
4.5904e-05
4.64231e-05
4.70271e-05
4.77595e-05
4.86686e-05
4.98084e-05
5.12385e-05
5.30247e-05
5.52391e-05
5.79605e-05
6.12737e-05
6.527e-05
7.00463e-05
7.57047e-05
8.2352e-05
9.00988e-05
9.9059e-05
0.000109349
0.000121086
0.00013439
0.000149381
0.000166175
0.000184889
0.000205631
0.000228505
0.000253596
0.000280974
0.000310681
0.000342722
0.00037706
0.000413605
0.000452205
0.000492641
0.000534624
0.000577796
0.000621735
0.000665968
0.000709989
0.000753275
0.000795316
0.000835639
0.000873832
0.000909567
0.000942616
0.000972862
0.0010003
0.00102505
0.0010473
0.00106734
0.00108551
0.00110219
0.00111779
0.00113267
0.00114718
0.00116163
0.00117627
0.00119133
0.00120693
0.00122314
0.00123999
0.00125746
0.0012755
0.001294
0.00131283
0.00133185
0.00135087
0.00136972
0.0013882
0.00140608
0.0014231
0.001439
0.0014535
0.00146626
0.00147693
0.00148507
0.00148968
0.00149126
0.00148956
0.00148251
0.00146968
0.00145047
0.00142423
0.00139029
0.00134805
0.00129706
0.00123708
0.00116824
0.00109111
0.00100672
0.000916608
0.000822758
0.000727484
0.000633246
0.000542431
0.000457131
0.00037896
0.000308946
0.000247508
0.000194517
0.000149417
0.000111376
7.9451e-05
5.2765e-05
3.07057e-05
1.32154e-05
1.46927e-06
1.38727e-07
1.24608e-06
2.86555e-06
4.82067e-06
7.01992e-06
9.40144e-06
1.19165e-05
1.4523e-05
1.71825e-05
1.98592e-05
2.25194e-05
2.51315e-05
2.76667e-05
3.00994e-05
3.24072e-05
3.45719e-05
3.65793e-05
3.84197e-05
4.00877e-05
4.15821e-05
4.29061e-05
4.40667e-05
4.50744e-05
4.59435e-05
4.66915e-05
4.73392e-05
4.79104e-05
4.84322e-05
4.89353e-05
4.94537e-05
5.00259e-05
5.06944e-05
5.15071e-05
5.25171e-05
5.37838e-05
5.53728e-05
5.73568e-05
5.98156e-05
6.28362e-05
6.6513e-05
7.09472e-05
7.62462e-05
8.25237e-05
8.98982e-05
9.84924e-05
0.000108433
0.000119847
0.000132867
0.000147621
0.00016424
0.000182849
0.000203572
0.000226519
0.000251791
0.000279469
0.000309606
0.000342221
0.000377287
0.000414722
0.00045438
0.000496041
0.000539408
0.000584105