/*--------------------------------*- C++ -*----------------------------------*\
  =========                 |
  \\      /  F ield         | OpenFOAM: The Open Source CFD Toolbox
   \\    /   O peration     | Website:  https://openfoam.org
    \\  /    A nd           | Version:  12
     \\/     M anipulation  |
\*---------------------------------------------------------------------------*/
FoamFile
{
    format      ascii;
    class       volScalarField;
    location    "2.5";
    object      nut;
}
// * * * * * * * * * * * * * * * * * * * * * * * * * * * * * * * * * * * * * //

dimensions      [0 2 -1 0 0 0 0];

internalField   nonuniform List<scalar> 
18225
(
1.25164e-14
8.46691e-14
1.88471e-13
3.12119e-13
4.50053e-13
5.98646e-13
7.55078e-13
9.1693e-13
1.08201e-12
1.24828e-12
1.41383e-12
1.57686e-12
1.73573e-12
1.88893e-12
2.03513e-12
2.17322e-12
2.30228e-12
2.42162e-12
2.53079e-12
2.62957e-12
2.71799e-12
2.7963e-12
2.86498e-12
2.92472e-12
2.97645e-12
3.02128e-12
3.06054e-12
3.09575e-12
3.12865e-12
3.16118e-12
3.19552e-12
3.23405e-12
3.27943e-12
3.33455e-12
3.40259e-12
3.48701e-12
3.59153e-12
3.72018e-12
3.87725e-12
4.0673e-12
4.29513e-12
4.56574e-12
4.88431e-12
5.25617e-12
5.68674e-12
6.18151e-12
6.74602e-12
7.3858e-12
8.10642e-12
8.91343e-12
9.81239e-12
1.08089e-11
1.19086e-11
1.31172e-11
1.44404e-11
1.58841e-11
1.7454e-11
1.9156e-11
2.09957e-11
2.29786e-11
2.511e-11
2.73946e-11
2.98366e-11
3.24399e-11
3.52072e-11
3.81408e-11
4.1242e-11
4.45115e-11
4.79492e-11
5.15542e-11
5.53253e-11
5.92604e-11
6.33571e-11
6.76125e-11
7.20234e-11
7.6586e-11
8.12961e-11
8.6149e-11
9.11394e-11
9.62611e-11
1.01507e-10
1.06869e-10
1.12337e-10
1.17901e-10
1.23547e-10
1.29261e-10
1.35023e-10
1.40814e-10
1.46608e-10
1.52379e-10
1.58093e-10
1.63712e-10
1.69195e-10
1.74491e-10
1.79546e-10
1.84299e-10
1.88682e-10
1.92619e-10
1.96026e-10
1.98812e-10
2.00881e-10
2.02045e-10
2.02439e-10
2.02005e-10
2.00465e-10
1.97776e-10
1.93914e-10
1.88865e-10
1.82636e-10
1.75263e-10
1.66818e-10
1.57409e-10
1.47178e-10
1.36298e-10
1.2497e-10
1.13408e-10
1.01833e-10
9.0459e-11
7.94825e-11
6.90741e-11
5.93697e-11
5.04669e-11
4.2424e-11
3.52618e-11
2.8968e-11
2.35028e-11
1.88058e-11
1.48031e-11
1.14122e-11
8.55029e-12
6.13928e-12
4.11293e-12
2.42662e-12
1.07642e-12
1.58747e-13
3.78269e-13
1.23411e-11
3.09613e-11
5.25729e-11
7.64641e-11
1.02109e-10
1.29062e-10
1.56924e-10
1.85327e-10
2.13925e-10
2.42392e-10
2.70419e-10
2.97725e-10
3.24049e-10
3.49166e-10
3.7288e-10
3.95036e-10
4.15515e-10
4.3424e-10
4.51174e-10
4.6632e-10
4.79723e-10
4.91466e-10
5.01669e-10
5.1049e-10
5.1812e-10
5.24788e-10
5.30755e-10
5.36318e-10
5.41811e-10
5.47605e-10
5.54111e-10
5.61782e-10
5.71114e-10
5.82651e-10
5.96984e-10
6.14752e-10
6.36643e-10
6.63393e-10
6.95782e-10
7.3463e-10
7.80795e-10
8.35162e-10
8.98641e-10
9.72157e-10
1.05665e-09
1.15305e-09
1.26232e-09
1.38538e-09
1.52317e-09
1.67664e-09
1.84672e-09
2.03437e-09
2.24053e-09
2.46616e-09
2.71224e-09
2.97971e-09
3.26954e-09
3.58267e-09
3.91998e-09
4.28233e-09
4.67047e-09
5.08508e-09
5.52673e-09
5.99584e-09
6.49273e-09
7.01756e-09
7.57036e-09
8.15103e-09
8.75938e-09
9.39509e-09
1.00578e-08
1.0747e-08
1.14621e-08
1.22027e-08
1.2968e-08
1.37573e-08
1.45698e-08
1.54047e-08
1.62611e-08
1.71377e-08
1.80334e-08
1.89468e-08
1.9876e-08
2.08192e-08
2.17741e-08
2.27379e-08
2.37075e-08
2.46792e-08
2.56486e-08
2.66108e-08
2.75596e-08
2.84885e-08
2.93895e-08
3.02538e-08
3.10713e-08
3.18309e-08
3.25201e-08
3.31243e-08
3.3628e-08
3.40113e-08
3.42356e-08
3.43317e-08
3.42952e-08
3.40681e-08
3.36449e-08
3.30205e-08
3.21912e-08
3.1157e-08
2.99231e-08
2.85007e-08
2.69078e-08
2.51686e-08
2.33132e-08
2.13764e-08
1.93959e-08
1.74105e-08
1.54582e-08
1.35736e-08
1.17869e-08
1.0122e-08
8.59592e-09
7.21874e-09
5.9939e-09
4.91901e-09
3.98691e-09
3.18681e-09
2.5054e-09
1.92878e-09
1.44235e-09
1.03225e-09
6.86385e-10
3.9566e-10
1.56099e-10
4.79761e-12
8.02604e-13
6.60219e-11
2.12053e-10
3.8486e-10
5.73563e-10
7.74545e-10
9.84879e-10
1.20179e-09
1.42259e-09
1.6447e-09
1.86563e-09
2.08302e-09
2.2947e-09
2.49865e-09
2.69313e-09
2.87662e-09
3.04791e-09
3.20608e-09
3.35055e-09
3.48103e-09
3.59756e-09
3.7005e-09
3.7905e-09
3.8685e-09
3.93572e-09
3.99365e-09
4.04407e-09
4.089e-09
4.13072e-09
4.17182e-09
4.21516e-09
4.26388e-09
4.32148e-09
4.39177e-09
4.47892e-09
4.58748e-09
4.72236e-09
4.88883e-09
5.09253e-09
5.33944e-09
5.63584e-09
5.98828e-09
6.40352e-09
6.88847e-09
7.45015e-09
8.09563e-09
8.832e-09
9.6663e-09
1.06055e-08
1.16566e-08
1.28265e-08
1.4122e-08
1.55499e-08
1.71171e-08
1.88305e-08
2.06968e-08
2.27226e-08
2.49147e-08
2.72793e-08
2.98223e-08
3.25492e-08
3.54647e-08
3.85727e-08
4.18764e-08
4.53776e-08
4.90773e-08
5.29754e-08
5.70707e-08
6.1361e-08
6.58436e-08
7.05151e-08
7.53715e-08
8.04084e-08
8.56211e-08
9.10048e-08
9.65546e-08
1.02265e-07
1.08132e-07
1.14148e-07
1.2031e-07
1.26609e-07
1.3304e-07
1.39594e-07
1.46262e-07
1.53034e-07
1.59896e-07
1.66835e-07
1.73832e-07
1.80865e-07
1.87909e-07
1.94934e-07
2.01902e-07
2.08769e-07
2.15484e-07
2.21986e-07
2.28207e-07
2.34067e-07
2.39478e-07
2.44335e-07
2.48518e-07
2.51933e-07
2.54112e-07
2.55433e-07
2.5587e-07
2.5486e-07
2.52369e-07
2.48342e-07
2.42728e-07
2.35502e-07
2.26681e-07
2.16336e-07
2.0459e-07
1.91623e-07
1.77668e-07
1.62999e-07
1.47918e-07
1.32742e-07
1.17778e-07
1.03314e-07
8.95948e-08
7.68165e-08
6.51178e-08
5.45793e-08
4.52273e-08
3.70404e-08
2.99591e-08
2.38957e-08
1.87434e-08
1.43879e-08
1.07112e-08
7.59997e-09
4.95138e-09
2.68548e-09
8.33287e-10
1.0175e-11
1.31062e-12
1.54723e-10
6.36e-10
1.27119e-09
1.97198e-09
2.71489e-09
3.48871e-09
4.2841e-09
5.09199e-09
5.90342e-09
6.70962e-09
7.50218e-09
8.27317e-09
9.01538e-09
9.72237e-09
1.03887e-08
1.10099e-08
1.15827e-08
1.2105e-08
1.25758e-08
1.29952e-08
1.33647e-08
1.36866e-08
1.39644e-08
1.42026e-08
1.44066e-08
1.4583e-08
1.47389e-08
1.48827e-08
1.50238e-08
1.51723e-08
1.53396e-08
1.55383e-08
1.5782e-08
1.60856e-08
1.64654e-08
1.69388e-08
1.75248e-08
1.82434e-08
1.91157e-08
2.01642e-08
2.14117e-08
2.28822e-08
2.45997e-08
2.65886e-08
2.88733e-08
3.14779e-08
3.44262e-08
3.77416e-08
4.14468e-08
4.55642e-08
5.01156e-08
5.51225e-08
6.06057e-08
6.65858e-08
7.30828e-08
8.01159e-08
8.77035e-08
9.58622e-08
1.04607e-07
1.13951e-07
1.23905e-07
1.34474e-07
1.45662e-07
1.57469e-07
1.6989e-07
1.82918e-07
1.96542e-07
2.10748e-07
2.25522e-07
2.40847e-07
2.56706e-07
2.73082e-07
2.89959e-07
3.07321e-07
3.25155e-07
3.43447e-07
3.62186e-07
3.81362e-07
4.00967e-07
4.2099e-07
4.41423e-07
4.62256e-07
4.83477e-07
5.05069e-07
5.27014e-07
5.49285e-07
5.71846e-07
5.94654e-07
6.17649e-07
6.40757e-07
6.63883e-07
6.86907e-07
7.09681e-07
7.32023e-07
7.53719e-07
7.74519e-07
7.94131e-07
8.12238e-07
8.28533e-07
8.42454e-07
8.52048e-07
8.59304e-07
8.63889e-07
8.63538e-07
8.58129e-07
8.47402e-07
8.31085e-07
8.08997e-07
7.8111e-07
7.47586e-07
7.08797e-07
6.65335e-07
6.17998e-07
5.67757e-07
5.1571e-07
4.63018e-07
4.10832e-07
3.60226e-07
3.12132e-07
2.67295e-07
2.26248e-07
1.89301e-07
1.5656e-07
1.27952e-07
1.03257e-07
8.21537e-08
6.42486e-08
4.91147e-08
3.63115e-08
2.54106e-08
1.60303e-08
7.97617e-09
1.95085e-09
1.65923e-11
1.88531e-12
2.6075e-10
1.28937e-09
2.85637e-09
4.66018e-09
6.58599e-09
8.58948e-09
1.06439e-08
1.27261e-08
1.48139e-08
1.68855e-08
1.89195e-08
2.08959e-08
2.27964e-08
2.46044e-08
2.63059e-08
2.78896e-08
2.93472e-08
3.06732e-08
3.18652e-08
3.2924e-08
3.38529e-08
3.46585e-08
3.53497e-08
3.59381e-08
3.64378e-08
3.6865e-08
3.72386e-08
3.75794e-08
3.7911e-08
3.82592e-08
3.86526e-08
3.91224e-08
3.97029e-08
4.04312e-08
4.13478e-08
4.24963e-08
4.39231e-08
4.56779e-08
4.78129e-08
5.03824e-08
5.34426e-08
5.70508e-08
6.12649e-08
6.61426e-08
7.17408e-08
7.8115e-08
8.53191e-08
9.34046e-08
1.02421e-07
1.12415e-07
1.23431e-07
1.35512e-07
1.48698e-07
1.63026e-07
1.78531e-07
1.95246e-07
2.13198e-07
2.32413e-07
2.52908e-07
2.74696e-07
2.97782e-07
3.22163e-07
3.47829e-07
3.7476e-07
4.02929e-07
4.32303e-07
4.62841e-07
4.94501e-07
5.27242e-07
5.61024e-07
5.95808e-07
6.31557e-07
6.68241e-07
7.05837e-07
7.44328e-07
7.83706e-07
8.23967e-07
8.65116e-07
9.07163e-07
9.50121e-07
9.94007e-07
1.03884e-06
1.08462e-06
1.13138e-06
1.1791e-06
1.22778e-06
1.27739e-06
1.32787e-06
1.37915e-06
1.43111e-06
1.48357e-06
1.53632e-06
1.58904e-06
1.64137e-06
1.69282e-06
1.74284e-06
1.79073e-06
1.8361e-06
1.87828e-06
1.91426e-06
1.94139e-06
1.96345e-06
1.98019e-06
1.98549e-06
1.97908e-06
1.96025e-06
1.92824e-06
1.88245e-06
1.82269e-06
1.7492e-06
1.66271e-06
1.56454e-06
1.45647e-06
1.34076e-06
1.22001e-06
1.09699e-06
9.74507e-07
8.55194e-07
7.41388e-07
6.34984e-07
5.37364e-07
4.49371e-07
3.71335e-07
3.03129e-07
2.44256e-07
1.93948e-07
1.51247e-07
1.15092e-07
8.43802e-08
5.80445e-08
3.52356e-08
1.60298e-08
3.28249e-09
2.38089e-11
2.51434e-12
3.75888e-10
2.10635e-09
5.11851e-09
8.81162e-09
1.28393e-08
1.70521e-08
2.13734e-08
2.57489e-08
3.01307e-08
3.4473e-08
3.87316e-08
4.28648e-08
4.68339e-08
5.06046e-08
5.41475e-08
5.7439e-08
6.04617e-08
6.32042e-08
6.56619e-08
6.78365e-08
6.97356e-08
7.13729e-08
7.27675e-08
7.39437e-08
7.49307e-08
7.57627e-08
7.64781e-08
7.71203e-08
7.77374e-08
7.83821e-08
7.91126e-08
7.99922e-08
8.10901e-08
8.24814e-08
8.42471e-08
8.64745e-08
8.92563e-08
9.26909e-08
9.68812e-08
1.01934e-07
1.07958e-07
1.15063e-07
1.2336e-07
1.32956e-07
1.43956e-07
1.56459e-07
1.70559e-07
1.86344e-07
2.03894e-07
2.23282e-07
2.44575e-07
2.67831e-07
2.93103e-07
3.20437e-07
3.49871e-07
3.81438e-07
4.15159e-07
4.51047e-07
4.89104e-07
5.29323e-07
5.71681e-07
6.16143e-07
6.62658e-07
7.11168e-07
7.616e-07
8.13878e-07
8.67916e-07
9.23626e-07
9.80943e-07
1.03983e-06
1.10023e-06
1.16209e-06
1.22537e-06
1.29006e-06
1.35617e-06
1.42372e-06
1.49276e-06
1.56332e-06
1.63549e-06
1.70933e-06
1.78492e-06
1.86235e-06
1.94169e-06
2.02303e-06
2.10641e-06
2.19187e-06
2.27944e-06
2.36906e-06
2.46064e-06
2.55404e-06
2.64903e-06
2.74531e-06
2.84223e-06
2.93912e-06
3.0351e-06
3.12912e-06
3.21982e-06
3.30774e-06
3.38862e-06
3.45907e-06
3.51431e-06
3.55947e-06
3.59647e-06
3.61254e-06
3.60716e-06
3.5791e-06
3.52692e-06
3.44949e-06
3.34631e-06
3.21769e-06
3.06488e-06
2.89006e-06
2.69637e-06
2.48778e-06
2.2689e-06
2.04475e-06
1.82045e-06
1.60091e-06
1.39053e-06
1.19298e-06
1.01101e-06
8.46398e-07
6.99939e-07
5.7157e-07
4.60487e-07
3.65318e-07
2.843e-07
2.15421e-07
1.56577e-07
1.05775e-07
6.17763e-08
2.59755e-08
4.71892e-09
3.16385e-11
3.18923e-12
4.97373e-10
3.02751e-09
7.93566e-09
1.43817e-08
2.16393e-08
2.93269e-08
3.72463e-08
4.52731e-08
5.33099e-08
6.12689e-08
6.90676e-08
7.66287e-08
8.3881e-08
9.07611e-08
9.72149e-08
1.03199e-07
1.08681e-07
1.13642e-07
1.18071e-07
1.21974e-07
1.25364e-07
1.28268e-07
1.30719e-07
1.32763e-07
1.34453e-07
1.3585e-07
1.37025e-07
1.38055e-07
1.39025e-07
1.4003e-07
1.41172e-07
1.42563e-07
1.44325e-07
1.46588e-07
1.49494e-07
1.53193e-07
1.57847e-07
1.63623e-07
1.70696e-07
1.79245e-07
1.89454e-07
2.01502e-07
2.15568e-07
2.31823e-07
2.50427e-07
2.71533e-07
2.95274e-07
3.21773e-07
3.51134e-07
3.83445e-07
4.18781e-07
4.57198e-07
4.98743e-07
5.43446e-07
5.91326e-07
6.42387e-07
6.96619e-07
7.53998e-07
8.14484e-07
8.78044e-07
9.44601e-07
1.01406e-06
1.08633e-06
1.1613e-06
1.23883e-06
1.31882e-06
1.40113e-06
1.48563e-06
1.57223e-06
1.66084e-06
1.7514e-06
1.84391e-06
1.93838e-06
2.03484e-06
2.13335e-06
2.23402e-06
2.33695e-06
2.4423e-06
2.55022e-06
2.6609e-06
2.77453e-06
2.89128e-06
3.01136e-06
3.13492e-06
3.26212e-06
3.39305e-06
3.52776e-06
3.66622e-06
3.8083e-06
3.95372e-06
4.10204e-06
4.25257e-06
4.40459e-06
4.55699e-06
4.70834e-06
4.85689e-06
5.00052e-06
5.14018e-06
5.26768e-06
5.37991e-06
5.46924e-06
5.53958e-06
5.59956e-06
5.62692e-06
5.6205e-06
5.57897e-06
5.50032e-06
5.38299e-06
5.22629e-06
5.03075e-06
4.79819e-06
4.53182e-06
4.23622e-06
3.91717e-06
3.58143e-06
3.23642e-06
2.88976e-06
2.54891e-06
2.22065e-06
1.9108e-06
1.62385e-06
1.36289e-06
1.12951e-06
9.23948e-07
7.45215e-07
5.9137e-07
4.59741e-07
3.47175e-07
2.50353e-07
1.66278e-07
9.37824e-08
3.70289e-08
6.21818e-09
3.99424e-11
3.90401e-12
6.24206e-10
4.01522e-09
1.11652e-08
2.11823e-08
3.28873e-08
4.55139e-08
5.86307e-08
7.19717e-08
8.53457e-08
9.85931e-08
1.11569e-07
1.24142e-07
1.36189e-07
1.47604e-07
1.58295e-07
1.68189e-07
1.77233e-07
1.85392e-07
1.92652e-07
1.99019e-07
2.04519e-07
2.09193e-07
2.13101e-07
2.16316e-07
2.18926e-07
2.21034e-07
2.22751e-07
2.24205e-07
2.25535e-07
2.2689e-07
2.28437e-07
2.30352e-07
2.32829e-07
2.36074e-07
2.4031e-07
2.45773e-07
2.52711e-07
2.61384e-07
2.7206e-07
2.85009e-07
3.00505e-07
3.18812e-07
3.40188e-07
3.64873e-07
3.93088e-07
4.25031e-07
4.6087e-07
5.00748e-07
5.44776e-07
5.93038e-07
6.45589e-07
7.02459e-07
7.63668e-07
8.29199e-07
8.99024e-07
9.73097e-07
1.05136e-06
1.13372e-06
1.22008e-06
1.31032e-06
1.4043e-06
1.50189e-06
1.60293e-06
1.70727e-06
1.81472e-06
1.92515e-06
2.0384e-06
2.15439e-06
2.27298e-06
2.39409e-06
2.51769e-06
2.64382e-06
2.77254e-06
2.90395e-06
3.0382e-06
3.17548e-06
3.31599e-06
3.46001e-06
3.6078e-06
3.75967e-06
3.91592e-06
4.07687e-06
4.24281e-06
4.41401e-06
4.5907e-06
4.773e-06
4.96099e-06
5.15457e-06
5.35351e-06
5.55733e-06
5.76532e-06
5.97645e-06
6.18947e-06
6.40268e-06
6.61392e-06
6.82054e-06
7.0194e-06
7.20962e-06
7.38394e-06
7.53605e-06
7.65748e-06
7.74611e-06
7.8219e-06
7.8542e-06
7.83872e-06
7.77509e-06
7.66125e-06
7.49551e-06
7.27727e-06
7.0074e-06
6.68839e-06
6.32441e-06
5.92134e-06
5.48657e-06
5.02872e-06
4.55731e-06
4.08224e-06
3.61327e-06
3.1595e-06
2.72886e-06
2.32772e-06
1.96066e-06
1.63032e-06
1.33749e-06
1.08126e-06
8.59274e-07
6.68061e-07
5.03361e-07
3.60593e-07
2.35975e-07
1.29279e-07
4.86707e-08
7.76038e-09
4.86143e-11
4.65426e-12
7.55904e-10
5.04875e-09
1.46872e-08
2.89707e-08
4.63049e-08
6.54137e-08
8.54922e-08
1.06036e-07
1.26691e-07
1.47175e-07
1.67247e-07
1.86692e-07
2.05313e-07
2.22941e-07
2.39429e-07
2.54663e-07
2.68557e-07
2.81057e-07
2.9214e-07
3.01817e-07
3.10126e-07
3.17131e-07
3.22924e-07
3.27619e-07
3.31351e-07
3.34272e-07
3.36558e-07
3.38396e-07
3.39996e-07
3.41584e-07
3.43402e-07
3.45716e-07
3.48809e-07
3.52984e-07
3.58564e-07
3.65892e-07
3.75326e-07
3.87235e-07
4.02e-07
4.19998e-07
4.41605e-07
4.6718e-07
4.97064e-07
5.31567e-07
5.70963e-07
6.15487e-07
6.65331e-07
7.20635e-07
7.81498e-07
8.4797e-07
9.20066e-07
9.97755e-07
1.08098e-06
1.16967e-06
1.26372e-06
1.36302e-06
1.46744e-06
1.57684e-06
1.69106e-06
1.80991e-06
1.93322e-06
2.06079e-06
2.19243e-06
2.32793e-06
2.4671e-06
2.60976e-06
2.75578e-06
2.90503e-06
3.05741e-06
3.21286e-06
3.37139e-06
3.53309e-06
3.69806e-06
3.8665e-06
4.03863e-06
4.21474e-06
4.39516e-06
4.58025e-06
4.77041e-06
4.96608e-06
5.16768e-06
5.37566e-06
5.59039e-06
5.81223e-06
6.04142e-06
6.27809e-06
6.52223e-06
6.7736e-06
7.0317e-06
7.29574e-06
7.56455e-06
7.83657e-06
8.10982e-06
8.38181e-06
8.64949e-06
8.90924e-06
9.15708e-06
9.38912e-06
9.59879e-06
9.78174e-06
9.92533e-06
1.00217e-05
1.00958e-05
1.0123e-05
1.00872e-05
9.99128e-06
9.83368e-06
9.61294e-06
9.32878e-06
8.98248e-06
8.5771e-06
8.1176e-06
7.61079e-06
7.06523e-06
6.49095e-06
5.89905e-06
5.30118e-06
4.70901e-06
4.13356e-06
3.58464e-06
3.0704e-06
2.59688e-06
2.16789e-06
1.78498e-06
1.44752e-06
1.153e-06
8.97341e-07
6.75321e-07
4.81346e-07
3.11265e-07
1.66657e-07
6.05872e-08
9.33308e-09
5.75715e-11
5.43659e-12
8.92145e-10
6.11715e-09
1.8415e-08
3.7513e-08
6.15307e-08
8.86195e-08
1.17473e-07
1.47222e-07
1.77262e-07
2.07128e-07
2.36428e-07
2.64822e-07
2.92011e-07
3.17735e-07
3.41774e-07
3.63952e-07
3.84142e-07
4.02259e-07
4.18272e-07
4.3219e-07
4.44069e-07
4.54004e-07
4.62126e-07
4.686e-07
4.7362e-07
4.77407e-07
4.80208e-07
4.82294e-07
4.83959e-07
4.85523e-07
4.87327e-07
4.8974e-07
4.93157e-07
4.97997e-07
5.04706e-07
5.13753e-07
5.25623e-07
5.40818e-07
5.59842e-07
5.83196e-07
6.11366e-07
6.44814e-07
6.83963e-07
7.2919e-07
7.80815e-07
8.39092e-07
9.04209e-07
9.76291e-07
1.0554e-06
1.14152e-06
1.23461e-06
1.33456e-06
1.44125e-06
1.55451e-06
1.67417e-06
1.80003e-06
1.93191e-06
2.06959e-06
2.21287e-06
2.36152e-06
2.51531e-06
2.67402e-06
2.8374e-06
3.00523e-06
3.17729e-06
3.35339e-06
3.53338e-06
3.71711e-06
3.90449e-06
4.0955e-06
4.29016e-06
4.48859e-06
4.69097e-06
4.89755e-06
5.10864e-06
5.32463e-06
5.54595e-06
5.77309e-06
6.00658e-06
6.24697e-06
6.4948e-06
6.75062e-06
7.01487e-06
7.2879e-06
7.56993e-06
7.86095e-06
8.16074e-06
8.46877e-06
8.78411e-06
9.10545e-06
9.43099e-06
9.75841e-06
1.00849e-05
1.04071e-05
1.07209e-05
1.10218e-05
1.1305e-05
1.15649e-05
1.17949e-05
1.19885e-05
1.21419e-05
1.22321e-05
1.22863e-05
1.22969e-05
1.22304e-05
1.20937e-05
1.18865e-05
1.1608e-05
1.12582e-05
1.08386e-05
1.03528e-05
9.80605e-06
9.20575e-06
8.56111e-06
7.883e-06
7.18355e-06
6.47564e-06
5.77231e-06
5.08612e-06
4.42847e-06
3.809e-06
3.23519e-06
2.71199e-06
2.24178e-06
1.82439e-06
1.45733e-06
1.13614e-06
8.54869e-07
6.07199e-07
3.89102e-07
2.04748e-07
7.25909e-08
1.09271e-08
6.67496e-11
6.24833e-12
1.03267e-09
7.21461e-09
2.22909e-08
4.66146e-08
7.81954e-08
1.14622e-07
1.5399e-07
1.94949e-07
2.36533e-07
2.78008e-07
3.1878e-07
3.58337e-07
3.96231e-07
4.32078e-07
4.65558e-07
4.96414e-07
5.24459e-07
5.49572e-07
5.717e-07
5.90855e-07
6.0711e-07
6.20596e-07
6.31492e-07
6.40023e-07
6.46457e-07
6.51096e-07
6.54277e-07
6.56367e-07
6.57765e-07
6.589e-07
6.60233e-07
6.62255e-07
6.65493e-07
6.70503e-07
6.77873e-07
6.88219e-07
7.02175e-07
7.20389e-07
7.4351e-07
7.72171e-07
8.0698e-07
8.48497e-07
8.9723e-07
9.53614e-07
1.018e-06
1.09067e-06
1.17177e-06
1.26141e-06
1.35958e-06
1.46621e-06
1.58116e-06
1.70424e-06
1.83524e-06
1.97391e-06
2.11999e-06
2.27324e-06
2.43338e-06
2.60017e-06
2.77335e-06
2.95264e-06
3.13778e-06
3.3285e-06
3.52454e-06
3.72562e-06
3.9315e-06
4.14194e-06
4.35674e-06
4.57576e-06
4.79888e-06
5.02607e-06
5.25737e-06
5.49293e-06
5.73296e-06
5.97779e-06
6.22781e-06
6.48351e-06
6.74544e-06
7.01421e-06
7.29048e-06
7.57491e-06
7.86812e-06
8.17071e-06
8.48315e-06
8.80569e-06
9.13839e-06
9.48094e-06
9.83274e-06
1.01928e-05
1.05596e-05
1.09311e-05
1.13046e-05
1.16772e-05
1.20449e-05
1.24036e-05
1.27484e-05
1.30742e-05
1.33752e-05
1.36453e-05
1.38782e-05
1.40677e-05
1.42087e-05
1.42797e-05
1.43018e-05
1.42852e-05
1.4181e-05
1.39988e-05
1.37404e-05
1.34054e-05
1.29944e-05
1.25089e-05
1.19526e-05
1.13309e-05
1.0651e-05
9.92258e-06
9.15665e-06
8.36587e-06
7.56388e-06
6.76466e-06
5.98192e-06
5.22835e-06
4.51492e-06
3.85037e-06
3.24079e-06
2.68942e-06
2.19663e-06
1.7601e-06
1.37514e-06
1.0353e-06
7.33805e-07
4.67188e-07
2.42762e-07
8.45688e-08
1.25358e-08
7.6101e-11
7.08734e-12
1.17727e-09
8.33791e-09
2.62781e-08
5.61279e-08
9.59665e-08
1.42894e-07
1.94355e-07
2.48414e-07
3.03644e-07
3.58952e-07
4.13456e-07
4.66416e-07
5.17194e-07
5.6525e-07
6.1013e-07
6.51469e-07
6.88997e-07
7.22543e-07
7.52025e-07
7.7745e-07
7.98912e-07
8.16577e-07
8.30682e-07
8.41523e-07
8.49451e-07
8.54864e-07
8.58203e-07
8.59948e-07
8.60621e-07
8.60778e-07
8.61017e-07
8.61974e-07
8.64325e-07
8.68785e-07
8.76109e-07
8.8708e-07
9.02503e-07
9.2319e-07
9.49946e-07
9.83551e-07
1.02474e-06
1.07419e-06
1.13248e-06
1.20011e-06
1.27745e-06
1.36477e-06
1.46221e-06
1.56981e-06
1.6875e-06
1.81512e-06
1.95244e-06
2.0992e-06
2.25507e-06
2.41974e-06
2.59287e-06
2.77414e-06
2.96323e-06
3.15985e-06
3.36367e-06
3.57439e-06
3.79169e-06
4.01526e-06
4.24476e-06
4.47987e-06
4.72026e-06
4.96565e-06
5.21576e-06
5.47039e-06
5.72939e-06
5.9927e-06
6.26037e-06
6.53255e-06
6.80952e-06
7.09165e-06
7.37945e-06
7.67353e-06
7.97455e-06
8.28327e-06
8.60045e-06
8.92684e-06
9.26309e-06
9.60979e-06
9.96734e-06
1.03357e-05
1.07148e-05
1.11036e-05
1.15011e-05
1.19057e-05
1.23149e-05
1.2726e-05
1.31353e-05
1.35391e-05
1.39331e-05
1.43121e-05
1.46706e-05
1.50032e-05
1.5304e-05
1.55668e-05
1.57859e-05
1.59557e-05
1.60713e-05
1.61135e-05
1.60856e-05
1.60393e-05
1.58953e-05
1.56667e-05
1.5359e-05
1.49724e-05
1.45075e-05
1.39661e-05
1.33514e-05
1.26686e-05
1.19247e-05
1.11288e-05
1.02919e-05
9.42683e-06
8.54739e-06
7.66819e-06
6.80377e-06
5.96787e-06
5.17263e-06
4.428e-06
3.74114e-06
3.11619e-06
2.55413e-06
2.0529e-06
1.60771e-06
1.21175e-06
8.58039e-07
5.4394e-07
2.80201e-07
9.64552e-08
1.41545e-08
8.55932e-11
7.95192e-12
1.32574e-09
9.48521e-09
3.03537e-08
6.59461e-08
1.1457e-07
1.72948e-07
2.37862e-07
3.06721e-07
3.77542e-07
4.48783e-07
5.19202e-07
5.87763e-07
6.53585e-07
7.15919e-07
7.74141e-07
8.27757e-07
8.76396e-07
9.19815e-07
9.57893e-07
9.9063e-07
1.01813e-06
1.0406e-06
1.05833e-06
1.07171e-06
1.08117e-06
1.08722e-06
1.09042e-06
1.09139e-06
1.09077e-06
1.08927e-06
1.08765e-06
1.0867e-06
1.08728e-06
1.09029e-06
1.09666e-06
1.10738e-06
1.12343e-06
1.14582e-06
1.17554e-06
1.21352e-06
1.26063e-06
1.31767e-06
1.38529e-06
1.46404e-06
1.55431e-06
1.65636e-06
1.7703e-06
1.8961e-06
2.03361e-06
2.18258e-06
2.3427e-06
2.5136e-06
2.69487e-06
2.8861e-06
3.0869e-06
3.29687e-06
3.51564e-06
3.74284e-06
3.9781e-06
4.22106e-06
4.47132e-06
4.72847e-06
4.99211e-06
5.26179e-06
5.5371e-06
5.81763e-06
6.10302e-06
6.39298e-06
6.68729e-06
6.98587e-06
7.28876e-06
7.59613e-06
7.90833e-06
8.22582e-06
8.54924e-06
8.87934e-06
9.21693e-06
9.56288e-06
9.91805e-06
1.02833e-05
1.0659e-05
1.10459e-05
1.14441e-05
1.18531e-05
1.22725e-05
1.27005e-05
1.31347e-05
1.35722e-05
1.40116e-05
1.44492e-05
1.4881e-05
1.53017e-05
1.5706e-05
1.60889e-05
1.64448e-05
1.67678e-05
1.70525e-05
1.72936e-05
1.74851e-05
1.76221e-05
1.77011e-05
1.77097e-05
1.76359e-05
1.75325e-05
1.73625e-05
1.709e-05
1.67373e-05
1.63057e-05
1.57958e-05
1.52094e-05
1.4549e-05
1.38192e-05
1.30263e-05
1.21788e-05
1.12873e-05
1.03641e-05
9.42309e-06
8.47903e-06
7.54707e-06
6.6418e-06
5.77644e-06
4.96205e-06
4.20693e-06
3.51613e-06
2.89133e-06
2.33079e-06
1.82974e-06
1.38114e-06
9.77902e-07
6.18376e-07
3.16777e-07
1.08217e-07
1.5781e-08
9.52081e-11
8.84071e-12
1.47794e-09
1.06554e-08
3.45039e-08
7.59943e-08
1.33792e-07
2.04368e-07
2.83853e-07
3.68972e-07
4.57106e-07
5.46184e-07
6.3453e-07
7.20745e-07
8.03649e-07
8.8224e-07
9.5569e-07
1.02333e-06
1.08468e-06
1.13938e-06
1.18727e-06
1.22833e-06
1.26267e-06
1.29054e-06
1.31229e-06
1.32839e-06
1.33938e-06
1.34588e-06
1.34859e-06
1.34826e-06
1.34569e-06
1.34176e-06
1.33739e-06
1.33358e-06
1.33138e-06
1.33189e-06
1.33627e-06
1.34571e-06
1.36144e-06
1.38466e-06
1.41655e-06
1.45823e-06
1.51072e-06
1.57492e-06
1.65157e-06
1.74127e-06
1.84442e-06
1.96125e-06
2.09184e-06
2.23607e-06
2.39372e-06
2.56444e-06
2.74783e-06
2.9434e-06
3.15067e-06
3.36914e-06
3.59833e-06
3.83778e-06
4.08703e-06
4.34565e-06
4.61318e-06
4.88914e-06
5.17306e-06
5.46438e-06
5.76256e-06
6.06702e-06
6.37719e-06
6.69252e-06
7.01252e-06
7.3368e-06
7.66507e-06
7.99723e-06
8.33331e-06
8.67356e-06
9.01841e-06
9.36847e-06
9.72453e-06
1.00875e-05
1.04584e-05
1.08382e-05
1.12277e-05
1.16279e-05
1.20389e-05
1.2461e-05
1.28944e-05
1.33374e-05
1.37872e-05
1.42432e-05
1.47043e-05
1.51677e-05
1.56277e-05
1.60797e-05
1.65191e-05
1.69408e-05
1.73397e-05
1.77105e-05
1.8048e-05
1.83472e-05
1.86032e-05
1.88111e-05
1.89668e-05
1.90658e-05
1.91029e-05
1.9073e-05
1.89539e-05
1.87915e-05
1.85817e-05
1.82822e-05
1.78903e-05
1.74211e-05
1.68752e-05
1.62541e-05
1.55599e-05
1.47961e-05
1.39681e-05
1.30835e-05
1.2152e-05
1.11854e-05
1.0197e-05
9.20172e-06
8.21495e-06
7.25199e-06
6.327e-06
5.4522e-06
4.637e-06
3.8875e-06
3.20612e-06
2.59159e-06
2.03921e-06
1.54183e-06
1.09231e-06
6.89977e-07
3.52358e-07
1.19846e-07
1.74149e-08
1.04941e-10
9.75262e-12
1.63374e-09
1.18477e-08
3.87205e-08
8.62223e-08
1.53477e-07
2.36811e-07
3.31755e-07
4.34334e-07
5.41243e-07
6.49816e-07
7.5787e-07
8.63586e-07
9.65427e-07
1.06209e-06
1.15251e-06
1.23581e-06
1.31135e-06
1.37867e-06
1.43753e-06
1.48787e-06
1.52982e-06
1.56365e-06
1.58977e-06
1.60875e-06
1.62123e-06
1.62795e-06
1.62976e-06
1.62755e-06
1.62232e-06
1.61511e-06
1.60705e-06
1.59935e-06
1.59328e-06
1.59018e-06
1.59146e-06
1.59858e-06
1.61298e-06
1.63612e-06
1.66941e-06
1.71413e-06
1.77147e-06
1.84245e-06
1.9279e-06
2.02843e-06
2.14448e-06
2.27623e-06
2.4237e-06
2.58672e-06
2.76495e-06
2.95795e-06
3.1652e-06
3.38613e-06
3.62014e-06
3.86665e-06
4.12507e-06
4.39485e-06
4.67545e-06
4.96631e-06
5.26687e-06
5.5765e-06
5.89456e-06
6.22034e-06
6.5531e-06
6.89206e-06
7.23646e-06
7.5856e-06
7.93883e-06
8.29565e-06
8.65573e-06
9.01895e-06
9.38541e-06
9.75547e-06
1.01297e-05
1.05089e-05
1.08941e-05
1.12863e-05
1.16868e-05
1.20966e-05
1.25163e-05
1.29474e-05
1.33888e-05
1.38406e-05
1.42989e-05
1.47651e-05
1.52417e-05
1.57226e-05
1.62026e-05
1.66781e-05
1.71445e-05
1.7597e-05
1.80304e-05
1.84397e-05
1.882e-05
1.91664e-05
1.94743e-05
1.97394e-05
1.99575e-05
2.01249e-05
2.02381e-05
2.02937e-05
2.0289e-05
2.02213e-05
2.00664e-05
1.98509e-05
1.95977e-05
1.92602e-05
1.88451e-05
1.83451e-05
1.77711e-05
1.71246e-05
1.64067e-05
1.562e-05
1.47688e-05
1.38595e-05
1.29007e-05
1.19032e-05
1.08799e-05
9.84526e-06
8.81476e-06
7.80424e-06
6.82874e-06
5.90159e-06
5.0334e-06
4.23138e-06
3.49885e-06
2.8351e-06
2.23566e-06
1.6933e-06
1.20088e-06
7.58576e-07
3.86925e-07
1.31354e-07
1.90582e-08
1.14799e-10
1.06868e-11
1.79305e-09
1.30619e-08
4.29989e-08
9.65975e-08
1.73511e-07
2.7001e-07
3.8109e-07
5.02079e-07
6.28957e-07
7.58408e-07
8.87689e-07
1.0145e-06
1.13691e-06
1.25326e-06
1.36219e-06
1.46262e-06
1.5537e-06
1.63484e-06
1.70572e-06
1.76623e-06
1.81648e-06
1.85677e-06
1.88759e-06
1.90956e-06
1.92345e-06
1.93013e-06
1.9306e-06
1.92593e-06
1.91728e-06
1.90592e-06
1.8932e-06
1.88055e-06
1.86951e-06
1.86169e-06
1.85879e-06
1.86254e-06
1.87468e-06
1.89692e-06
1.93089e-06
1.9781e-06
2.0399e-06
2.11741e-06
2.21155e-06
2.32297e-06
2.45209e-06
2.59906e-06
2.76383e-06
2.94613e-06
3.14554e-06
3.36151e-06
3.59338e-06
3.84049e-06
4.10211e-06
4.37754e-06
4.6661e-06
4.96712e-06
5.2799e-06
5.60375e-06
5.93794e-06
6.28166e-06
6.63404e-06
6.99415e-06
7.36102e-06
7.73363e-06
8.111e-06
8.49224e-06
8.87657e-06
9.26341e-06
9.6524e-06
1.00435e-05
1.04369e-05
1.08332e-05
1.12331e-05
1.16377e-05
1.20481e-05
1.24658e-05
1.28921e-05
1.33281e-05
1.37736e-05
1.42315e-05
1.46943e-05
1.51649e-05
1.56486e-05
1.61383e-05
1.66324e-05
1.71261e-05
1.7613e-05
1.80898e-05
1.85514e-05
1.89929e-05
1.94093e-05
1.97956e-05
2.01475e-05
2.04607e-05
2.07313e-05
2.0956e-05
2.11314e-05
2.12546e-05
2.1323e-05
2.13342e-05
2.1286e-05
2.1177e-05
2.09888e-05
2.07288e-05
2.04461e-05
2.00765e-05
1.96344e-05
1.91125e-05
1.85136e-05
1.78489e-05
1.71153e-05
1.63146e-05
1.54498e-05
1.45257e-05
1.355e-05
1.25324e-05
1.14845e-05
1.04205e-05
9.35569e-06
8.30623e-06
7.28794e-06
6.31521e-06
5.39993e-06
4.55054e-06
3.77138e-06
3.06248e-06
2.41969e-06
1.83582e-06
1.30373e-06
8.24262e-07
4.2054e-07
1.42767e-07
2.07144e-08
1.248e-10
1.16427e-11
1.9558e-09
1.42976e-08
4.73368e-08
1.071e-07
1.93819e-07
3.03766e-07
4.31482e-07
5.71602e-07
7.19381e-07
8.7082e-07
1.02257e-06
1.17181e-06
1.31614e-06
1.45355e-06
1.58234e-06
1.70116e-06
1.80896e-06
1.90499e-06
1.98881e-06
2.06026e-06
2.11942e-06
2.16661e-06
2.20237e-06
2.22741e-06
2.2426e-06
2.24897e-06
2.24765e-06
2.2399e-06
2.2271e-06
2.21072e-06
2.19236e-06
2.17374e-06
2.15667e-06
2.14309e-06
2.135e-06
2.13445e-06
2.1435e-06
2.16415e-06
2.19827e-06
2.2476e-06
2.31363e-06
2.39762e-06
2.50055e-06
2.6231e-06
2.76565e-06
2.92832e-06
3.11098e-06
3.31326e-06
3.53462e-06
3.77438e-06
4.03178e-06
4.30599e-06
4.59617e-06
4.90148e-06
5.22109e-06
5.55418e-06
5.89987e-06
6.25729e-06
6.62546e-06
7.00334e-06
7.3898e-06
7.78363e-06
8.18356e-06
8.58833e-06
8.99673e-06
9.40768e-06
9.82029e-06
1.0234e-05
1.06484e-05
1.10636e-05
1.14801e-05
1.18986e-05
1.23203e-05
1.27465e-05
1.31785e-05
1.36179e-05
1.40663e-05
1.45252e-05
1.49895e-05
1.54639e-05
1.59482e-05
1.64429e-05
1.69448e-05
1.74443e-05
1.79468e-05
1.84456e-05
1.89303e-05
1.93992e-05
1.98471e-05
2.02689e-05
2.066e-05
2.10162e-05
2.13335e-05
2.16084e-05
2.18379e-05
2.20193e-05
2.21505e-05
2.22292e-05
2.22532e-05
2.22209e-05
2.21308e-05
2.19809e-05
2.17639e-05
2.14685e-05
2.11425e-05
2.07526e-05
2.02848e-05
1.97608e-05
1.91438e-05
1.84561e-05
1.77123e-05
1.69041e-05
1.60326e-05
1.51014e-05
1.4117e-05
1.30875e-05
1.20236e-05
1.09386e-05
9.84731e-06
8.76613e-06
7.71148e-06
6.6988e-06
5.74125e-06
4.84861e-06
4.02645e-06
3.27566e-06
2.5926e-06
1.97021e-06
1.40134e-06
8.87302e-07
4.53318e-07
1.54124e-07
2.23886e-08
1.34972e-10
1.26199e-11
2.12193e-09
1.5555e-08
5.17335e-08
1.17718e-07
2.14346e-07
3.37935e-07
4.82642e-07
6.42416e-07
8.11795e-07
9.86073e-07
1.16126e-06
1.33399e-06
1.50136e-06
1.66093e-06
1.81068e-06
1.94895e-06
2.07444e-06
2.18625e-06
2.28379e-06
2.36683e-06
2.4354e-06
2.48985e-06
2.53074e-06
2.55888e-06
2.57524e-06
2.58099e-06
2.57743e-06
2.56601e-06
2.54832e-06
2.52608e-06
2.50118e-06
2.47563e-06
2.45157e-06
2.43128e-06
2.41713e-06
2.41152e-06
2.41684e-06
2.43539e-06
2.46934e-06
2.52062e-06
2.5909e-06
2.68153e-06
2.79356e-06
2.92767e-06
3.08423e-06
3.26329e-06
3.4646e-06
3.68771e-06
3.93193e-06
4.19645e-06
4.48035e-06
4.78266e-06
5.10238e-06
5.4385e-06
5.79002e-06
6.15588e-06
6.53503e-06
6.9263e-06
7.32847e-06
7.74018e-06
8.15998e-06
8.58633e-06
9.01768e-06
9.45248e-06
9.8893e-06
1.03269e-05
1.07644e-05
1.12012e-05
1.16371e-05
1.20724e-05
1.25079e-05
1.29448e-05
1.33845e-05
1.38288e-05
1.42787e-05
1.47363e-05
1.5203e-05
1.56771e-05
1.61544e-05
1.66518e-05
1.71553e-05
1.76644e-05
1.81766e-05
1.8682e-05
1.91815e-05
1.96805e-05
2.01559e-05
2.061e-05
2.10376e-05
2.1434e-05
2.17952e-05
2.21174e-05
2.23975e-05
2.26326e-05
2.28204e-05
2.29591e-05
2.30467e-05
2.30815e-05
2.30617e-05
2.29866e-05
2.28552e-05
2.26665e-05
2.24193e-05
2.20968e-05
2.17283e-05
2.13224e-05
2.08381e-05
2.02894e-05
1.96834e-05
1.89882e-05
1.82255e-05
1.74113e-05
1.65379e-05
1.56047e-05
1.46173e-05
1.35824e-05
1.25092e-05
1.14098e-05
1.02986e-05
9.19175e-06
8.10611e-06
7.05808e-06
6.06216e-06
5.12954e-06
4.26716e-06
3.47699e-06
2.75607e-06
2.09758e-06
1.49438e-06
9.48081e-07
4.85411e-07
1.65473e-07
2.40872e-08
1.45351e-10
1.36181e-11
2.29144e-09
1.68341e-08
5.61895e-08
1.28448e-07
2.35061e-07
3.72421e-07
5.34359e-07
7.14147e-07
9.05622e-07
1.10336e-06
1.30272e-06
1.49972e-06
1.69098e-06
1.8736e-06
2.04516e-06
2.2037e-06
2.34767e-06
2.47596e-06
2.58784e-06
2.68297e-06
2.76135e-06
2.82331e-06
2.86946e-06
2.90068e-06
2.91804e-06
2.92286e-06
2.91661e-06
2.90093e-06
2.87767e-06
2.84881e-06
2.81653e-06
2.78319e-06
2.7513e-06
2.72352e-06
2.70261e-06
2.69136e-06
2.69252e-06