/*--------------------------------*- C++ -*----------------------------------*\
  =========                 |
  \\      /  F ield         | OpenFOAM: The Open Source CFD Toolbox
   \\    /   O peration     | Website:  https://openfoam.org
    \\  /    A nd           | Version:  12
     \\/     M anipulation  |
\*---------------------------------------------------------------------------*/
FoamFile
{
    format      ascii;
    class       volVectorField;
    location    "2.5";
    object      U;
}
// * * * * * * * * * * * * * * * * * * * * * * * * * * * * * * * * * * * * * //

dimensions      [0 1 -1 0 0 0 0];

internalField   nonuniform List<vector> 
18225
(
(-3.44794e-06 1.53533e-06 0)
(-1.15288e-05 1.16902e-06 0)
(-1.33847e-05 3.11781e-07 0)
(-5.54423e-06 -6.91344e-07 0)
(1.29268e-05 -1.62272e-06 0)
(4.14351e-05 -2.45014e-06 0)
(7.89522e-05 -3.15771e-06 0)
(0.000124267 -3.7461e-06 0)
(0.000176109 -4.21992e-06 0)
(0.000233204 -4.58501e-06 0)
(0.000294308 -4.84828e-06 0)
(0.000358226 -5.01663e-06 0)
(0.000423824 -5.09775e-06 0)
(0.000490047 -5.09908e-06 0)
(0.000555924 -5.0286e-06 0)
(0.000620578 -4.89421e-06 0)
(0.000683233 -4.70406e-06 0)
(0.00074322 -4.46658e-06 0)
(0.000799977 -4.19017e-06 0)
(0.000853055 -3.88362e-06 0)
(0.000902115 -3.55547e-06 0)
(0.000946923 -3.2141e-06 0)
(0.000987349 -2.86769e-06 0)
(0.00102336 -2.5241e-06 0)
(0.00105503 -2.19162e-06 0)
(0.00108249 -1.87836e-06 0)
(0.00110597 -1.59056e-06 0)
(0.00112575 -1.33203e-06 0)
(0.00114217 -1.10541e-06 0)
(0.0011556 -9.12995e-07 0)
(0.00116647 -7.56802e-07 0)
(0.00117518 -6.38219e-07 0)
(0.00118218 -5.57786e-07 0)
(0.00118791 -5.15086e-07 0)
(0.00119278 -5.08788e-07 0)
(0.00119718 -5.36335e-07 0)
(0.00120146 -5.94742e-07 0)
(0.00120593 -6.79771e-07 0)
(0.00121081 -7.85684e-07 0)
(0.00121626 -9.0662e-07 0)
(0.00122235 -1.03541e-06 0)
(0.00122904 -1.16448e-06 0)
(0.00123618 -1.28521e-06 0)
(0.00124352 -1.38897e-06 0)
(0.00125067 -1.46674e-06 0)
(0.00125712 -1.50859e-06 0)
(0.00126226 -1.50638e-06 0)
(0.00126532 -1.45138e-06 0)
(0.00126542 -1.33524e-06 0)
(0.00126159 -1.14915e-06 0)
(0.00125271 -8.86164e-07 0)
(0.00123758 -5.39278e-07 0)
(0.00121489 -1.01706e-07 0)
(0.00118324 4.33575e-07 0)
(0.00114112 1.0737e-06 0)
(0.00108691 1.8273e-06 0)
(0.00101888 2.70135e-06 0)
(0.000935208 3.70598e-06 0)
(0.000833928 4.85179e-06 0)
(0.000712968 6.15134e-06 0)
(0.00057012 7.61909e-06 0)
(0.000403052 9.26465e-06 0)
(0.000209315 1.11078e-05 0)
(-1.36543e-05 1.31507e-05 0)
(-0.0002685 1.54038e-05 0)
(-0.000557939 1.78867e-05 0)
(-0.000884719 2.06074e-05 0)
(-0.00125154 2.35675e-05 0)
(-0.00166105 2.67705e-05 0)
(-0.00211577 3.02149e-05 0)
(-0.00261806 3.38947e-05 0)
(-0.00317001 3.77987e-05 0)
(-0.00377339 4.191e-05 0)
(-0.00442959 4.62057e-05 0)
(-0.0051395 5.06566e-05 0)
(-0.00590351 5.52265e-05 0)
(-0.00672137 5.98724e-05 0)
(-0.00759215 6.45447e-05 0)
(-0.00851419 6.91869e-05 0)
(-0.00948502 7.37363e-05 0)
(-0.0105014 7.81241e-05 0)
(-0.011559 8.22763e-05 0)
(-0.012653 8.61145e-05 0)
(-0.0137772 8.9556e-05 0)
(-0.0149249 9.25151e-05 0)
(-0.0160882 9.49039e-05 0)
(-0.0172585 9.66328e-05 0)
(-0.0184262 9.76116e-05 0)
(-0.019581 9.77505e-05 0)
(-0.0207118 9.69608e-05 0)
(-0.0218066 9.51566e-05 0)
(-0.022853 9.22557e-05 0)
(-0.0238379 8.81821e-05 0)
(-0.0247477 8.28668e-05 0)
(-0.0255686 7.62552e-05 0)
(-0.0262865 6.83255e-05 0)
(-0.026886 5.87514e-05 0)
(-0.0273544 4.80495e-05 0)
(-0.0276775 3.60773e-05 0)
(-0.0278437 2.23041e-05 0)
(-0.0278433 7.8125e-06 0)
(-0.0276612 -7.74651e-06 0)
(-0.0272928 -2.44377e-05 0)
(-0.0267319 -4.1722e-05 0)
(-0.0259764 -5.93187e-05 0)
(-0.0250275 -7.68771e-05 0)
(-0.0238909 -9.39769e-05 0)
(-0.0225763 -0.000110149 0)
(-0.0210986 -0.000124894 0)
(-0.0194773 -0.000137706 0)
(-0.0177368 -0.000148097 0)
(-0.015906 -0.00015563 0)
(-0.0140173 -0.00015995 0)
(-0.0121062 -0.000160818 0)
(-0.0102096 -0.000158139 0)
(-0.00836446 -0.000151977 0)
(-0.00660641 -0.000142567 0)
(-0.00496808 -0.000130303 0)
(-0.0034776 -0.000115721 0)
(-0.00215743 -9.94574e-05 0)
(-0.00102344 -8.22047e-05 0)
(-8.44691e-05 -6.46652e-05 0)
(0.000657625 -4.74934e-05 0)
(0.00120756 -3.1254e-05 0)
(0.00157569 -1.63807e-05 0)
(0.00177712 -3.21307e-06 0)
(0.0018302 8.08007e-06 0)
(0.00175582 1.74341e-05 0)
(0.00157656 2.47855e-05 0)
(0.00131613 3.00737e-05 0)
(0.00100114 3.30463e-05 0)
(0.000662695 3.29884e-05 0)
(0.000340294 2.87367e-05 0)
(9.1239e-05 1.71608e-05 0)
(-1.15912e-05 -4.32641e-06 0)
(-6.05446e-06 6.93439e-06 0)
(-1.9388e-05 4.88273e-06 0)
(-1.52477e-05 -3.53188e-06 0)
(1.40446e-05 -1.39322e-05 0)
(7.10682e-05 -2.43709e-05 0)
(0.000154836 -3.40396e-05 0)
(0.000263005 -4.25972e-05 0)
(0.00039256 -4.99088e-05 0)
(0.00054019 -5.59336e-05 0)
(0.000702487 -6.06785e-05 0)
(0.000876062 -6.41792e-05 0)
(0.00105762 -6.649e-05 0)
(0.00124402 -6.76805e-05 0)
(0.00143231 -6.78321e-05 0)
(0.00161976 -6.70361e-05 0)
(0.0018039 -6.53922e-05 0)
(0.00198253 -6.30062e-05 0)
(0.00215375 -5.99881e-05 0)
(0.00231597 -5.64508e-05 0)
(0.0024679 -5.25072e-05 0)
(0.00260855 -4.8269e-05 0)
(0.00273724 -4.3844e-05 0)
(0.00285356 -3.93352e-05 0)
(0.00295739 -3.48392e-05 0)
(0.00304887 -3.04465e-05 0)
(0.00312835 -2.62397e-05 0)
(0.00319639 -2.22899e-05 0)
(0.00325373 -1.86552e-05 0)
(0.00330127 -1.53824e-05 0)
(0.00334 -1.25083e-05 0)
(0.00337103 -1.00594e-05 0)
(0.0033955 -8.05038e-06 0)
(0.00341457 -6.48443e-06 0)
(0.0034294 -5.35208e-06 0)
(0.00344112 -4.63117e-06 0)
(0.00345073 -4.28587e-06 0)
(0.00345915 -4.26965e-06 0)
(0.00346714 -4.52119e-06 0)
(0.00347525 -4.96441e-06 0)
(0.00348382 -5.51433e-06 0)
(0.00349293 -6.0731e-06 0)
(0.00350235 -6.53328e-06 0)
(0.00351157 -6.7788e-06 0)
(0.00351971 -6.68779e-06 0)
(0.00352555 -6.133e-06 0)
(0.00352751 -4.98451e-06 0)
(0.00352366 -3.12001e-06 0)
(0.00351168 -4.07794e-07 0)
(0.00348892 3.27176e-06 0)
(0.00345238 8.03489e-06 0)
(0.00339874 1.39941e-05 0)
(0.00332435 2.12568e-05 0)
(0.00322526 2.9928e-05 0)
(0.00309723 4.0112e-05 0)
(0.00293569 5.19143e-05 0)
(0.0027358 6.54465e-05 0)
(0.0024924 8.08172e-05 0)
(0.00219999 9.81491e-05 0)
(0.00185277 0.000117567 0)
(0.00144461 0.0001392 0)
(0.000969042 0.000163211 0)
(0.000419304 0.000189644 0)
(-0.000211602 0.000218622 0)
(-0.000931011 0.000250303 0)
(-0.0017465 0.000284757 0)
(-0.00266547 0.000321985 0)
(-0.00369533 0.000361985 0)
(-0.00484337 0.000404714 0)
(-0.00611652 0.00045007 0)
(-0.0075212 0.000497889 0)
(-0.00906316 0.000547939 0)
(-0.0107472 0.000599919 0)
(-0.0125772 0.000653451 0)
(-0.0145555 0.000708085 0)
(-0.0166831 0.000763294 0)
(-0.0189593 0.000818477 0)
(-0.0213814 0.000872963 0)
(-0.023945 0.000926018 0)
(-0.0266431 0.000976851 0)
(-0.0294666 0.00102462 0)
(-0.0324042 0.00106846 0)
(-0.035442 0.00110745 0)
(-0.0385636 0.00114068 0)
(-0.0417505 0.00116723 0)
(-0.0449815 0.00118616 0)
(-0.0482333 0.00119658 0)
(-0.0514805 0.00119762 0)
(-0.0546953 0.00118841 0)
(-0.0578484 0.00116817 0)
(-0.0609085 0.00113616 0)
(-0.063843 0.00109168 0)
(-0.0666176 0.00103415 0)
(-0.0691975 0.000963067 0)
(-0.0715468 0.000878054 0)
(-0.0736293 0.000778867 0)
(-0.075409 0.000665329 0)
(-0.0768481 0.000537 0)
(-0.0779184 0.000394254 0)
(-0.0785721 0.000239259 0)
(-0.0787961 7.6002e-05 0)
(-0.0785635 -0.000102438 0)
(-0.0778414 -0.000288953 0)
(-0.0766191 -0.000481885 0)
(-0.0748858 -0.000678342 0)
(-0.0726406 -0.000874908 0)
(-0.0698912 -0.00106779 0)
(-0.0666557 -0.00125272 0)
(-0.0629631 -0.00142503 0)
(-0.0588542 -0.00157988 0)
(-0.0543814 -0.00171244 0)
(-0.0496089 -0.0018181 0)
(-0.0446109 -0.00189281 0)
(-0.039471 -0.00193329 0)
(-0.034279 -0.00193736 0)
(-0.0291287 -0.00190415 0)
(-0.0241143 -0.00183428 0)
(-0.0193265 -0.00172996 0)
(-0.0148493 -0.00159488 0)
(-0.0107558 -0.00143413 0)
(-0.00710566 -0.00125383 0)
(-0.00394248 -0.0010608 0)
(-0.00129254 -0.000862108 0)
(0.000835486 -0.000664605 0)
(0.00244974 -0.000474466 0)
(0.00357367 -0.000297011 0)
(0.00424328 -0.000136342 0)
(0.00450474 4.55655e-06 0)
(0.00441195 0.000123295 0)
(0.00402541 0.000218546 0)
(0.00340926 0.000288148 0)
(0.00263738 0.00032842 0)
(0.00179427 0.000332947 0)
(0.000982315 0.00029132 0)
(0.000336776 0.000188701 0)
(8.9632e-06 3.76896e-05 0)
(-6.31253e-06 1.30136e-05 0)
(-1.63535e-05 5.9085e-06 0)
(1.30086e-06 -1.60574e-05 0)
(5.67919e-05 -4.30378e-05 0)
(0.000153912 -7.04982e-05 0)
(0.000291666 -9.6254e-05 0)
(0.000466878 -0.000119281 0)
(0.000675193 -0.00013911 0)
(0.000911675 -0.000155552 0)
(0.00117114 -0.000168574 0)
(0.00144838 -0.000178236 0)
(0.00173826 -0.000184662 0)
(0.00203587 -0.000188026 0)
(0.00233658 -0.000188539 0)
(0.00263608 -0.000186443 0)
(0.00293047 -0.000182005 0)
(0.00321627 -0.000175512 0)
(0.00349045 -0.000167264 0)
(0.00375045 -0.000157567 0)
(0.00399421 -0.00014673 0)
(0.00422013 -0.000135056 0)
(0.00442708 -0.00012284 0)
(0.00461439 -0.000110364 0)
(0.00478179 -9.78902e-05 0)
(0.00492945 -8.56638e-05 0)
(0.00505784 -7.39064e-05 0)
(0.00516781 -6.2811e-05 0)
(0.00526043 -5.25393e-05 0)
(0.00533705 -4.32225e-05 0)
(0.00539919 -3.49622e-05 0)
(0.0054485 -2.78297e-05 0)
(0.00548671 -2.18641e-05 0)
(0.0055156 -1.70708e-05 0)
(0.00553691 -1.34208e-05 0)
(0.00555231 -1.08493e-05 0)
(0.00556331 -9.2542e-06 0)
(0.00557127 -8.5011e-06 0)
(0.00557724 -8.41541e-06 0)
(0.005582 -8.78415e-06 0)
(0.00558594 -9.36597e-06 0)
(0.00558903 -9.88519e-06 0)
(0.00559077 -1.0038e-05 0)
(0.00559016 -9.49922e-06 0)
(0.00558564 -7.92327e-06 0)
(0.00557507 -4.94936e-06 0)
(0.00555575 -2.1758e-07 0)
(0.00552437 6.63284e-06 0)
(0.00547703 1.59635e-05 0)
(0.00540926 2.81207e-05 0)
(0.00531601 4.34379e-05 0)
(0.00519171 6.22392e-05 0)
(0.00503024 8.4836e-05 0)
(0.004825 0.000111532 0)
(0.00456885 0.000142626 0)
(0.00425421 0.00017842 0)
(0.00387296 0.000219226 0)
(0.00341651 0.000265352 0)
(0.00287575 0.000317133 0)
(0.00224111 0.000374948 0)
(0.00150251 0.000438999 0)
(0.000649476 0.0005096 0)
(-0.000329046 0.000587185 0)
(-0.00144464 0.000672037 0)
(-0.00270878 0.000764297 0)
(-0.00413308 0.000864046 0)
(-0.00572927 0.000971299 0)
(-0.00750875 0.00108596 0)
(-0.00948249 0.00120779 0)
(-0.0116607 0.00133637 0)
(-0.0140525 0.00147113 0)
(-0.0166657 0.00161127 0)
(-0.0195065 0.00175583 0)
(-0.0225791 0.00190361 0)
(-0.0258854 0.00205322 0)
(-0.0294246 0.00220309 0)
(-0.0331931 0.00235143 0)
(-0.0371841 0.00249629 0)
(-0.0413875 0.00263557 0)
(-0.0457896 0.00276702 0)
(-0.050373 0.00288833 0)
(-0.0551167 0.0029971 0)
(-0.0599959 0.00309088 0)
(-0.0649822 0.00316724 0)
(-0.0700435 0.00322377 0)
(-0.0751444 0.00325812 0)
(-0.0802462 0.00326803 0)
(-0.0853075 0.00325135 0)
(-0.0902837 0.00320606 0)
(-0.0951282 0.0031303 0)
(-0.0997921 0.00302241 0)
(-0.104225 0.00288094 0)
(-0.108375 0.00270467 0)
(-0.112189 0.00249268 0)
(-0.115615 0.0022444 0)
(-0.118599 0.0019596 0)
(-0.121089 0.00163844 0)
(-0.123033 0.00128105 0)
(-0.124394 0.000884706 0)
(-0.125093 0.000468677 0)
(-0.125142 1.6628e-05 0)
(-0.124471 -0.000459009 0)
(-0.123062 -0.000955803 0)
(-0.120895 -0.00146572 0)
(-0.117963 -0.00198139 0)
(-0.11427 -0.00249405 0)
(-0.10983 -0.00299403 0)
(-0.104677 -0.00347063 0)
(-0.0988568 -0.0039123 0)
(-0.0924316 -0.00430715 0)
(-0.0854807 -0.00464334 0)
(-0.0780988 -0.00490971 0)
(-0.0703951 -0.0050964 0)
(-0.0624906 -0.00519548 0)
(-0.0545159 -0.00520165 0)
(-0.0466066 -0.00511276 0)
(-0.0388993 -0.00493026 0)
(-0.0315262 -0.00465938 0)
(-0.0246105 -0.00430908 0)
(-0.0182607 -0.00389168 0)
(-0.0125669 -0.00342223 0)
(-0.00759702 -0.00291764 0)
(-0.00339436 -0.00239565 0)
(2.30119e-05 -0.00187373 0)
(0.00266174 -0.00136799 0)
(0.00455137 -0.000892544 0)
(0.00574128 -0.000458856 0)
(0.00629743 -7.58314e-05 0)
(0.00629847 0.000249828 0)
(0.00583589 0.00051223 0)
(0.00500761 0.000705688 0)
(0.00392742 0.000819948 0)
(0.00272388 0.000839959 0)
(0.00154741 0.000743474 0)
(0.000586356 0.000504768 0)
(4.10228e-05 0.000149004 0)
(-5.4416e-06 1.76652e-05 0)
(-6.40404e-06 1.1523e-06 0)
(3.03052e-05 -3.99099e-05 0)
(0.000115738 -8.98427e-05 0)
(0.000254331 -0.000140965 0)
(0.000445157 -0.000189278 0)
(0.000684466 -0.000232757 0)
(0.000966896 -0.000270397 0)
(0.00128621 -0.000301744 0)
(0.00163575 -0.000326665 0)
(0.00200875 -0.000345226 0)
(0.00239851 -0.000357628 0)
(0.00279858 -0.00036418 0)
(0.00320283 -0.000365268 0)
(0.00360557 -0.000361344 0)
(0.0040016 -0.000352913 0)
(0.00438629 -0.000340516 0)
(0.00475558 -0.000324723 0)
(0.00510606 -0.000306118 0)
(0.00543492 -0.000285287 0)
(0.00573999 -0.000262811 0)
(0.0060197 -0.000239252 0)
(0.0062731 -0.000215146 0)
(0.00649976 -0.000190997 0)
(0.00669982 -0.000167268 0)
(0.00687385 -0.000144379 0)
(0.00702285 -0.000122697 0)
(0.00714819 -0.000102534 0)
(0.00725156 -8.41442e-05 0)
(0.00733489 -6.77222e-05 0)
(0.00740026 -5.34032e-05 0)
(0.00744991 -4.12591e-05 0)
(0.00748606 -3.12965e-05 0)
(0.00751094 -2.34545e-05 0)
(0.00752662 -1.76032e-05 0)
(0.00753502 -1.35401e-05 0)
(0.00753776 -1.09973e-05 0)
(0.00753613 -9.63504e-06 0)
(0.00753097 -9.02789e-06 0)
(0.00752261 -8.70718e-06 0)
(0.00751083 -8.13226e-06 0)
(0.00749476 -6.70727e-06 0)
(0.0074728 -3.79281e-06 0)
(0.00744265 1.28936e-06 0)
(0.00740118 9.24227e-06 0)
(0.00734449 2.07752e-05 0)
(0.00726786 3.66019e-05 0)
(0.00716574 5.74319e-05 0)
(0.00703182 8.39509e-05 0)
(0.00685896 0.000116823 0)
(0.00663929 0.000156692 0)
(0.00636423 0.000204178 0)
(0.00602446 0.000259886 0)
(0.00560998 0.000324411 0)
(0.00511011 0.000398347 0)
(0.0045135 0.000482299 0)
(0.00380817 0.00057689 0)
(0.0029814 0.000682723 0)
(0.00202006 0.000800248 0)
(0.000910152 0.000930294 0)
(-0.00036304 0.00107345 0)
(-0.00181439 0.00123017 0)
(-0.0034591 0.00140083 0)
(-0.00531271 0.00158572 0)
(-0.00739066 0.00178493 0)
(-0.00970818 0.00199835 0)
(-0.0122799 0.00222562 0)
(-0.0151195 0.00246608 0)
(-0.0182394 0.00271875 0)
(-0.0216503 0.00298227 0)
(-0.0253609 0.00325493 0)
(-0.029377 0.00353461 0)
(-0.0337018 0.0038188 0)
(-0.0383349 0.00410462 0)
(-0.043272 0.00438879 0)
(-0.0485049 0.00466772 0)
(-0.0540207 0.0049375 0)
(-0.0598021 0.00519397 0)
(-0.0658269 0.00543277 0)
(-0.0720679 0.00564941 0)
(-0.0784934 0.00583933 0)
(-0.0850664 0.00599795 0)
(-0.0917459 0.00612079 0)
(-0.0984862 0.00620346 0)
(-0.105238 0.00624176 0)
(-0.111947 0.00623174 0)
(-0.118558 0.0061697 0)
(-0.12501 0.00605228 0)
(-0.131243 0.00587647 0)
(-0.137193 0.00563969 0)
(-0.142795 0.00533976 0)
(-0.147983 0.00497505 0)
(-0.152692 0.00454446 0)
(-0.156855 0.00404755 0)
(-0.160411 0.00348458 0)
(-0.163295 0.00285659 0)
(-0.165447 0.00216521 0)
(-0.16682 0.00141029 0)
(-0.16735 0.000607354 0)
(-0.167008 -0.000242853 0)
(-0.165748 -0.00113769 0)
(-0.163547 -0.00206471 0)
(-0.160388 -0.0030111 0)
(-0.156268 -0.00396325 0)
(-0.151196 -0.00490525 0)
(-0.1452 -0.00581977 0)
(-0.138324 -0.00668783 0)
(-0.130628 -0.00748914 0)
(-0.122193 -0.00820285 0)
(-0.113117 -0.00880835 0)
(-0.103519 -0.00928621 0)
(-0.0935323 -0.00961925 0)
(-0.0833041 -0.00979365 0)
(-0.0729935 -0.00980009 0)
(-0.062766 -0.00963465 0)
(-0.0527884 -0.00929962 0)
(-0.0432232 -0.00880385 0)
(-0.0342231 -0.00816269 0)
(-0.0259245 -0.0073975 0)
(-0.0184423 -0.00653463 0)
(-0.0118658 -0.00560394 0)
(-0.006255 -0.00463711 0)
(-0.00163932 -0.00366574 0)
(0.00198241 -0.00271955 0)
(0.0046404 -0.00182497 0)
(0.00639088 -0.00100415 0)
(0.00731258 -0.00027487 0)
(0.00750272 0.000348674 0)
(0.00707506 0.000854652 0)
(0.00615711 0.00123016 0)
(0.00489374 0.00145701 0)
(0.00344901 0.0015094 0)
(0.00200958 0.00135219 0)
(0.000803065 0.000949164 0)
(7.03583e-05 0.000328179 0)
(-4.03837e-06 1.90278e-05 0)
(7.83479e-06 -1.18883e-05 0)
(6.74841e-05 -7.69991e-05 0)
(0.000185637 -0.000155112 0)
(0.000366744 -0.000235247 0)
(0.000609838 -0.000311349 0)
(0.000910716 -0.000380162 0)
(0.00126322 -0.000439976 0)
(0.00166005 -0.000489961 0)
(0.00209335 -0.000529814 0)
(0.00255502 -0.000559579 0)
(0.00303702 -0.000579532 0)
(0.00353155 -0.000590132 0)
(0.00403117 -0.000591975 0)
(0.00452897 -0.000585768 0)
(0.00501862 -0.000572306 0)
(0.00549442 -0.000552447 0)
(0.00595143 -0.000527096 0)
(0.00638541 -0.000497182 0)
(0.00679289 -0.000463641 0)
(0.00717116 -0.000427397 0)
(0.00751823 -0.000389348 0)
(0.00783285 -0.00035035 0)
(0.00811444 -0.000311208 0)
(0.00836303 -0.000272661 0)
(0.00857924 -0.000235377 0)
(0.0087642 -0.000199945 0)
(0.00891947 -0.000166862 0)
(0.00904701 -0.000136538 0)
(0.00914904 -0.000109283 0)
(0.00922801 -8.53122e-05 0)
(0.0092865 -6.47354e-05 0)
(0.00932713 -4.75575e-05 0)
(0.00935243 -3.36732e-05 0)
(0.00936483 -2.28641e-05 0)
(0.00936647 -1.47956e-05 0)
(0.00935918 -9.02963e-06 0)
(0.00934431 -4.98673e-06 0)
(0.00932269 -1.99364e-06 0)
(0.00929451 7.32041e-07 0)
(0.00925923 4.07547e-06 0)
(0.00921549 9.01298e-06 0)
(0.00916107 1.65935e-05 0)
(0.0090928 2.79281e-05 0)
(0.00900651 4.41686e-05 0)
(0.00889705 6.64834e-05 0)
(0.00875821 9.6048e-05 0)
(0.00858277 0.000134028 0)
(0.00836251 0.000181559 0)
(0.00808818 0.000239743 0)
(0.00774959 0.000309645 0)
(0.00733564 0.000392296 0)
(0.00683429 0.0004887 0)
(0.00623265 0.000599839 0)
(0.00551696 0.000726691 0)
(0.00467265 0.000870255 0)
(0.00368438 0.0010314 0)
(0.00253602 0.00121115 0)
(0.00121047 0.00141056 0)
(-0.000309853 0.00163053 0)
(-0.00204308 0.00187182 0)
(-0.00400789 0.0021352 0)
(-0.00622313 0.00242118 0)
(-0.00870776 0.00273003 0)
(-0.0114804 0.00306172 0)
(-0.0145592 0.00341584 0)
(-0.017961 0.00379154 0)
(-0.0217013 0.00418746 0)
(-0.0257937 0.00460171 0)
(-0.0302493 0.00503177 0)
(-0.0350758 0.00547452 0)
(-0.0402777 0.00592621 0)
(-0.0458552 0.00638244 0)
(-0.051804 0.00683822 0)
(-0.0581147 0.007288 0)
(-0.0647725 0.00772571 0)
(-0.071757 0.00814485 0)
(-0.0790419 0.0085386 0)
(-0.0865951 0.00889989 0)
(-0.0943785 0.00922152 0)
(-0.102348 0.0094963 0)
(-0.110456 0.0097171 0)
(-0.118646 0.00987705 0)
(-0.12686 0.00996956 0)
(-0.135035 0.00998843 0)
(-0.143104 0.00992793 0)
(-0.150998 0.0097829 0)
(-0.158644 0.00954873 0)
(-0.165969 0.00922149 0)
(-0.172898 0.00879793 0)
(-0.179355 0.00827558 0)
(-0.185266 0.00765279 0)
(-0.190555 0.00692879 0)
(-0.195152 0.00610385 0)
(-0.198986 0.00517929 0)
(-0.201991 0.0041577 0)
(-0.204102 0.00304276 0)
(-0.205269 0.00183811 0)
(-0.205436 0.00056103 0)
(-0.204562 -0.000783769 0)
(-0.202612 -0.00218854 0)
(-0.199566 -0.00363503 0)
(-0.195411 -0.00510473 0)
(-0.190152 -0.00657674 0)
(-0.183806 -0.00802706 0)
(-0.17641 -0.00942971 0)
(-0.168017 -0.0107565 0)
(-0.1587 -0.0119776 0)
(-0.148551 -0.0130621 0)
(-0.137685 -0.0139799 0)
(-0.126233 -0.0147024 0)
(-0.114345 -0.0152043 0)
(-0.102186 -0.0154651 0)
(-0.0899339 -0.0154709 0)
(-0.0777738 -0.0152154 0)
(-0.0658934 -0.0147016 0)
(-0.054477 -0.0139417 0)
(-0.043699 -0.0129579 0)
(-0.0337178 -0.0117812 0)
(-0.0246689 -0.0104505 0)
(-0.0166607 -0.00901006 0)
(-0.00976958 -0.00750755 0)
(-0.00403769 -0.00599108 0)
(0.000527555 -0.00450661 0)
(0.00395268 -0.00309569 0)
(0.00629552 -0.00179405 0)
(0.00764175 -0.000631135 0)
(0.008101 0.000368878 0)
(0.00780395 0.0011853 0)
(0.00690044 0.00179643 0)
(0.00556022 0.00217435 0)
(0.00397516 0.00228152 0)
(0.00235966 0.00206971 0)
(0.000972836 0.00149114 0)
(9.32537e-05 0.000562448 0)
(-2.40999e-06 1.61982e-05 0)
(2.45475e-05 -3.48068e-05 0)
(0.000109716 -0.000128702 0)
(0.000262489 -0.000239548 0)
(0.000486739 -0.000353187 0)
(0.000781274 -0.000461424 0)
(0.00114145 -0.000559636 0)
(0.00156043 -0.000645275 0)
(0.00203007 -0.000717036 0)
(0.00254145 -0.000774384 0)
(0.00308539 -0.000817303 0)
(0.00365268 -0.000846135 0)
(0.00423434 -0.000861499 0)
(0.00482182 -0.000864222 0)
(0.00540711 -0.000855302 0)
(0.00598287 -0.000835867 0)
(0.0065425 -0.000807144 0)
(0.00708021 -0.000770425 0)
(0.00759104 -0.000727042 0)
(0.00807091 -0.000678339 0)
(0.0085166 -0.000625642 0)
(0.00892572 -0.000570243 0)
(0.00929674 -0.000513374 0)
(0.00962886 -0.000456191 0)
(0.00992204 -0.000399758 0)
(0.0101769 -0.000345037 0)
(0.0103946 -0.000292873 0)
(0.0105768 -0.000243986 0)
(0.0107257 -0.000198962 0)
(0.0108437 -0.000158251 0)
(0.0109336 -0.000122155 0)
(0.0109981 -9.08272e-05 0)
(0.0110402 -6.42661e-05 0)
(0.0110627 -4.23078e-05 0)
(0.0110681 -2.46232e-05 0)
(0.0110587 -1.07159e-05 0)
(0.0110365 7.94707e-08 0)
(0.0110028 8.60538e-06 0)
(0.0109583 1.58642e-05 0)
(0.0109029 2.30146e-05 0)
(0.0108357 3.13646e-05 0)
(0.0107547 4.23552e-05 0)
(0.0106571 5.75365e-05 0)
(0.0105387 7.85491e-05 0)
(0.0103943 0.000107095 0)
(0.0102173 0.000144905 0)
(0.01 0.000193722 0)
(0.00973354 0.000255275 0)
(0.00940767 0.000331252 0)
(0.00901102 0.000423296 0)
(0.00853105 0.000532997 0)
(0.0079541 0.000661892 0)
(0.0072654 0.000811472 0)
(0.00644917 0.000983197 0)
(0.00548859 0.0011785 0)
(0.00436591 0.00139877 0)
(0.00306237 0.00164548 0)
(0.00155836 0.00191998 0)
(-0.000166534 0.00222359 0)
(-0.00213342 0.00255759 0)
(-0.00436393 0.00292305 0)
(-0.00688007 0.00332085 0)
(-0.0097039 0.00375153 0)
(-0.0128573 0.00421525 0)
(-0.0163614 0.00471164 0)
(-0.0202363 0.00523977 0)
(-0.0245005 0.00579802 0)
(-0.0291702 0.00638397 0)
(-0.0342588 0.0069944 0)
(-0.0397764 0.00762517 0)
(-0.0457287 0.00827124 0)
(-0.0521169 0.00892664 0)
(-0.0589369 0.00958451 0)
(-0.0661785 0.0102371 0)
(-0.0738256 0.0108761 0)
(-0.0818553 0.0114921 0)
(-0.090238 0.0120757 0)
(-0.0989372 0.0126167 0)
(-0.10791 0.013105 0)
(-0.117105 0.0135302 0)
(-0.126469 0.0138822 0)
(-0.135937 0.0141511 0)
(-0.145444 0.0143276 0)
(-0.154919 0.0144028 0)
(-0.164285 0.0143687 0)
(-0.173464 0.0142181 0)
(-0.182377 0.0139445 0)
(-0.19094 0.0135426 0)
(-0.199072 0.0130079 0)
(-0.20669 0.012337 0)
(-0.213712 0.0115278 0)
(-0.220058 0.0105793 0)
(-0.225651 0.0094916 0)
(-0.230416 0.00826641 0)
(-0.234282 0.00690683 0)
(-0.237182 0.00541769 0)
(-0.239057 0.00380558 0)
(-0.239854 0.0020786 0)
(-0.239525 0.000255144 0)
(-0.238031 -0.00165465 0)
(-0.235343 -0.00363637 0)
(-0.231447 -0.00566654 0)
(-0.226339 -0.00772032 0)
(-0.220028 -0.00976923 0)
(-0.21254 -0.0117808 0)
(-0.203918 -0.0137202 0)
(-0.194223 -0.0155496 0)
(-0.183537 -0.0172293 0)
(-0.171959 -0.0187185 0)
(-0.15961 -0.0199768 0)
(-0.146631 -0.0209663 0)
(-0.133182 -0.0216532 0)
(-0.119436 -0.0220097 0)
(-0.105584 -0.0220166 0)
(-0.0918218 -0.0216649 0)
(-0.0783516 -0.0209574 0)
(-0.0653727 -0.0199096 0)
(-0.0530761 -0.0185498 0)
(-0.0416372 -0.0169189 0)
(-0.0312094 -0.0150682 0)
(-0.0219182 -0.0130575 0)
(-0.013856 -0.0109514 0)
(-0.00707888 -0.00881601 0)
(-0.00160518 -0.00671558 0)
(0.00258462 -0.00470908 0)
(0.00554577 -0.00284825 0)
(0.0073662 -0.00117678 0)
(0.00816272 0.00026872 0)
(0.00807793 0.00145634 0)
(0.00727815 0.00235351 0)
(0.00595225 0.00292144 0)
(0.00431371 0.0031101 0)
(0.00259876 0.00285777 0)
(0.00109293 0.00210254 0)
(0.000109336 0.000837096 0)
(-7.11601e-07 8.71329e-06 0)
(4.25134e-05 -6.85216e-05 0)
(0.000154718 -0.000195893 0)
(0.000343229 -0.000343633 0)
(0.000610829 -0.00049469 0)
(0.000955875 -0.000638769 0)
(0.00137323 -0.000769816 0)
(0.00185545 -0.000884363 0)
(0.00239362 -0.00098055 0)
(0.00297798 -0.00105755 0)
(0.00359837 -0.00111527 0)
(0.0042446 -0.00115408 0)
(0.00490668 -0.00117477 0)
(0.00557508 -0.00117843 0)
(0.00624083 -0.00116636 0)
(0.00689571 -0.00114007 0)
(0.00753229 -0.00110118 0)
(0.00814405 -0.00105142 0)
(0.00872538 -0.000992584 0)
(0.00927164 -0.000926465 0)
(0.00977913 -0.000854844 0)
(0.0102451 -0.000779453 0)
(0.0106677 -0.000701947 0)
(0.011046 -0.00062388 0)
(0.0113798 -0.000546682 0)
(0.0116696 -0.000471645 0)
(0.0119166 -0.000399905 0)
(0.0121226 -0.000332429 0)
(0.0122899 -0.000270005 0)
(0.0124211 -0.000213233 0)
(0.012519 -0.000162514 0)
(0.0125866 -0.000118044 0)
(0.012627 -7.98091e-05 0)
(0.0126431 -4.7571e-05 0)
(0.0126377 -2.08672e-05 0)
(0.012613 9.95227e-07 0)
(0.012571 1.89426e-05 0)
(0.0125129 3.41389e-05 0)
(0.0124391 4.797e-05 0)
(0.0123493 6.20386e-05 0)
(0.012242 7.81505e-05 0)
(0.0121147 9.82934e-05 0)
(0.0119635 0.000124608 0)
(0.0117835 0.000159357 0)
(0.0115681 0.00020489 0)
(0.0113094 0.000263604 0)
(0.0109983 0.000337909 0)
(0.0106239 0.000430201 0)
(0.0101741 0.000542824 0)
(0.00963523 0.000678062 0)
(0.00899249 0.000838124 0)
(0.00822959 0.00102515 0)
(0.00732907 0.0012412 0)
(0.0062722 0.00148829 0)
(0.00503915 0.00176839 0)
(0.00360898 0.00208342 0)
(0.00195969 0.00243527 0)
(6.83699e-05 0.00282575 0)
(-0.00208871 0.0032566 0)
(-0.00453592 0.00372937 0)
(-0.00729807 0.00424533 0)
(-0.0104001 0.0048054 0)
(-0.0138669 0.00541004 0)
(-0.0177224 0.00605907 0)
(-0.0219899 0.00675157 0)
(-0.0266904 0.00748579 0)
(-0.031843 0.00825894 0)
(-0.0374635 0.00906715 0)
(-0.043564 0.00990539 0)
(-0.050152 0.0107673 0)
(-0.0572298 0.0116455 0)
(-0.0647937 0.0125311 0)
(-0.0728335 0.0134141 0)
(-0.0813319 0.0142835 0)
(-0.0902643 0.0151274 0)
(-0.0995982 0.015933 0)
(-0.109294 0.0166869 0)
(-0.119303 0.0173756 0)
(-0.12957 0.0179852 0)
(-0.140034 0.0185022 0)
(-0.150627 0.0189134 0)
(-0.161273 0.0192062 0)
(-0.171896 0.019369 0)
(-0.182411 0.0193908 0)
(-0.192733 0.0192623 0)
(-0.202776 0.018975 0)
(-0.21245 0.0185219 0)
(-0.221668 0.0178974 0)
(-0.23034 0.0170973 0)
(-0.238382 0.0161187 0)
(-0.24571 0.0149606 0)
(-0.252242 0.0136231 0)
(-0.257901 0.0121082 0)
(-0.262616 0.0104195 0)
(-0.266317 0.00856279 0)
(-0.268944 0.00654557 0)
(-0.27044 0.00437791 0)
(-0.270759 0.00207235 0)
(-0.26986 -0.000350903 0)
(-0.26771 -0.0028757 0)
(-0.264287 -0.0054811 0)
(-0.259584 -0.00813835 0)
(-0.253601 -0.0108161 0)
(-0.246356 -0.0134785 0)
(-0.237879 -0.0160848 0)
(-0.228218 -0.0185913 0)
(-0.217438 -0.0209509 0)
(-0.205624 -0.0231141 0)
(-0.19288 -0.0250301 0)
(-0.179329 -0.0266486 0)
(-0.165114 -0.0279219 0)
(-0.150399 -0.0288073 0)
(-0.135362 -0.0292696 0)
(-0.120198 -0.0292837 0)
(-0.105111 -0.0288368 0)
(-0.0903117 -0.0279309 0)
(-0.0760092 -0.0265837 0)
(-0.0624074 -0.0248292 0)
(-0.049696 -0.0227174 0)
(-0.0380437 -0.020312 0)
(-0.0275919 -0.0176881 0)
(-0.0184489 -0.0149278 0)
(-0.0106854 -0.0121166 0)
(-0.00433232 -0.00933804 0)
(0.000620349 -0.00667059 0)
(0.00422199 -0.0041841 0)
(0.00655898 -0.00193885 0)
(0.00775125 1.37861e-05 0)
(0.00794871 0.00162828 0)
(0.0073293 0.00285991 0)
(0.00609634 0.00365727 0)
(0.00447988 0.00395726 0)
(0.00273376 0.00368377 0)
(0.0011658 0.00275767 0)
(0.000119258 0.00113825 0)
(9.50641e-07 -3.5826e-06 0)
(6.08727e-05 -0.000113476 0)
(0.000200813 -0.000279028 0)
(0.000425518 -0.000467568 0)
(0.000736276 -0.000659531 0)
(0.00113077 -0.000842649 0)
(0.00160326 -0.00100945 0)
(0.00214571 -0.0011555 0)
(0.00274854 -0.00127832 0)
(0.00340122 -0.00137678 0)
(0.00409277 -0.00145063 0)
(0.00481214 -0.0015003 0)
(0.00554847 -0.00152675 0)
(0.00629136 -0.0015313 0)
(0.00703103 -0.00151562 0)
(0.00775847 -0.0014816 0)
(0.00846553 -0.00143131 0)
(0.00914504 -0.00136697 0)
(0.00979079 -0.00129083 0)
(0.0103977 -0.00120521 0)
(0.0109615 -0.00111237 0)
(0.0114792 -0.00101453 0)
(0.0119487 -0.000913814 0)
(0.0123687 -0.0008122 0)
(0.012739 -0.000711524 0)
(0.0130601 -0.000613439 0)
(0.013333 -0.0005194 0)
(0.0135596 -0.000430643 0)
(0.0137422 -0.000348174 0)
(0.0138834 -0.000272755 0)
(0.0139862 -0.000204892 0)
(0.0140538 -0.000144822 0)
(0.0140893 -9.25093e-05 0)
(0.0140955 -4.76263e-05 0)
(0.0140753 -9.55217e-06 0)
(0.014031 2.26351e-05 0)
(0.0139644 5.01626e-05 0)
(0.0138763 7.45651e-05 0)
(0.0137671 9.76702e-05 0)
(0.0136358 0.000121589 0)
(0.0134805 0.000148699 0)
(0.0132979 0.000181615 0)
(0.0130833 0.000223152 0)
(0.0128305 0.000276288 0)
(0.012532 0.000344116 0)
(0.0121783 0.000429795 0)
(0.0117585 0.000536504 0)
(0.0112601 0.000667403 0)
(0.0106688 0.000825594 0)
(0.00996889 0.0010141 0)
(0.00914305 0.00123583 0)
(0.00817246 0.00149362 0)
(0.00703689 0.00179019 0)
(0.00571476 0.00212818 0)
(0.00418321 0.00251014 0)
(0.00241822 0.00293856 0)
(0.000394641 0.00341583 0)
(-0.00191358 0.0039442 0)
(-0.00453329 0.00452577 0)
(-0.00749186 0.00516231 0)
(-0.0108169 0.00585521 0)
(-0.0145359 0.00660531 0)
(-0.0186758 0.00741276 0)
(-0.0232624 0.00827681 0)
(-0.0283196 0.0091957 0)
(-0.0338691 0.0101664 0)
(-0.0399292 0.0111847 0)
(-0.0465141 0.0122446 0)
(-0.0536332 0.0133388 0)
(-0.0612902 0.0144582 0)
(-0.0694822 0.0155922 0)
(-0.0781992 0.0167286 0)
(-0.0874234 0.0178538 0)
(-0.0971289 0.0189527 0)
(-0.107281 0.0200093 0)
(-0.117837 0.0210069 0)
(-0.128744 0.021928 0)
(-0.139945 0.0227551 0)
(-0.15137 0.0234708 0)
(-0.162946 0.0240583 0)
(-0.174594 0.0245014 0)
(-0.186227 0.0247851 0)
(-0.197758 0.0248958 0)
(-0.209094 0.0248212 0)
(-0.220143 0.0245508 0)
(-0.230811 0.0240759 0)
(-0.241005 0.0233897 0)
(-0.250633 0.0224869 0)
(-0.259606 0.0213644 0)
(-0.267839 0.0200208 0)
(-0.275248 0.0184566 0)
(-0.281757 0.0166741 0)
(-0.287293 0.0146775 0)
(-0.291788 0.0124733 0)
(-0.295182 0.0100699 0)
(-0.297419 0.00747833 0)
(-0.298451 0.00471219 0)
(-0.298238 0.00178828 0)
(-0.296747 -0.00127056 0)
(-0.293953 -0.00444244 0)
(-0.28984 -0.00770044 0)
(-0.284407 -0.0110106 0)
(-0.27766 -0.0143353 0)
(-0.26962 -0.0176317 0)
(-0.26032 -0.0208515 0)
(-0.24981 -0.0239423 0)
(-0.238156 -0.0268484 0)
(-0.225442 -0.0295108 0)
(-0.211771 -0.0318688 0)
(-0.197265 -0.0338624 0)
(-0.182068 -0.0354341 0)
(-0.166339 -0.0365321 0)
(-0.150259 -0.037113 0)
(-0.134023 -0.0371451 0)
(-0.117839 -0.0366111 0)
(-0.101921 -0.0355111 0)
(-0.0864883 -0.0338639 0)
(-0.0717529 -0.0317081 0)
(-0.057917 -0.0291019 0)
(-0.0451634 -0.0261209 0)
(-0.0336486 -0.022855 0)
(-0.0234964 -0.0194043 0)
(-0.0147928 -0.0158737 0)
(-0.00758234 -0.0123677 0)
(-0.00186663 -0.00898534 0)
(0.0023955 -0.00581669 0)
(0.00528595 -0.00294064 0)
(0.00692433 -0.000425542 0)
(0.00746458 0.0016677 0)
(0.00709142 0.00327999 0)
(0.00601941 0.00434635 0)
(0.00449109 0.00478967 0)
(0.00277461 0.00451824 0)
(0.00119631 0.00343282 0)
(0.000124007 0.0014535 0)
(2.52725e-06 -2.06936e-05 0)
(7.90734e-05 -0.000169793 0)
(0.000246816 -0.000378233 0)
(0.000507622 -0.000611299 0)
(0.000860986 -0.000847329 0)
(0.00130369 -0.00107228 0)
(0.00182932 -0.00127731 0)
(0.00242921 -0.00145703 0)
(0.00309311 -0.00160832 0)
(0.00380984 -0.00172969 0)
(0.00456769 -0.00182074 0)
(0.00535486 -0.00188194 0)
(0.00615973 -0.0019144 0)
(0.00697116 -0.00191972 0)
(0.00777865 -0.00189992 0)
(0.00857249 -0.00185732 0)
(0.00934393 -0.00179446 0)
(0.0100852 -0.00171405 0)
(0.0107896 -0.0016189 0)
(0.0114515 -0.00151182 0)
(0.0120664 -0.00139562 0)