/*--------------------------------*- C++ -*----------------------------------*\
  =========                 |
  \\      /  F ield         | OpenFOAM: The Open Source CFD Toolbox
   \\    /   O peration     | Website:  https://openfoam.org
    \\  /    A nd           | Version:  12
     \\/     M anipulation  |
\*---------------------------------------------------------------------------*/
FoamFile
{
    format      ascii;
    class       volVectorField;
    location    "8.5";
    object      U;
}
// * * * * * * * * * * * * * * * * * * * * * * * * * * * * * * * * * * * * * //

dimensions      [0 1 -1 0 0 0 0];

internalField   nonuniform List<vector> 
5625
(
(7.55433e-06 -3.51659e-06 0)
(4.61045e-05 -5.86905e-06 0)
(9.07911e-05 -5.31248e-06 0)
(0.000121326 -3.30977e-06 0)
(0.000127698 -1.01382e-06 0)
(0.000107876 1.2312e-06 0)
(6.29289e-05 3.22173e-06 0)
(-4.5249e-06 4.89652e-06 0)
(-9.13335e-05 6.25573e-06 0)
(-0.000194376 7.3354e-06 0)
(-0.000310895 8.18666e-06 0)
(-0.000438667 8.86674e-06 0)
(-0.000576072 9.43226e-06 0)
(-0.000722096 9.93563e-06 0)
(-0.000876297 1.04232e-05 0)
(-0.00103874 1.09346e-05 0)
(-0.00120996 1.15032e-05 0)
(-0.00139083 1.21563e-05 0)
(-0.0015826 1.29167e-05 0)
(-0.00178675 1.38032e-05 0)
(-0.00200501 1.48319e-05 0)
(-0.0022393 1.6017e-05 0)
(-0.0024917 1.73714e-05 0)
(-0.00276447 1.89073e-05 0)
(-0.00305998 2.06364e-05 0)
(-0.00338072 2.25697e-05 0)
(-0.00372928 2.47179e-05 0)
(-0.00410832 2.70904e-05 0)
(-0.00452056 2.9695e-05 0)
(-0.00496871 3.25374e-05 0)
(-0.00545544 3.56194e-05 0)
(-0.0059833 3.89386e-05 0)
(-0.00655464 4.24866e-05 0)
(-0.00717155 4.62472e-05 0)
(-0.00783568 5.01952e-05 0)
(-0.00854815 5.42938e-05 0)
(-0.00930937 5.8493e-05 0)
(-0.0101189 6.27272e-05 0)
(-0.0109751 6.69127e-05 0)
(-0.0118752 7.09464e-05 0)
(-0.0128148 7.47031e-05 0)
(-0.0137878 7.80346e-05 0)
(-0.0147861 8.07689e-05 0)
(-0.0157995 8.27107e-05 0)
(-0.0168152 8.36431e-05 0)
(-0.0178181 8.3331e-05 0)
(-0.0187904 8.1528e-05 0)
(-0.019712 7.79834e-05 0)
(-0.0205602 7.24563e-05 0)
(-0.0213104 6.47624e-05 0)
(-0.0219352 5.44859e-05 0)
(-0.0224092 4.18427e-05 0)
(-0.022702 2.69373e-05 0)
(-0.0227941 9.07757e-06 0)
(-0.0226567 -1.05457e-05 0)
(-0.0222726 -3.20582e-05 0)
(-0.0216291 -5.47887e-05 0)
(-0.0207211 -7.79433e-05 0)
(-0.0195531 -0.000100584 0)
(-0.0181403 -0.000121639 0)
(-0.0165098 -0.000139962 0)
(-0.0147004 -0.000154416 0)
(-0.0127619 -0.000163974 0)
(-0.0107537 -0.000167821 0)
(-0.00874171 -0.000165457 0)
(-0.00679487 -0.000156768 0)
(-0.00498115 -0.000142056 0)
(-0.00336318 -0.000122027 0)
(-0.00199431 -9.77088e-05 0)
(-0.000915214 -7.03554e-05 0)
(-0.000151208 -4.1377e-05 0)
(0.000290329 -1.24794e-05 0)
(0.000424394 1.45954e-05 0)
(0.000313008 3.39211e-05 0)
(8.20075e-05 3.71888e-05 0)
(1.79466e-05 -2.50262e-05 0)
(0.000107324 -4.3579e-05 0)
(0.0002001 -3.72281e-05 0)
(0.000253273 -1.69759e-05 0)
(0.000243113 8.47541e-06 0)
(0.000163181 3.4549e-05 0)
(1.50268e-05 5.88164e-05 0)
(-0.00019545 8.02231e-05 0)
(-0.000460593 9.84889e-05 0)
(-0.000772519 0.000113795 0)
(-0.0011241 0.000126585 0)
(-0.00150949 0.000137427 0)
(-0.00192439 0.000146933 0)
(-0.00236607 0.000155699 0)
(-0.00283335 0.000164276 0)
(-0.00332644 0.000173156 0)
(-0.00384679 0.000182761 0)
(-0.00439693 0.000193456 0)
(-0.00498032 0.000205543 0)
(-0.00560117 0.000219282 0)
(-0.00626437 0.000234891 0)
(-0.00697537 0.000252559 0)
(-0.00774008 0.000272451 0)
(-0.00856485 0.000294712 0)
(-0.00945638 0.000319468 0)
(-0.0104216 0.000346828 0)
(-0.0114679 0.000376877 0)
(-0.0126024 0.000409671 0)
(-0.0138326 0.00044523 0)
(-0.0151658 0.000483526 0)
(-0.016609 0.00052447 0)
(-0.0181689 0.000567898 0)
(-0.0198512 0.000613552 0)
(-0.0216609 0.000661063 0)
(-0.0236016 0.000709932 0)
(-0.0256749 0.000759506 0)
(-0.0278806 0.000808961 0)
(-0.0302155 0.000857281 0)
(-0.0326734 0.000903241 0)
(-0.0352442 0.000945391 0)
(-0.0379135 0.000982052 0)
(-0.0406619 0.00101131 0)
(-0.0434645 0.00103105 0)
(-0.0462905 0.00103893 0)
(-0.0491027 0.00103248 0)
(-0.0518572 0.00100913 0)
(-0.0545037 0.000966309 0)
(-0.0569856 0.000901556 0)
(-0.0592406 0.00081266 0)
(-0.0612016 0.000697794 0)
(-0.062797 0.00055535 0)
(-0.0639606 0.000384334 0)
(-0.0646064 0.000189352 0)
(-0.064695 -3.06019e-05 0)
(-0.0641502 -0.000273436 0)
(-0.0629326 -0.000531434 0)
(-0.0610137 -0.000798117 0)
(-0.0583862 -0.00106477 0)
(-0.0550676 -0.00132111 0)
(-0.0511035 -0.00155578 0)
(-0.0465688 -0.0017569 0)
(-0.0415686 -0.00191293 0)
(-0.0362354 -0.00201357 0)
(-0.0307251 -0.00205076 0)
(-0.02521 -0.00201959 0)
(-0.01987 -0.00191905 0)
(-0.0148824 -0.00175234 0)
(-0.010411 -0.00152684 0)
(-0.00659592 -0.0012537 0)
(-0.00354402 -0.000947191 0)
(-0.00132091 -0.000624419 0)
(5.75059e-05 -0.000306547 0)
(0.000637388 -2.30151e-05 0)
(0.000573777 0.000172728 0)
(0.000150448 0.000182388 0)
(2.40964e-05 -5.97874e-05 0)
(0.000140193 -9.74924e-05 0)
(0.000247782 -7.693e-05 0)
(0.000291105 -2.35054e-05 0)
(0.000237631 4.36493e-05 0)
(7.72969e-05 0.000113225 0)
(-0.00018857 0.000178883 0)
(-0.000552037 0.000237624 0)
(-0.00100224 0.000288478 0)
(-0.00152772 0.000331745 0)
(-0.00211795 0.000368469 0)
(-0.0027642 0.000400078 0)
(-0.00345999 0.00042815 0)
(-0.00420121 0.000454259 0)
(-0.0049861 0.000479881 0)
(-0.00581505 0.000506345 0)
(-0.0066904 0.000534813 0)
(-0.00761619 0.000566285 0)
(-0.00859788 0.000601611 0)
(-0.00964222 0.000641508 0)
(-0.010757 0.000686589 0)
(-0.0119508 0.000737377 0)
(-0.0132332 0.00079432 0)
(-0.0146141 0.000857807 0)
(-0.0161042 0.000928164 0)
(-0.0177144 0.00100565 0)
(-0.0194561 0.00109046 0)
(-0.0213406 0.00118269 0)
(-0.0233794 0.00128231 0)
(-0.0255835 0.00138916 0)
(-0.0279634 0.00150289 0)
(-0.0305287 0.00162293 0)
(-0.0332876 0.00174843 0)
(-0.0362466 0.00187824 0)
(-0.0394098 0.00201082 0)
(-0.0427782 0.00214422 0)
(-0.0463492 0.00227601 0)
(-0.0501157 0.00240325 0)
(-0.0540651 0.00252244 0)
(-0.058179 0.00262948 0)
(-0.0624317 0.00271972 0)
(-0.0667898 0.00278791 0)
(-0.0712112 0.00282827 0)
(-0.0756448 0.0028346 0)
(-0.0800299 0.00280038 0)
(-0.0842959 0.00271898 0)
(-0.0883628 0.00258388 0)
(-0.0921417 0.00238899 0)
(-0.0955361 0.00212903 0)
(-0.0984433 0.00179994 0)
(-0.100756 0.00139897 0)
(-0.102375 0.000922703 0)
(-0.103176 0.000387533 0)
(-0.103098 -0.000215501 0)
(-0.102037 -0.000870372 0)
(-0.0999391 -0.00156244 0)
(-0.0967686 -0.00227281 0)
(-0.0925218 -0.00297855 0)
(-0.0872321 -0.00365306 0)
(-0.0809733 -0.00426722 0)
(-0.0738628 -0.0047909 0)
(-0.0660603 -0.00519495 0)
(-0.0577657 -0.00545349 0)
(-0.0492118 -0.00554632 0)
(-0.0406552 -0.00546117 0)
(-0.0323635 -0.0051955 0)
(-0.0246009 -0.00475742 0)
(-0.017612 -0.00416583 0)
(-0.0116069 -0.00344955 0)
(-0.00674637 -0.00264615 0)
(-0.00312869 -0.00180154 0)
(-0.000775778 -0.000972616 0)
(0.00038442 -0.000236901 0)
(0.000572072 0.000281866 0)
(0.000166213 0.000363414 0)
(2.67494e-05 -0.000101864 0)
(0.000148786 -0.000156755 0)
(0.000244296 -0.000111897 0)
(0.000250394 -1.06552e-05 0)
(0.000129417 0.000115498 0)
(-0.000131066 0.000246739 0)
(-0.000529918 0.000371599 0)
(-0.00105779 0.000484305 0)
(-0.00170148 0.000582829 0)
(-0.00244683 0.000667526 0)
(-0.00328067 0.000740186 0)
(-0.00419202 0.000803378 0)
(-0.00517268 0.000860001 0)
(-0.0062175 0.000912985 0)
(-0.00732429 0.000965107 0)
(-0.00849371 0.00101889 0)
(-0.00972895 0.00107655 0)
(-0.0110355 0.00114002 0)
(-0.0124206 0.00121094 0)
(-0.0138934 0.00129069 0)
(-0.0154642 0.00138046 0)
(-0.0171447 0.00148125 0)
(-0.0189475 0.00159393 0)
(-0.020886 0.0017192 0)
(-0.0229743 0.00185767 0)
(-0.0252269 0.00200978 0)
(-0.0276586 0.00217582 0)
(-0.0302844 0.00235588 0)
(-0.0331188 0.00254981 0)
(-0.0361759 0.00275716 0)
(-0.0394689 0.00297709 0)
(-0.0430093 0.00320832 0)
(-0.0468067 0.00344903 0)
(-0.050868 0.00369678 0)
(-0.0551966 0.00394839 0)
(-0.0597914 0.00419987 0)
(-0.0646464 0.00444634 0)
(-0.0697489 0.00468192 0)
(-0.0750792 0.0048997 0)
(-0.080609 0.0050917 0)
(-0.0863009 0.00524891 0)
(-0.0921069 0.00536129 0)
(-0.0979677 0.00541792 0)
(-0.103813 0.0054072 0)
(-0.109559 0.00531709 0)
(-0.115111 0.00513551 0)
(-0.120362 0.00485079 0)
(-0.125197 0.00445229 0)
(-0.129488 0.00393104 0)
(-0.133106 0.00328059 0)
(-0.135913 0.00249757 0)
(-0.137783 0.00158062 0)
(-0.138581 0.000545316 0)
(-0.138202 -0.000600968 0)
(-0.136546 -0.00184085 0)
(-0.133546 -0.00314368 0)
(-0.129165 -0.00447414 0)
(-0.123408 -0.00578976 0)
(-0.116323 -0.00704192 0)
(-0.108012 -0.00817776 0)
(-0.0986257 -0.00914293 0)
(-0.0883697 -0.00988503 0)
(-0.0774967 -0.0103577 0)
(-0.0662998 -0.0105246 0)
(-0.0551014 -0.0103637 0)
(-0.0442379 -0.00987037 0)
(-0.0340416 -0.009059 0)
(-0.0248219 -0.0079638 0)
(-0.0168456 -0.00663747 0)
(-0.0103181 -0.0051496 0)
(-0.0053654 -0.00358612 0)
(-0.00201643 -0.00205339 0)
(-0.000181696 -0.000692734 0)
(0.000398766 0.000286462 0)
(0.000153855 0.000529562 0)
(2.69284e-05 -0.000144163 0)
(0.000137513 -0.000209165 0)
(0.00019844 -0.000128575 0)
(0.000143656 3.42557e-05 0)
(-6.67851e-05 0.000234536 0)
(-0.000446316 0.000443026 0)
(-0.000993605 0.000642379 0)
(-0.00169811 0.000823514 0)
(-0.00254481 0.000983064 0)
(-0.00351744 0.00112137 0)
(-0.0046008 0.00124106 0)
(-0.00578218 0.00134605 0)
(-0.00705206 0.00144083 0)
(-0.00840451 0.00152998 0)
(-0.00983713 0.00161789 0)
(-0.0113509 0.00170857 0)
(-0.0129499 0.00180556 0)
(-0.0146409 0.00191196 0)
(-0.016433 0.00203041 0)
(-0.0183373 0.00216316 0)
(-0.0203667 0.0023121 0)
(-0.0225354 0.00247885 0)
(-0.0248589 0.00266477 0)
(-0.0273537 0.00287097 0)
(-0.0300368 0.00309835 0)
(-0.0329259 0.00334754 0)
(-0.0360388 0.0036189 0)
(-0.0393933 0.00391242 0)
(-0.0430066 0.0042277 0)
(-0.0468951 0.00456379 0)
(-0.0510735 0.00491911 0)
(-0.0555546 0.00529134 0)
(-0.0603483 0.00567724 0)
(-0.0654608 0.00607256 0)
(-0.0708936 0.00647187 0)
(-0.0766426 0.00686841 0)
(-0.082697 0.00725399 0)
(-0.0890376 0.00761887 0)
(-0.0956364 0.0079517 0)
(-0.102455 0.00823953 0)
(-0.109443 0.00846779 0)
(-0.116538 0.00862048 0)
(-0.123664 0.00868037 0)
(-0.130732 0.00862931 0)
(-0.137638 0.00844875 0)
(-0.144265 0.00812029 0)
(-0.150483 0.0076265 0)
(-0.156153 0.0069518 0)
(-0.161125 0.00608358 0)
(-0.165245 0.00501329 0)
(-0.168357 0.00373772 0)
(-0.170314 0.002259 0)
(-0.170968 0.000596777 0)
(-0.170197 -0.00123171 0)
(-0.167897 -0.00319654 0)
(-0.163999 -0.00525108 0)
(-0.158468 -0.00734006 0)
(-0.151319 -0.00939771 0)
(-0.142616 -0.0113495 0)
(-0.132482 -0.0131147 0)
(-0.121098 -0.014611 0)
(-0.108703 -0.015759 0)
(-0.0955899 -0.0164883 0)
(-0.0820994 -0.016744 0)
(-0.0686039 -0.0164923 0)
(-0.0554928 -0.0157256 0)
(-0.0431524 -0.0144654 0)
(-0.0319442 -0.0127636 0)
(-0.0221817 -0.010701 0)
(-0.0141081 -0.00838558 0)
(-0.00787501 -0.00595151 0)
(-0.00352097 -0.00356445 0)
(-0.000948614 -0.00143915 0)
(0.000119404 0.000122339 0)
(0.000128137 0.00063519 0)
(2.53238e-05 -0.000181509 0)
(0.000110301 -0.000245169 0)
(0.000117529 -0.000115942 0)
(-1.88974e-05 0.000122161 0)
(-0.000338769 0.000410594 0)
(-0.000855264 0.000710372 0)
(-0.00156627 0.000997822 0)
(-0.00245999 0.0012603 0)
(-0.00351982 0.00149293 0)
(-0.00472782 0.00169599 0)
(-0.00606721 0.00187304 0)
(-0.00752391 0.00202951 0)
(-0.00908747 0.00217168 0)
(-0.0107514 0.00230606 0)
(-0.0125133 0.00243887 0)
(-0.0143746 0.00257586 0)
(-0.0163402 0.00272215 0)
(-0.018418 0.00288218 0)
(-0.020619 0.00305979 0)
(-0.022956 0.00325824 0)
(-0.0254442 0.00348026 0)
(-0.0281002 0.00372819 0)
(-0.0309421 0.00400395 0)
(-0.0339889 0.00430909 0)
(-0.0372604 0.00464481 0)
(-0.0407769 0.00501192 0)
(-0.0445586 0.00541075 0)
(-0.0486256 0.0058411 0)
(-0.0529971 0.00630211 0)
(-0.0576908 0.00679213 0)
(-0.0627227 0.00730853 0)
(-0.0681056 0.00784755 0)
(-0.0738488 0.00840411 0)
(-0.0799569 0.00897158 0)
(-0.0864286 0.00954164 0)
(-0.0932556 0.010104 0)
(-0.100421 0.0106465 0)
(-0.107899 0.0111545 0)
(-0.115652 0.0116114 0)
(-0.123631 0.0119982 0)
(-0.131774 0.0122939 0)
(-0.140002 0.0124755 0)
(-0.148224 0.0125186 0)
(-0.156334 0.0123978 0)
(-0.16421 0.0120873 0)
(-0.171715 0.0115621 0)
(-0.178701 0.0107988 0)
(-0.185008 0.00977701 0)
(-0.190469 0.00848086 0)
(-0.194914 0.00690057 0)
(-0.198172 0.00503419 0)
(-0.200082 0.00288881 0)
(-0.200491 0.000489211 0)
(-0.199266 -0.00213529 0)
(-0.196305 -0.00493944 0)
(-0.191538 -0.00785885 0)
(-0.184938 -0.0108158 0)
(-0.176526 -0.0137189 0)
(-0.166383 -0.0164649 0)
(-0.154647 -0.0189431 0)
(-0.141521 -0.0210403 0)
(-0.127269 -0.0226476 0)
(-0.112217 -0.0236686 0)
(-0.0967364 -0.0240274 0)
(-0.0812392 -0.0236767 0)
(-0.0661554 -0.0226052 0)
(-0.0519145 -0.0208413 0)
(-0.0389201 -0.0184558 0)
(-0.0275255 -0.0155606 0)
(-0.0180078 -0.0123062 0)
(-0.0105434 -0.00888114 0)
(-0.0051844 -0.00551707 0)
(-0.00183532 -0.00250771 0)
(-0.00021999 -0.000249031 0)
(9.65826e-05 0.000656576 0)
(2.24414e-05 -0.000210103 0)
(7.03927e-05 -0.000257127 0)
(7.58242e-06 -6.47497e-05 0)
(-0.00022881 0.000262657 0)
(-0.000676298 0.000652803 0)
(-0.00134661 0.00105692 0)
(-0.00223616 0.00144491 0)
(-0.00333167 0.00180047 0)
(-0.00461502 0.00211716 0)
(-0.00606683 0.00239524 0)
(-0.00766901 0.00263927 0)
(-0.00940648 0.00285634 0)
(-0.0112681 0.00305474 0)
(-0.0132471 0.00324306 0)
(-0.0153412 0.00342963 0)
(-0.0175522 0.00362213 0)
(-0.0198859 0.00382742 0)
(-0.0223516 0.0040515 0)
(-0.0249615 0.00429955 0)
(-0.0277305 0.00457594 0)
(-0.0306756 0.0048844 0)
(-0.0338156 0.00522801 0)
(-0.0371708 0.00560932 0)
(-0.0407625 0.00603034 0)
(-0.0446127 0.00649256 0)
(-0.0487438 0.00699688 0)
(-0.0531782 0.00754353 0)
(-0.0579375 0.00813195 0)
(-0.0630422 0.00876063 0)
(-0.068511 0.00942694 0)
(-0.0743597 0.0101269 0)
(-0.0806009 0.0108548 0)
(-0.0872422 0.0116033 0)
(-0.0942857 0.0123629 0)
(-0.101726 0.0131217 0)
(-0.109551 0.0138652 0)
(-0.117736 0.0145764 0)
(-0.126248 0.0152351 0)
(-0.135039 0.0158185 0)
(-0.14405 0.0163008 0)
(-0.153205 0.0166538 0)
(-0.162414 0.0168468 0)
(-0.17157 0.0168476 0)
(-0.180551 0.0166231 0)
(-0.189218 0.0161401 0)
(-0.197419 0.0153668 0)
(-0.204991 0.0142741 0)
(-0.21176 0.0128373 0)
(-0.217546 0.011038 0)
(-0.222167 0.00886628 0)
(-0.225443 0.00632259 0)
(-0.227206 0.00342001 0)
(-0.227301 0.000190311 0)
(-0.225594 -0.00332365 0)
(-0.221982 -0.00705987 0)
(-0.2164 -0.0109345 0)
(-0.208827 -0.0148461 0)
(-0.199293 -0.0186758 0)
(-0.187887 -0.0222908 0)
(-0.17476 -0.0255483 0)
(-0.16013 -0.028303 0)
(-0.144279 -0.0304148 0)
(-0.127551 -0.0317591 0)
(-0.110345 -0.0322374 0)
(-0.0930976 -0.0317874 0)
(-0.0762726 -0.0303922 0)
(-0.0603333 -0.0280867 0)
(-0.0457195 -0.0249608 0)
(-0.0328194 -0.0211589 0)
(-0.0219418 -0.0168773 0)
(-0.013289 -0.0123629 0)
(-0.00693142 -0.00791765 0)
(-0.00278438 -0.00391691 0)
(-0.000587887 -0.000848503 0)
(6.35483e-05 0.000583202 0)
(1.86617e-05 -0.000226988 0)
(2.03583e-05 -0.000238661 0)
(-0.000126501 3.30407e-05 0)
(-0.000479086 0.000464347 0)
(-0.00107075 0.000969579 0)
(-0.00191063 0.00149041 0)
(-0.00299293 0.00199046 0)
(-0.00430256 0.00244983 0)
(-0.00581978 0.00286059 0)
(-0.00752385 0.00322305 0)
(-0.00939563 0.00354292 0)
(-0.0114192 0.00382909 0)
(-0.013583 0.00409202 0)
(-0.0158801 0.00434259 0)
(-0.0183085 0.00459139 0)
(-0.0208704 0.00484822 0)
(-0.0235727 0.00512184 0)
(-0.0264257 0.00541997 0)
(-0.0294431 0.00574923 0)
(-0.0326413 0.00611526 0)
(-0.0360391 0.00652278 0)
(-0.0396572 0.00697574 0)
(-0.0435177 0.00747732 0)
(-0.047644 0.00802998 0)
(-0.05206 0.00863543 0)
(-0.0567896 0.00929461 0)
(-0.0618567 0.0100075 0)
(-0.067284 0.010773 0)
(-0.0730928 0.0115887 0)
(-0.0793017 0.0124508 0)
(-0.0859262 0.0133534 0)
(-0.0929774 0.0142886 0)
(-0.100461 0.0152464 0)
(-0.108375 0.0162135 0)
(-0.11671 0.017174 0)
(-0.125448 0.0181087 0)
(-0.134557 0.0189947 0)
(-0.143996 0.0198059 0)
(-0.153709 0.0205124 0)
(-0.163623 0.021081 0)
(-0.173652 0.0214756 0)
(-0.183693 0.0216576 0)
(-0.193625 0.0215865 0)
(-0.203313 0.0212213 0)
(-0.212606 0.0205216 0)
(-0.221339 0.019449 0)
(-0.229337 0.0179694 0)
(-0.236415 0.0160545 0)
(-0.242386 0.0136842 0)
(-0.247062 0.0108495 0)
(-0.250259 0.00755447 0)
(-0.251808 0.00381907 0)
(-0.251552 -0.000316226 0)
(-0.249361 -0.0047943 0)
(-0.245134 -0.00953557 0)
(-0.238813 -0.0144358 0)
(-0.230379 -0.0193691 0)
(-0.219869 -0.0241889 0)
(-0.207378 -0.0287317 0)
(-0.193064 -0.0328225 0)
(-0.177152 -0.0362824 0)
(-0.159933 -0.0389391 0)
(-0.141764 -0.0406384 0)
(-0.123059 -0.041257 0)
(-0.104277 -0.0407154 0)
(-0.085904 -0.0389898 0)
(-0.0684329 -0.0361198 0)
(-0.052335 -0.0322141 0)
(-0.0380313 -0.0274498 0)
(-0.0258618 -0.022071 0)
(-0.0160568 -0.0163854 0)
(-0.00871038 -0.0107677 0)
(-0.00375682 -0.00567597 0)
(-0.000963645 -0.0016858 0)
(3.16609e-05 0.000411566 0)
(1.42568e-05 -0.000229816 0)
(-3.78125e-05 -0.00018439 0)
(-0.000280781 0.000184484 0)
(-0.000763966 0.000734977 0)
(-0.00151487 0.00136866 0)
(-0.00253895 0.00201811 0)
(-0.00382748 0.00264098 0)
(-0.00536307 0.00321399 0)
(-0.00712422 0.00372789 0)
(-0.00908886 0.00418323 0)
(-0.0112368 0.004587 0)
(-0.0135516 0.00495007 0)
(-0.0160213 0.00528521 0)
(-0.0186389 0.00560579 0)
(-0.0214028 0.00592478 0)
(-0.0243159 0.00625426 0)
(-0.0273858 0.00660505 0)
(-0.030624 0.00698667 0)
(-0.0340454 0.0074073 0)
(-0.0376679 0.00787391 0)
(-0.0415118 0.00839232 0)
(-0.0455995 0.00896731 0)
(-0.0499548 0.00960272 0)
(-0.0546024 0.0103014 0)
(-0.0595677 0.0110653 0)
(-0.064876 0.0118952 0)
(-0.0705519 0.0127907 0)
(-0.0766189 0.0137499 0)
(-0.0830982 0.0147694 0)
(-0.090008 0.0158436 0)
(-0.0973626 0.0169646 0)
(-0.105171 0.0181219 0)
(-0.113435 0.0193018 0)
(-0.12215 0.0204874 0)
(-0.131302 0.0216579 0)
(-0.140864 0.0227886 0)
(-0.1508 0.0238505 0)
(-0.161059 0.0248106 0)
(-0.171574 0.0256315 0)
(-0.182263 0.0262722 0)
(-0.19303 0.0266884 0)
(-0.203759 0.026833 0)
(-0.214318 0.0266575 0)
(-0.224562 0.0261133 0)
(-0.234328 0.0251528 0)
(-0.243444 0.0237319 0)
(-0.251725 0.0218119 0)
(-0.258983 0.019362 0)
(-0.265026 0.0163615 0)
(-0.269664 0.0128032 0)
(-0.272714 0.00869593 0)
(-0.274008 0.00406723 0)
(-0.273393 -0.00103255 0)
(-0.270742 -0.0065318 0)
(-0.265961 -0.0123332 0)
(-0.258992 -0.0183119 0)
(-0.249822 -0.0243176 0)
(-0.238489 -0.0301763 0)
(-0.22509 -0.0356938 0)
(-0.209783 -0.0406627 0)
(-0.192795 -0.0448702 0)
(-0.174419 -0.0481107 0)
(-0.155017 -0.0501986 0)
(-0.135012 -0.050984 0)
(-0.114876 -0.0503679 0)
(-0.0951167 -0.0483168 0)
(-0.0762498 -0.0448732 0)
(-0.0587763 -0.040163 0)
(-0.0431491 -0.034396 0)
(-0.029741 -0.0278641 0)
(-0.0188132 -0.0209376 0)
(-0.0104886 -0.0140654 0)
(-0.00472796 -0.00778776 0)
(-0.0013348 -0.00276344 0)
(2.34687e-06 0.000142318 0)
(9.40685e-06 -0.000216714 0)
(-0.000102606 -8.9753e-05 0)
(-0.000452115 0.000395775 0)
(-0.00107872 0.00108152 0)
(-0.00200255 0.00185717 0)
(-0.00322437 0.00264681 0)
(-0.00473175 0.00340262 0)
(-0.00650455 0.0040983 0)
(-0.00851926 0.00472357 0)
(-0.0107524 0.00527942 0)
(-0.0131827 0.00577434 0)
(-0.0157933 0.00622134 0)
(-0.0185718 0.0066357 0)
(-0.0215117 0.00703337 0)
(-0.0246114 0.0074299 0)
(-0.0278747 0.00783974 0)
(-0.0313099 0.00827589 0)
(-0.0349295 0.00874976 0)
(-0.0387497 0.00927118 0)
(-0.0427895 0.00984848 0)
(-0.0470707 0.0104886 0)
(-0.0516169 0.0111972 0)
(-0.0564532 0.0119787 0)
(-0.0616057 0.0128364 0)
(-0.0671005 0.0137722 0)
(-0.072964 0.0147867 0)
(-0.0792212 0.0158789 0)
(-0.0858954 0.0170461 0)
(-0.0930075 0.0182832 0)
(-0.100575 0.0195829 0)
(-0.108609 0.0209346 0)
(-0.117117 0.0223248 0)
(-0.126097 0.023736 0)
(-0.13554 0.0251467 0)
(-0.145426 0.0265309 0)
(-0.155722 0.0278577 0)
(-0.166383 0.0290916 0)
(-0.177351 0.0301922 0)
(-0.18855 0.0311144 0)
(-0.19989 0.0318089 0)
(-0.211261 0.032223 0)
(-0.22254 0.0323014 0)
(-0.233586 0.0319878 0)
(-0.244244 0.031226 0)
(-0.254346 0.0299622 0)
(-0.263712 0.0281473 0)
(-0.272156 0.0257391 0)
(-0.279486 0.0227048 0)
(-0.285511 0.0190246 0)
(-0.290043 0.0146938 0)
(-0.292904 0.00972676 0)
(-0.293929 0.00415913 0)
(-0.29297 -0.0019483 0)
(-0.289907 -0.00850963 0)
(-0.284648 -0.0154102 0)
(-0.277138 -0.022505 0)
(-0.267365 -0.0296203 0)
(-0.255366 -0.0365551 0)
(-0.241232 -0.0430855 0)
(-0.225119 -0.0489714 0)
(-0.207247 -0.0539665 0)
(-0.187906 -0.0578304 0)
(-0.167457 -0.0603446 0)
(-0.146325 -0.0613303 0)
(-0.124992 -0.0606662 0)
(-0.10398 -0.0583059 0)
(-0.0838281 -0.0542923 0)
(-0.0650649 -0.0487658 0)
(-0.0481762 -0.041968 0)
(-0.0335696 -0.0342386 0)
(-0.0215412 -0.0260105 0)
(-0.0122481 -0.0178076 0)
(-0.00568405 -0.0102512 0)
(-0.00169484 -0.00407961 0)
(-2.38243e-05 -0.00022151 0)
(4.23638e-06 -0.000186167 0)
(-0.000172875 4.91454e-05 0)
(-0.000638008 0.000672367 0)
(-0.00141945 0.00151024 0)
(-0.00252864 0.00244159 0)
(-0.00396066 0.0033828 0)
(-0.00569862 0.00428115 0)
(-0.00771916 0.00510783 0)
(-0.00999644 0.00585187 0)
(-0.0125053 0.00651502 0)
(-0.0152237 0.0071075 0)
(-0.018134 0.00764467 0)
(-0.0212239 0.00814447 0)
(-0.0244868 0.00862561 0)
(-0.0279216 0.00910631 0)
(-0.0315328 0.00960351 0)
(-0.0353295 0.0101325 0)
(-0.0393251 0.0107066 0)
(-0.0435368 0.0113373 0)
(-0.0479849 0.0120344 0)
(-0.052692 0.012806 0)
(-0.0576829 0.0136586 0)
(-0.0629838 0.0145971 0)
(-0.0686214 0.0156251 0)
(-0.0746228 0.0167445 0)
(-0.0810144 0.0179555 0)
(-0.0878213 0.0192563 0)
(-0.0950664 0.020643 0)
(-0.102769 0.0221089 0)
(-0.110946 0.0236441 0)
(-0.119605 0.0252355 0)
(-0.128751 0.0268658 0)
(-0.138378 0.0285133 0)
(-0.148472 0.0301515 0)
(-0.159006 0.0317486 0)
(-0.169942 0.0332673 0)
(-0.181227 0.0346651 0)
(-0.192795 0.0358938 0)
(-0.204561 0.0369003 0)
(-0.216426 0.0376271 0)
(-0.228274 0.0380131 0)
(-0.239972 0.0379952 0)
(-0.251373 0.0375093 0)
(-0.262317 0.0364928 0)
(-0.27263 0.0348864 0)
(-0.282132 0.0326366 0)
(-0.290636 0.0296987 0)
(-0.297952 0.0260395 0)
(-0.303892 0.0216402 0)
(-0.308274 0.0165 0)
(-0.310926 0.0106389 0)
(-0.31169 0.00410093 0)
(-0.310424 -0.00304265 0)
(-0.307012 -0.0106923 0)
(-0.301367 -0.0187171 0)
(-0.293433 -0.0269529 0)
(-0.283195 -0.0352037 0)
(-0.270686 -0.0432429 0)
(-0.255989 -0.0508178 0)
(-0.239248 -0.0576566 0)
(-0.220672 -0.0634785 0)
(-0.200544 -0.068008 0)
(-0.179215 -0.0709919 0)
(-0.157109 -0.0722194 0)
(-0.134714 -0.0715436 0)
(-0.112562 -0.0689018 0)
(-0.0912155 -0.0643332 0)
(-0.0712303 -0.0579904 0)
(-0.0531266 -0.0501442 0)
(-0.0373501 -0.0411813 0)
(-0.0242364 -0.0315973 0)
(-0.0139821 -0.0219908 0)
(-0.00661948 -0.0130636 0)
(-0.00204132 -0.00563012 0)
(-4.68609e-05 -0.000675839 0)
(-1.17536e-06 -0.00013692 0)
(-0.000247763 0.000235657 0)
(-0.000836484 0.00101908 0)
(-0.00178299 0.00202679 0)
(-0.0030888 0.00312787 0)
(-0.00474241 0.00423189 0)
(-0.00672179 0.00528195 0)
(-0.0089998 0.00624728 0)
(-0.0115479 0.00711672 0)
(-0.0143393 0.00789312 0)
(-0.0173507 0.00858872 0)
(-0.020564 0.00922145 0)
(-0.0239666 0.0098121 0)
(-0.0275523 0.0103823 0)
(-0.0313205 0.010953 0)
(-0.035276 0.0115437 0)
(-0.0394289 0.012172 0)
(-0.0437933 0.0128534 0)
(-0.0483874 0.013601 0)
(-0.0532323 0.0144261 0)
(-0.0583516 0.0153376 0)
(-0.0637709 0.0163431 0)
(-0.0695169 0.017448 0)
(-0.075617 0.0186559 0)
(-0.0820985 0.0199687 0)
(-0.0889877 0.0213859 0)
(-0.0963091 0.0229049 0)
(-0.104085 0.0245201 0)
(-0.112333 0.0262228 0)
(-0.121067 0.0280007 0)
(-0.130293 0.0298372 0)
(-0.140012 0.0317112 0)
(-0.150213 0.0335962 0)
(-0.160877 0.0354603 0)
(-0.171971 0.0372656 0)
(-0.183452 0.0389681 0)
(-0.195258 0.0405178 0)
(-0.207315 0.0418587 0)
(-0.219533 0.0429296 0)
(-0.231805 0.0436649 0)
(-0.244006 0.0439955 0)
(-0.256001 0.0438507 0)
(-0.267636 0.0431597 0)
(-0.278748 0.041854 0)
(-0.289164 0.0398695 0)
(-0.298703 0.0371498 0)
(-0.307182 0.0336485 0)
(-0.314417 0.0293327 0)
(-0.320225 0.0241859 0)
(-0.324433 0.0182112 0)
(-0.326876 0.0114346 0)
(-0.327404 0.00390831 0)
(-0.325882 -0.00428646 0)
(-0.322199 -0.0130377 0)
(-0.316268 -0.0221995 0)
(-0.308032 -0.0315903 0)
(-0.297472 -0.0409935 0)
(-0.284608 -0.0501585 0)
(-0.269513 -0.0588052 0)
(-0.252314 -0.0666307 0)
(-0.233206 -0.0733201 0)
(-0.212454 -0.0785614 0)
(-0.190399 -0.0820645 0)
(-0.167458 -0.0835839 0)
(-0.144119 -0.0829428 0)
(-0.120926 -0.080058 0)
(-0.0984594 -0.0749608 0)
(-0.0773056 -0.0678119 0)
(-0.0580213 -0.0589088 0)
(-0.0410939 -0.0486834 0)
(-0.0269036 -0.0376936 0)
(-0.0156917 -0.0266125 0)
(-0.0075344 -0.0162217 0)
(-0.00237464 -0.00741016 0)
(-6.71325e-05 -0.00121651 0)
(-6.77957e-06 -6.79067e-05 0)
(-0.000326625 0.000472705 0)
(-0.00104598 0.0014402 0)
(-0.0021667 0.00263626 0)
(-0.00367934 0.00392141 0)
(-0.00556494 0.00519938 0)
(-0.00779564 0.00640993 0)
(-0.01034 0.00752097 0)
(-0.0131665 0.00852168 0)
(-0.0162462 0.00941644 0)
(-0.0195548 0.0102199 0)
(-0.0230734 0.0109527 0)
(-0.0267894 0.0116387 0)
(-0.0306967 0.0123026 0)
(-0.0347951 0.0129682 0)
(-0.03909 0.0136577 0)
(-0.0435921 0.0143911 0)
(-0.0483165 0.0151858 0)
(-0.0532818 0.0160568 0)
(-0.0585099 0.0170165 0)
(-0.0640253 0.0180753 0)
(-0.0698539 0.0192412 0)
(-0.0760229 0.0205201 0)
(-0.0825597 0.0219158 0)
(-0.0894916 0.0234297 0)
(-0.0968443 0.0250607 0)
(-0.104642 0.0268048 0)
(-0.112904 0.0286548 0)
(-0.121648 0.0305997 0)
(-0.130883 0.0326241 0)
(-0.140615 0.0347079 0)
(-0.150837 0.0368256 0)
(-0.161537 0.0389457 0)
(-0.172688 0.0410306 0)
(-0.184254 0.0430358 0)
(-0.196182 0.0449103 0)
(-0.208407 0.0465967 0)
(-0.220846 0.0480311 0)
(-0.233403 0.0491444 0)
(-0.245966 0.0498631 0)
(-0.258405 0.0501106 0)
(-0.270581 0.0498093 0)
(-0.282339 0.0488824 0)
(-0.293515 0.0472563 0)
(-0.303938 0.0448635 0)
(-0.313432 0.0416454 0)
(-0.321819 0.0375551 0)
(-0.328922 0.0325608 0)
(-0.33457 0.0266485 0)
(-0.338596 0.0198257 0)
(-0.340845 0.0121244 0)
(-0.341176 0.00360421 0)
(-0.339461 -0.00564461 0)
(-0.335592 -0.015499 0)
(-0.329481 -0.0258 0)
(-0.321069 -0.0363505 0)
(-0.310326 -0.0469155 0)
(-0.297261 -0.0572224 0)
(-0.281927 -0.0669652 0)
(-0.264435 -0.0758107 0)
(-0.244956 -0.0834101 0)
(-0.223735 -0.0894138 0)
(-0.201097 -0.0934926 0)
(-0.177448 -0.0953626 0)
(-0.153273 -0.094813 0)
(-0.129125 -0.0917348 0)
(-0.105603 -0.086146 0)
(-0.0833244 -0.0782112 0)
(-0.0628848 -0.0682508 0)
(-0.0448179 -0.0567398 0)
(-0.0295537 -0.0442976 0)
(-0.0173837 -0.0316714 0)
(-0.0084329 -0.019723 0)
(-0.00269707 -0.00941544 0)
(-8.51834e-05 -0.00183985 0)
(-1.25476e-05 2.17944e-05 0)
(-0.000408979 0.000762872 0)
(-0.00126525 0.00193955 0)
(-0.00256843 0.00334324 0)
(-0.00429713 0.00482711 0)
(-0.00642417 0.00629012 0)
(-0.00891514 0.00766954 0)
(-0.0117338 0.00893276 0)
(-0.0148453 0.0100699 0)
(-0.0182184 0.0110873 0)
(-0.0218274 0.0120023 0)
(-0.0256528 0.0128388 0)
(-0.0296818 0.0136238 0)
(-0.0339083 0.0143851 0)
(-0.0383325 0.0151496 0)
(-0.0429605 0.0159422 0)
(-0.0478033 0.0167853 0)
(-0.0528768 0.0176982 0)
(-0.0582002 0.0186978 0)
(-0.0637959 0.0197978 0)
(-0.0696888 0.0210096 0)
(-0.0759051 0.0223419 0)
(-0.082472 0.0238009 0)
(-0.0894169 0.0253902 0)
(-0.0967664 0.0271109 0)
(-0.104546 0.0289609 0)
(-0.112777 0.0309347 0)
(-0.121478 0.033023 0)
(-0.130665 0.0352123 0)
(-0.140344 0.0374841 0)
(-0.150515 0.0398141 0)
(-0.16117 0.0421722 0)
(-0.17229 0.0445216 0)
(-0.183845 0.0468186 0)
(-0.195791 0.0490121 0)
(-0.20807 0.0510441 0)
(-0.220611 0.0528494 0)
(-0.233327 0.0543566 0)
(-0.246115 0.0554889 0)
(-0.258859 0.0561654 0)
(-0.271428 0.0563026 0)
(-0.283679 0.0558168 0)
(-0.295459 0.0546261 0)
(-0.306607 0.052653 0)
(-0.316955 0.0498275 0)
(-0.326335 0.0460898 0)
(-0.334577 0.0413932 0)
(-0.341514 0.0357077 0)
(-0.346985 0.0290224 0)
(-0.350834 0.0213491 0)
(-0.352918 0.0127251 0)
(-0.353101 0.00321667 0)
(-0.351262 -0.00707816 0)
(-0.347296 -0.0180271 0)
(-0.341114 -0.0294603 0)
(-0.332649 -0.0411675 0)
(-0.321861 -0.0528974 0)
(-0.308741 -0.0643578 0)
(-0.293323 -0.0752185 0)
(-0.275693 -0.0851174 0)
(-0.255997 -0.0936714 0)
(-0.234456 -0.100493 0)
(-0.211371 -0.105211 0)
(-0.187135 -0.107499 0)
(-0.162227 -0.107108 0)
(-0.137204 -0.103896 0)
(-0.112685 -0.0978639 0)
(-0.0893181 -0.089173 0)
(-0.0677423 -0.0781629 0)
(-0.0485417 -0.0653488 0)
(-0.0322011 -0.0514099 0)
(-0.0190683 -0.0371685 0)
(-0.00932154 -0.0235667 0)
(-0.00301193 -0.0116429 0)
(-0.000101635 -0.00254306 0)
(-1.84635e-05 0.000133003 0)
(-0.000494465 0.00110846 0)
(-0.0014933 0.00252057 0)
(-0.00298639 0.00415187 0)
(-0.00493952 0.0058494 0)
(-0.00731652 0.00750846 0)
(-0.0100758 0.00906481 0)
(-0.0131759 0.0104861 0)
(-0.0165781 0.011764 0)
(-0.0202488 0.0129075 0)
(-0.0241605 0.0139371 0)
(-0.0282931 0.0148799 0)
(-0.0326335 0.0157664 0)
(-0.0371756 0.0166279 0)
(-0.04192 0.0174943 0)
(-0.0468731 0.0183931 0)
(-0.0520466 0.0193493 0)
(-0.0574566 0.0203842 0)
(-0.063123 0.0215163 0)
(-0.0690685 0.0227608 0)
(-0.0753179 0.0241299 0)
(-0.0818978 0.0256328 0)
(-0.088835 0.027276 0)
(-0.0961564 0.029063 0)
(-0.103888 0.030994 0)
(-0.112053 0.0330658 0)
(-0.120673 0.0352712 0)
(-0.129764 0.0375989 0)
(-0.139337 0.0400322 0)
(-0.149398 0.042549 0)
(-0.159941 0.045121 0)
(-0.170955 0.0477131 0)
(-0.182416 0.0502829 0)
(-0.194289 0.0527804 0)
(-0.206524 0.0551479 0)
(-0.219058 0.0573202 0)
(-0.231816 0.0592246 0)
(-0.244706 0.0607826 0)
(-0.257621 0.0619099 0)
(-0.270443 0.0625188 0)
(-0.28304 0.06252 0)
(-0.29527 0.0618242 0)
(-0.306982 0.0603456 0)
(-0.31802 0.0580039 0)
(-0.328225 0.0547273 0)
(-0.337436 0.050456 0)
(-0.345493 0.0451443 0)
(-0.352241 0.0387643 0)
(-0.35753 0.0313083 0)
(-0.361218 0.0227921 0)
(-0.36317 0.0132577 0)
(-0.363259 0.00277674 0)
(-0.361369 -0.00854644 0)
(-0.357396 -0.0205724 0)
(-0.351249 -0.0331228 0)
(-0.342851 -0.0459767 0)
(-0.332149 -0.0588692 0)
(-0.319116 -0.0714909 0)
(-0.303761 -0.0834892 0)
(-0.286143 -0.0944746 0)
(-0.266378 -0.10403 0)
(-0.244658 -0.111729 0)
(-0.22126 -0.117155 0)
(-0.196555 -0.119938 0)
(-0.171012 -0.119782 0)
(-0.145193 -0.116509 0)
(-0.119733 -0.110092 0)
(-0.0953135 -0.100684 0)
(-0.0726178 -0.08864 0)
(-0.0522855 -0.0745105 0)
(-0.0348622 -0.0590336 0)
(-0.0207576 -0.0431066 0)
(-0.0102083 -0.0277536 0)
(-0.0033231 -0.0140912 0)
(-0.000117112 -0.00332451 0)
(-2.45198e-05 0.000266461 0)
(-0.000582811 0.00151157 0)
(-0.00172935 0.00318639 0)
(-0.00341909 0.00506591 0)
(-0.00560422 0.0069923 0)
(-0.00823885 0.00885833 0)
(-0.0112737 0.0105993 0)
(-0.0146613 0.0121839 0)
(-0.018359 0.0136063 0)
(-0.0223304 0.0148785 0)
(-0.0265463 0.0160245 0)
(-0.0309855 0.0170753 0)