/*--------------------------------*- C++ -*----------------------------------*\
  =========                 |
  \\      /  F ield         | OpenFOAM: The Open Source CFD Toolbox
   \\    /   O peration     | Website:  https://openfoam.org
    \\  /    A nd           | Version:  12
     \\/     M anipulation  |
\*---------------------------------------------------------------------------*/
FoamFile
{
    format      ascii;
    class       volScalarField;
    location    "9.5";
    object      p;
}
// * * * * * * * * * * * * * * * * * * * * * * * * * * * * * * * * * * * * * //

dimensions      [0 2 -2 0 0 0 0];

internalField   nonuniform List<scalar> 
5625
(
-2.63847e-09
-1.83411e-05
-9.33301e-05
-0.000227729
-0.000405934
-0.000612969
-0.000836328
-0.00106555
-0.00129213
-0.00150931
-0.00171185
-0.00189571
-0.00205788
-0.00219611
-0.00230878
-0.00239473
-0.00245315
-0.0024835
-0.00248538
-0.00245857
-0.00240291
-0.00231833
-0.00220479
-0.00206237
-0.00189118
-0.00169143
-0.00146347
-0.00120778
-0.000925006
-0.000616
-0.000281846
7.61145e-05
0.000456262
0.000856676
0.00127512
0.00170903
0.00215551
0.00261139
0.00307323
0.00353719
0.00399929
0.00445532
0.00490095
0.00533174
0.00574325
0.00613109
0.006491
0.00681896
0.00711123
0.00736444
0.00757573
0.00774273
0.00786371
0.00793758
0.00796399
0.00794332
0.00787674
0.00776622
0.00761449
0.00742507
0.00720224
0.00695099
0.006677
0.00638657
0.00608663
0.0057846
0.00548846
0.00520658
0.00494769
0.00472074
0.00453449
0.00439709
0.00431539
0.0042918
0.00430696
1.81662e-05
-2.50481e-07
-6.71178e-05
-0.000185134
-0.000341124
-0.000522691
-0.000719393
-0.000922286
-0.00112387
-0.00131801
-0.00149982
-0.00166545
-0.00181194
-0.00193703
-0.00203901
-0.00211664
-0.002169
-0.00219542
-0.00219545
-0.00216874
-0.00211508
-0.00203433
-0.00192644
-0.00179141
-0.00162937
-0.0014405
-0.00122514
-0.000983746
-0.000716952
-0.000425585
-0.000110688
0.000226452
0.000584289
0.000960994
0.00135445
0.00176222
0.00218158
0.00260959
0.00304295
0.00347808
0.00391128
0.00433862
0.00475604
0.00515943
0.00554465
0.00590764
0.00624446
0.00655138
0.00682496
0.00706212
0.00726023
0.00741716
0.00753134
0.00760185
0.0076284
0.00761144
0.00755213
0.00745236
0.00731475
0.00714264
0.00694007
0.00671171
0.00646286
0.00619941
0.00592772
0.00565464
0.00538738
0.00513348
0.00490067
0.00469669
0.00452895
0.00440423
0.00432874
0.0043066
0.00432199
9.34171e-05
6.63452e-05
-1.07793e-06
-0.000109753
-0.000249312
-0.000410124
-0.000583853
-0.000763134
-0.000941607
-0.00111393
-0.00127574
-0.0014235
-0.00155441
-0.0016663
-0.00175748
-0.00182665
-0.00187286
-0.00189537
-0.00189364
-0.00186727
-0.00181598
-0.00173959
-0.00163797
-0.00151112
-0.00135911
-0.00118211
-0.000980409
-0.000754442
-0.000504803
-0.000232267
6.21797e-05
0.000377328
0.000711721
0.00106364
0.0014311
0.00181183
0.0022033
0.00260273
0.00300702
0.00341288
0.00381685
0.00421527
0.00460438
0.00498035
0.00533935
0.0056776
0.00599148
0.00627754
0.00653261
0.00675387
0.00693891
0.0070858
0.00719314
0.00726011
0.00728653
0.00727287
0.00722027
0.00713055
0.0070062
0.00685039
0.00666689
0.00646007
0.00623487
0.00599668
0.00575136
0.00550511
0.00526441
0.00503596
0.0048265
0.00464267
0.00449073
0.00437636
0.00430546
0.00428398
0.0042989
0.000229458
0.000184818
0.000106208
-3.67773e-06
-0.000137448
-0.000287768
-0.000447953
-0.000611982
-0.000774568
-0.000931192
-0.00107808
-0.00121212
-0.00133083
-0.00143221
-0.0015147
-0.00157706
-0.00161835
-0.00163784
-0.00163497
-0.00160932
-0.00156056
-0.00148846
-0.00139288
-0.00127376
-0.00113113
-0.00096511
-0.000775948
-0.000564023
-0.000329867
-7.41899e-05
0.000202103
0.000497892
0.000811821
0.00114229
0.00148744
0.00184515
0.00221305
0.00258851
0.00296863
0.00335034
0.00373036
0.00410524
0.00447144
0.00482536
0.00516338
0.00548195
0.00577764
0.00604721
0.00628768
0.0064964
0.0066711
0.00680999
0.00691177
0.00697569
0.00700163
0.00699004
0.00694205
0.00685942
0.00674452
0.00660035
0.0064305
0.00623909
0.00603071
0.00581041
0.00558358
0.00535592
0.00513332
0.00492178
0.00472731
0.00455579
0.00441272
0.00430319
0.00423291
0.00420852
0.00421891
0.00041184
0.000342845
0.000245056
0.000126329
-9.13793e-06
-0.000156168
-0.000309476
-0.000464231
-0.000616165
-0.000761577
-0.000897332
-0.00102083
-0.00112992
-0.0012229
-0.00129839
-0.00135529
-0.00139274
-0.00141004
-0.00140667
-0.0013822
-0.00133628
-0.00126866
-0.00117916
-0.00106768
-0.00093419
-0.00077876
-0.000601575
-0.000402943
-0.000183321
5.66682e-05
0.000316212
0.000594292
0.000889667
0.00120086
0.00152613
0.00186352
0.00221077
0.00256544
0.00292478
0.00328588
0.00364562
0.00400075
0.00434787
0.00468355
0.00500435
0.00530685
0.00558778
0.00584402
0.00607273
0.00627136
0.00643774
0.00657015
0.00666734
0.00672861
0.00675383
0.00674347
0.00669861
0.00662093
0.00651272
0.00637683
0.00621669
0.00603618
0.00583965
0.00563182
0.00541771
0.00520259
0.00499184
0.00479094
0.0046053
0.00444017
0.00430051
0.00419096
0.00411679
0.00408414
0.00408442
0.000626515
0.000528647
0.000406209
0.000273195
0.000130622
-1.83839e-05
-0.000169773
-0.000319796
-0.000465139
-0.000602904
-0.000730611
-0.000846175
-0.000947877
-0.00103431
-0.00110434
-0.00115705
-0.0011917
-0.00120768
-0.0012045
-0.00118175
-0.0011391
-0.00107627
-0.000993043
-0.000889271
-0.000764875
-0.000619859
-0.000454331
-0.000268516
-6.27813e-05
0.000162349
0.000406168
0.000667772
0.000946037
0.00123961
0.0015469
0.00186606
0.00219499
0.00253137
0.00287262
0.00321595
0.00355839
0.0038968
0.00422795
0.0045485
0.00485512
0.00514453
0.00541352
0.00565907
0.0058784
0.00606902
0.0062288
0.00635606
0.00644957
0.00650863
0.00653309
0.0065234
0.00648058
0.00640624
0.00630259
0.00617236
0.0060188
0.00584564
0.00565699
0.00545731
0.0052513
0.00504386
0.00483998
0.00464467
0.00446284
0.00429925
0.00415838
0.00404446
0.00396206
0.00391615
0.00390139
0.000861444
0.00073197
0.000581288
0.000430049
0.00027625
0.000121132
-3.23458e-05
-0.000181401
-0.000323611
-0.000456845
-0.000579264
-0.000689318
-0.000785719
-0.000867409
-0.000933523
-0.000983348
-0.0010163
-0.00103187
-0.00102965
-0.00100926
-0.000970376
-0.000912708
-0.000836011
-0.000740087
-0.000624795
-0.000490067
-0.000335926
-0.000162504
2.99344e-05
0.000240975
0.000470028
0.000716311
0.000978827
0.00125635
0.00154743
0.00185034
0.00216313
0.00248359
0.00280926
0.0031375
0.00346542
0.00379001
0.00410811
0.00441647
0.00471184
0.00499098
0.00525074
0.00548814
0.00570041
0.00588507
0.00604001
0.00616351
0.00625434
0.00631177
0.00633561
0.00632625
0.00628465
0.00621236
0.00611149
0.00598466
0.00583501
0.00566608
0.00548182
0.00528645
0.00508444
0.00488037
0.0046789
0.00448466
0.00430217
0.00413576
0.00398952
0.00386726
0.00377278
0.00370958
0.00367611
0.00110603
0.000943531
0.000762399
0.000590197
0.000422122
0.000257702
9.895e-05
-5.22216e-05
-0.000194207
-0.000325597
-0.000445175
-0.000551916
-0.00064497
-0.000723639
-0.000787344
-0.0008356
-0.000867988
-0.000884138
-0.000883706
-0.00086637
-0.000831821
-0.000779764
-0.000709921
-0.000622045
-0.00051593
-0.000391427
-0.000248465
-8.70755e-05
9.25922e-05
0.000290242
0.000505409
0.000737442
0.000985476
0.00124842
0.00152495
0.00181347
0.00211216
0.00241892
0.00273141
0.00304708
0.00336313
0.00367663
0.00398447
0.00428346
0.00457038
0.00484199
0.00509517
0.00532691
0.00553443
0.00571521
0.0058671
0.00598833
0.00607762
0.00613417
0.00615772
0.00614861
0.00610771
0.0060365
0.00593697
0.00581168
0.00566363
0.00549625
0.00531332
0.0051189
0.00491723
0.00471269
0.00450966
0.00431246
0.00412531
0.00395219
0.00379685
0.00366277
0.00355294
0.00346932
0.00341459
0.00135099
0.00115492
0.00094214
0.000747189
0.000562678
0.000386589
0.000220103
6.43593e-05
-7.97863e-05
-0.000211601
-0.000330458
-0.000435841
-0.000527333
-0.000604594
-0.000667341
-0.000715321
-0.000748298
-0.000766031
-0.00076827
-0.000754746
-0.000725171
-0.000679243
-0.000616655
-0.000537106
-0.000440319
-0.000326058
-0.000194154
-4.45227e-05
0.000122805
0.000307662
0.000509718
0.000728456
0.00096315
0.00121285
0.00147634
0.00175219
0.00203867
0.00233379
0.00263532
0.00294078
0.00324745
0.00355244
0.00385267
0.00414498
0.00442614
0.00469289
0.00494206
0.00517062
0.00537569
0.00555471
0.00570543
0.00582601
0.00591505
0.00597167
0.00599552
0.00598684
0.00594642
0.00587563
0.0057764
0.00565116
0.00550283
0.00533474
0.00515053
0.00495413
0.00474965
0.00454126
0.00433315
0.00412943
0.00393406
0.00375077
0.00358306
0.00343413
0.00330625
0.00319987
0.00312215
0.00158815
0.00135854
0.00111363
0.000894863
0.000692465
0.000503007
0.000326941
0.000164708
1.64763e-05
-0.00011765
-0.0002376
-0.000343346
-0.000434888
-0.000512241
-0.000575409
-0.000624376
-0.000659086
-0.000679435
-0.000685265
-0.000676363
-0.000652463
-0.000613256
-0.0005584
-0.000487538
-0.000400316
-0.000296406
-0.00017553
-3.74839e-05
0.00011783
0.000290382
0.000479981
0.000686254
0.000908616
0.00114625
0.0013981
0.00166283
0.00193883
0.00222423
0.00251687
0.00281433
0.00311396
0.00341289
0.00370805
0.00399627
0.00427427
0.00453876
0.00478649
0.00501433
0.00521933
0.00539879
0.00555034
0.00567201
0.00576228
0.00582015
0.00584515
0.00583738
0.00579753
0.00572688
0.00562723
0.00550096
0.00535087
0.00518021
0.00499253
0.00479167
0.00458161
0.00436642
0.00415015
0.00393675
0.00373003
0.00353352
0.00335056
0.00318417
0.00303597
0.00290504
0.00280316
0.00181024
0.00154749
0.00127046
0.00102736
0.000806173
0.000602182
0.000415187
0.000244998
9.11494e-05
-4.68413e-05
-0.000169428
-0.000277042
-0.000370086
-0.000448911
-0.000513807
-0.000564983
-0.000602563
-0.000626574
-0.00063695
-0.00063353
-0.000616067
-0.000584241
-0.000537673
-0.000475943
-0.000398615
-0.000305261
-0.000195487
-6.89623e-05
7.45494e-05
0.000235161
0.000412831
0.000607334
0.000818234
0.00104486
0.00128628
0.0015413
0.00180841
0.00208584
0.0023715
0.00266305
0.00295786
0.00325306
0.00354559
0.00383223
0.00410964
0.00437446
0.00462333
0.00485298
0.00506033
0.00524253
0.00539706
0.00552177
0.00561499
0.00567554
0.0057028
0.00569673
0.00565789
0.00558742
0.00548704
0.00535901
0.00520607
0.00503139
0.00483845
0.00463102
0.00441303
0.00418846
0.00396131
0.00373545
0.00351457
0.00330213
0.00310138
0.00291525
0.00274483
0.00258795
0.00246108
0.00201071
0.00171547
0.00140667
0.00113911
0.000898656
0.000679391
0.000480523
0.000301283
0.000140617
-2.50538e-06
-0.00012903
-0.000239825
-0.000335671
-0.000417244
-0.0004851
-0.000539668
-0.00058124
-0.00060997
-0.000625875
-0.000628843
-0.000618639
-0.000594928
-0.000557285
-0.000505223
-0.000438217
-0.000355731
-0.000257247
-0.000142299
-1.05064e-05
0.000138396
0.000304524
0.000487807
0.000687964
0.000904472
0.00113654
0.00138309
0.00164274
0.00191381
0.00219428
0.00248186
0.00277394
0.00306765
0.00335991
0.00364744
0.00392681
0.00419455
0.00444716
0.00468122
0.00489347
0.00508088
0.00524071
0.00537063
0.00546874
0.00553368
0.00556464
0.00556139
0.00552434
0.00545448
0.00535341
0.0052233
0.0050668
0.00488702
0.0046874
0.00447167
0.00424374
0.00400758
0.00376717
0.00352636
0.00328884
0.00305804
0.00283722
0.00262933
0.00243502
0.00225101
0.00209849
0.00218355
0.00185664
0.00151667
0.00122481
0.000964936
0.000729986
0.000518626
0.000329544
0.000161136
1.18578e-05
-0.000119701
-0.000234819
-0.000334636
-0.00042013
-0.000492112
-0.000551215
-0.00059789
-0.000632405
-0.000654853
-0.000665161
-0.000663101
-0.000648312
-0.000620319
-0.00057856
-0.00052241
-0.000451219
-0.000364338
-0.000261157
-0.000141141
-3.86344e-06
0.000150954
0.000323407
0.000513375
0.000720489
0.000944104
0.00118327
0.00143674
0.00170289
0.00197981
0.00226523
0.00255657
0.00285095
0.00314524
0.00343608
0.00371995
0.00399322
0.00425225
0.00449342
0.00471326
0.00490851
0.00507619
0.00521373
0.00531898
0.00539033
0.00542675
0.0054278
0.00539368
0.00532523
0.00522392
0.00509178
0.0049314
0.00474582
0.00453847
0.00431306
0.00407353
0.00382388
0.00356811
0.00331016
0.00305376
0.0028024
0.00255945
0.00232794
0.00210821
0.00189598
0.0017172
0.0023232
0.00196553
0.00159516
0.00127941
0.0010002
0.000749419
0.000525202
0.000325733
0.000148884
-7.37335e-06
-0.000144888
-0.000265328
-0.000370167
-0.000460671
-0.000537887
-0.000602637
-0.000655514
-0.000696893
-0.00072693
-0.00074558
-0.000752614
-0.000747635
-0.000730111
-0.000699392
-0.000654751
-0.000595412
-0.000520585
-0.000429508
-0.000321482
-0.000195911
-5.23428e-05
0.000109492
0.000289644
0.000487908
0.000703791
0.000936487
0.00118485
0.00144739
0.00172223
0.00200718
0.00229965
0.00259676
0.00289531
0.00319186
0.00348277
0.00376425
0.00403246
0.00428356
0.00451385
0.00471978
0.0048981
0.00504595
0.00516089
0.00524102
0.00528503
0.00529224
0.00526261
0.00519678
0.00509606
0.00496235
0.00479816
0.00460647
0.0043907
0.00415459
0.00390211
0.00363735
0.00336443
0.00308738
0.00281006
0.00253613
0.00226912
0.00201226
0.00176565
0.00152408
0.00131834
0.00242441
0.00203702
0.00163716
0.00129807
0.000999817
0.000733247
0.000496012
0.000285804
9.99981e-05
-6.38983e-05
-0.000208149
-0.000334789
-0.000445608
-0.000542139
-0.000625648
-0.000697129
-0.000757308
-0.000806646
-0.000845353
-0.000873403
-0.000890551
-0.000896358
-0.000890221
-0.000871398
-0.000839046
-0.000792255
-0.000730087
-0.000651614
-0.000555965
-0.000442365
-0.000310175
-0.000158941
1.15677e-05
0.000201322
0.000409993
0.000636921
0.000881093
0.00114112
0.00141522
0.00170122
0.00199659
0.00229839
0.00260338
0.00290802
0.00320852
0.00350093
0.00378117
0.00404518
0.00428895
0.00450863
0.00470066
0.00486182
0.00498935
0.005081
0.00513514
0.00515077
0.00512761
0.00506605
0.0049672
0.00483281
0.00466529
0.00446757
0.00424306
0.00399556
0.00372911
0.00344792
0.00315628
0.00285838
0.00255831
0.00225993
0.00196703
0.00168312
0.00140814
0.00113604
0.000902531
0.00248228
0.00206624
0.00163791
0.00127616
0.000959298
0.000677149
0.000426891
0.000205747
1.06102e-05
-0.000161454
-0.000313107
-0.00044673
-0.00056441
-0.000667929
-0.000758755
-0.000838039
-0.000906621
-0.000965039
-0.00101354
-0.00105211
-0.00108047
-0.00109813
-0.00110441
-0.00109847
-0.00107933
-0.00104594
-0.000997197
-0.00093201
-0.000849318
-0.000748153
-0.000627681
-0.00048725
-0.000326433
-0.000145071
5.66834e-05
0.000278334
0.00051901
0.000777437
0.00105193
0.00134038
0.00164025
0.00194861
0.00226215
0.00257722
0.00288989
0.003196
0.00349125
0.00377128
0.00403178
0.00426854
0.00447764
0.00465546
0.00479884
0.00490516
0.00497239
0.0049992
0.00498495
0.00492977
0.00483452
0.0047008
0.00453087
0.00432761
0.00409444
0.00383521
0.00355408
0.00325542
0.00294372
0.00262344
0.00229891
0.0019743
0.00165374
0.00134108
0.00103619
0.000732212
0.000469914
0.00249209
0.00204857
0.00159287
0.00120927
0.000874334
0.000576935
0.000313773
8.16114e-05
-0.000123118
-0.00030378
-0.000463412
-0.000604727
-0.000730092
-0.000841521
-0.000940666
-0.00102882
-0.00110692
-0.00117558
-0.00123505
-0.00128532
-0.00132608
-0.00135678
-0.00137663
-0.00138467
-0.00137982
-0.00136085
-0.00132649
-0.00127547
-0.00120653
-0.00111849
-0.00101031
-0.000881119
-0.000730288
-0.000557452
-0.000362565
-0.000145947
9.16916e-05
0.000349213
0.000625035
0.000917117
0.00122296
0.00153963
0.00186374
0.00219155
0.00251896
0.00284161
0.00315494
0.00345428
0.00373497
0.00399241
0.00422225
0.00442045
0.00458338
0.00470796
0.00479173
0.00483294
0.00483056
0.00478438
0.00469499
0.00456377
0.00439282
0.00418497
0.00394362
0.00367269
0.00337648
0.00305959
0.00272674
0.00238271
0.00203216
0.00167963
0.00132965
0.000986508
0.000650053
0.000312642
2.03048e-05
0.00244939
0.0019796
0.00149772
0.00109314
0.000740783
0.000428555
0.000152701
-9.04666e-05
-0.000304968
-0.000494579
-0.000662704
-0.000812367
-0.000946202
-0.00106644
-0.00117489
-0.00127299
-0.00136176
-0.00144184
-0.00151352
-0.00157676
-0.0016312
-0.00167621
-0.00171092
-0.00173423
-0.0017449
-0.00174156
-0.00172274
-0.00168698
-0.00163281
-0.00155883
-0.00146377
-0.00134653
-0.00120626
-0.00104235
-0.000854563
-0.000643005
-0.000408209
-0.000151156
0.000126698
0.000423402
0.000736509
0.00106307
0.00139968
0.00174247
0.00208719
0.00242927
0.00276385
0.00308595
0.0033905
0.0036725
0.00392711
0.00414978
0.00433639
0.00448332
0.0045876
0.00464697
0.00465997
0.00462599
0.00454527
0.00441892
0.00424887
0.00403784
0.00378923
0.00350703
0.00319572
0.00286012
0.00250527
0.00213629
0.00175827
0.00137616
0.000995007
0.00061959
0.000249776
-0.000122843
-0.000446732
0.00234992
0.00185516
0.00134834
0.000923756
0.00055468
0.00022812
-6.01438e-05
-0.00031424
-0.000538629
-0.000737489
-0.000914574
-0.00107321
-0.00121627
-0.0013462
-0.00146497
-0.0015741
-0.00167471
-0.00176746
-0.00185266
-0.00193022
-0.00199973
-0.00206046
-0.00211144
-0.00215145
-0.00217907
-0.00219275
-0.00219086
-0.00217169
-0.00213356
-0.00207484
-0.00199401
-0.00188972
-0.00176087
-0.00160662
-0.00142646
-0.0012203
-0.000988451
-0.000731715
-0.000451396
-0.00014933
0.000172106
0.00050999
0.000860873
0.0012208
0.00158537
0.00194976
0.00230887
0.00265732
0.00298965
0.00330037
0.00358412
0.0038358
0.00405068
0.00422455
0.00435386
0.00443577
0.00446828
0.00445031
0.00438167
0.00426317
0.0040965
0.00388425
0.00362978
0.00333719
0.00301111
0.00265663
0.00227916
0.00188423
0.00147739
0.00106412
0.000650018
0.000240432
-0.000164697
-0.000574559
-0.000931795
0.00218962
0.00167124
0.00114084
0.000697263
0.000312249
-2.80901e-05
-0.000328426
-0.000593324
-0.000827676
-0.00103605
-0.00122253
-0.00139074
-0.00154378
-0.00168429
-0.00181438
-0.00193568
-0.00204934
-0.00215607
-0.00225616
-0.00234948
-0.00243555
-0.00251356
-0.00258239
-0.00264069
-0.00268687
-0.00271921
-0.00273584
-0.00273484
-0.0027143
-0.00267233
-0.00260714
-0.00251713
-0.0024009
-0.00225735
-0.00208571
-0.00188561
-0.00165715
-0.00140091
-0.001118
-0.000810122
-0.000479545
-0.000129144
0.000237619
0.000616716
0.00100359
0.00139321
0.00178016
0.0021587
0.00252292
0.00286681
0.00318444
0.00347007
0.00371832
0.0039243
0.00408376
0.00419321
0.00425002
0.00425253
0.00420009
0.00409307
0.0039329
0.00372197
0.00346361
0.00316196
0.00282186
0.0024487
0.00204826
0.00162657
0.0011897
0.000743718
0.000294849
-0.000150896
-0.000593475
-0.00104289
-0.00143556
0.00196467
0.0014241
0.000871518
0.000410039
9.91436e-06
-0.000343602
-0.000655633
-0.000931172
-0.00117553
-0.00139366
-0.00158996
-0.00176833
-0.00193212
-0.00208411
-0.00222655
-0.00236116
-0.00248915
-0.00261124
-0.00272768
-0.00283831
-0.00294256
-0.00303952
-0.00312794
-0.00320631
-0.00327287
-0.00332569
-0.0033627
-0.00338173
-0.00338061
-0.00335718
-0.00330938
-0.0032353
-0.00313325
-0.00300182
-0.00283995
-0.00264698
-0.00242273
-0.00216752
-0.00188226
-0.00156844
-0.00122822
-0.000864372
-0.000480348
-8.02272e-05
0.000331304
0.000749004
0.00116715
0.00157963
0.00198003
0.00236181
0.0027184
0.00304337
0.0033306
0.00357442
0.0037698
0.00391249
0.00399912
0.00402735
0.00399594
0.00390478
0.00375492
0.00354853
0.00328883
0.00298002
0.00262713
0.00223585
0.00181241
0.00136335
0.000895375
0.000415174
-7.02939e-05
-0.000554296
-0.00103665
-0.00152821
-0.00195872
0.00167145
0.0011102
0.000536924
5.86825e-05
-0.000355678
-0.000721736
-0.00104505
-0.00133105
-0.00158545
-0.00181355
-0.0020201
-0.00220924
-0.00238452
-0.00254891
-0.00270477
-0.0028539
-0.00299754
-0.00313642
-0.00327076
-0.00340034
-0.00352451
-0.00364224
-0.00375215
-0.00385256
-0.00394152
-0.00401691
-0.0040764
-0.00411759
-0.00413803
-0.00413527
-0.00410694
-0.00405082
-0.00396489
-0.00384741
-0.00369697
-0.0035126
-0.00329379
-0.00304058
-0.00275359
-0.00243411
-0.00208409
-0.00170619
-0.00130381
-0.000881039
-0.000442668
5.86325e-06
0.000458538
0.000908845
0.00134989
0.00177453
0.0021755
0.00254563
0.00287796
0.00316597
0.00340372
0.00358607
0.00370881
0.00376881
0.0037641
0.00369398
0.00355905
0.00336115
0.00310336
0.0027899
0.00242596
0.00201757
0.00157144
0.00109468
0.000594662
7.88096e-05
-0.00044512
-0.000969585
-0.00149423
-0.00203081
-0.00250188
0.00130659
0.000726253
0.000133845
-0.000359962
-0.000787646
-0.00116558
-0.00149975
-0.00179601
-0.00206046
-0.00229878
-0.00251599
-0.0027165
-0.00290406
-0.00308179
-0.00325217
-0.00341706
-0.00357773
-0.00373491
-0.00388879
-0.00403907
-0.00418503
-0.00432549
-0.00445895
-0.00458355
-0.00469716
-0.00479741
-0.00488176
-0.00494752
-0.00499197
-0.00501234
-0.00500594
-0.0049702
-0.00490274
-0.00480145
-0.00466455
-0.0044907
-0.00427904
-0.00402924
-0.00374162
-0.00341717
-0.00305763
-0.00266547
-0.00224397
-0.00179722
-0.00133006
-0.000848109
-0.000357658
0.000134387
0.000620625
0.00109328
0.00154438
0.0019659
0.00234998
0.00268913
0.00297639
0.00320562
0.00337161
0.00347028
0.00349883
0.00345584
0.00334132
0.0031567
0.00290484
0.00258992
0.0022173
0.00179333
0.00132522
0.000820717
0.000287917
-0.000264936
-0.000829198
-0.00139643
-0.00196608
-0.00255086
-0.00306551
0.000867019
0.000269251
-0.000340662
-0.00084879
-0.00128885
-0.00167796
-0.00202255
-0.00232886
-0.00260338
-0.00285213
-0.00308043
-0.00329293
-0.00349358
-0.00368562
-0.00387165
-0.00405358
-0.00423272
-0.00440978
-0.00458491
-0.00475775
-0.00492747
-0.00509278
-0.00525201
-0.00540314
-0.00554383
-0.0056715
-0.00578334
-0.00587639
-0.00594762
-0.00599393
-0.00601229
-0.00599974
-0.00595352
-0.00587112
-0.00575034
-0.00558943
-0.00538709
-0.00514263
-0.00485597
-0.00452776
-0.00415944
-0.00375326
-0.00331232
-0.00284062
-0.00234304
-0.00182533
-0.00129401
-0.000756391
-0.000220373
0.000305622
0.000812837
0.00129236
0.00173534
0.00213318
0.00247782
0.00276194
0.00297918
0.00312439
0.00319374
0.00318495
0.00309728
0.00293167
0.00269064
0.00237826
0.002
0.00156256
0.00107365
0.000541713
-2.43677e-05
-0.000615448
-0.0012219
-0.00183429
-0.00245182
-0.00308826
-0.00364984
0.000349916
-0.000263536
-0.000889255
-0.00141041
-0.00186186
-0.00226144
-0.00261599
-0.00293213
-0.00321674
-0.00347616
-0.00371599
-0.0039411
-0.00415564
-0.00436299
-0.00456583
-0.00476613
-0.00496523
-0.0051638
-0.00536198
-0.00555932
-0.00575489
-0.00594728
-0.00613466
-0.00631484
-0.00648527
-0.00664312
-0.00678534
-0.00690868
-0.00700977
-0.00708518
-0.0071315
-0.00714537
-0.00712361
-0.00706326
-0.00696168
-0.00681662
-0.00662634
-0.00638968
-0.00610613
-0.00577592
-0.00540012
-0.00498067
-0.00452045
-0.00402331
-0.00349408
-0.00293857
-0.00236356
-0.00177668
-0.00118634
-0.00060163
-3.21083e-05
0.000512357
0.00102182
0.00148652
0.00189711
0.00224495
0.00252239
0.00272298
0.00284173
0.00287526
0.00282198
0.00268213
0.00245779
0.00215284
0.0017728
0.00132468
0.00081671
0.000258058
-0.000341515
-0.000971887
-0.00162234
-0.00228234
-0.00295082
-0.00364266
-0.00425482
-0.000247199
-0.000874521
-0.00151428
-0.00204713
-0.00250896
-0.00291828
-0.00328232
-0.00360807
-0.00390278
-0.0041731
-0.00442489
-0.00466327
-0.00489252
-0.00511618
-0.00533701
-0.00555704
-0.00577761
-0.0059994
-0.00622248
-0.00644634
-0.00666995
-0.00689177
-0.00710982
-0.00732172
-0.00752472
-0.00771575
-0.00789148
-0.00804838
-0.00818272
-0.00829074
-0.0083686
-0.00841253
-0.00841888
-0.00838422
-0.0083054
-0.00817967
-0.00800474
-0.00777893
-0.00750123
-0.00717138
-0.00679
-0.00635865
-0.00587988
-0.00535732
-0.00479569
-0.00420082
-0.00357962
-0.00294005
-0.00229101
-0.00164223
-0.0010041
-0.000387512
0.000196443
0.000736691
0.00122249
0.00164372
0.00199123
0.00225709
0.00243492
0.00252007
0.00250986
0.00240368
0.00220299
0.00191137
0.00153431
0.00107908
0.000554431
-2.97038e-05
-0.000662624
-0.00133314
-0.00202932
-0.00273942
-0.00346207
-0.00421333
-0.00488003
-0.000926471
-0.00156578
-0.00221776
-0.00276093
-0.00323211
-0.00365042
-0.00402347
-0.00435861
-0.00466342
-0.00494487
-0.00520907
-0.00546134
-0.00570613
-0.00594712
-0.00618713
-0.00642825
-0.00667184
-0.00691857
-0.00716845
-0.00742091
-0.00767481
-0.0079285
-0.00817985
-0.00842629
-0.00866486
-0.00889225
-0.00910486
-0.00929883
-0.00947012
-0.00961456
-0.0097279
-0.00980592
-0.00984448
-0.00983962
-0.00978766
-0.00968525
-0.00952954
-0.00931825
-0.00904977
-0.00872329
-0.0083389
-0.00789766
-0.00740173
-0.00685442
-0.00626024
-0.00562495
-0.00495555
-0.00426024
-0.00354838
-0.00283032
-0.00211731
-0.00142126
-0.000754509
-0.000129536
0.00044137
0.000946452
0.00137485
0.00171694
0.0019647
0.00211198
0.0021548
0.00209143
0.00192258
0.00165132
0.00128302
0.000825144
0.000286956
-0.000320836
-0.000986526
-0.00169775
-0.00244126
-0.00320397
-0.00398411
-0.00479906
-0.00552457
-0.00168967
-0.00233904
-0.00300136
-0.00355344
-0.00403293
-0.00445946
-0.00484102
-0.00518531
-0.00550024
-0.00579303
-0.00607006
-0.00633684
-0.006598
-0.0068573
-0.00711767
-0.00738125
-0.00764941
-0.00792279
-0.0082014
-0.00848457
-0.00877108
-0.00905916
-0.00934652
-0.00963042
-0.00990769
-0.0101748
-0.0104278
-0.0106626
-0.0108748
-0.0110598
-0.0112128
-0.0113294
-0.0114046
-0.0114342
-0.0114136
-0.0113391
-0.0112071
-0.0110146
-0.0107594
-0.01044
-0.0100558
-0.00960744
-0.00909647
-0.00852578
-0.00789959
-0.00722348
-0.00650445
-0.00575087
-0.00497246
-0.0041802
-0.00338616
-0.0026033
-0.00184527
-0.00112602
-0.000459545
0.000140587
0.000661598
0.00109194
0.00142168
0.00164291
0.00175003
0.00174
0.00161248
0.00136988
0.0010173
0.000562275
1.4549e-05
-0.000614377
-0.00131173
-0.00206389
-0.00285614
-0.0036739
-0.00451499
-0.00539813
-0.00618701
-0.00253819
-0.00319562
-0.00386637
-0.00442594
-0.00491265
-0.00534664
-0.00573622
-0.00608941
-0.00641442
-0.00671875
-0.00700901
-0.0072909
-0.00756919
-0.00784778
-0.00812966
-0.00841703
-0.00871127
-0.00901303
-0.00932226
-0.00963825
-0.00995969
-0.0102847
-0.0106108
-0.0109352
-0.0112544
-0.0115646
-0.0118618
-0.0121413
-0.0123985
-0.0126284
-0.0128258
-0.0129856
-0.0131025
-0.0131714
-0.0131873
-0.0131458
-0.0130424
-0.0128736
-0.0126364
-0.0123285
-0.0119486
-0.0114966
-0.0109735
-0.0103816
-0.00972476
-0.00900819
-0.0082388
-0.00742506
-0.00657697
-0.00570603
-0.00482511
-0.00394823
-0.00309036
-0.00226706
-0.0014941
-0.000787057
-0.000160839
0.000370812
0.000795795
0.0011041
0.00128823
0.00134349
0.00126826
0.00106403
0.000735395
0.000289885
-0.000262374
-0.00090909
-0.00163638
-0.00242925
-0.00327139
-0.00414657
-0.0050521
-0.00600818
-0.00686525
-0.003473
-0.00413648
-0.00481372
-0.00537933
-0.00587219
-0.00631284
-0.00670991
-0.00707172
-0.00740677
-0.00772281
-0.00802666
-0.00832419
-0.00862035
-0.00891911
-0.00922359
-0.00953602
-0.00985779
-0.0101896
-0.0105313
-0.0108822
-0.0112408
-0.0116053
-0.0119729
-0.0123407
-0.0127051
-0.0130621
-0.0134071
-0.0137355
-0.0140421
-0.0143214
-0.014568
-0.014776
-0.0149397
-0.0150534
-0.0151113
-0.0151083
-0.0150392
-0.0148997
-0.0146858
-0.0143944
-0.0140237
-0.0135724
-0.0130409
-0.0124308
-0.0117455
-0.0109897
-0.0101701
-0.00929507
-0.00837486
-0.00742138
-0.00644821
-0.00547043
-0.00450432
-0.00356708
-0.00267643
-0.00185009
-0.00110532
-0.000458315
7.63293e-05
0.000486184
0.000761484
0.000895554
0.000885115
0.00073046
0.000435465
7.43581e-06
-0.000543209
-0.00120342
-0.00195817
-0.002791
-0.00368386
-0.00461866
-0.00559218
-0.0066261
-0.00755647
-0.00449464
-0.00516214
-0.00584392
-0.00641411
-0.00691202
-0.00735854
-0.00776256
-0.0081327
-0.0084777
-0.00880554
-0.00912327
-0.00943692
-0.00975157
-0.0100713
-0.0103994
-0.010738
-0.0110887
-0.0114521
-0.011828
-0.0122158
-0.0126138
-0.0130202
-0.0134321
-0.0138463
-0.0142591
-0.0146663
-0.0150631
-0.0154444
-0.0158047
-0.0161383
-0.016439
-0.0167005
-0.0169165
-0.0170807
-0.0171865
-0.017228
-0.0171993
-0.017095
-0.0169104
-0.0166416
-0.0162854
-0.01584
-0.0153047
-0.0146805
-0.0139698
-0.013177
-0.0123082
-0.0113718
-0.0103779
-0.00933883
-0.00826874
-0.00718367
-0.00610125
-0.00504035
-0.00402068
-0.0030623
-0.002185
-0.00140773
-0.000747885
-0.000220696
0.000161422
0.000389393
0.000457909
0.000365695
0.000115599
-0.000285523
-0.000827115
-0.00149544
-0.00227431
-0.00314569
-0.00408965
-0.00508609
-0.00613108
-0.00724793
-0.00825695
-0.0056032
-0.0062727
-0.00695708
-0.00753041
-0.00803229
-0.00848385
-0.00889426
-0.00927238
-0.00962717
-0.00996686
-0.0102987
-0.0106288
-0.0109625
-0.0113039
-0.0116564
-0.0120223
-0.0124031
-0.0127994
-0.0132112
-0.0136376
-0.0140772
-0.0145277
-0.0149864
-0.01545
-0.0159144
-0.0163753
-0.0168276
-0.017266
-0.0176845
-0.018077
-0.0184369
-0.0187573
-0.0190313
-0.0192518
-0.0194118
-0.0195042
-0.0195223
-0.0194599
-0.0193112
-0.0190713
-0.018736
-0.0183024
-0.0177689
-0.0171354
-0.0164036
-0.0155769
-0.0146612
-0.0136642
-0.0125962
-0.0114694
-0.0102986
-0.00910067
-0.00789442
-0.00670047
-0.00554058
-0.00443725
-0.00341303
-0.00248985
-0.00168828
-0.00102672
-0.000520681
-0.000182087
-1.87369e-05
-3.38964e-05
-0.000226121
-0.000589301
-0.00111295
-0.00178276
-0.00258138
-0.00348916
-0.0044841
-0.00554387
-0.00666375
-0.00786873
-0.00896196
-0.00679834
-0.00746785
-0.00815292
-0.00872796
-0.00923271
-0.0096885
-0.0101047
-0.0104904
-0.0108548
-0.0112062
-0.0115522
-0.011899
-0.0122521
-0.0126157
-0.0129933
-0.0133872
-0.0137991
-0.0142296
-0.0146786
-0.0151454
-0.0156283
-0.0161252
-0.0166331
-0.0171487
-0.0176677
-0.0181856
-0.0186971
-0.0191965
-0.0196776
-0.0201338
-0.0205579
-0.0209427
-0.0212805
-0.0215635
-0.0217839
-0.0219338
-0.0220056
-0.0219921
-0.0218864
-0.0216825
-0.0213751
-0.02096
-0.0204347
-0.0197978
-0.0190499
-0.0181938
-0.0172343
-0.016179
-0.0150375
-0.0138222
-0.012548
-0.0112324
-0.00989569
-0.00855991
-0.00724898
-0.0059879
-0.00480216
-0.00371694
-0.00275628
-0.00194218
-0.00129371
-0.000826164
-0.000550338
-0.000471993
-0.000591539
-0.00090399
-0.00139921
-0.00206247
-0.00287533
-0.00381643
-0.00486158
-0.005986
-0.00718404
-0.00848241
-0.00966563
-0.00807926
-0.00874684
-0.00943074
-0.0100061
-0.0105127
-0.0109718
-0.0113932
-0.011786
-0.0121596
-0.0125226
-0.0128827
-0.0132463
-0.0136189
-0.014005
-0.0144081
-0.0148307
-0.0152744
-0.01574
-0.0162274
-0.0167358
-0.0172637
-0.0178087
-0.018368
-0.018938
-0.0195144
-0.0200924
-0.0206666
-0.0212309
-0.0217787
-0.0223031
-0.0227965
-0.023251
-0.0236583
-0.0240099
-0.0242972
-0.0245114
-0.0246441
-0.0246867
-0.0246315
-0.0244711
-0.0241991
-0.0238101
-0.0233
-0.0226665
-0.0219088
-0.0210285
-0.0200298
-0.0189196
-0.0177067
-0.0164032
-0.0150242
-0.0135877
-0.0121149
-0.0106294
-0.00915727
-0.00772606
-0.00636429