/*--------------------------------*- C++ -*----------------------------------*\
  =========                 |
  \\      /  F ield         | OpenFOAM: The Open Source CFD Toolbox
   \\    /   O peration     | Website:  https://openfoam.org
    \\  /    A nd           | Version:  12
     \\/     M anipulation  |
\*---------------------------------------------------------------------------*/
FoamFile
{
    format      ascii;
    class       volScalarField;
    location    "6.5";
    object      k;
}
// * * * * * * * * * * * * * * * * * * * * * * * * * * * * * * * * * * * * * //

dimensions      [0 2 -2 0 0 0 0];

internalField   nonuniform List<scalar> 
5625
(
2.22045e-16
3.93749e-16
8.31398e-16
1.35467e-15
1.94403e-15
2.58505e-15
3.26727e-15
3.9826e-15
4.72442e-15
5.48698e-15
6.26514e-15
7.05415e-15
7.8496e-15
8.64729e-15
9.44325e-15
1.02337e-14
1.10149e-14
1.17834e-14
1.25359e-14
1.32691e-14
1.398e-14
1.46656e-14
1.53231e-14
1.59499e-14
1.65435e-14
1.71016e-14
1.7622e-14
1.81028e-14
1.8542e-14
1.89381e-14
1.92895e-14
1.9595e-14
1.98535e-14
2.00641e-14
2.02259e-14
2.03385e-14
2.04014e-14
2.04147e-14
2.03781e-14
2.02921e-14
2.01569e-14
1.9973e-14
1.97414e-14
1.94629e-14
1.91386e-14
1.87699e-14
1.8358e-14
1.79048e-14
1.74119e-14
1.68813e-14
1.6315e-14
1.57153e-14
1.50845e-14
1.44251e-14
1.37397e-14
1.30311e-14
1.23021e-14
1.15558e-14
1.07952e-14
1.00236e-14
9.24425e-15
8.46075e-15
7.67668e-15
6.89585e-15
6.12222e-15
5.36001e-15
4.61373e-15
3.8883e-15
3.18922e-15
2.52285e-15
1.89697e-15
1.32173e-15
8.11121e-16
3.84168e-16
2.22045e-16
3.51335e-16
3.12586e-15
7.12137e-15
1.18972e-14
1.72459e-14
2.30427e-14
2.91995e-14
3.5648e-14
4.23307e-14
4.91973e-14
5.62021e-14
6.33033e-14
7.04611e-14
7.76384e-14
8.47994e-14
9.191e-14
9.89375e-14
1.0585e-13
1.12619e-13
1.19214e-13
1.25607e-13
1.31773e-13
1.37687e-13
1.43324e-13
1.48663e-13
1.53682e-13
1.58363e-13
1.62686e-13
1.66636e-13
1.70198e-13
1.73358e-13
1.76106e-13
1.7843e-13
1.80324e-13
1.81779e-13
1.82791e-13
1.83358e-13
1.83476e-13
1.83148e-13
1.82373e-13
1.81157e-13
1.79504e-13
1.77421e-13
1.74916e-13
1.71999e-13
1.68683e-13
1.64979e-13
1.60903e-13
1.5647e-13
1.51698e-13
1.46606e-13
1.41212e-13
1.35539e-13
1.29608e-13
1.23444e-13
1.17071e-13
1.10515e-13
1.03802e-13
9.69606e-14
9.00197e-14
8.30094e-14
7.59609e-14
6.89066e-14
6.18806e-14
5.49183e-14
4.80573e-14
4.13378e-14
3.48031e-14
2.85014e-14
2.24877e-14
1.68282e-14
1.16077e-14
6.94752e-15
3.04938e-15
3.4273e-16
7.80741e-16
7.00181e-15
1.60565e-14
2.69553e-14
3.92116e-14
5.25246e-14
6.66821e-14
8.15196e-14
9.6901e-14
1.12708e-13
1.28835e-13
1.45183e-13
1.61662e-13
1.78185e-13
1.9467e-13
2.11039e-13
2.27216e-13
2.43129e-13
2.58709e-13
2.73889e-13
2.88605e-13
3.02798e-13
3.16408e-13
3.29383e-13
3.4167e-13
3.53222e-13
3.63993e-13
3.73943e-13
3.83034e-13
3.9123e-13
3.98503e-13
4.04826e-13
4.10174e-13
4.1453e-13
4.17878e-13
4.20207e-13
4.2151e-13
4.21782e-13
4.21025e-13
4.19242e-13
4.16442e-13
4.12637e-13
4.07841e-13
4.02076e-13
3.95364e-13
3.8773e-13
3.79206e-13
3.69825e-13
3.59622e-13
3.48639e-13
3.36918e-13
3.24504e-13
3.11447e-13
2.97798e-13
2.8361e-13
2.68942e-13
2.53851e-13
2.384e-13
2.22653e-13
2.06677e-13
1.9054e-13
1.74315e-13
1.58077e-13
1.41903e-13
1.25876e-13
1.10083e-13
9.46162e-14
7.95773e-14
6.50792e-14
5.12529e-14
3.82567e-14
2.6296e-14
1.56624e-14
6.82957e-15
7.61505e-16
1.29151e-15
1.16015e-14
2.66606e-14
4.48498e-14
6.53618e-14
8.76887e-14
1.11467e-13
1.36412e-13
1.62289e-13
1.88894e-13
2.16046e-13
2.43577e-13
2.71332e-13
2.99164e-13
3.26933e-13
3.54508e-13
3.8176e-13
4.08568e-13
4.34815e-13
4.60387e-13
4.85179e-13
5.09088e-13
5.32016e-13
5.53873e-13
5.74571e-13
5.9403e-13
6.12173e-13
6.28932e-13
6.44243e-13
6.58049e-13
6.70298e-13
6.80945e-13
6.89951e-13
6.97286e-13
7.02922e-13
7.06841e-13
7.09031e-13
7.09486e-13
7.08207e-13
7.052e-13
7.00479e-13
6.94065e-13
6.85984e-13
6.76269e-13
6.64958e-13
6.52097e-13
6.37735e-13
6.21929e-13
6.04741e-13
5.86237e-13
5.66491e-13
5.45579e-13
5.23582e-13
5.00589e-13
4.7669e-13
4.5198e-13
4.26561e-13
4.00534e-13
3.7401e-13
3.471e-13
3.19921e-13
2.92595e-13
2.65249e-13
2.38014e-13
2.11031e-13
1.84446e-13
1.5842e-13
1.33125e-13
1.08757e-13
8.55416e-14
6.3752e-14
4.37401e-14
2.59987e-14
1.13128e-14
1.25932e-15
1.86063e-15
1.6724e-14
3.84677e-14
6.47792e-14
9.45024e-14
1.26904e-13
1.61453e-13
1.97734e-13
2.35397e-13
2.74142e-13
3.137e-13
3.53822e-13
3.94281e-13
4.34859e-13
4.75352e-13
5.15565e-13
5.5531e-13
5.94409e-13
6.32691e-13
6.6999e-13
7.06152e-13
7.41025e-13
7.74468e-13
8.06348e-13
8.36537e-13
8.64917e-13
8.91378e-13
9.15819e-13
9.38148e-13
9.58279e-13
9.76139e-13
9.91662e-13
1.00479e-12
1.01548e-12
1.02369e-12
1.0294e-12
1.03259e-12
1.03324e-12
1.03136e-12
1.02697e-12
1.02007e-12
1.01071e-12
9.98911e-13
9.84731e-13
9.68225e-13
9.49457e-13
9.28501e-13
9.0544e-13
8.80364e-13
8.5337e-13
8.24564e-13
7.94058e-13
7.61973e-13
7.28435e-13
6.93577e-13
6.57539e-13
6.20467e-13
5.82513e-13
5.43836e-13
5.04599e-13
4.64975e-13
4.25141e-13
3.85283e-13
3.45596e-13
3.06285e-13
2.67569e-13
2.29682e-13
1.92882e-13
1.57456e-13
1.23739e-13
9.21313e-14
6.31463e-14
3.74947e-14
1.62999e-14
1.81338e-15
2.47373e-15
2.2241e-14
5.11823e-14
8.62399e-14
1.25887e-13
1.69151e-13
2.15326e-13
2.63852e-13
3.14262e-13
3.66147e-13
4.19143e-13
4.72915e-13
5.27153e-13
5.81563e-13
6.35868e-13
6.89804e-13
7.4312e-13
7.95573e-13
8.46931e-13
8.96975e-13
9.45492e-13
9.92282e-13
1.03715e-12
1.07993e-12
1.12043e-12
1.1585e-12
1.194e-12
1.22679e-12
1.25674e-12
1.28374e-12
1.3077e-12
1.32851e-12
1.34611e-12
1.36044e-12
1.37144e-12
1.37908e-12
1.38334e-12
1.38419e-12
1.38166e-12
1.37574e-12
1.36647e-12
1.35388e-12
1.33803e-12
1.31899e-12
1.29682e-12
1.27162e-12
1.24349e-12
1.21253e-12
1.17887e-12
1.14264e-12
1.10398e-12
1.06305e-12
1.01999e-12
9.74993e-13
9.28226e-13
8.79879e-13
8.3015e-13
7.79242e-13
7.2737e-13
6.74755e-13
6.21627e-13
5.68229e-13
5.14809e-13
4.61633e-13
4.08977e-13
3.57136e-13
3.0643e-13
2.57206e-13
2.09852e-13
1.64819e-13
1.22643e-13
8.40068e-14
4.98522e-14
2.16616e-14
2.40919e-15
3.12024e-15
2.8058e-14
6.45865e-14
1.08863e-13
1.58972e-13
2.13692e-13
2.72133e-13
3.33587e-13
3.97461e-13
4.63236e-13
5.30446e-13
5.98662e-13
6.67488e-13
7.36549e-13
8.05489e-13
8.73972e-13
9.41674e-13
1.00829e-12
1.07351e-12
1.13708e-12
1.1987e-12
1.25813e-12
1.31512e-12
1.36945e-12
1.42089e-12
1.46925e-12
1.51433e-12
1.55597e-12
1.594e-12
1.62828e-12
1.65869e-12
1.6851e-12
1.70744e-12
1.72561e-12
1.73955e-12
1.74923e-12
1.7546e-12
1.75565e-12
1.75239e-12
1.74484e-12
1.73303e-12
1.717e-12
1.69684e-12
1.67261e-12
1.64442e-12
1.61238e-12
1.57661e-12
1.53726e-12
1.49449e-12
1.44844e-12
1.39932e-12
1.34731e-12
1.29262e-12
1.23546e-12
1.17606e-12
1.11466e-12
1.05151e-12
9.86876e-13
9.21025e-13
8.54243e-13
7.86823e-13
7.19072e-13
6.51311e-13
5.83877e-13
5.17125e-13
4.51432e-13
3.87203e-13
3.24883e-13
2.64966e-13
2.08021e-13
1.54727e-13
1.05942e-13
6.28467e-14
2.73003e-14
3.03584e-15
3.79171e-15
3.40991e-14
7.85062e-14
1.32355e-13
1.93327e-13
2.59942e-13
3.31122e-13
4.06008e-13
4.83875e-13
5.64091e-13
6.46084e-13
7.2933e-13
8.13341e-13
8.97656e-13
9.81839e-13
1.06547e-12
1.14817e-12
1.22954e-12
1.30922e-12
1.38687e-12
1.46215e-12
1.53476e-12
1.60439e-12
1.67076e-12
1.7336e-12
1.79267e-12
1.84773e-12
1.89858e-12
1.94502e-12
1.98688e-12
2.02399e-12
2.05623e-12
2.08348e-12
2.10563e-12
2.12262e-12
2.13439e-12
2.14089e-12
2.14212e-12
2.13809e-12
2.1288e-12
2.1143e-12
2.09467e-12
2.06997e-12
2.04032e-12
2.00582e-12
1.96662e-12
1.92288e-12
1.87476e-12
1.82245e-12
1.76617e-12
1.70613e-12
1.64256e-12
1.57573e-12
1.50589e-12
1.43332e-12
1.35832e-12
1.2812e-12
1.20227e-12
1.12188e-12
1.04036e-12
9.58074e-13
8.75407e-13
7.92748e-13
7.1051e-13
6.29129e-13
5.49067e-13
4.7082e-13
3.94931e-13
3.22003e-13
2.52726e-13
1.87925e-13
1.28639e-13
7.62935e-14
3.31356e-14
3.6844e-15
4.48105e-15
4.03008e-14
9.27948e-14
1.56468e-13
2.28587e-13
3.07411e-13
3.91666e-13
4.80338e-13
5.72572e-13
6.67617e-13
7.64793e-13
8.63479e-13
9.63093e-13
1.06308e-12
1.16294e-12
1.26215e-12
1.36025e-12
1.4568e-12
1.55134e-12
1.64348e-12
1.73281e-12
1.81896e-12
1.90158e-12
1.98032e-12
2.05488e-12
2.12495e-12
2.19027e-12
2.25058e-12
2.30565e-12
2.35527e-12
2.39926e-12
2.43745e-12
2.46972e-12
2.49593e-12
2.51602e-12
2.5299e-12
2.53753e-12
2.53891e-12
2.53403e-12
2.52291e-12
2.50562e-12
2.48223e-12
2.45284e-12
2.41756e-12
2.37655e-12
2.32995e-12
2.27797e-12
2.22081e-12
2.15868e-12
2.09185e-12
2.02056e-12
1.9451e-12
1.86577e-12
1.78289e-12
1.69679e-12
1.60782e-12
1.51634e-12
1.42274e-12
1.32742e-12
1.23077e-12
1.13325e-12
1.03529e-12
9.3737e-13
8.39971e-13
7.43615e-13
6.4885e-13
5.56266e-13
4.66503e-13
3.80276e-13
2.98399e-13
2.21842e-13
1.51827e-13
9.00318e-14
3.90978e-14
4.34707e-15
5.18212e-15
4.66077e-14
1.07325e-13
1.80988e-13
2.6444e-13
3.55675e-13
4.53222e-13
5.5591e-13
6.6275e-13
7.72871e-13
8.85487e-13
9.99873e-13
1.11535e-12
1.23129e-12
1.34708e-12
1.46214e-12
1.57592e-12
1.68789e-12
1.79755e-12
1.90442e-12
2.00803e-12
2.10796e-12
2.20377e-12
2.29509e-12
2.38154e-12
2.46279e-12
2.53851e-12
2.60841e-12
2.67222e-12
2.7297e-12
2.78064e-12
2.82485e-12
2.86218e-12
2.89248e-12
2.91566e-12
2.93164e-12
2.94037e-12
2.94183e-12
2.93604e-12
2.92302e-12
2.90283e-12
2.87557e-12
2.84135e-12
2.80031e-12
2.75262e-12
2.69847e-12
2.63807e-12
2.57168e-12
2.49954e-12
2.42194e-12
2.3392e-12
2.25164e-12
2.1596e-12
2.06346e-12
1.9636e-12
1.86043e-12
1.75438e-12
1.64588e-12
1.53541e-12
1.42343e-12
1.31046e-12
1.19701e-12
1.08362e-12
9.70873e-13
8.5936e-13
7.49719e-13
6.42633e-13
5.38842e-13
4.3917e-13
3.44557e-13
2.56119e-13
1.75263e-13
1.03917e-13
4.51238e-14
5.01687e-15
5.88949e-15
5.29713e-14
1.21985e-13
2.05725e-13
3.0061e-13
4.04362e-13
5.15314e-13
6.32137e-13
7.53705e-13
8.79028e-13
1.00721e-12
1.13743e-12
1.26891e-12
1.40092e-12
1.53277e-12
1.6638e-12
1.79338e-12
1.9209e-12
2.0458e-12
2.1675e-12
2.2855e-12
2.39928e-12
2.50838e-12
2.61235e-12
2.71076e-12
2.80323e-12
2.88939e-12
2.96891e-12
3.04148e-12
3.10684e-12
3.16472e-12
3.21494e-12
3.2573e-12
3.29165e-12
3.31788e-12
3.3359e-12
3.34567e-12
3.34715e-12
3.34037e-12
3.32535e-12
3.30218e-12
3.27095e-12
3.2318e-12
3.1849e-12
3.13043e-12
3.06861e-12
2.9997e-12
2.92396e-12
2.8417e-12
2.75325e-12
2.65895e-12
2.55918e-12
2.45433e-12
2.34484e-12
2.23113e-12
2.11368e-12
1.99297e-12
1.86951e-12
1.74382e-12
1.61645e-12
1.48797e-12
1.35897e-12
1.23008e-12
1.10195e-12
9.75244e-13
8.50701e-13
7.2909e-13
6.11252e-13
4.98121e-13
3.90758e-13
2.90428e-13
1.9872e-13
1.17815e-13
5.11558e-14
5.68733e-15
6.59837e-15
5.93481e-14
1.36676e-13
2.30512e-13
3.36849e-13
4.5314e-13
5.77519e-13
7.08496e-13
8.44811e-13
9.85354e-13
1.12912e-12
1.27518e-12
1.42267e-12
1.57077e-12
1.71869e-12
1.86569e-12
2.01107e-12
2.15414e-12
2.29425e-12
2.43078e-12
2.56313e-12
2.69075e-12
2.8131e-12
2.92967e-12
3.03999e-12
3.14363e-12
3.24017e-12
3.32925e-12
3.41051e-12
3.48365e-12
3.54841e-12
3.60454e-12
3.65184e-12
3.69015e-12
3.71934e-12
3.73931e-12
3.75002e-12
3.75143e-12
3.74357e-12
3.72647e-12
3.70022e-12
3.66495e-12
3.6208e-12
3.56797e-12
3.50666e-12
3.43712e-12
3.35964e-12
3.27453e-12
3.18212e-12
3.08279e-12
2.97693e-12
2.86495e-12
2.74732e-12
2.62449e-12
2.49697e-12
2.36529e-12
2.22997e-12
2.0916e-12
1.95076e-12
1.80808e-12
1.66418e-12
1.51973e-12
1.37543e-12
1.23201e-12
1.09022e-12
9.50886e-13
8.1486e-13
6.83083e-13
5.56597e-13
4.36587e-13
3.24461e-13
2.21988e-13
1.31602e-13
5.71393e-14
6.35242e-15
7.30446e-15
6.56999e-14
1.51307e-13
2.55198e-13
3.72941e-13
5.01715e-13
6.39459e-13
7.84523e-13
9.35514e-13
1.0912e-12
1.25047e-12
1.41228e-12
1.57569e-12
1.73977e-12
1.90366e-12
2.06653e-12
2.22759e-12
2.38608e-12
2.54128e-12
2.6925e-12
2.83908e-12
2.98039e-12
3.11584e-12
3.24487e-12
3.36695e-12
3.48161e-12
3.58837e-12
3.68684e-12
3.77663e-12
3.85741e-12
3.92887e-12
3.99076e-12
4.04285e-12
4.08497e-12
4.11698e-12
4.13877e-12
4.15028e-12
4.1515e-12
4.14246e-12
4.12318e-12
4.09378e-12
4.0544e-12
4.0052e-12
3.94639e-12
3.87822e-12
3.80096e-12
3.71492e-12
3.62047e-12
3.51796e-12
3.40781e-12
3.29046e-12
3.16638e-12
3.03607e-12
2.90004e-12
2.75886e-12
2.61309e-12
2.46335e-12
2.31026e-12
2.15447e-12
1.99667e-12
1.83757e-12
1.6779e-12
1.51842e-12
1.35995e-12
1.20332e-12
1.04942e-12
8.99208e-13
7.5372e-13
6.141e-13
4.81652e-13
3.57925e-13
2.44868e-13
1.45158e-13
6.3023e-14
7.00642e-15
8.00399e-15
7.19924e-14
1.65802e-13
2.79653e-13
4.0869e-13
5.49826e-13
7.00801e-13
8.59809e-13
1.02532e-12
1.19599e-12
1.37058e-12
1.54797e-12
1.72711e-12
1.90698e-12
2.08663e-12
2.26515e-12
2.44168e-12
2.61538e-12
2.78544e-12
2.95112e-12
3.11169e-12
3.26645e-12
3.41475e-12
3.55599e-12
3.68958e-12
3.815e-12
3.93174e-12
4.03936e-12
4.13743e-12
4.2256e-12
4.30354e-12
4.37096e-12
4.42763e-12
4.47335e-12
4.50798e-12
4.53141e-12
4.54357e-12
4.54446e-12
4.5341e-12
4.51254e-12
4.4799e-12
4.43634e-12
4.38204e-12
4.31725e-12
4.24222e-12
4.15727e-12
4.06275e-12
3.95903e-12
3.84653e-12
3.7257e-12
3.59703e-12
3.46103e-12
3.31824e-12
3.16924e-12
3.01464e-12
2.85507e-12
2.69118e-12
2.52368e-12
2.35326e-12
2.18069e-12
2.00672e-12
1.83217e-12
1.65787e-12
1.4847e-12
1.31358e-12
1.14548e-12
9.81435e-13
8.22577e-13
6.7015e-13
5.25577e-13
3.90542e-13
2.67168e-13
1.58371e-13
6.87577e-14
7.64385e-15
8.69361e-15
7.81958e-14
1.80091e-13
3.03758e-13
4.43926e-13
5.97242e-13
7.61251e-13
9.33991e-13
1.1138e-12
1.2992e-12
1.48888e-12
1.68159e-12
1.87618e-12
2.07156e-12
2.26668e-12
2.46056e-12
2.65225e-12
2.84083e-12
3.02544e-12
3.20525e-12
3.37946e-12
3.54734e-12
3.70816e-12
3.86127e-12
4.00603e-12
4.14187e-12
4.26825e-12
4.38468e-12
4.49071e-12
4.58595e-12
4.67006e-12
4.74272e-12
4.80368e-12
4.85275e-12
4.88975e-12
4.91459e-12
4.9272e-12
4.92757e-12
4.91575e-12
4.89178e-12
4.85581e-12
4.80801e-12
4.74859e-12
4.67781e-12
4.59596e-12
4.50339e-12
4.40047e-12
4.28763e-12
4.1653e-12
4.034e-12
3.89424e-12
3.74658e-12
3.59161e-12
3.42997e-12
3.2623e-12
3.08929e-12
2.91166e-12
2.73015e-12
2.54554e-12
2.35863e-12
2.17026e-12
1.9813e-12
1.79265e-12
1.60526e-12
1.42013e-12
1.23829e-12
1.06087e-12
8.8909e-13
7.2429e-13
5.68003e-13
4.22045e-13
2.88707e-13
1.71133e-13
7.42963e-14
8.25949e-15
9.37048e-15
8.42844e-14
1.94115e-13
3.27415e-13
4.78504e-13
6.43766e-13
8.20557e-13
1.00676e-12
1.20057e-12
1.40042e-12
1.60485e-12
1.81255e-12
2.02225e-12
2.23278e-12
2.44301e-12
2.65186e-12
2.85832e-12
3.06139e-12
3.26014e-12
3.45366e-12
3.64111e-12
3.82167e-12
3.99458e-12
4.15913e-12
4.31463e-12
4.46046e-12
4.59605e-12
4.72088e-12
4.83447e-12
4.93639e-12
5.02628e-12
5.10382e-12
5.16873e-12
5.22081e-12
5.25989e-12
5.28587e-12
5.29868e-12
5.29833e-12
5.28486e-12
5.25834e-12
5.21893e-12
5.16682e-12
5.10225e-12
5.02549e-12
4.93688e-12
4.83678e-12
4.72561e-12
4.60381e-12
4.47189e-12
4.33037e-12
4.17982e-12
4.02084e-12
3.85407e-12
3.68018e-12
3.49988e-12
3.3139e-12
3.12302e-12
2.92803e-12
2.72976e-12
2.52908e-12
2.32687e-12
2.12408e-12
1.92167e-12
1.72065e-12
1.52208e-12
1.32709e-12
1.13687e-12
9.5272e-13
7.76079e-13
6.08584e-13
4.52177e-13
3.09307e-13
1.83338e-13
7.95934e-14
8.8483e-15
1.00322e-14
9.02362e-14
2.07824e-13
3.50538e-13
5.12298e-13
6.89232e-13
8.78504e-13
1.07784e-12
1.28533e-12
1.49925e-12
1.71807e-12
1.94036e-12
2.16477e-12
2.39002e-12
2.61492e-12
2.8383e-12
3.05906e-12
3.27615e-12
3.48855e-12
3.69529e-12
3.89547e-12
4.08822e-12
4.27271e-12
4.44818e-12
4.6139e-12
4.76923e-12
4.91353e-12
5.04626e-12
5.16691e-12
5.27504e-12
5.37026e-12
5.45223e-12
5.52069e-12
5.57539e-12
5.6162e-12
5.64299e-12
5.65572e-12
5.65438e-12
5.63905e-12
5.60982e-12
5.56684e-12
5.51034e-12
5.44058e-12
5.35787e-12
5.26256e-12
5.15505e-12
5.03579e-12
4.90526e-12
4.764e-12
4.61258e-12
4.4516e-12
4.2817e-12
4.10357e-12
3.91793e-12
3.72553e-12
3.52715e-12
3.3236e-12
3.11574e-12
2.90446e-12
2.69066e-12
2.4753e-12
2.25937e-12
2.04389e-12
1.82993e-12
1.61863e-12
1.41116e-12
1.20881e-12
1.01294e-12
8.25091e-13
6.46986e-13
4.8069e-13
3.28799e-13
1.94887e-13
8.46055e-14
9.40541e-15
1.06767e-14
9.60339e-14
2.21176e-13
3.7306e-13
5.45209e-13
7.33503e-13
9.34919e-13
1.14704e-12
1.36781e-12
1.59541e-12
1.82819e-12
2.06462e-12
2.30327e-12
2.54277e-12
2.78184e-12
3.01924e-12
3.25378e-12
3.48434e-12
3.70984e-12
3.92924e-12
4.14158e-12
4.34592e-12
4.54141e-12
4.72721e-12
4.90257e-12
5.06679e-12
5.21922e-12
5.35928e-12
5.48643e-12
5.60022e-12
5.70024e-12
5.78614e-12
5.85765e-12
5.91454e-12
5.95664e-12
5.98387e-12
5.99616e-12
5.99356e-12
5.97612e-12
5.94396e-12
5.89727e-12
5.83629e-12
5.76131e-12
5.67265e-12
5.57072e-12
5.45593e-12
5.32877e-12
5.18977e-12
5.03948e-12
4.87851e-12
4.70751e-12
4.52717e-12
4.3382e-12
4.14137e-12
3.93747e-12
3.72732e-12
3.51179e-12
3.29178e-12
3.06822e-12
2.84207e-12
2.61433e-12
2.38604e-12
2.15829e-12
1.9322e-12
1.70895e-12
1.4898e-12
1.27609e-12
1.06926e-12
8.70917e-13
6.82888e-13
5.07344e-13
3.47019e-13
2.05681e-13
8.92902e-14
9.92613e-15
1.13026e-14
1.01664e-13
2.34142e-13
3.94926e-13
5.77159e-13
7.76474e-13
9.89667e-13
1.21417e-12
1.4478e-12
1.68864e-12
1.93492e-12
2.18501e-12
2.4374e-12
2.69062e-12
2.94332e-12
3.19416e-12
3.4419e-12
3.68534e-12
3.92332e-12
4.15475e-12
4.37861e-12
4.5939e-12
4.79971e-12
4.99519e-12
5.17952e-12
5.35197e-12
5.51187e-12
5.65859e-12
5.79161e-12
5.91043e-12
6.01464e-12
6.10389e-12
6.1779e-12
6.23645e-12
6.27938e-12
6.30659e-12
6.31807e-12
6.31384e-12
6.294e-12
6.25868e-12
6.20811e-12
6.14253e-12
6.06227e-12
5.96769e-12
5.8592e-12
5.73728e-12
5.60244e-12
5.45523e-12
5.29625e-12
5.12614e-12
4.94559e-12
4.75532e-12
4.55609e-12
4.3487e-12
4.13398e-12
3.91279e-12
3.68605e-12
3.45469e-12
3.21968e-12
2.98203e-12
2.74278e-12
2.50303e-12
2.2639e-12
2.02658e-12
1.79229e-12
1.56234e-12
1.33814e-12
1.12118e-12
9.13161e-13
7.1598e-13
5.31909e-13
3.63811e-13
2.15628e-13
9.36071e-14
1.0406e-14
1.19088e-14
1.07116e-13
2.46698e-13
4.16101e-13
6.08095e-13
8.18073e-13
1.04265e-12
1.27913e-12
1.52518e-12
1.77878e-12
2.03806e-12
2.3013e-12
2.56688e-12
2.83327e-12
3.099e-12
3.36269e-12
3.623e-12
3.87866e-12
4.12845e-12
4.37123e-12
4.6059e-12
4.83142e-12
5.04684e-12
5.25125e-12
5.44381e-12
5.62375e-12
5.79037e-12
5.94304e-12
6.0812e-12
6.20435e-12
6.31207e-12
6.40402e-12
6.4799e-12
6.53952e-12
6.58272e-12
6.60942e-12
6.61962e-12
6.61338e-12
6.5908e-12
6.55205e-12
6.49737e-12
6.42705e-12
6.34144e-12
6.24093e-12
6.12598e-12
5.99707e-12
5.85476e-12
5.69964e-12
5.53234e-12
5.35354e-12
5.16395e-12
4.96433e-12
4.75547e-12
4.53822e-12
4.31343e-12
4.08201e-12
3.84489e-12
3.60306e-12
3.35752e-12
3.10932e-12
2.85954e-12
2.60931e-12
2.3598e-12
2.11224e-12
1.86789e-12
1.62813e-12
1.39439e-12
1.16825e-12
9.51444e-13
7.45963e-13
5.54163e-13
3.79021e-13
2.24638e-13
9.7517e-14
1.08406e-14
1.24948e-14
1.12387e-13
2.58834e-13
4.36563e-13
6.37984e-13
8.58257e-13
1.09383e-12
1.34183e-12
1.59985e-12
1.86573e-12
2.1375e-12
2.41335e-12
2.69156e-12
2.97051e-12
3.24867e-12
3.52455e-12
3.79676e-12
4.06395e-12
4.32484e-12
4.57822e-12
4.82295e-12
5.05793e-12
5.28217e-12
5.49471e-12
5.69469e-12
5.88131e-12
6.05384e-12
6.21164e-12
6.35414e-12
6.48084e-12
6.59131e-12
6.68521e-12
6.76227e-12
6.82229e-12
6.86515e-12
6.89077e-12
6.89919e-12
6.89047e-12
6.86475e-12
6.82225e-12
6.76322e-12
6.68799e-12
6.59693e-12
6.49048e-12
6.36912e-12
6.23338e-12
6.08384e-12
5.92113e-12
5.7459e-12
5.55887e-12
5.36079e-12
5.15244e-12
4.93465e-12
4.70829e-12
4.47425e-12
4.23346e-12
3.9869e-12
3.73557e-12
3.4805e-12
3.22278e-12
2.96353e-12
2.7039e-12
2.44509e-12
2.18837e-12
1.93505e-12
1.68654e-12
1.44432e-12
1.21e-12
9.85401e-13
7.72552e-13
5.73894e-13
3.92504e-13
2.32625e-13
1.00983e-13
1.12258e-14
1.30603e-14
1.17473e-13
2.70546e-13
4.56308e-13
6.66821e-13
8.97016e-13
1.14317e-12
1.40228e-12
1.67179e-12
1.94946e-12
2.23319e-12
2.52109e-12
2.81135e-12
3.10226e-12
3.3922e-12
3.67961e-12
3.96301e-12
4.241e-12
4.51224e-12
4.77544e-12
5.02941e-12
5.27303e-12
5.50523e-12
5.72504e-12
5.93156e-12
6.12397e-12
6.30153e-12
6.46358e-12
6.60954e-12
6.73892e-12
6.8513e-12
6.94635e-12
7.02381e-12
7.0835e-12
7.12531e-12
7.14922e-12
7.15526e-12
7.14355e-12
7.11426e-12
7.06763e-12
7.00396e-12
6.92361e-12
6.82698e-12
6.71456e-12
6.58685e-12
6.44442e-12
6.28788e-12
6.1179e-12
5.93516e-12
5.7404e-12
5.53441e-12
5.318e-12
5.09203e-12
4.85737e-12
4.61495e-12
4.36574e-12
4.11072e-12
3.85093e-12
3.58742e-12
3.3213e-12
3.05372e-12
2.78584e-12
2.51891e-12
2.25421e-12
1.99309e-12
1.73698e-12
1.48741e-12
1.24603e-12
1.01469e-12
7.95475e-13
5.90901e-13
4.04124e-13
2.39507e-13
1.03969e-13
1.15576e-14
1.36058e-14
1.22379e-13
2.8184e-13
4.75347e-13
6.9462e-13
9.3437e-13
1.1907e-12
1.46048e-12
1.74103e-12
2.02998e-12
2.32516e-12
2.62456e-12
2.92628e-12
3.22852e-12
3.52958e-12
3.82783e-12
4.12171e-12
4.40975e-12
4.69053e-12
4.96273e-12
5.2251e-12
5.47647e-12
5.71573e-12
5.94188e-12
6.154e-12
6.35125e-12
6.53287e-12
6.69821e-12
6.84668e-12
6.9778e-12
7.09117e-12
7.18647e-12
7.26347e-12
7.322e-12
7.36201e-12
7.38348e-12
7.3865e-12
7.37123e-12
7.33786e-12
7.28668e-12
7.21803e-12
7.13231e-12
7.02996e-12
6.9115e-12
6.77748e-12
6.6285e-12
6.4652e-12
6.28828e-12
6.09846e-12
5.8965e-12
5.68322e-12
5.45945e-12
5.22607e-12
4.98398e-12
4.73413e-12
4.4775e-12
4.21509e-12
3.94795e-12
3.67716e-12
3.40383e-12
3.12913e-12
2.85426e-12
2.58046e-12
2.30904e-12
2.04138e-12
1.77891e-12
1.5232e-12
1.27593e-12
1.03897e-12
8.14477e-13
6.04993e-13
4.1375e-13
2.45206e-13
1.06441e-13
1.18324e-14
1.41318e-14
1.2711e-13
2.92732e-13
4.93704e-13
7.21419e-13
9.70368e-13
1.23649e-12
1.51652e-12
1.80765e-12
2.10741e-12
2.41352e-12
2.72386e-12
3.03645e-12
3.3494e-12
3.66092e-12
3.96931e-12
4.27293e-12
4.57023e-12
4.85975e-12
5.14009e-12
5.40997e-12
5.66815e-12
5.91352e-12
6.14503e-12
6.36174e-12
6.5628e-12
6.74746e-12
6.91504e-12
7.065e-12
7.19684e-12
7.31019e-12
7.40476e-12
7.48035e-12
7.53684e-12
7.57418e-12
7.59243e-12
7.59172e-12
7.57222e-12
7.53421e-12
7.47801e-12
7.40399e-12
7.31261e-12
7.20435e-12
7.07977e-12
6.93946e-12
6.78405e-12
6.61423e-12
6.43071e-12
6.23425e-12
6.02565e-12
5.80572e-12
5.57533e-12
5.33537e-12
5.08677e-12
4.83047e-12
4.56747e-12
4.2988e-12
4.02549e-12
3.74864e-12
3.46938e-12
3.18887e-12
2.90832e-12
2.62899e-12
2.35219e-12
2.0793e-12
1.81179e-12
1.55123e-12
1.29932e-12
1.05796e-12
8.2932e-13
6.15995e-13
4.21261e-13
2.49652e-13
1.0837e-13
1.20468e-14
1.46397e-14
1.31677e-13
3.03245e-13
5.11421e-13
7.47274e-13
1.00509e-12
1.28063e-12
1.57051e-12
1.8718e-12
2.18189e-12
2.49842e-12
2.81917e-12
3.14205e-12
3.4651e-12
3.78643e-12
4.10425e-12
4.41686e-12
4.72263e-12
5.02004e-12
5.30765e-12
5.5841e-12
5.84813e-12
6.0986e-12
6.33443e-12
6.55467e-12
6.75845e-12
6.94504e-12
7.11376e-12
7.26408e-12
7.39553e-12
7.50778e-12
7.60056e-12
7.67372e-12
7.72717e-12
7.76093e-12
7.77508e-12
7.76984e-12
7.74542e-12
7.70214e-12
7.64037e-12
7.56055e-12
7.46318e-12
7.34879e-12
7.21797e-12
7.07137e-12
6.90965e-12
6.73353e-12
6.54376e-12
6.34112e-12
6.12642e-12
5.90052e-12
5.66428e-12
5.41861e-12
5.16445e-12
4.90275e-12
4.63451e-12
4.36075e-12
4.08252e-12
3.80091e-12
3.51705e-12
3.2321e-12
2.94726e-12
2.6638e-12
2.38302e-12
2.10632e-12
1.83515e-12
1.57109e-12
1.31586e-12
1.07136e-12
8.39786e-13
6.23744e-13
4.26547e-13
2.5278e-13
1.09726e-13
1.21975e-14
1.51308e-14
1.36094e-13
3.13411e-13
5.28549e-13
7.72264e-13
1.03863e-12
1.32326e-12
1.62261e-12
1.93364e-12
2.25364e-12
2.58011e-12
2.91075e-12
3.24338e-12
3.57591e-12
3.9064e-12
4.23295e-12
4.55379e-12
4.86723e-12
5.17168e-12
5.46564e-12
5.7477e-12
6.01658e-12
6.2711e-12
6.51015e-12
6.73279e-12
6.93815e-12
7.12548e-12
7.29416e-12
7.44364e-12
7.57353e-12
7.6835e-12
7.77334e-12
7.84296e-12
7.89231e-12
7.92147e-12
7.9306e-12
7.91995e-12
7.88982e-12
7.84058e-12
7.77265e-12
7.68655e-12
7.58281e-12
7.46202e-12
7.32483e-12
7.17192e-12
7.00399e-12
6.8218e-12
6.62612e-12
6.41776e-12
6.19756e-12
5.96637e-12
5.72509e-12
5.47462e-12
5.21589e-12
4.94987e-12
4.67755e-12
4.39995e-12
4.1181e-12
3.83309e-12
3.54603e-12
3.25807e-12
2.9704e-12
2.68428e-12
2.401e-12
2.12195e-12
1.84857e-12
1.58243e-12
1.32526e-12
1.07894e-12
8.45684e-13
6.28099e-13
4.29512e-13
2.54531e-13
1.10485e-13
1.22818e-14
1.56071e-14
1.40378e-13
3.23269e-13
5.45154e-13
7.96484e-13
1.07112e-12
1.36453e-12
1.67302e-12
1.99342e-12
2.32291e-12
2.65889e-12
2.99893e-12
3.34076e-12
3.6822e-12
4.0212e-12
4.3558e-12
4.68413e-12
5.00443e-12
5.31505e-12
5.61442e-12
5.90112e-12
6.1738e-12
6.43126e-12
6.6724e-12
6.89626e-12
7.10196e-12
7.2888e-12
7.45616e-12
7.60354e-12
7.73058e-12
7.83702e-12
7.9227e-12
7.98758e-12
8.03169e-12
8.05513e-12
8.05823e-12
8.04125e-12
8.00456e-12
7.9486e-12
7.87387e-12
7.78095e-12
7.67042e-12
7.54295e-12
7.39922e-12
7.23996e-12
7.06591e-12
6.87786e-12
6.67663e-12
6.46303e-12
6.23792e-12
6.00217e-12
5.75667e-12
5.50233e-12
5.24008e-12
4.97087e-12
4.69569e-12
4.41553e-12
4.13141e-12
3.84441e-12
3.5556e-12
3.26612e-12
2.97714e-12
2.68989e-12
2.40565e-12
2.12576e-12
1.85168e-12
1.58494e-12
1.32724e-12
1.08049e-12
8.46849e-13
6.28938e-13
4.30073e-13
2.54858e-13
1.10625e-13
1.22973e-14
1.60708e-14
1.44547e-13
3.32863e-13
5.61311e-13
8.20042e-13
1.10272e-12
1.40463e-12
1.72195e-12
2.0514e-12
2.39001e-12
2.73508e-12
3.08408e-12
3.43461e-12
3.7844e-12
4.13131e-12
4.47327e-12
4.80835e-12
5.1347e-12
5.4506e-12
5.75446e-12
6.04477e-12
6.32017e-12
6.57944e-12
6.82147e-12
7.04529e-12
7.25006e-12
7.43509e-12
7.59978e-12
7.74372e-12
7.86657e-12
7.96813e-12
8.04833e-12
8.10719e-12
8.14481e-12
8.1614e-12
8.15737e-12
8.13304e-12
8.08887e-12
8.02539e-12
7.94317e-12
7.84284e-12
7.72507e-12
7.59058e-12
7.44012e-12
7.27445e-12
7.09437e-12
6.9007e-12
6.69427e-12
6.47592e-12
6.24653e-12
6.00695e-12
5.7581e-12
5.50086e-12
5.23617e-12
4.96495e-12
4.68816e-12
4.40678e-12
4.1218e-12
3.83426e-12
3.54522e-12
3.25576e-12
2.96704e-12
2.68024e-12
2.3966e-12
2.11746e-12
1.84421e-12
1.57838e-12
1.32164e-12
1.07585e-12
8.43165e-13
6.26174e-13
4.28169e-13
2.53724e-13
1.10132e-13
1.22424e-14
1.65241e-14
1.48623e-13
3.42242e-13
5.77103e-13
8.4306e-13
1.13357e-12
1.44376e-12
1.76967e-12
2.10787e-12
2.45529e-12
2.80909e-12
3.16662e-12
3.52539e-12
3.88301e-12
4.23723e-12
4.58589e-12
4.92698e-12
5.25858e-12
5.57889e-12
5.88626e-12
6.17915e-12
6.45616e-12
6.71606e-12
6.95773e-12
7.18021e-12
7.3827e-12
7.56451e-12
7.72514e-12
7.86419e-12
7.98141e-12
8.07668e-12
8.15e-12
8.20148e-12
8.23128e-12
8.23981e-12
8.22748e-12
8.19473e-12
8.14211e-12
8.07023e-12
7.97976e-12
7.87141e-12
7.74594e-12
7.60411e-12
7.44672e-12
7.2746e-12
7.08857e-12
6.8895e-12
6.67824e-12
6.45564e-12
6.2226e-12
5.97997e-12
5.72864e-12
5.46952e-12
5.20348e-12
4.93145e-12
4.65436e-12
4.37313e-12
4.08873e-12
3.80215e-12
3.51441e-12
3.22656e-12
2.93969e-12
2.65495e-12
2.37355e-12
2.09675e-12
1.82592e-12
1.56255e-12
1.30826e-12
1.06488e-12
8.34522e-13
6.19729e-13
4.23749e-13
2.511e-13
1.08991e-13
1.21156e-14
1.69697e-14
1.5263e-13
3.5146e-13
5.9262e-13
8.65669e-13
1.16386e-12
1.48215e-12
1.81644e-12
2.16316e-12
2.5191e-12
2.88131e-12
3.24701e-12
3.61358e-12
3.97854e-12
4.33951e-12
4.69424e-12
5.04063e-12
5.37667e-12
5.70049e-12
6.01039e-12
6.30479e-12
6.58227e-12
6.84157e-12
7.08158e-12
7.30137e-12
7.50015e-12
7.6773e-12
7.83236e-12
7.96501e-12
8.07509e-12
8.16256e-12
8.22753e-12
8.27019e-12
8.29078e-12
8.28996e-12
8.2681e-12
8.22579e-12
8.16371e-12
8.08256e-12
7.98309e-12
7.8661e-12
7.73241e-12
7.58287e-12
7.41835e-12
7.23971e-12
7.04783e-12
6.8436e-12
6.62789e-12
6.40158e-12
6.16554e-12
5.92065e-12
5.66778e-12
5.40779e-12
5.14156e-12
4.86996e-12
4.59387e-12
4.3142e-12
4.03186e-12
3.74777e-12
3.46291e-12
3.17827e-12
2.8949e-12
2.61386e-12
2.33633e-12
2.06351e-12
1.79671e-12
1.53737e-12
1.28705e-12
1.04754e-12
8.20882e-13
6.09573e-13
4.16792e-13
2.46973e-13
1.07199e-13
1.19163e-14
1.74102e-14
1.56591e-13
3.60571e-13
6.07954e-13
8.88003e-13
1.19376e-12
1.52003e-12
1.86254e-12
2.21759e-12
2.58183e-12
2.95217e-12
3.32571e-12
3.69971e-12
4.07154e-12
4.43873e-12
4.79892e-12
5.14989e-12
5.48956e-12
5.81601e-12
6.12745e-12
6.42227e-12
6.69903e-12
6.95646e-12
7.19346e-12
7.40912e-12
7.60271e-12
7.77365e-12
7.92158e-12
8.04625e-12
8.14759e-12
8.22569e-12
8.28076e-12
8.31303e-12
8.32307e-12
8.31149e-12
8.27884e-12
8.22584e-12
8.15325e-12
8.06189e-12
7.95262e-12
7.82633e-12
7.68393e-12
7.52634e-12
7.35448e-12
7.16929e-12
6.97167e-12
6.76255e-12
6.54281e-12
6.31334e-12
6.07502e-12
5.82869e-12
5.57522e-12
5.31544e-12
5.05019e-12
4.78028e-12
4.50657e-12
4.22989e-12
3.9511e-12
3.67106e-12
3.39068e-12
3.11088e-12
2.83263e-12
2.55697e-12
2.28495e-12
2.01774e-12
1.75659e-12
1.50285e-12
1.25802e-12
1.02383e-12
8.02258e-13
5.95719e-13
4.07308e-13
2.41349e-13
1.04757e-13
1.16448e-14
1.78483e-14
1.60529e-13
3.69629e-13
6.23196e-13
9.10196e-13
1.22346e-12
1.55762e-12
1.90825e-12
2.27148e-12
2.64385e-12
3.02211e-12
3.40321e-12
3.78427e-12
4.16256e-12
4.53546e-12
4.9005e-12
5.25536e-12
5.59787e-12
5.92603e-12
6.238e-12
6.53212e-12
6.80693e-12
7.06116e-12
7.29374e-12
7.50379e-12
7.69062e-12
7.85377e-12
7.99291e-12
8.10793e-12
8.19888e-12
8.26596e-12
8.30948e-12
8.3298e-12
8.32784e-12
8.3041e-12
8.25936e-12
8.19445e-12
8.11028e-12
8.00778e-12
7.88792e-12
7.7517e-12
7.6001e-12
7.43414e-12
7.25479e-12
7.06305e-12
6.85985e-12
6.64614e-12
6.42283e-12
6.19081e-12
5.95094e-12
5.70406e-12
5.45098e-12
5.19251e-12
4.92944e-12
4.66254e-12
4.39258e-12
4.12034e-12
3.84661e-12
3.57218e-12
3.29788e-12
3.02455e-12
2.75309e-12
2.48443e-12
2.21958e-12
1.95962e-12
1.7057e-12
1.45911e-12
1.22129e-12
9.93855e-13
7.78726e-13
5.78223e-13
3.95336e-13
2.34252e-13
1.01676e-13
1.13023e-14
1.82863e-14
1.64467e-13
3.78687e-13
6.38435e-13
9.32376e-13
1.25313e-12
1.59514e-12
1.95383e-12
2.32517e-12
2.70553e-12
3.09151e-12
3.47994e-12
3.86776e-12
4.25211e-12
4.63023e-12
4.99954e-12
5.3576e-12
5.70215e-12
6.03109e-12
6.34254e-12
6.6348e-12
6.9064e-12
7.15606e-12
7.38274e-12
7.58561e-12
7.76408e-12
7.91773e-12
8.04637e-12
8.15001e-12
8.22883e-12
8.28317e-12
8.31336e-12
8.32031e-12
8.30474e-12
8.26742e-12
8.20925e-12
8.13124e-12
8.03443e-12
7.91987e-12
7.78867e-12
7.64191e-12
7.4807e-12
7.30609e-12
7.11915e-12
6.9209e-12
6.71234e-12
6.49443e-12
6.26807e-12
6.03416e-12
5.79354e-12
5.54702e-12
5.29538e-12
5.03937e-12
4.77972e-12
4.51714e-12
4.25234e-12
3.98601e-12
3.71886e-12
3.4516e-12
3.18497e-12
2.91972e-12
2.65667e-12
2.39665e-12
2.14058e-12
1.88945e-12
1.64433e-12
1.40642e-12
1.17706e-12