/*--------------------------------*- C++ -*----------------------------------*\
  =========                 |
  \\      /  F ield         | OpenFOAM: The Open Source CFD Toolbox
   \\    /   O peration     | Website:  https://openfoam.org
    \\  /    A nd           | Version:  12
     \\/     M anipulation  |
\*---------------------------------------------------------------------------*/
FoamFile
{
    format      ascii;
    class       volScalarField;
    location    "6.5";
    object      nut;
}
// * * * * * * * * * * * * * * * * * * * * * * * * * * * * * * * * * * * * * //

dimensions      [0 2 -1 0 0 0 0];

internalField   nonuniform List<scalar> 
5625
(
4.44089e-21
3.10207e-20
6.54951e-20
1.06716e-19
1.53144e-19
2.03641e-19
2.57383e-19
3.13735e-19
3.72173e-19
4.32245e-19
4.93545e-19
5.55701e-19
6.18363e-19
6.81202e-19
7.43905e-19
8.06171e-19
8.67713e-19
9.28255e-19
9.87533e-19
1.04529e-18
1.10129e-18
1.1553e-18
1.2071e-18
1.25647e-18
1.30324e-18
1.3472e-18
1.3882e-18
1.42607e-18
1.46067e-18
1.49187e-18
1.51956e-18
1.54363e-18
1.56399e-18
1.58057e-18
1.59332e-18
1.60219e-18
1.60715e-18
1.60819e-18
1.60532e-18
1.59854e-18
1.58788e-18
1.5734e-18
1.55516e-18
1.53322e-18
1.50767e-18
1.47862e-18
1.44618e-18
1.41048e-18
1.37165e-18
1.32985e-18
1.28524e-18
1.23799e-18
1.1883e-18
1.13636e-18
1.08236e-18
1.02654e-18
9.69117e-19
9.10323e-19
8.50406e-19
7.8962e-19
7.28228e-19
6.66507e-19
6.04742e-19
5.4323e-19
4.82286e-19
4.22242e-19
3.63453e-19
3.06306e-19
2.51235e-19
1.98741e-19
1.49437e-19
1.04121e-19
6.38978e-20
3.02659e-20
4.44089e-21
6.91928e-21
1.00984e-18
5.39387e-18
1.26129e-17
2.1204e-17
3.04814e-17
4.02e-17
5.02548e-17
6.05794e-17
7.11177e-17
8.18166e-17
9.26241e-17
1.03489e-16
1.14361e-16
1.25192e-16
1.35933e-16
1.46538e-16
1.56961e-16
1.6716e-16
1.77092e-16
1.86716e-16
1.95994e-16
2.04889e-16
2.13366e-16
2.21391e-16
2.28935e-16
2.35967e-16
2.42462e-16
2.48396e-16
2.53745e-16
2.5849e-16
2.62615e-16
2.66103e-16
2.68944e-16
2.71127e-16
2.72645e-16
2.73492e-16
2.73668e-16
2.73172e-16
2.72006e-16
2.70177e-16
2.67692e-16
2.64561e-16
2.60797e-16
2.56416e-16
2.51433e-16
2.45869e-16
2.39745e-16
2.33084e-16
2.25914e-16
2.18261e-16
2.10154e-16
2.01626e-16
1.92709e-16
1.83438e-16
1.73849e-16
1.63981e-16
1.53871e-16
1.43562e-16
1.33094e-16
1.22511e-16
1.11857e-16
1.01178e-16
9.05197e-17
7.99297e-17
6.94564e-17
5.9149e-17
4.90577e-17
3.92358e-17
2.97464e-17
2.06907e-17
1.23066e-17
5.26253e-18
9.85173e-19
6.74982e-21
1.5376e-20
2.52944e-18
1.72783e-17
5.16501e-17
1.04376e-16
1.69998e-16
2.43592e-16
3.21976e-16
4.03295e-16
4.86448e-16
5.70725e-16
6.55606e-16
7.40663e-16
8.25517e-16
9.09814e-16
9.93213e-16
1.07538e-15
1.15601e-15
1.23477e-15
1.31137e-15
1.38551e-15
1.45691e-15
1.52531e-15
1.59044e-15
1.65206e-15
1.70995e-15
1.76389e-15
1.81367e-15
1.85914e-15
1.9001e-15
1.93643e-15
1.968e-15
1.99469e-15
2.01641e-15
2.03309e-15
2.04468e-15
2.05114e-15
2.05245e-15
2.04863e-15
2.03969e-15
2.02567e-15
2.00663e-15
1.98265e-15
1.95382e-15
1.92027e-15
1.88211e-15
1.83949e-15
1.79257e-15
1.74154e-15
1.68657e-15
1.62789e-15
1.5657e-15
1.50024e-15
1.43175e-15
1.36048e-15
1.2867e-15
1.21069e-15
1.13271e-15
1.05308e-15
9.72074e-16
8.90006e-16
8.07185e-16
7.23931e-16
6.4058e-16
5.57487e-16
4.75055e-16
3.93777e-16
3.14333e-16
2.37784e-16
1.65929e-16
1.01869e-16
5.04025e-17
1.68579e-17
2.46744e-18
1.49971e-20
2.54351e-20
4.28877e-18
3.12879e-17
1.0287e-16
2.30081e-16
4.10581e-16
6.34231e-16
8.89328e-16
1.16589e-15
1.45644e-15
1.75566e-15
2.05974e-15
2.36592e-15
2.67204e-15
2.97637e-15
3.27741e-15
3.57384e-15
3.86444e-15
4.14805e-15
4.4236e-15
4.69006e-15
4.94645e-15
5.19183e-15
5.4253e-15
5.64605e-15
5.85327e-15
6.04624e-15
6.22427e-15
6.38674e-15
6.5331e-15
6.66283e-15
6.7755e-15
6.87073e-15
6.94821e-15
7.00769e-15
7.049e-15
7.07201e-15
7.07667e-15
7.06302e-15
7.03112e-15
6.98111e-15
6.91321e-15
6.82769e-15
6.72488e-15
6.60518e-15
6.46903e-15
6.31694e-15
6.14947e-15
5.96723e-15
5.77087e-15
5.56111e-15
5.33871e-15
5.10444e-15
4.85914e-15
4.6037e-15
4.33901e-15
4.06602e-15
3.78571e-15
3.49913e-15
3.20733e-15
2.91147e-15
2.61281e-15
2.31275e-15
2.01294e-15
1.7154e-15
1.42281e-15
1.13881e-15
8.68563e-16
6.19341e-16
4.00873e-16
2.24589e-16
1.00384e-16
3.05216e-17
4.18257e-18
2.48011e-20
3.66435e-20
6.23085e-18
4.65495e-17
1.59145e-16
3.73836e-16
7.02886e-16
1.14155e-15
1.67428e-15
2.28149e-15
2.94417e-15
3.64591e-15
4.37347e-15
5.11639e-15
5.86646e-15
6.61713e-15
7.36304e-15
8.09972e-15
8.82329e-15
9.53032e-15
1.02177e-14
1.08827e-14
1.15226e-14
1.21349e-14
1.27175e-14
1.32683e-14
1.37851e-14
1.42663e-14
1.47101e-14
1.51151e-14
1.54798e-14
1.5803e-14
1.60837e-14
1.63209e-14
1.6514e-14
1.66622e-14
1.67652e-14
1.68226e-14
1.68345e-14
1.68008e-14
1.67218e-14
1.65977e-14
1.64291e-14
1.62168e-14
1.59614e-14
1.5664e-14
1.53256e-14
1.49475e-14
1.45311e-14
1.40778e-14
1.35893e-14
1.30673e-14
1.25136e-14
1.19302e-14
1.13193e-14
1.06829e-14
1.00235e-14
9.34356e-15
8.64574e-15
7.93296e-15
7.20846e-15
6.47589e-15
5.73949e-15
5.00436e-15
4.27676e-15
3.56461e-15
2.87801e-15
2.22982e-15
1.63599e-15
1.11513e-15
6.86374e-16
3.64893e-16
1.55262e-16
4.53924e-17
6.07377e-18
3.57129e-20
4.87179e-20
8.31497e-18
6.27885e-17
2.18665e-16
5.26646e-16
1.01947e-15
1.70732e-15
2.5807e-15
3.61713e-15
4.78809e-15
6.06415e-15
7.41806e-15
8.82597e-15
1.02677e-14
1.17264e-14
1.3188e-14
1.46408e-14
1.60745e-14
1.74806e-14
1.88515e-14
2.01803e-14
2.14611e-14
2.26883e-14
2.38569e-14
2.49623e-14
2.60002e-14
2.69669e-14
2.78589e-14
2.86729e-14
2.94062e-14
3.00563e-14
3.06209e-14
3.10983e-14
3.1487e-14
3.17857e-14
3.19935e-14
3.21101e-14
3.2135e-14
3.20686e-14
3.19111e-14
3.16632e-14
3.13261e-14
3.0901e-14
3.03896e-14
2.97939e-14
2.9116e-14
2.83585e-14
2.75241e-14
2.66158e-14
2.56369e-14
2.45911e-14
2.34823e-14
2.23144e-14
2.10921e-14
1.98203e-14
1.8504e-14
1.71493e-14
1.57623e-14
1.43505e-14
1.29219e-14
1.14861e-14
1.00545e-14
8.64044e-15
7.26032e-15
5.93368e-15
4.68373e-15
3.53711e-15
2.52258e-15
1.66804e-15
9.95427e-16
5.13889e-16
2.13226e-16
6.119e-17
8.09979e-18
4.74468e-20
6.14503e-20
1.05085e-17
7.97972e-17
2.80645e-16
6.85317e-16
1.34923e-15
2.30253e-15
3.54928e-15
5.07219e-15
6.83963e-15
8.8126e-15
1.09501e-14
1.32127e-14
1.55642e-14
1.79728e-14
2.04105e-14
2.28531e-14
2.52798e-14
2.76726e-14
3.00154e-14
3.22944e-14
3.44972e-14
3.66127e-14
3.8631e-14
4.05431e-14
4.23408e-14
4.4017e-14
4.55649e-14
4.69787e-14
4.82533e-14
4.93839e-14
5.03667e-14
5.11983e-14
5.18759e-14
5.23974e-14
5.27613e-14
5.29665e-14
5.30126e-14
5.29e-14
5.26291e-14
5.22014e-14
5.16186e-14
5.08832e-14
4.99981e-14
4.89667e-14
4.7793e-14
4.64814e-14
4.5037e-14
4.34653e-14
4.17724e-14
3.9965e-14
3.80503e-14
3.60363e-14
3.39317e-14
3.1746e-14
2.94899e-14
2.7175e-14
2.48147e-14
2.24239e-14
2.00202e-14
1.76233e-14
1.52567e-14
1.29473e-14
1.07264e-14
8.62913e-15
6.69415e-15
4.9616e-15
3.46967e-15
2.2492e-15
1.3169e-15
6.68314e-16
2.73453e-16
7.76967e-17
1.02268e-17
5.97882e-20
7.46743e-20
1.27843e-17
9.73924e-17
3.44493e-16
8.48154e-16
1.68714e-15
2.91364e-15
4.54941e-15
6.58805e-15
9.001e-15
1.1745e-14
1.47686e-14
1.80182e-14
2.14409e-14
2.49873e-14
2.86123e-14
3.22754e-14
3.59408e-14
3.95766e-14
4.31547e-14
4.66502e-14
5.0041e-14
5.33072e-14
5.64313e-14
5.93975e-14
6.21915e-14
6.48006e-14
6.72135e-14
6.942e-14
7.14114e-14
7.31797e-14
7.47183e-14
7.60216e-14
7.70849e-14
7.79046e-14
7.84781e-14
7.88037e-14
7.88807e-14
7.87095e-14
7.82909e-14
7.76271e-14
7.6721e-14
7.55766e-14
7.41986e-14
7.25927e-14
7.07653e-14
6.87239e-14
6.64769e-14
6.40335e-14
6.1404e-14
5.85999e-14
5.56337e-14
5.2519e-14
4.92713e-14
4.59075e-14
4.24464e-14
3.89093e-14
3.53199e-14
3.17052e-14
2.80959e-14
2.45268e-14
2.10371e-14
1.76708e-14
1.44765e-14
1.15059e-14
8.81177e-15
6.44447e-15
4.44628e-15
2.84476e-15
1.64551e-15
8.26346e-16
3.35302e-16
9.47153e-17
1.24259e-17
7.25609e-20
8.82502e-20
1.51191e-17
1.1541e-16
4.09682e-16
1.01387e-15
2.03014e-15
3.53338e-15
5.56485e-15
8.13225e-15
1.12144e-14
1.47681e-14
1.8736e-14
2.30526e-14
2.765e-14
3.24612e-14
3.74228e-14
4.24758e-14
4.75664e-14
5.26458e-14
5.76704e-14
6.26007e-14
6.74017e-14
7.20416e-14
7.64924e-14
8.07286e-14
8.47275e-14
8.84688e-14
9.19345e-14
9.51085e-14
9.79768e-14
1.00527e-13
1.02748e-13
1.04632e-13
1.06172e-13
1.0736e-13
1.08194e-13
1.08671e-13
1.08789e-13
1.08549e-13
1.07952e-13
1.07001e-13
1.05701e-13
1.04058e-13
1.02078e-13
9.97713e-14
9.71468e-14
9.42163e-14
9.09927e-14
8.74906e-14
8.37261e-14
7.97173e-14
7.5484e-14
7.10484e-14
6.64348e-14
6.16705e-14
5.67857e-14
5.18143e-14
4.67942e-14
4.17676e-14
3.67819e-14
3.18895e-14
2.71482e-14
2.26203e-14
1.83717e-14
1.44693e-14
1.09773e-14
7.95208e-15
5.4353e-15
3.44686e-15
1.97789e-15
9.86529e-16
3.98177e-16
1.12064e-16
1.46715e-17
8.56117e-20
1.02057e-19
1.74926e-17
1.33702e-16
4.75725e-16
1.18132e-15
2.37587e-15
4.15692e-15
6.58576e-15
9.68572e-15
1.34454e-14
1.7825e-14
2.27639e-14
2.81884e-14
3.40174e-14
4.01678e-14
4.6558e-14
5.311e-14
5.97506e-14
6.64124e-14
7.30335e-14
7.95578e-14
8.59345e-14
9.21174e-14
9.80651e-14
1.0374e-13
1.0911e-13
1.14143e-13
1.18814e-13
1.23098e-13
1.26975e-13
1.30426e-13
1.33437e-13
1.35993e-13
1.38084e-13
1.39701e-13
1.40839e-13
1.41493e-13
1.41661e-13
1.41344e-13
1.40544e-13
1.39264e-13
1.37511e-13
1.35294e-13
1.32623e-13
1.2951e-13
1.2597e-13
1.2202e-13
1.17678e-13
1.12965e-13
1.07906e-13
1.02527e-13
9.68577e-14
9.09299e-14
8.478e-14
7.8448e-14
7.19785e-14
6.54205e-14
5.88286e-14
5.2263e-14
4.57895e-14
3.948e-14
3.34112e-14
2.76638e-14
2.23198e-14
1.7459e-14
1.3154e-14
9.46354e-15
6.42567e-15
4.04988e-15
2.31123e-15
1.14752e-15
4.61512e-16
1.29572e-16
1.69403e-17
9.88027e-20
1.15988e-19
1.98866e-17
1.52136e-16
5.42173e-16
1.34945e-15
2.72226e-15
4.78041e-15
7.60516e-15
1.12359e-14
1.56721e-14
2.08792e-14
2.67959e-14
3.3342e-14
4.04258e-14
4.79496e-14
5.58147e-14
6.39244e-14
7.21861e-14
8.05127e-14
8.88232e-14
9.7043e-14
1.05104e-13
1.12943e-13
1.20504e-13
1.27737e-13
1.34593e-13
1.41033e-13
1.47019e-13
1.52517e-13
1.575e-13
1.61942e-13
1.6582e-13
1.69117e-13
1.71818e-13
1.73909e-13
1.75384e-13
1.76236e-13
1.76461e-13
1.76061e-13
1.75038e-13
1.73397e-13
1.71147e-13
1.68299e-13
1.64868e-13
1.60871e-13
1.56327e-13
1.51259e-13
1.45694e-13
1.39661e-13
1.33192e-13
1.26325e-13
1.191e-13
1.11562e-13
1.0376e-13
9.57501e-14
8.7592e-14
7.93523e-14
7.11041e-14
6.29264e-14
5.4905e-14
4.71311e-14
3.97005e-14
3.27108e-14
2.62587e-14
2.04345e-14
1.53166e-14
1.0964e-14
7.40893e-15
4.64911e-15
2.64296e-15
1.30801e-15
5.24761e-16
1.47079e-16
1.92108e-17
1.12007e-19
1.29949e-19
2.22851e-17
1.7059e-16
6.08615e-16
1.5173e-15
3.06742e-15
5.40054e-15
8.61745e-15
1.27734e-14
1.78793e-14
2.39064e-14
3.07941e-14
3.84576e-14
4.6796e-14
5.56988e-14
6.50514e-14
7.4739e-14
8.46503e-14
9.46785e-14
1.04723e-13
1.1469e-13
1.24493e-13
1.34052e-13
1.43293e-13
1.52152e-13
1.60566e-13
1.68482e-13
1.75852e-13
1.82631e-13
1.88781e-13
1.9427e-13
1.99068e-13
2.0315e-13
2.06497e-13
2.09093e-13
2.10925e-13
2.11987e-13
2.12274e-13
2.11786e-13
2.10526e-13
2.08501e-13
2.05724e-13
2.02207e-13
1.9797e-13
1.93036e-13
1.87429e-13
1.81181e-13
1.74326e-13
1.66902e-13
1.58952e-13
1.50524e-13
1.41672e-13
1.32455e-13
1.22937e-13
1.13189e-13
1.03289e-13
9.33215e-14
8.33793e-14
7.35609e-14
6.39718e-14
5.47222e-14
4.5926e-14
3.76966e-14
3.01435e-14
2.33659e-14
1.7446e-14
1.24416e-14
8.37771e-15
5.24014e-15
2.9706e-15
1.46675e-15
5.87398e-16
1.64433e-16
2.14627e-17
1.25105e-19
1.43855e-19
2.46736e-17
1.88958e-16
6.7468e-16
1.68397e-15
3.40962e-15
6.01433e-15
9.61778e-15
1.42907e-14
2.00551e-14
2.68886e-14
3.47318e-14
4.34963e-14
5.30733e-14
6.33407e-14
7.41689e-14
8.54268e-14
9.69844e-14
1.08716e-13
1.20501e-13
1.32228e-13
1.43789e-13
1.55088e-13
1.66035e-13
1.76547e-13
1.86548e-13
1.95972e-13
2.04756e-13
2.12846e-13
2.20193e-13
2.26756e-13
2.32498e-13
2.37387e-13
2.41399e-13
2.44512e-13
2.46712e-13
2.47988e-13
2.48336e-13
2.47756e-13
2.46249e-13
2.43827e-13
2.40503e-13
2.36295e-13
2.31227e-13
2.25327e-13
2.18627e-13
2.11165e-13
2.02986e-13
1.94136e-13
1.84672e-13
1.74652e-13
1.64144e-13
1.53222e-13
1.41965e-13
1.30462e-13
1.18808e-13
1.07108e-13
9.54717e-14
8.40184e-14
7.28725e-14
6.21629e-14
5.202e-14
4.2572e-14
3.39396e-14
2.62292e-14
1.9526e-14
1.38854e-14
9.32517e-15
5.81875e-15
3.29173e-15
1.62251e-15
6.48918e-16
1.8149e-16
2.36767e-17
1.37985e-19
1.57631e-19
2.70395e-17
2.07142e-16
7.40033e-16
1.84866e-15
3.74727e-15
6.61908e-15
1.06019e-14
1.57813e-14
2.219e-14
2.98118e-14
3.85888e-14
4.84296e-14
5.92183e-14
7.08217e-14
8.30972e-14
9.58973e-14
1.09075e-13
1.22485e-13
1.3599e-13
1.49456e-13
1.62761e-13
1.75788e-13
1.88431e-13
2.00589e-13
2.12173e-13
2.23101e-13
2.33298e-13
2.42699e-13
2.51245e-13
2.58883e-13
2.6557e-13
2.71266e-13
2.75942e-13
2.79572e-13
2.82137e-13
2.83625e-13
2.84029e-13
2.83351e-13
2.81592e-13
2.78765e-13
2.74886e-13
2.69979e-13
2.6407e-13
2.57195e-13
2.49394e-13
2.40712e-13
2.31203e-13
2.20925e-13
2.09945e-13
1.98335e-13
1.86176e-13
1.73558e-13
1.60575e-13
1.47334e-13
1.33949e-13
1.20541e-13
1.0724e-13
9.41838e-14
8.15158e-14
6.93819e-14
5.79284e-14
4.72966e-14
3.76174e-14
2.90035e-14
2.1542e-14
1.52857e-14
1.02447e-14
6.38082e-15
3.60397e-15
1.77409e-15
7.0883e-16
1.98109e-16
2.58345e-17
1.50539e-19
1.71213e-19
2.93716e-17
2.25059e-16
8.04376e-16
2.01064e-15
4.07899e-15
7.21238e-15
1.1566e-14
1.72396e-14
2.4276e-14
3.26647e-14
4.23494e-14
5.32359e-14
6.52015e-14
7.81031e-14
9.17851e-14
1.06085e-13
1.20839e-13
1.35885e-13
1.51066e-13
1.66231e-13
1.81239e-13
1.95956e-13
2.10257e-13
2.24028e-13
2.37163e-13
2.49565e-13
2.61149e-13
2.71836e-13
2.81555e-13
2.90248e-13
2.97859e-13
3.04346e-13
3.0967e-13
3.13802e-13
3.1672e-13
3.18409e-13
3.18861e-13
3.18077e-13
3.16061e-13
3.12826e-13
3.08392e-13
3.02787e-13
2.96043e-13
2.88201e-13
2.79309e-13
2.69421e-13
2.586e-13
2.46915e-13
2.34444e-13
2.21274e-13
2.07498e-13
1.9322e-13
1.78553e-13
1.63619e-13
1.48549e-13
1.33483e-13
1.1857e-13
1.03964e-13
8.98265e-14
7.632e-14
6.3605e-14
5.18354e-14
4.11506e-14
3.16694e-14
2.34801e-14
1.66326e-14
1.11299e-14
6.9223e-15
3.905e-15
1.92033e-15
7.6666e-16
2.14156e-16
2.79185e-17
1.62663e-19
1.84543e-19
3.16601e-17
2.42634e-16
8.67453e-16
2.16929e-15
4.40353e-15
7.79214e-15
1.25069e-14
1.86609e-14
2.63062e-14
3.54381e-14
4.60011e-14
5.78983e-14
7.10005e-14
8.51552e-14
1.00195e-13
1.15942e-13
1.32217e-13
1.48841e-13
1.6564e-13
1.82445e-13
1.99097e-13
2.15445e-13
2.31348e-13
2.46676e-13
2.61308e-13
2.75134e-13
2.88055e-13
2.99981e-13
3.10832e-13
3.20538e-13
3.29038e-13
3.3628e-13
3.42223e-13
3.46831e-13
3.5008e-13
3.51951e-13
3.52438e-13
3.5154e-13
3.49261e-13
3.45618e-13
3.40635e-13
3.34342e-13
3.26778e-13
3.17989e-13
3.08032e-13
2.96969e-13
2.84872e-13
2.71821e-13
2.57906e-13
2.43226e-13
2.27888e-13
2.12011e-13
1.95723e-13
1.79162e-13
1.62476e-13
1.45822e-13
1.29365e-13
1.13279e-13
9.77397e-14
8.29249e-14
6.90088e-14
5.61561e-14
4.45149e-14
3.42087e-14
2.53271e-14
1.79169e-14
1.19744e-14
7.43924e-15
4.19255e-15
2.06009e-15
8.2195e-16
2.29502e-16
2.99115e-17
1.74259e-19
1.97574e-19
3.38971e-17
2.59807e-16
9.29046e-16
2.32409e-15
4.71986e-15
8.35657e-15
1.34218e-14
2.0041e-14
2.82752e-14
3.81242e-14
4.95336e-14
6.24034e-14
7.65982e-14
9.1956e-14
1.08297e-13
1.25432e-13
1.43164e-13
1.61299e-13
1.79645e-13
1.98018e-13
2.16241e-13
2.34147e-13
2.51579e-13
2.68391e-13
2.8445e-13
2.9963e-13
3.13822e-13
3.26924e-13
3.38846e-13
3.4951e-13
3.58847e-13
3.66799e-13
3.73318e-13
3.78365e-13
3.81914e-13
3.83944e-13
3.84446e-13
3.83421e-13
3.80875e-13
3.76826e-13
3.71301e-13
3.64336e-13
3.55974e-13
3.46269e-13
3.35284e-13
3.2309e-13
3.09768e-13
2.95408e-13
2.80112e-13
2.6399e-13
2.47164e-13
2.29765e-13
2.11937e-13
1.93832e-13
1.75615e-13
1.57458e-13
1.39543e-13
1.22059e-13
1.05197e-13
8.91491e-14
7.41014e-14
6.02287e-14
4.76868e-14
3.66037e-14
2.70698e-14
1.91293e-14
1.27721e-14
7.92774e-15
4.4644e-15
2.19227e-15
8.74253e-16
2.4402e-16
3.17973e-17
1.85231e-19
2.10268e-19
3.60757e-17
2.76526e-16
9.8898e-16
2.47459e-15
5.02714e-15
8.90423e-15
1.43084e-14
2.13768e-14
3.01784e-14
4.07172e-14
5.29391e-14
6.67412e-14
8.19814e-14
9.84888e-14
1.16072e-13
1.34528e-13
1.53647e-13
1.73217e-13
1.93033e-13
2.12893e-13
2.32603e-13
2.51982e-13
2.70857e-13
2.89068e-13
3.06468e-13
3.2292e-13
3.38302e-13
3.52503e-13
3.65423e-13
3.76975e-13
3.87084e-13
3.95686e-13
4.02729e-13
4.0817e-13
4.11979e-13
4.14135e-13
4.14629e-13
4.13462e-13
4.10641e-13
4.06188e-13
4.00132e-13
3.92514e-13
3.83383e-13
3.728e-13
3.60832e-13
3.4756e-13
3.33075e-13
3.17476e-13
3.00874e-13
2.83393e-13
2.65166e-13
2.46338e-13
2.27065e-13
2.07514e-13
1.87864e-13
1.68303e-13
1.49027e-13
1.3024e-13
1.12145e-13
9.4948e-14
7.88464e-14
6.40241e-14
5.06437e-14
3.8837e-14
2.86955e-14
2.02608e-14
1.35168e-14
8.384e-15
4.7184e-15
2.31579e-15
9.23139e-16
2.57592e-16
3.35599e-17
1.95486e-19
2.22595e-19
3.81911e-17
2.92754e-16
1.04712e-15
2.62048e-15
5.3247e-15
9.43403e-15
1.51651e-14
2.26658e-14
3.20125e-14
4.32127e-14
5.62121e-14
7.09044e-14
8.7141e-14
1.04742e-13
1.23505e-13
1.43213e-13
1.63643e-13
1.84569e-13
2.05768e-13
2.27025e-13
2.4813e-13
2.68888e-13
2.8911e-13
3.08624e-13
3.2727e-13
3.449e-13
3.6138e-13
3.76589e-13
3.90421e-13
4.0278e-13
4.13586e-13
4.22769e-13
4.30273e-13
4.36053e-13
4.40076e-13
4.4232e-13
4.42777e-13
4.41449e-13
4.38343e-13
4.33486e-13
4.26911e-13
4.18662e-13
4.08794e-13
3.97373e-13
3.84475e-13
3.70188e-13
3.54609e-13
3.3785e-13
3.2003e-13
3.01283e-13
2.81755e-13
2.61601e-13
2.4099e-13
2.20103e-13
1.99131e-13
1.78276e-13
1.57747e-13
1.37759e-13
1.18532e-13
1.00279e-13
8.32089e-14
6.75142e-14
5.33634e-14
4.08918e-14
3.01917e-14
2.13025e-14
1.42026e-14
8.8043e-15
4.95243e-15
2.42962e-15
9.68191e-16
2.70098e-16
3.51842e-17
2.04936e-19
2.34534e-19
4.02396e-17
3.08463e-16
1.10337e-15
2.76153e-15
5.61213e-15
9.94524e-15
1.59907e-14
2.39065e-14
3.37755e-14
4.56079e-14
5.93491e-14
7.48885e-14
9.20712e-14
1.10708e-13
1.30585e-13
1.51473e-13
1.73136e-13
1.95332e-13
2.17826e-13
2.40385e-13
2.62787e-13
2.84821e-13
3.06287e-13
3.26999e-13
3.46786e-13
3.65488e-13
3.82963e-13
3.99082e-13
4.1373e-13
4.26805e-13
4.38222e-13
4.47907e-13
4.55801e-13
4.61856e-13
4.66038e-13
4.68326e-13
4.68712e-13
4.67198e-13
4.63796e-13
4.58535e-13
4.51451e-13
4.42593e-13
4.32022e-13
4.19809e-13
4.06038e-13
3.90802e-13
3.74208e-13
3.56375e-13
3.37432e-13
3.17523e-13
2.96802e-13
2.75436e-13
2.53606e-13
2.31502e-13
2.09329e-13
1.873e-13
1.65635e-13
1.44561e-13
1.24308e-13
1.051e-13
8.71549e-14
7.06715e-14
5.58242e-14
4.27515e-14
3.15462e-14
2.22458e-14
1.48238e-14
9.18504e-15
5.16445e-15
2.53275e-15
1.00901e-15
2.81427e-16
3.66555e-17
2.13495e-19
2.46074e-19
4.22193e-17
3.23639e-16
1.15768e-15
2.89761e-15
5.8892e-15
1.04375e-14
1.67848e-14
2.50982e-14
3.54664e-14
4.79019e-14
6.23486e-14
7.86918e-14
9.67695e-14
1.16383e-13
1.37308e-13
1.59303e-13
1.82117e-13
2.05497e-13
2.2919e-13
2.52953e-13
2.76548e-13
2.9975e-13
3.2235e-13
3.44148e-13
3.64961e-13
3.84624e-13
4.02983e-13
4.19902e-13
4.3526e-13
4.48951e-13
4.60884e-13
4.70983e-13
4.79186e-13
4.85445e-13
4.89725e-13
4.92006e-13
4.92281e-13
4.90553e-13
4.86839e-13
4.8117e-13
4.73586e-13
4.64143e-13
4.52904e-13
4.39947e-13
4.25362e-13
4.0925e-13
3.91724e-13
3.7291e-13
3.52947e-13
3.31985e-13
3.10189e-13
2.87734e-13
2.64811e-13
2.41621e-13
2.18377e-13
1.95302e-13
1.72627e-13
1.50589e-13
1.29426e-13
1.09372e-13
9.06512e-14
7.34694e-14
5.80052e-14
4.44e-14
3.27471e-14
2.30822e-14
1.53747e-14
9.52273e-15
5.3525e-15
2.62421e-15
1.0452e-15
2.91472e-16
3.79596e-17
2.21081e-19
2.57212e-19
4.41298e-17
3.3828e-16
1.21004e-15
3.02872e-15
6.1559e-15
1.09108e-14
1.75474e-14
2.62412e-14
3.70858e-14
5.00951e-14
6.52114e-14
8.23151e-14
1.01237e-13
1.21769e-13
1.43675e-13
1.66701e-13
1.90585e-13
2.15057e-13
2.39854e-13
2.64717e-13
2.89396e-13
3.13656e-13
3.37271e-13
3.60036e-13
3.81757e-13
4.02259e-13
4.21382e-13
4.38984e-13
4.54938e-13
4.69135e-13
4.81481e-13
4.91897e-13
5.00321e-13
5.06705e-13
5.11015e-13
5.13231e-13
5.13348e-13
5.11374e-13
5.07329e-13
5.01246e-13
4.93171e-13
4.83162e-13
4.71291e-13
4.5764e-13
4.42304e-13
4.25391e-13
4.0702e-13
3.87325e-13
3.66449e-13
3.44552e-13
3.21805e-13
2.98393e-13
2.74512e-13
2.50372e-13
2.26195e-13
2.02212e-13
1.78662e-13
1.55789e-13
1.3384e-13
1.13056e-13
9.36659e-14
7.58817e-14
5.98858e-14
4.58215e-14
3.37828e-14
2.38037e-14
1.58499e-14
9.814e-15
5.51468e-15
2.70308e-15
1.0764e-15
3.00129e-16
3.90834e-17
2.27617e-19
2.67953e-19
4.59721e-17
3.52392e-16
1.26049e-15
3.15495e-15
6.41244e-15
1.13656e-14
1.82792e-14
2.73365e-14
3.8635e-14
5.21898e-14
6.79403e-14
8.57619e-14
1.05477e-13
1.26869e-13
1.49689e-13
1.73672e-13
1.98541e-13
2.24015e-13
2.49816e-13
2.75674e-13
3.01326e-13
3.26524e-13
3.51035e-13
3.74642e-13
3.97143e-13
4.18356e-13
4.38116e-13
4.56275e-13
4.72704e-13
4.87289e-13
4.99936e-13
5.10565e-13
5.19115e-13
5.25537e-13
5.29799e-13
5.31887e-13
5.31796e-13
5.29538e-13
5.25137e-13
5.18631e-13
5.1007e-13
4.99518e-13
4.8705e-13
4.72755e-13
4.56732e-13
4.39096e-13
4.19972e-13
3.99497e-13
3.77823e-13
3.55114e-13
3.31548e-13
3.07315e-13
2.82618e-13
2.57674e-13
2.3271e-13
2.07963e-13
1.8368e-13
1.60111e-13
1.37507e-13
1.16114e-13
9.61681e-14
7.78837e-14
6.14463e-14
4.70011e-14
3.46423e-14
2.44023e-14
1.62442e-14
1.00557e-14
5.64921e-15
2.76848e-15
1.10227e-15
3.07303e-16
4.00142e-17
2.33029e-19
2.78314e-19
4.77488e-17
3.65997e-16
1.3091e-15
3.27648e-15
6.65921e-15
1.18027e-14
1.89815e-14
2.8386e-14
4.01171e-14
5.41896e-14
7.05402e-14
8.9038e-14
1.09497e-13
1.3169e-13
1.55358e-13
1.80223e-13
2.05993e-13
2.32377e-13
2.59082e-13
2.85826e-13
3.12336e-13
3.38352e-13
3.63632e-13
3.8795e-13
4.11099e-13
4.32889e-13
4.53152e-13
4.71735e-13
4.88508e-13
5.03356e-13
5.16184e-13
5.26914e-13
5.35484e-13
5.41851e-13
5.45983e-13
5.47872e-13
5.47516e-13
5.44932e-13
5.40147e-13
5.33205e-13
5.24162e-13
5.13085e-13
5.00056e-13
4.85167e-13
4.68524e-13
4.50245e-13
4.30461e-13
4.09314e-13
3.86959e-13
3.63567e-13
3.39319e-13
3.14409e-13
2.89045e-13
2.63449e-13
2.37851e-13
2.12494e-13
1.87627e-13
1.63505e-13
1.40383e-13
1.18511e-13
9.81284e-14
7.94514e-14
6.26681e-14
4.79245e-14
3.53149e-14
2.48709e-14
1.65527e-14
1.02447e-14
5.75441e-15
2.8196e-15
1.12247e-15
3.12902e-16
4.07403e-17
2.3725e-19
2.88315e-19
4.94636e-17
3.79125e-16
1.35598e-15
3.39361e-15
6.89684e-15
1.2223e-14
1.96562e-14
2.93925e-14
4.15358e-14
5.61001e-14
7.30179e-14
9.21518e-14
1.13307e-13
1.36245e-13
1.60696e-13
1.86366e-13
2.12955e-13
2.40154e-13
2.67662e-13
2.95182e-13
3.22431e-13
3.4914e-13
3.75058e-13
3.99953e-13
4.2361e-13
4.45837e-13
4.66461e-13
4.85328e-13
5.02307e-13
5.17285e-13
5.30167e-13
5.40877e-13
5.49358e-13
5.55567e-13
5.59481e-13
5.61095e-13
5.60412e-13
5.57454e-13
5.52254e-13
5.44861e-13
5.35336e-13
5.23752e-13
5.10196e-13
4.94764e-13
4.77567e-13
4.58728e-13
4.38381e-13
4.16671e-13
3.93759e-13
3.69817e-13
3.45028e-13
3.19591e-13
2.93716e-13
2.67625e-13
2.41553e-13
2.15744e-13
1.90449e-13
1.65925e-13
1.4243e-13
1.20215e-13
9.95193e-14
8.05628e-14
6.35336e-14
4.85784e-14
3.57911e-14
2.52024e-14
1.6771e-14
1.03783e-14
5.82873e-15
2.85567e-15
1.13671e-15
3.16845e-16
4.12512e-17
2.40218e-19
2.97988e-19
5.11218e-17
3.91815e-16
1.40128e-15
3.50672e-15
7.12611e-15
1.26282e-14
2.03055e-14
3.03597e-14
4.28963e-14
5.79278e-14
7.53819e-14
9.51138e-14
1.16919e-13
1.40547e-13
1.65715e-13
1.92119e-13
2.19441e-13
2.47364e-13
2.7557e-13
3.03754e-13
3.31621e-13
3.58895e-13
3.85317e-13
4.10647e-13
4.34668e-13
4.57185e-13
4.78022e-13
4.97026e-13
5.14068e-13
5.29034e-13
5.41835e-13
5.52398e-13
5.60671e-13
5.66615e-13
5.70216e-13
5.71473e-13
5.70395e-13
5.67011e-13
5.61361e-13
5.53499e-13
5.43491e-13
5.31416e-13
5.17366e-13
5.01443e-13
4.83761e-13
4.64445e-13
4.43633e-13
4.21475e-13
3.98131e-13
3.73775e-13
3.48594e-13
3.22784e-13
2.96557e-13
2.70137e-13
2.43756e-13
2.1766e-13
1.92099e-13
1.67331e-13
1.43612e-13
1.21193e-13
1.00316e-13
8.11975e-14
6.4027e-14
4.89506e-14
3.60619e-14
2.53907e-14
1.68948e-14
1.04541e-14
5.87077e-15
2.87604e-15
1.14473e-15
3.19059e-16
4.15373e-17
2.41878e-19
3.07369e-19
5.27297e-17
4.04117e-16
1.44518e-15
3.61626e-15
7.34798e-15
1.30198e-14
2.09323e-14
3.12916e-14
4.42044e-14
5.96806e-14
7.76423e-14
9.79361e-14
1.20347e-13
1.44612e-13
1.70436e-13
1.97498e-13
2.25472e-13
2.54023e-13
2.82824e-13
3.11557e-13
3.3992e-13
3.67626e-13
3.94412e-13
4.20032e-13
4.44268e-13
4.66921e-13
4.87817e-13
5.06805e-13
5.23757e-13
5.38564e-13
5.51142e-13
5.61425e-13
5.69366e-13
5.74929e-13
5.78118e-13
5.78931e-13
5.77388e-13
5.73523e-13
5.67384e-13
5.59031e-13
5.48537e-13
5.35988e-13
5.21478e-13
5.05114e-13
4.87015e-13
4.67308e-13
4.46134e-13
4.23643e-13
3.99997e-13
3.75369e-13
3.49945e-13
3.23921e-13
2.97508e-13
2.70927e-13
2.44409e-13
2.18195e-13
1.92536e-13
1.67685e-13
1.43897e-13
1.21421e-13
1.00496e-13
8.13378e-14
6.41342e-14
4.90305e-14
3.61195e-14
2.54305e-14
1.69207e-14
1.04698e-14
5.87936e-15
2.88012e-15
1.14631e-15
3.19483e-16
4.15908e-17
2.42185e-19
3.165e-19
5.42947e-17
4.16089e-16
1.48788e-15
3.72278e-15
7.56356e-15
1.33999e-14
2.15398e-14
3.21932e-14
4.5467e-14
6.13676e-14
7.98104e-14
1.00632e-13
1.23607e-13
1.48458e-13
1.74876e-13
2.02526e-13
2.31067e-13
2.60153e-13
2.89443e-13
3.1861e-13
3.47341e-13
3.75345e-13
4.0235e-13
4.28111e-13
4.52406e-13
4.75036e-13
4.95832e-13
5.14643e-13
5.31347e-13
5.45842e-13
5.58049e-13
5.67912e-13
5.75388e-13
5.80455e-13
5.83126e-13
5.83405e-13
5.81321e-13
5.76917e-13
5.70248e-13
5.61381e-13
5.50397e-13
5.37386e-13
5.2245e-13
5.05698e-13
4.87252e-13
4.67243e-13
4.45811e-13
4.23106e-13
3.9929e-13
3.74534e-13
3.49022e-13
3.22949e-13
2.96519e-13
2.6995e-13
2.43469e-13
2.17313e-13
1.91727e-13
1.6696e-13
1.43262e-13
1.20878e-13
1.00043e-13
8.09702e-14
6.38448e-14
4.88102e-14
3.59582e-14
2.53177e-14
1.68461e-14
1.04238e-14
5.85361e-15
2.8675e-15
1.14127e-15
3.1807e-16
4.14058e-17
2.41104e-19
3.25428e-19
5.58249e-17
4.27793e-16
1.52963e-15
3.82686e-15
7.77408e-15
1.37708e-14
2.21316e-14
3.30698e-14
4.66915e-14
6.29986e-14
8.18986e-14
1.03218e-13
1.26716e-13
1.52104e-13
1.79056e-13
2.07224e-13
2.36249e-13
2.65774e-13
2.95447e-13
3.24929e-13
3.539e-13
3.82062e-13
4.0914e-13
4.34886e-13
4.59079e-13
4.81524e-13
5.02051e-13
5.2052e-13
5.36812e-13
5.50835e-13
5.6252e-13
5.71818e-13
5.78691e-13
5.83145e-13
5.85188e-13
5.84839e-13
5.82135e-13
5.7713e-13
5.69888e-13
5.60486e-13
5.49009e-13
5.35555e-13
5.20228e-13
5.03143e-13
4.84423e-13
4.642e-13
4.42614e-13
4.19816e-13
3.95964e-13
3.71227e-13
3.45785e-13
3.19826e-13
2.93551e-13
2.6717e-13
2.40905e-13
2.14984e-13
1.89645e-13
1.65131e-13
1.41684e-13
1.19545e-13
9.89411e-14
8.00822e-14
6.31488e-14
4.8282e-14
3.55723e-14
2.50484e-14
1.66684e-14
1.03147e-14
5.79269e-15
2.83778e-15
1.12946e-15
3.14782e-16
4.09773e-17
2.38606e-19
3.34204e-19
5.73289e-17
4.39298e-16
1.57065e-15
3.92914e-15
7.98084e-15
1.41346e-14
2.27115e-14
3.3927e-14
4.78856e-14
6.45837e-14
8.39195e-14
1.05707e-13
1.29692e-13
1.5557e-13
1.82998e-13
2.11612e-13
2.41039e-13
2.70909e-13
3.00855e-13
3.30531e-13
3.5961e-13
3.87786e-13
4.14785e-13
4.40357e-13
4.64284e-13
4.86372e-13
5.06461e-13
5.24416e-13
5.40128e-13
5.53516e-13
5.64521e-13
5.73105e-13
5.79238e-13
5.82955e-13
5.84259e-13
5.83186e-13
5.79787e-13
5.74124e-13
5.6627e-13
5.56311e-13
5.44339e-13
5.30458e-13
5.14776e-13
4.97412e-13
4.7849e-13
4.58143e-13
4.36511e-13
4.13742e-13
3.89991e-13
3.65422e-13
3.40208e-13
3.14532e-13
2.88585e-13
2.6257e-13
2.36699e-13
2.11192e-13
1.86277e-13
1.62186e-13
1.39155e-13
1.17414e-13
9.71838e-14
7.86678e-14
6.20415e-14
4.74425e-14
3.49594e-14
2.46208e-14
1.63865e-14
1.01417e-14
5.69626e-15
2.79081e-15
1.11084e-15
3.09602e-16
4.03034e-17
2.34681e-19
3.42879e-19
5.88158e-17
4.50672e-16
1.61122e-15
4.03026e-15
8.18518e-15
1.4494e-14
2.32833e-14
3.47705e-14
4.90573e-14
6.61332e-14
8.58858e-14
1.08115e-13
1.32552e-13
1.58874e-13
1.8672e-13
2.15711e-13
2.45457e-13
2.75573e-13
3.05684e-13
3.35431e-13
3.6448e-13
3.92526e-13
4.19289e-13
4.44523e-13
4.68012e-13
4.89571e-13
5.09046e-13
5.26312e-13
5.41274e-13
5.5386e-13
5.64026e-13
5.71736e-13
5.77004e-13
5.79855e-13
5.80313e-13
5.78425e-13
5.74254e-13
5.67874e-13
5.59369e-13
5.48833e-13
5.36366e-13
5.22075e-13
5.06077e-13
4.88491e-13
4.69443e-13
4.49067e-13
4.27499e-13
4.04884e-13
3.81371e-13
3.57119e-13
3.32294e-13
3.07067e-13
2.81622e-13
2.56151e-13
2.30854e-13
2.05939e-13
1.81623e-13
1.58127e-13
1.35674e-13
1.14485e-13
9.47709e-14
7.67271e-14
6.05229e-14
4.62916e-14
3.41195e-14
2.40351e-14
1.60005e-14
9.90494e-15
5.56434e-15
2.72661e-15
1.08541e-15
3.02537e-16
3.9385e-17
2.29335e-19
3.51505e-19
6.02945e-17
4.61987e-16
1.65159e-15
4.13089e-15
8.38848e-15
1.48512e-14
2.38509e-14
3.5606e-14
5.02144e-14
6.76572e-14
8.78099e-14
1.10457e-13
1.35312e-13
1.62032e-13
1.90241e-13
2.19538e-13
2.49519e-13
2.79783e-13
3.09944e-13
3.39635e-13
3.68517e-13
3.96281e-13
4.22649e-13
4.47376e-13
4.70254e-13
4.91106e-13
5.09789e-13
5.2619e-13
5.40227e-13
5.51845e-13
5.61009e-13
5.67697e-13
5.71969e-13
5.73832e-13
5.73335e-13
5.70541e-13
5.65526e-13
5.58375e-13
5.49184e-13
5.38055e-13
5.25095e-13
5.1042e-13
4.94148e-13
4.76402e-13
4.57309e-13
4.36999e-13
4.15606e-13
3.9327e-13
3.70135e-13
3.4635e-13
3.22071e-13
2.97461e-13
2.72691e-13
2.47938e-13
2.23392e-13
1.99246e-13
1.75702e-13
1.52969e-13
1.31255e-13
1.10768e-13
9.17106e-14
7.42665e-14
5.8598e-14
4.48329e-14
3.30551e-14
2.3293e-14
1.55115e-14
9.60516e-15
5.39741e-15
2.64541e-15
1.05327e-15
2.93614e-16
3.82257e-17
2.22589e-19
3.60132e-19
6.17735e-17
4.73309e-16
1.692e-15
4.23165e-15
8.592e-15
1.52085e-14
2.4418e-14
3.64388e-14
5.13639e-14
6.91648e-14
8.97027e-14
1.12745e-13
1.37985e-13
1.65061e-13
1.93573e-13
2.23106e-13
2.53235e-13
2.83546e-13
3.13642e-13
3.43148e-13
3.7172e-13
3.99047e-13
4.24855e-13
4.48905e-13
4.70995e-13
4.90961e-13
5.08672e-13
5.24031e-13
5.3697e-13
5.47453e-13
5.55444e-13
5.60991e-13
5.64124e-13
5.64881e-13
5.63328e-13
5.59544e-13
5.53619e-13
5.4565e-13
5.35744e-13
5.24013e-13
5.10573e-13
4.95544e-13
4.79047e-13
4.61207e-13
4.4215e-13
4.22005e-13
4.00901e-13
3.7897e-13
3.5635e-13
3.3318e-13
3.09605e-13
2.85774e-13
2.61846e-13
2.37984e-13
2.1436e-13
1.91154e-13
1.6855e-13
1.46742e-13
1.25923e-13
1.06286e-13
8.8021e-14
7.13005e-14
5.62777e-14
4.30748e-14
3.17722e-14
2.23987e-14