/*--------------------------------*- C++ -*----------------------------------*\
  =========                 |
  \\      /  F ield         | OpenFOAM: The Open Source CFD Toolbox
   \\    /   O peration     | Website:  https://openfoam.org
    \\  /    A nd           | Version:  12
     \\/     M anipulation  |
\*---------------------------------------------------------------------------*/
FoamFile
{
    format      ascii;
    class       volScalarField;
    location    "6.5";
    object      p;
}
// * * * * * * * * * * * * * * * * * * * * * * * * * * * * * * * * * * * * * //

dimensions      [0 2 -2 0 0 0 0];

internalField   nonuniform List<scalar> 
5625
(
-1.2565e-09
2.61705e-07
1.3435e-06
3.23405e-06
5.67257e-06
8.42866e-06
1.13198e-05
1.41932e-05
1.6918e-05
1.93851e-05
2.15048e-05
2.32044e-05
2.44269e-05
2.51278e-05
2.52743e-05
2.48436e-05
2.38213e-05
2.22004e-05
1.99808e-05
1.71676e-05
1.37713e-05
9.80655e-06
5.29191e-06
2.49221e-07
-5.29666e-06
-1.13184e-05
-1.77862e-05
-2.46687e-05
-3.19322e-05
-3.95422e-05
-4.74624e-05
-5.56556e-05
-6.40837e-05
-7.27077e-05
-8.1488e-05
-9.03845e-05
-9.93568e-05
-0.000108364
-0.000117366
-0.000126321
-0.000135189
-0.000143928
-0.0001525
-0.000160864
-0.000168982
-0.000176815
-0.000184326
-0.000191479
-0.000198239
-0.000204574
-0.000210451
-0.000215843
-0.000220722
-0.000225065
-0.00022885
-0.00023206
-0.000234683
-0.000236709
-0.000238135
-0.000238963
-0.000239203
-0.000238871
-0.000237993
-0.000236604
-0.000234752
-0.000232495
-0.00022991
-0.000227088
-0.00022414
-0.000221198
-0.000218414
-0.00021597
-0.000214094
-0.00021304
-0.000212803
-3.55926e-06
-2.85276e-06
-1.62058e-06
7.53234e-08
2.09895e-06
4.31209e-06
6.59017e-06
8.8222e-06
1.09102e-05
1.27695e-05
1.43278e-05
1.55251e-05
1.63121e-05
1.66497e-05
1.65077e-05
1.5864e-05
1.47038e-05
1.30187e-05
1.08064e-05
8.0693e-06
4.81478e-06
1.05414e-06
-3.1976e-06
-7.92226e-06
-1.30987e-05
-1.87033e-05
-2.47101e-05
-3.10914e-05
-3.78173e-05
-4.48568e-05
-5.21775e-05
-5.97457e-05
-6.75268e-05
-7.54855e-05
-8.35857e-05
-9.1791e-05
-0.000100064
-0.000108369
-0.000116667
-0.000124921
-0.000133094
-0.00014115
-0.000149052
-0.000156763
-0.00016425
-0.000171477
-0.000178411
-0.000185019
-0.000191273
-0.000197141
-0.000202597
-0.000207617
-0.000212176
-0.000216255
-0.000219837
-0.000222909
-0.00022546
-0.000227485
-0.000228983
-0.000229959
-0.000230422
-0.00023039
-0.000229887
-0.000228945
-0.000227606
-0.000225921
-0.000223952
-0.000221772
-0.000219469
-0.000217141
-0.000214899
-0.000212867
-0.000211185
-0.000209988
-0.000209318
-9.52028e-06
-8.03731e-06
-6.17192e-06
-4.18814e-06
-2.13009e-06
-4.63095e-08
1.99329e-06
3.91699e-06
5.65879e-06
7.15952e-06
8.36682e-06
9.23542e-06
9.72714e-06
9.81071e-06
9.46143e-06
8.66078e-06
7.39598e-06
5.65957e-06
3.44895e-06
7.6598e-07
-2.38347e-06
-5.98981e-06
-1.00402e-05
-1.45187e-05
-1.94069e-05
-2.46838e-05
-3.03262e-05
-3.63091e-05
-4.26059e-05
-4.91883e-05
-5.60269e-05
-6.30911e-05
-7.03493e-05
-7.77692e-05
-8.53177e-05
-9.29614e-05
-0.000100666
-0.000108398
-0.000116124
-0.000123808
-0.000131416
-0.000138916
-0.000146273
-0.000153456
-0.000160431
-0.000167169
-0.000173637
-0.000179809
-0.000185656
-0.000191152
-0.000196274
-0.000200998
-0.000205306
-0.000209179
-0.000212603
-0.000215567
-0.000218063
-0.000220086
-0.000221637
-0.000222719
-0.000223342
-0.00022352
-0.000223275
-0.000222632
-0.000221625
-0.000220294
-0.000218685
-0.000216853
-0.000214858
-0.000212767
-0.000210652
-0.000208585
-0.000206616
-0.000204789
-0.000203358
-1.64337e-05
-1.40613e-05
-1.13565e-05
-8.80907e-06
-6.40415e-06
-4.12522e-06
-2.00477e-06
-8.72088e-08
1.58559e-06
2.97545e-06
4.04747e-06
4.77068e-06
5.11833e-06
5.06827e-06
4.60288e-06
3.70905e-06
2.37797e-06
6.05039e-07
-1.61055e-06
-4.26583e-06
-7.35458e-06
-1.08673e-05
-1.47918e-05
-1.9113e-05
-2.38137e-05
-2.88743e-05
-3.42735e-05
-3.99879e-05
-4.59928e-05
-5.22621e-05
-5.87684e-05
-6.54831e-05
-7.23772e-05
-7.94203e-05
-8.65819e-05
-9.38308e-05
-0.000101136
-0.000108464
-0.000115785
-0.000123067
-0.000130277
-0.000137385
-0.00014436
-0.000151171
-0.000157789
-0.000164185
-0.000170331
-0.000176201
-0.000181768
-0.000187011
-0.000191905
-0.000196431
-0.00020057
-0.000204308
-0.000207629
-0.000210523
-0.000212982
-0.000215002
-0.000216581
-0.000217723
-0.000218432
-0.000218721
-0.000218603
-0.000218098
-0.000217231
-0.000216029
-0.000214525
-0.000212756
-0.000210761
-0.000208584
-0.00020627
-0.000203853
-0.000201319
-0.000198657
-0.000196339
-2.30502e-05
-1.9809e-05
-1.62363e-05
-1.30414e-05
-1.01696e-05
-7.55616e-06
-5.20745e-06
-3.14888e-06
-1.40434e-06
4.52647e-09
1.05735e-06
1.73557e-06
2.02292e-06
1.90604e-06
1.3745e-06
4.21096e-07
-9.58332e-07
-2.76472e-06
-4.99613e-06
-7.64756e-06
-1.07114e-05
-1.41774e-05
-1.8033e-05
-2.22631e-05
-2.68509e-05
-3.17775e-05
-3.70223e-05
-4.25632e-05
-4.83766e-05
-5.44377e-05
-6.07208e-05
-6.71988e-05
-7.38442e-05
-8.06286e-05
-8.75232e-05
-9.44985e-05
-0.000101525
-0.000108573
-0.000115612
-0.000122613
-0.000129546
-0.000136381
-0.00014309
-0.000149644
-0.000156016
-0.000162177
-0.000168103
-0.000173768
-0.000179149
-0.000184222
-0.000188967
-0.000193365
-0.000197398
-0.00020105
-0.000204309
-0.000207162
-0.000209602
-0.000211622
-0.000213219
-0.000214393
-0.000215147
-0.000215486
-0.00021542
-0.000214961
-0.000214124
-0.000212927
-0.00021139
-0.000209536
-0.000207386
-0.000204968
-0.000202308
-0.000199413
-0.000196224
-0.000192688
-0.000189496
-2.85481e-05
-2.45091e-05
-2.01144e-05
-1.62698e-05
-1.28939e-05
-9.88673e-06
-7.23753e-06
-4.95929e-06
-3.0633e-06
-1.55894e-06
-4.55268e-07
2.392e-07
5.17137e-07
3.72917e-07
-1.97178e-07
-1.1947e-06
-2.619e-06
-4.46711e-06
-6.73385e-06
-9.41172e-06
-1.24911e-05
-1.59603e-05
-1.98056e-05
-2.40116e-05
-2.85608e-05
-3.34345e-05
-3.86124e-05
-4.40727e-05
-4.97925e-05
-5.57479e-05
-6.1914e-05
-6.82648e-05
-7.4774e-05
-8.14143e-05
-8.81583e-05
-9.49779e-05
-0.000101845
-0.000108731
-0.000115607
-0.000122446
-0.000129218
-0.000135897
-0.000142453
-0.000148861
-0.000155094
-0.000161126
-0.000166931
-0.000172487
-0.00017777
-0.000182758
-0.000187431
-0.00019177
-0.000195758
-0.000199378
-0.000202617
-0.000205463
-0.000207906
-0.000209937
-0.000211552
-0.000212747
-0.000213521
-0.000213874
-0.000213811
-0.000213337
-0.000212459
-0.000211187
-0.000209531
-0.000207502
-0.000205111
-0.000202371
-0.000199296
-0.000195879
-0.000192022
-0.000187647
-0.000183645
-3.23659e-05
-2.76148e-05
-2.24724e-05
-1.80167e-05
-1.41478e-05
-1.07396e-05
-7.77007e-06
-5.24444e-06
-3.16539e-06
-1.53342e-06
-3.49054e-07
3.87128e-07
6.75111e-07
5.15834e-07
-8.84946e-08
-1.13426e-06
-2.61624e-06
-4.52761e-06
-6.8598e-06
-9.60258e-06
-1.2744e-05
-1.62706e-05
-2.01671e-05
-2.44169e-05
-2.90021e-05
-3.39032e-05
-3.90996e-05
-4.45697e-05
-5.02906e-05
-5.62388e-05
-6.23897e-05
-6.87182e-05
-7.51985e-05
-8.18042e-05
-8.85086e-05
-9.52846e-05
-0.000102105
-0.000108942
-0.000115769
-0.000122558
-0.000129282
-0.000135913
-0.000142426
-0.000148794
-0.000154991
-0.000160993
-0.000166774
-0.000172312
-0.000177585
-0.000182569
-0.000187246
-0.000191596
-0.000195602
-0.000199245
-0.000202513
-0.000205391
-0.000207868
-0.000209933
-0.000211578
-0.000212797
-0.000213585
-0.000213939
-0.000213856
-0.000213337
-0.000212382
-0.000210995
-0.000209177
-0.000206931
-0.000204259
-0.000201167
-0.000197661
-0.000193721
-0.000189226
-0.000184078
-0.000179342
-3.40978e-05
-2.87183e-05
-2.29096e-05
-1.79002e-05
-1.35761e-05
-9.79108e-06
-6.51563e-06
-3.75003e-06
-1.49112e-06
2.67071e-07
1.53048e-06
2.30474e-06
2.59576e-06
2.40998e-06
1.75474e-06
6.38262e-07
-9.30037e-07
-2.93965e-06
-5.3787e-06
-8.23417e-06
-1.14916e-05
-1.51355e-05
-1.91489e-05
-2.35139e-05
-2.82112e-05
-3.32208e-05
-3.85212e-05
-4.40905e-05
-4.99057e-05
-5.59431e-05
-6.21782e-05
-6.85863e-05
-7.51416e-05
-8.18185e-05
-8.85904e-05
-9.54311e-05
-0.000102314
-0.000109212
-0.000116098
-0.000122946
-0.000129728
-0.00013642
-0.000142993
-0.000149424
-0.000155686
-0.000161755
-0.000167607
-0.000173218
-0.000178566
-0.00018363
-0.000188388
-0.00019282
-0.000196909
-0.000200636
-0.000203986
-0.000206943
-0.000209493
-0.000211625
-0.000213326
-0.000214589
-0.000215403
-0.000215762
-0.00021566
-0.000215091
-0.000214052
-0.000212538
-0.000210548
-0.000208076
-0.000205119
-0.000201677
-0.000197752
-0.000193317
-0.00018823
-0.000182378
-0.000176985
-3.34271e-05
-2.74962e-05
-2.11016e-05
-1.56034e-05
-1.08766e-05
-6.75847e-06
-3.21398e-06
-2.40218e-07
2.17017e-06
4.02799e-06
5.34421e-06
6.12946e-06
6.3945e-06
6.15046e-06
5.40908e-06
4.18273e-06
2.48461e-06
3.28722e-07
-2.26994e-06
-5.29556e-06
-8.73123e-06
-1.25592e-05
-1.67608e-05
-2.13164e-05
-2.62054e-05
-3.14067e-05
-3.68981e-05
-4.26568e-05
-4.86594e-05
-5.48819e-05
-6.12996e-05
-6.78875e-05
-7.46202e-05
-8.14719e-05
-8.84164e-05
-9.54275e-05
-0.000102479
-0.000109544
-0.000116596
-0.000123609
-0.000130556
-0.000137412
-0.00014415
-0.000150744
-0.000157171
-0.000163404
-0.00016942
-0.000175195
-0.000180707
-0.000185932
-0.000190851
-0.000195441
-0.000199684
-0.00020356
-0.000207051
-0.000210142
-0.000212816
-0.000215058
-0.000216855
-0.000218193
-0.000219062
-0.00021945
-0.000219348
-0.000218745
-0.000217635
-0.000216008
-0.000213857
-0.000211174
-0.00020795
-0.00020418
-0.000199866
-0.000194975
-0.000189347
-0.00018286
-0.000176874
-3.00831e-05
-2.3671e-05
-1.67677e-05
-1.08494e-05
-5.78132e-06
-1.38657e-06
2.37431e-06
5.50665e-06
8.02105e-06
9.93228e-06
1.12554e-05
1.20053e-05
1.21968e-05
1.18451e-05
1.0966e-05
9.57546e-06
7.69022e-06
5.32756e-06
2.50541e-06
-7.57607e-07
-4.44223e-06
-8.52847e-06
-1.29957e-05
-1.78226e-05
-2.29872e-05
-2.84669e-05
-3.42388e-05
-4.0279e-05
-4.65636e-05
-5.30677e-05
-5.97666e-05
-6.66347e-05
-7.36465e-05
-8.07761e-05
-8.79972e-05
-9.52836e-05
-0.000102609
-0.000109947
-0.00011727
-0.000124554
-0.00013177
-0.000138894
-0.000145898
-0.000152759
-0.000159449
-0.000165944
-0.00017222
-0.000178252
-0.000184017
-0.000189492
-0.000194654
-0.000199482
-0.000203955
-0.000208051
-0.000211753
-0.000215041
-0.000217897
-0.000220304
-0.000222246
-0.000223707
-0.000224672
-0.000225128
-0.000225061
-0.000224458
-0.000223307
-0.000221597
-0.000219315
-0.00021645
-0.000212991
-0.00020893
-0.000204265
-0.000198962
-0.000192845
-0.000185784
-0.000179262
-2.38115e-05
-1.69843e-05
-9.64803e-06
-3.38122e-06
1.95966e-06
6.56444e-06
1.04766e-05
1.37036e-05
1.62591e-05
1.81612e-05
1.94288e-05
2.00805e-05
2.01347e-05
1.96106e-05
1.85273e-05
1.69045e-05
1.4762e-05
1.21202e-05
9.00001e-06
5.42264e-06
1.40973e-06
-3.01647e-06
-7.83344e-06
-1.30181e-05
-1.85469e-05
-2.4396e-05
-3.05413e-05
-3.69579e-05
-4.3621e-05
-5.05052e-05
-5.7585e-05
-6.48346e-05
-7.22279e-05
-7.97387e-05
-8.73407e-05
-9.50072e-05
-0.000102712
-0.000110428
-0.000118129
-0.000125788
-0.000133379
-0.000140875
-0.00014825
-0.000155479
-0.000162534
-0.000169391
-0.000176025
-0.00018241
-0.000188522
-0.000194337
-0.000199832
-0.000204983
-0.000209768
-0.000214165
-0.000218152
-0.000221709
-0.000224816
-0.000227454
-0.000229602
-0.000231244
-0.00023236
-0.000232936
-0.000232953
-0.000232396
-0.00023125
-0.000229499
-0.000227129
-0.000224125
-0.000220473
-0.000216164
-0.000211194
-0.000205525
-0.00019897
-0.000191388
-0.000184379
-1.43555e-05
-7.17848e-06
5.13674e-07
7.05267e-06
1.25906e-05
1.73291e-05
2.1316e-05
2.4561e-05
2.70808e-05
2.88969e-05
3.00317e-05
3.05075e-05
3.03463e-05
2.95707e-05
2.82033e-05
2.62671e-05
2.37852e-05
2.07809e-05
1.72778e-05
1.32998e-05
8.87087e-06
4.01543e-06
-1.24204e-06
-6.87667e-06
-1.28635e-05
-1.91772e-05
-2.57924e-05
-3.26833e-05
-3.98242e-05
-4.71889e-05
-5.47513e-05
-6.24848e-05
-7.03632e-05
-7.83597e-05
-8.64476e-05
-9.46e-05
-0.00010279
-0.000110991
-0.000119176
-0.000127317
-0.000135389
-0.000143364
-0.000151215
-0.000158916
-0.000166441
-0.000173762
-0.000180855
-0.000187693
-0.000194251
-0.000200502
-0.000206424
-0.00021199
-0.000217177
-0.000221961
-0.000226319
-0.000230227
-0.000233663
-0.000236606
-0.000239034
-0.000240926
-0.000242262
-0.000243021
-0.000243184
-0.000242733
-0.000241648
-0.000239913
-0.000237508
-0.000234417
-0.000230624
-0.000226116
-0.00022089
-0.000214905
-0.00020796
-0.000199906
-0.000192452
-1.4423e-06
6.01585e-06
1.39813e-05
2.07088e-05
2.63587e-05
3.11442e-05
3.51172e-05
3.82906e-05
4.06843e-05
4.23235e-05
4.32342e-05
4.34423e-05
4.29735e-05
4.1854e-05
4.01099e-05
3.77672e-05
3.48522e-05
3.13913e-05
2.74107e-05
2.29368e-05
1.7996e-05
1.26147e-05
6.81955e-06
6.36885e-07
-5.90666e-06
-1.27845e-05
-1.997e-05
-2.74364e-05
-3.5157e-05
-4.31049e-05
-5.12532e-05
-5.95751e-05
-6.80434e-05
-7.6631e-05
-8.5311e-05
-9.40559e-05
-0.000102839
-0.000111632
-0.000120409
-0.000129141
-0.000137802
-0.000146363
-0.000154799
-0.00016308
-0.000171181
-0.000179074
-0.000186731
-0.000194127
-0.000201234
-0.000208025
-0.000214474
-0.000220555
-0.000226241
-0.000231508
-0.000236329
-0.000240679
-0.000244534
-0.00024787
-0.000250661
-0.000252885
-0.000254518
-0.000255537
-0.00025592
-0.000255646
-0.000254692
-0.000253037
-0.000250662
-0.000247546
-0.00024367
-0.000239021
-0.000233593
-0.000227342
-0.000220056
-0.000211578
-0.000203716
1.52252e-05
2.28879e-05
3.10341e-05
3.78554e-05
4.35204e-05
4.82528e-05
5.211e-05
5.51081e-05
5.7271e-05
5.86278e-05
5.92087e-05
5.90432e-05
5.81612e-05
5.65922e-05
5.43658e-05
5.15116e-05
4.80589e-05
4.40369e-05
3.94747e-05
3.4401e-05
2.88447e-05
2.28341e-05
1.63977e-05
9.56346e-06
2.35963e-06
-5.18609e-06
-1.30458e-05
-2.11919e-05
-2.95967e-05
-3.82328e-05
-4.70725e-05
-5.60885e-05
-6.52531e-05
-7.4539e-05
-8.39185e-05
-9.33641e-05
-0.000102848
-0.000112343
-0.00012182
-0.000131253
-0.000140614
-0.000149873
-0.000159004
-0.000167977
-0.000176765
-0.00018534
-0.000193673
-0.000201737
-0.000209502
-0.000216941
-0.000224026
-0.000230729
-0.000237021
-0.000242874
-0.000248262
-0.000253156
-0.00025753
-0.000261355
-0.000264606
-0.000267255
-0.000269276
-0.000270644
-0.000271334
-0.000271319
-0.000270575
-0.00026908
-0.000266808
-0.000263738
-0.000259848
-0.000255121
-0.000249552
-0.000243092
-0.000235517
-0.000226661
-0.00021843
3.59741e-05
4.37522e-05
5.19714e-05
5.87765e-05
6.43441e-05
6.8908e-05
7.25311e-05
7.52343e-05
7.70457e-05
7.79991e-05
7.81291e-05
7.74696e-05
7.60544e-05
7.39168e-05
7.10903e-05
6.76077e-05
6.35015e-05
5.8804e-05
5.35468e-05
4.77611e-05
4.14781e-05
3.47279e-05
2.75409e-05
1.99465e-05
1.19743e-05
3.65324e-06
-4.98789e-06
-1.39207e-05
-2.31167e-05
-3.25479e-05
-4.21861e-05
-5.20037e-05
-6.19725e-05
-7.20649e-05
-8.22529e-05
-9.25087e-05
-0.000102804
-0.000113111
-0.000123402
-0.000133648
-0.00014382
-0.00015389
-0.00016383
-0.00017361
-0.000183201
-0.000192574
-0.0002017
-0.000210548
-0.000219088
-0.000227292
-0.000235129
-0.000242569
-0.000249582
-0.000256137
-0.000262205
-0.000267755
-0.000272758
-0.000277183
-0.000281
-0.000284181
-0.000286694
-0.000288512
-0.000289606
-0.000289947
-0.000289507
-0.000288259
-0.000286177
-0.000283235
-0.000279407
-0.000274676
-0.000269033
-0.000262426
-0.000254618
-0.000245437
-0.000236875
6.11646e-05
6.89511e-05
7.71147e-05
8.37736e-05
8.91117e-05
9.33721e-05
9.66241e-05
9.8894e-05
0.000100215
0.000100627
0.000100169
9.88786e-05
9.67953e-05
9.39562e-05
9.03986e-05
8.61587e-05
8.12725e-05
7.57749e-05
6.97004e-05
6.30825e-05
5.59544e-05
4.83483e-05
4.02958e-05
3.1828e-05
2.29755e-05
1.37681e-05
4.23545e-06
-5.59333e-06
-1.56894e-05
-2.60243e-05
-3.65697e-05
-4.72974e-05
-5.81793e-05
-6.91876e-05
-8.0294e-05
-9.14706e-05
-0.000102689
-0.000113921
-0.000125139
-0.000136312
-0.000147413
-0.000158412
-0.000169279
-0.000179985
-0.0001905
-0.000200792
-0.000210832
-0.000220588
-0.000230028
-0.000239121
-0.000247835
-0.000256138
-0.000263997
-0.000271379
-0.000278252
-0.000284583
-0.000290338
-0.000295485
-0.00029999
-0.00030382
-0.000306943
-0.000309325
-0.000310935
-0.000311741
-0.00031171
-0.000310813
-0.000309018
-0.000306297
-0.00030262
-0.000297968
-0.000292328
-0.000285643
-0.000277667
-0.000268217
-0.000259369
9.11908e-05
9.88551e-05
0.000106808
0.000113165
0.000118118
0.000121916
0.000124638
0.000126314
0.000126986
0.000126699
0.000125496
0.000123422
0.00012052
0.000116832
0.000112399
0.000107261
0.000101457
9.50253e-05
8.80026e-05
8.04248e-05
7.23269e-05
6.37428e-05
5.47054e-05
4.5247e-05
3.53989e-05
2.51918e-05
1.46557e-05
3.82007e-06
-7.28613e-06
-1.86342e-05
-3.01958e-05
-4.19429e-05
-5.38475e-05
-6.58816e-05
-7.80173e-05
-9.02265e-05
-0.000102481
-0.000114752
-0.000127012
-0.00013923
-0.000151379
-0.000163426
-0.000175344
-0.000187101
-0.000198665
-0.000210005
-0.000221088
-0.000231883
-0.000242355
-0.000252472
-0.000262198
-0.000271499
-0.000280341
-0.000288687
-0.000296502
-0.000303751
-0.000310395
-0.000316399
-0.000321727
-0.000326341
-0.000330204
-0.000333281
-0.000335534
-0.000336928
-0.000337427
-0.000336996
-0.0003356
-0.000333206
-0.000329782
-0.000325303
-0.000319754
-0.000313072
-0.000305001
-0.000295348
-0.000286266
0.00012648
0.000133862
0.000141416
0.000147285
0.000151667
0.000154818
0.000156823
0.000157722
0.000157562
0.000156395
0.000154273
0.000151243
0.000147356
0.000142656
0.00013719
0.000131001
0.000124131
0.000116622
0.000108512
9.984e-05
9.06421e-05
8.09536e-05
7.08085e-05
6.02398e-05
4.92793e-05
3.79579e-05
2.63057e-05
1.43523e-05
2.12621e-06
-1.0344e-05
-2.30305e-05
-3.59056e-05
-4.89416e-05
-6.21111e-05
-7.53866e-05
-8.87401e-05
-0.000102144
-0.000115569
-0.000128988
-0.000142371
-0.000155688
-0.000168909
-0.000182004
-0.00019494
-0.000207685
-0.000220207
-0.000232472
-0.000244444
-0.00025609
-0.000267374
-0.000278258
-0.000288706
-0.000298679
-0.00030814
-0.000317048
-0.000325366
-0.000333051
-0.000340065
-0.000346366
-0.000351914
-0.000356667
-0.000360584
-0.000363625
-0.000365748
-0.000366914
-0.000367082
-0.000366213
-0.00036427
-0.000361214
-0.000357018
-0.000351661
-0.000345077
-0.000336995
-0.000327217
-0.00031796
0.000167489
0.000174393
0.000181318
0.000186477
0.000190068
0.000192354
0.000193426
0.000193334
0.000192135
0.000189887
0.000186647
0.000182471
0.000177412
0.000171523
0.000164852
0.000157447
0.000149354
0.000140616
0.000131274
0.000121368
0.000110936
0.000100014
8.86366e-05
7.68371e-05
6.46472e-05
5.20978e-05
3.92183e-05
2.60378e-05
1.25842e-05
-1.11496e-06
-1.50326e-05
-2.91417e-05
-4.34159e-05
-5.78283e-05
-7.23523e-05
-8.69608e-05
-0.000101626
-0.000116321
-0.000131017
-0.000145685
-0.000160294
-0.000174816
-0.000189217
-0.000203466
-0.000217531
-0.000231375
-0.000244965
-0.000258264
-0.000271236
-0.000283841
-0.00029604
-0.000307795
-0.000319063
-0.000329803
-0.000339972
-0.000349527
-0.000358423
-0.000366616
-0.000374061
-0.000380711
-0.000386521
-0.000391445
-0.000395437
-0.000398451
-0.00040044
-0.00040136
-0.000401166
-0.000399815
-0.000397263
-0.000393476
-0.000388431
-0.000382053
-0.000374063
-0.000364253
-0.000354895
0.0002147
0.000220886
0.000226906
0.000231086
0.000233628
0.000234792
0.000234681
0.000233355
0.000230879
0.00022732
0.000222742
0.000217207
0.000210776
0.000203503
0.000195444
0.000186648
0.000177164
0.000167038
0.000156313
0.00014503
0.000133228
0.000120943
0.000108209
9.50599e-05
8.15262e-05
6.76379e-05
5.34237e-05
3.89109e-05
2.41264e-05
9.09623e-06
-6.154e-06
-2.1599e-05
-3.72136e-05
-5.29726e-05
-6.88503e-05
-8.48212e-05
-0.000100859
-0.000116936
-0.000133026
-0.000149099
-0.000165125
-0.000181076
-0.000196918
-0.000212619
-0.000228145
-0.00024346
-0.000258528
-0.000273311
-0.000287769
-0.000301862
-0.000315549
-0.000328784
-0.000341526
-0.000353726
-0.00036534
-0.000376319
-0.000386615
-0.000396177
-0.000404955
-0.000412899
-0.000419957
-0.000426077
-0.000431207
-0.000435295
-0.000438288
-0.000440136
-0.000440787
-0.000440192
-0.0004383
-0.000435072
-0.000430478
-0.000424438
-0.000416659
-0.000406928
-0.000397558
0.000268607
0.000273786
0.000278566
0.00028145
0.000282636
0.000282382
0.000280799
0.000277959
0.000273938
0.00026881
0.000262649
0.000255523
0.000247497
0.000238633
0.000228987
0.000218615
0.000207566
0.000195889
0.000183628
0.000170823
0.000157515
0.000143738
0.000129527
0.000114914
9.99268e-05
8.45949e-05
6.89447e-05
5.30016e-05
3.67901e-05
2.0334e-05
3.65677e-06
-1.32187e-05
-3.02693e-05
-4.7472e-05
-6.48031e-05
-8.22388e-05
-9.97543e-05
-0.000117324
-0.000134922
-0.000152519
-0.000170088
-0.000187598
-0.000205016
-0.000222311
-0.000239447
-0.000256387
-0.000273094
-0.000289527
-0.000305646
-0.000321406
-0.000336763
-0.000351671
-0.00036608
-0.000379942
-0.000393204
-0.000405815
-0.00041772
-0.000428865
-0.000439192
-0.000448646
-0.000457167
-0.000464697
-0.000471178
-0.000476551
-0.000480756
-0.000483734
-0.000485427
-0.000485778
-0.00048473
-0.000482236
-0.000478258
-0.000472708
-0.000465285
-0.000455768
-0.000446494
0.000329711
0.000333532
0.000336673
0.000337882
0.000337355
0.000335337
0.000331949
0.000327278
0.000321408
0.000314425
0.00030641
0.000297437
0.000287578
0.000276898
0.000265458
0.000253315
0.000240522
0.000227127
0.000213175
0.000198706
0.000183759
0.000168368
0.000152565
0.000136379
0.000119838
0.000102967
8.57898e-05
6.83282e-05
5.06039e-05
3.26375e-05
1.44491e-05
-3.94142e-06
-2.25141e-05
-4.12487e-05
-6.01244e-05
-7.912e-05
-9.82129e-05
-0.00011738
-0.000136596
-0.000155834
-0.000175068
-0.000194267
-0.0002134
-0.000232433
-0.000251332
-0.000270059
-0.000288573
-0.000306835
-0.000324798
-0.000342418
-0.000359647
-0.000376433
-0.000392724
-0.000408467
-0.000423604
-0.000438078
-0.000451829
-0.000464794
-0.000476912
-0.000488118
-0.000498347
-0.000507533
-0.000515608
-0.000522506
-0.00052816
-0.000532502
-0.000535466
-0.000536984
-0.000536993
-0.000535435
-0.000532266
-0.000527388
-0.000520492
-0.000511352
-0.000502305
0.000398493
0.000400536
0.000401562
0.000400654
0.000397997
0.000393817
0.000388244
0.00038138
0.000373323
0.000364166
0.000353999
0.000342903
0.000330954
0.000318221
0.000304769
0.000290656
0.000275936
0.000260656
0.000244861
0.00022859
0.000211878
0.000194758
0.000177259
0.000159406
0.000141222
0.000122729
0.000103947
8.48927e-05
6.55841e-05
4.60372e-05
2.62676e-05
6.291e-06
-1.38767e-05
-3.42192e-05
-5.47194e-05
-7.53594e-05
-9.612e-05
-0.00011698
-0.000137918
-0.00015891
-0.000179928
-0.000200945
-0.00022193
-0.00024285
-0.000263668
-0.000284348
-0.000304848
-0.000325124
-0.00034513
-0.000364818
-0.000384134
-0.000403025
-0.000421433
-0.0004393
-0.000456562
-0.000473156
-0.000489014
-0.000504069
-0.00051825
-0.000531484
-0.000543698
-0.000554817
-0.000564764
-0.000573465
-0.000580841
-0.000586816
-0.000591312
-0.000594254
-0.000595567
-0.000595184
-0.00059305
-0.000589057
-0.000582891
-0.000574319
-0.000565656
0.000475401
0.000475168
0.000473519
0.000469975
0.000464703
0.000457903
0.000449713
0.000440251
0.000429628
0.000417947
0.000405304
0.000391786
0.000377475
0.000362442
0.000346753
0.000330467
0.000313638
0.000296311
0.000278528
0.000260325
0.000241735
0.000222785
0.0002035
0.000183899
0.000164001
0.000143823
0.000123376
0.000102675
8.17297e-05
6.05509e-05
3.91486e-05
1.75331e-05
-4.28517e-06
-2.62948e-05
-4.84837e-05
-7.08384e-05
-9.33439e-05
-0.000115983
-0.000138737
-0.000161584
-0.000184501
-0.00020746
-0.000230433
-0.000253386
-0.000276285
-0.000299091
-0.000321761
-0.000344249
-0.000366508
-0.000388484
-0.000410123
-0.000431364
-0.000452147
-0.000472404
-0.000492069
-0.000511069
-0.000529331
-0.000546776
-0.000563327
-0.0005789
-0.000593414
-0.000606784
-0.000618922
-0.000629741
-0.000639153
-0.00064707
-0.000653404
-0.000658067
-0.000660972
-0.00066204
-0.000661206
-0.00065835
-0.000653153
-0.000645378
-0.000637284
0.00056082
0.000557723
0.000552738
0.000545953
0.000537511
0.000527569
0.000516275
0.000503763
0.000490156
0.000475567
0.000460099
0.000443843
0.000426884
0.000409294
0.000391141
0.000372481
0.000353365
0.000333837
0.000313933
0.000293685
0.000273119
0.000252257
0.000231116
0.00020971
0.000188051
0.000166145
0.000144001
0.000121622
9.90119e-05
7.61745e-05
5.31123e-05
2.98284e-05
6.32646e-06
-1.73877e-05
-4.13088e-05
-6.54291e-05
-8.97389e-05
-0.000114226
-0.000138875
-0.00016367
-0.000188589
-0.000213607
-0.000238699
-0.000263832
-0.000288971
-0.000314077
-0.000339108
-0.000364016
-0.000388749
-0.000413252
-0.000437465
-0.000461325
-0.000484763
-0.000507707
-0.000530081
-0.000551806
-0.0005728
-0.000592975
-0.000612242
-0.000630509
-0.000647682
-0.000663663
-0.000678355
-0.000691656
-0.000703466
-0.000713684
-0.000722208
-0.000728936
-0.000733767
-0.000736612
-0.000737387
-0.000735963
-0.000732015
-0.000725308
-0.000718006
0.000655027
0.000648378
0.000639289
0.000628569
0.000616321
0.000602649
0.000587704
0.00057164
0.000554592
0.000536681
0.000518013
0.000498686
0.000478783
0.000458377
0.000437533
0.000416304
0.000394736
0.000372866
0.000350726
0.000328339
0.000305724
0.000282893
0.000259855
0.000236615
0.000213174
0.000189532
0.000165686
0.00014163
0.000117359
9.28681e-05
6.81498e-05
4.31972e-05
1.80055e-05
-7.42116e-06
-3.30906e-05
-5.90023e-05
-8.51523e-05
-0.000111535
-0.00013814
-0.000164956
-0.000191966
-0.000219149
-0.000246481
-0.000273932
-0.000301469
-0.000329052
-0.000356639
-0.000384179
-0.00041162
-0.000438902
-0.000465961
-0.000492727
-0.000519127
-0.000545081
-0.000570505
-0.000595311
-0.000619405
-0.00064269
-0.000665065
-0.000686427
-0.000706666
-0.000725673
-0.000743334
-0.000759536
-0.000774161
-0.000787092
-0.000798214
-0.000807408
-0.000814558
-0.000819555
-0.000822303
-0.000822656
-0.000820292
-0.000814974
-0.000808726
0.00075816
0.000747156
0.000733077
0.000717624
0.000700851
0.000682786
0.000663584
0.000643416
0.000622431
0.000600753
0.000578493
0.000555748
0.0005326
0.00050912
0.000485365
0.000461385
0.000437216
0.000412888
0.000388421
0.000363829
0.00033912
0.000314295
0.000289352
0.000264284
0.000239081
0.00021373
0.000188215
0.000162522
0.000136633
0.00011053
8.41959e-05
5.76044e-05
3.07621e-05
3.65586e-06
-2.37463e-05
-5.14442e-05
-7.94405e-05
-0.000107737
-0.000136333
-0.000165221
-0.00019439
-0.000223825
-0.000253504
-0.000283402
-0.000313486
-0.000343719
-0.000374056
-0.000404447
-0.000434837
-0.000465163
-0.000495356
-0.000525341
-0.000555036
-0.000584354
-0.000613203
-0.000641482
-0.000669088
-0.000695911
-0.000721836
-0.000746745
-0.000770514
-0.000793018
-0.000814127
-0.000833709
-0.000851629
-0.000867754
-0.000881946
-0.000894071
-0.000903994
-0.000911586
-0.000916731
-0.000919269
-0.000918878
-0.000915327
-0.000910446
0.000870151
0.000853869
0.000833782
0.000812689
0.000790581
0.000767386
0.000743259
0.000718388
0.000692931
0.000667015
0.000640753
0.000614236
0.000587544
0.000560738
0.000533869
0.000506974
0.000480079
0.000453202
0.000426349
0.000399522
0.000372713
0.00034591
0.000319096
0.000292249
0.000265345
0.000238357
0.000211254
0.000184008
0.000156587
0.00012896
0.000101097
7.29678e-05
4.45521e-05
1.58174e-05
-1.32585e-05
-4.26932e-05
-7.25014e-05
-0.000102695
-0.00013328
-0.000164258
-0.000195626
-0.000227374
-0.000259486
-0.00029194
-0.000324707
-0.000357752
-0.00039103
-0.000424491
-0.000458077
-0.000491722
-0.000525353
-0.000558887
-0.000592237
-0.000625306
-0.00065799
-0.000690178
-0.000721753
-0.000752592
-0.000782564
-0.000811533
-0.00083936
-0.000865898
-0.000891
-0.000914513
-0.000936282
-0.000956151
-0.000973963
-0.000989559
-0.00100278
-0.00101349
-0.00102152
-0.00102672
-0.00102877
-0.00102743
-0.00102428
0.000990665
0.000968046
0.000940794
0.000913041
0.000884693
0.000855555
0.000825773
0.000795552
0.000765055
0.000734411
0.000703724
0.000673082
0.000642551
0.000612184
0.000582016
0.00055207
0.000522357
0.000492876
0.000463619
0.000434568
0.000405698
0.00037698
0.000348378
0.000319852
0.000291362
0.000262862
0.000234305
0.000205646
0.000176837
0.00014783
0.000118581
8.90443e-05
5.91797e-05
2.89467e-05
-1.69064e-06
-3.27644e-05
-6.43023e-05
-9.63272e-05
-0.000128857
-0.000161903
-0.00019547
-0.000229557
-0.000264156
-0.000299249
-0.000334813
-0.000370814
-0.000407212
-0.000443954
-0.000480982
-0.000518227
-0.000555611
-0.000593045
-0.000630433
-0.000667668
-0.000704635
-0.000741211
-0.000777263
-0.00081265
-0.000847225
-0.000880834
-0.000913314
-0.000944499
-0.000974217
-0.00100229
-0.00102855
-0.0010528
-0.00107486
-0.00109455
-0.0011117
-0.00112611
-0.00113762
-0.00114604
-0.00115106
-0.00115246
-0.00115148
0.00111902
0.00108886
0.00105314
0.00101758
0.000981996
0.000946025
0.0009098
0.000873538
0.000837406
0.000801525
0.00076599
0.000730873
0.000696226
0.000662084
0.000628463
0.000595365
0.00056278
0.000530687
0.000499054
0.000467841
0.000437002
0.000406486
0.000376235
0.00034619
0.000316286
0.00028646
0.000256645
0.000226775
0.000196783
0.000166604
0.000136173
0.00010543
7.43139e-05
4.27697e-05
1.07449e-05
-2.18083e-05
-5.49327e-05
-8.86653e-05
-0.000123037
-0.000158073
-0.000193789
-0.000230194
-0.000267288
-0.000305065
-0.000343504
-0.000382578
-0.000422249
-0.000462468
-0.000503175
-0.000544298
-0.000585754
-0.000627449
-0.000669279
-0.000711125
-0.00075286
-0.000794345
-0.000835431
-0.000875958
-0.000915759
-0.000954656
-0.000992463
-0.00102899
-0.00106403
-0.0010974
-0.00112886
-0.00115823
-0.00118528
-0.0012098
-0.00123157
-0.00125039
-0.00126606
-0.00127835
-0.00128697
-0.00129173
-0.00129343
0.00125408
0.00121504
0.00116938
0.00112476
0.00108084
0.00103707
0.000993561
0.000950532
0.000908148
0.000866515
0.00082571
0.000785785
0.000746768
0.000708669
0.000671477
0.00063517
0.000599708
0.000565043
0.000531117
0.000497862
0.000465206
0.000433071
0.000401374
0.000370032
0.000338956
0.000308058
0.00027725
0.000246441
0.000215544
0.000184472
0.00015314
0.000121466
8.93703e-05
5.67773e-05
2.36158e-05
-1.01805e-05
-4.46722e-05
-7.99139e-05
-0.000115953
-0.000152829
-0.000190574
-0.000229211
-0.00026875
-0.000309196
-0.000350539
-0.000392758
-0.00043582
-0.000479679
-0.000524277
-0.000569541
-0.000615384
-0.000661706
-0.000708393
-0.000755317
-0.000802336
-0.000849293
-0.000896022
-0.000942341
-0.000988057
-0.00103297
-0.00107686
-0.00111951
-0.00116069
-0.00120017
-0.00123769
-0.00127302
-0.0013059
-0.00133608
-0.00136332
-0.00138736
-0.00140797
-0.00142489
-0.00143787
-0.00144671
-0.00145168
0.00139417
0.00134473
0.00128752
0.00123246
0.00117902
0.00112642
0.00107474
0.00102418
0.000974918
0.000927019
0.000880538
0.000835494