/*--------------------------------*- C++ -*----------------------------------*\
  =========                 |
  \\      /  F ield         | OpenFOAM: The Open Source CFD Toolbox
   \\    /   O peration     | Website:  https://openfoam.org
    \\  /    A nd           | Version:  12
     \\/     M anipulation  |
\*---------------------------------------------------------------------------*/
FoamFile
{
    format      ascii;
    class       volVectorField;
    location    "6.5";
    object      U;
}
// * * * * * * * * * * * * * * * * * * * * * * * * * * * * * * * * * * * * * //

dimensions      [0 1 -1 0 0 0 0];

internalField   nonuniform List<vector> 
5625
(
(-2.63166e-07 5.89729e-07 0)
(-9.12172e-07 8.91491e-07 0)
(-1.34029e-06 7.84583e-07 0)
(-1.22097e-06 5.07789e-07 0)
(-3.23638e-07 1.74114e-07 0)
(1.43557e-06 -1.67584e-07 0)
(4.06209e-06 -4.9316e-07 0)
(7.52109e-06 -7.90212e-07 0)
(1.17543e-05 -1.05329e-06 0)
(1.66893e-05 -1.28096e-06 0)
(2.2246e-05 -1.47393e-06 0)
(2.83413e-05 -1.63398e-06 0)
(3.48918e-05 -1.76334e-06 0)
(4.18153e-05 -1.86437e-06 0)
(4.90324e-05 -1.93942e-06 0)
(5.64667e-05 -1.9907e-06 0)
(6.40455e-05 -2.02029e-06 0)
(7.17e-05 -2.03009e-06 0)
(7.93653e-05 -2.02184e-06 0)
(8.69804e-05 -1.99714e-06 0)
(9.44882e-05 -1.95746e-06 0)
(0.000101835 -1.90414e-06 0)
(0.000108973 -1.83841e-06 0)
(0.000115854 -1.76143e-06 0)
(0.000122437 -1.67424e-06 0)
(0.000128682 -1.57783e-06 0)
(0.000134555 -1.47312e-06 0)
(0.000140022 -1.36098e-06 0)
(0.000145055 -1.2422e-06 0)
(0.000149626 -1.11756e-06 0)
(0.000153713 -9.87782e-07 0)
(0.000157296 -8.5356e-07 0)
(0.000160355 -7.15559e-07 0)
(0.000162877 -5.74424e-07 0)
(0.000164849 -4.30781e-07 0)
(0.000166261 -2.85244e-07 0)
(0.000167106 -1.38418e-07 0)
(0.00016738 9.09536e-09 0)
(0.000167081 1.56683e-07 0)
(0.000166211 3.03756e-07 0)
(0.000164772 4.49693e-07 0)
(0.00016277 5.93859e-07 0)
(0.000160216 7.35611e-07 0)
(0.00015712 8.74281e-07 0)
(0.000153497 1.00918e-06 0)
(0.000149365 1.13959e-06 0)
(0.000144745 1.26476e-06 0)
(0.00013966 1.38391e-06 0)
(0.000134136 1.4962e-06 0)
(0.000128204 1.60078e-06 0)
(0.000121898 1.69671e-06 0)
(0.000115253 1.78303e-06 0)
(0.00010831 1.8587e-06 0)
(0.000101114 1.92263e-06 0)
(9.37105e-05 1.97364e-06 0)
(8.61519e-05 2.01047e-06 0)
(7.84929e-05 2.03178e-06 0)
(7.07923e-05 2.03611e-06 0)
(6.31128e-05 2.02189e-06 0)
(5.55209e-05 1.98743e-06 0)
(4.80866e-05 1.93089e-06 0)
(4.08839e-05 1.85032e-06 0)
(3.39896e-05 1.74361e-06 0)
(2.74836e-05 1.6086e-06 0)
(2.14476e-05 1.44312e-06 0)
(1.59642e-05 1.24522e-06 0)
(1.11151e-05 1.01344e-06 0)
(6.97754e-06 7.47478e-07 0)
(3.62068e-06 4.49205e-07 0)
(1.09835e-06 1.24628e-07 0)
(-5.59964e-07 -2.13296e-07 0)
(-1.36613e-06 -5.39982e-07 0)
(-1.41139e-06 -8.0637e-07 0)
(-9.33932e-07 -9.00442e-07 0)
(-2.63102e-07 -5.88338e-07 0)
(-1.02136e-07 1.38272e-06 0)
(1.01818e-07 1.454e-06 0)
(1.40499e-06 -1.93246e-07 0)
(4.2153e-06 -2.7911e-06 0)
(8.79636e-06 -5.85648e-06 0)
(1.52677e-05 -9.08442e-06 0)
(2.36454e-05 -1.22793e-05 0)
(3.38736e-05 -1.53168e-05 0)
(4.58465e-05 -1.81204e-05 0)
(5.94241e-05 -2.06453e-05 0)
(7.44443e-05 -2.28677e-05 0)
(9.07314e-05 -2.4778e-05 0)
(0.000108103 -2.63754e-05 0)
(0.000126372 -2.76652e-05 0)
(0.000145357 -2.86568e-05 0)
(0.000164875 -2.93617e-05 0)
(0.000184751 -2.97932e-05 0)
(0.000204815 -2.99654e-05 0)
(0.000224907 -2.98928e-05 0)
(0.000244871 -2.95901e-05 0)
(0.000264562 -2.90717e-05 0)
(0.000283843 -2.83522e-05 0)
(0.000302585 -2.74457e-05 0)
(0.000320667 -2.63659e-05 0)
(0.000337977 -2.51263e-05 0)
(0.000354413 -2.37398e-05 0)
(0.00036988 -2.22193e-05 0)
(0.000384289 -2.0577e-05 0)
(0.000397563 -1.88248e-05 0)
(0.00040963 -1.69745e-05 0)
(0.000420427 -1.50374e-05 0)
(0.000429898 -1.30246e-05 0)
(0.000437994 -1.0947e-05 0)
(0.000444674 -8.81526e-06 0)
(0.000449905 -6.64006e-06 0)
(0.00045366 -4.43183e-06 0)
(0.000455919 -2.20102e-06 0)
(0.000456671 4.19656e-08 0)
(0.000455911 2.28668e-06 0)
(0.00045364 4.5226e-06 0)
(0.000449869 6.73911e-06 0)
(0.000444614 8.92543e-06 0)
(0.000437901 1.10706e-05 0)
(0.00042976 1.31636e-05 0)
(0.000420231 1.51928e-05 0)
(0.000409363 1.71468e-05 0)
(0.000397211 1.90136e-05 0)
(0.000383838 2.07809e-05 0)
(0.000369316 2.24362e-05 0)
(0.000353726 2.39668e-05 0)
(0.000337158 2.53594e-05 0)
(0.000319708 2.66006e-05 0)
(0.000301483 2.76767e-05 0)
(0.000282598 2.85736e-05 0)
(0.000263179 2.92773e-05 0)
(0.000243356 2.97732e-05 0)
(0.000223274 3.00468e-05 0)
(0.00020308 3.00839e-05 0)
(0.000182935 2.98699e-05 0)
(0.000163002 2.93912e-05 0)
(0.000143456 2.86344e-05 0)
(0.000124475 2.75877e-05 0)
(0.000106241 2.62408e-05 0)
(8.89396e-05 2.45864e-05 0)
(7.27559e-05 2.26213e-05 0)
(5.78709e-05 2.03488e-05 0)
(4.44572e-05 1.77816e-05 0)
(3.26721e-05 1.49467e-05 0)
(2.26487e-05 1.18923e-05 0)
(1.44843e-05 8.69856e-06 0)
(8.22434e-06 5.4932e-06 0)
(3.84099e-06 2.47443e-06 0)
(1.2005e-06 -5.18944e-08 0)
(2.24044e-08 -1.60581e-06 0)
(-1.10274e-07 -1.43021e-06 0)
(8.16176e-08 5.40537e-07 0)
(1.87021e-06 -2.14153e-06 0)
(5.90366e-06 -7.38308e-06 0)
(1.24539e-05 -1.41384e-05 0)
(2.16105e-05 -2.16738e-05 0)
(3.34067e-05 -2.94761e-05 0)
(4.78107e-05 -3.71839e-05 0)
(6.47271e-05 -4.45455e-05 0)
(8.40087e-05 -5.139e-05 0)
(0.00010547 -5.76051e-05 0)
(0.000128896 -6.31215e-05 0)
(0.000154054 -6.79003e-05 0)
(0.0001807 -7.1925e-05 0)
(0.000208582 -7.51951e-05 0)
(0.000237446 -7.77215e-05 0)
(0.00026704 -7.95233e-05 0)
(0.000297119 -8.06255e-05 0)
(0.00032744 -8.10568e-05 0)
(0.000357774 -8.08488e-05 0)
(0.000387896 -8.00348e-05 0)
(0.000417594 -7.8649e-05 0)
(0.000446668 -7.6726e-05 0)
(0.000474928 -7.43008e-05 0)
(0.000502195 -7.14079e-05 0)
(0.000528304 -6.80815e-05 0)
(0.000553098 -6.43556e-05 0)
(0.000576437 -6.02631e-05 0)
(0.000598189 -5.58367e-05 0)
(0.000618235 -5.11082e-05 0)
(0.000636466 -4.61091e-05 0)
(0.000652786 -4.08701e-05 0)
(0.000667111 -3.54215e-05 0)
(0.000679366 -2.97929e-05 0)
(0.000689488 -2.4014e-05 0)
(0.000697425 -1.81139e-05 0)
(0.000703138 -1.21217e-05 0)
(0.000706595 -6.06608e-06 0)
(0.000707777 2.38481e-08 0)
(0.000706678 6.11911e-06 0)
(0.000703299 1.21905e-05 0)
(0.000697655 1.82085e-05 0)
(0.000689772 2.41434e-05 0)
(0.000679686 2.99647e-05 0)
(0.000667446 3.56418e-05 0)
(0.000653112 4.11434e-05 0)
(0.000636756 4.64375e-05 0)
(0.000618462 5.14917e-05 0)
(0.000598327 5.62729e-05 0)
(0.000576458 6.07473e-05 0)
(0.000552976 6.48805e-05 0)
(0.000528017 6.86378e-05 0)
(0.000501725 7.19838e-05 0)
(0.000474261 7.48828e-05 0)
(0.000445794 7.72989e-05 0)
(0.000416511 7.91963e-05 0)
(0.000386605 8.05394e-05 0)
(0.000356287 8.12931e-05 0)
(0.000325773 8.14234e-05 0)
(0.000295294 8.0898e-05 0)
(0.000265087 7.96869e-05 0)
(0.000235399 7.77635e-05 0)
(0.000206482 7.51059e-05 0)
(0.00017859 7.16987e-05 0)
(0.000151979 6.75357e-05 0)
(0.000126902 6.26225e-05 0)
(0.000103602 5.69819e-05 0)
(8.23092e-05 5.06592e-05 0)
(6.32321e-05 4.37314e-05 0)
(4.65485e-05 3.63182e-05 0)
(3.23957e-05 2.85984e-05 0)
(2.08564e-05 2.08311e-05 0)
(1.19474e-05 1.33838e-05 0)
(5.61748e-06 6.77416e-06 0)
(1.75508e-06 1.73628e-06 0)
(6.98327e-08 -6.89419e-07 0)
(2.5085e-07 -2.13159e-06 0)
(3.67202e-06 -1.04106e-05 0)
(1.05623e-05 -2.14757e-05 0)
(2.10223e-05 -3.42023e-05 0)
(3.49088e-05 -4.77431e-05 0)
(5.21079e-05 -6.14633e-05 0)
(7.24917e-05 -7.48873e-05 0)
(9.58914e-05 -8.7664e-05 0)
(0.000122099 -9.954e-05 0)
(0.000150875 -0.000110339 0)
(0.000181956 -0.000119943 0)
(0.000215062 -0.00012828 0)
(0.000249899 -0.000135312 0)
(0.000286166 -0.000141029 0)
(0.000323562 -0.00014544 0)
(0.000361784 -0.000148569 0)
(0.000400534 -0.000150451 0)
(0.000439523 -0.000151131 0)
(0.000478467 -0.000150658 0)
(0.000517095 -0.000149087 0)
(0.000555147 -0.000146475 0)
(0.000592373 -0.00014288 0)
(0.00062854 -0.000138364 0)
(0.000663425 -0.000132987 0)
(0.000696821 -0.000126809 0)
(0.000728535 -0.00011989 0)
(0.000758387 -0.000112291 0)
(0.000786213 -0.000104069 0)
(0.000811861 -9.52844e-05 0)
(0.000835195 -8.59933e-05 0)
(0.000856093 -7.62528e-05 0)
(0.000874446 -6.61187e-05 0)
(0.00089016 -5.56465e-05 0)
(0.000903153 -4.48911e-05 0)
(0.000913361 -3.39068e-05 0)
(0.000920729 -2.27481e-05 0)
(0.000925219 -1.14691e-05 0)
(0.000926806 -1.24119e-07 0)
(0.000925479 1.12324e-05 0)
(0.000921241 2.25455e-05 0)
(0.000914109 3.37599e-05 0)
(0.000904116 4.48194e-05 0)
(0.000891306 5.56675e-05 0)
(0.000875742 6.62465e-05 0)
(0.000857498 7.6498e-05 0)
(0.000836666 8.63625e-05 0)
(0.00081335 9.57797e-05 0)
(0.000787674 0.000104688 0)
(0.000759772 0.000113026 0)
(0.000729798 0.00012073 0)
(0.00069792 0.000127737 0)
(0.000664321 0.000133982 0)
(0.0006292 0.000139403 0)
(0.000592772 0.000143934 0)
(0.000555265 0.000147512 0)
(0.000516923 0.000150077 0)
(0.000478004 0.000151567 0)
(0.000438776 0.000151925 0)
(0.000399522 0.0001511 0)
(0.000360532 0.000149042 0)
(0.000322106 0.000145713 0)
(0.000284549 0.000141082 0)
(0.000248169 0.00013513 0)
(0.000213273 0.000127857 0)
(0.000180164 0.000119283 0)
(0.000149136 0.000109456 0)
(0.000120467 9.84585e-05 0)
(9.44171e-05 8.64216e-05 0)
(7.12172e-05 7.35346e-05 0)
(5.1065e-05 6.00638e-05 0)
(3.41158e-05 4.63735e-05 0)
(2.04805e-05 3.29514e-05 0)
(1.02519e-05 2.04426e-05 0)
(3.54525e-06 9.70214e-06 0)
(2.37569e-07 1.85816e-06 0)
(3.92636e-07 -6.52854e-06 0)
(5.30536e-06 -2.31946e-05 0)
(1.48739e-05 -4.23201e-05 0)
(2.90468e-05 -6.28147e-05 0)
(4.74519e-05 -8.38161e-05 0)
(6.98135e-05 -0.000104647 0)
(9.58864e-05 -0.000124776 0)
(0.000125408 -0.000143797 0)
(0.000158094 -0.000161405 0)
(0.000193639 -0.000177376 0)
(0.000231725 -0.000191559 0)
(0.000272023 -0.000203854 0)
(0.000314193 -0.000214207 0)
(0.000357894 -0.000222599 0)
(0.000402783 -0.000229036 0)
(0.000448519 -0.00023355 0)
(0.000494767 -0.000236186 0)
(0.000541198 -0.000237005 0)
(0.000587493 -0.000236075 0)
(0.000633345 -0.000233474 0)
(0.000678459 -0.000229283 0)
(0.000722553 -0.000223588 0)
(0.000765359 -0.000216477 0)
(0.000806624 -0.00020804 0)
(0.000846111 -0.000198367 0)
(0.000883598 -0.000187549 0)
(0.000918879 -0.000175676 0)
(0.000951765 -0.000162837 0)
(0.000982079 -0.000149121 0)
(0.00100967 -0.000134616 0)
(0.00103438 -0.000119409 0)
(0.0010561 -0.000103587 0)
(0.00107471 -8.72344e-05 0)
(0.00109013 -7.04374e-05 0)
(0.00110226 -5.32803e-05 0)
(0.00111105 -3.58477e-05 0)
(0.00111645 -1.82241e-05 0)
(0.00111843 -4.94203e-07 0)
(0.00111699 1.72567e-05 0)
(0.00111211 3.4943e-05 0)
(0.00110382 5.24779e-05 0)
(0.00109215 6.97741e-05 0)
(0.00107716 8.67428e-05 0)
(0.00105891 0.000103294 0)
(0.00103749 0.000119337 0)
(0.00101302 0.00013478 0)
(0.000985593 0.000149527 0)
(0.000955366 0.000163486 0)
(0.000922494 0.000176559 0)
(0.000887149 0.00018865 0)
(0.000849527 0.000199662 0)
(0.000809837 0.000209496 0)
(0.000768307 0.000218057 0)
(0.000725185 0.000225248 0)
(0.000680731 0.000230974 0)
(0.000635226 0.000235144 0)
(0.000588961 0.000237671 0)
(0.000542245 0.000238471 0)
(0.000495399 0.00023747 0)
(0.000448754 0.000234601 0)
(0.000402649 0.000229811 0)
(0.000357432 0.000223059 0)
(0.000313454 0.000214327 0)
(0.000271065 0.000203616 0)
(0.000230613 0.000190961 0)
(0.00019244 0.000176432 0)
(0.000156877 0.000160144 0)
(0.000124239 0.000142269 0)
(9.48247e-05 0.000123048 0)
(6.89091e-05 0.000102806 0)
(4.67408e-05 8.19718e-05 0)
(2.85474e-05 6.10948e-05 0)
(1.45809e-05 4.08711e-05 0)
(5.1831e-06 2.21801e-05 0)
(3.79411e-07 6.1269e-06 0)
(5.10457e-07 -1.24327e-05 0)
(6.73222e-06 -4.00357e-05 0)
(1.87029e-05 -6.93415e-05 0)
(3.62494e-05 -9.93452e-05 0)
(5.87977e-05 -0.000129225 0)
(8.5919e-05 -0.000158312 0)
(0.000117249 -0.000186071 0)
(0.000152424 -0.000212075 0)
(0.000191074 -0.000235999 0)
(0.000232823 -0.000257601 0)
(0.000277293 -0.000276711 0)
(0.000324099 -0.000293216 0)
(0.000372859 -0.000307057 0)
(0.00042319 -0.000318211 0)
(0.000474712 -0.000326691 0)
(0.000527051 -0.000332537 0)
(0.000579841 -0.000335808 0)
(0.000632725 -0.000336583 0)
(0.000685355 -0.000334953 0)
(0.000737399 -0.000331019 0)
(0.000788537 -0.000324889 0)
(0.000838462 -0.000316678 0)
(0.000886884 -0.000306505 0)
(0.000933528 -0.00029449 0)
(0.000978138 -0.000280755 0)
(0.00102047 -0.000265425 0)
(0.0010603 -0.000248621 0)
(0.00109742 -0.000230467 0)
(0.00113165 -0.000211085 0)
(0.0011628 -0.000190596 0)
(0.00119072 -0.000169122 0)
(0.00121527 -0.000146781 0)
(0.00123633 -0.000123693 0)
(0.0012538 -9.99765e-05 0)
(0.00126759 -7.57499e-05 0)
(0.00127762 -5.11313e-05 0)
(0.00128385 -2.62391e-05 0)
(0.00128624 -1.19207e-06 0)
(0.00128478 2.38902e-05 0)
(0.00127945 4.88873e-05 0)
(0.00127029 7.36775e-05 0)
(0.00125733 9.8138e-05 0)
(0.00124062 0.000122144 0)
(0.00122023 0.00014557 0)
(0.00119627 0.000168287 0)
(0.00116884 0.000190167 0)
(0.00113807 0.000211078 0)
(0.00110411 0.000230887 0)
(0.00106714 0.000249461 0)
(0.00102735 0.000266664 0)
(0.000984935 0.000282363 0)
(0.000940139 0.000296422 0)
(0.000893208 0.000308707 0)
(0.000844409 0.000319087 0)
(0.000794029 0.000327433 0)
(0.000742372 0.000333619 0)
(0.000689758 0.000337529 0)
(0.000636525 0.000339051 0)
(0.000583024 0.000338086 0)
(0.000529617 0.000334545 0)
(0.000476679 0.000328359 0)
(0.000424593 0.000319476 0)
(0.000373748 0.000307869 0)
(0.000324536 0.000293542 0)
(0.00027735 0.000276534 0)
(0.000232581 0.000256929 0)
(0.000190617 0.00023486 0)
(0.000151838 0.000210523 0)
(0.000116616 0.00018419 0)
(8.53123e-05 0.000156213 0)
(5.82781e-05 0.000127047 0)
(3.586e-05 9.72585e-05 0)
(1.84621e-05 6.75434e-05 0)
(6.62662e-06 3.87514e-05 0)
(4.98008e-07 1.19134e-05 0)
(6.09189e-07 -1.96361e-05 0)
(7.96816e-06 -6.04416e-05 0)
(2.2057e-05 -0.000101865 0)
(4.26078e-05 -0.000143001 0)
(6.88747e-05 -0.000183098 0)
(0.000100292 -0.000221529 0)
(0.000136384 -0.000257782 0)
(0.000176688 -0.000291446 0)
(0.000220748 -0.000322203 0)
(0.000268115 -0.000349815 0)
(0.000318345 -0.000374113 0)
(0.000371002 -0.00039499 0)
(0.000425655 -0.000412393 0)
(0.000481882 -0.000426309 0)
(0.000539268 -0.000436764 0)
(0.00059741 -0.000443814 0)
(0.000655913 -0.000447539 0)
(0.000714398 -0.000448039 0)
(0.000772495 -0.00044543 0)
(0.000829853 -0.000439842 0)
(0.000886134 -0.000431412 0)
(0.000941014 -0.000420286 0)
(0.00099419 -0.000406615 0)
(0.00104537 -0.000390552 0)
(0.00109429 -0.000372255 0)
(0.00114069 -0.00035188 0)
(0.00118433 -0.000329585 0)
(0.00122501 -0.000305529 0)
(0.0012625 -0.000279868 0)
(0.00129664 -0.000252759 0)
(0.00132726 -0.000224358 0)
(0.00135421 -0.00019482 0)
(0.00137736 -0.000164299 0)
(0.00139659 -0.000132949 0)
(0.00141182 -0.000100925 0)
(0.00142297 -6.83794e-05 0)
(0.00142998 -3.5467e-05 0)
(0.0014328 -2.34301e-06 0)
(0.00143143 3.08365e-05 0)
(0.00142585 6.39141e-05 0)
(0.00141608 9.67305e-05 0)
(0.00140216 0.000129125 0)
(0.00138414 0.000160934 0)
(0.0013621 0.000191993 0)
(0.00133613 0.000222133 0)
(0.00130635 0.000251186 0)
(0.00127289 0.00027898 0)
(0.00123591 0.000305342 0)
(0.00119559 0.000330095 0)
(0.00115212 0.000353066 0)
(0.00110573 0.000374077 0)
(0.00105666 0.000392954 0)
(0.00100517 0.000409523 0)
(0.00095155 0.000423612 0)
(0.000896096 0.000435055 0)
(0.000839132 0.000443692 0)
(0.000781001 0.00044937 0)
(0.000722063 0.000451946 0)
(0.000662692 0.000451293 0)
(0.00060328 0.000447296 0)
(0.00054423 0.000439864 0)
(0.00048596 0.000428927 0)
(0.000428894 0.000414447 0)
(0.000373466 0.000396417 0)
(0.000320116 0.000374874 0)
(0.000269288 0.000349899 0)
(0.000221428 0.000321631 0)
(0.000176984 0.000290271 0)
(0.000136407 0.000256096 0)
(0.000100148 0.000219462 0)
(6.86575e-05 0.000180821 0)
(4.23948e-05 0.000140724 0)
(2.19013e-05 9.98381e-05 0)
(7.89022e-06 5.89563e-05 0)
(5.98081e-07 1.90203e-05 0)
(6.93393e-07 -2.79615e-05 0)
(9.04174e-06 -8.39634e-05 0)
(2.49891e-05 -0.000139238 0)
(4.81916e-05 -0.000192986 0)
(7.77569e-05 -0.000244531 0)
(0.000113 -0.00029331 0)
(0.000153342 -0.000338859 0)
(0.00019823 -0.000380803 0)
(0.000247126 -0.000418853 0)
(0.000299506 -0.000452796 0)
(0.000354866 -0.000482486 0)
(0.000412715 -0.000507839 0)
(0.000472577 -0.00052882 0)
(0.00053399 -0.000545441 0)
(0.000596507 -0.000557751 0)
(0.000659696 -0.000565831 0)
(0.000723141 -0.000569788 0)
(0.000786441 -0.000569752 0)
(0.000849212 -0.000565869 0)
(0.000911087 -0.0005583 0)
(0.000971717 -0.000547216 0)
(0.00103077 -0.000532796 0)
(0.00108793 -0.000515226 0)
(0.0011429 -0.000494694 0)
(0.00119541 -0.000471393 0)
(0.00124519 -0.000445516 0)
(0.001292 -0.000417256 0)
(0.00133562 -0.000386807 0)
(0.00137584 -0.000354363 0)
(0.00141248 -0.000320115 0)
(0.00144535 -0.000284255 0)
(0.00147433 -0.000246974 0)
(0.00149925 -0.000208463 0)
(0.00152002 -0.00016891 0)
(0.00153652 -0.000128507 0)
(0.00154869 -8.7443e-05 0)
(0.00155645 -4.59094e-05 0)
(0.00155976 -4.0983e-06 0)
(0.0015586 3.77965e-05 0)
(0.00155295 7.95793e-05 0)
(0.00154284 0.000121052 0)
(0.00152829 0.000162015 0)
(0.00150935 0.000202264 0)
(0.00148609 0.000241593 0)
(0.00145862 0.000279794 0)
(0.00142703 0.000316655 0)
(0.00139148 0.00035196 0)
(0.00135211 0.000385495 0)
(0.00130911 0.000417039 0)
(0.00126267 0.000446375 0)
(0.00121303 0.000473281 0)
(0.00116042 0.000497538 0)
(0.00110513 0.000518931 0)
(0.00104744 0.000537245 0)
(0.000987664 0.000552272 0)
(0.000926144 0.000563811 0)
(0.000863234 0.000571671 0)
(0.000799312 0.000575673 0)
(0.000734776 0.000575655 0)
(0.000670039 0.000571471 0)
(0.000605534 0.000563001 0)
(0.000541709 0.000550151 0)
(0.000479025 0.000532858 0)
(0.000417959 0.000511098 0)
(0.000358996 0.000484891 0)
(0.000302634 0.000454305 0)
(0.000249382 0.000419465 0)
(0.000199756 0.000380563 0)
(0.000154285 0.000337858 0)
(0.000113507 0.000291692 0)
(7.79671e-05 0.000242492 0)
(4.82292e-05 0.000190775 0)
(2.49548e-05 0.000137162 0)
(9.00345e-06 8.23792e-05 0)
(6.84271e-07 2.7281e-05 0)
(7.66715e-07 -3.72636e-05 0)
(9.98047e-06 -0.000110211 0)
(2.75574e-05 -0.000180873 0)
(5.3089e-05 -0.000248549 0)
(8.55559e-05 -0.000312648 0)
(0.000124167 -0.00037268 0)
(0.000168253 -0.000428241 0)
(0.000217174 -0.000479013 0)
(0.000270318 -0.000524755 0)
(0.000327093 -0.000565296 0)
(0.000386934 -0.000600531 0)
(0.0004493 -0.000630413 0)
(0.000513672 -0.000654944 0)
(0.000579551 -0.000674172 0)
(0.000646461 -0.00068818 0)
(0.000713945 -0.000697086 0)
(0.000781567 -0.000701032 0)
(0.000848911 -0.000700184 0)
(0.000915581 -0.000694726 0)
(0.000981201 -0.000684855 0)
(0.00104542 -0.000670778 0)
(0.00110789 -0.000652714 0)
(0.0011683 -0.000630883 0)
(0.00122635 -0.000605512 0)
(0.00128177 -0.00057683 0)
(0.00133429 -0.000545066 0)
(0.00138367 -0.000510451 0)
(0.00142968 -0.000473215 0)
(0.00147212 -0.000433586 0)
(0.0015108 -0.000391791 0)
(0.00154555 -0.000348059 0)
(0.00157621 -0.000302616 0)
(0.00160265 -0.000255686 0)
(0.00162474 -0.000207495 0)
(0.00164239 -0.000158268 0)
(0.00165551 -0.000108232 0)
(0.00166402 -5.76146e-05 0)
(0.00166789 -6.64349e-06 0)
(0.00166708 4.44496e-05 0)
(0.00166157 9.54309e-05 0)
(0.00165138 0.000146064 0)
(0.00163652 0.000196108 0)
(0.00161704 0.000245319 0)
(0.00159302 0.00029345 0)
(0.00156453 0.000340249 0)
(0.00153168 0.000385461 0)
(0.0014946 0.000428828 0)
(0.00145346 0.000470087 0)
(0.00140842 0.000508975 0)
(0.00135968 0.000545225 0)
(0.00130747 0.000578572 0)
(0.00125203 0.000608749 0)
(0.00119364 0.000635492 0)
(0.0011326 0.000658542 0)
(0.00106922 0.000677644 0)
(0.00100385 0.000692553 0)
(0.000936866 0.000703033 0)
(0.000868648 0.000708863 0)
(0.000799616 0.00070984 0)
(0.000730207 0.00070578 0)
(0.000660878 0.000696524 0)
(0.000592107 0.000681945 0)
(0.000524393 0.000661947 0)
(0.000458252 0.000636475 0)
(0.000394217 0.000605521 0)
(0.000332841 0.000569124 0)
(0.000274692 0.000527384 0)
(0.000220356 0.000480463 0)
(0.000170437 0.000428591 0)
(0.000125556 0.000372077 0)
(8.63464e-05 0.000311309 0)
(5.34677e-05 0.00024676 0)
(2.76886e-05 0.000178993 0)
(9.99646e-06 0.00010867 0)
(7.60393e-07 3.65621e-05 0)
(8.31812e-07 -4.74226e-05 0)
(1.08059e-05 -0.000138849 0)
(2.98094e-05 -0.000226243 0)
(5.73748e-05 -0.000309 0)
(9.23688e-05 -0.000386617 0)
(0.000133905 -0.000458685 0)
(0.00018123 -0.000524873 0)
(0.00023363 -0.000584934 0)
(0.000290419 -0.000638689 0)
(0.000350946 -0.000686028 0)
(0.000414591 -0.000726901 0)
(0.000480766 -0.000761315 0)
(0.000548913 -0.000789323 0)
(0.000618501 -0.000811021 0)
(0.000689028 -0.00082654 0)
(0.000760018 -0.000836044 0)
(0.000831019 -0.000839722 0)
(0.000901605 -0.000837782 0)
(0.000971374 -0.000830452 0)
(0.00103995 -0.000817972 0)
(0.00110696 -0.000800591 0)
(0.00117209 -0.000778566 0)
(0.00123501 -0.00075216 0)
(0.00129544 -0.000721638 0)
(0.00135309 -0.000687265 0)
(0.0014077 -0.000649311 0)
(0.00145905 -0.000608039 0)
(0.00150692 -0.000563717 0)
(0.00155108 -0.000516608 0)
(0.00159137 -0.000466974 0)
(0.00162762 -0.000415076 0)
(0.00165966 -0.000361174 0)
(0.00168736 -0.000305528 0)
(0.00171061 -0.000248395 0)
(0.00172929 -0.000190036 0)
(0.00174332 -0.00013071 0)
(0.00175262 -7.06797e-05 0)
(0.00175714 -1.02088e-05 0)
(0.00175684 5.04354e-05 0)
(0.0017517 0.000110982 0)
(0.00174171 0.000171157 0)
(0.0017269 0.00023068 0)
(0.0017073 0.000289267 0)
(0.00168296 0.000346629 0)
(0.00165396 0.000402473 0)
(0.0016204 0.000456498 0)
(0.0015824 0.0005084 0)
(0.0015401 0.000557872 0)
(0.00149367 0.000604602 0)
(0.00144331 0.000648274 0)
(0.00138923 0.000688574 0)
(0.00133167 0.000725186 0)
(0.00127091 0.000757794 0)
(0.00120723 0.000786089 0)
(0.00114097 0.000809764 0)
(0.00107247 0.000828525 0)
(0.00100211 0.000842085 0)
(0.000930289 0.000850174 0)
(0.000857438 0.000852539 0)
(0.000784014 0.00084895 0)
(0.000710498 0.000839201 0)
(0.000637397 0.000823121 0)
(0.000565244 0.000800569 0)
(0.000494595 0.00077145 0)
(0.00042603 0.000735711 0)
(0.000360155 0.000693353 0)
(0.000297597 0.000644434 0)
(0.000239008 0.000589073 0)
(0.000185065 0.000527459 0)
(0.000136468 0.000459853 0)
(9.39344e-05 0.000386596 0)
(5.82103e-05 0.000308107 0)
(3.0163e-05 0.00022489 0)
(1.0895e-05 0.000137541 0)
(8.29336e-07 4.67593e-05 0)
(8.90444e-07 -5.83375e-05 0)
(1.15321e-05 -0.000169582 0)
(3.17759e-05 -0.000274869 0)
(6.1096e-05 -0.00037369 0)
(9.82535e-05 -0.000465635 0)
(0.000142274 -0.000550383 0)
(0.000192328 -0.000627692 0)
(0.000247631 -0.000697393 0)
(0.000307436 -0.000759387 0)
(0.000371033 -0.000813639 0)
(0.000437756 -0.000860171 0)
(0.000506977 -0.000899057 0)
(0.000578102 -0.000930415 0)
(0.000650577 -0.000954404 0)
(0.000723879 -0.000971215 0)
(0.000797517 -0.000981069 0)
(0.00087103 -0.000984208 0)
(0.00094399 -0.000980896 0)
(0.00101599 -0.000971408 0)
(0.00108666 -0.000956034 0)
(0.00115564 -0.00093507 0)
(0.0012226 -0.000908816 0)
(0.00128725 -0.000877576 0)
(0.00134929 -0.000841658 0)
(0.00140845 -0.000801366 0)
(0.0014645 -0.000757003 0)
(0.0015172 -0.000708873 0)
(0.00156634 -0.000657274 0)
(0.00161174 -0.000602505 0)
(0.00165319 -0.000544859 0)
(0.00169056 -0.00048463 0)
(0.00172367 -0.000422108 0)
(0.0017524 -0.000357583 0)
(0.00177663 -0.000291344 0)
(0.00179625 -0.000223682 0)
(0.00181117 -0.000154888 0)
(0.00182131 -8.52558e-05 0)
(0.00182661 -1.50819e-05 0)
(0.00182702 5.53328e-05 0)
(0.00182251 0.000125683 0)
(0.00181307 0.000195658 0)
(0.00179869 0.000264941 0)
(0.00177941 0.000333208 0)
(0.00175526 0.000400131 0)
(0.00172631 0.000465372 0)
(0.00169263 0.000528587 0)
(0.00165434 0.000589428 0)
(0.00161157 0.000647538 0)
(0.00156446 0.000702556 0)
(0.0015132 0.000754117 0)
(0.001458 0.000801852 0)
(0.00139908 0.000845393 0)
(0.0013367 0.00088437 0)
(0.00127117 0.000918416 0)
(0.00120279 0.000947171 0)
(0.00113191 0.000970281 0)
(0.00105893 0.000987404 0)
(0.000984235 0.000998211 0)
(0.000908281 0.00100239 0)
(0.000831536 0.000999664 0)
(0.000754503 0.000989761 0)
(0.000677716 0.000972456 0)
(0.00060174 0.000947554 0)
(0.000527169 0.000914905 0)
(0.000454629 0.000874402 0)
(0.000384775 0.000825992 0)
(0.000318293 0.000769679 0)
(0.000255899 0.000705528 0)
(0.00019834 0.000633674 0)
(0.00014639 0.00055432 0)
(0.000100847 0.00046775 0)
(6.25388e-05 0.000374324 0)
(3.2426e-05 0.000274484 0)
(1.17193e-05 0.000168763 0)
(8.93209e-07 5.77921e-05 0)
(9.43582e-07 -6.99177e-05 0)
(1.21653e-05 -0.000202132 0)
(3.34677e-05 -0.000326289 0)
(6.42645e-05 -0.000441981 0)
(0.000103216 -0.000548896 0)
(0.000149265 -0.000646814 0)
(0.00020151 -0.00073559 0)
(0.000259104 -0.000815152 0)
(0.000321242 -0.000885493 0)
(0.000387167 -0.000946669 0)
(0.00045617 -0.000998788 0)
(0.00052759 -0.00104201 0)
(0.000600809 -0.00107652 0)
(0.000675252 -0.00110257 0)
(0.000750385 -0.00112042 0)
(0.00082571 -0.00113035 0)
(0.000900765 -0.00113267 0)
(0.000975124 -0.0011277 0)
(0.00104839 -0.00111579 0)
(0.0011202 -0.00109727 0)
(0.00119021 -0.00107248 0)
(0.0012581 -0.00104179 0)
(0.00132359 -0.00100552 0)
(0.00138641 -0.000964045 0)
(0.00144631 -0.000917693 0)
(0.00150305 -0.000866809 0)
(0.00155643 -0.00081173 0)
(0.00160624 -0.000752786 0)
(0.00165231 -0.000690306 0)
(0.00169446 -0.000624613 0)
(0.00173255 -0.000556028 0)
(0.00176641 -0.00048487 0)
(0.00179593 -0.000411454 0)
(0.00182099 -0.000336097 0)
(0.00184147 -0.000259115 0)
(0.00185729 -0.000180827 0)
(0.00186835 -0.000101554 0)
(0.00187458 -2.16216e-05 0)
(0.00187594 5.864e-05 0)
(0.00187237 0.000138894 0)
(0.00186385 0.000218796 0)
(0.00185037 0.000297996 0)
(0.00183192 0.000376132 0)
(0.00180854 0.000452836 0)
(0.00178026 0.000527731 0)
(0.00174715 0.000600428 0)
(0.00170929 0.000670533 0)
(0.00166679 0.00073764 0)
(0.00161979 0.000801339 0)
(0.00156844 0.000861211 0)
(0.00151294 0.000916833 0)
(0.0014535 0.000967777 0)
(0.00139037 0.00101362 0)
(0.00132382 0.00105392 0)
(0.00125417 0.00108827 0)
(0.00118176 0.00111625 0)
(0.00110698 0.00113745 0)
(0.00103022 0.00115147 0)
(0.000951949 0.00115794 0)
(0.000872641 0.00115651 0)
(0.000792821 0.00114685 0)
(0.000713044 0.00112865 0)
(0.000633906 0.00110167 0)
(0.000556036 0.00106568 0)
(0.000480104 0.0010205 0)
(0.000406813 0.000966027 0)
(0.000336904 0.000902188 0)
(0.000271154 0.000828984 0)
(0.000210379 0.000746482 0)
(0.000155425 0.000654823 0)
(0.000107166 0.000554222 0)
(6.65118e-05 0.000444974 0)
(3.45123e-05 0.000327458 0)
(1.24835e-05 0.000202143 0)
(9.53457e-07 6.95971e-05 0)
(9.91483e-07 -8.20752e-05 0)
(1.27037e-05 -0.000236226 0)
(3.48754e-05 -0.000380038 0)
(6.68544e-05 -0.000513214 0)
(0.000107203 -0.000635555 0)
(0.000154786 -0.000746952 0)
(0.000208633 -0.000847374 0)
(0.000267839 -0.00093686 0)
(0.00033155 -0.00101551 0)
(0.000398968 -0.0010835 0)
(0.000469349 -0.00114102 0)
(0.00054201 -0.00118834 0)
(0.000616314 -0.00122574 0)
(0.000691677 -0.00125356 0)
(0.000767562 -0.00127213 0)
(0.000843474 -0.00128183 0)
(0.000918959 -0.00128304 0)
(0.000993604 -0.00127615 0)
(0.00106703 -0.00126156 0)
(0.00113888 -0.00123966 0)
(0.00120885 -0.00121088 0)
(0.00127664 -0.00117559 0)
(0.00134198 -0.00113419 0)
(0.00140464 -0.00108709 0)
(0.00146437 -0.00103465 0)
(0.00152099 -0.000977247 0)
(0.00157428 -0.000915259 0)
(0.00162409 -0.000849041 0)
(0.00167023 -0.000778949 0)
(0.00171256 -0.00070533 0)
(0.00175092 -0.000628529 0)
(0.0017852 -0.000548885 0)
(0.00181525 -0.000466737 0)
(0.00184097 -0.000382421 0)
(0.00186225 -0.000296274 0)
(0.00187898 -0.000208637 0)
(0.00189107 -0.000119853 0)
(0.00189845 -3.02707e-05 0)
(0.00190105 5.97543e-05 0)
(0.0018988 0.000149859 0)
(0.00189166 0.00023967 0)
(0.00187959 0.000328805 0)
(0.00186258 0.00041687 0)
(0.00184063 0.00050346 0)
(0.00181375 0.000588157 0)
(0.00178198 0.000670532 0)
(0.00174537 0.000750144 0)
(0.00170402 0.000826539 0)
(0.00165803 0.000899253 0)
(0.00160753 0.000967814 0)
(0.00155268 0.00103174 0)
(0.00149368 0.00109054 0)
(0.00143076 0.00114373 0)
(0.00136418 0.00119081 0)
(0.00129422 0.00123129 0)
(0.00122123 0.00126467 0)
(0.00114558 0.00129049 0)
(0.00106768 0.00130827 0)
(0.000987968 0.00131756 0)
(0.000906949 0.00131792 0)
(0.000825155 0.00130896 0)
(0.000743163 0.00129029 0)
(0.000661592 0.00126157 0)
(0.000581107 0.00122251 0)
(0.000502415 0.00117285 0)
(0.000426265 0.0011124 0)
(0.000353454 0.001041 0)
(0.000284816 0.000958584 0)
(0.000221233 0.00086514 0)
(0.000163624 0.000760729 0)
(0.000112937 0.000645495 0)
(7.01638e-05 0.000519659 0)
(3.6443e-05 0.000383533 0)
(1.31968e-05 0.000237518 0)
(1.0111e-06 8.21226e-05 0)
(1.03374e-06 -9.47168e-05 0)
(1.31376e-05 -0.000271568 0)
(3.59677e-05 -0.000435608 0)
(6.87994e-05 -0.000586667 0)
(0.0001101 -0.000724675 0)
(0.000158654 -0.000849653 0)
(0.000213433 -0.000961702 0)
(0.000273477 -0.00106099 0)
(0.000337888 -0.00114775 0)
(0.000405837 -0.00122227 0)
(0.000476557 -0.00128487 0)
(0.000549347 -0.00133594 0)
(0.000623567 -0.00137586 0)
(0.000698634 -0.00140507 0)
(0.000774018 -0.00142401 0)
(0.000849238 -0.00143314 0)
(0.000923862 -0.00143293 0)
(0.000997497 -0.00142384 0)
(0.00106979 -0.00140635 0)
(0.00114043 -0.00138091 0)
(0.00120912 -0.001348 0)
(0.00127561 -0.00130805 0)
(0.00133966 -0.00126152 0)
(0.00140106 -0.00120883 0)
(0.00145961 -0.0011504 0)
(0.00151515 -0.00108663 0)
(0.0015675 -0.00101793 0)
(0.00161651 -0.000944676 0)
(0.00166204 -0.000867245 0)
(0.00170395 -0.000786004 0)
(0.00174212 -0.000701314 0)
(0.00177642 -0.00061353 0)
(0.00180673 -0.000523004 0)
(0.00183294 -0.000430086 0)
(0.00185495 -0.000335127 0)
(0.00187264 -0.000238482 0)
(0.00188592 -0.000140509 0)
(0.0018947 -4.15743e-05 0)
(0.00189888 5.79488e-05 0)
(0.0018984 0.000157676 0)
(0.00189318 0.000257211 0)
(0.00188316 0.000356145 0)
(0.00186829 0.000454054 0)
(0.00184856 0.000550501 0)
(0.00182393 0.00064503 0)
(0.00179441 0.000737171 0)
(0.00176003 0.000826439 0)
(0.00172084 0.00091233 0)
(0.00167691 0.00099433 0)
(0.00162833 0.00107191 0)
(0.00157525 0.00114452 0)
(0.00151781 0.00121161 0)
(0.00145623 0.00127263 0)
(0.00139073 0.001327 0)
(0.00132159 0.00137416 0)
(0.00124912 0.00141353 0)
(0.00117368 0.00144456 0)
(0.00109568 0.0014667 0)
(0.00101555 0.0014794 0)
(0.000933798 0.00148214 0)
(0.00085096 0.00147442 0)
(0.000767631 0.00145578 0)
(0.000684453 0.00142578 0)
(0.000602117 0.00138403 0)
(0.000521369 0.00133019 0)
(0.000443002 0.00126395 0)
(0.00036786 0.00118509 0)
(0.00029684 0.00109343 0)
(0.000230885 0.000988874 0)
(0.000170986 0.000871397 0)
(0.000118168 0.000741056 0)
(7.35048e-05 0.000597993 0)
(3.82264e-05 0.000442443 0)
(1.38635e-05 0.000274738 0)
(1.06682e-06 9.53236e-05 0)
(1.06929e-06 -0.000107736 0)
(1.3449e-05 -0.00030782 0)