/*--------------------------------*- C++ -*----------------------------------*\
  =========                 |
  \\      /  F ield         | OpenFOAM: The Open Source CFD Toolbox
   \\    /   O peration     | Website:  https://openfoam.org
    \\  /    A nd           | Version:  12
     \\/     M anipulation  |
\*---------------------------------------------------------------------------*/
FoamFile
{
    format      ascii;
    class       surfaceScalarField;
    location    "6";
    object      phi;
}
// * * * * * * * * * * * * * * * * * * * * * * * * * * * * * * * * * * * * * //

dimensions      [0 3 -1 0 0 0 0];

internalField   nonuniform List<scalar> 
36180
(
3.24222e-11
-3.27274e-11
1.64268e-10
-1.31829e-10
3.66738e-10
-2.02451e-10
6.01079e-10
-2.34323e-10
8.36927e-10
-2.35833e-10
1.05252e-09
-2.15581e-10
1.23296e-09
-1.80436e-10
1.36857e-09
-1.35604e-10
1.45349e-09
-8.49139e-11
1.4846e-09
-3.11104e-11
1.46072e-09
2.38721e-11
1.382e-09
7.87203e-11
1.24944e-09
1.32557e-10
1.06458e-09
1.84852e-10
8.29255e-10
2.35323e-10
5.45377e-10
2.83874e-10
2.14835e-10
3.30538e-10
-1.60605e-10
3.75437e-10
-5.79369e-10
4.18762e-10
-1.0401e-09
4.60733e-10
-1.54168e-09
5.01576e-10
-2.08319e-09
5.41511e-10
-2.66393e-09
5.80745e-10
-3.28339e-09
6.19466e-10
-3.94122e-09
6.57831e-10
-4.63718e-09
6.95962e-10
-5.37112e-09
7.33941e-10
-6.14294e-09
7.71816e-10
-6.95253e-09
8.09594e-10
-7.79978e-09
8.47247e-10
-8.68449e-09
8.84708e-10
-9.60637e-09
9.2188e-10
-1.0565e-08
9.5863e-10
-1.15598e-08
9.94798e-10
-1.259e-08
1.0302e-09
-1.36546e-08
1.06461e-09
-1.47524e-08
1.09781e-09
-1.5882e-08
1.12953e-09
-1.70415e-08
1.15951e-09
-1.82289e-08
1.18745e-09
-1.9442e-08
1.21306e-09
-2.0678e-08
1.23601e-09
-2.1934e-08
1.256e-09
-2.32067e-08
1.27268e-09
-2.44924e-08
1.28575e-09
-2.57873e-08
1.29486e-09
-2.7087e-08
1.29969e-09
-2.83869e-08
1.29992e-09
-2.96821e-08
1.29524e-09
-3.09675e-08
1.28535e-09
-3.22374e-08
1.26997e-09
-3.34863e-08
1.24883e-09
-3.4708e-08
1.22172e-09
-3.58964e-08
1.1884e-09
-3.70451e-08
1.14871e-09
-3.81476e-08
1.1025e-09
-3.91973e-08
1.04967e-09
-4.01875e-08
9.90175e-10
-4.11114e-08
9.23992e-10
-4.19626e-08
8.51165e-10
-4.27344e-08
7.71788e-10
-4.34204e-08
6.86013e-10
-4.40145e-08
5.94049e-10
-4.45106e-08
4.96164e-10
-4.49033e-08
3.92678e-10
-4.51873e-08
2.83949e-10
-4.53577e-08
1.704e-10
-4.54108e-08
5.31735e-11
-4.53426e-08
-6.8266e-11
-4.51501e-08
-1.92507e-10
-4.4831e-08
-3.19051e-10
-4.43839e-08
-4.47152e-10
-4.38078e-08
-5.76015e-10
-4.3103e-08
-7.04809e-10
-4.22704e-08
-8.32667e-10
-4.13117e-08
-9.58696e-10
-4.02297e-08
-1.08198e-09
-3.90281e-08
-1.20161e-09
-3.77114e-08
-1.31666e-09
-3.62852e-08
-1.42621e-09
-3.47558e-08
-1.52938e-09
-3.31305e-08
-1.62531e-09
-3.14173e-08
-1.71318e-09
-2.96251e-08
-1.79224e-09
-2.77633e-08
-1.86177e-09
-2.58422e-08
-1.92116e-09
-2.38723e-08
-1.96985e-09
-2.18649e-08
-2.00741e-09
-1.98314e-08
-2.03347e-09
-1.77837e-08
-2.04779e-09
-1.57334e-08
-2.05022e-09
-1.36927e-08
-2.04075e-09
-1.16732e-08
-2.01946e-09
-9.68668e-09
-1.98655e-09
-7.74433e-09
-1.94235e-09
-5.85704e-09
-1.88728e-09
-4.03518e-09
-1.82187e-09
-2.28843e-09
-1.74675e-09
-6.25806e-10
-1.66262e-09
9.44494e-10
-1.5703e-09
2.41513e-09
-1.47064e-09
3.77967e-09
-1.36454e-09
5.03264e-09
-1.25297e-09
6.16954e-09
-1.1369e-09
7.18689e-09
-1.01735e-09
8.08223e-09
-8.95338e-10
8.85405e-09
-7.71822e-10
9.50183e-09
-6.47777e-10
1.0026e-08
-5.2414e-10
1.04278e-08
-4.01803e-10
1.07094e-08
-2.8161e-10
1.08737e-08
-1.64352e-10
1.09245e-08
-5.07694e-11
1.0866e-08
5.84797e-11
1.07033e-08
1.62723e-10
1.04419e-08
2.61437e-10
1.00878e-08
3.54034e-10
9.64786e-09
4.39967e-10
9.12917e-09
5.18685e-10
8.53957e-09
5.89604e-10
7.8875e-09
6.52074e-10
7.18216e-09
7.05339e-10
6.43367e-09
7.4849e-10
5.65325e-09
7.80414e-10
4.85352e-09
7.99729e-10
4.0488e-09
8.04722e-10
3.25552e-09
7.93285e-10
2.49266e-09
7.6286e-10
1.78221e-09
7.10445e-10
1.14946e-09
6.32752e-10
6.2272e-10
5.26741e-10
2.31808e-10
3.90911e-10
3.27388e-12
2.28534e-10
-5.51246e-11
5.83984e-11
-5.51246e-11
1.3238e-10
-1.65102e-10
4.62977e-10
-4.62412e-10
9.19897e-10
-6.59353e-10
1.43034e-09
-7.44748e-10
1.93212e-09
-7.37598e-10
2.37692e-09
-6.60367e-10
2.72924e-09
-5.32747e-10
2.96429e-09
-3.70649e-10
3.06579e-09
-1.86413e-10
3.024e-09
1.06805e-11
2.83402e-09
2.1385e-10
2.4945e-09
4.18234e-10
2.00655e-09
6.205e-10
1.37291e-09
8.18485e-10
5.97298e-10
1.01093e-09
-3.161e-10
1.19727e-09
-1.36299e-09
1.37742e-09
-2.53923e-09
1.55167e-09
-3.84098e-09
1.72051e-09
-5.2648e-09
1.88455e-09
-6.80773e-09
2.04451e-09
-8.4673e-09
2.20108e-09
-1.02415e-08
2.35495e-09
-1.21287e-08
2.50671e-09
-1.41278e-08
2.65686e-09
-1.62376e-08
2.80576e-09
-1.84573e-08
2.95366e-09
-2.07861e-08
3.10067e-09
-2.32233e-08
3.24676e-09
-2.57678e-08
3.39179e-09
-2.84186e-08
3.53545e-09
-3.1174e-08
3.67734e-09
-3.40323e-08
3.81692e-09
-3.69911e-08
3.95355e-09
-4.00474e-08
4.0865e-09
-4.31977e-08
4.21494e-09
-4.64379e-08
4.33796e-09
-4.97629e-08
4.45458e-09
-5.31672e-08
4.56376e-09
-5.66441e-08
4.66438e-09
-6.01864e-08
4.75533e-09
-6.37858e-08
4.83541e-09
-6.74332e-08
4.90343e-09
-7.11187e-08
4.95819e-09
-7.48314e-08
4.99845e-09
-7.85596e-08
5.02302e-09
-8.22906e-08
5.0307e-09
-8.6011e-08
5.02035e-09
-8.97067e-08
4.99085e-09
-9.33624e-08
4.94114e-09
-9.69627e-08
4.87025e-09
-1.00491e-07
4.77727e-09
-1.03931e-07
4.66141e-09
-1.07264e-07
4.52199e-09
-1.10474e-07
4.35843e-09
-1.13542e-07
4.17034e-09
-1.1645e-07
3.95743e-09
-1.19179e-07
3.71962e-09
-1.21712e-07
3.45699e-09
-1.24031e-07
3.16981e-09
-1.26118e-07
2.85856e-09
-1.27956e-07
2.5239e-09
-1.29528e-07
2.16675e-09
-1.3082e-07
1.7882e-09
-1.31817e-07
1.38959e-09
-1.32506e-07
9.72394e-10
-1.32874e-07
5.38283e-10
-1.32911e-07
9.0275e-11
-1.32608e-07
-3.70787e-10
-1.31959e-07
-8.41915e-10
-1.30957e-07
-1.32051e-09
-1.29601e-07
-1.80381e-09
-1.27888e-07
-2.28888e-09
-1.2582e-07
-2.77267e-09
-1.23401e-07
-3.25201e-09
-1.20636e-07
-3.72365e-09
-1.17533e-07
-4.18427e-09
-1.14104e-07
-4.63056e-09
-1.10362e-07
-5.05919e-09
-1.06321e-07
-5.4669e-09
-1.02e-07
-5.8505e-09
-9.74184e-08
-6.20691e-09
-9.25983e-08
-6.53324e-09
-8.75638e-08
-6.82676e-09
-8.23406e-08
-7.08499e-09
-7.6956e-08
-7.30571e-09
-7.14389e-08
-7.48697e-09
-6.58191e-08
-7.62719e-09
-6.01275e-08
-7.72511e-09
-5.43954e-08
-7.77983e-09
-4.86548e-08
-7.79087e-09
-4.29374e-08
-7.75813e-09
-3.7275e-08
-7.6819e-09
-3.16986e-08
-7.56291e-09
-2.62387e-08
-7.40226e-09
-2.09245e-08
-7.20146e-09
-1.5784e-08
-6.96237e-09
-1.08436e-08
-6.68721e-09
-6.12766e-09
-6.37851e-09
-1.65886e-09
-6.0391e-09
2.54254e-09
-5.67204e-09
6.4586e-09
-5.2806e-09
1.00738e-08
-4.8682e-09
1.33754e-08
-4.43842e-09
1.63529e-08
-3.99487e-09
1.89987e-08
-3.54116e-09
2.13078e-08
-3.08095e-09
2.32778e-08
-2.61778e-09
2.49088e-08
-2.15513e-09
2.62033e-08
-1.69632e-09
2.71663e-08
-1.24455e-09
2.78047e-08
-8.02826e-10
2.8128e-08
-3.73986e-10
2.81471e-08
3.93214e-11
2.78753e-08
4.34534e-10
2.73273e-08
8.09429e-10
2.65197e-08
1.16168e-09
2.54706e-08
1.48901e-09
2.42001e-08
1.78919e-09
2.27299e-08
2.05984e-09
2.10836e-08
2.29836e-09
1.92871e-08
2.50182e-09
1.73688e-08
2.6668e-09
1.536e-08
2.78924e-09
1.32954e-08
2.86433e-09
1.12138e-08
2.8863e-09
9.1587e-09
2.84837e-09
7.1788e-09
2.74276e-09
5.32829e-09
2.56096e-09
3.66646e-09
2.29458e-09
2.25584e-09
1.93736e-09
1.15739e-09
1.48936e-09
4.20053e-10
9.65875e-10
5.85087e-11
4.19942e-10
3.38412e-12
2.04511e-10
-3.69612e-10
6.63307e-10
-9.212e-10
1.26095e-09
-1.25699e-09
1.90308e-09
-1.38686e-09
2.51077e-09
-1.34527e-09
3.0209e-09
-1.17048e-09
3.38529e-09
-8.97135e-10
3.56889e-09
-5.54249e-10
3.54755e-09
-1.65071e-10
3.30587e-09
2.52362e-10
2.83529e-09
6.84433e-10
2.13234e-09
1.12117e-09
1.19728e-09
1.55555e-09
3.28893e-11
1.98287e-09
-1.35644e-09
2.40025e-09
-2.96536e-09
2.80618e-09
-4.78813e-09
3.2002e-09
-6.81905e-09
3.58259e-09
-9.05269e-09
3.95415e-09
-1.14841e-08
4.316e-09
-1.4109e-08
4.66941e-09
-1.69236e-08
5.01568e-09
-1.99248e-08
5.35606e-09
-2.31097e-08
5.69164e-09
-2.64761e-08
6.02332e-09
-3.00221e-08
6.35176e-09
-3.37459e-08
6.67736e-09
-3.76454e-08
7.00025e-09
-4.17189e-08
7.32026e-09
-4.59641e-08
7.63696e-09
-5.03783e-08
7.94965e-09
-5.49583e-08
8.25736e-09
-5.97003e-08
8.55888e-09
-6.45995e-08
8.85279e-09
-6.96505e-08
9.13743e-09
-7.48465e-08
9.41098e-09
-8.018e-08
9.67145e-09
-8.56421e-08
9.91668e-09
-9.12228e-08
1.01444e-08
-9.69107e-08
1.03523e-08
-1.02693e-07
1.05378e-08
-1.08556e-07
1.06985e-08
-1.14484e-07
1.08317e-08
-1.20461e-07
1.0935e-08
-1.26469e-07
1.10057e-08
-1.32487e-07
1.10413e-08
-1.38496e-07
1.10394e-08
-1.44473e-07
1.09975e-08
-1.50395e-07
1.09133e-08
-1.56239e-07
1.07848e-08
-1.61978e-07
1.06099e-08
-1.67588e-07
1.0387e-08
-1.73041e-07
1.01143e-08
-1.7831e-07
9.79069e-09
-1.83366e-07
9.4151e-09
-1.88183e-07
8.98684e-09
-1.92731e-07
8.50555e-09
-1.96983e-07
7.97122e-09
-2.0091e-07
7.38425e-09
-2.04486e-07
6.74542e-09
-2.07683e-07
6.05595e-09
-2.10477e-07
5.31748e-09
-2.12842e-07
4.53211e-09
-2.14756e-07
3.70239e-09
-2.16198e-07
2.83131e-09
-2.17148e-07
1.9223e-09
-2.17589e-07
9.7931e-10
-2.17506e-07
7.12056e-12
-2.16886e-07
-9.90127e-10
-2.15721e-07
-2.00701e-09
-2.14004e-07
-3.03799e-09
-2.1173e-07
-4.07715e-09
-2.08901e-07
-5.11831e-09
-2.05519e-07
-6.15503e-09
-2.0159e-07
-7.18066e-09
-1.97125e-07
-8.18842e-09
-1.92138e-07
-9.17143e-09
-1.86646e-07
-1.01228e-08
-1.80669e-07
-1.10356e-08
-1.74233e-07
-1.19031e-08
-1.67365e-07
-1.27188e-08
-1.60095e-07
-1.34764e-08
-1.52459e-07
-1.41698e-08
-1.44492e-07
-1.47935e-08
-1.36235e-07
-1.53424e-08
-1.27728e-07
-1.5812e-08
-1.19017e-07
-1.61983e-08
-1.10146e-07
-1.64979e-08
-1.01163e-07
-1.67085e-08
-9.21149e-08
-1.6828e-08
-8.30503e-08
-1.68555e-08
-7.40177e-08
-1.67907e-08
-6.50652e-08
-1.66343e-08
-5.62404e-08
-1.63877e-08
-4.75896e-08
-1.60531e-08
-3.91575e-08
-1.56336e-08
-3.0987e-08
-1.51329e-08
-2.31187e-08
-1.45555e-08
-1.55905e-08
-1.39067e-08
-8.43732e-09
-1.31922e-08
-1.69101e-09
-1.24183e-08
4.62017e-09
-1.15918e-08
1.04716e-08
-1.07196e-08
1.58424e-08
-9.80923e-09
2.07157e-08
-8.86813e-09
2.50784e-08
-7.90391e-09
2.89216e-08
-6.92418e-09
3.22403e-08
-5.93645e-09
3.50332e-08
-4.94807e-09
3.73031e-08
-3.96616e-09
3.90561e-08
-2.99755e-09
4.0302e-08
-2.04879e-09
4.10541e-08
-1.12606e-09
4.13287e-08
-2.35245e-10
4.11451e-08
6.18109e-10
4.05258e-08
1.42874e-09
3.9496e-08
2.19152e-09
3.80836e-08
2.90136e-09
3.63197e-08
3.55315e-09
3.42379e-08
4.14155e-09
3.18755e-08
4.66082e-09
2.92727e-08
5.10459e-09
2.64739e-08
5.46564e-09
2.35275e-08
5.73561e-09
2.0487e-08
5.90481e-09
1.74113e-08
5.96206e-09
1.4365e-08
5.89465e-09
1.14192e-08
5.6886e-09
8.65064e-09
5.32947e-09
6.14105e-09
4.80418e-09
3.97365e-09
4.10476e-09
2.2276e-09
3.23541e-09
9.67823e-10
2.22565e-09
2.29249e-10
1.15852e-09
2.32633e-10
2.37928e-10
-6.07541e-10
7.51187e-10
-1.43446e-09
1.39284e-09
-1.89863e-09
2.0513e-09
-2.04531e-09
2.63691e-09
-1.93088e-09
3.07815e-09
-1.61171e-09
3.31964e-09
-1.13863e-09
3.3202e-09
-5.54798e-10
3.0506e-09
1.04525e-10
2.49154e-09
8.11424e-10
1.63155e-09
1.54442e-09
4.65265e-10
2.28746e-09
-1.00817e-09
3.02898e-09
-2.78635e-09
3.76105e-09
-4.86475e-09
4.47864e-09
-7.23751e-09
5.17894e-09
-9.89817e-09
5.86086e-09
-1.28401e-08
6.52454e-09
-1.6057e-08
7.17099e-09
-1.95427e-08
7.80175e-09
-2.3292e-08
8.41867e-09
-2.72999e-08
9.02364e-09
-3.15623e-08
9.61847e-09
-3.60754e-08
1.02048e-08
-4.08359e-08
1.07838e-08
-4.58406e-08
1.13565e-08
-5.10865e-08
1.19233e-08
-5.65705e-08
1.24842e-08
-6.2289e-08
1.30388e-08
-6.82382e-08
1.35862e-08
-7.44136e-08
1.4125e-08
-8.08098e-08
1.46536e-08
-8.74205e-08
1.51696e-08
-9.42383e-08
1.56705e-08
-1.01254e-07
1.61535e-08
-1.08459e-07
1.66154e-08
-1.1584e-07
1.70526e-08
-1.23385e-07
1.74615e-08
-1.31078e-07
1.78381e-08
-1.38905e-07
1.81784e-08
-1.46845e-07
1.84782e-08
-1.5488e-07
1.87332e-08
-1.62987e-07
1.89391e-08
-1.71144e-07
1.90915e-08
-1.79324e-07
1.91861e-08
-1.87501e-07
1.92188e-08
-1.95648e-07
1.91854e-08
-2.03732e-07
1.90821e-08
-2.11724e-07
1.8905e-08
-2.1959e-07
1.86508e-08
-2.27296e-07
1.83164e-08
-2.34808e-07
1.7899e-08
-2.4209e-07
1.73962e-08
-2.49106e-07
1.68061e-08
-2.55818e-07
1.61273e-08
-2.6219e-07
1.5359e-08
-2.68185e-07
1.45008e-08
-2.73767e-07
1.35531e-08
-2.789e-07
1.25168e-08
-2.83548e-07
1.13937e-08
-2.87678e-07
1.01861e-08
-2.91258e-07
8.89702e-09
-2.94256e-07
7.53042e-09
-2.96644e-07
6.09084e-09
-2.98397e-07
4.58361e-09
-2.99489e-07
3.01479e-09
-2.99901e-07
1.39122e-09
-2.99615e-07
-2.79447e-10
-2.98615e-07
-1.98926e-09
-2.96893e-07
-3.72938e-09
-2.94441e-07
-5.49042e-09
-2.91255e-07
-7.26245e-09
-2.87339e-07
-9.03512e-09
-2.82696e-07
-1.07977e-08
-2.77338e-07
-1.25391e-08
-2.71278e-07
-1.4248e-08
-2.64536e-07
-1.59132e-08
-2.57136e-07
-1.75232e-08
-2.49104e-07
-1.90668e-08
-2.40475e-07
-2.05328e-08
-2.31283e-07
-2.19106e-08
-2.2157e-07
-2.31897e-08
-2.11379e-07
-2.43605e-08
-2.00759e-07
-2.54138e-08
-1.8976e-07
-2.63414e-08
-1.78436e-07
-2.71357e-08
-1.66844e-07
-2.77904e-08
-1.55042e-07
-2.83e-08
-1.4309e-07
-2.86604e-08
-1.31049e-07
-2.88685e-08
-1.18982e-07
-2.89226e-08
-1.06951e-07
-2.88223e-08
-9.50165e-08
-2.85685e-08
-8.32408e-08
-2.81635e-08
-7.16831e-08
-2.76108e-08
-6.04012e-08
-2.69154e-08
-4.94508e-08
-2.60833e-08
-3.88845e-08
-2.51219e-08
-2.87517e-08
-2.40395e-08
-1.90985e-08
-2.28455e-08
-9.96659e-09
-2.15502e-08
-1.39372e-09
-2.01647e-08
6.58707e-09
-1.87004e-08
1.39474e-08
-1.71696e-08
2.06639e-08
-1.55846e-08
2.67182e-08
-1.39582e-08
3.20968e-08
-1.23028e-08
3.67916e-08
-1.06313e-08
4.07993e-08
-8.95577e-09
4.41216e-08
-7.28844e-09
4.6765e-08
-5.64092e-09
4.87406e-08
-4.0244e-09
5.00641e-08
-2.44956e-09
5.07555e-08
-9.26688e-10
5.08391e-08
5.34526e-10
5.03431e-08
1.92473e-09
4.92998e-08
3.23486e-09
4.77452e-08
4.45596e-09
4.57194e-08
5.57895e-09
4.32665e-08
6.59444e-09
4.04348e-08
7.49252e-09
3.7277e-08
8.26234e-09
3.38509e-08
8.89182e-09
3.02191e-08
9.36737e-09
2.64503e-08
9.67356e-09
2.26193e-08
9.7931e-09
1.88071e-08
9.70687e-09
1.51011e-08
9.39458e-09
1.15945e-08
8.8361e-09
8.38443e-09
8.01422e-09
5.56938e-09
6.91981e-09
3.24439e-09
5.5604e-09
1.49513e-09
3.97491e-09
3.92848e-10
2.26079e-09
6.25481e-10
2.39812e-10
-8.47356e-10
7.41394e-10
-1.93604e-09
1.34121e-09
-2.49844e-09
1.91643e-09
-2.62053e-09
2.37065e-09
-2.38509e-09
2.6278e-09
-1.86885e-09
2.62896e-09
-1.13978e-09
2.32986e-09
-2.55701e-10
1.69868e-09
7.35708e-10
7.13873e-10
1.79623e-09
-6.37765e-10
2.89605e-09
-2.36288e-09
4.01257e-09
-4.46317e-09
5.12926e-09
-6.93671e-09
6.23458e-09
-9.77909e-09
7.32101e-09
-1.29843e-08
8.38419e-09
-1.65457e-08
9.42219e-09
-2.0456e-08
1.04348e-08
-2.47083e-08
1.14232e-08
-2.92958e-08
1.23893e-08
-3.42124e-08
1.33353e-08
-3.94524e-08
1.42637e-08
-4.50107e-08
1.51768e-08
-5.08825e-08
1.60766e-08
-5.70634e-08
1.69647e-08
-6.35489e-08
1.7842e-08
-7.03348e-08
1.87091e-08
-7.74162e-08
1.95656e-08
-8.4788e-08
2.04106e-08
-9.24444e-08
2.12426e-08
-1.00378e-07
2.20592e-08
-1.08582e-07
2.28576e-08
-1.17047e-07
2.36343e-08
-1.25762e-07
2.43855e-08
-1.34715e-07
2.51064e-08
-1.43892e-07
2.57924e-08
-1.53277e-07
2.64379e-08
-1.62853e-07
2.70374e-08
-1.726e-07
2.7585e-08
-1.82496e-07
2.80744e-08
-1.92518e-07
2.84995e-08
-2.02638e-07
2.88537e-08
-2.1283e-07
2.91307e-08
-2.23062e-07
2.9324e-08
-2.33303e-07
2.94274e-08
-2.43519e-07
2.94346e-08
-2.53674e-07
2.93398e-08
-2.63729e-07
2.91373e-08
-2.73646e-07
2.88219e-08
-2.83384e-07
2.83886e-08
-2.929e-07
2.78332e-08
-3.02153e-07
2.7152e-08
-3.11099e-07
2.63416e-08
-3.19693e-07
2.53998e-08
-3.2789e-07
2.43249e-08
-3.35647e-07
2.3116e-08
-3.42919e-07
2.17732e-08
-3.49664e-07
2.02974e-08
-3.55838e-07
1.86906e-08
-3.614e-07
1.69558e-08
-3.6631e-07
1.50968e-08
-3.70532e-07
1.31189e-08
-3.7403e-07
1.10281e-08
-3.76771e-07
8.83154e-09
-3.78725e-07
6.53758e-09
-3.79865e-07
4.15552e-09
-3.8017e-07
1.69575e-09
-3.79619e-07
-8.3037e-10
-3.78198e-07
-3.41063e-09
-3.75895e-07
-6.03191e-09
-3.72705e-07
-8.68026e-09
-3.68627e-07
-1.1341e-08
-3.63663e-07
-1.39989e-08
-3.57822e-07
-1.66382e-08
-3.51119e-07
-1.92427e-08
-3.43571e-07
-2.1796e-08
-3.35202e-07
-2.42815e-08
-3.26043e-07
-2.66827e-08
-3.16126e-07
-2.89833e-08
-3.05492e-07
-3.11673e-08
-2.94183e-07
-3.32191e-08
-2.82249e-07
-3.51238e-08
-2.69743e-07
-3.68673e-08
-2.5672e-07
-3.84366e-08
-2.43241e-07
-3.98197e-08
-2.29371e-07
-4.10057e-08
-2.15176e-07
-4.19855e-08
-2.00725e-07
-4.27513e-08
-1.86088e-07
-4.32969e-08
-1.71339e-07
-4.36179e-08
-1.5655e-07
-4.37119e-08
-1.41794e-07
-4.35779e-08
-1.27145e-07
-4.32174e-08
-1.12675e-07
-4.26334e-08
-9.84552e-08
-4.18309e-08
-8.45538e-08
-4.08168e-08
-7.10372e-08
-3.95998e-08
-5.79688e-08
-3.81903e-08
-4.54079e-08
-3.66004e-08
-3.341e-08
-3.48433e-08
-2.20262e-08
-3.2934e-08
-1.13026e-08
-3.08883e-08
-1.28011e-09
-2.87229e-08
8.00586e-09
-2.64556e-08
1.65255e-08
-2.41043e-08
2.42549e-08
-2.16876e-08
3.11761e-08
-1.9224e-08
3.72771e-08
-1.67322e-08
4.25518e-08
-1.42305e-08
4.70002e-08
-1.17368e-08
5.0628e-08
-9.26867e-09
5.34465e-08
-6.84293e-09
5.54728e-08
-4.47588e-09
5.67292e-08
-2.18307e-09
5.72432e-08
2.05081e-11
5.70476e-08
2.12036e-09
5.61799e-08
4.10251e-09
5.46828e-08
5.9531e-09
5.26037e-08
7.65806e-09
4.99951e-08
9.20305e-09
4.69145e-08
1.0573e-08
4.3425e-08
1.17519e-08
3.95951e-08
1.27218e-08
3.5499e-08
1.34634e-08
3.12177e-08
1.39549e-08
2.68381e-08
1.41727e-08
2.2454e-08
1.4091e-08
1.81652e-08
1.36834e-08
1.40773e-08
1.29241e-08
1.02998e-08
1.17917e-08
6.94476e-09
1.02748e-08
4.12414e-09
8.38102e-09
1.94857e-09
6.15048e-09
5.30364e-10
3.67899e-09
1.15584e-09
2.17459e-10
-1.06482e-09
6.51951e-10
-2.37053e-09
1.13533e-09
-2.98182e-09
1.54014e-09
-3.02534e-09
1.76722e-09
-2.61216e-09
1.73902e-09
-1.84065e-09
1.39579e-09
-7.96539e-10
6.92601e-10
4.47486e-10
-4.0301e-10
1.83132e-09
-1.91321e-09
3.30643e-09
-3.8518e-09
4.83464e-09
-6.22595e-09
6.38671e-09
-9.03774e-09
7.94105e-09
-1.22855e-08
9.48236e-09
-1.5965e-08
1.10005e-08
-2.00703e-08
1.24894e-08
-2.45943e-08
1.39462e-08
-2.95298e-08
1.53703e-08
-3.48694e-08
1.67628e-08
-4.06059e-08
1.81258e-08
-4.67325e-08
1.94619e-08
-5.3243e-08
2.07741e-08
-6.01312e-08
2.2065e-08
-6.73915e-08
2.33369e-08
-7.50183e-08
2.45915e-08
-8.3006e-08
2.58297e-08
-9.13486e-08
2.70517e-08
-1.0004e-07
2.82567e-08
-1.09072e-07
2.94431e-08
-1.18438e-07
3.06082e-08
-1.28127e-07
3.17488e-08
-1.3813e-07
3.28605e-08
-1.48434e-07
3.39382e-08
-1.59025e-07
3.49763e-08
-1.69887e-07
3.59683e-08
-1.81002e-07
3.69071e-08
-1.92349e-07
3.77853e-08
-2.03907e-07
3.8595e-08
-2.15649e-07
3.93278e-08
-2.2755e-07
3.99752e-08
-2.39579e-07
4.05285e-08
-2.51704e-07
4.09789e-08
-2.63891e-07
4.13175e-08
-2.76103e-07
4.15357e-08
-2.88301e-07
4.16249e-08
-3.00443e-07
4.15769e-08
-3.12487e-07
4.13837e-08
-3.24387e-07
4.10379e-08
-3.36098e-07
4.05325e-08
-3.47571e-07
3.98615e-08
-3.58757e-07
3.90191e-08
-3.69605e-07
3.80008e-08
-3.80067e-07
3.68028e-08
-3.90089e-07
3.54224e-08
-3.99622e-07
3.38578e-08
-4.08615e-07
3.21085e-08
-4.17017e-07
3.01752e-08
-4.24779e-07
2.80599e-08
-4.31855e-07
2.5766e-08
-4.38197e-07
2.3298e-08
-4.43762e-07
2.0662e-08
-4.48508e-07
1.78656e-08
-4.52398e-07
1.49176e-08
-4.55395e-07
1.18285e-08
-4.57467e-07
8.61002e-09
-4.58587e-07
5.27527e-09
-4.5873e-07
1.83876e-09
-4.57877e-07
-1.68375e-09
-4.56012e-07
-5.27534e-09
-4.53126e-07
-8.91796e-09
-4.49214e-07
-1.25925e-08
-4.44276e-07
-1.62791e-08
-4.38318e-07
-1.9957e-08
-4.31351e-07
-2.36048e-08
-4.23393e-07
-2.72007e-08
-4.14466e-07
-3.07227e-08
-4.04599e-07
-3.41485e-08
-3.93826e-07
-3.74559e-08
-3.82186e-07
-4.06232e-08
-3.69725e-07
-4.36288e-08
-3.56492e-07
-4.64522e-08
-3.42542e-07
-4.90733e-08
-3.27936e-07
-5.14735e-08
-3.12738e-07
-5.36352e-08
-2.97015e-07
-5.55425e-08
-2.80839e-07
-5.71811e-08
-2.64286e-07
-5.85385e-08
-2.47433e-07
-5.96044e-08
-2.3036e-07
-6.03703e-08
-2.13147e-07
-6.08305e-08
-1.95878e-07
-6.09812e-08
-1.78634e-07
-6.08214e-08
-1.61499e-07
-6.03526e-08
-1.44554e-07
-5.95786e-08
-1.27879e-07
-5.8506e-08
-1.11552e-07
-5.71436e-08
-9.5649e-08
-5.55029e-08
-8.02418e-08
-5.35975e-08
-6.53989e-08
-5.14433e-08
-5.11843e-08
-4.90579e-08
-3.76573e-08
-4.6461e-08
-2.48718e-08
-4.36738e-08
-1.2876e-08
-4.07187e-08
-1.71227e-09
-3.76193e-08
8.58344e-09
-3.44e-08
1.79816e-08
-3.10857e-08
2.64593e-08
-2.77017e-08
3.40003e-08
-2.42733e-08
4.05954e-08
-2.08256e-08
4.62418e-08
-1.73833e-08
5.09437e-08
-1.39706e-08
5.47117e-08
-1.06109e-08
5.7563e-08
-7.32713e-09
5.9521e-08
-4.14105e-09
6.06154e-08
-1.07393e-09
6.08819e-08
1.8538e-09
6.03623e-08
4.62219e-09
5.91038e-08
7.21159e-09
5.71598e-08
9.60204e-09
5.45895e-08
1.17734e-08
5.14578e-08
1.37047e-08
4.78359e-08
1.53738e-08
4.3801e-08
1.67567e-08
3.94367e-08
1.78276e-08
3.48334e-08
1.85583e-08
3.00879e-08
1.89182e-08
2.53036e-08
1.88752e-08
2.05906e-08
1.83964e-08
1.60643e-08
1.74503e-08
1.18455e-08
1.60104e-08
8.05964e-09
1.40608e-08
4.83634e-09
1.16043e-08
2.31219e-09
8.67462e-09
6.3827e-10
5.35292e-09
1.79412e-09
1.76525e-10
-1.24134e-09
4.98419e-10
-2.69242e-09
8.01574e-10
-3.28497e-09
9.59897e-10
-3.18366e-09
8.7538e-10
-2.52764e-09
4.71941e-10
-1.4372e-09
-3.08695e-10
-1.58993e-11
-1.5101e-09
1.64889e-09
-3.16367e-09
3.48489e-09
-5.2908e-09
5.43356e-09
-7.90478e-09
7.44861e-09
-1.10125e-08
9.49439e-09
-1.46158e-08
1.15443e-08
-1.8713e-08
1.35796e-08
-2.32998e-08
1.55873e-08
-2.83701e-08
1.75598e-08
-3.3917e-08
1.94931e-08
-3.9933e-08
2.13863e-08
-4.64104e-08
2.32402e-08
-5.33419e-08
2.50572e-08
-6.072e-08
2.68401e-08
-6.8538e-08
2.85921e-08
-7.6789e-08
3.0316e-08
-8.54664e-08
3.20143e-08
-9.45634e-08
3.36885e-08
-1.04073e-07
3.53394e-08
-1.13988e-07
3.69664e-08
-1.24299e-07
3.85682e-08
-1.34998e-07
4.01421e-08
-1.46074e-07
4.16842e-08
-1.57515e-07
4.31896e-08
-1.69307e-07
4.46524e-08
-1.81434e-07
4.60656e-08
-1.93879e-07
4.74213e-08
-2.06622e-07
4.87109e-08
-2.1964e-07
4.9925e-08
-2.32908e-07
5.10534e-08
-2.46399e-07
5.20858e-08
-2.60082e-07
5.30111e-08
-2.73925e-07
5.38181e-08
-2.87892e-07
5.44955e-08
-3.01945e-07
5.50318e-08
-3.16043e-07
5.54156e-08
-3.30143e-07
5.56358e-08
-3.442e-07
5.56814e-08
-3.58165e-07
5.55419e-08
-3.71988e-07
5.52075e-08
-3.85619e-07
5.46689e-08
-3.99004e-07
5.39175e-08
-4.12089e-07
5.29458e-08
-4.24817e-07
5.17473e-08
-4.37133e-07
5.03166e-08
-4.48979e-07
4.86495e-08
-4.603e-07
4.6743e-08
-4.71038e-07
4.45959e-08
-4.81138e-07
4.22083e-08
-4.90545e-07
3.95818e-08
-4.99204e-07
3.67198e-08
-5.07066e-07
3.36274e-08
-5.14079e-07
3.03115e-08
-5.20198e-07
2.67807e-08
-5.25378e-07
2.30453e-08
-5.29578e-07
1.91177e-08
-5.32761e-07
1.50118e-08
-5.34894e-07
1.07433e-08
-5.35949e-07
6.32969e-09
-5.359e-07
1.7901e-09
-5.34729e-07
-2.85488e-09
-5.32421e-07
-7.58316e-09
-5.28968e-07
-1.23713e-08
-5.24366e-07
-1.71948e-08
-5.18617e-07
-2.20278e-08
-5.1173e-07
-2.68439e-08
-5.03719e-07
-3.16156e-08
-4.94605e-07
-3.63153e-08
-4.84413e-07
-4.09147e-08
-4.73175e-07
-4.53857e-08
-4.60931e-07
-4.97002e-08
-4.47724e-07
-5.38304e-08
-4.33604e-07
-5.77493e-08
-4.18625e-07
-6.14306e-08
-4.02849e-07
-6.48492e-08
-3.86341e-07
-6.79815e-08
-3.69171e-07
-7.08053e-08
-3.51413e-07
-7.33003e-08
-3.33146e-07
-7.54484e-08
-3.14451e-07
-7.72339e-08
-2.95412e-07
-7.86433e-08
-2.76116e-07
-7.96661e-08
-2.56652e-07
-8.02945e-08
-2.37109e-07
-8.05238e-08
-2.17579e-07
-8.03523e-08
-1.9815e-07
-7.97814e-08
-1.78912e-07
-7.88159e-08
-1.59955e-07
-7.74636e-08
-1.41363e-07
-7.57354e-08
-1.2322e-07
-7.36455e-08
-1.05607e-07
-7.12107e-08
-8.85998e-08
-6.84507e-08
-7.22699e-08
-6.53879e-08
-5.66842e-08
-6.20467e-08
-4.19039e-08
-5.8454e-08
-2.79844e-08
-5.46382e-08
-1.49746e-08
-5.06292e-08
-2.91656e-09
-4.6458e-08
8.15439e-09
-4.21567e-08
1.82102e-08
-3.77576e-08
2.72303e-08
-3.32933e-08
3.52013e-08
-2.87966e-08
4.21175e-08
-2.42994e-08
4.79805e-08
-1.98336e-08
5.27994e-08
-1.54299e-08
5.65907e-08
-1.11184e-08
5.93777e-08
-6.92814e-09
6.11912e-08
-2.88742e-09
6.20687e-08
9.76349e-10
6.20546e-08
4.63631e-09
6.12e-08
8.06622e-09
5.95622e-08
1.12398e-08
5.72057e-08
1.41299e-08
5.42012e-08
1.67092e-08
5.0626e-08
1.89489e-08
4.65644e-08
2.08183e-08
4.21073e-08
2.22847e-08
3.73526e-08
2.3313e-08
3.24049e-08
2.38659e-08
2.73757e-08
2.39044e-08
2.23832e-08
2.3389e-08
1.7552e-08
2.22815e-08
1.30134e-08
2.05491e-08
8.90557e-09
1.81686e-08
5.37595e-09
1.51339e-08
2.58536e-09
1.14652e-08
7.17825e-10
7.22045e-09
2.51194e-09
1.21179e-10
-1.36252e-09
2.93153e-10
-2.8644e-09
3.61851e-10
-3.35367e-09
2.07486e-10
-3.02929e-09
-2.63126e-10
-2.05702e-09
-1.12188e-09
-5.78447e-10
-2.42338e-09
1.2856e-09
-4.20805e-09
3.43356e-09
-6.50469e-09
5.78153e-09
-9.33264e-09
8.26151e-09
-1.27036e-08
1.08196e-08
-1.66234e-08
1.34142e-08
-2.10931e-08
1.60141e-08
-2.61105e-08
1.8597e-08
-3.1671e-08
2.11478e-08
-3.77684e-08
2.36572e-08
-4.43956e-08
2.61203e-08
-5.15448e-08
2.85356e-08
-5.92084e-08
3.09038e-08
-6.73786e-08
3.32274e-08
-7.60478e-08
3.55093e-08
-8.52084e-08
3.77528e-08
-9.48532e-08
3.99607e-08
-1.04974e-07
4.21354e-08
-1.15564e-07
4.42781e-08
-1.26614e-07
4.6389e-08
-1.38114e-07
4.84669e-08
-1.50055e-07
5.05091e-08
-1.62425e-07
5.25118e-08
-1.7521e-07
5.44695e-08
-1.88396e-07
5.63756e-08
-2.01965e-07
5.82219e-08
-2.15899e-07
5.99995e-08
-2.30176e-07
6.16978e-08
-2.4477e-07
6.33057e-08
-2.59657e-07
6.4811e-08
-2.74804e-07
6.6201e-08
-2.90181e-07
6.74622e-08
-3.0575e-07
6.85808e-08
-3.21475e-07
6.95427e-08
-3.37313e-07
7.03336e-08
-3.53221e-07
7.09393e-08
-3.69151e-07
7.13457e-08
-3.85054e-07
7.1539e-08
-4.00878e-07
7.1506e-08
-4.1657e-07
7.12339e-08
-4.32074e-07
7.07108e-08
-4.4733e-07
6.99257e-08
-4.62282e-07
6.88688e-08
-4.76867e-07
6.75312e-08
-4.91025e-07
6.59055e-08
-5.04695e-07
6.39859e-08
-5.17813e-07
6.17681e-08
-5.30319e-07
5.92493e-08
-5.42152e-07
5.64289e-08
-5.53252e-07
5.3308e-08
-5.6356e-07
4.98896e-08
-5.73019e-07
4.6179e-08
-5.81575e-07
4.21834e-08
-5.89176e-07
3.79122e-08
-5.95772e-07
3.33771e-08
-6.01319e-07
2.85918e-08
-6.05773e-07
2.35722e-08
-6.09098e-07
1.83364e-08
-6.11259e-07
1.29045e-08
-6.12228e-07
7.2986e-09
-6.11981e-07
1.54283e-09
-6.10498e-07
-4.33698e-09
-6.07768e-07
-1.03133e-08
-6.03783e-07
-1.6357e-08
-5.9854e-07
-2.24376e-08
-5.92044e-07
-2.85235e-08
-5.84306e-07
-3.45819e-08
-5.75343e-07
-4.05793e-08
-5.65176e-07
-4.64817e-08
-5.53836e-07
-5.22547e-08
-5.41358e-07
-5.78639e-08
-5.27783e-07
-6.32751e-08
-5.13159e-07
-6.84544e-08
-4.97539e-07
-7.33688e-08
-4.80983e-07
-7.79866e-08
-4.63555e-07
-8.22771e-08
-4.45326e-07
-8.62114e-08
-4.26368e-07
-8.97626e-08
-4.06762e-07
-9.2906e-08
-3.86592e-07
-9.56193e-08
-3.65942e-07
-9.78831e-08
-3.44905e-07
-9.9681e-08
-3.23571e-07
-1.01e-07
-3.02036e-07
-1.0183e-07
-2.80394e-07
-1.02165e-07
-2.58744e-07
-1.02003e-07
-2.37182e-07
-1.01344e-07
-2.15803e-07
-1.00195e-07
-1.94703e-07
-9.85633e-08
-1.73976e-07
-9.64631e-08
-1.53711e-07
-9.39104e-08
-1.33996e-07
-9.09256e-08
-1.14914e-07
-8.75322e-08
-9.6545e-08
-8.3757e-08
-7.89621e-08
-7.96297e-08
-6.22336e-08
-7.51825e-08
-4.64215e-08
-7.04503e-08
-3.15813e-08
-6.54694e-08
-1.77613e-08
-6.0278e-08
-5.00263e-09
-5.49153e-08
6.66136e-09
-4.94216e-08
1.72051e-08
-4.38371e-08
2.6611e-08
-3.82025e-08
3.48695e-08
-3.2558e-08
4.19794e-08
-2.69434e-08
4.79473e-08
-2.13978e-08
5.27879e-08
-1.5959e-08
5.65241e-08
-1.06643e-08
5.91864e-08
-5.54968e-09
6.08129e-08
-6.50159e-10
6.14495e-08
3.99974e-09
6.11498e-08
8.3659e-09
5.99747e-08
1.24149e-08
5.79916e-08
1.61129e-08
5.52758e-08
1.94251e-08
5.19095e-08
2.23152e-08
4.79823e-08
2.47455e-08
4.35909e-08
2.66761e-08
3.88392e-08
2.80647e-08
3.38382e-08
2.88669e-08
2.8706e-08
2.90366e-08
2.35682e-08
2.85268e-08
1.85575e-08
2.72922e-08
1.3815e-08
2.52915e-08
9.49157e-09
2.2492e-08
5.7506e-09
1.88749e-08
2.77401e-09
1.44418e-08
7.7192e-10
9.22253e-09
3.28386e-09
5.44224e-11
-1.41695e-09
4.56341e-11
-2.85561e-09
-1.66282e-10
-3.14175e-09
-6.9089e-10
-2.50468e-09
-1.61331e-09
-1.1346e-09
-2.99872e-09
8.06965e-10
-4.89601e-09
3.18289e-09
-7.34076e-09
5.87832e-09
-1.03578e-08
8.79855e-09
-1.39631e-08
1.18669e-08
-1.81661e-08
1.50225e-08
-2.29704e-08
1.82185e-08
-2.83759e-08
2.14196e-08
-3.43795e-08
2.46005e-08
-4.09757e-08
2.7744e-08
-4.81581e-08
3.08396e-08
-5.59193e-08
3.38814e-08
-6.42514e-08
3.68676e-08
-7.31464e-08
3.97989e-08
-8.25965e-08
4.26775e-08
-9.25936e-08
4.55064e-08
-1.0313e-07
4.82888e-08
-1.14197e-07
5.10276e-08
-1.25786e-07
5.37245e-08
-1.37888e-07
5.63803e-08
-1.50493e-07
5.89943e-08
-1.6359e-07
6.15641e-08
-1.77167e-07
6.40859e-08
-1.91209e-07
6.65541e-08
-2.05701e-07
6.89613e-08
-2.20624e-07
7.12987e-08
-2.35959e-07
7.3556e-08
-2.5168e-07
7.57213e-08
-2.67764e-07
7.77817e-08
-2.84181e-07
7.97229e-08
-3.009e-07
8.15299e-08
-3.17886e-07
8.31869e-08
-3.35101e-07
8.46772e-08
-3.52504e-07
8.5984e-08
-3.70052e-07
8.70902e-08
-3.87697e-07
8.79784e-08
-4.05389e-07
8.86314e-08
-4.23076e-07
8.90326e-08
-4.40702e-07
8.91654e-08
-4.5821e-07
8.90143e-08
-4.75541e-07
8.85644e-08
-4.92632e-07
8.78018e-08
-5.0942e-07
8.6714e-08
-5.25841e-07
8.52899e-08
-5.4183e-07
8.35196e-08
-5.5732e-07
8.13953e-08
-5.72244e-07
7.89108e-08
-5.86538e-07
7.6062e-08
-6.00136e-07
7.28468e-08
-6.12972e-07
6.92655e-08
-6.24985e-07
6.53206e-08
-6.36112e-07
6.10169e-08
-6.46295e-07
5.63617e-08
-6.55477e-07
5.13651e-08
-6.63604e-07
4.60393e-08
-6.70626e-07
4.03994e-08
-6.76497e-07
3.44627e-08
-6.81174e-07
2.82493e-08
-6.84619e-07
2.17816e-08
-6.86799e-07
1.50843e-08
-6.87685e-07
8.18468e-09
-6.87255e-07
1.11193e-09
-6.85489e-07
-6.1026e-09
-6.82376e-07
-1.34257e-08
-6.77911e-07
-2.08223e-08
-6.72093e-07
-2.8256e-08
-6.64927e-07
-3.56889e-08
-6.56427e-07
-4.3082e-08
-6.46611e-07
-5.03956e-08
-6.35504e-07
-5.75891e-08
-6.23137e-07
-6.46219e-08
-6.09547e-07
-7.14531e-08
-5.9478e-07
-7.80423e-08
-5.78885e-07
-8.43495e-08
-5.61918e-07
-9.03357e-08
-5.43942e-07
-9.59631e-08
-5.25023e-07
-1.01196e-07
-5.05236e-07
-1.05999e-07
-4.84657e-07
-1.10341e-07
-4.6337e-07
-1.14193e-07
-4.41462e-07
-1.17528e-07
-4.19023e-07
-1.20322e-07
-3.96147e-07
-1.22556e-07
-3.72932e-07
-1.24215e-07
-3.49478e-07
-1.25285e-07
-3.25883e-07
-1.25759e-07
-3.02252e-07
-1.25634e-07
-2.78686e-07
-1.2491e-07
-2.55287e-07
-1.23593e-07
-2.32157e-07
-1.21694e-07
-2.09394e-07
-1.19226e-07
-1.87096e-07
-1.16208e-07
-1.65357e-07
-1.12665e-07
-1.44267e-07
-1.08622e-07
-1.23912e-07
-1.04112e-07
-1.04372e-07
-9.91698e-08
-8.57217e-08
-9.38324e-08
-6.80307e-08
-8.81413e-08