/*--------------------------------*- C++ -*----------------------------------*\
  =========                 |
  \\      /  F ield         | OpenFOAM: The Open Source CFD Toolbox
   \\    /   O peration     | Website:  https://openfoam.org
    \\  /    A nd           | Version:  12
     \\/     M anipulation  |
\*---------------------------------------------------------------------------*/
FoamFile
{
    format      ascii;
    class       volScalarField;
    location    "7";
    object      epsilon;
}
// * * * * * * * * * * * * * * * * * * * * * * * * * * * * * * * * * * * * * //

dimensions      [0 2 -3 0 0 0 0];

internalField   nonuniform List<scalar> 
5625
(
3.4124e-07
2.3081e-06
5.13705e-06
8.49929e-06
1.22382e-05
1.6256e-05
2.04868e-05
2.48885e-05
2.94398e-05
3.41391e-05
3.90032e-05
4.40672e-05
4.93827e-05
5.50174e-05
6.10531e-05
6.7585e-05
7.472e-05
8.25757e-05
9.12789e-05
0.000100964
0.000111773
0.000123852
0.000137352
0.000152425
0.000169225
0.000187905
0.000208615
0.000231499
0.000256697
0.000284339
0.000314546
0.000347428
0.000383082
0.000421591
0.000463026
0.000507441
0.000554872
0.000605339
0.00065884
0.000715347
0.0007748
0.000837099
0.000902089
0.000969546
0.00103915
0.00111047
0.00118292
0.00125574
0.00132793
0.00139826
0.0014652
0.00152691
0.00158119
0.00162535
0.00165523
0.00166864
0.00166916
0.00164771
0.00160312
0.0015352
0.00144465
0.00133351
0.00120535
0.00106512
0.000918731
0.000772438
0.000632099
0.000502519
0.000386995
0.000287152
0.000203088
0.000133792
7.77983e-05
3.41955e-05
5.03672e-06
6.44784e-07
1.25715e-06
2.51881e-06
4.07725e-06
5.82767e-06
7.71623e-06
9.70932e-06
1.17861e-05
1.39362e-05
1.61585e-05
1.8461e-05
2.08602e-05
2.33806e-05
2.6054e-05
2.89194e-05
3.2022e-05
3.54126e-05
3.91471e-05
4.32861e-05
4.78939e-05
5.30383e-05
5.87899e-05
6.5221e-05
7.24059e-05
8.04191e-05
8.93353e-05
9.92283e-05
0.00011017
0.00012223
0.000135475
0.000149966
0.000165761
0.000182911
0.000201462
0.000221453
0.000242915
0.00026587
0.000290331
0.0003163
0.000343761
0.000372685
0.000403015
0.000434668
0.000467518
0.00050139
0.000536049
0.000571178
0.00060637
0.000641107
0.000674749
0.000706519
0.000735494
0.00076059
0.000780507
0.000793281
0.000798269
0.000796655
0.000784646
0.000761767
0.000728052
0.000683965
0.000630566
0.000569571
0.000503278
0.000434376
0.000365681
0.000299817
0.000238944
0.000184561
0.000137431
9.76496e-05
6.48367e-05
3.84908e-05
1.87206e-05
9.50803e-06
1.36988e-06
1.2252e-06
1.94138e-06
2.95156e-06
4.12507e-06
5.40823e-06
6.77205e-06
8.19985e-06
9.68343e-06
1.12217e-05
1.282e-05
1.44896e-05
1.62478e-05
1.81168e-05
2.0124e-05
2.23013e-05
2.46848e-05
2.73145e-05
3.02336e-05
3.34889e-05
3.71297e-05
4.12079e-05
4.57773e-05
5.08938e-05
5.66143e-05
6.29968e-05
7.00995e-05
7.79808e-05
8.6698e-05
9.63074e-05
0.000106863
0.000118417
0.000131017
0.000144706
0.000159524
0.000175501
0.000192661
0.000211017
0.000230569
0.000251301
0.000273178
0.000296138
0.000320089
0.0003449
0.000370397
0.000396347
0.000422457
0.000448363
0.000473617
0.000497694
0.000519977
0.000539771
0.000556284
0.000568566
0.000575157
0.000576537
0.000572532
0.000561218
0.000542421
0.000516322
0.000483387
0.000444458
0.000400764
0.000353869
0.000305551
0.000257636
0.000211813
0.000169467
0.000131572
9.86505e-05
7.08266e-05
4.79854e-05
3.01159e-05
1.82775e-05
2.01201e-05
2.24157e-06
1.46869e-06
1.83666e-06
2.54569e-06
3.42577e-06
4.41324e-06
5.47707e-06
6.60061e-06
7.77585e-06
9.00131e-06
1.0281e-05
1.16242e-05
1.30447e-05
1.45609e-05
1.61955e-05
1.7975e-05
1.99297e-05
2.20935e-05
2.45036e-05
2.72004e-05
3.02274e-05
3.36308e-05
3.74596e-05
4.17655e-05
4.66022e-05
5.20257e-05
5.80937e-05
6.48654e-05
7.24006e-05
8.07595e-05
9.00016e-05
0.000100184
0.000111363
0.000123586
0.000136899
0.000151335
0.000166918
0.000183655
0.000201535
0.000220526
0.000240565
0.000261559
0.000283375
0.00030584
0.000328732
0.000351782
0.000374665
0.000397006
0.00041837
0.000438274
0.000456189
0.000471554
0.000483783
0.000491824
0.000495047
0.00049424
0.000488464
0.000476779
0.000459118
0.000435677
0.000406866
0.000373386
0.000336238
0.000296688
0.00025617
0.000216157
0.000178005
0.000142825
0.000111393
8.41394e-05
6.12178e-05
4.26842e-05
2.89075e-05
2.18108e-05
3.26873e-05
3.2337e-06
1.8469e-06
1.93638e-06
2.43205e-06
3.12058e-06
3.92494e-06
4.8096e-06
5.75635e-06
6.7565e-06
7.80803e-06
8.91424e-06
1.00832e-05
1.13273e-05
1.26633e-05
1.41117e-05
1.5697e-05
1.74474e-05
1.93949e-05
2.1575e-05
2.40269e-05
2.67934e-05
2.99209e-05
3.34596e-05
3.74633e-05
4.19892e-05
4.70982e-05
5.28542e-05
5.93242e-05
6.65771e-05
7.46831e-05
8.37128e-05
9.37337e-05
0.000104809
0.000116997
0.000130344
0.000144882
0.000160626
0.000177565
0.000195661
0.000214842
0.000235001
0.000255988
0.000277607
0.000299622
0.000321754
0.000343688
0.000365077
0.000385548
0.000404701
0.000422121
0.000437388
0.000450082
0.000459797
0.000465382
0.000467088
0.000465315
0.000459035
0.000447635
0.000430971
0.000409087
0.000382262
0.000351042
0.000316291
0.000279168
0.000241041
0.000203352
0.000167445
0.000134423
0.000105056
7.97749e-05
5.87713e-05
4.22228e-05
3.07996e-05
2.72007e-05
4.66745e-05
4.32869e-06
2.31137e-06
2.15406e-06
2.4787e-06
3.02469e-06
3.70055e-06
4.4651e-06
5.29785e-06
6.18909e-06
7.13618e-06
8.14199e-06
9.21409e-06
1.03644e-05
1.1609e-05
1.29681e-05
1.44659e-05
1.61305e-05
1.79944e-05
2.0094e-05
2.24702e-05
2.51684e-05
2.82387e-05
3.17359e-05
3.572e-05
4.02558e-05
4.54132e-05
5.12668e-05
5.7895e-05
6.53796e-05
7.38039e-05
8.32514e-05
9.37995e-05
0.000105513
0.000118454
0.000132667
0.000148169
0.000164951
0.000182967
0.000202131
0.000222315
0.000243345
0.000265004
0.000287024
0.000309109
0.000330939
0.000352178
0.000372493
0.000391567
0.000409074
0.000424717
0.000438214
0.000449288
0.000457692
0.00046248
0.000463979
0.000462531
0.000457012
0.000446826
0.000431649
0.000411303
0.000385822
0.000355567
0.000321287
0.000284122
0.000245523
0.000207087
0.000170354
0.000136604
0.00010674
8.12742e-05
6.04539e-05
4.45499e-05
3.44872e-05
3.36775e-05
6.16691e-05
5.5162e-06
2.84058e-06
2.45198e-06
2.62996e-06
3.06151e-06
3.64062e-06
4.31968e-06
5.07542e-06
5.897e-06
6.78125e-06
7.73079e-06
8.75316e-06
9.86038e-06
1.10689e-05
1.23993e-05
1.3877e-05
1.55314e-05
1.73971e-05
1.95133e-05
2.19246e-05
2.46813e-05
2.78395e-05
3.14615e-05
3.56165e-05
4.03789e-05
4.583e-05
5.20576e-05
5.91539e-05
6.72141e-05
7.63346e-05
8.66109e-05
9.8129e-05
0.000110966
0.000125173
0.000140777
0.000157767
0.000176091
0.000195648
0.000216281
0.000237781
0.000259886
0.000282292
0.000304677
0.000326704
0.000348042
0.000368386
0.00038747
0.000405071
0.000421032
0.000435231
0.000447565
0.000457927
0.000466147
0.000471715
0.000474227
0.000474304
0.000470789
0.000462879
0.000449959
0.000431529
0.00040735
0.000377569
0.00034282
0.00030426
0.000263491
0.000222378
0.000182786
0.000146322
0.000114146
8.69378e-05
6.504e-05
4.88078e-05
3.93954e-05
4.0875e-05
7.73744e-05
6.79066e-06
3.42385e-06
2.81086e-06
2.85746e-06
3.19299e-06
3.69605e-06
4.31236e-06
5.01584e-06
5.79425e-06
6.64393e-06
7.56744e-06
8.57263e-06
9.67216e-06
1.08834e-05
1.22285e-05
1.37345e-05
1.54336e-05
1.73635e-05
1.95678e-05
2.20963e-05
2.50057e-05
2.83603e-05
3.22316e-05
3.67e-05
4.18536e-05
4.77884e-05
5.46065e-05
6.24157e-05
7.13261e-05
8.14461e-05
9.28757e-05
0.000105705
0.000120002
0.0001358
0.000153094
0.000171825
0.000191877
0.000213068
0.000235155
0.000257837
0.000280767
0.000303578
0.000325907
0.000347416
0.000367821
0.000386908
0.000404544
0.000420677
0.000435327
0.000448547
0.00046039
0.000470859
0.000479844
0.000487057
0.000492095
0.00049434
0.000493719
0.000488856
0.000478816
0.000462727
0.000440059
0.000410731
0.000375237
0.000334726
0.000290949
0.000246069
0.000202349
0.000161819
0.000126014
9.5878e-05
7.19091e-05
5.45651e-05
4.52222e-05
4.85913e-05
9.35817e-05
8.14961e-06
4.05566e-06
3.21995e-06
3.14498e-06
3.39771e-06
3.83956e-06
4.40962e-06
5.07877e-06
5.83344e-06
6.66952e-06
7.58976e-06
8.60256e-06
9.72163e-06
1.09658e-05
1.23593e-05
1.39317e-05
1.57187e-05
1.77626e-05
2.01125e-05
2.28251e-05
2.59655e-05
2.96075e-05
3.38341e-05
3.8738e-05
4.44214e-05
5.09954e-05
5.85781e-05
6.72919e-05
7.72594e-05
8.85976e-05
0.000101409
0.000115776
0.000131746
0.000149319
0.000168435
0.000188967
0.000210714
0.000233398
0.000256678
0.00028016
0.000303432
0.000326089
0.000347773
0.000368205
0.000387206
0.000404712
0.000420769
0.000435515
0.000449149
0.000461878
0.000473867
0.000485182
0.000495732
0.000505241
0.000513283
0.000518914
0.000521189
0.000519789
0.000513052
0.000499692
0.000478893
0.000450334
0.000414323
0.000371932
0.000324995
0.000275929
0.000227408
0.000181951
0.000141566
0.000107573
8.07075e-05
6.1577e-05
5.17967e-05
5.67085e-05
0.000110155
9.59276e-06
4.73334e-06
3.67301e-06
3.48281e-06
3.66257e-06
4.05447e-06
4.59113e-06
5.24008e-06
5.98643e-06
6.82574e-06
7.76105e-06
8.80164e-06
9.96258e-06
1.12647e-05
1.27347e-05
1.44059e-05
1.63182e-05
1.85192e-05
2.10646e-05
2.40191e-05
2.74573e-05
3.1464e-05
3.61349e-05
4.15768e-05
4.7907e-05
5.52522e-05
6.37454e-05
7.35222e-05
8.47142e-05
9.74409e-05
0.000111799
0.000127849
0.000145604
0.00016501
0.000185934
0.00020816
0.000231386
0.000255228
0.000279249
0.000302984
0.000325979
0.000347844
0.000368284
0.000387135
0.000404379
0.000420138
0.000434651
0.000448237
0.000461239
0.000473967
0.000486637
0.00049932
0.000511895
0.000524024
0.000535145
0.000544413
0.00055012
0.000551765
0.000548576
0.000538286
0.000519816
0.000492599
0.000456696
0.000413002
0.000363314
0.000310208
0.00025672
0.000205884
0.000160269
0.000121686
9.12187e-05
6.96976e-05
5.90192e-05
6.51621e-05
0.000127034
1.11214e-05
5.45592e-06
4.16647e-06
3.86495e-06
3.97911e-06
4.33005e-06
4.84383e-06
5.48428e-06
6.23524e-06
7.092e-06
8.05805e-06
9.14378e-06
1.0366e-05
1.17478e-05
1.33193e-05
1.51177e-05
1.7188e-05
1.95841e-05
2.23692e-05
2.56172e-05
2.9413e-05
3.38538e-05
3.90489e-05
4.51199e-05
5.21995e-05
6.04295e-05
6.99563e-05
8.09251e-05
9.34711e-05
0.000107708
0.000123715
0.000141517
0.000161074
0.000182257
0.000204845
0.000228516
0.000252855
0.00027738
0.000301573
0.000324928
0.000347004
0.000367475
0.000386172
0.000403095
0.000418417
0.000432455
0.000445624
0.000458378
0.00047115
0.000484283
0.000497986
0.000512283
0.00052699
0.000541692
0.000555728
0.000568179
0.000577669
0.000582033
0.000582171
0.000575255
0.000559627
0.000534491
0.000499603
0.000455563
0.000403985
0.000347456
0.000289272
0.000232965
0.00018173
0.000137991
0.000103309
7.884e-05
6.68334e-05
7.39098e-05
0.000144158
1.27381e-05
6.22355e-06
4.69844e-06
4.28762e-06
4.34172e-06
4.65922e-06
5.15899e-06
5.80107e-06
6.56795e-06
7.45471e-06
8.46545e-06
9.61186e-06
1.09128e-05
1.23941e-05
1.40897e-05
1.60412e-05
1.82995e-05
2.09256e-05
2.3991e-05
2.75796e-05
3.17879e-05
3.67259e-05
4.25173e-05
4.92986e-05
5.72175e-05
6.64295e-05
7.70912e-05
8.93527e-05
0.000103345
0.000119166
0.000136863
0.000156409
0.000177693
0.000200496
0.000224489
0.000249235
0.000274216
0.000298862
0.000322609
0.000344958
0.000365535
0.000384137
0.000400762
0.000415609
0.000429044
0.000441556
0.000453689
0.000465971
0.000478853
0.000492654
0.000507523
0.00052341
0.000540058
0.00055699
0.000573497
0.000588624
0.00060126
0.000608958
0.000611506
0.00060821
0.000595931
0.000573675
0.000540856
0.000497672
0.000445392
0.000386431
0.000324198
0.00026265
0.000205642
0.00015633
0.000116902
8.89566e-05
7.52137e-05
8.29352e-05
0.000161514
1.44464e-05
7.0372e-06
5.26815e-06
4.74855e-06
4.74672e-06
5.03718e-06
5.5307e-06
6.18342e-06
6.97645e-06
7.90467e-06
8.97291e-06
1.01944e-05
1.15902e-05
1.31895e-05
1.503e-05
1.71589e-05
1.96333e-05
2.25219e-05
2.59055e-05
2.98785e-05
3.45497e-05
4.00425e-05
4.64951e-05
5.40587e-05
6.28946e-05
7.31691e-05
8.50451e-05
9.86708e-05
0.000114164
0.000131594
0.00015096
0.00017217
0.000195022
0.000219192
0.000244235
0.000269605
0.000294691
0.000318869
0.000341575
0.000362368
0.000380996
0.000397427
0.000411854
0.000424674
0.000436425
0.000447719
0.000459164
0.000471296
0.000484524
0.000499092
0.000515061
0.000532302
0.000550498
0.000569143
0.000587533
0.000604763
0.000619817
0.000630764
0.000635599
0.000635628
0.000627129
0.000608499
0.000578805
0.00053777
0.000486165
0.00042604
0.000360719
0.000294453
0.000231748
0.00017659
0.000131954
0.000100031
8.41574e-05
9.22409e-05
0.000179122
1.62506e-05
7.89839e-06
5.87561e-06
5.24649e-06
5.19172e-06
5.46073e-06
5.95489e-06
6.62653e-06
7.45519e-06
8.4356e-06
9.57339e-06
1.08834e-05
1.23894e-05
1.4124e-05
1.61295e-05
1.84586e-05
2.11756e-05
2.43573e-05
2.80944e-05
3.24926e-05
3.76731e-05
4.37732e-05
5.09449e-05
5.9353e-05
6.91704e-05
8.05707e-05
9.37169e-05
0.000108747
0.000125756
0.00014477
0.000165726
0.000188448
0.000212632
0.000237839
0.000263511
0.000289005
0.000313644
0.000336794
0.000357941
0.000376758
0.000393159
0.000407309
0.000419603
0.00043061
0.000440993
0.000451427
0.000462518
0.000474747
0.000488438
0.000503731
0.000520595
0.000538831
0.000558088
0.00057787
0.000597522
0.000616228
0.000633043
0.000646586
0.000654407
0.000656797
0.000652384
0.000637961
0.000612317
0.000574659
0.000525157
0.000465302
0.000398099
0.000327908
0.000259807
0.000198678
0.000148445
0.000112071
9.36791e-05
0.000101844
0.000197021
1.81558e-05
8.80912e-06
6.5214e-06
5.78093e-06
5.67543e-06
5.92773e-06
6.42884e-06
7.12713e-06
8.00043e-06
9.04325e-06
1.02621e-05
1.16737e-05
1.33045e-05
1.51911e-05
1.73805e-05
1.99316e-05
2.29162e-05
2.64199e-05
3.05435e-05
3.54045e-05
4.11367e-05
4.78906e-05
5.58317e-05
6.51363e-05
7.59857e-05
8.85558e-05
0.000103003
0.000119447
0.000137944
0.000158467
0.000180875
0.000204896
0.000230112
0.000255972
0.000281815
0.000306922
0.000330594
0.000352233
0.000371426
0.000388006
0.000402083
0.000414024
0.000424405
0.000433926
0.000443315
0.000453246
0.000464265
0.000476755
0.000490928
0.000506818
0.000524308
0.000543151
0.00056299
0.000583369
0.000603715
0.000623334
0.000641419
0.000656799
0.000667602
0.000672205
0.000671539
0.000661668
0.000640748
0.000607498
0.000561434
0.000503326
0.000435622
0.000362536
0.000289568
0.000222503
0.000166368
0.000125097
0.000103806
0.00011177
0.000215263
2.01676e-05
9.77177e-06
7.20656e-06
6.35196e-06
6.19721e-06
6.4369e-06
6.95083e-06
7.68312e-06
8.6097e-06
9.72481e-06
1.10359e-05
1.25616e-05
1.43313e-05
1.63857e-05
1.87772e-05
2.15712e-05
2.4847e-05
2.86996e-05
3.32404e-05
3.85983e-05
4.49199e-05
5.23683e-05
6.11204e-05
7.13618e-05
8.32782e-05
9.70419e-05
0.000112795
0.000130626
0.000150546
0.000172455
0.000196126
0.000221178
0.000247083
0.000273181
0.000298728
0.000322968
0.000345221
0.000364977
0.000381969
0.000396221
0.000408046
0.000418
0.000426798
0.000435219
0.000443996
0.000453749
0.00046492
0.000477765
0.000492385
0.000508713
0.000526567
0.000545676
0.000565697
0.000586222
0.000606783
0.000626815
0.000645657
0.000662303
0.000675576
0.000682982
0.000685004
0.000679762
0.000663917
0.000635795
0.000594278
0.00053932
0.000472575
0.000397821
0.000320742
0.000247961
0.000185718
0.000139138
0.000114573
0.000122053
0.000233907
2.22924e-05
1.0789e-05
7.93245e-06
6.96006e-06
6.75692e-06
6.98761e-06
7.51992e-06
8.29328e-06
9.28152e-06
1.04785e-05
1.18926e-05
1.35446e-05
1.54669e-05
1.77045e-05
2.03154e-05
2.33717e-05
2.69609e-05
3.11874e-05
3.61732e-05
4.20586e-05
4.90022e-05
5.71784e-05
6.67738e-05
7.79798e-05
9.09813e-05
0.000105941
0.000122976
0.000142137
0.000163372
0.000186504
0.000211204
0.000236983
0.000263205
0.00028912
0.000313931
0.000336885
0.000357369
0.000375002
0.000389699
0.000401687
0.000411475
0.00041977
0.000427378
0.000435117
0.000443674
0.000453511
0.000464976
0.000478227
0.000493243
0.000509873
0.000527893
0.000547023
0.000566955
0.000587344
0.00060781
0.000627917
0.000647131
0.000664618
0.000679474
0.000689788
0.000694029
0.000692834
0.000682069
0.000659411
0.000623218
0.000572609
0.000508262
0.000433207
0.000352993
0.000274912
0.00020648
0.000154224
0.000126021
0.000132727
0.000253012
2.45368e-05
1.18638e-05
8.70072e-06
7.60608e-06
7.35488e-06
7.57976e-06
8.13576e-06
8.95706e-06
1.00152e-05
1.13035e-05
1.28312e-05
1.46211e-05
1.67092e-05
1.91446e-05
2.19913e-05
2.53282e-05
2.92514e-05
3.38744e-05
3.93297e-05
4.57689e-05
5.33612e-05
6.22908e-05
7.27513e-05
8.49357e-05
9.90228e-05
0.000115157
0.000133425
0.000153824
0.000176234
0.000200386
0.000225849
0.000252029
0.000278192
0.000303524
0.000327212
0.000348547
0.000367026
0.000382436
0.000394889
0.000404811
0.000412878
0.000419909
0.000426835
0.000434272
0.000442841
0.000452986
0.000464902
0.000478587
0.000493968
0.00051082
0.000528894
0.000547918
0.000567628
0.000587748
0.000607973
0.000627975
0.00064731
0.000665265
0.00068107
0.000693569
0.00070024
0.000701812
0.000695818
0.000678554
0.000648051
0.000602679
0.000542034
0.000468102
0.000385919
0.000303171
0.000228617
0.00017038
0.000138188
0.000143826
0.000272634
2.6908e-05
1.29994e-05
9.51323e-06
8.29115e-06
7.99175e-06
8.21369e-06
8.79848e-06
9.67444e-06
1.08105e-05
1.21994e-05
1.3851e-05
1.57903e-05
1.80565e-05
2.07037e-05
2.38014e-05
2.74359e-05
3.17113e-05
3.67508e-05
4.26968e-05
4.9711e-05
5.79722e-05
6.76723e-05
7.90082e-05
9.21703e-05
0.000107325
0.000124592
0.000144015
0.000165532
0.000188944
0.000213887
0.000239829
0.000266076
0.00029182
0.000316213
0.000338463
0.000357948
0.000374312
0.000387529
0.000397911
0.000406064
0.000412806
0.000419107
0.000425582
0.000433043
0.000441965
0.000452629
0.000465087
0.000479275
0.000495027
0.000512084
0.000530189
0.000549095
0.000568574
0.000588402
0.000608341
0.000628135
0.000647413
0.000665566
0.000681958
0.000695686
0.000704694
0.000708142
0.000706081
0.000693764
0.000668871
0.000629223
0.00057333
0.000501905
0.000419064
0.000332497
0.000252062
0.000187624
0.000151111
0.000155385
0.000292822
2.94135e-05
1.41991e-05
1.03721e-05
9.01663e-06
8.66849e-06
8.89008e-06
9.50858e-06
1.04459e-05
1.16678e-05
1.31663e-05
1.49518e-05
1.70514e-05
1.95077e-05
2.23795e-05
2.57422e-05
2.96894e-05
3.43333e-05
3.9806e-05
4.62595e-05
5.38646e-05
6.28078e-05
7.32859e-05
8.54957e-05
9.96196e-05
0.000115805
0.000134139
0.000154616
0.000177106
0.000201324
0.000226813
0.000252941
0.000278934
0.000303934
0.000327092
0.000347677
0.000365189
0.000379444
0.000390612
0.000399195
0.000405956
0.000411881
0.00041764
0.00042414
0.000431967
0.000441479
0.000452803
0.000465897
0.000480682
0.000496856
0.000514167
0.000532363
0.000551223
0.000570549
0.00059016
0.000609865
0.000629458
0.000648613
0.000666793
0.000683446
0.00069778
0.000708448
0.000713426
0.000713978
0.000705865
0.000686073
0.00065218
0.000601732
0.000534048
0.000451929
0.000362592
0.000276711
0.000205962
0.000164816
0.00016743
0.000313613
3.20614e-05
1.54667e-05
1.12795e-05
9.78405e-06
9.3863e-06
9.6099e-06
1.02669e-05
1.12721e-05
1.25878e-05
1.42046e-05
1.61336e-05
1.84039e-05
2.10613e-05
2.41695e-05
2.78098e-05
3.20828e-05
3.71086e-05
4.3028e-05
5.00013e-05
5.8207e-05
6.78375e-05
7.90911e-05
9.21606e-05
0.000107215
0.000124377
0.000143694
0.000165103
0.000188399
0.000213213
0.000238992
0.000265023
0.000290468
0.000314449
0.000336149
0.000354935
0.000370457
0.000382714
0.000392066
0.000399179
0.000405048
0.000410353
0.000416085
0.000422949
0.000431414
0.000441687
0.000453784
0.000467702
0.00048315
0.00049983
0.00051749
0.000535889
0.000554826
0.000574134
0.000593665
0.000613261
0.000632743
0.000651811
0.000669963
0.000686684
0.000701237
0.00071269
0.000718955
0.00072083
0.000715904
0.000700329
0.000671763
0.00062702
0.000564039
0.000483998
0.000393102
0.00030242
0.000225385
0.000179314
0.000179987
0.000335038
3.48602e-05
1.68059e-05
1.22379e-05
1.05952e-05
1.01465e-05
1.03743e-05
1.10747e-05
1.21542e-05
1.35713e-05
1.53151e-05
1.73967e-05
1.98472e-05
2.27159e-05
2.60709e-05
2.99996e-05
3.46092e-05
4.00275e-05
4.64029e-05
5.39032e-05
6.27129e-05
7.30276e-05
8.50441e-05
9.89467e-05
0.000114886
0.000132954
0.00015315
0.00017535
0.000199275
0.000224465
0.000250288
0.000275958
0.0003006
0.000323346
0.000343447
0.000360393
0.000374
0.000384456
0.000392293
0.000398428
0.000403569
0.000408766
0.000414824
0.000422343
0.000431639
0.000442805
0.000455932
0.000470741
0.000486933
0.000504222
0.000522347
0.00054108
0.00056024
0.000579689
0.000599305
0.000618955
0.00063848
0.000657582
0.000675769
0.000692515
0.000707104
0.000718722
0.000725584
0.000728069
0.000725062
0.000712549
0.000688457
0.000649202
0.000591516
0.000514771
0.000423632
0.000328996
0.000245874
0.000194586
0.000193075
0.000357114
3.78196e-05
1.82212e-05
1.32499e-05
1.14519e-05
1.09507e-05
1.11849e-05
1.19331e-05
1.30934e-05
1.46195e-05
1.64983e-05
1.87412e-05
2.13808e-05
2.44696e-05
2.80804e-05
3.23062e-05
3.72606e-05
4.30785e-05
4.9915e-05
5.79441e-05
6.73543e-05
7.83416e-05
9.1098e-05
0.000105795
0.00012256
0.000141447
0.000162406
0.000185246
0.000209612
0.000234964
0.000260596
0.000285673
0.000309308
0.000330671
0.00034911
0.000364258
0.000376108
0.000385023
0.000391768
0.000397094
0.000402024
0.000407471
0.000414161
0.000422548
0.000432815
0.000445177
0.000459384
0.000475157
0.000492191
0.000510189
0.000528889
0.000548078
0.000567598
0.000587338
0.000607205
0.000627088
0.000646841
0.000666167
0.000684552
0.000701423
0.000716016
0.000727505
0.000734318
0.00073689
0.000734555
0.000723801
0.000702992
0.000668539
0.000616291
0.000543811
0.000453763
0.000356203
0.000267359
0.000210633
0.000206706
0.000379849
4.09488e-05
1.97167e-05
1.43183e-05
1.23561e-05
1.18006e-05
1.20431e-05
1.28439e-05
1.40913e-05
1.57336e-05
1.77552e-05
2.01672e-05
2.30037e-05
2.63202e-05
3.0194e-05
3.47233e-05
4.00279e-05
4.62488e-05
5.3547e-05
6.21009e-05
7.21009e-05
8.37407e-05
9.72041e-05
0.000112645
0.000130163
0.000149772
0.000171366
0.000194688
0.000219309
0.000244618
0.00026985
0.000294141
0.000316619
0.000336521
0.00035331
0.000366776
0.000377087
0.000384787
0.00039068
0.000395662
0.000400735
0.000406748
0.000414305
0.000423689
0.000435269
0.000448857
0.000464211
0.000481028
0.000498981
0.000517764
0.000537122
0.000556858
0.000576843
0.000596994
0.000617252
0.000637536
0.000657716
0.000677494
0.000696323
0.000713552
0.000728302
0.000739618
0.000745972
0.000748258
0.000745538
0.000735229
0.000716289
0.000685534
0.000638382
0.000570779
0.000483074
0.00038376
0.000289728
0.000227454
0.000220885
0.000403241
4.42571e-05
2.12967e-05
1.54457e-05
1.33101e-05
1.2698e-05
1.29507e-05
1.38088e-05
1.51494e-05
1.69149e-05
1.90866e-05
2.16747e-05
2.47146e-05
2.82649e-05
3.24068e-05
3.72435e-05
4.29005e-05
4.95239e-05
5.72795e-05
6.63483e-05
7.69203e-05
8.91844e-05
0.000103312
0.000119437
0.000137626
0.000157849
0.000179944
0.00020359
0.000228287
0.000253366
0.00027802
0.000301378
0.000322608
0.000341033
0.000356251
0.000368211
0.000377231
0.000384057
0.000389437
0.000394429
0.000399964
0.000406803
0.000415329
0.000426084
0.000438995
0.000453872
0.000470435
0.000488345
0.000507258
0.000526866
0.000546921
0.00056725
0.000587753
0.000608389
0.000629139
0.000649962
0.000670754
0.000691228
0.000710802
0.000728729
0.000743974
0.000755291
0.000761083
0.00076288
0.000759017
0.000747961
0.000729389
0.000700905
0.000658025
0.000595476
0.000511175
0.000411361
0.000312852
0.000245027
0.000235614
0.000427278
4.77547e-05
2.29658e-05
1.66352e-05
1.4316e-05
1.3645e-05
1.39097e-05
1.48295e-05
1.62694e-05
1.81647e-05
2.04929e-05
2.32632e-05
2.6512e-05
3.03002e-05
3.47131e-05
3.98585e-05
4.58666e-05
5.2888e-05
6.10916e-05
7.06594e-05
8.1779e-05
9.46311e-05
0.000109372
0.000126112
0.000144882
0.000165606
0.000188067
0.000211882
0.000236491
0.000261177
0.000285111
0.000307438
0.000327384
0.000344379
0.000358161
0.000368835
0.000376907
0.000383076
0.000388323
0.000393642
0.000399912
0.000407654
0.000417548
0.0004297
0.000443996
0.000460207
0.000478005
0.000497018
0.000516891
0.000537314
0.000558055
0.000578967
0.000599989
0.000621129
0.000642423
0.000663881
0.000685441
0.000706842
0.000727478
0.000746516
0.000762766
0.000774419
0.000779886
0.000781175
0.00077578
0.000763022
0.000743367
0.000715528
0.000675672
0.000617868
0.00053774
0.000438684
0.000336574
0.000263311
0.000250885
0.000451942
5.14521e-05
2.47288e-05
1.78899e-05
1.53762e-05
1.46436e-05
1.49221e-05
1.59082e-05
1.74532e-05
1.94843e-05
2.19748e-05
2.49322e-05
2.83934e-05
3.2422e-05
3.71065e-05
4.25588e-05
4.89132e-05
5.63238e-05
6.49611e-05
7.50064e-05
8.66423e-05
0.000100039
0.000115335
0.000132614
0.00015187
0.000172981
0.000195675
0.000219514
0.000243889
0.000268049
0.000291162
0.000312406
0.000331087
0.000346749
0.000359269
0.00036889
0.000376259
0.000382149
0.00038757
0.000393487
0.000400579
0.000409616
0.000420934
0.000434524
0.000450239
0.000467791
0.000486807
0.000506891
0.000527676
0.000548857
0.00057022
0.000591652
0.000613141
0.000634752
0.000656589
0.00067873
0.00070117
0.000723691
0.000745693
0.00076626
0.000784059
0.000796723
0.00080233
0.000803273
0.000796351
0.000781263
0.00075926
0.000730374
0.000691956
0.000638102
0.00056253
0.00046541
0.000360713
0.000282246
0.000266685
0.000477209
5.53606e-05
2.65907e-05
1.92129e-05
1.64933e-05
1.56961e-05
1.59902e-05
1.70469e-05
1.87025e-05
2.08751e-05
2.35326e-05
2.66807e-05
3.03564e-05
3.46254e-05
3.95793e-05
4.53337e-05
5.20261e-05
5.98127e-05
6.88646e-05
7.93603e-05
9.14755e-05
0.000105368
0.000121155
0.000138892
0.000158537
0.000179921
0.000202724
0.000226457
0.000250474
0.000274008
0.000296239
0.000316396
0.000333875
0.000348342
0.000359813
0.000368678
0.000375593
0.000381496
0.00038736
0.000393995
0.000402249
0.000412692
0.000425456
0.000440512
0.000457643
0.000476502
0.00049668
0.000517759
0.000539364
0.0005612
0.000583075
0.00060492
0.000626776
0.00064878
0.000671112
0.000693935
0.000717314
0.000741098
0.000764718
0.000787202
0.000807079
0.000821655
0.000828093
0.00082903
0.000820965
0.000803305
0.000777983
0.000746439
0.000707657
0.000656503
0.000585424
0.000491239
0.000385068
0.00030176
0.000282996
0.000503046
5.9492e-05
2.85568e-05
2.06076e-05
1.76698e-05
1.6805e-05
1.71162e-05
1.82478e-05
2.00192e-05
2.2338e-05
2.51663e-05
2.85071e-05
3.23975e-05
3.69048e-05
4.21234e-05
4.81719e-05
5.51901e-05
6.33356e-05
7.27783e-05
8.36924e-05
9.62447e-05
0.000110578
0.000126789
0.000144902
0.000164839
0.000186388
0.000209184
0.0002327
0.000256264
0.000279104
0.00030043
0.000319537
0.000335917
0.000349358
0.00036
0.000368335
0.000375114
0.000381294
0.000387744
0.000395383
0.000404978
0.000416835
0.000431075
0.000447588
0.00046609
0.000486186
0.000507431
0.00052939
0.000551686
0.000574035
0.000596279
0.000618394
0.000640487
0.000662769
0.000685511
0.000708968
0.000733292
0.00075842
0.000783846
0.000808572
0.000831
0.000848438
0.00085662
0.000858067
0.00084957
0.000829513
0.00080028
0.000764671
0.000723639
0.00067356
0.00060643
0.000515911
0.000409418
0.000321763
0.000299789
0.000529414
6.38584e-05
3.06325e-05
2.20775e-05
1.89085e-05
1.79728e-05
1.83027e-05
1.95132e-05
2.14051e-05
2.38742e-05
2.68758e-05
3.04098e-05
3.45129e-05
3.9254e-05
4.47297e-05
5.1061e-05
5.83895e-05
6.68727e-05
7.66783e-05
8.79744e-05
0.000100918
0.000115634
0.000132199
0.000150606
0.000170742
0.000192356
0.000215046
0.000238254
0.000261295
0.000283407
0.000303844
0.000321972
0.000337387
0.00034999
0.000360037
0.000368101
0.000374996
0.000381608
0.000388896
0.000397765
0.000408706
0.000422013
0.00043772
0.000455643
0.000475438
0.000496665
0.00051885
0.000541543
0.000564369
0.000587067
0.000609514
0.00063174
0.00065392
0.000676348
0.000699387
0.000723393
0.00074862
0.000775108
0.000802448
0.000829662
0.00085507
0.000876107
0.000887188
0.000889824
0.00088185
0.000859979
0.00082668
0.000785916
0.0007408
0.000689894
0.000625697
0.000539223
0.000433536
0.000342154
0.000317031
0.000556268
6.84729e-05
3.28236e-05
2.36263e-05
2.02122e-05
1.92021e-05
1.95522e-05
2.08455e-05
2.28621e-05
2.54846e-05
2.86606e-05
3.23864e-05
3.66982e-05
4.1666e-05
4.73884e-05
5.39883e-05
6.16081e-05
7.04043e-05
8.05411e-05
9.21795e-05
0.000105464
0.000120505
0.000137353
0.000155974
0.000176222
0.000197813
0.000220313
0.000243145
0.000265622
0.000287006
0.0003066
0.000323852
0.000338456
0.000350422
0.000360104
0.000368132
0.000375301
0.000382594
0.000390969
0.000401083
0.000413414
0.000428168
0.000445298
0.000464552
0.00048553
0.000507753
0.000530724
0.000553984
0.000577167
0.000600037
0.000622514
0.000644687
0.000666802
0.000689236
0.000712446
0.000736893
0.000762939
0.000790741
0.000820019
0.000849868
0.000878624
0.000903673
0.000918966
0.000923627
0.000917257
0.000894531
0.000857469
0.000810862
0.00076001
0.00070622
0.000643509
0.000561049
0.000457196
0.000362818
0.000334678
0.000583553
7.33488e-05
3.51362e-05
2.52578e-05
2.15841e-05
2.04958e-05
2.08674e-05
2.22472e-05
2.4392e-05
2.71699e-05
3.05199e-05
3.44344e-05
3.89486e-05
4.41335e-05
5.00895e-05
5.69407e-05
6.48297e-05
7.39112e-05
8.43446e-05
9.62829e-05
0.000109858
0.000125163
0.000142226
0.000160987
0.00018127
0.000202761
0.000225007
0.000247418
0.000269317
0.000289999
0.000308826
0.000325327
0.00033929
0.000350817
0.000360329
0.000368499
0.000376206
0.000384424
0.000393918
0.000405333
0.000419061
0.000435225
0.000453702
0.000474178
0.000496204
0.000519268
0.000542855
0.000566504
0.000589865
0.000612733
0.000635076
0.000657043
0.000678951
0.000701259
0.000724514
0.00074928
0.000776032
0.00080505
0.000836206
0.000868715
0.000900981
0.000930371
0.000951064
0.000958772
0.000955067
0.000932759
0.000892689
0.000840014
0.000782062
0.000723307
0.00066027
0.000581346
0.000480182
0.000383628
0.00035268
0.000611204
7.85003e-05
3.75764e-05
2.69758e-05
2.30272e-05
2.18568e-05
2.22512e-05
2.37207e-05
2.59966e-05
2.89308e-05
3.24528e-05
3.65507e-05
4.12588e-05
4.66489e-05
5.28227e-05
5.99053e-05
6.80387e-05
7.7375e-05
8.80684e-05
0.000100263
0.000114078
0.000129588
0.000146802
0.000165634
0.000185884
0.000207216
0.000229161
0.000251131
0.000272465
0.000292498
0.000310655
0.000326547
0.000340046
0.000351333
0.000360877
0.000369416
0.00037787
0.00038707
0.000397753
0.000410489
0.000425589
0.000443095
0.000462817
0.000484383
0.000507305
0.000531042
0.000555067
0.000578927
0.000602295
0.000625001
0.000647064
0.000668693
0.000690274
0.000712342
0.000735529
0.000760492
0.000787821
0.000817919
0.000850822
0.000885905
0.00092169
0.000955548
0.000982511
0.000994625
0.000994426
0.000974055
0.000932143
0.000873664
0.000807632