/*--------------------------------*- C++ -*----------------------------------*\
  =========                 |
  \\      /  F ield         | OpenFOAM: The Open Source CFD Toolbox
   \\    /   O peration     | Website:  https://openfoam.org
    \\  /    A nd           | Version:  12
     \\/     M anipulation  |
\*---------------------------------------------------------------------------*/
FoamFile
{
    format      ascii;
    class       volScalarField;
    location    "7";
    object      k;
}
// * * * * * * * * * * * * * * * * * * * * * * * * * * * * * * * * * * * * * //

dimensions      [0 2 -2 0 0 0 0];

internalField   nonuniform List<scalar> 
5625
(
1.51546e-10
1.02503e-09
2.28138e-09
3.77456e-09
5.43503e-09
7.21935e-09
9.09827e-09
1.10531e-08
1.30743e-08
1.51613e-08
1.73215e-08
1.95704e-08
2.19311e-08
2.44335e-08
2.7114e-08
3.00148e-08
3.31836e-08
3.66724e-08
4.05375e-08
4.48388e-08
4.96391e-08
5.50035e-08
6.09989e-08
6.76931e-08
7.51543e-08
8.34504e-08
9.26478e-08
1.02811e-07
1.14002e-07
1.26278e-07
1.39693e-07
1.54297e-07
1.70131e-07
1.87234e-07
2.05636e-07
2.25361e-07
2.46426e-07
2.68839e-07
2.926e-07
3.17696e-07
3.441e-07
3.71767e-07
4.00631e-07
4.30589e-07
4.61503e-07
4.93178e-07
5.25354e-07
5.57692e-07
5.89753e-07
6.20988e-07
6.50717e-07
6.78124e-07
7.02231e-07
7.21841e-07
7.35114e-07
7.41069e-07
7.41299e-07
7.31772e-07
7.11968e-07
6.81804e-07
6.41589e-07
5.9223e-07
5.35313e-07
4.73034e-07
4.08021e-07
3.43051e-07
2.80724e-07
2.23176e-07
1.7187e-07
1.27528e-07
9.01944e-08
5.94187e-08
3.45513e-08
1.51867e-08
2.23688e-09
1.1454e-09
9.12855e-09
2.04706e-08
3.39247e-08
4.88777e-08
6.49417e-08
8.18546e-08
9.94485e-08
1.17638e-07
1.36417e-07
1.55854e-07
1.76088e-07
1.97326e-07
2.19837e-07
2.43951e-07
2.70046e-07
2.9855e-07
3.29933e-07
3.64701e-07
4.03394e-07
4.46577e-07
4.94836e-07
5.48772e-07
6.08997e-07
6.76124e-07
7.50764e-07
8.33515e-07
9.24958e-07
1.02565e-06
1.1361e-06
1.25681e-06
1.3882e-06
1.53067e-06
1.68456e-06
1.85013e-06
2.0276e-06
2.21713e-06
2.41879e-06
2.63256e-06
2.85835e-06
3.0959e-06
3.34483e-06
3.60451e-06
3.87405e-06
4.1522e-06
4.43721e-06
4.72676e-06
5.01779e-06
5.30639e-06
5.58761e-06
5.85536e-06
6.10231e-06
6.31968e-06
6.4968e-06
6.61673e-06
6.6688e-06
6.66998e-06
6.58269e-06
6.40299e-06
6.13029e-06
5.76746e-06
5.32273e-06
4.81037e-06
4.25014e-06
3.6656e-06
3.08165e-06
2.52159e-06
2.00454e-06
1.5436e-06
1.14522e-06
8.09781e-07
5.33205e-07
3.09534e-07
1.35054e-07
1.68906e-08
2.43348e-09
2.0853e-08
4.70666e-08
7.81622e-08
1.12713e-07
1.49823e-07
1.88884e-07
2.29509e-07
2.71502e-07
3.14846e-07
3.59701e-07
4.06389e-07
4.55389e-07
5.07327e-07
5.6296e-07
6.23169e-07
6.88943e-07
7.6137e-07
8.41625e-07
9.30955e-07
1.03067e-06
1.14214e-06
1.26675e-06
1.40592e-06
1.56109e-06
1.73368e-06
1.92509e-06
2.13668e-06
2.36975e-06
2.62554e-06
2.90517e-06
3.20971e-06
3.54006e-06
3.89704e-06
4.28131e-06
4.69337e-06
5.1336e-06
5.60214e-06
6.09896e-06
6.62375e-06
7.17588e-06
7.7543e-06
8.35748e-06
8.98315e-06
9.6282e-06
1.02884e-05
1.09582e-05
1.16302e-05
1.22953e-05
1.29418e-05
1.35557e-05
1.41201e-05
1.46149e-05
1.50168e-05
1.52843e-05
1.5396e-05
1.53956e-05
1.51889e-05
1.47696e-05
1.41368e-05
1.32968e-05
1.22683e-05
1.10844e-05
9.79038e-06
8.44085e-06
7.09328e-06
5.80155e-06
4.60974e-06
3.54797e-06
2.6309e-06
1.85913e-06
1.22302e-06
7.08652e-07
3.07279e-07
3.57425e-08
3.98195e-09
3.49704e-08
7.93103e-08
1.31973e-07
1.90496e-07
2.53343e-07
3.1948e-07
3.88246e-07
4.59308e-07
5.3264e-07
6.0851e-07
6.87469e-07
7.70332e-07
8.5816e-07
9.52244e-07
1.05408e-06
1.16535e-06
1.28791e-06
1.42376e-06
1.57502e-06
1.74393e-06
1.93281e-06
2.14406e-06
2.38012e-06
2.64342e-06
2.93644e-06
3.26158e-06
3.62119e-06
4.01754e-06
4.45277e-06
4.92887e-06
5.44765e-06
6.01072e-06
6.61948e-06
7.27503e-06
7.97821e-06
8.72953e-06
9.52911e-06
1.03766e-05
1.12713e-05
1.22117e-05
1.31954e-05
1.42195e-05
1.52795e-05
1.63697e-05
1.74823e-05
1.86075e-05
1.9733e-05
2.08431e-05
2.19189e-05
2.29371e-05
2.38702e-05
2.4686e-05
2.5348e-05
2.57828e-05
2.59597e-05
2.59567e-05
2.56063e-05
2.49006e-05
2.38369e-05
2.24242e-05
2.06925e-05
1.8696e-05
1.65112e-05
1.42308e-05
1.19528e-05
9.76959e-06
7.75653e-06
5.96487e-06
4.41919e-06
3.1199e-06
2.04999e-06
1.18547e-06
5.11659e-07
5.80676e-08
5.74438e-09
5.09516e-08
1.15953e-07
1.93284e-07
2.79259e-07
3.71582e-07
4.68718e-07
5.69687e-07
6.73996e-07
7.81606e-07
8.92916e-07
1.00874e-06
1.13028e-06
1.25911e-06
1.39713e-06
1.54656e-06
1.7099e-06
1.88987e-06
2.08946e-06
2.3118e-06
2.56022e-06
2.83819e-06
3.14926e-06
3.49707e-06
3.88531e-06
4.31765e-06
4.79772e-06
5.32908e-06
5.91514e-06
6.55913e-06
7.26404e-06
8.03259e-06
8.86713e-06
9.76962e-06
1.07415e-05
1.17838e-05
1.28967e-05
1.408e-05
1.53323e-05
1.66515e-05
1.80345e-05
1.94768e-05
2.09725e-05
2.25143e-05
2.40927e-05
2.56961e-05
2.73099e-05
2.89166e-05
3.04947e-05
3.20184e-05
3.34564e-05
3.47718e-05
3.5921e-05
3.68553e-05
3.74691e-05
3.77189e-05
3.77212e-05
3.72278e-05
3.62235e-05
3.4702e-05
3.26715e-05
3.01707e-05
2.72755e-05
2.40962e-05
2.07685e-05
1.74386e-05
1.42444e-05
1.12994e-05
8.6803e-06
6.42373e-06
4.52975e-06
2.97239e-06
1.71566e-06
7.37982e-07
8.29152e-08
7.68954e-09
6.85251e-08
1.56329e-07
2.60966e-07
3.77367e-07
5.0237e-07
6.33867e-07
7.70514e-07
9.11635e-07
1.05718e-06
1.20769e-06
1.36428e-06
1.5286e-06
1.70279e-06
1.88946e-06
2.09164e-06
2.31273e-06
2.55648e-06
2.82695e-06
3.12848e-06
3.46562e-06
3.84314e-06
4.26596e-06
4.7391e-06
5.26766e-06
5.85674e-06
6.5114e-06
7.23657e-06
8.03697e-06
8.91705e-06
9.88087e-06
1.0932e-05
1.20735e-05
1.33076e-05
1.46357e-05
1.60582e-05
1.75745e-05
1.91827e-05
2.08794e-05
2.26599e-05
2.45179e-05
2.64454e-05
2.84328e-05
3.04685e-05
3.25393e-05
3.46295e-05
3.6721e-05
3.87923e-05
4.08182e-05
4.27684e-05
4.46063e-05
4.6288e-05
4.77609e-05
4.89647e-05
4.97705e-05
5.01099e-05
5.0133e-05
4.95223e-05
4.82393e-05
4.62732e-05
4.3626e-05
4.03415e-05
3.65145e-05
3.22892e-05
2.78469e-05
2.33863e-05
1.90978e-05
1.51393e-05
1.16188e-05
8.58815e-06
6.04818e-06
3.96318e-06
2.28355e-06
9.79788e-07
1.09552e-07
9.79905e-09
8.75431e-08
2.00067e-07
3.34369e-07
4.83864e-07
6.44427e-07
8.13303e-07
9.88744e-07
1.16987e-06
1.35662e-06
1.54969e-06
1.75054e-06
1.96131e-06
2.18479e-06
2.42437e-06
2.68397e-06
2.96803e-06
3.28144e-06
3.62948e-06
4.01781e-06
4.45238e-06
4.93943e-06
5.48542e-06
6.09694e-06
6.78071e-06
7.54343e-06
8.39174e-06
9.33208e-06
1.03706e-05
1.15129e-05
1.27641e-05
1.41285e-05
1.56091e-05
1.7208e-05
1.89257e-05
2.07611e-05
2.27111e-05
2.47708e-05
2.69331e-05
2.91891e-05
3.15276e-05
3.39362e-05
3.64005e-05
3.89051e-05
4.14333e-05
4.39671e-05
4.6487e-05
4.89705e-05
5.13919e-05
5.37196e-05
5.59151e-05
5.79301e-05
5.97047e-05
6.11674e-05
6.21785e-05
6.26268e-05
6.26886e-05
6.2e-05
6.04778e-05
5.8108e-05
5.48826e-05
5.08455e-05
4.6106e-05
4.0838e-05
3.52669e-05
2.9645e-05
2.42186e-05
1.91961e-05
1.4723e-05
1.08716e-05
7.64663e-06
5.00348e-06
2.87831e-06
1.23258e-06
1.37452e-07
1.2063e-08
1.07928e-07
2.46968e-07
4.13132e-07
5.98206e-07
7.97007e-07
1.00607e-06
1.2232e-06
1.44729e-06
1.67827e-06
1.91702e-06
2.16538e-06
2.42602e-06
2.70246e-06
2.99894e-06
3.32042e-06
3.67245e-06
4.06117e-06
4.49325e-06
4.9758e-06
5.51635e-06
6.12277e-06
6.80323e-06
7.56609e-06
8.41981e-06
9.37287e-06
1.04336e-05
1.16099e-05
1.29095e-05
1.43389e-05
1.59038e-05
1.76087e-05
1.94561e-05
2.14468e-05
2.35789e-05
2.58483e-05
2.82477e-05
3.07674e-05
3.33946e-05
3.61146e-05
3.89106e-05
4.17647e-05
4.46584e-05
4.75736e-05
5.04923e-05
5.33972e-05
5.62703e-05
5.90923e-05
6.184e-05
6.4484e-05
6.69857e-05
6.92941e-05
7.13428e-05
7.30485e-05
7.427e-05
7.48395e-05
7.4953e-05
7.42248e-05
7.25092e-05
6.9793e-05
6.60552e-05
6.13353e-05
5.57503e-05
4.94965e-05
4.28367e-05
3.60726e-05
2.95067e-05
2.34017e-05
1.79474e-05
1.32438e-05
9.30482e-06
6.08015e-06
3.49235e-06
1.49315e-06
1.66244e-07
1.44771e-08
1.29648e-07
2.96942e-07
4.97085e-07
7.20121e-07
9.59729e-07
1.21167e-06
1.47326e-06
1.74314e-06
2.02123e-06
2.30863e-06
2.60757e-06
2.92137e-06
3.2543e-06
3.61159e-06
3.99926e-06
4.42416e-06
4.8938e-06
5.41635e-06
6.00053e-06
6.65562e-06
7.39127e-06
8.21753e-06
9.14465e-06
1.0183e-05
1.13429e-05
1.26343e-05
1.40668e-05
1.5649e-05
1.73882e-05
1.92902e-05
2.13585e-05
2.35941e-05
2.59949e-05
2.85552e-05
3.12655e-05
3.41128e-05
3.70804e-05
4.01485e-05
4.32954e-05
4.64984e-05
4.97351e-05
5.29846e-05
5.62286e-05
5.94515e-05
6.26399e-05
6.57815e-05
6.88629e-05
7.18661e-05
7.4765e-05
7.75215e-05
8.00813e-05
8.23708e-05
8.42956e-05
8.5716e-05
8.64027e-05
8.65713e-05
8.58313e-05
8.39668e-05
8.09698e-05
7.68052e-05
7.15032e-05
6.51804e-05
5.80447e-05
5.03849e-05
4.25436e-05
3.48757e-05
2.77001e-05
2.12571e-05
1.56829e-05
1.1009e-05
7.18447e-06
4.12062e-06
1.75927e-06
1.95685e-07
1.70407e-08
1.52701e-07
3.49981e-07
5.86193e-07
8.49536e-07
1.13247e-06
1.42992e-06
1.73865e-06
2.05708e-06
2.38509e-06
2.72403e-06
3.07659e-06
3.44675e-06
3.83966e-06
4.26157e-06
4.71977e-06
5.22243e-06
5.7786e-06
6.39808e-06
7.09138e-06
7.86961e-06
8.74441e-06
9.72781e-06
1.08321e-05
1.20696e-05
1.34523e-05
1.49921e-05
1.66995e-05
1.85838e-05
2.06525e-05
2.29104e-05
2.5359e-05
2.79961e-05
3.08149e-05
3.38038e-05
3.69463e-05
4.02214e-05
4.36039e-05
4.70664e-05
5.05803e-05
5.41181e-05
5.76551e-05
6.11712e-05
6.46516e-05
6.80868e-05
7.14714e-05
7.48012e-05
7.80703e-05
8.12662e-05
8.43652e-05
8.73279e-05
9.00951e-05
9.25852e-05
9.46928e-05
9.62799e-05
9.70639e-05
9.72787e-05
9.65418e-05
9.45696e-05
9.13617e-05
8.68689e-05
8.11076e-05
7.41846e-05
6.63064e-05
5.77736e-05
4.89575e-05
4.02576e-05
3.20486e-05
2.46271e-05
1.8175e-05
1.27509e-05
8.3114e-06
4.76012e-06
2.02951e-06
2.25671e-07
1.97562e-08
1.77113e-07
4.0613e-07
6.80522e-07
9.86526e-07
1.3153e-06
1.66088e-06
2.01945e-06
2.38915e-06
2.76987e-06
3.16321e-06
3.57238e-06
4.00208e-06
4.45843e-06
4.94883e-06
5.48186e-06
6.06722e-06
6.71557e-06
7.43851e-06
8.24845e-06
9.1585e-06
1.01824e-05
1.13342e-05
1.26282e-05
1.40788e-05
1.56998e-05
1.7504e-05
1.9503e-05
2.17062e-05
2.412e-05
2.67469e-05
2.95852e-05
3.26273e-05
3.586e-05
3.92638e-05
4.28131e-05
4.64776e-05
5.02234e-05
5.40153e-05
5.78194e-05
6.1606e-05
6.53519e-05
6.90416e-05
7.26681e-05
7.62317e-05
7.97369e-05
8.31889e-05
8.65884e-05
8.99263e-05
9.31785e-05
9.63014e-05
9.9229e-05
0.000101871
0.000104114
0.000105818
0.000106667
0.000106912
0.00010618
0.000104139
0.000100791
9.60737e-05
8.99866e-05
8.26173e-05
7.41577e-05
6.49042e-05
5.52418e-05
4.56044e-05
3.64188e-05
2.80424e-05
2.07128e-05
1.45273e-05
9.45902e-06
5.40956e-06
2.30325e-06
2.5609e-07
2.26281e-08
2.02924e-07
4.65484e-07
7.80216e-07
1.13128e-06
1.50846e-06
1.9048e-06
2.31592e-06
2.73964e-06
3.17586e-06
3.62647e-06
4.09525e-06
4.5877e-06
5.11097e-06
5.6737e-06
6.28593e-06
6.95894e-06
7.70518e-06
8.53814e-06
9.47225e-06
1.05227e-05
1.17054e-05
1.30366e-05
1.45326e-05
1.62095e-05
1.80826e-05
2.01656e-05
2.24703e-05
2.50051e-05
2.77742e-05
3.07766e-05
3.4005e-05
3.74451e-05
4.1075e-05
4.48654e-05
4.87807e-05
5.27805e-05
5.68226e-05
6.0866e-05
6.48744e-05
6.88199e-05
7.26848e-05
7.64629e-05
8.01583e-05
8.37832e-05
8.73527e-05
9.08796e-05
9.43686e-05
9.781e-05
0.000101176
0.000104415
0.000107453
0.000110194
0.000112516
0.000114279
0.000115158
0.000115415
0.000114677
0.000112604
0.000109183
0.000104342
9.806e-05
9.03999e-05
8.1526e-05
7.17154e-05
6.13501e-05
5.08854e-05
4.07941e-05
3.14965e-05
2.32952e-05
1.63387e-05
1.06279e-05
6.06907e-06
2.58045e-06
2.86923e-07
2.56627e-08
2.30192e-07
5.28172e-07
8.85481e-07
1.28408e-06
1.71228e-06
2.16212e-06
2.62854e-06
3.10906e-06
3.6036e-06
4.11438e-06
4.64578e-06
5.20419e-06
5.79787e-06
6.43683e-06
7.13262e-06
7.89826e-06
8.74808e-06
9.69758e-06
1.07633e-05
1.19627e-05
1.33136e-05
1.48346e-05
1.65439e-05
1.8459e-05
2.05964e-05
2.29701e-05
2.55909e-05
2.84653e-05
3.15939e-05
3.49704e-05
3.85802e-05
4.24001e-05
4.6398e-05
5.05335e-05
5.47604e-05
5.90293e-05
6.32912e-05
6.75026e-05
7.1629e-05
7.56486e-05
7.95539e-05
8.33516e-05
8.70591e-05
9.07004e-05
9.42994e-05
9.78735e-05
0.000101426
0.000104944
0.00010839
0.000111704
0.000114806
0.000117591
0.000119939
0.000121704
0.000122578
0.00012283
0.000122075
0.000119994
0.000116559
0.00011168
0.000105321
9.7512e-05
8.83828e-05
7.81767e-05
6.72565e-05
5.60835e-05
4.51666e-05
3.49886e-05
2.59252e-05
1.81888e-05
1.18208e-05
6.73987e-06
2.86149e-06
3.18202e-07
2.88677e-08
2.58988e-07
5.94353e-07
9.96578e-07
1.4453e-06
1.92724e-06
2.43336e-06
2.95791e-06
3.49808e-06
4.05382e-06
4.62769e-06
5.22475e-06
5.85235e-06
6.51995e-06
7.239e-06
8.02271e-06
8.88593e-06
9.84495e-06
1.09174e-05
1.2122e-05
1.34783e-05
1.50065e-05
1.67269e-05
1.86596e-05
2.08233e-05
2.32348e-05
2.59077e-05
2.8851e-05
3.20677e-05
3.55532e-05
3.92941e-05
4.32669e-05
4.74376e-05
5.17628e-05
5.61909e-05
6.06655e-05
6.513e-05
6.95321e-05
7.38298e-05
7.79952e-05
8.20175e-05
8.59031e-05
8.96735e-05
9.33598e-05
9.6996e-05
0.000100611
0.000104222
0.000107827
0.000111403
0.000114903
0.000118259
0.000121383
0.000124168
0.000126495
0.000128215
0.000129057
0.00012929
0.000128505
0.000126427
0.00012302
0.00011817
0.000111823
0.000103981
9.47343e-05
8.42809e-05
7.29491e-05
6.11891e-05
4.95331e-05
3.85213e-05
2.86083e-05
2.00833e-05
1.30415e-05
7.42396e-06
3.14704e-06
3.49999e-07
3.22522e-08
2.89394e-07
6.64211e-07
1.11381e-06
1.61534e-06
2.15386e-06
2.71917e-06
3.30477e-06
3.90751e-06
4.52737e-06
5.16731e-06
5.83309e-06
6.53309e-06
7.2781e-06
8.08107e-06
8.957e-06
9.92262e-06
1.09963e-05
1.21978e-05
1.35481e-05
1.5069e-05
1.67826e-05
1.87111e-05
2.08758e-05
2.32962e-05
2.59889e-05
2.89659e-05
3.22332e-05
3.57889e-05
3.96216e-05
4.3709e-05
4.8017e-05
5.25001e-05
5.71028e-05
6.17628e-05
6.64158e-05
7.10008e-05
7.54668e-05
7.97779e-05
8.39176e-05
8.78902e-05
9.17184e-05
9.5439e-05
9.90947e-05
0.000102726
0.000106362
0.000110014
0.000113671
0.000117298
0.000120838
0.000124213
0.00012733
0.000130083
0.000132359
0.000134002
0.000134791
0.000134995
0.000134165
0.000132091
0.000128729
0.000123944
0.000117666
0.000109873
0.000100614
9.00373e-05
7.84243e-05
6.61961e-05
5.38909e-05
4.20974e-05
3.13508e-05
2.20287e-05
1.42948e-05
8.12382e-06
3.43799e-06
3.82405e-07
3.58261e-08
3.21501e-07
7.37954e-07
1.23751e-06
1.79469e-06
2.39276e-06
3.02028e-06
3.66996e-06
4.33827e-06
5.02523e-06
5.73422e-06
6.47177e-06
7.24738e-06
8.07321e-06
8.96387e-06
9.93616e-06
1.10089e-05
1.22024e-05
1.35388e-05
1.50412e-05
1.67334e-05
1.86396e-05
2.07833e-05
2.31868e-05
2.58697e-05
2.88473e-05
3.21292e-05
3.57169e-05
3.96022e-05
4.37652e-05
4.81733e-05
5.27807e-05
5.75297e-05
6.23535e-05
6.71808e-05
7.19422e-05
7.65768e-05
8.10392e-05
8.53051e-05
8.93734e-05
9.32661e-05
9.70231e-05
0.000100695
0.000104332
0.000107977
0.000111654
0.000115365
0.000119086
0.000122769
0.000126345
0.00012973
0.000132829
0.000135537
0.000137748
0.000139296
0.000140023
0.00014019
0.0001393
0.000137217
0.000133888
0.000129176
0.000122985
0.00011528
0.000106074
9.54679e-05
8.36838e-05
7.1098e-05
5.82352e-05
4.57174e-05
3.41576e-05
2.40313e-05
1.55858e-05
8.84217e-06
3.7353e-06
4.15525e-07
3.96006e-08
3.55409e-07
8.15809e-07
1.36806e-06
1.98387e-06
2.64462e-06
3.3375e-06
4.05439e-06
4.79135e-06
5.54843e-06
6.32946e-06
7.14182e-06
7.99617e-06
8.90615e-06
9.8881e-06
1.09607e-05
1.21449e-05
1.34632e-05
1.49398e-05
1.65999e-05
1.84694e-05
2.0574e-05
2.29385e-05
2.55854e-05
2.85335e-05
3.17963e-05
3.53794e-05
3.92786e-05
4.3478e-05
4.79477e-05
5.26437e-05
5.75079e-05
6.2471e-05
6.74563e-05
7.23863e-05
7.71903e-05
8.18123e-05
8.62176e-05
9.03976e-05
9.43701e-05
9.81755e-05
0.00010187
0.000105514
0.000109163
0.000112856
0.000116608
0.000120406
0.000124214
0.000127969
0.000131594
0.000134998
0.000138084
0.000140753
0.000142901
0.000144353
0.000145012
0.000145138
0.000144169
0.000142055
0.000138727
0.000134058
0.000127938
0.000120317
0.000111189
0.000100606
8.87339e-05
7.58876e-05
6.25572e-05
4.93779e-05
3.70314e-05
2.60964e-05
1.69192e-05
9.58171e-06
4.03996e-06
4.49465e-07
4.35875e-08
3.91226e-07
8.98018e-07
1.50586e-06
2.18346e-06
2.91014e-06
3.67169e-06
4.45903e-06
5.26779e-06
6.09804e-06
6.9541e-06
7.84423e-06
8.78036e-06
9.77767e-06
1.08543e-05
1.20309e-05
1.33306e-05
1.47779e-05
1.63993e-05
1.8222e-05
2.02736e-05
2.25811e-05
2.51699e-05
2.80622e-05
3.12755e-05
3.48198e-05
3.8696e-05
4.28927e-05
4.73848e-05
5.21316e-05
5.7077e-05
6.21511e-05
6.72739e-05
7.23612e-05
7.73331e-05
8.21222e-05
8.66822e-05
9.09937e-05
9.50672e-05
9.89408e-05
0.000102673
0.000106333
0.000109989
0.000113694
0.000117481
0.00012135
0.000125275
0.000129203
0.00013306
0.00013676
0.000140207
0.000143304
0.000145953
0.000148058
0.000149424
0.000150018
0.000150098
0.000149031
0.000146854
0.00014348
0.000138798
0.000132698
0.000125117
0.000116044
0.000105499
9.35875e-05
8.05581e-05
6.68448e-05
5.30711e-05
3.99711e-05
2.82274e-05
1.82989e-05
1.03449e-05
4.35285e-06
4.84323e-07
4.77997e-08
4.29066e-07
9.84844e-07
1.65133e-06
2.39404e-06
3.19011e-06
4.02376e-06
4.8849e-06
5.76867e-06
6.67516e-06
7.60919e-06
8.57996e-06
9.60073e-06
1.06883e-05
1.18627e-05
1.31467e-05
1.45654e-05
1.61456e-05
1.79157e-05
1.99047e-05
2.21418e-05
2.46548e-05
2.74694e-05
3.06067e-05
3.40815e-05
3.79e-05
4.20565e-05
4.65317e-05
5.12902e-05
5.62798e-05
6.14324e-05
6.6667e-05
7.18951e-05
7.70287e-05
8.19893e-05
8.67175e-05
9.11815e-05
9.53808e-05
9.93472e-05
0.000103139
0.00010683
0.000110501
0.000114221
0.000118038
0.000121971
0.000126008
0.000130107
0.000134199
0.000138199
0.000142013
0.00014554
0.000148684
0.000151348
0.000153438
0.000154738
0.000155274
0.000155307
0.000154127
0.00015185
0.000148376
0.000143604
0.000137444
0.000129827
0.000120746
0.000110207
9.82674e-05
8.51061e-05
7.10836e-05
5.67845e-05
4.29718e-05
3.04253e-05
1.97279e-05
1.11339e-05
4.67477e-06
5.20185e-07
5.22506e-08
4.69051e-07
1.07656e-06
1.80493e-06
2.61626e-06
3.48533e-06
4.39466e-06
5.33306e-06
6.2951e-06
7.28087e-06
8.29572e-06
9.34986e-06
1.04579e-05
1.16385e-05
1.29135e-05
1.43077e-05
1.58483e-05
1.75643e-05
1.9486e-05
2.16441e-05
2.40686e-05
2.67881e-05
2.98276e-05
3.32064e-05
3.69361e-05
4.10174e-05
4.54375e-05
5.01679e-05
5.51623e-05
6.03569e-05
6.56723e-05
7.10183e-05
7.63007e-05
8.14312e-05
8.63374e-05
9.09728e-05
9.53234e-05
9.94104e-05
0.000103287
0.000107031
0.00011073
0.000114468
0.000118313
0.000122303
0.000126444
0.000130706
0.000135031
0.000139338
0.000143529
0.000147504
0.000151159
0.000154394
0.000157113
0.000159222
0.000160487
0.000160984
0.000160959
0.00015966
0.000157248
0.000153618
0.000148678
0.000142358
0.000134602
0.000125415
0.000114808
0.00010281
8.95349e-05
7.52599e-05
6.05025e-05
4.60248e-05
3.26886e-05
2.12081e-05
1.19505e-05
5.00634e-06
5.5712e-07
5.69543e-08
5.11307e-07
1.17346e-06
1.96713e-06
2.85078e-06
3.79664e-06
4.78538e-06
5.80458e-06
6.84817e-06
7.91623e-06
9.01463e-06
1.01547e-05
1.13524e-05
1.26283e-05
1.40061e-05
1.55129e-05
1.71778e-05
1.90318e-05
2.1107e-05
2.34353e-05
2.60478e-05
2.89726e-05
3.22337e-05
3.58478e-05
3.98223e-05
4.41516e-05
4.88149e-05
5.37736e-05
5.89705e-05
6.43306e-05
6.97646e-05
7.51753e-05
8.04665e-05
8.55535e-05
9.03746e-05
9.48998e-05
9.91363e-05
0.000103128
0.000106949
0.000110693
0.000114458
0.000118328
0.000122365
0.000126594
0.000131006
0.000135553
0.000140162
0.000144737
0.000149175
0.000153363
0.000157196
0.000160569
0.000163385
0.000165548
0.000166811
0.000167295
0.000167206
0.000165789
0.000163217
0.000159382
0.000154199
0.000147615
0.0001396
0.000130181
0.000119395
0.000107266
9.38593e-05
7.93641e-05
6.42083e-05
4.91179e-05
3.50132e-05
2.27397e-05
1.27957e-05
5.348e-06
5.95181e-07
6.19261e-08
5.55967e-07
1.27584e-06
2.13844e-06
3.09831e-06
4.12492e-06
5.19693e-06
6.30055e-06
7.42898e-06
8.58223e-06
9.76675e-06
1.09949e-05
1.22844e-05
1.36574e-05
1.514e-05
1.67609e-05
1.85517e-05
2.0545e-05
2.27744e-05
2.52729e-05
2.80718e-05
3.11988e-05
3.46758e-05
3.85164e-05
4.27226e-05
4.72819e-05
5.21648e-05
5.73225e-05
6.26868e-05
6.81728e-05
7.36832e-05
7.91168e-05
8.43787e-05
8.93925e-05
9.41109e-05
9.85236e-05
0.000102661
0.000106588
0.0001104
0.000114203
0.000118099
0.000122171
0.000126468
0.000131004
0.000135749
0.000140641
0.000145591
0.000150492
0.000155228
0.000159682
0.00016374
0.000167296
0.000170249
0.000172504
0.000173798
0.000174287
0.000174148
0.000172623
0.000169879
0.000165804
0.000160317
0.000153374
0.000144976
0.000135183
0.000124079
0.000111706
9.81078e-05
8.33944e-05
6.78861e-05
5.22371e-05
3.73925e-05
2.43219e-05
1.36705e-05
5.70005e-06
6.34398e-07
6.71833e-08
6.03168e-07
1.38402e-06
2.31936e-06
3.35955e-06
4.47107e-06
5.63036e-06
6.82206e-06
8.03858e-06
9.2798e-06
1.05528e-05
1.1871e-05
1.32539e-05
1.47255e-05
1.63139e-05
1.80501e-05
1.99674e-05
2.21002e-05
2.44833e-05
2.71504e-05
3.01326e-05
3.34564e-05
3.71414e-05
4.11968e-05
4.5619e-05
5.03879e-05
5.54646e-05
6.07903e-05
6.62869e-05
7.18607e-05
7.74091e-05
8.283e-05
8.8034e-05
9.29563e-05
9.75676e-05
0.000101879
0.000105945
0.000109852
0.000113711
0.000117637
0.000121734
0.000126076
0.000130703
0.000135609
0.000140749
0.000146044
0.00015139
0.000156667
0.000161749
0.000166513
0.000170838
0.000174615
0.000177742
0.000180121
0.00018148
0.000181988
0.000181826
0.000180213
0.000177302
0.000172976
0.000167144
0.000159769
0.000150873
0.000140563
0.000128979
0.000116216
0.000102325
8.73593e-05
7.1524e-05
5.53672e-05
3.98181e-05
2.59524e-05
1.45748e-05
6.06257e-06
6.74786e-07
7.27421e-08
6.53056e-07
1.49833e-06
2.51045e-06
3.63526e-06
4.83602e-06
6.08669e-06
7.3702e-06
8.67798e-06
1.00098e-05
1.13733e-05
1.27832e-05
1.42607e-05
1.58317e-05
1.75265e-05
1.93781e-05
2.14217e-05
2.3693e-05
2.6228e-05
2.90605e-05
3.22211e-05
3.57346e-05
3.96172e-05
4.38738e-05
4.84939e-05
5.34497e-05
5.86931e-05
6.41557e-05
6.97505e-05
7.53773e-05
8.09306e-05
8.63111e-05
9.14383e-05
9.62627e-05
0.000100775
0.00010501
0.000109043
0.000112982
0.000116949
0.000121066
0.000125431
0.000130113
0.000135133
0.00014047
0.00014606
0.00015181
0.000157599
0.000163295
0.000168763
0.00017387
0.000178493
0.00018252
0.000185847
0.000188378
0.000189831
0.000190377
0.000190223
0.000188555
0.000185504
0.000180938
0.000174752
0.000166897
0.000157413
0.00014645
0.000134219
0.000120894
0.000106573
9.12804e-05
7.51161e-05
5.84936e-05
4.22799e-05
2.76281e-05
1.55085e-05
6.43552e-06
7.16339e-07
7.86191e-08
7.05788e-07
1.61912e-06
2.71226e-06
3.92621e-06
5.22072e-06
6.56701e-06
7.94604e-06
9.34815e-06
1.07729e-05
1.22286e-05
1.37313e-05
1.5304e-05
1.69747e-05
1.87757e-05
2.07421e-05
2.29107e-05
2.53185e-05
2.80022e-05
3.09955e-05
3.43279e-05
3.80219e-05
4.209e-05
4.65319e-05
5.13303e-05
5.64493e-05
6.1832e-05
6.74011e-05
7.30625e-05
7.87116e-05
8.42434e-05
8.95644e-05
9.46062e-05
9.93373e-05
0.00010377
0.000107962
0.00011201
0.000116038
0.000120178
0.000124551
0.000129253
0.000134336
0.000139807
0.000145628
0.000151717
0.000157963
0.000164232
0.000170378
0.000176258
0.000181731
0.000186669
0.000190961
0.000194504
0.000197206
0.000198784
0.000199384
0.000199271
0.000197593
0.000194446
0.00018968
0.00018316
0.000174818
0.000164688
0.000152961
0.000139921
0.000125848
0.000110925
9.51932e-05
7.86651e-05
6.16042e-05
4.47671e-05
2.93445e-05
1.64706e-05
6.81872e-06
7.5904e-07
8.48322e-08
7.61525e-07
1.74675e-06
2.92538e-06
4.23322e-06
5.62616e-06
7.07237e-06
8.55062e-06
1.005e-05
1.15698e-05
1.3119e-05
1.47152e-05
1.63831e-05
1.8153e-05
2.00592e-05
2.21389e-05
2.44301e-05
2.69713e-05
2.97992e-05
3.29471e-05
3.64431e-05
4.03068e-05
4.45466e-05
4.91565e-05
5.41125e-05
5.93705e-05
6.48654e-05
7.05127e-05
7.62127e-05
8.18591e-05
8.73501e-05
9.26013e-05
9.75592e-05
0.000102212
0.000106593
0.000110784
0.0001149
0.000119077
0.000123453
0.000128147
0.000133245
0.000138785
0.000144758
0.000151106
0.000157731
0.000164504
0.000171276
0.00017789
0.000184193
0.000190037
0.000195295
0.000199854
0.000203618
0.000206502
0.000208232
0.000208905
0.00020886
0.000207229
0.000204045
0.00019914
0.000192342
0.000183542
0.000172752
0.000160185
0.000146198
0.000131189
0.00011547
9.91468e-05
8.21835e-05
6.46904e-05
4.72687e-05
3.10963e-05
1.74602e-05
7.21184e-06
8.02856e-07
9.14005e-08
8.20436e-07
1.8816e-06
3.15042e-06
4.55711e-06
6.05332e-06
7.60385e-06
9.18495e-06
1.07843e-05
1.24009e-05
1.40445e-05
1.57342e-05
1.74967e-05
1.93645e-05
2.13743e-05
2.35646e-05
2.59754e-05
2.86455e-05
3.16119e-05
3.49069e-05
3.85568e-05
4.25779e-05
4.69743e-05
5.1734e-05
5.68263e-05
6.21996e-05
6.77814e-05
7.34813e-05
7.91963e-05
8.48212e-05
9.02598e-05
9.54396e-05
0.000100324
0.000104921
0.000109288
0.000113525
0.000117763
0.000122149
0.000126821
0.000131894
0.000137441
0.000143486
0.00015
0.000156908
0.000164093
0.000171409
0.000178694
0.000185779
0.0001925
0.000198709
0.000204275
0.000209092
0.00021307
0.000216133
0.000218039
0.000218816
0.000218851
0.000217326
0.000214178
0.000209216
0.000202223
0.000193035
0.000181618
0.000168181
0.000153139
0.000137022
0.0001203
0.000103203
8.56945e-05
6.77487e-05
4.97741e-05
3.28777e-05
1.84755e-05
7.61449e-06
8.47741e-07
9.83437e-08
8.82699e-07
2.02407e-06
3.38801e-06
4.89874e-06
6.50324e-06
8.16251e-06
9.85001e-06
1.15518e-05
1.32665e-05
1.50048e-05
1.67874e-05
1.86433e-05
2.06072e-05
2.27177e-05
2.50154e-05
2.75413e-05
3.03349e-05
3.34328e-05
3.68663e-05
4.06591e-05
4.48243e-05
4.93612e-05
5.42522e-05
5.94598e-05
6.49257e-05
7.05714e-05
7.6302e-05
8.20138e-05
8.76047e-05
9.29871e-05
9.81022e-05
0.000102931
0.000107504
0.000111897
0.00011623
0.000120646
0.000125297
0.00013032
0.000135823
0.000141863
0.000148449
0.000155533
0.00016302
0.000170776
0.000178638
0.00018643
0.000193972
0.000201094
0.000207645
0.000213498
0.000218552
0.000222727
0.00022596
0.000228059
0.00022897
0.000229089
0.000227731
0.000224694
0.000219771
0.000212689
0.000203217
0.000191253
0.000176968
0.000160813
0.00014344
0.000125511
0.000107432
8.9232e-05
7.0782e-05
5.22742e-05
3.46821e-05
1.95147e-05
8.02616e-06
8.9364e-07
1.05683e-07
9.48496e-07
2.17456e-06
3.63882e-06
5.25899e-06
6.97695e-06
8.74943e-06
1.05467e-05
1.23531e-05
1.41669e-05
1.59997e-05
1.7874e-05
1.98211e-05
2.18782e-05
2.4086e-05
2.64868e-05
2.91226e-05
3.20332e-05
3.52546e-05
3.88166e-05
4.27406e-05
4.70358e-05
5.16969e-05
5.67006e-05
6.20035e-05
6.75412e-05
7.32307e-05
7.89747e-05
8.46705e-05
9.02216e-05
9.55511e-05
0.000100615
0.000105415
0.000109998
0.000114462
0.00011894
0.000123587
0.000128556
0.000133979
0.000139952
0.000146519
0.000153671
0.00016134
0.000169413
0.000177736
0.000186132
0.000194411
0.000202384
0.000209877
0.000216739
0.000222847
0.000228109
0.000232459
0.000235845
0.000238143
0.000239207
0.000239423
0.00023828
0.000235429
0.000230644
0.000223594
0.000213971
0.000201583
0.000186524
0.00016925
0.000150518
0.000131193
0.00011191
9.28394e-05
7.38002e-05
5.4762e-05
3.65025e-05
2.05754e-05
8.44621e-06
9.40482e-07
1.13439e-07
1.01802e-06
2.33351e-06
3.90354e-06
5.63879e-06
7.4755e-06
9.36565e-06
1.1276e-05
1.31887e-05
1.5102e-05
1.70283e-05
1.89924e-05
2.1028e-05
2.31747e-05
2.54755e-05
2.79742e-05
3.07136e-05
3.37338e-05
3.70699e-05
4.075e-05
4.47925e-05
4.92033e-05
5.39723e-05
5.9071e-05
6.44505e-05
7.00419e-05
7.57587e-05
8.15033e-05
8.71761e-05
9.26882e-05
9.79748e-05
0.000103009
0.000107808
0.000112441
0.00011702
0.000121694
0.000126621
0.000131952
0.000137814
0.000144289
0.000151406
0.000159136
0.000167393
0.000176044
0.000184918
0.000193822
0.000202556
0.000210923
0.000218747
0.000225879
0.000232205
0.000237643
0.000242141
0.000245662
0.00024815
0.000249382
0.000249709
0.000248815
0.000246216
0.000241665
0.000234774
0.00022515
0.000212492
0.000196788
0.00017845
0.000158306
0.000137425
0.000116717
9.65686e-05
7.68203e-05
5.7233e-05
3.83322e-05
2.1655e-05
8.87393e-06
9.88187e-07
1.21637e-07
1.09148e-06
2.50136e-06
4.18287e-06
6.03908e-06
7.99998e-06
1.00122e-05
1.20386e-05
1.40591e-05
1.60716e-05
1.809e-05
2.01412e-05
2.22617e-05
2.44937e-05
2.68823e-05
2.94729e-05
3.2309e-05
3.54306e-05
3.88717e-05
4.26587e-05
4.68071e-05
5.13191e-05
5.61802e-05
6.13573e-05
6.67969e-05
7.24267e-05
7.81585e-05
8.38959e-05
8.95443e-05
9.50241e-05
0.000100284
0.000105312
0.000110145
0.000114868
0.000119608
0.000124523
0.000129773
0.000135504
0.000141835
0.000148833
0.000156511
0.00016482
0.000173654
0.000182862
0.000192257
0.000201634
0.00021078
0.000219496
0.000227604
0.000234963
0.000241465
0.000247044
0.000251664
0.000255305
0.000257949
0.000259368
0.000259819
0.000259193
0.000256902
0.00025267
0.000246058
0.000236587
0.00022384
0.000207659
0.00018837
0.000166823
0.000144269
0.000121928
0.000100477
7.98665e-05
5.96866e-05
4.01644e-05
2.27502e-05
9.30845e-06
1.03666e-06
1.30298e-07
1.16908e-06
2.67859e-06
4.47758e-06
6.46084e-06
8.55148e-06
1.06902e-05
1.28353e-05
1.49645e-05
1.70754e-05
1.91836e-05
2.13185e-05
2.35195e-05
2.58317e-05
2.83023e-05
3.09781e-05
3.39033e-05
3.71175e-05
4.06537e-05
4.45361e-05
4.87776e-05
5.33769e-05
5.83154e-05
6.3556e-05
6.90419e-05
7.46982e-05
8.04368e-05
8.61642e-05
9.17923e-05
9.72518e-05
0.000102505
0.000107557
0.000112459
0.000117312
0.000122255
0.000127452
0.000133062
0.000139223
0.000146042
0.000153574
0.000161812
0.000170687
0.000180076
0.00018981
0.000199687
0.000209489
0.000218998
0.000228011
0.000236356
0.000243895
0.000250534
0.000256221
0.000260935
0.000264676
0.000267449
0.000269065
0.00026965
0.000269295
0.000267348
0.000263504
0.000257279
0.00024811
0.000235461
0.000219008
0.000198934
0.000176057
0.000151768
0.000127609
0.000104624
8.29693e-05
6.21254e-05
4.19928e-05
2.38577e-05
9.74876e-06
1.08578e-06
1.3945e-07
1.25104e-06
2.86569e-06
4.78842e-06
6.90507e-06
9.13109e-06
1.14005e-05
1.36667e-05
1.5905e-05
1.8113e-05
2.03079e-05
2.25223e-05
2.47988e-05
2.71854e-05
2.97315e-05
3.24853e-05
3.54914e-05
3.87891e-05
4.24101e-05
4.63767e-05
5.0699e-05
5.53724e-05
6.03751e-05
6.56666e-05
7.11876e-05
7.68622e-05
8.26038e-05
8.83231e-05
9.39399e-05
9.93958e-05
0.000104667
0.000109773
0.000114782
0.000119804
0.000124989
0.000130504
0.000136502
0.000143112
0.000150431
0.000158495
0.00016728
0.000176699
0.00018661
0.000196827
0.000207137
0.000217311
0.000227129
0.000236388
0.000244919
0.000252595
0.000259334
0.000265097
0.00026988
0.0002737
0.000276579
0.000278394
0.000279129
0.000279027
0.000277447
0.000274039
0.000268286
0.000259552
0.000247184
0.000230681
0.000210033
0.00018596
0.000159937
0.000133817