/*--------------------------------*- C++ -*----------------------------------*\
  =========                 |
  \\      /  F ield         | OpenFOAM: The Open Source CFD Toolbox
   \\    /   O peration     | Website:  https://openfoam.org
    \\  /    A nd           | Version:  12
     \\/     M anipulation  |
\*---------------------------------------------------------------------------*/
FoamFile
{
    format      ascii;
    class       volScalarField;
    location    "7";
    object      nut;
}
// * * * * * * * * * * * * * * * * * * * * * * * * * * * * * * * * * * * * * //

dimensions      [0 2 -1 0 0 0 0];

internalField   nonuniform List<scalar> 
5625
(
6.05718e-15
4.09698e-14
9.11851e-14
1.50867e-13
2.17234e-13
2.88552e-13
3.63651e-13
4.41784e-13
5.22573e-13
6.05987e-13
6.92329e-13
7.82218e-13
8.76573e-13
9.76593e-13
1.08373e-12
1.19968e-12
1.32633e-12
1.46578e-12
1.62027e-12
1.79219e-12
1.98406e-12
2.19847e-12
2.43811e-12
2.70567e-12
3.0039e-12
3.33549e-12
3.70312e-12
4.10935e-12
4.55664e-12
5.04733e-12
5.58354e-12
6.16724e-12
6.80014e-12
7.48375e-12
8.21928e-12
9.00771e-12
9.84968e-12
1.07456e-11
1.16953e-11
1.26984e-11
1.37538e-11
1.48596e-11
1.60133e-11
1.72108e-11
1.84464e-11
1.97125e-11
2.09986e-11
2.22911e-11
2.35726e-11
2.48211e-11
2.60094e-11
2.71048e-11
2.80684e-11
2.88522e-11
2.93828e-11
2.96208e-11
2.963e-11
2.92492e-11
2.84576e-11
2.72519e-11
2.56445e-11
2.36716e-11
2.13966e-11
1.89073e-11
1.63087e-11
1.37118e-11
1.12206e-11
8.9204e-12
6.86969e-12
5.09733e-12
3.60509e-12
2.37498e-12
1.38102e-12
6.07015e-13
8.94084e-14
1.83124e-13
5.96566e-12
1.4973e-11
2.54043e-11
3.6895e-11
4.91909e-11
6.21069e-11
7.5521e-11
8.93711e-11
1.03653e-10
1.1842e-10
1.33777e-10
1.49884e-10
1.66944e-10
1.85207e-10
2.0496e-10
2.26527e-10
2.50261e-10
2.76547e-10
3.05789e-10
3.38412e-10
3.74854e-10
4.15565e-10
4.60998e-10
5.11607e-10
5.67841e-10
6.30136e-10
6.98913e-10
7.74568e-10
8.5747e-10
9.47955e-10
1.04632e-09
1.15284e-09
1.26771e-09
1.39112e-09
1.52319e-09
1.66401e-09
1.81361e-09
1.97198e-09
2.13903e-09
2.3146e-09
2.49844e-09
2.69015e-09
2.88919e-09
3.09473e-09
3.30565e-09
3.52044e-09
3.73706e-09
3.95285e-09
4.1644e-09
4.36744e-09
4.55671e-09
4.72587e-09
4.86704e-09
4.96709e-09
5.01405e-09
5.02599e-09
4.97022e-09
4.8438e-09
4.6456e-09
4.37701e-09
4.04371e-09
3.65638e-09
3.23028e-09
2.78399e-09
2.33727e-09
1.9087e-09
1.51348e-09
1.16191e-09
8.58887e-10
6.04377e-10
3.94648e-10
2.24028e-10
8.76873e-11
2.70048e-12
3.89058e-13
3.19426e-11
1.02697e-10
1.86287e-10
2.7718e-10
3.73546e-10
4.74147e-10
5.78144e-10
6.85106e-10
7.95026e-10
9.0832e-10
1.02581e-09
1.14872e-09
1.2786e-09
1.41737e-09
1.5672e-09
1.73053e-09
1.91004e-09
2.10857e-09
2.32916e-09
2.57491e-09
2.84904e-09
3.15479e-09
3.49542e-09
3.87412e-09
4.29402e-09
4.75807e-09
5.26908e-09
5.82961e-09
6.44198e-09
7.10818e-09
7.82994e-09
8.60869e-09
9.4455e-09
1.03412e-08
1.12962e-08
1.2311e-08
1.33855e-08
1.45196e-08
1.57129e-08
1.69647e-08
1.8274e-08
1.96391e-08
2.10575e-08
2.2525e-08
2.40361e-08
2.5582e-08
2.71511e-08
2.8727e-08
3.0288e-08
3.18055e-08
3.32435e-08
3.45572e-08
3.56956e-08
3.65549e-08
3.70027e-08
3.72594e-08
3.69966e-08
3.61947e-08
3.48356e-08
3.29184e-08
3.04778e-08
2.75915e-08
2.43781e-08
2.0986e-08
1.75764e-08
1.43014e-08
1.12852e-08
8.61069e-09
6.31467e-09
4.39205e-09
2.80544e-09
1.50076e-09
4.64935e-10
5.71454e-12
6.36623e-13
7.49402e-11
3.08229e-10
6.15752e-10
9.53357e-10
1.30889e-09
1.67718e-09
2.05528e-09
2.44175e-09
2.83664e-09
3.24147e-09
3.6592e-09
4.09415e-09
4.55187e-09
5.039e-09
5.56316e-09
6.13276e-09
6.75693e-09
7.44533e-09
8.20799e-09
9.05521e-09
9.99735e-09
1.10447e-08
1.22073e-08
1.34949e-08
1.49165e-08
1.64804e-08
1.81942e-08
2.00642e-08
2.20958e-08
2.42933e-08
2.666e-08
2.91982e-08
3.19095e-08
3.47947e-08
3.78543e-08
4.10887e-08
4.44985e-08
4.80845e-08
5.18481e-08
5.57904e-08
5.99131e-08
6.42171e-08
6.87019e-08
7.33634e-08
7.81924e-08
8.31719e-08
8.82737e-08
9.34563e-08
9.86583e-08
1.03794e-07
1.08749e-07
1.13369e-07
1.17577e-07
1.20852e-07
1.22716e-07
1.24139e-07
1.23771e-07
1.21545e-07
1.17376e-07
1.11231e-07
1.03207e-07
9.35602e-08
8.26994e-08
7.11495e-08
5.94859e-08
4.82572e-08
3.79117e-08
2.87467e-08
2.08895e-08
1.43102e-08
8.86091e-09
4.37538e-09
1.08027e-09
9.2839e-12
9.18395e-13
1.26507e-10
6.24906e-10
1.3825e-09
2.24916e-09
3.16606e-09
4.11109e-09
5.07421e-09
6.05111e-09
7.0417e-09
8.04969e-09
9.08241e-09
1.01504e-08
1.12673e-08
1.24491e-08
1.3714e-08
1.50818e-08
1.65738e-08
1.8212e-08
2.00191e-08
2.20176e-08
2.42298e-08
2.66771e-08
2.93796e-08
3.23561e-08
3.56232e-08
3.91952e-08
4.30839e-08
4.72986e-08
5.18457e-08
5.67293e-08
6.19523e-08
6.75162e-08
7.34213e-08
7.96679e-08
8.62576e-08
9.31938e-08
1.00482e-07
1.08131e-07
1.16153e-07
1.2456e-07
1.33369e-07
1.42598e-07
1.5226e-07
1.62364e-07
1.72907e-07
1.83865e-07
1.9519e-07
2.06804e-07
2.18577e-07
2.30322e-07
2.41772e-07
2.52565e-07
2.62683e-07
2.70515e-07
2.75178e-07
2.78977e-07
2.78646e-07
2.74015e-07
2.64934e-07
2.51316e-07
2.33375e-07
2.1169e-07
1.87186e-07
1.61051e-07
1.34591e-07
1.09059e-07
8.54827e-08
6.45494e-08
4.65534e-08
3.14214e-08
1.88325e-08
8.60118e-09
1.802e-09
1.32566e-11
1.22938e-12
1.82841e-10
1.02109e-09
2.47279e-09
4.23729e-09
6.13796e-09
8.09856e-09
1.00856e-08
1.20853e-08
1.40953e-08
1.61221e-08
1.81802e-08
2.02902e-08
2.24786e-08
2.47766e-08
2.72189e-08
2.9843e-08
3.26881e-08
3.57942e-08
3.92014e-08
4.29486e-08
4.70729e-08
5.1609e-08
5.65878e-08
6.20367e-08
6.79786e-08
7.44313e-08
8.14079e-08
8.8917e-08
9.69628e-08
1.05546e-07
1.14668e-07
1.24338e-07
1.34552e-07
1.45313e-07
1.56631e-07
1.68521e-07
1.81005e-07
1.94109e-07
2.0787e-07
2.22325e-07
2.37515e-07
2.53491e-07
2.70292e-07
2.87946e-07
3.0646e-07
3.25802e-07
3.45883e-07
3.66563e-07
3.87604e-07
4.08647e-07
4.29196e-07
4.48553e-07
4.66569e-07
4.80494e-07
4.88595e-07
4.94951e-07
4.93976e-07
4.85192e-07
4.68533e-07
4.43962e-07
4.1193e-07
3.73491e-07
3.30256e-07
2.84252e-07
2.3769e-07
1.92689e-07
1.51004e-07
1.13825e-07
8.1675e-08
5.44587e-08
3.17309e-08
1.36083e-08
2.56547e-09
1.75154e-11
1.56664e-12
2.42817e-10
1.46919e-09
3.82601e-09
6.8826e-09
1.02663e-08
1.37815e-08
1.73356e-08
2.08875e-08
2.44256e-08
2.79581e-08
3.15082e-08
3.5111e-08
3.88115e-08
4.26619e-08
4.672e-08
5.10469e-08
5.57053e-08
6.07579e-08
6.62658e-08
7.22868e-08
7.88744e-08
8.6076e-08
9.39325e-08
1.0248e-07
1.11746e-07
1.21748e-07
1.325e-07
1.44009e-07
1.56276e-07
1.69299e-07
1.83077e-07
1.97609e-07
2.12907e-07
2.28989e-07
2.45882e-07
2.63621e-07
2.82258e-07
3.01854e-07
3.22482e-07
3.44226e-07
3.67173e-07
3.91396e-07
4.16966e-07
4.43925e-07
4.72276e-07
5.01957e-07
5.32821e-07
5.64568e-07
5.96745e-07
6.28702e-07
6.59561e-07
6.88236e-07
7.13843e-07
7.33731e-07
7.44229e-07
7.51266e-07
7.4741e-07
7.31579e-07
7.04214e-07
6.65494e-07
6.16242e-07
5.58072e-07
4.93317e-07
4.24827e-07
3.55675e-07
2.888e-07
2.26652e-07
1.70912e-07
1.22355e-07
8.091e-08
4.61635e-08
1.89265e-08
3.34513e-09
2.1976e-11
1.9286e-12
3.06194e-10
1.95292e-09
5.37577e-09
1.00866e-08
1.54678e-08
2.11245e-08
2.6847e-08
3.25356e-08
3.81541e-08
4.37067e-08
4.92261e-08
5.47656e-08
6.03943e-08
6.6192e-08
7.22462e-08
7.86478e-08
8.54884e-08
9.28585e-08
1.00844e-07
1.09523e-07
1.18968e-07
1.29238e-07
1.40385e-07
1.52445e-07
1.65449e-07
1.79417e-07
1.94361e-07
2.10286e-07
2.27197e-07
2.45101e-07
2.64e-07
2.83902e-07
3.04836e-07
3.26838e-07
3.4996e-07
3.74272e-07
3.99857e-07
4.26817e-07
4.55265e-07
4.85325e-07
5.17118e-07
5.50751e-07
5.86306e-07
6.23817e-07
6.63242e-07
7.04426e-07
7.4706e-07
7.90616e-07
8.3433e-07
8.77164e-07
9.17792e-07
9.54646e-07
9.86021e-07
1.00884e-06
1.01971e-06
1.0241e-06
1.01428e-06
9.88235e-07
9.47418e-07
8.92372e-07
8.24339e-07
7.45472e-07
6.58723e-07
5.6762e-07
4.75928e-07
3.87243e-07
3.04585e-07
2.30054e-07
1.64645e-07
1.08361e-07
6.09757e-08
2.42732e-08
4.12943e-09
2.65792e-11
2.31455e-12
3.73001e-10
2.46455e-09
7.07109e-09
1.37362e-08
2.15903e-08
2.99648e-08
3.84627e-08
4.68793e-08
5.51287e-08
6.32007e-08
7.11357e-08
7.9009e-08
8.69196e-08
9.4983e-08
1.03324e-07
1.12069e-07
1.21347e-07
1.31277e-07
1.41974e-07
1.5354e-07
1.66066e-07
1.79626e-07
1.94285e-07
2.10089e-07
2.2707e-07
2.45252e-07
2.6465e-07
2.85275e-07
3.07135e-07
3.30246e-07
3.54621e-07
3.80287e-07
4.0729e-07
4.35692e-07
4.65573e-07
4.97034e-07
5.30193e-07
5.65188e-07
6.0217e-07
6.41293e-07
6.82704e-07
7.26518e-07
7.72801e-07
8.21534e-07
8.72565e-07
9.25565e-07
9.79964e-07
1.0349e-06
1.08921e-06
1.14138e-06
1.1896e-06
1.23181e-06
1.26577e-06
1.28828e-06
1.2948e-06
1.29418e-06
1.27558e-06
1.23679e-06
1.18083e-06
1.10863e-06
1.02178e-06
9.22864e-07
8.15275e-07
7.03019e-07
5.90356e-07
4.81375e-07
3.79534e-07
2.87269e-07
2.05776e-07
1.35152e-07
7.5442e-08
2.9503e-08
4.91204e-09
3.12864e-11
2.72442e-12
4.43365e-10
3.00129e-09
8.87961e-09
1.77346e-08
2.84683e-08
4.00815e-08
5.19196e-08
6.36175e-08
7.50071e-08
8.6049e-08
9.67873e-08
1.07322e-07
1.1779e-07
1.28349e-07
1.3917e-07
1.50423e-07
1.6228e-07
1.749e-07
1.88429e-07
2.02998e-07
2.18721e-07
2.35693e-07
2.5399e-07
2.73669e-07
2.94774e-07
3.17334e-07
3.41373e-07
3.66907e-07
3.93956e-07
4.22543e-07
4.52698e-07
4.84466e-07
5.1791e-07
5.53114e-07
5.90183e-07
6.29244e-07
6.70447e-07
7.13958e-07
7.59953e-07
8.08608e-07
8.60071e-07
9.14438e-07
9.71714e-07
1.03176e-06
1.09425e-06
1.15856e-06
1.22379e-06
1.28865e-06
1.35152e-06
1.4104e-06
1.46307e-06
1.50711e-06
1.54002e-06
1.55898e-06
1.5575e-06
1.54818e-06
1.52026e-06
1.46727e-06
1.39559e-06
1.30654e-06
1.20191e-06
1.08453e-06
9.58079e-07
8.26837e-07
6.95389e-07
5.68172e-07
4.48993e-07
3.40579e-07
2.44315e-07
1.60414e-07
8.92017e-08
3.45529e-08
5.68891e-09
3.60805e-11
3.15857e-12
5.17457e-10
3.56291e-09
1.07841e-08
2.20127e-08
3.59584e-08
5.1254e-08
6.69252e-08
8.23901e-08
9.73625e-08
1.11755e-07
1.25612e-07
1.39061e-07
1.52282e-07
1.65488e-07
1.78901e-07
1.92751e-07
2.07255e-07
2.2262e-07
2.39032e-07
2.56656e-07
2.75634e-07
2.96082e-07
3.18097e-07
3.4175e-07
3.67096e-07
3.94177e-07
4.23024e-07
4.53663e-07
4.86124e-07
5.20439e-07
5.5665e-07
5.94813e-07
6.35007e-07
6.7733e-07
7.21905e-07
7.68881e-07
8.18426e-07
8.7073e-07
9.25983e-07
9.84363e-07
1.046e-06
1.11092e-06
1.17903e-06
1.24998e-06
1.32318e-06
1.39767e-06
1.4721e-06
1.54475e-06
1.61352e-06
1.67606e-06
1.72985e-06
1.77232e-06
1.80097e-06
1.81341e-06
1.80227e-06
1.78081e-06
1.74332e-06
1.67656e-06
1.58937e-06
1.48441e-06
1.36351e-06
1.22959e-06
1.08644e-06
9.38475e-07
7.90456e-07
6.47065e-07
5.12394e-07
3.89446e-07
2.79815e-07
1.83854e-07
1.02138e-07
3.94069e-08
6.45986e-09
4.0944e-11
3.61772e-12
5.95483e-10
4.15049e-09
1.27778e-08
2.65291e-08
4.39536e-08
6.32963e-08
8.32114e-08
1.02849e-07
1.21768e-07
1.39817e-07
1.57034e-07
1.73579e-07
1.89685e-07
2.05625e-07
2.2169e-07
2.38171e-07
2.55347e-07
2.73477e-07
2.92793e-07
3.135e-07
3.35772e-07
3.59754e-07
3.85562e-07
4.13287e-07
4.42998e-07
4.74747e-07
5.08574e-07
5.44514e-07
5.82601e-07
6.22872e-07
6.65374e-07
7.1017e-07
7.57342e-07
8.06997e-07
8.59268e-07
9.14318e-07
9.72332e-07
1.03351e-06
1.09805e-06
1.16612e-06
1.23778e-06
1.31298e-06
1.39141e-06
1.4725e-06
1.55528e-06
1.63839e-06
1.72004e-06
1.79807e-06
1.87004e-06
1.93335e-06
1.98537e-06
2.02356e-06
2.04561e-06
2.04947e-06
2.02765e-06
1.99389e-06
1.94361e-06
1.86615e-06
1.76399e-06
1.64422e-06
1.50855e-06
1.35987e-06
1.20196e-06
1.03926e-06
8.76598e-07
7.18816e-07
5.70244e-07
4.34165e-07
3.12415e-07
2.05522e-07
1.14278e-07
4.40748e-08
7.22597e-09
4.58735e-11
4.10289e-12
6.77677e-10
4.7658e-09
1.48607e-08
3.12634e-08
5.2385e-08
7.60715e-08
1.00564e-07
1.247e-07
1.47853e-07
1.69792e-07
1.90546e-07
2.1031e-07
2.29379e-07
2.481e-07
2.66841e-07
2.85965e-07
3.05819e-07
3.26722e-07
3.4896e-07
3.72781e-07
3.98396e-07
4.2598e-07
4.55672e-07
4.87582e-07
5.21793e-07
5.58365e-07
5.97346e-07
6.38771e-07
6.82674e-07
7.2909e-07
7.78061e-07
8.29647e-07
8.83927e-07
9.41008e-07
1.00103e-06
1.06417e-06
1.13062e-06
1.2006e-06
1.27429e-06
1.35183e-06
1.43321e-06
1.51819e-06
1.60626e-06
1.69649e-06
1.78754e-06
1.87761e-06
1.96449e-06
2.04569e-06
2.11854e-06
2.18034e-06
2.2285e-06
2.26067e-06
2.27479e-06
2.26891e-06
2.23606e-06
2.19072e-06
2.12632e-06
2.03881e-06
1.92366e-06
1.78994e-06
1.64063e-06
1.47852e-06
1.30732e-06
1.13139e-06
9.55566e-07
7.84771e-07
6.23538e-07
4.75423e-07
3.42547e-07
2.25648e-07
1.25719e-07
4.85796e-08
7.9892e-09
5.08745e-11
4.61529e-12
7.64301e-10
5.41101e-09
1.70371e-08
3.62113e-08
6.12157e-08
8.94915e-08
1.1883e-07
1.47721e-07
1.75329e-07
2.01329e-07
2.2574e-07
2.48801e-07
2.70878e-07
2.92401e-07
3.13823e-07
3.35592e-07
3.5813e-07
3.81821e-07
4.07009e-07
4.33989e-07
4.63012e-07
4.94283e-07
5.27965e-07
5.64186e-07
6.03037e-07
6.44587e-07
6.88881e-07
7.3595e-07
7.85819e-07
8.38509e-07
8.94051e-07
9.52491e-07
1.0139e-06
1.07839e-06
1.1461e-06
1.21722e-06
1.29196e-06
1.37055e-06
1.45317e-06
1.53988e-06
1.63056e-06
1.72478e-06
1.82171e-06
1.92008e-06
2.01812e-06
2.11364e-06
2.20411e-06
2.28678e-06
2.35889e-06
2.41776e-06
2.46096e-06
2.48633e-06
2.49208e-06
2.47609e-06
2.43256e-06
2.37649e-06
2.29854e-06
2.19823e-06
2.07379e-06
1.92643e-06
1.76404e-06
1.5892e-06
1.40555e-06
1.21734e-06
1.02931e-06
8.46447e-07
6.73414e-07
5.14037e-07
3.70747e-07
2.44539e-07
1.36585e-07
5.29506e-08
8.75211e-09
5.59582e-11
5.15639e-12
8.55638e-10
6.08855e-09
1.93137e-08
4.13781e-08
7.04353e-08
1.0351e-07
1.37915e-07
1.71763e-07
2.03991e-07
2.34172e-07
2.6232e-07
2.88722e-07
3.13827e-07
3.38158e-07
3.62263e-07
3.8668e-07
4.11914e-07
4.38419e-07
4.66598e-07
4.96799e-07
5.29309e-07
5.64365e-07
6.02152e-07
6.4281e-07
6.86439e-07
7.33103e-07
7.82841e-07
8.35671e-07
8.91595e-07
9.50618e-07
1.01275e-06
1.07801e-06
1.14647e-06
1.21824e-06
1.29347e-06
1.37238e-06
1.45521e-06
1.54218e-06
1.63347e-06
1.72905e-06
1.82865e-06
1.93158e-06
2.0367e-06
2.14235e-06
2.24637e-06
2.34624e-06
2.43921e-06
2.52237e-06
2.59297e-06
2.64843e-06
2.68646e-06
2.70511e-06
2.70276e-06
2.67689e-06
2.62328e-06
2.55702e-06
2.46655e-06
2.35219e-06
2.21867e-06
2.05885e-06
1.88324e-06
1.69565e-06
1.49972e-06
1.29954e-06
1.09975e-06
9.0531e-07
7.2098e-07
5.50812e-07
3.97559e-07
2.62512e-07
1.47012e-07
5.7219e-08
9.51754e-09
6.11393e-11
5.72778e-12
9.51996e-10
6.801e-09
2.16987e-08
4.67762e-08
8.00508e-08
1.18114e-07
1.57771e-07
1.96738e-07
2.33708e-07
2.68154e-07
3.00086e-07
3.29851e-07
3.57989e-07
3.85125e-07
4.11914e-07
4.38988e-07
4.66938e-07
4.96294e-07
5.2752e-07
5.61013e-07
5.97099e-07
6.36043e-07
6.78047e-07
7.23261e-07
7.71782e-07
8.23668e-07
8.78939e-07
9.37589e-07
9.99594e-07
1.06493e-06
1.13357e-06
1.20554e-06
1.28089e-06
1.35975e-06
1.44228e-06
1.52876e-06
1.61945e-06
1.71461e-06
1.81435e-06
1.91859e-06
2.02683e-06
2.13812e-06
2.25096e-06
2.36333e-06
2.47273e-06
2.57641e-06
2.67148e-06
2.75496e-06
2.82414e-06
2.87654e-06
2.90999e-06
2.92265e-06
2.91306e-06
2.87799e-06
2.81515e-06
2.73952e-06
2.63685e-06
2.50833e-06
2.3622e-06
2.19235e-06
2.00259e-06
1.8015e-06
1.59275e-06
1.38028e-06
1.16863e-06
9.62689e-07
7.6723e-07
5.86474e-07
4.23481e-07
2.79861e-07
1.57129e-07
6.14152e-08
1.02883e-08
6.64346e-11
6.33123e-12
1.0537e-09
7.55112e-09
2.42014e-08
5.2423e-08
9.00823e-08
1.33313e-07
1.78389e-07
2.22607e-07
2.64413e-07
3.03178e-07
3.38919e-07
3.72052e-07
4.03217e-07
4.33154e-07
4.62627e-07
4.92372e-07
5.23067e-07
5.55319e-07
5.89653e-07
6.26514e-07
6.66265e-07
7.09194e-07
7.55516e-07
8.05382e-07
8.58882e-07
9.16055e-07
9.76896e-07
1.04137e-06
1.10941e-06
1.18095e-06
1.25597e-06
1.33446e-06
1.41648e-06
1.50218e-06
1.59179e-06
1.68563e-06
1.78403e-06
1.88724e-06
1.99537e-06
2.10817e-06
2.22496e-06
2.34451e-06
2.46484e-06
2.58361e-06
2.69841e-06
2.80615e-06
2.90369e-06
2.98809e-06
3.0567e-06
3.10707e-06
3.13707e-06
3.1449e-06
3.12911e-06
3.08551e-06
3.01405e-06
2.92963e-06
2.81457e-06
2.67289e-06
2.51099e-06
2.3305e-06
2.12625e-06
1.91015e-06
1.68736e-06
1.46169e-06
1.23755e-06
1.01976e-06
8.13022e-07
6.21646e-07
4.4894e-07
2.96842e-07
1.67051e-07
6.55671e-08
1.10672e-08
7.1861e-11
6.96866e-12
1.16111e-09
8.34177e-09
2.68318e-08
5.83386e-08
1.00558e-07
1.49134e-07
1.99783e-07
2.49368e-07
2.96081e-07
3.392e-07
3.78758e-07
4.15252e-07
4.49434e-07
4.82164e-07
5.14324e-07
5.46755e-07
5.80228e-07
6.15424e-07
6.52928e-07
6.93231e-07
7.36727e-07
7.83724e-07
8.34443e-07
8.89028e-07
9.47555e-07
1.01003e-06
1.07643e-06
1.14665e-06
1.22061e-06
1.29822e-06
1.3794e-06
1.46417e-06
1.5526e-06
1.64492e-06
1.74142e-06
1.84249e-06
1.94853e-06
2.05982e-06
2.17641e-06
2.29791e-06
2.4234e-06
2.55082e-06
2.67892e-06
2.80496e-06
2.92573e-06
3.03814e-06
3.13925e-06
3.22583e-06
3.29529e-06
3.34515e-06
3.37321e-06
3.37759e-06
3.35674e-06
3.30519e-06
3.22541e-06
3.13244e-06
3.00472e-06
2.84986e-06
2.67139e-06
2.47605e-06
2.25813e-06
2.0248e-06
1.7861e-06
1.54572e-06
1.30795e-06
1.07754e-06
8.59088e-07
6.56845e-07
4.74294e-07
3.13672e-07
1.76878e-07
6.9699e-08
1.18564e-08
7.74341e-11
7.6421e-12
1.27458e-09
9.17592e-09
2.96003e-08
6.45452e-08
1.1151e-07
1.65614e-07
2.21987e-07
2.77043e-07
3.28722e-07
3.76216e-07
4.19588e-07
4.59427e-07
4.96607e-07
5.32121e-07
5.66969e-07
6.02104e-07
6.38385e-07
6.7657e-07
7.17302e-07
7.6111e-07
8.08419e-07
8.59545e-07
9.14711e-07
9.74048e-07
1.0376e-06
1.10536e-06
1.17722e-06
1.25308e-06
1.33279e-06
1.41624e-06
1.50335e-06
1.59414e-06
1.68876e-06
1.7875e-06
1.89076e-06
1.99904e-06
2.11281e-06
2.23238e-06
2.35772e-06
2.4882e-06
2.62211e-06
2.75898e-06
2.8957e-06
3.02948e-06
3.15718e-06
3.27574e-06
3.38186e-06
3.47235e-06
3.54449e-06
3.59565e-06
3.62345e-06
3.62583e-06
3.60109e-06
3.54233e-06
3.45453e-06
3.35306e-06
3.21224e-06
3.04308e-06
2.84809e-06
2.63377e-06
2.4009e-06
2.14842e-06
1.89138e-06
1.63425e-06
1.3812e-06
1.137e-06
9.06065e-07
6.92502e-07
4.9983e-07
3.30526e-07
1.86688e-07
7.38321e-08
1.26577e-08
8.31677e-11
8.35369e-12
1.39451e-09
1.00567e-08
3.25177e-08
7.10659e-08
1.22977e-07
1.828e-07
2.45048e-07
3.05673e-07
3.62365e-07
4.14245e-07
4.61417e-07
5.04577e-07
5.44735e-07
5.83017e-07
6.20553e-07
6.58404e-07
6.97521e-07
7.38734e-07
7.82738e-07
8.30102e-07
8.81267e-07
9.36558e-07
9.96189e-07
1.06027e-06
1.12881e-06
1.20176e-06
1.27897e-06
1.36029e-06
1.44554e-06
1.53458e-06
1.62735e-06
1.72393e-06
1.82454e-06
1.92959e-06
2.03961e-06
2.15523e-06
2.27699e-06
2.4052e-06
2.5397e-06
2.67916e-06
2.82364e-06
2.97028e-06
3.1165e-06
3.25933e-06
3.39567e-06
3.52226e-06
3.63514e-06
3.73159e-06
3.80845e-06
3.86282e-06
3.89205e-06
3.89381e-06
3.86616e-06
3.8009e-06
3.70546e-06
3.59491e-06
3.44066e-06
3.25619e-06
3.04374e-06
2.80821e-06
2.55656e-06
2.28381e-06
2.00548e-06
1.72908e-06
1.45862e-06
1.19901e-06
9.54529e-07
7.28985e-07
5.25785e-07
3.47543e-07
1.96543e-07
7.79855e-08
1.34725e-08
8.9073e-11
9.10571e-12
1.52128e-09
1.09872e-08
3.55952e-08
7.7925e-08
1.34996e-07
2.0074e-07
2.69017e-07
3.35306e-07
3.97054e-07
4.53321e-07
5.04272e-07
5.50724e-07
5.9383e-07
6.34861e-07
6.75078e-07
7.15651e-07
7.57623e-07
8.01891e-07
8.49199e-07
9.00147e-07
9.55189e-07
1.01465e-06
1.07873e-06
1.1475e-06
1.22095e-06
1.29895e-06
1.38134e-06
1.46791e-06
1.55845e-06
1.65283e-06
1.75103e-06
1.8532e-06
1.95968e-06
2.07103e-06
2.18794e-06
2.31118e-06
2.44138e-06
2.57886e-06
2.72256e-06
2.87326e-06
3.02857e-06
3.18617e-06
3.34332e-06
3.4971e-06
3.64427e-06
3.78035e-06
3.90232e-06
4.00691e-06
4.09057e-06
4.15001e-06
4.18224e-06
4.18458e-06
4.15481e-06
4.08362e-06
3.9809e-06
3.86034e-06
3.69236e-06
3.49156e-06
3.26029e-06
3.00265e-06
2.72772e-06
2.43321e-06
2.1305e-06
1.83195e-06
1.54152e-06
1.26449e-06
1.00504e-06
7.66622e-07
5.52354e-07
3.64834e-07
2.06485e-07
8.21787e-08
1.43016e-08
9.51582e-11
9.9006e-12
1.65531e-09
1.19709e-08
3.88443e-08
8.51477e-08
1.47609e-07
2.19486e-07
2.9395e-07
3.65998e-07
4.32837e-07
4.93486e-07
5.48186e-07
5.97891e-07
6.4391e-07
6.87665e-07
7.30548e-07
7.73841e-07
8.18675e-07
8.6601e-07
9.16635e-07
9.71172e-07
1.03009e-06
1.09369e-06
1.16216e-06
1.23554e-06
1.31376e-06
1.39666e-06
1.48402e-06
1.5756e-06
1.67118e-06
1.77067e-06
1.87409e-06
1.98171e-06
2.09404e-06
2.2118e-06
2.33588e-06
2.4672e-06
2.60646e-06
2.75316e-06
2.90857e-06
3.07087e-06
3.23828e-06
3.40833e-06
3.57841e-06
3.74545e-06
3.90453e-06
4.05259e-06
4.18602e-06
4.30092e-06
4.39332e-06
4.45953e-06
4.49613e-06
4.50006e-06
4.46884e-06
4.39213e-06
4.28179e-06
4.15078e-06
3.96864e-06
3.75053e-06
3.49906e-06
3.21839e-06
2.91781e-06
2.59813e-06
2.26837e-06
1.94457e-06
1.63125e-06
1.33435e-06
1.05815e-06
8.05731e-07
5.79711e-07
3.8249e-07
2.16533e-07
8.64366e-08
1.51452e-08
1.01428e-10
1.07411e-11
1.79697e-09
1.3011e-08
4.22769e-08
9.27598e-08
1.60855e-07
2.39089e-07
3.19905e-07
3.97803e-07
4.69764e-07
5.34782e-07
5.93194e-07
6.46107e-07
6.94995e-07
7.41437e-07
7.86963e-07
8.32963e-07
8.80651e-07
9.31049e-07
9.84982e-07
1.04309e-06
1.10584e-06
1.17353e-06
1.2463e-06
1.32416e-06
1.407e-06
1.4946e-06
1.5867e-06
1.68305e-06
1.78344e-06
1.88781e-06
1.9963e-06
2.10934e-06
2.2276e-06
2.35204e-06
2.48372e-06
2.62372e-06
2.77223e-06
2.93057e-06
3.09798e-06
3.27315e-06
3.45414e-06
3.63862e-06
3.82399e-06
4.00498e-06
4.17863e-06
4.34109e-06
4.48811e-06
4.61527e-06
4.71816e-06
4.79257e-06
4.83465e-06
4.84098e-06
4.8088e-06
4.72683e-06
4.60821e-06
4.46653e-06
4.26979e-06
4.03359e-06
3.7609e-06
3.45613e-06
3.12854e-06
2.7801e-06
2.4208e-06
2.06852e-06
1.7291e-06
1.40956e-06
1.11449e-06
8.46638e-07
6.0802e-07
4.00595e-07
2.26728e-07
9.07659e-08
1.60031e-08
1.07885e-10
1.16298e-11
1.94675e-09
1.41113e-08
4.59051e-08
1.00788e-07
1.74776e-07
2.59602e-07
3.46937e-07
4.30776e-07
5.07885e-07
5.77252e-07
6.3933e-07
6.95395e-07
7.47098e-07
7.96183e-07
8.44314e-07
8.92993e-07
9.43514e-07
9.96951e-07
1.05416e-06
1.1158e-06
1.18232e-06
1.254e-06
1.33096e-06
1.41315e-06
1.50041e-06
1.59249e-06
1.6891e-06
1.78998e-06
1.89496e-06
2.00407e-06
2.11757e-06
2.23608e-06
2.3605e-06
2.49199e-06
2.63185e-06
2.78111e-06
2.94061e-06
3.11109e-06
3.29174e-06
3.48121e-06
3.67759e-06
3.87898e-06
4.07991e-06
4.2776e-06
4.46814e-06
4.64704e-06
4.80954e-06
4.95067e-06
5.06547e-06
5.14923e-06
5.19762e-06
5.20694e-06
5.17416e-06
5.08714e-06
4.95944e-06
4.80686e-06
4.59522e-06
4.34033e-06
4.04568e-06
3.71601e-06
3.36062e-06
2.98037e-06
2.58912e-06
2.20519e-06
1.83638e-06
1.49109e-06
1.17467e-06
8.89694e-07
6.3745e-07
4.19229e-07
2.37112e-07
9.51669e-08
1.6875e-08
1.14529e-10
1.25694e-11
2.10512e-09
1.52754e-08
4.97419e-08
1.09258e-07
1.89413e-07
2.81076e-07
3.75101e-07
4.6497e-07
5.47244e-07
6.20929e-07
6.86617e-07
7.45769e-07
8.00224e-07
8.51893e-07
9.02582e-07
9.53899e-07
1.00721e-06
1.06365e-06
1.12408e-06
1.18918e-06
1.25938e-06
1.33494e-06
1.41594e-06
1.50228e-06
1.59376e-06
1.6901e-06
1.79099e-06
1.8962e-06
2.0056e-06
2.11935e-06
2.23789e-06
2.36203e-06
2.49293e-06
2.63202e-06
2.78084e-06
2.94009e-06
3.11175e-06
3.2955e-06
3.49074e-06
3.69605e-06
3.91052e-06
4.12865e-06
4.34783e-06
4.56436e-06
4.77368e-06
4.97082e-06
5.15041e-06
5.30688e-06
5.43468e-06
5.52859e-06
5.58388e-06
5.59652e-06
5.56336e-06
5.47165e-06
5.33407e-06
5.17021e-06
4.94355e-06
4.66954e-06
4.35237e-06
3.99751e-06
3.61395e-06
3.19969e-06
2.7743e-06
2.35576e-06
1.95424e-06
1.57995e-06
1.2394e-06
9.35282e-07
6.6818e-07
4.38468e-07
2.47718e-07
9.96433e-08
1.77602e-08
1.21356e-10
1.35628e-11
2.27263e-09
1.65073e-08
5.38002e-08
1.18198e-07
2.04809e-07
3.03561e-07
4.0445e-07
5.00432e-07
5.87881e-07
6.65845e-07
7.35076e-07
7.97236e-07
8.54366e-07
9.08552e-07
9.61737e-07
1.01563e-06
1.07168e-06
1.13105e-06
1.19464e-06
1.2631e-06
1.33688e-06
1.41617e-06
1.50103e-06
1.59133e-06
1.68683e-06
1.78721e-06
1.89218e-06
2.00153e-06
2.11526e-06
2.23363e-06
2.35732e-06
2.48738e-06
2.62522e-06
2.77249e-06
2.93064e-06
3.10168e-06
3.28627e-06
3.48451e-06
3.69567e-06
3.91967e-06
4.15166e-06
4.38898e-06
4.62837e-06
4.86546e-06
5.09521e-06
5.31204e-06
5.50996e-06
5.68275e-06
5.82431e-06
5.92888e-06
5.99136e-06
6.0075e-06
5.97405e-06
5.87823e-06
5.73019e-06
5.55435e-06
5.31278e-06
5.01944e-06
4.67917e-06
4.29947e-06
3.8876e-06
3.43827e-06
2.9768e-06
2.52108e-06
2.08369e-06
1.67708e-06
1.30938e-06
9.83821e-07
7.00406e-07
4.58393e-07
2.58572e-07
1.04201e-07
1.86578e-08
1.28362e-10
1.46129e-11
2.44979e-09
1.78111e-08
5.80936e-08
1.27636e-07
2.21004e-07
3.27106e-07
4.35032e-07
5.37204e-07
6.29828e-07
7.1202e-07
7.84713e-07
8.49793e-07
9.0951e-07
9.66129e-07
1.02173e-06
1.07814e-06
1.13685e-06
1.19907e-06
1.26572e-06
1.33744e-06
1.41464e-06
1.49752e-06
1.58607e-06
1.68013e-06
1.77943e-06
1.88365e-06
1.99252e-06
2.1059e-06
2.22391e-06
2.34699e-06
2.47604e-06
2.61238e-06
2.75772e-06
2.91402e-06
3.08274e-06
3.2661e-06
3.46474e-06
3.67869e-06
3.90845e-06
4.15048e-06
4.40196e-06
4.6603e-06
4.92143e-06
5.18051e-06
5.43195e-06
5.66954e-06
5.88663e-06
6.07638e-06
6.2321e-06
6.34758e-06
6.41736e-06
6.43698e-06
6.40312e-06
6.30399e-06
6.14579e-06
5.95642e-06
5.70041e-06
5.38784e-06
5.02441e-06
4.61953e-06
4.17984e-06
3.69571e-06
3.19664e-06
2.70159e-06
2.22552e-06
1.78333e-06
1.38531e-06
1.03576e-06
7.34342e-07
4.79086e-07
2.69702e-07
1.08844e-07
1.9567e-08
1.35538e-10
1.5723e-11
2.63717e-09
1.91911e-08
6.26362e-08
1.376e-07
2.38039e-07
3.5176e-07
4.66892e-07
5.75324e-07
6.73112e-07
7.59465e-07
8.35529e-07
9.03426e-07
9.65629e-07
1.02459e-06
1.08252e-06
1.14135e-06
1.20263e-06
1.26761e-06
1.3372e-06
1.41205e-06
1.49254e-06
1.57883e-06
1.67089e-06
1.76851e-06
1.87142e-06
1.97931e-06
2.09195e-06
2.20929e-06
2.33161e-06
2.45956e-06
2.59428e-06
2.73737e-06
2.89078e-06
3.05656e-06
3.23711e-06
3.43382e-06
3.64761e-06
3.87952e-06
4.12754e-06
4.38889e-06
4.66166e-06
4.9423e-06
5.22635e-06
5.50847e-06
5.78248e-06
6.0415e-06
6.27822e-06
6.4852e-06
6.65521e-06
6.78163e-06
6.85866e-06
6.88164e-06
6.84716e-06
6.74557e-06
6.57794e-06
6.37345e-06
6.10357e-06
5.77216e-06
5.38601e-06
4.955e-06
4.48833e-06
3.97092e-06
3.43326e-06
2.89736e-06
2.3802e-06
1.89939e-06
1.46786e-06
1.09156e-06
7.70226e-07
5.00639e-07
2.81135e-07
1.1358e-07
2.0487e-08
1.42876e-10
1.68963e-11
2.83534e-09
2.06518e-08
6.74425e-08
1.48118e-07
2.55956e-07
3.77565e-07
5.00071e-07
6.14822e-07
7.17748e-07
8.08184e-07
8.87511e-07
9.58109e-07
1.02268e-06
1.08387e-06
1.14404e-06
1.20519e-06
1.26894e-06
1.33656e-06
1.40897e-06
1.48681e-06
1.57043e-06
1.65996e-06
1.75533e-06
1.85634e-06
1.96269e-06
2.07411e-06
2.19044e-06
2.31175e-06
2.43849e-06
2.57154e-06
2.71232e-06
2.86269e-06
3.02488e-06
3.20125e-06
3.3942e-06
3.60522e-06
3.83602e-06
4.08598e-06
4.35278e-06
4.63518e-06
4.93027e-06
5.23417e-06
5.54197e-06
5.84778e-06
6.14479e-06
6.42549e-06
6.68194e-06
6.90612e-06
7.09032e-06
7.22752e-06
7.31167e-06
7.33791e-06
7.30269e-06
7.19934e-06
7.02283e-06
6.80243e-06
6.51906e-06
6.16939e-06
5.76136e-06
5.30328e-06
4.81023e-06
4.26214e-06
3.68564e-06
3.10798e-06
2.54788e-06
2.02576e-06
1.55762e-06
1.15168e-06
8.08308e-07
5.23149e-07
2.92902e-07
1.18414e-07
2.14166e-08
1.50365e-10
1.81365e-11
3.04491e-09
2.21978e-08
7.25277e-08
1.5922e-07
2.74794e-07
4.04566e-07
5.34606e-07
6.55722e-07
7.63746e-07
8.5817e-07
9.40637e-07
1.01381e-06
1.08063e-06
1.14393e-06
1.20621e-06
1.26957e-06
1.33567e-06
1.40581e-06
1.48091e-06
1.56159e-06
1.64817e-06
1.74077e-06
1.8393e-06
1.94352e-06
2.05318e-06
2.16804e-06
2.28803e-06
2.41338e-06
2.54473e-06
2.6832e-06
2.83048e-06
2.98873e-06
3.1604e-06
3.3481e-06
3.5543e-06
3.78127e-06
4.02943e-06
4.29736e-06
4.58456e-06
4.88882e-06
5.20695e-06
5.53468e-06
5.86664e-06
6.19635e-06
6.51641e-06
6.81866e-06
7.09459e-06
7.33566e-06
7.53375e-06
7.6815e-06
7.77261e-06
7.80204e-06
7.76607e-06
7.66122e-06
7.4767e-06
7.24015e-06
6.94348e-06
6.5762e-06
6.14709e-06
5.66222e-06
5.14245e-06
4.56694e-06
3.95224e-06
3.33262e-06
2.72836e-06
2.1627e-06
1.65506e-06
1.21656e-06
8.48848e-07
5.46723e-07
3.05032e-07
1.23349e-07
2.23549e-08
1.57992e-10
1.9447e-11
3.26652e-09
2.38341e-08
7.79073e-08
1.70937e-07
2.94595e-07
4.32803e-07
5.70527e-07
6.9804e-07
8.11104e-07
9.09404e-07
9.94875e-07
1.07047e-06
1.13941e-06
1.20469e-06
1.26897e-06
1.33441e-06
1.40275e-06
1.47528e-06
1.55293e-06
1.63629e-06
1.72569e-06
1.82119e-06
1.92271e-06
2.03002e-06
2.14289e-06
2.26115e-06
2.38484e-06
2.51437e-06
2.65056e-06
2.79484e-06
2.94914e-06
3.11588e-06
3.2977e-06
3.49752e-06
3.71843e-06
3.96161e-06
4.22675e-06
4.51411e-06
4.82232e-06
5.14893e-06
5.49046e-06
5.84222e-06
6.19832e-06
6.55173e-06
6.89445e-06
7.21777e-06
7.51264e-06
7.77008e-06
7.98161e-06
8.13959e-06
8.2375e-06
8.2702e-06
8.23397e-06
8.12657e-06
7.93573e-06
7.68331e-06
7.37337e-06
6.98915e-06
6.53951e-06
6.02984e-06
5.48181e-06
4.88225e-06
4.23111e-06
3.57002e-06
2.92104e-06
2.31016e-06
1.76047e-06
1.28657e-06
8.92108e-07
5.71472e-07
3.17558e-07
1.28389e-07
2.33008e-08
1.65742e-10
2.08318e-11
3.50085e-09
2.55658e-08
8.35978e-08
1.83297e-07
3.15396e-07
4.62314e-07
6.07861e-07
7.41784e-07
8.59812e-07
9.61858e-07
1.05018e-06
1.12806e-06
1.19895e-06
1.26608e-06
1.33223e-06
1.39964e-06
1.47008e-06
1.54487e-06
1.62493e-06
1.71083e-06
1.80289e-06
1.90116e-06
2.00554e-06
2.11584e-06
2.23186e-06
2.35353e-06
2.48103e-06
2.61492e-06
2.75628e-06
2.90678e-06
3.06863e-06
3.24453e-06
3.43741e-06
3.65042e-06
3.88608e-06
4.14514e-06
4.42852e-06
4.73574e-06
5.06525e-06
5.41437e-06
5.77927e-06
6.15481e-06
6.53463e-06
6.91113e-06
7.27578e-06
7.61935e-06
7.93236e-06
8.20547e-06
8.42988e-06
8.59771e-06
8.70228e-06
8.73831e-06
8.70211e-06
8.5917e-06
8.3961e-06
8.12867e-06
7.80524e-06
7.40493e-06
6.93587e-06
6.40316e-06
5.82533e-06
5.20433e-06
4.51992e-06
3.81849e-06
3.12498e-06
2.46784e-06
1.87399e-06
1.36201e-06
9.38331e-07
5.97511e-07
3.30511e-07
1.33533e-07
2.42528e-08
1.73595e-10
2.2295e-11
3.7486e-09
2.73984e-08
8.9616e-08
1.96332e-07
3.37237e-07
4.93131e-07
6.46626e-07
7.86955e-07
9.09849e-07
1.01549e-06
1.1065e-06
1.18649e-06
1.25919e-06
1.32804e-06
1.39592e-06
1.46517e-06
1.53759e-06
1.61451e-06
1.69684e-06
1.78515e-06
1.87973e-06
1.98065e-06
2.0878e-06
2.20103e-06
2.32021e-06
2.44536e-06
2.5768e-06
2.71531e-06
2.8622e-06
3.01936e-06
3.18931e-06
3.37496e-06
3.57955e-06
3.80599e-06
4.05643e-06
4.3324e-06
4.63429e-06
4.9615e-06
5.3123e-06
5.68372e-06
6.07156e-06
6.47026e-06
6.87295e-06
7.27156e-06
7.65706e-06
8.0198e-06
8.34994e-06
8.63784e-06
8.87449e-06
9.05177e-06
9.16285e-06
9.20228e-06
9.16629e-06
9.05285e-06
8.85388e-06
8.57315e-06
8.23562e-06
7.82019e-06
7.33299e-06
6.77932e-06
6.17099e-06
5.52872e-06
4.81608e-06
4.07599e-06
3.33886e-06
2.6351e-06
1.9955e-06