/*--------------------------------*- C++ -*----------------------------------*\
  =========                 |
  \\      /  F ield         | OpenFOAM: The Open Source CFD Toolbox
   \\    /   O peration     | Website:  https://openfoam.org
    \\  /    A nd           | Version:  12
     \\/     M anipulation  |
\*---------------------------------------------------------------------------*/
FoamFile
{
    format      ascii;
    class       volScalarField;
    location    "7";
    object      p;
}
// * * * * * * * * * * * * * * * * * * * * * * * * * * * * * * * * * * * * * //

dimensions      [0 2 -2 0 0 0 0];

internalField   nonuniform List<scalar> 
5625
(
1.83922e-08
3.4103e-05
6.37512e-05
7.31861e-05
5.58807e-05
9.78605e-06
-6.47004e-05
-0.000166073
-0.00029241
-0.000441768
-0.00061242
-0.000802996
-0.00101255
-0.0012406
-0.00148714
-0.00175261
-0.00203794
-0.00234447
-0.00267396
-0.00302851
-0.00341058
-0.00382292
-0.00426851
-0.00475053
-0.00527224
-0.00583693
-0.00644778
-0.00710769
-0.00781911
-0.00858379
-0.00940253
-0.0102747
-0.0111981
-0.0121682
-0.0131775
-0.0142153
-0.0152669
-0.0163129
-0.0173284
-0.0182829
-0.0191397
-0.0198559
-0.0203823
-0.0206642
-0.0206427
-0.0202556
-0.0194406
-0.0181371
-0.0162904
-0.0138556
-0.0108013
-0.00711404
-0.00281881
0.00204369
0.00742822
0.0132163
0.0192535
0.0253792
0.0314
0.0371109
0.0423089
0.0468106
0.0504704
0.0531968
0.054964
0.0558162
0.0558634
0.0552678
0.0542249
0.0529417
0.0516168
0.050428
0.0495237
0.049027
0.0489374
-7.29407e-06
2.18699e-05
4.55533e-05
5.02932e-05
3.03711e-05
-1.64828e-05
-9.02647e-05
-0.000189855
-0.000313653
-0.000459968
-0.000627255
-0.000814261
-0.00102011
-0.00124434
-0.00148696
-0.00174833
-0.00202934
-0.00233122
-0.00265562
-0.00300451
-0.0033802
-0.00378528
-0.00422255
-0.00469498
-0.00520568
-0.00575773
-0.00635406
-0.0069974
-0.00769004
-0.00843357
-0.00922865
-0.0100747
-0.0109693
-0.0119082
-0.0128841
-0.0138867
-0.0149018
-0.0159105
-0.0168891
-0.017808
-0.0186318
-0.0193189
-0.0198218
-0.0200874
-0.0200584
-0.0196745
-0.0188746
-0.0175998
-0.0157964
-0.0134204
-0.0104406
-0.00684284
-0.00265636
0.00208755
0.00735366
0.0130012
0.0188987
0.0248876
0.0307799
0.0363763
0.0414804
0.0459147
0.0495383
0.0522631
0.0540643
0.0549848
0.0551304
0.0546568
0.0537507
0.0526091
0.0514187
0.0503467
0.0495275
0.0490751
0.0489937
-1.89858e-05
8.40882e-06
2.75126e-05
2.7952e-05
5.46725e-06
-4.22007e-05
-0.000115318
-0.000213093
-0.00033423
-0.000477279
-0.000640878
-0.000823899
-0.00102554
-0.00124536
-0.00148334
-0.00173984
-0.00201561
-0.00231182
-0.00262998
-0.00297192
-0.00333977
-0.00373594
-0.00416307
-0.00462393
-0.00512136
-0.00565824
-0.00623736
-0.00686121
-0.00753191
-0.00825095
-0.00901893
-0.00983523
-0.0106977
-0.0116021
-0.0125416
-0.0135066
-0.0144833
-0.0154541
-0.0163961
-0.0172812
-0.0180754
-0.0187387
-0.0192252
-0.0194837
-0.0194584
-0.0190904
-0.01832
-0.0170893
-0.0153453
-0.0130439
-0.0101539
-0.0066605
-0.00259472
0.00203205
0.00716851
0.0126746
0.0184378
0.0242985
0.0300737
0.0355697
0.0405947
0.0449755
0.0485746
0.0513056
0.0531444
0.0541324
0.0543721
0.0540139
0.0532373
0.0522303
0.0511699
0.0502098
0.0494721
0.0490613
0.0489851
-3.16664e-05
-2.8122e-06
1.45191e-05
1.22839e-05
-1.2024e-05
-6.03546e-05
-0.000133007
-0.000229353
-0.000348287
-0.000488533
-0.000648861
-0.00082824
-0.00102592
-0.00124148
-0.0014749
-0.00172648
-0.0019969
-0.00228724
-0.00259889
-0.00293355
-0.00329323
-0.00368017
-0.00409682
-0.00454577
-0.00502973
-0.00555138
-0.00611334
-0.00671802
-0.00736744
-0.00806306
-0.00880552
-0.00959436
-0.0104277
-0.0113016
-0.01221
-0.0131437
-0.0140901
-0.0150324
-0.0159492
-0.0168136
-0.017593
-0.018249
-0.0187371
-0.0190072
-0.0190046
-0.0186714
-0.0179482
-0.0167771
-0.0151046
-0.0128861
-0.0100889
-0.00669788
-0.00273552
0.00179185
0.00681339
0.0122174
0.0178865
0.0236634
0.0293691
0.0348121
0.0398023
0.0441673
0.0477696
0.0505223
0.0524
0.0534429
0.0537515
0.0534741
0.0527867
0.0518725
0.0509022
0.0500195
0.0493376
0.0489529
0.0488731
-4.25489e-05
-1.08067e-05
6.43427e-06
2.65865e-06
-2.29182e-05
-7.17881e-05
-0.000144126
-0.000239346
-0.000356442
-0.00049425
-0.000651632
-0.000827629
-0.00102153
-0.00123293
-0.00146177
-0.00170835
-0.00197326
-0.00225748
-0.00256234
-0.00288939
-0.00324052
-0.00361783
-0.00402361
-0.00446031
-0.0049305
-0.00543676
-0.00598161
-0.00656739
-0.00719612
-0.00786935
-0.00858788
-0.00935154
-0.0101588
-0.0110065
-0.0118891
-0.0127985
-0.0137231
-0.0146473
-0.0155511
-0.016409
-0.0171899
-0.0178565
-0.0183655
-0.0186676
-0.0187087
-0.0184307
-0.0177741
-0.01668
-0.0150935
-0.012968
-0.010269
-0.00697908
-0.00311136
0.00132067
0.00625077
0.0115789
0.017185
0.0229145
0.0285902
0.0340211
0.0390164
0.0434017
0.047037
0.0498322
0.0517591
0.0528556
0.0532212
0.0530034
0.0523777
0.0515255
0.0506137
0.0497811
0.0491322
0.0487569
0.0486608
-4.97382e-05
-1.48085e-05
3.06494e-06
-1.63896e-06
-2.81701e-05
-7.7524e-05
-0.000149672
-0.000243989
-0.00035951
-0.000495135
-0.000649794
-0.000822568
-0.00101277
-0.00122003
-0.00144423
-0.00168565
-0.00194483
-0.00222268
-0.00252039
-0.00283945
-0.0031816
-0.00354882
-0.00394327
-0.00436732
-0.00482341
-0.00531405
-0.00584172
-0.00640878
-0.00701736
-0.00766918
-0.00836535
-0.00910614
-0.00989067
-0.0107165
-0.0115791
-0.0124714
-0.0133833
-0.0143005
-0.0152045
-0.0160712
-0.0168708
-0.0175672
-0.0181177
-0.0184735
-0.0185803
-0.0183794
-0.01781
-0.0168114
-0.0153267
-0.0133067
-0.010714
-0.00752815
-0.00375533
0.000587369
0.00544022
0.0107091
0.0162744
0.0219835
0.02766
0.0331122
0.0381472
0.0425868
0.0462861
0.0491498
0.0511447
0.0523052
0.0527291
0.0525638
0.0519856
0.0511764
0.0503023
0.0494988
0.0488647
0.0484834
0.0483577
-5.18955e-05
-1.4037e-05
4.65925e-06
-6.83031e-07
-2.80205e-05
-7.78691e-05
-0.000149958
-0.000243576
-0.000357751
-0.000491411
-0.000643534
-0.000813219
-0.000999812
-0.00120291
-0.00142242
-0.00165855
-0.00191181
-0.00218302
-0.00247329
-0.00278399
-0.00311679
-0.00347354
-0.00385633
-0.00426742
-0.0047092
-0.00518416
-0.00569481
-0.00624361
-0.00683289
-0.00746468
-0.00814057
-0.00886147
-0.00962728
-0.0104366
-0.0112861
-0.0121701
-0.0130799
-0.014003
-0.0149222
-0.015815
-0.0166526
-0.0173998
-0.0180143
-0.018447
-0.0186427
-0.0185415
-0.0180803
-0.0171963
-0.0158298
-0.0139282
-0.0114509
-0.00837408
-0.00469824
-0.00044068
0.00434369
0.00956568
0.0151072
0.0208177
0.0265211
0.0320244
0.0371315
0.0416592
0.0454557
0.0484182
0.0505067
0.0517501
0.052243
0.0521325
0.0515965
0.050819
0.0499673
0.0491759
0.0485409
0.0481393
0.0479718
-4.80469e-05
-7.83592e-06
1.15424e-05
5.62396e-06
-2.25051e-05
-7.29226e-05
-0.000145106
-0.000238225
-0.00035127
-0.000483173
-0.000632928
-0.000799655
-0.000982709
-0.00118168
-0.00139645
-0.0016272
-0.00187437
-0.00213872
-0.00242129
-0.00272338
-0.00304654
-0.00339257
-0.00376347
-0.00416147
-0.00458893
-0.00504838
-0.00554245
-0.00607381
-0.0066451
-0.00725883
-0.00791724
-0.00862205
-0.00937423
-0.0101736
-0.0110183
-0.0119044
-0.0128247
-0.0137684
-0.01472
-0.0156581
-0.0165551
-0.017376
-0.0180784
-0.0186122
-0.0189207
-0.0189419
-0.0186102
-0.0178595
-0.0166269
-0.0148565
-0.0125039
-0.00954192
-0.00596597
-0.00179193
0.00292942
0.00811356
0.0136448
0.0193745
0.0251272
0.0307086
0.0359187
0.0405682
0.044497
0.0475927
0.0498059
0.0511577
0.0517378
0.051692
0.0511997
0.0504482
0.0496079
0.048815
0.0481653
0.0477306
0.0475108
-3.75018e-05
4.28836e-06
2.3976e-05
1.73634e-05
-1.16573e-05
-6.27778e-05
-0.000135231
-0.000228053
-0.000340178
-0.000470518
-0.000618064
-0.000781962
-0.000961551
-0.00115642
-0.00136642
-0.0015917
-0.00183266
-0.00209
-0.00236469
-0.00265797
-0.00297131
-0.00330646
-0.00366539
-0.00405031
-0.00446364
-0.00490801
-0.00538626
-0.00590138
-0.00645649
-0.00705472
-0.00769917
-0.00839262
-0.00913733
-0.00993464
-0.0107844
-0.0116844
-0.0126295
-0.0136105
-0.0146133
-0.0156179
-0.0165971
-0.0175157
-0.0183305
-0.0189899
-0.0194351
-0.019601
-0.0194189
-0.0188193
-0.0177358
-0.0161087
-0.0138903
-0.0110494
-0.00757741
-0.00348769
0.0011731
0.00632503
0.0118555
0.0176184
0.0234392
0.0291226
0.0344647
0.0392693
0.0433667
0.0466328
0.0490064
0.0504979
0.0511901
0.0512253
0.0507843
0.0500584
0.0492229
0.0484179
0.0477417
0.0472624
0.0469816
-1.97885e-05
2.2693e-05
4.21578e-05
3.45921e-05
4.48427e-06
-4.75262e-05
-0.000120446
-0.000213177
-0.000324581
-0.000453542
-0.000599041
-0.000760222
-0.000936419
-0.00112721
-0.00133244
-0.0015522
-0.00178686
-0.00203708
-0.00230377
-0.00258811
-0.00289153
-0.00321576
-0.00356276
-0.00393478
-0.00433437
-0.00476436
-0.00522787
-0.00572838
-0.0062696
-0.00685553
-0.00749031
-0.00817804
-0.00892253
-0.00972689
-0.0105929
-0.0115204
-0.012506
-0.0135425
-0.014617
-0.0157103
-0.0167952
-0.017836
-0.0187879
-0.019597
-0.0202015
-0.0205331
-0.0205195
-0.0200874
-0.0191668
-0.0176946
-0.0156195
-0.0129069
-0.00954416
-0.00554178
-0.000942098
0.00417974
0.00971497
0.0155209
0.0214248
0.0272309
0.0327317
0.0377236
0.0420263
0.0455022
0.0480754
0.049743
0.0505775
0.0507162
0.0503398
0.0496439
0.0488103
0.0479853
0.0472729
0.0467385
0.0463907
5.39574e-06
4.76243e-05
6.62313e-05
5.73508e-05
2.58851e-05
-2.72459e-05
-0.000100849
-0.000193695
-0.000304571
-0.000432327
-0.000575927
-0.000734503
-0.000907387
-0.00109415
-0.0012946
-0.00150882
-0.00173714
-0.00198017
-0.00223879
-0.00251414
-0.00280764
-0.00312101
-0.00345626
-0.00381575
-0.00420221
-0.00461876
-0.00506897
-0.00555689
-0.00608707
-0.00666453
-0.00729471
-0.00798327
-0.00873586
-0.00955756
-0.0104523
-0.011422
-0.0124654
-0.0135768
-0.0147443
-0.0159492
-0.0171638
-0.018351
-0.0194638
-0.0204453
-0.0212304
-0.0217468
-0.0219185
-0.0216686
-0.0209235
-0.0196169
-0.0176942
-0.0151175
-0.0118707
-0.00796084
-0.00342574
0.00166469
0.0072064
0.0130611
0.019059
0.0250047
0.0306877
0.0358974
0.0404417
0.0441679
0.0469829
0.048867
0.0498793
0.0501491
0.0498556
0.0491985
0.0483673
0.0475173
0.0467607
0.0461629
0.0457422
3.8228e-05
7.92394e-05
9.62918e-05
8.56613e-05
5.25109e-05
-2.00487e-06
-7.65235e-05
-0.000169692
-0.00028023
-0.000406945
-0.000548784
-0.000704868
-0.000874521
-0.0010573
-0.001253
-0.00146168
-0.00168365
-0.00191948
-0.00217002
-0.0024364
-0.00272006
-0.00302274
-0.00334657
-0.00369407
-0.00406824
-0.00447259
-0.00491126
-0.00538907
-0.00591156
-0.00648502
-0.00711643
-0.00781329
-0.00858326
-0.00943371
-0.0103708
-0.0113988
-0.0125181
-0.0137244
-0.0150069
-0.0163463
-0.017714
-0.0190709
-0.0203668
-0.0215417
-0.0225262
-0.0232443
-0.0236161
-0.0235612
-0.0230027
-0.0218714
-0.0201101
-0.0176776
-0.0145546
-0.0107445
-0.00628026
-0.0012259
0.00432016
0.0102252
0.0163236
0.0224216
0.0283069
0.033762
0.0385829
0.0426002
0.0457009
0.0478452
0.049075
0.0495084
0.0493208
0.0487155
0.0478909
0.0470133
0.0462062
0.0455379
0.0450394
7.87877e-05
0.00011762
0.000132387
0.000119523
8.4321e-05
2.81321e-05
-4.75443e-05
-0.000141245
-0.000251626
-0.00037746
-0.000517672
-0.000671374
-0.000837882
-0.00101674
-0.00120774
-0.00141091
-0.00162655
-0.0018552
-0.00209771
-0.00235522
-0.00262921
-0.0029215
-0.00323437
-0.00357059
-0.00393351
-0.00432717
-0.00475642
-0.00522702
-0.0057457
-0.00632026
-0.00695947
-0.00767287
-0.00847045
-0.00936195
-0.010356
-0.0114588
-0.0126728
-0.0139947
-0.0154138
-0.0169101
-0.0184533
-0.0200013
-0.0215008
-0.0228874
-0.0240879
-0.025022
-0.0256063
-0.0257571
-0.0253949
-0.0244481
-0.0228568
-0.0205771
-0.0175869
-0.0138856
-0.00950092
-0.00449038
0.0010542
0.00700691
0.0132077
0.0194662
0.0255694
0.0312939
0.0364239
0.040772
0.0442031
0.0466538
0.0481446
0.0487785
0.0487244
0.048188
0.0473772
0.0464719
0.0456096
0.0448652
0.0442844
0.000127081
0.000162786
0.000174522
0.000158909
0.000121262
6.30978e-05
-1.39859e-05
-0.000108427
-0.000218828
-0.000343932
-0.000482647
-0.000634076
-0.000797531
-0.000972549
-0.0011589
-0.00135662
-0.00156597
-0.00178752
-0.00202211
-0.00227092
-0.00253548
-0.00281778
-0.0031203
-0.00344612
-0.00379906
-0.00418381
-0.00460609
-0.00507278
-0.00559203
-0.00617336
-0.00682757
-0.00756651
-0.00840264
-0.00934824
-0.0104144
-0.0116093
-0.0129369
-0.0143946
-0.0159713
-0.0176457
-0.0193849
-0.0211436
-0.0228643
-0.0244785
-0.0259085
-0.0270704
-0.0278772
-0.0282426
-0.0280849
-0.0273307
-0.0259181
-0.0237999
-0.0209521
-0.0173699
-0.0130758
-0.00811951
-0.00258566
0.00340787
0.00970831
0.0161303
0.0224618
0.028475
0.0339426
0.038659
0.0424648
0.0452695
0.0470679
0.0479434
0.0480547
0.0476083
0.046822
0.0458913
0.0449705
0.0441461
0.0434782
0.000183053
0.000214702
0.00022266
0.000203766
0.000163265
0.000102817
2.40739e-05
-7.1311e-05
-0.000181904
-0.000306424
-0.000443769
-0.000593035
-0.00075353
-0.000924788
-0.00110658
-0.00129892
-0.00150208
-0.00171663
-0.00194345
-0.00218378
-0.00243927
-0.00271207
-0.00300496
-0.00332142
-0.00366586
-0.00404374
-0.00446181
-0.00492827
-0.0054529
-0.00604719
-0.00672417
-0.00749822
-0.00838441
-0.00939764
-0.0105513
-0.0118556
-0.0133154
-0.0149285
-0.0166827
-0.0185546
-0.0205083
-0.0224945
-0.0244514
-0.026306
-0.0279763
-0.029375
-0.030412
-0.0309988
-0.0310524
-0.030498
-0.0292722
-0.0273236
-0.0246282
-0.0211772
-0.0169856
-0.0120961
-0.00658532
-0.000561735
0.00583074
0.0124136
0.018978
0.0252933
0.0311221
0.0362405
0.0404633
0.0436699
0.0458247
0.0469864
0.0472993
0.0469682
0.0462205
0.0452691
0.0442882
0.0433808
0.0426209
0.000246603
0.000273288
0.000276725
0.000254012
0.000210245
0.000147198
6.65467e-05
-2.99802e-05
-0.000140929
-0.000265005
-0.000401101
-0.000548314
-0.00070595
-0.000873542
-0.00105086
-0.00123792
-0.001435
-0.00164271
-0.00186196
-0.00209409
-0.00234091
-0.00260481
-0.00288891
-0.0031972
-0.00353479
-0.00390807
-0.00432497
-0.00479521
-0.00533043
-0.00594428
-0.00665225
-0.00747139
-0.00841951
-0.00951409
-0.0107707
-0.0122013
-0.0138113
-0.015598
-0.0175479
-0.0196347
-0.0218188
-0.0240465
-0.0262515
-0.0283562
-0.0302748
-0.0319165
-0.033189
-0.0340024
-0.0342724
-0.0339236
-0.0328905
-0.0311199
-0.0285876
-0.0252814
-0.0212033
-0.0163951
-0.0109222
-0.00488291
0.00158934
0.0083249
0.0151202
0.0217443
0.0279514
0.0335002
0.0381789
0.0418338
0.0443949
0.0458904
0.0464453
0.0462588
0.0455673
0.0446027
0.0435623
0.042569
0.0417121
0.000317588
0.00033842
0.000336601
0.000309538
0.000262108
0.00019611
0.000113328
1.54712e-05
-9.5989e-05
-0.000219755
-0.000354722
-0.000499991
-0.000654871
-0.0008189
-0.000991847
-0.00117374
-0.00136489
-0.00156592
-0.00177784
-0.0020021
-0.00224072
-0.00249638
-0.00277264
-0.00307409
-0.00340664
-0.00377777
-0.00419679
-0.00467511
-0.00522642
-0.00586674
-0.00661423
-0.00748868
-0.00851069
-0.00970027
-0.011075
-0.012648
-0.0144249
-0.0164021
-0.0185636
-0.0208801
-0.0233076
-0.0257879
-0.0282498
-0.0306114
-0.0327833
-0.0346719
-0.036183
-0.0372257
-0.0377154
-0.0375747
-0.0367343
-0.0351547
-0.032797
-0.0296438
-0.0256938
-0.0209833
-0.0155653
-0.00952771
-0.00299232
0.00388204
0.0108995
0.0178315
0.0244264
0.0304269
0.0355951
0.0397422
0.0427591
0.0446382
0.0454789
0.0454707
0.0448568
0.0438891
0.0427916
0.0417096
0.0407516
0.000395827
0.000409933
0.000402138
0.000370201
0.000318706
0.000249427
0.000164298
6.49304e-05
-4.71899e-05
-0.000170774
-0.000304728
-0.00044816
-0.000600392
-0.000760963
-0.000929655
-0.00110651
-0.00129187
-0.00148643
-0.00169128
-0.00190804
-0.00213898
-0.00238713
-0.00265656
-0.00295259
-0.00328205
-0.00365365
-0.00407825
-0.00456914
-0.00514227
-0.00581619
-0.00661182
-0.00755185
-0.0086596
-0.00995743
-0.0114647
-0.0131951
-0.0151542
-0.0173366
-0.0197236
-0.0222819
-0.0249629
-0.0277036
-0.0304281
-0.0330504
-0.035478
-0.0376147
-0.0393653
-0.0406381
-0.0413479
-0.0414152
-0.0407784
-0.0393958
-0.0372173
-0.034225
-0.0304191
-0.0258209
-0.0204758
-0.0144596
-0.00788146
-0.000887565
0.00633656
0.0135675
0.0205509
0.0270164
0.0327007
0.0373789
0.0408995
0.043213
0.0443864
0.044594
0.044083
0.0431254
0.0419748
0.0408022
0.0397389
0.000481104
0.000487623
0.000473141
0.000435809
0.000379838
0.000307023
0.000219311
0.00011826
5.33993e-06
-0.000118183
-0.000251235
-0.00039294
-0.000542628
-0.000699853
-0.000864408
-0.00103636
-0.0012161
-0.00140438
-0.00160244
-0.0018121
-0.00203589
-0.00227731
-0.002541
-0.0028331
-0.00316151
-0.00353631
-0.00397006
-0.00447816
-0.00507892
-0.00579361
-0.00664603
-0.00766172
-0.00886664
-0.0102853
-0.0119384
-0.01384
-0.0159947
-0.0183948
-0.0210184
-0.0238276
-0.0267692
-0.0297752
-0.0327652
-0.0356494
-0.0383322
-0.0407161
-0.0427047
-0.0442062
-0.0451348
-0.045415
-0.0449908
-0.0438022
-0.0418072
-0.0389851
-0.0353327
-0.0308616
-0.0256076
-0.0196342
-0.0130368
-0.00594731
0.00146132
0.0089741
0.0163377
0.0232717
0.0294901
0.034732
0.0388004
0.0415985
0.0431538
0.0436186
0.0432395
0.0423085
0.0411107
0.0398462
0.0386739
0.000573164
0.000571243
0.000549373
0.000506137
0.000445307
0.000368704
0.000278188
0.000175293
6.1442e-05
-6.21348e-05
-0.000194392
-0.000334472
-0.000481723
-0.00063571
-0.000796246
-0.000963431
-0.0011377
-0.00131993
-0.00151148
-0.00171442
-0.00193163
-0.0021671
-0.00242617
-0.00271586
-0.0030453
-0.00342608
-0.00387264
-0.00440259
-0.00503681
-0.00579937
-0.00671698
-0.00781802
-0.00913094
-0.0106821
-0.0124932
-0.0145779
-0.0169395
-0.0195675
-0.0224359
-0.0255025
-0.0287088
-0.0319821
-0.0352375
-0.0383819
-0.0413173
-0.0439449
-0.0461681
-0.0478954
-0.0490425
-0.0495363
-0.0493155
-0.0483216
-0.046516
-0.0438733
-0.0403844
-0.0360543
-0.0309093
-0.0250007
-0.0184095
-0.0112523
-0.00368709
0.00408268
0.0118086
0.0192046
0.0259651
0.0317948
0.0364496
0.0397805
0.041768
0.0425344
0.0423202
0.0414352
0.0401984
0.0388417
0.0375568
0.000671713
0.000660505
0.000630553
0.000580924
0.000514876
0.000434223
0.000340709
0.000235824
0.000120922
-2.81549e-06
-0.000134378
-0.000272935
-0.000417849
-0.000568702
-0.000725329
-0.000887869
-0.00105683
-0.00123319
-0.00141851
-0.00161511
-0.0018263
-0.0020566
-0.00231213
-0.00260096
-0.00293352
-0.00332306
-0.00378604
-0.00434243
-0.00501581
-0.0058331
-0.00682394
-0.00801944
-0.00945032
-0.0111445
-0.013124
-0.015402
-0.0179796
-0.020843
-0.023962
-0.0272893
-0.0307617
-0.0343013
-0.0378196
-0.0412201
-0.0444032
-0.047269
-0.049721
-0.0516686
-0.0530291
-0.05373
-0.0537093
-0.0529117
-0.0512976
-0.0488389
-0.0455214
-0.0413444
-0.0363252
-0.0305031
-0.0239448
-0.0167505
-0.00906151
-0.00106664
0.0069946
0.0148354
0.022135
0.0285667
0.0338392
0.0377472
0.0402167
0.0413315
0.0413189
0.0405028
0.0392372
0.0377889
0.0363884
0.000776425
0.000755073
0.000716362
0.000659864
0.000588254
0.0005033
0.000406616
0.000299606
0.000183544
5.95471e-05
-7.14151e-05
-0.000208539
-0.000351208
-0.000499019
-0.000651835
-0.000809839
-0.000973619
-0.00114428
-0.00132361
-0.00151423
-0.00171989
-0.00194578
-0.00219885
-0.0024883
-0.00282601
-0.00322702
-0.00370993
-0.00429722
-0.00501519
-0.0058937
-0.00696525
-0.00826354
-0.00982129
-0.0116675
-0.0138244
-0.0163037
-0.019104
-0.0222077
-0.0255802
-0.0291692
-0.0329061
-0.0367088
-0.0404849
-0.0441354
-0.047559
-0.0506554
-0.0533286
-0.0554891
-0.0570556
-0.0579571
-0.0581322
-0.0575281
-0.0561044
-0.0538311
-0.0506905
-0.0466763
-0.0417977
-0.0360828
-0.0295839
-0.0223846
-0.0146082
-0.00642601
0.00193538
0.0101933
0.0180177
0.0250544
0.0309666
0.0354901
0.0384896
0.0400012
0.0402299
0.0395087
0.0382269
0.036689
0.0351702
0.000886926
0.000854554
0.000806422
0.000742591
0.000665094
0.000575609
0.000475598
0.000366345
0.000249023
0.000124679
-5.76692e-06
-0.00014154
-0.000282041
-0.000426887
-0.000575966
-0.000729512
-0.000888205
-0.00105331
-0.00122683
-0.00141176
-0.00161236
-0.00183451
-0.00208611
-0.00237759
-0.00272238
-0.00313743
-0.00364361
-0.00426595
-0.00503361
-0.00597932
-0.00713836
-0.00854681
-0.0102391
-0.012245
-0.0145862
-0.0172726
-0.0203
-0.0236466
-0.027273
-0.0311216
-0.0351193
-0.0391794
-0.0432062
-0.0470985
-0.0507537
-0.0540714
-0.0569563
-0.0593203
-0.061084
-0.0621779
-0.0625422
-0.062126
-0.0608889
-0.0588001
-0.0558389
-0.0519946
-0.0472691
-0.04168
-0.0352661
-0.0280942
-0.0202686
-0.0119413
-0.00332196
0.00531612
0.0136394
0.0212722
0.0278355
0.0330052
0.0365788
0.0385355
0.0390479
0.0384513
0.0371683
0.0355444
0.033904
0.00100277
0.000958522
0.000900297
0.000828685
0.000744993
0.000650771
0.000547291
0.00043569
0.000317023
0.000192254
6.22523e-05
-7.22366e-05
-0.00021063
-0.00035256
-0.000497943
-0.000647069
-0.000800721
-0.00096033
-0.00112817
-0.00130764
-0.00150354
-0.00172253
-0.00197355
-0.00226832
-0.00262196
-0.00305342
-0.00358593
-0.00424717
-0.00506911
-0.00608736
-0.00733982
-0.00886472
-0.0106979
-0.0128694
-0.0153998
-0.0182972
-0.0215536
-0.0251432
-0.0290213
-0.0331256
-0.0373779
-0.0416877
-0.0459563
-0.0500803
-0.0539566
-0.0574847
-0.0605704
-0.0631271
-0.0650774
-0.0663538
-0.0668985
-0.0666624
-0.065606
-0.0636983
-0.0609165
-0.0572464
-0.0526834
-0.0472362
-0.0409306
-0.0338174
-0.0259815
-0.0175538
-0.00872419
0.000248707
0.00903437
0.0172423
0.0244562
0.0302936
0.03448
0.0369287
0.0377689
0.0373291
0.0360628
0.034358
0.0325931
0.00112348
0.00106648
0.000997481
0.00091766
0.000827488
0.00072834
0.000621268
0.000507231
0.000387145
0.000261888
0.000132275
-9.76701e-07
-0.000137295
-0.000276326
-0.000418012
-0.000562703
-0.000711295
-0.000865406
-0.00102761
-0.00120172
-0.00139318
-0.00160947
-0.00186061
-0.00215978
-0.00252382
-0.00297379
-0.00353535
-0.00423886
-0.00511912
-0.00621448
-0.00756533
-0.00921178
-0.0111906
-0.0135319
-0.0162548
-0.0193646
-0.0228499
-0.0266801
-0.0308058
-0.0351594
-0.0396584
-0.0442085
-0.0487082
-0.0530528
-0.0571382
-0.0608646
-0.0641388
-0.066876
-0.0690011
-0.0704487
-0.0711632
-0.0710978
-0.0702142
-0.0684817
-0.0658767
-0.0623821
-0.0579883
-0.0526958
-0.0465191
-0.0394936
-0.0316851
-0.0232028
-0.0142138
-0.00495789
0.00424413
0.0129945
0.0208464
0.0273621
0.0321924
0.0351771
0.03639
0.0361422
0.0349126
0.0331336
0.0312422
0.00124851
0.00117787
0.00109741
0.00100896
0.000912044
0.000807805
0.000697037
0.000580489
0.000458929
0.000333136
0.000203874
7.18391e-05
-6.24047e-05
-0.000198509
-0.000336441
-0.000476614
-0.000620045
-0.000768557
-0.000925044
-0.0010938
-0.00128092
-0.00149478
-0.0017466
-0.00205103
-0.00242675
-0.002897
-0.00348992
-0.00423856
-0.00518049
-0.00635671
-0.00780986
-0.00958165
-0.0117096
-0.0142231
-0.0171396
-0.0204613
-0.0241731
-0.0282397
-0.0326065
-0.0372014
-0.0419374
-0.046717
-0.0514361
-0.0559886
-0.0602703
-0.0641819
-0.0676315
-0.0705362
-0.0728231
-0.0744295
-0.0753021
-0.0753964
-0.074676
-0.0731111
-0.0706779
-0.0673573
-0.063136
-0.0580076
-0.0519768
-0.0450647
-0.037319
-0.0288268
-0.019731
-0.0102483
-0.000683676
0.00856581
0.0170308
0.0242237
0.0297203
0.0332801
0.0349102
0.0348912
0.0337211
0.0318762
0.029857
0.00137725
0.00129203
0.00119944
0.00110197
0.000998052
0.000888577
0.000774026
0.000654913
0.00053184
0.000405485
0.000276563
0.000145755
1.36292e-05
-0.000119466
-0.00025352
-0.000389009
-0.000527078
-0.000669773
-0.000820338
-0.000983572
-0.00116628
-0.00137781
-0.00163061
-0.00194091
-0.00232928
-0.00282119
-0.00344729
-0.00424332
-0.00524953
-0.00650941
-0.00806766
-0.00996726
-0.012246
-0.0149325
-0.0180419
-0.021573
-0.025507
-0.0298038
-0.0344038
-0.0392304
-0.0441925
-0.0491894
-0.0541151
-0.0588623
-0.0633267
-0.0674098
-0.071021
-0.0740796
-0.0765149
-0.0782668
-0.0792848
-0.079527
-0.0789589
-0.0775523
-0.0752837
-0.0721332
-0.0680846
-0.0631264
-0.0572544
-0.0504775
-0.0428263
-0.0343664
-0.0252155
-0.0155645
-0.00569679
0.00399926
0.0130408
0.0208981
0.0270727
0.0312405
0.0333304
0.0335787
0.0324929
0.030592
0.028445
0.00150899
0.00140825
0.00130284
0.00119596
0.00108482
0.000969984
0.000851586
0.000729873
0.000605269
0.000478349
0.000349786
0.000220258
9.03456e-05
-3.95919e-05
-0.00016956
-0.000300098
-0.000432487
-0.000569013
-0.000713289
-0.000870663
-0.0010487
-0.00125775
-0.00151158
-0.00182803
-0.00222966
-0.00274419
-0.00340477
-0.00424978
-0.00532207
-0.00666746
-0.00833243
-0.010361
-0.0127908
-0.0156494
-0.0189492
-0.0226854
-0.0268355
-0.0313546
-0.0361784
-0.0412257
-0.0464018
-0.0516033
-0.056722
-0.0616502
-0.0662833
-0.0705238
-0.0742827
-0.0774812
-0.0800513
-0.0819354
-0.0830857
-0.083463
-0.0830355
-0.0817766
-0.0796638
-0.0766771
-0.0727987
-0.0680129
-0.0623087
-0.0556842
-0.0481548
-0.0397654
-0.0306088
-0.0208479
-0.01074
-0.000657032
0.0089142
0.017411
0.0242643
0.0290651
0.0316541
0.0322086
0.0312341
0.0292889
0.027015
0.00164298
0.00152571
0.0014068
0.00129013
0.00117156
0.00105126
0.000928976
0.000804652
0.000678522
0.000551065
0.000422919
0.000294773
0.000167235
4.06844e-05
-8.48918e-05
-0.000210095
-0.00033635
-0.000466195
-0.000603641
-0.000754612
-0.000927476
-0.00113365
-0.00138826
-0.00171083
-0.00212592
-0.00266352
-0.0033593
-0.0042542
-0.00539355
-0.00682529
-0.00859744
-0.0107547
-0.0133345
-0.0163627
-0.0198487
-0.0237839
-0.0281426
-0.0328748
-0.0379117
-0.0431679
-0.0485452
-0.0539376
-0.0592356
-0.0643306
-0.0691184
-0.0735023
-0.0773949
-0.0807196
-0.0834108
-0.0854136
-0.0866831
-0.0871829
-0.0868836
-0.0857609
-0.0837938
-0.0809628
-0.0772493
-0.072635
-0.0671034
-0.0606438
-0.0532581
-0.0449726
-0.0358555
-0.026041
-0.0157568
-0.0053515
0.00469383
0.0137942
0.0213154
0.0267647
0.0298878
0.0307868
0.0299523
0.0279761
0.0255774
0.00177833
0.0016435
0.0015104
0.00138358
0.00125739
0.00113155
0.00100536
0.000878437
0.000750819
0.000622889
0.000495266
0.000368665
0.000243738
0.000120899
1.34536e-07
-0.000119216
-0.000238727
-0.000361202
-0.000491073
-0.000634877
-0.000801822
-0.00100444
-0.00125926
-0.00158754
-0.00201585
-0.0025765
-0.00330759
-0.00425256
-0.00545906
-0.00697697
-0.00885561
-0.0111401
-0.0138671
-0.0170611
-0.0207278
-0.0248544
-0.0294127
-0.0343477
-0.0395861
-0.0450385
-0.0506037
-0.0561733
-0.0616366
-0.0668844
-0.0718129
-0.0763263
-0.0803391
-0.0837766
-0.0865757
-0.0886842
-0.09006
-0.0906695
-0.090486
-0.0894875
-0.0876549
-0.08497
-0.081414
-0.0769672
-0.0716092
-0.0653221
-0.0580967
-0.0499424
-0.0409048
-0.0310892
-0.0206912
-0.0100306
0.000426659
0.0100852
0.0182514
0.024355
0.028041
0.0293216
0.0286568
0.0266647
0.0241444
0.00191406
0.00176062
0.00161261
0.00147528
0.00134131
0.00120989
0.0010798
0.000950319
0.000821284
0.000692991
0.000566054
0.000441234
0.000319245
0.000200552
8.5152e-05
-2.76752e-05
-0.000139655
-0.000253875
-0.000375207
-0.000510832
-0.00067084
-0.00086891
-0.00112303
-0.00145622
-0.00189708
-0.0024802
-0.00324609
-0.00424057
-0.00551347
-0.00711639
-0.00909968
-0.0115086
-0.014379
-0.0177336
-0.0215742
-0.0258829
-0.030631
-0.0357577
-0.0411852
-0.0468207
-0.0525601
-0.0582931
-0.0639077
-0.0692945
-0.0743502
-0.07898
-0.0830999
-0.0866375
-0.0895319
-0.0917336
-0.0932032
-0.09391
-0.09383
-0.0929436
-0.0912339
-0.0886843
-0.0852766
-0.0809906
-0.0758035
-0.0696921
-0.0626379
-0.0546362
-0.0457116
-0.0359418
-0.0254892
-0.0146403
-0.00383759
0.00632589
0.0151034
0.021856
0.026127
0.0278234
0.0273589
0.0253675
0.0227302
0.00204909
0.00187592
0.00171228
0.00156411
0.00142221
0.00128518
0.00115123
0.00101928
0.000888943
0.000760449
0.000634429
0.000511713
0.000393097
0.000279113
0.000169777
6.43166e-05
-3.9154e-05
-0.000144015
-0.000255606
-0.000381779
-0.000533539
-0.000725761
-0.000977917
-0.0013148
-0.00176706
-0.00237155
-0.0031711
-0.00421382
-0.00555152
-0.00723731
-0.00932235
-0.0118518
-0.0148605
-0.0183696
-0.0223761
-0.0268565
-0.0317835
-0.03709
-0.0426939
-0.0484992
-0.0543991
-0.0602817
-0.066034
-0.0715466
-0.0767164
-0.08145
-0.0856648
-0.0892904
-0.0922684
-0.0945516
-0.0961035
-0.0968958
-0.0969073
-0.096121
-0.0945223
-0.0920962
-0.0888263
-0.0846923
-0.0796703
-0.0737334
-0.0668562
-0.0590218
-0.0502369
-0.0405531
-0.0301001
-0.0191276
-0.00804786
0.00256171
0.0119068
0.0192924
0.0241624
0.0263056
0.0260718
0.0240991
0.0213506
0.00218219
0.00198812
0.00180812
0.00164877
0.00149884
0.00135621
0.00121849
0.00108418
0.000952713
0.000824247
0.000699458
0.00057927
0.000464583
0.000356015
0.000253612
0.000156551
6.27807e-05
-3.13858e-05
-0.000131777
-0.000246946
-0.000388848
-0.000573584
-0.00082214
-0.0011611
-0.00162317
-0.00224738
-0.00307884
-0.0041678
-0.00556788
-0.00733351
-0.00951642
-0.0121614
-0.0153022
-0.0189588
-0.0231228
-0.0277623
-0.0328571
-0.0383315
-0.0440988
-0.0500603
-0.0561071
-0.0621259
-0.0680029
-0.0736284
-0.0789001
-0.0837257
-0.0880241
-0.0917268
-0.0947775
-0.0971315
-0.0987547
-0.0996216
-0.0997132
-0.0990153
-0.0975155
-0.0952012
-0.0920572
-0.0880647
-0.0831992
-0.077432
-0.0707323
-0.0630742
-0.0544484
-0.0448835
-0.0344774
-0.023442
-0.012153
-0.00115908
0.00870119
0.0166928
0.0221679
0.0247842
0.024811
0.0228763
0.0200235
0.00231201
0.00209583
0.00189869
0.00172787
0.00156981
0.00142163
0.00128026
0.00114377
0.0010114
0.000883268
0.000760121
0.000643001
0.000532941
0.000430659
0.000336243
0.000248821
0.000166173
8.42849e-05
-3.17937e-06
-0.000105505
-0.000235627
-0.000410905
-0.000653859
-0.000992874
-0.00146267
-0.00210446
-0.00296549
-0.00409801
-0.00555732
-0.00739892
-0.00967489
-0.0124295
-0.0156953
-0.019492
-0.0238048
-0.0285883
-0.0338399
-0.0394704
-0.0453879
-0.0514923
-0.0576727
-0.0638146
-0.0698036
-0.0755302
-0.0808924
-0.0857991
-0.0901707
-0.0939405
-0.0970541
-0.0994692
-0.101154
-0.102085
-0.102246
-0.101626
-0.100213
-0.097998
-0.0949678
-0.0911047
-0.0863851
-0.0807793
-0.0742535
-0.0667744
-0.0583202
-0.0488994
-0.0385799
-0.0275362
-0.0161027
-0.00478576
0.0055287
0.0140893
0.0201675
0.0232782
0.0235942
0.0217176
0.0187688
0.00243702
0.00219745
0.00198239
0.00179981
0.00163358
0.00147995
0.00133509
0.00119666
0.00106368
0.000936288
0.000815307
0.000701933
0.000597356
0.000502413
0.000417243
0.000340927
0.000271063
0.000203301
0.000130768
4.34207e-05
-7.26867e-05
-0.000236201
-0.000471191
-0.000807843
-0.00128288
-0.00193958
-0.00282728
-0.00400009
-0.00551476
-0.00742769
-0.00979112
-0.0126485
-0.0160312
-0.0199611
-0.0244126
-0.029324
-0.0347213
-0.0404963
-0.046551
-0.052785
-0.0590862
-0.0653387
-0.0714279
-0.0772443
-0.0826866
-0.0876645
-0.0921
-0.0959278
-0.0990957
-0.101563
-0.1033
-0.104287
-0.104507
-0.103953
-0.102617
-0.100489
-0.0975597
-0.0938132
-0.089227
-0.0837718
-0.077412