/*--------------------------------*- C++ -*----------------------------------*\
  =========                 |
  \\      /  F ield         | OpenFOAM: The Open Source CFD Toolbox
   \\    /   O peration     | Website:  https://openfoam.org
    \\  /    A nd           | Version:  12
     \\/     M anipulation  |
\*---------------------------------------------------------------------------*/
FoamFile
{
    format      ascii;
    class       surfaceScalarField;
    location    "7";
    object      phi;
}
// * * * * * * * * * * * * * * * * * * * * * * * * * * * * * * * * * * * * * //

dimensions      [0 3 -1 0 0 0 0];

internalField   nonuniform List<scalar> 
11100
(
-2.69028e-11
2.64889e-11
4.49658e-10
-4.76544e-10
1.35679e-09
-9.07115e-10
2.52679e-09
-1.16999e-09
3.82459e-09
-1.29782e-09
5.15e-09
-1.32543e-09
6.43288e-09
-1.28289e-09
7.62619e-09
-1.19331e-09
8.70003e-09
-1.07384e-09
9.63691e-09
-9.36883e-10
1.0428e-08
-7.9104e-10
1.10698e-08
-6.41824e-10
1.15621e-08
-4.92335e-10
1.19058e-08
-3.43702e-10
1.2101e-08
-1.95224e-10
1.21467e-08
-4.56317e-11
1.20381e-08
1.08517e-10
1.1767e-08
2.71185e-10
1.13201e-08
4.46867e-10
1.06789e-08
6.41184e-10
9.81857e-09
8.60339e-10
8.7071e-09
1.11146e-09
7.30524e-09
1.40186e-09
5.56527e-09
1.73997e-09
3.43095e-09
2.13431e-09
8.36765e-10
2.59419e-09
-2.29226e-09
3.12903e-09
-6.04086e-09
3.7486e-09
-1.05034e-08
4.46251e-09
-1.57831e-08
5.27974e-09
-2.19916e-08
6.20848e-09
-2.92472e-08
7.25561e-09
-3.7673e-08
8.42578e-09
-4.73937e-08
9.72066e-09
-5.85316e-08
1.1138e-08
-7.12021e-08
1.26704e-08
-8.55067e-08
1.43046e-08
-1.01527e-07
1.602e-08
-1.19314e-07
1.77877e-08
-1.38884e-07
1.957e-08
-1.60204e-07
2.13194e-08
-1.83183e-07
2.29789e-08
-2.07665e-07
2.4482e-08
-2.33418e-07
2.57533e-08
-2.60128e-07
2.67101e-08
-2.87392e-07
2.72643e-08
-3.14717e-07
2.73247e-08
-3.41517e-07
2.68e-08
-3.67121e-07
2.56035e-08
-3.90777e-07
2.36567e-08
-4.11668e-07
2.0891e-08
-4.2889e-07
1.72216e-08
-4.41572e-07
1.26819e-08
-4.49006e-07
7.43433e-09
-4.50351e-07
1.34458e-09
-4.44886e-07
-5.46426e-09
-4.32248e-07
-1.26388e-08
-4.1226e-07
-1.9988e-08
-3.85101e-07
-2.71583e-08
-3.51346e-07
-3.37549e-08
-3.11995e-07
-3.93518e-08
-2.68463e-07
-4.35318e-08
-2.22529e-07
-4.59342e-08
-1.7622e-07
-4.63089e-08
-1.31656e-07
-4.4564e-08
-9.08584e-08
-4.07973e-08
-5.55585e-08
-3.52999e-08
-2.7032e-08
-2.85265e-08
-5.99364e-09
-2.10383e-08
7.44469e-09
-1.34383e-08
1.37373e-08
-6.29259e-09
1.39108e-08
-1.73569e-10
9.61352e-09
4.29733e-09
3.57923e-09
6.03428e-09
3.57923e-09
2.84594e-10
-2.58076e-10
1.71278e-09
-1.9047e-09
4.14489e-09
-3.3392e-09
7.22961e-09
-4.25472e-09
1.06462e-08
-4.71445e-09
1.41407e-08
-4.81995e-09
1.75259e-08
-4.6681e-09
2.06706e-08
-4.33799e-09
2.34873e-08
-3.8905e-09
2.59209e-08
-3.37056e-09
2.79397e-08
-2.80981e-09
2.95266e-08
-2.22876e-09
3.06733e-08
-1.63901e-09
3.13743e-08
-1.0447e-09
3.16225e-08
-4.43409e-10
3.14065e-08
1.70382e-10
3.0705e-08
8.09985e-10
2.94859e-08
1.49024e-09
2.77039e-08
2.22892e-09
2.52971e-08
3.04797e-09
2.2186e-08
3.97147e-09
1.82708e-08
5.02665e-09
1.34303e-08
6.24238e-09
7.52009e-09
7.65015e-09
3.7168e-10
9.28272e-09
-8.20953e-09
1.11754e-08
-1.84445e-08
1.3364e-08
-3.05792e-08
1.58833e-08
-4.48834e-08
1.87667e-08
-6.16496e-08
2.20459e-08
-8.11892e-08
2.5748e-08
-1.03826e-07
2.98929e-08
-1.29891e-07
3.44908e-08
-1.5971e-07
3.95388e-08
-1.93589e-07
4.50173e-08
-2.31805e-07
5.08863e-08
-2.74581e-07
5.7081e-08
-3.2207e-07
6.35087e-08
-3.74328e-07
7.00454e-08
-4.31291e-07
7.65337e-08
-4.92754e-07
8.27822e-08
-5.58341e-07
8.85659e-08
-6.27488e-07
9.3629e-08
-6.99424e-07
9.76893e-08
-7.73159e-07
1.00444e-07
-8.47475e-07
1.0158e-07
-9.20932e-07
1.00782e-07
-9.91879e-07
9.77464e-08
-1.05847e-06
9.21949e-08
-1.11871e-06
8.38919e-08
-1.17047e-06
7.26556e-08
-1.21159e-06
5.83455e-08
-1.23978e-06
4.08687e-08
-1.25333e-06
2.09801e-08
-1.25047e-06
-1.50824e-09
-1.22982e-06
-2.61152e-08
-1.19049e-06
-5.19714e-08
-1.13241e-06
-7.80706e-08
-1.0563e-06
-1.03263e-07
-9.63839e-07
-1.26219e-07
-8.57663e-07
-1.45528e-07
-7.41377e-07
-1.59817e-07
-6.194e-07
-1.67911e-07
-4.96715e-07
-1.68994e-07
-3.78518e-07
-1.62761e-07
-2.6979e-07
-1.49525e-07
-1.74856e-07
-1.30234e-07
-9.69897e-08
-1.06393e-07
-3.81344e-08
-7.98937e-08
1.2336e-09
-5.28063e-08
2.21709e-08
-2.72299e-08
2.71711e-08
-5.17372e-09
2.04283e-08
1.10401e-08
8.29828e-09
1.81643e-08
1.18775e-08
7.27105e-10
-9.85179e-10
3.09e-09
-4.26758e-09
6.82974e-09
-7.07892e-09
1.14864e-08
-8.91136e-09
1.66165e-08
-9.8446e-09
2.18537e-08
-1.00571e-08
2.69179e-08
-9.73231e-09
3.16063e-08
-9.02644e-09
3.57789e-08
-8.06308e-09
3.93434e-08
-6.935e-09
4.22418e-08
-5.70823e-09
4.44389e-08
-4.42586e-09
4.59121e-08
-3.11222e-09
4.66432e-08
-1.77579e-09
4.66114e-08
-4.11614e-10
4.57875e-08
9.94302e-10
4.41274e-08
2.47006e-09
4.15696e-08
4.04805e-09
3.80303e-08
5.76823e-09
3.33996e-08
7.67863e-09
2.75386e-08
9.83249e-09
2.02768e-08
1.22885e-08
1.14088e-08
1.51103e-08
6.92386e-10
1.83666e-08
-1.2155e-08
2.21301e-08
-2.74541e-08
2.64745e-08
-4.55642e-08
3.14741e-08
-6.68834e-08
3.72025e-08
-9.18458e-08
4.37291e-08
-1.20916e-07
5.1116e-08
-1.54581e-07
5.94132e-08
-1.93341e-07
6.86532e-08
-2.37695e-07
7.88444e-08
-2.8812e-07
8.9964e-08
-3.45053e-07
1.0195e-07
-4.08861e-07
1.14694e-07
-4.79812e-07
1.28032e-07
-5.58039e-07
1.41736e-07
-6.43509e-07
1.55515e-07
-7.35981e-07
1.69005e-07
-8.34973e-07
1.81774e-07
-9.3973e-07
1.93323e-07
-1.0492e-06
2.03099e-07
-1.16201e-06
2.10502e-07
-1.27647e-06
2.14904e-07
-1.39056e-06
2.15669e-07
-1.50196e-06
2.12179e-07
-1.60806e-06
2.03854e-07
-1.70606e-06
1.90189e-07
-1.79295e-06
1.70783e-07
-1.86566e-06
1.4537e-07
-1.92117e-06
1.13847e-07
-1.95628e-06
7.59862e-08
-1.96872e-06
3.34168e-08
-1.95629e-06
-1.39427e-08
-1.91719e-06
-6.52064e-08
-1.85068e-06
-1.18487e-07
-1.75695e-06
-1.71803e-07
-1.63734e-06
-2.22867e-07
-1.49448e-06
-2.69081e-07
-1.33229e-06
-3.07718e-07
-1.15596e-06
-3.36143e-07
-9.71777e-07
-3.52099e-07
-7.86761e-07
-3.5401e-07
-6.08251e-07
-3.41271e-07
-4.43328e-07
-3.14448e-07
-2.98226e-07
-2.75336e-07
-1.77781e-07
-2.26839e-07
-8.49971e-08
-1.72677e-07
-2.07913e-08
-1.17012e-07
1.61087e-08
-6.41299e-08
2.9223e-08
-1.8288e-08
2.44901e-08
1.5773e-08
1.06182e-08
3.20361e-08
2.24958e-08
1.17206e-09
-2.15722e-09
4.40815e-09
-7.50364e-09
9.27278e-09
-1.19435e-08
1.5218e-08
-1.48566e-08
2.17159e-08
-1.63426e-08
2.83198e-08
-1.6661e-08
3.46789e-08
-1.60914e-08
4.05321e-08
-1.48797e-08
4.56938e-08
-1.32248e-08
5.00367e-08
-1.12778e-08
5.34758e-08
-9.14741e-09
5.59547e-08
-6.9047e-09
5.74321e-08
-4.58968e-09
5.78721e-08
-2.21577e-09
5.72345e-08
2.25982e-10
5.54663e-08
2.76252e-09
5.24957e-08
5.44062e-09
4.82262e-08
8.31755e-09
4.25305e-08
1.14639e-08
3.52466e-08
1.49625e-08
2.61732e-08
1.89059e-08
1.50653e-08
2.33964e-08
1.63002e-09
2.85456e-08
-1.44738e-08
3.44704e-08
-3.36373e-08
4.12936e-08
-5.63034e-08
4.91406e-08
-8.29663e-08
5.8137e-08
-1.14168e-07
6.84038e-08
-1.50491e-07
8.00528e-08
-1.92555e-07
9.31801e-08
-2.40999e-07
1.07857e-07
-2.96467e-07
1.24121e-07
-3.59585e-07
1.41963e-07
-4.30937e-07
1.61316e-07
-5.11029e-07
1.82042e-07
-6.00253e-07
2.03917e-07
-6.98842e-07
2.2662e-07
-8.06828e-07
2.49723e-07
-9.23996e-07
2.72683e-07
-1.04983e-06
2.94843e-07
-1.1835e-06
3.15438e-07
-1.32377e-06
3.336e-07
-1.46906e-06
3.48386e-07
-1.61736e-06
3.58796e-07
-1.76626e-06
3.63808e-07
-1.913e-06
3.62412e-07
-2.05448e-06
3.53656e-07
-2.18731e-06
3.36684e-07
-2.30791e-06
3.10786e-07
-2.41257e-06
2.75446e-07
-2.49759e-06
2.3039e-07
-2.55936e-06
1.7562e-07
-2.59469e-06
1.11317e-07
-2.60055e-06
3.92755e-08
-2.57469e-06
-3.98057e-08
-2.51558e-06
-1.24318e-07
-2.42266e-06
-2.11407e-07
-2.29652e-06
-2.97937e-07
-2.1391e-06
-3.80294e-07
-1.95373e-06
-4.54445e-07
-1.74527e-06
-5.16181e-07
-1.51997e-06
-5.61447e-07
-1.28531e-06
-5.86756e-07
-1.04968e-06
-5.89644e-07
-8.21838e-07
-5.69109e-07
-6.10347e-07
-5.2594e-07
-4.2285e-07
-4.62833e-07
-2.6543e-07
-3.84259e-07
-1.42043e-07
-2.96064e-07
-5.41407e-08
-2.04914e-07
-4.73634e-10
-1.17797e-07
2.30721e-08
-4.18337e-08
2.34839e-08
1.53612e-08
1.09947e-08
4.45253e-08
3.34905e-08
1.57264e-09
-3.72985e-09
5.58156e-09
-1.15125e-08
1.13945e-08
-1.77564e-08
1.83768e-08
-2.18389e-08
2.59366e-08
-2.39024e-08
3.35691e-08
-2.42935e-08
4.08709e-08
-2.33932e-08
4.75356e-08
-2.15444e-08
5.3339e-08
-1.90281e-08
5.81222e-08
-1.60611e-08
6.17742e-08
-1.27994e-08
6.42153e-08
-9.34578e-09
6.53829e-08
-5.75728e-09
6.52191e-08
-2.05194e-09
6.36596e-08
1.78552e-09
6.06234e-08
5.79864e-09
5.60062e-08
1.00578e-08
4.96718e-08
1.46519e-08
4.14459e-08
1.96899e-08
3.11101e-08
2.52983e-08
1.83961e-08
3.16199e-08
2.98228e-09
3.88102e-08
-1.55095e-08
4.70374e-08
-3.7518e-08
5.64789e-08
-6.35434e-08
6.7319e-08
-9.41476e-08
7.97448e-08
-1.29951e-07
9.39405e-08
-1.71628e-07
1.10081e-07
-2.19898e-07
1.28323e-07
-2.75513e-07
1.48795e-07
-3.39237e-07
1.71581e-07
-4.11825e-07
1.96709e-07
-4.93992e-07
2.2413e-07
-5.86375e-07
2.53699e-07
-6.89491e-07
2.85159e-07
-8.03688e-07
3.18115e-07
-9.29091e-07
3.52023e-07
-1.06555e-06
3.8618e-07
-1.21258e-06
4.19711e-07
-1.36931e-06
4.51581e-07
-1.53448e-06
4.80604e-07
-1.70635e-06
5.05468e-07
-1.88273e-06
5.2477e-07
-2.061e-06
5.3706e-07
-2.23808e-06
5.40892e-07
-2.41055e-06
5.3488e-07
-2.57465e-06
5.17761e-07
-2.72642e-06
4.8845e-07
-2.86174e-06
4.4611e-07
-2.9765e-06
3.90204e-07
-3.06668e-06
3.20566e-07
-3.12851e-06
2.3745e-07
-3.15873e-06
1.41543e-07
-3.15434e-06
3.48797e-08
-3.1132e-06
-8.09483e-08
-3.03409e-06
-2.03422e-07
-2.9168e-06
-3.28699e-07
-2.7623e-06
-4.52437e-07
-2.57295e-06
-5.69642e-07
-2.3526e-06
-6.74797e-07
-2.10662e-06
-7.62158e-07
-1.84189e-06
-8.26177e-07
-1.5666e-06
-8.62044e-07
-1.28995e-06
-8.66298e-07
-1.02164e-06
-8.37422e-07
-7.71249e-07
-7.76327e-07
-5.47516e-07
-6.86566e-07
-3.5756e-07
-5.74215e-07
-2.06228e-07
-4.47396e-07
-9.5584e-08
-3.15559e-07
-2.45987e-08
-1.88782e-07
1.09928e-08
-7.74252e-08
1.88206e-08
7.53343e-09
1.00116e-08
5.33342e-08
4.35021e-08
1.9105e-09
-5.64032e-09
6.5697e-09
-1.61717e-08
1.31534e-08
-2.43401e-08
2.09393e-08
-2.96248e-08
2.92818e-08
-3.2245e-08
3.76334e-08
-3.26451e-08
4.55522e-08
-3.13121e-08
5.26971e-08
-2.86892e-08
5.88129e-08
-2.5144e-08
6.37134e-08
-2.09616e-08
6.72625e-08
-1.63485e-08
6.93566e-08
-1.144e-08
6.99102e-08
-6.31085e-09
6.88405e-08
-9.82247e-10
6.60553e-08
4.5707e-09
6.14423e-08
1.04116e-08
5.48604e-08
1.66398e-08
4.61296e-08
2.33827e-08
3.50243e-08
3.07953e-08
2.12667e-08
3.90559e-08
4.52156e-09
4.8365e-08
-1.56099e-08
5.89416e-08
-3.95933e-08
7.10208e-08
-6.79642e-08
8.48497e-08
-1.01328e-07
1.00683e-07
-1.40359e-07
1.18776e-07
-1.85797e-07
1.39378e-07
-2.38435e-07
1.62719e-07
-2.99113e-07
1.89e-07
-3.68691e-07
2.18373e-07
-4.48032e-07
2.50922e-07
-5.37967e-07
2.86644e-07
-6.39253e-07
3.25416e-07
-7.52531e-07
3.66977e-07
-8.78268e-07
4.10896e-07
-1.0167e-06
4.56546e-07
-1.16777e-06
5.03092e-07
-1.33106e-06
5.49474e-07
-1.50576e-06
5.94408e-07
-1.69058e-06
6.36401e-07
-1.88375e-06
6.73779e-07
-2.08301e-06
7.04725e-07
-2.28558e-06
7.27342e-07
-2.48824e-06
7.39717e-07
-2.68734e-06
7.39992e-07
-2.87891e-06
7.26449e-07
-3.05873e-06
6.97583e-07
-3.22245e-06
6.52174e-07
-3.36571e-06
5.89367e-07
-3.48423e-06
5.08728e-07
-3.57399e-06
4.10321e-07
-3.63131e-06
2.94768e-07
-3.65308e-06
1.63312e-07
-3.63657e-06
1.83723e-08
-3.57994e-06
-1.3758e-07
-3.4823e-06
-3.01059e-07
-3.34374e-06
-4.67261e-07
-3.16551e-06
-6.3066e-07
-2.95023e-06
-7.84923e-07
-2.70195e-06
-9.23077e-07
-2.42626e-06
-1.03785e-06
-2.13026e-06
-1.12217e-06
-1.82247e-06
-1.16984e-06
-1.51251e-06
-1.17626e-06
-1.21068e-06
-1.13925e-06
-9.27315e-07
-1.05969e-06
-6.72026e-07
-9.41855e-07
-4.52866e-07
-7.93375e-07
-2.75556e-07
-6.24706e-07
-1.42858e-07
-4.48256e-07
-5.41643e-08
-2.77476e-07
-5.29105e-09
-1.26298e-07
1.16133e-08
-9.37092e-09
8.12135e-09
5.68262e-08
5.16234e-08
2.17991e-09
-7.82022e-09
7.35653e-09
-2.13483e-08
1.45322e-08
-3.15158e-08
2.2899e-08
-3.79916e-08
3.1764e-08
-4.111e-08
4.0547e-08
-4.14281e-08
4.87785e-08
-3.95437e-08
5.60919e-08
-3.60026e-08
6.22079e-08
-3.12599e-08
6.69168e-08
-2.56704e-08
7.00594e-08
-1.94911e-08
7.15099e-08
-1.28905e-08
7.11577e-08
-5.95865e-09
6.88926e-08
1.28289e-09
6.45922e-08
8.87102e-09
5.81097e-08
1.68942e-08
4.92628e-08
2.54866e-08
3.78256e-08
3.48199e-08
2.35195e-08
4.51013e-08
6.00578e-09
5.65696e-08
-1.51206e-08
6.94914e-08
-4.03364e-08
8.41574e-08
-7.01935e-08
1.00878e-07
-1.05321e-07
1.19978e-07
-1.46427e-07
1.41788e-07
-1.94289e-07
1.66639e-07
-2.49755e-07
1.94844e-07
-3.13725e-07
2.2669e-07
-3.87137e-07
2.62412e-07
-4.70939e-07
3.02175e-07
-5.6606e-07
3.46043e-07
-6.73366e-07
3.9395e-07
-7.93614e-07
4.45664e-07
-9.27391e-07
5.00755e-07
-1.07506e-06
5.5856e-07
-1.23666e-06
6.18155e-07
-1.41191e-06
6.78337e-07
-1.60005e-06
7.37616e-07
-1.79987e-06
7.94224e-07
-2.00962e-06
8.46148e-07
-2.22701e-06
8.91173e-07
-2.44924e-06
9.26953e-07
-2.67299e-06
9.51091e-07
-2.89451e-06
9.61237e-07
-3.1097e-06
9.55182e-07
-3.3142e-06
9.30956e-07
-3.50354e-06
8.86919e-07
-3.67321e-06
8.21841e-07
-3.81881e-06
7.34973e-07
-3.9362e-06
6.26111e-07
-4.02153e-06
4.95657e-07
-4.07145e-06
3.44684e-07
-4.08314e-06
1.75006e-07
-4.05428e-06
-1.04877e-08
-3.98336e-06
-2.08501e-07
-3.86978e-06
-4.14644e-07
-3.71382e-06
-6.23218e-07
-3.51687e-06
-8.27609e-07
-3.28156e-06
-1.02024e-06
-3.01188e-06
-1.19275e-06
-2.71334e-06
-1.33639e-06
-2.39298e-06
-1.44254e-06
-2.05932e-06
-1.5035e-06
-1.72216e-06
-1.51342e-06
-1.39216e-06
-1.46925e-06
-1.08024e-06
-1.37161e-06
-7.96795e-07
-1.2253e-06
-5.50766e-07
-1.0394e-06
-3.48783e-07
-8.26689e-07
-1.94404e-07
-6.02635e-07
-8.75989e-08
-3.84281e-07
-2.44905e-08
-1.89407e-07
2.70438e-09
-3.65658e-08
5.6611e-09
5.38695e-08
5.72845e-08
2.38146e-09
-1.02016e-08
7.93983e-09
-2.69067e-08
1.55292e-08
-3.91052e-08
2.42617e-08
-4.67241e-08
3.34024e-08
-5.02507e-08
4.2346e-08
-5.03717e-08
5.06038e-08
-4.78015e-08
5.77912e-08
-4.319e-08
6.36109e-08
-3.70796e-08
6.78341e-08
-2.98937e-08
7.02814e-08
-2.19384e-08
7.08041e-08
-1.34132e-08
6.92663e-08
-4.42084e-09
6.55297e-08
5.01946e-09
5.94393e-08
1.49614e-08
5.0811e-08
2.55226e-08
3.94205e-08
3.68771e-08
2.49932e-08
4.92472e-08
7.19505e-09
6.28995e-08
-1.43753e-08
7.814e-08
-4.01929e-08
9.5309e-08
-7.08118e-08
1.14776e-07
-1.06868e-07
1.36934e-07
-1.49082e-07
1.62191e-07
-1.98255e-07
1.90961e-07
-2.55262e-07
2.23646e-07
-3.21047e-07
2.60629e-07
-3.966e-07
3.02242e-07
-4.82934e-07
3.48747e-07
-5.81059e-07
4.003e-07
-6.91935e-07
4.56919e-07
-8.16424e-07
5.18438e-07
-9.55232e-07
5.84472e-07
-1.10884e-06
6.54365e-07
-1.27744e-06
7.27159e-07
-1.46085e-06
8.01562e-07
-1.65844e-06
8.75931e-07
-1.8691e-06
9.48276e-07
-2.09116e-06
1.01629e-06
-2.32239e-06
1.07738e-06
-2.56e-06
1.12878e-06
-2.80066e-06
1.16761e-06
-3.0406e-06
1.19102e-06
-3.27564e-06
1.19628e-06
-3.50138e-06
1.18093e-06
-3.71328e-06
1.14285e-06
-3.90677e-06
1.08041e-06
-4.07743e-06
9.92501e-07
-4.22106e-06
8.78607e-07
-4.33381e-06
7.38858e-07
-4.41222e-06
5.74075e-07
-4.45336e-06
3.85819e-07
-4.45481e-06
1.76457e-07
-4.41466e-06
-5.06385e-08
-4.33171e-06
-2.9145e-07
-4.20554e-06
-5.40814e-07
-4.03651e-06
-7.92251e-07
-3.82592e-06
-1.03819e-06
-3.57621e-06
-1.26995e-06
-3.29109e-06
-1.47788e-06
-2.97571e-06
-1.65177e-06
-2.63681e-06
-1.78144e-06
-2.2827e-06
-1.85761e-06
-1.92314e-06
-1.87297e-06
-1.56904e-06
-1.82336e-06
-1.2318e-06
-1.70885e-06
-9.22549e-07
-1.53455e-06
-6.51153e-07
-1.3108e-06
-4.25218e-07
-1.05262e-06
-2.49211e-07
-7.78642e-07
-1.2383e-07
-5.09663e-07
-4.56904e-08
-2.67547e-07
-7.29697e-09
-7.49592e-08
2.87006e-09
4.37024e-08
6.01546e-08
2.5188e-09
-1.27204e-08
8.32506e-09
-3.27129e-08
1.6152e-08
-4.6932e-08
2.5041e-08
-5.56131e-08
3.42211e-08
-5.94308e-08
4.30678e-08
-5.92184e-08
5.10801e-08
-5.58139e-08
5.7862e-08
-4.99719e-08
6.31037e-08
-4.23212e-08
6.65612e-08
-3.33512e-08
6.80371e-08
-2.34143e-08
6.73611e-08
-1.27372e-08
6.43723e-08
-1.43204e-09
5.89032e-08
1.04886e-08
5.07651e-08
2.30995e-08
3.97352e-08
3.65525e-08
2.5545e-08
5.10673e-08
7.86959e-09
6.69226e-08
-1.36817e-08
8.44508e-08
-3.95731e-08
1.04031e-07
-7.03493e-08
1.26085e-07
-1.0664e-07
1.51067e-07
-1.49163e-07
1.79458e-07
-1.98724e-07
2.11752e-07
-2.56209e-07
2.48446e-07
-3.22584e-07
2.90021e-07
-3.98869e-07
3.36915e-07
-4.86127e-07
3.895e-07
-5.85426e-07
4.48045e-07
-6.97803e-07
5.12677e-07
-8.24214e-07
5.8333e-07
-9.65476e-07
6.59701e-07
-1.1222e-06
7.41192e-07
-1.2947e-06
8.26867e-07
-1.48294e-06
9.15405e-07
-1.68646e-06
1.00507e-06
-1.90425e-06
1.09373e-06
-2.1348e-06
1.17882e-06
-2.37596e-06
1.25745e-06
-2.62502e-06
1.32644e-06
-2.8787e-06
1.38247e-06
-3.13326e-06
1.42217e-06
-3.38453e-06
1.44229e-06
-3.62809e-06
1.43984e-06
-3.85937e-06
1.41221e-06
-4.07383e-06
1.35731e-06
-4.26704e-06
1.27362e-06
-4.43484e-06
1.1603e-06
-4.5734e-06
1.01717e-06
-4.67931e-06
8.44767e-07
-4.74961e-06
6.44377e-07
-4.78183e-06
4.18036e-07
-4.77398e-06
1.68611e-07
-4.72452e-06
-1.00096e-07
-4.63248e-06
-3.83489e-07
-4.4975e-06
-6.75798e-07
-4.31984e-06
-9.69909e-07
-4.10057e-06
-1.25746e-06
-3.84173e-06
-1.52879e-06
-3.54652e-06
-1.77309e-06
-3.21956e-06
-1.97872e-06
-2.86707e-06
-2.13393e-06
-2.49699e-06
-2.2277e-06
-2.1189e-06
-2.25106e-06
-1.74382e-06
-2.19844e-06
-1.3836e-06
-2.06907e-06
-1.05011e-06
-1.86804e-06
-7.54196e-07
-1.60671e-06
-5.04551e-07
-1.30227e-06
-3.06682e-07
-9.76511e-07
-1.62167e-07
-6.54178e-07
-6.82759e-08
-3.61437e-07
-1.7976e-08
-1.25259e-07
-1.11248e-10
2.58377e-08
6.00434e-08
2.59676e-09
-1.53171e-08
8.52147e-09
-3.86376e-08
1.64133e-08
-5.48239e-08
2.52552e-08
-6.4455e-08
3.42465e-08
-6.84222e-08
4.27497e-08
-6.77217e-08
5.02573e-08
-6.33215e-08
5.63676e-08
-5.60823e-08
6.07631e-08
-4.67167e-08
6.31884e-08
-3.57765e-08
6.34308e-08
-2.36566e-08
6.12996e-08
-1.0606e-08
5.66094e-08
3.25815e-09
4.91632e-08
1.79347e-08
3.87379e-08
3.35248e-08
2.50709e-08
5.02196e-08
7.84833e-09
6.82898e-08
-1.33057e-08
8.80766e-08
-3.88387e-08
1.09984e-07
-6.92777e-08
1.3447e-07
-1.05236e-07
1.62043e-07
-1.47415e-07
1.93247e-07
-1.96611e-07
2.28653e-07
-2.53707e-07
2.68848e-07
-3.19669e-07
3.14408e-07
-3.95534e-07
3.65885e-07
-4.82388e-07
4.23769e-07
-5.81344e-07
4.88455e-07
-6.93496e-07
5.60197e-07
-8.19879e-07
6.39061e-07
-9.61409e-07
7.2486e-07
-1.11881e-06
8.17103e-07
-1.29255e-06
9.14928e-07
-1.48273e-06
1.01705e-06
-1.68905e-06
1.12172e-06
-1.91069e-06
1.22671e-06
-2.14627e-06
1.32931e-06
-2.39381e-06
1.42636e-06
-2.65072e-06
1.51435e-06
-2.91383e-06
1.58955e-06
-3.17945e-06
1.64809e-06
-3.44348e-06
1.6862e-06
-3.70152e-06
1.70033e-06
-3.94903e-06
1.68735e-06
-4.18148e-06
1.64466e-06
-4.39449e-06
1.57031e-06
-4.58392e-06
1.46306e-06
-4.74605e-06
1.32242e-06
-4.87754e-06
1.14865e-06
-4.97551e-06
9.42736e-07
-5.03753e-06
7.06398e-07
-5.0616e-06
4.42112e-07
-5.04615e-06
1.53155e-07
-4.9899e-06
-1.56342e-07
-4.89202e-06
-4.81372e-07
-4.75207e-06
-8.15743e-07
-4.57011e-06
-1.15187e-06
-4.3468e-06
-1.48077e-06
-4.08362e-06
-1.79197e-06
-3.78313e-06
-2.07358e-06
-3.44923e-06
-2.31262e-06
-3.08748e-06
-2.49568e-06
-2.70526e-06
-2.60992e-06
-2.31186e-06
-2.64445e-06
-1.91832e-06
-2.59198e-06
-1.53689e-06
-2.4505e-06
-1.18021e-06
-2.22473e-06
-8.60185e-07
-1.92674e-06
-5.86719e-07
-1.57573e-06
-3.66519e-07
-1.19671e-06
-2.02209e-07
-8.18488e-07
-9.1872e-08
-4.71774e-07
-2.90715e-08
-1.8806e-07
-3.1372e-09
-9.6661e-11
5.69061e-08
2.62031e-09
-1.79374e-08
8.53962e-09
-4.45569e-08
1.63285e-08
-6.26127e-08
2.49247e-08
-7.30512e-08
3.35062e-08
-7.70037e-08
4.14284e-08
-7.56439e-08
4.81829e-08
-7.00759e-08
5.33675e-08
-6.12669e-08
5.66613e-08
-5.00105e-08
5.78014e-08
-3.69167e-08
5.65618e-08
-2.2417e-08
5.27336e-08
-6.77781e-09
4.61074e-08
9.88439e-09
3.64568e-08
2.75853e-08
2.3524e-08
4.64577e-08
7.00608e-09
6.67375e-08
-1.34563e-08
8.87522e-08
-3.82904e-08
1.12911e-07
-6.8e-08
1.39693e-07
-1.03174e-07
1.69644e-07
-1.4449e-07
2.0336e-07
-1.92722e-07
2.41478e-07
-2.48734e-07
2.84665e-07
-3.1348e-07
3.33594e-07
-3.87995e-07
3.88923e-07
-4.73373e-07
4.51263e-07
-5.70748e-07
5.21144e-07
-6.81257e-07
5.98964e-07
-8.05997e-07
6.84937e-07
-9.45965e-07
7.79029e-07
-1.102e-06
8.80892e-07
-1.27469e-06
9.89792e-07
-1.4643e-06
1.10454e-06
-1.67071e-06
1.22346e-06
-1.89327e-06
1.34429e-06
-2.1308e-06
1.46424e-06
-2.38151e-06
1.58001e-06
-2.64297e-06
1.68782e-06
-2.91217e-06
1.78355e-06
-3.18553e-06
1.86291e-06
-3.45903e-06
1.9216e-06
-3.72835e-06
1.95552e-06
-3.98899e-06
1.96097e-06
-4.23644e-06
1.9348e-06
-4.46636e-06
1.87458e-06
-4.67469e-06
1.77864e-06
-4.85775e-06
1.64613e-06
-5.01233e-06
1.477e-06
-5.13566e-06
1.27198e-06
-5.22544e-06
1.03251e-06
-5.27975e-06
7.60709e-07
-5.29704e-06
4.594e-07
-5.27604e-06
1.32163e-07
-5.21572e-06
-2.1667e-07
-5.11523e-06
-5.81859e-07
-4.974e-06
-9.56976e-07
-4.79173e-06
-1.33414e-06
-4.56859e-06
-1.70391e-06
-4.3054e-06
-2.05516e-06
-4.00394e-06
-2.37505e-06
-3.66727e-06
-2.64929e-06
-3.30013e-06
-2.86282e-06
-2.90923e-06
-3.00082e-06
-2.50342e-06
-3.05026e-06
-2.09364e-06
-3.00175e-06
-1.69249e-06
-2.85165e-06
-1.3134e-06
-2.60382e-06
-9.69413e-07
-2.27072e-06
-6.71791e-07
-1.87335e-06
-4.28626e-07
-1.43988e-06
-2.43771e-07
-1.00334e-06
-1.16285e-07
-5.9926e-07
-4.04509e-08
-2.63893e-07
-6.20007e-09
-3.43475e-08
5.07061e-08
2.59402e-09
-2.05314e-08
8.39005e-09
-5.03529e-08
1.59132e-08
-7.01358e-08
2.40704e-08
-8.12085e-08
3.20274e-08
-8.49606e-08
3.91391e-08
-8.27557e-08
4.49016e-08
-7.58385e-08
4.89174e-08
-6.52826e-08
5.08663e-08
-5.19594e-08
5.04811e-08
-3.65315e-08
4.75253e-08
-1.94612e-08
4.17733e-08
-1.02581e-09
3.29927e-08
1.86649e-08
2.09285e-08
3.96496e-08
5.28801e-09
6.20981e-08
-1.42715e-08
8.6297e-08
-3.8155e-08
1.12636e-07
-6.68402e-08
1.41596e-07
-1.00886e-07
1.73739e-07
-1.4094e-07
2.09699e-07
-1.87744e-07
2.50164e-07
-2.42134e-07
2.95868e-07
-3.0504e-07
3.47571e-07
-3.77476e-07
4.0603e-07
-4.6053e-07
4.71977e-07
-5.55341e-07
5.46074e-07
-6.63068e-07
6.28872e-07
-7.84851e-07
7.20747e-07
-9.21755e-07
8.21841e-07
-1.07471e-06
9.31983e-07
-1.24443e-06
1.05061e-06
-1.43134e-06
1.1767e-06
-1.63547e-06
1.30868e-06
-1.8564e-06
1.44439e-06
-2.09315e-06
1.58104e-06
-2.34414e-06
1.71523e-06
-2.60716e-06
1.84303e-06
-2.87937e-06
1.96003e-06
-3.15736e-06
2.06154e-06
-3.43725e-06
2.1428e-06
-3.71479e-06
2.19914e-06
-3.98554e-06
2.22627e-06
-4.24505e-06
2.22048e-06
-4.48901e-06
2.17876e-06
-4.71339e-06
2.09897e-06
-4.91459e-06
1.97984e-06
-5.08947e-06
1.82101e-06
-5.23539e-06
1.62292e-06
-5.35018e-06
1.38677e-06
-5.43209e-06
1.11442e-06
-5.4797e-06
8.08313e-07
-5.49181e-06
4.71515e-07
-5.46744e-06
1.07791e-07
-5.40564e-06
-2.78468e-07
-5.30554e-06
-6.81957e-07
-5.16633e-06
-1.09619e-06
-4.98731e-06
-1.51315e-06
-4.76808e-06
-1.92314e-06
-4.50873e-06
-2.31451e-06
-4.21018e-06
-2.6736e-06
-3.87455e-06
-2.98491e-06
-3.50566e-06
-3.23172e-06
-3.10936e-06
-3.39712e-06
-2.69394e-06
-3.46568e-06
-2.27011e-06
-3.42559e-06
-1.85071e-06
-3.27104e-06
-1.44995e-06
-3.00458e-06
-1.08209e-06
-2.63859e-06
-7.59889e-07
-2.19555e-06
-4.93034e-07
-1.70673e-06
-2.86817e-07
-1.20956e-06
-1.41453e-07
-7.44624e-07
-5.2068e-08
-3.53278e-07
-9.26643e-09
-7.7149e-08
4.14396e-08
2.52185e-09
-2.30532e-08
8.08243e-09
-5.59135e-08
1.51822e-08
-7.72356e-08
2.27124e-08
-8.87387e-08
2.98358e-08
-9.20841e-08
3.59147e-08
-8.88346e-08
4.04552e-08
-8.0379e-08
4.30691e-08
-6.78966e-08
4.34414e-08
-5.23317e-08
4.13038e-08
-3.43938e-08
3.64116e-08
-1.45691e-08
2.85245e-08
6.86132e-09
1.73884e-08
2.98011e-08
2.72004e-09
5.43179e-08
-1.58069e-08
8.06251e-08
-3.85748e-08
1.09065e-07
-6.60332e-08
1.40094e-07
-9.87088e-08
1.74271e-07
-1.37214e-07
2.12244e-07
-1.82252e-07
2.54737e-07
-2.34623e-07
3.02534e-07
-2.9522e-07
3.56465e-07
-3.65028e-07
4.17379e-07
-4.45113e-07
4.86115e-07
-5.36603e-07
5.63467e-07
-6.40661e-07
6.50133e-07
-7.58452e-07
7.46662e-07
-8.91089e-07
8.53384e-07
-1.03958e-06
9.70331e-07
-1.20475e-06
1.09715e-06
-1.38716e-06
1.23302e-06
-1.58702e-06
1.37657e-06
-1.80411e-06
1.52577e-06
-2.03768e-06
1.67795e-06
-2.28637e-06
1.82973e-06
-2.54823e-06
1.97709e-06
-2.82063e-06
2.11543e-06
-3.10038e-06
2.23977e-06
-3.38374e-06
2.3449e-06
-3.66659e-06
2.42565e-06
-3.94459e-06
2.47713e-06
-4.21332e-06
2.495e-06
-4.46849e-06
2.47566e-06
-4.70612e-06
2.41639e-06
-4.92262e-06
2.31547e-06
-5.11492e-06
2.17213e-06
-5.28044e-06
1.98654e-06
-5.41717e-06
1.75965e-06
-5.5235e-06
1.49311e-06
-5.59821e-06
1.18912e-06
-5.64028e-06
8.50384e-07
-5.64884e-06
4.80075e-07
-5.62308e-06
8.20342e-08
-5.56212e-06
-3.39426e-07
-5.465e-06
-7.79082e-07
-5.33062e-06
-1.23056e-06
-5.1579e-06
-1.68588e-06
-4.94581e-06
-2.13523e-06
-4.6937e-06
-2.56662e-06
-4.40159e-06
-2.96572e-06
-4.07058e-06
-3.31592e-06
-3.70342e-06
-3.59887e-06
-3.30503e-06
-3.79551e-06
-2.8829e-06
-3.88782e-06
-2.44735e-06
-3.86113e-06
-2.01136e-06
-3.70703e-06
-1.58983e-06
-3.42612e-06
-1.19827e-06
-3.03015e-06
-8.51113e-07
-2.54271e-06
-5.59834e-07
-1.99801e-06
-3.31406e-07
-1.43799e-06
-1.67407e-07
-9.08623e-07
-6.394e-08
-4.56745e-07
-1.23414e-08
-1.28748e-07
2.90983e-08
2.40711e-09
-2.54603e-08
7.62521e-09
-6.11315e-08
1.41492e-08
-8.37596e-08
2.08688e-08
-9.54584e-08
2.69553e-08
-9.81705e-08
3.17855e-08
-9.36648e-08
3.4882e-08
-8.34755e-08
3.58709e-08
-6.88855e-08
3.44463e-08
-5.0907e-08
3.03417e-08
-3.02893e-08
2.33073e-08
-7.5347e-09
1.30895e-08
1.70791e-08
-5.85952e-10
4.34765e-08
-1.80292e-08
7.17611e-08
-3.95994e-08
1.02195e-07
-6.57174e-08
1.35183e-07
-9.68757e-08
1.71252e-07
-1.33648e-07
2.11044e-07
-1.76697e-07
2.55293e-07
-2.26778e-07
3.04818e-07
-2.84743e-07
3.60499e-07
-3.51536e-07
4.23259e-07
-4.28188e-07
4.94031e-07
-5.15802e-07
5.73729e-07
-6.15531e-07
6.63195e-07
-7.28544e-07
7.63146e-07
-8.55987e-07
8.74105e-07
-9.98925e-07
9.96322e-07
-1.15827e-06
1.12968e-06
-1.33472e-06
1.2736e-06
-1.52865e-06
1.42695e-06
-1.74003e-06
1.58794e-06
-1.96833e-06
1.75407e-06
-2.21247e-06
1.92209e-06
-2.47073e-06
2.088e-06
-2.74078e-06
2.24713e-06
-3.01962e-06
2.39428e-06
-3.30374e-06
2.52389e-06
-3.58917e-06
2.63034e-06
-3.87167e-06
2.70815e-06
-4.14689e-06
2.75235e-06
-4.41057e-06
2.75868e-06
-4.65872e-06
2.7238e-06
-4.88775e-06
2.64542e-06
-5.0946e-06
2.52231e-06
-5.27675e-06
2.35429e-06
-5.43225e-06
2.14204e-06
-5.55964e-06
1.88704e-06
-5.65786e-06
1.59132e-06
-5.72612e-06
1.25739e-06
-5.7638e-06
8.88063e-07
-5.77024e-06
4.86516e-07
-5.74479e-06
5.65779e-08
-5.68656e-06
-3.97652e-07
-5.59449e-06
-8.71148e-07
-5.46725e-06
-1.35781e-06
-5.30332e-06
-1.84982e-06
-5.10112e-06
-2.33743e-06
-4.85924e-06
-2.8085e-06
-4.57677e-06
-3.24819e-06
-4.25376e-06
-3.63893e-06
-3.89181e-06
-3.96082e-06
-3.4947e-06
-4.19263e-06
-3.06897e-06
-4.31354e-06
-2.62436e-06
-4.30575e-06
-2.17376e-06
-4.15763e-06
-1.73266e-06
-3.86722e-06
-1.31784e-06
-3.44497e-06
-9.45501e-07
-2.91505e-06
-6.29132e-07
-2.31438e-06
-3.77648e-07
-1.68947e-06
-1.94231e-07
-1.09204e-06
-7.61265e-08
-5.74849e-07
-1.54442e-08
-1.8943e-07
1.3654e-08
2.25239e-09
-2.77127e-08
7.02539e-09
-6.59045e-08
1.28255e-08
-8.95596e-08
1.85559e-08
-1.01189e-07
2.34068e-08
-1.03021e-07
2.67789e-08
-9.70369e-08
2.82171e-08
-8.49137e-08
2.73672e-08
-6.80356e-08
2.39361e-08
-4.7476e-08
1.7663e-08
-2.40161e-08
8.29482e-09
1.8335e-09
-4.43309e-09
2.9807e-08
-2.08136e-08
5.9857e-08
-4.11822e-08
9.21297e-08
-6.59297e-08
1.26943e-07
-9.55135e-08
1.64767e-07
-1.30467e-07
2.06206e-07
-1.71409e-07
2.51985e-07
-2.19047e-07
3.02931e-07
-2.74184e-07
3.59955e-07
-3.37718e-07
4.24033e-07
-4.10635e-07
4.96176e-07
-4.94001e-07
5.77397e-07
-5.88943e-07
6.68671e-07
-6.9662e-07
7.70873e-07
-8.18191e-07
8.84717e-07
-9.54758e-07
1.01067e-06
-1.10731e-06
1.14887e-06
-1.27664e-06
1.29901e-06
-1.46329e-06
1.46024e-06
-1.6674e-06
1.63106e-06
-1.88868e-06
1.80923e-06
-2.12631e-06
1.9917e-06
-2.37885e-06
2.17463e-06
-2.64423e-06
2.35337e-06
-2.91974e-06
2.52264e-06
-3.2021e-06
2.67664e-06
-3.48754e-06
2.80933e-06
-3.77195e-06
2.91475e-06
-4.05107e-06
2.98727e-06
-4.32065e-06
3.02194e-06
-4.57671e-06
3.01474e-06
-4.81563e-06
2.96272e-06
-5.0343e-06
2.86409e-06
-5.23022e-06
2.71823e-06
-5.40144e-06
2.52551e-06
-5.54658e-06
2.28718e-06
-5.66472e-06
2.00517e-06
-5.75525e-06
1.68185e-06
-5.81778e-06
1.31993e-06
-5.85203e-06
9.22304e-07
-5.85749e-06
4.91977e-07
-5.83362e-06
3.27104e-08
-5.77955e-06
-4.51722e-07
-5.6941e-06
-9.56593e-07
-5.57575e-06
-1.47616e-06
-5.4226e-06
-2.00297e-06
-5.23255e-06
-2.52748e-06
-5.00348e-06
-3.03757e-06
-4.73357e-06
-3.5181e-06
-4.42178e-06
-3.95072e-06
-4.06847e-06
-4.31412e-06
-3.67616e-06
-4.58494e-06
-3.25024e-06
-4.73947e-06
-2.79958e-06
-4.7564e-06
-2.33679e-06
-4.62041e-06
-1.87777e-06
-4.32624e-06
-1.44049e-06
-3.88225e-06
-1.04299e-06
-3.31254e-06
-7.01006e-07
-2.65636e-06
-4.25671e-07
-1.96481e-06
-2.22041e-07
-1.29567e-06
-8.87078e-08
-7.08182e-07
-1.8606e-08
-2.59532e-07
-4.95194e-09
2.05969e-09
-2.97723e-08
6.28854e-09
-7.01333e-08
1.12207e-08
-9.44918e-08
1.57873e-08
-1.05755e-07
1.9209e-08
-1.06443e-07
2.0919e-08
-9.87469e-08
2.0492e-08
-8.44867e-08
1.75985e-08
-6.51421e-08
1.19626e-08
-4.18402e-08
3.33189e-09
-1.53854e-08
-8.54713e-09
1.37125e-08
-2.39481e-08
4.5208e-08
-4.31807e-08
7.90897e-08
-6.66044e-08
1.15553e-07
-9.46396e-08
1.54978e-07
-1.27778e-07
1.97905e-07
-1.66592e-07
2.4502e-07
-2.11739e-07
2.97133e-07
-2.63971e-07
3.55163e-07
-3.24132e-07
4.20116e-07
-3.93156e-07
4.93057e-07
-4.72063e-07
5.75083e-07
-5.61942e-07
6.67276e-07
-6.63928e-07
7.70657e-07
-7.79173e-07
8.86118e-07
-9.08799e-07
1.01434e-06
-1.05385e-06
1.15572e-06
-1.2152e-06
1.31023e-06
-1.39351e-06
1.47733e-06
-1.58912e-06
1.65585e-06
-1.80195e-06
1.84389e-06
-2.03142e-06
2.0387e-06
-2.27638e-06
2.23666e-06
-2.53506e-06
2.43331e-06
-2.80505e-06
2.62337e-06
-3.08334e-06
2.80093e-06
-3.36639e-06
2.95969e-06
-3.65027e-06
3.09321e-06
-3.93082e-06
3.19529e-06
-4.20385e-06
3.2603e-06
-4.46534e-06
3.28344e-06
-4.71164e-06
3.26104e-06
-4.93957e-06
3.19065e-06
-5.14657e-06
3.07109e-06
-5.33066e-06
2.90232e-06
-5.49047e-06
2.68532e-06
-5.62513e-06
2.42185e-06
-5.73418e-06
2.11422e-06
-5.81742e-06
1.76509e-06
-5.87479e-06
1.37729e-06
-5.90627e-06
9.53784e-07
-5.91154e-06
4.97254e-07
-5.89015e-06
1.13141e-08
-5.8412e-06
-5.00669e-07
-5.76342e-06
-1.03438e-06
-5.6552e-06
-1.58438e-06
-5.51433e-06
-2.14383e-06
-5.33825e-06
-2.70355e-06
-5.12419e-06
-3.25164e-06