/*--------------------------------*- C++ -*----------------------------------*\
  =========                 |
  \\      /  F ield         | OpenFOAM: The Open Source CFD Toolbox
   \\    /   O peration     | Website:  https://openfoam.org
    \\  /    A nd           | Version:  12
     \\/     M anipulation  |
\*---------------------------------------------------------------------------*/
FoamFile
{
    format      ascii;
    class       volVectorField;
    location    "7";
    object      U;
}
// * * * * * * * * * * * * * * * * * * * * * * * * * * * * * * * * * * * * * //

dimensions      [0 1 -1 0 0 0 0];

internalField   nonuniform List<vector> 
5625
(
(-6.40068e-06 2.58137e-06 0)
(8.16117e-06 -2.59172e-06 0)
(6.2266e-05 -6.08988e-06 0)
(0.000142494 -7.98617e-06 0)
(0.000236914 -8.83389e-06 0)
(0.000336699 -8.97078e-06 0)
(0.000435514 -8.65424e-06 0)
(0.000529052 -8.05843e-06 0)
(0.000614506 -7.3043e-06 0)
(0.000690169 -6.47479e-06 0)
(0.000755106 -5.62567e-06 0)
(0.000808906 -4.79133e-06 0)
(0.000851468 -3.99091e-06 0)
(0.000882848 -3.2321e-06 0)
(0.000903105 -2.50795e-06 0)
(0.000912227 -1.81526e-06 0)
(0.000910031 -1.13327e-06 0)
(0.000896024 -4.38412e-07 0)
(0.000869424 2.94144e-07 0)
(0.000829057 1.09545e-06 0)
(0.000773305 2.00004e-06 0)
(0.000700047 3.04907e-06 0)
(0.000606625 4.28621e-06 0)
(0.000489782 5.76042e-06 0)
(0.000345633 7.52473e-06 0)
(0.000169614 9.63231e-06 0)
(-4.35448e-05 1.21437e-05 0)
(-0.000299829 1.51206e-05 0)
(-0.000605966 1.86379e-05 0)
(-0.000969392 2.27649e-05 0)
(-0.00139818 2.75692e-05 0)
(-0.001901 3.312e-05 0)
(-0.00248695 3.94802e-05 0)
(-0.0031654 4.67029e-05 0)
(-0.0039457 5.48251e-05 0)
(-0.00483686 6.38613e-05 0)
(-0.00584715 7.37955e-05 0)
(-0.00698357 8.45718e-05 0)
(-0.00825126 9.60858e-05 0)
(-0.00965289 0.000108174 0)
(-0.0111879 0.000120608 0)
(-0.012852 0.000133081 0)
(-0.0146358 0.00014521 0)
(-0.0165251 0.000156526 0)
(-0.0184994 0.000166482 0)
(-0.0205318 0.00017445 0)
(-0.0225886 0.000179742 0)
(-0.0246294 0.000181618 0)
(-0.0266068 0.000179316 0)
(-0.0284673 0.000172096 0)
(-0.0301519 0.000159339 0)
(-0.0315936 0.000139489 0)
(-0.0327321 0.000113801 0)
(-0.0334945 8.16786e-05 0)
(-0.033834 4.14676e-05 0)
(-0.0336896 -3.18963e-06 0)
(-0.0330127 -5.24277e-05 0)
(-0.0317876 -0.000104834 0)
(-0.0300122 -0.000157289 0)
(-0.0277143 -0.000206738 0)
(-0.0249527 -0.000249694 0)
(-0.0218187 -0.000282645 0)
(-0.0184333 -0.000302491 0)
(-0.0149411 -0.000307037 0)
(-0.0115003 -0.000295444 0)
(-0.00826899 -0.000268504 0)
(-0.00539068 -0.000228644 0)
(-0.0029803 -0.00017961 0)
(-0.00111383 -0.000125873 0)
(0.000177262 -7.20607e-05 0)
(0.000905763 -2.20822e-05 0)
(0.00112667 2.0359e-05 0)
(0.000936551 5.20481e-05 0)
(0.000505562 6.34173e-05 0)
(9.11032e-05 4.20701e-05 0)
(-4.4922e-06 -1.16757e-06 0)
(5.53461e-05 -3.72158e-05 0)
(0.000205147 -6.90061e-05 0)
(0.00041811 -8.8827e-05 0)
(0.000666937 -9.85964e-05 0)
(0.000929996 -0.000100793 0)
(0.00119081 -9.7628e-05 0)
(0.00143765 -9.0836e-05 0)
(0.00166249 -8.17184e-05 0)
(0.00186018 -7.12204e-05 0)
(0.00202762 -6.00007e-05 0)
(0.0021631 -4.8483e-05 0)
(0.00226577 -3.69061e-05 0)
(0.00233522 -2.53571e-05 0)
(0.00237103 -1.37874e-05 0)
(0.00237257 -2.08559e-06 0)
(0.00233873 9.99388e-06 0)
(0.00226746 2.27725e-05 0)
(0.00215596 3.65889e-05 0)
(0.00200024 5.18787e-05 0)
(0.00179502 6.9125e-05 0)
(0.00153362 8.88673e-05 0)
(0.00120779 0.00011169 0)
(0.000807574 0.000138247 0)
(0.000321261 0.000169149 0)
(-0.000264725 0.000205123 0)
(-0.00096598 0.000246927 0)
(-0.00180009 0.000295302 0)
(-0.00278637 0.000350949 0)
(-0.00394597 0.000414558 0)
(-0.00530164 0.000486749 0)
(-0.00687735 0.000568024 0)
(-0.00869781 0.000658714 0)
(-0.0107878 0.00075891 0)
(-0.0131714 0.000868397 0)
(-0.0158707 0.000986564 0)
(-0.018905 0.00111233 0)
(-0.0222886 0.00124405 0)
(-0.0260298 0.00137946 0)
(-0.0301288 0.00151558 0)
(-0.034576 0.00164873 0)
(-0.0393498 0.00177448 0)
(-0.0444155 0.00188769 0)
(-0.0497231 0.00198256 0)
(-0.0552067 0.00205279 0)
(-0.0607834 0.00209165 0)
(-0.0663535 0.00209225 0)
(-0.0718006 0.00204777 0)
(-0.076993 0.00195172 0)
(-0.0817858 0.00179838 0)
(-0.0860238 0.00158285 0)
(-0.0895389 0.00130052 0)
(-0.0921908 0.000949572 0)
(-0.0937643 0.000540928 0)
(-0.0941989 8.45761e-05 0)
(-0.0933391 -0.000433261 0)
(-0.091092 -0.000978579 0)
(-0.0874314 -0.00153411 0)
(-0.0823767 -0.00207468 0)
(-0.0760164 -0.00257089 0)
(-0.0685121 -0.00299116 0)
(-0.0600998 -0.00330463 0)
(-0.0510833 -0.00348468 0)
(-0.0418202 -0.00351282 0)
(-0.0326986 -0.00338222 0)
(-0.0241074 -0.00309997 0)
(-0.0164027 -0.00268748 0)
(-0.00987548 -0.00217834 0)
(-0.00472544 -0.00161428 0)
(-0.00104441 -0.00104022 0)
(0.0011876 -0.000500276 0)
(0.00210229 -3.65867e-05 0)
(0.00194306 0.000301472 0)
(0.00112008 0.000438707 0)
(0.000201307 0.000275439 0)
(2.50981e-06 -1.97974e-05 0)
(0.000115264 -0.00010748 0)
(0.000350997 -0.000184034 0)
(0.000674599 -0.000233532 0)
(0.00104896 -0.000258607 0)
(0.00144359 -0.000264433 0)
(0.00183425 -0.000256123 0)
(0.00220308 -0.000237936 0)
(0.00253748 -0.00021318 0)
(0.00282899 -0.000184318 0)
(0.00307221 -0.00015309 0)
(0.00326384 -0.000120625 0)
(0.00340188 -8.75653e-05 0)
(0.00348493 -5.4137e-05 0)
(0.00351163 -2.02091e-05 0)
(0.00348028 1.45259e-05 0)
(0.00338815 5.08302e-05 0)
(0.00323136 8.95071e-05 0)
(0.00300457 0.000131564 0)
(0.00270055 0.000178219 0)
(0.00231003 0.000230833 0)
(0.00182146 0.000290941 0)
(0.00122079 0.000360075 0)
(0.000491299 0.000439995 0)
(-0.000386677 0.000532621 0)
(-0.00143583 0.000639889 0)
(-0.00268161 0.000763715 0)
(-0.00415245 0.000906012 0)
(-0.00587966 0.00106864 0)
(-0.00789705 0.00125331 0)
(-0.0102405 0.00146146 0)
(-0.0129473 0.00169411 0)
(-0.0160551 0.00195172 0)
(-0.019601 0.002234 0)
(-0.0236197 0.00253973 0)
(-0.0281419 0.00286648 0)
(-0.033192 0.00321047 0)
(-0.0387858 0.00356635 0)
(-0.0449276 0.00392702 0)
(-0.0516078 0.00428354 0)
(-0.0588 0.00462511 0)
(-0.0664582 0.00493911 0)
(-0.074515 0.00521131 0)
(-0.0828799 0.00542606 0)
(-0.0914377 0.00556674 0)
(-0.100049 0.00561623 0)
(-0.108551 0.00555751 0)
(-0.116757 0.00537433 0)
(-0.124464 0.00505203 0)
(-0.131453 0.00457846 0)
(-0.137493 0.00394468 0)
(-0.142348 0.00314486 0)
(-0.145822 0.00216867 0)
(-0.147606 0.00107786 0)
(-0.147666 -0.000167289 0)
(-0.145747 -0.00151529 0)
(-0.141789 -0.00292758 0)
(-0.135764 -0.00434874 0)
(-0.127726 -0.00571662 0)
(-0.117824 -0.00695999 0)
(-0.106302 -0.00800356 0)
(-0.0935049 -0.00877441 0)
(-0.0798668 -0.00921003 0)
(-0.0658933 -0.00926699 0)
(-0.0521319 -0.00892897 0)
(-0.0391331 -0.00821221 0)
(-0.0274063 -0.00716684 0)
(-0.0173756 -0.00587294 0)
(-0.00934161 -0.00443201 0)
(-0.00345513 -0.00295602 0)
(0.000295589 -0.00155897 0)
(0.00208832 -0.000352462 0)
(0.00226732 0.000537173 0)
(0.00140411 0.000940994 0)
(0.000257473 0.000634097 0)
(1.01832e-05 -5.54359e-05 0)
(0.000175581 -0.000213115 0)
(0.000487784 -0.000346811 0)
(0.000903801 -0.000434484 0)
(0.00137942 -0.000479303 0)
(0.00187805 -0.000489403 0)
(0.00236975 -0.000473376 0)
(0.00283178 -0.000438668 0)
(0.0032477 -0.000391222 0)
(0.00360605 -0.00033553 0)
(0.00389917 -0.000274799 0)
(0.004122 -0.00021113 0)
(0.00427109 -0.000145707 0)
(0.00434372 -7.8937e-05 0)
(0.00433718 -1.05783e-05 0)
(0.00424818 6.0095e-05 0)
(0.00407206 0.000134454 0)
(0.00380267 0.000214101 0)
(0.00343171 0.000301044 0)
(0.0029484 0.000397677 0)
(0.00233918 0.000506576 0)
(0.00158745 0.00063062 0)
(0.000673039 0.000773106 0)
(-0.000427819 0.000937389 0)
(-0.00174253 0.00112698 0)
(-0.00330236 0.00134551 0)
(-0.00514251 0.00159663 0)
(-0.00730189 0.00188393 0)
(-0.00982285 0.00221077 0)
(-0.0127507 0.0025801 0)
(-0.0161328 0.00299424 0)
(-0.0200176 0.00345461 0)
(-0.0244534 0.00396139 0)
(-0.029486 0.00451317 0)
(-0.035157 0.00510657 0)
(-0.0415008 0.00573584 0)
(-0.0485416 0.00639246 0)
(-0.0562904 0.00706484 0)
(-0.064741 0.00773809 0)
(-0.073867 0.00839393 0)
(-0.0836183 0.00901069 0)
(-0.0939181 0.00956367 0)
(-0.104661 0.0100255 0)
(-0.115712 0.0103668 0)
(-0.126906 0.0105572 0)
(-0.138048 0.010566 0)
(-0.148917 0.0103639 0)
(-0.159269 0.00992372 0)
(-0.16884 0.00922222 0)
(-0.177355 0.00824152 0)
(-0.184535 0.00697065 0)
(-0.190098 0.00540651 0)
(-0.193805 0.00354869 0)
(-0.19538 0.00145395 0)
(-0.194673 -0.000858526 0)
(-0.191499 -0.00334813 0)
(-0.185795 -0.00592715 0)
(-0.177556 -0.00850026 0)
(-0.166872 -0.010958 0)
(-0.153942 -0.0131772 0)
(-0.139072 -0.015029 0)
(-0.122682 -0.0163892 0)
(-0.10529 -0.0171513 0)
(-0.0874996 -0.0172406 0)
(-0.0699625 -0.016628 0)
(-0.05334 -0.0153391 0)
(-0.0382515 -0.0134581 0)
(-0.025223 -0.0111219 0)
(-0.0146402 -0.00850744 0)
(-0.00671174 -0.00581436 0)
(-0.00144765 -0.00324973 0)
(0.00134938 -0.00102208 0)
(0.00208584 0.000641417 0)
(0.00143462 0.0014579 0)
(0.000274935 0.00105141 0)
(1.70524e-05 -0.000107273 0)
(0.000230293 -0.000350067 0)
(0.000608677 -0.000548851 0)
(0.0011007 -0.000679377 0)
(0.00165622 -0.000745881 0)
(0.00223432 -0.000759628 0)
(0.00280088 -0.000732947 0)
(0.00332949 -0.000676823 0)
(0.00380054 -0.000600201 0)
(0.0042 -0.000509929 0)
(0.00451807 -0.000410935 0)
(0.00474787 -0.000306455 0)
(0.00488432 -0.000198302 0)
(0.00492311 -8.70711e-05 0)
(0.00485984 2.76624e-05 0)
(0.00468926 0.000147196 0)
(0.00440452 0.000273668 0)
(0.00399676 0.000409785 0)
(0.00345443 0.000558791 0)
(0.00276295 0.000724507 0)
(0.00190413 0.000911345 0)
(0.000855897 0.00112404 0)
(-0.0004079 0.00136771 0)
(-0.00191784 0.00164777 0)
(-0.00370916 0.00196988 0)
(-0.00582168 0.00233985 0)
(-0.00829983 0.00276341 0)
(-0.0111923 0.00324607 0)
(-0.0145515 0.00379288 0)
(-0.018433 0.00440807 0)
(-0.022894 0.00509469 0)
(-0.0279919 0.00585412 0)
(-0.0337826 0.00668555 0)
(-0.0403176 0.00758537 0)
(-0.0476409 0.00854659 0)
(-0.0557859 0.00955819 0)
(-0.0647715 0.0106046 0)
(-0.0745976 0.0116653 0)
(-0.0852414 0.0127145 0)
(-0.0966534 0.0137213 0)
(-0.108754 0.0146497 0)
(-0.12143 0.0154596 0)
(-0.134535 0.0161074 0)
(-0.147889 0.0165474 0)
(-0.161276 0.0167336 0)
(-0.174452 0.0166207 0)
(-0.187146 0.0161667 0)
(-0.199067 0.0153347 0)
(-0.209909 0.0140947 0)
(-0.219362 0.0124259 0)
(-0.227118 0.010319 0)
(-0.23288 0.0077778 0)
(-0.236392 0.00481766 0)
(-0.2374 0.00150824 0)
(-0.235724 -0.00210542 0)
(-0.231223 -0.0059492 0)
(-0.223849 -0.00989694 0)
(-0.213624 -0.0138086 0)
(-0.20067 -0.017523 0)
(-0.185221 -0.0208611 0)
(-0.167622 -0.0236367 0)
(-0.148334 -0.0256703 0)
(-0.127926 -0.0268071 0)
(-0.107057 -0.0269371 0)
(-0.0864455 -0.0260142 0)
(-0.0668265 -0.0240714 0)
(-0.0489001 -0.0212266 0)
(-0.033274 -0.0176772 0)
(-0.0204083 -0.0136842 0)
(-0.0105705 -0.00954748 0)
(-0.00380408 -0.00558388 0)
(8.64444e-05 -0.00211759 0)
(0.00153862 0.000506019 0)
(0.00128296 0.00187625 0)
(0.000268495 0.00145592 0)
(2.27248e-05 -0.000173114 0)
(0.000276749 -0.000513791 0)
(0.000710178 -0.000783014 0)
(0.00126263 -0.000958502 0)
(0.00187853 -0.00104667 0)
(0.00251374 -0.00106222 0)
(0.0031311 -0.00102138 0)
(0.00370147 -0.000938849 0)
(0.00420279 -0.000826771 0)
(0.00461885 -0.000694532 0)
(0.00493791 -0.000548924 0)
(0.00515128 -0.000394391 0)
(0.00525211 -0.00023341 0)
(0.00523439 -6.67475e-05 0)
(0.00509175 0.000106331 0)
(0.0048167 0.000287802 0)
(0.00439989 0.000480771 0)
(0.00382948 0.000689215 0)
(0.00309036 0.000918081 0)
(0.00216374 0.00117301 0)
(0.00102678 0.00146032 0)
(-0.000347969 0.00178694 0)
(-0.00199289 0.00216037 0)
(-0.00394546 0.00258849 0)
(-0.0062485 0.00307945 0)
(-0.00895005 0.0036415 0)
(-0.0121032 0.00428273 0)
(-0.0157658 0.00501074 0)
(-0.0199991 0.00583226 0)
(-0.0248675 0.00675266 0)
(-0.0304361 0.00777528 0)
(-0.036769 0.0089008 0)
(-0.0439267 0.0101264 0)
(-0.0519625 0.0114448 0)
(-0.0609191 0.0128436 0)
(-0.0708239 0.0143045 0)
(-0.0816848 0.015802 0)
(-0.0934854 0.017304 0)
(-0.10618 0.0187706 0)
(-0.119691 0.0201552 0)
(-0.133905 0.0214046 0)
(-0.148669 0.0224605 0)
(-0.163795 0.0232613 0)
(-0.179057 0.0237438 0)
(-0.194195 0.0238457 0)
(-0.208922 0.0235082 0)
(-0.22293 0.0226785 0)
(-0.235895 0.0213124 0)
(-0.247487 0.0193771 0)
(-0.25738 0.0168533 0)
(-0.265261 0.0137378 0)
(-0.270836 0.0100463 0)
(-0.273855 0.00581441 0)
(-0.27409 0.00112505 0)
(-0.27137 -0.00394549 0)
(-0.265589 -0.00928486 0)
(-0.256716 -0.0147303 0)
(-0.244798 -0.0200962 0)
(-0.229978 -0.0251697 0)
(-0.212505 -0.0297162 0)
(-0.19274 -0.0334914 0)
(-0.17116 -0.0362592 0)
(-0.148354 -0.0378136 0)
(-0.125008 -0.038005 0)
(-0.101878 -0.0367658 0)
(-0.07975 -0.034131 0)
(-0.0593865 -0.0302487 0)
(-0.0414644 -0.0253768 0)
(-0.0265139 -0.019863 0)
(-0.0148637 -0.014116 0)
(-0.00660114 -0.00857444 0)
(-0.00154986 -0.00369115 0)
(0.000734201 5.59038e-05 0)
(0.00100699 0.00212 0)
(0.000247641 0.00180276 0)
(2.71631e-05 -0.000250382 0)
(0.000313986 -0.000699438 0)
(0.000790793 -0.00104267 0)
(0.0013885 -0.00126341 0)
(0.00204649 -0.00137168 0)
(0.00271804 -0.00138611 0)
(0.00336382 -0.00132697 0)
(0.00395271 -0.00121278 0)
(0.0044608 -0.00105897 0)
(0.00487011 -0.000877534 0)
(0.00516716 -0.000677175 0)
(0.00534157 -0.000463566 0)
(0.00538481 -0.000239868 0)
(0.00528882 -6.87418e-06 0)
(0.00504512 0.00023653 0)
(0.00464385 0.00049314 0)
(0.00407282 0.00076731 0)
(0.00331689 0.0010646 0)
(0.00235731 0.0013917 0)
(0.00117105 0.00175637 0)
(-0.000269681 0.00216731 0)
(-0.00199786 0.00263398 0)
(-0.004052 0.00316656 0)
(-0.00647639 0.00377569 0)
(-0.00932116 0.00447233 0)
(-0.0126421 0.00526739 0)
(-0.0165005 0.00617146 0)
(-0.0209621 0.00719425 0)
(-0.0260962 0.00834403 0)
(-0.031974 0.00962688 0)
(-0.0386667 0.0110458 0)
(-0.0462424 0.0125999 0)
(-0.054763 0.0142828 0)
(-0.06428 0.0160822 0)
(-0.0748302 0.0179779 0)
(-0.0864304 0.0199418 0)
(-0.0990726 0.0219361 0)
(-0.112718 0.0239138 0)
(-0.127295 0.0258183 0)
(-0.142693 0.0275844 0)
(-0.158759 0.0291394 0)
(-0.175304 0.0304053 0)
(-0.192095 0.0313016 0)
(-0.208868 0.0317478 0)
(-0.225325 0.0316669 0)
(-0.241147 0.0309888 0)
(-0.256001 0.0296534 0)
(-0.269546 0.0276137 0)
(-0.281449 0.0248382 0)
(-0.291384 0.0213141 0)
(-0.299052 0.0170491 0)
(-0.304178 0.0120746 0)
(-0.306535 0.00644773 0)
(-0.305922 0.000267912 0)
(-0.302196 -0.00635619 0)
(-0.295277 -0.013276 0)
(-0.28515 -0.0202936 0)
(-0.271876 -0.0271806 0)
(-0.255603 -0.0336748 0)
(-0.236578 -0.0394884 0)
(-0.215155 -0.0443204 0)
(-0.191806 -0.0478769 0)
(-0.167114 -0.0498983 0)
(-0.141773 -0.0501904 0)
(-0.116558 -0.0486571 0)
(-0.0922906 -0.0453284 0)
(-0.0697848 -0.040377 0)
(-0.0497819 -0.0341169 0)
(-0.032882 -0.0269841 0)
(-0.01948 -0.0195005 0)
(-0.00971652 -0.0122359 0)
(-0.00344889 -0.00578259 0)
(-0.00024519 -0.000761153 0)
(0.000650656 0.00213884 0)
(0.000219161 0.00206532 0)
(3.04652e-05 -0.000336469 0)
(0.000341924 -0.000901949 0)
(0.00085024 -0.00132116 0)
(0.00147832 -0.001586 0)
(0.00216095 -0.00171155 0)
(0.00284927 -0.00172095 0)
(0.00350241 -0.00163875 0)
(0.0040879 -0.00148735 0)
(0.0045805 -0.00128547 0)
(0.00496087 -0.0010477 0)
(0.00521402 -0.000784612 0)
(0.00532802 -0.000503173 0)
(0.00529249 -0.000206986 0)
(0.00509742 0.000103137 0)
(0.00473208 0.00042885 0)
(0.00418394 0.000773991 0)
(0.00343791 0.00114427 0)
(0.00247545 0.00154701 0)
(0.00127389 0.00199106 0)
(-0.000194214 0.00248654 0)
(-0.00196161 0.00304479 0)
(-0.0040668 0.00367812 0)
(-0.00655439 0.00439965 0)
(-0.00947523 0.00522308 0)
(-0.0128864 0.00616234 0)
(-0.0168511 0.00723119 0)
(-0.0214376 0.0084427 0)
(-0.0267188 0.00980855 0)
(-0.0327705 0.0113382 0)
(-0.0396691 0.0130379 0)
(-0.0474894 0.0149094 0)
(-0.0563006 0.0169489 0)
(-0.066163 0.0191451 0)
(-0.0771223 0.0214782 0)
(-0.0892051 0.0239186 0)
(-0.102413 0.0264253 0)
(-0.116717 0.0289455 0)
(-0.132053 0.0314147 0)
(-0.148318 0.0337568 0)
(-0.165364 0.0358859 0)
(-0.183004 0.0377086 0)
(-0.201007 0.0391267 0)
(-0.219106 0.0400412 0)
(-0.236999 0.0403562 0)
(-0.254364 0.0399828 0)
(-0.270861 0.0388436 0)
(-0.286148 0.0368758 0)
(-0.299884 0.0340342 0)
(-0.311745 0.0302941 0)
(-0.321426 0.0256533 0)
(-0.328652 0.0201342 0)
(-0.333183 0.0137861 0)
(-0.334817 0.00668772 0)
(-0.333391 -0.00104327 0)
(-0.328786 -0.00926855 0)
(-0.32094 -0.0178076 0)
(-0.309851 -0.026431 0)
(-0.295578 -0.0348712 0)
(-0.278259 -0.0428222 0)
(-0.25812 -0.0499456 0)
(-0.235493 -0.0558854 0)
(-0.210821 -0.0602896 0)
(-0.18467 -0.0628411 0)
(-0.157721 -0.0632947 0)
(-0.130756 -0.0615177 0)
(-0.104624 -0.057526 0)
(-0.080185 -0.0515081 0)
(-0.0582451 -0.0438294 0)
(-0.0394776 -0.0350118 0)
(-0.0243505 -0.0256942 0)
(-0.0130675 -0.0165845 0)
(-0.00553254 -0.00842382 0)
(-0.00134019 -0.00198331 0)
(0.000245684 0.00189863 0)
(0.000187716 0.00222767 0)
(3.27761e-05 -0.000428882 0)
(0.00036093 -0.00111624 0)
(0.000888949 -0.00161183 0)
(0.00153281 -0.00191833 0)
(0.00222326 -0.00205724 0)
(0.0029097 -0.00205688 0)
(0.00355021 -0.0019463 0)
(0.00411152 -0.00175184 0)
(0.0045675 -0.00149545 0)
(0.00489778 -0.00119428 0)
(0.00508617 -0.000860713 0)
(0.00511923 -0.000502774 0)
(0.00498484 -0.000124533 0)
(0.00467098 0.000273371 0)
(0.00416455 0.000693307 0)
(0.00345033 0.00114028 0)
(0.00251013 0.00162161 0)
(0.00132188 0.00214664 0)
(-0.000141108 0.00272656 0)
(-0.00191074 0.00337414 0)
(-0.00402476 0.00410362 0)
(-0.00652712 0.00493039 0)
(-0.00946833 0.00587079 0)
(-0.0129055 0.00694173 0)
(-0.0169023 0.00816026 0)
(-0.0215283 0.00954299 0)
(-0.0268584 0.0111054 0)
(-0.0329712 0.0128607 0)
(-0.0399471 0.0148192 0)
(-0.047866 0.0169863 0)
(-0.0568037 0.0193616 0)
(-0.0668278 0.0219366 0)
(-0.0779932 0.0246935 0)
(-0.0903363 0.027603 0)
(-0.103869 0.0306229 0)
(-0.118574 0.0336973 0)
(-0.134397 0.0367555 0)
(-0.151245 0.0397131 0)
(-0.16898 0.0424725 0)
(-0.187421 0.044926 0)
(-0.206341 0.0469589 0)
(-0.225476 0.0484535 0)
(-0.244527 0.0492946 0)
(-0.263168 0.0493739 0)
(-0.281062 0.0485949 0)
(-0.297862 0.0468777 0)
(-0.313231 0.0441619 0)
(-0.326843 0.0404095 0)
(-0.338399 0.0356069 0)
(-0.347624 0.0297661 0)
(-0.35428 0.0229265 0)
(-0.358163 0.0151557 0)
(-0.359107 0.00655266 0)
(-0.356978 -0.00274735 0)
(-0.35168 -0.0125813 0)
(-0.343163 -0.0227427 0)
(-0.331423 -0.032975 0)
(-0.316507 -0.0429782 0)
(-0.298527 -0.0524068 0)
(-0.277677 -0.0608762 0)
(-0.254248 -0.0679769 0)
(-0.228641 -0.0732976 0)
(-0.201387 -0.0764595 0)
(-0.173145 -0.0771589 0)
(-0.144693 -0.0752165 0)
(-0.116902 -0.0706226 0)
(-0.0906759 -0.0635716 0)
(-0.0668883 -0.054472 0)
(-0.046292 -0.0439292 0)
(-0.0294374 -0.0327008 0)
(-0.0166023 -0.0216391 0)
(-0.00774894 -0.0116426 0)
(-0.00251057 -0.0036401 0)
(-0.000186246 0.00137701 0)
(0.000156146 0.00228072 0)
(3.42449e-05 -0.000525296 0)
(0.000371563 -0.00133736 0)
(0.000907727 -0.00190815 0)
(0.00155307 -0.00225267 0)
(0.00223503 -0.00240006 0)
(0.00290167 -0.00238446 0)
(0.00351049 -0.00223968 0)
(0.0040278 -0.00199601 0)
(0.00442705 -0.0016786 0)
(0.00468714 -0.00130702 0)
(0.0047909 -0.000895325 0)
(0.00472354 -0.000452478 0)
(0.00447129 1.717e-05 0)
(0.00402008 0.000513316 0)
(0.00335443 0.00103921 0)
(0.00245635 0.00160123 0)
(0.00130445 0.00220853 0)
(-0.000126956 0.00287266 0)
(-0.00186858 0.00360739 0)
(-0.00395684 0.0044284 0)
(-0.00643437 0.00535301 0)
(-0.00935046 0.00639993 0)
(-0.0127613 0.00758888 0)
(-0.0167298 0.0089401 0)
(-0.0213256 0.0104738 0)
(-0.026624 0.0122093 0)
(-0.0327052 0.0141641 0)
(-0.0396521 0.0163529 0)
(-0.0475484 0.0187856 0)
(-0.0564749 0.0214662 0)
(-0.0665059 0.0243903 0)
(-0.0777045 0.0275436 0)
(-0.0901165 0.0308991 0)
(-0.103765 0.0344159 0)
(-0.118645 0.038037 0)
(-0.134714 0.0416886 0)
(-0.151892 0.0452801 0)
(-0.170052 0.0487049 0)
(-0.189024 0.051843 0)
(-0.208591 0.0545644 0)
(-0.228493 0.0567339 0)
(-0.248436 0.0582167 0)
(-0.2681 0.0588843 0)
(-0.287145 0.0586205 0)
(-0.305228 0.0573264 0)
(-0.322013 0.0549248 0)
(-0.337179 0.0513632 0)
(-0.350428 0.0466153 0)
(-0.361496 0.0406823 0)
(-0.370148 0.0335928 0)
(-0.376187 0.0254031 0)
(-0.379446 0.0161986 0)
(-0.379792 0.00609545 0)
(-0.377119 -0.00475641 0)
(-0.371346 -0.0161753 0)
(-0.362427 -0.0279353 0)
(-0.350346 -0.0397592 0)
(-0.335125 -0.0513203 0)
(-0.316843 -0.0622394 0)
(-0.295645 -0.0720899 0)
(-0.27177 -0.0804104 0)
(-0.245567 -0.086729 0)
(-0.217518 -0.0905999 0)
(-0.18825 -0.091653 0)
(-0.158529 -0.0896503 0)
(-0.129239 -0.0845438 0)
(-0.101331 -0.0765205 0)
(-0.0757483 -0.066023 0)
(-0.0533315 -0.0537352 0)
(-0.0347247 -0.0405342 0)
(-0.0202921 -0.0274228 0)
(-0.0100668 -0.0154652 0)
(-0.0037314 -0.00575534 0)
(-0.000631574 0.000558741 0)
(0.000125833 0.00222055 0)
(3.50042e-05 -0.000623576 0)
(0.000374433 -0.00156054 0)
(0.00090754 -0.0022037 0)
(0.00154043 -0.00258146 0)
(0.00219803 -0.00273159 0)
(0.00282757 -0.00269463 0)
(0.00338636 -0.00250938 0)
(0.00384075 -0.00221012 0)
(0.00416407 -0.00182511 0)
(0.00433485 -0.00137618 0)
(0.00433513 -0.000878889 0)
(0.00414896 -0.000342939 0)
(0.00376097 0.000227227 0)
(0.00315509 0.00083183 0)
(0.00231345 0.0014752 0)
(0.00121524 0.0021653 0)
(-0.000164162 0.00291329 0)
(-0.00185406 0.00373319 0)
(-0.0038892 0.00464153 0)
(-0.00631043 0.00565707 0)
(-0.00916518 0.00680046 0)
(-0.0125078 0.00809387 0)
(-0.0163998 0.00956049 0)
(-0.0209095 0.0112239 0)
(-0.0261117 0.0131074 0)
(-0.0320866 0.0152328 0)
(-0.0389183 0.0176195 0)
(-0.0466927 0.0202824 0)
(-0.0554945 0.0232306 0)
(-0.0654035 0.0264651 0)
(-0.0764897 0.0299763 0)
(-0.0888083 0.0337418 0)
(-0.102393 0.0377237 0)
(-0.117251 0.0418667 0)
(-0.133354 0.0460967 0)
(-0.150636 0.0503198 0)
(-0.168985 0.0544234 0)
(-0.188244 0.0582777 0)
(-0.208207 0.0617397 0)
(-0.228626 0.0646579 0)
(-0.249213 0.0668789 0)
(-0.269654 0.0682538 0)
(-0.289614 0.0686453 0)
(-0.308752 0.0679346 0)
(-0.326733 0.0660256 0)
(-0.343241 0.0628496 0)
(-0.357983 0.0583664 0)
(-0.3707 0.0525654 0)
(-0.381168 0.0454648 0)
(-0.389196 0.0371102 0)
(-0.394629 0.0275745 0)
(-0.397337 0.0169578 0)
(-0.397216 0.00538981 0)
(-0.39418 -0.0069695 0)
(-0.388159 -0.0199263 0)
(-0.379098 -0.0332424 0)
(-0.366965 -0.0466261 0)
(-0.35175 -0.0597306 0)
(-0.333487 -0.072149 0)
(-0.312267 -0.0834167 0)
(-0.288267 -0.0930222 0)
(-0.261772 -0.100432 0)
(-0.233207 -0.105128 0)
(-0.203152 -0.106665 0)
(-0.172355 -0.104733 0)
(-0.141707 -0.0992308 0)
(-0.112202 -0.090323 0)
(-0.0848561 -0.0784739 0)
(-0.060609 -0.0644391 0)
(-0.0402102 -0.0492156 0)
(-0.0241251 -0.0339621 0)
(-0.0124705 -0.0199175 0)
(-0.00498962 -0.00834967 0)
(-0.00108292 -0.000567257 0)
(9.75707e-05 0.00204584 0)
(3.5164e-05 -0.00072177 0)
(0.000370123 -0.00178127 0)
(0.000889376 -0.00249228 0)
(0.00149622 -0.00289737 0)
(0.00211404 -0.00304367 0)
(0.0026897 -0.00297863 0)
(0.0031808 -0.00274627 0)
(0.0035541 -0.00238486 0)
(0.00378319 -0.00192564 0)
(0.00384647 -0.00139253 0)
(0.00372545 -0.000802357 0)
(0.00340316 -0.000165366 0)
(0.00286272 0.000514135 0)
(0.00208614 0.00123711 0)
(0.00105314 0.00200917 0)
(-0.000259861 0.00284007 0)
(-0.00188071 0.00374321 0)
(-0.00384232 0.00473521 0)
(-0.00618341 0.00583561 0)
(-0.00894912 0.00706642 0)
(-0.0121915 0.00845174 0)
(-0.0159696 0.0100173 0)
(-0.0203499 0.0117898 0)
(-0.0254053 0.0137961 0)
(-0.0312151 0.0160624 0)
(-0.0378632 0.0186126 0)
(-0.0454366 0.0214673 0)
(-0.0540222 0.0246411 0)
(-0.0637038 0.0281411 0)
(-0.0745576 0.0319638 0)
(-0.0866468 0.0360927 0)
(-0.100016 0.0404952 0)
(-0.114683 0.0451202 0)
(-0.130636 0.049896 0)
(-0.147823 0.0547288 0)
(-0.16615 0.059503 0)
(-0.185473 0.0640823 0)
(-0.205604 0.0683136 0)
(-0.226306 0.0720314 0)
(-0.247305 0.0750648 0)
(-0.268292 0.077245 0)
(-0.288939 0.0784134 0)
(-0.308908 0.0784293 0)
(-0.327868 0.0771763 0)
(-0.345503 0.0745673 0)
(-0.361527 0.0705463 0)
(-0.375684 0.0650899 0)
(-0.387758 0.0582054 0)
(-0.39757 0.0499289 0)
(-0.404973 0.0403225 0)
(-0.409852 0.029473 0)
(-0.412108 0.0174918 0)
(-0.411663 0.00451757 0)
(-0.408444 -0.00928466 0)
(-0.402385 -0.0237156 0)
(-0.393421 -0.0385317 0)
(-0.381493 -0.0534331 0)
(-0.366559 -0.0680597 0)
(-0.348601 -0.0819826 0)
(-0.327652 -0.0947035 0)
(-0.303817 -0.105664 0)
(-0.277312 -0.114267 0)
(-0.248492 -0.11992 0)
(-0.217883 -0.12209 0)
(-0.186198 -0.120384 0)
(-0.154329 -0.11463 0)
(-0.123309 -0.104953 0)
(-0.0942302 -0.091822 0)
(-0.0681368 -0.0760566 0)
(-0.0458993 -0.0587713 0)
(-0.0281001 -0.0412867 0)
(-0.0149554 -0.0250263 0)
(-0.00628079 -0.0114425 0)
(-0.00153768 -0.00200967 0)
(7.16047e-05 0.00175612 0)
(3.48119e-05 -0.000818089 0)
(0.000359151 -0.00199521 0)
(0.000854164 -0.00276791 0)
(0.00142176 -0.00319325 0)
(0.00198474 -0.00332835 0)
(0.00249023 -0.00322801 0)
(0.00289658 -0.00294157 0)
(0.00317134 -0.0025113 0)
(0.0032887 -0.00197128 0)
(0.00322723 -0.0013473 0)
(0.0029681 -0.000657206 0)
(0.00249346 8.84598e-05 0)
(0.00178509 0.000885767 0)
(0.000823108 0.00173665 0)
(-0.000415093 0.00264824 0)
(-0.00195587 0.00363226 0)
(-0.00383021 0.00470456 0)
(-0.00607455 0.00588457 0)
(-0.00873147 0.00719496 0)
(-0.0118502 0.00866114 0)
(-0.0154871 0.0103108 0)
(-0.0197057 0.0121731 0)
(-0.0245765 0.0142784 0)
(-0.0301768 0.0166566 0)
(-0.0365891 0.0193365 0)
(-0.0439 0.0223436 0)
(-0.0521976 0.025699 0)
(-0.0615683 0.029416 0)
(-0.0720929 0.0334983 0)
(-0.0838417 0.0379366 0)
(-0.0968681 0.0427053 0)
(-0.111203 0.0477598 0)
(-0.126848 0.0530336 0)
(-0.143767 0.0584361 0)
(-0.161883 0.0638523 0)
(-0.181072 0.0691432 0)
(-0.201163 0.0741487 0)
(-0.221935 0.0786922 0)
(-0.243127 0.0825877 0)
(-0.264442 0.0856477 0)
(-0.285558 0.0876922 0)
(-0.306144 0.0885578 0)
(-0.32587 0.088106 0)
(-0.344423 0.0862285 0)
(-0.361517 0.0828515 0)
(-0.376899 0.0779367 0)
(-0.39036 0.0714794 0)
(-0.401728 0.0635063 0)
(-0.410867 0.0540711 0)
(-0.417674 0.0432504 0)
(-0.422068 0.0311417 0)
(-0.423979 0.0178631 0)
(-0.423346 0.00355841 0)
(-0.420108 -0.011608 0)
(-0.414195 -0.0274375 0)
(-0.40553 -0.0436876 0)
(-0.39403 -0.0600565 0)
(-0.379612 -0.076177 0)
(-0.362209 -0.0916044 0)
(-0.34179 -0.105812 0)
(-0.318389 -0.118197 0)
(-0.292141 -0.128102 0)
(-0.263323 -0.134852 0)
(-0.232395 -0.137823 0)
(-0.200022 -0.136521 0)
(-0.167085 -0.130686 0)
(-0.134646 -0.12038 0)
(-0.103873 -0.106064 0)
(-0.0759223 -0.0886036 0)
(-0.0518 -0.0692294 0)
(-0.0322231 -0.0494281 0)
(-0.0175244 -0.0308195 0)
(-0.00760653 -0.0150532 0)
(-0.00199659 -0.00377711 0)
(4.77323e-05 0.00135137 0)
(3.40149e-05 -0.000910878 0)
(0.000341954 -0.00219828 0)
(0.000802729 -0.00302475 0)
(0.00131823 -0.00346212 0)
(0.0018117 -0.00357792 0)
(0.00223117 -0.00343454 0)
(0.00253624 -0.00308681 0)
(0.00269569 -0.0025809 0)
(0.00268461 -0.00195356 0)
(0.00248203 -0.00123221 0)
(0.00206899 -0.000435445 0)
(0.00142693 0.00042617 0)
(0.000536374 0.00134935 0)
(-0.000624327 0.00233723 0)
(-0.00208004 0.00339869 0)
(-0.0038598 0.00454766 0)
(-0.00599767 0.00580258 0)
(-0.00853347 0.00718588 0)
(-0.0115134 0.00872348 0)
(-0.0149907 0.0104443 0)
(-0.0190255 0.0123795 0)
(-0.0236853 0.0145621 0)
(-0.0290443 0.0170254 0)
(-0.0351829 0.0198025 0)
(-0.0421862 0.0229241 0)
(-0.0501419 0.026417 0)
(-0.0591379 0.0303015 0)
(-0.0692581 0.0345888 0)
(-0.0805782 0.0392778 0)
(-0.09316 0.0443514 0)
(-0.107045 0.0497733 0)
(-0.122249 0.0554848 0)
(-0.138752 0.0614016 0)
(-0.156495 0.0674128 0)
(-0.175373 0.0733803 0)
(-0.195236 0.0791412 0)
(-0.215881 0.0845116 0)
(-0.237064 0.0892933 0)
(-0.258502 0.0932818 0)
(-0.279882 0.096277 0)
(-0.30088 0.0980925 0)
(-0.321169 0.0985655 0)
(-0.340435 0.0975649 0)
(-0.358393 0.0949958 0)
(-0.374791 0.0908021 0)
(-0.389421 0.0849654 0)
(-0.402114 0.0775018 0)
(-0.412745 0.0684571 0)
(-0.421221 0.0579011 0)
(-0.427474 0.0459224 0)
(-0.431456 0.0326255 0)
(-0.43312 0.0181306 0)
(-0.432418 0.00258251 0)
(-0.429294 -0.0138598 0)
(-0.423676 -0.0310039 0)
(-0.415475 -0.0486139 0)
(-0.404581 -0.0663922 0)
(-0.390876 -0.0839706 0)
(-0.374243 -0.100895 0)
(-0.354587 -0.116617 0)
(-0.331868 -0.130493 0)
(-0.306136 -0.141807 0)
(-0.277581 -0.149802 0)
(-0.246581 -0.153752 0)
(-0.213741 -0.153051 0)
(-0.179912 -0.14733 0)
(-0.146174 -0.136568 0)
(-0.113767 -0.121189 0)
(-0.0839642 -0.102093 0)
(-0.057919 -0.0806169 0)
(-0.0365029 -0.0584185 0)
(-0.0201854 -0.037326 0)
(-0.0089723 -0.0192023 0)
(-0.0024627 -0.00587921 0)
(2.55772e-05 0.000830968 0)
(3.28222e-05 -0.000998596 0)
(0.000318886 -0.00238654 0)
(0.000735766 -0.00325718 0)
(0.00118666 -0.00369721 0)
(0.00159629 -0.00378483 0)
(0.00191429 -0.00359027 0)
(0.00210209 -0.00317381 0)
(0.00213009 -0.00258547 0)
(0.00197464 -0.00186443 0)
(0.00161548 -0.00103945 0)
(0.00103373 -0.000129622 0)
(0.000210309 0.0008548 0)
(-0.000875397 0.00191143 0)
(-0.0022467 0.00304489 0)
(-0.00393062 0.00426601 0)
(-0.00595876 0.00559111 0)
(-0.00836811 0.00704143 0)
(-0.0112017 0.0086425 0)
(-0.0145092 0.0104236 0)
(-0.0183473 0.0124172 0)
(-0.0227797 0.0146581 0)
(-0.0278772 0.0171826 0)
(-0.0337171 0.0200273 0)
(-0.0403819 0.0232276 0)
(-0.047958 0.026816 0)
(-0.0565332 0.0308196 0)
(-0.0661932 0.0352572 0)
(-0.0770178 0.0401362 0)
(-0.0890755 0.0454493 0)
(-0.102418 0.0511701 0)
(-0.117072 0.0572496 0)
(-0.133034 0.0636126 0)
(-0.150265 0.0701558 0)
(-0.168679 0.076746 0)
(-0.188146 0.0832216 0)
(-0.208487 0.0893953 0)
(-0.229475 0.0950606 0)
(-0.250843 0.0999996 0)
(-0.272294 0.103993 0)
(-0.293508 0.106833 0)
(-0.314165 0.108332 0)
(-0.33395 0.108332 0)
(-0.352576 0.106715 0)
(-0.36979 0.103403 0)
(-0.385379 0.0983627 0)
(-0.399177 0.0915958 0)
(-0.411062 0.0831397 0)
(-0.420948 0.0730581 0)
(-0.42878 0.0614348 0)
(-0.434524 0.0483674 0)
(-0.438157 0.033964 0)
(-0.439653 0.018343 0)
(-0.438972 0.00164611 0)
(-0.436067 -0.0159779 0)
(-0.430855 -0.0343465 0)
(-0.423241 -0.0532349 0)
(-0.413093 -0.072356 0)
(-0.400259 -0.0913467 0)
(-0.384577 -0.10975 0)
(-0.36589 -0.127002 0)
(-0.344084 -0.142427 0)
(-0.31912 -0.155252 0)
(-0.291092 -0.164639 0)
(-0.260283 -0.169755 0)
(-0.22722 -0.169869 0)
(-0.192708 -0.164481 0)
(-0.157827 -0.153463 0)
(-0.123877 -0.137175 0)
(-0.0922502 -0.116529 0)
(-0.0642589 -0.0929567 0)
(-0.0409488 -0.0682892 0)
(-0.0229483 -0.0445756 0)
(-0.0103853 -0.023911 0)
(-0.0029406 -0.00832774 0)
(4.62567e-06 0.000193226 0)
(3.12683e-05 -0.00107978 0)
(0.000290218 -0.00255623 0)
(0.000653837 -0.00345973 0)
(0.00102791 -0.00389189 0)
(0.00133971 -0.00394173 0)
(0.00154119 -0.00368743 0)
(0.0015962 -0.00319467 0)
(0.00147721 -0.00251715 0)
(0.00116221 -0.00169623 0)
(0.000631884 -0.000761714 0)