/*--------------------------------*- C++ -*----------------------------------*\
  =========                 |
  \\      /  F ield         | OpenFOAM: The Open Source CFD Toolbox
   \\    /   O peration     | Website:  https://openfoam.org
    \\  /    A nd           | Version:  12
     \\/     M anipulation  |
\*---------------------------------------------------------------------------*/
FoamFile
{
    format      ascii;
    class       volScalarField;
    location    "3.5";
    object      epsilon;
}
// * * * * * * * * * * * * * * * * * * * * * * * * * * * * * * * * * * * * * //

dimensions      [0 2 -3 0 0 0 0];

internalField   nonuniform List<scalar> 
5625
(
2.46333e-09
4.65148e-09
9.85709e-09
1.60675e-08
2.30591e-08
3.06628e-08
3.87549e-08
4.72398e-08
5.60388e-08
6.50839e-08
7.43139e-08
8.36727e-08
9.31077e-08
1.02569e-07
1.1201e-07
1.21385e-07
1.30652e-07
1.39767e-07
1.48692e-07
1.57389e-07
1.6582e-07
1.73952e-07
1.8175e-07
1.89185e-07
1.96225e-07
2.02845e-07
2.09017e-07
2.14719e-07
2.19928e-07
2.24625e-07
2.28793e-07
2.32416e-07
2.35482e-07
2.37978e-07
2.39897e-07
2.41232e-07
2.41978e-07
2.42135e-07
2.41701e-07
2.4068e-07
2.39075e-07
2.36895e-07
2.34147e-07
2.30843e-07
2.26996e-07
2.22622e-07
2.17737e-07
2.12361e-07
2.06515e-07
2.00221e-07
1.93504e-07
1.8639e-07
1.78908e-07
1.71087e-07
1.62958e-07
1.54553e-07
1.45907e-07
1.37055e-07
1.28034e-07
1.18882e-07
1.09639e-07
1.00346e-07
9.10472e-08
8.17862e-08
7.26107e-08
6.35707e-08
5.47196e-08
4.61159e-08
3.78246e-08
2.99213e-08
2.24982e-08
1.56748e-08
9.61535e-09
4.53712e-09
2.40266e-09
1.66618e-08
9.03805e-09
8.78401e-09
1.04854e-08
1.31064e-08
1.62767e-08
1.98181e-08
2.36282e-08
2.7639e-08
3.18009e-08
3.60744e-08
4.04262e-08
4.48269e-08
4.92501e-08
5.36713e-08
5.80674e-08
6.24171e-08
6.66996e-08
7.08955e-08
7.49863e-08
7.89543e-08
8.27827e-08
8.64556e-08
8.99581e-08
9.32759e-08
9.63959e-08
9.93058e-08
1.01994e-07
1.04451e-07
1.06667e-07
1.08633e-07
1.10343e-07
1.1179e-07
1.12969e-07
1.13875e-07
1.14505e-07
1.14859e-07
1.14933e-07
1.1473e-07
1.14249e-07
1.13493e-07
1.12465e-07
1.1117e-07
1.09612e-07
1.07799e-07
1.05736e-07
1.03433e-07
1.00898e-07
9.81411e-08
9.51738e-08
9.20075e-08
8.86547e-08
8.51289e-08
8.14441e-08
7.76153e-08
7.36581e-08
6.9589e-08
6.54252e-08
6.11847e-08
5.68862e-08
5.25495e-08
4.81953e-08
4.38454e-08
3.95234e-08
3.52544e-08
3.10666e-08
2.69919e-08
2.30682e-08
1.93435e-08
1.58832e-08
1.27872e-08
1.02285e-08
8.56792e-09
8.81539e-09
1.62514e-08
3.70435e-08
1.81106e-08
1.39422e-08
1.31447e-08
1.37645e-08
1.51642e-08
1.70566e-08
1.92858e-08
2.17555e-08
2.44011e-08
2.71752e-08
3.00416e-08
3.29707e-08
3.59376e-08
3.89205e-08
4.19001e-08
4.48586e-08
4.77797e-08
5.06484e-08
5.34505e-08
5.61728e-08
5.88027e-08
6.13287e-08
6.37397e-08
6.60255e-08
6.81765e-08
7.0184e-08
7.20398e-08
7.37365e-08
7.52673e-08
7.66265e-08
7.78086e-08
7.88093e-08
7.96248e-08
8.02522e-08
8.06891e-08
8.09341e-08
8.09866e-08
8.08465e-08
8.05145e-08
7.99923e-08
7.9282e-08
7.83866e-08
7.73099e-08
7.60562e-08
7.46306e-08
7.3039e-08
7.12878e-08
6.9384e-08
6.73356e-08
6.51509e-08
6.28389e-08
6.04093e-08
5.78723e-08
5.5239e-08
5.25208e-08
4.973e-08
4.68796e-08
4.39833e-08
4.10557e-08
3.81127e-08
3.51712e-08
3.22499e-08
2.93697e-08
2.65547e-08
2.38333e-08
2.12406e-08
1.88223e-08
1.66413e-08
1.4791e-08
1.34232e-08
1.28176e-08
1.35954e-08
1.76612e-08
3.61262e-08
6.12777e-08
2.9325e-08
2.12278e-08
1.82714e-08
1.73503e-08
1.74996e-08
1.83054e-08
1.95515e-08
2.11085e-08
2.28919e-08
2.48421e-08
2.69151e-08
2.90761e-08
3.12974e-08
3.35556e-08
3.58305e-08
3.81046e-08
4.03621e-08
4.25887e-08
4.47713e-08
4.68979e-08
4.89575e-08
5.09397e-08
5.2835e-08
5.46346e-08
5.63302e-08
5.79143e-08
5.93801e-08
6.07213e-08
6.19322e-08
6.30079e-08
6.3944e-08
6.47367e-08
6.53828e-08
6.58799e-08
6.62261e-08
6.64201e-08
6.64613e-08
6.63497e-08
6.60858e-08
6.56709e-08
6.51068e-08
6.4396e-08
6.35416e-08
6.2547e-08
6.14167e-08
6.01553e-08
5.87684e-08
5.72618e-08
5.56421e-08
5.39164e-08
5.20924e-08
5.01784e-08
4.81834e-08
4.61167e-08
4.39887e-08
4.18103e-08
3.95934e-08
3.73505e-08
3.50958e-08
3.28445e-08
3.06136e-08
2.84227e-08
2.62943e-08
2.42556e-08
2.23398e-08
2.05898e-08
1.90635e-08
1.78431e-08
1.70542e-08
1.69077e-08
1.78066e-08
2.0691e-08
2.85881e-08
5.97428e-08
8.82811e-08
4.19446e-08
2.97044e-08
2.46388e-08
2.23227e-08
2.14096e-08
2.13374e-08
2.1821e-08
2.26946e-08
2.38522e-08
2.52209e-08
2.67475e-08
2.83913e-08
3.01201e-08
3.19078e-08
3.37322e-08
3.55742e-08
3.74174e-08
3.92471e-08
4.10501e-08
4.28145e-08
4.45293e-08
4.61847e-08
4.77715e-08
4.92813e-08
5.07065e-08
5.204e-08
5.32754e-08
5.44069e-08
5.54294e-08
5.63383e-08
5.71295e-08
5.77996e-08
5.83458e-08
5.87657e-08
5.90576e-08
5.92204e-08
5.92534e-08
5.91567e-08
5.89307e-08
5.85764e-08
5.80956e-08
5.74904e-08
5.67635e-08
5.59183e-08
5.49585e-08
5.38886e-08
5.27134e-08
5.14385e-08
5.00697e-08
4.86139e-08
4.70781e-08
4.54701e-08
4.37984e-08
4.20721e-08
4.03011e-08
3.84962e-08
3.66692e-08
3.4833e-08
3.3002e-08
3.11924e-08
2.94226e-08
2.7714e-08
2.60922e-08
2.45883e-08
2.32417e-08
2.21041e-08
2.12465e-08
2.07721e-08
2.08419e-08
2.17338e-08
2.39947e-08
2.89363e-08
4.08696e-08
8.60278e-08
1.17371e-07
5.55896e-08
3.89856e-08
3.17821e-08
2.81182e-08
2.62254e-08
2.5376e-08
2.52074e-08
2.5513e-08
2.61632e-08
2.70705e-08
2.8172e-08
2.94205e-08
3.07793e-08
3.22186e-08
3.37139e-08
3.52445e-08
3.67924e-08
3.83421e-08
3.98796e-08
4.13926e-08
4.28698e-08
4.43013e-08
4.56778e-08
4.69911e-08
4.82334e-08
4.93979e-08
5.04784e-08
5.14692e-08
5.23653e-08
5.31622e-08
5.38562e-08
5.44438e-08
5.49223e-08
5.52896e-08
5.55439e-08
5.56841e-08
5.57097e-08
5.56206e-08
5.54171e-08
5.51005e-08
5.46721e-08
5.4134e-08
5.3489e-08
5.274e-08
5.18907e-08
5.09454e-08
4.99088e-08
4.87862e-08
4.75834e-08
4.6307e-08
4.49639e-08
4.35619e-08
4.21094e-08
4.06157e-08
3.90908e-08
3.75458e-08
3.5993e-08
3.44459e-08
3.292e-08
3.14326e-08
3.0004e-08
2.86581e-08
2.74238e-08
2.63368e-08
2.54428e-08
2.48029e-08
2.45022e-08
2.46667e-08
2.54972e-08
2.73465e-08
3.09226e-08
3.79468e-08
5.41247e-08
1.14293e-07
1.48047e-07
7.00034e-08
4.88476e-08
3.94598e-08
3.44587e-08
3.16257e-08
3.00542e-08
2.92971e-08
2.91032e-08
2.93169e-08
2.98348e-08
3.05837e-08
3.15094e-08
3.257e-08
3.37323e-08
3.49691e-08
3.62575e-08
3.75781e-08
3.89141e-08
4.02507e-08
4.15749e-08
4.2875e-08
4.41406e-08
4.5362e-08
4.65309e-08
4.76395e-08
4.86807e-08
4.96483e-08
5.05367e-08
5.13407e-08
5.20561e-08
5.2679e-08
5.3206e-08
5.36345e-08
5.39622e-08
5.41875e-08
5.43094e-08
5.43271e-08
5.42408e-08
5.40508e-08
5.37581e-08
5.33641e-08
5.28711e-08
5.22814e-08
5.15983e-08
5.08253e-08
4.99666e-08
4.9027e-08
4.80117e-08
4.69266e-08
4.57783e-08
4.45738e-08
4.33212e-08
4.2029e-08
4.07067e-08
3.93649e-08
3.80151e-08
3.66702e-08
3.5345e-08
3.40558e-08
3.28217e-08
3.16649e-08
3.06119e-08
2.96949e-08
2.89545e-08
2.84433e-08
2.82323e-08
2.84221e-08
2.91636e-08
3.0701e-08
3.34687e-08
3.83477e-08
4.74953e-08
6.80901e-08
1.44023e-07
1.79908e-07
8.49884e-08
5.91335e-08
4.75174e-08
4.11774e-08
3.74243e-08
3.51635e-08
3.38582e-08
3.32093e-08
3.30337e-08
3.32105e-08
3.36555e-08
3.43069e-08
3.51176e-08
3.60503e-08
3.7075e-08
3.81667e-08
3.93044e-08
4.04698e-08
4.16473e-08
4.28229e-08
4.39844e-08
4.51206e-08
4.62219e-08
4.72792e-08
4.82847e-08
4.92311e-08
5.0112e-08
5.09216e-08
5.16549e-08
5.23073e-08
5.2875e-08
5.33547e-08
5.37436e-08
5.40395e-08
5.42408e-08
5.43464e-08
5.43556e-08
5.42685e-08
5.40855e-08
5.38076e-08
5.34363e-08
5.29737e-08
5.24224e-08
5.17854e-08
5.10666e-08
5.027e-08
4.94006e-08
4.84638e-08
4.74655e-08
4.64124e-08
4.5312e-08
4.41724e-08
4.30026e-08
4.18126e-08
4.06133e-08
3.94171e-08
3.82375e-08
3.70904e-08
3.59932e-08
3.49669e-08
3.40355e-08
3.32284e-08
3.25816e-08
3.21407e-08
3.19655e-08
3.21378e-08
3.27746e-08
3.40537e-08
3.62652e-08
3.993e-08
4.61103e-08
5.74175e-08
8.25569e-08
1.74791e-07
2.12617e-07
1.00382e-07
6.97202e-08
5.58418e-08
4.81589e-08
4.34977e-08
4.05691e-08
3.87432e-08
3.76708e-08
3.71392e-08
3.70098e-08
3.71861e-08
3.75984e-08
3.81939e-08
3.89313e-08
3.97775e-08
4.07053e-08
4.16916e-08
4.27171e-08
4.37649e-08
4.48201e-08
4.58698e-08
4.69023e-08
4.79074e-08
4.88758e-08
4.97991e-08
5.067e-08
5.14819e-08
5.22288e-08
5.29054e-08
5.35072e-08
5.40303e-08
5.44712e-08
5.48272e-08
5.5096e-08
5.52761e-08
5.53662e-08
5.53658e-08
5.5275e-08
5.50941e-08
5.48242e-08
5.44669e-08
5.40243e-08
5.34991e-08
5.28944e-08
5.22142e-08
5.14627e-08
5.06448e-08
4.97663e-08
4.88332e-08
4.78526e-08
4.6832e-08
4.578e-08
4.4706e-08
4.36205e-08
4.25349e-08
4.14623e-08
4.04174e-08
3.94167e-08
3.84793e-08
3.76277e-08
3.68883e-08
3.62932e-08
3.58822e-08
3.57065e-08
3.58335e-08
3.63563e-08
3.74094e-08
3.91984e-08
4.20615e-08
4.66089e-08
5.40896e-08
6.758e-08
9.73468e-08
2.0623e-07
2.45883e-07
1.16043e-07
8.05051e-08
6.4343e-08
5.53156e-08
4.97556e-08
4.61753e-08
4.38493e-08
4.23766e-08
4.15145e-08
4.11049e-08
4.10394e-08
4.12395e-08
4.16465e-08
4.22148e-08
4.29081e-08
4.36966e-08
4.45557e-08
4.54644e-08
4.64045e-08
4.73604e-08
4.83183e-08
4.9266e-08
5.01927e-08
5.10886e-08
5.19452e-08
5.27546e-08
5.35102e-08
5.42056e-08
5.48356e-08
5.53955e-08
5.58811e-08
5.62891e-08
5.66167e-08
5.68615e-08
5.70218e-08
5.70967e-08
5.70855e-08
5.69883e-08
5.68055e-08
5.65382e-08
5.61882e-08
5.57576e-08
5.52492e-08
5.46663e-08
5.40128e-08
5.32933e-08
5.25129e-08
5.16773e-08
5.07931e-08
4.98675e-08
4.89084e-08
4.79247e-08
4.69263e-08
4.59242e-08
4.49305e-08
4.39589e-08
4.30251e-08
4.21468e-08
4.13445e-08
4.06423e-08
4.0069e-08
3.96597e-08
3.94583e-08
3.95214e-08
3.99247e-08
4.07729e-08
4.22184e-08
4.44959e-08
4.79926e-08
5.34096e-08
6.21854e-08
7.78674e-08
1.12301e-07
2.38007e-07
2.7945e-07
1.31851e-07
9.14002e-08
7.29456e-08
6.25765e-08
5.61272e-08
5.19089e-08
4.90995e-08
4.72452e-08
4.60724e-08
4.54035e-08
4.51173e-08
4.51264e-08
4.53659e-08
4.57859e-08
4.63465e-08
4.70155e-08
4.77663e-08
4.85762e-08
4.94261e-08
5.02992e-08
5.11809e-08
5.20584e-08
5.29202e-08
5.37563e-08
5.45577e-08
5.53163e-08
5.6025e-08
5.66775e-08
5.72683e-08
5.77924e-08
5.82459e-08
5.8625e-08
5.8927e-08
5.91496e-08
5.92911e-08
5.93504e-08
5.93269e-08
5.92208e-08
5.90325e-08
5.87634e-08
5.8415e-08
5.79897e-08
5.74905e-08
5.69208e-08
5.62846e-08
5.55867e-08
5.48323e-08
5.40277e-08
5.31794e-08
5.22949e-08
5.13827e-08
5.0452e-08
4.95132e-08
4.85777e-08
4.76583e-08
4.67698e-08
4.59284e-08
4.51531e-08
4.44659e-08
4.38928e-08
4.34649e-08
4.32203e-08
4.32072e-08
4.3488e-08
4.41465e-08
4.52996e-08
4.71179e-08
4.98653e-08
5.39787e-08
6.02508e-08
7.031e-08
8.81756e-08
1.27274e-07
2.69816e-07
3.13089e-07
1.47696e-07
1.02328e-07
8.1585e-08
6.98824e-08
6.25547e-08
5.77115e-08
5.44332e-08
5.22132e-08
5.07462e-08
4.98351e-08
4.93453e-08
4.91808e-08
4.927e-08
4.95584e-08
5.00027e-08
5.05681e-08
5.12259e-08
5.19518e-08
5.27253e-08
5.35287e-08
5.43466e-08
5.51655e-08
5.59733e-08
5.67595e-08
5.75148e-08
5.82307e-08
5.88999e-08
5.95159e-08
6.00729e-08
6.0566e-08
6.09908e-08
6.1344e-08
6.16224e-08
6.18238e-08
6.19465e-08
6.19894e-08
6.19522e-08
6.18347e-08
6.16377e-08
6.13625e-08
6.10108e-08
6.05852e-08
6.00887e-08
5.95249e-08
5.8898e-08
5.82129e-08
5.74753e-08
5.66914e-08
5.58682e-08
5.50136e-08
5.41362e-08
5.32458e-08
5.23532e-08
5.14705e-08
5.06111e-08
4.97905e-08
4.9026e-08
4.83378e-08
4.77493e-08
4.72884e-08
4.69885e-08
4.68911e-08
4.70486e-08
4.75292e-08
4.84251e-08
4.98652e-08
5.20387e-08
5.52385e-08
5.99513e-08
6.70606e-08
7.83837e-08
9.84084e-08
1.42129e-07
3.0137e-07
3.46597e-07
1.63482e-07
1.13221e-07
9.0205e-08
7.71823e-08
6.89894e-08
6.35347e-08
5.98012e-08
5.72295e-08
5.54827e-08
5.43438e-08
5.36651e-08
5.33412e-08
5.32944e-08
5.34651e-08
5.38067e-08
5.42815e-08
5.48587e-08
5.55125e-08
5.6221e-08
5.69655e-08
5.77296e-08
5.84992e-08
5.92616e-08
6.00058e-08
6.07221e-08
6.14017e-08
6.2037e-08
6.26213e-08
6.31487e-08
6.3614e-08
6.4013e-08
6.43419e-08
6.45978e-08
6.47784e-08
6.4882e-08
6.49075e-08
6.48546e-08
6.47233e-08
6.45144e-08
6.42293e-08
6.38699e-08
6.34388e-08
6.29393e-08
6.2375e-08
6.17504e-08
6.10707e-08
6.03417e-08
5.95699e-08
5.87626e-08
5.7928e-08
5.70752e-08
5.62144e-08
5.53567e-08
5.45149e-08
5.37033e-08
5.29379e-08
5.22371e-08
5.16224e-08
5.11186e-08
5.07554e-08
5.05689e-08
5.06036e-08
5.09162e-08
5.1581e-08
5.26983e-08
5.44091e-08
5.69209e-08
6.05556e-08
6.58486e-08
7.37733e-08
8.63328e-08
1.08476e-07
1.56739e-07
3.32399e-07
3.79794e-07
1.79123e-07
1.2402e-07
9.87564e-08
8.44324e-08
7.53898e-08
6.93378e-08
6.51626e-08
6.22522e-08
6.02384e-08
5.88844e-08
5.80292e-08
5.75583e-08
5.73874e-08
5.74521e-08
5.77021e-08
5.80971e-08
5.86042e-08
5.91957e-08
5.98485e-08
6.05428e-08
6.12612e-08
6.1989e-08
6.27128e-08
6.34213e-08
6.41041e-08
6.47524e-08
6.53581e-08
6.59144e-08
6.64151e-08
6.6855e-08
6.72297e-08
6.75355e-08
6.77693e-08
6.79288e-08
6.80125e-08
6.80192e-08
6.79486e-08
6.78009e-08
6.75769e-08
6.72782e-08
6.69069e-08
6.64656e-08
6.59577e-08
6.53872e-08
6.47588e-08
6.40777e-08
6.33501e-08
6.25828e-08
6.17833e-08
6.09602e-08
6.01231e-08
5.92823e-08
5.84499e-08
5.76389e-08
5.68644e-08
5.61432e-08
5.54948e-08
5.49417e-08
5.45104e-08
5.42325e-08
5.41464e-08
5.42998e-08
5.47538e-08
5.55884e-08
5.69122e-08
5.88781e-08
6.17113e-08
6.57623e-08
7.16141e-08
8.03278e-08
9.40877e-08
1.18292e-07
1.7098e-07
3.62643e-07
4.12522e-07
1.94546e-07
1.34671e-07
1.07197e-07
9.15948e-08
8.17206e-08
7.50863e-08
7.0483e-08
6.72464e-08
6.49776e-08
6.34198e-08
6.2399e-08
6.17917e-08
6.15068e-08
6.14753e-08
6.16432e-08
6.19675e-08
6.24129e-08
6.29503e-08
6.3555e-08
6.42061e-08
6.48854e-08
6.55773e-08
6.6268e-08
6.69456e-08
6.75993e-08
6.82199e-08
6.87991e-08
6.93298e-08
6.98058e-08
7.02217e-08
7.0573e-08
7.08559e-08
7.10674e-08
7.12052e-08
7.12676e-08
7.12536e-08
7.11631e-08
7.09962e-08
7.0754e-08
7.04381e-08
7.00506e-08
6.95946e-08
6.90734e-08
6.84914e-08
6.78534e-08
6.71648e-08
6.64322e-08
6.56625e-08
6.48636e-08
6.40445e-08
6.32151e-08
6.23862e-08
6.15703e-08
6.07812e-08
6.00344e-08
5.93478e-08
5.87417e-08
5.82399e-08
5.78703e-08
5.76664e-08
5.76691e-08
5.79291e-08
5.85118e-08
5.95029e-08
6.10188e-08
6.32241e-08
6.63616e-08
7.08089e-08
7.71953e-08
8.66667e-08
1.01582e-07
1.27774e-07
1.84735e-07
3.91853e-07
4.44646e-07
2.09686e-07
1.45129e-07
1.15489e-07
9.86373e-08
8.79517e-08
8.07513e-08
7.57336e-08
7.21831e-08
6.96702e-08
6.79191e-08
6.67425e-08
6.6008e-08
6.5618e-08
6.54987e-08
6.55925e-08
6.58535e-08
6.62443e-08
6.67341e-08
6.72968e-08
6.79103e-08
6.85557e-08
6.92164e-08
6.98782e-08
7.05284e-08
7.11561e-08
7.17516e-08
7.23064e-08
7.28132e-08
7.32656e-08
7.36581e-08
7.3986e-08
7.42457e-08
7.44339e-08
7.45486e-08
7.4588e-08
7.45513e-08
7.44382e-08
7.42492e-08
7.39853e-08
7.36484e-08
7.32408e-08
7.27656e-08
7.22265e-08
7.16278e-08
7.09748e-08
7.02731e-08
6.95294e-08
6.87511e-08
6.79463e-08
6.71244e-08
6.62955e-08
6.54711e-08
6.46641e-08
6.38888e-08
6.31615e-08
6.25008e-08
6.1928e-08
6.14682e-08
6.11506e-08
6.10105e-08
6.10912e-08
6.14466e-08
6.2146e-08
6.32805e-08
6.49744e-08
6.74033e-08
7.08266e-08
7.56485e-08
8.25424e-08
9.27352e-08
1.08754e-07
1.36845e-07
1.97891e-07
4.19791e-07
4.7605e-07
2.24489e-07
1.55358e-07
1.23603e-07
1.05533e-07
9.4058e-08
8.63086e-08
8.08904e-08
7.7038e-08
7.42918e-08
7.23569e-08
7.10334e-08
7.01798e-08
6.96924e-08
6.94925e-08
6.95188e-08
6.97227e-08
7.00648e-08
7.05123e-08
7.10379e-08
7.16183e-08
7.22336e-08
7.28666e-08
7.35024e-08
7.41279e-08
7.47316e-08
7.53036e-08
7.58352e-08
7.63187e-08
7.67476e-08
7.71164e-08
7.74204e-08
7.76557e-08
7.78193e-08
7.79089e-08
7.79231e-08
7.7861e-08
7.77224e-08
7.7508e-08
7.72189e-08
7.68572e-08
7.64253e-08
7.59265e-08
7.53647e-08
7.47445e-08
7.40713e-08
7.33511e-08
7.25908e-08
7.1798e-08
7.09812e-08
7.01502e-08
6.93154e-08
6.84888e-08
6.76836e-08
6.69149e-08
6.61996e-08
6.5557e-08
6.50095e-08
6.4583e-08
6.43084e-08
6.42228e-08
6.43715e-08
6.48115e-08
6.56158e-08
6.6881e-08
6.87385e-08
7.13746e-08
7.50645e-08
8.02372e-08
8.76083e-08
9.84813e-08
1.15542e-07
1.45429e-07
2.10339e-07
4.46226e-07
5.06642e-07
2.3891e-07
1.65326e-07
1.31513e-07
1.12259e-07
1.00019e-07
9.17384e-08
8.5934e-08
8.17915e-08
7.88222e-08
7.67125e-08
7.52501e-08
7.42849e-08
7.37066e-08
7.34321e-08
7.33966e-08
7.35486e-08
7.38465e-08
7.4256e-08
7.47482e-08
7.52988e-08
7.5887e-08
7.64947e-08
7.71065e-08
7.77088e-08
7.82896e-08
7.88388e-08
7.93473e-08
7.98073e-08
8.02122e-08
8.05563e-08
8.08349e-08
8.1044e-08
8.11808e-08
8.1243e-08
8.12292e-08
8.11386e-08
8.09712e-08
8.07278e-08
8.04097e-08
8.0019e-08
7.95585e-08
7.90316e-08
7.84424e-08
7.77959e-08
7.70975e-08
7.63536e-08
7.55713e-08
7.47585e-08
7.39241e-08
7.30781e-08
7.22314e-08
7.13963e-08
7.05867e-08
6.98179e-08
6.91077e-08
6.8476e-08
6.79462e-08
6.75452e-08
6.73053e-08
6.72652e-08
6.74723e-08
6.79865e-08
6.88843e-08
7.02672e-08
7.22736e-08
7.50997e-08
7.90355e-08
8.45334e-08
9.2348e-08
1.03855e-07
1.21888e-07
1.53453e-07
2.21975e-07
4.70935e-07
5.3635e-07
2.52915e-07
1.75009e-07
1.392e-07
1.188e-07
1.05819e-07
9.70255e-08
9.08492e-08
8.64283e-08
8.32456e-08
8.09695e-08
7.93756e-08
7.83052e-08
7.7642e-08
7.72981e-08
7.72054e-08
7.73096e-08
7.75671e-08
7.79418e-08
7.84034e-08
7.89265e-08
7.94895e-08
8.00734e-08
8.06622e-08
8.12418e-08
8.18e-08
8.23261e-08
8.28108e-08
8.32463e-08
8.36258e-08
8.39434e-08
8.41944e-08
8.4375e-08
8.44822e-08
8.45139e-08
8.44687e-08
8.4346e-08
8.4146e-08
8.38695e-08
8.35181e-08
8.30941e-08
8.26005e-08
8.20409e-08
8.14196e-08
8.07418e-08
8.00132e-08
7.92404e-08
7.84309e-08
7.75928e-08
7.67354e-08
7.58689e-08
7.50046e-08
7.41553e-08
7.33352e-08
7.25602e-08
7.18487e-08
7.12213e-08
7.07021e-08
7.03192e-08
7.01061e-08
7.0103e-08
7.03592e-08
7.09372e-08
7.19171e-08
7.34046e-08
7.55447e-08
7.85427e-08
8.27022e-08
8.84973e-08
9.67188e-08
1.08808e-07
1.27736e-07
1.60847e-07
2.32697e-07
4.93705e-07
5.65124e-07
2.66482e-07
1.84391e-07
1.46651e-07
1.25142e-07
1.11446e-07
1.02159e-07
9.56248e-08
9.09367e-08
8.755e-08
8.51155e-08
8.33967e-08
8.22269e-08
8.14838e-08
8.1075e-08
8.09289e-08
8.09888e-08
8.12087e-08
8.15509e-08
8.19838e-08
8.2481e-08
8.30196e-08
8.35803e-08
8.41463e-08
8.4703e-08
8.52378e-08
8.57397e-08
8.61992e-08
8.66083e-08
8.69601e-08
8.72486e-08
8.74692e-08
8.76181e-08
8.76922e-08
8.76896e-08
8.76092e-08
8.74502e-08
8.72132e-08
8.68992e-08
8.65099e-08
8.60479e-08
8.55163e-08
8.49189e-08
8.42606e-08
8.35464e-08
8.27826e-08
8.19759e-08
8.1134e-08
8.02654e-08
7.93797e-08
7.84873e-08
7.76001e-08
7.6731e-08
7.58948e-08
7.51078e-08
7.43889e-08
7.37595e-08
7.32444e-08
7.28725e-08
7.26785e-08
7.2704e-08
7.30002e-08
7.36319e-08
7.46821e-08
7.62608e-08
7.85188e-08
8.16696e-08
8.60293e-08
9.20915e-08
1.0068e-07
1.13295e-07
1.33033e-07
1.67544e-07
2.42409e-07
5.14329e-07
5.92936e-07
2.79597e-07
1.93462e-07
1.53858e-07
1.31279e-07
1.16894e-07
1.07131e-07
1.00253e-07
9.53091e-08
9.17273e-08
8.91416e-08
8.73042e-08
8.60402e-08
8.52216e-08
8.47516e-08
8.45553e-08
8.45733e-08
8.47576e-08
8.50689e-08
8.54743e-08
8.59461e-08
8.64607e-08
8.69979e-08
8.75404e-08
8.80731e-08
8.8583e-08
8.90587e-08
8.94908e-08
8.98708e-08
9.01918e-08
9.04479e-08
9.06344e-08
9.07475e-08
9.07844e-08
9.07432e-08
9.06228e-08
9.04228e-08
9.01439e-08
8.97873e-08
8.9355e-08
8.88497e-08
8.82749e-08
8.76347e-08
8.69339e-08
8.61782e-08
8.53739e-08
8.4528e-08
8.36486e-08
8.27443e-08
8.18251e-08
8.09018e-08
7.99863e-08
7.90922e-08
7.82344e-08
7.74299e-08
7.66979e-08
7.60604e-08
7.55429e-08
7.51752e-08
7.49929e-08
7.50389e-08
7.5366e-08
7.6041e-08
7.71496e-08
7.88058e-08
8.11651e-08
8.44485e-08
8.89833e-08
9.52803e-08
1.04192e-07
1.17273e-07
1.37728e-07
1.73479e-07
2.51016e-07
5.3261e-07
6.19779e-07
2.92256e-07
2.0222e-07
1.60818e-07
1.37208e-07
1.2216e-07
1.11939e-07
1.04731e-07
9.95414e-08
9.57728e-08
9.30427e-08
9.10922e-08
8.97386e-08
8.88482e-08
8.83201e-08
8.8076e-08
8.80541e-08
8.82043e-08
8.84857e-08
8.88639e-08
8.93102e-08
8.98002e-08
9.0313e-08
9.08305e-08
9.13373e-08
9.18199e-08
9.22669e-08
9.26683e-08
9.30158e-08
9.33022e-08
9.35217e-08
9.36696e-08
9.37422e-08
9.37369e-08
9.36518e-08
9.34861e-08
9.32397e-08
9.29133e-08
9.25085e-08
9.20275e-08
9.14733e-08
9.08496e-08
9.01608e-08
8.94121e-08
8.86093e-08
8.7759e-08
8.68685e-08
8.59462e-08
8.50011e-08
8.40432e-08
8.30836e-08
8.21348e-08
8.12104e-08
8.03259e-08
7.94984e-08
7.87478e-08
7.80963e-08
7.75702e-08
7.72e-08
7.70221e-08
7.70805e-08
7.74293e-08
7.81372e-08
7.92922e-08
8.10113e-08
8.34547e-08
8.68497e-08
9.1533e-08
9.80303e-08
1.07219e-07
1.207e-07
1.41772e-07
1.78592e-07
2.58432e-07
5.48361e-07
6.45668e-07
3.04467e-07
2.10669e-07
1.67534e-07
1.42931e-07
1.27244e-07
1.16583e-07
1.09058e-07
1.03633e-07
9.96853e-08
9.68169e-08
9.47582e-08
9.33191e-08
9.23602e-08
9.17764e-08
9.14865e-08
9.14261e-08
9.15429e-08
9.17945e-08
9.21454e-08
9.25656e-08
9.30298e-08
9.35164e-08
9.40068e-08
9.44851e-08
9.49374e-08
9.5352e-08
9.57189e-08
9.60294e-08
9.62766e-08
9.64545e-08
9.65585e-08
9.65851e-08
9.65317e-08
9.63969e-08
9.61797e-08
9.58806e-08
9.55005e-08
9.50411e-08
9.45051e-08
9.38957e-08
9.32169e-08
9.24735e-08
9.16707e-08
9.08149e-08
8.99129e-08
8.89723e-08
8.80016e-08
8.70102e-08
8.60083e-08
8.50074e-08
8.402e-08
8.30603e-08
8.21438e-08
8.12881e-08
8.05133e-08
7.98423e-08
7.93015e-08
7.89222e-08
7.87414e-08
7.8804e-08
7.91654e-08
7.98955e-08
8.10844e-08
8.28517e-08
8.53612e-08
8.88454e-08
9.36491e-08
1.0031e-07
1.09727e-07
1.23538e-07
1.45121e-07
1.82825e-07
2.64573e-07
5.61406e-07
6.70638e-07
3.16245e-07
2.1882e-07
1.74015e-07
1.48454e-07
1.32153e-07
1.21068e-07
1.13238e-07
1.07586e-07
1.03467e-07
1.00466e-07
9.83032e-08
9.67819e-08
9.57572e-08
9.51199e-08
9.47856e-08
9.46873e-08
9.47712e-08
9.49928e-08
9.53155e-08
9.57083e-08
9.61449e-08
9.6603e-08
9.70635e-08
9.75098e-08
9.7928e-08
9.8306e-08
9.86336e-08
9.89021e-08
9.91045e-08
9.92349e-08
9.92888e-08
9.9263e-08
9.9155e-08
9.89634e-08
9.8688e-08
9.83292e-08
9.78882e-08
9.73673e-08
9.67693e-08
9.60977e-08
9.5357e-08
9.45522e-08
9.3689e-08
9.27739e-08
9.18139e-08
9.08172e-08
8.97924e-08
8.87491e-08
8.76978e-08
8.66502e-08
8.56192e-08
8.46189e-08
8.36653e-08
8.27762e-08
8.19719e-08
8.12756e-08
8.07141e-08
8.03192e-08
8.01283e-08
8.01871e-08
8.05517e-08
8.12932e-08
8.25032e-08
8.43033e-08
8.68601e-08
9.04104e-08
9.53049e-08
1.02091e-07
1.11684e-07
1.25752e-07
1.47731e-07
1.86126e-07
2.69362e-07
5.71581e-07
6.94742e-07
3.27615e-07
2.26691e-07
1.80273e-07
1.53789e-07
1.36894e-07
1.25401e-07
1.17277e-07
1.11407e-07
1.07122e-07
1.03993e-07
1.01731e-07
1.0013e-07
9.90421e-08
9.83528e-08
9.7975e-08
9.78395e-08
9.78901e-08
9.80812e-08
9.83744e-08
9.8738e-08
9.91446e-08
9.95713e-08
9.99984e-08
1.00409e-07
1.00788e-07
1.01125e-07
1.01407e-07
1.01628e-07
1.01779e-07
1.01855e-07
1.01852e-07
1.01766e-07
1.01596e-07
1.0134e-07
1.00999e-07
1.00572e-07
1.00063e-07
9.94723e-08
9.88045e-08
9.80632e-08
9.72531e-08
9.63796e-08
9.54489e-08
9.44676e-08
9.34433e-08
9.23841e-08
9.12991e-08
9.0198e-08
8.90918e-08
8.79922e-08
8.69121e-08
8.58662e-08
8.48703e-08
8.39426e-08
8.31034e-08
8.23762e-08
8.17881e-08
8.1371e-08
8.11628e-08
8.12095e-08
8.1568e-08
8.23099e-08
8.35279e-08
8.53449e-08
8.79298e-08
9.15219e-08
9.64764e-08
1.03348e-07
1.13062e-07
1.27308e-07
1.49566e-07
1.88445e-07
2.72728e-07
5.78737e-07
7.18053e-07
3.38613e-07
2.34303e-07
1.86326e-07
1.5895e-07
1.41482e-07
1.29593e-07
1.21185e-07
1.15104e-07
1.10659e-07
1.07407e-07
1.05048e-07
1.03371e-07
1.02221e-07
1.01481e-07
1.0106e-07
1.00887e-07
1.00904e-07
1.01064e-07
1.01326e-07
1.01658e-07
1.02032e-07
1.02424e-07
1.02813e-07
1.03183e-07
1.03519e-07
1.03808e-07
1.04039e-07
1.04205e-07
1.04297e-07
1.04312e-07
1.04243e-07
1.0409e-07
1.03849e-07
1.0352e-07
1.03103e-07
1.026e-07
1.02013e-07
1.01345e-07
1.00598e-07
9.9779e-08
9.88913e-08
9.79413e-08
9.69354e-08
9.58806e-08
9.47848e-08
9.36564e-08
9.25048e-08
9.134e-08
9.01729e-08
8.90156e-08
8.78813e-08
8.67843e-08
8.5741e-08
8.47695e-08
8.38902e-08
8.31266e-08
8.25059e-08
8.20602e-08
8.18275e-08
8.1854e-08
8.21967e-08
8.29278e-08
8.41404e-08
8.59582e-08
8.85511e-08
9.216e-08
9.71425e-08
1.04057e-07
1.13835e-07
1.28178e-07
1.50591e-07
1.89742e-07
2.74611e-07
5.82742e-07
7.40659e-07
3.49278e-07
2.41686e-07
1.92197e-07
1.63955e-07
1.4593e-07
1.33658e-07
1.24974e-07
1.18688e-07
1.14087e-07
1.10716e-07
1.08263e-07
1.06511e-07
1.05301e-07
1.04511e-07
1.04048e-07
1.03838e-07
1.03821e-07
1.03947e-07
1.04177e-07
1.04475e-07
1.04812e-07
1.05165e-07
1.05513e-07
1.05837e-07
1.06123e-07
1.06357e-07
1.06531e-07
1.06634e-07
1.0666e-07
1.06603e-07
1.06461e-07
1.0623e-07
1.05909e-07
1.05497e-07
1.04996e-07
1.04406e-07
1.03732e-07
1.02976e-07
1.02142e-07
1.01235e-07
1.00261e-07
9.92254e-08
9.8136e-08
9.69998e-08
9.5825e-08
9.46204e-08
9.33954e-08
9.21604e-08
9.09265e-08
8.97058e-08
8.85115e-08
8.73584e-08
8.62625e-08
8.52419e-08
8.43172e-08
8.35117e-08
8.28527e-08
8.23719e-08
8.21076e-08
8.21056e-08
8.24231e-08
8.31321e-08
8.43257e-08
8.61278e-08
8.87081e-08
9.23082e-08
9.72856e-08
1.042e-07
1.13984e-07
1.2834e-07
1.50779e-07
1.89979e-07
2.74958e-07
5.83486e-07
7.62662e-07
3.59658e-07
2.48871e-07
1.97911e-07
1.68825e-07
1.50257e-07
1.37612e-07
1.28658e-07
1.22172e-07
1.17421e-07
1.13932e-07
1.11388e-07
1.09564e-07
1.08295e-07
1.07456e-07
1.06951e-07
1.06703e-07
1.06651e-07
1.06742e-07
1.06936e-07
1.07197e-07
1.07495e-07
1.07805e-07
1.08105e-07
1.08378e-07
1.08607e-07
1.0878e-07
1.08887e-07
1.08919e-07
1.08869e-07
1.08733e-07
1.08506e-07
1.08187e-07
1.07775e-07
1.0727e-07
1.06673e-07
1.05986e-07
1.05214e-07
1.04359e-07
1.03427e-07
1.02423e-07
1.01352e-07
1.00223e-07
9.90408e-08
9.78147e-08
9.65529e-08
9.52645e-08
9.3959e-08
9.26472e-08
9.13401e-08
9.00502e-08
8.87905e-08
8.75758e-08
8.64221e-08
8.53474e-08
8.43721e-08
8.35194e-08
8.28163e-08
8.22943e-08
8.19914e-08
8.19531e-08
8.2236e-08
8.29117e-08
8.40728e-08
8.58425e-08
8.83897e-08
9.19547e-08
9.68935e-08
1.03763e-07
1.13492e-07
1.27776e-07
1.50108e-07
1.8913e-07
2.7373e-07
5.80885e-07
7.84175e-07
3.69807e-07
2.55896e-07
2.03495e-07
1.73582e-07
1.54483e-07
1.41471e-07
1.32254e-07
1.25573e-07
1.20673e-07
1.1707e-07
1.14436e-07
1.12541e-07
1.11214e-07
1.10327e-07
1.0978e-07
1.09495e-07
1.09406e-07
1.09462e-07
1.09618e-07
1.09839e-07
1.10093e-07
1.10355e-07
1.10602e-07
1.10816e-07
1.10982e-07
1.11085e-07
1.11116e-07
1.11067e-07
1.10932e-07
1.10704e-07
1.10382e-07
1.09964e-07
1.09449e-07
1.08838e-07
1.08134e-07
1.07338e-07
1.06456e-07
1.05491e-07
1.0445e-07
1.03337e-07
1.0216e-07
1.00926e-07
9.96418e-08
9.83168e-08
9.69594e-08
9.55791e-08
9.4186e-08
9.27905e-08
9.14041e-08
9.00389e-08
8.87083e-08
8.74268e-08
8.62103e-08
8.50766e-08
8.40458e-08
8.31408e-08
8.23881e-08
8.18188e-08
8.14704e-08
8.13876e-08
8.16265e-08
8.22576e-08
8.33724e-08
8.50929e-08
8.75859e-08
9.10892e-08
9.59552e-08
1.02735e-07
1.12347e-07
1.2647e-07
1.48562e-07
1.87174e-07
2.70896e-07
5.74871e-07
8.05319e-07
3.79782e-07
2.62797e-07
2.08979e-07
1.78253e-07
1.58629e-07
1.45257e-07
1.35779e-07
1.28905e-07
1.23859e-07
1.20144e-07
1.17423e-07
1.15458e-07
1.14075e-07
1.1314e-07
1.12552e-07
1.12228e-07
1.12102e-07
1.1212e-07
1.12237e-07
1.12414e-07
1.1262e-07
1.12829e-07
1.13017e-07
1.13165e-07
1.13258e-07
1.13283e-07
1.13229e-07
1.13089e-07
1.12855e-07
1.12525e-07
1.12095e-07
1.11564e-07
1.10934e-07
1.10204e-07
1.09379e-07
1.08462e-07
1.07457e-07
1.0637e-07
1.05206e-07
1.03973e-07
1.02678e-07
1.01328e-07
9.99325e-08
9.84993e-08
9.70378e-08
9.55577e-08
9.40692e-08
9.25831e-08
9.11108e-08
8.96646e-08
8.82575e-08
8.6904e-08
8.56197e-08
8.44222e-08
8.33311e-08
8.23687e-08
8.15612e-08
8.09389e-08
8.05384e-08
8.04037e-08
8.05894e-08
8.11651e-08
8.22204e-08
8.38749e-08
8.6293e-08
8.97082e-08
9.44671e-08
1.01111e-07
1.10545e-07
1.24419e-07
1.46135e-07
1.84102e-07
2.66442e-07
5.65419e-07
8.26219e-07
3.8964e-07
2.69616e-07
2.14394e-07
1.82862e-07
1.62719e-07
1.48987e-07
1.39252e-07
1.32187e-07
1.26996e-07
1.23171e-07
1.20364e-07
1.18331e-07
1.16893e-07
1.15912e-07
1.15282e-07
1.1492e-07
1.14757e-07
1.14735e-07
1.14809e-07
1.14939e-07
1.15093e-07
1.15242e-07
1.15364e-07
1.15439e-07
1.1545e-07
1.15387e-07
1.15237e-07
1.14993e-07
1.14649e-07
1.14203e-07
1.13651e-07
1.12994e-07
1.12234e-07
1.11371e-07
1.10411e-07
1.09357e-07
1.08216e-07
1.06992e-07
1.05694e-07
1.04328e-07
1.02903e-07
1.01427e-07
9.99089e-08
9.83576e-08
9.67828e-08
9.51946e-08
9.36031e-08
9.20195e-08
9.0455e-08
8.8922e-08
8.74332e-08
8.60029e-08
8.46464e-08
8.33807e-08
8.2225e-08
8.1201e-08
8.03339e-08
7.96533e-08
7.91946e-08
7.9001e-08
7.91251e-08
7.96349e-08
8.06177e-08
8.21904e-08
8.45131e-08
8.78141e-08
9.2432e-08
9.88959e-08
1.0809e-07
1.21627e-07
1.4283e-07
1.7992e-07
2.60377e-07
5.5254e-07
8.47e-07
3.9944e-07
2.76392e-07
2.19772e-07
1.87435e-07
1.66773e-07
1.52684e-07
1.42691e-07
1.35435e-07
1.30102e-07
1.26168e-07
1.23277e-07
1.21178e-07
1.19686e-07
1.18659e-07
1.1799e-07
1.17589e-07
1.17387e-07
1.17325e-07
1.17354e-07
1.17433e-07
1.17529e-07
1.17613e-07
1.17661e-07
1.17653e-07
1.17574e-07
1.1741e-07
1.17151e-07
1.16791e-07
1.16323e-07
1.15746e-07
1.15058e-07
1.14259e-07
1.13353e-07
1.12342e-07
1.11231e-07
1.10025e-07
1.08732e-07
1.07358e-07
1.05911e-07
1.044e-07
1.02832e-07
1.01218e-07
9.95666e-08
9.78873e-08
9.61902e-08
9.44855e-08
9.27837e-08
9.10959e-08
8.94334e-08
8.78083e-08
8.62332e-08
8.47219e-08
8.32892e-08
8.19517e-08
8.07277e-08
7.96383e-08
7.87076e-08
7.79642e-08
7.74421e-08
7.71832e-08
7.7238e-08
7.76721e-08
7.85704e-08
8.00457e-08
8.22535e-08
8.54151e-08
8.98589e-08
9.60986e-08
1.04992e-07
1.18105e-07
1.38664e-07
1.74646e-07
2.52725e-07
5.36291e-07
8.6778e-07
4.09238e-07
2.83162e-07
2.25141e-07
1.91997e-07
1.70814e-07
1.56365e-07
1.46114e-07
1.38668e-07
1.33193e-07
1.29151e-07
1.26178e-07
1.24015e-07
1.22471e-07
1.21401e-07
1.20693e-07
1.20255e-07
1.20014e-07
1.19909e-07
1.1989e-07
1.19914e-07
1.19947e-07
1.19959e-07
1.19924e-07
1.19824e-07
1.19643e-07
1.19366e-07
1.18985e-07
1.18494e-07
1.17886e-07
1.17162e-07
1.1632e-07
1.15363e-07
1.14294e-07
1.13117e-07
1.11838e-07
1.10465e-07
1.09004e-07
1.07464e-07
1.05854e-07
1.04183e-07
1.02461e-07
1.00697e-07
9.89015e-08
9.70844e-08
9.52562e-08
9.34273e-08
9.16084e-08
8.98104e-08
8.80447e-08
8.63229e-08
8.46576e-08
8.30618e-08
8.155e-08
8.01378e-08
7.88429e-08
7.76853e-08
7.6688e-08
7.58782e-08
7.52884e-08
7.49589e-08
7.49375e-08
7.52874e-08
7.60899e-08
7.74537e-08