/*--------------------------------*- C++ -*----------------------------------*\
  =========                 |
  \\      /  F ield         | OpenFOAM: The Open Source CFD Toolbox
   \\    /   O peration     | Website:  https://openfoam.org
    \\  /    A nd           | Version:  12
     \\/     M anipulation  |
\*---------------------------------------------------------------------------*/
FoamFile
{
    format      ascii;
    class       volScalarField;
    location    "3.5";
    object      k;
}
// * * * * * * * * * * * * * * * * * * * * * * * * * * * * * * * * * * * * * //

dimensions      [0 2 -2 0 0 0 0];

internalField   nonuniform List<scalar> 
5625
(
5.39035e-13
4.07142e-12
8.62786e-12
1.40638e-11
2.01835e-11
2.6839e-11
3.39219e-11
4.13487e-11
4.90505e-11
5.69676e-11
6.50466e-11
7.32382e-11
8.14966e-11
8.97783e-11
9.8042e-11
1.06248e-10
1.14359e-10
1.22337e-10
1.3015e-10
1.37762e-10
1.45142e-10
1.52259e-10
1.59085e-10
1.65592e-10
1.71755e-10
1.77549e-10
1.82952e-10
1.87942e-10
1.92502e-10
1.96613e-10
2.00262e-10
2.03433e-10
2.06116e-10
2.08301e-10
2.09981e-10
2.11149e-10
2.11802e-10
2.11939e-10
2.1156e-10
2.10666e-10
2.09261e-10
2.07353e-10
2.04948e-10
2.02056e-10
1.98689e-10
1.9486e-10
1.90584e-10
1.85879e-10
1.80761e-10
1.75252e-10
1.69373e-10
1.63147e-10
1.56598e-10
1.49752e-10
1.42636e-10
1.3528e-10
1.27712e-10
1.19964e-10
1.12068e-10
1.04057e-10
9.59666e-11
8.78328e-11
7.96932e-11
7.15871e-11
6.35558e-11
5.56431e-11
4.78958e-11
4.0365e-11
3.31077e-11
2.619e-11
1.96925e-11
1.37201e-11
8.41627e-12
3.97132e-12
5.2576e-13
3.64599e-12
3.24544e-11
7.39384e-11
1.23523e-10
1.79055e-10
2.39238e-10
3.03161e-10
3.70111e-10
4.39492e-10
5.10782e-10
5.83508e-10
6.57233e-10
7.31547e-10
8.06062e-10
8.80407e-10
9.5423e-10
1.02719e-09
1.09896e-09
1.16923e-09
1.23769e-09
1.30407e-09
1.36808e-09
1.42948e-09
1.488e-09
1.54342e-09
1.59553e-09
1.64412e-09
1.689e-09
1.73e-09
1.76698e-09
1.79979e-09
1.82831e-09
1.85244e-09
1.87209e-09
1.88719e-09
1.8977e-09
1.90357e-09
1.9048e-09
1.90138e-09
1.89334e-09
1.88071e-09
1.86354e-09
1.84191e-09
1.8159e-09
1.78562e-09
1.75119e-09
1.71273e-09
1.67041e-09
1.62439e-09
1.57485e-09
1.52197e-09
1.46598e-09
1.40708e-09
1.34551e-09
1.28152e-09
1.21535e-09
1.14729e-09
1.0776e-09
1.00657e-09
9.34517e-10
8.6174e-10
7.88566e-10
7.15333e-10
6.42394e-10
5.70116e-10
4.98891e-10
4.29134e-10
3.61296e-10
2.95877e-10
2.33449e-10
1.74697e-10
1.20503e-10
7.21246e-11
3.16565e-11
3.5562e-12
8.10599e-12
7.26962e-11
1.66706e-10
2.79862e-10
4.07111e-10
5.45331e-10
6.92319e-10
8.46366e-10
1.00606e-09
1.17017e-09
1.3376e-09
1.50733e-09
1.67842e-09
1.84997e-09
2.02112e-09
2.19106e-09
2.35901e-09
2.52422e-09
2.68596e-09
2.84355e-09
2.99634e-09
3.14368e-09
3.28498e-09
3.41968e-09
3.54724e-09
3.66716e-09
3.77898e-09
3.88227e-09
3.97663e-09
4.06172e-09
4.13722e-09
4.20285e-09
4.25837e-09
4.30358e-09
4.33833e-09
4.3625e-09
4.37601e-09
4.37883e-09
4.37096e-09
4.35244e-09
4.32336e-09
4.28384e-09
4.23405e-09
4.17419e-09
4.10449e-09
4.02524e-09
3.93674e-09
3.83933e-09
3.73341e-09
3.61938e-09
3.49769e-09
3.36881e-09
3.23325e-09
3.09155e-09
2.94426e-09
2.79197e-09
2.63531e-09
2.4749e-09
2.31142e-09
2.14556e-09
1.97804e-09
1.80961e-09
1.64103e-09
1.47313e-09
1.30675e-09
1.14279e-09
9.82226e-10
8.26103e-10
6.75597e-10
5.32064e-10
3.97149e-10
2.72983e-10
1.62594e-10
7.08992e-11
7.90529e-12
1.3409e-11
1.20452e-10
2.76802e-10
4.6565e-10
6.78614e-10
9.1042e-10
1.15729e-09
1.41628e-09
1.68494e-09
1.96117e-09
2.24307e-09
2.5289e-09
2.81705e-09
3.10601e-09
3.39432e-09
3.6806e-09
3.96353e-09
4.24185e-09
4.51433e-09
4.77982e-09
5.03721e-09
5.28542e-09
5.52345e-09
5.75036e-09
5.96523e-09
6.16724e-09
6.35559e-09
6.52957e-09
6.68851e-09
6.83183e-09
6.95898e-09
7.0695e-09
7.16298e-09
7.23911e-09
7.29761e-09
7.33828e-09
7.361e-09
7.3657e-09
7.3524e-09
7.32117e-09
7.27215e-09
7.20554e-09
7.12163e-09
7.02075e-09
6.90332e-09
6.76978e-09
6.62066e-09
6.45656e-09
6.27811e-09
6.086e-09
5.88099e-09
5.66388e-09
5.43552e-09
5.19681e-09
4.94869e-09
4.69216e-09
4.42826e-09
4.15807e-09
3.8827e-09
3.60333e-09
3.32118e-09
3.0375e-09
2.7536e-09
2.47087e-09
2.19075e-09
1.91477e-09
1.64458e-09
1.38199e-09
1.12902e-09
8.88019e-10
6.61818e-10
4.54072e-10
2.69896e-10
1.1744e-10
1.30732e-11
1.9318e-11
1.73636e-10
3.9939e-10
6.72568e-10
9.81168e-10
1.31757e-09
1.67628e-09
2.05296e-09
2.44399e-09
2.84626e-09
3.25695e-09
3.67352e-09
4.09357e-09
4.51486e-09
4.93526e-09
5.35275e-09
5.76539e-09
6.17131e-09
6.56875e-09
6.95599e-09
7.3314e-09
7.69345e-09
8.04064e-09
8.3716e-09
8.685e-09
8.97963e-09
9.25433e-09
9.50806e-09
9.73985e-09
9.94883e-09
1.01342e-08
1.02954e-08
1.04316e-08
1.05426e-08
1.06278e-08
1.06871e-08
1.07201e-08
1.07269e-08
1.07074e-08
1.06617e-08
1.05901e-08
1.04928e-08
1.03703e-08
1.02231e-08
1.00517e-08
9.85686e-09
9.63928e-09
9.39985e-09
9.1395e-09
8.85924e-09
8.56017e-09
8.24346e-09
7.91036e-09
7.56217e-09
7.20028e-09
6.82615e-09
6.44128e-09
6.04725e-09
5.64572e-09
5.23838e-09
4.82702e-09
4.41349e-09
3.99971e-09
3.5877e-09
3.17961e-09
2.77769e-09
2.38437e-09
2.00234e-09
1.63458e-09
1.28455e-09
9.56429e-10
6.5553e-10
3.89237e-10
1.69212e-10
1.88249e-11
2.56836e-11
2.30918e-10
5.31401e-10
8.95387e-10
1.30702e-09
1.75621e-09
2.23562e-09
2.73944e-09
3.26281e-09
3.80151e-09
4.35173e-09
4.91001e-09
5.47312e-09
6.03801e-09
6.60182e-09
7.16179e-09
7.71532e-09
8.25988e-09
8.79308e-09
9.31263e-09
9.81633e-09
1.03021e-08
1.07679e-08
1.1212e-08
1.16325e-08
1.20277e-08
1.23963e-08
1.27366e-08
1.30476e-08
1.33279e-08
1.35765e-08
1.37926e-08
1.39753e-08
1.4124e-08
1.42382e-08
1.43174e-08
1.43616e-08
1.43704e-08
1.43441e-08
1.42826e-08
1.41863e-08
1.40556e-08
1.3891e-08
1.36933e-08
1.34631e-08
1.32015e-08
1.29094e-08
1.2588e-08
1.22385e-08
1.18624e-08
1.1461e-08
1.1036e-08
1.0589e-08
1.01218e-08
9.63627e-09
9.13435e-09
8.61807e-09
8.08957e-09
7.55105e-09
7.00483e-09
6.45329e-09
5.89893e-09
5.34436e-09
4.79232e-09
4.24568e-09
3.70751e-09
3.18111e-09
2.6701e-09
2.17851e-09
1.71101e-09
1.27317e-09
8.72088e-10
5.17523e-10
2.24873e-10
2.50101e-11
3.23961e-11
2.91314e-10
6.70574e-10
1.13028e-09
1.65054e-09
2.21868e-09
2.82544e-09
3.46349e-09
4.12665e-09
4.80956e-09
5.50735e-09
6.2156e-09
6.93018e-09
7.64718e-09
8.36294e-09
9.07394e-09
9.77683e-09
1.04684e-08
1.11456e-08
1.18055e-08
1.24453e-08
1.30622e-08
1.36539e-08
1.42179e-08
1.4752e-08
1.5254e-08
1.5722e-08
1.61543e-08
1.65491e-08
1.69049e-08
1.72205e-08
1.74948e-08
1.77266e-08
1.79152e-08
1.80599e-08
1.81603e-08
1.8216e-08
1.82269e-08
1.8193e-08
1.81146e-08
1.79919e-08
1.78255e-08
1.76161e-08
1.73645e-08
1.70718e-08
1.67391e-08
1.63678e-08
1.59592e-08
1.55151e-08
1.50371e-08
1.45271e-08
1.39871e-08
1.34192e-08
1.28258e-08
1.22091e-08
1.15717e-08
1.09161e-08
1.02451e-08
9.56147e-09
8.86817e-09
8.16824e-09
7.46489e-09
6.76144e-09
6.06138e-09
5.3684e-09
4.68642e-09
4.01964e-09
3.37268e-09
2.75067e-09
2.15951e-09
1.60625e-09
1.0998e-09
6.52423e-10
2.83409e-10
3.15156e-11
3.9368e-11
3.5404e-10
8.15103e-10
1.3742e-09
2.00724e-09
2.69889e-09
3.43792e-09
4.21543e-09
5.02389e-09
5.85673e-09
6.70802e-09
7.57232e-09
8.44455e-09
9.31993e-09
1.01939e-08
1.10623e-08
1.19208e-08
1.27656e-08
1.35929e-08
1.4399e-08
1.51806e-08
1.59344e-08
1.66573e-08
1.73463e-08
1.79987e-08
1.86119e-08
1.91836e-08
1.97114e-08
2.01935e-08
2.0628e-08
2.10133e-08
2.13479e-08
2.16307e-08
2.18607e-08
2.2037e-08
2.21591e-08
2.22266e-08
2.22393e-08
2.21973e-08
2.21008e-08
2.19503e-08
2.17464e-08
2.14899e-08
2.1182e-08
2.08238e-08
2.04168e-08
1.99626e-08
1.9463e-08
1.892e-08
1.83356e-08
1.77122e-08
1.70523e-08
1.63584e-08
1.56333e-08
1.48799e-08
1.41013e-08
1.33007e-08
1.24813e-08
1.16466e-08
1.08003e-08
9.94608e-09
9.08787e-09
8.22975e-09
7.376e-09
6.53116e-09
5.7e-09
4.8877e-09
4.09987e-09
3.34278e-09
2.62361e-09
1.95089e-09
1.33543e-09
7.92018e-10
3.43988e-10
3.82485e-11
4.65256e-11
4.18433e-10
9.63464e-10
1.62457e-09
2.37336e-09
3.19176e-09
4.06656e-09
4.98721e-09
5.94484e-09
6.93165e-09
7.94059e-09
8.9652e-09
9.99943e-09
1.10376e-08
1.20743e-08
1.31044e-08
1.41229e-08
1.51252e-08
1.61068e-08
1.70634e-08
1.79908e-08
1.88852e-08
1.97429e-08
2.05604e-08
2.13345e-08
2.20619e-08
2.274e-08
2.33661e-08
2.39377e-08
2.44528e-08
2.49094e-08
2.53059e-08
2.56408e-08
2.59129e-08
2.61214e-08
2.62654e-08
2.63446e-08
2.63588e-08
2.6308e-08
2.61926e-08
2.6013e-08
2.57701e-08
2.54649e-08
2.50986e-08
2.46727e-08
2.41889e-08
2.36492e-08
2.30557e-08
2.24107e-08
2.17167e-08
2.09766e-08
2.01932e-08
1.93696e-08
1.85091e-08
1.76152e-08
1.66915e-08
1.57418e-08
1.47701e-08
1.37804e-08
1.27771e-08
1.17647e-08
1.07477e-08
9.73115e-09
8.72001e-09
7.71969e-09
6.7359e-09
5.77475e-09
4.84289e-09
3.94774e-09
3.09775e-09
2.303e-09
1.57615e-09
9.34642e-10
4.05883e-10
4.5128e-11
5.38051e-11
4.8392e-10
1.11434e-09
1.87916e-09
2.74564e-09
3.69291e-09
4.70572e-09
5.77191e-09
6.88119e-09
8.02455e-09
9.1938e-09
1.03814e-08
1.15804e-08
1.27841e-08
1.39863e-08
1.51809e-08
1.63622e-08
1.75247e-08
1.86632e-08
1.97727e-08
2.08485e-08
2.18859e-08
2.28806e-08
2.38287e-08
2.47262e-08
2.55696e-08
2.63557e-08
2.70813e-08
2.77437e-08
2.83405e-08
2.88692e-08
2.93282e-08
2.97156e-08
3.00301e-08
3.02707e-08
3.04365e-08
3.0527e-08
3.05421e-08
3.04819e-08
3.03466e-08
3.0137e-08
2.98538e-08
2.94985e-08
2.90723e-08
2.85771e-08
2.80149e-08
2.73878e-08
2.66984e-08
2.59494e-08
2.51438e-08
2.42847e-08
2.33756e-08
2.242e-08
2.14219e-08
2.03852e-08
1.93141e-08
1.8213e-08
1.70867e-08
1.59397e-08
1.47773e-08
1.36044e-08
1.24266e-08
1.12495e-08
1.0079e-08
8.92131e-09
7.78309e-09
6.67138e-09
5.59389e-09
4.55916e-09
3.57695e-09
2.65885e-09
1.81945e-09
1.07879e-09
4.68443e-10
5.20815e-11
6.11503e-11
5.49998e-10
1.26657e-09
2.13603e-09
3.12121e-09
4.19846e-09
5.35046e-09
6.56342e-09
7.82563e-09
9.12684e-09
1.04577e-08
1.18097e-08
1.31748e-08
1.45454e-08
1.59144e-08
1.72748e-08
1.86202e-08
1.99442e-08
2.12408e-08
2.25044e-08
2.37295e-08
2.49108e-08
2.60434e-08
2.71228e-08
2.81445e-08
2.91045e-08
2.99989e-08
3.08244e-08
3.15778e-08
3.22562e-08
3.28571e-08
3.33784e-08
3.3818e-08
3.41746e-08
3.44468e-08
3.46338e-08
3.47351e-08
3.47504e-08
3.46799e-08
3.45239e-08
3.42832e-08
3.39589e-08
3.35523e-08
3.30653e-08
3.24996e-08
3.18578e-08
3.11422e-08
3.03559e-08
2.95018e-08
2.85834e-08
2.76043e-08
2.65685e-08
2.548e-08
2.43432e-08
2.31627e-08
2.19433e-08
2.06901e-08
1.94083e-08
1.81034e-08
1.67811e-08
1.54473e-08
1.41081e-08
1.277e-08
1.14397e-08
1.01244e-08
8.83145e-09
7.56895e-09
6.34563e-09
5.17116e-09
4.0566e-09
3.01503e-09
2.06298e-09
1.22308e-09
5.31065e-10
5.90421e-11
6.85112e-11
6.16215e-10
1.41911e-09
2.39341e-09
3.49752e-09
4.70497e-09
5.99639e-09
7.35632e-09
8.77168e-09
1.02309e-08
1.17236e-08
1.32402e-08
1.47715e-08
1.63091e-08
1.78449e-08
1.93712e-08
2.08806e-08
2.2366e-08
2.38207e-08
2.52382e-08
2.66123e-08
2.79372e-08
2.92074e-08
3.04177e-08
3.1563e-08
3.2639e-08
3.36412e-08
3.45659e-08
3.54095e-08
3.61688e-08
3.6841e-08
3.74236e-08
3.79146e-08
3.83122e-08
3.86151e-08
3.88224e-08
3.89334e-08
3.89479e-08
3.88662e-08
3.86885e-08
3.84159e-08
3.80496e-08
3.75911e-08
3.70425e-08
3.64058e-08
3.56838e-08
3.48793e-08
3.39956e-08
3.30362e-08
3.20048e-08
3.09057e-08
2.97431e-08
2.85218e-08
2.72466e-08
2.59227e-08
2.45555e-08
2.31507e-08
2.17141e-08
2.02519e-08
1.87706e-08
1.72766e-08
1.57771e-08
1.4279e-08
1.27901e-08
1.13181e-08
9.87156e-09
8.4594e-09
7.09137e-09
5.77826e-09
4.53239e-09
3.36836e-09
2.30455e-09
1.36621e-09
5.93185e-10
6.59469e-11
7.58435e-11
6.82174e-10
1.57105e-09
2.64977e-09
3.8723e-09
5.20939e-09
6.63959e-09
8.14581e-09
9.71355e-09
1.133e-08
1.29837e-08
1.46638e-08
1.63605e-08
1.80641e-08
1.97657e-08
2.14567e-08
2.31289e-08
2.47745e-08
2.63859e-08
2.79559e-08
2.94777e-08
3.09448e-08
3.23511e-08
3.36906e-08
3.49581e-08
3.61484e-08
3.72568e-08
3.8279e-08
3.92111e-08
4.00497e-08
4.07915e-08
4.14339e-08
4.19746e-08
4.24118e-08
4.27439e-08
4.297e-08
4.30894e-08
4.31019e-08
4.30078e-08
4.28076e-08
4.25022e-08
4.20932e-08
4.15822e-08
4.09715e-08
4.02636e-08
3.94614e-08
3.85681e-08
3.75873e-08
3.6523e-08
3.53793e-08
3.41609e-08
3.28727e-08
3.15197e-08
3.01074e-08
2.86416e-08
2.71283e-08
2.55736e-08
2.39842e-08
2.23669e-08
2.07286e-08
1.90769e-08
1.74192e-08
1.57636e-08
1.41183e-08
1.24922e-08
1.08945e-08
9.33512e-09
7.82473e-09
6.37526e-09
5.00025e-09
3.71578e-09
2.54209e-09
1.50695e-09
6.5427e-10
7.27368e-11
8.31078e-11
7.47519e-10
1.72157e-09
2.90372e-09
4.24354e-09
5.70899e-09
7.2766e-09
8.92762e-09
1.06462e-08
1.24182e-08
1.4231e-08
1.60729e-08
1.79329e-08
1.98004e-08
2.16657e-08
2.35193e-08
2.53521e-08
2.71556e-08
2.89213e-08
3.06415e-08
3.23085e-08
3.39152e-08
3.5455e-08
3.69213e-08
3.83083e-08
3.96103e-08
4.08223e-08
4.19395e-08
4.29576e-08
4.38729e-08
4.46819e-08
4.53818e-08
4.597e-08
4.64445e-08
4.68039e-08
4.70469e-08
4.7173e-08
4.7182e-08
4.70743e-08
4.68503e-08
4.65113e-08
4.60589e-08
4.5495e-08
4.48221e-08
4.40431e-08
4.3161e-08
4.21795e-08
4.11025e-08
3.99344e-08
3.86799e-08
3.73439e-08
3.59319e-08
3.44494e-08
3.29024e-08
3.12973e-08
2.96406e-08
2.79391e-08
2.62e-08
2.44308e-08
2.26391e-08
2.0833e-08
1.90209e-08
1.72114e-08
1.54136e-08
1.36371e-08
1.18919e-08
1.01888e-08
8.53962e-09
6.95719e-09
5.45629e-09
4.05443e-09
2.77362e-09
1.64414e-09
7.13809e-10
7.93548e-11
9.02695e-11
8.11941e-10
1.86997e-09
3.15405e-09
4.60947e-09
6.20141e-09
7.90437e-09
9.69798e-09
1.1565e-08
1.34901e-08
1.54595e-08
1.74605e-08
1.94809e-08
2.15095e-08
2.35355e-08
2.55486e-08
2.75388e-08
2.94968e-08
3.14136e-08
3.32804e-08
3.50892e-08
3.68321e-08
3.85018e-08
4.00914e-08
4.15943e-08
4.30046e-08
4.43166e-08
4.55253e-08
4.66261e-08
4.76148e-08
4.84878e-08
4.9242e-08
4.98748e-08
5.0384e-08
5.07681e-08
5.10258e-08
5.11565e-08
5.11601e-08
5.10372e-08
5.07882e-08
5.04145e-08
4.99181e-08
4.9301e-08
4.85659e-08
4.7716e-08
4.67547e-08
4.56861e-08
4.45144e-08
4.32443e-08
4.18809e-08
4.04298e-08
3.88967e-08
3.72878e-08
3.56095e-08
3.38687e-08
3.20724e-08
3.02282e-08
2.83438e-08
2.64271e-08
2.44866e-08
2.2531e-08
2.05692e-08
1.86107e-08
1.66653e-08
1.47432e-08
1.28555e-08
1.10136e-08
9.2302e-09
7.5193e-09
5.89678e-09
4.38151e-09
2.99724e-09
1.77663e-09
7.71314e-10
8.57467e-11
9.72989e-11
8.75171e-10
2.0156e-09
3.39973e-09
4.96856e-09
6.68457e-09
8.52027e-09
1.04537e-08
1.24661e-08
1.45412e-08
1.66639e-08
1.88205e-08
2.09979e-08
2.31838e-08
2.53667e-08
2.75352e-08
2.96788e-08
3.17873e-08
3.38508e-08
3.58601e-08
3.78063e-08
3.9681e-08
4.14762e-08
4.31846e-08
4.4799e-08
4.6313e-08
4.77207e-08
4.90166e-08
5.01958e-08
5.12538e-08
5.21869e-08
5.29918e-08
5.36655e-08
5.4206e-08
5.46116e-08
5.48811e-08
5.50139e-08
5.501e-08
5.487e-08
5.45944e-08
5.41851e-08
5.36439e-08
5.29732e-08
5.21761e-08
5.12559e-08
5.02165e-08
4.90621e-08
4.77974e-08
4.64276e-08
4.49582e-08
4.3395e-08
4.17444e-08
4.00128e-08
3.82074e-08
3.63355e-08
3.44046e-08
3.24228e-08
3.03984e-08
2.83399e-08
2.62564e-08
2.41571e-08
2.20517e-08
1.99503e-08
1.78634e-08
1.58019e-08
1.37775e-08
1.18026e-08
9.89085e-09
8.05701e-09
6.31813e-09
4.69436e-09
3.21113e-09
1.90336e-09
8.26314e-10
9.18602e-11
1.04171e-10
9.36985e-10
2.15797e-09
3.63988e-09
5.31953e-09
7.15675e-09
9.12208e-09
1.11919e-08
1.33464e-08
1.55677e-08
1.78398e-08
2.01479e-08
2.24779e-08
2.48168e-08
2.7152e-08
2.94714e-08
3.17636e-08
3.40176e-08
3.62229e-08
3.83695e-08
4.04479e-08
4.24491e-08
4.43646e-08
4.61863e-08
4.79069e-08
4.95195e-08
5.10176e-08
5.23956e-08
5.36481e-08
5.47706e-08
5.5759e-08
5.66099e-08
5.73204e-08
5.78882e-08
5.83116e-08
5.85895e-08
5.87214e-08
5.87074e-08
5.8548e-08
5.82442e-08
5.77978e-08
5.7211e-08
5.64865e-08
5.56275e-08
5.46377e-08
5.35213e-08
5.22829e-08
5.09276e-08
4.94608e-08
4.78886e-08
4.62171e-08
4.44531e-08
4.26036e-08
4.06761e-08
3.86785e-08
3.66188e-08
3.45055e-08
3.23475e-08
3.01539e-08
2.79342e-08
2.56983e-08
2.34564e-08
2.12193e-08
1.8998e-08
1.68043e-08
1.46504e-08
1.25496e-08
1.05162e-08
8.56592e-09
6.71687e-09
4.99041e-09
3.41352e-09
2.02327e-09
8.78354e-10
9.76447e-11
1.10865e-10
9.97198e-10
2.29665e-09
3.87378e-09
5.66134e-09
7.61653e-09
9.70798e-09
1.19106e-08
1.42029e-08
1.65663e-08
1.89834e-08
2.14384e-08
2.39164e-08
2.64033e-08
2.88856e-08
3.13506e-08
3.37859e-08
3.61798e-08
3.85211e-08
4.07992e-08
4.30038e-08
4.51255e-08
4.71551e-08
4.90842e-08
5.09048e-08
5.26098e-08
5.41923e-08
5.56463e-08
5.69663e-08
5.81476e-08
5.91858e-08
6.00775e-08
6.08197e-08
6.14101e-08
6.1847e-08
6.21294e-08
6.22569e-08
6.22295e-08
6.20482e-08
6.17141e-08
6.12291e-08
6.05957e-08
5.98169e-08
5.88963e-08
5.78377e-08
5.66457e-08
5.53253e-08
5.38819e-08
5.23214e-08
5.065e-08
4.88745e-08
4.7002e-08
4.50399e-08
4.29962e-08
4.08792e-08
3.86973e-08
3.64596e-08
3.41754e-08
3.18543e-08
2.95063e-08
2.71419e-08
2.47718e-08
2.24072e-08
2.00599e-08
1.77422e-08
1.5467e-08
1.32482e-08
1.11009e-08
9.04175e-09
7.08966e-09
5.26718e-09
3.60271e-09
2.13535e-09
9.26999e-10
1.03052e-10
1.17366e-10
1.05567e-09
2.43131e-09
4.10088e-09
5.99317e-09
8.06283e-09
1.02766e-08
1.26078e-08
1.50338e-08
1.75346e-08
2.00918e-08
2.26888e-08
2.53094e-08
2.79388e-08
3.05627e-08
3.31673e-08
3.57397e-08
3.82673e-08
4.07383e-08
4.31412e-08
4.54655e-08
4.77009e-08
4.98378e-08
5.18673e-08
5.37811e-08
5.55715e-08
5.72315e-08
5.87548e-08
6.01357e-08
6.13692e-08
6.2451e-08
6.33774e-08
6.41456e-08
6.47532e-08
6.51987e-08
6.5481e-08
6.55998e-08
6.55557e-08
6.53494e-08
6.49824e-08
6.4457e-08
6.37759e-08
6.29423e-08
6.196e-08
6.08335e-08
5.95674e-08
5.81671e-08
5.66385e-08
5.49877e-08
5.32214e-08
5.13467e-08
4.93711e-08
4.73025e-08
4.51492e-08
4.29198e-08
4.06233e-08
3.82691e-08
3.5867e-08
3.3427e-08
3.09596e-08
2.84757e-08
2.59866e-08
2.35039e-08
2.104e-08
1.86075e-08
1.62202e-08
1.38925e-08
1.16401e-08
9.48042e-09
7.43328e-09
5.52226e-09
3.77707e-09
2.23864e-09
9.71825e-10
1.08034e-10
1.23662e-10
1.1123e-09
2.56173e-09
4.32081e-09
6.31447e-09
8.49489e-09
1.08269e-08
1.32824e-08
1.58375e-08
1.84708e-08
2.11631e-08
2.38966e-08
2.66543e-08
2.94204e-08
3.21796e-08
3.49176e-08
3.76205e-08
4.02751e-08
4.28688e-08
4.53896e-08
4.78261e-08
5.01678e-08
5.24044e-08
5.45267e-08
5.6526e-08
5.83942e-08
6.0124e-08
6.1709e-08
6.31433e-08
6.44217e-08
6.554e-08
6.64944e-08
6.7282e-08
6.79007e-08
6.8349e-08
6.8626e-08
6.87316e-08
6.86665e-08
6.84317e-08
6.80291e-08
6.7461e-08
6.67307e-08
6.58415e-08
6.47977e-08
6.36039e-08
6.22653e-08
6.07875e-08
5.91767e-08
5.74395e-08
5.55829e-08
5.36143e-08
5.15416e-08
4.9373e-08
4.71173e-08
4.47833e-08
4.23805e-08
3.99186e-08
3.74078e-08
3.48585e-08
3.22815e-08
2.96882e-08
2.70903e-08
2.44998e-08
2.19295e-08
1.93926e-08
1.69034e-08
1.44766e-08
1.21288e-08
9.87796e-09
7.74464e-09
5.75335e-09
3.93501e-09
2.33221e-09
1.01243e-09
1.12547e-10
1.29748e-10
1.16704e-09
2.68777e-09
4.53334e-09
6.62492e-09
8.91226e-09
1.13584e-08
1.39338e-08
1.6613e-08
1.93739e-08
2.2196e-08
2.50603e-08
2.79492e-08
3.08458e-08
3.37341e-08
3.65988e-08
3.94252e-08
4.21996e-08
4.49085e-08
4.75395e-08
5.00805e-08
5.25203e-08
5.48485e-08
5.70553e-08
5.91316e-08
6.10692e-08
6.28604e-08
6.44987e-08
6.59781e-08
6.72933e-08
6.84401e-08
6.94149e-08
7.02147e-08
7.08376e-08
7.12823e-08
7.1548e-08
7.16351e-08
7.15442e-08
7.12769e-08
7.08353e-08
7.02221e-08
6.94406e-08
6.84949e-08
6.73894e-08
6.61291e-08
6.47195e-08
6.31666e-08
6.14769e-08
5.96574e-08
5.77153e-08
5.56585e-08
5.34952e-08
5.12338e-08
4.88835e-08
4.64534e-08
4.39534e-08
4.13934e-08
3.87838e-08
3.61356e-08
3.34598e-08
3.07681e-08
2.80725e-08
2.53855e-08
2.27201e-08
2.00901e-08
1.751e-08
1.49951e-08
1.25625e-08
1.02306e-08
8.02076e-09
5.95826e-09
4.07504e-09
2.41515e-09
1.04842e-09
1.16548e-10
1.35622e-10
1.21987e-09
2.80942e-09
4.73842e-09
6.92443e-09
9.31482e-09
1.18709e-08
1.45615e-08
1.73602e-08
2.02435e-08
2.31898e-08
2.61794e-08
2.91934e-08
3.22142e-08
3.52248e-08
3.82092e-08
4.1152e-08
4.40386e-08
4.68549e-08
4.95879e-08
5.22249e-08
5.47544e-08
5.71654e-08
5.94476e-08
6.15918e-08
6.35895e-08
6.5433e-08
6.71154e-08
6.86308e-08
6.99739e-08
7.11405e-08
7.21272e-08
7.29311e-08
7.35506e-08
7.39844e-08
7.42323e-08
7.42947e-08
7.41728e-08
7.38684e-08
7.33839e-08
7.27224e-08
7.18878e-08
7.08843e-08
6.97167e-08
6.83904e-08
6.69113e-08
6.52857e-08
6.35205e-08
6.16229e-08
5.96007e-08
5.74617e-08
5.52147e-08
5.28682e-08
5.04317e-08
4.79147e-08
4.53272e-08
4.26794e-08
3.9982e-08
3.7246e-08
3.4483e-08
3.17048e-08
2.89235e-08
2.61522e-08
2.34039e-08
2.06929e-08
1.80339e-08
1.54427e-08
1.29366e-08
1.05347e-08
8.25883e-09
6.13489e-09
4.19572e-09
2.48662e-09
1.07943e-09
1.19994e-10
1.41287e-10
1.27082e-09
2.92672e-09
4.93616e-09
7.21317e-09
9.7028e-09
1.23646e-08
1.51661e-08
1.80794e-08
2.10799e-08
2.41451e-08
2.7254e-08
3.03871e-08
3.35256e-08
3.66518e-08
3.97487e-08
4.28003e-08
4.57912e-08
4.87068e-08
5.15332e-08
5.42575e-08
5.68674e-08
5.93517e-08
6.16998e-08
6.39022e-08
6.59502e-08
6.78359e-08
6.95524e-08
7.10939e-08
7.24551e-08
7.3632e-08
7.46212e-08
7.54204e-08
7.60278e-08
7.64429e-08
7.66655e-08
7.66966e-08
7.65376e-08
7.61908e-08
7.5659e-08
7.49459e-08
7.40555e-08
7.29925e-08
7.17622e-08
7.03704e-08
6.88232e-08
6.71274e-08
6.52902e-08
6.33191e-08
6.1222e-08
5.90073e-08
5.66838e-08
5.42605e-08
5.17468e-08
4.91526e-08
4.64879e-08
4.37633e-08
4.09896e-08
3.8178e-08
3.53402e-08
3.24881e-08
2.96342e-08
2.67914e-08
2.39734e-08
2.11944e-08
1.84693e-08
1.58144e-08
1.32471e-08
1.0787e-08
8.4562e-09
6.28126e-09
4.2957e-09
2.54582e-09
1.10511e-09
1.22849e-10
1.46751e-10
1.31996e-09
3.03985e-09
5.12683e-09
7.4915e-09
1.00767e-08
1.28402e-08
1.57481e-08
1.87713e-08
2.18841e-08
2.50627e-08
2.82854e-08
3.15313e-08
3.47811e-08
3.8016e-08
4.12182e-08
4.43709e-08
4.74581e-08
5.04643e-08
5.33753e-08
5.61776e-08
5.88584e-08
6.14061e-08
6.38099e-08
6.606e-08
6.81476e-08
7.00648e-08
7.18047e-08
7.33615e-08
7.47302e-08
7.59069e-08
7.68886e-08
7.76732e-08
7.82594e-08
7.86468e-08
7.88359e-08
7.88282e-08
7.86254e-08
7.82304e-08
7.76464e-08
7.68776e-08
7.59284e-08
7.4804e-08
7.35101e-08
7.20529e-08
7.0439e-08
6.86755e-08
6.67697e-08
6.47296e-08
6.25635e-08
6.02798e-08
5.78875e-08
5.53958e-08
5.28145e-08
5.01533e-08
4.74225e-08
4.46328e-08
4.17951e-08
3.89206e-08
3.60211e-08
3.31086e-08
3.01957e-08
2.72955e-08
2.44216e-08
2.15883e-08
1.88109e-08
1.61056e-08
1.34901e-08
1.09842e-08
8.61038e-09
6.39554e-09
4.37373e-09
2.592e-09
1.12515e-09
1.25075e-10
1.52025e-10
1.3674e-09
3.14904e-09
5.31083e-09
7.76004e-09
1.04373e-08
1.32987e-08
1.63089e-08
1.94375e-08
2.26576e-08
2.59446e-08
2.92753e-08
3.26282e-08
3.59828e-08
3.93195e-08
4.26197e-08
4.58658e-08
4.90409e-08
5.21292e-08
5.51156e-08
5.79862e-08
6.07278e-08
6.33284e-08
6.57771e-08
6.80639e-08
7.01798e-08
7.2117e-08
7.38688e-08
7.54294e-08
7.67941e-08
7.79594e-08
7.89225e-08
7.96818e-08
8.02365e-08
8.05867e-08
8.07333e-08
8.06785e-08
8.04246e-08
7.99748e-08
7.93331e-08
7.85039e-08
7.74925e-08
7.63044e-08
7.49458e-08
7.34233e-08
7.17438e-08
6.99148e-08
6.79441e-08
6.58398e-08
6.36104e-08
6.12646e-08
5.88116e-08
5.62607e-08
5.36215e-08
5.09042e-08
4.8119e-08
4.52765e-08
4.23876e-08
3.94637e-08
3.65164e-08
3.35577e-08
3.06003e-08
2.76572e-08
2.4742e-08
2.1869e-08
1.90536e-08
1.6312e-08
1.3662e-08
1.11235e-08
8.71913e-09
6.47606e-09
4.42865e-09
2.6245e-09
1.13924e-09
1.26641e-10
1.57126e-10
1.41327e-09
3.25462e-09
5.48872e-09
8.01958e-09
1.07856e-08
1.37414e-08
1.685e-08
2.00798e-08
2.34028e-08
2.6793e-08
3.02265e-08
3.36805e-08
3.71337e-08
4.05654e-08
4.39564e-08
4.7288e-08
5.05428e-08
5.37042e-08
5.67566e-08
5.96855e-08
6.24774e-08
6.51201e-08
6.76024e-08
6.99141e-08
7.20463e-08
7.39913e-08
7.57426e-08
7.72946e-08
7.8643e-08
7.97847e-08
8.07173e-08
8.14398e-08
8.1952e-08
8.22544e-08
8.23488e-08
8.22379e-08
8.19247e-08
8.1413e-08
8.07074e-08
7.98129e-08
7.87354e-08
7.74809e-08
7.6056e-08
7.44679e-08
7.2724e-08
7.08319e-08
6.87999e-08
6.66362e-08
6.43496e-08
6.19489e-08
5.94434e-08
5.68426e-08
5.41561e-08
5.13939e-08
4.85663e-08
4.56838e-08
4.27574e-08
3.97981e-08
3.68175e-08
3.38276e-08
3.08408e-08
2.78701e-08
2.49289e-08
2.20315e-08
1.91931e-08
1.64299e-08
1.37597e-08
1.12023e-08
8.78044e-09
6.52133e-09
4.45948e-09
2.64271e-09
1.14713e-09
1.27517e-10
1.62073e-10
1.45776e-09
3.357e-09
5.66117e-09
8.2711e-09
1.11231e-08
1.417e-08
1.73734e-08
2.07006e-08
2.41222e-08
2.76111e-08
3.11422e-08
3.46919e-08
3.82375e-08
4.17578e-08
4.52323e-08
4.86417e-08
5.19677e-08
5.51932e-08
5.83019e-08
6.12789e-08
6.41103e-08
6.67837e-08
6.92876e-08
7.16119e-08
7.37478e-08
7.56877e-08
7.74254e-08
7.89556e-08
8.02745e-08
8.13795e-08
8.22689e-08
8.29422e-08
8.34e-08
8.36431e-08
8.36749e-08
8.34982e-08
8.31168e-08
8.25354e-08
8.17591e-08
8.07938e-08
7.96458e-08
7.83218e-08
7.68291e-08
7.5175e-08
7.33675e-08
7.14147e-08
6.93249e-08
6.71067e-08
6.47691e-08
6.23211e-08
5.97718e-08
5.71308e-08
5.44077e-08
5.16123e-08
4.8755e-08
4.5846e-08
4.28959e-08
3.99159e-08
3.69172e-08
3.39115e-08
3.09111e-08
2.79286e-08
2.49773e-08
2.20713e-08
1.92255e-08
1.6456e-08
1.37804e-08
1.12184e-08
8.79262e-09
6.5301e-09
4.46533e-09
2.64612e-09
1.14859e-09
1.2768e-10
1.66888e-10
1.50105e-09
3.45662e-09
5.82895e-09
8.51575e-09
1.14512e-08
1.45864e-08
1.78816e-08
2.13027e-08
2.4819e-08
2.84024e-08
3.20265e-08
3.56665e-08
3.92989e-08
4.29012e-08
4.64523e-08
4.99317e-08
5.33206e-08
5.6601e-08
5.97562e-08
6.27708e-08
6.56306e-08
6.83228e-08
7.08359e-08
7.31599e-08
7.52861e-08
7.72072e-08
7.89173e-08
8.04117e-08
8.16871e-08
8.27415e-08
8.3574e-08
8.41849e-08
8.45752e-08
8.47472e-08
8.4705e-08
8.4452e-08
8.3993e-08
8.33334e-08
8.24793e-08
8.14371e-08
8.02139e-08
7.8817e-08
7.72543e-08
7.55337e-08
7.36636e-08
7.16523e-08
6.95086e-08
6.72411e-08
6.4859e-08
6.23712e-08
5.97871e-08
5.7116e-08
5.43674e-08
5.15512e-08
4.86771e-08
4.57554e-08
4.27964e-08
3.98108e-08
3.68096e-08
3.38042e-08
3.08064e-08
2.78285e-08
2.48836e-08
2.19852e-08
1.91481e-08
1.63881e-08
1.37223e-08
1.11703e-08
8.75443e-09
6.50145e-09
4.4456e-09
2.63437e-09
1.14348e-09
1.27111e-10
1.71595e-10
1.54338e-09
3.55402e-09
5.99294e-09
8.75477e-09
1.17716e-08
1.49928e-08
1.83771e-08
2.18892e-08
2.54969e-08
2.91709e-08
3.28836e-08
3.66092e-08
4.03228e-08
4.40011e-08
4.76218e-08
5.11637e-08
5.46071e-08
5.79333e-08
6.1125e-08
6.41663e-08
6.70429e-08
6.97416e-08
7.22511e-08
7.45612e-08
7.66637e-08
7.85516e-08
8.02194e-08
8.16631e-08
8.28801e-08
8.38692e-08
8.46303e-08
8.51646e-08
8.54737e-08
8.5562e-08
8.54336e-08
8.50932e-08
8.45464e-08
8.37997e-08
8.28599e-08
8.17344e-08
8.04312e-08
7.8958e-08
7.73234e-08
7.55358e-08
7.36039e-08
7.15365e-08
6.93426e-08
6.7031e-08
6.46109e-08
6.20914e-08
5.94816e-08
5.67908e-08
5.40284e-08
5.12037e-08
4.83264e-08
4.54063e-08
4.24533e-08
3.94777e-08
3.649e-08
3.35012e-08
3.05227e-08
2.75662e-08
2.46443e-08
2.17703e-08
1.89584e-08
1.62238e-08
1.35836e-08
1.10565e-08
8.66475e-09
6.43457e-09
4.39974e-09
2.60714e-09
1.13165e-09
1.25795e-10
1.76222e-10
1.58498e-09
3.64973e-09
6.15406e-09
8.98952e-09
1.20861e-08
1.53914e-08
1.88628e-08
2.24632e-08
2.61594e-08
2.99207e-08
3.37183e-08
3.75249e-08
4.13148e-08
4.50632e-08
4.87469e-08
5.23438e-08
5.58333e-08
5.9196e-08
6.2414e-08
6.54711e-08
6.83525e-08
7.10451e-08
7.35373e-08
7.58195e-08
7.78836e-08
7.9723e-08
8.13331e-08
8.27104e-08
8.38533e-08
8.47614e-08
8.54358e-08
8.58786e-08
8.60921e-08
8.60832e-08
8.58559e-08
8.54163e-08
8.47713e-08
8.39282e-08
8.2895e-08
8.16798e-08
8.02912e-08
7.87381e-08
7.70293e-08
7.5174e-08
7.31813e-08
7.10603e-08
6.88202e-08
6.647e-08
6.40189e-08
6.14758e-08
5.88499e-08
5.61502e-08
5.33857e-08
5.05655e-08
4.76987e-08
4.47947e-08
4.1863e-08
3.89133e-08
3.59555e-08
3.3e-08
3.00577e-08
2.71397e-08
2.4258e-08
2.14253e-08
1.86552e-08
1.59624e-08
1.33634e-08
1.08765e-08
8.52317e-09
6.32917e-09
4.32753e-09
2.56431e-09
1.11304e-09
1.23727e-10
1.80795e-10
1.6261e-09
3.74432e-09
6.31326e-09
9.2214e-09
1.23965e-08
1.57846e-08
1.93414e-08
2.30283e-08
2.68107e-08
3.06565e-08
3.45355e-08
3.84192e-08
4.22804e-08
4.60933e-08
4.98337e-08
5.34782e-08
5.70055e-08
6.03954e-08
6.36295e-08
6.6691e-08
6.95649e-08
7.22381e-08
7.46991e-08
7.69385e-08
7.89487e-08
8.07238e-08
8.22598e-08
8.35543e-08
8.46065e-08
8.54174e-08
8.59889e-08
8.63238e-08
8.64278e-08
8.63073e-08
8.5968e-08
8.54173e-08
8.46631e-08
8.37141e-08
8.25791e-08
8.12673e-08
7.97883e-08
7.81515e-08
7.63666e-08
7.44432e-08
7.23909e-08
7.02191e-08
6.79371e-08
6.55541e-08
6.30792e-08
6.05213e-08
5.78892e-08
5.51916e-08
5.24372e-08
4.96346e-08
4.67924e-08
4.39195e-08
4.10246e-08
3.81169e-08
3.52056e-08
3.23004e-08
2.94113e-08
2.6549e-08
2.37247e-08
2.09503e-08
1.82387e-08
1.56041e-08
1.30621e-08
1.06304e-08
8.32985e-09
6.18535e-09
4.22908e-09
2.50593e-09
1.08769e-09
1.20909e-10
1.85343e-10
1.66699e-09
3.83836e-09
6.47149e-09
9.45179e-09
1.27049e-08
1.61749e-08
1.98159e-08
2.35878e-08
2.74546e-08
3.13825e-08
3.534e-08
3.92971e-08
4.32253e-08
4.70976e-08
5.08882e-08
5.45732e-08
5.813e-08
6.15377e-08
6.47772e-08
6.78315e-08
7.06852e-08
7.33253e-08
7.57404e-08
7.79216e-08
7.98618e-08
8.15558e-08
8.30007e-08
8.4195e-08
8.51394e-08
8.58358e-08
8.62875e-08
8.64983e-08
8.64777e-08
8.6231e-08
8.57661e-08
8.50918e-08
8.42173e-08
8.31526e-08
8.19076e-08
8.04927e-08
7.89182e-08
7.71945e-08
7.53318e-08
7.33403e-08
7.123e-08
6.90106e-08
6.66916e-08
6.42821e-08
6.17911e-08
5.92273e-08
5.65993e-08
5.39154e-08
5.11836e-08
4.84121e-08
4.5609e-08
4.27822e-08
3.99399e-08
3.70904e-08
3.42422e-08
3.14041e-08
2.85855e-08
2.5796e-08
2.30461e-08
2.03468e-08
1.77103e-08
1.515e-08
1.26807e-08
1.03192e-08
8.08554e-09
6.00371e-09
4.10479e-09
2.43225e-09
1.0557e-09
1.17353e-10
1.8989e-10
1.70787e-09
3.93238e-09
6.62967e-09
9.68203e-09
1.30128e-08
1.65644e-08
2.0289e-08
2.41451e-08
2.80948e-08
3.2103e-08
3.61365e-08
4.01638e-08
4.41549e-08
4.80814e-08
5.19164e-08
5.56346e-08
5.92125e-08
6.26284e-08
6.58626e-08
6.88976e-08
7.17179e-08
7.43105e-08
7.66645e-08
7.87712e-08
8.06245e-08
8.222e-08
8.35559e-08
8.46321e-08
8.54505e-08
8.60147e-08
8.63281e-08
8.64001e-08
8.62382e-08
8.58504e-08
8.52461e-08
8.44358e-08
8.34301e-08
8.22402e-08
8.08774e-08
7.93531e-08
7.76786e-08
7.58651e-08
7.39236e-08
7.18647e-08
6.96986e-08
6.74355e-08
6.50848e-08
6.26557e-08
6.01569e-08
5.75969e-08
5.49838e-08
5.23253e-08
4.96291e-08
4.69025e-08
4.41529e-08
4.13874e-08
3.86135e-08
3.58384e-08
3.30699e-08
3.03158e-08
2.75844e-08
2.48846e-08
2.22258e-08
1.96183e-08
1.70732e-08
1.4603e-08
1.22215e-08
9.94482e-09