/*--------------------------------*- C++ -*----------------------------------*\
  =========                 |
  \\      /  F ield         | OpenFOAM: The Open Source CFD Toolbox
   \\    /   O peration     | Website:  https://openfoam.org
    \\  /    A nd           | Version:  12
     \\/     M anipulation  |
\*---------------------------------------------------------------------------*/
FoamFile
{
    format      ascii;
    class       volScalarField;
    location    "3.5";
    object      p;
}
// * * * * * * * * * * * * * * * * * * * * * * * * * * * * * * * * * * * * * //

dimensions      [0 2 -2 0 0 0 0];

internalField   nonuniform List<scalar> 
5625
(
6.29468e-10
2.67441e-07
1.34812e-06
3.23069e-06
5.65522e-06
8.39204e-06
1.12594e-05
1.41052e-05
1.67995e-05
1.92339e-05
2.13193e-05
2.29841e-05
2.41713e-05
2.48375e-05
2.49503e-05
2.44871e-05
2.3434e-05
2.17844e-05
1.95383e-05
1.67013e-05
1.32838e-05
9.30069e-06
4.77049e-06
-2.84867e-07
-5.84059e-06
-1.18693e-05
-1.83416e-05
-2.52258e-05
-3.24888e-05
-4.0096e-05
-4.80113e-05
-5.6198e-05
-6.46179e-05
-7.32326e-05
-8.20025e-05
-9.0888e-05
-9.98488e-05
-0.000108845
-0.000117835
-0.000126779
-0.000135636
-0.000144367
-0.00015293
-0.000161288
-0.0001694
-0.00017723
-0.00018474
-0.000191894
-0.000198658
-0.000204999
-0.000210886
-0.000216289
-0.000221182
-0.000225542
-0.000229346
-0.000232579
-0.000235225
-0.000237278
-0.000238732
-0.00023959
-0.000239862
-0.000239563
-0.000238718
-0.000237362
-0.000235543
-0.000233319
-0.000230764
-0.000227971
-0.000225048
-0.000222128
-0.000219362
-0.000216931
-0.000215063
-0.00021401
-0.000213771
-3.54768e-06
-2.83916e-06
-1.60853e-06
8.02514e-08
2.09164e-06
4.28818e-06
6.5459e-06
8.75442e-06
1.08164e-05
1.26475e-05
1.41764e-05
1.53434e-05
1.60997e-05
1.64067e-05
1.62347e-05
1.55618e-05
1.43736e-05
1.26622e-05
1.04251e-05
7.66521e-06
4.38995e-06
6.10744e-07
-3.65735e-06
-8.39607e-06
-1.35843e-05
-1.91985e-05
-2.52128e-05
-3.15994e-05
-3.83287e-05
-4.53699e-05
-5.26905e-05
-6.02573e-05
-6.80357e-05
-7.59907e-05
-8.40864e-05
-9.22865e-05
-0.000100554
-0.000108853
-0.000117145
-0.000125394
-0.000133563
-0.000141615
-0.000149514
-0.000157224
-0.00016471
-0.000171938
-0.000178875
-0.000185489
-0.000191748
-0.000197625
-0.000203092
-0.000208124
-0.000212699
-0.000216795
-0.000220396
-0.000223489
-0.000226063
-0.000228112
-0.000229636
-0.000230639
-0.00023113
-0.000231127
-0.000230653
-0.00022974
-0.00022843
-0.000226772
-0.000224829
-0.000222674
-0.000220392
-0.000218083
-0.000215856
-0.000213836
-0.000212161
-0.000210964
-0.000210292
-9.47682e-06
-7.99427e-06
-6.13297e-06
-4.15771e-06
-2.11216e-06
-4.43522e-08
1.97627e-06
3.87842e-06
5.59655e-06
7.07195e-06
8.25267e-06
9.0939e-06
9.55782e-06
9.61355e-06
9.23671e-06
8.40909e-06
7.11818e-06
5.35677e-06
3.12242e-06
4.17175e-07
-2.75296e-06
-6.37832e-06
-1.0446e-05
-1.494e-05
-1.98419e-05
-2.51307e-05
-3.07833e-05
-3.67748e-05
-4.30786e-05
-4.96665e-05
-5.65094e-05
-6.35766e-05
-7.08368e-05
-7.82579e-05
-8.58069e-05
-9.34506e-05
-0.000101155
-0.000108887
-0.000116612
-0.000124296
-0.000131905
-0.000139405
-0.000146765
-0.00015395
-0.000160929
-0.000167671
-0.000174147
-0.000180326
-0.000186182
-0.000191689
-0.000196823
-0.000201562
-0.000205885
-0.000209776
-0.000213219
-0.000216204
-0.000218722
-0.000220768
-0.000222342
-0.00022345
-0.000224098
-0.000224303
-0.000224084
-0.000223467
-0.000222485
-0.000221179
-0.000219593
-0.000217783
-0.000215807
-0.000213734
-0.000211634
-0.000209578
-0.000207616
-0.000205793
-0.000204362
-1.63369e-05
-1.39694e-05
-1.12729e-05
-8.73697e-06
-6.34663e-06
-4.08496e-06
-1.98412e-06
-8.81928e-08
1.56132e-06
2.92656e-06
3.97299e-06
4.66993e-06
4.99096e-06
4.91423e-06
4.42237e-06
3.50251e-06
2.14609e-06
3.48655e-07
-1.89039e-06
-4.56801e-06
-7.67779e-06
-1.12102e-05
-1.5153e-05
-1.94911e-05
-2.42072e-05
-2.92818e-05
-3.46935e-05
-4.04191e-05
-4.6434e-05
-5.2712e-05
-5.92259e-05
-6.59473e-05
-7.28472e-05
-7.98955e-05
-8.70617e-05
-9.43147e-05
-0.000101623
-0.000108956
-0.000116281
-0.000123566
-0.000130781
-0.000137894
-0.000144874
-0.000151692
-0.000158317
-0.000164721
-0.000170876
-0.000176756
-0.000182336
-0.000187591
-0.000192499
-0.000197041
-0.000201198
-0.000204953
-0.000208293
-0.000211208
-0.000213689
-0.000215731
-0.000217334
-0.0002185
-0.000219234
-0.000219547
-0.000219454
-0.000218974
-0.000218131
-0.000216953
-0.000215471
-0.000213723
-0.000211748
-0.000209588
-0.000207289
-0.000204885
-0.000202362
-0.000199707
-0.000197393
-2.28844e-05
-1.96536e-05
-1.60949e-05
-1.29159e-05
-1.0062e-05
-7.46836e-06
-5.14119e-06
-3.10561e-06
-1.38526e-06
-1.52783e-09
1.02548e-06
1.67741e-06
1.93828e-06
1.79491e-06
1.23712e-06
2.57847e-07
-1.14685e-06
-2.9778e-06
-5.23288e-06
-7.90705e-06
-1.09926e-05
-1.44791e-05
-1.8354e-05
-2.26024e-05
-2.72071e-05
-3.21495e-05
-3.74089e-05
-4.29632e-05
-4.87891e-05
-5.48616e-05
-6.11552e-05
-6.76429e-05
-7.42974e-05
-8.10902e-05
-8.79928e-05
-9.49757e-05
-0.00010201
-0.000109065
-0.000116112
-0.00012312
-0.000130061
-0.000136904
-0.000143622
-0.000150186
-0.000156567
-0.00016274
-0.000168677
-0.000174355
-0.00017975
-0.000184838
-0.000189599
-0.000194014
-0.000198065
-0.000201736
-0.000205015
-0.000207889
-0.00021035
-0.000212393
-0.000214014
-0.000215212
-0.00021599
-0.000216354
-0.000216313
-0.000215878
-0.000215065
-0.000213892
-0.000212378
-0.000210545
-0.000208416
-0.000206017
-0.000203374
-0.000200496
-0.00019732
-0.000193796
-0.000190613
-2.83029e-05
-2.42805e-05
-1.9906e-05
-1.60824e-05
-1.27286e-05
-9.74472e-06
-7.11991e-06
-4.86697e-06
-2.99701e-06
-1.51923e-06
-4.4252e-07
2.24786e-07
4.75538e-07
3.0427e-07
-2.92575e-07
-1.31641e-06
-2.76645e-06
-4.63963e-06
-6.93064e-06
-9.63192e-06
-1.27338e-05
-1.62245e-05
-2.00903e-05
-2.43156e-05
-2.88833e-05
-3.37744e-05
-3.89686e-05
-4.44444e-05
-5.01787e-05
-5.61478e-05
-6.23268e-05
-6.86898e-05
-7.52107e-05
-8.18622e-05
-8.8617e-05
-9.54471e-05
-0.000102324
-0.000109221
-0.000116107
-0.000122956
-0.00012974
-0.000136429
-0.000142997
-0.000149417
-0.000155663
-0.000161708
-0.000167528
-0.000173098
-0.000178397
-0.000183402
-0.000188092
-0.00019245
-0.000196457
-0.000200097
-0.000203358
-0.000206225
-0.000208691
-0.000210746
-0.000212385
-0.000213604
-0.000214402
-0.000214781
-0.000214743
-0.000214294
-0.000213441
-0.000212194
-0.000210562
-0.000208556
-0.000206188
-0.000203469
-0.000200416
-0.000197018
-0.00019318
-0.000188824
-0.000184836
-3.20354e-05
-2.73069e-05
-2.21913e-05
-1.77622e-05
-1.392e-05
-1.05391e-05
-7.59743e-06
-5.10006e-06
-3.04956e-06
-1.44631e-06
-2.90715e-07
4.16778e-07
6.7625e-07
4.88785e-07
-1.43326e-07
-1.21633e-06
-2.72496e-06
-4.66226e-06
-7.01962e-06
-9.78674e-06
-1.29517e-05
-1.65008e-05
-2.04189e-05
-2.46895e-05
-2.92944e-05
-3.42143e-05
-3.94288e-05
-4.4916e-05
-5.06533e-05
-5.66172e-05
-6.27831e-05
-6.9126e-05
-7.56202e-05
-8.22395e-05
-8.89571e-05
-9.57461e-05
-0.000102579
-0.000109429
-0.000116269
-0.000123071
-0.000129808
-0.000136453
-0.00014298
-0.000149362
-0.000155574
-0.000161591
-0.000167389
-0.000172944
-0.000178234
-0.000183237
-0.000187933
-0.000192303
-0.000196329
-0.000199995
-0.000203284
-0.000206185
-0.000208685
-0.000210775
-0.000212445
-0.000213689
-0.000214503
-0.000214882
-0.000214825
-0.000214332
-0.000213404
-0.000212043
-0.000210251
-0.000208031
-0.000205385
-0.000202318
-0.000198837
-0.000194922
-0.00019045
-0.000185327
-0.000180612
-3.36791e-05
-2.83284e-05
-2.25531e-05
-1.75759e-05
-1.32834e-05
-9.53005e-06
-6.2863e-06
-3.55233e-06
-1.32494e-06
4.01947e-07
1.6343e-06
2.37787e-06
2.63861e-06
2.42307e-06
1.73862e-06
5.9359e-07
-1.00259e-06
-3.03929e-06
-5.50467e-06
-8.38559e-06
-1.16677e-05
-1.53353e-05
-1.93716e-05
-2.37586e-05
-2.84771e-05
-3.35069e-05
-3.88269e-05
-4.4415e-05
-5.02483e-05
-5.63032e-05
-6.25553e-05
-6.89797e-05
-7.5551e-05
-8.22435e-05
-8.90309e-05
-9.58867e-05
-0.000102784
-0.000109697
-0.000116599
-0.000123462
-0.00013026
-0.000136967
-0.000143557
-0.000150004
-0.000156283
-0.00016237
-0.00016824
-0.00017387
-0.000179237
-0.000184321
-0.000189099
-0.000193553
-0.000197664
-0.000201414
-0.000204787
-0.000207768
-0.000210343
-0.0002125
-0.000214227
-0.000215516
-0.000216357
-0.000216743
-0.000216668
-0.000216127
-0.000215116
-0.000213631
-0.000211668
-0.000209225
-0.000206297
-0.000202883
-0.000198987
-0.000194581
-0.000189522
-0.000183701
-0.000178334
-3.29205e-05
-2.70243e-05
-2.06694e-05
-1.52091e-05
-1.05189e-05
-6.43687e-06
-2.92809e-06
1.04339e-08
2.38607e-06
4.20971e-06
5.49231e-06
6.24456e-06
6.47725e-06
6.20158e-06
5.42929e-06
4.17283e-06
2.44537e-06
2.61018e-07
-2.3653e-06
-5.41766e-06
-8.87926e-06
-1.27323e-05
-1.69581e-05
-2.1537e-05
-2.64486e-05
-3.16716e-05
-3.71841e-05
-4.29631e-05
-4.89855e-05
-5.52271e-05
-6.16635e-05
-6.82697e-05
-7.50203e-05
-8.18895e-05
-8.88514e-05
-9.58798e-05
-0.000102948
-0.00011003
-0.0001171
-0.00012413
-0.000131095
-0.000137968
-0.000144724
-0.000151338
-0.000157783
-0.000164036
-0.000170072
-0.000175868
-0.000181401
-0.000186648
-0.000191588
-0.000196202
-0.000200468
-0.000204368
-0.000207884
-0.000211
-0.0002137
-0.000215968
-0.000217792
-0.000219158
-0.000220054
-0.000220471
-0.000220397
-0.000219824
-0.000218744
-0.000217147
-0.000215026
-0.000212374
-0.000209181
-0.000205443
-0.000201161
-0.000196302
-0.000190708
-0.000184257
-0.000178302
-2.94909e-05
-2.31193e-05
-1.62619e-05
-1.03869e-05
-5.36033e-06
-1.0061e-06
2.71503e-06
5.80846e-06
8.28481e-06
1.01589e-05
1.14457e-05
1.21601e-05
1.23171e-05
1.19318e-05
1.10199e-05
9.59763e-06
7.68153e-06
5.28894e-06
2.43779e-06
-8.53312e-07
-4.56512e-06
-8.67765e-06
-1.31703e-05
-1.80218e-05
-2.32103e-05
-2.87132e-05
-3.45074e-05
-4.05695e-05
-4.68752e-05
-5.34001e-05
-6.01192e-05
-6.70072e-05
-7.40386e-05
-8.11875e-05
-8.84277e-05
-9.57332e-05
-0.000103078
-0.000110434
-0.000117777
-0.00012508
-0.000132316
-0.000139459
-0.000146484
-0.000153365
-0.000160076
-0.000166592
-0.00017289
-0.000178944
-0.000184732
-0.00019023
-0.000195416
-0.000200269
-0.000204766
-0.000208889
-0.000212616
-0.000215931
-0.000218814
-0.000221249
-0.000223219
-0.000224708
-0.000225703
-0.000226189
-0.000226152
-0.00022558
-0.000224461
-0.000222782
-0.000220533
-0.000217701
-0.000214276
-0.000210249
-0.00020562
-0.000200353
-0.000194274
-0.000187253
-0.000180767
-2.31383e-05
-1.63569e-05
-9.07242e-06
-2.85415e-06
2.44059e-06
7.00057e-06
1.0869e-05
1.40536e-05
1.65678e-05
1.84298e-05
1.96585e-05
2.02723e-05
2.02899e-05
1.97302e-05
1.86124e-05
1.69561e-05
1.47813e-05
1.21083e-05
8.95785e-06
5.35121e-06
1.31002e-06
-3.14358e-06
-7.98703e-06
-1.31973e-05
-1.87511e-05
-2.46244e-05
-3.07931e-05
-3.72326e-05
-4.39181e-05
-5.08242e-05
-5.79255e-05
-6.51962e-05
-7.26104e-05
-8.0142e-05
-8.77645e-05
-9.54516e-05
-0.000103177
-0.000110913
-0.000118635
-0.000126315
-0.000133927
-0.000141445
-0.000148842
-0.000156092
-0.00016317
-0.00017005
-0.000176707
-0.000183116
-0.000189252
-0.000195092
-0.000200612
-0.000205789
-0.0002106
-0.000215024
-0.000219039
-0.000222625
-0.00022576
-0.000228427
-0.000230605
-0.000232277
-0.000233424
-0.000234031
-0.000234081
-0.000233557
-0.000232444
-0.000230727
-0.000228392
-0.000225424
-0.000221808
-0.000217536
-0.000212605
-0.000206975
-0.000200462
-0.000192924
-0.000185955
-1.36075e-05
-6.48119e-06
1.15361e-06
7.63916e-06
1.31265e-05
1.78162e-05
2.17557e-05
2.49549e-05
2.74303e-05
2.92035e-05
3.02969e-05
3.07326e-05
3.05327e-05
2.97197e-05
2.83163e-05
2.63452e-05
2.38297e-05
2.0793e-05
1.72586e-05
1.32504e-05
8.79227e-06
3.90862e-06
-1.37612e-06
-7.03718e-06
-1.30496e-05
-1.93883e-05
-2.60277e-05
-3.29423e-05
-4.01063e-05
-4.74937e-05
-5.50784e-05
-6.2834e-05
-7.07342e-05
-7.87523e-05
-8.68618e-05
-9.50358e-05
-0.000103247
-0.00011147
-0.000119676
-0.00012784
-0.000135934
-0.000143932
-0.000151806
-0.000159531
-0.000167079
-0.000174425
-0.000181542
-0.000188405
-0.000194988
-0.000201266
-0.000207215
-0.000212808
-0.000218023
-0.000222835
-0.000227222
-0.00023116
-0.000234626
-0.0002376
-0.000240059
-0.000241983
-0.000243351
-0.000244144
-0.000244341
-0.000243924
-0.000242875
-0.000241176
-0.000238809
-0.000235756
-0.000232001
-0.000227534
-0.00022235
-0.000216407
-0.000209508
-0.000201503
-0.000194092
-6.27263e-07
6.77554e-06
1.46785e-05
2.1348e-05
2.69433e-05
3.16761e-05
3.55983e-05
3.87228e-05
4.10692e-05
4.2663e-05
4.35299e-05
4.36958e-05
4.31866e-05
4.20281e-05
4.02464e-05
3.78677e-05
3.4918e-05
3.14237e-05
2.74109e-05
2.29061e-05
1.79355e-05
1.25255e-05
6.70243e-06
4.9286e-07
-6.0768e-06
-1.298e-05
-2.01902e-05
-2.76807e-05
-3.54249e-05
-4.3396e-05
-5.15672e-05
-5.99116e-05
-6.84023e-05
-7.70123e-05
-8.57145e-05
-9.44817e-05
-0.000103287
-0.000112103
-0.000120902
-0.000129657
-0.000138341
-0.000146926
-0.000155386
-0.000163692
-0.000171818
-0.000179736
-0.000187419
-0.000194841
-0.000201974
-0.000208793
-0.00021527
-0.000221379
-0.000227094
-0.000232391
-0.000237242
-0.000241623
-0.00024551
-0.000248877
-0.000251702
-0.000253959
-0.000255626
-0.000256681
-0.0002571
-0.000256862
-0.000255945
-0.000254329
-0.000251993
-0.000248918
-0.000245083
-0.000240477
-0.000235094
-0.00022889
-0.000221653
-0.000213227
-0.000205412
1.60981e-05
2.37012e-05
3.17802e-05
3.85393e-05
4.41458e-05
4.88222e-05
5.26254e-05
5.55717e-05
5.76847e-05
5.89938e-05
5.95288e-05
5.93194e-05
5.83952e-05
5.67858e-05
5.45208e-05
5.16294e-05
4.81411e-05
4.4085e-05
3.94899e-05
3.43848e-05
2.87982e-05
2.27584e-05
1.62938e-05
9.43247e-06
2.20223e-06
-5.36906e-06
-1.32537e-05
-2.14242e-05
-2.98529e-05
-3.85125e-05
-4.73754e-05
-5.64144e-05
-6.56019e-05
-7.49105e-05
-8.43128e-05
-9.37812e-05
-0.000103288
-0.000112806
-0.000122307
-0.000131764
-0.000141148
-0.000150432
-0.000159588
-0.000168586
-0.0001774
-0.000186001
-0.000194361
-0.000202452
-0.000210246
-0.000217713
-0.000224827
-0.000231559
-0.000237881
-0.000243766
-0.000249185
-0.000254111
-0.000258517
-0.000262376
-0.00026566
-0.000268344
-0.000270401
-0.000271806
-0.000272532
-0.000272555
-0.000271851
-0.000270395
-0.000268165
-0.000265138
-0.000261291
-0.00025661
-0.000251088
-0.000244676
-0.000237153
-0.000228354
-0.000220172
3.68944e-05
4.4609e-05
5.27566e-05
5.94958e-05
6.50014e-05
6.95062e-05
7.30725e-05
7.57212e-05
7.74806e-05
7.83842e-05
7.84666e-05
7.77616e-05
7.63028e-05
7.41237e-05
7.12575e-05
6.7737e-05
6.35945e-05
5.88623e-05
5.35718e-05
4.77544e-05
4.14407e-05
3.46612e-05
2.74459e-05
1.98242e-05
1.18255e-05
3.47873e-06
-5.18751e-06
-1.41448e-05
-2.33649e-05
-3.28198e-05
-4.24815e-05
-5.23223e-05
-6.23144e-05
-7.24299e-05
-8.26412e-05
-9.29203e-05
-0.000103239
-0.000113571
-0.000123885
-0.000134156
-0.000144353
-0.000154448
-0.000164414
-0.00017422
-0.000183839
-0.000193239
-0.000202392
-0.000211268
-0.000219838
-0.000228071
-0.000235938
-0.000243409
-0.000250453
-0.00025704
-0.00026314
-0.000268724
-0.00027376
-0.000278219
-0.000282071
-0.000285287
-0.000287837
-0.000289692
-0.000290824
-0.000291204
-0.000290804
-0.000289598
-0.000287558
-0.000284659
-0.000280877
-0.000276193
-0.000270598
-0.000264041
-0.000256288
-0.000247164
-0.000238654
6.21205e-05
6.98399e-05
7.79282e-05
8.45178e-05
8.9791e-05
9.39896e-05
9.71823e-05
9.93956e-05
0.000100663
0.000101023
0.000100516
9.91791e-05
9.70513e-05
9.41699e-05
9.05719e-05
8.62936e-05
8.13707e-05
7.58382e-05
6.97303e-05
6.30807e-05
5.5922e-05
4.82866e-05
4.02059e-05
3.17109e-05
2.2832e-05
1.35991e-05
4.04147e-06
-5.81173e-06
-1.59318e-05
-2.62904e-05
-3.68593e-05
-4.76104e-05
-5.85158e-05
-6.95475e-05
-8.06776e-05
-9.1878e-05
-0.000103121
-0.000114377
-0.00012562
-0.000136818
-0.000147945
-0.00015897
-0.000169864
-0.000180597
-0.00019114
-0.000201461
-0.000211529
-0.000221315
-0.000230785
-0.000239909
-0.000248654
-0.000256988
-0.000264879
-0.000272295
-0.000279201
-0.000285565
-0.000291355
-0.000296536
-0.000301077
-0.000304943
-0.000308103
-0.000310523
-0.000312172
-0.000313017
-0.000313027
-0.000312171
-0.000310419
-0.000307742
-0.000304112
-0.000299506
-0.000293916
-0.000287282
-0.000279361
-0.00026997
-0.000261175
9.21694e-05
9.97636e-05
0.000107638
0.000113923
0.000118808
0.000122543
0.000125203
0.000126821
0.000127438
0.000127098
0.000125845
0.000123724
0.000120777
0.000117046
0.000112572
0.000107396
0.000101556
9.50891e-05
8.80334e-05
8.04242e-05
7.22962e-05
6.36834e-05
5.46184e-05
4.51334e-05
3.52596e-05
2.50275e-05
1.4467e-05
3.60745e-06
-7.52228e-06
-1.88937e-05
-3.04785e-05
-4.22488e-05
-5.41766e-05
-6.62341e-05
-7.83934e-05
-9.06266e-05
-0.000102905
-0.000115202
-0.000127486
-0.000139731
-0.000151905
-0.00016398
-0.000175925
-0.00018771
-0.000199303
-0.000210672
-0.000221785
-0.00023261
-0.000243114
-0.000253262
-0.00026302
-0.000272354
-0.000281229
-0.000289609
-0.000297458
-0.000304741
-0.000311421
-0.000317461
-0.000322824
-0.000327475
-0.000331376
-0.000334491
-0.000336784
-0.000338218
-0.000338758
-0.000338368
-0.000337016
-0.000334667
-0.000331289
-0.000326857
-0.000321357
-0.000314727
-0.00030671
-0.000297117
-0.000288087
0.000127467
0.000134776
0.000142249
0.000148044
0.000152356
0.000155442
0.000157384
0.000158224
0.000158008
0.000156788
0.000154615
0.000151538
0.000147605
0.000142863
0.000137357
0.00013113
0.000124224
0.000116681
0.000108539
9.98369e-05
9.061e-05
8.08939e-05
7.07224e-05
6.01283e-05
4.91432e-05
3.77979e-05
2.61225e-05
1.41462e-05
1.89759e-06
-1.0595e-05
-2.33039e-05
-3.62014e-05
-4.926e-05
-6.24524e-05
-7.5751e-05
-8.91282e-05
-0.000102556
-0.000116006
-0.000129451
-0.000142859
-0.000156203
-0.000169452
-0.000182574
-0.000195539
-0.000208313
-0.000220865
-0.00023316
-0.000245164
-0.000256842
-0.000268158
-0.000279075
-0.000289556
-0.000299564
-0.000309059
-0.000318003
-0.000326355
-0.000334077
-0.000341128
-0.000347466
-0.000353051
-0.000357842
-0.000361799
-0.000364879
-0.000367042
-0.000368249
-0.00036846
-0.000367635
-0.000365736
-0.000362727
-0.000358578
-0.00035327
-0.000346737
-0.000338709
-0.00032899
-0.000319786
0.000168469
0.000175298
0.00018214
0.000187222
0.000190743
0.000192962
0.00019397
0.000193819
0.000192564
0.000190262
0.000186972
0.000182748
0.000177646
0.000171715
0.000165005
0.000157563
0.000149435
0.000140665
0.000131292
0.000121357
0.000110898
9.99502e-05
8.85482e-05
7.6725e-05
6.45123e-05
5.19407e-05
3.90396e-05
2.58378e-05
1.23632e-05
-1.35691e-06
-1.52955e-05
-2.94259e-05
-4.37215e-05
-5.81559e-05
-7.27022e-05
-8.73336e-05
-0.000102023
-0.000116742
-0.000131463
-0.000146156
-0.000160792
-0.000175341
-0.00018977
-0.000204049
-0.000218142
-0.000232018
-0.000245639
-0.00025897
-0.000271973
-0.000284612
-0.000296845
-0.000308634
-0.000319937
-0.000330712
-0.000340917
-0.000350508
-0.000359441
-0.000367671
-0.000375154
-0.000381842
-0.000387692
-0.000392655
-0.000396687
-0.000399741
-0.000401772
-0.000402735
-0.000402584
-0.000401277
-0.000398771
-0.000395032
-0.000390035
-0.000383708
-0.000375771
-0.000366019
-0.000356713
0.000215655
0.000221766
0.0002277
0.000231803
0.000234273
0.00023537
0.000235196
0.00023381
0.000231278
0.000227666
0.000223038
0.000217458
0.000210983
0.00020367
0.000195573
0.000186742
0.000177225
0.000167069
0.000156316
0.000145006
0.000133179
0.00012087
0.000108113
9.49426e-05
8.13883e-05
6.748e-05
5.32462e-05
3.87142e-05
2.39106e-05
8.86131e-06
-6.40827e-06
-2.18729e-05
-3.75076e-05
-5.32871e-05
-6.91862e-05
-8.5179e-05
-0.000101239
-0.00011734
-0.000133454
-0.000149553
-0.000165606
-0.000181584
-0.000197454
-0.000213184
-0.00022874
-0.000244086
-0.000259186
-0.000274001
-0.000288492
-0.000302619
-0.00031634
-0.00032961
-0.000342387
-0.000354624
-0.000366274
-0.00037729
-0.000387623
-0.000397223
-0.00040604
-0.000414022
-0.000421119
-0.000427279
-0.000432448
-0.000436576
-0.000439611
-0.000441501
-0.000442196
-0.000441644
-0.000439797
-0.000436616
-0.00043207
-0.000426078
-0.000418352
-0.000408678
-0.000399358
0.00026952
0.000274622
0.000279316
0.000282122
0.000283237
0.000282915
0.000281269
0.00027837
0.000274293
0.000269114
0.000262905
0.000255734
0.000247667
0.000238764
0.000229082
0.000218677
0.000207598
0.000195893
0.000183605
0.000170777
0.000157446
0.000143648
0.000129417
0.000114785
9.97798e-05
8.44304e-05
6.87631e-05
5.2803e-05
3.65745e-05
2.01014e-05
3.40662e-06
-1.34867e-05
-3.05559e-05
-4.77778e-05
-6.5129e-05
-8.25857e-05
-0.000100123
-0.000117716
-0.000135338
-0.00015296
-0.000170555
-0.000188092
-0.000205539
-0.000222863
-0.00024003
-0.000257001
-0.00027374
-0.000290207
-0.000306359
-0.000322154
-0.000337546
-0.000352489
-0.000366935
-0.000380833
-0.000394132
-0.000406781
-0.000418723
-0.000429906
-0.000440271
-0.000449763
-0.000458323
-0.000465892
-0.000472413
-0.000477825
-0.00048207
-0.000485089
-0.000486824
-0.000487218
-0.000486213
-0.000483763
-0.000479831
-0.000474328
-0.000466955
-0.000457492
-0.000448266
0.000330561
0.000334305
0.00033736
0.000338492
0.000337894
0.000335809
0.000332359
0.000327629
0.000321706
0.000314673
0.000306611
0.000297596
0.000287698
0.000276981
0.000265509
0.000253336
0.000240515
0.000227095
0.000213119
0.00019863
0.000183663
0.000168254
0.000152434
0.000136233
0.000119677
0.000102791
8.55989e-05
6.8123e-05
5.03842e-05
3.2403e-05
1.41992e-05
-4.20729e-06
-2.27968e-05
-4.15492e-05
-6.04438e-05
-7.94593e-05
-9.85734e-05
-0.000117763
-0.000137002
-0.000156266
-0.000175526
-0.000194752
-0.000213914
-0.000232977
-0.000251907
-0.000270666
-0.000289213
-0.000307508
-0.000325506
-0.000343162
-0.000360426
-0.000377249
-0.000393577
-0.000409357
-0.000424531
-0.000439043
-0.000452831
-0.000465834
-0.00047799
-0.000489234
-0.000499501
-0.000508724
-0.000516838
-0.000523775
-0.000529467
-0.000533848
-0.000536851
-0.00053841
-0.000538459
-0.000536943
-0.000533817
-0.000528982
-0.000522133
-0.000513042
-0.000504039
0.000399261
0.000401227
0.000402168
0.000401183
0.000398456
0.00039421
0.000388577
0.000381657
0.000373548
0.000364344
0.000354133
0.000342997
0.000331012
0.000318246
0.000304764
0.000290625
0.00027588
0.000260579
0.000244765
0.000228476
0.000211749
0.000194615
0.000177102
0.000159237
0.000141041
0.000122537
0.000103744
8.46785e-05
6.53584e-05
4.57993e-05
2.60169e-05
6.02656e-06
-1.41559e-05
-3.45144e-05
-5.5032e-05
-7.56908e-05
-9.64715e-05
-0.000117354
-0.000138315
-0.000159331
-0.000180375
-0.00020142
-0.000222434
-0.000243384
-0.000264234
-0.000284947
-0.000305481
-0.000325791
-0.000345833
-0.000365556
-0.000384909
-0.000403837
-0.000422283
-0.000440187
-0.000457487
-0.000474119
-0.000490015
-0.000505108
-0.000519326
-0.000532597
-0.000544848
-0.000556004
-0.000565989
-0.000574726
-0.00058214
-0.000588151
-0.000592685
-0.000595664
-0.000597014
-0.000596669
-0.000594574
-0.000590622
-0.000584497
-0.00057597
-0.000567345
0.000476065
0.000475756
0.000474023
0.000470404
0.000465064
0.000458201
0.000449953
0.000440437
0.000429765
0.00041804
0.000405356
0.000391803
0.000377459
0.000362397
0.000346682
0.000330374
0.000313525
0.000296181
0.000278383
0.000260167
0.000241566
0.000222607
0.000203312
0.000183704
0.000163799
0.000143613
0.000123159
0.000102451
8.14972e-05
6.03096e-05
3.88976e-05
1.72711e-05
-4.55947e-06
-2.65829e-05
-4.87873e-05
-7.11591e-05
-9.36834e-05
-0.000116343
-0.000139119
-0.000161991
-0.000184933
-0.00020792
-0.000230922
-0.000253907
-0.000276838
-0.000299677
-0.000322381
-0.000344905
-0.0003672
-0.000389213
-0.000410889
-0.000432169
-0.00045299
-0.000473286
-0.000492989
-0.000512027
-0.000530326
-0.000547809
-0.000564397
-0.000580008
-0.000594558
-0.000607963
-0.000620137
-0.000630992
-0.000640439
-0.000648391
-0.000654759
-0.000659456
-0.000662395
-0.000663499
-0.000662699
-0.000659879
-0.000654718
-0.000646983
-0.000638923
0.000561356
0.000558186
0.000553118
0.000546261
0.000537754
0.000527752
0.000516403
0.000503841
0.000490189
0.00047556
0.000460055
0.000443767
0.00042678
0.000409166
0.000390992
0.000372315
0.000353184
0.000333644
0.00031373
0.000293475
0.000272903
0.000252036
0.000230892
0.000209484
0.000187822
0.000165914
0.000143767
0.000121385
9.87713e-05
7.5929e-05
5.28608e-05
2.95693e-05
6.05817e-06
-1.76672e-05
-4.16013e-05
-6.57367e-05
-9.00636e-05
-0.00011457
-0.000139241
-0.000164059
-0.000189003
-0.000214049
-0.00023917
-0.000264334
-0.000289505
-0.000314646
-0.000339712
-0.000364655
-0.000389426
-0.000413967
-0.000438218
-0.000462116
-0.000485593
-0.000508576
-0.000530989
-0.000552753
-0.000573784
-0.000593997
-0.000613301
-0.000631605
-0.000648813
-0.00066483
-0.000679556
-0.000692891
-0.000704734
-0.000714985
-0.00072354
-0.0007303
-0.000735163
-0.000738038
-0.000738844
-0.000737451
-0.000733536
-0.000726863
-0.000719589
0.000655412
0.000648691
0.000639523
0.000628734
0.000616425
0.000602696
0.0005877
0.00057159
0.000554502
0.000536554
0.000517856
0.000498502
0.000478576
0.000458151
0.000437292
0.000416051
0.000394474
0.000372599
0.000350455
0.000328067
0.000305451
0.000282622
0.000259586
0.000236349
0.000212912
0.000189273
0.00016543
0.000141376
0.000117106
9.26143e-05
6.78941e-05
4.29381e-05
1.7741e-05
-7.69413e-06
-3.33741e-05
-5.92985e-05
-8.54637e-05
-0.000111864
-0.000138489
-0.000165328
-0.000192362
-0.000219573
-0.000246934
-0.000274416
-0.000301986
-0.000329604
-0.000357226
-0.000384804
-0.000412282
-0.000439603
-0.000466701
-0.000493507
-0.000519947
-0.00054594
-0.000571403
-0.000596247
-0.00062038
-0.000643702
-0.000666114
-0.000687511
-0.000707786
-0.000726826
-0.000744521
-0.000760754
-0.00077541
-0.000788372
-0.000799523
-0.000808746
-0.000815923
-0.000820948
-0.000823722
-0.000824102
-0.000821765
-0.000816474
-0.00081025
0.000758367
0.000747295
0.000733141
0.000717622
0.000700792
0.000682675
0.000663427
0.000643219
0.000622197
0.000600489
0.000578203
0.000555437
0.000532272
0.000508779
0.000485016
0.00046103
0.000436859
0.000412531
0.000388067
0.000363481
0.000338778
0.000313962
0.000289028
0.000263969
0.000238776
0.000213433
0.000187927
0.000162242
0.000136358
0.00011026
8.39282e-05
5.73398e-05
3.04953e-05
3.38152e-06
-2.40283e-05
-5.17361e-05
-7.97456e-05
-0.000108059
-0.000136673
-0.000165582
-0.000194776
-0.000224238
-0.000253947
-0.000283876
-0.000313994
-0.000344261
-0.000374635
-0.000405065
-0.000435494
-0.00046586
-0.000496093
-0.000526118
-0.000555853
-0.000585212
-0.0006141
-0.000642418
-0.000670062
-0.000696922
-0.000722883
-0.000747827
-0.00077163
-0.000794166
-0.000815306
-0.000834917
-0.000852866
-0.000869017
-0.000883236
-0.000895386
-0.000905332
-0.000912948
-0.000918114
-0.000920674
-0.000920304
-0.000916774
-0.00091191
0.000870153
0.000853807
0.00083365
0.000812498
0.000790337
0.000767095
0.000742927
0.000718021
0.000692534
0.000666594
0.000640312
0.00061378
0.000587077
0.000560266
0.000533394
0.000506501
0.000479611
0.000452741
0.000425899
0.000399084
0.000372289
0.000345501
0.000318703
0.000291873
0.000264985
0.000238012
0.000210925
0.000183692
0.000156283
0.000128666
0.00010081
7.26857e-05
4.42712e-05
1.55347e-05
-1.35459e-05
-4.29883e-05
-7.28078e-05
-0.000103016
-0.000133619
-0.000164618
-0.00019601
-0.000227785
-0.000259927
-0.000292414
-0.000325216
-0.000358296
-0.000391613
-0.000425113
-0.00045874
-0.000492426
-0.000526098
-0.000559674
-0.000593064
-0.000626174
-0.000658898
-0.000691125
-0.000722738
-0.000753613
-0.00078362
-0.000812623
-0.000840481
-0.00086705
-0.000892181
-0.00091572
-0.000937515
-0.000957407
-0.000975241
-0.000990858
-0.0010041
-0.00101482
-0.00102288
-0.00102809
-0.00103015
-0.00102882
-0.00102569
0.000990435
0.000967757
0.000940441
0.000912634
0.00088424
0.000855061
0.000825244
0.000794994
0.000764474
0.000733812
0.000703112
0.000672462
0.000641928
0.000611562
0.0005814
0.000551463
0.000521762
0.000492297
0.000463058
0.000434027
0.00040518
0.000376484
0.000347906
0.000319405
0.000290938
0.00026246
0.000233926
0.000205286
0.000176495
0.000147504
0.000118266
8.87394e-05
5.88806e-05
2.86497e-05
-1.98924e-06
-3.30684e-05
-6.46156e-05
-9.66538e-05
-0.0001292
-0.000162267
-0.000195858
-0.000229973
-0.000264602
-0.000299729
-0.000335329
-0.000371368
-0.000407805
-0.000444588
-0.000481659
-0.000518946
-0.000556372
-0.000593849
-0.000631279
-0.000668556
-0.000705564
-0.000742179
-0.000778268
-0.000813691
-0.000848301
-0.000881941
-0.000914451
-0.000945664
-0.000975409
-0.00100351
-0.00102978
-0.00105405
-0.00107614
-0.00109585
-0.001113
-0.00112742
-0.00113895
-0.00114738
-0.0011524
-0.00115381
-0.00115283
0.00111853
0.00108832
0.00105254
0.00101694
0.00098131
0.000945305
0.000909052
0.000872769
0.000836621
0.000800729
0.000765188
0.000730071
0.000695429
0.000661296
0.000627689
0.000594609
0.000562045
0.000529976
0.000498369
0.000467185
0.000436378
0.000405893
0.000375675
0.000345661
0.00031579
0.000285995
0.000256209
0.000226366
0.000196398
0.00016624
0.000135828
0.000105099
7.39933e-05
4.24553e-05
1.04323e-05
-2.21236e-05
-5.5255e-05
-8.89993e-05
-0.000123387
-0.000158443
-0.000194183
-0.000230616
-0.000267742
-0.000305553
-0.000344029
-0.000383143
-0.000422856
-0.000463117
-0.000503868
-0.000545035
-0.000586536
-0.000628275
-0.000670148
-0.000712037
-0.000753813
-0.000795338
-0.000836462
-0.000877025
-0.000916859
-0.000955786
-0.000993622
-0.00103017
-0.00106524
-0.00109862
-0.00113011
-0.00115949
-0.00118656
-0.00121109
-0.00123287
-0.0012517
-0.00126737
-0.00127966
-0.00128828
-0.00129304
-0.00129473
0.0012533
0.00121421
0.00116851
0.00112385
0.0010799
0.0010361
0.000992573
0.00094953
0.000907137
0.000865502
0.0008247
0.000784783
0.00074578
0.000707698
0.00067053
0.000634249
0.000598818
0.000564186
0.000530296
0.00049708
0.000464464
0.00043237
0.000400716
0.000369415
0.00033838
0.000307521
0.00027675
0.000245976
0.000215112
0.000184068
0.000152761
0.000121107
8.90266e-05
5.64443e-05
2.32885e-05
-1.05072e-05
-4.50035e-05
-8.02549e-05
-0.000116309
-0.000153205
-0.000190974
-0.000229638
-0.00026921
-0.000309692
-0.000351073
-0.000393333
-0.000436439
-0.000480343
-0.000524987
-0.000570297
-0.000616187
-0.000662555
-0.000709288
-0.000756255
-0.000803316
-0.000850313
-0.00089708
-0.000943434
-0.000989184
-0.00103413
-0.00107805
-0.00112072
-0.00116192
-0.00120141
-0.00123895
-0.00127429
-0.00130718
-0.00133737
-0.00136461
-0.00138866
-0.00140927
-0.00142619
-0.00143915
-0.00144798
-0.00145295
0.00139308
0.00134361
0.00128636
0.00123126
0.00117779
0.00112518
0.00107348
0.00102293
0.000973662
0.00092577
0.0008793
0.000834274
0.000790687