/*--------------------------------*- C++ -*----------------------------------*\
  =========                 |
  \\      /  F ield         | OpenFOAM: The Open Source CFD Toolbox
   \\    /   O peration     | Website:  https://openfoam.org
    \\  /    A nd           | Version:  12
     \\/     M anipulation  |
\*---------------------------------------------------------------------------*/
FoamFile
{
    format      ascii;
    class       volVectorField;
    location    "3.5";
    object      U;
}
// * * * * * * * * * * * * * * * * * * * * * * * * * * * * * * * * * * * * * //

dimensions      [0 1 -1 0 0 0 0];

internalField   nonuniform List<vector> 
5625
(
(-2.62065e-07 5.86516e-07 0)
(-9.04368e-07 8.85045e-07 0)
(-1.32217e-06 7.76809e-07 0)
(-1.19164e-06 4.99905e-07 0)
(-2.84636e-07 1.66917e-07 0)
(1.48118e-06 -1.73574e-07 0)
(4.11027e-06 -4.97625e-07 0)
(7.56718e-06 -7.92981e-07 0)
(1.17933e-05 -1.0543e-06 0)
(1.67159e-05 -1.28022e-06 0)
(2.22552e-05 -1.47151e-06 0)
(2.83281e-05 -1.62996e-06 0)
(3.48514e-05 -1.75785e-06 0)
(4.17434e-05 -1.85755e-06 0)
(4.8925e-05 -1.93141e-06 0)
(5.63203e-05 -1.98166e-06 0)
(6.38571e-05 -2.01038e-06 0)
(7.1467e-05 -2.01946e-06 0)
(7.90858e-05 -2.01065e-06 0)
(8.6653e-05 -1.98555e-06 0)
(9.41119e-05 -1.94562e-06 0)
(0.00010141 -1.8922e-06 0)
(0.000108498 -1.82652e-06 0)
(0.000115331 -1.74971e-06 0)
(0.000121867 -1.66284e-06 0)
(0.000128067 -1.56686e-06 0)
(0.000133896 -1.46271e-06 0)
(0.000139323 -1.35122e-06 0)
(0.000144317 -1.23319e-06 0)
(0.000148855 -1.10939e-06 0)
(0.000152911 -9.80526e-07 0)
(0.000156466 -8.47283e-07 0)
(0.000159503 -7.10317e-07 0)
(0.000162006 -5.70262e-07 0)
(0.000163964 -4.27731e-07 0)
(0.000165366 -2.83329e-07 0)
(0.000166207 -1.37649e-07 0)
(0.000166481 8.71754e-09 0)
(0.000166187 1.55169e-07 0)
(0.000165326 3.01127e-07 0)
(0.0001639 4.4598e-07 0)
(0.000161917 5.89103e-07 0)
(0.000159385 7.29863e-07 0)
(0.000156316 8.67601e-07 0)
(0.000152723 1.00164e-06 0)
(0.000148625 1.13126e-06 0)
(0.000144041 1.25573e-06 0)
(0.000138995 1.37427e-06 0)
(0.000133514 1.48606e-06 0)
(0.000127626 1.59023e-06 0)
(0.000121365 1.68587e-06 0)
(0.000114766 1.77202e-06 0)
(0.000107871 1.84763e-06 0)
(0.000100722 1.91163e-06 0)
(9.33661e-05 1.96284e-06 0)
(8.58541e-05 2.00001e-06 0)
(7.82404e-05 2.02178e-06 0)
(7.05836e-05 2.0267e-06 0)
(6.29456e-05 2.01322e-06 0)
(5.53926e-05 1.97962e-06 0)
(4.79943e-05 1.92408e-06 0)
(4.08239e-05 1.84462e-06 0)
(3.39583e-05 1.73915e-06 0)
(2.74767e-05 1.6055e-06 0)
(2.14607e-05 1.44148e-06 0)
(1.59927e-05 1.24511e-06 0)
(1.11542e-05 1.0149e-06 0)
(7.02257e-06 7.50502e-07 0)
(3.66704e-06 4.53728e-07 0)
(1.14184e-06 1.30475e-07 0)
(-5.22975e-07 -2.0643e-07 0)
(-1.33835e-06 -5.32575e-07 0)
(-1.39407e-06 -7.99162e-07 0)
(-9.26114e-07 -8.94597e-07 0)
(-2.6179e-07 -5.85561e-07 0)
(-1.00395e-07 1.36758e-06 0)
(1.13467e-07 1.42218e-06 0)
(1.42906e-06 -2.30784e-07 0)
(4.25055e-06 -2.82592e-06 0)
(8.83771e-06 -5.88229e-06 0)
(1.53073e-05 -9.0967e-06 0)
(2.36735e-05 -1.2275e-05 0)
(3.38791e-05 -1.5294e-05 0)
(4.58176e-05 -1.80782e-05 0)
(5.93487e-05 -2.05833e-05 0)
(7.43103e-05 -2.27864e-05 0)
(9.0527e-05 -2.46781e-05 0)
(0.000107817 -2.6258e-05 0)
(0.000125994 -2.75318e-05 0)
(0.000144877 -2.85089e-05 0)
(0.000164285 -2.92012e-05 0)
(0.000184044 -2.96221e-05 0)
(0.000203985 -2.97857e-05 0)
(0.000223949 -2.97065e-05 0)
(0.000243782 -2.93993e-05 0)
(0.00026334 -2.88786e-05 0)
(0.000282487 -2.81589e-05 0)
(0.000301096 -2.72541e-05 0)
(0.000319047 -2.61781e-05 0)
(0.000336231 -2.49441e-05 0)
(0.000352545 -2.35652e-05 0)
(0.000367894 -2.20539e-05 0)
(0.000382194 -2.04223e-05 0)
(0.000395367 -1.86824e-05 0)
(0.000407341 -1.68457e-05 0)
(0.000418055 -1.49233e-05 0)
(0.000427453 -1.29263e-05 0)
(0.000435487 -1.08653e-05 0)
(0.000442118 -8.75091e-06 0)
(0.000447311 -6.59355e-06 0)
(0.00045104 -4.40353e-06 0)
(0.000453287 -2.19112e-06 0)
(0.000454039 3.34496e-08 0)
(0.000453291 2.25989e-06 0)
(0.000451046 4.47785e-06 0)
(0.000447312 6.67687e-06 0)
(0.000442106 8.84633e-06 0)
(0.000435452 1.09755e-05 0)
(0.000427382 1.30532e-05 0)
(0.000417935 1.50684e-05 0)
(0.000407157 1.70094e-05 0)
(0.000395104 1.88646e-05 0)
(0.000381838 2.06217e-05 0)
(0.000367429 2.22683e-05 0)
(0.000351958 2.37918e-05 0)
(0.000335513 2.5179e-05 0)
(0.000318189 2.64165e-05 0)
(0.000300093 2.74908e-05 0)
(0.000281338 2.83877e-05 0)
(0.000262048 2.90931e-05 0)
(0.000242353 2.95927e-05 0)
(0.000222395 2.9872e-05 0)
(0.000202323 2.99164e-05 0)
(0.000182293 2.97116e-05 0)
(0.00016247 2.92437e-05 0)
(0.000143026 2.84995e-05 0)
(0.000124139 2.74668e-05 0)
(0.000105989 2.61352e-05 0)
(8.87622e-05 2.44973e-05 0)
(7.26423e-05 2.25496e-05 0)
(5.78101e-05 2.02951e-05 0)
(4.44379e-05 1.7746e-05 0)
(3.26831e-05 1.49288e-05 0)
(2.26792e-05 1.18911e-05 0)
(1.45242e-05 8.71226e-06 0)
(8.26486e-06 5.51888e-06 0)
(3.87508e-06 2.50788e-06 0)
(1.22363e-06 -1.64869e-08 0)
(3.36035e-08 -1.57619e-06 0)
(-1.08575e-07 -1.41634e-06 0)
(8.29716e-08 5.14592e-07 0)
(1.8774e-06 -2.19264e-06 0)
(5.91481e-06 -7.43761e-06 0)
(1.24631e-05 -1.41794e-05 0)
(2.16081e-05 -2.16885e-05 0)
(3.33801e-05 -2.9455e-05 0)
(4.77454e-05 -3.71204e-05 0)
(6.46072e-05 -4.44354e-05 0)
(8.38173e-05 -5.1231e-05 0)
(0.00010519 -5.73967e-05 0)
(0.00012851 -6.28644e-05 0)
(0.000153547 -6.75963e-05 0)
(0.000180055 -7.1577e-05 0)
(0.000207784 -7.48065e-05 0)
(0.000236482 -7.72965e-05 0)
(0.000265899 -7.90666e-05 0)
(0.00029579 -8.01419e-05 0)
(0.000325917 -8.05516e-05 0)
(0.000356048 -8.03275e-05 0)
(0.000385964 -7.95029e-05 0)
(0.000415455 -7.8112e-05 0)
(0.000444321 -7.61895e-05 0)
(0.000472374 -7.37702e-05 0)
(0.000499439 -7.08885e-05 0)
(0.00052535 -6.75785e-05 0)
(0.000549955 -6.38737e-05 0)
(0.000573114 -5.9807e-05 0)
(0.000594697 -5.54106e-05 0)
(0.000614585 -5.07162e-05 0)
(0.000632673 -4.57547e-05 0)
(0.000648866 -4.05565e-05 0)
(0.000663079 -3.51514e-05 0)
(0.000675239 -2.95687e-05 0)
(0.000685285 -2.38376e-05 0)
(0.000693165 -1.79867e-05 0)
(0.000698838 -1.20446e-05 0)
(0.000702276 -6.03975e-06 0)
(0.000703459 -6.01344e-10 0)
(0.000702378 6.04427e-06 0)
(0.000699038 1.20661e-05 0)
(0.000693452 1.80359e-05 0)
(0.000685644 2.39241e-05 0)
(0.000675651 2.9701e-05 0)
(0.000663521 3.53361e-05 0)
(0.000649312 4.07986e-05 0)
(0.000633096 4.60568e-05 0)
(0.000614955 5.10787e-05 0)
(0.000594984 5.58313e-05 0)
(0.00057329 6.02813e-05 0)
(0.000549993 6.43944e-05 0)
(0.000525225 6.81361e-05 0)
(0.00049913 7.14712e-05 0)
(0.000471865 7.43642e-05 0)
(0.000443602 7.67792e-05 0)
(0.00041452 7.86804e-05 0)
(0.000384815 8.00323e-05 0)
(0.000354694 8.07997e-05 0)
(0.000324372 8.09486e-05 0)
(0.000294077 8.04464e-05 0)
(0.000264046 7.9263e-05 0)
(0.000234524 7.73715e-05 0)
(0.00020576 7.47497e-05 0)
(0.000178008 7.13817e-05 0)
(0.000151524 6.72606e-05 0)
(0.000126559 6.23915e-05 0)
(0.000103355 5.67963e-05 0)
(8.21422e-05 5.05194e-05 0)
(6.31292e-05 4.36364e-05 0)
(4.64944e-05 3.62657e-05 0)
(3.23757e-05 2.85843e-05 0)
(2.08573e-05 2.0849e-05 0)
(1.19577e-05 1.34251e-05 0)
(5.62866e-06 6.82681e-06 0)
(1.76202e-06 1.78478e-06 0)
(7.10906e-08 -6.65063e-07 0)
(2.51416e-07 -2.16156e-06 0)
(3.67054e-06 -1.04622e-05 0)
(1.05504e-05 -2.15175e-05 0)
(2.0988e-05 -3.42096e-05 0)
(3.48371e-05 -4.7697e-05 0)
(5.19813e-05 -6.13496e-05 0)
(7.22909e-05 -7.46961e-05 0)
(9.55961e-05 -8.73887e-05 0)
(0.000121688 -9.91776e-05 0)
(0.000150328 -0.000109888 0)
(0.000181252 -0.000119406 0)
(0.00021418 -0.00012766 0)
(0.00024882 -0.000134615 0)
(0.000284874 -0.00014026 0)
(0.00032204 -0.000144607 0)
(0.000360019 -0.00014768 0)
(0.000398515 -0.000149515 0)
(0.00043724 -0.000150158 0)
(0.000475914 -0.000149658 0)
(0.000514266 -0.000148069 0)
(0.000552041 -0.00014545 0)
(0.000588991 -0.000141858 0)
(0.000624884 -0.000137355 0)
(0.000659501 -0.000132001 0)
(0.000692638 -0.000125855 0)
(0.000724103 -0.000118977 0)
(0.000753718 -0.000111427 0)
(0.000781322 -0.000103264 0)
(0.000806764 -9.45435e-05 0)
(0.000829911 -8.5324e-05 0)
(0.000850642 -7.56608e-05 0)
(0.000868849 -6.56093e-05 0)
(0.000884439 -5.5224e-05 0)
(0.000897333 -4.45589e-05 0)
(0.000907465 -3.36678e-05 0)
(0.000914783 -2.2604e-05 0)
(0.000919248 -1.14209e-05 0)
(0.000920835 -1.71896e-07 0)
(0.000919534 1.10893e-05 0)
(0.000915347 2.23087e-05 0)
(0.00090829 3.34317e-05 0)
(0.000898396 4.44031e-05 0)
(0.000885709 5.51669e-05 0)
(0.000870288 6.56663e-05 0)
(0.000852209 7.58434e-05 0)
(0.00083156 8.56396e-05 0)
(0.000808446 9.4995e-05 0)
(0.000782986 0.000103849 0)
(0.000755315 0.00011214 0)
(0.000725584 0.000119805 0)
(0.000693958 0.000126781 0)
(0.000660619 0.000133005 0)
(0.000625764 0.000138412 0)
(0.000589604 0.000142939 0)
(0.000552366 0.000146523 0)
(0.000514292 0.000149102 0)
(0.000475637 0.000150615 0)
(0.000436667 0.000151006 0)
(0.000397663 0.000150221 0)
(0.000358913 0.000148213 0)
(0.000320715 0.00014494 0)
(0.000283371 0.000140372 0)
(0.000247189 0.00013449 0)
(0.000212474 0.000127292 0)
(0.000179528 0.000118796 0)
(0.000148643 0.00010905 0)
(0.000120099 9.81341e-05 0)
(9.41534e-05 8.61777e-05 0)
(7.10388e-05 7.33675e-05 0)
(5.09531e-05 5.99674e-05 0)
(3.40529e-05 4.63381e-05 0)
(2.04508e-05 3.29639e-05 0)
(1.02418e-05 2.04854e-05 0)
(3.54409e-06 9.75229e-06 0)
(2.38045e-07 1.8867e-06 0)
(3.92316e-07 -6.55283e-06 0)
(5.29357e-06 -2.32208e-05 0)
(1.48345e-05 -4.23093e-05 0)
(2.89606e-05 -6.27363e-05 0)
(4.72978e-05 -8.36463e-05 0)
(6.95687e-05 -0.000104368 0)
(9.5527e-05 -0.000124376 0)
(0.000124909 -0.000143267 0)
(0.000157431 -0.000160741 0)
(0.000192787 -0.00017658 0)
(0.000230661 -0.000190632 0)
(0.000270723 -0.000202803 0)
(0.000312637 -0.000213039 0)
(0.000356063 -0.000221324 0)
(0.000400658 -0.000227666 0)
(0.000446086 -0.000232098 0)
(0.000492013 -0.000234665 0)
(0.000538114 -0.00023543 0)
(0.000584072 -0.000234461 0)
(0.000629583 -0.000231837 0)
(0.000674355 -0.000227638 0)
(0.000718108 -0.000221951 0)
(0.000760579 -0.000214864 0)
(0.000801516 -0.000206466 0)
(0.000840686 -0.000196847 0)
(0.000877869 -0.000186096 0)
(0.000912862 -0.000174303 0)
(0.000945478 -0.000161556 0)
(0.000975543 -0.000147944 0)
(0.0010029 -0.000133554 0)
(0.00102742 -0.00011847 0)
(0.00104896 -0.000102779 0)
(0.00106742 -8.65654e-05 0)
(0.00108272 -6.99121e-05 0)
(0.00109476 -5.29029e-05 0)
(0.00110349 -3.5621e-05 0)
(0.00110886 -1.81497e-05 0)
(0.00111084 -5.72285e-07 0)
(0.00110943 1.70273e-05 0)
(0.00110461 3.45647e-05 0)
(0.00109641 5.19545e-05 0)
(0.00108486 6.91104e-05 0)
(0.00107002 8.59451e-05 0)
(0.00105195 0.00010237 0)
(0.00103074 0.000118294 0)
(0.00100648 0.000133627 0)
(0.000979302 0.000148276 0)
(0.00094934 0.000162147 0)
(0.000916748 0.000175144 0)
(0.000881701 0.000187171 0)
(0.000844387 0.000198133 0)
(0.000805015 0.000207931 0)
(0.000763812 0.000216468 0)
(0.000721019 0.00022365 0)
(0.000676898 0.000229382 0)
(0.000631723 0.000233571 0)
(0.000585787 0.000236131 0)
(0.000539393 0.000236978 0)
(0.00049286 0.000236037 0)
(0.000446516 0.000233241 0)
(0.0004007 0.000228535 0)
(0.000355757 0.000221879 0)
(0.000312034 0.00021325 0)
(0.000269882 0.000202652 0)
(0.000229646 0.000190116 0)
(0.000191668 0.000175709 0)
(0.000156277 0.000159545 0)
(0.000123789 0.000141793 0)
(9.45007e-05 0.000122691 0)
(6.86887e-05 0.00010256 0)
(4.66022e-05 8.18251e-05 0)
(2.84699e-05 6.10304e-05 0)
(1.45454e-05 4.0867e-05 0)
(5.17236e-06 2.22078e-05 0)
(3.79042e-07 6.15051e-06 0)
(5.09248e-07 -1.24408e-05 0)
(6.70963e-06 -4.00076e-05 0)
(1.86343e-05 -6.92339e-05 0)
(3.6108e-05 -9.91233e-05 0)
(5.85557e-05 -0.000128861 0)
(8.5548e-05 -0.000157788 0)
(0.00011672 -0.000185371 0)
(0.000151708 -0.000211193 0)
(0.000190143 -0.000234931 0)
(0.000231649 -0.000256348 0)
(0.000275848 -0.000275278 0)
(0.00032236 -0.000291613 0)
(0.000370802 -0.000305295 0)
(0.000420794 -0.000316304 0)
(0.000471959 -0.000324656 0)
(0.000523925 -0.000330391 0)
(0.00057633 -0.000333571 0)
(0.000628818 -0.000334276 0)
(0.000681047 -0.000332596 0)
(0.000732687 -0.000328634 0)
(0.000783419 -0.000322499 0)
(0.000832943 -0.000314305 0)
(0.000880971 -0.00030417 0)
(0.000927232 -0.000292214 0)
(0.00097147 -0.00027856 0)
(0.00101345 -0.000263328 0)
(0.00105294 -0.000246643 0)
(0.00108975 -0.000228624 0)
(0.00112368 -0.000209393 0)
(0.00115457 -0.00018907 0)
(0.00118226 -0.000167774 0)
(0.00120661 -0.000145623 0)
(0.0012275 -0.000122734 0)
(0.00124483 -9.92242e-05 0)
(0.00125851 -7.52104e-05 0)
(0.00126848 -5.08085e-05 0)
(0.00127468 -2.61351e-05 0)
(0.00127707 -1.30712e-06 0)
(0.00127564 2.35577e-05 0)
(0.00127039 4.83408e-05 0)
(0.00126134 7.29224e-05 0)
(0.00124851 9.71812e-05 0)
(0.00123198 0.000120994 0)
(0.0012118 0.000144237 0)
(0.00118807 0.000166784 0)
(0.00116089 0.000188505 0)
(0.00113041 0.000209273 0)
(0.00109676 0.000228954 0)
(0.00106012 0.000247417 0)
(0.00102067 0.000264527 0)
(0.000978622 0.000280151 0)
(0.0009342 0.000294154 0)
(0.000887652 0.000306403 0)
(0.000839242 0.000316766 0)
(0.000789253 0.000325114 0)
(0.000737988 0.000331324 0)
(0.000685763 0.000335277 0)
(0.000632914 0.00033686 0)
(0.000579787 0.000335975 0)
(0.000526743 0.000332532 0)
(0.000474155 0.00032646 0)
(0.000422402 0.000317706 0)
(0.00037187 0.000306242 0)
(0.000322952 0.000292069 0)
(0.000276036 0.000275224 0)
(0.000231515 0.000255787 0)
(0.000189773 0.000233891 0)
(0.00015119 0.000209727 0)
(0.000116137 0.000183561 0)
(8.49769e-05 0.000155745 0)
(5.80593e-05 0.000126725 0)
(3.5732e-05 9.70643e-05 0)
(1.84e-05 6.74517e-05 0)
(6.60604e-06 3.873e-05 0)
(4.96854e-07 1.19223e-05 0)
(6.07131e-07 -1.96172e-05 0)
(7.93487e-06 -6.03302e-05 0)
(2.19593e-05 -0.000101615 0)
(4.24107e-05 -0.000142576 0)
(6.85437e-05 -0.000182469 0)
(9.97932e-05 -0.000220676 0)
(0.000135682 -0.000256692 0)
(0.000175751 -0.000290112 0)
(0.000219543 -0.000320623 0)
(0.000266611 -0.000347992 0)
(0.000316514 -0.000372056 0)
(0.000368815 -0.000392713 0)
(0.000423088 -0.000409912 0)
(0.000478913 -0.000423643 0)
(0.000535879 -0.000433935 0)
(0.000593583 -0.000440845 0)
(0.000651637 -0.000444457 0)
(0.000709663 -0.00044487 0)
(0.000767296 -0.000442204 0)
(0.000824188 -0.000436586 0)
(0.000880004 -0.000428156 0)
(0.000934425 -0.000417059 0)
(0.000987151 -0.000403445 0)
(0.0010379 -0.000387468 0)
(0.00108639 -0.000369283 0)
(0.00113239 -0.000349046 0)
(0.00117565 -0.000326913 0)
(0.00121597 -0.000303042 0)
(0.00125314 -0.000277587 0)
(0.00128699 -0.000250703 0)
(0.00131734 -0.000222544 0)
(0.00134406 -0.000193262 0)
(0.00136701 -0.00016301 0)
(0.0013861 -0.00013194 0)
(0.00140121 -0.000100202 0)
(0.00141228 -6.79487e-05 0)
(0.00141925 -3.53311e-05 0)
(0.00142208 -2.50208e-06 0)
(0.00142075 3.03847e-05 0)
(0.00141526 6.31741e-05 0)
(0.00140562 9.57094e-05 0)
(0.00139186 0.000127832 0)
(0.00137403 0.000159381 0)
(0.00135222 0.000190192 0)
(0.00132652 0.000220102 0)
(0.00129703 0.000248941 0)
(0.0012639 0.00027654 0)
(0.00122727 0.000302728 0)
(0.00118732 0.00032733 0)
(0.00114424 0.000350171 0)
(0.00109827 0.000371078 0)
(0.00104962 0.000389876 0)
(0.000998571 0.000406391 0)
(0.000945393 0.000420452 0)
(0.000890387 0.000431895 0)
(0.000833874 0.000440556 0)
(0.000776191 0.000446285 0)
(0.000717695 0.000448937 0)
(0.000658759 0.000448384 0)
(0.00059977 0.000444511 0)
(0.000541129 0.000437224 0)
(0.00048325 0.000426452 0)
(0.000426556 0.000412155 0)
(0.000371478 0.000394324 0)
(0.000318454 0.000372991 0)
(0.000267925 0.000348237 0)
(0.000220337 0.000320195 0)
(0.000176137 0.000289063 0)
(0.000135773 0.000255113 0)
(9.96971e-05 0.000218696 0)
(6.83582e-05 0.000180258 0)
(4.22166e-05 0.000140346 0)
(2.18129e-05 9.96173e-05 0)
(7.86008e-06 5.88592e-05 0)
(5.96232e-07 1.90047e-05 0)
(6.90538e-07 -2.79054e-05 0)
(8.99811e-06 -8.37397e-05 0)
(2.48629e-05 -0.0001388 0)
(4.79398e-05 -0.000192297 0)
(7.73383e-05 -0.000243564 0)
(0.000112375 -0.000292045 0)
(0.00015247 -0.000337284 0)
(0.000197074 -0.000378914 0)
(0.000245649 -0.000416651 0)
(0.000297675 -0.000450289 0)
(0.000352649 -0.000479687 0)
(0.000410083 -0.000504765 0)
(0.000469503 -0.000525494 0)
(0.000530452 -0.000541888 0)
(0.000592485 -0.000553999 0)
(0.000655174 -0.000561911 0)
(0.000718106 -0.000565734 0)
(0.000780886 -0.000565598 0)
(0.000843131 -0.000561651 0)
(0.000904481 -0.000554054 0)
(0.000964588 -0.000542978 0)
(0.00102312 -0.000528604 0)
(0.00107978 -0.000511115 0)
(0.00113426 -0.0004907 0)
(0.0011863 -0.000467549 0)
(0.00123563 -0.000441854 0)
(0.00128202 -0.000413808 0)
(0.00132525 -0.000383601 0)
(0.00136511 -0.000351425 0)
(0.00140142 -0.000317469 0)
(0.00143401 -0.000281923 0)
(0.00146273 -0.000244974 0)
(0.00148745 -0.000206809 0)
(0.00150804 -0.000167617 0)
(0.00152442 -0.000127583 0)
(0.00153651 -8.68955e-05 0)
(0.00154423 -4.57412e-05 0)
(0.00154755 -4.30975e-06 0)
(0.00154644 3.72083e-05 0)
(0.00154089 7.86204e-05 0)
(0.00153091 0.000119731 0)
(0.00151654 0.000160344 0)
(0.00149782 0.000200257 0)
(0.00147482 0.000239269 0)
(0.00144764 0.000277171 0)
(0.00141639 0.000313755 0)
(0.00138119 0.000348808 0)
(0.00134222 0.000382117 0)
(0.00129963 0.000413463 0)
(0.00125363 0.000442629 0)
(0.00120445 0.000469397 0)
(0.00115232 0.000493548 0)
(0.00109751 0.000514866 0)
(0.00104032 0.000533138 0)
(0.000981049 0.000548157 0)
(0.000920034 0.00055972 0)
(0.00085763 0.000567638 0)
(0.000794208 0.000571729 0)
(0.000730164 0.000571831 0)
(0.000665908 0.000567797 0)
(0.000601869 0.000559504 0)
(0.000538493 0.000546856 0)
(0.000476237 0.000529789 0)
(0.000415575 0.000508275 0)
(0.000356992 0.000482331 0)
(0.000300981 0.000452021 0)
(0.00024805 0.000417466 0)
(0.000198714 0.000378854 0)
(0.0001535 0.000336438 0)
(0.000112943 0.000290555 0)
(7.759e-05 0.000241624 0)
(4.80023e-05 0.00019016 0)
(2.4841e-05 0.000136771 0)
(8.96411e-06 8.21805e-05 0)
(6.81738e-07 2.72315e-05 0)
(7.63122e-07 -3.71604e-05 0)
(9.92699e-06 -0.000109847 0)
(2.74039e-05 -0.000180204 0)
(5.27847e-05 -0.000247539 0)
(8.50527e-05 -0.000311272 0)
(0.000123419 -0.00037092 0)
(0.000167215 -0.00042609 0)
(0.000215805 -0.000476469 0)
(0.000268576 -0.000521824 0)
(0.000324942 -0.000561992 0)
(0.000384341 -0.000596872 0)
(0.000446233 -0.000626422 0)
(0.000510103 -0.000650651 0)
(0.000575456 -0.000669608 0)
(0.00064182 -0.000683382 0)
(0.000708743 -0.000692091 0)
(0.000775791 -0.000695883 0)
(0.000842554 -0.000694923 0)
(0.00090864 -0.000689397 0)
(0.000973677 -0.000679503 0)
(0.00103731 -0.000665448 0)
(0.00109922 -0.000647449 0)
(0.00115907 -0.000625729 0)
(0.00121659 -0.000600511 0)
(0.00127149 -0.000572023 0)
(0.00132352 -0.000540494 0)
(0.00137244 -0.00050615 0)
(0.00141802 -0.000469219 0)
(0.00146007 -0.000429928 0)
(0.0014984 -0.000388501 0)
(0.00153283 -0.000345162 0)
(0.00156322 -0.000300133 0)
(0.00158943 -0.000253637 0)
(0.00161135 -0.000205895 0)
(0.00162886 -0.00015713 0)
(0.00164189 -0.000107562 0)
(0.00165037 -5.74166e-05 0)
(0.00165425 -6.91793e-06 0)
(0.00165349 4.37065e-05 0)
(0.00164809 9.42265e-05 0)
(0.00163805 0.000144409 0)
(0.00162339 0.000194017 0)
(0.00160416 0.000242811 0)
(0.00158042 0.000290545 0)
(0.00155225 0.000336972 0)
(0.00151977 0.000381838 0)
(0.00148309 0.000424889 0)
(0.00144237 0.000465864 0)
(0.00139778 0.000504502 0)
(0.00134953 0.000540538 0)
(0.00129782 0.000573708 0)
(0.00124291 0.000603746 0)
(0.00118506 0.000630391 0)
(0.00112456 0.000653382 0)
(0.00106174 0.000672467 0)
(0.000996932 0.000687398 0)
(0.000930503 0.00069794 0)
(0.00086284 0.000703872 0)
(0.000794355 0.000704988 0)
(0.000725482 0.000701103 0)
(0.000656674 0.000692057 0)
(0.000588407 0.000677719 0)
(0.000521175 0.000657992 0)
(0.000455491 0.000632816 0)
(0.000391887 0.00060218 0)
(0.000330912 0.000566119 0)
(0.000273131 0.000524729 0)
(0.000219129 0.000478164 0)
(0.000169508 0.000426653 0)
(0.000124886 0.000370496 0)
(8.58955e-05 0.000310074 0)
(5.31949e-05 0.000245855 0)
(2.75509e-05 0.000178394 0)
(9.94838e-06 0.000108345 0)
(7.57163e-07 3.647e-05 0)
(8.27528e-07 -4.7263e-05 0)
(1.07431e-05 -0.000138319 0)
(2.96301e-05 -0.0002253 0)
(5.70205e-05 -0.000307612 0)
(9.17847e-05 -0.000384763 0)
(0.00013304 -0.00045635 0)
(0.000180033 -0.000522056 0)
(0.000232055 -0.000581638 0)
(0.000288423 -0.000634926 0)
(0.000348488 -0.000681817 0)
(0.000411635 -0.000722268 0)
(0.000477279 -0.00075629 0)
(0.000544865 -0.000783943 0)
(0.000613869 -0.000805325 0)
(0.000683791 -0.000820574 0)
(0.00075416 -0.000829855 0)
(0.000824529 -0.000833359 0)
(0.000894476 -0.000831297 0)
(0.000963604 -0.000823899 0)
(0.00103154 -0.000811403 0)
(0.00109792 -0.000794061 0)
(0.00116243 -0.000772128 0)
(0.00122475 -0.000745867 0)
(0.0012846 -0.00071554 0)
(0.00134169 -0.000681413 0)
(0.00139578 -0.000643749 0)
(0.00144663 -0.000602814 0)
(0.00149403 -0.000558869 0)
(0.00153778 -0.000512175 0)
(0.00157769 -0.00046299 0)
(0.0016136 -0.000411572 0)
(0.00164535 -0.000358177 0)
(0.00167281 -0.000303058 0)
(0.00169586 -0.000246472 0)
(0.0017144 -0.000188672 0)
(0.00172834 -0.000129915 0)
(0.00173761 -7.04576e-05 0)
(0.00174214 -1.05595e-05 0)
(0.00174191 4.95165e-05 0)
(0.00173689 0.000109504 0)
(0.00172707 0.000169133 0)
(0.00171248 0.000228127 0)
(0.00169314 0.000286208 0)
(0.00166911 0.000343089 0)
(0.00164046 0.000398479 0)
(0.00160729 0.000452084 0)
(0.00156972 0.000503601 0)
(0.00152789 0.000552726 0)
(0.00148196 0.000599149 0)
(0.00143212 0.000642558 0)
(0.00137858 0.000682639 0)
(0.00132159 0.000719077 0)
(0.00126141 0.000751559 0)
(0.00119834 0.000779775 0)
(0.00113268 0.000803421 0)
(0.00106479 0.0008222 0)
(0.000995036 0.000835825 0)
(0.000923821 0.000844027 0)
(0.00085157 0.00084655 0)
(0.000778733 0.000843162 0)
(0.000705791 0.000833656 0)
(0.000633245 0.000817857 0)
(0.000561624 0.000795623 0)
(0.000491482 0.000766852 0)
(0.000423396 0.00073149 0)
(0.000357968 0.000689532 0)
(0.000295822 0.000641031 0)
(0.000237609 0.000586101 0)
(0.000184002 0.000524926 0)
(0.000135699 0.00045776 0)
(9.34153e-05 0.000384935 0)
(5.7895e-05 0.000306866 0)
(3.00031e-05 0.000224047 0)
(1.08388e-05 0.000137068 0)
(8.25423e-07 4.66166e-05 0)
(8.85511e-07 -5.81127e-05 0)
(1.14606e-05 -0.00016886 0)
(3.15721e-05 -0.000273611 0)
(6.06943e-05 -0.00037187 0)
(9.75929e-05 -0.000463236 0)
(0.000141297 -0.000547398 0)
(0.00019098 -0.000624123 0)
(0.000245862 -0.000693251 0)
(0.000305197 -0.000754691 0)
(0.000368283 -0.000808415 0)
(0.000434455 -0.000854453 0)
(0.000503089 -0.000892884 0)
(0.000573599 -0.000923832 0)
(0.000645433 -0.00094746 0)
(0.000718073 -0.000963965 0)
(0.000791033 -0.000973568 0)
(0.000863859 -0.000976517 0)
(0.000936125 -0.000973076 0)
(0.00100743 -0.000963522 0)
(0.00107741 -0.000948145 0)
(0.00114571 -0.000927241 0)
(0.00121201 -0.000901109 0)
(0.00127601 -0.000870054 0)
(0.00133742 -0.00083438 0)
(0.00139599 -0.000794388 0)
(0.00145147 -0.000750382 0)
(0.00150365 -0.000702659 0)
(0.0015523 -0.000651515 0)
(0.00159724 -0.000597245 0)
(0.0016383 -0.000540138 0)
(0.00167531 -0.000480483 0)
(0.00170812 -0.000418566 0)
(0.0017366 -0.000354671 0)
(0.00176063 -0.000289083 0)
(0.0017801 -0.000222087 0)
(0.00179493 -0.000153969 0)
(0.00180504 -8.50174e-05 0)
(0.00181036 -1.55239e-05 0)
(0.00181084 5.42162e-05 0)
(0.00180646 0.000123903 0)
(0.0017972 0.00019323 0)
(0.00178307 0.000261885 0)
(0.00176407 0.000329551 0)
(0.00174026 0.000395901 0)
(0.00171168 0.000460603 0)
(0.00167843 0.000523318 0)
(0.0016406 0.000583699 0)
(0.00159832 0.000641394 0)
(0.00155175 0.000696045 0)
(0.00150105 0.000747288 0)
(0.00144643 0.000794758 0)
(0.00138812 0.000838087 0)
(0.00132637 0.000876907 0)
(0.00126148 0.000910853 0)
(0.00119375 0.000939564 0)
(0.00112353 0.000962686 0)
(0.0010512 0.000979877 0)
(0.000977164 0.000990807 0)
(0.000901857 0.000995166 0)
(0.000825748 0.000992663 0)
(0.000749336 0.000983037 0)
(0.000673151 0.000966054 0)
(0.000597754 0.000941518 0)
(0.000523736 0.000909273 0)
(0.000451719 0.000869209 0)
(0.000382355 0.000821267 0)
(0.000316326 0.000765446 0)
(0.000254345 0.000701807 0)
(0.000197157 0.000630475 0)
(0.000145532 0.000551651 0)
(0.000100266 0.000465609 0)
(6.21854e-05 0.000372701 0)
(3.22463e-05 0.000273363 0)
(1.16558e-05 0.000168119 0)
(8.88685e-07 5.75914e-05 0)
(9.38037e-07 -6.96194e-05 0)
(1.20855e-05 -0.000201195 0)
(3.3241e-05 -0.00032468 0)
(6.38184e-05 -0.000439679 0)
(0.000102483 -0.000545892 0)
(0.000148183 -0.000643106 0)
(0.00020002 -0.000731188 0)
(0.000257151 -0.000810075 0)
(0.000318776 -0.000879769 0)
(0.000384141 -0.000940332 0)
(0.000452544 -0.000991881 0)
(0.000523327 -0.00103458 0)
(0.000595878 -0.00106863 0)
(0.000669627 -0.00109427 0)
(0.000744045 -0.00111178 0)
(0.000818639 -0.00112143 0)
(0.000892955 -0.00112354 0)
(0.00096657 -0.00111845 0)
(0.00103909 -0.00110647 0)
(0.00111016 -0.00108796 0)
(0.00117945 -0.00106326 0)
(0.00124663 -0.00103272 0)
(0.00131143 -0.000996689 0)
(0.00137359 -0.000955508 0)
(0.00143285 -0.00090952 0)
(0.001489 -0.000859062 0)
(0.00154182 -0.000804468 0)
(0.00159112 -0.000746064 0)
(0.00163672 -0.000684174 0)
(0.00167845 -0.000619116 0)
(0.00171616 -0.000551207 0)
(0.00174971 -0.000480759 0)
(0.00177897 -0.000408082 0)
(0.00180382 -0.000333487 0)
(0.00182416 -0.000257284 0)
(0.00183988 -0.000179787 0)
(0.00185092 -0.000101309 0)
(0.00185718 -2.21707e-05 0)
(0.00185862 5.73036e-05 0)
(0.0018552 0.000136783 0)
(0.00184688 0.000215929 0)
(0.00183365 0.000294397 0)
(0.00181551 0.00037183 0)
(0.00179248 0.000447867 0)
(0.00176461 0.000522132 0)
(0.00173195 0.000594244 0)
(0.00169458 0.00066381 0)
(0.00165261 0.000730431 0)
(0.00160618 0.000793698 0)
(0.00155543 0.000853195 0)
(0.00150055 0.000908502 0)
(0.00144176 0.000959194 0)
(0.00137929 0.00100484 0)
(0.00131342 0.00104502 0)
(0.00124447 0.00107931 0)
(0.00117276 0.0011073 0)
(0.00109867 0.00112856 0)
(0.00102261 0.00114272 0)
(0.00094503 0.00114938 0)
(0.000866402 0.0011482 0)
(0.000787245 0.00113885 0)
(0.000708113 0.00112102 0)
(0.000629596 0.00109445 0)
(0.00055232 0.00105892 0)
(0.00047695 0.00101425 0)
(0.000404186 0.000960319 0)
(0.000334766 0.000897051 0)
(0.000269464 0.000824443 0)
(0.00020909 0.000742556 0)
(0.000154489 0.000651522 0)
(0.000106532 0.000551551 0)
(6.61253e-05 0.00044293 0)
(3.43155e-05 0.00032603 0)
(1.24139e-05 0.00020131 0)
(9.48487e-07 6.93317e-05 0)
(9.85367e-07 -8.16957e-05 0)
(1.26163e-05 -0.000235051 0)
(3.46274e-05 -0.000378042 0)
(6.63671e-05 -0.000510383 0)
(0.000106404 -0.000631886 0)
(0.000153607 -0.000742453 0)
(0.000207011 -0.000842063 0)
(0.000265716 -0.000930765 0)
(0.000328873 -0.00100867 0)
(0.000395686 -0.00107595 0)
(0.000465422 -0.00113282 0)
(0.000537397 -0.00117955 0)
(0.000610985 -0.00121643 0)
(0.000685606 -0.00124379 0)
(0.000760727 -0.00126199 0)
(0.000835861 -0.00127139 0)
(0.000910559 -0.00127238 0)
(0.000984413 -0.00126535 0)
(0.00105705 -0.00125071 0)
(0.00112812 -0.00122885 0)
(0.00119732 -0.00120018 0)
(0.00126437 -0.00116509 0)
(0.00132899 -0.00112397 0)
(0.00139094 -0.00107722 0)
(0.00145002 -0.00102521 0)
(0.00150601 -0.000968317 0)
(0.00155872 -0.000906898 0)
(0.00160799 -0.000841311 0)
(0.00165364 -0.000771906 0)
(0.00169553 -0.000699026 0)
(0.00173352 -0.000623008 0)
(0.00176747 -0.000544187 0)
(0.00179725 -0.000462892 0)
(0.00182276 -0.000379456 0)
(0.00184389 -0.000294208 0)
(0.00186054 -0.000207481 0)
(0.00187261 -0.000119613 0)
(0.00188003 -3.09442e-05 0)
(0.00188272 5.81752e-05 0)
(0.00188063 0.000147389 0)
(0.0018737 0.000236331 0)
(0.00186191 0.000324625 0)
(0.00184522 0.000411882 0)
(0.00182365 0.000497704 0)
(0.0017972 0.000581677 0)
(0.00176591 0.000663378 0)
(0.00172982 0.000742369 0)
(0.00168903 0.000818202 0)
(0.00164363 0.000890417 0)
(0.00159376 0.000958543 0)
(0.00153957 0.0010221 0)
(0.00148126 0.00108061 0)
(0.00141904 0.00113357 0)
(0.00135317 0.0011805 0)
(0.00128394 0.0012209 0)
(0.00121169 0.00125428 0)
(0.00113677 0.00128017 0)
(0.0010596 0.00129809 0)
(0.000980624 0.00130759 0)
(0.000900323 0.00130823 0)
(0.00081923 0.00129962 0)
(0.000737919 0.00128135 0)
(0.000657005 0.00125311 0)
(0.000577149 0.00121457 0)
(0.000499053 0.00116548 0)
(0.000423464 0.00110564 0)
(0.000351171 0.00103489 0)
(0.00028301 0.000953163 0)
(0.000219855 0.00086043 0)
(0.000162622 0.000756749 0)
(0.000112258 0.000642254 0)
(6.97496e-05 0.000517161 0)
(3.62321e-05 0.000381772 0)
(1.31222e-05 0.000236481 0)
(1.00585e-06 8.1787e-05 0)
(1.0271e-06 -9.4249e-05 0)
(1.30432e-05 -0.000270135 0)
(3.57001e-05 -0.000433193 0)
(6.82741e-05 -0.000583262 0)
(0.000109239 -0.000720288 0)
(0.000157387 -0.0008443 0)
(0.00021169 -0.000955412 0)
(0.000271198 -0.0010538 0)
(0.000335017 -0.00113971 0)
(0.000402321 -0.00121343 0)
(0.000472353 -0.0012753 0)
(0.000544416 -0.00132571 0)
(0.000617876 -0.00136505 0)
(0.000692156 -0.00139376 0)
(0.000766733 -0.00141228 0)
(0.000841132 -0.00142109 0)
(0.000914926 -0.00142065 0)
(0.00098773 -0.00141142 0)
(0.0010592 -0.00139389 0)
(0.00112902 -0.00136851 0)
(0.0011969 -0.00133575 0)
(0.00126261 -0.00129605 0)
(0.00132591 -0.00124985 0)
(0.00138658 -0.00119758 0)
(0.00144445 -0.00113965 0)
(0.00149934 -0.00107647 0)
(0.00155109 -0.00100843 0)
(0.00159955 -0.000935901 0)
(0.00164457 -0.000859261 0)
(0.00168604 -0.000778868 0)
(0.00172382 -0.000695075 0)
(0.00175778 -0.000608231 0)
(0.00178782 -0.00051868 0)
(0.00181383 -0.000426764 0)
(0.00183569 -0.000332829 0)
(0.0018533 -0.00023722 0)
(0.00186656 -0.000140288 0)
(0.00187539 -4.23917e-05 0)
(0.00187968 5.61031e-05 0)
(0.00187937 0.000154819 0)
(0.00187438 0.000253368 0)
(0.00186465 0.000351347 0)
(0.00185014 0.00044834 0)
(0.0018308 0.000543914 0)
(0.00180662 0.000637621 0)
(0.00177761 0.000728997 0)
(0.00174378 0.000817559 0)
(0.00170517 0.000902811 0)
(0.00166186 0.000984241 0)
(0.00161394 0.00106132 0)
(0.00156154 0.00113351 0)
(0.00150482 0.00120027 0)
(0.00144397 0.00126102 0)
(0.00137922 0.00131521 0)
(0.00131084 0.00136227 0)
(0.00123914 0.00140163 0)
(0.00116447 0.00143273 0)
(0.00108723 0.00145502 0)
(0.00100786 0.00146795 0)
(0.000926855 0.00147099 0)
(0.00084475 0.00146366 0)
(0.000762132 0.00144547 0)
(0.000679641 0.001416 0)
(0.000597963 0.00137483 0)
(0.000517839 0.00132163 0)
(0.000440058 0.00125608 0)
(0.000365461 0.00117796 0)
(0.00029494 0.00108708 0)
(0.000229434 0.000983337 0)
(0.000169931 0.000866697 0)
(0.000117453 0.000737211 0)
(7.30684e-05 0.000595013 0)
(3.80041e-05 0.000440329 0)
(1.3785e-05 0.000273484 0)
(1.06135e-06 9.49133e-05 0)
(1.06219e-06 -0.000107173 0)