/*--------------------------------*- C++ -*----------------------------------*\
  =========                 |
  \\      /  F ield         | OpenFOAM: The Open Source CFD Toolbox
   \\    /   O peration     | Website:  https://openfoam.org
    \\  /    A nd           | Version:  12
     \\/     M anipulation  |
\*---------------------------------------------------------------------------*/
FoamFile
{
    format      ascii;
    class       volScalarField;
    location    "7.5";
    object      epsilon;
}
// * * * * * * * * * * * * * * * * * * * * * * * * * * * * * * * * * * * * * //

dimensions      [0 2 -3 0 0 0 0];

internalField   nonuniform List<scalar> 
5625
(
3.16166e-07
2.1385e-06
4.75962e-06
7.87492e-06
1.13393e-05
1.50623e-05
1.89829e-05
2.3062e-05
2.72802e-05
3.16358e-05
3.61447e-05
4.08393e-05
4.57678e-05
5.09928e-05
5.65904e-05
6.2649e-05
6.92678e-05
7.65562e-05
8.46317e-05
9.36196e-05
0.000103651
0.000114863
0.000127395
0.000141389
0.000156987
0.000174332
0.000193564
0.000214816
0.000238218
0.000263891
0.000291947
0.000322489
0.000355607
0.000391378
0.000429868
0.000471126
0.000515187
0.000562069
0.000611769
0.000664263
0.000719493
0.000777367
0.000837741
0.000900407
0.00096507
0.00103132
0.00109863
0.00116627
0.00123333
0.00129866
0.00136084
0.00141816
0.00146858
0.00150959
0.00153735
0.00154979
0.00155027
0.00153033
0.0014889
0.0014258
0.00134168
0.00123844
0.0011194
0.000989144
0.00085318
0.00071731
0.000586974
0.000466635
0.000359353
0.000266637
0.000188576
0.00012423
7.22376e-05
3.17511e-05
4.67668e-06
5.97406e-07
1.16478e-06
2.33375e-06
3.77773e-06
5.39965e-06
7.14962e-06
8.99656e-06
1.09212e-05
1.29138e-05
1.49736e-05
1.7108e-05
1.93322e-05
2.16691e-05
2.41482e-05
2.68056e-05
2.96833e-05
3.28286e-05
3.62934e-05
4.01339e-05
4.441e-05
4.91845e-05
5.45231e-05
6.04931e-05
6.71634e-05
7.46033e-05
8.28823e-05
9.2069e-05
0.00010223
0.000113431
0.000125732
0.000139191
0.000153862
0.000169792
0.000187025
0.000205595
0.000225531
0.000246855
0.000269578
0.000293702
0.000319213
0.000346082
0.000374259
0.000403663
0.00043418
0.000465647
0.000497844
0.000530477
0.000563169
0.000595438
0.000626689
0.000656201
0.000683115
0.000706425
0.000724924
0.000736785
0.000741416
0.000739912
0.000728752
0.000707494
0.000676171
0.000635216
0.000585613
0.000528956
0.00046738
0.000403385
0.000339583
0.000278414
0.000221882
0.000171379
0.000127613
9.0672e-05
6.0203e-05
3.57397e-05
1.73825e-05
8.82838e-06
1.26923e-06
1.13518e-06
1.79874e-06
2.73473e-06
3.82208e-06
5.01107e-06
6.27488e-06
7.59806e-06
8.97304e-06
1.03988e-05
1.18803e-05
1.34282e-05
1.50584e-05
1.67915e-05
1.8653e-05
2.06725e-05
2.28835e-05
2.53232e-05
2.80318e-05
3.10527e-05
3.44317e-05
3.82169e-05
4.24586e-05
4.72086e-05
5.25198e-05
5.8446e-05
6.50415e-05
7.23604e-05
8.0456e-05
8.93807e-05
9.91848e-05
0.000109916
0.000121619
0.000134335
0.000148099
0.000162941
0.000178881
0.000195933
0.000214096
0.000233356
0.000253679
0.000275009
0.000297259
0.000320309
0.000343995
0.000368103
0.000392359
0.000416424
0.000439885
0.000462251
0.000482951
0.000501337
0.000516675
0.000528082
0.000534201
0.000535481
0.000531757
0.000521243
0.00050378
0.000479532
0.000448937
0.000412775
0.000372188
0.00032863
0.000283753
0.000239251
0.000196693
0.000157367
0.000122175
9.16032e-05
6.57659e-05
4.45562e-05
2.79634e-05
1.6971e-05
1.86819e-05
2.07687e-06
1.36077e-06
1.70171e-06
2.35865e-06
3.17412e-06
4.08913e-06
5.07493e-06
6.11614e-06
7.20534e-06
8.34118e-06
9.52743e-06
1.07726e-05
1.20897e-05
1.34956e-05
1.50115e-05
1.6662e-05
1.84752e-05
2.04827e-05
2.27189e-05
2.52214e-05
2.80306e-05
3.11895e-05
3.47436e-05
3.87408e-05
4.32313e-05
4.8267e-05
5.39015e-05
6.01897e-05
6.71874e-05
7.49504e-05
8.35341e-05
9.2992e-05
0.000103375
0.000114729
0.000127094
0.000140504
0.00015498
0.000170528
0.000187139
0.000204781
0.000223397
0.000242901
0.000263169
0.000284039
0.000305307
0.000326721
0.00034798
0.000368735
0.000388582
0.000407072
0.000423715
0.000437988
0.000449347
0.000456814
0.000459806
0.000459054
0.000453686
0.000442828
0.000426419
0.000404641
0.000377876
0.000346775
0.000312269
0.000275531
0.000237898
0.000200734
0.000165301
0.000132629
0.000103438
7.81294e-05
5.68441e-05
3.96341e-05
2.68414e-05
2.02518e-05
3.03509e-05
2.99611e-06
1.7112e-06
1.7941e-06
2.25335e-06
2.89132e-06
3.63665e-06
4.45643e-06
5.3338e-06
6.26072e-06
7.23533e-06
8.26073e-06
9.34441e-06
1.04979e-05
1.17367e-05
1.30799e-05
1.45502e-05
1.61739e-05
1.79806e-05
2.00034e-05
2.22785e-05
2.48459e-05
2.77486e-05
3.10333e-05
3.47498e-05
3.89516e-05
4.3695e-05
4.90396e-05
5.50474e-05
6.17827e-05
6.93107e-05
7.76968e-05
8.70041e-05
9.72914e-05
0.000108612
0.00012101
0.000134515
0.00014914
0.000164876
0.000181687
0.000199507
0.000218236
0.000237734
0.00025782
0.000278274
0.000298836
0.000319215
0.000339087
0.000358106
0.0003759
0.000392083
0.000406266
0.000418058
0.000427082
0.000432268
0.00043385
0.000432201
0.000426364
0.000415771
0.000400288
0.000379956
0.000355035
0.000326033
0.000293751
0.000259267
0.000223853
0.000188847
0.000155497
0.000124829
9.75551e-05
7.40776e-05
5.4573e-05
3.92059e-05
2.85985e-05
2.52565e-05
4.33384e-05
4.01067e-06
2.14154e-06
1.99578e-06
2.29656e-06
2.80246e-06
3.42872e-06
4.13719e-06
4.9089e-06
5.73488e-06
6.61269e-06
7.54501e-06
8.53888e-06
9.60538e-06
1.07595e-05
1.20198e-05
1.34089e-05
1.4953e-05
1.6682e-05
1.863e-05
2.08349e-05
2.33388e-05
2.61882e-05
2.94342e-05
3.31324e-05
3.73432e-05
4.21315e-05
4.75663e-05
5.3721e-05
6.06712e-05
6.84946e-05
7.72687e-05
8.70655e-05
9.79449e-05
0.000109966
0.000123168
0.000137569
0.000153159
0.000169896
0.000187701
0.000206454
0.000225993
0.000246117
0.000266577
0.000287097
0.00030738
0.000327114
0.00034599
0.000363711
0.000379977
0.000394511
0.000407049
0.000417336
0.000425143
0.000429588
0.000430978
0.000429631
0.000424501
0.000415035
0.000400933
0.000382028
0.000358355
0.000330247
0.000298402
0.000263877
0.000228022
0.000192321
0.000158203
0.000126857
9.91209e-05
7.54711e-05
5.61361e-05
4.13671e-05
3.20227e-05
3.12705e-05
5.72615e-05
5.11097e-06
2.63189e-06
2.27181e-06
2.43671e-06
2.83657e-06
3.37316e-06
4.00242e-06
4.70276e-06
5.46417e-06
6.28373e-06
7.16389e-06
8.11164e-06
9.13816e-06
1.02587e-05
1.14925e-05
1.28629e-05
1.43974e-05
1.61281e-05
1.80914e-05
2.03288e-05
2.28868e-05
2.58178e-05
2.91795e-05
3.30362e-05
3.74572e-05
4.2518e-05
4.83e-05
5.48891e-05
6.23738e-05
7.08436e-05
8.03874e-05
9.10853e-05
0.000103009
0.000116206
0.000130701
0.000146484
0.000163508
0.000181678
0.000200849
0.000220826
0.000241365
0.000262185
0.000282986
0.000303454
0.000323282
0.000342186
0.000359919
0.000376272
0.000391102
0.000404294
0.000415752
0.000425378
0.000433013
0.000438183
0.000440515
0.000440584
0.000437315
0.000429963
0.000417957
0.000400832
0.000378366
0.000350696
0.000318413
0.000282591
0.000244718
0.000206528
0.000169753
0.000135885
0.000106
8.07317e-05
6.03955e-05
4.53212e-05
3.65804e-05
3.79538e-05
7.18445e-05
6.29183e-06
3.17232e-06
2.60434e-06
2.6475e-06
2.95838e-06
3.42451e-06
3.99561e-06
4.64752e-06
5.36893e-06
6.15643e-06
7.01245e-06
7.94427e-06
8.96364e-06
1.00867e-05
1.1334e-05
1.27307e-05
1.43066e-05
1.60969e-05
1.81418e-05
2.04878e-05
2.31875e-05
2.63006e-05
2.98937e-05
3.40411e-05
3.88252e-05
4.43348e-05
5.06651e-05
5.79161e-05
6.61903e-05
7.55885e-05
8.62036e-05
9.81192e-05
0.000111399
0.000126075
0.000142141
0.000159543
0.000178174
0.000197864
0.000218387
0.000239464
0.000260773
0.000281971
0.000302721
0.00032271
0.000341672
0.000359408
0.000375797
0.000390787
0.000404399
0.000416681
0.000427683
0.000437408
0.000445753
0.000452452
0.00045713
0.000459214
0.000458634
0.000454112
0.000444781
0.000429829
0.000408765
0.000381514
0.000348536
0.000310898
0.00027023
0.000228538
0.000187926
0.00015028
0.000117024
8.90354e-05
6.6775e-05
5.06678e-05
4.19912e-05
4.51188e-05
8.68938e-05
7.55101e-06
3.75774e-06
2.98339e-06
2.9139e-06
3.14806e-06
3.55747e-06
4.08572e-06
4.70581e-06
5.40521e-06
6.18012e-06
7.03309e-06
7.97195e-06
9.00942e-06
1.0163e-05
1.14551e-05
1.29134e-05
1.45709e-05
1.64667e-05
1.86467e-05
2.11635e-05
2.40775e-05
2.74572e-05
3.13799e-05
3.59316e-05
4.12073e-05
4.73105e-05
5.43506e-05
6.24416e-05
7.16976e-05
8.22273e-05
9.41265e-05
0.000107471
0.000122306
0.000138631
0.000156391
0.000175468
0.000195675
0.000216754
0.000238388
0.000260212
0.00028184
0.000302897
0.00032305
0.000342039
0.000359698
0.000375966
0.000390886
0.000404588
0.000417255
0.000429081
0.000440219
0.000450729
0.000460529
0.000469362
0.00047683
0.00048206
0.00048417
0.000482866
0.000476602
0.000464183
0.000444854
0.000418316
0.000384855
0.000345469
0.000301861
0.000256279
0.000211205
0.000168981
0.00013147
9.98975e-05
7.49464e-05
5.71796e-05
4.80964e-05
5.26563e-05
0.000102283
8.88822e-06
4.38567e-06
3.40319e-06
3.22694e-06
3.39348e-06
3.75661e-06
4.2539e-06
4.85527e-06
5.54696e-06
6.32486e-06
7.1918e-06
8.15641e-06
9.23269e-06
1.04399e-05
1.18031e-05
1.33529e-05
1.51265e-05
1.71681e-05
1.95294e-05
2.22706e-05
2.54608e-05
2.9179e-05
3.3514e-05
3.8565e-05
4.44412e-05
5.12603e-05
5.9146e-05
6.82242e-05
7.86175e-05
9.04372e-05
0.000103773
0.000118683
0.000135177
0.000153205
0.000172647
0.0001933
0.000214883
0.000237042
0.000259367
0.000281426
0.0003028
0.000323123
0.000342121
0.000359642
0.000375668
0.000390313
0.000403799
0.000416422
0.000428502
0.000440326
0.000452096
0.000463878
0.000475559
0.000486827
0.000497157
0.000505765
0.000511062
0.000512586
0.000509619
0.000500052
0.000482885
0.000457591
0.000424228
0.000383628
0.000337462
0.000288125
0.000238435
0.000191212
0.000148843
0.000113006
8.47087e-05
6.47211e-05
5.48034e-05
6.05063e-05
0.000117957
1.03047e-05
5.05522e-06
3.86044e-06
3.58103e-06
3.68679e-06
4.01197e-06
4.48806e-06
5.08156e-06
5.77752e-06
6.57158e-06
7.46702e-06
8.47347e-06
9.60652e-06
1.08877e-05
1.23449e-05
1.40127e-05
1.59328e-05
1.81553e-05
2.0739e-05
2.37524e-05
2.72745e-05
3.13955e-05
3.6217e-05
4.1852e-05
4.8424e-05
5.60646e-05
6.49101e-05
7.50956e-05
8.67469e-05
9.997e-05
0.000114838
0.000131376
0.000149545
0.000169228
0.000190217
0.000212215
0.000234835
0.00025763
0.000280118
0.000301827
0.000322348
0.000341378
0.000358757
0.000374486
0.000388726
0.000401771
0.000414007
0.000425857
0.000437721
0.000449922
0.000462652
0.000475933
0.000489595
0.000503253
0.000516292
0.000527858
0.000536669
0.000540719
0.000540843
0.00053441
0.000519881
0.000496519
0.000464097
0.000423175
0.000375251
0.00032273
0.000268676
0.000216369
0.000168777
0.00012815
9.5938e-05
7.32117e-05
6.20601e-05
6.86295e-05
0.000133858
1.18028e-05
5.76654e-06
4.35338e-06
3.9727e-06
4.0228e-06
4.317e-06
4.78011e-06
5.37512e-06
6.08584e-06
6.90771e-06
7.84456e-06
8.90726e-06
1.01133e-05
1.14868e-05
1.3059e-05
1.48687e-05
1.69633e-05
1.93991e-05
2.22428e-05
2.55723e-05
2.94771e-05
3.40595e-05
3.94344e-05
4.57289e-05
5.30802e-05
6.16327e-05
7.15324e-05
8.29187e-05
9.5914e-05
0.000110609
0.000127048
0.000145208
0.000164984
0.000186173
0.00020847
0.00023147
0.000254689
0.0002776
0.000299675
0.000320452
0.000339581
0.000356874
0.000372329
0.000386127
0.000398613
0.000410239
0.000421511
0.000432921
0.000444888
0.000457709
0.000471521
0.00048628
0.000501746
0.000517476
0.00053281
0.000546863
0.000558598
0.000565744
0.000568107
0.000565037
0.000553619
0.000532932
0.00050243
0.000462301
0.000413722
0.00035894
0.000301123
0.000243944
0.000190989
0.000145184
0.000108562
8.26072e-05
6.98426e-05
7.70107e-05
0.000149976
1.33857e-05
6.52051e-06
4.8813e-06
4.39982e-06
4.39811e-06
4.66725e-06
5.12457e-06
5.72946e-06
6.46441e-06
7.32471e-06
8.31486e-06
9.44713e-06
1.07411e-05
1.22239e-05
1.39306e-05
1.59048e-05
1.81998e-05
2.08791e-05
2.4018e-05
2.77042e-05
3.20385e-05
3.7136e-05
4.31247e-05
5.01455e-05
5.83482e-05
6.78876e-05
7.89153e-05
9.15692e-05
0.000105959
0.00012215
0.000140142
0.000159849
0.000181083
0.000203545
0.000226821
0.000250404
0.000273723
0.000296201
0.000317311
0.000336644
0.000353963
0.000369237
0.000382649
0.000394563
0.000405482
0.000415975
0.000426607
0.000437876
0.000450164
0.000463696
0.000478531
0.000494548
0.000511452
0.000528774
0.000545858
0.000561863
0.000575846
0.00058601
0.000590496
0.000590518
0.000582612
0.000565292
0.000537694
0.000499559
0.000451606
0.000395741
0.000335052
0.000273489
0.000215239
0.000164003
0.000122543
9.28924e-05
7.81485e-05
8.56525e-05
0.000166327
1.50576e-05
7.31856e-06
5.44423e-06
4.86126e-06
4.8105e-06
5.05977e-06
5.51768e-06
6.1401e-06
6.90809e-06
7.81677e-06
8.8714e-06
1.00858e-05
1.14819e-05
1.30902e-05
1.49498e-05
1.71098e-05
1.96297e-05
2.2581e-05
2.60479e-05
3.01285e-05
3.49356e-05
4.05967e-05
4.72531e-05
5.5058e-05
6.41723e-05
7.47574e-05
8.69653e-05
0.000100925
0.000116723
0.000134387
0.000153857
0.000174971
0.000197446
0.000220874
0.000244738
0.000268438
0.000291346
0.000312871
0.000332533
0.00035003
0.000365279
0.000378433
0.00038986
0.000400088
0.000409734
0.000419426
0.000429727
0.000441086
0.000453803
0.00046801
0.000483676
0.000500617
0.000518508
0.000536886
0.000555142
0.000572519
0.000588138
0.000600715
0.000607974
0.00061019
0.00060608
0.00059267
0.000568834
0.000533836
0.000487836
0.000432219
0.00036978
0.000304569
0.000241304
0.00018452
0.00013786
0.000104074
8.69914e-05
9.45705e-05
0.000182949
1.68232e-05
8.16254e-06
6.0427e-06
5.35655e-06
5.25877e-06
5.49256e-06
5.95693e-06
6.60405e-06
7.41341e-06
8.37995e-06
9.50973e-06
1.08183e-05
1.23302e-05
1.40793e-05
1.61095e-05
1.84754e-05
2.12436e-05
2.44935e-05
2.83191e-05
3.28292e-05
3.81483e-05
4.44164e-05
5.17871e-05
6.04246e-05
7.04974e-05
8.21694e-05
9.55865e-05
0.000110859
0.000128042
0.000147109
0.000167931
0.000190253
0.00021369
0.000237729
0.000261754
0.000285097
0.000307108
0.00032723
0.000345078
0.000360496
0.000373583
0.000384683
0.00039433
0.000403175
0.000411896
0.000421119
0.000431353
0.000442953
0.000456118
0.000470879
0.000487126
0.000504632
0.000523062
0.000541995
0.000560896
0.000579121
0.00059592
0.000610204
0.000620235
0.000624505
0.000623879
0.000614699
0.000595252
0.00056435
0.000521543
0.000467548
0.000404641
0.000336739
0.000268951
0.000206652
0.000154508
0.000116173
9.63967e-05
0.000103789
0.00019989
1.86877e-05
9.05466e-06
6.67767e-06
5.88575e-06
5.74234e-06
5.96445e-06
6.44071e-06
7.11936e-06
7.9781e-06
9.01165e-06
1.02269e-05
1.16412e-05
1.3282e-05
1.51868e-05
1.74044e-05
1.99955e-05
2.30338e-05
2.66076e-05
3.08202e-05
3.57916e-05
4.16578e-05
4.85705e-05
5.66944e-05
6.6202e-05
7.72661e-05
9.00472e-05
0.000104678
0.000121241
0.000139746
0.000160104
0.0001821
0.000205385
0.000229464
0.000253727
0.00027748
0.00030002
0.000320715
0.000339087
0.000354889
0.000368141
0.000379135
0.000388386
0.00039656
0.00040438
0.00041253
0.000421587
0.000431961
0.000443891
0.000457471
0.000472638
0.000489223
0.000506975
0.000525575
0.000544643
0.000563743
0.000582352
0.000599855
0.000615316
0.000627642
0.000634516
0.00063639
0.000631511
0.000616781
0.000590643
0.000552061
0.000500991
0.000438974
0.000369521
0.000297912
0.0002303
0.000172482
0.000129215
0.000106397
0.000113339
0.000217205
2.06568e-05
9.99741e-06
7.35041e-06
6.44933e-06
6.26109e-06
6.47486e-06
6.96816e-06
7.68488e-06
8.60079e-06
9.71027e-06
1.10211e-05
1.25524e-05
1.43346e-05
1.64094e-05
1.88305e-05
2.16649e-05
2.4994e-05
2.89147e-05
3.35403e-05
3.90012e-05
4.54449e-05
5.30335e-05
6.19405e-05
7.23441e-05
8.44164e-05
9.83087e-05
0.000114132
0.000131931
0.000151661
0.000173156
0.000196111
0.000220074
0.000244452
0.000268547
0.000291619
0.000312966
0.000332016
0.000348416
0.000362084
0.000373231
0.000382328
0.000390035
0.0003971
0.000404286
0.00041223
0.000421363
0.000432009
0.000444316
0.000458264
0.000473712
0.000490452
0.000508224
0.000526739
0.000545681
0.000564693
0.000583371
0.000601219
0.000617463
0.000631261
0.000640837
0.000644772
0.000643656
0.000633646
0.000612586
0.00057895
0.000531922
0.000472132
0.000402396
0.000327872
0.000255336
0.000191767
0.000143227
0.000117029
0.000123252
0.000234949
2.27369e-05
1.09935e-05
8.06244e-06
7.04808e-06
6.8153e-06
7.0237e-06
7.53896e-06
8.30012e-06
9.28081e-06
1.04749e-05
1.18911e-05
1.35504e-05
1.54863e-05
1.77445e-05
2.03843e-05
2.34791e-05
2.7118e-05
3.14066e-05
3.6468e-05
4.2443e-05
4.94889e-05
5.77772e-05
6.74878e-05
7.88004e-05
9.18816e-05
0.000106866
0.000123835
0.000142787
0.000163609
0.000186055
0.000209723
0.00023406
0.000258386
0.000281942
0.000303972
0.000323815
0.000341003
0.000355336
0.000366916
0.000376141
0.000383636
0.000390166
0.000396596
0.000403498
0.000411452
0.000420871
0.000431936
0.000444646
0.000458933
0.000474587
0.000491376
0.00050905
0.00052736
0.000546051
0.00056484
0.00058342
0.000601381
0.000618059
0.000632739
0.000644347
0.000650539
0.000651995
0.00064642
0.000630372
0.000602023
0.000559861
0.00050351
0.000434816
0.000358462
0.000281588
0.00021233
0.000158233
0.00012833
0.000133561
0.000253173
2.49346e-05
1.2046e-05
8.81551e-06
7.68305e-06
7.4056e-06
7.61128e-06
8.15324e-06
8.96508e-06
1.0018e-05
1.13054e-05
1.28364e-05
1.46343e-05
1.67354e-05
1.919e-05
2.20626e-05
2.54335e-05
2.93993e-05
3.40744e-05
3.95912e-05
4.61e-05
5.37672e-05
6.2771e-05
7.32949e-05
8.5516e-05
9.95895e-05
0.000115627
0.00013367
0.000153663
0.000175418
0.000198602
0.000222717
0.00024712
0.00027106
0.000293745
0.00031444
0.000332564
0.000347785
0.000360078
0.000369732
0.000377309
0.00038357
0.000389419
0.000395428
0.000402351
0.000410632
0.000420533
0.000432102
0.000445279
0.00045991
0.000475755
0.000492574
0.000510138
0.000528233
0.000546653
0.000565176
0.000583564
0.000601472
0.000618335
0.00063356
0.00064631
0.000654673
0.000657873
0.000655952
0.000644502
0.000621367
0.000584523
0.000532587
0.000466223
0.000389255
0.000308831
0.000234109
0.000174251
0.000140333
0.000144296
0.000271922
2.72568e-05
1.3158e-05
9.61155e-06
8.35549e-06
8.03288e-06
8.23825e-06
8.81146e-06
9.68014e-06
1.08128e-05
1.22017e-05
1.38569e-05
1.58034e-05
1.80808e-05
2.07437e-05
2.38623e-05
2.75232e-05
3.1831e-05
3.69082e-05
4.28961e-05
4.99536e-05
5.82541e-05
6.79806e-05
7.93164e-05
9.24315e-05
0.000107464
0.000124494
0.000143518
0.000164416
0.000186923
0.000210616
0.000234907
0.000259077
0.000282327
0.000303866
0.000323014
0.000339305
0.000352565
0.000362951
0.000370929
0.00037721
0.00038271
0.000388052
0.000394082
0.000401345
0.000410173
0.000420688
0.000432846
0.000446578
0.000461603
0.000477685
0.000494589
0.000512109
0.000530064
0.000548283
0.000566589
0.00058479
0.000602583
0.000619471
0.000634939
0.000648252
0.000658158
0.000662777
0.000663287
0.000655742
0.000637348
0.000605852
0.000558976
0.000496086
0.000419789
0.000336789
0.000257007
0.000191285
0.000153063
0.000155484
0.000291233
2.97111e-05
1.43329e-05
1.04526e-05
9.06685e-06
8.69826e-06
8.90549e-06
9.51443e-06
1.0446e-05
1.16656e-05
1.31643e-05
1.49525e-05
1.70573e-05
1.95213e-05
2.24035e-05
2.57795e-05
2.97428e-05
3.4405e-05
3.98968e-05
4.63674e-05
5.39826e-05
6.29214e-05
7.33685e-05
8.55033e-05
9.94836e-05
0.000115424
0.000133368
0.00015326
0.000174909
0.000197973
0.000221938
0.000246142
0.000269805
0.000292109
0.000312295
0.000329771
0.00034421
0.000355611
0.000364307
0.000370916
0.000376364
0.000381285
0.000386601
0.000392967
0.000400822
0.000410358
0.00042159
0.000434515
0.000448864
0.00046436
0.000480766
0.00049786
0.000515453
0.000533392
0.000551536
0.000569741
0.00058784
0.000605552
0.000622414
0.000637945
0.00065146
0.000662096
0.000667911
0.00066965
0.000665067
0.000650591
0.000624045
0.00058247
0.00052395
0.000449582
0.000365134
0.000280889
0.000209327
0.000166529
0.000167147
0.000311132
3.23054e-05
1.55743e-05
1.13411e-05
9.81875e-06
9.403e-06
9.61415e-06
1.02632e-05
1.12638e-05
1.25773e-05
1.41937e-05
1.61235e-05
1.83955e-05
2.10554e-05
2.41666e-05
2.78102e-05
3.20859e-05
3.71124e-05
4.30275e-05
4.99874e-05
5.81636e-05
6.77381e-05
7.88941e-05
9.18032e-05
0.000106606
0.000123389
0.000142152
0.000162781
0.000185016
0.000208433
0.000232441
0.000256311
0.00027923
0.000300388
0.000319088
0.000334853
0.000347511
0.000357235
0.000364519
0.000370216
0.000374986
0.000379804
0.000385421
0.000392395
0.000401022
0.000411387
0.000423576
0.00043733
0.000452372
0.000468434
0.000485274
0.000502679
0.000520481
0.00053855
0.000556775
0.000575031
0.00059317
0.000610915
0.000627808
0.000643362
0.000656911
0.000667699
0.000674068
0.000676374
0.000673572
0.000661941
0.000639553
0.000603077
0.000549478
0.000478173
0.000393498
0.000305579
0.00022836
0.000180714
0.000179303
0.000331637
3.50487e-05
1.68863e-05
1.22792e-05
1.06129e-05
1.01485e-05
1.03655e-05
1.10591e-05
1.21345e-05
1.35491e-05
1.52908e-05
1.73701e-05
1.98174e-05
2.26816e-05
2.60301e-05
2.99494e-05
3.45451e-05
3.99425e-05
4.62858e-05
5.37368e-05
6.24707e-05
7.26701e-05
8.45138e-05
9.81615e-05
0.000113732
0.000131277
0.000150751
0.000171977
0.000194624
0.000218193
0.000242027
0.000265348
0.000287332
0.000307206
0.00032436
0.000338453
0.000349475
0.000357764
0.00036403
0.000368973
0.000373543
0.000378592
0.000384795
0.000392576
0.000402104
0.00041358
0.000426774
0.000441426
0.000457251
0.000473973
0.000491348
0.000509178
0.000527316
0.000545658
0.000564116
0.000582589
0.000600941
0.000618894
0.000635971
0.000651641
0.000665192
0.000675859
0.000682182
0.000684568
0.000682389
0.000672392
0.000653055
0.000621041
0.000572495
0.000505152
0.00042149
0.000330853
0.000248318
0.00019562
0.000191964
0.000352753
3.79496e-05
1.82726e-05
1.32696e-05
1.14512e-05
1.09364e-05
1.11612e-05
1.19035e-05
1.30597e-05
1.4582e-05
1.64561e-05
1.86923e-05
2.13223e-05
2.43977e-05
2.79902e-05
3.21912e-05
3.7112e-05
4.28835e-05
4.96556e-05
5.75939e-05
6.68758e-05
7.76817e-05
9.01825e-05
0.000104522
0.000120794
0.000139011
0.000159076
0.000180752
0.000203639
0.00022717
0.000250634
0.000273226
0.000294136
0.000312651
0.000328271
0.000340799
0.000350388
0.000357544
0.000363016
0.000367636
0.000372337
0.00037791
0.000384919
0.000393625
0.000404372
0.000416989
0.000431251
0.000446874
0.000463554
0.000481007
0.000498995
0.000517335
0.000535905
0.00055463
0.000573454
0.000592299
0.000611048
0.000629422
0.000646912
0.000662913
0.000676611
0.000687116
0.000693011
0.00069513
0.000692592
0.000683007
0.000665406
0.000636828
0.000593017
0.000530206
0.00044872
0.000356453
0.000269097
0.000211245
0.000205134
0.00037448
4.10166e-05
1.97374e-05
1.43149e-05
1.23357e-05
1.17684e-05
1.20027e-05
1.2798e-05
1.40407e-05
1.56773e-05
1.76906e-05
2.00901e-05
2.29089e-05
2.62012e-05
3.00425e-05
3.45289e-05
3.97767e-05
4.5922e-05
5.31188e-05
6.15355e-05
7.1349e-05
8.27351e-05
9.58537e-05
0.000110829
0.000127726
0.000146515
0.000167048
0.000189026
0.000211986
0.000235305
0.000258234
0.000279961
0.00029971
0.000316853
0.000331011
0.000342135
0.000350522
0.000356864
0.000361855
0.000366482
0.00037161
0.000377951
0.000385858
0.000395836
0.000407823
0.00042164
0.000437026
0.000453667
0.00047124
0.000489461
0.000508098
0.00052699
0.000546044
0.00056522
0.000584502
0.000603849
0.000623167
0.000642188
0.00066037
0.000677021
0.000691178
0.000701682
0.000707053
0.000708718
0.000705115
0.000694835
0.000677573
0.000651106
0.000611264
0.000553149
0.000474827
0.000382094
0.000290578
0.000227569
0.000218815
0.000396806
4.42591e-05
2.12849e-05
1.54177e-05
1.32683e-05
1.26464e-05
1.28918e-05
1.37444e-05
1.50792e-05
1.68362e-05
1.89946e-05
2.15632e-05
2.45757e-05
2.80888e-05
3.21817e-05
3.69546e-05
4.25284e-05
4.90433e-05
5.66563e-05
6.55367e-05
7.5859e-05
8.77918e-05
0.000101481
0.000117029
0.000134466
0.000153723
0.000174597
0.000196734
0.000219614
0.00024257
0.000264831
0.0002856
0.000304157
0.000319969
0.00033279
0.000342717
0.00035022
0.000355946
0.000360812
0.00036574
0.00037155
0.000378729
0.000387905
0.000399185
0.00041246
0.000427518
0.000444052
0.000461719
0.000480187
0.000499167
0.000518443
0.000537878
0.000557416
0.000577061
0.000596848
0.000616787
0.000636819
0.000656701
0.000675872
0.000693555
0.000708646
0.00071946
0.000724529
0.00072572
0.000720692
0.000708827
0.000690558
0.000664688
0.000627656
0.000573951
0.000499505
0.000407477
0.000312615
0.000244552
0.000232999
0.000419715
4.76872e-05
2.29194e-05
1.6581e-05
1.42513e-05
1.35723e-05
1.38306e-05
1.47446e-05
1.61769e-05
1.80599e-05
2.03689e-05
2.3111e-05
2.63206e-05
3.00568e-05
3.44017e-05
3.94596e-05
4.5355e-05
5.22313e-05
6.02472e-05
6.95713e-05
8.03737e-05
9.2813e-05
0.000107019
0.000123068
0.000140958
0.000160576
0.000181669
0.000203831
0.000226495
0.000248963
0.000270462
0.000290225
0.000307605
0.000322176
0.000333822
0.000342767
0.000349613
0.000355078
0.000360102
0.000365584
0.000372158
0.000380537
0.000391039
0.000403656
0.000418251
0.000434556
0.000452224
0.000470888
0.000490205
0.000509891
0.000529747
0.000549667
0.000569639
0.000589723
0.000610015
0.000630589
0.000651439
0.000672363
0.000692803
0.000711908
0.000728439
0.00074019
0.000745389
0.000746257
0.000739808
0.000725775
0.000705321
0.000678478
0.000642782
0.000592746
0.000522535
0.000432306
0.00033504
0.000262141
0.000247676
0.000443184
5.13112e-05
2.46458e-05
1.78078e-05
1.52871e-05
1.45483e-05
1.4821e-05
1.58005e-05
1.73353e-05
1.93495e-05
2.18135e-05
2.47326e-05
2.81413e-05
3.21006e-05
3.66957e-05
4.2034e-05
4.82433e-05
5.5469e-05
6.38702e-05
7.36129e-05
8.48609e-05
9.7761e-05
0.000112424
0.000128901
0.000147153
0.000167026
0.000188222
0.000210287
0.00023262
0.000254508
0.000275187
0.000293939
0.000310201
0.000323659
0.000334328
0.000342567
0.000348988
0.000354462
0.000359895
0.000366045
0.000373696
0.000383382
0.000395229
0.000409209
0.000425121
0.000442642
0.000461392
0.000480983
0.000501063
0.000521359
0.000541693
0.000561997
0.000582311
0.00060276
0.000623514
0.000644721
0.000666444
0.000688542
0.000710487
0.000731374
0.000749836
0.000763365
0.000769334
0.000770196
0.000762683
0.000746258
0.000722717
0.000693401
0.000657365
0.000609839
0.000543802
0.0004563
0.000357664
0.000280268
0.000262826
0.000467183
5.51419e-05
2.64689e-05
1.9101e-05
1.63781e-05
1.55766e-05
1.58652e-05
1.69142e-05
1.85564e-05
2.07063e-05
2.33288e-05
2.64266e-05
3.00346e-05
3.42151e-05
3.9056e-05
4.46674e-05
5.11794e-05
5.87385e-05
6.75029e-05
7.76346e-05
8.92892e-05
0.0001026
0.000117657
0.000134485
0.00015301
0.000173037
0.000194228
0.000216093
0.000238006
0.00025925
0.000279088
0.000296864
0.000312102
0.000324605
0.0003345
0.000342244
0.000348535
0.000354264
0.000360242
0.000367321
0.000376217
0.000387219
0.000400438
0.000415773
0.000432961
0.000451633
0.000471377
0.000491787
0.000512511
0.000533285
0.000553962
0.000574519
0.000595053
0.000615762
0.000636896
0.000658692
0.000681294
0.000704641
0.000728264
0.000751236
0.00077207
0.00078826
0.000795849
0.000797184
0.000789268
0.000770613
0.000743435
0.000710338
0.00067221
0.000625682
0.000563315
0.000479219
0.000380284
0.000298849
0.000278425
0.000491675
5.91909e-05
2.83937e-05
2.04641e-05
1.75268e-05
1.66596e-05
1.69655e-05
1.80877e-05
1.98417e-05
2.21311e-05
2.49143e-05
2.81915e-05
3.19969e-05
3.63945e-05
4.14741e-05
4.73483e-05
5.41485e-05
6.20215e-05
7.11232e-05
8.16103e-05
9.36285e-05
0.000107296
0.000122683
0.000139785
0.000158496
0.000178585
0.000199679
0.000221259
0.000242686
0.000263255
0.000282266
0.000299131
0.00031347
0.000325192
0.00033453
0.00034202
0.000348416
0.000354546
0.000361298
0.00036952
0.000379668
0.000392017
0.000406601
0.000423248
0.000441639
0.000461364
0.000481982
0.000503076
0.000524295
0.000545395
0.000566261
0.00058692
0.000607536
0.00062838
0.000649789
0.000672097
0.000695537
0.000720149
0.000745551
0.000770836
0.00079444
0.000813979
0.00082426
0.000826699
0.000819269
0.000798925
0.000767965
0.000730075
0.000688151
0.000640853
0.000581212
0.000500875
0.000402688
0.000317791
0.00029444
0.000516618
6.34701e-05
3.04256e-05
2.19004e-05
1.87359e-05
1.77997e-05
1.81243e-05
1.93234e-05
2.11931e-05
2.36247e-05
2.65699e-05
3.00251e-05
3.40243e-05
3.86324e-05
4.39412e-05
5.00648e-05
5.71358e-05
6.52998e-05
7.47094e-05
8.55149e-05
9.7851e-05
0.00011182
0.000127471
0.000144773
0.00016359
0.000183659
0.000204577
0.000225809
0.000246713
0.000266603
0.000284831
0.00030088
0.000314464
0.000325591
0.000334588
0.000342041
0.00034869
0.000355448
0.000363211
0.000372589
0.000384029
0.000397724
0.000413631
0.000431516
0.000451008
0.000471661
0.000493011
0.000514633
0.000536185
0.000557446
0.000578341
0.000598951
0.000619506
0.000640355
0.000661924
0.00068464
0.000708841
0.000734674
0.000761878
0.000789612
0.000816329
0.000839599
0.000853795
0.000858116
0.000852177
0.000831036
0.000796576
0.000753254
0.000705995
0.000656017
0.000597755
0.000521148
0.000424667
0.000336985
0.000310832
0.000541961
6.79919e-05
3.25703e-05
2.34135e-05
2.00082e-05
1.89995e-05
1.93441e-05
2.06235e-05
2.26122e-05
2.51881e-05
2.82947e-05
3.19251e-05
3.61122e-05
4.0922e-05
4.64478e-05
5.2805e-05
6.01261e-05
6.85553e-05
7.82409e-05
8.93254e-05
0.000101932
0.000116148
0.000132
0.000149432
0.000168282
0.00018826
0.000208943
0.000229784
0.000250151
0.000269389
0.000286902
0.000302252
0.000315238
0.000325954
0.00033479
0.000342373
0.000349518
0.000357136
0.000365937
0.000376524
0.000389263
0.000404269
0.000421429
0.000440451
0.000460919
0.000482356
0.00050428
0.000526265
0.000547982
0.000569242
0.000590013
0.000610431
0.000630794
0.000651525
0.000673135
0.000696147
0.000721004
0.000747967
0.000776916
0.000807123
0.000837104
0.00086441
0.000883626
0.000890778
0.000887317
0.000866565
0.000829306
0.000780341
0.000726481
0.000671887
0.000613323
0.000540002
0.000446019
0.000356316
0.000327554
0.000567645
7.27697e-05
3.48335e-05
2.50069e-05
2.13467e-05
2.02619e-05
2.06276e-05
2.19903e-05
2.41006e-05
2.68216e-05
3.0088e-05
3.38887e-05
3.82559e-05
4.32562e-05
4.89844e-05
5.55567e-05
6.31051e-05
7.17713e-05
8.16987e-05
9.30217e-05
0.000105852
0.000120259
0.000136252
0.000153752
0.000172572
0.000192403
0.000212807
0.000233238
0.000253079
0.000271714
0.000288604
0.000303384
0.000315937
0.000326427
0.00033529
0.000343213
0.000351052
0.000359581
0.000369487
0.000381301
0.000395316
0.00041157
0.000429889
0.000449926
0.000471228
0.00049329
0.000515624
0.000537806
0.000559531
0.00058064
0.00060115
0.000621255
0.000641313
0.000661821
0.000683366
0.000706561
0.000731954
0.00075992
0.000790492
0.000823092
0.000856344
0.000887805
0.000912851
0.000924097
0.000923896
0.000904943
0.000865971
0.000811609
0.000750239
0.000689184
0.000628386