/*--------------------------------*- C++ -*----------------------------------*\
  =========                 |
  \\      /  F ield         | OpenFOAM: The Open Source CFD Toolbox
   \\    /   O peration     | Website:  https://openfoam.org
    \\  /    A nd           | Version:  12
     \\/     M anipulation  |
\*---------------------------------------------------------------------------*/
FoamFile
{
    format      ascii;
    class       volScalarField;
    location    "7.5";
    object      k;
}
// * * * * * * * * * * * * * * * * * * * * * * * * * * * * * * * * * * * * * //

dimensions      [0 2 -2 0 0 0 0];

internalField   nonuniform List<scalar> 
5625
(
1.40412e-10
9.49726e-10
2.11378e-09
3.49731e-09
5.03589e-09
6.68929e-09
8.43044e-09
1.0242e-08
1.21154e-08
1.40497e-08
1.60522e-08
1.81371e-08
2.03259e-08
2.26464e-08
2.51324e-08
2.7823e-08
3.07626e-08
3.39994e-08
3.75859e-08
4.15775e-08
4.60327e-08
5.1012e-08
5.65776e-08
6.27924e-08
6.972e-08
7.74233e-08
8.59642e-08
9.54026e-08
1.05796e-07
1.17198e-07
1.29658e-07
1.43222e-07
1.5793e-07
1.73817e-07
1.90911e-07
2.09235e-07
2.28803e-07
2.49624e-07
2.71697e-07
2.9501e-07
3.19539e-07
3.45242e-07
3.72055e-07
3.99887e-07
4.28605e-07
4.5803e-07
4.8792e-07
5.1796e-07
5.47744e-07
5.76758e-07
6.04374e-07
6.29832e-07
6.52224e-07
6.70437e-07
6.82764e-07
6.88292e-07
6.88502e-07
6.79647e-07
6.61247e-07
6.33222e-07
5.95864e-07
5.50013e-07
4.97143e-07
4.39296e-07
3.78912e-07
3.1857e-07
2.60685e-07
2.07241e-07
1.59595e-07
1.18418e-07
8.37499e-08
5.51725e-08
3.20819e-08
1.41012e-08
2.07699e-09
1.06125e-09
8.4579e-09
1.89668e-08
3.14329e-08
4.52882e-08
6.01736e-08
7.58464e-08
9.21513e-08
1.0901e-07
1.26416e-07
1.44433e-07
1.63191e-07
1.82883e-07
2.03758e-07
2.26122e-07
2.50326e-07
2.76768e-07
3.05885e-07
3.38147e-07
3.74054e-07
4.14133e-07
4.58927e-07
5.08997e-07
5.64909e-07
6.27235e-07
6.96542e-07
7.73386e-07
8.58307e-07
9.51819e-07
1.05441e-06
1.16652e-06
1.28857e-06
1.4209e-06
1.56385e-06
1.71765e-06
1.88251e-06
2.05858e-06
2.24591e-06
2.4445e-06
2.65425e-06
2.87493e-06
3.10618e-06
3.34742e-06
3.59782e-06
3.85621e-06
4.12098e-06
4.38996e-06
4.66032e-06
4.92841e-06
5.18964e-06
5.43836e-06
5.66775e-06
5.86965e-06
6.03416e-06
6.14553e-06
6.19388e-06
6.19494e-06
6.11381e-06
5.94684e-06
5.69349e-06
5.35643e-06
4.9433e-06
4.46738e-06
3.94701e-06
3.4041e-06
2.86174e-06
2.3416e-06
1.86141e-06
1.43335e-06
1.06341e-06
7.51922e-07
4.95101e-07
2.87412e-07
1.25401e-07
1.56833e-08
2.2547e-09
1.9321e-08
4.36092e-08
7.24212e-08
1.04436e-07
1.38823e-07
1.7502e-07
2.12669e-07
2.51588e-07
2.91764e-07
3.33343e-07
3.76626e-07
4.22059e-07
4.70221e-07
5.21817e-07
5.77664e-07
6.3868e-07
7.05877e-07
7.80345e-07
8.63245e-07
9.55794e-07
1.05926e-06
1.17493e-06
1.30414e-06
1.44822e-06
1.60847e-06
1.78622e-06
1.98272e-06
2.19918e-06
2.43674e-06
2.69648e-06
2.97934e-06
3.2862e-06
3.6178e-06
3.97475e-06
4.35754e-06
4.76649e-06
5.20175e-06
5.66328e-06
6.1508e-06
6.66372e-06
7.20108e-06
7.76141e-06
8.34266e-06
8.9419e-06
9.55522e-06
1.01774e-05
1.08017e-05
1.14195e-05
1.20201e-05
1.25904e-05
1.31146e-05
1.35743e-05
1.39475e-05
1.41959e-05
1.42997e-05
1.42992e-05
1.4107e-05
1.37175e-05
1.31295e-05
1.23492e-05
1.13938e-05
1.02941e-05
9.09214e-06
7.83868e-06
6.5871e-06
5.38743e-06
4.2806e-06
3.29457e-06
2.44296e-06
1.7263e-06
1.13562e-06
6.58005e-07
2.85317e-07
3.31878e-08
3.68942e-09
3.24014e-08
7.34845e-08
1.2228e-07
1.76507e-07
2.34743e-07
2.96031e-07
3.59759e-07
4.2562e-07
4.93591e-07
5.63922e-07
6.37123e-07
7.13953e-07
7.95397e-07
8.82653e-07
9.7711e-07
1.08033e-06
1.19404e-06
1.32009e-06
1.46047e-06
1.61723e-06
1.79256e-06
1.98867e-06
2.20782e-06
2.45229e-06
2.72437e-06
3.0263e-06
3.36027e-06
3.72837e-06
4.1326e-06
4.57481e-06
5.05668e-06
5.57971e-06
6.14519e-06
6.75415e-06
7.40737e-06
8.10531e-06
8.8481e-06
9.63545e-06
1.04666e-05
1.13402e-05
1.22541e-05
1.32055e-05
1.41902e-05
1.5203e-05
1.62366e-05
1.72819e-05
1.83275e-05
1.93588e-05
2.03581e-05
2.13039e-05
2.21707e-05
2.29285e-05
2.35433e-05
2.3947e-05
2.41112e-05
2.41083e-05
2.37827e-05
2.3127e-05
2.21388e-05
2.08264e-05
1.92177e-05
1.73631e-05
1.53338e-05
1.32156e-05
1.10999e-05
9.07227e-06
7.20274e-06
5.53889e-06
4.10351e-06
2.89699e-06
1.9035e-06
1.10075e-06
4.75091e-07
5.39174e-08
5.32239e-09
4.72087e-08
1.07436e-07
1.79089e-07
2.58753e-07
3.44303e-07
4.34317e-07
5.2789e-07
6.24564e-07
7.24308e-07
8.2749e-07
9.34867e-07
1.04756e-06
1.16702e-06
1.29503e-06
1.43364e-06
1.58516e-06
1.75214e-06
1.93733e-06
2.14367e-06
2.37423e-06
2.63225e-06
2.92102e-06
3.24393e-06
3.6044e-06
4.00585e-06
4.45165e-06
4.94511e-06
5.48941e-06
6.08753e-06
6.74227e-06
7.45614e-06
8.23134e-06
9.06967e-06
9.97252e-06
1.09407e-05
1.19746e-05
1.30739e-05
1.42373e-05
1.54628e-05
1.67477e-05
1.80876e-05
1.94772e-05
2.09095e-05
2.23759e-05
2.38655e-05
2.53647e-05
2.68574e-05
2.83234e-05
2.97389e-05
3.10747e-05
3.22966e-05
3.3364e-05
3.42318e-05
3.48018e-05
3.50337e-05
3.50357e-05
3.4577e-05
3.36438e-05
3.22302e-05
3.03438e-05
2.80206e-05
2.53312e-05
2.2378e-05
1.92872e-05
1.61944e-05
1.32278e-05
1.04927e-05
8.06042e-06
5.96489e-06
4.20612e-06
2.76e-06
1.59305e-06
6.8524e-07
7.69893e-08
7.12468e-09
6.34915e-08
1.44847e-07
2.41801e-07
3.49658e-07
4.65491e-07
5.87348e-07
7.13984e-07
8.44778e-07
9.79682e-07
1.1192e-06
1.26438e-06
1.41673e-06
1.57826e-06
1.75139e-06
1.93892e-06
2.14402e-06
2.37017e-06
2.62114e-06
2.90096e-06
3.21387e-06
3.5643e-06
3.9568e-06
4.39607e-06
4.88682e-06
5.43382e-06
6.04175e-06
6.7152e-06
7.45857e-06
8.27597e-06
9.1712e-06
1.01476e-05
1.12079e-05
1.23543e-05
1.3588e-05
1.49095e-05
1.63182e-05
1.78122e-05
1.93885e-05
2.10427e-05
2.27689e-05
2.45596e-05
2.6406e-05
2.82974e-05
3.02212e-05
3.21632e-05
3.41062e-05
3.60306e-05
3.79126e-05
3.97243e-05
4.14316e-05
4.29939e-05
4.4362e-05
4.54801e-05
4.62283e-05
4.65434e-05
4.65646e-05
4.59969e-05
4.48047e-05
4.29779e-05
4.05185e-05
3.74672e-05
3.39121e-05
2.99872e-05
2.5861e-05
2.17179e-05
1.77349e-05
1.40585e-05
1.07891e-05
7.97474e-06
5.61609e-06
3.68e-06
2.12037e-06
9.09767e-07
1.01723e-07
9.07928e-09
8.11129e-08
1.85373e-07
3.09815e-07
4.48338e-07
5.97122e-07
7.53619e-07
9.16209e-07
1.08408e-06
1.25717e-06
1.43615e-06
1.62236e-06
1.81779e-06
2.02502e-06
2.24722e-06
2.48801e-06
2.75153e-06
3.04231e-06
3.36526e-06
3.72563e-06
4.12897e-06
4.58107e-06
5.08791e-06
5.65566e-06
6.29053e-06
6.99876e-06
7.78653e-06
8.65981e-06
9.62432e-06
1.06853e-05
1.18475e-05
1.31148e-05
1.44902e-05
1.59755e-05
1.75712e-05
1.92763e-05
2.10879e-05
2.30015e-05
2.50105e-05
2.71064e-05
2.92792e-05
3.1517e-05
3.38066e-05
3.61336e-05
3.84826e-05
4.08367e-05
4.31778e-05
4.54852e-05
4.77347e-05
4.98972e-05
5.19368e-05
5.38086e-05
5.5457e-05
5.68156e-05
5.77545e-05
5.81706e-05
5.82278e-05
5.75875e-05
5.6173e-05
5.3971e-05
5.09743e-05
4.72237e-05
4.28207e-05
3.79271e-05
3.27523e-05
2.75305e-05
2.24905e-05
1.78259e-05
1.36717e-05
1.00952e-05
7.10039e-06
4.64599e-06
2.67263e-06
1.1445e-06
1.27629e-07
1.1177e-08
1.00001e-07
2.28831e-07
3.82796e-07
5.54287e-07
7.38507e-07
9.32247e-07
1.13347e-06
1.34117e-06
1.55526e-06
1.77658e-06
2.00683e-06
2.2485e-06
2.50485e-06
2.77982e-06
3.07801e-06
3.40458e-06
3.76524e-06
4.16617e-06
4.61399e-06
5.11569e-06
5.67859e-06
6.31028e-06
7.01852e-06
7.8112e-06
8.69618e-06
9.6812e-06
1.07737e-05
1.19806e-05
1.33083e-05
1.47619e-05
1.63456e-05
1.80618e-05
1.9911e-05
2.18918e-05
2.40002e-05
2.62295e-05
2.85705e-05
3.10115e-05
3.35388e-05
3.61366e-05
3.87885e-05
4.14772e-05
4.41859e-05
4.68978e-05
4.95967e-05
5.22661e-05
5.48879e-05
5.74407e-05
5.9897e-05
6.22211e-05
6.43655e-05
6.62685e-05
6.7853e-05
6.89873e-05
6.95159e-05
6.96211e-05
6.89438e-05
6.73494e-05
6.48255e-05
6.13526e-05
5.69674e-05
5.17788e-05
4.59693e-05
3.9783e-05
3.35001e-05
2.74016e-05
2.17316e-05
1.66661e-05
1.2298e-05
8.64018e-06
5.64577e-06
3.24282e-06
1.38645e-06
1.54364e-07
1.34138e-08
1.20126e-07
2.75137e-07
4.60587e-07
6.67256e-07
8.89291e-07
1.12277e-06
1.36519e-06
1.61533e-06
1.87309e-06
2.13951e-06
2.41667e-06
2.70762e-06
3.01636e-06
3.34772e-06
3.70732e-06
4.10149e-06
4.53723e-06
5.02211e-06
5.56425e-06
6.17226e-06
6.85512e-06
7.62216e-06
8.48292e-06
9.44704e-06
1.05241e-05
1.17234e-05
1.30538e-05
1.45233e-05
1.61387e-05
1.79054e-05
1.98268e-05
2.19036e-05
2.4134e-05
2.65126e-05
2.90308e-05
3.16764e-05
3.44337e-05
3.72845e-05
4.02086e-05
4.31848e-05
4.61924e-05
4.92118e-05
5.22261e-05
5.52207e-05
5.81831e-05
6.11021e-05
6.3965e-05
6.67551e-05
6.94483e-05
7.20091e-05
7.43871e-05
7.65139e-05
7.83018e-05
7.96208e-05
8.02584e-05
8.04147e-05
7.97263e-05
7.79934e-05
7.52084e-05
7.13387e-05
6.64126e-05
6.05384e-05
5.39094e-05
4.67939e-05
3.95103e-05
3.23881e-05
2.57235e-05
1.97397e-05
1.45631e-05
1.02227e-05
6.67123e-06
3.82622e-06
1.63357e-06
1.81703e-07
1.57893e-08
1.41488e-07
3.24282e-07
5.43156e-07
7.87177e-07
1.04936e-06
1.32501e-06
1.61114e-06
1.90626e-06
2.2103e-06
2.5245e-06
2.85137e-06
3.19458e-06
3.55894e-06
3.95025e-06
4.37526e-06
4.84158e-06
5.3576e-06
5.93243e-06
6.57584e-06
7.29816e-06
8.11019e-06
9.02312e-06
1.00484e-05
1.11974e-05
1.24814e-05
1.39113e-05
1.54971e-05
1.72473e-05
1.91688e-05
2.12662e-05
2.35409e-05
2.59908e-05
2.86097e-05
3.13867e-05
3.43066e-05
3.73497e-05
4.04929e-05
4.37104e-05
4.69757e-05
5.02632e-05
5.355e-05
5.68172e-05
6.00513e-05
6.32432e-05
6.6388e-05
6.94819e-05
7.25192e-05
7.54884e-05
7.83675e-05
8.11199e-05
8.36906e-05
8.60037e-05
8.79615e-05
8.94353e-05
9.01632e-05
9.03625e-05
8.96768e-05
8.78437e-05
8.48625e-05
8.06877e-05
7.53346e-05
6.89026e-05
6.15836e-05
5.36569e-05
4.54675e-05
3.73867e-05
2.97622e-05
2.28694e-05
1.68774e-05
1.18403e-05
7.71772e-06
4.42005e-06
1.88451e-06
2.09547e-07
1.83056e-08
1.64108e-07
3.76312e-07
6.30565e-07
9.14118e-07
1.21879e-06
1.53903e-06
1.87135e-06
2.214e-06
2.5669e-06
2.93154e-06
3.31089e-06
3.70932e-06
4.13251e-06
4.58734e-06
5.08177e-06
5.62481e-06
6.22637e-06
6.89721e-06
7.64888e-06
8.49355e-06
9.44396e-06
1.05132e-05
1.17147e-05
1.30616e-05
1.45669e-05
1.62425e-05
1.80991e-05
2.01455e-05
2.23876e-05
2.4828e-05
2.74648e-05
3.02912e-05
3.32947e-05
3.64574e-05
3.97556e-05
4.31608e-05
4.66417e-05
5.01655e-05
5.37007e-05
5.72196e-05
6.07006e-05
6.41294e-05
6.74993e-05
7.08105e-05
7.40674e-05
7.72748e-05
8.04332e-05
8.35344e-05
8.65558e-05
8.94571e-05
9.21768e-05
9.46312e-05
9.67143e-05
9.82968e-05
9.90858e-05
9.93127e-05
9.86311e-05
9.67341e-05
9.36225e-05
8.92391e-05
8.35831e-05
7.67363e-05
6.88769e-05
6.02805e-05
5.13047e-05
4.23528e-05
3.38211e-05
2.60414e-05
1.92343e-05
1.349e-05
8.78344e-06
5.02314e-06
2.13871e-06
2.37795e-07
2.09668e-08
1.88026e-07
4.31313e-07
7.22947e-07
1.04826e-06
1.39778e-06
1.76509e-06
2.1461e-06
2.53882e-06
2.94317e-06
3.3609e-06
3.79552e-06
4.25213e-06
4.73739e-06
5.25931e-06
5.82721e-06
6.45158e-06
7.14397e-06
7.91691e-06
8.78382e-06
9.75885e-06
1.08567e-05
1.20925e-05
1.34815e-05
1.50386e-05
1.6778e-05
1.87126e-05
2.08533e-05
2.32077e-05
2.57801e-05
2.85693e-05
3.15688e-05
3.47651e-05
3.8138e-05
4.16601e-05
4.52985e-05
4.90156e-05
5.27721e-05
5.65299e-05
6.02552e-05
6.39219e-05
6.75137e-05
7.10246e-05
7.44586e-05
7.78268e-05
8.11433e-05
8.44203e-05
8.76618e-05
9.08592e-05
9.39859e-05
9.69952e-05
9.98181e-05
0.000102364
0.000104521
0.000106158
0.000106974
0.000107212
0.000106526
0.000104599
0.000101419
9.69203e-05
9.10835e-05
8.39663e-05
7.57218e-05
6.66076e-05
5.69787e-05
4.7258e-05
3.78849e-05
2.92494e-05
2.16326e-05
1.51722e-05
9.86897e-06
5.63559e-06
2.39613e-06
2.66427e-07
2.37789e-08
2.13294e-07
4.89404e-07
8.20495e-07
1.18986e-06
1.58667e-06
2.00355e-06
2.43582e-06
2.88119e-06
3.33961e-06
3.81312e-06
4.3058e-06
4.82358e-06
5.37415e-06
5.96677e-06
6.61219e-06
7.3225e-06
8.11101e-06
8.99211e-06
9.98119e-06
1.10944e-05
1.23485e-05
1.37606e-05
1.53476e-05
1.7126e-05
1.91109e-05
2.13155e-05
2.37498e-05
2.64199e-05
2.93264e-05
3.24634e-05
3.58174e-05
3.93668e-05
4.30818e-05
4.6925e-05
5.08533e-05
5.48207e-05
5.87818e-05
6.26959e-05
6.6531e-05
7.02667e-05
7.38961e-05
7.74252e-05
8.08703e-05
8.42537e-05
8.75977e-05
9.09183e-05
9.42192e-05
9.74872e-05
0.000100688
0.000103768
0.000106649
0.000109237
0.000111418
0.000113057
0.000113868
0.000114102
0.000113399
0.000111465
0.000108272
0.000103739
9.78293e-05
9.05737e-05
8.20918e-05
7.261e-05
6.24654e-05
5.20865e-05
4.19463e-05
3.24929e-05
2.40752e-05
1.68905e-05
1.09767e-05
6.25854e-06
2.65711e-06
2.95475e-07
2.67489e-08
2.39979e-07
5.50733e-07
9.23448e-07
1.33926e-06
1.78587e-06
2.25492e-06
2.74107e-06
3.24174e-06
3.75689e-06
4.2889e-06
4.84246e-06
5.42441e-06
6.04353e-06
6.71045e-06
7.43744e-06
8.23828e-06
9.12812e-06
1.01233e-05
1.12413e-05
1.25002e-05
1.39189e-05
1.55162e-05
1.73107e-05
1.932e-05
2.15596e-05
2.40421e-05
2.67761e-05
2.97643e-05
3.30025e-05
3.64783e-05
4.01698e-05
4.40455e-05
4.8065e-05
5.21803e-05
5.63392e-05
6.04886e-05
6.45803e-05
6.85748e-05
7.24462e-05
7.61845e-05
7.97955e-05
8.32992e-05
8.67246e-05
9.01031e-05
9.34619e-05
9.68165e-05
0.000100166
0.000103488
0.00010674
0.000109858
0.00011276
0.000115347
0.000117509
0.000119106
0.000119888
0.000120104
0.000119373
0.000117442
0.000114276
0.000109768
0.00010387
9.65842e-05
8.79926e-05
7.82808e-05
6.77537e-05
5.68293e-05
4.60022e-05
3.57742e-05
2.65672e-05
1.86499e-05
1.21104e-05
6.89384e-06
2.9223e-06
3.25003e-07
2.98853e-08
2.68157e-07
6.15472e-07
1.03209e-06
1.49684e-06
1.9959e-06
2.5198e-06
3.06255e-06
3.62122e-06
4.19581e-06
4.78907e-06
5.40636e-06
6.05545e-06
6.74636e-06
7.49114e-06
8.30368e-06
9.19955e-06
1.01958e-05
1.13108e-05
1.25641e-05
1.39757e-05
1.55666e-05
1.73571e-05
1.93671e-05
2.16149e-05
2.41157e-05
2.68808e-05
2.99159e-05
3.32193e-05
3.67803e-05
4.05782e-05
4.45815e-05
4.87478e-05
5.30255e-05
5.73567e-05
6.16816e-05
6.59434e-05
7.00946e-05
7.41017e-05
7.79493e-05
8.16414e-05
8.5199e-05
8.86562e-05
9.20529e-05
9.54266e-05
9.88048e-05
0.000102198
0.000105596
0.000108965
0.000112254
0.000115389
0.000118285
0.000120843
0.000122958
0.000124483
0.000125216
0.000125405
0.000124633
0.000122705
0.00011958
0.000115133
0.000109299
0.000102058
9.34549e-05
8.36288e-05
7.28401e-05
6.14805e-05
5.00502e-05
3.90958e-05
2.91145e-05
2.04568e-05
1.32744e-05
7.5438e-06
3.1925e-06
3.55099e-07
3.31974e-08
2.97912e-07
6.83813e-07
1.14673e-06
1.66306e-06
2.21731e-06
2.79888e-06
3.40102e-06
4.02048e-06
4.65727e-06
5.31455e-06
5.9984e-06
6.71762e-06
7.4835e-06
8.30962e-06
9.21157e-06
1.02068e-05
1.13143e-05
1.25545e-05
1.3949e-05
1.55198e-05
1.72894e-05
1.92798e-05
2.15117e-05
2.40033e-05
2.67688e-05
2.98173e-05
3.31502e-05
3.676e-05
4.06282e-05
4.47244e-05
4.90062e-05
5.34199e-05
5.79035e-05
6.23906e-05
6.68165e-05
7.11246e-05
7.52726e-05
7.92377e-05
8.30189e-05
8.66366e-05
9.01277e-05
9.35392e-05
9.69185e-05
0.000100305
0.000103721
0.000107169
0.000110626
0.000114048
0.00011737
0.000120515
0.000123394
0.000125911
0.000127964
0.000129402
0.000130077
0.000130232
0.000129403
0.000127467
0.000124373
0.000119994
0.000114242
0.000107082
9.85285e-05
8.86742e-05
7.77263e-05
6.60343e-05
5.40858e-05
4.24584e-05
3.17216e-05
2.23168e-05
1.44735e-05
8.21096e-06
3.46862e-06
3.85858e-07
3.66955e-08
3.29337e-07
7.55967e-07
1.26772e-06
1.8384e-06
2.45073e-06
3.09289e-06
3.75733e-06
4.44043e-06
5.14224e-06
5.86632e-06
6.61954e-06
7.41179e-06
8.25573e-06
9.16654e-06
1.01616e-05
1.12602e-05
1.24835e-05
1.38539e-05
1.53948e-05
1.71302e-05
1.90841e-05
2.12796e-05
2.37375e-05
2.64756e-05
2.95062e-05
3.28347e-05
3.64573e-05
4.03591e-05
4.45125e-05
4.88766e-05
5.33974e-05
5.80105e-05
6.26445e-05
6.72273e-05
7.1693e-05
7.59895e-05
8.00845e-05
8.39698e-05
8.76617e-05
9.11981e-05
9.46308e-05
9.80167e-05
0.000101407
0.000104837
0.000108323
0.000111852
0.00011539
0.000118879
0.000122247
0.000125409
0.000128277
0.000130756
0.000132752
0.000134101
0.000134713
0.000134829
0.000133928
0.000131962
0.000128869
0.00012453
0.000118843
0.000111762
0.00010328
9.34483e-05
8.24181e-05
7.0484e-05
5.81009e-05
4.58588e-05
3.4391e-05
2.42349e-05
1.57119e-05
8.89781e-06
3.75156e-06
4.17379e-07
4.03906e-08
3.62532e-07
8.3216e-07
1.39544e-06
2.02338e-06
2.69683e-06
3.40263e-06
4.13239e-06
4.88205e-06
5.6517e-06
6.44536e-06
7.27071e-06
8.1388e-06
9.06376e-06
1.00624e-05
1.1154e-05
1.23598e-05
1.37029e-05
1.52077e-05
1.68995e-05
1.8804e-05
2.09464e-05
2.33502e-05
2.60363e-05
2.90207e-05
3.2313e-05
3.59139e-05
3.98131e-05
4.39872e-05
4.83984e-05
5.29947e-05
5.77109e-05
6.24727e-05
6.72019e-05
7.18239e-05
7.6276e-05
8.05149e-05
8.45227e-05
8.83088e-05
9.19086e-05
9.53766e-05
9.87773e-05
0.000102174
0.000105616
0.000109133
0.000112728
0.000116374
0.000120024
0.000123608
0.000127046
0.000130249
0.000133127
0.000135588
0.000137544
0.000138812
0.000139364
0.000139439
0.000138446
0.000136422
0.000133286
0.000128934
0.000123266
0.000116222
0.000107792
9.79941e-05
8.69275e-05
7.48231e-05
6.2084e-05
4.92895e-05
3.71217e-05
2.62143e-05
1.69934e-05
9.60667e-06
4.04217e-06
4.49753e-07
4.42946e-08
3.97603e-07
9.12633e-07
1.53027e-06
2.21856e-06
2.95633e-06
3.72896e-06
4.52714e-06
5.34634e-06
6.18669e-06
7.05265e-06
7.95279e-06
8.8994e-06
9.90811e-06
1.09975e-05
1.21887e-05
1.3505e-05
1.49714e-05
1.66142e-05
1.84605e-05
2.05373e-05
2.28707e-05
2.54842e-05
2.83979e-05
3.16255e-05
3.51726e-05
3.90343e-05
4.31925e-05
4.76144e-05
5.22516e-05
5.70407e-05
6.19065e-05
6.67666e-05
7.1539e-05
7.61507e-05
8.05463e-05
8.46959e-05
8.85992e-05
9.22855e-05
9.58087e-05
9.92387e-05
0.000102649
0.000106104
0.00010965
0.000113304
0.000117055
0.000120863
0.000124665
0.000128382
0.000131926
0.000135204
0.000138125
0.000140601
0.000142543
0.000143751
0.000144249
0.000144278
0.000143181
0.000141064
0.000137835
0.000133401
0.000127676
0.000120598
0.000112161
0.000102368
9.12755e-05
7.90484e-05
6.60219e-05
5.27391e-05
3.99091e-05
2.82559e-05
1.83207e-05
1.03395e-05
4.34116e-06
4.83061e-07
4.842e-08
4.34664e-07
9.97643e-07
1.67264e-06
2.42453e-06
3.22997e-06
4.07277e-06
4.94256e-06
5.83434e-06
6.7482e-06
7.68912e-06
8.66658e-06
9.69417e-06
1.07891e-05
1.19718e-05
1.32653e-05
1.46949e-05
1.62874e-05
1.8071e-05
2.00742e-05
2.23252e-05
2.48503e-05
2.76729e-05
3.0811e-05
3.42754e-05
3.8067e-05
4.21738e-05
4.65694e-05
5.12109e-05
5.6039e-05
6.09798e-05
6.59494e-05
7.08603e-05
7.563e-05
8.01913e-05
8.45005e-05
8.85447e-05
9.23434e-05
9.59461e-05
9.94246e-05
0.000102861
0.000106333
0.000109905
0.000113612
0.000117458
0.000121418
0.000125437
0.000129439
0.000133334
0.000137028
0.000140425
0.000143431
0.000145958
0.000147918
0.000149093
0.000149555
0.000149532
0.000148323
0.000146082
0.000142707
0.000138116
0.000132242
0.000125035
0.000116498
0.000106643
9.54955e-05
8.3163e-05
6.99017e-05
5.61931e-05
4.27451e-05
3.03582e-05
1.96955e-05
1.10979e-05
4.64912e-06
5.17366e-07
5.27799e-08
4.73832e-07
1.08746e-06
1.82299e-06
2.64192e-06
3.51854e-06
4.43495e-06
5.37966e-06
6.34706e-06
7.33722e-06
8.35563e-06
9.41276e-06
1.05236e-05
1.17069e-05
1.29851e-05
1.4383e-05
1.5928e-05
1.76486e-05
1.95748e-05
2.17362e-05
2.41616e-05
2.68775e-05
2.99061e-05
3.3263e-05
3.6955e-05
4.09772e-05
4.53102e-05
4.99183e-05
5.47484e-05
5.97306e-05
6.4782e-05
6.98121e-05
7.47313e-05
7.94608e-05
8.39429e-05
8.81497e-05
9.20875e-05
9.57971e-05
9.93477e-05
0.000102826
0.000106323
0.000109918
0.000113668
0.000117597
0.000121695
0.00012592
0.000130203
0.000134455
0.000138579
0.000142472
0.000146034
0.00014917
0.000151787
0.000153798
0.000154971
0.000155421
0.000155338
0.00015402
0.000151629
0.000148064
0.000143247
0.000137127
0.000129679
0.000120927
0.000110905
9.9636e-05
8.71806e-05
7.37147e-05
5.96358e-05
4.56185e-05
3.25175e-05
2.11182e-05
1.1883e-05
4.96646e-06
5.52717e-07
5.73885e-08
5.15229e-07
1.18236e-06
1.98178e-06
2.87137e-06
3.82285e-06
4.81647e-06
5.83944e-06
6.88551e-06
7.95468e-06
9.05296e-06
1.01919e-05
1.13878e-05
1.26613e-05
1.40366e-05
1.55406e-05
1.72024e-05
1.90523e-05
2.11217e-05
2.34412e-05
2.60399e-05
2.89436e-05
3.21729e-05
3.57403e-05
3.96478e-05
4.38841e-05
4.84214e-05
5.32147e-05
5.82008e-05
6.33003e-05
6.84231e-05
7.34747e-05
7.83669e-05
8.30284e-05
8.74149e-05
9.15169e-05
9.53619e-05
9.90116e-05
0.000102553
0.000106086
0.000109705
0.000113486
0.000117478
0.000121692
0.0001261
0.000130646
0.000135247
0.000139801
0.000144203
0.000148343
0.000152115
0.000155421
0.000158167
0.000160263
0.000161466
0.00016192
0.000161791
0.000160372
0.000157821
0.000154033
0.000148932
0.00014248
0.000134675
0.000125575
0.000115257
0.000103761
9.11277e-05
7.74589e-05
6.30525e-05
4.85161e-05
3.47277e-05
2.25879e-05
1.26955e-05
5.29345e-06
5.89143e-07
6.22617e-08
5.58984e-07
1.28264e-06
2.14949e-06
3.11354e-06
4.14374e-06
5.21827e-06
6.32293e-06
7.45067e-06
8.60143e-06
9.78176e-06
1.10042e-05
1.22868e-05
1.36519e-05
1.51254e-05
1.67364e-05
1.85156e-05
2.04951e-05
2.27072e-05
2.51833e-05
2.79524e-05
3.10391e-05
3.44617e-05
3.82289e-05
4.23373e-05
4.67685e-05
5.14863e-05
5.64361e-05
6.15454e-05
6.67269e-05
7.18852e-05
7.69253e-05
8.17637e-05
8.63401e-05
9.06269e-05
9.46347e-05
9.84129e-05
0.000102043
0.000105628
0.000109274
0.000113079
0.000117113
0.00012141
0.000125968
0.000130744
0.000135665
0.000140633
0.000145538
0.000150263
0.000154691
0.000158712
0.000162224
0.000165131
0.000167343
0.000168606
0.000169079
0.000168928
0.000167427
0.000164722
0.000160699
0.000155278
0.000148423
0.000140155
0.000130574
0.00011981
0.000107951
9.5046e-05
8.11425e-05
6.64321e-05
5.14238e-05
3.69809e-05
2.41025e-05
1.35355e-05
5.63017e-06
6.26656e-07
6.74149e-08
6.05231e-07
1.38861e-06
2.32664e-06
3.36914e-06
4.48207e-06
5.64134e-06
6.83112e-06
8.0435e-06
9.27827e-06
1.05425e-05
1.18501e-05
1.32204e-05
1.46778e-05
1.62501e-05
1.79682e-05
1.98647e-05
2.19729e-05
2.43261e-05
2.69559e-05
2.98907e-05
3.31538e-05
3.67601e-05
4.07144e-05
4.5007e-05
4.96122e-05
5.44852e-05
5.95626e-05
6.47634e-05
6.99945e-05
7.51576e-05
8.01602e-05
8.49272e-05
8.94124e-05
9.36069e-05
9.75428e-05
0.00010129
0.000104949
0.000108634
0.000112457
0.000116512
0.000120861
0.000125524
0.000130482
0.000135678
0.000141021
0.000146402
0.000151697
0.00015678
0.000161529
0.000165828
0.000169572
0.000172665
0.000175019
0.00017637
0.000176877
0.000176733
0.000175182
0.000172345
0.0001681
0.000162349
0.000155048
0.000146233
0.000136045
0.000124679
0.000112298
9.89921e-05
8.47853e-05
6.97692e-05
5.43282e-05
3.92678e-05
2.5659e-05
1.44027e-05
5.97658e-06
6.65252e-07
7.28633e-08
6.54117e-07
1.50059e-06
2.51373e-06
3.63888e-06
4.83874e-06
6.08666e-06
7.36502e-06
8.66489e-06
9.98588e-06
1.13357e-05
1.27294e-05
1.4188e-05
1.57379e-05
1.74088e-05
1.92335e-05
2.12461e-05
2.34811e-05
2.59724e-05
2.87517e-05
3.18462e-05
3.5277e-05
3.9056e-05
4.31826e-05
4.76412e-05
5.23982e-05
5.7401e-05
6.25777e-05
6.78407e-05
7.30928e-05
7.8236e-05
8.31833e-05
8.7871e-05
9.22691e-05
9.63892e-05
0.000100285
0.000104046
0.000107787
0.000111632
0.000115693
0.00012006
0.000124782
0.000129865
0.000135273
0.000140932
0.000146737
0.000152564
0.000158279
0.000163746
0.000168835
0.000173427
0.000177418
0.000180713
0.000183226
0.000184693
0.00018525
0.000185145
0.000183585
0.000180658
0.000176226
0.000170165
0.00016241
0.000152994
0.000142095
0.000129978
0.000116901
0.000103036
8.84204e-05
7.30662e-05
5.72179e-05
4.15783e-05
2.72533e-05
1.52965e-05
6.33251e-06
7.04915e-07
7.86235e-08
7.05792e-07
1.61892e-06
2.71132e-06
3.92352e-06
5.21464e-06
6.55522e-06
7.92559e-06
9.31566e-06
1.07248e-05
1.21614e-05
1.36418e-05
1.51888e-05
1.68308e-05
1.85994e-05
2.05293e-05
2.26558e-05
2.50147e-05
2.76401e-05
3.0563e-05
3.38096e-05
3.73982e-05
4.13369e-05
4.56199e-05
5.02251e-05
5.51117e-05
6.02191e-05
6.54687e-05
7.07678e-05
7.60176e-05
8.1123e-05
8.60053e-05
9.06147e-05
9.49394e-05
9.90116e-05
0.000102905
0.000106729
0.000110608
0.000114672
0.000119031
0.000123766
0.000128913
0.000134462
0.000140361
0.000146519
0.000152814
0.00015911
0.00016526
0.00017112
0.000176556
0.000181446
0.000185686
0.000189186
0.000191868
0.000193476
0.000194102
0.000194061
0.000192543
0.000189582
0.000185021
0.000178701
0.000170519
0.00016049
0.00014881
0.00013581
0.000121863
0.000107258
9.20934e-05
7.63348e-05
6.00848e-05
4.39021e-05
2.88807e-05
1.62156e-05
6.69766e-06
7.45612e-07
8.47133e-08
7.60412e-07
1.74395e-06
2.91997e-06
4.22383e-06
5.61071e-06
7.04803e-06
8.51379e-06
9.99658e-06
1.14955e-05
1.30197e-05
1.45868e-05
1.62217e-05
1.79546e-05
1.98194e-05
2.18521e-05
2.40896e-05
2.65683e-05
2.93224e-05
3.23821e-05
3.57718e-05
3.95068e-05
4.35911e-05
4.80136e-05
5.27457e-05
5.77397e-05
6.29281e-05
6.82269e-05
7.35402e-05
7.877e-05
8.38267e-05
8.86426e-05
9.31833e-05
9.74563e-05
0.000101514
0.00010545
0.000109387
0.00011346
0.000117798
0.00012251
0.000127662
0.000133278
0.000139331
0.000145751
0.000152429
0.00015923
0.000166003
0.000172591
0.000178842
0.000184616
0.000189794
0.000194274
0.000197973
0.000200822
0.000202595
0.000203317
0.000203349
0.00020193
0.000199002
0.000194389
0.000187886
0.000179343
0.000168731
0.000156241
0.000142261
0.000127283
0.000111746
9.58615e-05
7.95965e-05
6.29259e-05
4.62295e-05
3.05354e-05
1.71587e-05
7.07167e-06
7.87304e-07
9.11511e-08
8.18142e-07
1.87605e-06
3.14027e-06
4.5406e-06
6.0279e-06
7.56607e-06
9.13051e-06
1.07083e-05
1.22984e-05
1.39104e-05
1.55638e-05
1.72853e-05
1.91074e-05
2.10657e-05
2.31982e-05
2.55427e-05
2.81361e-05
3.10125e-05
3.42009e-05
3.77235e-05
4.15926e-05
4.58077e-05
5.03523e-05
5.51919e-05
6.02722e-05
6.55202e-05
7.08478e-05
7.61583e-05
8.13564e-05
8.63608e-05
9.11163e-05
9.56053e-05
9.98548e-05
0.000103937
0.000107961
0.000112062
0.000116381
0.000121047
0.000126157
0.000131767
0.000137886
0.000144469
0.000151428
0.000158637
0.000165947
0.000173192
0.000180206
0.00018683
0.000192924
0.000198368
0.000203068
0.000206952
0.000209959
0.00021191
0.000212757
0.000212867
0.000211604
0.000208779
0.000204201
0.000197616
0.000188809
0.000177687
0.000164407
0.000149392
0.000133248
0.000116588
9.97904e-05
8.28828e-05
6.57438e-05
4.8552e-05
3.22115e-05
1.8124e-05
7.45404e-06
8.29937e-07
9.79562e-08
8.79153e-07
2.01559e-06
3.37284e-06
4.87465e-06
6.46717e-06
8.11033e-06
9.77662e-06
1.14515e-05
1.31334e-05
1.48331e-05
1.65716e-05
1.83779e-05
2.02865e-05
2.23353e-05
2.45635e-05
2.70101e-05
2.97123e-05
3.27034e-05
3.60114e-05
3.9656e-05
4.36461e-05
4.79768e-05
5.26265e-05
5.75548e-05
6.27021e-05
6.7991e-05
7.33311e-05
7.86268e-05
8.3788e-05
8.8743e-05
9.34509e-05
9.79116e-05
0.000102171
0.000106317
0.000110477
0.000114793
0.000119406
0.000124442
0.000129989
0.00013609
0.000142735
0.000149862
0.000157366
0.000165104
0.000172911
0.000180609
0.000188025
0.000194994
0.000201377
0.000207059
0.000211954
0.000216
0.000219149
0.000221286
0.000222274
0.000222475
0.000221411
0.000218759
0.000214309
0.000207754
0.000198806
0.000187288
0.00017329
0.000157234
0.000139825
0.000121867
0.000103951
8.62341e-05
6.85475e-05
5.08629e-05
3.39026e-05
1.91093e-05
7.84422e-06
8.73447e-07
1.05149e-07
9.43624e-07
2.16299e-06
3.61832e-06
5.22685e-06
6.92951e-06
8.68181e-06
1.04529e-05
1.22265e-05
1.40007e-05
1.57873e-05
1.76092e-05
1.94976e-05
2.14895e-05
2.36246e-05
2.59437e-05
2.84867e-05
3.12907e-05
3.43885e-05
3.78063e-05
4.15613e-05
4.56589e-05
5.00901e-05
5.48282e-05
5.98279e-05
6.50253e-05
7.03398e-05
7.56806e-05
8.09548e-05
8.60796e-05
9.09945e-05
9.56736e-05
0.000100134
0.000104438
0.000108692
0.000113033
0.000117608
0.000122558
0.000128002
0.000134016
0.000140628
0.000147811
0.000155485
0.000163526
0.000171777
0.000180057
0.000188179
0.000195962
0.00020324
0.000209874
0.000215759
0.000220817
0.000225001
0.000228276
0.00023059
0.000231734
0.000232038
0.000231206
0.000228788
0.000224555
0.000218147
0.000209198
0.00019743
0.00018283
0.000165784
0.000147063
0.000127658
0.000108418
8.96985e-05
7.13531e-05
5.31584e-05
3.56022e-05
2.01121e-05
8.24151e-06
9.17758e-07
1.12751e-07
1.01174e-06
2.31864e-06
3.87737e-06
5.59807e-06
7.41592e-06
9.28147e-06
1.11602e-05
1.30338e-05
1.49002e-05
1.67722e-05
1.86749e-05
2.06422e-05
2.27133e-05
2.493e-05
2.73346e-05
2.99674e-05
3.28657e-05
3.60612e-05
3.95784e-05
4.34319e-05
4.76238e-05
5.21407e-05
5.69518e-05
6.20077e-05
6.72409e-05
7.25694e-05
7.79035e-05
8.31551e-05
8.82496e-05
9.3139e-05
9.78125e-05
0.000102304
0.000106691
0.000111094
0.000115658
0.000120533
0.000125855
0.000131734
0.000138234
0.000145368
0.000153089
0.0001613
0.000169861
0.000178597
0.000187316
0.000195823
0.00020393
0.000211473
0.000218319
0.000224368
0.000229558
0.000233855
0.000237242
0.000239701
0.000241019
0.000241437
0.000240854
0.000238722
0.000234786
0.000228637
0.00021983
0.000207978
0.000192935
0.000175004
0.000154978
0.000134018
0.000113259
9.33292e-05
7.41829e-05
5.54376e-05
3.73041e-05
2.11295e-05
8.64511e-06
9.62779e-07
1.20784e-07
1.08371e-06
2.48301e-06
4.15068e-06
5.98922e-06
7.92741e-06
9.91027e-06
1.18992e-05
1.38736e-05
1.58314e-05
1.77867e-05
1.97672e-05
2.18093e-05
2.39549e-05
2.62478e-05
2.87316e-05
3.14473e-05
3.44317e-05
3.77156e-05
4.13217e-05
4.52618e-05
4.95349e-05
5.41239e-05
5.89943e-05
6.40933e-05
6.93512e-05
7.46861e-05
8.00109e-05
8.52433e-05
9.03188e-05
9.52018e-05
9.98965e-05
0.000104452
0.00010896
0.00011355
0.000118376
0.000123585
0.000129306
0.000135639
0.000142636
0.00015029
0.000158538
0.000167266
0.000176316
0.0001855
0.000194616
0.000203461
0.000211846
0.000219609
0.000226623
0.000232799
0.00023809
0.000242474
0.000245954
0.000248532
0.000250034
0.000250577
0.000250246
0.000248434
0.000244858
0.000239068
0.000230542
0.000218781
0.000203485
0.000184824
0.000163559
0.000140986
0.000118538
9.7182e-05
7.70653e-05
5.77031e-05
3.90025e-05
2.21582e-05
9.0541e-06
1.00841e-06
1.29271e-07
1.15972e-06
2.65653e-06
4.43897e-06
6.40124e-06
8.46501e-06
1.05691e-05
1.26705e-05
1.47461e-05
1.67939e-05
1.88298e-05
2.08842e-05
2.29964e-05
2.52111e-05
2.75742e-05
3.01305e-05
3.29214e-05
3.59835e-05
3.93464e-05
4.30307e-05
4.70461e-05
5.13882e-05
5.6037e-05
6.09548e-05
6.60865e-05
7.13616e-05
7.66993e-05
8.20164e-05
8.72381e-05
9.23098e-05
9.72091e-05
0.000101954
0.000106607
0.000111272
0.000116086
0.000121207
0.000126777
0.000132916
0.000139713
0.000147205
0.000155368
0.000164122
0.000173335
0.000182836
0.000192423
0.000201886
0.000211019
0.000219632
0.000227569
0.00023471
0.00024098
0.000246342
0.000250791
0.000254344
0.00025702
0.000258707
0.000259389
0.000259293
0.000257823
0.000254651
0.000249301
0.000241179
0.000229679
0.000214335