/*--------------------------------*- C++ -*----------------------------------*\
  =========                 |
  \\      /  F ield         | OpenFOAM: The Open Source CFD Toolbox
   \\    /   O peration     | Website:  https://openfoam.org
    \\  /    A nd           | Version:  12
     \\/     M anipulation  |
\*---------------------------------------------------------------------------*/
FoamFile
{
    format      ascii;
    class       surfaceScalarField;
    location    "7.5";
    object      phi;
}
// * * * * * * * * * * * * * * * * * * * * * * * * * * * * * * * * * * * * * //

dimensions      [0 3 -1 0 0 0 0];

internalField   nonuniform List<scalar> 
11100
(
-2.70858e-11
2.6706e-11
4.49097e-10
-4.76168e-10
1.35588e-09
-9.06767e-10
2.52568e-09
-1.1698e-09
3.82348e-09
-1.29782e-09
5.1491e-09
-1.32563e-09
6.43238e-09
-1.28329e-09
7.62625e-09
-1.19387e-09
8.7008e-09
-1.07455e-09
9.6385e-09
-9.37704e-10
1.04305e-08
-7.9195e-10
1.10733e-08
-6.42805e-10
1.15666e-08
-4.93374e-10
1.19114e-08
-3.44794e-10
1.21078e-08
-1.96372e-10
1.21546e-08
-4.6841e-11
1.20474e-08
1.07229e-10
1.17776e-08
2.69801e-10
1.13322e-08
4.45365e-10
1.06927e-08
6.39537e-10
9.83418e-09
8.58521e-10
8.72473e-09
1.10945e-09
7.3251e-09
1.39963e-09
5.58761e-09
1.73749e-09
3.45603e-09
2.13158e-09
8.64837e-10
2.59119e-09
-2.26093e-09
3.12576e-09
-6.00601e-09
3.74508e-09
-1.04648e-08
4.45876e-09
-1.57406e-08
5.2758e-09
-2.1945e-08
6.20439e-09
-2.91964e-08
7.25144e-09
-3.7618e-08
8.42162e-09
-4.73346e-08
9.71661e-09
-5.84688e-08
1.11342e-08
-7.11358e-08
1.2667e-08
-8.54375e-08
1.43017e-08
-1.01455e-07
1.60177e-08
-1.19242e-07
1.77863e-08
-1.38811e-07
1.95695e-08
-1.60131e-07
2.13201e-08
-1.83112e-07
2.29809e-08
-2.07597e-07
2.44853e-08
-2.33355e-07
2.57579e-08
-2.60071e-07
2.67161e-08
-2.87343e-07
2.72715e-08
-3.14676e-07
2.73328e-08
-3.41485e-07
2.6809e-08
-3.67098e-07
2.5613e-08
-3.90764e-07
2.36665e-08
-4.11665e-07
2.09007e-08
-4.28895e-07
1.72307e-08
-4.41586e-07
1.26902e-08
-4.49027e-07
7.44114e-09
-4.50377e-07
1.35004e-09
-4.44916e-07
-5.46059e-09
-4.32279e-07
-1.2637e-08
-4.12291e-07
-1.99881e-08
-3.85131e-07
-2.71602e-08
-3.51373e-07
-3.37582e-08
-3.12016e-07
-3.93563e-08
-2.6848e-07
-4.3537e-08
-2.2254e-07
-4.59396e-08
-1.76226e-07
-4.6314e-08
-1.31657e-07
-4.45684e-08
-9.08567e-08
-4.08007e-08
-5.55546e-08
-3.53022e-08
-2.70269e-08
-2.85277e-08
-5.98844e-09
-2.10385e-08
7.44926e-09
-1.34377e-08
1.37408e-08
-6.29154e-09
1.3913e-08
-1.72226e-10
9.61446e-09
4.29856e-09
3.57936e-09
6.0351e-09
3.57936e-09
2.84125e-10
-2.57392e-10
1.71149e-09
-1.9035e-09
4.14289e-09
-3.33815e-09
7.22731e-09
-4.25421e-09
1.06441e-08
-4.71466e-09
1.41394e-08
-4.82091e-09
1.75259e-08
-4.66979e-09
2.06723e-08
-4.34032e-09
2.34912e-08
-3.89337e-09
2.59273e-08
-3.37388e-09
2.79489e-08
-2.81349e-09
2.95388e-08
-2.23275e-09
3.06887e-08
-1.64325e-09
3.13931e-08
-1.04918e-09
3.16448e-08
-4.48132e-10
3.14326e-08
1.65385e-10
3.07352e-08
8.04656e-10
2.95205e-08
1.48452e-09
2.77431e-08
2.22271e-09
2.53415e-08
3.04119e-09
2.2236e-08
3.96402e-09
1.8327e-08
5.01844e-09
1.34933e-08
6.23332e-09
7.5906e-09
7.64017e-09
4.50387e-10
9.27179e-09
-8.12189e-09
1.11635e-08
-1.83473e-08
1.33511e-08
-3.04717e-08
1.58695e-08
-4.47651e-08
1.87521e-08
-6.152e-08
2.20307e-08
-8.1048e-08
2.57324e-08
-1.03674e-07
2.98772e-08
-1.29727e-07
3.44753e-08
-1.59535e-07
3.95239e-08
-1.93404e-07
4.50036e-08
-2.31611e-07
5.08742e-08
-2.74381e-07
5.70712e-08
-3.21865e-07
6.35018e-08
-3.7412e-07
7.00419e-08
-4.31085e-07
7.65341e-08
-4.92552e-07
8.2787e-08
-5.58147e-07
8.85755e-08
-6.27305e-07
9.36436e-08
-6.99256e-07
9.77088e-08
-7.73008e-07
1.00469e-07
-8.47346e-07
1.01609e-07
-9.20827e-07
1.00814e-07
-9.91799e-07
9.77809e-08
-1.05842e-06
9.22309e-08
-1.11868e-06
8.39282e-08
-1.17047e-06
7.26908e-08
-1.21162e-06
5.83783e-08
-1.23982e-06
4.08981e-08
-1.25339e-06
2.10038e-08
-1.25055e-06
-1.48993e-09
-1.2299e-06
-2.61032e-08
-1.19058e-06
-5.19661e-08
-1.13249e-06
-7.8072e-08
-1.05638e-06
-1.0327e-07
-9.63907e-07
-1.26232e-07
-8.5772e-07
-1.45544e-07
-7.41421e-07
-1.59836e-07
-6.1943e-07
-1.67931e-07
-4.96732e-07
-1.69012e-07
-3.78524e-07
-1.62777e-07
-2.69787e-07
-1.49537e-07
-1.74847e-07
-1.30242e-07
-9.69774e-08
-1.06397e-07
-3.81213e-08
-7.98945e-08
1.24543e-09
-5.28045e-08
2.21801e-08
-2.72262e-08
2.7177e-08
-5.16912e-09
2.04312e-08
1.10444e-08
8.29899e-09
1.81673e-08
1.18783e-08
7.26453e-10
-9.83844e-10
3.08832e-09
-4.26536e-09
6.82728e-09
-7.07709e-09
1.14838e-08
-8.91069e-09
1.66145e-08
-9.84543e-09
2.18532e-08
-1.00596e-08
2.69197e-08
-9.73629e-09
3.16111e-08
-9.0318e-09
3.57874e-08
-8.06963e-09
3.93561e-08
-6.94256e-09
4.22592e-08
-5.71662e-09
4.44614e-08
-4.43494e-09
4.59401e-08
-3.12191e-09
4.66769e-08
-1.78606e-09
4.66513e-08
-4.22462e-10
4.58339e-08
9.82797e-10
4.41807e-08
2.45778e-09
4.16304e-08
4.03485e-09
3.80992e-08
5.75394e-09
3.34773e-08
7.66306e-09
2.76259e-08
9.81544e-09
2.03746e-08
1.22697e-08
1.15181e-08
1.50897e-08
8.14259e-10
1.83441e-08
-1.20194e-08
2.21055e-08
-2.73038e-08
2.64478e-08
-4.53981e-08
3.14454e-08
-6.67006e-08
3.7172e-08
-9.16455e-08
4.3697e-08
-1.20698e-07
5.10827e-08
-1.54345e-07
5.93794e-08
-1.93087e-07
6.86194e-08
-2.37423e-07
7.88114e-08
-2.87832e-07
8.99328e-08
-3.4475e-07
1.01922e-07
-4.08546e-07
1.1467e-07
-4.79487e-07
1.28013e-07
-5.5771e-07
1.41724e-07
-6.43179e-07
1.55511e-07
-7.35654e-07
1.6901e-07
-8.34656e-07
1.81788e-07
-9.39428e-07
1.93348e-07
-1.04892e-06
2.03134e-07
-1.16176e-06
2.10547e-07
-1.27625e-06
2.14959e-07
-1.39037e-06
2.15733e-07
-1.50181e-06
2.12249e-07
-1.60796e-06
2.03929e-07
-1.70599e-06
1.90266e-07
-1.79292e-06
1.70859e-07
-1.86568e-06
1.45444e-07
-1.92121e-06
1.13915e-07
-1.95636e-06
7.60456e-08
-1.96882e-06
3.34647e-08
-1.9564e-06
-1.3907e-08
-1.91732e-06
-6.51839e-08
-1.85081e-06
-1.18478e-07
-1.75707e-06
-1.71808e-07
-1.63746e-06
-2.22884e-07
-1.49458e-06
-2.69109e-07
-1.33238e-06
-3.07753e-07
-1.15603e-06
-3.36182e-07
-9.71822e-07
-3.52138e-07
-7.86787e-07
-3.54047e-07
-6.0826e-07
-3.41303e-07
-4.43325e-07
-3.14473e-07
-2.98214e-07
-2.75353e-07
-1.77763e-07
-2.26848e-07
-8.49783e-08
-1.72679e-07
-2.07741e-08
-1.17009e-07
1.61224e-08
-6.41228e-08
2.92321e-08
-1.82788e-08
2.44947e-08
1.57818e-08
1.06196e-08
3.20424e-08
2.24979e-08
1.17134e-09
-2.15516e-09
4.40639e-09
-7.50038e-09
9.27038e-09
-1.19411e-08
1.52158e-08
-1.48561e-08
2.1715e-08
-1.63446e-08
2.83212e-08
-1.66658e-08
3.46836e-08
-1.60988e-08
4.05413e-08
-1.48895e-08
4.57083e-08
-1.32366e-08
5.00571e-08
-1.12914e-08
5.3503e-08
-9.16249e-09
5.59891e-08
-6.92105e-09
5.74744e-08
-4.60716e-09
5.79226e-08
-2.23431e-09
5.72938e-08
2.06342e-10
5.5535e-08
2.74166e-09
5.25744e-08
5.41835e-09
4.83156e-08
8.29362e-09
4.26315e-08
1.14381e-08
3.53602e-08
1.49344e-08
2.63004e-08
1.88752e-08
1.52075e-08
2.33627e-08
1.78848e-09
2.85088e-08
-1.42977e-08
3.44302e-08
-3.34421e-08
4.12499e-08
-5.60877e-08
4.90935e-08
-8.27289e-08
5.80866e-08
-1.13907e-07
6.83504e-08
-1.50207e-07
7.99971e-08
-1.92247e-07
9.31227e-08
-2.40667e-07
1.07799e-07
-2.96111e-07
1.24063e-07
-3.59207e-07
1.41907e-07
-4.30538e-07
1.61265e-07
-5.10613e-07
1.81996e-07
-5.99822e-07
2.03879e-07
-6.98402e-07
2.26592e-07
-8.06384e-07
2.49707e-07
-9.23554e-07
2.72681e-07
-1.0494e-06
2.94857e-07
-1.18308e-06
3.15469e-07
-1.32338e-06
3.33649e-07
-1.4687e-06
3.48453e-07
-1.61703e-06
3.5888e-07
-1.76598e-06
3.63907e-07
-1.91278e-06
3.62525e-07
-2.05431e-06
3.53779e-07
-2.18719e-06
3.36814e-07
-2.30784e-06
3.10918e-07
-2.41256e-06
2.75575e-07
-2.49763e-06
2.30512e-07
-2.55944e-06
1.75731e-07
-2.59481e-06
1.11412e-07
-2.6007e-06
3.93518e-08
-2.57485e-06
-3.97505e-08
-2.51575e-06
-1.24285e-07
-2.42283e-06
-2.11396e-07
-2.29669e-06
-2.97948e-07
-2.13925e-06
-3.80325e-07
-1.95387e-06
-4.54492e-07
-1.74538e-06
-5.16239e-07
-1.52005e-06
-5.61512e-07
-1.28537e-06
-5.86821e-07
-1.04971e-06
-5.89705e-07
-8.21851e-07
-5.69162e-07
-6.10344e-07
-5.25981e-07
-4.22836e-07
-4.62861e-07
-2.65409e-07
-3.84275e-07
-1.4202e-07
-2.96068e-07
-5.41195e-08
-2.04909e-07
-4.56964e-10
-1.17785e-07
2.30837e-08
-4.18194e-08
2.349e-08
1.53754e-08
1.09965e-08
4.45359e-08
3.34945e-08
1.57193e-09
-3.72709e-09
5.57997e-09
-1.15084e-08
1.13926e-08
-1.77537e-08
1.83756e-08
-2.18392e-08
2.59374e-08
-2.39064e-08
3.35733e-08
-2.43016e-08
4.08798e-08
-2.34053e-08
4.75503e-08
-2.156e-08
5.33606e-08
-1.90469e-08
5.81518e-08
-1.60826e-08
6.18126e-08
-1.28233e-08
6.42632e-08
-9.37163e-09
6.5441e-08
-5.78495e-09
6.5288e-08
-2.08135e-09
6.374e-08
1.75432e-09
6.07162e-08
5.76547e-09
5.61122e-08
1.00224e-08
4.97919e-08
1.46139e-08
4.15812e-08
1.96488e-08
3.12619e-08
2.52537e-08
1.85658e-08
3.15713e-08
3.17137e-09
3.87571e-08
-1.52994e-08
4.69795e-08
-3.72851e-08
5.64159e-08
-6.32862e-08
6.72509e-08
-9.38643e-08
7.96716e-08
-1.2964e-07
9.38626e-08
-1.71289e-07
1.09999e-07
-2.1953e-07
1.28238e-07
-2.75114e-07
1.48707e-07
-3.38809e-07
1.71493e-07
-4.11369e-07
1.96623e-07
-4.93509e-07
2.24048e-07
-5.85869e-07
2.53625e-07
-6.88967e-07
2.85094e-07
-8.0315e-07
3.18062e-07
-9.28545e-07
3.51988e-07
-1.065e-06
3.86163e-07
-1.21204e-06
4.19717e-07
-1.36879e-06
4.51612e-07
-1.53399e-06
4.80661e-07
-1.70589e-06
5.05552e-07
-1.88232e-06
5.24881e-07
-2.06063e-06
5.37196e-07
-2.23777e-06
5.4105e-07
-2.41031e-06
5.35056e-07
-2.57448e-06
5.1795e-07
-2.72631e-06
4.88647e-07
-2.8617e-06
4.46307e-07
-2.97652e-06
3.90396e-07
-3.06675e-06
3.20745e-07
-3.12863e-06
2.3761e-07
-3.1589e-06
1.41678e-07
-3.15453e-06
3.49865e-08
-3.11341e-06
-8.08732e-08
-3.03431e-06
-2.03379e-07
-2.91702e-06
-3.2869e-07
-2.76251e-06
-4.52459e-07
-2.57314e-06
-5.69692e-07
-2.35276e-06
-6.7487e-07
-2.10676e-06
-7.62246e-07
-1.842e-06
-8.26273e-07
-1.56668e-06
-8.62141e-07
-1.28999e-06
-8.66388e-07
-1.02166e-06
-8.37501e-07
-7.71248e-07
-7.76389e-07
-5.47501e-07
-6.86608e-07
-3.57537e-07
-5.74238e-07
-2.06203e-07
-4.47402e-07
-9.55599e-08
-3.15552e-07
-2.45789e-08
-1.88766e-07
1.10064e-08
-7.74047e-08
1.88279e-08
7.55393e-09
1.00139e-08
5.33498e-08
4.35084e-08
1.90989e-09
-5.63695e-09
6.56849e-09
-1.6167e-08
1.31523e-08
-2.43375e-08
2.09397e-08
-2.96265e-08
2.92852e-08
-3.2252e-08
3.76412e-08
-3.26577e-08
4.55661e-08
-3.13302e-08
5.27184e-08
-2.87123e-08
5.88429e-08
-2.51715e-08
6.37533e-08
-2.0993e-08
6.73133e-08
-1.63833e-08
6.94193e-08
-1.14776e-08
6.99855e-08
-6.35121e-09
6.89294e-08
-1.02519e-09
6.61586e-08
4.52509e-09
6.1561e-08
1.03631e-08
5.49954e-08
1.6588e-08
4.62823e-08
2.3327e-08
3.51959e-08
3.07352e-08
2.14588e-08
3.89908e-08
4.73581e-09
4.82943e-08
-1.53717e-08
5.88646e-08
-3.93294e-08
7.09371e-08
-6.76725e-08
8.4759e-08
-1.01007e-07
1.00585e-07
-1.40007e-07
1.18672e-07
-1.85412e-07
1.39267e-07
-2.38016e-07
1.62603e-07
-2.98659e-07
1.8888e-07
-3.68202e-07
2.18251e-07
-4.4751e-07
2.50801e-07
-5.37413e-07
2.86526e-07
-6.38671e-07
3.25306e-07
-7.51925e-07
3.66878e-07
-8.77643e-07
4.10812e-07
-1.01606e-06
4.56482e-07
-1.16713e-06
5.03052e-07
-1.33043e-06
5.49463e-07
-1.50514e-06
5.94429e-07
-1.68998e-06
6.36458e-07
-1.8832e-06
6.73873e-07
-2.0825e-06
7.04857e-07
-2.28513e-06
7.2751e-07
-2.48785e-06
7.39918e-07
-2.68702e-06
7.40222e-07
-2.87867e-06
7.26702e-07
-3.05857e-06
6.97851e-07
-3.22237e-06
6.52449e-07
-3.36571e-06
5.89639e-07
-3.4843e-06
5.08989e-07
-3.57411e-06
4.10562e-07
-3.63149e-06
2.94981e-07
-3.6533e-06
1.6349e-07
-3.63682e-06
1.85095e-08
-3.58021e-06
-1.37487e-07
-3.48258e-06
-3.01011e-07
-3.34401e-06
-4.67257e-07
-3.16577e-06
-6.30698e-07
-2.95047e-06
-7.84997e-07
-2.70216e-06
-9.2318e-07
-2.42643e-06
-1.03797e-06
-2.13039e-06
-1.12231e-06
-1.82256e-06
-1.16997e-06
-1.51257e-06
-1.17638e-06
-1.21071e-06
-1.13936e-06
-9.2732e-07
-1.05978e-06
-6.72014e-07
-9.41914e-07
-4.52843e-07
-7.93409e-07
-2.75529e-07
-6.24717e-07
-1.42832e-07
-4.48249e-07
-5.41427e-08
-2.77456e-07
-5.27604e-09
-1.26271e-07
1.16215e-08
-9.3436e-09
8.12397e-09
5.68473e-08
5.16323e-08
2.17945e-09
-7.81639e-09
7.35586e-09
-2.13434e-08
1.45324e-08
-3.1514e-08
2.29015e-08
-3.79956e-08
3.17705e-08
-4.1121e-08
4.05592e-08
-4.14465e-08
4.87983e-08
-3.95693e-08
5.61208e-08
-3.60348e-08
6.22474e-08
-3.12981e-08
6.69682e-08
-2.57138e-08
7.01239e-08
-1.9539e-08
7.15886e-08
-1.29424e-08
7.12517e-08
-6.01426e-09
6.90028e-08
1.22367e-09
6.47199e-08
8.80806e-09
5.82558e-08
1.68272e-08
4.94287e-08
2.5415e-08
3.80126e-08
3.47431e-08
2.37293e-08
4.50185e-08
6.24005e-09
5.648e-08
-1.48599e-08
6.93943e-08
-4.00473e-08
8.40519e-08
-6.98739e-08
1.00764e-07
-1.04969e-07
1.19854e-07
-1.4604e-07
1.41656e-07
-1.93866e-07
1.66498e-07
-2.49294e-07
1.94696e-07
-3.13226e-07
2.26535e-07
-3.86599e-07
2.62253e-07
-4.70362e-07
3.02015e-07
-5.65447e-07
3.45885e-07
-6.72719e-07
3.93798e-07
-7.92937e-07
4.45524e-07
-9.2669e-07
5.00632e-07
-1.07434e-06
5.58459e-07
-1.23594e-06
6.18083e-07
-1.41119e-06
6.78299e-07
-1.59934e-06
7.37618e-07
-1.79918e-06
7.94271e-07
-2.00897e-06
8.46243e-07
-2.22641e-06
8.91317e-07
-2.4487e-06
9.27146e-07
-2.67252e-06
9.51331e-07
-2.89412e-06
9.61518e-07
-3.1094e-06
9.55498e-07
-3.31399e-06
9.31298e-07
-3.50342e-06
8.87277e-07
-3.67318e-06
8.22204e-07
-3.81886e-06
7.35329e-07
-3.93632e-06
6.26448e-07
-4.02173e-06
4.95964e-07
-4.0717e-06
3.44952e-07
-4.08343e-06
1.75226e-07
-4.0546e-06
-1.03211e-08
-3.9837e-06
-2.08392e-07
-3.87012e-06
-4.14593e-07
-3.71415e-06
-6.23223e-07
-3.51718e-06
-8.27666e-07
-3.28184e-06
-1.02034e-06
-3.01212e-06
-1.19289e-06
-2.71354e-06
-1.33655e-06
-2.39314e-06
-1.44271e-06
-2.05943e-06
-1.50368e-06
-1.72223e-06
-1.51359e-06
-1.3922e-06
-1.46939e-06
-1.08025e-06
-1.37172e-06
-7.96787e-07
-1.22538e-06
-5.50745e-07
-1.03945e-06
-3.48757e-07
-8.26705e-07
-1.94378e-07
-6.02628e-07
-8.75765e-08
-3.84257e-07
-2.44746e-08
-1.89373e-07
2.71317e-09
-3.65314e-08
5.66396e-09
5.38966e-08
5.72963e-08
2.38118e-09
-1.01975e-08
7.93985e-09
-2.6902e-08
1.55308e-08
-3.9105e-08
2.42666e-08
-4.67314e-08
3.34126e-08
-5.0267e-08
4.23633e-08
-5.03972e-08
5.06303e-08
-4.78362e-08
5.78286e-08
-4.32331e-08
6.36608e-08
-3.71303e-08
6.78981e-08
-2.9951e-08
7.03607e-08
-2.20016e-08
7.09001e-08
-1.34817e-08
6.93801e-08
-4.49432e-09
6.56626e-08
4.94116e-09
5.95926e-08
1.48781e-08
5.09859e-08
2.54339e-08
3.96186e-08
3.67824e-08
2.52161e-08
4.91456e-08
7.44447e-09
6.27901e-08
-1.40974e-08
7.80219e-08
-3.98844e-08
9.51812e-08
-7.04704e-08
1.14638e-07
-1.06492e-07
1.36785e-07
-1.48668e-07
1.62031e-07
-1.97801e-07
1.90789e-07
-2.54768e-07
2.23464e-07
-3.20511e-07
2.60438e-07
-3.9602e-07
3.02045e-07
-4.82312e-07
3.48545e-07
-5.80396e-07
4.00099e-07
-6.91233e-07
4.56722e-07
-8.15687e-07
5.18252e-07
-9.54466e-07
5.84303e-07
-1.10805e-06
6.5422e-07
-1.27664e-06
7.27046e-07
-1.46005e-06
8.01488e-07
-1.65765e-06
8.75903e-07
-1.86833e-06
9.48301e-07
-2.09043e-06
1.01637e-06
-2.32171e-06
1.07753e-06
-2.55938e-06
1.12899e-06
-2.80012e-06
1.16788e-06
-3.04014e-06
1.19135e-06
-3.27528e-06
1.19666e-06
-3.50112e-06
1.18134e-06
-3.71311e-06
1.14329e-06
-3.9067e-06
1.08087e-06
-4.07746e-06
9.92959e-07
-4.22118e-06
8.79051e-07
-4.33401e-06
7.39274e-07
-4.41249e-06
5.7445e-07
-4.45368e-06
3.86142e-07
-4.45518e-06
1.76719e-07
-4.41505e-06
-5.04447e-08
-4.33212e-06
-2.91328e-07
-4.20595e-06
-5.40763e-07
-4.0369e-06
-7.9227e-07
-3.82629e-06
-1.03828e-06
-3.57655e-06
-1.27009e-06
-3.29138e-06
-1.47806e-06
-2.97596e-06
-1.65198e-06
-2.637e-06
-1.78167e-06
-2.28284e-06
-1.85784e-06
-1.92324e-06
-1.87318e-06
-1.5691e-06
-1.82354e-06
-1.23183e-06
-1.70899e-06
-9.22549e-07
-1.53466e-06
-6.51137e-07
-1.31086e-06
-4.25194e-07
-1.05265e-06
-2.49186e-07
-7.78636e-07
-1.23808e-07
-5.09635e-07
-4.56741e-08
-2.67507e-07
-7.28788e-09
-7.49177e-08
2.8731e-09
4.37356e-08
6.01694e-08
2.51875e-09
-1.27163e-08
8.3259e-09
-3.27092e-08
1.61553e-08
-4.69344e-08
2.50487e-08
-5.56248e-08
3.42354e-08
-5.94536e-08
4.30908e-08
-5.92527e-08
5.11139e-08
-5.58594e-08
5.79086e-08
-5.00278e-08
6.31648e-08
-4.23865e-08
6.66386e-08
-3.34248e-08
6.81323e-08
-2.34953e-08
6.74754e-08
-1.28249e-08
6.45072e-08
-1.52606e-09
5.906e-08
1.03883e-08
5.09453e-08
2.29928e-08
3.99402e-08
3.6439e-08
2.57766e-08
5.0946e-08
8.12952e-09
6.67926e-08
-1.33914e-08
8.4311e-08
-3.92503e-08
1.03881e-07
-6.99917e-08
1.25923e-07
-1.06245e-07
1.50892e-07
-1.48729e-07
1.79269e-07
-1.98247e-07
2.11549e-07
-2.5569e-07
2.48231e-07
-3.22019e-07
2.89794e-07
-3.98258e-07
3.36678e-07
-4.8547e-07
3.89256e-07
-5.84723e-07
4.47799e-07
-6.97057e-07
5.12432e-07
-8.23429e-07
5.83094e-07
-9.64657e-07
6.59481e-07
-1.12135e-06
7.40996e-07
-1.29383e-06
8.26704e-07
-1.48207e-06
9.15285e-07
-1.68559e-06
1.00501e-06
-1.90341e-06
1.09372e-06
-2.13399e-06
1.17888e-06
-2.3752e-06
1.25758e-06
-2.62432e-06
1.32665e-06
-2.87809e-06
1.38276e-06
-3.13273e-06
1.42253e-06
-3.3841e-06
1.44272e-06
-3.62777e-06
1.44032e-06
-3.85917e-06
1.41274e-06
-4.07374e-06
1.35786e-06
-4.26706e-06
1.27419e-06
-4.43495e-06
1.16086e-06
-4.57361e-06
1.0177e-06
-4.6796e-06
8.45264e-07
-4.74997e-06
6.4482e-07
-4.78224e-06
4.18413e-07
-4.77443e-06
1.68912e-07
-4.725e-06
-9.98782e-08
-4.63297e-06
-3.83357e-07
-4.49798e-06
-6.75752e-07
-4.3203e-06
-9.69946e-07
-4.101e-06
-1.25757e-06
-3.84212e-06
-1.52897e-06
-3.54686e-06
-1.77332e-06
-3.21985e-06
-1.97899e-06
-2.86731e-06
-2.13421e-06
-2.49717e-06
-2.22798e-06
-2.11903e-06
-2.25132e-06
-1.7439e-06
-2.19867e-06
-1.38364e-06
-2.06925e-06
-1.05012e-06
-1.86818e-06
-7.54187e-07
-1.60679e-06
-5.04531e-07
-1.3023e-06
-3.06659e-07
-9.76509e-07
-1.62145e-07
-6.54148e-07
-6.82599e-08
-3.61392e-07
-1.79669e-08
-1.25211e-07
-1.08419e-10
2.58771e-08
6.0061e-08
2.59697e-09
-1.53132e-08
8.52321e-09
-3.86354e-08
1.64185e-08
-5.48296e-08
2.5266e-08
-6.44723e-08
3.42653e-08
-6.8453e-08
4.27789e-08
-6.77663e-08
5.02991e-08
-6.33796e-08
5.64242e-08
-5.61529e-08
6.08363e-08
-4.67986e-08
6.32801e-08
-3.58686e-08
6.35426e-08
-2.37578e-08
6.14331e-08
-1.07155e-08
5.67662e-08
3.14088e-09
4.93448e-08
1.78097e-08
3.89459e-08
3.33918e-08
2.53069e-08
5.00779e-08
8.11435e-09
6.81386e-08
-1.30077e-08
8.79147e-08
-3.85066e-08
1.0981e-07
-6.89092e-08
1.34283e-07
-1.04828e-07
1.61842e-07
-1.46967e-07
1.9303e-07
-1.96119e-07
2.28421e-07
-2.53169e-07
2.68599e-07
-3.19083e-07
3.14145e-07
-3.94899e-07
3.65609e-07
-4.81704e-07
4.23483e-07
-5.8061e-07
4.88162e-07
-6.92715e-07
5.59904e-07
-8.19055e-07
6.38772e-07
-9.60546e-07
7.24585e-07
-1.11792e-06
8.16851e-07
-1.29163e-06
9.1471e-07
-1.4818e-06
1.01688e-06
-1.68812e-06
1.12161e-06
-1.90978e-06
1.22666e-06
-2.14539e-06
1.32933e-06
-2.39297e-06
1.42646e-06
-2.64995e-06
1.51455e-06
-2.91314e-06
1.58984e-06
-3.17885e-06
1.64847e-06
-3.44299e-06
1.68667e-06
-3.70115e-06
1.70087e-06
-3.94878e-06
1.68795e-06
-4.18135e-06
1.64531e-06
-4.39447e-06
1.57098e-06
-4.58402e-06
1.46374e-06
-4.74625e-06
1.32309e-06
-4.87783e-06
1.14928e-06
-4.97588e-06
9.43315e-07
-5.03797e-06
7.06909e-07
-5.0621e-06
4.42541e-07
-5.04668e-06
1.53492e-07
-4.99046e-06
-1.56103e-07
-4.89258e-06
-4.81234e-07
-4.75263e-06
-8.15705e-07
-4.57065e-06
-1.15193e-06
-4.3473e-06
-1.48092e-06
-4.08408e-06
-1.7922e-06
-3.78353e-06
-2.07386e-06
-3.44958e-06
-2.31294e-06
-3.08776e-06
-2.49602e-06
-2.70548e-06
-2.61027e-06
-2.31203e-06
-2.64477e-06
-1.91843e-06
-2.59226e-06
-1.53695e-06
-2.45073e-06
-1.18024e-06
-2.22489e-06
-8.60187e-07
-1.92684e-06
-5.86706e-07
-1.57579e-06
-3.66499e-07
-1.19672e-06
-2.02189e-07
-8.18459e-07
-9.18567e-08
-4.71724e-07
-2.90627e-08
-1.88005e-07
-3.13408e-09
-5.1507e-11
5.69269e-08
2.6208e-09
-1.7934e-08
8.54236e-09
-4.45569e-08
1.63357e-08
-6.2623e-08
2.49389e-08
-7.30755e-08
3.35299e-08
-7.7044e-08
4.14642e-08
-7.57007e-08
4.82332e-08
-7.01485e-08
5.34345e-08
-6.13543e-08
5.67472e-08
-5.01112e-08
5.79081e-08
-3.70295e-08
5.6691e-08
-2.25408e-08
5.28871e-08
-6.91155e-09
4.62869e-08
9.74113e-09
3.6664e-08
2.74326e-08
2.37606e-08
4.62952e-08
7.27398e-09
6.65645e-08
-1.31551e-08
8.85677e-08
-3.79537e-08
1.12713e-07
-6.76255e-08
1.39482e-07
-1.02759e-07
1.69417e-07
-1.44033e-07
2.03116e-07
-1.92219e-07
2.41216e-07
-2.48183e-07
2.84385e-07
-3.1288e-07
3.33296e-07
-3.87344e-07
3.88609e-07
-4.7267e-07
4.50935e-07
-5.69993e-07
5.20806e-07
-6.80451e-07
5.98621e-07
-8.05143e-07
6.84595e-07
-9.45068e-07
7.78697e-07
-1.10106e-06
8.8058e-07
-1.27372e-06
9.89512e-07
-1.46332e-06
1.10431e-06
-1.66972e-06
1.22328e-06
-1.8923e-06
1.34418e-06
-2.12985e-06
1.46422e-06
-2.38061e-06
1.58008e-06
-2.64213e-06
1.68799e-06
-2.91141e-06
1.78383e-06
-3.18486e-06
1.8633e-06
-3.45848e-06
1.92209e-06
-3.72792e-06
1.95611e-06
-3.98868e-06
1.96164e-06
-4.23626e-06
1.93553e-06
-4.46631e-06
1.87536e-06
-4.67476e-06
1.77944e-06
-4.85794e-06
1.64692e-06
-5.01263e-06
1.47777e-06
-5.13606e-06
1.27271e-06
-5.22591e-06
1.03317e-06
-5.28029e-06
7.61285e-07
-5.29762e-06
4.59879e-07
-5.27667e-06
1.32535e-07
-5.21636e-06
-2.16412e-07
-5.11587e-06
-5.81717e-07
-4.97463e-06
-9.56948e-07
-4.79234e-06
-1.33422e-06
-4.56917e-06
-1.7041e-06
-4.30593e-06
-2.05543e-06
-4.00441e-06
-2.37538e-06
-3.66767e-06
-2.64967e-06
-3.30047e-06
-2.86323e-06
-2.9095e-06
-3.00124e-06
-2.50362e-06
-3.05065e-06
-2.09378e-06
-3.0021e-06
-1.69258e-06
-2.85193e-06
-1.31345e-06
-2.60403e-06
-9.69429e-07
-2.27086e-06
-6.71788e-07
-1.87343e-06
-4.28612e-07
-1.43989e-06
-2.43754e-07
-1.00332e-06
-1.16271e-07
-5.99208e-07
-4.04424e-08
-2.63833e-07
-6.19715e-09
-3.42968e-08
5.07297e-08
2.59481e-09
-2.05288e-08
8.39386e-09
-5.03559e-08
1.59226e-08
-7.01517e-08
2.40882e-08
-8.12412e-08
3.20563e-08
-8.50121e-08
3.91819e-08
-8.28263e-08
4.49609e-08
-7.59275e-08
4.89954e-08
-6.53888e-08
5.09654e-08
-5.20812e-08
5.06033e-08
-3.66674e-08
4.76725e-08
-1.961e-08
4.19474e-08
-1.18643e-09
3.31955e-08
1.8493e-08
2.11618e-08
3.94663e-08
5.55382e-09
6.19032e-08
-1.39712e-08
8.60895e-08
-3.78181e-08
1.12415e-07
-6.64643e-08
1.41359e-07
-1.00469e-07
1.73486e-07
-1.40479e-07
2.09427e-07
-1.87237e-07
2.49873e-07
-2.41578e-07
2.95558e-07
-3.04432e-07
3.47239e-07
-3.76815e-07
4.05679e-07
-4.59815e-07
4.71608e-07
-5.54572e-07
5.45692e-07
-6.62245e-07
6.2848e-07
-7.83977e-07
7.20352e-07
-9.20833e-07
8.21452e-07
-1.07375e-06
9.3161e-07
-1.24343e-06
1.05027e-06
-1.43032e-06
1.1764e-06
-1.63445e-06
1.30843e-06
-1.85538e-06
1.44421e-06
-2.09215e-06
1.58095e-06
-2.34318e-06
1.71525e-06
-2.60625e-06
1.84316e-06
-2.87854e-06
1.96028e-06
-3.15663e-06
2.06192e-06
-3.43663e-06
2.14329e-06
-3.71429e-06
2.19975e-06
-3.98517e-06
2.22699e-06
-4.24482e-06
2.22128e-06
-4.48892e-06
2.17963e-06
-4.71344e-06
2.09988e-06
-4.91477e-06
1.98077e-06
-5.08976e-06
1.82192e-06
-5.23579e-06
1.6238e-06
-5.35067e-06
1.38759e-06
-5.43266e-06
1.11516e-06
-5.48033e-06
8.08951e-07
-5.49249e-06
4.7204e-07
-5.46815e-06
1.08193e-07
-5.40636e-06
-2.78194e-07
-5.30627e-06
-6.81813e-07
-5.16704e-06
-1.09618e-06
-4.988e-06
-1.51326e-06
-4.76873e-06
-1.92336e-06
-4.50933e-06
-2.31483e-06
-4.21072e-06
-2.674e-06
-3.87503e-06
-2.98536e-06
-3.50606e-06
-3.2322e-06
-3.10969e-06
-3.39761e-06
-2.69419e-06
-3.46615e-06
-2.27029e-06
-3.426e-06
-1.85084e-06
-3.27139e-06
-1.45002e-06
-3.00484e-06
-1.08212e-06
-2.63877e-06
-7.59896e-07
-2.19565e-06
-4.93027e-07
-1.70676e-06
-2.86804e-07
-1.20954e-06
-1.41441e-07
-7.44571e-07
-5.20603e-08
-3.53214e-07
-9.26366e-09
-7.70934e-08
4.14661e-08
2.52297e-09
-2.30517e-08
8.08737e-09
-5.59203e-08
1.5194e-08
-7.72582e-08
2.2734e-08
-8.87812e-08
2.98702e-08
-9.21484e-08
3.59648e-08
-8.89209e-08
4.05238e-08
-8.04864e-08
4.31586e-08
-6.80237e-08
4.35542e-08
-5.24768e-08
4.1442e-08
-3.45552e-08
3.65774e-08
-1.47453e-08
2.87197e-08
6.67125e-09
1.7615e-08
2.95977e-08
2.98001e-09
5.41013e-08
-1.55115e-08
8.03947e-08
-3.82419e-08
1.0882e-07
-6.56604e-08
1.39833e-07
-9.82937e-08
1.73993e-07
-1.36754e-07
2.11946e-07
-1.81745e-07
2.54418e-07
-2.34066e-07
3.02194e-07
-2.9461e-07
3.56102e-07
-3.64365e-07
4.16994e-07
-4.44394e-07
4.85709e-07
-5.35827e-07
5.63042e-07
-6.39829e-07
6.49694e-07
-7.57565e-07
7.46216e-07
-8.90152e-07
8.52939e-07
-1.0386e-06
9.69896e-07
-1.20373e-06
1.09674e-06
-1.38611e-06
1.23265e-06
-1.58596e-06
1.37625e-06
-1.80305e-06
1.52552e-06
-2.03663e-06
1.67779e-06
-2.28536e-06
1.82968e-06
-2.54726e-06
1.97716e-06
-2.81974e-06
2.11563e-06
-3.09958e-06
2.24012e-06
-3.38305e-06
2.34539e-06
-3.66603e-06
2.42627e-06
-3.94416e-06
2.47788e-06
-4.21303e-06
2.49586e-06
-4.46835e-06
2.4766e-06
-4.70613e-06
2.4174e-06
-4.92277e-06
2.31652e-06
-5.11519e-06
2.17319e-06
-5.28084e-06
1.98757e-06
-5.41767e-06
1.76063e-06
-5.52409e-06
1.49402e-06
-5.59887e-06
1.18993e-06
-5.641e-06
8.51081e-07
-5.6496e-06
4.80643e-07
-5.62387e-06
8.24648e-08
-5.56293e-06
-3.39138e-07
-5.4658e-06
-7.78939e-07
-5.33141e-06
-1.23056e-06
-5.15866e-06
-1.68602e-06
-4.94653e-06
-2.13549e-06
-4.69438e-06
-2.56699e-06
-4.4022e-06
-2.96618e-06
-4.07112e-06
-3.31644e-06
-3.70389e-06
-3.59943e-06
-3.30542e-06
-3.79608e-06
-2.8832e-06
-3.88836e-06
-2.44758e-06
-3.86162e-06
-2.01152e-06
-3.70744e-06
-1.58993e-06
-3.42644e-06
-1.19832e-06
-3.03037e-06
-8.51135e-07
-2.54284e-06
-5.59837e-07
-1.99806e-06
-3.31398e-07
-1.43798e-06
-1.67397e-07
-9.08572e-07
-6.39333e-08
-4.56678e-07
-1.23388e-08
-1.28688e-07
2.91273e-08
2.40856e-09
-2.54602e-08
7.63133e-09
-6.11431e-08
1.41633e-08
-8.37902e-08
2.08944e-08
-9.55123e-08
2.69954e-08
-9.82494e-08
3.18432e-08
-9.37688e-08
3.49602e-08
-8.36034e-08
3.59722e-08
-6.90357e-08
3.45731e-08
-5.10777e-08
3.04964e-08
-3.04784e-08
2.34919e-08
-7.74089e-09
1.33061e-08
1.6857e-08
-3.35292e-10
4.32391e-08
-1.77424e-08
7.15084e-08
-3.92743e-08
1.01927e-07
-6.53518e-08
1.34897e-07
-9.64671e-08
1.70948e-07
-1.33194e-07
2.1072e-07
-1.76195e-07
2.54947e-07
-2.26226e-07
3.04449e-07
-2.84137e-07
3.60106e-07
-3.50875e-07
4.2284e-07
-4.27471e-07
4.93589e-07
-5.15027e-07
5.73265e-07
-6.14697e-07
6.62712e-07
-7.27654e-07
7.6265e-07
-8.55043e-07
8.73605e-07
-9.97931e-07
9.95826e-07
-1.15724e-06
1.1292e-06
-1.33365e-06
1.27316e-06
-1.52756e-06
1.42656e-06
-1.73892e-06
1.58761e-06
-1.96724e-06
1.75383e-06
-2.2114e-06
1.92196e-06
-2.46972e-06
2.08799e-06
-2.73983e-06
2.24726e-06
-3.01876e-06
2.39457e-06
-3.30298e-06
2.52434e-06
-3.58854e-06
2.63094e-06
-3.87118e-06
2.70891e-06
-4.14654e-06
2.75325e-06
-4.41037e-06
2.75969e-06
-4.65867e-06
2.7249e-06
-4.88785e-06
2.64658e-06
-5.09484e-06
2.5235e-06
-5.27712e-06
2.35547e-06
-5.43274e-06
2.14319e-06
-5.56023e-06
1.88812e-06
-5.65853e-06
1.59232e-06
-5.72687e-06
1.25827e-06
-5.7646e-06
8.88815e-07
-5.77108e-06
4.87125e-07
-5.74565e-06
5.70341e-08
-5.68744e-06
-3.97353e-07
-5.59537e-06
-8.71007e-07
-5.46812e-06
-1.35782e-06
-5.30416e-06
-1.84998e-06
-5.10192e-06
-2.33773e-06
-4.85999e-06
-2.80892e-06
-4.57745e-06
-3.24871e-06
-4.25437e-06
-3.63952e-06
-3.89234e-06
-3.96146e-06
-3.49515e-06
-4.19328e-06
-3.06933e-06
-4.31417e-06
-2.62464e-06
-4.30632e-06
-2.17396e-06
-4.15812e-06
-1.73279e-06
-3.8676e-06
-1.31792e-06
-3.44524e-06
-9.4554e-07
-2.91522e-06
-6.29145e-07
-2.31445e-06
-3.77647e-07
-1.68948e-06
-1.94225e-07
-1.09199e-06
-7.61211e-08
-5.74782e-07
-1.5442e-08
-1.89367e-07
1.36852e-08
2.25419e-09
-2.77144e-08
7.03274e-09
-6.59216e-08
1.28421e-08
-8.95996e-08
1.85855e-08
-1.01256e-07
2.34528e-08
-1.03117e-07
2.68444e-08
-9.71604e-08
2.83051e-08
-8.50642e-08
2.74805e-08
-6.82111e-08
2.40773e-08
-4.76744e-08
1.78343e-08
-2.42355e-08
8.49843e-09
1.59495e-09
-4.19495e-09
2.95504e-08
-2.05388e-08
5.9583e-08
-4.08686e-08
9.18381e-08
-6.5575e-08
1.26633e-07
-9.51154e-08
1.64438e-07
-1.30023e-07
2.05856e-07
-1.70916e-07
2.51613e-07
-2.18503e-07
3.02534e-07
-2.73587e-07
3.59533e-07
-3.37065e-07
4.23584e-07
-4.09925e-07
4.957e-07
-4.93232e-07
5.76896e-07
-5.88114e-07
6.68147e-07
-6.95733e-07
7.70331e-07
-8.17246e-07
8.84164e-07
-9.5376e-07
1.01012e-06
-1.10626e-06
1.14833e-06
-1.27556e-06
1.2985e-06
-1.46217e-06
1.45977e-06
-1.66627e-06
1.63065e-06
-1.88756e-06
1.8089e-06
-2.12521e-06
1.99148e-06
-2.37779e-06
2.17454e-06
-2.64322e-06
2.35343e-06
-2.91882e-06
2.52286e-06
-3.20128e-06
2.67703e-06
-3.48684e-06
2.8099e-06
-3.77139e-06
2.91549e-06
-4.05065e-06
2.98817e-06
-4.3204e-06
3.02299e-06
-4.57661e-06
3.01591e-06
-4.81568e-06
2.96397e-06
-5.03451e-06
2.8654e-06
-5.23056e-06
2.71956e-06
-5.40191e-06
2.52682e-06
-5.54717e-06
2.28845e-06
-5.6654e-06
2.00635e-06
-5.75601e-06
1.68293e-06
-5.81861e-06
1.32087e-06
-5.85291e-06
9.23108e-07
-5.8584e-06
4.92622e-07
-5.83456e-06
3.31894e-08
-5.7805e-06
-4.51413e-07
-5.69505e-06
-9.56455e-07
-5.57668e-06
-1.47619e-06
-5.4235e-06
-2.00315e-06
-5.23342e-06
-2.52781e-06
-5.0043e-06
-3.03804e-06
-4.73432e-06
-3.51868e-06
-4.42246e-06
-3.95139e-06
-4.06907e-06
-4.31484e-06
-3.67667e-06
-4.58568e-06
-3.25066e-06
-4.74019e-06
-2.79991e-06
-4.75707e-06
-2.33704e-06
-4.62099e-06
-1.87794e-06
-4.3267e-06
-1.44059e-06
-3.88259e-06
-1.04305e-06
-3.31276e-06
-7.01032e-07
-2.65647e-06
-4.25677e-07
-1.96483e-06
-2.22038e-07
-1.29563e-06
-8.87039e-08
-7.08116e-07
-1.86041e-08
-2.59467e-07
-4.91882e-09
2.06184e-09
-2.97762e-08
6.29716e-09
-7.01569e-08
1.12399e-08
-9.45423e-08
1.5821e-08
-1.05837e-07
1.92609e-08
-1.06557e-07
2.09925e-08
-9.8892e-08
2.05901e-08
-8.46618e-08
1.7724e-08
-6.5345e-08
1.21181e-08
-4.20686e-08
3.51984e-09
-1.56372e-08
-8.32445e-09
1.34392e-08
-2.36885e-08
4.49144e-08
-4.28819e-08
7.87765e-08
-6.62642e-08
1.1522e-07
-9.42556e-08
1.54625e-07
-1.27348e-07
1.9753e-07
-1.66113e-07
2.44621e-07
-2.11209e-07
2.96709e-07
-2.63388e-07
3.54713e-07
-3.23492e-07
4.19637e-07
-3.92459e-07
4.9255e-07
-4.71306e-07
5.74547e-07
-5.61124e-07
6.66714e-07
-6.63049e-07
7.70072e-07
-7.78235e-07
8.85517e-07
-9.07806e-07
1.01373e-06
-1.0528e-06
1.15511e-06
-1.21411e-06
1.30964e-06
-1.39239e-06
1.47678e-06
-1.58798e-06
1.65536e-06
-1.8008e-06
1.84347e-06
-2.03028e-06
2.03838e-06
-2.27527e-06
2.23647e-06
-2.53401e-06
2.43327e-06
-2.80407e-06
2.6235e-06
-3.08246e-06
2.80125e-06
-3.36563e-06
2.9602e-06
-3.64964e-06
3.09391e-06
-3.93033e-06
3.19618e-06
-4.20352e-06
3.26136e-06
-4.46518e-06
3.28465e-06
-4.71164e-06
3.26237e-06
-4.93973e-06
3.19207e-06
-5.14687e-06
3.07255e-06
-5.3311e-06
2.90378e-06
-5.49103e-06
2.68675e-06
-5.6258e-06
2.42322e-06
-5.73495e-06
2.1155e-06
-5.81826e-06
1.76624e-06
-5.87569e-06
1.3783e-06
-5.90721e-06
9.54634e-07
-5.91253e-06
4.97932e-07
-5.89115e-06
1.18133e-08
-5.84221e-06
-5.00352e-07
-5.76442e-06
-1.03424e-06
-5.65619e-06
-1.58442e-06
-5.51529e-06
-2.14405e-06
-5.33918e-06
-2.70393e-06