/*--------------------------------*- C++ -*----------------------------------*\
  =========                 |
  \\      /  F ield         | OpenFOAM: The Open Source CFD Toolbox
   \\    /   O peration     | Website:  https://openfoam.org
    \\  /    A nd           | Version:  12
     \\/     M anipulation  |
\*---------------------------------------------------------------------------*/
FoamFile
{
    format      ascii;
    class       volVectorField;
    location    "7.5";
    object      U;
}
// * * * * * * * * * * * * * * * * * * * * * * * * * * * * * * * * * * * * * //

dimensions      [0 1 -1 0 0 0 0];

internalField   nonuniform List<vector> 
5625
(
(-6.40445e-06 2.58372e-06 0)
(8.13386e-06 -2.58811e-06 0)
(6.22091e-05 -6.08646e-06 0)
(0.000142416 -7.98385e-06 0)
(0.000236827 -8.83293e-06 0)
(0.00033662 -8.97117e-06 0)
(0.000435459 -8.65585e-06 0)
(0.000529033 -8.06105e-06 0)
(0.000614535 -7.30773e-06 0)
(0.000690255 -6.47882e-06 0)
(0.000755258 -5.63012e-06 0)
(0.000809129 -4.79605e-06 0)
(0.000851767 -3.99583e-06 0)
(0.000883227 -3.23717e-06 0)
(0.000903568 -2.51321e-06 0)
(0.000912778 -1.82071e-06 0)
(0.000910675 -1.13902e-06 0)
(0.000896768 -4.44597e-07 0)
(0.000870276 2.87396e-07 0)
(0.000830027 1.08795e-06 0)
(0.000774404 1.99161e-06 0)
(0.000701289 3.03952e-06 0)
(0.000608027 4.27535e-06 0)
(0.000491361 5.7481e-06 0)
(0.000347407 7.51081e-06 0)
(0.000171602 9.61669e-06 0)
(-4.13213e-05 1.21263e-05 0)
(-0.00029735 1.51014e-05 0)
(-0.000603214 1.86168e-05 0)
(-0.000966351 2.27422e-05 0)
(-0.00139484 2.75451e-05 0)
(-0.00189734 3.30946e-05 0)
(-0.00248298 3.9454e-05 0)
(-0.00316112 4.66764e-05 0)
(-0.00394112 5.47989e-05 0)
(-0.00483201 6.38362e-05 0)
(-0.00584206 7.37723e-05 0)
(-0.00697827 8.45516e-05 0)
(-0.00824583 9.60696e-05 0)
(-0.00964739 0.000108163 0)
(-0.0111825 0.000120603 0)
(-0.0128466 0.000133084 0)
(-0.0146306 0.000145221 0)
(-0.0165202 0.000156546 0)
(-0.0184949 0.00016651 0)
(-0.0205277 0.000174488 0)
(-0.0225852 0.000179788 0)
(-0.0246266 0.000181673 0)
(-0.0266047 0.000179377 0)
(-0.0284659 0.00017216 0)
(-0.0301513 0.000159405 0)
(-0.0315936 0.000139555 0)
(-0.0327329 0.000113863 0)
(-0.0334959 8.1731e-05 0)
(-0.0338358 4.15124e-05 0)
(-0.0336917 -3.1579e-06 0)
(-0.0330151 -5.24084e-05 0)
(-0.03179 -0.00010483 0)
(-0.0300146 -0.000157298 0)
(-0.0277164 -0.000206759 0)
(-0.0249546 -0.000249726 0)
(-0.0218202 -0.000282683 0)
(-0.0184343 -0.00030253 0)
(-0.0149417 -0.000307075 0)
(-0.0115006 -0.000295476 0)
(-0.00826898 -0.000268529 0)
(-0.00539045 -0.00022866 0)
(-0.00297995 -0.000179617 0)
(-0.00111343 -0.000125873 0)
(0.000177639 -7.20549e-05 0)
(0.000906073 -2.20739e-05 0)
(0.00112689 2.03699e-05 0)
(0.000936664 5.20575e-05 0)
(0.000505594 6.34232e-05 0)
(9.11002e-05 4.2069e-05 0)
(-4.50223e-06 -1.15184e-06 0)
(5.52804e-05 -3.7188e-05 0)
(0.000205019 -6.89808e-05 0)
(0.00041794 -8.88129e-05 0)
(0.000666763 -9.85973e-05 0)
(0.000929858 -0.000100809 0)
(0.00119075 -9.76593e-05 0)
(0.0014377 -9.08802e-05 0)
(0.0016627 -8.17734e-05 0)
(0.00186056 -7.12842e-05 0)
(0.0020282 -6.00715e-05 0)
(0.0021639 -4.85594e-05 0)
(0.0022668 -3.69872e-05 0)
(0.0023365 -2.54425e-05 0)
(0.00237257 -1.38771e-05 0)
(0.00237439 -2.18022e-06 0)
(0.00234084 9.893e-06 0)
(0.00226988 2.26641e-05 0)
(0.00215872 3.64713e-05 0)
(0.00200336 5.17499e-05 0)
(0.00179855 6.89829e-05 0)
(0.00153759 8.871e-05 0)
(0.00121225 0.000111516 0)
(0.000812568 0.000138054 0)
(0.000326843 0.000168937 0)
(-0.0002585 0.00020489 0)
(-0.000959058 0.000246674 0)
(-0.00179242 0.00029503 0)
(-0.00277791 0.00035066 0)
(-0.00393667 0.000414254 0)
(-0.00529149 0.000486434 0)
(-0.00686632 0.000567704 0)
(-0.00868591 0.000658395 0)
(-0.0107751 0.000758602 0)
(-0.0131579 0.000868107 0)
(-0.0158565 0.000986304 0)
(-0.0188902 0.00111211 0)
(-0.0222733 0.00124389 0)
(-0.0260143 0.00137936 0)
(-0.0301132 0.00151556 0)
(-0.0345606 0.0016488 0)
(-0.0393349 0.00177464 0)
(-0.0444012 0.00188795 0)
(-0.0497098 0.00198293 0)
(-0.0551946 0.00205325 0)
(-0.0607729 0.00209221 0)
(-0.0663447 0.00209289 0)
(-0.0717936 0.00204846 0)
(-0.076988 0.00195246 0)
(-0.0817828 0.00179913 0)
(-0.0860227 0.00158359 0)
(-0.0895398 0.00130122 0)
(-0.0921934 0.000950206 0)
(-0.0937683 0.000541444 0)
(-0.094204 8.49792e-05 0)
(-0.093345 -0.000432986 0)
(-0.0910983 -0.000978446 0)
(-0.0874378 -0.00153412 0)
(-0.0823828 -0.00207483 0)
(-0.0760219 -0.00257115 0)
(-0.0685169 -0.00299151 0)
(-0.0601035 -0.00330503 0)
(-0.051086 -0.00348509 0)
(-0.0418219 -0.00351321 0)
(-0.0326993 -0.00338255 0)
(-0.0241074 -0.00310023 0)
(-0.0164022 -0.00268765 0)
(-0.00987463 -0.00217843 0)
(-0.00472444 -0.0016143 0)
(-0.00104346 -0.00104018 0)
(0.0011884 -0.000500196 0)
(0.00210287 -3.64854e-05 0)
(0.00194338 0.000301564 0)
(0.0011202 0.00043877 0)
(0.000201311 0.000275453 0)
(2.49567e-06 -1.97605e-05 0)
(0.000115176 -0.000107416 0)
(0.000350834 -0.00018398 0)
(0.000674395 -0.000233508 0)
(0.00104877 -0.000258622 0)
(0.00144348 -0.000264489 0)
(0.00183429 -0.00025622 0)
(0.00220332 -0.000238067 0)
(0.00253797 -0.000213343 0)
(0.00282978 -0.000184506 0)
(0.00307333 -0.000153298 0)
(0.00326533 -0.00012085 0)
(0.00340376 -8.78051e-05 0)
(0.00348724 -5.43905e-05 0)
(0.00351439 -2.04767e-05 0)
(0.00348351 1.42427e-05 0)
(0.00339188 5.0528e-05 0)
(0.00323563 8.91824e-05 0)
(0.00300942 0.000131212 0)
(0.00270603 0.000177835 0)
(0.0023162 0.000230411 0)
(0.00182838 0.000290476 0)
(0.00122854 0.000359564 0)
(0.000499948 0.000439433 0)
(-0.000377043 0.000532005 0)
(-0.00142513 0.00063922 0)
(-0.00266977 0.000762992 0)
(-0.00413938 0.00090524 0)
(-0.00586531 0.00106783 0)
(-0.00788136 0.00125246 0)
(-0.0102234 0.00146059 0)
(-0.0129288 0.00169323 0)
(-0.0160353 0.00195086 0)
(-0.0195799 0.00223319 0)
(-0.0235975 0.00253897 0)
(-0.0281187 0.00286582 0)
(-0.033168 0.00320995 0)
(-0.0387612 0.00356599 0)
(-0.0449028 0.00392685 0)
(-0.0515831 0.00428359 0)
(-0.0587757 0.00462541 0)
(-0.0664349 0.00493968 0)
(-0.0744931 0.00521215 0)
(-0.0828597 0.00542717 0)
(-0.0914197 0.00556811 0)
(-0.100033 0.00561783 0)
(-0.108538 0.0055593 0)
(-0.116747 0.00537625 0)
(-0.124458 0.00505404 0)
(-0.131449 0.00458047 0)
(-0.137493 0.00394662 0)
(-0.14235 0.00314666 0)
(-0.145827 0.00217027 0)
(-0.147613 0.00107915 0)
(-0.147674 -0.000166313 0)
(-0.145757 -0.00151465 0)
(-0.141799 -0.00292731 0)
(-0.135774 -0.00434883 0)
(-0.127736 -0.00571705 0)
(-0.117832 -0.0069607 0)
(-0.106309 -0.00800447 0)
(-0.0935105 -0.00877543 0)
(-0.0798709 -0.00921107 0)
(-0.0658959 -0.00926798 0)
(-0.0521332 -0.00892982 0)
(-0.0391332 -0.00821287 0)
(-0.0274056 -0.00716729 0)
(-0.0173744 -0.00587318 0)
(-0.00934019 -0.00443206 0)
(-0.00345374 -0.00295592 0)
(0.000296774 -0.00155878 0)
(0.00208919 -0.000352214 0)
(0.00226782 0.000537406 0)
(0.00140431 0.000941159 0)
(0.000257488 0.000634149 0)
(1.01671e-05 -5.53725e-05 0)
(0.000175484 -0.000213011 0)
(0.000487617 -0.000346729 0)
(0.00090361 -0.000434458 0)
(0.00137928 -0.000479351 0)
(0.00187805 -0.000489529 0)
(0.00236996 -0.000473578 0)
(0.00283229 -0.000438938 0)
(0.00324857 -0.000391551 0)
(0.00360735 -0.000335909 0)
(0.00390095 -0.00027522 0)
(0.0041243 -0.000211586 0)
(0.00427395 -0.000146193 0)
(0.00434719 -7.94531e-05 0)
(0.00434129 -1.11241e-05 0)
(0.00425296 5.95155e-05 0)
(0.00407757 0.000133836 0)
(0.00380896 0.000213436 0)
(0.00343883 0.000300325 0)
(0.00295643 0.000396894 0)
(0.00234819 0.000505719 0)
(0.00159753 0.000629681 0)
(0.000684288 0.000772075 0)
(-0.000415299 0.00093626 0)
(-0.00172863 0.00112575 0)
(-0.00328698 0.00134418 0)
(-0.00512554 0.0015952 0)
(-0.00728324 0.00188242 0)
(-0.00980245 0.00220918 0)
(-0.0127285 0.00257845 0)
(-0.0161087 0.00299257 0)
(-0.0199918 0.00345294 0)
(-0.0244258 0.00395977 0)
(-0.0294568 0.00451165 0)
(-0.0351264 0.0051052 0)
(-0.0414689 0.00573468 0)
(-0.0485089 0.00639157 0)
(-0.0562571 0.00706428 0)
(-0.0647077 0.00773793 0)
(-0.0738341 0.00839421 0)
(-0.0835864 0.00901147 0)
(-0.0938878 0.00956496 0)
(-0.104633 0.0100273 0)
(-0.115687 0.0103691 0)
(-0.126884 0.01056 0)
(-0.138029 0.0105692 0)
(-0.148902 0.0103674 0)
(-0.159258 0.00992744 0)
(-0.168833 0.00922603 0)
(-0.177352 0.00824529 0)
(-0.184536 0.00697424 0)
(-0.190102 0.00540979 0)
(-0.193812 0.00355156 0)
(-0.19539 0.00145625 0)
(-0.194684 -0.00085683 0)
(-0.191512 -0.00334708 0)
(-0.185809 -0.00592677 0)
(-0.177569 -0.00850054 0)
(-0.166884 -0.0109589 0)
(-0.153953 -0.0131786 0)
(-0.139082 -0.0150307 0)
(-0.122689 -0.0163911 0)
(-0.105296 -0.0171532 0)
(-0.087503 -0.0172424 0)
(-0.0699643 -0.0166295 0)
(-0.0533403 -0.0153404 0)
(-0.0382507 -0.0134589 0)
(-0.0252216 -0.0111223 0)
(-0.0146385 -0.00850754 0)
(-0.00671003 -0.0058142 0)
(-0.00144617 -0.00324938 0)
(0.00135048 -0.00102164 0)
(0.0020865 0.000641838 0)
(0.00143488 0.00145821 0)
(0.00027496 0.00105152 0)
(1.70358e-05 -0.000107182 0)
(0.000230201 -0.000349926 0)
(0.00060853 -0.000548749 0)
(0.00110057 -0.000679367 0)
(0.00165618 -0.000745988 0)
(0.00223448 -0.00075986 0)
(0.00280135 -0.000733299 0)
(0.00333035 -0.000677285 0)
(0.00380188 -0.00060076 0)
(0.00420191 -0.00051057 0)
(0.00452061 -0.000411645 0)
(0.00475109 -0.000307225 0)
(0.00488828 -0.000199125 0)
(0.00492785 -8.79455e-05 0)
(0.00486542 2.67355e-05 0)
(0.00469574 0.000146211 0)
(0.00441196 0.000272616 0)
(0.00400522 0.000408655 0)
(0.00346399 0.00055757 0)
(0.00277369 0.00072318 0)
(0.00191616 0.000909896 0)
(0.000869322 0.00112246 0)
(-0.00039296 0.00136598 0)
(-0.00190126 0.00164588 0)
(-0.00369081 0.00196784 0)
(-0.00580144 0.00233765 0)
(-0.00827758 0.00276106 0)
(-0.0111679 0.00324359 0)
(-0.014525 0.00379029 0)
(-0.0184042 0.00440541 0)
(-0.022863 0.00509201 0)
(-0.0279588 0.00585147 0)
(-0.0337474 0.006683 0)
(-0.0402804 0.00758301 0)
(-0.0476021 0.00854451 0)
(-0.0557459 0.00955649 0)
(-0.0647307 0.0106034 0)
(-0.0745565 0.0116647 0)
(-0.0852006 0.0127145 0)
(-0.0966134 0.013722 0)
(-0.108715 0.0146513 0)
(-0.121394 0.015462 0)
(-0.134502 0.0161106 0)
(-0.147859 0.0165514 0)
(-0.161251 0.0167383 0)
(-0.174431 0.016626 0)
(-0.18713 0.0161724 0)
(-0.199056 0.0153407 0)
(-0.209903 0.0141007 0)
(-0.219361 0.0124318 0)
(-0.227121 0.0103246 0)
(-0.232888 0.00778284 0)
(-0.236403 0.00482197 0)
(-0.237414 0.00151167 0)
(-0.235739 -0.00210297 0)
(-0.23124 -0.00594777 0)
(-0.223866 -0.00989654 0)
(-0.21364 -0.0138092 0)
(-0.200686 -0.0175244 0)
(-0.185235 -0.0208633 0)
(-0.167633 -0.0236394 0)
(-0.148343 -0.0256733 0)
(-0.127933 -0.0268101 0)
(-0.107061 -0.0269399 0)
(-0.0864478 -0.0260166 0)
(-0.0668271 -0.0240733 0)
(-0.0488995 -0.0212279 0)
(-0.0332725 -0.017678 0)
(-0.0204064 -0.0136844 0)
(-0.0105685 -0.00954725 0)
(-0.00380239 -0.00558336 0)
(8.77145e-05 -0.00211694 0)
(0.00153939 0.000506663 0)
(0.00128329 0.00187674 0)
(0.000268528 0.00145611 0)
(2.27088e-05 -0.000172999 0)
(0.00027667 -0.000513621 0)
(0.000710074 -0.000782909 0)
(0.00126258 -0.000958531 0)
(0.00187864 -0.00104687 0)
(0.00251413 -0.0010626 0)
(0.00313189 -0.00102193 0)
(0.00370277 -0.00093956 0)
(0.0042047 -0.000827623 0)
(0.00462146 -0.000695505 0)
(0.00494129 -0.000550002 0)
(0.00515552 -0.000395561 0)
(0.00525727 -0.000234662 0)
(0.00524053 -6.80788e-05 0)
(0.00509894 0.000104918 0)
(0.004825 0.000286299 0)
(0.00440938 0.000479165 0)
(0.00384025 0.000687492 0)
(0.00310249 0.000916219 0)
(0.00217735 0.00117099 0)
(0.00104199 0.00145812 0)
(-0.000331038 0.00178455 0)
(-0.00197409 0.00215776 0)
(-0.00392466 0.00258565 0)
(-0.00622555 0.00307639 0)
(-0.00892481 0.00363822 0)
(-0.0120756 0.00427924 0)
(-0.0157356 0.00500707 0)
(-0.0199664 0.00582847 0)
(-0.0248321 0.00674878 0)
(-0.0303981 0.00777141 0)
(-0.0367286 0.00889702 0)
(-0.043884 0.0101228 0)
(-0.0519178 0.0114415 0)
(-0.0608727 0.0128408 0)
(-0.0707764 0.0143022 0)
(-0.0816367 0.0158006 0)
(-0.0934373 0.0173034 0)
(-0.106133 0.0187711 0)
(-0.119646 0.0201567 0)
(-0.133862 0.0214073 0)
(-0.148629 0.0224644 0)
(-0.163759 0.0232664 0)
(-0.179025 0.02375 0)
(-0.194168 0.0238528 0)
(-0.208902 0.0235161 0)
(-0.222915 0.0226869 0)
(-0.235886 0.0213212 0)
(-0.247483 0.0193859 0)
(-0.257382 0.0168617 0)
(-0.265268 0.0137456 0)
(-0.270848 0.0100533 0)
(-0.273871 0.00582028 0)
(-0.274108 0.00112964 0)
(-0.27139 -0.0039423 0)
(-0.265609 -0.00928313 0)
(-0.256737 -0.01473 0)
(-0.244818 -0.0200973 0)
(-0.229997 -0.025172 0)
(-0.212522 -0.0297194 0)
(-0.192754 -0.0334953 0)
(-0.171171 -0.0362634 0)
(-0.148362 -0.0378178 0)
(-0.125013 -0.038009 0)
(-0.101881 -0.0367693 0)
(-0.0797511 -0.0341337 0)
(-0.0593861 -0.0302506 0)
(-0.041463 -0.0253778 0)
(-0.0265119 -0.0198634 0)
(-0.0148616 -0.0141157 0)
(-0.0065993 -0.00857375 0)
(-0.00154847 -0.00369027 0)
(0.000735061 5.67965e-05 0)
(0.00100736 0.00212069 0)
(0.000247679 0.00180305 0)
(2.71486e-05 -0.000250245 0)
(0.000313929 -0.000699252 0)
(0.00079075 -0.00104258 0)
(0.00138856 -0.00126351 0)
(0.00204679 -0.00137201 0)
(0.00271871 -0.00138668 0)
(0.00336499 -0.00132777 0)
(0.0039545 -0.0012138 0)
(0.00446334 -0.00106018 0)
(0.0048735 -0.000878915 0)
(0.00517149 -0.000678703 0)
(0.00534692 -0.000465223 0)
(0.00539127 -0.000241643 0)
(0.00529646 -8.76391e-06 0)
(0.00505402 0.000234522 0)
(0.00465409 0.000491003 0)
(0.00408449 0.000765027 0)
(0.0033301 0.00106215 0)
(0.00237216 0.00138906 0)
(0.00118767 0.00175351 0)
(-0.000251158 0.0021642 0)
(-0.00197728 0.0026306 0)
(-0.00402921 0.00316289 0)
(-0.00645123 0.00377173 0)
(-0.00929348 0.00446806 0)
(-0.0126118 0.00526284 0)
(-0.0164674 0.00616665 0)
(-0.0209261 0.00718922 0)
(-0.0260572 0.00833884 0)
(-0.0319321 0.00962163 0)
(-0.038622 0.0110406 0)
(-0.046195 0.0125949 0)
(-0.0547132 0.0142781 0)
(-0.0642282 0.016078 0)
(-0.0747768 0.0179744 0)
(-0.0863761 0.0199392 0)
(-0.099018 0.0219346 0)
(-0.112664 0.0239136 0)
(-0.127243 0.0258195 0)
(-0.142642 0.0275871 0)
(-0.158712 0.0291437 0)
(-0.175261 0.0304113 0)
(-0.192057 0.0313091 0)
(-0.208836 0.0317567 0)
(-0.225299 0.031677 0)
(-0.241128 0.0309999 0)
(-0.255988 0.0296651 0)
(-0.269541 0.0276256 0)
(-0.281449 0.0248499 0)
(-0.291391 0.0213252 0)
(-0.299064 0.0170594 0)
(-0.304195 0.0120836 0)
(-0.306555 0.00645521 0)
(-0.305945 0.000273637 0)
(-0.302221 -0.00635234 0)
(-0.295302 -0.0132741 0)
(-0.285175 -0.0202936 0)
(-0.2719 -0.0271823 0)
(-0.255626 -0.0336781 0)
(-0.236598 -0.0394929 0)
(-0.215172 -0.0443257 0)
(-0.191819 -0.0478827 0)
(-0.167124 -0.0499041 0)
(-0.14178 -0.0501958 0)
(-0.116562 -0.0486618 0)
(-0.0922925 -0.0453321 0)
(-0.0697848 -0.0403795 0)
(-0.0497807 -0.0341184 0)
(-0.0328801 -0.0269846 0)
(-0.0194779 -0.0195003 0)
(-0.00971462 -0.0122351 0)
(-0.00344743 -0.00578145 0)
(-0.000244272 -0.000759997 0)
(0.000651057 0.00213974 0)
(0.000219205 0.0020657 0)
(3.04527e-05 -0.000336319 0)
(0.000341895 -0.000901764 0)
(0.000850273 -0.00132111 0)
(0.00147853 -0.0015862 0)
(0.00216148 -0.00171205 0)
(0.00285027 -0.00172176 0)
(0.00350402 -0.00163987 0)
(0.00409026 -0.00148875 0)
(0.00458374 -0.00128711 0)
(0.00496511 -0.00104957 0)
(0.00521936 -0.000786673 0)
(0.00533457 -0.000505408 0)
(0.00530033 -0.000209381 0)
(0.00510665 0.000100585 0)
(0.00474279 0.000426137 0)
(0.00419622 0.000771101 0)
(0.00345187 0.00114118 0)
(0.0024912 0.0015437 0)
(0.00129156 0.00198749 0)
(-0.000174477 0.00248268 0)
(-0.00193965 0.00304061 0)
(-0.00404246 0.00367359 0)
(-0.0065275 0.00439475 0)
(-0.00944563 0.0052178 0)
(-0.012854 0.00615668 0)
(-0.0168156 0.00722518 0)
(-0.021399 0.00843638 0)
(-0.026677 0.00980198 0)
(-0.0327254 0.0113315 0)
(-0.0396209 0.0130311 0)
(-0.0474381 0.0149028 0)
(-0.0562466 0.0169425 0)
(-0.0661065 0.0191392 0)
(-0.0770639 0.0214732 0)
(-0.0891454 0.0239145 0)
(-0.102353 0.0264224 0)
(-0.116657 0.0289442 0)
(-0.131994 0.0314151 0)
(-0.148261 0.0337591 0)
(-0.165311 0.0358903 0)
(-0.182955 0.0377151 0)
(-0.200964 0.0391352 0)
(-0.219068 0.0400517 0)
(-0.236968 0.0403683 0)
(-0.25434 0.0399964 0)
(-0.270845 0.0388583 0)
(-0.286139 0.036891 0)
(-0.299883 0.0340495 0)
(-0.311751 0.0303091 0)
(-0.321438 0.0256674 0)
(-0.32867 0.020147 0)
(-0.333205 0.0137972 0)
(-0.334843 0.00669678 0)
(-0.33342 -0.00103647 0)
(-0.328816 -0.00926416 0)
(-0.320971 -0.0178057 0)
(-0.309881 -0.0264313 0)
(-0.295607 -0.0348738 0)
(-0.278285 -0.0428267 0)
(-0.258144 -0.0499516 0)
(-0.235513 -0.0558924 0)
(-0.210838 -0.0602971 0)
(-0.184683 -0.0628486 0)
(-0.15773 -0.0633017 0)
(-0.130762 -0.0615238 0)
(-0.104627 -0.0575308 0)
(-0.0801858 -0.0515115 0)
(-0.0582444 -0.0438314 0)
(-0.039476 -0.0350125 0)
(-0.0243485 -0.0256939 0)
(-0.0130656 -0.0165835 0)
(-0.00553105 -0.00842244 0)
(-0.00133924 -0.00198188 0)
(0.000246105 0.00189976 0)
(0.000187765 0.00222817 0)
(3.27661e-05 -0.000428725 0)
(0.000360934 -0.00111608 0)
(0.00088907 -0.00161187 0)
(0.00153318 -0.00191868 0)
(0.00222404 -0.00205796 0)
(0.00291106 -0.00205799 0)
(0.00355231 -0.00194779 0)
(0.0041145 -0.00175367 0)
(0.00457151 -0.0014976 0)
(0.00490295 -0.00119671 0)
(0.00509261 -0.000863395 0)
(0.00512705 -0.00050568 0)
(0.00499415 -0.000127649 0)
(0.00468189 0.00027005 0)
(0.00417715 0.000689774 0)
(0.00346475 0.00113651 0)
(0.00252647 0.00161759 0)
(0.00134027 0.00214233 0)
(-0.000120514 0.00272192 0)
(-0.00188779 0.00336914 0)
(-0.00399928 0.00409821 0)
(-0.00649895 0.00492455 0)
(-0.00943728 0.00586449 0)
(-0.0128714 0.00693497 0)
(-0.016865 0.00815305 0)
(-0.0214877 0.00953535 0)
(-0.0268143 0.0110974 0)
(-0.0329236 0.0128525 0)
(-0.039896 0.0148108 0)
(-0.0478116 0.016978 0)
(-0.0567462 0.0193535 0)
(-0.0667675 0.021929 0)
(-0.0779306 0.0246866 0)
(-0.0902719 0.0275972 0)
(-0.103804 0.0306185 0)
(-0.118509 0.0336945 0)
(-0.134333 0.0367548 0)
(-0.151183 0.0397146 0)
(-0.168921 0.0424764 0)
(-0.187366 0.0449326 0)
(-0.206292 0.046968 0)
(-0.225433 0.0484652 0)
(-0.244491 0.0493086 0)
(-0.263141 0.0493898 0)
(-0.281042 0.0486124 0)
(-0.297851 0.0468963 0)
(-0.313228 0.044181 0)
(-0.326848 0.0404285 0)
(-0.338411 0.0356252 0)
(-0.347643 0.0297833 0)
(-0.354305 0.0229418 0)
(-0.358192 0.0151688 0)
(-0.35914 0.00656324 0)
(-0.357012 -0.00273959 0)
(-0.351716 -0.0125765 0)
(-0.343199 -0.0227408 0)
(-0.331458 -0.032976 0)
(-0.31654 -0.0429818 0)
(-0.298558 -0.0524126 0)
(-0.277705 -0.0608839 0)
(-0.254272 -0.0679858 0)
(-0.228661 -0.0733071 0)
(-0.201402 -0.0764689 0)
(-0.173156 -0.0771677 0)
(-0.144701 -0.0752241 0)
(-0.116906 -0.0706288 0)
(-0.0906777 -0.063576 0)
(-0.0668882 -0.0544747 0)
(-0.0462908 -0.0439303 0)
(-0.0294356 -0.0327007 0)
(-0.0166005 -0.0216381 0)
(-0.00774748 -0.011641 0)
(-0.00250963 -0.00363841 0)
(-0.000185816 0.00137837 0)
(0.000156199 0.00228132 0)
(3.42377e-05 -0.000525142 0)
(0.000371605 -0.00133724 0)
(0.000907947 -0.00190829 0)
(0.00155363 -0.0022532 0)
(0.0022361 -0.00240105 0)
(0.00290343 -0.00238592 0)
(0.00351311 -0.00224161 0)
(0.00403145 -0.00199836 0)
(0.00443188 -0.00168134 0)
(0.00469329 -0.0013101 0)
(0.0047985 -0.000898717 0)
(0.00473271 -0.000456151 0)
(0.00448214 1.32336e-05 0)
(0.00403274 0.00050912 0)
(0.00336901 0.00103474 0)
(0.00247297 0.00159648 0)
(0.00132324 0.00220345 0)
(-0.000105845 0.00286722 0)
(-0.00184499 0.00360155 0)
(-0.00393061 0.0044221 0)
(-0.00640531 0.00534622 0)
(-0.0093184 0.00639262 0)
(-0.012726 0.00758102 0)
(-0.0166912 0.00893169 0)
(-0.0212834 0.0104648 0)
(-0.0265782 0.0121999 0)
(-0.0326557 0.0141544 0)
(-0.0395989 0.0163429 0)
(-0.0474916 0.0187755 0)
(-0.0564146 0.0214562 0)
(-0.0664425 0.0243808 0)
(-0.0776384 0.0275347 0)
(-0.0900483 0.0308913 0)
(-0.103696 0.0344095 0)
(-0.118575 0.0380324 0)
(-0.134645 0.0416862 0)
(-0.151824 0.0452803 0)
(-0.169988 0.0487079 0)
(-0.188964 0.0518491 0)
(-0.208536 0.0545736 0)
(-0.228444 0.0567462 0)
(-0.248396 0.058232 0)
(-0.268067 0.0589023 0)
(-0.287121 0.0586407 0)
(-0.305214 0.0573483 0)
(-0.322008 0.0549478 0)
(-0.337182 0.0513865 0)
(-0.35044 0.0466383 0)
(-0.361515 0.0407042 0)
(-0.370174 0.0336129 0)
(-0.376218 0.025421 0)
(-0.379481 0.0162137 0)
(-0.379831 0.00610746 0)
(-0.37716 -0.0047478 0)
(-0.371389 -0.0161702 0)
(-0.36247 -0.0279337 0)
(-0.350387 -0.0397609 0)
(-0.335164 -0.0513251 0)
(-0.316879 -0.0622469 0)
(-0.295677 -0.0720995 0)
(-0.271798 -0.0804214 0)
(-0.24559 -0.0867407 0)
(-0.217537 -0.0906116 0)
(-0.188264 -0.0916639 0)
(-0.158539 -0.0896598 0)
(-0.129245 -0.0845515 0)
(-0.101334 -0.0765262 0)
(-0.0757492 -0.0660266 0)
(-0.053331 -0.0537368 0)
(-0.0347233 -0.0405342 0)
(-0.0202906 -0.0274217 0)
(-0.0100655 -0.0154634 0)
(-0.00373048 -0.00575339 0)
(-0.00063115 0.000560341 0)
(0.000125886 0.00222127 0)
(3.5e-05 -0.000623435 0)
(0.000374516 -0.0015605 0)
(0.000907869 -0.00220399 0)
(0.00154118 -0.00258223 0)
(0.00219941 -0.00273291 0)
(0.00282976 -0.00269651 0)
(0.00338955 -0.00251181 0)
(0.00384511 -0.00221306 0)
(0.00416977 -0.00182851 0)
(0.00434203 -0.00138 0)
(0.00434394 -0.000883082 0)
(0.00415953 -0.000347475 0)
(0.00377342 0.000222367 0)
(0.00316956 0.00082665 0)
(0.00233005 0.00146969 0)
(0.00123412 0.00215943 0)
(-0.000142859 0.00290703 0)
(-0.00183017 0.00372648 0)
(-0.00386257 0.00463433 0)
(-0.00628088 0.00564933 0)
(-0.00913252 0.00679214 0)
(-0.0124719 0.00808493 0)
(-0.0163604 0.00955091 0)
(-0.0208664 0.0112137 0)
(-0.0260648 0.0130966 0)
(-0.0320358 0.0152215 0)
(-0.0388636 0.0176078 0)
(-0.0466341 0.0202704 0)
(-0.0554322 0.0232187 0)
(-0.0653377 0.0264535 0)
(-0.0764209 0.0299653 0)
(-0.088737 0.0337318 0)
(-0.10232 0.0377151 0)
(-0.117177 0.04186 0)
(-0.133281 0.0460923 0)
(-0.150564 0.0503183 0)
(-0.168916 0.054425 0)
(-0.188178 0.0582828 0)
(-0.208147 0.0617485 0)
(-0.228572 0.0646705 0)
(-0.249167 0.0668951 0)
(-0.269617 0.0682733 0)
(-0.289586 0.0686679 0)
(-0.308733 0.0679595 0)
(-0.326725 0.0660522 0)
(-0.343242 0.0628771 0)
(-0.357993 0.058394 0)
(-0.370718 0.0525924 0)
(-0.381194 0.0454902 0)
(-0.389229 0.0371335 0)
(-0.394668 0.0275949 0)
(-0.39738 0.0169749 0)
(-0.397262 0.00540314 0)
(-0.394228 -0.00696014 0)
(-0.388207 -0.0199211 0)
(-0.379146 -0.0332412 0)
(-0.367011 -0.0466286 0)
(-0.351795 -0.0597367 0)
(-0.333528 -0.0721582 0)
(-0.312305 -0.0834283 0)
(-0.2883 -0.0930355 0)
(-0.2618 -0.100446 0)
(-0.23323 -0.105142 0)
(-0.20317 -0.106678 0)
(-0.172368 -0.104745 0)
(-0.141715 -0.0992403 0)
(-0.112207 -0.0903301 0)
(-0.0848583 -0.0784785 0)
(-0.0606092 -0.0644414 0)
(-0.0402094 -0.0492159 0)
(-0.0241238 -0.033961 0)
(-0.0124693 -0.0199156 0)
(-0.00498875 -0.0083475 0)
(-0.00108251 -0.000565442 0)
(9.76204e-05 0.00204667 0)
(3.51631e-05 -0.000721654 0)
(0.00037025 -0.00178132 0)
(0.000889821 -0.00249276 0)
(0.00149719 -0.00289843 0)
(0.00211574 -0.00304537 0)
(0.00269234 -0.002981 0)
(0.00318458 -0.00274928 0)
(0.00355921 -0.00238847 0)
(0.00378979 -0.00192979 0)
(0.00385473 -0.00139717 0)
(0.00373552 -0.000807443 0)
(0.00341517 -0.000170861 0)
(0.00287682 0.00050825 0)
(0.00210246 0.00123084 0)
(0.00107183 0.0020025 0)
(-0.000238672 0.00283297 0)
(-0.00185686 0.00373563 0)
(-0.00381564 0.00472711 0)
(-0.00615372 0.00582693 0)
(-0.00891623 0.00705711 0)
(-0.0121552 0.00844175 0)
(-0.0159298 0.0100066 0)
(-0.0203063 0.0117783 0)
(-0.0253578 0.013784 0)
(-0.0311636 0.0160496 0)
(-0.0378076 0.0185993 0)
(-0.0453769 0.0214536 0)
(-0.0539585 0.0246273 0)
(-0.0636364 0.0281274 0)
(-0.0744868 0.0319506 0)
(-0.0865731 0.0360803 0)
(-0.0999399 0.0404842 0)
(-0.114606 0.0451111 0)
(-0.130559 0.0498893 0)
(-0.147747 0.054725 0)
(-0.166075 0.0595026 0)
(-0.185402 0.0640859 0)
(-0.205538 0.0683213 0)
(-0.226248 0.0720435 0)
(-0.247254 0.0750812 0)
(-0.26825 0.0772655 0)
(-0.288906 0.0784376 0)
(-0.308886 0.0784567 0)
(-0.327856 0.0772063 0)
(-0.345502 0.0745988 0)
(-0.361535 0.0705786 0)
(-0.375701 0.065122 0)
(-0.387784 0.0582364 0)
(-0.397603 0.0499578 0)
(-0.405013 0.0403487 0)
(-0.409897 0.0294958 0)
(-0.412157 0.0175106 0)
(-0.411715 0.00453211 0)
(-0.408498 -0.00927466 0)
(-0.402439 -0.0237103 0)
(-0.393475 -0.0385309 0)
(-0.381546 -0.0534367 0)
(-0.366609 -0.0680672 0)
(-0.348648 -0.0819936 0)
(-0.327695 -0.0947173 0)
(-0.303855 -0.105679 0)
(-0.277345 -0.114284 0)
(-0.248519 -0.119937 0)
(-0.217904 -0.122106 0)
(-0.186214 -0.120399 0)
(-0.154341 -0.114642 0)
(-0.123316 -0.104961 0)
(-0.0942339 -0.0918279 0)
(-0.0681381 -0.0760597 0)
(-0.0458992 -0.0587721 0)
(-0.0280992 -0.0412857 0)
(-0.0149544 -0.0250243 0)
(-0.00628002 -0.0114401 0)
(-0.00153729 -0.00200767 0)
(7.16537e-05 0.00175706 0)
(3.48144e-05 -0.000818008 0)
(0.000359325 -0.00199539 0)
(0.000854732 -0.00276861 0)
(0.00142295 -0.00319465 0)
(0.00198678 -0.00333051 0)
(0.00249335 -0.00323093 0)
(0.00290098 -0.00294524 0)
(0.00317722 -0.00251566 0)
(0.00329624 -0.00197626 0)
(0.00323661 -0.00135285 0)
(0.00297946 -0.000663276 0)
(0.00250696 8.19084e-05 0)
(0.00180087 0.000878755 0)
(0.000841317 0.00172918 0)
(-0.000394307 0.00264029 0)
(-0.00193235 0.00362381 0)
(-0.00380379 0.00469554 0)
(-0.00604505 0.00587495 0)
(-0.00869871 0.00718467 0)
(-0.011814 0.00865011 0)
(-0.0154472 0.010299 0)
(-0.019662 0.0121605 0)
(-0.0245288 0.014265 0)
(-0.030125 0.0166424 0)
(-0.0365331 0.0193216 0)
(-0.0438397 0.0223283 0)
(-0.0521331 0.0256833 0)
(-0.0614999 0.0294002 0)
(-0.0720208 0.0334829 0)
(-0.0837663 0.0379218 0)
(-0.0967903 0.0426918 0)
(-0.111124 0.0477481 0)
(-0.126768 0.0530243 0)
(-0.143687 0.0584298 0)
(-0.161805 0.0638496 0)
(-0.180998 0.0691446 0)
(-0.201093 0.0741547 0)
(-0.221871 0.0787031 0)
(-0.243071 0.0826036 0)
(-0.264395 0.0856685 0)
(-0.285521 0.0877175 0)
(-0.306117 0.0885873 0)
(-0.325854 0.0881388 0)
(-0.344418 0.0862638 0)
(-0.361522 0.0828883 0)
(-0.376915 0.0779738 0)
(-0.390385 0.0715159 0)
(-0.401761 0.0635413 0)
(-0.410908 0.0541035 0)
(-0.417721 0.0432795 0)
(-0.42212 0.0311668 0)
(-0.424035 0.0178837 0)
(-0.423405 0.00357405 0)
(-0.420168 -0.0115975 0)
(-0.414256 -0.0274321 0)
(-0.40559 -0.0436873 0)
(-0.394088 -0.0600611 0)
(-0.379668 -0.076186 0)
(-0.362262 -0.0916173 0)
(-0.341838 -0.105828 0)
(-0.318432 -0.118216 0)
(-0.292179 -0.128122 0)
(-0.263355 -0.134872 0)
(-0.232421 -0.137842 0)
(-0.200042 -0.136538 0)
(-0.1671 -0.1307 0)
(-0.134656 -0.120391 0)
(-0.103878 -0.106071 0)
(-0.0759249 -0.0886078 0)
(-0.0518007 -0.0692308 0)
(-0.0322227 -0.0494274 0)
(-0.0175237 -0.0308175 0)
(-0.00760588 -0.0150507 0)
(-0.00199625 -0.00377494 0)
(4.77804e-05 0.00135241 0)
(3.40209e-05 -0.000910845 0)
(0.000342177 -0.00219862 0)
(0.000803426 -0.00302573 0)
(0.00131965 -0.00346392 0)
(0.0018141 -0.00358059 0)
(0.00223478 -0.00343809 0)
(0.00254129 -0.0030912 0)
(0.00270237 -0.00258608 0)
(0.00269313 -0.00195946 0)
(0.00249255 -0.00123876 0)
(0.00208167 -0.000442593 0)
(0.00144194 0.000418466 0)
(0.000553858 0.00134111 0)
(-0.000604212 0.00232846 0)
(-0.00205714 0.00338936 0)
(-0.00383394 0.00453774 0)
(-0.00596868 0.00579202 0)
(-0.00850117 0.00717461 0)
(-0.0114776 0.00871144 0)
(-0.0149512 0.0104314 0)
(-0.0189821 0.0123658 0)
(-0.0236378 0.0145474 0)
(-0.0289926 0.0170099 0)
(-0.0351269 0.0197861 0)
(-0.0421258 0.022907 0)
(-0.0500772 0.0263994 0)
(-0.059069 0.0302837 0)
(-0.0691852 0.0345712 0)
(-0.0805018 0.0392606 0)
(-0.0930807 0.0443353 0)
(-0.106964 0.0497588 0)
(-0.122166 0.0554726 0)
(-0.138669 0.0613924 0)
(-0.156413 0.0674072 0)
(-0.175295 0.0733791 0)
(-0.195162 0.0791449 0)
(-0.215813 0.0845207 0)
(-0.237003 0.0893079 0)
(-0.25845 0.0933021 0)
(-0.27984 0.0963027 0)
(-0.300848 0.0981231 0)
(-0.321148 0.0986005 0)
(-0.340426 0.0976033 0)
(-0.358395 0.0950366 0)
(-0.374805 0.0908441 0)
(-0.389444 0.0850074 0)
(-0.402147 0.0775428 0)
(-0.412786 0.068496 0)
(-0.421268 0.0579368 0)
(-0.427528 0.0459542 0)
(-0.431515 0.0326527 0)
(-0.433182 0.0181527 0)
(-0.432482 0.00259915 0)
(-0.42936 -0.0138488 0)
(-0.423742 -0.0309986 0)
(-0.415541 -0.0486141 0)
(-0.404645 -0.0663978 0)
(-0.390938 -0.0839811 0)
(-0.374301 -0.10091 0)
(-0.354641 -0.116635 0)
(-0.331916 -0.130514 0)
(-0.306179 -0.141829 0)
(-0.277618 -0.149825 0)
(-0.246611 -0.153774 0)
(-0.213764 -0.153071 0)
(-0.179929 -0.147347 0)
(-0.146187 -0.136581 0)
(-0.113775 -0.121198 0)
(-0.0839683 -0.102098 0)
(-0.0579207 -0.0806192 0)
(-0.0365031 -0.0584183 0)
(-0.020185 -0.0373241 0)
(-0.00897179 -0.0191998 0)
(-0.0024624 -0.0058769 0)
(2.56236e-05 0.0008321 0)
(3.28318e-05 -0.000998624 0)
(0.000319159 -0.00238707 0)
(0.000736596 -0.00325849 0)
(0.00118832 -0.00369946 0)
(0.00159906 -0.00378808 0)
(0.00191842 -0.00359451 0)
(0.0021078 -0.00317901 0)
(0.00213759 -0.00259155 0)
(0.00198414 -0.00187132 0)
(0.00162715 -0.00104709 0)
(0.00104775 -0.000137939 0)
(0.000226835 0.000845847 0)
(-0.000856202 0.00190186 0)
(-0.00222468 0.00303471 0)
(-0.0039056 0.00425519 0)
(-0.00593058 0.00557961 0)
(-0.00833658 0.0070292 0)
(-0.0111667 0.00862947 0)
(-0.0144704 0.0104097 0)
(-0.0183046 0.0124024 0)
(-0.0227329 0.0146423 0)
(-0.0278262 0.0171658 0)
(-0.0336616 0.0200096 0)
(-0.040322 0.0232091 0)
(-0.0478936 0.0267968 0)
(-0.0564644 0.0307999 0)
(-0.0661203 0.0352374 0)
(-0.0769411 0.0401167 0)
(-0.0889955 0.0454307 0)
(-0.102335 0.0511528 0)
(-0.116987 0.0572344 0)
(-0.132949 0.0636003 0)
(-0.15018 0.0701471 0)
(-0.168597 0.0767418 0)
(-0.188068 0.0832224 0)
(-0.208414 0.0894018 0)
(-0.229409 0.0950733 0)
(-0.250786 0.100019 0)
(-0.272246 0.104019 0)
(-0.293472 0.106864 0)
(-0.314139 0.108368 0)
(-0.333937 0.108372 0)
(-0.352575 0.106759 0)
(-0.3698 0.10345 0)
(-0.3854 0.0984099 0)
(-0.399208 0.0916427 0)
(-0.411102 0.083185 0)
(-0.420995 0.0731007 0)
(-0.428834 0.0614737 0)
(-0.434584 0.0484018 0)
(-0.438222 0.0339932 0)
(-0.439721 0.0183666 0)
(-0.439042 0.00166366 0)
(-0.436138 -0.0159665 0)
(-0.430926 -0.0343413 0)
(-0.423311 -0.0532357 0)
(-0.413162 -0.0723626 0)
(-0.400326 -0.0913586 0)
(-0.38464 -0.109767 0)
(-0.365949 -0.127023 0)
(-0.344138 -0.142451 0)
(-0.319168 -0.155278 0)
(-0.291134 -0.164665 0)
(-0.260318 -0.16978 0)
(-0.227248 -0.169892 0)
(-0.192729 -0.164501 0)
(-0.157842 -0.153479 0)
(-0.123887 -0.137186 0)
(-0.092256 -0.116536 0)
(-0.0642617 -0.0929601 0)
(-0.0409498 -0.0682896 0)
(-0.0229482 -0.044574 0)
(-0.0103849 -0.0239085 0)
(-0.00294036 -0.00832533 0)
(4.66985e-06 0.000194437 0)
(3.12818e-05 -0.00107989 0)
(0.000290544 -0.00255698 0)
(0.000654804 -0.00346142 0)
(0.00102982 -0.00389466 0)
(0.00134285 -0.00394563 0)
(0.00154583 -0.00369245 0)
(0.00160258 -0.00320075 0)
(0.00148555 -0.00252423 0)
(0.0011727 -0.00170421 0)