/*--------------------------------*- C++ -*----------------------------------*\
  =========                 |
  \\      /  F ield         | OpenFOAM: The Open Source CFD Toolbox
   \\    /   O peration     | Website:  https://openfoam.org
    \\  /    A nd           | Version:  12
     \\/     M anipulation  |
\*---------------------------------------------------------------------------*/
FoamFile
{
    format      ascii;
    class       volScalarField;
    location    "0.9";
    object      epsilon;
}
// * * * * * * * * * * * * * * * * * * * * * * * * * * * * * * * * * * * * * //

dimensions      [0 2 -3 0 0 0 0];

internalField   nonuniform List<scalar> 
400
(
7.10543e-12
1.77636e-12
1.77636e-12
1.77636e-12
1.77636e-12
1.77636e-12
1.77636e-12
1.77636e-12
1.77636e-12
1.77636e-12
1.77636e-12
1.77636e-12
1.77636e-12
1.77636e-12
1.77636e-12
1.77636e-12
1.77636e-12
1.77636e-12
1.77636e-12
7.10543e-12
7.10543e-12
1.49477e-12
6.48208e-13
4.4994e-13
3.94803e-13
3.77955e-13
3.72374e-13
3.70373e-13
3.69613e-13
3.69347e-13
3.69347e-13
3.69612e-13
3.70371e-13
3.72372e-13
3.77954e-13
3.94803e-13
4.49939e-13
6.48207e-13
1.49477e-12
7.10543e-12
7.10543e-12
1.47696e-12
5.6006e-13
3.01521e-13
2.07889e-13
1.69686e-13
1.5306e-13
1.45551e-13
1.42162e-13
1.40839e-13
1.40833e-13
1.42145e-13
1.45527e-13
1.53035e-13
1.69665e-13
2.07875e-13
3.01513e-13
5.60057e-13
1.47696e-12
7.10543e-12
7.10543e-12
1.4754e-12
5.50701e-13
2.79578e-13
1.72911e-13
1.24004e-13
9.97344e-14
8.72871e-14
8.10324e-14
7.84016e-14
7.83781e-14
8.09688e-14
8.72008e-14
9.96475e-14
1.23934e-13
1.72867e-13
2.79557e-13
5.50693e-13
1.4754e-12
7.10543e-12
7.10543e-12
1.47521e-12
5.49357e-13
2.75619e-13
1.65284e-13
1.12473e-13
8.47376e-14
6.96147e-14
6.15817e-14
5.80588e-14
5.8004e-14
6.14339e-14
6.94167e-14
8.45415e-14
1.1232e-13
1.65191e-13
2.75577e-13
5.49345e-13
1.4752e-12
7.10543e-12
7.10543e-12
1.47517e-12
5.49108e-13
2.74788e-13
1.63479e-13
1.09453e-13
8.0482e-14
6.42915e-14
5.54798e-14
5.15303e-14
5.14319e-14
5.52152e-14
6.39395e-14
8.01369e-14
1.09188e-13
1.63321e-13
2.74721e-13
5.49092e-13
1.47517e-12
7.10543e-12
7.10543e-12
1.47516e-12
5.49059e-13
2.74621e-13
1.63099e-13
1.0879e-13
7.95118e-14
6.30395e-14
5.40038e-14
4.99088e-14
4.97596e-14
5.36041e-14
6.25101e-14
7.89962e-14
1.08397e-13
1.6287e-13
2.74528e-13
5.49041e-13
1.47517e-12
7.10543e-12
7.10543e-12
1.47516e-12
5.49052e-13
2.74613e-13
1.63095e-13
1.08801e-13
7.95494e-14
6.31041e-14
5.4079e-14
4.99648e-14
4.97659e-14
5.35473e-14
6.24026e-14
7.88709e-14
1.08291e-13
1.62804e-13
2.74502e-13
5.4904e-13
1.47517e-12
7.10543e-12
7.10543e-12
1.47515e-12
5.49049e-13
2.74631e-13
1.63163e-13
1.08951e-13
7.98031e-14
6.34598e-14
5.45068e-14
5.04129e-14
5.01758e-14
5.38744e-14
6.26289e-14
7.90058e-14
1.08361e-13
1.62839e-13
2.74523e-13
5.49054e-13
1.47519e-12
7.10543e-12
7.10543e-12
1.47514e-12
5.49038e-13
2.7463e-13
1.63194e-13
1.09035e-13
7.99549e-14
6.36784e-14
5.47741e-14
5.06985e-14
5.04445e-14
5.40989e-14
6.27963e-14
7.91188e-14
1.08433e-13
1.62885e-13
2.74554e-13
5.49078e-13
1.47521e-12
7.10543e-12
7.10543e-12
1.47513e-12
5.4901e-13
2.74591e-13
1.63143e-13
1.08974e-13
7.9882e-14
6.35951e-14
5.46844e-14
5.06103e-14
5.03655e-14
5.40391e-14
6.27624e-14
7.91121e-14
1.08449e-13
1.62915e-13
2.7459e-13
5.49112e-13
1.47524e-12
7.10543e-12
7.10543e-12
1.47511e-12
5.48965e-13
2.74512e-13
1.63012e-13
1.08768e-13
7.9589e-14
6.32181e-14
5.42496e-14
5.01634e-14
4.99567e-14
5.3713e-14
6.25433e-14
7.89984e-14
1.08418e-13
1.62937e-13
2.74634e-13
5.49159e-13
1.47528e-12
7.10543e-12
7.10543e-12
1.47508e-12
5.48903e-13
2.74408e-13
1.6284e-13
1.08501e-13
7.92079e-14
6.27289e-14
5.36906e-14
4.96003e-14
4.94577e-14
5.33342e-14
6.23082e-14
7.88957e-14
1.08412e-13
1.62986e-13
2.74703e-13
5.49227e-13
1.47534e-12
7.10543e-12
7.10543e-12
1.47504e-12
5.48836e-13
2.74323e-13
1.6274e-13
1.08383e-13
7.90688e-14
6.25737e-14
5.3543e-14
4.94993e-14
4.94355e-14
5.34071e-14
6.24629e-14
7.9095e-14
1.08613e-13
1.63156e-13
2.74835e-13
5.49328e-13
1.47543e-12
7.10543e-12
7.10543e-12
1.47499e-12
5.48802e-13
2.74394e-13
1.63022e-13
1.08961e-13
7.99735e-14
6.37874e-14
5.50131e-14
5.11494e-14
5.11665e-14
5.51017e-14
6.39939e-14
8.0349e-14
1.09524e-13
1.63731e-13
2.75152e-13
5.49498e-13
1.47556e-12
7.10543e-12
7.10543e-12
1.47496e-12
5.48962e-13
2.75132e-13
1.64747e-13
1.11923e-13
8.42008e-14
6.91196e-14
6.11644e-14
5.7764e-14
5.78549e-14
6.14564e-14
6.96164e-14
8.49004e-14
1.128e-13
1.65741e-13
2.76145e-13
5.49889e-13
1.47574e-12
7.10543e-12
7.10543e-12
1.47509e-12
5.50228e-13
2.79024e-13
1.72325e-13
1.23421e-13
9.91937e-14
8.68257e-14
8.06899e-14
7.82168e-14
7.83749e-14
8.1166e-14
8.7595e-14
1.00211e-13
1.24616e-13
1.73604e-13
2.8029e-13
5.51394e-13
1.47613e-12
7.10543e-12
7.10543e-12
1.47661e-12
5.59563e-13
3.00938e-13
2.07255e-13
1.69055e-13
1.52492e-13
1.45101e-13
1.41871e-13
1.40744e-13
1.40973e-13
1.42555e-13
1.46211e-13
1.53966e-13
1.70777e-13
2.09054e-13
3.02622e-13
5.61011e-13
1.4779e-12
7.10543e-12
7.10543e-12
1.49448e-12
6.47762e-13
4.493e-13
3.94075e-13
3.77263e-13
3.718e-13
3.69954e-13
3.69369e-13
3.69307e-13
3.69613e-13
3.70309e-13
3.71556e-13
3.74084e-13
3.80192e-13
3.97457e-13
4.5268e-13
6.50452e-13
1.49617e-12
7.10543e-12
7.10543e-12
1.77636e-12
1.77636e-12
1.77636e-12
1.77636e-12
1.77636e-12
1.77636e-12
1.77636e-12
1.77636e-12
1.77636e-12
1.77636e-12
1.77636e-12
1.77636e-12
1.77636e-12
1.77636e-12
1.77636e-12
1.77636e-12
1.77636e-12
1.77636e-12
7.10543e-12
)
;

boundaryField
{
    movingWall
    {
        type            epsilonWallFunction;
        value           nonuniform List<scalar> 
20
(
7.10543e-12
1.77636e-12
1.77636e-12
1.77636e-12
1.77636e-12
1.77636e-12
1.77636e-12
1.77636e-12
1.77636e-12
1.77636e-12
1.77636e-12
1.77636e-12
1.77636e-12
1.77636e-12
1.77636e-12
1.77636e-12
1.77636e-12
1.77636e-12
1.77636e-12
7.10543e-12
)
;
    }
    fixedWalls
    {
        type            epsilonWallFunction;
        value           nonuniform List<scalar> 
60
(
7.10543e-12
7.10543e-12
7.10543e-12
7.10543e-12
7.10543e-12
7.10543e-12
7.10543e-12
7.10543e-12
7.10543e-12
7.10543e-12
7.10543e-12
7.10543e-12
7.10543e-12
7.10543e-12
7.10543e-12
7.10543e-12
7.10543e-12
7.10543e-12
7.10543e-12
7.10543e-12
7.10543e-12
7.10543e-12
7.10543e-12
7.10543e-12
7.10543e-12
7.10543e-12
7.10543e-12
7.10543e-12
7.10543e-12
7.10543e-12
7.10543e-12
7.10543e-12
7.10543e-12
7.10543e-12
7.10543e-12
7.10543e-12
7.10543e-12
7.10543e-12
7.10543e-12
7.10543e-12
7.10543e-12
1.77636e-12
1.77636e-12
1.77636e-12
1.77636e-12
1.77636e-12
1.77636e-12
1.77636e-12
1.77636e-12
1.77636e-12
1.77636e-12
1.77636e-12
1.77636e-12
1.77636e-12
1.77636e-12
1.77636e-12
1.77636e-12
1.77636e-12
1.77636e-12
7.10543e-12
)
;
    }
    frontAndBack
    {
        type            empty;
    }
}


// ************************************************************************* //
