/*--------------------------------*- C++ -*----------------------------------*\
  =========                 |
  \\      /  F ield         | OpenFOAM: The Open Source CFD Toolbox
   \\    /   O peration     | Website:  https://openfoam.org
    \\  /    A nd           | Version:  12
     \\/     M anipulation  |
\*---------------------------------------------------------------------------*/
FoamFile
{
    format      ascii;
    class       volScalarField;
    location    "0.9";
    object      p;
}
// * * * * * * * * * * * * * * * * * * * * * * * * * * * * * * * * * * * * * //

dimensions      [0 2 -2 0 0 0 0];

internalField   nonuniform List<scalar> 
400
(
-4.66286e-07
0.000376558
0.000550567
0.000298419
-0.000383898
-0.00144404
-0.00281726
-0.00443334
-0.00622021
-0.00810798
-0.010029
-0.0119171
-0.0137046
-0.0153213
-0.0166952
-0.0177556
-0.0184379
-0.0186894
-0.0185145
-0.0181364
-0.000294331
0.000165808
0.000359558
7.56301e-05
-0.000635929
-0.00169841
-0.00304506
-0.00461145
-0.00633291
-0.00814628
-0.00999006
-0.0118036
-0.0135254
-0.0150922
-0.0164391
-0.0175016
-0.0182128
-0.0184959
-0.018301
-0.0178398
0.0013698
0.00176649
0.00181418
0.00131298
0.00036253
-0.000928715
-0.00248167
-0.00423007
-0.00611279
-0.00807385
-0.0100607
-0.0120221
-0.0139052
-0.015654
-0.0172073
-0.0184984
-0.0194482
-0.019948
-0.0198983
-0.0194996
0.00584267
0.00584549
0.0053779
0.00432109
0.00281426
0.000991944
-0.00105177
-0.00324909
-0.0055407
-0.00788543
-0.0102474
-0.012593
-0.0148862
-0.0170835
-0.0191286
-0.0209514
-0.0224574
-0.0235119
-0.0239756
-0.0239687
0.0136831
0.0127667
0.0112011
0.00908187
0.00658998
0.00387694
0.00104705
-0.00183318
-0.00472678
-0.00761944
-0.0105109
-0.0134052
-0.0163019
-0.0191857
-0.022019
-0.0247343
-0.0272261
-0.0293419
-0.0309003
-0.0318084
0.0255514
0.0228906
0.0193477
0.0154454
0.0114083
0.00738573
0.00347986
-0.000264559
-0.00385524
-0.00733877
-0.0107854
-0.0142728
-0.0178706
-0.0216242
-0.0255395
-0.0295696
-0.03361
-0.0375087
-0.0410394
-0.0436845
0.0419903
0.0363017
0.0294579
0.0227625
0.0164731
0.0106947
0.00549555
0.00086168
-0.00330668
-0.00717268
-0.0109366
-0.0148108
-0.0189944
-0.0236485
-0.0288699
-0.0346683
-0.0409707
-0.0476659
-0.0544916
-0.0601539
0.0629963
0.0523309
0.0402571
0.0294073
0.0200349
0.0121139
0.00561598
0.000401305
-0.00380315
-0.00736774
-0.0107183
-0.0142982
-0.0185321
-0.0237871
-0.0303317
-0.0382986
-0.0477068
-0.0585699
-0.0706235
-0.0812496
0.0872094
0.068731
0.0487283
0.0319922
0.0186825
0.00848172
0.00114956
-0.0036951
-0.00662894
-0.00836956
-0.00971265
-0.0114788
-0.0144626
-0.0193787
-0.026798
-0.0370914
-0.0504834
-0.067268
-0.087262
-0.105692
0.110521
0.0802874
0.0487808
0.0241479
0.00627429
-0.00572921
-0.0125161
-0.0148969
-0.0139512
-0.0109487
-0.00726113
-0.00429289
-0.00341714
-0.00590458
-0.0128317
-0.0249987
-0.0430358
-0.0677923
-0.0993367
-0.129535
0.123803
0.0766268
0.0292115
-0.00529011
-0.0276067
-0.039672
-0.0428906
-0.0387973
-0.0292633
-0.0163915
-0.00240241
0.0104442
0.0199177
0.0238998
0.0205066
0.00820289
-0.0143915
-0.0491519
-0.0967252
-0.143941
0.109331
0.0388468
-0.0293293
-0.0748809
-0.0997788
-0.107792
-0.101629
-0.0839963
-0.0579485
-0.0267729
0.0061401
0.0373609
0.0634668
0.0811161
0.0871929
0.0789504
0.0536786
0.00767372
-0.0609068
-0.131639
0.0352327
-0.0655815
-0.158743
-0.214149
-0.236192
-0.231808
-0.205915
-0.163028
-0.107875
-0.0452941
0.019861
0.0827154
0.138333
0.181727
0.208005
0.212494
0.190183
0.134152
0.0401746
-0.061332
-0.153222
-0.290561
-0.409784
-0.468219
-0.475008
-0.442564
-0.379454
-0.292864
-0.189672
-0.0764973
0.0402653
0.154271
0.258942
0.347318
0.412171
0.445901
0.439588
0.380661
0.260105
0.121299
-0.548532
-0.723884
-0.861033
-0.903104
-0.868889
-0.78029
-0.651677
-0.493831
-0.315927
-0.126121
0.0681982
0.259829
0.441161
0.603674
0.73733
0.830307
0.867305
0.825901
0.687175
0.509315
-1.31218
-1.5109
-1.63331
-1.61139
-1.4843
-1.29023
-1.05186
-0.783764
-0.496615
-0.198539
0.104199
0.40594
0.700067
0.977653
1.22665
1.43091
1.56614
1.59243
1.46963
1.2677
-2.73138
-2.89141
-2.90675
-2.71189
-2.38976
-2.00562
-1.5914
-1.16332
-0.729311
-0.292046
0.14834
0.592219
1.03856
1.48301
1.91601
2.31975
2.65927
2.86618
2.85525
2.69338
-5.33453
-5.25661
-4.90856
-4.30771
-3.61165
-2.91183
-2.23962
-1.60023
-0.988311
-0.392893
0.199831
0.804359
1.43406
2.09878
2.80156
3.53313
4.25772
4.88106
5.24224
5.32428
-11.1826
-9.54073
-7.66715
-6.05722
-4.724
-3.6043
-2.65476
-1.83637
-1.10859
-0.431984
0.231224
0.918072
1.66654
2.5156
3.50456
4.66978
6.0497
7.69914
9.60202
11.2636
-29.316
-19.966
-13.208
-9.10227
-6.39378
-4.46386
-3.05231
-1.99195
-1.1516
-0.428673
0.2605
0.995047
1.85884
2.95379
4.41246
6.40296
9.18325
13.3626
20.1807
29.568
)
;

boundaryField
{
    movingWall
    {
        type            zeroGradient;
    }
    fixedWalls
    {
        type            zeroGradient;
    }
    frontAndBack
    {
        type            empty;
    }
}


// ************************************************************************* //
