/*--------------------------------*- C++ -*----------------------------------*\
  =========                 |
  \\      /  F ield         | OpenFOAM: The Open Source CFD Toolbox
   \\    /   O peration     | Website:  https://openfoam.org
    \\  /    A nd           | Version:  12
     \\/     M anipulation  |
\*---------------------------------------------------------------------------*/
FoamFile
{
    format      ascii;
    class       volScalarField;
    location    "0.8";
    object      p;
}
// * * * * * * * * * * * * * * * * * * * * * * * * * * * * * * * * * * * * * //

dimensions      [0 2 -2 0 0 0 0];

internalField   nonuniform List<scalar> 
400
(
-2.81063e-07
-0.205507
-0.293471
-0.17565
0.12818
0.574043
1.11536
1.71514
2.34798
2.99818
3.65616
4.31399
4.96151
5.58186
6.14744
6.6177
6.9416
7.07108
6.9848
6.77466
0.0621509
-0.116696
-0.181195
-0.0580911
0.234302
0.660225
1.1795
1.75864
2.37336
3.00749
3.65005
4.29145
4.92018
5.51888
6.06118
6.51024
6.82175
6.9562
6.89381
6.711
0.140094
-0.0324291
-0.0806809
0.049162
0.333548
0.742829
1.2423
1.80194
2.39879
3.01659
3.64325
4.26794
4.87818
5.45652
5.97804
6.4096
6.71257
6.8537
6.80783
6.63145
0.203298
0.0180021
-0.0257307
0.111739
0.395539
0.797558
1.28592
1.83301
2.41725
3.02274
3.63714
4.24925
4.84643
5.41173
5.92179
6.34601
6.64867
6.79788
6.75671
6.56721
0.232572
0.0281765
-0.0151471
0.133143
0.42366
0.826871
1.31185
1.85265
2.42909
3.02605
3.63161
4.23496
4.82395
5.38268
5.8894
6.31537
6.62576
6.78689
6.74657
6.53759
0.213912
-0.00750283
-0.0479445
0.11725
0.422193
0.834321
1.32262
1.86248
2.43518
3.02684
3.62649
4.22424
4.80908
5.36663
5.87692
6.31278
6.63927
6.81913
6.78266
6.55651
0.13452
-0.096434
-0.126791
0.0643587
0.392637
0.82157
1.31961
1.86344
2.43613
3.02537
3.62171
4.21671
4.80102
5.3622
5.88249
6.33639
6.68846
6.89686
6.87215
6.63673
-0.0188728
-0.246696
-0.255331
-0.0259493
0.336134
0.790204
1.30426
1.85665
2.43261
3.02198
3.61728
4.21201
4.79892
5.36811
5.90456
6.38494
6.77351
7.02352
7.02302
6.7916
-0.261457
-0.466851
-0.437035
-0.153472
0.2546
0.742545
1.27864
1.84362
2.42559
3.01714
3.6132
4.20958
4.80168
5.38271
5.94114
6.45669
6.89426
7.20253
7.24392
7.03661
-0.612124
-0.766311
-0.674895
-0.316963
0.151037
0.681806
1.24542
1.82632
2.41641
3.01155
3.6095
4.20883
4.80802
5.40398
5.9896
6.54908
7.04975
7.43707
7.54452
7.39121
-1.09572
-1.1557
-0.971011
-0.513655
0.0298416
0.612252
1.20805
1.80723
2.4066
3.00591
3.60619
4.20904
4.81636
5.42938
6.04654
6.65847
7.23781
7.72965
7.93586
7.88116
-1.74631
-1.6469
-1.32576
-0.738516
-0.102761
0.539335
1.17064
1.78913
2.3978
3.00101
3.60324
4.20934
4.82484
5.45584
6.10759
6.77961
7.45415
8.08138
8.43046
8.54181
-2.6123
-2.25276
-1.73618
-0.98321
-0.238196
0.469857
1.13794
1.77504
2.39179
2.9976
3.60058
4.20873
4.83129
5.47965
6.16713
6.90513
7.69114
8.49054
9.04205
9.42304
-3.76296
-2.98587
-2.19403
-1.23475
-0.365032
0.412016
1.11524
1.76815
2.39028
2.99639
3.59802
4.20605
4.83325
5.49642
6.21809
7.02491
7.93716
8.94957
9.78398
10.5958
-5.29254
-3.85461
-2.68312
-1.47435
-0.468748
0.375208
1.10807
1.7715
2.39479
2.99789
3.59528
4.20011
4.82813
5.50128
6.25203
7.12567
8.17536
9.44278
10.667
12.1556
-7.32446
-4.85541
-3.17345
-1.67517
-0.531386
0.369722
1.1218
1.78769
2.40644
3.0024
3.592
4.18969
4.81332
5.48903
6.25909
7.19028
8.37984
9.94132
11.6886
14.2263
-10.0932
-5.95887
-3.59882
-1.79306
-0.528699
0.407514
1.16185
1.81895
2.426
3.00996
3.58769
4.1736
4.78614
5.45382
6.22704
7.19449
8.50653
10.3802
12.8197
17.0439
-14.3027
-7.0989
-3.80553
-1.74744
-0.424491
0.504264
1.23466
1.86772
2.45419
3.02053
3.58171
4.15044
4.74333
5.38822
6.13915
7.10119
8.47469
10.608
13.9968
21.3185
-21.4127
-8.14492
-3.5922
-1.45364
-0.188844
0.669466
1.34259
1.93409
2.49055
3.03363
3.57373
4.11983
4.68368
5.28849
5.98422
6.8785
8.1978
10.4211
15.0896
28.5098
-31.2083
-8.75516
-3.13469
-1.05421
0.0897725
0.848252
1.4528
1.99925
2.5253
3.04584
3.56594
4.09001
4.62417
5.18514
5.81414
6.61095
7.81258
9.98776
15.7423
38.3677
)
;

boundaryField
{
    movingWall
    {
        type            zeroGradient;
    }
    fixedWalls
    {
        type            zeroGradient;
    }
    frontAndBack
    {
        type            empty;
    }
}


// ************************************************************************* //
