/*--------------------------------*- C++ -*----------------------------------*\
  =========                 |
  \\      /  F ield         | OpenFOAM: The Open Source CFD Toolbox
   \\    /   O peration     | Website:  https://openfoam.org
    \\  /    A nd           | Version:  12
     \\/     M anipulation  |
\*---------------------------------------------------------------------------*/
FoamFile
{
    format      ascii;
    class       volScalarField;
    location    "9";
    object      epsilon;
}
// * * * * * * * * * * * * * * * * * * * * * * * * * * * * * * * * * * * * * //

dimensions      [0 2 -3 0 0 0 0];

internalField   nonuniform List<scalar> 
18225
(
3.74858e-09
1.87331e-08
4.0997e-08
6.7732e-08
9.76866e-08
1.30122e-07
1.64515e-07
2.00461e-07
2.37629e-07
2.75744e-07
3.14573e-07
3.53921e-07
3.93621e-07
4.33534e-07
4.73549e-07
5.13576e-07
5.53546e-07
5.93409e-07
6.33135e-07
6.72705e-07
7.12118e-07
7.51384e-07
7.90521e-07
8.29557e-07
8.68528e-07
9.07472e-07
9.4643e-07
9.85445e-07
1.02456e-06
1.06382e-06
1.10325e-06
1.1429e-06
1.18279e-06
1.22294e-06
1.26337e-06
1.3041e-06
1.34511e-06
1.38642e-06
1.428e-06
1.46984e-06
1.51191e-06
1.55418e-06
1.59661e-06
1.63914e-06
1.68173e-06
1.72432e-06
1.76683e-06
1.8092e-06
1.85133e-06
1.89315e-06
1.93456e-06
1.97546e-06
2.01573e-06
2.05528e-06
2.09397e-06
2.13169e-06
2.16831e-06
2.20368e-06
2.23767e-06
2.27013e-06
2.30092e-06
2.32988e-06
2.35687e-06
2.38172e-06
2.40427e-06
2.42439e-06
2.4419e-06
2.45667e-06
2.46855e-06
2.47741e-06
2.48307e-06
2.48544e-06
2.48452e-06
2.48014e-06
2.47222e-06
2.46067e-06
2.44546e-06
2.42655e-06
2.40395e-06
2.37765e-06
2.34772e-06
2.31419e-06
2.27717e-06
2.23675e-06
2.19306e-06
2.14626e-06
2.09651e-06
2.04402e-06
1.98899e-06
1.93166e-06
1.87226e-06
1.81105e-06
1.74831e-06
1.68429e-06
1.61927e-06
1.55355e-06
1.48738e-06
1.42105e-06
1.35481e-06
1.28893e-06
1.22365e-06
1.15919e-06
1.09577e-06
1.03359e-06
9.72825e-07
9.13627e-07
8.56137e-07
8.0047e-07
7.46723e-07
6.94969e-07
6.45265e-07
5.97646e-07
5.52131e-07
5.08724e-07
4.67408e-07
4.28154e-07
3.90921e-07
3.55658e-07
3.22302e-07
2.90786e-07
2.61035e-07
2.32973e-07
2.06521e-07
1.81603e-07
1.58144e-07
1.36078e-07
1.1535e-07
9.59186e-08
7.77629e-08
6.08912e-08
4.53533e-08
3.12633e-08
1.88495e-08
8.59459e-09
1.71892e-09
1.87443e-08
1.52998e-08
2.30025e-08
3.44522e-08
4.79769e-08
6.29132e-08
7.88985e-08
9.56912e-08
1.13111e-07
1.31013e-07
1.49281e-07
1.67817e-07
1.8654e-07
2.0538e-07
2.24284e-07
2.43207e-07
2.62116e-07
2.80986e-07
2.99802e-07
3.18554e-07
3.37241e-07
3.55867e-07
3.74439e-07
3.92971e-07
4.11477e-07
4.29977e-07
4.48489e-07
4.67033e-07
4.85628e-07
5.04294e-07
5.23048e-07
5.41906e-07
5.6088e-07
5.79982e-07
5.99218e-07
6.18593e-07
6.38109e-07
6.57761e-07
6.77545e-07
6.97451e-07
7.17466e-07
7.37574e-07
7.57754e-07
7.77984e-07
7.98237e-07
8.18484e-07
8.38691e-07
8.58822e-07
8.78837e-07
8.98696e-07
9.18351e-07
9.37754e-07
9.56854e-07
9.75597e-07
9.93925e-07
1.01178e-06
1.0291e-06
1.04581e-06
1.06186e-06
1.07716e-06
1.09167e-06
1.10529e-06
1.11796e-06
1.1296e-06
1.14014e-06
1.14952e-06
1.15765e-06
1.16447e-06
1.16992e-06
1.17393e-06
1.17642e-06
1.17736e-06
1.17673e-06
1.17447e-06
1.17052e-06
1.16487e-06
1.15749e-06
1.14837e-06
1.13751e-06
1.12492e-06
1.11062e-06
1.09464e-06
1.07702e-06
1.05781e-06
1.03707e-06
1.01488e-06
9.91318e-07
9.66474e-07
9.40448e-07
9.13347e-07
8.85286e-07
8.56384e-07
8.26764e-07
7.96554e-07
7.65883e-07
7.3488e-07
7.03673e-07
6.7239e-07
6.41154e-07
6.10083e-07
5.79291e-07
5.48885e-07
5.18965e-07
4.89622e-07
4.60939e-07
4.3299e-07
4.0584e-07
3.79542e-07
3.54143e-07
3.29678e-07
3.06174e-07
2.83648e-07
2.6211e-07
2.41563e-07
2.21999e-07
2.03406e-07
1.85765e-07
1.69052e-07
1.5324e-07
1.38297e-07
1.24189e-07
1.10882e-07
9.83398e-08
8.65272e-08
7.54117e-08
6.49643e-08
5.5162e-08
4.59901e-08
3.74461e-08
2.95469e-08
2.23406e-08
1.59357e-08
1.05862e-08
7.01711e-09
8.59098e-09
4.11228e-08
2.30864e-08
2.3625e-08
2.92512e-08
3.72989e-08
4.68033e-08
5.73002e-08
6.85198e-08
8.02834e-08
9.24615e-08
1.04954e-07
1.17683e-07
1.30583e-07
1.43601e-07
1.56696e-07
1.69834e-07
1.82989e-07
1.96142e-07
2.09279e-07
2.22394e-07
2.35482e-07
2.48546e-07
2.6159e-07
2.74622e-07
2.8765e-07
3.00688e-07
3.13747e-07
3.26841e-07
3.39981e-07
3.53181e-07
3.66451e-07
3.79803e-07
3.93243e-07
4.0678e-07
4.20417e-07
4.34157e-07
4.47998e-07
4.6194e-07
4.75975e-07
4.90098e-07
5.04297e-07
5.18559e-07
5.3287e-07
5.47212e-07
5.61564e-07
5.75905e-07
5.90209e-07
6.0445e-07
6.18598e-07
6.32621e-07
6.46487e-07
6.60159e-07
6.736e-07
6.8677e-07
6.99627e-07
7.12128e-07
7.24228e-07
7.35881e-07
7.4704e-07
7.57655e-07
7.67677e-07
7.77055e-07
7.85741e-07
7.93683e-07
8.00831e-07
8.07136e-07
8.1255e-07
8.17027e-07
8.20526e-07
8.23003e-07
8.24396e-07
8.24711e-07
8.23919e-07
8.21979e-07
8.18869e-07
8.14571e-07
8.09074e-07
8.02376e-07
7.94479e-07
7.85392e-07
7.75134e-07
7.63727e-07
7.51202e-07
7.37597e-07
7.22957e-07
7.07333e-07
6.90783e-07
6.7337e-07
6.55163e-07
6.36235e-07
6.16665e-07
5.96533e-07
5.75924e-07
5.54924e-07
5.33619e-07
5.12097e-07
4.90445e-07
4.68747e-07
4.47086e-07
4.25543e-07
4.04194e-07
3.83111e-07
3.62362e-07
3.42007e-07
3.22104e-07
3.02702e-07
2.83846e-07
2.65574e-07
2.47916e-07
2.30897e-07
2.14537e-07
1.98849e-07
1.83839e-07
1.69511e-07
1.55861e-07
1.42881e-07
1.3056e-07
1.18882e-07
1.07831e-07
9.73858e-08
8.75254e-08
7.82275e-08
6.94698e-08
6.12313e-08
5.34931e-08
4.62403e-08
3.94637e-08
3.31636e-08
2.73543e-08
2.20745e-08
1.74071e-08
1.3528e-08
1.08466e-08
1.05571e-08
1.88091e-08
6.82369e-08
3.47638e-08
2.94574e-08
3.10687e-08
3.57497e-08
4.21805e-08
4.97486e-08
5.81164e-08
6.70733e-08
7.64754e-08
8.62183e-08
9.62221e-08
1.06424e-07
1.16775e-07
1.27235e-07
1.37772e-07
1.48361e-07
1.58985e-07
1.6963e-07
1.80287e-07
1.90953e-07
2.01626e-07
2.12308e-07
2.23004e-07
2.3372e-07
2.44464e-07
2.55245e-07
2.66071e-07
2.76954e-07
2.879e-07
2.98918e-07
3.10016e-07
3.21199e-07
3.32471e-07
3.43834e-07
3.55289e-07
3.66834e-07
3.78466e-07
3.90179e-07
4.01965e-07
4.13814e-07
4.25714e-07
4.3765e-07
4.49605e-07
4.61562e-07
4.735e-07
4.85397e-07
4.97227e-07
5.08966e-07
5.20584e-07
5.32053e-07
5.43341e-07
5.54416e-07
5.65242e-07
5.75785e-07
5.86007e-07
5.95871e-07
6.05338e-07
6.14368e-07
6.22922e-07
6.30958e-07
6.38437e-07
6.45318e-07
6.51561e-07
6.57128e-07
6.61979e-07
6.66079e-07
6.69391e-07
6.71884e-07
6.73517e-07
6.74252e-07
6.74119e-07
6.73066e-07
6.71074e-07
6.6813e-07
6.64223e-07
6.5935e-07
6.53512e-07
6.46714e-07
6.38967e-07
6.3029e-07
6.20703e-07
6.10234e-07
5.98916e-07
5.86788e-07
5.73891e-07
5.60273e-07
5.45986e-07
5.31086e-07
5.15631e-07
4.99684e-07
4.83309e-07
4.66573e-07
4.49542e-07
4.32285e-07
4.14871e-07
3.97367e-07
3.79838e-07
3.62351e-07
3.44966e-07
3.27744e-07
3.1074e-07
2.94006e-07
2.77591e-07
2.61538e-07
2.45887e-07
2.30672e-07
2.15922e-07
2.01663e-07
1.87914e-07
1.7469e-07
1.62003e-07
1.49859e-07
1.3826e-07
1.27204e-07
1.16687e-07
1.06701e-07
9.72347e-08
8.82762e-08
7.98114e-08
7.18252e-08
6.43025e-08
5.72288e-08
5.05912e-08
4.43798e-08
3.85895e-08
3.32229e-08
2.82938e-08
2.38351e-08
1.99119e-08
1.66496e-08
1.43014e-08
1.3448e-08
1.58247e-08
3.10966e-08
9.9044e-08
4.87526e-08
3.78939e-08
3.61179e-08
3.81871e-08
4.23856e-08
4.79409e-08
5.44365e-08
6.16195e-08
6.93227e-08
7.74278e-08
8.58475e-08
9.45146e-08
1.03377e-07
1.12392e-07
1.21528e-07
1.30759e-07
1.40065e-07
1.49431e-07
1.58847e-07
1.68306e-07
1.77806e-07
1.87346e-07
1.96928e-07
2.06556e-07
2.16236e-07
2.25972e-07
2.35773e-07
2.45644e-07
2.55591e-07
2.65621e-07
2.75738e-07
2.85945e-07
2.96245e-07
3.06638e-07
3.17123e-07
3.27697e-07
3.38354e-07
3.49087e-07
3.59887e-07
3.70744e-07
3.81643e-07
3.92571e-07
4.03509e-07
4.14439e-07
4.25341e-07
4.36192e-07
4.46967e-07
4.57642e-07
4.68188e-07
4.78578e-07
4.88781e-07
4.98767e-07
5.08503e-07
5.17956e-07
5.27093e-07
5.35878e-07
5.44277e-07
5.52254e-07
5.59774e-07
5.66801e-07
5.733e-07
5.79237e-07
5.84576e-07
5.89286e-07
5.93335e-07
5.96692e-07
5.99329e-07
6.01218e-07
6.02305e-07
6.02614e-07
6.02133e-07
6.00827e-07
5.98682e-07
5.95691e-07
5.91847e-07
5.87151e-07
5.81606e-07
5.7522e-07
5.68005e-07
5.59979e-07
5.51164e-07
5.41585e-07
5.31274e-07
5.20266e-07
5.08598e-07
4.96315e-07
4.83462e-07
4.70089e-07
4.56248e-07
4.41995e-07
4.27385e-07
4.12477e-07
3.9733e-07
3.82003e-07
3.66555e-07
3.51044e-07
3.35528e-07
3.20062e-07
3.047e-07
2.89492e-07
2.74487e-07
2.59728e-07
2.45256e-07
2.31109e-07
2.1732e-07
2.03917e-07
1.90927e-07
1.7837e-07
1.66263e-07
1.54618e-07
1.43446e-07
1.32751e-07
1.22535e-07
1.12799e-07
1.03537e-07
9.47448e-08
8.64133e-08
7.85333e-08
7.10945e-08
6.4086e-08
5.74974e-08
5.13196e-08
4.5546e-08
4.01739e-08
3.52068e-08
3.06576e-08
2.65537e-08
2.29464e-08
1.99275e-08
1.76644e-08
1.64912e-08
1.71696e-08
2.20579e-08
4.48915e-08
1.33048e-07
6.4499e-08
4.80391e-08
4.31293e-08
4.29434e-08
4.53163e-08
4.93024e-08
5.4401e-08
6.03133e-08
6.68446e-08
7.38598e-08
8.12604e-08
8.89719e-08
9.69365e-08
1.05109e-07
1.13452e-07
1.21938e-07
1.30545e-07
1.39255e-07
1.48056e-07
1.56939e-07
1.65898e-07
1.74931e-07
1.84038e-07
1.9322e-07
2.02479e-07
2.1182e-07
2.21247e-07
2.30764e-07
2.40375e-07
2.50084e-07
2.59893e-07
2.69804e-07
2.79817e-07
2.89929e-07
3.00138e-07
3.10439e-07
3.20824e-07
3.31285e-07
3.4181e-07
3.52387e-07
3.63001e-07
3.73635e-07
3.84271e-07
3.94889e-07
4.05465e-07
4.15978e-07
4.26402e-07
4.3671e-07
4.46875e-07
4.56868e-07
4.6666e-07
4.7622e-07
4.85516e-07
4.94517e-07
5.0319e-07
5.11502e-07
5.1942e-07
5.26912e-07
5.33945e-07
5.40485e-07
5.46502e-07
5.51963e-07
5.5684e-07
5.61102e-07
5.64721e-07
5.67673e-07
5.69933e-07
5.71476e-07
5.72234e-07
5.72285e-07
5.7157e-07
5.70073e-07
5.67781e-07
5.64689e-07
5.60794e-07
5.56095e-07
5.50599e-07
5.44312e-07
5.37249e-07
5.29426e-07
5.20864e-07
5.1159e-07
5.01632e-07
4.91024e-07
4.79804e-07
4.68012e-07
4.55694e-07
4.42896e-07
4.29669e-07
4.16065e-07
4.02139e-07
3.87945e-07
3.7354e-07
3.5898e-07
3.44322e-07
3.29621e-07
3.14931e-07
3.00303e-07
2.85789e-07
2.71435e-07
2.57287e-07
2.43384e-07
2.29766e-07
2.16465e-07
2.03512e-07
1.90933e-07
1.78751e-07
1.66984e-07
1.55647e-07
1.44751e-07
1.34304e-07
1.2431e-07
1.14771e-07
1.05685e-07
9.70502e-08
8.88598e-08
8.11074e-08
7.37851e-08
6.68847e-08
6.03981e-08
5.43181e-08
4.864e-08
4.33619e-08
3.84874e-08
3.40276e-08
3.0005e-08
2.64598e-08
2.34599e-08
2.11243e-08
1.96646e-08
1.94929e-08
2.1571e-08
2.89572e-08
5.98664e-08
1.69992e-07
8.17611e-08
5.95046e-08
5.15449e-08
4.92876e-08
5.00654e-08
5.2739e-08
5.67177e-08
6.16539e-08
6.73239e-08
7.35738e-08
8.02917e-08
8.73945e-08
9.48176e-08
1.0251e-07
1.10431e-07
1.18549e-07
1.26838e-07
1.35277e-07
1.43851e-07
1.52549e-07
1.61363e-07
1.70287e-07
1.79319e-07
1.88458e-07
1.97704e-07
2.07059e-07
2.16525e-07
2.26104e-07
2.35798e-07
2.45608e-07
2.55535e-07
2.65577e-07
2.75733e-07
2.85999e-07
2.96368e-07
3.06834e-07
3.17387e-07
3.28016e-07
3.38708e-07
3.49447e-07
3.60217e-07
3.70998e-07
3.81771e-07
3.92512e-07
4.03198e-07
4.13805e-07
4.24305e-07
4.34671e-07
4.44875e-07
4.54887e-07
4.64677e-07
4.74216e-07
4.83471e-07
4.92411e-07
5.01005e-07
5.09222e-07
5.17029e-07
5.24396e-07
5.31291e-07
5.37685e-07
5.43547e-07
5.48848e-07
5.53561e-07
5.57659e-07
5.61115e-07
5.63906e-07
5.66012e-07
5.67397e-07
5.68005e-07
5.67929e-07
5.67091e-07
5.65478e-07
5.63081e-07
5.59893e-07
5.55911e-07
5.51134e-07
5.45567e-07
5.39217e-07
5.32097e-07
5.24222e-07
5.15614e-07
5.06296e-07
4.96298e-07
4.85654e-07
4.74399e-07
4.62576e-07
4.50229e-07
4.37406e-07
4.24158e-07
4.10538e-07
3.966e-07
3.82403e-07
3.68003e-07
3.53457e-07
3.38824e-07
3.2416e-07
3.09519e-07
2.94955e-07
2.80519e-07
2.66258e-07
2.52217e-07
2.38437e-07
2.24955e-07
2.11805e-07
1.99016e-07
1.86614e-07
1.74618e-07
1.63047e-07
1.51915e-07
1.4123e-07
1.30999e-07
1.21226e-07
1.11911e-07
1.03053e-07
9.46465e-08
8.66871e-08
7.91673e-08
7.20798e-08
6.54173e-08
5.91734e-08
5.33433e-08
4.79251e-08
4.29212e-08
3.83401e-08
3.41993e-08
3.05301e-08
2.73855e-08
2.48516e-08
2.30706e-08
2.2296e-08
2.30263e-08
2.64423e-08
3.63614e-08
7.57921e-08
2.09748e-07
1.00425e-07
7.21023e-08
6.1084e-08
5.68463e-08
5.61668e-08
5.76921e-08
6.07328e-08
6.48883e-08
6.99039e-08
7.56057e-08
8.18692e-08
8.86004e-08
9.57267e-08
1.03191e-07
1.10947e-07
1.18959e-07
1.27195e-07
1.35634e-07
1.44255e-07
1.53045e-07
1.61991e-07
1.71088e-07
1.80328e-07
1.89709e-07
1.99229e-07
2.08887e-07
2.18683e-07
2.28616e-07
2.38686e-07
2.48893e-07
2.59233e-07
2.69704e-07
2.80301e-07
2.91018e-07
3.01846e-07
3.12775e-07
3.23795e-07
3.34889e-07
3.46044e-07
3.5724e-07
3.6846e-07
3.7968e-07
3.9088e-07
4.02034e-07
4.13117e-07
4.24102e-07
4.34962e-07
4.45667e-07
4.56189e-07
4.66497e-07
4.76562e-07
4.86354e-07
4.9584e-07
5.04992e-07
5.13778e-07
5.22167e-07
5.3013e-07
5.37637e-07
5.44657e-07
5.51163e-07
5.57125e-07
5.62515e-07
5.67308e-07
5.71476e-07
5.74994e-07
5.77838e-07
5.79984e-07
5.81393e-07
5.82009e-07
5.81939e-07
5.81094e-07
5.79462e-07
5.7703e-07
5.73789e-07
5.69734e-07
5.64862e-07
5.59176e-07
5.52681e-07
5.45387e-07
5.37308e-07
5.28465e-07
5.18879e-07
5.08581e-07
4.97603e-07
4.85982e-07
4.73762e-07
4.60989e-07
4.47712e-07
4.33986e-07
4.19867e-07
4.05415e-07
3.90688e-07
3.75751e-07
3.60664e-07
3.4549e-07
3.3029e-07
3.15124e-07
3.00047e-07
2.85116e-07
2.70382e-07
2.55891e-07
2.41688e-07
2.27812e-07
2.14297e-07
2.01175e-07
1.88469e-07
1.76203e-07
1.64392e-07
1.53049e-07
1.42183e-07
1.31799e-07
1.21899e-07
1.12482e-07
1.03545e-07
9.50822e-08
8.70878e-08
7.95537e-08
7.24721e-08
6.5836e-08
5.96393e-08
5.38789e-08
4.85547e-08
4.36724e-08
3.92452e-08
3.52971e-08
3.18673e-08
2.90184e-08
2.6852e-08
2.55363e-08
2.5369e-08
2.69392e-08
3.16632e-08
4.41643e-08
9.24924e-08
2.52271e-07
1.2044e-07
8.57382e-08
7.15965e-08
6.54118e-08
6.3357e-08
6.38438e-08
6.60745e-08
6.95915e-08
7.41061e-08
7.9423e-08
8.54018e-08
9.19378e-08
9.89501e-08
1.06374e-07
1.14159e-07
1.22263e-07
1.3065e-07
1.39294e-07
1.48172e-07
1.57265e-07
1.66561e-07
1.76047e-07
1.85717e-07
1.95563e-07
2.05582e-07
2.1577e-07
2.26125e-07
2.36643e-07
2.47321e-07
2.58157e-07
2.69145e-07
2.80279e-07
2.91552e-07
3.02954e-07
3.14475e-07
3.26102e-07
3.37819e-07
3.49609e-07
3.61454e-07
3.73334e-07
3.85225e-07
3.97104e-07
4.08946e-07
4.20725e-07
4.32412e-07
4.43982e-07
4.55403e-07
4.66648e-07
4.77686e-07
4.88488e-07
4.99023e-07
5.09262e-07
5.19174e-07
5.28729e-07
5.37899e-07
5.46654e-07
5.54964e-07
5.62802e-07
5.70139e-07
5.76946e-07
5.83196e-07
5.88862e-07
5.93917e-07
5.98333e-07
6.02086e-07
6.05149e-07
6.07498e-07
6.09101e-07
6.09873e-07
6.09933e-07
6.09204e-07
6.07656e-07
6.05273e-07
6.02044e-07
5.97957e-07
5.93009e-07
5.87196e-07
5.80521e-07
5.72991e-07
5.64618e-07
5.55419e-07
5.45417e-07
5.34639e-07
5.23119e-07
5.10896e-07
4.98014e-07
4.84521e-07
4.70473e-07
4.55927e-07
4.40944e-07
4.25591e-07
4.09932e-07
3.94039e-07
3.77978e-07
3.61821e-07
3.45635e-07
3.29486e-07
3.1344e-07
2.97557e-07
2.81895e-07
2.66507e-07
2.51441e-07
2.3674e-07
2.22443e-07
2.08583e-07
1.95187e-07
1.82278e-07
1.69872e-07
1.57982e-07
1.46617e-07
1.3578e-07
1.25473e-07
1.15691e-07
1.06432e-07
9.76859e-08
8.94461e-08
8.17034e-08
7.4449e-08
6.76752e-08
6.13758e-08
5.5548e-08
5.01931e-08
4.53188e-08
4.09413e-08
3.70893e-08
3.38093e-08
3.11749e-08
2.9303e-08
2.8387e-08
2.87699e-08
3.11386e-08
3.71555e-08
5.22879e-08
1.09825e-07
2.97566e-07
1.41794e-07
1.00368e-07
8.30007e-08
7.48635e-08
7.14783e-08
7.10014e-08
7.2516e-08
7.55026e-08
7.9636e-08
8.46973e-08
9.053e-08
9.70173e-08
1.04069e-07
1.11612e-07
1.1959e-07
1.27953e-07
1.36663e-07
1.45687e-07
1.54998e-07
1.64575e-07
1.744e-07
1.8446e-07
1.94742e-07
2.05237e-07
2.15939e-07
2.26841e-07
2.37938e-07
2.49225e-07
2.60694e-07
2.72341e-07
2.84156e-07
2.96132e-07
3.08257e-07
3.2052e-07
3.32905e-07
3.45397e-07
3.57977e-07
3.70625e-07
3.83321e-07
3.96039e-07
4.08755e-07
4.21444e-07
4.34078e-07
4.46628e-07
4.59066e-07
4.71363e-07
4.8349e-07
4.95417e-07
5.07113e-07
5.18551e-07
5.29699e-07
5.4053e-07
5.51014e-07
5.61123e-07
5.70828e-07
5.80102e-07
5.88917e-07
5.97246e-07
6.0506e-07
6.12332e-07
6.19035e-07
6.25142e-07
6.30623e-07
6.35451e-07
6.39599e-07
6.43038e-07
6.4574e-07
6.47677e-07
6.48761e-07
6.49056e-07
6.48557e-07
6.47194e-07
6.44948e-07
6.41799e-07
6.37734e-07
6.32742e-07
6.26815e-07
6.19952e-07
6.12156e-07
6.03436e-07
5.93805e-07
5.83286e-07
5.71904e-07
5.59694e-07
5.46696e-07
5.32956e-07
5.18526e-07
5.03466e-07
4.87838e-07
4.71711e-07
4.55157e-07
4.3825e-07
4.21069e-07
4.03691e-07
3.86196e-07
3.6866e-07
3.51161e-07
3.33772e-07
3.16562e-07
2.99598e-07
2.8294e-07
2.66643e-07
2.50759e-07
2.35328e-07
2.2039e-07
2.05975e-07
1.92106e-07
1.78805e-07
1.66082e-07
1.53947e-07
1.42402e-07
1.31448e-07
1.21079e-07
1.11289e-07
1.02069e-07
9.34069e-08
8.52932e-08
7.77168e-08
7.06684e-08
6.4141e-08
5.81311e-08
5.26406e-08
4.76785e-08
4.32638e-08
3.94292e-08
3.62278e-08
3.37426e-08
3.21062e-08
3.15378e-08
3.24264e-08
3.55628e-08
4.2864e-08
6.06716e-08
1.27675e-07
3.45678e-07
1.64498e-07
1.15977e-07
9.52539e-08
8.51314e-08
8.04337e-08
7.90434e-08
7.99128e-08
8.24553e-08
8.6306e-08
9.12202e-08
9.70238e-08
1.03586e-07
1.10807e-07
1.18606e-07
1.26916e-07
1.35683e-07
1.44863e-07
1.54416e-07
1.64313e-07
1.74527e-07
1.85037e-07
1.95824e-07
2.06874e-07
2.18174e-07
2.29715e-07
2.41487e-07
2.5348e-07
2.65688e-07
2.781e-07
2.90706e-07
3.03497e-07
3.16459e-07
3.29578e-07
3.42838e-07
3.56222e-07
3.69711e-07
3.83281e-07
3.96912e-07
4.10576e-07
4.2425e-07
4.37904e-07
4.51511e-07
4.65043e-07
4.78469e-07
4.9176e-07
5.04886e-07
5.17819e-07
5.30528e-07
5.42985e-07
5.55161e-07
5.67028e-07
5.78558e-07
5.89725e-07
6.00501e-07
6.1086e-07
6.20776e-07
6.30221e-07
6.39169e-07
6.47593e-07
6.55466e-07
6.62759e-07
6.69443e-07
6.7549e-07
6.80869e-07
6.85549e-07
6.89498e-07
6.92685e-07
6.95077e-07
6.96607e-07
6.97237e-07
6.97067e-07
6.95982e-07
6.93953e-07
6.90954e-07
6.86965e-07
6.8197e-07
6.75954e-07
6.68913e-07
6.60843e-07
6.5175e-07
6.41644e-07
6.30546e-07
6.18479e-07
6.05479e-07
5.91586e-07
5.76849e-07
5.61325e-07
5.45075e-07
5.28171e-07
5.10687e-07
4.92704e-07
4.74304e-07
4.55577e-07
4.36609e-07
4.17492e-07
3.98314e-07
3.79162e-07
3.60122e-07
3.41273e-07
3.22693e-07
3.04451e-07
2.86613e-07
2.69236e-07
2.52369e-07
2.36058e-07
2.20336e-07
2.05233e-07
1.90769e-07
1.76961e-07
1.63815e-07
1.51337e-07
1.39523e-07
1.28367e-07
1.17862e-07
1.07995e-07
9.87537e-08
9.01237e-08
8.20922e-08
7.46477e-08
6.77815e-08
6.14889e-08
5.57715e-08
5.06388e-08
4.61116e-08
4.22261e-08
3.90412e-08
3.66492e-08
3.51977e-08
3.49323e-08
3.62901e-08
4.01688e-08
4.87483e-08
6.92678e-08
1.45946e-07
3.96675e-07
1.88576e-07
1.32567e-07
1.08337e-07
9.61759e-08
9.01642e-08
8.78926e-08
8.8171e-08
9.03406e-08
9.39929e-08
9.8855e-08
1.04733e-07
1.11483e-07
1.1899e-07
1.27166e-07
1.35935e-07
1.45237e-07
1.55019e-07
1.65238e-07
1.75856e-07
1.86844e-07
1.98175e-07
2.09828e-07
2.21783e-07
2.34025e-07
2.46539e-07
2.59313e-07
2.72335e-07
2.85593e-07
2.99073e-07
3.12763e-07
3.26648e-07
3.40712e-07
3.54937e-07
3.69303e-07
3.83789e-07
3.98372e-07
4.13027e-07
4.27728e-07
4.42447e-07
4.57156e-07
4.71826e-07
4.86425e-07
5.00926e-07
5.15296e-07
5.29508e-07
5.4353e-07
5.57336e-07
5.70895e-07
5.84181e-07
5.97167e-07
6.09827e-07
6.22134e-07
6.34065e-07
6.45594e-07
6.56696e-07
6.67347e-07
6.77519e-07
6.87189e-07
6.96328e-07
7.04909e-07
7.12902e-07
7.20277e-07
7.27002e-07
7.33044e-07
7.38368e-07
7.42937e-07
7.46714e-07
7.49661e-07
7.51738e-07
7.52825e-07
7.53039e-07
7.52315e-07
7.50576e-07
7.47792e-07
7.43934e-07
7.3898e-07
7.32911e-07
7.25713e-07
7.1738e-07
7.07913e-07
6.97318e-07
6.85612e-07
6.72819e-07
6.58972e-07
6.44114e-07
6.28293e-07
6.11572e-07
5.94016e-07
5.75702e-07
5.56711e-07
5.37133e-07
5.17061e-07
4.96592e-07
4.75827e-07
4.54868e-07
4.33815e-07
4.12768e-07
3.91826e-07
3.71081e-07
3.50622e-07
3.30531e-07
3.10884e-07
2.91747e-07
2.7318e-07
2.55234e-07
2.37951e-07
2.21365e-07
2.05501e-07
1.90377e-07
1.76003e-07
1.62382e-07
1.49513e-07
1.37388e-07
1.25997e-07
1.15325e-07
1.05357e-07
9.6076e-08
8.7466e-08
7.95129e-08
7.22054e-08
6.55372e-08
5.95087e-08
5.41291e-08
4.94204e-08
4.54217e-08
4.21967e-08
3.98469e-08
3.8535e-08
3.85329e-08
4.03277e-08
4.49264e-08
5.47784e-08
7.80393e-08
1.64564e-07
4.50639e-07
2.14062e-07
1.5015e-07
1.22246e-07
1.07977e-07
1.00635e-07
9.74998e-08
9.723e-08
9.90868e-08
1.02615e-07
1.07511e-07
1.13559e-07
1.20598e-07
1.28501e-07
1.37168e-07
1.46515e-07
1.56472e-07
1.66979e-07
1.77987e-07
1.89453e-07
2.0134e-07
2.13617e-07
2.26259e-07
2.39241e-07
2.52545e-07
2.66151e-07
2.80044e-07
2.94206e-07
3.08622e-07
3.23276e-07
3.3815e-07
3.53225e-07
3.68482e-07
3.83898e-07
3.99451e-07
4.15114e-07
4.30861e-07
4.46665e-07
4.62496e-07
4.78324e-07
4.94119e-07
5.09849e-07
5.25484e-07
5.40994e-07
5.56348e-07
5.71517e-07
5.86473e-07
6.01188e-07
6.15637e-07
6.29793e-07
6.43633e-07
6.57133e-07
6.70268e-07
6.83018e-07
6.95358e-07
7.07265e-07
7.18717e-07
7.29688e-07
7.40152e-07
7.50083e-07
7.59451e-07
7.68225e-07
7.76374e-07
7.83861e-07
7.90649e-07
7.96699e-07
8.01971e-07
8.06421e-07
8.10005e-07
8.1268e-07
8.14344e-07
8.14981e-07
8.14683e-07
8.13298e-07
8.10786e-07
8.07113e-07
8.02248e-07
7.96167e-07
7.88849e-07
7.80283e-07
7.70464e-07
7.59396e-07
7.47089e-07
7.33567e-07
7.18862e-07
7.03014e-07
6.86076e-07
6.6811e-07
6.49188e-07
6.29389e-07
6.08805e-07
5.87529e-07
5.65667e-07
5.43325e-07
5.20616e-07
4.97652e-07
4.7455e-07
4.51422e-07
4.2838e-07
4.0553e-07
3.82976e-07
3.60813e-07
3.39128e-07
3.18e-07
2.975e-07
2.77689e-07
2.58616e-07
2.40322e-07
2.22839e-07
2.06187e-07
1.9038e-07
1.75424e-07
1.61315e-07
1.48047e-07
1.35607e-07
1.23979e-07
1.13144e-07
1.03083e-07
9.37761e-08
8.52063e-08
7.73593e-08
7.02263e-08
6.38058e-08
5.81065e-08
5.31505e-08
4.8979e-08
4.56606e-08
4.3305e-08
4.20901e-08
4.23142e-08
4.45169e-08
4.98146e-08
6.09325e-08
8.69584e-08
1.83473e-07
5.07665e-07
2.40997e-07
1.68748e-07
1.36986e-07
1.20526e-07
1.11826e-07
1.07835e-07
1.07051e-07
1.08647e-07
1.12119e-07
1.17128e-07
1.23435e-07
1.30861e-07
1.39264e-07
1.4853e-07
1.58567e-07
1.69293e-07
1.80641e-07
1.92554e-07
2.04983e-07
2.17885e-07
2.31223e-07
2.44966e-07
2.59086e-07
2.73558e-07
2.88359e-07
3.03469e-07
3.18867e-07
3.34532e-07
3.50445e-07
3.66582e-07
3.82922e-07
3.99439e-07
4.16108e-07
4.32902e-07
4.49791e-07
4.66746e-07
4.83736e-07
5.00728e-07
5.17692e-07
5.34594e-07
5.51404e-07
5.6809e-07
5.84621e-07
6.00969e-07
6.17107e-07
6.33006e-07
6.48644e-07
6.63994e-07
6.79036e-07
6.93747e-07
7.08107e-07
7.22095e-07
7.3569e-07
7.48872e-07
7.6162e-07
7.7391e-07
7.8572e-07
7.97022e-07
8.07791e-07
8.17994e-07
8.27599e-07
8.36571e-07
8.4487e-07
8.52457e-07
8.59286e-07
8.65312e-07
8.70486e-07
8.74757e-07
8.78074e-07
8.80378e-07
8.81511e-07
8.81659e-07
8.80682e-07
8.78496e-07
8.75059e-07
8.70336e-07
8.64294e-07
8.56908e-07
8.48159e-07
8.38037e-07
8.26541e-07
8.13677e-07
7.99465e-07
7.83934e-07
7.67125e-07
7.49089e-07
7.29888e-07
7.09599e-07
6.88304e-07
6.66099e-07
6.43088e-07
6.1938e-07
5.95095e-07
5.70356e-07
5.45287e-07
5.20017e-07
4.94675e-07
4.69385e-07
4.44271e-07
4.19449e-07
3.9503e-07
3.71115e-07
3.47798e-07
3.25162e-07
3.03279e-07
2.82208e-07
2.62001e-07
2.42694e-07
2.24316e-07
2.06884e-07
1.90405e-07
1.7488e-07
1.60301e-07
1.46654e-07
1.33922e-07
1.22083e-07
1.11115e-07
1.00994e-07
9.17009e-08
8.32171e-08
7.55311e-08
6.8639e-08
6.25478e-08
5.72796e-08
5.2877e-08
4.94127e-08
4.70048e-08
4.58458e-08
4.62607e-08
4.88429e-08
5.48196e-08
6.71963e-08
9.60064e-08
2.02633e-07
5.67851e-07
2.69425e-07
1.88383e-07
1.52568e-07
1.33825e-07
1.2373e-07
1.18882e-07
1.17611e-07
1.18993e-07
1.22471e-07
1.27669e-07
1.3432e-07
1.42226e-07
1.51228e-07
1.61199e-07
1.72032e-07
1.83637e-07
1.95936e-07
2.08865e-07
2.22366e-07
2.36389e-07
2.50893e-07
2.65838e-07
2.81193e-07
2.96927e-07
3.13012e-07
3.29423e-07
3.46135e-07
3.63122e-07
3.80359e-07
3.97819e-07
4.15475e-07
4.33299e-07
4.51259e-07
4.69326e-07
4.87465e-07
5.05646e-07
5.23832e-07
5.41992e-07
5.60091e-07
5.78097e-07
5.95978e-07
6.13703e-07
6.31243e-07
6.4857e-07
6.6566e-07
6.82489e-07
6.99033e-07
7.15273e-07
7.31189e-07
7.46763e-07
7.61977e-07
7.76813e-07
7.91253e-07
8.05279e-07
8.18871e-07
8.32008e-07
8.44665e-07
8.56816e-07
8.68434e-07
8.79485e-07
8.89935e-07
8.99745e-07
9.08874e-07
9.17275e-07
9.24902e-07
9.31701e-07
9.3762e-07
9.42602e-07
9.46591e-07
9.49531e-07
9.51263e-07
9.51842e-07
9.51321e-07
9.49509e-07
9.46362e-07
9.41838e-07
9.35899e-07
9.28512e-07
9.19654e-07
9.09306e-07
8.97462e-07
8.84123e-07
8.69305e-07
8.53031e-07
8.3534e-07
8.1628e-07
7.95916e-07
7.7432e-07
7.5158e-07
7.27795e-07
7.03072e-07
6.7753e-07
6.51296e-07
6.24502e-07
5.97287e-07
5.6979e-07
5.42154e-07
5.14521e-07
4.87028e-07
4.59808e-07
4.32989e-07
4.06688e-07
3.81013e-07
3.56064e-07
3.31924e-07
3.08669e-07
2.86357e-07
2.65036e-07
2.44743e-07
2.255e-07
2.0732e-07
1.90205e-07
1.74149e-07
1.59139e-07
1.45155e-07
1.32174e-07
1.2017e-07
1.09118e-07
9.89933e-08
8.97742e-08
8.14457e-08
7.40009e-08
6.74449e-08
6.17988e-08
5.71063e-08
5.34437e-08
5.09368e-08
4.97929e-08
5.03641e-08
5.32978e-08
5.99336e-08
7.35617e-08
1.05173e-07
2.22024e-07
6.31298e-07
2.9939e-07
2.09082e-07
1.69005e-07
1.47877e-07
1.36343e-07
1.30632e-07
1.28897e-07
1.30108e-07
1.3365e-07
1.3911e-07
1.46189e-07
1.54667e-07
1.64365e-07
1.75141e-07
1.86874e-07
1.99463e-07
2.12819e-07
2.26867e-07
2.41541e-07
2.56785e-07
2.72549e-07
2.88788e-07
3.05464e-07
3.2254e-07
3.39984e-07
3.57765e-07
3.75852e-07
3.94215e-07
4.12823e-07
4.31645e-07
4.50649e-07
4.69802e-07
4.89069e-07
5.08415e-07
5.27805e-07
5.47203e-07
5.66573e-07
5.8588e-07
6.0509e-07
6.24169e-07
6.43088e-07
6.61815e-07
6.80325e-07
6.98592e-07
7.16595e-07
7.34311e-07
7.51723e-07
7.68813e-07
7.85566e-07
8.01966e-07
8.18e-07
8.33651e-07
8.48906e-07
8.63746e-07
8.78154e-07
8.92109e-07
9.05587e-07
9.18562e-07
9.31004e-07
9.42879e-07
9.5415e-07
9.64777e-07
9.74713e-07
9.83911e-07
9.92317e-07
9.99877e-07
1.00653e-06
1.01222e-06
1.01688e-06
1.02046e-06
1.02283e-06
1.02386e-06
1.02381e-06
1.02242e-06
1.01962e-06
1.01536e-06
1.0096e-06
1.0023e-06
9.9343e-07
9.82964e-07
9.70889e-07
9.57199e-07
9.41903e-07
9.2502e-07
9.06581e-07
8.86633e-07
8.65234e-07
8.42457e-07
8.18389e-07
7.93129e-07
7.66788e-07
7.39489e-07
7.11366e-07
6.82558e-07
6.53216e-07
6.23491e-07
5.9354e-07
5.63518e-07
5.33581e-07
5.03877e-07
4.74553e-07
4.45742e-07
4.17573e-07
3.90158e-07
3.63601e-07
3.37989e-07
3.13396e-07
2.89882e-07
2.67493e-07
2.46259e-07
2.262e-07
2.07323e-07
1.89624e-07
1.73092e-07
1.57706e-07
1.43442e-07
1.30273e-07
1.18168e-07
1.071e-07
9.70436e-08
8.79798e-08
7.98986e-08
7.28022e-08
6.67104e-08
6.16675e-08
5.77526e-08
5.50992e-08
5.39292e-08
5.46219e-08
5.78792e-08
6.51546e-08
8.00267e-08
1.14456e-07
2.41642e-07
6.981e-07
3.30934e-07
2.30869e-07
1.86314e-07
1.62691e-07
1.49668e-07
1.43084e-07
1.40903e-07
1.41982e-07
1.45648e-07
1.51439e-07
1.59028e-07
1.68167e-07
1.78657e-07
1.90337e-07
2.03071e-07
2.16744e-07
2.31257e-07
2.46522e-07
2.62465e-07
2.7902e-07
2.96129e-07
3.13742e-07
3.31813e-07
3.50299e-07
3.69162e-07
3.88364e-07
4.07871e-07
4.27645e-07
4.47651e-07
4.67854e-07
4.88215e-07
5.08698e-07
5.29264e-07
5.49874e-07
5.7049e-07
5.91074e-07
6.11589e-07
6.31998e-07
6.52268e-07
6.72367e-07
6.92264e-07
7.11933e-07
7.31349e-07
7.50491e-07
7.69339e-07
7.87877e-07
8.06089e-07
8.23964e-07
8.41488e-07
8.5865e-07
8.75439e-07
8.91843e-07
9.07849e-07
9.2344e-07
9.38601e-07
9.53311e-07
9.67547e-07
9.81282e-07
9.94484e-07
1.00712e-06
1.01915e-06
1.03053e-06
1.04122e-06
1.05116e-06
1.06029e-06
1.06857e-06
1.07592e-06
1.08228e-06
1.08759e-06
1.09178e-06
1.09478e-06
1.09637e-06
1.09675e-06
1.09582e-06
1.09343e-06
1.08951e-06
1.08402e-06
1.07692e-06
1.06816e-06
1.05772e-06
1.04556e-06
1.03169e-06
1.01609e-06
9.98783e-07
9.79787e-07
9.59143e-07
9.36903e-07
9.13135e-07
8.87922e-07
8.61361e-07
8.33563e-07
8.04653e-07
7.74768e-07
7.44054e-07
7.12669e-07
6.80777e-07
6.48545e-07
6.16145e-07
5.83747e-07
5.51519e-07
5.19624e-07
4.88218e-07
4.57446e-07
4.27441e-07
3.98325e-07
3.70203e-07
3.43166e-07
3.17288e-07
2.92627e-07
2.69226e-07
2.47112e-07
2.263e-07
2.0679e-07
1.88573e-07
1.71631e-07
1.55939e-07
1.41467e-07
1.28183e-07
1.16054e-07
1.05054e-07
9.51571e-08
8.6351e-08
7.86347e-08
7.2026e-08
6.65691e-08
6.23459e-08
5.94968e-08
5.82581e-08
5.9037e-08
6.25896e-08
7.04854e-08
8.6595e-08
1.23861e-07
2.61498e-07
7.68346e-07
3.64097e-07
2.53771e-07
2.04509e-07
1.78276e-07
1.63711e-07
1.5624e-07
1.53629e-07
1.54615e-07
1.58459e-07
1.64653e-07
1.72832e-07
1.82719e-07
1.94094e-07
2.06775e-07
2.20608e-07
2.35463e-07
2.51226e-07
2.678e-07
2.85099e-07
3.03047e-07
3.21578e-07
3.40633e-07
3.6016e-07
3.80108e-07
4.00434e-07
4.21094e-07
4.42046e-07
4.63249e-07
4.84661e-07
5.0624e-07
5.27947e-07
5.49738e-07
5.71571e-07
5.93405e-07
6.15199e-07
6.36913e-07
6.58509e-07
6.79952e-07
7.01207e-07
7.22245e-07
7.43039e-07
7.63563e-07
7.83796e-07
8.03722e-07
8.23325e-07
8.42592e-07
8.61512e-07
8.80077e-07
8.98278e-07
9.16108e-07
9.33557e-07
9.50616e-07
9.67275e-07
9.8352e-07
9.99334e-07
1.0147e-06
1.02959e-06
1.04398e-06
1.05784e-06
1.07114e-06
1.08383e-06
1.09587e-06
1.10721e-06
1.1178e-06
1.12758e-06
1.13649e-06
1.14447e-06
1.15146e-06
1.15738e-06
1.16217e-06
1.16575e-06
1.16794e-06
1.16875e-06
1.16833e-06
1.16641e-06
1.16292e-06
1.15782e-06
1.15104e-06
1.14254e-06
1.13229e-06
1.12025e-06
1.10639e-06
1.09072e-06
1.07321e-06
1.05391e-06
1.03282e-06
1.00999e-06
9.85483e-07
9.59375e-07
9.31755e-07
9.02731e-07
8.72424e-07
8.40974e-07
8.08529e-07
7.75253e-07
7.41317e-07
7.069e-07
6.72188e-07
6.37366e-07
6.02621e-07
5.68134e-07
5.34083e-07
5.00633e-07
4.6794e-07
4.36147e-07
4.05379e-07
3.75747e-07
3.47343e-07
3.20241e-07
2.94498e-07
2.70154e-07
2.4723e-07
2.25737e-07
2.05668e-07
1.87009e-07
1.69736e-07
1.53817e-07
1.39218e-07
1.25906e-07
1.13847e-07
1.03013e-07
9.33881e-08
8.49671e-08
7.77657e-08
7.18273e-08
6.72363e-08
6.41398e-08
6.27882e-08
6.36165e-08
6.74359e-08
7.59333e-08
9.32756e-08
1.33401e-07
2.81622e-07
8.42116e-07
3.98917e-07
2.77808e-07
2.23606e-07
1.94643e-07
1.78478e-07
1.70104e-07
1.67078e-07
1.68008e-07
1.72085e-07
1.7875e-07
1.87599e-07
1.98323e-07
2.10674e-07
2.2445e-07
2.39476e-07
2.55605e-07
2.72709e-07
2.90676e-07
3.09409e-07
3.28822e-07
3.48839e-07
3.69393e-07
3.90423e-07
4.11873e-07
4.3369e-07
4.55825e-07
4.7823e-07
5.00858e-07
5.23661e-07
5.46595e-07
5.69611e-07
5.92665e-07
6.15711e-07