/*--------------------------------*- C++ -*----------------------------------*\
  =========                 |
  \\      /  F ield         | OpenFOAM: The Open Source CFD Toolbox
   \\    /   O peration     | Website:  https://openfoam.org
    \\  /    A nd           | Version:  12
     \\/     M anipulation  |
\*---------------------------------------------------------------------------*/
FoamFile
{
    format      ascii;
    class       volScalarField;
    location    "9";
    object      nut;
}
// * * * * * * * * * * * * * * * * * * * * * * * * * * * * * * * * * * * * * //

dimensions      [0 2 -1 0 0 0 0];

internalField   nonuniform List<scalar> 
18225
(
2.51542e-17
1.25705e-16
2.75103e-16
4.54504e-16
6.5551e-16
8.73159e-16
1.10395e-15
1.34516e-15
1.59457e-15
1.85033e-15
2.11089e-15
2.37493e-15
2.64133e-15
2.90916e-15
3.17767e-15
3.44626e-15
3.71448e-15
3.98197e-15
4.24854e-15
4.51407e-15
4.77855e-15
5.04203e-15
5.30466e-15
5.56661e-15
5.82811e-15
6.08944e-15
6.35086e-15
6.61267e-15
6.87515e-15
7.13857e-15
7.4032e-15
7.66925e-15
7.93691e-15
8.20635e-15
8.47767e-15
8.75093e-15
9.02617e-15
9.30333e-15
9.58236e-15
9.86312e-15
1.01454e-14
1.04291e-14
1.07138e-14
1.09992e-14
1.1285e-14
1.15708e-14
1.18561e-14
1.21403e-14
1.24231e-14
1.27037e-14
1.29816e-14
1.3256e-14
1.35262e-14
1.37916e-14
1.40513e-14
1.43044e-14
1.45501e-14
1.47874e-14
1.50155e-14
1.52334e-14
1.544e-14
1.56343e-14
1.58154e-14
1.59821e-14
1.61335e-14
1.62685e-14
1.6386e-14
1.64851e-14
1.65648e-14
1.66242e-14
1.66623e-14
1.66782e-14
1.6672e-14
1.66426e-14
1.65894e-14
1.65119e-14
1.64099e-14
1.6283e-14
1.61313e-14
1.59549e-14
1.5754e-14
1.5529e-14
1.52806e-14
1.50093e-14
1.47162e-14
1.44021e-14
1.40683e-14
1.37161e-14
1.33468e-14
1.29621e-14
1.25635e-14
1.21528e-14
1.17317e-14
1.13021e-14
1.08659e-14
1.04248e-14
9.98081e-15
9.5357e-15
9.09124e-15
8.64915e-15
8.21108e-15
7.77855e-15
7.353e-15
6.93575e-15
6.52798e-15
6.13074e-15
5.74497e-15
5.37142e-15
5.01076e-15
4.66347e-15
4.32994e-15
4.0104e-15
3.70498e-15
3.4137e-15
3.13646e-15
2.87306e-15
2.62321e-15
2.38658e-15
2.16275e-15
1.95127e-15
1.75163e-15
1.56333e-15
1.38583e-15
1.21861e-15
1.0612e-15
9.1313e-16
7.74038e-16
6.43645e-16
5.21814e-16
4.08599e-16
3.04335e-16
2.09787e-16
1.26487e-16
5.76725e-17
1.15345e-17
1.25781e-16
1.14074e-14
3.87372e-14
7.15748e-14
1.07442e-13
1.45713e-13
1.85965e-13
2.27827e-13
2.70973e-13
3.15116e-13
3.60004e-13
4.05422e-13
4.51189e-13
4.97154e-13
5.43193e-13
5.89206e-13
6.35118e-13
6.80875e-13
7.26443e-13
7.71805e-13
8.16962e-13
8.61927e-13
9.06723e-13
9.51386e-13
9.95955e-13
1.04048e-12
1.08501e-12
1.12959e-12
1.17428e-12
1.21912e-12
1.26415e-12
1.30943e-12
1.35498e-12
1.40082e-12
1.44698e-12
1.49348e-12
1.54031e-12
1.58747e-12
1.63495e-12
1.68272e-12
1.73077e-12
1.77905e-12
1.82751e-12
1.87611e-12
1.92478e-12
1.97346e-12
2.02207e-12
2.07052e-12
2.11872e-12
2.16659e-12
2.214e-12
2.26085e-12
2.30702e-12
2.35237e-12
2.39679e-12
2.44011e-12
2.4822e-12
2.52291e-12
2.56206e-12
2.5995e-12
2.63506e-12
2.66856e-12
2.69983e-12
2.72869e-12
2.75495e-12
2.77843e-12
2.79897e-12
2.81636e-12
2.83041e-12
2.84095e-12
2.84782e-12
2.85088e-12
2.85021e-12
2.84557e-12
2.83684e-12
2.82394e-12
2.80682e-12
2.78544e-12
2.75978e-12
2.72986e-12
2.69573e-12
2.65745e-12
2.6151e-12
2.56882e-12
2.51875e-12
2.46506e-12
2.40796e-12
2.34766e-12
2.28441e-12
2.21848e-12
2.15015e-12
2.07971e-12
2.00748e-12
1.93377e-12
1.8589e-12
1.7832e-12
1.707e-12
1.6306e-12
1.55431e-12
1.47844e-12
1.40327e-12
1.32907e-12
1.25607e-12
1.18451e-12
1.1146e-12
1.04651e-12
9.80412e-13
9.16426e-13
8.54668e-13
7.95222e-13
7.3815e-13
6.83493e-13
6.31267e-13
5.81467e-13
5.34076e-13
4.89066e-13
4.46391e-13
4.05987e-13
3.67781e-13
3.31692e-13
2.9763e-13
2.65504e-13
2.3522e-13
2.06685e-13
1.79808e-13
1.54508e-13
1.3071e-13
1.08357e-13
8.74071e-14
6.78403e-14
4.96648e-14
3.29249e-14
1.77729e-14
5.23009e-15
5.76483e-17
2.75948e-16
3.87822e-14
1.96791e-13
4.43568e-13
7.30519e-13
1.03813e-12
1.35944e-12
1.69104e-12
2.03059e-12
2.37614e-12
2.726e-12
3.07871e-12
3.43301e-12
3.78785e-12
4.14236e-12
4.49587e-12
4.84785e-12
5.19796e-12
5.546e-12
5.89188e-12
6.23566e-12
6.57747e-12
6.91755e-12
7.25621e-12
7.5938e-12
7.9307e-12
8.26734e-12
8.60413e-12
8.94149e-12
9.27981e-12
9.61945e-12
9.96075e-12
1.0304e-11
1.06494e-11
1.09971e-11
1.13472e-11
1.16999e-11
1.2055e-11
1.24125e-11
1.27723e-11
1.31341e-11
1.34978e-11
1.38629e-11
1.42291e-11
1.45961e-11
1.49632e-11
1.53299e-11
1.56957e-11
1.60598e-11
1.64216e-11
1.67803e-11
1.7135e-11
1.7485e-11
1.78291e-11
1.81665e-11
1.84961e-11
1.88168e-11
1.91274e-11
1.94268e-11
1.97137e-11
1.99867e-11
2.02447e-11
2.04861e-11
2.07098e-11
2.09141e-11
2.10979e-11
2.12596e-11
2.13978e-11
2.15112e-11
2.15984e-11
2.1658e-11
2.16882e-11
2.16907e-11
2.16629e-11
2.16038e-11
2.15127e-11
2.13892e-11
2.12329e-11
2.10435e-11
2.08213e-11
2.05663e-11
2.0279e-11
1.99601e-11
1.96105e-11
1.92312e-11
1.88236e-11
1.83892e-11
1.79297e-11
1.74469e-11
1.69431e-11
1.64202e-11
1.58808e-11
1.53272e-11
1.47618e-11
1.41873e-11
1.36062e-11
1.3021e-11
1.24343e-11
1.18485e-11
1.12658e-11
1.06886e-11
1.0119e-11
9.55886e-12
9.00999e-12
8.47399e-12
7.95227e-12
7.44605e-12
6.95636e-12
6.48402e-12
6.02969e-12
5.59383e-12
5.1767e-12
4.77843e-12
4.39897e-12
4.03814e-12
3.69565e-12
3.3711e-12
3.06395e-12
2.7736e-12
2.49939e-12
2.24057e-12
1.99639e-12
1.76605e-12
1.54877e-12
1.34378e-12
1.15033e-12
9.67715e-13
7.95319e-13
6.32623e-13
4.79308e-13
3.35561e-13
2.03254e-13
9.01442e-14
1.77623e-14
1.26215e-16
4.57892e-16
7.18921e-14
4.44264e-13
1.18218e-12
2.16556e-12
3.28101e-12
4.46743e-12
5.69516e-12
6.94861e-12
8.2182e-12
9.49709e-12
1.078e-11
1.20627e-11
1.33417e-11
1.46143e-11
1.58783e-11
1.71325e-11
1.83757e-11
1.96075e-11
2.08282e-11
2.20379e-11
2.32376e-11
2.44284e-11
2.56115e-11
2.67884e-11
2.79607e-11
2.91302e-11
3.02984e-11
3.1467e-11
3.26375e-11
3.38115e-11
3.49901e-11
3.61745e-11
3.73656e-11
3.85641e-11
3.97705e-11
4.09852e-11
4.22082e-11
4.34393e-11
4.46781e-11
4.59242e-11
4.71768e-11
4.84348e-11
4.96971e-11
5.09623e-11
5.2229e-11
5.34952e-11
5.47592e-11
5.60188e-11
5.72715e-11
5.85151e-11
5.97466e-11
6.09632e-11
6.21617e-11
6.33389e-11
6.44912e-11
6.56149e-11
6.67059e-11
6.77603e-11
6.87736e-11
6.97414e-11
7.06591e-11
7.15218e-11
7.23247e-11
7.30628e-11
7.3731e-11
7.43243e-11
7.48377e-11
7.52661e-11
7.56057e-11
7.58485e-11
7.59878e-11
7.60327e-11
7.59711e-11
7.57996e-11
7.55153e-11
7.5116e-11
7.46001e-11
7.39666e-11
7.32152e-11
7.23465e-11
7.13617e-11
7.02629e-11
6.9053e-11
6.77355e-11
6.63151e-11
6.4797e-11
6.31873e-11
6.14926e-11
5.97203e-11
5.78784e-11
5.59752e-11
5.40196e-11
5.20206e-11
4.99875e-11
4.79296e-11
4.58562e-11
4.37765e-11
4.16995e-11
3.96336e-11
3.75871e-11
3.55676e-11
3.35822e-11
3.16375e-11
2.97391e-11
2.78922e-11
2.61012e-11
2.43697e-11
2.27008e-11
2.10966e-11
1.95588e-11
1.80882e-11
1.6685e-11
1.53492e-11
1.40798e-11
1.28757e-11
1.17351e-11
1.06561e-11
9.63625e-12
8.67294e-12
7.76334e-12
6.90446e-12
6.09318e-12
5.32635e-12
4.60085e-12
3.91361e-12
3.2618e-12
2.64308e-12
2.05617e-12
1.50241e-12
9.89546e-13
5.40304e-13
2.0318e-13
3.28377e-14
2.08668e-16
6.64618e-16
1.08529e-13
7.34472e-13
2.17068e-12
4.33959e-12
7.00352e-12
9.95873e-12
1.30759e-11
1.62798e-11
1.95262e-11
2.27875e-11
2.60455e-11
2.92871e-11
3.25031e-11
3.56869e-11
3.88338e-11
4.19409e-11
4.50068e-11
4.80314e-11
5.10157e-11
5.39618e-11
5.68725e-11
5.97514e-11
6.26026e-11
6.54305e-11
6.82398e-11
7.10353e-11
7.38216e-11
7.66034e-11
7.93851e-11
8.21705e-11
8.49634e-11
8.77669e-11
9.05837e-11
9.34158e-11
9.62649e-11
9.91322e-11
1.02018e-10
1.04923e-10
1.07845e-10
1.10785e-10
1.13741e-10
1.16711e-10
1.19692e-10
1.22681e-10
1.25676e-10
1.28672e-10
1.31666e-10
1.34652e-10
1.37626e-10
1.40582e-10
1.43514e-10
1.46415e-10
1.49277e-10
1.52094e-10
1.54858e-10
1.57558e-10
1.60187e-10
1.62734e-10
1.6519e-10
1.67542e-10
1.69781e-10
1.71894e-10
1.73869e-10
1.75695e-10
1.77358e-10
1.78846e-10
1.80147e-10
1.81248e-10
1.82146e-10
1.828e-10
1.83213e-10
1.83402e-10
1.83335e-10
1.83003e-10
1.82397e-10
1.81512e-10
1.80343e-10
1.78887e-10
1.77142e-10
1.7511e-10
1.72791e-10
1.70191e-10
1.67316e-10
1.64175e-10
1.60777e-10
1.57137e-10
1.53267e-10
1.49184e-10
1.44907e-10
1.40454e-10
1.35847e-10
1.31106e-10
1.26256e-10
1.21317e-10
1.16314e-10
1.1127e-10
1.06208e-10
1.0115e-10
9.61173e-11
9.11305e-11
8.62089e-11
8.13701e-11
7.66303e-11
7.20042e-11
6.75043e-11
6.31417e-11
5.89254e-11
5.48628e-11
5.09593e-11
4.72188e-11
4.36432e-11
4.02332e-11
3.69879e-11
3.39052e-11
3.09816e-11
2.82126e-11
2.55928e-11
2.31159e-11
2.07749e-11
1.85623e-11
1.64699e-11
1.44896e-11
1.26128e-11
1.08314e-11
9.13749e-12
7.52499e-12
5.99075e-12
4.53838e-12
3.1853e-12
1.97499e-12
9.89438e-13
3.34809e-13
4.9338e-14
3.01237e-16
8.92796e-16
1.48367e-13
1.05061e-12
3.30446e-12
7.02927e-12
1.19517e-11
1.76908e-11
2.39274e-11
3.04393e-11
3.70827e-11
4.37662e-11
5.0431e-11
5.70387e-11
6.35642e-11
6.9991e-11
7.63092e-11
8.25135e-11
8.86027e-11
9.45782e-11
1.00444e-10
1.06207e-10
1.11875e-10
1.17457e-10
1.22963e-10
1.28403e-10
1.3379e-10
1.39134e-10
1.44446e-10
1.49736e-10
1.55015e-10
1.60291e-10
1.65573e-10
1.70868e-10
1.76183e-10
1.81521e-10
1.86888e-10
1.92285e-10
1.97716e-10
2.03181e-10
2.0868e-10
2.14211e-10
2.19773e-10
2.25363e-10
2.30976e-10
2.36608e-10
2.42254e-10
2.47907e-10
2.5356e-10
2.59204e-10
2.6483e-10
2.70429e-10
2.75988e-10
2.81496e-10
2.8694e-10
2.92304e-10
2.97575e-10
3.02735e-10
3.07766e-10
3.12651e-10
3.17369e-10
3.21899e-10
3.26221e-10
3.3031e-10
3.34144e-10
3.37699e-10
3.4095e-10
3.43872e-10
3.46439e-10
3.48629e-10
3.50445e-10
3.51764e-10
3.52647e-10
3.53102e-10
3.53065e-10
3.52518e-10
3.51445e-10
3.49835e-10
3.47678e-10
3.44965e-10
3.41695e-10
3.37867e-10
3.33484e-10
3.28555e-10
3.2309e-10
3.17107e-10
3.10623e-10
3.03664e-10
2.96257e-10
2.88431e-10
2.80223e-10
2.71669e-10
2.62808e-10
2.53684e-10
2.44338e-10
2.34815e-10
2.25161e-10
2.15421e-10
2.05639e-10
1.95859e-10
1.86122e-10
1.76469e-10
1.66938e-10
1.57563e-10
1.48377e-10
1.39408e-10
1.30681e-10
1.22218e-10
1.14038e-10
1.06154e-10
9.85776e-11
9.13165e-11
8.43747e-11
7.77534e-11
7.14508e-11
6.54622e-11
5.97807e-11
5.43972e-11
4.93003e-11
4.44771e-11
3.99132e-11
3.55927e-11
3.1499e-11
2.76152e-11
2.39241e-11
2.04099e-11
1.70595e-11
1.38659e-11
1.08344e-11
7.99212e-12
5.40325e-12
3.18506e-12
1.49975e-12
4.76297e-13
6.69912e-14
4.01723e-16
1.1407e-15
1.91302e-13
1.38858e-12
4.53412e-12
1.00583e-11
1.77892e-11
2.72241e-11
3.78119e-11
4.90948e-11
6.07384e-11
7.25135e-11
8.42679e-11
9.59016e-11
1.07351e-10
1.18576e-10
1.29554e-10
1.40274e-10
1.50737e-10
1.60946e-10
1.70913e-10
1.80652e-10
1.90181e-10
1.99521e-10
2.08693e-10
2.17719e-10
2.26622e-10
2.35424e-10
2.44147e-10
2.52812e-10
2.61438e-10
2.70042e-10
2.78642e-10
2.87251e-10
2.9588e-10
3.04541e-10
3.13242e-10
3.21989e-10
3.30786e-10
3.39635e-10
3.48539e-10
3.57496e-10
3.66503e-10
3.75557e-10
3.84652e-10
3.93781e-10
4.02936e-10
4.12106e-10
4.21282e-10
4.30449e-10
4.39592e-10
4.48696e-10
4.57743e-10
4.66712e-10
4.75583e-10
4.84331e-10
4.92931e-10
5.01357e-10
5.09579e-10
5.17565e-10
5.25284e-10
5.32701e-10
5.39779e-10
5.46481e-10
5.52768e-10
5.586e-10
5.63935e-10
5.68732e-10
5.72947e-10
5.76554e-10
5.79549e-10
5.81696e-10
5.8316e-10
5.83916e-10
5.83862e-10
5.8297e-10
5.81214e-10
5.78576e-10
5.75038e-10
5.70589e-10
5.65224e-10
5.58943e-10
5.51751e-10
5.43662e-10
5.34693e-10
5.24871e-10
5.14227e-10
5.02799e-10
4.90633e-10
4.77777e-10
4.64288e-10
4.50226e-10
4.35655e-10
4.20643e-10
4.05261e-10
3.89581e-10
3.73676e-10
3.57619e-10
3.41485e-10
3.25343e-10
3.09263e-10
2.93312e-10
2.77551e-10
2.62038e-10
2.46826e-10
2.31964e-10
2.17494e-10
2.03451e-10
1.89868e-10
1.76767e-10
1.6417e-10
1.52087e-10
1.40528e-10
1.29494e-10
1.18982e-10
1.08985e-10
9.94914e-11
9.04851e-11
8.19474e-11
7.38562e-11
6.61865e-11
5.89112e-11
5.20018e-11
4.54295e-11
3.91668e-11
3.31903e-11
2.74861e-11
2.20562e-11
1.6932e-11
1.21933e-11
7.98778e-12
4.52982e-12
2.04425e-12
6.2458e-13
8.56158e-14
5.08589e-16
1.40748e-15
2.37297e-13
1.74784e-12
5.84227e-12
1.33313e-11
2.4264e-11
3.81146e-11
5.4121e-11
7.15385e-11
8.97568e-11
1.0832e-10
1.26909e-10
1.45306e-10
1.63371e-10
1.81018e-10
1.98198e-10
2.14888e-10
2.31087e-10
2.46806e-10
2.62067e-10
2.76898e-10
2.91334e-10
3.05414e-10
3.19177e-10
3.32664e-10
3.45917e-10
3.58975e-10
3.71876e-10
3.84658e-10
3.97354e-10
4.09994e-10
4.22606e-10
4.35215e-10
4.47842e-10
4.60503e-10
4.73214e-10
4.85986e-10
4.98826e-10
5.1174e-10
5.2473e-10
5.37797e-10
5.50936e-10
5.64143e-10
5.7741e-10
5.90727e-10
6.04082e-10
6.1746e-10
6.30845e-10
6.44218e-10
6.57555e-10
6.70833e-10
6.84025e-10
6.97101e-10
7.10029e-10
7.22773e-10
7.35295e-10
7.47554e-10
7.59506e-10
7.71106e-10
7.82304e-10
7.93048e-10
8.03285e-10
8.1296e-10
8.22014e-10
8.30388e-10
8.38024e-10
8.4486e-10
8.50839e-10
8.55927e-10
8.60118e-10
8.63019e-10
8.64962e-10
8.65848e-10
8.6554e-10
8.64002e-10
8.612e-10
8.57107e-10
8.51702e-10
8.4497e-10
8.36907e-10
8.27512e-10
8.16797e-10
8.04781e-10
7.91493e-10
7.76969e-10
7.61256e-10
7.44411e-10
7.26497e-10
7.07586e-10
6.87757e-10
6.67097e-10
6.45698e-10
6.23655e-10
6.0107e-10
5.78045e-10
5.54686e-10
5.31097e-10
5.07383e-10
4.83645e-10
4.59984e-10
4.36495e-10
4.13267e-10
3.90385e-10
3.67927e-10
3.45963e-10
3.24556e-10
3.0376e-10
2.83621e-10
2.64177e-10
2.45456e-10
2.2748e-10
2.1026e-10
1.93802e-10
1.78102e-10
1.6315e-10
1.48929e-10
1.35416e-10
1.22583e-10
1.10397e-10
9.8821e-11
8.78137e-11
7.73335e-11
6.73388e-11
5.77927e-11
4.8668e-11
3.99579e-11
3.16909e-11
2.39519e-11
1.69042e-11
1.08011e-11
5.95293e-12
2.60993e-12
7.78191e-13
1.05053e-13
6.20654e-16
1.69282e-15
2.86359e-13
2.12883e-12
7.22511e-12
1.68078e-11
3.12305e-11
5.00414e-11
7.23215e-11
9.70287e-11
1.23216e-10
1.50122e-10
1.77181e-10
2.03995e-10
2.30298e-10
2.55923e-10
2.80774e-10
3.04807e-10
3.28014e-10
3.50414e-10
3.72045e-10
3.92956e-10
4.13208e-10
4.32862e-10
4.51988e-10
4.70652e-10
4.88922e-10
5.06863e-10
5.24536e-10
5.42e-10
5.59308e-10
5.76509e-10
5.93644e-10
6.10753e-10
6.27868e-10
6.45016e-10
6.62219e-10
6.79495e-10
6.96856e-10
7.14311e-10
7.31863e-10
7.49513e-10
7.67258e-10
7.8509e-10
8.03001e-10
8.20974e-10
8.38992e-10
8.57034e-10
8.75076e-10
8.93089e-10
9.11043e-10
9.28903e-10
9.4663e-10
9.64182e-10
9.81513e-10
9.98574e-10
1.01531e-09
1.03166e-09
1.04758e-09
1.06298e-09
1.07781e-09
1.092e-09
1.10547e-09
1.11815e-09
1.12995e-09
1.14081e-09
1.15064e-09
1.15936e-09
1.16689e-09
1.17318e-09
1.17826e-09
1.18156e-09
1.18361e-09
1.1842e-09
1.18317e-09
1.18048e-09
1.17609e-09
1.16998e-09
1.16211e-09
1.15249e-09
1.14109e-09
1.12794e-09
1.11304e-09
1.09643e-09
1.07815e-09
1.05824e-09
1.03678e-09
1.01383e-09
9.89483e-10
9.63831e-10
9.36978e-10
9.09036e-10
8.80125e-10
8.50368e-10
8.19897e-10
7.88845e-10
7.57346e-10
7.25537e-10
6.93553e-10
6.61525e-10
6.29585e-10
5.97855e-10
5.66455e-10
5.35494e-10
5.05076e-10
4.75294e-10
4.46232e-10
4.17964e-10
3.90551e-10
3.64047e-10
3.38491e-10
3.13912e-10
2.9033e-10
2.67753e-10
2.46177e-10
2.25592e-10
2.05975e-10
1.87297e-10
1.69521e-10
1.526e-10
1.36484e-10
1.2112e-10
1.06452e-10
9.24272e-11
7.90043e-11
6.61614e-11
5.39131e-11
4.23332e-11
3.15829e-11
2.19314e-11
1.37479e-11
7.42178e-12
3.18991e-12
9.36118e-13
1.25163e-13
7.36964e-16
1.99677e-15
3.38533e-13
2.53234e-12
8.68415e-12
2.04762e-11
3.86212e-11
6.28151e-11
9.20414e-11
1.24974e-10
1.60295e-10
1.96874e-10
2.33828e-10
2.70512e-10
3.06481e-10
3.41453e-10
3.7526e-10
4.07824e-10
4.39128e-10
4.69199e-10
4.98096e-10
5.25895e-10
5.5269e-10
5.78578e-10
6.03665e-10
6.28052e-10
6.51841e-10
6.7513e-10
6.9801e-10
7.20567e-10
7.42878e-10
7.65014e-10
7.87037e-10
8.09e-10
8.3095e-10
8.52925e-10
8.74955e-10
8.97065e-10
9.19272e-10
9.41587e-10
9.64015e-10
9.86556e-10
1.0092e-09
1.03195e-09
1.05478e-09
1.07766e-09
1.10059e-09
1.12352e-09
1.14642e-09
1.16926e-09
1.19199e-09
1.21456e-09
1.23693e-09
1.25902e-09
1.28079e-09
1.30217e-09
1.32308e-09
1.34345e-09
1.36321e-09
1.38226e-09
1.40052e-09
1.4179e-09
1.4343e-09
1.44964e-09
1.46382e-09
1.47673e-09
1.48829e-09
1.4984e-09
1.50696e-09
1.51389e-09
1.5192e-09
1.52232e-09
1.52389e-09
1.52353e-09
1.52112e-09
1.51661e-09
1.50999e-09
1.5012e-09
1.49023e-09
1.47709e-09
1.46175e-09
1.44425e-09
1.42461e-09
1.40287e-09
1.37908e-09
1.35332e-09
1.32566e-09
1.2962e-09
1.26503e-09
1.23229e-09
1.19809e-09
1.16257e-09
1.12588e-09
1.08816e-09
1.04957e-09
1.01027e-09
9.70432e-10
9.30209e-10
8.89765e-10
8.49261e-10
8.08853e-10
7.68691e-10
7.28919e-10
6.89671e-10
6.51074e-10
6.13242e-10
5.76279e-10
5.40277e-10
5.05315e-10
4.71458e-10
4.38758e-10
4.07255e-10
3.76975e-10
3.47928e-10
3.20114e-10
2.93521e-10
2.68123e-10
2.43884e-10
2.20756e-10
1.98686e-10
1.77609e-10
1.5746e-10
1.38172e-10
1.19686e-10
1.01961e-10
8.49896e-11
6.88226e-11
5.35977e-11
3.95718e-11
2.71336e-11
1.6766e-11
8.91684e-12
3.77999e-12
1.09753e-12
1.45825e-13
8.5674e-16
2.31962e-15
3.9389e-13
2.95932e-12
1.0223e-11
2.4339e-11
4.64151e-11
7.63445e-11
1.13062e-10
1.54975e-10
2.0038e-10
2.47731e-10
2.95768e-10
3.4354e-10
3.9038e-10
4.3585e-10
4.7969e-10
5.21774e-10
5.62071e-10
6.00616e-10
6.37493e-10
6.72814e-10
7.06714e-10
7.39335e-10
7.70825e-10
8.01332e-10
8.30998e-10
8.5996e-10
8.88346e-10
9.16272e-10
9.43846e-10
9.71162e-10
9.98304e-10
1.02534e-09
1.05234e-09
1.07935e-09
1.1064e-09
1.13353e-09
1.16076e-09
1.18809e-09
1.21555e-09
1.24312e-09
1.27079e-09
1.29855e-09
1.32637e-09
1.35423e-09
1.38209e-09
1.40992e-09
1.43766e-09
1.46526e-09
1.49267e-09
1.51983e-09
1.54666e-09
1.5731e-09
1.59906e-09
1.62446e-09
1.6492e-09
1.67321e-09
1.69637e-09
1.7186e-09
1.73977e-09
1.75978e-09
1.77853e-09
1.7959e-09
1.81178e-09
1.82605e-09
1.83862e-09
1.84937e-09
1.8582e-09
1.865e-09
1.86967e-09
1.87189e-09
1.87224e-09
1.87016e-09
1.86563e-09
1.85859e-09
1.84902e-09
1.8369e-09
1.82222e-09
1.80497e-09
1.78517e-09
1.76283e-09
1.73802e-09
1.71077e-09
1.68116e-09
1.64926e-09
1.61519e-09
1.57905e-09
1.54095e-09
1.50105e-09
1.45948e-09
1.41641e-09
1.37199e-09
1.3264e-09
1.27982e-09
1.23242e-09
1.18441e-09
1.13595e-09
1.08724e-09
1.03846e-09
9.8979e-10
9.41395e-10
8.93444e-10
8.46091e-10
7.99483e-10
7.53753e-10
7.09022e-10
6.65397e-10
6.22972e-10
5.81825e-10
5.42019e-10
5.03602e-10
4.66606e-10
4.31046e-10
3.96925e-10
3.64229e-10
3.32929e-10
3.02984e-10
2.74338e-10
2.46929e-10
2.20682e-10
1.95521e-10
1.71372e-10
1.48174e-10
1.25893e-10
1.04548e-10
8.4236e-11
6.51745e-11
4.77289e-11
3.24126e-11
1.98151e-11
1.04257e-11
4.37717e-12
1.26173e-12
1.66937e-13
9.79346e-16
2.66182e-15
4.52527e-13
3.41078e-12
1.1846e-11
2.84051e-11
5.46159e-11
9.06009e-11
1.35278e-10
1.86803e-10
2.43074e-10
3.02096e-10
3.62186e-10
4.22042e-10
4.80731e-10
5.37629e-10
5.92365e-10
6.44753e-10
6.94743e-10
7.42381e-10
7.87782e-10
8.31099e-10
8.72515e-10
9.12226e-10
9.50431e-10
9.87329e-10
1.02311e-09
1.05796e-09
1.09204e-09
1.12551e-09
1.1585e-09
1.19114e-09
1.22353e-09
1.25576e-09
1.28791e-09
1.32004e-09
1.35219e-09
1.38441e-09
1.41671e-09
1.4491e-09
1.48159e-09
1.51418e-09
1.54683e-09
1.57954e-09
1.61227e-09
1.64498e-09
1.67762e-09
1.71014e-09
1.74249e-09
1.77458e-09
1.80636e-09
1.83774e-09
1.86864e-09
1.89896e-09
1.92862e-09
1.9575e-09
1.9855e-09
2.01251e-09
2.03841e-09
2.06309e-09
2.08643e-09
2.10829e-09
2.12856e-09
2.14712e-09
2.16384e-09
2.1786e-09
2.19129e-09
2.20179e-09
2.20999e-09
2.21581e-09
2.21888e-09
2.21943e-09
2.21779e-09
2.21322e-09
2.20581e-09
2.19555e-09
2.1824e-09
2.16636e-09
2.14742e-09
2.1256e-09
2.10092e-09
2.07342e-09
2.04315e-09
2.01019e-09
1.97461e-09
1.93651e-09
1.89601e-09
1.85323e-09
1.80831e-09
1.76141e-09
1.71268e-09
1.6623e-09
1.61045e-09
1.55732e-09
1.50311e-09
1.44802e-09
1.39225e-09
1.33599e-09
1.27947e-09
1.22286e-09
1.16638e-09
1.11021e-09
1.05453e-09
9.99508e-10
9.45314e-10
8.92094e-10
8.39982e-10
7.89099e-10
7.3955e-10
6.91425e-10
6.44795e-10
5.99716e-10
5.56225e-10
5.14343e-10
4.74072e-10
4.35397e-10
3.98289e-10
3.627e-10
3.28569e-10
2.95825e-10
2.64384e-10
2.34164e-10
2.05086e-10
1.77091e-10
1.50161e-10
1.24344e-10
9.97992e-11
7.68302e-11
5.59178e-11
3.77011e-11
2.28688e-11
1.19401e-11
4.97922e-12
1.42814e-12
1.88416e-13
1.10428e-15
3.02394e-15
5.14556e-13
3.88782e-12
1.35578e-11
3.26858e-11
6.32403e-11
1.05593e-10
1.58658e-10
2.2035e-10
2.88154e-10
3.59597e-10
4.32537e-10
5.05282e-10
5.76601e-10
6.45663e-10
7.11968e-10
7.75262e-10
8.35475e-10
8.92668e-10
9.46987e-10
9.98637e-10
1.04785e-09
1.0949e-09
1.14002e-09
1.18348e-09
1.22552e-09
1.26638e-09
1.30626e-09
1.34535e-09
1.38384e-09
1.42186e-09
1.45954e-09
1.49699e-09
1.53431e-09
1.57156e-09
1.6088e-09
1.64606e-09
1.68336e-09
1.72072e-09
1.75813e-09
1.79559e-09
1.83305e-09
1.8705e-09
1.90788e-09
1.94515e-09
1.98225e-09
2.0191e-09
2.05563e-09
2.09176e-09
2.1274e-09
2.16245e-09
2.19682e-09
2.23039e-09
2.26304e-09
2.29467e-09
2.32515e-09
2.35435e-09
2.38215e-09
2.40841e-09
2.433e-09
2.45579e-09
2.47664e-09
2.49543e-09
2.51203e-09
2.52632e-09
2.53818e-09
2.54749e-09
2.55415e-09
2.55807e-09
2.55873e-09
2.55673e-09
2.55244e-09
2.54465e-09
2.53371e-09
2.51961e-09
2.50234e-09
2.48191e-09
2.45833e-09
2.43161e-09
2.4018e-09
2.36895e-09
2.33313e-09
2.2944e-09
2.25288e-09
2.20868e-09
2.16191e-09
2.11271e-09
2.06124e-09
2.00766e-09
1.95215e-09
1.89489e-09
1.83608e-09
1.77591e-09
1.71459e-09
1.65234e-09
1.58937e-09
1.5259e-09
1.46215e-09
1.39832e-09
1.33463e-09
1.27128e-09
1.20846e-09
1.14635e-09
1.08514e-09
1.02498e-09
9.66019e-10
9.08388e-10
8.52202e-10
7.97558e-10
7.44536e-10
6.93197e-10
6.43584e-10
5.95719e-10
5.49606e-10
5.0523e-10
4.62558e-10
4.21538e-10
3.82103e-10
3.44175e-10
3.07665e-10
2.72482e-10
2.38547e-10
2.05808e-10
1.74264e-10
1.44004e-10
1.15249e-10
8.83963e-11
6.40439e-11
4.2954e-11
2.59099e-11
1.34543e-11
5.58448e-12
1.59631e-12
2.10201e-13
1.23116e-15
3.4066e-15
5.80094e-13
4.39154e-12
1.53632e-11
3.71939e-11
7.23107e-11
1.21347e-10
1.83218e-10
2.55592e-10
3.35522e-10
4.20032e-10
5.06489e-10
5.92783e-10
6.77358e-10
7.59162e-10
8.37552e-10
9.12205e-10
9.83031e-10
1.05011e-09
1.11362e-09
1.17383e-09
1.23103e-09
1.28555e-09
1.3377e-09
1.38782e-09
1.43619e-09
1.4831e-09
1.52881e-09
1.57355e-09
1.61752e-09
1.6609e-09
1.70385e-09
1.74648e-09
1.78889e-09
1.83117e-09
1.87338e-09
1.91554e-09
1.95768e-09
1.9998e-09
2.0419e-09
2.08396e-09
2.12593e-09
2.16776e-09
2.20941e-09
2.25081e-09
2.29188e-09
2.33254e-09
2.37269e-09
2.41224e-09
2.45108e-09
2.4891e-09
2.52618e-09
2.56219e-09
2.59702e-09
2.63053e-09
2.66259e-09
2.69305e-09
2.72178e-09
2.74865e-09
2.77351e-09
2.79622e-09
2.81666e-09
2.8347e-09
2.8502e-09
2.86306e-09
2.87314e-09
2.88036e-09
2.88461e-09
2.8858e-09
2.88326e-09
2.87805e-09
2.87037e-09
2.85886e-09
2.84384e-09
2.82544e-09
2.80366e-09
2.77852e-09
2.75004e-09
2.71826e-09
2.68323e-09
2.64501e-09
2.60367e-09
2.5593e-09
2.51203e-09
2.46195e-09
2.40921e-09
2.35396e-09
2.29635e-09
2.23655e-09
2.17475e-09
2.11114e-09
2.04592e-09
1.9793e-09
1.9115e-09
1.84273e-09
1.77322e-09
1.70319e-09
1.63287e-09
1.56249e-09
1.49225e-09
1.42237e-09
1.35306e-09
1.28451e-09
1.21691e-09
1.15042e-09
1.0852e-09
1.02139e-09
9.59119e-10
8.98483e-10
8.39571e-10
7.8245e-10
7.27163e-10
6.73738e-10
6.22177e-10
5.72465e-10
5.24565e-10
4.78422e-10
4.33963e-10
3.91103e-10
3.49748e-10
3.09802e-10
2.71188e-10
2.3386e-10
1.9784e-10
1.63258e-10
1.304e-10
9.97569e-11
7.20436e-11
4.8142e-11
2.89269e-11
1.49648e-11
6.19185e-12
1.76594e-12
2.32248e-13
1.35973e-15
3.81047e-15
6.49263e-13
4.92301e-12
1.72667e-11
4.19417e-11
8.1852e-11
1.379e-10
2.08996e-10
2.9255e-10
3.85159e-10
4.83316e-10
5.83869e-10
6.84264e-10
7.82606e-10
8.77605e-10
9.68475e-10
1.05482e-09
1.13654e-09
1.21372e-09
1.2866e-09
1.3555e-09
1.42079e-09
1.48285e-09
1.54208e-09
1.59887e-09
1.65357e-09
1.70652e-09
1.75803e-09
1.80836e-09
1.85775e-09
1.90641e-09
1.95451e-09
2.00219e-09
2.04955e-09
2.09668e-09
2.14365e-09
2.19047e-09
2.23718e-09
2.28377e-09
2.33021e-09
2.37648e-09
2.42253e-09
2.46829e-09
2.51369e-09
2.55866e-09
2.60309e-09
2.6469e-09
2.68998e-09
2.73221e-09
2.77346e-09
2.81362e-09
2.85256e-09
2.89013e-09
2.92621e-09
2.96064e-09
2.99329e-09
3.02402e-09
3.05269e-09
3.07915e-09
3.10327e-09
3.12492e-09
3.14396e-09
3.16027e-09
3.17374e-09
3.18426e-09
3.19171e-09
3.19603e-09
3.1971e-09
3.19478e-09
3.18839e-09
3.17956e-09
3.16771e-09
3.1522e-09
3.13269e-09
3.10967e-09
3.08314e-09
3.05313e-09
3.01968e-09
2.98282e-09
2.94261e-09
2.89914e-09
2.85247e-09
2.80272e-09
2.75e-09
2.69442e-09
2.63613e-09
2.57528e-09
2.51204e-09
2.44657e-09
2.37906e-09
2.3097e-09
2.23871e-09
2.16629e-09
2.09267e-09
2.01805e-09
1.94268e-09
1.86679e-09
1.79059e-09
1.71433e-09
1.63823e-09
1.5625e-09
1.48736e-09
1.41301e-09
1.33964e-09
1.26744e-09
1.19656e-09
1.12715e-09
1.05935e-09
9.93259e-10
9.28974e-10
8.66563e-10
8.06076e-10
7.47539e-10
6.90957e-10
6.36311e-10
5.83564e-10
5.32654e-10
4.83505e-10
4.36024e-10
3.90111e-10
3.4567e-10
3.02622e-10
2.60932e-10
2.20642e-10
1.81924e-10
1.45128e-10
1.10837e-10
7.98772e-11
5.32476e-11
3.19133e-11
1.64696e-11
6.80075e-12
1.93686e-12
2.54535e-13
1.48985e-15
4.23622e-15
7.22183e-13
5.4833e-12
1.92727e-11
4.69414e-11
9.18887e-11
1.55291e-10
2.36042e-10
3.31272e-10
4.37094e-10
5.49438e-10
6.64604e-10
7.79577e-10
8.92109e-10
1.00067e-09
1.10432e-09
1.2026e-09
1.2954e-09
1.38283e-09
1.46517e-09
1.54282e-09
1.61622e-09
1.68583e-09
1.75212e-09
1.81553e-09
1.8765e-09
1.93542e-09
1.99262e-09
2.04843e-09
2.10312e-09
2.1569e-09
2.20998e-09
2.2625e-09
2.31457e-09
2.3663e-09
2.41773e-09
2.4689e-09
2.5198e-09
2.57045e-09
2.62079e-09
2.67078e-09
2.72037e-09
2.76947e-09
2.81801e-09
2.86587e-09
2.91297e-09
2.95918e-09
3.00438e-09
3.04845e-09
3.09125e-09
3.13265e-09
3.17251e-09
3.21068e-09
3.24702e-09
3.28138e-09
3.31363e-09
3.34363e-09
3.37122e-09
3.39629e-09
3.41869e-09
3.43831e-09
3.45502e-09
3.46872e-09
3.47931e-09
3.48668e-09
3.49075e-09
3.49146e-09
3.48875e-09
3.48217e-09
3.47164e-09
3.45873e-09
3.44224e-09
3.42243e-09
3.39825e-09
3.37046e-09
3.3391e-09
3.3042e-09
3.26582e-09
3.224e-09
3.17882e-09
3.13034e-09
3.07866e-09
3.02388e-09
2.96612e-09
2.90551e-09
2.84217e-09
2.77627e-09
2.70797e-09
2.63743e-09
2.56484e-09
2.4904e-09
2.4143e-09
2.33676e-09
2.258e-09
2.17823e-09
2.09769e-09
2.01662e-09
1.93523e-09
1.85377e-09
1.77246e-09
1.69153e-09
1.6112e-09
1.53167e-09
1.45315e-09
1.37581e-09
1.29984e-09
1.22539e-09
1.15259e-09
1.08155e-09
1.01239e-09
9.45167e-10
8.79937e-10
8.16728e-10
7.55545e-10
6.9637e-10
6.39161e-10
5.83853e-10
5.30365e-10
4.78598e-10
4.28447e-10
3.79812e-10
3.32615e-10
2.8683e-10
2.4252e-10
1.99894e-10
1.59362e-10
1.21594e-10
8.75235e-11
5.82622e-11
3.48666e-11
1.79684e-11
7.41111e-12
2.10906e-12
2.77056e-13
1.62149e-15
4.68448e-15
7.98971e-13
6.0734e-12
2.13852e-11
5.22041e-11
1.02444e-10
1.73559e-10
2.64407e-10
3.71817e-10
4.91378e-10
6.18423e-10
7.48683e-10
8.78659e-10
1.00574e-09
1.12815e-09
1.24482e-09
1.35521e-09
1.4592e-09
1.55695e-09
1.64879e-09
1.73519e-09
1.81667e-09
1.89377e-09
1.96703e-09
2.03698e-09
2.1041e-09
2.16883e-09
2.23158e-09
2.29269e-09
2.35247e-09
2.41115e-09
2.46895e-09
2.52604e-09
2.58252e-09
2.63849e-09
2.69401e-09
2.7491e-09
2.80375e-09
2.85795e-09
2.91164e-09
2.96478e-09
3.01728e-09
3.06906e-09
3.12001e-09
3.17002e-09
3.21898e-09
3.26675e-09
3.31322e-09
3.35823e-09
3.40165e-09
3.44333e-09
3.48314e-09
3.52092e-09
3.55654e-09
3.58985e-09
3.62071e-09
3.64899e-09
3.67455e-09
3.69728e-09
3.71706e-09
3.73378e-09
3.74733e-09
3.75763e-09
3.76459e-09
3.76813e-09
3.7682e-09
3.76473e-09
3.75769e-09
3.74638e-09
3.73171e-09
3.71422e-09
3.69291e-09
3.66837e-09
3.6397e-09
3.60709e-09
3.57094e-09
3.53128e-09
3.48816e-09
3.44163e-09
3.39176e-09
3.33863e-09
3.28235e-09
3.22299e-09
3.16069e-09
3.09557e-09
3.02776e-09
2.9574e-09
2.88465e-09
2.80969e-09
2.73268e-09
2.65382e-09
2.5733e-09
2.49132e-09
2.40811e-09
2.32388e-09
2.23885e-09
2.15327e-09
2.06735e-09
1.98133e-09
1.89545e-09
1.80994e-09
1.72501e-09
1.64088e-09
1.55776e-09
1.47584e-09
1.3953e-09
1.3163e-09
1.23898e-09
1.16348e-09
1.08989e-09
1.01829e-09
9.48733e-10
8.81258e-10
8.15868e-10
7.52543e-10
6.91239e-10
6.31889e-10
5.74406e-10
5.18687e-10
4.6462e-10
4.12103e-10
3.61057e-10
3.11463e-10
2.63401e-10
2.17114e-10
1.73068e-10
1.3201e-10
9.49754e-11
6.31847e-11
3.77879e-11
1.94619e-11
8.02337e-12
2.28266e-12
2.99827e-13
1.75474e-15
5.15586e-15
8.79734e-13
6.69423e-12
2.3608e-11
5.77402e-11
1.1354e-10
1.92739e-10
2.94144e-10
4.14244e-10
5.48069e-10
6.90318e-10
8.36122e-10
9.81488e-10
1.12344e-09
1.25994e-09
1.3898e-09
1.51241e-09
1.62766e-09
1.73574e-09
1.83706e-09
1.93216e-09
2.02163e-09
2.10611e-09
2.18621e-09
2.26253e-09
2.33562e-09
2.40598e-09
2.47405e-09
2.54022e-09
2.60482e-09
2.66811e-09
2.73032e-09
2.79161e-09
2.85211e-09
2.91191e-09
2.97105e-09
3.02956e-09
3.08741e-09
3.14458e-09
3.201e-09
3.25662e-09
3.31132e-09
3.36502e-09
3.4176e-09
3.46894e-09
3.5189e-09
3.56736e-09
3.61417e-09
3.65919e-09
3.70227e-09
3.74328e-09
3.78207e-09
3.81849e-09
3.85242e-09
3.88371e-09
3.91224e-09
3.93789e-09
3.96054e-09
3.98009e-09
3.99643e-09
4.00948e-09
4.01916e-09
4.0254e-09
4.02814e-09
4.02731e-09
4.02289e-09
4.01484e-09
4.00306e-09
3.9868e-09
3.96789e-09
3.94558e-09
3.91946e-09
3.89001e-09
3.85698e-09
3.81969e-09
3.77893e-09
3.73475e-09
3.68717e-09
3.63627e-09
3.58212e-09
3.52478e-09
3.46436e-09
3.40095e-09
3.33466e-09
3.2656e-09
3.19391e-09
3.11972e-09
3.04318e-09
2.96445e-09
2.88369e-09
2.80108e-09
2.71681e-09
2.63107e-09
2.54408e-09
2.45605e-09
2.36719e-09
2.27773e-09
2.1879e-09
2.09794e-09
2.00808e-09
1.91855e-09
1.82957e-09
1.74137e-09
1.65417e-09
1.56815e-09
1.4835e-09
1.40041e-09
1.31901e-09
1.23945e-09
1.16182e-09
1.08623e-09
1.01272e-09
9.4134e-10
8.7209e-10
8.04955e-10
7.39888e-10
6.76822e-10
6.15663e-10
5.56304e-10
4.98631e-10
4.42533e-10
3.87934e-10
3.34815e-10
2.83274e-10
2.33579e-10
1.86244e-10
1.42088e-10
1.02238e-10
6.80201e-11
4.06808e-11
2.09525e-11
8.63848e-12
2.45791e-12
3.22882e-13
1.88977e-15
5.65088e-15
9.64567e-13
7.34661e-12
2.59444e-11
6.35585e-11
1.25195e-10
2.12863e-10
3.25294e-10
4.58606e-10
6.0722e-10
7.65165e-10
9.26947e-10
1.08806e-09
1.24515e-09
1.39596e-09
1.53913e-09
1.67404e-09
1.80056e-09
1.91894e-09
2.02966e-09
2.13334e-09
2.23067e-09
2.32236e-09
2.40912e-09
2.4916e-09
2.57044e-09
2.64616e-09
2.71928e-09
2.7902e-09
2.85929e-09
2.92682e-09
2.99304e-09
3.05812e-09
3.12217e-09
3.1853e-09
3.24753e-09
3.30887e-09