/*--------------------------------*- C++ -*----------------------------------*\
  =========                 |
  \\      /  F ield         | OpenFOAM: The Open Source CFD Toolbox
   \\    /   O peration     | Website:  https://openfoam.org
    \\  /    A nd           | Version:  12
     \\/     M anipulation  |
\*---------------------------------------------------------------------------*/
FoamFile
{
    format      ascii;
    class       volScalarField;
    location    "9";
    object      p;
}
// * * * * * * * * * * * * * * * * * * * * * * * * * * * * * * * * * * * * * //

dimensions      [0 2 -2 0 0 0 0];

internalField   nonuniform List<scalar> 
18225
(
3.59411e-09
7.3984e-06
1.08156e-05
4.78268e-06
-1.19936e-05
-3.94441e-05
-7.69499e-05
-0.000123607
-0.000178405
-0.000240345
-0.000308494
-0.000382017
-0.000460187
-0.000542381
-0.000628077
-0.000716842
-0.000808324
-0.000902235
-0.000998342
-0.00109645
-0.0011964
-0.00129805
-0.00140128
-0.00150594
-0.0016119
-0.00171903
-0.00182717
-0.00193613
-0.0020457
-0.00215567
-0.00226577
-0.00237571
-0.00248519
-0.00259384
-0.00270131
-0.00280717
-0.002911
-0.00301235
-0.00311072
-0.00320561
-0.0032965
-0.00338284
-0.0034641
-0.00353969
-0.00360907
-0.00367166
-0.0037269
-0.00377425
-0.00381317
-0.00384316
-0.00386373
-0.00387445
-0.0038749
-0.00386476
-0.00384371
-0.00381153
-0.00376808
-0.00371326
-0.00364708
-0.00356964
-0.00348114
-0.00338185
-0.00327219
-0.00315264
-0.00302381
-0.00288642
-0.00274134
-0.00258947
-0.00243175
-0.00226943
-0.0021037
-0.00193583
-0.00176722
-0.00159929
-0.00143352
-0.00127142
-0.00111453
-0.000964383
-0.000822499
-0.00069037
-0.000569438
-0.000461078
-0.000366584
-0.000287145
-0.000223837
-0.000177603
-0.000149242
-0.000139396
-0.00014854
-0.000176977
-0.000224828
-0.000292036
-0.000378359
-0.000483375
-0.000606488
-0.000746937
-0.000903799
-0.00107601
-0.00126237
-0.00146156
-0.00167217
-0.00189271
-0.00212162
-0.00235729
-0.0025981
-0.00284241
-0.00308861
-0.00333509
-0.00358029
-0.00382272
-0.00406094
-0.00429358
-0.00451936
-0.00473708
-0.00494564
-0.005144
-0.00533125
-0.00550653
-0.00566906
-0.00581814
-0.00595315
-0.00607355
-0.00617883
-0.0062686
-0.00634254
-0.00640045
-0.0064423
-0.00646829
-0.00647896
-0.00647535
-0.00645925
-0.00643352
-0.00640269
-0.00637363
-0.00635527
-7.41341e-06
-1.96007e-08
2.48239e-06
-4.35046e-06
-2.09825e-05
-4.72342e-05
-8.2644e-05
-0.000126511
-0.000178019
-0.00023633
-0.000300646
-0.000370229
-0.000444429
-0.000522675
-0.000604481
-0.000689437
-0.0007772
-0.000867482
-0.000960048
-0.0010547
-0.00115128
-0.00124961
-0.00134958
-0.00145103
-0.00155383
-0.00165784
-0.00176288
-0.00186878
-0.00197534
-0.00208232
-0.00218949
-0.00229656
-0.00240323
-0.00250916
-0.002614
-0.00271736
-0.00281882
-0.00291794
-0.00301426
-0.0031073
-0.00319656
-0.00328152
-0.00336165
-0.00343642
-0.00350528
-0.00356768
-0.0036231
-0.00367101
-0.00371089
-0.00374225
-0.00376463
-0.00377761
-0.0037808
-0.00377385
-0.00375648
-0.00372848
-0.00368967
-0.00364
-0.00357945
-0.0035081
-0.00342615
-0.00333386
-0.00323161
-0.00311987
-0.00299922
-0.00287036
-0.00273409
-0.00259124
-0.0024428
-0.00228992
-0.00213373
-0.00197546
-0.00181645
-0.00165806
-0.00150171
-0.00134885
-0.00120096
-0.00105951
-0.000925966
-0.000801749
-0.000688248
-0.000586783
-0.000498594
-0.000424823
-0.0003665
-0.000324531
-0.000299678
-0.000292555
-0.000303616
-0.000333147
-0.000381261
-0.000447899
-0.000532823
-0.000635626
-0.000755731
-0.000892401
-0.00104475
-0.00121175
-0.00139224
-0.00158497
-0.00178857
-0.00200161
-0.0022226
-0.00244999
-0.00268222
-0.00291774
-0.00315498
-0.00339241
-0.00362855
-0.00386196
-0.00409126
-0.00431515
-0.00453241
-0.0047419
-0.00494255
-0.00513341
-0.00531358
-0.00548227
-0.00563876
-0.0057824
-0.00591263
-0.00602895
-0.00613095
-0.00621831
-0.0062908
-0.00634831
-0.00639091
-0.0064189
-0.00643289
-0.00643391
-0.00642362
-0.00640452
-0.00638013
-0.00635528
-0.00633691
-1.08212e-05
-2.54947e-06
-1.12081e-07
-7.35883e-06
-2.38019e-05
-4.90038e-05
-8.25548e-05
-0.000123887
-0.000172328
-0.000227183
-0.000287772
-0.000353463
-0.000423678
-0.000497905
-0.000575701
-0.000656683
-0.000740529
-0.000826965
-0.000915758
-0.00100671
-0.00109965
-0.00119442
-0.00129088
-0.00138888
-0.00148829
-0.00158895
-0.0016907
-0.00179336
-0.00189674
-0.00200062
-0.00210475
-0.00220887
-0.00231269
-0.00241589
-0.00251812
-0.00261902
-0.00271818
-0.00281521
-0.00290964
-0.00300103
-0.00308889
-0.00317273
-0.00325205
-0.00332633
-0.00339505
-0.00345768
-0.00351373
-0.00356267
-0.00360401
-0.00363727
-0.00366202
-0.00367784
-0.00368433
-0.00368119
-0.00366811
-0.00364488
-0.00361134
-0.00356741
-0.00351307
-0.00344839
-0.00337354
-0.00328877
-0.00319443
-0.00309096
-0.00297892
-0.00285895
-0.0027318
-0.00259829
-0.00245939
-0.00231614
-0.00216964
-0.00202109
-0.00187174
-0.00172291
-0.00157597
-0.00143231
-0.00129334
-0.00116049
-0.00103515
-0.000918711
-0.000812497
-0.00071778
-0.000635754
-0.000567518
-0.000514063
-0.000476259
-0.000454838
-0.000450391
-0.000463351
-0.000493991
-0.000542416
-0.000608565
-0.000692205
-0.000792939
-0.000910207
-0.0010433
-0.00119134
-0.00135336
-0.00152824
-0.00171475
-0.00191158
-0.00211736
-0.00233064
-0.00254996
-0.0027738
-0.00300066
-0.00322906
-0.00345753
-0.00368465
-0.00390904
-0.00412939
-0.00434446
-0.0045531
-0.00475421
-0.00494681
-0.00512998
-0.00530289
-0.0054648
-0.00561506
-0.00575307
-0.00587834
-0.00599043
-0.00608902
-0.00617384
-0.00624475
-0.00630171
-0.00634487
-0.00637454
-0.00639133
-0.00639617
-0.00639045
-0.00637609
-0.00635531
-0.00633045
-0.00630784
-4.59775e-06
4.35535e-06
6.94928e-06
-5.01356e-07
-1.68868e-05
-4.15043e-05
-7.38947e-05
-0.000113526
-0.000159799
-0.000212102
-0.000269842
-0.000332459
-0.000399446
-0.000470346
-0.000544756
-0.000622329
-0.000702766
-0.000785812
-0.000871248
-0.000958885
-0.00104856
-0.00114011
-0.00123341
-0.00132831
-0.00142468
-0.00152236
-0.00162121
-0.00172104
-0.00182167
-0.00192288
-0.00202445
-0.00212613
-0.00222762
-0.00232863
-0.00242883
-0.00252787
-0.00262536
-0.00272092
-0.00281411
-0.0029045
-0.00299162
-0.00307501
-0.00315417
-0.00322861
-0.00329782
-0.0033613
-0.00341854
-0.00346906
-0.00351236
-0.00354798
-0.00357549
-0.00359446
-0.00360452
-0.00360534
-0.00359663
-0.00357817
-0.00354977
-0.00351136
-0.00346289
-0.00340443
-0.0033361
-0.00325816
-0.0031709
-0.00307476
-0.00297024
-0.00285797
-0.00273866
-0.00261309
-0.0024822
-0.00234698
-0.00220848
-0.00206788
-0.00192638
-0.00178526
-0.00164584
-0.00150948
-0.00137756
-0.00125145
-0.00113252
-0.00102211
-0.000921516
-0.000831986
-0.000754679
-0.000690669
-0.000640923
-0.00060629
-0.000587485
-0.000585083
-0.000599507
-0.000631021
-0.000679727
-0.000745561
-0.000828295
-0.000927537
-0.00104274
-0.00117319
-0.00131807
-0.00147639
-0.00164706
-0.0018289
-0.00202063
-0.00222089
-0.00242829
-0.00264139
-0.00285873
-0.00307885
-0.00330031
-0.0035217
-0.00374163
-0.00395879
-0.00417191
-0.00437981
-0.00458137
-0.00477558
-0.00496149
-0.00513823
-0.00530505
-0.00546124
-0.00560621
-0.00573944
-0.00586046
-0.00596893
-0.00606454
-0.00614711
-0.00621653
-0.00627279
-0.00631605
-0.0063466
-0.00636492
-0.00637176
-0.00636815
-0.00635542
-0.00633462
-0.0063061
-0.006277
1.27864e-05
2.13448e-05
2.33371e-05
1.52738e-05
-1.45151e-06
-2.5975e-05
-5.77798e-05
-9.63382e-05
-0.000141092
-0.000191487
-0.000246995
-0.00030712
-0.000371411
-0.000439463
-0.00051092
-0.000585469
-0.000662843
-0.000742811
-0.000825175
-0.00090976
-0.000996414
-0.001085
-0.00117537
-0.00126742
-0.001361
-0.00145597
-0.00155219
-0.00164949
-0.00174769
-0.00184659
-0.00194598
-0.0020456
-0.00214519
-0.00224447
-0.00234312
-0.0024408
-0.00253715
-0.00263179
-0.00272431
-0.00281429
-0.00290128
-0.00298482
-0.00306444
-0.00313965
-0.00320997
-0.00327489
-0.00333393
-0.00338659
-0.0034324
-0.00347089
-0.00350162
-0.00352418
-0.00353818
-0.00354328
-0.00353919
-0.00352566
-0.00350251
-0.00346963
-0.00342696
-0.00337455
-0.00331249
-0.00324101
-0.00316039
-0.00307102
-0.00297338
-0.00286806
-0.00275574
-0.00263719
-0.00251329
-0.00238499
-0.00225334
-0.00211946
-0.00198453
-0.0018498
-0.00171656
-0.00158615
-0.0014599
-0.00133917
-0.00122531
-0.00111963
-0.00102343
-0.000937907
-0.000864225
-0.000803439
-0.000756505
-0.00072426
-0.000707413
-0.000706531
-0.000722032
-0.000754178
-0.00080307
-0.000868643
-0.000950671
-0.00104877
-0.00116239
-0.00129084
-0.00143329
-0.00158877
-0.00175623
-0.00193446
-0.00212223
-0.00231819
-0.00252098
-0.00272917
-0.00294134
-0.00315606
-0.00337193
-0.00358755
-0.00380159
-0.00401277
-0.00421987
-0.00442175
-0.00461735
-0.00480568
-0.00498584
-0.00515704
-0.00531856
-0.00546976
-0.00561009
-0.00573908
-0.00585633
-0.00596153
-0.00605444
-0.0061349
-0.00620283
-0.00625824
-0.00630124
-0.00633205
-0.00635105
-0.00635871
-0.00635575
-0.00634295
-0.00632045
-0.00628712
-0.00625132
4.15255e-05
4.84411e-05
4.87725e-05
3.94097e-05
2.17898e-05
-3.17222e-06
-3.49263e-05
-7.29496e-05
-0.000116716
-0.000165721
-0.000219489
-0.000277582
-0.000339603
-0.000405196
-0.000474051
-0.000545896
-0.000620496
-0.000697651
-0.000777186
-0.00085895
-0.000942807
-0.00102863
-0.00111631
-0.00120573
-0.00129675
-0.00138927
-0.00148313
-0.00157819
-0.00167427
-0.0017712
-0.00186876
-0.00196672
-0.00206483
-0.00216282
-0.00226039
-0.00235722
-0.00245295
-0.00254722
-0.00263964
-0.00272979
-0.00281725
-0.00290157
-0.00298227
-0.0030589
-0.00313096
-0.00319796
-0.00325941
-0.00331482
-0.00336372
-0.00340564
-0.00344012
-0.00346675
-0.00348513
-0.00349491
-0.00349577
-0.00348745
-0.00346976
-0.00344254
-0.00340574
-0.00335935
-0.00330346
-0.00323825
-0.00316398
-0.00308102
-0.0029898
-0.0028909
-0.00278495
-0.00267271
-0.00255502
-0.0024328
-0.00230707
-0.00217894
-0.00204956
-0.00192016
-0.00179201
-0.00166641
-0.00154471
-0.00142825
-0.00131834
-0.00121632
-0.00112344
-0.00104093
-0.000969924
-0.00091148
-0.000866553
-0.00083598
-0.000820468
-0.000820585
-0.000836752
-0.00086923
-0.000918123
-0.000983368
-0.00106474
-0.00116186
-0.00127418
-0.00140102
-0.00154154
-0.0016948
-0.00185971
-0.00203511
-0.00221976
-0.00241233
-0.00261145
-0.00281572
-0.00302374
-0.0032341
-0.0034454
-0.00365629
-0.00386546
-0.00407165
-0.00427369
-0.00447046
-0.00466095
-0.00484422
-0.00501942
-0.00518578
-0.00534264
-0.00548943
-0.00562562
-0.00575081
-0.00586465
-0.00596688
-0.00605728
-0.00613573
-0.00620216
-0.00625658
-0.00629905
-0.00632973
-0.00634883
-0.00635662
-0.00635351
-0.00633987
-0.00631513
-0.00627713
-0.0062354
8.12447e-05
8.53626e-05
8.29766e-05
7.15573e-05
5.24245e-05
2.64636e-05
-5.77117e-06
-4.37721e-05
-8.70476e-05
-0.000135137
-0.000187618
-0.000244105
-0.000304254
-0.000367758
-0.000434354
-0.000503811
-0.000575932
-0.000650551
-0.000727522
-0.000806719
-0.000888032
-0.000971355
-0.00105659
-0.00114364
-0.00123239
-0.00132274
-0.00141456
-0.00150771
-0.00160203
-0.00169737
-0.00179351
-0.00189025
-0.00198735
-0.00208455
-0.00218156
-0.00227808
-0.00237377
-0.00246827
-0.00256121
-0.00265219
-0.00274078
-0.00282654
-0.00290901
-0.00298774
-0.00306222
-0.00313198
-0.00319652
-0.00325535
-0.00330797
-0.00335392
-0.00339274
-0.00342397
-0.00344722
-0.00346211
-0.00346831
-0.00346553
-0.00345354
-0.00343217
-0.00340133
-0.003361
-0.00331122
-0.00325215
-0.00318401
-0.00310714
-0.00302196
-0.002929
-0.00282887
-0.0027223
-0.0026101
-0.00249318
-0.00237255
-0.00224927
-0.00212449
-0.00199942
-0.00187533
-0.00175352
-0.00163531
-0.00152203
-0.00141503
-0.00131561
-0.00122504
-0.00114455
-0.00107527
-0.00101828
-0.00097454
-0.000944886
-0.000930037
-0.000930568
-0.000946906
-0.000979321
-0.00102792
-0.00109265
-0.00117328
-0.00126945
-0.0013806
-0.00150605
-0.00164497
-0.00179641
-0.00195929
-0.00213245
-0.00231464
-0.00250453
-0.00270077
-0.00290195
-0.00310668
-0.00331355
-0.00352119
-0.00372825
-0.00393344
-0.00413554
-0.00433338
-0.00452589
-0.00471207
-0.00489104
-0.00506197
-0.00522416
-0.00537698
-0.0055199
-0.00565246
-0.00577428
-0.00588506
-0.00598459
-0.00607269
-0.00614926
-0.00621422
-0.00626758
-0.00630936
-0.00633964
-0.00635849
-0.00636601
-0.00636236
-0.0063476
-0.00632066
-0.00627868
-0.0062322
0.000131225
0.000131537
0.000125463
0.000111242
8.99743e-05
6.24579e-05
2.92272e-05
-9.237e-06
-5.24831e-05
-0.000100098
-0.000151711
-0.000206989
-0.000265639
-0.000327409
-0.000392079
-0.000459465
-0.00052941
-0.000601785
-0.000676476
-0.000753389
-0.000832439
-0.000913545
-0.000996632
-0.00108162
-0.00116842
-0.00125694
-0.00134708
-0.0014387
-0.00153169
-0.00162586
-0.00172106
-0.00181707
-0.00191369
-0.00201065
-0.00210769
-0.00220451
-0.00230079
-0.00239619
-0.00249034
-0.00258284
-0.00267328
-0.00276122
-0.00284621
-0.00292778
-0.00300544
-0.0030787
-0.00314706
-0.00321001
-0.00326706
-0.00331771
-0.00336148
-0.00339792
-0.00342659
-0.00344709
-0.00345906
-0.00346218
-0.00345621
-0.00344093
-0.00341622
-0.00338202
-0.00333836
-0.00328534
-0.00322318
-0.00315216
-0.00307269
-0.00298526
-0.00289046
-0.002789
-0.00268166
-0.00256935
-0.00245303
-0.00233378
-0.00221272
-0.00209107
-0.00197008
-0.00185106
-0.00173532
-0.00162422
-0.00151908
-0.00142124
-0.00133197
-0.00125251
-0.00118401
-0.00112756
-0.00108414
-0.0010546
-0.00103967
-0.00103994
-0.00105586
-0.0010877
-0.00113559
-0.00119947
-0.00127913
-0.0013742
-0.00148413
-0.00160825
-0.00174571
-0.00189557
-0.00205674
-0.00222806
-0.00240826
-0.00259602
-0.00278998
-0.00298873
-0.00319086
-0.00339498
-0.00359972
-0.00380372
-0.00400572
-0.0042045
-0.00439891
-0.00458791
-0.00477053
-0.0049459
-0.00511324
-0.00527188
-0.00542122
-0.0055608
-0.00569021
-0.00580908
-0.00591718
-0.0060143
-0.00610033
-0.00617516
-0.00623874
-0.00629105
-0.00633207
-0.00636182
-0.00638026
-0.00638736
-0.00638308
-0.00636726
-0.00633849
-0.00629349
-0.00624354
0.000190556
0.000186199
0.000175573
0.000157856
0.000133862
0.00010426
6.95487e-05
3.01712e-05
-1.34695e-05
-6.10125e-05
-0.00011214
-0.000166575
-0.000224078
-0.000284448
-0.000347518
-0.000413147
-0.000481225
-0.000551658
-0.000624373
-0.000699308
-0.000776406
-0.000855616
-0.000936888
-0.00102016
-0.00110538
-0.00119247
-0.00128133
-0.00137188
-0.00146398
-0.00155749
-0.00165226
-0.00174811
-0.00184482
-0.00194216
-0.00203987
-0.00213767
-0.00223525
-0.00233228
-0.00242839
-0.00252319
-0.00261627
-0.0027072
-0.00279551
-0.00288075
-0.0029624
-0.00303997
-0.00311295
-0.00318081
-0.00324304
-0.00329912
-0.00334855
-0.00339085
-0.00342555
-0.00345221
-0.00347046
-0.00347993
-0.00348034
-0.00347146
-0.00345311
-0.0034252
-0.00338774
-0.00334078
-0.0032845
-0.00321918
-0.00314517
-0.00306294
-0.00297307
-0.00287623
-0.00277321
-0.00266487
-0.00255218
-0.0024362
-0.00231807
-0.00219898
-0.00208019
-0.00196302
-0.00184879
-0.00173887
-0.00163461
-0.00153733
-0.00144835
-0.00136893
-0.00130023
-0.00124337
-0.00119935
-0.00116904
-0.00115321
-0.00115245
-0.00116724
-0.00119787
-0.00124448
-0.00130703
-0.00138532
-0.00147897
-0.00158746
-0.0017101
-0.00184606
-0.00199436
-0.00215395
-0.00232362
-0.00250211
-0.00268809
-0.00288017
-0.00307696
-0.00327702
-0.00347896
-0.00368139
-0.00388298
-0.00408244
-0.00427856
-0.00447022
-0.00465638
-0.00483608
-0.00500849
-0.00517286
-0.00532854
-0.00547499
-0.00561172
-0.00573838
-0.00585473
-0.00596051
-0.00605555
-0.00613976
-0.00621304
-0.00627537
-0.00632671
-0.00636701
-0.00639624
-0.00641428
-0.00642099
-0.00641619
-0.00639959
-0.00636957
-0.0063226
-0.00627046
0.000258228
0.000248465
0.000232533
0.000210692
0.000183429
0.000151254
0.000114618
7.39167e-05
2.94961e-05
-1.83405e-05
-6.93333e-05
-0.000123263
-0.000179947
-0.00023924
-0.000301025
-0.000365213
-0.000431736
-0.000500547
-0.000571608
-0.000644895
-0.000720385
-0.000798057
-0.000877888
-0.000959848
-0.0010439
-0.00112999
-0.00121805
-0.001308
-0.00139975
-0.00149316
-0.0015881
-0.00168439
-0.00178185
-0.00188025
-0.00197936
-0.00207889
-0.00217855
-0.002278
-0.0023769
-0.00247485
-0.00257143
-0.00266623
-0.00275876
-0.00284855
-0.00293509
-0.00301786
-0.00309633
-0.00316996
-0.0032382
-0.00330052
-0.00335638
-0.00340526
-0.00344667
-0.00348013
-0.00350523
-0.00352157
-0.00352882
-0.00352671
-0.00351503
-0.00349365
-0.00346254
-0.00342171
-0.00337133
-0.00331161
-0.0032429
-0.00316563
-0.00308037
-0.00298776
-0.00288857
-0.00278366
-0.00267399
-0.00256061
-0.00244466
-0.00232733
-0.00220991
-0.0020937
-0.00198006
-0.00187036
-0.00176597
-0.00166826
-0.00157856
-0.00149814
-0.00142823
-0.00136995
-0.00132433
-0.0012923
-0.00127463
-0.00127196
-0.00128478
-0.00131341
-0.00135802
-0.00141858
-0.00149491
-0.00158665
-0.00169327
-0.00181409
-0.00194827
-0.00209486
-0.00225276
-0.00242077
-0.00259763
-0.00278197
-0.00297241
-0.00316752
-0.00336586
-0.00356602
-0.0037666
-0.00396625
-0.0041637
-0.00435771
-0.00454718
-0.00473106
-0.00490843
-0.00507845
-0.00524039
-0.00539365
-0.0055377
-0.0056721
-0.00579654
-0.00591076
-0.00601458
-0.00610785
-0.00619051
-0.00626249
-0.00632376
-0.00637428
-0.00641399
-0.00644281
-0.00646058
-0.00646707
-0.00646203
-0.00644507
-0.00641446
-0.00636658
-0.00631344
0.000333177
0.000317377
0.000295485
0.000268967
0.000237948
0.000202762
0.000163803
0.000121408
7.58601e-05
2.73989e-05
-2.37792e-05
-7.75167e-05
-0.000133692
-0.000192216
-0.000253028
-0.00031609
-0.000381383
-0.000448903
-0.000518656
-0.000590655
-0.000664913
-0.000741442
-0.00082025
-0.000901335
-0.000984685
-0.00107027
-0.00115806
-0.00124798
-0.00133996
-0.00143389
-0.00152965
-0.00162708
-0.00172602
-0.00182625
-0.00192754
-0.00202963
-0.00213222
-0.00223499
-0.00233758
-0.0024396
-0.00254065
-0.00264026
-0.00273798
-0.0028333
-0.0029257
-0.00301463
-0.00309955
-0.00317989
-0.00325506
-0.0033245
-0.00338763
-0.00344391
-0.00349279
-0.00353377
-0.00356637
-0.00359018
-0.0036048
-0.00360992
-0.00360531
-0.00359078
-0.00356626
-0.00353173
-0.00348732
-0.00343322
-0.00336973
-0.00329727
-0.00321638
-0.00312769
-0.00303194
-0.00293
-0.0028228
-0.00271141
-0.00259696
-0.00248066
-0.0023638
-0.00224769
-0.00213373
-0.0020233
-0.0019178
-0.00181863
-0.00172715
-0.00164468
-0.00157247
-0.00151169
-0.0014634
-0.00142857
-0.00140801
-0.0014024
-0.00141227
-0.00143797
-0.00147968
-0.00153742
-0.00161101
-0.00170012
-0.00180424
-0.00192268
-0.00205463
-0.0021991
-0.00235501
-0.00252115
-0.00269623
-0.00287888
-0.0030677
-0.00326122
-0.00345801
-0.00365663
-0.00385565
-0.00405372
-0.00424953
-0.00444187
-0.00462961
-0.0048117
-0.00498723
-0.00515536
-0.0053154
-0.00546673
-0.00560887
-0.00574141
-0.00586405
-0.00597657
-0.00607882
-0.00617068
-0.00625211
-0.00632307
-0.00638352
-0.00643344
-0.00647277
-0.00650138
-0.0065191
-0.00652566
-0.00652074
-0.00650391
-0.00647342
-0.00642563
-0.00637257
0.000414301
0.000391922
0.000363505
0.000331827
0.000296625
0.000258042
0.000216405
0.000171989
0.000125006
7.56226e-05
2.39673e-05
-2.98689e-05
-8.58287e-05
-0.000143884
-0.000204031
-0.000266287
-0.000330683
-0.000397263
-0.000466077
-0.000537177
-0.000610616
-0.000686439
-0.000764687
-0.000845389
-0.00092856
-0.0010142
-0.0011023
-0.00119281
-0.00128568
-0.00138082
-0.00147813
-0.00157748
-0.0016787
-0.0017816
-0.00188595
-0.0019915
-0.00209796
-0.00220501
-0.00231229
-0.00241941
-0.00252594
-0.00263143
-0.00273539
-0.0028373
-0.00293662
-0.00303277
-0.00312518
-0.00321324
-0.00329634
-0.00337387
-0.00344522
-0.00350979
-0.00356699
-0.00361628
-0.00365714
-0.00368909
-0.0037117
-0.00372462
-0.00372756
-0.00372029
-0.00370269
-0.00367473
-0.00363647
-0.00358808
-0.00352983
-0.00346213
-0.00338546
-0.00330046
-0.00320784
-0.00310847
-0.00300329
-0.00289334
-0.00277977
-0.0026638
-0.00254673
-0.0024299
-0.00231472
-0.00220261
-0.002095
-0.00199332
-0.00189897
-0.00181332
-0.00173765
-0.00167319
-0.00162105
-0.00158223
-0.0015576
-0.00154788
-0.00155364
-0.00157528
-0.00161301
-0.00166689
-0.00173678
-0.00182235
-0.00192311
-0.0020384
-0.00216741
-0.00230915
-0.00246254
-0.00262637
-0.00279932
-0.00298002
-0.00316703
-0.00335888
-0.00355411
-0.00375124
-0.00394883
-0.00414552
-0.00433997
-0.00453094
-0.0047173
-0.00489799
-0.0050721
-0.00523879
-0.00539737
-0.00554724
-0.00568793
-0.00581906
-0.00594035
-0.0060516
-0.00615267
-0.0062435
-0.00632405
-0.0063943
-0.00645424
-0.00650385
-0.00654306
-0.00657175
-0.00658973
-0.00659669
-0.00659232
-0.00657615
-0.00654645
-0.00649968
-0.00644767
0.000500471
0.000471044
0.000435611
0.000398354
0.000358599
0.000316284
0.000271665
0.000224942
0.00017625
0.000125678
7.32796e-05
1.90738e-05
-3.69501e-05
-9.48286e-05
-0.000154619
-0.000216395
-0.000280242
-0.000346252
-0.000414521
-0.000485144
-0.000558212
-0.000633808
-0.000712007
-0.000792869
-0.000876441
-0.00096275
-0.00105181
-0.0011436
-0.00123809
-0.00133521
-0.00143488
-0.00153699
-0.00164138
-0.00174786
-0.00185624
-0.00196625
-0.00207761
-0.00219
-0.00230305
-0.00241637
-0.00252952
-0.00264202
-0.00275337
-0.00286303
-0.00297041
-0.00307493
-0.00317596
-0.00327286
-0.00336498
-0.00345167
-0.00353226
-0.0036061
-0.00367258
-0.00373108
-0.00378103
-0.00382191
-0.00385323
-0.0038746
-0.00388567
-0.00388617
-0.00387595
-0.00385491
-0.00382308
-0.0037806
-0.00372771
-0.00366478
-0.00359229
-0.00351083
-0.00342113
-0.00332402
-0.00322044
-0.00311145
-0.00299819
-0.0028819
-0.00276389
-0.00264553
-0.00252825
-0.0024135
-0.00230275
-0.00219747
-0.00209911
-0.00200908
-0.00192872
-0.0018593
-0.001802
-0.00175787
-0.00172783
-0.00171266
-0.00171299
-0.00172926
-0.00176173
-0.00181051
-0.00187548
-0.00195636
-0.00205269
-0.00216383
-0.00228896
-0.00242713
-0.00257724
-0.00273808
-0.00290833
-0.00308659
-0.00327142
-0.00346131
-0.00365477
-0.0038503
-0.00404645
-0.0042418
-0.004435
-0.0046248
-0.00481002
-0.00498962
-0.00516264
-0.00532827
-0.0054858
-0.00563463
-0.00577431
-0.00590446
-0.00602483
-0.00613523
-0.00623555
-0.00632575
-0.0064058
-0.00647571
-0.00653548
-0.00658511
-0.00662454
-0.00665364
-0.00667223
-0.00668
-0.00667663
-0.00666166
-0.00663341
-0.00658847
-0.00653836
0.000590523
0.000553638
0.000510767
0.000467573
0.00042295
0.000376618
0.000328753
0.000279478
0.000228838
0.00017684
0.000123455
6.86262e-05
1.22692e-05
-4.57206e-05
-0.000105465
-0.000167096
-0.000230755
-0.000296586
-0.000364732
-0.000435331
-0.000508517
-0.00058441
-0.000663119
-0.00074474
-0.000829349
-0.000917002
-0.00100774
-0.00110157
-0.00119848
-0.00129843
-0.00140135
-0.00150714
-0.00161567
-0.00172676
-0.0018402
-0.00195576
-0.00207314
-0.00219202
-0.00231202
-0.00243274
-0.00255372
-0.00267447
-0.00279445
-0.0029131
-0.0030298
-0.00314393
-0.00325481
-0.00336177
-0.0034641
-0.0035611
-0.00365206
-0.00373627
-0.00381307
-0.00388177
-0.00394176
-0.00399245
-0.00403332
-0.0040639
-0.0040838
-0.0040927
-0.00409039
-0.00407674
-0.00405173
-0.00401547
-0.00396817
-0.00391015
-0.00384187
-0.00376392
-0.00367699
-0.00358191
-0.00347962
-0.00337116
-0.0032577
-0.00314048
-0.00302083
-0.00290014
-0.00277986
-0.0026615
-0.00254655
-0.00243654
-0.00233296
-0.00223727
-0.00215088
-0.00207512
-0.00201122
-0.0019603
-0.00192336
-0.00190124
-0.00189461
-0.001904
-0.00192972
-0.00197192
-0.00203055
-0.00210537
-0.00219595
-0.00230167
-0.00242175
-0.00255526
-0.00270109
-0.00285804
-0.00302478
-0.0031999
-0.00338193
-0.00356936
-0.00376066
-0.00395431
-0.00414881
-0.00434272
-0.00453466
-0.00472334
-0.00490758
-0.00508627
-0.00525848
-0.00542335
-0.00558016
-0.00572834
-0.00586741
-0.00599701
-0.00611688
-0.00622687
-0.00632687
-0.00641684
-0.00649681
-0.00656678
-0.00662678
-0.00667681
-0.00671683
-0.00674673
-0.00676632
-0.00677533
-0.00677342
-0.00676017
-0.00673398
-0.00669163
-0.00664413
0.00068326
0.000638562
0.000587888
0.000538451
0.000488694
0.000438105
0.000386774
0.000334736
0.000281943
0.000228307
0.000173713
0.000118021
6.10704e-05
2.68324e-06
-5.73288e-05
-0.000119161
-0.000183012
-0.000249078
-0.000317551
-0.000388616
-0.000462447
-0.000539204
-0.000619035
-0.000702067
-0.000788408
-0.000878147
-0.000971347
-0.00106805
-0.00116826
-0.00127196
-0.00137909
-0.00148958
-0.0016033
-0.00172009
-0.00183975
-0.00196203
-0.00208664
-0.00221325
-0.00234148
-0.00247089
-0.00260103
-0.00273135
-0.00286132
-0.0029903
-0.00311767
-0.00324274
-0.00336481
-0.00348314
-0.00359697
-0.00370556
-0.00380812
-0.00390391
-0.00399217
-0.00407219
-0.00414327
-0.00420479
-0.00425614
-0.00429681
-0.00432635
-0.00434439
-0.00435066
-0.00434499
-0.00432732
-0.0042977
-0.00425631
-0.00420345
-0.00413954
-0.00406514
-0.00398094
-0.00388774
-0.00378648
-0.00367821
-0.00356408
-0.00344536
-0.00332339
-0.00319959
-0.00307544
-0.00295247
-0.00283224
-0.00271631
-0.00260623
-0.00250353
-0.00240967
-0.00232605
-0.00225398
-0.00219466
-0.00214915
-0.00211837
-0.00210307
-0.00210385
-0.0021211
-0.00215503
-0.00220564
-0.00227276
-0.00235601
-0.00245481
-0.00256841
-0.0026959
-0.00283619
-0.00298809
-0.00315028
-0.00332132
-0.00349974
-0.003684
-0.00387255
-0.00406382
-0.0042563
-0.00444851
-0.00463903
-0.00482652
-0.00500978
-0.00518768
-0.00535924
-0.00552358
-0.00567998
-0.00582784
-0.00596667
-0.00609611
-0.00621591
-0.00632591
-0.00642603
-0.00651623
-0.00659654
-0.00666701
-0.00672765
-0.0067785
-0.00681953
-0.00685064
-0.00687167
-0.00688236
-0.00688239
-0.00687136
-0.00684779
-0.00680867
-0.0067644
0.000777447
0.000724623
0.000665834
0.000609899
0.000554787
0.000499745
0.000444766
0.000389789
0.000334662
0.000279199
0.00022319
0.000166408
0.000108608
4.95363e-05
-1.10653e-05
-7.34571e-05
-0.000137897
-0.000204636
-0.000273918
-0.000345973
-0.000421018
-0.000499256
-0.000580868
-0.000666019
-0.000754851
-0.00084748
-0.000943998
-0.00104447
-0.00114893
-0.00125738
-0.00136978
-0.00148607
-0.00160613
-0.00172981
-0.00185691
-0.00198718
-0.00212033
-0.00225601
-0.00239383
-0.00253334
-0.00267404
-0.00281538
-0.00295677
-0.00309754
-0.00323703
-0.0033745
-0.00350919
-0.00364031
-0.00376705
-0.0038886
-0.00400411
-0.00411278
-0.00421378
-0.00430635
-0.00438971
-0.00446317
-0.00452608
-0.00457784
-0.00461796
-0.00464601
-0.00466165
-0.00466468
-0.00465497
-0.00463254
-0.00459753
-0.00455018
-0.0044909
-0.00442022
-0.0043388
-0.00424742
-0.00414703
-0.00403865
-0.00392346
-0.00380271
-0.00367778
-0.0035501
-0.00342119
-0.00329262
-0.00316599
-0.0030429
-0.00292498
-0.00281381
-0.00271094
-0.00261783
-0.00253588
-0.00246637
-0.00241044
-0.00236911
-0.00234323
-0.00233345
-0.00234027
-0.00236398
-0.00240466
-0.00246219
-0.00253627
-0.00262637
-0.00273178
-0.00285163
-0.00298487
-0.0031303
-0.00328662
-0.0034524
-0.00362614
-0.0038063
-0.00399128
-0.00417951
-0.00436941
-0.00455948
-0.00474825
-0.00493435
-0.00511653
-0.00529362
-0.00546461
-0.00562859
-0.0057848
-0.00593262
-0.00607154
-0.00620121
-0.00632134
-0.00643179
-0.00653247
-0.00662335
-0.00670447
-0.00677588
-0.00683763
-0.00688975
-0.00693223
-0.006965
-0.00698791
-0.00700073
-0.00700316
-0.00699484
-0.0069744
-0.00693906
-0.00689854
0.000871801
0.000810586
0.000743416
0.000680771
0.000620127
0.000560473
0.000501697
0.000443634
0.00038602
0.00032856
0.000270945
0.000212851
0.000153948
9.39017e-05
3.23799e-05
-3.09451e-05
-9.63925e-05
-0.00016427
-0.000234873
-0.000308479
-0.00038535
-0.000465729
-0.000549837
-0.000637872
-0.00073001
-0.000826398
-0.000927158
-0.00103238
-0.00114212
-0.0012564
-0.0013752
-0.00149847
-0.0016261
-0.00175794
-0.00189381
-0.00203343
-0.00217652
-0.00232272
-0.0024716
-0.0026227
-0.00277549
-0.00292938
-0.00308373
-0.00323785
-0.00339102
-0.00354244
-0.0036913
-0.00383675
-0.00397792
-0.00411391
-0.00424385
-0.00436683
-0.00448198
-0.00458844
-0.00468538
-0.00477205
-0.00484771
-0.00491171
-0.00496348
-0.00500254
-0.00502849
-0.00504106
-0.00504009
-0.00502553
-0.00499746
-0.00495612
-0.00490185
-0.00483516
-0.00475667
-0.00466716
-0.00456755
-0.00445886
-0.00434226
-0.00421902
-0.00409052
-0.00395822
-0.00382368
-0.00368849
-0.0035543
-0.00342278
-0.00329561
-0.00317445
-0.00306091
-0.00295656
-0.00286287
-0.00278122
-0.00271286
-0.0026589
-0.00262028
-0.00259778
-0.00259199
-0.00260327
-0.00263183
-0.00267762
-0.0027404
-0.00281974
-0.00291497
-0.00302529
-0.00314966
-0.00328694
-0.00343582
-0.00359489
-0.00376264
-0.00393751
-0.00411789
-0.00430217
-0.00448874
-0.00467605
-0.00486259
-0.00504695
-0.00522781
-0.00540397
-0.00557437
-0.00573805
-0.00589423
-0.00604224
-0.00618156
-0.00631179
-0.00643265
-0.00654397
-0.00664565
-0.00673768
-0.00682008
-0.00689292
-0.00695625
-0.00701011
-0.00705451
-0.0070894
-0.00711466
-0.00713008
-0.00713536
-0.0071302
-0.00711334
-0.00708227
-0.00704592
0.000964997
0.000895162
0.00081939
0.000749865
0.00068355
0.00061916
0.000556471
0.000495201
0.000434966
0.000375356
0.000315952
0.000256331
0.000196071
0.000134753
7.19683e-05
7.31938e-06
-5.95764e-05
-0.000129085
-0.000201554
-0.000277311
-0.000356661
-0.00043989
-0.000527257
-0.000618997
-0.000715319
-0.000816402
-0.000922394
-0.00103341
-0.00114954
-0.00127081
-0.00139722
-0.00152873
-0.00166525
-0.00180663
-0.00195267
-0.00210311
-0.00225764
-0.00241588
-0.0025774
-0.00274168
-0.00290817
-0.00307625
-0.00324523
-0.00341436
-0.00358287
-0.00374991
-0.0039146
-0.00407603
-0.00423326
-0.00438533
-0.00453127
-0.00467013
-0.00480094
-0.00492279
-0.00503476
-0.00513602
-0.00522577
-0.00530329
-0.00536793
-0.00541915
-0.00545648
-0.0054796
-0.00548826
-0.00548238
-0.00546199
-0.00542726
-0.00537851
-0.00531619
-0.00524091
-0.00515342
-0.0050546
-0.00494547
-0.0048272
-0.00470106
-0.00456843
-0.00443081
-0.00428976
-0.00414693
-0.00400402
-0.00386275
-0.00372487
-0.00359211
-0.00346616
-0.0033487
-0.00324128
-0.0031454
-0.0030624
-0.00299353
-0.00293983
-0.00290221
-0.00288135
-0.00287777
-0.00289174
-0.00292334
-0.00297243
-0.00303865
-0.00312143
-0.00322001
-0.00333342
-0.00346055
-0.00360014
-0.00375077
-0.00391095
-0.0040791
-0.00425361
-0.00443282
-0.00461509
-0.00479883
-0.00498248
-0.00516457
-0.00534373
-0.00551871
-0.00568838
-0.00585175
-0.00600798
-0.00615635
-0.00629631
-0.00642741
-0.00654936
-0.00666196
-0.00676509
-0.00685874
-0.00694291
-0.00701767
-0.00708307
-0.00713917
-0.00718598
-0.00722347
-0.00725156
-0.00727002
-0.00727859
-0.00727702
-0.00726416
-0.00723775
-0.00720592
0.00105566
0.000977015
0.000892463
0.000815926
0.000743834
0.000674617
0.000607924