/*--------------------------------*- C++ -*----------------------------------*\
  =========                 |
  \\      /  F ield         | OpenFOAM: The Open Source CFD Toolbox
   \\    /   O peration     | Website:  https://openfoam.org
    \\  /    A nd           | Version:  12
     \\/     M anipulation  |
\*---------------------------------------------------------------------------*/
FoamFile
{
    format      ascii;
    class       volScalarField;
    location    "3";
    object      epsilon;
}
// * * * * * * * * * * * * * * * * * * * * * * * * * * * * * * * * * * * * * //

dimensions      [0 2 -3 0 0 0 0];

internalField   nonuniform List<scalar> 
5625
(
2.79063e-08
1.39321e-07
3.04035e-07
5.00188e-07
7.1742e-07
9.4916e-07
1.19047e-06
1.43737e-06
1.68651e-06
1.93509e-06
2.18073e-06
2.42149e-06
2.6558e-06
2.88246e-06
3.10064e-06
3.30981e-06
3.50975e-06
3.70045e-06
3.88214e-06
4.05515e-06
4.21991e-06
4.3769e-06
4.52655e-06
4.66925e-06
4.80529e-06
4.93484e-06
5.05791e-06
5.17438e-06
5.28396e-06
5.38622e-06
5.4806e-06
5.56639e-06
5.64279e-06
5.70892e-06
5.76382e-06
5.80649e-06
5.83591e-06
5.85086e-06
5.85132e-06
5.83601e-06
5.80411e-06
5.75504e-06
5.68838e-06
5.6039e-06
5.5016e-06
5.38169e-06
5.24465e-06
5.09116e-06
4.92218e-06
4.73885e-06
4.54256e-06
4.33485e-06
4.11744e-06
3.89215e-06
3.66086e-06
3.42549e-06
3.18795e-06
2.95009e-06
2.71363e-06
2.48021e-06
2.25128e-06
2.02811e-06
1.81179e-06
1.60323e-06
1.40316e-06
1.21213e-06
1.03063e-06
8.59019e-07
6.97675e-07
5.47086e-07
4.07974e-07
2.81534e-07
1.69923e-07
7.75557e-08
1.55195e-08
1.3949e-07
1.13647e-07
1.70498e-07
2.54404e-07
3.5244e-07
4.59179e-07
5.71438e-07
6.86959e-07
8.03975e-07
9.21048e-07
1.03699e-06
1.15083e-06
1.2618e-06
1.36929e-06
1.47289e-06
1.57233e-06
1.66747e-06
1.7583e-06
1.84488e-06
1.92738e-06
2.00597e-06
2.08085e-06
2.15223e-06
2.22026e-06
2.28507e-06
2.34674e-06
2.40525e-06
2.46054e-06
2.51248e-06
2.56085e-06
2.60538e-06
2.64574e-06
2.68155e-06
2.7124e-06
2.73784e-06
2.75742e-06
2.77065e-06
2.77701e-06
2.77646e-06
2.76842e-06
2.75254e-06
2.72855e-06
2.69628e-06
2.65564e-06
2.60663e-06
2.5494e-06
2.48415e-06
2.41124e-06
2.3311e-06
2.2443e-06
2.15147e-06
2.05334e-06
1.9507e-06
1.8444e-06
1.73531e-06
1.62432e-06
1.51231e-06
1.40013e-06
1.2886e-06
1.17846e-06
1.07039e-06
9.65005e-07
8.62808e-07
7.64238e-07
6.69653e-07
5.7935e-07
4.93585e-07
4.12577e-07
3.36587e-07
2.65972e-07
2.01313e-07
1.43689e-07
9.54594e-08
6.32346e-08
7.75062e-08
3.05916e-07
1.71691e-07
1.75701e-07
2.17095e-07
2.75719e-07
3.4408e-07
4.18392e-07
4.96324e-07
5.76238e-07
6.56892e-07
7.37301e-07
8.16679e-07
8.94401e-07
9.69986e-07
1.04308e-06
1.11345e-06
1.18096e-06
1.24554e-06
1.30724e-06
1.3661e-06
1.42222e-06
1.47573e-06
1.52673e-06
1.57531e-06
1.62154e-06
1.66546e-06
1.70703e-06
1.74621e-06
1.78288e-06
1.81689e-06
1.84805e-06
1.87611e-06
1.90082e-06
1.92189e-06
1.93903e-06
1.95192e-06
1.96021e-06
1.9636e-06
1.96208e-06
1.95524e-06
1.94288e-06
1.92485e-06
1.90104e-06
1.87144e-06
1.83607e-06
1.79504e-06
1.74853e-06
1.69679e-06
1.64014e-06
1.57897e-06
1.51373e-06
1.4449e-06
1.37305e-06
1.29872e-06
1.22253e-06
1.14506e-06
1.06692e-06
9.88667e-07
9.10863e-07
8.34015e-07
7.58592e-07
6.85014e-07
6.1365e-07
5.44822e-07
4.78811e-07
4.1587e-07
3.56245e-07
3.00197e-07
2.48069e-07
2.00375e-07
1.57993e-07
1.2261e-07
9.80093e-08
9.50488e-08
1.69355e-07
5.0759e-07
2.58741e-07
2.19792e-07
2.32071e-07
2.66735e-07
3.13725e-07
3.68242e-07
4.27503e-07
4.89673e-07
5.53427e-07
6.17754e-07
6.81861e-07
7.45124e-07
8.07056e-07
8.6729e-07
9.25563e-07
9.81702e-07
1.03561e-06
1.08726e-06
1.13665e-06
1.18384e-06
1.22887e-06
1.2718e-06
1.31269e-06
1.35156e-06
1.38842e-06
1.42323e-06
1.45592e-06
1.4864e-06
1.51453e-06
1.54014e-06
1.56305e-06
1.58304e-06
1.59988e-06
1.61334e-06
1.62318e-06
1.62906e-06
1.63089e-06
1.62859e-06
1.62186e-06
1.61058e-06
1.59464e-06
1.57399e-06
1.54862e-06
1.51859e-06
1.484e-06
1.44501e-06
1.40185e-06
1.35477e-06
1.30411e-06
1.25022e-06
1.19352e-06
1.13443e-06
1.07342e-06
1.01095e-06
9.47502e-07
8.83553e-07
8.19562e-07
7.55967e-07
6.93183e-07
6.31591e-07
5.7154e-07
5.13347e-07
4.57302e-07
4.03674e-07
3.52732e-07
3.04765e-07
2.60121e-07
2.19284e-07
1.82997e-07
1.52526e-07
1.3027e-07
1.21573e-07
1.42165e-07
2.79189e-07
7.36904e-07
3.63053e-07
2.83327e-07
2.7116e-07
2.87419e-07
3.19182e-07
3.6048e-07
4.07971e-07
4.59519e-07
5.1362e-07
5.69145e-07
6.25216e-07
6.81143e-07
7.36379e-07
7.90504e-07
8.432e-07
8.94244e-07
9.43487e-07
9.90843e-07
1.03627e-06
1.07977e-06
1.12135e-06
1.16103e-06
1.19883e-06
1.23474e-06
1.26875e-06
1.30082e-06
1.33086e-06
1.35878e-06
1.38445e-06
1.40772e-06
1.42841e-06
1.44634e-06
1.46132e-06
1.47314e-06
1.4816e-06
1.48636e-06
1.48746e-06
1.48478e-06
1.47807e-06
1.46722e-06
1.45217e-06
1.43287e-06
1.40934e-06
1.38162e-06
1.34982e-06
1.31409e-06
1.27463e-06
1.23168e-06
1.18555e-06
1.13656e-06
1.08508e-06
1.0315e-06
9.76235e-07
9.19716e-07
8.62373e-07
8.04636e-07
7.46923e-07
6.89634e-07
6.33149e-07
5.77821e-07
5.2398e-07
4.7193e-07
4.21963e-07
3.74367e-07
3.29447e-07
2.87556e-07
2.49148e-07
2.1486e-07
1.85673e-07
1.63243e-07
1.50708e-07
1.55045e-07
1.97541e-07
4.01574e-07
9.90263e-07
4.80518e-07
3.59601e-07
3.24868e-07
3.25364e-07
3.44865e-07
3.76165e-07
4.15322e-07
4.59824e-07
5.07913e-07
5.58316e-07
6.10033e-07
6.62269e-07
7.14389e-07
7.65893e-07
8.16393e-07
8.656e-07
9.13307e-07
9.59374e-07
1.00372e-06
1.04629e-06
1.08706e-06
1.12602e-06
1.16316e-06
1.19846e-06
1.23188e-06
1.26337e-06
1.29284e-06
1.3202e-06
1.34532e-06
1.36806e-06
1.38825e-06
1.40572e-06
1.42028e-06
1.43176e-06
1.43997e-06
1.44455e-06
1.44562e-06
1.44304e-06
1.43657e-06
1.42609e-06
1.41155e-06
1.39288e-06
1.37011e-06
1.34327e-06
1.31245e-06
1.27781e-06
1.23952e-06
1.19783e-06
1.15302e-06
1.10542e-06
1.05538e-06
1.0033e-06
9.49592e-07
8.94688e-07
8.39022e-07
7.83026e-07
7.27123e-07
6.71719e-07
6.172e-07
5.63926e-07
5.1224e-07
4.62462e-07
4.14907e-07
3.69897e-07
3.27786e-07
2.88997e-07
2.54085e-07
2.2384e-07
1.99483e-07
1.83062e-07
1.78439e-07
1.9437e-07
2.58333e-07
5.33221e-07
1.26575e-06
6.09319e-07
4.4568e-07
3.88958e-07
3.75073e-07
3.84048e-07
4.07262e-07
4.40072e-07
4.79604e-07
5.23886e-07
5.71431e-07
6.21071e-07
6.71879e-07
7.23108e-07
7.74161e-07
8.24567e-07
8.73964e-07
9.22081e-07
9.68727e-07
1.01377e-06
1.05712e-06
1.09873e-06
1.13856e-06
1.17658e-06
1.21275e-06
1.24703e-06
1.27935e-06
1.30963e-06
1.33777e-06
1.36365e-06
1.38712e-06
1.40803e-06
1.42621e-06
1.44148e-06
1.45366e-06
1.46256e-06
1.46783e-06
1.46948e-06
1.46752e-06
1.46161e-06
1.45165e-06
1.43754e-06
1.41922e-06
1.39668e-06
1.36993e-06
1.33907e-06
1.3042e-06
1.26553e-06
1.22327e-06
1.17773e-06
1.12923e-06
1.07817e-06
1.02494e-06
9.70004e-07
9.13819e-07
8.5686e-07
7.99597e-07
7.42492e-07
6.8599e-07
6.30512e-07
5.76458e-07
5.24201e-07
4.74098e-07
4.26503e-07
3.8178e-07
3.40338e-07
3.02676e-07
2.69451e-07
2.416e-07
2.20572e-07
2.088e-07
2.10916e-07
2.37596e-07
3.2297e-07
6.71796e-07
1.56231e-06
7.48538e-07
5.40092e-07
4.61269e-07
4.33681e-07
4.33181e-07
4.49577e-07
4.7748e-07
5.13579e-07
5.55593e-07
6.01815e-07
6.5092e-07
7.01837e-07
7.53697e-07
8.05791e-07
8.57555e-07
9.08547e-07
9.58431e-07
1.00696e-06
1.05396e-06
1.0993e-06
1.14292e-06
1.18474e-06
1.22474e-06
1.26286e-06
1.29905e-06
1.33325e-06
1.36537e-06
1.39532e-06
1.42297e-06
1.44818e-06
1.4708e-06
1.49065e-06
1.50755e-06
1.52131e-06
1.53173e-06
1.5385e-06
1.54135e-06
1.54055e-06
1.53565e-06
1.5265e-06
1.51296e-06
1.49495e-06
1.4724e-06
1.44533e-06
1.41378e-06
1.37785e-06
1.33773e-06
1.29366e-06
1.24592e-06
1.19489e-06
1.14098e-06
1.08464e-06
1.02638e-06
9.66729e-07
9.06212e-07
8.45375e-07
7.84746e-07
7.24836e-07
6.66132e-07
6.09089e-07
5.54138e-07
5.01689e-07
4.52146e-07
4.05927e-07
3.63502e-07
3.25443e-07
2.92506e-07
2.65775e-07
2.4692e-07
2.38769e-07
2.46756e-07
2.83601e-07
3.90419e-07
8.15531e-07
1.87933e-06
8.97668e-07
6.42031e-07
5.40597e-07
4.99534e-07
4.90243e-07
5.00698e-07
5.24718e-07
5.58502e-07
5.99446e-07
6.45606e-07
6.95454e-07
7.47753e-07
8.01489e-07
8.55833e-07
9.10117e-07
9.63815e-07
1.01652e-06
1.06794e-06
1.11785e-06
1.1661e-06
1.2126e-06
1.25728e-06
1.30008e-06
1.34096e-06
1.37987e-06
1.41675e-06
1.45151e-06
1.48406e-06
1.51429e-06
1.54204e-06
1.56717e-06
1.58948e-06
1.60878e-06
1.62486e-06
1.63748e-06
1.64642e-06
1.65115e-06
1.65195e-06
1.64851e-06
1.6405e-06
1.62775e-06
1.61012e-06
1.5875e-06
1.55986e-06
1.52722e-06
1.48966e-06
1.44735e-06
1.40053e-06
1.34951e-06
1.2947e-06
1.23655e-06
1.17558e-06
1.11236e-06
1.04749e-06
9.81604e-07
9.15326e-07
8.49279e-07
7.84064e-07
7.20254e-07
6.58385e-07
5.98963e-07
5.42468e-07
4.89366e-07
4.4014e-07
3.95326e-07
3.55572e-07
3.21734e-07
2.95036e-07
2.77377e-07
2.71983e-07
2.85131e-07
3.31668e-07
4.59945e-07
9.63066e-07
2.21643e-06
1.0564e-06
7.51014e-07
6.26204e-07
5.71647e-07
5.53976e-07
5.59133e-07
5.8007e-07
6.12445e-07
6.53293e-07
7.00396e-07
7.52006e-07
8.06698e-07
8.633e-07
9.20849e-07
9.78569e-07
1.03584e-06
1.0922e-06
1.14729e-06
1.20086e-06
1.25273e-06
1.3028e-06
1.351e-06
1.39726e-06
1.44156e-06
1.48385e-06
1.52407e-06
1.56215e-06
1.598e-06
1.6315e-06
1.6625e-06
1.69084e-06
1.71632e-06
1.73873e-06
1.75781e-06
1.77332e-06
1.78497e-06
1.7923e-06
1.7951e-06
1.79354e-06
1.78702e-06
1.7753e-06
1.75818e-06
1.7355e-06
1.70718e-06
1.6732e-06
1.63362e-06
1.58859e-06
1.53836e-06
1.48326e-06
1.42372e-06
1.36026e-06
1.29345e-06
1.22396e-06
1.15247e-06
1.07972e-06
1.00645e-06
9.33385e-07
8.61241e-07
7.90699e-07
7.22398e-07
6.56937e-07
5.94881e-07
5.36778e-07
4.83182e-07
4.34705e-07
3.92076e-07
3.56251e-07
3.28597e-07
3.11252e-07
3.07839e-07
3.25516e-07
3.8132e-07
5.31018e-07
1.11338e-06
2.57331e-06
1.22452e-06
8.66726e-07
7.17617e-07
6.49378e-07
6.2356e-07
6.23909e-07
6.42416e-07
6.74147e-07
7.15732e-07
7.64648e-07
8.18898e-07
8.76852e-07
9.37162e-07
9.98724e-07
1.06064e-06
1.12221e-06
1.1829e-06
1.24229e-06
1.30011e-06
1.35618e-06
1.41037e-06
1.46262e-06
1.51289e-06
1.56113e-06
1.60733e-06
1.65145e-06
1.69341e-06
1.73313e-06
1.77049e-06
1.80535e-06
1.83751e-06
1.86678e-06
1.89289e-06
1.91557e-06
1.93452e-06
1.9494e-06
1.95987e-06
1.96516e-06
1.96577e-06
1.96107e-06
1.95063e-06
1.93419e-06
1.91153e-06
1.88252e-06
1.84709e-06
1.80527e-06
1.7572e-06
1.70312e-06
1.64338e-06
1.57843e-06
1.50886e-06
1.4353e-06
1.35851e-06
1.27927e-06
1.19843e-06
1.11686e-06
1.0354e-06
9.54914e-07
8.76198e-07
8.00018e-07
7.27086e-07
6.58072e-07
5.93619e-07
5.34372e-07
4.81024e-07
4.34395e-07
3.95548e-07
3.65996e-07
3.4813e-07
3.45969e-07
3.6758e-07
4.32243e-07
6.03269e-07
1.26576e-06
2.9497e-06
1.40184e-06
9.88925e-07
8.14501e-07
7.32292e-07
6.9841e-07
6.94364e-07
7.10988e-07
7.42741e-07
7.85798e-07
8.37298e-07
8.94967e-07
9.56946e-07
1.0217e-06
1.08797e-06
1.15474e-06
1.22121e-06
1.28677e-06
1.35098e-06
1.41355e-06
1.47426e-06
1.53301e-06
1.58974e-06
1.64442e-06
1.69704e-06
1.74759e-06
1.79604e-06
1.84233e-06
1.88639e-06
1.9281e-06
1.9673e-06
2.00379e-06
2.03733e-06
2.06763e-06
2.09439e-06
2.11724e-06
2.13581e-06
2.1497e-06
2.15813e-06
2.16102e-06
2.15845e-06
2.14955e-06
2.13399e-06
2.1115e-06
2.08188e-06
2.04501e-06
2.00091e-06
1.94966e-06
1.89151e-06
1.82681e-06
1.75605e-06
1.67984e-06
1.59889e-06
1.51404e-06
1.42618e-06
1.33628e-06
1.24531e-06
1.1543e-06
1.06423e-06
9.76045e-07
8.9066e-07
8.08921e-07
7.31626e-07
6.59531e-07
5.93389e-07
5.33991e-07
4.82258e-07
4.39369e-07
4.06993e-07
3.87785e-07
3.86164e-07
4.11131e-07
4.84246e-07
6.76469e-07
1.41973e-06
3.34521e-06
1.58815e-06
1.11739e-06
9.16589e-07
8.20048e-07
7.78134e-07
7.70012e-07
7.85232e-07
8.17599e-07
8.62793e-07
9.17571e-07
9.79358e-07
1.04604e-06
1.11588e-06
1.18746e-06
1.25963e-06
1.3315e-06
1.40239e-06
1.47184e-06
1.53952e-06
1.60523e-06
1.66887e-06
1.7304e-06
1.78982e-06
1.84713e-06
1.90236e-06
1.95548e-06
2.00645e-06
2.05521e-06
2.10163e-06
2.14553e-06
2.18671e-06
2.22488e-06
2.25974e-06
2.29092e-06
2.31801e-06
2.34058e-06
2.35817e-06
2.37011e-06
2.37553e-06
2.37531e-06
2.36819e-06
2.35374e-06
2.33162e-06
2.30157e-06
2.26343e-06
2.21715e-06
2.1628e-06
2.10059e-06
2.03088e-06
1.95416e-06
1.87107e-06
1.78238e-06
1.689e-06
1.59191e-06
1.49221e-06
1.39101e-06
1.28946e-06
1.18872e-06
1.08991e-06
9.94101e-07
9.02294e-07
8.15442e-07
7.34442e-07
6.60172e-07
5.93546e-07
5.35599e-07
4.8764e-07
4.51505e-07
4.30129e-07
4.28336e-07
4.56083e-07
5.37245e-07
7.5052e-07
1.57511e-06
3.75934e-06
1.78318e-06
1.25191e-06
1.02364e-06
9.12366e-07
8.62419e-07
8.5048e-07
8.6472e-07
8.98238e-07
9.46171e-07
1.00486e-06
1.07139e-06
1.14339e-06
1.21888e-06
1.29628e-06
1.37431e-06
1.45198e-06
1.52857e-06
1.60356e-06
1.67663e-06
1.74759e-06
1.81636e-06
1.88291e-06
1.94728e-06
2.00951e-06
2.06962e-06
2.12763e-06
2.18351e-06
2.23719e-06
2.28854e-06
2.33738e-06
2.38346e-06
2.42649e-06
2.46612e-06
2.50192e-06
2.53345e-06
2.5602e-06
2.58166e-06
2.59724e-06
2.60573e-06
2.60776e-06
2.6027e-06
2.58963e-06
2.56816e-06
2.53797e-06
2.49886e-06
2.45071e-06
2.39355e-06
2.32755e-06
2.25303e-06
2.1705e-06
2.08059e-06
1.98411e-06
1.88202e-06
1.77539e-06
1.66542e-06
1.55336e-06
1.44051e-06
1.3282e-06
1.21774e-06
1.11037e-06
1.0073e-06
9.09656e-07
8.18499e-07
7.34865e-07
6.59813e-07
5.94518e-07
5.40433e-07
4.99578e-07
4.75187e-07
4.72497e-07
5.02439e-07
5.91241e-07
8.25429e-07
1.73192e-06
4.19142e-06
1.98661e-06
1.39221e-06
1.13541e-06
1.009e-06
9.50989e-07
9.35455e-07
9.49096e-07
9.84255e-07
1.03548e-06
1.09864e-06
1.17049e-06
1.24832e-06
1.32996e-06
1.41361e-06
1.49787e-06
1.58167e-06
1.66421e-06
1.74497e-06
1.82362e-06
1.89998e-06
1.97399e-06
2.04568e-06
2.11511e-06
2.18234e-06
2.24744e-06
2.31044e-06
2.37131e-06
2.42999e-06
2.48635e-06
2.54019e-06
2.59125e-06
2.63919e-06
2.68362e-06
2.72409e-06
2.7601e-06
2.79111e-06
2.81653e-06
2.83575e-06
2.84762e-06
2.85195e-06
2.84918e-06
2.83778e-06
2.81731e-06
2.78739e-06
2.74776e-06
2.69823e-06
2.63877e-06
2.5695e-06
2.49069e-06
2.4028e-06
2.30645e-06
2.20245e-06
2.0918e-06
1.97562e-06
1.8552e-06
1.73191e-06
1.60722e-06
1.48263e-06
1.35963e-06
1.23969e-06
1.12423e-06
1.01458e-06
9.12026e-07
8.17777e-07
7.33071e-07
6.59251e-07
5.97943e-07
5.51368e-07
5.23075e-07
5.18741e-07
5.50279e-07
6.46315e-07
9.01298e-07
1.89038e-06
4.64058e-06
2.19801e-06
1.538e-06
1.25164e-06
1.10969e-06
1.04358e-06
1.02465e-06
1.03804e-06
1.07528e-06
1.13029e-06
1.19845e-06
1.2761e-06
1.36024e-06
1.44842e-06
1.53868e-06
1.62946e-06
1.7196e-06
1.80827e-06
1.89492e-06
1.97922e-06
2.06102e-06
2.14031e-06
2.21714e-06
2.29161e-06
2.36383e-06
2.43388e-06
2.50181e-06
2.56762e-06
2.63123e-06
2.69251e-06
2.75125e-06
2.80716e-06
2.85989e-06
2.90901e-06
2.95403e-06
2.99441e-06
3.02959e-06
3.05893e-06
3.08177e-06
3.09716e-06
3.10394e-06
3.10361e-06
3.09419e-06
3.07514e-06
3.046e-06
3.00644e-06
2.95622e-06
2.8952e-06
2.82344e-06
2.74112e-06
2.64863e-06
2.54656e-06
2.43567e-06
2.31694e-06
2.19154e-06
2.06081e-06
1.92624e-06
1.78942e-06
1.65203e-06
1.51578e-06
1.38239e-06
1.25349e-06
1.13068e-06
1.01549e-06
9.09351e-07
8.13725e-07
7.30156e-07
6.60472e-07
6.07122e-07
5.73994e-07
5.67234e-07
5.99749e-07
7.02615e-07
9.78321e-07
2.0509e-06
5.10573e-06
2.41688e-06
1.68892e-06
1.37205e-06
1.21418e-06
1.13994e-06
1.11779e-06
1.13124e-06
1.17097e-06
1.2302e-06
1.3038e-06
1.38768e-06
1.47851e-06
1.57357e-06
1.67069e-06
1.76819e-06
1.86481e-06
1.95968e-06
2.05224e-06
2.14217e-06
2.22936e-06
2.31383e-06
2.39569e-06
2.47506e-06
2.5521e-06
2.62692e-06
2.69959e-06
2.77011e-06
2.83842e-06
2.90437e-06
2.96773e-06
3.02821e-06
3.08543e-06
3.13894e-06
3.18822e-06
3.23273e-06
3.27185e-06
3.30493e-06
3.33127e-06
3.35014e-06
3.35987e-06
3.36181e-06
3.35476e-06
3.3376e-06
3.30984e-06
3.27109e-06
3.221e-06
3.15937e-06
3.08613e-06
3.00137e-06
2.90537e-06
2.79861e-06
2.68179e-06
2.55585e-06
2.42192e-06
2.28137e-06
2.13577e-06
1.98683e-06
1.83641e-06
1.68642e-06
1.53883e-06
1.39556e-06
1.2585e-06
1.12945e-06
1.01014e-06
9.02291e-07
8.07691e-07
7.28416e-07
6.67174e-07
6.28217e-07
6.18209e-07
6.51056e-07
7.60349e-07
1.05677e-06
2.21403e-06
5.58552e-06
2.64258e-06
1.84455e-06
1.4963e-06
1.32219e-06
1.23979e-06
1.21457e-06
1.22836e-06
1.27093e-06
1.33477e-06
1.4142e-06
1.50466e-06
1.60248e-06
1.70466e-06
1.80882e-06
1.91314e-06
2.01628e-06
2.11732e-06
2.2157e-06
2.31114e-06
2.40354e-06
2.49299e-06
2.57963e-06
2.66365e-06
2.74521e-06
2.82448e-06
2.90154e-06
2.97639e-06
3.04899e-06
3.11917e-06
3.18672e-06
3.25131e-06
3.31255e-06
3.37e-06
3.42311e-06
3.47135e-06
3.51409e-06
3.55064e-06
3.58033e-06
3.60246e-06
3.61543e-06
3.61969e-06
3.61535e-06
3.60059e-06
3.57488e-06
3.53775e-06
3.48877e-06
3.42763e-06
3.35414e-06
3.26824e-06
3.17008e-06
3.05999e-06
2.93857e-06
2.80662e-06
2.66523e-06
2.51574e-06
2.35974e-06
2.19904e-06
2.03565e-06
1.87168e-06
1.70937e-06
1.55095e-06
1.39863e-06
1.25455e-06
1.12078e-06
9.99369e-07
8.92403e-07
8.02252e-07
7.31931e-07
6.86082e-07
6.71955e-07
7.04458e-07
8.19779e-07
1.13697e-06
2.38046e-06
6.07837e-06
2.87439e-06
2.00441e-06
1.62403e-06
1.43338e-06
1.34281e-06
1.31468e-06
1.32906e-06
1.37477e-06
1.44354e-06
1.5291e-06
1.62643e-06
1.73145e-06
1.8409e-06
1.95219e-06
2.06334e-06
2.17293e-06
2.28001e-06
2.38403e-06
2.48473e-06
2.58206e-06
2.67616e-06
2.76722e-06
2.85547e-06
2.94113e-06
3.02438e-06
3.10532e-06
3.18398e-06
3.2603e-06
3.33413e-06
3.40525e-06
3.47334e-06
3.538e-06
3.59878e-06
3.65518e-06
3.70664e-06
3.75254e-06
3.79222e-06
3.825e-06
3.85021e-06
3.86656e-06
3.87329e-06
3.87193e-06
3.86007e-06
3.8371e-06
3.80246e-06
3.75564e-06
3.69621e-06
3.62382e-06
3.53828e-06
3.43954e-06
3.32776e-06
3.20335e-06
3.06697e-06
2.91957e-06
2.76241e-06
2.59704e-06
2.42533e-06
2.24938e-06
2.07152e-06
1.89423e-06
1.72007e-06
1.55162e-06
1.39143e-06
1.24195e-06
1.10562e-06
9.84904e-07
8.82526e-07
8.01863e-07
7.47983e-07
7.2881e-07
7.60253e-07
8.81204e-07
1.21932e-06
2.55097e-06
6.58246e-06
3.11145e-06
2.16793e-06
1.7548e-06
1.54742e-06
1.44868e-06
1.41776e-06
1.43294e-06
1.48204e-06
1.55599e-06
1.64791e-06
1.75229e-06
1.86465e-06
1.98143e-06
2.09982e-06
2.21771e-06
2.33359e-06
2.44649e-06
2.55585e-06
2.66146e-06
2.76333e-06
2.86163e-06
2.95662e-06
3.04858e-06
3.13777e-06
3.22439e-06
3.30857e-06
3.39035e-06
3.46969e-06
3.54645e-06
3.6204e-06
3.69125e-06
3.7586e-06
3.82202e-06
3.88104e-06
3.93512e-06
3.98367e-06
4.02605e-06
4.06161e-06
4.08967e-06
4.10944e-06
4.11912e-06
4.12063e-06
4.1122e-06
4.09264e-06
4.06137e-06
4.01777e-06
3.9613e-06
3.89145e-06
3.80785e-06
3.71026e-06
3.59863e-06
3.47312e-06
3.33419e-06
3.18259e-06
3.01941e-06
2.84613e-06
2.66457e-06
2.4769e-06
2.2856e-06
2.0934e-06
1.9032e-06
1.71797e-06
1.54069e-06
1.37432e-06
1.22173e-06
1.08585e-06
9.69837e-07
8.77494e-07
8.14362e-07
7.89156e-07
8.18778e-07
9.44953e-07
1.30421e-06
2.72642e-06
7.0957e-06
3.35282e-06
2.3345e-06
1.88816e-06
1.66389e-06
1.55702e-06
1.52343e-06
1.53958e-06
1.59224e-06
1.67156e-06
1.76998e-06
1.8815e-06
2.00123e-06
2.12531e-06
2.25069e-06
2.37512e-06
2.49703e-06
2.61541e-06
2.72972e-06
2.83979e-06
2.94568e-06
3.04763e-06
3.14595e-06
3.24097e-06
3.33299e-06
3.42225e-06
3.50891e-06
3.59302e-06
3.67457e-06
3.75342e-06
3.82937e-06
3.90214e-06
3.97138e-06
4.03668e-06
4.09762e-06
4.15368e-06
4.20432e-06
4.24895e-06
4.28696e-06
4.31773e-06
4.34057e-06
4.35381e-06
4.35811e-06
4.35355e-06
4.33803e-06
4.31092e-06
4.27154e-06
4.21922e-06
4.15333e-06
4.07328e-06
3.97863e-06
3.86907e-06
3.74451e-06
3.60514e-06
3.45144e-06
3.28429e-06
3.10495e-06
2.91515e-06
2.71705e-06
2.51321e-06
2.30658e-06
2.10037e-06
1.89797e-06
1.70286e-06
1.51851e-06
1.34838e-06
1.19592e-06
1.06481e-06
9.59384e-07
8.85698e-07
8.53403e-07
8.80393e-07
1.01138e-06
1.39209e-06
2.90766e-06
7.61578e-06
3.59743e-06
2.50342e-06
2.02357e-06
1.78237e-06
1.66741e-06
1.63126e-06
1.64849e-06
1.70484e-06
1.7896e-06
1.89459e-06
2.01324e-06
2.14028e-06
2.27151e-06
2.40366e-06
2.53436e-06
2.66193e-06
2.78536e-06
2.90413e-06
3.0181e-06
3.12741e-06
3.23235e-06
3.33329e-06
3.43062e-06
3.52468e-06
3.61576e-06
3.70403e-06
3.7896e-06
3.87245e-06
3.95249e-06
4.02955e-06
4.10338e-06
4.17368e-06
4.24009e-06
4.30223e-06
4.35964e-06
4.41184e-06
4.45828e-06
4.49842e-06
4.53167e-06
4.55743e-06
4.57448e-06
4.58179e-06
4.5813e-06
4.57032e-06
4.54806e-06
4.51377e-06
4.46668e-06
4.40601e-06
4.33101e-06
4.24101e-06
4.13544e-06
4.01394e-06
3.87637e-06
3.72289e-06
3.55407e-06
3.37092e-06
3.17493e-06
2.96815e-06
2.75317e-06
2.53304e-06
2.31128e-06
2.09168e-06
1.87825e-06
1.67506e-06
1.48619e-06
1.31577e-06
1.16809e-06
1.04811e-06
9.62494e-07
9.21991e-07
9.45476e-07
1.08084e-06
1.48337e-06
3.09557e-06
8.14018e-06
3.84412e-06
2.67394e-06
2.16048e-06
1.90238e-06
1.77941e-06
1.74078e-06
1.75916e-06
1.81924e-06
1.90945e-06
2.02095e-06
2.14664e-06
2.28081e-06
2.41895e-06
2.55757e-06
2.69414e-06
2.82692e-06
2.95488e-06
3.07752e-06
3.19475e-06
3.30678e-06
3.41396e-06
3.51673e-06
3.61554e-06
3.71078e-06
3.80277e-06
3.89175e-06
3.97783e-06
4.06106e-06
4.14138e-06
4.21866e-06
4.2927e-06
4.36325e-06
4.43004e-06
4.49272e-06
4.55091e-06
4.60418e-06
4.65205e-06
4.69403e-06
4.72957e-06
4.75809e-06
4.77888e-06
4.79024e-06
4.79331e-06
4.78733e-06
4.77046e-06
4.74196e-06
4.70096e-06
4.64658e-06
4.5779e-06
4.49405e-06
4.39424e-06
4.2778e-06
4.14424e-06
3.99338e-06
3.8254e-06
3.64094e-06
3.44119e-06
3.22796e-06
3.00371e-06
2.77156e-06
2.5352e-06
2.29882e-06
2.06694e-06
1.84429e-06
1.63569e-06
1.446e-06
1.28029e-06
1.14426e-06
1.04527e-06
9.9537e-07
1.01441e-06
1.15369e-06
1.5785e-06
3.29099e-06
8.66617e-06
4.09165e-06
2.84524e-06
2.29829e-06
2.0234e-06
1.89253e-06
1.85147e-06
1.87102e-06
1.93479e-06
2.03037e-06
2.14823e-06
2.28074e-06
2.42178e-06
2.56649e-06
2.71117e-06
2.85313e-06
2.99058e-06
3.12246e-06
3.24831e-06
3.36809e-06
3.48206e-06
3.59067e-06
3.69442e-06
3.79382e-06
3.88933e-06
3.98132e-06
4.07006e-06
4.15574e-06
4.23843e-06
4.31814e-06
4.3948e-06
4.46826e-06
4.53836e-06
4.60488e-06
4.66756e-06
4.72606e-06
4.78002e-06
4.82904e-06
4.87268e-06
4.91042e-06
4.94172e-06
4.96598e-06
4.98195e-06
4.98871e-06
4.98786e-06
4.97675e-06
4.9545e-06
4.9202e-06
4.87286e-06
4.81147e-06
4.73499e-06
4.64239e-06
4.53273e-06
4.40522e-06
4.25928e-06
4.09467e-06
3.91157e-06
3.71076e-06
3.49369e-06
3.26255e-06
3.02036e-06
2.77091e-06
2.51867e-06
2.26868e-06
2.02633e-06
1.79723e-06
1.58713e-06
1.40198e-06
1.24838e-06
1.13457e-06
1.07399e-06
1.08758e-06
1.23027e-06
1.67784e-06
3.49467e-06
9.19087e-06
4.33869e-06
3.01647e-06
2.43633e-06
2.1449e-06
2.00625e-06
1.96281e-06
1.98349e-06
2.05083e-06
2.15159e-06
2.27556e-06
2.41458e-06
2.5621e-06
2.71295e-06
2.86319e-06
3.00998e-06
3.15148e-06
3.28661e-06
3.41493e-06
3.53648e-06
3.65159e-06
3.76077e-06
3.86462e-06
3.9637e-06
4.05856e-06
4.14961e-06
4.23721e-06
4.32159e-06
4.4029e-06
4.4812e-06
4.5565e-06
4.62874e-06
4.6978e-06
4.76357e-06
4.82584e-06
4.88434e-06
4.93879e-06
4.98883e-06
5.03406e-06
5.07401e-06
5.10814e-06
5.13584e-06
5.15639e-06
5.16812e-06
5.17167e-06
5.1666e-06
5.15088e-06
5.12361e-06
5.08377e-06
5.03025e-06
4.9619e-06
4.87754e-06
4.77601e-06
4.6562e-06
4.51719e-06
4.35828e-06
4.17917e-06
3.98013e-06
3.76208e-06
3.52683e-06
3.27711e-06
3.01664e-06
2.75005e-06
2.48281e-06
2.22095e-06
1.97096e-06
1.73953e-06
1.53366e-06
1.361e-06
1.23088e-06
1.1583e-06
1.16535e-06
1.31092e-06
1.78178e-06
3.70731e-06
9.71125e-06
4.58387e-06
3.18673e-06
2.57394e-06
2.26629e-06
2.12003e-06
2.07422e-06
2.09592e-06
2.16663e-06
2.27228e-06
2.40201e-06
2.54713e-06
2.70066e-06
2.85711e-06
3.01232e-06
3.16332e-06
3.30818e-06
3.44582e-06
3.57585e-06
3.69836e-06
3.81376e-06
3.92265e-06
4.0257e-06
4.12358e-06
4.21688e-06
4.30614e-06
4.39175e-06
4.47403e-06
4.55321e-06
4.62943e-06
4.70279e-06
4.77329e-06
4.84092e-06
4.90564e-06
4.9673e-06
5.02571e-06
5.08063e-06
5.13175e-06
5.1787e-06
5.22102e-06
5.25818e-06
5.28956e-06
5.31447e-06
5.33191e-06
5.34014e-06
5.34087e-06
5.3318e-06
5.31166e-06
5.27942e-06
5.23396e-06
5.17406e-06
5.09845e-06
5.00582e-06
4.89484e-06
4.76427e-06
4.61301e-06
4.44026e-06
4.24568e-06
4.02963e-06
3.7933e-06
3.53898e-06
3.27009e-06
2.99126e-06
2.70821e-06
2.4276e-06
2.15673e-06
1.90337e-06
1.67571e-06
1.4826e-06
1.33465e-06
1.24866e-06
1.24807e-06
1.39593e-06
1.89061e-06
3.92949e-06
1.02242e-05
4.82575e-06
3.35508e-06
2.71041e-06
2.38698e-06
2.23329e-06
2.18511e-06
2.20768e-06
2.28147e-06
2.39163e-06
2.52666e-06
2.67735e-06
2.83633e-06
2.99777e-06
3.15729e-06
3.3118e-06
3.45929e-06
3.59868e-06
3.72962e-06
3.85225e-06
3.9671e-06
4.07483e-06
4.17623e-06
4.27205e-06
4.36299e-06
4.44965e-06
4.53253e-06
4.61203e-06
4.68849e-06
4.76213e-06
4.83312e-06
4.9016e-06
4.96761e-06
5.03119e-06
5.09227e-06
5.15071e-06
5.20631e-06
5.25879e-06
5.30779e-06
5.35285e-06
5.39341e-06
5.42883e-06
5.45838e-06
5.48123e-06
5.49582e-06
5.50153e-06
5.49911e-06
5.48605e-06
5.46129e-06
5.42371e-06
5.37212e-06
5.30522e-06
5.22164e-06
5.11995e-06
4.99867e-06
4.85638e-06
4.69182e-06
4.50407e-06
4.29279e-06
4.05847e-06
3.80273e-06
3.52847e-06
3.24006e-06
2.94329e-06
2.64526e-06
2.35407e-06
2.0786e-06
1.82833e-06
1.61355e-06
1.44636e-06
1.34538e-06
1.33606e-06
1.48556e-06
2.00458e-06
4.16167e-06
1.07266e-05
5.0629e-06
3.52057e-06
2.84501e-06
2.50634e-06
2.34545e-06
2.29487e-06
2.31809e-06
2.39461e-06
2.5088e-06
2.64857e-06
2.80423e-06
2.96799e-06
3.13373e-06
3.29685e-06
3.45411e-06
3.60346e-06
3.74382e-06
3.87485e-06
3.99681e-06
4.11027e-06
4.21604e-06
4.31499e-06
4.40798e-06
4.49582e-06
4.5792e-06
4.65874e-06
4.73495e-06
4.80825e-06
4.87898e-06
4.94742e-06
5.01378e-06
5.07821e-06
5.14079e-06
5.20154e-06
5.26037e-06
5.3171e-06
5.37146e-06
5.42308e-06
5.47146e-06
5.51601e-06
5.55602e-06
5.5907e-06
5.61915e-06
5.6404e-06
5.65236e-06
5.65568e-06
5.64967e-06
5.63213e-06
5.60203e-06
5.55823e-06
5.49949e-06
5.42449e-06
5.3318e-06
5.21986e-06
5.08705e-06
4.93176e-06
4.75254e-06
4.54836e-06
4.31892e-06
4.06496e-06
3.78864e-06
3.49378e-06
3.18596e-06
2.87248e-06
2.56213e-06
2.26486e-06
1.99154e-06
1.75407e-06
1.56628e-06
1.44882e-06
1.42959e-06
1.58004e-06
2.12391e-06
4.40416e-06
1.12154e-05
5.29386e-06
3.68225e-06
2.97701e-06
2.62376e-06
2.45592e-06
2.40289e-06
2.42649e-06
2.5053e-06
2.62296e-06
2.76683e-06
2.92675e-06
3.09456e-06
3.26384e-06
3.42979e-06
3.58904e-06
3.73946e-06
3.87999e-06
4.01034e-06
4.13083e-06
4.24215e-06
4.34521e-06
4.44099e-06
4.53048e-06
4.6146e-06
4.69417e-06
4.76992e-06
4.84248e-06
4.91238e-06
4.98008e-06
5.04595e-06
5.11031e-06
5.1734e-06
5.23536e-06
5.29626e-06
5.35605e-06
5.41458e-06
5.47156e-06
5.52658e-06
5.57912e-06
5.6285e-06
5.67392e-06
5.71448e-06
5.74921e-06
5.77704e-06
5.79655e-06
5.80561e-06
5.80627e-06
5.79576e-06
5.77265e-06
5.7359e-06
5.6844e-06
5.61696e-06
5.53228e-06
5.4289e-06
5.30515e-06
5.15926e-06
4.98937e-06
4.79386e-06
4.57159e-06
4.32236e-06
4.04731e-06
3.74942e-06
3.43372e-06
3.10739e-06
2.77966e-06
2.46146e-06
2.1651e-06
1.90422e-06
1.69463e-06
1.55927e-06
1.52892e-06
1.67954e-06
2.24872e-06
4.65717e-06
1.16873e-05
5.51722e-06
3.83916e-06
3.10568e-06
2.7386e-06
2.56409e-06
2.50856e-06
2.53224e-06
2.61282e-06
2.73331e-06
2.88055e-06
3.04396e-06
3.21502e-06
3.38704e-06
3.55501e-06
3.71544e-06
3.86616e-06
4.00609e-06
4.13501e-06
4.25331e-06
4.36178e-06
4.46147e-06
4.55347e-06
4.63891e-06
4.71884e-06
4.79421e-06
4.86589e-06
4.93461e-06
5.00105e-06
5.06578e-06
5.12927e-06
5.19195e-06
5.25412e-06
5.31601e-06
5.37773e-06
5.43924e-06
5.50042e-06
5.56095e-06
5.62039e-06
5.67813e-06
5.73342e-06
5.78535e-06
5.83289e-06
5.87489e-06
5.91014e-06
5.93736e-06
5.95427e-06
5.96047e-06
5.9568e-06
5.9403e-06
5.90984e-06
5.86446e-06
5.80318e-06
5.72495e-06
5.62855e-06
5.51251e-06
5.37506e-06
5.21422e-06
5.0279e-06
4.81424e-06
4.57204e-06
4.3013e-06
4.00383e-06
3.68372e-06
3.34767e-06
3.005e-06
2.66738e-06
2.34851e-06
2.06388e-06
1.83152e-06
1.67691e-06
1.63422e-06
1.78419e-06
2.37907e-06
4.92074e-06
1.21394e-05
5.73158e-06
3.99038e-06
3.2303e-06
2.85024e-06
2.66938e-06
2.61129e-06
2.63469e-06
2.71649e-06
2.83911e-06
2.98892e-06
3.15498e-06
3.32843e-06
3.50234e-06
3.67151e-06
3.83233e-06
3.98257e-06
4.12117e-06
4.24796e-06
4.36341e-06
4.46844e-06
4.5642e-06
4.65194e-06
4.73292e-06
4.80833e-06
4.87928e-06
4.94674e-06
5.01163e-06
5.07471e-06
5.13668e-06
5.19814e-06
5.25959e-06
5.32143e-06
5.38393e-06
5.44725e-06
5.51138e-06
5.57618e-06
5.64131e-06
5.7063e-06
5.77045e-06
5.83292e-06
5.89266e-06
5.9485e-06
5.9991e-06
6.04303e-06
6.07879e-06
6.1048e-06
6.11789e-06
6.1204e-06
6.1103e-06
6.08547e-06
6.04514e-06
5.9885e-06
5.91482e-06
5.82324e-06
5.71268e-06
5.58169e-06
5.42839e-06
5.25054e-06
5.04575e-06
4.81193e-06
4.54785e-06
4.25394e-06
3.93298e-06
3.59072e-06
3.2361e-06
2.88122e-06
2.54096e-06
2.23271e-06
1.97691e-06
1.80182e-06
1.74563e-06
1.89407e-06
2.51497e-06
5.19477e-06
1.2569e-05
5.93563e-06
4.13501e-06
3.35016e-06
2.95807e-06
2.77121e-06
2.71051e-06
2.73326e-06
2.81566e-06
2.93964e-06
3.09118e-06
3.25899e-06
3.43394e-06
3.60887e-06
3.7784e-06
3.93882e-06
4.08786e-06
4.22445e-06
4.34849e-06
4.46053e-06
4.56161e-06
4.65301e-06
4.73613e-06
4.81238e-06
4.8831e-06
4.94953e-06
5.01282e-06
5.07398e-06
5.13395e-06
5.19352e-06
5.25341e-06
5.31419e-06
5.37636e-06
5.44023e-06
5.50599e-06
5.57367e-06
5.6431e-06
5.71394e-06
5.78565e-06
5.85747e-06
5.92844e-06
5.9974e-06
6.06299e-06
6.12367e-06
6.17779e-06
6.22361e-06
6.25941e-06
6.28213e-06
6.29082e-06
6.28749e-06
6.2683e-06
6.23231e-06
6.17899e-06
6.10793e-06
6.01872e-06
5.91085e-06
5.78341e-06
5.63499e-06
5.46354e-06
5.26649e-06
5.04109e-06
4.78499e-06
4.49711e-06
4.1786e-06
3.83375e-06
3.47063e-06
3.10123e-06
2.74134e-06
2.41014e-06
2.13058e-06
1.934e-06
1.86319e-06
2.00921e-06
2.65635e-06
5.47903e-06
1.29733e-05
6.12813e-06
4.2722e-06
3.46459e-06
3.0615e-06
2.86905e-06
2.80566e-06
2.82738e-06
2.90976e-06
3.03429e-06
3.18666e-06
3.3553e-06
3.53083e-06
3.70589e-06
3.87496e-06
4.03422e-06
4.18137e-06
4.31534e-06
4.43608e-06
4.54425e-06
4.64099e-06
4.72773e-06
4.80601e-06
4.87739e-06
4.94337e-06
5.00534e-06
5.0646e-06
5.1223e-06
5.1795e-06
5.23711e-06
5.29594e-06
5.35668e-06
5.41985e-06
5.48583e-06
5.55487e-06
5.62698e-06
5.70201e-06
5.77959e-06
5.85915e-06
5.93984e-06
6.02063e-06
6.10024e-06
6.17712e-06
6.24954e-06
6.31559e-06
6.37322e-06
6.42035e-06
6.45481e-06
6.47226e-06
6.47574e-06
6.46296e-06
6.43144e-06
6.38076e-06
6.31079e-06
6.22162e-06
6.11339e-06
5.986e-06
5.83882e-06
5.67042e-06
5.47851e-06
5.26006e-06
5.01187e-06
4.73142e-06
4.418e-06
4.07402e-06
3.70605e-06