/*--------------------------------*- C++ -*----------------------------------*\
  =========                 |
  \\      /  F ield         | OpenFOAM: The Open Source CFD Toolbox
   \\    /   O peration     | Website:  https://openfoam.org
    \\  /    A nd           | Version:  12
     \\/     M anipulation  |
\*---------------------------------------------------------------------------*/
FoamFile
{
    format      ascii;
    class       volScalarField;
    location    "3";
    object      nut;
}
// * * * * * * * * * * * * * * * * * * * * * * * * * * * * * * * * * * * * * //

dimensions      [0 2 -1 0 0 0 0];

internalField   nonuniform List<scalar> 
5625
(
4.8449e-16
2.41879e-15
5.27844e-15
8.68391e-15
1.24553e-14
1.64786e-14
2.06681e-14
2.49546e-14
2.92801e-14
3.35957e-14
3.78604e-14
4.20402e-14
4.6108e-14
5.00432e-14
5.38311e-14
5.74626e-14
6.09337e-14
6.42447e-14
6.73989e-14
7.04026e-14
7.32632e-14
7.59887e-14
7.85868e-14
8.10644e-14
8.34263e-14
8.56754e-14
8.78121e-14
8.98342e-14
9.17367e-14
9.35122e-14
9.51507e-14
9.66401e-14
9.79666e-14
9.91147e-14
1.00068e-13
1.00809e-13
1.0132e-13
1.01579e-13
1.01587e-13
1.01321e-13
1.00767e-13
9.99155e-14
9.87581e-14
9.72915e-14
9.55153e-14
9.34337e-14
9.10544e-14
8.83896e-14
8.54558e-14
8.22729e-14
7.8865e-14
7.5259e-14
7.14844e-14
6.7573e-14
6.35575e-14
5.94712e-14
5.53472e-14
5.12174e-14
4.71123e-14
4.30597e-14
3.90851e-14
3.52106e-14
3.14551e-14
2.78342e-14
2.43606e-14
2.10441e-14
1.78931e-14
1.49137e-14
1.21125e-14
9.49811e-15
7.08294e-15
4.88778e-15
2.95007e-15
1.34646e-15
2.69438e-16
2.42173e-15
2.19732e-13
7.43494e-13
1.36736e-12
2.04052e-12
2.74759e-12
3.47731e-12
4.21967e-12
4.96581e-12
5.708e-12
6.43962e-12
7.15519e-12
7.85029e-12
8.52159e-12
9.16677e-12
9.78444e-12
1.03741e-11
1.09359e-11
1.14707e-11
1.19796e-11
1.24641e-11
1.29257e-11
1.33658e-11
1.37858e-11
1.41864e-11
1.45684e-11
1.49318e-11
1.52763e-11
1.56011e-11
1.5905e-11
1.61862e-11
1.64427e-11
1.66721e-11
1.68717e-11
1.70387e-11
1.71699e-11
1.72623e-11
1.73111e-11
1.73167e-11
1.72753e-11
1.71846e-11
1.70427e-11
1.68483e-11
1.66007e-11
1.62998e-11
1.59461e-11
1.55409e-11
1.50863e-11
1.45851e-11
1.40407e-11
1.34573e-11
1.28395e-11
1.21925e-11
1.15219e-11
1.08332e-11
1.01324e-11
9.42516e-12
8.71713e-12
8.01355e-12
7.31928e-12
6.63869e-12
5.97556e-12
5.33311e-12
4.71394e-12
4.1201e-12
3.55307e-12
3.01387e-12
2.5035e-12
2.02266e-12
1.57199e-12
1.15238e-12
7.65151e-13
4.13897e-13
1.22145e-13
1.34561e-15
5.3111e-15
7.4552e-13
3.76151e-12
8.42516e-12
1.37783e-11
1.94225e-11
2.52003e-11
3.10247e-11
3.68316e-11
4.25681e-11
4.81893e-11
5.36583e-11
5.89459e-11
6.40305e-11
6.8898e-11
7.35413e-11
7.79597e-11
8.21576e-11
8.6144e-11
8.99305e-11
9.35305e-11
9.69577e-11
1.00225e-10
1.03344e-10
1.06323e-10
1.09167e-10
1.11879e-10
1.14457e-10
1.16894e-10
1.19182e-10
1.21308e-10
1.23256e-10
1.25008e-10
1.26543e-10
1.27838e-10
1.28871e-10
1.29618e-10
1.30034e-10
1.30137e-10
1.29887e-10
1.29264e-10
1.28252e-10
1.2684e-10
1.25019e-10
1.22788e-10
1.2015e-10
1.17114e-10
1.13694e-10
1.09912e-10
1.05794e-10
1.01371e-10
9.66814e-11
9.17639e-11
8.6662e-11
8.1421e-11
7.60864e-11
7.07037e-11
6.53165e-11
5.99661e-11
5.46899e-11
4.95215e-11
4.44896e-11
3.96177e-11
3.49243e-11
3.04226e-11
2.61214e-11
2.2025e-11
1.81347e-11
1.44497e-11
1.09688e-11
7.69867e-12
4.68024e-12
2.08655e-12
4.13512e-13
2.94021e-15
8.81242e-15
1.38068e-12
8.46286e-12
2.23078e-11
4.0463e-11
6.06697e-11
8.1686e-11
1.0288e-10
1.23899e-10
1.44514e-10
1.64563e-10
1.83926e-10
2.02515e-10
2.20273e-10
2.37167e-10
2.53192e-10
2.68361e-10
2.82707e-10
2.96276e-10
3.09124e-10
3.21309e-10
3.32891e-10
3.43925e-10
3.54458e-10
3.64527e-10
3.74157e-10
3.83359e-10
3.9213e-10
4.00453e-10
4.08296e-10
4.15617e-10
4.22361e-10
4.28461e-10
4.33845e-10
4.38432e-10
4.42136e-10
4.4489e-10
4.46488e-10
4.47048e-10
4.46392e-10
4.44444e-10
4.41143e-10
4.36443e-10
4.30313e-10
4.22739e-10
4.13729e-10
4.03309e-10
3.91531e-10
3.78465e-10
3.64203e-10
3.48858e-10
3.3256e-10
3.15452e-10
2.97689e-10
2.79432e-10
2.60846e-10
2.42094e-10
2.2333e-10
2.04701e-10
1.8634e-10
1.68363e-10
1.50866e-10
1.3393e-10
1.1761e-10
1.01945e-10
8.69534e-11
7.26394e-11
5.89977e-11
4.60266e-11
3.37621e-11
2.23629e-11
1.23079e-11
4.6737e-12
7.61719e-13
4.84707e-15
1.27936e-14
2.08394e-12
1.39671e-11
4.07686e-11
8.04113e-11
1.27961e-10
1.79331e-10
2.31942e-10
2.84286e-10
3.35473e-10
3.84961e-10
4.32409e-10
4.7761e-10
5.20454e-10
5.60909e-10
5.99006e-10
6.3483e-10
6.68505e-10
7.00188e-10
7.30052e-10
7.58274e-10
7.85028e-10
8.10472e-10
8.34742e-10
8.57944e-10
8.80151e-10
9.01399e-10
9.2169e-10
9.40986e-10
9.59219e-10
9.76284e-10
9.92049e-10
1.00636e-09
1.01903e-09
1.02987e-09
1.03867e-09
1.04528e-09
1.04913e-09
1.05059e-09
1.04918e-09
1.04472e-09
1.03704e-09
1.02604e-09
1.01164e-09
9.93798e-10
9.7253e-10
9.47898e-10
9.2002e-10
8.89066e-10
8.55256e-10
8.1886e-10
7.80187e-10
7.39584e-10
6.97422e-10
6.54087e-10
6.09974e-10
5.65468e-10
5.20942e-10
4.76742e-10
4.33178e-10
3.90522e-10
3.48997e-10
3.08777e-10
2.69985e-10
2.32695e-10
1.9694e-10
1.62729e-10
1.30078e-10
9.90855e-11
7.00849e-11
4.39197e-11
2.23008e-11
7.6537e-12
1.13968e-12
6.97182e-15
1.71922e-14
2.84961e-12
1.99692e-11
6.19018e-11
1.29486e-10
2.16249e-10
3.14206e-10
4.16981e-10
5.20336e-10
6.21669e-10
7.19381e-10
8.12554e-10
9.00698e-10
9.83605e-10
1.06127e-09
1.13384e-09
1.20157e-09
1.2648e-09
1.32392e-09
1.37933e-09
1.43145e-09
1.48068e-09
1.52737e-09
1.57181e-09
1.61424e-09
1.65482e-09
1.69364e-09
1.73071e-09
1.76596e-09
1.79926e-09
1.83043e-09
1.85919e-09
1.88526e-09
1.90829e-09
1.9279e-09
1.9437e-09
1.95537e-09
1.96188e-09
1.96393e-09
1.96058e-09
1.95148e-09
1.93637e-09
1.91504e-09
1.88734e-09
1.85323e-09
1.81273e-09
1.76598e-09
1.7132e-09
1.65473e-09
1.59097e-09
1.52243e-09
1.4497e-09
1.37341e-09
1.29427e-09
1.21297e-09
1.13026e-09
1.04684e-09
9.63386e-10
8.80537e-10
7.98855e-10
7.18829e-10
6.40855e-10
5.6524e-10
4.92195e-10
4.21853e-10
3.54289e-10
2.8958e-10
2.27907e-10
1.69762e-10
1.16282e-10
6.97005e-11
3.34527e-11
1.08171e-11
1.54002e-12
9.25739e-15
2.19751e-14
3.67589e-12
2.63989e-11
8.48538e-11
1.84634e-10
3.19621e-10
4.78209e-10
6.4903e-10
8.23336e-10
9.9519e-10
1.16092e-09
1.31841e-09
1.46657e-09
1.60497e-09
1.73366e-09
1.85298e-09
1.9635e-09
2.06592e-09
2.16102e-09
2.24962e-09
2.3325e-09
2.41041e-09
2.484e-09
2.55381e-09
2.62026e-09
2.68366e-09
2.74415e-09
2.80176e-09
2.8564e-09
2.90783e-09
2.95575e-09
2.99974e-09
3.03929e-09
3.07387e-09
3.10285e-09
3.12561e-09
3.1415e-09
3.14938e-09
3.14999e-09
3.14187e-09
3.12455e-09
3.09762e-09
3.0608e-09
3.01392e-09
2.95693e-09
2.88992e-09
2.81314e-09
2.72699e-09
2.63199e-09
2.52884e-09
2.41833e-09
2.30139e-09
2.17902e-09
2.05228e-09
1.92229e-09
1.79016e-09
1.65697e-09
1.52376e-09
1.39149e-09
1.26101e-09
1.13306e-09
1.00824e-09
8.87005e-10
7.6968e-10
6.56493e-10
5.47635e-10
4.43381e-10
3.44324e-10
2.51748e-10
1.6814e-10
9.75769e-11
4.51243e-11
1.40861e-11
1.95763e-12
1.16632e-14
2.71238e-14
4.56181e-12
3.32475e-11
1.09336e-10
2.44296e-10
4.33991e-10
6.64092e-10
9.17725e-10
1.18031e-09
1.44117e-09
1.69331e-09
1.93254e-09
2.15664e-09
2.36477e-09
2.55696e-09
2.73385e-09
2.89645e-09
3.046e-09
3.18387e-09
3.31143e-09
3.43001e-09
3.54082e-09
3.64494e-09
3.74322e-09
3.83636e-09
3.92479e-09
4.00878e-09
4.08835e-09
4.16335e-09
4.23347e-09
4.29823e-09
4.35701e-09
4.4091e-09
4.45372e-09
4.49e-09
4.51709e-09
4.5336e-09
4.53939e-09
4.53432e-09
4.51665e-09
4.48578e-09
4.44128e-09
4.38283e-09
4.31028e-09
4.22367e-09
4.12322e-09
4.00934e-09
3.88265e-09
3.74395e-09
3.59422e-09
3.43462e-09
3.2664e-09
3.09095e-09
2.90974e-09
2.72425e-09
2.53597e-09
2.34637e-09
2.15681e-09
1.96858e-09
1.78279e-09
1.60043e-09
1.42227e-09
1.24893e-09
1.08087e-09
9.18461e-10
7.62086e-10
6.12392e-10
4.70642e-10
3.39266e-10
2.22455e-10
1.2625e-10
5.70042e-11
1.74216e-11
2.38822e-12
1.41586e-14
3.26276e-14
5.50681e-12
4.05199e-11
1.3528e-10
3.07836e-10
5.57094e-10
8.66962e-10
1.21502e-09
1.57998e-09
1.94512e-09
2.29896e-09
2.63437e-09
2.94754e-09
3.23693e-09
3.50252e-09
3.74529e-09
3.96685e-09
4.16913e-09
4.35425e-09
4.52431e-09
4.68131e-09
4.82706e-09
4.96314e-09
5.0908e-09
5.21101e-09
5.32442e-09
5.43137e-09
5.53191e-09
5.62583e-09
5.71269e-09
5.79185e-09
5.86249e-09
5.92368e-09
5.9744e-09
6.01359e-09
6.04016e-09
6.0516e-09
6.04972e-09
6.03334e-09
5.99984e-09
5.94904e-09
5.88048e-09
5.79395e-09
5.68939e-09
5.567e-09
5.42719e-09
5.2706e-09
5.09811e-09
4.91083e-09
4.71005e-09
4.49725e-09
4.27406e-09
4.04219e-09
3.80348e-09
3.55973e-09
3.31279e-09
3.06442e-09
2.81628e-09
2.56989e-09
2.32661e-09
2.08759e-09
1.85379e-09
1.62594e-09
1.40464e-09
1.19043e-09
9.83972e-10
7.86405e-10
5.99849e-10
4.28091e-10
2.77156e-10
1.54989e-10
6.89285e-11
2.07976e-11
2.82828e-12
1.672e-14
3.84801e-14
6.51055e-12
4.82229e-11
1.62696e-10
3.75039e-10
6.87864e-10
1.08399e-09
1.53552e-09
2.01387e-09
2.49536e-09
2.96301e-09
3.40604e-09
3.81851e-09
4.19797e-09
4.54427e-09
4.85879e-09
5.14384e-09
5.4022e-09
5.63687e-09
5.85084e-09
6.04691e-09
6.22757e-09
6.39497e-09
6.55082e-09
6.69642e-09
6.83261e-09
6.95985e-09
7.07819e-09
7.18737e-09
7.28683e-09
7.37577e-09
7.45319e-09
7.51798e-09
7.56891e-09
7.60474e-09
7.62425e-09
7.62382e-09
7.60714e-09
7.57328e-09
7.51723e-09
7.43988e-09
7.34096e-09
7.22039e-09
7.07831e-09
6.91513e-09
6.73151e-09
6.52837e-09
6.30686e-09
6.0684e-09
5.81458e-09
5.54719e-09
5.26816e-09
4.97953e-09
4.68339e-09
4.38186e-09
4.07702e-09
3.77086e-09
3.46526e-09
3.16193e-09
2.86238e-09
2.56789e-09
2.27951e-09
1.9981e-09
1.72435e-09
1.45898e-09
1.20297e-09
9.57988e-10
7.27098e-10
5.15491e-10
3.31003e-10
1.83383e-10
8.08028e-11
2.41952e-11
3.27504e-12
1.93297e-14
4.46761e-14
7.5727e-12
5.63614e-11
1.91608e-10
4.45867e-10
8.25859e-10
1.31366e-09
1.87592e-09
2.47631e-09
3.08344e-09
3.67412e-09
4.23328e-09
4.7525e-09
5.22816e-09
5.65998e-09
6.04976e-09
6.40061e-09
6.71631e-09
7.00088e-09
7.25829e-09
7.49225e-09
7.70602e-09
7.90238e-09
8.08355e-09
8.25115e-09
8.40627e-09
8.54946e-09
8.68083e-09
8.80004e-09
8.90646e-09
8.99914e-09
9.07697e-09
9.13868e-09
9.18293e-09
9.20838e-09
9.21367e-09
9.1941e-09
9.15584e-09
9.09772e-09
9.01322e-09
8.90335e-09
8.7686e-09
8.60911e-09
8.42529e-09
8.2178e-09
7.98755e-09
7.73577e-09
7.46388e-09
7.17356e-09
6.86671e-09
6.54537e-09
6.21173e-09
5.86807e-09
5.51671e-09
5.15995e-09
4.80008e-09
4.43924e-09
4.07945e-09
3.72254e-09
3.37011e-09
3.02351e-09
2.68386e-09
2.35206e-09
2.0289e-09
1.71523e-09
1.41232e-09
1.1224e-09
8.49396e-10
5.9985e-10
3.83298e-10
2.11207e-10
9.25707e-11
2.76009e-11
3.72653e-12
2.19751e-14
5.12107e-14
8.69272e-12
6.49369e-11
2.22033e-10
5.20322e-10
9.70932e-10
1.55517e-09
2.23425e-09
2.9636e-09
3.70355e-09
4.42412e-09
5.10552e-09
5.73651e-09
6.31223e-09
6.83219e-09
7.29872e-09
7.71582e-09
8.08837e-09
8.42152e-09
8.72036e-09
8.98956e-09
9.23324e-09
9.45486e-09
9.65716e-09
9.84214e-09
1.00111e-08
1.01648e-08
1.03034e-08
1.04265e-08
1.05334e-08
1.06231e-08
1.06944e-08
1.0746e-08
1.07765e-08
1.07845e-08
1.07683e-08
1.07229e-08
1.06578e-08
1.05682e-08
1.04509e-08
1.03036e-08
1.01288e-08
9.92695e-09
9.69863e-09
9.4448e-09
9.16666e-09
8.86569e-09
8.54357e-09
8.20225e-09
7.84382e-09
7.47057e-09
7.08487e-09
6.68918e-09
6.28598e-09
5.87772e-09
5.46679e-09
5.05546e-09
4.64582e-09
4.23976e-09
3.83892e-09
3.44469e-09
3.0582e-09
2.68037e-09
2.31204e-09
1.95417e-09
1.60828e-09
1.27702e-09
9.65117e-10
6.80313e-10
4.3368e-10
2.38344e-10
1.04201e-10
3.10066e-11
4.18147e-12
2.46483e-14
5.80772e-14
9.86975e-12
7.3947e-11
2.53976e-10
5.98412e-10
1.12296e-09
1.80804e-09
2.60923e-09
3.47324e-09
4.35161e-09
5.20711e-09
6.01491e-09
6.76079e-09
7.43856e-09
8.04755e-09
8.59067e-09
9.07293e-09
9.50041e-09
9.87954e-09
1.02166e-08
1.05172e-08
1.07865e-08
1.10287e-08
1.12471e-08
1.1444e-08
1.16211e-08
1.17792e-08
1.19186e-08
1.20389e-08
1.21395e-08
1.22194e-08
1.22773e-08
1.2312e-08
1.23221e-08
1.23064e-08
1.22618e-08
1.21859e-08
1.20887e-08
1.19622e-08
1.18084e-08
1.16204e-08
1.14028e-08
1.11565e-08
1.08823e-08
1.05815e-08
1.02555e-08
9.90606e-09
9.53505e-09
9.14462e-09
8.73705e-09
8.31477e-09
7.8803e-09
7.43623e-09
6.98514e-09
6.52957e-09
6.07197e-09
5.61468e-09
5.15982e-09
4.70932e-09
4.26483e-09
3.82774e-09
3.39918e-09
2.98007e-09
2.57124e-09
2.17374e-09
1.78923e-09
1.42073e-09
1.07358e-09
7.5653e-10
4.82011e-10
2.64752e-10
1.15681e-10
3.44085e-11
4.63921e-12
2.73459e-14
6.52671e-14
1.11025e-11
8.33843e-11
2.87421e-10
6.801e-10
1.2818e-09
2.07185e-09
2.99986e-09
4.00332e-09
5.02451e-09
6.0186e-09
6.95549e-09
7.81786e-09
8.59819e-09
9.2957e-09
9.91396e-09
1.04591e-08
1.09385e-08
1.136e-08
1.1731e-08
1.20585e-08
1.23485e-08
1.26058e-08
1.28346e-08
1.30375e-08
1.32165e-08
1.33727e-08
1.35065e-08
1.36176e-08
1.37054e-08
1.37689e-08
1.38071e-08
1.38186e-08
1.38024e-08
1.37574e-08
1.36787e-08
1.35694e-08
1.34355e-08
1.32692e-08
1.30743e-08
1.28452e-08
1.25832e-08
1.22916e-08
1.19714e-08
1.16242e-08
1.12515e-08
1.08552e-08
1.04375e-08
1.00006e-08
9.54683e-09
9.07885e-09
8.59924e-09
8.11064e-09
7.6157e-09
7.117e-09
6.61705e-09
6.11818e-09
5.62257e-09
5.13213e-09
4.64852e-09
4.17313e-09
3.70707e-09
3.25124e-09
2.80648e-09
2.37384e-09
1.95508e-09
1.55345e-09
1.17474e-09
8.28488e-10
5.28302e-10
2.90441e-10
1.27017e-10
3.7808e-11
5.09983e-12
3.00684e-14
7.27687e-14
1.2389e-11
9.32364e-11
3.22329e-10
7.65296e-10
1.44724e-09
2.34614e-09
3.4052e-09
4.55216e-09
5.71962e-09
6.85487e-09
7.92235e-09
8.90166e-09
9.78393e-09
1.05684e-08
1.12593e-08
1.18641e-08
1.23916e-08
1.2851e-08
1.32512e-08
1.36004e-08
1.39055e-08
1.41724e-08
1.44056e-08
1.46084e-08
1.47832e-08
1.49313e-08
1.50532e-08
1.51488e-08
1.52178e-08
1.52591e-08
1.52719e-08
1.52552e-08
1.52078e-08
1.51289e-08
1.50121e-08
1.48673e-08
1.46935e-08
1.44858e-08
1.42475e-08
1.39771e-08
1.36705e-08
1.3334e-08
1.29689e-08
1.25767e-08
1.21592e-08
1.17184e-08
1.12566e-08
1.07762e-08
1.02795e-08
9.7693e-09
9.24817e-09
8.7188e-09
8.18385e-09
7.64594e-09
7.10757e-09
6.5711e-09
6.03871e-09
5.51233e-09
4.99361e-09
4.48395e-09
3.98445e-09
3.49599e-09
3.01939e-09
2.5557e-09
2.10671e-09
1.67576e-09
1.26895e-09
8.96401e-10
5.72667e-10
3.15464e-10
1.38229e-10
4.12106e-11
5.56407e-12
3.28194e-14
8.05668e-14
1.37268e-11
1.03485e-10
3.58639e-10
8.53845e-10
1.61894e-09
2.63027e-09
3.82415e-09
5.11802e-09
6.43442e-09
7.71251e-09
8.91119e-09
1.00069e-08
1.09897e-08
1.18586e-08
1.2619e-08
1.32796e-08
1.38507e-08
1.43432e-08
1.47674e-08
1.51328e-08
1.54473e-08
1.57178e-08
1.59496e-08
1.61464e-08
1.6311e-08
1.6445e-08
1.65493e-08
1.6624e-08
1.66687e-08
1.6683e-08
1.66659e-08
1.66168e-08
1.65348e-08
1.64182e-08
1.62612e-08
1.60796e-08
1.58645e-08
1.56146e-08
1.53323e-08
1.50209e-08
1.46709e-08
1.42909e-08
1.38825e-08
1.34475e-08
1.29876e-08
1.25051e-08
1.20022e-08
1.14813e-08
1.0945e-08
1.03959e-08
9.83668e-09
9.26997e-09
8.69845e-09
8.12476e-09
7.55138e-09
6.9807e-09
6.41488e-09
5.85589e-09
5.3054e-09
4.76481e-09
4.23523e-09
3.71756e-09
3.21258e-09
2.72134e-09
2.24559e-09
1.78869e-09
1.35687e-09
9.60633e-10
6.15296e-10
3.39905e-10
1.4935e-10
4.46257e-11
6.03318e-12
3.56061e-14
8.86423e-14
1.51125e-11
1.14104e-10
3.96262e-10
9.4553e-10
1.79647e-09
2.92345e-09
4.25541e-09
5.69901e-09
7.16631e-09
8.58816e-09
9.91788e-09
1.11289e-08
1.22098e-08
1.31603e-08
1.39864e-08
1.46984e-08
1.53084e-08
1.58288e-08
1.62716e-08
1.66474e-08
1.69657e-08
1.72341e-08
1.74587e-08
1.76438e-08
1.77927e-08
1.79074e-08
1.7989e-08
1.8038e-08
1.80543e-08
1.80375e-08
1.79871e-08
1.79027e-08
1.77838e-08
1.76263e-08
1.74307e-08
1.72103e-08
1.69539e-08
1.66625e-08
1.63373e-08
1.59842e-08
1.55946e-08
1.5173e-08
1.47237e-08
1.42483e-08
1.37489e-08
1.32275e-08
1.26865e-08
1.21283e-08
1.15554e-08
1.09704e-08
1.0376e-08
9.7749e-09
9.16972e-09
8.56306e-09
7.95744e-09
7.35524e-09
6.75865e-09
6.16965e-09
5.58997e-09
5.02104e-09
4.46402e-09
3.9198e-09
3.38919e-09
2.8732e-09
2.37353e-09
1.89349e-09
1.43931e-09
1.02165e-09
6.56429e-10
3.63872e-10
1.60423e-10
4.80655e-11
6.50881e-12
3.84382e-14
9.69722e-14
1.65424e-11
1.25065e-10
4.35085e-10
1.04006e-09
1.97925e-09
3.22469e-09
4.69747e-09
6.29297e-09
7.91248e-09
9.47837e-09
1.09383e-08
1.22628e-08
1.34393e-08
1.44678e-08
1.53556e-08
1.61144e-08
1.67582e-08
1.73012e-08
1.77571e-08
1.81379e-08
1.84545e-08
1.87153e-08
1.89272e-08
1.90955e-08
1.92239e-08
1.93147e-08
1.93694e-08
1.93889e-08
1.93734e-08
1.93228e-08
1.9237e-08
1.91155e-08
1.89584e-08
1.8759e-08
1.85276e-08
1.82673e-08
1.79707e-08
1.76391e-08
1.72737e-08
1.688e-08
1.64538e-08
1.59933e-08
1.55058e-08
1.4993e-08
1.44569e-08
1.38995e-08
1.33232e-08
1.27303e-08
1.21234e-08
1.15051e-08
1.08781e-08
1.02449e-08
9.60831e-09
8.97084e-09
8.33504e-09
7.70329e-09
7.07783e-09
6.4607e-09
5.85367e-09
5.25824e-09
4.67563e-09
4.10679e-09
3.55257e-09
3.01394e-09
2.49254e-09
1.99158e-09
1.51716e-09
1.07998e-09
6.96342e-10
3.8749e-10
1.71496e-10
5.15449e-11
6.99297e-12
4.13277e-14
1.05529e-13
1.80114e-11
1.36328e-10
4.74969e-10
1.13709e-09
2.16655e-09
3.53278e-09
5.14851e-09
6.89746e-09
8.66985e-09
1.03795e-08
1.19684e-08
1.3404e-08
1.46731e-08
1.57759e-08
1.6721e-08
1.75219e-08
1.81945e-08
1.87549e-08
1.92185e-08
1.95991e-08
1.99086e-08
2.01568e-08
2.03514e-08
2.04984e-08
2.06021e-08
2.06653e-08
2.069e-08
2.06773e-08
2.06279e-08
2.05419e-08
2.04196e-08
2.02609e-08
2.00648e-08
1.98251e-08
1.95599e-08
1.92609e-08
1.89261e-08
1.85568e-08
1.81542e-08
1.77223e-08
1.72625e-08
1.67664e-08
1.62438e-08
1.56966e-08
1.51265e-08
1.45357e-08
1.39265e-08
1.33013e-08
1.26625e-08
1.20129e-08
1.13549e-08
1.06914e-08
1.00248e-08
9.35795e-09
8.69327e-09
8.03321e-09
7.38007e-09
6.73593e-09
6.10266e-09
5.48185e-09
4.87481e-09
4.28258e-09
3.70605e-09
3.14621e-09
2.60464e-09
2.08438e-09
1.59137e-09
1.13619e-09
7.35329e-10
4.10895e-10
1.82625e-10
5.50803e-11
7.48794e-12
4.42881e-14
1.14281e-13
1.95142e-11
1.4785e-10
5.15751e-10
1.2362e-09
2.35756e-09
3.84632e-09
5.60651e-09
7.50977e-09
9.43508e-09
1.12876e-08
1.30037e-08
1.4548e-08
1.59063e-08
1.70795e-08
1.80775e-08
1.89158e-08
1.96122e-08
2.0185e-08
2.06513e-08
2.10267e-08
2.13245e-08
2.15557e-08
2.17289e-08
2.18509e-08
2.19266e-08
2.19595e-08
2.19519e-08
2.19055e-08
2.18212e-08
2.16997e-08
2.15412e-08
2.13463e-08
2.11107e-08
2.08364e-08
2.05379e-08
2.02032e-08
1.98334e-08
1.94298e-08
1.89936e-08
1.85266e-08
1.8035e-08
1.75085e-08
1.69537e-08
1.63747e-08
1.57732e-08
1.51513e-08
1.45112e-08
1.38553e-08
1.31861e-08
1.25062e-08
1.18183e-08
1.11252e-08
1.04295e-08
9.73379e-09
9.04077e-09
8.35289e-09
7.67251e-09
7.0018e-09
6.34273e-09
5.69699e-09
5.06602e-09
4.45097e-09
3.85282e-09
3.27257e-09
2.71178e-09
2.17332e-09
1.66288e-09
1.19081e-09
7.73687e-10
4.34224e-10
1.93867e-10
5.86892e-11
7.99616e-12
4.73341e-14
1.23191e-13
2.10444e-11
1.5958e-10
5.57242e-10
1.3369e-09
2.55131e-09
4.16374e-09
6.06916e-09
8.12691e-09
1.02046e-08
1.21985e-08
1.40397e-08
1.56899e-08
1.7134e-08
1.83736e-08
1.94203e-08
2.02914e-08
2.1007e-08
2.15875e-08
2.2052e-08
2.24178e-08
2.26997e-08
2.291e-08
2.30585e-08
2.31526e-08
2.31981e-08
2.3199e-08
2.31582e-08
2.30777e-08
2.29588e-08
2.28025e-08
2.26094e-08
2.23799e-08
2.21075e-08
2.18048e-08
2.1474e-08
2.11075e-08
2.07067e-08
2.02728e-08
1.98069e-08
1.93101e-08
1.8788e-08
1.82358e-08
1.76517e-08
1.70436e-08
1.64129e-08
1.57616e-08
1.50919e-08
1.44062e-08
1.37072e-08
1.29975e-08
1.22798e-08
1.1557e-08
1.08319e-08
1.01072e-08
9.38558e-09
8.66961e-09
7.96172e-09
7.26421e-09
6.57912e-09
5.90831e-09
5.25332e-09
4.61545e-09
3.99578e-09
3.39539e-09
2.81579e-09
2.25971e-09
1.73257e-09
1.2444e-09
8.11704e-10
4.57611e-10
2.05277e-10
6.23889e-11
8.52012e-12
5.04807e-14
1.3222e-13
2.2595e-11
1.71462e-10
5.99228e-10
1.43866e-09
2.74673e-09
4.48328e-09
6.53397e-09
8.74567e-09
1.09745e-08
1.31081e-08
1.50719e-08
1.68249e-08
1.83514e-08
1.96536e-08
2.07447e-08
2.16444e-08
2.23749e-08
2.29588e-08
2.34174e-08
2.37698e-08
2.40325e-08
2.4219e-08
2.43403e-08
2.44047e-08
2.44187e-08
2.43871e-08
2.43131e-08
2.41993e-08
2.40473e-08
2.38585e-08
2.36337e-08
2.33716e-08
2.30678e-08
2.27412e-08
2.23819e-08
2.19883e-08
2.15613e-08
2.11019e-08
2.06107e-08
2.00888e-08
1.95393e-08
1.89645e-08
1.83547e-08
1.77197e-08
1.70615e-08
1.6382e-08
1.56833e-08
1.4968e-08
1.42389e-08
1.34987e-08
1.27504e-08
1.1997e-08
1.12414e-08
1.04865e-08
9.73516e-09
8.99002e-09
8.25365e-09
7.52843e-09
6.81654e-09
6.11993e-09
5.44031e-09
4.77911e-09
4.13755e-09
3.5168e-09
2.91834e-09
2.34479e-09
1.80128e-09
1.29745e-09
8.49648e-10
4.8118e-10
2.16908e-10
6.61964e-11
9.06229e-12
5.37431e-14
1.41325e-13
2.41582e-11
1.83434e-10
6.41478e-10
1.54088e-09
2.94267e-09
4.80305e-09
6.99825e-09
9.36262e-09
1.17408e-08
1.40118e-08
1.60956e-08
1.79482e-08
1.95536e-08
2.09147e-08
2.20466e-08
2.29709e-08
2.37124e-08
2.4296e-08
2.47453e-08
2.50813e-08
2.53221e-08
2.54827e-08
2.55752e-08
2.5609e-08
2.55914e-08
2.55277e-08
2.54218e-08
2.52767e-08
2.50944e-08
2.48764e-08
2.46239e-08
2.43324e-08
2.4006e-08
2.36578e-08
2.32758e-08
2.28607e-08
2.2413e-08
2.19333e-08
2.1422e-08
2.08797e-08
2.03072e-08
1.97096e-08
1.90799e-08
1.84198e-08
1.77352e-08
1.70279e-08
1.63001e-08
1.55546e-08
1.47941e-08
1.40219e-08
1.32411e-08
1.2455e-08
1.16668e-08
1.08796e-08
1.00965e-08
9.32031e-09
8.55371e-09
7.79921e-09
7.0591e-09
6.33546e-09
5.63012e-09
4.94465e-09
4.2804e-09
3.63864e-09
3.02088e-09
2.42964e-09
1.86975e-09
1.35042e-09
8.87754e-10
5.05041e-10
2.28807e-10
7.01275e-11
9.62501e-12
5.71357e-14
1.50457e-13
2.57259e-11
1.95428e-10
6.8374e-10
1.64293e-09
3.13787e-09
5.12104e-09
7.45916e-09
9.97417e-09
1.24994e-08
1.49051e-08
1.71058e-08
1.90551e-08
2.07361e-08
2.21527e-08
2.33218e-08
2.42673e-08
2.50166e-08
2.55969e-08
2.60341e-08
2.63513e-08
2.65684e-08
2.67019e-08
2.6765e-08
2.67684e-08
2.672e-08
2.66258e-08
2.64904e-08
2.63171e-08
2.61082e-08
2.58655e-08
2.559e-08
2.52755e-08
2.4934e-08
2.45683e-08
2.41701e-08
2.37397e-08
2.32775e-08
2.27834e-08
2.22572e-08
2.16991e-08
2.11091e-08
2.04901e-08
1.98433e-08
1.91603e-08
1.84502e-08
1.77151e-08
1.69574e-08
1.61799e-08
1.5386e-08
1.45791e-08
1.37628e-08
1.29409e-08
1.21168e-08
1.12942e-08
1.04763e-08
9.66628e-09
8.8669e-09
8.08085e-09
7.31051e-09
6.55807e-09
5.82545e-09
5.11435e-09
4.42625e-09
3.7625e-09
3.12468e-09
2.5152e-09
1.93862e-09
1.40373e-09
9.26209e-10
5.29287e-10
2.41014e-10
7.41958e-11
1.02104e-11
6.06719e-14
1.59566e-13
2.72891e-11
2.07374e-10
7.25749e-10
1.74413e-09
3.33104e-09
5.43513e-09
7.91375e-09
1.05766e-08
1.32459e-08
1.57833e-08
1.8098e-08
2.01407e-08
2.18942e-08
2.33632e-08
2.45665e-08
2.55304e-08
2.62847e-08
2.68593e-08
2.72825e-08
2.75795e-08
2.77719e-08
2.7878e-08
2.79123e-08
2.78863e-08
2.78089e-08
2.7687e-08
2.75255e-08
2.73282e-08
2.70977e-08
2.68359e-08
2.6543e-08
2.62133e-08
2.58629e-08
2.54864e-08
2.5079e-08
2.46405e-08
2.41705e-08
2.36682e-08
2.31329e-08
2.25641e-08
2.19614e-08
2.13251e-08
2.0659e-08
1.99583e-08
1.92228e-08
1.84592e-08
1.767e-08
1.68584e-08
1.60279e-08
1.51827e-08
1.4327e-08
1.34649e-08
1.26006e-08
1.17382e-08
1.08814e-08
1.00337e-08
9.19808e-09
8.37739e-09
7.57414e-09
6.79057e-09
6.02867e-09
5.2902e-09
4.57674e-09
3.88973e-09
3.23078e-09
2.60225e-09
2.00843e-09
1.45769e-09
9.652e-10
5.53999e-10
2.53562e-10
7.84128e-11
1.08203e-11
6.43636e-14
1.68601e-13
2.88387e-11
2.19198e-10
7.67229e-10
1.84379e-09
3.52082e-09
5.74316e-09
8.35903e-09
1.11663e-08
1.39761e-08
1.66418e-08
1.90672e-08
2.12004e-08
2.30235e-08
2.45423e-08
2.57772e-08
2.67572e-08
2.75146e-08
2.8082e-08
2.84899e-08
2.8766e-08
2.89338e-08
2.90131e-08
2.90197e-08
2.89665e-08
2.88631e-08
2.87171e-08
2.8534e-08
2.83179e-08
2.80717e-08
2.77975e-08
2.7494e-08
2.71577e-08
2.68047e-08
2.64253e-08
2.60165e-08
2.55775e-08
2.51068e-08
2.46031e-08
2.40649e-08
2.34907e-08
2.28797e-08
2.22311e-08
2.1546e-08
2.08284e-08
2.00693e-08
1.92763e-08
1.84536e-08
1.76046e-08
1.67338e-08
1.58457e-08
1.49453e-08
1.40376e-08
1.31275e-08
1.22199e-08
1.13189e-08
1.04285e-08
9.55215e-09
8.69287e-09
7.85326e-09
7.0356e-09
6.24189e-09
5.47391e-09
4.73326e-09
4.02144e-09
3.34007e-09
2.69143e-09
2.07962e-09
1.51254e-09
1.00485e-09
5.79248e-10
2.66476e-10
8.27876e-11
1.14562e-11
6.8221e-14
1.77507e-13
3.03653e-11
2.30824e-10
8.07896e-10
1.9412e-09
3.70585e-09
6.04297e-09
8.79198e-09
1.17394e-08
1.46856e-08
1.7476e-08
2.00089e-08
2.22297e-08
2.41199e-08
2.56861e-08
2.69508e-08
2.79453e-08
2.87045e-08
2.92637e-08
2.96561e-08
2.99115e-08
3.00555e-08
3.01094e-08
3.00907e-08
3.00132e-08
2.98876e-08
2.97221e-08
2.95227e-08
2.92939e-08
2.90386e-08
2.87589e-08
2.8454e-08
2.81201e-08
2.77706e-08
2.7397e-08
2.69953e-08
2.65639e-08
2.61004e-08
2.56026e-08
2.50679e-08
2.44941e-08
2.38795e-08
2.32227e-08
2.25233e-08
2.17845e-08
2.10056e-08
2.01822e-08
1.93235e-08
1.84338e-08
1.7518e-08
1.65815e-08
1.56304e-08
1.46705e-08
1.37078e-08
1.2748e-08
1.17963e-08
1.08571e-08
9.93436e-09
9.03148e-09
8.15118e-09
7.29574e-09
6.46713e-09
5.66705e-09
4.89704e-09
4.15858e-09
3.45326e-09
2.7833e-09
2.15255e-09
1.5685e-09
1.04522e-09
6.05113e-10
2.79768e-10
8.73258e-11
1.21193e-11
7.22518e-14
1.86229e-13
3.18593e-11
2.42174e-10
8.47468e-10
2.03565e-09
3.88478e-09
6.33238e-09
9.20962e-09
1.22922e-08
1.53704e-08
1.82815e-08
2.09185e-08
2.32241e-08
2.51792e-08
2.67911e-08
2.80842e-08
2.90922e-08
2.98528e-08
3.04038e-08
3.07812e-08
3.10169e-08
3.11387e-08
3.11697e-08
3.11287e-08
3.10308e-08
3.08875e-08
3.07078e-08
3.04982e-08
3.02634e-08
3.00064e-08
2.97291e-08
2.94319e-08
2.91105e-08
2.87714e-08
2.84126e-08
2.8027e-08
2.76118e-08
2.71637e-08
2.66794e-08
2.61553e-08
2.55881e-08
2.49751e-08
2.43143e-08
2.36045e-08
2.28458e-08
2.20434e-08
2.11925e-08
2.02953e-08
1.9361e-08
1.83952e-08
1.74044e-08
1.63955e-08
1.53758e-08
1.43526e-08
1.33326e-08
1.23221e-08
1.13265e-08
1.03505e-08
9.39787e-09
8.4715e-09
7.57374e-09
6.70643e-09
5.87113e-09
5.06921e-09
4.30199e-09
3.57099e-09
2.87829e-09
2.22751e-09
1.62573e-09
1.08642e-09
6.31586e-10
2.93444e-10
9.20302e-11
1.28102e-11
7.64618e-14
1.94714e-13
3.33111e-11
2.53174e-10
8.85664e-10
2.12646e-09
4.05628e-09
6.60931e-09
9.60905e-09
1.28211e-08
1.60262e-08
1.90538e-08
2.17917e-08
2.41796e-08
2.61977e-08
2.78541e-08
2.91749e-08
3.01962e-08
3.09583e-08
3.15019e-08
3.18655e-08
3.20834e-08
3.21854e-08
3.21965e-08
3.21371e-08
3.20233e-08
3.18677e-08
3.16798e-08
3.14667e-08
3.12333e-08
3.09826e-08
3.07163e-08
3.04345e-08
3.01364e-08
2.98174e-08
2.94816e-08
2.91211e-08
2.87311e-08
2.83072e-08
2.78445e-08
2.73384e-08
2.67844e-08
2.61788e-08
2.55186e-08
2.48017e-08
2.40276e-08
2.31984e-08
2.23201e-08
2.13837e-08
2.04012e-08
1.93802e-08
1.83286e-08
1.72544e-08
1.61666e-08
1.50737e-08
1.39842e-08
1.29056e-08
1.18448e-08
1.08072e-08
9.79728e-09
8.81828e-09
7.87263e-09
6.96202e-09
6.08775e-09
5.25087e-09
4.45246e-09
3.6938e-09
2.97677e-09
2.30475e-09
1.68437e-09
1.12851e-09
6.58669e-10
3.07499e-10
9.69007e-11
1.35294e-11
8.08544e-14
2.02907e-13
3.47113e-11
2.63749e-10
9.22214e-10
2.21295e-09
4.21909e-09
6.87175e-09
9.98753e-09
1.33228e-08
1.66493e-08
1.9789e-08
2.26243e-08
2.50922e-08
2.71718e-08
2.8872e-08
3.02203e-08
3.12553e-08
3.202e-08
3.25577e-08
3.29095e-08
3.31121e-08
3.31976e-08
3.31927e-08
3.31193e-08
3.29947e-08
3.28326e-08
3.26431e-08
3.24336e-08
3.22093e-08
3.19733e-08
3.17268e-08
3.14697e-08
3.12005e-08
3.09165e-08
3.06128e-08
3.02849e-08
2.99298e-08
2.95387e-08
2.9106e-08
2.86259e-08
2.80925e-08
2.75007e-08
2.68464e-08
2.61268e-08
2.53405e-08
2.4488e-08
2.35754e-08
2.26029e-08
2.15685e-08
2.04874e-08
1.93684e-08
1.82212e-08
1.70561e-08
1.58838e-08
1.47143e-08
1.35573e-08
1.24208e-08
1.13119e-08
1.02357e-08
9.19621e-09
8.19593e-09
7.23643e-09
6.31865e-09
5.44323e-09
4.61078e-09
3.82222e-09
3.0791e-09
2.38448e-09
1.74453e-09
1.17149e-09
6.86351e-10
3.21921e-10
1.01934e-10
1.42766e-11
8.54302e-14
2.10757e-13
3.6051e-11
2.73828e-10
9.56862e-10
2.29451e-09
4.37203e-09
7.11785e-09
1.03425e-08
1.37941e-08
1.72361e-08
2.04831e-08
2.34125e-08
2.59582e-08
2.80983e-08
2.9842e-08
3.12185e-08
3.22683e-08
3.30372e-08
3.35712e-08
3.39139e-08
3.41046e-08
3.41773e-08
3.41607e-08
3.40783e-08
3.39486e-08
3.37861e-08
3.36017e-08
3.34033e-08
3.31961e-08
3.29831e-08
3.27654e-08
3.25421e-08
3.2311e-08
3.20684e-08
3.18093e-08
3.15282e-08
3.12129e-08
3.08636e-08
3.04693e-08
3.00236e-08
2.95182e-08
2.89471e-08
2.83049e-08
2.75876e-08
2.6793e-08
2.59209e-08
2.49733e-08
2.39612e-08
2.28761e-08
2.173e-08
2.05373e-08
1.93092e-08
1.80578e-08
1.67956e-08
1.55351e-08
1.42879e-08
1.30642e-08
1.18727e-08
1.072e-08
9.61065e-09
8.54769e-09
7.53259e-09
6.56588e-09
5.64762e-09
4.77781e-09
3.95677e-09
3.18559e-09
2.46687e-09
1.80628e-09
1.2154e-09
7.14616e-10
3.36689e-10
1.07124e-10
1.50513e-11
9.01877e-14
2.18215e-13
3.73216e-11
2.83345e-10
9.89371e-10
2.37056e-09
4.51403e-09
7.34592e-09
1.06716e-08
1.42321e-08
1.77831e-08
2.11326e-08
2.41528e-08
2.67744e-08
2.89742e-08
3.07616e-08
3.21673e-08
3.32338e-08
3.40093e-08
3.45424e-08
3.48794e-08
3.50619e-08
3.51263e-08
3.51029e-08
3.50168e-08
3.48878e-08
3.47315e-08
3.45592e-08
3.43793e-08
3.4197e-08
3.40154e-08
3.38349e-08
3.36542e-08
3.34703e-08
3.32783e-08
3.30721e-08
3.28443e-08
3.2586e-08
3.22885e-08
3.19356e-08
3.15333e-08
3.10639e-08
3.05208e-08
2.98973e-08
2.9188e-08
2.83895e-08
2.75009e-08
2.65233e-08
2.54662e-08
2.43327e-08
2.31187e-08
2.18471e-08
2.05308e-08
1.9184e-08
1.78216e-08
1.64585e-08
1.51089e-08
1.37854e-08
1.24988e-08
1.12576e-08
1.00677e-08
8.93262e-09
7.85394e-09
6.83182e-09
5.86563e-09
4.95453e-09
4.09805e-09
3.29658e-09
2.5521e-09
1.86969e-09
1.26023e-09
7.43438e-10
3.51782e-10
1.12463e-10
1.58526e-11
9.51229e-14
2.25234e-13
3.85153e-11
2.92238e-10
1.01953e-09
2.4406e-09
4.64414e-09
7.55447e-09
1.09728e-08
1.46341e-08
1.82874e-08
2.17343e-08
2.48419e-08
2.75376e-08
2.97967e-08
3.16287e-08
3.30651e-08
3.41507e-08
3.49357e-08
3.54715e-08
3.58067e-08
3.59855e-08
3.60462e-08
3.60212e-08
3.59371e-08
3.58149e-08
3.56711e-08
3.55178e-08
3.53636e-08
3.52139e-08
3.50714e-08
3.49364e-08
3.48068e-08
3.46786e-08
3.4546e-08
3.44015e-08
3.42363e-08
3.40404e-08
3.38035e-08
3.35148e-08
3.31543e-08
3.27275e-08
3.22202e-08
3.16226e-08
3.09279e-08
3.01313e-08
2.92309e-08
2.82275e-08
2.71252e-08
2.594e-08
2.46614e-08
2.33065e-08
2.18959e-08
2.04457e-08
1.89732e-08
1.7496e-08
1.60312e-08
1.45946e-08
1.31996e-08
1.18569e-08
1.05742e-08
9.35603e-09
8.20445e-09
7.11926e-09
6.09909e-09
5.1421e-09