/*--------------------------------*- C++ -*----------------------------------*\
  =========                 |
  \\      /  F ield         | OpenFOAM: The Open Source CFD Toolbox
   \\    /   O peration     | Website:  https://openfoam.org
    \\  /    A nd           | Version:  12
     \\/     M anipulation  |
\*---------------------------------------------------------------------------*/
FoamFile
{
    format      ascii;
    class       surfaceScalarField;
    location    "3";
    object      phi;
}
// * * * * * * * * * * * * * * * * * * * * * * * * * * * * * * * * * * * * * //

dimensions      [0 3 -1 0 0 0 0];

internalField   nonuniform List<scalar> 
11100
(
3.85244e-10
-3.85601e-10
1.00945e-09
-6.24207e-10
1.50647e-09
-4.9703e-10
1.67168e-09
-1.65213e-10
1.41627e-09
2.55402e-10
7.16317e-10
6.99946e-10
-4.15231e-10
1.13154e-09
-1.94668e-09
1.53144e-09
-3.83787e-09
1.89119e-09
-6.04652e-09
2.20864e-09
-8.53187e-09
2.48535e-09
-1.12567e-08
2.72479e-09
-1.41879e-08
2.93128e-09
-1.72971e-08
3.10917e-09
-2.05595e-08
3.2624e-09
-2.39537e-08
3.39421e-09
-2.74607e-08
3.50699e-09
-3.10629e-08
3.6022e-09
-3.47434e-08
3.68044e-09
-3.84848e-08
3.74144e-09
-4.22691e-08
3.78423e-09
-4.60763e-08
3.80722e-09
-4.98846e-08
3.80835e-09
-5.36698e-08
3.78521e-09
-5.74051e-08
3.73523e-09
-6.10609e-08
3.65577e-09
-6.46051e-08
3.54426e-09
-6.80035e-08
3.39836e-09
-7.12195e-08
3.21603e-09
-7.42152e-08
2.99568e-09
-7.69515e-08
2.73628e-09
-7.93889e-08
2.43741e-09
-8.14883e-08
2.0994e-09
-8.32116e-08
1.72333e-09
-8.45227e-08
1.31106e-09
-8.53882e-08
8.65486e-10
-8.57801e-08
3.91909e-10
-8.56724e-08
-1.07708e-10
-8.50468e-08
-6.25537e-10
-8.3891e-08
-1.15582e-09
-8.21998e-08
-1.69118e-09
-7.99762e-08
-2.22362e-09
-7.72316e-08
-2.74465e-09
-7.39861e-08
-3.24546e-09
-7.0269e-08
-3.71709e-09
-6.61184e-08
-4.15064e-09
-6.15809e-08
-4.53753e-09
-5.67111e-08
-4.86975e-09
-5.15711e-08
-5.14008e-09
-4.62287e-08
-5.34232e-09
-4.07572e-08
-5.47154e-09
-3.5233e-08
-5.52422e-09
-2.97346e-08
-5.49841e-09
-2.43408e-08
-5.39382e-09
-1.91289e-08
-5.21188e-09
-1.41732e-08
-4.9557e-09
-9.54313e-09
-4.63006e-09
-5.30189e-09
-4.24125e-09
-1.50497e-09
-3.79693e-09
1.80101e-09
-3.30598e-09
4.57931e-09
-2.7783e-09
6.80395e-09
-2.22464e-09
8.46036e-09
-1.65642e-09
9.54616e-09
-1.0858e-09
1.00719e-08
-5.25708e-10
1.00619e-08
9.9681e-12
9.5557e-09
5.06189e-10
8.61031e-09
9.45389e-10
7.30312e-09
1.30719e-09
5.73696e-09
1.56616e-09
4.04623e-09
1.69073e-09
2.40432e-09
1.64191e-09
1.03019e-09
1.37413e-09
1.78412e-10
8.51773e-10
1.78411e-10
6.31137e-10
-1.01674e-09
1.48188e-09
-1.47495e-09
1.87698e-09
-8.92143e-10
1.43146e-09
2.803e-10
-5.11028e-11
1.73796e-09
-2.63939e-09
3.28823e-09
-6.32234e-09
4.81449e-09
-1.10401e-08
6.24918e-09
-1.67071e-08
7.55822e-09
-2.32273e-08
8.72885e-09
-3.05035e-08
9.7615e-09
-3.84428e-08
1.06641e-08
-4.69599e-08
1.14484e-08
-5.59777e-08
1.21269e-08
-6.54269e-08
1.27116e-08
-7.52451e-08
1.32124e-08
-8.53747e-08
1.36366e-08
-9.57613e-08
1.39888e-08
-1.06352e-07
1.42706e-08
-1.17091e-07
1.44808e-08
-1.27923e-07
1.46159e-08
-1.38786e-07
1.46702e-08
-1.49614e-07
1.46365e-08
-1.60335e-07
1.45067e-08
-1.70872e-07
1.42719e-08
-1.81139e-07
1.39232e-08
-1.91047e-07
1.3452e-08
-2.00499e-07
1.28507e-08
-2.09396e-07
1.2113e-08
-2.17635e-07
1.1234e-08
-2.2511e-07
1.02111e-08
-2.31716e-07
9.04408e-09
-2.37352e-07
7.73515e-09
-2.41918e-07
6.2896e-09
-2.45323e-07
4.71563e-09
-2.47481e-07
3.02404e-09
-2.48322e-07
1.23291e-09
-2.47787e-07
-6.43027e-10
-2.45831e-07
-2.58173e-09
-2.42428e-07
-4.55896e-09
-2.37571e-07
-6.54802e-09
-2.31274e-07
-8.5201e-09
-2.23574e-07
-1.04447e-08
-2.14529e-07
-1.22904e-08
-2.04221e-07
-1.40253e-08
-1.92754e-07
-1.56181e-08
-1.80253e-07
-1.70385e-08
-1.66864e-07
-1.82584e-08
-1.52752e-07
-1.92526e-08
-1.38094e-07
-1.99994e-08
-1.23084e-07
-2.04816e-08
-1.07922e-07
-2.06869e-08
-9.28118e-08
-2.06084e-08
-7.79604e-08
-2.02452e-08
-6.35701e-08
-1.96022e-08
-4.98355e-08
-1.86903e-08
-3.69393e-08
-1.75263e-08
-2.50483e-08
-1.61322e-08
-1.43098e-08
-1.45354e-08
-4.84825e-09
-1.27675e-08
3.23756e-09
-1.08641e-08
9.87707e-09
-8.86415e-09
1.50302e-08
-6.80955e-09
1.86895e-08
-4.74508e-09
2.0882e-08
-2.71821e-09
2.16718e-08
-7.79904e-10
2.11638e-08
1.01427e-09
1.95068e-08
2.60236e-09
1.68999e-08
3.91408e-09
1.3599e-08
4.86703e-09
9.92419e-09
5.36555e-09
6.2651e-09
5.301e-09
3.0776e-09
4.56163e-09
8.48607e-10
3.08076e-09
1.02702e-09
5.08756e-10
-1.52549e-09
8.984e-10
-1.86459e-09
4.25734e-10
-4.1948e-10
-1.34791e-09
2.05394e-09
-4.65795e-09
5.048e-09
-9.59453e-09
8.2248e-09
-1.6147e-08
1.13669e-08
-2.42406e-08
1.43427e-08
-3.37628e-08
1.70805e-08
-4.45829e-08
1.95489e-08
-5.65641e-08
2.17427e-08
-6.95727e-08
2.36727e-08
-8.34819e-08
2.53576e-08
-9.81743e-08
2.68193e-08
-1.13542e-07
2.80789e-08
-1.29484e-07
2.91543e-08
-1.45906e-07
3.00587e-08
-1.62717e-07
3.08001e-08
-1.79827e-07
3.13806e-08
-1.97143e-07
3.17973e-08
-2.1457e-07
3.20425e-08
-2.32005e-07
3.21048e-08
-2.49337e-07
3.19694e-08
-2.6645e-07
3.16198e-08
-2.83217e-07
3.10384e-08
-2.99502e-07
3.02077e-08
-3.15161e-07
2.91113e-08
-3.30044e-07
2.77344e-08
-3.43997e-07
2.60653e-08
-3.56859e-07
2.4096e-08
-3.6847e-07
2.18226e-08
-3.78673e-07
1.92465e-08
-3.87312e-07
1.63745e-08
-3.94242e-07
1.32196e-08
-3.99327e-07
9.80074e-09
-4.02447e-07
6.14382e-09
-4.03497e-07
2.28258e-09
-4.02394e-07
-1.74525e-09
-3.99082e-07
-5.89458e-09
-3.93526e-07
-1.01144e-08
-3.85725e-07
-1.43488e-08
-3.75708e-07
-1.85377e-08
-3.63534e-07
-2.26182e-08
-3.49299e-07
-2.65252e-08
-3.33131e-07
-3.01937e-08
-3.1519e-07
-3.35592e-08
-2.95668e-07
-3.65603e-08
-2.74787e-07
-3.91397e-08
-2.52794e-07
-4.1246e-08
-2.29958e-07
-4.28354e-08
-2.06567e-07
-4.38727e-08
-1.82921e-07
-4.43329e-08
-1.59327e-07
-4.4202e-08
-1.36094e-07
-4.34778e-08
-1.13527e-07
-4.217e-08
-9.19162e-08
-4.03007e-08
-7.15388e-08
-3.79038e-08
-5.26466e-08
-3.50244e-08
-3.54639e-08
-3.17182e-08
-2.01809e-08
-2.80505e-08
-6.95011e-09
-2.40949e-08
4.11824e-09
-1.99325e-08
1.29597e-08
-1.5651e-08
1.95587e-08
-1.13441e-08
2.39525e-08
-7.11195e-09
2.62338e-08
-3.06125e-09
2.65555e-08
6.92618e-10
2.51342e-08
4.02361e-09
2.22564e-08
6.79186e-09
1.8283e-08
8.84044e-09
1.36538e-08
9.99471e-09
8.88859e-09
1.00663e-08
4.57943e-09
8.8708e-09
1.37474e-09
6.28544e-09
2.40176e-09
1.63481e-10
-1.68897e-09
-3.44556e-10
-1.35656e-09
-2.20659e-09
1.44255e-09
-5.8361e-09
5.68344e-09
-1.14546e-08
1.06665e-08
-1.91419e-08
1.59121e-08
-2.88756e-08
2.11006e-08
-4.05642e-08
2.60314e-08
-5.40736e-08
3.05899e-08
-6.92468e-08
3.4722e-08
-8.59177e-08
3.84137e-08
-1.03921e-07
4.1676e-08
-1.23097e-07
4.45338e-08
-1.43296e-07
4.70177e-08
-1.64374e-07
4.91576e-08
-1.86199e-07
5.0979e-08
-2.08641e-07
5.25008e-08
-2.31575e-07
5.37336e-08
-2.54874e-07
5.46794e-08
-2.78408e-07
5.53322e-08
-3.02045e-07
5.56787e-08
-3.2564e-07
5.56997e-08
-3.49041e-07
5.53712e-08
-3.72088e-07
5.46667e-08
-3.94608e-07
5.35581e-08
-4.16418e-07
5.20179e-08
-4.37327e-07
5.00205e-08
-4.57137e-07
4.75438e-08
-4.75642e-07
4.45707e-08
-4.92637e-07
4.10905e-08
-5.07914e-07
3.70997e-08
-5.21271e-07
3.26033e-08
-5.32512e-07
2.76158e-08
-5.41454e-07
2.21612e-08
-5.47927e-07
1.62744e-08
-5.51784e-07
1.00009e-08
-5.52899e-07
3.397e-09
-5.51173e-07
-3.47111e-09
-5.4654e-07
-1.05274e-08
-5.38968e-07
-1.76866e-08
-5.28461e-07
-2.48558e-08
-5.15063e-07
-3.19355e-08
-4.98859e-07
-3.8822e-08
-4.79976e-07
-4.54087e-08
-4.58581e-07
-5.15888e-08
-4.34882e-07
-5.72575e-08
-4.09128e-07
-6.23145e-08
-3.81601e-07
-6.66666e-08
-3.52617e-07
-7.02303e-08
-3.22518e-07
-7.29341e-08
-2.9167e-07
-7.47207e-08
-2.60454e-07
-7.55493e-08
-2.29259e-07
-7.53964e-08
-1.98479e-07
-7.42579e-08
-1.685e-07
-7.21491e-08
-1.39696e-07
-6.91051e-08
-1.12419e-07
-6.51805e-08
-8.69948e-08
-6.04485e-08
-6.3713e-08
-5.5e-08
-4.28217e-08
-4.89418e-08
-2.45216e-08
-4.2395e-08
-8.96032e-09
-3.54938e-08
3.77247e-09
-2.83838e-08
1.36492e-08
-2.12209e-08
2.07089e-08
-1.41716e-08
2.50606e-08
-7.41303e-09
2.68881e-08
-1.13483e-09
2.64532e-08
4.45851e-09
2.41e-08
9.14508e-09
2.02577e-08
1.26827e-08
1.54436e-08
1.48089e-08
1.02625e-08
1.52474e-08
5.40629e-09
1.3727e-08
1.66483e-09
1.00269e-08
4.06659e-09
-3.0395e-10
-1.38501e-09
-1.99113e-09
3.30627e-10
-5.60694e-09
5.05836e-09
-1.14832e-08
1.15597e-08
-1.97877e-08
1.8971e-08
-3.05626e-08
2.6687e-08
-4.37568e-08
3.42948e-08
-5.92544e-08
4.15289e-08
-7.68978e-08
4.82333e-08
-9.65063e-08
5.43305e-08
-1.17889e-07
5.97967e-08
-1.40856e-07
6.46423e-08
-1.65219e-07
6.88973e-08
-1.90801e-07
7.25995e-08
-2.1743e-07
7.57869e-08
-2.44943e-07
7.84919e-08
-2.7318e-07
8.07374e-08
-3.01982e-07
8.25356e-08
-3.31189e-07
8.3887e-08
-3.60638e-07
8.4781e-08
-3.90157e-07
8.51971e-08
-4.19564e-07
8.51069e-08
-4.48668e-07
8.44758e-08
-4.77267e-07
8.32656e-08
-5.05146e-07
8.14369e-08
-5.3208e-07
7.89515e-08
-5.57834e-07
7.57743e-08
-5.82166e-07
7.18761e-08
-6.0483e-07
6.72352e-08
-6.25579e-07
6.18392e-08
-6.44167e-07
5.56872e-08
-6.60354e-07
4.87904e-08
-6.73912e-07
4.11737e-08
-6.84627e-07
3.28765e-08
-6.92306e-07
2.39532e-08
-6.96779e-07
1.44737e-08
-6.97904e-07
4.5229e-09
-6.95576e-07
-5.79986e-09
-6.89722e-07
-1.63815e-08
-6.80312e-07
-2.70964e-08
-6.67359e-07
-3.78082e-08
-6.50923e-07
-4.83719e-08
-6.31109e-07
-5.86365e-08
-6.0807e-07
-6.84476e-08
-5.82008e-07
-7.76507e-08
-5.53171e-07
-8.60944e-08
-5.21851e-07
-9.36341e-08
-4.88383e-07
-1.00135e-07
-4.53135e-07
-1.05478e-07
-4.16511e-07
-1.09558e-07
-3.78939e-07
-1.12293e-07
-3.40866e-07
-1.13622e-07
-3.0275e-07
-1.13512e-07
-2.65054e-07
-1.11955e-07
-2.28232e-07
-1.0897e-07
-1.92729e-07
-1.04609e-07
-1.58962e-07
-9.89469e-08
-1.27321e-07
-9.20896e-08
-9.81538e-08
-8.41674e-08
-7.17608e-08
-7.53347e-08
-4.83884e-08
-6.57674e-08
-2.82211e-08
-5.56611e-08
-1.13765e-08
-4.52284e-08
2.10079e-09
-3.46982e-08
1.22432e-08
-2.4314e-08
1.91648e-08
-1.43346e-08
2.30649e-08
-5.03491e-09
2.42313e-08
3.29207e-09
2.30434e-08
1.03329e-08
1.99743e-08
1.57518e-08
1.55918e-08
1.91913e-08
1.05614e-08
2.02777e-08
5.65252e-09
1.86359e-08
1.76324e-09
1.39162e-08
5.82983e-09
-8.38989e-10
-5.46021e-10
-3.88372e-09
3.37535e-09
-9.50413e-09
1.06788e-08
-1.79127e-08
1.99683e-08
-2.91929e-08
3.02512e-08
-4.33261e-08
4.08202e-08
-6.02165e-08
5.11852e-08
-7.97134e-08
6.10259e-08
-1.01631e-07
7.01509e-08
-1.25763e-07
7.84631e-08
-1.51897e-07
8.59303e-08
-1.79818e-07
9.25631e-08
-2.09317e-07
9.83958e-08
-2.4019e-07
1.03473e-07
-2.72243e-07
1.0784e-07
-3.05285e-07
1.11534e-07
-3.39129e-07
1.14581e-07
-3.73586e-07
1.16993e-07
-4.08465e-07
1.18767e-07
-4.4357e-07
1.19886e-07
-4.78695e-07
1.20322e-07
-5.13623e-07
1.20035e-07
-5.48126e-07
1.18979e-07
-5.81963e-07
1.17103e-07
-6.14881e-07
1.14355e-07
-6.46617e-07
1.10687e-07
-6.76897e-07
1.06054e-07
-7.05442e-07
1.00421e-07
-7.31969e-07
9.37623e-08
-7.56196e-07
8.60659e-08
-7.77844e-07
7.73352e-08
-7.96644e-07
6.75904e-08
-8.1234e-07
5.687e-08
-8.24696e-07
4.52321e-08
-8.33497e-07
3.27545e-08
-8.38559e-07
1.95354e-08
-8.39729e-07
5.69289e-09
-8.36892e-07
-8.6362e-09
-8.29977e-07
-2.32971e-08
-8.18954e-07
-3.81189e-08
-8.03845e-07
-5.29173e-08
-7.84721e-07
-6.74966e-08
-7.61703e-07
-8.16539e-08
-7.34969e-07
-9.51821e-08
-7.04745e-07
-1.07874e-07
-6.71312e-07
-1.19528e-07
-6.34997e-07
-1.29949e-07
-5.96173e-07
-1.38959e-07
-5.55257e-07
-1.46394e-07
-5.12697e-07
-1.52117e-07
-4.68975e-07
-1.56015e-07
-4.24591e-07
-1.58006e-07
-3.80062e-07
-1.58042e-07
-3.35907e-07
-1.56109e-07
-2.92644e-07
-1.52233e-07
-2.50775e-07
-1.46478e-07
-2.10779e-07
-1.38943e-07
-1.73101e-07
-1.29768e-07
-1.38144e-07
-1.19124e-07
-1.06259e-07
-1.0722e-07
-7.7737e-08
-9.42892e-08
-5.28016e-08
-8.05964e-08
-3.16012e-08
-6.64289e-08
-1.42035e-08
-5.20959e-08
-5.9047e-10
-3.7927e-08
9.34639e-09
-2.42715e-08
1.58095e-08
-1.1498e-08
1.90982e-08
3.34881e-12
1.96104e-08
9.82071e-09
1.78452e-08
1.7517e-08
1.44043e-08
2.26322e-08
9.99591e-09
2.46862e-08
5.44501e-09
2.31867e-08
1.72059e-09
1.76406e-08
7.55041e-09
-1.41128e-09
8.65256e-10
-5.92502e-09
7.8891e-09
-1.37188e-08
1.84725e-08
-2.48626e-08
3.1112e-08
-3.93337e-08
4.47223e-08
-5.70342e-08
5.85207e-08
-7.7809e-08
7.196e-08
-1.01463e-07
8.46797e-08
-1.27775e-07
9.64632e-08
-1.56512e-07
1.072e-07
-1.87436e-07
1.16854e-07
-2.20312e-07
1.25438e-07
-2.54908e-07
1.32992e-07
-2.91001e-07
1.39567e-07
-3.28374e-07
1.45213e-07
-3.66812e-07
1.49972e-07
-4.06104e-07
1.53873e-07
-4.46036e-07
1.56924e-07
-4.86387e-07
1.59118e-07
-5.26932e-07
1.60431e-07
-5.67433e-07
1.60823e-07
-6.0764e-07
1.60243e-07
-6.47293e-07
1.58631e-07
-6.86115e-07
1.55925e-07
-7.2382e-07
1.5206e-07
-7.60109e-07
1.46976e-07
-7.94676e-07
1.40621e-07
-8.27207e-07
1.32953e-07
-8.5739e-07
1.23945e-07
-8.84912e-07
1.13587e-07
-9.09466e-07
1.0189e-07
-9.3076e-07
8.88838e-08
-9.48514e-07
7.46245e-08
-9.62474e-07
5.91913e-08
-9.72408e-07
4.26888e-08
-9.78119e-07
2.52468e-08
-9.79446e-07
7.0199e-09
-9.76268e-07
-1.18141e-08
-9.6851e-07
-3.10551e-08
-9.56146e-07
-5.04837e-08
-9.39199e-07
-6.98637e-08
-9.1775e-07
-8.89453e-08
-8.91934e-07
-1.0747e-07
-8.61942e-07
-1.25174e-07
-8.28021e-07
-1.41795e-07
-7.90474e-07
-1.57075e-07
-7.49656e-07
-1.70767e-07
-7.05972e-07
-1.82643e-07
-6.59872e-07
-1.92495e-07
-6.11845e-07
-2.00144e-07
-5.62414e-07
-2.05447e-07
-5.12126e-07
-2.08294e-07
-4.61546e-07
-2.08621e-07
-4.11247e-07
-2.06408e-07
-3.61798e-07
-2.01682e-07
-3.13758e-07
-1.94518e-07
-2.67661e-07
-1.85041e-07
-2.24006e-07
-1.73422e-07
-1.83251e-07
-1.5988e-07
-1.45795e-07
-1.44675e-07
-1.11977e-07
-1.28107e-07
-8.20616e-08
-1.10512e-07
-5.62325e-08
-9.22579e-08
-3.4587e-08
-7.37414e-08
-1.7129e-08
-5.53851e-08
-3.7647e-09
-3.76358e-08
5.70098e-09
-2.09637e-08
1.15669e-08
-5.86253e-09
1.42381e-08
7.14947e-09
1.42267e-08
1.75284e-08
1.21545e-08
2.47044e-08
8.75762e-09
2.80831e-08
4.89639e-09
2.7048e-08
1.57766e-09
2.09593e-08
9.12807e-09
-2.00358e-09
2.86883e-09
-8.05416e-09
1.39397e-08
-1.81314e-08
2.85498e-08
-3.21495e-08
4.51301e-08
-4.99645e-08
6.25373e-08
-7.13853e-08
7.99415e-08
-9.61859e-08
9.67606e-08
-1.24117e-07
1.12611e-07
-1.54918e-07
1.27264e-07
-1.88323e-07
1.40605e-07
-2.24068e-07
1.52599e-07
-2.61895e-07
1.63266e-07
-3.01556e-07
1.72652e-07
-3.42806e-07
1.80816e-07
-3.85408e-07
1.87815e-07
-4.29129e-07
1.93693e-07
-4.73733e-07
1.98478e-07
-5.18985e-07
2.02175e-07
-5.64638e-07
2.04772e-07
-6.1044e-07
2.06233e-07
-6.56126e-07
2.06508e-07
-7.01416e-07
2.05533e-07
-7.46018e-07
2.03234e-07
-7.89628e-07
1.99535e-07
-8.31927e-07
1.94359e-07
-8.72587e-07
1.87636e-07
-9.11272e-07
1.79306e-07
-9.47641e-07
1.69322e-07
-9.81353e-07
1.57657e-07
-1.01207e-06
1.44305e-07
-1.03946e-06
1.29284e-07
-1.06322e-06
1.1264e-07
-1.08304e-06
9.44459e-08
-1.09866e-06
7.48052e-08
-1.10982e-06
5.38516e-08
-1.11632e-06
3.1749e-08
-1.11799e-06
8.69086e-09
-1.1147e-06
-1.51015e-08
-1.10638e-06
-3.93805e-08
-1.09299e-06
-6.38756e-08
-1.07456e-06
-8.82961e-08
-1.05116e-06
-1.12336e-07
-1.02296e-06
-1.35678e-07
-9.90132e-07
-1.57999e-07
-9.5295e-07
-1.78977e-07
-9.11729e-07
-1.98296e-07
-8.66842e-07
-2.15654e-07
-8.18718e-07
-2.30767e-07
-7.67834e-07
-2.43379e-07
-7.1471e-07
-2.53269e-07
-6.59904e-07
-2.60253e-07
-6.04003e-07
-2.64194e-07
-5.47617e-07
-2.65008e-07
-4.91365e-07
-2.62661e-07
-4.35867e-07
-2.5718e-07
-3.81732e-07
-2.48652e-07
-3.29551e-07
-2.37222e-07
-2.79877e-07
-2.23096e-07
-2.3322e-07
-2.06537e-07
-1.90034e-07
-1.87861e-07
-1.50707e-07
-1.67434e-07
-1.15549e-07
-1.4567e-07
-8.47855e-08
-1.23022e-07
-5.85488e-08
-9.9978e-08
-3.68726e-08
-7.70613e-08
-1.96859e-08
-5.48225e-08
-6.80994e-09
-3.38396e-08
2.0446e-09
-1.47171e-08
7.27956e-09
1.91452e-09
9.41034e-09
1.53976e-08
9.06814e-09
2.50466e-08
7.00402e-09
3.01472e-08
4.09627e-09
2.99557e-08
1.36501e-09
2.36906e-08
1.04931e-08
-2.60579e-09
5.47462e-09
-1.02321e-08
2.1566e-08
-2.26604e-08
4.09781e-08
-3.9642e-08
6.21118e-08
-6.09022e-08
8.37975e-08
-8.61468e-08
1.05186e-07
-1.1507e-07
1.25684e-07
-1.47361e-07
1.44903e-07
-1.82714e-07
1.62616e-07
-2.20825e-07
1.78716e-07
-2.61405e-07
1.93179e-07
-3.04174e-07
2.06034e-07
-3.48861e-07
2.17339e-07
-3.95206e-07
2.27162e-07
-4.42955e-07
2.35564e-07
-4.91854e-07
2.42593e-07
-5.41652e-07
2.48275e-07
-5.92089e-07
2.52612e-07
-6.42899e-07
2.55582e-07
-6.93805e-07
2.57139e-07
-7.44516e-07
2.5722e-07
-7.9473e-07
2.55746e-07
-8.44126e-07
2.52631e-07
-8.92374e-07
2.47782e-07
-9.39129e-07
2.41113e-07
-9.84035e-07
2.32543e-07
-1.02673e-06
2.22003e-07
-1.06686e-06
2.09446e-07
-1.10404e-06
1.94843e-07
-1.13793e-06
1.78195e-07
-1.16818e-06
1.5953e-07
-1.19445e-06
1.38907e-07
-1.21642e-06
1.16422e-07
-1.23382e-06
9.22031e-08
-1.24638e-06
6.64142e-08
-1.25389e-06
3.92552e-08
-1.25616e-06
1.09595e-08
-1.25305e-06
-1.82064e-08
-1.24449e-06
-4.79462e-08
-1.23043e-06
-7.79366e-08
-1.21089e-06
-1.07831e-07
-1.18596e-06
-1.37265e-07
-1.15578e-06
-1.65861e-07
-1.12054e-06
-1.93235e-07
-1.08052e-06
-2.19001e-07
-1.03603e-06
-2.42783e-07
-9.87469e-07
-2.64217e-07
-9.35271e-07
-2.82964e-07
-8.79937e-07
-2.98713e-07
-8.22011e-07
-3.11194e-07
-7.62082e-07
-3.20182e-07
-7.00772e-07
-3.25505e-07
-6.38728e-07
-3.27051e-07
-5.76615e-07
-3.24773e-07
-5.15103e-07
-3.18692e-07
-4.54853e-07
-3.08902e-07
-3.9651e-07
-2.95566e-07
-3.40683e-07
-2.78923e-07
-2.87941e-07
-2.59279e-07
-2.38794e-07
-2.37008e-07
-1.93683e-07
-2.12545e-07
-1.52971e-07
-1.86382e-07
-1.16931e-07
-1.59062e-07
-8.57375e-08
-1.31171e-07
-5.94613e-08
-1.03338e-07
-3.80621e-08
-7.62217e-08
-2.13852e-08
-5.05165e-08
-9.15893e-09
-2.69433e-08
-9.92829e-10
-6.25158e-09
3.6235e-09
1.07813e-08
5.32161e-09
2.33485e-08
4.85661e-09
3.06122e-08
3.11148e-09
3.17009e-08
1.10429e-09
2.56978e-08
1.15974e-08
-3.21158e-09
8.6862e-09
-1.24324e-08
3.07869e-08
-2.72475e-08
5.57931e-08
-4.72422e-08
8.21065e-08
-7.20055e-08
1.08561e-07
-1.01133e-07
1.34314e-07
-1.34234e-07
1.58784e-07
-1.70931e-07
1.81599e-07
-2.10865e-07
2.0255e-07
-2.53697e-07
2.21548e-07
-2.99105e-07
2.38588e-07
-3.46788e-07
2.53717e-07
-3.96455e-07
2.67007e-07
-4.4783e-07
2.78537e-07
-5.00642e-07
2.88376e-07
-5.54623e-07
2.96574e-07
-6.09503e-07
3.03154e-07
-6.65005e-07
3.08114e-07
-7.20844e-07
3.11421e-07
-7.76723e-07
3.13018e-07
-8.32331e-07
3.12827e-07
-8.87341e-07
3.10756e-07
-9.41412e-07
3.06702e-07
-9.9419e-07
3.0056e-07
-1.04531e-06
2.9223e-07
-1.09439e-06
2.81623e-07
-1.14105e-06
2.68664e-07
-1.1849e-06
2.53302e-07
-1.22557e-06
2.35512e-07
-1.26268e-06
2.153e-07
-1.29585e-06
1.92705e-07
-1.32475e-06
1.67803e-07
-1.34904e-06
1.40711e-07
-1.36842e-06
1.11583e-07
-1.38262e-06
8.06145e-08
-1.3914e-06
4.80416e-08
-1.39458e-06
1.41386e-08
-1.392e-06
-2.07832e-08
-1.38357e-06
-5.63779e-08
-1.36924e-06
-9.22692e-08
-1.34902e-06
-1.28054e-07
-1.32298e-06
-1.63308e-07
-1.29124e-06
-1.97592e-07
-1.25402e-06
-2.30457e-07
-1.21157e-06
-2.61455e-07
-1.16421e-06
-2.90142e-07
-1.11233e-06
-3.16093e-07
-1.05639e-06
-3.38904e-07
-9.96899e-07
-3.58208e-07
-9.34414e-07
-3.73679e-07
-8.69551e-07
-3.85044e-07
-8.02965e-07
-3.92091e-07
-7.3534e-07
-3.94676e-07
-6.67385e-07
-3.92729e-07
-5.99816e-07
-3.86261e-07
-5.33351e-07
-3.75367e-07
-4.68689e-07
-3.60228e-07
-4.06503e-07
-3.41109e-07
-3.47421e-07
-3.18361e-07
-2.92016e-07
-2.92413e-07
-2.40791e-07
-2.6377e-07
-1.94167e-07
-2.33006e-07
-1.52471e-07
-2.00758e-07
-1.15929e-07
-1.67714e-07
-8.46551e-08
-1.34611e-07
-5.86483e-08
-1.02229e-07
-3.77855e-08
-7.13793e-08
-2.18199e-08
-4.29089e-08
-1.03795e-08
-1.7692e-08
-2.96617e-09
3.36791e-09
1.04451e-09
1.93378e-08
2.4039e-09
2.92528e-08
1.99025e-09
3.21145e-08
8.10414e-10
2.68776e-08
1.24078e-08
-3.81649e-09
1.25027e-08
-1.46354e-08
4.16058e-08
-3.18479e-08
7.30056e-08
-5.48729e-08
1.05132e-07
-8.31601e-08
1.36848e-07
-1.16192e-07
1.67346e-07
-1.53487e-07
1.96079e-07
-1.94598e-07
2.2271e-07
-2.39112e-07
2.47064e-07
-2.86648e-07
2.69085e-07
-3.36856e-07
2.88796e-07
-3.89407e-07
3.06268e-07
-4.43995e-07
3.21595e-07
-5.00326e-07
3.34868e-07
-5.58114e-07
3.46164e-07
-6.17079e-07
3.55538e-07
-6.76934e-07
3.6301e-07
-7.3739e-07
3.6857e-07
-7.98145e-07
3.72176e-07
-8.58884e-07
3.73757e-07
-9.19279e-07
3.73222e-07
-9.78984e-07
3.70461e-07
-1.03764e-06
3.65358e-07
-1.09487e-06
3.57793e-07
-1.1503e-06
3.47656e-07
-1.20352e-06
3.34846e-07
-1.25414e-06
3.19284e-07
-1.30176e-06
3.00918e-07
-1.34597e-06
2.79724e-07
-1.38639e-06
2.55716e-07
-1.42263e-06
2.28944e-07
-1.45432e-06
1.99502e-07
-1.48114e-06
1.67526e-07
-1.50276e-06
1.33199e-07
-1.51889e-06
9.67453e-08
-1.52928e-06
5.84377e-08
-1.53373e-06
1.85904e-08
-1.53208e-06
-2.24405e-08
-1.52419e-06
-6.42605e-08
-1.51002e-06
-1.0644e-07
-1.48956e-06
-1.4852e-07
-1.46285e-06
-1.90015e-07
-1.43002e-06
-2.30424e-07
-1.39124e-06
-2.69232e-07
-1.34678e-06
-3.05923e-07
-1.29693e-06
-3.39986e-07
-1.2421e-06
-3.70927e-07
-1.18273e-06
-3.98276e-07
-1.11933e-06
-4.21601e-07
-1.0525e-06
-4.40515e-07
-9.82853e-07
-4.54689e-07
-9.11081e-07
-4.63864e-07
-8.37901e-07
-4.67855e-07
-7.64066e-07
-4.66564e-07
-6.90341e-07
-4.59985e-07
-6.175e-07
-4.48208e-07
-5.46305e-07
-4.31424e-07
-4.77491e-07
-4.09922e-07
-4.11758e-07
-3.84094e-07
-3.49745e-07
-3.54425e-07
-2.92026e-07
-3.2149e-07
-2.39086e-07
-2.85946e-07
-1.91318e-07
-2.48526e-07
-1.49005e-07
-2.10026e-07
-1.12316e-07
-1.71301e-07
-8.12944e-08
-1.3325e-07
-5.58573e-08
-9.68164e-08
-3.579e-08
-6.29762e-08
-2.07453e-08
-3.27367e-08
-1.02435e-08
-7.13389e-09
-3.67351e-09
1.27678e-08
-2.93871e-10
2.58731e-08
7.64586e-10
3.1056e-08
4.93e-10
2.71492e-08
1.29008e-08
-4.41681e-09
1.69195e-08
-1.6825e-08
5.4014e-08
-3.64248e-08
9.26054e-08
-6.24695e-08
1.31176e-07
-9.4269e-08
1.68647e-07
-1.31191e-07
2.04269e-07
-1.72662e-07
2.3755e-07
-2.18161e-07
2.68209e-07
-2.67221e-07
2.96123e-07
-3.19418e-07
3.21282e-07
-3.74369e-07
3.43747e-07
-4.31723e-07
3.63622e-07
-4.91154e-07
3.81026e-07
-5.52354e-07
3.96067e-07
-6.15024e-07
4.08834e-07
-6.7887e-07
4.19384e-07
-7.43596e-07
4.27736e-07
-8.08898e-07
4.33872e-07
-8.74462e-07
4.3774e-07
-9.3996e-07
4.39255e-07
-1.00505e-06
4.3831e-07
-1.06937e-06
4.3478e-07
-1.13254e-06
4.28533e-07
-1.19419e-06
4.19436e-07
-1.25389e-06
4.07366e-07
-1.31126e-06
3.92214e-07
-1.36588e-06
3.73897e-07
-1.41732e-06
3.52359e-07
-1.46517e-06
3.27581e-07
-1.50904e-06
2.99583e-07
-1.54853e-06
2.68427e-07
-1.58325e-06
2.34223e-07
-1.61285e-06
1.97129e-07
-1.637e-06
1.5735e-07
-1.6554e-06
1.15144e-07
-1.66778e-06
7.08152e-08
-1.6739e-06
2.47176e-08
-1.6736e-06
-2.27496e-08
-1.66671e-06
-7.11441e-08
-1.65317e-06
-1.19985e-07
-1.63293e-06
-1.68756e-07
-1.60603e-06
-2.16914e-07
-1.57256e-06
-2.63891e-07
-1.53269e-06
-3.09109e-07
-1.48663e-06
-3.51979e-07
-1.4347e-06
-3.91921e-07
-1.37726e-06
-4.28366e-07
-1.31476e-06
-4.60772e-07
-1.24773e-06
-4.88636e-07
-1.17674e-06
-5.11504e-07
-1.10244e-06
-5.28983e-07
-1.02555e-06
-5.40756e-07
-9.46817e-07
-5.4659e-07
-8.67032e-07
-5.46349e-07
-7.87016e-07
-5.40001e-07
-7.07601e-07
-5.27624e-07
-6.29613e-07
-5.09412e-07
-5.53861e-07
-4.85674e-07
-4.81118e-07
-4.56837e-07
-4.12103e-07
-4.2344e-07
-3.47465e-07
-3.86128e-07
-2.87768e-07
-3.45643e-07
-2.33475e-07
-3.02818e-07
-1.8494e-07
-2.58561e-07
-1.42392e-07
-2.13848e-07
-1.05932e-07
-1.69711e-07
-7.55213e-08
-1.27227e-07
-5.09863e-08
-8.75112e-08
-3.20107e-08
-5.17123e-08
-1.81388e-08
-2.10058e-08
-8.77728e-09
3.40629e-09
-3.19914e-09
2.0295e-08
-5.4615e-10
2.8403e-08
1.57651e-10
2.64454e-08
1.30584e-08
-5.0091e-09
2.19286e-08
-1.89865e-08
6.79913e-08
-4.09448e-08
1.14564e-07
-6.99738e-08
1.60205e-07
-1.05245e-07
2.03918e-07
-1.46011e-07
2.45035e-07
-1.91605e-07
2.83144e-07
-2.41435e-07
3.18039e-07
-2.94975e-07
3.49663e-07
-3.51759e-07
3.78066e-07
-4.11373e-07
4.0336e-07
-4.73441e-07
4.2569e-07
-5.3762e-07
4.45204e-07
-6.03586e-07
4.62033e-07
-6.71031e-07
4.76279e-07
-7.3965e-07
4.88003e-07
-8.09136e-07
4.97222e-07
-8.79176e-07
5.03913e-07
-9.49446e-07
5.0801e-07
-1.01961e-06
5.09416e-07
-1.0893e-06
5.08008e-07
-1.15817e-06
5.03644e-07
-1.22581e-06
4.96176e-07
-1.29183e-06
4.85459e-07
-1.35583e-06
4.71357e-07
-1.41737e-06
4.53755e-07
-1.47603e-06
4.32561e-07
-1.53139e-06
4.0772e-07
-1.58303e-06
3.79216e-07
-1.63052e-06
3.47073e-07
-1.67346e-06
3.11367e-07
-1.71145e-06
2.7222e-07
-1.74413e-06
2.29811e-07
-1.77115e-06
1.84369e-07
-1.79219e-06
1.36178e-07
-1.80695e-06
8.55754e-08
-1.81518e-06
3.29514e-08
-1.81668e-06
-2.12539e-08
-1.81127e-06
-7.65529e-08
-1.79884e-06
-1.32414e-07
-1.77933e-06
-1.88268e-07
-1.75273e-06
-2.43509e-07
-1.71911e-06
-2.97509e-07
-1.67861e-06
-3.49618e-07
-1.63141e-06
-3.99179e-07
-1.57779e-06
-4.45534e-07
-1.51812e-06
-4.88037e-07
-1.45282e-06
-5.2607e-07
-1.38241e-06
-5.59049e-07
-1.30747e-06
-5.86443e-07
-1.22867e-06
-6.07788e-07
-1.14672e-06
-6.227e-07
-1.06243e-06
-6.30886e-07
-9.76613e-07
-6.32162e-07
-8.90156e-07
-6.26459e-07
-8.03946e-07
-6.13834e-07
-7.18884e-07
-5.94474e-07
-6.35855e-07
-5.68703e-07
-5.55714e-07
-5.36977e-07
-4.79269e-07
-4.99886e-07
-4.07254e-07
-4.58142e-07
-3.40323e-07
-4.12575e-07
-2.79021e-07
-3.64119e-07
-2.23782e-07
-3.13801e-07
-1.74907e-07
-2.62724e-07
-1.3256e-07
-2.12058e-07
-9.67611e-08
-1.63025e-07
-6.73817e-08
-1.1689e-07
-4.41437e-08
-7.49503e-08
-2.66205e-08
-3.8529e-08
-1.42406e-08
-8.97367e-09
-6.2931e-09
1.23475e-08
-1.93225e-09
2.40422e-08
-1.92686e-10
2.47058e-08
1.28657e-08
-5.58981e-09
2.75184e-08
-2.11057e-08
8.35072e-08
-4.53763e-08
1.38834e-07
-7.73315e-08
1.9216e-07
-1.16006e-07
2.42593e-07
-1.6054e-07
2.89569e-07
-2.10175e-07
3.32779e-07
-2.64245e-07
3.72109e-07
-3.22169e-07
4.07588e-07
-3.8344e-07
4.39336e-07
-4.47609e-07
4.6753e-07
-5.14279e-07
4.9236e-07
-5.83088e-07
5.14014e-07
-6.53702e-07
5.32647e-07
-7.258e-07
5.48377e-07
-7.9907e-07
5.61272e-07
-8.73198e-07
5.7135e-07
-9.47862e-07
5.78578e-07
-1.02273e-06
5.8288e-07
-1.09746e-06
5.84145e-07
-1.17169e-06
5.82233e-07
-1.24503e-06
5.76987e-07
-1.3171e-06
5.68245e-07
-1.38748e-06
5.55845e-07
-1.45577e-06
5.3964e-07
-1.52152e-06
5.19508e-07
-1.58431e-06
4.95351e-07
-1.6437e-06
4.67112e-07
-1.69926e-06
4.34776e-07
-1.75056e-06
3.98374e-07
-1.79719e-06
3.57991e-07
-1.83873e-06
3.13762e-07
-1.8748e-06
2.65883e-07
-1.90504e-06
2.14603e-07
-1.92909e-06
1.60233e-07
-1.94665e-06
1.03137e-07
-1.95744e-06
4.37402e-08
-1.96121e-06
-1.748e-08
-1.95777e-06
-7.99933e-08
-1.94697e-06
-1.43221e-07
-1.9287e-06
-2.06539e-07
-1.90292e-06
-2.69286e-07
-1.86966e-06
-3.30768e-07
-1.82901e-06
-3.90267e-07
-1.78114e-06
-4.47052e-07
-1.72629e-06
-5.00387e-07
-1.66478e-06
-5.49545e-07
-1.59703e-06
-5.9382e-07
-1.52353e-06
-6.32544e-07
-1.44488e-06
-6.65101e-07
-1.36172e-06
-6.90943e-07
-1.27481e-06
-7.09607e-07
-1.18497e-06
-7.2073e-07
-1.09306e-06
-7.24067e-07
-1.00002e-06
-7.195e-07
-9.06804e-07
-7.07053e-07
-8.14381e-07
-6.86897e-07
-7.23725e-07
-6.59359e-07
-6.35784e-07
-6.24919e-07
-5.51459e-07
-5.84211e-07
-4.71587e-07
-5.38014e-07
-3.96917e-07
-4.87245e-07
-3.28094e-07
-4.32943e-07
-2.6564e-07
-3.76255e-07
-2.09941e-07
-3.18422e-07
-1.61237e-07
-2.60762e-07
-1.19614e-07
-2.04649e-07
-8.49966e-08
-1.51507e-07
-5.71527e-08
-1.02794e-07
-3.56895e-08
-5.99922e-08
-2.00608e-08
-2.46024e-08
-9.57267e-09
1.85943e-09
-3.39204e-09
1.78616e-08
-5.57803e-10
2.18716e-08
1.23079e-08
-6.1552e-09
3.36736e-08
-2.3168e-08
1.0052e-07
-4.96881e-08
1.65354e-07
-8.44892e-08
2.26962e-07
-1.26474e-07
2.84577e-07
-1.74671e-07
3.37766e-07
-2.28233e-07
3.86341e-07
-2.86424e-07
4.303e-07
-3.48607e-07
4.69771e-07
-4.14234e-07
5.04963e-07
-4.82824e-07
5.36121e-07
-5.53959e-07
5.63495e-07
-6.27261e-07
5.87315e-07
-7.02383e-07
6.07769e-07
-7.78996e-07
6.24991e-07
-8.56781e-07
6.39058e-07
-9.35419e-07
6.49988e-07
-1.01458e-06
6.57743e-07
-1.09394e-06
6.62236e-07
-1.17314e-06
6.63341e-07
-1.2518e-06
6.60902e-07
-1.32956e-06
6.54746e-07
-1.40601e-06
6.44695e-07
-1.48074e-06
6.30574e-07
-1.55333e-06
6.12226e-07
-1.62334e-06
5.89516e-07
-1.69033e-06
5.62343e-07
-1.75386e-06
5.30648e-07
-1.8135e-06
4.94414e-07
-1.86881e-06
4.53679e-07
-1.91935e-06
4.08532e-07
-1.96471e-06
3.59122e-07
-2.00448e-06
3.05657e-07
-2.03828e-06
2.48404e-07
-2.06575e-06
1.87695e-07
-2.08653e-06
1.23922e-07
-2.10033e-06
5.75361e-08
-2.10686e-06
-1.0949e-08
-2.10589e-06
-8.09642e-08
-2.09722e-06
-1.51886e-07
-2.08072e-06
-2.23041e-07
-2.05629e-06
-2.9371e-07
-2.02393e-06
-3.63137e-07
-1.98366e-06
-4.30536e-07
-1.93561e-06
-4.95098e-07
-1.87999e-06
-5.56008e-07
-1.81708e-06
-6.1245e-07
-1.74728e-06
-6.63629e-07
-1.67104e-06
-7.08783e-07
-1.58894e-06
-7.472e-07
-1.50164e-06
-7.78238e-07
-1.40991e-06
-8.01343e-07
-1.31457e-06
-8.16068e-07
-1.21654e-06
-8.22092e-07
-1.11681e-06
-8.19235e-07
-1.01639e-06
-8.07473e-07
-9.16334e-07
-7.86949e-07
-8.17712e-07
-7.57981e-07
-7.21568e-07
-7.21063e-07
-6.2891e-07
-6.76869e-07
-5.40685e-07
-6.26239e-07
-4.57756e-07
-5.70174e-07
-3.80876e-07
-5.09823e-07
-3.10671e-07
-4.46459e-07
-2.47627e-07
-3.81467e-07
-1.92069e-07
-3.16319e-07
-1.4416e-07
-2.52558e-07
-1.03891e-07
-1.91777e-07
-7.10793e-08
-1.35606e-07
-4.53731e-08
-8.56984e-08
-2.62544e-08
-4.37211e-08
-1.30472e-08
-1.13477e-08
-4.92941e-09
9.74375e-09
-9.38763e-10
1.78809e-08
1.13692e-08
-6.70126e-09
4.03749e-08
-2.51587e-08
1.18977e-07
-5.38484e-08
1.94044e-07
-9.13937e-08
2.64507e-07
-1.36569e-07
3.29753e-07
-1.88298e-07
3.89495e-07
-2.45646e-07
4.43689e-07
-3.07809e-07
4.92463e-07
-3.74097e-07
5.36059e-07
-4.43921e-07
5.74786e-07
-5.16773e-07
6.08972e-07
-5.92211e-07
6.38933e-07
-6.69843e-07
6.64948e-07
-7.49311e-07
6.87238e-07
-8.30282e-07
7.05961e-07
-9.12429e-07
7.21205e-07
-9.9543e-07
7.32989e-07
-1.07896e-06
7.4127e-07
-1.16267e-06
7.4595e-07
-1.24622e-06
7.4689e-07
-1.32924e-06
7.43917e-07
-1.41133e-06
7.36843e-07
-1.49211e-06
7.25474e-07
-1.57116e-06
7.09622e-07
-1.64805e-06
6.89116e-07
-1.72235e-06
6.63813e-07
-1.79361e-06
6.33607e-07
-1.8614e-06
5.98432e-07
-1.92525e-06
5.58273e-07
-1.98474e-06
5.13167e-07
-2.03942e-06
4.63211e-07
-2.08886e-06
4.08559e-07
-2.13263e-06
3.49431e-07
-2.17034e-06
2.86109e-07
-2.20158e-06
2.1894e-07
-2.226e-06
1.48338e-07
-2.24324e-06
7.47811e-08
-2.253e-06
-1.18923e-09
-2.255e-06
-7.89685e-08
-2.24899e-06
-1.57892e-07
-2.2348e-06
-2.37238e-07
-2.21227e-06
-3.16236e-07
-2.18134e-06
-3.94068e-07
-2.142e-06
-4.69878e-07
-2.09431e-06
-5.42782e-07
-2.03844e-06
-6.1188e-07
-1.97462e-06
-6.76267e-07
-1.9032e-06
-7.35051e-07
-1.82462e-06
-7.87367e-07
-1.73942e-06
-8.32399e-07
-1.64826e-06
-8.69398e-07