/*--------------------------------*- C++ -*----------------------------------*\
  =========                 |
  \\      /  F ield         | OpenFOAM: The Open Source CFD Toolbox
   \\    /   O peration     | Website:  https://openfoam.org
    \\  /    A nd           | Version:  12
     \\/     M anipulation  |
\*---------------------------------------------------------------------------*/
FoamFile
{
    format      ascii;
    class       volVectorField;
    location    "3";
    object      U;
}
// * * * * * * * * * * * * * * * * * * * * * * * * * * * * * * * * * * * * * //

dimensions      [0 1 -1 0 0 0 0];

internalField   nonuniform List<vector> 
5625
(
(1.1203e-05 -1.12096e-05 0)
(5.40282e-05 -1.68604e-05 0)
(9.81588e-05 -1.52607e-05 0)
(0.000125267 -1.01893e-05 0)
(0.000123007 -4.11539e-06 0)
(8.73825e-05 2.01307e-06 0)
(1.84081e-05 7.70561e-06 0)
(-8.19926e-05 1.27505e-05 0)
(-0.000210988 1.70957e-05 0)
(-0.000365408 2.07775e-05 0)
(-0.000542083 2.38686e-05 0)
(-0.000738063 2.64583e-05 0)
(-0.000950703 2.86371e-05 0)
(-0.0011777 3.04882e-05 0)
(-0.00141705 3.2082e-05 0)
(-0.00166705 3.34746e-05 0)
(-0.00192619 3.47064e-05 0)
(-0.00219312 3.58027e-05 0)
(-0.00246655 3.67747e-05 0)
(-0.00274522 3.76211e-05 0)
(-0.00302779 3.83294e-05 0)
(-0.00331287 3.88785e-05 0)
(-0.00359888 3.92398e-05 0)
(-0.00388411 3.93797e-05 0)
(-0.00416665 3.92615e-05 0)
(-0.00444437 3.88464e-05 0)
(-0.00471497 3.80962e-05 0)
(-0.00497595 3.6974e-05 0)
(-0.00522465 3.54462e-05 0)
(-0.00545827 3.34838e-05 0)
(-0.00567391 3.10639e-05 0)
(-0.0058686 2.81707e-05 0)
(-0.0060394 2.47976e-05 0)
(-0.00618339 2.09468e-05 0)
(-0.00629775 1.6625e-05 0)
(-0.00637995 1.1865e-05 0)
(-0.00642748 6.72307e-06 0)
(-0.00643853 1.21708e-06 0)
(-0.00641128 -4.57162e-06 0)
(-0.0063446 -1.05715e-05 0)
(-0.00623783 -1.66955e-05 0)
(-0.00609088 -2.2844e-05 0)
(-0.00590428 -2.89113e-05 0)
(-0.0056792 -3.47848e-05 0)
(-0.0054175 -4.03486e-05 0)
(-0.00512171 -4.54861e-05 0)
(-0.00479502 -5.00837e-05 0)
(-0.00444123 -5.40344e-05 0)
(-0.00406473 -5.72408e-05 0)
(-0.00367042 -5.96194e-05 0)
(-0.0032636 -6.1103e-05 0)
(-0.00284992 -6.16435e-05 0)
(-0.00243521 -6.12142e-05 0)
(-0.0020254 -5.98111e-05 0)
(-0.00162638 -5.7453e-05 0)
(-0.00124385 -5.41814e-05 0)
(-0.000883229 -5.00594e-05 0)
(-0.000549522 -4.51693e-05 0)
(-0.000247197 -3.96104e-05 0)
(1.98933e-05 -3.34959e-05 0)
(0.000248607 -2.69494e-05 0)
(0.000436576 -2.01022e-05 0)
(0.000582272 -1.30931e-05 0)
(0.000685037 -6.05337e-06 0)
(0.000745166 8.60424e-07 0)
(0.000763946 7.48795e-06 0)
(0.000743749 1.36514e-05 0)
(0.000688152 1.91387e-05 0)
(0.000602134 2.36708e-05 0)
(0.000492393 2.686e-05 0)
(0.000367723 2.81645e-05 0)
(0.00023958 2.68413e-05 0)
(0.000123083 2.18499e-05 0)
(3.77821e-05 1.1861e-05 0)
(-5.7876e-07 -5.7726e-07 0)
(1.71158e-05 -5.42664e-05 0)
(8.53267e-05 -8.47119e-05 0)
(0.000137839 -6.42758e-05 0)
(0.000140975 -1.55672e-05 0)
(7.12002e-05 4.61818e-05 0)
(-8.09184e-05 0.000111757 0)
(-0.000316735 0.000175822 0)
(-0.000633042 0.000235501 0)
(-0.00102408 0.000289448 0)
(-0.00148283 0.000337258 0)
(-0.0020019 0.000379089 0)
(-0.00257409 0.000415401 0)
(-0.00319269 0.000446789 0)
(-0.00385159 0.000473866 0)
(-0.00454532 0.000497195 0)
(-0.00526896 0.000517242 0)
(-0.00601805 0.000534351 0)
(-0.00678842 0.000548735 0)
(-0.00757607 0.000560478 0)
(-0.00837698 0.000569541 0)
(-0.009187 0.000575778 0)
(-0.0100017 0.000578955 0)
(-0.0108164 0.000578766 0)
(-0.011626 0.000574859 0)
(-0.0124247 0.000566853 0)
(-0.0132064 0.000554359 0)
(-0.0139647 0.000537003 0)
(-0.0146925 0.000514441 0)
(-0.0153825 0.000486378 0)
(-0.016027 0.000452589 0)
(-0.0166181 0.000412926 0)
(-0.0171481 0.000367342 0)
(-0.017609 0.000315897 0)
(-0.0179933 0.000258767 0)
(-0.0182938 0.000196247 0)
(-0.0185039 0.000128734 0)
(-0.0186174 5.71202e-05 0)
(-0.0186299 -1.8312e-05 0)
(-0.018537 -9.64695e-05 0)
(-0.0183363 -0.00017641 0)
(-0.0180265 -0.000257037 0)
(-0.0176077 -0.000337159 0)
(-0.017082 -0.00041551 0)
(-0.0164527 -0.000490772 0)
(-0.0157253 -0.000561612 0)
(-0.0149066 -0.000626707 0)
(-0.0140053 -0.000684784 0)
(-0.0130316 -0.000734652 0)
(-0.0119972 -0.00077524 0)
(-0.010915 -0.000805632 0)
(-0.00979889 -0.000825095 0)
(-0.00866373 -0.000833107 0)
(-0.00752477 -0.000829381 0)
(-0.00639751 -0.000813873 0)
(-0.00529734 -0.000786795 0)
(-0.00423923 -0.00074861 0)
(-0.00323739 -0.000700025 0)
(-0.002305 -0.000641976 0)
(-0.00145392 -0.000575603 0)
(-0.000694369 -0.000502231 0)
(-3.47847e-05 -0.000423338 0)
(0.000518442 -0.000340535 0)
(0.000961114 -0.000255539 0)
(0.00129142 -0.000170193 0)
(0.00151005 -8.64353e-05 0)
(0.00162038 -6.35196e-06 0)
(0.00162865 6.77698e-05 0)
(0.00154434 0.000133308 0)
(0.00138036 0.000187253 0)
(0.00115369 0.000225899 0)
(0.000885762 0.000244776 0)
(0.000603035 0.000238541 0)
(0.000337911 0.000201435 0)
(0.000130149 0.000130335 0)
(1.1708e-05 3.76347e-05 0)
(1.58275e-05 -9.93134e-05 0)
(6.52781e-05 -0.000137673 0)
(6.99384e-05 -7.02208e-05 0)
(-8.28838e-06 5.76574e-05 0)
(-0.000195901 0.000215526 0)
(-0.00050447 0.000383636 0)
(-0.000936138 0.000549654 0)
(-0.0014871 0.000706302 0)
(-0.00214994 0.000849776 0)
(-0.00291524 0.000978539 0)
(-0.00377277 0.00109249 0)
(-0.00471229 0.00119236 0)
(-0.00572396 0.0012793 0)
(-0.00679861 0.00135461 0)
(-0.00792779 0.00141952 0)
(-0.0091037 0.00147505 0)
(-0.0103191 0.00152198 0)
(-0.011567 0.00156077 0)
(-0.0128408 0.00159158 0)
(-0.0141335 0.00161428 0)
(-0.0154383 0.00162847 0)
(-0.0167476 0.00163355 0)
(-0.0180535 0.00162873 0)
(-0.0193475 0.00161313 0)
(-0.0206204 0.0015858 0)
(-0.0218624 0.00154578 0)
(-0.023063 0.00149215 0)
(-0.0242112 0.00142412 0)
(-0.0252955 0.001341 0)
(-0.026304 0.00124232 0)
(-0.0272247 0.0011278 0)
(-0.0280456 0.000997459 0)
(-0.0287549 0.000851581 0)
(-0.0293414 0.000690778 0)
(-0.0297943 0.000515989 0)
(-0.0301041 0.000328492 0)
(-0.0302621 0.000130058 0)
(-0.0302614 -7.73935e-05 0)
(-0.0300966 -0.000291551 0)
(-0.0297644 -0.000509745 0)
(-0.0292632 -0.000729043 0)
(-0.0285942 -0.000946291 0)
(-0.0277606 -0.00115816 0)
(-0.0267682 -0.00136122 0)
(-0.0256254 -0.00155201 0)
(-0.024343 -0.00172711 0)
(-0.0229344 -0.00188324 0)
(-0.0214149 -0.00201735 0)
(-0.0198024 -0.00212671 0)
(-0.0181161 -0.00220896 0)
(-0.0163772 -0.00226224 0)
(-0.0146077 -0.00228522 0)
(-0.0128306 -0.00227716 0)
(-0.011069 -0.00223794 0)
(-0.00934596 -0.0021681 0)
(-0.00768404 -0.00206881 0)
(-0.00610462 -0.0019419 0)
(-0.00462761 -0.00178976 0)
(-0.00327096 -0.00161537 0)
(-0.00205031 -0.00142217 0)
(-0.0009786 -0.00121406 0)
(-6.57406e-05 -0.000995284 0)
(0.000681644 -0.000770458 0)
(0.0012605 -0.00054449 0)
(0.00167157 -0.000322607 0)
(0.00191965 -0.000110414 0)
(0.0020139 8.60007e-05 0)
(0.00196807 0.000259915 0)
(0.00180095 0.000403745 0)
(0.00153673 0.000508796 0)
(0.00120531 0.000565167 0)
(0.000842445 0.000561931 0)
(0.000490534 0.000488313 0)
(0.000201983 0.000338085 0)
(2.16061e-05 0.000122607 0)
(1.08681e-05 -0.000127241 0)
(1.41596e-05 -0.000139516 0)
(-6.6185e-05 9.34457e-06 0)
(-0.000266452 0.000251945 0)
(-0.000610506 0.00054257 0)
(-0.00110901 0.000850366 0)
(-0.00176342 0.00115513 0)
(-0.00256888 0.0014444 0)
(-0.00351653 0.00171122 0)
(-0.00459514 0.00195243 0)
(-0.00579237 0.00216734 0)
(-0.00709567 0.00235681 0)
(-0.00849279 0.00252248 0)
(-0.00997206 0.00266635 0)
(-0.0115225 0.00279032 0)
(-0.0131339 0.00289606 0)
(-0.0147962 0.00298476 0)
(-0.0165002 0.00305714 0)
(-0.0182363 0.00311339 0)
(-0.019995 0.00315319 0)
(-0.0217665 0.00317579 0)
(-0.0235405 0.00318006 0)
(-0.0253058 0.00316459 0)
(-0.0270507 0.00312778 0)
(-0.0287628 0.00306797 0)
(-0.0304287 0.00298347 0)
(-0.0320343 0.00287272 0)
(-0.033565 0.00273434 0)
(-0.0350056 0.00256726 0)
(-0.0363407 0.00237074 0)
(-0.0375547 0.00214447 0)
(-0.0386322 0.00188866 0)
(-0.0395581 0.00160404 0)
(-0.0403182 0.00129194 0)
(-0.0408992 0.000954277 0)
(-0.0412892 0.00059364 0)
(-0.0414776 0.000213299 0)
(-0.0414562 -0.000182956 0)
(-0.0412187 -0.000590717 0)
(-0.0407612 -0.001005 0)
(-0.0400827 -0.00142036 0)
(-0.0391851 -0.00183096 0)
(-0.038073 -0.00223067 0)
(-0.0367545 -0.00261321 0)
(-0.0352406 -0.00297225 0)
(-0.0335453 -0.0033016 0)
(-0.0316859 -0.0035953 0)
(-0.0296824 -0.00384782 0)
(-0.0275571 -0.00405421 0)
(-0.0253349 -0.00421023 0)
(-0.0230425 -0.0043125 0)
(-0.020708 -0.00435859 0)
(-0.0183603 -0.00434714 0)
(-0.0160291 -0.00427793 0)
(-0.0137436 -0.0041519 0)
(-0.0115324 -0.00397115 0)
(-0.0094231 -0.00373895 0)
(-0.0074411 -0.00345966 0)
(-0.00560962 -0.00313867 0)
(-0.00394894 -0.00278228 0)
(-0.002476 -0.00239766 0)
(-0.00120396 -0.00199268 0)
(-0.000141799 -0.00157589 0)
(0.000706 -0.00115644 0)
(0.00133979 -0.00074408 0)
(0.00176505 -0.000349218 0)
(0.00199269 1.69506e-05 0)
(0.00203932 0.000342256 0)
(0.00192765 0.000613348 0)
(0.00168659 0.000815438 0)
(0.00135155 0.000932313 0)
(0.000964222 0.000946751 0)
(0.00057385 0.000842018 0)
(0.000242597 0.00060589 0)
(2.67564e-05 0.0002396 0)
(4.45903e-06 -0.000123744 0)
(-5.49324e-05 -6.14633e-05 0)
(-0.000245234 0.000209063 0)
(-0.000596796 0.000602175 0)
(-0.00112678 0.0010586 0)
(-0.00184241 0.00153726 0)
(-0.00274286 0.00201044 0)
(-0.00382139 0.00246052 0)
(-0.00506736 0.00287727 0)
(-0.00646779 0.00325573 0)
(-0.00800854 0.00359446 0)
(-0.00967517 0.00389427 0)
(-0.0114534 0.00415725 0)
(-0.0133296 0.00438595 0)
(-0.0152907 0.00458296 0)
(-0.0173241 0.00475046 0)
(-0.0194176 0.00489005 0)
(-0.0215596 0.00500261 0)
(-0.023738 0.00508826 0)
(-0.0259407 0.0051464 0)
(-0.0281553 0.00517581 0)
(-0.0303685 0.00517471 0)
(-0.0325664 0.00514095 0)
(-0.0347342 0.00507212 0)
(-0.0368562 0.00496569 0)
(-0.038916 0.00481921 0)
(-0.0408962 0.00463041 0)
(-0.042779 0.00439735 0)
(-0.044546 0.00411857 0)
(-0.0461786 0.00379316 0)
(-0.0476582 0.00342093 0)
(-0.0489666 0.00300242 0)
(-0.0500862 0.00253906 0)
(-0.0510002 0.00203316 0)
(-0.0516933 0.00148799 0)
(-0.0521519 0.000907793 0)
(-0.0523641 0.000297778 0)
(-0.0523206 -0.000335946 0)
(-0.0520147 -0.000986387 0)
(-0.0514424 -0.00164574 0)
(-0.0506032 -0.0023055 0)
(-0.0494995 -0.00295663 0)
(-0.0481377 -0.00358965 0)
(-0.0465273 -0.0041949 0)
(-0.0446819 -0.00476267 0)
(-0.0426181 -0.00528346 0)
(-0.0403565 -0.00574817 0)
(-0.0379204 -0.00614837 0)
(-0.0353363 -0.00647647 0)
(-0.0326334 -0.00672601 0)
(-0.029843 -0.00689179 0)
(-0.0269979 -0.00697006 0)
(-0.0241323 -0.00695872 0)
(-0.0212808 -0.00685734 0)
(-0.018478 -0.00666727 0)
(-0.0157578 -0.00639168 0)
(-0.0131527 -0.00603549 0)
(-0.010693 -0.00560531 0)
(-0.00840663 -0.00510937 0)
(-0.00631799 -0.00455737 0)
(-0.00444774 -0.00396035 0)
(-0.00281215 -0.00333051 0)
(-0.00142264 -0.00268114 0)
(-0.000285399 -0.00202651 0)
(0.000599032 -0.00138179 0)
(0.00123607 -0.00076316 0)
(0.00163739 -0.000187853 0)
(0.00182123 0.000325648 0)
(0.00181252 0.000757421 0)
(0.00164324 0.00108594 0)
(0.00135228 0.00128811 0)
(0.000985434 0.00133974 0)
(0.000596984 0.00121686 0)
(0.000256362 0.000898446 0)
(2.86329e-05 0.00037083 0)
(-2.61129e-06 -8.18671e-05 0)
(-0.000134331 0.00011335 0)
(-0.000451138 0.000551611 0)
(-0.000974765 0.0011334 0)
(-0.00171277 0.00178841 0)
(-0.00266691 0.00246692 0)
(-0.00383264 0.00313473 0)
(-0.00520034 0.00376963 0)
(-0.00675707 0.00435844 0)
(-0.00848789 0.0048945 0)
(-0.0103769 0.00537567 0)
(-0.0124079 0.0058027 0)
(-0.014565 0.00617799 0)
(-0.0168327 0.00650465 0)
(-0.019196 0.00678581 0)
(-0.0216406 0.0070241 0)
(-0.0241524 0.00722139 0)
(-0.0267172 0.00737862 0)
(-0.0293209 0.00749574 0)
(-0.0319491 0.00757174 0)
(-0.0345867 0.00760481 0)
(-0.0372179 0.00759241 0)
(-0.039826 0.00753155 0)
(-0.0423933 0.00741891 0)
(-0.0449015 0.00725109 0)
(-0.047331 0.00702479 0)
(-0.0496618 0.00673706 0)
(-0.051873 0.00638544 0)
(-0.0539435 0.00596813 0)
(-0.055852 0.00548421 0)
(-0.0575774 0.0049337 0)
(-0.0590991 0.00431775 0)
(-0.0603973 0.00363868 0)
(-0.0614534 0.00290007 0)
(-0.0622505 0.00210683 0)
(-0.0627735 0.00126518 0)
(-0.0630096 0.000382668 0)
(-0.0629488 -0.00053193 0)
(-0.062584 -0.00146865 0)
(-0.0619114 -0.00241644 0)
(-0.0609306 -0.00336336 0)
(-0.059645 -0.00429672 0)
(-0.0580618 -0.00520331 0)
(-0.0561924 -0.00606968 0)
(-0.0540517 -0.00688233 0)
(-0.0516589 -0.00762808 0)
(-0.0490368 -0.00829432 0)
(-0.0462118 -0.00886935 0)
(-0.0432135 -0.00934266 0)
(-0.0400745 -0.00970522 0)
(-0.0368298 -0.00994977 0)
(-0.0335164 -0.0100711 0)
(-0.0301725 -0.010066 0)
(-0.0268372 -0.00993395 0)
(-0.0235496 -0.00967657 0)
(-0.020348 -0.0092981 0)
(-0.0172694 -0.00880523 0)
(-0.0143487 -0.00820704 0)
(-0.0116178 -0.00751486 0)
(-0.00910523 -0.00674217 0)
(-0.00683515 -0.00590431 0)
(-0.00482699 -0.00501838 0)
(-0.00309482 -0.00410303 0)
(-0.00164686 -0.00317829 0)
(-0.000485072 -0.00226552 0)
(0.00039521 -0.00138736 0)
(0.00100558 -0.000567804 0)
(0.00136481 0.00016769 0)
(0.00149901 0.000792021 0)
(0.00144179 0.00127637 0)
(0.00123431 0.00159022 0)
(0.000925165 0.00170168 0)
(0.000572269 0.00157841 0)
(0.000249757 0.0011889 0)
(2.83619e-05 0.000503469 0)
(-9.94793e-06 1.96101e-06 0)
(-0.000219576 0.000395168 0)
(-0.000673656 0.00105212 0)
(-0.00138374 0.00186351 0)
(-0.00234583 0.00275072 0)
(-0.0035547 0.00365737 0)
(-0.00500082 0.00454415 0)
(-0.00667082 0.00538522 0)
(-0.00854882 0.00616508 0)
(-0.0106176 0.00687579 0)
(-0.0128593 0.00751469 0)
(-0.0152562 0.00808257 0)
(-0.0177906 0.0085822 0)
(-0.0204456 0.00901718 0)
(-0.0232046 0.00939109 0)
(-0.0260516 0.00970693 0)
(-0.0289705 0.00996671 0)
(-0.0319454 0.0101713 0)
(-0.0349602 0.0103204 0)
(-0.0379982 0.0104124 0)
(-0.0410419 0.0104447 0)
(-0.0440733 0.0104141 0)
(-0.0470731 0.0103166 0)
(-0.0500212 0.0101479 0)
(-0.0528964 0.00990364 0)
(-0.0556769 0.00957978 0)
(-0.0583398 0.00917267 0)
(-0.0608618 0.00867938 0)
(-0.0632195 0.00809793 0)
(-0.0653892 0.00742746 0)
(-0.0673476 0.00666843 0)
(-0.0690723 0.00582274 0)
(-0.0705415 0.00489384 0)
(-0.0717353 0.00388684 0)
(-0.0726353 0.00280853 0)
(-0.0732253 0.00166741 0)
(-0.0734919 0.000473633 0)
(-0.0734243 -0.000761041 0)
(-0.0730151 -0.00202337 0)
(-0.0722604 -0.00329877 0)
(-0.0711603 -0.00457153 0)
(-0.0697184 -0.00582501 0)
(-0.0679429 -0.00704195 0)
(-0.065846 -0.00820479 0)
(-0.0634441 -0.00929594 0)
(-0.0607579 -0.0102982 0)
(-0.0578121 -0.0111952 0)
(-0.0546354 -0.0119717 0)
(-0.0512597 -0.0126138 0)
(-0.0477205 -0.0131098 0)
(-0.0440559 -0.0134501 0)
(-0.0403061 -0.0136276 0)
(-0.036513 -0.0136381 0)
(-0.0327194 -0.0134805 0)
(-0.0289683 -0.0131567 0)
(-0.0253023 -0.0126721 0)
(-0.0217625 -0.012035 0)
(-0.0183879 -0.011257 0)
(-0.0152145 -0.0103529 0)
(-0.0122746 -0.00934011 0)
(-0.0095962 -0.00823861 0)
(-0.00720194 -0.00707081 0)
(-0.00510882 -0.00586119 0)
(-0.00332751 -0.00463613 0)
(-0.00186189 -0.0034237 0)
(-0.000708689 -0.00225363 0)
(0.000142876 -0.00115725 0)
(0.000711278 -0.000167555 0)
(0.00102289 0.00068066 0)
(0.00111208 0.00135076 0)
(0.00102123 0.00180425 0)
(0.000800764 0.00200092 0)
(0.000510979 0.0018993 0)
(0.000228371 0.00145679 0)
(2.67286e-05 0.000628606 0)
(-1.73554e-05 0.000129705 0)
(-0.000308058 0.000790343 0)
(-0.000906213 0.00172068 0)
(-0.00181237 0.00280501 0)
(-0.0030098 0.00395915 0)
(-0.00448511 0.00512209 0)
(-0.00622285 0.00625107 0)
(-0.0082051 0.00731783 0)
(-0.0104125 0.00830542 0)
(-0.0128252 0.0092052 0)
(-0.0154232 0.0100144 0)
(-0.0181869 0.0107341 0)
(-0.0210974 0.0113675 0)
(-0.024136 0.0119188 0)
(-0.0272849 0.0123918 0)
(-0.0305264 0.01279 0)
(-0.033843 0.0131153 0)
(-0.0372172 0.0133684 0)
(-0.0406308 0.0135486 0)
(-0.0440652 0.0136536 0)
(-0.0475011 0.01368 0)
(-0.0509181 0.0136237 0)
(-0.0542947 0.0134796 0)
(-0.0576085 0.0132424 0)
(-0.0608361 0.012907 0)
(-0.0639533 0.0124683 0)
(-0.0669351 0.0119222 0)
(-0.069756 0.0112654 0)
(-0.0723904 0.0104958 0)
(-0.0748127 0.00961267 0)
(-0.0769979 0.00861714 0)
(-0.0789218 0.00751204 0)
(-0.0805613 0.00630214 0)
(-0.0818949 0.00499426 0)
(-0.0829032 0.0035973 0)
(-0.0835692 0.00212223 0)
(-0.0838784 0.000582069 0)
(-0.0838197 -0.00100825 0)
(-0.0833852 -0.00263198 0)
(-0.0825707 -0.00427079 0)
(-0.0813763 -0.00590494 0)
(-0.0798058 -0.00751365 0)
(-0.0778676 -0.00907537 0)
(-0.0755746 -0.0105682 0)
(-0.072944 -0.0119701 0)
(-0.0699973 -0.0132598 0)
(-0.0667608 -0.0144167 0)
(-0.0632645 -0.0154217 0)
(-0.0595424 -0.0162574 0)
(-0.0556321 -0.016909 0)
(-0.051574 -0.0173643 0)
(-0.0474114 -0.0176141 0)
(-0.0431893 -0.0176528 0)
(-0.0389538 -0.0174787 0)
(-0.0347516 -0.0170937 0)
(-0.0306293 -0.016504 0)
(-0.0266317 -0.0157197 0)
(-0.0228022 -0.0147551 0)
(-0.0191807 -0.0136281 0)
(-0.0158038 -0.0123604 0)
(-0.012703 -0.0109769 0)
(-0.00990468 -0.00950567 0)
(-0.00742919 -0.00797733 0)
(-0.00529005 -0.00642507 0)
(-0.00349359 -0.00488417 0)
(-0.00203849 -0.00339196 0)
(-0.000915461 -0.0019876 0)
(-0.000106983 -0.000712175 0)
(0.000412833 0.000391372 0)
(0.000678366 0.00127809 0)
(0.000732491 0.00190102 0)
(0.000626598 0.00221114 0)
(0.000422275 0.00215747 0)
(0.000196504 0.00168656 0)
(2.42809e-05 0.000740009 0)
(-2.47478e-05 0.000302398 0)
(-0.000398208 0.00130268 0)
(-0.00114448 0.0025637 0)
(-0.00225276 0.00396625 0)
(-0.00369286 0.00542304 0)
(-0.00544246 0.00687058 0)
(-0.00747949 0.00826435 0)
(-0.00978084 0.00957507 0)
(-0.0123232 0.0107853 0)
(-0.0150837 0.0118866 0)
(-0.01804 0.0128766 0)
(-0.0211707 0.0137569 0)
(-0.0244553 0.0145314 0)
(-0.0278738 0.0152048 0)
(-0.0314071 0.0157816 0)
(-0.0350362 0.0162652 0)
(-0.0387421 0.0166576 0)
(-0.0425058 0.0169592 0)
(-0.0463077 0.0171686 0)
(-0.0501274 0.0172828 0)
(-0.0539436 0.0172977 0)
(-0.0577342 0.0172078 0)
(-0.0614757 0.0170072 0)
(-0.0651437 0.0166895 0)
(-0.0687129 0.0162487 0)
(-0.0721569 0.015679 0)
(-0.0754488 0.0149756 0)
(-0.0785615 0.0141349 0)
(-0.0814674 0.013155 0)
(-0.0841394 0.0120354 0)
(-0.0865508 0.0107779 0)
(-0.0886761 0.00938648 0)
(-0.0904908 0.00786737 0)
(-0.0919724 0.00622925 0)
(-0.0931004 0.00448329 0)
(-0.0938567 0.00264309 0)
(-0.0942262 0.000724643 0)
(-0.0941968 -0.00125378 0)
(-0.0937603 -0.00327181 0)
(-0.0929118 -0.00530717 0)
(-0.091651 -0.00733602 0)
(-0.0899815 -0.00933323 0)
(-0.0879115 -0.0112728 0)
(-0.0854539 -0.0131282 0)
(-0.0826262 -0.0148729 0)
(-0.0794504 -0.0164812 0)
(-0.0759533 -0.0179279 0)
(-0.072166 -0.01919 0)
(-0.0681238 -0.0202462 0)
(-0.0638661 -0.0210782 0)
(-0.0594352 -0.0216708 0)
(-0.0548769 -0.0220124 0)
(-0.0502389 -0.0220959 0)
(-0.0455707 -0.0219182 0)
(-0.0409223 -0.0214814 0)
(-0.0363441 -0.0207921 0)
(-0.0318851 -0.0198621 0)
(-0.0275927 -0.0187081 0)
(-0.0235112 -0.0173514 0)
(-0.0196814 -0.0158179 0)
(-0.0161392 -0.0141376 0)
(-0.0129148 -0.0123445 0)
(-0.0100323 -0.0104757 0)
(-0.00750871 -0.00857158 0)
(-0.00535324 -0.00667509 0)
(-0.00356715 -0.00483158 0)
(-0.00214321 -0.00308858 0)
(-0.00106549 -0.00149569 0)
(-0.00030917 -0.000104532 0)
(0.000159525 0.00103119 0)
(0.000383318 0.0018556 0)
(0.00041389 0.00231054 0)
(0.000313103 0.00233544 0)
(0.000157267 0.00186646 0)
(2.13762e-05 0.000833371 0)
(-3.20891e-05 0.000520499 0)
(-0.000489016 0.00193424 0)
(-0.00138546 0.0035849 0)
(-0.00269916 0.00535227 0)
(-0.00438607 0.00714822 0)
(-0.0064145 0.00890885 0)
(-0.00875523 0.0105896 0)
(-0.0113795 0.0121617 0)
(-0.0142597 0.0136084 0)
(-0.0173696 0.0149221 0)
(-0.0206845 0.0161016 0)
(-0.024181 0.0171495 0)
(-0.0278369 0.0180708 0)
(-0.0316312 0.0188707 0)
(-0.0355433 0.0195543 0)
(-0.0395531 0.0201251 0)
(-0.0436405 0.020585 0)
(-0.0477851 0.0209341 0)
(-0.0519659 0.0211702 0)
(-0.0561611 0.0212896 0)
(-0.0603478 0.021287 0)
(-0.0645023 0.0211559 0)
(-0.0685993 0.0208892 0)
(-0.072613 0.0204797 0)
(-0.076516 0.0199203 0)
(-0.0802805 0.0192045 0)
(-0.083878 0.0183271 0)
(-0.0872796 0.0172842 0)
(-0.0904564 0.016074 0)
(-0.0933799 0.0146965 0)
(-0.096022 0.0131542 0)
(-0.098356 0.0114525 0)
(-0.100356 0.00959892 0)
(-0.101999 0.00760429 0)
(-0.103263 0.00548205 0)
(-0.104129 0.00324852 0)
(-0.104581 0.000922751 0)
(-0.104606 -0.00147359 0)
(-0.104194 -0.00391644 0)
(-0.103341 -0.00637954 0)
(-0.102044 -0.0088348 0)
(-0.100307 -0.0112527 0)
(-0.0981377 -0.0136025 0)
(-0.0955476 -0.0158532 0)
(-0.0925543 -0.0179734 0)
(-0.0891797 -0.0199325 0)
(-0.0854505 -0.0217009 0)
(-0.0813985 -0.0232509 0)
(-0.0770596 -0.0245572 0)
(-0.0724744 -0.0255976 0)
(-0.0676871 -0.0263534 0)
(-0.0627453 -0.0268104 0)
(-0.0576995 -0.0269592 0)
(-0.0526019 -0.0267954 0)
(-0.0475064 -0.0263204 0)
(-0.0424669 -0.0255413 0)
(-0.0375368 -0.0244712 0)
(-0.0327678 -0.023129 0)
(-0.028209 -0.0215394 0)
(-0.0239057 -0.0197324 0)
(-0.0198984 -0.0177435 0)
(-0.0162219 -0.0156124 0)
(-0.0129046 -0.0133833 0)
(-0.00996744 -0.011104 0)
(-0.0074232 -0.00882554 0)
(-0.00527626 -0.00660178 0)
(-0.00352204 -0.00448907 0)
(-0.00214671 -0.00254604 0)
(-0.00112709 -0.000833479 0)
(-0.000430553 0.000585704 0)
(-1.50486e-05 0.00164635 0)
(0.000170801 0.00228093 0)
(0.00018854 0.00241928 0)
(0.000112838 0.0019877 0)
(1.82405e-05 0.000905736 0)
(-3.93608e-05 0.000784084 0)
(-0.000579763 0.00268577 0)
(-0.00162691 0.00478594 0)
(-0.0031471 0.00696547 0)
(-0.00508231 0.00913756 0)
(-0.00739121 0.0112398 0)
(-0.0100371 0.0132295 0)
(-0.0129854 0.0150797 0)
(-0.0162038 0.0167756 0)
(-0.0196625 0.0183115 0)
(-0.0233343 0.019688 0)
(-0.0271937 0.0209094 0)
(-0.0312171 0.0219817 0)
(-0.035382 0.0229112 0)
(-0.0396668 0.0237035 0)
(-0.0440503 0.0243624 0)
(-0.0485115 0.0248896 0)
(-0.0530288 0.0252846 0)
(-0.05758 0.0255446 0)
(-0.0621421 0.0256648 0)
(-0.066691 0.025639 0)
(-0.0712013 0.0254594 0)
(-0.0756468 0.025118 0)
(-0.0799998 0.0246063 0)
(-0.0842319 0.0239164 0)
(-0.0883136 0.0230412 0)
(-0.0922153 0.0219749 0)
(-0.0959066 0.0207136 0)
(-0.0993576 0.0192555 0)
(-0.102538 0.0176013 0)
(-0.10542 0.0157544 0)
(-0.107974 0.0137211 0)
(-0.110175 0.011511 0)
(-0.111996 0.00913653 0)
(-0.113417 0.00661368 0)
(-0.114416 0.00396143 0)
(-0.114976 0.00120188 0)
(-0.115083 -0.0016399 0)
(-0.114727 -0.00453615 0)
(-0.113901 -0.00745664 0)
(-0.112601 -0.010369 0)
(-0.110831 -0.0132392 0)
(-0.108595 -0.0160319 0)
(-0.105906 -0.0187111 0)
(-0.102779 -0.0212405 0)
(-0.0992359 -0.0235846 0)
(-0.0953026 -0.0257089 0)
(-0.0910109 -0.0275807 0)
(-0.086397 -0.0291701 0)
(-0.0815022 -0.0304506 0)
(-0.0763719 -0.0313998 0)
(-0.0710557 -0.0320001 0)
(-0.0656063 -0.0322393 0)
(-0.0600791 -0.0321113 0)
(-0.0545313 -0.0316164 0)
(-0.0490207 -0.0307617 0)
(-0.0436054 -0.0295612 0)
(-0.0383416 -0.0280359 0)
(-0.0332836 -0.0262135 0)
(-0.0284817 -0.0241285 0)
(-0.0239817 -0.0218213 0)
(-0.0198237 -0.019338 0)
(-0.0160408 -0.01673 0)
(-0.0126584 -0.0140528 0)
(-0.00969375 -0.0113661 0)
(-0.00715486 -0.00873252 0)
(-0.00504038 -0.00621793 0)
(-0.00333917 -0.00389044 0)
(-0.00203017 -0.00182052 0)
(-0.00108236 -8.07501e-05 0)
(-0.000454846 0.00125406 0)
(-9.70139e-05 0.0021067 0)
(5.1965e-05 0.00239757 0)
(6.46486e-05 0.00204354 0)
(1.50077e-05 0.000955049 0)
(-4.65455e-05 0.00109294 0)
(-0.000669856 0.00355705 0)
(-0.00186697 0.00616676 0)
(-0.00359288 0.00880603 0)
(-0.00577558 0.0113913 0)
(-0.00836402 0.0138637 0)
(-0.0113139 0.0161839 0)
(-0.0145846 0.0183284 0)
(-0.0181389 0.0202855 0)
(-0.0219436 0.0220527 0)
(-0.0259685 0.0236328 0)
(-0.0301863 0.0250323 0)
(-0.0345717 0.026259 0)
(-0.0391011 0.0273204 0)
(-0.0437518 0.0282227 0)
(-0.0485017 0.0289698 0)
(-0.0533288 0.0295635 0)
(-0.0582107 0.0300026 0)
(-0.0631243 0.0302836 0)
(-0.0680454 0.0304006 0)
(-0.072949 0.0303463 0)
(-0.0778087 0.0301118 0)
(-0.0825969 0.0296878 0)
(-0.087285 0.0290649 0)
(-0.0918434 0.0282343 0)
(-0.0962415 0.0271881 0)
(-0.100449 0.0259203 0)
(-0.104433 0.0244268 0)
(-0.108165 0.022706 0)
(-0.111612 0.0207591 0)
(-0.114745 0.0185904 0)
(-0.117534 0.0162075 0)
(-0.119953 0.0136215 0)
(-0.121975 0.010847 0)
(-0.123576 0.00790204 0)
(-0.124734 0.00480832 0)
(-0.125432 0.00159092 0)
(-0.125653 -0.00172178 0)
(-0.125385 -0.00509839 0)
(-0.12462 -0.00850473 0)
(-0.123353 -0.0119042 0)
(-0.121585 -0.0152583 0)
(-0.119319 -0.0185268 0)
(-0.116564 -0.0216688 0)
(-0.113337 -0.0246431 0)
(-0.109656 -0.0274086 0)
(-0.105547 -0.0299256 0)
(-0.10104 -0.0321563 0)
(-0.0961727 -0.0340657 0)
(-0.0909853 -0.0356225 0)
(-0.0855246 -0.0367997 0)
(-0.0798415 -0.0375759 0)
(-0.0739911 -0.0379357 0)
(-0.0680316 -0.0378704 0)
(-0.0620237 -0.0373787 0)
(-0.0560295 -0.0364672 0)
(-0.0501116 -0.0351503 0)
(-0.0443316 -0.0334508 0)
(-0.038749 -0.0313992 0)
(-0.0334203 -0.0290341 0)
(-0.0283968 -0.0264013 0)
(-0.0237246 -0.0235532 0)
(-0.0194422 -0.0205484 0)
(-0.0155806 -0.0174508 0)
(-0.0121618 -0.0143289 0)
(-0.00919832 -0.0112549 0)
(-0.00669255 -0.00830455 0)
(-0.00463664 -0.00555606 0)
(-0.00301218 -0.00309011 0)
(-0.0017902 -0.000989487 0)
(-0.000931326 0.000660931 0)
(-0.000386028 0.00177406 0)
(-9.45412e-05 0.00226061 0)
(1.35449e-05 0.00202856 0)
(1.17488e-05 0.000979811 0)
(-5.36211e-05 0.00144658 0)
(-0.00075875 0.00454697 0)
(-0.00210399 0.00772589 0)
(-0.00403318 0.0108722 0)
(-0.00646051 0.0139075 0)
(-0.00932523 0.0167782 0)
(-0.0125755 0.0194502 0)
(-0.0161643 0.0219046 0)
(-0.02005 0.0241346 0)
(-0.0241954 0.0261411 0)
(-0.0285678 0.0279308 0)
(-0.0331376 0.0295126 0)
(-0.0378781 0.0308964 0)
(-0.0427645 0.0320913 0)
(-0.0477732 0.0331041 0)
(-0.0528813 0.0339395 0)
(-0.0580661 0.0345986 0)
(-0.0633044 0.0350801 0)
(-0.0685723 0.0353793 0)
(-0.073845 0.0354897 0)
(-0.0790965 0.0354023 0)
(-0.0842997 0.0351074 0)
(-0.0894261 0.0345944 0)
(-0.0944462 0.0338529 0)
(-0.0993296 0.0328731 0)
(-0.104045 0.0316466 0)
(-0.108561 0.030167 0)
(-0.112845 0.02843 0)
(-0.116865 0.0264343 0)
(-0.12059 0.0241817 0)
(-0.123988 0.0216772 0)
(-0.127031 0.0189297 0)
(-0.129688 0.0159517 0)
(-0.131933 0.0127596 0)
(-0.13374 0.0093738 0)
(-0.135088 0.0058184 0)
(-0.135954 0.00212134 0)
(-0.136323 -0.00168586 0)
(-0.136178 -0.00556828 0)
(-0.135511 -0.00948792 0)
(-0.134314 -0.013404 0)
(-0.132584 -0.0172735 0)
(-0.130324 -0.0210516 0)
(-0.127541 -0.0246921 0)
(-0.124248 -0.0281485 0)
(-0.120461 -0.0313742 0)
(-0.116206 -0.0343241 0)
(-0.111511 -0.0369545 0)
(-0.106411 -0.0392249 0)
(-0.100949 -0.0410985 0)
(-0.0951707 -0.0425434 0)
(-0.0891285 -0.0435334 0)
(-0.0828794 -0.0440491 0)
(-0.0764845 -0.0440786 0)
(-0.0700079 -0.0436184 0)
(-0.0635161 -0.0426738 0)
(-0.0570768 -0.0412591 0)
(-0.050757 -0.0393983 0)
(-0.0446226 -0.0371247 0)
(-0.0387361 -0.0344805 0)
(-0.0331558 -0.0315168 0)
(-0.0279341 -0.0282925 0)
(-0.023116 -0.0248737 0)
(-0.0187388 -0.021333 0)
(-0.01483 -0.0177481 0)
(-0.0114074 -0.0142016 0)
(-0.00847784 -0.0107794 0)
(-0.0060374 -0.00757061 0)
(-0.0040708 -0.00466678 0)
(-0.00255159 -0.00216145 0)
(-0.00144226 -0.000150082 0)
(-0.000694521 0.00127008 0)
(-0.000249915 0.00199972 0)
(-4.00432e-05 0.00193811 0)
(8.50158e-06 0.000978832 0)
(-6.0558e-05 0.00184427 0)
(-0.000845896 0.00565362 0)
(-0.00233636 0.00946048 0)
(-0.00446486 0.0131604 0)
(-0.00713205 0.016682 0)
(-0.0102676 0.0199787 0)
(-0.0138122 0.0230231 0)
(-0.0177128 0.0258028 0)
(-0.0219228 0.0283166 0)
(-0.0264016 0.0305704 0)
(-0.0311135 0.0325749 0)
(-0.0360271 0.0343426 0)
(-0.0411142 0.0358859 0)
(-0.0463487 0.0372155 0)
(-0.0517064 0.0383395 0)
(-0.0571636 0.0392627 0)
(-0.062697 0.0399865 0)
(-0.0682828 0.0405088 0)
(-0.0738968 0.0408242 0)
(-0.0795134 0.0409249 0)
(-0.0851062 0.040801 0)
(-0.0906473 0.0404414 0)
(-0.0961079 0.0398344 0)
(-0.101458 0.0389685 0)
(-0.106666 0.0378332 0)
(-0.1117 0.0364193 0)
(-0.116529 0.0347201 0)
(-0.121119 0.0327312 0)
(-0.125437 0.0304513 0)
(-0.129453 0.0278828 0)
(-0.133133 0.0250315 0)
(-0.136446 0.0219073 0)
(-0.139364 0.0185241 0)
(-0.141857 0.0149001 0)
(-0.143899 0.0110575 0)
(-0.145465 0.00702269 0)
(-0.146533 0.00282636 0)
(-0.147083 -0.00149705 0)
(-0.147099 -0.0059093 0)
(-0.146567 -0.0103687 0)
(-0.145477 -0.0148305 0)
(-0.143826 -0.0192471 0)
(-0.141611 -0.0235689 0)
(-0.138837 -0.0277448 0)
(-0.135513 -0.0317225 0)
(-0.131656 -0.03545 0)
(-0.127285 -0.0388758 0)
(-0.12243 -0.0419504 0)
(-0.117123 -0.044627 0)
(-0.111406 -0.0468628 0)
(-0.105325 -0.04862 0)
(-0.0989327 -0.049867 0)
(-0.0922888 -0.0505796 0)
(-0.0854565 -0.0507418 0)
(-0.0785034 -0.0503469 0)
(-0.0715006 -0.0493982 0)
(-0.0645209 -0.0479093 0)
(-0.0576375 -0.0459048 0)
(-0.0509227 -0.04342 0)
(-0.0444464 -0.0405008 0)
(-0.0382741 -0.0372032 0)
(-0.0324657 -0.0335928 0)
(-0.0270737 -0.0297434 0)
(-0.0221422 -0.0257366 0)
(-0.0177054 -0.02166 0)
(-0.0137872 -0.0176068 0)
(-0.0103997 -0.0136743 0)
(-0.00754351 -0.00996287 0)
(-0.00520703 -0.00657572 0)
(-0.00336679 -0.00361788 0)
(-0.00198749 -0.00119597 0)
(-0.00102227 0.000582042 0)
(-0.000413914 0.0016066 0)
(-9.60916e-05 0.00176777 0)
(5.26182e-06 0.000951037 0)
(-6.73187e-05 0.00228502 0)
(-0.000930724 0.00687431 0)
(-0.00256247 0.0113665 0)
(-0.00488484 0.0156654 0)
(-0.00778529 0.0197087 0)
(-0.0111842 0.0234583 0)
(-0.015015 0.0268954 0)
(-0.0192186 0.0300152 0)
(-0.0237437 0.0328232 0)
(-0.0285462 0.0353317 0)
(-0.0335878 0.0375562 0)
(-0.038835 0.0395131 0)
(-0.0442582 0.0412179 0)
(-0.0498305 0.0426834 0)
(-0.0555266 0.0439189 0)
(-0.0613226 0.04493 0)
(-0.0671946 0.0457178 0)
(-0.0731185 0.0462798 0)
(-0.0790695 0.0466099 0)
(-0.0850219 0.046699 0)
(-0.0909489 0.0465362 0)
(-0.0968223 0.046109 0)
(-0.102613 0.0454047 0)
(-0.10829 0.0444107 0)
(-0.113822 0.0431156 0)
(-0.119178 0.0415097 0)
(-0.124324 0.0395856 0)
(-0.129227 0.0373389 0)
(-0.133854 0.0347685 0)
(-0.138172 0.031877 0)
(-0.14215 0.028671 0)
(-0.145754 0.0251612 0)
(-0.148953 0.0213626 0)
(-0.151719 0.017295 0)
(-0.154023 0.0129822 0)
(-0.155839 0.00845293 0)
(-0.157141 0.00373997 0)
(-0.157908 -0.00111943 0)
(-0.15812 -0.00608397 0)
(-0.157762 -0.0111085 0)
(-0.15682 -0.0161443 0)
(-0.155286 -0.0211395 0)
(-0.153156 -0.0260399 0)
(-0.150431 -0.0307889 0)
(-0.147116 -0.0353289 0)
(-0.143224 -0.0396017 0)
(-0.138773 -0.0435496 0)
(-0.133788 -0.0471164 0)
(-0.128301 -0.0502486 0)
(-0.122352 -0.0528966 0)
(-0.115987 -0.0550159 0)
(-0.109258 -0.0565688 0)
(-0.102227 -0.0575251 0)
(-0.094958 -0.0578638 0)
(-0.0875233 -0.0575741 0)
(-0.0799981 -0.0566562 0)
(-0.0724606 -0.0551221 0)
(-0.0649906 -0.0529963 0)
(-0.0576676 -0.0503156 0)
(-0.0505691 -0.0471289 0)
(-0.0437691 -0.0434973 0)
(-0.0373356 -0.0394927 0)
(-0.0313297 -0.035197 0)
(-0.0258035 -0.0307009 0)
(-0.020799 -0.0261028 0)