/*--------------------------------*- C++ -*----------------------------------*\
  =========                 |
  \\      /  F ield         | OpenFOAM: The Open Source CFD Toolbox
   \\    /   O peration     | Website:  https://openfoam.org
    \\  /    A nd           | Version:  12
     \\/     M anipulation  |
\*---------------------------------------------------------------------------*/
FoamFile
{
    format      ascii;
    class       volScalarField;
    location    "8.5";
    object      nut;
}
// * * * * * * * * * * * * * * * * * * * * * * * * * * * * * * * * * * * * * //

dimensions      [0 2 -1 0 0 0 0];

internalField   nonuniform List<scalar> 
5625
(
4.83217e-15
3.26843e-14
7.27457e-14
1.20362e-13
1.73318e-13
2.3023e-13
2.90168e-13
3.52538e-13
4.17043e-13
4.83659e-13
5.52633e-13
6.24463e-13
6.99887e-13
7.79866e-13
8.65567e-13
9.58346e-13
1.05973e-12
1.17138e-12
1.29513e-12
1.43288e-12
1.58665e-12
1.75854e-12
1.95069e-12
2.1653e-12
2.40455e-12
2.67063e-12
2.96568e-12
3.29177e-12
3.65089e-12
4.0449e-12
4.47554e-12
4.94436e-12
5.45276e-12
6.00194e-12
6.59288e-12
7.22635e-12
7.9029e-12
8.62277e-12
9.38595e-12
1.0192e-11
1.10401e-11
1.19289e-11
1.2856e-11
1.38183e-11
1.48112e-11
1.58286e-11
1.68621e-11
1.79008e-11
1.89305e-11
1.99337e-11
2.08884e-11
2.17685e-11
2.25425e-11
2.31721e-11
2.3598e-11
2.3789e-11
2.3796e-11
2.34896e-11
2.28532e-11
2.18842e-11
2.05925e-11
1.90074e-11
1.71797e-11
1.51801e-11
1.3093e-11
1.10075e-11
9.00704e-12
7.16017e-12
5.51381e-12
4.09105e-12
2.89328e-12
1.90598e-12
1.10828e-12
4.87126e-13
7.17494e-14
1.46089e-13
4.7592e-12
1.19452e-11
2.02678e-11
2.94363e-11
3.92484e-11
4.9557e-11
6.0265e-11
7.13233e-11
8.27294e-11
9.45257e-11
1.06798e-10
1.19673e-10
1.33314e-10
1.47923e-10
1.6373e-10
1.80993e-10
1.99998e-10
2.21052e-10
2.44482e-10
2.70628e-10
2.99843e-10
3.32488e-10
3.68929e-10
4.09531e-10
4.54655e-10
5.04653e-10
5.59863e-10
6.20605e-10
6.87176e-10
7.59846e-10
8.38857e-10
9.24417e-10
1.0167e-09
1.11585e-09
1.22197e-09
1.33512e-09
1.45534e-09
1.5826e-09
1.71684e-09
1.85793e-09
2.00567e-09
2.15973e-09
2.31968e-09
2.48485e-09
2.65435e-09
2.82695e-09
3.00101e-09
3.1744e-09
3.34438e-09
3.50751e-09
3.65958e-09
3.79547e-09
3.90885e-09
3.98918e-09
4.02687e-09
4.03641e-09
3.99152e-09
3.88988e-09
3.73058e-09
3.51474e-09
3.24694e-09
2.93577e-09
2.5935e-09
2.23504e-09
1.87629e-09
1.53215e-09
1.21482e-09
9.32577e-10
6.89329e-10
4.85042e-10
3.16714e-10
1.79783e-10
7.03683e-11
2.16712e-12
3.10377e-13
2.54831e-11
8.19317e-11
1.48625e-10
2.21151e-10
2.98052e-10
3.78345e-10
4.61364e-10
5.46767e-10
6.34554e-10
7.25061e-10
8.18952e-10
9.172e-10
1.02106e-09
1.13207e-09
1.25196e-09
1.38271e-09
1.52645e-09
1.68548e-09
1.86223e-09
2.0592e-09
2.27897e-09
2.52417e-09
2.7974e-09
3.10123e-09
3.43819e-09
3.81066e-09
4.2209e-09
4.67097e-09
5.16273e-09
5.6978e-09
6.27757e-09
6.90317e-09
7.57548e-09
8.29513e-09
9.06255e-09
9.87796e-09
1.07414e-08
1.16528e-08
1.26118e-08
1.36178e-08
1.467e-08
1.5767e-08
1.69067e-08
1.80861e-08
1.93003e-08
2.05426e-08
2.18034e-08
2.30696e-08
2.43239e-08
2.55432e-08
2.66984e-08
2.77538e-08
2.86681e-08
2.9358e-08
2.97175e-08
2.99235e-08
2.97117e-08
2.90669e-08
2.79744e-08
2.64336e-08
2.44726e-08
2.21538e-08
1.95725e-08
1.68481e-08
1.41098e-08
1.148e-08
9.05832e-09
6.91114e-09
5.06805e-09
3.52484e-09
2.25143e-09
1.20437e-09
3.73109e-10
4.5859e-12
5.0788e-13
5.97866e-11
2.45912e-10
4.91278e-10
7.6067e-10
1.0444e-09
1.33835e-09
1.64019e-09
1.94878e-09
2.26416e-09
2.58757e-09
2.9214e-09
3.26911e-09
3.63515e-09
4.02484e-09
4.44431e-09
4.9003e-09
5.40015e-09
5.95161e-09
6.56276e-09
7.24187e-09
7.99727e-09
8.83726e-09
9.76994e-09
1.08031e-08
1.1944e-08
1.31994e-08
1.45754e-08
1.6077e-08
1.77087e-08
1.94738e-08
2.13751e-08
2.34144e-08
2.55929e-08
2.79112e-08
3.03698e-08
3.2969e-08
3.57092e-08
3.85911e-08
4.16156e-08
4.47838e-08
4.80968e-08
5.15556e-08
5.51595e-08
5.89054e-08
6.27859e-08
6.67871e-08
7.08865e-08
7.50507e-08
7.92304e-08
8.33568e-08
8.73372e-08
9.1049e-08
9.44289e-08
9.70588e-08
9.85555e-08
9.96974e-08
9.93999e-08
9.76093e-08
9.42575e-08
8.93191e-08
8.28717e-08
7.51212e-08
6.63968e-08
5.712e-08
4.77532e-08
3.87367e-08
3.04303e-08
2.30725e-08
1.67654e-08
1.14846e-08
7.11109e-09
3.51129e-09
8.66921e-10
7.45034e-12
7.32677e-13
1.00928e-10
4.98576e-10
1.10306e-09
1.79465e-09
2.52639e-09
3.2807e-09
4.04959e-09
4.82965e-09
5.62083e-09
6.42615e-09
7.25148e-09
8.10533e-09
8.99854e-09
9.94401e-09
1.09563e-08
1.20514e-08
1.32464e-08
1.45589e-08
1.60071e-08
1.76093e-08
1.93832e-08
2.13462e-08
2.35146e-08
2.59032e-08
2.85257e-08
3.13935e-08
3.45161e-08
3.79011e-08
4.15535e-08
4.54768e-08
4.96732e-08
5.41438e-08
5.88889e-08
6.39087e-08
6.92045e-08
7.47787e-08
8.06361e-08
8.67834e-08
9.32299e-08
9.99865e-08
1.07066e-07
1.14482e-07
1.22246e-07
1.30365e-07
1.38836e-07
1.47642e-07
1.56742e-07
1.66073e-07
1.75533e-07
1.84969e-07
1.94168e-07
2.02839e-07
2.10967e-07
2.17255e-07
2.20999e-07
2.2405e-07
2.23778e-07
2.20052e-07
2.12751e-07
2.01806e-07
1.8739e-07
1.69967e-07
1.50283e-07
1.29292e-07
1.08043e-07
8.75415e-08
6.86126e-08
5.18077e-08
3.73622e-08
2.52169e-08
1.51135e-08
6.90257e-09
1.44612e-09
1.06385e-11
9.80787e-13
1.45873e-10
8.14688e-10
1.97306e-09
3.38115e-09
4.89808e-09
6.46307e-09
8.04948e-09
9.64628e-09
1.12517e-08
1.28711e-08
1.4516e-08
1.62029e-08
1.79532e-08
1.97919e-08
2.17468e-08
2.3848e-08
2.61269e-08
2.86158e-08
3.13468e-08
3.43513e-08
3.76591e-08
4.12982e-08
4.52935e-08
4.96671e-08
5.44373e-08
5.96188e-08
6.52219e-08
7.12537e-08
7.77174e-08
8.46135e-08
9.19437e-08
9.97144e-08
1.07922e-07
1.16571e-07
1.25667e-07
1.35223e-07
1.45256e-07
1.55788e-07
1.66847e-07
1.78463e-07
1.90671e-07
2.03509e-07
2.1701e-07
2.31196e-07
2.46073e-07
2.61615e-07
2.77751e-07
2.94368e-07
3.11274e-07
3.28181e-07
3.4469e-07
3.60241e-07
3.74715e-07
3.85894e-07
3.92397e-07
3.97502e-07
3.96707e-07
3.89639e-07
3.76245e-07
3.56496e-07
3.30757e-07
2.99874e-07
2.65144e-07
2.28194e-07
1.90802e-07
1.54668e-07
1.21201e-07
9.13545e-08
6.55487e-08
4.37048e-08
2.54646e-08
1.0921e-08
2.05883e-09
1.40564e-11
1.24987e-12
1.93725e-10
1.17223e-09
3.05289e-09
5.49219e-09
8.19286e-09
1.09989e-08
1.38364e-08
1.66729e-08
1.94991e-08
2.23216e-08
2.51591e-08
2.80398e-08
3.09997e-08
3.40809e-08
3.73294e-08
4.07945e-08
4.45265e-08
4.85757e-08
5.29912e-08
5.78197e-08
6.31041e-08
6.88827e-08
7.51884e-08
8.205e-08
8.94902e-08
9.75235e-08
1.0616e-07
1.15406e-07
1.25263e-07
1.35727e-07
1.468e-07
1.58478e-07
1.70774e-07
1.837e-07
1.97276e-07
2.11534e-07
2.26513e-07
2.42262e-07
2.5884e-07
2.76315e-07
2.94756e-07
3.14223e-07
3.3477e-07
3.56434e-07
3.79216e-07
4.03066e-07
4.27867e-07
4.53377e-07
4.79232e-07
5.0491e-07
5.29705e-07
5.52742e-07
5.73314e-07
5.89281e-07
5.97705e-07
6.03358e-07
6.00239e-07
5.87503e-07
5.65502e-07
5.34381e-07
4.94803e-07
4.48068e-07
3.9605e-07
3.4104e-07
2.85508e-07
2.3181e-07
1.81915e-07
1.3717e-07
9.81955e-08
6.49323e-08
3.7047e-08
1.5189e-08
2.68456e-09
1.76363e-11
1.53866e-12
2.44293e-10
1.55822e-09
4.2896e-09
8.04923e-09
1.23444e-08
1.686e-08
2.14291e-08
2.59721e-08
3.04602e-08
3.48971e-08
3.93089e-08
4.37385e-08
4.82412e-08
5.2881e-08
5.77281e-08
6.28554e-08
6.83365e-08
7.4244e-08
8.06468e-08
8.76084e-08
9.51858e-08
1.03428e-07
1.12376e-07
1.2206e-07
1.32504e-07
1.43724e-07
1.5573e-07
1.68525e-07
1.82114e-07
1.96503e-07
2.11693e-07
2.27689e-07
2.44515e-07
2.62199e-07
2.80785e-07
3.00325e-07
3.20889e-07
3.42557e-07
3.65421e-07
3.8958e-07
4.15131e-07
4.4216e-07
4.70732e-07
5.00877e-07
5.32559e-07
5.65654e-07
5.99914e-07
6.34915e-07
6.70043e-07
7.04462e-07
7.37108e-07
7.66718e-07
7.91923e-07
8.10239e-07
8.18966e-07
8.22485e-07
8.14571e-07
7.93619e-07
7.60804e-07
7.16562e-07
6.61892e-07
5.98527e-07
5.28841e-07
4.55668e-07
3.82033e-07
3.10824e-07
2.44463e-07
1.84634e-07
1.32134e-07
8.69622e-08
4.89342e-08
1.948e-08
3.31403e-09
2.13309e-11
1.84661e-12
2.97599e-10
1.96648e-09
5.64252e-09
1.0962e-08
1.72311e-08
2.39167e-08
3.07021e-08
3.7424e-08
4.4014e-08
5.04644e-08
5.68076e-08
6.31038e-08
6.94325e-08
7.58862e-08
8.25647e-08
8.95706e-08
9.70055e-08
1.04967e-07
1.13545e-07
1.22824e-07
1.32875e-07
1.4376e-07
1.5553e-07
1.68221e-07
1.81861e-07
1.96468e-07
2.12055e-07
2.28629e-07
2.46198e-07
2.64773e-07
2.84365e-07
3.04996e-07
3.26702e-07
3.49532e-07
3.73551e-07
3.98838e-07
4.25491e-07
4.53619e-07
4.83342e-07
5.14786e-07
5.48067e-07
5.83279e-07
6.20475e-07
6.59639e-07
7.00651e-07
7.43244e-07
7.86962e-07
8.31115e-07
8.74758e-07
9.16681e-07
9.55427e-07
9.89341e-07
1.01662e-06
1.03469e-06
1.03992e-06
1.03942e-06
1.02443e-06
9.93239e-07
9.4825e-07
8.9022e-07
8.20433e-07
7.40957e-07
6.54528e-07
5.64364e-07
4.73887e-07
3.86379e-07
3.04617e-07
2.30553e-07
1.65143e-07
1.08462e-07
6.0544e-08
2.36774e-08
3.94217e-09
2.5109e-11
2.17366e-12
3.53746e-10
2.39479e-09
7.08582e-09
1.41532e-08
2.27212e-08
3.19927e-08
4.14455e-08
5.07884e-08
5.98876e-08
6.87117e-08
7.72963e-08
8.57217e-08
9.40971e-08
1.02549e-07
1.11214e-07
1.20231e-07
1.29734e-07
1.39853e-07
1.50704e-07
1.62394e-07
1.75014e-07
1.8864e-07
2.03333e-07
2.19139e-07
2.36094e-07
2.54221e-07
2.73539e-07
2.94061e-07
3.15801e-07
3.3878e-07
3.63021e-07
3.88558e-07
4.15442e-07
4.43742e-07
4.7354e-07
5.04939e-07
5.38059e-07
5.73032e-07
6.10002e-07
6.49108e-07
6.9047e-07
7.34165e-07
7.80198e-07
8.28459e-07
8.78677e-07
9.30368e-07
9.82794e-07
1.03493e-06
1.08545e-06
1.13277e-06
1.1751e-06
1.21049e-06
1.23692e-06
1.25214e-06
1.25093e-06
1.24345e-06
1.22097e-06
1.17835e-06
1.12073e-06
1.04916e-06
9.65081e-07
8.70773e-07
7.69187e-07
6.63771e-07
5.58205e-07
4.56053e-07
3.60368e-07
2.73339e-07
1.96072e-07
1.28736e-07
7.15872e-08
2.77305e-08
4.56574e-09
2.89571e-11
2.5201e-12
4.1287e-10
2.84298e-09
8.60574e-09
1.75678e-08
2.87e-08
4.09118e-08
5.34258e-08
6.57779e-08
7.77399e-08
8.92426e-08
1.00321e-07
1.11077e-07
1.21657e-07
1.32228e-07
1.42972e-07
1.54069e-07
1.65697e-07
1.78019e-07
1.91185e-07
2.05329e-07
2.20563e-07
2.36982e-07
2.54663e-07
2.73664e-07
2.94029e-07
3.15791e-07
3.38975e-07
3.63603e-07
3.89696e-07
4.17281e-07
4.46392e-07
4.77072e-07
5.09385e-07
5.4341e-07
5.79244e-07
6.17007e-07
6.56835e-07
6.98878e-07
7.4329e-07
7.90215e-07
8.39754e-07
8.91938e-07
9.46676e-07
1.00371e-06
1.06254e-06
1.12241e-06
1.18224e-06
1.24063e-06
1.29591e-06
1.34618e-06
1.38941e-06
1.42354e-06
1.44655e-06
1.45652e-06
1.44756e-06
1.43032e-06
1.40016e-06
1.34646e-06
1.27637e-06
1.19202e-06
1.09486e-06
9.87264e-07
8.72262e-07
7.53409e-07
6.34531e-07
5.19388e-07
4.11262e-07
3.12563e-07
2.24565e-07
1.4755e-07
8.19703e-08
3.16267e-08
5.18459e-09
3.28612e-11
2.88652e-12
4.75137e-10
3.31191e-09
1.0197e-08
2.11727e-08
3.50823e-08
5.05257e-08
6.64292e-08
8.21145e-08
9.72306e-08
1.11656e-07
1.25422e-07
1.38655e-07
1.51544e-07
1.64306e-07
1.77175e-07
1.90383e-07
2.04154e-07
2.18695e-07
2.34194e-07
2.50814e-07
2.68696e-07
2.87955e-07
3.08686e-07
3.30961e-07
3.54836e-07
3.80351e-07
4.07541e-07
4.36431e-07
4.6705e-07
4.99426e-07
5.33597e-07
5.69612e-07
6.07538e-07
6.47459e-07
6.89484e-07
7.3374e-07
7.80377e-07
8.29556e-07
8.81437e-07
9.36148e-07
9.93751e-07
1.05419e-06
1.11724e-06
1.18241e-06
1.24896e-06
1.31576e-06
1.3814e-06
1.44412e-06
1.50198e-06
1.55287e-06
1.59468e-06
1.62538e-06
1.6431e-06
1.64617e-06
1.62862e-06
1.6015e-06
1.56107e-06
1.49877e-06
1.41665e-06
1.32039e-06
1.21137e-06
1.0919e-06
9.65041e-07
8.34347e-07
7.03702e-07
5.76996e-07
4.57705e-07
3.48461e-07
2.50734e-07
1.64942e-07
9.17148e-08
3.53737e-08
5.79959e-09
3.68185e-11
3.27372e-12
5.40735e-10
3.80299e-09
1.18595e-08
2.49517e-08
4.1813e-08
6.07251e-08
8.02846e-08
9.95637e-08
1.18064e-07
1.35599e-07
1.52193e-07
1.68003e-07
1.83264e-07
1.98255e-07
2.13268e-07
2.28596e-07
2.44516e-07
2.61285e-07
2.79131e-07
2.98253e-07
3.18821e-07
3.40976e-07
3.6483e-07
3.9047e-07
4.17963e-07
4.47359e-07
4.78694e-07
5.11997e-07
5.47294e-07
5.84613e-07
6.23989e-07
6.65466e-07
7.09109e-07
7.55005e-07
8.03264e-07
8.54025e-07
9.07448e-07
9.63702e-07
1.02294e-06
1.08527e-06
1.15068e-06
1.21899e-06
1.28978e-06
1.36231e-06
1.4355e-06
1.50791e-06
1.57776e-06
1.64305e-06
1.70161e-06
1.7513e-06
1.79002e-06
1.81588e-06
1.82723e-06
1.82248e-06
1.79607e-06
1.75964e-06
1.70786e-06
1.63751e-06
1.54493e-06
1.43746e-06
1.31748e-06
1.18721e-06
1.04967e-06
9.08346e-07
7.67122e-07
6.2996e-07
5.00497e-07
3.81586e-07
2.74923e-07
1.81098e-07
1.00899e-07
3.899e-08
6.41233e-09
4.08334e-11
3.68269e-12
6.09873e-10
4.31797e-09
1.35967e-08
2.89014e-08
4.88628e-08
7.14398e-08
9.48701e-08
1.17949e-07
1.40009e-07
1.6079e-07
1.8031e-07
1.98759e-07
2.16429e-07
2.33664e-07
2.50828e-07
2.68278e-07
2.86353e-07
3.05361e-07
3.25576e-07
3.47237e-07
3.70545e-07
3.95664e-07
4.22726e-07
4.51833e-07
4.83059e-07
5.16459e-07
5.52068e-07
5.89912e-07
6.30009e-07
6.72376e-07
7.17038e-07
7.6403e-07
8.1341e-07
8.65263e-07
9.19704e-07
9.76883e-07
1.03697e-06
1.10015e-06
1.16657e-06
1.23627e-06
1.30916e-06
1.38489e-06
1.46281e-06
1.54189e-06
1.62071e-06
1.69751e-06
1.77025e-06
1.83673e-06
1.89471e-06
1.94206e-06
1.9768e-06
1.9972e-06
2.00183e-06
1.98896e-06
1.95397e-06
1.90893e-06
1.84625e-06
1.76562e-06
1.66557e-06
1.54713e-06
1.41663e-06
1.27614e-06
1.12859e-06
9.77387e-07
8.2636e-07
6.79495e-07
5.40551e-07
4.12592e-07
2.97565e-07
1.96265e-07
1.09623e-07
4.24992e-08
7.02486e-09
4.4915e-11
4.11459e-12
6.82778e-10
4.85879e-09
1.54139e-08
3.3026e-08
5.62234e-08
8.2633e-08
1.1011e-07
1.3715e-07
1.62902e-07
1.87027e-07
2.09536e-07
2.3066e-07
2.50754e-07
2.7024e-07
2.89556e-07
3.09132e-07
3.2937e-07
3.50638e-07
3.73258e-07
3.97507e-07
4.23619e-07
4.51782e-07
4.82145e-07
5.14821e-07
5.4989e-07
5.87404e-07
6.27393e-07
6.69872e-07
7.14842e-07
7.62305e-07
8.12267e-07
8.64751e-07
9.19805e-07
9.77515e-07
1.03801e-06
1.10145e-06
1.16804e-06
1.23796e-06
1.31134e-06
1.38817e-06
1.46823e-06
1.55098e-06
1.63549e-06
1.72042e-06
1.80405e-06
1.88436e-06
1.95912e-06
2.026e-06
2.08278e-06
2.1274e-06
2.158e-06
2.17302e-06
2.17115e-06
2.15034e-06
2.10726e-06
2.05403e-06
1.98128e-06
1.88936e-06
1.78202e-06
1.65356e-06
1.51242e-06
1.36168e-06
1.20426e-06
1.04343e-06
8.82948e-07
7.2678e-07
5.78755e-07
4.42125e-07
3.19096e-07
2.10696e-07
1.17995e-07
4.59264e-08
7.63945e-09
4.90752e-11
4.57071e-12
7.59696e-10
5.42752e-09
1.73179e-08
3.73356e-08
6.39006e-08
9.42941e-08
1.25967e-07
1.57097e-07
1.8664e-07
2.14175e-07
2.39712e-07
2.63528e-07
2.86052e-07
3.07787e-07
3.29255e-07
3.50963e-07
3.73384e-07
3.96942e-07
4.2201e-07
4.48906e-07
4.77892e-07
5.09181e-07
5.42937e-07
5.79277e-07
6.18283e-07
6.59998e-07
7.0444e-07
7.51603e-07
8.01468e-07
8.54011e-07
9.09218e-07
9.67097e-07
1.02769e-06
1.0911e-06
1.15747e-06
1.227e-06
1.29991e-06
1.3764e-06
1.45658e-06
1.54037e-06
1.62738e-06
1.71685e-06
1.80757e-06
1.89792e-06
1.98588e-06
2.06926e-06
2.14572e-06
2.21288e-06
2.26854e-06
2.31071e-06
2.33764e-06
2.34786e-06
2.34019e-06
2.31199e-06
2.2615e-06
2.20074e-06
2.11819e-06
2.01487e-06
1.89741e-06
1.76087e-06
1.60836e-06
1.44676e-06
1.27901e-06
1.10831e-06
9.38294e-07
7.72878e-07
6.15908e-07
4.7077e-07
3.39914e-07
2.24628e-07
1.26118e-07
4.92958e-08
8.25841e-09
5.33274e-11
5.05247e-12
8.40892e-10
6.02637e-09
1.9316e-08
4.1844e-08
7.19104e-08
1.06431e-07
1.42433e-07
1.77759e-07
2.11168e-07
2.42158e-07
2.70743e-07
2.97255e-07
3.22205e-07
3.46185e-07
3.69807e-07
3.93659e-07
4.18285e-07
4.4417e-07
4.71736e-07
5.0134e-07
5.33273e-07
5.67767e-07
6.04995e-07
6.45079e-07
6.88091e-07
7.34062e-07
7.82987e-07
8.34834e-07
8.89556e-07
9.47103e-07
1.00744e-06
1.07056e-06
1.13652e-06
1.20544e-06
1.2775e-06
1.35294e-06
1.43204e-06
1.51501e-06
1.60193e-06
1.6926e-06
1.78649e-06
1.88259e-06
1.97934e-06
2.07484e-06
2.16716e-06
2.25383e-06
2.33229e-06
2.40021e-06
2.45543e-06
2.49599e-06
2.52017e-06
2.52653e-06
2.51388e-06
2.47885e-06
2.42144e-06
2.35361e-06
2.2611e-06
2.1472e-06
2.01705e-06
1.87195e-06
1.70776e-06
1.53409e-06
1.35506e-06
1.17374e-06
9.93675e-07
8.18731e-07
6.52698e-07
4.99023e-07
3.60363e-07
2.38266e-07
1.34087e-07
5.26299e-08
8.88386e-09
5.7685e-11
5.5614e-12
9.26646e-10
6.65762e-09
2.14161e-08
4.65674e-08
8.02753e-08
1.19066e-07
1.5952e-07
1.99136e-07
2.36468e-07
2.70941e-07
3.02581e-07
3.31784e-07
3.59151e-07
3.85372e-07
4.1115e-07
4.37159e-07
4.64015e-07
4.92266e-07
5.22381e-07
5.54752e-07
5.89698e-07
6.27464e-07
6.68229e-07
7.12111e-07
7.59168e-07
8.0941e-07
8.62803e-07
9.19285e-07
9.78774e-07
1.04119e-06
1.10649e-06
1.17467e-06
1.2458e-06
1.32003e-06
1.39762e-06
1.47888e-06
1.56412e-06
1.65358e-06
1.74729e-06
1.84496e-06
1.94583e-06
2.04827e-06
2.15127e-06
2.25263e-06
2.34977e-06
2.4402e-06
2.52157e-06
2.59126e-06
2.6472e-06
2.68738e-06
2.71002e-06
2.71362e-06
2.69693e-06
2.65552e-06
2.59142e-06
2.51672e-06
2.41403e-06
2.28952e-06
2.14603e-06
1.98899e-06
1.8138e-06
1.62626e-06
1.43443e-06
1.24128e-06
1.05025e-06
8.65168e-07
6.89711e-07
5.27301e-07
3.80729e-07
2.51784e-07
1.41979e-07
5.59482e-08
9.51765e-09
6.21608e-11
6.09913e-12
1.01725e-09
7.32368e-09
2.36267e-08
5.15235e-08
8.9022e-08
1.32228e-07
1.77256e-07
2.21245e-07
2.62547e-07
3.0052e-07
3.35212e-07
3.67095e-07
3.96866e-07
4.25319e-07
4.53255e-07
4.81434e-07
5.10548e-07
5.41202e-07
5.73911e-07
6.09101e-07
6.47113e-07
6.88201e-07
7.32546e-07
7.80251e-07
8.31357e-07
8.85845e-07
9.43647e-07
1.00466e-06
1.06878e-06
1.13591e-06
1.20597e-06
1.279e-06
1.3551e-06
1.43449e-06
1.51752e-06
1.60456e-06
1.69601e-06
1.79211e-06
1.89286e-06
1.99775e-06
2.10538e-06
2.21543e-06
2.32537e-06
2.43297e-06
2.53571e-06
2.6311e-06
2.71653e-06
2.78941e-06
2.84753e-06
2.88878e-06
2.91125e-06
2.91327e-06
2.89346e-06
2.84628e-06
2.77573e-06
2.6942e-06
2.58097e-06
2.44494e-06
2.28816e-06
2.11584e-06
1.92861e-06
1.72565e-06
1.51907e-06
1.31244e-06
1.10912e-06
9.12946e-07
7.27458e-07
5.5595e-07
4.01243e-07
2.65322e-07
1.49858e-07
5.92677e-08
1.01612e-08
6.67657e-11
6.66739e-12
1.11302e-09
8.02701e-09
2.59565e-08
5.6731e-08
9.81799e-08
1.45955e-07
1.95678e-07
2.44118e-07
2.89431e-07
3.30912e-07
3.68646e-07
4.0319e-07
4.35348e-07
4.66022e-07
4.96115e-07
5.26477e-07
5.57869e-07
5.90957e-07
6.26298e-07
6.64347e-07
7.05462e-07
7.49902e-07
7.9784e-07
8.49363e-07
9.04485e-07
9.63152e-07
1.02526e-06
1.09067e-06
1.15925e-06
1.23088e-06
1.30551e-06
1.38319e-06
1.4641e-06
1.54856e-06
1.63701e-06
1.72994e-06
1.82781e-06
1.93086e-06
2.03896e-06
2.15105e-06
2.2672e-06
2.38511e-06
2.5027e-06
2.6176e-06
2.7273e-06
2.82921e-06
2.92011e-06
2.99781e-06
3.05977e-06
3.10364e-06
3.12729e-06
3.12884e-06
3.10672e-06
3.05431e-06
2.97764e-06
2.8888e-06
2.76475e-06
2.61641e-06
2.44556e-06
2.25616e-06
2.05382e-06
1.83452e-06
1.6108e-06
1.38867e-06
1.17135e-06
9.62787e-07
7.66403e-07
5.85263e-07
4.22095e-07
2.78991e-07
1.57774e-07
6.26036e-08
1.08157e-08
7.15088e-11
7.268e-12
1.21426e-09
8.77019e-09
2.84143e-08
6.22092e-08
1.0778e-07
1.60286e-07
2.14827e-07
2.67796e-07
3.17152e-07
3.62144e-07
4.02904e-07
4.40085e-07
4.74607e-07
5.07487e-07
5.39733e-07
5.72283e-07
6.0597e-07
6.41513e-07
6.79511e-07
7.20444e-07
7.64679e-07
8.12475e-07
8.63992e-07
9.19295e-07
9.78364e-07
1.04111e-06
1.10739e-06
1.17703e-06
1.24987e-06
1.32579e-06
1.40478e-06
1.48695e-06
1.57258e-06
1.6621e-06
1.75608e-06
1.85513e-06
1.95977e-06
2.07026e-06
2.18574e-06
2.30688e-06
2.43174e-06
2.55848e-06
2.68488e-06
2.8086e-06
2.92707e-06
3.03665e-06
3.13489e-06
3.21919e-06
3.28666e-06
3.33466e-06
3.36076e-06
3.36281e-06
3.339e-06
3.28184e-06
3.19932e-06
3.10241e-06
2.96731e-06
2.80581e-06
2.6198e-06
2.41259e-06
2.1915e-06
1.95467e-06
1.71133e-06
1.47138e-06
1.23799e-06
1.01541e-06
8.06991e-07
6.15506e-07
4.43442e-07
2.92882e-07
1.65759e-07
6.59717e-08
1.14816e-08
7.63964e-11
7.90291e-12
1.32131e-09
9.55586e-09
3.10095e-08
6.79784e-08
1.17855e-07
1.75262e-07
2.34749e-07
2.92322e-07
3.4575e-07
3.9425e-07
4.38013e-07
4.77801e-07
5.14659e-07
5.49726e-07
5.84113e-07
6.18849e-07
6.54836e-07
6.92846e-07
7.33512e-07
7.77334e-07
8.24684e-07
8.75815e-07
9.30868e-07
9.8988e-07
1.0528e-06
1.11948e-06
1.18976e-06
1.26344e-06
1.34034e-06
1.42037e-06
1.50355e-06
1.59011e-06
1.68042e-06
1.77509e-06
1.87482e-06
1.98035e-06
2.09227e-06
2.21016e-06
2.33506e-06
2.46552e-06
2.60012e-06
2.73689e-06
2.87369e-06
3.00814e-06
3.13624e-06
3.25548e-06
3.363e-06
3.45564e-06
3.5302e-06
3.58369e-06
3.61335e-06
3.61671e-06
3.59176e-06
3.53017e-06
3.44152e-06
3.33621e-06
3.18969e-06
3.01425e-06
2.81196e-06
2.58619e-06
2.34443e-06
2.08732e-06
1.82221e-06
1.56193e-06
1.31012e-06
1.07156e-06
8.49679e-07
6.46931e-07
4.65422e-07
3.07066e-07
1.73831e-07
6.9392e-08
1.21592e-08
8.14328e-11
8.57433e-12
1.43448e-09
1.03867e-08
3.37514e-08
7.40594e-08
1.28438e-07
1.90925e-07
2.5549e-07
3.17741e-07
3.75267e-07
4.27265e-07
4.74001e-07
5.1636e-07
5.55521e-07
5.92745e-07
6.29255e-07
6.66166e-07
7.04449e-07
7.44923e-07
7.8825e-07
8.34946e-07
8.85383e-07
9.39803e-07
9.98322e-07
1.06094e-06
1.12757e-06
1.19805e-06
1.27215e-06
1.34966e-06
1.43043e-06
1.51439e-06
1.60165e-06
1.69255e-06
1.78763e-06
1.88765e-06
1.99348e-06
2.10597e-06
2.22531e-06
2.35254e-06
2.48709e-06
2.62791e-06
2.77344e-06
2.92181e-06
3.07099e-06
3.21671e-06
3.35655e-06
3.48744e-06
3.60594e-06
3.70851e-06
3.79156e-06
3.85171e-06
3.88582e-06
3.89115e-06
3.86546e-06
3.79964e-06
3.70432e-06
3.59042e-06
3.43214e-06
3.24211e-06
3.02272e-06
2.77752e-06
2.51399e-06
2.23371e-06
1.9448e-06
1.66159e-06
1.38879e-06
1.13201e-06
8.9495e-07
6.79803e-07
4.88168e-07
3.21612e-07
1.8202e-07
7.28697e-08
1.28483e-08
8.66196e-11
9.28438e-12
1.55414e-09
1.12657e-08
3.66501e-08
8.04733e-08
1.39561e-07
2.07317e-07
2.77094e-07
3.44097e-07
4.05742e-07
4.61221e-07
5.10895e-07
5.55782e-07
5.97202e-07
6.36548e-07
6.75152e-07
7.14217e-07
7.54778e-07
7.97697e-07
8.43662e-07
8.93198e-07
9.46673e-07
1.00431e-06
1.0662e-06
1.13231e-06
1.2025e-06
1.27659e-06
1.35432e-06
1.43548e-06
1.51994e-06
1.6077e-06
1.69899e-06
1.79427e-06
1.89428e-06
1.99996e-06
2.11234e-06
2.23227e-06
2.36042e-06
2.49741e-06
2.64261e-06
2.79494e-06
2.95284e-06
3.11488e-06
3.27663e-06
3.4358e-06
3.58928e-06
3.73346e-06
3.8645e-06
3.97837e-06
4.07108e-06
4.1388e-06
4.17804e-06
4.1858e-06
4.15965e-06
4.08978e-06
3.98715e-06
3.86447e-06
3.69418e-06
3.48907e-06
3.25198e-06
2.98671e-06
2.70076e-06
2.39483e-06
2.0802e-06
1.7715e-06
1.47503e-06
1.19755e-06
9.43322e-07
7.14402e-07
5.11815e-07
3.36582e-07
1.90363e-07
7.64049e-08
1.35486e-08
9.19563e-11
1.00352e-11
1.68069e-09
1.21959e-08
3.97157e-08
8.72416e-08
1.51258e-07
2.24478e-07
2.99605e-07
3.71432e-07
4.37211e-07
4.96149e-07
5.48715e-07
5.96078e-07
6.39707e-07
6.81129e-07
7.2179e-07
7.62976e-07
8.05784e-07
8.51114e-07
8.99675e-07
9.51996e-07
1.00844e-06
1.0692e-06
1.13433e-06
1.20379e-06
1.27739e-06
1.3549e-06
1.43608e-06
1.52072e-06
1.60873e-06
1.70022e-06
1.79554e-06
1.89535e-06
2.00056e-06
2.11232e-06
2.23189e-06
2.35982e-06
2.49775e-06
2.6454e-06
2.80233e-06
2.96737e-06
3.13991e-06
3.31548e-06
3.49192e-06
3.6663e-06
3.83496e-06
3.99389e-06
4.13875e-06
4.26504e-06
4.36827e-06
4.44423e-06
4.48906e-06
4.49954e-06
4.4731e-06
4.39946e-06
4.28886e-06
4.15711e-06
3.9747e-06
3.75417e-06
3.4989e-06
3.21334e-06
2.90467e-06
2.57131e-06
2.22917e-06
1.89261e-06
1.5698e-06
1.26898e-06
9.95344e-07
7.51036e-07
5.36507e-07
3.5204e-07
1.98882e-07
8.00008e-08
1.42597e-08
9.74404e-11
1.0829e-11
1.81455e-09
1.31803e-08
4.29588e-08
9.43861e-08
1.63562e-07
2.42451e-07
3.23067e-07
3.99784e-07
4.69706e-07
5.32071e-07
5.87478e-07
6.37254e-07
6.83032e-07
7.26476e-07
7.69144e-07
8.12406e-07
8.57414e-07
9.05106e-07
9.56205e-07
1.01124e-06
1.07055e-06
1.13432e-06
1.20258e-06
1.27522e-06
1.35205e-06
1.43282e-06
1.51727e-06
1.60525e-06
1.69673e-06
1.79194e-06
1.89139e-06
1.99592e-06
2.10669e-06
2.22502e-06
2.35206e-06
2.48947e-06
2.63778e-06
2.79708e-06
2.96683e-06
3.14694e-06
3.33362e-06
3.52462e-06
3.71737e-06
3.90836e-06
4.09354e-06
4.26839e-06
4.42808e-06
4.56759e-06
4.68197e-06
4.76656e-06
4.81725e-06
4.83057e-06
4.80392e-06
4.72697e-06
4.60795e-06
4.46653e-06
4.27209e-06
4.03596e-06
3.76206e-06
3.45647e-06
3.12496e-06
2.76333e-06
2.3921e-06
2.02558e-06
1.6739e-06
1.34707e-06
1.05159e-06
7.90043e-07
5.624e-07
3.68048e-07
2.07602e-07
8.36617e-08
1.49807e-08
1.03068e-10
1.16683e-11
1.95614e-09
1.42223e-08
4.63901e-08
1.01929e-07
1.76507e-07
2.61274e-07
3.47518e-07
4.29189e-07
5.03254e-07
5.69006e-07
6.27189e-07
6.79309e-07
7.27164e-07
7.72566e-07
8.1718e-07
8.6246e-07
9.09611e-07
9.59599e-07
1.01316e-06
1.07082e-06
1.1329e-06
1.19955e-06
1.27078e-06
1.34645e-06
1.42634e-06
1.5102e-06
1.59779e-06
1.68901e-06
1.78392e-06
1.8829e-06
1.98664e-06
2.09622e-06
2.21298e-06
2.33855e-06
2.47407e-06
2.62137e-06
2.78097e-06
2.95292e-06
3.13759e-06
3.33231e-06
3.53466e-06
3.74262e-06
3.95293e-06
4.16168e-06
4.3644e-06
4.55605e-06
4.73126e-06
4.88449e-06
5.01035e-06
5.10379e-06
5.1604e-06
5.17656e-06
5.1496e-06
5.06998e-06
4.94276e-06
4.79045e-06
4.58436e-06
4.3327e-06
4.0401e-06
3.71421e-06
3.36025e-06
2.97054e-06
2.569e-06
2.17079e-06
1.78797e-06
1.43249e-06
1.11262e-06
8.31782e-07
5.8967e-07
3.84674e-07
2.16543e-07
8.73921e-08
1.57111e-08
1.08832e-10
1.25557e-11
2.10592e-09
1.53254e-08
5.00212e-08
1.09894e-07
1.90125e-07
2.80984e-07
3.72994e-07
4.59675e-07
5.37876e-07
6.06963e-07
6.67849e-07
7.22231e-07
7.72084e-07
8.19366e-07
8.65856e-07
9.13084e-07
9.62307e-07
1.01451e-06
1.07045e-06
1.13062e-06
1.19535e-06
1.26475e-06
1.3388e-06
1.41734e-06
1.50015e-06
1.58695e-06
1.67757e-06
1.77197e-06
1.87034e-06
1.97321e-06
2.0815e-06
2.19647e-06
2.31971e-06
2.45287e-06
2.59789e-06
2.75591e-06
2.92769e-06
3.11403e-06
3.3135e-06
3.52375e-06
3.74327e-06
3.96923e-06
4.19805e-06
4.42544e-06
4.6464e-06
4.85539e-06
5.04649e-06
5.21368e-06
5.35112e-06
5.45343e-06
5.51593e-06
5.53484e-06
5.5074e-06
5.42579e-06
5.29097e-06
5.12645e-06
4.90917e-06
4.6423e-06
4.33136e-06
3.98438e-06
3.60866e-06
3.19208e-06
2.75943e-06
2.3283e-06
1.91238e-06
1.52581e-06
1.17898e-06
8.76626e-07
6.18504e-07
4.0199e-07
2.25729e-07
9.11966e-08
1.645e-08
1.14727e-10
1.34937e-11
2.26435e-09
1.64931e-08
5.38635e-08
1.18303e-07
2.04451e-07
3.0162e-07
3.99529e-07
4.91268e-07
5.73585e-07
6.45945e-07
7.09449e-07
7.66e-07
8.1776e-07
8.66837e-07
9.15122e-07
9.64218e-07
1.01543e-06
1.06976e-06
1.12797e-06
1.19055e-06
1.2578e-06
1.32981e-06
1.40653e-06
1.4878e-06
1.57337e-06
1.66302e-06
1.7566e-06
1.85417e-06
1.95609e-06
2.06304e-06
2.17617e-06
2.29698e-06
2.42725e-06
2.5689e-06
2.72387e-06
2.89339e-06
3.0788e-06
3.27976e-06
3.49433e-06
3.72154e-06
3.95907e-06
4.20381e-06
4.45182e-06
4.69836e-06
4.93793e-06
5.16447e-06
5.37154e-06
5.55267e-06
5.70161e-06
5.81268e-06
5.88095e-06
5.90251e-06
5.87449e-06
5.79148e-06
5.64948e-06
5.47213e-06
5.24396e-06
4.96235e-06
4.63372e-06
4.26489e-06
3.86789e-06
3.42655e-06
2.96257e-06
2.49778e-06
2.04726e-06
1.62744e-06
1.25114e-06
9.24946e-07
6.49105e-07
4.20077e-07
2.35182e-07
9.50795e-08
1.71968e-08
1.20744e-10
1.44853e-11
2.43192e-09
1.77293e-08
5.79294e-08
1.27181e-07
2.19515e-07
3.23214e-07
4.27153e-07
5.23988e-07
6.10389e-07
6.85946e-07
7.51972e-07
8.10589e-07
8.64155e-07
9.14932e-07
9.64921e-07
1.0158e-06
1.0689e-06
1.12527e-06
1.18564e-06
1.25051e-06
1.32014e-06
1.39463e-06
1.47389e-06
1.55774e-06
1.64597e-06
1.73838e-06
1.8349e-06
1.93571e-06
2.04131e-06
2.1526e-06
2.27094e-06
2.39804e-06
2.53591e-06
2.68666e-06
2.85227e-06
3.03455e-06
3.23401e-06
3.44941e-06
3.68041e-06
3.92525e-06
4.18137e-06
4.44537e-06
4.7129e-06
4.97877e-06
5.23699e-06
5.48098e-06
5.70383e-06
5.89865e-06
6.05885e-06
6.17847e-06
6.2524e-06
6.27657e-06
6.24797e-06
6.16374e-06
6.01527e-06
5.82489e-06
5.58598e-06
5.29014e-06
4.94451e-06
4.554e-06
4.13546e-06
3.67199e-06
3.17719e-06
2.67856e-06
2.19245e-06
1.73756e-06
1.32948e-06
9.77092e-07
6.81683e-07
4.39018e-07
2.44927e-07
9.9044e-08
1.79505e-08
1.26871e-10
1.55334e-11
2.60915e-09
1.90378e-08
6.22314e-08
1.3655e-07
2.35352e-07
3.45801e-07
4.5589e-07
5.57848e-07
6.48287e-07
7.26953e-07
7.9539e-07
8.55961e-07
9.11224e-07
9.63599e-07
1.01519e-06
1.06775e-06
1.12266e-06
1.18095e-06
1.24337e-06
1.3104e-06
1.3823e-06
1.45912e-06
1.54079e-06
1.62713e-06
1.71794e-06
1.81307e-06
1.91256e-06
2.01671e-06
2.12619e-06
2.24212e-06
2.36607e-06
2.49998e-06
2.64597e-06
2.80642e-06
2.98384e-06
3.17924e-06
3.39233e-06
3.62338e-06
3.87131e-06
4.13418e-06
4.4092e-06
4.6926e-06
4.97966e-06
5.2647e-06
5.54127e-06
5.80231e-06
6.04051e-06
6.2486e-06
6.4197e-06
6.54762e-06
6.62708e-06
6.65391e-06
6.62512e-06
6.53885e-06
6.38525e-06
6.18207e-06
5.93243e-06
5.62291e-06
5.26069e-06
4.85014e-06
4.4088e-06
3.92592e-06
3.4017e-06
2.86962e-06
2.34748e-06
1.85617e-06
1.41424e-06
1.03337e-06
7.16447e-07
4.58904e-07
2.5499e-07
1.03093e-07
1.87103e-08
1.33096e-10
1.6641e-11
2.79657e-09
2.04228e-08
6.67827e-08
1.46436e-07
2.51991e-07
3.6941e-07
4.85762e-07
5.92855e-07
6.87272e-07
7.68943e-07
8.39672e-07
9.02072e-07
9.58916e-07
1.01278e-06
1.06588e-06
1.12002e-06
1.17662e-06
1.23673e-06
1.3011e-06
1.37017e-06
1.44421e-06
1.52326e-06
1.60723e-06
1.69597e-06
1.78931e-06
1.88718e-06
1.98971e-06
2.09735e-06
2.21097e-06
2.33187e-06
2.46187e-06
2.60311e-06
2.75797e-06
2.929e-06
3.1183e-06
3.32645e-06
3.55422e-06
3.80127e-06
4.06638e-06
4.34741e-06
4.6413e-06
4.94393e-06
5.25016e-06
5.55389e-06
5.84821e-06
6.12567e-06
6.37857e-06
6.59936e-06
6.78091e-06
6.91683e-06
7.0017e-06
7.03125e-06
7.00249e-06
6.91382e-06
6.75636e-06
6.54103e-06
6.28052e-06
5.95798e-06
5.58006e-06
5.1509e-06
4.68551e-06
4.18532e-06
3.63424e-06
3.06963e-06
2.51158e-06
1.983e-06
1.50551e-06
1.09401e-06
7.53595e-07
4.79826e-07
2.65398e-07
1.07226e-07
1.9475e-08
1.39405e-10
1.78115e-11
2.99475e-09
2.18887e-08
7.15969e-08
1.56864e-07
2.69465e-07
3.94068e-07
5.16784e-07
6.29009e-07
7.27327e-07
8.11886e-07
8.84773e-07
9.48872e-07
1.00717e-06
1.06241e-06
1.11691e-06
1.17254e-06
1.23074e-06
1.29256e-06
1.35875e-06
1.42977e-06
1.50584e-06
1.58702e-06
1.67322e-06
1.76431e-06
1.86017e-06
1.96082e-06
2.06651e-06
2.17785e-06
2.29588e-06
2.42213e-06
2.5586e-06
2.70766e-06
2.87193e-06
3.05375e-06
3.2549e-06
3.47665e-06
3.71932e-06
3.98249e-06
4.26477e-06
4.5638e-06
4.87622e-06
5.19757e-06
5.52232e-06
5.84394e-06
6.15515e-06
6.44813e-06
6.71492e-06
6.94771e-06
7.13919e-06
7.28278e-06
7.37294e-06
7.40527e-06
7.37669e-06
7.2856e-06
7.12539e-06
6.89931e-06
6.62742e-06
6.29266e-06
5.90007e-06
5.45396e-06
4.96394e-06
4.44661e-06
3.87272e-06
3.27692e-06
2.68369e-06
2.11755e-06
1.60323e-06
1.15918e-06