/*--------------------------------*- C++ -*----------------------------------*\
  =========                 |
  \\      /  F ield         | OpenFOAM: The Open Source CFD Toolbox
   \\    /   O peration     | Website:  https://openfoam.org
    \\  /    A nd           | Version:  12
     \\/     M anipulation  |
\*---------------------------------------------------------------------------*/
FoamFile
{
    format      ascii;
    class       surfaceScalarField;
    location    "8.5";
    object      phi;
}
// * * * * * * * * * * * * * * * * * * * * * * * * * * * * * * * * * * * * * //

dimensions      [0 3 -1 0 0 0 0];

internalField   nonuniform List<scalar> 
11100
(
-2.72939e-11
2.72531e-11
4.48156e-10
-4.75493e-10
1.35429e-09
-9.06176e-10
2.52375e-09
-1.16948e-09
3.8216e-09
-1.29785e-09
5.14764e-09
-1.32603e-09
6.43166e-09
-1.28402e-09
7.62655e-09
-1.19489e-09
8.70236e-09
-1.07581e-09
9.64152e-09
-9.39163e-10
1.04351e-08
-7.93562e-10
1.10796e-08
-6.44537e-10
1.15748e-08
-4.95205e-10
1.19215e-08
-3.46714e-10
1.21199e-08
-1.98386e-10
1.21689e-08
-4.89586e-11
1.20639e-08
1.04977e-10
1.17965e-08
2.67384e-10
1.13538e-08
4.42744e-10
1.07171e-08
6.36665e-10
9.86174e-09
8.55353e-10
8.75581e-09
1.10594e-09
7.36008e-09
1.39573e-09
5.6269e-09
1.73317e-09
3.5001e-09
2.1268e-09
9.14137e-10
2.58596e-09
-2.20593e-09
3.12006e-09
-5.94486e-09
3.73893e-09
-1.03971e-08
4.4522e-09
-1.5666e-08
5.2689e-09
-2.18632e-08
6.19724e-09
-2.91073e-08
7.24415e-09
-3.75217e-08
8.41434e-09
-4.72312e-08
9.70952e-09
-5.83587e-08
1.11275e-08
-7.10196e-08
1.26609e-08
-8.53162e-08
1.42966e-08
-1.0133e-07
1.60138e-08
-1.19114e-07
1.77838e-08
-1.38683e-07
1.95688e-08
-1.60004e-07
2.13214e-08
-1.82988e-07
2.29843e-08
-2.07479e-07
2.4491e-08
-2.33245e-07
2.57659e-08
-2.59972e-07
2.67264e-08
-2.87256e-07
2.72839e-08
-3.14603e-07
2.73472e-08
-3.41427e-07
2.68248e-08
-3.67057e-07
2.56298e-08
-3.90741e-07
2.36836e-08
-4.11658e-07
2.09176e-08
-4.28905e-07
1.72467e-08
-4.4161e-07
1.27048e-08
-4.49063e-07
7.45309e-09
-4.50423e-07
1.35963e-09
-4.44969e-07
-5.45415e-09
-4.32335e-07
-1.26338e-08
-4.12347e-07
-1.99882e-08
-3.85183e-07
-2.71635e-08
-3.51419e-07
-3.37642e-08
-3.12055e-07
-3.93643e-08
-2.68509e-07
-4.35461e-08
-2.22559e-07
-4.59491e-08
-1.76237e-07
-4.63229e-08
-1.3166e-07
-4.45761e-08
-9.08538e-08
-4.08067e-08
-5.55477e-08
-3.53061e-08
-2.70181e-08
-2.85297e-08
-5.97933e-09
-2.10387e-08
7.45725e-09
-1.34366e-08
1.37469e-08
-6.28969e-09
1.39168e-08
-1.69871e-10
9.61611e-09
4.3007e-09
3.57958e-09
6.03652e-09
3.57958e-09
2.83354e-10
-2.56176e-10
1.70925e-09
-1.90148e-09
4.13944e-09
-3.33642e-09
7.22338e-09
-4.25345e-09
1.06407e-08
-4.71516e-09
1.41374e-08
-4.82273e-09
1.75262e-08
-4.67285e-09
2.06758e-08
-4.3445e-09
2.34985e-08
-3.89849e-09
2.59391e-08
-3.37977e-09
2.79656e-08
-2.82001e-09
2.95608e-08
-2.23978e-09
3.07163e-08
-1.65071e-09
3.14266e-08
-1.05704e-09
3.16847e-08
-4.56413e-10
3.14791e-08
1.56637e-10
3.07887e-08
7.95338e-10
2.95816e-08
1.47452e-09
2.78124e-08
2.21188e-09
2.54197e-08
3.02936e-09
2.23241e-08
3.95102e-09
1.84259e-08
5.00411e-09
1.36041e-08
6.21751e-09
7.71451e-09
7.62277e-09
5.8861e-10
9.2527e-09
-7.96809e-09
1.11427e-08
-1.81767e-08
1.33286e-08
-3.02832e-08
1.58454e-08
-4.45576e-08
1.87266e-08
-6.12928e-08
2.20041e-08
-8.08006e-08
2.57051e-08
-1.03406e-07
2.98496e-08
-1.2944e-07
3.44481e-08
-1.59228e-07
3.94978e-08
-1.9308e-07
4.49795e-08
-2.31272e-07
5.08531e-08
-2.7403e-07
5.7054e-08
-3.21505e-07
6.34895e-08
-3.73757e-07
7.00356e-08
-4.30723e-07
7.65348e-08
-4.92197e-07
8.27955e-08
-5.57805e-07
8.85923e-08
-6.26983e-07
9.3669e-08
-6.9896e-07
9.77428e-08
-7.72745e-07
1.00511e-07
-8.47119e-07
1.01658e-07
-9.20642e-07
1.0087e-07
-9.91659e-07
9.78414e-08
-1.05832e-06
9.2294e-08
-1.11863e-06
8.39918e-08
-1.17047e-06
7.27526e-08
-1.21166e-06
5.84358e-08
-1.2399e-06
4.09497e-08
-1.25349e-06
2.10455e-08
-1.25068e-06
-1.45783e-09
-1.23005e-06
-2.60822e-08
-1.19072e-06
-5.19569e-08
-1.13264e-06
-7.80745e-08
-1.05652e-06
-1.03284e-07
-9.64028e-07
-1.26254e-07
-8.57819e-07
-1.45573e-07
-7.41496e-07
-1.59869e-07
-6.19481e-07
-1.67964e-07
-4.96761e-07
-1.69043e-07
-3.78533e-07
-1.62804e-07
-2.69781e-07
-1.49559e-07
-1.74831e-07
-1.30257e-07
-9.69557e-08
-1.06404e-07
-3.80985e-08
-7.98959e-08
1.26613e-09
-5.28012e-08
2.21962e-08
-2.72197e-08
2.71874e-08
-5.16107e-09
2.04362e-08
1.10519e-08
8.30021e-09
1.81725e-08
1.18798e-08
7.25352e-10
-9.8147e-10
3.08543e-09
-4.26157e-09
6.82307e-09
-7.07409e-09
1.14793e-08
-8.90975e-09
1.66114e-08
-9.84716e-09
2.18527e-08
-1.00641e-08
2.69234e-08
-9.7435e-09
3.16203e-08
-9.04141e-09
3.58031e-08
-8.08131e-09
3.93793e-08
-6.95596e-09
4.22907e-08
-5.73144e-09
4.45019e-08
-4.45096e-09
4.59901e-08
-3.13896e-09
4.67372e-08
-1.80408e-09
4.67222e-08
-4.41475e-10
4.59162e-08
9.62659e-10
4.42752e-08
2.43631e-09
4.17379e-08
4.01182e-09
3.82208e-08
5.72902e-09
3.36142e-08
7.6359e-09
2.77796e-08
9.78569e-09
2.05466e-08
1.22371e-08
1.17102e-08
1.50539e-08
1.0283e-09
1.83047e-08
-1.17815e-08
2.20625e-08
-2.70401e-08
2.64012e-08
-4.51069e-08
3.13954e-08
-6.63801e-08
3.71187e-08
-9.12945e-08
4.3641e-08
-1.20315e-07
5.10246e-08
-1.5393e-07
5.93201e-08
-1.92641e-07
6.85601e-08
-2.36946e-07
7.87536e-08
-2.87326e-07
8.98782e-08
-3.44219e-07
1.01872e-07
-4.07994e-07
1.14627e-07
-4.78919e-07
1.2798e-07
-5.57132e-07
1.41703e-07
-6.426e-07
1.55503e-07
-7.35083e-07
1.69018e-07
-8.341e-07
1.81813e-07
-9.38899e-07
1.93391e-07
-1.04843e-06
2.03196e-07
-1.16131e-06
2.10627e-07
-1.27586e-06
2.15056e-07
-1.39004e-06
2.15845e-07
-1.50154e-06
2.12373e-07
-1.60776e-06
2.04061e-07
-1.70587e-06
1.90402e-07
-1.79287e-06
1.70994e-07
-1.86569e-06
1.45573e-07
-1.92129e-06
1.14034e-07
-1.95649e-06
7.61498e-08
-1.969e-06
3.35487e-08
-1.95661e-06
-1.38444e-08
-1.91755e-06
-6.51446e-08
-1.85104e-06
-1.18463e-07
-1.7573e-06
-1.71817e-07
-1.63767e-06
-2.22914e-07
-1.49477e-06
-2.69157e-07
-1.33252e-06
-3.07813e-07
-1.15614e-06
-3.3625e-07
-9.719e-07
-3.52207e-07
-7.86832e-07
-3.54112e-07
-6.08276e-07
-3.41359e-07
-4.43318e-07
-3.14517e-07
-2.98192e-07
-2.75383e-07
-1.77732e-07
-2.26864e-07
-8.49454e-08
-1.72683e-07
-2.07441e-08
-1.17003e-07
1.61464e-08
-6.41103e-08
2.9248e-08
-1.82626e-08
2.45028e-08
1.5797e-08
1.06219e-08
3.20534e-08
2.25016e-08
1.1701e-09
-2.15161e-09
4.40337e-09
-7.49488e-09
9.26633e-09
-1.19371e-08
1.52122e-08
-1.48556e-08
2.17137e-08
-1.63487e-08
2.83242e-08
-1.66746e-08
3.46928e-08
-1.61121e-08
4.05583e-08
-1.4907e-08
4.57347e-08
-1.32577e-08
5.00942e-08
-1.13155e-08
5.35519e-08
-9.18913e-09
5.60508e-08
-6.94985e-09
5.75497e-08
-4.63788e-09
5.80125e-08
-2.26685e-09
5.73991e-08
1.71929e-10
5.56566e-08
2.70516e-09
5.27135e-08
5.37942e-09
4.84734e-08
8.25184e-09
4.28095e-08
1.13929e-08
3.55602e-08
1.48853e-08
2.65243e-08
1.88216e-08
1.54574e-08
2.3304e-08
2.06679e-09
2.84445e-08
-1.39885e-08
3.436e-08
-3.30996e-08
4.11736e-08
-5.57096e-08
4.90112e-08
-8.23127e-08
5.79985e-08
-1.13451e-07
6.82571e-08
-1.4971e-07
7.98996e-08
-1.91707e-07
9.30222e-08
-2.40085e-07
1.07697e-07
-2.95487e-07
1.23963e-07
-3.58544e-07
1.4181e-07
-4.29839e-07
1.61174e-07
-5.09883e-07
1.81916e-07
-5.99068e-07
2.03812e-07
-6.97631e-07
2.26543e-07
-8.05607e-07
2.49678e-07
-9.22781e-07
2.72677e-07
-1.04864e-06
2.94881e-07
-1.18235e-06
3.15523e-07
-1.3227e-06
3.33735e-07
-1.46807e-06
3.4857e-07
-1.61647e-06
3.59027e-07
-1.7655e-06
3.64082e-07
-1.91238e-06
3.62723e-07
-2.054e-06
3.53995e-07
-2.18698e-06
3.37041e-07
-2.30773e-06
3.11149e-07
-2.41253e-06
2.75802e-07
-2.49769e-06
2.30727e-07
-2.55958e-06
1.75926e-07
-2.59501e-06
1.1158e-07
-2.60095e-06
3.94857e-08
-2.57514e-06
-3.96535e-08
-2.51605e-06
-1.24227e-07
-2.42314e-06
-2.11379e-07
-2.29699e-06
-2.97969e-07
-2.13952e-06
-3.8038e-07
-1.9541e-06
-4.54575e-07
-1.74558e-06
-5.16342e-07
-1.5202e-06
-5.61625e-07
-1.28547e-06
-5.86936e-07
-1.04977e-06
-5.89813e-07
-8.21875e-07
-5.69255e-07
-6.10338e-07
-5.26054e-07
-4.2281e-07
-4.62911e-07
-2.65372e-07
-3.84302e-07
-1.4198e-07
-2.96075e-07
-5.40823e-08
-2.049e-07
-4.2783e-10
-1.17765e-07
2.31039e-08
-4.17944e-08
2.35007e-08
1.54003e-08
1.09998e-08
4.45543e-08
3.35014e-08
1.57073e-09
-3.72229e-09
5.57726e-09
-1.15014e-08
1.13894e-08
-1.77493e-08
1.8374e-08
-2.18401e-08
2.59395e-08
-2.39142e-08
3.35813e-08
-2.43164e-08
4.08962e-08
-2.3427e-08
4.75772e-08
-2.15879e-08
5.33998e-08
-1.90803e-08
5.8205e-08
-1.61206e-08
6.18812e-08
-1.28654e-08
6.43485e-08
-9.41715e-09
6.55442e-08
-5.83357e-09
6.54103e-08
-2.13294e-09
6.38826e-08
1.69966e-09
6.08803e-08
5.70744e-09
5.62992e-08
9.96047e-09
5.00036e-08
1.45475e-08
4.18195e-08
1.9577e-08
3.15289e-08
2.51758e-08
1.8864e-08
3.14865e-08
3.50351e-09
3.86645e-08
-1.49305e-08
4.68785e-08
-3.68766e-08
5.63061e-08
-6.28351e-08
6.71321e-08
-9.33678e-08
7.95439e-08
-1.29096e-07
9.37266e-08
-1.70694e-07
1.09856e-07
-2.18884e-07
1.28089e-07
-2.74417e-07
1.48555e-07
-3.3806e-07
1.7134e-07
-4.1057e-07
1.96473e-07
-4.92665e-07
2.23905e-07
-5.84984e-07
2.53493e-07
-6.88048e-07
2.84979e-07
-8.02206e-07
3.17971e-07
-9.27588e-07
3.51925e-07
-1.06404e-06
3.86134e-07
-1.21109e-06
4.19727e-07
-1.36788e-06
4.51665e-07
-1.53312e-06
4.80761e-07
-1.70508e-06
5.05699e-07
-1.88158e-06
5.25075e-07
-2.05999e-06
5.37433e-07
-2.23724e-06
5.41326e-07
-2.40988e-06
5.35365e-07
-2.57416e-06
5.18282e-07
-2.72611e-06
4.88991e-07
-2.86162e-06
4.46653e-07
-2.97655e-06
3.90731e-07
-3.06688e-06
3.21059e-07
-3.12884e-06
2.3789e-07
-3.15918e-06
1.41917e-07
-3.15487e-06
3.51736e-08
-3.11378e-06
-8.07416e-08
-3.0347e-06
-2.03306e-07
-2.91741e-06
-3.28674e-07
-2.76288e-06
-4.52499e-07
-2.57348e-06
-5.6978e-07
-2.35306e-06
-6.74996e-07
-2.107e-06
-7.624e-07
-1.84218e-06
-8.26442e-07
-1.56681e-06
-8.62311e-07
-1.29007e-06
-8.66547e-07
-1.02169e-06
-8.37637e-07
-7.71247e-07
-7.76496e-07
-5.47475e-07
-6.86683e-07
-3.57497e-07
-5.7428e-07
-2.06158e-07
-4.47414e-07
-9.55174e-08
-3.1554e-07
-2.45442e-08
-1.88738e-07
1.10302e-08
-7.73687e-08
1.88407e-08
7.5898e-09
1.00179e-08
5.33771e-08
4.35193e-08
1.90884e-09
-5.63117e-09
6.56646e-09
-1.61591e-08
1.31508e-08
-2.43336e-08
2.09408e-08
-2.96302e-08
2.92917e-08
-3.2265e-08
3.76558e-08
-3.26806e-08
4.55915e-08
-3.13626e-08
5.2757e-08
-2.87534e-08
5.8897e-08
-2.52203e-08
6.38248e-08
-2.10485e-08
6.74039e-08
-1.64445e-08
6.95307e-08
-1.15439e-08
7.01192e-08
-6.42209e-09
6.90868e-08
-1.1005e-09
6.63412e-08
4.44521e-09
6.17705e-08
1.02782e-08
5.52336e-08
1.64974e-08
4.65512e-08
2.32298e-08
3.54979e-08
3.06303e-08
2.17965e-08
3.88772e-08
5.11214e-09
4.81708e-08
-1.49536e-08
5.87303e-08
-3.88662e-08
7.07911e-08
-6.7161e-08
8.46008e-08
-1.00444e-07
1.00415e-07
-1.39389e-07
1.18489e-07
-1.84736e-07
1.39074e-07
-2.37281e-07
1.62401e-07
-2.97864e-07
1.88671e-07
-3.67347e-07
2.18038e-07
-4.46596e-07
2.50589e-07
-5.36444e-07
2.8632e-07
-6.37651e-07
3.25113e-07
-7.50862e-07
3.66704e-07
-8.76547e-07
4.10664e-07
-1.01495e-06
4.56369e-07
-1.166e-06
5.02982e-07
-1.32931e-06
5.49443e-07
-1.50405e-06
5.94466e-07
-1.68894e-06
6.36557e-07
-1.88222e-06
6.74037e-07
-2.08161e-06
7.05087e-07
-2.28434e-06
7.27804e-07
-2.48717e-06
7.4027e-07
-2.68647e-06
7.40625e-07
-2.87825e-06
7.27145e-07
-3.05829e-06
6.9832e-07
-3.22223e-06
6.52931e-07
-3.36569e-06
5.90117e-07
-3.48441e-06
5.09447e-07
-3.57434e-06
4.10984e-07
-3.6318e-06
2.95354e-07
-3.65368e-06
1.63802e-07
-3.63726e-06
1.87503e-08
-3.58068e-06
-1.37323e-07
-3.48306e-06
-3.00926e-07
-3.34448e-06
-4.6725e-07
-3.16622e-06
-6.30764e-07
-2.95087e-06
-7.85127e-07
-2.70251e-06
-9.23361e-07
-2.42672e-06
-1.03819e-06
-2.13062e-06
-1.12254e-06
-1.82272e-06
-1.17021e-06
-1.51267e-06
-1.1766e-06
-1.21075e-06
-1.13955e-06
-9.27326e-07
-1.05992e-06
-6.71991e-07
-9.42018e-07
-4.52803e-07
-7.93468e-07
-2.75481e-07
-6.24736e-07
-1.42786e-07
-4.48235e-07
-5.4105e-08
-2.77419e-07
-5.24972e-09
-1.26224e-07
1.16358e-08
-9.29575e-09
8.12855e-09
5.68843e-08
5.16479e-08
2.17866e-09
-7.8098e-09
7.35481e-09
-2.13352e-08
1.45329e-08
-3.15117e-08
2.29062e-08
-3.80035e-08
3.17825e-08
-4.11413e-08
4.05816e-08
-4.14797e-08
4.88341e-08
-3.96151e-08
5.61728e-08
-3.60921e-08
6.2318e-08
-3.13656e-08
6.70599e-08
-2.57903e-08
7.02386e-08
-1.96233e-08
7.17283e-08
-1.30336e-08
7.14181e-08
-6.11188e-09
6.91977e-08
1.11985e-09
6.49451e-08
8.69785e-09
5.85133e-08
1.671e-08
4.97208e-08
2.52899e-08
3.83417e-08
3.46089e-08
2.4098e-08
4.4874e-08
6.65155e-09
5.63237e-08
-1.44024e-08
6.92247e-08
-3.95401e-08
8.3868e-08
-6.93135e-08
1.00564e-07
-1.04352e-07
1.19639e-07
-1.45362e-07
1.41425e-07
-1.93124e-07
1.66252e-07
-2.48487e-07
1.94436e-07
-3.12351e-07
2.26265e-07
-3.85655e-07
2.61976e-07
-4.69352e-07
3.01735e-07
-5.64372e-07
3.45609e-07
-6.71585e-07
3.93533e-07
-7.91751e-07
4.45278e-07
-9.25462e-07
5.00415e-07
-1.07308e-06
5.58282e-07
-1.23467e-06
6.17956e-07
-1.40992e-06
6.78233e-07
-1.5981e-06
7.37621e-07
-1.79798e-06
7.94352e-07
-2.00783e-06
8.46408e-07
-2.22536e-06
8.91569e-07
-2.44776e-06
9.27483e-07
-2.67171e-06
9.5175e-07
-2.89345e-06
9.62011e-07
-3.10887e-06
9.56052e-07
-3.31363e-06
9.31898e-07
-3.50321e-06
8.87904e-07
-3.67312e-06
8.22839e-07
-3.81895e-06
7.35952e-07
-3.93654e-06
6.27038e-07
-4.02206e-06
4.96502e-07
-4.07213e-06
3.45421e-07
-4.08394e-06
1.75613e-07
-4.05516e-06
-1.0029e-08
-3.98428e-06
-2.082e-07
-3.87071e-06
-4.14503e-07
-3.71472e-06
-6.23232e-07
-3.51772e-06
-8.27768e-07
-3.28232e-06
-1.02052e-06
-3.01255e-06
-1.19314e-06
-2.7139e-06
-1.33684e-06
-2.39341e-06
-1.44302e-06
-2.05963e-06
-1.50399e-06
-1.72236e-06
-1.51387e-06
-1.39227e-06
-1.46964e-06
-1.08027e-06
-1.37192e-06
-7.96772e-07
-1.22552e-06
-5.50708e-07
-1.03953e-06
-3.4871e-07
-8.26734e-07
-1.94331e-07
-6.02614e-07
-8.75371e-08
-3.84213e-07
-2.44467e-08
-1.89314e-07
2.72857e-09
-3.6471e-08
5.66897e-09
5.39439e-08
5.73169e-08
2.38073e-09
-1.01906e-08
7.94001e-09
-2.68945e-08
1.55339e-08
-3.91057e-08
2.42757e-08
-4.67453e-08
3.34311e-08
-5.02966e-08
4.23947e-08
-5.04433e-08
5.06778e-08
-4.78981e-08
5.78954e-08
-4.33097e-08
6.37497e-08
-3.722e-08
6.80117e-08
-3.00522e-08
7.05014e-08
-2.2113e-08
7.107e-08
-1.36022e-08
6.95814e-08
-4.62326e-09
6.58973e-08
4.80394e-09
5.98628e-08
1.47323e-08
5.1294e-08
2.52788e-08
3.99671e-08
3.66168e-08
2.56078e-08
4.89682e-08
7.88258e-09
6.25992e-08
-1.36095e-08
7.78157e-08
-3.9343e-08
9.49583e-08
-6.98717e-08
1.14397e-07
-1.05832e-07
1.36525e-07
-1.47943e-07
1.61751e-07
-1.97008e-07
1.90489e-07
-2.53903e-07
2.23147e-07
-3.19572e-07
2.60105e-07
-3.95006e-07
3.01699e-07
-4.81223e-07
3.48193e-07
-5.79235e-07
3.99746e-07
-6.90004e-07
4.56378e-07
-8.14397e-07
5.17927e-07
-9.53125e-07
5.84007e-07
-1.10668e-06
6.53966e-07
-1.27524e-06
7.26847e-07
-1.45864e-06
8.01357e-07
-1.65626e-06
8.75854e-07
-1.86699e-06
9.48345e-07
-2.08915e-06
1.01652e-06
-2.32052e-06
1.07778e-06
-2.5583e-06
1.12935e-06
-2.79917e-06
1.16835e-06
-3.03934e-06
1.19192e-06
-3.27464e-06
1.19731e-06
-3.50066e-06
1.18207e-06
-3.71283e-06
1.14407e-06
-3.9066e-06
1.08167e-06
-4.07752e-06
9.93762e-07
-4.2214e-06
8.79829e-07
-4.33436e-06
7.40003e-07
-4.41297e-06
5.75108e-07
-4.45425e-06
3.86708e-07
-4.45582e-06
1.77178e-07
-4.41574e-06
-5.0105e-08
-4.33283e-06
-2.91113e-07
-4.20666e-06
-5.40675e-07
-4.03759e-06
-7.92303e-07
-3.82693e-06
-1.03842e-06
-3.57713e-06
-1.27033e-06
-3.29189e-06
-1.47838e-06
-2.97638e-06
-1.65235e-06
-2.63734e-06
-1.78206e-06
-2.28309e-06
-1.85824e-06
-1.92341e-06
-1.87355e-06
-1.5692e-06
-1.82386e-06
-1.23187e-06
-1.70925e-06
-9.22548e-07
-1.53484e-06
-6.51108e-07
-1.31097e-06
-4.25151e-07
-1.05269e-06
-2.4914e-07
-7.78625e-07
-1.23768e-07
-5.09586e-07
-4.56456e-08
-2.67437e-07
-7.27192e-09
-7.48447e-08
2.87843e-09
4.37936e-08
6.01953e-08
2.51869e-09
-1.27092e-08
8.32748e-09
-3.27033e-08
1.61613e-08
-4.69395e-08
2.50627e-08
-5.56467e-08
3.42611e-08
-5.9495e-08
4.31321e-08
-5.93142e-08
5.11743e-08
-5.59404e-08
5.79916e-08
-5.01269e-08
6.32735e-08
-4.25018e-08
6.67757e-08
-3.35545e-08
6.83006e-08
-2.36379e-08
6.76774e-08
-1.2979e-08
6.47451e-08
-1.691e-09
5.93363e-08
1.02127e-08
5.12624e-08
2.28062e-08
4.03008e-08
3.62404e-08
2.61836e-08
5.07341e-08
8.58607e-09
6.65657e-08
-1.28818e-08
8.40671e-08
-3.86839e-08
1.03618e-07
-6.93646e-08
1.25639e-07
-1.05553e-07
1.50586e-07
-1.47968e-07
1.78939e-07
-1.97414e-07
2.11196e-07
-2.54779e-07
2.47855e-07
-3.21029e-07
2.89397e-07
-3.97188e-07
3.36263e-07
-4.84318e-07
3.8883e-07
-5.83492e-07
4.47367e-07
-6.95751e-07
5.12005e-07
-8.22054e-07
5.82681e-07
-9.63222e-07
6.59095e-07
-1.11987e-06
7.40653e-07
-1.29232e-06
8.26419e-07
-1.48055e-06
9.15074e-07
-1.68408e-06
1.00489e-06
-1.90193e-06
1.09371e-06
-2.13257e-06
1.17898e-06
-2.37386e-06
1.25781e-06
-2.6231e-06
1.32702e-06
-2.87701e-06
1.38326e-06
-3.13181e-06
1.42316e-06
-3.38336e-06
1.44346e-06
-3.62721e-06
1.44117e-06
-3.8588e-06
1.41366e-06
-4.07357e-06
1.35883e-06
-4.26708e-06
1.27518e-06
-4.43515e-06
1.16184e-06
-4.57397e-06
1.01864e-06
-4.6801e-06
8.46137e-07
-4.75059e-06
6.45597e-07
-4.78295e-06
4.19074e-07
-4.77522e-06
1.69439e-07
-4.72583e-06
-9.94957e-08
-4.63381e-06
-3.83126e-07
-4.49882e-06
-6.75672e-07
-4.32111e-06
-9.7001e-07
-4.10176e-06
-1.25777e-06
-3.8428e-06
-1.52928e-06
-3.54746e-06
-1.77372e-06
-3.22036e-06
-1.97945e-06
-2.86772e-06
-2.1347e-06
-2.49748e-06
-2.22848e-06
-2.11925e-06
-2.25178e-06
-1.74404e-06
-2.19907e-06
-1.38371e-06
-2.06958e-06
-1.05014e-06
-1.86841e-06
-7.54171e-07
-1.60694e-06
-5.04496e-07
-1.30237e-06
-3.06617e-07
-9.76504e-07
-1.62107e-07
-6.54096e-07
-6.82317e-08
-3.61312e-07
-1.79509e-08
-1.25126e-07
-1.03474e-10
2.59461e-08
6.00918e-08
2.59736e-09
-1.53067e-08
8.52639e-09
-3.86324e-08
1.64278e-08
-5.4841e-08
2.52855e-08
-6.45043e-08
3.4299e-08
-6.85086e-08
4.2831e-08
-6.78462e-08
5.03735e-08
-6.34829e-08
5.65245e-08
-5.62779e-08
6.09659e-08
-4.69433e-08
6.34422e-08
-3.60308e-08
6.374e-08
-2.39357e-08
6.16686e-08
-1.09076e-08
5.70424e-08
2.93522e-09
4.96644e-08
1.75907e-08
3.93116e-08
3.3159e-08
2.57218e-08
4.98302e-08
8.58155e-09
6.78744e-08
-1.24847e-08
8.76319e-08
-3.7924e-08
1.09506e-07
-6.82629e-08
1.33957e-07
-1.04114e-07
1.6149e-07
-1.46181e-07
1.92652e-07
-1.95257e-07
2.28015e-07
-2.52226e-07
2.68166e-07
-3.18057e-07
3.13686e-07
-3.93787e-07
3.65127e-07
-4.80506e-07
4.22982e-07
-5.79327e-07
4.8765e-07
-6.91349e-07
5.5939e-07
-8.17612e-07
6.38268e-07
-9.59035e-07
7.24104e-07
-1.11635e-06
8.1641e-07
-1.29002e-06
9.14326e-07
-1.48018e-06
1.01657e-06
-1.6865e-06
1.1214e-06
-1.90818e-06
1.22657e-06
-2.14384e-06
1.32937e-06
-2.39151e-06
1.42665e-06
-2.6486e-06
1.5149e-06
-2.91193e-06
1.59035e-06
-3.17781e-06
1.64914e-06
-3.44213e-06
1.68748e-06
-3.70049e-06
1.70182e-06
-3.94833e-06
1.68901e-06
-4.18111e-06
1.64644e-06
-4.39444e-06
1.57216e-06
-4.58419e-06
1.46493e-06
-4.74661e-06
1.32425e-06
-4.87836e-06
1.15039e-06
-4.97655e-06
9.4433e-07
-5.03876e-06
7.07804e-07
-5.06298e-06
4.43294e-07
-5.04762e-06
1.54084e-07
-4.99143e-06
-1.55683e-07
-4.89357e-06
-4.80991e-07
-4.7536e-06
-8.15639e-07
-4.57158e-06
-1.15203e-06
-4.34818e-06
-1.48118e-06
-4.08488e-06
-1.79258e-06
-3.78424e-06
-2.07436e-06
-3.45018e-06
-2.31351e-06
-3.08826e-06
-2.49663e-06
-2.70587e-06
-2.61087e-06
-2.31231e-06
-2.64534e-06
-1.91862e-06
-2.59276e-06
-1.53706e-06
-2.45114e-06
-1.18028e-06
-2.22519e-06
-8.6019e-07
-1.92703e-06
-5.86682e-07
-1.57587e-06
-3.66464e-07
-1.19672e-06
-2.02154e-07
-8.18406e-07
-9.18298e-08
-4.71637e-07
-2.90471e-08
-1.87908e-07
-3.1286e-09
2.76764e-11
5.69632e-08
2.62168e-09
-1.79283e-08
8.54727e-09
-4.45579e-08
1.63486e-08
-6.26423e-08
2.49643e-08
-7.31199e-08
3.35722e-08
-7.71165e-08
4.15279e-08
-7.58018e-08
4.83224e-08
-7.02774e-08
5.35532e-08
-6.15088e-08
5.6899e-08
-5.0289e-08
5.80963e-08
-3.72281e-08
5.69189e-08
-2.27582e-08
5.31575e-08
-7.14628e-09
4.66027e-08
9.49001e-09
3.70282e-08
2.71652e-08
2.41763e-08
4.60109e-08
7.74442e-09
6.6262e-08
-1.26265e-08
8.82452e-08
-3.73631e-08
1.12368e-07
-6.69689e-08
1.39112e-07
-1.02032e-07
1.6902e-07
-1.43231e-07
2.02689e-07
-1.91339e-07
2.40759e-07
-2.4722e-07
2.83896e-07
-3.1183e-07
3.32776e-07
-3.86204e-07
3.8806e-07
-4.71439e-07
4.50362e-07
-5.68671e-07
5.20215e-07
-6.79041e-07
5.9802e-07
-8.03649e-07
6.83997e-07
-9.43498e-07
7.78117e-07
-1.09943e-06
8.80035e-07
-1.27204e-06
9.89022e-07
-1.46161e-06
1.10389e-06
-1.668e-06
1.22296e-06
-1.89059e-06
1.34399e-06
-2.1282e-06
1.46417e-06
-2.37903e-06
1.5802e-06
-2.64066e-06
1.68829e-06
-2.91008e-06
1.78431e-06
-3.1837e-06
1.86397e-06
-3.45751e-06
1.92294e-06
-3.72716e-06
1.95713e-06
-3.98814e-06
1.9628e-06
-4.23595e-06
1.93682e-06
-4.46622e-06
1.87672e-06
-4.67489e-06
1.78083e-06
-4.85828e-06
1.64832e-06
-5.01316e-06
1.47913e-06
-5.13675e-06
1.27398e-06
-5.22674e-06
1.03433e-06
-5.28123e-06
7.62294e-07
-5.29866e-06
4.60718e-07
-5.27776e-06
1.33186e-07
-5.21748e-06
-2.1596e-07
-5.11701e-06
-5.81468e-07
-4.97574e-06
-9.56901e-07
-4.79341e-06
-1.33436e-06
-4.57017e-06
-1.70442e-06
-4.30685e-06
-2.0559e-06
-4.00523e-06
-2.37598e-06
-3.66839e-06
-2.65035e-06
-3.30106e-06
-2.86395e-06
-2.90997e-06
-3.00196e-06
-2.50398e-06
-3.05133e-06
-2.09403e-06
-3.0027e-06
-1.69274e-06
-2.85243e-06
-1.31353e-06
-2.6044e-06
-9.69457e-07
-2.27111e-06
-6.7178e-07
-1.87355e-06
-4.28587e-07
-1.43992e-06
-2.43725e-07
-1.00327e-06
-1.16246e-07
-5.99115e-07
-4.04275e-08
-2.63727e-07
-6.19202e-09
-3.42078e-08
5.07712e-08
2.59621e-09
-2.05246e-08
8.40062e-09
-5.03624e-08
1.59393e-08
-7.0181e-08
2.41199e-08
-8.13005e-08
3.21077e-08
-8.51043e-08
3.92578e-08
-8.29519e-08
4.50657e-08
-7.60853e-08
4.91334e-08
-6.55764e-08
5.11403e-08
-5.22959e-08
5.08187e-08
-3.69066e-08
4.79318e-08
-1.98713e-08
4.22537e-08
-1.46823e-09
3.35521e-08
1.81916e-08
2.15718e-08
3.91456e-08
6.02049e-09
6.15622e-08
-1.34443e-08
8.57269e-08
-3.72273e-08
1.12028e-07
-6.58055e-08
1.40947e-07
-9.97378e-08
1.73044e-07
-1.39672e-07
2.08954e-07
-1.86348e-07
2.49366e-07
-2.40604e-07
2.95015e-07
-3.03369e-07
3.46661e-07
-3.75659e-07
4.05067e-07
-4.58565e-07
4.70965e-07
-5.53226e-07
5.45023e-07
-6.60806e-07
6.27795e-07
-7.82447e-07
7.19662e-07
-9.19221e-07
8.20771e-07
-1.07206e-06
9.30957e-07
-1.24169e-06
1.04966e-06
-1.42854e-06
1.17587e-06
-1.63264e-06
1.308e-06
-1.85359e-06
1.44391e-06
-2.0904e-06
1.5808e-06
-2.34149e-06
1.71527e-06
-2.60467e-06
1.84338e-06
-2.87709e-06
1.96071e-06
-3.15535e-06
2.06257e-06
-3.43554e-06
2.14416e-06
-3.71341e-06
2.20082e-06
-3.98453e-06
2.22824e-06
-4.24442e-06
2.22269e-06
-4.48876e-06
2.18115e-06
-4.71351e-06
2.10147e-06
-4.91507e-06
1.98239e-06
-5.09028e-06
1.82353e-06
-5.23649e-06
1.62534e-06
-5.35154e-06
1.38903e-06
-5.43366e-06
1.11645e-06
-5.48144e-06
8.1007e-07
-5.49368e-06
4.72961e-07
-5.46939e-06
1.08899e-07
-5.40764e-06
-2.77714e-07
-5.30754e-06
-6.81563e-07
-5.16829e-06
-1.09615e-06
-4.9892e-06
-1.51345e-06
-4.76987e-06
-1.92375e-06
-4.51038e-06
-2.31539e-06
-4.21166e-06
-2.67469e-06
-3.87586e-06
-2.98616e-06
-3.50676e-06
-3.23305e-06
-3.11026e-06
-3.39846e-06
-2.69464e-06
-3.46696e-06
-2.27061e-06
-3.42672e-06
-1.85105e-06
-3.27199e-06
-1.45015e-06
-3.0053e-06
-1.08218e-06
-2.63908e-06
-7.5991e-07
-2.19582e-06
-4.93015e-07
-1.70681e-06
-2.86782e-07
-1.2095e-06
-1.4142e-07
-7.44477e-07
-5.20467e-08
-3.53101e-07
-9.25878e-09
-7.69957e-08
4.15124e-08
2.52492e-09
-2.30495e-08
8.0961e-09
-5.59336e-08
1.52147e-08
-7.72997e-08
2.27722e-08
-8.88579e-08
2.99312e-08
-9.22633e-08
3.60535e-08
-8.90742e-08
4.06448e-08
-8.06766e-08
4.33165e-08
-6.82481e-08
4.3753e-08
-5.27324e-08
4.16854e-08
-3.4839e-08
3.68689e-08
-1.50548e-08
2.90628e-08
6.33788e-09
1.8013e-08
2.92414e-08
3.43633e-09
5.37222e-08
-1.49933e-08
7.99919e-08
-3.7658e-08
1.08392e-07
-6.5007e-08
1.39377e-07
-9.75665e-08
1.73506e-07
-1.35949e-07
2.11427e-07
-1.80857e-07
2.53862e-07
-2.3309e-07
3.01599e-07
-2.93544e-07
3.55469e-07
-3.63204e-07
4.16321e-07
-4.43136e-07
4.84999e-07
-5.3447e-07
5.623e-07
-6.38374e-07
6.48927e-07
-7.56015e-07
7.45435e-07
-8.88512e-07
8.52159e-07
-1.03688e-06
9.69136e-07
-1.20194e-06
1.09602e-06
-1.38427e-06
1.232e-06
-1.58409e-06
1.37569e-06
-1.80118e-06
1.52509e-06
-2.03479e-06
1.67751e-06
-2.28357e-06
1.82958e-06
-2.54558e-06
1.97727e-06
-2.81818e-06
2.11598e-06
-3.09818e-06
2.24071e-06
-3.38185e-06
2.34623e-06
-3.66504e-06
2.42736e-06
-3.94341e-06
2.47919e-06
-4.21253e-06
2.49737e-06
-4.46811e-06
2.47827e-06
-4.70613e-06
2.41918e-06
-4.92302e-06
2.31836e-06
-5.11567e-06
2.17504e-06
-5.28152e-06
1.98938e-06
-5.41854e-06
1.76236e-06
-5.52512e-06
1.49561e-06
-5.60003e-06
1.19136e-06
-5.64226e-06
8.52304e-07
-5.65094e-06
4.8164e-07
-5.62526e-06
8.32202e-08
-5.56434e-06
-3.38634e-07
-5.46721e-06
-7.78689e-07
-5.3328e-06
-1.23056e-06
-5.16e-06
-1.68625e-06
-4.9478e-06
-2.13594e-06
-4.69556e-06
-2.56764e-06
-4.40327e-06
-2.96698e-06
-4.07207e-06
-3.31736e-06
-3.70471e-06
-3.60041e-06
-3.30609e-06
-3.79708e-06
-2.88374e-06
-3.88931e-06
-2.44798e-06
-3.86248e-06
-2.0118e-06
-3.70817e-06
-1.5901e-06
-3.427e-06
-1.19842e-06
-3.03076e-06
-8.51173e-07
-2.54306e-06
-5.5984e-07
-1.99814e-06
-3.31385e-07
-1.43796e-06
-1.67381e-07
-9.08481e-07
-6.39215e-08
-4.5656e-07
-1.23343e-08
-1.28583e-07
2.91781e-08
2.41108e-09
-2.54607e-08
7.64211e-09
-6.11646e-08
1.41883e-08
-8.38458e-08
2.09394e-08
-9.5609e-08
2.70662e-08
-9.839e-08
3.19451e-08
-9.39531e-08
3.5098e-08
-8.38296e-08
3.61506e-08
-6.93007e-08
3.47963e-08
-5.1378e-08
3.07682e-08
-3.0811e-08
2.38162e-08
-8.10281e-09
1.36864e-08
1.64677e-08
1.04558e-10
4.28233e-08
-1.72393e-08
7.10661e-08
-3.87044e-08
1.01457e-07
-6.4711e-08
1.34398e-07
-9.57514e-08
1.70418e-07
-1.32399e-07
2.10154e-07
-1.75316e-07
2.54344e-07
-2.25258e-07
3.03804e-07
-2.83078e-07
3.59419e-07
-3.49719e-07
4.2211e-07
-4.26215e-07
4.92817e-07
-5.1367e-07
5.72454e-07
-6.13239e-07
6.61869e-07
-7.26096e-07
7.61784e-07
-8.5339e-07
8.72729e-07
-9.96191e-07
9.9496e-07
-1.15542e-06
1.12837e-06
-1.33178e-06
1.27238e-06
-1.52564e-06
1.42586e-06
-1.737e-06
1.58704e-06
-1.96532e-06
1.75341e-06
-2.20954e-06
1.92173e-06
-2.46793e-06
2.08798e-06
-2.73816e-06
2.2475e-06
-3.01725e-06
2.39507e-06
-3.30166e-06
2.52512e-06
-3.58743e-06
2.632e-06
-3.87031e-06
2.71023e-06
-4.14593e-06
2.75481e-06
-4.41003e-06
2.76146e-06
-4.65859e-06
2.72683e-06
-4.88803e-06
2.64862e-06
-5.09527e-06
2.52559e-06
-5.27778e-06
2.35755e-06
-5.4336e-06
2.14521e-06
-5.56127e-06
1.89003e-06
-5.65972e-06
1.59406e-06
-5.72818e-06
1.25982e-06
-5.76601e-06
8.90134e-07
-5.77257e-06
4.88192e-07
-5.74718e-06
5.78342e-08
-5.68899e-06
-3.96828e-07
-5.59691e-06
-8.7076e-07
-5.46963e-06
-1.35784e-06
-5.30563e-06
-1.85026e-06
-5.10332e-06
-2.33825e-06
-4.8613e-06
-2.80966e-06
-4.57865e-06
-3.24962e-06
-4.25545e-06
-3.64057e-06
-3.89328e-06
-3.96258e-06
-3.49593e-06
-4.19442e-06
-3.06997e-06
-4.31528e-06
-2.62512e-06
-4.30733e-06
-2.17431e-06
-4.15898e-06
-1.73303e-06
-3.86829e-06
-1.31806e-06
-3.44573e-06
-9.45608e-07
-2.91551e-06
-6.29167e-07
-2.31458e-06
-3.77645e-07
-1.68948e-06
-1.94214e-07
-1.09191e-06
-7.61116e-08
-5.74662e-07
-1.5438e-08
-1.89256e-07
1.374e-08
2.25732e-09
-2.7718e-08
7.04566e-09
-6.5953e-08
1.28715e-08
-8.96716e-08
1.86376e-08
-1.01375e-07
2.35338e-08
-1.03286e-07
2.69598e-08
-9.73791e-08
2.84601e-08
-8.53299e-08
2.76798e-08
-6.85204e-08
2.43252e-08
-4.80235e-08
1.8135e-08
-2.46207e-08
8.8558e-09
1.1764e-09
-3.77722e-09
2.91007e-08
-2.0057e-08
5.91031e-08
-4.03189e-08
9.1328e-08
-6.49536e-08
1.26092e-07
-9.44181e-08
1.63863e-07
-1.29246e-07
2.05245e-07
-1.70054e-07
2.50963e-07
-2.17552e-07
3.01842e-07
-2.72543e-07
3.58795e-07
-3.35924e-07
4.228e-07
-4.08683e-07
4.94869e-07
-4.91887e-07
5.76021e-07
-5.86664e-07
6.67232e-07
-6.9418e-07
7.69384e-07
-8.15594e-07
8.83198e-07
-9.52015e-07
1.00915e-06
-1.10444e-06
1.14738e-06
-1.27366e-06
1.29759e-06
-1.46023e-06
1.45894e-06
-1.6643e-06
1.62993e-06
-1.88559e-06
1.80833e-06
-2.12327e-06
1.9911e-06
-2.37592e-06
2.17438e-06
-2.64146e-06
2.35353e-06
-2.9172e-06
2.52324e-06
-3.19985e-06
2.67771e-06
-3.48562e-06
2.8109e-06
-3.7704e-06
2.91679e-06
-4.04993e-06
2.98976e-06
-4.31994e-06
3.02483e-06
-4.57644e-06
3.01795e-06
-4.81578e-06
2.96618e-06
-5.03487e-06
2.8677e-06
-5.23116e-06
2.72189e-06
-5.40274e-06
2.52912e-06
-5.54819e-06
2.29066e-06
-5.66659e-06
2.00843e-06
-5.75735e-06
1.68482e-06
-5.82007e-06
1.32254e-06
-5.85445e-06
9.24517e-07
-5.86001e-06
4.93754e-07
-5.83621e-06
3.40296e-08
-5.78217e-06
-4.50871e-07
-5.69671e-06
-9.56212e-07
-5.57832e-06
-1.47624e-06
-5.42509e-06
-2.00349e-06
-5.23494e-06
-2.52841e-06
-5.00573e-06
-3.03887e-06
-4.73565e-06
-3.5197e-06
-4.42366e-06
-3.95256e-06
-4.07013e-06
-4.31611e-06
-3.67757e-06
-4.58698e-06
-3.2514e-06
-4.74146e-06
-2.80049e-06
-4.75823e-06
-2.33747e-06
-4.622e-06
-1.87824e-06
-4.32752e-06
-1.44078e-06
-3.88319e-06
-1.04315e-06
-3.31314e-06
-7.01076e-07
-2.65666e-06
-4.25688e-07
-1.96487e-06
-2.22034e-07
-1.29557e-06
-8.8697e-08
-7.07999e-07
-1.86007e-08
-2.59353e-07
-4.86066e-09
2.06559e-09
-2.97837e-08
6.31226e-09
-7.01997e-08
1.12737e-08
-9.46331e-08
1.58804e-08
-1.05982e-07
1.93523e-08
-1.06758e-07
2.11217e-08
-9.91485e-08
2.07624e-08
-8.49707e-08
1.79444e-08
-6.57023e-08
1.23911e-08
-4.24702e-08
3.84958e-09
-1.60792e-08
-7.93396e-09
1.29599e-08
-2.32334e-08
4.44001e-08
-4.23584e-08
7.82281e-08
-6.56683e-08
1.14638e-07
-9.35833e-08
1.54007e-07
-1.26595e-07
1.96874e-07
-1.65275e-07
2.43925e-07
-2.10282e-07
2.9597e-07
-2.62367e-07
3.53927e-07
-3.22374e-07
4.18802e-07
-3.91239e-07
4.91664e-07
-4.69982e-07
5.73612e-07
-5.59694e-07
6.65733e-07
-6.61513e-07
7.69051e-07
-7.76596e-07
8.84467e-07
-9.06068e-07
1.01267e-06
-1.05097e-06
1.15406e-06
-1.21221e-06
1.30861e-06
-1.39043e-06
1.47581e-06
-1.58598e-06
1.65449e-06
-1.79879e-06
1.84274e-06
-2.02829e-06
2.03783e-06
-2.27334e-06
2.23614e-06
-2.53216e-06
2.4332e-06
-2.80236e-06
2.62372e-06
-3.08092e-06
2.80179e-06
-3.36429e-06
2.96108e-06
-3.64853e-06
3.09514e-06
-3.92949e-06
3.19774e-06
-4.20295e-06
3.26322e-06
-4.46489e-06
3.28677e-06
-4.71163e-06
3.2647e-06
-4.94e-06
3.19454e-06
-5.1474e-06
3.0751e-06
-5.33187e-06
2.90635e-06
-5.49202e-06
2.68927e-06
-5.62698e-06
2.42562e-06
-5.73629e-06
2.11773e-06
-5.81974e-06
1.76827e-06
-5.87727e-06
1.38007e-06
-5.90888e-06
9.56125e-07
-5.91425e-06
4.99122e-07
-5.89291e-06
1.26888e-08
-5.84398e-06
-4.99797e-07
-5.76619e-06
-1.03401e-06
-5.65793e-06
-1.5845e-06
-5.51699e-06
-2.14443e-06
-5.34081e-06
-2.70459e-06
-5.12661e-06