/*--------------------------------*- C++ -*----------------------------------*\
  =========                 |
  \\      /  F ield         | OpenFOAM: The Open Source CFD Toolbox
   \\    /   O peration     | Website:  https://openfoam.org
    \\  /    A nd           | Version:  12
     \\/     M anipulation  |
\*---------------------------------------------------------------------------*/
FoamFile
{
    format      ascii;
    class       volVectorField;
    location    "8.5";
    object      U;
}
// * * * * * * * * * * * * * * * * * * * * * * * * * * * * * * * * * * * * * //

dimensions      [0 1 -1 0 0 0 0];

internalField   nonuniform List<vector> 
5625
(
(-6.40808e-06 2.58793e-06 0)
(8.09105e-06 -2.58239e-06 0)
(6.21111e-05 -6.08089e-06 0)
(0.000142278 -7.98014e-06 0)
(0.000236679 -8.83137e-06 0)
(0.000336489 -8.97187e-06 0)
(0.000435371 -8.65872e-06 0)
(0.000529012 -8.06578e-06 0)
(0.000614601 -7.31389e-06 0)
(0.000690424 -6.48603e-06 0)
(0.000755542 -5.63805e-06 0)
(0.000809539 -4.80446e-06 0)
(0.000852311 -4.00455e-06 0)
(0.000883911 -3.24613e-06 0)
(0.000904399 -2.52246e-06 0)
(0.000913763 -1.83027e-06 0)
(0.000911824 -1.14908e-06 0)
(0.000898092 -4.55405e-07 0)
(0.000871788 2.75622e-07 0)
(0.000831744 1.07487e-06 0)
(0.000776346 1.97693e-06 0)
(0.000703482 3.02289e-06 0)
(0.000610497 4.25642e-06 0)
(0.000494138 5.72662e-06 0)
(0.000350525 7.48653e-06 0)
(0.000175096 9.58942e-06 0)
(-3.74177e-05 1.2096e-05 0)
(-0.000293002 1.50679e-05 0)
(-0.000598388 1.85801e-05 0)
(-0.000961019 2.27026e-05 0)
(-0.00138898 2.75028e-05 0)
(-0.00189094 3.30502e-05 0)
(-0.00247603 3.94082e-05 0)
(-0.00315362 4.66299e-05 0)
(-0.0039331 5.47529e-05 0)
(-0.00482351 6.37921e-05 0)
(-0.00583313 7.37316e-05 0)
(-0.006969 8.4516e-05 0)
(-0.00823631 9.60411e-05 0)
(-0.00963775 0.000108144 0)
(-0.0111728 0.000120595 0)
(-0.0128371 0.000133088 0)
(-0.0146215 0.00014524 0)
(-0.0165116 0.000156581 0)
(-0.018487 0.000166561 0)
(-0.0205207 0.000174555 0)
(-0.0225791 0.00017987 0)
(-0.0246217 0.000181768 0)
(-0.026601 0.000179482 0)
(-0.0284635 0.000172273 0)
(-0.0301502 0.000159521 0)
(-0.0315938 0.000139669 0)
(-0.0327342 0.000113971 0)
(-0.0334982 8.1823e-05 0)
(-0.0338389 4.15908e-05 0)
(-0.0336955 -3.10227e-06 0)
(-0.0330192 -5.23747e-05 0)
(-0.0317942 -0.000104822 0)
(-0.0300186 -0.000157315 0)
(-0.0277201 -0.000206797 0)
(-0.0249577 -0.000249781 0)
(-0.0218227 -0.000282748 0)
(-0.0184361 -0.000302599 0)
(-0.0149429 -0.00030714 0)
(-0.0115011 -0.000295533 0)
(-0.00826895 -0.000268572 0)
(-0.00539005 -0.000228688 0)
(-0.00297933 -0.00017963 0)
(-0.00111273 -0.000125873 0)
(0.000178298 -7.20447e-05 0)
(0.000906614 -2.20595e-05 0)
(0.00112726 2.03892e-05 0)
(0.000936861 5.20738e-05 0)
(0.00050565 6.34334e-05 0)
(9.10947e-05 4.20669e-05 0)
(-4.52033e-06 -1.12001e-06 0)
(5.5166e-05 -3.71404e-05 0)
(0.000204797 -6.89385e-05 0)
(0.000417649 -8.87911e-05 0)
(0.000666469 -9.86016e-05 0)
(0.000929636 -0.000100841 0)
(0.00119068 -9.77164e-05 0)
(0.00143783 -9.09598e-05 0)
(0.00166309 -8.18717e-05 0)
(0.00186127 -7.13977e-05 0)
(0.00202926 -6.0197e-05 0)
(0.00216534 -4.86943e-05 0)
(0.00226866 -3.713e-05 0)
(0.00233879 -2.55924e-05 0)
(0.00237531 -1.40345e-05 0)
(0.00237762 -2.34594e-06 0)
(0.00234458 9.71659e-06 0)
(0.00227417 2.24748e-05 0)
(0.0021636 3.62661e-05 0)
(0.00200888 5.15252e-05 0)
(0.00180477 6.87352e-05 0)
(0.00154459 8.84358e-05 0)
(0.00122009 0.000111212 0)
(0.000821349 0.000137717 0)
(0.000336651 0.000168566 0)
(-0.000247572 0.000204484 0)
(-0.000946913 0.000246232 0)
(-0.00177897 0.000294554 0)
(-0.00276307 0.000350154 0)
(-0.00392038 0.000413722 0)
(-0.00527369 0.000485884 0)
(-0.00684701 0.000567145 0)
(-0.00866508 0.000657838 0)
(-0.0107528 0.000758061 0)
(-0.0131342 0.000867599 0)
(-0.0158316 0.000985848 0)
(-0.0188642 0.00111173 0)
(-0.0222466 0.0012436 0)
(-0.0259871 0.00137918 0)
(-0.030086 0.00151552 0)
(-0.0345336 0.00164891 0)
(-0.0393087 0.00177492 0)
(-0.0443763 0.00188841 0)
(-0.0496866 0.00198357 0)
(-0.0551736 0.00205407 0)
(-0.0607544 0.00209318 0)
(-0.0663292 0.002094 0)
(-0.0717814 0.00204969 0)
(-0.0769792 0.00195375 0)
(-0.0817776 0.00180045 0)
(-0.0860209 0.00158489 0)
(-0.0895412 0.00130244 0)
(-0.0921977 0.000951317 0)
(-0.0937753 0.000542349 0)
(-0.0942128 8.56857e-05 0)
(-0.0933554 -0.000432502 0)
(-0.0911094 -0.000978213 0)
(-0.087449 -0.00153415 0)
(-0.0823935 -0.00207509 0)
(-0.0760317 -0.00257161 0)
(-0.0685252 -0.00299211 0)
(-0.0601101 -0.00330572 0)
(-0.0510908 -0.00348581 0)
(-0.0418248 -0.00351389 0)
(-0.0327007 -0.00338313 0)
(-0.0241074 -0.00310068 0)
(-0.0164012 -0.00268795 0)
(-0.00987313 -0.00217858 0)
(-0.00472271 -0.00161432 0)
(-0.00104179 -0.0010401 0)
(0.0011898 -0.000500056 0)
(0.00210387 -3.6308e-05 0)
(0.00194394 0.000301725 0)
(0.00112039 0.000438878 0)
(0.000201318 0.000275476 0)
(2.47057e-06 -1.96962e-05 0)
(0.000115023 -0.000107309 0)
(0.000350553 -0.00018389 0)
(0.000674049 -0.000233471 0)
(0.00104846 -0.000258655 0)
(0.00144332 -0.000264595 0)
(0.00183438 -0.000256395 0)
(0.00220378 -0.000238304 0)
(0.00253888 -0.000213632 0)
(0.00283122 -0.000184838 0)
(0.00307537 -0.000153665 0)
(0.00326802 -0.000121247 0)
(0.00340715 -8.8227e-05 0)
(0.00349137 -5.48356e-05 0)
(0.0035193 -2.09457e-05 0)
(0.00348924 1.3747e-05 0)
(0.0033985 4.99995e-05 0)
(0.00324319 8.86154e-05 0)
(0.00301799 0.000130598 0)
(0.0027157 0.000177165 0)
(0.00232708 0.000229675 0)
(0.00184057 0.000289667 0)
(0.00124216 0.000358673 0)
(0.000515142 0.000438453 0)
(-0.00036013 0.000530931 0)
(-0.00140636 0.00063805 0)
(-0.00264899 0.000761731 0)
(-0.00411647 0.000903893 0)
(-0.00584015 0.0010664 0)
(-0.00785386 0.00125098 0)
(-0.0101935 0.00145907 0)
(-0.0128965 0.00169171 0)
(-0.0160007 0.00194936 0)
(-0.019543 0.00223175 0)
(-0.0235585 0.00253766 0)
(-0.028078 0.00286467 0)
(-0.0331258 0.00320902 0)
(-0.0387181 0.00356535 0)
(-0.0448593 0.00392655 0)
(-0.0515398 0.00428368 0)
(-0.0587333 0.00462593 0)
(-0.066394 0.00494067 0)
(-0.0744546 0.00521362 0)
(-0.0828243 0.00542912 0)
(-0.091388 0.00557051 0)
(-0.100006 0.00562064 0)
(-0.108515 0.00556243 0)
(-0.11673 0.00537963 0)
(-0.124446 0.00505754 0)
(-0.131443 0.00458399 0)
(-0.137492 0.00395002 0)
(-0.142354 0.00314981 0)
(-0.145835 0.00217308 0)
(-0.147625 0.00108141 0)
(-0.147688 -0.000164601 0)
(-0.145773 -0.00151353 0)
(-0.141816 -0.00292684 0)
(-0.135791 -0.004349 0)
(-0.127752 -0.0057178 0)
(-0.117847 -0.00696193 0)
(-0.106322 -0.00800605 0)
(-0.0935204 -0.00877722 0)
(-0.0798781 -0.00921291 0)
(-0.0659005 -0.0092697 0)
(-0.0521354 -0.00893131 0)
(-0.0391334 -0.00821404 0)
(-0.0274044 -0.00716807 0)
(-0.0173722 -0.0058736 0)
(-0.0093377 -0.00443215 0)
(-0.0034513 -0.00295575 0)
(0.000298849 -0.00155843 0)
(0.0020907 -0.000351779 0)
(0.0022687 0.000537814 0)
(0.00140465 0.000941446 0)
(0.000257514 0.000634238 0)
(1.01383e-05 -5.52613e-05 0)
(0.000175318 -0.000212836 0)
(0.00048733 -0.000346593 0)
(0.000903292 -0.000434424 0)
(0.00137906 -0.000479447 0)
(0.00187808 -0.000489763 0)
(0.00237038 -0.000473943 0)
(0.00283324 -0.000439422 0)
(0.00325017 -0.000392138 0)
(0.0036097 -0.000336581 0)
(0.00390415 -0.000275964 0)
(0.00412843 -0.000212389 0)
(0.00427907 -0.00014705 0)
(0.00435337 -8.03589e-05 0)
(0.00434858 -1.20807e-05 0)
(0.00426145 5.85015e-05 0)
(0.00408732 0.000132755 0)
(0.00382007 0.000212276 0)
(0.0034514 0.00029907 0)
(0.00297057 0.000395527 0)
(0.00236405 0.000504225 0)
(0.00161525 0.000628042 0)
(0.000704053 0.000770276 0)
(-0.000393315 0.000934291 0)
(-0.00170424 0.00112361 0)
(-0.00326 0.00134185 0)
(-0.0050958 0.00159271 0)
(-0.00725057 0.00187977 0)
(-0.00976671 0.0022064 0)
(-0.0126896 0.00257558 0)
(-0.0160666 0.00298964 0)
(-0.0199465 0.00345003 0)
(-0.0243775 0.00395694 0)
(-0.0294057 0.00450899 0)
(-0.0350727 0.0051028 0)
(-0.0414131 0.00573265 0)
(-0.0484515 0.00639001 0)
(-0.0561989 0.00706331 0)
(-0.0646493 0.00773765 0)
(-0.0737765 0.00839471 0)
(-0.0835305 0.00901282 0)
(-0.0938345 0.00956721 0)
(-0.104583 0.0100305 0)
(-0.115642 0.0103732 0)
(-0.126844 0.0105648 0)
(-0.137996 0.0105748 0)
(-0.148876 0.0103736 0)
(-0.159238 0.00993395 0)
(-0.168821 0.00923271 0)
(-0.177347 0.0082519 0)
(-0.184537 0.00698054 0)
(-0.19011 0.00541556 0)
(-0.193825 0.00355657 0)
(-0.195407 0.0014603 0)
(-0.194705 -0.000853855 0)
(-0.191535 -0.00334525 0)
(-0.185832 -0.00592612 0)
(-0.177591 -0.00850103 0)
(-0.166906 -0.0109604 0)
(-0.153972 -0.0131809 0)
(-0.139098 -0.0150337 0)
(-0.122702 -0.0163944 0)
(-0.105305 -0.0171566 0)
(-0.087509 -0.0172456 0)
(-0.0699673 -0.0166322 0)
(-0.0533408 -0.0153425 0)
(-0.0382494 -0.0134604 0)
(-0.0252191 -0.0111231 0)
(-0.0146355 -0.00850773 0)
(-0.00670703 -0.00581391 0)
(-0.00144357 -0.00324877 0)
(0.0013524 -0.00102089 0)
(0.00208763 0.000642575 0)
(0.00143535 0.00145875 0)
(0.000275003 0.00105171 0)
(1.70064e-05 -0.000107025 0)
(0.000230042 -0.000349688 0)
(0.000608284 -0.000548585 0)
(0.00110035 -0.000679366 0)
(0.00165615 -0.000746194 0)
(0.00223482 -0.000760284 0)
(0.00280223 -0.000733934 0)
(0.00333194 -0.000678111 0)
(0.00380433 -0.000601752 0)
(0.00420534 -0.000511703 0)
(0.00452515 -0.000412898 0)
(0.00475684 -0.00030858 0)
(0.00489533 -0.000200573 0)
(0.00493629 -8.94798e-05 0)
(0.00487533 2.51117e-05 0)
(0.00470721 0.000144488 0)
(0.0044251 0.000270778 0)
(0.00402014 0.000406682 0)
(0.00348082 0.000555439 0)
(0.0027926 0.000720865 0)
(0.00193731 0.000907368 0)
(0.00089291 0.0011197 0)
(-0.000366728 0.00136296 0)
(-0.00187217 0.00164259 0)
(-0.00365863 0.00196427 0)
(-0.00576596 0.0023338 0)
(-0.00823859 0.00275695 0)
(-0.0111253 0.00323925 0)
(-0.0144785 0.00378576 0)
(-0.0183538 0.00440075 0)
(-0.0228087 0.00508731 0)
(-0.0279007 0.00584684 0)
(-0.0336857 0.00667855 0)
(-0.0402154 0.00757889 0)
(-0.0475343 0.00854087 0)
(-0.0556759 0.0095535 0)
(-0.0646592 0.0106012 0)
(-0.0744844 0.0116635 0)
(-0.085129 0.0127146 0)
(-0.0965434 0.0137234 0)
(-0.108648 0.014654 0)
(-0.121331 0.0154661 0)
(-0.134444 0.0161162 0)
(-0.147808 0.0165584 0)
(-0.161206 0.0167465 0)
(-0.174395 0.0166352 0)
(-0.187102 0.0161825 0)
(-0.199037 0.0153512 0)
(-0.209893 0.0141114 0)
(-0.219359 0.0124422 0)
(-0.227128 0.0103344 0)
(-0.232901 0.00779168 0)
(-0.236422 0.00482954 0)
(-0.237437 0.00151769 0)
(-0.235766 -0.00209866 0)
(-0.231269 -0.00594526 0)
(-0.223895 -0.00989584 0)
(-0.213668 -0.0138102 0)
(-0.200712 -0.017527 0)
(-0.185258 -0.0208671 0)
(-0.167653 -0.0236441 0)
(-0.148359 -0.0256785 0)
(-0.127944 -0.0268153 0)
(-0.107069 -0.0269448 0)
(-0.0864518 -0.0260208 0)
(-0.0668281 -0.0240766 0)
(-0.0488982 -0.0212301 0)
(-0.0332698 -0.0176792 0)
(-0.0204031 -0.0136848 0)
(-0.0105651 -0.00954685 0)
(-0.00379941 -0.00558245 0)
(8.99409e-05 -0.00211581 0)
(0.00154074 0.00050779 0)
(0.00128386 0.00187758 0)
(0.000268585 0.00145644 0)
(2.26805e-05 -0.000172798 0)
(0.000276536 -0.000513336 0)
(0.000709904 -0.000782744 0)
(0.00126252 -0.000958605 0)
(0.00187888 -0.00104724 0)
(0.00251487 -0.00106329 0)
(0.00313334 -0.00102292 0)
(0.00370512 -0.000940828 0)
(0.00420813 -0.000829134 0)
(0.00462613 -0.000697227 0)
(0.00494734 -0.000551903 0)
(0.00516306 -0.000397619 0)
(0.00526644 -0.000236861 0)
(0.00525142 -7.04137e-05 0)
(0.00511166 0.000102443 0)
(0.00483967 0.000283669 0)
(0.00442613 0.00047636 0)
(0.00385922 0.000684482 0)
(0.00312386 0.00091297 0)
(0.00220129 0.00116747 0)
(0.00106871 0.00145429 0)
(-0.000301308 0.00178037 0)
(-0.00194111 0.00215321 0)
(-0.00388817 0.00258071 0)
(-0.0061853 0.00307105 0)
(-0.00888057 0.00363249 0)
(-0.0120271 0.00427315 0)
(-0.0156827 0.00500067 0)
(-0.019909 0.00582183 0)
(-0.0247702 0.00674201 0)
(-0.0303317 0.00776463 0)
(-0.0366579 0.00889039 0)
(-0.0438093 0.0101165 0)
(-0.0518396 0.0114358 0)
(-0.0607916 0.0128359 0)
(-0.0706932 0.0142984 0)
(-0.0815524 0.015798 0)
(-0.0933531 0.0173024 0)
(-0.10605 0.0187718 0)
(-0.119566 0.0201594 0)
(-0.133786 0.021412 0)
(-0.148559 0.0224713 0)
(-0.163695 0.0232753 0)
(-0.17897 0.0237608 0)
(-0.194122 0.0238654 0)
(-0.208865 0.02353 0)
(-0.222889 0.0227018 0)
(-0.23587 0.0213365 0)
(-0.247478 0.0194012 0)
(-0.257386 0.0168765 0)
(-0.265281 0.0137594 0)
(-0.270868 0.0100655 0)
(-0.273897 0.00583059 0)
(-0.274139 0.00113769 0)
(-0.271425 -0.00393671 0)
(-0.265645 -0.00928008 0)
(-0.256773 -0.0147295 0)
(-0.244853 -0.0200992 0)
(-0.230029 -0.025176 0)
(-0.21255 -0.0297251 0)
(-0.192778 -0.0335022 0)
(-0.171191 -0.0362708 0)
(-0.148377 -0.0378253 0)
(-0.125023 -0.038016 0)
(-0.101886 -0.0367753 0)
(-0.079753 -0.0341384 0)
(-0.0593853 -0.0302539 0)
(-0.0414604 -0.0253797 0)
(-0.0265085 -0.0198639 0)
(-0.014858 -0.0141152 0)
(-0.00659608 -0.00857254 0)
(-0.00154602 -0.00368871 0)
(0.000736568 5.83597e-05 0)
(0.001008 0.00212188 0)
(0.000247747 0.00180354 0)
(2.71229e-05 -0.000250011 0)
(0.000313834 -0.000698943 0)
(0.000790688 -0.00104245 0)
(0.00138871 -0.00126371 0)
(0.00204737 -0.00137262 0)
(0.00271994 -0.00138771 0)
(0.00336711 -0.00132921 0)
(0.00395774 -0.00121562 0)
(0.00446789 -0.00106233 0)
(0.00487954 -0.000881357 0)
(0.00517919 -0.000681396 0)
(0.00535643 -0.000468137 0)
(0.00540271 -0.00024476 0)
(0.00530998 -1.20772e-05 0)
(0.00506974 0.000231006 0)
(0.00467216 0.000487265 0)
(0.00410506 0.000761037 0)
(0.00335334 0.00105787 0)
(0.00239828 0.00138444 0)
(0.00121687 0.00174851 0)
(-0.000218633 0.00215877 0)
(-0.00194117 0.00262471 0)
(-0.00398925 0.0031565 0)
(-0.00640714 0.00376481 0)
(-0.00924498 0.00446061 0)
(-0.0125586 0.00525488 0)
(-0.0164094 0.00615823 0)
(-0.020863 0.00718043 0)
(-0.025989 0.00832978 0)
(-0.0318588 0.00961245 0)
(-0.0385437 0.0110315 0)
(-0.0461121 0.0125861 0)
(-0.054626 0.0142699 0)
(-0.0641374 0.0160706 0)
(-0.0746834 0.0179683 0)
(-0.086281 0.0199346 0)
(-0.0989224 0.0219319 0)
(-0.11257 0.0239131 0)
(-0.127151 0.0258216 0)
(-0.142554 0.0275919 0)
(-0.15863 0.0291513 0)
(-0.175186 0.0304217 0)
(-0.191991 0.0313223 0)
(-0.208779 0.0317723 0)
(-0.225254 0.0316947 0)
(-0.241094 0.0310192 0)
(-0.255967 0.0296855 0)
(-0.269531 0.0276464 0)
(-0.281451 0.0248705 0)
(-0.291403 0.0213448 0)
(-0.299085 0.0170773 0)
(-0.304224 0.0120994 0)
(-0.306591 0.00646832 0)
(-0.305986 0.000283676 0)
(-0.302265 -0.0063456 0)
(-0.295347 -0.0132707 0)
(-0.285219 -0.0202936 0)
(-0.271942 -0.0271853 0)
(-0.255664 -0.0336838 0)
(-0.236632 -0.0395008 0)
(-0.215201 -0.044335 0)
(-0.191843 -0.0478928 0)
(-0.167142 -0.0499142 0)
(-0.141792 -0.0502052 0)
(-0.11657 -0.0486699 0)
(-0.0922956 -0.0453385 0)
(-0.0697848 -0.040384 0)
(-0.0497785 -0.034121 0)
(-0.0328768 -0.0269855 0)
(-0.0194743 -0.0194997 0)
(-0.00971129 -0.0122336 0)
(-0.00344485 -0.00577945 0)
(-0.000242661 -0.00075797 0)
(0.000651761 0.00214132 0)
(0.000219282 0.00206638 0)
(3.04304e-05 -0.000336061 0)
(0.000341849 -0.000901461 0)
(0.000850344 -0.00132107 0)
(0.00147893 -0.0015866 0)
(0.00216245 -0.00171296 0)
(0.00285207 -0.00172322 0)
(0.00350691 -0.00164186 0)
(0.00409449 -0.00149123 0)
(0.00458953 -0.00129003 0)
(0.00497266 -0.00105286 0)
(0.00522886 -0.000790305 0)
(0.00534618 -0.000509337 0)
(0.00531421 -0.000213586 0)
(0.00512296 9.61121e-05 0)
(0.00476168 0.000421386 0)
(0.00421786 0.000766047 0)
(0.00347644 0.00113579 0)
(0.0025189 0.00153792 0)
(0.00132262 0.00198126 0)
(-0.000139818 0.00247595 0)
(-0.00190113 0.00303332 0)
(-0.00399979 0.00366569 0)
(-0.00648038 0.0043862 0)
(-0.00939376 0.00520859 0)
(-0.0127971 0.00614681 0)
(-0.0167534 0.00721468 0)
(-0.0213313 0.00842533 0)
(-0.0266037 0.0097905 0)
(-0.0326465 0.0113197 0)
(-0.0395364 0.0130193 0)
(-0.0473483 0.0148912 0)
(-0.056152 0.0169315 0)
(-0.0660077 0.0191291 0)
(-0.0769616 0.0214643 0)
(-0.0890408 0.0239074 0)
(-0.102247 0.0264175 0)
(-0.116552 0.0289419 0)
(-0.131891 0.0314158 0)
(-0.148162 0.0337631 0)
(-0.165218 0.0358979 0)
(-0.18287 0.0377264 0)
(-0.200887 0.0391501 0)
(-0.219002 0.04007 0)
(-0.236914 0.0403897 0)
(-0.254299 0.0400202 0)
(-0.270817 0.0388839 0)
(-0.286125 0.0369177 0)
(-0.299881 0.0340764 0)
(-0.311761 0.0303353 0)
(-0.32146 0.0256921 0)
(-0.328702 0.0201694 0)
(-0.333245 0.0138166 0)
(-0.334889 0.00671267 0)
(-0.33347 -0.00102456 0)
(-0.328869 -0.00925646 0)
(-0.321025 -0.0178022 0)
(-0.309934 -0.026432 0)
(-0.295657 -0.0348783 0)
(-0.278331 -0.0428345 0)
(-0.258185 -0.0499621 0)
(-0.235548 -0.0559047 0)
(-0.210866 -0.0603103 0)
(-0.184705 -0.0628617 0)
(-0.157746 -0.0633139 0)
(-0.130772 -0.0615343 0)
(-0.104632 -0.0575392 0)
(-0.0801871 -0.0515175 0)
(-0.058243 -0.0438349 0)
(-0.0394731 -0.0350138 0)
(-0.024345 -0.0256934 0)
(-0.0130623 -0.0165817 0)
(-0.00552843 -0.00842002 0)
(-0.00133758 -0.00197938 0)
(0.000246845 0.00190173 0)
(0.000187852 0.00222904 0)
(3.27481e-05 -0.000428459 0)
(0.000360946 -0.00111582 0)
(0.000889297 -0.00161196 0)
(0.00153387 -0.00191933 0)
(0.00222547 -0.00205927 0)
(0.0029135 -0.00205998 0)
(0.00355606 -0.00195044 0)
(0.00411981 -0.00175694 0)
(0.00457864 -0.00150141 0)
(0.00491211 -0.001201 0)
(0.00510402 -0.000868118 0)
(0.00514089 -0.000510787 0)
(0.0050106 -0.000133115 0)
(0.00470112 0.000264232 0)
(0.00419936 0.000683591 0)
(0.00349011 0.00112994 0)
(0.0025552 0.00161057 0)
(0.00137259 0.00213481 0)
(-8.43525e-05 0.00271383 0)
(-0.00184752 0.00336041 0)
(-0.00395461 0.00408878 0)
(-0.00644956 0.00491436 0)
(-0.00938287 0.0058535 0)
(-0.0128117 0.00692316 0)
(-0.0167997 0.00814045 0)
(-0.0214165 0.00952202 0)
(-0.0267371 0.0110834 0)
(-0.0328403 0.012838 0)
(-0.0398067 0.0147961 0)
(-0.0477164 0.0169634 0)
(-0.0566455 0.0193393 0)
(-0.066662 0.0219156 0)
(-0.077821 0.0246746 0)
(-0.0901593 0.0275869 0)
(-0.10369 0.0306107 0)
(-0.118394 0.0336897 0)
(-0.13422 0.0367534 0)
(-0.151073 0.0397171 0)
(-0.168817 0.0424833 0)
(-0.18727 0.0449439 0)
(-0.206205 0.046984 0)
(-0.225358 0.0484856 0)
(-0.244428 0.049333 0)
(-0.263092 0.0494178 0)
(-0.281008 0.0486432 0)
(-0.297831 0.0469289 0)
(-0.313222 0.0442145 0)
(-0.326857 0.0404619 0)
(-0.338432 0.0356574 0)
(-0.347676 0.0298133 0)
(-0.354348 0.0229687 0)
(-0.358243 0.0151919 0)
(-0.359196 0.00658179 0)
(-0.357074 -0.00272599 0)
(-0.351779 -0.0125681 0)
(-0.343263 -0.0227376 0)
(-0.331521 -0.0329778 0)
(-0.316599 -0.0429882 0)
(-0.298612 -0.0524229 0)
(-0.277754 -0.0608973 0)
(-0.254313 -0.0680014 0)
(-0.228695 -0.0733238 0)
(-0.20143 -0.0764855 0)
(-0.173176 -0.0771831 0)
(-0.144714 -0.0752375 0)
(-0.116914 -0.0706395 0)
(-0.0906808 -0.0635837 0)
(-0.0668881 -0.0544794 0)
(-0.0462886 -0.0439323 0)
(-0.0294325 -0.0327003 0)
(-0.0165974 -0.0216361 0)
(-0.00774492 -0.0116382 0)
(-0.00250797 -0.00363544 0)
(-0.000185062 0.00138076 0)
(0.000156294 0.00228239 0)
(3.42244e-05 -0.000524883 0)
(0.000371682 -0.00133706 0)
(0.000908348 -0.00190858 0)
(0.00155464 -0.00225419 0)
(0.00223802 -0.00240284 0)
(0.00290657 -0.00238855 0)
(0.00351778 -0.00224504 0)
(0.00403794 -0.00200253 0)
(0.00444044 -0.00168618 0)
(0.00470417 -0.00131554 0)
(0.00481193 -0.000904686 0)
(0.0047489 -0.000462602 0)
(0.00450128 6.3294e-06 0)
(0.00405503 0.000501769 0)
(0.00339465 0.00102693 0)
(0.00250219 0.00158816 0)
(0.00135626 0.00219458 0)
(-6.87811e-05 0.00285773 0)
(-0.00180361 0.00359135 0)
(-0.0038846 0.00441111 0)
(-0.00635438 0.00533437 0)
(-0.00926222 0.00637985 0)
(-0.0126643 0.0075673 0)
(-0.0166235 0.00891701 0)
(-0.0212097 0.0104492 0)
(-0.0264981 0.0121834 0)
(-0.0325691 0.0141372 0)
(-0.0395058 0.0163253 0)
(-0.0473921 0.0187578 0)
(-0.0563092 0.0214387 0)
(-0.0663316 0.024364 0)
(-0.0775227 0.0275191 0)
(-0.089929 0.0308776 0)
(-0.103574 0.0343983 0)
(-0.118452 0.0380244 0)
(-0.134523 0.0416821 0)
(-0.151706 0.0452805 0)
(-0.169874 0.0487132 0)
(-0.188858 0.0518597 0)
(-0.208439 0.0545898 0)
(-0.22836 0.0567679 0)
(-0.248324 0.0582588 0)
(-0.26801 0.0589338 0)
(-0.28708 0.0586761 0)
(-0.305188 0.0573867 0)
(-0.321998 0.054988 0)
(-0.337188 0.0514273 0)
(-0.35046 0.0466785 0)
(-0.361548 0.0407426 0)
(-0.370219 0.0336483 0)
(-0.376273 0.0254524 0)
(-0.379544 0.0162403 0)
(-0.3799 0.00612852 0)
(-0.377232 -0.00473269 0)
(-0.371463 -0.0161613 0)
(-0.362544 -0.0279309 0)
(-0.350459 -0.039764 0)
(-0.335233 -0.0513335 0)
(-0.316942 -0.0622599 0)
(-0.295734 -0.0721162 0)
(-0.271847 -0.0804407 0)
(-0.245632 -0.0867612 0)
(-0.21757 -0.090632 0)
(-0.188289 -0.091683 0)
(-0.158556 -0.0896765 0)
(-0.129256 -0.084565 0)
(-0.10134 -0.076536 0)
(-0.0757508 -0.0660327 0)
(-0.0533299 -0.0537395 0)
(-0.0347209 -0.0405342 0)
(-0.0202878 -0.0274197 0)
(-0.0100631 -0.0154602 0)
(-0.00372887 -0.00574998 0)
(-0.000630404 0.000563147 0)
(0.00012598 0.00222253 0)
(3.49918e-05 -0.000623201 0)
(0.000374665 -0.00156045 0)
(0.000908459 -0.00220454 0)
(0.00154253 -0.00258364 0)
(0.00220186 -0.00273528 0)
(0.00283365 -0.00269988 0)
(0.0033952 -0.00251614 0)
(0.00385283 -0.00221827 0)
(0.00417985 -0.00183453 0)
(0.00435473 -0.00138673 0)
(0.00435949 -0.000890455 0)
(0.00417816 -0.000355437 0)
(0.00379535 0.000213847 0)
(0.00319501 0.000817578 0)
(0.00235925 0.00146004 0)
(0.00126729 0.00214917 0)
(-0.000105462 0.00289608 0)
(-0.00178828 0.00371478 0)
(-0.00381588 0.00462177 0)
(-0.00622908 0.00563583 0)
(-0.00907528 0.00677762 0)
(-0.0124089 0.00806933 0)
(-0.0162913 0.0095342 0)
(-0.020791 0.0111959 0)
(-0.0259827 0.0130778 0)
(-0.0319469 0.0152018 0)
(-0.0387678 0.0175873 0)
(-0.0465316 0.0202496 0)
(-0.0553232 0.0231978 0)
(-0.0652227 0.0264331 0)
(-0.0763005 0.029946 0)
(-0.0886123 0.0337142 0)
(-0.102192 0.0377 0)
(-0.117048 0.0418482 0)
(-0.133152 0.0460847 0)
(-0.150437 0.0503155 0)
(-0.168794 0.0544278 0)
(-0.188063 0.0582917 0)
(-0.208041 0.0617638 0)
(-0.228478 0.0646924 0)
(-0.249087 0.0669234 0)
(-0.269552 0.0683076 0)
(-0.289537 0.0687073 0)
(-0.308701 0.0680031 0)
(-0.32671 0.0660989 0)
(-0.343244 0.0629254 0)
(-0.358011 0.0584425 0)
(-0.370751 0.0526396 0)
(-0.38124 0.0455348 0)
(-0.389287 0.0371742 0)
(-0.394735 0.0276307 0)
(-0.397454 0.0170048 0)
(-0.397342 0.00542651 0)
(-0.394312 -0.00694374 0)
(-0.388292 -0.0199118 0)
(-0.379231 -0.033239 0)
(-0.367094 -0.0466332 0)
(-0.351873 -0.0597474 0)
(-0.333601 -0.0721743 0)
(-0.312371 -0.0834486 0)
(-0.288358 -0.0930587 0)
(-0.261849 -0.100471 0)
(-0.23327 -0.105167 0)
(-0.203201 -0.106701 0)
(-0.17239 -0.104765 0)
(-0.14173 -0.099257 0)
(-0.112215 -0.0903425 0)
(-0.0848621 -0.0784865 0)
(-0.0606097 -0.0644453 0)
(-0.0402079 -0.0492165 0)
(-0.0241215 -0.0339591 0)
(-0.0124671 -0.0199122 0)
(-0.00498723 -0.00834369 0)
(-0.00108179 -0.000562259 0)
(9.77078e-05 0.00204813 0)
(3.51604e-05 -0.000721464 0)
(0.000370475 -0.00178144 0)
(0.000890614 -0.00249366 0)
(0.00149891 -0.00290035 0)
(0.00211876 -0.00304843 0)
(0.00269703 -0.00298523 0)
(0.00319128 -0.00275463 0)
(0.00356823 -0.00239485 0)
(0.00380145 -0.00193711 0)
(0.0038693 -0.00140534 0)
(0.00375326 -0.00081638 0)
(0.00343632 -0.000180504 0)
(0.00290162 0.000497936 0)
(0.00213114 0.00121985 0)
(0.00110464 0.00199082 0)
(-0.000201481 0.00282055 0)
(-0.00181502 0.00372239 0)
(-0.00376885 0.00471297 0)
(-0.00610167 0.00581178 0)
(-0.00885861 0.00704085 0)
(-0.0120917 0.0084243 0)
(-0.01586 0.00998789 0)
(-0.0202299 0.0117584 0)
(-0.0252746 0.0137628 0)
(-0.0310733 0.0160273 0)
(-0.0377102 0.0185761 0)
(-0.0452724 0.0214297 0)
(-0.053847 0.0246031 0)
(-0.0635184 0.0281034 0)
(-0.0743629 0.0319274 0)
(-0.0864442 0.0360587 0)
(-0.0998072 0.0404649 0)
(-0.114471 0.0450951 0)
(-0.130424 0.0498775 0)
(-0.147613 0.0547184 0)
(-0.165946 0.059502 0)
(-0.185279 0.064092 0)
(-0.205424 0.0683348 0)
(-0.226145 0.0720645 0)
(-0.247165 0.0751098 0)
(-0.268176 0.0773014 0)
(-0.288849 0.0784802 0)
(-0.308846 0.0785049 0)
(-0.327835 0.0772588 0)
(-0.345499 0.0746542 0)
(-0.361549 0.0706353 0)
(-0.375732 0.0651783 0)
(-0.38783 0.0582907 0)
(-0.397662 0.0500086 0)
(-0.405084 0.0403947 0)
(-0.409976 0.0295358 0)
(-0.412244 0.0175437 0)
(-0.411807 0.00455761 0)
(-0.408593 -0.00925714 0)
(-0.402535 -0.0237009 0)
(-0.39357 -0.0385295 0)
(-0.381639 -0.0534429 0)
(-0.366698 -0.0680804 0)
(-0.348731 -0.0820128 0)
(-0.32777 -0.0947414 0)
(-0.303922 -0.105707 0)
(-0.277402 -0.114313 0)
(-0.248567 -0.119966 0)
(-0.217942 -0.122134 0)
(-0.186242 -0.120423 0)
(-0.15436 -0.114662 0)
(-0.123329 -0.104977 0)
(-0.0942405 -0.0918381 0)
(-0.0681404 -0.0760651 0)
(-0.0458989 -0.0587734 0)
(-0.0280977 -0.041284 0)
(-0.0149526 -0.0250208 0)
(-0.00627865 -0.011436 0)
(-0.00153662 -0.00200416 0)
(7.174e-05 0.00175871 0)
(3.48175e-05 -0.000817883 0)
(0.000359631 -0.00199575 0)
(0.000855739 -0.00276992 0)
(0.00142506 -0.00319717 0)
(0.0019904 -0.00333436 0)
(0.00249887 -0.00323613 0)
(0.00290876 -0.00295173 0)
(0.00318761 -0.00252335 0)
(0.00330954 -0.00198504 0)
(0.00325312 -0.00136262 0)
(0.00299945 -0.000673939 0)
(0.0025307 7.04159e-05 0)
(0.0018286 0.000866469 0)
(0.000873288 0.0017161 0)
(-0.00035783 0.00262639 0)
(-0.00189109 0.00360903 0)
(-0.00375747 0.0046798 0)
(-0.00599336 0.00585814 0)
(-0.00864132 0.00716669 0)
(-0.0117506 0.00863086 0)
(-0.0153775 0.0102783 0)
(-0.0195855 0.0121385 0)
(-0.0244454 0.0142416 0)
(-0.0300343 0.0166177 0)
(-0.036435 0.0192957 0)
(-0.0437343 0.0223014 0)
(-0.0520204 0.0256558 0)
(-0.0613801 0.0293727 0)
(-0.0718946 0.0334558 0)
(-0.0836345 0.037896 0)
(-0.096654 0.0426681 0)
(-0.110984 0.0477275 0)
(-0.126627 0.0530079 0)
(-0.143547 0.0584187 0)
(-0.161669 0.0638448 0)
(-0.180867 0.0691471 0)
(-0.20097 0.0741651 0)
(-0.22176 0.0787221 0)
(-0.242973 0.0826314 0)
(-0.264312 0.0857049 0)
(-0.285456 0.087762 0)
(-0.30607 0.0886389 0)
(-0.325826 0.0881962 0)
(-0.344409 0.0863256 0)
(-0.361532 0.0829527 0)
(-0.376943 0.078039 0)
(-0.390429 0.0715801 0)
(-0.40182 0.0636025 0)
(-0.41098 0.0541603 0)
(-0.417804 0.0433304 0)
(-0.422212 0.0312107 0)
(-0.424133 0.0179197 0)
(-0.423508 0.00360149 0)
(-0.420274 -0.011579 0)
(-0.414362 -0.0274227 0)
(-0.405696 -0.0436868 0)
(-0.394191 -0.0600691 0)
(-0.379766 -0.0762018 0)
(-0.362354 -0.0916399 0)
(-0.341923 -0.105856 0)
(-0.318508 -0.118248 0)
(-0.292245 -0.128156 0)
(-0.263412 -0.134907 0)
(-0.232466 -0.137875 0)
(-0.200077 -0.136568 0)
(-0.167125 -0.130724 0)
(-0.134672 -0.12041 0)
(-0.103888 -0.106084 0)
(-0.0759295 -0.0886151 0)
(-0.0518019 -0.0692333 0)
(-0.032222 -0.0494262 0)
(-0.0175224 -0.030814 0)
(-0.00760472 -0.0150464 0)
(-0.00199564 -0.00377113 0)
(4.78651e-05 0.00135424 0)
(3.403e-05 -0.000910807 0)
(0.000342567 -0.00219926 0)
(0.000804655 -0.00302753 0)
(0.00132217 -0.00346714 0)
(0.00181834 -0.00358535 0)
(0.00224116 -0.00344439 0)
(0.00255018 -0.00309898 0)
(0.00271415 -0.00259522 0)
(0.00270811 -0.00196985 0)
(0.00251104 -0.00125027 0)
(0.00210396 -0.000455143 0)
(0.00146829 0.000404956 0)
(0.000584546 0.00132667 0)
(-0.000568924 0.0023131 0)
(-0.00201697 0.00337305 0)
(-0.00378862 0.0045204 0)
(-0.00591789 0.00577356 0)
(-0.0084446 0.00715493 0)
(-0.011415 0.00869043 0)
(-0.0148821 0.010409 0)
(-0.0189062 0.0123418 0)
(-0.0235548 0.0145219 0)
(-0.0289023 0.0169828 0)
(-0.035029 0.0197577 0)
(-0.0420203 0.0228773 0)
(-0.0499641 0.0263688 0)
(-0.0589485 0.0302527 0)
(-0.0690578 0.0345403 0)
(-0.0803682 0.0392306 0)
(-0.092942 0.0443071 0)
(-0.106821 0.0497335 0)
(-0.122022 0.0554512 0)
(-0.138524 0.0613762 0)
(-0.156271 0.0673975 0)
(-0.175157 0.0733769 0)
(-0.195032 0.0791513 0)
(-0.215693 0.0845364 0)
(-0.236897 0.0893335 0)
(-0.258358 0.0933375 0)
(-0.279766 0.0963477 0)
(-0.300793 0.0981769 0)
(-0.321112 0.0986618 0)
(-0.34041 0.0976706 0)
(-0.358399 0.095108 0)
(-0.374828 0.0909177 0)
(-0.389485 0.0850812 0)
(-0.402204 0.0776147 0)
(-0.412858 0.0685641 0)
(-0.421352 0.0579995 0)
(-0.427623 0.04601 0)
(-0.431617 0.0327004 0)
(-0.433291 0.0181914 0)
(-0.432595 0.00262836 0)
(-0.429476 -0.0138295 0)
(-0.423859 -0.0309893 0)
(-0.415656 -0.0486146 0)
(-0.404758 -0.0664076 0)
(-0.391046 -0.0839995 0)
(-0.374403 -0.100936 0)
(-0.354735 -0.116667 0)
(-0.332002 -0.130551 0)
(-0.306254 -0.141869 0)
(-0.277683 -0.149865 0)
(-0.246665 -0.153812 0)
(-0.213806 -0.153106 0)
(-0.179961 -0.147376 0)
(-0.146208 -0.136604 0)
(-0.113788 -0.121214 0)
(-0.0839756 -0.102108 0)
(-0.0579236 -0.0806231 0)
(-0.0365035 -0.0584179 0)
(-0.0201843 -0.0373209 0)
(-0.00897089 -0.0191953 0)
(-0.00246187 -0.00587284 0)
(2.57053e-05 0.000834086 0)
(3.28473e-05 -0.000998694 0)
(0.000319638 -0.00238805 0)
(0.000738058 -0.00326086 0)
(0.00119126 -0.00370349 0)
(0.00160394 -0.00379386 0)
(0.00192568 -0.00360204 0)
(0.00211785 -0.0031882 0)
(0.00215079 -0.00260229 0)
(0.00200083 -0.00188347 0)
(0.00164766 -0.00106051 0)
(0.00107235 -0.000152533 0)
(0.000255831 0.000830154 0)
(-0.000822539 0.00188511 0)
(-0.00218607 0.0030169 0)
(-0.00386176 0.00423627 0)
(-0.00588121 0.00555952 0)
(-0.00828137 0.00700783 0)
(-0.0111053 0.00860671 0)
(-0.0144026 0.0103855 0)
(-0.0182299 0.0123765 0)
(-0.022651 0.0146148 0)
(-0.0277368 0.0171366 0)
(-0.0335646 0.0199787 0)
(-0.0402172 0.0231768 0)
(-0.047781 0.0267633 0)
(-0.0563442 0.0307656 0)
(-0.0659927 0.0352028 0)
(-0.0768069 0.0400826 0)
(-0.0888555 0.0453979 0)
(-0.102191 0.0511226 0)
(-0.11684 0.0572078 0)
(-0.132801 0.0635787 0)
(-0.150033 0.0701319 0)
(-0.168454 0.0767342 0)
(-0.187931 0.0832238 0)
(-0.208287 0.0894132 0)
(-0.229294 0.0950953 0)
(-0.250686 0.100052 0)
(-0.272163 0.104063 0)
(-0.293407 0.106919 0)
(-0.314095 0.108432 0)
(-0.333913 0.108444 0)
(-0.352572 0.106836 0)
(-0.369817 0.103531 0)
(-0.385436 0.0984927 0)
(-0.399262 0.0917249 0)
(-0.411172 0.0832644 0)
(-0.421079 0.0731753 0)
(-0.42893 0.0615419 0)
(-0.434689 0.0484621 0)
(-0.438335 0.0340444 0)
(-0.439839 0.0184078 0)
(-0.439165 0.00169445 0)
(-0.436262 -0.0159465 0)
(-0.431051 -0.0343321 0)
(-0.423435 -0.0532372 0)
(-0.413283 -0.0723742 0)
(-0.400443 -0.0913796 0)
(-0.384751 -0.109796 0)
(-0.366053 -0.127059 0)
(-0.344233 -0.142493 0)
(-0.319253 -0.155322 0)
(-0.291207 -0.164711 0)
(-0.26038 -0.169825 0)
(-0.227298 -0.169933 0)
(-0.192767 -0.164536 0)
(-0.157869 -0.153507 0)
(-0.123905 -0.137207 0)
(-0.0922663 -0.116549 0)
(-0.0642667 -0.092966 0)
(-0.0409514 -0.0682902 0)
(-0.0229482 -0.0445711 0)
(-0.0103844 -0.023904 0)
(-0.00293991 -0.0083211 0)
(4.7477e-06 0.000196562 0)
(3.13038e-05 -0.00108009 0)
(0.000291113 -0.00255836 0)
(0.000656504 -0.00346445 0)
(0.00103319 -0.00389959 0)
(0.00134839 -0.00395255 0)
(0.001554 -0.00370132 0)
(0.00161379 -0.00321149 0)
(0.00150019 -0.00253669 0)
(0.00119112 -0.00171825 0)