/*--------------------------------*- C++ -*----------------------------------*\
  =========                 |
  \\      /  F ield         | OpenFOAM: The Open Source CFD Toolbox
   \\    /   O peration     | Website:  https://openfoam.org
    \\  /    A nd           | Version:  12
     \\/     M anipulation  |
\*---------------------------------------------------------------------------*/
FoamFile
{
    format      ascii;
    class       volScalarField;
    location    "1.5";
    object      nut;
}
// * * * * * * * * * * * * * * * * * * * * * * * * * * * * * * * * * * * * * //

dimensions      [0 2 -1 0 0 0 0];

internalField   nonuniform List<scalar> 
18225
(
3.02777e-14
9.15023e-13
1.94107e-12
3.16861e-12
4.55577e-12
6.07167e-12
7.69461e-12
9.40862e-12
1.12013e-11
1.30623e-11
1.49829e-11
1.69555e-11
1.89731e-11
2.10294e-11
2.31185e-11
2.52351e-11
2.73739e-11
2.95301e-11
3.16992e-11
3.38767e-11
3.60586e-11
3.82407e-11
4.04194e-11
4.25909e-11
4.47519e-11
4.6899e-11
4.90289e-11
5.11387e-11
5.32255e-11
5.52866e-11
5.73191e-11
5.93208e-11
6.12892e-11
6.3222e-11
6.51171e-11
6.69724e-11
6.87861e-11
7.05563e-11
7.22812e-11
7.39594e-11
7.55892e-11
7.71692e-11
7.86981e-11
8.01746e-11
8.15976e-11
8.29659e-11
8.42786e-11
8.55346e-11
8.67331e-11
8.78734e-11
8.89545e-11
8.9976e-11
9.0937e-11
9.18371e-11
9.26757e-11
9.34524e-11
9.41666e-11
9.48181e-11
9.54066e-11
9.59316e-11
9.6393e-11
9.67906e-11
9.71241e-11
9.73935e-11
9.75987e-11
9.77396e-11
9.78161e-11
9.78284e-11
9.77764e-11
9.76602e-11
9.74799e-11
9.72356e-11
9.69276e-11
9.6556e-11
9.6121e-11
9.56231e-11
9.50624e-11
9.44393e-11
9.37543e-11
9.30078e-11
9.22002e-11
9.1332e-11
9.04039e-11
8.94164e-11
8.83702e-11
8.7266e-11
8.61045e-11
8.48865e-11
8.3613e-11
8.22849e-11
8.09031e-11
7.94687e-11
7.79828e-11
7.64467e-11
7.48615e-11
7.32287e-11
7.15497e-11
6.98259e-11
6.8059e-11
6.62507e-11
6.44027e-11
6.25169e-11
6.05954e-11
5.86401e-11
5.66533e-11
5.46372e-11
5.25943e-11
5.05271e-11
4.84383e-11
4.63306e-11
4.4207e-11
4.20705e-11
3.99242e-11
3.77716e-11
3.56161e-11
3.34613e-11
3.13111e-11
2.91695e-11
2.70408e-11
2.49293e-11
2.28398e-11
2.07772e-11
1.8747e-11
1.67547e-11
1.48067e-11
1.29096e-11
1.10712e-11
9.30006e-12
7.60632e-12
6.00233e-12
4.50394e-12
3.13265e-12
1.91906e-12
9.04645e-13
2.99336e-14
2.04831e-13
2.98649e-11
1.59757e-10
3.74348e-10
6.3075e-10
9.08964e-10
1.20211e-09
1.50754e-09
1.82378e-09
2.14972e-09
2.48434e-09
2.82668e-09
3.17581e-09
3.53085e-09
3.89092e-09
4.25521e-09
4.62292e-09
4.99328e-09
5.36555e-09
5.73904e-09
6.11306e-09
6.48695e-09
6.86009e-09
7.23187e-09
7.60172e-09
7.96907e-09
8.33341e-09
8.69421e-09
9.051e-09
9.40331e-09
9.75069e-09
1.00927e-08
1.0429e-08
1.07592e-08
1.10829e-08
1.13997e-08
1.17094e-08
1.20116e-08
1.2306e-08
1.25925e-08
1.28706e-08
1.31402e-08
1.34011e-08
1.3653e-08
1.38958e-08
1.41292e-08
1.43531e-08
1.45673e-08
1.47716e-08
1.49661e-08
1.51504e-08
1.53245e-08
1.54883e-08
1.56417e-08
1.57847e-08
1.5917e-08
1.60387e-08
1.61497e-08
1.62499e-08
1.63393e-08
1.64179e-08
1.64856e-08
1.65423e-08
1.65881e-08
1.6623e-08
1.66469e-08
1.66598e-08
1.66618e-08
1.66528e-08
1.66328e-08
1.66019e-08
1.65601e-08
1.65074e-08
1.64439e-08
1.63696e-08
1.62846e-08
1.61888e-08
1.60825e-08
1.59656e-08
1.58382e-08
1.57003e-08
1.55522e-08
1.53938e-08
1.52253e-08
1.50468e-08
1.48585e-08
1.46603e-08
1.44525e-08
1.42353e-08
1.40087e-08
1.37729e-08
1.35282e-08
1.32747e-08
1.30126e-08
1.27421e-08
1.24635e-08
1.2177e-08
1.18828e-08
1.15813e-08
1.12726e-08
1.09572e-08
1.06352e-08
1.03071e-08
9.97326e-09
9.63395e-09
9.28959e-09
8.94058e-09
8.58737e-09
8.23038e-09
7.87008e-09
7.50695e-09
7.14152e-09
6.7743e-09
6.40584e-09
6.03673e-09
5.66757e-09
5.29898e-09
4.93161e-09
4.56614e-09
4.2033e-09
3.8438e-09
3.48843e-09
3.13799e-09
2.79332e-09
2.45528e-09
2.12481e-09
1.80283e-09
1.49036e-09
1.18851e-09
8.98739e-10
6.23676e-10
3.70148e-10
1.57958e-10
2.95272e-11
2.02517e-13
4.55927e-13
7.49121e-11
5.12997e-10
1.53869e-09
3.12026e-09
5.09911e-09
7.33112e-09
9.72402e-09
1.22257e-08
1.4807e-08
1.7451e-08
2.01465e-08
2.28853e-08
2.56607e-08
2.84668e-08
3.12979e-08
3.41488e-08
3.70144e-08
3.98898e-08
4.277e-08
4.56504e-08
4.85264e-08
5.13936e-08
5.42477e-08
5.70846e-08
5.99003e-08
6.26909e-08
6.54527e-08
6.81823e-08
7.08761e-08
7.35311e-08
7.61439e-08
7.87118e-08
8.12319e-08
8.37015e-08
8.61181e-08
8.84793e-08
9.07829e-08
9.30267e-08
9.52086e-08
9.73268e-08
9.93796e-08
1.01365e-07
1.03282e-07
1.05129e-07
1.06904e-07
1.08606e-07
1.10235e-07
1.11788e-07
1.13265e-07
1.14665e-07
1.15988e-07
1.17232e-07
1.18396e-07
1.19481e-07
1.20484e-07
1.21407e-07
1.22249e-07
1.23008e-07
1.23685e-07
1.2428e-07
1.24792e-07
1.25221e-07
1.25567e-07
1.25829e-07
1.26008e-07
1.26104e-07
1.26117e-07
1.26046e-07
1.25893e-07
1.25656e-07
1.25336e-07
1.24934e-07
1.2445e-07
1.23883e-07
1.23235e-07
1.22506e-07
1.21697e-07
1.20807e-07
1.19837e-07
1.18789e-07
1.17661e-07
1.16457e-07
1.15175e-07
1.13817e-07
1.12384e-07
1.10877e-07
1.09297e-07
1.07644e-07
1.05921e-07
1.04127e-07
1.02265e-07
1.00337e-07
9.83421e-08
9.62838e-08
9.41631e-08
9.19819e-08
8.97421e-08
8.74455e-08
8.50944e-08
8.26909e-08
8.02373e-08
7.77361e-08
7.51897e-08
7.2601e-08
6.99727e-08
6.73077e-08
6.46092e-08
6.18803e-08
5.91244e-08
5.6345e-08
5.35456e-08
5.07302e-08
4.79025e-08
4.50667e-08
4.22268e-08
3.93873e-08
3.65526e-08
3.37272e-08
3.0916e-08
2.81238e-08
2.53556e-08
2.2617e-08
1.99136e-08
1.72521e-08
1.46405e-08
1.20898e-08
9.61709e-09
7.2511e-09
5.04364e-09
3.08627e-09
1.52184e-09
5.07332e-10
7.40804e-11
4.50871e-13
7.55107e-13
1.27199e-10
9.30828e-10
3.07414e-09
6.90991e-09
1.23919e-08
1.92332e-08
2.70933e-08
3.56813e-08
4.4782e-08
5.42468e-08
6.3975e-08
7.38981e-08
8.39671e-08
9.4146e-08
1.04406e-07
1.14724e-07
1.2508e-07
1.35454e-07
1.4583e-07
1.56191e-07
1.66521e-07
1.76807e-07
1.87033e-07
1.97186e-07
2.07253e-07
2.1722e-07
2.27076e-07
2.36808e-07
2.46405e-07
2.55857e-07
2.65152e-07
2.74282e-07
2.83236e-07
2.92006e-07
3.00582e-07
3.08958e-07
3.17125e-07
3.25076e-07
3.32805e-07
3.40304e-07
3.47569e-07
3.54592e-07
3.6137e-07
3.67898e-07
3.74169e-07
3.80182e-07
3.85931e-07
3.91413e-07
3.96624e-07
4.01562e-07
4.06223e-07
4.10606e-07
4.14708e-07
4.18526e-07
4.22059e-07
4.25305e-07
4.28263e-07
4.30932e-07
4.33309e-07
4.35395e-07
4.37189e-07
4.3869e-07
4.39897e-07
4.40811e-07
4.41431e-07
4.41757e-07
4.4179e-07
4.41529e-07
4.40976e-07
4.40129e-07
4.38992e-07
4.37563e-07
4.35845e-07
4.33838e-07
4.31543e-07
4.28963e-07
4.26099e-07
4.22951e-07
4.19523e-07
4.15817e-07
4.11834e-07
4.07577e-07
4.03049e-07
3.98252e-07
3.9319e-07
3.87865e-07
3.82281e-07
3.76442e-07
3.70352e-07
3.64015e-07
3.57435e-07
3.50617e-07
3.43566e-07
3.36287e-07
3.28786e-07
3.21069e-07
3.13143e-07
3.05012e-07
2.96686e-07
2.8817e-07
2.79473e-07
2.70603e-07
2.61567e-07
2.52376e-07
2.43039e-07
2.33564e-07
2.23962e-07
2.14245e-07
2.04421e-07
1.94504e-07
1.84505e-07
1.74437e-07
1.64311e-07
1.54141e-07
1.43941e-07
1.33726e-07
1.23511e-07
1.13311e-07
1.03145e-07
9.30314e-08
8.29938e-08
7.30595e-08
6.32642e-08
5.36558e-08
4.43026e-08
3.53049e-08
2.68105e-08
1.90334e-08
1.2263e-08
6.8375e-09
3.04155e-09
9.20849e-10
1.25826e-10
7.46963e-13
1.08921e-12
1.8505e-10
1.38723e-09
4.76727e-09
1.12666e-08
2.13192e-08
3.4844e-08
5.14185e-08
7.04821e-08
9.1482e-08
1.13944e-07
1.37491e-07
1.61834e-07
1.86757e-07
2.12097e-07
2.37731e-07
2.6356e-07
2.89507e-07
3.15507e-07
3.41504e-07
3.6745e-07
3.93303e-07
4.1902e-07
4.44566e-07
4.69906e-07
4.95006e-07
5.19836e-07
5.44366e-07
5.68567e-07
5.92413e-07
6.15878e-07
6.38937e-07
6.61568e-07
6.83747e-07
7.05455e-07
7.26672e-07
7.47377e-07
7.67555e-07
7.87187e-07
8.06259e-07
8.24755e-07
8.42662e-07
8.59967e-07
8.76658e-07
8.92723e-07
9.08152e-07
9.22936e-07
9.37066e-07
9.50532e-07
9.63328e-07
9.75448e-07
9.86883e-07
9.9763e-07
1.00768e-06
1.01704e-06
1.02569e-06
1.03363e-06
1.04086e-06
1.04738e-06
1.05319e-06
1.05828e-06
1.06265e-06
1.0663e-06
1.06923e-06
1.07144e-06
1.07293e-06
1.0737e-06
1.07375e-06
1.07308e-06
1.07169e-06
1.06958e-06
1.06676e-06
1.06323e-06
1.05899e-06
1.05404e-06
1.04839e-06
1.04203e-06
1.03498e-06
1.02724e-06
1.0188e-06
1.00969e-06
9.99895e-07
9.89429e-07
9.78297e-07
9.66505e-07
9.5406e-07
9.40969e-07
9.27241e-07
9.12884e-07
8.97907e-07
8.8232e-07
8.66133e-07
8.49356e-07
8.32001e-07
8.1408e-07
7.95607e-07
7.76594e-07
7.57055e-07
7.37007e-07
7.16465e-07
6.95444e-07
6.73964e-07
6.52043e-07
6.29699e-07
6.06953e-07
5.83827e-07
5.60342e-07
5.36523e-07
5.12392e-07
4.87976e-07
4.63302e-07
4.38397e-07
4.13292e-07
3.88018e-07
3.62608e-07
3.371e-07
3.11534e-07
2.85954e-07
2.60414e-07
2.34974e-07
2.0971e-07
1.84716e-07
1.60116e-07
1.3607e-07
1.12795e-07
9.0578e-08
6.97953e-08
5.09207e-08
3.45061e-08
2.11104e-08
1.11545e-08
4.71896e-09
1.37295e-09
1.83128e-10
1.07789e-12
1.44997e-12
2.47281e-10
1.8741e-09
6.5634e-09
1.5916e-08
3.10402e-08
5.23824e-08
7.97797e-08
1.12646e-07
1.50181e-07
1.9154e-07
2.35934e-07
2.82679e-07
3.31211e-07
3.8107e-07
4.31891e-07
4.83382e-07
5.35308e-07
5.87478e-07
6.39734e-07
6.91943e-07
7.43991e-07
7.95777e-07
8.47213e-07
8.98219e-07
9.4872e-07
9.98651e-07
1.04795e-06
1.09656e-06
1.14442e-06
1.19148e-06
1.2377e-06
1.28303e-06
1.32742e-06
1.37084e-06
1.41325e-06
1.45461e-06
1.4949e-06
1.53407e-06
1.57209e-06
1.60895e-06
1.64462e-06
1.67906e-06
1.71227e-06
1.74421e-06
1.77488e-06
1.80424e-06
1.8323e-06
1.85902e-06
1.8844e-06
1.90843e-06
1.93108e-06
1.95237e-06
1.97227e-06
1.99077e-06
2.00788e-06
2.02358e-06
2.03787e-06
2.05074e-06
2.06219e-06
2.07222e-06
2.08082e-06
2.088e-06
2.09375e-06
2.09807e-06
2.10096e-06
2.10243e-06
2.10247e-06
2.10109e-06
2.09829e-06
2.09408e-06
2.08844e-06
2.0814e-06
2.07296e-06
2.06311e-06
2.05188e-06
2.03925e-06
2.02525e-06
2.00988e-06
1.99314e-06
1.97506e-06
1.95562e-06
1.93486e-06
1.91277e-06
1.88937e-06
1.86468e-06
1.8387e-06
1.81145e-06
1.78295e-06
1.75322e-06
1.72226e-06
1.6901e-06
1.65677e-06
1.62227e-06
1.58664e-06
1.54989e-06
1.51205e-06
1.47315e-06
1.43321e-06
1.39227e-06
1.35035e-06
1.30749e-06
1.26371e-06
1.21907e-06
1.17359e-06
1.12731e-06
1.08029e-06
1.03255e-06
9.8416e-07
9.35159e-07
8.85606e-07
8.35559e-07
7.85084e-07
7.34252e-07
6.83145e-07
6.31854e-07
5.80485e-07
5.29164e-07
4.78042e-07
4.27303e-07
3.77179e-07
3.27958e-07
2.80003e-07
2.33771e-07
1.89829e-07
1.48863e-07
1.11665e-07
7.90824e-08
5.19182e-08
3.0759e-08
1.57678e-08
6.5006e-09
1.85577e-09
2.44831e-10
1.43558e-12
1.83135e-12
3.12946e-10
2.3854e-09
8.43914e-09
2.07598e-08
4.12086e-08
7.09354e-08
1.10306e-07
1.59004e-07
2.16228e-07
2.80907e-07
3.51876e-07
4.27998e-07
5.08241e-07
5.91699e-07
6.77605e-07
7.65314e-07
8.54293e-07
9.44097e-07
1.03436e-06
1.12476e-06
1.21506e-06
1.30501e-06
1.39443e-06
1.48315e-06
1.57101e-06
1.65788e-06
1.74365e-06
1.82819e-06
1.9114e-06
1.9932e-06
2.07349e-06
2.15219e-06
2.22923e-06
2.30455e-06
2.37806e-06
2.44973e-06
2.51948e-06
2.58726e-06
2.65304e-06
2.71676e-06
2.77838e-06
2.83786e-06
2.89517e-06
2.95028e-06
3.00315e-06
3.05376e-06
3.10208e-06
3.14809e-06
3.19177e-06
3.2331e-06
3.27206e-06
3.30864e-06
3.34282e-06
3.3746e-06
3.40395e-06
3.43089e-06
3.45538e-06
3.47744e-06
3.49705e-06
3.51422e-06
3.52893e-06
3.54119e-06
3.551e-06
3.55835e-06
3.56325e-06
3.56571e-06
3.56572e-06
3.5633e-06
3.55843e-06
3.55113e-06
3.54141e-06
3.52927e-06
3.51472e-06
3.49777e-06
3.47844e-06
3.45672e-06
3.43264e-06
3.40621e-06
3.37743e-06
3.34633e-06
3.31292e-06
3.27721e-06
3.23923e-06
3.19899e-06
3.15652e-06
3.11183e-06
3.06495e-06
3.0159e-06
2.96471e-06
2.9114e-06
2.85601e-06
2.79857e-06
2.73911e-06
2.67766e-06
2.61426e-06
2.54895e-06
2.48178e-06
2.41278e-06
2.342e-06
2.2695e-06
2.19532e-06
2.11953e-06
2.04218e-06
1.96334e-06
1.88307e-06
1.80146e-06
1.71858e-06
1.63452e-06
1.54937e-06
1.46326e-06
1.37628e-06
1.28858e-06
1.20031e-06
1.11165e-06
1.02282e-06
9.34045e-07
8.45637e-07
7.57949e-07
6.71415e-07
5.86562e-07
5.04033e-07
4.24599e-07
3.49172e-07
2.78795e-07
2.14616e-07
1.57811e-07
1.09461e-07
7.03748e-08
4.08696e-08
2.05816e-08
8.36385e-09
2.36347e-09
3.10018e-10
1.81417e-12
2.22854e-12
3.81259e-10
2.91581e-09
1.03771e-08
2.57468e-08
5.16669e-08
9.00703e-08
1.42005e-07
2.07642e-07
2.86423e-07
3.77262e-07
4.7877e-07
5.89429e-07
7.07733e-07
8.32266e-07
9.61753e-07
1.09507e-06
1.23125e-06
1.36946e-06
1.50899e-06
1.64925e-06
1.78971e-06
1.92995e-06
2.06958e-06
2.20827e-06
2.34575e-06
2.48176e-06
2.61607e-06
2.74849e-06
2.87883e-06
3.00694e-06
3.13267e-06
3.25589e-06
3.37647e-06
3.49429e-06
3.60927e-06
3.7213e-06
3.83029e-06
3.93617e-06
4.03887e-06
4.13831e-06
4.23443e-06
4.32717e-06
4.41649e-06
4.50233e-06
4.58466e-06
4.66343e-06
4.7386e-06
4.81016e-06
4.87805e-06
4.94227e-06
5.00279e-06
5.05959e-06
5.11265e-06
5.16195e-06
5.20749e-06
5.24924e-06
5.28721e-06
5.32139e-06
5.35177e-06
5.37834e-06
5.40111e-06
5.42008e-06
5.43524e-06
5.44659e-06
5.45415e-06
5.45792e-06
5.45789e-06
5.4541e-06
5.44653e-06
5.43518e-06
5.42009e-06
5.40125e-06
5.37868e-06
5.3524e-06
5.32241e-06
5.28874e-06
5.2514e-06
5.21041e-06
5.16579e-06
5.11756e-06
5.06573e-06
5.01035e-06
4.95143e-06
4.88899e-06
4.82307e-06
4.75369e-06
4.6809e-06
4.60472e-06
4.52518e-06
4.44234e-06
4.35622e-06
4.26688e-06
4.17436e-06
4.0787e-06
3.97998e-06
3.87823e-06
3.77352e-06
3.66592e-06
3.5555e-06
3.44233e-06
3.32649e-06
3.20807e-06
3.08716e-06
2.96388e-06
2.83833e-06
2.71063e-06
2.58092e-06
2.44937e-06
2.31613e-06
2.18142e-06
2.04544e-06
1.90847e-06
1.77079e-06
1.63275e-06
1.49478e-06
1.35736e-06
1.22107e-06
1.08661e-06
9.54804e-07
8.26623e-07
7.03195e-07
5.85815e-07
4.75916e-07
3.75035e-07
2.84712e-07
2.06363e-07
1.41087e-07
8.94527e-08
5.12892e-08
2.55464e-08
1.02919e-08
2.89088e-09
3.77923e-10
2.20895e-12
2.63748e-12
4.51548e-10
3.46058e-09
1.23619e-08
3.08386e-08
6.23212e-08
1.09555e-07
1.74345e-07
2.5748e-07
3.58814e-07
4.77442e-07
6.1192e-07
7.60484e-07
9.2123e-07
1.09225e-06
1.27175e-06
1.45804e-06
1.64963e-06
1.8452e-06
2.0436e-06
2.24382e-06
2.44499e-06
2.64636e-06
2.84728e-06
3.0472e-06
3.24562e-06
3.4421e-06
3.63628e-06
3.82783e-06
4.01644e-06
4.20185e-06
4.38382e-06
4.56216e-06
4.73665e-06
4.90714e-06
5.07347e-06
5.23548e-06
5.39306e-06
5.5461e-06
5.69447e-06
5.83809e-06
5.97687e-06
6.11072e-06
6.23959e-06
6.3634e-06
6.4821e-06
6.59562e-06
6.70394e-06
6.807e-06
6.90476e-06
6.99721e-06
7.08429e-06
7.166e-06
7.24232e-06
7.31321e-06
7.37868e-06
7.4387e-06
7.49326e-06
7.54237e-06
7.58602e-06
7.62419e-06
7.6569e-06
7.68415e-06
7.70593e-06
7.72225e-06
7.73313e-06
7.73856e-06
7.73855e-06
7.73315e-06
7.72231e-06
7.70607e-06
7.68445e-06
7.65746e-06
7.62513e-06
7.58746e-06
7.54448e-06
7.49621e-06
7.44267e-06
7.38389e-06
7.31988e-06
7.25069e-06
7.17633e-06
7.09685e-06
7.01226e-06
6.9226e-06
6.82792e-06
6.72825e-06
6.62363e-06
6.51411e-06
6.39973e-06
6.28054e-06
6.15661e-06
6.02798e-06
5.89472e-06
5.7569e-06
5.61458e-06
5.46785e-06
5.31679e-06
5.16149e-06
5.00205e-06
4.83858e-06
4.67121e-06
4.50004e-06
4.32524e-06
4.14695e-06
3.96536e-06
3.78066e-06
3.59308e-06
3.40287e-06
3.21032e-06
3.01576e-06
2.81958e-06
2.62223e-06
2.42423e-06
2.22619e-06
2.02885e-06
1.83302e-06
1.63971e-06
1.45006e-06
1.2654e-06
1.08723e-06
9.17269e-07
7.57351e-07
6.0943e-07
4.75458e-07
3.57244e-07
2.56263e-07
1.73439e-07
1.08926e-07
6.19263e-08
3.06251e-08
1.22699e-08
3.4334e-09
4.47894e-10
2.616e-12
3.05469e-12
5.23227e-10
4.01543e-09
1.43794e-08
3.60016e-08
7.30998e-08
1.29238e-07
2.07007e-07
3.07878e-07
4.32225e-07
5.79455e-07
7.48216e-07
9.36633e-07
1.14251e-06
1.36353e-06
1.59737e-06
1.84181e-06
2.09478e-06
2.35442e-06
2.61904e-06
2.88714e-06
3.15743e-06
3.42874e-06
3.70008e-06
3.97057e-06
4.23945e-06
4.50605e-06
4.76977e-06
5.03011e-06
5.2866e-06
5.53885e-06
5.7865e-06
6.02923e-06
6.26675e-06
6.49882e-06
6.7252e-06
6.94569e-06
7.16011e-06
7.3683e-06
7.57011e-06
7.76541e-06
7.95408e-06
8.13601e-06
8.31111e-06
8.47929e-06
8.64049e-06
8.79462e-06
8.94164e-06
9.0815e-06
9.21414e-06
9.33953e-06
9.45764e-06
9.56843e-06
9.67189e-06
9.76799e-06
9.85671e-06
9.93806e-06
1.0012e-05
1.00786e-05
1.01377e-05
1.01895e-05
1.02338e-05
1.02708e-05
1.03004e-05
1.03226e-05
1.03374e-05
1.03449e-05
1.0345e-05
1.03379e-05
1.03234e-05
1.03016e-05
1.02725e-05
1.02362e-05
1.01926e-05
1.01419e-05
1.00839e-05
1.00189e-05
9.94663e-06
9.86731e-06
9.78091e-06
9.68749e-06
9.58706e-06
9.47967e-06
9.36535e-06
9.24415e-06
9.11611e-06
8.98128e-06
8.83971e-06
8.69145e-06
8.53656e-06
8.3751e-06
8.20715e-06
8.03276e-06
7.85203e-06
7.66503e-06
7.47187e-06
7.27263e-06
7.06744e-06
6.85641e-06
6.63968e-06
6.41739e-06
6.18972e-06
5.95686e-06
5.719e-06
5.47639e-06
5.22929e-06
4.97801e-06
4.72288e-06
4.46431e-06
4.20275e-06
3.93872e-06
3.67284e-06
3.40582e-06
3.13847e-06
2.87177e-06
2.60681e-06
2.34491e-06
2.08753e-06
1.83636e-06
1.59332e-06
1.3605e-06
1.14019e-06
9.34782e-07
7.46666e-07
5.7811e-07
4.31052e-07
3.06881e-07
2.06204e-07
1.28646e-07
7.27112e-08
3.57848e-08
1.42839e-08
3.98686e-09
5.19357e-10
3.03191e-12
3.4771e-12
5.95774e-10
4.57651e-09
1.64166e-08
4.1205e-08
8.39411e-08
1.49002e-07
2.39767e-07
3.5842e-07
5.05907e-07
6.82029e-07
8.85632e-07
1.11483e-06
1.36726e-06
1.64024e-06
1.931e-06
2.23682e-06
2.55505e-06
2.88325e-06
3.21916e-06
3.56077e-06
3.90625e-06
4.25399e-06
4.60258e-06
4.95075e-06
5.29741e-06
5.64158e-06
5.98242e-06
6.31919e-06
6.65121e-06
6.97792e-06
7.2988e-06
7.6134e-06
7.92132e-06
8.22219e-06
8.51571e-06
8.8016e-06
9.0796e-06
9.3495e-06
9.61109e-06
9.86421e-06
1.01087e-05
1.03444e-05
1.05712e-05
1.07891e-05
1.09978e-05
1.11974e-05
1.13877e-05
1.15687e-05
1.17403e-05
1.19026e-05
1.20554e-05
1.21987e-05
1.23325e-05
1.24569e-05
1.25716e-05
1.26769e-05
1.27725e-05
1.28587e-05
1.29352e-05
1.30023e-05
1.30597e-05
1.31077e-05
1.31461e-05
1.3175e-05
1.31944e-05
1.32043e-05
1.32048e-05
1.31959e-05
1.31775e-05
1.31497e-05
1.31126e-05
1.30661e-05
1.30102e-05
1.29451e-05
1.28707e-05
1.27871e-05
1.26943e-05
1.25923e-05
1.24811e-05
1.23609e-05
1.22316e-05
1.20933e-05
1.1946e-05
1.17898e-05
1.16247e-05
1.14508e-05
1.12682e-05
1.10768e-05
1.08768e-05
1.06683e-05
1.04512e-05
1.02258e-05
9.99211e-06
9.75021e-06
9.50024e-06
9.24233e-06
8.97663e-06
8.70328e-06
8.42247e-06
8.13441e-06
7.83931e-06
7.53744e-06
7.22909e-06
6.91458e-06
6.59431e-06
6.2687e-06
5.93826e-06
5.60357e-06
5.26529e-06
4.92419e-06
4.58117e-06
4.23727e-06
3.89368e-06
3.55178e-06
3.21316e-06
2.87962e-06
2.55321e-06
2.2362e-06
1.93113e-06
1.64068e-06
1.36772e-06
1.11511e-06
8.85619e-07
6.81732e-07
5.05396e-07
3.57806e-07
2.39163e-07
1.48497e-07
8.35836e-08
4.09955e-08
1.63214e-08
4.54749e-09
5.91805e-10
3.45368e-12
3.90198e-12
6.68728e-10
5.14037e-09
1.84615e-08
4.64204e-08
9.47892e-08
1.68745e-07
2.72451e-07
4.08803e-07
5.79341e-07
7.8431e-07
1.02281e-06
1.29304e-06
1.5925e-06
1.91827e-06
2.2672e-06
2.63605e-06
3.02168e-06
3.42104e-06
3.83132e-06
4.24994e-06
4.67452e-06
5.10297e-06
5.53338e-06
5.96409e-06
6.3936e-06
6.82061e-06
7.24395e-06
7.66262e-06
8.07571e-06
8.48243e-06
8.88209e-06
9.27407e-06
9.65784e-06
1.00329e-05
1.03989e-05
1.07553e-05
1.1102e-05
1.14385e-05
1.17646e-05
1.20802e-05
1.2385e-05
1.26788e-05
1.29616e-05
1.3233e-05
1.34931e-05
1.37418e-05
1.39789e-05
1.42044e-05
1.44182e-05
1.46203e-05
1.48107e-05
1.49892e-05
1.51559e-05
1.53107e-05
1.54537e-05
1.55848e-05
1.57041e-05
1.58114e-05
1.59069e-05
1.59906e-05
1.60624e-05
1.61223e-05
1.61705e-05
1.62068e-05
1.62314e-05
1.62442e-05
1.62452e-05
1.62346e-05
1.62123e-05
1.61783e-05
1.61327e-05
1.60754e-05
1.60066e-05
1.59263e-05
1.58344e-05
1.57311e-05
1.56163e-05
1.54901e-05
1.53526e-05
1.52037e-05
1.50436e-05
1.48722e-05
1.46896e-05
1.44959e-05
1.42911e-05
1.40753e-05
1.38485e-05
1.36108e-05
1.33623e-05
1.31031e-05
1.28333e-05
1.25529e-05
1.22621e-05
1.1961e-05
1.16498e-05
1.13285e-05
1.09975e-05
1.06569e-05
1.03068e-05
9.94772e-06
9.57978e-06
9.20338e-06
8.8189e-06
8.42679e-06
8.02759e-06
7.62187e-06
7.21033e-06
6.79378e-06
6.37313e-06
5.94945e-06
5.52396e-06
5.09808e-06
4.67344e-06
4.25188e-06
3.83553e-06
3.42673e-06
3.02814e-06
2.64266e-06
2.27342e-06
1.9237e-06
1.59688e-06
1.29627e-06
1.02494e-06
7.85468e-07
5.79759e-07
4.08736e-07
2.72141e-07
1.68381e-07
9.44884e-08
4.62293e-08
1.83706e-08
5.11192e-09
6.64785e-10
3.87864e-12
4.32691e-12
7.41676e-10
5.7039e-09
2.05034e-08
5.1622e-08
1.05593e-07
1.8838e-07
3.04911e-07
4.58785e-07
6.52143e-07
8.85684e-07
1.15881e-06
1.46982e-06
1.81618e-06
2.19477e-06
2.6021e-06
3.0345e-06
3.4883e-06
3.95994e-06
4.44602e-06
4.9434e-06
5.44915e-06
5.96064e-06
6.4755e-06
6.99158e-06
7.50699e-06
8.02004e-06
8.52923e-06
9.03326e-06
9.53094e-06
1.00213e-05
1.05033e-05
1.09763e-05
1.14395e-05
1.18924e-05
1.23343e-05
1.27648e-05
1.31835e-05
1.359e-05
1.3984e-05
1.43652e-05
1.47333e-05
1.50882e-05
1.54297e-05
1.57576e-05
1.60717e-05
1.6372e-05
1.66583e-05
1.69306e-05
1.71888e-05
1.74329e-05
1.76627e-05
1.78783e-05
1.80796e-05
1.82666e-05
1.84394e-05
1.85978e-05
1.8742e-05
1.88718e-05
1.89873e-05
1.90886e-05
1.91756e-05
1.92484e-05
1.9307e-05
1.93513e-05
1.93815e-05
1.93976e-05
1.93995e-05
1.93874e-05
1.93612e-05
1.9321e-05
1.92668e-05
1.91986e-05
1.91165e-05
1.90205e-05
1.89106e-05
1.87869e-05
1.86494e-05
1.84982e-05
1.83332e-05
1.81546e-05
1.79624e-05
1.77566e-05
1.75372e-05
1.73044e-05
1.70581e-05
1.67985e-05
1.65256e-05
1.62395e-05
1.59403e-05
1.56281e-05
1.53029e-05
1.49649e-05
1.46142e-05
1.4251e-05
1.38755e-05
1.34878e-05
1.30881e-05
1.26768e-05
1.2254e-05
1.18202e-05
1.13758e-05
1.0921e-05
1.04566e-05
9.983e-06
9.50094e-06
9.01121e-06
8.51471e-06
8.01249e-06
7.50575e-06
6.99589e-06
6.48452e-06
5.97346e-06
5.46481e-06
4.96092e-06
4.46446e-06
3.9784e-06
3.50597e-06
3.05069e-06
2.61631e-06
2.20666e-06
1.82561e-06
1.47685e-06
1.16365e-06
8.88699e-07
6.53753e-07
4.59432e-07
3.04992e-07
1.88208e-07
1.05376e-07
5.14609e-08
2.04209e-08
5.67709e-09
7.37891e-10
4.30443e-12
4.74975e-12
8.14252e-10
6.26433e-09
2.25327e-08
5.67863e-08
1.16307e-07
2.07825e-07
3.37017e-07
5.08168e-07
7.24005e-07
9.85688e-07
1.29292e-06
1.64416e-06
2.03686e-06
2.46772e-06
2.93298e-06
3.42856e-06
3.95035e-06
4.49424e-06
5.05629e-06
5.6328e-06
6.22031e-06
6.81565e-06
7.41593e-06
8.01855e-06
8.62119e-06
9.22175e-06
9.8184e-06
1.04095e-05
1.09936e-05
1.15693e-05
1.21357e-05
1.26916e-05
1.32362e-05
1.37688e-05
1.42887e-05
1.47952e-05
1.52878e-05
1.57662e-05
1.62298e-05
1.66785e-05
1.71118e-05
1.75295e-05
1.79313e-05
1.83172e-05
1.86869e-05
1.90404e-05
1.93774e-05
1.96978e-05
2.00017e-05
2.0289e-05
2.05595e-05
2.08133e-05
2.10504e-05
2.12706e-05
2.14741e-05
2.16608e-05
2.18307e-05
2.19838e-05
2.21201e-05
2.22397e-05
2.23426e-05
2.24288e-05
2.24983e-05
2.25512e-05
2.25874e-05
2.26071e-05
2.26102e-05
2.25969e-05
2.25671e-05
2.25208e-05
2.2458e-05
2.23789e-05
2.22835e-05
2.21717e-05
2.20436e-05
2.18994e-05
2.17389e-05
2.15622e-05
2.13694e-05
2.11606e-05
2.09357e-05
2.06948e-05
2.04379e-05
2.01652e-05
1.98766e-05
1.95723e-05
1.92522e-05
1.89166e-05
1.85654e-05
1.81988e-05
1.78169e-05
1.74198e-05
1.70077e-05
1.65808e-05
1.61392e-05
1.56832e-05
1.5213e-05
1.4729e-05
1.42315e-05
1.37209e-05
1.31977e-05
1.26625e-05
1.21158e-05
1.15585e-05
1.09914e-05
1.04154e-05
9.83171e-06
9.24169e-06
8.64683e-06
8.04888e-06
7.44984e-06
6.85198e-06
6.25788e-06
5.67045e-06
5.0929e-06
4.52879e-06
3.98199e-06
3.45662e-06
2.957e-06
2.48749e-06
2.05241e-06
1.65578e-06
1.30106e-06
9.90949e-07
7.27065e-07
5.09689e-07
3.37586e-07
2.079e-07
1.16199e-07
5.66668e-08
2.24629e-08
6.24025e-09
8.10762e-10
4.7289e-12
5.16859e-12
8.86132e-10
6.81919e-09
2.45406e-08
6.18921e-08
1.26889e-07
2.2701e-07
3.68656e-07
5.56777e-07
7.94673e-07
1.08395e-06
1.42463e-06
1.81531e-06
2.25347e-06
2.73567e-06
3.25789e-06
3.81571e-06
4.40455e-06
5.01983e-06
5.6571e-06
6.31209e-06
6.98082e-06
7.65959e-06
8.34501e-06
9.03402e-06
9.72385e-06
1.0412e-05
1.10963e-05
1.17747e-05
1.24455e-05
1.31071e-05
1.37583e-05
1.43977e-05
1.50243e-05
1.56372e-05
1.62356e-05
1.68187e-05
1.7386e-05
1.79369e-05
1.84709e-05
1.89876e-05
1.94867e-05
1.99678e-05
2.04307e-05
2.08753e-05
2.13012e-05
2.17083e-05
2.20966e-05
2.24658e-05
2.2816e-05
2.3147e-05
2.34588e-05
2.37513e-05
2.40245e-05
2.42785e-05
2.45132e-05
2.47286e-05
2.49247e-05
2.51015e-05
2.5259e-05
2.53974e-05
2.55165e-05
2.56165e-05
2.56973e-05
2.57591e-05
2.58017e-05
2.58253e-05
2.583e-05
2.58157e-05
2.57825e-05
2.57303e-05
2.56593e-05
2.55695e-05
2.54609e-05
2.53336e-05
2.51875e-05
2.50228e-05
2.48394e-05
2.46374e-05
2.44168e-05
2.41778e-05
2.39202e-05
2.36442e-05
2.33497e-05
2.3037e-05
2.27059e-05
2.23567e-05
2.19892e-05
2.16037e-05
2.12003e-05
2.0779e-05
2.03399e-05
1.98833e-05
1.94092e-05
1.8918e-05
1.84097e-05
1.78847e-05
1.73433e-05
1.67859e-05
1.62129e-05
1.56247e-05
1.50219e-05
1.44053e-05
1.37756e-05
1.31337e-05
1.24806e-05
1.18175e-05
1.11459e-05
1.04674e-05
9.78376e-06
9.09715e-06
8.40998e-06
7.72498e-06
7.04523e-06
6.37417e-06
5.71559e-06
5.07365e-06
4.45281e-06
3.85778e-06
3.29344e-06
2.76467e-06
2.27618e-06
1.83227e-06
1.4366e-06
1.09184e-06
7.99434e-07
5.59333e-07
3.69807e-07
2.27383e-07
1.26917e-07
6.18262e-08
2.44878e-08
6.79898e-09
8.83078e-10
5.1502e-12
5.58179e-12
9.57033e-10
7.36634e-09
2.65197e-08
6.6921e-08
1.37302e-07
2.4587e-07
3.99728e-07
6.04466e-07
8.63933e-07
1.18017e-06
1.5535e-06
1.98269e-06
2.46522e-06
2.99755e-06
3.57542e-06
4.19409e-06
4.84856e-06
5.5338e-06
6.24484e-06
6.9769e-06
7.72548e-06
8.48638e-06
9.25571e-06
1.00299e-05
1.08059e-05
1.15806e-05
1.23516e-05
1.31164e-05
1.38732e-05
1.462e-05
1.53552e-05
1.60775e-05
1.67856e-05
1.74783e-05
1.81548e-05
1.88141e-05
1.94557e-05
2.00787e-05
2.06827e-05
2.12673e-05
2.18319e-05
2.23762e-05
2.29e-05
2.3403e-05
2.3885e-05
2.43457e-05
2.47851e-05
2.5203e-05
2.55993e-05
2.5974e-05
2.6327e-05
2.66583e-05
2.69678e-05
2.72555e-05
2.75214e-05
2.77655e-05
2.79879e-05
2.81886e-05
2.83675e-05
2.85247e-05
2.86603e-05
2.87743e-05
2.88666e-05
2.89375e-05
2.89868e-05
2.90146e-05
2.90211e-05
2.90062e-05
2.89699e-05
2.89123e-05
2.88334e-05
2.87332e-05
2.86119e-05
2.84693e-05
2.83057e-05
2.81209e-05
2.7915e-05
2.76881e-05
2.74402e-05
2.71713e-05
2.68815e-05
2.65708e-05
2.62393e-05
2.58869e-05
2.55138e-05
2.512e-05
2.47056e-05
2.42707e-05
2.38153e-05
2.33397e-05
2.28439e-05
2.2328e-05
2.17923e-05
2.1237e-05
2.06624e-05
2.00688e-05
1.94564e-05
1.88258e-05
1.81775e-05
1.75119e-05
1.68299e-05
1.61322e-05
1.54196e-05
1.46933e-05
1.39546e-05
1.32048e-05
1.24456e-05
1.16789e-05
1.0907e-05
1.01322e-05
9.3575e-06
8.586e-06
7.82132e-06
7.06742e-06
6.32867e-06
5.60981e-06
4.91588e-06
4.25219e-06
3.62412e-06
3.03704e-06
2.49605e-06
2.00572e-06
1.56983e-06
1.19105e-06
8.70639e-07
6.08211e-07
4.01555e-07
2.46595e-07
1.37494e-07
6.69204e-08
2.64882e-08
7.35111e-09
9.54554e-10
5.56665e-12
5.98791e-12
1.02671e-09
7.90392e-09
2.84633e-08
7.18569e-08
1.47515e-07
2.64352e-07
4.30147e-07
6.51107e-07
9.31608e-07
1.27411e-06
1.67921e-06
2.14585e-06
2.67152e-06
3.25258e-06
3.88455e-06
4.5624e-06
5.28073e-06
6.03406e-06
6.81695e-06
7.62414e-06
8.45062e-06
9.29168e-06
1.0143e-05
1.10005e-05
1.18607e-05
1.27202e-05
1.35761e-05
1.44258e-05
1.52668e-05
1.60972e-05
1.6915e-05
1.77187e-05
1.85068e-05
1.9278e-05
2.00312e-05
2.07656e-05
2.14802e-05
2.21743e-05
2.28473e-05
2.34986e-05
2.41278e-05
2.47344e-05
2.53182e-05
2.58788e-05
2.6416e-05
2.69296e-05
2.74195e-05
2.78854e-05
2.83274e-05
2.87452e-05
2.91389e-05
2.95085e-05
2.98538e-05
3.01749e-05
3.04718e-05
3.07445e-05
3.0993e-05
3.12173e-05
3.14175e-05
3.15935e-05
3.17456e-05
3.18735e-05
3.19775e-05
3.20576e-05
3.21137e-05
3.2146e-05
3.21545e-05
3.21393e-05
3.21003e-05
3.20376e-05
3.19512e-05
3.18412e-05
3.17076e-05
3.15505e-05
3.13698e-05
3.11656e-05
3.09379e-05
3.06868e-05
3.04123e-05
3.01144e-05
2.97931e-05
2.94485e-05
2.90806e-05
2.86895e-05
2.82753e-05
2.78379e-05
2.73774e-05
2.6894e-05
2.63877e-05
2.58586e-05
2.5307e-05
2.47329e-05
2.41366e-05
2.35183e-05
2.28784e-05
2.22171e-05
2.15348e-05
2.08321e-05
2.01095e-05
1.93677e-05
1.86075e-05
1.78297e-05
1.70355e-05
1.6226e-05
1.54028e-05
1.45675e-05
1.37219e-05
1.28684e-05
1.20094e-05
1.11478e-05
1.02869e-05
9.43029e-06
8.58208e-06
7.74679e-06
6.92931e-06
6.13497e-06
5.36938e-06
4.63838e-06
3.9479e-06
3.30375e-06
2.71138e-06
2.17563e-06
1.70039e-06
1.28832e-06
9.40492e-07
6.56191e-07
4.3274e-07
2.65478e-07
1.47895e-07
7.19331e-08
2.84573e-08
7.89476e-09
1.02494e-09
5.9768e-12
6.38574e-12
1.09496e-09
8.43036e-09
3.03659e-08
7.6686e-08
1.57501e-07
2.82408e-07
4.5984e-07
6.96594e-07
9.97548e-07
1.36556e-06
1.8015e-06
2.30444e-06
2.87192e-06
3.50018e-06
4.18455e-06
4.9197e-06
5.69986e-06
6.51915e-06
7.37166e-06
8.25166e-06
9.15367e-06
1.00725e-05
1.10034e-05
1.19418e-05
1.28838e-05
1.38257e-05
1.47642e-05
1.56963e-05
1.66193e-05
1.7531e-05
1.84293e-05
1.93123e-05
2.01783e-05
2.1026e-05
2.18542e-05
2.26617e-05
2.34475e-05
2.4211e-05
2.49512e-05
2.56677e-05
2.636e-05
2.70275e-05
2.76698e-05
2.82868e-05
2.8878e-05
2.94433e-05
2.99825e-05
3.04954e-05
3.0982e-05
3.14421e-05
3.18757e-05
3.22828e-05
3.26633e-05
3.30172e-05
3.33444e-05
3.36452e-05
3.39193e-05
3.4167e-05
3.43881e-05
3.45828e-05
3.47511e-05
3.4893e-05
3.50086e-05
3.50979e-05
3.5161e-05
3.51979e-05
3.52087e-05
3.51934e-05
3.51521e-05
3.50847e-05
3.49914e-05
3.48721e-05
3.47268e-05
3.45557e-05
3.43587e-05
3.41358e-05
3.38872e-05
3.36127e-05
3.33125e-05
3.29865e-05
3.26349e-05
3.22575e-05
3.18544e-05
3.14258e-05
3.09715e-05
3.04917e-05
2.99865e-05
2.94559e-05
2.89001e-05
2.8319e-05
2.7713e-05
2.70822e-05
2.64268e-05
2.57471e-05
2.50434e-05
2.4316e-05
2.35655e-05
2.27924e-05
2.19973e-05
2.11809e-05
2.03442e-05
1.94882e-05
1.86141e-05
1.77233e-05
1.68174e-05
1.58984e-05
1.49684e-05
1.40299e-05
1.30858e-05
1.21393e-05
1.11941e-05
1.02544e-05
9.32457e-06
8.40977e-06
7.51544e-06
6.64743e-06
5.81192e-06
5.01528e-06
4.26393e-06
3.56413e-06
2.92167e-06
2.34161e-06
1.828e-06
1.38343e-06
1.00883e-06
7.0316e-07
4.63285e-07
2.83984e-07
1.58094e-07
7.68499e-08
3.03894e-08
8.42829e-09
1.09403e-09
6.3794e-12
6.77429e-12
1.16161e-09
8.94435e-09
3.22229e-08
8.13971e-08
1.67236e-07
2.99999e-07
4.88746e-07
7.40839e-07
1.06163e-06
1.45436e-06
1.92015e-06
2.45821e-06
3.06609e-06
3.73994e-06
4.4749e-06
5.26533e-06
6.10517e-06
6.98808e-06
7.90776e-06
8.85802e-06
9.83291e-06
1.08268e-05
1.18345e-05
1.2851e-05
1.38721e-05
1.48935e-05
1.59118e-05
1.69236e-05
1.7926e-05
1.89164e-05
1.98924e-05
2.08521e-05
2.17937e-05
2.27155e-05
2.36161e-05
2.44944e-05