/*--------------------------------*- C++ -*----------------------------------*\
  =========                 |
  \\      /  F ield         | OpenFOAM: The Open Source CFD Toolbox
   \\    /   O peration     | Website:  https://openfoam.org
    \\  /    A nd           | Version:  12
     \\/     M anipulation  |
\*---------------------------------------------------------------------------*/
FoamFile
{
    format      ascii;
    class       volVectorField;
    location    "1.5";
    object      U;
}
// * * * * * * * * * * * * * * * * * * * * * * * * * * * * * * * * * * * * * //

dimensions      [0 1 -1 0 0 0 0];

internalField   nonuniform List<vector> 
18225
(
(-1.08277e-06 3.51406e-07 0)
(-7.05637e-07 3.03524e-07 0)
(-1.58803e-06 5.12066e-07 0)
(-1.41332e-06 6.02676e-07 0)
(-1.24373e-06 5.00915e-07 0)
(-8.72004e-07 4.26021e-07 0)
(5.8041e-08 2.42576e-07 0)
(1.36462e-06 8.51466e-08 0)
(3.24033e-06 -1.14555e-07 0)
(5.54292e-06 -2.8318e-07 0)
(8.36734e-06 -4.61405e-07 0)
(1.15912e-05 -6.08867e-07 0)
(1.52632e-05 -7.52582e-07 0)
(1.92831e-05 -8.71611e-07 0)
(2.36735e-05 -9.82843e-07 0)
(2.8353e-05 -1.07561e-06 0)
(3.33303e-05 -1.15927e-06 0)
(3.85423e-05 -1.22993e-06 0)
(4.39865e-05 -1.2915e-06 0)
(4.96139e-05 -1.34403e-06 0)
(5.54152e-05 -1.38761e-06 0)
(6.13538e-05 -1.42488e-06 0)
(6.74146e-05 -1.45362e-06 0)
(7.35702e-05 -1.47795e-06 0)
(7.98022e-05 -1.49427e-06 0)
(8.60907e-05 -1.5073e-06 0)
(9.24152e-05 -1.51292e-06 0)
(9.87611e-05 -1.51608e-06 0)
(0.000105107 -1.51264e-06 0)
(0.000111443 -1.50714e-06 0)
(0.000117748 -1.49578e-06 0)
(0.000124014 -1.48277e-06 0)
(0.000130222 -1.46478e-06 0)
(0.000136364 -1.44543e-06 0)
(0.000142425 -1.42181e-06 0)
(0.000148397 -1.39718e-06 0)
(0.000154267 -1.36894e-06 0)
(0.000160026 -1.34e-06 0)
(0.000165666 -1.30789e-06 0)
(0.000171177 -1.2754e-06 0)
(0.000176551 -1.24002e-06 0)
(0.000181781 -1.20447e-06 0)
(0.00018686 -1.16616e-06 0)
(0.00019178 -1.12788e-06 0)
(0.000196535 -1.08693e-06 0)
(0.00020112 -1.0461e-06 0)
(0.000205528 -1.00267e-06 0)
(0.000209754 -9.59483e-07 0)
(0.000213793 -9.13877e-07 0)
(0.000217641 -8.6858e-07 0)
(0.000221292 -8.21043e-07 0)
(0.000224745 -7.73945e-07 0)
(0.000227993 -7.24829e-07 0)
(0.000231035 -6.76247e-07 0)
(0.000233867 -6.2582e-07 0)
(0.000236486 -5.76063e-07 0)
(0.00023889 -5.24629e-07 0)
(0.000241077 -4.73944e-07 0)
(0.000243044 -4.21714e-07 0)
(0.00024479 -3.7035e-07 0)
(0.000246314 -3.17613e-07 0)
(0.000247614 -2.65812e-07 0)
(0.000248689 -2.12784e-07 0)
(0.000249539 -1.60806e-07 0)
(0.000250163 -1.07764e-07 0)
(0.00025056 -5.58265e-08 0)
(0.000250731 -2.90632e-09 0)
(0.000250677 4.88448e-08 0)
(0.000250396 1.01473e-07 0)
(0.00024989 1.52947e-07 0)
(0.000249159 2.05197e-07 0)
(0.000248205 2.56297e-07 0)
(0.000247028 3.08061e-07 0)
(0.000245631 3.58725e-07 0)
(0.000244013 4.09897e-07 0)
(0.000242178 4.59955e-07 0)
(0.000240127 5.10292e-07 0)
(0.000237864 5.59513e-07 0)
(0.000235388 6.08794e-07 0)
(0.000232705 6.56899e-07 0)
(0.000229817 7.04827e-07 0)
(0.000226727 7.5151e-07 0)
(0.000223438 7.97825e-07 0)
(0.000219954 8.42789e-07 0)
(0.00021628 8.87204e-07 0)
(0.000212419 9.30142e-07 0)
(0.000208377 9.72399e-07 0)
(0.000204157 1.01303e-06 0)
(0.000199766 1.05287e-06 0)
(0.000195208 1.09091e-06 0)
(0.000190489 1.12808e-06 0)
(0.000185616 1.16327e-06 0)
(0.000180595 1.19749e-06 0)
(0.000175433 1.22954e-06 0)
(0.000170136 1.26054e-06 0)
(0.000164713 1.28915e-06 0)
(0.000159172 1.31657e-06 0)
(0.00015352 1.34137e-06 0)
(0.000147767 1.36485e-06 0)
(0.000141922 1.38542e-06 0)
(0.000135995 1.40447e-06 0)
(0.000129996 1.42032e-06 0)
(0.000123937 1.43443e-06 0)
(0.000117828 1.44496e-06 0)
(0.000111683 1.45348e-06 0)
(0.000105514 1.45801e-06 0)
(9.93341e-05 1.4602e-06 0)
(9.31578e-05 1.4579e-06 0)
(8.70011e-05 1.45286e-06 0)
(8.08787e-05 1.44275e-06 0)
(7.48087e-05 1.42944e-06 0)
(6.88074e-05 1.41033e-06 0)
(6.28951e-05 1.38741e-06 0)
(5.70899e-05 1.35789e-06 0)
(5.14141e-05 1.32383e-06 0)
(4.58879e-05 1.28219e-06 0)
(4.05358e-05 1.23511e-06 0)
(3.53806e-05 1.1794e-06 0)
(3.04483e-05 1.11718e-06 0)
(2.57642e-05 1.04504e-06 0)
(2.13558e-05 9.65135e-07 0)
(1.72513e-05 8.73986e-07 0)
(1.34781e-05 7.73717e-07 0)
(1.00664e-05 6.60775e-07 0)
(7.04222e-06 5.37505e-07 0)
(4.43522e-06 4.0089e-07 0)
(2.26613e-06 2.54007e-07 0)
(5.59013e-07 9.54163e-08 0)
(-6.7954e-07 -6.94159e-08 0)
(-1.44307e-06 -2.37112e-07 0)
(-1.75377e-06 -3.95827e-07 0)
(-1.65077e-06 -5.31143e-07 0)
(-1.23199e-06 -6.13449e-07 0)
(-6.65196e-07 -5.84744e-07 0)
(-1.51941e-07 -3.36999e-07 0)
(-7.58516e-07 1.65828e-06 0)
(-1.00912e-06 1.7596e-06 0)
(-1.20856e-06 1.25412e-06 0)
(-5.23291e-07 4.03491e-07 0)
(1.09624e-06 -1.04542e-06 0)
(3.69467e-06 -2.63875e-06 0)
(7.42938e-06 -4.53903e-06 0)
(1.22902e-05 -6.42646e-06 0)
(1.83375e-05 -8.38324e-06 0)
(2.54992e-05 -1.02271e-05 0)
(3.37852e-05 -1.20201e-05 0)
(4.3098e-05 -1.36643e-05 0)
(5.34187e-05 -1.52096e-05 0)
(6.46425e-05 -1.66063e-05 0)
(7.67319e-05 -1.78915e-05 0)
(8.95882e-05 -1.90408e-05 0)
(0.000103165 -2.00792e-05 0)
(0.000117373 -2.09973e-05 0)
(0.00013216 -2.18105e-05 0)
(0.000147447 -2.25179e-05 0)
(0.000163181 -2.31274e-05 0)
(0.000179292 -2.36438e-05 0)
(0.000195727 -2.40702e-05 0)
(0.000212426 -2.44142e-05 0)
(0.000229336 -2.46762e-05 0)
(0.000246406 -2.4865e-05 0)
(0.000263584 -2.49793e-05 0)
(0.000280827 -2.50288e-05 0)
(0.000298087 -2.50112e-05 0)
(0.000315324 -2.49359e-05 0)
(0.000332495 -2.48005e-05 0)
(0.000349565 -2.46139e-05 0)
(0.000366496 -2.43737e-05 0)
(0.000383254 -2.4088e-05 0)
(0.000399805 -2.37547e-05 0)
(0.000416121 -2.33811e-05 0)
(0.000432172 -2.29653e-05 0)
(0.000447929 -2.25137e-05 0)
(0.000463368 -2.20247e-05 0)
(0.000478462 -2.15041e-05 0)
(0.000493191 -2.09501e-05 0)
(0.00050753 -2.03682e-05 0)
(0.000521461 -1.97564e-05 0)
(0.000534963 -1.91202e-05 0)
(0.000548019 -1.84572e-05 0)
(0.000560611 -1.77729e-05 0)
(0.000572723 -1.70648e-05 0)
(0.000584341 -1.63381e-05 0)
(0.000595451 -1.55905e-05 0)
(0.000606039 -1.4827e-05 0)
(0.000616094 -1.40452e-05 0)
(0.000625604 -1.32501e-05 0)
(0.000634559 -1.24392e-05 0)
(0.000642949 -1.16174e-05 0)
(0.000650767 -1.07822e-05 0)
(0.000658003 -9.93826e-06 0)
(0.000664652 -9.08319e-06 0)
(0.000670706 -8.22148e-06 0)
(0.00067616 -7.35071e-06 0)
(0.000681009 -6.4753e-06 0)
(0.000685248 -5.59284e-06 0)
(0.000688875 -4.70761e-06 0)
(0.000691886 -3.81729e-06 0)
(0.000694279 -2.92601e-06 0)
(0.000696051 -2.03154e-06 0)
(0.000697203 -1.1378e-06 0)
(0.000697734 -2.42675e-07 0)
(0.000697644 6.50071e-07 0)
(0.000696933 1.54246e-06 0)
(0.000695603 2.43086e-06 0)
(0.000693656 3.31718e-06 0)
(0.000691095 4.19795e-06 0)
(0.000687923 5.07491e-06 0)
(0.000684143 5.94476e-06 0)
(0.000679761 6.809e-06 0)
(0.000674781 7.66449e-06 0)
(0.000669208 8.51245e-06 0)
(0.00066305 9.35002e-06 0)
(0.000656313 1.01781e-05 0)
(0.000649005 1.0994e-05 0)
(0.000641133 1.17984e-05 0)
(0.000632707 1.25888e-05 0)
(0.000623737 1.33656e-05 0)
(0.000614232 1.41265e-05 0)
(0.000604203 1.48716e-05 0)
(0.000593664 1.55985e-05 0)
(0.000582625 1.63076e-05 0)
(0.0005711 1.69962e-05 0)
(0.000559105 1.76646e-05 0)
(0.000546652 1.83101e-05 0)
(0.00053376 1.89328e-05 0)
(0.000520444 1.95299e-05 0)
(0.000506722 2.01017e-05 0)
(0.000492614 2.06449e-05 0)
(0.000478139 2.11598e-05 0)
(0.000463319 2.16429e-05 0)
(0.000448175 2.20946e-05 0)
(0.000432731 2.2511e-05 0)
(0.000417012 2.28924e-05 0)
(0.000401043 2.32346e-05 0)
(0.000384853 2.35378e-05 0)
(0.000368469 2.37975e-05 0)
(0.000351923 2.40138e-05 0)
(0.000335246 2.41819e-05 0)
(0.000318472 2.43017e-05 0)
(0.000301635 2.43679e-05 0)
(0.000284775 2.43804e-05 0)
(0.000267928 2.43334e-05 0)
(0.000251136 2.42267e-05 0)
(0.000234443 2.40539e-05 0)
(0.000217893 2.38149e-05 0)
(0.000201532 2.35026e-05 0)
(0.000185413 2.31168e-05 0)
(0.000169583 2.26501e-05 0)
(0.0001541 2.21021e-05 0)
(0.000139017 2.1465e-05 0)
(0.000124393 2.07386e-05 0)
(0.000110288 1.99152e-05 0)
(9.67636e-05 1.89947e-05 0)
(8.38835e-05 1.79698e-05 0)
(7.17113e-05 1.68415e-05 0)
(6.03123e-05 1.56041e-05 0)
(4.97495e-05 1.42607e-05 0)
(4.00867e-05 1.28088e-05 0)
(3.13806e-05 1.12567e-05 0)
(2.36873e-05 9.60942e-06 0)
(1.70485e-05 7.88547e-06 0)
(1.15003e-05 6.10575e-06 0)
(7.05314e-06 4.30996e-06 0)
(3.70189e-06 2.55201e-06 0)
(1.40024e-06 9.15564e-07 0)
(6.43099e-08 -4.80133e-07 0)
(-4.6646e-07 -1.46199e-06 0)
(-4.3018e-07 -1.78169e-06 0)
(-1.04579e-07 -1.08441e-06 0)
(-4.77278e-07 2.34733e-06 0)
(-4.83948e-08 1.6348e-06 0)
(1.07933e-06 -1.04439e-06 0)
(3.68521e-06 -4.26315e-06 0)
(7.75812e-06 -8.05907e-06 0)
(1.33053e-05 -1.22574e-05 0)
(2.04078e-05 -1.68109e-05 0)
(2.91079e-05 -2.14661e-05 0)
(3.94232e-05 -2.61594e-05 0)
(5.13183e-05 -3.07177e-05 0)
(6.47681e-05 -3.5118e-05 0)
(7.96888e-05 -3.92635e-05 0)
(9.6027e-05 -4.31604e-05 0)
(0.000113677 -4.67605e-05 0)
(0.000132567 -5.00818e-05 0)
(0.000152587 -5.3102e-05 0)
(0.000173655 -5.58424e-05 0)
(0.000195664 -5.82946e-05 0)
(0.000218529 -6.04788e-05 0)
(0.000242147 -6.2394e-05 0)
(0.000266433 -6.40583e-05 0)
(0.000291295 -6.54749e-05 0)
(0.000316648 -6.66596e-05 0)
(0.000342407 -6.76181e-05 0)
(0.000368493 -6.83641e-05 0)
(0.000394829 -6.89046e-05 0)
(0.000421338 -6.92516e-05 0)
(0.000447953 -6.94131e-05 0)
(0.000474602 -6.93991e-05 0)
(0.000501224 -6.92181e-05 0)
(0.000527755 -6.88788e-05 0)
(0.000554138 -6.83897e-05 0)
(0.000580314 -6.77583e-05 0)
(0.000606233 -6.69927e-05 0)
(0.000631842 -6.60997e-05 0)
(0.000657095 -6.50869e-05 0)
(0.000681946 -6.39602e-05 0)
(0.000706352 -6.27265e-05 0)
(0.000730272 -6.13914e-05 0)
(0.000753667 -5.99609e-05 0)
(0.000776502 -5.84403e-05 0)
(0.000798741 -5.68348e-05 0)
(0.000820354 -5.51494e-05 0)
(0.000841308 -5.33889e-05 0)
(0.000861577 -5.15577e-05 0)
(0.000881132 -4.96602e-05 0)
(0.000899949 -4.77007e-05 0)
(0.000918004 -4.56832e-05 0)
(0.000935275 -4.36116e-05 0)
(0.000951742 -4.14897e-05 0)
(0.000967386 -3.93211e-05 0)
(0.000982188 -3.71094e-05 0)
(0.000996134 -3.4858e-05 0)
(0.00100921 -3.25703e-05 0)
(0.00102139 -3.02494e-05 0)
(0.00103268 -2.78984e-05 0)
(0.00104306 -2.55204e-05 0)
(0.00105252 -2.31184e-05 0)
(0.00106105 -2.0695e-05 0)
(0.00106864 -1.82533e-05 0)
(0.00107529 -1.57958e-05 0)
(0.00108099 -1.33252e-05 0)
(0.00108573 -1.08443e-05 0)
(0.00108951 -8.3554e-06 0)
(0.00109234 -5.86124e-06 0)
(0.0010942 -3.36416e-06 0)
(0.00109509 -8.66759e-07 0)
(0.00109502 1.62869e-06 0)
(0.00109399 4.1196e-06 0)
(0.001092 6.60378e-06 0)
(0.00108905 9.07864e-06 0)
(0.00108514 1.1542e-05 0)
(0.00108028 1.39912e-05 0)
(0.00107448 1.6424e-05 0)
(0.00106775 1.8838e-05 0)
(0.00106008 2.12305e-05 0)
(0.00105149 2.35992e-05 0)
(0.00104199 2.59414e-05 0)
(0.00103159 2.82547e-05 0)
(0.00102031 3.05362e-05 0)
(0.00100814 3.27834e-05 0)
(0.000995117 3.49934e-05 0)
(0.000981243 3.71635e-05 0)
(0.000966538 3.92906e-05 0)
(0.000951018 4.13718e-05 0)
(0.000934703 4.3404e-05 0)
(0.000917612 4.53841e-05 0)
(0.000899765 4.73086e-05 0)
(0.000881186 4.91743e-05 0)
(0.000861896 5.09774e-05 0)
(0.000841923 5.27145e-05 0)
(0.000821291 5.43816e-05 0)
(0.00080003 5.59748e-05 0)
(0.000778168 5.74899e-05 0)
(0.000755737 5.89225e-05 0)
(0.00073277 6.02683e-05 0)
(0.000709302 6.15223e-05 0)
(0.000685369 6.26798e-05 0)
(0.000661011 6.37354e-05 0)
(0.000636266 6.46838e-05 0)
(0.00061118 6.55193e-05 0)
(0.000585795 6.62359e-05 0)
(0.00056016 6.68273e-05 0)
(0.000534323 6.72871e-05 0)
(0.000508337 6.76085e-05 0)
(0.000482257 6.77842e-05 0)
(0.000456139 6.78069e-05 0)
(0.000430044 6.76688e-05 0)
(0.000404033 6.73619e-05 0)
(0.000378173 6.68777e-05 0)
(0.000352532 6.62078e-05 0)
(0.00032718 6.53433e-05 0)
(0.000302192 6.42754e-05 0)
(0.000277643 6.29948e-05 0)
(0.000253616 6.14926e-05 0)
(0.00023019 5.97599e-05 0)
(0.000207451 5.77883e-05 0)
(0.000185484 5.55699e-05 0)
(0.000164378 5.30978e-05 0)
(0.000144222 5.03668e-05 0)
(0.000125106 4.73734e-05 0)
(0.000107116 4.41176e-05 0)
(9.03403e-05 4.06031e-05 0)
(7.48606e-05 3.68392e-05 0)
(6.0752e-05 3.28433e-05 0)
(4.80841e-05 2.86425e-05 0)
(3.69099e-05 2.42786e-05 0)
(2.72715e-05 1.98112e-05 0)
(1.91838e-05 1.53263e-05 0)
(1.26414e-05 1.09424e-05 0)
(7.59932e-06 6.82434e-06 0)
(3.97508e-06 3.19501e-06 0)
(1.62806e-06 3.58218e-07 0)
(3.76728e-07 -1.28501e-06 0)
(-1.83617e-08 -1.21148e-06 0)
(-1.78408e-07 1.98751e-06 0)
(1.14578e-06 -1.06292e-06 0)
(3.97968e-06 -6.93179e-06 0)
(8.79241e-06 -1.3524e-05 0)
(1.55903e-05 -2.07065e-05 0)
(2.43318e-05 -2.84325e-05 0)
(3.50419e-05 -3.65521e-05 0)
(4.77324e-05 -4.48202e-05 0)
(6.23889e-05 -5.30755e-05 0)
(7.89689e-05 -6.11333e-05 0)
(9.74244e-05 -6.89053e-05 0)
(0.000117671 -7.62845e-05 0)
(0.000139634 -8.3238e-05 0)
(0.000163203 -8.97122e-05 0)
(0.000188288 -9.57046e-05 0)
(0.000214768 -0.000101193 0)
(0.00024254 -0.000106188 0)
(0.000271483 -0.000110686 0)
(0.000301489 -0.000114705 0)
(0.00033244 -0.000118248 0)
(0.000364228 -0.000121336 0)
(0.000396743 -0.000123979 0)
(0.000429877 -0.000126196 0)
(0.000463527 -0.000128 0)
(0.000497592 -0.000129412 0)
(0.000531976 -0.000130445 0)
(0.000566582 -0.000131117 0)
(0.000601325 -0.000131444 0)
(0.000636114 -0.000131442 0)
(0.000670869 -0.000131127 0)
(0.000705507 -0.000130514 0)
(0.000739958 -0.000129618 0)
(0.000774143 -0.000128453 0)
(0.000807999 -0.000127034 0)
(0.000841456 -0.000125372 0)
(0.000874454 -0.000123481 0)
(0.000906933 -0.000121374 0)
(0.000938836 -0.000119061 0)
(0.000970112 -0.000116555 0)
(0.00100071 -0.000113866 0)
(0.00103058 -0.000111004 0)
(0.00105968 -0.000107979 0)
(0.00108796 -0.000104801 0)
(0.00111539 -0.000101479 0)
(0.00114193 -9.80212e-05 0)
(0.00116755 -9.4436e-05 0)
(0.0011922 -9.07317e-05 0)
(0.00121586 -8.6916e-05 0)
(0.0012385 -8.29965e-05 0)
(0.00126009 -7.89801e-05 0)
(0.00128061 -7.48742e-05 0)
(0.00130004 -7.06852e-05 0)
(0.00131835 -6.64198e-05 0)
(0.00133552 -6.20841e-05 0)
(0.00135153 -5.76844e-05 0)
(0.00136637 -5.32265e-05 0)
(0.00138002 -4.87161e-05 0)
(0.00139247 -4.4159e-05 0)
(0.00140371 -3.95605e-05 0)
(0.00141373 -3.49258e-05 0)
(0.0014225 -3.02604e-05 0)
(0.00143004 -2.5569e-05 0)
(0.00143633 -2.08569e-05 0)
(0.00144137 -1.61288e-05 0)
(0.00144515 -1.13898e-05 0)
(0.00144766 -6.6442e-06 0)
(0.00144892 -1.89717e-06 0)
(0.00144891 2.84697e-06 0)
(0.00144764 7.58329e-06 0)
(0.00144512 1.23075e-05 0)
(0.00144133 1.70146e-05 0)
(0.0014363 2.17004e-05 0)
(0.00143002 2.63598e-05 0)
(0.00142251 3.09886e-05 0)
(0.00141376 3.55817e-05 0)
(0.0014038 4.01346e-05 0)
(0.00139263 4.46423e-05 0)
(0.00138026 4.91e-05 0)
(0.00136672 5.35027e-05 0)
(0.00135201 5.78453e-05 0)
(0.00133614 6.21225e-05 0)
(0.00131915 6.63292e-05 0)
(0.00130104 7.04597e-05 0)
(0.00128184 7.45085e-05 0)
(0.00126158 7.84699e-05 0)
(0.00124027 8.23378e-05 0)
(0.00121794 8.61061e-05 0)
(0.00119462 8.97686e-05 0)
(0.00117034 9.33185e-05 0)
(0.00114512 9.67491e-05 0)
(0.00111901 0.000100053 0)
(0.00109203 0.000103224 0)
(0.00106423 0.000106253 0)
(0.00103564 0.000109133 0)
(0.00100631 0.000111855 0)
(0.000976267 0.000114411 0)
(0.000945571 0.000116792 0)
(0.000914265 0.000118988 0)
(0.0008824 0.00012099 0)
(0.000850029 0.000122788 0)
(0.000817208 0.00012437 0)
(0.000783996 0.000125726 0)
(0.000750455 0.000126844 0)
(0.000716648 0.000127712 0)
(0.000682643 0.000128318 0)
(0.000648511 0.000128649 0)
(0.000614325 0.000128691 0)
(0.000580163 0.00012843 0)
(0.000546105 0.000127853 0)
(0.000512234 0.000126944 0)
(0.000478638 0.000125688 0)
(0.000445405 0.000124072 0)
(0.000412631 0.000122079 0)
(0.00038041 0.000119695 0)
(0.000348843 0.000116905 0)
(0.000318031 0.000113695 0)
(0.000288079 0.000110053 0)
(0.000259091 0.000105967 0)
(0.000231175 0.000101429 0)
(0.000204438 9.64325e-05 0)
(0.000178986 9.09765e-05 0)
(0.000154926 8.50653e-05 0)
(0.000132357 7.87099e-05 0)
(0.000111377 7.1932e-05 0)
(9.20744e-05 6.4765e-05 0)
(7.45308e-05 5.72596e-05 0)
(5.88101e-05 4.94861e-05 0)
(4.49681e-05 4.15437e-05 0)
(3.30326e-05 3.35639e-05 0)
(2.3017e-05 2.57244e-05 0)
(1.48992e-05 1.82573e-05 0)
(8.63403e-06 1.1466e-05 0)
(4.14085e-06 5.74468e-06 0)
(1.34198e-06 1.58448e-06 0)
(7.45426e-08 -4.24179e-07 0)
(1.00035e-07 3.41145e-07 0)
(2.35215e-06 -6.39845e-06 0)
(6.86523e-06 -1.65518e-05 0)
(1.38897e-05 -2.75658e-05 0)
(2.34058e-05 -3.91393e-05 0)
(3.53294e-05 -5.12681e-05 0)
(4.9633e-05 -6.37506e-05 0)
(6.62732e-05 -7.63409e-05 0)
(8.51993e-05 -8.88157e-05 0)
(0.000106337 -0.000100982 0)
(0.000129614 -0.0001127 0)
(0.000154929 -0.000123857 0)
(0.000182191 -0.000134382 0)
(0.000211279 -0.000144219 0)
(0.000242086 -0.000153343 0)
(0.000274482 -0.000161732 0)
(0.000308348 -0.000169385 0)
(0.000343551 -0.000176301 0)
(0.000379969 -0.000182492 0)
(0.00041747 -0.000187969 0)
(0.00045593 -0.000192752 0)
(0.000495225 -0.000196857 0)
(0.00053523 -0.000200308 0)
(0.00057583 -0.000203127 0)
(0.000616904 -0.000205336 0)
(0.000658346 -0.000206959 0)
(0.000700039 -0.00020802 0)
(0.000741886 -0.000208543 0)
(0.000783779 -0.000208552 0)
(0.000825626 -0.00020807 0)
(0.000867329 -0.000207119 0)
(0.000908803 -0.000205722 0)
(0.000949959 -0.0002039 0)
(0.000990717 -0.000201676 0)
(0.001031 -0.000199068 0)
(0.00107073 -0.000196096 0)
(0.00110984 -0.000192781 0)
(0.00114826 -0.000189139 0)
(0.00118593 -0.000185188 0)
(0.00122279 -0.000180946 0)
(0.00125877 -0.000176428 0)
(0.00129384 -0.000171651 0)
(0.00132792 -0.000166628 0)
(0.00136099 -0.000161375 0)
(0.00139298 -0.000155904 0)
(0.00142387 -0.000150231 0)
(0.0014536 -0.000144367 0)
(0.00148215 -0.000138324 0)
(0.00150947 -0.000132115 0)
(0.00153554 -0.000125751 0)
(0.00156031 -0.000119243 0)
(0.00158377 -0.000112602 0)
(0.00160589 -0.000105838 0)
(0.00162664 -9.89612e-05 0)
(0.00164601 -9.19811e-05 0)
(0.00166396 -8.49072e-05 0)
(0.00168049 -7.77485e-05 0)
(0.00169557 -7.05141e-05 0)
(0.00170919 -6.32125e-05 0)
(0.00172134 -5.58522e-05 0)
(0.00173201 -4.84415e-05 0)
(0.00174118 -4.09884e-05 0)
(0.00174884 -3.35009e-05 0)
(0.001755 -2.59868e-05 0)
(0.00175965 -1.84538e-05 0)
(0.00176277 -1.09095e-05 0)
(0.00176438 -3.36137e-06 0)
(0.00176446 4.18313e-06 0)
(0.00176302 1.17164e-05 0)
(0.00176007 1.92314e-05 0)
(0.0017556 2.67203e-05 0)
(0.00174963 3.41761e-05 0)
(0.00174215 4.1591e-05 0)
(0.00173318 4.89578e-05 0)
(0.00172273 5.62687e-05 0)
(0.0017108 6.35163e-05 0)
(0.00169742 7.06926e-05 0)
(0.0016826 7.779e-05 0)
(0.00166635 8.48001e-05 0)
(0.00164869 9.17152e-05 0)
(0.00162964 9.85264e-05 0)
(0.00160923 0.000105226 0)
(0.00158747 0.000111804 0)
(0.00156439 0.000118252 0)
(0.00154002 0.000124562 0)
(0.00151439 0.000130722 0)
(0.00148753 0.000136724 0)
(0.00145947 0.000142557 0)
(0.00143024 0.00014821 0)
(0.00139989 0.000153673 0)
(0.00136845 0.000158935 0)
(0.00133597 0.000163983 0)
(0.00130249 0.000168806 0)
(0.00126806 0.000173391 0)
(0.00123272 0.000177724 0)
(0.00119653 0.000181792 0)
(0.00115954 0.000185581 0)
(0.00112182 0.000189077 0)
(0.00108342 0.000192262 0)
(0.0010444 0.000195123 0)
(0.00100483 0.000197641 0)
(0.000964792 0.000199801 0)
(0.000924347 0.000201583 0)
(0.000883573 0.00020297 0)
(0.000842554 0.000203942 0)
(0.000801371 0.000204479 0)
(0.000760113 0.000204562 0)
(0.00071887 0.000204169 0)
(0.000677737 0.00020328 0)
(0.000636811 0.000201872 0)
(0.000596197 0.000199925 0)
(0.000555996 0.000197416 0)
(0.000516319 0.000194323 0)
(0.000477277 0.000190627 0)
(0.000438985 0.000186307 0)
(0.000401558 0.000181345 0)
(0.000365117 0.000175723 0)
(0.00032978 0.00016943 0)
(0.000295671 0.000162454 0)
(0.00026291 0.000154791 0)
(0.000231616 0.000146442 0)
(0.000201909 0.000137418 0)
(0.000173903 0.000127739 0)
(0.000147708 0.000117438 0)
(0.000123425 0.000106567 0)
(0.000101151 9.51969e-05 0)
(8.09673e-05 8.34251e-05 0)
(6.29478e-05 7.1382e-05 0)
(4.71455e-05 5.92372e-05 0)
(3.36047e-05 4.72095e-05 0)
(2.23429e-05 3.55779e-05 0)
(1.33665e-05 2.46936e-05 0)
(6.67177e-06 1.50002e-05 0)
(2.29954e-06 7.02148e-06 0)
(1.57901e-07 1.34065e-06 0)
(2.96366e-07 -2.50566e-06 0)
(3.40827e-06 -1.44448e-05 0)
(9.4996e-06 -2.99863e-05 0)
(1.86479e-05 -4.64351e-05 0)
(3.07708e-05 -6.33569e-05 0)
(4.57456e-05 -8.07253e-05 0)
(6.34929e-05 -9.83165e-05 0)
(8.39162e-05 -0.000115874 0)
(0.000106926 -0.000133151 0)
(0.000132408 -0.000149942 0)
(0.000160264 -0.000166083 0)
(0.000190367 -0.000181449 0)
(0.000222608 -0.00019595 0)
(0.000256847 -0.000209523 0)
(0.000292964 -0.000222127 0)
(0.000330814 -0.000233737 0)
(0.000370268 -0.000244343 0)
(0.000411179 -0.000253947 0)
(0.000453413 -0.000262555 0)
(0.000496827 -0.000270185 0)
(0.000541285 -0.000276854 0)
(0.00058665 -0.000282588 0)
(0.000632787 -0.000287412 0)
(0.000679567 -0.000291355 0)
(0.000726859 -0.000294446 0)
(0.000774543 -0.000296717 0)
(0.000822492 -0.000298198 0)
(0.000870596 -0.000298922 0)
(0.000918736 -0.000298921 0)
(0.00096681 -0.000298225 0)
(0.00101471 -0.000296866 0)
(0.00106233 -0.000294873 0)
(0.00110958 -0.000292278 0)
(0.00115638 -0.000289108 0)
(0.00120262 -0.000285392 0)
(0.00124823 -0.000281157 0)
(0.00129312 -0.00027643 0)
(0.00133722 -0.000271237 0)
(0.00138047 -0.000265601 0)
(0.00142278 -0.000259548 0)
(0.0014641 -0.000253099 0)
(0.00150436 -0.000246277 0)
(0.0015435 -0.000239103 0)
(0.00158147 -0.000231597 0)
(0.00161823 -0.00022378 0)
(0.00165371 -0.00021567 0)
(0.00168787 -0.000207286 0)
(0.00172067 -0.000198645 0)
(0.00175208 -0.000189763 0)
(0.00178204 -0.000180658 0)
(0.00181054 -0.000171346 0)
(0.00183752 -0.000161841 0)
(0.00186297 -0.000152158 0)
(0.00188686 -0.000142312 0)
(0.00190916 -0.000132316 0)
(0.00192984 -0.000122184 0)
(0.00194889 -0.000111929 0)
(0.00196628 -0.000101564 0)
(0.001982 -9.11009e-05 0)
(0.00199603 -8.05519e-05 0)
(0.00200837 -6.99288e-05 0)
(0.00201898 -5.92434e-05 0)
(0.00202788 -4.85069e-05 0)
(0.00203505 -3.77306e-05 0)
(0.00204047 -2.69256e-05 0)
(0.00204416 -1.61027e-05 0)
(0.0020461 -5.27283e-06 0)
(0.0020463 5.55334e-06 0)
(0.00204475 1.63651e-05 0)
(0.00204145 2.71518e-05 0)
(0.00203642 3.79026e-05 0)
(0.00202966 4.86072e-05 0)
(0.00202118 5.92544e-05 0)
(0.00201097 6.98338e-05 0)
(0.00199907 8.03341e-05 0)
(0.00198547 9.07446e-05 0)
(0.0019702 0.000101054 0)
(0.00195327 0.000111251 0)
(0.00193469 0.000121323 0)
(0.0019145 0.00013126 0)
(0.00189271 0.000141048 0)
(0.00186935 0.000150676 0)
(0.00184443 0.000160131 0)
(0.00181801 0.0001694 0)
(0.00179009 0.000178469 0)
(0.00176072 0.000187325 0)
(0.00172993 0.000195953 0)
(0.00169776 0.000204339 0)
(0.00166425 0.000212467 0)
(0.00162944 0.000220322 0)
(0.00159338 0.000227887 0)
(0.00155611 0.000235146 0)
(0.00151769 0.000242082 0)
(0.00147817 0.000248675 0)
(0.0014376 0.000254907 0)
(0.00139605 0.000260759 0)
(0.00135358 0.000266211 0)
(0.00131025 0.000271241 0)
(0.00126613 0.000275828 0)
(0.0012213 0.000279949 0)
(0.00117583 0.00028358 0)
(0.0011298 0.000286699 0)
(0.0010833 0.000289279 0)
(0.00103641 0.000291295 0)
(0.000989216 0.000292721 0)
(0.000941821 0.000293529 0)
(0.000894322 0.000293691 0)
(0.000846819 0.00029318 0)
(0.00079942 0.000291967 0)
(0.000752234 0.000290022 0)
(0.000705374 0.000287318 0)
(0.000658957 0.000283825 0)
(0.000613105 0.000279516 0)
(0.000567939 0.000274364 0)
(0.000523588 0.000268343 0)
(0.000480178 0.000261431 0)
(0.000437843 0.000253608 0)
(0.000396713 0.000244858 0)
(0.000356922 0.000235171 0)
(0.000318603 0.000224543 0)
(0.000281888 0.000212978 0)
(0.000246909 0.000200493 0)
(0.000213792 0.000187115 0)
(0.000182663 0.000172889 0)
(0.000153639 0.00015788 0)
(0.000126834 0.000142175 0)
(0.000102351 0.000125894 0)
(8.02904e-05 0.000109187 0)
(6.07354e-05 9.2249e-05 0)
(4.37692e-05 7.53241e-05 0)
(2.94551e-05 5.87148e-05 0)
(1.78583e-05 4.27953e-05 0)
(9.05221e-06 2.80241e-05 0)
(3.1852e-06 1.49219e-05 0)
(2.32606e-07 4.02079e-06 0)
(4.1412e-07 -6.36089e-06 0)
(4.28669e-06 -2.50131e-05 0)
(1.18107e-05 -4.70712e-05 0)
(2.29413e-05 -6.99489e-05 0)
(3.75091e-05 -9.31276e-05 0)
(5.53486e-05 -0.000116536 0)
(7.63297e-05 -0.000139938 0)
(0.00010031 -0.000163072 0)
(0.000127158 -0.000185685 0)
(0.000156726 -0.000207567 0)
(0.000188883 -0.000228545 0)
(0.000223475 -0.000248488 0)
(0.000260371 -0.000267296 0)
(0.000299413 -0.000284901 0)
(0.000340462 -0.000301252 0)
(0.00038336 -0.000316324 0)
(0.000427962 -0.0003301 0)
(0.000474112 -0.000342584 0)
(0.000521662 -0.000353782 0)
(0.000570459 -0.000363712 0)
(0.000620356 -0.000372395 0)
(0.000671207 -0.000379862 0)
(0.000722865 -0.000386142 0)
(0.000775193 -0.000391272 0)
(0.00082805 -0.000395287 0)
(0.000881305 -0.000398226 0)
(0.000934824 -0.000400128 0)
(0.000988486 -0.000401033 0)
(0.00104216 -0.00040098 0)
(0.00109575 -0.000400011 0)
(0.00114911 -0.000398163 0)
(0.00120216 -0.000395477 0)
(0.00125478 -0.000391991 0)
(0.00130688 -0.000387742 0)
(0.00135836 -0.000382766 0)
(0.00140912 -0.0003771 0)
(0.00145909 -0.000370778 0)
(0.00150817 -0.000363833 0)
(0.00155629 -0.000356297 0)
(0.00160338 -0.000348203 0)
(0.00164936 -0.00033958 0)
(0.00169416 -0.000330458 0)
(0.00173772 -0.000320864 0)
(0.00177999 -0.000310826 0)
(0.00182089 -0.00030037 0)
(0.00186039 -0.000289521 0)
(0.00189842 -0.000278303 0)
(0.00193495 -0.00026674 0)
(0.00196992 -0.000254855 0)
(0.0020033 -0.000242669 0)
(0.00203504 -0.000230203 0)
(0.00206511 -0.000217477 0)
(0.00209348 -0.000204513 0)
(0.00212011 -0.000191327 0)
(0.00214498 -0.000177939 0)
(0.00216805 -0.000164368 0)
(0.00218931 -0.000150629 0)
(0.00220874 -0.000136741 0)
(0.00222631 -0.00012272 0)
(0.002242 -0.000108581 0)
(0.00225581 -9.43418e-05 0)
(0.00226771 -8.00168e-05 0)
(0.0022777 -6.56214e-05 0)
(0.00228577 -5.11707e-05 0)
(0.0022919 -3.66794e-05 0)
(0.00229611 -2.21623e-05 0)
(0.00229837 -7.63372e-06 0)
(0.00229869 6.89165e-06 0)
(0.00229707 2.13997e-05 0)
(0.00229351 3.58759e-05 0)
(0.00228802 5.03059e-05 0)
(0.00228061 6.46755e-05 0)
(0.00227127 7.897e-05 0)
(0.00226003 9.3175e-05 0)
(0.00224688 0.000107276 0)
(0.00223186 0.000121257 0)
(0.00221497 0.000135104 0)
(0.00219623 0.000148802 0)
(0.00217566 0.000162334 0)
(0.00215329 0.000175685 0)
(0.00212913 0.000188839 0)
(0.00210322 0.000201778 0)
(0.00207559 0.000214486 0)
(0.00204626 0.000226945 0)
(0.00201527 0.000239136 0)
(0.00198266 0.000251043 0)
(0.00194847 0.000262644 0)
(0.00191273 0.000273921 0)
(0.0018755 0.000284852 0)
(0.00183681 0.000295418 0)
(0.00179672 0.000305595 0)
(0.00175528 0.000315362 0)
(0.00171255 0.000324695 0)
(0.00166859 0.00033357 0)
(0.00162345 0.000341961 0)
(0.00157721 0.000349843 0)
(0.00152993 0.000357189 0)
(0.00148168 0.000363971 0)
(0.00143255 0.00037016 0)
(0.00138261 0.000375727 0)
(0.00133195 0.00038064 0)
(0.00128064 0.000384869 0)
(0.00122879 0.00038838 0)
(0.00117649 0.00039114 0)
(0.00112383 0.000393115 0)
(0.00107092 0.00039427 0)
(0.00101788 0.000394569 0)
(0.000964799 0.000393976 0)
(0.000911805 0.000392455 0)
(0.000859014 0.000389969 0)
(0.00080655 0.000386481 0)
(0.000754539 0.000381958 0)
(0.000703112 0.000376363 0)
(0.0006524 0.000369665 0)
(0.000602542 0.000361832 0)
(0.000553676 0.000352837 0)
(0.000505943 0.000342658 0)
(0.000459486 0.000331275 0)
(0.000414449 0.000318677 0)
(0.000370977 0.00030486 0)
(0.000329214 0.000289832 0)
(0.000289305 0.000273612 0)
(0.00025139 0.000256232 0)
(0.000215612 0.000237746 0)
(0.000182106 0.000218226 0)
(0.000151008 0.000197772 0)
(0.000122446 0.000176512 0)
(9.65476e-05 0.000154612 0)
(7.34337e-05 0.000132277 0)
(5.32264e-05 0.000109761 0)
(3.60382e-05 8.73735e-05 0)
(2.19883e-05 6.54899e-05 0)
(1.12213e-05 4.45643e-05 0)
(3.98464e-06 2.50902e-05 0)
(2.9655e-07 7.52835e-06 0)
(4.78325e-07 -1.10096e-05 0)
(5.01367e-06 -3.77845e-05 0)
(1.3812e-05 -6.74829e-05 0)
(2.67537e-05 -9.77596e-05 0)
(4.35764e-05 -0.00012806 0)
(6.40676e-05 -0.000158271 0)
(8.80488e-05 -0.000188155 0)
(0.000115336 -0.000217448 0)
(0.000145761 -0.000245905 0)
(0.000179139 -0.00027332 0)
(0.000215309 -0.000299519 0)
(0.000254092 -0.000324373 0)
(0.00029533 -0.000347779 0)
(0.000338845 -0.000369667 0)
(0.000384481 -0.000389987 0)
(0.000432061 -0.000408711 0)
(0.000481428 -0.000425824 0)
(0.000532411 -0.00044133 0)
(0.000584852 -0.000455235 0)
(0.000638586 -0.000467564 0)
(0.000693456 -0.00047834 0)
(0.000749306 -0.0004876 0)
(0.000805982 -0.000495379 0)
(0.000863336 -0.000501719 0)
(0.000921219 -0.000506665 0)
(0.000979494 -0.000510262 0)
(0.00103802 -0.000512557 0)
(0.00109666 -0.0005136 0)
(0.00115529 -0.000513438 0)
(0.00121379 -0.00051212 0)
(0.00127203 -0.000509696 0)
(0.0013299 -0.000506212 0)
(0.00138729 -0.000501717 0)
(0.00144409 -0.000496256 0)
(0.00150019 -0.000489875 0)
(0.00155552 -0.000482618 0)
(0.00160996 -0.000474529 0)
(0.00166343 -0.000465648 0)
(0.00171585 -0.000456018 0)
(0.00176714 -0.000445676 0)
(0.00181722 -0.000434661 0)
(0.00186601 -0.000423009 0)
(0.00191346 -0.000410757 0)
(0.00195949 -0.000397939 0)
(0.00200404 -0.000384586 0)
(0.00204706 -0.000370732 0)
(0.00208849 -0.000356407 0)
(0.00212828 -0.00034164 0)
(0.00216638 -0.000326461 0)
(0.00220275 -0.000310896 0)
(0.00223734 -0.000294974 0)
(0.00227012 -0.000278718 0)
(0.00230104 -0.000262155 0)
(0.00233009 -0.000245309 0)
(0.00235721 -0.000228203 0)
(0.00238239 -0.00021086 0)
(0.0024056 -0.000193302 0)
(0.00242682 -0.000175551 0)
(0.00244602 -0.000157628 0)
(0.00246318 -0.000139553 0)
(0.00247829 -0.000121347 0)
(0.00249134 -0.00010303 0)
(0.0025023 -8.46199e-05 0)
(0.00251118 -6.61373e-05 0)
(0.00251796 -4.76003e-05 0)
(0.00252263 -2.90282e-05 0)
(0.0025252 -1.04391e-05 0)
(0.00252565 8.14826e-06 0)
(0.002524 2.67157e-05 0)
(0.00252024 4.52447e-05 0)
(0.00251437 6.37171e-05 0)
(0.00250641 8.21142e-05 0)
(0.00249636 0.000100418 0)
(0.00248423 0.000118609 0)
(0.00247004 0.000136668 0)
(0.00245379 0.000154578 0)
(0.00243551 0.000172317 0)
(0.00241522 0.000189867 0)
(0.00239293 0.000207207 0)
(0.00236868 0.000224318 0)
(0.00234248 0.000241177 0)
(0.00231437 0.000257764 0)
(0.00228438 0.000274056 0)
(0.00225253 0.000290031 0)
(0.00221888 0.000305666 0)
(0.00218345 0.000320937 0)
(0.00214629 0.00033582 0)
(0.00210744 0.000350288 0)
(0.00206696 0.000364316 0)
(0.00202488 0.000377878 0)
(0.00198127 0.000390944 0)
(0.00193618 0.000403486 0)
(0.00188968 0.000415474 0)
(0.00184181 0.000426878 0)
(0.00179266 0.000437666 0)
(0.00174229 0.000447804 0)
(0.00169078 0.000457259 0)
(0.0016382 0.000465996 0)
(0.00158464 0.000473977 0)
(0.00153018 0.000481167 0)
(0.0014749 0.000487525 0)
(0.00141892 0.000493014 0)
(0.00136231 0.000497591 0)
(0.00130519 0.000501216 0)