/*--------------------------------*- C++ -*----------------------------------*\
  =========                 |
  \\      /  F ield         | OpenFOAM: The Open Source CFD Toolbox
   \\    /   O peration     | Website:  https://openfoam.org
    \\  /    A nd           | Version:  12
     \\/     M anipulation  |
\*---------------------------------------------------------------------------*/
FoamFile
{
    format      ascii;
    class       volScalarField;
    location    "2.5";
    object      epsilon;
}
// * * * * * * * * * * * * * * * * * * * * * * * * * * * * * * * * * * * * * //

dimensions      [0 2 -3 0 0 0 0];

internalField   nonuniform List<scalar> 
18225
(
1.28271e-06
2.42297e-06
5.14109e-06
8.39494e-06
1.20747e-05
1.61e-05
2.04145e-05
2.49774e-05
2.97573e-05
3.47286e-05
3.98695e-05
4.51611e-05
5.05866e-05
5.61307e-05
6.17791e-05
6.75186e-05
7.33369e-05
7.92219e-05
8.51625e-05
9.11479e-05
9.71675e-05
0.000103211
0.00010927
0.000115333
0.000121392
0.000127438
0.000133462
0.000139455
0.00014541
0.000151318
0.000157172
0.000162963
0.000168686
0.000174331
0.000179893
0.000185364
0.000190739
0.00019601
0.000201172
0.000206219
0.000211145
0.000215945
0.000220613
0.000225144
0.000229534
0.000233778
0.000237872
0.00024181
0.00024559
0.000249208
0.00025266
0.000255942
0.000259052
0.000261986
0.000264741
0.000267316
0.000269707
0.000271913
0.000273931
0.00027576
0.000277397
0.000278841
0.000280092
0.000281147
0.000282005
0.000282666
0.00028313
0.000283395
0.000283461
0.000283329
0.000282997
0.000282466
0.000281737
0.000280809
0.000279683
0.000278361
0.000276842
0.000275129
0.000273222
0.000271123
0.000268833
0.000266355
0.00026369
0.00026084
0.000257808
0.000254597
0.000251208
0.000247645
0.000243912
0.000240011
0.000235946
0.000231721
0.00022734
0.000222808
0.000218128
0.000213306
0.000208346
0.000203253
0.000198034
0.000192694
0.000187238
0.000181674
0.000176007
0.000170245
0.000164395
0.000158463
0.000152457
0.000146387
0.000140258
0.000134081
0.000127864
0.000121617
0.000115348
0.000109068
0.000102786
9.65148e-05
9.02638e-05
8.4045e-05
7.78707e-05
7.17533e-05
6.57062e-05
5.97436e-05
5.38804e-05
4.81327e-05
4.25179e-05
3.70552e-05
3.17658e-05
2.66741e-05
2.18086e-05
1.72042e-05
1.29056e-05
8.97387e-06
5.49606e-06
2.59031e-06
1.37128e-06
8.67891e-06
4.71998e-06
4.59003e-06
5.48326e-06
6.86459e-06
8.54496e-06
1.04356e-05
1.24873e-05
1.46692e-05
1.69599e-05
1.93436e-05
2.18079e-05
2.43423e-05
2.6938e-05
2.95871e-05
3.22826e-05
3.50179e-05
3.77868e-05
4.05839e-05
4.34035e-05
4.62405e-05
4.90901e-05
5.19474e-05
5.48079e-05
5.7667e-05
6.05204e-05
6.33641e-05
6.61939e-05
6.90058e-05
7.17961e-05
7.45609e-05
7.72968e-05
8e-05
8.26674e-05
8.52954e-05
8.7881e-05
9.04211e-05
9.29125e-05
9.53525e-05
9.77382e-05
0.000100067
0.000102336
0.000104543
0.000106686
0.000108762
0.000110769
0.000112705
0.000114568
0.000116356
0.000118067
0.0001197
0.000121253
0.000122725
0.000124113
0.000125418
0.000126636
0.000127768
0.000128813
0.000129768
0.000130634
0.00013141
0.000132094
0.000132687
0.000133187
0.000133594
0.000133908
0.000134128
0.000134254
0.000134287
0.000134225
0.000134069
0.000133819
0.000133474
0.000133036
0.000132505
0.00013188
0.000131162
0.000130352
0.00012945
0.000128458
0.000127375
0.000126203
0.000124942
0.000123594
0.00012216
0.000120641
0.000119038
0.000117353
0.000115587
0.000113742
0.000111819
0.00010982
0.000107748
0.000105604
0.000103391
0.00010111
9.87641e-05
9.63559e-05
9.38878e-05
9.13626e-05
8.87831e-05
8.61525e-05
8.34736e-05
8.07499e-05
7.79847e-05
7.51815e-05
7.2344e-05
6.9476e-05
6.65815e-05
6.36645e-05
6.07293e-05
5.77803e-05
5.48223e-05
5.18599e-05
4.88981e-05
4.59422e-05
4.29976e-05
4.00701e-05
3.71656e-05
3.42906e-05
3.14518e-05
2.86566e-05
2.5913e-05
2.32298e-05
2.0617e-05
1.80861e-05
1.5651e-05
1.3329e-05
1.11435e-05
9.12796e-06
7.33549e-06
5.86138e-06
4.90807e-06
5.04782e-06
9.28008e-06
1.93288e-05
9.4679e-06
7.28421e-06
6.86025e-06
7.18152e-06
7.91849e-06
8.92429e-06
1.01205e-05
1.14601e-05
1.29125e-05
1.44563e-05
1.6076e-05
1.77595e-05
1.94972e-05
2.12813e-05
2.31048e-05
2.49619e-05
2.68473e-05
2.87562e-05
3.06842e-05
3.26271e-05
3.45812e-05
3.65427e-05
3.85082e-05
4.04744e-05
4.2438e-05
4.43962e-05
4.63457e-05
4.8284e-05
5.02081e-05
5.21154e-05
5.40034e-05
5.58695e-05
5.77113e-05
5.95266e-05
6.13129e-05
6.30682e-05
6.47904e-05
6.64774e-05
6.81272e-05
6.9738e-05
7.13079e-05
7.28352e-05
7.43183e-05
7.57554e-05
7.71451e-05
7.8486e-05
7.97766e-05
8.10155e-05
8.22016e-05
8.33336e-05
8.44104e-05
8.5431e-05
8.63942e-05
8.72993e-05
8.81452e-05
8.89313e-05
8.96566e-05
9.03206e-05
9.09226e-05
9.1462e-05
9.19383e-05
9.2351e-05
9.26997e-05
9.29841e-05
9.32038e-05
9.33586e-05
9.34483e-05
9.34728e-05
9.34321e-05
9.3326e-05
9.31545e-05
9.29177e-05
9.26158e-05
9.2249e-05
9.18175e-05
9.13216e-05
9.07616e-05
9.01381e-05
8.94514e-05
8.87021e-05
8.78907e-05
8.70181e-05
8.60848e-05
8.50916e-05
8.40395e-05
8.29293e-05
8.1762e-05
8.05387e-05
7.92605e-05
7.79287e-05
7.65444e-05
7.51092e-05
7.36243e-05
7.20915e-05
7.05121e-05
6.8888e-05
6.72209e-05
6.55126e-05
6.37652e-05
6.19807e-05
6.01611e-05
5.83088e-05
5.64261e-05
5.45153e-05
5.25791e-05
5.062e-05
4.86409e-05
4.66446e-05
4.46342e-05
4.26126e-05
4.05833e-05
3.85497e-05
3.65153e-05
3.44839e-05
3.24595e-05
3.04465e-05
2.84492e-05
2.64727e-05
2.45223e-05
2.26037e-05
2.07237e-05
1.88896e-05
1.71103e-05
1.53963e-05
1.37607e-05
1.22205e-05
1.07987e-05
9.52827e-06
8.45983e-06
7.67743e-06
7.33833e-06
7.79513e-06
1.01333e-05
2.06832e-05
3.20359e-05
1.53559e-05
1.11003e-05
9.52995e-06
9.0274e-06
9.09135e-06
9.50793e-06
1.01665e-05
1.1002e-05
1.19729e-05
1.30507e-05
1.42149e-05
1.54503e-05
1.67449e-05
1.80894e-05
1.94758e-05
2.08975e-05
2.23489e-05
2.3825e-05
2.53214e-05
2.68339e-05
2.8359e-05
2.98932e-05
3.14333e-05
3.29764e-05
3.45196e-05
3.60603e-05
3.75959e-05
3.91239e-05
4.0642e-05
4.2148e-05
4.36397e-05
4.51151e-05
4.65721e-05
4.80088e-05
4.94233e-05
5.08139e-05
5.21788e-05
5.35164e-05
5.48251e-05
5.61033e-05
5.73495e-05
5.85623e-05
5.97405e-05
6.08826e-05
6.19874e-05
6.30537e-05
6.40805e-05
6.50665e-05
6.60108e-05
6.69125e-05
6.77705e-05
6.8584e-05
6.93522e-05
7.00743e-05
7.07497e-05
7.13775e-05
7.19572e-05
7.24883e-05
7.29701e-05
7.34022e-05
7.37842e-05
7.41156e-05
7.43962e-05
7.46255e-05
7.48034e-05
7.49297e-05
7.50041e-05
7.50265e-05
7.4997e-05
7.49154e-05
7.47816e-05
7.45957e-05
7.43579e-05
7.40684e-05
7.37272e-05
7.33346e-05
7.28909e-05
7.23964e-05
7.18516e-05
7.12568e-05
7.06125e-05
6.99192e-05
6.91776e-05
6.83883e-05
6.75519e-05
6.66693e-05
6.57412e-05
6.47685e-05
6.37522e-05
6.26932e-05
6.15926e-05
6.04515e-05
5.92711e-05
5.80527e-05
5.67977e-05
5.55073e-05
5.41831e-05
5.28267e-05
5.14397e-05
5.00238e-05
4.85808e-05
4.71125e-05
4.5621e-05
4.41083e-05
4.25766e-05
4.10282e-05
3.94653e-05
3.78906e-05
3.63066e-05
3.4716e-05
3.31219e-05
3.15272e-05
2.99353e-05
2.83495e-05
2.67737e-05
2.5212e-05
2.36687e-05
2.21487e-05
2.06576e-05
1.92016e-05
1.77879e-05
1.64251e-05
1.51234e-05
1.38957e-05
1.27586e-05
1.17341e-05
1.08527e-05
1.0159e-05
9.72278e-06
9.66253e-06
1.02073e-05
1.1894e-05
1.64552e-05
3.43222e-05
4.62521e-05
2.2008e-05
1.55573e-05
1.28595e-05
1.16045e-05
1.10901e-05
1.10245e-05
1.12604e-05
1.17132e-05
1.23298e-05
1.30741e-05
1.39206e-05
1.48504e-05
1.5849e-05
1.69048e-05
1.80087e-05
1.91529e-05
2.03311e-05
2.15375e-05
2.27674e-05
2.40164e-05
2.52807e-05
2.65568e-05
2.78414e-05
2.91315e-05
3.04245e-05
3.17177e-05
3.30087e-05
3.42951e-05
3.55748e-05
3.68457e-05
3.81059e-05
3.93533e-05
4.05863e-05
4.1803e-05
4.30019e-05
4.41812e-05
4.53395e-05
4.64753e-05
4.75871e-05
4.86737e-05
4.97337e-05
5.07658e-05
5.17689e-05
5.27418e-05
5.36834e-05
5.45926e-05
5.54686e-05
5.63102e-05
5.71166e-05
5.7887e-05
5.86206e-05
5.93164e-05
5.99739e-05
6.05924e-05
6.11711e-05
6.17096e-05
6.22072e-05
6.26634e-05
6.30777e-05
6.34498e-05
6.37791e-05
6.40654e-05
6.43083e-05
6.45075e-05
6.46629e-05
6.47741e-05
6.4841e-05
6.48636e-05
6.48417e-05
6.47752e-05
6.46641e-05
6.45085e-05
6.43085e-05
6.4064e-05
6.37754e-05
6.34428e-05
6.30664e-05
6.26465e-05
6.21834e-05
6.16776e-05
6.11294e-05
6.05393e-05
5.99077e-05
5.92354e-05
5.85228e-05
5.77707e-05
5.69798e-05
5.61508e-05
5.52845e-05
5.4382e-05
5.34441e-05
5.24718e-05
5.14662e-05
5.04285e-05
4.93599e-05
4.82615e-05
4.71349e-05
4.59813e-05
4.48024e-05
4.35996e-05
4.23746e-05
4.11292e-05
3.98652e-05
3.85844e-05
3.72891e-05
3.59812e-05
3.4663e-05
3.33369e-05
3.20054e-05
3.06712e-05
2.93372e-05
2.80063e-05
2.66818e-05
2.53674e-05
2.40668e-05
2.27844e-05
2.15248e-05
2.02934e-05
1.90963e-05
1.79406e-05
1.68345e-05
1.57881e-05
1.48138e-05
1.39271e-05
1.31483e-05
1.2505e-05
1.20355e-05
1.1797e-05
1.188e-05
1.24425e-05
1.37975e-05
1.66982e-05
2.36233e-05
4.96364e-05
6.16376e-05
2.92337e-05
2.04593e-05
1.66117e-05
1.46237e-05
1.35705e-05
1.30726e-05
1.29416e-05
1.30713e-05
1.33957e-05
1.3871e-05
1.44662e-05
1.51588e-05
1.59314e-05
1.67705e-05
1.76654e-05
1.86071e-05
1.95883e-05
2.06025e-05
2.16444e-05
2.27092e-05
2.37927e-05
2.48912e-05
2.60012e-05
2.71196e-05
2.82436e-05
2.93706e-05
3.0498e-05
3.16235e-05
3.27451e-05
3.38607e-05
3.49682e-05
3.6066e-05
3.71522e-05
3.82252e-05
3.92834e-05
4.03253e-05
4.13495e-05
4.23545e-05
4.33391e-05
4.43019e-05
4.52418e-05
4.61576e-05
4.70482e-05
4.79125e-05
4.87495e-05
4.95582e-05
5.03378e-05
5.10873e-05
5.18058e-05
5.24927e-05
5.31471e-05
5.37684e-05
5.43558e-05
5.49087e-05
5.54265e-05
5.59086e-05
5.63546e-05
5.67639e-05
5.7136e-05
5.74707e-05
5.77674e-05
5.80258e-05
5.82457e-05
5.84267e-05
5.85686e-05
5.86712e-05
5.87343e-05
5.87579e-05
5.87418e-05
5.86859e-05
5.85902e-05
5.84547e-05
5.82795e-05
5.80647e-05
5.78103e-05
5.75166e-05
5.71838e-05
5.68121e-05
5.64019e-05
5.59533e-05
5.54669e-05
5.49431e-05
5.43823e-05
5.37851e-05
5.31519e-05
5.24835e-05
5.17806e-05
5.10438e-05
5.02739e-05
4.94718e-05
4.86384e-05
4.77746e-05
4.68814e-05
4.59601e-05
4.50116e-05
4.40372e-05
4.30382e-05
4.2016e-05
4.09721e-05
3.99079e-05
3.88251e-05
3.77253e-05
3.66104e-05
3.54823e-05
3.43429e-05
3.31944e-05
3.20391e-05
3.08793e-05
2.97177e-05
2.85568e-05
2.73998e-05
2.62497e-05
2.511e-05
2.39844e-05
2.28772e-05
2.1793e-05
2.07369e-05
1.9715e-05
1.8734e-05
1.78021e-05
1.69287e-05
1.61255e-05
1.54071e-05
1.4792e-05
1.43043e-05
1.39772e-05
1.38577e-05
1.40165e-05
1.45678e-05
1.57137e-05
1.7862e-05
2.20071e-05
3.1447e-05
6.62905e-05
7.79461e-05
3.6906e-05
2.56948e-05
2.06652e-05
1.79446e-05
1.63693e-05
1.54648e-05
1.4998e-05
1.48389e-05
1.49076e-05
1.51516e-05
1.55343e-05
1.60293e-05
1.66165e-05
1.72802e-05
1.8008e-05
1.87898e-05
1.96172e-05
2.04832e-05
2.13816e-05
2.23071e-05
2.32551e-05
2.42215e-05
2.52026e-05
2.61951e-05
2.7196e-05
2.82025e-05
2.9212e-05
3.02222e-05
3.1231e-05
3.22361e-05
3.32357e-05
3.42279e-05
3.52109e-05
3.61833e-05
3.71433e-05
3.80894e-05
3.90204e-05
3.99348e-05
4.08313e-05
4.17088e-05
4.2566e-05
4.34019e-05
4.42153e-05
4.50052e-05
4.57707e-05
4.65109e-05
4.72248e-05
4.79116e-05
4.85706e-05
4.92008e-05
4.98017e-05
5.03725e-05
5.09127e-05
5.14214e-05
5.18983e-05
5.23427e-05
5.27542e-05
5.31322e-05
5.34763e-05
5.37862e-05
5.40614e-05
5.43016e-05
5.45065e-05
5.46758e-05
5.48093e-05
5.49067e-05
5.4968e-05
5.49929e-05
5.49814e-05
5.49334e-05
5.48487e-05
5.47275e-05
5.45697e-05
5.43755e-05
5.4145e-05
5.38782e-05
5.35755e-05
5.32369e-05
5.28629e-05
5.24537e-05
5.20097e-05
5.15312e-05
5.10188e-05
5.04729e-05
4.98941e-05
4.92829e-05
4.86401e-05
4.79664e-05
4.72624e-05
4.65291e-05
4.57673e-05
4.4978e-05
4.41621e-05
4.33207e-05
4.24551e-05
4.15663e-05
4.06557e-05
3.97247e-05
3.87747e-05
3.78072e-05
3.68239e-05
3.58264e-05
3.48167e-05
3.37967e-05
3.27683e-05
3.17339e-05
3.06957e-05
2.96562e-05
2.86181e-05
2.75843e-05
2.65579e-05
2.55422e-05
2.45411e-05
2.35585e-05
2.2599e-05
2.16677e-05
2.07703e-05
1.99134e-05
1.91048e-05
1.83535e-05
1.76705e-05
1.70691e-05
1.65661e-05
1.61827e-05
1.59476e-05
1.58999e-05
1.60958e-05
1.66212e-05
1.76161e-05
1.93313e-05
2.22782e-05
2.77108e-05
3.98043e-05
8.40504e-05
9.4982e-05
4.49281e-05
3.11863e-05
2.49435e-05
2.14839e-05
1.9393e-05
1.80961e-05
1.73124e-05
1.68862e-05
1.67227e-05
1.67602e-05
1.69561e-05
1.72797e-05
1.77081e-05
1.82233e-05
1.88115e-05
1.9461e-05
2.01626e-05
2.09084e-05
2.16915e-05
2.25062e-05
2.33473e-05
2.42106e-05
2.50918e-05
2.59875e-05
2.68945e-05
2.78097e-05
2.87304e-05
2.96542e-05
3.05788e-05
3.15019e-05
3.24216e-05
3.3336e-05
3.42434e-05
3.51421e-05
3.60306e-05
3.69072e-05
3.77707e-05
3.86196e-05
3.94528e-05
4.0269e-05
4.10669e-05
4.18456e-05
4.2604e-05
4.3341e-05
4.40558e-05
4.47473e-05
4.54148e-05
4.60573e-05
4.66742e-05
4.72647e-05
4.7828e-05
4.83635e-05
4.88705e-05
4.93485e-05
4.97969e-05
5.02151e-05
5.06026e-05
5.0959e-05
5.12839e-05
5.15767e-05
5.18373e-05
5.20651e-05
5.22599e-05
5.24215e-05
5.25495e-05
5.26438e-05
5.27042e-05
5.27305e-05
5.27226e-05
5.26805e-05
5.2604e-05
5.24932e-05
5.23481e-05
5.21688e-05
5.19553e-05
5.17078e-05
5.14265e-05
5.11116e-05
5.07633e-05
5.0382e-05
4.9968e-05
4.95217e-05
4.90436e-05
4.85341e-05
4.79937e-05
4.74232e-05
4.6823e-05
4.6194e-05
4.55369e-05
4.48525e-05
4.41417e-05
4.34054e-05
4.26447e-05
4.18607e-05
4.10545e-05
4.02274e-05
3.93806e-05
3.85156e-05
3.76338e-05
3.67369e-05
3.58265e-05
3.49044e-05
3.39724e-05
3.30327e-05
3.20873e-05
3.11386e-05
3.0189e-05
2.92411e-05
2.82979e-05
2.73622e-05
2.64375e-05
2.55274e-05
2.46359e-05
2.37674e-05
2.29269e-05
2.212e-05
2.13531e-05
2.06334e-05
1.99697e-05
1.93718e-05
1.88523e-05
1.8426e-05
1.81121e-05
1.79353e-05
1.79284e-05
1.81372e-05
1.86281e-05
1.95031e-05
2.09301e-05
2.32125e-05
2.69714e-05
3.3736e-05
4.86059e-05
0.000102737
0.000112582
5.32204e-05
3.68736e-05
2.93908e-05
2.51846e-05
2.25806e-05
2.08998e-05
1.98114e-05
1.91327e-05
1.87534e-05
1.8602e-05
1.86293e-05
1.88004e-05
1.9089e-05
1.94752e-05
1.99432e-05
2.04802e-05
2.10758e-05
2.17211e-05
2.2409e-05
2.31328e-05
2.38872e-05
2.46672e-05
2.54685e-05
2.62874e-05
2.71202e-05
2.79639e-05
2.88156e-05
2.96726e-05
3.05326e-05
3.13932e-05
3.22524e-05
3.31083e-05
3.3959e-05
3.48027e-05
3.56379e-05
3.6463e-05
3.72767e-05
3.80775e-05
3.88641e-05
3.96353e-05
4.03899e-05
4.11269e-05
4.18452e-05
4.25437e-05
4.32217e-05
4.3878e-05
4.45119e-05
4.51226e-05
4.57092e-05
4.62711e-05
4.68075e-05
4.73177e-05
4.78011e-05
4.82572e-05
4.86852e-05
4.90848e-05
4.94554e-05
4.97966e-05
5.01078e-05
5.03888e-05
5.0639e-05
5.08582e-05
5.10461e-05
5.12024e-05
5.13268e-05
5.1419e-05
5.1479e-05
5.15066e-05
5.15016e-05
5.1464e-05
5.13936e-05
5.12905e-05
5.11546e-05
5.09861e-05
5.0785e-05
5.05514e-05
5.02856e-05
4.99877e-05
4.9658e-05
4.92968e-05
4.89045e-05
4.84813e-05
4.80279e-05
4.75445e-05
4.70319e-05
4.64906e-05
4.59213e-05
4.53246e-05
4.47014e-05
4.40525e-05
4.33787e-05
4.26812e-05
4.19608e-05
4.12188e-05
4.04563e-05
3.96746e-05
3.8875e-05
3.80591e-05
3.72283e-05
3.63843e-05
3.55289e-05
3.46639e-05
3.37913e-05
3.29132e-05
3.2032e-05
3.11499e-05
3.02695e-05
2.93938e-05
2.85257e-05
2.76686e-05
2.68259e-05
2.60018e-05
2.52005e-05
2.44268e-05
2.36861e-05
2.29844e-05
2.23286e-05
2.17269e-05
2.11887e-05
2.07254e-05
2.03505e-05
2.0081e-05
1.99385e-05
1.9951e-05
2.01561e-05
2.06067e-05
2.13799e-05
2.2595e-05
2.44498e-05
2.73026e-05
3.18898e-05
4.00281e-05
5.77807e-05
0.000122206
0.000130602
6.17143e-05
4.27065e-05
3.39631e-05
2.90038e-05
2.58877e-05
2.38286e-05
2.24441e-05
2.15238e-05
2.0941e-05
2.06137e-05
2.04863e-05
2.05191e-05
2.06826e-05
2.09545e-05
2.13172e-05
2.17565e-05
2.22611e-05
2.28211e-05
2.34287e-05
2.40767e-05
2.47592e-05
2.54709e-05
2.62073e-05
2.6964e-05
2.77375e-05
2.85243e-05
2.93215e-05
3.01261e-05
3.09357e-05
3.17479e-05
3.25605e-05
3.33714e-05
3.41788e-05
3.49808e-05
3.57757e-05
3.65621e-05
3.73385e-05
3.81033e-05
3.88554e-05
3.95934e-05
4.03162e-05
4.10227e-05
4.17117e-05
4.23823e-05
4.30335e-05
4.36643e-05
4.4274e-05
4.48616e-05
4.54265e-05
4.59678e-05
4.64848e-05
4.69769e-05
4.74434e-05
4.78838e-05
4.82974e-05
4.86837e-05
4.90423e-05
4.93726e-05
4.96742e-05
4.99466e-05
5.01897e-05
5.04028e-05
5.05858e-05
5.07384e-05
5.08603e-05
5.09512e-05
5.10111e-05
5.10396e-05
5.10368e-05
5.10026e-05
5.09366e-05
5.0839e-05
5.07099e-05
5.05492e-05
5.0357e-05
5.01335e-05
4.98789e-05
4.95932e-05
4.92769e-05
4.89302e-05
4.85534e-05
4.81469e-05
4.77112e-05
4.72467e-05
4.67541e-05
4.6234e-05
4.56869e-05
4.51137e-05
4.45152e-05
4.38921e-05
4.32455e-05
4.25763e-05
4.18857e-05
4.11747e-05
4.04446e-05
3.96968e-05
3.89326e-05
3.81535e-05
3.73613e-05
3.65576e-05
3.57443e-05
3.49233e-05
3.40967e-05
3.32668e-05
3.24361e-05
3.1607e-05
3.07824e-05
2.99652e-05
2.91587e-05
2.83664e-05
2.7592e-05
2.68398e-05
2.61145e-05
2.54212e-05
2.47658e-05
2.41549e-05
2.35962e-05
2.30983e-05
2.26718e-05
2.2329e-05
2.20852e-05
2.19593e-05
2.19754e-05
2.21649e-05
2.25709e-05
2.32534e-05
2.43011e-05
2.58513e-05
2.81329e-05
3.15617e-05
3.69936e-05
4.65429e-05
6.72697e-05
0.000142335
0.000148917
7.03493e-05
4.86415e-05
3.86232e-05
3.29067e-05
2.92797e-05
2.68468e-05
2.51732e-05
2.40197e-05
2.32428e-05
2.27501e-05
2.24789e-05
2.23847e-05
2.24348e-05
2.26041e-05
2.28734e-05
2.32271e-05
2.36526e-05
2.41393e-05
2.46784e-05
2.52624e-05
2.58849e-05
2.65401e-05
2.7223e-05
2.79293e-05
2.86549e-05
2.93962e-05
3.015e-05
3.09134e-05
3.16836e-05
3.24582e-05
3.32348e-05
3.40112e-05
3.47856e-05
3.5556e-05
3.63207e-05
3.70781e-05
3.78266e-05
3.85648e-05
3.92914e-05
4.0005e-05
4.07044e-05
4.13885e-05
4.20561e-05
4.27064e-05
4.33382e-05
4.39506e-05
4.45428e-05
4.51139e-05
4.56631e-05
4.61897e-05
4.66929e-05
4.71721e-05
4.76266e-05
4.80559e-05
4.84592e-05
4.88362e-05
4.91863e-05
4.95089e-05
4.98038e-05
5.00703e-05
5.03083e-05
5.05173e-05
5.06969e-05
5.08469e-05
5.09671e-05
5.10571e-05
5.11169e-05
5.11462e-05
5.11449e-05
5.1113e-05
5.10502e-05
5.09565e-05
5.0832e-05
5.06768e-05
5.04909e-05
5.02745e-05
5.00276e-05
4.97506e-05
4.94436e-05
4.9107e-05
4.87411e-05
4.83464e-05
4.79232e-05
4.74721e-05
4.69937e-05
4.64885e-05
4.59573e-05
4.54009e-05
4.482e-05
4.42156e-05
4.35886e-05
4.294e-05
4.22711e-05
4.1583e-05
4.0877e-05
4.01545e-05
3.9417e-05
3.86661e-05
3.79034e-05
3.71309e-05
3.63503e-05
3.55639e-05
3.47738e-05
3.39824e-05
3.31922e-05
3.24059e-05
3.16266e-05
3.08574e-05
3.01017e-05
2.93633e-05
2.86463e-05
2.79552e-05
2.7295e-05
2.66714e-05
2.60906e-05
2.55597e-05
2.50871e-05
2.46824e-05
2.43569e-05
2.41243e-05
2.40013e-05
2.4009e-05
2.4174e-05
2.45319e-05
2.51308e-05
2.60385e-05
2.73556e-05
2.92384e-05
3.19477e-05
3.59587e-05
4.22505e-05
5.32433e-05
7.70215e-05
0.000163016
0.000167412
7.90708e-05
5.46397e-05
4.33389e-05
3.68637e-05
3.27279e-05
2.99258e-05
2.79689e-05
2.65893e-05
2.56264e-05
2.49769e-05
2.4571e-05
2.43593e-05
2.43055e-05
2.43821e-05
2.45679e-05
2.48458e-05
2.5202e-05
2.56252e-05
2.61057e-05
2.66355e-05
2.72076e-05
2.78158e-05
2.84549e-05
2.912e-05
2.9807e-05
3.0512e-05
3.12315e-05
3.19625e-05
3.27021e-05
3.34477e-05
3.41968e-05
3.49471e-05
3.56967e-05
3.64435e-05
3.71857e-05
3.79217e-05
3.86499e-05
3.93687e-05
4.00768e-05
4.07728e-05
4.14554e-05
4.21236e-05
4.27761e-05
4.34119e-05
4.40301e-05
4.46296e-05
4.52095e-05
4.5769e-05
4.63074e-05
4.68237e-05
4.73174e-05
4.77876e-05
4.82338e-05
4.86554e-05
4.90516e-05
4.94221e-05
4.97663e-05
5.00837e-05
5.03739e-05
5.06364e-05
5.08708e-05
5.10769e-05
5.12541e-05
5.14024e-05
5.15213e-05
5.16107e-05
5.16703e-05
5.17e-05
5.16995e-05
5.16691e-05
5.16083e-05
5.15172e-05
5.13958e-05
5.12442e-05
5.10624e-05
5.08506e-05
5.0609e-05
5.03377e-05
5.0037e-05
4.97072e-05
4.93487e-05
4.8962e-05
4.85473e-05
4.81054e-05
4.76368e-05
4.7142e-05
4.66219e-05
4.60772e-05
4.55088e-05
4.49176e-05
4.43047e-05
4.3671e-05
4.30178e-05
4.23463e-05
4.16579e-05
4.09541e-05
4.02364e-05
3.95065e-05
3.87662e-05
3.80174e-05
3.72621e-05
3.65026e-05
3.57411e-05
3.49802e-05
3.42226e-05
3.34711e-05
3.2729e-05
3.19995e-05
3.12864e-05
3.05936e-05
2.99256e-05
2.92872e-05
2.86837e-05
2.81211e-05
2.76064e-05
2.7147e-05
2.67521e-05
2.6432e-05
2.61992e-05
2.60685e-05
2.60584e-05
2.61919e-05
2.64988e-05
2.70184e-05
2.78043e-05
2.89326e-05
3.05159e-05
3.27299e-05
3.58686e-05
4.04679e-05
4.7633e-05
6.00968e-05
8.69911e-05
0.000184155
0.000185982
8.7829e-05
6.06663e-05
4.80814e-05
4.08491e-05
3.6208e-05
3.30413e-05
3.08069e-05
2.92078e-05
2.80659e-05
2.72671e-05
2.67344e-05
2.64132e-05
2.62638e-05
2.62561e-05
2.63666e-05
2.65771e-05
2.68726e-05
2.72406e-05
2.76709e-05
2.81547e-05
2.86846e-05
2.92539e-05
2.98571e-05
3.04889e-05
3.1145e-05
3.18213e-05
3.25141e-05
3.32201e-05
3.39363e-05
3.466e-05
3.53885e-05
3.61196e-05
3.6851e-05
3.75808e-05
3.83069e-05
3.90277e-05
3.97416e-05
4.04468e-05
4.11421e-05
4.1826e-05
4.24972e-05
4.31545e-05
4.37968e-05
4.4423e-05
4.5032e-05
4.56229e-05
4.61947e-05
4.67466e-05
4.72778e-05
4.77874e-05
4.82748e-05
4.87391e-05
4.91799e-05
4.95964e-05
4.99881e-05
5.03543e-05
5.06947e-05
5.10086e-05
5.12957e-05
5.15555e-05
5.17876e-05
5.19916e-05
5.21673e-05
5.23142e-05
5.24322e-05
5.2521e-05
5.25804e-05
5.26102e-05
5.26102e-05
5.25806e-05
5.25209e-05
5.24312e-05
5.23116e-05
5.21621e-05
5.19828e-05
5.17737e-05
5.15352e-05
5.12674e-05
5.09705e-05
5.06449e-05
5.0291e-05
4.99092e-05
4.94999e-05
4.90637e-05
4.86012e-05
4.81131e-05
4.76001e-05
4.70631e-05
4.65029e-05
4.59204e-05
4.53169e-05
4.46933e-05
4.40509e-05
4.3391e-05
4.27152e-05
4.20248e-05
4.13215e-05
4.06071e-05
3.98835e-05
3.91526e-05
3.84167e-05
3.7678e-05
3.6939e-05
3.62024e-05
3.5471e-05
3.47479e-05
3.40364e-05
3.33401e-05
3.26629e-05
3.20091e-05
3.13832e-05
3.07906e-05
3.02369e-05
2.97286e-05
2.92729e-05
2.88781e-05
2.8554e-05
2.83118e-05
2.81649e-05
2.81296e-05
2.8226e-05
2.84794e-05
2.89226e-05
2.95987e-05
3.05673e-05
3.19126e-05
3.37598e-05
3.63046e-05
3.98746e-05
4.50675e-05
5.31171e-05
6.70746e-05
9.71378e-05
0.000205668
0.000204531
9.65785e-05
6.66893e-05
5.28248e-05
4.484e-05
3.96986e-05
3.61727e-05
3.36668e-05
3.18544e-05
3.054e-05
2.95988e-05
2.89461e-05
2.85227e-05
2.82849e-05
2.82001e-05
2.82429e-05
2.83934e-05
2.86353e-05
2.89555e-05
2.93428e-05
2.97878e-05
3.02825e-05
3.08199e-05
3.1394e-05
3.19993e-05
3.26312e-05
3.32852e-05
3.39577e-05
3.4645e-05
3.5344e-05
3.60518e-05
3.67657e-05
3.74832e-05
3.82021e-05
3.89202e-05
3.96356e-05
4.03464e-05
4.10508e-05
4.17474e-05
4.24346e-05
4.31109e-05
4.3775e-05
4.44257e-05
4.50618e-05
4.56822e-05
4.62858e-05
4.68716e-05
4.74386e-05
4.79861e-05
4.85131e-05
4.90188e-05
4.95025e-05
4.99635e-05
5.04011e-05
5.08147e-05
5.12037e-05
5.15675e-05
5.19056e-05
5.22174e-05
5.25027e-05
5.27608e-05
5.29914e-05
5.31942e-05
5.33687e-05
5.35148e-05
5.3632e-05
5.37203e-05
5.37793e-05
5.38089e-05
5.38089e-05
5.37794e-05
5.372e-05
5.36308e-05
5.35118e-05
5.33632e-05
5.31848e-05
5.2977e-05
5.27399e-05
5.24736e-05
5.21785e-05
5.18549e-05
5.15032e-05
5.11238e-05
5.07172e-05
5.0284e-05
4.98248e-05
4.93403e-05
4.88312e-05
4.82985e-05
4.77431e-05
4.71659e-05
4.6568e-05
4.59507e-05
4.53152e-05
4.46629e-05
4.39953e-05
4.3314e-05
4.26207e-05
4.19173e-05
4.12057e-05
4.04881e-05
3.97667e-05
3.90439e-05
3.83224e-05
3.7605e-05
3.68947e-05
3.61946e-05
3.55084e-05
3.48398e-05
3.4193e-05
3.35725e-05
3.29833e-05
3.24308e-05
3.19211e-05
3.14613e-05
3.10589e-05
3.07231e-05
3.04641e-05
3.02941e-05
3.02277e-05
3.02824e-05
3.04801e-05
3.08486e-05
3.14235e-05
3.22522e-05
3.33999e-05
3.49596e-05
3.7069e-05
3.99444e-05
4.39472e-05
4.97383e-05
5.86814e-05
7.41508e-05
0.000107425
0.000227475
0.000222971
0.000105277
7.26796e-05
5.75455e-05
4.88157e-05
4.31807e-05
3.9302e-05
3.65307e-05
3.45111e-05
3.30307e-05
3.19534e-05
3.11873e-05
3.06681e-05
3.03485e-05
3.01933e-05
3.01749e-05
3.02718e-05
3.04669e-05
3.07456e-05
3.10963e-05
3.15087e-05
3.19745e-05
3.24861e-05
3.30372e-05
3.36219e-05
3.42354e-05
3.4873e-05
3.55306e-05
3.62047e-05
3.68918e-05
3.75889e-05
3.82932e-05
3.90021e-05
3.97133e-05
4.04244e-05
4.11335e-05
4.18386e-05
4.2538e-05
4.323e-05
4.3913e-05
4.45856e-05
4.52463e-05
4.58939e-05
4.65272e-05
4.7145e-05
4.77462e-05
4.83298e-05
4.88949e-05
4.94405e-05
4.99658e-05
5.047e-05
5.09522e-05
5.14119e-05
5.18482e-05
5.22606e-05
5.26484e-05
5.30112e-05
5.33483e-05
5.36592e-05
5.39436e-05
5.42008e-05
5.44307e-05
5.46327e-05
5.48066e-05
5.4952e-05
5.50686e-05
5.51563e-05
5.52147e-05
5.52438e-05
5.52433e-05
5.52135e-05
5.51537e-05
5.50641e-05
5.49448e-05
5.47959e-05
5.46174e-05
5.44094e-05
5.41722e-05
5.39059e-05
5.36108e-05
5.32874e-05
5.29359e-05
5.25569e-05
5.21509e-05
5.17183e-05
5.126e-05
5.07766e-05
5.02688e-05
4.97377e-05
4.91842e-05
4.86092e-05
4.8014e-05
4.73998e-05
4.67679e-05
4.61198e-05
4.5457e-05
4.47813e-05
4.40943e-05
4.33981e-05
4.26947e-05
4.19864e-05
4.12754e-05
4.05645e-05
3.98563e-05
3.91537e-05
3.846e-05
3.77786e-05
3.71132e-05
3.64677e-05
3.58467e-05
3.52548e-05
3.46973e-05
3.41802e-05
3.37098e-05
3.32936e-05
3.29398e-05
3.2658e-05
3.24594e-05
3.23569e-05
3.23664e-05
3.25066e-05
3.28016e-05
3.3281e-05
3.39839e-05
3.49618e-05
3.6286e-05
3.80578e-05
4.04281e-05
4.36336e-05
4.80704e-05
5.44629e-05
6.43065e-05
8.13015e-05
0.000117818
0.000249507
0.000241221
0.000113887
7.86105e-05
6.2222e-05
5.27577e-05
4.66373e-05
4.2413e-05
3.9383e-05
3.71628e-05
3.55225e-05
3.43152e-05
3.34419e-05
3.2833e-05
3.24378e-05
3.2218e-05
3.21445e-05
3.2194e-05
3.23479e-05
3.2591e-05
3.29108e-05
3.32964e-05
3.37388e-05
3.42302e-05
3.47636e-05
3.5333e-05
3.59332e-05
3.65594e-05
3.72072e-05
3.78728e-05
3.85527e-05
3.92437e-05
3.99429e-05
4.06475e-05
4.13551e-05
4.20633e-05
4.27701e-05
4.34734e-05
4.41714e-05
4.48623e-05
4.55446e-05
4.62166e-05
4.68771e-05
4.75246e-05
4.8158e-05
4.87759e-05
4.93774e-05
4.99613e-05
5.05268e-05
5.10728e-05
5.15984e-05
5.2103e-05
5.25856e-05
5.30455e-05
5.34821e-05
5.38948e-05
5.42828e-05
5.46456e-05
5.49828e-05
5.52937e-05
5.55779e-05
5.58351e-05
5.60647e-05
5.62664e-05
5.64398e-05
5.65847e-05
5.67008e-05
5.67879e-05
5.68456e-05
5.68739e-05
5.68726e-05
5.68418e-05
5.67809e-05
5.66903e-05
5.65699e-05
5.64198e-05
5.624e-05
5.60307e-05
5.57921e-05
5.55245e-05
5.5228e-05
5.49032e-05
5.45503e-05
5.417e-05
5.37626e-05
5.33288e-05
5.28693e-05
5.23848e-05
5.18762e-05
5.13443e-05
5.07903e-05
5.02151e-05
4.96199e-05
4.90062e-05
4.83751e-05
4.77283e-05
4.70675e-05
4.63942e-05
4.57105e-05
4.50183e-05
4.43198e-05
4.36174e-05
4.29135e-05
4.22109e-05
4.15123e-05
4.0821e-05
4.01402e-05
3.94736e-05
3.88251e-05
3.81989e-05
3.75996e-05
3.70323e-05
3.65026e-05
3.60167e-05
3.55815e-05
3.52048e-05
3.48954e-05
3.46636e-05
3.45212e-05
3.44824e-05
3.45637e-05
3.47858e-05
3.51743e-05
3.57614e-05
3.6589e-05
3.77134e-05
3.92115e-05
4.11935e-05
4.38235e-05
4.73586e-05
5.223e-05
5.92261e-05
6.99747e-05
8.85051e-05
0.000128286
0.000271696
0.000259206
0.000122374
8.44577e-05
6.6835e-05
5.66491e-05
5.00531e-05
4.54914e-05
4.22099e-05
3.97957e-05
3.8002e-05
3.66709e-05
3.56963e-05
3.50035e-05
3.45382e-05
3.42597e-05
3.41366e-05
3.41441e-05
3.42623e-05
3.44753e-05
3.47694e-05
3.51333e-05
3.55575e-05
3.60335e-05
3.65541e-05
3.7113e-05
3.77046e-05
3.83239e-05
3.89663e-05
3.96277e-05
4.03047e-05
4.09936e-05
4.16916e-05
4.23958e-05
4.31036e-05
4.38125e-05
4.45204e-05
4.52252e-05
4.5925e-05
4.6618e-05
4.73025e-05
4.7977e-05
4.86399e-05
4.929e-05
4.99258e-05
5.05463e-05
5.11503e-05
5.17367e-05
5.23045e-05
5.28528e-05
5.33806e-05
5.38871e-05
5.43716e-05
5.48334e-05
5.52716e-05
5.56856e-05
5.60749e-05
5.64388e-05
5.67769e-05
5.70885e-05
5.73733e-05
5.76308e-05
5.78606e-05
5.80623e-05
5.82356e-05
5.83801e-05
5.84957e-05
5.8582e-05
5.86389e-05
5.86661e-05
5.86636e-05
5.86314e-05
5.8569e-05
5.84766e-05
5.83543e-05
5.82022e-05
5.80202e-05
5.78086e-05
5.75676e-05
5.72974e-05
5.69983e-05
5.66708e-05
5.63151e-05
5.59318e-05
5.55215e-05
5.50848e-05
5.46224e-05
5.4135e-05
5.36236e-05
5.30891e-05
5.25325e-05
5.19549e-05
5.13576e-05
5.0742e-05
5.01094e-05
4.94615e-05
4.88e-05
4.81267e-05
4.74435e-05
4.67526e-05
4.60562e-05
4.53568e-05
4.4657e-05
4.39597e-05
4.32677e-05
4.25844e-05
4.19133e-05
4.12583e-05
4.06233e-05
4.00129e-05
3.94319e-05
3.88857e-05
3.83803e-05
3.7922e-05
3.75184e-05
3.71776e-05
3.69091e-05
3.67237e-05
3.66342e-05
3.66554e-05
3.68052e-05
3.7106e-05
3.75848e-05
3.82766e-05
3.92263e-05
4.04945e-05
4.21644e-05
4.43548e-05
4.7243e-05
5.11069e-05
5.64128e-05
6.40134e-05
7.56698e-05
9.57411e-05
0.000138801
0.000293982
0.00027686
0.000130704
9.0199e-05
7.13666e-05
6.04749e-05
5.34146e-05
4.85246e-05
4.49995e-05
4.23983e-05
4.04574e-05
3.90086e-05
3.79386e-05
3.71676e-05
3.66379e-05
3.63059e-05
3.61384e-05
3.61091e-05
3.61967e-05
3.63844e-05
3.66578e-05
3.70048e-05
3.74153e-05
3.78806e-05
3.83929e-05
3.89457e-05
3.95329e-05
4.01494e-05
4.07904e-05
4.14517e-05
4.21294e-05
4.282e-05
4.35204e-05
4.42276e-05
4.49389e-05
4.56517e-05
4.63639e-05
4.70732e-05
4.77777e-05
4.84755e-05
4.91649e-05
4.98443e-05
5.05121e-05
5.1167e-05
5.18076e-05
5.24327e-05
5.30412e-05
5.36319e-05
5.42038e-05
5.4756e-05
5.52875e-05
5.57975e-05
5.62852e-05
5.67499e-05
5.71908e-05
5.76073e-05
5.79987e-05
5.83646e-05
5.87042e-05
5.90173e-05
5.93031e-05
5.95614e-05
5.97917e-05
5.99937e-05
6.0167e-05
6.03113e-05
6.04263e-05
6.05118e-05
6.05676e-05
6.05935e-05
6.05894e-05
6.05553e-05
6.04909e-05
6.03962e-05
6.02714e-05
6.01165e-05
5.99315e-05
5.97168e-05
5.94724e-05
5.91986e-05
5.88958e-05
5.85643e-05
5.82046e-05
5.78171e-05
5.74026e-05
5.69615e-05
5.64946e-05
5.60028e-05
5.54869e-05
5.49479e-05
5.4387e-05
5.38052e-05
5.32038e-05
5.25843e-05
5.19482e-05
5.12971e-05
5.06328e-05
4.99571e-05
4.92722e-05
4.85801e-05
4.78834e-05
4.71845e-05
4.64862e-05
4.57914e-05
4.51033e-05
4.44254e-05
4.37611e-05
4.31147e-05
4.24903e-05
4.18927e-05
4.13271e-05
4.07989e-05
4.03146e-05
3.9881e-05
3.95058e-05
3.91978e-05
3.8967e-05
3.88249e-05
3.87851e-05
3.88632e-05
3.90788e-05
3.94552e-05
4.00217e-05
4.08154e-05
4.18848e-05
4.32945e-05
4.5134e-05
4.7531e-05
5.06758e-05
5.48674e-05
6.0607e-05
6.88119e-05
8.13766e-05
0.000102991
0.000149334
0.000316307
0.000294121
0.000138849
9.58146e-05
7.58012e-05
6.42212e-05
5.67096e-05
5.15013e-05
4.77408e-05
4.496e-05
4.28788e-05
4.13185e-05
4.01587e-05
3.93151e-05
3.87262e-05
3.83461e-05
3.81392e-05
3.8078e-05
3.81399e-05
3.83069e-05
3.8564e-05
3.88986e-05
3.92999e-05
3.97586e-05
4.02668e-05
4.08174e-05
4.14042e-05
4.20217e-05
4.26651e-05
4.33297e-05
4.40117e-05
4.47074e-05
4.54135e-05
4.61268e-05
4.68446e-05
4.75643e-05
4.82835e-05
4.90001e-05
4.97118e-05