/*--------------------------------*- C++ -*----------------------------------*\
  =========                 |
  \\      /  F ield         | OpenFOAM: The Open Source CFD Toolbox
   \\    /   O peration     | Website:  https://openfoam.org
    \\  /    A nd           | Version:  12
     \\/     M anipulation  |
\*---------------------------------------------------------------------------*/
FoamFile
{
    format      ascii;
    class       volScalarField;
    location    "2.5";
    object      nut;
}
// * * * * * * * * * * * * * * * * * * * * * * * * * * * * * * * * * * * * * //

dimensions      [0 2 -1 0 0 0 0];

internalField   nonuniform List<scalar> 
18225
(
8.59142e-15
2.59659e-13
5.50951e-13
8.99654e-13
1.29401e-12
1.72538e-12
2.18776e-12
2.67677e-12
3.18904e-12
3.72181e-12
4.27278e-12
4.83992e-12
5.42141e-12
6.01562e-12
6.62103e-12
7.23622e-12
7.85985e-12
8.49067e-12
9.12746e-12
9.76906e-12
1.04144e-11
1.10623e-11
1.17118e-11
1.23618e-11
1.30114e-11
1.36596e-11
1.43055e-11
1.49482e-11
1.55867e-11
1.62203e-11
1.6848e-11
1.74692e-11
1.80829e-11
1.86884e-11
1.92849e-11
1.98718e-11
2.04484e-11
2.10139e-11
2.15677e-11
2.21091e-11
2.26377e-11
2.31527e-11
2.36536e-11
2.41399e-11
2.4611e-11
2.50665e-11
2.55058e-11
2.59286e-11
2.63344e-11
2.67228e-11
2.70934e-11
2.74459e-11
2.77798e-11
2.8095e-11
2.8391e-11
2.86676e-11
2.89245e-11
2.91615e-11
2.93784e-11
2.9575e-11
2.97511e-11
2.99065e-11
3.0041e-11
3.01546e-11
3.02472e-11
3.03186e-11
3.03687e-11
3.03976e-11
3.04051e-11
3.03913e-11
3.03561e-11
3.02996e-11
3.02217e-11
3.01226e-11
3.00022e-11
2.98607e-11
2.96981e-11
2.95147e-11
2.93104e-11
2.90856e-11
2.88402e-11
2.85746e-11
2.8289e-11
2.79835e-11
2.76585e-11
2.73142e-11
2.69508e-11
2.65688e-11
2.61685e-11
2.57502e-11
2.53142e-11
2.48611e-11
2.43913e-11
2.39051e-11
2.34031e-11
2.28859e-11
2.23538e-11
2.18075e-11
2.12477e-11
2.06748e-11
2.00895e-11
1.94926e-11
1.88846e-11
1.82664e-11
1.76387e-11
1.70023e-11
1.6358e-11
1.57067e-11
1.50492e-11
1.43864e-11
1.37194e-11
1.3049e-11
1.23764e-11
1.17026e-11
1.10286e-11
1.03557e-11
9.68501e-12
9.01776e-12
8.35527e-12
7.69889e-12
7.05006e-12
6.41029e-12
5.78119e-12
5.16447e-12
4.56203e-12
3.97589e-12
3.40836e-12
2.86203e-12
2.33998e-12
1.84594e-12
1.38472e-12
9.62859e-13
5.89704e-13
2.77929e-13
9.19576e-15
5.81302e-14
8.47341e-12
4.53538e-11
1.06346e-10
1.79297e-10
2.58542e-10
3.42143e-10
4.29369e-10
5.19833e-10
6.13243e-10
7.09339e-10
8.07876e-10
9.08618e-10
1.01134e-09
1.11581e-09
1.22184e-09
1.3292e-09
1.43771e-09
1.54717e-09
1.65739e-09
1.76819e-09
1.8794e-09
1.99083e-09
2.10233e-09
2.21372e-09
2.32486e-09
2.43557e-09
2.5457e-09
2.65512e-09
2.76367e-09
2.8712e-09
2.97759e-09
3.0827e-09
3.18639e-09
3.28855e-09
3.38904e-09
3.48774e-09
3.58455e-09
3.67935e-09
3.77203e-09
3.86249e-09
3.95063e-09
4.03636e-09
4.11957e-09
4.20019e-09
4.27812e-09
4.3533e-09
4.42563e-09
4.49505e-09
4.56149e-09
4.62488e-09
4.68517e-09
4.74229e-09
4.79618e-09
4.8468e-09
4.89411e-09
4.93804e-09
4.97858e-09
5.01567e-09
5.04928e-09
5.07938e-09
5.10594e-09
5.12895e-09
5.14837e-09
5.16419e-09
5.17638e-09
5.18495e-09
5.18987e-09
5.19113e-09
5.18875e-09
5.18272e-09
5.17303e-09
5.15969e-09
5.14272e-09
5.12212e-09
5.09791e-09
5.0701e-09
5.03872e-09
5.00379e-09
4.96533e-09
4.92338e-09
4.87796e-09
4.82911e-09
4.77688e-09
4.7213e-09
4.66242e-09
4.60029e-09
4.53497e-09
4.46651e-09
4.39497e-09
4.32042e-09
4.24293e-09
4.16257e-09
4.07942e-09
3.99355e-09
3.90507e-09
3.81405e-09
3.7206e-09
3.6248e-09
3.52677e-09
3.42662e-09
3.32445e-09
3.22039e-09
3.11456e-09
3.00708e-09
2.8981e-09
2.78774e-09
2.67616e-09
2.5635e-09
2.44991e-09
2.33556e-09
2.22061e-09
2.10523e-09
1.9896e-09
1.87389e-09
1.75831e-09
1.64304e-09
1.52828e-09
1.41425e-09
1.30117e-09
1.18926e-09
1.07875e-09
9.69886e-10
8.62925e-10
7.58128e-10
6.55768e-10
5.56133e-10
4.59522e-10
3.66272e-10
2.76824e-10
1.91988e-10
1.13866e-10
4.85528e-11
9.06979e-12
6.22321e-14
1.29462e-13
2.12692e-11
1.45783e-10
4.37806e-10
8.8893e-10
1.45438e-09
2.09325e-09
2.77933e-09
3.49787e-09
4.24074e-09
5.00327e-09
5.78247e-09
6.57623e-09
7.38283e-09
8.20076e-09
9.02861e-09
9.86506e-09
1.07088e-08
1.15585e-08
1.24129e-08
1.32708e-08
1.41309e-08
1.49921e-08
1.5853e-08
1.67126e-08
1.75696e-08
1.8423e-08
1.92715e-08
2.01141e-08
2.09497e-08
2.17772e-08
2.25957e-08
2.3404e-08
2.42013e-08
2.49866e-08
2.57588e-08
2.65173e-08
2.72609e-08
2.7989e-08
2.87008e-08
2.93953e-08
3.00719e-08
3.07298e-08
3.13684e-08
3.19869e-08
3.25848e-08
3.31614e-08
3.37161e-08
3.42485e-08
3.47578e-08
3.52438e-08
3.57059e-08
3.61436e-08
3.65566e-08
3.69444e-08
3.73068e-08
3.76433e-08
3.79537e-08
3.82377e-08
3.8495e-08
3.87255e-08
3.89288e-08
3.91048e-08
3.92534e-08
3.93744e-08
3.94676e-08
3.95331e-08
3.95707e-08
3.95803e-08
3.9562e-08
3.95158e-08
3.94416e-08
3.93395e-08
3.92096e-08
3.90519e-08
3.88665e-08
3.86537e-08
3.84135e-08
3.81461e-08
3.78517e-08
3.75305e-08
3.71828e-08
3.68089e-08
3.6409e-08
3.59834e-08
3.55326e-08
3.50568e-08
3.45565e-08
3.40321e-08
3.34841e-08
3.2913e-08
3.23192e-08
3.17034e-08
3.10661e-08
3.04078e-08
2.97294e-08
2.90313e-08
2.83144e-08
2.75793e-08
2.68269e-08
2.6058e-08
2.52734e-08
2.44739e-08
2.36605e-08
2.28342e-08
2.19959e-08
2.11466e-08
2.02875e-08
1.94195e-08
1.85438e-08
1.76616e-08
1.67741e-08
1.58825e-08
1.4988e-08
1.4092e-08
1.31958e-08
1.23008e-08
1.14083e-08
1.05199e-08
9.63685e-09
8.76082e-09
7.89334e-09
7.03605e-09
6.19074e-09
5.35944e-09
4.54463e-09
3.74973e-09
2.98004e-09
2.24453e-09
1.55933e-09
9.52853e-10
4.6914e-10
1.56174e-10
2.2783e-11
1.38702e-13
2.14572e-13
3.61432e-11
2.64775e-10
8.75859e-10
1.97244e-09
3.5441e-09
5.51091e-09
7.77654e-09
1.02581e-08
1.28944e-08
1.5643e-08
1.84756e-08
2.13729e-08
2.43216e-08
2.73118e-08
3.0336e-08
3.3388e-08
3.64624e-08
3.95543e-08
4.26592e-08
4.57727e-08
4.88907e-08
5.20088e-08
5.51232e-08
5.82298e-08
6.13246e-08
6.44038e-08
6.74636e-08
7.05001e-08
7.35097e-08
7.64887e-08
7.94336e-08
8.23409e-08
8.52071e-08
8.8029e-08
9.08033e-08
9.35269e-08
9.61967e-08
9.88097e-08
1.01363e-07
1.03854e-07
1.0628e-07
1.08639e-07
1.10927e-07
1.13144e-07
1.15285e-07
1.1735e-07
1.19336e-07
1.21242e-07
1.23065e-07
1.24803e-07
1.26456e-07
1.28021e-07
1.29498e-07
1.30884e-07
1.32179e-07
1.33381e-07
1.3449e-07
1.35504e-07
1.36423e-07
1.37245e-07
1.37971e-07
1.38598e-07
1.39128e-07
1.39559e-07
1.39891e-07
1.40124e-07
1.40257e-07
1.4029e-07
1.40224e-07
1.40058e-07
1.39792e-07
1.39427e-07
1.38962e-07
1.38398e-07
1.37735e-07
1.36975e-07
1.36116e-07
1.35161e-07
1.34109e-07
1.32962e-07
1.3172e-07
1.30384e-07
1.28955e-07
1.27435e-07
1.25824e-07
1.24123e-07
1.22335e-07
1.20461e-07
1.18502e-07
1.1646e-07
1.14336e-07
1.12133e-07
1.09852e-07
1.07497e-07
1.05067e-07
1.02567e-07
9.99986e-08
9.73641e-08
9.46661e-08
9.19076e-08
8.90914e-08
8.62204e-08
8.32977e-08
8.03266e-08
7.73103e-08
7.42523e-08
7.11562e-08
6.80256e-08
6.48642e-08
6.1676e-08
5.8465e-08
5.52352e-08
5.19909e-08
4.87364e-08
4.54763e-08
4.22152e-08
3.8958e-08
3.571e-08
3.24768e-08
2.92645e-08
2.60806e-08
2.29338e-08
1.98356e-08
1.68012e-08
1.38524e-08
1.10212e-08
8.35435e-09
5.91897e-09
3.80513e-09
2.1168e-09
9.39596e-10
2.83973e-10
3.87622e-11
2.30167e-13
3.0979e-13
5.26306e-11
3.95e-10
1.35993e-09
3.22137e-09
6.11115e-09
1.00142e-08
1.48155e-08
2.03583e-08
2.64855e-08
3.30616e-08
3.99786e-08
4.71537e-08
5.45252e-08
6.20468e-08
6.96836e-08
7.74084e-08
8.51996e-08
9.30392e-08
1.00912e-07
1.08805e-07
1.16705e-07
1.24602e-07
1.32484e-07
1.40341e-07
1.48164e-07
1.55942e-07
1.63666e-07
1.71327e-07
1.78916e-07
1.86424e-07
1.93842e-07
2.01162e-07
2.08376e-07
2.15474e-07
2.2245e-07
2.29296e-07
2.36004e-07
2.42567e-07
2.48978e-07
2.55231e-07
2.61318e-07
2.67234e-07
2.72973e-07
2.78528e-07
2.83895e-07
2.89068e-07
2.94043e-07
2.98814e-07
3.03377e-07
3.07728e-07
3.11863e-07
3.15778e-07
3.1947e-07
3.22935e-07
3.26172e-07
3.29176e-07
3.31945e-07
3.34477e-07
3.36771e-07
3.38823e-07
3.40632e-07
3.42198e-07
3.43518e-07
3.44592e-07
3.45418e-07
3.45996e-07
3.46326e-07
3.46407e-07
3.4624e-07
3.45823e-07
3.45157e-07
3.44243e-07
3.43081e-07
3.41672e-07
3.40017e-07
3.38116e-07
3.35973e-07
3.33586e-07
3.3096e-07
3.28094e-07
3.24992e-07
3.21656e-07
3.18087e-07
3.14289e-07
3.10265e-07
3.06017e-07
3.01549e-07
2.96864e-07
2.91966e-07
2.86859e-07
2.81547e-07
2.76034e-07
2.70326e-07
2.64427e-07
2.58342e-07
2.52077e-07
2.45637e-07
2.39028e-07
2.32257e-07
2.25329e-07
2.18252e-07
2.11033e-07
2.03679e-07
1.96197e-07
1.88596e-07
1.80883e-07
1.73066e-07
1.65156e-07
1.5716e-07
1.49088e-07
1.4095e-07
1.32756e-07
1.24517e-07
1.16244e-07
1.07951e-07
9.965e-08
9.13571e-08
8.30894e-08
7.48677e-08
6.6717e-08
5.86689e-08
5.07637e-08
4.30545e-08
3.56118e-08
2.85284e-08
2.19245e-08
1.59498e-08
1.07758e-08
6.57243e-09
3.46276e-09
1.46126e-09
4.24344e-10
5.65395e-11
3.3287e-13
4.1284e-13
7.04066e-11
5.34241e-10
1.87468e-09
4.55764e-09
8.91498e-09
1.50928e-08
2.30623e-08
3.26693e-08
4.36935e-08
5.58967e-08
6.90542e-08
8.29694e-08
9.74788e-08
1.1245e-07
1.27777e-07
1.43374e-07
1.59175e-07
1.75125e-07
1.91178e-07
2.07295e-07
2.23442e-07
2.39592e-07
2.55716e-07
2.7179e-07
2.87792e-07
3.03701e-07
3.19496e-07
3.35157e-07
3.50665e-07
3.66003e-07
3.81152e-07
3.96095e-07
4.10815e-07
4.25296e-07
4.39522e-07
4.53478e-07
4.67148e-07
4.80519e-07
4.93576e-07
5.06306e-07
5.18696e-07
5.30734e-07
5.42407e-07
5.53705e-07
5.64616e-07
5.7513e-07
5.85238e-07
5.9493e-07
6.04197e-07
6.13031e-07
6.21425e-07
6.2937e-07
6.36861e-07
6.43891e-07
6.50454e-07
6.56546e-07
6.6216e-07
6.67292e-07
6.71939e-07
6.76097e-07
6.79763e-07
6.82934e-07
6.85608e-07
6.87782e-07
6.89455e-07
6.90625e-07
6.91293e-07
6.91457e-07
6.91118e-07
6.90275e-07
6.88929e-07
6.87079e-07
6.84729e-07
6.81878e-07
6.7853e-07
6.74686e-07
6.70348e-07
6.65521e-07
6.60206e-07
6.54407e-07
6.48129e-07
6.41376e-07
6.34151e-07
6.26461e-07
6.18311e-07
6.09706e-07
6.00653e-07
5.91158e-07
5.81228e-07
5.70871e-07
5.60095e-07
5.48908e-07
5.37319e-07
5.25337e-07
5.12972e-07
5.00234e-07
4.87134e-07
4.73684e-07
4.59895e-07
4.45779e-07
4.3135e-07
4.1662e-07
4.01605e-07
3.86319e-07
3.70777e-07
3.54995e-07
3.38991e-07
3.22782e-07
3.06387e-07
2.89827e-07
2.73124e-07
2.563e-07
2.39382e-07
2.22399e-07
2.05382e-07
1.88371e-07
1.71408e-07
1.54547e-07
1.37852e-07
1.21402e-07
1.05294e-07
8.96514e-08
7.46257e-08
6.04027e-08
4.72033e-08
3.52782e-08
2.48899e-08
1.62784e-08
9.60914e-09
4.90978e-09
2.01872e-09
5.75175e-10
7.58003e-11
4.44561e-13
5.2207e-13
8.92138e-11
6.80863e-10
2.41369e-09
5.95368e-09
1.18566e-08
2.04835e-08
3.19747e-08
4.62723e-08
6.3173e-08
8.23872e-08
1.0359e-07
1.2646e-07
1.507e-07
1.76046e-07
2.02275e-07
2.29197e-07
2.56655e-07
2.84516e-07
3.12672e-07
3.41029e-07
3.69509e-07
3.98044e-07
4.26575e-07
4.55046e-07
4.83411e-07
5.11624e-07
5.39644e-07
5.67432e-07
5.94952e-07
6.22169e-07
6.49049e-07
6.75562e-07
7.01676e-07
7.27361e-07
7.5259e-07
7.77334e-07
8.01568e-07
8.25265e-07
8.48402e-07
8.70955e-07
8.929e-07
9.14217e-07
9.34885e-07
9.54883e-07
9.74194e-07
9.92798e-07
1.01068e-06
1.02782e-06
1.04421e-06
1.05983e-06
1.07467e-06
1.08872e-06
1.10196e-06
1.11438e-06
1.12598e-06
1.13675e-06
1.14666e-06
1.15573e-06
1.16395e-06
1.17129e-06
1.17777e-06
1.18338e-06
1.18811e-06
1.19196e-06
1.19492e-06
1.197e-06
1.19819e-06
1.1985e-06
1.19792e-06
1.19645e-06
1.1941e-06
1.19086e-06
1.18673e-06
1.18173e-06
1.17585e-06
1.1691e-06
1.16147e-06
1.15298e-06
1.14364e-06
1.13344e-06
1.12239e-06
1.1105e-06
1.09778e-06
1.08424e-06
1.06988e-06
1.05472e-06
1.03876e-06
1.02201e-06
1.0045e-06
9.86218e-07
9.67194e-07
9.47435e-07
9.26957e-07
9.05775e-07
8.83905e-07
8.61365e-07
8.38172e-07
8.14346e-07
7.89906e-07
7.64873e-07
7.3927e-07
7.1312e-07
6.86448e-07
6.5928e-07
6.31644e-07
6.0357e-07
5.75089e-07
5.46237e-07
5.17051e-07
4.87573e-07
4.57847e-07
4.27926e-07
3.97866e-07
3.67736e-07
3.37612e-07
3.07585e-07
2.77763e-07
2.48275e-07
2.19273e-07
1.90943e-07
1.63506e-07
1.37221e-07
1.12392e-07
8.93582e-08
6.84831e-08
5.01285e-08
3.4613e-08
2.21563e-08
1.28153e-08
6.43115e-09
2.60614e-09
7.34987e-10
9.63033e-11
5.63674e-13
6.36171e-13
1.08839e-10
8.33429e-10
2.9723e-09
7.3954e-09
1.48916e-08
2.60618e-08
4.12635e-08
6.06053e-08
8.39798e-08
1.11119e-07
1.41655e-07
1.7517e-07
2.11239e-07
2.49455e-07
2.89448e-07
3.30886e-07
3.73481e-07
4.16983e-07
4.61179e-07
5.05885e-07
5.50942e-07
5.96214e-07
6.41579e-07
6.86934e-07
7.32184e-07
7.77243e-07
8.22035e-07
8.66489e-07
9.10539e-07
9.54124e-07
9.97185e-07
1.03967e-06
1.08152e-06
1.12268e-06
1.16312e-06
1.20278e-06
1.24163e-06
1.27961e-06
1.31669e-06
1.35284e-06
1.38801e-06
1.42217e-06
1.45528e-06
1.48732e-06
1.51826e-06
1.54807e-06
1.57671e-06
1.60417e-06
1.63042e-06
1.65544e-06
1.67921e-06
1.70171e-06
1.72292e-06
1.74282e-06
1.7614e-06
1.77864e-06
1.79454e-06
1.80908e-06
1.82224e-06
1.83403e-06
1.84443e-06
1.85344e-06
1.86104e-06
1.86724e-06
1.87203e-06
1.87541e-06
1.87738e-06
1.87793e-06
1.87707e-06
1.87479e-06
1.8711e-06
1.86599e-06
1.85948e-06
1.85156e-06
1.84224e-06
1.83152e-06
1.81942e-06
1.80594e-06
1.79108e-06
1.77486e-06
1.75729e-06
1.73837e-06
1.71811e-06
1.69654e-06
1.67366e-06
1.64948e-06
1.62403e-06
1.59731e-06
1.56935e-06
1.54016e-06
1.50976e-06
1.47818e-06
1.44543e-06
1.41154e-06
1.37654e-06
1.34044e-06
1.30328e-06
1.26509e-06
1.22589e-06
1.18573e-06
1.14463e-06
1.10265e-06
1.0598e-06
1.01615e-06
9.71745e-07
9.26628e-07
8.80861e-07
8.34508e-07
7.8764e-07
7.40337e-07
6.92688e-07
6.44796e-07
5.96781e-07
5.48777e-07
5.00942e-07
4.5346e-07
4.06549e-07
3.60463e-07
3.15497e-07
2.71996e-07
2.30348e-07
1.90989e-07
1.54389e-07
1.21037e-07
9.14054e-08
6.59055e-08
4.48296e-08
2.82875e-08
1.61495e-08
8.01453e-09
3.21956e-09
9.02521e-10
1.17856e-10
6.8901e-13
7.54046e-13
1.29101e-10
9.90654e-10
3.54633e-09
8.87234e-09
1.79937e-08
3.17612e-08
5.07737e-08
7.53478e-08
1.0553e-07
1.4114e-07
1.81827e-07
2.27129e-07
2.76527e-07
3.29489e-07
3.85494e-07
4.44055e-07
5.04729e-07
5.67117e-07
6.30865e-07
6.95666e-07
7.61245e-07
8.27365e-07
8.93816e-07
9.60411e-07
1.02699e-06
1.09339e-06
1.1595e-06
1.22518e-06
1.29032e-06
1.35483e-06
1.41859e-06
1.48154e-06
1.54358e-06
1.60462e-06
1.66461e-06
1.72346e-06
1.7811e-06
1.83748e-06
1.89254e-06
1.94621e-06
1.99844e-06
2.04917e-06
2.09836e-06
2.14596e-06
2.19192e-06
2.2362e-06
2.27876e-06
2.31957e-06
2.35859e-06
2.39578e-06
2.43111e-06
2.46456e-06
2.49611e-06
2.52571e-06
2.55336e-06
2.57904e-06
2.60271e-06
2.62437e-06
2.64401e-06
2.6616e-06
2.67714e-06
2.69062e-06
2.70202e-06
2.71135e-06
2.71859e-06
2.72374e-06
2.7268e-06
2.72776e-06
2.72664e-06
2.72342e-06
2.7181e-06
2.7107e-06
2.7012e-06
2.68963e-06
2.67599e-06
2.66027e-06
2.6425e-06
2.62268e-06
2.60083e-06
2.57694e-06
2.55105e-06
2.52315e-06
2.49327e-06
2.46143e-06
2.42764e-06
2.39191e-06
2.35429e-06
2.31477e-06
2.27339e-06
2.23018e-06
2.18515e-06
2.13835e-06
2.0898e-06
2.03953e-06
1.98758e-06
1.934e-06
1.87881e-06
1.82206e-06
1.76381e-06
1.7041e-06
1.64299e-06
1.58053e-06
1.5168e-06
1.45187e-06
1.38582e-06
1.31874e-06
1.25072e-06
1.18188e-06
1.11234e-06
1.04225e-06
9.71755e-07
9.01051e-07
8.30347e-07
7.59889e-07
6.89962e-07
6.2089e-07
5.53046e-07
4.86856e-07
4.22799e-07
3.61409e-07
3.03267e-07
2.48987e-07
1.99194e-07
1.54488e-07
1.15393e-07
8.22973e-08
5.53927e-08
3.46122e-08
1.95895e-08
9.65141e-09
3.85552e-09
1.07667e-09
1.40298e-10
8.19598e-13
8.74739e-13
1.49837e-10
1.15137e-09
4.13191e-09
1.03753e-08
2.1143e-08
3.75386e-08
6.04119e-08
9.03097e-08
1.27468e-07
1.71839e-07
2.23143e-07
2.80924e-07
3.44616e-07
4.13588e-07
4.87191e-07
5.6479e-07
6.45778e-07
7.29594e-07
8.15726e-07
9.03712e-07
9.93138e-07
1.08364e-06
1.17488e-06
1.26656e-06
1.35844e-06
1.45027e-06
1.54184e-06
1.63295e-06
1.72343e-06
1.81313e-06
1.90188e-06
1.98956e-06
2.07603e-06
2.16117e-06
2.24487e-06
2.32703e-06
2.40754e-06
2.48631e-06
2.56325e-06
2.63827e-06
2.7113e-06
2.78226e-06
2.85108e-06
2.91768e-06
2.98202e-06
3.04401e-06
3.10362e-06
3.16078e-06
3.21545e-06
3.26758e-06
3.31712e-06
3.36404e-06
3.4083e-06
3.44987e-06
3.48871e-06
3.52479e-06
3.55809e-06
3.58859e-06
3.61626e-06
3.64109e-06
3.66305e-06
3.68214e-06
3.69834e-06
3.71164e-06
3.72203e-06
3.72951e-06
3.73408e-06
3.73571e-06
3.73444e-06
3.73024e-06
3.72312e-06
3.71307e-06
3.70012e-06
3.68425e-06
3.66549e-06
3.64384e-06
3.61931e-06
3.59191e-06
3.56166e-06
3.52857e-06
3.49266e-06
3.45394e-06
3.41244e-06
3.36818e-06
3.32118e-06
3.27146e-06
3.21906e-06
3.164e-06
3.10632e-06
3.04604e-06
2.98321e-06
2.91786e-06
2.85004e-06
2.7798e-06
2.70717e-06
2.63223e-06
2.55502e-06
2.47562e-06
2.39408e-06
2.31049e-06
2.22493e-06
2.13748e-06
2.04826e-06
1.95738e-06
1.86496e-06
1.77114e-06
1.67608e-06
1.57997e-06
1.48301e-06
1.38544e-06
1.28751e-06
1.18954e-06
1.09186e-06
9.94874e-07
8.99026e-07
8.04822e-07
7.12827e-07
6.23671e-07
5.38042e-07
4.56678e-07
3.8035e-07
3.09833e-07
2.45871e-07
1.89125e-07
1.40109e-07
9.91298e-08
6.6221e-08
4.10948e-08
2.31194e-08
1.13345e-08
4.51087e-09
1.25647e-09
1.63492e-10
9.54617e-13
9.974e-13
1.70906e-10
1.31451e-09
4.72542e-09
1.18955e-08
2.43222e-08
4.33601e-08
7.01128e-08
1.05366e-07
1.49564e-07
2.02821e-07
2.64963e-07
3.35585e-07
4.14109e-07
4.99846e-07
5.92045e-07
6.89939e-07
7.92771e-07
8.99816e-07
1.0104e-06
1.12388e-06
1.2397e-06
1.35734e-06
1.47632e-06
1.59623e-06
1.71668e-06
1.83732e-06
1.95785e-06
2.07798e-06
2.19745e-06
2.31602e-06
2.43349e-06
2.54964e-06
2.6643e-06
2.77728e-06
2.88843e-06
2.9976e-06
3.10464e-06
3.20942e-06
3.31181e-06
3.4117e-06
3.50898e-06
3.60353e-06
3.69527e-06
3.78409e-06
3.86992e-06
3.95266e-06
4.03225e-06
4.1086e-06
4.18165e-06
4.25135e-06
4.31762e-06
4.38041e-06
4.43968e-06
4.49538e-06
4.54747e-06
4.59589e-06
4.64063e-06
4.68165e-06
4.71892e-06
4.75241e-06
4.7821e-06
4.80797e-06
4.83e-06
4.84819e-06
4.86251e-06
4.87295e-06
4.87952e-06
4.88219e-06
4.88099e-06
4.87591e-06
4.86692e-06
4.85405e-06
4.83729e-06
4.81666e-06
4.79216e-06
4.76381e-06
4.73161e-06
4.69558e-06
4.65574e-06
4.61211e-06
4.56469e-06
4.51353e-06
4.45863e-06
4.40003e-06
4.33776e-06
4.27184e-06
4.20232e-06
4.12922e-06
4.05259e-06
3.97247e-06
3.88891e-06
3.80196e-06
3.71168e-06
3.61812e-06
3.52136e-06
3.42147e-06
3.31853e-06
3.21263e-06
3.10388e-06
2.99237e-06
2.87823e-06
2.7616e-06
2.64263e-06
2.52148e-06
2.39836e-06
2.27348e-06
2.14707e-06
2.01941e-06
1.89082e-06
1.76165e-06
1.6323e-06
1.50322e-06
1.37493e-06
1.248e-06
1.12308e-06
1.00089e-06
8.82206e-07
7.67883e-07
6.58825e-07
5.55969e-07
4.60259e-07
3.72602e-07
2.9382e-07
2.24583e-07
1.6535e-07
1.16297e-07
7.72615e-08
4.7709e-08
2.67261e-08
1.30571e-08
5.18271e-09
1.44102e-09
1.87319e-10
1.09335e-12
1.12126e-12
1.92175e-10
1.4791e-09
5.3235e-09
1.34251e-08
2.75149e-08
4.91962e-08
7.98239e-08
1.20424e-07
1.71656e-07
2.33813e-07
3.06851e-07
3.90439e-07
4.84022e-07
5.86884e-07
6.98203e-07
8.171e-07
9.42686e-07
1.07408e-06
1.21045e-06
1.35099e-06
1.49496e-06
1.64169e-06
1.79055e-06
1.94098e-06
2.09245e-06
2.24449e-06
2.39668e-06
2.54863e-06
2.69997e-06
2.85039e-06
2.99958e-06
3.14726e-06
3.29318e-06
3.43711e-06
3.57881e-06
3.71809e-06
3.85474e-06
3.9886e-06
4.11949e-06
4.24726e-06
4.37175e-06
4.49282e-06
4.61034e-06
4.7242e-06
4.83426e-06
4.94043e-06
5.0426e-06
5.14068e-06
5.23457e-06
5.3242e-06
5.40948e-06
5.49035e-06
5.56673e-06
5.63857e-06
5.70581e-06
5.7684e-06
5.82629e-06
5.87944e-06
5.9278e-06
5.97135e-06
6.01005e-06
6.04388e-06
6.07281e-06
6.09682e-06
6.11589e-06
6.13002e-06
6.13918e-06
6.14337e-06
6.14259e-06
6.13686e-06
6.12612e-06
6.11039e-06
6.08969e-06
6.06401e-06
6.03337e-06
5.99778e-06
5.95725e-06
5.91179e-06
5.86143e-06
5.80618e-06
5.74606e-06
5.68111e-06
5.61134e-06
5.53679e-06
5.4575e-06
5.37349e-06
5.28482e-06
5.19153e-06
5.09367e-06
4.99128e-06
4.88445e-06
4.77322e-06
4.65767e-06
4.53789e-06
4.41397e-06
4.28599e-06
4.15408e-06
4.01835e-06
3.87894e-06
3.736e-06
3.58971e-06
3.44025e-06
3.28784e-06
3.13272e-06
2.97517e-06
2.81549e-06
2.65404e-06
2.4912e-06
2.32742e-06
2.16321e-06
1.99913e-06
1.83582e-06
1.67398e-06
1.51441e-06
1.35796e-06
1.20559e-06
1.05832e-06
9.17213e-07
7.83394e-07
6.57985e-07
5.42077e-07
4.36678e-07
3.42645e-07
2.60625e-07
1.9098e-07
1.33724e-07
8.84741e-08
5.44328e-08
3.03972e-08
1.48129e-08
5.86836e-09
1.62954e-09
2.1167e-10
1.23518e-12
1.24562e-12
2.13526e-10
1.64423e-09
5.92298e-09
1.49563e-08
3.07061e-08
5.50201e-08
8.94996e-08
1.35408e-07
1.93622e-07
2.64616e-07
3.48489e-07
4.45004e-07
5.53651e-07
6.73707e-07
8.04306e-07
9.4448e-07
1.09322e-06
1.24952e-06
1.41238e-06
1.58084e-06
1.75401e-06
1.93103e-06
2.11112e-06
2.29356e-06
2.47769e-06
2.66289e-06
2.84863e-06
3.03437e-06
3.21966e-06
3.40407e-06
3.5872e-06
3.76869e-06
3.9482e-06
4.12543e-06
4.30007e-06
4.47187e-06
4.64057e-06
4.80593e-06
4.96774e-06
5.12579e-06
5.27988e-06
5.42985e-06
5.57551e-06
5.7167e-06
5.85329e-06
5.98512e-06
6.11207e-06
6.23401e-06
6.35084e-06
6.46244e-06
6.56871e-06
6.66956e-06
6.76491e-06
6.85467e-06
6.93878e-06
7.01716e-06
7.08976e-06
7.15652e-06
7.21738e-06
7.27231e-06
7.32125e-06
7.36418e-06
7.40106e-06
7.43185e-06
7.45655e-06
7.47512e-06
7.48755e-06
7.49383e-06
7.49394e-06
7.48792e-06
7.47568e-06
7.45725e-06
7.43265e-06
7.40186e-06
7.36491e-06
7.32179e-06
7.27252e-06
7.21712e-06
7.1556e-06
7.08798e-06
7.01429e-06
6.93456e-06
6.84882e-06
6.7571e-06
6.65944e-06
6.55588e-06
6.44648e-06
6.33129e-06
6.21037e-06
6.08378e-06
5.95161e-06
5.81393e-06
5.67084e-06
5.52244e-06
5.36884e-06
5.21018e-06
5.0466e-06
4.87826e-06
4.70534e-06
4.52805e-06
4.34662e-06
4.1613e-06
3.9724e-06
3.78024e-06
3.58519e-06
3.38768e-06
3.18819e-06
2.98723e-06
2.78543e-06
2.58345e-06
2.38205e-06
2.18207e-06
1.98444e-06
1.79017e-06
1.60037e-06
1.41623e-06
1.239e-06
1.06998e-06
9.10488e-07
7.61812e-07
6.2517e-07
5.01636e-07
3.92079e-07
2.97089e-07
2.16904e-07
1.51354e-07
9.98248e-08
6.12459e-08
3.41212e-08
1.6596e-08
6.56532e-09
1.8213e-09
2.3645e-10
1.37951e-12
1.36983e-12
2.34849e-10
1.80906e-09
6.52093e-09
1.64819e-08
3.38814e-08
6.08062e-08
9.90983e-08
1.50253e-07
2.15357e-07
2.95071e-07
3.89637e-07
4.98922e-07
6.22472e-07
7.59579e-07
9.09344e-07
1.07074e-06
1.24265e-06
1.42395e-06
1.6135e-06
1.81019e-06
2.01296e-06
2.2208e-06
2.43278e-06
2.64801e-06
2.86568e-06
3.08505e-06
3.30542e-06
3.52616e-06
3.74668e-06
3.96644e-06
4.18496e-06
4.40176e-06
4.61642e-06
4.82855e-06
5.0378e-06
5.2438e-06
5.44626e-06
5.64487e-06
5.83936e-06
6.02947e-06
6.21496e-06
6.3956e-06
6.57118e-06
6.7415e-06
6.90638e-06
7.06563e-06
7.21909e-06
7.36662e-06
7.50807e-06
7.6433e-06
7.77219e-06
7.89462e-06
8.01049e-06
8.11969e-06
8.22214e-06
8.31774e-06
8.40643e-06
8.48812e-06
8.56275e-06
8.63026e-06
8.6906e-06
8.74371e-06
8.78956e-06
8.8281e-06
8.85931e-06
8.88314e-06
8.89957e-06
8.90859e-06
8.91018e-06
8.90436e-06
8.89105e-06
8.87026e-06
8.84199e-06
8.80626e-06
8.76305e-06
8.71237e-06
8.65424e-06
8.58867e-06
8.51568e-06
8.43528e-06
8.3475e-06
8.25237e-06
8.14993e-06
8.0402e-06
7.92324e-06
7.7991e-06
7.66783e-06
7.52949e-06
7.38416e-06
7.23192e-06
7.07285e-06
6.90707e-06
6.73468e-06
6.55581e-06
6.37061e-06
6.17924e-06
5.9819e-06
5.77878e-06
5.57012e-06
5.35619e-06
5.13728e-06
4.91375e-06
4.68597e-06
4.45437e-06
4.21945e-06
3.98176e-06
3.74191e-06
3.5006e-06
3.25861e-06
3.01681e-06
2.77616e-06
2.53772e-06
2.30266e-06
2.07223e-06
1.84779e-06
1.63077e-06
1.42265e-06
1.22496e-06
1.03919e-06
8.66795e-07
7.09081e-07
5.67171e-07
4.41923e-07
3.33847e-07
2.43041e-07
1.69138e-07
1.11283e-07
6.81296e-08
3.78873e-08
1.84008e-08
7.27126e-09
2.01562e-09
2.61568e-10
1.52584e-12
1.4933e-12
2.56042e-10
1.97283e-09
7.11462e-09
1.79951e-08
3.70272e-08
6.65308e-08
1.08581e-07
1.64897e-07
2.36772e-07
3.25043e-07
4.30097e-07
5.51906e-07
6.90082e-07
8.43937e-07
1.01255e-06
1.19486e-06
1.38965e-06
1.59569e-06
1.81172e-06
2.03648e-06
2.26877e-06
2.50743e-06
2.75136e-06
2.99954e-06
3.251e-06
3.50485e-06
3.76027e-06
4.01649e-06
4.27281e-06
4.52858e-06
4.78318e-06
5.03608e-06
5.28674e-06
5.53469e-06
5.77948e-06
6.0207e-06
6.25797e-06
6.49092e-06
6.71922e-06
6.94254e-06
7.16061e-06
7.37314e-06
7.57987e-06
7.78055e-06
7.97498e-06
8.16292e-06
8.34417e-06
8.51856e-06
8.68591e-06
8.84605e-06
8.99883e-06
9.14411e-06
9.28175e-06
9.41163e-06
9.53363e-06
9.64766e-06
9.7536e-06
9.85137e-06
9.94089e-06
1.00221e-05
1.00949e-05
1.01592e-05
1.0215e-05
1.02622e-05
1.03008e-05
1.03307e-05
1.03519e-05
1.03644e-05
1.03682e-05
1.03632e-05
1.03493e-05
1.03267e-05
1.02952e-05
1.02548e-05
1.02057e-05
1.01476e-05
1.00808e-05
1.00051e-05
9.92062e-06
9.82734e-06
9.72529e-06
9.6145e-06
9.495e-06
9.36684e-06
9.23006e-06
9.08472e-06
8.93088e-06
8.76861e-06
8.59799e-06
8.41913e-06
8.23213e-06
8.0371e-06
7.8342e-06
7.62357e-06
7.4054e-06
7.17989e-06
6.94727e-06
6.7078e-06
6.46178e-06
6.20954e-06
5.95147e-06
5.68799e-06
5.41958e-06
5.14681e-06
4.87028e-06
4.5907e-06
4.30883e-06
4.02555e-06
3.74184e-06
3.45877e-06
3.17752e-06
2.89938e-06
2.62578e-06
2.35821e-06
2.09827e-06
1.84765e-06
1.60807e-06
1.38123e-06
1.16883e-06
9.72448e-07
7.93469e-07
6.33053e-07
4.92024e-07
3.70798e-07
2.69324e-07
1.87032e-07
1.2282e-07
7.50658e-08
4.16851e-08
2.0222e-08
7.98402e-09
2.21191e-09
2.86945e-10
1.67368e-12
1.61549e-12
2.77013e-10
2.13483e-09
7.70152e-09
1.94897e-08
4.01309e-08
7.21715e-08
1.17912e-07
1.79287e-07
2.57785e-07
3.54415e-07
4.69702e-07
6.03723e-07
7.56155e-07
9.26337e-07
1.11334e-06
1.31606e-06
1.53321e-06
1.76346e-06
2.00544e-06
2.25776e-06
2.51909e-06
2.78812e-06
3.0636e-06
3.34436e-06
3.62931e-06
3.91741e-06
4.2077e-06
4.4993e-06
4.79137e-06
5.08315e-06
5.37393e-06
5.66306e-06
5.94993e-06
6.23396e-06
6.51463e-06
6.79145e-06
7.06396e-06
7.33174e-06
7.59438e-06
7.85151e-06
8.10278e-06
8.34786e-06
8.58645e-06
8.81825e-06
9.04299e-06
9.26043e-06
9.47032e-06
9.67243e-06
9.86657e-06
1.00525e-05
1.02301e-05
1.03992e-05
1.05595e-05
1.0711e-05
1.08536e-05
1.0987e-05
1.11112e-05
1.1226e-05
1.13313e-05
1.14271e-05
1.15133e-05
1.15898e-05
1.16564e-05
1.17132e-05
1.176e-05
1.17969e-05
1.18237e-05
1.18405e-05
1.18471e-05
1.18436e-05
1.183e-05
1.18061e-05
1.17719e-05
1.17275e-05
1.16729e-05
1.16079e-05
1.15327e-05
1.14473e-05
1.13516e-05
1.12456e-05
1.11294e-05
1.1003e-05
1.08665e-05
1.07198e-05
1.05631e-05
1.03963e-05
1.02196e-05
1.00331e-05
9.83674e-06
9.63075e-06
9.41524e-06
9.19034e-06
8.95621e-06
8.71305e-06
8.46107e-06
8.20051e-06
7.93166e-06
7.65484e-06
7.37041e-06
7.07878e-06
6.78042e-06
6.47586e-06
6.16568e-06
5.85058e-06
5.5313e-06
5.2087e-06
4.88372e-06
4.55743e-06
4.231e-06
3.90572e-06
3.583e-06
3.2644e-06
2.95156e-06
2.64626e-06
2.35033e-06
2.0657e-06
1.79432e-06
1.5381e-06
1.29889e-06
1.07839e-06
8.78068e-07
6.99094e-07
5.42251e-07
4.07853e-07
2.95693e-07
2.04994e-07
1.34408e-07
8.20376e-08
4.55047e-08
2.20547e-08
8.70158e-09
2.40957e-09
3.12504e-10
1.82259e-12
1.7359e-12
2.97675e-10
2.29439e-09
8.27927e-09
2.09599e-08
4.31806e-08
7.77075e-08
1.27058e-07
1.93371e-07
2.78322e-07
3.83081e-07
5.08306e-07
6.54173e-07
8.20419e-07
1.00642e-06
1.21123e-06
1.4337e-06
1.67253e-06
1.92625e-06
2.19341e-06
2.47251e-06
2.76207e-06
3.06067e-06
3.36692e-06
3.67951e-06
3.99721e-06
4.31886e-06
4.64336e-06
4.96972e-06
5.29698e-06
5.62427e-06
5.95078e-06
6.27575e-06
6.59848e-06
6.91831e-06
7.23465e-06
7.5469e-06
7.85456e-06
8.15712e-06
8.45412e-06
8.74513e-06
9.02973e-06
9.30756e-06
9.57824e-06
9.84145e-06
1.00969e-05
1.03442e-05
1.05831e-05
1.08135e-05
1.10349e-05
1.12472e-05
1.14502e-05
1.16437e-05
1.18275e-05
1.20013e-05
1.21651e-05
1.23186e-05
1.24618e-05
1.25944e-05
1.27165e-05
1.28277e-05
1.29281e-05
1.30175e-05
1.30959e-05
1.3163e-05
1.3219e-05
1.32636e-05
1.32969e-05
1.33187e-05
1.3329e-05
1.33279e-05
1.33152e-05
1.32907e-05
1.32546e-05
1.32069e-05
1.31474e-05
1.30762e-05
1.29932e-05
1.28985e-05
1.2792e-05
1.26738e-05
1.25439e-05
1.24023e-05
1.2249e-05
1.20841e-05
1.19076e-05
1.17196e-05
1.15201e-05
1.13093e-05
1.10873e-05
1.08541e-05
1.06099e-05
1.0355e-05
1.00894e-05
9.81337e-06
9.52722e-06
9.23122e-06
8.92569e-06
8.61103e-06
8.28765e-06
7.95606e-06
7.61682e-06
7.27055e-06
6.91798e-06
6.55991e-06
6.19725e-06
5.83101e-06
5.46232e-06
5.09243e-06
4.72274e-06
4.35475e-06
3.99013e-06
3.63066e-06
3.27825e-06
2.93493e-06
2.60279e-06
2.28399e-06
1.98069e-06
1.69501e-06
1.42895e-06
1.18432e-06
9.62655e-07
7.65135e-07
5.9249e-07
4.44931e-07
3.2209e-07
2.22985e-07
1.46021e-07
8.90285e-08
4.93368e-08
2.38941e-08
9.42204e-09
2.60807e-09
3.38174e-10
1.97217e-12
1.85408e-12
3.17952e-10
2.45093e-09
8.84576e-09
2.24003e-08
4.61656e-08
8.31195e-08
1.35986e-07
2.07101e-07
2.98313e-07
4.10946e-07
5.45779e-07
7.03078e-07
8.82641e-07
1.08387e-06
1.30582e-06
1.5473e-06
1.80695e-06
2.08326e-06
2.37464e-06
2.67951e-06
2.99627e-06
3.32337e-06
3.6593e-06
4.00264e-06
4.35201e-06
4.70614e-06
5.06381e-06
5.42391e-06
5.78538e-06
6.14724e-06
6.50858e-06
6.86855e-06
7.22636e-06
7.58126e-06
7.93258e-06
8.27966e-06
8.62191e-06
8.95877e-06
9.2897e-06
9.61423e-06
9.93187e-06
1.02422e-05
1.05448e-05
1.08393e-05
1.11254e-05
1.14026e-05
1.16707e-05
1.19294e-05
1.21783e-05
1.24173e-05
1.2646e-05
1.28643e-05
1.30718e-05
1.32684e-05
1.3454e-05
1.36282e-05
1.37909e-05
1.3942e-05
1.40814e-05
1.42088e-05
1.43241e-05
1.44272e-05
1.4518e-05
1.45964e-05
1.46622e-05
1.47154e-05
1.47559e-05
1.47837e-05
1.47985e-05
1.48005e-05
1.47896e-05
1.47655e-05
1.47283e-05
1.46779e-05
1.46144e-05
1.45376e-05
1.44477e-05
1.43445e-05
1.4228e-05
1.40982e-05
1.39552e-05
1.3799e-05
1.36296e-05
1.34469e-05
1.32512e-05
1.30424e-05
1.28206e-05
1.25859e-05
1.23385e-05
1.20784e-05
1.18058e-05
1.1521e-05
1.12241e-05
1.09153e-05
1.05951e-05
1.02637e-05
9.92145e-06
9.56889e-06
9.20648e-06
8.83482e-06
8.45456e-06
8.06643e-06
7.67128e-06
7.27006e-06
6.86381e-06
6.45374e-06
6.04115e-06
5.62749e-06
5.21437e-06
4.80354e-06
4.3969e-06
3.99648e-06
3.60444e-06
3.22307e-06
2.85471e-06
2.50176e-06
2.16659e-06
1.85151e-06
1.55867e-06
1.28998e-06
1.04704e-06
8.31033e-07
6.42638e-07
4.81957e-07
3.48463e-07
2.40968e-07
1.57635e-07
9.60231e-08
5.31725e-08
2.5736e-08
1.01436e-08
2.80691e-09
3.63892e-10
2.12202e-12
1.96961e-12
3.37773e-10
2.6039e-09
9.39904e-09
2.3806e-08
4.90758e-08
8.83897e-08
1.4467e-07
2.20434e-07
3.17698e-07
4.37923e-07
5.82002e-07
7.50284e-07
9.42618e-07
1.15843e-06
1.39677e-06
1.65642e-06
1.93597e-06
2.23382e-06
2.54833e-06
2.8778e-06
3.22053e-06
3.57486e-06
3.93917e-06
4.31191e-06
4.6916e-06
5.07685e-06
5.46635e-06
5.85885e-06
6.25322e-06
6.64837e-06
7.04329e-06
7.43705e-06
7.82877e-06
8.21764e-06
8.60289e-06