/*--------------------------------*- C++ -*----------------------------------*\
  =========                 |
  \\      /  F ield         | OpenFOAM: The Open Source CFD Toolbox
   \\    /   O peration     | Website:  https://openfoam.org
    \\  /    A nd           | Version:  12
     \\/     M anipulation  |
\*---------------------------------------------------------------------------*/
FoamFile
{
    format      ascii;
    class       volScalarField;
    location    "1.5";
    object      epsilon;
}
// * * * * * * * * * * * * * * * * * * * * * * * * * * * * * * * * * * * * * //

dimensions      [0 2 -3 0 0 0 0];

internalField   nonuniform List<scalar> 
5625
(
9.89276e-07
6.68485e-06
1.48088e-05
2.43372e-05
3.47334e-05
4.56201e-05
5.67014e-05
6.77373e-05
7.85345e-05
8.89426e-05
9.8852e-05
0.000108193
0.000116931
0.000125068
0.000132631
0.000139673
0.000146266
0.000152492
0.000158442
0.000164209
0.000169887
0.000175563
0.000181323
0.000187243
0.000193395
0.000199842
0.000206643
0.000213848
0.000221503
0.000229647
0.000238316
0.000247537
0.000257333
0.000267722
0.000278712
0.000290309
0.000302507
0.000315294
0.000328645
0.000342525
0.000356884
0.000371655
0.000386751
0.00040206
0.000417442
0.000432728
0.000447708
0.000462134
0.000475713
0.000488108
0.000498934
0.000507753
0.000514047
0.000517142
0.000517332
0.000513705
0.000505798
0.000493331
0.000476169
0.00045434
0.000428067
0.000397777
0.000364106
0.000327865
0.000289998
0.000251514
0.00021341
0.000176596
0.000141836
0.000109714
8.06315e-05
5.48604e-05
3.2661e-05
1.45519e-05
2.14742e-06
1.86873e-06
3.62883e-06
7.24042e-06
1.16441e-05
1.64974e-05
2.15999e-05
2.68045e-05
3.19948e-05
3.70781e-05
4.19824e-05
4.66557e-05
5.10642e-05
5.51916e-05
5.90377e-05
6.26155e-05
6.59495e-05
6.90728e-05
7.20244e-05
7.48469e-05
7.75842e-05
8.02799e-05
8.29761e-05
8.57126e-05
8.85261e-05
9.14502e-05
9.45154e-05
9.77491e-05
0.000101176
0.000104817
0.000108692
0.000112817
0.000117206
0.000121869
0.000126814
0.000132047
0.000137569
0.000143377
0.000149466
0.000155822
0.000162429
0.000169262
0.000176287
0.000183462
0.000190733
0.00019803
0.000205271
0.000212355
0.000219162
0.00022555
0.000231358
0.000236401
0.000240474
0.000243329
0.000244673
0.000244617
0.000242753
0.000238873
0.000232851
0.000224633
0.000214242
0.000201788
0.000187477
0.000171608
0.000154561
0.00013677
0.000118702
0.000100816
8.3532e-05
6.72046e-05
5.21088e-05
3.84422e-05
2.63555e-05
1.60301e-05
7.91931e-06
4.05441e-06
3.96613e-06
3.53338e-06
5.57698e-06
8.42577e-06
1.16736e-05
1.51337e-05
1.86869e-05
2.2245e-05
2.574e-05
2.91201e-05
3.23477e-05
3.53984e-05
3.82603e-05
4.09322e-05
4.34229e-05
4.57485e-05
4.79317e-05
4.9999e-05
5.19797e-05
5.3904e-05
5.58023e-05
5.77037e-05
5.96359e-05
6.16246e-05
6.36933e-05
6.58637e-05
6.8155e-05
7.05847e-05
7.31681e-05
7.59189e-05
7.88487e-05
8.19672e-05
8.52823e-05
8.87995e-05
9.25221e-05
9.64508e-05
0.000100584
0.000104915
0.000109435
0.00011413
0.00011898
0.000123961
0.000129038
0.00013417
0.000139306
0.000144382
0.000149325
0.000154045
0.000158442
0.000162398
0.000165785
0.000168461
0.000170239
0.000170968
0.000170688
0.000169137
0.000166192
0.000161779
0.000155874
0.000148506
0.000139763
0.000129791
0.000118796
0.000107035
9.47982e-05
8.23945e-05
7.01269e-05
5.82744e-05
4.70766e-05
3.67268e-05
2.738e-05
1.91869e-05
1.23939e-05
7.70377e-06
8.58601e-06
6.48112e-06
4.23247e-06
5.27335e-06
7.26449e-06
9.69125e-06
1.23437e-05
1.51028e-05
1.78873e-05
2.06375e-05
2.33086e-05
2.58686e-05
2.82967e-05
3.0582e-05
3.27229e-05
3.47254e-05
3.66018e-05
3.83697e-05
4.00498e-05
4.16653e-05
4.32402e-05
4.47987e-05
4.63641e-05
4.79589e-05
4.96038e-05
5.13182e-05
5.31196e-05
5.50241e-05
5.70459e-05
5.91981e-05
6.14918e-05
6.39368e-05
6.65412e-05
6.93112e-05
7.22514e-05
7.53641e-05
7.8649e-05
8.21035e-05
8.57216e-05
8.94936e-05
9.34058e-05
9.74395e-05
0.00010157
0.000105767
0.000109992
0.000114198
0.00011833
0.000122322
0.0001261
0.000129578
0.00013266
0.000135243
0.000137215
0.000138402
0.000138767
0.00013828
0.000136763
0.000134135
0.000130352
0.000125407
0.000119334
0.00011221
0.000104156
9.53356e-05
8.59475e-05
7.62157e-05
6.63753e-05
5.66582e-05
4.72799e-05
3.84299e-05
3.02712e-05
2.2954e-05
1.66611e-05
1.17398e-05
9.18937e-06
1.39755e-05
9.33406e-06
5.31492e-06
5.55154e-06
6.92983e-06
8.81298e-06
1.09563e-05
1.32305e-05
1.55532e-05
1.78661e-05
2.01269e-05
2.23053e-05
2.43817e-05
2.63452e-05
2.81934e-05
2.99304e-05
3.15663e-05
3.31154e-05
3.45952e-05
3.60254e-05
3.74265e-05
3.88192e-05
4.02239e-05
4.166e-05
4.31459e-05
4.46986e-05
4.63338e-05
4.80656e-05
4.99071e-05
5.18697e-05
5.39637e-05
5.61976e-05
5.85786e-05
6.11121e-05
6.38015e-05
6.66481e-05
6.96508e-05
7.28054e-05
7.61048e-05
7.95381e-05
8.30899e-05
8.67403e-05
9.04639e-05
9.42293e-05
9.79985e-05
0.000101726
0.00010536
0.000108838
0.000112093
0.00011505
0.000117626
0.000119733
0.000121275
0.000122082
0.000122214
0.00012157
0.000120033
0.000117547
0.000114081
0.000109637
0.000104248
9.79835e-05
9.09484e-05
8.32815e-05
7.51505e-05
6.67439e-05
5.82604e-05
4.98974e-05
4.18409e-05
3.42597e-05
2.73096e-05
2.11529e-05
1.60144e-05
1.23549e-05
1.14726e-05
2.00151e-05
1.2469e-05
6.63724e-06
6.15949e-06
7.04061e-06
8.51055e-06
1.02855e-05
1.22218e-05
1.42317e-05
1.62554e-05
1.82501e-05
2.01857e-05
2.20423e-05
2.38087e-05
2.54813e-05
2.70628e-05
2.85614e-05
2.99895e-05
3.13626e-05
3.26978e-05
3.40137e-05
3.5329e-05
3.66622e-05
3.80312e-05
3.94527e-05
4.09426e-05
4.25155e-05
4.41847e-05
4.59623e-05
4.78592e-05
4.98846e-05
5.20466e-05
5.43515e-05
5.68037e-05
5.94056e-05
6.21572e-05
6.50559e-05
6.80958e-05
7.12679e-05
7.45589e-05
7.79515e-05
8.14234e-05
8.49473e-05
8.84904e-05
9.20137e-05
9.54724e-05
9.88156e-05
0.000101986
0.000104922
0.000107554
0.000109813
0.000111624
0.000112893
0.00011347
0.000113472
0.000112747
0.000111223
0.000108849
0.000105602
0.000101482
9.65147e-05
9.0761e-05
8.43099e-05
7.72843e-05
6.9835e-05
6.21344e-05
5.4367e-05
4.67184e-05
3.9367e-05
3.24794e-05
2.62168e-05
2.07625e-05
1.63949e-05
1.36829e-05
1.42296e-05
2.65473e-05
1.58499e-05
8.13388e-06
6.98575e-06
7.43432e-06
8.5641e-06
1.00494e-05
1.17301e-05
1.35112e-05
1.53294e-05
1.71403e-05
1.89125e-05
2.06253e-05
2.22665e-05
2.38313e-05
2.53212e-05
2.67431e-05
2.81079e-05
2.94293e-05
3.07234e-05
3.20071e-05
3.3298e-05
3.46134e-05
3.59702e-05
3.73845e-05
3.88712e-05
4.04445e-05
4.21172e-05
4.39007e-05
4.58054e-05
4.784e-05
5.00118e-05
5.23262e-05
5.47866e-05
5.7394e-05
6.01469e-05
6.30405e-05
6.6067e-05
6.92148e-05
7.2468e-05
7.58067e-05
7.9206e-05
8.26367e-05
8.60642e-05
8.94494e-05
9.27483e-05
9.59121e-05
9.88882e-05
0.00010162
0.000104049
0.000106113
0.000107751
0.000108871
0.00010935
0.000109315
0.000108607
0.000107165
0.00010494
0.000101904
9.80456e-05
9.33801e-05
8.7948e-05
8.18297e-05
7.51377e-05
6.80156e-05
6.06328e-05
5.31745e-05
4.58309e-05
3.87881e-05
3.22241e-05
2.63177e-05
2.12809e-05
1.74432e-05
1.5475e-05
1.73051e-05
3.34588e-05
1.94529e-05
9.77013e-06
7.97173e-06
8.02731e-06
8.8627e-06
1.01078e-05
1.15847e-05
1.31899e-05
1.48557e-05
1.65349e-05
1.81945e-05
1.98122e-05
2.13745e-05
2.28754e-05
2.43154e-05
2.57001e-05
2.70392e-05
2.83454e-05
2.96339e-05
3.09206e-05
3.22222e-05
3.35556e-05
3.4937e-05
3.6382e-05
3.79051e-05
3.95202e-05
4.12396e-05
4.30745e-05
4.50345e-05
4.71278e-05
4.93608e-05
5.17379e-05
5.4261e-05
5.69295e-05
5.97399e-05
6.26852e-05
6.57549e-05
6.89346e-05
7.22058e-05
7.55456e-05
7.89272e-05
8.23193e-05
8.56869e-05
8.89914e-05
9.21909e-05
9.52406e-05
9.80934e-05
0.0001007
0.000103011
0.000104975
0.000106538
0.000107628
0.000108122
0.000108142
0.000107546
0.000106262
0.000104236
0.000101425
9.78049e-05
9.33724e-05
8.81568e-05
8.22221e-05
7.56724e-05
6.86498e-05
6.13286e-05
5.39054e-05
4.65865e-05
3.9577e-05
3.30765e-05
2.72883e-05
2.24565e-05
1.89729e-05
1.75978e-05
2.06096e-05
4.0662e-05
2.32623e-05
1.15259e-05
9.08317e-06
8.77093e-06
9.34293e-06
1.03813e-05
1.16896e-05
1.31553e-05
1.47051e-05
1.62888e-05
1.78708e-05
1.94272e-05
2.0943e-05
2.24108e-05
2.383e-05
2.52052e-05
2.65452e-05
2.78621e-05
2.917e-05
3.04847e-05
3.18221e-05
3.31989e-05
3.46307e-05
3.61331e-05
3.77203e-05
3.94058e-05
4.12017e-05
4.31182e-05
4.51643e-05
4.73477e-05
4.96737e-05
5.21453e-05
5.47629e-05
5.75237e-05
6.0422e-05
6.34481e-05
6.6589e-05
6.98275e-05
7.31424e-05
7.65085e-05
7.98974e-05
8.32771e-05
8.66132e-05
8.98692e-05
9.30071e-05
9.59874e-05
9.87702e-05
0.000101315
0.000103581
0.000105526
0.000107105
0.000108266
0.000108893
0.000109046
0.000108653
0.000107607
0.000105842
0.000103298
9.99268e-05
9.57065e-05
9.06469e-05
8.47992e-05
7.82605e-05
7.11752e-05
6.37283e-05
5.61354e-05
4.86275e-05
4.14381e-05
3.47966e-05
2.89381e-05
2.41432e-05
2.08726e-05
1.99702e-05
2.40857e-05
4.80893e-05
2.72675e-05
1.33887e-05
1.02987e-05
9.63453e-06
9.96494e-06
1.0821e-05
1.19864e-05
1.33386e-05
1.47992e-05
1.63139e-05
1.78443e-05
1.93643e-05
2.08573e-05
2.23148e-05
2.37348e-05
2.51211e-05
2.64818e-05
2.78284e-05
2.91745e-05
3.05352e-05
3.19266e-05
3.33647e-05
3.48654e-05
3.64437e-05
3.81138e-05
3.98888e-05
4.17805e-05
4.37992e-05
4.59532e-05
4.82487e-05
5.06896e-05
5.32771e-05
5.60097e-05
5.88823e-05
6.18864e-05
6.50096e-05
6.82356e-05
7.15445e-05
7.4913e-05
7.83144e-05
8.17194e-05
8.50967e-05
8.8414e-05
9.16381e-05
9.47363e-05
9.7677e-05
0.000100429
0.000102963
0.000105246
0.000107246
0.000108925
0.000110238
0.000111103
0.000111475
0.000111361
0.000110625
0.000109179
0.000106939
0.000103835
9.98185e-05
9.4881e-05
8.90593e-05
8.24445e-05
7.51846e-05
6.74787e-05
5.95656e-05
5.17072e-05
4.41722e-05
3.72269e-05
3.11444e-05
2.62466e-05
2.30695e-05
2.25383e-05
2.76931e-05
5.56875e-05
3.14607e-05
1.53504e-05
1.16043e-05
1.05977e-05
1.07022e-05
1.13943e-05
1.24364e-05
1.36956e-05
1.50871e-05
1.65526e-05
1.8051e-05
1.95539e-05
2.10425e-05
2.2507e-05
2.39443e-05
2.53573e-05
2.67535e-05
2.81439e-05
2.95421e-05
3.09631e-05
3.24226e-05
3.39367e-05
3.55209e-05
3.71903e-05
3.89586e-05
4.08385e-05
4.28411e-05
4.4976e-05
4.72506e-05
4.96699e-05
5.22361e-05
5.49487e-05
5.78036e-05
6.07933e-05
6.39064e-05
6.71278e-05
7.04385e-05
7.38164e-05
7.72363e-05
8.06708e-05
8.40912e-05
8.74682e-05
9.07729e-05
9.39781e-05
9.70581e-05
9.999e-05
0.000102752
0.000105324
0.000107684
0.000109806
0.000111657
0.000113195
0.000114361
0.000115062
0.000115264
0.000114897
0.000113816
0.000111915
0.000109095
0.000105283
0.000100452
9.4621e-05
8.78768e-05
8.03699e-05
7.23143e-05
6.39739e-05
5.56447e-05
4.76353e-05
4.0255e-05
3.38206e-05
2.87006e-05
2.55125e-05
2.52648e-05
3.14024e-05
6.34139e-05
3.58367e-05
1.74055e-05
1.29904e-05
1.16461e-05
1.15363e-05
1.20784e-05
1.30127e-05
1.41951e-05
1.55342e-05
1.69672e-05
1.84498e-05
1.99507e-05
2.14496e-05
2.2935e-05
2.44028e-05
2.58551e-05
2.72989e-05
2.87449e-05
3.02063e-05
3.16981e-05
3.3236e-05
3.48359e-05
3.65133e-05
3.82829e-05
4.01584e-05
4.21519e-05
4.42737e-05
4.65326e-05
4.89347e-05
5.14833e-05
5.4179e-05
5.70189e-05
5.99964e-05
6.31014e-05
6.63198e-05
6.96336e-05
7.30218e-05
7.64603e-05
7.99233e-05
8.33837e-05
8.68146e-05
9.01902e-05
9.34872e-05
9.66849e-05
9.97665e-05
0.000102718
0.000105528
0.000108184
0.000110674
0.000112976
0.000115062
0.000116889
0.000118397
0.000119512
0.000120076
0.000120101
0.000119417
0.000117879
0.000115357
0.000111757
0.000107026
0.000101173
9.42736e-05
8.64805e-05
7.80205e-05
6.91822e-05
6.02965e-05
5.17152e-05
4.37948e-05
3.69014e-05
3.14565e-05
2.81644e-05
2.81221e-05
3.51915e-05
7.12345e-05
4.0392e-05
1.95504e-05
1.44505e-05
1.27698e-05
1.24539e-05
1.2857e-05
1.3696e-05
1.48148e-05
1.61151e-05
1.75291e-05
1.90089e-05
2.05206e-05
2.20417e-05
2.35592e-05
2.50679e-05
2.65693e-05
2.80698e-05
2.95799e-05
3.11127e-05
3.26832e-05
3.43069e-05
3.59999e-05
3.77773e-05
3.96537e-05
4.16422e-05
4.37544e-05
4.59999e-05
4.8386e-05
5.09175e-05
5.3596e-05
5.64199e-05
5.93838e-05
6.24788e-05
6.56918e-05
6.90062e-05
7.24019e-05
7.58558e-05
7.93432e-05
8.28383e-05
8.63157e-05
8.97519e-05
9.31258e-05
9.64207e-05
9.96242e-05
0.000102728
0.000105728
0.000108622
0.000111405
0.000114071
0.000116603
0.000118973
0.000121135
0.000123024
0.000124558
0.000125581
0.000125974
0.000125703
0.000124543
0.00012233
0.000118947
0.000114324
0.000108451
0.000101394
9.33032e-05
8.44153e-05
7.50404e-05
6.55433e-05
5.63195e-05
4.77767e-05
4.03356e-05
3.44766e-05
3.09968e-05
3.10901e-05
3.90438e-05
7.91229e-05
4.51243e-05
2.17824e-05
1.59798e-05
1.39615e-05
1.34451e-05
1.3718e-05
1.44719e-05
1.55384e-05
1.68112e-05
1.82176e-05
1.97056e-05
2.12385e-05
2.27916e-05
2.43502e-05
2.59083e-05
2.74664e-05
2.90307e-05
3.06115e-05
3.22218e-05
3.38765e-05
3.55914e-05
3.7382e-05
3.92637e-05
4.12505e-05
4.33549e-05
4.55879e-05
4.79579e-05
5.0471e-05
5.31301e-05
5.5935e-05
5.88817e-05
6.19625e-05
6.51657e-05
6.84759e-05
7.1874e-05
7.53382e-05
7.88445e-05
8.2368e-05
8.58845e-05
8.93713e-05
9.28094e-05
9.61839e-05
9.94856e-05
0.00010271
0.000105859
0.000108937
0.000111948
0.000114896
0.000117777
0.000120577
0.000123265
0.000125791
0.000128081
0.00013004
0.00013154
0.000132329
0.000132439
0.000131662
0.000129764
0.000126608
0.000122105
0.000116227
0.000109029
0.000100653
9.13406e-05
8.14185e-05
7.12819e-05
6.13698e-05
5.21427e-05
4.4081e-05
3.77307e-05
3.3989e-05
3.41537e-05
4.29467e-05
8.70592e-05
5.00321e-05
2.40999e-05
1.75749e-05
1.52155e-05
1.45025e-05
1.46519e-05
1.53296e-05
1.63532e-05
1.76084e-05
1.90169e-05
2.05224e-05
2.20853e-05
2.36785e-05
2.52857e-05
2.68997e-05
2.85205e-05
3.01539e-05
3.18101e-05
3.35021e-05
3.52448e-05
3.70539e-05
3.8945e-05
4.09329e-05
4.30313e-05
4.52521e-05
4.76052e-05
5.00979e-05
5.27346e-05
5.55166e-05
5.84414e-05
6.15028e-05
6.46905e-05
6.79905e-05
7.1385e-05
7.48532e-05
7.83722e-05
8.19176e-05
8.54659e-05
8.89951e-05
9.24867e-05
9.5927e-05
9.93082e-05
0.000102629
0.000105893
0.000109111
0.000112294
0.000115454
0.000118598
0.000121724
0.000124817
0.000127842
0.000130744
0.00013344
0.000135823
0.000137763
0.000138997
0.000139433
0.000139035
0.000137452
0.00013453
0.000130163
0.000124307
0.000116998
0.000108369
9.86575e-05
8.82018e-05
7.7422e-05
6.67976e-05
5.68432e-05
4.81028e-05
4.11942e-05
3.71255e-05
3.73019e-05
4.68914e-05
9.50292e-05
5.51146e-05
2.65016e-05
1.92332e-05
1.6528e-05
1.56201e-05
1.56518e-05
1.62604e-05
1.72493e-05
1.84955e-05
1.99145e-05
2.14456e-05
2.30459e-05
2.46858e-05
2.63475e-05
2.80226e-05
2.97105e-05
3.14168e-05
3.31516e-05
3.49279e-05
3.67606e-05
3.86654e-05
4.06576e-05
4.27519e-05
4.49612e-05
4.72967e-05
4.97672e-05
5.23785e-05
5.51335e-05
5.80314e-05
6.10677e-05
6.42337e-05
6.75169e-05
7.09011e-05
7.43667e-05
7.78917e-05
8.14526e-05
8.50261e-05
8.85905e-05
9.21273e-05
9.5623e-05
9.90701e-05
0.000102468
0.000105824
0.000109149
0.00011246
0.000115775
0.000119111
0.000122475
0.000125866
0.000129266
0.000132635
0.000135909
0.000138999
0.000141788
0.000144135
0.000145809
0.000146552
0.000146497
0.000145227
0.000142544
0.000138331
0.000132527
0.000125147
0.00011631
0.000106244
9.52889e-05
8.3883e-05
7.25424e-05
6.1835e-05
5.23716e-05
4.4848e-05
4.03941e-05
4.05268e-05
5.08723e-05
0.000103024
6.03716e-05
2.89867e-05
2.09529e-05
1.78958e-05
1.67935e-05
1.6712e-05
1.72576e-05
1.82191e-05
1.94637e-05
2.09005e-05
2.24641e-05
2.41079e-05
2.58e-05
2.75207e-05
2.92607e-05
3.10189e-05
3.28005e-05
3.46156e-05
3.64773e-05
3.84007e-05
4.04011e-05
4.24938e-05
4.46929e-05
4.70108e-05
4.94576e-05
5.2041e-05
5.47653e-05
5.76316e-05
6.06371e-05
6.37751e-05
6.70349e-05
7.04019e-05
7.3858e-05
7.73822e-05
8.09521e-05
8.45446e-05
8.81381e-05
9.17137e-05
9.52575e-05
9.87614e-05
0.000102225
0.000105654
0.000109063
0.000112471
0.0001159
0.000119372
0.000122905
0.000126507
0.000130175
0.000133884
0.000137591
0.000141224
0.000144684
0.000147849
0.000150566
0.000152634
0.000153706
0.000153922
0.00015296
0.000150518
0.000146476
0.000140755
0.000133351
0.00012436
0.000113996
0.00010259
9.05931e-05
7.85502e-05
6.70801e-05
5.68624e-05
4.86769e-05
4.37854e-05
4.38237e-05
5.48864e-05
0.00011104
6.58027e-05
3.15546e-05
2.27325e-05
1.93163e-05
1.80191e-05
1.7828e-05
1.83159e-05
1.92561e-05
2.05057e-05
2.19667e-05
2.35687e-05
2.52611e-05
2.70097e-05
2.87929e-05
3.06004e-05
3.24306e-05
3.42886e-05
3.61846e-05
3.81317e-05
4.01449e-05
4.22396e-05
4.44308e-05
4.67319e-05
4.91547e-05
5.17082e-05
5.43988e-05
5.72293e-05
6.0199e-05
6.33031e-05
6.65329e-05
6.98758e-05
7.33153e-05
7.68319e-05
8.04043e-05
8.40098e-05
8.76269e-05
9.12363e-05
9.4823e-05
9.83779e-05
0.000101899
0.000105392
0.00010887
0.000112354
0.000115868
0.000119438
0.000123088
0.000126836
0.000130688
0.000134636
0.00013865
0.00014268
0.000146647
0.000150447
0.000153951
0.000157001
0.000159403
0.0001608
0.000161238
0.000160567
0.000158362
0.000154501
0.000148892
0.000141508
0.000132421
0.000121821
0.000110027
9.74879e-05
8.47722e-05
7.25446e-05
6.1554e-05
5.26694e-05
4.72918e-05
4.71898e-05
5.89328e-05
0.000119077
7.14082e-05
3.4205e-05
2.45708e-05
2.07877e-05
1.92941e-05
1.89962e-05
1.94308e-05
2.03552e-05
2.16156e-05
2.31063e-05
2.47515e-05
2.64967e-05
2.83049e-05
3.01529e-05
3.20294e-05
3.39324e-05
3.58669e-05
3.78431e-05
3.98744e-05
4.19757e-05
4.41623e-05
4.64488e-05
4.88481e-05
5.13712e-05
5.4026e-05
5.68174e-05
5.97468e-05
6.28116e-05
6.60053e-05
6.93174e-05
7.27333e-05
7.62355e-05
7.98037e-05
8.34163e-05
8.70517e-05
9.06904e-05
9.43162e-05
9.79184e-05
0.000101493
0.000105045
0.000108585
0.000112133
0.000115714
0.000119358
0.00012309
0.000126937
0.000130913
0.000135021
0.000139246
0.000143554
0.000147887
0.00015216
0.000156265
0.000160068
0.000163409
0.000166095
0.000167784
0.000168411
0.000168004
0.000166023
0.000162348
0.000156871
0.000149546
0.000140417
0.000129647
0.000117531
0.00010451
9.11641e-05
7.81975e-05
6.64271e-05
5.68154e-05
5.09085e-05
5.06243e-05
6.30128e-05
0.000127138
7.71879e-05
3.69374e-05
2.6467e-05
2.23082e-05
2.06162e-05
2.02135e-05
2.05987e-05
2.15121e-05
2.27883e-05
2.43134e-05
2.60058e-05
2.7807e-05
2.9677e-05
3.15912e-05
3.35371e-05
3.55125e-05
3.75225e-05
3.95774e-05
4.16906e-05
4.38773e-05
4.61525e-05
4.85305e-05
5.10236e-05
5.36417e-05
5.63919e-05
5.92775e-05
6.22984e-05
6.54504e-05
6.87253e-05
7.2111e-05
7.55918e-05
7.91491e-05
8.27624e-05
8.64107e-05
9.00742e-05
9.37358e-05
9.73831e-05
0.00010101
0.000104619
0.000108218
0.000111826
0.000115467
0.00011917
0.000122965
0.000126881
0.00013094
0.000135154
0.000139519
0.000144016
0.000148604
0.000153216
0.000157766
0.000162139
0.000166201
0.00016979
0.000172715
0.000174656
0.000175445
0.000175264
0.000173487
0.00016999
0.000164656
0.000157419
0.000148294
0.000137414
0.000125045
0.000111608
9.76852e-05
8.40103e-05
7.14645e-05
6.11061e-05
5.46331e-05
5.41278e-05
6.71289e-05
0.00013523
8.31418e-05
3.97515e-05
2.84203e-05
2.38764e-05
2.19837e-05
2.14776e-05
2.18165e-05
2.2723e-05
2.40193e-05
2.55827e-05
2.73256e-05
2.9185e-05
3.11182e-05
3.30988e-05
3.51137e-05
3.71603e-05
3.92439e-05
4.1375e-05
4.35674e-05
4.5836e-05
4.8196e-05
5.0661e-05
5.32429e-05
5.59507e-05
5.87901e-05
6.17634e-05
6.4869e-05
6.81011e-05
7.14501e-05
7.49026e-05
7.84421e-05
8.20495e-05
8.57049e-05
8.93884e-05
9.30822e-05
9.67726e-05
0.000100451
0.000104117
0.000107776
0.000111445
0.000115144
0.000118902
0.000122751
0.000126721
0.000130839
0.000135123
0.000139582
0.000144205
0.000148966
0.000153817
0.000158688
0.000163486
0.000168094
0.000172378
0.000176174
0.000179294
0.000181447
0.000182376
0.000182373
0.000180774
0.000177439
0.000172244
0.000165107
0.00015602
0.000145081
0.000132523
0.000118738
0.000104298
8.99558e-05
7.66496e-05
6.55339e-05
5.84637e-05
5.77018e-05
7.12848e-05
0.000143361
8.92699e-05
4.26471e-05
3.04299e-05
2.54913e-05
2.33949e-05
2.27861e-05
2.30815e-05
2.39848e-05
2.53048e-05
2.69098e-05
2.87054e-05
3.06245e-05
3.26212e-05
3.46677e-05
3.67502e-05
3.8866e-05
4.10206e-05
4.32248e-05
4.54927e-05
4.78395e-05
5.02799e-05
5.28274e-05
5.54932e-05
5.82852e-05
6.12083e-05
6.42635e-05
6.74477e-05
7.0754e-05
7.41717e-05
7.76864e-05
8.12811e-05
8.49371e-05
8.86351e-05
9.2357e-05
9.60879e-05
9.98173e-05
0.000103541
0.000107263
0.000110995
0.000114756
0.000118572
0.000122473
0.000126492
0.000130658
0.000134995
0.000139517
0.000144226
0.000149107
0.000154125
0.000159226
0.000164336
0.000169358
0.000174173
0.000178646
0.000182614
0.000185891
0.000188214
0.000189275
0.000189388
0.000187935
0.000184734
0.00017966
0.000172619
0.000163584
0.000152622
0.00013993
0.000125862
0.000110968
9.6008e-05
8.19665e-05
7.00913e-05
6.2399e-05
6.13485e-05
7.5485e-05
0.00015154
9.55717e-05
4.56238e-05
3.24952e-05
2.71519e-05
2.48483e-05
2.41375e-05
2.43914e-05
2.52945e-05
2.66413e-05
2.82903e-05
3.01404e-05
3.21196e-05
3.41794e-05
3.62904e-05
3.84383e-05
4.06205e-05
4.28428e-05
4.51166e-05
4.74562e-05
4.98769e-05
5.23935e-05
5.5019e-05
5.77638e-05
6.06353e-05
6.36372e-05
6.67693e-05
7.00276e-05
7.34041e-05
7.68872e-05
8.0462e-05
8.41116e-05
8.78178e-05
9.15628e-05
9.53306e-05
9.91093e-05
0.000102892
0.00010668
0.000110479
0.000114307
0.000118186
0.000122145
0.000126216
0.000130428
0.000134811
0.000139384
0.000144156
0.000149122
0.000154259
0.000159528
0.00016487
0.000170204
0.000175431
0.000180432
0.000185072
0.000189185
0.000192589
0.000195044
0.00019621
0.000196399
0.00019505
0.000191942
0.000186954
0.000179987
0.000170999
0.000160031
0.000147242
0.000132949
0.000117664
0.000102141
8.73986e-05
7.47708e-05
6.64376e-05
6.50703e-05
7.97339e-05
0.000159777
0.000102047
4.8681e-05
3.46155e-05
2.88571e-05
2.63427e-05
2.55299e-05
2.57442e-05
2.66495e-05
2.80256e-05
2.97204e-05
3.16256e-05
3.36648e-05
3.57865e-05
3.79599e-05
4.01704e-05
4.24156e-05
4.47021e-05
4.70415e-05
4.94487e-05
5.19392e-05
5.45278e-05
5.72269e-05
6.00467e-05
6.29936e-05
6.60705e-05
6.92762e-05
7.26058e-05
7.60505e-05
7.95982e-05
8.3234e-05
8.69414e-05
9.07032e-05
9.45033e-05
9.83285e-05
0.00010217
0.000106024
0.000109897
0.000113798
0.000117749
0.000121774
0.000125903
0.000130168
0.000134599
0.000139219
0.000144044
0.000149077
0.000154305
0.000159701
0.00016522
0.000170795
0.000176345
0.000181767
0.000186941
0.000191731
0.000195973
0.000199483
0.000202039
0.000203277
0.000203511
0.000202219
0.000199154
0.000194204
0.000187268
0.000178297
0.000167315
0.000154451
0.000139975
0.000124359
0.000108331
9.2929e-05
7.9564e-05
7.05775e-05
6.88692e-05
8.40359e-05
0.000168081
0.000108694
5.18182e-05
3.67901e-05
3.06062e-05
2.7877e-05
2.6962e-05
2.71379e-05
2.80476e-05
2.94546e-05
3.11963e-05
3.31569e-05
3.52549e-05
3.74365e-05
3.96695e-05
4.19392e-05
4.42438e-05
4.65904e-05
4.89915e-05
5.14623e-05
5.40188e-05
5.66755e-05
5.94449e-05
6.23364e-05
6.53558e-05
6.85053e-05
7.17829e-05
7.51831e-05
7.86965e-05
8.23109e-05
8.60117e-05
8.97831e-05
9.36094e-05
9.74767e-05
0.000101374
0.000105297
0.000109245
0.000113226
0.000117256
0.000121357
0.000125556
0.000129883
0.000134369
0.000139041
0.000143919
0.000149011
0.000154316
0.000159816
0.000165476
0.000171245
0.000177054
0.000182817
0.00018843
0.000193772
0.000198707
0.000203068
0.000206674
0.000209305
0.000210586
0.00021084
0.000209556
0.000206479
0.000201504
0.000194538
0.000185533
0.000174506
0.00016156
0.000146928
0.000131029
0.000114554
9.85395e-05
8.44612e-05
7.48159e-05
7.27467e-05
8.83948e-05
0.000176461
0.000115513
5.50348e-05
3.90184e-05
3.23981e-05
2.94501e-05
2.84323e-05
2.85709e-05
2.94863e-05
3.09256e-05
3.27146e-05
3.47298e-05
3.68851e-05
3.91238e-05
4.14131e-05
4.37383e-05
4.60983e-05
4.8501e-05
5.09598e-05
5.34906e-05
5.61096e-05
5.88316e-05
6.16686e-05
6.46297e-05
6.77203e-05
7.09417e-05
7.42917e-05
7.7764e-05
8.13493e-05
8.50354e-05
8.88084e-05
9.26535e-05
9.65568e-05
0.000100507
0.000104495
0.00010852
0.000112586
0.000116703
0.00012089
0.00012517
0.000129572
0.000134125
0.000138858
0.000143793
0.000148947
0.000154324
0.000159915
0.000165695
0.000171625
0.00017765
0.000183697
0.000189678
0.000195486
0.000200999
0.000206081
0.000210564
0.000214262
0.000216953
0.000218256
0.000218507
0.000217184
0.000214037
0.000208967
0.000201894
0.000192781
0.000181649
0.000168591
0.000153803
0.000137656
0.000120786
0.000104211
8.94508e-05
7.91484e-05
7.67033e-05
9.28134e-05
0.000184922
0.000122501
5.83299e-05
4.12996e-05
3.42322e-05
3.10609e-05
2.99395e-05
3.00414e-05
3.09636e-05
3.24358e-05
3.42718e-05
3.63403e-05
3.85504e-05
4.08432e-05
4.31851e-05
4.55617e-05
4.7973e-05
5.04279e-05
5.29409e-05
5.55286e-05
5.82076e-05
6.09928e-05
6.38961e-05
6.69264e-05
7.00884e-05
7.33833e-05
7.68082e-05
8.0357e-05
8.40201e-05
8.7786e-05
9.16416e-05
9.55735e-05
9.95697e-05
0.000103621
0.000107722
0.000111874
0.000116084
0.000120365
0.000124737
0.000129226
0.00013386
0.000138666
0.000143671
0.000148893
0.000154343
0.00016002
0.000165909
0.000171981
0.000178192
0.000184482
0.000190776
0.000196983
0.000202996
0.000208692
0.000213932
0.000218545
0.000222344
0.000225088
0.0002264
0.000226633
0.000225231
0.000221956
0.000216716
0.000209446
0.000200131
0.000188809
0.000175577
0.00016061
0.000144229
0.000127008
0.000109924
9.45198e-05
8.35691e-05
8.0738e-05
9.72932e-05
0.000193467
0.000129658
6.17026e-05
4.36328e-05
3.61075e-05
3.27085e-05
3.14825e-05
3.15478e-05
3.24774e-05
3.39824e-05
3.58646e-05
3.79844e-05
4.02465e-05
4.25897e-05
4.49801e-05
4.74041e-05
4.98627e-05
5.23663e-05
5.49306e-05
5.75729e-05
6.03104e-05
6.31581e-05
6.6128e-05
6.92286e-05
7.24645e-05
7.58365e-05
7.93417e-05
8.29737e-05
8.67237e-05
9.05805e-05
9.45323e-05
9.85672e-05
0.000102675
0.00010685
0.000111088
0.000115393
0.000119775
0.00012425
0.000128838
0.000133566
0.000138459
0.000143545
0.000148846
0.000154376
0.000160141
0.000166134
0.000172336
0.000178713
0.000185217
0.000191784
0.000198338
0.000204785
0.000211018
0.000216912
0.000222327
0.000227088
0.000231002
0.000233807
0.000235126
0.00023533
0.000233818
0.000230363
0.000224879
0.000217317
0.000207689
0.000196068
0.000182571
0.000167369
0.000150743
0.000133201
0.000115658
9.96528e-05
8.80702e-05
8.48483e-05
0.000101834
0.000202099
0.00013698
6.51517e-05
4.60172e-05
3.80231e-05
3.43917e-05
3.30597e-05
3.30885e-05
3.40255e-05
3.55629e-05
3.74897e-05
3.96584e-05
4.1969e-05
4.43587e-05
4.67935e-05
4.92608e-05
5.17633e-05
5.43128e-05
5.69262e-05
5.96219e-05
6.24177e-05
6.53288e-05
6.83672e-05
7.15415e-05
7.48559e-05
7.83112e-05
8.19044e-05
8.56297e-05
8.94783e-05
9.34404e-05
9.75051e-05
0.000101662
0.000105904
0.000110226
0.000114628
0.000119115
0.000123699
0.000128397
0.000133231
0.000138227
0.000143408
0.000148799
0.000154419
0.000160277
0.000166375
0.000172701
0.000179231
0.000185926
0.000192736
0.000199594
0.000206422
0.000213127
0.000219599
0.000225712
0.000231325
0.000236256
0.000240308
0.000243193
0.000244528
0.000244702
0.000243059
0.000239383
0.000233584
0.000225632
0.000215573
0.000203522
0.000189639
0.000174116
0.000157207
0.000139353
0.000121392
0.000104833
9.26417e-05
8.90298e-05
0.000106434
0.000210813
0.000144466
6.86762e-05
4.84516e-05
3.9978e-05
3.61098e-05
3.46699e-05
3.4662e-05
3.56059e-05
3.71746e-05
3.9144e-05
4.13585e-05
4.37139e-05
4.6146e-05
4.86211e-05
5.11282e-05
5.36715e-05
5.62648e-05
5.89264e-05
6.16758e-05
6.45313e-05
6.75085e-05
7.06196e-05
7.3873e-05
7.7273e-05
8.08204e-05
8.45125e-05
8.83436e-05
9.23059e-05
9.63904e-05
0.000100588
0.000104889
0.000109289
0.000113785
0.000118378
0.000123077
0.000127893
0.000132846
0.000137956
0.000143247
0.000148743
0.000154464
0.000160425
0.000166631
0.000173079
0.000179753
0.000186625
0.000193652
0.000200781
0.000207945
0.000215064
0.000222044
0.000228776
0.000235131
0.000240967
0.000246097
0.000250315
0.00025331
0.000254681
0.000254831
0.000253055
0.000249129
0.000242957
0.000234521
0.000223904
0.000211278
0.000196865
0.0001809
0.000163635
0.000145456
0.000127109
0.000110041
9.72714e-05
9.32761e-05
0.000111089
0.000219604
0.000152112
7.22744e-05
5.09352e-05
4.19714e-05
3.78615e-05
3.63116e-05
3.62667e-05
3.72166e-05
3.8815e-05
4.08244e-05
4.30813e-05
4.54775e-05
4.79479e-05
5.04595e-05
5.30032e-05
5.55854e-05
5.82217e-05
6.0932e-05
6.37369e-05
6.66553e-05
6.97035e-05
7.28936e-05
7.62341e-05
7.97295e-05
8.33806e-05
8.7185e-05
9.11377e-05
9.52315e-05
9.94586e-05
0.000103811
0.000108282
0.000112866
0.000117564
0.000122379
0.000127319
0.000132399
0.000137636
0.000143051
0.000148666
0.000154502
0.000160575
0.000166898
0.00017347
0.000180285
0.000187321
0.000194546
0.000201918
0.000209379
0.000216863
0.000224289
0.000231563
0.000238574
0.000245196
0.000251281
0.00025664
0.000261056
0.000264204
0.000265642
0.000265784
0.000263885
0.000259697
0.000253108
0.000244107
0.000232811
0.000219455
0.000204344
0.000187784
0.000170058
0.000151509
0.00013279
0.000115258
0.000101945
9.75786e-05
0.000115793
0.000228461
0.000159916
7.59449e-05
5.34665e-05
4.40019e-05
3.96458e-05
3.79835e-05
3.79008e-05
3.88554e-05
4.04814e-05
4.25279e-05
4.48234e-05
4.72565e-05
4.97612e-05
5.23061e-05
5.48843e-05
5.75043e-05
6.01842e-05
6.29452e-05
6.58094e-05
6.87963e-05
7.19225e-05
7.52005e-05
7.86389e-05
8.22422e-05
8.60115e-05
8.99448e-05
9.40376e-05
9.82838e-05
0.000102676
0.000107209
0.000111875
0.000116673
0.000121603
0.00012667
0.000131883
0.000137256
0.000142808
0.000148556
0.000154521
0.000160721
0.000167169
0.000173871
0.000180826
0.00018802
0.00019543
0.000203022
0.000210749
0.000218554
0.00022637
0.000234116
0.000241699
0.000249011
0.000255921
0.000262282
0.0002679
0.000272549
0.000275897
0.000277444
0.000277604
0.00027561
0.000271167
0.000264137
0.000254505
0.000242416
0.000228173
0.00021218
0.000194845
0.000176515
0.000157522
0.000138423
0.000120463
0.000106646
0.000101926
0.000120538
0.000237369
0.000167875
7.9686e-05
5.60444e-05
4.60686e-05
4.14614e-05
3.96845e-05
3.95628e-05
4.05204e-05
4.21715e-05
4.42516e-05
4.6582e-05
4.90479e-05
5.15835e-05
5.41592e-05
5.67706e-05
5.9429e-05
6.21546e-05
6.49706e-05
6.79e-05
7.09633e-05
7.41773e-05
7.75549e-05
8.11046e-05
8.48313e-05
8.87363e-05
9.2818e-05
9.70727e-05
0.000101495
0.000106079
0.000110818
0.00011571
0.000120751
0.000125945
0.000131295
0.000136812
0.00014251
0.000148404
0.000154513
0.000160853
0.000167438
0.000174279
0.000181378
0.000188728
0.000196314
0.000204109
0.000212075
0.000220166
0.000228323
0.00023648
0.000244557
0.000252463
0.00026009
0.000267309
0.000273971
0.000279877
0.000284792
0.000288391
0.000290098
0.00029031
0.000288265
0.000283593
0.00027612
0.000265814
0.000252836