/*--------------------------------*- C++ -*----------------------------------*\
  =========                 |
  \\      /  F ield         | OpenFOAM: The Open Source CFD Toolbox
   \\    /   O peration     | Website:  https://openfoam.org
    \\  /    A nd           | Version:  12
     \\/     M anipulation  |
\*---------------------------------------------------------------------------*/
FoamFile
{
    format      ascii;
    class       volScalarField;
    location    "1.5";
    object      k;
}
// * * * * * * * * * * * * * * * * * * * * * * * * * * * * * * * * * * * * * //

dimensions      [0 2 -2 0 0 0 0];

internalField   nonuniform List<scalar> 
5625
(
2.17246e-10
1.46801e-09
3.25213e-09
5.34484e-09
7.62835e-09
1.00199e-08
1.24546e-08
1.48798e-08
1.7253e-08
1.95412e-08
2.17202e-08
2.37747e-08
2.56972e-08
2.74874e-08
2.91518e-08
3.07018e-08
3.21528e-08
3.35232e-08
3.48328e-08
3.61021e-08
3.73516e-08
3.8601e-08
3.98687e-08
4.11719e-08
4.25263e-08
4.39461e-08
4.54439e-08
4.70312e-08
4.87179e-08
5.05129e-08
5.24235e-08
5.44562e-08
5.66157e-08
5.89059e-08
6.1329e-08
6.38856e-08
6.65747e-08
6.93935e-08
7.23366e-08
7.53961e-08
7.85611e-08
8.18168e-08
8.51438e-08
8.85178e-08
9.1908e-08
9.52766e-08
9.85779e-08
1.01757e-07
1.0475e-07
1.07482e-07
1.09868e-07
1.11812e-07
1.132e-07
1.13883e-07
1.13926e-07
1.13128e-07
1.11388e-07
1.08643e-07
1.04864e-07
1.00057e-07
9.42714e-08
8.7601e-08
8.01856e-08
7.22043e-08
6.38649e-08
5.53895e-08
4.69978e-08
3.88902e-08
3.12352e-08
2.41611e-08
1.77565e-08
1.20811e-08
7.19244e-09
3.20453e-09
4.72891e-10
1.64151e-09
1.30719e-08
2.9177e-08
4.80317e-08
6.85941e-08
9.01241e-08
1.12039e-07
1.33866e-07
1.55223e-07
1.75813e-07
1.9542e-07
2.13904e-07
2.31198e-07
2.47303e-07
2.62273e-07
2.76213e-07
2.89262e-07
3.01586e-07
3.13362e-07
3.24776e-07
3.36012e-07
3.47247e-07
3.58647e-07
3.70367e-07
3.82548e-07
3.95318e-07
4.0879e-07
4.23067e-07
4.38239e-07
4.54385e-07
4.71572e-07
4.89857e-07
5.09285e-07
5.29887e-07
5.51686e-07
5.74686e-07
5.98878e-07
6.24237e-07
6.50716e-07
6.78242e-07
7.06718e-07
7.36011e-07
7.65947e-07
7.96307e-07
8.26816e-07
8.57133e-07
8.86847e-07
9.15465e-07
9.4241e-07
9.67012e-07
9.88507e-07
1.00603e-06
1.01856e-06
1.0247e-06
1.02508e-06
1.01786e-06
1.00216e-06
9.7742e-07
9.43371e-07
9.00077e-07
8.47979e-07
7.87928e-07
7.21183e-07
6.49354e-07
5.74314e-07
4.98058e-07
4.22562e-07
3.4963e-07
2.80774e-07
2.17146e-07
1.59538e-07
1.08483e-07
6.44812e-08
2.85153e-08
3.57135e-09
3.48389e-09
2.9826e-08
6.70097e-08
1.10545e-07
1.58016e-07
2.07712e-07
2.58289e-07
3.08655e-07
3.57931e-07
4.05429e-07
4.50652e-07
4.93277e-07
5.33152e-07
5.70275e-07
6.04779e-07
6.36904e-07
6.66973e-07
6.95368e-07
7.22503e-07
7.48807e-07
7.74704e-07
8.00604e-07
8.26892e-07
8.53923e-07
8.82025e-07
9.11492e-07
9.42588e-07
9.75549e-07
1.01058e-06
1.04787e-06
1.08758e-06
1.12982e-06
1.1747e-06
1.22231e-06
1.27268e-06
1.32583e-06
1.38174e-06
1.44035e-06
1.50154e-06
1.56515e-06
1.63095e-06
1.69863e-06
1.76778e-06
1.83789e-06
1.90833e-06
1.97831e-06
2.04686e-06
2.11286e-06
2.17496e-06
2.23162e-06
2.28107e-06
2.32135e-06
2.35006e-06
2.36386e-06
2.36465e-06
2.34787e-06
2.31147e-06
2.2542e-06
2.17547e-06
2.07541e-06
1.95505e-06
1.81635e-06
1.66222e-06
1.49639e-06
1.32318e-06
1.14721e-06
9.73051e-07
8.04858e-07
6.46118e-07
4.99477e-07
3.66748e-07
2.49134e-07
1.47771e-07
6.49271e-08
7.56306e-09
5.69314e-09
4.99502e-08
1.12767e-07
1.86413e-07
2.66735e-07
3.50818e-07
4.36381e-07
5.21572e-07
6.04902e-07
6.85209e-07
7.61648e-07
8.33678e-07
9.01041e-07
9.63738e-07
1.022e-06
1.07623e-06
1.12698e-06
1.17491e-06
1.22071e-06
1.26512e-06
1.30885e-06
1.3526e-06
1.39703e-06
1.44273e-06
1.49026e-06
1.54011e-06
1.59274e-06
1.64854e-06
1.70787e-06
1.77103e-06
1.83829e-06
1.90986e-06
1.98591e-06
2.06658e-06
2.15194e-06
2.24201e-06
2.33674e-06
2.43602e-06
2.53967e-06
2.64739e-06
2.75878e-06
2.87332e-06
2.9903e-06
3.10887e-06
3.22791e-06
3.34611e-06
3.46184e-06
3.57317e-06
3.67785e-06
3.77328e-06
3.8565e-06
3.92422e-06
3.97233e-06
3.99501e-06
3.99623e-06
3.96763e-06
3.90585e-06
3.80882e-06
3.67551e-06
3.50614e-06
3.30242e-06
3.06767e-06
2.8068e-06
2.52614e-06
2.23305e-06
1.93536e-06
1.64084e-06
1.35655e-06
1.0884e-06
8.40834e-07
6.16893e-07
4.18563e-07
2.47738e-07
1.08323e-07
1.23105e-08
8.19928e-09
7.2658e-08
1.64603e-07
2.72593e-07
3.90436e-07
5.13809e-07
6.39344e-07
7.64313e-07
8.86522e-07
1.00427e-06
1.1163e-06
1.22183e-06
1.32049e-06
1.41229e-06
1.49756e-06
1.57691e-06
1.65116e-06
1.72128e-06
1.7883e-06
1.85329e-06
1.91733e-06
1.98142e-06
2.04653e-06
2.11354e-06
2.18327e-06
2.25645e-06
2.33373e-06
2.4157e-06
2.50287e-06
2.59569e-06
2.69455e-06
2.79975e-06
2.91154e-06
3.03011e-06
3.15556e-06
3.28789e-06
3.42704e-06
3.57283e-06
3.72495e-06
3.88297e-06
4.04627e-06
4.21406e-06
4.38532e-06
4.55874e-06
4.73272e-06
4.90531e-06
5.07413e-06
5.2364e-06
5.38884e-06
5.52767e-06
5.64865e-06
5.74704e-06
5.81671e-06
5.84902e-06
5.85074e-06
5.80877e-06
5.71826e-06
5.57622e-06
5.38106e-06
5.13304e-06
4.83455e-06
4.49042e-06
4.10783e-06
3.69609e-06
3.26606e-06
2.82935e-06
2.39744e-06
1.98079e-06
1.58809e-06
1.22588e-06
8.98524e-07
6.08878e-07
3.59675e-07
1.56705e-07
1.76306e-08
1.09532e-08
9.75226e-08
2.21482e-07
3.67339e-07
5.26621e-07
6.93415e-07
8.63126e-07
1.03204e-06
1.19719e-06
1.35625e-06
1.50754e-06
1.64999e-06
1.78309e-06
1.90689e-06
2.02183e-06
2.12877e-06
2.22882e-06
2.3233e-06
2.41362e-06
2.50125e-06
2.58762e-06
2.67412e-06
2.76205e-06
2.85261e-06
2.9469e-06
3.04589e-06
3.15049e-06
3.26146e-06
3.3795e-06
3.50521e-06
3.6391e-06
3.78157e-06
3.93296e-06
4.09347e-06
4.26322e-06
4.44221e-06
4.6303e-06
4.82723e-06
5.03255e-06
5.24563e-06
5.46562e-06
5.69141e-06
5.92159e-06
6.1544e-06
6.38768e-06
6.61882e-06
6.84466e-06
7.0615e-06
7.26501e-06
7.45022e-06
7.61153e-06
7.74273e-06
7.83543e-06
7.87802e-06
7.88051e-06
7.8244e-06
7.70312e-06
7.51258e-06
7.25051e-06
6.91702e-06
6.51519e-06
6.05134e-06
5.53514e-06
4.97918e-06
4.39825e-06
3.80824e-06
3.22487e-06
2.66244e-06
2.13281e-06
1.64481e-06
1.20431e-06
8.15045e-07
4.80622e-07
2.08842e-07
2.33848e-08
1.39232e-08
1.24284e-07
2.82763e-07
4.69552e-07
6.73695e-07
8.8753e-07
1.10511e-06
1.32164e-06
1.53328e-06
1.73703e-06
1.93075e-06
2.11306e-06
2.28332e-06
2.44158e-06
2.58846e-06
2.72507e-06
2.85286e-06
2.97353e-06
3.08891e-06
3.2009e-06
3.31135e-06
3.42205e-06
3.53465e-06
3.65071e-06
3.77161e-06
3.89861e-06
4.03285e-06
4.17531e-06
4.32687e-06
4.48827e-06
4.66014e-06
4.843e-06
5.0372e-06
5.243e-06
5.46051e-06
5.68966e-06
5.93025e-06
6.18185e-06
6.44386e-06
6.71541e-06
6.99537e-06
7.28227e-06
7.57431e-06
7.86923e-06
8.16431e-06
8.45625e-06
8.74115e-06
9.01442e-06
9.27068e-06
9.50381e-06
9.70684e-06
9.87212e-06
9.98895e-06
1.00425e-05
1.00464e-05
9.97619e-06
9.82333e-06
9.58246e-06
9.25039e-06
8.82692e-06
8.31564e-06
7.72438e-06
7.06536e-06
6.35472e-06
5.61154e-06
4.85645e-06
4.10989e-06
3.39045e-06
2.71354e-06
2.09057e-06
1.529e-06
1.03348e-06
6.08493e-07
2.63867e-07
2.94732e-08
1.70884e-08
1.52772e-07
3.48028e-07
5.78501e-07
8.30584e-07
1.09472e-06
1.3635e-06
1.63095e-06
1.89228e-06
2.14377e-06
2.38274e-06
2.60751e-06
2.8173e-06
3.01218e-06
3.19296e-06
3.36102e-06
3.5182e-06
3.66663e-06
3.80859e-06
3.94644e-06
4.08249e-06
4.21893e-06
4.35784e-06
4.5011e-06
4.65042e-06
4.80737e-06
4.9733e-06
5.14942e-06
5.33678e-06
5.53627e-06
5.74863e-06
5.97443e-06
6.2141e-06
6.46785e-06
6.73577e-06
7.0177e-06
7.3133e-06
7.62198e-06
7.94291e-06
8.27494e-06
8.61664e-06
8.96618e-06
9.32131e-06
9.6793e-06
1.00369e-05
1.03902e-05
1.07345e-05
1.10645e-05
1.13738e-05
1.16552e-05
1.19004e-05
1.21003e-05
1.22421e-05
1.23075e-05
1.23136e-05
1.22301e-05
1.20458e-05
1.17542e-05
1.13507e-05
1.08347e-05
1.02101e-05
9.4862e-06
8.67773e-06
7.80457e-06
6.89036e-06
5.96083e-06
5.04157e-06
4.15593e-06
3.32322e-06
2.55769e-06
1.86857e-06
1.26146e-06
7.41722e-07
3.21126e-07
3.58187e-08
2.04351e-08
1.8287e-07
4.16995e-07
6.93687e-07
9.96546e-07
1.314e-06
1.63705e-06
1.95846e-06
2.27241e-06
2.57441e-06
2.86121e-06
3.13077e-06
3.3822e-06
3.6156e-06
3.83198e-06
4.03305e-06
4.22104e-06
4.39857e-06
4.56841e-06
4.73342e-06
4.89637e-06
5.05992e-06
5.22654e-06
5.3985e-06
5.57784e-06
5.7664e-06
5.96579e-06
6.17741e-06
6.4025e-06
6.64206e-06
6.89692e-06
7.1677e-06
7.45482e-06
7.75846e-06
8.07861e-06
8.41499e-06
8.76707e-06
9.13406e-06
9.51485e-06
9.90802e-06
1.03118e-05
1.07239e-05
1.11418e-05
1.15623e-05
1.19815e-05
1.23952e-05
1.27979e-05
1.31836e-05
1.35452e-05
1.38743e-05
1.41614e-05
1.4396e-05
1.45634e-05
1.46415e-05
1.46506e-05
1.45549e-05
1.43401e-05
1.39981e-05
1.35231e-05
1.29136e-05
1.21738e-05
1.13143e-05
1.03523e-05
9.31144e-06
8.2201e-06
7.10934e-06
6.01022e-06
4.95121e-06
3.9559e-06
3.0417e-06
2.21981e-06
1.49686e-06
8.79086e-07
3.80109e-07
4.23618e-08
2.39539e-08
2.14497e-07
4.89468e-07
8.14764e-07
1.17106e-06
1.54465e-06
1.92486e-06
2.30307e-06
2.67238e-06
3.02745e-06
3.36443e-06
3.68093e-06
3.97588e-06
4.24948e-06
4.50295e-06
4.73835e-06
4.95838e-06
5.16615e-06
5.36497e-06
5.55822e-06
5.7492e-06
5.94101e-06
6.13657e-06
6.33851e-06
6.54922e-06
6.7708e-06
7.00511e-06
7.25376e-06
7.51811e-06
7.79927e-06
8.09813e-06
8.41531e-06
8.75119e-06
9.10588e-06
9.47922e-06
9.87076e-06
1.02798e-05
1.07051e-05
1.11455e-05
1.15992e-05
1.2064e-05
1.25374e-05
1.30164e-05
1.34974e-05
1.39763e-05
1.44482e-05
1.49073e-05
1.5347e-05
1.57592e-05
1.61347e-05
1.6463e-05
1.67318e-05
1.69249e-05
1.70163e-05
1.70291e-05
1.69222e-05
1.66779e-05
1.62863e-05
1.57404e-05
1.50378e-05
1.41826e-05
1.31866e-05
1.20695e-05
1.08586e-05
9.58681e-06
8.29069e-06
7.00697e-06
5.76951e-06
4.60653e-06
3.53892e-06
2.58013e-06
1.73798e-06
1.01961e-06
4.40404e-07
4.90555e-08
2.7638e-08
2.47597e-07
5.65313e-07
9.41495e-07
1.35377e-06
1.78619e-06
2.22628e-06
2.66399e-06
3.09124e-06
3.50178e-06
3.89112e-06
4.25648e-06
4.59668e-06
4.91195e-06
5.20379e-06
5.47465e-06
5.72774e-06
5.9667e-06
6.19541e-06
6.41782e-06
6.63774e-06
6.85878e-06
7.08427e-06
7.31725e-06
7.56042e-06
7.81616e-06
8.08655e-06
8.37336e-06
8.67809e-06
9.00191e-06
9.34572e-06
9.71012e-06
1.00954e-05
1.05015e-05
1.09282e-05
1.13747e-05
1.184e-05
1.23229e-05
1.28215e-05
1.33339e-05
1.38577e-05
1.43899e-05
1.49273e-05
1.54661e-05
1.60018e-05
1.65291e-05
1.7042e-05
1.75331e-05
1.79939e-05
1.84143e-05
1.87824e-05
1.90846e-05
1.9303e-05
1.94075e-05
1.94242e-05
1.93067e-05
1.90333e-05
1.85931e-05
1.79773e-05
1.71828e-05
1.62136e-05
1.50823e-05
1.38109e-05
1.24301e-05
1.09773e-05
9.49439e-06
8.02375e-06
6.60481e-06
5.27072e-06
4.04624e-06
2.94739e-06
1.98344e-06
1.16252e-06
5.01682e-07
5.58624e-08
3.14828e-08
2.82132e-07
6.44439e-07
1.07371e-06
1.54441e-06
2.03824e-06
2.54086e-06
3.04065e-06
3.52828e-06
3.99655e-06
4.44027e-06
4.85627e-06
5.24322e-06
5.60146e-06
5.93276e-06
6.24003e-06
6.52699e-06
6.79789e-06
7.05721e-06
7.30949e-06
7.55908e-06
7.8101e-06
8.06632e-06
8.33115e-06
8.60761e-06
8.89834e-06
9.20563e-06
9.53139e-06
9.87718e-06
1.02442e-05
1.06334e-05
1.10453e-05
1.14799e-05
1.19372e-05
1.24165e-05
1.29169e-05
1.34372e-05
1.39757e-05
1.45304e-05
1.5099e-05
1.56788e-05
1.62668e-05
1.68594e-05
1.74526e-05
1.80417e-05
1.86214e-05
1.9185e-05
1.9725e-05
2.02321e-05
2.06952e-05
2.11015e-05
2.14356e-05
2.16779e-05
2.17947e-05
2.18148e-05
2.16862e-05
2.1384e-05
2.08956e-05
2.02113e-05
1.93267e-05
1.82459e-05
1.69822e-05
1.55595e-05
1.40115e-05
1.23797e-05
1.0711e-05
9.05337e-06
7.45184e-06
5.94475e-06
4.5611e-06
3.3199e-06
2.23217e-06
1.30719e-06
5.63679e-07
6.27526e-08
3.54852e-08
3.18076e-07
7.26784e-07
1.21131e-06
1.74282e-06
2.30058e-06
2.86827e-06
3.43262e-06
3.98298e-06
4.5111e-06
5.01109e-06
5.47933e-06
5.91438e-06
6.31668e-06
6.68834e-06
7.03275e-06
7.35422e-06
7.65761e-06
7.94807e-06
8.23073e-06
8.51051e-06
8.79206e-06
9.07957e-06
9.37682e-06
9.68714e-06
1.00134e-05
1.03581e-05
1.07232e-05
1.11103e-05
1.15207e-05
1.19552e-05
1.24142e-05
1.28975e-05
1.3405e-05
1.39356e-05
1.44883e-05
1.50615e-05
1.56531e-05
1.62611e-05
1.68828e-05
1.75154e-05
1.81556e-05
1.87999e-05
1.94441e-05
2.00834e-05
2.07122e-05
2.13237e-05
2.19099e-05
2.24608e-05
2.29644e-05
2.34066e-05
2.37706e-05
2.40344e-05
2.41615e-05
2.41839e-05
2.40428e-05
2.37109e-05
2.31746e-05
2.24228e-05
2.14506e-05
2.02616e-05
1.88698e-05
1.73006e-05
1.55901e-05
1.37836e-05
1.19324e-05
1.00897e-05
8.30618e-06
6.62555e-06
5.08143e-06
3.69629e-06
2.4833e-06
1.45314e-06
6.26188e-07
6.97026e-08
3.96433e-08
3.55411e-07
8.12307e-07
1.35422e-06
1.94889e-06
2.57304e-06
3.20827e-06
3.83959e-06
4.45492e-06
5.04491e-06
5.6029e-06
6.12484e-06
6.60915e-06
7.05643e-06
7.46916e-06
7.85125e-06
8.20764e-06
8.54389e-06
8.8658e-06
9.17915e-06
9.48946e-06
9.80186e-06
1.0121e-05
1.0451e-05
1.07955e-05
1.11575e-05
1.15397e-05
1.19442e-05
1.23726e-05
1.28261e-05
1.33053e-05
1.38105e-05
1.43415e-05
1.48976e-05
1.54778e-05
1.60806e-05
1.67041e-05
1.73461e-05
1.80043e-05
1.86758e-05
1.93578e-05
2.00469e-05
2.07394e-05
2.14313e-05
2.21177e-05
2.27928e-05
2.34495e-05
2.40793e-05
2.46715e-05
2.52131e-05
2.56886e-05
2.60798e-05
2.63615e-05
2.64961e-05
2.65187e-05
2.63626e-05
2.59997e-05
2.54151e-05
2.4597e-05
2.35397e-05
2.22465e-05
2.0732e-05
1.90224e-05
1.71559e-05
1.51806e-05
1.31519e-05
1.11277e-05
9.16428e-06
7.3107e-06
5.60565e-06
4.07556e-06
2.73623e-06
1.60002e-06
6.89055e-07
7.6695e-08
4.39558e-08
3.94127e-07
9.00985e-07
1.50239e-06
2.16253e-06
2.85551e-06
3.56072e-06
4.26135e-06
4.94379e-06
5.59755e-06
6.21514e-06
6.79206e-06
7.32662e-06
7.81959e-06
8.27389e-06
8.69399e-06
9.08554e-06
9.4548e-06
9.80829e-06
1.01525e-05
1.04934e-05
1.08368e-05
1.11877e-05
1.15505e-05
1.19292e-05
1.2327e-05
1.27466e-05
1.31902e-05
1.36594e-05
1.41552e-05
1.46783e-05
1.52285e-05
1.58057e-05
1.64087e-05
1.70362e-05
1.76866e-05
1.83577e-05
1.90472e-05
1.97525e-05
2.04707e-05
2.11989e-05
2.19338e-05
2.26717e-05
2.34086e-05
2.41395e-05
2.48584e-05
2.5558e-05
2.62291e-05
2.686e-05
2.74368e-05
2.79426e-05
2.83576e-05
2.8653e-05
2.87914e-05
2.88116e-05
2.86369e-05
2.82409e-05
2.76073e-05
2.67236e-05
2.55838e-05
2.41909e-05
2.25594e-05
2.07164e-05
1.87012e-05
1.65644e-05
1.43645e-05
1.21637e-05
1.00235e-05
7.99843e-06
6.13263e-06
4.457e-06
2.99051e-06
1.74758e-06
7.52169e-07
8.37174e-08
4.84221e-08
4.34218e-07
9.92804e-07
1.6558e-06
2.38372e-06
3.14791e-06
3.92549e-06
4.6977e-06
5.44933e-06
6.16864e-06
6.84728e-06
7.4803e-06
8.06589e-06
8.60508e-06
9.10123e-06
9.55948e-06
9.98619e-06
1.03884e-05
1.07734e-05
1.11483e-05
1.15199e-05
1.18941e-05
1.22767e-05
1.26723e-05
1.3085e-05
1.35183e-05
1.3975e-05
1.44571e-05
1.49663e-05
1.55036e-05
1.60692e-05
1.66631e-05
1.72846e-05
1.79324e-05
1.86051e-05
1.93006e-05
2.00167e-05
2.07509e-05
2.15004e-05
2.22626e-05
2.30344e-05
2.38126e-05
2.45937e-05
2.53735e-05
2.6147e-05
2.6908e-05
2.76485e-05
2.83587e-05
2.90259e-05
2.9635e-05
3.01678e-05
3.06029e-05
3.09069e-05
3.10449e-05
3.10595e-05
3.08622e-05
3.04305e-05
2.97467e-05
2.87979e-05
2.75778e-05
2.60893e-05
2.43467e-05
2.23773e-05
2.02214e-05
1.79309e-05
1.55667e-05
1.31951e-05
1.08819e-05
8.68754e-06
6.66165e-06
4.84021e-06
3.2459e-06
1.89567e-06
8.15463e-07
9.07619e-08
5.30417e-08
4.75683e-07
1.08776e-06
1.81443e-06
2.61242e-06
3.4502e-06
4.3025e-06
5.1485e-06
5.97129e-06
6.75781e-06
7.49881e-06
8.18886e-06
8.8261e-06
9.4118e-06
9.94988e-06
1.04462e-05
1.09079e-05
1.13429e-05
1.17591e-05
1.21645e-05
1.25664e-05
1.29713e-05
1.33853e-05
1.38133e-05
1.42597e-05
1.47281e-05
1.52211e-05
1.57411e-05
1.62895e-05
1.6867e-05
1.74739e-05
1.81098e-05
1.87738e-05
1.94645e-05
2.01801e-05
2.09184e-05
2.16771e-05
2.24536e-05
2.32453e-05
2.40493e-05
2.48628e-05
2.56827e-05
2.65055e-05
2.7327e-05
2.8142e-05
2.89438e-05
2.97238e-05
3.04713e-05
3.11725e-05
3.1811e-05
3.23672e-05
3.28184e-05
3.31261e-05
3.32598e-05
3.32645e-05
3.30402e-05
3.25697e-05
3.18342e-05
3.08202e-05
2.95216e-05
2.79409e-05
2.60925e-05
2.40035e-05
2.17144e-05
1.92779e-05
1.67569e-05
1.42203e-05
1.17386e-05
9.37741e-06
7.19239e-06
5.22502e-06
3.50232e-06
2.04424e-06
8.78906e-07
9.7825e-08
5.78147e-08
5.18519e-07
1.18584e-06
1.97828e-06
2.84862e-06
3.76234e-06
4.69167e-06
5.61361e-06
6.50945e-06
7.36471e-06
8.1692e-06
8.91704e-06
9.60631e-06
1.02386e-05
1.08185e-05
1.13526e-05
1.18489e-05
1.23162e-05
1.27633e-05
1.31987e-05
1.36305e-05
1.40658e-05
1.45107e-05
1.49708e-05
1.54504e-05
1.59532e-05
1.6482e-05
1.70389e-05
1.76254e-05
1.8242e-05
1.88887e-05
1.95651e-05
2.02699e-05
2.10016e-05
2.17582e-05
2.25374e-05
2.33369e-05
2.4154e-05
2.49862e-05
2.58308e-05
2.66851e-05
2.7546e-05
2.841e-05
2.92729e-05
3.0129e-05
3.0971e-05
3.17897e-05
3.25731e-05
3.33063e-05
3.39715e-05
3.45475e-05
3.50107e-05
3.53172e-05
3.54445e-05
3.54331e-05
3.51781e-05
3.46653e-05
3.38762e-05
3.27962e-05
3.14198e-05
2.97495e-05
2.77994e-05
2.55963e-05
2.31806e-05
2.06053e-05
1.79343e-05
1.52389e-05
1.25931e-05
1.00679e-05
7.72486e-06
5.61151e-06
3.75985e-06
2.19333e-06
9.42502e-07
1.04907e-07
6.2741e-08
5.62727e-07
1.28706e-06
2.14735e-06
3.09231e-06
4.08431e-06
5.09294e-06
6.09291e-06
7.06356e-06
7.98895e-06
8.85792e-06
9.66409e-06
1.04056e-05
1.10844e-05
1.17057e-05
1.22771e-05
1.28074e-05
1.33064e-05
1.37838e-05
1.42488e-05
1.471e-05
1.5175e-05
1.56505e-05
1.6142e-05
1.66542e-05
1.71908e-05
1.77546e-05
1.83477e-05
1.89712e-05
1.96257e-05
2.0311e-05
2.10264e-05
2.17706e-05
2.25418e-05
2.3338e-05
2.41568e-05
2.49958e-05
2.58526e-05
2.67247e-05
2.76096e-05
2.85046e-05
2.94068e-05
3.03126e-05
3.12174e-05
3.2115e-05
3.29975e-05
3.38546e-05
3.4673e-05
3.54367e-05
3.61261e-05
3.67191e-05
3.71904e-05
3.74914e-05
3.76107e-05
3.75772e-05
3.72876e-05
3.67292e-05
3.58837e-05
3.47362e-05
3.32816e-05
3.15226e-05
2.94732e-05
2.71599e-05
2.46228e-05
2.19147e-05
1.90998e-05
1.62511e-05
1.34457e-05
1.07592e-05
8.25931e-06
5.99994e-06
4.01867e-06
2.34302e-06
1.00628e-06
1.1201e-07
6.78208e-08
6.08308e-07
1.39142e-06
2.32163e-06
3.34347e-06
4.41607e-06
5.50623e-06
6.58622e-06
7.63336e-06
8.63013e-06
9.56435e-06
1.04292e-05
1.12229e-05
1.19478e-05
1.26101e-05
1.3218e-05
1.37817e-05
1.43117e-05
1.48187e-05
1.53126e-05
1.58026e-05
1.62968e-05
1.68023e-05
1.73247e-05
1.78689e-05
1.84387e-05
1.90367e-05
1.9665e-05
2.03247e-05
2.10162e-05
2.17391e-05
2.24924e-05
2.32749e-05
2.40847e-05
2.49195e-05
2.57773e-05
2.66555e-05
2.7552e-05
2.84643e-05
2.93902e-05
3.03271e-05
3.12719e-05
3.22208e-05
3.31689e-05
3.41094e-05
3.50333e-05
3.59291e-05
3.67824e-05
3.75755e-05
3.82876e-05
3.88951e-05
3.93716e-05
3.96637e-05
3.97731e-05
3.97125e-05
3.93847e-05
3.87774e-05
3.78724e-05
3.66549e-05
3.51202e-05
3.32716e-05
3.11232e-05
2.87013e-05
2.60458e-05
2.32091e-05
2.02553e-05
1.72581e-05
1.4297e-05
1.14518e-05
8.7962e-06
6.39069e-06
4.27904e-06
2.49346e-06
1.07029e-06
1.1914e-07
7.30538e-08
6.55262e-07
1.49891e-06
2.50113e-06
3.6021e-06
4.75757e-06
5.93144e-06
7.09339e-06
8.21855e-06
9.28777e-06
1.02878e-05
1.12115e-05
1.20571e-05
1.28277e-05
1.353e-05
1.41738e-05
1.47699e-05
1.533e-05
1.58658e-05
1.63879e-05
1.69061e-05
1.7429e-05
1.79639e-05
1.85168e-05
1.90925e-05
1.96948e-05
2.03265e-05
2.09894e-05
2.16846e-05
2.24123e-05
2.3172e-05
2.39628e-05
2.4783e-05
2.56309e-05
2.65044e-05
2.74013e-05
2.83193e-05
2.92564e-05
3.02104e-05
3.1179e-05
3.21597e-05
3.31494e-05
3.41439e-05
3.51376e-05
3.6123e-05
3.70899e-05
3.80257e-05
3.89144e-05
3.97368e-05
4.04708e-05
4.10913e-05
4.1571e-05
4.18519e-05
4.19497e-05
4.18584e-05
4.14892e-05
4.08294e-05
3.98613e-05
3.85702e-05
3.69521e-05
3.50109e-05
3.27613e-05
3.02299e-05
2.74565e-05
2.44931e-05
2.14034e-05
1.82614e-05
1.5148e-05
1.21465e-05
9.33612e-06
6.78424e-06
4.54131e-06
2.64483e-06
1.1346e-06
1.26305e-07
7.84402e-08
7.03587e-07
1.60952e-06
2.68583e-06
3.86816e-06
5.10877e-06
6.36846e-06
7.61418e-06
8.81877e-06
9.96136e-06
1.10277e-05
1.20101e-05
1.29071e-05
1.37225e-05
1.44641e-05
1.51425e-05
1.57701e-05
1.63595e-05
1.69232e-05
1.74728e-05
1.80186e-05
1.85697e-05
1.91335e-05
1.97164e-05
2.03232e-05
2.09577e-05
2.16227e-05
2.23199e-05
2.30503e-05
2.38139e-05
2.46102e-05
2.54383e-05
2.62964e-05
2.71829e-05
2.80957e-05
2.90328e-05
2.99921e-05
3.09717e-05
3.19697e-05
3.29837e-05
3.40114e-05
3.50492e-05
3.60925e-05
3.7135e-05
3.8168e-05
3.91805e-05
4.01581e-05
4.10835e-05
4.1936e-05
4.26921e-05
4.33253e-05
4.38074e-05
4.40758e-05
4.41609e-05
4.40365e-05
4.36232e-05
4.29076e-05
4.18724e-05
4.05031e-05
3.87965e-05
3.67575e-05
3.44018e-05
3.1757e-05
2.88632e-05
2.57724e-05
2.25479e-05
1.92632e-05
1.59999e-05
1.2844e-05
9.87967e-06
7.18109e-06
4.80584e-06
2.79735e-06
1.19929e-06
1.33513e-07
8.39794e-08
7.53281e-07
1.72326e-06
2.87571e-06
4.14162e-06
5.46958e-06
6.81713e-06
8.14835e-06
9.43363e-06
1.06503e-05
1.1783e-05
1.28238e-05
1.37716e-05
1.46308e-05
1.54105e-05
1.61226e-05
1.67806e-05
1.73982e-05
1.79891e-05
1.85654e-05
1.91383e-05
1.97171e-05
2.03096e-05
2.09222e-05
2.156e-05
2.22266e-05
2.29248e-05
2.36563e-05
2.44219e-05
2.52216e-05
2.6055e-05
2.69209e-05
2.78178e-05
2.8744e-05
2.96977e-05
3.0677e-05
3.16801e-05
3.27052e-05
3.37505e-05
3.48137e-05
3.58922e-05
3.69821e-05
3.80782e-05
3.91733e-05
4.02576e-05
4.13187e-05
4.23409e-05
4.33053e-05
4.41897e-05
4.49692e-05
4.5616e-05
4.61006e-05
4.63566e-05
4.64287e-05
4.62698e-05
4.58104e-05
4.50359e-05
4.39292e-05
4.24762e-05
4.06745e-05
3.85303e-05
3.6061e-05
3.32958e-05
3.02759e-05
2.7054e-05
2.3693e-05
2.02659e-05
1.6854e-05
1.35452e-05
1.04275e-05
7.58174e-06
5.073e-06
2.95121e-06
1.26443e-06
1.40771e-07
8.96712e-08
8.04338e-07
1.8401e-06
3.07075e-06
4.42243e-06
5.8399e-06
7.27729e-06
8.69559e-06
1.00627e-05
1.13539e-05
1.2553e-05
1.36517e-05
1.46493e-05
1.55512e-05
1.63678e-05
1.71123e-05
1.77994e-05
1.84444e-05
1.90616e-05
1.96642e-05
2.02637e-05
2.087e-05
2.14911e-05
2.21335e-05
2.28023e-05
2.35012e-05
2.4233e-05
2.49992e-05
2.58006e-05
2.66373e-05
2.75087e-05
2.84137e-05
2.93511e-05
3.03191e-05
3.13161e-05
3.23406e-05
3.33908e-05
3.44652e-05
3.5562e-05
3.66788e-05
3.78128e-05
3.89596e-05
4.01133e-05
4.12655e-05
4.24053e-05
4.35189e-05
4.45892e-05
4.55956e-05
4.65148e-05
4.73202e-05
4.79828e-05
4.84708e-05
4.8716e-05
4.87756e-05
4.8582e-05
4.80751e-05
4.7239e-05
4.60563e-05
4.45135e-05
4.26087e-05
4.035e-05
3.77569e-05
3.48611e-05
3.17061e-05
2.83459e-05
2.4844e-05
2.12725e-05
1.7712e-05
1.42508e-05
1.09801e-05
7.98662e-06
5.34312e-06
3.10662e-06
1.3301e-06
1.48089e-07
9.55147e-08
8.56753e-07
1.96004e-06
3.27091e-06
4.71052e-06
6.2196e-06
7.74871e-06
9.25556e-06
1.07053e-05
1.20715e-05
1.33367e-05
1.44925e-05
1.55387e-05
1.64821e-05
1.73342e-05
1.81097e-05
1.8825e-05
1.94963e-05
2.01393e-05
2.07676e-05
2.13936e-05
2.20274e-05
2.26772e-05
2.33498e-05
2.40501e-05
2.4782e-05
2.55481e-05
2.635e-05
2.71885e-05
2.80635e-05
2.89747e-05
2.9921e-05
3.09011e-05
3.19138e-05
3.29575e-05
3.40309e-05
3.51326e-05
3.62609e-05
3.74142e-05
3.85899e-05
3.97848e-05
4.09938e-05
4.22102e-05
4.34245e-05
4.46247e-05
4.57953e-05
4.69178e-05
4.79704e-05
4.89279e-05
4.97629e-05
5.04451e-05
5.09373e-05
5.11751e-05
5.12234e-05
5.09961e-05
5.04411e-05
4.95412e-05
4.82783e-05
4.66389e-05
4.46221e-05
4.22378e-05
3.95083e-05
3.64688e-05
3.31662e-05
2.96573e-05
2.60068e-05
2.22864e-05
1.85756e-05
1.49617e-05
1.15379e-05
8.39608e-06
5.61647e-06
3.26375e-06
1.39637e-06
1.55473e-07
1.01509e-07
9.10515e-07
2.08305e-06
3.47615e-06
5.00581e-06
6.60855e-06
8.23113e-06
9.82785e-06
1.1361e-05
1.28022e-05
1.41329e-05
1.53449e-05
1.64385e-05
1.74218e-05
1.83079e-05
1.91132e-05
1.98555e-05
2.05525e-05
2.12206e-05
2.18746e-05
2.25271e-05
2.31886e-05
2.38677e-05
2.45712e-05
2.5304e-05
2.607e-05
2.68718e-05
2.7711e-05
2.85883e-05
2.95039e-05
3.04573e-05
3.14477e-05
3.2474e-05
3.3535e-05
3.46296e-05
3.57565e-05
3.69145e-05
3.81022e-05
3.93175e-05
4.0558e-05
4.18195e-05
4.30966e-05
4.43814e-05
4.56634e-05
4.69291e-05
4.81617e-05
4.93413e-05
5.04445e-05
5.1445e-05
5.23139e-05
5.30199e-05
5.35198e-05
5.3754e-05
5.37928e-05
5.35336e-05
5.2931e-05
5.19656e-05
5.06185e-05
4.88759e-05
4.67376e-05
4.42155e-05
4.13351e-05
3.8136e-05
3.467e-05
3.09982e-05
2.7188e-05
2.33115e-05
1.94465e-05
1.56786e-05
1.21012e-05
8.81035e-06
5.89326e-06
3.42272e-06
1.46329e-06
1.62928e-07
1.07653e-07
9.65614e-07
2.2091e-06
3.68641e-06
5.30818e-06
7.00655e-06
8.72426e-06
1.0412e-05
1.20291e-05
1.35451e-05
1.49407e-05
1.62075e-05
1.7347e-05
1.83686e-05
1.92873e-05
2.01211e-05
2.08895e-05
2.16114e-05
2.23044e-05
2.2984e-05
2.36634e-05
2.43535e-05
2.50629e-05
2.57984e-05
2.65652e-05
2.73671e-05
2.82065e-05
2.90853e-05
3.0004e-05
3.09629e-05
3.19618e-05
3.29999e-05
3.40763e-05
3.51903e-05
3.63406e-05
3.75264e-05
3.87464e-05
3.99993e-05
4.12829e-05
4.25942e-05
4.39287e-05
4.52799e-05
4.6639e-05
4.79944e-05
4.93311e-05
5.06311e-05
5.1873e-05
5.3032e-05
5.40805e-05
5.49882e-05
5.57228e-05
5.62357e-05
5.64703e-05
5.65019e-05
5.62139e-05
5.55648e-05
5.45332e-05
5.30986e-05
5.12465e-05
4.89772e-05
4.63044e-05
4.32572e-05
3.98804e-05
3.62322e-05
3.23799e-05
2.83953e-05
2.43522e-05
2.03268e-05
1.64022e-05
1.26703e-05
9.22951e-06
6.17358e-06
3.58362e-06
1.53088e-06
1.70458e-07
1.13945e-07
1.02203e-06
2.33815e-06
3.90162e-06
5.61752e-06
7.41338e-06
9.22773e-06
1.10074e-05
1.27087e-05
1.42992e-05
1.57586e-05
1.70789e-05
1.82627e-05
1.9321e-05
2.02707e-05
2.11319e-05
2.19254e-05
2.26719e-05
2.33898e-05
2.40955e-05
2.48026e-05
2.55223e-05
2.62634e-05
2.70328e-05
2.78356e-05
2.86756e-05
2.95554e-05
3.04765e-05
3.144e-05
3.24459e-05
3.34942e-05
3.45844e-05
3.57159e-05
3.68878e-05
3.80995e-05
3.935e-05
4.06383e-05
4.19627e-05
4.3321e-05
4.47096e-05
4.61234e-05
4.7555e-05
4.89945e-05
5.0429e-05
5.18425e-05
5.32154e-05
5.45249e-05
5.5745e-05
5.68469e-05
5.77988e-05
5.8567e-05
5.90991e-05
5.9339e-05
5.93662e-05
5.9053e-05
5.83595e-05
5.72619e-05
5.57375e-05
5.37706e-05
5.13612e-05
4.85248e-05
4.5294e-05
4.17198e-05
3.78682e-05
3.38145e-05
2.96372e-05
2.54135e-05
2.12191e-05
1.71334e-05
1.32452e-05
9.65349e-06
6.45743e-06
3.74646e-06
1.59915e-06
1.78064e-07
1.20382e-07
1.07976e-06
2.47016e-06
4.12169e-06
5.93368e-06
7.8288e-06
9.74115e-06
1.16135e-05
1.33991e-05
1.50634e-05
1.65854e-05
1.79576e-05
1.91839e-05
2.02772e-05
2.12565e-05
2.21439e-05
2.29621e-05
2.3733e-05
2.44762e-05
2.52087e-05
2.59448e-05
2.66957e-05
2.74705e-05
2.82761e-05
2.91176e-05
2.99988e-05
3.09222e-05
3.18894e-05
3.29015e-05
3.39588e-05
3.50614e-05
3.62088e-05
3.74007e-05
3.86365e-05
3.99156e-05
4.12373e-05
4.26003e-05
4.40029e-05
4.54425e-05
4.6915e-05
4.84144e-05
4.99326e-05
5.14584e-05
5.29779e-05
5.44736e-05
5.59248e-05
5.73074e-05
5.8594e-05
5.97545e-05
6.0756e-05
6.15632e-05
6.2121e-05
6.23715e-05
6.23972e-05
6.20632e-05
6.13284e-05
6.0166e-05
5.85507e-05
5.64648e-05
5.39075e-05
5.08951e-05
4.74641e-05
4.3672e-05
3.95936e-05
3.53147e-05
3.0923e-05
2.65014e-05
2.21262e-05
1.7873e-05
1.3826e-05
1.00821e-05
6.74469e-06
3.91119e-06
1.66809e-06
1.85742e-07
1.26964e-07
1.13877e-06
2.60509e-06
4.34655e-06
6.25649e-06
8.25253e-06
1.02641e-05
1.22297e-05
1.40994e-05
1.58366e-05
1.74197e-05
1.8842e-05
2.01089e-05
2.12355e-05
2.22431e-05
2.31558e-05
2.39983e-05
2.47938e-05
2.55631e-05
2.63238e-05
2.70906e-05
2.7875e-05
2.86862e-05
2.95309e-05
3.04145e-05
3.13405e-05
3.23115e-05
3.33293e-05
3.43948e-05
3.55085e-05
3.66707e-05
3.78811e-05
3.91395e-05
4.04455e-05
4.17987e-05
4.31981e-05
4.46427e-05
4.61303e-05
4.76578e-05
4.92206e-05
5.08119e-05
5.24225e-05
5.40404e-05
5.56503e-05
5.72335e-05
5.87681e-05
6.02287e-05
6.15869e-05
6.28111e-05
6.38672e-05
6.47187e-05
6.53089e-05
6.55751e-05
6.56028e-05
6.52528e-05
6.44804e-05
6.32555e-05
6.15495e-05
5.93421e-05
5.66305e-05
5.34315e-05
4.97846e-05
4.57538e-05
4.14242e-05
3.68939e-05
3.22628e-05
2.76223e-05
2.30513e-05
1.86222e-05
1.44124e-05
1.0515e-05
7.03509e-06
4.0777e-06
1.73763e-06
1.93488e-07
1.33688e-07
1.19904e-06
2.74287e-06
4.57606e-06
6.58575e-06
8.68423e-06
1.0796e-05
1.28552e-05
1.48085e-05
1.66174e-05
1.82601e-05
1.97305e-05
2.10361e-05
2.21944e-05
2.3229e-05
2.41664e-05
2.50332e-05
2.5854e-05
2.66506e-05
2.74413e-05
2.82412e-05
2.90619e-05
2.99126e-05
3.08002e-05
3.17298e-05
3.27051e-05
3.37285e-05
3.48019e-05
3.59263e-05
3.71022e-05
3.83301e-05
3.96098e-05
4.09414e-05
4.23244e-05
4.37584e-05
4.52426e-05
4.67755e-05
4.83548e-05
4.99767e-05
5.1636e-05
5.3325e-05
5.50337e-05
5.67488e-05
5.84539e-05
6.01294e-05
6.17519e-05
6.3295e-05
6.47291e-05
6.60216e-05
6.7137e-05
6.80373e-05
6.8666e-05
6.89534e-05
6.89863e-05
6.86252e-05
6.78196e-05
6.65356e-05
6.47408e-05
6.24112e-05
5.95413e-05
5.61469e-05
5.22699e-05
4.79807e-05
4.33753e-05
3.85658e-05
3.36673e-05
2.87834e-05
2.39984e-05
1.93821e-05
1.50045e-05
1.09517e-05
7.32827e-06
4.24579e-06
1.80771e-06
2.01291e-07
1.4055e-07
1.26056e-06
2.88345e-06
4.81012e-06
6.92124e-06
9.12355e-06
1.13363e-05
1.34892e-05
1.55254e-05
1.74046e-05
1.91048e-05
2.06213e-05
2.19637e-05
2.31521e-05
2.42128e-05
2.51746e-05
2.60661e-05
2.69133e-05
2.7739e-05
2.85621e-05
2.9398e-05
3.02585e-05
3.11527e-05
3.20876e-05
3.3068e-05
3.40977e-05
3.51791e-05
3.63139e-05
3.75032e-05
3.87478e-05
4.0048e-05
4.1404e-05
4.28156e-05
4.42827e-05
4.58046e-05
4.73805e-05
4.90086e-05
5.0686e-05
5.24085e-05
5.417e-05
5.59622e-05
5.77738e-05
5.95906e-05
6.13952e-05
6.31667e-05
6.48809e-05
6.65101e-05
6.80238e-05
6.9388e-05
7.05663e-05
7.15194e-05
7.21919e-05
7.25052e-05
7.25467e-05
7.21795e-05
7.13455e-05
7.00067e-05
6.81264e-05
6.5676e-05
6.2646e-05
5.90502e-05
5.49316e-05
5.03662e-05
4.54608e-05
4.03436e-05
3.51477e-05
2.99927e-05
2.49719e-05
2.01545e-05
1.56023e-05
1.13916e-05
7.62373e-06
4.41518e-06
1.8782e-06
2.0914e-07
1.47548e-07
1.32328e-06
3.02675e-06
5.04858e-06
7.26273e-06
9.57008e-06
1.18845e-05
1.41308e-05
1.62488e-05
1.81967e-05
1.99525e-05
2.15129e-05
2.28901e-05
2.41072e-05
2.51932e-05
2.61795e-05
2.70965e-05
2.79717e-05
2.88289e-05
2.96875e-05
3.0563e-05
3.14675e-05
3.241e-05
3.33972e-05
3.4434e-05
3.55239e-05
3.66694e-05
3.78722e-05
3.91333e-05
4.04536e-05
4.18333e-05
4.32727e-05
4.47718e-05
4.63301e-05
4.79471e-05
4.96216e-05
5.13514e-05
5.31331e-05
5.49618e-05
5.68308e-05
5.87306e-05
6.06492e-05
6.25714e-05
6.44787e-05
6.63492e-05
6.81577e-05
6.98755e-05
7.14711e-05
7.29096e-05
7.41534e-05
7.51619e-05
7.58824e-05
7.62259e-05
7.62788e-05
7.59101e-05
7.50526e-05
7.3664e-05
7.1703e-05
6.91352e-05
6.59462e-05
6.21461e-05
5.77775e-05
5.29208e-05
4.76933e-05
4.22401e-05
3.67153e-05
3.12586e-05
2.59769e-05