/*--------------------------------*- C++ -*----------------------------------*\
  =========                 |
  \\      /  F ield         | OpenFOAM: The Open Source CFD Toolbox
   \\    /   O peration     | Website:  https://openfoam.org
    \\  /    A nd           | Version:  12
     \\/     M anipulation  |
\*---------------------------------------------------------------------------*/
FoamFile
{
    format      ascii;
    class       surfaceScalarField;
    location    "1.5";
    object      phi;
}
// * * * * * * * * * * * * * * * * * * * * * * * * * * * * * * * * * * * * * //

dimensions      [0 3 -1 0 0 0 0];

internalField   nonuniform List<scalar> 
11100
(
3.22453e-10
-3.22119e-10
9.17539e-10
-5.9512e-10
1.42961e-09
-5.12101e-10
1.66708e-09
-2.37483e-10
1.56415e-09
1.02935e-10
1.11543e-09
4.48715e-10
3.46894e-10
7.68538e-10
-7.01986e-10
1.04888e-09
-1.98861e-09
1.28662e-09
-3.47322e-09
1.4846e-09
-5.12218e-09
1.64896e-09
-6.90958e-09
1.7874e-09
-8.81765e-09
1.90806e-09
-1.08365e-08
2.01886e-09
-1.29635e-08
2.12704e-09
-1.52026e-08
2.23903e-09
-1.7563e-08
2.36037e-09
-2.00587e-08
2.49575e-09
-2.27078e-08
2.6491e-09
-2.55316e-08
2.82375e-09
-2.85541e-08
3.02251e-09
-3.18019e-08
3.24779e-09
-3.53036e-08
3.50173e-09
-3.90898e-08
3.78617e-09
-4.31925e-08
4.10278e-09
-4.76455e-08
4.45296e-09
-5.24834e-08
4.83786e-09
-5.77416e-08
5.25827e-09
-6.34561e-08
5.71451e-09
-6.96625e-08
6.20633e-09
-7.63951e-08
6.73268e-09
-8.36867e-08
7.29157e-09
-9.15666e-08
7.87984e-09
-1.00059e-07
8.49289e-09
-1.09184e-07
9.12443e-09
-1.1895e-07
9.76623e-09
-1.29358e-07
1.04078e-08
-1.40394e-07
1.10363e-08
-1.5203e-07
1.1636e-08
-1.64219e-07
1.21882e-08
-1.7689e-07
1.26715e-08
-1.89951e-07
1.3061e-08
-2.0328e-07
1.33293e-08
-2.16726e-07
1.3446e-08
-2.30105e-07
1.33788e-08
-2.43199e-07
1.3094e-08
-2.55757e-07
1.25577e-08
-2.67494e-07
1.17373e-08
-2.78097e-07
1.06032e-08
-2.87228e-07
9.13071e-09
-2.94521e-07
7.29332e-09
-2.99611e-07
5.09025e-09
-3.02192e-07
2.58061e-09
-3.01897e-07
-2.94748e-10
-2.9845e-07
-3.44684e-09
-2.91644e-07
-6.80621e-09
-2.81357e-07
-1.02867e-08
-2.67585e-07
-1.37729e-08
-2.50455e-07
-1.71298e-08
-2.30247e-07
-2.02074e-08
-2.07398e-07
-2.28491e-08
-1.82496e-07
-2.49018e-08
-1.56267e-07
-2.6229e-08
-1.29544e-07
-2.67236e-08
-1.03223e-07
-2.63205e-08
-7.82177e-08
-2.50056e-08
-5.53966e-08
-2.28212e-08
-3.5532e-08
-1.98646e-08
-1.92496e-08
-1.62824e-08
-6.98862e-09
-1.2261e-08
1.03405e-09
-8.02268e-09
4.87635e-09
-3.8423e-09
4.97185e-09
-9.5496e-11
2.50138e-09
2.47047e-09
2.50138e-09
7.91377e-10
-1.11355e-09
2.05626e-09
-1.86006e-09
3.03448e-09
-1.49035e-09
3.29617e-09
-4.99193e-10
2.65959e-09
7.3951e-10
1.09366e-09
2.01465e-09
-1.34903e-09
3.21122e-09
-4.57562e-09
4.27546e-09
-8.48041e-09
5.1914e-09
-1.29617e-08
5.96589e-09
-1.79318e-08
6.61901e-09
-2.33219e-08
7.17753e-09
-2.90845e-08
7.67064e-09
-3.51928e-08
8.12721e-09
-4.164e-08
8.57416e-09
-4.84366e-08
9.03561e-09
-5.56088e-08
9.53257e-09
-6.3196e-08
1.0083e-08
-7.1249e-08
1.07021e-08
-7.98278e-08
1.14026e-08
-8.90009e-08
1.21956e-08
-9.88433e-08
1.30902e-08
-1.09436e-07
1.40946e-08
-1.20866e-07
1.52156e-08
-1.33222e-07
1.64592e-08
-1.46599e-07
1.78301e-08
-1.61093e-07
1.93321e-08
-1.76802e-07
2.0967e-08
-1.93823e-07
2.27349e-08
-2.12249e-07
2.46332e-08
-2.32173e-07
2.66562e-08
-2.53676e-07
2.87944e-08
-2.76829e-07
3.10333e-08
-3.01689e-07
3.3353e-08
-3.28292e-07
3.57269e-08
-3.56647e-07
3.8121e-08
-3.86731e-07
4.04926e-08
-4.18485e-07
4.279e-08
-4.518e-07
4.49512e-08
-4.86516e-07
4.69037e-08
-5.22409e-07
4.85643e-08
-5.59187e-07
4.9839e-08
-5.96482e-07
5.06243e-08
-6.33844e-07
5.0808e-08
-6.70737e-07
5.0272e-08
-7.06538e-07
4.88953e-08
-7.40539e-07
4.65583e-08
-7.7195e-07
4.31486e-08
-7.99914e-07
3.85674e-08
-8.23521e-07
3.2737e-08
-8.41826e-07
2.55989e-08
-8.53844e-07
1.71075e-08
-8.58762e-07
7.49952e-09
-8.5574e-07
-3.31712e-09
-8.44079e-07
-1.51079e-08
-8.2329e-07
-2.75955e-08
-7.93137e-07
-4.04396e-08
-7.53686e-07
-5.32244e-08
-7.0535e-07
-6.54651e-08
-6.48929e-07
-7.6629e-08
-5.85614e-07
-8.61638e-08
-5.16982e-07
-9.35339e-08
-4.44948e-07
-9.82629e-08
-3.71693e-07
-9.99788e-08
-2.99558e-07
-9.84551e-08
-2.3092e-07
-9.36441e-08
-1.68047e-07
-8.56942e-08
-1.12961e-07
-7.49502e-08
-6.73061e-08
-6.19373e-08
-3.22304e-08
-4.73368e-08
-8.27629e-09
-3.19768e-08
4.76491e-09
-1.68835e-08
8.13021e-09
-3.4608e-09
4.64865e-09
5.95202e-09
7.15003e-09
1.05399e-09
-2.16752e-09
2.58641e-09
-3.3925e-09
3.58469e-09
-2.48865e-09
3.4747e-09
-3.8921e-10
1.99187e-09
2.22234e-09
-9.20901e-10
4.92742e-09
-5.19793e-09
7.48825e-09
-1.07103e-08
9.78785e-09
-1.7306e-08
1.17871e-08
-2.48359e-08
1.34957e-08
-3.31693e-08
1.49525e-08
-4.22033e-08
1.62115e-08
-5.18658e-08
1.73331e-08
-6.21165e-08
1.83779e-08
-7.29454e-08
1.94031e-08
-8.43699e-08
2.04601e-08
-9.64317e-08
2.15943e-08
-1.09193e-07
2.28447e-08
-1.22736e-07
2.42442e-08
-1.37154e-07
2.58211e-08
-1.52558e-07
2.75991e-08
-1.69066e-07
2.95983e-08
-1.86807e-07
3.1836e-08
-2.05918e-07
3.43269e-08
-2.26542e-07
3.70831e-08
-2.48826e-07
4.0114e-08
-2.7292e-07
4.3426e-08
-2.98975e-07
4.70216e-08
-3.27138e-07
5.08985e-08
-3.57554e-07
5.50488e-08
-3.90355e-07
5.94568e-08
-4.25659e-07
6.40984e-08
-4.63564e-07
6.89385e-08
-5.0414e-07
7.39295e-08
-5.47423e-07
7.90095e-08
-5.93402e-07
8.41001e-08
-6.42014e-07
8.91046e-08
-6.9313e-07
9.39065e-08
-7.46547e-07
9.8368e-08
-8.01973e-07
1.0233e-07
-8.59019e-07
1.0561e-07
-9.17186e-07
1.08007e-07
-9.7586e-07
1.09298e-07
-1.0343e-06
1.09247e-07
-1.09164e-06
1.07609e-07
-1.14687e-06
1.04132e-07
-1.19889e-06
9.85769e-08
-1.24646e-06
9.07189e-08
-1.28826e-06
8.03683e-08
-1.32291e-06
6.73842e-08
-1.349e-06
5.16873e-08
-1.36509e-06
3.31973e-08
-1.36993e-06
1.23446e-08
-1.36239e-06
-1.08569e-08
-1.34148e-06
-3.60226e-08
-1.30655e-06
-6.25208e-08
-1.25736e-06
-8.96353e-08
-1.19408e-06
-1.16498e-07
-1.11744e-06
-1.4211e-07
-1.02869e-06
-1.65379e-07
-9.29671e-07
-1.85183e-07
-8.22769e-07
-2.00435e-07
-7.10858e-07
-2.10174e-07
-5.97189e-07
-2.13648e-07
-4.85246e-07
-2.10398e-07
-3.78565e-07
-2.00325e-07
-2.80528e-07
-1.8373e-07
-1.94162e-07
-1.61316e-07
-1.21934e-07
-1.34166e-07
-6.55679e-08
-1.03703e-07
-2.58668e-08
-7.16778e-08
-2.48901e-09
-4.02613e-08
6.41426e-09
-1.23641e-08
4.78325e-09
7.58304e-09
1.19333e-08
1.13041e-09
-3.29796e-09
2.60892e-09
-4.87104e-09
3.26425e-09
-3.144e-09
2.43785e-09
4.37176e-10
-1.84356e-10
4.84454e-09
-4.67646e-09
9.41952e-09
-1.09641e-08
1.37759e-08
-1.88924e-08
1.77161e-08
-2.82747e-08
2.11695e-08
-3.89255e-08
2.41465e-08
-5.06809e-08
2.67078e-08
-6.34104e-08
2.8941e-08
-7.70231e-08
3.09458e-08
-9.14685e-08
3.28233e-08
-1.06735e-07
3.46695e-08
-1.22847e-07
3.65721e-08
-1.39861e-07
3.86082e-08
-1.57861e-07
4.08446e-08
-1.76955e-07
4.33383e-08
-1.97271e-07
4.61378e-08
-2.18956e-07
4.9284e-08
-2.42169e-07
5.28114e-08
-2.67083e-07
5.67493e-08
-2.93878e-07
6.11221e-08
-3.22744e-07
6.59494e-08
-3.53876e-07
7.12456e-08
-3.87469e-07
7.70192e-08
-4.23719e-07
8.32718e-08
-4.62817e-07
8.99958e-08
-5.04941e-07
9.7173e-08
-5.50256e-07
1.04772e-07
-5.98903e-07
1.12745e-07
-6.50991e-07
1.21026e-07
-7.06588e-07
1.29527e-07
-7.65713e-07
1.38134e-07
-8.28319e-07
1.46706e-07
-8.94283e-07
1.55069e-07
-9.63393e-07
1.63017e-07
-1.03533e-06
1.70309e-07
-1.10967e-06
1.76668e-07
-1.18585e-06
1.81782e-07
-1.26314e-06
1.85304e-07
-1.34071e-06
1.86862e-07
-1.41752e-06
1.86061e-07
-1.49241e-06
1.82493e-07
-1.56403e-06
1.75754e-07
-1.6309e-06
1.65455e-07
-1.69143e-06
1.51246e-07
-1.7439e-06
1.3284e-07
-1.78655e-06
1.10035e-07
-1.81761e-06
8.27387e-08
-1.83536e-06
5.09564e-08
-1.8382e-06
1.51758e-08
-1.82474e-06
-2.43125e-08
-1.7939e-06
-6.6863e-08
-1.74497e-06
-1.11452e-07
-1.67773e-06
-1.56878e-07
-1.59252e-06
-2.01702e-07
-1.49034e-06
-2.44288e-07
-1.37286e-06
-2.8286e-07
-1.24245e-06
-3.15599e-07
-1.10213e-06
-3.40752e-07
-9.5554e-07
-3.56764e-07
-8.06768e-07
-3.6242e-07
-6.6019e-07
-3.56976e-07
-5.20251e-07
-3.40264e-07
-3.91221e-07
-3.12761e-07
-2.76931e-07
-2.75606e-07
-1.80523e-07
-2.30574e-07
-1.04205e-07
-1.80021e-07
-4.90096e-08
-1.26873e-07
-1.45264e-08
-7.47445e-08
1.47938e-09
-2.83699e-08
3.61209e-09
5.45033e-09
1.55454e-08
1.05904e-09
-4.357e-09
2.21387e-09
-6.02588e-09
2.21732e-09
-3.14745e-09
3.7e-10
2.28449e-09
-3.6639e-09
8.87845e-09
-9.96376e-09
1.57194e-08
-1.84452e-08
2.22572e-08
-2.89324e-08
2.82033e-08
-4.12119e-08
3.3449e-08
-5.50698e-08
3.80045e-08
-7.03163e-08
4.19543e-08
-8.68001e-08
4.54248e-08
-1.04416e-07
4.85614e-08
-1.23105e-07
5.1513e-08
-1.42858e-07
5.44222e-08
-1.63706e-07
5.74196e-08
-1.85719e-07
6.0621e-08
-2.09001e-07
6.41272e-08
-2.33687e-07
6.80242e-08
-2.59934e-07
7.23852e-08
-2.87923e-07
7.72721e-08
-3.17848e-07
8.27367e-08
-3.49921e-07
8.88226e-08
-3.84364e-07
9.55651e-08
-4.21407e-07
1.02992e-07
-4.61284e-07
1.11122e-07
-5.0423e-07
1.19965e-07
-5.50477e-07
1.29519e-07
-6.00248e-07
1.39766e-07
-6.53748e-07
1.50673e-07
-7.11162e-07
1.62185e-07
-7.72639e-07
1.74222e-07
-8.38287e-07
1.86674e-07
-9.08159e-07
1.99399e-07
-9.82239e-07
2.12214e-07
-1.06043e-06
2.24896e-07
-1.14253e-06
2.37174e-07
-1.22825e-06
2.48728e-07
-1.31712e-06
2.59187e-07
-1.40858e-06
2.68129e-07
-1.50188e-06
2.75081e-07
-1.59611e-06
2.79529e-07
-1.69016e-06
2.80918e-07
-1.78277e-06
2.78671e-07
-1.87248e-06
2.72197e-07
-1.95764e-06
2.6092e-07
-2.03648e-06
2.44294e-07
-2.10708e-06
2.21841e-07
-2.16741e-06
1.93177e-07
-2.21544e-06
1.58058e-07
-2.24911e-06
1.1641e-07
-2.26651e-06
6.83529e-08
-2.2658e-06
1.44733e-08
-2.2455e-06
-4.46179e-08
-2.20444e-06
-1.07919e-07
-2.14193e-06
-1.7396e-07
-2.05784e-06
-2.40976e-07
-1.95266e-06
-3.06877e-07
-1.82765e-06
-3.69303e-07
-1.6848e-06
-4.25709e-07
-1.5269e-06
-4.73493e-07
-1.3575e-06
-5.10152e-07
-1.1808e-06
-5.33466e-07
-1.00153e-06
-5.41692e-07
-8.24755e-07
-5.33752e-07
-6.55634e-07
-5.09385e-07
-4.99141e-07
-4.69254e-07
-3.59763e-07
-4.14983e-07
-2.41207e-07
-3.4913e-07
-1.46102e-07
-2.75127e-07
-7.57147e-08
-1.9726e-07
-2.96504e-08
-1.20809e-07
-5.48973e-09
-5.25306e-08
1.66397e-09
-1.70337e-09
1.72093e-08
8.71804e-10
-5.22884e-09
1.47741e-09
-6.63152e-09
5.61931e-10
-2.23199e-09
-2.57789e-09
5.4243e-09
-8.27603e-09
1.45766e-08
-1.66041e-08
2.40475e-08
-2.74636e-08
3.31167e-08
-4.06592e-08
4.13989e-08
-5.59551e-08
4.87448e-08
-7.31147e-08
5.51641e-08
-9.19283e-08
6.07678e-08
-1.12228e-07
6.5725e-08
-1.33899e-07
7.02323e-08
-1.56879e-07
7.44927e-08
-1.81158e-07
7.87014e-08
-2.06777e-07
8.30384e-08
-2.3382e-07
8.76637e-08
-2.6241e-07
9.27171e-08
-2.92704e-07
9.83184e-08
-3.24888e-07
1.04569e-07
-3.59171e-07
1.11555e-07
-3.95782e-07
1.19348e-07
-4.34968e-07
1.28008e-07
-4.76983e-07
1.37581e-07
-5.22094e-07
1.48103e-07
-5.70568e-07
1.59596e-07
-6.22672e-07
1.7207e-07
-6.78667e-07
1.85514e-07
-7.38797e-07
1.99896e-07
-8.03285e-07
2.15162e-07
-8.72323e-07
2.31223e-07
-9.46059e-07
2.47958e-07
-1.02459e-06
2.65201e-07
-1.10793e-06
2.8274e-07
-1.19602e-06
3.00309e-07
-1.28871e-06
3.17581e-07
-1.3857e-06
3.34168e-07
-1.48659e-06
3.49615e-07
-1.5908e-06
3.63396e-07
-1.69759e-06
3.74921e-07
-1.80604e-06
3.83536e-07
-1.91505e-06
3.88531e-07
-2.02328e-06
3.89153e-07
-2.12924e-06
3.84625e-07
-2.2312e-06
3.74163e-07
-2.32729e-06
3.57009e-07
-2.41546e-06
3.32465e-07
-2.49355e-06
2.99927e-07
-2.55931e-06
2.58936e-07
-2.61047e-06
2.09225e-07
-2.64483e-06
1.50769e-07
-2.66031e-06
8.38331e-08
-2.655e-06
9.159e-09
-2.62732e-06
-7.22963e-08
-2.57613e-06
-1.59111e-07
-2.50077e-06
-2.49318e-07
-2.40121e-06
-3.40542e-07
-2.2781e-06
-4.29986e-07
-2.13288e-06
-5.14515e-07
-1.96783e-06
-5.9076e-07
-1.78604e-06
-6.5528e-07
-1.59143e-06
-7.04767e-07
-1.38862e-06
-7.36277e-07
-1.18282e-06
-7.47488e-07
-9.79634e-07
-7.36939e-07
-7.84771e-07
-7.04248e-07
-6.03772e-07
-6.50253e-07
-4.41674e-07
-5.77082e-07
-3.0267e-07
-4.88133e-07
-1.8978e-07
-3.88016e-07
-1.04527e-07
-2.82513e-07
-4.66246e-08
-1.78711e-07
-1.36496e-08
-8.55056e-08
-7.12068e-10
-1.46409e-08
1.64973e-08
5.93819e-10
-5.82267e-09
4.61921e-10
-6.49963e-09
-1.60434e-09
-1.65733e-10
-6.27996e-09
1.00999e-08
-1.38756e-08
2.21722e-08
-2.44423e-08
3.46141e-08
-3.78611e-08
4.65356e-08
-5.39164e-08
5.74542e-08
-7.23518e-08
6.71802e-08
-9.29121e-08
7.57244e-08
-1.15371e-07
8.3227e-08
-1.3955e-07
8.9904e-08
-1.65326e-07
9.60082e-08
-1.92635e-07
1.01802e-07
-2.21471e-07
1.07538e-07
-2.51884e-07
1.13451e-07
-2.8397e-07
1.1975e-07
-3.17871e-07
1.26618e-07
-3.53766e-07
1.34213e-07
-3.91864e-07
1.42668e-07
-4.32403e-07
1.52094e-07
-4.75641e-07
1.62586e-07
-5.21852e-07
1.74219e-07
-5.71324e-07
1.87052e-07
-6.2435e-07
2.01129e-07
-6.81227e-07
2.16473e-07
-7.42244e-07
2.33088e-07
-8.07683e-07
2.50952e-07
-8.77802e-07
2.70015e-07
-9.52831e-07
2.90191e-07
-1.03296e-06
3.11352e-07
-1.11832e-06
3.33321e-07
-1.20899e-06
3.55865e-07
-1.30493e-06
3.78687e-07
-1.40604e-06
4.0142e-07
-1.51208e-06
4.23619e-07
-1.62267e-06
4.44757e-07
-1.73728e-06
4.64222e-07
-1.8552e-06
4.81318e-07
-1.97554e-06
4.95263e-07
-2.09721e-06
5.05203e-07
-2.2189e-06
5.1022e-07
-2.33909e-06
5.0935e-07
-2.45608e-06
5.01606e-07
-2.56792e-06
4.8601e-07
-2.67254e-06
4.61627e-07
-2.76769e-06
4.2761e-07
-2.85101e-06
3.83253e-07
-2.92011e-06
3.28038e-07
-2.97259e-06
2.61706e-07
-3.00614e-06
1.84311e-07
-3.01859e-06
9.62866e-08
-3.00801e-06
-1.41637e-09
-2.97284e-06
-1.07474e-07
-2.91194e-06
-2.20009e-07
-2.82473e-06
-3.36527e-07
-2.71126e-06
-4.54007e-07
-2.57232e-06
-5.68927e-07
-2.4095e-06
-6.77342e-07
-2.22522e-06
-7.75032e-07
-2.02282e-06
-8.57684e-07
-1.80645e-06
-9.21141e-07
-1.58103e-06
-9.61694e-07
-1.35213e-06
-9.76387e-07
-1.12574e-06
-9.63332e-07
-9.08009e-07
-9.21976e-07
-7.04954e-07
-8.53308e-07
-5.22081e-07
-7.59955e-07
-3.64028e-07
-6.46186e-07
-2.34198e-07
-5.17847e-07
-1.34406e-07
-3.82305e-07
-6.45663e-08
-2.48551e-07
-2.24091e-08
-1.27663e-07
-3.27621e-09
-3.37738e-08
1.3221e-08
2.44898e-10
-6.0676e-09
-7.82132e-10
-5.47262e-09
-4.20124e-09
3.25336e-09
-1.06309e-08
1.65296e-08
-2.0339e-08
3.18803e-08
-3.3343e-08
4.76182e-08
-4.94968e-08
6.26893e-08
-6.8561e-08
7.65184e-08
-9.02592e-08
8.88785e-08
-1.1432e-07
9.97847e-08
-1.40503e-07
1.0941e-07
-1.68621e-07
1.18022e-07
-1.98546e-07
1.25934e-07
-2.30216e-07
1.33471e-07
-2.63628e-07
1.4095e-07
-2.98842e-07
1.48664e-07
-3.35967e-07
1.56875e-07
-3.75161e-07
1.65813e-07
-4.16624e-07
1.75676e-07
-4.60587e-07
1.86631e-07
-5.07311e-07
1.98819e-07
-5.5708e-07
2.12355e-07
-6.10193e-07
2.27332e-07
-6.66964e-07
2.43822e-07
-7.27708e-07
2.61873e-07
-7.92742e-07
2.81508e-07
-8.62376e-07
3.02721e-07
-9.36901e-07
3.25477e-07
-1.01658e-06
3.49696e-07
-1.10164e-06
3.75255e-07
-1.19227e-06
4.01975e-07
-1.28856e-06
4.29615e-07
-1.39056e-06
4.57861e-07
-1.49819e-06
4.86316e-07
-1.61126e-06
5.14496e-07
-1.72947e-06
5.4182e-07
-1.85231e-06
5.67607e-07
-1.97916e-06
5.9107e-07
-2.10917e-06
6.11322e-07
-2.24128e-06
6.27381e-07
-2.37426e-06
6.38178e-07
-2.50662e-06
6.42577e-07
-2.63666e-06
6.39397e-07
-2.7625e-06
6.27444e-07
-2.88204e-06
6.05548e-07
-2.99302e-06
5.72611e-07
-3.09307e-06
5.27655e-07
-3.17971e-06
4.69889e-07
-3.25043e-06
3.98767e-07
-3.30279e-06
3.14061e-07
-3.33441e-06
2.15937e-07
-3.34314e-06
1.05016e-07
-3.32706e-06
-1.75023e-08
-3.28462e-06
-1.49915e-07
-3.21475e-06
-2.89876e-07
-3.11693e-06
-4.34344e-07
-2.99129e-06
-5.79654e-07
-2.83867e-06
-7.21543e-07
-2.66076e-06
-8.55258e-07
-2.46008e-06
-9.7571e-07
-2.24007e-06
-1.0777e-06
-2.00502e-06
-1.15618e-06
-1.76007e-06
-1.20665e-06
-1.511e-06
-1.22545e-06
-1.26411e-06
-1.21022e-06
-1.0259e-06
-1.16018e-06
-8.02796e-07
-1.07642e-06
-6.00723e-07
-9.62028e-07
-4.24748e-07
-8.22161e-07
-2.78668e-07
-6.63927e-07
-1.64642e-07
-4.96331e-07
-8.28729e-08
-3.30321e-07
-3.13732e-08
-1.79162e-07
-5.88127e-09
-5.92658e-08
7.33978e-09
-1.60436e-10
-5.90718e-09
-2.21489e-09
-3.41819e-09
-7.1634e-09
8.20188e-09
-1.5543e-08
2.49092e-08
-2.75609e-08
4.38982e-08
-4.31887e-08
6.32459e-08
-6.22446e-08
8.17453e-08
-8.44621e-08
9.87359e-08
-1.09543e-07
1.1396e-07
-1.372e-07
1.27442e-07
-1.67183e-07
1.39392e-07
-1.99295e-07
1.50135e-07
-2.33408e-07
1.60047e-07
-2.6946e-07
1.69523e-07
-3.07455e-07
1.78945e-07
-3.47461e-07
1.8867e-07
-3.89601e-07
1.99015e-07
-4.3405e-07
2.10261e-07
-4.81022e-07
2.22648e-07
-5.3077e-07
2.36379e-07
-5.83576e-07
2.51625e-07
-6.39745e-07
2.68523e-07
-6.99597e-07
2.87185e-07
-7.63465e-07
3.0769e-07
-8.31684e-07
3.30092e-07
-9.04584e-07
3.54408e-07
-9.82485e-07
3.80622e-07
-1.06568e-06
4.08674e-07
-1.15444e-06
4.38452e-07
-1.24897e-06
4.69786e-07
-1.34943e-06
5.02438e-07
-1.4559e-06
5.36087e-07
-1.56837e-06
5.70326e-07
-1.6867e-06
6.04647e-07
-1.81064e-06
6.38433e-07
-1.93977e-06
6.70951e-07
-2.07351e-06
7.0135e-07
-2.2111e-06
7.28657e-07
-2.35156e-06
7.51782e-07
-2.49371e-06
7.69528e-07
-2.63614e-06
7.80608e-07
-2.77722e-06
7.83664e-07
-2.91513e-06
7.77301e-07
-3.04781e-06
7.60125e-07
-3.17305e-06
7.30787e-07
-3.28848e-06
6.88042e-07
-3.39163e-06
6.30806e-07
-3.47996e-06
5.58225e-07
-3.55095e-06
4.69753e-07
-3.60211e-06
3.65223e-07
-3.6311e-06
2.44928e-07
-3.63579e-06
1.09701e-07
-3.6143e-06
-3.89912e-08
-3.56515e-06
-1.99064e-07
-3.48732e-06
-3.67705e-07
-3.38033e-06
-5.41333e-07
-3.24434e-06
-7.15643e-07
-3.08024e-06
-8.8565e-07
-2.8897e-06
-1.0458e-06
-2.67527e-06
-1.19014e-06
-2.44041e-06
-1.31255e-06
-2.18948e-06
-1.40712e-06
-1.92768e-06
-1.46845e-06
-1.66097e-06
-1.49217e-06
-1.39586e-06
-1.47534e-06
-1.13914e-06
-1.41689e-06
-8.97606e-07
-1.31795e-06
-6.77584e-07
-1.18205e-06
-4.84572e-07
-1.01517e-06
-3.22791e-07
-8.25708e-07
-1.94796e-07
-6.24326e-07
-1.01163e-07
-4.23953e-07
-4.0296e-08
-2.40029e-07
-8.43646e-09
-9.11253e-08
-1.09669e-09
-6.10357e-10
-5.29686e-09
-3.80487e-09
-2.23701e-10
-1.04377e-08
1.48347e-08
-2.09433e-08
3.54148e-08
-3.54517e-08
5.84066e-08
-5.38764e-08
8.16706e-08
-7.59923e-08
1.03861e-07
-1.015e-07
1.24244e-07
-1.30079e-07
1.42539e-07
-1.61425e-07
1.58787e-07
-1.95275e-07
1.73243e-07
-2.31431e-07
1.8629e-07
-2.6976e-07
1.98376e-07
-3.10205e-07
2.09967e-07
-3.52775e-07
2.21516e-07
-3.97548e-07
2.33443e-07
-4.4466e-07
2.46127e-07
-4.94299e-07
2.599e-07
-5.46696e-07
2.75045e-07
-6.0212e-07
2.91804e-07
-6.60872e-07
3.10377e-07
-7.23273e-07
3.30924e-07
-7.89662e-07
3.53573e-07
-8.60384e-07
3.78412e-07
-9.35787e-07
4.05495e-07
-1.01621e-06
4.34832e-07
-1.10198e-06
4.66389e-07
-1.19338e-06
5.00077e-07
-1.29067e-06
5.35743e-07
-1.39405e-06
5.73162e-07
-1.50363e-06
6.12024e-07
-1.61947e-06
6.51922e-07
-1.74148e-06
6.92342e-07
-1.86949e-06
7.32649e-07
-2.00314e-06
7.72081e-07
-2.14193e-06
8.09743e-07
-2.28517e-06
8.44598e-07
-2.43199e-06
8.75477e-07
-2.58129e-06
9.0108e-07
-2.73176e-06
9.19991e-07
-2.88185e-06
9.30702e-07
-3.02982e-06
9.31638e-07
-3.17372e-06
9.21198e-07
-3.3114e-06
8.97802e-07
-3.44055e-06
8.59941e-07
-3.55875e-06
8.06244e-07
-3.66349e-06
7.35545e-07
-3.75223e-06
6.46959e-07
-3.82243e-06
5.3996e-07
-3.87167e-06
4.14463e-07
-3.89766e-06
2.70911e-07
-3.89831e-06
1.10352e-07
-3.87183e-06
-6.54704e-08
-3.81679e-06
-2.541e-07
-3.73222e-06
-4.52278e-07
-3.61765e-06
-6.55903e-07
-3.47323e-06
-8.60058e-07
-3.29982e-06
-1.05906e-06
-3.09905e-06
-1.24658e-06
-2.87339e-06
-1.41579e-06
-2.62624e-06
-1.5597e-06
-2.36193e-06
-1.67143e-06
-2.08567e-06
-1.74471e-06
-1.80349e-06
-1.77434e-06
-1.52208e-06
-1.75675e-06
-1.24849e-06
-1.69049e-06
-9.89821e-07
-1.57662e-06
-7.5283e-07
-1.41904e-06
-5.43458e-07
-1.22454e-06
-3.66388e-07
-1.00278e-06
-2.24634e-07
-7.6608e-07
-1.19226e-07
-5.29361e-07
-4.90428e-08
-3.10212e-07
-1.08965e-08
-1.29272e-07
-1.19932e-08
-1.09711e-09
-4.19977e-09
-5.52768e-09
4.20686e-09
-1.39812e-08
2.32882e-08
-2.67709e-08
4.82046e-08
-4.39347e-08
7.55704e-08
-6.53163e-08
1.03052e-07
-9.06391e-08
1.29184e-07
-1.19566e-07
1.53171e-07
-1.5175e-07
1.74723e-07
-1.86868e-07
1.93905e-07
-2.24649e-07
2.11024e-07
-2.64886e-07
2.26528e-07
-3.0745e-07
2.4094e-07
-3.52285e-07
2.54802e-07
-3.99408e-07
2.68639e-07
-4.48906e-07
2.82941e-07
-5.00925e-07
2.98146e-07
-5.55667e-07
3.14641e-07
-6.13377e-07
3.32755e-07
-6.74339e-07
3.52766e-07
-7.38867e-07
3.74905e-07
-8.07297e-07
3.99354e-07
-8.79979e-07
4.26255e-07
-9.57269e-07
4.55703e-07
-1.03952e-06
4.87748e-07
-1.12708e-06
5.2239e-07
-1.22026e-06
5.5957e-07
-1.31935e-06
5.99164e-07
-1.42457e-06
6.40971e-07
-1.53611e-06
6.84702e-07
-1.65406e-06
7.29965e-07
-1.77839e-06
7.76255e-07
-1.90898e-06
8.22938e-07
-2.04558e-06
8.69245e-07
-2.18775e-06
9.14255e-07
-2.33491e-06
9.56898e-07
-2.48626e-06
9.95947e-07
-2.64081e-06
1.03003e-06
-2.79735e-06
1.05763e-06
-2.95447e-06
1.07711e-06
-3.11052e-06
1.08675e-06
-3.26364e-06
1.08476e-06
-3.41181e-06
1.06937e-06
-3.55281e-06
1.0388e-06
-3.6843e-06
9.9143e-07
-3.80383e-06
9.25778e-07
-3.90891e-06
8.40624e-07
-3.99703e-06
7.35074e-07
-4.06572e-06
6.08648e-07
-4.11261e-06
4.61359e-07
-4.13551e-06
2.93808e-07
-4.13241e-06
1.07257e-07
-4.10161e-06
-9.62784e-08
-4.04171e-06
-3.13995e-07
-3.95177e-06
-5.42219e-07
-3.83131e-06
-7.76362e-07
-3.68043e-06
-1.01094e-06
-3.49989e-06
-1.2396e-06
-3.29119e-06
-1.45527e-06
-3.05668e-06
-1.6503e-06
-2.79961e-06
-1.81677e-06
-2.5242e-06
-1.94684e-06
-2.23561e-06
-2.0333e-06
-1.93989e-06
-2.07006e-06
-1.64382e-06
-2.05282e-06
-1.3547e-06
-1.97961e-06
-1.07995e-06
-1.85137e-06
-8.26751e-07
-1.67224e-06
-6.01516e-07
-1.44978e-06
-4.09447e-07
-1.19485e-06
-2.54083e-07
-9.21444e-07
-1.36979e-07
-6.46465e-07
-5.75602e-08
-3.89631e-07
-1.32466e-08
-1.73585e-07
-2.52397e-08
-1.61447e-09
-2.58533e-09
-7.36425e-09
9.95661e-09
-1.77591e-08
3.3683e-08
-3.29751e-08
6.34206e-08
-5.29443e-08
9.55395e-08
-7.74298e-08
1.27538e-07
-1.06095e-07
1.57849e-07
-1.38559e-07
1.85635e-07
-1.74445e-07
2.10609e-07
-2.13411e-07
2.32871e-07
-2.55174e-07
2.52787e-07
-2.99523e-07
2.70878e-07
-3.46328e-07
2.87745e-07
-3.95537e-07
3.0401e-07
-4.47174e-07
3.20276e-07
-5.01334e-07
3.37101e-07
-5.58174e-07
3.54987e-07
-6.17908e-07
3.74375e-07
-6.80792e-07
3.95639e-07
-7.47122e-07
4.19097e-07
-8.17224e-07
4.45006e-07
-8.91443e-07
4.73573e-07
-9.70136e-07
5.04949e-07
-1.05367e-06
5.39233e-07
-1.14239e-06
5.7647e-07
-1.23664e-06
6.16642e-07
-1.33673e-06
6.59662e-07
-1.44293e-06
7.05363e-07
-1.55545e-06
7.53488e-07
-1.67442e-06
8.03674e-07
-1.7999e-06
8.5544e-07
-1.93181e-06
9.0817e-07
-2.06998e-06
9.61103e-07
-2.21405e-06
1.01332e-06
-2.36354e-06
1.06374e-06
-2.51775e-06
1.11111e-06
-2.67579e-06
1.15399e-06
-2.83659e-06
1.19082e-06
-2.99882e-06
1.21986e-06
-3.16099e-06
1.23927e-06
-3.32136e-06
1.24712e-06
-3.47802e-06
1.24143e-06
-3.62889e-06
1.22023e-06
-3.77172e-06
1.18163e-06
-3.90417e-06
1.12388e-06
-4.02383e-06
1.04544e-06
-4.12824e-06
9.45039e-07
-4.21498e-06
8.21815e-07
-4.28168e-06
6.75343e-07
-4.32607e-06
5.05749e-07
-4.34604e-06
3.13787e-07
-4.33971e-06
1.00926e-07
-4.30543e-06
-1.30564e-07
-4.24185e-06
-3.7757e-07
-4.14803e-06
-6.36045e-07
-4.02343e-06
-9.00962e-07
-3.86805e-06
-1.16631e-06
-3.68251e-06
-1.42515e-06
-3.46812e-06
-1.66966e-06
-3.22702e-06
-1.8914e-06
-2.96226e-06
-2.08153e-06
-2.67786e-06
-2.23124e-06
-2.37887e-06
-2.33229e-06
-2.0713e-06
-2.37763e-06
-1.76202e-06
-2.3621e-06
-1.45851e-06
-2.28312e-06
-1.16854e-06
-2.14134e-06
-8.99706e-07
-1.94108e-06
-6.58961e-07
-1.69053e-06
-4.52076e-07
-1.40173e-06
-2.83183e-07
-1.09034e-06
-1.54432e-07
-7.75216e-07
-6.5852e-08
-4.78212e-07
-1.54924e-08
-2.23945e-07
-4.07321e-08
-2.15803e-09
-4.27332e-10
-9.29979e-09
1.70984e-08
-2.17433e-08
4.61265e-08
-3.95137e-08
8.1191e-08
-6.24244e-08
1.1845e-07
-9.01475e-08
1.55261e-07
-1.22278e-07
1.89979e-07
-1.58387e-07
2.21744e-07
-1.98063e-07
2.50284e-07
-2.40941e-07
2.7575e-07
-2.86728e-07
2.98573e-07
-3.35206e-07
3.19356e-07
-3.86245e-07
3.38784e-07
-4.39796e-07
3.57561e-07
-4.95891e-07
3.7637e-07
-5.54632e-07
3.95842e-07
-6.16186e-07
4.16541e-07
-6.80775e-07
4.38964e-07
-7.48667e-07
4.63531e-07
-8.20166e-07
4.90596e-07
-8.95605e-07
5.20446e-07
-9.75337e-07
5.53304e-07
-1.05972e-06
5.89334e-07
-1.14912e-06
6.28634e-07
-1.24389e-06
6.71238e-07
-1.34435e-06
7.17106e-07
-1.45081e-06
7.66117e-07
-1.5635e-06
8.18055e-07
-1.68261e-06
8.72598e-07
-1.80824e-06
9.29301e-07
-1.94038e-06
9.87583e-07
-2.07892e-06
1.04671e-06
-2.22361e-06
1.10579e-06
-2.37403e-06
1.16374e-06
-2.52959e-06
1.21931e-06
-2.68953e-06
1.27105e-06
-2.85288e-06
1.31734e-06
-3.01846e-06
1.3564e-06
-3.18489e-06
1.38629e-06
-3.35058e-06
1.40496e-06
-3.51375e-06
1.41029e-06
-3.67246e-06
1.40013e-06
-3.82459e-06
1.37236e-06
-3.96792e-06
1.32497e-06
-4.10016e-06
1.25612e-06
-4.21894e-06
1.16422e-06
-4.32192e-06
1.04801e-06
-4.40675e-06
9.06653e-07
-4.47121e-06
7.39798e-07
-4.51314e-06
5.47682e-07
-4.53056e-06
3.31209e-07
-4.52167e-06
9.20355e-08
-4.48489e-06
-1.67347e-07
-4.41891e-06
-4.43555e-07
-4.32273e-06
-7.32224e-07
-4.19575e-06
-1.02794e-06
-4.03782e-06
-1.32424e-06
-3.84935e-06
-1.61362e-06
-3.63142e-06
-1.8876e-06
-3.38588e-06
-2.13693e-06
-3.11552e-06
-2.35189e-06
-2.82412e-06
-2.52264e-06
-2.51653e-06
-2.63988e-06
-2.19868e-06
-2.69548e-06
-1.87747e-06
-2.6833e-06
-1.56058e-06
-2.60001e-06
-1.25609e-06
-2.44583e-06
-9.72084e-07
-2.22509e-06
-7.1607e-07
-1.94654e-06
-4.9446e-07
-1.62334e-06
-3.12051e-07
-1.27275e-06
-1.71657e-07
-9.15609e-07
-7.39606e-08
-5.75909e-07
-1.76526e-08
-2.80253e-07
-5.83848e-08
-2.72448e-09
2.29711e-09
-1.13227e-08
2.56966e-08
-2.59108e-08
6.07146e-08
-4.63509e-08
1.01631e-07
-7.23263e-08
1.44426e-07
-1.03408e-07
1.86343e-07
-1.39116e-07
2.25687e-07
-1.78965e-07
2.61594e-07
-2.22506e-07
2.93825e-07
-2.69351e-07
3.22594e-07
-3.1919e-07
3.48412e-07
-3.71801e-07
3.71967e-07
-4.27052e-07
3.94035e-07
-4.84899e-07
4.15408e-07
-5.45378e-07
4.36849e-07
-6.08599e-07
4.59062e-07
-6.74736e-07
4.82679e-07
-7.4402e-07
5.08248e-07
-8.16726e-07
5.36237e-07
-8.93164e-07
5.67034e-07
-9.73672e-07
6.00954e-07
-1.0586e-06
6.38237e-07
-1.14832e-06
6.79052e-07
-1.24319e-06
7.23496e-07
-1.34353e-06
7.71586e-07
-1.44968e-06
8.23256e-07
-1.56191e-06
8.78344e-07
-1.68043e-06
9.36576e-07
-1.80539e-06
9.9756e-07
-1.93685e-06
1.06076e-06
-2.07476e-06
1.12549e-06
-2.21894e-06
1.19089e-06
-2.36907e-06
1.25592e-06
-2.52467e-06
1.31934e-06
-2.68508e-06
1.37971e-06
-2.84945e-06
1.43541e-06
-3.01673e-06
1.48462e-06
-3.18568e-06
1.52535e-06
-3.35485e-06
1.55547e-06
-3.52262e-06
1.57273e-06
-3.68718e-06
1.57485e-06
-3.84656e-06
1.55951e-06
-3.99868e-06
1.52448e-06
-4.14137e-06
1.46766e-06
-4.27239e-06
1.38714e-06
-4.3895e-06
1.28133e-06
-4.49045e-06
1.14896e-06
-4.57305e-06
9.89255e-07
-4.6352e-06
8.01944e-07
-4.67489e-06
5.87372e-07
-4.69025e-06
3.46574e-07
-4.67958e-06
8.1367e-08
-4.64136e-06
-2.05572e-07
-4.57427e-06
-5.1064e-07
-4.47728e-06
-8.29216e-07
-4.34965e-06
-1.15557e-06
-4.19106e-06
-1.48284e-06
-4.00166e-06
-1.80301e-06
-3.78225e-06
-2.10701e-06
-3.53434e-06
-2.38484e-06
-3.26039e-06
-2.62584e-06
-2.96386e-06
-2.81917e-06
-2.64938e-06
-2.95437e-06
-2.32272e-06
-3.02213e-06
-1.9908e-06
-3.01522e-06
-1.66144e-06
-2.92937e-06
-1.34307e-06
-2.7642e-06
-1.04426e-06
-2.5239e-06
-7.73141e-07
-2.21766e-06
-5.36827e-07
-1.85966e-06
-3.40853e-07
-1.46872e-06
-1.88767e-07
-1.0677e-06
-8.19519e-08
-6.82724e-07
-1.97533e-08
-3.42451e-07
-7.8138e-08
-3.31145e-09
5.60854e-09
-1.3424e-08
3.58091e-08
-3.02432e-08
7.75338e-08
-5.3457e-08
1.24845e-07
-8.26084e-08
1.73577e-07
-1.17158e-07
2.20893e-07
-1.56542e-07
2.65071e-07
-2.00215e-07
3.05266e-07
-2.47685e-07
3.41295e-07
-2.98536e-07
3.73446e-07
-3.52444e-07
4.0232e-07
-4.09179e-07
4.28702e-07
-4.68607e-07
4.53463e-07
-5.30685e-07
4.77486e-07
-5.95456e-07
5.01619e-07
-6.63034e-07
5.26641e-07
-7.33602e-07
5.53247e-07
-8.07395e-07
5.82041e-07
-8.84693e-07
6.13535e-07
-9.65811e-07
6.48152e-07
-1.05109e-06
6.86231e-07
-1.14088e-06
7.28026e-07
-1.23554e-06
7.7371e-07
-1.33541e-06
8.23372e-07
-1.44084e-06
8.7701e-07
-1.55211e-06
9.34526e-07
-1.66947e-06
9.95708e-07
-1.79312e-06
1.06022e-06
-1.92316e-06
1.1276e-06
-2.0596e-06
1.1972e-06
-2.20234e-06
1.26823e-06
-2.35114e-06
1.3397e-06
-2.50562e-06
1.4104e-06
-2.66524e-06
1.47895e-06
-2.82925e-06
1.54373e-06
-2.99675e-06
1.60291e-06
-3.16663e-06
1.6545e-06
-3.33759e-06
1.69631e-06
-3.50814e-06
1.72602e-06
-3.67663e-06
1.74122e-06
-3.84125e-06
1.73947e-06
-4.00007e-06
1.71833e-06
-4.15106e-06
1.67547e-06
-4.29211e-06
1.60871e-06
-4.42109e-06
1.51613e-06
-4.53589e-06
1.39612e-06
-4.63439e-06
1.24747e-06
-4.71458e-06
1.06944e-06
-4.77449e-06
8.61852e-07
-4.81226e-06
6.25146e-07
-4.82615e-06
3.60467e-07
-4.81455e-06
6.97575e-08
-4.77596e-06
-2.44162e-07
-4.70907e-06
-5.77528e-07
-4.61276e-06
-9.25525e-07
-4.48615e-06
-1.28217e-06
-4.32871e-06
-1.64028e-06
-4.1403e-06
-1.99142e-06
-3.92136e-06
-2.32595e-06
-3.67307e-06
-2.63314e-06
-3.39745e-06
-2.90146e-06
-3.09763e-06
-3.11899e-06
-2.77791e-06
-3.27408e-06
-2.44389e-06
-3.35615e-06
-2.10244e-06
-3.35668e-06
-1.7615e-06
-3.2703e-06
-1.42986e-06
-3.09584e-06
-1.11658e-06
-2.83718e-06
-8.30469e-07
-2.50377e-06
-5.79419e-07
-2.11071e-06
-3.69776e-07
-1.67836e-06
-2.05894e-07
-1.23158e-06
-8.99048e-08
-7.98712e-07
-2.18229e-08
-4.10533e-07
-9.9961e-08
-3.91714e-09
9.52565e-09
-1.55965e-08
4.74884e-08
-3.4725e-08
9.66623e-08
-6.08068e-08
1.50927e-07
-9.32341e-08
2.06004e-07
-1.31349e-07
2.59008e-07
-1.74496e-07
3.08218e-07
-2.22064e-07
3.52834e-07
-2.73514e-07
3.92745e-07
-3.284e-07
4.28332e-07
-3.8638e-07
4.60299e-07
-4.47214e-07
4.89536e-07
-5.10766e-07
5.17015e-07
-5.76995e-07
5.43715e-07
-6.45946e-07
5.7057e-07
-7.1774e-07
5.98435e-07
-7.92563e-07
6.2807e-07
-8.70654e-07
6.60132e-07
-9.52297e-07
6.95178e-07
-1.03781e-06
7.33662e-07
-1.12752e-06
7.75945e-07
-1.22179e-06
8.22293e-07
-1.32096e-06
8.7288e-07
-1.42537e-06
9.2778e-07
-1.53533e-06
9.86971e-07
-1.65111e-06
1.05031e-06
-1.77295e-06
1.11754e-06
-1.90098e-06
1.18826e-06
-2.03529e-06
1.2619e-06
-2.17583e-06
1.33774e-06
-2.32244e-06
1.41485e-06
-2.47484e-06
1.4921e-06
-2.63258e-06
1.56814e-06
-2.79504e-06
1.64141e-06
-2.96144e-06
1.71013e-06
-3.13081e-06
1.77228e-06
-3.30199e-06
1.82568e-06
-3.47365e-06
1.86797e-06
-3.64428e-06
1.89665e-06
-3.81224e-06
1.90918e-06
-3.97573e-06
1.90296e-06
-4.13289e-06
1.87548e-06
-4.28174e-06
1.82432e-06
-4.4203e-06
1.74727e-06
-4.54656e-06
1.64239e-06
-4.65855e-06
1.50811e-06
-4.75433e-06
1.34325e-06
-4.83203e-06
1.14714e-06
-4.88987e-06
9.19686e-07
-4.92612e-06
6.61399e-07
-4.93916e-06
3.73511e-07
-4.92746e-06
5.80504e-08
-4.88955e-06
-2.82066e-07
-4.82411e-06