/*--------------------------------*- C++ -*----------------------------------*\
  =========                 |
  \\      /  F ield         | OpenFOAM: The Open Source CFD Toolbox
   \\    /   O peration     | Website:  https://openfoam.org
    \\  /    A nd           | Version:  12
     \\/     M anipulation  |
\*---------------------------------------------------------------------------*/
FoamFile
{
    format      ascii;
    class       volVectorField;
    location    "1.5";
    object      U;
}
// * * * * * * * * * * * * * * * * * * * * * * * * * * * * * * * * * * * * * //

dimensions      [0 1 -1 0 0 0 0];

internalField   nonuniform List<vector> 
5625
(
(7.68694e-06 -3.57688e-06 0)
(4.65224e-05 -5.9356e-06 0)
(9.12339e-05 -5.33582e-06 0)
(0.000121423 -3.28839e-06 0)
(0.000127089 -9.58454e-07 0)
(0.000106271 1.30835e-06 0)
(6.01148e-05 3.31635e-06 0)
(-8.70032e-06 5.00109e-06 0)
(-9.69598e-05 6.3655e-06 0)
(-0.000201494 7.44683e-06 0)
(-0.000319506 8.29737e-06 0)
(-0.000448741 8.97512e-06 0)
(-0.000587557 9.53724e-06 0)
(-0.000734922 1.00364e-05 0)
(-0.00089038 1.05193e-05 0)
(-0.00105399 1.10255e-05 0)
(-0.00122626 1.15884e-05 0)
(-0.00140808 1.22354e-05 0)
(-0.00160066 1.2989e-05 0)
(-0.00180548 1.38679e-05 0)
(-0.00202426 1.48881e-05 0)
(-0.00225891 1.60635e-05 0)
(-0.00251149 1.74069e-05 0)
(-0.00278422 1.89302e-05 0)
(-0.00307948 2.0645e-05 0)
(-0.00339972 2.25621e-05 0)
(-0.00374751 2.4692e-05 0)
(-0.00412549 2.70442e-05 0)
(-0.00453636 2.96263e-05 0)
(-0.0049828 3.2444e-05 0)
(-0.00546746 3.54992e-05 0)
(-0.00599287 3.87895e-05 0)
(-0.00656138 4.23067e-05 0)
(-0.00717504 4.6035e-05 0)
(-0.00783553 4.99494e-05 0)
(-0.00854394 5.40135e-05 0)
(-0.0093007 5.8178e-05 0)
(-0.0101054 6.23777e-05 0)
(-0.0109564 6.653e-05 0)
(-0.011851 7.05324e-05 0)
(-0.0127848 7.42608e-05 0)
(-0.0137518 7.75682e-05 0)
(-0.014744 8.02836e-05 0)
(-0.0157512 8.2213e-05 0)
(-0.0167607 8.31406e-05 0)
(-0.0177577 8.28327e-05 0)
(-0.0187244 8.10437e-05 0)
(-0.0196406 7.7524e-05 0)
(-0.0204841 7.20332e-05 0)
(-0.0212301 6.43873e-05 0)
(-0.0218516 5.41729e-05 0)
(-0.0223231 4.16028e-05 0)
(-0.0226145 2.67758e-05 0)
(-0.0227062 9.01395e-06 0)
(-0.0225696 -1.05126e-05 0)
(-0.0221875 -3.19203e-05 0)
(-0.0215472 -5.45455e-05 0)
(-0.0206435 -7.75975e-05 0)
(-0.0194809 -0.000100143 0)
(-0.0180744 -0.000121115 0)
(-0.016451 -0.000139371 0)
(-0.0146492 -0.000153781 0)
(-0.0127186 -0.000163318 0)
(-0.0107184 -0.00016717 0)
(-0.00871407 -0.000164838 0)
(-0.0067744 -0.000156204 0)
(-0.00496708 -0.00014157 0)
(-0.00335455 -0.000121633 0)
(-0.00199002 -9.74178e-05 0)
(-0.000914097 -7.01698e-05 0)
(-0.000152088 -4.12932e-05 0)
(0.000288551 -1.24879e-05 0)
(0.000422664 1.45113e-05 0)
(0.000311965 3.37981e-05 0)
(8.17883e-05 3.70897e-05 0)
(1.82075e-05 -2.52657e-05 0)
(0.000108052 -4.37442e-05 0)
(0.00020051 -3.7047e-05 0)
(0.000252438 -1.64148e-05 0)
(0.000240109 9.36601e-06 0)
(0.000157249 3.56874e-05 0)
(5.59843e-06 6.01439e-05 0)
(-0.000208781 8.16717e-05 0)
(-0.000478068 0.000100003 0)
(-0.000794243 0.000115329 0)
(-0.00115007 0.000128103 0)
(-0.00153962 0.000138902 0)
(-0.00195851 0.000148345 0)
(-0.00240397 0.00015703 0)
(-0.00287475 0.000165514 0)
(-0.00337105 0.000174288 0)
(-0.00389427 0.000183778 0)
(-0.00444692 0.000194346 0)
(-0.0050324 0.000206295 0)
(-0.00565492 0.000219881 0)
(-0.00631929 0.000235324 0)
(-0.00703094 0.000252808 0)
(-0.00779573 0.000272498 0)
(-0.00861995 0.000294536 0)
(-0.00951023 0.000319049 0)
(-0.0104735 0.000346142 0)
(-0.0115169 0.0003759 0)
(-0.0126478 0.000408381 0)
(-0.0138734 0.000443603 0)
(-0.015201 0.000481541 0)
(-0.0166376 0.000522107 0)
(-0.0181898 0.00056514 0)
(-0.0198633 0.000610387 0)
(-0.0216631 0.000657482 0)
(-0.0235926 0.000705933 0)
(-0.0256537 0.000755095 0)
(-0.0278461 0.000804151 0)
(-0.0301668 0.000852096 0)
(-0.0326095 0.000897714 0)
(-0.0351644 0.000939568 0)
(-0.0378171 0.000975991 0)
(-0.0405485 0.00100509 0)
(-0.0433338 0.00102473 0)
(-0.0461426 0.00103262 0)
(-0.0489379 0.00102629 0)
(-0.0516762 0.00100317 0)
(-0.0543075 0.000960702 0)
(-0.0567754 0.00089643 0)
(-0.0590179 0.000808145 0)
(-0.0609686 0.000694019 0)
(-0.0625558 0.000552441 0)
(-0.0637138 0.000382414 0)
(-0.064357 0.000188468 0)
(-0.0644457 -3.03211e-05 0)
(-0.0639043 -0.00027197 0)
(-0.0626933 -0.000528762 0)
(-0.060784 -0.000794263 0)
(-0.0581691 -0.00105979 0)
(-0.0548659 -0.00131513 0)
(-0.0509194 -0.00154894 0)
(-0.0464043 -0.00174941 0)
(-0.041425 -0.00190501 0)
(-0.0361134 -0.00200549 0)
(-0.0306247 -0.00204279 0)
(-0.0251305 -0.00201202 0)
(-0.01981 -0.00191213 0)
(-0.0148398 -0.00174629 0)
(-0.0103834 -0.00152184 0)
(-0.00658042 -0.00124985 0)
(-0.00353755 -0.000944529 0)
(-0.00132042 -0.000622907 0)
(5.48977e-05 -0.000306069 0)
(0.000634154 -2.33557e-05 0)
(0.000571639 0.00017195 0)
(0.000150006 0.000181806 0)
(2.43322e-05 -6.0223e-05 0)
(0.000140667 -9.7637e-05 0)
(0.000247329 -7.61922e-05 0)
(0.000288366 -2.18072e-05 0)
(0.00023125 4.61995e-05 0)
(6.61422e-05 0.000116437 0)
(-0.000205364 0.000182595 0)
(-0.000575098 0.000241661 0)
(-0.00103194 0.000292691 0)
(-0.00156423 0.00033601 0)
(-0.00216125 0.000372686 0)
(-0.00281412 0.000404168 0)
(-0.00351626 0.00043205 0)
(-0.00426345 0.000457919 0)
(-0.00505385 0.000483259 0)
(-0.0058878 0.000509405 0)
(-0.00676756 0.000537522 0)
(-0.0076971 0.000568609 0)
(-0.00868185 0.000603513 0)
(-0.00972848 0.000642951 0)
(-0.0108447 0.000687529 0)
(-0.0120391 0.000737767 0)
(-0.013321 0.000794108 0)
(-0.0147004 0.000856938 0)
(-0.0161878 0.000926577 0)
(-0.017794 0.00100329 0)
(-0.0195304 0.00108726 0)
(-0.0214083 0.00117858 0)
(-0.0234388 0.00127724 0)
(-0.025633 0.00138308 0)
(-0.0280013 0.00149575 0)
(-0.0305533 0.00161469 0)
(-0.0332971 0.00173906 0)
(-0.0362393 0.00186773 0)
(-0.0393839 0.00199918 0)
(-0.042732 0.00213148 0)
(-0.0462811 0.00226223 0)
(-0.0500241 0.0023885 0)
(-0.0539488 0.00250682 0)
(-0.0580369 0.00261315 0)
(-0.062263 0.00270285 0)
(-0.0665939 0.00277069 0)
(-0.0709882 0.00281095 0)
(-0.0753949 0.00281746 0)
(-0.0797538 0.00278371 0)
(-0.083995 0.00270309 0)
(-0.0880388 0.0025691 0)
(-0.0917969 0.00237566 0)
(-0.0951731 0.0021175 0)
(-0.0980656 0.00179053 0)
(-0.100367 0.00139198 0)
(-0.101979 0.000918454 0)
(-0.102777 0.000386132 0)
(-0.102702 -0.000213807 0)
(-0.101647 -0.000865509 0)
(-0.0995609 -0.00155441 0)
(-0.0964066 -0.0022617 0)
(-0.0921804 -0.00296456 0)
(-0.0869151 -0.0036365 0)
(-0.0806842 -0.00424851 0)
(-0.0736042 -0.00477055 0)
(-0.0658342 -0.00517357 0)
(-0.0575728 -0.00543176 0)
(-0.0490521 -0.00552494 0)
(-0.0405276 -0.00544086 0)
(-0.0322659 -0.0051769 0)
(-0.0245302 -0.0047411 0)
(-0.0175646 -0.00415223 0)
(-0.0115784 -0.00343894 0)
(-0.00673233 -0.00263863 0)
(-0.00312452 -0.00179702 0)
(-0.00077718 -0.000970796 0)
(0.000381155 -0.000237224 0)
(0.000569597 0.000280328 0)
(0.000165682 0.000362156 0)
(2.69331e-05 -0.000102429 0)
(0.000148774 -0.000156601 0)
(0.00024255 -0.000110135 0)
(0.000245206 -7.15725e-06 0)
(0.000119087 0.000120549 0)
(-0.000147964 0.000253046 0)
(-0.000554487 0.000378833 0)
(-0.00109084 0.00049215 0)
(-0.00174348 0.000591005 0)
(-0.00249799 0.000675795 0)
(-0.00334095 0.000748351 0)
(-0.00426117 0.000811282 0)
(-0.00525031 0.000867515 0)
(-0.00630304 0.000920005 0)
(-0.0074171 0.000971547 0)
(-0.00859302 0.00102467 0)
(-0.00983391 0.00108161 0)
(-0.0111451 0.00114428 0)
(-0.0125339 0.00121433 0)
(-0.0140093 0.00129313 0)
(-0.0155815 0.00138187 0)
(-0.0172621 0.00148154 0)
(-0.0190635 0.00159299 0)
(-0.0209991 0.00171693 0)
(-0.0230829 0.00185395 0)
(-0.0253292 0.00200449 0)
(-0.0277527 0.00216886 0)
(-0.0303683 0.00234713 0)
(-0.0331904 0.00253917 0)
(-0.036233 0.00274453 0)
(-0.0395092 0.00296238 0)
(-0.0430305 0.00319148 0)
(-0.0468065 0.00343003 0)
(-0.0508439 0.00367561 0)
(-0.0551464 0.00392508 0)
(-0.0597129 0.00417451 0)
(-0.0645375 0.00441904 0)
(-0.0696079 0.00465285 0)
(-0.0749044 0.00486911 0)
(-0.0803993 0.00505989 0)
(-0.0860554 0.00521623 0)
(-0.0918252 0.00532816 0)
(-0.0976502 0.00538482 0)
(-0.10346 0.00537465 0)
(-0.109172 0.00528566 0)
(-0.114692 0.0051058 0)
(-0.119915 0.00482343 0)
(-0.124723 0.00442791 0)
(-0.128993 0.00391027 0)
(-0.132592 0.003264 0)
(-0.135387 0.0024857 0)
(-0.137251 0.00157397 0)
(-0.138047 0.000544174 0)
(-0.137673 -0.000596325 0)
(-0.136027 -0.00183029 0)
(-0.133044 -0.00312727 0)
(-0.128686 -0.00445209 0)
(-0.122957 -0.00576247 0)
(-0.115905 -0.00700999 0)
(-0.10763 -0.00814198 0)
(-0.0982844 -0.00910426 0)
(-0.0880706 -0.0098446 0)
(-0.0772406 -0.0103167 0)
(-0.0660867 -0.0104843 0)
(-0.0549298 -0.0103255 0)
(-0.044105 -0.00983527 0)
(-0.0339437 -0.0090281 0)
(-0.0247544 -0.00793789 0)
(-0.0168032 -0.00661707 0)
(-0.010295 -0.0051349 0)
(-0.00535595 -0.00357695 0)
(-0.00201518 -0.0020492 0)
(-0.000183933 -0.000692539 0)
(0.000396507 0.000284294 0)
(0.000153322 0.000527577 0)
(2.70489e-05 -0.00014468 0)
(0.000136881 -0.000208349 0)
(0.000195153 -0.000125264 0)
(0.000135683 4.02368e-05 0)
(-8.14136e-05 0.000242915 0)
(-0.000469269 0.000453378 0)
(-0.00102618 0.000654175 0)
(-0.00174124 0.000836269 0)
(-0.00259904 0.000996333 0)
(-0.00358299 0.00113477 0)
(-0.00467759 0.00125427 0)
(-0.00586986 0.00135881 0)
(-0.00715009 0.00145292 0)
(-0.00851217 0.00154123 0)
(-0.00995354 0.00162815 0)
(-0.0114751 0.0017177 0)
(-0.0130807 0.00181345 0)
(-0.014777 0.00191849 0)
(-0.0165731 0.00203545 0)
(-0.01848 0.00216657 0)
(-0.0205103 0.00231376 0)
(-0.0226782 0.00247859 0)
(-0.0249991 0.00266244 0)
(-0.0274893 0.00286639 0)
(-0.0301657 0.00309134 0)
(-0.0330458 0.00333793 0)
(-0.0361473 0.0036065 0)
(-0.0394878 0.00389708 0)
(-0.0430845 0.00420924 0)
(-0.0469536 0.00454207 0)
(-0.0511098 0.00489402 0)
(-0.0555658 0.0052628 0)
(-0.0603315 0.00564522 0)
(-0.0654132 0.00603709 0)
(-0.0708126 0.00643303 0)
(-0.0765255 0.00682635 0)
(-0.0825414 0.00720894 0)
(-0.0888416 0.00757116 0)
(-0.0953984 0.00790175 0)
(-0.102174 0.00818784 0)
(-0.109118 0.00841498 0)
(-0.116169 0.00856724 0)
(-0.123251 0.00862749 0)
(-0.130277 0.00857765 0)
(-0.137143 0.00839922 0)
(-0.143732 0.00807386 0)
(-0.149917 0.00758415 0)
(-0.155557 0.00691451 0)
(-0.160505 0.00605228 0)
(-0.164607 0.00498887 0)
(-0.167706 0.00372096 0)
(-0.169657 0.00225058 0)
(-0.170312 0.00059713 0)
(-0.169549 -0.00122225 0)
(-0.167265 -0.00317787 0)
(-0.163388 -0.00522335 0)
(-0.157887 -0.00730367 0)
(-0.150773 -0.00935335 0)
(-0.14211 -0.0112981 0)
(-0.132021 -0.0130576 0)
(-0.120684 -0.0145496 0)
(-0.108339 -0.0156949 0)
(-0.0952781 -0.0164235 0)
(-0.0818386 -0.0166804 0)
(-0.0683923 -0.0164319 0)
(-0.0553273 -0.0156701 0)
(-0.0430287 -0.0144164 0)
(-0.031857 -0.0127223 0)
(-0.0221248 -0.0106682 0)
(-0.0140751 -0.00836158 0)
(-0.00785923 -0.00593609 0)
(-0.00351609 -0.00355679 0)
(-0.0009491 -0.00143774 0)
(0.000117735 0.000119899 0)
(0.000127653 0.000632583 0)
(2.5379e-05 -0.000181819 0)
(0.000108983 -0.000243294 0)
(0.000112546 -0.000110517 0)
(-2.98689e-05 0.000131326 0)
(-0.000357922 0.000423126 0)
(-0.000884459 0.000725665 0)
(-0.00160694 0.00101515 0)
(-0.00251317 0.00127898 0)
(-0.0035861 0.00151232 0)
(-0.00480739 0.00171554 0)
(-0.00615992 0.00189228 0)
(-0.00762933 0.00204804 0)
(-0.00920489 0.00218919 0)
(-0.0108799 0.00232227 0)
(-0.0126518 0.00245356 0)
(-0.0145218 0.00258882 0)
(-0.0164947 0.00273319 0)
(-0.0185783 0.00289113 0)
(-0.0207832 0.00306646 0)
(-0.0231224 0.00326243 0)
(-0.0256108 0.00348177 0)
(-0.0282649 0.00372678 0)
(-0.0311026 0.00399939 0)
(-0.0341428 0.00430114 0)
(-0.037405 0.00463322 0)
(-0.0409094 0.00499642 0)
(-0.0446762 0.00539109 0)
(-0.0487252 0.00581706 0)
(-0.0530755 0.00627347 0)
(-0.0577449 0.0067587 0)
(-0.0627489 0.00727017 0)
(-0.0681007 0.00780419 0)
(-0.0738096 0.00835572 0)
(-0.07988 0.00891825 0)
(-0.086311 0.00948352 0)
(-0.0930944 0.0100414 0)
(-0.100214 0.0105797 0)
(-0.107644 0.0110842 0)
(-0.115347 0.0115381 0)
(-0.123276 0.0119227 0)
(-0.131366 0.0122171 0)
(-0.139544 0.0123986 0)
(-0.147717 0.0124427 0)
(-0.155779 0.0123241 0)
(-0.16361 0.0120172 0)
(-0.171074 0.0114969 0)
(-0.178023 0.0107399 0)
(-0.184299 0.00972577 0)
(-0.189735 0.00843856 0)
(-0.194161 0.00686838 0)
(-0.197408 0.00501315 0)
(-0.199314 0.00287974 0)
(-0.199727 0.000492684 0)
(-0.198515 -0.00211894 0)
(-0.195573 -0.00491018 0)
(-0.190834 -0.00781697 0)
(-0.184268 -0.010762 0)
(-0.175897 -0.0136541 0)
(-0.165801 -0.0163906 0)
(-0.154116 -0.0188609 0)
(-0.141044 -0.0209524 0)
(-0.12685 -0.0225563 0)
(-0.111856 -0.0235764 0)
(-0.096433 -0.023937 0)
(-0.0809913 -0.0235908 0)
(-0.0659598 -0.0225261 0)
(-0.0517664 -0.0207713 0)
(-0.0388138 -0.0183965 0)
(-0.0274542 -0.015513 0)
(-0.0179644 -0.0122709 0)
(-0.0105206 -0.00885792 0)
(-0.00517528 -0.00550476 0)
(-0.0018336 -0.00250426 0)
(-0.000220835 -0.000251239 0)
(9.61722e-05 0.000653542 0)
(2.24254e-05 -0.00021001 0)
(6.83416e-05 -0.00025376 0)
(8.14865e-07 -5.66201e-05 0)
(-0.000242898 0.000275719 0)
(-0.000700091 0.000670294 0)
(-0.00138211 0.00107803 0)
(-0.00228492 0.00146871 0)
(-0.00339476 0.00182603 0)
(-0.00469304 0.00214363 0)
(-0.00615993 0.00242186 0)
(-0.00777698 0.00266541 0)
(-0.00952874 0.00288145 0)
(-0.0114038 0.00307837 0)
(-0.0133951 0.00326484 0)
(-0.0155001 0.00344924 0)
(-0.0177205 0.00363926 0)
(-0.020062 0.00384182 0)
(-0.0225335 0.0040629 0)
(-0.0251472 0.00430769 0)
(-0.0279177 0.00458056 0)
(-0.030862 0.0048852 0)
(-0.0339986 0.00522469 0)
(-0.0373477 0.00560155 0)
(-0.0409304 0.0060178 0)
(-0.0447686 0.00647492 0)
(-0.0488844 0.00697379 0)
(-0.0533001 0.00751467 0)
(-0.0580372 0.00809702 0)
(-0.063116 0.00871936 0)
(-0.0685551 0.00937911 0)
(-0.0743705 0.0100723 0)
(-0.0805746 0.0107935 0)
(-0.0871751 0.0115353 0)
(-0.0941743 0.0122883 0)
(-0.101567 0.0130407 0)
(-0.109341 0.0137784 0)
(-0.117473 0.0144842 0)
(-0.12593 0.0151384 0)
(-0.134665 0.0157182 0)
(-0.143618 0.0161981 0)
(-0.152716 0.01655 0)
(-0.161869 0.0167433 0)
(-0.17097 0.016746 0)
(-0.179898 0.0165251 0)
(-0.188517 0.0160475 0)
(-0.196675 0.0152814 0)
(-0.204209 0.0141978 0)
(-0.210946 0.0127717 0)
(-0.216707 0.0109849 0)
(-0.22131 0.00882696 0)
(-0.224577 0.00629834 0)
(-0.22634 0.0034118 0)
(-0.226443 0.000198767 0)
(-0.224751 -0.00329823 0)
(-0.221164 -0.00701756 0)
(-0.215614 -0.0108758 0)
(-0.208081 -0.014772 0)
(-0.198593 -0.0185877 0)
(-0.187239 -0.0221904 0)
(-0.174169 -0.0254381 0)
(-0.1596 -0.0281855 0)
(-0.143811 -0.0302931 0)
(-0.127147 -0.0316365 0)
(-0.110003 -0.0321173 0)
(-0.092817 -0.0316731 0)
(-0.0760494 -0.0302868 0)
(-0.0601624 -0.0279931 0)
(-0.0455948 -0.0248811 0)
(-0.032734 -0.0210946 0)
(-0.021888 -0.0168291 0)
(-0.013259 -0.0123304 0)
(-0.00691771 -0.0078995 0)
(-0.00278019 -0.00391054 0)
(-0.000587781 -0.000849896 0)
(6.32239e-05 0.000579978 0)
(1.85775e-05 -0.000226305 0)
(1.75671e-05 -0.000233361 0)
(-0.000135082 4.44796e-05 0)
(-0.000496326 0.000482019 0)
(-0.0010992 0.000992819 0)
(-0.00195241 0.00151819 0)
(-0.00304965 0.00202159 0)
(-0.00437531 0.00248314 0)
(-0.00590913 0.00289499 0)
(-0.00762992 0.00325757 0)
(-0.00951808 0.00357673 0)
(-0.0115573 0.00386148 0)
(-0.0137358 0.00412238 0)
(-0.0160462 0.00437043 0)
(-0.0184862 0.00461627 0)
(-0.021058 0.00486974 0)
(-0.0237682 0.00513965 0)
(-0.0266268 0.00543371 0)
(-0.0296474 0.00575856 0)
(-0.0328462 0.00611981 0)
(-0.0362419 0.00652219 0)
(-0.0398549 0.0069696 0)
(-0.0437073 0.00746522 0)
(-0.047822 0.0080115 0)
(-0.0522228 0.00861016 0)
(-0.0569337 0.00926212 0)
(-0.0619781 0.00996739 0)
(-0.0673789 0.0107249 0)
(-0.0731569 0.0115324 0)
(-0.0793311 0.0123859 0)
(-0.0859166 0.0132798 0)
(-0.0929247 0.0142063 0)
(-0.100361 0.0151554 0)
(-0.108224 0.0161142 0)
(-0.116506 0.0170668 0)
(-0.125186 0.0179942 0)
(-0.134236 0.0188738 0)
(-0.143614 0.0196796 0)
(-0.153263 0.0203821 0)
(-0.163115 0.0209482 0)
(-0.173081 0.021342 0)
(-0.183061 0.0215251 0)
(-0.192935 0.0214572 0)
(-0.202568 0.0210975 0)
(-0.211811 0.0204054 0)
(-0.220499 0.0193429 0)
(-0.228458 0.0178755 0)
(-0.235505 0.0159749 0)
(-0.241452 0.0136209 0)
(-0.246113 0.0108041 0)
(-0.249304 0.00752843 0)
(-0.250855 0.00381344 0)
(-0.250611 -0.000300807 0)
(-0.24844 -0.00475764 0)
(-0.244243 -0.00947791 0)
(-0.237958 -0.0143579 0)
(-0.229568 -0.0192723 0)
(-0.219109 -0.0240749 0)
(-0.206675 -0.0286029 0)
(-0.192422 -0.0326817 0)
(-0.176575 -0.0361329 0)
(-0.159423 -0.0387847 0)
(-0.141322 -0.040483 0)
(-0.122684 -0.0411047 0)
(-0.103967 -0.0405704 0)
(-0.0856552 -0.0388558 0)
(-0.0682406 -0.0360004 0)
(-0.0521929 -0.0321119 0)
(-0.037932 -0.0273669 0)
(-0.0257976 -0.0220081 0)
(-0.0160195 -0.0163421 0)
(-0.00869194 -0.0107425 0)
(-0.00375003 -0.00566574 0)
(-0.000962534 -0.00168575 0)
(3.14239e-05 0.000408413 0)
(1.41052e-05 -0.000228345 0)
(-4.13398e-05 -0.00017671 0)
(-0.000291166 0.000199838 0)
(-0.000784332 0.000757966 0)
(-0.00154791 0.00139842 0)
(-0.00258688 0.00205336 0)
(-0.00389193 0.00268026 0)
(-0.00544513 0.00325586 0)
(-0.00722443 0.00377101 0)
(-0.00920723 0.00422639 0)
(-0.0113729 0.00462916 0)
(-0.0137045 0.00499032 0)
(-0.0161898 0.0053228 0)
(-0.0188214 0.00564006 0)
(-0.0215975 0.00595517 0)
(-0.0245207 0.00628026 0)
(-0.0275984 0.00662619 0)
(-0.0308418 0.00700251 0)
(-0.0342657 0.00741739 0)
(-0.0378877 0.00787779 0)
(-0.041728 0.00838951 0)
(-0.0458086 0.00895733 0)
(-0.0501533 0.00958505 0)
(-0.0547865 0.0102755 0)
(-0.0597335 0.0110307 0)
(-0.0650194 0.0118514 0)
(-0.0706687 0.0127372 0)
(-0.0767046 0.0136863 0)
(-0.0831484 0.0146954 0)
(-0.0900182 0.0157588 0)
(-0.0973283 0.016869 0)
(-0.105088 0.0180155 0)
(-0.113299 0.0191849 0)
(-0.121958 0.0203604 0)
(-0.131049 0.0215214 0)
(-0.140549 0.0226434 0)
(-0.150419 0.0236978 0)
(-0.16061 0.0246518 0)
(-0.171057 0.0254684 0)
(-0.18168 0.0261068 0)
(-0.19238 0.0265229 0)
(-0.203044 0.0266698 0)
(-0.213543 0.0264993 0)
(-0.22373 0.0259626 0)
(-0.233445 0.0250126 0)
(-0.242516 0.0236049 0)
(-0.250759 0.0217007 0)
(-0.257988 0.019269 0)
(-0.264009 0.016289 0)
(-0.268634 0.0127531 0)
(-0.271682 0.00866977 0)
(-0.272981 0.00406605 0)
(-0.272382 -0.00100817 0)
(-0.269756 -0.0064818 0)
(-0.265007 -0.012258 0)
(-0.258079 -0.0182126 0)
(-0.248957 -0.0241959 0)
(-0.237679 -0.0300344 0)
(-0.22434 -0.0355346 0)
(-0.209098 -0.0404894 0)
(-0.192177 -0.0446869 0)
(-0.173872 -0.0479217 0)
(-0.154541 -0.0500085 0)
(-0.134606 -0.0507977 0)
(-0.114539 -0.0501903 0)
(-0.0948443 -0.0481524 0)
(-0.0760373 -0.0447263 0)
(-0.0586174 -0.0400367 0)
(-0.0430365 -0.0342927 0)
(-0.0296666 -0.0277849 0)
(-0.0187686 -0.0208822 0)
(-0.0104654 -0.014032 0)
(-0.00471856 -0.00777273 0)
(-0.00133268 -0.0027613 0)
(2.19349e-06 0.0001395 0)
(9.1934e-06 -0.000214269 0)
(-0.000106844 -7.92553e-05 0)
(-0.000464258 0.000415637 0)
(-0.00110213 0.00111051 0)
(-0.00204006 0.00189418 0)
(-0.00327824 0.00269029 0)
(-0.00480363 0.00345081 0)
(-0.0065955 0.00414948 0)
(-0.00862973 0.00477612 0)
(-0.0108823 0.00533187 0)
(-0.0133315 0.00582542 0)
(-0.0159598 0.00626994 0)
(-0.0187548 0.00668088 0)
(-0.0217092 0.00707433 0)
(-0.0248214 0.00746592 0)
(-0.0280948 0.0078702 0)
(-0.0315374 0.00830019 0)
(-0.0351616 0.00876734 0)
(-0.0389832 0.00928149 0)
(-0.0430212 0.00985096 0)
(-0.047297 0.0104827 0)
(-0.051834 0.0111823 0)
(-0.0566572 0.0119542 0)
(-0.0617923 0.0128016 0)
(-0.0672656 0.0137266 0)
(-0.0731029 0.0147297 0)
(-0.0793293 0.01581 0)
(-0.085968 0.0169647 0)
(-0.0930397 0.0181891 0)
(-0.100562 0.0194757 0)
(-0.108546 0.0208144 0)
(-0.117 0.0221917 0)
(-0.125922 0.0235903 0)
(-0.135302 0.024989 0)
(-0.145122 0.026362 0)
(-0.15535 0.027679 0)
(-0.165941 0.0289045 0)
(-0.176837 0.0299986 0)
(-0.187965 0.0309164 0)
(-0.199232 0.0316091 0)
(-0.210534 0.032024 0)
(-0.221747 0.0321064 0)
(-0.232731 0.0317997 0)
(-0.243332 0.0310482 0)
(-0.253382 0.029798 0)
(-0.262704 0.0279999 0)
(-0.271112 0.0256114 0)
(-0.278415 0.0225997 0)
(-0.284421 0.0189444 0)
(-0.288945 0.0146407 0)
(-0.291806 0.00970226 0)
(-0.29284 0.00416427 0)
(-0.291901 -0.00191306 0)
(-0.288866 -0.0084444 0)
(-0.283643 -0.0153157 0)
(-0.276178 -0.0223827 0)
(-0.266456 -0.0294721 0)
(-0.254514 -0.0363837 0)
(-0.240443 -0.0428942 0)
(-0.224397 -0.0487643 0)
(-0.206595 -0.0537478 0)
(-0.187327 -0.0576052 0)
(-0.166951 -0.0601184 0)
(-0.145892 -0.0611086 0)
(-0.124631 -0.0604545 0)
(-0.103686 -0.0581096 0)
(-0.0835967 -0.0541161 0)
(-0.0648901 -0.0486138 0)
(-0.0480507 -0.0418429 0)
(-0.0334851 -0.0341417 0)
(-0.0214893 -0.0259417 0)
(-0.0122202 -0.0177648 0)
(-0.00567205 -0.0102305 0)
(-0.00169172 -0.00407474 0)
(-2.39014e-05 -0.000223731 0)
(3.96391e-06 -0.000182564 0)
(-0.000177797 6.2886e-05 0)
(-0.000651843 0.000697315 0)
(-0.0014458 0.0015459 0)
(-0.00257044 0.00248657 0)
(-0.00402021 0.00343523 0)
(-0.00577757 0.00433897 0)
(-0.0078185 0.005169 0)
(-0.0101165 0.00591447 0)
(-0.012646 0.00657732 0)
(-0.0153842 0.00716798 0)
(-0.0183131 0.00770201 0)
(-0.0214199 0.00819753 0)
(-0.0246976 0.0086734 0)
(-0.0281451 0.00914797 0)
(-0.0317661 0.00963827 0)
(-0.0355697 0.0101596 0)
(-0.039569 0.0107254 0)
(-0.043781 0.0113472 0)
(-0.0482256 0.0120347 0)
(-0.0529253 0.0127959 0)
(-0.0579048 0.0136374 0)
(-0.0631899 0.0145642 0)
(-0.0688071 0.0155797 0)
(-0.0747835 0.016686 0)
(-0.0811451 0.0178832 0)
(-0.0879171 0.0191697 0)
(-0.0951223 0.0205415 0)
(-0.10278 0.0219922 0)
(-0.110907 0.023512 0)
(-0.119511 0.025088 0)
(-0.128598 0.0267032 0)
(-0.138161 0.0283361 0)
(-0.148188 0.0299605 0)
(-0.158651 0.0315449 0)
(-0.169514 0.0330527 0)
(-0.180725 0.0344413 0)
(-0.192217 0.0356632 0)
(-0.203907 0.0366657 0)
(-0.215699 0.0373914 0)
(-0.227475 0.0377797 0)
(-0.239106 0.0377676 0)
(-0.250444 0.0372913 0)
(-0.261331 0.0362881 0)
(-0.271595 0.0346987 0)
(-0.281055 0.0324696 0)
(-0.289525 0.0295557 0)
(-0.296816 0.0259236 0)
(-0.302741 0.021554 0)
(-0.307118 0.0164456 0)
(-0.309774 0.0106179 0)
(-0.310551 0.00411422 0)
(-0.309307 -0.00299476 0)
(-0.305927 -0.0106102 0)
(-0.300321 -0.0186018 0)
(-0.292433 -0.0268061 0)
(-0.282249 -0.0350278 0)
(-0.269799 -0.0430409 0)
(-0.255167 -0.0505936 0)
(-0.238494 -0.0574145 0)
(-0.219991 -0.0632236 0)
(-0.199936 -0.0677459 0)
(-0.178683 -0.0707286 0)
(-0.156652 -0.0719611 0)
(-0.134329 -0.0712967 0)
(-0.112248 -0.0686723 0)
(-0.0909662 -0.0641265 0)
(-0.0710402 -0.0578112 0)
(-0.0529886 -0.0499957 0)
(-0.0372559 -0.0410653 0)
(-0.0241775 -0.0315137 0)
(-0.0139495 -0.0219374 0)
(-0.00660493 -0.0130362 0)
(-0.00203724 -0.00562188 0)
(-4.6869e-05 -0.00067721 0)
(-1.50141e-06 -0.000131987 0)
(-0.000253329 0.000253045 0)
(-0.000851927 0.00104966 0)
(-0.00181212 0.00206976 0)
(-0.00313466 0.00318149 0)
(-0.00480733 0.00429394 0)
(-0.00680738 0.00535004 0)
(-0.00910697 0.00631904 0)
(-0.011677 0.00718992 0)
(-0.0144898 0.00796575 0)
(-0.0175218 0.00865899 0)
(-0.0207542 0.00928781 0)
(-0.0241742 0.0098732 0)
(-0.027775 0.0104369 0)
(-0.0315555 0.0110002 0)
(-0.0355205 0.0115825 0)
(-0.0396795 0.0122017 0)
(-0.0440466 0.012873 0)
(-0.0486396 0.0136098 0)
(-0.0534793 0.0144231 0)
(-0.0585892 0.0153223 0)
(-0.0639946 0.0163145 0)
(-0.069722 0.0174053 0)
(-0.0757986 0.0185984 0)
(-0.0822516 0.0198955 0)
(-0.089107 0.0212965 0)
(-0.0963895 0.0227985 0)
(-0.104121 0.0243962 0)
(-0.112319 0.0260812 0)
(-0.120999 0.0278412 0)
(-0.130165 0.0296599 0)
(-0.13982 0.0315166 0)
(-0.149953 0.033385 0)
(-0.160545 0.0352336 0)
(-0.171565 0.037025 0)
(-0.182968 0.0387155 0)
(-0.194696 0.0402555 0)
(-0.206675 0.0415897 0)
(-0.218815 0.0426571 0)
(-0.231011 0.0433925 0)
(-0.243141 0.0437272 0)
(-0.255067 0.0435905 0)
(-0.26664 0.0429119 0)
(-0.277697 0.0416229 0)
(-0.288065 0.0396593 0)
(-0.297565 0.0369645 0)
(-0.306013 0.0334917 0)
(-0.313226 0.0292077 0)
(-0.319023 0.0240954 0)
(-0.32323 0.0181573 0)
(-0.32568 0.0114188 0)
(-0.326225 0.00393144 0)
(-0.324729 -0.00422436 0)
(-0.321079 -0.0129372 0)
(-0.31519 -0.022062 0)
(-0.307003 -0.0314179 0)
(-0.296497 -0.0407888 0)
(-0.283694 -0.0499252 0)
(-0.268664 -0.0585473 0)
(-0.251535 -0.0663532 0)
(-0.2325 -0.0730284 0)
(-0.211823 -0.0782617 0)
(-0.189844 -0.0817634 0)
(-0.166979 -0.0832882 0)
(-0.143714 -0.0826597 0)
(-0.120593 -0.0797942 0)
(-0.0981931 -0.0747224 0)
(-0.0771009 -0.0676042 0)
(-0.0578712 -0.0587356 0)
(-0.0409903 -0.0485469 0)
(-0.0268378 -0.0375939 0)
(-0.0156546 -0.0265474 0)
(-0.00751736 -0.0161867 0)
(-0.00236963 -0.00739793 0)
(-6.7079e-05 -0.00121679 0)
(-7.15589e-06 -6.14814e-05 0)
(-0.000332796 0.000494126 0)
(-0.00106293 0.00147694 0)
(-0.00219845 0.00268713 0)
(-0.00372901 0.00398428 0)
(-0.00563488 0.00527167 0)
(-0.00788739 0.00648887 0)
(-0.0104544 0.00760385 0)
(-0.0133037 0.00860595 0)
(-0.0164057 0.00949979 0)
(-0.0197354 0.0103002 0)
(-0.0232736 0.0110282 0)
(-0.0270072 0.0117079 0)
(-0.0309294 0.0123641 0)
(-0.0350399 0.0130208 0)
(-0.0393437 0.0137003 0)
(-0.0438511 0.0144227 0)
(-0.0485768 0.0152054 0)
(-0.0535395 0.0160635 0)
(-0.0587606 0.0170095 0)
(-0.0642644 0.0180535 0)
(-0.0700765 0.0192038 0)
(-0.0762241 0.0204662 0)
(-0.0827343 0.0218445 0)
(-0.0896342 0.0233401 0)
(-0.0969495 0.0249521 0)
(-0.104704 0.0266766 0)
(-0.112918 0.0285065 0)
(-0.121608 0.0304309 0)
(-0.130784 0.0324349 0)
(-0.140452 0.0344986 0)
(-0.150606 0.0365967 0)
(-0.161233 0.0386983 0)
(-0.172309 0.0407661 0)
(-0.183796 0.0427562 0)
(-0.195644 0.044618 0)
(-0.207788 0.0462946 0)
(-0.220147 0.0477226 0)
(-0.232625 0.0488333 0)
(-0.245111 0.0495536 0)
(-0.257479 0.0498073 0)
(-0.269588 0.0495168 0)
(-0.281285 0.0486055 0)
(-0.292408 0.0469998 0)
(-0.302786 0.0446321 0)
(-0.312243 0.0414433 0)
(-0.320603 0.0373863 0)
(-0.327689 0.0324285 0)
(-0.333328 0.0265555 0)
(-0.337356 0.0197742 0)
(-0.339616 0.0121156 0)
(-0.339967 0.00363873 0)
(-0.338281 -0.00556694 0)
(-0.334447 -0.0153791 0)
(-0.32838 -0.0256395 0)
(-0.320018 -0.0361519 0)
(-0.309331 -0.0466817 0)
(-0.296326 -0.0569574 0)
(-0.281059 -0.0666734 0)
(-0.263635 -0.0754976 0)
(-0.244229 -0.0830814 0)
(-0.223083 -0.0890762 0)
(-0.200521 -0.0931533 0)
(-0.176949 -0.0950291 0)
(-0.152849 -0.094493 0)
(-0.128774 -0.0914357 0)
(-0.105321 -0.0858749 0)
(-0.0831057 -0.0779739 0)
(-0.0627229 -0.0680518 0)
(-0.0447051 -0.0565817 0)
(-0.029481 -0.0441807 0)
(-0.0173421 -0.0315937 0)
(-0.00841344 -0.0196796 0)
(-0.00269115 -0.0093986 0)
(-8.50728e-05 -0.0018388 0)
(-1.29692e-05 2.98623e-05 0)
(-0.00041571 0.000788684 0)
(-0.00128361 0.00198294 0)
(-0.00260262 0.00340256 0)
(-0.00435035 0.00489981 0)
(-0.00649874 0.0063732 0)
(-0.00901257 0.00775987 0)
(-0.0118548 0.00902724 0)
(-0.0149899 0.0101656 0)
(-0.0183859 0.0111817 0)
(-0.0220166 0.012093 0)
(-0.0258618 0.0129237 0)
(-0.0299083 0.0137011 0)
(-0.0341495 0.0144533 0)
(-0.0385853 0.0152073 0)
(-0.0432213 0.0159881 0)
(-0.0480684 0.0168182 0)
(-0.053142 0.0177172 0)
(-0.0584611 0.0187016 0)
(-0.0640478 0.0197856 0)
(-0.0699268 0.0209802 0)
(-0.0761241 0.0222943 0)
(-0.0826667 0.0237342 0)
(-0.0895819 0.0253034 0)
(-0.096896 0.0270031 0)
(-0.104634 0.0288313 0)
(-0.112819 0.0307826 0)
(-0.121468 0.0328481 0)
(-0.130597 0.0350144 0)
(-0.140213 0.0372631 0)
(-0.150316 0.0395706 0)
(-0.160899 0.0419071 0)
(-0.171943 0.0442362 0)
(-0.183419 0.0465147 0)
(-0.195283 0.0486922 0)
(-0.20748 0.0507109 0)
(-0.219939 0.0525065 0)
(-0.232573 0.054008 0)
(-0.245282 0.0551389 0)
(-0.25795 0.0558189 0)
(-0.270447 0.0559648 0)
(-0.282633 0.0554928 0)
(-0.294355 0.0543213 0)
(-0.305452 0.0523726 0)
(-0.315759 0.0495765 0)
(-0.325106 0.0458727 0)
(-0.333324 0.0412141 0)
(-0.340248 0.03557 0)
(-0.345714 0.0289288 0)
(-0.349569 0.0213016 0)
(-0.351666 0.0127248 0)
(-0.351872 0.00326392 0)
(-0.350064 -0.00698381 0)
(-0.346135 -0.0178869 0)
(-0.339998 -0.0292762 0)
(-0.331584 -0.0409422 0)
(-0.320851 -0.0526343 0)
(-0.307792 -0.0640611 0)
(-0.29244 -0.074893 0)
(-0.274878 -0.0847688 0)
(-0.255254 -0.093306 0)
(-0.233787 -0.100118 0)
(-0.210778 -0.104833 0)
(-0.186618 -0.107127 0)
(-0.161785 -0.10675 0)
(-0.136836 -0.103561 0)
(-0.112387 -0.0975592 0)
(-0.0890859 -0.0889051 0)
(-0.0675692 -0.0779368 0)
(-0.0484199 -0.0651677 0)
(-0.0321219 -0.0512746 0)
(-0.0190224 -0.0370769 0)
(-0.00929971 -0.0235139 0)
(-0.00300513 -0.0116209 0)
(-0.000101472 -0.00254047 0)
(-1.89274e-05 0.000142854 0)
(-0.000501713 0.001139 0)
(-0.00151295 0.00257106 0)
(-0.00302282 0.00422015 0)
(-0.00499597 0.00593246 0)
(-0.00739531 0.00760285 0)
(-0.0101784 0.00916697 0)
(-0.0133028 0.0105926 0)
(-0.0167293 0.0118715 0)
(-0.0204233 0.0130132 0)
(-0.024357 0.0140382 0)
(-0.0285095 0.0149741 0)
(-0.0328672 0.0158518 0)
(-0.0374237 0.0167026 0)
(-0.042179 0.0175567 0)
(-0.0471393 0.0184419 0)
(-0.0523158 0.019383 0)
(-0.0577245 0.0204017 0)
(-0.0633848 0.0215164 0)
(-0.0693192 0.0227423 0)
(-0.0755525 0.0240917 0)
(-0.0821108 0.0255738 0)
(-0.0890209 0.0271951 0)
(-0.0963095 0.0289591 0)
(-0.104002 0.0308662 0)
(-0.112123 0.0329133 0)
(-0.120693 0.0350935 0)
(-0.129728 0.0373955 0)
(-0.13924 0.039803 0)
(-0.149234 0.0422944 0)
(-0.159706 0.0448416 0)
(-0.170645 0.0474101 0)
(-0.182027 0.049958 0)
(-0.193818 0.0524358 0)
(-0.205969 0.0547865 0)
(-0.21842 0.0569453 0)
(-0.231094 0.0588405 0)
(-0.243902 0.0603936 0)
(-0.256738 0.0615212 0)
(-0.269485 0.0621359 0)
(-0.282013 0.0621484 0)
(-0.294179 0.0614699 0)
(-0.305836 0.0600143 0)
(-0.316827 0.0577011 0)
(-0.326994 0.0544585 0)
(-0.336175 0.0502258 0)
(-0.344213 0.0449568 0)
(-0.350951 0.038623 0)
(-0.35624 0.0312158 0)
(-0.359936 0.0227502 0)
(-0.361905 0.0132673 0)
(-0.362019 0.00283785 0)
(-0.360161 -0.00843455 0)
(-0.356228 -0.0204113 0)
(-0.350125 -0.0329148 0)
(-0.341778 -0.0457247 0)
(-0.331132 -0.0585771 0)
(-0.318158 -0.0711629 0)
(-0.302868 -0.0831306 0)
(-0.285317 -0.0940911 0)
(-0.265623 -0.103629 0)
(-0.243976 -0.111316 0)
(-0.220652 -0.11674 0)
(-0.196022 -0.119529 0)
(-0.170555 -0.119387 0)
(-0.14481 -0.116138 0)
(-0.119421 -0.109753 0)
(-0.0950686 -0.100385 0)
(-0.0724337 -0.0883858 0)
(-0.0521548 -0.0743054 0)
(-0.0347764 -0.0588788 0)
(-0.0207074 -0.0430001 0)
(-0.0101841 -0.0276906 0)
(-0.00331543 -0.0140634 0)
(-0.000116895 -0.00332014 0)
(-2.50214e-05 0.000278222 0)
(-0.000590528 0.00154713 0)
(-0.00175018 0.00324439 0)
(-0.00345755 0.00514361 0)
(-0.0056636 0.00708618 0)
(-0.00832143 0.00896447 0)
(-0.0113808 0.0107137 0)
(-0.0147935 0.0123027 0)
(-0.0185159 0.0137259 0)
(-0.022511 0.0149956 0)
(-0.0267489 0.0161361 0)
(-0.0312079 0.0171788 0)