/*--------------------------------*- C++ -*----------------------------------*\
  =========                 |
  \\      /  F ield         | OpenFOAM: The Open Source CFD Toolbox
   \\    /   O peration     | Website:  https://openfoam.org
    \\  /    A nd           | Version:  12
     \\/     M anipulation  |
\*---------------------------------------------------------------------------*/
FoamFile
{
    format      ascii;
    class       volScalarField;
    location    "7.5";
    object      k;
}
// * * * * * * * * * * * * * * * * * * * * * * * * * * * * * * * * * * * * * //

dimensions      [0 2 -2 0 0 0 0];

internalField   nonuniform List<scalar> 
5625
(
3.57801e-15
2.41846e-14
5.36404e-14
8.83098e-14
1.26328e-13
1.66412e-13
2.07566e-13
2.48987e-13
2.90026e-13
3.30173e-13
3.69044e-13
4.06381e-13
4.42043e-13
4.75997e-13
5.08307e-13
5.39119e-13
5.68646e-13
5.97152e-13
6.24933e-13
6.52306e-13
6.7959e-13
7.07103e-13
7.35146e-13
7.64004e-13
7.93939e-13
8.25191e-13
8.57973e-13
8.92478e-13
9.28873e-13
9.67305e-13
1.0079e-12
1.05076e-12
1.09597e-12
1.14359e-12
1.19366e-12
1.24619e-12
1.30116e-12
1.35852e-12
1.41817e-12
1.47996e-12
1.54369e-12
1.60907e-12
1.67574e-12
1.74321e-12
1.8109e-12
1.87806e-12
1.94379e-12
2.00703e-12
2.06651e-12
2.12075e-12
2.1681e-12
2.20665e-12
2.23415e-12
2.24768e-12
2.24851e-12
2.23271e-12
2.19826e-12
2.14394e-12
2.06918e-12
1.97413e-12
1.85975e-12
1.72792e-12
1.58142e-12
1.42378e-12
1.25912e-12
1.09183e-12
9.26241e-13
7.66314e-13
6.15365e-13
4.75917e-13
3.49707e-13
2.37903e-13
1.41621e-13
6.3094e-14
9.3106e-15
2.70376e-14
2.15363e-13
4.81271e-13
7.93644e-13
1.13601e-12
1.49687e-12
1.86732e-12
2.24012e-12
2.60946e-12
2.97074e-12
3.32051e-12
3.65645e-12
3.97729e-12
4.28274e-12
4.57338e-12
4.85053e-12
5.1161e-12
5.37248e-12
5.62234e-12
5.86851e-12
6.1139e-12
6.36133e-12
6.61355e-12
6.8731e-12
7.14235e-12
7.42344e-12
7.71831e-12
8.02868e-12
8.35606e-12
8.70177e-12
9.06693e-12
9.45247e-12
9.85916e-12
1.02875e-11
1.07379e-11
1.12105e-11
1.1705e-11
1.2221e-11
1.27577e-11
1.33136e-11
1.38869e-11
1.44752e-11
1.5075e-11
1.56822e-11
1.62912e-11
1.68956e-11
1.74873e-11
1.80565e-11
1.8592e-11
1.90805e-11
1.9507e-11
1.98545e-11
2.01028e-11
2.02244e-11
2.02316e-11
2.00887e-11
1.97778e-11
1.92882e-11
1.86146e-11
1.77585e-11
1.67285e-11
1.55418e-11
1.42231e-11
1.28044e-11
1.13228e-11
9.8176e-12
8.32791e-12
6.88929e-12
5.53152e-12
4.27725e-12
3.14204e-12
2.13625e-12
1.26965e-12
5.61436e-13
7.03152e-14
5.73998e-14
4.9155e-13
1.10565e-12
1.82712e-12
2.61771e-12
3.45087e-12
4.30601e-12
5.16648e-12
6.01882e-12
6.85241e-12
7.65932e-12
8.4342e-12
9.17413e-12
9.87845e-12
1.05485e-11
1.11874e-11
1.17996e-11
1.23905e-11
1.29664e-11
1.35339e-11
1.40997e-11
1.46703e-11
1.52519e-11
1.58507e-11
1.64719e-11
1.71205e-11
1.78011e-11
1.85176e-11
1.92734e-11
2.00717e-11
2.0915e-11
2.18055e-11
2.27449e-11
2.37345e-11
2.47751e-11
2.58669e-11
2.70095e-11
2.82018e-11
2.94417e-11
3.07261e-11
3.20507e-11
3.34096e-11
3.4795e-11
3.61969e-11
3.7603e-11
3.89979e-11
4.03628e-11
4.16754e-11
4.29093e-11
4.40341e-11
4.50152e-11
4.58137e-11
4.63824e-11
4.66555e-11
4.66709e-11
4.63382e-11
4.56174e-11
4.4484e-11
4.29264e-11
4.09477e-11
3.85682e-11
3.5827e-11
3.27819e-11
2.95066e-11
2.60867e-11
2.26134e-11
1.91769e-11
1.58592e-11
1.27291e-11
9.83844e-12
7.22292e-12
4.90594e-12
2.90963e-12
1.27834e-12
1.48906e-13
9.38304e-14
8.23503e-13
1.86129e-12
3.08212e-12
4.4202e-12
5.83027e-12
7.27734e-12
8.73317e-12
1.0175e-11
1.15847e-11
1.2949e-11
1.42589e-11
1.55093e-11
1.66993e-11
1.78312e-11
1.89102e-11
1.9944e-11
2.0942e-11
2.19146e-11
2.28732e-11
2.3829e-11
2.47932e-11
2.57764e-11
2.67888e-11
2.78395e-11
2.89369e-11
3.00887e-11
3.13014e-11
3.2581e-11
3.39328e-11
3.53609e-11
3.68692e-11
3.84605e-11
4.01368e-11
4.18996e-11
4.37491e-11
4.56845e-11
4.77039e-11
4.98036e-11
5.19782e-11
5.42203e-11
5.65195e-11
5.88628e-11
6.1233e-11
6.36091e-11
6.59648e-11
6.82685e-11
7.04823e-11
7.2562e-11
7.44562e-11
7.61068e-11
7.7449e-11
7.84017e-11
7.88501e-11
7.88735e-11
7.83065e-11
7.70829e-11
7.51624e-11
7.2525e-11
6.91755e-11
6.51481e-11
6.05086e-11
5.53547e-11
4.98116e-11
4.40245e-11
3.81487e-11
3.23372e-11
2.67296e-11
2.1442e-11
1.65621e-11
1.21493e-11
8.24226e-12
4.87795e-12
2.13274e-12
2.42375e-13
1.35188e-13
1.19835e-12
2.71793e-12
4.5087e-12
6.47253e-12
8.54219e-12
1.0666e-11
1.28023e-11
1.49174e-11
1.69851e-11
1.89855e-11
2.09055e-11
2.27377e-11
2.44808e-11
2.61384e-11
2.77182e-11
2.92317e-11
3.06928e-11
3.21169e-11
3.35207e-11
3.49209e-11
3.63339e-11
3.77754e-11
3.92602e-11
4.08017e-11
4.24124e-11
4.41034e-11
4.58843e-11
4.7764e-11
4.97498e-11
5.18481e-11
5.40643e-11
5.64024e-11
5.88655e-11
6.14552e-11
6.41718e-11
6.70138e-11
6.9978e-11
7.30589e-11
7.62481e-11
7.95342e-11
8.29019e-11
8.63315e-11
8.97978e-11
9.32697e-11
9.67087e-11
1.00069e-10
1.03295e-10
1.06322e-10
1.09078e-10
1.11477e-10
1.13426e-10
1.14805e-10
1.15443e-10
1.15476e-10
1.14643e-10
1.12851e-10
1.10039e-10
1.06178e-10
1.01273e-10
9.53718e-11
8.85707e-11
8.1012e-11
7.288e-11
6.43892e-11
5.57695e-11
4.72474e-11
3.90291e-11
3.12858e-11
2.4146e-11
1.76955e-11
1.19897e-11
7.08186e-12
3.08528e-12
3.47114e-13
1.80674e-13
1.60917e-12
3.65871e-12
6.07844e-12
8.73389e-12
1.1533e-11
1.44053e-11
1.7294e-11
2.01535e-11
2.29479e-11
2.56505e-11
2.82433e-11
3.07167e-11
3.30689e-11
3.53049e-11
3.74357e-11
3.94767e-11
4.1447e-11
4.33678e-11
4.52618e-11
4.71516e-11
4.90595e-11
5.10069e-11
5.30136e-11
5.5098e-11
5.72768e-11
5.95648e-11
6.19752e-11
6.45196e-11
6.72081e-11
7.00489e-11
7.3049e-11
7.62137e-11
7.95466e-11
8.30496e-11
8.67226e-11
9.05631e-11
9.4566e-11
9.8723e-11
1.03023e-10
1.07448e-10
1.11979e-10
1.16588e-10
1.2124e-10
1.25894e-10
1.30499e-10
1.34993e-10
1.39302e-10
1.43344e-10
1.47018e-10
1.50216e-10
1.52815e-10
1.54648e-10
1.55489e-10
1.55536e-10
1.54422e-10
1.52019e-10
1.48248e-10
1.43062e-10
1.36467e-10
1.28523e-10
1.19356e-10
1.09158e-10
9.81777e-11
8.6708e-11
7.50627e-11
6.35524e-11
5.24588e-11
4.20157e-11
3.23968e-11
2.3717e-11
1.6049e-11
9.46302e-12
4.11168e-12
4.60392e-13
2.29777e-13
2.05176e-12
4.67332e-12
7.77355e-12
1.11784e-11
1.47687e-11
1.84527e-11
2.21574e-11
2.58236e-11
2.94051e-11
3.28675e-11
3.61878e-11
3.93537e-11
4.23632e-11
4.52229e-11
4.79473e-11
5.05566e-11
5.30756e-11
5.55318e-11
5.79544e-11
6.03727e-11
6.28156e-11
6.53102e-11
6.78822e-11
7.0555e-11
7.33498e-11
7.62855e-11
7.93789e-11
8.26444e-11
8.60947e-11
8.97399e-11
9.35886e-11
9.76468e-11
1.01919e-10
1.06405e-10
1.11106e-10
1.16017e-10
1.2113e-10
1.26433e-10
1.31911e-10
1.37542e-10
1.43298e-10
1.49143e-10
1.55036e-10
1.60921e-10
1.66736e-10
1.72403e-10
1.77833e-10
1.8292e-10
1.87544e-10
1.91567e-10
1.9484e-10
1.97149e-10
1.98206e-10
1.98279e-10
1.96885e-10
1.93856e-10
1.89087e-10
1.82517e-10
1.74142e-10
1.64035e-10
1.5235e-10
1.3933e-10
1.25296e-10
1.10623e-10
9.57203e-11
8.09905e-11
6.68007e-11
5.34542e-11
4.11753e-11
3.01103e-11
2.03495e-11
1.19803e-11
5.19483e-12
5.8024e-13
2.82167e-13
2.52344e-12
5.75511e-12
9.58239e-12
1.37891e-11
1.82262e-11
2.27795e-11
2.73577e-11
3.18873e-11
3.63104e-11
4.05845e-11
4.46809e-11
4.85849e-11
5.2294e-11
5.58171e-11
5.91723e-11
6.23853e-11
6.54871e-11
6.85123e-11
7.14972e-11
7.44782e-11
7.7491e-11
8.05695e-11
8.37449e-11
8.70462e-11
9.04993e-11
9.41272e-11
9.79502e-11
1.01986e-10
1.06248e-10
1.10751e-10
1.15501e-10
1.20507e-10
1.25773e-10
1.31297e-10
1.37079e-10
1.43111e-10
1.49382e-10
1.55876e-10
1.62573e-10
1.69444e-10
1.76454e-10
1.83561e-10
1.90712e-10
1.97843e-10
2.04877e-10
2.11725e-10
2.1828e-10
2.24418e-10
2.29996e-10
2.34854e-10
2.3881e-10
2.41612e-10
2.42901e-10
2.43015e-10
2.41356e-10
2.37704e-10
2.3193e-10
2.23947e-10
2.13743e-10
2.01395e-10
1.8709e-10
1.71119e-10
1.53875e-10
1.35827e-10
1.17482e-10
9.93457e-11
8.18787e-11
6.54611e-11
5.03731e-11
3.67956e-11
2.48374e-11
1.46028e-11
6.32186e-12
7.05134e-13
3.37631e-13
3.0224e-12
6.89969e-12
1.14972e-11
1.65541e-11
2.18899e-11
2.73659e-11
3.28711e-11
3.83161e-11
4.36311e-11
4.87642e-11
5.36811e-11
5.8364e-11
6.28107e-11
6.70321e-11
7.1051e-11
7.48987e-11
7.86133e-11
8.22368e-11
8.58133e-11
8.9387e-11
9.30007e-11
9.6695e-11
1.00508e-10
1.04473e-10
1.08621e-10
1.12979e-10
1.17572e-10
1.22418e-10
1.27535e-10
1.32936e-10
1.38631e-10
1.44627e-10
1.50925e-10
1.57525e-10
1.64421e-10
1.71604e-10
1.79057e-10
1.86762e-10
1.94689e-10
2.02806e-10
2.11071e-10
2.19432e-10
2.27828e-10
2.36187e-10
2.4442e-10
2.52427e-10
2.60087e-10
2.67259e-10
2.73781e-10
2.79466e-10
2.84107e-10
2.87411e-10
2.88948e-10
2.89121e-10
2.87218e-10
2.8296e-10
2.76187e-10
2.66789e-10
2.54737e-10
2.40113e-10
2.23128e-10
2.04126e-10
1.83572e-10
1.62029e-10
1.40109e-10
1.18426e-10
9.75411e-11
7.79192e-11
5.99023e-11
4.37097e-11
2.94707e-11
1.73062e-11
7.48264e-12
8.339e-13
3.96026e-13
3.54744e-12
8.10411e-12
1.35127e-11
1.94657e-11
2.5749e-11
3.2198e-11
3.86805e-11
4.50902e-11
5.13438e-11
5.73798e-11
6.31578e-11
6.8657e-11
7.38752e-11
7.88261e-11
8.35374e-11
8.80469e-11
9.24002e-11
9.66476e-11
1.00841e-10
1.05034e-10
1.09275e-10
1.13613e-10
1.18091e-10
1.2275e-10
1.27625e-10
1.32746e-10
1.38141e-10
1.43831e-10
1.49835e-10
1.56166e-10
1.62835e-10
1.69847e-10
1.77202e-10
1.84897e-10
1.92922e-10
2.01264e-10
2.09902e-10
2.1881e-10
2.27956e-10
2.37298e-10
2.46789e-10
2.5637e-10
2.65973e-10
2.75518e-10
2.84908e-10
2.94033e-10
3.0276e-10
3.10934e-10
3.18374e-10
3.2487e-10
3.30186e-10
3.33995e-10
3.35791e-10
3.36034e-10
3.33907e-10
3.29061e-10
3.21307e-10
3.10505e-10
2.96612e-10
2.79708e-10
2.60029e-10
2.37965e-10
2.14054e-10
1.88952e-10
1.63377e-10
1.38055e-10
1.13653e-10
9.07278e-11
6.96893e-11
5.08011e-11
3.42156e-11
2.00714e-11
8.66904e-12
9.65609e-13
4.57256e-13
4.09776e-12
9.36645e-12
1.56254e-11
2.25184e-11
2.97962e-11
3.72664e-11
4.47742e-11
5.2195e-11
5.94315e-11
6.64116e-11
7.30882e-11
7.94376e-11
8.54577e-11
9.11658e-11
9.65946e-11
1.01789e-10
1.06804e-10
1.11697e-10
1.16529e-10
1.21362e-10
1.26253e-10
1.31258e-10
1.36427e-10
1.41805e-10
1.47431e-10
1.5334e-10
1.59562e-10
1.6612e-10
1.73033e-10
1.80315e-10
1.87976e-10
1.96017e-10
2.04437e-10
2.13229e-10
2.2238e-10
2.31869e-10
2.41672e-10
2.51757e-10
2.62086e-10
2.72611e-10
2.83279e-10
2.94026e-10
3.04779e-10
3.15452e-10
3.25943e-10
3.36132e-10
3.45877e-10
3.55011e-10
3.63335e-10
3.70616e-10
3.76588e-10
3.80892e-10
3.82944e-10
3.83262e-10
3.80919e-10
3.75497e-10
3.66777e-10
3.54593e-10
3.38882e-10
3.19725e-10
2.97375e-10
2.72267e-10
2.45006e-10
2.16334e-10
1.87077e-10
1.58072e-10
1.30095e-10
1.038e-10
7.96726e-11
5.80276e-11
3.9045e-11
2.28828e-11
9.8745e-12
1.09951e-12
5.21258e-13
4.67283e-12
1.06855e-11
1.78331e-11
2.57088e-11
3.40266e-11
4.25645e-11
5.11438e-11
5.96206e-11
6.78819e-11
7.58446e-11
8.34545e-11
9.06849e-11
9.75343e-11
1.04024e-10
1.10191e-10
1.16091e-10
1.21785e-10
1.27341e-10
1.3283e-10
1.38321e-10
1.43881e-10
1.49572e-10
1.5545e-10
1.61565e-10
1.67962e-10
1.74678e-10
1.81744e-10
1.89185e-10
1.97021e-10
2.05263e-10
2.13919e-10
2.2299e-10
2.32469e-10
2.42345e-10
2.526e-10
2.63208e-10
2.7414e-10
2.85357e-10
2.96816e-10
3.08466e-10
3.20248e-10
3.32095e-10
3.43931e-10
3.55666e-10
3.67193e-10
3.78387e-10
3.89098e-10
3.99145e-10
4.08312e-10
4.16343e-10
4.22942e-10
4.27712e-10
4.3e-10
4.30384e-10
4.27816e-10
4.21817e-10
4.12143e-10
3.98601e-10
3.8111e-10
3.59749e-10
3.34787e-10
3.06694e-10
2.76137e-10
2.43939e-10
2.11022e-10
1.78334e-10
1.46762e-10
1.17061e-10
8.98012e-11
6.5355e-11
4.39371e-11
2.57281e-11
1.10938e-11
1.23502e-12
5.87996e-13
5.27237e-12
1.20605e-11
2.01345e-11
2.90349e-11
3.84369e-11
4.80881e-11
5.7784e-11
6.73597e-11
7.66858e-11
8.56673e-11
9.42425e-11
1.02382e-10
1.10084e-10
1.17375e-10
1.243e-10
1.30921e-10
1.37309e-10
1.43542e-10
1.49701e-10
1.55865e-10
1.62107e-10
1.68498e-10
1.75099e-10
1.81966e-10
1.89146e-10
1.96679e-10
2.04599e-10
2.1293e-10
2.2169e-10
2.30891e-10
2.40537e-10
2.50624e-10
2.61143e-10
2.72076e-10
2.834e-10
2.95086e-10
3.07096e-10
3.19389e-10
3.31916e-10
3.44624e-10
3.57451e-10
3.70328e-10
3.83177e-10
3.95906e-10
4.08407e-10
4.20548e-10
4.3217e-10
4.4308e-10
4.53044e-10
4.61781e-10
4.68964e-10
4.74151e-10
4.76637e-10
4.77059e-10
4.74237e-10
4.67648e-10
4.57022e-10
4.42145e-10
4.22921e-10
3.99424e-10
3.71935e-10
3.40955e-10
3.07198e-10
2.71559e-10
2.35049e-10
1.98719e-10
1.63566e-10
1.30451e-10
1.00034e-10
7.27563e-11
4.88751e-11
2.85977e-11
1.23228e-11
1.37167e-12
6.57451e-13
5.8962e-12
1.3491e-11
2.25289e-11
3.24953e-11
4.30256e-11
5.38345e-11
6.46908e-11
7.5407e-11
8.58361e-11
9.58704e-11
1.0544e-10
1.14513e-10
1.2309e-10
1.31199e-10
1.38896e-10
1.46249e-10
1.53342e-10
1.60263e-10
1.67102e-10
1.73947e-10
1.80881e-10
1.87981e-10
1.95314e-10
2.0294e-10
2.1091e-10
2.19265e-10
2.2804e-10
2.37259e-10
2.46939e-10
2.57087e-10
2.67706e-10
2.78786e-10
2.90315e-10
3.02268e-10
3.14618e-10
3.27329e-10
3.4036e-10
3.53666e-10
3.67196e-10
3.80893e-10
3.94696e-10
4.08535e-10
4.22332e-10
4.35995e-10
4.49411e-10
4.62444e-10
4.74926e-10
4.86648e-10
4.97357e-10
5.06747e-10
5.1446e-10
5.19993e-10
5.22619e-10
5.23039e-10
5.19912e-10
5.12702e-10
5.01117e-10
4.84926e-10
4.6402e-10
4.38469e-10
4.0856e-10
3.74815e-10
3.37987e-10
2.99027e-10
2.59026e-10
2.19127e-10
1.80436e-10
1.43919e-10
1.10338e-10
8.02111e-11
5.38462e-11
3.14845e-11
1.35583e-11
1.50909e-12
7.29616e-13
6.54428e-12
1.49771e-11
2.5016e-11
3.60896e-11
4.77915e-11
5.98023e-11
7.18618e-11
8.37588e-11
9.53274e-11
1.06446e-10
1.17037e-10
1.27066e-10
1.36533e-10
1.45475e-10
1.53952e-10
1.62047e-10
1.69851e-10
1.77466e-10
1.8499e-10
1.92522e-10
2.00153e-10
2.07967e-10
2.16035e-10
2.24423e-10
2.33183e-10
2.42359e-10
2.51984e-10
2.62081e-10
2.72667e-10
2.83744e-10
2.95311e-10
3.07354e-10
3.19854e-10
3.32784e-10
3.46109e-10
3.59791e-10
3.73785e-10
3.88041e-10
4.02509e-10
4.17132e-10
4.31849e-10
4.46592e-10
4.61282e-10
4.75826e-10
4.90109e-10
5.03988e-10
5.17281e-10
5.29765e-10
5.41163e-10
5.51144e-10
5.5932e-10
5.65111e-10
5.67802e-10
5.68168e-10
5.64664e-10
5.56792e-10
5.44232e-10
5.26742e-10
5.04206e-10
4.76687e-10
4.44474e-10
4.08103e-10
3.68353e-10
3.26218e-10
2.82851e-10
2.39483e-10
1.97317e-10
1.57432e-10
1.20692e-10
8.77051e-11
5.88418e-11
3.43833e-11
1.47982e-11
1.64705e-12
8.04494e-13
7.21665e-12
1.65186e-11
2.75958e-11
3.98177e-11
5.27344e-11
6.59905e-11
7.92954e-11
9.24122e-11
1.05155e-10
1.17387e-10
1.29024e-10
1.40025e-10
1.50397e-10
1.6018e-10
1.69446e-10
1.78286e-10
1.86805e-10
1.95114e-10
2.03326e-10
2.11546e-10
2.19875e-10
2.28401e-10
2.37204e-10
2.46351e-10
2.55897e-10
2.65885e-10
2.7635e-10
2.87312e-10
2.98783e-10
3.10764e-10
3.23249e-10
3.36219e-10
3.4965e-10
3.63509e-10
3.77759e-10
3.92358e-10
4.07257e-10
4.22408e-10
4.37759e-10
4.53255e-10
4.68837e-10
4.84437e-10
4.9998e-10
5.15367e-10
5.3048e-10
5.45165e-10
5.59227e-10
5.72423e-10
5.84452e-10
5.94956e-10
6.0352e-10
6.0947e-10
6.12143e-10
6.12387e-10
6.08424e-10
5.99836e-10
5.86279e-10
5.67498e-10
5.43376e-10
5.13972e-10
4.79572e-10
4.40718e-10
3.98202e-10
3.53047e-10
3.06458e-10
2.59733e-10
2.14173e-10
1.70963e-10
1.3108e-10
9.52299e-11
6.38567e-11
3.72913e-11
1.60411e-11
1.78538e-12
8.82092e-13
7.91337e-12
1.81158e-11
3.02686e-11
4.36799e-11
5.78544e-11
7.23989e-11
8.69904e-11
1.01365e-10
1.15314e-10
1.28687e-10
1.41389e-10
1.53379e-10
1.64665e-10
1.75295e-10
1.85351e-10
1.94936e-10
2.04169e-10
2.13172e-10
2.22068e-10
2.30973e-10
2.39996e-10
2.49232e-10
2.58765e-10
2.68664e-10
2.78986e-10
2.89776e-10
3.01064e-10
3.12871e-10
3.25204e-10
3.38062e-10
3.51431e-10
3.6529e-10
3.7961e-10
3.94354e-10
4.09482e-10
4.24949e-10
4.40706e-10
4.56706e-10
4.72897e-10
4.89228e-10
5.05642e-10
5.22072e-10
5.38441e-10
5.54649e-10
5.70568e-10
5.86031e-10
6.00826e-10
6.14686e-10
6.27287e-10
6.38244e-10
6.47114e-10
6.53124e-10
6.55701e-10
6.55736e-10
6.51228e-10
6.41862e-10
6.27275e-10
6.07203e-10
5.81528e-10
5.50309e-10
5.13828e-10
4.72622e-10
4.27491e-10
3.79474e-10
3.29807e-10
2.79849e-10
2.30983e-10
1.84501e-10
1.41496e-10
1.02782e-10
6.88892e-11
4.02071e-11
1.72862e-11
1.924e-12
9.62423e-13
8.63455e-12
1.9769e-11
3.30347e-11
4.76766e-11
6.31517e-11
7.90272e-11
9.49456e-11
1.10613e-10
1.25799e-10
1.40337e-10
1.54122e-10
1.67112e-10
1.79318e-10
1.90797e-10
2.01641e-10
2.11968e-10
2.21909e-10
2.316e-10
2.41174e-10
2.50759e-10
2.6047e-10
2.70409e-10
2.80662e-10
2.91304e-10
3.0239e-10
3.13966e-10
3.2606e-10
3.38689e-10
3.5186e-10
3.65563e-10
3.79784e-10
3.94497e-10
4.09668e-10
4.25258e-10
4.41224e-10
4.5752e-10
4.74101e-10
4.90918e-10
5.07925e-10
5.25071e-10
5.42302e-10
5.59553e-10
5.76742e-10
5.93763e-10
6.10476e-10
6.267e-10
6.422e-10
6.56684e-10
6.69802e-10
6.81141e-10
6.90232e-10
6.96202e-10
6.98654e-10
6.98345e-10
6.93216e-10
6.83005e-10
6.67348e-10
6.45968e-10
6.18757e-10
5.85771e-10
5.47289e-10
5.03844e-10
4.56231e-10
4.05495e-10
3.5289e-10
2.99819e-10
2.47739e-10
1.98042e-10
1.51939e-10
1.10362e-10
7.39403e-11
4.31313e-11
1.85336e-11
2.06291e-12
1.0455e-12
9.38031e-12
2.14783e-11
3.58946e-11
5.18081e-11
6.86266e-11
8.58753e-11
1.0316e-10
1.20156e-10
1.36607e-10
1.5233e-10
1.67212e-10
1.81209e-10
1.94336e-10
2.06661e-10
2.18289e-10
2.2935e-10
2.39991e-10
2.50361e-10
2.60605e-10
2.7086e-10
2.81249e-10
2.9188e-10
3.02844e-10
3.14216e-10
3.26052e-10
3.38397e-10
3.51278e-10
3.64709e-10
3.78691e-10
3.93214e-10
4.08257e-10
4.23792e-10
4.39782e-10
4.56188e-10
4.72964e-10
4.90066e-10
5.0745e-10
5.25072e-10
5.42887e-10
5.60849e-10
5.78903e-10
5.96984e-10
6.15004e-10
6.32848e-10
6.5036e-10
6.67339e-10
6.83526e-10
6.98603e-10
7.12191e-10
7.2385e-10
7.33087e-10
7.38933e-10
7.4122e-10
7.40449e-10
7.34623e-10
7.235e-10
7.0672e-10
6.84001e-10
6.55244e-10
6.2051e-10
5.80076e-10
5.34469e-10
4.84477e-10
4.31139e-10
3.7572e-10
3.1965e-10
2.64444e-10
2.11589e-10
1.62413e-10
1.17976e-10
7.90135e-11
4.60656e-11
1.97838e-11
2.20216e-12
1.13133e-12
1.01508e-11
2.32441e-11
3.88486e-11
5.6075e-11
7.42793e-11
9.29428e-11
1.11632e-10
1.29988e-10
1.4773e-10
1.64657e-10
1.80646e-10
1.95653e-10
2.097e-10
2.22864e-10
2.35265e-10
2.4705e-10
2.58379e-10
2.69416e-10
2.80318e-10
2.91232e-10
3.02289e-10
3.13601e-10
3.25264e-10
3.37352e-10
3.49924e-10
3.63022e-10
3.76671e-10
3.90882e-10
4.05655e-10
4.20974e-10
4.36816e-10
4.53151e-10
4.6994e-10
4.87142e-10
5.04714e-10
5.22614e-10
5.40801e-10
5.59234e-10
5.77872e-10
5.9667e-10
6.15574e-10
6.34514e-10
6.53395e-10
6.72087e-10
6.90416e-10
7.08158e-10
7.25028e-10
7.40679e-10
7.54703e-10
7.66634e-10
7.75958e-10
7.81612e-10
7.83693e-10
7.82367e-10
7.75771e-10
7.63666e-10
7.45701e-10
7.21591e-10
6.91253e-10
6.54753e-10
6.12372e-10
5.64635e-10
5.12325e-10
4.56471e-10
3.98335e-10
3.39362e-10
2.81112e-10
2.25153e-10
1.72929e-10
1.2563e-10
8.41139e-11
4.90127e-11
2.10378e-11
2.34185e-12
1.21993e-12
1.0946e-11
2.50665e-11
4.1897e-11
6.04774e-11
8.01099e-11
1.00229e-10
1.20359e-10
1.40107e-10
1.59163e-10
1.77308e-10
1.9441e-10
2.10426e-10
2.25386e-10
2.39379e-10
2.5254e-10
2.65034e-10
2.77037e-10
2.88727e-10
3.00275e-10
3.11835e-10
3.23548e-10
3.35529e-10
3.47878e-10
3.6067e-10
3.73964e-10
3.87801e-10
4.02203e-10
4.17179e-10
4.32725e-10
4.48825e-10
4.65452e-10
4.82573e-10
5.00152e-10
5.18148e-10
5.36519e-10
5.55228e-10
5.74236e-10
5.93507e-10
6.13003e-10
6.32679e-10
6.52479e-10
6.72326e-10
6.92114e-10
7.11695e-10
7.30875e-10
7.49403e-10
7.66966e-10
7.83187e-10
7.97632e-10
8.09806e-10
8.19177e-10
8.24591e-10
8.26431e-10
8.24478e-10
8.17048e-10
8.03892e-10
7.8467e-10
7.59099e-10
7.2711e-10
6.88784e-10
6.44413e-10
5.94529e-10
5.39909e-10
4.81579e-10
4.20788e-10
3.58986e-10
2.97761e-10
2.38746e-10
1.83495e-10
1.33333e-10
8.92481e-11
5.19761e-11
2.22968e-11
2.48213e-12
1.31131e-12
1.17661e-11
2.69456e-11
4.50399e-11
6.50155e-11
8.61179e-11
1.07732e-10
1.29339e-10
1.50507e-10
1.70897e-10
1.9027e-10
2.08489e-10
2.25509e-10
2.4137e-10
2.56178e-10
2.70084e-10
2.8327e-10
2.9593e-10
3.08258e-10
3.20436e-10
3.32631e-10
3.44986e-10
3.57626e-10
3.7065e-10
3.84136e-10
3.98142e-10
4.12707e-10
4.27851e-10
4.43583e-10
4.59894e-10
4.76767e-10
4.94175e-10
5.12085e-10
5.3046e-10
5.49262e-10
5.68454e-10
5.88e-10
6.07868e-10
6.28025e-10
6.48433e-10
6.69049e-10
6.89809e-10
7.10628e-10
7.31385e-10
7.51913e-10
7.71992e-10
7.91344e-10
8.09627e-10
8.26436e-10
8.41305e-10
8.53716e-10
8.63113e-10
8.68263e-10
8.69841e-10
8.67213e-10
8.58894e-10
8.44622e-10
8.24061e-10
7.96938e-10
7.63198e-10
7.22943e-10
6.76486e-10
6.24375e-10
5.67399e-10
5.06578e-10
4.43153e-10
3.78566e-10
3.14414e-10
2.52385e-10
1.94126e-10
1.41096e-10
9.44231e-11
5.49599e-11
2.35624e-11
2.62314e-12
1.40547e-12
1.26111e-11
2.88817e-11
4.82776e-11
6.96891e-11
9.23028e-11
1.15452e-10
1.38569e-10
1.61182e-10
1.82922e-10
2.03532e-10
2.22864e-10
2.4088e-10
2.57628e-10
2.73233e-10
2.87864e-10
3.01723e-10
3.15023e-10
3.27972e-10
3.40767e-10
3.53583e-10
3.66572e-10
3.79861e-10
3.93552e-10
4.07725e-10
4.22437e-10
4.37725e-10
4.53609e-10
4.70094e-10
4.87171e-10
5.04822e-10
5.23021e-10
5.41733e-10
5.60927e-10
5.80566e-10
6.00617e-10
6.21051e-10
6.41837e-10
6.62946e-10
6.84341e-10
7.05974e-10
7.27776e-10
7.49649e-10
7.71452e-10
7.92997e-10
8.14039e-10
8.34271e-10
8.53319e-10
8.7075e-10
8.86071e-10
8.98736e-10
9.08159e-10
9.13048e-10
9.14358e-10
9.11029e-10
9.0178e-10
8.86329e-10
8.64344e-10
8.35559e-10
7.99936e-10
7.57606e-10
7.08913e-10
6.54437e-10
5.94991e-10
5.31606e-10
4.65517e-10
3.9815e-10
3.31101e-10
2.66085e-10
2.04832e-10
1.48928e-10
9.9646e-11
5.79681e-11
2.4836e-11
2.76506e-12
1.50241e-12
1.3481e-11
3.08746e-11
5.16097e-11
7.44978e-11
9.86634e-11
1.23384e-10
1.48043e-10
1.72125e-10
1.95229e-10
2.17077e-10
2.37518e-10
2.56515e-10
2.74133e-10
2.90513e-10
3.05848e-10
3.2036e-10
3.34281e-10
3.47836e-10
3.61234e-10
3.74661e-10
3.88275e-10
4.02208e-10
4.16563e-10
4.31422e-10
4.46839e-10
4.62853e-10
4.79482e-10
4.96728e-10
5.14585e-10
5.33032e-10
5.52044e-10
5.71591e-10
5.91641e-10
6.12166e-10
6.33135e-10
6.54523e-10
6.76305e-10
6.9845e-10
7.20922e-10
7.43667e-10
7.66607e-10
7.89626e-10
8.12566e-10
8.35214e-10
8.57297e-10
8.78477e-10
8.98354e-10
9.16464e-10
9.32287e-10
9.45255e-10
9.54709e-10
9.59375e-10
9.60427e-10
9.56392e-10
9.46186e-10
9.29503e-10
9.06005e-10
8.75434e-10
8.37771e-10
7.93179e-10
7.42048e-10
6.85007e-10
6.22912e-10
5.56823e-10
4.87981e-10
4.17798e-10
3.47851e-10
2.79864e-10
2.15625e-10
1.56837e-10
1.04923e-10
6.10046e-11
2.61192e-11
2.90804e-12
1.60214e-12
1.43758e-11
3.29243e-11
5.50361e-11
7.94409e-11
1.05198e-10
1.31527e-10
1.57757e-10
1.83327e-10
2.07804e-10
2.3089e-10
2.52428e-10
2.7239e-10
2.90856e-10
3.07989e-10
3.24004e-10
3.39148e-10
3.53672e-10
3.67818e-10
3.81809e-10
3.95839e-10
4.10075e-10
4.2465e-10
4.39672e-10
4.55221e-10
4.71353e-10
4.88104e-10
5.05492e-10
5.23521e-10
5.42181e-10
5.61456e-10
5.8132e-10
6.01749e-10
6.22713e-10
6.44189e-10
6.66151e-10
6.88579e-10
7.11448e-10
7.3473e-10
7.58384e-10
7.82349e-10
8.06533e-10
8.30805e-10
8.54984e-10
8.78831e-10
9.02044e-10
9.24258e-10
9.45042e-10
9.63905e-10
9.80303e-10
9.93647e-10
1.00316e-09
1.00766e-09
1.00848e-09
1.00376e-09
9.92585e-10
9.74624e-10
9.49526e-10
9.17039e-10
8.77158e-10
8.30087e-10
7.76269e-10
7.16402e-10
6.5141e-10
5.8241e-10
5.10665e-10
4.37578e-10
3.64699e-10
2.93736e-10
2.26514e-10
1.64831e-10
1.10261e-10
6.40727e-11
2.74132e-11
3.05223e-12
1.70464e-12
1.52954e-11
3.50306e-11
5.85563e-11
8.45174e-11
1.11905e-10
1.39877e-10
1.67704e-10
1.9478e-10
2.20634e-10
2.44953e-10
2.67574e-10
2.88479e-10
3.07768e-10
3.25628e-10
3.423e-10
3.58055e-10
3.73165e-10
3.8789e-10
4.02466e-10
4.17097e-10
4.31955e-10
4.47179e-10
4.62877e-10
4.7913e-10
4.95993e-10
5.13504e-10
5.31679e-10
5.50522e-10
5.70026e-10
5.90174e-10
6.10946e-10
6.32319e-10
6.5427e-10
6.76779e-10
6.99827e-10
7.23393e-10
7.47458e-10
7.71989e-10
7.96942e-10
8.22244e-10
8.4779e-10
8.73428e-10
8.98955e-10
9.24106e-10
9.48551e-10
9.71895e-10
9.93678e-10
1.01338e-09
1.03044e-09
1.04425e-09
1.05389e-09
1.0583e-09
1.05892e-09
1.05355e-09
1.04142e-09
1.02215e-09
9.95373e-10
9.60837e-10
9.18551e-10
8.68757e-10
8.11964e-10
7.48958e-10
6.80759e-10
6.08568e-10
5.337e-10
4.57566e-10
3.81681e-10
3.07718e-10
2.37504e-10
1.72914e-10
1.15662e-10
6.7175e-11
2.8719e-11
3.19773e-12
1.80989e-12
1.62396e-11
3.7193e-11
6.21694e-11
8.97257e-11
1.18781e-10
1.48428e-10
1.77877e-10
2.06471e-10
2.33704e-10
2.59245e-10
2.8293e-10
3.04755e-10
3.2484e-10
3.434e-10
3.60705e-10
3.7705e-10
3.92732e-10
4.08028e-10
4.23186e-10
4.38421e-10
4.5391e-10
4.69795e-10
4.86187e-10
5.03167e-10
5.2079e-10
5.39094e-10
5.58096e-10
5.778e-10
5.982e-10
6.19283e-10
6.41033e-10
6.6343e-10
6.86456e-10
7.10096e-10
7.34334e-10
7.59153e-10
7.84531e-10
8.10435e-10
8.36811e-10
8.63575e-10
8.90605e-10
9.1773e-10
9.44721e-10
9.71287e-10
9.9707e-10
1.02165e-09
1.04453e-09
1.06518e-09
1.083e-09
1.09736e-09
1.10723e-09
1.11165e-09
1.11211e-09
1.10615e-09
1.09308e-09
1.07249e-09
1.04397e-09
1.00726e-09
9.62381e-10
9.09609e-10
8.49527e-10
7.83024e-10
7.11248e-10
6.35518e-10
5.57239e-10
4.7785e-10
3.98841e-10
3.21824e-10
2.48599e-10
1.81088e-10
1.21129e-10
7.03131e-11
3.00372e-11
3.3446e-12
1.91789e-12
1.72084e-11
3.94112e-11
6.58747e-11
9.50641e-11
1.25824e-10
1.57175e-10
1.88267e-10
2.18387e-10
2.46997e-10
2.73745e-10
2.98472e-10
3.21188e-10
3.42041e-10
3.61274e-10
3.79188e-10
3.96107e-10
4.12349e-10
4.28211e-10
4.43955e-10
4.59803e-10
4.75939e-10
4.92508e-10
5.09622e-10
5.27362e-10
5.45786e-10
5.64929e-10
5.8481e-10
6.05435e-10
6.268e-10
6.48896e-10
6.71708e-10
6.95223e-10
7.19427e-10
7.44308e-10
7.69854e-10
7.9605e-10
8.2287e-10
8.50276e-10
8.78204e-10
9.06559e-10
9.35198e-10
9.63931e-10
9.92503e-10
1.0206e-09
1.04783e-09
1.07375e-09
1.09785e-09
1.11955e-09
1.13824e-09
1.15324e-09
1.16348e-09
1.16798e-09
1.16835e-09
1.16187e-09
1.14791e-09
1.12599e-09
1.09569e-09
1.0567e-09
1.00905e-09
9.53042e-10
8.89342e-10
8.18954e-10
7.43179e-10
6.63499e-10
5.81449e-10
4.98533e-10
4.16225e-10
3.36071e-10
2.59803e-10
1.89352e-10
1.26662e-10
7.34874e-11
3.13681e-11
3.49286e-12
2.0286e-12
1.82014e-11
4.16845e-11
6.96709e-11
1.0053e-10
1.33028e-10
1.66112e-10
1.98863e-10
2.30516e-10
2.60493e-10
2.88431e-10
3.14173e-10
3.3775e-10
3.59339e-10
3.79218e-10
3.97721e-10
4.15199e-10
4.31996e-10
4.48427e-10
4.64766e-10
4.81245e-10
4.98053e-10
5.15338e-10
5.33213e-10
5.5176e-10
5.71037e-10
5.91079e-10
6.11906e-10
6.33527e-10
6.5594e-10
6.79138e-10
7.03112e-10
7.27853e-10
7.53349e-10
7.79594e-10
8.06576e-10
8.34278e-10
8.62673e-10
8.91714e-10
9.21328e-10
9.51401e-10
9.81775e-10
1.01224e-09
1.0425e-09
1.07224e-09
1.10103e-09
1.1284e-09
1.15382e-09
1.17668e-09
1.19634e-09
1.21211e-09
1.22284e-09
1.22753e-09
1.22786e-09
1.22095e-09
1.20616e-09
1.18294e-09
1.15083e-09
1.10948e-09
1.0589e-09
9.99421e-10
9.31774e-10
8.57095e-10
7.76864e-10
6.92764e-10
6.06513e-10
5.19728e-10
4.33892e-10
3.50476e-10
2.71114e-10
1.97701e-10
1.32259e-10
7.66971e-11
3.27111e-11
3.64246e-12
2.142e-12
1.92184e-11
4.40122e-11
7.35565e-11
1.06122e-10
1.4039e-10
1.75232e-10
2.09656e-10
2.4284e-10
2.74173e-10
3.03276e-10
3.30004e-10
3.5441e-10
3.76705e-10
3.97205e-10
4.16277e-10
4.34305e-10
4.51657e-10
4.68665e-10
4.85618e-10
5.02756e-10
5.20272e-10
5.38316e-10
5.57003e-10
5.76415e-10
5.9661e-10
6.17625e-10
6.3948e-10
6.62186e-10
6.85743e-10
7.10149e-10
7.35398e-10
7.61483e-10
7.88398e-10
8.16136e-10
8.44687e-10
8.74032e-10
9.04138e-10
9.34948e-10
9.66375e-10
9.98293e-10
1.03052e-09
1.06282e-09
1.0949e-09
1.12638e-09
1.15684e-09
1.18576e-09
1.21259e-09
1.23671e-09
1.25745e-09
1.27409e-09
1.28545e-09
1.29044e-09
1.29079e-09
1.28355e-09
1.268e-09
1.24353e-09
1.20961e-09
1.16586e-09
1.11222e-09
1.04906e-09
9.77155e-10
8.97779e-10
8.1261e-10
7.23575e-10
6.32632e-10
5.41563e-10
4.51907e-10
3.65061e-10
2.82532e-10
2.06131e-10
1.37915e-10
7.99398e-11
3.40654e-11
3.7933e-12
2.25804e-12
2.02591e-11
4.63936e-11
7.75299e-11
1.11836e-10
1.47905e-10
1.84525e-10
2.20632e-10
2.55344e-10
2.88014e-10
3.18256e-10
3.45936e-10
3.71137e-10
3.94108e-10
4.15204e-10
4.34831e-10
4.53405e-10
4.71319e-10
4.88923e-10
5.06519e-10
5.24353e-10
5.42623e-10
5.61482e-10
5.81045e-10
6.01394e-10
6.22587e-10
6.44662e-10
6.6764e-10
6.91534e-10
7.16346e-10
7.42077e-10
7.68724e-10
7.96283e-10
8.2475e-10
8.54119e-10
8.84377e-10
9.15502e-10
9.47452e-10
9.80161e-10
1.01353e-09
1.04741e-09
1.0816e-09
1.11585e-09
1.14984e-09
1.18316e-09
1.21537e-09
1.24593e-09
1.27427e-09
1.29974e-09
1.32165e-09
1.33925e-09
1.35136e-09
1.35676e-09
1.3572e-09
1.34973e-09
1.3335e-09
1.30786e-09
1.27217e-09
1.22599e-09
1.16923e-09
1.10221e-09
1.02577e-09
9.41309e-10
8.50716e-10
7.56201e-10
6.60015e-10
5.64184e-10
4.70347e-10
3.79852e-10
2.94055e-10
2.1463e-10
1.43622e-10
8.32118e-11
3.54294e-11
3.94519e-12
2.37669e-12
2.13229e-11
4.88275e-11
8.15892e-11
1.17668e-10
1.55566e-10
1.93983e-10
2.31777e-10
2.68007e-10
3.01994e-10
3.33343e-10
3.61939e-10
3.87901e-10
4.11518e-10
4.3319e-10
4.53364e-10
4.72486e-10
4.90977e-10
5.09204e-10
5.2748e-10
5.4606e-10
5.65144e-10
5.84887e-10
6.05403e-10
6.26775e-10
6.4906e-10
6.72296e-10
6.96507e-10
7.21705e-10
7.47895e-10
7.7508e-10
8.03259e-10
8.3243e-10
8.62588e-10
8.93727e-10
9.25831e-10
9.58871e-10
9.92797e-10
1.02753e-09
1.06295e-09
1.0989e-09
1.13516e-09
1.17145e-09
1.20742e-09
1.24267e-09
1.2767e-09
1.30899e-09
1.33891e-09
1.3658e-09
1.38896e-09
1.4076e-09
1.42057e-09
1.42646e-09
1.42706e-09
1.41946e-09
1.40266e-09
1.37592e-09
1.33853e-09
1.28996e-09
1.23003e-09
1.15904e-09
1.07784e-09
9.87945e-10
8.91458e-10
7.90901e-10
6.88884e-10
5.87744e-10
4.89299e-10
3.94882e-10
3.05685e-10
2.23189e-10
1.49371e-10
8.65078e-11
3.68008e-11
4.09791e-12
2.4979e-12
2.24096e-11
5.13129e-11
8.57321e-11
1.23615e-10
1.63366e-10
2.03595e-10
2.43076e-10
2.8081e-10
3.16086e-10
3.48507e-10
3.77983e-10
4.0467e-10
4.28907e-10
4.51139e-10
4.71855e-10
4.91538e-10
5.1063e-10
5.29518e-10
5.48526e-10
5.67913e-10
5.87883e-10
6.08591e-10
6.30151e-10
6.52646e-10
6.76131e-10
7.00645e-10
7.2621e-10
7.52841e-10
7.80543e-10
8.09321e-10
8.39173e-10
8.70099e-10
9.02092e-10
9.35141e-10
9.69228e-10
1.00432e-09
1.04034e-09
1.07721e-09
1.11479e-09
1.15291e-09
1.19131e-09
1.22972e-09
1.26775e-09
1.30497e-09
1.34089e-09
1.37494e-09
1.40649e-09
1.43487e-09
1.45932e-09
1.47905e-09
1.49297e-09
1.49945e-09
1.50027e-09
1.49263e-09
1.47535e-09
1.44762e-09
1.40863e-09
1.35773e-09
1.29466e-09
1.21964e-09
1.13352e-09
1.03789e-09
9.35077e-10
8.27924e-10
7.19457e-10
6.1241e-10
5.08863e-10