/*--------------------------------*- C++ -*----------------------------------*\
  =========                 |
  \\      /  F ield         | OpenFOAM: The Open Source CFD Toolbox
   \\    /   O peration     | Website:  https://openfoam.org
    \\  /    A nd           | Version:  12
     \\/     M anipulation  |
\*---------------------------------------------------------------------------*/
FoamFile
{
    format      ascii;
    class       volScalarField;
    location    "7.5";
    object      nut;
}
// * * * * * * * * * * * * * * * * * * * * * * * * * * * * * * * * * * * * * //

dimensions      [0 2 -1 0 0 0 0];

internalField   nonuniform List<scalar> 
5625
(
7.09176e-20
4.79348e-19
1.06317e-18
1.75033e-18
2.50388e-18
3.29835e-18
4.11404e-18
4.93501e-18
5.74843e-18
6.54415e-18
7.31459e-18
8.05463e-18
8.76147e-18
9.43445e-18
1.00748e-17
1.06855e-17
1.12708e-17
1.18358e-17
1.23864e-17
1.29289e-17
1.34697e-17
1.4015e-17
1.45709e-17
1.51428e-17
1.57362e-17
1.63556e-17
1.70054e-17
1.76893e-17
1.84106e-17
1.91724e-17
1.99769e-17
2.08264e-17
2.17225e-17
2.26664e-17
2.36587e-17
2.46999e-17
2.57894e-17
2.69263e-17
2.81086e-17
2.93334e-17
3.05965e-17
3.18924e-17
3.32137e-17
3.45511e-17
3.58927e-17
3.72238e-17
3.85267e-17
3.97801e-17
4.0959e-17
4.20341e-17
4.29725e-17
4.37366e-17
4.42817e-17
4.45498e-17
4.45664e-17
4.42532e-17
4.35703e-17
4.24937e-17
4.1012e-17
3.91279e-17
3.68609e-17
3.4248e-17
3.13443e-17
2.82198e-17
2.49562e-17
2.16405e-17
1.83584e-17
1.51886e-17
1.21968e-17
9.43286e-18
6.93133e-18
4.71534e-18
2.80698e-18
1.25055e-18
1.8454e-19
2.14358e-18
6.99692e-17
1.74937e-16
2.95303e-16
4.26052e-16
5.63334e-16
7.0396e-16
8.45288e-16
9.85156e-16
1.12185e-15
1.25408e-15
1.381e-15
1.50212e-15
1.61734e-15
1.7269e-15
1.8313e-15
1.93128e-15
2.02773e-15
2.12169e-15
2.21421e-15
2.30641e-15
2.39934e-15
2.49405e-15
2.59148e-15
2.69254e-15
2.79803e-15
2.90866e-15
3.02509e-15
3.14787e-15
3.2775e-15
3.41439e-15
3.5589e-15
3.71131e-15
3.87182e-15
4.04056e-15
4.21757e-15
4.4028e-15
4.59609e-15
4.79712e-15
5.00541e-15
5.22031e-15
5.4409e-15
5.66598e-15
5.89399e-15
6.12301e-15
6.3506e-15
6.5738e-15
6.78907e-15
6.99219e-15
7.17825e-15
7.34167e-15
7.47603e-15
7.57376e-15
7.62335e-15
7.63054e-15
7.58107e-15
7.46794e-15
7.2869e-15
7.03574e-15
6.71472e-15
6.32695e-15
5.87874e-15
5.37955e-15
4.8416e-15
4.27913e-15
3.70742e-15
3.14155e-15
2.59524e-15
2.07994e-15
1.60419e-15
1.1736e-15
7.91398e-16
4.59657e-16
1.81948e-16
5.5747e-18
4.55074e-18
3.74351e-16
1.19897e-15
2.16364e-15
3.19813e-15
4.27462e-15
5.3711e-15
6.46873e-15
7.55172e-15
8.60742e-15
9.62632e-15
1.0602e-14
1.15312e-14
1.24133e-14
1.32503e-14
1.40462e-14
1.4807e-14
1.55396e-14
1.62522e-14
1.69529e-14
1.76502e-14
1.83525e-14
1.90676e-14
1.98028e-14
2.05648e-14
2.13597e-14
2.2193e-14
2.30695e-14
2.39934e-14
2.49683e-14
2.59974e-14
2.70832e-14
2.82279e-14
2.9433e-14
3.06995e-14
3.20279e-14
3.3418e-14
3.48686e-14
3.63777e-14
3.79424e-14
3.9558e-14
4.12182e-14
4.29149e-14
4.46372e-14
4.63713e-14
4.81001e-14
4.98022e-14
5.14518e-14
5.30178e-14
5.44637e-14
5.57474e-14
5.68203e-14
5.76283e-14
5.8059e-14
5.81928e-14
5.78938e-14
5.71038e-14
5.57867e-14
5.39211e-14
5.15042e-14
4.85567e-14
4.51254e-14
4.12834e-14
3.71273e-14
3.27711e-14
2.83377e-14
2.39486e-14
1.97139e-14
1.57236e-14
1.20422e-14
8.70753e-15
5.73326e-15
3.1223e-15
9.69682e-16
1.18055e-17
7.43902e-18
8.77232e-16
3.59552e-15
7.1467e-15
1.09937e-14
1.49724e-14
1.89975e-14
2.30036e-14
2.69373e-14
3.07556e-14
3.44265e-14
3.79287e-14
4.12517e-14
4.43949e-14
4.73666e-14
5.01826e-14
5.28649e-14
5.54398e-14
5.79363e-14
6.03847e-14
6.28155e-14
6.52583e-14
6.7741e-14
7.02894e-14
7.29271e-14
7.56753e-14
7.85529e-14
8.15762e-14
8.47598e-14
8.8116e-14
9.16555e-14
9.53872e-14
9.93183e-14
1.03455e-13
1.078e-13
1.12357e-13
1.17126e-13
1.22104e-13
1.27287e-13
1.32666e-13
1.3823e-13
1.43959e-13
1.4983e-13
1.55809e-13
1.61854e-13
1.67911e-13
1.73911e-13
1.79767e-13
1.85376e-13
1.90612e-13
1.95329e-13
1.99356e-13
2.02529e-13
2.0431e-13
2.05155e-13
2.04466e-13
2.02019e-13
1.97667e-13
1.91313e-13
1.82929e-13
1.72571e-13
1.60401e-13
1.46682e-13
1.31771e-13
1.16094e-13
1.00114e-13
8.42877e-14
6.90252e-14
5.46559e-14
4.14047e-14
2.93869e-14
1.86363e-14
9.26467e-15
2.26275e-15
1.92158e-17
1.07179e-17
1.47919e-15
7.28659e-15
1.60482e-14
2.59522e-14
3.62544e-14
4.66378e-14
5.69148e-14
6.69487e-14
7.66354e-14
8.58993e-14
9.46923e-14
1.02993e-13
1.10804e-13
1.18152e-13
1.25079e-13
1.31644e-13
1.37916e-13
1.43969e-13
1.49881e-13
1.55729e-13
1.61586e-13
1.67522e-13
1.73599e-13
1.79877e-13
1.86404e-13
1.93228e-13
2.00387e-13
2.07915e-13
2.15842e-13
2.24193e-13
2.3299e-13
2.42251e-13
2.51992e-13
2.62223e-13
2.72954e-13
2.84188e-13
2.95927e-13
3.08165e-13
3.2089e-13
3.34082e-13
3.47708e-13
3.6172e-13
3.76052e-13
3.90615e-13
4.0529e-13
4.19924e-13
4.34319e-13
4.4823e-13
4.61356e-13
4.73338e-13
4.83773e-13
4.92312e-13
4.9726e-13
5.00189e-13
4.99334e-13
4.94105e-13
4.84103e-13
4.69045e-13
4.48819e-13
4.23541e-13
3.93599e-13
3.59655e-13
3.22619e-13
2.83592e-13
2.43767e-13
2.0432e-13
1.66298e-13
1.30526e-13
9.75509e-14
6.76518e-14
4.10288e-14
1.85562e-14
3.793e-15
2.75197e-17
1.43241e-17
2.13533e-15
1.19048e-14
2.87355e-14
4.89944e-14
7.04913e-14
9.22162e-14
1.13647e-13
1.3446e-13
1.54435e-13
1.73421e-13
1.9133e-13
2.08129e-13
2.23837e-13
2.38516e-13
2.52264e-13
2.65209e-13
2.77498e-13
2.89288e-13
3.00739e-13
3.12009e-13
3.23247e-13
3.34593e-13
3.46174e-13
3.58103e-13
3.70481e-13
3.83394e-13
3.96921e-13
4.11127e-13
4.2607e-13
4.41801e-13
4.58362e-13
4.75794e-13
4.94128e-13
5.13393e-13
5.33614e-13
5.5481e-13
5.76993e-13
6.00167e-13
6.24325e-13
6.49445e-13
6.75482e-13
7.02366e-13
7.29988e-13
7.58195e-13
7.86774e-13
8.15441e-13
8.43823e-13
8.71444e-13
8.97708e-13
9.21883e-13
9.43277e-13
9.61117e-13
9.71578e-13
9.78441e-13
9.77749e-13
9.68286e-13
9.49225e-13
9.19972e-13
8.80287e-13
8.30386e-13
7.71061e-13
7.03659e-13
6.30036e-13
5.52423e-13
4.73234e-13
3.94835e-13
3.19318e-13
2.48319e-13
1.82934e-13
1.23817e-13
7.18106e-14
2.99177e-14
5.43144e-15
3.65005e-17
1.82171e-17
2.83172e-15
1.71275e-14
4.45398e-14
7.98474e-14
1.18466e-13
1.57874e-13
1.96758e-13
2.34377e-13
2.70278e-13
3.04183e-13
3.35944e-13
3.65523e-13
3.92973e-13
4.18427e-13
4.42083e-13
4.64184e-13
4.85004e-13
5.04833e-13
5.23962e-13
5.42675e-13
5.61239e-13
5.79898e-13
5.98874e-13
6.18363e-13
6.38539e-13
6.59551e-13
6.81533e-13
7.04598e-13
7.28847e-13
7.54369e-13
7.81242e-13
8.0954e-13
8.39328e-13
8.70667e-13
9.03611e-13
9.38209e-13
9.74501e-13
1.01252e-12
1.05227e-12
1.09373e-12
1.13687e-12
1.18159e-12
1.22771e-12
1.27501e-12
1.32312e-12
1.37159e-12
1.41976e-12
1.46682e-12
1.51172e-12
1.55317e-12
1.59007e-12
1.62085e-12
1.63881e-12
1.65075e-12
1.64962e-12
1.63327e-12
1.60034e-12
1.54988e-12
1.48157e-12
1.39594e-12
1.29436e-12
1.17918e-12
1.05361e-12
9.21456e-13
7.86812e-13
6.53663e-13
5.25518e-13
4.05123e-13
2.94378e-13
1.94712e-13
1.08517e-13
4.24003e-14
7.12938e-15
4.60023e-17
2.23707e-17
3.56435e-15
2.27594e-14
6.27073e-14
1.17511e-13
1.79596e-13
2.43918e-13
3.07639e-13
3.69175e-13
4.27624e-13
4.82479e-13
5.33499e-13
5.80646e-13
6.24041e-13
6.63939e-13
7.00693e-13
7.34728e-13
7.66511e-13
7.9653e-13
8.25269e-13
8.53191e-13
8.80729e-13
9.08277e-13
9.36188e-13
9.64774e-13
9.94306e-13
1.02502e-12
1.05714e-12
1.09083e-12
1.12626e-12
1.16357e-12
1.2029e-12
1.24437e-12
1.28809e-12
1.33418e-12
1.38274e-12
1.43387e-12
1.48765e-12
1.54415e-12
1.60341e-12
1.66543e-12
1.73015e-12
1.79744e-12
1.86706e-12
1.93863e-12
2.01161e-12
2.08523e-12
2.15849e-12
2.23004e-12
2.29822e-12
2.36098e-12
2.4164e-12
2.46212e-12
2.48804e-12
2.50425e-12
2.50015e-12
2.47238e-12
2.41912e-12
2.33916e-12
2.23224e-12
2.09929e-12
1.94266e-12
1.76606e-12
1.5744e-12
1.3734e-12
1.16917e-12
9.67579e-13
7.73799e-13
5.91914e-13
4.24925e-13
2.75561e-13
1.48632e-13
5.53978e-14
8.86578e-15
5.59041e-17
2.67679e-17
4.332e-15
2.87013e-14
8.26329e-14
1.60761e-13
2.52469e-13
3.49237e-13
4.45765e-13
5.39012e-13
6.2727e-13
7.0963e-13
7.85694e-13
8.55426e-13
9.19062e-13
9.77039e-13
1.02995e-12
1.07847e-12
1.12336e-12
1.16537e-12
1.20526e-12
1.24373e-12
1.28145e-12
1.31899e-12
1.3569e-12
1.39563e-12
1.43558e-12
1.47712e-12
1.52057e-12
1.56619e-12
1.61423e-12
1.6649e-12
1.71842e-12
1.77496e-12
1.83473e-12
1.8979e-12
1.96463e-12
2.03507e-12
2.10938e-12
2.18765e-12
2.26997e-12
2.35633e-12
2.44665e-12
2.54072e-12
2.63818e-12
2.73843e-12
2.84064e-12
2.94365e-12
3.0459e-12
3.14539e-12
3.23962e-12
3.32561e-12
3.40004e-12
3.45955e-12
3.49181e-12
3.50872e-12
3.4965e-12
3.45042e-12
3.36844e-12
3.2494e-12
3.0934e-12
2.90216e-12
2.67925e-12
2.43002e-12
2.16127e-12
1.88082e-12
1.59686e-12
1.31724e-12
1.04885e-12
7.97209e-13
5.66655e-13
3.61696e-13
1.90219e-13
6.85682e-14
1.06284e-14
6.61129e-17
3.13976e-17
5.13431e-15
3.49077e-14
1.03907e-13
2.08485e-13
3.35366e-13
4.7188e-13
6.09276e-13
7.4225e-13
8.67814e-13
9.84413e-13
1.09139e-12
1.18869e-12
1.27672e-12
1.35618e-12
1.42799e-12
1.4932e-12
1.55292e-12
1.6083e-12
1.66044e-12
1.71035e-12
1.75899e-12
1.8072e-12
1.85572e-12
1.90523e-12
1.95627e-12
2.00934e-12
2.06488e-12
2.12327e-12
2.18488e-12
2.25002e-12
2.31898e-12
2.39206e-12
2.46952e-12
2.55162e-12
2.63861e-12
2.73072e-12
2.82815e-12
2.93104e-12
3.03946e-12
3.1534e-12
3.27271e-12
3.39705e-12
3.52584e-12
3.6582e-12
3.79285e-12
3.92804e-12
4.06149e-12
4.1903e-12
4.31094e-12
4.41927e-12
4.51062e-12
4.57935e-12
4.61339e-12
4.62497e-12
4.59716e-12
4.52409e-12
4.40401e-12
4.23619e-12
4.02148e-12
3.76269e-12
3.46484e-12
3.13502e-12
2.78202e-12
2.41572e-12
2.04631e-12
1.68352e-12
1.33587e-12
1.01032e-12
7.1264e-13
4.49442e-13
2.31997e-13
8.17247e-14
1.24082e-14
7.65549e-17
3.62519e-17
5.97126e-15
4.13606e-14
1.2628e-13
2.59814e-13
4.26655e-13
6.09598e-13
7.95546e-13
9.76105e-13
1.14639e-12
1.30384e-12
1.44741e-12
1.57703e-12
1.69331e-12
1.79731e-12
1.89038e-12
1.97406e-12
2.04993e-12
2.11961e-12
2.18463e-12
2.24641e-12
2.30626e-12
2.36533e-12
2.42464e-12
2.48509e-12
2.54745e-12
2.61239e-12
2.68049e-12
2.75227e-12
2.82821e-12
2.90875e-12
2.99428e-12
3.0852e-12
3.18186e-12
3.28461e-12
3.39378e-12
3.50966e-12
3.63248e-12
3.76241e-12
3.8995e-12
4.04366e-12
4.19461e-12
4.35178e-12
4.51426e-12
4.68074e-12
4.84933e-12
5.01754e-12
5.18218e-12
5.3393e-12
5.48417e-12
5.61136e-12
5.71487e-12
5.78661e-12
5.81364e-12
5.81327e-12
5.76099e-12
5.65161e-12
5.48412e-12
5.25876e-12
4.97739e-12
4.64414e-12
4.26559e-12
3.85059e-12
3.40982e-12
2.95506e-12
2.49834e-12
2.05105e-12
1.62317e-12
1.223e-12
8.57783e-13
5.36291e-13
2.73194e-13
9.47652e-14
1.41981e-14
8.71711e-17
4.13261e-17
6.84295e-15
4.80552e-14
1.49616e-13
3.14132e-13
5.24969e-13
7.60257e-13
1.0018e-12
1.23725e-12
1.4592e-12
1.66371e-12
1.84917e-12
2.01544e-12
2.16339e-12
2.29452e-12
2.41075e-12
2.51421e-12
2.60712e-12
2.69164e-12
2.76984e-12
2.84364e-12
2.91475e-12
2.9847e-12
3.05483e-12
3.1263e-12
3.20011e-12
3.27713e-12
3.35813e-12
3.44377e-12
3.53468e-12
3.63141e-12
3.73448e-12
3.84438e-12
3.96156e-12
4.08647e-12
4.21948e-12
4.36094e-12
4.51108e-12
4.67005e-12
4.83784e-12
5.0142e-12
5.19862e-12
5.39021e-12
5.58759e-12
5.78885e-12
5.99133e-12
6.19163e-12
6.3855e-12
6.56777e-12
6.73246e-12
6.8728e-12
6.98149e-12
7.04899e-12
7.05828e-12
7.03795e-12
6.95299e-12
6.79843e-12
6.57527e-12
6.2852e-12
5.93134e-12
5.5192e-12
5.0569e-12
4.55498e-12
4.02582e-12
3.48288e-12
2.93979e-12
2.40937e-12
1.9029e-12
1.42985e-12
9.98826e-13
6.20724e-13
3.1339e-13
1.07633e-13
1.59926e-14
9.79144e-17
4.66172e-17
7.74961e-15
5.49928e-14
1.73847e-13
3.71038e-13
6.29263e-13
9.22014e-13
1.22541e-12
1.52238e-12
1.80234e-12
2.05957e-12
2.29168e-12
2.49842e-12
2.68097e-12
2.8414e-12
2.9823e-12
3.10653e-12
3.21703e-12
3.31666e-12
3.40812e-12
3.49387e-12
3.57612e-12
3.65682e-12
3.73767e-12
3.82012e-12
3.90544e-12
3.99473e-12
4.08893e-12
4.18888e-12
4.29536e-12
4.40904e-12
4.53056e-12
4.66051e-12
4.79945e-12
4.94786e-12
5.10618e-12
5.27475e-12
5.4538e-12
5.6434e-12
5.84336e-12
6.05324e-12
6.27217e-12
6.49879e-12
6.73114e-12
6.96652e-12
7.20138e-12
7.43126e-12
7.6507e-12
7.8533e-12
8.03179e-12
8.17817e-12
8.28402e-12
8.33836e-12
8.32247e-12
8.26965e-12
8.14694e-12
7.9396e-12
7.65403e-12
7.29397e-12
6.86385e-12
6.37053e-12
5.82359e-12
5.23506e-12
4.61883e-12
3.98984e-12
3.36305e-12
2.75251e-12
2.17059e-12
1.62781e-12
1.134e-12
7.01946e-13
3.52384e-13
1.20297e-13
1.77869e-14
1.08748e-16
5.21237e-17
8.69149e-15
6.21779e-14
1.98946e-13
4.3029e-13
7.38788e-13
1.0934e-12
1.46413e-12
1.82847e-12
2.17207e-12
2.48702e-12
2.76993e-12
3.02043e-12
3.24005e-12
3.4315e-12
3.59821e-12
3.74387e-12
3.87228e-12
3.9871e-12
4.09172e-12
4.18926e-12
4.28248e-12
4.37377e-12
4.46524e-12
4.55867e-12
4.65561e-12
4.75737e-12
4.86513e-12
4.97988e-12
5.10255e-12
5.23395e-12
5.37482e-12
5.52586e-12
5.68767e-12
5.8608e-12
6.0457e-12
6.24268e-12
6.4519e-12
6.67326e-12
6.90637e-12
7.15044e-12
7.40414e-12
7.66554e-12
7.9319e-12
8.19965e-12
8.46418e-12
8.71987e-12
8.96005e-12
9.17708e-12
9.3625e-12
9.50729e-12
9.60217e-12
9.63458e-12
9.58586e-12
9.49219e-12
9.32368e-12
9.0598e-12
8.70663e-12
8.27299e-12
7.76454e-12
7.18935e-12
6.55827e-12
5.88471e-12
5.18385e-12
4.47186e-12
3.76486e-12
3.07793e-12
2.42438e-12
1.81562e-12
1.26257e-12
7.79661e-13
3.90096e-13
1.32742e-13
1.95777e-14
1.19643e-16
5.78451e-17
9.66892e-15
6.96158e-14
2.2491e-13
4.91757e-13
8.53042e-13
1.27332e-12
1.71611e-12
2.15292e-12
2.56506e-12
2.94203e-12
3.27931e-12
3.57631e-12
3.83498e-12
4.0588e-12
4.25212e-12
4.41964e-12
4.5661e-12
4.69605e-12
4.8137e-12
4.92286e-12
5.02687e-12
5.12866e-12
5.23072e-12
5.33519e-12
5.44393e-12
5.55848e-12
5.68022e-12
5.81032e-12
5.94986e-12
6.09976e-12
6.26089e-12
6.43399e-12
6.61973e-12
6.81868e-12
7.03125e-12
7.25769e-12
7.49801e-12
7.7519e-12
8.01864e-12
8.29701e-12
8.5851e-12
8.88025e-12
9.17888e-12
9.47638e-12
9.76703e-12
1.0044e-11
1.02995e-11
1.05246e-11
1.07099e-11
1.08457e-11
1.09221e-11
1.09245e-11
1.08358e-11
1.06975e-11
1.04729e-11
1.01517e-11
9.72733e-12
9.21785e-12
8.63016e-12
7.97334e-12
7.2594e-12
6.50291e-12
5.72021e-12
4.92852e-12
4.14494e-12
3.38543e-12
2.66412e-12
1.99321e-12
1.38452e-12
8.53884e-13
4.26529e-13
1.44967e-13
2.13626e-14
1.30581e-16
6.37815e-17
1.06822e-14
7.73126e-14
2.51749e-13
5.5538e-13
9.71702e-13
1.46096e-12
1.97992e-12
2.4936e-12
2.97846e-12
3.42113e-12
3.81574e-12
4.16147e-12
4.46075e-12
4.71793e-12
4.93842e-12
5.12801e-12
5.29254e-12
5.43752e-12
5.56806e-12
5.68869e-12
5.8034e-12
5.91565e-12
6.02838e-12
6.14409e-12
6.26491e-12
6.39265e-12
6.52889e-12
6.67498e-12
6.83211e-12
7.00134e-12
7.1836e-12
7.37972e-12
7.59036e-12
7.81609e-12
8.05726e-12
8.31399e-12
8.58608e-12
8.87292e-12
9.17338e-12
9.48569e-12
9.80728e-12
1.01346e-11
1.04632e-11
1.07873e-11
1.11001e-11
1.13935e-11
1.16587e-11
1.18857e-11
1.20645e-11
1.21846e-11
1.22361e-11
1.22017e-11
1.20675e-11
1.18812e-11
1.15943e-11
1.1213e-11
1.07167e-11
1.01298e-11
9.46263e-12
8.72483e-12
7.92945e-12
7.0921e-12
6.23016e-12
5.36178e-12
4.50492e-12
3.6763e-12
2.89077e-12
2.16122e-12
1.50025e-12
9.24808e-13
4.61745e-13
1.56976e-13
2.31405e-14
1.41548e-16
6.99336e-17
1.17318e-14
8.52739e-14
2.7948e-13
6.21152e-13
1.09458e-12
1.65578e-12
2.2545e-12
2.84882e-12
3.40997e-12
3.92139e-12
4.37573e-12
4.77195e-12
5.11301e-12
5.40425e-12
5.65224e-12
5.86401e-12
6.04655e-12
6.20645e-12
6.34974e-12
6.48177e-12
6.60719e-12
6.72999e-12
6.85358e-12
6.98082e-12
7.11413e-12
7.25558e-12
7.40693e-12
7.5697e-12
7.7452e-12
7.9346e-12
8.13889e-12
8.35893e-12
8.59539e-12
8.84878e-12
9.11934e-12
9.407e-12
9.7113e-12
1.00312e-11
1.03652e-11
1.07108e-11
1.10646e-11
1.14223e-11
1.17782e-11
1.21256e-11
1.24565e-11
1.27617e-11
1.30314e-11
1.32548e-11
1.34213e-11
1.35203e-11
1.35417e-11
1.34652e-11
1.32821e-11
1.30449e-11
1.2693e-11
1.22457e-11
1.168e-11
1.10144e-11
1.02675e-11
9.44926e-12
8.57353e-12
7.65693e-12
6.71777e-12
5.77509e-12
4.8476e-12
3.95273e-12
3.10593e-12
2.32073e-12
1.61038e-12
9.92732e-13
4.95847e-13
1.68781e-13
2.49107e-14
1.52538e-16
7.63023e-17
1.2818e-14
9.35052e-14
3.08123e-13
6.89086e-13
1.22157e-12
1.8574e-12
2.53904e-12
3.21725e-12
3.8577e-12
4.44038e-12
4.95638e-12
5.40443e-12
5.78812e-12
6.11386e-12
6.38951e-12
6.62344e-12
6.8239e-12
6.99862e-12
7.1546e-12
7.29804e-12
7.43426e-12
7.56783e-12
7.70259e-12
7.84178e-12
7.98811e-12
8.14388e-12
8.31103e-12
8.49125e-12
8.68595e-12
8.89639e-12
9.1236e-12
9.36846e-12
9.6316e-12
9.91345e-12
1.02141e-11
1.05332e-11
1.087e-11
1.1223e-11
1.15901e-11
1.1968e-11
1.23527e-11
1.27387e-11
1.31194e-11
1.34868e-11
1.38321e-11
1.41449e-11
1.44147e-11
1.46301e-11
1.47798e-11
1.48533e-11
1.48406e-11
1.47181e-11
1.44859e-11
1.41933e-11
1.37764e-11
1.3259e-11
1.26247e-11
1.18794e-11
1.10526e-11
1.01541e-11
9.19845e-12
8.2034e-12
7.1882e-12
6.17273e-12
5.17643e-12
4.21735e-12
3.31154e-12
2.47305e-12
1.71569e-12
1.05801e-12
5.28966e-13
1.80399e-13
2.66739e-14
1.63551e-16
8.28886e-17
1.39412e-14
1.02012e-13
3.37698e-13
7.59205e-13
1.35264e-12
2.0656e-12
2.83297e-12
3.59791e-12
4.32017e-12
4.97614e-12
5.5553e-12
6.05617e-12
6.48302e-12
6.84349e-12
7.14683e-12
7.40284e-12
7.62111e-12
7.81057e-12
7.97926e-12
8.1342e-12
8.28145e-12
8.42611e-12
8.57249e-12
8.72417e-12
8.88414e-12
9.05494e-12
9.23868e-12
9.43717e-12
9.65195e-12
9.88433e-12
1.01354e-11
1.04059e-11
1.06966e-11
1.10077e-11
1.1339e-11
1.169e-11
1.20595e-11
1.24455e-11
1.28452e-11
1.32546e-11
1.36688e-11
1.40812e-11
1.44842e-11
1.4869e-11
1.52255e-11
1.55426e-11
1.5809e-11
1.60129e-11
1.61428e-11
1.61879e-11
1.61385e-11
1.59677e-11
1.56867e-11
1.53358e-11
1.48532e-11
1.42639e-11
1.35605e-11
1.27349e-11
1.18274e-11
1.08479e-11
9.81195e-12
8.73827e-12
7.64716e-12
6.55939e-12
5.49513e-12
4.47304e-12
3.50968e-12
2.61959e-12
1.81703e-12
1.12103e-12
5.61239e-13
1.91854e-13
2.84311e-14
1.74591e-16
8.96935e-17
1.51016e-14
1.10797e-13
3.68227e-13
8.3154e-13
1.48778e-12
2.28021e-12
3.13588e-12
3.98999e-12
4.79618e-12
5.52708e-12
6.17051e-12
6.72484e-12
7.19517e-12
7.59041e-12
7.92135e-12
8.19931e-12
8.4353e-12
8.63948e-12
8.82096e-12
8.98763e-12
9.14623e-12
9.30244e-12
9.46099e-12
9.62581e-12
9.80017e-12
9.9868e-12
1.0188e-11
1.04057e-11
1.06415e-11
1.08967e-11
1.11726e-11
1.14698e-11
1.17888e-11
1.21298e-11
1.24925e-11
1.28758e-11
1.32782e-11
1.36971e-11
1.4129e-11
1.45691e-11
1.50115e-11
1.54488e-11
1.58723e-11
1.62722e-11
1.66375e-11
1.69567e-11
1.72175e-11
1.74078e-11
1.7516e-11
1.75312e-11
1.74438e-11
1.72235e-11
1.68942e-11
1.64835e-11
1.59347e-11
1.52722e-11
1.44982e-11
1.35916e-11
1.2602e-11
1.154e-11
1.04223e-11
9.26866e-12
8.10062e-12
6.93993e-12
5.80753e-12
4.7227e-12
3.70247e-12
2.76177e-12
1.91522e-12
1.18222e-12
5.928e-13
2.0317e-13
3.01842e-14
1.85666e-16
9.67179e-17
1.62995e-14
1.19867e-13
3.99725e-13
9.06123e-13
1.627e-12
2.50114e-12
3.44745e-12
4.39289e-12
5.28476e-12
6.09187e-12
6.80035e-12
7.40854e-12
7.92242e-12
8.35234e-12
8.71072e-12
9.01048e-12
9.2641e-12
9.48305e-12
9.67749e-12
9.85619e-12
1.00266e-11
1.01949e-11
1.03663e-11
1.05451e-11
1.07347e-11
1.09381e-11
1.11577e-11
1.13955e-11
1.16534e-11
1.19325e-11
1.22341e-11
1.25589e-11
1.29072e-11
1.3279e-11
1.36737e-11
1.40899e-11
1.45254e-11
1.49772e-11
1.5441e-11
1.59112e-11
1.6381e-11
1.6842e-11
1.72847e-11
1.76983e-11
1.80712e-11
1.8391e-11
1.86451e-11
1.88211e-11
1.8907e-11
1.88919e-11
1.87663e-11
1.84963e-11
1.81199e-11
1.76486e-11
1.70332e-11
1.62965e-11
1.54494e-11
1.4461e-11
1.3387e-11
1.224e-11
1.10379e-11
9.80177e-12
8.55458e-12
7.31919e-12
6.11743e-12
4.9692e-12
3.89196e-12
2.90097e-12
2.01113e-12
1.24199e-12
6.23793e-13
2.14376e-13
3.19352e-14
1.96787e-16
1.03963e-16
1.75352e-14
1.29223e-13
4.32209e-13
9.82984e-13
1.77032e-12
2.72833e-12
3.76744e-12
4.80611e-12
5.78512e-12
6.66938e-12
7.44343e-12
8.10561e-12
8.66295e-12
9.12734e-12
9.51292e-12
9.83431e-12
1.01055e-11
1.03394e-11
1.0547e-11
1.07382e-11
1.0921e-11
1.11022e-11
1.12873e-11
1.14808e-11
1.16866e-11
1.19078e-11
1.21469e-11
1.2406e-11
1.2687e-11
1.29912e-11
1.33196e-11
1.3673e-11
1.40516e-11
1.4455e-11
1.48824e-11
1.5332e-11
1.58012e-11
1.62861e-11
1.67818e-11
1.72819e-11
1.77786e-11
1.82628e-11
1.87241e-11
1.91509e-11
1.95308e-11
1.98511e-11
2.00986e-11
2.02606e-11
2.03248e-11
2.02801e-11
2.01169e-11
1.97978e-11
1.93755e-11
1.88435e-11
1.81612e-11
1.73497e-11
1.64253e-11
1.53545e-11
1.41929e-11
1.29574e-11
1.1667e-11
1.03447e-11
9.01493e-12
7.7019e-12
6.42849e-12
5.21527e-12
4.08012e-12
3.03853e-12
2.10553e-12
1.30074e-12
6.54357e-13
2.255e-13
3.36866e-14
2.07967e-16
1.11428e-16
1.88088e-14
1.38867e-13
4.65689e-13
1.06215e-12
1.91774e-12
2.9617e-12
4.09563e-12
5.22919e-12
6.29653e-12
7.25864e-12
8.09851e-12
8.81461e-12
9.41515e-12
9.91369e-12
1.03262e-11
1.06691e-11
1.09579e-11
1.12068e-11
1.14281e-11
1.16323e-11
1.18282e-11
1.20231e-11
1.22228e-11
1.24322e-11
1.26554e-11
1.28955e-11
1.31552e-11
1.34368e-11
1.37422e-11
1.40725e-11
1.4429e-11
1.48122e-11
1.52221e-11
1.56582e-11
1.61192e-11
1.6603e-11
1.71063e-11
1.76248e-11
1.81526e-11
1.86828e-11
1.92065e-11
1.97141e-11
2.01941e-11
2.06344e-11
2.1022e-11
2.13436e-11
2.15856e-11
2.1735e-11
2.17791e-11
2.17064e-11
2.15065e-11
2.11397e-11
2.06728e-11
2.00803e-11
1.93308e-11
1.84434e-11
1.74387e-11
1.62829e-11
1.50297e-11
1.37013e-11
1.23179e-11
1.09045e-11
9.48741e-12
8.09263e-12
6.74423e-12
5.46354e-12
4.2688e-12
3.17567e-12
2.19918e-12
1.35885e-12
6.8463e-13
2.36571e-13
3.54409e-14
2.19218e-16
1.19114e-16
2.01204e-14
1.48803e-13
5.00175e-13
1.14363e-12
2.06928e-12
3.2012e-12
4.4318e-12
5.66173e-12
6.81835e-12
7.85874e-12
8.76444e-12
9.53423e-12
1.01776e-11
1.07099e-11
1.11491e-11
1.15133e-11
1.18198e-11
1.20841e-11
1.23195e-11
1.25375e-11
1.27473e-11
1.29569e-11
1.31723e-11
1.33988e-11
1.36405e-11
1.39008e-11
1.41826e-11
1.4488e-11
1.4819e-11
1.5177e-11
1.55628e-11
1.5977e-11
1.64195e-11
1.68894e-11
1.73851e-11
1.7904e-11
1.84423e-11
1.8995e-11
1.95557e-11
2.01165e-11
2.0668e-11
2.11995e-11
2.16992e-11
2.21541e-11
2.25509e-11
2.28755e-11
2.31141e-11
2.32531e-11
2.32796e-11
2.31815e-11
2.29457e-11
2.25334e-11
2.20231e-11
2.13703e-11
2.05532e-11
1.95889e-11
1.85014e-11
1.72563e-11
1.59073e-11
1.44804e-11
1.29981e-11
1.14876e-11
9.97748e-12
8.49575e-12
7.06799e-12
5.71644e-12
4.45973e-12
3.31354e-12
2.29277e-12
1.41665e-12
7.1474e-13
2.47615e-13
3.72003e-14
2.30554e-16
1.2702e-16
2.147e-14
1.59031e-13
5.35672e-13
1.22744e-12
2.22492e-12
3.44674e-12
4.77576e-12
6.10332e-12
7.34994e-12
8.46881e-12
9.44017e-12
1.02632e-11
1.09489e-11
1.15145e-11
1.198e-11
1.23656e-11
1.269e-11
1.297e-11
1.32202e-11
1.34528e-11
1.36776e-11
1.39029e-11
1.41354e-11
1.43803e-11
1.4642e-11
1.4924e-11
1.52293e-11
1.556e-11
1.59182e-11
1.63052e-11
1.67219e-11
1.71686e-11
1.76449e-11
1.81499e-11
1.86815e-11
1.92367e-11
1.98111e-11
2.03992e-11
2.09937e-11
2.15862e-11
2.21666e-11
2.27234e-11
2.32443e-11
2.37158e-11
2.41239e-11
2.44541e-11
2.4692e-11
2.48236e-11
2.48355e-11
2.47153e-11
2.44443e-11
2.39892e-11
2.34365e-11
2.27241e-11
2.18386e-11
2.07965e-11
1.96234e-11
1.82842e-11
1.68343e-11
1.53031e-11
1.37151e-11
1.21004e-11
1.04904e-11
8.9154e-12
7.40294e-12
5.97629e-12
4.65451e-12
3.4532e-12
2.38693e-12
1.47449e-12
7.44806e-13
2.58658e-13
3.8967e-14
2.41985e-16
1.35146e-16
2.28576e-14
1.6955e-13
5.7218e-13
1.31357e-12
2.38463e-12
3.69822e-12
5.12725e-12
6.55353e-12
7.89064e-12
9.08799e-12
1.01246e-11
1.10004e-11
1.17278e-11
1.23262e-11
1.28178e-11
1.32246e-11
1.35671e-11
1.38635e-11
1.41293e-11
1.43774e-11
1.46184e-11
1.4861e-11
1.51119e-11
1.53767e-11
1.566e-11
1.59654e-11
1.62958e-11
1.66535e-11
1.70406e-11
1.74583e-11
1.79074e-11
1.83881e-11
1.88999e-11
1.94415e-11
2.00104e-11
2.06033e-11
2.12151e-11
2.18398e-11
2.24696e-11
2.30953e-11
2.37062e-11
2.42903e-11
2.48346e-11
2.53252e-11
2.57473e-11
2.60861e-11
2.63266e-11
2.64543e-11
2.64549e-11
2.63156e-11
2.60121e-11
2.55165e-11
2.4922e-11
2.41506e-11
2.3196e-11
2.20751e-11
2.08136e-11
1.9375e-11
1.78188e-11
1.61765e-11
1.44754e-11
1.27486e-11
1.10309e-11
9.35549e-12
7.75204e-12
6.24525e-12
4.85462e-12
3.59559e-12
2.48223e-12
1.53263e-12
7.74931e-13
2.69721e-13
4.07426e-14
2.53521e-16
1.43491e-16
2.42829e-14
1.8036e-13
6.097e-13
1.40201e-12
2.54837e-12
3.9555e-12
5.48599e-12
7.01189e-12
8.43978e-12
9.71539e-12
1.08168e-11
1.17445e-11
1.25129e-11
1.31437e-11
1.36611e-11
1.40892e-11
1.44502e-11
1.47636e-11
1.50459e-11
1.53108e-11
1.55694e-11
1.58307e-11
1.61017e-11
1.63883e-11
1.66949e-11
1.70255e-11
1.73828e-11
1.77695e-11
1.81872e-11
1.86374e-11
1.91208e-11
1.96373e-11
2.01863e-11
2.07661e-11
2.1374e-11
2.2006e-11
2.26569e-11
2.33199e-11
2.39866e-11
2.46474e-11
2.52908e-11
2.59046e-11
2.64749e-11
2.69874e-11
2.74268e-11
2.77777e-11
2.80245e-11
2.81518e-11
2.81447e-11
2.79895e-11
2.76569e-11
2.71229e-11
2.64869e-11
2.56573e-11
2.4633e-11
2.34319e-11
2.20791e-11
2.05359e-11
1.88678e-11
1.71072e-11
1.52849e-11
1.34376e-11
1.16036e-11
9.81967e-12
8.11812e-12
6.52533e-12
5.06143e-12
3.7416e-12
2.57918e-12
1.59134e-12
8.05208e-13
2.80822e-13
4.25282e-14
2.65165e-16
1.52053e-16
2.57458e-14
1.91461e-13
6.48224e-13
1.49276e-12
2.71606e-12
4.21843e-12
5.85167e-12
7.47786e-12
8.99661e-12
1.035e-11
1.15154e-11
1.24942e-11
1.3303e-11
1.39656e-11
1.45086e-11
1.49582e-11
1.53382e-11
1.56694e-11
1.59694e-11
1.62525e-11
1.65302e-11
1.6812e-11
1.7105e-11
1.74152e-11
1.77472e-11
1.8105e-11
1.84914e-11
1.89089e-11
1.93594e-11
1.98441e-11
2.03637e-11
2.09179e-11
2.15059e-11
2.21258e-11
2.27744e-11
2.34475e-11
2.41392e-11
2.48423e-11
2.55479e-11
2.62459e-11
2.69243e-11
2.75703e-11
2.81696e-11
2.87072e-11
2.91675e-11
2.95341e-11
2.97908e-11
2.99214e-11
2.99102e-11
2.97423e-11
2.93843e-11
2.8814e-11
2.81367e-11
2.72495e-11
2.61549e-11
2.48722e-11
2.34253e-11
2.17727e-11
1.99867e-11
1.81007e-11
1.6149e-11
1.41721e-11
1.22127e-11
1.03113e-11
8.50376e-12
6.81842e-12
5.2762e-12
3.892e-12
2.67822e-12
1.65083e-12
8.35713e-13
2.91974e-13
4.43244e-14
2.76919e-16
1.6083e-16
2.72459e-14
2.02849e-13
6.87745e-13
1.58576e-12
2.88761e-12
4.48678e-12
6.22391e-12
7.95088e-12
9.56031e-12
1.09909e-11
1.22193e-11
1.32484e-11
1.40966e-11
1.47904e-11
1.53589e-11
1.58302e-11
1.62298e-11
1.65799e-11
1.68989e-11
1.72018e-11
1.75005e-11
1.78047e-11
1.81218e-11
1.84578e-11
1.88175e-11
1.92047e-11
1.96225e-11
2.00731e-11
2.05586e-11
2.108e-11
2.16378e-11
2.22318e-11
2.28609e-11
2.35228e-11
2.42141e-11
2.493e-11
2.56645e-11
2.64098e-11
2.71565e-11
2.7894e-11
2.861e-11
2.9291e-11
2.99223e-11
3.04884e-11
3.09729e-11
3.13589e-11
3.16293e-11
3.17668e-11
3.17548e-11
3.15773e-11
3.1198e-11
3.05936e-11
2.98746e-11
2.89308e-11
2.77655e-11
2.63994e-11
2.48558e-11
2.30895e-11
2.11799e-11
1.91613e-11
1.70717e-11
1.49561e-11
1.28616e-11
1.08335e-11
8.91139e-12
7.12625e-12
5.5001e-12
4.04752e-12
2.77975e-12
1.7113e-12
8.66508e-13
3.03187e-13
4.61308e-14
2.8878e-16
1.69821e-16
2.87829e-14
2.14521e-13
7.28249e-13
1.68098e-12
3.06291e-12
4.76033e-12
6.60228e-12
8.43027e-12
1.013e-11
1.16369e-11
1.29273e-11
1.40054e-11
1.48922e-11
1.56168e-11
1.62106e-11
1.67039e-11
1.7124e-11
1.74941e-11
1.78337e-11
1.81581e-11
1.84799e-11
1.88088e-11
1.91523e-11
1.95166e-11
1.99064e-11
2.03255e-11
2.0777e-11
2.12633e-11
2.17861e-11
2.23465e-11
2.29449e-11
2.35809e-11
2.42532e-11
2.49591e-11
2.56951e-11
2.64561e-11
2.72354e-11
2.80249e-11
2.8815e-11
2.95944e-11
3.03505e-11
3.10693e-11
3.17357e-11
3.23335e-11
3.28457e-11
3.32545e-11
3.35419e-11
3.36898e-11
3.36801e-11
3.34958e-11
3.30992e-11
3.24627e-11
3.17018e-11
3.07023e-11
2.94661e-11
2.80147e-11
2.63721e-11
2.44886e-11
2.245e-11
2.0292e-11
1.80565e-11
1.57928e-11
1.35535e-11
1.13889e-11
9.34314e-12
7.45043e-12
5.73419e-12
4.20879e-12
2.88413e-12
1.77289e-12
8.97638e-13
3.14465e-13
4.79466e-14
3.00738e-16
1.79021e-16
3.03562e-14
2.26474e-13
7.69719e-13
1.77837e-12
3.24184e-12
5.03878e-12
6.98627e-12
8.91529e-12
1.07046e-11
1.22867e-11
1.36378e-11
1.47638e-11
1.56883e-11
1.6443e-11
1.70621e-11
1.7578e-11
1.80194e-11
1.8411e-11
1.87728e-11
1.91209e-11
1.9468e-11
1.9824e-11
2.01965e-11
2.05917e-11
2.10143e-11
2.1468e-11
2.1956e-11
2.24805e-11
2.30432e-11
2.36452e-11
2.42866e-11
2.49669e-11
2.56845e-11
2.64367e-11
2.72195e-11
2.80275e-11
2.88537e-11
2.96896e-11
3.05252e-11
3.13489e-11
3.21477e-11
3.2907e-11
3.36113e-11
3.42437e-11
3.47865e-11
3.52212e-11
3.55288e-11
3.56899e-11
3.56855e-11
3.54969e-11
3.50866e-11
3.44201e-11
3.3617e-11
3.25628e-11
3.12557e-11
2.97174e-11
2.79737e-11
2.59707e-11
2.37981e-11
2.14944e-11
1.91052e-11
1.66847e-11
1.42908e-11
1.19798e-11
9.80091e-12
7.79236e-12
5.97942e-12
4.37638e-12
2.99164e-12
1.83575e-12
9.29135e-13
3.25807e-13
4.977e-14
3.12781e-16
1.88428e-16
3.19653e-14
2.38703e-13
8.12136e-13
1.87785e-12
3.42422e-12
5.32179e-12
7.37532e-12
9.4051e-12
1.12831e-11
1.29391e-11
1.43493e-11
1.55218e-11
1.64829e-11
1.72674e-11
1.79118e-11
1.84508e-11
1.89147e-11
1.93293e-11
1.97153e-11
2.00893e-11
2.04642e-11
2.08499e-11
2.12543e-11
2.16832e-11
2.21415e-11
2.26329e-11
2.31602e-11
2.37258e-11
2.43311e-11
2.49772e-11
2.56642e-11
2.63912e-11
2.71565e-11
2.79571e-11
2.87888e-11
2.96458e-11
3.05209e-11
3.14052e-11
3.22884e-11
3.31586e-11
3.40022e-11
3.48044e-11
3.5549e-11
3.62185e-11
3.67946e-11
3.72578e-11
3.7588e-11
3.77648e-11
3.77679e-11
3.75772e-11
3.71564e-11
3.64621e-11
3.56166e-11
3.45087e-11
3.31311e-11
3.15041e-11
2.96578e-11
2.75339e-11
2.52234e-11
2.27685e-11
2.02187e-11
1.76329e-11
1.50751e-11
1.26077e-11
1.02862e-11
8.15326e-12
6.23662e-12
4.55078e-12
3.10253e-12
1.89997e-12
9.61015e-13
3.37208e-13
5.15984e-14
3.24888e-16
1.98037e-16
3.36096e-14
2.51203e-13
8.55475e-13
1.97936e-12
3.60989e-12
5.60897e-12
7.76878e-12
9.89874e-12
1.18642e-11
1.35923e-11
1.506e-11
1.62776e-11
1.72743e-11
1.80879e-11
1.87578e-11
1.93205e-11
1.98082e-11
2.02474e-11
2.06598e-11
2.10622e-11
2.14676e-11
2.1886e-11
2.23252e-11
2.27911e-11
2.32882e-11
2.38202e-11
2.439e-11
2.49996e-11
2.56505e-11
2.63435e-11
2.70785e-11
2.78547e-11
2.86699e-11
2.95211e-11
3.04036e-11
3.13117e-11
3.22375e-11
3.31721e-11
3.41047e-11
3.50232e-11
3.59135e-11
3.67605e-11
3.75473e-11
3.82559e-11
3.88672e-11
3.93607e-11
3.97155e-11
3.99099e-11
3.99221e-11
3.97309e-11
3.93023e-11
3.85823e-11
3.76943e-11
3.65338e-11
3.50866e-11
3.33698e-11
3.14197e-11
2.91748e-11
2.67232e-11
2.41127e-11
2.13963e-11
1.86378e-11
1.59072e-11
1.3274e-11
1.08003e-11
8.53409e-12
6.50648e-12
4.73239e-12