/*--------------------------------*- C++ -*----------------------------------*\
  =========                 |
  \\      /  F ield         | OpenFOAM: The Open Source CFD Toolbox
   \\    /   O peration     | Website:  https://openfoam.org
    \\  /    A nd           | Version:  12
     \\/     M anipulation  |
\*---------------------------------------------------------------------------*/
FoamFile
{
    format      ascii;
    class       volScalarField;
    location    "4.5";
    object      epsilon;
}
// * * * * * * * * * * * * * * * * * * * * * * * * * * * * * * * * * * * * * //

dimensions      [0 2 -3 0 0 0 0];

internalField   nonuniform List<scalar> 
18225
(
2.65628e-07
1.32744e-06
2.90507e-06
4.79951e-06
6.92207e-06
9.22036e-06
1.16574e-05
1.42043e-05
1.68379e-05
1.95384e-05
2.22895e-05
2.50772e-05
2.78897e-05
3.07172e-05
3.35516e-05
3.63867e-05
3.92175e-05
4.20405e-05
4.48534e-05
4.76551e-05
5.04452e-05
5.32245e-05
5.59943e-05
5.87566e-05
6.15138e-05
6.42687e-05
6.70243e-05
6.97835e-05
7.25495e-05
7.53251e-05
7.81129e-05
8.09155e-05
8.37348e-05
8.65726e-05
8.94299e-05
9.23076e-05
9.52058e-05
9.81242e-05
0.000101062
0.000104018
0.000106991
0.000109977
0.000112974
0.00011598
0.000118989
0.000121997
0.000125001
0.000127994
0.000130972
0.000133926
0.000136852
0.000139742
0.000142588
0.000145383
0.000148118
0.000150784
0.000153372
0.000155872
0.000158275
0.000160571
0.000162748
0.000164796
0.000166705
0.000168463
0.000170059
0.000171483
0.000172723
0.00017377
0.000174612
0.000175242
0.000175645
0.000175816
0.000175755
0.000175449
0.000174893
0.000174081
0.00017301
0.000171678
0.000170084
0.00016823
0.000166118
0.000163753
0.000161139
0.000158286
0.000155202
0.000151897
0.000148384
0.000144676
0.000140789
0.000136738
0.000132541
0.000128216
0.000123781
0.000119256
0.000114661
0.000110014
0.000105335
0.000100645
9.59604e-05
9.13006e-05
8.66827e-05
8.21227e-05
7.76358e-05
7.32359e-05
6.89354e-05
6.47457e-05
6.06762e-05
5.67354e-05
5.29301e-05
4.92655e-05
4.57456e-05
4.23729e-05
3.91489e-05
3.60738e-05
3.31466e-05
3.03651e-05
2.77265e-05
2.52271e-05
2.28627e-05
2.06284e-05
1.8519e-05
1.65291e-05
1.46532e-05
1.28857e-05
1.12217e-05
9.65635e-06
8.18575e-06
6.807e-06
5.5187e-06
4.32144e-06
3.21877e-06
2.21882e-06
1.3378e-06
6.09986e-07
1.21998e-07
1.32824e-06
1.08414e-06
1.62995e-06
2.44127e-06
3.39962e-06
4.45797e-06
5.59064e-06
6.78049e-06
8.01473e-06
9.28316e-06
1.05775e-05
1.18907e-05
1.3217e-05
1.45517e-05
1.58907e-05
1.7231e-05
1.85702e-05
1.99065e-05
2.12388e-05
2.25665e-05
2.38893e-05
2.52077e-05
2.6522e-05
2.78333e-05
2.91427e-05
3.04514e-05
3.17607e-05
3.30722e-05
3.43871e-05
3.57068e-05
3.70326e-05
3.83656e-05
3.97067e-05
4.10566e-05
4.2416e-05
4.37851e-05
4.5164e-05
4.65526e-05
4.79504e-05
4.93568e-05
5.07708e-05
5.21914e-05
5.36171e-05
5.50463e-05
5.64772e-05
5.79076e-05
5.93353e-05
6.07576e-05
6.21718e-05
6.35749e-05
6.49637e-05
6.63348e-05
6.76846e-05
6.90091e-05
7.03045e-05
7.15663e-05
7.27903e-05
7.39719e-05
7.51063e-05
7.61886e-05
7.7214e-05
7.81773e-05
7.90734e-05
7.98972e-05
8.06435e-05
8.13071e-05
8.1883e-05
8.23664e-05
8.27529e-05
8.30379e-05
8.32157e-05
8.32835e-05
8.32408e-05
8.30824e-05
8.28056e-05
8.24081e-05
8.18884e-05
8.12459e-05
8.04804e-05
7.95925e-05
7.85837e-05
7.7456e-05
7.62123e-05
7.48563e-05
7.33923e-05
7.18253e-05
7.01612e-05
6.84064e-05
6.65679e-05
6.46532e-05
6.26705e-05
6.06281e-05
5.85347e-05
5.63994e-05
5.42313e-05
5.20394e-05
4.9833e-05
4.76208e-05
4.54118e-05
4.32142e-05
4.10361e-05
3.8885e-05
3.67681e-05
3.46919e-05
3.26621e-05
3.0684e-05
2.87622e-05
2.69005e-05
2.51023e-05
2.337e-05
2.17055e-05
2.01101e-05
1.85846e-05
1.7129e-05
1.57429e-05
1.44254e-05
1.31753e-05
1.19907e-05
1.08699e-05
9.81057e-06
8.81035e-06
7.86676e-06
6.97728e-06
6.13947e-06
5.35102e-06
4.6099e-06
3.91446e-06
3.2637e-06
2.65745e-06
2.09691e-06
1.58551e-06
1.13098e-06
7.51319e-07
4.9802e-07
6.09731e-07
2.91398e-06
1.6359e-06
1.67405e-06
2.07271e-06
2.64296e-06
3.31642e-06
4.06019e-06
4.85515e-06
5.68865e-06
6.55148e-06
7.43659e-06
8.33835e-06
9.25219e-06
1.01744e-05
1.1102e-05
1.20325e-05
1.29641e-05
1.38955e-05
1.48257e-05
1.57542e-05
1.66807e-05
1.76053e-05
1.85284e-05
1.94505e-05
2.03723e-05
2.12945e-05
2.22182e-05
2.31441e-05
2.40732e-05
2.50064e-05
2.59445e-05
2.68882e-05
2.78382e-05
2.87948e-05
2.97585e-05
3.07293e-05
3.17073e-05
3.26923e-05
3.36839e-05
3.46816e-05
3.56847e-05
3.66922e-05
3.77032e-05
3.87164e-05
3.97303e-05
4.07434e-05
4.17539e-05
4.276e-05
4.37596e-05
4.47504e-05
4.57301e-05
4.66961e-05
4.76458e-05
4.85765e-05
4.94851e-05
5.03686e-05
5.12239e-05
5.20476e-05
5.28364e-05
5.35869e-05
5.42956e-05
5.49589e-05
5.55732e-05
5.61351e-05
5.6641e-05
5.70874e-05
5.74709e-05
5.77883e-05
5.80365e-05
5.82127e-05
5.83123e-05
5.83357e-05
5.8281e-05
5.81452e-05
5.79267e-05
5.76243e-05
5.72372e-05
5.67652e-05
5.62084e-05
5.55676e-05
5.48439e-05
5.4039e-05
5.31551e-05
5.21947e-05
5.11611e-05
5.00579e-05
4.88891e-05
4.76592e-05
4.63731e-05
4.50359e-05
4.36531e-05
4.22305e-05
4.07741e-05
3.92898e-05
3.77838e-05
3.62622e-05
3.47313e-05
3.3197e-05
3.16652e-05
3.01416e-05
2.86315e-05
2.714e-05
2.5672e-05
2.42318e-05
2.28234e-05
2.14503e-05
2.01156e-05
1.88221e-05
1.7572e-05
1.6367e-05
1.52085e-05
1.40975e-05
1.30344e-05
1.20194e-05
1.10523e-05
1.01326e-05
9.25952e-06
8.43192e-06
7.64861e-06
6.90817e-06
6.2091e-06
5.54982e-06
4.92878e-06
4.3445e-06
3.79563e-06
3.28115e-06
2.8004e-06
2.35342e-06
1.94123e-06
1.56658e-06
1.23537e-06
9.6009e-07
7.69798e-07
7.4926e-07
1.33494e-06
4.83525e-06
2.46333e-06
2.0873e-06
2.20147e-06
2.53315e-06
2.98881e-06
3.52504e-06
4.11793e-06
4.75254e-06
5.41867e-06
6.10892e-06
6.81762e-06
7.54033e-06
8.27353e-06
9.01437e-06
9.76063e-06
1.05105e-05
1.12628e-05
1.20165e-05
1.27709e-05
1.35259e-05
1.42812e-05
1.50371e-05
1.57939e-05
1.65519e-05
1.73119e-05
1.80743e-05
1.88399e-05
1.96093e-05
2.03831e-05
2.11619e-05
2.19462e-05
2.27365e-05
2.3533e-05
2.43359e-05
2.51452e-05
2.59608e-05
2.67826e-05
2.761e-05
2.84425e-05
2.92795e-05
3.012e-05
3.09631e-05
3.18076e-05
3.26522e-05
3.34954e-05
3.43358e-05
3.51715e-05
3.60007e-05
3.68214e-05
3.76317e-05
3.84292e-05
3.92116e-05
3.99765e-05
4.07215e-05
4.14439e-05
4.2141e-05
4.28101e-05
4.34484e-05
4.40531e-05
4.46213e-05
4.51502e-05
4.5637e-05
4.60787e-05
4.64726e-05
4.68161e-05
4.71065e-05
4.73414e-05
4.75184e-05
4.76348e-05
4.76877e-05
4.76793e-05
4.76059e-05
4.74662e-05
4.72593e-05
4.69844e-05
4.66411e-05
4.62297e-05
4.57504e-05
4.52041e-05
4.4592e-05
4.39156e-05
4.31768e-05
4.23779e-05
4.15217e-05
4.06111e-05
3.96495e-05
3.86405e-05
3.7588e-05
3.64962e-05
3.53696e-05
3.42125e-05
3.30298e-05
3.18262e-05
3.06064e-05
2.93754e-05
2.81379e-05
2.68986e-05
2.5662e-05
2.44325e-05
2.32144e-05
2.20116e-05
2.08278e-05
1.96664e-05
1.85306e-05
1.7423e-05
1.63461e-05
1.53021e-05
1.42927e-05
1.33193e-05
1.23829e-05
1.14845e-05
1.06244e-05
9.80283e-06
9.01966e-06
8.27455e-06
7.56695e-06
6.89612e-06
6.2612e-06
5.66119e-06
5.09504e-06
4.56169e-06
4.0601e-06
3.58939e-06
3.14886e-06
2.73816e-06
2.35747e-06
2.00778e-06
1.69145e-06
1.41308e-06
1.1816e-06
1.01498e-06
9.54422e-07
1.12311e-06
2.207e-06
7.01815e-06
3.45452e-06
2.68506e-06
2.55919e-06
2.70579e-06
3.00325e-06
3.39685e-06
3.85706e-06
4.36595e-06
4.91168e-06
5.48587e-06
6.0823e-06
6.69623e-06
7.32392e-06
7.96243e-06
8.60942e-06
9.26305e-06
9.9219e-06
1.05849e-05
1.12514e-05
1.19209e-05
1.25931e-05
1.32681e-05
1.3946e-05
1.4627e-05
1.53115e-05
1.6e-05
1.66929e-05
1.73907e-05
1.80938e-05
1.88026e-05
1.95175e-05
2.02387e-05
2.09664e-05
2.17006e-05
2.24413e-05
2.31881e-05
2.39408e-05
2.46989e-05
2.54616e-05
2.62284e-05
2.69981e-05
2.77698e-05
2.85423e-05
2.93142e-05
3.00841e-05
3.08504e-05
3.16114e-05
3.23653e-05
3.31102e-05
3.3844e-05
3.45647e-05
3.52701e-05
3.59579e-05
3.66258e-05
3.72713e-05
3.78921e-05
3.84856e-05
3.90494e-05
3.95809e-05
4.00777e-05
4.05373e-05
4.09571e-05
4.13349e-05
4.16682e-05
4.19549e-05
4.21928e-05
4.23798e-05
4.2514e-05
4.25918e-05
4.26144e-05
4.25814e-05
4.249e-05
4.23394e-05
4.21291e-05
4.18586e-05
4.15278e-05
4.1137e-05
4.06868e-05
4.01781e-05
3.9612e-05
3.89901e-05
3.83142e-05
3.75865e-05
3.68094e-05
3.59858e-05
3.51185e-05
3.42109e-05
3.32665e-05
3.22889e-05
3.1282e-05
3.02499e-05
2.91966e-05
2.81262e-05
2.7043e-05
2.59511e-05
2.48548e-05
2.37579e-05
2.26644e-05
2.15781e-05
2.05027e-05
1.94414e-05
1.83974e-05
1.73737e-05
1.63728e-05
1.53971e-05
1.44487e-05
1.35293e-05
1.26405e-05
1.17835e-05
1.09591e-05
1.0168e-05
9.41062e-06
8.68715e-06
7.9975e-06
7.34141e-06
6.71847e-06
6.12813e-06
5.56971e-06
5.04249e-06
4.54571e-06
4.07864e-06
3.64064e-06
3.23125e-06
2.85029e-06
2.49801e-06
2.17534e-06
1.88424e-06
1.62834e-06
1.41416e-06
1.2536e-06
1.17038e-06
1.21854e-06
1.56547e-06
3.18604e-06
9.42748e-06
4.57019e-06
3.40385e-06
3.05592e-06
3.0427e-06
3.21079e-06
3.49317e-06
3.85436e-06
4.27318e-06
4.73584e-06
5.23276e-06
5.75694e-06
6.30311e-06
6.86715e-06
7.44585e-06
8.03662e-06
8.63744e-06
9.24671e-06
9.86322e-06
1.04861e-05
1.11146e-05
1.17485e-05
1.23875e-05
1.30316e-05
1.36809e-05
1.43356e-05
1.4996e-05
1.56623e-05
1.6335e-05
1.70141e-05
1.77001e-05
1.83931e-05
1.90932e-05
1.98004e-05
2.05147e-05
2.12356e-05
2.19631e-05
2.26964e-05
2.3435e-05
2.41782e-05
2.4925e-05
2.56744e-05
2.64252e-05
2.71761e-05
2.79257e-05
2.86725e-05
2.94147e-05
3.01507e-05
3.08785e-05
3.15963e-05
3.2302e-05
3.29934e-05
3.36686e-05
3.43251e-05
3.49608e-05
3.55735e-05
3.61607e-05
3.67201e-05
3.72495e-05
3.77465e-05
3.82088e-05
3.86341e-05
3.90203e-05
3.93653e-05
3.96669e-05
3.99231e-05
4.01323e-05
4.02926e-05
4.04024e-05
4.04568e-05
4.04612e-05
4.04116e-05
4.03067e-05
4.01457e-05
3.99283e-05
3.96541e-05
3.93232e-05
3.89359e-05
3.84928e-05
3.79948e-05
3.74431e-05
3.68392e-05
3.61849e-05
3.54823e-05
3.47337e-05
3.39418e-05
3.31094e-05
3.22398e-05
3.13362e-05
3.04022e-05
2.94414e-05
2.84578e-05
2.74551e-05
2.64375e-05
2.54088e-05
2.4373e-05
2.3334e-05
2.22957e-05
2.12618e-05
2.02357e-05
1.92208e-05
1.82204e-05
1.72372e-05
1.6274e-05
1.53331e-05
1.44168e-05
1.35268e-05
1.26648e-05
1.18321e-05
1.10297e-05
1.02584e-05
9.51881e-06
8.81121e-06
8.13573e-06
7.4923e-06
6.88068e-06
6.30049e-06
5.75126e-06
5.23245e-06
4.74346e-06
4.28374e-06
3.85279e-06
3.45028e-06
3.07608e-06
2.73046e-06
2.41421e-06
2.12894e-06
1.8775e-06
1.66473e-06
1.49907e-06
1.39554e-06
1.3834e-06
1.5309e-06
2.05512e-06
4.2488e-06
1.2045e-05
5.7932e-06
4.21615e-06
3.65209e-06
3.49208e-06
3.54711e-06
3.73645e-06
4.01824e-06
4.36786e-06
4.76944e-06
5.21207e-06
5.68783e-06
6.1908e-06
6.71641e-06
7.26104e-06
7.82181e-06
8.39643e-06
8.98306e-06
9.58027e-06
1.0187e-05
1.08023e-05
1.14257e-05
1.20569e-05
1.26956e-05
1.33417e-05
1.39953e-05
1.46565e-05
1.53254e-05
1.60023e-05
1.66871e-05
1.73801e-05
1.80812e-05
1.87904e-05
1.95076e-05
2.02324e-05
2.09645e-05
2.17034e-05
2.24484e-05
2.31987e-05
2.39534e-05
2.47114e-05
2.54716e-05
2.62325e-05
2.69929e-05
2.7751e-05
2.85053e-05
2.9254e-05
2.99951e-05
3.07268e-05
3.14471e-05
3.21539e-05
3.28451e-05
3.35185e-05
3.4172e-05
3.48032e-05
3.54101e-05
3.59904e-05
3.65419e-05
3.70623e-05
3.75494e-05
3.80012e-05
3.84156e-05
3.87904e-05
3.91237e-05
3.94135e-05
3.96582e-05
3.9856e-05
4.00054e-05
4.0104e-05
4.01477e-05
4.01432e-05
4.00848e-05
3.99719e-05
3.98035e-05
3.95793e-05
3.92991e-05
3.89627e-05
3.85705e-05
3.81231e-05
3.76212e-05
3.7066e-05
3.6459e-05
3.58019e-05
3.50967e-05
3.43457e-05
3.35516e-05
3.27173e-05
3.18458e-05
3.09407e-05
3.00055e-05
2.90438e-05
2.80597e-05
2.70571e-05
2.60401e-05
2.50126e-05
2.39789e-05
2.29428e-05
2.19083e-05
2.08791e-05
1.98587e-05
1.88507e-05
1.78581e-05
1.68838e-05
1.59305e-05
1.50006e-05
1.4096e-05
1.32187e-05
1.23701e-05
1.15514e-05
1.07636e-05
1.00074e-05
9.28329e-06
8.59146e-06
7.93198e-06
7.30473e-06
6.70943e-06
6.14571e-06
5.61305e-06
5.11096e-06
4.63891e-06
4.19647e-06
3.7833e-06
3.39928e-06
3.04458e-06
2.71983e-06
2.42626e-06
2.1661e-06
1.94312e-06
1.76344e-06
1.63716e-06
1.58226e-06
1.63414e-06
1.8766e-06
2.58057e-06
5.37901e-06
1.48616e-05
7.11544e-06
5.1086e-06
4.32782e-06
4.02745e-06
3.97918e-06
4.08712e-06
4.30239e-06
4.59664e-06
4.95178e-06
5.3555e-06
5.79897e-06
6.27553e-06
6.78002e-06
7.30838e-06
7.85735e-06
8.42432e-06
9.00715e-06
9.60417e-06
1.0214e-05
1.08357e-05
1.14684e-05
1.21116e-05
1.27648e-05
1.34279e-05
1.41007e-05
1.47831e-05
1.54751e-05
1.61768e-05
1.6888e-05
1.76088e-05
1.83389e-05
1.90781e-05
1.98262e-05
2.05827e-05
2.1347e-05
2.21184e-05
2.2896e-05
2.3679e-05
2.44661e-05
2.52562e-05
2.60478e-05
2.68396e-05
2.76298e-05
2.84169e-05
2.91989e-05
2.99741e-05
3.07403e-05
3.14958e-05
3.22383e-05
3.29658e-05
3.36762e-05
3.43672e-05
3.50369e-05
3.56829e-05
3.63031e-05
3.68955e-05
3.74577e-05
3.79878e-05
3.84837e-05
3.89433e-05
3.93645e-05
3.97455e-05
4.00844e-05
4.03792e-05
4.06281e-05
4.08296e-05
4.09818e-05
4.10821e-05
4.11263e-05
4.11222e-05
4.10634e-05
4.09491e-05
4.07784e-05
4.05506e-05
4.02653e-05
3.99223e-05
3.95219e-05
3.90644e-05
3.85504e-05
3.79811e-05
3.73577e-05
3.66819e-05
3.59557e-05
3.51814e-05
3.43618e-05
3.34997e-05
3.25985e-05
3.16617e-05
3.0693e-05
2.96965e-05
2.86763e-05
2.76367e-05
2.6582e-05
2.55167e-05
2.4445e-05
2.33714e-05
2.23001e-05
2.1235e-05
2.018e-05
1.91387e-05
1.81146e-05
1.71107e-05
1.61297e-05
1.51742e-05
1.42463e-05
1.33478e-05
1.24802e-05
1.16447e-05
1.08422e-05
1.00734e-05
9.33855e-06
8.63788e-06
7.9713e-06
7.3386e-06
6.73943e-06
6.17333e-06
5.63976e-06
5.13818e-06
4.66809e-06
4.22908e-06
3.82092e-06
3.44364e-06
3.09763e-06
2.78384e-06
2.50399e-06
2.26086e-06
2.05891e-06
1.90534e-06
1.81209e-06
1.80031e-06
1.91181e-06
2.2471e-06
3.13431e-06
6.56417e-06
1.7874e-05
8.53333e-06
6.07452e-06
5.07243e-06
4.63409e-06
4.48833e-06
4.52263e-06
4.68045e-06
4.92937e-06
5.24894e-06
5.6253e-06
6.0485e-06
6.51112e-06
7.0074e-06
7.53281e-06
8.08366e-06
8.65697e-06
9.25032e-06
9.8617e-06
1.04895e-05
1.11325e-05
1.17897e-05
1.24603e-05
1.31437e-05
1.38394e-05
1.45473e-05
1.52669e-05
1.59982e-05
1.6741e-05
1.7495e-05
1.82599e-05
1.90355e-05
1.98214e-05
2.06169e-05
2.14215e-05
2.22345e-05
2.30548e-05
2.38814e-05
2.47132e-05
2.55488e-05
2.63868e-05
2.72256e-05
2.80636e-05
2.8899e-05
2.97298e-05
3.05543e-05
3.13704e-05
3.21761e-05
3.29694e-05
3.37482e-05
3.45102e-05
3.52536e-05
3.5976e-05
3.66755e-05
3.73498e-05
3.7997e-05
3.86149e-05
3.92016e-05
3.97549e-05
4.0273e-05
4.07537e-05
4.11952e-05
4.15956e-05
4.19528e-05
4.22651e-05
4.25306e-05
4.27474e-05
4.29139e-05
4.30279e-05
4.30833e-05
4.30883e-05
4.30378e-05
4.29295e-05
4.27623e-05
4.25354e-05
4.22481e-05
4.18999e-05
4.14907e-05
4.10207e-05
4.04904e-05
3.99005e-05
3.92523e-05
3.85474e-05
3.77876e-05
3.69755e-05
3.61136e-05
3.52051e-05
3.42535e-05
3.32626e-05
3.22364e-05
3.11793e-05
3.00958e-05
2.89907e-05
2.78689e-05
2.67352e-05
2.55944e-05
2.44515e-05
2.33112e-05
2.21778e-05
2.10559e-05
1.99495e-05
1.88622e-05
1.77975e-05
1.67586e-05
1.5748e-05
1.47682e-05
1.3821e-05
1.29082e-05
1.20308e-05
1.11898e-05
1.03859e-05
9.61916e-06
8.88978e-06
8.19756e-06
7.54215e-06
6.92306e-06
6.33969e-06
5.79145e-06
5.27773e-06
4.79797e-06
4.35177e-06
3.93892e-06
3.55953e-06
3.21415e-06
2.90395e-06
2.63097e-06
2.39853e-06
2.21183e-06
2.07919e-06
2.01434e-06
2.04162e-06
2.2098e-06
2.63684e-06
3.71078e-06
7.79418e-06
2.10825e-05
1.00459e-05
7.11078e-06
5.88014e-06
5.30343e-06
5.06336e-06
5.02931e-06
5.13633e-06
5.34758e-06
5.64004e-06
5.99818e-06
6.41091e-06
6.86994e-06
7.36885e-06
7.90254e-06
8.46685e-06
9.0584e-06
9.67438e-06
1.03125e-05
1.09708e-05
1.16478e-05
1.23422e-05
1.30531e-05
1.37795e-05
1.45209e-05
1.52768e-05
1.60467e-05
1.68302e-05
1.7627e-05
1.84365e-05
1.92585e-05
2.00923e-05
2.09373e-05
2.17927e-05
2.26578e-05
2.35314e-05
2.44125e-05
2.52997e-05
2.61918e-05
2.70871e-05
2.7984e-05
2.88808e-05
2.97756e-05
3.06665e-05
3.15516e-05
3.24287e-05
3.3296e-05
3.41512e-05
3.49923e-05
3.58173e-05
3.6624e-05
3.74104e-05
3.81744e-05
3.89141e-05
3.96273e-05
4.03121e-05
4.09665e-05
4.15886e-05
4.21765e-05
4.27281e-05
4.32416e-05
4.3715e-05
4.41463e-05
4.45336e-05
4.48749e-05
4.51682e-05
4.54116e-05
4.5603e-05
4.57406e-05
4.58181e-05
4.58397e-05
4.58055e-05
4.57104e-05
4.5553e-05
4.5332e-05
4.50463e-05
4.46952e-05
4.42783e-05
4.37952e-05
4.32464e-05
4.26323e-05
4.19539e-05
4.12128e-05
4.04108e-05
3.95503e-05
3.86341e-05
3.76655e-05
3.66481e-05
3.55861e-05
3.4484e-05
3.33465e-05
3.21787e-05
3.09859e-05
2.97736e-05
2.85472e-05
2.73123e-05
2.60745e-05
2.48391e-05
2.36112e-05
2.23959e-05
2.11978e-05
2.00211e-05
1.88698e-05
1.77474e-05
1.6657e-05
1.56013e-05
1.45823e-05
1.36018e-05
1.26613e-05
1.17616e-05
1.09033e-05
1.00867e-05
9.31174e-06
8.57809e-06
7.88529e-06
7.2327e-06
6.61959e-06
6.04518e-06
5.50875e-06
5.00964e-06
4.54737e-06
4.1217e-06
3.73278e-06
3.38125e-06
3.06848e-06
2.7968e-06
2.56997e-06
2.39391e-06
2.27802e-06
2.23787e-06
2.30106e-06
2.52373e-06
3.04192e-06
4.3057e-06
9.0608e-06
2.44903e-05
1.1654e-05
8.21626e-06
6.74789e-06
6.03049e-06
5.69739e-06
5.59856e-06
5.65977e-06
5.83946e-06
6.11178e-06
6.45937e-06
6.86989e-06
7.33411e-06
7.84485e-06
8.3964e-06
8.98408e-06
9.60402e-06
1.0253e-05
1.09284e-05
1.16279e-05
1.23497e-05
1.30923e-05
1.38543e-05
1.46348e-05
1.54329e-05
1.62477e-05
1.70788e-05
1.79253e-05
1.87869e-05
1.96627e-05
2.05521e-05
2.14544e-05
2.23687e-05
2.3294e-05
2.42292e-05
2.5173e-05
2.61241e-05
2.7081e-05
2.8042e-05
2.90054e-05
2.99694e-05
3.0932e-05
3.18913e-05
3.28453e-05
3.37919e-05
3.47289e-05
3.56544e-05
3.65662e-05
3.74623e-05
3.83407e-05
3.91993e-05
4.00362e-05
4.08494e-05
4.1637e-05
4.23971e-05
4.31279e-05
4.38275e-05
4.44939e-05
4.51254e-05
4.572e-05
4.62757e-05
4.67906e-05
4.72627e-05
4.76899e-05
4.807e-05
4.84009e-05
4.86803e-05
4.89059e-05
4.90756e-05
4.91847e-05
4.92301e-05
4.92192e-05
4.91439e-05
4.90019e-05
4.87917e-05
4.85116e-05
4.81605e-05
4.77376e-05
4.72422e-05
4.66743e-05
4.60342e-05
4.53227e-05
4.45411e-05
4.36912e-05
4.27753e-05
4.17964e-05
4.07578e-05
3.96636e-05
3.85181e-05
3.73263e-05
3.60934e-05
3.48252e-05
3.35274e-05
3.22063e-05
3.08681e-05
2.95192e-05
2.81658e-05
2.6814e-05
2.54699e-05
2.41392e-05
2.28273e-05
2.1539e-05
2.02791e-05
1.90516e-05
1.786e-05
1.67073e-05
1.55963e-05
1.45287e-05
1.35063e-05
1.253e-05
1.16005e-05
1.07179e-05
9.88231e-06
9.09318e-06
8.34991e-06
7.6517e-06
6.99765e-06
6.3868e-06
5.81824e-06
5.29118e-06
4.80499e-06
4.35938e-06
3.95446e-06
3.59092e-06
3.27025e-06
2.99502e-06
2.76942e-06
2.60002e-06
2.4973e-06
2.47867e-06
2.57518e-06
2.85054e-06
3.45945e-06
4.91566e-06
1.03573e-05
2.8102e-05
1.33592e-05
9.39109e-06
7.67433e-06
6.81247e-06
6.38621e-06
6.22487e-06
6.24411e-06
6.39728e-06
6.6554e-06
6.99915e-06
7.41479e-06
7.89205e-06
8.42291e-06
9.00097e-06
9.62096e-06
1.02785e-05
1.09699e-05
1.1692e-05
1.24424e-05
1.32186e-05
1.4019e-05
1.4842e-05
1.56861e-05
1.65504e-05
1.74338e-05
1.83353e-05
1.92542e-05
2.01895e-05
2.11405e-05
2.21061e-05
2.30853e-05
2.4077e-05
2.508e-05
2.60929e-05
2.71141e-05
2.81421e-05
2.91752e-05
3.02114e-05
3.12488e-05
3.22856e-05
3.33195e-05
3.43485e-05
3.53705e-05
3.63834e-05
3.73852e-05
3.83736e-05
3.93467e-05
4.03026e-05
4.12392e-05
4.21548e-05
4.30474e-05
4.39153e-05
4.47566e-05
4.55697e-05
4.63528e-05
4.71041e-05
4.78217e-05
4.8504e-05
4.91489e-05
4.97546e-05
5.03189e-05
5.08396e-05
5.13147e-05
5.17415e-05
5.21179e-05
5.2441e-05
5.27085e-05
5.29174e-05
5.3065e-05
5.3143e-05
5.31592e-05
5.31095e-05
5.29883e-05
5.27934e-05
5.25228e-05
5.21749e-05
5.17484e-05
5.12424e-05
5.06562e-05
4.99901e-05
4.92444e-05
4.84203e-05
4.75195e-05
4.65443e-05
4.54976e-05
4.43831e-05
4.32048e-05
4.19676e-05
4.06767e-05
3.93379e-05
3.79576e-05
3.65422e-05
3.50986e-05
3.3634e-05
3.21554e-05
3.067e-05
2.91849e-05
2.77069e-05
2.62426e-05
2.47983e-05
2.33798e-05
2.19924e-05
2.06408e-05
1.93293e-05
1.80615e-05
1.68403e-05
1.56682e-05
1.4547e-05
1.34779e-05
1.24617e-05
1.14986e-05
1.05885e-05
9.73089e-06
8.92506e-06
8.17002e-06
7.46467e-06
6.80785e-06
6.19844e-06
5.63546e-06
5.11812e-06
4.64599e-06
4.2191e-06
3.83815e-06
3.50468e-06
3.22149e-06
2.99312e-06
2.82676e-06
2.73398e-06
2.73408e-06
2.86163e-06
3.18809e-06
3.88729e-06
5.53802e-06
1.16783e-05
3.19234e-05
1.51639e-05
1.06362e-05
8.65913e-06
7.6479e-06
7.12735e-06
6.90475e-06
6.88505e-06
7.01593e-06
7.26511e-06
7.61108e-06
8.03856e-06
8.5361e-06
9.09478e-06
9.70739e-06
1.0368e-05
1.10716e-05
1.18141e-05
1.25918e-05
1.34017e-05
1.42413e-05
1.51083e-05
1.60008e-05
1.69173e-05
1.78562e-05
1.88164e-05
1.97966e-05
2.07956e-05
2.18124e-05
2.28459e-05
2.38947e-05
2.49576e-05
2.60331e-05
2.71198e-05
2.82159e-05
2.93199e-05
3.04297e-05
3.15434e-05
3.26589e-05
3.37743e-05
3.48873e-05
3.59957e-05
3.70975e-05
3.81904e-05
3.92724e-05
4.03414e-05
4.13954e-05
4.24325e-05
4.34509e-05
4.44488e-05
4.54244e-05
4.6376e-05
4.73022e-05
4.82011e-05
4.90713e-05
4.99111e-05
5.07188e-05
5.14927e-05
5.2231e-05
5.29318e-05
5.35929e-05
5.42123e-05
5.47877e-05
5.53164e-05
5.5796e-05
5.62237e-05
5.65965e-05
5.69114e-05
5.71654e-05
5.73554e-05
5.74743e-05
5.75206e-05
5.7501e-05
5.7405e-05
5.72296e-05
5.69723e-05
5.6631e-05
5.62039e-05
5.56897e-05
5.50875e-05
5.43969e-05
5.36181e-05
5.2752e-05
5.18002e-05
5.07648e-05
4.96488e-05
4.84557e-05
4.71901e-05
4.58569e-05
4.44617e-05
4.30109e-05
4.15112e-05
3.99699e-05
3.83946e-05
3.67931e-05
3.51735e-05
3.35438e-05
3.19121e-05
3.02862e-05
2.86738e-05
2.70819e-05
2.55173e-05
2.39863e-05
2.24944e-05
2.10467e-05
1.96473e-05
1.83e-05
1.70074e-05
1.57719e-05
1.45951e-05
1.34777e-05
1.24203e-05
1.14227e-05
1.04845e-05
9.60459e-06
8.78202e-06
8.01547e-06
7.30355e-06
6.64492e-06
6.03838e-06
5.48292e-06
4.97796e-06
4.5234e-06
4.11987e-06
3.76895e-06
3.47359e-06
3.23865e-06
3.07195e-06
2.9861e-06
3.00228e-06
3.1588e-06
3.53488e-06
4.32391e-06
6.17082e-06
1.30199e-05
3.59611e-05
1.70711e-05
1.19529e-05
9.70264e-06
8.53622e-06
7.91942e-06
7.63605e-06
7.57983e-06
7.6921e-06
7.93709e-06
8.2909e-06
8.73652e-06
9.26121e-06
9.85499e-06
1.05098e-05
1.12189e-05
1.19767e-05
1.27783e-05
1.36198e-05
1.44975e-05
1.54085e-05
1.63501e-05
1.73201e-05
1.83166e-05
1.93377e-05
2.03819e-05
2.14477e-05
2.25336e-05
2.36382e-05
2.47601e-05
2.58977e-05
2.70494e-05
2.82135e-05
2.93882e-05
3.05715e-05
3.17616e-05
3.29562e-05
3.41531e-05
3.53503e-05
3.65454e-05
3.77362e-05
3.89205e-05
4.0096e-05
4.12607e-05
4.24126e-05
4.35496e-05
4.467e-05
4.57719e-05
4.68538e-05
4.79139e-05
4.89508e-05
4.9963e-05
5.09491e-05
5.19077e-05
5.28372e-05
5.37362e-05
5.4603e-05
5.54361e-05
5.62335e-05
5.69933e-05
5.77134e-05
5.83915e-05
5.90249e-05
5.96111e-05
6.01471e-05
6.06298e-05
6.1056e-05
6.14221e-05
6.17247e-05
6.19601e-05
6.21243e-05
6.22061e-05
6.22179e-05
6.2151e-05
6.19987e-05
6.17584e-05
6.14274e-05
6.10034e-05
6.04847e-05
5.98699e-05
5.91582e-05
5.83496e-05
5.74446e-05
5.64445e-05
5.53512e-05
5.41677e-05
5.28976e-05
5.15453e-05
5.0116e-05
4.86157e-05
4.7051e-05
4.54292e-05
4.37581e-05
4.20461e-05
4.03017e-05
3.85339e-05
3.67517e-05
3.49641e-05
3.31799e-05
3.14079e-05
2.96562e-05
2.79327e-05
2.62446e-05
2.45984e-05
2.30001e-05
2.14546e-05
1.99664e-05
1.85389e-05
1.71748e-05
1.58761e-05
1.46441e-05
1.34793e-05
1.23817e-05
1.13508e-05
1.03858e-05
9.48522e-06
8.64775e-06
7.87176e-06
7.15566e-06
6.498e-06
5.89756e-06
5.35353e-06
4.86565e-06
4.43444e-06
4.06148e-06
3.74981e-06
3.5046e-06
3.33424e-06
3.25241e-06
3.28217e-06
3.46565e-06
3.88991e-06
4.76827e-06
6.81271e-06
1.43792e-05
4.02221e-05
1.90836e-05
1.33429e-05
1.08056e-05
9.47742e-06
8.76175e-06
8.41761e-06
8.32677e-06
8.42371e-06
8.66894e-06
9.03589e-06
9.50568e-06
1.00641e-05
1.07e-05
1.14044e-05
1.21695e-05
1.29891e-05
1.38578e-05
1.47707e-05
1.57238e-05
1.67137e-05
1.77373e-05
1.8792e-05
1.98753e-05
2.09851e-05
2.21196e-05
2.32768e-05
2.44551e-05
2.56526e-05
2.68675e-05
2.8098e-05
2.93422e-05
3.0598e-05
3.18634e-05
3.31362e-05
3.4414e-05
3.56946e-05
3.69757e-05
3.82548e-05
3.95297e-05
4.0798e-05
4.20575e-05
4.33061e-05
4.45417e-05
4.57624e-05
4.69664e-05
4.81521e-05
4.93178e-05
5.04622e-05
5.15839e-05
5.26816e-05
5.3754e-05
5.47999e-05
5.5818e-05
5.6807e-05
5.77656e-05
5.86921e-05
5.9585e-05
6.04423e-05
6.12621e-05
6.20422e-05
6.27799e-05
6.34726e-05
6.41174e-05
6.4711e-05
6.52501e-05
6.5731e-05
6.61499e-05
6.65028e-05
6.67858e-05
6.69951e-05
6.71194e-05
6.71619e-05
6.71273e-05
6.70017e-05
6.6782e-05
6.64653e-05
6.60489e-05
6.55304e-05
6.49082e-05
6.41809e-05
6.33481e-05
6.24099e-05
6.13673e-05
6.02219e-05
5.89766e-05
5.76347e-05
5.62005e-05
5.46795e-05
5.30775e-05
5.14017e-05
4.96595e-05
4.78594e-05
4.60102e-05
4.41213e-05
4.22024e-05
4.02634e-05
3.83143e-05
3.63651e-05
3.44255e-05
3.25049e-05
3.06123e-05
2.8756e-05
2.69436e-05
2.51822e-05
2.34777e-05
2.18353e-05
2.02594e-05
1.87533e-05
1.73195e-05
1.59597e-05
1.46748e-05
1.3465e-05
1.23299e-05
1.12685e-05
1.02796e-05
9.36147e-06
8.51237e-06
7.73047e-06
7.01406e-06
6.36167e-06
5.77224e-06
5.24531e-06
4.78126e-06
4.38161e-06
4.04948e-06
3.79028e-06
3.61297e-06
3.53227e-06
3.57316e-06
3.7816e-06
4.25265e-06
5.2198e-06
7.46295e-06
1.57547e-05
4.47133e-05
2.12046e-05
1.48079e-05
1.19689e-05
1.04718e-05
9.65418e-06
9.24883e-06
9.12494e-06
9.20956e-06
9.4592e-06
9.84441e-06
1.03442e-05
1.09428e-05
1.16277e-05
1.23887e-05
1.32172e-05
1.41061e-05
1.5049e-05
1.60407e-05
1.70765e-05
1.81522e-05
1.92645e-05
2.04101e-05
2.15863e-05
2.27905e-05
2.40205e-05
2.5274e-05
2.65489e-05
2.7843e-05
2.91542e-05
3.04804e-05
3.18192e-05
3.31684e-05
3.45256e-05
3.58882e-05
3.72538e-05
3.862e-05
3.99841e-05
4.13438e-05
4.26967e-05
4.40404e-05
4.53728e-05
4.66919e-05
4.79956e-05
4.92824e-05
5.05506e-05
5.17988e-05
5.30256e-05
5.42299e-05
5.54106e-05
5.65665e-05
5.76968e-05
5.88002e-05
5.98758e-05
6.09223e-05
6.19385e-05
6.29229e-05
6.38738e-05
6.47893e-05
6.56674e-05
6.65057e-05
6.73015e-05
6.8052e-05
6.8754e-05
6.94039e-05
6.99983e-05
7.0533e-05
7.1004e-05
7.1407e-05
7.17378e-05
7.1992e-05
7.21614e-05
7.22363e-05
7.22354e-05
7.21396e-05
7.19445e-05
7.16468e-05
7.12433e-05
7.07312e-05
7.01084e-05
6.9373e-05
6.85241e-05
6.75614e-05
6.64854e-05
6.52973e-05
6.39995e-05
6.25951e-05
6.10884e-05
5.94843e-05
5.7789e-05
5.60094e-05
5.41534e-05
5.22296e-05
5.02474e-05
4.82168e-05
4.61481e-05
4.40522e-05
4.19401e-05
3.98226e-05
3.77109e-05
3.56153e-05
3.35462e-05
3.1513e-05
2.95248e-05
2.75897e-05
2.57147e-05
2.39062e-05
2.21694e-05
2.05086e-05
1.89269e-05
1.74266e-05
1.60091e-05
1.4675e-05
1.34239e-05
1.22551e-05
1.11672e-05
1.01585e-05
9.22701e-06
8.37074e-06
7.5877e-06
6.87616e-06
6.23478e-06
5.66287e-06
5.16064e-06
4.7295e-06
4.37261e-06
4.09562e-06
3.90799e-06
3.8255e-06
3.87506e-06
4.10649e-06
4.62294e-06
5.67834e-06
8.12138e-06
1.71462e-05
4.94412e-05
2.34371e-05
1.63499e-05
1.31938e-05
1.152e-05
1.05969e-05
1.01296e-05
9.97393e-06
1.0049e-05
1.03071e-05
1.07156e-05
1.12512e-05
1.18962e-05
1.26368e-05
1.34614e-05
1.43604e-05
1.53256e-05
1.63499e-05
1.74272e-05
1.85521e-05
1.97201e-05
2.0927e-05
2.21692e-05
2.34435e-05
2.47468e-05
2.60765e-05
2.74299e-05
2.88044e-05
3.01977e-05
3.16072e-05
3.30303e-05
3.44644e-05
3.5907e-05
3.73553e-05
3.88066e-05
4.02584e-05
4.17078e-05
4.31523e-05
4.45895e-05
4.60168e-05
4.74322e-05
4.88334e-05
5.02186e-05
5.15862e-05
5.29345e-05
5.42623e-05
5.55684e-05
5.68517e-05
5.81113e-05
5.93464e-05
6.05561e-05
6.17397e-05
6.28963e-05
6.4025e-05
6.51247e-05
6.61941e-05
6.7232e-05
6.82365e-05
6.92059e-05
7.01379e-05
7.10301e-05
7.18797e-05
7.26837e-05
7.34388e-05
7.41413e-05
7.47873e-05
7.53727e-05
7.58931e-05
7.6344e-05
7.67209e-05
7.70188e-05
7.72325e-05
7.73472e-05
7.73762e-05
7.73138e-05
7.71477e-05
7.68743e-05
7.64901e-05
7.59921e-05
7.53773e-05
7.46436e-05
7.37894e-05
7.28138e-05
7.17166e-05
7.04987e-05
6.91618e-05
6.77085e-05
6.61426e-05
6.44688e-05
6.26929e-05
6.08218e-05
5.88632e-05
5.6826e-05
5.47198e-05
5.2555e-05
5.03425e-05
4.8094e-05
4.58212e-05
4.35362e-05
4.12511e-05
3.89777e-05
3.67275e-05
3.45114e-05
3.23398e-05
3.02221e-05
2.81667e-05
2.61813e-05
2.42721e-05
2.24445e-05
2.07026e-05
1.90494e-05
1.7487e-05
1.60162e-05
1.46373e-05
1.33496e-05
1.21518e-05
1.10423e-05
1.00188e-05
9.0792e-06
8.22127e-06
7.44299e-06
6.74277e-06
6.11965e-06
5.57362e-06
5.10596e-06
4.71983e-06
4.42106e-06
4.21964e-06
4.13234e-06
4.18806e-06
4.44048e-06
5.00096e-06
6.14414e-06
8.78838e-06
1.85545e-05
5.44122e-05
2.57839e-05
1.79704e-05
1.44812e-05
1.26226e-05
1.15902e-05
1.106e-05
1.08737e-05
1.0942e-05
1.12124e-05
1.16491e-05
1.22261e-05
1.29238e-05
1.37266e-05
1.46216e-05
1.55979e-05
1.66462e-05
1.77585e-05
1.89279e-05
2.01482e-05
2.14141e-05
2.2721e-05
2.40646e-05
2.54411e-05
2.68472e-05
2.82797e-05
2.97355e-05
3.12116e-05
3.27051e-05
3.42133e-05
3.57331e-05
3.72616e-05
3.8796e-05
4.03333e-05
4.18706e-05
4.3405e-05
4.49338e-05
4.64544e-05
4.79641e-05
4.94607e-05
5.09421e-05
5.24064e-05
5.38518e-05
5.5277e-05
5.66806e-05
5.80616e-05
5.94191e-05
6.07524e-05
6.20608e-05
6.33438e-05
6.46007e-05
6.5831e-05
6.70341e-05
6.82091e-05
6.93551e-05
7.04709e-05
7.15552e-05
7.26064e-05
7.36225e-05
7.46013e-05
7.55403e-05
7.64368e-05
7.72875e-05
7.80891e-05
7.88379e-05
7.95298e-05
8.01606e-05
8.07258e-05
8.12208e-05
8.16409e-05
8.19811e-05
8.22363e-05
8.23938e-05
8.24536e-05
8.24272e-05
8.22945e-05
8.20515e-05
8.16943e-05
8.12193e-05
8.06232e-05
7.99031e-05
7.90567e-05
7.80826e-05
7.69798e-05
7.57484e-05
7.43894e-05
7.29048e-05
7.12975e-05
6.95718e-05
6.77328e-05
6.57871e-05
6.37422e-05
6.16067e-05
5.93902e-05
5.71034e-05
5.47577e-05
5.23652e-05
4.99386e-05
4.74908e-05
4.50349e-05
4.25841e-05
4.01513e-05
3.77488e-05
3.53885e-05
3.30813e-05
3.08372e-05
2.86652e-05
2.65731e-05
2.45674e-05
2.26533e-05
2.08349e-05
1.91151e-05
1.74954e-05
1.59765e-05
1.45581e-05
1.32391e-05
1.20178e-05
1.08922e-05
9.8598e-06
8.91821e-06
8.06516e-06
7.29875e-06
6.61776e-06
6.02193e-06
5.51239e-06
5.09225e-06
4.7675e-06
4.54862e-06
4.45338e-06
4.51267e-06
4.78405e-06
5.38722e-06
6.61784e-06
9.46485e-06
1.99814e-05
5.96318e-05
2.82475e-05
1.9671e-05
1.58322e-05
1.37803e-05
1.26345e-05
1.20402e-05
1.18244e-05
1.18884e-05
1.21752e-05
1.26448e-05
1.32689e-05
1.40254e-05
1.48969e-05
1.58688e-05
1.69291e-05
1.8067e-05
1.92736e-05
2.0541e-05
2.18621e-05
2.32311e-05
2.46424e-05
2.60913e-05
2.75735e-05
2.9085e-05
3.06222e-05
3.21816e-05
3.37597e-05
3.53534e-05
3.69592e-05
3.8574e-05
4.01945e-05
4.18176e-05
4.344e-05
4.50588e-05
4.66708e-05
4.82734e-05
4.98638e-05