/*--------------------------------*- C++ -*----------------------------------*\
  =========                 |
  \\      /  F ield         | OpenFOAM: The Open Source CFD Toolbox
   \\    /   O peration     | Website:  https://openfoam.org
    \\  /    A nd           | Version:  12
     \\/     M anipulation  |
\*---------------------------------------------------------------------------*/
FoamFile
{
    format      ascii;
    class       volScalarField;
    location    "4.5";
    object      k;
}
// * * * * * * * * * * * * * * * * * * * * * * * * * * * * * * * * * * * * * //

dimensions      [0 2 -2 0 0 0 0];

internalField   nonuniform List<scalar> 
18225
(
7.25288e-11
3.62453e-10
7.93219e-10
1.31049e-09
1.89005e-09
2.51759e-09
3.183e-09
3.87844e-09
4.59752e-09
5.3349e-09
6.08607e-09
6.84724e-09
7.61518e-09
8.38721e-09
9.16116e-09
9.93527e-09
1.07082e-08
1.1479e-08
1.22471e-08
1.30121e-08
1.37739e-08
1.45328e-08
1.52891e-08
1.60433e-08
1.67962e-08
1.75484e-08
1.83008e-08
1.90542e-08
1.98094e-08
2.05673e-08
2.13285e-08
2.20937e-08
2.28635e-08
2.36384e-08
2.44185e-08
2.52043e-08
2.59956e-08
2.67925e-08
2.75947e-08
2.84018e-08
2.92134e-08
3.00288e-08
3.08473e-08
3.16678e-08
3.24895e-08
3.3311e-08
3.41311e-08
3.49484e-08
3.57613e-08
3.65681e-08
3.7367e-08
3.81561e-08
3.89333e-08
3.96963e-08
4.04431e-08
4.1171e-08
4.18776e-08
4.25604e-08
4.32165e-08
4.38432e-08
4.44377e-08
4.4997e-08
4.55182e-08
4.59982e-08
4.64341e-08
4.68228e-08
4.71615e-08
4.74471e-08
4.76772e-08
4.78491e-08
4.79593e-08
4.8006e-08
4.79892e-08
4.79057e-08
4.77538e-08
4.75321e-08
4.72396e-08
4.68759e-08
4.64407e-08
4.59345e-08
4.53578e-08
4.47119e-08
4.39984e-08
4.32193e-08
4.23771e-08
4.14747e-08
4.05155e-08
3.95032e-08
3.84418e-08
3.73357e-08
3.61898e-08
3.50088e-08
3.37979e-08
3.25623e-08
3.13075e-08
3.00387e-08
2.87613e-08
2.74805e-08
2.62015e-08
2.49292e-08
2.36682e-08
2.24232e-08
2.1198e-08
1.99967e-08
1.88224e-08
1.76784e-08
1.65673e-08
1.54913e-08
1.44523e-08
1.34516e-08
1.24906e-08
1.15697e-08
1.06894e-08
9.84975e-09
9.05049e-09
8.29101e-09
7.57055e-09
6.88811e-09
6.24251e-09
5.63245e-09
5.05649e-09
4.51316e-09
4.00095e-09
3.51837e-09
3.06402e-09
2.63661e-09
2.23507e-09
1.85861e-09
1.50685e-09
1.17994e-09
8.78865e-10
6.05835e-10
3.65279e-10
1.66553e-10
3.33108e-11
3.62671e-10
3.12038e-09
7.05051e-09
1.17289e-08
1.69577e-08
2.26143e-08
2.86094e-08
3.48734e-08
4.13492e-08
4.79889e-08
5.47519e-08
6.1604e-08
6.85164e-08
7.54652e-08
8.24306e-08
8.93972e-08
9.63529e-08
1.03289e-07
1.102e-07
1.17083e-07
1.23938e-07
1.30765e-07
1.3757e-07
1.44355e-07
1.51129e-07
1.57896e-07
1.64665e-07
1.71443e-07
1.78237e-07
1.85055e-07
1.91904e-07
1.98788e-07
2.05714e-07
2.12685e-07
2.19705e-07
2.26774e-07
2.33894e-07
2.41064e-07
2.48282e-07
2.55545e-07
2.62847e-07
2.70185e-07
2.77549e-07
2.84933e-07
2.92327e-07
2.9972e-07
3.071e-07
3.14455e-07
3.21771e-07
3.29032e-07
3.36222e-07
3.43324e-07
3.50318e-07
3.57187e-07
3.63908e-07
3.7046e-07
3.76821e-07
3.82967e-07
3.88874e-07
3.94516e-07
3.99868e-07
4.04904e-07
4.09597e-07
4.1392e-07
4.17845e-07
4.21347e-07
4.24398e-07
4.26972e-07
4.29041e-07
4.30582e-07
4.31567e-07
4.31979e-07
4.31822e-07
4.31064e-07
4.2969e-07
4.27688e-07
4.25049e-07
4.21769e-07
4.17846e-07
4.13284e-07
4.08089e-07
4.02271e-07
3.95845e-07
3.88829e-07
3.81246e-07
3.73122e-07
3.64487e-07
3.55375e-07
3.45821e-07
3.35867e-07
3.25554e-07
3.14926e-07
3.0403e-07
2.92912e-07
2.81621e-07
2.70205e-07
2.58711e-07
2.47188e-07
2.35681e-07
2.24235e-07
2.12891e-07
2.0169e-07
1.90668e-07
1.79861e-07
1.69297e-07
1.59006e-07
1.49011e-07
1.39331e-07
1.29985e-07
1.20984e-07
1.12338e-07
1.04055e-07
9.61361e-08
8.85826e-08
8.13918e-08
7.45591e-08
6.80778e-08
6.19387e-08
5.61313e-08
5.06437e-08
4.54631e-08
4.05761e-08
3.5969e-08
3.16284e-08
2.75417e-08
2.36972e-08
2.00852e-08
1.66984e-08
1.35332e-08
1.05909e-08
7.87976e-09
5.4187e-09
3.24489e-09
1.43314e-09
1.66483e-10
7.95652e-10
7.06744e-09
1.61048e-08
2.6904e-08
3.89875e-08
5.20624e-08
6.59197e-08
8.03969e-08
9.53617e-08
1.10704e-07
1.26329e-07
1.42159e-07
1.58128e-07
1.74179e-07
1.90267e-07
2.06357e-07
2.22421e-07
2.38439e-07
2.54399e-07
2.70293e-07
2.86121e-07
3.01887e-07
3.17599e-07
3.33269e-07
3.4891e-07
3.64538e-07
3.80171e-07
3.95825e-07
4.11519e-07
4.27269e-07
4.4309e-07
4.58996e-07
4.74999e-07
4.91107e-07
5.07329e-07
5.23667e-07
5.40123e-07
5.56695e-07
5.73379e-07
5.90166e-07
6.07047e-07
6.24007e-07
6.41031e-07
6.58098e-07
6.75188e-07
6.92275e-07
7.09332e-07
7.26329e-07
7.43233e-07
7.60009e-07
7.76619e-07
7.93022e-07
8.09175e-07
8.25034e-07
8.4055e-07
8.55672e-07
8.7035e-07
8.84527e-07
8.98148e-07
9.11155e-07
9.23488e-07
9.35087e-07
9.4589e-07
9.55835e-07
9.6486e-07
9.72903e-07
9.79903e-07
9.858e-07
9.90535e-07
9.94052e-07
9.96282e-07
9.97186e-07
9.96785e-07
9.94995e-07
9.9178e-07
9.87115e-07
9.8098e-07
9.73365e-07
9.64267e-07
9.53695e-07
9.41662e-07
9.28193e-07
9.13323e-07
8.97093e-07
8.79556e-07
8.60773e-07
8.40812e-07
8.19752e-07
7.97678e-07
7.74681e-07
7.50857e-07
7.26311e-07
7.01148e-07
6.75477e-07
6.49408e-07
6.23054e-07
5.96525e-07
5.69929e-07
5.43373e-07
5.16959e-07
4.90784e-07
4.64941e-07
4.39515e-07
4.14584e-07
3.90219e-07
3.66482e-07
3.4343e-07
3.21108e-07
2.99554e-07
2.788e-07
2.58866e-07
2.39768e-07
2.21512e-07
2.041e-07
1.87525e-07
1.71777e-07
1.56839e-07
1.4269e-07
1.29305e-07
1.16658e-07
1.04718e-07
9.34551e-08
8.28369e-08
7.28327e-08
6.3413e-08
5.45511e-08
4.62243e-08
3.8416e-08
3.11177e-08
2.43324e-08
1.80796e-08
1.24046e-08
7.39716e-09
3.23948e-09
3.64496e-10
1.32025e-09
1.18078e-08
2.70197e-08
4.52652e-08
6.57173e-08
8.7865e-08
1.11345e-07
1.35879e-07
1.61239e-07
1.87237e-07
2.13714e-07
2.40535e-07
2.67588e-07
2.94779e-07
3.22031e-07
3.49284e-07
3.76492e-07
4.03619e-07
4.30647e-07
4.57563e-07
4.84367e-07
5.11065e-07
5.37673e-07
5.6421e-07
5.907e-07
6.17171e-07
6.43651e-07
6.70171e-07
6.96761e-07
7.23448e-07
7.5026e-07
7.77218e-07
8.04343e-07
8.31651e-07
8.59152e-07
8.86854e-07
9.14757e-07
9.42858e-07
9.71149e-07
9.99615e-07
1.02824e-06
1.057e-06
1.08586e-06
1.1148e-06
1.14377e-06
1.17273e-06
1.20164e-06
1.23044e-06
1.25908e-06
1.28749e-06
1.31562e-06
1.34339e-06
1.37073e-06
1.39756e-06
1.4238e-06
1.44937e-06
1.47418e-06
1.49813e-06
1.52114e-06
1.54309e-06
1.5639e-06
1.58345e-06
1.60165e-06
1.61839e-06
1.63357e-06
1.64708e-06
1.65882e-06
1.66869e-06
1.6766e-06
1.68244e-06
1.68609e-06
1.6875e-06
1.68672e-06
1.68358e-06
1.67803e-06
1.67002e-06
1.65953e-06
1.64653e-06
1.63103e-06
1.61304e-06
1.59258e-06
1.56969e-06
1.54443e-06
1.51688e-06
1.48712e-06
1.45526e-06
1.42141e-06
1.3857e-06
1.34828e-06
1.30931e-06
1.26895e-06
1.22737e-06
1.18475e-06
1.14128e-06
1.09714e-06
1.05253e-06
1.00763e-06
9.62623e-07
9.17692e-07
8.73009e-07
8.28738e-07
7.85034e-07
7.42042e-07
6.99894e-07
6.58709e-07
6.18593e-07
5.79638e-07
5.41923e-07
5.05512e-07
4.70455e-07
4.36788e-07
4.04537e-07
3.73713e-07
3.44315e-07
3.16335e-07
2.89752e-07
2.64538e-07
2.40658e-07
2.1807e-07
1.96727e-07
1.76578e-07
1.57571e-07
1.39653e-07
1.22771e-07
1.06874e-07
9.19186e-08
7.78651e-08
6.46859e-08
5.23671e-08
4.09147e-08
3.03638e-08
2.07947e-08
1.23656e-08
5.39267e-09
6.02609e-10
1.91628e-09
1.71803e-08
3.9403e-08
6.61325e-08
9.61471e-08
1.28682e-07
1.63194e-07
1.99263e-07
2.36552e-07
2.74779e-07
3.13711e-07
3.53147e-07
3.92923e-07
4.32898e-07
4.72961e-07
5.13022e-07
5.53013e-07
5.92886e-07
6.32609e-07
6.72168e-07
7.11563e-07
7.50803e-07
7.89912e-07
8.28918e-07
8.67859e-07
9.06775e-07
9.4571e-07
9.84708e-07
1.02381e-06
1.06307e-06
1.10251e-06
1.14218e-06
1.18209e-06
1.22228e-06
1.26275e-06
1.30352e-06
1.34459e-06
1.38595e-06
1.42759e-06
1.46948e-06
1.5116e-06
1.55391e-06
1.59637e-06
1.63893e-06
1.68153e-06
1.72411e-06
1.76659e-06
1.8089e-06
1.85096e-06
1.89268e-06
1.93395e-06
1.97469e-06
2.01478e-06
2.0541e-06
2.09254e-06
2.12998e-06
2.16627e-06
2.2013e-06
2.23492e-06
2.26698e-06
2.29734e-06
2.32586e-06
2.35237e-06
2.37674e-06
2.3988e-06
2.41841e-06
2.43542e-06
2.44968e-06
2.46106e-06
2.46941e-06
2.47452e-06
2.47637e-06
2.47502e-06
2.4702e-06
2.46185e-06
2.4499e-06
2.43431e-06
2.41505e-06
2.39212e-06
2.36554e-06
2.33534e-06
2.3016e-06
2.26438e-06
2.22379e-06
2.17998e-06
2.13308e-06
2.08328e-06
2.03076e-06
1.97574e-06
1.91844e-06
1.85911e-06
1.798e-06
1.73538e-06
1.67152e-06
1.60669e-06
1.54118e-06
1.47526e-06
1.4092e-06
1.34326e-06
1.2777e-06
1.21276e-06
1.14866e-06
1.08563e-06
1.02384e-06
9.63483e-07
9.04703e-07
8.47638e-07
7.924e-07
7.39084e-07
6.8776e-07
6.38483e-07
5.91286e-07
5.46185e-07
5.0318e-07
4.62253e-07
4.23377e-07
3.86507e-07
3.5159e-07
3.18566e-07
2.87364e-07
2.5791e-07
2.30126e-07
2.03933e-07
1.79255e-07
1.56017e-07
1.34154e-07
1.13609e-07
9.43428e-08
7.63352e-08
5.95974e-08
4.41841e-08
3.02176e-08
1.79359e-08
7.80403e-09
8.69928e-10
2.57414e-09
2.31045e-08
5.30602e-08
8.9163e-08
1.29763e-07
1.73815e-07
2.20572e-07
2.69457e-07
3.20006e-07
3.71834e-07
4.24619e-07
4.78088e-07
5.32015e-07
5.86211e-07
6.40524e-07
6.94831e-07
7.49041e-07
8.03088e-07
8.56932e-07
9.10552e-07
9.63949e-07
1.01714e-06
1.07015e-06
1.12303e-06
1.17583e-06
1.22859e-06
1.28139e-06
1.33429e-06
1.38733e-06
1.44058e-06
1.4941e-06
1.54792e-06
1.60208e-06
1.65662e-06
1.71155e-06
1.76687e-06
1.8226e-06
1.87872e-06
1.93521e-06
1.99203e-06
2.04915e-06
2.10651e-06
2.16405e-06
2.22171e-06
2.2794e-06
2.33703e-06
2.39451e-06
2.45172e-06
2.50857e-06
2.56492e-06
2.62064e-06
2.6756e-06
2.72965e-06
2.78263e-06
2.83439e-06
2.88476e-06
2.93356e-06
2.98062e-06
3.02574e-06
3.06875e-06
3.10943e-06
3.14761e-06
3.18306e-06
3.21561e-06
3.24503e-06
3.27114e-06
3.29373e-06
3.31261e-06
3.3276e-06
3.33852e-06
3.34502e-06
3.34718e-06
3.34502e-06
3.33819e-06
3.3266e-06
3.31016e-06
3.2888e-06
3.26251e-06
3.23126e-06
3.1951e-06
3.15405e-06
3.10822e-06
3.0577e-06
3.00265e-06
2.94324e-06
2.87967e-06
2.81217e-06
2.74101e-06
2.66647e-06
2.58886e-06
2.50851e-06
2.42577e-06
2.341e-06
2.25456e-06
2.16684e-06
2.0782e-06
1.98902e-06
1.89967e-06
1.81051e-06
1.72189e-06
1.63412e-06
1.54751e-06
1.46236e-06
1.37893e-06
1.29744e-06
1.21811e-06
1.14111e-06
1.0666e-06
9.94702e-07
9.25511e-07
8.59097e-07
7.95501e-07
7.34745e-07
6.76825e-07
6.21717e-07
5.69378e-07
5.1975e-07
4.72758e-07
4.28317e-07
3.86333e-07
3.46704e-07
3.09323e-07
2.74085e-07
2.40884e-07
2.09621e-07
1.80207e-07
1.52567e-07
1.26648e-07
1.02425e-07
7.99174e-08
5.92012e-08
4.04468e-08
2.39781e-08
1.04191e-08
1.16011e-09
3.28884e-09
2.95376e-08
6.78895e-08
1.14177e-07
1.66291e-07
2.22886e-07
2.82993e-07
3.45863e-07
4.10889e-07
4.77572e-07
5.45491e-07
6.14296e-07
6.8369e-07
7.53429e-07
8.23317e-07
8.93195e-07
9.62945e-07
1.03248e-06
1.10176e-06
1.17074e-06
1.23944e-06
1.30788e-06
1.37609e-06
1.44413e-06
1.51207e-06
1.57998e-06
1.64794e-06
1.71602e-06
1.78431e-06
1.85287e-06
1.92177e-06
1.99107e-06
2.06081e-06
2.13102e-06
2.20174e-06
2.27295e-06
2.34467e-06
2.41688e-06
2.48953e-06
2.56259e-06
2.636e-06
2.70969e-06
2.78358e-06
2.85757e-06
2.93155e-06
3.00542e-06
3.07904e-06
3.15227e-06
3.22497e-06
3.29698e-06
3.36814e-06
3.43826e-06
3.50716e-06
3.57464e-06
3.64051e-06
3.70455e-06
3.76655e-06
3.82627e-06
3.88348e-06
3.93795e-06
3.98943e-06
4.03768e-06
4.08244e-06
4.12346e-06
4.16049e-06
4.19327e-06
4.22157e-06
4.24514e-06
4.26375e-06
4.27717e-06
4.28488e-06
4.28718e-06
4.28395e-06
4.27477e-06
4.25951e-06
4.23806e-06
4.21035e-06
4.17635e-06
4.13603e-06
4.08942e-06
4.03659e-06
3.97764e-06
3.91271e-06
3.84198e-06
3.76567e-06
3.68404e-06
3.59738e-06
3.50604e-06
3.41037e-06
3.31078e-06
3.20768e-06
3.10152e-06
2.99276e-06
2.88188e-06
2.76936e-06
2.65569e-06
2.54135e-06
2.42681e-06
2.31253e-06
2.19895e-06
2.08651e-06
1.97559e-06
1.86655e-06
1.75975e-06
1.65546e-06
1.55397e-06
1.4555e-06
1.36024e-06
1.26835e-06
1.17994e-06
1.09511e-06
1.01391e-06
9.36356e-07
8.62441e-07
7.92133e-07
7.25374e-07
6.62085e-07
6.0217e-07
5.45517e-07
4.92002e-07
4.41494e-07
3.93855e-07
3.48948e-07
3.06638e-07
2.66799e-07
2.29316e-07
1.94095e-07
1.61069e-07
1.30211e-07
1.01546e-07
7.51761e-08
5.13228e-08
3.04004e-08
1.31988e-08
1.4687e-09
4.05791e-09
3.64584e-08
8.38408e-08
1.41086e-07
2.05596e-07
2.75706e-07
3.50208e-07
4.28168e-07
5.08826e-07
5.91556e-07
6.75832e-07
7.61212e-07
8.47328e-07
9.33873e-07
1.0206e-06
1.10731e-06
1.19386e-06
1.28015e-06
1.3661e-06
1.4517e-06
1.53693e-06
1.62184e-06
1.70647e-06
1.7909e-06
1.8752e-06
1.95947e-06
2.0438e-06
2.12829e-06
2.21303e-06
2.29812e-06
2.38363e-06
2.46962e-06
2.55614e-06
2.64324e-06
2.73094e-06
2.81924e-06
2.90813e-06
2.99758e-06
3.08754e-06
3.17796e-06
3.26875e-06
3.35983e-06
3.45109e-06
3.5424e-06
3.63363e-06
3.72464e-06
3.81526e-06
3.90532e-06
3.99464e-06
4.08303e-06
4.17028e-06
4.25617e-06
4.34048e-06
4.42298e-06
4.50342e-06
4.58154e-06
4.65708e-06
4.72978e-06
4.79935e-06
4.86551e-06
4.92796e-06
4.98641e-06
5.04057e-06
5.09013e-06
5.13478e-06
5.17423e-06
5.20818e-06
5.23633e-06
5.25841e-06
5.27415e-06
5.28283e-06
5.28503e-06
5.28042e-06
5.26853e-06
5.24918e-06
5.22227e-06
5.18769e-06
5.14538e-06
5.09534e-06
5.03759e-06
4.9722e-06
4.89929e-06
4.81903e-06
4.73164e-06
4.63738e-06
4.53658e-06
4.42958e-06
4.31681e-06
4.1987e-06
4.07575e-06
3.94848e-06
3.81743e-06
3.68318e-06
3.54632e-06
3.40744e-06
3.26714e-06
3.12603e-06
2.98469e-06
2.84369e-06
2.70358e-06
2.56489e-06
2.42811e-06
2.29368e-06
2.16204e-06
2.03354e-06
1.90852e-06
1.78725e-06
1.66998e-06
1.55689e-06
1.44813e-06
1.34381e-06
1.24397e-06
1.14866e-06
1.05784e-06
9.71484e-07
8.89508e-07
8.11812e-07
7.38275e-07
6.68754e-07
6.03096e-07
5.41133e-07
4.82697e-07
4.27616e-07
3.75722e-07
3.2686e-07
2.80889e-07
2.37695e-07
1.97197e-07
1.59364e-07
1.2423e-07
9.19259e-08
6.27239e-08
3.71323e-08
1.61129e-08
1.7923e-09
4.88042e-09
4.38591e-08
1.00896e-07
1.69857e-07
2.47627e-07
3.322e-07
4.22118e-07
5.16247e-07
6.13665e-07
7.13607e-07
8.15433e-07
9.18605e-07
1.02267e-06
1.12726e-06
1.23206e-06
1.33685e-06
1.44143e-06
1.54569e-06
1.64954e-06
1.75294e-06
1.85591e-06
1.95848e-06
2.06071e-06
2.16268e-06
2.2645e-06
2.36628e-06
2.46813e-06
2.57017e-06
2.67251e-06
2.77525e-06
2.87848e-06
2.98226e-06
3.08667e-06
3.19174e-06
3.29748e-06
3.40389e-06
3.51096e-06
3.61863e-06
3.72685e-06
3.83553e-06
3.94457e-06
4.05386e-06
4.16325e-06
4.2726e-06
4.38175e-06
4.4905e-06
4.59868e-06
4.70606e-06
4.81245e-06
4.91759e-06
5.02126e-06
5.1232e-06
5.22314e-06
5.32081e-06
5.41594e-06
5.50821e-06
5.59734e-06
5.683e-06
5.76488e-06
5.84265e-06
5.91596e-06
5.98449e-06
6.04788e-06
6.10579e-06
6.15786e-06
6.20374e-06
6.24309e-06
6.27557e-06
6.30085e-06
6.31859e-06
6.32786e-06
6.32969e-06
6.32335e-06
6.30836e-06
6.28453e-06
6.2517e-06
6.20978e-06
6.15868e-06
6.09839e-06
6.02892e-06
5.95036e-06
5.86284e-06
5.76656e-06
5.66177e-06
5.54878e-06
5.42796e-06
5.29974e-06
5.16461e-06
5.02308e-06
4.87575e-06
4.72323e-06
4.56618e-06
4.40529e-06
4.24125e-06
4.07478e-06
3.90662e-06
3.73747e-06
3.56805e-06
3.39904e-06
3.23111e-06
3.0649e-06
2.90099e-06
2.73993e-06
2.58223e-06
2.42833e-06
2.27862e-06
2.13345e-06
1.9931e-06
1.8578e-06
1.72772e-06
1.60298e-06
1.48365e-06
1.36976e-06
1.26128e-06
1.15815e-06
1.06029e-06
9.67567e-07
8.79826e-07
7.96896e-07
7.18587e-07
6.44699e-07
5.75024e-07
5.09356e-07
4.47492e-07
3.89245e-07
3.34448e-07
2.82965e-07
2.34701e-07
1.89621e-07
1.4777e-07
1.09305e-07
7.45521e-08
4.41166e-08
1.91367e-08
2.12815e-09
5.7565e-09
5.17409e-08
1.19059e-07
2.00496e-07
2.92388e-07
3.92371e-07
4.98724e-07
6.10099e-07
7.254e-07
8.43718e-07
9.64288e-07
1.08646e-06
1.20971e-06
1.33357e-06
1.45769e-06
1.58177e-06
1.70561e-06
1.82904e-06
1.95198e-06
2.07438e-06
2.19624e-06
2.31761e-06
2.43857e-06
2.55922e-06
2.67966e-06
2.80005e-06
2.9205e-06
3.04115e-06
3.16212e-06
3.28354e-06
3.40549e-06
3.52806e-06
3.65131e-06
3.77526e-06
3.89994e-06
4.02533e-06
4.15139e-06
4.27805e-06
4.40525e-06
4.53285e-06
4.66075e-06
4.78879e-06
4.91681e-06
5.04463e-06
5.17204e-06
5.29884e-06
5.4248e-06
5.54967e-06
5.67321e-06
5.79515e-06
5.91521e-06
6.03311e-06
6.14855e-06
6.26123e-06
6.37081e-06
6.47698e-06
6.57939e-06
6.67769e-06
6.77152e-06
6.86052e-06
6.9443e-06
7.02249e-06
7.0947e-06
7.16053e-06
7.21958e-06
7.27146e-06
7.31578e-06
7.35215e-06
7.38019e-06
7.39945e-06
7.40887e-06
7.40998e-06
7.40149e-06
7.38298e-06
7.35424e-06
7.3151e-06
7.26542e-06
7.20511e-06
7.13414e-06
7.05253e-06
6.96037e-06
6.8578e-06
6.74503e-06
6.62236e-06
6.49014e-06
6.34879e-06
6.19879e-06
6.04071e-06
5.87515e-06
5.70279e-06
5.52434e-06
5.34057e-06
5.15226e-06
4.96026e-06
4.76538e-06
4.56848e-06
4.37041e-06
4.17199e-06
3.97403e-06
3.77733e-06
3.58262e-06
3.39061e-06
3.20195e-06
3.01722e-06
2.83696e-06
2.66164e-06
2.49166e-06
2.32735e-06
2.16899e-06
2.01678e-06
1.87085e-06
1.73129e-06
1.59813e-06
1.47134e-06
1.35085e-06
1.23654e-06
1.12825e-06
1.02582e-06
9.29026e-07
8.37646e-07
7.51442e-07
6.70166e-07
5.93573e-07
5.21425e-07
4.53502e-07
3.89606e-07
3.2958e-07
2.73315e-07
2.2077e-07
1.72001e-07
1.27193e-07
8.67276e-08
5.13066e-08
2.225e-08
2.47399e-09
6.68699e-09
6.0111e-08
1.38346e-07
2.33031e-07
3.39921e-07
4.56277e-07
5.80095e-07
7.09807e-07
8.44132e-07
9.82003e-07
1.12252e-06
1.26493e-06
1.40859e-06
1.55297e-06
1.69764e-06
1.84225e-06
1.98656e-06
2.13037e-06
2.27357e-06
2.41612e-06
2.55802e-06
2.69931e-06
2.84009e-06
2.98046e-06
3.12058e-06
3.26058e-06
3.40062e-06
3.54084e-06
3.68139e-06
3.8224e-06
3.96395e-06
4.10614e-06
4.24903e-06
4.39263e-06
4.53695e-06
4.68196e-06
4.82761e-06
4.9738e-06
5.12043e-06
5.26737e-06
5.41445e-06
5.5615e-06
5.70833e-06
5.85471e-06
6.00042e-06
6.14522e-06
6.28883e-06
6.43101e-06
6.57145e-06
6.70986e-06
6.84595e-06
6.97939e-06
7.10985e-06
7.237e-06
7.36048e-06
7.47994e-06
7.59501e-06
7.70531e-06
7.81044e-06
7.90999e-06
8.00356e-06
8.09073e-06
8.17107e-06
8.24415e-06
8.30952e-06
8.36675e-06
8.4154e-06
8.45505e-06
8.48528e-06
8.5054e-06
8.51446e-06
8.5144e-06
8.50327e-06
8.48079e-06
8.44672e-06
8.40086e-06
8.34306e-06
8.27321e-06
8.19127e-06
8.09725e-06
7.99124e-06
7.87338e-06
7.74393e-06
7.60319e-06
7.45155e-06
7.28947e-06
7.11752e-06
6.93629e-06
6.74649e-06
6.54887e-06
6.34423e-06
6.13345e-06
5.91742e-06
5.69708e-06
5.47339e-06
5.24732e-06
5.01983e-06
4.79188e-06
4.56441e-06
4.33833e-06
4.11449e-06
3.89372e-06
3.67676e-06
3.46431e-06
3.25698e-06
3.05534e-06
2.85983e-06
2.67087e-06
2.48876e-06
2.31374e-06
2.14599e-06
1.98559e-06
1.83258e-06
1.68693e-06
1.54854e-06
1.4173e-06
1.29301e-06
1.17547e-06
1.06442e-06
9.59618e-07
8.60769e-07
7.67589e-07
6.79792e-07
5.97103e-07
5.19264e-07
4.4605e-07
3.77277e-07
3.12821e-07
2.52638e-07
1.96791e-07
1.45495e-07
9.91855e-08
5.86644e-08
2.54364e-08
2.82799e-09
7.67314e-09
6.89814e-08
1.58785e-07
2.67509e-07
3.90296e-07
5.24007e-07
6.66348e-07
8.15512e-07
9.70027e-07
1.12866e-06
1.29036e-06
1.45425e-06
1.61959e-06
1.78574e-06
1.95222e-06
2.1186e-06
2.28459e-06
2.44997e-06
2.6146e-06
2.77843e-06
2.94146e-06
3.10374e-06
3.26536e-06
3.42647e-06
3.58722e-06
3.74777e-06
3.90828e-06
4.06893e-06
4.22987e-06
4.39123e-06
4.5531e-06
4.71559e-06
4.87872e-06
5.04252e-06
5.20697e-06
5.37203e-06
5.5376e-06
5.70359e-06
5.86985e-06
6.03622e-06
6.20251e-06
6.36851e-06
6.53399e-06
6.69871e-06
6.86241e-06
7.02481e-06
7.18563e-06
7.34456e-06
7.50129e-06
7.65552e-06
7.8069e-06
7.95509e-06
8.09976e-06
8.24052e-06
8.37701e-06
8.50886e-06
8.63565e-06
8.75699e-06
8.87245e-06
8.9816e-06
9.08401e-06
9.17921e-06
9.26674e-06
9.34615e-06
9.41695e-06
9.47866e-06
9.53082e-06
9.57294e-06
9.60459e-06
9.62476e-06
9.63308e-06
9.63112e-06
9.61681e-06
9.58987e-06
9.55005e-06
9.49712e-06
9.43092e-06
9.35131e-06
9.25824e-06
9.15171e-06
9.03181e-06
8.89871e-06
8.75264e-06
8.59395e-06
8.42305e-06
8.24045e-06
8.04674e-06
7.8426e-06
7.62878e-06
7.40612e-06
7.1755e-06
6.93788e-06
6.69426e-06
6.44569e-06
6.19324e-06
5.93799e-06
5.68102e-06
5.42343e-06
5.16627e-06
4.91057e-06
4.65731e-06
4.40743e-06
4.16179e-06
3.92118e-06
3.68632e-06
3.45784e-06
3.2363e-06
3.02215e-06
2.81576e-06
2.61741e-06
2.4273e-06
2.24555e-06
2.0722e-06
1.90721e-06
1.75049e-06
1.60189e-06
1.4612e-06
1.32818e-06
1.20255e-06
1.08401e-06
9.72231e-07
8.66887e-07
7.6765e-07
6.74202e-07
5.8625e-07
5.03536e-07
4.2585e-07
3.53051e-07
2.85089e-07
2.22036e-07
1.64134e-07
1.11874e-07
6.61595e-08
2.86828e-08
3.18869e-09
8.71657e-09
7.83666e-08
1.8041e-07
3.03987e-07
4.43595e-07
5.95676e-07
7.57626e-07
9.27395e-07
1.1033e-06
1.28393e-06
1.46808e-06
1.65474e-06
1.84304e-06
2.03226e-06
2.2218e-06
2.4112e-06
2.60009e-06
2.78822e-06
2.97542e-06
3.16163e-06
3.34684e-06
3.53111e-06
3.71455e-06
3.8973e-06
4.07954e-06
4.26145e-06
4.44322e-06
4.62501e-06
4.807e-06
4.9893e-06
5.17204e-06
5.35528e-06
5.53906e-06
5.72338e-06
5.90821e-06
6.09347e-06
6.27905e-06
6.46481e-06
6.65059e-06
6.83619e-06
7.02139e-06
7.20595e-06
7.38961e-06
7.57209e-06
7.75312e-06
7.93239e-06
8.10958e-06
8.28438e-06
8.45646e-06
8.62548e-06
8.79109e-06
8.95293e-06
9.11063e-06
9.26383e-06
9.41212e-06
9.55511e-06
9.69239e-06
9.82352e-06
9.94806e-06
1.00656e-05
1.01756e-05
1.02776e-05
1.03712e-05
1.04557e-05
1.05308e-05
1.0596e-05
1.06506e-05
1.06942e-05
1.07264e-05
1.07457e-05
1.07527e-05
1.07481e-05
1.07301e-05
1.06982e-05
1.06522e-05
1.05919e-05
1.05171e-05
1.04276e-05
1.03235e-05
1.02046e-05
1.0071e-05
9.92294e-06
9.76066e-06
9.58449e-06
9.39487e-06
9.19234e-06
8.97752e-06
8.75113e-06
8.51398e-06
8.26697e-06
8.01104e-06
7.74725e-06
7.47667e-06
7.20044e-06
6.91974e-06
6.63575e-06
6.34969e-06
6.06275e-06
5.77611e-06
5.49093e-06
5.2083e-06
4.92928e-06
4.65485e-06
4.38591e-06
4.12328e-06
3.86769e-06
3.61978e-06
3.38007e-06
3.149e-06
2.9269e-06
2.71402e-06
2.51048e-06
2.31636e-06
2.13162e-06
1.95617e-06
1.78983e-06
1.63239e-06
1.48357e-06
1.34304e-06
1.21048e-06
1.08552e-06
9.67778e-07
8.56889e-07
7.52493e-07
6.54257e-07
5.61887e-07
4.75148e-07
3.93879e-07
3.18023e-07
2.47658e-07
1.83053e-07
1.24755e-07
7.37694e-08
3.19793e-08
3.55499e-09
9.81906e-09
8.82828e-08
2.03258e-07
3.4253e-07
4.99912e-07
6.71411e-07
8.54096e-07
1.04566e-06
1.24419e-06
1.4481e-06
1.65601e-06
1.86675e-06
2.07934e-06
2.29292e-06
2.50682e-06
2.72047e-06
2.93347e-06
3.14551e-06
3.35639e-06
3.56602e-06
3.77441e-06
3.9816e-06
4.18773e-06
4.39294e-06
4.59743e-06
4.8014e-06
5.00503e-06
5.20852e-06
5.41203e-06
5.6157e-06
5.81963e-06
6.02388e-06
6.22848e-06
6.43339e-06
6.63857e-06
6.84391e-06
7.04927e-06
7.25449e-06
7.45937e-06
7.66367e-06
7.86715e-06
8.06954e-06
8.27055e-06
8.46989e-06
8.66724e-06
8.86229e-06
9.0547e-06
9.24414e-06
9.43026e-06
9.61273e-06
9.79116e-06
9.96521e-06
1.01345e-05
1.02986e-05
1.04572e-05
1.06098e-05
1.0756e-05
1.08954e-05
1.10275e-05
1.11519e-05
1.1268e-05
1.13754e-05
1.14735e-05
1.15619e-05
1.164e-05
1.17073e-05
1.17632e-05
1.18072e-05
1.18388e-05
1.18563e-05
1.18613e-05
1.18534e-05
1.18309e-05
1.17936e-05
1.17412e-05
1.16733e-05
1.15899e-05
1.14907e-05
1.13756e-05
1.12447e-05
1.10979e-05
1.09356e-05
1.07578e-05
1.0565e-05
1.03576e-05
1.01362e-05
9.90135e-06
9.65385e-06
9.39454e-06
9.12435e-06
8.84429e-06
8.55546e-06
8.25902e-06
7.95619e-06
7.64822e-06
7.3364e-06
7.02205e-06
6.70647e-06
6.39095e-06
6.07678e-06
5.76516e-06
5.45728e-06
5.15424e-06
4.85704e-06
4.56663e-06
4.28383e-06
4.00938e-06
3.74389e-06
3.48786e-06
3.2417e-06
3.00569e-06
2.78001e-06
2.56475e-06
2.35989e-06
2.16534e-06
1.98091e-06
1.80637e-06
1.64142e-06
1.48571e-06
1.33886e-06
1.20046e-06
1.0701e-06
9.47358e-07
8.31835e-07
7.23156e-07
6.20991e-07
5.25074e-07
4.35224e-07
3.51372e-07
2.73603e-07
2.02212e-07
1.37802e-07
8.14783e-08
3.53192e-08
3.92614e-09
1.09825e-08
9.8747e-08
2.27368e-07
3.83203e-07
5.59348e-07
7.51347e-07
9.5593e-07
1.17051e-06
1.39296e-06
1.62146e-06
1.85447e-06
2.09066e-06
2.32887e-06
2.56814e-06
2.80768e-06
3.04685e-06
3.28514e-06
3.52221e-06
3.75783e-06
3.99189e-06
4.22437e-06
4.45533e-06
4.68491e-06
4.91328e-06
5.14063e-06
5.36719e-06
5.59315e-06
5.81871e-06
6.04404e-06
6.26927e-06
6.49449e-06
6.71976e-06
6.94507e-06
7.17038e-06
7.39561e-06
7.62062e-06
7.84524e-06
8.06928e-06
8.2925e-06
8.51465e-06
8.73545e-06
8.95461e-06
9.17181e-06
9.38674e-06
9.59907e-06
9.80848e-06
1.00146e-05
1.02171e-05
1.04157e-05
1.06099e-05
1.07995e-05
1.0984e-05
1.11631e-05
1.13363e-05
1.15034e-05
1.16638e-05
1.18171e-05
1.1963e-05
1.21009e-05
1.22303e-05
1.23508e-05
1.24619e-05
1.2563e-05
1.26536e-05
1.27331e-05
1.28011e-05
1.2857e-05
1.29002e-05
1.293e-05
1.29447e-05
1.29471e-05
1.2935e-05
1.29076e-05
1.28645e-05
1.28053e-05
1.27298e-05
1.26379e-05
1.25292e-05
1.24037e-05
1.22614e-05
1.21024e-05
1.19267e-05
1.17345e-05
1.15264e-05
1.13026e-05
1.10637e-05
1.08104e-05
1.05434e-05
1.02635e-05
9.97184e-06
9.6693e-06
9.35707e-06
9.03636e-06
8.70843e-06
8.37463e-06
8.03631e-06
7.69489e-06
7.35177e-06
7.00835e-06
6.66602e-06
6.32612e-06
5.98994e-06
5.65871e-06
5.33357e-06
5.01556e-06
4.70563e-06
4.40462e-06
4.11324e-06
3.83208e-06
3.56162e-06
3.3022e-06
3.05406e-06
2.81732e-06
2.59198e-06
2.37797e-06
2.1751e-06
1.98313e-06
1.80172e-06
1.63052e-06
1.4691e-06
1.31701e-06
1.1738e-06
1.03901e-06
9.12176e-07
7.92896e-07
6.80798e-07
5.75582e-07
4.77043e-07
3.85102e-07
2.99846e-07
2.21593e-07
1.51e-07
8.92779e-08
3.86987e-08
4.30173e-09
1.22088e-08
1.09776e-07
2.52781e-07
4.26075e-07
6.22001e-07
8.35619e-07
1.0633e-06
1.30217e-06
1.54986e-06
1.80432e-06
2.06382e-06
2.32682e-06
2.59203e-06
2.85833e-06
3.12481e-06
3.39071e-06
3.65546e-06
3.91865e-06
4.18001e-06
4.43941e-06
4.69681e-06
4.95229e-06
5.20597e-06
5.45804e-06
5.70872e-06
5.95823e-06
6.20678e-06
6.45459e-06
6.70181e-06
6.94856e-06
7.19494e-06
7.44097e-06
7.68664e-06
7.93186e-06
8.17653e-06
8.42049e-06
8.66353e-06
8.90543e-06
9.14593e-06
9.38474e-06
9.62157e-06
9.85609e-06
1.0088e-05
1.03169e-05
1.05426e-05
1.07646e-05
1.09826e-05
1.11964e-05
1.14054e-05
1.16095e-05
1.18081e-05
1.20011e-05
1.21879e-05
1.23682e-05
1.25417e-05
1.27078e-05
1.28662e-05
1.30165e-05
1.31581e-05
1.32906e-05
1.34136e-05
1.35264e-05
1.36286e-05
1.37197e-05
1.37991e-05
1.38663e-05
1.39207e-05
1.39618e-05
1.39883e-05
1.39996e-05
1.39984e-05
1.39816e-05
1.39487e-05
1.38995e-05
1.38335e-05
1.37506e-05
1.36504e-05
1.35328e-05
1.33977e-05
1.3245e-05
1.30748e-05
1.2887e-05
1.26821e-05
1.24602e-05
1.22218e-05
1.19674e-05
1.16976e-05
1.14131e-05
1.11149e-05
1.08038e-05
1.04809e-05
1.01474e-05
9.8044e-06
9.45335e-06
9.09557e-06
8.73251e-06
8.36564e-06
7.99645e-06
7.62645e-06
7.25712e-06
6.88992e-06
6.52628e-06
6.16753e-06
5.81495e-06
5.46971e-06
5.13289e-06
4.80542e-06
4.48815e-06
4.18176e-06
3.88682e-06
3.60375e-06
3.33286e-06
3.0743e-06
2.82814e-06
2.5943e-06
2.37262e-06
2.16284e-06
1.96464e-06
1.77762e-06
1.60132e-06
1.43527e-06
1.27896e-06
1.13188e-06
9.9355e-07
8.63498e-07
7.41318e-07
6.26676e-07
5.19339e-07
4.19211e-07
3.26382e-07
2.4119e-07
1.64348e-07
9.71664e-08
4.21172e-08
4.68166e-09
1.34998e-08
1.21387e-07
2.79534e-07
4.7121e-07
6.87966e-07
9.24357e-07
1.17638e-06
1.44085e-06
1.71514e-06
1.99696e-06
2.28435e-06
2.57559e-06
2.86919e-06
3.16386e-06
3.45855e-06
3.7524e-06
4.04474e-06
4.33508e-06
4.62311e-06
4.90867e-06
5.19172e-06
5.47231e-06
5.7506e-06
6.02678e-06
6.30107e-06
6.57371e-06
6.84493e-06
7.11492e-06
7.38387e-06
7.65187e-06
7.919e-06
8.18527e-06
8.45063e-06
8.71499e-06
8.9782e-06
9.24007e-06
9.50038e-06
9.75887e-06
1.00152e-05
1.02692e-05
1.05204e-05
1.07686e-05
1.10134e-05
1.12544e-05
1.14914e-05
1.1724e-05
1.19519e-05
1.21746e-05
1.2392e-05
1.26036e-05
1.28091e-05
1.30081e-05
1.32004e-05
1.33855e-05
1.3563e-05
1.37325e-05
1.38937e-05
1.40461e-05
1.41893e-05
1.43227e-05
1.4446e-05
1.45585e-05
1.46599e-05
1.47496e-05
1.48271e-05
1.48918e-05
1.49432e-05
1.49809e-05
1.50029e-05
1.50105e-05
1.50045e-05
1.49823e-05
1.49437e-05
1.48882e-05
1.48156e-05
1.47255e-05
1.46178e-05
1.44921e-05
1.43484e-05
1.41866e-05
1.40066e-05
1.38085e-05
1.35926e-05
1.3359e-05
1.31082e-05
1.28406e-05
1.25567e-05
1.22573e-05
1.19432e-05
1.16153e-05
1.12746e-05
1.09223e-05
1.05596e-05
1.01878e-05
9.8083e-06
9.42263e-06
9.03229e-06
8.63885e-06
8.24391e-06
7.84904e-06
7.45581e-06
7.06577e-06
6.6804e-06
6.30108e-06
5.92914e-06
5.56578e-06
5.21208e-06
4.86899e-06
4.53734e-06
4.21778e-06
3.91084e-06
3.61689e-06
3.33619e-06
3.06882e-06
2.81476e-06
2.57387e-06
2.3459e-06
2.13051e-06
1.92729e-06
1.73577e-06
1.55544e-06
1.38574e-06
1.22613e-06
1.07607e-06
9.35052e-07
8.02622e-07
6.78408e-07
5.62148e-07
4.53727e-07
3.53231e-07
2.61019e-07
1.77853e-07
1.05149e-07
4.55766e-08
5.06618e-09
1.48571e-08
1.33595e-07
3.07663e-07
5.18668e-07
7.57334e-07
1.01768e-06
1.29532e-06
1.58674e-06
1.88903e-06
2.19964e-06
2.51638e-06
2.83728e-06
3.16066e-06
3.48505e-06
3.80922e-06
4.13219e-06
4.45318e-06
4.77164e-06
5.08719e-06
5.39963e-06
5.70891e-06
6.0151e-06
6.31834e-06
6.61884e-06
6.91683e-06
7.21258e-06
7.5063e-06
7.79821e-06
8.08847e-06
8.37717e-06
8.66438e-06
8.95007e-06
9.23419e-06
9.51661e-06
9.79715e-06
1.00756e-05
1.03517e-05
1.06252e-05
1.08957e-05
1.1163e-05
1.14267e-05
1.16865e-05
1.19421e-05
1.21931e-05
1.24391e-05
1.26799e-05
1.29152e-05
1.31446e-05
1.33678e-05
1.35844e-05
1.37942e-05
1.39969e-05
1.4192e-05
1.43793e-05
1.45584e-05
1.47288e-05
1.48903e-05
1.50424e-05
1.51847e-05
1.53168e-05
1.54381e-05
1.55483e-05
1.56468e-05
1.57332e-05
1.5807e-05
1.58676e-05
1.59146e-05
1.59474e-05
1.59638e-05
1.59672e-05
1.59556e-05
1.59276e-05
1.5883e-05
1.58214e-05
1.57424e-05
1.56458e-05
1.55313e-05
1.53986e-05
1.52477e-05
1.50783e-05
1.48904e-05
1.46841e-05
1.44594e-05
1.42165e-05
1.39558e-05
1.36777e-05
1.33825e-05
1.30711e-05
1.27441e-05
1.24023e-05
1.20468e-05
1.16786e-05
1.12989e-05
1.09091e-05
1.05106e-05
1.01048e-05
9.69335e-06
9.27781e-06
8.85986e-06
8.44119e-06
8.02346e-06
7.60833e-06
7.19741e-06
6.79224e-06
6.39427e-06
6.00485e-06
5.62522e-06
5.25647e-06
4.89955e-06
4.55525e-06
4.22422e-06
3.90694e-06
3.60372e-06
3.31473e-06
3.04002e-06
2.77946e-06
2.53284e-06
2.29982e-06
2.07998e-06
1.87284e-06
1.67785e-06
1.49443e-06
1.32198e-06
1.15993e-06
1.00771e-06
8.64833e-07
7.30877e-07
6.05547e-07
4.88707e-07
3.80435e-07
2.81108e-07
1.91535e-07
1.13236e-07
4.90819e-08
5.4558e-09
1.62823e-08
1.46413e-07
3.37199e-07
5.68504e-07
8.30183e-07
1.11571e-06
1.42026e-06
1.74002e-06
2.07173e-06
2.4126e-06
2.76014e-06
3.11216e-06
3.46671e-06
3.82214e-06
4.17703e-06
4.53025e-06
4.88091e-06
5.22835e-06
5.57215e-06
5.91207e-06
6.24805e-06
6.58014e-06
6.90851e-06
7.23336e-06
7.55495e-06
7.87355e-06
8.18939e-06
8.50268e-06
8.81357e-06
9.12217e-06
9.42849e-06
9.73252e-06
1.00342e-05
1.03332e-05