/*--------------------------------*- C++ -*----------------------------------*\
  =========                 |
  \\      /  F ield         | OpenFOAM: The Open Source CFD Toolbox
   \\    /   O peration     | Website:  https://openfoam.org
    \\  /    A nd           | Version:  12
     \\/     M anipulation  |
\*---------------------------------------------------------------------------*/
FoamFile
{
    format      ascii;
    class       volScalarField;
    location    "4.5";
    object      nut;
}
// * * * * * * * * * * * * * * * * * * * * * * * * * * * * * * * * * * * * * //

dimensions      [0 2 -1 0 0 0 0];

internalField   nonuniform List<scalar> 
18225
(
1.78233e-15
8.90699e-15
1.94927e-14
3.22042e-14
4.64463e-14
6.18676e-14
7.82196e-14
9.53095e-14
1.1298e-13
1.31101e-13
1.4956e-13
1.68265e-13
1.87137e-13
2.06109e-13
2.25128e-13
2.44151e-13
2.63146e-13
2.82088e-13
3.00962e-13
3.19761e-13
3.38482e-13
3.57131e-13
3.75716e-13
3.94251e-13
4.12752e-13
4.31237e-13
4.49727e-13
4.68241e-13
4.86801e-13
5.05424e-13
5.24131e-13
5.42936e-13
5.61853e-13
5.80894e-13
6.00067e-13
6.19375e-13
6.38822e-13
6.58404e-13
6.78117e-13
6.97952e-13
7.17896e-13
7.37934e-13
7.58047e-13
7.78211e-13
7.98402e-13
8.18591e-13
8.38745e-13
8.58829e-13
8.78806e-13
8.98632e-13
9.18264e-13
9.37655e-13
9.56753e-13
9.75505e-13
9.93855e-13
1.01174e-12
1.02911e-12
1.04589e-12
1.06201e-12
1.07741e-12
1.09202e-12
1.10576e-12
1.11857e-12
1.13037e-12
1.14108e-12
1.15063e-12
1.15895e-12
1.16597e-12
1.17163e-12
1.17585e-12
1.17856e-12
1.17971e-12
1.17929e-12
1.17724e-12
1.17351e-12
1.16806e-12
1.16087e-12
1.15193e-12
1.14124e-12
1.1288e-12
1.11463e-12
1.09876e-12
1.08122e-12
1.06208e-12
1.04138e-12
1.0192e-12
9.95631e-13
9.70754e-13
9.44671e-13
9.17491e-13
8.8933e-13
8.60308e-13
8.30551e-13
8.00189e-13
7.69352e-13
7.38172e-13
7.0678e-13
6.75307e-13
6.43876e-13
6.1261e-13
5.81624e-13
5.51027e-13
5.20921e-13
4.91398e-13
4.62543e-13
4.3443e-13
4.07125e-13
3.80683e-13
3.55149e-13
3.30561e-13
3.06943e-13
2.84313e-13
2.62681e-13
2.42047e-13
2.22406e-13
2.03743e-13
1.86038e-13
1.69268e-13
1.53403e-13
1.38411e-13
1.24258e-13
1.10906e-13
9.83192e-14
8.64603e-14
7.5295e-14
6.47918e-14
5.49244e-14
4.56734e-14
3.70291e-14
2.89958e-14
2.15972e-14
1.48878e-14
8.97634e-15
4.09286e-15
8.18577e-16
8.91234e-15
8.08297e-13
2.74479e-12
5.07151e-12
7.61288e-12
1.03245e-11
1.31765e-11
1.61425e-11
1.91994e-11
2.23269e-11
2.5507e-11
2.87246e-11
3.19667e-11
3.52227e-11
3.84837e-11
4.17426e-11
4.49941e-11
4.82343e-11
5.14608e-11
5.46723e-11
5.78689e-11
6.10514e-11
6.42216e-11
6.73819e-11
7.05351e-11
7.36846e-11
7.6834e-11
7.99867e-11
8.31464e-11
8.63166e-11
8.95004e-11
9.27005e-11
9.59196e-11
9.91595e-11
1.02422e-10
1.05707e-10
1.09016e-10
1.12348e-10
1.15702e-10
1.19077e-10
1.22472e-10
1.25882e-10
1.29306e-10
1.32739e-10
1.36178e-10
1.39617e-10
1.43051e-10
1.46474e-10
1.4988e-10
1.53262e-10
1.56612e-10
1.59922e-10
1.63184e-10
1.6639e-10
1.69528e-10
1.7259e-10
1.75565e-10
1.78443e-10
1.81211e-10
1.83858e-10
1.86372e-10
1.88741e-10
1.90953e-10
1.92994e-10
1.94852e-10
1.96514e-10
1.97968e-10
1.99201e-10
2.00197e-10
2.00945e-10
2.01434e-10
2.01655e-10
2.01611e-10
2.01288e-10
2.00675e-10
1.99768e-10
1.98563e-10
1.97056e-10
1.95248e-10
1.93138e-10
1.9073e-10
1.88029e-10
1.85041e-10
1.81774e-10
1.78239e-10
1.74448e-10
1.70416e-10
1.66157e-10
1.61689e-10
1.57032e-10
1.52204e-10
1.47226e-10
1.42122e-10
1.36912e-10
1.3162e-10
1.26269e-10
1.20881e-10
1.15478e-10
1.10084e-10
1.04718e-10
9.9401e-11
9.41515e-11
8.89872e-11
8.39241e-11
7.89768e-11
7.41582e-11
6.94794e-11
6.495e-11
6.05778e-11
5.63687e-11
5.23273e-11
4.84564e-11
4.47573e-11
4.12295e-11
3.7872e-11
3.46829e-11
3.16588e-11
2.87952e-11
2.60871e-11
2.35288e-11
2.11139e-11
1.88359e-11
1.66883e-11
1.46645e-11
1.27581e-11
1.09634e-11
9.27515e-12
7.68922e-12
6.20271e-12
4.81428e-12
3.52451e-12
2.33658e-12
1.2613e-12
3.71171e-13
4.09114e-15
1.95525e-14
2.74797e-12
1.39439e-11
3.14293e-11
5.17611e-11
7.35567e-11
9.63222e-11
1.19817e-10
1.43874e-10
1.68355e-10
1.93142e-10
2.18129e-10
2.43228e-10
2.68364e-10
2.93475e-10
3.18513e-10
3.43441e-10
3.68234e-10
3.92877e-10
4.17365e-10
4.41701e-10
4.65894e-10
4.89962e-10
5.13926e-10
5.3781e-10
5.61642e-10
5.85452e-10
6.09269e-10
6.33124e-10
6.57043e-10
6.81053e-10
7.05177e-10
7.29435e-10
7.53844e-10
7.78415e-10
8.03157e-10
8.28074e-10
8.53164e-10
8.78424e-10
9.03842e-10
9.29406e-10
9.55097e-10
9.80893e-10
1.00677e-09
1.03269e-09
1.05863e-09
1.08454e-09
1.11038e-09
1.13611e-09
1.16167e-09
1.18702e-09
1.21208e-09
1.23681e-09
1.26113e-09
1.28498e-09
1.30827e-09
1.33094e-09
1.3529e-09
1.37406e-09
1.39434e-09
1.41365e-09
1.43189e-09
1.44897e-09
1.46478e-09
1.47925e-09
1.49225e-09
1.5037e-09
1.51349e-09
1.52153e-09
1.52772e-09
1.53196e-09
1.53412e-09
1.53433e-09
1.53239e-09
1.52825e-09
1.52185e-09
1.51316e-09
1.50214e-09
1.4888e-09
1.47312e-09
1.45514e-09
1.43487e-09
1.41236e-09
1.38769e-09
1.36091e-09
1.33213e-09
1.30145e-09
1.269e-09
1.2349e-09
1.1993e-09
1.16236e-09
1.12425e-09
1.08512e-09
1.04516e-09
1.00455e-09
9.63472e-10
9.22099e-10
8.80611e-10
8.39181e-10
7.97973e-10
7.57147e-10
7.1685e-10
6.7722e-10
6.38383e-10
6.00453e-10
5.63529e-10
5.27697e-10
4.93032e-10
4.59591e-10
4.27422e-10
3.96556e-10
3.67014e-10
3.38804e-10
3.11922e-10
2.86358e-10
2.6209e-10
2.3909e-10
2.17321e-10
1.9674e-10
1.773e-10
1.58949e-10
1.41635e-10
1.253e-10
1.09889e-10
9.53486e-11
8.1625e-11
6.86694e-11
5.64377e-11
4.48934e-11
3.40141e-11
2.38134e-11
1.44243e-11
6.39729e-12
1.26055e-12
8.95711e-15
3.2444e-14
5.09397e-12
3.14787e-11
8.37642e-11
1.53441e-10
2.32475e-10
3.16536e-10
4.03523e-10
4.92331e-10
5.82281e-10
6.72888e-10
7.63776e-10
8.54644e-10
9.45246e-10
1.03539e-09
1.12492e-09
1.21375e-09
1.30179e-09
1.38902e-09
1.47544e-09
1.56108e-09
1.646e-09
1.73028e-09
1.81399e-09
1.89727e-09
1.9802e-09
2.06292e-09
2.14554e-09
2.22817e-09
2.31093e-09
2.39393e-09
2.47724e-09
2.56095e-09
2.64513e-09
2.72983e-09
2.81509e-09
2.90092e-09
2.98733e-09
3.07431e-09
3.16184e-09
3.24989e-09
3.33838e-09
3.42726e-09
3.51645e-09
3.60584e-09
3.69534e-09
3.78481e-09
3.87412e-09
3.96312e-09
4.05164e-09
4.13951e-09
4.22654e-09
4.31252e-09
4.39723e-09
4.48043e-09
4.56187e-09
4.6413e-09
4.71843e-09
4.79297e-09
4.86461e-09
4.93305e-09
4.99794e-09
5.05896e-09
5.11576e-09
5.16798e-09
5.21528e-09
5.25728e-09
5.29364e-09
5.32401e-09
5.34809e-09
5.36537e-09
5.3753e-09
5.37858e-09
5.37434e-09
5.36233e-09
5.34236e-09
5.31426e-09
5.27792e-09
5.23327e-09
5.18029e-09
5.11902e-09
5.04953e-09
4.97199e-09
4.88658e-09
4.79358e-09
4.69328e-09
4.58607e-09
4.47238e-09
4.35267e-09
4.22746e-09
4.09731e-09
3.96283e-09
3.82462e-09
3.68332e-09
3.5396e-09
3.39412e-09
3.24752e-09
3.10046e-09
2.95356e-09
2.80744e-09
2.66268e-09
2.51981e-09
2.37934e-09
2.24172e-09
2.10737e-09
1.97665e-09
1.84987e-09
1.7273e-09
1.60913e-09
1.49554e-09
1.38663e-09
1.28247e-09
1.18308e-09
1.08844e-09
9.98497e-10
9.13169e-10
8.32337e-10
7.55855e-10
6.83559e-10
6.15263e-10
5.50767e-10
4.8986e-10
4.32322e-10
3.77931e-10
3.26465e-10
2.77709e-10
2.31463e-10
1.87562e-10
1.45916e-10
1.06619e-10
7.0224e-11
3.83434e-11
1.4419e-11
2.33039e-12
1.48085e-14
4.7091e-14
7.68984e-12
5.20412e-11
1.53804e-10
3.07483e-10
4.96235e-10
7.05624e-10
9.26486e-10
1.15349e-09
1.3835e-09
1.61457e-09
1.84538e-09
2.07504e-09
2.30287e-09
2.52841e-09
2.75132e-09
2.97139e-09
3.18852e-09
3.40271e-09
3.61402e-09
3.82261e-09
4.02866e-09
4.23243e-09
4.43421e-09
4.63431e-09
4.83306e-09
5.03081e-09
5.22788e-09
5.42461e-09
5.6213e-09
5.81824e-09
6.01568e-09
6.21385e-09
6.41294e-09
6.6131e-09
6.81445e-09
7.01708e-09
7.22101e-09
7.42625e-09
7.63278e-09
7.84052e-09
8.04937e-09
8.2592e-09
8.46984e-09
8.68109e-09
8.89271e-09
9.10445e-09
9.316e-09
9.52704e-09
9.73721e-09
9.94611e-09
1.01533e-08
1.03583e-08
1.05607e-08
1.07598e-08
1.09551e-08
1.11461e-08
1.13319e-08
1.1512e-08
1.16856e-08
1.1852e-08
1.20103e-08
1.21598e-08
1.22995e-08
1.24287e-08
1.25464e-08
1.26518e-08
1.27439e-08
1.28219e-08
1.28856e-08
1.29321e-08
1.29615e-08
1.29751e-08
1.29707e-08
1.29474e-08
1.29049e-08
1.28427e-08
1.27603e-08
1.26577e-08
1.25347e-08
1.23913e-08
1.22277e-08
1.20443e-08
1.18413e-08
1.16195e-08
1.13796e-08
1.11225e-08
1.08491e-08
1.05607e-08
1.02585e-08
9.94387e-09
9.61826e-09
9.28322e-09
8.94032e-09
8.59119e-09
8.23747e-09
7.8808e-09
7.5228e-09
7.16504e-09
6.80905e-09
6.45626e-09
6.10804e-09
5.76564e-09
5.43022e-09
5.10279e-09
4.78427e-09
4.47543e-09
4.17691e-09
3.88924e-09
3.6128e-09
3.34787e-09
3.09459e-09
2.85301e-09
2.62308e-09
2.40463e-09
2.19744e-09
2.00118e-09
1.81547e-09
1.63987e-09
1.47388e-09
1.31697e-09
1.16858e-09
1.02811e-09
8.94982e-10
7.68598e-10
6.48418e-10
5.34002e-10
4.25132e-10
3.22068e-10
2.26047e-10
1.40157e-10
7.02162e-11
2.37601e-11
3.50134e-12
2.13775e-14
6.32573e-14
1.05124e-11
7.44404e-11
2.34137e-10
4.98061e-10
8.46847e-10
1.2535e-09
1.69539e-09
2.15679e-09
2.62751e-09
3.10106e-09
3.57328e-09
4.04144e-09
4.50375e-09
4.95906e-09
5.40664e-09
5.84613e-09
6.27743e-09
6.70064e-09
7.11605e-09
7.52411e-09
7.92538e-09
8.3205e-09
8.7102e-09
9.09522e-09
9.47637e-09
9.85443e-09
1.02302e-08
1.06044e-08
1.09777e-08
1.13508e-08
1.17242e-08
1.20985e-08
1.24742e-08
1.28515e-08
1.32309e-08
1.36124e-08
1.39962e-08
1.43824e-08
1.4771e-08
1.51619e-08
1.55549e-08
1.595e-08
1.63467e-08
1.67447e-08
1.71437e-08
1.75432e-08
1.79427e-08
1.83416e-08
1.87393e-08
1.9135e-08
1.9528e-08
1.99173e-08
2.03022e-08
2.06814e-08
2.1054e-08
2.14189e-08
2.17746e-08
2.21201e-08
2.24537e-08
2.27741e-08
2.30798e-08
2.33691e-08
2.36404e-08
2.3892e-08
2.41221e-08
2.4329e-08
2.45108e-08
2.4666e-08
2.47947e-08
2.48886e-08
2.49514e-08
2.49841e-08
2.4982e-08
2.49438e-08
2.48686e-08
2.47554e-08
2.46034e-08
2.44123e-08
2.41817e-08
2.39116e-08
2.36024e-08
2.32544e-08
2.28687e-08
2.24462e-08
2.19883e-08
2.14968e-08
2.09735e-08
2.04206e-08
1.98406e-08
1.9236e-08
1.86098e-08
1.79647e-08
1.7304e-08
1.66307e-08
1.5948e-08
1.52592e-08
1.45673e-08
1.38754e-08
1.31866e-08
1.25036e-08
1.18292e-08
1.11657e-08
1.05155e-08
9.88065e-09
9.26284e-09
8.66366e-09
8.08438e-09
7.52605e-09
6.98945e-09
6.4751e-09
5.98332e-09
5.51418e-09
5.06756e-09
4.64315e-09
4.24046e-09
3.85884e-09
3.49749e-09
3.1555e-09
2.83185e-09
2.52544e-09
2.23508e-09
1.95956e-09
1.6977e-09
1.44836e-09
1.21063e-09
9.84009e-10
7.68875e-10
5.6717e-10
3.83445e-10
2.26029e-10
1.0643e-10
3.38006e-11
4.75408e-12
2.85084e-14
8.08204e-14
1.35543e-11
9.83856e-11
3.21261e-10
7.12683e-10
1.26048e-09
1.92902e-09
2.67925e-09
3.47875e-09
4.3038e-09
5.13816e-09
5.97105e-09
6.79538e-09
7.6066e-09
8.4019e-09
9.17968e-09
9.93918e-09
1.06803e-08
1.14035e-08
1.21094e-08
1.27991e-08
1.34739e-08
1.41351e-08
1.47844e-08
1.54232e-08
1.60532e-08
1.6676e-08
1.72932e-08
1.79061e-08
1.85162e-08
1.91247e-08
1.97328e-08
2.03414e-08
2.09515e-08
2.15638e-08
2.21789e-08
2.27971e-08
2.34189e-08
2.40444e-08
2.46737e-08
2.53068e-08
2.59434e-08
2.65833e-08
2.72262e-08
2.78714e-08
2.85185e-08
2.91668e-08
2.98153e-08
3.04633e-08
3.11097e-08
3.17533e-08
3.23928e-08
3.3027e-08
3.36541e-08
3.42727e-08
3.48808e-08
3.54766e-08
3.60581e-08
3.66229e-08
3.71689e-08
3.76935e-08
3.81943e-08
3.86685e-08
3.91134e-08
3.95262e-08
3.9904e-08
4.02437e-08
4.05423e-08
4.07979e-08
4.10104e-08
4.11632e-08
4.12673e-08
4.13216e-08
4.13187e-08
4.12565e-08
4.11334e-08
4.09478e-08
4.06986e-08
4.03851e-08
4.00068e-08
3.95636e-08
3.90561e-08
3.84851e-08
3.78518e-08
3.71582e-08
3.64064e-08
3.55991e-08
3.47395e-08
3.3831e-08
3.28777e-08
3.18838e-08
3.08537e-08
2.97924e-08
2.87047e-08
2.75958e-08
2.64709e-08
2.53352e-08
2.41938e-08
2.30518e-08
2.19141e-08
2.07853e-08
1.96698e-08
1.85718e-08
1.7495e-08
1.64428e-08
1.54182e-08
1.44238e-08
1.34618e-08
1.25339e-08
1.16415e-08
1.07855e-08
9.96645e-09
9.18453e-09
8.43955e-09
7.73098e-09
7.05798e-09
6.41946e-09
5.81409e-09
5.24031e-09
4.69635e-09
4.1803e-09
3.69015e-09
3.22387e-09
2.77951e-09
2.35542e-09
1.95063e-09
1.56528e-09
1.20162e-09
8.6532e-10
5.66858e-10
3.21458e-10
1.45069e-10
4.4323e-11
6.07573e-12
3.60918e-14
9.97197e-14
1.68127e-11
1.23838e-10
4.13943e-10
9.44586e-10
1.71925e-09
2.70072e-09
3.83496e-09
5.06922e-09
6.36023e-09
7.67572e-09
8.99296e-09
1.02966e-08
1.15768e-08
1.28272e-08
1.40445e-08
1.52271e-08
1.63748e-08
1.74884e-08
1.85694e-08
1.96198e-08
2.06422e-08
2.16392e-08
2.26136e-08
2.35684e-08
2.45063e-08
2.54304e-08
2.63433e-08
2.72475e-08
2.81455e-08
2.90396e-08
2.99315e-08
3.08231e-08
3.17159e-08
3.2611e-08
3.35097e-08
3.44125e-08
3.53202e-08
3.62331e-08
3.71513e-08
3.8075e-08
3.90037e-08
3.99373e-08
4.08752e-08
4.18165e-08
4.27606e-08
4.37064e-08
4.46526e-08
4.5598e-08
4.6541e-08
4.74798e-08
4.84125e-08
4.93371e-08
5.02513e-08
5.11525e-08
5.2038e-08
5.29051e-08
5.37505e-08
5.45711e-08
5.53632e-08
5.61235e-08
5.68479e-08
5.75326e-08
5.81734e-08
5.87664e-08
5.93071e-08
5.97914e-08
6.02152e-08
6.05759e-08
6.08734e-08
6.108e-08
6.12184e-08
6.12823e-08
6.1262e-08
6.11546e-08
6.09579e-08
6.067e-08
6.02892e-08
5.98147e-08
5.9246e-08
5.85831e-08
5.78268e-08
5.69785e-08
5.60401e-08
5.50143e-08
5.39043e-08
5.27141e-08
5.14482e-08
5.01116e-08
4.871e-08
4.72495e-08
4.57364e-08
4.41777e-08
4.25805e-08
4.0952e-08
3.92996e-08
3.76308e-08
3.59529e-08
3.42732e-08
3.25987e-08
3.09362e-08
2.9292e-08
2.76721e-08
2.60821e-08
2.45268e-08
2.30108e-08
2.1538e-08
2.01115e-08
1.8734e-08
1.74077e-08
1.6134e-08
1.49137e-08
1.37473e-08
1.26344e-08
1.15744e-08
1.05662e-08
9.60803e-09
8.69797e-09
7.83369e-09
7.01255e-09
6.23168e-09
5.48813e-09
4.77895e-09
4.10153e-09
3.45399e-09
2.83582e-09
2.24909e-09
1.69983e-09
1.19964e-09
7.66508e-10
4.22445e-10
1.8521e-10
5.52233e-11
7.45502e-12
4.4044e-14
1.19932e-13
2.02882e-11
1.50828e-10
5.11911e-10
1.19089e-09
2.21287e-09
3.54585e-09
5.12472e-09
6.87564e-09
8.7315e-09
1.06383e-08
1.2556e-08
1.44564e-08
1.63205e-08
1.81365e-08
1.98976e-08
2.16006e-08
2.3245e-08
2.48322e-08
2.63646e-08
2.7846e-08
2.92804e-08
3.06723e-08
3.20266e-08
3.3348e-08
3.46413e-08
3.5911e-08
3.71617e-08
3.83974e-08
3.96218e-08
4.08385e-08
4.20504e-08
4.32603e-08
4.44706e-08
4.56831e-08
4.68994e-08
4.81208e-08
4.93482e-08
5.05821e-08
5.1823e-08
5.30707e-08
5.43252e-08
5.55858e-08
5.68519e-08
5.81226e-08
5.93964e-08
6.0672e-08
6.19476e-08
6.32212e-08
6.44907e-08
6.57536e-08
6.70072e-08
6.82484e-08
6.94741e-08
7.06807e-08
7.18645e-08
7.30214e-08
7.41471e-08
7.52371e-08
7.62865e-08
7.72905e-08
7.82439e-08
7.91412e-08
7.9977e-08
8.07459e-08
8.14421e-08
8.20601e-08
8.25945e-08
8.30406e-08
8.34015e-08
8.36367e-08
8.37833e-08
8.38265e-08
8.37556e-08
8.35673e-08
8.32592e-08
8.28288e-08
8.22748e-08
8.1596e-08
8.07923e-08
7.9864e-08
7.88123e-08
7.76394e-08
7.6348e-08
7.49418e-08
7.34253e-08
7.18036e-08
7.00828e-08
6.82695e-08
6.63711e-08
6.43954e-08
6.23509e-08
6.02464e-08
5.80912e-08
5.58945e-08
5.3666e-08
5.14152e-08
4.91519e-08
4.68852e-08
4.46244e-08
4.23784e-08
4.01553e-08
3.79632e-08
3.58092e-08
3.37001e-08
3.16417e-08
2.96393e-08
2.76973e-08
2.58194e-08
2.40085e-08
2.22667e-08
2.05953e-08
1.8995e-08
1.74654e-08
1.60059e-08
1.46149e-08
1.32904e-08
1.20295e-08
1.08293e-08
9.68598e-09
8.59589e-09
7.55506e-09
6.55983e-09
5.60721e-09
4.69569e-09
3.82635e-09
3.00444e-09
2.24141e-09
1.55641e-09
9.75622e-10
5.26676e-10
2.26365e-10
6.64295e-11
8.88199e-12
5.22971e-14
1.41461e-13
2.39839e-11
1.79411e-10
6.15271e-10
1.45079e-09
2.73652e-09
4.45097e-09
6.52215e-09
8.85606e-09
1.13594e-08
1.3952e-08
1.65712e-08
1.91712e-08
2.17207e-08
2.41994e-08
2.65955e-08
2.89034e-08
3.11219e-08
3.32528e-08
3.53003e-08
3.72699e-08
3.9168e-08
4.10017e-08
4.27782e-08
4.4505e-08
4.61892e-08
4.78377e-08
4.9457e-08
5.10531e-08
5.26316e-08
5.41975e-08
5.57552e-08
5.73086e-08
5.88608e-08
6.04147e-08
6.19724e-08
6.35356e-08
6.51057e-08
6.66833e-08
6.8269e-08
6.98626e-08
7.14637e-08
7.30717e-08
7.46856e-08
7.63038e-08
7.79245e-08
7.95459e-08
8.11653e-08
8.27802e-08
8.43875e-08
8.59838e-08
8.75654e-08
8.91283e-08
9.06682e-08
9.21803e-08
9.36596e-08
9.51008e-08
9.64984e-08
9.78463e-08
9.91386e-08
1.00369e-07
1.0153e-07
1.02616e-07
1.0362e-07
1.04535e-07
1.05354e-07
1.06071e-07
1.06679e-07
1.07171e-07
1.07549e-07
1.07772e-07
1.07884e-07
1.07861e-07
1.07693e-07
1.07378e-07
1.06911e-07
1.06292e-07
1.0552e-07
1.04592e-07
1.0351e-07
1.02275e-07
1.00888e-07
9.93524e-08
9.76721e-08
9.58518e-08
9.38972e-08
9.18147e-08
8.96119e-08
8.7297e-08
8.48788e-08
8.23669e-08
7.97717e-08
7.71036e-08
7.43738e-08
7.15936e-08
6.87745e-08
6.5928e-08
6.30656e-08
6.01986e-08
5.73381e-08
5.44947e-08
5.16786e-08
4.88993e-08
4.61658e-08
4.34862e-08
4.08679e-08
3.83173e-08
3.58402e-08
3.3441e-08
3.11237e-08
2.88909e-08
2.67444e-08
2.46852e-08
2.27132e-08
2.08275e-08
1.90263e-08
1.73071e-08
1.56666e-08
1.41008e-08
1.26054e-08
1.11757e-08
9.80688e-09
8.4949e-09
7.23684e-09
6.03222e-09
4.88465e-09
3.80396e-09
2.80841e-09
1.9256e-09
1.18979e-09
6.32764e-10
2.68235e-10
7.78828e-11
1.03481e-11
6.07958e-14
1.64327e-13
2.79046e-11
2.09653e-10
7.24273e-10
1.72443e-09
3.2887e-09
5.4096e-09
8.0117e-09
1.09822e-08
1.42004e-08
1.75567e-08
2.09617e-08
2.4348e-08
2.76683e-08
3.08915e-08
3.39991e-08
3.6982e-08
3.98381e-08
4.25699e-08
4.51832e-08
4.7686e-08
5.00878e-08
5.23986e-08
5.46289e-08
5.67892e-08
5.88897e-08
6.09399e-08
6.29489e-08
6.49251e-08
6.68761e-08
6.88085e-08
7.07284e-08
7.26408e-08
7.455e-08
7.64596e-08
7.83725e-08
8.02907e-08
8.22158e-08
8.41487e-08
8.60897e-08
8.80387e-08
8.9995e-08
9.19576e-08
9.39247e-08
9.58945e-08
9.78646e-08
9.9832e-08
1.01794e-07
1.03746e-07
1.05684e-07
1.07605e-07
1.09503e-07
1.11372e-07
1.13209e-07
1.15005e-07
1.16756e-07
1.18455e-07
1.20094e-07
1.21667e-07
1.23165e-07
1.24582e-07
1.2591e-07
1.2714e-07
1.28265e-07
1.29277e-07
1.30168e-07
1.3093e-07
1.31557e-07
1.32041e-07
1.32374e-07
1.32534e-07
1.32561e-07
1.32417e-07
1.321e-07
1.31605e-07
1.30932e-07
1.30077e-07
1.29042e-07
1.27825e-07
1.26427e-07
1.2485e-07
1.23098e-07
1.21173e-07
1.1908e-07
1.16827e-07
1.14419e-07
1.11864e-07
1.09171e-07
1.06349e-07
1.03409e-07
1.00363e-07
9.72207e-08
9.39956e-08
9.06998e-08
8.73464e-08
8.39484e-08
8.0519e-08
7.70712e-08
7.36181e-08
7.01721e-08
6.67454e-08
6.33498e-08
5.99962e-08
5.6695e-08
5.34556e-08
5.02867e-08
4.71958e-08
4.41895e-08
4.12735e-08
3.84522e-08
3.5729e-08
3.31063e-08
3.05851e-08
2.81656e-08
2.58469e-08
2.36269e-08
2.15028e-08
1.94706e-08
1.75259e-08
1.56634e-08
1.38779e-08
1.2164e-08
1.05174e-08
8.93583e-09
7.4206e-09
5.97873e-09
4.62566e-09
3.38733e-09
2.30022e-09
1.40616e-09
7.39827e-10
3.10607e-10
8.95333e-11
1.1846e-11
6.94949e-14
1.88561e-13
3.20573e-11
2.41627e-10
8.39226e-10
2.01245e-09
3.86967e-09
6.41968e-09
9.5859e-09
1.32378e-08
1.72263e-08
2.14101e-08
2.56698e-08
2.99131e-08
3.40736e-08
3.81073e-08
4.19877e-08
4.57014e-08
4.9245e-08
5.26216e-08
5.58393e-08
5.8909e-08
6.18436e-08
6.46568e-08
6.7363e-08
6.99761e-08
7.25097e-08
7.49767e-08
7.73889e-08
7.97573e-08
8.20917e-08
8.44006e-08
8.66918e-08
8.89715e-08
9.12451e-08
9.35171e-08
9.57906e-08
9.80684e-08
1.00352e-07
1.02642e-07
1.04939e-07
1.07243e-07
1.09552e-07
1.11864e-07
1.14178e-07
1.16491e-07
1.18799e-07
1.21099e-07
1.23386e-07
1.25656e-07
1.27903e-07
1.30123e-07
1.32308e-07
1.34453e-07
1.36551e-07
1.38594e-07
1.40575e-07
1.42487e-07
1.4432e-07
1.46067e-07
1.47719e-07
1.49267e-07
1.50703e-07
1.52018e-07
1.53203e-07
1.54249e-07
1.55149e-07
1.55895e-07
1.56478e-07
1.56892e-07
1.57114e-07
1.57154e-07
1.57043e-07
1.56723e-07
1.56203e-07
1.5548e-07
1.54553e-07
1.53422e-07
1.52086e-07
1.50546e-07
1.48804e-07
1.46862e-07
1.44724e-07
1.42395e-07
1.3988e-07
1.37188e-07
1.34325e-07
1.313e-07
1.28124e-07
1.24807e-07
1.21361e-07
1.17797e-07
1.14129e-07
1.10371e-07
1.06535e-07
1.02636e-07
9.86886e-08
9.47069e-08
9.07054e-08
8.66981e-08
8.26989e-08
7.87212e-08
7.47778e-08
7.08811e-08
6.70423e-08
6.3272e-08
5.95798e-08
5.59744e-08
5.24631e-08
4.90522e-08
4.5747e-08
4.25513e-08
3.94679e-08
3.64981e-08
3.36423e-08
3.08994e-08
2.82672e-08
2.57425e-08
2.3321e-08
2.09975e-08
1.87663e-08
1.66215e-08
1.45576e-08
1.25704e-08
1.06586e-08
8.82593e-09
7.08347e-09
5.45295e-09
3.96851e-09
2.67552e-09
1.62285e-09
8.47278e-10
3.53323e-10
1.0134e-10
1.337e-11
7.83587e-14
2.14203e-13
3.64496e-11
2.75409e-10
9.60459e-10
2.31565e-09
4.48059e-09
7.48178e-09
1.12425e-08
1.56151e-08
2.04212e-08
2.54857e-08
3.06566e-08
3.5814e-08
4.08704e-08
4.57669e-08
5.04678e-08
5.49551e-08
5.92238e-08
6.3278e-08
6.71282e-08
7.07886e-08
7.42763e-08
7.76091e-08
8.08054e-08
8.38835e-08
8.68605e-08
8.97529e-08
9.25756e-08
9.53423e-08
9.80651e-08
1.00755e-07
1.0342e-07
1.06069e-07
1.08708e-07
1.11342e-07
1.13975e-07
1.16609e-07
1.19247e-07
1.21888e-07
1.24533e-07
1.27181e-07
1.2983e-07
1.32477e-07
1.3512e-07
1.37755e-07
1.40378e-07
1.42984e-07
1.45567e-07
1.48122e-07
1.50643e-07
1.53122e-07
1.55553e-07
1.57928e-07
1.60238e-07
1.62476e-07
1.64633e-07
1.667e-07
1.68667e-07
1.70526e-07
1.72267e-07
1.73881e-07
1.75359e-07
1.76691e-07
1.77868e-07
1.78881e-07
1.79723e-07
1.80385e-07
1.8086e-07
1.81141e-07
1.81192e-07
1.81052e-07
1.80753e-07
1.80207e-07
1.79437e-07
1.78443e-07
1.77226e-07
1.75785e-07
1.7412e-07
1.72234e-07
1.70129e-07
1.67808e-07
1.65277e-07
1.6254e-07
1.59606e-07
1.56481e-07
1.53174e-07
1.49696e-07
1.46056e-07
1.42267e-07
1.3834e-07
1.3429e-07
1.30128e-07
1.25871e-07
1.21532e-07
1.17127e-07
1.1267e-07
1.08177e-07
1.03664e-07
9.91445e-08
9.46346e-08
9.01481e-08
8.56989e-08
8.13e-08
7.69638e-08
7.27017e-08
6.85241e-08
6.44402e-08
6.04582e-08
5.65852e-08
5.28267e-08
4.9187e-08
4.56693e-08
4.22751e-08
3.90048e-08
3.58573e-08
3.28302e-08
2.992e-08
2.7122e-08
2.44305e-08
2.18394e-08
1.93422e-08
1.69333e-08
1.46092e-08
1.23698e-08
1.02216e-08
8.18016e-09
6.27387e-09
4.54521e-09
3.04828e-09
1.83863e-09
9.54712e-10
3.96265e-10
1.13271e-10
1.49155e-11
8.73601e-14
2.41295e-13
4.10898e-11
3.11075e-10
1.0883e-09
2.6349e-09
5.12303e-09
8.5978e-09
1.29826e-08
1.81122e-08
2.37781e-08
2.97691e-08
3.58986e-08
4.20169e-08
4.80136e-08
5.38139e-08
5.93721e-08
6.46651e-08
6.96866e-08
7.44418e-08
7.89438e-08
8.3211e-08
8.72647e-08
9.11274e-08
9.48221e-08
9.83714e-08
1.01797e-07
1.05118e-07
1.08353e-07
1.11519e-07
1.1463e-07
1.17699e-07
1.20736e-07
1.23751e-07
1.26751e-07
1.2974e-07
1.32724e-07
1.35705e-07
1.38684e-07
1.41662e-07
1.44638e-07
1.47611e-07
1.50578e-07
1.53536e-07
1.56481e-07
1.59408e-07
1.62312e-07
1.65187e-07
1.68026e-07
1.70823e-07
1.7357e-07
1.76259e-07
1.78882e-07
1.8143e-07
1.83895e-07
1.86266e-07
1.88534e-07
1.90691e-07
1.92725e-07
1.94627e-07
1.96388e-07
1.97997e-07
1.99446e-07
2.00725e-07
2.01824e-07
2.02737e-07
2.03454e-07
2.03969e-07
2.04273e-07
2.04362e-07
2.04187e-07
2.0382e-07
2.03281e-07
2.02472e-07
2.01414e-07
2.00116e-07
1.9858e-07
1.96806e-07
1.94795e-07
1.92551e-07
1.90076e-07
1.87375e-07
1.84454e-07
1.81318e-07
1.77976e-07
1.74436e-07
1.70707e-07
1.668e-07
1.62725e-07
1.58496e-07
1.54124e-07
1.49623e-07
1.45009e-07
1.40295e-07
1.35496e-07
1.30629e-07
1.25709e-07
1.20752e-07
1.15773e-07
1.1079e-07
1.05816e-07
1.00867e-07
9.59583e-08
9.11027e-08
8.63135e-08
8.16028e-08
7.69817e-08
7.24599e-08
6.80464e-08
6.37485e-08
5.95723e-08
5.55225e-08
5.16024e-08
4.78138e-08
4.41569e-08
4.06308e-08
3.72327e-08
3.39589e-08
3.08042e-08
2.77626e-08
2.48274e-08
2.1992e-08
1.92509e-08
1.66008e-08
1.40436e-08
1.15884e-08
9.25559e-09
7.08019e-09
5.11293e-09
3.41642e-09
2.05269e-09
1.06188e-09
4.39353e-10
1.25304e-10
1.64795e-11
9.64807e-14
2.69886e-13
4.59866e-11
3.48701e-10
1.22307e-09
2.9711e-09
5.79874e-09
9.77026e-09
1.48087e-08
2.07308e-08
2.72955e-08
3.42542e-08
4.13833e-08
4.85017e-08
5.54749e-08
6.22112e-08
6.86547e-08
7.47772e-08
8.05711e-08
8.60431e-08
9.12096e-08
9.60931e-08
1.0072e-07
1.05117e-07
1.09313e-07
1.13335e-07
1.17208e-07
1.20957e-07
1.24602e-07
1.28164e-07
1.31659e-07
1.35101e-07
1.38502e-07
1.41874e-07
1.45223e-07
1.48555e-07
1.51875e-07
1.55186e-07
1.58488e-07
1.61781e-07
1.65064e-07
1.68335e-07
1.7159e-07
1.74825e-07
1.78035e-07
1.81214e-07
1.84356e-07
1.87454e-07
1.90501e-07
1.93487e-07
1.96405e-07
1.99246e-07
2.02e-07
2.04659e-07
2.07211e-07
2.09648e-07
2.1196e-07
2.14135e-07
2.16165e-07
2.18039e-07
2.19748e-07
2.21282e-07
2.22632e-07
2.2379e-07
2.24746e-07
2.25494e-07
2.26025e-07
2.26334e-07
2.26415e-07
2.26256e-07
2.25809e-07
2.25186e-07
2.24352e-07
2.2326e-07
2.21885e-07
2.2026e-07
2.18388e-07
2.16269e-07
2.13906e-07
2.11302e-07
2.08462e-07
2.05389e-07
2.02091e-07
1.98574e-07
1.94846e-07
1.90916e-07
1.86794e-07
1.82491e-07
1.78017e-07
1.73386e-07
1.6861e-07
1.63703e-07
1.58679e-07
1.53554e-07
1.48343e-07
1.43062e-07
1.37727e-07
1.32354e-07
1.2696e-07
1.2156e-07
1.16171e-07
1.10807e-07
1.05485e-07
1.00219e-07
9.50215e-08
8.99058e-08
8.48835e-08
7.9965e-08
7.51595e-08
7.0475e-08
6.59178e-08
6.1493e-08
5.7204e-08
5.30529e-08
4.90398e-08
4.51636e-08
4.14215e-08
3.78094e-08
3.43217e-08
3.0952e-08
2.76933e-08
2.45387e-08
2.14827e-08
1.85228e-08
1.56624e-08
1.29134e-08
1.0301e-08
7.86657e-09
5.66883e-09
3.77869e-09
2.26457e-09
1.16863e-09
4.82546e-10
1.37429e-10
1.80603e-11
1.0571e-13
3.00022e-13
5.11482e-11
3.88362e-10
1.36508e-09
3.32508e-09
6.50944e-09
1.10019e-08
1.67244e-08
2.3474e-08
3.09754e-08
3.89399e-08
4.71053e-08
5.52577e-08
6.32374e-08
7.09355e-08
7.82857e-08
8.5255e-08
9.18347e-08
9.80334e-08
1.03871e-07
1.09375e-07
1.14577e-07
1.19509e-07
1.24205e-07
1.28696e-07
1.33013e-07
1.37183e-07
1.41232e-07
1.45181e-07
1.4905e-07
1.52854e-07
1.56607e-07
1.60321e-07
1.64003e-07
1.6766e-07
1.71296e-07
1.74912e-07
1.78511e-07
1.82091e-07
1.85649e-07
1.89183e-07
1.92689e-07
1.9616e-07
1.99591e-07
2.02976e-07
2.06306e-07
2.09573e-07
2.1277e-07
2.15887e-07
2.18914e-07
2.21843e-07
2.24663e-07
2.27363e-07
2.29935e-07
2.32368e-07
2.34651e-07
2.36775e-07
2.3873e-07
2.40506e-07
2.42093e-07
2.43485e-07
2.44671e-07
2.45643e-07
2.46396e-07
2.46922e-07
2.47214e-07
2.47269e-07
2.47082e-07
2.46623e-07
2.45881e-07
2.44971e-07
2.43809e-07
2.42413e-07
2.40707e-07
2.38745e-07
2.3653e-07
2.34066e-07
2.31354e-07
2.28399e-07
2.25205e-07
2.21778e-07
2.18125e-07
2.14252e-07
2.10168e-07
2.05881e-07
2.01401e-07
1.9674e-07
1.91908e-07
1.86917e-07
1.81781e-07
1.76514e-07
1.71129e-07
1.65641e-07
1.60066e-07
1.5442e-07
1.48719e-07
1.42979e-07
1.37217e-07
1.31449e-07
1.25691e-07
1.19959e-07
1.1427e-07
1.08636e-07
1.03073e-07
9.75944e-08
9.22113e-08
8.69351e-08
8.17755e-08
7.67407e-08
7.18377e-08
6.70717e-08
6.24465e-08
5.7964e-08
5.36246e-08
4.94271e-08
4.53684e-08
4.14442e-08
3.76486e-08
3.39747e-08
3.04151e-08
2.69627e-08
2.36121e-08
2.03614e-08
1.72154e-08
1.41889e-08
1.13113e-08
8.62996e-09
6.2114e-09
4.13448e-09
2.47409e-09
1.27495e-09
5.25839e-10
1.49642e-10
1.96576e-11
1.15047e-13
3.31746e-13
5.65827e-11
4.30128e-10
1.51461e-09
3.69763e-09
7.25678e-09
1.22955e-08
1.87334e-08
2.63461e-08
3.48213e-08
4.38281e-08
5.30638e-08
6.22802e-08
7.1292e-08
7.99728e-08
8.82461e-08
9.60743e-08
1.03448e-07
1.10379e-07
1.1689e-07
1.23014e-07
1.28788e-07
1.34251e-07
1.39441e-07
1.44395e-07
1.49147e-07
1.53729e-07
1.5817e-07
1.62494e-07
1.66722e-07
1.70872e-07
1.7496e-07
1.78995e-07
1.82989e-07
1.86946e-07
1.9087e-07
1.94763e-07
1.98626e-07
2.02457e-07
2.06253e-07
2.10009e-07
2.1372e-07
2.1738e-07
2.20982e-07
2.24518e-07
2.2798e-07
2.31358e-07
2.34644e-07
2.37828e-07
2.409e-07
2.43849e-07
2.46665e-07
2.49339e-07
2.5186e-07
2.54218e-07
2.56404e-07
2.58407e-07
2.60218e-07
2.6183e-07
2.63233e-07
2.64419e-07
2.65382e-07
2.66115e-07
2.66611e-07
2.66867e-07
2.66876e-07
2.66635e-07
2.66143e-07
2.65349e-07
2.64313e-07
2.6308e-07
2.61577e-07
2.59844e-07
2.57822e-07
2.55519e-07
2.52965e-07
2.50163e-07
2.47115e-07
2.43826e-07
2.40301e-07
2.36545e-07
2.32565e-07
2.28367e-07
2.23961e-07
2.19355e-07
2.14558e-07
2.0958e-07
2.04434e-07
1.99129e-07
1.9368e-07
1.88099e-07
1.82401e-07
1.76599e-07
1.70709e-07
1.64746e-07
1.58727e-07
1.52668e-07
1.46585e-07
1.40494e-07
1.34412e-07
1.28356e-07
1.22341e-07
1.16381e-07
1.10493e-07
1.04689e-07
9.89825e-08
9.33843e-08
8.7905e-08
8.25533e-08
7.73365e-08
7.22603e-08
6.73286e-08
6.25437e-08
5.7906e-08
5.34141e-08
4.90651e-08
4.48541e-08
4.0775e-08
3.68206e-08
3.2983e-08
2.9255e-08
2.56311e-08
2.211e-08
1.86976e-08
1.54112e-08
1.2284e-08
9.36911e-09
6.74014e-09
4.4837e-09
2.68131e-09
1.38088e-09
5.69262e-10
1.61953e-10
2.12725e-11
1.24496e-13
3.65101e-13
6.22977e-11
4.74062e-10
1.67192e-09
4.08947e-09
8.04225e-09
1.36535e-08
2.08391e-08
2.9351e-08
3.88372e-08
4.89218e-08
5.92598e-08
6.95676e-08
7.96336e-08
8.93143e-08
9.85231e-08
1.07218e-07
1.15391e-07
1.23054e-07
1.30237e-07
1.36977e-07
1.43318e-07
1.49304e-07
1.54978e-07
1.60383e-07
1.65557e-07
1.70538e-07
1.75355e-07
1.80036e-07
1.84605e-07
1.8908e-07
1.93479e-07
1.97812e-07
2.02089e-07
2.06316e-07
2.10496e-07
2.14631e-07
2.1872e-07
2.22761e-07
2.26749e-07
2.3068e-07
2.34547e-07
2.38343e-07
2.4206e-07
2.4569e-07
2.49223e-07
2.5265e-07
2.5596e-07
2.59145e-07
2.62193e-07
2.65095e-07
2.6784e-07
2.70418e-07
2.7282e-07
2.75036e-07
2.77058e-07
2.78875e-07
2.80481e-07
2.81868e-07
2.83028e-07
2.83956e-07
2.84645e-07
2.85091e-07
2.85289e-07
2.85236e-07
2.84928e-07
2.84363e-07
2.83536e-07
2.82391e-07
2.81055e-07
2.79482e-07
2.77638e-07
2.75558e-07
2.73226e-07
2.70592e-07
2.67711e-07
2.64588e-07
2.61225e-07
2.57626e-07
2.53797e-07
2.49742e-07
2.45469e-07
2.40983e-07
2.36294e-07
2.31409e-07
2.26336e-07
2.21087e-07
2.15671e-07
2.10099e-07
2.04384e-07
1.98538e-07
1.92573e-07
1.86505e-07
1.80347e-07
1.74115e-07
1.67824e-07
1.6149e-07
1.5513e-07
1.4876e-07
1.42397e-07
1.36056e-07
1.29754e-07
1.23507e-07
1.17329e-07
1.11235e-07
1.05238e-07
9.93496e-08
9.35812e-08
8.79419e-08
8.24396e-08
7.70804e-08
7.18686e-08
6.68068e-08
6.18955e-08
5.71335e-08
5.25177e-08
4.80431e-08
4.37033e-08
3.94906e-08
3.53971e-08
3.1415e-08
2.75388e-08
2.37675e-08
2.01081e-08
1.65797e-08
1.3219e-08
1.00842e-08
7.25536e-09
4.8267e-09
2.88649e-09
1.48659e-09
6.12881e-10
1.7438e-10
2.29072e-11
1.3407e-13
4.00124e-13
6.82999e-11
5.20221e-10
1.83725e-09
4.50122e-09
8.86714e-09
1.50781e-08
2.30447e-08
3.24926e-08
4.30268e-08
5.4224e-08
6.56948e-08
7.71192e-08
8.82593e-08
9.8954e-08
1.09108e-07
1.18674e-07
1.27646e-07
1.3604e-07
1.4389e-07
1.51239e-07
1.58136e-07
1.64632e-07
1.70778e-07
1.76619e-07
1.82199e-07
1.87559e-07
1.92733e-07
1.9775e-07
2.02636e-07
2.07411e-07
2.12093e-07
2.16693e-07
2.21221e-07
2.25682e-07
2.30081e-07
2.34416e-07
2.38687e-07