/*--------------------------------*- C++ -*----------------------------------*\
  =========                 |
  \\      /  F ield         | OpenFOAM: The Open Source CFD Toolbox
   \\    /   O peration     | Website:  https://openfoam.org
    \\  /    A nd           | Version:  12
     \\/     M anipulation  |
\*---------------------------------------------------------------------------*/
FoamFile
{
    format      ascii;
    class       volVectorField;
    location    "4.5";
    object      U;
}
// * * * * * * * * * * * * * * * * * * * * * * * * * * * * * * * * * * * * * //

dimensions      [0 1 -1 0 0 0 0];

internalField   nonuniform List<vector> 
18225
(
(2.7224e-07 -2.62349e-07 0)
(1.15047e-05 -3.59044e-06 0)
(3.45502e-05 -6.01658e-06 0)
(6.48759e-05 -7.06944e-06 0)
(9.72993e-05 -7.20775e-06 0)
(0.000128215 -6.75471e-06 0)
(0.000155197 -5.9353e-06 0)
(0.000176636 -4.90752e-06 0)
(0.000191516 -3.77693e-06 0)
(0.000199261 -2.61165e-06 0)
(0.000199606 -1.45516e-06 0)
(0.000192498 -3.3377e-07 0)
(0.000178029 7.3763e-07 0)
(0.000156382 1.75175e-06 0)
(0.000127792 2.70715e-06 0)
(9.25196e-05 3.60621e-06 0)
(5.08256e-05 4.45258e-06 0)
(2.95974e-06 5.25214e-06 0)
(-5.08491e-05 6.01151e-06 0)
(-0.000110403 6.7388e-06 0)
(-0.000175532 7.44136e-06 0)
(-0.000246099 8.12578e-06 0)
(-0.000321996 8.79784e-06 0)
(-0.000403141 9.46294e-06 0)
(-0.000489475 1.01257e-05 0)
(-0.000580959 1.07899e-05 0)
(-0.000677568 1.14583e-05 0)
(-0.000779287 1.21328e-05 0)
(-0.000886101 1.28145e-05 0)
(-0.000997997 1.35035e-05 0)
(-0.00111496 1.41993e-05 0)
(-0.00123694 1.49005e-05 0)
(-0.00136391 1.56051e-05 0)
(-0.0014958 1.63105e-05 0)
(-0.00163251 1.70134e-05 0)
(-0.00177394 1.771e-05 0)
(-0.00191992 1.83961e-05 0)
(-0.00207028 1.90669e-05 0)
(-0.0022248 1.97173e-05 0)
(-0.00238323 2.03418e-05 0)
(-0.00254528 2.09345e-05 0)
(-0.0027106 2.14892e-05 0)
(-0.00287883 2.19995e-05 0)
(-0.00304953 2.24588e-05 0)
(-0.00322224 2.28602e-05 0)
(-0.00339645 2.31967e-05 0)
(-0.0035716 2.34612e-05 0)
(-0.0037471 2.36468e-05 0)
(-0.0039223 2.37463e-05 0)
(-0.00409652 2.37527e-05 0)
(-0.00426904 2.36594e-05 0)
(-0.00443911 2.34597e-05 0)
(-0.00460592 2.31476e-05 0)
(-0.00476866 2.27172e-05 0)
(-0.00492647 2.21634e-05 0)
(-0.0050785 2.14815e-05 0)
(-0.00522384 2.06677e-05 0)
(-0.00536161 1.97189e-05 0)
(-0.0054909 1.86329e-05 0)
(-0.00561082 1.74087e-05 0)
(-0.00572047 1.60461e-05 0)
(-0.00581897 1.45464e-05 0)
(-0.00590548 1.2912e-05 0)
(-0.00597918 1.11467e-05 0)
(-0.00603928 9.25527e-06 0)
(-0.00608506 7.24089e-06 0)
(-0.00611587 5.11222e-06 0)
(-0.00613103 2.90231e-06 0)
(-0.00613015 5.78237e-07 0)
(-0.00611265 -1.81229e-06 0)
(-0.00607822 -4.26993e-06 0)
(-0.00602659 -6.77723e-06 0)
(-0.00595761 -9.3174e-06 0)
(-0.00587123 -1.1873e-05 0)
(-0.00576751 -1.44255e-05 0)
(-0.00564665 -1.69556e-05 0)
(-0.00550894 -1.94434e-05 0)
(-0.00535481 -2.18685e-05 0)
(-0.00518483 -2.42104e-05 0)
(-0.00499968 -2.64485e-05 0)
(-0.00480014 -2.85627e-05 0)
(-0.00458714 -3.05335e-05 0)
(-0.00436172 -3.23421e-05 0)
(-0.00412501 -3.39709e-05 0)
(-0.00387826 -3.54037e-05 0)
(-0.00362278 -3.66259e-05 0)
(-0.00335998 -3.7625e-05 0)
(-0.00309135 -3.83902e-05 0)
(-0.0028184 -3.89135e-05 0)
(-0.00254271 -3.9189e-05 0)
(-0.00226588 -3.92134e-05 0)
(-0.00198951 -3.89863e-05 0)
(-0.00171521 -3.85099e-05 0)
(-0.00144456 -3.7789e-05 0)
(-0.00117911 -3.6831e-05 0)
(-0.00092035 -3.56461e-05 0)
(-0.000669726 -3.42468e-05 0)
(-0.00042859 -3.26475e-05 0)
(-0.000198207 -3.08651e-05 0)
(2.02598e-05 -2.89179e-05 0)
(0.000225759 -2.68257e-05 0)
(0.000417359 -2.46095e-05 0)
(0.000594257 -2.22916e-05 0)
(0.000755774 -1.98897e-05 0)
(0.00090137 -1.74289e-05 0)
(0.00103065 -1.49332e-05 0)
(0.00114333 -1.24221e-05 0)
(0.00123929 -9.91566e-06 0)
(0.00131852 -7.43335e-06 0)
(0.00138112 -4.99317e-06 0)
(0.00142734 -2.61161e-06 0)
(0.00145751 -3.03685e-07 0)
(0.00147208 1.9172e-06 0)
(0.00147159 4.03835e-06 0)
(0.00145668 6.05082e-06 0)
(0.00142804 7.94707e-06 0)
(0.00138648 9.71668e-06 0)
(0.00133285 1.13525e-05 0)
(0.00126809 1.28468e-05 0)
(0.0011932 1.41912e-05 0)
(0.00110928 1.53756e-05 0)
(0.00101751 1.6387e-05 0)
(0.000919207 1.72079e-05 0)
(0.000815787 1.78146e-05 0)
(0.000708855 1.81746e-05 0)
(0.000600217 1.82441e-05 0)
(0.000491939 1.79635e-05 0)
(0.000386399 1.72531e-05 0)
(0.000286356 1.60082e-05 0)
(0.000195007 1.40965e-05 0)
(0.000116007 1.13646e-05 0)
(5.34018e-05 7.65716e-06 0)
(1.12285e-05 2.88911e-06 0)
(-7.87256e-06 -2.46052e-06 0)
(-5.57523e-06 -5.57638e-06 0)
(3.62651e-06 -1.15071e-05 0)
(3.61129e-05 -3.59685e-05 0)
(9.05004e-05 -5.31461e-05 0)
(0.000157799 -6.10105e-05 0)
(0.000227722 -6.11876e-05 0)
(0.000292675 -5.57045e-05 0)
(0.000347105 -4.62785e-05 0)
(0.000387031 -3.42441e-05 0)
(0.000409752 -2.06019e-05 0)
(0.000413576 -6.08122e-06 0)
(0.000397572 8.79709e-06 0)
(0.000361361 2.36776e-05 0)
(0.000304965 3.83172e-05 0)
(0.000228672 5.25662e-05 0)
(0.000132941 6.63419e-05 0)
(1.83242e-05 7.96129e-05 0)
(-0.000114593 9.23867e-05 0)
(-0.000265228 0.000104694 0)
(-0.000433042 0.000116583 0)
(-0.000617533 0.000128106 0)
(-0.000818266 0.000139322 0)
(-0.00103487 0.000150289 0)
(-0.00126705 0.000161064 0)
(-0.00151456 0.000171694 0)
(-0.0017772 0.000182222 0)
(-0.00205484 0.000192678 0)
(-0.00234733 0.000203084 0)
(-0.00265458 0.000213453 0)
(-0.00297647 0.000223785 0)
(-0.0033129 0.000234073 0)
(-0.00366372 0.000244297 0)
(-0.00402876 0.00025443 0)
(-0.00440779 0.000264437 0)
(-0.00480052 0.000274272 0)
(-0.0052066 0.000283885 0)
(-0.00562561 0.000293218 0)
(-0.00605701 0.000302205 0)
(-0.0065002 0.000310778 0)
(-0.00695447 0.000318861 0)
(-0.00741898 0.000326376 0)
(-0.0078928 0.000333241 0)
(-0.0083749 0.000339371 0)
(-0.00886409 0.00034468 0)
(-0.0093591 0.000349078 0)
(-0.00985852 0.000352476 0)
(-0.0103608 0.000354787 0)
(-0.0108644 0.000355921 0)
(-0.0113674 0.000355792 0)
(-0.0118681 0.000354318 0)
(-0.0123644 0.000351418 0)
(-0.0128543 0.000347016 0)
(-0.0133356 0.000341044 0)
(-0.0138061 0.000333439 0)
(-0.0142635 0.000324145 0)
(-0.0147053 0.000313115 0)
(-0.0151292 0.000300314 0)
(-0.0155328 0.000285716 0)
(-0.0159135 0.000269308 0)
(-0.016269 0.000251087 0)
(-0.0165967 0.000231068 0)
(-0.0168944 0.000209279 0)
(-0.0171596 0.000185761 0)
(-0.0173901 0.000160574 0)
(-0.0175838 0.000133792 0)
(-0.0177386 0.000105504 0)
(-0.0178526 7.58078e-05 0)
(-0.0179243 4.48101e-05 0)
(-0.0179518 1.2847e-05 0)
(-0.0179343 -2.02322e-05 0)
(-0.0178703 -5.40765e-05 0)
(-0.0177591 -8.85222e-05 0)
(-0.0176002 -0.000123371 0)
(-0.0173932 -0.000158409 0)
(-0.0171382 -0.000193411 0)
(-0.0168355 -0.000228145 0)
(-0.0164857 -0.000262368 0)
(-0.0160897 -0.000295835 0)
(-0.0156489 -0.000328299 0)
(-0.0151648 -0.000359512 0)
(-0.0146394 -0.000389229 0)
(-0.0140749 -0.000417211 0)
(-0.0134738 -0.000443227 0)
(-0.0128389 -0.000467058 0)
(-0.0121735 -0.0004885 0)
(-0.0114808 -0.000507364 0)
(-0.0107644 -0.000523484 0)
(-0.0100281 -0.000536712 0)
(-0.00927585 -0.000546927 0)
(-0.00851181 -0.000554035 0)
(-0.00774015 -0.000557968 0)
(-0.00696515 -0.000558689 0)
(-0.0061911 -0.000556192 0)
(-0.0054223 -0.000550498 0)
(-0.004663 -0.000541663 0)
(-0.00391736 -0.000529771 0)
(-0.00318941 -0.000514935 0)
(-0.00248302 -0.000497298 0)
(-0.00180185 -0.000477027 0)
(-0.00114936 -0.000454313 0)
(-0.000528721 -0.00042937 0)
(5.71674e-05 -0.000402427 0)
(0.000605718 -0.00037373 0)
(0.00111467 -0.000343533 0)
(0.0015821 -0.000312106 0)
(0.00200645 -0.00027972 0)
(0.00238649 -0.00024664 0)
(0.00272137 -0.000213134 0)
(0.00301059 -0.000179465 0)
(0.00325398 -0.000145886 0)
(0.00345173 -0.00011264 0)
(0.00360434 -7.99559e-05 0)
(0.00371261 -4.80505e-05 0)
(0.00377766 -1.71249e-05 0)
(0.00380084 1.26359e-05 0)
(0.00378382 4.10464e-05 0)
(0.00372847 6.79637e-05 0)
(0.00363689 9.32262e-05 0)
(0.00351144 0.000116676 0)
(0.00335469 0.000138161 0)
(0.00316943 0.000157517 0)
(0.00295874 0.000174566 0)
(0.00272594 0.000189097 0)
(0.00247468 0.000200862 0)
(0.00220896 0.000209559 0)
(0.00193323 0.000214818 0)
(0.00165243 0.000216185 0)
(0.00137209 0.000213107 0)
(0.00109841 0.000204927 0)
(0.000838347 0.00019089 0)
(0.000599586 0.0001702 0)
(0.00039045 0.000142172 0)
(0.000219486 0.000106604 0)
(9.46153e-05 6.46444e-05 0)
(2.13304e-05 2.1297e-05 0)
(-2.4585e-06 -7.87565e-06 0)
(6.12275e-06 -3.47463e-05 0)
(5.36309e-05 -9.04937e-05 0)
(0.000126649 -0.000126072 0)
(0.000212986 -0.00014099 0)
(0.000299426 -0.000138615 0)
(0.000376261 -0.000122951 0)
(0.000436116 -9.76012e-05 0)
(0.000473476 -6.55361e-05 0)
(0.000484424 -2.90953e-05 0)
(0.00046637 9.93843e-06 0)
(0.000417767 5.02408e-05 0)
(0.000337866 9.08558e-05 0)
(0.000226501 0.000131121 0)
(8.39191e-05 0.000170604 0)
(-8.93629e-05 0.000209048 0)
(-0.000292661 0.00024633 0)
(-0.000525205 0.000282422 0)
(-0.000786206 0.000317366 0)
(-0.0010749 0.000351251 0)
(-0.00139058 0.000384197 0)
(-0.00173262 0.000416334 0)
(-0.00210046 0.000447799 0)
(-0.00249363 0.000478718 0)
(-0.00291175 0.000509205 0)
(-0.00335447 0.000539353 0)
(-0.0038215 0.000569232 0)
(-0.0043126 0.000598889 0)
(-0.00482751 0.000628341 0)
(-0.00536599 0.000657581 0)
(-0.00592775 0.000686575 0)
(-0.00651247 0.000715262 0)
(-0.00711977 0.00074356 0)
(-0.00774915 0.00077136 0)
(-0.00840006 0.000798534 0)
(-0.00907179 0.000824933 0)
(-0.00976355 0.000850392 0)
(-0.0104744 0.000874727 0)
(-0.0112031 0.000897744 0)
(-0.0119485 0.000919233 0)
(-0.0127092 0.000938975 0)
(-0.0134835 0.000956744 0)
(-0.0142696 0.000972306 0)
(-0.0150656 0.000985423 0)
(-0.0158692 0.000995854 0)
(-0.0166782 0.00100336 0)
(-0.01749 0.0010077 0)
(-0.0183019 0.00100864 0)
(-0.019111 0.00100596 0)
(-0.0199144 0.00099943 0)
(-0.0207087 0.000988854 0)
(-0.0214908 0.000974038 0)
(-0.022257 0.000954807 0)
(-0.023004 0.000931009 0)
(-0.0237279 0.000902512 0)
(-0.0244252 0.00086921 0)
(-0.0250919 0.000831028 0)
(-0.0257243 0.000787919 0)
(-0.0263186 0.000739869 0)
(-0.0268711 0.000686902 0)
(-0.0273779 0.000629078 0)
(-0.0278355 0.000566497 0)
(-0.0282403 0.0004993 0)
(-0.0285889 0.000427671 0)
(-0.0288783 0.000351835 0)
(-0.0291052 0.00027206 0)
(-0.0292671 0.000188654 0)
(-0.0293615 0.000101974 0)
(-0.0293861 1.24764e-05 0)
(-0.0293391 -7.94595e-05 0)
(-0.0292191 -0.000173352 0)
(-0.0290249 -0.000268674 0)
(-0.0287558 -0.000364874 0)
(-0.0284117 -0.000461373 0)
(-0.0279927 -0.000557566 0)
(-0.0274994 -0.000652828 0)
(-0.0269331 -0.000746519 0)
(-0.0262952 -0.000837987 0)
(-0.0255879 -0.000926579 0)
(-0.0248137 -0.00101164 0)
(-0.0239758 -0.00109253 0)
(-0.0230776 -0.00116863 0)
(-0.022123 -0.00123933 0)
(-0.0211165 -0.00130406 0)
(-0.0200629 -0.0013623 0)
(-0.0189673 -0.00141355 0)
(-0.0178352 -0.00145737 0)
(-0.0166724 -0.00149339 0)
(-0.0154849 -0.0015213 0)
(-0.0142789 -0.00154085 0)
(-0.013061 -0.00155186 0)
(-0.0118375 -0.00155424 0)
(-0.010615 -0.00154796 0)
(-0.00939998 -0.00153309 0)
(-0.008199 -0.00150976 0)
(-0.00701836 -0.00147818 0)
(-0.0058642 -0.00143865 0)
(-0.00474247 -0.00139154 0)
(-0.00365879 -0.00133727 0)
(-0.00261848 -0.00127635 0)
(-0.00162647 -0.00120931 0)
(-0.000687263 -0.00113676 0)
(0.000195067 -0.00105935 0)
(0.00101694 -0.000977745 0)
(0.00177529 -0.000892642 0)
(0.00246756 -0.000804755 0)
(0.00309171 -0.0007148 0)
(0.00364627 -0.000623492 0)
(0.00413028 -0.000531538 0)
(0.00454333 -0.000439622 0)
(0.0048855 -0.00034841 0)
(0.0051574 -0.000258533 0)
(0.00536011 -0.000170596 0)
(0.00549518 -8.51669e-05 0)
(0.00556461 -2.78209e-06 0)
(0.00557079 7.60557e-05 0)
(0.00551656 0.000150874 0)
(0.00540512 0.000221208 0)
(0.00524007 0.000286603 0)
(0.00502536 0.000346596 0)
(0.00476537 0.000400707 0)
(0.00446485 0.000448411 0)
(0.00412904 0.00048912 0)
(0.00376361 0.000522154 0)
(0.00337482 0.000546718 0)
(0.00296952 0.00056187 0)
(0.00255527 0.000566503 0)
(0.00214038 0.000559334 0)
(0.00173402 0.000538914 0)
(0.00134618 0.000503698 0)
(0.000987619 0.000452226 0)
(0.000669576 0.000383513 0)
(0.000403172 0.000297835 0)
(0.000198646 0.000198323 0)
(6.48322e-05 9.46278e-05 0)
(2.90715e-06 1.12661e-05 0)
(7.26931e-06 -6.54872e-05 0)
(6.18232e-05 -0.0001582 0)
(0.000141899 -0.000212537 0)
(0.000232683 -0.000232042 0)
(0.000318962 -0.000222694 0)
(0.00038978 -0.000190805 0)
(0.00043675 -0.000142101 0)
(0.000453463 -8.14238e-05 0)
(0.000435249 -1.26931e-05 0)
(0.000378917 6.10191e-05 0)
(0.000282468 0.000137372 0)
(0.000144831 0.000214641 0)
(-3.43539e-05 0.000291595 0)
(-0.000254932 0.000367401 0)
(-0.000516394 0.000441541 0)
(-0.000818005 0.000513736 0)
(-0.00115891 0.000583892 0)
(-0.0015382 0.000652045 0)
(-0.00195498 0.000718321 0)
(-0.00240842 0.000782904 0)
(-0.00289772 0.000846005 0)
(-0.0034222 0.000907844 0)
(-0.00398124 0.000968627 0)
(-0.00457431 0.00102854 0)
(-0.00520092 0.00108773 0)
(-0.00586064 0.00114631 0)
(-0.00655306 0.00120434 0)
(-0.00727776 0.00126184 0)
(-0.00803431 0.00131877 0)
(-0.0088222 0.00137505 0)
(-0.00964089 0.00143055 0)
(-0.0104897 0.0014851 0)
(-0.0113678 0.00153847 0)
(-0.0122744 0.00159041 0)
(-0.0132083 0.00164063 0)
(-0.0141683 0.0016888 0)
(-0.0151529 0.00173457 0)
(-0.0161605 0.00177755 0)
(-0.0171891 0.00181733 0)
(-0.0182367 0.00185351 0)
(-0.019301 0.00188564 0)
(-0.0203794 0.00191328 0)
(-0.021469 0.00193598 0)
(-0.0225668 0.00195328 0)
(-0.0236696 0.00196473 0)
(-0.0247739 0.00196989 0)
(-0.0258758 0.00196833 0)
(-0.0269715 0.00195963 0)
(-0.0280567 0.00194339 0)
(-0.0291273 0.00191924 0)
(-0.0301786 0.00188685 0)
(-0.0312061 0.0018459 0)
(-0.0322049 0.00179614 0)
(-0.0331703 0.00173735 0)
(-0.0340972 0.00166937 0)
(-0.0349808 0.00159207 0)
(-0.035816 0.00150541 0)
(-0.0365978 0.00140941 0)
(-0.0373215 0.00130414 0)
(-0.0379822 0.00118976 0)
(-0.0385752 0.00106649 0)
(-0.0390961 0.000934631 0)
(-0.0395406 0.000794571 0)
(-0.0399048 0.000646767 0)
(-0.0401849 0.000491759 0)
(-0.0403774 0.000330163 0)
(-0.0404795 0.000162682 0)
(-0.0404885 -9.88274e-06 0)
(-0.0404023 -0.000186717 0)
(-0.0402191 -0.000366909 0)
(-0.0399378 -0.000549474 0)
(-0.0395577 -0.000733372 0)
(-0.0390787 -0.000917518 0)
(-0.0385012 -0.00110078 0)
(-0.0378264 -0.001282 0)
(-0.0370559 -0.00145997 0)
(-0.036192 -0.00163352 0)
(-0.0352375 -0.00180141 0)
(-0.0341958 -0.00196247 0)
(-0.0330711 -0.0021155 0)
(-0.0318679 -0.00225937 0)
(-0.0305915 -0.00239298 0)
(-0.0292476 -0.00251529 0)
(-0.0278424 -0.00262533 0)
(-0.0263825 -0.0027222 0)
(-0.024875 -0.00280512 0)
(-0.0233274 -0.00287341 0)
(-0.0217474 -0.00292647 0)
(-0.0201431 -0.00296388 0)
(-0.0185226 -0.0029853 0)
(-0.0168942 -0.00299056 0)
(-0.0152664 -0.0029796 0)
(-0.0136475 -0.00295254 0)
(-0.0120458 -0.00290962 0)
(-0.0104695 -0.00285123 0)
(-0.00892652 -0.00277787 0)
(-0.00742451 -0.00269023 0)
(-0.0059708 -0.00258906 0)
(-0.0045723 -0.00247528 0)
(-0.00323545 -0.00234988 0)
(-0.0019662 -0.00221396 0)
(-0.000769913 -0.00206868 0)
(0.000348614 -0.00191529 0)
(0.00138523 -0.00175506 0)
(0.00233644 -0.00158932 0)
(0.00319941 -0.00141939 0)
(0.00397198 -0.0012466 0)
(0.00465271 -0.00107228 0)
(0.0052408 -0.000897719 0)
(0.00573614 -0.000724178 0)
(0.0061393 -0.000552868 0)
(0.00645145 -0.000384947 0)
(0.00667441 -0.000221515 0)
(0.00681058 -6.36245e-05 0)
(0.00686295 8.77253e-05 0)
(0.00683507 0.000231588 0)
(0.006731 0.000367041 0)
(0.00655535 0.000493171 0)
(0.00631325 0.000609055 0)
(0.00601039 0.000713734 0)
(0.00565297 0.000806184 0)
(0.0052478 0.000885275 0)
(0.00480232 0.000949736 0)
(0.00432463 0.000998111 0)
(0.00382358 0.00102873 0)
(0.00330883 0.0010397 0)
(0.00279088 0.00102887 0)
(0.00228112 0.000993937 0)
(0.00179174 0.00093257 0)
(0.00133568 0.000842722 0)
(0.000926205 0.000723261 0)
(0.000576399 0.000575068 0)
(0.00029887 0.000403004 0)
(0.000107101 0.000219798 0)
(7.71087e-06 5.36023e-05 0)
(7.49147e-06 -9.84882e-05 0)
(6.1995e-05 -0.000228487 0)
(0.000138794 -0.000298722 0)
(0.000221324 -0.000318049 0)
(0.000293184 -0.000295809 0)
(0.000342708 -0.000240947 0)
(0.000360992 -0.000161458 0)
(0.000341191 -6.41463e-05 0)
(0.000278256 4.54001e-05 0)
(0.000168667 0.000162729 0)
(1.01585e-05 0.00028439 0)
(-0.000198538 0.000407787 0)
(-0.000457924 0.000531039 0)
(-0.000767929 0.000652842 0)
(-0.00112808 0.000772361 0)
(-0.00153765 0.000889122 0)
(-0.00199573 0.00100293 0)
(-0.00250136 0.00111379 0)
(-0.00305358 0.00122184 0)
(-0.00365144 0.00132734 0)
(-0.00429407 0.00143055 0)
(-0.00498066 0.00153179 0)
(-0.00571048 0.00163133 0)
(-0.00648285 0.00172941 0)
(-0.00729716 0.00182625 0)
(-0.00815281 0.00192197 0)
(-0.00904921 0.00201663 0)
(-0.00998576 0.00211024 0)
(-0.0109618 0.00220271 0)
(-0.0119766 0.00229388 0)
(-0.0130292 0.00238351 0)
(-0.0141188 0.00247131 0)
(-0.0152441 0.0025569 0)
(-0.0164039 0.00263986 0)
(-0.0175966 0.0027197 0)
(-0.0188205 0.00279588 0)
(-0.0200735 0.00286783 0)
(-0.0213534 0.00293492 0)
(-0.0226577 0.00299651 0)
(-0.0239836 0.00305191 0)
(-0.0253281 0.00310044 0)
(-0.0266876 0.00314138 0)
(-0.0280587 0.00317401 0)
(-0.0294373 0.00319763 0)
(-0.0308194 0.00321153 0)
(-0.0322003 0.00321501 0)
(-0.0335753 0.00320741 0)
(-0.0349396 0.00318808 0)
(-0.0362878 0.00315643 0)
(-0.0376146 0.00311191 0)
(-0.0389145 0.003054 0)
(-0.0401817 0.00298226 0)
(-0.0414103 0.00289633 0)
(-0.0425945 0.00279591 0)
(-0.0437282 0.00268077 0)
(-0.0448055 0.00255081 0)
(-0.0458204 0.00240598 0)
(-0.046767 0.00224637 0)
(-0.0476394 0.00207216 0)
(-0.0484321 0.00188365 0)
(-0.0491396 0.00168125 0)
(-0.0497566 0.00146549 0)
(-0.0502782 0.00123703 0)
(-0.0506999 0.000996634 0)
(-0.0510174 0.000745203 0)
(-0.0512269 0.000483753 0)
(-0.0513251 0.000213422 0)
(-0.0513091 -6.45304e-05 0)
(-0.0511765 -0.000348766 0)
(-0.0509257 -0.00063783 0)
(-0.0505555 -0.00093017 0)
(-0.0500654 -0.00122415 0)
(-0.0494555 -0.00151807 0)
(-0.0487266 -0.00181016 0)
(-0.0478802 -0.00209861 0)
(-0.0469185 -0.00238157 0)
(-0.0458443 -0.00265718 0)
(-0.0446613 -0.00292358 0)
(-0.0433736 -0.00317893 0)
(-0.0419863 -0.00342141 0)
(-0.040505 -0.00364928 0)
(-0.0389358 -0.00386083 0)
(-0.0372856 -0.00405449 0)
(-0.0355619 -0.00422877 0)
(-0.0337724 -0.00438231 0)
(-0.0319256 -0.0045139 0)
(-0.0300304 -0.00462248 0)
(-0.0280958 -0.00470718 0)
(-0.0261313 -0.0047673 0)
(-0.0241466 -0.00480235 0)
(-0.0221515 -0.00481204 0)
(-0.0201559 -0.0047963 0)
(-0.0181698 -0.00475528 0)
(-0.0162028 -0.00468932 0)
(-0.0142648 -0.00459902 0)
(-0.0123651 -0.00448515 0)
(-0.0105129 -0.00434871 0)
(-0.00871685 -0.00419088 0)
(-0.00698535 -0.00401303 0)
(-0.00532615 -0.00381667 0)
(-0.00374643 -0.00360348 0)
(-0.00225277 -0.00337525 0)
(-0.000851058 -0.00313389 0)
(0.000453546 -0.00288137 0)
(0.00165663 -0.00261974 0)
(0.00275455 -0.00235105 0)
(0.00374448 -0.0020774 0)
(0.00462439 -0.00180086 0)
(0.00539306 -0.00152347 0)
(0.00605006 -0.00124722 0)
(0.00659577 -0.000974056 0)
(0.00703134 -0.000705828 0)
(0.00735869 -0.000444333 0)
(0.00758048 -0.000191281 0)
(0.00770004 5.17102e-05 0)
(0.00772146 0.000283049 0)
(0.00764948 0.000501217 0)
(0.0074895 0.000704705 0)
(0.00724759 0.000891983 0)
(0.00693049 0.00106148 0)
(0.00654561 0.00121154 0)
(0.00610108 0.00134036 0)
(0.00560574 0.00144597 0)
(0.00506922 0.00152613 0)
(0.00450199 0.00157838 0)
(0.00391535 0.00159994 0)
(0.0033215 0.00158781 0)
(0.00273351 0.00153882 0)
(0.00216527 0.0014499 0)
(0.00163134 0.00131845 0)
(0.00114672 0.00114316 0)
(0.000726347 0.000925172 0)
(0.000385573 0.000670118 0)
(0.000143099 0.000391496 0)
(1.14653e-05 0.000116569 0)
(7.07672e-06 -0.000129898 0)
(5.58288e-05 -0.000293011 0)
(0.000120477 -0.000373667 0)
(0.00018366 -0.000386315 0)
(0.00022863 -0.000344064 0)
(0.000243474 -0.000258736 0)
(0.000219144 -0.000140699 0)
(0.000148703 1.23467e-06 0)
(2.70192e-05 0.00015979 0)
(-0.000149511 0.000329111 0)
(-0.000383236 0.000504608 0)
(-0.000675499 0.000682788 0)
(-0.00102686 0.00086108 0)
(-0.0014373 0.00103768 0)
(-0.00190637 0.0012114 0)
(-0.00243333 0.00138155 0)
(-0.00301728 0.0015478 0)
(-0.00365724 0.00171011 0)
(-0.00435219 0.00186863 0)
(-0.00510112 0.00202365 0)
(-0.0059031 0.00217549 0)
(-0.00675722 0.00232453 0)
(-0.00766266 0.00247112 0)
(-0.00861861 0.00261554 0)
(-0.00962431 0.00275803 0)
(-0.010679 0.00289873 0)
(-0.0117819 0.00303767 0)
(-0.0129323 0.00317482 0)
(-0.0141291 0.00330999 0)
(-0.0153713 0.00344292 0)
(-0.0166579 0.00357325 0)
(-0.0179873 0.0037005 0)
(-0.0193582 0.0038241 0)
(-0.0207688 0.00394343 0)
(-0.0222169 0.00405774 0)
(-0.0237004 0.00416625 0)
(-0.0252166 0.00426811 0)
(-0.0267627 0.0043624 0)
(-0.0283354 0.00444819 0)
(-0.0299313 0.00452449 0)
(-0.0315465 0.00459031 0)
(-0.0331769 0.00464462 0)
(-0.0348179 0.0046864 0)
(-0.0364648 0.00471465 0)
(-0.0381124 0.00472837 0)
(-0.0397553 0.00472659 0)
(-0.0413879 0.00470839 0)
(-0.0430041 0.00467287 0)
(-0.044598 0.00461923 0)
(-0.0461629 0.00454671 0)
(-0.0476925 0.00445465 0)
(-0.0491801 0.00434248 0)
(-0.0506187 0.00420972 0)
(-0.0520016 0.00405601 0)
(-0.0533219 0.00388113 0)
(-0.0545727 0.00368497 0)
(-0.0557472 0.00346756 0)
(-0.0568388 0.0032291 0)
(-0.0578408 0.00296991 0)
(-0.058747 0.0026905 0)
(-0.0595513 0.00239154 0)
(-0.0602479 0.00207384 0)
(-0.0608314 0.00173841 0)
(-0.0612969 0.0013864 0)
(-0.0616397 0.00101917 0)
(-0.0618558 0.000638185 0)
(-0.0619417 0.00024512 0)
(-0.0618944 -0.00015822 0)
(-0.0617115 -0.00056989 0)
(-0.0613915 -0.000987808 0)
(-0.0609331 -0.00140977 0)
(-0.0603363 -0.00183345 0)
(-0.0596013 -0.00225645 0)
(-0.0587293 -0.00267627 0)
(-0.0577223 -0.00309038 0)
(-0.0565829 -0.0034962 0)
(-0.0553145 -0.00389112 0)
(-0.0539214 -0.00427256 0)
(-0.0524086 -0.00463794 0)
(-0.0507817 -0.00498476 0)
(-0.0490471 -0.00531058 0)
(-0.047212 -0.00561307 0)
(-0.0452841 -0.00589003 0)
(-0.0432718 -0.0061394 0)
(-0.041184 -0.0063593 0)
(-0.0390301 -0.00654806 0)
(-0.0368201 -0.00670422 0)
(-0.0345642 -0.00682654 0)
(-0.0322731 -0.00691408 0)
(-0.0299576 -0.00696613 0)
(-0.0276288 -0.00698228 0)
(-0.0252978 -0.00696241 0)
(-0.0229758 -0.0069067 0)
(-0.0206739 -0.00681562 0)
(-0.018403 -0.00668996 0)
(-0.0161737 -0.00653077 0)
(-0.0139966 -0.0063394 0)
(-0.0118815 -0.00611746 0)
(-0.009838 -0.00586683 0)
(-0.007875 -0.0055896 0)
(-0.00600086 -0.00528808 0)
(-0.00422322 -0.00496475 0)
(-0.00254899 -0.00462224 0)
(-0.000984301 -0.00426332 0)
(0.000465549 -0.00389083 0)
(0.00179613 -0.00350768 0)
(0.00300388 -0.00311681 0)
(0.00408617 -0.00272116 0)
(0.00504127 -0.00232362 0)
(0.00586835 -0.00192707 0)
(0.00656751 -0.00153427 0)
(0.00713974 -0.00114792 0)
(0.00758691 -0.000770638 0)
(0.00791174 -0.000404903 0)
(0.00811786 -5.31509e-05 0)
(0.00820964 0.000282307 0)
(0.0081923 0.000599207 0)
(0.00807185 0.000895313 0)
(0.00785509 0.00116836 0)
(0.00754958 0.00141605 0)
(0.00716371 0.00163597 0)
(0.00670663 0.00182555 0)
(0.00618835 0.00198202 0)
(0.00561972 0.00210231 0)
(0.00501245 0.00218308 0)
(0.00437917 0.00222068 0)
(0.0037334 0.00221121 0)
(0.00308954 0.00215066 0)
(0.00246282 0.00203521 0)
(0.00186923 0.00186166 0)
(0.00132532 0.00162825 0)
(0.000848006 0.00133584 0)
(0.000455515 0.000989643 0)
(0.000171615 0.000601931 0)
(1.42447e-05 0.000196176 0)
(6.21842e-06 -0.000156872 0)
(4.47208e-05 -0.000345053 0)
(8.97503e-05 -0.00042815 0)
(0.000123989 -0.000425965 0)
(0.000131124 -0.000355467 0)
(9.94472e-05 -0.00023144 0)
(2.01027e-05 -6.66825e-05 0)
(-0.00011365 0.000127991 0)
(-0.000306777 0.000343632 0)
(-0.000562755 0.000573007 0)
(-0.000883846 0.000810405 0)
(-0.00127134 0.00105144 0)
(-0.00172577 0.00129287 0)
(-0.00224709 0.00153238 0)
(-0.00283484 0.00176842 0)
(-0.0034883 0.00200007 0)
(-0.00420655 0.00222687 0)
(-0.00498857 0.00244872 0)
(-0.00583334 0.00266575 0)
(-0.00673982 0.00287828 0)
(-0.007707 0.00308668 0)
(-0.00873392 0.00329137 0)
(-0.00981965 0.00349273 0)
(-0.0109633 0.00369109 0)
(-0.0121639 0.00388668 0)
(-0.0134206 0.00407962 0)
(-0.0147324 0.0042699 0)
(-0.0160982 0.00445738 0)
(-0.0175169 0.00464179 0)
(-0.018987 0.0048227 0)
(-0.0205072 0.00499958 0)
(-0.0220756 0.00517173 0)
(-0.0236903 0.00533836 0)
(-0.025349 0.00549858 0)
(-0.0270492 0.00565136 0)
(-0.028788 0.00579561 0)
(-0.0305623 0.00593017 0)
(-0.0323684 0.0060538 0)
(-0.0342026 0.00616521 0)
(-0.0360605 0.00626308 0)
(-0.0379375 0.00634607 0)
(-0.0398287 0.00641281 0)
(-0.0417287 0.00646196 0)
(-0.043632 0.00649217 0)
(-0.0455324 0.00650214 0)
(-0.0474238 0.0064906 0)
(-0.0492994 0.00645636 0)
(-0.0511526 0.00639829 0)
(-0.0529761 0.00631535 0)
(-0.0547628 0.0062066 0)
(-0.0565052 0.00607123 0)
(-0.0581958 0.00590855 0)
(-0.0598269 0.00571802 0)
(-0.0613909 0.00549924 0)
(-0.0628801 0.00525201 0)
(-0.0642869 0.00497627 0)
(-0.0656039 0.00467218 0)
(-0.0668237 0.00434009 0)
(-0.0679393 0.00398054 0)
(-0.0689439 0.00359429 0)
(-0.0698308 0.00318232 0)
(-0.070594 0.00274582 0)
(-0.0712277 0.0022862 0)
(-0.0717266 0.00180509 0)
(-0.0720861 0.00130431 0)
(-0.0723019 0.000785926 0)
(-0.0723705 0.000252173 0)
(-0.0722888 -0.000294509 0)
(-0.0720546 -0.000851507 0)
(-0.0716663 -0.00141604 0)
(-0.0711232 -0.00198517 0)
(-0.0704251 -0.00255585 0)
(-0.0695727 -0.00312489 0)
(-0.0685676 -0.00368902 0)
(-0.0674121 -0.00424492 0)
(-0.0661092 -0.0047892 0)
(-0.0646631 -0.00531848 0)
(-0.0630783 -0.00582938 0)
(-0.0613604 -0.00631857 0)
(-0.0595158 -0.00678278 0)
(-0.0575515 -0.00721886 0)
(-0.0554754 -0.00762377 0)
(-0.0532959 -0.00799467 0)
(-0.0510222 -0.00832888 0)
(-0.0486641 -0.00862398 0)
(-0.0462317 -0.00887778 0)
(-0.0437359 -0.00908838 0)
(-0.0411879 -0.00925417 0)
(-0.0385993 -0.00937391 0)
(-0.0359819 -0.00944665 0)
(-0.0333477 -0.00947185 0)
(-0.0307089 -0.00944932 0)
(-0.0280777 -0.00937925 0)
(-0.0254662 -0.00926223 0)
(-0.0228865 -0.00909922 0)
(-0.0203503 -0.00889157 0)
(-0.017869 -0.00864098 0)
(-0.0154538 -0.00834952 0)
(-0.0131152 -0.00801957 0)
(-0.0108633 -0.00765384 0)
(-0.00870731 -0.00725529 0)
(-0.00665598 -0.00682714 0)
(-0.00471718 -0.00637282 0)
(-0.00289794 -0.00589592 0)
(-0.00120444 -0.00540017 0)
(0.000358097 -0.00488939 0)
(0.00178538 -0.00436745 0)
(0.00307411 -0.00383824 0)
(0.00422198 -0.00330564 0)
(0.00522771 -0.00277345 0)
(0.006091 -0.00224543 0)
(0.00681259 -0.00172521 0)
(0.00739417 -0.00121633 0)
(0.00783843 -0.000722214 0)
(0.00814904 -0.000246157 0)
(0.00833056 0.000208626 0)
(0.00838854 0.000639013 0)
(0.00832942 0.00104194 0)
(0.00816051 0.00141426 0)
(0.00789001 0.00175287 0)
(0.00752703 0.0020545 0)
(0.00708156 0.00231574 0)
(0.0065645 0.00253291 0)
(0.00598765 0.00270207 0)
(0.00536374 0.00281896 0)
(0.00470643 0.00287903 0)
(0.00403031 0.00287748 0)
(0.00335086 0.00280944 0)
(0.00268447 0.00267025 0)
(0.0020484 0.00245594 0)
(0.00146074 0.00216397 0)
(0.000940372 0.00179427 0)
(0.00050832 0.00135063 0)
(0.000192797 0.000842632 0)
(1.61942e-05 0.000288389 0)
(5.04819e-06 -0.000177227 0)
(2.97313e-05 -0.000379095 0)
(4.88967e-05 -0.000454284 0)
(4.59283e-05 -0.000427481 0)
(5.6344e-06 -0.000319366 0)
(-8.30624e-05 -0.000147671 0)
(-0.000228505 7.24242e-05 0)
(-0.000436978 0.000328143 0)
(-0.000713055 0.000608924 0)
(-0.0010599 0.00090621 0)
(-0.00147953 0.00121322 0)
(-0.00197306 0.00152474 0)
(-0.00254089 0.00183686 0)
(-0.0031829 0.00214679 0)
(-0.00389858 0.00245264 0)
(-0.00468716 0.00275328 0)
(-0.00554771 0.00304809 0)
(-0.0064792 0.00333693 0)
(-0.00748058 0.0036199 0)
(-0.00855078 0.00389732 0)
(-0.00968875 0.00416961 0)
(-0.0108935 0.00443719 0)
(-0.0121639 0.00470049 0)
(-0.0134991 0.00495981 0)
(-0.0148979 0.00521536 0)
(-0.0163593 0.00546722 0)
(-0.017882 0.00571529 0)
(-0.0194648 0.0059593 0)
(-0.0211062 0.00619882 0)
(-0.0228045 0.00643326 0)
(-0.0245577 0.00666183 0)
(-0.0263639 0.00688361 0)
(-0.0282204 0.00709752 0)
(-0.0301246 0.00730235 0)
(-0.0320733 0.00749676 0)
(-0.0340632 0.00767933 0)
(-0.0360903 0.0078485 0)
(-0.0381505 0.0080027 0)
(-0.0402391 0.00814024 0)
(-0.0423512 0.00825944 0)
(-0.0444814 0.00835857 0)
(-0.046624 0.0084359 0)
(-0.0487727 0.00848973 0)
(-0.0509212 0.00851837 0)
(-0.0530626 0.0085202 0)
(-0.0551897 0.00849365 0)
(-0.0572951 0.00843724 0)
(-0.0593713 0.00834962 0)
(-0.0614102 0.00822953 0)
(-0.0634038 0.00807587 0)
(-0.0653439 0.00788769 0)
(-0.0672222 0.00766421 0)
(-0.0690304 0.00740487 0)
(-0.0707601 0.00710927 0)
(-0.0724031 0.00677726 0)
(-0.0739512 0.00640891 0)
(-0.0753965 0.00600452 0)
(-0.076731 0.00556466 0)
(-0.0779473 0.00509016 0)
(-0.0790383 0.00458208 0)
(-0.079997 0.00404177 0)
(-0.0808171 0.00347086 0)
(-0.0814927 0.00287122 0)
(-0.0820183 0.002245 0)
(-0.0823892 0.0015946 0)
(-0.0826011 0.00092268 0)
(-0.0826504 0.000232129 0)
(-0.0825343 -0.00047393 0)
(-0.0822506 -0.00119216 0)
(-0.081798 -0.00191904 0)
(-0.0811757 -0.00265086 0)
(-0.0803839 -0.00338376 0)
(-0.0794238 -0.00411375 0)
(-0.078297 -0.00483675 0)
(-0.0770062 -0.00554859 0)
(-0.0755549 -0.00624507 0)
(-0.0739476 -0.00692196 0)
(-0.0721893 -0.00757507 0)
(-0.0702861 -0.00820026 0)
(-0.0682448 -0.00879349 0)
(-0.066073 -0.00935085 0)
(-0.063779 -0.00986857 0)
(-0.0613719 -0.0103431 0)
(-0.0588614 -0.0107712 0)
(-0.056258 -0.0111498 0)
(-0.0535725 -0.0114761 0)
(-0.0508165 -0.0117479 0)
(-0.0480018 -0.0119631 0)
(-0.0451408 -0.0121201 0)
(-0.0422461 -0.0122177 0)
(-0.0393306 -0.0122552 0)
(-0.0364071 -0.0122324 0)
(-0.0334889 -0.0121494 0)
(-0.0305889 -0.0120068 0)
(-0.0277201 -0.0118059 0)
(-0.0248952 -0.0115482 0)
(-0.0221266 -0.0112358 0)
(-0.0194262 -0.0108712 0)
(-0.0168058 -0.0104574 0)
(-0.0142762 -0.00999753 0)
(-0.0118477 -0.00949537 0)
(-0.00953007 -0.00895487 0)
(-0.00733197 -0.00838026 0)
(-0.0052614 -0.00777604 0)
(-0.00332538 -0.00714685 0)
(-0.00152995 -0.00649747 0)
(0.00011985 -0.0058328 0)
(0.00162002 -0.00515774 0)
(0.00296763 -0.00447721 0)
(0.00416086 -0.00379607 0)
(0.00519895 -0.00311913 0)
(0.00608227 -0.00245107 0)
(0.00681224 -0.00179647 0)
(0.00739141 -0.00115977 0)
(0.00782334 -0.000545282 0)
(0.0081127 4.28067e-05 0)
(0.00826512 0.000600362 0)
(0.00828728 0.00112334 0)
(0.00818698 0.00160778 0)
(0.00797286 0.00204951 0)
(0.00765446 0.0024444 0)
(0.00724246 0.00278808 0)
(0.00674844 0.00307593 0)
(0.00618497 0.00330306 0)
(0.00556556 0.00346429 0)
(0.00490471 0.0035541 0)
(0.00421787 0.00356677 0)
(0.00352147 0.00349648 0)
(0.00283293 0.00333764 0)
(0.0021707 0.0030853 0)
(0.00155432 0.00273577 0)
(0.00100455 0.00228747 0)
(0.000544926 0.00174198 0)
(0.000207294 0.00110532 0)
(1.74604e-05 0.000389536 0)
(3.65116e-06 -0.000189246 0)