/*--------------------------------*- C++ -*----------------------------------*\
  =========                 |
  \\      /  F ield         | OpenFOAM: The Open Source CFD Toolbox
   \\    /   O peration     | Website:  https://openfoam.org
    \\  /    A nd           | Version:  12
     \\/     M anipulation  |
\*---------------------------------------------------------------------------*/
FoamFile
{
    format      ascii;
    class       volScalarField;
    location    "4.5";
    object      nut;
}
// * * * * * * * * * * * * * * * * * * * * * * * * * * * * * * * * * * * * * //

dimensions      [0 2 -1 0 0 0 0];

internalField   nonuniform List<scalar> 
5625
(
1.38572e-17
6.91813e-17
1.50971e-16
2.48372e-16
3.56239e-16
4.71308e-16
5.91129e-16
7.1372e-16
8.37426e-16
9.60847e-16
1.08281e-15
1.20235e-15
1.31868e-15
1.43122e-15
1.53954e-15
1.6434e-15
1.74267e-15
1.83737e-15
1.92759e-15
2.01351e-15
2.09534e-15
2.17332e-15
2.24766e-15
2.31856e-15
2.38615e-15
2.45053e-15
2.51169e-15
2.56958e-15
2.62405e-15
2.67489e-15
2.72181e-15
2.76447e-15
2.80247e-15
2.83536e-15
2.86267e-15
2.88391e-15
2.89856e-15
2.90601e-15
2.90627e-15
2.89869e-15
2.88286e-15
2.8585e-15
2.8254e-15
2.78344e-15
2.73262e-15
2.67305e-15
2.60497e-15
2.52871e-15
2.44475e-15
2.35366e-15
2.25614e-15
2.15294e-15
2.04492e-15
1.93299e-15
1.81808e-15
1.70115e-15
1.58314e-15
1.46497e-15
1.34751e-15
1.23157e-15
1.11785e-15
1.00701e-15
8.99577e-16
7.96001e-16
6.96643e-16
6.01785e-16
5.11666e-16
4.26457e-16
3.46352e-16
2.71589e-16
2.02527e-16
1.39758e-16
8.43517e-17
3.84995e-17
7.70405e-18
6.92654e-17
6.28466e-15
2.1265e-14
3.91086e-14
5.83615e-14
7.85844e-14
9.94545e-14
1.20686e-13
1.42025e-13
1.6325e-13
1.84173e-13
2.04637e-13
2.24515e-13
2.43713e-13
2.62164e-13
2.79828e-13
2.96692e-13
3.12761e-13
3.28057e-13
3.42614e-13
3.56474e-13
3.69679e-13
3.82272e-13
3.94289e-13
4.05755e-13
4.16688e-13
4.2709e-13
4.36953e-13
4.46254e-13
4.54955e-13
4.63008e-13
4.70355e-13
4.76926e-13
4.82645e-13
4.87428e-13
4.9119e-13
4.9384e-13
4.95243e-13
4.95406e-13
4.94225e-13
4.91633e-13
4.87577e-13
4.82018e-13
4.74935e-13
4.66324e-13
4.56203e-13
4.44608e-13
4.316e-13
4.17256e-13
4.01677e-13
3.84981e-13
3.67301e-13
3.48786e-13
3.29593e-13
3.09886e-13
2.89831e-13
2.69595e-13
2.49335e-13
2.29204e-13
2.0934e-13
1.89869e-13
1.70898e-13
1.52519e-13
1.34808e-13
1.17822e-13
1.01604e-13
8.61829e-14
7.15872e-14
5.78363e-14
4.49493e-14
3.29504e-14
2.18781e-14
1.18346e-14
3.49248e-15
3.84749e-17
1.51907e-16
2.13231e-14
1.07585e-13
2.40972e-13
3.9408e-13
5.55508e-13
7.20754e-13
8.87329e-13
1.0534e-12
1.21745e-12
1.37821e-12
1.53461e-12
1.68581e-12
1.83122e-12
1.97041e-12
2.1032e-12
2.22955e-12
2.34961e-12
2.46363e-12
2.57193e-12
2.67491e-12
2.77296e-12
2.86645e-12
2.95569e-12
3.04094e-12
3.12236e-12
3.19998e-12
3.27377e-12
3.34356e-12
3.40907e-12
3.46996e-12
3.52576e-12
3.57594e-12
3.61991e-12
3.65704e-12
3.68662e-12
3.70806e-12
3.72e-12
3.723e-12
3.71589e-12
3.69809e-12
3.66916e-12
3.62876e-12
3.57668e-12
3.51285e-12
3.43736e-12
3.35048e-12
3.25262e-12
3.14439e-12
3.02654e-12
2.89998e-12
2.76576e-12
2.62503e-12
2.47903e-12
2.32905e-12
2.1764e-12
2.02238e-12
1.86823e-12
1.71514e-12
1.56418e-12
1.41632e-12
1.27236e-12
1.133e-12
9.98742e-13
8.69982e-13
7.46961e-13
6.29805e-13
5.18553e-13
4.13173e-13
3.13637e-13
2.2013e-13
1.33822e-13
5.96606e-14
1.18235e-14
8.40693e-17
2.52052e-16
3.94899e-14
2.42052e-13
6.38037e-13
1.1573e-12
1.73522e-12
2.33629e-12
2.94243e-12
3.54353e-12
4.13307e-12
4.70641e-12
5.2601e-12
5.79166e-12
6.29944e-12
6.78253e-12
7.24075e-12
7.67453e-12
8.08479e-12
8.47285e-12
8.84031e-12
9.18885e-12
9.52017e-12
9.83585e-12
1.01372e-11
1.04254e-11
1.0701e-11
1.09644e-11
1.12155e-11
1.14538e-11
1.16784e-11
1.18881e-11
1.20812e-11
1.2256e-11
1.24102e-11
1.25417e-11
1.26478e-11
1.27268e-11
1.27727e-11
1.27889e-11
1.27703e-11
1.27147e-11
1.26203e-11
1.24859e-11
1.23106e-11
1.20939e-11
1.18361e-11
1.1538e-11
1.12009e-11
1.0827e-11
1.04189e-11
9.97977e-12
9.51336e-12
9.02377e-12
8.51546e-12
7.99303e-12
7.4612e-12
6.92461e-12
6.38772e-12
5.85471e-12
5.32939e-12
4.81507e-12
4.31456e-12
3.83007e-12
3.36326e-12
2.9152e-12
2.48645e-12
2.07709e-12
1.68697e-12
1.31606e-12
9.65366e-13
6.39423e-13
3.5192e-13
1.33635e-13
2.17798e-14
1.38592e-16
3.65926e-16
5.9605e-14
3.99484e-13
1.16605e-12
2.29987e-12
3.65982e-12
5.12897e-12
6.63357e-12
8.13047e-12
9.59422e-12
1.10093e-11
1.2366e-11
1.36585e-11
1.48835e-11
1.60402e-11
1.71295e-11
1.81538e-11
1.91167e-11
2.00227e-11
2.08768e-11
2.1684e-11
2.24493e-11
2.31772e-11
2.38716e-11
2.45356e-11
2.51712e-11
2.57794e-11
2.63603e-11
2.69127e-11
2.74348e-11
2.79236e-11
2.83751e-11
2.8785e-11
2.91481e-11
2.94588e-11
2.9711e-11
2.99006e-11
3.00111e-11
3.00535e-11
3.00135e-11
2.9886e-11
2.96667e-11
2.93522e-11
2.89403e-11
2.84299e-11
2.78214e-11
2.71166e-11
2.6319e-11
2.54332e-11
2.44657e-11
2.34242e-11
2.23176e-11
2.11557e-11
1.99492e-11
1.87092e-11
1.74469e-11
1.61735e-11
1.48995e-11
1.36349e-11
1.23886e-11
1.11683e-11
9.98047e-12
8.83e-12
7.72044e-12
6.65391e-12
5.63137e-12
4.65303e-12
3.71935e-12
2.83315e-12
2.00393e-12
1.25579e-12
6.37645e-13
2.18842e-13
3.25868e-14
1.99344e-16
4.91744e-16
8.15059e-14
5.71163e-13
1.77051e-12
3.70349e-12
6.18491e-12
8.98637e-12
1.19255e-11
1.48811e-11
1.77786e-11
2.05725e-11
2.32365e-11
2.57566e-11
2.81269e-11
3.03474e-11
3.24221e-11
3.43585e-11
3.61663e-11
3.78566e-11
3.94412e-11
4.09319e-11
4.234e-11
4.36755e-11
4.49471e-11
4.61613e-11
4.73227e-11
4.84338e-11
4.9495e-11
5.05043e-11
5.1458e-11
5.23505e-11
5.31744e-11
5.39213e-11
5.45811e-11
5.51432e-11
5.55961e-11
5.59309e-11
5.61179e-11
5.61775e-11
5.60821e-11
5.58225e-11
5.53907e-11
5.47808e-11
5.39887e-11
5.3013e-11
5.18545e-11
5.0517e-11
4.90069e-11
4.73337e-11
4.55093e-11
4.35481e-11
4.1467e-11
3.92842e-11
3.70196e-11
3.46936e-11
3.2327e-11
2.99402e-11
2.75526e-11
2.51824e-11
2.28457e-11
2.05565e-11
1.83261e-11
1.61633e-11
1.40742e-11
1.20625e-11
1.01304e-11
8.27995e-12
6.51647e-12
4.85391e-12
3.32479e-12
1.99292e-12
9.56506e-13
3.09292e-13
4.40333e-14
2.64693e-16
6.28557e-16
1.05141e-13
7.55079e-13
2.427e-12
5.28084e-12
9.14145e-12
1.36768e-11
1.85618e-11
2.35461e-11
2.84599e-11
3.31983e-11
3.77009e-11
4.19365e-11
4.58931e-11
4.95719e-11
5.29829e-11
5.61423e-11
5.90703e-11
6.17893e-11
6.43226e-11
6.66928e-11
6.8921e-11
7.1026e-11
7.30232e-11
7.49248e-11
7.67392e-11
7.84707e-11
8.01201e-11
8.16844e-11
8.31574e-11
8.45298e-11
8.57898e-11
8.69231e-11
8.79138e-11
8.87446e-11
8.93973e-11
8.98532e-11
9.00801e-11
9.00987e-11
8.98676e-11
8.93729e-11
8.86034e-11
8.75507e-11
8.62099e-11
8.45797e-11
8.26629e-11
8.04664e-11
7.80015e-11
7.52837e-11
7.23323e-11
6.91705e-11
6.58246e-11
6.23234e-11
5.86974e-11
5.49783e-11
5.11979e-11
4.73875e-11
4.35767e-11
3.97929e-11
3.60606e-11
3.24008e-11
2.88306e-11
2.53632e-11
2.20079e-11
1.87711e-11
1.56582e-11
1.26772e-11
9.84488e-12
7.19795e-12
4.80747e-12
2.78995e-12
1.29022e-12
4.0276e-13
5.59735e-14
3.33481e-16
7.7584e-16
1.30484e-13
9.50985e-13
3.1273e-12
6.98734e-12
1.24126e-11
1.89931e-11
2.62461e-11
3.37544e-11
4.12127e-11
4.84214e-11
5.52604e-11
6.16667e-11
6.76159e-11
7.31095e-11
7.81655e-11
8.28133e-11
8.70883e-11
9.10297e-11
9.46767e-11
9.80675e-11
1.01237e-10
1.04215e-10
1.07027e-10
1.09692e-10
1.12223e-10
1.14627e-10
1.16905e-10
1.19053e-10
1.21061e-10
1.22916e-10
1.24599e-10
1.26092e-10
1.27371e-10
1.28411e-10
1.29188e-10
1.29663e-10
1.2983e-10
1.29687e-10
1.29183e-10
1.28301e-10
1.27029e-10
1.25358e-10
1.23283e-10
1.20806e-10
1.17932e-10
1.14674e-10
1.1105e-10
1.07082e-10
1.02799e-10
9.82322e-11
9.34196e-11
8.84002e-11
8.32159e-11
7.79094e-11
7.25233e-11
6.70994e-11
6.16771e-11
5.62928e-11
5.09789e-11
4.5763e-11
4.06677e-11
3.57105e-11
3.09046e-11
2.62604e-11
2.17891e-11
1.7509e-11
1.34562e-11
9.70008e-12
6.36036e-12
3.60974e-12
1.62988e-12
4.98125e-13
6.82848e-14
4.04828e-16
9.3329e-16
1.57517e-13
1.15902e-12
3.86946e-12
8.80489e-12
1.59337e-11
2.47954e-11
3.47485e-11
4.51837e-11
5.56234e-11
6.57388e-11
7.53269e-11
8.42785e-11
9.25498e-11
1.00141e-10
1.07079e-10
1.13412e-10
1.19194e-10
1.24486e-10
1.29347e-10
1.33837e-10
1.38005e-10
1.41897e-10
1.4555e-10
1.48989e-10
1.52235e-10
1.55297e-10
1.58176e-10
1.60865e-10
1.63353e-10
1.6562e-10
1.67644e-10
1.69398e-10
1.70852e-10
1.71976e-10
1.72739e-10
1.73069e-10
1.73017e-10
1.72551e-10
1.71594e-10
1.70143e-10
1.68183e-10
1.65708e-10
1.62718e-10
1.59218e-10
1.55218e-10
1.50739e-10
1.45805e-10
1.40447e-10
1.34703e-10
1.28616e-10
1.22231e-10
1.15598e-10
1.08769e-10
1.01797e-10
9.47329e-11
8.76283e-11
8.05307e-11
7.34835e-11
6.65256e-11
5.96899e-11
5.30037e-11
4.64881e-11
4.01602e-11
3.40351e-11
2.81321e-11
2.24836e-11
1.715e-11
1.22394e-11
7.92421e-12
4.43137e-12
1.9708e-12
5.94648e-13
8.08664e-14
4.78061e-16
1.10072e-15
1.86233e-13
1.37939e-12
4.65375e-12
1.07273e-11
1.96743e-11
3.10028e-11
4.39147e-11
5.7592e-11
7.13574e-11
8.47259e-11
9.73896e-11
1.09179e-10
1.20024e-10
1.29921e-10
1.3891e-10
1.47056e-10
1.54441e-10
1.61149e-10
1.67265e-10
1.72871e-10
1.78038e-10
1.82826e-10
1.87285e-10
1.91452e-10
1.9535e-10
1.98992e-10
2.02381e-10
2.05508e-10
2.08357e-10
2.10905e-10
2.13124e-10
2.14981e-10
2.16441e-10
2.1747e-10
2.18032e-10
2.18022e-10
2.17548e-10
2.16582e-10
2.1498e-10
2.1277e-10
2.09941e-10
2.06493e-10
2.0243e-10
1.97763e-10
1.92511e-10
1.867e-10
1.80364e-10
1.73542e-10
1.66282e-10
1.58633e-10
1.50651e-10
1.42395e-10
1.33924e-10
1.25299e-10
1.1658e-10
1.07823e-10
9.90828e-11
9.04076e-11
8.18409e-11
7.34193e-11
6.5173e-11
5.71262e-11
4.9299e-11
4.17116e-11
3.43921e-11
2.73884e-11
2.07875e-11
1.47379e-11
9.4636e-12
5.24315e-12
2.31029e-12
6.91786e-13
9.36396e-14
5.52672e-16
1.27799e-15
2.16621e-13
1.61223e-12
5.48089e-12
1.27535e-11
2.36217e-11
3.75721e-11
5.36504e-11
7.08169e-11
8.8174e-11
1.05059e-10
1.21042e-10
1.35881e-10
1.49475e-10
1.61815e-10
1.72954e-10
1.8298e-10
1.92003e-10
2.00137e-10
2.07495e-10
2.14184e-10
2.20298e-10
2.25915e-10
2.31098e-10
2.35894e-10
2.40334e-10
2.44434e-10
2.48196e-10
2.51611e-10
2.54659e-10
2.57315e-10
2.59546e-10
2.61316e-10
2.62587e-10
2.63318e-10
2.63474e-10
2.62917e-10
2.61826e-10
2.60166e-10
2.57751e-10
2.54611e-10
2.50758e-10
2.46197e-10
2.4094e-10
2.35005e-10
2.2842e-10
2.21218e-10
2.13441e-10
2.05137e-10
1.96359e-10
1.87168e-10
1.77625e-10
1.67795e-10
1.57745e-10
1.47541e-10
1.37248e-10
1.26928e-10
1.16639e-10
1.06432e-10
9.63535e-11
8.64425e-11
7.67305e-11
6.72434e-11
5.80037e-11
4.90359e-11
4.03762e-11
3.20879e-11
2.42834e-11
1.71494e-11
1.09585e-11
6.03858e-12
2.64672e-12
7.89155e-13
1.06548e-13
6.28304e-16
1.46495e-15
2.48665e-13
1.85758e-12
6.35137e-12
1.48836e-11
2.77719e-11
4.44804e-11
6.38992e-11
8.47528e-11
1.05907e-10
1.26504e-10
1.4598e-10
1.64013e-10
1.80466e-10
1.95324e-10
2.08656e-10
2.20575e-10
2.31222e-10
2.40744e-10
2.49286e-10
2.56983e-10
2.63951e-10
2.70291e-10
2.76079e-10
2.81373e-10
2.86211e-10
2.90612e-10
2.9458e-10
2.98106e-10
3.01169e-10
3.0374e-10
3.05786e-10
3.07267e-10
3.08144e-10
3.08379e-10
3.07921e-10
3.06624e-10
3.04766e-10
3.02205e-10
2.98854e-10
2.94642e-10
2.89644e-10
2.83871e-10
2.77341e-10
2.70081e-10
2.62126e-10
2.53518e-10
2.44305e-10
2.34542e-10
2.2429e-10
2.13614e-10
2.02583e-10
1.91265e-10
1.79733e-10
1.68057e-10
1.56305e-10
1.44542e-10
1.32827e-10
1.21215e-10
1.09753e-10
9.84803e-11
8.74295e-11
7.66268e-11
6.60962e-11
5.58653e-11
4.59769e-11
3.65072e-11
2.7591e-11
1.94494e-11
1.23987e-11
6.81435e-12
2.97919e-12
8.8652e-13
1.19554e-13
7.04729e-16
1.66141e-15
2.82343e-13
2.11538e-12
7.26532e-12
1.71178e-11
3.21212e-11
5.1714e-11
7.46247e-11
9.93284e-11
1.24439e-10
1.48893e-10
1.71981e-10
1.93297e-10
2.12665e-10
2.30067e-10
2.45586e-10
2.59367e-10
2.71583e-10
2.82419e-10
2.92052e-10
3.00648e-10
3.0835e-10
3.15278e-10
3.21525e-10
3.27161e-10
3.32231e-10
3.36759e-10
3.40752e-10
3.44201e-10
3.47085e-10
3.49376e-10
3.51039e-10
3.52036e-10
3.52331e-10
3.51887e-10
3.50614e-10
3.48447e-10
3.4567e-10
3.42056e-10
3.37659e-10
3.32285e-10
3.26063e-10
3.19017e-10
3.11176e-10
3.02574e-10
2.93251e-10
2.83256e-10
2.72645e-10
2.61478e-10
2.49821e-10
2.37744e-10
2.25318e-10
2.12618e-10
1.99717e-10
1.86688e-10
1.73602e-10
1.60524e-10
1.47517e-10
1.34635e-10
1.21925e-10
1.09428e-10
9.71746e-11
8.51919e-11
7.3504e-11
6.21404e-11
5.11486e-11
4.06146e-11
3.06911e-11
2.16279e-11
1.37803e-11
7.56923e-12
3.30738e-12
9.83776e-13
1.3264e-13
7.81853e-16
1.86714e-15
3.17615e-13
2.38542e-12
8.22229e-12
1.94551e-11
3.66656e-11
5.92611e-11
8.57986e-11
1.14489e-10
1.43683e-10
1.72098e-10
1.98874e-10
2.23519e-10
2.45817e-10
2.65747e-10
2.83413e-10
2.9899e-10
3.12689e-10
3.24734e-10
3.3534e-10
3.44703e-10
3.52995e-10
3.60358e-10
3.66903e-10
3.72711e-10
3.77837e-10
3.82312e-10
3.86144e-10
3.89329e-10
3.91847e-10
3.93671e-10
3.94769e-10
3.95106e-10
3.94648e-10
3.93365e-10
3.91119e-10
3.87998e-10
3.8417e-10
3.79418e-10
3.73846e-10
3.67295e-10
3.59803e-10
3.51464e-10
3.42309e-10
3.32378e-10
3.21719e-10
3.10387e-10
2.98439e-10
2.85943e-10
2.72967e-10
2.59583e-10
2.45867e-10
2.31893e-10
2.17739e-10
2.03478e-10
1.89181e-10
1.74915e-10
1.60743e-10
1.46719e-10
1.32891e-10
1.19299e-10
1.05974e-10
9.29419e-11
8.0227e-11
6.78592e-11
5.58886e-11
4.44077e-11
3.35822e-11
2.36846e-11
1.51034e-11
8.30357e-12
3.63145e-12
1.08096e-12
1.45809e-13
8.59686e-16
2.08179e-15
3.54428e-13
2.66733e-12
9.22115e-12
2.18928e-11
4.13989e-11
6.7108e-11
9.73933e-11
1.30187e-10
1.63562e-10
1.96012e-10
2.2652e-10
2.54505e-10
2.79716e-10
3.02129e-10
3.21871e-10
3.39152e-10
3.54225e-10
3.67354e-10
3.78794e-10
3.88777e-10
3.97502e-10
4.05137e-10
4.11809e-10
4.17616e-10
4.22622e-10
4.26864e-10
4.30357e-10
4.33101e-10
4.3508e-10
4.3627e-10
4.36644e-10
4.36172e-10
4.34823e-10
4.32572e-10
4.29237e-10
4.25098e-10
4.20132e-10
4.14194e-10
4.07383e-10
3.9965e-10
3.90883e-10
3.81261e-10
3.70819e-10
3.59602e-10
3.47663e-10
3.35058e-10
3.21852e-10
3.08111e-10
2.93908e-10
2.79317e-10
2.64414e-10
2.49275e-10
2.33977e-10
2.18595e-10
2.032e-10
1.8786e-10
1.72636e-10
1.57585e-10
1.42754e-10
1.28182e-10
1.13901e-10
9.99366e-11
8.63118e-11
7.30566e-11
6.02219e-11
4.79034e-11
3.6275e-11
2.56257e-11
1.63715e-11
9.01884e-12
3.95198e-12
1.17824e-12
1.59081e-13
9.38336e-16
2.30493e-15
3.92708e-13
2.96058e-12
1.02601e-11
2.44265e-11
4.63118e-11
7.52368e-11
1.09378e-10
1.46372e-10
1.84005e-10
2.20537e-10
2.54794e-10
2.86107e-10
3.14186e-10
3.39014e-10
3.60739e-10
3.79614e-10
3.95933e-10
4.10007e-10
4.22132e-10
4.32577e-10
4.41573e-10
4.49311e-10
4.55942e-10
4.61577e-10
4.66292e-10
4.70133e-10
4.73124e-10
4.75268e-10
4.76556e-10
4.76972e-10
4.76492e-10
4.75093e-10
4.72754e-10
4.69427e-10
4.64942e-10
4.5975e-10
4.53602e-10
4.46459e-10
4.38389e-10
4.29484e-10
4.19479e-10
4.08613e-10
3.96934e-10
3.84492e-10
3.71342e-10
3.57544e-10
3.43162e-10
3.28267e-10
3.12931e-10
2.97228e-10
2.81235e-10
2.65029e-10
2.48686e-10
2.32281e-10
2.15885e-10
1.99566e-10
1.83388e-10
1.67405e-10
1.51665e-10
1.36209e-10
1.21069e-10
1.06269e-10
9.18332e-11
7.77904e-11
6.41909e-11
5.11308e-11
3.87878e-11
2.74615e-11
1.759e-11
9.71748e-12
4.26989e-12
1.27587e-12
1.72492e-13
1.01801e-15
2.53602e-15
4.32363e-13
3.26448e-12
1.13367e-11
2.705e-11
5.13913e-11
8.36247e-11
1.21715e-10
1.6299e-10
2.04937e-10
2.45578e-10
2.8358e-10
3.18184e-10
3.49071e-10
3.76226e-10
3.99829e-10
4.20172e-10
4.376e-10
4.52471e-10
4.65126e-10
4.75872e-10
4.84974e-10
4.92653e-10
4.99078e-10
5.04379e-10
5.08646e-10
5.11935e-10
5.14278e-10
5.15688e-10
5.16162e-10
5.1569e-10
5.14258e-10
5.11851e-10
5.08458e-10
5.03958e-10
4.98371e-10
4.92073e-10
4.84744e-10
4.76413e-10
4.67116e-10
4.57021e-10
4.45881e-10
4.33825e-10
4.20977e-10
4.07384e-10
3.93103e-10
3.78193e-10
3.62722e-10
3.46759e-10
3.30376e-10
3.13648e-10
2.96651e-10
2.79462e-10
2.62156e-10
2.44809e-10
2.27492e-10
2.10272e-10
1.93214e-10
1.76373e-10
1.59799e-10
1.43533e-10
1.27608e-10
1.12049e-10
9.68809e-11
8.21308e-11
6.78477e-11
5.41262e-11
4.11438e-11
2.92056e-11
1.87657e-11
1.04026e-11
4.58641e-12
1.3742e-12
1.8609e-13
1.09897e-15
2.77438e-15
4.73278e-13
3.57812e-12
1.24477e-11
2.97551e-11
5.66209e-11
9.2243e-11
1.3436e-10
1.7998e-10
2.26277e-10
2.71035e-10
3.12759e-10
3.50605e-10
3.84222e-10
4.13605e-10
4.38968e-10
4.60648e-10
4.79042e-10
4.94559e-10
5.07586e-10
5.18475e-10
5.27526e-10
5.34988e-10
5.41055e-10
5.45876e-10
5.49554e-10
5.5216e-10
5.53737e-10
5.54304e-10
5.5387e-10
5.52432e-10
5.49985e-10
5.4652e-10
5.42032e-10
5.36336e-10
5.29725e-10
5.22287e-10
5.13808e-10
5.04328e-10
4.93883e-10
4.82628e-10
4.70442e-10
4.57273e-10
4.43334e-10
4.28672e-10
4.13342e-10
3.97403e-10
3.80922e-10
3.63968e-10
3.46614e-10
3.28934e-10
3.11003e-10
2.92898e-10
2.74694e-10
2.56466e-10
2.38286e-10
2.20222e-10
2.02338e-10
1.84693e-10
1.67337e-10
1.50313e-10
1.33657e-10
1.17394e-10
1.01551e-10
8.61534e-11
7.12493e-11
5.69297e-11
4.33689e-11
3.08728e-11
1.99066e-11
1.10777e-11
4.90297e-12
1.47367e-12
1.99932e-13
1.18158e-15
3.01923e-15
5.15316e-13
3.90043e-12
1.3589e-11
3.25316e-11
6.19803e-11
1.01057e-10
1.47263e-10
1.9727e-10
2.47938e-10
2.96803e-10
3.42212e-10
3.83235e-10
4.19496e-10
4.51e-10
4.77999e-10
5.00881e-10
5.20097e-10
5.36109e-10
5.49358e-10
5.60239e-10
5.6909e-10
5.76191e-10
5.81763e-10
5.85975e-10
5.88948e-10
5.90766e-10
5.91482e-10
5.91131e-10
5.89727e-10
5.87279e-10
5.8379e-10
5.79259e-10
5.73659e-10
5.66813e-10
5.59234e-10
5.50691e-10
5.41122e-10
5.30564e-10
5.19054e-10
5.06706e-10
4.93561e-10
4.79376e-10
4.64434e-10
4.48786e-10
4.32485e-10
4.15593e-10
3.98172e-10
3.80293e-10
3.62028e-10
3.43451e-10
3.24636e-10
3.05662e-10
2.86602e-10
2.67534e-10
2.48528e-10
2.29654e-10
2.10979e-10
1.92562e-10
1.74455e-10
1.56706e-10
1.39351e-10
1.2242e-10
1.05938e-10
8.99344e-11
7.44534e-11
5.95823e-11
4.54901e-11
3.24792e-11
2.1021e-11
1.17467e-11
5.22112e-12
1.57475e-12
2.14083e-13
1.26622e-15
3.26966e-15
5.58319e-13
4.23014e-12
1.4756e-11
3.53675e-11
6.74455e-11
1.10028e-10
1.60365e-10
2.14784e-10
2.69824e-10
3.22772e-10
3.71815e-10
4.15942e-10
4.54752e-10
4.88266e-10
5.16777e-10
5.40725e-10
5.60621e-10
5.76987e-10
5.90314e-10
6.01045e-10
6.09561e-10
6.16174e-10
6.21134e-10
6.24631e-10
6.26806e-10
6.27758e-10
6.27554e-10
6.26239e-10
6.23839e-10
6.20373e-10
6.15852e-10
6.10287e-10
6.03558e-10
5.95723e-10
5.87194e-10
5.77629e-10
5.6706e-10
5.55523e-10
5.43054e-10
5.29705e-10
5.1565e-10
5.00594e-10
4.84732e-10
4.68176e-10
4.50978e-10
4.33195e-10
4.14891e-10
3.96135e-10
3.76999e-10
3.57557e-10
3.37888e-10
3.18067e-10
2.98173e-10
2.7828e-10
2.58464e-10
2.38795e-10
2.19341e-10
2.00164e-10
1.81319e-10
1.62857e-10
1.44818e-10
1.27234e-10
1.10134e-10
9.35469e-11
7.75161e-11
6.21245e-11
4.7534e-11
3.40406e-11
2.21174e-11
1.24136e-11
5.54249e-12
1.67792e-12
2.28612e-13
1.3533e-15
3.52464e-15
6.02106e-13
4.56581e-12
1.59433e-11
3.8249e-11
7.2989e-11
1.19109e-10
1.736e-10
2.32436e-10
2.9183e-10
3.48823e-10
4.0144e-10
4.4859e-10
4.8985e-10
5.25262e-10
5.55161e-10
5.80046e-10
6.00489e-10
6.17073e-10
6.30347e-10
6.40803e-10
6.48866e-10
6.54885e-10
6.59137e-10
6.61839e-10
6.63151e-10
6.63189e-10
6.62035e-10
6.59745e-10
6.56358e-10
6.519e-10
6.46388e-10
6.39835e-10
6.32056e-10
6.23411e-10
6.13959e-10
6.03486e-10
5.92033e-10
5.79631e-10
5.66312e-10
5.52111e-10
5.37186e-10
5.21396e-10
5.04696e-10
4.87308e-10
4.69274e-10
4.5065e-10
4.315e-10
4.11892e-10
3.91903e-10
3.71607e-10
3.51085e-10
3.30417e-10
3.09682e-10
2.88959e-10
2.68325e-10
2.47852e-10
2.27611e-10
2.07667e-10
1.88079e-10
1.689e-10
1.50173e-10
1.31937e-10
1.14222e-10
9.70583e-11
8.04897e-11
6.45943e-11
4.95263e-11
3.55724e-11
2.32041e-11
1.30821e-11
5.86867e-12
1.78369e-12
2.43592e-13
1.44326e-15
3.783e-15
6.46474e-13
4.9058e-12
1.71447e-11
4.11606e-11
7.85802e-11
1.2825e-10
1.86895e-10
2.50133e-10
3.13849e-10
3.74832e-10
4.30953e-10
4.8104e-10
5.24652e-10
5.61852e-10
5.93022e-10
6.18721e-10
6.39588e-10
6.56268e-10
6.69373e-10
6.79447e-10
6.86959e-10
6.92298e-10
6.95773e-10
6.97627e-10
6.9804e-10
6.97148e-10
6.95047e-10
6.91806e-10
6.87475e-10
6.82089e-10
6.75674e-10
6.68191e-10
6.59515e-10
6.50187e-10
6.39923e-10
6.28677e-10
6.16475e-10
6.03344e-10
5.89306e-10
5.74385e-10
5.58676e-10
5.42244e-10
5.24807e-10
5.06651e-10
4.8783e-10
4.68397e-10
4.48418e-10
4.27964e-10
4.07113e-10
3.85946e-10
3.64547e-10
3.43002e-10
3.21394e-10
2.99808e-10
2.78323e-10
2.57016e-10
2.3596e-10
2.15224e-10
1.94869e-10
1.74952e-10
1.55521e-10
1.36617e-10
1.18276e-10
1.00529e-10
8.34216e-11
6.70266e-11
5.14904e-11
3.70888e-11
2.42887e-11
1.37559e-11
6.20116e-12
1.89254e-12
2.59092e-13
1.53653e-15
4.0435e-15
6.91204e-13
5.24835e-12
1.83536e-11
4.40853e-11
8.41858e-11
1.37398e-10
2.00175e-10
2.67778e-10
3.35764e-10
4.00674e-10
4.60221e-10
5.13156e-10
5.59021e-10
5.97904e-10
6.30234e-10
6.56637e-10
6.77817e-10
6.94489e-10
7.07326e-10
7.1693e-10
7.23817e-10
7.28415e-10
7.3107e-10
7.3205e-10
7.31559e-10
7.29752e-10
7.2674e-10
7.22606e-10
7.17408e-10
7.11191e-10
7.03986e-10
6.95666e-10
6.86345e-10
6.76402e-10
6.65491e-10
6.53631e-10
6.40839e-10
6.2713e-10
6.12517e-10
5.97016e-10
5.80649e-10
5.63564e-10
5.4556e-10
5.26684e-10
5.07108e-10
4.86882e-10
4.66069e-10
4.44747e-10
4.22999e-10
4.00915e-10
3.78585e-10
3.56104e-10
3.33563e-10
3.11053e-10
2.88659e-10
2.66463e-10
2.44542e-10
2.22968e-10
2.01806e-10
1.81116e-10
1.60949e-10
1.41351e-10
1.2236e-10
1.04013e-10
8.63536e-11
6.94525e-11
5.34478e-11
3.86031e-11
2.5378e-11
1.4438e-11
6.5413e-12
2.00492e-12
2.75179e-13
1.63352e-15
4.30478e-15
7.36056e-13
5.59152e-12
1.95628e-11
4.70048e-11
8.97701e-11
1.46494e-10
2.13358e-10
2.85268e-10
3.57455e-10
4.26216e-10
4.89106e-10
5.448e-10
5.92824e-10
6.33291e-10
6.66683e-10
6.93691e-10
7.15091e-10
7.31668e-10
7.4416e-10
7.53227e-10
7.59437e-10
7.63261e-10
7.65078e-10
7.65188e-10
7.63819e-10
7.61143e-10
7.5729e-10
7.52351e-10
7.46397e-10
7.39473e-10
7.31614e-10
7.22637e-10
7.12889e-10
7.02448e-10
6.91075e-10
6.78783e-10
6.65577e-10
6.51457e-10
6.3642e-10
6.20467e-10
6.03602e-10
5.85904e-10
5.6741e-10
5.47879e-10
5.27573e-10
5.0655e-10
4.84879e-10
4.62644e-10
4.39938e-10
4.1686e-10
3.93515e-10
3.70007e-10
3.4644e-10
3.22915e-10
2.99525e-10
2.7636e-10
2.53501e-10
2.31024e-10
2.08997e-10
1.87482e-10
1.66535e-10
1.46204e-10
1.26531e-10
1.07555e-10
8.93214e-11
7.18986e-11
5.54168e-11
4.01272e-11
2.64773e-11
1.5131e-11
6.89026e-12
2.12122e-12
2.91914e-13
1.73461e-15
4.5654e-15
7.8078e-13
5.9333e-12
2.07646e-11
4.98999e-11
9.52957e-11
1.55477e-10
2.26359e-10
3.02497e-10
3.78801e-10
4.51325e-10
5.1747e-10
5.75835e-10
6.25929e-10
6.67892e-10
7.0226e-10
7.29791e-10
7.51335e-10
7.67749e-10
7.7984e-10
7.88328e-10
7.93835e-10
7.96876e-10
7.97868e-10
7.97141e-10
7.94947e-10
7.9148e-10
7.86884e-10
7.81263e-10
7.74693e-10
7.67227e-10
7.58874e-10
7.49465e-10
7.39466e-10
7.28719e-10
7.17086e-10
7.04563e-10
6.91135e-10
6.76783e-10
6.61487e-10
6.4523e-10
6.28002e-10
6.09807e-10
5.90763e-10
5.70724e-10
5.49691e-10
5.27853e-10
5.0528e-10
4.82065e-10
4.58312e-10
4.34136e-10
4.09659e-10
3.85001e-10
3.60283e-10
3.35618e-10
3.11115e-10
2.8687e-10
2.62974e-10
2.39506e-10
2.16537e-10
1.94132e-10
1.72347e-10
1.51233e-10
1.30834e-10
1.11193e-10
9.23553e-11
7.43873e-11
5.74126e-11
4.16696e-11
2.75918e-11
1.58374e-11
7.24895e-12
2.24177e-12
3.09349e-13
1.84015e-15
4.82386e-15
8.25112e-13
6.27155e-12
2.19512e-11
5.27506e-11
1.00724e-10
1.64287e-10
2.39093e-10
3.19357e-10
3.99679e-10
4.7587e-10
5.45179e-10
6.06127e-10
6.5821e-10
7.01593e-10
7.36865e-10
7.64854e-10
7.86485e-10
8.02691e-10
8.14348e-10
8.2224e-10
8.27042e-10
8.29318e-10
8.29523e-10
8.28019e-10
8.25084e-10
8.20931e-10
8.15719e-10
8.09565e-10
8.02551e-10
7.94732e-10
7.86081e-10
7.76489e-10
7.66415e-10
7.55588e-10
7.4392e-10
7.31383e-10
7.17941e-10
7.03551e-10
6.88171e-10
6.71761e-10
6.54294e-10
6.35752e-10
6.16161e-10
5.95639e-10
5.73928e-10
5.51247e-10
5.27713e-10
5.03429e-10
4.78518e-10
4.53113e-10
4.27357e-10
4.01392e-10
3.75362e-10
3.49399e-10
3.2363e-10
2.98165e-10
2.73103e-10
2.4853e-10
2.2452e-10
2.0114e-10
1.78445e-10
1.56487e-10
1.35311e-10
1.1496e-10
9.548e-11
7.69373e-11
5.94478e-11
4.32376e-11
2.87252e-11
1.65591e-11
7.61808e-12
2.36682e-12
3.27527e-13
1.95042e-15
5.07862e-15
8.68781e-13
6.6041e-12
2.31144e-11
5.55367e-11
1.06016e-10
1.72861e-10
2.51473e-10
3.35743e-10
4.19965e-10
4.99718e-10
5.72097e-10
6.35548e-10
6.89546e-10
7.34284e-10
7.70406e-10
7.98807e-10
8.2049e-10
8.36463e-10
8.47676e-10
8.54978e-10
8.591e-10
8.60654e-10
8.60137e-10
8.57942e-10
8.54374e-10
8.49667e-10
8.43993e-10
8.37478e-10
8.30208e-10
8.22239e-10
8.13551e-10
8.04032e-10
7.94063e-10
7.83405e-10
7.71943e-10
7.59627e-10
7.46393e-10
7.32171e-10
7.16894e-10
7.00497e-10
6.82927e-10
6.64149e-10
6.4415e-10
6.23017e-10
6.0074e-10
5.77186e-10
5.52622e-10
5.27169e-10
5.00969e-10
4.74179e-10
4.46967e-10
4.19508e-10
3.9197e-10
3.64514e-10
3.3729e-10
3.10427e-10
2.84037e-10
2.58216e-10
2.33042e-10
2.0858e-10
1.84886e-10
1.6201e-10
1.39994e-10
1.18881e-10
9.87166e-11
7.95637e-11
6.15327e-11
4.48371e-11
2.98792e-11
1.72984e-11
7.99801e-12
2.49654e-12
3.46481e-13
2.06564e-15
5.32811e-15
9.11512e-13
6.92876e-12
2.42462e-11
5.8238e-11
1.11132e-10
1.81136e-10
2.63414e-10
3.51547e-10
4.3954e-10
5.22742e-10
5.98097e-10
6.63971e-10
7.19822e-10
7.65866e-10
8.02798e-10
8.31585e-10
8.53305e-10
8.69046e-10
8.79828e-10
8.86569e-10
8.90059e-10
8.9096e-10
8.89808e-10
8.87032e-10
8.82963e-10
8.77855e-10
8.71893e-10
8.65211e-10
8.57897e-10
8.50001e-10
8.41537e-10
8.32382e-10
8.22713e-10
8.12483e-10
8.01482e-10
7.89634e-10
7.76843e-10
7.63011e-10
7.48037e-10
7.31828e-10
7.14306e-10
6.95411e-10
6.75114e-10
6.53413e-10
6.3046e-10
6.06118e-10
5.80449e-10
5.53718e-10
5.26085e-10
4.97735e-10
4.68871e-10
4.39698e-10
4.10423e-10
3.81243e-10
3.52336e-10
3.23859e-10
2.95944e-10
2.68697e-10
2.42204e-10
2.16531e-10
1.9173e-10
1.67846e-10
1.44917e-10
1.22982e-10
1.02083e-10
8.22793e-11
6.36756e-11
4.6473e-11
3.10568e-11
1.80551e-11
8.3889e-12
2.63101e-12
3.66231e-13
2.18598e-15
5.57077e-15
9.53032e-13
7.24334e-12
2.53385e-11
6.08345e-11
1.16036e-10
1.89053e-10
2.74833e-10
3.66667e-10
4.58287e-10
5.44818e-10
6.23053e-10
6.91279e-10
7.4893e-10
7.96243e-10
8.33966e-10
8.63132e-10
8.84897e-10
9.00425e-10
9.10814e-10
9.17047e-10
9.19976e-10
9.20312e-10
9.18636e-10
9.15409e-10
9.10991e-10
9.05654e-10
8.99597e-10
8.9296e-10
8.85831e-10
8.78254e-10
8.70236e-10
8.61748e-10
8.52665e-10
8.43092e-10
8.32813e-10
8.21692e-10
8.09592e-10
7.9638e-10
7.81924e-10
7.66095e-10
7.48783e-10
7.29904e-10
7.09403e-10
6.8726e-10
6.63538e-10
6.38408e-10
6.11617e-10
5.83502e-10
5.54289e-10
5.24196e-10
4.93461e-10
4.62334e-10
4.31064e-10
3.99892e-10
3.69037e-10
3.3869e-10
3.0901e-10
2.80123e-10
2.52124e-10
2.2508e-10
1.9904e-10
1.7404e-10
1.50112e-10
1.27284e-10
1.05594e-10
8.5095e-11
6.58837e-11
4.81492e-11
3.22596e-11
1.88291e-11
8.79059e-12
2.77021e-12
3.86785e-13
2.31152e-15
5.80507e-15
9.93073e-13
7.54572e-12
2.63835e-11
6.33073e-11
1.2069e-10
1.96555e-10
2.85651e-10
3.81007e-10
4.76096e-10
5.65828e-10
6.46848e-10
7.17359e-10
7.76768e-10
8.2533e-10
8.63841e-10
8.93399e-10
9.15237e-10
9.30597e-10
9.40649e-10
9.46449e-10
9.48907e-10
9.48787e-10
9.46715e-10
9.43185e-10
9.38585e-10
9.33206e-10
9.27258e-10
9.20888e-10
9.14183e-10
9.0718e-10
8.99873e-10
8.92217e-10
8.84137e-10
8.75493e-10
8.66145e-10
8.56023e-10
8.44866e-10
8.32515e-10
8.18803e-10
8.0356e-10
7.86643e-10
7.67935e-10
7.47355e-10
7.24863e-10
7.0047e-10
6.74358e-10
6.46529e-10
6.16928e-10
5.85991e-10
5.53967e-10
5.21137e-10
4.87798e-10
4.54251e-10
4.2079e-10
3.87685e-10
3.55173e-10
3.23449e-10
2.92666e-10
2.62935e-10
2.34327e-10
2.06888e-10
1.80643e-10
1.55612e-10
1.31811e-10
1.09265e-10
8.80203e-11
6.81627e-11
4.98686e-11
3.34882e-11
1.96203e-11
9.20274e-12
2.91406e-12
4.0814e-13
2.4423e-15
6.02951e-15
1.03138e-12
7.83387e-12
2.7374e-11
6.56386e-11
1.25061e-10
2.03588e-10
2.95795e-10
3.94475e-10
4.92863e-10
5.85663e-10
6.69372e-10
7.42106e-10
8.03243e-10
8.53048e-10
8.92361e-10
9.22344e-10
9.44304e-10
9.59558e-10
9.69353e-10
9.74813e-10
9.76909e-10
9.7646e-10
9.74133e-10
9.70462e-10
9.65857e-10
9.60631e-10
9.55005e-10
9.49129e-10
9.43088e-10
9.36911e-10
9.30575e-10
9.24015e-10
9.17124e-10
9.09755e-10
9.01755e-10
8.92777e-10
8.82814e-10
8.71562e-10
8.58834e-10
8.44396e-10
8.28072e-10
8.09708e-10
7.89192e-10
7.6646e-10
7.41506e-10
7.14388e-10
6.85424e-10
6.54371e-10
6.2157e-10
5.87435e-10
5.52286e-10
5.16472e-10
4.80352e-10
4.44282e-10
4.08595e-10
3.73585e-10
3.39497e-10
3.06521e-10
2.7479e-10
2.44388e-10
2.15358e-10
1.87713e-10
1.61456e-10
1.36586e-10
1.13112e-10
9.10644e-11
7.05178e-11
5.16336e-11
3.4743e-11
2.0428e-11
9.62479e-12
3.06238e-12
4.3028e-13
2.57827e-15
6.24271e-15
1.0677e-12
8.1059e-12
2.83031e-11
6.78119e-11
1.29119e-10
2.10105e-10
3.05198e-10
4.06989e-10
5.08492e-10
6.0422e-10
6.90523e-10
7.65425e-10
8.28268e-10
8.79324e-10
9.19471e-10
9.49931e-10
9.7208e-10
9.87311e-10
9.96946e-10
1.00218e-09
1.00403e-09
1.00339e-09
1.00097e-09
9.97323e-10
9.92898e-10
9.88023e-10
9.82931e-10
9.77775e-10
9.72636e-10
9.6753e-10
9.62419e-10
9.57213e-10
9.51774e-10
9.45923e-10
9.3945e-10
9.32101e-10
9.23628e-10
9.13557e-10
9.02076e-10
8.88664e-10
8.73141e-10
8.55311e-10
8.35022e-10
8.12178e-10
7.86748e-10
7.58771e-10
7.28516e-10
6.96073e-10
6.61328e-10
6.24931e-10
5.87257e-10
5.48711e-10
5.09721e-10
4.70712e-10
4.32091e-10
3.94221e-10
3.57412e-10
3.21904e-10
2.87866e-10
2.55399e-10
2.24548e-10
1.95318e-10
1.6769e-10
1.41639e-10
1.17151e-10
9.4237e-11
7.29539e-11
5.3446e-11
3.60241e-11
2.12516e-11
1.00561e-11
3.21494e-12
4.53179e-13
2.71931e-15
6.44334e-15
1.10182e-12
8.36006e-12
2.91648e-11
6.98129e-11
1.32836e-10
2.16062e-10
3.13801e-10
4.18473e-10
5.22899e-10
6.2141e-10
7.10209e-10
7.87229e-10
8.51767e-10
9.04095e-10
9.45123e-10
9.76128e-10
9.98551e-10
1.01386e-09
1.02345e-09
1.02857e-09
1.03033e-09
1.02965e-09
1.02728e-09
1.02384e-09
1.01978e-09
1.01545e-09
1.0111e-09
1.00688e-09
1.00287e-09
9.99068e-10
9.95422e-10
9.91813e-10
9.88076e-10
9.83994e-10
9.79316e-10
9.73756e-10
9.67016e-10
9.58786e-10
9.48502e-10
9.36306e-10
9.21806e-10
9.04717e-10
8.84843e-10
8.6205e-10
8.36283e-10
8.07565e-10
7.76013e-10
7.42088e-10
7.05491e-10
6.66707e-10
6.26333e-10
5.84826e-10
5.42682e-10
5.00406e-10
4.58488e-10
4.17379e-10
3.77463e-10
3.39048e-10
3.02353e-10
2.6751e-10
2.34573e-10
2.03538e-10
1.74365e-10
1.47001e-10
1.21401e-10