/*--------------------------------*- C++ -*----------------------------------*\
  =========                 |
  \\      /  F ield         | OpenFOAM: The Open Source CFD Toolbox
   \\    /   O peration     | Website:  https://openfoam.org
    \\  /    A nd           | Version:  12
     \\/     M anipulation  |
\*---------------------------------------------------------------------------*/
FoamFile
{
    format      ascii;
    class       volScalarField;
    location    "0.9";
    object      p;
}
// * * * * * * * * * * * * * * * * * * * * * * * * * * * * * * * * * * * * * //

dimensions      [0 2 -2 0 0 0 0];

internalField   nonuniform List<scalar> 
900
(
5.22098e-08
-0.00597361
-0.0162026
-0.0279337
-0.0385451
-0.0462583
-0.0499548
-0.0490174
-0.0432268
-0.0326805
-0.017725
0.00109771
0.0230941
0.0474551
0.0732918
0.099663
0.125599
0.150139
0.172358
0.191406
0.206544
0.217193
0.222983
0.223818
0.219938
0.212006
0.201194
0.189337
0.179091
0.17317
0.00590916
-0.000116271
-0.00905119
-0.0187453
-0.027333
-0.033429
-0.0361004
-0.0348062
-0.0293343
-0.0197435
-0.0063132
0.0105002
0.0301
0.0517816
0.0747657
0.0982212
0.121293
0.143134
0.162933
0.179948
0.193544
0.203229
0.208706
0.209915
0.207087
0.200799
0.192035
0.182228
0.173283
0.167316
0.0162714
0.00868727
-0.000497587
-0.00926595
-0.0165997
-0.0215917
-0.023544
-0.0220345
-0.016896
-0.00817943
0.00387913
0.0188901
0.0363394
0.0556159
0.0760389
0.0968792
0.117387
0.13682
0.154466
0.169679
0.181905
0.190724
0.195878
0.197314
0.195217
0.190042
0.182534
0.173651
0.164459
0.156951
0.0287136
0.0185358
0.00764417
-0.00159767
-0.00883715
-0.0135775
-0.0153412
-0.0138414
-0.00898709
-0.000858979
0.0103119
0.0241656
0.0402349
0.0579672
0.0767466
0.0959137
0.11479
0.132699
0.148994
0.163082
0.174454
0.182713
0.187605
0.189042
0.18713
0.182193
0.174755
0.165375
0.154467
0.144374
0.0409961
0.0278289
0.0145461
0.0040728
-0.00374582
-0.00874472
-0.0106358
-0.00926359
-0.00462512
0.00314957
0.0138109
0.0270035
0.0422819
0.0591268
0.0769627
0.0951752
0.11313
0.130193
0.145753
0.159244
0.170171
0.178132
0.182848
0.184177
0.182134
0.176913
0.168856
0.158201
0.144874
0.131785
0.0515808
0.0353064
0.0193412
0.00725112
-0.00151033
-0.00704213
-0.00921276
-0.00798624
-0.00344891
0.00421008
0.0147081
0.0276773
0.0426754
0.0591978
0.0766903
0.0945635
0.112208
0.129011
0.144375
0.15774
0.168602
0.176537
0.181219
0.182441
0.180124
0.174342
0.16529
0.152956
0.136895
0.120672
0.0593612
0.0399569
0.0211819
0.00727656
-0.00261606
-0.00880633
-0.0112911
-0.0101411
-0.00553015
0.00228809
0.0129876
0.0261752
0.0413972
0.0581479
0.0758789
0.0940092
0.111937
0.129054
0.14476
0.158481
0.169686
0.177911
0.182772
0.183985
0.181378
0.174916
0.164673
0.150442
0.131491
0.112083
0.0634609
0.0409233
0.0192849
0.00348006
-0.00760749
-0.0144642
-0.0171954
-0.0159691
-0.0110451
-0.00274568
0.00855171
0.022418
0.0383767
0.0559088
0.0744585
0.0934403
0.112247
0.130259
0.146859
0.161444
0.173443
0.182335
0.187665
0.189064
0.186263
0.179126
0.167626
0.151396
0.129469
0.106836
0.0631114
0.0374207
0.012894
-0.00481969
-0.0170704
-0.0245024
-0.0273188
-0.0257812
-0.0202364
-0.0110806
0.00125046
0.0162834
0.0335094
0.0523868
0.072343
0.092778
0.113068
0.132574
0.150648
0.166645
0.179941
0.189945
0.196118
0.197996
0.195205
0.18751
0.174789
0.156533
0.131567
0.105644
0.0575649
0.0286683
0.00123343
-0.0183469
-0.0316517
-0.0394795
-0.0421309
-0.0399636
-0.0334175
-0.0229693
-0.00912065
0.00760324
0.0266544
0.0474617
0.0694293
0.0919363
0.114337
0.135962
0.156128
0.174137
0.189298
0.200939
0.208423
0.211176
0.208707
0.200672
0.186854
0.166601
0.138532
0.109211
0.0460264
0.0138334
-0.0165329
-0.0378954
-0.0520737
-0.0600314
-0.0621756
-0.0589717
-0.0509631
-0.0387172
-0.0228103
-0.00382617
0.0176428
0.0409922
0.0656
0.0908222
0.115987
0.140396
0.163317
0.183999
0.201672
0.215567
0.224936
0.229072
0.227352
0.219303
0.204596
0.182425
0.151183
0.118308
0.0276003
-0.00801666
-0.041341
-0.0643566
-0.0791505
-0.086876
-0.0880683
-0.0833199
-0.0732954
-0.0586669
-0.0400956
-0.01823
0.00628973
0.0328251
0.0607295
0.0893372
0.117954
0.145848
0.172246
0.196331
0.21725
0.234123
0.246069
0.25223
0.251816
0.2442
0.228911
0.204953
0.170465
0.133836
0.00124129
-0.0379626
-0.0742681
-0.0987496
-0.113805
-0.12082
-0.120492
-0.113571
-0.100868
-0.0831793
-0.0612623
-0.0358363
-0.00758961
0.0228085
0.0546924
0.0873819
0.120167
0.15229
0.182941
0.211237
0.236234
0.256931
0.27229
0.281271
0.282882
0.276293
0.260848
0.235311
0.197511
0.156887
-0.0342968
-0.0772846
-0.116579
-0.142256
-0.157093
-0.162767
-0.160192
-0.15032
-0.134145
-0.112609
-0.0865795
-0.0568512
-0.024158
0.0108087
0.0473763
0.0848629
0.122556
0.15969
0.195424
0.228818
0.258834
0.284337
0.304112
0.316896
0.321447
0.316672
0.301659
0.274855
0.233701
0.188805
-0.0805242
-0.127527
-0.169783
-0.196264
-0.21022
-0.213719
-0.207964
-0.194173
-0.173569
-0.147269
-0.116265
-0.0814268
-0.0435277
-0.00326616
0.0386988
0.0817019
0.125052
0.168005
0.209702
0.249157
0.285246
0.316693
0.342081
0.359884
0.368542
0.366615
0.352844
0.325241
0.280745
0.231269
-0.139302
-0.190586
-0.235712
-0.262417
-0.274573
-0.274777
-0.264634
-0.245713
-0.219521
-0.187387
-0.150437
-0.109617
-0.0657217
-0.0194341
0.0286289
0.0778581
0.127619
0.1772
0.22576
0.272305
0.315636
0.354335
0.386763
0.411082
0.425335
0.42763
0.416218
0.388513
0.340778
0.286395
-0.212971
-0.268833
-0.316619
-0.34268
-0.351739
-0.34713
-0.33102
-0.30544
-0.272255
-0.233037
-0.189057
-0.141321
-0.0906201
-0.0375816
0.0172513
0.073361
0.130217
0.1872
0.243539
0.298254
0.350105
0.397546
0.438704
0.471384
0.49314
0.501482
0.493986
0.467221
0.416511
0.356886
-0.304552
-0.365304
-0.415329
-0.439424
-0.443526
-0.432026
-0.407871
-0.373698
-0.33181
-0.284057
-0.231846
-0.176215
-0.117907
-0.0574593
0.00471211
0.0682673
0.132836
0.197938
0.262928
0.326908
0.388645
0.446504
0.498385
0.541694
0.573397
0.590232
0.588839
0.56458
0.511429
0.446253
-0.418071
-0.483982
-0.53544
-0.555523
-0.55197
-0.530707
-0.495759
-0.450548
-0.397896
-0.339941
-0.278199
-0.213686
-0.147037
-0.0786249
-0.00864545
0.0627859
0.135525
0.209323
0.283739
0.358038
0.43108
0.501204
0.566125
0.62284
0.667631
0.696251
0.704063
0.684689
0.630103
0.559169
-0.559095
-0.630245
-0.681614
-0.694471
-0.679301
-0.644285
-0.594923
-0.535605
-0.46973
-0.399698
-0.327063
-0.252727
-0.177117
-0.100338
-0.0222921
0.0572135
0.138358
0.221216
0.305656
0.391216
0.476964
0.561335
0.641951
0.715443
0.777346
0.822199
0.843662
0.832834
0.778653
0.702034
-0.735641
-0.81156
-0.859973
-0.860481
-0.827836
-0.77352
-0.705002
-0.627787
-0.545832
-0.461696
-0.376825
-0.291859
-0.20688
-0.121605
-0.0355319
0.0519414
0.141416
0.233397
0.328179
0.425718
0.525456
0.626107
0.725381
0.819686
0.903836
0.970929
1.01247
1.01589
0.965467
0.883929
-0.959748
-1.03856
-1.07859
-1.05848
-0.999746
-0.918437
-0.824646
-0.724983
-0.623768
-0.523477
-0.425198
-0.32908
-0.234671
-0.141149
-0.0474853
0.0474409
0.144755
0.245499
0.350532
0.4604
0.575136
0.694
0.8151
0.934927
1.0478
1.14521
1.21616
1.24286
1.20232
1.11823
-1.25033
-1.32683
-1.34806
-1.29389
-1.19636
-1.07769
-0.950959
-0.823617
-0.699851
-0.581585
-0.469138
-0.361839
-0.258458
-0.157459
-0.0571576
0.0441888
0.14832
0.256923
0.371555
0.493539
0.623774
0.76243
0.908483
1.05904
1.2085
1.34725
1.46101
1.52543
1.50616
1.42552
-1.63883
-1.69979
-1.68204
-1.57192
-1.41687
-1.24747
-1.0788
-0.918129
-0.76882
-0.631417
-0.504817
-0.387088
-0.275928
-0.168902
-0.0635538
0.0425551
0.151845
0.266722
0.389558
0.522646
0.668049
0.827321
1.00098
1.18765
1.38274
1.57706
1.75289
1.87836
1.90202
1.83937
-2.17913
-2.19276
-2.09718
-1.8955
-1.65699
-1.41998
-1.1992
-1.00015
-0.823539
-0.667195
-0.527742
-0.401461
-0.28468
-0.173907
-0.0658466
0.0426628
0.15473
0.273502
0.402229
0.544321
0.70331
0.882669
1.08536
1.31288
1.5637
1.83086
2.09604
2.31883
2.42688
2.4163
-2.95752
-2.85514
-2.61061
-2.26256
-1.90548
-1.58065
-1.29842
-1.0583
-0.855138
-0.682302
-0.533153
-0.401669
-0.282575
-0.171254
-0.0635845
0.0442498
0.155972
0.275411
0.406658
0.554297
0.723547
0.920318
1.15103
1.42195
1.7376
2.09761
2.48926
2.86678
3.13223
3.24554
-4.10955
-3.75133
-3.22914
-2.65346
-2.13503
-1.70415
-1.35629
-1.07755
-0.853041
-0.6696
-0.516425
-0.384877
-0.268049
-0.160305
-0.0568629
0.0465626
0.154113
0.270141
0.399375
0.547455
0.721294
0.929533
1.18296
1.49465
1.87934
2.35068
2.91191
3.52842
4.08373
4.46464
-6.02935
-4.99862
-3.90633
-2.99006
-2.27813
-1.74013
-1.33766
-1.03462
-0.802326
-0.619807
-0.47199
-0.347954
-0.239604
-0.140709
-0.0462155
0.0482624
0.14695
0.254417
0.375565
0.516665
0.685866
0.894167
1.15677
1.49489
1.93753
2.52135
3.28521
4.2568
5.40053
6.47205
-10.1524
-6.84808
-4.49176
-3.10238
-2.21184
-1.60817
-1.19236
-0.89907
-0.684822
-0.52218
-0.393627
-0.287499
-0.195676
-0.112196
-0.0323945
0.0476107
0.131855
0.224357
0.329549
0.453517
0.604458
0.794139
1.0403
1.37079
1.82986
2.48456
3.43679
4.90127
7.33972
10.7156
-17.7771
-9.30084
-4.95576
-3.03603
-1.99911
-1.37039
-0.976458
-0.718261
-0.538814
-0.406853
-0.304502
-0.220782
-0.148484
-0.0825261
-0.0190545
0.0449774
0.113175
0.188654
0.274955
0.377335
0.50309
0.663254
0.875843
1.1724
1.61065
2.29272
3.40056
5.41833
9.87753
18.4522
)
;

boundaryField
{
    movingWall
    {
        type            zeroGradient;
    }
    fixedWalls
    {
        type            zeroGradient;
    }
    frontAndBack
    {
        type            empty;
    }
}


// ************************************************************************* //
