/*--------------------------------*- C++ -*----------------------------------*\
  =========                 |
  \\      /  F ield         | OpenFOAM: The Open Source CFD Toolbox
   \\    /   O peration     | Website:  https://openfoam.org
    \\  /    A nd           | Version:  12
     \\/     M anipulation  |
\*---------------------------------------------------------------------------*/
FoamFile
{
    format      ascii;
    class       surfaceScalarField;
    location    "7";
    object      phi;
}
// * * * * * * * * * * * * * * * * * * * * * * * * * * * * * * * * * * * * * //

dimensions      [0 3 -1 0 0 0 0];

internalField   nonuniform List<scalar> 
11100
(
-1.37236e-11
1.37471e-11
-3.00663e-11
1.63443e-11
-3.49993e-11
4.9327e-12
-2.13521e-11
-1.36463e-11
1.42178e-11
-3.55706e-11
7.27845e-11
-5.85664e-11
1.53997e-10
-8.12137e-11
2.56634e-10
-1.02636e-10
3.78947e-10
-1.22314e-10
5.18904e-10
-1.39957e-10
6.74328e-10
-1.55425e-10
8.43e-10
-1.68672e-10
1.02271e-09
-1.79712e-10
1.21131e-09
-1.88598e-10
1.40672e-09
-1.95406e-10
1.60694e-09
-2.00229e-10
1.81011e-09
-2.03164e-10
2.01442e-09
-2.04316e-10
2.21821e-09
-2.03789e-10
2.4199e-09
-2.01687e-10
2.61801e-09
-1.98114e-10
2.81118e-09
-1.93171e-10
2.99814e-09
-1.86955e-10
3.1777e-09
-1.79562e-10
3.34879e-09
-1.71085e-10
3.5104e-09
-1.61613e-10
3.66164e-09
-1.51233e-10
3.80167e-09
-1.4003e-10
3.92975e-09
-1.28084e-10
4.04523e-09
-1.15475e-10
4.14751e-09
-1.0228e-10
4.23609e-09
-8.85749e-11
4.31052e-09
-7.44322e-11
4.37045e-09
-5.9925e-11
4.41557e-09
-4.51244e-11
4.44568e-09
-3.01014e-11
4.4606e-09
-1.49262e-11
4.46028e-09
3.31013e-13
4.44468e-09
1.55997e-11
4.41387e-09
3.08092e-11
4.36799e-09
4.58877e-11
4.30723e-09
6.07627e-11
4.23187e-09
7.53602e-11
4.14226e-09
8.9605e-11
4.03885e-09
1.0342e-10
3.92212e-09
1.16727e-10
3.79268e-09
1.29444e-10
3.65119e-09
1.41489e-10
3.49842e-09
1.52777e-10
3.3352e-09
1.63219e-10
3.16248e-09
1.72728e-10
2.98127e-09
1.81209e-10
2.7927e-09
1.8857e-10
2.59799e-09
1.94713e-10
2.39846e-09
1.9954e-10
2.19551e-09
2.02952e-10
1.99066e-09
2.04845e-10
1.78555e-09
2.0512e-10
1.58188e-09
2.03672e-10
1.38147e-09
2.00403e-10
1.18626e-09
1.95215e-10
9.98246e-10
1.88017e-10
8.19518e-10
1.7873e-10
6.52232e-10
1.67288e-10
4.98579e-10
1.53655e-10
3.60747e-10
1.37834e-10
2.40855e-10
1.19893e-10
1.4086e-10
9.9996e-11
6.24033e-11
7.84585e-11
6.57626e-12
5.58276e-11
-2.64291e-11
3.30065e-11
-3.78665e-11
1.14368e-11
-3.12583e-11
-6.60779e-12
-1.39634e-11
-1.72949e-11
-1.39634e-11
2.4864e-15
1.37452e-11
1.98647e-11
-3.51648e-12
7.44415e-11
-4.96441e-11
1.72981e-10
-1.12185e-10
3.20396e-10
-1.82986e-10
5.18439e-10
-2.5661e-10
7.66578e-10
-3.29354e-10
1.06266e-09
-3.98721e-10
1.40341e-09
-4.63065e-10
1.7848e-09
-5.21346e-10
2.20232e-09
-5.72945e-10
2.65119e-09
-6.17542e-10
3.1265e-09
-6.55023e-10
3.62332e-09
-6.85422e-10
4.13679e-09
-7.08875e-10
4.66215e-09
-7.25587e-10
5.1948e-09
-7.35814e-10
5.73032e-09
-7.3984e-10
6.26451e-09
-7.37974e-10
6.79335e-09
-7.30535e-10
7.31309e-09
-7.17848e-10
7.82016e-09
-7.00241e-10
8.31124e-09
-6.7804e-10
8.78325e-09
-6.51567e-10
9.2333e-09
-6.2114e-10
9.65876e-09
-5.87071e-10
1.00572e-08
-5.49666e-10
1.04264e-08
-5.09224e-10
1.07643e-08
-4.66037e-10
1.10693e-08
-4.20391e-10
1.13395e-08
-3.72569e-10
1.15738e-08
-3.22844e-10
1.17709e-08
-2.71489e-10
1.19297e-08
-2.18772e-10
1.20496e-08
-1.64956e-10
1.21298e-08
-1.10307e-10
1.21699e-08
-5.50848e-11
1.21698e-08
4.47192e-13
1.21294e-08
5.60261e-11
1.20488e-08
1.11387e-10
1.19284e-08
1.66263e-10
1.17688e-08
2.20384e-10
1.15707e-08
2.73473e-10
1.1335e-08
3.25254e-10
1.1063e-08
3.75439e-10
1.0756e-08
4.23741e-10
1.04156e-08
4.69862e-10
1.00436e-08
5.135e-10
9.64201e-09
5.54348e-10
9.21314e-09
5.92091e-10
8.75946e-09
6.26408e-10
8.28369e-09
6.56976e-10
7.7888e-09
6.83464e-10
7.27797e-09
7.05541e-10
6.75464e-09
7.22872e-10
6.22247e-09
7.35124e-10
5.68535e-09
7.41967e-10
5.14739e-09
7.43078e-10
4.61292e-09
7.38147e-10
4.08644e-09
7.2688e-10
3.57264e-09
7.09013e-10
3.07634e-09
6.84319e-10
2.60245e-09
6.52627e-10
2.15589e-09
6.13844e-10
1.74156e-09
5.67988e-10
1.36416e-09
5.15228e-10
1.02811e-09
4.5595e-10
7.37261e-10
3.90843e-10
4.94699e-10
3.21022e-10
3.02321e-10
2.48206e-10
1.60359e-10
1.74968e-10
6.6728e-11
1.05069e-10
1.61439e-11
4.39767e-11
-1.06576e-12
-8.50717e-14
-1.50292e-11
2.35559e-11
-9.81019e-12
1.02713e-10
-8.26724e-11
2.44611e-10
-1.91543e-10
4.54029e-10
-3.21602e-10
7.33339e-10
-4.62297e-10
1.08269e-09
-6.05965e-10
1.50036e-09
-7.47018e-10
1.98307e-09
-8.81435e-10
2.52639e-09
-1.00638e-09
3.12498e-09
-1.11994e-09
3.77289e-09
-1.22085e-09
4.46374e-09
-1.30839e-09
5.1909e-09
-1.38218e-09
5.94764e-09
-1.44217e-09
6.72723e-09
-1.48847e-09
7.52302e-09
-1.52138e-09
8.32851e-09
-1.54131e-09
9.1374e-09
-1.54873e-09
9.94363e-09
-1.5442e-09
1.07414e-08
-1.5283e-09
1.15252e-08
-1.50165e-09
1.22898e-08
-1.46485e-09
1.30303e-08
-1.41855e-09
1.37421e-08
-1.36339e-09
1.4421e-08
-1.3e-09
1.50629e-08
-1.22899e-09
1.56643e-08
-1.15101e-09
1.62217e-08
-1.06664e-09
1.67321e-08
-9.76501e-10
1.71929e-08
-8.81179e-10
1.76016e-08
-7.81258e-10
1.79561e-08
-6.77313e-10
1.82545e-08
-5.69913e-10
1.84954e-08
-4.5962e-10
1.86774e-08
-3.46992e-10
1.87997e-08
-2.32586e-10
1.88615e-08
-1.16955e-10
1.88626e-08
-6.55117e-13
1.88029e-08
1.15757e-10
1.86826e-08
2.3172e-10
1.85022e-08
3.46669e-10
1.82625e-08
4.60029e-10
1.79648e-08
5.71222e-10
1.76104e-08
6.79656e-10
1.72011e-08
7.84735e-10
1.6739e-08
8.85848e-10
1.62264e-08
9.82376e-10
1.56662e-08
1.07369e-09
1.50614e-08
1.15915e-09
1.44154e-08
1.2381e-09
1.37319e-08
1.3099e-09
1.3015e-08
1.37387e-09
1.22691e-08
1.42936e-09
1.1499e-08
1.47569e-09
1.07096e-08
1.51221e-09
9.9065e-09
1.53826e-09
9.09525e-09
1.55322e-09
8.28186e-09
1.55647e-09
7.47257e-09
1.54744e-09
6.67383e-09
1.52562e-09
5.89229e-09
1.49056e-09
5.1347e-09
1.44191e-09
4.40788e-09
1.37945e-09
3.71859e-09
1.30313e-09
3.07346e-09
1.21312e-09
2.4788e-09
1.10989e-09
1.94045e-09
9.94295e-10
1.46358e-09
8.6772e-10
1.05237e-09
7.32226e-10
7.09793e-10
5.90785e-10
4.37208e-10
4.47554e-10
2.34034e-10
3.08243e-10
9.73972e-11
1.80613e-10
2.20387e-11
7.52731e-11
7.00949e-12
4.73949e-11
-5.72048e-11
1.88062e-10
-2.23339e-10
4.21206e-10
-4.24686e-10
7.45857e-10
-6.46254e-10
1.16019e-09
-8.76636e-10
1.66131e-09
-1.10708e-09
2.24516e-09
-1.33087e-09
2.90668e-09
-1.54296e-09
3.63991e-09
-1.73961e-09
4.43813e-09
-1.91816e-09
5.29409e-09
-2.07682e-09
6.20014e-09
-2.21444e-09
7.14836e-09
-2.3304e-09
8.13071e-09
-2.42452e-09
9.13912e-09
-2.49689e-09
1.01656e-08
-2.54787e-09
1.12023e-08
-2.57803e-09
1.22417e-08
-2.58804e-09
1.32762e-08
-2.57871e-09
1.42988e-08
-2.55091e-09
1.53027e-08
-2.50556e-09
1.62815e-08
-2.44363e-09
1.7229e-08
-2.36611e-09
1.81396e-08
-2.27401e-09
1.90079e-08
-2.16832e-09
1.9829e-08
-2.05005e-09
2.05982e-08
-1.92021e-09
2.13113e-08
-1.77978e-09
2.19646e-08
-1.62974e-09
2.25545e-08
-1.47107e-09
2.30779e-08
-1.30471e-09
2.35322e-08
-1.13163e-09
2.39151e-08
-9.52759e-10
2.42245e-08
-7.69032e-10
2.44589e-08
-5.81378e-10
2.4617e-08
-3.90723e-10
2.46981e-08
-1.97993e-10
2.47015e-08
-4.1139e-12
2.46273e-08
1.89982e-10
2.44756e-08
3.83356e-10
2.42472e-08
5.75063e-10
2.39431e-08
7.64145e-10
2.35647e-08
9.49632e-10
2.31138e-08
1.13054e-09
2.25927e-08
1.30587e-09
2.20039e-08
1.47462e-09
2.13505e-08
1.63575e-09
2.0636e-08
1.78823e-09
1.98641e-08
1.93099e-09
1.90393e-08
2.06298e-09
1.81661e-08
2.18312e-09
1.72496e-08
2.29033e-09
1.62954e-08
2.38355e-09
1.53094e-08
2.46169e-09
1.42979e-08
2.52372e-09
1.32675e-08
2.56861e-09
1.22254e-08
2.59537e-09
1.11788e-08
2.60308e-09
1.01353e-08
2.59087e-09
9.10293e-09
2.558e-09
8.08965e-09
2.50383e-09
7.10366e-09
2.4279e-09
6.15315e-09
2.32995e-09
5.24628e-09
2.21e-09
4.39098e-09
2.06841e-09
3.59491e-09
1.90596e-09
2.86523e-09
1.72397e-09
2.20848e-09
1.52447e-09
1.63038e-09
1.31032e-09
1.13569e-09
1.08547e-09
7.28032e-10
8.55211e-10
4.09821e-10
6.26453e-10
1.82287e-10
4.08147e-10
4.56994e-11
2.1186e-10
5.2709e-11
6.88446e-11
-1.26049e-10
2.66562e-10
-4.21056e-10
5.85856e-10
-7.4398e-10
1.02031e-09
-1.08071e-09
1.56367e-09
-1.42e-09
2.20948e-09
-1.75288e-09
2.95084e-09
-2.07224e-09
3.78039e-09
-2.37251e-09
4.69027e-09
-2.64948e-09
5.67217e-09
-2.90007e-09
6.71746e-09
-3.12211e-09
7.81722e-09
-3.3142e-09
8.96238e-09
-3.47556e-09
1.01438e-08
-3.60593e-09
1.13523e-08
-3.70544e-09
1.2579e-08
-3.77456e-09
1.3815e-08
-3.81398e-09
1.50516e-08
-3.82464e-09
1.62805e-08
-3.8076e-09
1.74936e-08
-3.76404e-09
1.86833e-08
-3.69524e-09
1.98422e-08
-3.60254e-09
2.09634e-08
-3.4873e-09
2.20403e-08
-3.35094e-09
2.30668e-08
-3.19487e-09
2.40373e-08
-3.02051e-09
2.49464e-08
-2.8293e-09
2.57892e-08
-2.62263e-09
2.65614e-08
-2.40193e-09
2.7259e-08
-2.16859e-09
2.78782e-08
-1.92399e-09
2.84161e-08
-1.66951e-09
2.88699e-08
-1.40651e-09
2.92372e-08
-1.13636e-09
2.95162e-08
-8.604e-10
2.97055e-08
-5.7999e-10
2.9804e-08
-2.96482e-10
2.98111e-08
-1.12335e-11
2.97267e-08
2.7439e-10
2.9551e-08
5.59013e-10
2.92848e-08
8.41248e-10
2.89293e-08
1.11969e-09
2.8486e-08
1.39292e-09
2.7957e-08
1.65949e-09
2.7345e-08
1.91795e-09
2.66528e-08
2.16681e-09
2.58839e-08
2.40458e-09
2.50424e-08
2.62974e-09
2.41326e-08
2.84075e-09
2.31595e-08
3.03608e-09
2.21285e-08
3.21418e-09
2.10453e-08
3.37348e-09
1.99164e-08
3.51247e-09
1.87485e-08
3.62961e-09
1.75488e-08
3.72342e-09
1.63249e-08
3.79246e-09
1.50849e-08
3.83534e-09
1.38372e-08
3.8508e-09
1.25904e-08
3.83766e-09
1.13535e-08
3.79489e-09
1.01357e-08
3.72166e-09
8.94624e-09
3.61737e-09
7.79448e-09
3.48171e-09
6.68976e-09
3.31472e-09
5.64128e-09
3.11689e-09
4.65799e-09
2.88924e-09
3.74852e-09
2.63344e-09
2.92105e-09
2.35194e-09
2.18323e-09
2.04815e-09
1.5421e-09
1.7266e-09
1.00414e-09
1.39317e-09
5.75266e-10
1.05533e-09
2.61078e-10
7.22334e-10
6.72036e-11
4.05735e-10
1.19913e-10
8.74906e-11
-2.1354e-10
3.35955e-10
-6.6952e-10
7.33067e-10
-1.14109e-09
1.2678e-09
-1.61544e-09
1.92982e-09
-2.08203e-09
2.70919e-09
-2.53225e-09
3.59605e-09
-2.9591e-09
4.58054e-09
-3.357e-09
5.6527e-09
-3.72165e-09
6.80247e-09
-4.04984e-09
8.01968e-09
-4.33932e-09
9.29412e-09
-4.58864e-09
1.06156e-08
-4.79701e-09
1.19739e-08
-4.96422e-09
1.33589e-08
-5.09053e-09
1.47609e-08
-5.17656e-09
1.61702e-08
-5.22324e-09
1.75774e-08
-5.23178e-09
1.89733e-08
-5.20355e-09
2.03493e-08
-5.14008e-09
2.16971e-08
-5.04302e-09
2.30087e-08
-4.91411e-09
2.42765e-08
-4.75513e-09
2.54935e-08
-4.56793e-09
2.6653e-08
-4.35435e-09
2.77488e-08
-4.11627e-09
2.8775e-08
-3.85557e-09
2.97265e-08
-3.57411e-09
3.05983e-08
-3.27376e-09
3.13861e-08
-2.95637e-09
3.20859e-08
-2.62379e-09
3.26943e-08
-2.27785e-09
3.32081e-08
-1.92038e-09
3.36249e-08
-1.55318e-09
3.39426e-08
-1.17809e-09
3.41595e-08
-7.96899e-10
3.42745e-08
-4.11443e-10
3.42868e-08
-2.35439e-11
3.41962e-08
3.6496e-10
3.4003e-08
7.52215e-10
3.37079e-08
1.13635e-09
3.33122e-08
1.51547e-09
3.28174e-08
1.88765e-09
3.2226e-08
2.25096e-09
3.15405e-08
2.60342e-09
3.07643e-08
2.94303e-09
2.99011e-08
3.26779e-09
2.89552e-08
3.57565e-09
2.79314e-08
3.86455e-09
2.68351e-08
4.13242e-09
2.5672e-08
4.37718e-09
2.44488e-08
4.59678e-09
2.31721e-08
4.78915e-09
2.18494e-08
4.95228e-09
2.04886e-08
5.0842e-09
1.90981e-08
5.18301e-09
1.76865e-08
5.24691e-09
1.62631e-08
5.2742e-09
1.48374e-08
5.26337e-09
1.34192e-08
5.21307e-09
1.20187e-08
5.12222e-09
1.0646e-08
4.99002e-09
9.31168e-09
4.81603e-09
8.02616e-09
4.60024e-09
6.79991e-09
4.34314e-09
5.64331e-09
4.04585e-09
4.56658e-09
3.71017e-09
3.57975e-09
3.33877e-09
2.69262e-09
2.93527e-09
1.91478e-09
2.50444e-09
1.25565e-09
2.0523e-09
7.24641e-10
1.58633e-09
3.31384e-10
1.11559e-09
8.60635e-11
6.51056e-10
2.05976e-10
1.03594e-10
-3.17134e-10
3.96556e-10
-9.62482e-10
8.62662e-10
-1.6072e-09
1.48707e-09
-2.23985e-09
2.25594e-09
-2.85089e-09
3.1561e-09
-3.43241e-09
4.17487e-09
-3.97787e-09
5.29991e-09
-4.48204e-09
6.51914e-09
-4.94088e-09
7.82066e-09
-5.35135e-09
9.19272e-09
-5.71139e-09
1.06238e-08
-6.0197e-09
1.21025e-08
-6.27569e-09
1.36176e-08
-6.47936e-09
1.51583e-08
-6.6312e-09
1.67139e-08
-6.73213e-09
1.8274e-08
-6.7834e-09
1.98288e-08
-6.78653e-09
2.13685e-08
-6.74328e-09
2.2884e-08
-6.65558e-09
2.43665e-08
-6.52549e-09
2.58075e-08
-6.35518e-09
2.71993e-08
-6.14689e-09
2.85343e-08
-5.90289e-09
2.98054e-08
-5.62553e-09
3.10063e-08
-5.31712e-09
3.21308e-08
-4.98003e-09
3.31733e-08
-4.61659e-09
3.41286e-08
-4.22914e-09
3.49923e-08
-3.82e-09
3.576e-08
-3.3915e-09
3.64281e-08
-2.94594e-09
3.69933e-08
-2.48561e-09
3.74529e-08
-2.01282e-09
3.78047e-08
-1.52985e-09
3.80468e-08
-1.039e-09
3.81779e-08
-5.42575e-10
3.81973e-08
-4.28885e-11
3.81045e-08
4.57725e-10
3.78998e-08
9.56911e-10
3.75839e-08
1.45229e-09
3.71579e-08
1.94144e-09
3.66236e-08
2.42193e-09
3.59833e-08
2.89129e-09
3.52397e-08
3.34699e-09
3.43963e-08
3.7865e-09
3.34568e-08
4.20725e-09
3.24259e-08
4.60662e-09
3.13084e-08
4.982e-09
3.01101e-08
5.33076e-09
2.8837e-08
5.65025e-09
2.74959e-08
5.93784e-09
2.60942e-08
6.19094e-09
2.46395e-08
6.40697e-09
2.31403e-08
6.58343e-09
2.16053e-08
6.71792e-09
2.00441e-08
6.80815e-09
1.84663e-08
6.85197e-09
1.68823e-08
6.84744e-09
1.53025e-08
6.79285e-09
1.37379e-08
6.68677e-09
1.21998e-08
6.52811e-09
1.06997e-08
6.31621e-09
9.24907e-09
6.05085e-09
7.85981e-09
5.73241e-09
6.54376e-09
5.3619e-09
5.31286e-09
4.94107e-09
4.17908e-09
4.47255e-09
3.15445e-09
3.95991e-09
2.25109e-09
3.4078e-09
1.48131e-09
2.82209e-09
8.5773e-10
2.20991e-09
3.93485e-10
1.57984e-09
1.02522e-10
9.4202e-10
3.08498e-10
1.17561e-10
-4.34695e-10
4.49443e-10
-1.29436e-09
9.76282e-10
-2.13404e-09
1.68007e-09
-2.94364e-09
2.5439e-09
-3.71473e-09
3.55176e-09
-4.44026e-09
4.68836e-09
-5.11446e-09
5.93903e-09
-5.73271e-09
7.28961e-09
-6.29146e-09
8.7264e-09
-6.78815e-09
1.02361e-08
-7.22112e-09
1.18059e-08
-7.58947e-09
1.34232e-08
-7.893e-09
1.50759e-08
-8.13209e-09
1.67524e-08
-8.30763e-09
1.84412e-08
-8.42094e-09
2.01315e-08
-8.47369e-09
2.18128e-08
-8.46784e-09
2.34751e-08
-8.4056e-09
2.51088e-08
-8.28934e-09
2.6705e-08
-8.1216e-09
2.82548e-08
-7.90503e-09
2.97502e-08
-7.64232e-09
3.11836e-08
-7.33626e-09
3.25477e-08
-6.98965e-09
3.38359e-08
-6.60531e-09
3.5042e-08
-6.18606e-09
3.61601e-08
-5.73473e-09
3.71851e-08
-5.25414e-09
3.81122e-08
-4.74707e-09
3.8937e-08
-4.21634e-09
3.96558e-08
-3.66471e-09
4.02651e-08
-3.09496e-09
4.07622e-08
-2.50987e-09
4.11445e-08
-1.91219e-09
4.14103e-08
-1.30471e-09
4.15579e-08
-6.90219e-10
4.15865e-08
-7.15223e-11
4.14957e-08
5.48544e-10
4.12855e-08
1.16712e-09
4.09565e-08
1.7813e-09
4.05098e-08
2.38814e-09
3.99471e-08
2.98468e-09
3.92705e-08
3.56787e-09
3.84828e-08
4.13465e-09
3.75874e-08
4.68191e-09
3.65882e-08
5.20649e-09
3.54896e-08
5.70521e-09
3.42968e-08
6.17483e-09
3.30154e-08
6.61213e-09
3.16518e-08
7.01387e-09
3.02128e-08
7.37681e-09
2.8706e-08
7.69774e-09
2.71395e-08
7.97351e-09
2.55219e-08
8.20103e-09
2.38625e-08
8.37734e-09
2.2171e-08
8.49958e-09
2.04579e-08
8.56509e-09
1.87339e-08
8.57143e-09
1.70104e-08
8.5164e-09
1.5299e-08
8.39816e-09
1.36119e-08
8.2152e-09
1.19616e-08
7.9665e-09
1.0361e-08
7.65152e-09
8.82304e-09
7.27032e-09
7.36129e-09
6.82365e-09
5.98937e-09
6.313e-09
4.72121e-09
5.74071e-09
3.57104e-09
5.11007e-09
2.55343e-09
4.42541e-09
1.68335e-09
3.69217e-09
9.76315e-10
2.91695e-09
4.48504e-10
2.10765e-09
1.16993e-10
1.27353e-09
4.25491e-10
1.2977e-10
-5.64464e-10
4.95747e-10
-1.66034e-09
1.07589e-09
-2.71418e-09
1.84946e-09
-3.71721e-09
2.79687e-09
-4.66214e-09
3.89956e-09
-5.54295e-09
5.13988e-09
-6.35479e-09
6.50101e-09
-7.09383e-09
7.96685e-09
-7.7573e-09
9.52203e-09
-8.34332e-09
1.11518e-08
-8.85086e-09
1.28419e-08
-9.27964e-09
1.4579e-08
-9.63003e-09
1.63499e-08
-9.90297e-09
1.81422e-08
-1.00999e-08
1.99439e-08
-1.02227e-08
2.17439e-08
-1.02736e-08
2.35311e-08
-1.02551e-08
2.52954e-08
-1.01699e-08
2.70269e-08
-1.00209e-08
2.87165e-08
-9.81114e-09
3.03553e-08
-9.54386e-09
3.19352e-08
-9.22224e-09
3.34485e-08
-8.84956e-09
3.4888e-08
-8.42912e-09
3.62469e-08
-7.96425e-09
3.75191e-08
-7.45824e-09
3.86988e-08
-6.91439e-09
3.97806e-08
-6.33601e-09
4.07599e-08
-5.72635e-09
4.16322e-08
-5.08866e-09
4.23937e-08
-4.4262e-09
4.30409e-08
-3.74219e-09
4.35709e-08
-3.03986e-09
4.39812e-08
-2.32245e-09
4.42697e-08
-1.59319e-09
4.44348e-08
-8.55355e-10
4.44755e-08
-1.12228e-10
4.43912e-08
6.32866e-10
4.41818e-08
1.37656e-09
4.38476e-08
2.11545e-09
4.33897e-08
2.84606e-09
4.28095e-08
3.56488e-09
4.2109e-08
4.26832e-09
4.1291e-08
4.95274e-09
4.03584e-08
5.61446e-09
3.93152e-08
6.2497e-09
3.81657e-08
6.85468e-09
3.6915e-08
7.42556e-09
3.55687e-08
7.95846e-09
3.41331e-08
8.4495e-09
3.26151e-08
8.89481e-09
3.10223e-08
9.29052e-09
2.9363e-08
9.63283e-09
2.7646e-08
9.91802e-09
2.58808e-08
1.01425e-08
2.40777e-08
1.03027e-08
2.22473e-08
1.03955e-08
2.04011e-08
1.04177e-08
1.85509e-08
1.03666e-08
1.67092e-08
1.02398e-08
1.48891e-08
1.00353e-08
1.3104e-08
9.75156e-09
1.1368e-08
9.3875e-09
9.69561e-09
8.94275e-09
8.10168e-09
8.41758e-09
6.60164e-09
7.81304e-09
5.21135e-09
7.131e-09
3.94714e-09
6.37429e-09
2.82588e-09
5.54667e-09
1.86502e-09
4.65303e-09
1.08267e-09
3.6993e-09
4.9771e-10
2.69261e-09
1.29888e-10
1.64135e-09
5.55378e-10
1.40513e-10
-7.04977e-10
5.36379e-10
-2.05621e-09
1.16312e-09
-3.34092e-09
1.99753e-09
-4.55162e-09
3.01762e-09
-5.68223e-09
4.20253e-09
-6.72786e-09
5.53244e-09
-7.6847e-09
6.98858e-09
-8.54997e-09
8.55309e-09
-9.32182e-09
1.0209e-08
-9.99927e-09
1.19403e-08
-1.05821e-08
1.37316e-08
-1.1071e-08
1.55685e-08
-1.14669e-08
1.74371e-08
-1.17716e-08
1.93244e-08
-1.19872e-08
2.1218e-08
-1.21164e-08
2.31063e-08
-1.21619e-08
2.49781e-08
-1.21269e-08
2.68231e-08
-1.20148e-08
2.86314e-08
-1.18291e-08
3.03937e-08
-1.15735e-08
3.21015e-08
-1.12516e-08
3.37465e-08
-1.08673e-08
3.53212e-08
-1.04242e-08
3.68184e-08
-9.92638e-09
3.82317e-08
-9.37749e-09
3.95548e-08
-8.78136e-09
4.07821e-08
-8.14175e-09
4.19085e-08
-7.4624e-09
4.29292e-08
-6.74704e-09
4.38399e-08
-5.99934e-09
4.46367e-08
-5.22299e-09
4.53161e-08
-4.42165e-09
4.58753e-08
-3.59897e-09
4.63114e-08
-2.75862e-09
4.66225e-08
-1.90428e-09
4.68068e-08
-1.03964e-09
4.6863e-08
-1.68465e-10
4.67904e-08
7.05472e-10
4.65887e-08
1.57833e-09
4.62579e-08
2.44619e-09
4.57989e-08
3.30509e-09
4.52128e-08
4.15098e-09
4.45014e-08
4.97973e-09
4.3667e-08
5.78712e-09
4.27126e-08
6.56888e-09
4.16416e-08
7.32064e-09
4.04583e-08
8.03798e-09
3.91675e-08
8.71641e-09
3.77745e-08
9.3514e-09
3.62856e-08
9.93838e-09
3.47076e-08
1.04728e-08
3.30481e-08
1.09501e-08
3.13152e-08
1.13657e-08
2.9518e-08
1.17152e-08
2.76661e-08
1.19944e-08
2.57699e-08
1.21989e-08
2.38405e-08
1.23248e-08
2.18898e-08
1.23684e-08
1.99302e-08
1.23262e-08
1.79749e-08
1.21951e-08
1.60379e-08
1.19724e-08
1.41335e-08
1.16559e-08
1.2277e-08
1.1244e-08
1.04841e-08
1.07356e-08
8.7714e-09
1.01303e-08
7.15584e-09
9.42859e-09
5.65517e-09
8.63168e-09
4.28774e-09
7.74171e-09
3.0726e-09
6.76181e-09
2.0295e-09
5.69613e-09
1.17894e-09
4.54985e-09
5.42236e-10
3.32931e-09
1.41554e-10
2.04203e-09
6.96933e-10
1.49981e-10
-8.54958e-10
5.71927e-10
-2.47815e-09
1.23901e-09
-4.008e-09
2.12569e-09
-5.43831e-09
3.20774e-09
-6.76428e-09
4.46217e-09
-7.98228e-09
5.86721e-09
-9.08974e-09
7.40229e-09
-1.00851e-08
9.04798e-09
-1.09675e-08
1.07859e-08
-1.17372e-08
1.25989e-08
-1.23951e-08
1.44706e-08
-1.29426e-08
1.63857e-08
-1.3382e-08
1.83298e-08
-1.37157e-08
2.02894e-08
-1.39469e-08
2.22519e-08
-1.40788e-08
2.42053e-08
-1.41153e-08
2.61386e-08
-1.40602e-08
2.80413e-08
-1.39175e-08
2.99037e-08
-1.36916e-08
3.17167e-08
-1.33865e-08
3.3472e-08
-1.30068e-08
3.51615e-08
-1.25568e-08
3.67779e-08
-1.20407e-08
3.83145e-08
-1.14629e-08
3.97648e-08
-1.08278e-08
4.11231e-08
-1.01396e-08
4.23839e-08
-9.40251e-09
4.35421e-08
-8.62067e-09
4.45933e-08
-7.79821e-09
4.55332e-08
-6.93924e-09
4.6358e-08
-6.04781e-09
4.70643e-08
-5.12798e-09
4.76491e-08
-4.18377e-09
4.81097e-08
-3.21923e-09
4.84439e-08
-2.23844e-09
4.86497e-08
-1.24549e-09
4.87258e-08
-2.44532e-10
4.86711e-08
7.60222e-10
4.84849e-08
1.76449e-09
4.81672e-08
2.76391e-09
4.77182e-08
3.75402e-09
4.7139e-08
4.73026e-09
4.64307e-08
5.68798e-09
4.55954e-08
6.62241e-09
4.46356e-08
7.52868e-09
4.35544e-08
8.40181e-09
4.23557e-08
9.23674e-09
4.10438e-08
1.00283e-08
3.96238e-08
1.07713e-08
3.81017e-08
1.14605e-08
3.64841e-08
1.20904e-08
3.47782e-08
1.26559e-08
3.29923e-08
1.31517e-08
3.11351e-08
1.35724e-08
2.92166e-08
1.39129e-08
2.72471e-08
1.41684e-08
2.5238e-08
1.43339e-08
2.32016e-08
1.44048e-08
2.11508e-08
1.4377e-08
1.90995e-08
1.42464e-08
1.70623e-08
1.40096e-08
1.50546e-08
1.36636e-08
1.30928e-08
1.32058e-08
1.11939e-08
1.26345e-08
9.37574e-09
1.19484e-08
7.65711e-09
1.11472e-08
6.05746e-09
1.02313e-08
4.59708e-09
9.20208e-09
3.2971e-09
8.0618e-09
2.17944e-09
6.81379e-09
1.26687e-09
5.46242e-09
5.82989e-10
4.01319e-09
1.52264e-10
2.47276e-09
8.49198e-10
1.58262e-10
-1.01322e-09
6.02617e-10
-2.92251e-09
1.30386e-09
-4.70924e-09
2.23418e-09
-6.36863e-09
3.36718e-09
-7.89728e-09
4.67788e-09
-9.29299e-09
6.14271e-09
-1.05546e-08
7.73947e-09
-1.16818e-08
9.44733e-09
-1.26754e-08
1.12467e-08
-1.35366e-08
1.31195e-08
-1.42678e-08
1.50484e-08
-1.48716e-08
1.70177e-08
-1.53512e-08
1.90125e-08
-1.57105e-08
2.1019e-08
-1.59534e-08
2.30246e-08
-1.60844e-08
2.50173e-08
-1.6108e-08
2.69861e-08
-1.6029e-08
2.89209e-08
-1.58523e-08
3.08122e-08
-1.55829e-08
3.26514e-08
-1.52257e-08
3.44303e-08
-1.47857e-08
3.61415e-08
-1.4268e-08
3.77781e-08
-1.36773e-08
3.93337e-08
-1.30185e-08
4.08024e-08
-1.22965e-08
4.21786e-08
-1.15159e-08
4.34574e-08
-1.06813e-08
4.46339e-08
-9.79724e-09
4.5704e-08
-8.86827e-09
4.66635e-08
-7.89878e-09
4.75089e-08
-6.89318e-09
4.82367e-08
-5.85582e-09
4.8844e-08
-4.79106e-09
4.93281e-08
-3.70325e-09
4.96864e-08
-2.5968e-09
4.99171e-08
-1.47614e-09
5.00183e-08
-3.45752e-10
4.99887e-08
7.89773e-10
4.98275e-08
1.92577e-09
4.95339e-08
3.05747e-09
4.9108e-08
4.17996e-09
4.855e-08
5.28822e-09
4.78609e-08
6.37708e-09
4.70421e-08
7.44125e-09
4.60955e-08
8.47527e-09
4.50237e-08
9.47357e-09
4.383e-08
1.04304e-08
4.25184e-08
1.134e-08
4.10933e-08
1.21963e-08
3.95604e-08
1.29934e-08
3.79256e-08
1.37252e-08
3.61962e-08
1.43854e-08
3.43798e-08
1.4968e-08
3.24853e-08
1.54669e-08
3.05222e-08
1.5876e-08
2.85012e-08
1.61894e-08
2.64337e-08
1.64013e-08
2.43322e-08
1.65063e-08
2.221e-08
1.64991e-08
2.00817e-08
1.63748e-08
1.79624e-08
1.61289e-08
1.58685e-08
1.57574e-08
1.38175e-08
1.52569e-08
1.18275e-08
1.46245e-08
9.91782e-09
1.38581e-08
8.10874e-09
1.29563e-08
6.42144e-09
1.19186e-08
4.87811e-09
1.07454e-08
3.50185e-09
9.43805e-09
2.31673e-09
7.99891e-09
1.3477e-09
6.43145e-09
6.20621e-10
4.74027e-09
1.62211e-10
2.93117e-09
1.01141e-09
1.65336e-10
-1.17855e-09
6.28298e-10
-3.38547e-09
1.3572e-09
-5.43814e-09
2.32194e-09
-7.33336e-09
3.49401e-09
-9.06935e-09
4.84652e-09
-1.06455e-08
6.35423e-09
-1.20623e-08
7.99349e-09
-1.33211e-08
9.74224e-09
-1.44241e-08
1.158e-08
-1.53744e-08
1.34876e-08
-1.61755e-08
1.54476e-08
-1.68316e-08
1.74436e-08
-1.73473e-08
1.94607e-08
-1.77276e-08
2.14852e-08
-1.79779e-08
2.35043e-08
-1.81035e-08
2.55065e-08
-1.81102e-08
2.74813e-08
-1.80037e-08
2.94188e-08
-1.77899e-08
3.13103e-08
-1.74743e-08
3.31475e-08
-1.70629e-08
3.49231e-08
-1.65613e-08
3.66302e-08
-1.59751e-08
3.82625e-08
-1.53096e-08
3.98142e-08
-1.45703e-08
4.12801e-08
-1.37624e-08
4.26551e-08
-1.28909e-08
4.39347e-08
-1.19608e-08
4.51145e-08
-1.09771e-08
4.61907e-08
-9.94445e-09
4.71595e-08
-8.86757e-09
4.80174e-08
-7.75109e-09
4.87612e-08
-6.59962e-09
4.93879e-08
-5.41774e-09
4.98947e-08
-4.21005e-09
5.02791e-08
-2.98118e-09
5.05388e-08
-1.73581e-09
5.06717e-08
-4.7871e-10
5.06762e-08
7.85263e-10
5.05509e-08
2.05112e-09
5.02946e-08
3.31374e-09
4.99068e-08
4.56783e-09
4.9387e-08
5.80794e-09
4.87357e-08
7.02845e-09
4.79534e-08
8.22355e-09
4.70414e-08
9.38722e-09
4.60017e-08
1.05133e-08
4.48367e-08
1.15954e-08
4.35497e-08
1.2627e-08
4.21446e-08
1.36014e-08
4.06263e-08
1.45118e-08
3.90003e-08
1.53512e-08
3.72731e-08
1.61126e-08
3.54521e-08
1.6789e-08
3.35458e-08
1.73732e-08
3.15634e-08
1.78583e-08
2.95155e-08
1.82373e-08
2.74135e-08
1.85033e-08
2.52701e-08
1.86498e-08
2.30988e-08
1.86704e-08
2.09145e-08
1.85591e-08
1.87333e-08
1.83102e-08
1.65721e-08
1.79186e-08
1.44493e-08
1.73797e-08
1.23844e-08
1.66894e-08
1.03979e-08
1.58446e-08
8.51163e-09
1.48426e-08
6.74838e-09
1.36819e-08
5.1322e-09
1.23616e-08
3.68817e-09
1.08821e-08
2.44244e-09
9.24464e-09
1.42218e-09
7.45171e-09
6.5553e-10
5.50692e-09
1.71516e-10
3.41518e-09
1.18292e-09
1.71081e-10
-1.34964e-09
6.48429e-10
-3.86282e-09
1.39774e-09
-6.18746e-09
2.38655e-09
-8.32217e-09
3.58426e-09
-1.02671e-08
4.96217e-09
-1.20234e-08
6.49347e-09
-1.35936e-08
8.15326e-09
-1.49809e-08
9.91845e-09
-1.61893e-08
1.17678e-08
-1.72237e-08
1.36817e-08
-1.80894e-08
1.56423e-08
-1.87922e-08
1.76333e-08
-1.93383e-08
1.96398e-08
-1.97341e-08
2.16483e-08
-1.99864e-08
2.36468e-08
-2.01019e-08
2.56241e-08
-2.00875e-08
2.75703e-08
-1.995e-08
2.94766e-08
-1.96961e-08
3.13348e-08
-1.93325e-08
3.31376e-08
-1.88658e-08
3.48786e-08
-1.83023e-08
3.65517e-08
-1.76482e-08
3.81516e-08
-1.69095e-08
3.96733e-08
-1.60919e-08
4.11121e-08
-1.52012e-08
4.2464e-08
-1.42427e-08
4.37248e-08
-1.32217e-08
4.4891e-08
-1.21433e-08
4.5959e-08
-1.10124e-08
4.69254e-08
-9.83399e-09
4.77871e-08
-8.61274e-09
4.85409e-08
-7.35342e-09
4.91839e-08
-6.06074e-09
4.97133e-08
-4.7394e-09
5.01263e-08
-3.39418e-09
5.04203e-08
-2.02989e-09
5.05931e-08
-6.51479e-10
5.06424e-08
7.36004e-10
5.05661e-08
2.12734e-09
5.03628e-08
3.51714e-09
5.00308e-08
4.8998e-09
4.95692e-08
6.26953e-09
4.89774e-08
7.62028e-09
4.82552e-08
8.94576e-09
4.74029e-08
1.02395e-08
4.64217e-08
1.14946e-08
4.53129e-08
1.27041e-08
4.40791e-08
1.38609e-08
4.27231e-08
1.49573e-08
4.12491e-08
1.59858e-08
3.96618e-08
1.69385e-08
3.79669e-08
1.78075e-08
3.61712e-08
1.85846e-08
3.42827e-08
1.92618e-08
3.23101e-08
1.98309e-08
3.02637e-08
2.02837e-08
2.81548e-08
2.06122e-08
2.59959e-08
2.08087e-08
2.38009e-08
2.08654e-08
2.15849e-08
2.07751e-08
1.93644e-08
2.05307e-08
1.71571e-08
2.01259e-08
1.49823e-08
1.95545e-08
1.28604e-08
1.88113e-08
1.08132e-08
1.78917e-08
8.86408e-09
1.67918e-08
7.03743e-09
1.55085e-08
5.35909e-09
1.40399e-08
3.85612e-09
1.23851e-08
2.5568e-09
1.0544e-08
1.49056e-09
8.51796e-09
6.87873e-10
6.3096e-09
1.80234e-10
3.92282e-09
1.36316e-09
1.75267e-10
-1.5249e-09
6.62064e-10
-4.34961e-09
1.42331e-09
-6.9487e-09
2.42409e-09
-9.32296e-09
3.63175e-09
-1.14747e-08
5.01585e-09
-1.34075e-08
6.54818e-09
-1.51259e-08
8.20275e-09
-1.66354e-08
9.95571e-09
-1.79423e-08
1.17853e-08
-1.90533e-08
1.36718e-08
-1.99759e-08
1.55974e-08
-2.07177e-08
1.7546e-08
-2.12868e-08
1.95032e-08
-2.16913e-08
2.14563e-08
-2.19395e-08
2.33938e-08
-2.20395e-08
2.53057e-08
-2.19995e-08
2.71832e-08
-2.18274e-08
2.90183e-08
-2.15312e-08
3.08042e-08
-2.11185e-08
3.25349e-08
-2.05964e-08
3.42048e-08
-1.99723e-08
3.58093e-08
-1.92527e-08
3.7344e-08
-1.84442e-08
3.88051e-08
-1.7553e-08
4.0189e-08
-1.65851e-08
4.14924e-08
-1.55461e-08
4.27121e-08
-1.44414e-08
4.38452e-08
-1.32764e-08
4.48886e-08
-1.20559e-08
4.58396e-08
-1.07849e-08
4.66952e-08
-9.46832e-09
4.74525e-08
-8.11073e-09
4.81086e-08
-6.71688e-09
4.86607e-08
-5.29147e-09
4.91058e-08
-3.83926e-09
4.94409e-08
-2.36508e-09
4.96634e-08
-8.73921e-10
4.97703e-08
6.2909e-10
4.9759e-08
2.13862e-09
4.96271e-08
3.6491e-09
4.93721e-08
5.15474e-09
4.89922e-08
6.64942e-09
4.84857e-08
8.12678e-09
4.78514e-08
9.58011e-09
4.70884e-08
1.10024e-08
4.61967e-08
1.23863e-08
4.51766e-08
1.37242e-08
4.40293e-08
1.50081e-08
4.27568e-08
1.62298e-08
4.13619e-08
1.73807e-08
3.98484e-08
1.84521e-08
3.8221e-08
1.94349e-08
3.64857e-08
2.032e-08
3.46495e-08
2.1098e-08
3.27207e-08
2.17596e-08
3.0709e-08
2.22954e-08
2.86253e-08
2.2696e-08
2.64819e-08
2.29521e-08
2.42926e-08
2.30547e-08
2.20727e-08
2.29949e-08
1.98391e-08
2.27644e-08
1.761e-08
2.23549e-08
1.54055e-08
2.1759e-08
1.3247e-08
2.09699e-08
1.11575e-08
1.99812e-08
9.16161e-09
1.87876e-08
7.28551e-09
1.73846e-08
5.5568e-09
1.57687e-08
4.00454e-09
1.39373e-08
2.65921e-09
1.18893e-08
1.55256e-09
9.62461e-09
7.17576e-10
7.14459e-09
1.8836e-10
4.45204e-09
1.55152e-09
1.77553e-10
-1.70245e-09
6.6783e-10
-4.83989e-09
1.4308e-09
-7.71167e-09
2.42907e-09
-1.03212e-08
3.62793e-09
-1.26736e-08
4.99532e-09
-1.47749e-08
6.5018e-09
-1.66324e-08
8.12055e-09
-1.82542e-08
9.82725e-09
-1.9649e-08
1.16e-08
-2.08261e-08
1.34192e-08
-2.17951e-08
1.52675e-08
-2.2566e-08
1.71296e-08
-2.31489e-08
1.89918e-08
-2.35536e-08
2.08427e-08
-2.37903e-08
2.26719e-08
-2.38687e-08
2.44709e-08
-2.37984e-08
2.62321e-08
-2.35887e-08
2.79493e-08
-2.32485e-08
2.96172e-08
-2.27863e-08
3.12312e-08
-2.22104e-08
3.27875e-08
-2.15285e-08
3.42828e-08
-2.0748e-08
3.57142e-08
-1.98756e-08
3.70793e-08
-1.89181e-08
3.83757e-08
-1.78815e-08
3.96012e-08
-1.67717e-08
4.07538e-08
-1.5594e-08
4.18313e-08
-1.43538e-08
4.28315e-08
-1.3056e-08
4.3752e-08
-1.17055e-08
4.45904e-08
-1.03067e-08
4.5344e-08
-8.86434e-09
4.601e-08
-7.38288e-09
4.65854e-08
-5.86687e-09
4.7067e-08
-4.32088e-09
4.74515e-08
-2.74962e-09
4.77355e-08
-1.15795e-09
4.79156e-08
4.49059e-10
4.79881e-08
2.06609e-09
4.79496e-08
3.68754e-09
4.77969e-08
5.3075e-09
4.75266e-08
6.91968e-09
4.71359e-08
8.51745e-09
4.66223e-08
1.00938e-08
4.59835e-08
1.16412e-08
4.5218e-08
1.31518e-08
4.43248e-08
1.46175e-08
4.33035e-08
1.60294e-08
4.21548e-08
1.73786e-08
4.088e-08
1.86555e-08
3.94816e-08
1.98505e-08
3.79631e-08
2.09533e-08
3.63293e-08
2.19537e-08
3.45862e-08
2.28411e-08
3.27412e-08
2.36047e-08
3.0803e-08
2.42336e-08
2.87821e-08
2.47169e-08
2.66903e-08
2.50439e-08
2.45412e-08
2.52038e-08
2.23501e-08
2.51861e-08
2.01339e-08
2.49805e-08
1.79114e-08
2.45774e-08
1.57032e-08
2.39672e-08
1.35316e-08
2.31415e-08
1.14208e-08
2.2092e-08
9.39681e-09
2.08117e-08
7.48726e-09
1.92942e-08
5.72162e-09
1.75343e-08
4.13104e-09
1.55279e-08
2.74824e-09
1.32721e-08
1.60746e-09
1.07654e-08
7.44346e-10
8.0077e-09
1.95832e-10
5.00055e-09
1.74735e-09
1.77477e-10
-1.87993e-09
6.63897e-10
-5.32631e-09
1.41613e-09
-8.4639e-09
2.39429e-09
-1.12994e-08
3.56166e-09
-1.3841e-08
4.88474e-09
-1.6098e-08
6.33309e-09
-1.80808e-08
7.87937e-09
-1.98004e-08
9.49912e-09
-2.12687e-08
1.11707e-08
-2.24977e-08
1.28752e-08
-2.34996e-08
1.45961e-08
-2.42869e-08
1.63192e-08
-2.48719e-08
1.80324e-08
-2.52669e-08
1.97257e-08
-2.54836e-08
2.13907e-08