/*--------------------------------*- C++ -*----------------------------------*\
  =========                 |
  \\      /  F ield         | OpenFOAM: The Open Source CFD Toolbox
   \\    /   O peration     | Website:  https://openfoam.org
    \\  /    A nd           | Version:  12
     \\/     M anipulation  |
\*---------------------------------------------------------------------------*/
FoamFile
{
    format      ascii;
    class       volScalarField;
    location    "1.5";
    object      nut;
}
// * * * * * * * * * * * * * * * * * * * * * * * * * * * * * * * * * * * * * //

dimensions      [0 2 -1 0 0 0 0];

internalField   nonuniform List<scalar> 
5625
(
4.91812e-15
1.4859e-13
3.14882e-13
5.13272e-13
7.36613e-13
9.795e-13
1.23798e-12
1.50898e-12
1.79001e-12
2.07886e-12
2.3736e-12
2.67241e-12
2.97362e-12
3.27564e-12
3.57697e-12
3.87615e-12
4.1718e-12
4.4626e-12
4.74728e-12
5.02461e-12
5.29344e-12
5.55265e-12
5.8012e-12
6.03808e-12
6.26237e-12
6.47318e-12
6.6697e-12
6.85117e-12
7.01692e-12
7.16632e-12
7.29882e-12
7.41394e-12
7.51126e-12
7.59044e-12
7.65121e-12
7.69335e-12
7.71675e-12
7.72134e-12
7.70714e-12
7.67422e-12
7.62273e-12
7.5529e-12
7.46501e-12
7.35942e-12
7.23655e-12
7.09688e-12
6.94097e-12
6.76942e-12
6.58291e-12
6.38216e-12
6.16795e-12
5.94111e-12
5.70255e-12
5.45319e-12
5.19404e-12
4.92611e-12
4.6505e-12
4.36834e-12
4.08079e-12
3.78908e-12
3.49447e-12
3.19828e-12
2.90189e-12
2.60671e-12
2.31427e-12
2.02614e-12
1.74403e-12
1.46981e-12
1.20554e-12
9.53645e-13
7.17052e-13
4.99578e-13
3.06451e-13
1.44601e-13
4.7859e-15
3.32668e-14
4.85903e-12
2.59497e-11
6.06749e-11
1.02e-10
1.46626e-10
1.93374e-10
2.41737e-10
2.91394e-10
3.42075e-10
3.93523e-10
4.45488e-10
4.97722e-10
5.49984e-10
6.02038e-10
6.53653e-10
7.04606e-10
7.54679e-10
8.03663e-10
8.51355e-10
8.97561e-10
9.42095e-10
9.8478e-10
1.02545e-09
1.06394e-09
1.10012e-09
1.13383e-09
1.16496e-09
1.19338e-09
1.21899e-09
1.24171e-09
1.26143e-09
1.27811e-09
1.29167e-09
1.30208e-09
1.30929e-09
1.31328e-09
1.31406e-09
1.31161e-09
1.30595e-09
1.29711e-09
1.28512e-09
1.27004e-09
1.25192e-09
1.23085e-09
1.20689e-09
1.18015e-09
1.15072e-09
1.11873e-09
1.08429e-09
1.04753e-09
1.00861e-09
9.67664e-10
9.24857e-10
8.80353e-10
8.34327e-10
7.86959e-10
7.38438e-10
6.88958e-10
6.38719e-10
5.87929e-10
5.36799e-10
4.85547e-10
4.34397e-10
3.83575e-10
3.33313e-10
2.83847e-10
2.35419e-10
1.88283e-10
1.42745e-10
9.9289e-11
5.90577e-11
2.52564e-11
4.72882e-12
3.23723e-14
7.39711e-14
1.21682e-11
8.31202e-11
2.48477e-10
5.02147e-10
8.17868e-10
1.17195e-09
1.54908e-09
1.94031e-09
2.34033e-09
2.74573e-09
3.15398e-09
3.56302e-09
3.97104e-09
4.37631e-09
4.7772e-09
5.17212e-09
5.55952e-09
5.93791e-09
6.30582e-09
6.66186e-09
7.00467e-09
7.33296e-09
7.64551e-09
7.94114e-09
8.21876e-09
8.47736e-09
8.716e-09
8.93381e-09
9.13001e-09
9.30391e-09
9.45491e-09
9.58248e-09
9.68619e-09
9.7657e-09
9.82077e-09
9.85122e-09
9.85699e-09
9.83811e-09
9.79467e-09
9.72689e-09
9.63504e-09
9.51951e-09
9.38075e-09
9.21931e-09
9.03581e-09
8.83093e-09
8.60547e-09
8.36027e-09
8.09625e-09
7.81438e-09
7.51572e-09
7.20139e-09
6.87253e-09
6.53037e-09
6.17617e-09
5.81125e-09
5.43695e-09
5.05468e-09
4.66584e-09
4.2719e-09
3.87435e-09
3.47473e-09
3.07463e-09
2.67578e-09
2.28011e-09
1.88998e-09
1.50865e-09
1.14122e-09
7.96344e-10
4.88882e-10
2.41882e-10
8.08992e-11
1.18408e-11
7.19703e-14
1.22391e-13
2.06358e-11
1.50543e-10
4.94963e-10
1.10706e-09
1.97559e-09
3.05178e-09
4.2793e-09
5.61008e-09
7.00811e-09
8.4477e-09
9.91058e-09
1.13833e-08
1.28556e-08
1.43191e-08
1.57664e-08
1.71914e-08
1.8588e-08
1.99507e-08
2.12745e-08
2.25542e-08
2.37853e-08
2.49632e-08
2.60837e-08
2.71428e-08
2.81367e-08
2.9062e-08
2.99153e-08
3.06938e-08
3.13947e-08
3.20157e-08
3.25546e-08
3.30098e-08
3.33798e-08
3.36633e-08
3.38595e-08
3.3968e-08
3.39884e-08
3.3921e-08
3.3766e-08
3.35242e-08
3.31967e-08
3.27846e-08
3.22897e-08
3.17138e-08
3.10592e-08
3.03281e-08
2.95232e-08
2.86477e-08
2.77044e-08
2.6697e-08
2.56289e-08
2.4504e-08
2.33262e-08
2.20997e-08
2.08289e-08
1.95184e-08
1.81727e-08
1.6797e-08
1.53962e-08
1.3976e-08
1.25423e-08
1.11018e-08
9.66258e-09
8.23428e-09
6.82971e-09
5.46639e-09
4.16912e-09
2.97279e-09
1.92411e-09
1.07796e-09
4.81801e-10
1.4649e-10
2.00744e-11
1.1904e-13
1.76383e-13
2.99899e-11
2.24042e-10
7.65942e-10
1.79917e-09
3.38274e-09
5.49377e-09
8.05743e-09
1.09794e-08
1.4168e-08
1.75444e-08
2.10446e-08
2.46183e-08
2.82258e-08
3.18355e-08
3.54218e-08
3.89629e-08
4.24403e-08
4.58374e-08
4.91394e-08
5.23328e-08
5.5405e-08
5.83444e-08
6.114e-08
6.37819e-08
6.62605e-08
6.85673e-08
7.06942e-08
7.26341e-08
7.43803e-08
7.59271e-08
7.72695e-08
7.84031e-08
7.93244e-08
8.00306e-08
8.05198e-08
8.07906e-08
8.08426e-08
8.06763e-08
8.02923e-08
7.96926e-08
7.88797e-08
7.78569e-08
7.66279e-08
7.51975e-08
7.35709e-08
7.17541e-08
6.97535e-08
6.75763e-08
6.52303e-08
6.27237e-08
6.00654e-08
5.72649e-08
5.43321e-08
5.12775e-08
4.81124e-08
4.48488e-08
4.14995e-08
3.80784e-08
3.46011e-08
3.1085e-08
2.75505e-08
2.40219e-08
2.05296e-08
1.71112e-08
1.38155e-08
1.0704e-08
7.85349e-09
5.35318e-09
3.29495e-09
1.75169e-09
7.45354e-10
2.17914e-10
2.91585e-11
1.71458e-13
2.34603e-13
4.0038e-11
3.02324e-10
1.05281e-09
2.53549e-09
4.90782e-09
8.21864e-09
1.24221e-08
1.74097e-08
2.3044e-08
2.91833e-08
3.56961e-08
4.24676e-08
4.94005e-08
5.64137e-08
6.34394e-08
7.04206e-08
7.73091e-08
8.40631e-08
9.06461e-08
9.70255e-08
1.03172e-07
1.0906e-07
1.14666e-07
1.19966e-07
1.24941e-07
1.29573e-07
1.33845e-07
1.37743e-07
1.41252e-07
1.44361e-07
1.4706e-07
1.4934e-07
1.51194e-07
1.52616e-07
1.53603e-07
1.54152e-07
1.54262e-07
1.53933e-07
1.53169e-07
1.51972e-07
1.50347e-07
1.48301e-07
1.45841e-07
1.42978e-07
1.39721e-07
1.36083e-07
1.32077e-07
1.27717e-07
1.23019e-07
1.18001e-07
1.1268e-07
1.07077e-07
1.01213e-07
9.51108e-08
8.87964e-08
8.2297e-08
7.56433e-08
6.88697e-08
6.20157e-08
5.51271e-08
4.82579e-08
4.14729e-08
3.48502e-08
2.84836e-08
2.24846e-08
1.69811e-08
1.21111e-08
8.00885e-09
4.77966e-09
2.46762e-09
1.02392e-09
2.93847e-10
3.88979e-11
2.2787e-13
2.96076e-13
5.06274e-11
3.84421e-10
1.35189e-09
3.30093e-09
6.49806e-09
1.1088e-08
1.70897e-08
2.44193e-08
3.29241e-08
4.24159e-08
5.26969e-08
6.3577e-08
7.48822e-08
8.64585e-08
9.81715e-08
1.09905e-07
1.21559e-07
1.33047e-07
1.44291e-07
1.55226e-07
1.65791e-07
1.75935e-07
1.85609e-07
1.9477e-07
2.03381e-07
2.11406e-07
2.18814e-07
2.25578e-07
2.31672e-07
2.37075e-07
2.41768e-07
2.45736e-07
2.48965e-07
2.51446e-07
2.53172e-07
2.54137e-07
2.54341e-07
2.53785e-07
2.52471e-07
2.50407e-07
2.47601e-07
2.44064e-07
2.39811e-07
2.34859e-07
2.29225e-07
2.22932e-07
2.16004e-07
2.08466e-07
2.00349e-07
1.91683e-07
1.82503e-07
1.72848e-07
1.62759e-07
1.52282e-07
1.41466e-07
1.30368e-07
1.19052e-07
1.07589e-07
9.60632e-08
8.45691e-08
7.32188e-08
6.21418e-08
5.14875e-08
4.14248e-08
3.21393e-08
2.38238e-08
1.6662e-08
1.08022e-08
6.32528e-09
3.21031e-09
1.31365e-09
3.7327e-10
4.91334e-11
2.87265e-13
3.60027e-13
6.16319e-11
4.69486e-10
1.66049e-09
4.08767e-09
8.12994e-09
1.40378e-08
2.1915e-08
3.17294e-08
4.33422e-08
5.6544e-08
7.10869e-08
8.6711e-08
1.03162e-07
1.20202e-07
1.37614e-07
1.55202e-07
1.72795e-07
1.9024e-07
2.07402e-07
2.24162e-07
2.40413e-07
2.56061e-07
2.71023e-07
2.85223e-07
2.98592e-07
3.11072e-07
3.22608e-07
3.33152e-07
3.42663e-07
3.51104e-07
3.58443e-07
3.64654e-07
3.69715e-07
3.7361e-07
3.76327e-07
3.77857e-07
3.78198e-07
3.77352e-07
3.75324e-07
3.72123e-07
3.67765e-07
3.62268e-07
3.55654e-07
3.47952e-07
3.39191e-07
3.29407e-07
3.18641e-07
3.06936e-07
2.94341e-07
2.80911e-07
2.66704e-07
2.51788e-07
2.36234e-07
2.20123e-07
2.03545e-07
1.86601e-07
1.69406e-07
1.52087e-07
1.34791e-07
1.17684e-07
1.00955e-07
8.48137e-08
6.94936e-08
5.52427e-08
4.2315e-08
3.09524e-08
2.13589e-08
1.36678e-08
7.90708e-09
3.97128e-09
1.61156e-09
4.55264e-10
5.97297e-11
3.48817e-13
4.25812e-13
7.29444e-11
5.56767e-10
1.97618e-09
4.88985e-09
9.7895e-09
1.70346e-08
2.68222e-08
3.91872e-08
5.40252e-08
7.11266e-08
9.02126e-08
1.10967e-07
1.33062e-07
1.56174e-07
1.79998e-07
2.04251e-07
2.28673e-07
2.53031e-07
2.77115e-07
3.00736e-07
3.23728e-07
3.45939e-07
3.67234e-07
3.87493e-07
4.06609e-07
4.24485e-07
4.41036e-07
4.56185e-07
4.69867e-07
4.82024e-07
4.92607e-07
5.01573e-07
5.08889e-07
5.14529e-07
5.18473e-07
5.2071e-07
5.21233e-07
5.20046e-07
5.17156e-07
5.12577e-07
5.06332e-07
4.98447e-07
4.88959e-07
4.77907e-07
4.65341e-07
4.51313e-07
4.35886e-07
4.1913e-07
4.01119e-07
3.81941e-07
3.61689e-07
3.40468e-07
3.18395e-07
2.95598e-07
2.72221e-07
2.48427e-07
2.24394e-07
2.00326e-07
1.76447e-07
1.53009e-07
1.30288e-07
1.08583e-07
8.82091e-08
6.9489e-08
5.27315e-08
3.82082e-08
2.61215e-08
1.65688e-08
9.50933e-09
4.74381e-09
1.91491e-09
5.38982e-10
7.05679e-11
4.11812e-13
4.92877e-13
8.44717e-11
6.4559e-10
2.29677e-09
5.70233e-09
1.14661e-08
2.00564e-08
3.17662e-08
4.67045e-08
6.48129e-08
8.58961e-08
1.09659e-07
1.35745e-07
1.6376e-07
1.93303e-07
2.23982e-07
2.5542e-07
2.87266e-07
3.19197e-07
3.50916e-07
3.82154e-07
4.12669e-07
4.42242e-07
4.70675e-07
4.97791e-07
5.23431e-07
5.47454e-07
5.69733e-07
5.90157e-07
6.08627e-07
6.25059e-07
6.39379e-07
6.51527e-07
6.61452e-07
6.69115e-07
6.74487e-07
6.7755e-07
6.78296e-07
6.76729e-07
6.72855e-07
6.66698e-07
6.58287e-07
6.47662e-07
6.34874e-07
6.1998e-07
6.03051e-07
5.84164e-07
5.6341e-07
5.4089e-07
5.16714e-07
4.91009e-07
4.63914e-07
4.35583e-07
4.06187e-07
3.75916e-07
3.4498e-07
3.13615e-07
2.82078e-07
2.50657e-07
2.19667e-07
1.8945e-07
1.60374e-07
1.32826e-07
1.072e-07
8.38798e-08
6.3216e-08
4.54939e-08
3.08987e-08
1.94794e-08
1.11192e-08
5.5217e-09
2.22106e-09
6.23637e-10
8.15401e-11
4.75612e-13
5.60739e-13
9.61319e-11
7.35353e-10
2.62023e-09
6.52039e-09
1.31504e-08
2.30859e-08
3.67155e-08
5.42243e-08
7.56049e-08
1.00685e-07
1.29165e-07
1.60655e-07
1.94708e-07
2.30853e-07
2.68612e-07
3.0752e-07
3.47132e-07
3.8703e-07
4.26825e-07
4.66161e-07
5.04712e-07
5.42181e-07
5.783e-07
6.12825e-07
6.45537e-07
6.76242e-07
7.04763e-07
7.30947e-07
7.54658e-07
7.75777e-07
7.94202e-07
8.09848e-07
8.22646e-07
8.32541e-07
8.39491e-07
8.43472e-07
8.4447e-07
8.42491e-07
8.37542e-07
8.29654e-07
8.18867e-07
8.05237e-07
7.88829e-07
7.69725e-07
7.48019e-07
7.2382e-07
6.9725e-07
6.68447e-07
6.37568e-07
6.04785e-07
5.70289e-07
5.34293e-07
4.97032e-07
4.58767e-07
4.19784e-07
3.80398e-07
3.40956e-07
3.01836e-07
2.63446e-07
2.26223e-07
1.90625e-07
1.57121e-07
1.26176e-07
9.82269e-08
7.36525e-08
5.27411e-08
3.56515e-08
2.2378e-08
1.2725e-08
6.299e-09
2.52752e-09
7.08491e-10
9.25465e-11
5.39628e-13
6.28969e-13
1.07853e-10
8.25515e-10
2.94472e-09
7.3397e-09
1.48341e-08
2.61086e-08
4.16452e-08
6.17048e-08
8.63326e-08
1.15383e-07
1.48558e-07
1.85441e-07
2.25542e-07
2.68324e-07
3.13233e-07
3.59716e-07
4.07236e-07
4.5528e-07
5.03367e-07
5.51049e-07
5.97912e-07
6.43576e-07
6.87694e-07
7.29952e-07
7.70065e-07
8.07777e-07
8.4286e-07
8.75108e-07
9.04344e-07
9.30412e-07
9.53176e-07
9.72525e-07
9.88366e-07
1.00062e-06
1.00925e-06
1.0142e-06
1.01547e-06
1.01305e-06
1.00696e-06
9.97232e-07
9.83926e-07
9.67109e-07
9.46868e-07
9.23309e-07
8.96554e-07
8.66746e-07
8.34046e-07
7.98636e-07
7.60718e-07
7.20519e-07
6.7829e-07
6.34308e-07
5.88878e-07
5.42338e-07
4.95054e-07
4.4743e-07
3.99903e-07
3.52945e-07
3.07057e-07
2.62768e-07
2.20623e-07
1.81169e-07
1.44932e-07
1.12393e-07
8.3953e-08
5.9895e-08
4.03464e-08
2.52446e-08
1.43152e-08
7.06994e-09
2.83186e-09
7.92841e-10
1.03494e-10
6.03311e-13
6.9719e-13
1.19569e-10
9.15593e-10
3.26859e-09
8.15632e-09
1.65095e-08
2.91113e-08
4.65342e-08
6.91127e-08
9.69439e-08
1.29911e-07
1.67717e-07
2.09929e-07
2.56014e-07
3.05377e-07
3.57393e-07
4.11425e-07
4.66847e-07
5.23056e-07
5.79476e-07
6.35567e-07
6.90825e-07
7.44786e-07
7.97022e-07
8.47143e-07
8.94794e-07
9.39656e-07
9.81442e-07
1.01989e-06
1.05479e-06
1.08593e-06
1.11314e-06
1.13629e-06
1.15525e-06
1.16993e-06
1.18027e-06
1.18621e-06
1.18774e-06
1.18486e-06
1.17758e-06
1.16595e-06
1.15004e-06
1.12993e-06
1.10573e-06
1.07758e-06
1.04563e-06
1.01007e-06
9.71078e-07
9.28901e-07
8.83789e-07
8.36026e-07
7.85926e-07
7.33834e-07
6.80131e-07
6.25231e-07
5.69589e-07
5.13695e-07
4.58077e-07
4.033e-07
3.49958e-07
2.98668e-07
2.50057e-07
2.04742e-07
1.63307e-07
1.26269e-07
9.40438e-08
6.6907e-08
4.49521e-08
2.80598e-08
1.58789e-08
7.82886e-09
3.13176e-09
8.76018e-10
1.14293e-10
6.66139e-13
7.65071e-13
1.31225e-10
1.00516e-09
3.59035e-09
8.96668e-09
1.81698e-08
3.20822e-08
5.1364e-08
7.64199e-08
1.07397e-07
1.44206e-07
1.86555e-07
2.33992e-07
2.85948e-07
3.41774e-07
4.00775e-07
4.62239e-07
5.25453e-07
5.89724e-07
6.54386e-07
7.18808e-07
7.82397e-07
8.44603e-07
9.04918e-07
9.62873e-07
1.01804e-06
1.07005e-06
1.11853e-06
1.16318e-06
1.20374e-06
1.23995e-06
1.27162e-06
1.29856e-06
1.32064e-06
1.33774e-06
1.34977e-06
1.35668e-06
1.35845e-06
1.35508e-06
1.34657e-06
1.333e-06
1.31444e-06
1.291e-06
1.26281e-06
1.23003e-06
1.19285e-06
1.15148e-06
1.10618e-06
1.05722e-06
1.00491e-06
9.49585e-07
8.91635e-07
8.31472e-07
7.69551e-07
7.06369e-07
6.42461e-07
5.78408e-07
5.14828e-07
4.52374e-07
3.91731e-07
3.33598e-07
2.7868e-07
2.27658e-07
1.81167e-07
1.39758e-07
1.03858e-07
7.37313e-08
4.94384e-08
3.08048e-08
1.7405e-08
8.57025e-09
3.42495e-09
9.57375e-10
1.24859e-10
7.27616e-13
8.32322e-13
1.42771e-10
1.09384e-09
3.9087e-09
9.76763e-09
1.98087e-08
3.50108e-08
5.6118e-08
8.36021e-08
1.17657e-07
1.5822e-07
2.05002e-07
2.57535e-07
3.15215e-07
3.7734e-07
4.43154e-07
5.11866e-07
5.82685e-07
6.5483e-07
7.27547e-07
8.00117e-07
8.71861e-07
9.42142e-07
1.01037e-06
1.07601e-06
1.13856e-06
1.19756e-06
1.25262e-06
1.30336e-06
1.34947e-06
1.39065e-06
1.42668e-06
1.45733e-06
1.48245e-06
1.50189e-06
1.51556e-06
1.52339e-06
1.52535e-06
1.52145e-06
1.5117e-06
1.49617e-06
1.47495e-06
1.44818e-06
1.41601e-06
1.37863e-06
1.33627e-06
1.28917e-06
1.23763e-06
1.18198e-06
1.12258e-06
1.05983e-06
9.94183e-07
9.26116e-07
8.56161e-07
7.84895e-07
7.12935e-07
6.40948e-07
5.69636e-07
4.99742e-07
4.32032e-07
3.67287e-07
3.06281e-07
2.49756e-07
1.98394e-07
1.52773e-07
1.13332e-07
8.03237e-08
5.37757e-08
3.34608e-08
1.88829e-08
9.28872e-09
3.70923e-09
1.03629e-09
1.35109e-10
7.8726e-13
8.98694e-13
1.54165e-10
1.18132e-09
4.22251e-09
1.05564e-08
2.1421e-08
3.78881e-08
6.07823e-08
9.06387e-08
1.27696e-07
1.71913e-07
2.23004e-07
2.80486e-07
3.43717e-07
4.1195e-07
4.84362e-07
5.60095e-07
6.38277e-07
7.18045e-07
7.98561e-07
8.79018e-07
9.58654e-07
1.03675e-06
1.11265e-06
1.18572e-06
1.2554e-06
1.32117e-06
1.38258e-06
1.4392e-06
1.49065e-06
1.53663e-06
1.57684e-06
1.61105e-06
1.63906e-06
1.66073e-06
1.67593e-06
1.68459e-06
1.68668e-06
1.68219e-06
1.67117e-06
1.65367e-06
1.62982e-06
1.59977e-06
1.56368e-06
1.52179e-06
1.47435e-06
1.42166e-06
1.36405e-06
1.3019e-06
1.23561e-06
1.16567e-06
1.09257e-06
1.01687e-06
9.39162e-07
8.60108e-07
7.80404e-07
7.00794e-07
6.22066e-07
5.45042e-07
4.70567e-07
3.99497e-07
3.32671e-07
2.70889e-07
2.14873e-07
1.65229e-07
1.22405e-07
8.66408e-08
5.79348e-08
3.60094e-08
2.03019e-08
9.97896e-09
3.98246e-09
1.11215e-09
1.44965e-10
8.44607e-13
9.63977e-13
1.6537e-10
1.26732e-09
4.53082e-09
1.13308e-08
2.3002e-08
4.07063e-08
6.53447e-08
9.75124e-08
1.37488e-07
1.85252e-07
2.40519e-07
3.02787e-07
3.71382e-07
4.45506e-07
5.24278e-07
6.0677e-07
6.92035e-07
7.7913e-07
8.67134e-07
9.55161e-07
1.04237e-06
1.12795e-06
1.21118e-06
1.29136e-06
1.36785e-06
1.44009e-06
1.50754e-06
1.56975e-06
1.62628e-06
1.67679e-06
1.72095e-06
1.75849e-06
1.78921e-06
1.81292e-06
1.82951e-06
1.83888e-06
1.841e-06
1.83588e-06
1.82355e-06
1.80409e-06
1.77764e-06
1.74436e-06
1.70447e-06
1.6582e-06
1.60585e-06
1.54776e-06
1.4843e-06
1.41589e-06
1.34301e-06
1.26618e-06
1.18596e-06
1.10297e-06
1.01788e-06
9.31411e-07
8.44344e-07
7.57496e-07
6.71731e-07
5.87948e-07
5.07066e-07
4.30007e-07
3.57674e-07
2.90916e-07
2.30496e-07
1.77044e-07
1.31015e-07
9.26394e-08
6.18866e-08
3.84324e-08
2.16517e-08
1.06358e-08
4.24252e-09
1.18438e-09
1.54347e-10
8.99204e-13
1.028e-12
1.76358e-10
1.35162e-09
4.83287e-09
1.20887e-08
2.45482e-08
4.34592e-08
6.97958e-08
1.04209e-07
1.47015e-07
1.98212e-07
2.57512e-07
3.24395e-07
3.98152e-07
4.77937e-07
5.6281e-07
6.51776e-07
7.43815e-07
8.37907e-07
9.33054e-07
1.02829e-06
1.12269e-06
1.21538e-06
1.30556e-06
1.39246e-06
1.47539e-06
1.55371e-06
1.62685e-06
1.69428e-06
1.75556e-06
1.81028e-06
1.85809e-06
1.8987e-06
1.93187e-06
1.95742e-06
1.97521e-06
1.98514e-06
1.98718e-06
1.98135e-06
1.96767e-06
1.94625e-06
1.91724e-06
1.88082e-06
1.83723e-06
1.78675e-06
1.72969e-06
1.66644e-06
1.5974e-06
1.52306e-06
1.44393e-06
1.36057e-06
1.27362e-06
1.18375e-06
1.09171e-06
9.98272e-07
9.04286e-07
8.10644e-07
7.1828e-07
6.28162e-07
5.41277e-07
4.5861e-07
3.81119e-07
3.09702e-07
2.45156e-07
1.88136e-07
1.39102e-07
9.82767e-08
6.56021e-08
4.07115e-08
2.29219e-08
1.1254e-08
4.48737e-09
1.25238e-09
1.63182e-10
9.5061e-13
1.09065e-12
1.87107e-10
1.43405e-09
5.12806e-09
1.2829e-08
2.60567e-08
4.61419e-08
7.41282e-08
1.10719e-07
1.56264e-07
2.10774e-07
2.7396e-07
3.4528e-07
4.23989e-07
5.09193e-07
5.99894e-07
6.95032e-07
7.93516e-07
8.94251e-07
9.96162e-07
1.09821e-06
1.1994e-06
1.29878e-06
1.39548e-06
1.48867e-06
1.5776e-06
1.66157e-06
1.73997e-06
1.81223e-06
1.87786e-06
1.93642e-06
1.98753e-06
2.03089e-06
2.06623e-06
2.09335e-06
2.11212e-06
2.12243e-06
2.12426e-06
2.11761e-06
2.10253e-06
2.07915e-06
2.04762e-06
2.00816e-06
1.96101e-06
1.90649e-06
1.84496e-06
1.77682e-06
1.70253e-06
1.6226e-06
1.53759e-06
1.44814e-06
1.3549e-06
1.25863e-06
1.16012e-06
1.0602e-06
9.59795e-07
8.59855e-07
7.61378e-07
6.65396e-07
5.72956e-07
4.85101e-07
4.02839e-07
3.27111e-07
2.58747e-07
1.98423e-07
1.46606e-07
1.0351e-07
6.90529e-08
4.28291e-08
2.41023e-08
1.18287e-08
4.71499e-09
1.3156e-09
1.71395e-10
9.98394e-13
1.15181e-12
1.97602e-10
1.51451e-09
5.416e-09
1.35505e-08
2.75256e-08
4.87515e-08
7.83373e-08
1.17035e-07
1.65224e-07
2.22927e-07
2.89848e-07
3.65422e-07
4.48867e-07
5.39242e-07
6.35489e-07
7.36485e-07
8.41067e-07
9.48072e-07
1.05635e-06
1.16479e-06
1.27232e-06
1.37793e-06
1.48069e-06
1.57969e-06
1.67415e-06
1.76331e-06
1.8465e-06
1.92313e-06
1.99267e-06
2.05465e-06
2.10867e-06
2.1544e-06
2.19158e-06
2.21999e-06
2.23948e-06
2.24997e-06
2.25141e-06
2.24383e-06
2.22729e-06
2.20193e-06
2.16792e-06
2.1255e-06
2.07495e-06
2.0166e-06
1.95083e-06
1.8781e-06
1.7989e-06
1.71377e-06
1.62332e-06
1.52823e-06
1.42921e-06
1.32704e-06
1.22258e-06
1.11674e-06
1.01046e-06
9.0476e-07
8.00703e-07
6.9937e-07
6.01865e-07
5.0928e-07
4.22669e-07
3.4301e-07
2.71164e-07
2.07825e-07
1.53467e-07
1.08297e-07
7.22103e-08
4.47671e-08
2.51829e-08
1.23549e-08
4.92339e-09
1.37348e-09
1.78913e-10
1.04213e-12
1.21145e-12
2.07833e-10
1.59292e-09
5.69647e-09
1.42527e-08
2.89539e-08
5.12863e-08
8.24207e-08
1.23154e-07
1.73892e-07
2.34666e-07
3.0517e-07
3.84813e-07
4.72776e-07
5.68067e-07
6.69573e-07
7.76103e-07
8.86429e-07
9.99315e-07
1.11354e-06
1.22793e-06
1.34134e-06
1.4527e-06
1.56101e-06
1.66533e-06
1.76479e-06
1.85862e-06
1.9461e-06
2.0266e-06
2.09957e-06
2.1645e-06
2.221e-06
2.2687e-06
2.30734e-06
2.3367e-06
2.35663e-06
2.36704e-06
2.3679e-06
2.35925e-06
2.34117e-06
2.31381e-06
2.27736e-06
2.23207e-06
2.17826e-06
2.11628e-06
2.04656e-06
1.96956e-06
1.88581e-06
1.7959e-06
1.70047e-06
1.60023e-06
1.49595e-06
1.38845e-06
1.27863e-06
1.16743e-06
1.05587e-06
9.45002e-07
8.35938e-07
7.29811e-07
6.27769e-07
5.30948e-07
4.40443e-07
3.57266e-07
2.82302e-07
2.16262e-07
1.59626e-07
1.12595e-07
7.50462e-08
4.65083e-08
2.61538e-08
1.28276e-08
5.11063e-09
1.42547e-09
1.85667e-10
1.08142e-12
1.26956e-12
2.17799e-10
1.66927e-09
5.96942e-09
1.49356e-08
3.03417e-08
5.37464e-08
8.6379e-08
1.29077e-07
1.8227e-07
2.45993e-07
3.19928e-07
4.03456e-07
4.95718e-07
5.95671e-07
7.02142e-07
8.13878e-07
9.29583e-07
1.04795e-06
1.1677e-06
1.28757e-06
1.40638e-06
1.52298e-06
1.63631e-06
1.7454e-06
1.84932e-06
1.94727e-06
2.03849e-06
2.12232e-06
2.19819e-06
2.26557e-06
2.32406e-06
2.37329e-06
2.41298e-06
2.44291e-06
2.46295e-06
2.47302e-06
2.47309e-06
2.46321e-06
2.44348e-06
2.41407e-06
2.3752e-06
2.32714e-06
2.27022e-06
2.20483e-06
2.13142e-06
2.05049e-06
1.96258e-06
1.86834e-06
1.76842e-06
1.66357e-06
1.55459e-06
1.44235e-06
1.32777e-06
1.21185e-06
1.09564e-06
9.80228e-07
8.66773e-07
7.56446e-07
6.50434e-07
5.49909e-07
4.56e-07
3.69746e-07
2.92055e-07
2.23653e-07
1.65023e-07
1.16362e-07
7.75329e-08
4.80352e-08
2.70054e-08
1.32423e-08
5.27484e-09
1.47107e-09
1.91587e-10
1.11585e-12
1.32615e-12
2.27506e-10
1.7436e-09
6.235e-09
1.55996e-08
3.16899e-08
5.61336e-08
9.0215e-08
1.3481e-07
1.90365e-07
2.56918e-07
3.34134e-07
4.21366e-07
5.17709e-07
6.22069e-07
7.33213e-07
8.49822e-07
9.70535e-07
1.09398e-06
1.2188e-06
1.34369e-06
1.46738e-06
1.58868e-06
1.70649e-06
1.81978e-06
1.92758e-06
2.02906e-06
2.12343e-06
2.21002e-06
2.28821e-06
2.35751e-06
2.41746e-06
2.46773e-06
2.50801e-06
2.53812e-06
2.55791e-06
2.56732e-06
2.56635e-06
2.55506e-06
2.53357e-06
2.50206e-06
2.46078e-06
2.41002e-06
2.35015e-06
2.28157e-06
2.20475e-06
2.12023e-06
2.02858e-06
1.93046e-06
1.82656e-06
1.71766e-06
1.60458e-06
1.48823e-06
1.36955e-06
1.24957e-06
1.12938e-06
1.01009e-06
8.92902e-07
7.79008e-07
6.6963e-07
5.65969e-07
4.69178e-07
3.8032e-07
3.00322e-07
2.29919e-07
1.69601e-07
1.19559e-07
7.96432e-08
4.93313e-08
2.77282e-08
1.35942e-08
5.41418e-09
1.50974e-09
1.96608e-10
1.14505e-12
1.38129e-12
2.36963e-10
1.816e-09
6.49354e-09
1.62455e-08
3.30001e-08
5.84512e-08
9.39342e-08
1.40359e-07
1.98188e-07
2.67456e-07
3.4781e-07
4.38566e-07
5.38776e-07
6.47291e-07
7.62814e-07
8.83965e-07
1.00931e-06
1.13742e-06
1.26686e-06
1.39626e-06
1.52432e-06
1.64977e-06
1.77148e-06
1.88836e-06
1.99944e-06
2.10382e-06
2.20072e-06
2.28944e-06
2.36937e-06
2.43998e-06
2.50085e-06
2.55161e-06
2.59201e-06
2.62185e-06
2.64099e-06
2.64941e-06
2.64712e-06
2.63421e-06
2.6108e-06
2.57713e-06
2.53344e-06
2.48006e-06
2.41738e-06
2.34583e-06
2.26591e-06
2.17816e-06
2.08319e-06
1.98167e-06
1.87434e-06
1.76197e-06
1.64542e-06
1.52561e-06
1.40352e-06
1.28018e-06
1.15671e-06
1.03426e-06
9.14024e-07
7.97236e-07
6.85132e-07
5.78935e-07
4.79818e-07
3.8886e-07
3.07e-07
2.34983e-07
1.73302e-07
1.22145e-07
8.13507e-08
5.03802e-08
2.83132e-08
1.3879e-08
5.5269e-09
1.54102e-09
2.00667e-10
1.16864e-12
1.43509e-12
2.46187e-10
1.88659e-09
6.74551e-09
1.68746e-08
3.4275e-08
6.07038e-08
9.75446e-08
1.45737e-07
2.05757e-07
2.7763e-07
3.60982e-07
4.55091e-07
5.5896e-07
6.7138e-07
7.90994e-07
9.1635e-07
1.04595e-06
1.1783e-06
1.31189e-06
1.44531e-06
1.57719e-06
1.70622e-06
1.83122e-06
1.95107e-06
2.06477e-06
2.17141e-06
2.27018e-06
2.36037e-06
2.44138e-06
2.51269e-06
2.57386e-06
2.62457e-06
2.66455e-06
2.69362e-06
2.7117e-06
2.71877e-06
2.71486e-06
2.70008e-06
2.67461e-06
2.63867e-06
2.59257e-06
2.53664e-06
2.4713e-06
2.397e-06
2.31426e-06
2.22366e-06
2.12581e-06
2.0214e-06
1.91119e-06
1.79596e-06
1.6766e-06
1.55403e-06
1.42923e-06
1.30328e-06
1.17728e-06
1.0524e-06
9.29852e-07
8.10875e-07
6.96721e-07
5.88625e-07
4.87768e-07
3.95242e-07
3.11993e-07
2.38772e-07
1.76073e-07
1.24082e-07
8.26303e-08
5.11665e-08
2.87517e-08
1.40924e-08
5.61134e-09
1.56443e-09
2.03703e-10
1.18628e-12
1.48767e-12
2.55202e-10
1.95556e-09
6.99157e-09
1.74885e-08
3.55182e-08
6.2898e-08
1.01056e-07
1.5096e-07
2.13092e-07
2.87469e-07
3.73687e-07
4.70984e-07
5.78309e-07
6.94392e-07
8.17809e-07
9.47039e-07
1.08052e-06
1.21667e-06
1.35395e-06
1.49087e-06
1.626e-06
1.75802e-06
1.88568e-06
2.00784e-06
2.12349e-06
2.23169e-06
2.33163e-06
2.42261e-06
2.50402e-06
2.57535e-06
2.63619e-06
2.68623e-06
2.72523e-06
2.75303e-06
2.76958e-06
2.77489e-06
2.76904e-06
2.75214e-06
2.72442e-06
2.68612e-06
2.63758e-06
2.57916e-06
2.5113e-06
2.43448e-06
2.34924e-06
2.25615e-06
2.15588e-06
2.0491e-06
1.93659e-06
1.81915e-06
1.69765e-06
1.57304e-06
1.4463e-06
1.31849e-06
1.19074e-06
1.06421e-06
9.4011e-07
8.19687e-07
7.04192e-07
5.94862e-07
4.92884e-07
3.99349e-07
3.15209e-07
2.41214e-07
1.77861e-07
1.25334e-07
8.34582e-08
5.16755e-08
2.90358e-08
1.42306e-08
5.66597e-09
1.57956e-09
2.05663e-10
1.19766e-12
1.53919e-12
2.64034e-10
2.02312e-09
7.2325e-09
1.80892e-08
3.67338e-08
6.50411e-08
1.04482e-07
1.56046e-07
2.20221e-07
2.97007e-07
3.85968e-07
4.86297e-07
5.96883e-07
7.16392e-07
8.43328e-07
9.76099e-07
1.11307e-06
1.2526e-06
1.39308e-06
1.53296e-06
1.67078e-06
1.80516e-06
1.93482e-06
2.05861e-06
2.17549e-06
2.28453e-06
2.38492e-06
2.47595e-06
2.55703e-06
2.62768e-06
2.68752e-06
2.73624e-06
2.77367e-06
2.79963e-06
2.81418e-06
2.81732e-06
2.80916e-06
2.78988e-06
2.7597e-06
2.71894e-06
2.66793e-06
2.60708e-06
2.53685e-06
2.45773e-06
2.37029e-06
2.27512e-06
2.17288e-06
2.06428e-06
1.95007e-06
1.83107e-06
1.70814e-06
1.58224e-06
1.45433e-06
1.32547e-06
1.19678e-06
1.0694e-06
9.44546e-07
8.23449e-07
7.07352e-07
5.97486e-07
4.9503e-07
4.01074e-07
3.16562e-07
2.42247e-07
1.78621e-07
1.25868e-07
8.38129e-08
5.18943e-08
2.91579e-08
1.429e-08
5.6894e-09
1.58602e-09
2.06497e-10
1.20248e-12
1.58984e-12
2.72717e-10
2.08953e-09
7.46923e-09
1.86792e-08
3.79266e-08
6.71419e-08
1.07835e-07
1.61016e-07
2.27171e-07
3.06281e-07
3.97873e-07
5.01086e-07
6.14747e-07
7.37451e-07
8.67627e-07
1.00361e-06
1.14369e-06
1.28615e-06
1.42934e-06
1.57164e-06
1.71154e-06
1.84763e-06
1.97862e-06
2.10333e-06
2.2207e-06
2.32982e-06
2.42988e-06
2.52019e-06
2.6002e-06
2.66943e-06
2.72754e-06
2.77428e-06
2.80948e-06
2.83306e-06
2.84509e-06
2.84561e-06
2.83477e-06
2.8128e-06
2.77997e-06
2.73661e-06
2.6831e-06
2.61988e-06
2.54742e-06
2.46624e-06
2.37691e-06
2.28006e-06
2.17634e-06
2.06647e-06
1.95118e-06
1.83131e-06
1.70769e-06
1.58126e-06
1.45299e-06
1.32391e-06
1.19511e-06
1.06772e-06
9.42936e-07
8.21966e-07
7.06035e-07
5.96355e-07
4.94092e-07
4.00321e-07
3.1598e-07
2.41813e-07
1.7831e-07
1.25656e-07
8.36759e-08
5.18114e-08
2.91121e-08
1.42677e-08
5.68047e-09
1.5835e-09
2.06163e-10
1.2005e-12
1.63983e-12
2.81286e-10
2.15505e-09
7.70276e-09
1.9261e-08
3.91022e-08
6.92102e-08
1.11132e-07
1.65893e-07
2.33975e-07
3.15334e-07
4.09453e-07
5.15412e-07
6.3197e-07
7.57645e-07
8.90785e-07
1.02964e-06
1.17244e-06
1.3174e-06
1.46278e-06
1.60693e-06
1.7483e-06
1.88544e-06
2.01704e-06
2.14192e-06
2.25902e-06
2.36742e-06
2.46635e-06
2.55515e-06
2.63327e-06
2.70032e-06
2.75597e-06
2.80002e-06
2.83232e-06
2.85293e-06
2.8619e-06
2.85934e-06
2.84545e-06
2.82049e-06
2.78479e-06
2.7387e-06
2.68264e-06
2.6171e-06
2.54255e-06
2.45956e-06
2.3687e-06
2.27059e-06
2.1659e-06
2.05532e-06
1.9396e-06
1.81954e-06
1.69599e-06
1.56983e-06
1.44202e-06
1.31356e-06
1.18551e-06
1.05898e-06
9.35109e-07
8.15089e-07
7.00111e-07
5.9136e-07
4.89977e-07
3.97017e-07
3.13402e-07
2.39867e-07
1.76897e-07
1.24675e-07
8.3032e-08
5.14179e-08
2.88933e-08
1.41612e-08
5.63824e-09
1.57174e-09
2.0463e-10
1.19155e-12
1.68937e-12
2.89779e-10
2.21999e-09
7.93419e-09
1.98374e-08
4.02661e-08
7.12563e-08
1.14388e-07
1.70702e-07
2.40667e-07
3.2421e-07
4.20763e-07
5.29341e-07
6.48625e-07
7.7705e-07
9.12881e-07
1.05429e-06
1.19941e-06
1.34639e-06
1.49345e-06
1.63887e-06
1.78107e-06
1.91857e-06
2.05005e-06
2.17431e-06
2.29033e-06
2.3972e-06
2.49416e-06
2.58061e-06
2.65604e-06
2.72009e-06
2.77251e-06
2.81314e-06
2.84188e-06
2.85891e-06
2.86427e-06
2.85815e-06
2.8408e-06
2.81255e-06
2.77375e-06
2.72482e-06
2.66622e-06
2.59843e-06
2.52198e-06
2.43743e-06
2.34537e-06
2.24643e-06
2.14126e-06
2.03055e-06
1.91505e-06
1.79553e-06
1.67279e-06
1.54772e-06
1.42121e-06
1.29424e-06
1.16781e-06
1.043e-06
9.20914e-07
8.02683e-07
6.89463e-07
5.82399e-07
4.826e-07
3.91093e-07
3.08777e-07
2.3637e-07
1.74351e-07
1.22904e-07
8.18683e-08
5.07057e-08
2.84971e-08
1.39686e-08
5.56196e-09
1.55054e-09
2.01872e-10
1.17548e-12
1.7387e-12
2.98235e-10
2.28465e-09
8.16465e-09
2.04113e-08
4.14245e-08
7.32908e-08
1.17622e-07
1.75467e-07
2.47281e-07
3.32953e-07
4.31856e-07
5.42932e-07
6.64779e-07
7.95739e-07
9.33988e-07
1.0776e-06
1.22464e-06
1.37319e-06
1.52138e-06
1.66747e-06
1.80983e-06
1.94697e-06
2.07756e-06
2.20041e-06
2.31452e-06
2.419e-06
2.51314e-06
2.59637e-06
2.66825e-06
2.72849e-06
2.7769e-06
2.81332e-06
2.83787e-06
2.85068e-06
2.85188e-06
2.84173e-06
2.82056e-06
2.78872e-06
2.74664e-06
2.69476e-06
2.63358e-06
2.56363e-06
2.48545e-06
2.3996e-06
2.3067e-06
2.20736e-06
2.10224e-06
1.99202e-06
1.8774e-06
1.75914e-06
1.63801e-06
1.51483e-06
1.39048e-06
1.26586e-06
1.14195e-06
1.01974e-06
9.00301e-07
7.84703e-07
6.74052e-07
5.6944e-07
4.71936e-07
3.82527e-07
3.02085e-07
2.31307e-07
1.70663e-07
1.20338e-07
8.01799e-08
4.96721e-08
2.79222e-08
1.36891e-08
5.45139e-09
1.51984e-09
1.97881e-10
1.15224e-12
1.78804e-12
3.06695e-10
2.34935e-09
8.39528e-09
2.09856e-08
4.25833e-08
7.53243e-08
1.2085e-07
1.80214e-07
2.53851e-07
3.41605e-07
4.42783e-07
5.56245e-07
6.80495e-07
8.13776e-07
9.54166e-07
1.09965e-06
1.24819e-06
1.39781e-06
1.54659e-06
1.69272e-06
1.83456e-06
1.97059e-06
2.0995e-06
2.22012e-06
2.33144e-06
2.43265e-06
2.52308e-06
2.60222e-06
2.6697e-06
2.7253e-06
2.76886e-06
2.80035e-06
2.82004e-06
2.82802e-06
2.82453e-06
2.80991e-06
2.78453e-06
2.74883e-06
2.70327e-06
2.64835e-06
2.58461e-06
2.51259e-06
2.43286e-06
2.34601e-06
2.25264e-06
2.15338e-06
2.04885e-06
1.93972e-06
1.82667e-06
1.7104e-06
1.59165e-06
1.47119e-06
1.34985e-06
1.22846e-06
1.10794e-06
9.89216e-07
8.73287e-07
7.61165e-07
6.53889e-07
5.52491e-07
4.57989e-07
3.71323e-07
2.93328e-07
2.2468e-07
1.65834e-07
1.16976e-07
7.79676e-08
4.83178e-08
2.71689e-08
1.33231e-08
5.30665e-09
1.47967e-09
1.92664e-10
1.12187e-12
1.83762e-12
3.15196e-10
2.41439e-09
8.62716e-09
2.1563e-08
4.37482e-08
7.73672e-08
1.24088e-07
1.84965e-07
2.60408e-07
3.50205e-07
4.5359e-07
5.6933e-07
6.95825e-07
8.31211e-07
9.7346e-07
1.12046e-06
1.27008e-06
1.42027e-06
1.56905e-06
1.71457e-06
1.85517e-06
1.98934e-06
2.11575e-06
2.23326e-06
2.34092e-06
2.43797e-06
2.52379e-06
2.59795e-06
2.66017e-06
2.71028e-06
2.74816e-06
2.7741e-06
2.78822e-06
2.79077e-06
2.78207e-06
2.76254e-06
2.73262e-06
2.6928e-06
2.64362e-06
2.58561e-06
2.51934e-06
2.44539e-06
2.36434e-06
2.2768e-06
2.18337e-06
2.08466e-06
1.98128e-06
1.87386e-06
1.76305e-06
1.64951e-06
1.53392e-06
1.417e-06
1.2995e-06
1.1822e-06
1.06593e-06
9.5156e-07
8.39993e-07
7.32172e-07
6.29061e-07
5.31624e-07
4.40815e-07
3.57524e-07
2.82542e-07
2.16513e-07
1.59881e-07
1.1283e-07