/*--------------------------------*- C++ -*----------------------------------*\
  =========                 |
  \\      /  F ield         | OpenFOAM: The Open Source CFD Toolbox
   \\    /   O peration     | Website:  https://openfoam.org
    \\  /    A nd           | Version:  12
     \\/     M anipulation  |
\*---------------------------------------------------------------------------*/
FoamFile
{
    format      ascii;
    class       volScalarField;
    location    "1.5";
    object      p;
}
// * * * * * * * * * * * * * * * * * * * * * * * * * * * * * * * * * * * * * //

dimensions      [0 2 -2 0 0 0 0];

internalField   nonuniform List<scalar> 
5625
(
-3.78484e-08
1.3301e-07
1.06453e-06
2.772e-06
4.98388e-06
7.513e-06
1.01519e-05
1.27685e-05
1.52191e-05
1.74122e-05
1.92493e-05
2.06722e-05
2.16177e-05
2.20535e-05
2.19424e-05
2.12706e-05
2.00205e-05
1.81925e-05
1.57834e-05
1.28039e-05
9.26184e-06
5.17577e-06
5.6186e-07
-4.55568e-06
-1.01542e-05
-1.62052e-05
-2.2681e-05
-2.955e-05
-3.6781e-05
-4.43398e-05
-5.21925e-05
-6.03032e-05
-6.8636e-05
-7.71537e-05
-8.5819e-05
-9.4594e-05
-0.00010344
-0.00011232
-0.000121194
-0.000130024
-0.000138771
-0.000147396
-0.000155862
-0.000164131
-0.000172166
-0.000179929
-0.000187386
-0.000194502
-0.000201242
-0.000207576
-0.000213472
-0.000218902
-0.000223839
-0.00022826
-0.000232143
-0.000235471
-0.000238228
-0.000240407
-0.000242
-0.000243009
-0.000243442
-0.000243312
-0.000242643
-0.000241466
-0.000239824
-0.000237775
-0.000235387
-0.000232748
-0.000229964
-0.000227162
-0.000224489
-0.000222123
-0.000220286
-0.000219231
-0.000218967
-3.65246e-06
-2.99348e-06
-1.86569e-06
-3.17904e-07
1.51537e-06
3.52425e-06
5.57787e-06
7.57952e-06
9.42486e-06
1.10405e-05
1.23493e-05
1.33008e-05
1.38423e-05
1.39429e-05
1.35698e-05
1.27074e-05
1.13392e-05
9.46205e-06
7.07171e-06
4.17476e-06
7.77026e-07
-3.10739e-06
-7.46495e-06
-1.22757e-05
-1.752e-05
-2.31733e-05
-2.92113e-05
-3.5606e-05
-4.23295e-05
-4.93511e-05
-5.66401e-05
-6.41641e-05
-7.18902e-05
-7.97845e-05
-8.7813e-05
-9.59408e-05
-0.000104133
-0.000112354
-0.000120568
-0.000128741
-0.000136836
-0.000144818
-0.000152654
-0.000160307
-0.000167745
-0.000174934
-0.000181842
-0.000188439
-0.000194694
-0.00020058
-0.000206068
-0.000211136
-0.000215759
-0.000219918
-0.000223596
-0.000226778
-0.000229452
-0.000231614
-0.00023326
-0.000234394
-0.000235024
-0.000235165
-0.000234839
-0.000234076
-0.000232914
-0.000231402
-0.000229597
-0.00022757
-0.000225403
-0.000223191
-0.000221042
-0.000219076
-0.000217427
-0.000216226
-0.000215534
-9.51987e-06
-8.0669e-06
-6.28508e-06
-4.4279e-06
-2.5339e-06
-6.34133e-07
1.20216e-06
2.91404e-06
4.43339e-06
5.70959e-06
6.6877e-06
7.32974e-06
7.59535e-06
7.45947e-06
6.89556e-06
5.89026e-06
4.42934e-06
2.5095e-06
1.26875e-07
-2.71351e-06
-6.00688e-06
-9.74138e-06
-1.39052e-05
-1.84812e-05
-2.34517e-05
-2.87951e-05
-3.44896e-05
-4.051e-05
-4.68309e-05
-5.34247e-05
-6.02631e-05
-6.73165e-05
-7.45547e-05
-8.19468e-05
-8.9461e-05
-9.70656e-05
-0.000104728
-0.000112416
-0.000120096
-0.000127736
-0.000135304
-0.000142766
-0.000150092
-0.000157249
-0.000164206
-0.000170934
-0.000177403
-0.000183586
-0.000189454
-0.000194985
-0.000200152
-0.000204935
-0.000209313
-0.00021327
-0.000216789
-0.00021986
-0.000222473
-0.000224623
-0.000226308
-0.000227533
-0.000228305
-0.000228638
-0.000228549
-0.000228063
-0.000227212
-0.000226032
-0.000224569
-0.000222872
-0.000220999
-0.000219016
-0.00021699
-0.000214991
-0.000213065
-0.000211255
-0.000209814
-1.61843e-05
-1.38619e-05
-1.12477e-05
-8.82517e-06
-6.57559e-06
-4.47187e-06
-2.54415e-06
-8.28988e-07
6.31904e-07
1.80676e-06
2.6599e-06
3.16586e-06
3.29687e-06
3.03554e-06
2.36317e-06
1.27068e-06
-2.51709e-07
-2.20536e-06
-4.59195e-06
-7.40598e-06
-1.06421e-05
-1.42889e-05
-1.8335e-05
-2.27643e-05
-2.75603e-05
-3.2703e-05
-3.81718e-05
-4.39436e-05
-4.99944e-05
-5.62988e-05
-6.28303e-05
-6.95613e-05
-7.64637e-05
-8.35085e-05
-9.06661e-05
-9.79069e-05
-0.0001052
-0.000112516
-0.000119824
-0.000127092
-0.000134292
-0.000141392
-0.000148363
-0.000155175
-0.0001618
-0.000168211
-0.000174379
-0.000180279
-0.000185887
-0.000191178
-0.000196131
-0.000200726
-0.000204945
-0.000208771
-0.00021219
-0.000215191
-0.000217766
-0.000219909
-0.000221618
-0.000222896
-0.000223746
-0.00022418
-0.00022421
-0.000223854
-0.000223134
-0.000222078
-0.000220714
-0.000219078
-0.000217207
-0.000215141
-0.000212925
-0.000210591
-0.000208122
-0.000205505
-0.000203211
-2.24291e-05
-1.92754e-05
-1.58244e-05
-1.27723e-05
-1.00642e-05
-7.62972e-06
-5.47402e-06
-3.61675e-06
-2.08126e-06
-8.84242e-07
-4.62834e-08
4.18392e-07
4.93034e-07
1.6804e-07
-5.67631e-07
-1.718e-06
-3.28786e-06
-5.27555e-06
-7.67973e-06
-1.04934e-05
-1.37096e-05
-1.73165e-05
-2.13022e-05
-2.56507e-05
-3.0346e-05
-3.53686e-05
-4.06988e-05
-4.63144e-05
-5.21928e-05
-5.83096e-05
-6.46398e-05
-7.11574e-05
-7.78355e-05
-8.46468e-05
-9.15634e-05
-9.85572e-05
-0.000105599
-0.000112661
-0.000119714
-0.000126729
-0.000133677
-0.00014053
-0.00014726
-0.000153839
-0.00016024
-0.000166437
-0.000172405
-0.000178119
-0.000183556
-0.000188693
-0.00019351
-0.000197988
-0.000202109
-0.000205857
-0.000209219
-0.000212184
-0.000214741
-0.000216885
-0.000218612
-0.000219922
-0.000220816
-0.000221299
-0.000221379
-0.000221069
-0.00022038
-0.00021933
-0.000217938
-0.000216224
-0.000214209
-0.000211917
-0.000209374
-0.000206586
-0.000203494
-0.000200043
-0.000196915
-2.7448e-05
-2.35423e-05
-1.93134e-05
-1.56437e-05
-1.24539e-05
-9.64243e-06
-7.19825e-06
-5.13037e-06
-3.44971e-06
-2.16201e-06
-1.27643e-06
-7.98167e-07
-7.34839e-07
-1.08914e-06
-1.86518e-06
-3.06199e-06
-4.67939e-06
-6.71231e-06
-9.15605e-06
-1.20015e-05
-1.52395e-05
-1.88571e-05
-2.28413e-05
-2.71758e-05
-3.18439e-05
-3.68265e-05
-4.21038e-05
-4.76544e-05
-5.34559e-05
-5.94848e-05
-6.5717e-05
-7.21274e-05
-7.86901e-05
-8.53791e-05
-9.21674e-05
-9.90281e-05
-0.000105934
-0.000112857
-0.00011977
-0.000126646
-0.000133456
-0.000140174
-0.000146773
-0.000153227
-0.00015951
-0.000165597
-0.000171462
-0.000177084
-0.000182438
-0.000187505
-0.000192262
-0.000196693
-0.000200779
-0.000204504
-0.000207854
-0.000210818
-0.000213384
-0.000215545
-0.000217294
-0.000218629
-0.000219546
-0.000220048
-0.000220136
-0.000219816
-0.000219095
-0.000217979
-0.000216479
-0.000214605
-0.000212366
-0.000209774
-0.000206843
-0.000203564
-0.000199842
-0.000195599
-0.000191705
-3.07059e-05
-2.61365e-05
-2.12099e-05
-1.69694e-05
-1.33183e-05
-1.01321e-05
-7.38924e-06
-5.09199e-06
-3.24298e-06
-1.84011e-06
-8.84075e-07
-3.73001e-07
-3.07181e-07
-6.8345e-07
-1.49994e-06
-2.7511e-06
-4.4321e-06
-6.53447e-06
-9.05008e-06
-1.19674e-05
-1.5275e-05
-1.89583e-05
-2.30028e-05
-2.73912e-05
-3.21062e-05
-3.7128e-05
-4.24368e-05
-4.8011e-05
-5.38285e-05
-5.9866e-05
-6.60998e-05
-7.25053e-05
-7.90573e-05
-8.57304e-05
-9.24984e-05
-9.93353e-05
-0.000106214
-0.000113109
-0.000119993
-0.000126838
-0.00013362
-0.000140311
-0.000146886
-0.000153318
-0.000159584
-0.000165657
-0.000171515
-0.000177135
-0.000182494
-0.000187571
-0.000192345
-0.000196799
-0.000200913
-0.000204672
-0.00020806
-0.000211065
-0.000213673
-0.000215875
-0.000217663
-0.00021903
-0.000219969
-0.00022048
-0.000220558
-0.000220204
-0.000219418
-0.000218201
-0.000216556
-0.000214484
-0.000211987
-0.000209069
-0.000205737
-0.00020197
-0.000197651
-0.000192683
-0.000188101
-3.183e-05
-2.66812e-05
-2.11404e-05
-1.639e-05
-1.23206e-05
-8.78977e-06
-5.76863e-06
-3.2556e-06
-1.24746e-06
2.63438e-07
1.28288e-06
1.81814e-06
1.8749e-06
1.46115e-06
5.83925e-07
-7.47185e-07
-2.5231e-06
-4.73214e-06
-7.36282e-06
-1.04012e-05
-1.38333e-05
-1.7643e-05
-2.18137e-05
-2.63272e-05
-3.11648e-05
-3.63063e-05
-4.1731e-05
-4.74171e-05
-5.33422e-05
-5.9483e-05
-6.58157e-05
-7.23161e-05
-7.89591e-05
-8.57198e-05
-9.25723e-05
-9.94911e-05
-0.00010645
-0.000113423
-0.000120384
-0.000127306
-0.000134164
-0.000140933
-0.000147586
-0.000154098
-0.000160444
-0.000166602
-0.000172545
-0.000178253
-0.000183702
-0.000188871
-0.000193739
-0.000198288
-0.000202497
-0.000206351
-0.000209832
-0.000212925
-0.000215618
-0.000217897
-0.000219751
-0.000221171
-0.000222149
-0.000222676
-0.000222748
-0.000222358
-0.000221503
-0.000220178
-0.00021838
-0.000216104
-0.000213347
-0.000210108
-0.000206388
-0.000202163
-0.000197292
-0.00019167
-0.000186474
-3.05368e-05
-2.48849e-05
-1.88101e-05
-1.3616e-05
-9.18291e-06
-5.3537e-06
-2.09438e-06
5.99264e-07
2.73462e-06
4.32353e-06
5.37676e-06
5.90595e-06
5.92166e-06
5.43598e-06
4.46037e-06
3.00805e-06
1.09193e-06
-1.27329e-06
-4.07296e-06
-7.29074e-06
-1.09101e-05
-1.49131e-05
-1.92813e-05
-2.3995e-05
-2.90343e-05
-3.43781e-05
-4.00046e-05
-4.58916e-05
-5.2016e-05
-5.83544e-05
-6.48827e-05
-7.15765e-05
-7.84109e-05
-8.53609e-05
-9.24008e-05
-9.95052e-05
-0.000106648
-0.000113804
-0.000120946
-0.00012805
-0.000135088
-0.000142037
-0.000148869
-0.000155561
-0.000162087
-0.000168423
-0.000174546
-0.000180432
-0.000186058
-0.000191402
-0.000196444
-0.000201163
-0.000205539
-0.000209553
-0.000213188
-0.000216427
-0.000219254
-0.000221655
-0.000223617
-0.000225126
-0.00022617
-0.000226741
-0.000226827
-0.000226421
-0.000225512
-0.000224093
-0.000222155
-0.000219692
-0.000216693
-0.000213156
-0.000209079
-0.000204432
-0.000199062
-0.000192851
-0.000187106
-2.65816e-05
-2.04953e-05
-1.39626e-05
-8.39297e-06
-3.65794e-06
4.12305e-07
3.85597e-06
6.67924e-06
8.89279e-06
1.05118e-05
1.15513e-05
1.20264e-05
1.1952e-05
1.13437e-05
1.02169e-05
8.58804e-06
6.4736e-06
3.89109e-06
8.58182e-07
-2.60642e-06
-6.48375e-06
-1.07539e-05
-1.53965e-05
-2.03906e-05
-2.57145e-05
-3.13462e-05
-3.72628e-05
-4.34414e-05
-4.98582e-05
-5.64892e-05
-6.33099e-05
-7.02957e-05
-7.74214e-05
-8.46617e-05
-9.19911e-05
-9.9384e-05
-0.000106814
-0.000114256
-0.000121684
-0.000129072
-0.000136394
-0.000143625
-0.000150738
-0.00015771
-0.000164513
-0.000171126
-0.000177522
-0.000183678
-0.00018957
-0.000195177
-0.000200476
-0.000205445
-0.000210063
-0.000214311
-0.000218168
-0.000221617
-0.000224639
-0.000227218
-0.000229338
-0.000230983
-0.000232139
-0.000232793
-0.000232931
-0.00023254
-0.00023161
-0.000230128
-0.000228082
-0.000225461
-0.000222254
-0.000218454
-0.000214059
-0.000209035
-0.000203214
-0.000196471
-0.00019023
-1.97308e-05
-1.32741e-05
-6.35723e-06
-4.82455e-07
4.4869e-06
8.73205e-06
1.22951e-05
1.51841e-05
1.74126e-05
1.89991e-05
1.99619e-05
2.03199e-05
2.00914e-05
1.92953e-05
1.79508e-05
1.60772e-05
1.36944e-05
1.08226e-05
7.48226e-06
3.69445e-06
-5.19459e-07
-5.13763e-06
-1.01378e-05
-1.54975e-05
-2.11934e-05
-2.72024e-05
-3.35006e-05
-4.00639e-05
-4.68679e-05
-5.3888e-05
-6.1099e-05
-6.8476e-05
-7.59933e-05
-8.36255e-05
-9.13465e-05
-9.91308e-05
-0.000106952
-0.000114784
-0.000122601
-0.000130378
-0.000138086
-0.000145702
-0.000153199
-0.000160551
-0.000167733
-0.00017472
-0.000181486
-0.000188008
-0.00019426
-0.00020022
-0.000205864
-0.000211169
-0.000216112
-0.000220672
-0.000224828
-0.000228559
-0.000231846
-0.000234669
-0.000237009
-0.000238849
-0.000240172
-0.000240961
-0.0002412
-0.000240874
-0.000239968
-0.000238466
-0.000236355
-0.000233619
-0.000230246
-0.000226225
-0.000221555
-0.000216197
-0.000209974
-0.000202751
-0.000196059
-9.74327e-06
-2.97907e-06
4.24716e-06
1.03527e-05
1.54821e-05
1.98272e-05
2.34341e-05
2.63129e-05
2.84804e-05
2.9958e-05
3.07676e-05
3.09313e-05
3.0471e-05
2.94089e-05
2.77673e-05
2.55688e-05
2.28363e-05
1.95926e-05
1.5861e-05
1.16649e-05
7.02783e-06
1.9737e-06
-3.4734e-06
-9.2893e-06
-1.54494e-05
-2.19292e-05
-2.87036e-05
-3.57478e-05
-4.30364e-05
-5.0544e-05
-5.82449e-05
-6.61137e-05
-7.4124e-05
-8.22503e-05
-9.04661e-05
-9.87454e-05
-0.000107062
-0.000115389
-0.0001237
-0.000131969
-0.000140169
-0.000148275
-0.000156259
-0.000164095
-0.000171758
-0.000179221
-0.000186458
-0.000193444
-0.000200154
-0.000206563
-0.000212646
-0.000218378
-0.000223736
-0.000228696
-0.000233234
-0.00023733
-0.000240959
-0.000244101
-0.000246735
-0.000248841
-0.000250398
-0.000251387
-0.000251789
-0.000251586
-0.00025076
-0.000249294
-0.00024717
-0.00024437
-0.00024088
-0.000236688
-0.00023179
-0.000226146
-0.000219566
-0.000211908
-0.000204804
3.63998e-06
1.06455e-05
1.81011e-05
2.43562e-05
2.95626e-05
3.39225e-05
3.74863e-05
4.0267e-05
4.22845e-05
4.35636e-05
4.41299e-05
4.40089e-05
4.3226e-05
4.18066e-05
3.97766e-05
3.71614e-05
3.39869e-05
3.02787e-05
2.60627e-05
2.13645e-05
1.62101e-05
1.06251e-05
4.63563e-06
-1.73275e-06
-8.45392e-06
-1.55022e-05
-2.28513e-05
-3.04755e-05
-3.83485e-05
-4.64443e-05
-5.47366e-05
-6.31993e-05
-7.18057e-05
-8.05297e-05
-8.93445e-05
-9.82237e-05
-0.00010714
-0.000116068
-0.000124979
-0.000133848
-0.000142647
-0.000151349
-0.000159926
-0.000168353
-0.000176603
-0.000184648
-0.000192461
-0.000200016
-0.000207286
-0.000214246
-0.000220867
-0.000227126
-0.000232995
-0.000238449
-0.000243464
-0.000248014
-0.000252075
-0.000255623
-0.000258634
-0.000261086
-0.000262955
-0.00026422
-0.000264858
-0.000264849
-0.000264171
-0.000262805
-0.00026073
-0.000257927
-0.000254377
-0.000250067
-0.000244993
-0.000239111
-0.000232222
-0.000224173
-0.000216692
2.07039e-05
2.78767e-05
3.54721e-05
4.17845e-05
4.69733e-05
5.12505e-05
5.46714e-05
5.72524e-05
5.90171e-05
5.99942e-05
6.02134e-05
5.97037e-05
5.84942e-05
5.66139e-05
5.40918e-05
5.09567e-05
4.72373e-05
4.29621e-05
3.81594e-05
3.28572e-05
2.70837e-05
2.08663e-05
1.42329e-05
7.21055e-06
-1.7322e-07
-7.89158e-06
-1.59173e-05
-2.42237e-05
-3.27836e-05
-4.15707e-05
-5.05577e-05
-5.97183e-05
-6.90252e-05
-7.84521e-05
-8.79715e-05
-9.75569e-05
-0.000107181
-0.000116816
-0.000126436
-0.000136013
-0.000145519
-0.000154927
-0.000164209
-0.000173336
-0.000182282
-0.000191019
-0.000199518
-0.000207751
-0.000215691
-0.000223309
-0.000230578
-0.000237469
-0.000243955
-0.000250008
-0.000255601
-0.000260706
-0.000265298
-0.000269348
-0.000272831
-0.000275721
-0.000277993
-0.00027962
-0.000280579
-0.000280845
-0.000280394
-0.000279204
-0.000277251
-0.000274513
-0.000270968
-0.000266603
-0.000261411
-0.000255345
-0.000248192
-0.000239795
-0.00023197
4.17635e-05
4.90171e-05
5.66476e-05
6.29102e-05
6.79718e-05
7.20535e-05
7.52158e-05
7.74799e-05
7.88738e-05
7.94305e-05
7.9184e-05
7.81673e-05
7.64137e-05
7.39557e-05
7.0826e-05
6.70564e-05
6.26788e-05
5.77242e-05
5.22238e-05
4.62078e-05
3.97062e-05
3.27485e-05
2.5364e-05
1.75813e-05
9.42916e-06
9.35358e-07
-7.87191e-06
-1.69653e-05
-2.6317e-05
-3.59002e-05
-4.56871e-05
-5.5651e-05
-6.57644e-05
-7.60005e-05
-8.63318e-05
-9.67313e-05
-0.000107171
-0.000117624
-0.000128063
-0.000138458
-0.000148783
-0.000159009
-0.000169108
-0.000179051
-0.000188808
-0.000198352
-0.000207652
-0.000216679
-0.000225404
-0.000233797
-0.000241828
-0.000249467
-0.000256684
-0.000263449
-0.000269733
-0.000275506
-0.000280737
-0.000285399
-0.00028946
-0.000292893
-0.000295668
-0.000297758
-0.000299134
-0.000299769
-0.000299635
-0.000298708
-0.000296959
-0.000294365
-0.000290901
-0.000286549
-0.000281302
-0.000275108
-0.000267745
-0.000259046
-0.000250913
6.71671e-05
7.43974e-05
8.19379e-05
8.80241e-05
9.28295e-05
9.65838e-05
9.93537e-05
0.000101166
0.000102053
0.000102054
0.000101207
9.95502e-05
9.71206e-05
9.39549e-05
9.00894e-05
8.55593e-05
8.03996e-05
7.46441e-05
6.83264e-05
6.1479e-05
5.41338e-05
4.6322e-05
3.80744e-05
2.94207e-05
2.03908e-05
1.10132e-05
1.31682e-06
-8.67043e-06
-1.89204e-05
-2.94058e-05
-4.00988e-05
-5.09725e-05
-6.19991e-05
-7.31519e-05
-8.4403e-05
-9.57254e-05
-0.000107091
-0.000118473
-0.000129842
-0.00014117
-0.000152429
-0.000163589
-0.000174622
-0.000185498
-0.000196187
-0.000206658
-0.000216881
-0.000226825
-0.000236458
-0.000245749
-0.000254667
-0.000263178
-0.000271251
-0.000278853
-0.000285952
-0.000292515
-0.000298509
-0.000303902
-0.000308661
-0.000312754
-0.000316148
-0.000318813
-0.000320716
-0.000321827
-0.000322114
-0.000321548
-0.000320099
-0.000317738
-0.000314439
-0.00031018
-0.00030495
-0.000298695
-0.00029118
-0.000282231
-0.000273829
9.72968e-05
0.000104377
0.000111675
0.000117433
0.00012183
0.000125102
0.000127324
0.000128528
0.000128753
0.000128044
0.000126445
0.000123998
0.000120745
0.000116727
0.000111985
0.000106557
0.000100481
9.3794e-05
8.65315e-05
7.87282e-05
7.04179e-05
6.16332e-05
5.24062e-05
4.27675e-05
3.27477e-05
2.2376e-05
1.16816e-05
6.92538e-07
-1.05628e-05
-2.20572e-05
-3.37628e-05
-4.56528e-05
-5.76997e-05
-6.98767e-05
-8.21562e-05
-9.45111e-05
-0.000106913
-0.000119336
-0.000131749
-0.000144126
-0.000156436
-0.00016865
-0.000180738
-0.00019267
-0.000204415
-0.00021594
-0.000227215
-0.000238205
-0.000248879
-0.000259202
-0.00026914
-0.000278658
-0.000287723
-0.000296298
-0.000304348
-0.000311837
-0.000318729
-0.000324989
-0.000330579
-0.000335464
-0.000339608
-0.000342976
-0.000345531
-0.000347239
-0.000348064
-0.000347974
-0.000346933
-0.00034491
-0.000341873
-0.000337797
-0.000332669
-0.000326429
-0.000318833
-0.000309695
-0.000301071
0.000132567
0.00013934
0.000146213
0.000151461
0.000155268
0.000157876
0.000159368
0.000159783
0.000159168
0.000157573
0.00015505
0.000151645
0.000147406
0.000142378
0.000136606
0.00013013
0.000122994
0.000115236
0.000106893
9.80036e-05
8.86018e-05
7.87215e-05
6.83958e-05
5.7656e-05
4.65329e-05
3.5056e-05
2.32543e-05
1.11558e-05
-1.21145e-06
-1.38206e-05
-2.66444e-05
-3.96564e-05
-5.28295e-05
-6.61376e-05
-7.95533e-05
-9.305e-05
-0.0001066
-0.000120176
-0.000133749
-0.000147291
-0.000160772
-0.000174162
-0.000187431
-0.000200547
-0.000213478
-0.000226191
-0.000238652
-0.000250828
-0.000262682
-0.000274179
-0.000285283
-0.000295956
-0.00030616
-0.000315857
-0.000325008
-0.000333575
-0.000341516
-0.000348792
-0.000355364
-0.00036119
-0.000366231
-0.000370446
-0.000373795
-0.000376239
-0.000377738
-0.000378254
-0.000377748
-0.000376182
-0.000373521
-0.000369736
-0.000364809
-0.000358675
-0.000351075
-0.000341821
-0.00033303
0.000173423
0.000179696
0.000185918
0.000190437
0.000193439
0.00019517
0.00019572
0.000195138
0.00019348
0.000190802
0.000187161
0.000182612
0.000177206
0.000170994
0.000164024
0.000156342
0.000147991
0.000139014
0.000129451
0.000119339
0.000108716
9.76148e-05
8.60698e-05
7.41123e-05
6.17729e-05
4.90806e-05
3.6064e-05
2.27505e-05
9.16709e-06
-4.66019e-06
-1.8705e-05
-3.2942e-05
-4.7345e-05
-6.18887e-05
-7.65467e-05
-9.12931e-05
-0.000106101
-0.000120943
-0.000135791
-0.000150617
-0.00016539
-0.000180082
-0.00019466
-0.000209092
-0.000223345
-0.000237386
-0.000251178
-0.000264685
-0.00027787
-0.000290696
-0.000303122
-0.000315108
-0.000326614
-0.000337597
-0.000348016
-0.000357826
-0.000366984
-0.000375446
-0.000383167
-0.000390102
-0.000396206
-0.000401433
-0.000405738
-0.000409077
-0.000411404
-0.000412676
-0.000412849
-0.000411879
-0.000409725
-0.000406354
-0.000401742
-0.000395817
-0.000388313
-0.00037903
-0.000370141
0.00022033
0.000225869
0.000231168
0.000234695
0.000236638
0.000237242
0.000236604
0.000234787
0.000231852
0.000227866
0.000222893
0.000216992
0.000210222
0.000202638
0.00019429
0.00018523
0.000175503
0.000165153
0.000154222
0.00014275
0.000130773
0.000118325
0.000105441
9.21508e-05
7.84845e-05
6.44701e-05
5.0135e-05
3.5505e-05
2.06058e-05
5.46176e-06
-9.90229e-06
-2.54626e-05
-4.11946e-05
-5.70745e-05
-7.30772e-05
-8.9178e-05
-0.000105351
-0.00012157
-0.000137808
-0.000154036
-0.000170225
-0.000186345
-0.000202364
-0.00021825
-0.000233967
-0.000249481
-0.000264755
-0.000279751
-0.000294428
-0.000308747
-0.000322665
-0.000336139
-0.000349123
-0.000361574
-0.000373442
-0.000384682
-0.000395245
-0.000405081
-0.00041414
-0.000422372
-0.000429726
-0.000436152
-0.000441598
-0.000446012
-0.000449345
-0.000451545
-0.000452563
-0.00045235
-0.000450856
-0.000448043
-0.000443881
-0.000438292
-0.000430997
-0.000421792
-0.00041289
0.00027377
0.000278289
0.000282338
0.00028456
0.000285143
0.000284327
0.000282219
0.000278891
0.000274417
0.000268872
0.000262326
0.000254846
0.000246495
0.000237334
0.000227417
0.000216797
0.000205524
0.000193643
0.000181196
0.000168222
0.00015476
0.000140843
0.000126502
0.000111769
9.66706e-05
8.12333e-05
6.54825e-05
4.94418e-05
3.31344e-05
1.65826e-05
-1.91528e-07
-1.71664e-05
-3.43197e-05
-5.16299e-05
-6.90738e-05
-8.66289e-05
-0.000104271
-0.000121974
-0.000139714
-0.000157461
-0.000175189
-0.000192866
-0.000210461
-0.00022794
-0.000245269
-0.00026241
-0.000279326
-0.000295976
-0.000312317
-0.000328308
-0.000343901
-0.000359052
-0.000373709
-0.000387825
-0.000401347
-0.000414223
-0.000426399
-0.00043782
-0.00044843
-0.000458173
-0.000466991
-0.000474828
-0.000481624
-0.000487322
-0.000491863
-0.000495191
-0.000497247
-0.000497975
-0.00049732
-0.000495234
-0.000491682
-0.000486577
-0.000479632
-0.000470634
-0.000461822
0.000334226
0.000337381
0.000339784
0.000340331
0.000339203
0.000336627
0.000332721
0.000327571
0.000321261
0.000313875
0.00030549
0.000296181
0.000286017
0.00027506
0.000263371
0.000251003
0.000238009
0.000224434
0.000210321
0.000195709
0.000180633
0.000165127
0.000149221
0.000132942
0.000116315
9.93631e-05
8.21096e-05
6.45742e-05
4.67771e-05
2.87368e-05
1.04725e-05
-7.99771e-06
-2.66548e-05
-4.548e-05
-6.44533e-05
-8.35545e-05
-0.000102762
-0.000122052
-0.000141401
-0.000160782
-0.000180169
-0.000199532
-0.000218838
-0.000238055
-0.000257146
-0.000276075
-0.0002948
-0.000313281
-0.000331471
-0.000349325
-0.000366794
-0.000383827
-0.000400371
-0.000416371
-0.000431771
-0.000446512
-0.000460535
-0.000473779
-0.00048618
-0.000497675
-0.0005082
-0.000517688
-0.000526075
-0.000533294
-0.000539279
-0.000543964
-0.000547282
-0.000549169
-0.000549561
-0.000548403
-0.000545649
-0.000541205
-0.000534774
-0.000526138
-0.000517539
0.000402168
0.000403543
0.000403834
0.000402268
0.000399017
0.00039429
0.000388212
0.000380886
0.000372406
0.000362866
0.000352352
0.000340943
0.000328713
0.00031573
0.000302056
0.000287746
0.000272853
0.000257423
0.000241497
0.000225113
0.000208304
0.000191099
0.000173527
0.000155611
0.000137371
0.000118828
9.99992e-05
8.09e-05
6.15462e-05
4.19519e-05
2.21316e-05
2.09923e-06
-1.81304e-05
-3.85427e-05
-5.91213e-05
-7.98497e-05
-0.000100709
-0.000121679
-0.000142739
-0.000163863
-0.000185027
-0.000206201
-0.000227355
-0.000248455
-0.000269465
-0.000290347
-0.000311058
-0.000331555
-0.00035179
-0.000371714
-0.000391274
-0.000410415
-0.000429078
-0.000447205
-0.000464733
-0.000481596
-0.000497728
-0.00051306
-0.000527523
-0.000541044
-0.000553549
-0.000564966
-0.000575219
-0.000584233
-0.000591931
-0.000598238
-0.000603079
-0.000606377
-0.000608059
-0.00060806
-0.000606325
-0.00060275
-0.00059703
-0.000588943
-0.00058071
0.000478027
0.000477132
0.000474755
0.000470564
0.000464714
0.000457384
0.00044871
0.000438809
0.000427788
0.00041575
0.000402788
0.000388987
0.000374426
0.000359174
0.000343295
0.000326847
0.000309878
0.000292435
0.000274557
0.000256277
0.000237625
0.000218627
0.000199305
0.000179677
0.000159759
0.000139565
0.000119106
9.83935e-05
7.74356e-05
5.62409e-05
3.48181e-05
1.31755e-05
-8.67737e-06
-3.07314e-05
-5.29754e-05
-7.53972e-05
-9.79821e-05
-0.000120714
-0.000143574
-0.000166542
-0.000189593
-0.000212701
-0.000235836
-0.000258965
-0.000282052
-0.000305057
-0.000327938
-0.000350648
-0.000373137
-0.000395352
-0.000417236
-0.00043873
-0.00045977
-0.000480291
-0.000500222
-0.000519492
-0.000538026
-0.000555748
-0.000572578
-0.000588434
-0.000603235
-0.000616895
-0.000629329
-0.000640451
-0.000650174
-0.000658409
-0.000665072
-0.000670074
-0.000673331
-0.000674765
-0.000674309
-0.00067185
-0.000667075
-0.00065976
-0.000652075
0.00056217
0.000558424
0.000552727
0.000545317
0.000536319
0.000525873
0.000514122
0.0005012
0.000487228
0.000472315
0.000456562
0.000440058
0.000422886
0.000405115
0.00038681
0.000368026
0.000348811
0.000329207
0.000309248
0.000288963
0.000268377
0.000247508
0.000226372
0.00020498
0.000183341
0.000161461
0.000139345
0.000116993
9.44093e-05
7.15929e-05
4.85448e-05
2.52672e-05
1.76495e-06
-2.19629e-05
-4.59113e-05
-7.00732e-05
-9.44391e-05
-0.000118998
-0.000143735
-0.000168634
-0.000193673
-0.000218829
-0.000244074
-0.000269375
-0.000294697
-0.00032
-0.00034524
-0.000370368
-0.000395332
-0.000420075
-0.000444535
-0.000468649
-0.000492346
-0.000515554
-0.000538195
-0.000560191
-0.000581456
-0.000601904
-0.000621446
-0.00063999
-0.000657442
-0.000673705
-0.000688681
-0.000702272
-0.000714378
-0.000724898
-0.000733731
-0.000740779
-0.000745941
-0.000749127
-0.000750257
-0.000749203
-0.000745652
-0.000739376
-0.000732456
0.000654862
0.000647583
0.00063781
0.000626491
0.000613719
0.000599576
0.00058421
0.000567773
0.000550398
0.000532203
0.000513292
0.000493759
0.000473684
0.000453141
0.000432189
0.00041088
0.000389258
0.000367358
0.000345208
0.000322831
0.000300241
0.00027745
0.000254464
0.000231285
0.000207912
0.000184342
0.000160569
0.000136586
0.000112386
8.7959e-05
6.32918e-05
3.83812e-05
1.32326e-05
-1.21689e-05
-3.78335e-05
-6.37568e-05
-8.99353e-05
-0.000116364
-0.000143035
-0.000169936
-0.000197049
-0.000224355
-0.000251828
-0.000279439
-0.000307151
-0.000334926
-0.000362718
-0.000390477
-0.000418148
-0.00044567
-0.000472977
-0.000499999
-0.00052666
-0.000552878
-0.000578569
-0.000603643
-0.000628007
-0.000651561
-0.000674206
-0.000695837
-0.000716345
-0.000735622
-0.000753555
-0.000770031
-0.000784933
-0.000798147
-0.000809557
-0.000819047
-0.000826503
-0.000831817
-0.000834891
-0.000835586
-0.000833585
-0.000828661
-0.000822764
0.000756224
0.00074462
0.000729892
0.000713879
0.00069662
0.000678126
0.000658546
0.000638051
0.000616784
0.000594869
0.000572412
0.000549509
0.000526239
0.000502669
0.000478856
0.000454845
0.000430672
0.000406363
0.000381937
0.000357406
0.000332774
0.000308042
0.000283203
0.000258248
0.000233165
0.000207938
0.000182549
0.000156979
0.000131209
0.000105219
7.89882e-05
5.24986e-05
2.57342e-05
-1.31947e-06
-2.86771e-05
-5.63485e-05
-8.43394e-05
-0.000112653
-0.000141287
-0.000170236
-0.000199488
-0.000229028
-0.000258834
-0.00028888
-0.000319131
-0.000349548
-0.000380086
-0.000410694
-0.000441313
-0.000471879
-0.00050232
-0.000532561
-0.000562517
-0.0005921
-0.000621215
-0.000649761
-0.000677633
-0.00070472
-0.000730908
-0.000756077
-0.000780104
-0.000802864
-0.000824228
-0.000844065
-0.000862242
-0.000878626
-0.000893081
-0.000905476
-0.000915674
-0.000923551
-0.00092899
-0.000931833
-0.00093177
-0.000928574
-0.000924007
0.000866175
0.000849332
0.000828643
0.000807039
0.000784493
0.000760919
0.000736466
0.00071132
0.000685634
0.000659534
0.000633129
0.000606508
0.000579746
0.000552904
0.00052603
0.000499159
0.000472314
0.000445511
0.000418755
0.000392045
0.00036537
0.000338716
0.000312064
0.000285389
0.000258664
0.000231858
0.000204939
0.000177875
0.00015063
0.000123172
9.54675e-05
6.74842e-05
3.91931e-05
1.05664e-05
-1.842e-05
-4.77875e-05
-7.75525e-05
-0.000107728
-0.00013832
-0.000169332
-0.000200759
-0.000232592
-0.000264814
-0.000297402
-0.000330326
-0.000363547
-0.000397021
-0.000430695
-0.000464508
-0.000498392
-0.000532271
-0.000566062
-0.000599673
-0.000633006
-0.000665955
-0.000698408
-0.000730245
-0.000761342
-0.000791567
-0.000820786
-0.000848856
-0.000875635
-0.000900973
-0.000924719
-0.00094672
-0.000966821
-0.000984867
-0.0010007
-0.00101417
-0.00102512
-0.00103341
-0.00103888
-0.00104121
-0.00104018
-0.0010373
0.000984369
0.000961239
0.000933444
0.000905237
0.000876511
0.000847053
0.000817005
0.000786568
0.000755903
0.000725134
0.000694364
0.000663676
0.000633135
0.00060279
0.000572675
0.000542811
0.000513207
0.00048386
0.00045476
0.000425886
0.000397212
0.000368706
0.000340329
0.000312039
0.000283792
0.000255539
0.000227232
0.000198818
0.000170249
0.000141474
0.000112444
8.31109e-05
5.34307e-05
2.33609e-05
-7.13644e-06
-3.80961e-05
-6.9547e-05
-0.000101514
-0.000134015
-0.000167062
-0.000200661
-0.00023481
-0.000269499
-0.00030471
-0.000340417
-0.000376585
-0.000413171
-0.000450122
-0.000487375
-0.000524858
-0.00056249
-0.00060018
-0.000637829
-0.000675329
-0.00071256
-0.000749397
-0.000785706
-0.000821344
-0.000856163
-0.000890008
-0.000922717
-0.000954123
-0.000984056
-0.00101234
-0.0010388
-0.00106325
-0.00108551
-0.00110541
-0.00112275
-0.00113737
-0.0011491
-0.00115774
-0.001163
-0.00116466
-0.00116391
0.00111011
0.00107951
0.00104331
0.00100737
0.000971476
0.000935254
0.000898831
0.000862421
0.000826188
0.000790248
0.000754694
0.000719595
0.000685001
0.000650943
0.000617438
0.000584484
0.000552071
0.000520175
0.000488762
0.000457792
0.000427216
0.000396979
0.000367023
0.000337284
0.000307695
0.000278188
0.000248694
0.000219142
0.000189463
0.000159585
0.000129443
9.89697e-05
6.81033e-05
3.67843e-05
4.95777e-06
-2.74267e-05
-6.04137e-05
-9.40422e-05
-0.000128344
-0.000163344
-0.000199059
-0.000235498
-0.000272659
-0.000310534
-0.000349101
-0.000388332
-0.000428184
-0.000468605
-0.000509533
-0.000550892
-0.000592597
-0.000634549
-0.00067664
-0.00071875
-0.000760747
-0.000802491
-0.000843828
-0.000884599
-0.000924633
-0.000963753
-0.00100177
-0.0010385
-0.00107373
-0.00110728
-0.00113892
-0.00116845
-0.00119566
-0.00122034
-0.00124228
-0.00126127
-0.0012771
-0.00128956
-0.00129837
-0.00130334
-0.00130522
0.00124227
0.00120285
0.00115681
0.00111189
0.00106774
0.0010238
0.000980163
0.000937061
0.000894648
0.000853028
0.000812274
0.000772435
0.000733537
0.000695589
0.000658578
0.000622481
0.000587256
0.000552855
0.000519218
0.000486275
0.000453953
0.000422171
0.000390844
0.000359885
0.000329202
0.000298703
0.000268295
0.000237885
0.000207381
0.00017669
0.000145724
0.000114397
8.26237e-05
5.03261e-05
1.74295e-05
-1.61357e-05
-5.04322e-05
-8.55168e-05
-0.000121438
-0.000158236
-0.000195943
-0.000234581
-0.00027416
-0.000314683
-0.000356136
-0.000398498
-0.000441731
-0.000485787
-0.000530603
-0.000576101
-0.000622193
-0.000668773
-0.000715722
-0.000762909
-0.000810188
-0.000857401
-0.000904376
-0.00095093
-0.000996869
-0.00104199
-0.00108608
-0.00112891
-0.00117025
-0.00120988
-0.00124754
-0.00128299
-0.001316
-0.0013463
-0.00137365
-0.00139782
-0.00141854
-0.00143559
-0.0014487
-0.00145768
-0.0014628
0.00137916
0.00132944
0.00127194
0.00121667
0.00116309
0.00111041
0.00105868
0.00100814
0.000958922
0.000911113
0.000864756
0.000819869
0.000776449
0.00073447