/*--------------------------------*- C++ -*----------------------------------*\
  =========                 |
  \\      /  F ield         | OpenFOAM: The Open Source CFD Toolbox
   \\    /   O peration     | Website:  https://openfoam.org
    \\  /    A nd           | Version:  12
     \\/     M anipulation  |
\*---------------------------------------------------------------------------*/
FoamFile
{
    format      ascii;
    class       volVectorField;
    location    "1.5";
    object      U;
}
// * * * * * * * * * * * * * * * * * * * * * * * * * * * * * * * * * * * * * //

dimensions      [0 1 -1 0 0 0 0];

internalField   nonuniform List<vector> 
5625
(
(-2.53201e-07 5.61688e-07 0)
(-8.41586e-07 8.35978e-07 0)
(-1.18198e-06 7.10468e-07 0)
(-9.69483e-07 4.31686e-07 0)
(1.90735e-08 1.03802e-07 0)
(1.83712e-06 -2.2412e-07 0)
(4.49264e-06 -5.35639e-07 0)
(7.94248e-06 -8.17312e-07 0)
(1.21289e-05 -1.06631e-06 0)
(1.69765e-05 -1.27982e-06 0)
(2.24077e-05 -1.46002e-06 0)
(2.83389e-05 -1.60777e-06 0)
(3.46901e-05 -1.72624e-06 0)
(4.13807e-05 -1.81712e-06 0)
(4.83354e-05 -1.88341e-06 0)
(5.54802e-05 -1.92689e-06 0)
(6.27472e-05 -1.95006e-06 0)
(7.00707e-05 -1.95445e-06 0)
(7.73904e-05 -1.94211e-06 0)
(8.46489e-05 -1.91437e-06 0)
(9.17936e-05 -1.87288e-06 0)
(9.8775e-05 -1.81876e-06 0)
(0.000105548 -1.75335e-06 0)
(0.00011207 -1.67764e-06 0)
(0.000118303 -1.59272e-06 0)
(0.000124211 -1.49945e-06 0)
(0.000129763 -1.39872e-06 0)
(0.000134928 -1.2913e-06 0)
(0.00013968 -1.17796e-06 0)
(0.000143996 -1.05938e-06 0)
(0.000147854 -9.36194e-07 0)
(0.000151237 -8.09053e-07 0)
(0.000154127 -6.78511e-07 0)
(0.000156513 -5.45171e-07 0)
(0.000158381 -4.09535e-07 0)
(0.000159724 -2.72193e-07 0)
(0.000160535 -1.33607e-07 0)
(0.00016081 5.63305e-09 0)
(0.000160547 1.45066e-07 0)
(0.000159746 2.84093e-07 0)
(0.00015841 4.22258e-07 0)
(0.000156545 5.58905e-07 0)
(0.000154157 6.93553e-07 0)
(0.000151258 8.25499e-07 0)
(0.00014786 9.54225e-07 0)
(0.000143979 1.07896e-06 0)
(0.000139632 1.19913e-06 0)
(0.000134841 1.31388e-06 0)
(0.000129629 1.42256e-06 0)
(0.000124025 1.52424e-06 0)
(0.000118057 1.61815e-06 0)
(0.000111759 1.70324e-06 0)
(0.000105169 1.77865e-06 0)
(9.8326e-05 1.84318e-06 0)
(9.12745e-05 1.8958e-06 0)
(8.40619e-05 1.93516e-06 0)
(7.67395e-05 1.96005e-06 0)
(6.93625e-05 1.96891e-06 0)
(6.19901e-05 1.96028e-06 0)
(5.46851e-05 1.93236e-06 0)
(4.75145e-05 1.88341e-06 0)
(4.05488e-05 1.81133e-06 0)
(3.38621e-05 1.71411e-06 0)
(2.75317e-05 1.58937e-06 0)
(2.16373e-05 1.43498e-06 0)
(1.626e-05 1.24865e-06 0)
(1.14804e-05 1.02882e-06 0)
(7.37642e-06 7.74673e-07 0)
(4.01824e-06 4.87654e-07 0)
(1.46305e-06 1.72862e-07 0)
(-2.55083e-07 -1.57779e-07 0)
(-1.1402e-06 -4.81058e-07 0)
(-1.27225e-06 -7.49684e-07 0)
(-8.72156e-07 -8.54633e-07 0)
(-2.52869e-07 -5.66755e-07 0)
(-9.15271e-08 1.27289e-06 0)
(2.00168e-07 1.20424e-06 0)
(1.61062e-06 -5.23985e-07 0)
(4.52116e-06 -3.11016e-06 0)
(9.16584e-06 -6.10661e-06 0)
(1.56389e-05 -9.22425e-06 0)
(2.39436e-05 -1.22888e-05 0)
(3.40136e-05 -1.51808e-05 0)
(4.57382e-05 -1.78344e-05 0)
(5.8974e-05 -2.02068e-05 0)
(7.356e-05 -2.2281e-05 0)
(8.93222e-05 -2.40483e-05 0)
(0.000106083 -2.55125e-05 0)
(0.000123662 -2.66797e-05 0)
(0.000141884 -2.75617e-05 0)
(0.000160576 -2.81707e-05 0)
(0.00017957 -2.85216e-05 0)
(0.000198708 -2.86283e-05 0)
(0.000217838 -2.85063e-05 0)
(0.000236816 -2.81699e-05 0)
(0.000255507 -2.76342e-05 0)
(0.000273784 -2.69129e-05 0)
(0.000291528 -2.60201e-05 0)
(0.000308629 -2.49688e-05 0)
(0.000324985 -2.37721e-05 0)
(0.000340502 -2.24421e-05 0)
(0.000355094 -2.09907e-05 0)
(0.000368682 -1.94294e-05 0)
(0.000381195 -1.77691e-05 0)
(0.000392568 -1.60204e-05 0)
(0.000402744 -1.41935e-05 0)
(0.000411673 -1.22985e-05 0)
(0.000419312 -1.0345e-05 0)
(0.000425622 -8.34257e-06 0)
(0.000430574 -6.30047e-06 0)
(0.000434142 -4.22803e-06 0)
(0.000436309 -2.13434e-06 0)
(0.000437064 -2.86511e-08 0)
(0.000436401 2.07992e-06 0)
(0.000434321 4.18195e-06 0)
(0.000430833 6.26813e-06 0)
(0.000425949 8.32873e-06 0)
(0.000419691 1.0354e-05 0)
(0.000412087 1.23338e-05 0)
(0.000403171 1.42579e-05 0)
(0.000392986 1.61155e-05 0)
(0.000381581 1.78956e-05 0)
(0.000369012 1.95867e-05 0)
(0.000355344 2.11773e-05 0)
(0.00034065 2.26551e-05 0)
(0.00032501 2.40077e-05 0)
(0.000308514 2.52219e-05 0)
(0.000291258 2.62847e-05 0)
(0.00027335 2.71822e-05 0)
(0.000254904 2.79006e-05 0)
(0.000236042 2.84254e-05 0)
(0.000216899 2.87423e-05 0)
(0.000197614 2.88365e-05 0)
(0.000178337 2.86936e-05 0)
(0.000159224 2.8299e-05 0)
(0.000140441 2.7639e-05 0)
(0.000122158 2.67005e-05 0)
(0.00010455 2.54723e-05 0)
(8.77975e-05 2.39452e-05 0)
(7.20805e-05 2.21142e-05 0)
(5.75771e-05 1.99799e-05 0)
(4.4458e-05 1.75519e-05 0)
(3.28815e-05 1.48528e-05 0)
(2.29838e-05 1.19257e-05 0)
(1.48688e-05 8.84405e-06 0)
(8.59176e-06 5.72716e-06 0)
(4.13925e-06 2.76317e-06 0)
(1.39793e-06 2.46162e-07 0)
(1.16381e-07 -1.35899e-06 0)
(-9.56471e-08 -1.31607e-06 0)
(9.62624e-08 3.54218e-07 0)
(1.93847e-06 -2.54397e-06 0)
(6.01528e-06 -7.85571e-06 0)
(1.25646e-05 -1.45275e-05 0)
(2.16472e-05 -2.18652e-05 0)
(3.3273e-05 -2.93903e-05 0)
(4.73943e-05 -3.67705e-05 0)
(6.39048e-05 -4.37716e-05 0)
(8.2651e-05 -5.024e-05 0)
(0.000103444 -5.60745e-05 0)
(0.000126072 -6.12173e-05 0)
(0.000150306 -6.5637e-05 0)
(0.000175906 -6.93248e-05 0)
(0.000202631 -7.22853e-05 0)
(0.000230238 -7.45345e-05 0)
(0.000258486 -7.60946e-05 0)
(0.000287143 -7.69936e-05 0)
(0.000315981 -7.72619e-05 0)
(0.000344785 -7.69325e-05 0)
(0.000373345 -7.60392e-05 0)
(0.000401466 -7.46164e-05 0)
(0.000428962 -7.26984e-05 0)
(0.000455659 -7.03193e-05 0)
(0.000481392 -6.75124e-05 0)
(0.00050601 -6.43106e-05 0)
(0.000529373 -6.07455e-05 0)
(0.000551351 -5.68485e-05 0)
(0.000571825 -5.26494e-05 0)
(0.000590688 -4.81778e-05 0)
(0.000607842 -4.34621e-05 0)
(0.0006232 -3.85301e-05 0)
(0.000636685 -3.3409e-05 0)
(0.000648231 -2.81254e-05 0)
(0.00065778 -2.27054e-05 0)
(0.000665285 -1.71748e-05 0)
(0.000670709 -1.15593e-05 0)
(0.000674024 -5.88441e-06 0)
(0.000675212 -1.75564e-07 0)
(0.000674264 5.54155e-06 0)
(0.000671182 1.1241e-05 0)
(0.000665976 1.68967e-05 0)
(0.000658669 2.24818e-05 0)
(0.000649292 2.79692e-05 0)
(0.000637887 3.33309e-05 0)
(0.000624506 3.85386e-05 0)
(0.000609212 4.35629e-05 0)
(0.000592081 4.83738e-05 0)
(0.000573199 5.29405e-05 0)
(0.000552661 5.72312e-05 0)
(0.000530579 6.12135e-05 0)
(0.000507073 6.48541e-05 0)
(0.000482275 6.8119e-05 0)
(0.000456333 7.09736e-05 0)
(0.000429403 7.33829e-05 0)
(0.000401655 7.53114e-05 0)
(0.000373272 7.67236e-05 0)
(0.000344447 7.75842e-05 0)
(0.000315386 7.78586e-05 0)
(0.000286304 7.75134e-05 0)
(0.000257428 7.65169e-05 0)
(0.000228989 7.48405e-05 0)
(0.000201231 7.24594e-05 0)
(0.000174397 6.93549e-05 0)
(0.000148736 6.5516e-05 0)
(0.000124491 6.09434e-05 0)
(0.000101904 5.56531e-05 0)
(8.12007e-05 4.96825e-05 0)
(6.25905e-05 4.30988e-05 0)
(4.62548e-05 3.60101e-05 0)
(3.2338e-05 2.85808e-05 0)
(2.09341e-05 2.10529e-05 0)
(1.20757e-05 1.37743e-05 0)
(5.73258e-06 7.23983e-06 0)
(1.82083e-06 2.15455e-06 0)
(8.16174e-08 -4.83114e-07 0)
(2.58041e-07 -2.35406e-06 0)
(3.67089e-06 -1.08306e-05 0)
(1.04912e-05 -2.18677e-05 0)
(2.0789e-05 -3.43533e-05 0)
(3.4398e-05 -4.74892e-05 0)
(5.11847e-05 -6.06887e-05 0)
(7.1007e-05 -7.3514e-05 0)
(9.36876e-05 -8.56427e-05 0)
(0.000119013 -9.68468e-05 0)
(0.000146745 -0.000106969 0)
(0.000176621 -0.00011591 0)
(0.000208368 -0.000123611 0)
(0.000241702 -0.000130048 0)
(0.000276333 -0.000135218 0)
(0.000311973 -0.000139141 0)
(0.000348334 -0.000141846 0)
(0.000385137 -0.000143374 0)
(0.000422108 -0.000143772 0)
(0.000458983 -0.000143094 0)
(0.000495509 -0.000141395 0)
(0.000531445 -0.000138732 0)
(0.000566563 -0.000135164 0)
(0.000600646 -0.000130749 0)
(0.000633492 -0.000125548 0)
(0.000664912 -0.000119616 0)
(0.00069473 -0.000113012 0)
(0.000722783 -0.00010579 0)
(0.000748921 -9.80062e-05 0)
(0.00077301 -8.97133e-05 0)
(0.000794925 -8.09638e-05 0)
(0.000814556 -7.18088e-05 0)
(0.000831805 -6.22986e-05 0)
(0.000846586 -5.24825e-05 0)
(0.000858827 -4.24094e-05 0)
(0.000868468 -3.21274e-05 0)
(0.000875458 -2.16845e-05 0)
(0.000879763 -1.11286e-05 0)
(0.000881359 -5.075e-07 0)
(0.000880233 1.01305e-05 0)
(0.000876387 2.07368e-05 0)
(0.000869834 3.1262e-05 0)
(0.000860601 4.16561e-05 0)
(0.000848726 5.18681e-05 0)
(0.000834263 6.18458e-05 0)
(0.000817278 7.1536e-05 0)
(0.000797849 8.08842e-05 0)
(0.000776072 8.98345e-05 0)
(0.000752053 9.833e-05 0)
(0.000725916 0.000106312 0)
(0.000697797 0.000113721 0)
(0.000667849 0.000120497 0)
(0.000636238 0.000126578 0)
(0.000603147 0.000131901 0)
(0.000568772 0.000136405 0)
(0.000533324 0.000140026 0)
(0.00049703 0.000142703 0)
(0.000460129 0.000144375 0)
(0.000422873 0.000144984 0)
(0.000385528 0.000144475 0)
(0.000348367 0.000142797 0)
(0.000311676 0.000139905 0)
(0.000275745 0.000135765 0)
(0.00024087 0.000130351 0)
(0.000207347 0.000123655 0)
(0.000175471 0.000115688 0)
(0.000145529 0.000106485 0)
(0.000117795 9.61176e-05 0)
(9.25275e-05 8.46992e-05 0)
(6.99603e-05 7.24008e-05 0)
(5.02968e-05 5.94667e-05 0)
(3.37018e-05 4.62354e-05 0)
(2.03002e-05 3.31654e-05 0)
(1.0203e-05 2.08693e-05 0)
(3.54925e-06 1.01607e-05 0)
(2.43836e-07 2.10899e-06 0)
(3.91775e-07 -6.71274e-06 0)
(5.21968e-06 -2.34284e-05 0)
(1.45796e-05 -4.23178e-05 0)
(2.83951e-05 -6.23165e-05 0)
(4.62795e-05 -8.26198e-05 0)
(6.79438e-05 -0.000102608 0)
(9.31331e-05 -0.000121797 0)
(0.00012158 -0.000139819 0)
(0.000152997 -0.000156399 0)
(0.000187085 -0.000171344 0)
(0.000223529 -0.000184526 0)
(0.00026201 -0.000195865 0)
(0.000302201 -0.000205325 0)
(0.000343773 -0.000212901 0)
(0.000386402 -0.000218613 0)
(0.000429764 -0.000222501 0)
(0.000473544 -0.000224618 0)
(0.000517434 -0.00022503 0)
(0.000561137 -0.000223811 0)
(0.000604369 -0.000221039 0)
(0.000646855 -0.000216798 0)
(0.000688339 -0.000211171 0)
(0.000728573 -0.000204247 0)
(0.000767328 -0.00019611 0)
(0.000804387 -0.000186848 0)
(0.000839549 -0.000176545 0)
(0.000872627 -0.000165286 0)
(0.000903451 -0.000153154 0)
(0.000931862 -0.00014023 0)
(0.000957718 -0.000126594 0)
(0.000980892 -0.000112326 0)
(0.00100127 -9.75009e-05 0)
(0.00101875 -8.21968e-05 0)
(0.00103325 -6.64888e-05 0)
(0.00104469 -5.04519e-05 0)
(0.00105303 -3.41608e-05 0)
(0.00105821 -1.76899e-05 0)
(0.0010602 -1.11411e-06 0)
(0.001059 1.54913e-05 0)
(0.00105461 3.20502e-05 0)
(0.00104702 4.84857e-05 0)
(0.00103629 6.47193e-05 0)
(0.00102244 8.06715e-05 0)
(0.00100554 9.6261e-05 0)
(0.000985661 0.000111405 0)
(0.000962899 0.000126018 0)
(0.000937359 0.000140014 0)
(0.000909164 0.000153305 0)
(0.000878455 0.0001658 0)
(0.000845389 0.000177409 0)
(0.00081014 0.000188037 0)
(0.000772899 0.000197591 0)
(0.000733876 0.000205978 0)
(0.000693294 0.000213102 0)
(0.000651396 0.000218871 0)
(0.00060844 0.000223193 0)
(0.000564698 0.000225978 0)
(0.000520458 0.000227143 0)
(0.00047602 0.000226607 0)
(0.000431698 0.000224301 0)
(0.000387813 0.000220164 0)
(0.000344696 0.000214149 0)
(0.000302681 0.000206224 0)
(0.000262108 0.000196384 0)
(0.000223313 0.000184645 0)
(0.000186629 0.000171063 0)
(0.000152379 0.000155734 0)
(0.000120877 0.000138807 0)
(9.242e-05 0.000120499 0)
(6.72862e-05 0.000101106 0)
(4.57305e-05 8.10213e-05 0)
(2.79908e-05 6.07585e-05 0)
(1.43321e-05 4.09728e-05 0)
(5.11184e-06 2.24933e-05 0)
(3.79091e-07 6.35242e-06 0)
(5.021e-07 -1.24948e-05 0)
(6.55825e-06 -3.98532e-05 0)
(1.81715e-05 -6.85909e-05 0)
(3.51499e-05 -9.77359e-05 0)
(5.69146e-05 -0.00012653 0)
(8.3031e-05 -0.000154372 0)
(0.00011313 -0.000180776 0)
(0.00014685 -0.000205365 0)
(0.000183822 -0.000227852 0)
(0.000223678 -0.00024803 0)
(0.000266049 -0.000265758 0)
(0.000310563 -0.000280953 0)
(0.000356853 -0.000293575 0)
(0.000404555 -0.000303621 0)
(0.000453307 -0.000311122 0)
(0.000502758 -0.000316129 0)
(0.000552564 -0.000318712 0)
(0.000602391 -0.000318958 0)
(0.000651918 -0.000316963 0)
(0.000700837 -0.00031283 0)
(0.000748853 -0.00030667 0)
(0.000795686 -0.000298597 0)
(0.000841071 -0.000288726 0)
(0.000884757 -0.000277173 0)
(0.000926512 -0.000264056 0)
(0.000966116 -0.000249491 0)
(0.00100337 -0.000233592 0)
(0.00103808 -0.000216473 0)
(0.00107008 -0.000198246 0)
(0.00109921 -0.000179021 0)
(0.00112533 -0.000158907 0)
(0.00114832 -0.00013801 0)
(0.00116807 -0.000116438 0)
(0.00118448 -9.42948e-05 0)
(0.00119747 -7.16853e-05 0)
(0.00120698 -4.87137e-05 0)
(0.00121296 -2.54843e-05 0)
(0.00121538 -2.10188e-06 0)
(0.0012142 2.1328e-05 0)
(0.00120945 4.46986e-05 0)
(0.00120112 6.79019e-05 0)
(0.00118924 9.08279e-05 0)
(0.00117387 0.000113365 0)
(0.00115506 0.000135398 0)
(0.0011329 0.000156812 0)
(0.00110748 0.000177488 0)
(0.00107892 0.000197304 0)
(0.00104734 0.000216138 0)
(0.00101291 0.000233863 0)
(0.000975793 0.000250352 0)
(0.000936176 0.000265476 0)
(0.000894268 0.000279106 0)
(0.000850296 0.000291112 0)
(0.000804504 0.000301364 0)
(0.000757156 0.000309736 0)
(0.000708533 0.000316101 0)
(0.000658932 0.000320341 0)
(0.000608667 0.000322342 0)
(0.000558067 0.000321997 0)
(0.000507473 0.000319214 0)
(0.000457239 0.000313913 0)
(0.000407729 0.000306031 0)
(0.000359314 0.000295529 0)
(0.000312372 0.000282395 0)
(0.00026728 0.00026665 0)
(0.000224419 0.000248355 0)
(0.000184167 0.000227621 0)
(0.000146897 0.000204617 0)
(0.000112977 0.00017958 0)
(8.27701e-05 0.000152829 0)
(5.6627e-05 0.000124779 0)
(3.48999e-05 9.59522e-05 0)
(1.79999e-05 6.69981e-05 0)
(6.47619e-06 3.87095e-05 0)
(4.91151e-07 1.2036e-05 0)
(5.93718e-07 -1.94899e-05 0)
(7.70651e-06 -5.96059e-05 0)
(2.12875e-05 -9.99972e-05 0)
(4.10553e-05 -0.000139799 0)
(6.62691e-05 -0.000178324 0)
(9.63654e-05 -0.000215018 0)
(0.00013087 -0.000249429 0)
(0.000169326 -0.000281199 0)
(0.000211287 -0.000310054 0)
(0.000256315 -0.000335796 0)
(0.000303979 -0.000358296 0)
(0.00035386 -0.000377477 0)
(0.000405548 -0.000393312 0)
(0.00045864 -0.000405812 0)
(0.000512746 -0.000415024 0)
(0.000567486 -0.000421018 0)
(0.000622492 -0.000423888 0)
(0.000677411 -0.000423744 0)
(0.000731903 -0.000420708 0)
(0.000785643 -0.000414913 0)
(0.000838321 -0.000406499 0)
(0.000889644 -0.00039561 0)
(0.000939334 -0.000382393 0)
(0.000987129 -0.000366996 0)
(0.00103278 -0.000349568 0)
(0.00107607 -0.000330258 0)
(0.00111678 -0.000309212 0)
(0.00115471 -0.000286576 0)
(0.00118968 -0.000262494 0)
(0.00122154 -0.000237107 0)
(0.00125012 -0.000210556 0)
(0.00127531 -0.000182979 0)
(0.00129697 -0.000154512 0)
(0.00131501 -0.000125293 0)
(0.00132935 -9.54563e-05 0)
(0.00133991 -6.5138e-05 0)
(0.00134664 -3.44735e-05 0)
(0.00134951 -3.59931e-06 0)
(0.00134847 2.73468e-05 0)
(0.00134355 5.82257e-05 0)
(0.00133473 8.88959e-05 0)
(0.00132205 0.000119214 0)
(0.00130556 0.000149033 0)
(0.00128531 0.000178204 0)
(0.0012614 0.000206575 0)
(0.0012339 0.00023399 0)
(0.00120296 0.000260292 0)
(0.00116869 0.000285318 0)
(0.00113127 0.000308904 0)
(0.00109086 0.000330885 0)
(0.00104767 0.000351092 0)
(0.00100191 0.000369357 0)
(0.000953812 0.000385511 0)
(0.000903647 0.000399387 0)
(0.000851686 0.000410819 0)
(0.000798227 0.000419648 0)
(0.000743586 0.000425717 0)
(0.000688098 0.000428881 0)
(0.000632112 0.000429003 0)
(0.000575996 0.000425964 0)
(0.000520131 0.000419659 0)
(0.000464912 0.000410005 0)
(0.000410744 0.000396946 0)
(0.000358041 0.000380459 0)
(0.000307228 0.000360555 0)
(0.000258732 0.000337293 0)
(0.000212988 0.00031078 0)
(0.000170435 0.000281187 0)
(0.000131515 0.000248752 0)
(9.6673e-05 0.000213791 0)
(6.63574e-05 0.000176709 0)
(4.10282e-05 0.000138012 0)
(2.12257e-05 9.83128e-05 0)
(7.6613e-06 5.83448e-05 0)
(5.84999e-07 1.89617e-05 0)
(6.71164e-07 -2.75222e-05 0)
(8.69507e-06 -8.22391e-05 0)
(2.39868e-05 -0.000135886 0)
(4.61936e-05 -0.000187704 0)
(7.44378e-05 -0.000237089 0)
(0.000108044 -0.000283553 0)
(0.000146441 -0.000326695 0)
(0.000189089 -0.000366199 0)
(0.000235462 -0.000401827 0)
(0.000285055 -0.000433412 0)
(0.000337381 -0.00046085 0)
(0.000391971 -0.000484092 0)
(0.000448371 -0.000503136 0)
(0.000506146 -0.00051802 0)
(0.000564875 -0.000528817 0)
(0.000624154 -0.000535625 0)
(0.000683595 -0.000538567 0)
(0.000742829 -0.000537784 0)
(0.000801502 -0.00053343 0)
(0.000859278 -0.00052567 0)
(0.000915837 -0.000514676 0)
(0.000970879 -0.000500625 0)
(0.00102412 -0.000483699 0)
(0.00107529 -0.000464078 0)
(0.00112415 -0.000441946 0)
(0.00117045 -0.000417483 0)
(0.00121398 -0.00039087 0)
(0.00125455 -0.000362285 0)
(0.00129197 -0.000331903 0)
(0.00132606 -0.000299898 0)
(0.00135669 -0.000266442 0)
(0.0013837 -0.000231705 0)
(0.00140699 -0.000195855 0)
(0.00142644 -0.000159059 0)
(0.00144197 -0.000121485 0)
(0.00145349 -8.32989e-05 0)
(0.00146096 -4.46689e-05 0)
(0.00146432 -5.76336e-06 0)
(0.00146355 3.32472e-05 0)
(0.00145864 7.21902e-05 0)
(0.0014496 0.00011089 0)
(0.00143644 0.000149169 0)
(0.00141921 0.000186843 0)
(0.00139796 0.000223729 0)
(0.00137278 0.000259634 0)
(0.00134376 0.000294367 0)
(0.00131101 0.000327729 0)
(0.00127468 0.000359519 0)
(0.00123492 0.000389531 0)
(0.00119191 0.000417559 0)
(0.00114584 0.000443392 0)
(0.00109695 0.000466821 0)
(0.00104547 0.000487634 0)
(0.000991676 0.000505623 0)
(0.000935843 0.00052058 0)
(0.000878284 0.000532306 0)
(0.000819329 0.000540606 0)
(0.000759327 0.000545296 0)
(0.000698649 0.000546207 0)
(0.000637682 0.000543182 0)
(0.000576834 0.000536087 0)
(0.000516528 0.000524813 0)
(0.000457202 0.000509277 0)
(0.000399312 0.000489432 0)
(0.000343323 0.000465272 0)
(0.000289715 0.000436836 0)
(0.000238981 0.000404217 0)
(0.000191624 0.000367566 0)
(0.000148159 0.000327105 0)
(0.000109117 0.000283127 0)
(7.50328e-05 0.000236011 0)
(4.64665e-05 0.000186223 0)
(2.40721e-05 0.000134327 0)
(8.69915e-06 8.09876e-05 0)
(6.65364e-07 2.69654e-05 0)
(7.38123e-07 -3.64493e-05 0)
(9.55241e-06 -0.00010737 0)
(2.63307e-05 -0.000175677 0)
(5.06601e-05 -0.000240712 0)
(8.15441e-05 -0.00030196 0)
(0.000118209 -0.000359006 0)
(0.000159998 -0.000411518 0)
(0.000206293 -0.000459239 0)
(0.000256497 -0.000501984 0)
(0.000310042 -0.000539633 0)
(0.000366387 -0.000572127 0)
(0.000425016 -0.000599458 0)
(0.000485438 -0.000621663 0)
(0.000547183 -0.000638821 0)
(0.000609805 -0.000651041 0)
(0.00067288 -0.000658462 0)
(0.000736002 -0.000661242 0)
(0.000798791 -0.00065956 0)
(0.000860883 -0.000653608 0)
(0.000921935 -0.000643586 0)
(0.000981626 -0.000629705 0)
(0.00103965 -0.000612178 0)
(0.00109573 -0.00059122 0)
(0.00114958 -0.000567049 0)
(0.00120097 -0.000539882 0)
(0.00124967 -0.000509934 0)
(0.00129544 -0.000477418 0)
(0.00133811 -0.000442544 0)
(0.00137748 -0.00040552 0)
(0.00141338 -0.000366551 0)
(0.00144567 -0.00032584 0)
(0.0014742 -0.000283587 0)
(0.00149886 -0.000239991 0)
(0.00151953 -0.00019525 0)
(0.00153612 -0.000149561 0)
(0.00154855 -0.000103122 0)
(0.00155676 -5.61305e-05 0)
(0.0015607 -8.78752e-06 0)
(0.00156034 3.87044e-05 0)
(0.00155565 8.61397e-05 0)
(0.00154664 0.000133309 0)
(0.00153332 0.000179999 0)
(0.00151573 0.000225991 0)
(0.00149392 0.000271063 0)
(0.00146795 0.000314986 0)
(0.00143793 0.000357527 0)
(0.00140395 0.000398448 0)
(0.00136615 0.000437506 0)
(0.00132468 0.000474452 0)
(0.00127972 0.000509036 0)
(0.00123146 0.000541004 0)
(0.00118013 0.0005701 0)
(0.00112596 0.000596069 0)
(0.00106923 0.000618655 0)
(0.00101023 0.000637607 0)
(0.000949261 0.00065268 0)
(0.000886676 0.000663635 0)
(0.000822833 0.000670246 0)
(0.000758117 0.000672299 0)
(0.000692937 0.000669599 0)
(0.000627723 0.000661973 0)
(0.000562925 0.000649273 0)
(0.000499017 0.000631383 0)
(0.000436489 0.000608222 0)
(0.000375854 0.000579751 0)
(0.000317642 0.000545978 0)
(0.000262401 0.000506965 0)
(0.000210701 0.000462833 0)
(0.000163127 0.000413768 0)
(0.000120289 0.000360028 0)
(8.28062e-05 0.000301948 0)
(5.1328e-05 0.000239947 0)
(2.66098e-05 0.000174531 0)
(9.62081e-06 0.000106296 0)
(7.35974e-07 3.59177e-05 0)
(7.97284e-07 -4.61557e-05 0)
(1.03005e-05 -0.000134673 0)
(2.83686e-05 -0.000218857 0)
(5.45331e-05 -0.000298147 0)
(8.76918e-05 -0.000372119 0)
(0.000126982 -0.000440442 0)
(0.00017167 -0.000502863 0)
(0.000221067 -0.000559196 0)
(0.000274511 -0.000609324 0)
(0.000331378 -0.000653192 0)
(0.000391076 -0.000690799 0)
(0.000453049 -0.000722195 0)
(0.00051677 -0.000747471 0)
(0.000581742 -0.000766756 0)
(0.000647496 -0.00078021 0)
(0.000713591 -0.00078802 0)
(0.000779612 -0.000790391 0)
(0.00084517 -0.000787546 0)
(0.000909896 -0.000779721 0)
(0.00097345 -0.000767159 0)
(0.00103551 -0.00075011 0)
(0.00109577 -0.000728827 0)
(0.00115396 -0.000703565 0)
(0.00120981 -0.000674576 0)
(0.00126307 -0.000642113 0)
(0.00131353 -0.000606425 0)
(0.00136098 -0.000567757 0)
(0.00140522 -0.000526353 0)
(0.00144606 -0.00048245 0)
(0.00148336 -0.000436283 0)
(0.00151695 -0.000388085 0)
(0.0015467 -0.000338084 0)
(0.0015725 -0.000286508 0)
(0.00159422 -0.000233582 0)
(0.00161177 -0.000179532 0)
(0.00162508 -0.000124585 0)
(0.00163407 -6.89683e-05 0)
(0.00163869 -1.29115e-05 0)
(0.0016389 4.33521e-05 0)
(0.00163466 9.95851e-05 0)
(0.00162598 0.000155545 0)
(0.00161285 0.000210986 0)
(0.00159531 0.000265652 0)
(0.00157338 0.000319286 0)
(0.00154713 0.000371619 0)
(0.00151665 0.000422379 0)
(0.00148201 0.000471286 0)
(0.00144336 0.000518054 0)
(0.00140083 0.000562391 0)
(0.00135458 0.000603999 0)
(0.00130481 0.000642579 0)
(0.00125173 0.000677826 0)
(0.00119557 0.000709435 0)
(0.00113661 0.000737102 0)
(0.00107514 0.000760526 0)
(0.00101146 0.00077941 0)
(0.000945931 0.000793466 0)
(0.00087892 0.000802418 0)
(0.000810824 0.000806002 0)
(0.000742069 0.000803975 0)
(0.000673106 0.000796115 0)
(0.000604413 0.000782229 0)
(0.000536494 0.000762152 0)
(0.000469877 0.000735761 0)
(0.000405119 0.00070297 0)
(0.000342798 0.000663745 0)
(0.00028352 0.000618102 0)
(0.000227915 0.000566117 0)
(0.000176641 0.000507932 0)
(0.000130378 0.000443754 0)
(8.98262e-05 0.000373868 0)
(5.57178e-05 0.000298635 0)
(2.89007e-05 0.000218502 0)
(1.04531e-05 0.000133997 0)
(7.99777e-07 4.57189e-05 0)
(8.50371e-07 -5.65446e-05 0)
(1.09535e-05 -0.000163861 0)
(3.01318e-05 -0.000264961 0)
(5.78615e-05 -0.000359379 0)
(9.29424e-05 -0.000446786 0)
(0.00013443 -0.000526944 0)
(0.000181521 -0.000599689 0)
(0.00023346 -0.000664921 0)
(0.000289529 -0.000722605 0)
(0.000349053 -0.000772763 0)
(0.000411396 -0.00081547 0)
(0.000475967 -0.000850845 0)
(0.000542209 -0.000879048 0)
(0.000609603 -0.000900273 0)
(0.000677665 -0.000914741 0)
(0.000745944 -0.000922696 0)
(0.000814017 -0.0009244 0)
(0.000881495 -0.000920129 0)
(0.000948012 -0.000910169 0)
(0.00101323 -0.00089481 0)
(0.00107684 -0.000874347 0)
(0.00113854 -0.000849076 0)
(0.00119807 -0.000819292 0)
(0.00125518 -0.000785285 0)
(0.00130963 -0.000747342 0)
(0.00136121 -0.000705748 0)
(0.00140973 -0.00066078 0)
(0.00145499 -0.000612709 0)
(0.00149683 -0.000561803 0)
(0.00153509 -0.000508325 0)
(0.00156962 -0.000452533 0)
(0.00160031 -0.000394681 0)
(0.00162701 -0.000335023 0)
(0.00164964 -0.000273809 0)
(0.00166808 -0.00021129 0)
(0.00168225 -0.000147718 0)
(0.00169208 -8.33465e-05 0)
(0.00169751 -1.84323e-05 0)
(0.00169849 4.67635e-05 0)
(0.00169497 0.000111975 0)
(0.00168695 0.000176928 0)
(0.0016744 0.000241345 0)
(0.00165734 0.000304937 0)
(0.0016358 0.000367409 0)
(0.00160982 0.000428457 0)
(0.00157946 0.000487767 0)
(0.00154481 0.000545018 0)
(0.00150596 0.000599879 0)
(0.00146305 0.000652013 0)
(0.00141623 0.000701076 0)
(0.00136567 0.000746715 0)
(0.00131158 0.000788577 0)
(0.00125418 0.000826303 0)
(0.00119374 0.000859534 0)
(0.00113053 0.000887915 0)
(0.00106488 0.000911092 0)
(0.000997136 0.000928719 0)
(0.000927665 0.000940464 0)
(0.00085688 0.000946004 0)
(0.000785218 0.000945039 0)
(0.000713152 0.000937289 0)
(0.000641182 0.000922502 0)
(0.000569842 0.000900458 0)
(0.000499698 0.000870976 0)
(0.000431345 0.000833913 0)
(0.000365412 0.000789179 0)
(0.000302558 0.000736733 0)
(0.000243475 0.000676596 0)
(0.000188884 0.000608848 0)
(0.000139539 0.000533641 0)
(9.62146e-05 0.000451199 0)
(5.97219e-05 0.00036182 0)
(3.09958e-05 0.00026589 0)
(1.12165e-05 0.000163871 0)
(8.58958e-07 5.62938e-05 0)
(8.98321e-07 -6.75296e-05 0)
(1.15177e-05 -0.000194671 0)
(3.16315e-05 -0.000313546 0)
(6.06584e-05 -0.000423792 0)
(9.73045e-05 -0.000525182 0)
(0.000140548 -0.000617581 0)
(0.00018952 -0.000700924 0)
(0.000243407 -0.000775214 0)
(0.000301439 -0.000840509 0)
(0.000362896 -0.000896925 0)
(0.000427108 -0.000944627 0)
(0.000493453 -0.000983819 0)
(0.000561354 -0.00101474 0)
(0.000630277 -0.00103767 0)
(0.000699728 -0.00105289 0)
(0.000769254 -0.00106072 0)
(0.000838434 -0.00106149 0)
(0.000906885 -0.00105554 0)
(0.00097425 -0.00104319 0)
(0.00104021 -0.00102481 0)
(0.00110445 -0.00100073 0)
(0.00116672 -0.000971296 0)
(0.00122674 -0.00093684 0)
(0.0012843 -0.000897694 0)
(0.00133917 -0.000854181 0)
(0.00139117 -0.000806616 0)
(0.0014401 -0.000755307 0)
(0.0014858 -0.000700553 0)
(0.00152811 -0.000642648 0)
(0.00156688 -0.000581879 0)
(0.00160198 -0.000518525 0)
(0.00163329 -0.000452864 0)
(0.00166069 -0.000385169 0)
(0.00168407 -0.000315712 0)
(0.00170333 -0.000244764 0)
(0.00171838 -0.000172598 0)
(0.00172915 -9.94895e-05 0)
(0.00173555 -2.57178e-05 0)
(0.00173754 4.84319e-05 0)
(0.00173506 0.000122668 0)
(0.00172808 0.00019669 0)
(0.00171656 0.000270189 0)
(0.0017005 0.000342846 0)
(0.00167991 0.000414331 0)
(0.00165482 0.000484304 0)
(0.00162525 0.000552412 0)
(0.00159127 0.000618292 0)
(0.00155297 0.000681569 0)
(0.00151045 0.000741857 0)
(0.00146385 0.000798763 0)
(0.00141331 0.000851882 0)
(0.00135903 0.000900805 0)
(0.00130122 0.000945117 0)
(0.00124012 0.0009844 0)
(0.00117601 0.00101824 0)
(0.00110919 0.00104621 0)
(0.00104002 0.00106791 0)
(0.00096887 0.00108293 0)
(0.00089615 0.0010909 0)
(0.00082231 0.00109143 0)
(0.000747838 0.00108419 0)
(0.000673256 0.00106885 0)
(0.000599127 0.00104512 0)
(0.000526047 0.00101276 0)
(0.000454653 0.000971544 0)
(0.00038562 0.000921321 0)
(0.000319658 0.00086198 0)
(0.000257518 0.000793472 0)
(0.000199985 0.00071581 0)
(0.000147883 0.000629078 0)
(0.00010206 0.00053343 0)
(6.34016e-05 0.000429099 0)
(3.29304e-05 0.000316405 0)
(1.19264e-05 0.000195745 0)
(9.15158e-07 6.75846e-05 0)
(9.41355e-07 -7.90268e-05 0)
(1.19912e-05 -0.000226839 0)
(3.28585e-05 -0.000364163 0)
(6.28988e-05 -0.000490751 0)
(0.000100727 -0.000606488 0)
(0.000145248 -0.000711358 0)
(0.000195531 -0.00080541 0)
(0.000250707 -0.000888761 0)
(0.000309964 -0.000961583 0)
(0.000372544 -0.0010241 0)
(0.000437749 -0.00107658 0)
(0.000504936 -0.00111934 0)
(0.000573515 -0.00115269 0)
(0.000642946 -0.00117702 0)
(0.000712738 -0.00119269 0)
(0.000782441 -0.00120011 0)
(0.000851648 -0.00119966 0)
(0.000919989 -0.00119176 0)
(0.000987127 -0.00117681 0)
(0.00105276 -0.00115521 0)
(0.00111661 -0.00112737 0)
(0.00117843 -0.00109366 0)
(0.00123799 -0.00105446 0)
(0.00129508 -0.00101015 0)
(0.00134952 -0.00096108 0)
(0.00140113 -0.000907598 0)
(0.00144975 -0.000850038 0)
(0.00149523 -0.000788724 0)
(0.00153743 -0.000723971 0)
(0.00157622 -0.000656083 0)
(0.00161148 -0.00058536 0)
(0.00164309 -0.000512094 0)
(0.00167094 -0.000436574 0)
(0.00169493 -0.000359086 0)
(0.00171495 -0.000279917 0)
(0.00173092 -0.000199355 0)
(0.00174274 -0.00011769 0)
(0.00175034 -3.5221e-05 0)
(0.00175363 4.77496e-05 0)
(0.00175256 0.000130909 0)
(0.00174707 0.000213933 0)
(0.00173711 0.000296488 0)
(0.00172265 0.000378227 0)
(0.00170367 0.000458787 0)
(0.00168016 0.000537794 0)
(0.00165215 0.000614857 0)
(0.00161967 0.000689572 0)
(0.00158276 0.000761519 0)
(0.00154152 0.000830264 0)
(0.00149603 0.000895361 0)
(0.00144644 0.000956351 0)
(0.00139291 0.00101277 0)
(0.00133562 0.00106413 0)
(0.00127481 0.00110996 0)
(0.00121073 0.00114976 0)
(0.00114367 0.00118306 0)
(0.00107398 0.00120937 0)
(0.00100202 0.00122821 0)
(0.000928216 0.00123913 0)
(0.000853014 0.00124167 0)
(0.000776914 0.0012354 0)
(0.000700459 0.00121993 0)
(0.000624232 0.00119488 0)
(0.000548864 0.00115993 0)
(0.000475026 0.00111477 0)
(0.000403437 0.00105917 0)
(0.00033486 0.000992941 0)
(0.000270099 0.000915947 0)
(0.000210005 0.000828125 0)
(0.000155468 0.000729478 0)
(0.000107409 0.000620086 0)
(6.67936e-05 0.000500108 0)
(3.47273e-05 0.000369791 0)
(1.25916e-05 0.00022947 0)
(9.69297e-07 7.95459e-05 0)
(9.79054e-07 -9.0947e-05 0)
(1.23643e-05 -0.000260079 0)
(3.37818e-05 -0.000416323 0)
(6.45171e-05 -0.000559558 0)
(0.000103096 -0.000689801 0)
(0.000148351 -0.000807168 0)
(0.000199294 -0.000911847 0)
(0.000255008 -0.00100408 0)
(0.000314643 -0.00108418 0)
(0.000377412 -0.00115249 0)
(0.000442597 -0.00120941 0)
(0.000509547 -0.00125535 0)
(0.000577668 -0.00129076 0)
(0.000646426 -0.00131612 0)
(0.00071534 -0.00133188 0)
(0.000783978 -0.00133854 0)
(0.000851956 -0.00133659 0)
(0.000918929 -0.00132649 0)
(0.000984592 -0.00130874 0)
(0.00104867 -0.00128378 0)
(0.00111093 -0.00125207 0)
(0.00117114 -0.00121405 0)
(0.00122913 -0.00117015 0)
(0.00128471 -0.00112076 0)
(0.00133772 -0.00106628 0)
(0.00138803 -0.00100707 0)
(0.00143551 -0.000943502 0)
(0.00148002 -0.000875913 0)
(0.00152145 -0.000804633 0)
(0.0015597 -0.00072998 0)
(0.00159466 -0.000652265 0)
(0.00162621 -0.000571788 0)
(0.00165426 -0.000488846 0)
(0.0016787 -0.000403734 0)
(0.00169944 -0.000316744 0)
(0.00171638 -0.000228174 0)
(0.00172942 -0.000138323 0)
(0.00173846 -4.74976e-05 0)
(0.00174342 4.39845e-05 0)
(0.00174421 0.000135796 0)
(0.00174075 0.000227597 0)
(0.00173296 0.000319031 0)
(0.0017208 0.000409728 0)
(0.0017042 0.000499297 0)
(0.00168313 0.000587332 0)
(0.00165758 0.000673406 0)
(0.00162753 0.000757074 0)
(0.00159301 0.000837872 0)
(0.00155407 0.000915316 0)
(0.00151076 0.000988907 0)
(0.0014632 0.00105813 0)
(0.0014115 0.00112245 0)
(0.00135583 0.00118132 0)
(0.00129639 0.0012342 0)
(0.00123342 0.00128051 0)
(0.00116719 0.0013197 0)
(0.00109801 0.00135121 0)
(0.00102626 0.00137446 0)
(0.000952344 0.00138892 0)
(0.000876713 0.00139404 0)
(0.000799874 0.00138931 0)
(0.000722383 0.00137422 0)
(0.000644843 0.00134832 0)
(0.000567911 0.00131117 0)
(0.000492294 0.0012624 0)
(0.000418752 0.00120166 0)
(0.000348095 0.00112866 0)
(0.000281184 0.00104319 0)
(0.000218933 0.00094508 0)
(0.000162298 0.000834253 0)
(0.000112276 0.000710699 0)
(6.99095e-05 0.000574496 0)
(3.63945e-05 0.000425814 0)
(1.3217e-05 0.000264917 0)