/*--------------------------------*- C++ -*----------------------------------*\
  =========                 |
  \\      /  F ield         | OpenFOAM: The Open Source CFD Toolbox
   \\    /   O peration     | Website:  https://openfoam.org
    \\  /    A nd           | Version:  12
     \\/     M anipulation  |
\*---------------------------------------------------------------------------*/
FoamFile
{
    format      ascii;
    class       volScalarField;
    location    "4.5";
    object      epsilon;
}
// * * * * * * * * * * * * * * * * * * * * * * * * * * * * * * * * * * * * * //

dimensions      [0 2 -3 0 0 0 0];

internalField   nonuniform List<scalar> 
5625
(
9.99201e-13
9.99201e-13
9.99201e-13
9.99201e-13
9.99201e-13
9.99201e-13
9.99201e-13
9.99201e-13
9.99201e-13
9.99201e-13
9.99201e-13
9.99201e-13
9.99201e-13
9.99201e-13
9.99201e-13
9.99201e-13
9.99201e-13
9.99201e-13
9.99201e-13
9.99201e-13
9.99201e-13
9.99201e-13
9.99201e-13
9.99201e-13
9.99201e-13
9.99201e-13
9.99201e-13
9.99201e-13
9.99201e-13
9.99201e-13
9.99201e-13
9.99201e-13
9.99201e-13
9.99201e-13
9.99201e-13
9.99201e-13
9.99201e-13
9.99201e-13
9.99201e-13
9.99201e-13
9.99201e-13
9.99201e-13
9.99201e-13
9.99201e-13
9.99201e-13
9.99201e-13
9.99201e-13
9.99201e-13
9.99201e-13
9.99201e-13
9.99201e-13
9.99201e-13
9.99201e-13
9.99201e-13
9.99201e-13
9.99201e-13
9.99201e-13
9.99201e-13
9.99201e-13
9.99201e-13
9.99201e-13
9.99201e-13
9.99201e-13
9.99201e-13
9.99201e-13
9.99201e-13
9.99201e-13
9.99201e-13
9.99201e-13
9.99201e-13
9.99201e-13
9.99201e-13
9.99201e-13
9.99201e-13
9.99201e-13
9.99201e-13
2.886e-13
2.18161e-13
2.09236e-13
2.07845e-13
2.07575e-13
2.07517e-13
2.07511e-13
2.07526e-13
2.07557e-13
2.07601e-13
2.07648e-13
2.07692e-13
2.07732e-13
2.07767e-13
2.07819e-13
2.07986e-13
2.08211e-13
2.08432e-13
2.0863e-13
2.08802e-13
2.08949e-13
2.09072e-13
2.09174e-13
2.09255e-13
2.09318e-13
2.09365e-13
2.09395e-13
2.09411e-13
2.09413e-13
2.09403e-13
2.09382e-13
2.09348e-13
2.09305e-13
2.09251e-13
2.09187e-13
2.09113e-13
2.09029e-13
2.08937e-13
2.08836e-13
2.08725e-13
2.08603e-13
2.0847e-13
2.08326e-13
2.08172e-13
2.0801e-13
2.07852e-13
2.07733e-13
2.07722e-13
2.077e-13
2.07676e-13
2.07652e-13
2.07628e-13
2.07602e-13
2.07574e-13
2.07545e-13
2.07516e-13
2.0749e-13
2.07471e-13
2.0746e-13
2.07453e-13
2.07448e-13
2.07444e-13
2.07442e-13
2.07441e-13
2.07443e-13
2.07447e-13
2.07457e-13
2.07481e-13
2.07556e-13
2.0784e-13
2.0924e-13
2.18167e-13
2.886e-13
9.99201e-13
9.99201e-13
2.18164e-13
1.07246e-13
8.47334e-14
7.94151e-14
7.80221e-14
7.76559e-14
7.76163e-14
7.77182e-14
7.79612e-14
7.83262e-14
7.87109e-14
7.90738e-14
7.94065e-14
7.9727e-14
8.01726e-14
8.17919e-14
8.37963e-14
8.56848e-14
8.73604e-14
8.88135e-14
9.0055e-14
9.10996e-14
9.19628e-14
9.2659e-14
9.32016e-14
9.36027e-14
9.38733e-14
9.40224e-14
9.40602e-14
9.39944e-14
9.38309e-14
9.35748e-14
9.32303e-14
9.28006e-14
9.22879e-14
9.16933e-14
9.10173e-14
9.02603e-14
8.94205e-14
8.84958e-14
8.74838e-14
8.63819e-14
8.51878e-14
8.39015e-14
8.25335e-14
8.11379e-14
7.99623e-14
7.97367e-14
7.95562e-14
7.937e-14
7.91744e-14
7.89668e-14
7.87455e-14
7.85103e-14
7.82626e-14
7.80089e-14
7.77679e-14
7.75837e-14
7.7485e-14
7.74165e-14
7.73591e-14
7.73104e-14
7.72753e-14
7.72562e-14
7.72516e-14
7.72671e-14
7.73217e-14
7.74742e-14
7.79188e-14
7.93654e-14
8.4716e-14
1.07241e-13
2.18159e-13
9.99201e-13
9.99201e-13
2.09235e-13
8.47299e-14
5.34018e-14
4.39952e-14
4.09974e-14
4.01406e-14
4.01536e-14
4.05915e-14
4.16764e-14
4.33506e-14
4.5045e-14
4.66201e-14
4.80586e-14
4.93985e-14
5.07493e-14
5.23451e-14
5.40244e-14
5.56184e-14
5.70585e-14
5.83254e-14
5.94189e-14
6.03461e-14
6.11162e-14
6.17395e-14
6.22259e-14
6.2585e-14
6.28259e-14
6.29557e-14
6.29843e-14
6.29181e-14
6.27626e-14
6.25228e-14
6.22029e-14
6.18063e-14
6.13356e-14
6.07927e-14
6.0179e-14
5.94951e-14
5.87411e-14
5.79165e-14
5.70208e-14
5.60539e-14
5.50169e-14
5.39144e-14
5.27615e-14
5.16004e-14
5.05324e-14
4.97008e-14
4.89191e-14
4.81209e-14
4.72821e-14
4.6391e-14
4.54412e-14
4.44299e-14
4.33596e-14
4.22475e-14
4.11543e-14
4.02984e-14
3.99032e-14
3.96142e-14
3.93576e-14
3.91302e-14
3.89618e-14
3.88658e-14
3.88262e-14
3.88582e-14
3.90169e-14
3.94555e-14
4.06118e-14
4.38073e-14
5.33304e-14
8.47113e-14
2.09231e-13
9.99201e-13
9.99201e-13
2.07838e-13
7.94047e-14
4.39901e-14
3.19178e-14
2.7661e-14
2.65147e-14
2.70425e-14
2.81491e-14
2.95966e-14
3.12611e-14
3.29484e-14
3.45665e-14
3.60905e-14
3.75371e-14
3.89541e-14
4.03989e-14
4.18271e-14
4.31737e-14
4.43991e-14
4.54862e-14
4.6431e-14
4.72358e-14
4.79063e-14
4.84495e-14
4.88727e-14
4.91837e-14
4.93899e-14
4.94968e-14
4.95138e-14
4.94461e-14
4.92987e-14
4.90762e-14
4.87825e-14
4.84211e-14
4.79946e-14
4.75052e-14
4.69545e-14
4.63437e-14
4.56735e-14
4.49446e-14
4.41574e-14
4.33134e-14
4.2415e-14
4.14682e-14
4.04859e-14
3.94933e-14
3.85317e-14
3.76362e-14
3.67638e-14
3.58805e-14
3.49669e-14
3.40124e-14
3.30118e-14
3.19644e-14
3.08753e-14
2.97614e-14
2.86624e-14
2.76545e-14
2.67914e-14
2.59908e-14
2.52187e-14
2.45e-14
2.39701e-14
2.36874e-14
2.35401e-14
2.35622e-14
2.38526e-14
2.46606e-14
2.66236e-14
3.14217e-14
4.38069e-14
7.93614e-14
2.07833e-13
9.99201e-13
9.99201e-13
2.0756e-13
7.80069e-14
4.10001e-14
2.7693e-14
2.2974e-14
2.18012e-14
2.2113e-14
2.30782e-14
2.43735e-14
2.58386e-14
2.73538e-14
2.88487e-14
3.02929e-14
3.16833e-14
3.30317e-14
3.43481e-14
3.5613e-14
3.67963e-14
3.78748e-14
3.88358e-14
3.96744e-14
4.03909e-14
4.09886e-14
4.14724e-14
4.18483e-14
4.21223e-14
4.23007e-14
4.23881e-14
4.23938e-14
4.23217e-14
4.21765e-14
4.19626e-14
4.16839e-14
4.13437e-14
4.09446e-14
4.0489e-14
3.99786e-14
3.9415e-14
3.87993e-14
3.81327e-14
3.74164e-14
3.66523e-14
3.58434e-14
3.49952e-14
3.4117e-14
3.32231e-14
3.23319e-14
3.14549e-14
3.05818e-14
2.96981e-14
2.87923e-14
2.78574e-14
2.68901e-14
2.58908e-14
2.48652e-14
2.38256e-14
2.27948e-14
2.18037e-14
2.08707e-14
1.99783e-14
1.91184e-14
1.83085e-14
1.75991e-14
1.70295e-14
1.6628e-14
1.65517e-14
1.69302e-14
1.80671e-14
2.07e-14
2.6627e-14
4.06153e-14
7.79194e-14
2.07553e-13
9.99201e-13
9.99201e-13
2.07495e-13
7.76437e-14
4.0185e-14
2.66874e-14
2.19283e-14
2.04043e-14
2.03357e-14
2.09878e-14
2.20206e-14
2.32549e-14
2.45799e-14
2.59275e-14
2.72602e-14
2.85601e-14
2.98202e-14
3.10337e-14
3.21858e-14
3.32583e-14
3.42358e-14
3.51087e-14
3.58721e-14
3.65254e-14
3.70704e-14
3.75107e-14
3.7851e-14
3.80967e-14
3.82528e-14
3.83235e-14
3.83182e-14
3.82397e-14
3.80927e-14
3.78814e-14
3.76095e-14
3.72804e-14
3.68967e-14
3.64608e-14
3.59746e-14
3.54398e-14
3.48579e-14
3.42303e-14
3.35585e-14
3.28447e-14
3.20917e-14
3.1304e-14
3.04879e-14
2.96522e-14
2.88058e-14
2.79544e-14
2.7096e-14
2.62252e-14
2.53366e-14
2.44265e-14
2.34935e-14
2.25391e-14
2.15681e-14
2.05895e-14
1.96169e-14
1.86657e-14
1.77464e-14
1.68593e-14
1.60079e-14
1.52071e-14
1.4486e-14
1.38812e-14
1.34474e-14
1.33031e-14
1.36601e-14
1.49975e-14
1.8069e-14
2.46682e-14
3.94651e-14
7.7481e-14
2.07483e-13
9.99201e-13
9.99201e-13
2.07486e-13
7.7622e-14
4.02868e-14
2.7408e-14
2.24406e-14
2.0532e-14
2.00816e-14
2.04058e-14
2.11668e-14
2.2176e-14
2.33188e-14
2.45225e-14
2.57417e-14
2.69483e-14
2.8124e-14
2.92539e-14
3.0323e-14
3.13165e-14
3.22222e-14
3.3032e-14
3.3741e-14
3.4348e-14
3.48539e-14
3.52614e-14
3.55745e-14
3.57977e-14
3.59352e-14
3.59917e-14
3.59757e-14
3.58897e-14
3.57384e-14
3.55259e-14
3.52558e-14
3.49314e-14
3.45555e-14
3.41304e-14
3.36582e-14
3.31406e-14
3.25791e-14
3.19755e-14
3.13312e-14
3.06483e-14
2.99294e-14
2.91779e-14
2.83985e-14
2.75964e-14
2.6777e-14
2.5944e-14
2.5098e-14
2.42376e-14
2.33611e-14
2.24675e-14
2.15569e-14
2.06316e-14
1.96961e-14
1.87573e-14
1.78244e-14
1.69075e-14
1.60154e-14
1.51545e-14
1.43336e-14
1.35684e-14
1.28844e-14
1.23196e-14
1.19365e-14
1.1848e-14
1.22687e-14
1.36455e-14
1.69237e-14
2.38605e-14
3.90322e-14
7.73354e-14
2.07464e-13
9.99201e-13
9.99201e-13
2.07502e-13
7.77828e-14
4.09608e-14
2.88255e-14
2.36993e-14
2.14556e-14
2.06668e-14
2.06929e-14
2.12038e-14
2.20068e-14
2.29824e-14
2.40529e-14
2.51657e-14
2.62851e-14
2.73855e-14
2.84468e-14
2.9452e-14
3.03869e-14
3.12401e-14
3.20034e-14
3.26723e-14
3.32447e-14
3.3721e-14
3.41033e-14
3.43948e-14
3.45998e-14
3.47214e-14
3.47655e-14
3.47392e-14
3.46453e-14
3.44884e-14
3.42725e-14
3.40012e-14
3.36778e-14
3.3305e-14
3.28853e-14
3.24207e-14
3.19129e-14
3.13636e-14
3.07743e-14
3.01465e-14
2.94821e-14
2.87831e-14
2.80525e-14
2.72933e-14
2.65093e-14
2.57041e-14
2.48805e-14
2.40402e-14
2.31836e-14
2.23113e-14
2.14238e-14
2.05229e-14
1.96115e-14
1.86939e-14
1.77762e-14
1.68661e-14
1.59719e-14
1.51023e-14
1.42667e-14
1.34768e-14
1.27503e-14
1.21135e-14
1.16068e-14
1.12965e-14
1.12928e-14
1.18029e-14
1.32376e-14
1.65105e-14
2.35589e-14
3.88757e-14
7.72873e-14
2.07461e-13
9.99201e-13
9.99201e-13
2.07545e-13
7.81885e-14
4.28848e-14
3.07864e-14
2.54034e-14
2.28497e-14
2.17635e-14
2.15269e-14
2.18138e-14
2.24324e-14
2.32593e-14
2.42106e-14
2.52282e-14
2.62703e-14
2.73053e-14
2.831e-14
2.92651e-14
3.01555e-14
3.09692e-14
3.16981e-14
3.23369e-14
3.28831e-14
3.33367e-14
3.36991e-14
3.39733e-14
3.41631e-14
3.42711e-14
3.43042e-14
3.42683e-14
3.41665e-14
3.40034e-14
3.3783e-14
3.35088e-14
3.31842e-14
3.28118e-14
3.23941e-14
3.19332e-14
3.14308e-14
3.08883e-14
3.0307e-14
2.96884e-14
2.9034e-14
2.83455e-14
2.76251e-14
2.68752e-14
2.60985e-14
2.52978e-14
2.44755e-14
2.36336e-14
2.27737e-14
2.18975e-14
2.10068e-14
2.01044e-14
1.91938e-14
1.82797e-14
1.73681e-14
1.64662e-14
1.55821e-14
1.47253e-14
1.39066e-14
1.31403e-14
1.24457e-14
1.18511e-14
1.13989e-14
1.11568e-14
1.12325e-14
1.18225e-14
1.33029e-14
1.64921e-14
2.35051e-14
3.88394e-14
7.72769e-14
2.07462e-13
9.99201e-13
9.99201e-13
2.07601e-13
7.86927e-14
4.51165e-14
3.29972e-14
2.73652e-14
2.45363e-14
2.31914e-14
2.27282e-14
2.28206e-14
2.32773e-14
2.39714e-14
2.48157e-14
2.57477e-14
2.6721e-14
2.77008e-14
2.86594e-14
2.95755e-14
3.04322e-14
3.12167e-14
3.192e-14
3.25365e-14
3.30632e-14
3.34994e-14
3.38463e-14
3.41066e-14
3.42839e-14
3.43802e-14
3.44037e-14
3.43591e-14
3.425e-14
3.40807e-14
3.38555e-14
3.35777e-14
3.32508e-14
3.28774e-14
3.24598e-14
3.2e-14
3.14995e-14
3.09598e-14
3.03819e-14
2.9767e-14
2.91163e-14
2.84312e-14
2.77133e-14
2.69645e-14
2.61869e-14
2.53828e-14
2.45543e-14
2.37037e-14
2.28332e-14
2.19452e-14
2.10426e-14
2.01288e-14
1.92079e-14
1.82853e-14
1.73672e-14
1.64611e-14
1.55756e-14
1.47209e-14
1.39093e-14
1.31566e-14
1.24841e-14
1.19215e-14
1.15127e-14
1.13253e-14
1.14645e-14
1.21177e-14
1.36378e-14
1.67929e-14
2.36019e-14
3.88655e-14
7.72842e-14
2.07466e-13
9.99201e-13
9.99201e-13
2.07666e-13
7.92585e-14
4.73979e-14
3.53249e-14
2.94883e-14
2.642e-14
2.48487e-14
2.4187e-14
2.41104e-14
2.4426e-14
2.50054e-14
2.5758e-14
2.66172e-14
2.7533e-14
2.84665e-14
2.93876e-14
3.02724e-14
3.11027e-14
3.18647e-14
3.25486e-14
3.3148e-14
3.36594e-14
3.40818e-14
3.44161e-14
3.46648e-14
3.48314e-14
3.49175e-14
3.49325e-14
3.48801e-14
3.47642e-14
3.45893e-14
3.43594e-14
3.40782e-14
3.37488e-14
3.33739e-14
3.29556e-14
3.24956e-14
3.19954e-14
3.1456e-14
3.08785e-14
3.02637e-14
2.96125e-14
2.8926e-14
2.82052e-14
2.74517e-14
2.66671e-14
2.58534e-14
2.50126e-14
2.41471e-14
2.32595e-14
2.23528e-14
2.14305e-14
2.04966e-14
1.9556e-14
1.86145e-14
1.76791e-14
1.67576e-14
1.58595e-14
1.49959e-14
1.41802e-14
1.34298e-14
1.27671e-14
1.22232e-14
1.18431e-14
1.16934e-14
1.18769e-14
1.25732e-14
1.41159e-14
1.72252e-14
2.37816e-14
3.89273e-14
7.73013e-14
2.07471e-13
9.99201e-13
9.99201e-13
2.07767e-13
8.00833e-14
4.98125e-14
3.77816e-14
3.17478e-14
2.84554e-14
2.66773e-14
2.58367e-14
2.56116e-14
2.5804e-14
2.62843e-14
2.69583e-14
2.77561e-14
2.86241e-14
2.95206e-14
3.04125e-14
3.12742e-14
3.20857e-14
3.28319e-14
3.35021e-14
3.40894e-14
3.45896e-14
3.50016e-14
3.5326e-14
3.55652e-14
3.57227e-14
3.57998e-14
3.58073e-14
3.57477e-14
3.56254e-14
3.5445e-14
3.52104e-14
3.49255e-14
3.45932e-14
3.4216e-14
3.3796e-14
3.33348e-14
3.28334e-14
3.22928e-14
3.17136e-14
3.10964e-14
3.04416e-14
2.97499e-14
2.90222e-14
2.82595e-14
2.74631e-14
2.66348e-14
2.57765e-14
2.48907e-14
2.39802e-14
2.30485e-14
2.20995e-14
2.11379e-14
2.01692e-14
1.91999e-14
1.82375e-14
1.72906e-14
1.63695e-14
1.54863e-14
1.46555e-14
1.38954e-14
1.32298e-14
1.26908e-14
1.23241e-14
1.21951e-14
1.24049e-14
1.31263e-14
1.46771e-14
1.7733e-14
2.40354e-14
3.90204e-14
7.73263e-14
2.07478e-13
9.99201e-13
9.99201e-13
2.08025e-13
8.24581e-14
5.27083e-14
4.04591e-14
3.41536e-14
3.06209e-14
2.86411e-14
2.76344e-14
2.72762e-14
2.73605e-14
2.77554e-14
2.83631e-14
2.91102e-14
2.99399e-14
3.08076e-14
3.1678e-14
3.25232e-14
3.33217e-14
3.40574e-14
3.47185e-14
3.52973e-14
3.57896e-14
3.61937e-14
3.65104e-14
3.67419e-14
3.68915e-14
3.69608e-14
3.69617e-14
3.68957e-14
3.67677e-14
3.65822e-14
3.63435e-14
3.60551e-14
3.57199e-14
3.53405e-14
3.49186e-14
3.44556e-14
3.39523e-14
3.34093e-14
3.28269e-14
3.22053e-14
3.15446e-14
3.08451e-14
3.01073e-14
2.93318e-14
2.85198e-14
2.76726e-14
2.67924e-14
2.58816e-14
2.49431e-14
2.39808e-14
2.2999e-14
2.2003e-14
2.09988e-14
1.99936e-14
1.89956e-14
1.80143e-14
1.70605e-14
1.61475e-14
1.52907e-14
1.45095e-14
1.38287e-14
1.3281e-14
1.29129e-14
1.27892e-14
1.30095e-14
1.37426e-14
1.52956e-14
1.8316e-14
2.44521e-14
3.91594e-14
7.73609e-14
2.07485e-13
9.99201e-13
9.99201e-13
2.08475e-13
8.64776e-14
5.61217e-14
4.33586e-14
3.66916e-14
3.28941e-14
3.07126e-14
2.95488e-14
2.90697e-14
2.90591e-14
2.9381e-14
2.99335e-14
3.06399e-14
3.14401e-14
3.22868e-14
3.31423e-14
3.39771e-14
3.47679e-14
3.54975e-14
3.61532e-14
3.67269e-14
3.72139e-14
3.76123e-14
3.79229e-14
3.81481e-14
3.82908e-14
3.83536e-14
3.83485e-14
3.82768e-14
3.81436e-14
3.79537e-14
3.77112e-14
3.74196e-14
3.70819e-14
3.67003e-14
3.62764e-14
3.58113e-14
3.53055e-14
3.47593e-14
3.41726e-14
3.35451e-14
3.28767e-14
3.21673e-14
3.14168e-14
3.06258e-14
2.9795e-14
2.89257e-14
2.80198e-14
2.70798e-14
2.61089e-14
2.51111e-14
2.40912e-14
2.30548e-14
2.20087e-14
2.09605e-14
1.99192e-14
1.8895e-14
1.78997e-14
1.69473e-14
1.60544e-14
1.52411e-14
1.45332e-14
1.39642e-14
1.35811e-14
1.34488e-14
1.36659e-14
1.43991e-14
1.59505e-14
1.89521e-14
2.50008e-14
3.93366e-14
7.74041e-14
2.07493e-13
9.99201e-13
9.99201e-13
2.08963e-13
9.06519e-14
5.96847e-14
4.6365e-14
3.93129e-14
3.52448e-14
3.28664e-14
3.15551e-14
3.09654e-14
3.08727e-14
3.11327e-14
3.16404e-14
3.23151e-14
3.30939e-14
3.39267e-14
3.47737e-14
3.56033e-14
3.6391e-14
3.71183e-14
3.7772e-14
3.83432e-14
3.8827e-14
3.92216e-14
3.95275e-14
3.97475e-14
3.98842e-14
3.99414e-14
3.99309e-14
3.98541e-14
3.97163e-14
3.95223e-14
3.92763e-14
3.89819e-14
3.86418e-14
3.82581e-14
3.78322e-14
3.73648e-14
3.68562e-14
3.63061e-14
3.57142e-14
3.50799e-14
3.44024e-14
3.36813e-14
3.29163e-14
3.21075e-14
3.12554e-14
3.03612e-14
2.94265e-14
2.84541e-14
2.7447e-14
2.64095e-14
2.53468e-14
2.4265e-14
2.31711e-14
2.20737e-14
2.09821e-14
1.99075e-14
1.88626e-14
1.78621e-14
1.69234e-14
1.60679e-14
1.5322e-14
1.472e-14
1.43093e-14
1.4156e-14
1.43571e-14
1.50791e-14
1.66204e-14
1.96009e-14
2.55679e-14
3.95251e-14
7.74507e-14
2.07502e-13
9.99201e-13
9.99201e-13
2.09437e-13
9.46675e-14
6.32163e-14
4.93873e-14
4.19695e-14
3.76433e-14
3.50797e-14
3.36328e-14
3.2944e-14
3.27803e-14
3.29888e-14
3.34611e-14
3.41126e-14
3.48773e-14
3.57027e-14
3.65466e-14
3.73759e-14
3.81645e-14
3.8893e-14
3.95474e-14
4.01184e-14
4.06008e-14
4.09929e-14
4.12953e-14
4.1511e-14
4.16424e-14
4.16947e-14
4.16791e-14
4.15976e-14
4.14555e-14
4.12578e-14
4.10087e-14
4.07117e-14
4.03694e-14
3.99837e-14
3.95557e-14
3.90859e-14
3.85741e-14
3.80197e-14
3.7422e-14
3.67798e-14
3.60922e-14
3.53582e-14
3.45772e-14
3.37489e-14
3.28737e-14
3.19523e-14
3.09866e-14
2.99789e-14
2.89326e-14
2.78521e-14
2.67427e-14
2.5611e-14
2.44645e-14
2.33123e-14
2.21645e-14
2.10328e-14
1.99308e-14
1.8874e-14
1.7881e-14
1.69739e-14
1.61799e-14
1.55341e-14
1.50846e-14
1.48988e-14
1.50724e-14
1.57717e-14
1.7292e-14
2.02415e-14
2.61198e-14
3.97118e-14
7.74975e-14
2.07511e-13
9.99201e-13
9.99201e-13
2.09886e-13
9.84606e-14
6.66463e-14
5.23752e-14
4.46282e-14
4.00669e-14
3.73348e-14
3.5766e-14
3.49899e-14
3.47659e-14
3.49325e-14
3.53777e-14
3.60136e-14
3.67709e-14
3.75946e-14
3.84404e-14
3.92735e-14
4.00666e-14
4.07991e-14
4.14565e-14
4.20291e-14
4.25116e-14
4.29023e-14
4.32021e-14
4.34141e-14
4.35408e-14
4.35886e-14
4.35683e-14
4.34823e-14
4.33362e-14
4.31349e-14
4.28829e-14
4.25833e-14
4.22389e-14
4.18512e-14
4.14211e-14
4.09487e-14
4.04335e-14
3.98745e-14
3.92704e-14
3.86199e-14
3.79214e-14
3.71736e-14
3.63756e-14
3.55267e-14
3.46269e-14
3.36769e-14
3.26782e-14
3.16333e-14
3.05455e-14
2.94192e-14
2.82601e-14
2.70749e-14
2.58718e-14
2.46601e-14
2.34507e-14
2.2256e-14
2.10903e-14
1.99702e-14
1.89148e-14
1.79474e-14
1.70962e-14
1.63972e-14
1.58985e-14
1.56702e-14
1.58057e-14
1.64718e-14
1.79603e-14
2.08678e-14
2.66495e-14
3.98928e-14
7.75435e-14
2.0752e-13
9.99201e-13
9.99201e-13
2.10307e-13
1.02026e-13
6.99517e-14
5.5306e-14
4.72713e-14
4.25018e-14
3.96198e-14
3.79434e-14
3.70915e-14
3.68169e-14
3.69501e-14
3.73759e-14
3.80027e-14
3.87584e-14
3.95854e-14
4.04375e-14
4.12781e-14
4.20785e-14
4.28175e-14
4.34798e-14
4.40555e-14
4.45392e-14
4.49293e-14
4.5227e-14
4.54357e-14
4.5558e-14
4.56015e-14
4.55766e-14
4.54863e-14
4.53362e-14
4.51315e-14
4.48765e-14
4.45745e-14
4.4228e-14
4.38383e-14
4.34059e-14
4.29308e-14
4.2412e-14
4.18481e-14
4.12375e-14
4.05782e-14
3.98684e-14
3.91064e-14
3.82908e-14
3.74205e-14
3.64954e-14
3.55159e-14
3.44833e-14
3.33998e-14
3.22688e-14
3.10949e-14
2.98838e-14
2.86425e-14
2.73794e-14
2.61044e-14
2.48289e-14
2.35661e-14
2.2331e-14
2.11409e-14
2.00162e-14
1.89808e-14
1.8064e-14
1.73029e-14
1.67462e-14
1.64663e-14
1.65547e-14
1.71786e-14
1.86265e-14
2.14833e-14
2.7162e-14
4.00704e-14
7.7589e-14
2.07529e-13
9.99201e-13
9.99201e-13
2.10701e-13
1.05374e-13
7.31308e-14
5.81748e-14
4.98935e-14
4.49423e-14
4.19285e-14
4.01579e-14
3.92404e-14
3.89236e-14
3.90307e-14
3.94435e-14
4.00669e-14
4.0826e-14
4.16606e-14
4.25226e-14
4.33736e-14
4.41839e-14
4.49312e-14
4.55999e-14
4.61798e-14
4.66656e-14
4.70556e-14
4.73516e-14
4.75572e-14
4.76751e-14
4.77143e-14
4.76849e-14
4.75901e-14
4.7436e-14
4.72278e-14
4.69698e-14
4.66653e-14
4.63166e-14
4.59248e-14
4.54902e-14
4.50123e-14
4.44898e-14
4.3921e-14
4.33037e-14
4.26357e-14
4.19145e-14
4.11382e-14
4.03048e-14
3.94132e-14
3.84626e-14
3.74533e-14
3.63862e-14
3.52636e-14
3.40888e-14
3.28661e-14
3.16014e-14
3.0302e-14
2.89766e-14
2.76353e-14
2.62901e-14
2.49549e-14
2.36453e-14
2.23796e-14
2.11791e-14
2.00687e-14
1.9079e-14
1.82479e-14
1.76252e-14
1.72857e-14
1.73196e-14
1.78945e-14
1.92963e-14
2.20986e-14
2.76733e-14
4.02567e-14
7.76368e-14
2.07538e-13
9.99201e-13
9.99201e-13
2.11067e-13
1.08523e-13
7.61962e-14
6.09907e-14
5.25004e-14
4.73907e-14
4.42601e-14
4.24057e-14
4.14307e-14
4.10783e-14
4.11651e-14
4.15701e-14
4.21948e-14
4.29613e-14
4.38071e-14
4.46818e-14
4.55457e-14
4.63677e-14
4.7125e-14
4.78012e-14
4.8386e-14
4.88742e-14
4.92645e-14
4.95588e-14
4.97613e-14
4.98748e-14
4.99096e-14
4.98754e-14
4.9776e-14
4.96176e-14
4.94058e-14
4.91446e-14
4.88376e-14
4.84866e-14
4.80927e-14
4.76558e-14
4.71752e-14
4.66492e-14
4.60756e-14
4.54518e-14
4.47752e-14
4.40431e-14
4.32527e-14
4.24021e-14
4.14895e-14
4.05138e-14
3.94751e-14
3.8374e-14
3.72124e-14
3.59936e-14
3.47219e-14
3.34031e-14
3.20445e-14
3.06551e-14
2.92453e-14
2.78277e-14
2.64165e-14
2.50282e-14
2.3682e-14
2.24001e-14
2.12085e-14
2.0139e-14
1.92308e-14
1.85351e-14
1.81283e-14
1.81018e-14
1.86232e-14
1.99775e-14
2.273e-14
2.82161e-14
4.04997e-14
7.76994e-14
2.07549e-13
9.99201e-13
9.99201e-13
2.11406e-13
1.11507e-13
7.91806e-14
6.37797e-14
5.51091e-14
4.98562e-14
4.66178e-14
4.46858e-14
4.36584e-14
4.32749e-14
4.33455e-14
4.37465e-14
4.4376e-14
4.5153e-14
4.60126e-14
4.69024e-14
4.7781e-14
4.86163e-14
4.93844e-14
5.00688e-14
5.0659e-14
5.11499e-14
5.15404e-14
5.18328e-14
5.20321e-14
5.21407e-14
5.21709e-14
5.21316e-14
5.20273e-14
5.18645e-14
5.16487e-14
5.13843e-14
5.10745e-14
5.07213e-14
5.03253e-14
4.98863e-14
4.94032e-14
4.88739e-14
4.8296e-14
4.76663e-14
4.69818e-14
4.62393e-14
4.54359e-14
4.45689e-14
4.36363e-14
4.26367e-14
4.15696e-14
4.04354e-14
3.92359e-14
3.79739e-14
3.66536e-14
3.52807e-14
3.38627e-14
3.24086e-14
3.09291e-14
2.9437e-14
2.79471e-14
2.64768e-14
2.50459e-14
2.36775e-14
2.23992e-14
2.12436e-14
2.02518e-14
1.94765e-14
1.89952e-14
1.89033e-14
1.93678e-14
2.06761e-14
2.33929e-14
2.88431e-14
4.10268e-14
7.7816e-14
2.07567e-13
9.99201e-13
9.99201e-13
2.11736e-13
1.14411e-13
8.21579e-14
6.65913e-14
5.77483e-14
5.23535e-14
4.90074e-14
4.69987e-14
4.59204e-14
4.55077e-14
4.55647e-14
4.59642e-14
4.66008e-14
4.73905e-14
4.82658e-14
4.91722e-14
5.00668e-14
5.09162e-14
5.16958e-14
5.23887e-14
5.29844e-14
5.34778e-14
5.38683e-14
5.41586e-14
5.43541e-14
5.44575e-14
5.44826e-14
5.44379e-14
5.43284e-14
5.41608e-14
5.3941e-14
5.36732e-14
5.33607e-14
5.30052e-14
5.26073e-14
5.21666e-14
5.16815e-14
5.11496e-14
5.0568e-14
4.99333e-14
4.9242e-14
4.84905e-14
4.76754e-14
4.67936e-14
4.58427e-14
4.48208e-14
4.3727e-14
4.25615e-14
4.13256e-14
4.00218e-14
3.86542e-14
3.72283e-14
3.57515e-14
3.42326e-14
3.26828e-14
3.11151e-14
2.95447e-14
2.79896e-14
2.64704e-14
2.50114e-14
2.36412e-14
2.2394e-14
2.13123e-14
2.04509e-14
1.98884e-14
1.97259e-14
2.01292e-14
2.13909e-14
2.40789e-14
2.95171e-14
4.16639e-14
7.79624e-14
2.07588e-13
9.99201e-13
9.99201e-13
2.12269e-13
1.17503e-13
8.52834e-14
6.95036e-14
6.04553e-14
5.48992e-14
5.14351e-14
4.93445e-14
4.82134e-14
4.77714e-14
4.78153e-14
4.82145e-14
4.88597e-14
4.96634e-14
5.05556e-14
5.14796e-14
5.23907e-14
5.32546e-14
5.40459e-14
5.47473e-14
5.53482e-14
5.58437e-14
5.62337e-14
5.65214e-14
5.67127e-14
5.68102e-14
5.683e-14
5.67793e-14
5.66643e-14
5.64918e-14
5.62677e-14
5.59965e-14
5.56814e-14
5.5324e-14
5.49248e-14
5.44829e-14
5.39965e-14
5.3463e-14
5.2879e-14
5.22408e-14
5.15443e-14
5.07856e-14
4.99607e-14
4.90662e-14
4.80991e-14
4.70573e-14
4.59393e-14
4.47448e-14
4.34748e-14
4.21315e-14
4.07185e-14
3.92413e-14
3.77068e-14
3.61241e-14
3.45043e-14
3.28604e-14
3.12084e-14
2.95665e-14
2.79563e-14
2.6403e-14
2.49363e-14
2.35922e-14
2.24148e-14
2.14609e-14
2.08104e-14
2.05713e-14
2.0908e-14
2.21189e-14
2.47762e-14
3.02029e-14
4.23126e-14
7.81166e-14
2.07612e-13
9.99201e-13
9.99201e-13
2.16938e-13
1.21664e-13
8.88123e-14
7.26013e-14
6.32607e-14
5.7504e-14
5.39029e-14
5.17212e-14
5.05327e-14
5.00596e-14
5.009e-14
5.04892e-14
5.11432e-14
5.19616e-14
5.2871e-14
5.38128e-14
5.47406e-14
5.56189e-14
5.64216e-14
5.7131e-14
5.77366e-14
5.82337e-14
5.86226e-14
5.89071e-14
5.90933e-14
5.91844e-14
5.91984e-14
5.91415e-14
5.90207e-14
5.88431e-14
5.86149e-14
5.83405e-14
5.80232e-14
5.76645e-14
5.72646e-14
5.68226e-14
5.63363e-14
5.58026e-14
5.5218e-14
5.45781e-14
5.38786e-14
5.3115e-14
5.2283e-14
5.13785e-14
5.03982e-14
4.93394e-14
4.82001e-14
4.69797e-14
4.56785e-14
4.42984e-14
4.28427e-14
4.13164e-14
3.97263e-14
3.80813e-14
3.63923e-14
3.46727e-14
3.29385e-14
3.12086e-14
2.95052e-14
2.78544e-14
2.62874e-14
2.48415e-14
2.35627e-14
2.25101e-14
2.17646e-14
2.14424e-14
2.17054e-14
2.28588e-14
2.54787e-14
3.08862e-14
4.29494e-14
7.82702e-14
2.07636e-13
9.99201e-13
9.99201e-13
2.24909e-13
1.26816e-13
9.27309e-14
7.58799e-14
6.61606e-14
6.01636e-14
5.64059e-14
5.4123e-14
5.28721e-14
5.23652e-14
5.23809e-14
5.27793e-14
5.3442e-14
5.42746e-14
5.52011e-14
5.61603e-14
5.71044e-14
5.79964e-14
5.88098e-14
5.95265e-14
6.0136e-14
6.06339e-14
6.10209e-14
6.13015e-14
6.14818e-14
6.15661e-14
6.1574e-14
6.15106e-14
6.13839e-14
6.12014e-14
6.09693e-14
6.06923e-14
6.03735e-14
6.00144e-14
5.96152e-14
5.91746e-14
5.86901e-14
5.81583e-14
5.75753e-14
5.69364e-14
5.62367e-14
5.54713e-14
5.46353e-14
5.37242e-14
5.27341e-14
5.16618e-14
5.05049e-14
4.9262e-14
4.79331e-14
4.65196e-14
4.50243e-14
4.34519e-14
4.18087e-14
4.01034e-14
3.83468e-14
3.65524e-14
3.47362e-14
3.29176e-14
3.11194e-14
2.93688e-14
2.76979e-14
2.61457e-14
2.47602e-14
2.36027e-14
2.27552e-14
2.23428e-14
2.25245e-14
2.36123e-14
2.61861e-14
3.15647e-14
4.35713e-14
7.84214e-14
2.0766e-13
9.99201e-13
9.99201e-13
2.33042e-13
1.32222e-13
9.68209e-14
7.92614e-14
6.91218e-14
6.28607e-14
5.8933e-14
5.65413e-14
5.52234e-14
5.46801e-14
5.46794e-14
5.50758e-14
5.57462e-14
5.65923e-14
5.75348e-14
5.85106e-14
5.94698e-14
6.03746e-14
6.11976e-14
6.19205e-14
6.25329e-14
6.30306e-14
6.34149e-14
6.36908e-14
6.38644e-14
6.39415e-14
6.39431e-14
6.38733e-14
6.37408e-14
6.35537e-14
6.33184e-14
6.30397e-14
6.27206e-14
6.23628e-14
6.1966e-14
6.15289e-14
6.10486e-14
6.05215e-14
5.99432e-14
5.93085e-14
5.86121e-14
5.78485e-14
5.70124e-14
5.60987e-14
5.5103e-14
5.40212e-14
5.28507e-14
5.15894e-14
5.02367e-14
4.87936e-14
4.72622e-14
4.56468e-14
4.39535e-14
4.21905e-14
4.03684e-14
3.85006e-14
3.66032e-14
3.46959e-14
3.2802e-14
3.09495e-14
2.91718e-14
2.75093e-14
2.60119e-14
2.47431e-14
2.37875e-14
2.32772e-14
2.33692e-14
2.43827e-14
2.69012e-14
3.22408e-14
4.41815e-14
7.85705e-14
2.07685e-13
9.99201e-13
9.99201e-13
2.40919e-13
1.376e-13
1.00937e-13
8.2673e-14
7.2106e-14
6.55732e-14
6.14696e-14
5.8965e-14
5.75773e-14
5.69951e-14
5.69765e-14
5.73695e-14
5.8046e-14
5.8904e-14
5.98612e-14
6.08519e-14
6.18248e-14
6.27409e-14
6.35721e-14
6.42999e-14
6.49139e-14
6.54103e-14
6.57909e-14
6.60614e-14
6.62277e-14
6.62976e-14
6.62927e-14
6.62166e-14
6.6079e-14
6.58881e-14
6.56507e-14
6.53717e-14
6.50542e-14
6.46996e-14
6.43078e-14
6.38769e-14
6.3404e-14
6.28851e-14
6.23152e-14
6.16887e-14
6.09999e-14
6.02426e-14
5.9411e-14
5.84993e-14
5.75025e-14
5.6416e-14
5.52363e-14
5.3961e-14
5.25888e-14
5.112e-14
4.95564e-14
4.79016e-14
4.61613e-14
4.43434e-14
4.24582e-14
4.05188e-14
3.85415e-14
3.65459e-14
3.4556e-14
3.26003e-14
3.07133e-14
2.89369e-14
2.73229e-14
2.59372e-14
2.48671e-14
2.42499e-14
2.42445e-14
2.51748e-14
2.76284e-14
3.29193e-14
4.47846e-14
7.87184e-14
2.07711e-13
9.99201e-13
9.99201e-13
2.48486e-13
1.42859e-13
1.05006e-13
8.60661e-14
7.50818e-14
6.82803e-14
6.40011e-14
6.13828e-14
5.99239e-14
5.93009e-14
5.9263e-14
5.96506e-14
6.03314e-14
6.11992e-14
6.2169e-14
6.31727e-14
6.41573e-14
6.50828e-14
6.59204e-14
6.66515e-14
6.72657e-14
6.77597e-14
6.81357e-14
6.84001e-14
6.85588e-14
6.86219e-14
6.86104e-14
6.85287e-14
6.83868e-14
6.81934e-14
6.79555e-14
6.76782e-14
6.73646e-14
6.70162e-14
6.66325e-14
6.62115e-14
6.575e-14
6.52435e-14
6.46866e-14
6.40733e-14
6.33971e-14
6.26513e-14
6.18294e-14
6.09251e-14
5.99324e-14
5.88462e-14
5.76624e-14
5.63777e-14
5.49905e-14
5.35002e-14
5.19081e-14
5.02175e-14
4.84336e-14
4.65636e-14
4.46178e-14
4.26089e-14
4.05531e-14
3.84702e-14
3.63843e-14
3.43245e-14
3.23264e-14
3.04331e-14
2.86984e-14
2.71905e-14
2.59997e-14
2.52659e-14
2.51563e-14
2.5994e-14
2.83731e-14
3.36051e-14
4.53854e-14
7.88663e-14
2.07737e-13
9.99201e-13
9.99201e-13
2.55738e-13
1.4797e-13
1.08995e-13
8.94112e-14
7.80267e-14
7.09651e-14
6.65143e-14
6.37836e-14
6.22534e-14
6.15885e-14
6.15295e-14
6.19096e-14
6.25922e-14
6.34674e-14
6.44471e-14
6.54612e-14
6.64551e-14
6.73877e-14
6.82297e-14
6.89623e-14
6.95753e-14
7.00657e-14
7.04363e-14
7.06941e-14
7.08452e-14
7.0902e-14
7.08844e-14
7.07979e-14
7.06532e-14
7.04592e-14
7.02231e-14
6.99502e-14
6.96438e-14
6.9305e-14
6.89335e-14
6.85269e-14
6.80816e-14
6.75928e-14
6.70544e-14
6.646e-14
6.58023e-14
6.50741e-14
6.42679e-14
6.33768e-14
6.23941e-14
6.13138e-14
6.01311e-14
5.88421e-14
5.74443e-14
5.59367e-14
5.43201e-14
5.25971e-14
5.07725e-14
4.88534e-14
4.68494e-14
4.4773e-14
4.26404e-14
4.04711e-14
3.82896e-14
3.61254e-14
3.40148e-14
3.20023e-14
3.01432e-14
2.85081e-14
2.71904e-14
2.63316e-14
2.61102e-14
2.6846e-14
2.91405e-14
3.43035e-14
4.59889e-14
7.90152e-14
2.07764e-13
9.99201e-13
9.99201e-13
2.62679e-13
1.52919e-13
1.12884e-13
9.26905e-14
8.09248e-14
7.36141e-14
6.89977e-14
6.61575e-14
6.45564e-14
6.38486e-14
6.37669e-14
6.4137e-14
6.48186e-14
6.5698e-14
6.66846e-14
6.77061e-14
6.87064e-14
6.96435e-14
7.04876e-14
7.12198e-14
7.18301e-14
7.23158e-14
7.26803e-14
7.29313e-14
7.30751e-14
7.31261e-14
7.31035e-14
7.30139e-14
7.28683e-14
7.26761e-14
7.24449e-14
7.21799e-14
7.18845e-14
7.15599e-14
7.12055e-14
7.08187e-14
7.03954e-14
6.99303e-14
6.9417e-14
6.88481e-14
6.82158e-14
6.7512e-14
6.67285e-14
6.58573e-14
6.48909e-14
6.38226e-14
6.26467e-14
6.13584e-14
5.99547e-14
5.84339e-14
5.67963e-14
5.50441e-14
5.31816e-14
5.12156e-14
4.91554e-14
4.70134e-14
4.48054e-14
4.25509e-14
4.02744e-14
3.80057e-14
3.57818e-14
3.3648e-14
3.16614e-14
2.98948e-14
2.84444e-14
2.74527e-14
2.71119e-14
2.77363e-14
2.99361e-14
3.50193e-14
4.65993e-14
7.91661e-14
2.07791e-13
9.99201e-13
9.99201e-13
2.69312e-13
1.57699e-13
1.16663e-13
9.58921e-14
8.37648e-14
7.62169e-14
7.14417e-14
6.84953e-14
6.68242e-14
6.60726e-14
6.59662e-14
6.63235e-14
6.70007e-14
6.78808e-14
6.88707e-14
6.9896e-14
7.08995e-14
7.18382e-14
7.26819e-14
7.34117e-14
7.40177e-14
7.44977e-14
7.48557e-14
7.50999e-14
7.52372e-14
7.52834e-14
7.52574e-14
7.51668e-14
7.5023e-14
7.48359e-14
7.46132e-14
7.43604e-14
7.40809e-14
7.37759e-14
7.34444e-14
7.30837e-14
7.26892e-14
7.22551e-14
7.17743e-14
7.12386e-14
7.06395e-14
6.9968e-14
6.92147e-14
6.83709e-14
6.7428e-14
6.63783e-14
6.5215e-14
6.39329e-14
6.25279e-14
6.09979e-14
5.93426e-14
5.75638e-14
5.56655e-14
5.36544e-14
5.15394e-14
4.93329e-14
4.70504e-14
4.47115e-14
4.23405e-14
3.99674e-14
3.76295e-14
3.53732e-14
3.32566e-14
3.13547e-14
2.97665e-14
2.86347e-14
2.8167e-14
2.86705e-14
3.0765e-14
3.57571e-14
4.72203e-14
7.932e-14
2.0782e-13
9.99201e-13
9.99201e-13
2.75638e-13
1.62304e-13
1.20325e-13
9.90076e-14
8.65379e-14
7.87649e-14
7.38381e-14
7.0789e-14
6.90488e-14
6.82522e-14
6.81187e-14
6.846e-14
6.9129e-14
7.00058e-14
7.09948e-14
7.20201e-14
7.30232e-14
7.39603e-14
7.4801e-14
7.55263e-14
7.61265e-14
7.66e-14
7.69513e-14
7.71892e-14
7.73211e-14
7.73641e-14
7.73369e-14
7.72481e-14
7.71095e-14
7.69314e-14
7.67217e-14
7.64863e-14
7.62284e-14
7.59492e-14
7.56475e-14
7.53201e-14
7.49623e-14
7.45673e-14
7.41274e-14
7.36338e-14
7.30767e-14
7.24461e-14
7.17318e-14
7.09237e-14
7.00121e-14
6.89881e-14
6.78441e-14
6.65737e-14
6.51721e-14
6.36366e-14
6.19665e-14
6.01631e-14
5.82305e-14
5.6175e-14
5.40057e-14
5.1735e-14
4.93782e-14
4.6955e-14
4.44895e-14
4.2012e-14
3.95598e-14
3.71797e-14