/*--------------------------------*- C++ -*----------------------------------*\
  =========                 |
  \\      /  F ield         | OpenFOAM: The Open Source CFD Toolbox
   \\    /   O peration     | Website:  https://openfoam.org
    \\  /    A nd           | Version:  12
     \\/     M anipulation  |
\*---------------------------------------------------------------------------*/
FoamFile
{
    format      ascii;
    class       volScalarField;
    location    "0.4";
    object      k;
}
// * * * * * * * * * * * * * * * * * * * * * * * * * * * * * * * * * * * * * //

dimensions      [0 2 -2 0 0 0 0];

internalField   nonuniform List<scalar> 
900
(
2.22045e-16
2.22045e-16
2.22045e-16
2.22045e-16
2.22045e-16
2.22045e-16
2.22045e-16
2.22045e-16
2.22045e-16
2.22045e-16
2.22045e-16
2.22045e-16
2.22045e-16
2.22045e-16
2.22045e-16
2.22045e-16
2.22045e-16
2.22045e-16
2.22045e-16
2.22045e-16
2.22045e-16
2.22045e-16
2.22045e-16
2.22045e-16
2.22045e-16
2.22045e-16
2.22045e-16
2.22045e-16
2.22045e-16
2.22045e-16
2.22045e-16
2.22045e-16
2.22045e-16
2.22045e-16
2.22045e-16
2.22045e-16
2.22045e-16
2.22045e-16
2.22045e-16
2.22045e-16
2.22045e-16
2.22045e-16
2.22045e-16
2.22045e-16
2.22045e-16
2.22045e-16
2.22045e-16
2.22045e-16
2.22045e-16
2.22045e-16
2.22045e-16
2.22045e-16
2.22045e-16
2.22045e-16
2.22045e-16
2.22045e-16
2.22045e-16
2.22045e-16
2.22045e-16
2.22045e-16
2.22045e-16
2.22045e-16
2.22045e-16
2.22045e-16
2.22045e-16
2.22045e-16
2.22045e-16
2.22045e-16
2.2552e-16
2.55345e-16
2.8409e-16
3.09259e-16
3.29282e-16
3.43134e-16
3.50183e-16
3.50126e-16
3.42967e-16
3.29019e-16
3.08921e-16
2.83706e-16
2.54954e-16
2.25172e-16
2.22045e-16
2.22045e-16
2.22045e-16
2.22045e-16
2.22045e-16
2.22045e-16
2.22045e-16
2.22045e-16
2.22045e-16
2.22045e-16
2.22045e-16
2.22045e-16
2.22045e-16
2.22408e-16
2.85737e-16
3.54377e-16
4.23656e-16
4.89845e-16
5.49681e-16
6.00528e-16
6.40355e-16
6.67675e-16
6.81514e-16
6.81394e-16
6.67323e-16
6.39797e-16
5.99805e-16
5.48847e-16
4.88964e-16
4.22794e-16
3.536e-16
2.85094e-16
2.22045e-16
2.22045e-16
2.22045e-16
2.22045e-16
2.22045e-16
2.22045e-16
2.22045e-16
2.22045e-16
2.22045e-16
2.22045e-16
2.27041e-16
3.2582e-16
4.37426e-16
5.52937e-16
6.65967e-16
7.71514e-16
8.6549e-16
9.44568e-16
1.00611e-15
1.04815e-15
1.06939e-15
1.06918e-15
1.04753e-15
1.00512e-15
9.43279e-16
8.63995e-16
7.69916e-16
6.64374e-16
5.51453e-16
4.36146e-16
3.24821e-16
2.26382e-16
2.22045e-16
2.22045e-16
2.22045e-16
2.22045e-16
2.22045e-16
2.22045e-16
2.22045e-16
2.22045e-16
3.05144e-16
4.5093e-16
6.09712e-16
7.71213e-16
9.27632e-16
1.07269e-15
1.20121e-15
1.30899e-15
1.39265e-15
1.44969e-15
1.47845e-15
1.4781e-15
1.44866e-15
1.39101e-15
1.30685e-15
1.19873e-15
1.07002e-15
9.24952e-16
7.68691e-16
6.075e-16
4.49161e-16
3.0393e-16
2.22045e-16
2.22045e-16
2.22045e-16
2.22045e-16
2.22045e-16
2.22045e-16
2.22045e-16
2.33969e-16
3.95443e-16
5.8602e-16
7.89829e-16
9.95346e-16
1.19344e-15
1.37659e-15
1.53854e-15
1.67413e-15
1.77925e-15
1.85085e-15
1.88686e-15
1.8863e-15
1.84921e-15
1.77665e-15
1.67073e-15
1.53458e-15
1.37233e-15
1.18914e-15
9.91278e-16
7.86222e-16
5.83066e-16
3.93278e-16
2.32663e-16
2.22045e-16
2.22045e-16
2.22045e-16
2.22045e-16
2.22045e-16
2.22045e-16
2.89141e-16
4.90319e-16
7.22589e-16
9.68561e-16
1.21533e-15
1.45249e-15
1.67136e-15
1.86464e-15
2.02632e-15
2.15156e-15
2.23675e-15
2.2795e-15
2.27864e-15
2.23423e-15
2.14754e-15
2.02108e-15
1.85853e-15
1.66476e-15
1.44583e-15
1.209e-15
9.62928e-16
7.17941e-16
4.86868e-16
2.87012e-16
2.22045e-16
2.22045e-16
2.22045e-16
2.22045e-16
2.22045e-16
2.22045e-16
3.44066e-16
5.82861e-16
8.53899e-16
1.13875e-15
1.42339e-15
1.69632e-15
1.94785e-15
2.16974e-15
2.35519e-15
2.49871e-15
2.59621e-15
2.64496e-15
2.64367e-15
2.59241e-15
2.49267e-15
2.34731e-15
2.16054e-15
1.93791e-15
1.68628e-15
1.41383e-15
1.13021e-15
8.46826e-16
5.77568e-16
3.4076e-16
2.22045e-16
2.22045e-16
2.22045e-16
2.22045e-16
2.22045e-16
2.22045e-16
3.96126e-16
6.69256e-16
9.75218e-16
1.29489e-15
1.61336e-15
1.91818e-15
2.19874e-15
2.44601e-15
2.65246e-15
2.81207e-15
2.92031e-15
2.97417e-15
2.97227e-15
2.91472e-15
2.80319e-15
2.64088e-15
2.43248e-15
2.18413e-15
1.90339e-15
1.59928e-15
1.28229e-15
9.64728e-16
6.6133e-16
3.91056e-16
2.22045e-16
2.22045e-16
2.22045e-16
2.22045e-16
2.22045e-16
2.22045e-16
4.44336e-16
7.46883e-16
1.08292e-15
1.43268e-15
1.78035e-15
2.11264e-15
2.41814e-15
2.68711e-15
2.91143e-15
3.08461e-15
3.20179e-15
3.25973e-15
3.257e-15
3.19375e-15
3.07183e-15
2.89475e-15
2.66762e-15
2.39709e-15
2.09134e-15
1.76006e-15
1.4145e-15
1.06774e-15
7.35297e-16
4.36597e-16
2.22045e-16
2.22045e-16
2.22045e-16
2.22045e-16
2.22045e-16
2.25228e-16
4.87127e-16
8.13241e-16
1.17402e-15
1.54865e-15
1.92046e-15
2.27537e-15
2.60129e-15
2.88792e-15
3.12666e-15
3.31065e-15
3.43476e-15
3.49561e-15
3.49176e-15
3.42342e-15
3.29263e-15
3.10316e-15
2.86046e-15
2.57163e-15
2.24534e-15
1.89184e-15
1.52299e-15
1.15257e-15
7.9682e-16
4.76079e-16
2.22045e-16
2.22045e-16
2.22045e-16
2.22045e-16
2.22045e-16
2.4315e-16
5.21566e-16
8.66098e-16
1.24619e-15
1.64018e-15
2.03068e-15
2.40299e-15
2.7445e-15
3.04444e-15
3.29388e-15
3.48567e-15
3.61454e-15
3.67701e-15
3.6717e-15
3.59889e-15
3.46081e-15
3.26144e-15
3.00656e-15
2.70359e-15
2.36158e-15
1.99119e-15
1.60477e-15
1.21656e-15
8.43385e-16
5.06245e-16
2.34982e-16
2.22045e-16
2.22045e-16
2.22045e-16
2.22045e-16
2.56179e-16
5.46421e-16
9.04042e-16
1.29777e-15
1.70532e-15
2.10879e-15
2.49302e-15
2.845e-15
3.15368e-15
3.40988e-15
3.60632e-15
3.73763e-15
3.80033e-15
3.79316e-15
3.7165e-15
3.57274e-15
3.36609e-15
3.10254e-15
2.78978e-15
2.43712e-15
2.05549e-15
1.65753e-15
1.25777e-15
8.73366e-16
5.25706e-16
2.45112e-16
2.22045e-16
2.22045e-16
2.22045e-16
2.22045e-16
2.63852e-16
5.60983e-16
9.26151e-16
1.32764e-15
1.74277e-15
2.15329e-15
2.54377e-15
2.90096e-15
3.21365e-15
3.47255e-15
3.67035e-15
3.80169e-15
3.86316e-15
3.85368e-15
3.77376e-15
3.62595e-15
3.41467e-15
3.14608e-15
2.82802e-15
2.46996e-15
2.08295e-15
1.67971e-15
1.27489e-15
8.85711e-16
5.33676e-16
2.49257e-16
2.22045e-16
2.22045e-16
2.22045e-16
2.22045e-16
2.65927e-16
5.64871e-16
9.31927e-16
1.33519e-15
1.75181e-15
2.16339e-15
2.55435e-15
2.91141e-15
3.2233e-15
3.48077e-15
3.6766e-15
3.80553e-15
3.86429e-15
3.85206e-15
3.7695e-15
3.61933e-15
3.40613e-15
3.13618e-15
2.8174e-15
2.45927e-15
2.07281e-15
1.67066e-15
1.26736e-15
8.79974e-16
5.29825e-16
2.47219e-16
2.22045e-16
2.22045e-16
2.22045e-16
2.22045e-16
2.62364e-16
5.58029e-16
9.2131e-16
1.32037e-15
1.73241e-15
2.13904e-15
2.52476e-15
2.87634e-15
3.18264e-15
3.43457e-15
3.62508e-15
3.74914e-15
3.80373e-15
3.78832e-15
3.70374e-15
3.55291e-15
3.34052e-15
3.0729e-15
2.75797e-15
2.40511e-15
2.02515e-15
1.63048e-15
1.23528e-15
8.56248e-16
5.14235e-16
2.39057e-16
2.22045e-16
2.22045e-16
2.22045e-16
2.22045e-16
2.5327e-16
5.40626e-16
8.94522e-16
1.28345e-15
1.68486e-15
2.08061e-15
2.45539e-15
2.79622e-15
3.09222e-15
3.33458e-15
3.51659e-15
3.63347e-15
3.68256e-15
3.66366e-15
3.57779e-15
3.42806e-15
3.21924e-15
2.95766e-15
2.65113e-15
2.30879e-15
1.94118e-15
1.56021e-15
1.17956e-15
8.15277e-16
4.87473e-16
2.25138e-16
2.22045e-16
2.22045e-16
2.22045e-16
2.22045e-16
2.3893e-16
5.13113e-16
8.52157e-16
1.22516e-15
1.61005e-15
1.98911e-15
2.34743e-15
2.67242e-15
2.9536e-15
3.1826e-15
3.35309e-15
3.46068e-15
3.50315e-15
3.48061e-15
3.39432e-15
3.24754e-15
3.04507e-15
2.7932e-15
2.49951e-15
2.17282e-15
1.82316e-15
1.46189e-15
1.10193e-15
7.58495e-16
4.50726e-16
2.22045e-16
2.22045e-16
2.22045e-16
2.22045e-16
2.22045e-16
2.22045e-16
4.76243e-16
7.95168e-16
1.14664e-15
1.50933e-15
1.86612e-15
2.20269e-15
2.507e-15
2.76912e-15
2.98122e-15
3.13751e-15
3.234e-15
3.26902e-15
3.24296e-15
3.15732e-15
3.01547e-15
2.82222e-15
2.58368e-15
2.30712e-15
2.00092e-15
1.67451e-15
1.3385e-15
1.00498e-15
6.88282e-16
4.06741e-16
2.22045e-16
2.22045e-16
2.22045e-16
2.22045e-16
2.22045e-16
2.22045e-16
4.31299e-16
7.24877e-16
1.04939e-15
1.38442e-15
1.71363e-15
2.02346e-15
2.30258e-15
2.54178e-15
2.73388e-15
2.87369e-15
2.95771e-15
2.98487e-15
2.95578e-15
2.87215e-15
2.73742e-15
2.55629e-15
2.33464e-15
2.07932e-15
1.79813e-15
1.49981e-15
1.19412e-15
8.9224e-16
6.07578e-16
3.5778e-16
2.22045e-16
2.22045e-16
2.22045e-16
2.22045e-16
2.22045e-16
2.22045e-16
3.81461e-16
6.43389e-16
9.35415e-16
1.23753e-15
1.53418e-15
1.81266e-15
2.06253e-15
2.27541e-15
2.44491e-15
2.56653e-15
2.63727e-15
2.65667e-15
2.62548e-15
2.54558e-15
2.42037e-15
2.25436e-15
2.05306e-15
1.82283e-15
1.57078e-15
1.30484e-15
1.03385e-15
7.67971e-16
5.19553e-16
3.05288e-16
2.22045e-16
2.22045e-16
2.22045e-16
2.22045e-16
2.22045e-16
2.22045e-16
3.27204e-16
5.52703e-16
8.07276e-16
1.07161e-15
1.33111e-15
1.5741e-15
1.79117e-15
1.97494e-15
2.11987e-15
2.22222e-15
2.27952e-15
2.29184e-15
2.25995e-15
2.18585e-15
2.07278e-15
1.92493e-15
1.74734e-15
1.54573e-15
1.32646e-15
1.09655e-15
8.63807e-16
6.37247e-16
4.27946e-16
2.5145e-16
2.22045e-16
2.22045e-16
2.22045e-16
2.22045e-16
2.22045e-16
2.22045e-16
2.69781e-16
4.55382e-16
6.68382e-16
8.90686e-16
1.10899e-15
1.31291e-15
1.49428e-15
1.64682e-15
1.76595e-15
1.84866e-15
1.89302e-15
1.89947e-15
1.86875e-15
1.80281e-15
1.70461e-15
1.5779e-15
1.42712e-15
1.25727e-15
1.07385e-15
8.82929e-16
6.91219e-16
5.06507e-16
3.38476e-16
2.22045e-16
2.22045e-16
2.22045e-16
2.22045e-16
2.22045e-16
2.22045e-16
2.22045e-16
2.22045e-16
3.55973e-16
5.23922e-16
7.00544e-16
8.74267e-16
1.03629e-15
1.17986e-15
1.2999e-15
1.39278e-15
1.45621e-15
1.48877e-15
1.49098e-15
1.46353e-15
1.40817e-15
1.32745e-15
1.22456e-15
1.10324e-15
9.67705e-16
8.22574e-16
6.7291e-16
5.24386e-16
3.83788e-16
2.60134e-16
2.22045e-16
2.22045e-16
2.22045e-16
2.22045e-16
2.22045e-16
2.22045e-16
2.22045e-16
2.22045e-16
2.64367e-16
3.82607e-16
5.10065e-16
6.36552e-16
7.54841e-16
8.59587e-16
9.46872e-16
1.01396e-15
1.05913e-15
1.08144e-15
1.0812e-15
1.05903e-15
1.01634e-15
9.55168e-16
8.78052e-16
7.88012e-16
6.88456e-16
5.83129e-16
4.76092e-16
3.71813e-16
2.76202e-16
2.22045e-16
2.22045e-16
2.22045e-16
2.22045e-16
2.22045e-16
2.22045e-16
2.22045e-16
2.22045e-16
2.22045e-16
2.22045e-16
2.56268e-16
3.32604e-16
4.10665e-16
4.85047e-16
5.51592e-16
6.07289e-16
6.50072e-16
6.78654e-16
6.92411e-16
6.91337e-16
6.75928e-16
6.47135e-16
6.06423e-16
5.55681e-16
4.9723e-16
4.33827e-16
3.68664e-16
3.05143e-16
2.4642e-16
2.22045e-16
2.22045e-16
2.22045e-16
2.22045e-16
2.22045e-16
2.22045e-16
2.22045e-16
2.22045e-16
2.22045e-16
2.22045e-16
2.22045e-16
2.22045e-16
2.22045e-16
2.2243e-16
2.55687e-16
2.87439e-16
3.14785e-16
3.36059e-16
3.50318e-16
3.57084e-16
3.56273e-16
3.48175e-16
3.33224e-16
3.1242e-16
2.86986e-16
2.58578e-16
2.29498e-16
2.22045e-16
2.22045e-16
2.22045e-16
2.22045e-16
2.22045e-16
2.22045e-16
2.22045e-16
2.22045e-16
2.22045e-16
2.22045e-16
2.22045e-16
2.22045e-16
2.22045e-16
2.22045e-16
2.22045e-16
2.22045e-16
2.22045e-16
2.22045e-16
2.22045e-16
2.22045e-16
2.22045e-16
2.22045e-16
2.22045e-16
2.22045e-16
2.22045e-16
2.22045e-16
2.22045e-16
2.22045e-16
2.22045e-16
2.22045e-16
2.22045e-16
2.22045e-16
2.22045e-16
2.22045e-16
2.22045e-16
2.22045e-16
2.22045e-16
2.22045e-16
2.22045e-16
2.22045e-16
2.22045e-16
2.22045e-16
2.22045e-16
2.22045e-16
2.22045e-16
2.22045e-16
2.22045e-16
2.22045e-16
2.22045e-16
2.22045e-16
2.22045e-16
2.22045e-16
2.22045e-16
2.22045e-16
2.22045e-16
2.22045e-16
2.22045e-16
2.22045e-16
2.22045e-16
2.22045e-16
2.22045e-16
2.22045e-16
2.22045e-16
2.22045e-16
2.22045e-16
2.22045e-16
2.22045e-16
2.22045e-16
2.22045e-16
)
;

boundaryField
{
    movingWall
    {
        type            kqRWallFunction;
        value           uniform 2.22045e-16;
    }
    fixedWalls
    {
        type            kqRWallFunction;
        value           uniform 2.22045e-16;
    }
    frontAndBack
    {
        type            empty;
    }
}


// ************************************************************************* //
