/*--------------------------------*- C++ -*----------------------------------*\
  =========                 |
  \\      /  F ield         | OpenFOAM: The Open Source CFD Toolbox
   \\    /   O peration     | Website:  https://openfoam.org
    \\  /    A nd           | Version:  12
     \\/     M anipulation  |
\*---------------------------------------------------------------------------*/
FoamFile
{
    format      ascii;
    class       volScalarField;
    location    "0.4";
    object      nut;
}
// * * * * * * * * * * * * * * * * * * * * * * * * * * * * * * * * * * * * * //

dimensions      [0 2 -1 0 0 0 0];

internalField   nonuniform List<scalar> 
900
(
1.11022e-21
4.44089e-21
4.44089e-21
4.44089e-21
4.44089e-21
4.44089e-21
4.44089e-21
4.44089e-21
4.44089e-21
4.44089e-21
4.44089e-21
4.44089e-21
4.44089e-21
4.44089e-21
4.44089e-21
4.44089e-21
4.44089e-21
4.44089e-21
4.44089e-21
4.44089e-21
4.44089e-21
4.44089e-21
4.44089e-21
4.44089e-21
4.44089e-21
4.44089e-21
4.44089e-21
4.44089e-21
4.44089e-21
1.11022e-21
1.11022e-21
5.27746e-21
1.21695e-20
1.75295e-20
1.99711e-20
2.08506e-20
2.11478e-20
2.12411e-20
2.1255e-20
2.12372e-20
2.12103e-20
2.11841e-20
2.11628e-20
2.11481e-20
2.11407e-20
2.11408e-20
2.11484e-20
2.11633e-20
2.11848e-20
2.12111e-20
2.12381e-20
2.12558e-20
2.12418e-20
2.11483e-20
2.0851e-20
1.99714e-20
1.75296e-20
1.21695e-20
5.27746e-21
1.11022e-21
1.11022e-21
5.34104e-21
1.40817e-20
2.61131e-20
3.76702e-20
4.56511e-20
4.98054e-20
5.12681e-20
5.23531e-20
6.53027e-20
7.85053e-20
9.07078e-20
1.00855e-19
1.08106e-19
1.1187e-19
1.11843e-19
1.0803e-19
1.00738e-19
9.05634e-20
7.8351e-20
6.5157e-20
5.22352e-20
5.12994e-20
4.98289e-20
4.56664e-20
3.76772e-20
2.6115e-20
1.4082e-20
5.34105e-21
1.11022e-21
1.11022e-21
5.34654e-21
1.4312e-20
2.80106e-20
4.41588e-20
5.807e-20
1.08581e-19
1.74293e-19
2.48849e-19
3.25724e-19
3.9909e-19
4.64017e-19
5.16443e-19
5.53197e-19
5.72088e-19
5.71997e-19
5.52937e-19
5.16043e-19
4.63521e-19
3.98551e-19
3.25194e-19
2.4837e-19
1.73901e-19
1.08298e-19
5.79601e-20
4.41858e-20
2.80159e-20
1.43126e-20
5.34657e-21
1.11022e-21
1.11022e-21
5.34694e-21
1.43273e-20
2.80787e-20
4.56417e-20
1.20812e-19
2.49058e-19
4.23461e-19
6.26265e-19
8.37253e-19
1.03848e-18
1.21559e-18
1.35762e-18
1.4566e-18
1.50731e-18
1.50716e-18
1.45617e-18
1.35695e-18
1.21477e-18
1.03757e-18
8.36326e-19
6.25364e-19
4.22628e-19
2.48371e-19
1.20361e-19
4.54428e-20
2.80895e-20
1.43282e-20
5.34697e-21
1.11022e-21
1.11022e-21
5.34643e-21
1.42974e-20
2.75942e-20
7.65416e-20
2.09183e-19
4.34909e-19
7.44826e-19
1.11065e-18
1.4968e-18
1.86919e-18
2.19933e-18
2.46517e-18
2.65083e-18
2.74604e-18
2.74577e-18
2.65006e-18
2.46398e-18
2.19783e-18
1.86751e-18
1.49506e-18
1.10893e-18
7.43188e-19
4.33509e-19
2.08223e-19
7.60927e-20
2.76124e-20
1.42989e-20
5.34647e-21
1.11022e-21
1.11022e-21
5.34548e-21
1.42199e-20
2.91798e-20
1.17334e-19
3.15673e-19
6.46662e-19
1.09869e-18
1.63397e-18
2.2029e-18
2.75577e-18
3.24915e-18
3.64843e-18
3.92818e-18
4.07182e-18
4.07124e-18
3.92647e-18
3.64576e-18
3.24578e-18
2.75203e-18
2.19911e-18
1.63035e-18
1.09542e-18
6.43983e-19
3.13852e-19
1.16432e-19
2.89115e-20
1.42235e-20
5.34553e-21
1.11022e-21
1.11022e-21
5.34396e-21
1.41129e-20
4.19296e-20
1.65069e-19
4.3249e-19
8.69365e-19
1.45991e-18
2.1572e-18
2.89933e-18
3.62285e-18
4.27086e-18
4.79692e-18
5.16625e-18
5.35593e-18
5.35468e-18
5.16259e-18
4.79122e-18
4.2637e-18
3.61496e-18
2.89145e-18
2.1499e-18
1.45361e-18
8.64436e-19
4.29213e-19
1.63425e-19
4.14191e-20
1.41174e-20
5.34397e-21
1.11022e-21
1.11022e-21
5.34237e-21
1.40175e-20
5.6442e-20
2.1655e-19
5.52912e-19
1.09125e-18
1.81086e-18
2.65639e-18
3.55523e-18
4.43216e-18
5.21872e-18
5.85814e-18
6.30739e-18
6.53784e-18
6.53544e-18
6.30038e-18
5.84727e-18
5.20512e-18
4.41724e-18
3.54044e-18
2.64296e-18
1.79965e-18
1.08276e-18
5.47377e-19
2.13747e-19
5.55403e-20
1.40221e-20
5.34223e-21
1.11022e-21
1.11022e-21
5.33949e-21
1.39289e-20
7.1752e-20
2.68368e-19
6.6965e-19
1.30076e-18
2.13628e-18
3.11335e-18
4.15001e-18
5.16093e-18
6.0678e-18
6.80513e-18
7.32299e-18
7.58798e-18
7.58381e-18
7.31083e-18
6.78631e-18
6.04429e-18
5.1352e-18
4.12468e-18
3.09068e-18
2.1178e-18
1.28715e-18
6.60938e-19
2.63914e-19
7.02428e-20
1.39329e-20
5.33921e-21
1.11022e-21
1.11022e-21
5.34075e-21
1.38164e-20
8.69243e-20
3.16603e-19
7.75108e-19
1.48723e-18
2.42344e-18
3.51402e-18
4.66872e-18
5.79349e-18
6.80179e-18
7.621e-18
8.19564e-18
8.48855e-18
8.48183e-18
8.17603e-18
7.59068e-18
6.76397e-18
5.75219e-18
4.62824e-18
3.47813e-18
2.39466e-18
1.46658e-18
7.62276e-19
3.10203e-19
8.47187e-20
1.3912e-20
5.34233e-21
1.11022e-21
1.11022e-21
5.3332e-21
1.37496e-20
9.99152e-20
3.5695e-19
8.63378e-19
1.64357e-18
2.66405e-18
3.84896e-18
5.10087e-18
6.31851e-18
7.4087e-18
8.29327e-18
8.91252e-18
9.22644e-18
9.21619e-18
8.88259e-18
8.24707e-18
7.35115e-18
6.25576e-18
5.03948e-18
3.79466e-18
2.62073e-18
1.61275e-18
8.44436e-19
3.47556e-19
9.66426e-20
1.3488e-20
5.33549e-21
1.11022e-21
1.11022e-21
5.32649e-21
1.56093e-20
1.10583e-19
3.89332e-19
9.33583e-19
1.76736e-18
2.85387e-18
4.11215e-18
5.43899e-18
6.7274e-18
7.87918e-18
8.81204e-18
9.4633e-18
9.79105e-18
9.77607e-18
9.41958e-18
8.74463e-18
7.79533e-18
6.63609e-18
5.3497e-18
4.03321e-18
2.79095e-18
1.72274e-18
9.06292e-19
3.75843e-19
1.05867e-19
1.47521e-20
5.32955e-21
1.11022e-21
1.11022e-21
5.32175e-21
1.70202e-20
1.18486e-19
4.12967e-19
9.84339e-19
1.85623e-18
2.98931e-18
4.29879e-18
5.67717e-18
7.01341e-18
8.20583e-18
9.16948e-18
9.83985e-18
1.0174e-17
1.01529e-17
9.77831e-18
9.07468e-18
8.08806e-18
6.88528e-18
5.55193e-18
4.18807e-18
2.90112e-18
1.79381e-18
9.46301e-19
3.94233e-19
1.11936e-19
1.58192e-20
5.32569e-21
1.11022e-21
1.11022e-21
5.31913e-21
1.7875e-20
1.2321e-19
4.26955e-19
1.01412e-18
1.90793e-18
3.06733e-18
4.40506e-18
5.81096e-18
7.17157e-18
8.38333e-18
9.35998e-18
1.00363e-17
1.03692e-17
1.03405e-17
9.95254e-18
9.231e-18
8.22327e-18
6.99761e-18
5.64103e-18
4.25491e-18
2.94784e-18
1.82355e-18
9.62891e-19
4.01828e-19
1.14445e-19
1.6264e-20
5.32407e-21
1.11022e-21
1.11022e-21
5.31849e-21
1.811e-20
1.24494e-19
4.30704e-19
1.02193e-18
1.921e-18
3.08603e-18
4.42867e-18
5.83774e-18
7.19903e-18
8.40865e-18
9.38044e-18
1.00496e-17
1.03736e-17
1.03358e-17
9.93938e-18
9.21081e-18
8.19833e-18
6.97063e-18
5.6148e-18
4.23185e-18
2.92961e-18
1.81083e-18
9.5531e-19
3.98201e-19
1.13213e-19
1.60436e-20
5.32474e-21
1.11022e-21
1.11022e-21
5.31974e-21
1.77098e-20
1.22281e-19
4.24095e-19
1.00757e-18
1.89519e-18
3.0451e-18
4.36929e-18
5.75717e-18
7.09549e-18
8.28153e-18
9.23065e-18
9.87943e-18
1.01872e-17
1.0139e-17
9.73894e-18
9.01438e-18
8.01362e-18
6.80479e-18
5.47373e-18
4.11935e-18
2.84683e-18
1.75595e-18
9.2377e-19
3.83485e-19
1.08302e-19
1.51751e-20
5.32768e-21
1.11022e-21
1.11022e-21
5.32302e-21
1.67044e-20
1.16691e-19
4.07395e-19
9.71473e-19
1.83109e-18
2.94525e-18
4.22768e-18
5.57008e-18
6.86185e-18
8.00311e-18
8.91205e-18
9.52786e-18
9.8125e-18
9.75305e-18
9.35486e-18
8.64565e-18
7.67325e-18
6.50415e-18
5.22158e-18
3.92063e-18
2.702e-18
1.66072e-18
8.6946e-19
3.5837e-19
1.00028e-19
1.37388e-20
5.33277e-21
1.11022e-21
1.11022e-21
5.32841e-21
1.51679e-20
1.08026e-19
3.8128e-19
9.14782e-19
1.7303e-18
2.78853e-18
4.00631e-18
5.27934e-18
6.50142e-18
7.57715e-18
8.42901e-18
8.99981e-18
9.25514e-18
9.18441e-18
8.79411e-18
8.11204e-18
7.18475e-18
6.07597e-18
4.86482e-18
3.64101e-18
2.49911e-18
1.5278e-18
7.9396e-19
3.23729e-19
8.88404e-20
1.37517e-20
5.33917e-21
1.11022e-21
1.11022e-21
5.33574e-21
1.34804e-20
9.6714e-20
3.46639e-19
8.38937e-19
1.59491e-18
2.5777e-18
3.7086e-18
4.88899e-18
6.01885e-18
7.00896e-18
7.78761e-18
8.30232e-18
8.52326e-18
8.44217e-18
8.06669e-18
7.42412e-18
6.55877e-18
5.53037e-18
4.41242e-18
3.28778e-18
2.24343e-18
1.36037e-18
6.98722e-19
2.80026e-19
7.50339e-20
1.39286e-20
5.33968e-21
1.11022e-21
1.11022e-21
5.34347e-21
1.39507e-20
8.31441e-20
3.04023e-19
7.44864e-19
1.42658e-18
2.31538e-18
3.33819e-18
4.40363e-18
5.41965e-18
6.30507e-18
6.9955e-18
7.44433e-18
7.62718e-18
7.53799e-18
7.18538e-18
6.59542e-18
5.80906e-18
4.88069e-18
3.8767e-18
2.87175e-18
1.94391e-18
1.1655e-18
5.89035e-19
2.30797e-19
6.02756e-20
1.39907e-20
5.34121e-21
1.11022e-21
1.11022e-21
5.34084e-21
1.39616e-20
6.74419e-20
2.53344e-19
6.33112e-19
1.22713e-18
2.00489e-18
2.89977e-18
3.82914e-18
4.71088e-18
5.47372e-18
6.0623e-18
6.43709e-18
6.57978e-18
6.48635e-18
6.16608e-18
5.64288e-18
4.95312e-18
4.14444e-18
3.27456e-18
2.40856e-18
1.61436e-18
9.54494e-19
4.73026e-19
1.80546e-19
4.59338e-20
1.40711e-20
5.34159e-21
1.11022e-21
1.11022e-21
5.34302e-21
1.40526e-20
5.19e-20
1.99861e-19
5.10812e-19
1.00459e-18
1.65475e-18
2.40236e-18
3.17524e-18
3.90323e-18
4.52697e-18
5.00173e-18
5.29628e-18
5.39855e-18
5.30645e-18
5.02939e-18
4.5881e-18
4.01305e-18
3.34358e-18
2.62711e-18
1.91757e-18
1.27127e-18
7.39931e-19
3.5867e-19
1.32942e-19
3.29658e-20
1.41707e-20
5.34274e-21
1.11022e-21
1.11022e-21
5.34532e-21
1.41615e-20
3.73266e-20
1.47249e-19
3.85485e-19
7.69782e-19
1.27804e-18
1.86066e-18
2.45829e-18
3.01516e-18
3.4859e-18
3.83776e-18
4.04876e-18
4.11255e-18
4.02884e-18
3.80636e-18
3.46169e-18
3.01816e-18
2.50544e-18
1.95897e-18
1.41988e-18
9.31391e-19
5.33563e-19
2.529e-19
9.12503e-20
2.73562e-20
1.42717e-20
5.34381e-21
1.11022e-21
1.11022e-21
5.34757e-21
1.42805e-20
2.70432e-20
9.9133e-20
2.64785e-19
5.35166e-19
8.92217e-19
1.29746e-18
1.70717e-18
2.08259e-18
2.39392e-18
2.62089e-18
2.75076e-18
2.78137e-18
2.71382e-18
2.55524e-18
2.31731e-18
2.01569e-18
1.66972e-18
1.30225e-18
9.40146e-19
6.12314e-19
3.46531e-19
1.61619e-19
5.81618e-20
2.78679e-20
1.42976e-20
5.34339e-21
1.11022e-21
1.11022e-21
5.34864e-21
1.43323e-20
2.78837e-20
5.94943e-20
1.57123e-19
3.16524e-19
5.23688e-19
7.53399e-19
9.80045e-19
1.18285e-18
1.34693e-18
1.4628e-18
1.52491e-18
1.53285e-18
1.4881e-18
1.39525e-18
1.26128e-18
1.095e-18
9.06755e-19
7.08402e-19
5.13315e-19
3.36333e-19
1.92063e-19
9.1531e-20
4.49355e-20
2.81665e-20
1.43077e-20
5.34252e-21
1.11022e-21
1.11022e-21
5.34888e-21
1.43307e-20
2.80083e-20
4.36819e-20
7.42383e-20
1.39744e-19
2.21097e-19
3.0834e-19
3.92483e-19
4.6652e-19
5.25411e-19
5.65806e-19
5.85878e-19
5.8527e-19
5.64875e-19
5.26706e-19
4.73864e-19
4.10143e-19
3.39826e-19
2.67481e-19
1.97805e-19
1.35367e-19
8.39735e-20
5.91322e-20
4.4277e-20
2.79239e-20
1.42757e-20
5.34049e-21
1.11022e-21
1.11022e-21
5.3439e-21
1.41077e-20
2.6202e-20
3.77964e-20
4.56362e-20
4.94337e-20
5.02925e-20
6.51623e-20
8.01251e-20
9.36896e-20
1.04672e-19
1.12215e-19
1.15792e-19
1.15232e-19
1.10727e-19
1.027e-19
9.19925e-20
7.95671e-20
6.65136e-20
5.39916e-20
5.16009e-20
5.12708e-20
4.93946e-20
4.50817e-20
3.71974e-20
2.58887e-20
1.40256e-20
5.33307e-21
1.11022e-21
1.11022e-21
5.27998e-21
1.21906e-20
1.75954e-20
2.0073e-20
2.09595e-20
2.12417e-20
2.13069e-20
2.12943e-20
2.12585e-20
2.12207e-20
2.11882e-20
2.11636e-20
2.11472e-20
2.11381e-20
2.1133e-20
2.1129e-20
2.11284e-20
2.11297e-20
2.11289e-20
2.11187e-20
2.10856e-20
2.10073e-20
2.08478e-20
2.04934e-20
1.9598e-20
1.72409e-20
1.20589e-20
5.26513e-21
1.11022e-21
1.11022e-21
4.44089e-21
4.44089e-21
4.44089e-21
4.44089e-21
4.44089e-21
4.44089e-21
4.44089e-21
4.44089e-21
4.44089e-21
4.44089e-21
4.44089e-21
4.44089e-21
4.44089e-21
4.44089e-21
4.44089e-21
4.44089e-21
4.44089e-21
4.44089e-21
4.44089e-21
4.44089e-21
4.44089e-21
4.44089e-21
4.44089e-21
4.44089e-21
4.44089e-21
4.44089e-21
4.44089e-21
4.44089e-21
1.11022e-21
)
;

boundaryField
{
    movingWall
    {
        type            nutkWallFunction;
        Cmu             0.09;
        kappa           0.41;
        E               9.8;
        value           uniform 0;
    }
    fixedWalls
    {
        type            nutkWallFunction;
        Cmu             0.09;
        kappa           0.41;
        E               9.8;
        value           uniform 0;
    }
    frontAndBack
    {
        type            empty;
    }
}


// ************************************************************************* //
