/*--------------------------------*- C++ -*----------------------------------*\
  =========                 |
  \\      /  F ield         | OpenFOAM: The Open Source CFD Toolbox
   \\    /   O peration     | Website:  https://openfoam.org
    \\  /    A nd           | Version:  12
     \\/     M anipulation  |
\*---------------------------------------------------------------------------*/
FoamFile
{
    format      ascii;
    class       volScalarField;
    location    "0.85";
    object      p;
}
// * * * * * * * * * * * * * * * * * * * * * * * * * * * * * * * * * * * * * //

dimensions      [0 2 -2 0 0 0 0];

internalField   nonuniform List<scalar> 
400
(
-1.87168e-07
0.000377049
0.000551186
0.000299182
-0.000382981
-0.00144294
-0.00281599
-0.00443187
-0.00621857
-0.00810615
-0.010027
-0.0119149
-0.0137022
-0.0153188
-0.0166924
-0.0177527
-0.0184348
-0.0186863
-0.0185115
-0.0181335
-0.000293886
0.000166296
0.0003601
7.6254e-05
-0.000635214
-0.00169758
-0.00304413
-0.0046104
-0.00633175
-0.008145
-0.00998866
-0.0118021
-0.0135238
-0.0150905
-0.0164373
-0.0174996
-0.0182108
-0.0184938
-0.0182989
-0.0178377
0.00137018
0.00176687
0.00181457
0.00131338
0.000362956
-0.000928266
-0.00248119
-0.00422956
-0.00611224
-0.00807326
-0.0100601
-0.0120214
-0.0139046
-0.0156534
-0.0172066
-0.0184977
-0.0194474
-0.0199472
-0.0198974
-0.0194986
0.00584299
0.0058458
0.00537821
0.00432137
0.00281453
0.000992194
-0.00105153
-0.00324885
-0.00554045
-0.00788519
-0.0102471
-0.0125928
-0.014886
-0.0170834
-0.0191286
-0.0209514
-0.0224574
-0.0235119
-0.0239754
-0.0239683
0.0136834
0.012767
0.0112014
0.00908217
0.00659029
0.00387726
0.0010474
-0.00183282
-0.0047264
-0.00761904
-0.0105104
-0.0134048
-0.0163015
-0.0191853
-0.0220187
-0.024734
-0.0272258
-0.0293416
-0.0308999
-0.0318079
0.0255516
0.0228909
0.019348
0.0154458
0.0114087
0.00738629
0.00348049
-0.000263837
-0.00385443
-0.00733788
-0.0107844
-0.0142717
-0.0178695
-0.021623
-0.0255382
-0.0295683
-0.0336087
-0.0375074
-0.0410381
-0.0436833
0.0419905
0.036302
0.0294583
0.0227629
0.0164736
0.0106954
0.00549636
0.000862627
-0.00330559
-0.00717146
-0.0109353
-0.0148093
-0.0189927
-0.0236467
-0.028868
-0.0346663
-0.0409687
-0.0476639
-0.0544898
-0.0601522
0.0629963
0.0523309
0.0402572
0.0294075
0.0200353
0.0121144
0.00561652
0.000401982
-0.00380235
-0.00736681
-0.0107172
-0.014297
-0.0185307
-0.0237856
-0.0303301
-0.0382969
-0.0477051
-0.0585682
-0.0706219
-0.0812481
0.0872091
0.0687308
0.0487281
0.031992
0.0186824
0.00848163
0.00114954
-0.00369506
-0.00662882
-0.00836936
-0.00971238
-0.0114785
-0.0144622
-0.0193782
-0.0267974
-0.0370908
-0.0504828
-0.0672673
-0.0872612
-0.105691
0.11052
0.0802869
0.0487804
0.0241475
0.00627382
-0.00572968
-0.0125165
-0.0148973
-0.0139516
-0.0109491
-0.00726145
-0.00429318
-0.0034174
-0.00590484
-0.012832
-0.0249989
-0.043036
-0.0677925
-0.0993367
-0.129535
0.123802
0.0766263
0.029211
-0.00529062
-0.0276072
-0.0396725
-0.042891
-0.0387977
-0.0292637
-0.0163918
-0.0024027
0.0104439
0.0199175
0.0238996
0.0205064
0.00820268
-0.0143917
-0.049152
-0.0967252
-0.143941
0.109331
0.0388463
-0.0293297
-0.0748812
-0.0997791
-0.107792
-0.10163
-0.0839964
-0.0579485
-0.0267728
0.00614031
0.0373612
0.0634672
0.0811166
0.0871935
0.0789511
0.0536793
0.00767438
-0.0609062
-0.131638
0.0352324
-0.0655818
-0.158743
-0.214149
-0.236192
-0.231808
-0.205915
-0.163028
-0.107875
-0.0452936
0.0198616
0.0827162
0.138334
0.181728
0.208006
0.212495
0.190184
0.134153
0.0401758
-0.0613309
-0.153223
-0.290561
-0.409784
-0.468219
-0.475008
-0.442564
-0.379453
-0.292864
-0.189672
-0.0764969
0.0402658
0.154271
0.258942
0.347319
0.412172
0.445902
0.439589
0.380662
0.260106
0.1213
-0.548533
-0.723884
-0.861033
-0.903104
-0.868889
-0.78029
-0.651677
-0.493831
-0.315927
-0.126121
0.0681983
0.259829
0.441161
0.603675
0.737331
0.830308
0.867305
0.825902
0.687175
0.509315
-1.31218
-1.5109
-1.63331
-1.61139
-1.4843
-1.29023
-1.05186
-0.783764
-0.496615
-0.198539
0.104199
0.40594
0.700067
0.977653
1.22665
1.43091
1.56614
1.59243
1.46963
1.2677
-2.73138
-2.89141
-2.90675
-2.71189
-2.38976
-2.00562
-1.5914
-1.16332
-0.729311
-0.292046
0.14834
0.592219
1.03856
1.48301
1.91601
2.31975
2.65927
2.86618
2.85525
2.69339
-5.33453
-5.25661
-4.90856
-4.30771
-3.61165
-2.91183
-2.23962
-1.60023
-0.98831
-0.392893
0.199832
0.80436
1.43407
2.09878
2.80156
3.53313
4.25772
4.88106
5.24224
5.32428
-11.1826
-9.54073
-7.66715
-6.05722
-4.724
-3.6043
-2.65476
-1.83637
-1.10859
-0.431983
0.231224
0.918073
1.66654
2.5156
3.50456
4.66978
6.0497
7.69915
9.60202
11.2636
-29.316
-19.966
-13.208
-9.10227
-6.39378
-4.46386
-3.05231
-1.99195
-1.1516
-0.428672
0.2605
0.995048
1.85884
2.95379
4.41246
6.40296
9.18325
13.3626
20.1807
29.568
)
;

boundaryField
{
    movingWall
    {
        type            zeroGradient;
    }
    fixedWalls
    {
        type            zeroGradient;
    }
    frontAndBack
    {
        type            empty;
    }
}


// ************************************************************************* //
