/*--------------------------------*- C++ -*----------------------------------*\
  =========                 |
  \\      /  F ield         | OpenFOAM: The Open Source CFD Toolbox
   \\    /   O peration     | Website:  https://openfoam.org
    \\  /    A nd           | Version:  12
     \\/     M anipulation  |
\*---------------------------------------------------------------------------*/
FoamFile
{
    format      ascii;
    class       volScalarField;
    location    "4";
    object      epsilon;
}
// * * * * * * * * * * * * * * * * * * * * * * * * * * * * * * * * * * * * * //

dimensions      [0 2 -3 0 0 0 0];

internalField   nonuniform List<scalar> 
5625
(
6.17642e-08
1.16633e-07
2.47244e-07
4.03179e-07
5.78864e-07
7.70093e-07
9.738e-07
1.18762e-06
1.40963e-06
1.63815e-06
1.87168e-06
2.10885e-06
2.34838e-06
2.58904e-06
2.82968e-06
3.06917e-06
3.30645e-06
3.54049e-06
3.77028e-06
3.99487e-06
4.21334e-06
4.42479e-06
4.62839e-06
4.82331e-06
5.0088e-06
5.18412e-06
5.34859e-06
5.50157e-06
5.64246e-06
5.77071e-06
5.88583e-06
5.98736e-06
6.0749e-06
6.14811e-06
6.20669e-06
6.2504e-06
6.27905e-06
6.29251e-06
6.29073e-06
6.27366e-06
6.24133e-06
6.19384e-06
6.13133e-06
6.05401e-06
5.96215e-06
5.85607e-06
5.73614e-06
5.60279e-06
5.4565e-06
5.29782e-06
5.12734e-06
4.94571e-06
4.75362e-06
4.55182e-06
4.34111e-06
4.12234e-06
3.89639e-06
3.66421e-06
3.42679e-06
3.18516e-06
2.94041e-06
2.69368e-06
2.44614e-06
2.19906e-06
1.95373e-06
1.71157e-06
1.47407e-06
1.24286e-06
1.01977e-06
8.06902e-07
6.06808e-07
4.22787e-07
2.59329e-07
1.22348e-07
6.47898e-08
4.17548e-07
2.27142e-07
2.21087e-07
2.64105e-07
3.30279e-07
4.10345e-07
4.99853e-07
5.96241e-07
6.97823e-07
8.03366e-07
9.11893e-07
1.02258e-06
1.13471e-06
1.24762e-06
1.36071e-06
1.47341e-06
1.58518e-06
1.69552e-06
1.80393e-06
1.90995e-06
2.01313e-06
2.11304e-06
2.20927e-06
2.30143e-06
2.38916e-06
2.4721e-06
2.54993e-06
2.62235e-06
2.68905e-06
2.74979e-06
2.80433e-06
2.85244e-06
2.89394e-06
2.92866e-06
2.95646e-06
2.97723e-06
2.99086e-06
2.99731e-06
2.99653e-06
2.98852e-06
2.97328e-06
2.95086e-06
2.92133e-06
2.88478e-06
2.84134e-06
2.79117e-06
2.73444e-06
2.67136e-06
2.60216e-06
2.5271e-06
2.44646e-06
2.36055e-06
2.26972e-06
2.17431e-06
2.07473e-06
1.97136e-06
1.86466e-06
1.75507e-06
1.64309e-06
1.52922e-06
1.41401e-06
1.29802e-06
1.18187e-06
1.06619e-06
9.51712e-07
8.392e-07
7.29549e-07
6.23813e-07
5.23317e-07
4.29863e-07
3.46174e-07
2.76946e-07
2.3193e-07
2.38333e-07
4.38103e-07
9.2797e-07
4.54854e-07
3.50807e-07
3.31257e-07
3.47328e-07
3.83058e-07
4.31257e-07
4.88017e-07
5.50933e-07
6.18383e-07
6.89193e-07
7.62458e-07
8.37443e-07
9.1353e-07
9.90177e-07
1.0669e-06
1.14326e-06
1.21886e-06
1.29331e-06
1.36625e-06
1.43735e-06
1.50629e-06
1.57278e-06
1.63653e-06
1.69726e-06
1.75473e-06
1.80871e-06
1.85896e-06
1.9053e-06
1.94752e-06
1.98545e-06
2.01895e-06
2.04788e-06
2.0721e-06
2.09153e-06
2.10608e-06
2.11569e-06
2.12029e-06
2.11988e-06
2.11445e-06
2.10398e-06
2.08852e-06
2.06812e-06
2.04284e-06
2.01278e-06
1.97804e-06
1.93874e-06
1.89505e-06
1.84711e-06
1.79513e-06
1.7393e-06
1.67985e-06
1.61703e-06
1.55111e-06
1.48236e-06
1.41109e-06
1.33763e-06
1.26233e-06
1.18556e-06
1.10773e-06
1.02927e-06
9.50641e-07
8.72371e-07
7.95039e-07
7.19311e-07
6.45974e-07
5.75997e-07
5.10631e-07
4.51594e-07
4.01429e-07
3.64251e-07
3.47622e-07
3.68307e-07
4.7762e-07
9.74347e-07
1.53344e-06
7.35632e-07
5.33431e-07
4.59931e-07
4.37506e-07
4.42018e-07
4.63099e-07
4.95327e-07
5.35465e-07
5.81394e-07
6.31622e-07
6.85041e-07
7.4079e-07
7.9817e-07
8.56601e-07
9.15581e-07
9.74672e-07
1.03348e-06
1.09164e-06
1.14883e-06
1.20474e-06
1.25909e-06
1.31162e-06
1.36208e-06
1.41024e-06
1.45588e-06
1.49881e-06
1.53883e-06
1.57577e-06
1.60947e-06
1.63979e-06
1.6666e-06
1.68978e-06
1.70923e-06
1.72487e-06
1.73662e-06
1.74443e-06
1.74825e-06
1.74807e-06
1.74388e-06
1.73567e-06
1.72347e-06
1.70732e-06
1.68728e-06
1.66343e-06
1.63584e-06
1.60464e-06
1.56994e-06
1.53189e-06
1.49064e-06
1.44638e-06
1.39929e-06
1.34959e-06
1.29752e-06
1.24332e-06
1.18728e-06
1.12967e-06
1.07084e-06
1.01112e-06
9.50903e-07
8.90611e-07
8.30717e-07
7.71761e-07
7.1437e-07
6.59289e-07
6.07437e-07
5.59988e-07
5.18513e-07
4.85249e-07
4.63607e-07
4.59291e-07
4.83193e-07
5.60676e-07
7.73319e-07
1.61189e-06
2.20539e-06
1.05034e-06
7.45059e-07
6.1906e-07
5.61934e-07
5.40041e-07
5.39327e-07
5.52646e-07
5.75854e-07
6.06288e-07
6.4212e-07
6.82015e-07
7.24957e-07
7.70139e-07
8.16903e-07
8.64694e-07
9.13035e-07
9.61513e-07
1.00976e-06
1.05744e-06
1.10426e-06
1.14994e-06
1.19423e-06
1.23688e-06
1.27768e-06
1.31644e-06
1.35295e-06
1.38705e-06
1.41857e-06
1.44738e-06
1.47333e-06
1.49632e-06
1.51623e-06
1.53297e-06
1.54646e-06
1.55663e-06
1.56344e-06
1.56684e-06
1.56681e-06
1.56336e-06
1.55646e-06
1.54616e-06
1.53247e-06
1.51546e-06
1.4952e-06
1.47176e-06
1.44524e-06
1.41576e-06
1.38345e-06
1.34846e-06
1.31096e-06
1.27113e-06
1.22918e-06
1.18533e-06
1.13982e-06
1.09292e-06
1.04494e-06
9.96181e-07
9.47018e-07
8.97843e-07
8.49108e-07
8.01322e-07
7.55081e-07
7.11088e-07
6.702e-07
6.33499e-07
6.02397e-07
5.78823e-07
5.65573e-07
5.67009e-07
5.9064e-07
6.51251e-07
7.84232e-07
1.10578e-06
2.3217e-06
2.92523e-06
1.38873e-06
9.75505e-07
7.96612e-07
7.06167e-07
6.60093e-07
6.40232e-07
6.37518e-07
6.46784e-07
6.6479e-07
6.89336e-07
7.18848e-07
7.52142e-07
7.88294e-07
8.2656e-07
8.66324e-07
9.07066e-07
9.48337e-07
9.89741e-07
1.03093e-06
1.07159e-06
1.11144e-06
1.15021e-06
1.18768e-06
1.22362e-06
1.25784e-06
1.29015e-06
1.32038e-06
1.34838e-06
1.37401e-06
1.39714e-06
1.41765e-06
1.43544e-06
1.45043e-06
1.46254e-06
1.4717e-06
1.47786e-06
1.48099e-06
1.48106e-06
1.47808e-06
1.47203e-06
1.46294e-06
1.45084e-06
1.43579e-06
1.41784e-06
1.39708e-06
1.37361e-06
1.34753e-06
1.31899e-06
1.28811e-06
1.25508e-06
1.22007e-06
1.18329e-06
1.14497e-06
1.10536e-06
1.06473e-06
1.02339e-06
9.81685e-07
9.39987e-07
8.98722e-07
8.58377e-07
8.19516e-07
7.82805e-07
7.49042e-07
7.19212e-07
6.94561e-07
6.76748e-07
6.6808e-07
6.71971e-07
6.93855e-07
7.43276e-07
8.39356e-07
1.02854e-06
1.46464e-06
3.08513e-06
3.67886e-06
1.74364e-06
1.21866e-06
9.86137e-07
8.6291e-07
7.93835e-07
7.56357e-07
7.39333e-07
7.36493e-07
7.43948e-07
7.59115e-07
7.80158e-07
8.05715e-07
8.34737e-07
8.6639e-07
8.99989e-07
9.34961e-07
9.70818e-07
1.00714e-06
1.04354e-06
1.07971e-06
1.11533e-06
1.15015e-06
1.18392e-06
1.21641e-06
1.24743e-06
1.27679e-06
1.30432e-06
1.32986e-06
1.35327e-06
1.37443e-06
1.39322e-06
1.40954e-06
1.42331e-06
1.43444e-06
1.44288e-06
1.44858e-06
1.4515e-06
1.45162e-06
1.44894e-06
1.44345e-06
1.43518e-06
1.42415e-06
1.41043e-06
1.39407e-06
1.37516e-06
1.35379e-06
1.33008e-06
1.30416e-06
1.27618e-06
1.24631e-06
1.21474e-06
1.18168e-06
1.14737e-06
1.11206e-06
1.07605e-06
1.03967e-06
1.00327e-06
9.67265e-07
9.32118e-07
8.98361e-07
8.66608e-07
8.37592e-07
8.12204e-07
7.91558e-07
7.7709e-07
7.70729e-07
7.75197e-07
7.9458e-07
8.35486e-07
9.09659e-07
1.04089e-06
1.28741e-06
1.84273e-06
3.88808e-06
4.45474e-06
2.1094e-06
1.47007e-06
1.18337e-06
1.02765e-06
9.36311e-07
8.8222e-07
8.52044e-07
8.38344e-07
8.36553e-07
8.43653e-07
8.57545e-07
8.76677e-07
8.99867e-07
9.26183e-07
9.54869e-07
9.85298e-07
1.01694e-06
1.04933e-06
1.08208e-06
1.11484e-06
1.14728e-06
1.17914e-06
1.21016e-06
1.2401e-06
1.26876e-06
1.29594e-06
1.32148e-06
1.34522e-06
1.36701e-06
1.38673e-06
1.40426e-06
1.4195e-06
1.43236e-06
1.44277e-06
1.45067e-06
1.456e-06
1.45874e-06
1.45886e-06
1.45636e-06
1.45123e-06
1.4435e-06
1.43321e-06
1.4204e-06
1.40515e-06
1.38753e-06
1.36766e-06
1.34564e-06
1.32161e-06
1.29574e-06
1.26819e-06
1.23917e-06
1.2089e-06
1.17762e-06
1.14562e-06
1.1132e-06
1.0807e-06
1.04851e-06
1.01706e-06
9.86861e-07
9.58481e-07
9.32601e-07
9.10032e-07
8.91765e-07
8.79055e-07
8.73532e-07
8.77413e-07
8.93865e-07
9.27701e-07
9.86764e-07
1.08513e-06
1.2515e-06
1.55632e-06
2.23428e-06
4.71891e-06
5.243e-06
2.48123e-06
1.7262e-06
1.3851e-06
1.19718e-06
1.08415e-06
1.0142e-06
9.7173e-07
9.48097e-07
9.38022e-07
9.38048e-07
9.45769e-07
9.59456e-07
9.77778e-07
9.99703e-07
1.0244e-06
1.05118e-06
1.07947e-06
1.10878e-06
1.13869e-06
1.16881e-06
1.19881e-06
1.22841e-06
1.25734e-06
1.28535e-06
1.31223e-06
1.33779e-06
1.36184e-06
1.38422e-06
1.40479e-06
1.42342e-06
1.43999e-06
1.45441e-06
1.46657e-06
1.47641e-06
1.48386e-06
1.48888e-06
1.49143e-06
1.49149e-06
1.48907e-06
1.48415e-06
1.47677e-06
1.46696e-06
1.45478e-06
1.44029e-06
1.4236e-06
1.40479e-06
1.384e-06
1.36137e-06
1.33707e-06
1.31126e-06
1.28418e-06
1.25604e-06
1.22711e-06
1.19768e-06
1.16809e-06
1.13868e-06
1.10989e-06
1.08217e-06
1.05606e-06
1.0322e-06
1.01131e-06
9.94293e-07
9.82246e-07
9.76568e-07
9.79096e-07
9.92352e-07
1.01998e-06
1.06754e-06
1.14417e-06
1.26635e-06
1.46782e-06
1.83159e-06
2.63439e-06
5.56743e-06
6.03505e-06
2.85502e-06
1.98405e-06
1.58874e-06
1.36901e-06
1.23484e-06
1.14966e-06
1.0956e-06
1.06278e-06
1.04519e-06
1.03892e-06
1.04126e-06
1.05026e-06
1.06448e-06
1.08275e-06
1.10418e-06
1.12801e-06
1.15363e-06
1.1805e-06
1.20817e-06
1.23625e-06
1.26438e-06
1.29225e-06
1.31958e-06
1.34612e-06
1.37166e-06
1.39597e-06
1.41889e-06
1.44025e-06
1.45989e-06
1.47768e-06
1.49351e-06
1.50727e-06
1.51887e-06
1.52824e-06
1.53532e-06
1.54005e-06
1.5424e-06
1.54236e-06
1.53994e-06
1.5351e-06
1.52791e-06
1.51839e-06
1.50661e-06
1.49263e-06
1.47656e-06
1.4585e-06
1.43858e-06
1.41696e-06
1.39379e-06
1.36929e-06
1.34366e-06
1.31716e-06
1.29006e-06
1.26266e-06
1.23532e-06
1.20843e-06
1.18242e-06
1.15779e-06
1.13514e-06
1.11512e-06
1.09854e-06
1.08639e-06
1.07987e-06
1.08053e-06
1.09042e-06
1.1124e-06
1.15057e-06
1.21129e-06
1.305e-06
1.45066e-06
1.68708e-06
2.10999e-06
3.03861e-06
6.4244e-06
6.82335e-06
3.22717e-06
2.24104e-06
1.79211e-06
1.54114e-06
1.3864e-06
1.28659e-06
1.22157e-06
1.18019e-06
1.15572e-06
1.14379e-06
1.1414e-06
1.14636e-06
1.15708e-06
1.17231e-06
1.19105e-06
1.2125e-06
1.23598e-06
1.26094e-06
1.28687e-06
1.31337e-06
1.34006e-06
1.36661e-06
1.39274e-06
1.41818e-06
1.44269e-06
1.46608e-06
1.48814e-06
1.50871e-06
1.52763e-06
1.54477e-06
1.56001e-06
1.57325e-06
1.58438e-06
1.59335e-06
1.60008e-06
1.60453e-06
1.60667e-06
1.60648e-06
1.60397e-06
1.59912e-06
1.59199e-06
1.5826e-06
1.57103e-06
1.55735e-06
1.54167e-06
1.52409e-06
1.50476e-06
1.48382e-06
1.46148e-06
1.43792e-06
1.41338e-06
1.38811e-06
1.36242e-06
1.33663e-06
1.31109e-06
1.28623e-06
1.26252e-06
1.24048e-06
1.22075e-06
1.20404e-06
1.19124e-06
1.18339e-06
1.18184e-06
1.18827e-06
1.20498e-06
1.23513e-06
1.28333e-06
1.3567e-06
1.46705e-06
1.63577e-06
1.90683e-06
2.3886e-06
3.44286e-06
7.28124e-06
7.60134e-06
3.59457e-06
2.49497e-06
1.99337e-06
1.71189e-06
1.53722e-06
1.42338e-06
1.34796e-06
1.2986e-06
1.26783e-06
1.2508e-06
1.2442e-06
1.24567e-06
1.25341e-06
1.2661e-06
1.28264e-06
1.30217e-06
1.32397e-06
1.34743e-06
1.37203e-06
1.39734e-06
1.42294e-06
1.44852e-06
1.47375e-06
1.49837e-06
1.52213e-06
1.54481e-06
1.56623e-06
1.5862e-06
1.60457e-06
1.6212e-06
1.63596e-06
1.64876e-06
1.6595e-06
1.66811e-06
1.67451e-06
1.67868e-06
1.68057e-06
1.68018e-06
1.67751e-06
1.67255e-06
1.66536e-06
1.65597e-06
1.64445e-06
1.63089e-06
1.61539e-06
1.59808e-06
1.57909e-06
1.5586e-06
1.5368e-06
1.51389e-06
1.49013e-06
1.46578e-06
1.44115e-06
1.41659e-06
1.39248e-06
1.36927e-06
1.34744e-06
1.32758e-06
1.31034e-06
1.2965e-06
1.28701e-06
1.28301e-06
1.28594e-06
1.29767e-06
1.32072e-06
1.35857e-06
1.41632e-06
1.50188e-06
1.62838e-06
1.81968e-06
2.12479e-06
2.66469e-06
3.84326e-06
8.12983e-06
8.36337e-06
3.95452e-06
2.74395e-06
2.19098e-06
1.87987e-06
1.68597e-06
1.55872e-06
1.47348e-06
1.41667e-06
1.3801e-06
1.35847e-06
1.34815e-06
1.34657e-06
1.35179e-06
1.36236e-06
1.37712e-06
1.39513e-06
1.41561e-06
1.43793e-06
1.46154e-06
1.48596e-06
1.51078e-06
1.53564e-06
1.56023e-06
1.58425e-06
1.60747e-06
1.62964e-06
1.65058e-06
1.6701e-06
1.68804e-06
1.70426e-06
1.71863e-06
1.73106e-06
1.74144e-06
1.7497e-06
1.75579e-06
1.75965e-06
1.76127e-06
1.76062e-06
1.75772e-06
1.75256e-06
1.74519e-06
1.73568e-06
1.72407e-06
1.71047e-06
1.69499e-06
1.67776e-06
1.65891e-06
1.63864e-06
1.61715e-06
1.59464e-06
1.57139e-06
1.54768e-06
1.52383e-06
1.5002e-06
1.4772e-06
1.4553e-06
1.43501e-06
1.41696e-06
1.40184e-06
1.39049e-06
1.38392e-06
1.38336e-06
1.39036e-06
1.40698e-06
1.43593e-06
1.48103e-06
1.54786e-06
1.64512e-06
1.78724e-06
2.00049e-06
2.33886e-06
2.93568e-06
4.23614e-06
8.96239e-06
9.10477e-06
4.30483e-06
2.98643e-06
2.38367e-06
2.04396e-06
1.8316e-06
1.69157e-06
1.59707e-06
1.53333e-06
1.49143e-06
1.46564e-06
1.45204e-06
1.44782e-06
1.4509e-06
1.45973e-06
1.47305e-06
1.48986e-06
1.50935e-06
1.53083e-06
1.55371e-06
1.57751e-06
1.60178e-06
1.62615e-06
1.6503e-06
1.67391e-06
1.69674e-06
1.71855e-06
1.73914e-06
1.75831e-06
1.77591e-06
1.79179e-06
1.80583e-06
1.81791e-06
1.82796e-06
1.83589e-06
1.84164e-06
1.84517e-06
1.84646e-06
1.8455e-06
1.84229e-06
1.83685e-06
1.82921e-06
1.81945e-06
1.80763e-06
1.79385e-06
1.77823e-06
1.7609e-06
1.74203e-06
1.72179e-06
1.70039e-06
1.67808e-06
1.65511e-06
1.63179e-06
1.60846e-06
1.5855e-06
1.56333e-06
1.54245e-06
1.52341e-06
1.50685e-06
1.49353e-06
1.48433e-06
1.48032e-06
1.48284e-06
1.49354e-06
1.51465e-06
1.5491e-06
1.60101e-06
1.67646e-06
1.78489e-06
1.94202e-06
2.17645e-06
2.54703e-06
3.19908e-06
4.61793e-06
9.77143e-06
9.82185e-06
4.64374e-06
3.22118e-06
2.57044e-06
2.20326e-06
1.97328e-06
1.82114e-06
1.71794e-06
1.64775e-06
1.60098e-06
1.57144e-06
1.55493e-06
1.54843e-06
1.54972e-06
1.55712e-06
1.5693e-06
1.58521e-06
1.60396e-06
1.62484e-06
1.64723e-06
1.67061e-06
1.69453e-06
1.71859e-06
1.74245e-06
1.7658e-06
1.78837e-06
1.80992e-06
1.83024e-06
1.84914e-06
1.86645e-06
1.88204e-06
1.89576e-06
1.90753e-06
1.91723e-06
1.92481e-06
1.9302e-06
1.93336e-06
1.93427e-06
1.93293e-06
1.92934e-06
1.92351e-06
1.91551e-06
1.90539e-06
1.89324e-06
1.87915e-06
1.86324e-06
1.84567e-06
1.8266e-06
1.80621e-06
1.78474e-06
1.76242e-06
1.73954e-06
1.7164e-06
1.69337e-06
1.67084e-06
1.64926e-06
1.62914e-06
1.61108e-06
1.59574e-06
1.58392e-06
1.57656e-06
1.5748e-06
1.58005e-06
1.59412e-06
1.61934e-06
1.65887e-06
1.71716e-06
1.80073e-06
1.91976e-06
2.09119e-06
2.34589e-06
2.74737e-06
3.45248e-06
4.98518e-06
1.05497e-05
1.0512e-05
4.96999e-06
3.44733e-06
2.75057e-06
2.35715e-06
2.11041e-06
1.94684e-06
1.83549e-06
1.75933e-06
1.70811e-06
1.67521e-06
1.65614e-06
1.64768e-06
1.64748e-06
1.65372e-06
1.66503e-06
1.68026e-06
1.6985e-06
1.71898e-06
1.74107e-06
1.7642e-06
1.78791e-06
1.81179e-06
1.83548e-06
1.85866e-06
1.88106e-06
1.90242e-06
1.92253e-06
1.9412e-06
1.95826e-06
1.97356e-06
1.98697e-06
1.9984e-06
2.00774e-06
2.01493e-06
2.01991e-06
2.02264e-06
2.0231e-06
2.02131e-06
2.01724e-06
2.01095e-06
2.00247e-06
1.99188e-06
1.97927e-06
1.96474e-06
1.94842e-06
1.93046e-06
1.91104e-06
1.89036e-06
1.86864e-06
1.84614e-06
1.82316e-06
1.80001e-06
1.77708e-06
1.75477e-06
1.73356e-06
1.71399e-06
1.69665e-06
1.68228e-06
1.67169e-06
1.6659e-06
1.66609e-06
1.67376e-06
1.69084e-06
1.7198e-06
1.76401e-06
1.8282e-06
1.91936e-06
2.04835e-06
2.23329e-06
2.50719e-06
2.93799e-06
3.69355e-06
5.33453e-06
1.12899e-05
1.11735e-05
5.28285e-06
3.66435e-06
2.92364e-06
2.50524e-06
2.24264e-06
2.0683e-06
1.94935e-06
1.86769e-06
1.81242e-06
1.77651e-06
1.75519e-06
1.74506e-06
1.74362e-06
1.74895e-06
1.7596e-06
1.77436e-06
1.79226e-06
1.81251e-06
1.83443e-06
1.85744e-06
1.88106e-06
1.90486e-06
1.92846e-06
1.95153e-06
1.9738e-06
1.99501e-06
2.01493e-06
2.03338e-06
2.05017e-06
2.06517e-06
2.07825e-06
2.08929e-06
2.09822e-06
2.10496e-06
2.10946e-06
2.11168e-06
2.11162e-06
2.10927e-06
2.10464e-06
2.09776e-06
2.0887e-06
2.07753e-06
2.06434e-06
2.04924e-06
2.03237e-06
2.01389e-06
1.99398e-06
1.97285e-06
1.95073e-06
1.92789e-06
1.90464e-06
1.88132e-06
1.85831e-06
1.83603e-06
1.81499e-06
1.79574e-06
1.77892e-06
1.76527e-06
1.75568e-06
1.75118e-06
1.75303e-06
1.76282e-06
1.78256e-06
1.81489e-06
1.86335e-06
1.93297e-06
2.03114e-06
2.16938e-06
2.36692e-06
2.65879e-06
3.11708e-06
3.91999e-06
5.66268e-06
1.19853e-05
1.18061e-05
5.58209e-06
3.8721e-06
3.08951e-06
2.64741e-06
2.36982e-06
2.18538e-06
2.05936e-06
1.97264e-06
1.91368e-06
1.87509e-06
1.85181e-06
1.84027e-06
1.83782e-06
1.84244e-06
1.8526e-06
1.86705e-06
1.88476e-06
1.9049e-06
1.92676e-06
1.94975e-06
1.97335e-06
1.99711e-06
2.02067e-06
2.04367e-06
2.06582e-06
2.08687e-06
2.10659e-06
2.12479e-06
2.14128e-06
2.15593e-06
2.1686e-06
2.1792e-06
2.18763e-06
2.19384e-06
2.19776e-06
2.19938e-06
2.19868e-06
2.19567e-06
2.19035e-06
2.18277e-06
2.17301e-06
2.16113e-06
2.14723e-06
2.13143e-06
2.11388e-06
2.09474e-06
2.0742e-06
2.05247e-06
2.02981e-06
2.00649e-06
1.98282e-06
1.95915e-06
1.93589e-06
1.91347e-06
1.89241e-06
1.8733e-06
1.85678e-06
1.84365e-06
1.8348e-06
1.83134e-06
1.83458e-06
1.84617e-06
1.86824e-06
1.90355e-06
1.95582e-06
2.03034e-06
2.13489e-06
2.2816e-06
2.49073e-06
2.79916e-06
3.28286e-06
4.12957e-06
5.9664e-06
1.26289e-05
1.24104e-05
5.86807e-06
4.0708e-06
3.24838e-06
2.78379e-06
2.49206e-06
2.29816e-06
2.16557e-06
2.07419e-06
2.0119e-06
1.97092e-06
1.94594e-06
1.9332e-06
1.92993e-06
1.93402e-06
1.94385e-06
1.95812e-06
1.97575e-06
1.99586e-06
2.01774e-06
2.04075e-06
2.06436e-06
2.08812e-06
2.11163e-06
2.13455e-06
2.15656e-06
2.17742e-06
2.19688e-06
2.21476e-06
2.23088e-06
2.24509e-06
2.25727e-06
2.26731e-06
2.27514e-06
2.28069e-06
2.28392e-06
2.2848e-06
2.28333e-06
2.27952e-06
2.27338e-06
2.26497e-06
2.25436e-06
2.24163e-06
2.22688e-06
2.21025e-06
2.19188e-06
2.17194e-06
2.15062e-06
2.12816e-06
2.10481e-06
2.08085e-06
2.05661e-06
2.03245e-06
2.00878e-06
1.98606e-06
1.96481e-06
1.94565e-06
1.92924e-06
1.91641e-06
1.90809e-06
1.90541e-06
1.90975e-06
1.92284e-06
1.94689e-06
1.98477e-06
2.04039e-06
2.11925e-06
2.2295e-06
2.38382e-06
2.60341e-06
2.92684e-06
3.43361e-06
4.32012e-06
6.24253e-06
1.32141e-05
1.29884e-05
6.14169e-06
4.26109e-06
3.40071e-06
2.91479e-06
2.6097e-06
2.40693e-06
2.26823e-06
2.17256e-06
2.10725e-06
2.06414e-06
2.03768e-06
2.02395e-06
2.02003e-06
2.02373e-06
2.03335e-06
2.04752e-06
2.06514e-06
2.0853e-06
2.10723e-06
2.13028e-06
2.15392e-06
2.17766e-06
2.20109e-06
2.22387e-06
2.24569e-06
2.26627e-06
2.28539e-06
2.30285e-06
2.31847e-06
2.33212e-06
2.34367e-06
2.35302e-06
2.36009e-06
2.36484e-06
2.36721e-06
2.36719e-06
2.36481e-06
2.36002e-06
2.3529e-06
2.3435e-06
2.33188e-06
2.31814e-06
2.30239e-06
2.28477e-06
2.26542e-06
2.24453e-06
2.2223e-06
2.19896e-06
2.17478e-06
2.15004e-06
2.12509e-06
2.10028e-06
2.07605e-06
2.05286e-06
2.03126e-06
2.01187e-06
1.99539e-06
1.98265e-06
1.97462e-06
1.97249e-06
1.97766e-06
1.99193e-06
2.01759e-06
2.05762e-06
2.11608e-06
2.19868e-06
2.31389e-06
2.4749e-06
2.7037e-06
3.04041e-06
3.56763e-06
4.4895e-06
6.488e-06
1.37344e-05
1.35431e-05
6.40443e-06
4.44397e-06
3.54732e-06
3.04107e-06
2.72333e-06
2.5122e-06
2.3678e-06
2.26817e-06
2.20011e-06
2.1551e-06
2.12736e-06
2.11279e-06
2.10837e-06
2.11178e-06
2.12128e-06
2.13544e-06
2.1531e-06
2.17333e-06
2.19532e-06
2.21841e-06
2.24203e-06
2.2657e-06
2.289e-06
2.31156e-06
2.33307e-06
2.35326e-06
2.37191e-06
2.3888e-06
2.40378e-06
2.4167e-06
2.42744e-06
2.43591e-06
2.44205e-06
2.44579e-06
2.44712e-06
2.44601e-06
2.44249e-06
2.43655e-06
2.42826e-06
2.41766e-06
2.40485e-06
2.38992e-06
2.373e-06
2.35421e-06
2.33372e-06
2.31172e-06
2.28841e-06
2.26404e-06
2.23887e-06
2.21321e-06
2.18739e-06
2.16179e-06
2.13684e-06
2.11304e-06
2.09092e-06
2.07113e-06
2.05438e-06
2.04153e-06
2.03358e-06
2.03174e-06
2.03745e-06
2.05258e-06
2.07948e-06
2.12122e-06
2.18199e-06
2.26769e-06
2.38707e-06
2.55372e-06
2.79039e-06
3.13848e-06
3.68331e-06
4.63567e-06
6.69982e-06
1.41834e-05
1.4079e-05
6.65833e-06
4.62086e-06
3.6893e-06
3.16358e-06
2.83376e-06
2.6147e-06
2.46493e-06
2.36163e-06
2.29105e-06
2.24433e-06
2.21547e-06
2.2002e-06
2.19538e-06
2.1986e-06
2.20804e-06
2.22223e-06
2.23997e-06
2.26026e-06
2.2823e-06
2.30539e-06
2.32894e-06
2.35246e-06
2.37551e-06
2.39774e-06
2.41881e-06
2.43846e-06
2.45645e-06
2.4726e-06
2.48673e-06
2.49871e-06
2.50842e-06
2.51579e-06
2.52075e-06
2.52326e-06
2.52329e-06
2.52087e-06
2.51597e-06
2.50864e-06
2.49894e-06
2.48693e-06
2.47271e-06
2.45638e-06
2.43806e-06
2.41791e-06
2.3961e-06
2.3728e-06
2.34825e-06
2.32268e-06
2.29636e-06
2.26961e-06
2.24277e-06
2.21623e-06
2.19041e-06
2.16583e-06
2.14303e-06
2.12266e-06
2.10546e-06
2.0923e-06
2.0842e-06
2.0824e-06
2.08836e-06
2.10401e-06
2.13175e-06
2.17473e-06
2.23726e-06
2.32538e-06
2.44806e-06
2.61927e-06
2.86234e-06
3.21976e-06
3.77909e-06
4.75665e-06
6.87514e-06
1.4555e-05
1.46015e-05
6.90598e-06
4.79354e-06
3.82807e-06
3.28348e-06
2.94202e-06
2.71537e-06
2.5605e-06
2.45373e-06
2.38081e-06
2.33254e-06
2.30269e-06
2.28683e-06
2.2817e-06
2.2848e-06
2.29424e-06
2.30848e-06
2.32629e-06
2.34664e-06
2.36868e-06
2.3917e-06
2.4151e-06
2.43836e-06
2.46104e-06
2.48277e-06
2.50322e-06
2.52213e-06
2.53926e-06
2.55442e-06
2.56746e-06
2.57824e-06
2.58666e-06
2.59265e-06
2.59615e-06
2.59713e-06
2.5956e-06
2.59155e-06
2.585e-06
2.576e-06
2.56462e-06
2.55093e-06
2.53504e-06
2.51706e-06
2.49712e-06
2.47539e-06
2.45202e-06
2.42723e-06
2.40123e-06
2.37427e-06
2.34663e-06
2.31862e-06
2.2906e-06
2.26294e-06
2.2361e-06
2.21057e-06
2.18692e-06
2.1658e-06
2.14796e-06
2.13428e-06
2.12579e-06
2.12376e-06
2.12968e-06
2.1455e-06
2.17367e-06
2.21741e-06
2.28109e-06
2.3709e-06
2.49597e-06
2.67056e-06
2.91846e-06
3.28302e-06
3.85352e-06
4.85059e-06
7.01125e-06
1.48436e-05
1.51172e-05
7.15049e-06
4.96415e-06
3.96532e-06
3.40221e-06
3.04937e-06
2.81532e-06
2.65553e-06
2.54545e-06
2.47032e-06
2.42062e-06
2.38988e-06
2.37351e-06
2.36814e-06
2.37118e-06
2.38064e-06
2.39496e-06
2.41284e-06
2.43321e-06
2.4552e-06
2.47807e-06
2.5012e-06
2.52406e-06
2.5462e-06
2.56724e-06
2.58686e-06
2.60479e-06
2.62079e-06
2.6347e-06
2.64634e-06
2.65561e-06
2.66242e-06
2.66669e-06
2.6684e-06
2.66753e-06
2.66408e-06
2.65806e-06
2.64953e-06
2.63853e-06
2.62515e-06
2.60947e-06
2.59161e-06
2.57169e-06
2.54986e-06
2.52627e-06
2.50111e-06
2.47458e-06
2.44691e-06
2.41835e-06
2.38918e-06
2.35973e-06
2.33033e-06
2.30138e-06
2.27334e-06
2.24669e-06
2.22201e-06
2.19995e-06
2.18127e-06
2.16685e-06
2.15774e-06
2.15521e-06
2.16077e-06
2.17639e-06
2.20457e-06
2.24854e-06
2.31276e-06
2.40348e-06
2.52998e-06
2.7067e-06
2.95777e-06
3.32712e-06
3.90525e-06
4.91576e-06
7.10564e-06
1.50437e-05
1.56337e-05
7.39546e-06
5.13516e-06
4.10298e-06
3.52141e-06
3.15724e-06
2.91588e-06
2.75122e-06
2.63791e-06
2.56065e-06
2.5096e-06
2.47805e-06
2.46125e-06
2.4557e-06
2.45872e-06
2.46824e-06
2.48264e-06
2.50057e-06
2.52092e-06
2.54279e-06
2.56541e-06
2.58814e-06
2.61044e-06
2.63184e-06
2.65197e-06
2.67051e-06
2.68717e-06
2.70175e-06
2.71406e-06
2.72396e-06
2.73136e-06
2.73617e-06
2.73835e-06
2.73787e-06
2.73475e-06
2.72897e-06
2.7206e-06
2.70969e-06
2.69631e-06
2.68056e-06
2.66253e-06
2.64235e-06
2.62016e-06
2.5961e-06
2.57036e-06
2.54311e-06
2.51457e-06
2.48497e-06
2.45457e-06
2.42365e-06
2.39253e-06
2.36155e-06
2.33112e-06
2.30167e-06
2.27371e-06
2.24781e-06
2.22461e-06
2.20488e-06
2.18949e-06
2.17951e-06
2.17619e-06
2.18107e-06
2.19612e-06
2.22385e-06
2.26753e-06
2.33163e-06
2.42246e-06
2.54937e-06
2.7269e-06
2.97937e-06
3.35104e-06
3.93305e-06
4.95062e-06
7.15605e-06
1.51507e-05
1.61596e-05
7.64491e-06
5.30934e-06
4.24325e-06
3.6429e-06
3.26725e-06
3.01848e-06
2.84894e-06
2.7324e-06
2.65305e-06
2.60069e-06
2.56839e-06
2.55122e-06
2.54554e-06
2.54859e-06
2.55821e-06
2.57271e-06
2.59067e-06
2.61096e-06
2.63263e-06
2.65489e-06
2.67707e-06
2.69862e-06
2.71907e-06
2.73803e-06
2.75517e-06
2.77025e-06
2.78304e-06
2.79337e-06
2.80114e-06
2.80624e-06
2.80861e-06
2.80824e-06
2.80513e-06
2.79928e-06
2.79073e-06
2.77955e-06
2.76582e-06
2.74962e-06
2.73106e-06
2.71026e-06
2.68736e-06
2.66251e-06
2.63587e-06
2.60761e-06
2.57795e-06
2.54709e-06
2.51526e-06
2.48274e-06
2.4498e-06
2.41676e-06
2.38398e-06
2.35183e-06
2.32077e-06
2.29128e-06
2.26394e-06
2.23938e-06
2.21837e-06
2.20178e-06
2.19066e-06
2.18626e-06
2.19012e-06
2.2042e-06
2.23101e-06
2.27384e-06
2.33714e-06
2.42724e-06
2.55349e-06
2.73047e-06
2.9825e-06
3.3539e-06
3.93589e-06
4.95385e-06
7.16057e-06
1.51603e-05
1.67041e-05
7.90319e-06
5.48968e-06
4.38846e-06
3.76868e-06
3.38114e-06
3.12472e-06
2.95016e-06
2.83032e-06
2.74885e-06
2.69521e-06
2.66221e-06
2.64473e-06
2.63901e-06
2.64215e-06
2.65191e-06
2.66653e-06
2.68452e-06
2.70471e-06
2.72611e-06
2.74789e-06
2.76935e-06
2.78995e-06
2.80918e-06
2.82667e-06
2.8421e-06
2.85521e-06
2.8658e-06
2.87372e-06
2.87888e-06
2.88119e-06
2.88064e-06
2.87721e-06
2.87092e-06
2.86183e-06
2.84998e-06
2.83548e-06
2.81841e-06
2.79888e-06
2.77703e-06
2.75299e-06
2.72691e-06
2.69896e-06
2.66931e-06
2.63815e-06
2.60569e-06
2.57215e-06
2.53776e-06
2.5028e-06
2.46754e-06
2.4323e-06
2.39743e-06
2.36332e-06
2.33039e-06
2.29914e-06
2.27012e-06
2.24397e-06
2.22144e-06
2.20338e-06
2.19085e-06
2.18508e-06
2.18761e-06
2.20034e-06
2.2258e-06
2.26722e-06
2.32905e-06
2.41758e-06
2.5421e-06
2.71711e-06
2.96682e-06
3.33527e-06
3.91319e-06
4.92464e-06
7.11798e-06
1.50702e-05
1.72772e-05
8.17498e-06
5.67938e-06
4.54113e-06
3.90085e-06
3.50076e-06
3.23628e-06
3.05644e-06
2.93317e-06
2.84954e-06
2.79463e-06
2.76098e-06
2.74327e-06
2.73758e-06
2.7409e-06
2.75089e-06
2.76567e-06
2.78372e-06
2.80379e-06
2.82483e-06
2.846e-06
2.86658e-06
2.88598e-06
2.90372e-06
2.9194e-06
2.93272e-06
2.94343e-06
2.95135e-06
2.95636e-06
2.95837e-06
2.95735e-06
2.95329e-06
2.94621e-06
2.93616e-06
2.92323e-06
2.9075e-06
2.88908e-06
2.8681e-06
2.84469e-06
2.819e-06
2.79118e-06
2.76141e-06
2.72987e-06
2.69674e-06
2.66222e-06
2.62654e-06
2.58991e-06
2.55258e-06
2.51481e-06
2.47689e-06
2.43913e-06
2.40188e-06
2.36551e-06
2.33045e-06
2.29721e-06
2.2663e-06
2.23835e-06
2.21407e-06
2.19432e-06
2.18009e-06
2.17262e-06
2.1734e-06
2.18431e-06
2.20786e-06
2.24723e-06
2.30682e-06
2.39284e-06
2.51446e-06
2.68602e-06
2.93141e-06
3.29415e-06
3.86381e-06
4.86161e-06
7.02629e-06
1.48758e-05
1.78891e-05
8.46507e-06
5.88174e-06
4.70384e-06
4.04157e-06
3.62802e-06
3.35489e-06
3.16942e-06
3.04253e-06
2.95666e-06
2.90049e-06
2.86626e-06
2.84844e-06
2.84292e-06
2.84656e-06
2.85688e-06
2.87191e-06
2.89005e-06
2.90998e-06
2.9306e-06
2.95103e-06
2.97052e-06
2.98846e-06
3.00437e-06
3.01785e-06
3.02861e-06
3.03643e-06
3.04114e-06
3.04265e-06
3.04091e-06
3.03592e-06
3.0277e-06
3.01631e-06
3.00185e-06
2.98441e-06
2.96414e-06
2.94115e-06
2.91562e-06
2.8877e-06
2.85756e-06
2.82538e-06
2.79136e-06
2.75568e-06
2.71856e-06
2.68019e-06
2.64081e-06
2.60065e-06
2.55995e-06
2.51898e-06
2.47802e-06
2.43741e-06
2.39747e-06
2.35857e-06
2.32111e-06
2.28554e-06
2.25239e-06
2.22227e-06
2.19589e-06
2.17407e-06
2.15779e-06
2.14825e-06
2.14691e-06
2.15561e-06
2.17676e-06
2.21351e-06
2.27016e-06
2.35279e-06
2.47041e-06
2.63706e-06
2.87617e-06
3.23041e-06
3.78758e-06
4.76449e-06
6.88506e-06
1.45764e-05
1.85501e-05
8.77837e-06
6.10007e-06
4.87919e-06
4.19302e-06
3.76483e-06
3.48232e-06
3.29077e-06
3.16001e-06
3.07183e-06
3.01443e-06
2.97974e-06
2.96197e-06
2.95681e-06
2.96094e-06
2.97176e-06
2.98717e-06
3.00547e-06
3.02526e-06
3.04539e-06
3.06493e-06
3.08309e-06
3.09926e-06
3.11295e-06
3.12378e-06
3.13146e-06
3.13579e-06
3.13666e-06
3.13401e-06
3.12782e-06
3.11813e-06
3.10502e-06
3.08859e-06
3.06896e-06
3.04629e-06
3.02074e-06
2.99248e-06
2.96169e-06
2.92859e-06
2.89335e-06
2.85618e-06
2.81729e-06
2.7769e-06
2.73521e-06
2.69246e-06
2.64888e-06
2.6047e-06
2.56018e-06
2.5156e-06
2.47123e-06
2.42735e-06
2.3843e-06
2.34244e-06
2.30217e-06
2.26394e-06
2.22826e-06
2.19571e-06
2.16695e-06
2.14279e-06
2.12416e-06
2.11222e-06
2.10839e-06
2.11444e-06
2.13271e-06
2.16625e-06
2.21924e-06
2.2976e-06
2.41008e-06
2.57034e-06
2.8012e-06
3.14415e-06
3.6846e-06
4.63339e-06
6.69446e-06
1.41722e-05
1.92707e-05
9.11968e-06
6.33768e-06
5.06973e-06
4.35735e-06
3.91308e-06
3.62029e-06
3.42214e-06
3.28726e-06
3.19669e-06
3.13815e-06
3.10317e-06
3.08569e-06
3.08115e-06
3.08603e-06
3.09756e-06
3.11351e-06
3.13206e-06
3.15173e-06
3.17128e-06
3.18973e-06
3.20629e-06
3.22031e-06
3.2313e-06
3.23891e-06
3.24287e-06
3.24305e-06
3.23934e-06
3.23175e-06
3.22031e-06
3.2051e-06
3.18627e-06
3.16395e-06
3.13834e-06
3.10962e-06
3.078e-06
3.04369e-06
3.00691e-06
2.9679e-06
2.92686e-06
2.88404e-06
2.83965e-06
2.79393e-06
2.74711e-06
2.69943e-06
2.65111e-06
2.60243e-06
2.55362e-06
2.50493e-06
2.45666e-06
2.40909e-06
2.36256e-06
2.3174e-06
2.274e-06
2.2328e-06
2.19426e-06
2.15895e-06
2.12751e-06
2.10069e-06
2.07939e-06
2.06471e-06
2.058e-06
2.06099e-06
2.07587e-06
2.10563e-06
2.15426e-06
2.22748e-06
2.33372e-06
2.48617e-06
2.70683e-06
3.03576e-06
3.55533e-06
4.4689e-06
6.45529e-06
1.36649e-05
2.00605e-05
9.49363e-06
6.59768e-06
5.27788e-06
4.53657e-06
4.07456e-06
3.77048e-06
3.56514e-06
3.42588e-06
3.33291e-06
3.27337e-06
3.23837e-06
3.22153e-06
3.21795e-06
3.22391e-06
3.23643e-06
3.25312e-06
3.27203e-06
3.29155e-06
3.31039e-06
3.32751e-06
3.34207e-06
3.35344e-06
3.36115e-06
3.36483e-06
3.36433e-06
3.35951e-06
3.35035e-06
3.3369e-06
3.31927e-06
3.29761e-06
3.27211e-06
3.24299e-06
3.21048e-06
3.17483e-06
3.13628e-06
3.09511e-06
3.05156e-06
3.00588e-06
2.95834e-06
2.90919e-06
2.85866e-06
2.807e-06
2.75447e-06
2.7013e-06
2.64774e-06
2.59404e-06
2.54044e-06
2.48721e-06
2.43463e-06
2.38299e-06
2.33259e-06
2.28377e-06
2.2369e-06
2.19238e-06
2.15066e-06
2.11228e-06
2.07784e-06
2.04805e-06
2.02375e-06
2.00599e-06
1.99605e-06
1.99557e-06
2.00662e-06
2.03204e-06
2.07565e-06
2.1429e-06
2.24186e-06
2.38513e-06
2.59375e-06
2.90602e-06
3.40071e-06
4.2722e-06
6.16928e-06
1.30582e-05
2.09289e-05
9.9045e-06
6.88295e-06
5.50586e-06
4.73252e-06
4.25091e-06
3.9344e-06
3.72129e-06
3.57744e-06
3.48213e-06
3.42184e-06
3.38721e-06
3.37144e-06
3.36927e-06
3.37671e-06
3.39055e-06
3.4082e-06
3.42753e-06
3.44685e-06
3.46476e-06
3.48016e-06
3.49222e-06
3.50028e-06
3.50389e-06
3.50282e-06
3.49688e-06
3.48605e-06
3.47037e-06
3.44998e-06
3.42506e-06
3.39586e-06
3.36263e-06
3.32567e-06
3.28528e-06
3.24174e-06
3.19538e-06
3.14649e-06
3.09537e-06
3.04229e-06
2.98754e-06
2.9314e-06
2.87412e-06
2.81596e-06
2.75718e-06
2.69802e-06
2.63873e-06
2.57956e-06
2.52076e-06
2.46259e-06
2.40533e-06
2.34924e-06
2.29463e-06
2.24181e-06
2.19114e-06
2.143e-06
2.09781e-06
2.05607e-06
2.01833e-06
1.98528e-06
1.9577e-06
1.93655e-06
1.92305e-06
1.91871e-06
1.92552e-06
1.94611e-06