/*--------------------------------*- C++ -*----------------------------------*\
  =========                 |
  \\      /  F ield         | OpenFOAM: The Open Source CFD Toolbox
   \\    /   O peration     | Website:  https://openfoam.org
    \\  /    A nd           | Version:  12
     \\/     M anipulation  |
\*---------------------------------------------------------------------------*/
FoamFile
{
    format      ascii;
    class       volScalarField;
    location    "4";
    object      k;
}
// * * * * * * * * * * * * * * * * * * * * * * * * * * * * * * * * * * * * * //

dimensions      [0 2 -2 0 0 0 0];

internalField   nonuniform List<scalar> 
5625
(
2.72223e-11
2.05623e-10
4.35888e-10
7.10798e-10
1.02053e-09
1.35766e-09
1.7168e-09
2.09376e-09
2.48516e-09
2.88803e-09
3.29975e-09
3.71789e-09
4.14017e-09
4.56445e-09
4.98869e-09
5.41092e-09
5.82925e-09
6.24185e-09
6.64698e-09
7.04293e-09
7.42809e-09
7.80088e-09
8.15983e-09
8.50348e-09
8.8305e-09
9.1396e-09
9.42956e-09
9.69926e-09
9.94766e-09
1.01738e-08
1.03767e-08
1.05557e-08
1.07101e-08
1.08392e-08
1.09424e-08
1.10195e-08
1.107e-08
1.10937e-08
1.10906e-08
1.10605e-08
1.10035e-08
1.09198e-08
1.08096e-08
1.06733e-08
1.05114e-08
1.03243e-08
1.01129e-08
9.87779e-09
9.61989e-09
9.34014e-09
9.03959e-09
8.71937e-09
8.38072e-09
8.02495e-09
7.65346e-09
7.26776e-09
6.86941e-09
6.46007e-09
6.0415e-09
5.61551e-09
5.18401e-09
4.74901e-09
4.3126e-09
3.87698e-09
3.44447e-09
3.01754e-09
2.59882e-09
2.19119e-09
1.79788e-09
1.42258e-09
1.06982e-09
7.45383e-10
4.57203e-10
2.15703e-10
2.85565e-11
1.84033e-10
1.63809e-09
3.73377e-09
6.24059e-09
9.05028e-09
1.20979e-08
1.53379e-08
1.8735e-08
2.22596e-08
2.58861e-08
2.9591e-08
3.33529e-08
3.71515e-08
4.09677e-08
4.47831e-08
4.85802e-08
5.23421e-08
5.60523e-08
5.96952e-08
6.32556e-08
6.67188e-08
7.00709e-08
7.32984e-08
7.63885e-08
7.9329e-08
8.21083e-08
8.47157e-08
8.7141e-08
8.93747e-08
9.14082e-08
9.32335e-08
9.48434e-08
9.62318e-08
9.73929e-08
9.83222e-08
9.90157e-08
9.94706e-08
9.96846e-08
9.96565e-08
9.93863e-08
9.8874e-08
9.81213e-08
9.71307e-08
9.59053e-08
9.44494e-08
9.2768e-08
9.0867e-08
8.87534e-08
8.64347e-08
8.39195e-08
8.12172e-08
7.8338e-08
7.5293e-08
7.2094e-08
6.87537e-08
6.52853e-08
6.17032e-08
5.80221e-08
5.42578e-08
5.04265e-08
4.65455e-08
4.26326e-08
3.87066e-08
3.47873e-08
3.08953e-08
2.70526e-08
2.32827e-08
1.96111e-08
1.60658e-08
1.26792e-08
9.48946e-09
6.54566e-09
3.91719e-09
1.71876e-09
1.93096e-10
4.08999e-10
3.66794e-09
8.41521e-09
1.41335e-08
2.05686e-08
2.75645e-08
3.5011e-08
4.28234e-08
5.09319e-08
5.92759e-08
6.7801e-08
7.64574e-08
8.51984e-08
9.39798e-08
1.02759e-07
1.11497e-07
1.20153e-07
1.28691e-07
1.37073e-07
1.45266e-07
1.53236e-07
1.60949e-07
1.68377e-07
1.75488e-07
1.82256e-07
1.88653e-07
1.94654e-07
2.00237e-07
2.05379e-07
2.10061e-07
2.14264e-07
2.17972e-07
2.2117e-07
2.23845e-07
2.25987e-07
2.27587e-07
2.28638e-07
2.29135e-07
2.29075e-07
2.28459e-07
2.27285e-07
2.25557e-07
2.23282e-07
2.20467e-07
2.17121e-07
2.13255e-07
2.08884e-07
2.04023e-07
1.9869e-07
1.92904e-07
1.86687e-07
1.80062e-07
1.73055e-07
1.65693e-07
1.58005e-07
1.50022e-07
1.41776e-07
1.33302e-07
1.24636e-07
1.15815e-07
1.06879e-07
9.78694e-08
8.88292e-08
7.98039e-08
7.08414e-08
6.19925e-08
5.33118e-08
4.48586e-08
3.66991e-08
2.89096e-08
2.15821e-08
1.48349e-08
8.83484e-09
3.85132e-09
4.29449e-10
6.75856e-10
6.07113e-09
1.3958e-08
2.3491e-08
3.4249e-08
4.59685e-08
5.84611e-08
7.15807e-08
8.52067e-08
9.92351e-08
1.13573e-07
1.28134e-07
1.42841e-07
1.57617e-07
1.72391e-07
1.87096e-07
2.01665e-07
2.16035e-07
2.30145e-07
2.43937e-07
2.57353e-07
2.7034e-07
2.82845e-07
2.9482e-07
3.06216e-07
3.16989e-07
3.27098e-07
3.36502e-07
3.45165e-07
3.53054e-07
3.60138e-07
3.66389e-07
3.71782e-07
3.76296e-07
3.79913e-07
3.82617e-07
3.84397e-07
3.85245e-07
3.85155e-07
3.84129e-07
3.82163e-07
3.79266e-07
3.75446e-07
3.70716e-07
3.65092e-07
3.58593e-07
3.51241e-07
3.43064e-07
3.3409e-07
3.24353e-07
3.13889e-07
3.02737e-07
2.90941e-07
2.78545e-07
2.656e-07
2.52156e-07
2.3827e-07
2.23998e-07
2.09401e-07
1.94544e-07
1.79493e-07
1.64317e-07
1.49091e-07
1.3389e-07
1.18798e-07
1.03899e-07
8.92884e-08
7.50668e-08
6.13489e-08
4.8266e-08
3.59769e-08
2.46844e-08
1.46705e-08
6.38183e-09
7.10449e-10
9.72019e-10
8.7368e-09
2.01052e-08
3.38713e-08
4.94335e-08
6.64117e-08
8.4532e-08
1.0358e-07
1.23378e-07
1.43772e-07
1.64625e-07
1.85811e-07
2.07214e-07
2.28722e-07
2.50232e-07
2.71644e-07
2.92861e-07
3.13791e-07
3.34344e-07
3.54436e-07
3.73983e-07
3.92906e-07
4.1113e-07
4.28583e-07
4.45194e-07
4.609e-07
4.75639e-07
4.89354e-07
5.01991e-07
5.135e-07
5.23838e-07
5.32964e-07
5.40841e-07
5.47438e-07
5.52729e-07
5.5669e-07
5.59306e-07
5.60563e-07
5.60454e-07
5.58981e-07
5.56138e-07
5.51937e-07
5.46391e-07
5.39517e-07
5.31338e-07
5.21883e-07
5.11185e-07
4.99281e-07
4.86214e-07
4.72033e-07
4.56791e-07
4.40544e-07
4.23355e-07
4.05292e-07
3.86425e-07
3.66831e-07
3.46589e-07
3.25785e-07
3.04507e-07
2.82848e-07
2.60908e-07
2.38787e-07
2.16595e-07
1.94444e-07
1.72454e-07
1.50754e-07
1.29482e-07
1.08788e-07
8.88409e-08
6.98358e-08
5.20054e-08
3.56455e-08
2.11632e-08
9.19769e-09
1.0233e-09
1.28929e-09
1.15918e-08
2.66879e-08
4.4987e-08
6.56964e-08
8.83135e-08
1.12474e-07
1.37892e-07
1.64329e-07
1.91576e-07
2.1945e-07
2.47779e-07
2.76407e-07
3.05185e-07
3.33972e-07
3.62633e-07
3.91038e-07
4.19063e-07
4.46589e-07
4.73501e-07
4.99687e-07
5.25041e-07
5.49462e-07
5.72852e-07
5.9512e-07
6.16177e-07
6.35942e-07
6.54337e-07
6.71292e-07
6.86739e-07
7.00618e-07
7.12875e-07
7.2346e-07
7.32333e-07
7.39456e-07
7.448e-07
7.4834e-07
7.50061e-07
7.49951e-07
7.48015e-07
7.4424e-07
7.38645e-07
7.31246e-07
7.22065e-07
7.11135e-07
6.98491e-07
6.84178e-07
6.68246e-07
6.50754e-07
6.31764e-07
6.11349e-07
5.89585e-07
5.66555e-07
5.4235e-07
5.17065e-07
4.90803e-07
4.63671e-07
4.35784e-07
4.07262e-07
3.7823e-07
3.48821e-07
3.19174e-07
2.89435e-07
2.59757e-07
2.30303e-07
2.01246e-07
1.72774e-07
1.4509e-07
1.18424e-07
9.3037e-08
6.9241e-08
4.74301e-08
2.81436e-08
1.22256e-08
1.35979e-09
1.62145e-09
1.45804e-08
3.35781e-08
5.66213e-08
8.27182e-08
1.1124e-07
1.41729e-07
1.73824e-07
2.07224e-07
2.41666e-07
2.76914e-07
3.12752e-07
3.4898e-07
3.85408e-07
4.21856e-07
4.58153e-07
4.94135e-07
5.29642e-07
5.64523e-07
5.98632e-07
6.31827e-07
6.63974e-07
6.94943e-07
7.24611e-07
7.5286e-07
7.7958e-07
8.04666e-07
8.28021e-07
8.49552e-07
8.69176e-07
8.86815e-07
9.02401e-07
9.15871e-07
9.27171e-07
9.36255e-07
9.43084e-07
9.47627e-07
9.49863e-07
9.49778e-07
9.47377e-07
9.42643e-07
9.35599e-07
9.26263e-07
9.14667e-07
9.00848e-07
8.84852e-07
8.66735e-07
8.46562e-07
8.24403e-07
8.00342e-07
7.74467e-07
7.46877e-07
7.17677e-07
6.86982e-07
6.54913e-07
6.21602e-07
5.87185e-07
5.51809e-07
5.15627e-07
4.78799e-07
4.41495e-07
4.03893e-07
3.6618e-07
3.28551e-07
2.91217e-07
2.54397e-07
2.18333e-07
1.83284e-07
1.49541e-07
1.17436e-07
8.73647e-08
5.98215e-08
3.54838e-08
1.54099e-08
1.71369e-09
1.96341e-09
1.76571e-08
4.06705e-08
6.85963e-08
1.00238e-07
1.34837e-07
1.71841e-07
2.10814e-07
2.51389e-07
2.93248e-07
3.36102e-07
3.79688e-07
4.23762e-07
4.68092e-07
5.12458e-07
5.5665e-07
6.00468e-07
6.43718e-07
6.86215e-07
7.27778e-07
7.68236e-07
8.07424e-07
8.45185e-07
8.81367e-07
9.15827e-07
9.4843e-07
9.79048e-07
1.00756e-06
1.03386e-06
1.05783e-06
1.07939e-06
1.09846e-06
1.11494e-06
1.12879e-06
1.13994e-06
1.14833e-06
1.15395e-06
1.15675e-06
1.15672e-06
1.15387e-06
1.14817e-06
1.13965e-06
1.12833e-06
1.11425e-06
1.09746e-06
1.07801e-06
1.05597e-06
1.03141e-06
1.00442e-06
9.75111e-07
9.43581e-07
9.09952e-07
8.74354e-07
8.36927e-07
7.97819e-07
7.57192e-07
7.15213e-07
6.72062e-07
6.27927e-07
5.83006e-07
5.37507e-07
4.91649e-07
4.45661e-07
3.99786e-07
3.54279e-07
3.09413e-07
2.65482e-07
2.22804e-07
1.81735e-07
1.42679e-07
1.06114e-07
7.26408e-08
4.30778e-08
1.87045e-08
2.07989e-09
2.31084e-09
2.07827e-08
4.78753e-08
8.07603e-08
1.18034e-07
1.58805e-07
2.02428e-07
2.48387e-07
2.96254e-07
3.4565e-07
3.96238e-07
4.47705e-07
4.99762e-07
5.52136e-07
6.04565e-07
6.56801e-07
7.08606e-07
7.5975e-07
8.10013e-07
8.59183e-07
9.07057e-07
9.53437e-07
9.98138e-07
1.04098e-06
1.08179e-06
1.12042e-06
1.1567e-06
1.1905e-06
1.22169e-06
1.25013e-06
1.27573e-06
1.29837e-06
1.31797e-06
1.33444e-06
1.34773e-06
1.35776e-06
1.3645e-06
1.36792e-06
1.36798e-06
1.3647e-06
1.35804e-06
1.34805e-06
1.33474e-06
1.31815e-06
1.29835e-06
1.27539e-06
1.24935e-06
1.22033e-06
1.18843e-06
1.15376e-06
1.11646e-06
1.07666e-06
1.03453e-06
9.90221e-07
9.43917e-07
8.95807e-07
8.46093e-07
7.94987e-07
7.42715e-07
6.89512e-07
6.35628e-07
5.81323e-07
5.26871e-07
4.72561e-07
4.18698e-07
3.65607e-07
3.13636e-07
2.63164e-07
2.14611e-07
1.68455e-07
1.25259e-07
8.57313e-08
5.08329e-08
2.20691e-08
2.45388e-09
2.65994e-09
2.39232e-08
5.51142e-08
9.29809e-08
1.35911e-07
1.82882e-07
2.33152e-07
2.8613e-07
3.41321e-07
3.98291e-07
4.5665e-07
5.16039e-07
5.76123e-07
6.36585e-07
6.97125e-07
7.57456e-07
8.173e-07
8.76394e-07
9.34482e-07
9.91318e-07
1.04667e-06
1.1003e-06
1.15201e-06
1.20157e-06
1.2488e-06
1.29351e-06
1.33553e-06
1.37468e-06
1.41082e-06
1.44379e-06
1.47348e-06
1.49976e-06
1.52253e-06
1.54169e-06
1.55717e-06
1.56889e-06
1.5768e-06
1.58086e-06
1.58105e-06
1.57738e-06
1.56979e-06
1.55834e-06
1.54305e-06
1.52396e-06
1.50115e-06
1.47467e-06
1.44463e-06
1.41112e-06
1.37427e-06
1.33422e-06
1.2911e-06
1.24509e-06
1.19636e-06
1.1451e-06
1.09153e-06
1.03586e-06
9.78332e-07
9.19187e-07
8.5869e-07
7.97117e-07
7.34756e-07
6.71912e-07
6.08904e-07
5.46069e-07
4.83762e-07
4.2236e-07
3.62267e-07
3.03922e-07
2.47811e-07
1.94484e-07
1.44593e-07
9.89509e-08
5.86647e-08
2.54672e-08
2.8316e-09
3.00738e-09
2.70488e-08
6.23181e-08
1.05142e-07
1.537e-07
2.06839e-07
2.63721e-07
3.2368e-07
3.86156e-07
4.5066e-07
5.16751e-07
5.84021e-07
6.52092e-07
7.20604e-07
7.89218e-07
8.57607e-07
9.25458e-07
9.9247e-07
1.05835e-06
1.12283e-06
1.18563e-06
1.2465e-06
1.30519e-06
1.36147e-06
1.41511e-06
1.46591e-06
1.51365e-06
1.55816e-06
1.59925e-06
1.63677e-06
1.67057e-06
1.7005e-06
1.72646e-06
1.74833e-06
1.76603e-06
1.77946e-06
1.78858e-06
1.79332e-06
1.79367e-06
1.78964e-06
1.78116e-06
1.76829e-06
1.75105e-06
1.7295e-06
1.70371e-06
1.67375e-06
1.63973e-06
1.60177e-06
1.56e-06
1.51457e-06
1.46566e-06
1.41345e-06
1.35814e-06
1.29995e-06
1.23912e-06
1.1759e-06
1.11056e-06
1.04338e-06
9.7466e-07
9.04715e-07
8.33876e-07
7.62493e-07
6.90928e-07
6.19567e-07
5.48815e-07
4.79101e-07
4.10887e-07
3.4467e-07
2.81002e-07
2.20507e-07
1.63923e-07
1.12168e-07
6.64951e-08
2.88648e-08
3.20926e-09
3.35028e-09
3.01333e-08
6.94272e-08
1.17142e-07
1.71252e-07
2.30475e-07
2.93878e-07
3.60721e-07
4.30381e-07
5.02314e-07
5.76027e-07
6.51067e-07
7.27013e-07
8.03463e-07
8.80037e-07
9.56373e-07
1.03212e-06
1.10694e-06
1.18052e-06
1.25253e-06
1.32269e-06
1.3907e-06
1.45629e-06
1.5192e-06
1.57917e-06
1.63598e-06
1.68939e-06
1.73919e-06
1.78519e-06
1.82722e-06
1.86509e-06
1.89866e-06
1.92779e-06
1.95236e-06
1.97227e-06
1.98743e-06
1.99776e-06
2.00321e-06
2.00375e-06
1.99939e-06
1.99007e-06
1.97582e-06
1.95669e-06
1.93274e-06
1.90403e-06
1.87066e-06
1.83273e-06
1.79039e-06
1.74377e-06
1.69306e-06
1.63843e-06
1.5801e-06
1.5183e-06
1.45326e-06
1.38525e-06
1.31457e-06
1.2415e-06
1.16636e-06
1.0895e-06
1.01127e-06
9.32039e-07
8.52198e-07
7.7216e-07
6.92355e-07
6.13239e-07
5.35294e-07
4.59036e-07
3.85023e-07
3.13871e-07
2.46278e-07
1.83065e-07
1.25257e-07
7.42498e-08
3.22295e-08
3.58328e-09
3.68615e-09
3.31546e-08
7.639e-08
1.28894e-07
1.8844e-07
2.53619e-07
3.23404e-07
3.96983e-07
4.73672e-07
5.5287e-07
6.34037e-07
7.16676e-07
8.0032e-07
8.84529e-07
9.68885e-07
1.05299e-06
1.13645e-06
1.2189e-06
1.29999e-06
1.37938e-06
1.45672e-06
1.53171e-06
1.60405e-06
1.67343e-06
1.7396e-06
1.80228e-06
1.86124e-06
1.91623e-06
1.96704e-06
2.01347e-06
2.05534e-06
2.09247e-06
2.12472e-06
2.15195e-06
2.17404e-06
2.1909e-06
2.20244e-06
2.20861e-06
2.20937e-06
2.20471e-06
2.19458e-06
2.17902e-06
2.15807e-06
2.13178e-06
2.10024e-06
2.06355e-06
2.02183e-06
1.97522e-06
1.92388e-06
1.868e-06
1.8078e-06
1.74349e-06
1.67533e-06
1.60359e-06
1.52856e-06
1.45056e-06
1.36992e-06
1.287e-06
1.20216e-06
1.1158e-06
1.02834e-06
9.40204e-07
8.51853e-07
7.63765e-07
6.76444e-07
5.90424e-07
5.06275e-07
4.24613e-07
3.4612e-07
2.71562e-07
2.01845e-07
1.38098e-07
8.1858e-08
3.55307e-08
3.95024e-09
4.01292e-09
3.60939e-08
8.31637e-08
1.40326e-07
2.05159e-07
2.76127e-07
3.52115e-07
4.32239e-07
5.15755e-07
6.02009e-07
6.90413e-07
7.80424e-07
8.71537e-07
9.63271e-07
1.05517e-06
1.1468e-06
1.23774e-06
1.32759e-06
1.41596e-06
1.50247e-06
1.58677e-06
1.66852e-06
1.74738e-06
1.82304e-06
1.89519e-06
1.96356e-06
2.02787e-06
2.08788e-06
2.14334e-06
2.19404e-06
2.23977e-06
2.28035e-06
2.31562e-06
2.34543e-06
2.36964e-06
2.38816e-06
2.40088e-06
2.40775e-06
2.40872e-06
2.4038e-06
2.3929e-06
2.37608e-06
2.35338e-06
2.32486e-06
2.2906e-06
2.25071e-06
2.20532e-06
2.15458e-06
2.09869e-06
2.03782e-06
1.97222e-06
1.90212e-06
1.82781e-06
1.74958e-06
1.66775e-06
1.58266e-06
1.49468e-06
1.40419e-06
1.31161e-06
1.21736e-06
1.12191e-06
1.02572e-06
9.29292e-07
8.33157e-07
7.37863e-07
6.43996e-07
5.52179e-07
4.63085e-07
3.77457e-07
2.96131e-07
2.20095e-07
1.50577e-07
8.92512e-08
3.87387e-08
4.30684e-09
4.32899e-09
3.89368e-08
8.97146e-08
1.51381e-07
2.21323e-07
2.97886e-07
3.79866e-07
4.6631e-07
5.56415e-07
6.49475e-07
7.44857e-07
8.41974e-07
9.4028e-07
1.03926e-06
1.13842e-06
1.23728e-06
1.33541e-06
1.43236e-06
1.52771e-06
1.62107e-06
1.71204e-06
1.80025e-06
1.88536e-06
1.96702e-06
2.0449e-06
2.11871e-06
2.18814e-06
2.25293e-06
2.31283e-06
2.3676e-06
2.41702e-06
2.46089e-06
2.49903e-06
2.53129e-06
2.55752e-06
2.57761e-06
2.59146e-06
2.599e-06
2.60017e-06
2.59498e-06
2.58335e-06
2.56533e-06
2.54095e-06
2.51028e-06
2.47342e-06
2.43047e-06
2.38158e-06
2.3269e-06
2.26663e-06
2.20099e-06
2.13022e-06
2.05458e-06
1.97437e-06
1.88992e-06
1.80156e-06
1.70966e-06
1.61463e-06
1.51689e-06
1.41687e-06
1.31504e-06
1.2119e-06
1.10797e-06
1.00378e-06
8.99906e-07
7.96945e-07
6.95531e-07
5.96337e-07
5.00094e-07
4.07602e-07
3.19766e-07
2.3765e-07
1.62581e-07
9.63629e-08
4.18244e-08
4.64985e-09
4.63316e-09
4.16727e-08
9.60184e-08
1.62018e-07
2.36874e-07
3.18814e-07
4.06552e-07
4.99065e-07
5.95493e-07
6.95081e-07
7.9715e-07
9.01072e-07
1.00626e-06
1.11216e-06
1.21825e-06
1.32403e-06
1.429e-06
1.53271e-06
1.63471e-06
1.73456e-06
1.83186e-06
1.92621e-06
2.01723e-06
2.10456e-06
2.18785e-06
2.26678e-06
2.34104e-06
2.41034e-06
2.47441e-06
2.53299e-06
2.58586e-06
2.63281e-06
2.67363e-06
2.70818e-06
2.73628e-06
2.75783e-06
2.7727e-06
2.78084e-06
2.78217e-06
2.77671e-06
2.76436e-06
2.74517e-06
2.71919e-06
2.68648e-06
2.64714e-06
2.60128e-06
2.54906e-06
2.49064e-06
2.42623e-06
2.35606e-06
2.28039e-06
2.19949e-06
2.11369e-06
2.02333e-06
1.92877e-06
1.83042e-06
1.7287e-06
1.62406e-06
1.51697e-06
1.40795e-06
1.29751e-06
1.18621e-06
1.07464e-06
9.63406e-07
8.53153e-07
7.44558e-07
6.38348e-07
5.35302e-07
4.3628e-07
3.4225e-07
2.5435e-07
1.74e-07
1.03128e-07
4.47597e-08
4.97614e-09
4.92476e-09
4.42953e-08
1.02061e-07
1.72212e-07
2.51774e-07
3.38863e-07
4.32109e-07
5.30424e-07
6.32892e-07
7.3871e-07
8.47154e-07
9.57555e-07
1.06929e-06
1.18177e-06
1.29444e-06
1.40675e-06
1.5182e-06
1.62829e-06
1.73654e-06
1.84251e-06
1.94575e-06
2.04585e-06
2.1424e-06
2.23502e-06
2.32334e-06
2.40704e-06
2.48576e-06
2.55923e-06
2.62713e-06
2.68923e-06
2.74526e-06
2.79501e-06
2.83827e-06
2.87488e-06
2.90466e-06
2.9275e-06
2.94327e-06
2.95189e-06
2.95331e-06
2.94754e-06
2.93447e-06
2.91414e-06
2.88661e-06
2.85196e-06
2.81026e-06
2.76166e-06
2.7063e-06
2.64436e-06
2.57605e-06
2.50163e-06
2.42135e-06
2.33553e-06
2.24448e-06
2.14858e-06
2.04822e-06
1.94382e-06
1.83582e-06
1.72471e-06
1.61099e-06
1.49521e-06
1.37792e-06
1.25971e-06
1.14121e-06
1.02306e-06
9.05959e-07
7.9062e-07
6.77817e-07
5.6838e-07
4.63222e-07
3.63373e-07
2.70039e-07
1.84727e-07
1.09483e-07
4.7517e-08
5.28263e-09
5.20357e-09
4.68028e-08
1.07837e-07
1.81956e-07
2.66013e-07
3.58017e-07
4.56517e-07
5.6036e-07
6.68577e-07
7.80318e-07
8.94812e-07
1.01135e-06
1.12928e-06
1.24797e-06
1.36683e-06
1.4853e-06
1.60282e-06
1.71888e-06
1.83297e-06
1.94463e-06
2.05338e-06
2.15879e-06
2.26043e-06
2.35791e-06
2.45084e-06
2.53887e-06
2.62166e-06
2.69888e-06
2.77024e-06
2.83547e-06
2.89432e-06
2.94654e-06
2.99194e-06
3.03033e-06
3.06155e-06
3.08545e-06
3.10194e-06
3.11091e-06
3.1123e-06
3.10614e-06
3.09231e-06
3.07085e-06
3.04182e-06
3.0053e-06
2.96137e-06
2.91018e-06
2.85187e-06
2.78665e-06
2.71472e-06
2.63634e-06
2.5518e-06
2.4614e-06
2.3655e-06
2.26448e-06
2.15875e-06
2.04875e-06
1.93495e-06
1.81786e-06
1.69802e-06
1.57598e-06
1.45235e-06
1.32775e-06
1.20284e-06
1.07829e-06
9.54849e-07
8.33266e-07
7.14359e-07
5.99004e-07
4.88165e-07
3.82927e-07
2.84562e-07
1.94656e-07
1.15365e-07
5.00691e-08
5.56632e-09
5.46994e-09
4.91983e-08
1.13355e-07
1.91261e-07
2.79607e-07
3.76296e-07
4.79799e-07
5.88901e-07
7.02579e-07
8.19935e-07
9.40156e-07
1.0625e-06
1.18626e-06
1.31079e-06
1.43545e-06
1.55965e-06
1.68282e-06
1.80442e-06
1.9239e-06
2.04078e-06
2.15458e-06
2.26482e-06
2.37108e-06
2.47294e-06
2.56999e-06
2.66188e-06
2.74825e-06
2.82877e-06
2.90314e-06
2.97107e-06
3.03231e-06
3.08662e-06
3.13379e-06
3.17362e-06
3.20597e-06
3.23067e-06
3.24763e-06
3.25675e-06
3.25796e-06
3.2513e-06
3.23663e-06
3.21402e-06
3.18351e-06
3.14518e-06
3.09913e-06
3.0455e-06
2.98445e-06
2.91618e-06
2.8409e-06
2.75889e-06
2.67044e-06
2.57587e-06
2.47555e-06
2.36986e-06
2.25924e-06
2.14415e-06
2.02508e-06
1.90256e-06
1.77714e-06
1.64943e-06
1.52004e-06
1.38963e-06
1.25889e-06
1.12853e-06
9.99317e-07
8.72055e-07
7.47595e-07
6.26858e-07
5.10851e-07
4.00711e-07
2.97769e-07
2.03685e-07
1.20714e-07
5.23897e-08
5.82426e-09
5.7247e-09
5.14892e-08
1.18631e-07
2.00156e-07
2.92599e-07
3.93757e-07
5.02027e-07
6.16132e-07
7.34995e-07
8.5767e-07
9.83304e-07
1.11111e-06
1.24035e-06
1.37033e-06
1.5004e-06
1.62993e-06
1.75832e-06
1.88499e-06
2.0094e-06
2.13102e-06
2.24935e-06
2.36392e-06
2.47427e-06
2.57997e-06
2.68062e-06
2.77583e-06
2.86525e-06
2.94854e-06
3.0254e-06
3.09554e-06
3.15869e-06
3.21462e-06
3.26312e-06
3.304e-06
3.33709e-06
3.36227e-06
3.3794e-06
3.38841e-06
3.38924e-06
3.38191e-06
3.3663e-06
3.34246e-06
3.31045e-06
3.27036e-06
3.22228e-06
3.16636e-06
3.10276e-06
3.03168e-06
2.95335e-06
2.86805e-06
2.77607e-06
2.67774e-06
2.57345e-06
2.46359e-06
2.34861e-06
2.22898e-06
2.10522e-06
1.97787e-06
1.84751e-06
1.71475e-06
1.58024e-06
1.44466e-06
1.30874e-06
1.17321e-06
1.03887e-06
9.06556e-07
7.77158e-07
6.51631e-07
5.31027e-07
4.16526e-07
3.09514e-07
2.11714e-07
1.25469e-07
5.44527e-08
6.05358e-09
5.96923e-09
5.3688e-08
1.23694e-07
2.0869e-07
3.05057e-07
4.10493e-07
5.23318e-07
6.42194e-07
7.6599e-07
8.93712e-07
1.02446e-06
1.15741e-06
1.29179e-06
1.42687e-06
1.56196e-06
1.69639e-06
1.82955e-06
1.96084e-06
2.08968e-06
2.21553e-06
2.33787e-06
2.45622e-06
2.57009e-06
2.67906e-06
2.78271e-06
2.88066e-06
2.97254e-06
3.05801e-06
3.13678e-06
3.20854e-06
3.27305e-06
3.33008e-06
3.3794e-06
3.42084e-06
3.45425e-06
3.47948e-06
3.49643e-06
3.50502e-06
3.50519e-06
3.49699e-06
3.48025e-06
3.45509e-06
3.42154e-06
3.37969e-06
3.32965e-06
3.27156e-06
3.20559e-06
3.13194e-06
3.05086e-06
2.96261e-06
2.86749e-06
2.76586e-06
2.65809e-06
2.54459e-06
2.42582e-06
2.30226e-06
2.17443e-06
2.0429e-06
1.90826e-06
1.77114e-06
1.63222e-06
1.49218e-06
1.35178e-06
1.21179e-06
1.07303e-06
9.36351e-07
8.02687e-07
6.73024e-07
5.48448e-07
4.3018e-07
3.19652e-07
2.18644e-07
1.29574e-07
5.62332e-08
6.25148e-09
6.20544e-09
5.58118e-08
1.28583e-07
2.1693e-07
3.17079e-07
4.26633e-07
5.43835e-07
6.67284e-07
7.95794e-07
9.28322e-07
1.06393e-06
1.20173e-06
1.34093e-06
1.48076e-06
1.62048e-06
1.75942e-06
1.89692e-06
2.03236e-06
2.16513e-06
2.29468e-06
2.42048e-06
2.54202e-06
2.65882e-06
2.77043e-06
2.87645e-06
2.97648e-06
3.07016e-06
3.15716e-06
3.23718e-06
3.30993e-06
3.37517e-06
3.43268e-06
3.48224e-06
3.52369e-06
3.55689e-06
3.58171e-06
3.59804e-06
3.60582e-06
3.60501e-06
3.59565e-06
3.57759e-06
3.55094e-06
3.51576e-06
3.47212e-06
3.42016e-06
3.36e-06
3.29183e-06
3.21585e-06
3.1323e-06
3.04145e-06
2.94362e-06
2.83914e-06
2.72841e-06
2.61183e-06
2.48986e-06
2.363e-06
2.23179e-06
2.09678e-06
1.95859e-06
1.81786e-06
1.67527e-06
1.53155e-06
1.38745e-06
1.24376e-06
1.10132e-06
9.61036e-07
8.23837e-07
6.90747e-07
5.62879e-07
4.4149e-07
3.28049e-07
2.24382e-07
1.32972e-07
5.77071e-08
6.4153e-09
6.43576e-09
5.78825e-08
1.3335e-07
2.24958e-07
3.28788e-07
4.42341e-07
5.63785e-07
6.91654e-07
8.24704e-07
9.61841e-07
1.10207e-06
1.24448e-06
1.38822e-06
1.53247e-06
1.67649e-06
1.81954e-06
1.96095e-06
2.10007e-06
2.23627e-06
2.36898e-06
2.49766e-06
2.62178e-06
2.74086e-06
2.85446e-06
2.96215e-06
3.06356e-06
3.15833e-06
3.24613e-06
3.32668e-06
3.3997e-06
3.46496e-06
3.52226e-06
3.5714e-06
3.61223e-06
3.64462e-06
3.66847e-06
3.68368e-06
3.6902e-06
3.68802e-06
3.67715e-06
3.65749e-06
3.62915e-06
3.5922e-06
3.54672e-06
3.49283e-06
3.43069e-06
3.36046e-06
3.28236e-06
3.19663e-06
3.10354e-06
3.00341e-06
2.89656e-06
2.78339e-06
2.66432e-06
2.5398e-06
2.41032e-06
2.27643e-06
2.13869e-06
1.99773e-06
1.85418e-06
1.70874e-06
1.56215e-06
1.41517e-06
1.26861e-06
1.12333e-06
9.80228e-07
8.40281e-07
7.04524e-07
5.74096e-07
4.50279e-07
3.34573e-07
2.2884e-07
1.35611e-07
5.88516e-08
6.5425e-09
6.66309e-09
5.99263e-08
1.38053e-07
2.32877e-07
3.40332e-07
4.57816e-07
5.83419e-07
7.15607e-07
8.53077e-07
9.94677e-07
1.13936e-06
1.28617e-06
1.4342e-06
1.5826e-06
1.73058e-06
1.87739e-06
2.02229e-06
2.16463e-06
2.30375e-06
2.43908e-06
2.57003e-06
2.6961e-06
2.81679e-06
2.93166e-06
3.04029e-06
3.14232e-06
3.23739e-06
3.32521e-06
3.40548e-06
3.47798e-06
3.54248e-06
3.5988e-06
3.64677e-06
3.68627e-06
3.71718e-06
3.73942e-06
3.75293e-06
3.75766e-06
3.75365e-06
3.74086e-06
3.71928e-06
3.68899e-06
3.65008e-06
3.60264e-06
3.54681e-06
3.48272e-06
3.41057e-06
3.33055e-06
3.24292e-06
3.14794e-06
3.04591e-06
2.93718e-06
2.82213e-06
2.70117e-06
2.57475e-06
2.44337e-06
2.30755e-06
2.16788e-06
2.02495e-06
1.87943e-06
1.73201e-06
1.58342e-06
1.43443e-06
1.28588e-06
1.13862e-06
9.9357e-07
8.51712e-07
7.14101e-07
5.81892e-07
4.56386e-07
3.39104e-07
2.31934e-07
1.37442e-07
5.96456e-08
6.63073e-09
6.8908e-09
6.19733e-08
1.42763e-07
2.40805e-07
3.51881e-07
4.73286e-07
6.03026e-07
7.39495e-07
8.81325e-07
1.0273e-06
1.17633e-06
1.32738e-06
1.47951e-06
1.63183e-06
1.78348e-06
1.93369e-06
2.0817e-06
2.22681e-06
2.36836e-06
2.50573e-06
2.63835e-06
2.7657e-06
2.88729e-06
3.00268e-06
3.11146e-06
3.21328e-06
3.30781e-06
3.39477e-06
3.47391e-06
3.54501e-06
3.60788e-06
3.66238e-06
3.70836e-06
3.74573e-06
3.77441e-06
3.79434e-06
3.80549e-06
3.80784e-06
3.80146e-06
3.78629e-06
3.76239e-06
3.72984e-06
3.68874e-06
3.6392e-06
3.58134e-06
3.51533e-06
3.44134e-06
3.35959e-06
3.27032e-06
3.17379e-06
3.07029e-06
2.96018e-06
2.8438e-06
2.72158e-06
2.59395e-06
2.46139e-06
2.32443e-06
2.18364e-06
2.03961e-06
1.893e-06
1.7445e-06
1.59483e-06
1.44477e-06
1.29515e-06
1.14683e-06
1.00073e-06
8.57852e-07
7.19244e-07
5.86077e-07
4.59662e-07
3.41532e-07
2.33591e-07
1.38422e-07
6.007e-08
6.67788e-09
7.12264e-09
6.40574e-08
1.47557e-07
2.48872e-07
3.63626e-07
4.89005e-07
6.22928e-07
7.63709e-07
9.09909e-07
1.06025e-06
1.21356e-06
1.36877e-06
1.52486e-06
1.6809e-06
1.83599e-06
1.9893e-06
2.14004e-06
2.28749e-06
2.43095e-06
2.56981e-06
2.70347e-06
2.8314e-06
2.95314e-06
3.06824e-06
3.17633e-06
3.27706e-06
3.37014e-06
3.45531e-06
3.53237e-06
3.60112e-06
3.66143e-06
3.71317e-06
3.75626e-06
3.79063e-06
3.81625e-06
3.83309e-06
3.84115e-06
3.84046e-06
3.8311e-06
3.81303e-06
3.78637e-06
3.75121e-06
3.70764e-06
3.6558e-06
3.59582e-06
3.52786e-06
3.45212e-06
3.3688e-06
3.27814e-06
3.18038e-06
3.07584e-06
2.96483e-06
2.8477e-06
2.72484e-06
2.5967e-06
2.46373e-06
2.32644e-06
2.18538e-06
2.04114e-06
1.89436e-06
1.74572e-06
1.59593e-06
1.44577e-06
1.29605e-06
1.14763e-06
1.00144e-06
8.58457e-07
7.19751e-07
5.86487e-07
4.5998e-07
3.41765e-07
2.33747e-07
1.38513e-07
6.01086e-08
6.68215e-09
7.3627e-09
6.62154e-08
1.5252e-07
2.5722e-07
3.75775e-07
5.05254e-07
6.43477e-07
7.88677e-07
9.39332e-07
1.09409e-06
1.2517e-06
1.41104e-06
1.57102e-06
1.73064e-06
1.88896e-06
2.0451e-06
2.19823e-06
2.34759e-06
2.49247e-06
2.63222e-06
2.76626e-06
2.89407e-06
3.01516e-06
3.12913e-06
3.23561e-06
3.33431e-06
3.42495e-06
3.50733e-06
3.58128e-06
3.64667e-06
3.70339e-06
3.75138e-06
3.7906e-06
3.82103e-06
3.84267e-06
3.85556e-06
3.85976e-06
3.85533e-06
3.84232e-06
3.82081e-06
3.7909e-06
3.75271e-06
3.70638e-06
3.65203e-06
3.58983e-06
3.51993e-06
3.44252e-06
3.35782e-06
3.26603e-06
3.16743e-06
3.06227e-06
2.95088e-06
2.83359e-06
2.71077e-06
2.58283e-06
2.45021e-06
2.31341e-06
2.17296e-06
2.02941e-06
1.88339e-06
1.73556e-06
1.58662e-06
1.43733e-06
1.28848e-06
1.14093e-06
9.95597e-07
8.53451e-07
7.15551e-07
5.8306e-07
4.57286e-07
3.39756e-07
2.32368e-07
1.37693e-07
5.97518e-08
6.64243e-09
7.61535e-09
6.84866e-08
1.57743e-07
2.66003e-07
3.88549e-07
5.22326e-07
6.65048e-07
8.14851e-07
9.70125e-07
1.12943e-06
1.29145e-06
1.45495e-06
1.6188e-06
1.78192e-06
1.94331e-06
2.10203e-06
2.25722e-06
2.40807e-06
2.55385e-06
2.69391e-06
2.82765e-06
2.95456e-06
3.07416e-06
3.18609e-06
3.29001e-06
3.38565e-06
3.47281e-06
3.55132e-06
3.62107e-06
3.68198e-06
3.73403e-06
3.77718e-06
3.81146e-06
3.83693e-06
3.85366e-06
3.86173e-06
3.86124e-06
3.85229e-06
3.83497e-06
3.80942e-06
3.77577e-06
3.73416e-06
3.68473e-06
3.62763e-06
3.56303e-06
3.49111e-06
3.41204e-06
3.32604e-06
3.23333e-06
3.13414e-06
3.02875e-06
2.91744e-06
2.80052e-06
2.67836e-06
2.55132e-06
2.41984e-06
2.28437e-06
2.14541e-06
2.00349e-06
1.85922e-06
1.71321e-06
1.56615e-06
1.41877e-06
1.27185e-06
1.12622e-06
9.82768e-07
8.42464e-07
7.06346e-07
5.75563e-07
4.51406e-07
3.35386e-07
2.29378e-07
1.35919e-07
5.89815e-08
6.55679e-09
7.88511e-09
7.09116e-08
1.63318e-07
2.75376e-07
4.02178e-07
5.40528e-07
6.88026e-07
8.427e-07
1.00284e-06
1.16691e-06
1.33349e-06
1.50127e-06
1.66903e-06
1.83561e-06
1.99994e-06
2.16103e-06
2.31795e-06
2.46988e-06
2.61605e-06
2.75579e-06
2.8885e-06
3.01369e-06
3.13091e-06
3.23982e-06
3.34013e-06
3.43163e-06
3.51416e-06
3.58764e-06
3.65202e-06
3.70729e-06
3.75347e-06
3.79064e-06
3.81891e-06
3.8384e-06
3.84922e-06
3.85152e-06
3.84545e-06
3.83117e-06
3.80883e-06
3.7786e-06
3.74064e-06
3.69513e-06
3.64222e-06
3.5821e-06
3.51495e-06
3.44093e-06
3.36025e-06
3.2731e-06
3.17969e-06
3.08025e-06
2.97504e-06
2.86431e-06
2.74836e-06
2.62751e-06
2.50211e-06
2.37256e-06
2.23926e-06
2.1027e-06
1.96337e-06
1.82182e-06
1.67865e-06
1.53451e-06
1.39009e-06
1.24614e-06
1.10347e-06
9.62934e-07
8.25479e-07
6.9212e-07
5.6398e-07
4.42326e-07
3.28641e-07
2.24764e-07
1.33185e-07
5.77945e-08
6.42482e-09
8.17655e-09
7.35316e-08
1.69342e-07
2.85501e-07
4.16894e-07
5.60172e-07
7.12803e-07
8.72698e-07
1.03803e-06
1.20715e-06
1.37853e-06
1.55077e-06
1.72253e-06
1.89258e-06
2.05976e-06
2.22301e-06
2.38135e-06
2.53391e-06
2.67991e-06
2.81865e-06
2.94956e-06
3.07214e-06
3.186e-06
3.29083e-06
3.3864e-06
3.47258e-06
3.54927e-06
3.61648e-06
3.67423e-06
3.72259e-06
3.7617e-06
3.79174e-06
3.81286e-06
3.82524e-06
3.82911e-06
3.82468e-06
3.81215e-06
3.79175e-06
3.76367e-06
3.72814e-06
3.68536e-06
3.63552e-06
3.57882e-06
3.51545e-06
3.4456e-06
3.36946e-06
3.28721e-06
3.19906e-06
3.1052e-06
3.00585e-06
2.90123e-06
2.79158e-06
2.67717e-06
2.55829e-06
2.43526e-06
2.30842e-06
2.17815e-06
2.04488e-06
1.90907e-06
1.77123e-06
1.63191e-06
1.49172e-06
1.3513e-06
1.21137e-06
1.0727e-06
9.36112e-07
8.02512e-07
6.72886e-07
5.48322e-07
4.30055e-07
3.19529e-07
2.18533e-07
1.29492e-07
5.61921e-08
6.24667e-09
8.49422e-09
7.63876e-08
1.75907e-07
2.96535e-07
4.32925e-07
5.81561e-07
7.39765e-07
9.05309e-07
1.07624e-06
1.25077e-06
1.42726e-06
1.60418e-06
1.78009e-06
1.95364e-06
2.12358e-06
2.28879e-06
2.44821e-06
2.60093e-06
2.74615e-06
2.88316e-06
3.01139e-06
3.13039e-06
3.2398e-06
3.33939e-06
3.42899e-06
3.50856e-06
3.57809e-06
3.63769e-06
3.68747e-06
3.72763e-06
3.75842e-06
3.78007e-06
3.79282e-06
3.797e-06
3.7929e-06
3.78078e-06
3.76094e-06
3.73365e-06
3.69918e-06
3.65777e-06
3.60969e-06
3.55514e-06
3.49437e-06
3.42757e-06
3.35494e-06
3.27667e-06
3.19297e-06
3.104e-06
3.00996e-06
2.91105e-06
2.80746e-06
2.69942e-06
2.58714e-06
2.4709e-06
2.35095e-06
2.22761e-06
2.10121e-06
1.97213e-06
1.84078e-06
1.70762e-06
1.57315e-06
1.43792e-06
1.30253e-06
1.16766e-06
1.03402e-06
9.02394e-07
7.73644e-07
6.48713e-07
5.28648e-07
4.14641e-07
3.08085e-07
2.1071e-07
1.24858e-07
5.4181e-08
6.02311e-09
8.84246e-09
7.95182e-08
1.83104e-07
3.08628e-07
4.50492e-07
6.0499e-07
7.69279e-07
9.40976e-07
1.11798e-06
1.29835e-06
1.48032e-06
1.66219e-06
1.84241e-06
2.01951e-06
2.19214e-06
2.35906e-06
2.51918e-06
2.67152e-06
2.81525e-06
2.94968e-06
3.07425e-06
3.18857e-06
3.29233e-06
3.38537e-06
3.46765e-06
3.5392e-06
3.60016e-06
3.6507e-06
3.69112e-06
3.72172e-06
3.74284e-06
3.75479e-06
3.75803e-06
3.75293e-06
3.73984e-06
3.71914e-06
3.69117e-06
3.65629e-06
3.61482e-06
3.56705e-06
3.51327e-06
3.45374e-06
3.3887e-06
3.31836e-06
3.24295e-06
3.16266e-06
3.07765e-06
2.98813e-06
2.89424e-06
2.79618e-06
2.69411e-06
2.58821e-06
2.47868e-06
2.36574e-06
2.24962e-06
2.13056e-06
2.00887e-06
1.88486e-06
1.75888e-06
1.63135e-06
1.5027e-06
1.37343e-06
1.24409e-06
1.11528e-06
9.8767e-07
8.61994e-07
7.3906e-07
6.19758e-07
5.05088e-07
3.96186e-07
2.94387e-07
2.01348e-07
1.19313e-07
5.17753e-08
5.7557e-09
9.22531e-09
8.29593e-08
1.91014e-07
3.2192e-07
4.69796e-07
6.30725e-07
8.0168e-07
9.80103e-07
1.16371e-06
1.35042e-06
1.53826e-06
1.7254e-06
1.91011e-06
2.09079e-06
2.26598e-06
2.43432e-06
2.59466e-06
2.74596e-06
2.88739e-06
3.01825e-06
3.13804e-06
3.2464e-06
3.34313e-06
3.42819e-06
3.50162e-06
3.56362e-06
3.61443e-06
3.65441e-06
3.68399e-06
3.70359e-06
3.71359e-06
3.71467e-06
3.70724e-06
3.69178e-06
3.66877e-06
3.63865e-06
3.60185e-06
3.5588e-06
3.50985e-06
3.45535e-06
3.39562e-06
3.33094e-06
3.26158e-06
3.18775e-06
3.10968e-06
3.02756e-06
2.94154e-06
2.85181e-06
2.7585e-06
2.66176e-06
2.56175e-06
2.4586e-06
2.35247e-06
2.24353e-06
2.13197e-06
2.01799e-06
1.90183e-06
1.78374e-06
1.66404e-06
1.54305e-06
1.42116e-06
1.2988e-06
1.17646e-06
1.05467e-06
9.34053e-07
8.15268e-07
6.99067e-07