/*--------------------------------*- C++ -*----------------------------------*\
  =========                 |
  \\      /  F ield         | OpenFOAM: The Open Source CFD Toolbox
   \\    /   O peration     | Website:  https://openfoam.org
    \\  /    A nd           | Version:  12
     \\/     M anipulation  |
\*---------------------------------------------------------------------------*/
FoamFile
{
    format      ascii;
    class       volScalarField;
    location    "4";
    object      p;
}
// * * * * * * * * * * * * * * * * * * * * * * * * * * * * * * * * * * * * * //

dimensions      [0 2 -2 0 0 0 0];

internalField   nonuniform List<scalar> 
5625
(
6.57847e-09
7.59311e-08
9.79099e-07
2.80659e-06
5.33486e-06
8.35334e-06
1.1688e-05
1.51789e-05
1.86885e-05
2.20938e-05
2.52883e-05
2.81812e-05
3.0696e-05
3.27692e-05
3.43494e-05
3.53956e-05
3.5877e-05
3.57713e-05
3.50647e-05
3.37505e-05
3.1829e-05
2.93064e-05
2.61947e-05
2.2511e-05
1.82769e-05
1.35182e-05
8.26438e-06
2.54837e-06
-3.59408e-06
-1.01246e-05
-1.70027e-05
-2.4186e-05
-3.16304e-05
-3.92909e-05
-4.71214e-05
-5.50752e-05
-6.31051e-05
-7.11641e-05
-7.9205e-05
-8.71811e-05
-9.50465e-05
-0.000102756
-0.000110265
-0.000117532
-0.000124513
-0.000131171
-0.000137467
-0.000143365
-0.000148831
-0.000153836
-0.000158351
-0.00016235
-0.000165813
-0.000168722
-0.000171062
-0.000172825
-0.000174006
-0.000174605
-0.00017463
-0.000174095
-0.000173019
-0.000171433
-0.000169373
-0.000166889
-0.00016404
-0.000160899
-0.000157552
-0.000154102
-0.000150668
-0.000147381
-0.000144403
-0.000141904
-0.000140089
-0.000139187
-0.000139113
-3.10893e-06
-2.67205e-06
-1.65011e-06
-1.37396e-08
2.11328e-06
4.58913e-06
7.28848e-06
1.00964e-05
1.29071e-05
1.56247e-05
1.8164e-05
2.04503e-05
2.24191e-05
2.4016e-05
2.51954e-05
2.59206e-05
2.61628e-05
2.5901e-05
2.51209e-05
2.38149e-05
2.19812e-05
1.96237e-05
1.67513e-05
1.33776e-05
9.52027e-06
5.20111e-06
4.4522e-07
-4.71912e-06
-1.02609e-05
-1.61466e-05
-2.23408e-05
-2.88061e-05
-3.55038e-05
-4.23937e-05
-4.9435e-05
-5.65863e-05
-6.38055e-05
-7.10506e-05
-7.82797e-05
-8.54512e-05
-9.2524e-05
-9.94579e-05
-0.000106214
-0.000112753
-0.000119039
-0.000125037
-0.000130714
-0.000136038
-0.00014098
-0.000145513
-0.000149614
-0.000153261
-0.000156436
-0.000159125
-0.000161317
-0.000163005
-0.000164188
-0.000164867
-0.000165052
-0.000164755
-0.000163996
-0.000162804
-0.000161212
-0.000159263
-0.000157008
-0.000154509
-0.000151836
-0.000149071
-0.000146308
-0.000143647
-0.000141203
-0.000139097
-0.000137471
-0.000136447
-0.000136001
-9.1668e-06
-8.01712e-06
-6.40814e-06
-4.49126e-06
-2.32432e-06
2.68636e-08
2.48457e-06
4.97032e-06
7.4093e-06
9.73175e-06
1.18736e-05
1.37771e-05
1.53912e-05
1.66716e-05
1.75805e-05
1.80872e-05
1.81669e-05
1.78011e-05
1.69772e-05
1.5688e-05
1.39315e-05
1.17104e-05
9.03224e-06
5.90842e-06
2.35429e-06
-1.61128e-06
-5.96628e-06
-1.06858e-05
-1.57424e-05
-2.11064e-05
-2.67461e-05
-3.26282e-05
-3.87181e-05
-4.49799e-05
-5.13769e-05
-5.78719e-05
-6.44272e-05
-7.10051e-05
-7.7568e-05
-8.40784e-05
-9.04996e-05
-9.67955e-05
-0.000102931
-0.000108872
-0.000114585
-0.00012004
-0.000125207
-0.000130058
-0.000134568
-0.000138713
-0.000142472
-0.000145827
-0.000148763
-0.000151267
-0.000153331
-0.000154949
-0.00015612
-0.000156847
-0.000157138
-0.000157005
-0.000156465
-0.000155541
-0.000154263
-0.000152666
-0.00015079
-0.000148684
-0.000146403
-0.000144006
-0.000141561
-0.00013914
-0.000136819
-0.000134673
-0.000132766
-0.000131154
-0.000129995
-1.70037e-05
-1.49732e-05
-1.25215e-05
-1.00233e-05
-7.4832e-06
-4.90788e-06
-2.34169e-06
1.61624e-07
2.54993e-06
4.77384e-06
6.78684e-06
8.54597e-06
1.00125e-05
1.11522e-05
1.19359e-05
1.23392e-05
1.23427e-05
1.19319e-05
1.10969e-05
9.83269e-06
8.13838e-06
6.01741e-06
3.47706e-06
5.28327e-07
-2.81442e-06
-6.53364e-06
-1.0609e-05
-1.50174e-05
-1.97337e-05
-2.47305e-05
-2.99788e-05
-3.54479e-05
-4.11058e-05
-4.69199e-05
-5.28563e-05
-5.8881e-05
-6.49593e-05
-7.10568e-05
-7.7139e-05
-8.31716e-05
-8.91211e-05
-9.49546e-05
-0.00010064
-0.000106146
-0.000111444
-0.000116504
-0.0001213
-0.000125807
-0.000130001
-0.000133863
-0.000137371
-0.000140511
-0.000143268
-0.000145631
-0.000147592
-0.000149145
-0.00015029
-0.000151027
-0.000151362
-0.000151306
-0.00015087
-0.000150074
-0.000148939
-0.000147492
-0.000145764
-0.000143792
-0.000141613
-0.000139273
-0.000136816
-0.000134291
-0.000131751
-0.000129236
-0.000126751
-0.000124298
-0.000122259
-2.54015e-05
-2.24488e-05
-1.90638e-05
-1.58507e-05
-1.27748e-05
-9.79576e-06
-6.93376e-06
-4.22519e-06
-1.70537e-06
5.92195e-07
2.63521e-06
4.39319e-06
5.8382e-06
6.9454e-06
7.69336e-06
8.06437e-06
8.04445e-06
7.62359e-06
6.79554e-06
5.55793e-06
3.91202e-06
1.86267e-06
-5.81888e-07
-3.41023e-06
-6.60794e-06
-1.01578e-05
-1.40402e-05
-1.82329e-05
-2.27121e-05
-2.74516e-05
-3.24241e-05
-3.76006e-05
-4.29513e-05
-4.84453e-05
-5.40512e-05
-5.97369e-05
-6.54703e-05
-7.12191e-05
-7.69515e-05
-8.26355e-05
-8.82401e-05
-9.37348e-05
-9.90898e-05
-0.000104277
-0.000109268
-0.000114037
-0.000118559
-0.000122811
-0.000126773
-0.000130423
-0.000133744
-0.000136722
-0.000139342
-0.000141594
-0.000143469
-0.000144962
-0.000146069
-0.000146791
-0.00014713
-0.000147093
-0.000146688
-0.000145928
-0.000144828
-0.000143408
-0.000141688
-0.000139693
-0.000137451
-0.000134989
-0.000132338
-0.000129528
-0.000126594
-0.000123552
-0.000120358
-0.000116976
-0.000114016
-3.35414e-05
-2.96842e-05
-2.53531e-05
-2.13707e-05
-1.76743e-05
-1.4187e-05
-1.09128e-05
-7.87677e-06
-5.10269e-06
-2.61245e-06
-4.2752e-07
1.43151e-06
2.94558e-06
4.09779e-06
4.8737e-06
5.26172e-06
5.25317e-06
4.84254e-06
4.02743e-06
2.80863e-06
1.19003e-06
-8.2142e-07
-3.21588e-06
-5.9807e-06
-9.10065e-06
-1.25581e-05
-1.6333e-05
-2.04036e-05
-2.4746e-05
-2.9335e-05
-3.41437e-05
-3.91443e-05
-4.4308e-05
-4.96051e-05
-5.50055e-05
-6.04788e-05
-6.59943e-05
-7.15215e-05
-7.70299e-05
-8.24897e-05
-8.78713e-05
-9.31461e-05
-9.8286e-05
-0.000103264
-0.000108054
-0.000112633
-0.000116975
-0.00012106
-0.000124867
-0.000128377
-0.000131573
-0.000134441
-0.000136967
-0.00013914
-0.00014095
-0.000142391
-0.000143458
-0.000144148
-0.000144463
-0.000144403
-0.000143974
-0.000143182
-0.000142038
-0.000140552
-0.000138738
-0.000136611
-0.000134188
-0.000131485
-0.000128521
-0.000125314
-0.000121886
-0.000118236
-0.000114283
-0.000109962
-0.0001061
-4.08523e-05
-3.61276e-05
-3.08692e-05
-2.61043e-05
-2.17493e-05
-1.76989e-05
-1.39463e-05
-1.051e-05
-7.40617e-06
-4.64866e-06
-2.25094e-06
-2.26062e-07
1.41398e-06
2.65884e-06
3.50007e-06
3.93151e-06
3.94938e-06
3.55252e-06
2.74238e-06
1.52313e-06
-9.84044e-08
-2.11277e-06
-4.50798e-06
-7.26963e-06
-1.0381e-05
-1.38234e-05
-1.75759e-05
-2.1616e-05
-2.59195e-05
-3.04611e-05
-3.52139e-05
-4.01503e-05
-4.52418e-05
-5.04593e-05
-5.57735e-05
-6.11545e-05
-6.65726e-05
-7.19983e-05
-7.74022e-05
-8.27554e-05
-8.80295e-05
-9.31969e-05
-9.82309e-05
-0.000103105
-0.000107796
-0.000112278
-0.00011653
-0.00012053
-0.000124259
-0.000127699
-0.000130831
-0.000133642
-0.000136118
-0.000138246
-0.000140017
-0.000141422
-0.000142454
-0.000143109
-0.000143384
-0.000143276
-0.000142788
-0.000141921
-0.000140678
-0.000139066
-0.000137091
-0.00013476
-0.000132082
-0.000129065
-0.000125718
-0.000122051
-0.000118078
-0.000113787
-0.000109066
-0.000103828
-9.91041e-05
-4.69214e-05
-4.13655e-05
-3.52061e-05
-2.96631e-05
-2.46368e-05
-1.99981e-05
-1.57335e-05
-1.1858e-05
-8.38309e-06
-5.31706e-06
-2.66766e-06
-4.42281e-07
1.3526e-06
2.71197e-06
3.63243e-06
4.11261e-06
4.15316e-06
3.75704e-06
2.92947e-06
1.67807e-06
1.2782e-08
-2.05413e-06
-4.50818e-06
-7.33273e-06
-1.05092e-05
-1.4017e-05
-1.78339e-05
-2.19362e-05
-2.62988e-05
-3.08953e-05
-3.56985e-05
-4.06802e-05
-4.58118e-05
-5.1064e-05
-5.64075e-05
-6.18126e-05
-6.725e-05
-7.26903e-05
-7.81047e-05
-8.34647e-05
-8.87426e-05
-9.39114e-05
-9.89447e-05
-0.000103817
-0.000108505
-0.000112984
-0.000117233
-0.000121231
-0.000124957
-0.000128395
-0.000131526
-0.000134335
-0.000136808
-0.000138931
-0.000140694
-0.000142086
-0.000143099
-0.000143724
-0.000143958
-0.000143793
-0.000143229
-0.000142262
-0.000140891
-0.000139118
-0.000136942
-0.000134365
-0.00013139
-0.000128017
-0.00012425
-0.000120093
-0.000115553
-0.000110612
-0.000105133
-9.90108e-05
-9.34677e-05
-5.14316e-05
-4.5071e-05
-3.8033e-05
-3.17215e-05
-2.60229e-05
-2.0788e-05
-1.59983e-05
-1.16674e-05
-7.80424e-06
-4.41316e-06
-1.49786e-06
9.38547e-07
2.89394e-06
4.36766e-06
5.36064e-06
5.87571e-06
5.91758e-06
5.49309e-06
4.61117e-06
3.28291e-06
1.5215e-06
-6.57733e-07
-3.23752e-06
-6.19861e-06
-9.52002e-06
-1.31791e-05
-1.71517e-05
-2.14123e-05
-2.59342e-05
-3.06899e-05
-3.56508e-05
-4.07879e-05
-4.60716e-05
-5.14721e-05
-5.69595e-05
-6.25038e-05
-6.80753e-05
-7.36446e-05
-7.91826e-05
-8.46611e-05
-9.00522e-05
-9.53291e-05
-0.000100466
-0.000105436
-0.000110217
-0.000114785
-0.000119118
-0.000123195
-0.000126996
-0.000130502
-0.000133696
-0.000136562
-0.000139083
-0.000141247
-0.00014304
-0.00014445
-0.000145467
-0.000146082
-0.000146284
-0.000146068
-0.000145426
-0.000144352
-0.000142843
-0.000140892
-0.000138497
-0.000135655
-0.000132362
-0.000128615
-0.000124412
-0.000119753
-0.000114644
-0.000109058
-0.000102837
-9.58612e-05
-8.95333e-05
-5.41149e-05
-4.69645e-05
-3.90615e-05
-3.19899e-05
-2.56234e-05
-1.97936e-05
-1.44787e-05
-9.69199e-06
-5.44079e-06
-1.7269e-06
1.44907e-06
4.08736e-06
6.1894e-06
7.75823e-06
8.79859e-06
9.31711e-06
9.3223e-06
8.82475e-06
7.83702e-06
6.37377e-06
4.45158e-06
2.08903e-06
-6.93503e-07
-3.87387e-06
-7.42833e-06
-1.13317e-05
-1.55573e-05
-2.00776e-05
-2.48639e-05
-2.98868e-05
-3.5116e-05
-4.05211e-05
-4.60711e-05
-5.17352e-05
-5.74823e-05
-6.32816e-05
-6.91027e-05
-7.49156e-05
-8.06906e-05
-8.63991e-05
-9.20128e-05
-9.75046e-05
-0.000102848
-0.000108018
-0.000112989
-0.000117738
-0.000122244
-0.000126483
-0.000130437
-0.000134086
-0.000137411
-0.000140395
-0.000143022
-0.000145277
-0.000147145
-0.000148612
-0.000149667
-0.000150297
-0.000150492
-0.00015024
-0.000149532
-0.00014836
-0.000146714
-0.000144588
-0.000141972
-0.000138861
-0.000135247
-0.000131123
-0.000126482
-0.000121322
-0.000115647
-0.000109426
-0.000102481
-9.46767e-05
-8.75899e-05
-5.47204e-05
-4.67834e-05
-3.80199e-05
-3.01934e-05
-2.31647e-05
-1.67472e-05
-1.09157e-05
-5.68423e-06
-1.05885e-06
2.96055e-06
6.37584e-06
9.19007e-06
1.14078e-05
1.30353e-05
1.4081e-05
1.45549e-05
1.44694e-05
1.38387e-05
1.2679e-05
1.10088e-05
8.84811e-06
6.21908e-06
3.14545e-06
-3.47363e-07
-4.23253e-06
-8.48186e-06
-1.3066e-05
-1.79548e-05
-2.31169e-05
-2.85207e-05
-3.4134e-05
-3.99242e-05
-4.58588e-05
-5.19051e-05
-5.80308e-05
-6.42037e-05
-7.03923e-05
-7.65654e-05
-8.26926e-05
-8.87443e-05
-9.46917e-05
-0.000100507
-0.000106163
-0.000111633
-0.000116893
-0.000121919
-0.000126687
-0.000131176
-0.000135365
-0.000139233
-0.000142761
-0.000145931
-0.000148726
-0.000151129
-0.000153124
-0.000154696
-0.00015583
-0.000156513
-0.000156731
-0.000156472
-0.000155722
-0.000154471
-0.000152706
-0.000150416
-0.000147591
-0.00014422
-0.000140292
-0.000135798
-0.000130727
-0.000125075
-0.000118845
-0.000112
-0.000104345
-9.57297e-05
-8.79006e-05
-5.29898e-05
-4.42599e-05
-3.46323e-05
-2.60528e-05
-1.83689e-05
-1.1375e-05
-5.04299e-06
6.12784e-07
5.58691e-06
9.88132e-06
1.35002e-05
1.64491e-05
1.87357e-05
2.03694e-05
2.13619e-05
2.17271e-05
2.14809e-05
2.06413e-05
1.92286e-05
1.72649e-05
1.47742e-05
1.17824e-05
8.31687e-06
4.4067e-06
8.21756e-08
-4.62515e-06
-9.68279e-06
-1.50574e-05
-2.07149e-05
-2.6621e-05
-3.27408e-05
-3.90396e-05
-4.54826e-05
-5.20351e-05
-5.86629e-05
-6.53323e-05
-7.20101e-05
-7.86638e-05
-8.52618e-05
-9.17732e-05
-9.81683e-05
-0.000104418
-0.000110495
-0.000116371
-0.000122022
-0.000127422
-0.000132548
-0.000137376
-0.000141885
-0.000146054
-0.000149863
-0.000153292
-0.000156322
-0.000158937
-0.000161118
-0.000162848
-0.000164112
-0.000164893
-0.000165177
-0.000164946
-0.000164188
-0.000162887
-0.00016103
-0.000158601
-0.000155587
-0.000151975
-0.00014775
-0.000142901
-0.000137414
-0.000131283
-0.00012451
-0.000117054
-0.0001087
-9.9285e-05
-9.07225e-05
-4.86396e-05
-3.91035e-05
-2.86028e-05
-1.92705e-05
-1.09402e-05
-3.38597e-06
3.42343e-06
9.4735e-06
1.47597e-05
1.92859e-05
2.30586e-05
2.60861e-05
2.83791e-05
2.99503e-05
3.0815e-05
3.09908e-05
3.04976e-05
2.93576e-05
2.75949e-05
2.5236e-05
2.23089e-05
1.88437e-05
1.48719e-05
1.04265e-05
5.54164e-06
2.52695e-07
-5.40427e-06
-1.13924e-05
-1.76746e-05
-2.42131e-05
-3.09705e-05
-3.79089e-05
-4.49913e-05
-5.21805e-05
-5.94403e-05
-6.67347e-05
-7.40288e-05
-8.12884e-05
-8.84804e-05
-9.55726e-05
-0.000102534
-0.000109334
-0.000115944
-0.000122335
-0.000128482
-0.000134359
-0.00013994
-0.000145203
-0.000150123
-0.000154679
-0.000158851
-0.000162617
-0.000165958
-0.000168854
-0.000171286
-0.000173237
-0.000174688
-0.000175621
-0.000176019
-0.000175864
-0.00017514
-0.000173828
-0.000171913
-0.000169377
-0.000166204
-0.000162378
-0.000157881
-0.000152699
-0.000146815
-0.000140222
-0.00013292
-0.000124865
-0.000115822
-0.000105613
-9.63208e-05
-4.13457e-05
-3.09865e-05
-1.96018e-05
-9.51816e-06
-5.53911e-07
7.53807e-06
1.47932e-05
2.11972e-05
2.67468e-05
3.1448e-05
3.53101e-05
3.83446e-05
4.05652e-05
4.19886e-05
4.26337e-05
4.25225e-05
4.1679e-05
4.01298e-05
3.79035e-05
3.50312e-05
3.15456e-05
2.7481e-05
2.28737e-05
1.7761e-05
1.21814e-05
6.17426e-06
-2.20168e-07
-6.96126e-06
-1.40081e-05
-2.13196e-05
-2.88549e-05
-3.65733e-05
-4.44345e-05
-5.2399e-05
-6.04277e-05
-6.84827e-05
-7.65267e-05
-8.45238e-05
-9.24388e-05
-0.000100238
-0.000107889
-0.00011536
-0.00012262
-0.000129642
-0.000136396
-0.000142856
-0.000148996
-0.000154792
-0.00016022
-0.000165256
-0.000169879
-0.000174066
-0.000177797
-0.000181052
-0.000183808
-0.000186048
-0.000187751
-0.000188897
-0.000189468
-0.000189443
-0.000188803
-0.000187528
-0.000185599
-0.000182997
-0.000179702
-0.000175695
-0.000170957
-0.000165469
-0.000159213
-0.000152178
-0.000144365
-0.000135724
-0.000125999
-0.000115001
-0.000104978
-3.07318e-05
-1.95326e-05
-7.25481e-06
3.57421e-06
1.31528e-05
2.17511e-05
2.94096e-05
3.61146e-05
4.18648e-05
4.66692e-05
5.05403e-05
5.3493e-05
5.55451e-05
5.67172e-05
5.70329e-05
5.65186e-05
5.5203e-05
5.31178e-05
5.02965e-05
4.67752e-05
4.25916e-05
3.77853e-05
3.23973e-05
2.64697e-05
2.0046e-05
1.31701e-05
5.88662e-06
-1.75948e-06
-9.7232e-06
-1.79596e-05
-2.64242e-05
-3.50728e-05
-4.38619e-05
-5.2749e-05
-6.16924e-05
-7.06513e-05
-7.95865e-05
-8.84595e-05
-9.72334e-05
-0.000105873
-0.000114343
-0.000122611
-0.000130646
-0.000138417
-0.000145894
-0.000153051
-0.00015986
-0.000166295
-0.000172332
-0.000177946
-0.000183114
-0.000187814
-0.000192023
-0.000195718
-0.00019888
-0.000201485
-0.000203512
-0.000204941
-0.00020575
-0.000205916
-0.000205419
-0.000204237
-0.000202347
-0.000199726
-0.000196354
-0.000192208
-0.000187266
-0.000181505
-0.000174906
-0.000167455
-0.00015915
-0.000149938
-0.000139542
-0.000127756
-0.000117001
-1.63584e-05
-4.30666e-06
8.86678e-06
2.04266e-05
3.05895e-05
3.96503e-05
4.76556e-05
5.45934e-05
6.04651e-05
6.52832e-05
6.90643e-05
7.18276e-05
7.35955e-05
7.43934e-05
7.42498e-05
7.31963e-05
7.12673e-05
6.84996e-05
6.49327e-05
6.06079e-05
5.55688e-05
4.98604e-05
4.35292e-05
3.66228e-05
2.91898e-05
2.12792e-05
1.29407e-05
4.2237e-06
-4.8222e-06
-1.41479e-05
-2.37047e-05
-3.34449e-05
-4.33215e-05
-5.32886e-05
-6.33015e-05
-7.33168e-05
-8.32925e-05
-9.3188e-05
-0.000102964
-0.000112584
-0.00012201
-0.000131209
-0.000140148
-0.000148794
-0.000157118
-0.000165091
-0.000172684
-0.00017987
-0.000186625
-0.000192922
-0.000198737
-0.000204047
-0.000208827
-0.000213056
-0.000216708
-0.000219763
-0.000222196
-0.000223985
-0.000225106
-0.000225535
-0.000225248
-0.000224221
-0.000222429
-0.000219848
-0.000216451
-0.000212214
-0.000207112
-0.000201119
-0.000194212
-0.000186374
-0.000177603
-0.000167838
-0.000156782
-0.000144214
-0.000132726
2.28733e-06
1.5195e-05
2.92545e-05
4.1517e-05
5.22189e-05
6.16819e-05
6.99598e-05
7.70433e-05
8.29373e-05
8.76592e-05
9.12304e-05
9.36752e-05
9.50214e-05
9.53001e-05
9.45455e-05
9.27954e-05
9.009e-05
8.64725e-05
8.19885e-05
7.66858e-05
7.06139e-05
6.38242e-05
5.63692e-05
4.83024e-05
3.96781e-05
3.0551e-05
2.09759e-05
1.10076e-05
7.00401e-07
-9.89201e-06
-2.07167e-05
-3.17218e-05
-4.28565e-05
-5.40715e-05
-6.53189e-05
-7.65523e-05
-8.77271e-05
-9.88003e-05
-0.000109731
-0.000120478
-0.000131006
-0.000141277
-0.000151256
-0.000160912
-0.000170212
-0.000179127
-0.000187626
-0.000195684
-0.000203271
-0.000210364
-0.000216935
-0.00022296
-0.000228415
-0.000233275
-0.000237515
-0.000241112
-0.00024404
-0.000246275
-0.000247791
-0.000248562
-0.000248562
-0.000247763
-0.000246139
-0.000243661
-0.000240301
-0.000236031
-0.000230821
-0.000224644
-0.00021747
-0.000209283
-0.000200076
-0.000189783
-0.000178084
-0.000164741
-0.000152523
2.57999e-05
3.95522e-05
5.44701e-05
6.73878e-05
7.85632e-05
8.83466e-05
9.68005e-05
0.000103919
0.000109713
0.000114205
0.000117422
0.000119395
0.000120158
0.000119748
0.000118207
0.000115579
0.000111911
0.000107254
0.00010166
9.51832e-05
8.78809e-05
7.98109e-05
7.10324e-05
6.16053e-05
5.15903e-05
4.1048e-05
3.00391e-05
1.86239e-05
6.86171e-06
-5.18862e-06
-1.74696e-05
-2.99251e-05
-4.25004e-05
-5.51424e-05
-6.77998e-05
-8.0423e-05
-9.29649e-05
-0.00010538
-0.000117625
-0.000129658
-0.00014144
-0.000152931
-0.000164097
-0.000174904
-0.000185318
-0.000195309
-0.000204846
-0.000213901
-0.000222446
-0.000230454
-0.000237898
-0.000244753
-0.000250994
-0.000256593
-0.000261526
-0.000265767
-0.00026929
-0.000272067
-0.000274071
-0.000275274
-0.000275647
-0.00027516
-0.000273783
-0.000271484
-0.000268232
-0.000263995
-0.00025874
-0.000252434
-0.000245046
-0.000236555
-0.00022695
-0.000216159
-0.00020384
-0.000189738
-0.000176797
5.48637e-05
6.94283e-05
8.51512e-05
9.86509e-05
0.000110208
0.000120203
0.000128709
0.000135726
0.000141269
0.000145369
0.00014806
0.00014938
0.00014937
0.000148077
0.000145548
0.000141836
0.000136995
0.000131085
0.000124164
0.000116296
0.000107544
9.7974e-05
8.76527e-05
7.66468e-05
6.50237e-05
5.28506e-05
4.01944e-05
2.7121e-05
1.36958e-05
-1.76196e-08
-1.39567e-05
-2.80609e-05
-4.22713e-05
-5.65313e-05
-7.0786e-05
-8.49815e-05
-9.90669e-05
-0.000112997
-0.000126728
-0.000140212
-0.000153409
-0.000166279
-0.000178786
-0.000190894
-0.000202568
-0.000213778
-0.000224493
-0.000234682
-0.000244317
-0.000253371
-0.000261816
-0.000269625
-0.000276772
-0.00028323
-0.000288972
-0.00029397
-0.000298197
-0.000301624
-0.000304221
-0.000305957
-0.000306801
-0.000306721
-0.000305682
-0.000303649
-0.000300588
-0.000296463
-0.000291235
-0.00028487
-0.000277329
-0.000268588
-0.000258633
-0.000247385
-0.000234479
-0.000219641
-0.000205991
9.02604e-05
0.000105576
0.000122017
0.000135992
0.000147806
0.000157871
0.000166272
0.000173015
0.000178125
0.000181639
0.000183601
0.000184057
0.000183058
0.000180656
0.00017691
0.000171881
0.000165632
0.000158229
0.000149742
0.000140242
0.0001298
0.00011849
0.000106387
9.35655e-05
8.00993e-05
6.60629e-05
5.15298e-05
3.65723e-05
2.12613e-05
5.66615e-06
-1.01457e-05
-2.61087e-05
-4.21599e-05
-5.82384e-05
-7.42862e-05
-9.02487e-05
-0.000106072
-0.000121704
-0.000137098
-0.000152209
-0.000166992
-0.000181408
-0.000195417
-0.000208986
-0.000222077
-0.000234659
-0.000246701
-0.000258171
-0.00026904
-0.000279281
-0.000288865
-0.000297764
-0.000305952
-0.000313399
-0.000320078
-0.00032596
-0.000331015
-0.000335212
-0.00033852
-0.000340905
-0.000342333
-0.000342768
-0.000342172
-0.000340508
-0.000337735
-0.000333813
-0.0003287
-0.000322355
-0.000314736
-0.000305812
-0.000295568
-0.000283915
-0.000270463
-0.000254924
-0.000240588
0.000132873
0.000148841
0.000165869
0.000180171
0.000192076
0.000202029
0.000210128
0.00021639
0.000220846
0.000223545
0.000224541
0.000223889
0.00022165
0.000217886
0.000212665
0.000206058
0.000198138
0.00018898
0.000178664
0.000167268
0.000154875
0.000141565
0.000127423
0.00011253
9.69686e-05
8.08205e-05
6.41657e-05
4.70832e-05
2.965e-05
1.19411e-05
-5.97086e-06
-2.40156e-05
-4.21257e-05
-6.02363e-05
-7.82857e-05
-9.62149e-05
-0.000113969
-0.000131494
-0.000148744
-0.000165672
-0.000182227
-0.000198366
-0.000214053
-0.000229253
-0.000243929
-0.000258048
-0.000271578
-0.000284487
-0.000296748
-0.000308329
-0.000319204
-0.000329343
-0.000338718
-0.000347301
-0.000355061
-0.000361968
-0.00036799
-0.000373096
-0.000377249
-0.000380415
-0.000382556
-0.000383632
-0.000383602
-0.000382424
-0.000380052
-0.000376443
-0.000371548
-0.00036532
-0.000357712
-0.000348689
-0.000338229
-0.000326236
-0.000312296
-0.000296101
-0.000281114
0.000183691
0.000200164
0.000217593
0.000232021
0.000243803
0.000253414
0.00026097
0.000266497
0.000270038
0.000271654
0.000271409
0.000269369
0.000265607
0.000260195
0.000253212
0.000244739
0.00023486
0.00022366
0.000211228
0.000197654
0.000183027
0.000167439
0.000150982
0.000133747
0.000115823
9.72994e-05
7.82643e-05
5.88028e-05
3.89983e-05
1.89314e-05
-1.31983e-06
-2.16805e-05
-4.20788e-05
-6.24462e-05
-8.27174e-05
-0.000102831
-0.000122728
-0.000142353
-0.000161653
-0.000180582
-0.000199099
-0.000217155
-0.000234708
-0.000251723
-0.000268164
-0.000283997
-0.000299191
-0.000313714
-0.000327536
-0.000340628
-0.000352961
-0.000364506
-0.000375234
-0.000385115
-0.000394118
-0.00040221
-0.000409359
-0.00041553
-0.000420684
-0.000424783
-0.000427787
-0.000429651
-0.00043033
-0.000429776
-0.00042794
-0.000424771
-0.000420216
-0.000414222
-0.000406734
-0.000397712
-0.000387127
-0.000374875
-0.000360518
-0.000343731
-0.000328137
0.000243806
0.000260577
0.000278154
0.000292445
0.000303829
0.000312815
0.000319533
0.000324024
0.000326343
0.000326564
0.000324763
0.00032102
0.000315417
0.00030804
0.00029898
0.000288327
0.000276176
0.000262625
0.000247771
0.000231714
0.000214555
0.000196395
0.000177333
0.000157469
0.000136901
0.000115727
9.40412e-05
7.19356e-05
4.94998e-05
2.68205e-05
3.98077e-06
-1.89397e-05
-4.18649e-05
-6.47226e-05
-8.74445e-05
-0.000109966
-0.000132227
-0.00015417
-0.000175738
-0.00019688
-0.000217555
-0.000237723
-0.000257341
-0.000276367
-0.000294767
-0.000312507
-0.000329555
-0.00034588
-0.000361453
-0.000376243
-0.000390221
-0.000403358
-0.000415625
-0.000426989
-0.000437419
-0.00044688
-0.000455338
-0.000462754
-0.000469089
-0.000474299
-0.00047834
-0.000481163
-0.000482719
-0.000482954
-0.000481812
-0.000479237
-0.000475169
-0.000469547
-0.00046231
-0.000453409
-0.000442811
-0.000430401
-0.000415717
-0.000398416
-0.000382277
0.000314407
0.000331197
0.000348586
0.000362401
0.000373046
0.000381058
0.000386586
0.000389684
0.000390424
0.000388893
0.000385182
0.000379382
0.000371589
0.000361901
0.00035042
0.000337249
0.000322494
0.000306262
0.000288663
0.000269806
0.000249802
0.000228761
0.000206792
0.000184004
0.000160502
0.000136392
0.000111776
8.67531e-05
6.14181e-05
3.58638e-05
1.01785e-05
-1.55536e-05
-4.12523e-05
-6.68419e-05
-9.22508e-05
-0.000117412
-0.000142263
-0.000166745
-0.000190802
-0.000214385
-0.000237445
-0.000259941
-0.000281832
-0.000303079
-0.000323647
-0.000343503
-0.000362614
-0.00038095
-0.000398482
-0.000415179
-0.000431012
-0.000445952
-0.000459967
-0.000473025
-0.000485094
-0.000496136
-0.000506113
-0.000514986
-0.00052271
-0.000529239
-0.000534523
-0.000538508
-0.00054114
-0.000542357
-0.000542099
-0.0005403
-0.000536894
-0.00053181
-0.000524981
-0.000516349
-0.000505874
-0.000493429
-0.000478528
-0.000460812
-0.000444205
0.00039677
0.000413208
0.000429974
0.000442888
0.000452374
0.000458992
0.000462911
0.000464203
0.000462956
0.000459271
0.000453253
0.000445008
0.000434644
0.000422273
0.000408006
0.000391959
0.000374249
0.000354994
0.000334314
0.000312329
0.000289158
0.000264922
0.000239737
0.000213722
0.000186991
0.000159655
0.000131825
0.000103605
7.5098e-05
4.6401e-05
1.76075e-05
-1.11939e-05
-3.99193e-05
-6.84896e-05
-9.68307e-05
-0.000124873
-0.000152553
-0.00017981
-0.000206588
-0.000232838
-0.000258511
-0.000283564
-0.000307958
-0.000331654
-0.000354619
-0.000376819
-0.000398223
-0.000418802
-0.000438525
-0.000457364
-0.00047529
-0.00049227
-0.000508275
-0.000523271
-0.000537222
-0.000550089
-0.000561833
-0.000572409
-0.000581769
-0.000589861
-0.000596631
-0.00060202
-0.000605963
-0.000608395
-0.000609246
-0.000608442
-0.000605908
-0.000601563
-0.000595332
-0.000587146
-0.000576956
-0.000564625
-0.000549643
-0.000531633
-0.000514651
0.000492229
0.000507838
0.000523431
0.000534915
0.000542733
0.000547459
0.000549282
0.000548292
0.000544596
0.000538309
0.000529551
0.000518442
0.000505101
0.000489651
0.000472217
0.000452924
0.000431899
0.000409271
0.00038517
0.000359724
0.000333063
0.000305314
0.000276605
0.000247061
0.000216803
0.000185952
0.000154623
0.000122928
9.09746e-05
5.88659e-05
2.66998e-05
-5.43117e-06
-3.74396e-05
-6.92435e-05
-0.000100767
-0.000131938
-0.000162692
-0.000192967
-0.000222709
-0.000251867
-0.000280394
-0.000308247
-0.000335387
-0.000361779
-0.000387387
-0.000412182
-0.000436133
-0.000459211
-0.000481388
-0.000502634
-0.000522919
-0.000542214
-0.000560486
-0.000577699
-0.000593816
-0.000608796
-0.000622595
-0.000635164
-0.000646451
-0.000656398
-0.000664943
-0.000672021
-0.00067756
-0.000681484
-0.000683715
-0.000684168
-0.000682758
-0.000679394
-0.000673988
-0.000666462
-0.000656756
-0.000644718
-0.000629818
-0.000611661
-0.000594418
0.000602142
0.000616322
0.000630054
0.000639466
0.000645007
0.000647257
0.000646421
0.000642614
0.000635955
0.000626578
0.000614613
0.000600194
0.00058345
0.000564515
0.000543523
0.000520608
0.000495908
0.000469559
0.000441699
0.000412465
0.000381995
0.000350424
0.000317888
0.000284519
0.000250445
0.000215794
0.000180688
0.000145243
0.000109574
7.37884e-05
3.79875e-05
2.26822e-06
-3.32792e-05
-6.85704e-05
-0.000103527
-0.000138078
-0.000172155
-0.0002057
-0.000238656
-0.000270973
-0.000302607
-0.000333516
-0.000363662
-0.000393012
-0.000421534
-0.000449197
-0.000475974
-0.000501837
-0.000526759
-0.00055071
-0.000573662
-0.000595584
-0.000616441
-0.000636197
-0.000654812
-0.000672241
-0.000688435
-0.000703341
-0.0007169
-0.000729047
-0.000739714
-0.000748824
-0.000756297
-0.000762047
-0.000765983
-0.00076801
-0.000768029
-0.000765937
-0.000761631
-0.000755023
-0.000746038
-0.000734511
-0.000719889
-0.000701761
-0.000684394
0.000727842
0.000739844
0.000750875
0.00075744
0.000759988
0.000759086
0.000754957
0.000747733
0.000737553
0.00072456
0.000708897
0.000690705
0.000670124
0.000647293
0.000622355
0.000595453
0.000566725
0.000536318
0.000504374
0.00047104
0.000436457
0.00040077
0.00036412
0.000326644
0.000288479
0.000249756
0.000210605
0.000171149
0.000131504
9.17838e-05
5.20938e-05
1.25337e-05
-2.68035e-05
-6.58318e-05
-0.000104472
-0.000142651
-0.000180303
-0.000217368
-0.000253793
-0.000289528
-0.000324532
-0.000358764
-0.000392191
-0.00042478
-0.000456503
-0.000487333
-0.000517243
-0.000546207
-0.000574201
-0.000601195
-0.000627161
-0.000652067
-0.000675878
-0.000698555
-0.000720054
-0.000740326
-0.000759317
-0.000776966
-0.000793208
-0.000807969
-0.00082117
-0.000832724
-0.000842539
-0.000850516
-0.00085655
-0.000860532
-0.000862348
-0.000861879
-0.000859007
-0.000853627
-0.00084565
-0.000834895
-0.000820786
-0.000802898
-0.000785568
0.000870556
0.000879466
0.000886777
0.000889578
0.000888304
0.000883483
0.000875351
0.000864058
0.000849755
0.000832596
0.000812728
0.000790298
0.00076545
0.000738325
0.000709065
0.000677822
0.00064474
0.000609962
0.000573637
0.000535914
0.000496941
0.000456867
0.000415838
0.000373997
0.000331485
0.000288441
0.000244998
0.000201283
0.000157419
0.000113523
6.97032e-05
2.60625e-05
-1.73042e-05
-6.03094e-05
-0.000102873
-0.000144924
-0.000186396
-0.000227231
-0.000267378
-0.000306791
-0.000345431
-0.000383262
-0.000420254
-0.000456378
-0.000491609
-0.000525924
-0.0005593
-0.000591714
-0.000623141
-0.000653556
-0.000682929
-0.000711228
-0.000738416
-0.00076445
-0.000789283
-0.000812861
-0.000835121
-0.000855996
-0.000875409
-0.000893277
-0.000909506
-0.000923999
-0.000936646
-0.000947335
-0.000955942
-0.000962339
-0.000966396
-0.000967975
-0.000966939
-0.000963163
-0.000956542
-0.000946872
-0.000933559
-0.000916161
-0.000899061
0.00103128
0.00103599
0.00103838
0.00103635
0.00103031
0.00102072
0.00100781
0.000991749
0.000972696
0.000950806
0.000926228
0.000899103
0.000869575
0.000837781
0.000803864
0.000767962
0.000730227
0.000690801
0.000649832
0.00060747
0.000563864
0.000519166
0.000473526
0.000427091
0.000380008
0.000332418
0.00028446
0.000236267
0.000187964
0.000139672
9.15024e-05
4.35612e-05
-4.05554e-06
-5.12597e-05
-9.79719e-05
-0.000144121
-0.000189645
-0.000234487
-0.000278601
-0.000321944
-0.000364483
-0.000406186
-0.00044703
-0.00048699
-0.000526048
-0.000564185
-0.000601382
-0.00063762
-0.000672877
-0.00070713
-0.000740349
-0.000772502
-0.000803549
-0.000833444
-0.000862133
-0.000889556
-0.000915641
-0.00094031
-0.000963474
-0.000985034
-0.00100488
-0.00102291
-0.00103898
-0.00105297
-0.00106472
-0.00107409
-0.00108092
-0.00108506
-0.00108635
-0.00108463
-0.00107979
-0.00107158
-0.0010594
-0.00104279
-0.00102615
0.0012107
0.00120992
0.00120599
0.00119792
0.00118604
0.00117072
0.00115219
0.00113062
0.00110618
0.00107899
0.00104921
0.00101697
0.000982382
0.000945586
0.000906711
0.000865888
0.000823255
0.000778952
0.000733122
0.000685913
0.000637474
0.000587957
0.000537513
0.000486294
0.000434448
0.000382123
0.000329461
0.000276598
0.000223666
0.000170787
0.000118077
6.56441e-05
1.35851e-05
-3.80114e-05
-8.90679e-05
-0.000139516
-0.000189296
-0.000238358
-0.000286659
-0.000334164
-0.000380845
-0.00042668
-0.000471651
-0.000515744
-0.000558946
-0.000601245
-0.00064263
-0.000683087
-0.000722598
-0.000761141
-0.000798689
-0.000835209
-0.000870658
-0.000904985
-0.00093813
-0.000970022
-0.00100058
-0.00102971
-0.00105731
-0.00108326
-0.00110743
-0.00112969
-0.00114991
-0.00116789
-0.00118347
-0.00119649
-0.00120675
-0.00121408
-0.00121828
-0.00121918
-0.00121661
-0.00121033
-0.0011997
-0.00118424
-0.00116833
0.00140906
0.00140126
0.00138933
0.00137381
0.00135491
0.00133285
0.00130782
0.00128
0.00124952
0.00121651
0.00118107
0.00114332