/*--------------------------------*- C++ -*----------------------------------*\
  =========                 |
  \\      /  F ield         | OpenFOAM: The Open Source CFD Toolbox
   \\    /   O peration     | Website:  https://openfoam.org
    \\  /    A nd           | Version:  12
     \\/     M anipulation  |
\*---------------------------------------------------------------------------*/
FoamFile
{
    format      ascii;
    class       volScalarField;
    location    "9.5";
    object      nut;
}
// * * * * * * * * * * * * * * * * * * * * * * * * * * * * * * * * * * * * * //

dimensions      [0 2 -1 0 0 0 0];

internalField   nonuniform List<scalar> 
5625
(
4.44089e-21
1.29871e-20
2.87994e-20
4.74133e-20
6.78255e-20
8.93465e-20
1.11442e-19
1.33681e-19
1.55715e-19
1.77269e-19
1.98139e-19
2.18186e-19
2.37333e-19
2.55563e-19
2.7291e-19
2.89453e-19
3.05307e-19
3.20612e-19
3.35528e-19
3.50224e-19
3.64874e-19
3.79646e-19
3.94702e-19
4.10196e-19
4.26269e-19
4.43049e-19
4.6065e-19
4.79176e-19
4.98717e-19
5.19352e-19
5.41147e-19
5.64159e-19
5.88432e-19
6.14e-19
6.40882e-19
6.69086e-19
6.986e-19
7.29396e-19
7.61423e-19
7.946e-19
8.28817e-19
8.63921e-19
8.99715e-19
9.35942e-19
9.72283e-19
1.00834e-18
1.04364e-18
1.07759e-18
1.10952e-18
1.13865e-18
1.16407e-18
1.18476e-18
1.19953e-18
1.20679e-18
1.20724e-18
1.19876e-18
1.18026e-18
1.1511e-18
1.11096e-18
1.05992e-18
9.9851e-19
9.27732e-19
8.49073e-19
7.64436e-19
6.7603e-19
5.8621e-19
4.97305e-19
4.11439e-19
3.30393e-19
2.55523e-19
1.8776e-19
1.27732e-19
7.6037e-20
3.38755e-20
4.99892e-21
5.81605e-20
1.89506e-18
4.73868e-18
7.9992e-18
1.1541e-17
1.52597e-17
1.9069e-17
2.28973e-17
2.66861e-17
3.03889e-17
3.3971e-17
3.74088e-17
4.06897e-17
4.3811e-17
4.67788e-17
4.96068e-17
5.23151e-17
5.49279e-17
5.7473e-17
5.99795e-17
6.24769e-17
6.49944e-17
6.75599e-17
7.01994e-17
7.29369e-17
7.57944e-17
7.87913e-17
8.19451e-17
8.52712e-17
8.87827e-17
9.2491e-17
9.64057e-17
1.00534e-16
1.04882e-16
1.09453e-16
1.14248e-16
1.19266e-16
1.24502e-16
1.29947e-16
1.3559e-16
1.41411e-16
1.47387e-16
1.53484e-16
1.5966e-16
1.65864e-16
1.72029e-16
1.78075e-16
1.83907e-16
1.89409e-16
1.94449e-16
1.98876e-16
2.02516e-16
2.05163e-16
2.06506e-16
2.06701e-16
2.05361e-16
2.02296e-16
1.97392e-16
1.90589e-16
1.81892e-16
1.71388e-16
1.59247e-16
1.45725e-16
1.31152e-16
1.15916e-16
1.00429e-16
8.51001e-17
7.03015e-17
5.63427e-17
4.34552e-17
3.17911e-17
2.14379e-17
1.24515e-17
4.92871e-18
1.51011e-19
1.23294e-19
1.01397e-17
3.24774e-17
5.8609e-17
8.66316e-17
1.15792e-16
1.45493e-16
1.75226e-16
2.04563e-16
2.3316e-16
2.6076e-16
2.87191e-16
3.12361e-16
3.36255e-16
3.58927e-16
3.80488e-16
4.01096e-16
4.20943e-16
4.40245e-16
4.59226e-16
4.78117e-16
4.97141e-16
5.16511e-16
5.36426e-16
5.57069e-16
5.78603e-16
6.01176e-16
6.2492e-16
6.49946e-16
6.76356e-16
7.04232e-16
7.33646e-16
7.64654e-16
7.97298e-16
8.31607e-16
8.67592e-16
9.05246e-16
9.44541e-16
9.85423e-16
1.02781e-15
1.07157e-15
1.11655e-15
1.16251e-15
1.20916e-15
1.25614e-15
1.30297e-15
1.34907e-15
1.39376e-15
1.43618e-15
1.47535e-15
1.51012e-15
1.53919e-15
1.56107e-15
1.57274e-15
1.57636e-15
1.56826e-15
1.54686e-15
1.51119e-15
1.46065e-15
1.39518e-15
1.31534e-15
1.22239e-15
1.11831e-15
1.00573e-15
8.87723e-16
7.67629e-16
6.48735e-16
5.34023e-16
4.2593e-16
3.26207e-16
2.35875e-16
1.55306e-16
8.45786e-17
2.62673e-17
3.19795e-19
2.01514e-19
2.37618e-17
9.73951e-17
1.93591e-16
2.97799e-16
4.05576e-16
5.14607e-16
6.23126e-16
7.29683e-16
8.33115e-16
9.32553e-16
1.02742e-15
1.11744e-15
1.20258e-15
1.28308e-15
1.35936e-15
1.43202e-15
1.50177e-15
1.5694e-15
1.63573e-15
1.70157e-15
1.76775e-15
1.835e-15
1.90403e-15
1.97549e-15
2.04993e-15
2.12788e-15
2.20978e-15
2.29602e-15
2.38694e-15
2.48282e-15
2.5839e-15
2.69039e-15
2.80244e-15
2.92015e-15
3.0436e-15
3.17277e-15
3.30763e-15
3.44803e-15
3.59375e-15
3.74445e-15
3.89965e-15
4.05868e-15
4.22065e-15
4.38442e-15
4.54849e-15
4.711e-15
4.86964e-15
5.02158e-15
5.16342e-15
5.2912e-15
5.40028e-15
5.48623e-15
5.53448e-15
5.55736e-15
5.53869e-15
5.47241e-15
5.35453e-15
5.18242e-15
4.95529e-15
4.67472e-15
4.34505e-15
3.97342e-15
3.56949e-15
3.14483e-15
2.71195e-15
2.28324e-15
1.8698e-15
1.48055e-15
1.12159e-15
7.9605e-16
5.0483e-16
2.50967e-16
6.12946e-17
5.2053e-19
2.90329e-19
4.00681e-17
1.97379e-16
4.34715e-16
7.02998e-16
9.82066e-16
1.26333e-15
1.54172e-15
1.81352e-15
2.07592e-15
2.32686e-15
2.56505e-15
2.7899e-15
3.0015e-15
3.20053e-15
3.38818e-15
3.56602e-15
3.73592e-15
3.89989e-15
4.06005e-15
4.21845e-15
4.37711e-15
4.5379e-15
4.70254e-15
4.87258e-15
5.04942e-15
5.23426e-15
5.42818e-15
5.63211e-15
5.84684e-15
6.07307e-15
6.31137e-15
6.56225e-15
6.8261e-15
7.10326e-15
7.39393e-15
7.69826e-15
8.01625e-15
8.34776e-15
8.69248e-15
9.04982e-15
9.41892e-15
9.79849e-15
1.01867e-14
1.05812e-14
1.09788e-14
1.13752e-14
1.17651e-14
1.21419e-14
1.24975e-14
1.28221e-14
1.31047e-14
1.33361e-14
1.34701e-14
1.35494e-14
1.35263e-14
1.33846e-14
1.31137e-14
1.27058e-14
1.21579e-14
1.14731e-14
1.06621e-14
9.74255e-15
8.73931e-15
7.68212e-15
6.60331e-15
5.53474e-15
4.50477e-15
3.53576e-15
2.64252e-15
1.83259e-15
1.11141e-15
5.02661e-16
1.02747e-16
7.4547e-19
3.88013e-19
5.7842e-17
3.22479e-16
7.78393e-16
1.32717e-15
1.90948e-15
2.49797e-15
3.0785e-15
3.6423e-15
4.18337e-15
4.69767e-15
5.1828e-15
5.63786e-15
6.06336e-15
6.46098e-15
6.83341e-15
7.18409e-15
7.51698e-15
7.83635e-15
8.14654e-15
8.45182e-15
8.75625e-15
9.06361e-15
9.37733e-15
9.70048e-15
1.00358e-14
1.03856e-14
1.0752e-14
1.11368e-14
1.15416e-14
1.19677e-14
1.24164e-14
1.28886e-14
1.33852e-14
1.39071e-14
1.44549e-14
1.5029e-14
1.56299e-14
1.62577e-14
1.69121e-14
1.75926e-14
1.82979e-14
1.90261e-14
1.97744e-14
2.05385e-14
2.13126e-14
2.20892e-14
2.2858e-14
2.36062e-14
2.43177e-14
2.49726e-14
2.55521e-14
2.60353e-14
2.63187e-14
2.65046e-14
2.64859e-14
2.62295e-14
2.57132e-14
2.49208e-14
2.38458e-14
2.2494e-14
2.0887e-14
1.90612e-14
1.70668e-14
1.49644e-14
1.28193e-14
1.06955e-14
8.64987e-15
6.72662e-15
4.95542e-15
3.35403e-15
1.94525e-15
8.10429e-16
1.4713e-16
9.88748e-19
4.93467e-19
7.67061e-17
4.63952e-16
1.2065e-15
2.16292e-15
3.20903e-15
4.27651e-15
5.32982e-15
6.34886e-15
7.32136e-15
8.23979e-15
9.10015e-15
9.90138e-15
1.0645e-14
1.13345e-14
1.19753e-14
1.2574e-14
1.3138e-14
1.36751e-14
1.41933e-14
1.47002e-14
1.52031e-14
1.57085e-14
1.62226e-14
1.67505e-14
1.72971e-14
1.78663e-14
1.84617e-14
1.90865e-14
1.97434e-14
2.04348e-14
2.11627e-14
2.19293e-14
2.27362e-14
2.35851e-14
2.44776e-14
2.54148e-14
2.63979e-14
2.74277e-14
2.85044e-14
2.96277e-14
3.07963e-14
3.20075e-14
3.3257e-14
3.45381e-14
3.58416e-14
3.71545e-14
3.84595e-14
3.97342e-14
4.09506e-14
4.20732e-14
4.30729e-14
4.39066e-14
4.4393e-14
4.47165e-14
4.46859e-14
4.42429e-14
4.33509e-14
4.19841e-14
4.01336e-14
3.78141e-14
3.50624e-14
3.19424e-14
2.85408e-14
2.4961e-14
2.13136e-14
1.77068e-14
1.42355e-14
1.09742e-14
7.97429e-15
5.27448e-15
2.93957e-15
1.14856e-15
1.93125e-16
1.24614e-18
6.0598e-19
9.65516e-17
6.16511e-16
1.69863e-15
3.18316e-15
4.86493e-15
6.60731e-15
8.33338e-15
1.00003e-14
1.15836e-14
1.30695e-14
1.44516e-14
1.57287e-14
1.69042e-14
1.7985e-14
1.89806e-14
1.99026e-14
2.07635e-14
2.15767e-14
2.23552e-14
2.31116e-14
2.38576e-14
2.46038e-14
2.53599e-14
2.61342e-14
2.69343e-14
2.77664e-14
2.86363e-14
2.95489e-14
3.05087e-14
3.15194e-14
3.25848e-14
3.37081e-14
3.48925e-14
3.61411e-14
3.74566e-14
3.88416e-14
4.02984e-14
4.18289e-14
4.34341e-14
4.51141e-14
4.68674e-14
4.86902e-14
5.05761e-14
5.25149e-14
5.44917e-14
5.64861e-14
5.84704e-14
6.04087e-14
6.22557e-14
6.39557e-14
6.5457e-14
6.66955e-14
6.73975e-14
6.78368e-14
6.77256e-14
6.69734e-14
6.55307e-14
6.33648e-14
6.04683e-14
5.68669e-14
5.2624e-14
4.78401e-14
4.26482e-14
3.72036e-14
3.16712e-14
2.62104e-14
2.09611e-14
1.60341e-14
1.15106e-14
7.46455e-15
4.02623e-15
1.50065e-15
2.40161e-16
1.51436e-18
7.25093e-19
1.17346e-16
7.77465e-16
2.23838e-15
4.35473e-15
6.83894e-15
9.4602e-15
1.2075e-14
1.46009e-14
1.69917e-14
1.92226e-14
2.12831e-14
2.3172e-14
2.48958e-14
2.64663e-14
2.78995e-14
2.9214e-14
3.04299e-14
3.1568e-14
3.26486e-14
3.36907e-14
3.47123e-14
3.57294e-14
3.67562e-14
3.78054e-14
3.88877e-14
4.00129e-14
4.11899e-14
4.24259e-14
4.37271e-14
4.50998e-14
4.65494e-14
4.80813e-14
4.97003e-14
5.14114e-14
5.3219e-14
5.51273e-14
5.71401e-14
5.92604e-14
6.14903e-14
6.38296e-14
6.62763e-14
6.88246e-14
7.14646e-14
7.41802e-14
7.6949e-14
7.97394e-14
8.25093e-14
8.52043e-14
8.7757e-14
9.00862e-14
9.21025e-14
9.37145e-14
9.45883e-14
9.50465e-14
9.47155e-14
9.34671e-14
9.12465e-14
8.80219e-14
8.37959e-14
7.86154e-14
7.25773e-14
6.58258e-14
5.85458e-14
5.09488e-14
4.32567e-14
3.56822e-14
2.84118e-14
2.15953e-14
1.53499e-14
9.79784e-15
5.15278e-15
1.85741e-15
2.87907e-16
1.7909e-18
8.50503e-19
1.39079e-16
9.45586e-16
2.81465e-15
5.64749e-15
9.08447e-15
1.27824e-14
1.65042e-14
2.01062e-14
2.35076e-14
2.6666e-14
2.95638e-14
3.21996e-14
3.45843e-14
3.67367e-14
3.86819e-14
4.04483e-14
4.20661e-14
4.35663e-14
4.49786e-14
4.63307e-14
4.76482e-14
4.89541e-14
5.02687e-14
5.16097e-14
5.29923e-14
5.44301e-14
5.59345e-14
5.75163e-14
5.91852e-14
6.09496e-14
6.28178e-14
6.47974e-14
6.68956e-14
6.91197e-14
7.14761e-14
7.39714e-14
7.66106e-14
7.93977e-14
8.23347e-14
8.54213e-14
8.86532e-14
9.20214e-14
9.55101e-14
9.90957e-14
1.02743e-13
1.06405e-13
1.1002e-13
1.13509e-13
1.16777e-13
1.19712e-13
1.22187e-13
1.24048e-13
1.24971e-13
1.25284e-13
1.24531e-13
1.22551e-13
1.19298e-13
1.14753e-13
1.08936e-13
1.01926e-13
9.38577e-14
8.49234e-14
7.53611e-14
6.54384e-14
5.54317e-14
4.56042e-14
3.61868e-14
2.7368e-14
1.93044e-14
1.21748e-14
6.28447e-15
2.21381e-15
3.3612e-16
2.07376e-18
9.81999e-19
1.6175e-16
1.12038e-15
3.42071e-15
7.03789e-15
1.15573e-14
1.65129e-14
2.15499e-14
2.6441e-14
3.10537e-14
3.53189e-14
3.92078e-14
4.2719e-14
4.58689e-14
4.86861e-14
5.12073e-14
5.34739e-14
5.55294e-14
5.74169e-14
5.9178e-14
6.08516e-14
6.24728e-14
6.4073e-14
6.56798e-14
6.73173e-14
6.90066e-14
7.07658e-14
7.26105e-14
7.4555e-14
7.66122e-14
7.87938e-14
8.11108e-14
8.35735e-14
8.6192e-14
8.89754e-14
9.19327e-14
9.50717e-14
9.83989e-14
1.01918e-13
1.05632e-13
1.09537e-13
1.13626e-13
1.17884e-13
1.22285e-13
1.26795e-13
1.31362e-13
1.35918e-13
1.40378e-13
1.44634e-13
1.48559e-13
1.52004e-13
1.54808e-13
1.56751e-13
1.57484e-13
1.57474e-13
1.56057e-13
1.53094e-13
1.48557e-13
1.42453e-13
1.34831e-13
1.25803e-13
1.15549e-13
1.04307e-13
9.23674e-14
8.00485e-14
6.76766e-14
5.55599e-14
4.39695e-14
3.31295e-14
2.32361e-14
1.45274e-14
7.40045e-15
2.56706e-15
3.84608e-16
2.36134e-18
1.11945e-18
1.85363e-16
1.30173e-15
4.05284e-15
8.50927e-15
1.42205e-14
2.0594e-14
2.71369e-14
3.35148e-14
3.9527e-14
4.50671e-14
5.00908e-14
5.45948e-14
5.86025e-14
6.21546e-14
6.53032e-14
6.81058e-14
7.06226e-14
7.29122e-14
7.50306e-14
7.70297e-14
7.8956e-14
8.08509e-14
8.27507e-14
8.46866e-14
8.66861e-14
8.87726e-14
9.09667e-14
9.32867e-14
9.57492e-14
9.83695e-14
1.01162e-13
1.04139e-13
1.07313e-13
1.10697e-13
1.143e-13
1.18132e-13
1.22199e-13
1.26505e-13
1.3105e-13
1.35828e-13
1.40823e-13
1.46013e-13
1.5136e-13
1.56812e-13
1.62297e-13
1.67723e-13
1.72974e-13
1.77912e-13
1.82373e-13
1.86175e-13
1.89119e-13
1.90947e-13
1.91199e-13
1.90648e-13
1.88347e-13
1.8416e-13
1.78115e-13
1.70257e-13
1.60672e-13
1.49507e-13
1.36984e-13
1.23388e-13
1.09054e-13
9.43463e-14
7.96347e-14
6.52664e-14
5.15468e-14
3.87325e-14
2.70568e-14
1.68145e-14
8.4893e-15
2.91562e-15
4.33216e-16
2.65236e-18
1.26278e-18
2.09923e-16
1.48966e-15
4.7092e-15
1.00508e-14
1.70456e-14
2.49757e-14
3.31942e-14
4.12386e-14
4.88222e-14
5.57902e-14
6.20775e-14
6.76778e-14
7.26229e-14
7.69687e-14
8.07854e-14
8.41508e-14
8.71441e-14
8.9843e-14
9.23204e-14
9.46433e-14
9.68714e-14
9.90575e-14
1.01248e-13
1.03481e-13
1.05792e-13
1.08211e-13
1.10763e-13
1.13471e-13
1.16355e-13
1.19434e-13
1.22726e-13
1.26247e-13
1.3001e-13
1.3403e-13
1.38319e-13
1.42886e-13
1.47736e-13
1.52872e-13
1.58289e-13
1.63974e-13
1.69904e-13
1.76043e-13
1.82337e-13
1.88713e-13
1.95076e-13
2.01303e-13
2.07247e-13
2.12735e-13
2.1757e-13
2.21536e-13
2.24403e-13
2.25875e-13
2.25444e-13
2.24014e-13
2.2069e-13
2.15073e-13
2.07337e-13
1.97584e-13
1.85932e-13
1.72569e-13
1.57753e-13
1.4181e-13
1.25118e-13
1.08079e-13
9.11004e-14
7.45617e-14
5.87983e-14
4.4095e-14
3.07183e-14
1.90147e-14
9.54558e-15
3.25867e-15
4.81821e-16
2.94582e-18
1.41194e-18
2.35437e-16
1.68429e-15
5.38908e-15
1.16558e-14
2.00125e-14
2.96183e-14
3.96607e-14
4.95301e-14
5.88376e-14
6.73689e-14
7.50327e-14
8.18183e-14
8.77673e-14
9.29536e-14
9.74693e-14
1.01415e-13
1.04894e-13
1.08004e-13
1.10838e-13
1.1348e-13
1.16006e-13
1.18479e-13
1.20956e-13
1.23487e-13
1.26113e-13
1.2887e-13
1.31789e-13
1.34898e-13
1.3822e-13
1.4178e-13
1.45596e-13
1.49687e-13
1.54071e-13
1.58761e-13
1.63769e-13
1.69105e-13
1.74773e-13
1.80769e-13
1.87084e-13
1.93695e-13
2.00568e-13
2.07649e-13
2.14864e-13
2.22117e-13
2.29283e-13
2.36209e-13
2.42716e-13
2.48594e-13
2.53617e-13
2.57539e-13
2.6011e-13
2.60988e-13
2.59668e-13
2.5713e-13
2.52566e-13
2.45418e-13
2.35851e-13
2.24104e-13
2.10331e-13
1.94749e-13
1.77655e-13
1.59409e-13
1.40423e-13
1.21137e-13
1.01985e-13
8.33769e-14
6.5673e-14
4.91827e-14
3.42013e-14
2.11199e-14
1.05671e-14
3.5958e-15
5.30331e-16
3.24096e-18
1.56692e-18
2.61914e-16
1.88577e-15
6.0924e-15
1.33208e-14
2.31074e-14
3.44919e-14
4.64864e-14
5.83189e-14
6.94828e-14
7.96946e-14
8.88309e-14
9.68761e-14
1.03883e-13
1.09946e-13
1.15183e-13
1.19721e-13
1.23688e-13
1.27208e-13
1.30395e-13
1.33352e-13
1.3617e-13
1.38927e-13
1.41692e-13
1.44522e-13
1.47468e-13
1.50571e-13
1.53869e-13
1.57393e-13
1.61173e-13
1.65234e-13
1.69598e-13
1.74287e-13
1.79319e-13
1.84708e-13
1.90466e-13
1.966e-13
2.0311e-13
2.09988e-13
2.17214e-13
2.24754e-13
2.32558e-13
2.40554e-13
2.48643e-13
2.56702e-13
2.64575e-13
2.72079e-13
2.78998e-13
2.85096e-13
2.90117e-13
2.93795e-13
2.95865e-13
2.9593e-13
2.93526e-13
2.8978e-13
2.83696e-13
2.74995e-13
2.635e-13
2.49699e-13
2.33779e-13
2.15987e-13
1.96647e-13
1.76155e-13
1.54952e-13
1.33507e-13
1.12281e-13
9.17066e-14
7.21672e-14
5.39932e-14
3.75048e-14
2.31305e-14
1.15541e-14
3.92695e-15
5.78683e-16
3.53725e-18
1.72773e-18
2.89363e-16
2.09426e-15
6.81943e-15
1.50442e-14
2.63217e-14
3.95748e-14
5.36327e-14
6.75472e-14
8.06814e-14
9.26726e-14
1.03362e-13
1.12727e-13
1.20834e-13
1.27801e-13
1.33773e-13
1.38909e-13
1.43366e-13
1.47294e-13
1.5083e-13
1.54097e-13
1.57205e-13
1.60246e-13
1.63299e-13
1.66434e-13
1.69707e-13
1.73167e-13
1.76858e-13
1.80815e-13
1.85072e-13
1.89656e-13
1.94593e-13
1.99906e-13
2.05612e-13
2.11727e-13
2.1826e-13
2.25214e-13
2.32585e-13
2.40355e-13
2.48494e-13
2.56954e-13
2.65666e-13
2.74533e-13
2.83434e-13
2.92214e-13
3.00686e-13
3.08636e-13
3.15818e-13
3.21969e-13
3.26811e-13
3.30064e-13
3.31459e-13
3.30526e-13
3.26892e-13
3.21845e-13
3.14073e-13
3.03744e-13
2.903e-13
2.74404e-13
2.5633e-13
2.36344e-13
2.14798e-13
1.92115e-13
1.68766e-13
1.45243e-13
1.22032e-13
9.95859e-14
7.83068e-14
5.85443e-14
4.06396e-14
2.50517e-14
1.2508e-14
4.25225e-15
6.26842e-16
3.83433e-18
1.89438e-18
3.17794e-16
2.30992e-15
7.57061e-15
1.68259e-14
2.96501e-14
4.48521e-14
6.10704e-14
7.71694e-14
9.23701e-14
1.06223e-13
1.18531e-13
1.29264e-13
1.38503e-13
1.46392e-13
1.5311e-13
1.58846e-13
1.63791e-13
1.68123e-13
1.72004e-13
1.75581e-13
1.78978e-13
1.82305e-13
1.85653e-13
1.891e-13
1.92711e-13
1.96543e-13
2.00643e-13
2.05052e-13
2.09806e-13
2.14937e-13
2.20471e-13
2.26431e-13
2.32837e-13
2.39701e-13
2.4703e-13
2.54822e-13
2.63065e-13
2.71732e-13
2.80779e-13
2.9014e-13
2.99725e-13
3.09414e-13
3.19055e-13
3.28466e-13
3.37429e-13
3.45697e-13
3.53002e-13
3.59056e-13
3.63566e-13
3.66245e-13
3.66825e-13
3.64753e-13
3.59795e-13
3.53369e-13
3.43836e-13
3.3172e-13
3.16394e-13
2.98364e-13
2.78132e-13
2.55967e-13
2.32245e-13
2.07415e-13
1.81975e-13
1.56439e-13
1.31315e-13
1.07074e-13
8.41352e-14
6.28652e-14
4.36229e-14
2.68917e-14
1.34318e-14
4.57203e-15
6.74796e-16
4.13203e-18
2.06689e-18
3.47217e-16
2.53289e-15
8.34649e-15
1.86661e-14
3.30901e-14
5.03137e-14
6.87781e-14
8.71497e-14
1.04498e-13
1.20282e-13
1.3426e-13
1.46397e-13
1.5679e-13
1.65614e-13
1.73081e-13
1.79418e-13
1.84848e-13
1.89581e-13
1.93807e-13
1.97692e-13
2.01382e-13
2.05001e-13
2.08651e-13
2.12422e-13
2.16386e-13
2.20605e-13
2.25133e-13
2.30015e-13
2.3529e-13
2.4099e-13
2.47145e-13
2.53778e-13
2.60906e-13
2.68541e-13
2.76685e-13
2.85329e-13
2.94452e-13
3.04016e-13
3.13959e-13
3.24197e-13
3.34617e-13
3.45073e-13
3.55385e-13
3.6534e-13
3.74692e-13
3.83167e-13
3.90474e-13
3.96308e-13
4.00366e-13
4.02355e-13
4.02011e-13
3.98694e-13
3.92404e-13
3.84477e-13
3.73183e-13
3.59169e-13
3.41986e-13
3.21798e-13
2.994e-13
2.75059e-13
2.49173e-13
2.22219e-13
1.94718e-13
1.67211e-13
1.40222e-13
1.14242e-13
8.97049e-14
6.69914e-14
4.64757e-14
2.86599e-14
1.43289e-14
4.88676e-15
7.22558e-16
4.43036e-18
2.2453e-18
3.77641e-16
2.76331e-15
9.14764e-15
2.05655e-14
3.66405e-14
5.59534e-14
7.67402e-14
9.74609e-14
1.17026e-13
1.34795e-13
1.50483e-13
1.64051e-13
1.75614e-13
1.85378e-13
1.93595e-13
2.0053e-13
2.06443e-13
2.11575e-13
2.16145e-13
2.20342e-13
2.24331e-13
2.2825e-13
2.32215e-13
2.36324e-13
2.40658e-13
2.45284e-13
2.50262e-13
2.55639e-13
2.61457e-13
2.67752e-13
2.74553e-13
2.81882e-13
2.89756e-13
2.98182e-13
3.07157e-13
3.16666e-13
3.26675e-13
3.37132e-13
3.47959e-13
3.5905e-13
3.70268e-13
3.8144e-13
3.92358e-13
4.02781e-13
4.12437e-13
4.21029e-13
4.28245e-13
4.33769e-13
4.37287e-13
4.38509e-13
4.37171e-13
4.32543e-13
4.2493e-13
4.15425e-13
4.02353e-13
3.86389e-13
3.67334e-13
3.44971e-13
3.20388e-13
2.93854e-13
2.65792e-13
2.36708e-13
2.07151e-13
1.77685e-13
1.48855e-13
1.21168e-13
9.50723e-14
7.09609e-14
4.92206e-14
3.03671e-14
1.52032e-14
5.19705e-15
7.70159e-16
4.72941e-18
2.42964e-18
4.09075e-16
3.0013e-15
9.9746e-15
2.25249e-14
4.03012e-14
6.17668e-14
8.49455e-14
1.08082e-13
1.2992e-13
1.49719e-13
1.67148e-13
1.82164e-13
1.94905e-13
2.05611e-13
2.14576e-13
2.22106e-13
2.28498e-13
2.34029e-13
2.38945e-13
2.4346e-13
2.47757e-13
2.51988e-13
2.56283e-13
2.60748e-13
2.65472e-13
2.70527e-13
2.75977e-13
2.81874e-13
2.88262e-13
2.95177e-13
3.02649e-13
3.10699e-13
3.19342e-13
3.2858e-13
3.38404e-13
3.48788e-13
3.59689e-13
3.71036e-13
3.82735e-13
3.94657e-13
4.06641e-13
4.18486e-13
4.29959e-13
4.40792e-13
4.50688e-13
4.59333e-13
4.66398e-13
4.71554e-13
4.74485e-13
4.74895e-13
4.72528e-13
4.6656e-13
4.57642e-13
4.46516e-13
4.31649e-13
4.13704e-13
3.92736e-13
3.68178e-13
3.41372e-13
3.12604e-13
2.82325e-13
2.51075e-13
2.19435e-13
1.87993e-13
1.57318e-13
1.27931e-13
1.00295e-13
7.48123e-14
5.18807e-14
3.20247e-14
1.60581e-14
5.50359e-15
8.17646e-16
5.02942e-18
2.61991e-18
4.41525e-16
3.24697e-15
1.08278e-14
2.45453e-14
4.40724e-14
6.77515e-14
9.33854e-14
1.18996e-13
1.43155e-13
1.65018e-13
1.8421e-13
2.00685e-13
2.14605e-13
2.26251e-13
2.35959e-13
2.44079e-13
2.50949e-13
2.5688e-13
2.62147e-13
2.66988e-13
2.71605e-13
2.76165e-13
2.80808e-13
2.8565e-13
2.90786e-13
2.96296e-13
3.02245e-13
3.08688e-13
3.15673e-13
3.23235e-13
3.31405e-13
3.40203e-13
3.49639e-13
3.5971e-13
3.70401e-13
3.81674e-13
3.93473e-13
4.05712e-13
4.18276e-13
4.31014e-13
4.43739e-13
4.56227e-13
4.68219e-13
4.79424e-13
4.89524e-13
4.98187e-13
5.0507e-13
5.09837e-13
5.12165e-13
5.11755e-13
5.08354e-13
5.01039e-13
4.90843e-13
4.78077e-13
4.61405e-13
4.4145e-13
4.18503e-13
3.91728e-13
3.62636e-13
3.31566e-13
2.99e-13
2.65516e-13
2.31732e-13
1.98267e-13
1.65713e-13
1.34609e-13
1.05428e-13
7.85832e-14
5.44786e-14
3.36438e-14
1.68977e-14
5.80714e-15
8.65079e-16
5.33067e-18
2.81616e-18
4.74998e-16
3.50041e-15
1.17078e-14
2.66273e-14
4.79547e-14
7.39056e-14
1.02053e-13
1.30189e-13
1.56709e-13
1.80662e-13
2.0163e-13
2.19567e-13
2.34664e-13
2.47244e-13
2.57689e-13
2.66395e-13
2.73742e-13
2.80076e-13
2.85702e-13
2.90881e-13
2.95833e-13
3.0074e-13
3.05754e-13
3.10998e-13
3.16573e-13
3.22564e-13
3.29041e-13
3.36061e-13
3.43672e-13
3.51912e-13
3.60809e-13
3.70382e-13
3.80637e-13
3.91566e-13
4.03144e-13
4.15323e-13
4.28032e-13
4.41167e-13
4.54595e-13
4.68142e-13
4.81597e-13
4.94714e-13
5.0721e-13
5.18771e-13
5.29064e-13
5.37739e-13
5.44444e-13
5.48831e-13
5.50571e-13
5.4936e-13
5.44939e-13
5.36295e-13
5.24856e-13
5.10445e-13
4.91963e-13
4.69979e-13
4.44938e-13
4.15933e-13
3.84465e-13
3.50997e-13
3.16043e-13
2.80224e-13
2.44202e-13
2.08634e-13
1.74139e-13
1.41274e-13
1.10525e-13
8.23094e-14
5.70358e-14
3.52352e-14
1.77256e-14
6.10847e-15
9.12523e-16
5.63352e-18
3.01838e-18
5.09498e-16
3.76167e-15
1.26147e-14
2.87717e-14
5.19483e-14
8.02273e-14
1.10943e-13
1.4165e-13
1.70562e-13
1.96624e-13
2.19374e-13
2.38773e-13
2.5504e-13
2.68545e-13
2.7972e-13
2.89008e-13
2.96832e-13
3.03575e-13
3.0957e-13
3.15101e-13
3.20408e-13
3.25686e-13
3.31096e-13
3.3677e-13
3.42814e-13
3.49318e-13
3.56355e-13
3.63984e-13
3.72255e-13
3.81205e-13
3.90862e-13
4.01241e-13
4.12345e-13
4.24158e-13
4.36647e-13
4.49752e-13
4.63386e-13
4.77431e-13
4.9173e-13
5.0609e-13
5.20279e-13
5.34027e-13
5.4703e-13
5.58957e-13
5.69458e-13
5.78168e-13
5.84725e-13
5.88771e-13
5.89966e-13
5.87997e-13
5.82583e-13
5.72647e-13
5.59998e-13
5.43947e-13
5.23645e-13
4.99606e-13
4.72391e-13
4.41081e-13
4.07135e-13
3.71148e-13
3.33674e-13
2.95387e-13
2.57001e-13
2.19218e-13
1.82692e-13
1.48e-13
1.15636e-13
8.60244e-14
5.95727e-14
3.68092e-14
1.85457e-14
6.40836e-15
9.60043e-16
5.93831e-18
3.22657e-18
5.45027e-16
4.03081e-15
1.35488e-14
3.09788e-14
5.60532e-14
8.67148e-14
1.2005e-13
1.53366e-13
1.84697e-13
2.12879e-13
2.37414e-13
2.58266e-13
2.75693e-13
2.90113e-13
3.02009e-13
3.11876e-13
3.2018e-13
3.27339e-13
3.33716e-13
3.3962e-13
3.45305e-13
3.50981e-13
3.56817e-13
3.62952e-13
3.695e-13
3.76552e-13
3.84185e-13
3.92459e-13
4.01426e-13
4.11122e-13
4.21575e-13
4.32795e-13
4.4478e-13
4.57509e-13
4.70937e-13
4.84994e-13
4.99576e-13
5.14549e-13
5.29738e-13
5.44928e-13
5.59868e-13
5.74266e-13
5.87801e-13
6.00126e-13
6.10873e-13
6.19666e-13
6.2613e-13
6.29895e-13
6.30612e-13
6.27955e-13
6.21567e-13
6.10399e-13
5.96575e-13
5.78893e-13
5.56757e-13
5.30637e-13
5.01177e-13
4.67449e-13
4.30906e-13
3.92255e-13
3.52102e-13
3.11183e-13
2.70276e-13
2.30138e-13
1.91462e-13
1.5485e-13
1.20808e-13
8.97592e-14
6.2108e-14
3.83752e-14
1.93613e-14
6.70754e-15
1.0077e-15
6.24538e-18
3.44074e-18
5.81585e-16
4.30785e-15
1.45104e-14
3.3249e-14
6.02692e-14
9.33661e-14
1.29367e-13
1.65328e-13
1.99097e-13
2.29405e-13
2.55718e-13
2.78013e-13
2.96587e-13
3.11909e-13
3.24519e-13
3.34963e-13
3.4375e-13
3.51336e-13
3.58115e-13
3.64413e-13
3.70504e-13
3.76609e-13
3.82905e-13
3.8954e-13
3.96629e-13
4.04269e-13
4.12537e-13
4.21498e-13
4.31202e-13
4.41685e-13
4.52972e-13
4.65072e-13
4.77976e-13
4.91655e-13
5.06056e-13
5.21095e-13
5.36656e-13
5.52585e-13
5.68691e-13
5.8474e-13
6.00462e-13
6.15547e-13
6.29658e-13
6.4243e-13
6.53483e-13
6.62427e-13
6.68873e-13
6.72438e-13
6.7276e-13
6.69503e-13
6.62163e-13
6.49835e-13
6.34863e-13
6.15565e-13
5.91577e-13
5.6335e-13
5.31572e-13
4.95293e-13
4.56018e-13
4.14539e-13
3.71523e-13
3.27782e-13
2.84169e-13
2.41506e-13
2.00535e-13
1.61889e-13
1.26084e-13
9.35422e-14
6.46587e-14
3.99418e-14
2.01757e-14
7.00667e-15
1.05556e-15
6.55504e-18
3.66086e-18
6.1917e-16
4.5928e-15
1.54993e-14
3.55822e-14
6.45955e-14
1.00178e-13
1.38888e-13
1.77524e-13
2.13744e-13
2.46178e-13
2.74259e-13
2.97981e-13
3.17685e-13
3.33897e-13
3.47213e-13
3.58233e-13
3.67511e-13
3.7554e-13
3.8274e-13
3.89461e-13
3.9599e-13
4.0256e-13
4.09357e-13
4.16532e-13
4.24206e-13
4.32478e-13
4.41427e-13
4.5112e-13
4.61605e-13
4.72919e-13
4.85085e-13
4.98107e-13
5.11972e-13
5.26642e-13
5.42055e-13
5.58113e-13
5.74688e-13
5.91611e-13
6.08671e-13
6.2562e-13
6.42168e-13
6.57992e-13
6.72737e-13
6.86024e-13
6.97459e-13
7.06637e-13
7.13153e-13
7.1661e-13
7.16628e-13
7.12855e-13
7.04633e-13
6.91207e-13
6.75103e-13
6.54208e-13
6.28349e-13
5.97985e-13
5.63812e-13
5.24842e-13
4.82688e-13
4.38199e-13
3.92117e-13
3.45342e-13
2.98812e-13
2.53427e-13
2.09992e-13
1.69175e-13
1.31505e-13
9.73995e-14
6.72402e-14
4.15168e-14
2.09918e-14
7.30635e-15
1.10366e-15
6.86751e-18
3.88691e-18
6.5778e-16
4.88564e-15
1.65157e-14
3.79781e-14
6.90307e-14
1.07148e-13
1.48606e-13
1.8994e-13
2.28619e-13
2.63173e-13
2.93007e-13
3.18137e-13
3.38953e-13
3.56041e-13
3.70057e-13
3.81654e-13
3.91433e-13
3.99922e-13
4.0757e-13
4.14746e-13
4.21751e-13
4.28828e-13
4.3617e-13
4.43933e-13
4.5224e-13
4.61194e-13
4.70875e-13
4.81349e-13
4.92665e-13
5.0486e-13
5.17953e-13
5.31946e-13
5.46817e-13
5.62523e-13
5.78991e-13
5.96112e-13
6.13744e-13
6.31703e-13
6.49765e-13
6.67663e-13
6.85094e-13
7.0172e-13
7.1717e-13
7.31052e-13
7.42956e-13
7.52462e-13
7.59147e-13
7.62594e-13
7.62402e-13
7.58199e-13
7.49187e-13
7.34722e-13
7.17495e-13
6.9502e-13
6.67274e-13
6.34739e-13
5.98092e-13
5.5629e-13
5.11102e-13
4.63411e-13
4.14048e-13
3.64007e-13
3.14326e-13
2.66001e-13
2.19908e-13
1.76762e-13
1.37107e-13
1.01355e-13
6.98663e-14
4.31071e-14
2.18119e-14
7.60706e-15
1.15203e-15
7.18294e-18
4.11885e-18
6.97407e-16
5.18633e-15
1.75592e-14
4.04361e-14
7.35731e-14
1.1427e-13
1.58511e-13
2.02562e-13
2.43702e-13
2.80365e-13
3.11932e-13
3.38447e-13
3.60355e-13
3.78304e-13
3.93013e-13
4.05191e-13
4.15485e-13
4.24458e-13
4.32585e-13
4.40253e-13
4.47778e-13
4.55409e-13
4.63347e-13
4.7175e-13
4.80746e-13
4.90436e-13
5.00904e-13
5.12215e-13
5.24418e-13
5.37548e-13
5.51622e-13
5.66635e-13
5.82564e-13
5.99355e-13
6.16926e-13
6.35159e-13
6.53897e-13
6.72943e-13
6.92058e-13
7.10965e-13
7.29344e-13
7.46842e-13
7.63077e-13
7.77641e-13
7.90107e-13
8.00039e-13
8.06994e-13
8.10531e-13
8.10227e-13
8.05678e-13
7.95982e-13
7.80534e-13
7.62185e-13
7.38153e-13
7.08502e-13
6.73754e-13
6.34559e-13
5.89792e-13
5.41412e-13
4.90324e-13
4.37454e-13
3.83903e-13
3.30824e-13
2.7932e-13
2.30355e-13
1.84701e-13
1.42925e-13
1.05429e-13
7.25491e-14
4.47187e-14
2.26383e-14
7.90917e-15
1.20068e-15
7.50134e-18
4.35661e-18
7.38042e-16
5.49481e-15
1.86298e-14
4.29554e-14
7.82202e-14
1.21539e-13
1.68595e-13
2.15375e-13
2.58972e-13
2.97725e-13
3.31e-13
3.58875e-13
3.81852e-13
4.00648e-13
4.16046e-13
4.28813e-13
4.39639e-13
4.49122e-13
4.57763e-13
4.65968e-13
4.74061e-13
4.82301e-13
4.90891e-13
4.99994e-13
5.09738e-13
5.20227e-13
5.31543e-13
5.43751e-13
5.56902e-13
5.71025e-13
5.86137e-13
6.02228e-13
6.19268e-13
6.37198e-13
6.55925e-13
6.7532e-13
6.95216e-13
7.15404e-13
7.35633e-13
7.55611e-13
7.75006e-13
7.93453e-13
8.10556e-13
8.25891e-13
8.39015e-13
8.49472e-13
8.56795e-13
8.60521e-13
8.60196e-13
8.55386e-13
8.45113e-13
8.28739e-13
8.09263e-13
7.83697e-13
7.5213e-13
7.15124e-13
6.73309e-13
6.25462e-13
5.73734e-13
5.19054e-13
4.6245e-13
4.0514e-13
3.48403e-13
2.93465e-13
2.41397e-13
1.9304e-13
1.4899e-13
1.09642e-13
7.52996e-14
4.63566e-14
2.34725e-14
8.21292e-15
1.24962e-15
7.82263e-18
4.60014e-18
7.79676e-16
5.81099e-15
1.9727e-14
4.55348e-14
8.29689e-14
1.28949e-13
1.78844e-13
2.28361e-13
2.74404e-13
3.15223e-13
3.50177e-13
3.79382e-13
4.03405e-13
4.23033e-13
4.39118e-13
4.52481e-13
4.63861e-13
4.73888e-13
4.83085e-13
4.91874e-13
5.00591e-13
5.09499e-13
5.18806e-13
5.28674e-13
5.39233e-13
5.50587e-13
5.62818e-13
5.75991e-13
5.90153e-13
6.05334e-13
6.21545e-13
6.38773e-13
6.56983e-13
6.76107e-13
6.96045e-13
7.16658e-13
7.37768e-13
7.59156e-13
7.80558e-13
8.01672e-13
8.22154e-13
8.41627e-13
8.59679e-13
8.75872e-13
8.89745e-13
9.00819e-13
9.08606e-13
9.12611e-13
9.1235e-13
9.07357e-13
8.96614e-13
8.79371e-13
8.58759e-13
8.31684e-13
7.98196e-13
7.58882e-13
7.14384e-13
6.63364e-13
6.0814e-13
5.49683e-13
4.89125e-13
4.27806e-13
3.67145e-13
3.0851e-13
2.53093e-13
2.01822e-13
1.55331e-13
1.1401e-13
7.81269e-14
4.80252e-14
2.43157e-14
8.51842e-15
1.29881e-15
8.14657e-18
4.84936e-18
8.22295e-16
6.13478e-15
2.08503e-14
4.81728e-14
8.78156e-14
1.36492e-13
1.89246e-13
2.415e-13
2.8997e-13
3.32826e-13
3.69424e-13
3.99925e-13
4.24968e-13
4.45414e-13
4.62185e-13
4.76158e-13
4.88117e-13
4.98724e-13
5.08525e-13
5.17955e-13
5.27357e-13
5.37e-13
5.47092e-13
5.57797e-13
5.69244e-13
5.81536e-13
5.94755e-13
6.08964e-13
6.24207e-13
6.40513e-13
6.57889e-13
6.76318e-13
6.95757e-13
7.16134e-13
7.37339e-13
7.59226e-13
7.81606e-13
8.04251e-13
8.26886e-13
8.492e-13
8.70837e-13
8.91406e-13
9.10484e-13
9.27615e-13
9.4232e-13
9.54096e-13
9.62427e-13
9.66792e-13
9.66672e-13
9.61563e-13
9.50449e-13
9.32396e-13
9.1064e-13
8.82083e-13
8.46675e-13
8.05003e-13
7.57769e-13
7.0351e-13
6.44658e-13
5.82254e-13
5.17533e-13
4.51965e-13
3.87117e-13
3.24515e-13
2.65493e-13
2.11084e-13
1.61974e-13
1.1855e-13
8.10392e-14
4.97279e-14
2.5169e-14
8.82566e-15
1.3482e-15
8.47279e-18
5.10417e-18
8.65883e-16
6.46605e-15
2.19993e-14
5.08678e-14
9.2756e-14
1.44158e-13
1.99784e-13
2.54768e-13
3.0564e-13
3.50496e-13
3.88697e-13
4.20459e-13
4.46494e-13
4.67745e-13
4.85201e-13
4.99801e-13
5.12368e-13
5.23598e-13
5.34055e-13
5.44186e-13
5.54342e-13
5.64792e-13
5.75745e-13
5.87365e-13
5.9978e-13
6.1309e-13
6.27375e-13
6.42695e-13
6.59095e-13
6.76597e-13
6.95205e-13
7.14899e-13
7.3563e-13
7.57318e-13
7.79847e-13
8.03063e-13
8.26768e-13
8.50724e-13
8.74649e-13
8.9822e-13
9.21073e-13
9.42804e-13
9.62974e-13
9.81111e-13
9.96716e-13
1.00926e-12
1.01821e-12
1.023e-12
1.02308e-12
1.01792e-12
1.00652e-12
9.87711e-13
9.64807e-13
9.34795e-13
8.97478e-13
8.53405e-13
8.03391e-13
7.45857e-13
6.83268e-13
6.16769e-13
5.47697e-13
4.77652e-13
4.08363e-13
3.41527e-13
2.7864e-13
2.2086e-13
1.68941e-13
1.23274e-13
8.4043e-14
5.14675e-14
2.60325e-14
9.13449e-15
1.39773e-15
8.80076e-18
5.36448e-18
9.10423e-16
6.80465e-15
2.31733e-14
5.36173e-14
9.77855e-14
1.51937e-13
2.10443e-13
2.68139e-13
3.21381e-13
3.68192e-13
4.0795e-13
4.40931e-13
4.6793e-13
4.89971e-13
5.08116e-13
5.2336e-13
5.3657e-13
5.4847e-13
5.59641e-13
5.7054e-13
5.81522e-13
5.92858e-13
6.04756e-13
6.17375e-13
6.30842e-13
6.45254e-13
6.60688e-13
6.77201e-13
6.94833e-13
7.13606e-13
7.33517e-13
7.54542e-13
7.76627e-13
7.99684e-13
8.23592e-13
8.48189e-13
8.73269e-13
8.98586e-13
9.23851e-13
9.4873e-13
9.72848e-13
9.95791e-13
1.01711e-12
1.0363e-12
1.05286e-12
1.06623e-12
1.07584e-12
1.08111e-12
1.08144e-12
1.07626e-12
1.06465e-12
1.04514e-12
1.02109e-12
9.89652e-13
9.5045e-13
9.03943e-13
8.51118e-13
7.90305e-13
7.23894e-13
6.53182e-13
5.79597e-13
5.04872e-13
4.30904e-13
3.59575e-13
2.92564e-13