/*--------------------------------*- C++ -*----------------------------------*\
  =========                 |
  \\      /  F ield         | OpenFOAM: The Open Source CFD Toolbox
   \\    /   O peration     | Website:  https://openfoam.org
    \\  /    A nd           | Version:  12
     \\/     M anipulation  |
\*---------------------------------------------------------------------------*/
FoamFile
{
    format      ascii;
    class       volScalarField;
    location    "3.5";
    object      epsilon;
}
// * * * * * * * * * * * * * * * * * * * * * * * * * * * * * * * * * * * * * //

dimensions      [0 2 -3 0 0 0 0];

internalField   nonuniform List<scalar> 
18225
(
7.51375e-07
5.08395e-06
1.13246e-05
1.87684e-05
2.70853e-05
3.60625e-05
4.55365e-05
5.53686e-05
6.54355e-05
7.56236e-05
8.58286e-05
9.5955e-05
0.000105917
0.000115641
0.000125066
0.000134145
0.000142848
0.000151163
0.000159096
0.000166673
0.000173941
0.000180967
0.000187842
0.00019468
0.000201616
0.000208815
0.000216466
0.000224787
0.000234027
0.00024447
0.000256433
0.000270275
0.000286396
0.000305239
0.000327298
0.000353113
0.000383281
0.00041845
0.000459322
0.000506658
0.000561269
0.000624023
0.000695838
0.00077768
0.000870562
0.000975537
0.00109369
0.00122615
0.00137405
0.00153855
0.00172081
0.001922
0.00214326
0.0023857
0.00265041
0.0029384
0.00325063
0.00358797
0.00395119
0.004341
0.00475799
0.00520264
0.00567537
0.0061765
0.00670626
0.00726482
0.00785228
0.00846867
0.00911397
0.0097881
0.0104909
0.0112223
0.0119818
0.0127693
0.0135842
0.014426
0.0152943
0.0161881
0.0171067
0.0180491
0.0190141
0.0200002
0.0210058
0.022029
0.0230673
0.0241181
0.0251782
0.0262438
0.0273105
0.0283732
0.029426
0.030462
0.0314735
0.0324516
0.033386
0.0342659
0.0350786
0.0358105
0.036446
0.0369682
0.0373594
0.0375855
0.0376666
0.0375997
0.0373294
0.0368471
0.0361481
0.0352291
0.0340909
0.0327397
0.0311878
0.0294546
0.0275656
0.0255527
0.0234524
0.0213045
0.0191498
0.0170285
0.0149776
0.0130294
0.0112099
0.00953788
0.00802504
0.00667587
0.00548865
0.00445639
0.00356814
0.00281033
0.00216768
0.00162477
0.00116703
0.000782044
0.000461498
0.000204744
3.01961e-05
1.41957e-06
2.76709e-06
5.54997e-06
8.99932e-06
1.28907e-05
1.71057e-05
2.1561e-05
2.61887e-05
3.09291e-05
3.57282e-05
4.05365e-05
4.53089e-05
5.00051e-05
5.45902e-05
5.90354e-05
6.3319e-05
6.74269e-05
7.13533e-05
7.51012e-05
7.86828e-05
8.21203e-05
8.54458e-05
8.87019e-05
9.19421e-05
9.52312e-05
9.86464e-05
0.000102277
0.000106227
0.000110613
0.00011557
0.000121249
0.000127818
0.000135468
0.000144407
0.00015487
0.000167113
0.000181418
0.000198092
0.000217467
0.000239904
0.000265787
0.000295529
0.000329563
0.00036835
0.000412371
0.000462124
0.00051813
0.000580921
0.000651042
0.000729048
0.000815496
0.000910942
0.00101594
0.00113103
0.00125672
0.00139353
0.00154192
0.00170231
0.00187511
0.00206065
0.00225926
0.00247119
0.00269666
0.00293586
0.00318893
0.00345599
0.00373711
0.00403237
0.00434176
0.00466531
0.00500296
0.00535467
0.00572032
0.00609977
0.00649285
0.0068993
0.00731886
0.00775115
0.00819575
0.00865213
0.00911969
0.00959768
0.0100852
0.0105812
0.0110845
0.0115936
0.0121068
0.0126222
0.0131374
0.0136497
0.0141562
0.0146533
0.015137
0.0156029
0.0160459
0.0164605
0.0168407
0.0171798
0.0174703
0.0177043
0.0178735
0.0179632
0.0179834
0.0179295
0.0177792
0.0175287
0.017176
0.0167206
0.0161634
0.0155081
0.0147609
0.0139314
0.0130316
0.0120765
0.0110828
0.0100689
0.00905338
0.00805449
0.0070891
0.0061719
0.0053148
0.0045265
0.00381241
0.00317473
0.00261279
0.0021235
0.00170189
0.00134179
0.00103613
0.000777838
0.000560236
0.00037783
0.000227504
0.000111822
5.70348e-05
3.01414e-06
2.69252e-06
4.27047e-06
6.50349e-06
9.10678e-06
1.19609e-05
1.49943e-05
1.81541e-05
2.13962e-05
2.46821e-05
2.7977e-05
3.12494e-05
3.44715e-05
3.76194e-05
4.06735e-05
4.36187e-05
4.64456e-05
4.91502e-05
5.17346e-05
5.42073e-05
5.65834e-05
5.88852e-05
6.11419e-05
6.33905e-05
6.56756e-05
6.80505e-05
7.0577e-05
7.33266e-05
7.63808e-05
7.98323e-05
8.37855e-05
8.83577e-05
9.36801e-05
9.98987e-05
0.000107175
0.000115688
0.000125633
0.000137223
0.000150692
0.000166289
0.000184284
0.000204965
0.000228637
0.000255623
0.000286263
0.000320911
0.000359937
0.00040372
0.000452655
0.00050714
0.000567582
0.000634391
0.000707976
0.000788741
0.000877085
0.000973392
0.00107803
0.00119135
0.00131368
0.00144532
0.00158655
0.00173763
0.00189877
0.00207018
0.00225204
0.00244451
0.00264773
0.00286182
0.00308687
0.00332294
0.00357007
0.00382829
0.00409754
0.00437777
0.00466885
0.00497061
0.0052828
0.0056051
0.00593714
0.0062784
0.00662829
0.0069861
0.00735095
0.00772185
0.00809761
0.00847685
0.00885801
0.00923928
0.00961861
0.00999367
0.0103619
0.0107203
0.0110656
0.0113945
0.0117029
0.0119869
0.0122418
0.0124629
0.012645
0.0127829
0.0128693
0.0128997
0.012879
0.0128012
0.0126556
0.01244
0.0121543
0.0117989
0.0113758
0.0108883
0.0103415
0.00974238
0.00909961
0.00842332
0.00772478
0.00701596
0.006309
0.00561567
0.00494678
0.00431178
0.00371829
0.00317196
0.0026763
0.0022328
0.00184108
0.00149918
0.00120391
0.000951206
0.000736494
0.00055516
0.000403006
0.000276956
0.000176545
0.000108932
0.000120952
4.92691e-06
3.22006e-06
4.02519e-06
5.58499e-06
7.52585e-06
9.70495e-06
1.20463e-05
1.44991e-05
1.70242e-05
1.95889e-05
2.21645e-05
2.47257e-05
2.72503e-05
2.97194e-05
3.21176e-05
3.44331e-05
3.66586e-05
3.87909e-05
4.08319e-05
4.27882e-05
4.46719e-05
4.65003e-05
4.82967e-05
5.00902e-05
5.19162e-05
5.38168e-05
5.58412e-05
5.80461e-05
6.04964e-05
6.32659e-05
6.64378e-05
7.0106e-05
7.43752e-05
7.93625e-05
8.51975e-05
9.20236e-05
9.99984e-05
0.000109294
0.000120099
0.000132616
0.000147065
0.000163681
0.000182715
0.000204433
0.000229119
0.000257068
0.000288593
0.000324016
0.000363676
0.00040792
0.000457107
0.000511602
0.000571776
0.000638005
0.000710663
0.000790123
0.000876752
0.00097091
0.00107295
0.00118319
0.00130198
0.0014296
0.00156637
0.00171254
0.00186838
0.00203413
0.00221001
0.00239623
0.00259295
0.00280031
0.0030184
0.00324727
0.00348691
0.00373725
0.00399816
0.00426939
0.00455062
0.00484143
0.00514128
0.00544949
0.00576527
0.00608766
0.00641557
0.00674775
0.00708274
0.00741896
0.00775461
0.00808771
0.00841608
0.00873736
0.00904897
0.00934815
0.00963195
0.00989727
0.0101408
0.0103592
0.0105489
0.0107061
0.0108269
0.0109058
0.0109398
0.0109299
0.0108733
0.0107678
0.0106072
0.0103904
0.0101181
0.00979137
0.00941241
0.0089845
0.00851224
0.00800153
0.00745947
0.0068942
0.00631464
0.00573012
0.00515003
0.00458333
0.00403824
0.00352182
0.00303976
0.00259618
0.00219363
0.00183313
0.00151429
0.00123555
0.000994449
0.000787873
0.000612381
0.000464596
0.000341663
0.00024207
0.000167569
0.00012995
0.000197212
7.09657e-06
4.03802e-06
4.22148e-06
5.29843e-06
6.79803e-06
8.54722e-06
1.04594e-05
1.24809e-05
1.4573e-05
1.67051e-05
1.88514e-05
2.09897e-05
2.31007e-05
2.51684e-05
2.71798e-05
2.9125e-05
3.09979e-05
3.2796e-05
3.45207e-05
3.61779e-05
3.77777e-05
3.93349e-05
4.08691e-05
4.24051e-05
4.3973e-05
4.56085e-05
4.73538e-05
4.92571e-05
5.13743e-05
5.37684e-05
5.65113e-05
5.96838e-05
6.33763e-05
6.76903e-05
7.27383e-05
7.86452e-05
8.55488e-05
9.36003e-05
0.000102965
0.000113824
0.000126371
0.000140818
0.000157391
0.000176332
0.000197901
0.000222373
0.000250038
0.000281205
0.000316196
0.000355352
0.000399027
0.000447588
0.000501417
0.000560907
0.000626458
0.000698479
0.000777385
0.000863589
0.000957509
0.00105956
0.00117014
0.00128965
0.00141848
0.00155702
0.00170561
0.0018646
0.00203429
0.00221498
0.00240689
0.00261019
0.00282498
0.0030513
0.00328908
0.00353816
0.00379825
0.00406894
0.00434968
0.00463977
0.00493835
0.0052444
0.00555676
0.00587409
0.00619488
0.00651751
0.00684018
0.00716097
0.00747783
0.0077886
0.00809101
0.00838268
0.00866115
0.0089239
0.00916839
0.00939203
0.00959218
0.00976622
0.00991149
0.0100253
0.0101032
0.0101401
0.0101432
0.0101039
0.0100228
0.00989845
0.00972634
0.00950603
0.00923796
0.00892316
0.00856343
0.00816159
0.00772161
0.00724861
0.00674888
0.00622969
0.00569907
0.00516548
0.00463741
0.00412296
0.00362947
0.00316318
0.002729
0.00233038
0.00196931
0.00164641
0.00136113
0.00111191
0.000896483
0.000712102
0.000555865
0.000425073
0.000317745
0.000233575
0.000176269
0.000162189
0.00028294
9.47969e-06
5.03754e-06
4.66778e-06
5.35168e-06
6.51399e-06
7.94885e-06
9.55661e-06
1.12783e-05
1.30735e-05
1.49117e-05
1.67682e-05
1.86224e-05
2.04568e-05
2.22571e-05
2.40115e-05
2.57117e-05
2.73521e-05
2.89306e-05
3.04488e-05
3.19117e-05
3.33285e-05
3.47122e-05
3.60802e-05
3.74547e-05
3.88623e-05
4.03351e-05
4.19106e-05
4.36322e-05
4.55499e-05
4.77209e-05
5.02098e-05
5.30901e-05
5.64441e-05
6.03643e-05
6.4954e-05
7.03282e-05
7.66142e-05
8.39527e-05
9.24985e-05
0.000102421
0.000113906
0.000127154
0.000142384
0.000159832
0.000179752
0.000202418
0.000228125
0.000257184
0.000289933
0.000326726
0.000367942
0.000413982
0.000465265
0.000522233
0.000585344
0.000655077
0.000731923
0.000816386
0.000908978
0.00101022
0.00112062
0.00124071
0.00137097
0.00151191
0.00166399
0.00182763
0.00200323
0.00219111
0.00239153
0.00260465
0.00283042
0.00306872
0.00331939
0.00358203
0.00385608
0.00414079
0.00443521
0.00473822
0.0050485
0.00536456
0.00568476
0.00600729
0.00633023
0.00665157
0.00696923
0.00728106
0.00758492
0.00787865
0.0081601
0.00842716
0.00867776
0.00890967
0.009121
0.0093102
0.00947551
0.00961521
0.00972759
0.00981115
0.00985843
0.00987356
0.00985903
0.00980604
0.00971596
0.00958744
0.00941639
0.0092015
0.00894267
0.0086401
0.00829471
0.00790845
0.0074845
0.00702733
0.00654275
0.00603776
0.00552036
0.00499912
0.00448279
0.00397979
0.00349774
0.00304307
0.00262079
0.00223427
0.00188535
0.00157442
0.00130066
0.00106232
0.000857011
0.000681983
0.00053448
0.000412108
0.000313456
0.000239166
0.000194764
0.000201057
0.000375908
1.20477e-05
6.16879e-06
5.27966e-06
5.62102e-06
6.50425e-06
7.68967e-06
9.06295e-06
1.05587e-05
1.21338e-05
1.37566e-05
1.54025e-05
1.70515e-05
1.86871e-05
2.02959e-05
2.18672e-05
2.33933e-05
2.48694e-05
2.62936e-05
2.76674e-05
2.89956e-05
3.02865e-05
3.15522e-05
3.28089e-05
3.40766e-05
3.53803e-05
3.67493e-05
3.82185e-05
3.98282e-05
4.16251e-05
4.36624e-05
4.60012e-05
4.87103e-05
5.18679e-05
5.55618e-05
5.98908e-05
6.49652e-05
7.09081e-05
7.78562e-05
8.59611e-05
9.53901e-05
0.000106327
0.000118975
0.000133554
0.000150306
0.000169495
0.000191408
0.000216355
0.000244673
0.000276727
0.00031291
0.000353644
0.000399383
0.000450609
0.000507836
0.000571608
0.000642493
0.000721088
0.00080801
0.000903891
0.00100938
0.00112509
0.00125167
0.00138974
0.00153991
0.00170271
0.00187864
0.00206811
0.00227143
0.00248883
0.00272033
0.00296582
0.00322498
0.00349723
0.00378178
0.0040776
0.00438342
0.00469777
0.0050189
0.00534493
0.00567378
0.00600327
0.00633114
0.00665511
0.0069729
0.00728231
0.00758126
0.00786778
0.0081401
0.00839658
0.0086358
0.00885652
0.00905776
0.00923854
0.00939779
0.00953469
0.00964852
0.0097383
0.00980325
0.00983588
0.00984389
0.00982614
0.00977531
0.00969169
0.00957364
0.00941676
0.00921885
0.00897835
0.00869412
0.00836581
0.00799416
0.00758133
0.00713107
0.0066488
0.00614156
0.00561772
0.00508659
0.00455793
0.00404128
0.0035454
0.00307773
0.00264401
0.00224812
0.00189208
0.00157623
0.00129952
0.00105987
0.000854542
0.000680561
0.000535054
0.000415688
0.000321401
0.000253642
0.000219512
0.000244345
0.000474451
1.47818e-05
7.40536e-06
6.013e-06
6.04319e-06
6.68427e-06
7.66105e-06
8.84416e-06
1.01607e-05
1.15641e-05
1.3021e-05
1.45064e-05
1.60002e-05
1.74863e-05
1.89518e-05
2.03867e-05
2.17838e-05
2.31386e-05
2.44496e-05
2.57182e-05
2.69491e-05
2.81504e-05
2.93333e-05
3.05132e-05
3.17093e-05
3.2945e-05
3.42483e-05
3.56525e-05
3.71962e-05
3.8924e-05
4.08873e-05
4.31452e-05
4.57646e-05
4.88217e-05
5.2403e-05
5.66057e-05
6.15396e-05
6.73278e-05
7.41079e-05
8.20338e-05
9.12764e-05
0.000102026
0.000114493
0.000128909
0.000145533
0.000164645
0.000186558
0.000211612
0.000240181
0.000272673
0.000309535
0.00035125
0.000398344
0.00045138
0.000510962
0.000577736
0.000652387
0.000735631
0.000828213
0.000930902
0.00104449
0.00116976
0.00130747
0.00145837
0.00162314
0.00180238
0.00199661
0.00220621
0.00243138
0.00267208
0.00292816
0.00319918
0.00348437
0.00378269
0.00409277
0.00441295
0.00474132
0.00507568
0.00541366
0.00575273
0.0060903
0.00642374
0.00675052
0.00706821
0.0073746
0.00766774
0.00794593
0.00820783
0.00845239
0.00867888
0.00888684
0.00907609
0.00924664
0.00939856
0.00953188
0.00964668
0.00974289
0.0098204
0.00987872
0.0099133
0.00992671
0.0099201
0.00988643
0.00982381
0.00973019
0.00960054
0.00943095
0.00921831
0.0089599
0.00865382
0.00829943
0.00789773
0.00745166
0.00696623
0.00644853
0.0059075
0.00535348
0.00479763
0.00425111
0.00372442
0.00322658
0.00276472
0.00234372
0.00196619
0.00163266
0.00134199
0.00109174
0.000878772
0.000699652
0.000551176
0.000430926
0.000337987
0.00027435
0.000248622
0.000290799
0.000577289
1.76693e-05
8.73194e-06
6.84229e-06
6.58174e-06
7.00629e-06
7.80248e-06
8.82567e-06
9.9953e-06
1.12603e-05
1.25854e-05
1.39446e-05
1.53175e-05
1.66879e-05
1.80432e-05
1.93737e-05
2.06725e-05
2.19354e-05
2.31612e-05
2.43514e-05
2.55107e-05
2.66468e-05
2.7771e-05
2.8898e-05
3.00465e-05
3.12393e-05
3.25037e-05
3.38721e-05
3.53824e-05
3.70785e-05
3.90112e-05
4.12389e-05
4.38284e-05
4.68562e-05
5.04092e-05
5.45863e-05
5.94995e-05
6.52751e-05
7.20558e-05
8.0002e-05
8.92936e-05
0.000100132
0.000112743
0.000127377
0.000144314
0.000163865
0.000186375
0.000212225
0.000241838
0.00027568
0.000314263
0.000358147
0.000407947
0.000464329
0.000528013
0.000599766
0.000680405
0.000770789
0.000871811
0.000984386
0.00110943
0.00124787
0.00140059
0.00156841
0.00175206
0.00195215
0.00216913
0.00240324
0.00265446
0.00292248
0.00320669
0.00350615
0.00381949
0.00414498
0.00448054
0.00482373
0.00517186
0.00552203
0.0058712
0.00621631
0.0065544
0.00688264
0.00719852
0.00749983
0.00778479
0.0080521
0.00830088
0.00853076
0.00874175
0.00893428
0.00910907
0.00926705
0.0094093
0.00953688
0.00965074
0.00975166
0.0098401
0.00991616
0.00997925
0.0100275
0.0100606
0.0100751
0.0100706
0.0100401
0.00998108
0.00988819
0.00975551
0.00957827
0.00935213
0.00907358
0.00874049
0.00835262
0.0079119
0.00742282
0.00689238
0.00632999
0.00574702
0.00515611
0.0045703
0.00400214
0.00346273
0.00296104
0.00250343
0.00209355
0.00173247
0.00141913
0.00115087
0.000924091
0.00073484
0.000579452
0.000455204
0.00036116
0.000299753
0.000280978
0.000339617
0.000683418
2.07015e-05
1.01392e-05
7.75179e-06
7.21417e-06
7.44083e-06
8.07703e-06
8.96265e-06
1.00087e-05
1.116e-05
1.23786e-05
1.36367e-05
1.49137e-05
1.61931e-05
1.74622e-05
1.87115e-05
1.99343e-05
2.11267e-05
2.22876e-05
2.34186e-05
2.45247e-05
2.56135e-05
2.66963e-05
2.77878e-05
2.89064e-05
3.00749e-05
3.13204e-05
3.26752e-05
3.41771e-05
3.58704e-05
3.78062e-05
4.00435e-05
4.26506e-05
4.57057e-05
4.92982e-05
5.35306e-05
5.85196e-05
6.4398e-05
7.13168e-05
7.94468e-05
8.89812e-05
0.000100138
0.000113163
0.000128332
0.000145955
0.000166379
0.000189993
0.00021723
0.000248574
0.000284559
0.000325781
0.000372892
0.00042661
0.000487716
0.000557058
0.000635544
0.000724138
0.000823852
0.000935735
0.00106085
0.00120026
0.001355
0.00152603
0.00171423
0.00192032
0.00214481
0.00238798
0.0026498
0.00292989
0.00322747
0.00354132
0.00386979
0.00421074
0.00456162
0.00491946
0.005281
0.00564277
0.00600118
0.00635272
0.00669401
0.007022
0.00733404
0.00762801
0.00790235
0.00815615
0.0083891
0.00860151
0.00879422
0.00896852
0.00912605
0.00926868
0.0093984
0.00951718
0.00962684
0.00972891
0.00982455
0.00991444
0.00999864
0.0100764
0.0101463
0.0102068
0.0102551
0.0102846
0.0102931
0.0102747
0.0102243
0.0101339
0.00999724
0.00980832
0.00956211
0.00925497
0.00888528
0.00845383
0.00796429
0.00742331
0.00684047
0.00622789
0.00559956
0.0049704
0.00435515
0.00376724
0.00321791
0.00271546
0.00226501
0.00186858
0.00152549
0.00123303
0.000987214
0.000783559
0.000617848
0.000486929
0.000389708
0.00032892
0.000315875
0.000390257
0.000792057
2.38731e-05
1.16211e-05
8.73144e-06
7.92583e-06
7.96855e-06
8.46079e-06
9.22615e-06
1.01669e-05
1.12232e-05
1.23544e-05
1.35313e-05
1.47319e-05
1.59392e-05
1.71405e-05
1.83263e-05
1.949e-05
2.06279e-05
2.17391e-05
2.28257e-05
2.38924e-05
2.49474e-05
2.60021e-05
2.70713e-05
2.81738e-05
2.93325e-05
3.05749e-05
3.19339e-05
3.34479e-05
3.5162e-05
3.71288e-05
3.94091e-05
4.20736e-05
4.52035e-05
4.88928e-05
5.32493e-05
5.8397e-05
6.44776e-05
7.16532e-05
8.01088e-05
9.0055e-05
0.000101731
0.000115408
0.000131394
0.000150036
0.000171726
0.000196904
0.000226065
0.000259764
0.000298619
0.000343318
0.000394622
0.000453367
0.000520468
0.000596913
0.000683765
0.000782147
0.000893231
0.00101822
0.00115833
0.00131473
0.00148856
0.00168082
0.00189234
0.00212375
0.00237537
0.00264718
0.00293871
0.00324903
0.0035767
0.00391973
0.00427557
0.00464117
0.00501302
0.00538726
0.00575981
0.00612652
0.00648334
0.00682652
0.00715274
0.00745925
0.00774401
0.00800574
0.00824393
0.00845887
0.00865158
0.00882367
0.00897735
0.00911511
0.00923971
0.009354
0.00946072
0.00956244
0.00966138
0.00975931
0.00985745
0.00995634
0.0100558
0.0101549
0.0102518
0.0103441
0.010428
0.0104985
0.0105498
0.0105722
0.0105663
0.0105208
0.0104277
0.0102796
0.01007
0.00979376
0.00944784
0.00903166
0.00854773
0.00800193
0.00740357
0.00676509
0.00610148
0.0054293
0.00476543
0.00412582
0.00352424
0.00297135
0.00247424
0.00203627
0.00165756
0.00133559
0.00106616
0.000844287
0.000665178
0.000525169
0.000422891
0.000361271
0.000352861
0.000442343
0.000902619
2.71808e-05
1.31743e-05
9.77474e-06
8.70695e-06
8.57625e-06
8.93761e-06
9.59654e-06
1.04468e-05
1.14232e-05
1.24825e-05
1.35934e-05
1.47329e-05
1.58835e-05
1.7032e-05
1.81686e-05
1.92869e-05
2.03831e-05
2.14568e-05
2.25102e-05
2.35485e-05
2.45804e-05
2.56174e-05
2.6675e-05
2.77724e-05
2.89332e-05
3.01858e-05
3.15638e-05
3.31071e-05
3.48623e-05
3.68842e-05
3.92364e-05
4.1993e-05
4.52401e-05
4.90772e-05
5.36195e-05
5.90002e-05
6.53723e-05
7.29124e-05
8.18228e-05
9.23354e-05
0.000104715
0.000119265
0.00013633
0.0001563
0.000179621
0.000206793
0.000238384
0.000275031
0.000317446
0.000366426
0.000422851
0.000487691
0.000562008
0.000646946
0.00074373
0.00085365
0.000978041
0.00111826
0.00127563
0.00145144
0.00164685
0.00186283
0.0021001
0.00235908
0.00263974
0.0029416
0.00326358
0.00360403
0.00396064
0.00433045
0.00470993
0.00509499
0.00548116
0.00586373
0.00623795
0.00659924
0.00694342
0.00726687
0.00756676
0.00784112
0.00808894
0.00831018
0.00850569
0.00867717
0.00882709
0.00895832
0.00907436
0.0091787
0.00927493
0.00936656
0.00945687
0.00954865
0.00964369
0.00974375
0.00984996
0.00996272
0.0100815
0.0102048
0.0103305
0.0104554
0.0105753
0.0106849
0.0107782
0.0108476
0.0108804
0.0108801
0.0108318
0.010727
0.0105579
0.0103178
0.0100021
0.0096087
0.00913861
0.00859646
0.0079907
0.00733355
0.00664046
0.00592923
0.0052187
0.00452729
0.00387154
0.00326485
0.0027167
0.00223234
0.00181307
0.00145694
0.00115975
0.000916146
0.000720763
0.00056938
0.000460267
0.000396445
0.000391646
0.000495628
0.0010147
3.06232e-05
1.47966e-05
1.08775e-05
9.55087e-06
9.2549e-06
9.49613e-06
1.00601e-05
1.08321e-05
1.17415e-05
1.27417e-05
1.37995e-05
1.48907e-05
1.59969e-05
1.71043e-05
1.82032e-05
1.92868e-05
2.03519e-05
2.1398e-05
2.24278e-05
2.34469e-05
2.44643e-05
2.54924e-05
2.65472e-05
2.76488e-05
2.88219e-05
3.00959e-05
3.1506e-05
3.30938e-05
3.49085e-05
3.70074e-05
3.9458e-05
4.23389e-05
4.5742e-05
4.97739e-05
5.45592e-05
6.02419e-05
6.69894e-05
7.49949e-05
8.44818e-05
9.57071e-05
0.000108966
0.000124599
0.000142992
0.000164589
0.000189894
0.00021948
0.000253994
0.000294168
0.000340821
0.000394869
0.000457328
0.000529315
0.000612048
0.000706839
0.000815084
0.000938238
0.00107779
0.00123524
0.001412
0.00160939
0.00182856
0.00207035
0.00233526
0.00262334
0.00293406
0.0032663
0.00361819
0.00398714
0.00436983
0.00476222
0.00515968
0.0055571
0.00594914
0.00633041
0.00669577
0.00704059
0.00736092
0.00765381
0.00791734
0.00815075
0.00835443
0.00852989
0.00867944
0.00880622
0.00891414
0.009007
0.00908946
0.0091664
0.00924141
0.00931732
0.00939717
0.00948389
0.00957988
0.00968645
0.00980417
0.00993282
0.0100715
0.0102186
0.0103714
0.0105267
0.0106801
0.0108257
0.0109572
0.0110677
0.0111474
0.0111837
0.0111805
0.0111206
0.0109953
0.0107965
0.010518
0.0101559
0.00970934
0.00918125
0.00857864
0.00791279
0.00719897
0.00645568
0.00570333
0.0049627
0.00425319
0.00359123
0.00298916
0.00245462
0.00199062
0.00159617
0.00126739
0.000998706
0.000784272
0.000619286
0.000501597
0.000434238
0.000432062
0.000549965
0.00112806
3.42003e-05
1.64872e-05
1.20371e-05
1.04531e-05
9.99823e-06
1.01282e-05
1.06068e-05
1.13112e-05
1.21645e-05
1.31167e-05
1.41325e-05
1.51861e-05
1.62584e-05
1.7335e-05
1.84057e-05
1.9464e-05
2.05065e-05
2.15332e-05
2.25471e-05
2.35543e-05
2.45647e-05
2.55912e-05
2.66509e-05
2.77651e-05
2.89595e-05
3.02652e-05
3.17194e-05
3.3366e-05
3.5257e-05
3.74535e-05
4.00273e-05
4.30628e-05
4.66586e-05
5.09303e-05
5.6013e-05
6.20643e-05
6.92676e-05
7.78362e-05
8.80175e-05
0.000100098
0.000114408
0.000131328
0.000151297
0.000174815
0.000202456
0.00023487
0.0002728
0.000317079
0.000368648
0.000428554
0.000497961
0.000578143
0.000670488
0.00077648
0.000897687
0.00103573
0.00119223
0.00136878
0.00156687
0.00178779
0.00203254
0.00230176
0.00259558
0.0029135
0.00325435
0.00361614
0.00399605
0.00439039
0.00479468
0.00520375
0.00561189
0.00601308
0.00640129
0.00677079
0.00711644
0.00743395
0.00772017
0.00797319
0.00819247
0.00837882
0.00853417
0.00866179
0.00876539
0.00884929
0.00891885
0.00898022
0.00903627
0.00909072
0.00914813
0.00921272
0.00928747
0.00937446
0.00947528
0.00959074
0.00972097
0.00986538
0.0100226
0.0101908
0.010367
0.0105476
0.0107283
0.0109041
0.0110694
0.0112167
0.0113379
0.0114194
0.0114525
0.0114385
0.0113599
0.0112072
0.0109728
0.0106509
0.0102383
0.0097359
0.00914859
0.00848601
0.00776251
0.0069966
0.00620975
0.00542479
0.00466393
0.00394691
0.00328934
0.00270177
0.00218946
0.00175291
0.00138889
0.00109187
0.00085563
0.000674809
0.000546792
0.000474561
0.000474032
0.000605294
0.00124263
3.79139e-05
1.82461e-05
1.32522e-05
1.14107e-05
1.08019e-05
1.08279e-05
1.12298e-05
1.18757e-05
1.26824e-05
1.35962e-05
1.45795e-05
1.56051e-05
1.66526e-05
1.77071e-05
1.87581e-05
1.97989e-05
2.08263e-05
2.18406e-05
2.28453e-05
2.38472e-05
2.48569e-05
2.58884e-05
2.69599e-05
2.80939e-05
2.93179e-05
3.06649e-05
3.21744e-05
3.38933e-05
3.58768e-05
3.81905e-05
4.09116e-05
4.41308e-05
4.79553e-05
5.25106e-05
5.79443e-05
6.44293e-05
7.21678e-05
8.13959e-05
9.23886e-05
0.000105466
0.000120998
0.000139413
0.000161204
0.00018694
0.00021727
0.000252935
0.000294777
0.000343749
0.00040092
0.000467485
0.000544762
0.000634196
0.00073735
0.000855883
0.000991529
0.00114605
0.0013212
0.00151861
0.00173976
0.00198584
0.00225762
0.00255535
0.00287864
0.00322631
0.00359631
0.00398562
0.0043903
0.00480546
0.0052254
0.00564382
0.00605407
0.00644945
0.00682358
0.00717076
0.00748631
0.00776684
0.00801039
0.00821652
0.0083864
0.00852258
0.00862849
0.00870929
0.00876986
0.00881803
0.0088566
0.00888855
0.00892091
0.00895904
0.00900625
0.00906559
0.00913945
0.00922941
0.00933644
0.00946086
0.00960235
0.00975999
0.00993224
0.010117
0.0103115
0.0105122
0.0107151
0.0109151
0.0111063
0.0112822
0.0114368
0.0115616
0.0116402
0.0116666
0.0116369
0.0115346
0.0113507
0.0110774
0.0107092
0.0102445
0.00968544
0.0090394
0.00831894
0.0075418
0.00672982
0.00590742
0.00509949
0.00432913
0.00361563
0.00297301
0.00240936
0.0019272
0.0015244
0.00119581
0.000934969
0.000736025
0.00059588
0.000517418
0.000517554
0.000661631
0.00135847
4.17666e-05
2.00742e-05
1.45222e-05
1.24219e-05
1.16629e-05
1.15909e-05
1.1924e-05
1.25194e-05
1.32878e-05
1.41718e-05
1.51313e-05
1.61371e-05
1.71679e-05
1.8208e-05
1.92465e-05
2.02767e-05
2.12956e-05
2.23037e-05
2.33051e-05
2.43075e-05
2.53222e-05
2.63646e-05
2.74541e-05
2.86148e-05
2.98763e-05
3.12738e-05
3.28495e-05
3.46536e-05
3.67456e-05
3.91959e-05
4.20879e-05
4.552e-05
4.96088e-05
5.44913e-05
6.03294e-05
6.73134e-05
7.56667e-05
8.56515e-05
9.75738e-05
0.000111791
0.000128718
0.000148837
0.000172705
0.000200961
0.000234342
0.000273688
0.000319953
0.000374218
0.000437694
0.000511732
0.000597817
0.000697571
0.000812733
0.000945136
0.00109667
0.00126921
0.00146459
0.00168444
0.00193014
0.00220266
0.00250242
0.00282914
0.00318172
0.00355811
0.00395519
0.00436879
0.00479371
0.00522378
0.00565215
0.00607152
0.00647453
0.00685411
0.00720398
0.00751895
0.0077953
0.00803098
0.00822566
0.00838059
0.0084988
0.00858477
0.00864279
0.0086833
0.00870833
0.0087212
0.00873077
0.00874194
0.00875874
0.00878671
0.00882831
0.0088859
0.00896115
0.00905504
0.00916797
0.00929979
0.00944984
0.00961697
0.0097996
0.00999565
0.0102026
0.0104173
0.010636
0.0108543
0.0110671
0.0112681
0.0114507
0.0116068
0.011727
0.0117979
0.0118161
0.0117696
0.0116416
0.0114245
0.0111104
0.0106949
0.0101772
0.00956153
0.0088579
0.00808238
0.00725636
0.00640522
0.00555615
0.00473564
0.00396694
0.00326801
0.00265046
0.0021194
0.00167437
0.00131092
0.00102259
0.000803142
0.000648985
0.000562889
0.00056269
0.000719056
0.00147578
4.57621e-05
2.19729e-05
1.58475e-05
1.34859e-05
1.25794e-05
1.24146e-05
1.26856e-05
1.32376e-05
1.39755e-05
1.48374e-05
1.57806e-05
1.67741e-05
1.77954e-05
1.88279e-05
1.98606e-05
2.08863e-05
2.19024e-05
2.29098e-05
2.39132e-05
2.49213e-05
2.59463e-05
2.7005e-05
2.81185e-05
2.93127e-05
3.06192e-05
3.20762e-05
3.37288e-05
3.56311e-05
3.78474e-05
4.04538e-05
4.35405e-05
4.7215e-05
5.16039e-05
5.68579e-05
6.31545e-05
7.07038e-05
7.97532e-05
9.05937e-05
0.000103566
0.00011907
0.000137571
0.00015961
0.000185812
0.000216902
0.000253707
0.000297178
0.000348393
0.000408569
0.000479071
0.000561414
0.000657262
0.000768413
0.000896782
0.00104436
0.00121318
0.00140519
0.00162225
0.0018659
0.00213734
0.00243718
0.00276534
0.00312083
0.00350169
0.00390478
0.0043258
0.00475929
0.00519871
0.0056367
0.00606534
0.00647659
0.00686272
0.00721674
0.00753293
0.00780711
0.00803698
0.00822225
0.00836451
0.00846672
0.00853369
0.00857382
0.00859097
0.00859274
0.00858242
0.00856873
0.00855904
0.00855622
0.00856231
0.0085845
0.00862377
0.00868165
0.00875912
0.00885655
0.00897385
0.0091105
0.00926561
0.00943796
0.00962602
0.00982794
0.0100415
0.0102641
0.0104926
0.0107232
0.0109515
0.0111723
0.0113794
0.0115656
0.011722
0.0118376
0.0118948
0.011903
0.0118406
0.011686
0.0114342
0.0110784
0.0106144
0.0100429
0.00937032
0.00861026
0.00778268
0.00691309
0.00603044
0.00516441
0.00434235
0.00358669
0.00291315
0.00233014
0.00183944
0.00143776
0.00111894
0.000876471
0.000706307
0.000611125
0.000609552
0.000777709
0.00159487
4.99053e-05
2.39442e-05
1.72288e-05
1.46025e-05
1.35503e-05
1.3297e-05
1.3512e-05
1.4027e-05
1.47413e-05
1.55882e-05
1.6522e-05
1.75101e-05
1.85283e-05
1.95596e-05
2.05922e-05
2.1619e-05
2.26376e-05
2.36493e-05
2.46596e-05
2.56781e-05
2.67184e-05
2.77987e-05
2.89418e-05
3.01759e-05
3.15351e-05
3.30605e-05
3.48008e-05
3.68147e-05
3.91713e-05
4.19535e-05
4.52595e-05
4.9206e-05
5.39321e-05
5.96027e-05
6.64135e-05
7.45963e-05
8.44253e-05
9.62235e-05
0.000110371
0.000127314
0.000147573
0.000171754
0.000200562
0.000234807
0.000275425
0.000323481
0.000380189
0.000446913
0.000525182
0.000616684
0.00072326
0.000846889
0.000989653
0.00115369
0.00134112
0.00155394
0.00179394
0.0020625
0.0023605
0.00268807
0.00304443
0.00342776
0.00383499
0.0042618
0.00470257
0.00515045
0.00559766
0.00603572
0.00645591
0.00684978
0.00720966
0.00752914
0.00780356
0.0080302
0.00820853
0.00834031
0.00842938
0.00848004
0.00850057
0.00850062
0.00847717
0.00844567
0.00840998
0.00837688
0.00835297
0.00834252
0.008342
0.00836144
0.00840042
0.00845945
0.00853887
0.00863856
0.00875803
0.0088965
0.00905301
0.00922636
0.00941521
0.00961802
0.009833
0.0100581
0.0102908
0.0105283
0.0107668
0.011002
0.0112285
0.0114401
0.011629
0.0117856
0.0118958
0.0119443
0.0119393
0.0118577
0.0116767
0.0113892
0.0109901
0.0104755
0.00984813
0.00911788
0.00830225
0.00742591
0.00651879
0.00561333
0.004741
0.00392906
0.00319797
0.00256018
0.00202041
0.00157705
0.00122459
0.000956424
0.000768111
0.000662331
0.000658302
0.000837771
0.00171613
5.42019e-05
2.59906e-05
1.86674e-05
1.57721e-05
1.45753e-05
1.42374e-05
1.44016e-05
1.48853e-05
1.55824e-05
1.64207e-05
1.73517e-05
1.83404e-05
1.93616e-05
2.03972e-05
2.14351e-05
2.24681e-05
2.34939e-05
2.45145e-05
2.55362e-05
2.65697e-05
2.763e-05
2.8737e-05
2.99155e-05
3.1196e-05
3.26155e-05
3.42184e-05
3.60576e-05
3.81964e-05
4.07101e-05
4.36885e-05
4.72387e-05
5.14883e-05
5.65895e-05
6.27236e-05
7.01061e-05
7.89931e-05
8.96883e-05
0.00010255
0.000118003
0.000136542
0.000158751
0.000185308
0.000217001
0.000254741
0.000299573
0.000352693
0.000415456
0.000489387
0.000576182
0.000677709
0.000795989
0.000933174
0.0010915
0.00127321
0.00148048
0.0017153
0.00197928
0.00227356
0.00259853
0.00295368
0.00333741
0.00374683
0.00417767
0.00462426
0.00507959
0.0055355
0.00598301
0.0064128
0.00681567
0.00718319
0.00750823
0.00778549
0.0080118
0.00818632
0.00831044
0.00838801
0.00842417
0.00843198
0.00840914
0.0083679
0.00831422
0.00825771
0.00820335
0.00815699
0.00812442
0.0081094
0.00810644
0.008125
0.00816468
0.00822483
0.0083053
0.00840554
0.0085248
0.00866219
0.00881675
0.00898742
0.00917312
0.00937266
0.00958475
0.0098079
0.0100403
0.0102798
0.0105236
0.0107683
0.0110094
0.0112415
0.011458
0.0116498
0.0118069
0.0119131
0.0119562
0.0119354
0.0118344
0.0116242
0.0112989
0.0108529
0.010284
0.0095979
0.00880842
0.00793822
0.00701722
0.00607993
0.00516176
0.004295
0.00350546
0.0028104
0.0022182
0.00172961
0.00134019
0.00104349
0.000834754
0.000716732
0.000709133
0.000899464
0.00184003
5.86587e-05
2.81153e-05
2.01651e-05
1.69956e-05
1.56547e-05
1.52352e-05
1.53533e-05
1.58112e-05
1.64969e-05
1.73326e-05
1.82665e-05
1.92617e-05
2.02914e-05
2.13366e-05
2.23846e-05
2.34284e-05
2.44659e-05
2.54997e-05
2.65371e-05
2.759e-05
2.86749e-05
2.98135e-05
3.10331e-05
3.23666e-05
3.38543e-05
3.55441e-05
3.74937e-05
3.97714e-05
4.24593e-05
4.56552e-05
4.94757e-05
5.40606e-05
5.95766e-05
6.62229e-05
7.42371e-05
8.3902e-05
9.55538e-05
0.000109591
0.000126483
0.000146785
0.000171145