/*--------------------------------*- C++ -*----------------------------------*\
  =========                 |
  \\      /  F ield         | OpenFOAM: The Open Source CFD Toolbox
   \\    /   O peration     | Website:  https://openfoam.org
    \\  /    A nd           | Version:  12
     \\/     M anipulation  |
\*---------------------------------------------------------------------------*/
FoamFile
{
    format      ascii;
    class       volScalarField;
    location    "3.5";
    object      k;
}
// * * * * * * * * * * * * * * * * * * * * * * * * * * * * * * * * * * * * * //

dimensions      [0 2 -2 0 0 0 0];

internalField   nonuniform List<scalar> 
18225
(
2.05635e-10
1.39137e-09
3.09932e-09
5.13653e-09
7.41276e-09
9.8697e-09
1.24626e-08
1.51536e-08
1.79089e-08
2.06975e-08
2.34907e-08
2.62626e-08
2.89896e-08
3.16515e-08
3.42318e-08
3.67176e-08
3.91008e-08
4.13781e-08
4.35512e-08
4.56273e-08
4.76192e-08
4.95457e-08
5.14315e-08
5.33078e-08
5.52122e-08
5.71895e-08
5.92917e-08
6.15788e-08
6.41194e-08
6.6991e-08
7.02812e-08
7.40882e-08
7.8522e-08
8.37045e-08
8.97711e-08
9.68708e-08
1.05167e-07
1.14838e-07
1.26077e-07
1.39092e-07
1.54107e-07
1.71361e-07
1.91105e-07
2.13604e-07
2.39138e-07
2.67995e-07
3.00474e-07
3.36882e-07
3.77532e-07
4.22741e-07
4.72829e-07
5.28114e-07
5.88908e-07
6.55517e-07
7.28236e-07
8.07343e-07
8.93098e-07
9.85741e-07
1.08549e-06
1.19252e-06
1.30701e-06
1.42909e-06
1.55887e-06
1.69644e-06
1.84186e-06
1.99519e-06
2.15646e-06
2.32566e-06
2.50281e-06
2.68787e-06
2.88082e-06
3.08159e-06
3.29013e-06
3.50632e-06
3.73006e-06
3.96121e-06
4.1996e-06
4.44503e-06
4.69727e-06
4.95604e-06
5.22101e-06
5.4918e-06
5.76795e-06
6.04892e-06
6.33406e-06
6.62263e-06
6.91375e-06
7.20638e-06
7.49932e-06
7.79118e-06
8.08031e-06
8.36485e-06
8.64265e-06
8.91125e-06
9.16791e-06
9.40956e-06
9.63279e-06
9.83382e-06
1.00084e-05
1.01518e-05
1.02593e-05
1.03214e-05
1.03437e-05
1.03254e-05
1.02512e-05
1.01188e-05
9.92689e-06
9.67456e-06
9.36203e-06
8.99098e-06
8.56484e-06
8.08886e-06
7.57014e-06
7.01737e-06
6.4406e-06
5.85073e-06
5.25902e-06
4.67646e-06
4.11324e-06
3.57822e-06
3.07852e-06
2.61935e-06
2.20389e-06
1.83337e-06
1.50733e-06
1.22384e-06
9.79907e-07
7.71793e-07
5.95305e-07
4.46208e-07
3.20498e-07
2.14771e-07
1.26741e-07
5.62285e-08
8.29273e-09
1.55402e-09
1.23901e-08
2.78078e-08
4.61626e-08
6.666e-08
8.87802e-08
1.12122e-07
1.36346e-07
1.61147e-07
1.86247e-07
2.11388e-07
2.36337e-07
2.60881e-07
2.84839e-07
3.08061e-07
3.30433e-07
3.5188e-07
3.72374e-07
3.91928e-07
4.10609e-07
4.28531e-07
4.45864e-07
4.62829e-07
4.79707e-07
4.96837e-07
5.14621e-07
5.33529e-07
5.54099e-07
5.76949e-07
6.02776e-07
6.32368e-07
6.6661e-07
7.0649e-07
7.53107e-07
8.07678e-07
8.71543e-07
9.46175e-07
1.03318e-06
1.13429e-06
1.25139e-06
1.38648e-06
1.54172e-06
1.71937e-06
1.92183e-06
2.15159e-06
2.41126e-06
2.70353e-06
3.03117e-06
3.39698e-06
3.80383e-06
4.25459e-06
4.75212e-06
5.29924e-06
5.8987e-06
6.55314e-06
7.26508e-06
8.03686e-06
8.87062e-06
9.76829e-06
1.07316e-05
1.1762e-05
1.28606e-05
1.40286e-05
1.52667e-05
1.65755e-05
1.79554e-05
1.94066e-05
2.09294e-05
2.25236e-05
2.4189e-05
2.59253e-05
2.77321e-05
2.96087e-05
3.15542e-05
3.35676e-05
3.56476e-05
3.77928e-05
4.00013e-05
4.2271e-05
4.45995e-05
4.69838e-05
4.94205e-05
5.19053e-05
5.44335e-05
5.69993e-05
5.9596e-05
6.22157e-05
6.4849e-05
6.74852e-05
7.01117e-05
7.27138e-05
7.52748e-05
7.77753e-05
8.01933e-05
8.2504e-05
8.46799e-05
8.66903e-05
8.85014e-05
9.00743e-05
9.13679e-05
9.23336e-05
9.28823e-05
9.30736e-05
9.29022e-05
9.22258e-05
9.10261e-05
8.92913e-05
8.70141e-05
8.41964e-05
8.08536e-05
7.70165e-05
7.27326e-05
6.80654e-05
6.30933e-05
5.79063e-05
5.26023e-05
4.72822e-05
4.20448e-05
3.69814e-05
3.21715e-05
2.76791e-05
2.3551e-05
1.98156e-05
1.64842e-05
1.35526e-05
1.10036e-05
8.81001e-06
6.93806e-06
5.35078e-06
4.00996e-06
2.87946e-06
1.92852e-06
1.1363e-06
5.00427e-07
6.26536e-08
3.29963e-09
2.82879e-08
6.39021e-08
1.06304e-07
1.53648e-07
2.04734e-07
2.58637e-07
3.14572e-07
3.71838e-07
4.29792e-07
4.87841e-07
5.4544e-07
6.02105e-07
6.57413e-07
7.11017e-07
7.62655e-07
8.12156e-07
8.59449e-07
9.04571e-07
9.4767e-07
9.89014e-07
1.02899e-06
1.06811e-06
1.10703e-06
1.14653e-06
1.18752e-06
1.23111e-06
1.27853e-06
1.3312e-06
1.39074e-06
1.45896e-06
1.53791e-06
1.62987e-06
1.73738e-06
1.86324e-06
2.01055e-06
2.18272e-06
2.38345e-06
2.61676e-06
2.88699e-06
3.19879e-06
3.55711e-06
3.96721e-06
4.43462e-06
4.96512e-06
5.56474e-06
6.23971e-06
6.99642e-06
7.8414e-06
8.78127e-06
9.8227e-06
1.09723e-05
1.22366e-05
1.36221e-05
1.51348e-05
1.67807e-05
1.85651e-05
2.04931e-05
2.25693e-05
2.47976e-05
2.71815e-05
2.97239e-05
3.24272e-05
3.52933e-05
3.83238e-05
4.15198e-05
4.48818e-05
4.84103e-05
5.21051e-05
5.59661e-05
5.99924e-05
6.41829e-05
6.85361e-05
7.30499e-05
7.77219e-05
8.25489e-05
8.75272e-05
9.26525e-05
9.79194e-05
0.000103322
0.000108852
0.000114503
0.000120262
0.00012612
0.00013206
0.000138069
0.000144126
0.000150209
0.000156294
0.00016235
0.000168343
0.000174234
0.000179979
0.000185526
0.000190819
0.000195795
0.000200383
0.000204507
0.000208078
0.000211004
0.000213183
0.000214388
0.000214786
0.00021436
0.000212763
0.000209963
0.000205935
0.00020066
0.000194144
0.000186421
0.000177561
0.000167674
0.000156905
0.000145435
0.000133471
0.000121237
0.000108968
9.68912e-05
8.52164e-05
7.41271e-05
6.37711e-05
5.42559e-05
4.56469e-05
3.79699e-05
3.12147e-05
2.53416e-05
2.0288e-05
1.59761e-05
1.23197e-05
9.23076e-06
6.62589e-06
4.43415e-06
2.60754e-06
1.14109e-06
1.32868e-07
5.39361e-09
4.73932e-08
1.07578e-07
1.79328e-07
2.59463e-07
3.45934e-07
4.3717e-07
5.31844e-07
6.28767e-07
7.26851e-07
8.2509e-07
9.22563e-07
1.01845e-06
1.11203e-06
1.20272e-06
1.29007e-06
1.37379e-06
1.45377e-06
1.53006e-06
1.60291e-06
1.67278e-06
1.74033e-06
1.80642e-06
1.87214e-06
1.93883e-06
2.00805e-06
2.08163e-06
2.16167e-06
2.2506e-06
2.35112e-06
2.46632e-06
2.59966e-06
2.755e-06
2.93662e-06
3.14931e-06
3.39829e-06
3.68934e-06
4.02872e-06
4.42327e-06
4.88033e-06
5.40781e-06
6.0141e-06
6.70813e-06
7.49928e-06
8.39739e-06
9.41271e-06
1.05558e-05
1.18376e-05
1.32691e-05
1.48618e-05
1.66268e-05
1.85756e-05
2.07194e-05
2.3069e-05
2.5635e-05
2.84275e-05
3.14559e-05
3.47288e-05
3.82541e-05
4.20388e-05
4.6089e-05
5.04098e-05
5.50055e-05
5.98796e-05
6.50349e-05
7.04734e-05
7.61962e-05
8.22042e-05
8.84972e-05
9.50745e-05
0.000101935
0.000109076
0.000116494
0.000124185
0.000132145
0.000140366
0.000148842
0.000157562
0.000166517
0.000175694
0.000185079
0.000194655
0.000204404
0.000214303
0.000224327
0.000234447
0.00024463
0.000254838
0.000265028
0.00027515
0.000285148
0.000294956
0.000304503
0.000313704
0.000322469
0.000330693
0.000338264
0.000345057
0.000350933
0.000355737
0.000359305
0.000361233
0.000361844
0.000361111
0.000358412
0.000353708
0.000346954
0.000338115
0.000327192
0.000314237
0.000299362
0.000282747
0.000264632
0.000245319
0.000225158
0.00020453
0.000183831
0.000163449
0.000143741
0.000125021
0.000107539
9.14797e-05
7.69527e-05
6.40014e-05
5.26079e-05
4.27043e-05
3.41842e-05
2.69157e-05
2.07524e-05
1.55454e-05
1.11538e-05
7.45791e-06
4.37755e-06
1.90681e-06
2.1664e-07
7.76885e-09
6.89509e-08
1.57058e-07
2.62283e-07
3.79876e-07
5.06791e-07
6.40709e-07
7.79675e-07
9.21941e-07
1.0659e-06
1.21009e-06
1.35314e-06
1.49385e-06
1.63116e-06
1.76421e-06
1.89233e-06
2.01511e-06
2.13237e-06
2.24419e-06
2.35095e-06
2.45331e-06
2.55223e-06
2.64898e-06
2.74518e-06
2.84276e-06
2.94403e-06
3.05168e-06
3.16879e-06
3.29889e-06
3.446e-06
3.61462e-06
3.80983e-06
4.0373e-06
4.30334e-06
4.61496e-06
4.97986e-06
5.40652e-06
5.90419e-06
6.48289e-06
7.15347e-06
7.92755e-06
8.81754e-06
9.83659e-06
1.09986e-05
1.2318e-05
1.38099e-05
1.54902e-05
1.73747e-05
1.94801e-05
2.1823e-05
2.44203e-05
2.72889e-05
3.04454e-05
3.39061e-05
3.76869e-05
4.18028e-05
4.6268e-05
5.10955e-05
5.62974e-05
6.18841e-05
6.78652e-05
7.42484e-05
8.10405e-05
8.82469e-05
9.58717e-05
0.000103918
0.000112388
0.000121281
0.000130597
0.000140335
0.00015049
0.000161058
0.000172031
0.000183401
0.000195157
0.000207286
0.000219773
0.0002326
0.000245747
0.000259191
0.000272907
0.000286866
0.000301036
0.000315383
0.000329866
0.000344442
0.000359062
0.000373672
0.000388211
0.000402611
0.000416796
0.000430678
0.00044416
0.000457132
0.000469469
0.000481036
0.000491678
0.000501226
0.000509498
0.000516273
0.00052132
0.000524054
0.000524922
0.000523966
0.000520201
0.000513574
0.000504013
0.000491451
0.00047587
0.000457326
0.000435964
0.000412026
0.000385853
0.000357876
0.000328603
0.000298594
0.000268433
0.000238695
0.000209917
0.000182566
0.000157018
0.000133546
0.000112318
9.33969e-05
7.6757e-05
6.22975e-05
4.98617e-05
3.92546e-05
3.02614e-05
2.26633e-05
1.62541e-05
1.08596e-05
6.36409e-06
2.76299e-06
3.10813e-07
1.03778e-08
9.25452e-08
2.1133e-07
3.53458e-07
5.12415e-07
6.84031e-07
8.65143e-07
1.05309e-06
1.24551e-06
1.44022e-06
1.63522e-06
1.82867e-06
2.01892e-06
2.20456e-06
2.3844e-06
2.55755e-06
2.72343e-06
2.8818e-06
3.03278e-06
3.17687e-06
3.31497e-06
3.44837e-06
3.57882e-06
3.70847e-06
3.83996e-06
3.9764e-06
4.12142e-06
4.27921e-06
4.45453e-06
4.65281e-06
4.88016e-06
5.14344e-06
5.45033e-06
5.8094e-06
6.23011e-06
6.72295e-06
7.29939e-06
7.972e-06
8.75441e-06
9.66136e-06
1.07086e-05
1.19132e-05
1.32928e-05
1.48666e-05
1.66541e-05
1.86762e-05
2.09542e-05
2.35102e-05
2.63668e-05
2.95468e-05
3.30736e-05
3.69702e-05
4.12597e-05
4.59647e-05
5.1107e-05
5.67077e-05
6.27864e-05
6.93616e-05
7.64499e-05
8.40663e-05
9.22239e-05
0.000100934
0.000110205
0.000120046
0.000130461
0.000141454
0.000153025
0.000165175
0.0001779
0.000191194
0.000205049
0.000219451
0.000234388
0.00024984
0.000265785
0.000282197
0.000299049
0.000316307
0.000333936
0.000351897
0.000370148
0.000388645
0.00040734
0.000426182
0.000445118
0.00046409
0.000483037
0.000501893
0.000520587
0.000539038
0.000557159
0.000574852
0.000592005
0.000608492
0.000624169
0.000638876
0.00065243
0.000664625
0.000675243
0.000683999
0.000690612
0.000694326
0.000695581
0.000694656
0.00069011
0.00068185
0.000669766
0.000653738
0.000633706
0.000609705
0.000581894
0.000550564
0.000516142
0.000479188
0.000440372
0.000400446
0.000360202
0.000320429
0.000281869
0.000245171
0.00021086
0.000179323
0.000150795
0.000125369
0.000103014
8.35946e-05
6.6898e-05
5.26602e-05
4.05904e-05
3.03928e-05
2.17899e-05
1.45481e-05
8.51464e-06
3.6881e-06
4.1294e-07
1.31893e-08
1.17919e-07
2.69763e-07
4.51757e-07
6.5548e-07
8.75522e-07
1.10779e-06
1.34886e-06
1.59566e-06
1.8454e-06
2.0955e-06
2.34359e-06
2.58755e-06
2.82554e-06
3.05604e-06
3.27791e-06
3.4904e-06
3.69319e-06
3.88644e-06
4.0708e-06
4.24741e-06
4.41795e-06
4.58463e-06
4.75025e-06
4.91818e-06
5.09241e-06
5.27761e-06
5.47914e-06
5.70312e-06
5.95651e-06
6.24716e-06
6.58389e-06
6.97658e-06
7.43622e-06
7.97502e-06
8.60645e-06
9.34532e-06
1.02078e-05
1.12116e-05
1.23756e-05
1.37203e-05
1.52675e-05
1.70405e-05
1.90637e-05
2.13629e-05
2.39648e-05
2.68974e-05
3.01893e-05
3.38701e-05
3.79696e-05
4.25182e-05
4.75464e-05
5.30844e-05
5.91618e-05
6.58078e-05
7.30499e-05
8.09144e-05
8.94256e-05
9.86056e-05
0.000108474
0.000119049
0.000130343
0.00014237
0.000155137
0.000168649
0.00018291
0.000197916
0.000213663
0.000230141
0.000247336
0.000265227
0.00028379
0.000302995
0.000322806
0.000343182
0.000364078
0.000385443
0.000407222
0.000429359
0.000451793
0.000474464
0.000497308
0.000520263
0.000543265
0.00056625
0.000589156
0.000611916
0.000634464
0.000656729
0.000678634
0.000700094
0.000721014
0.000741283
0.000760774
0.00077934
0.000796807
0.000812974
0.00082761
0.000840461
0.000851191
0.000859479
0.000864461
0.000866314
0.000865779
0.000860941
0.000851571
0.00083752
0.000818599
0.000794683
0.000765762
0.000731982
0.000693658
0.000651285
0.000605534
0.000557228
0.000507311
0.000456791
0.000406689
0.000357972
0.000311498
0.000267971
0.000227914
0.00019165
0.00015932
0.000130893
0.000106202
8.49787e-05
6.68852e-05
5.15488e-05
3.85917e-05
2.76598e-05
1.84567e-05
1.07913e-05
4.66661e-06
5.21191e-07
1.61827e-08
1.44902e-07
3.31938e-07
5.56449e-07
8.07987e-07
1.07981e-06
1.36681e-06
1.66473e-06
1.96976e-06
2.27842e-06
2.5875e-06
2.89407e-06
3.19548e-06
3.48945e-06
3.77409e-06
4.04798e-06
4.31019e-06
4.56033e-06
4.79859e-06
5.02577e-06
5.2433e-06
5.45325e-06
5.65837e-06
5.86211e-06
6.06865e-06
6.28294e-06
6.51073e-06
6.75867e-06
7.03434e-06
7.34634e-06
7.7044e-06
8.11945e-06
8.60371e-06
9.17085e-06
9.836e-06
1.06159e-05
1.1529e-05
1.25954e-05
1.38371e-05
1.52777e-05
1.69429e-05
1.88598e-05
2.10575e-05
2.35667e-05
2.64196e-05
2.96499e-05
3.32926e-05
3.73838e-05
4.19608e-05
4.70614e-05
5.2724e-05
5.89871e-05
6.58893e-05
7.34683e-05
8.1761e-05
9.08027e-05
0.000100627
0.000111264
0.000122743
0.000135088
0.000148319
0.000162455
0.000177507
0.000193483
0.000210387
0.000228214
0.000246957
0.0002666
0.000287121
0.000308487
0.000330662
0.000353598
0.00037724
0.000401527
0.000426389
0.000451751
0.000477534
0.000503656
0.000530033
0.000556584
0.000583226
0.000609885
0.000636486
0.000662963
0.000689254
0.0007153
0.000741047
0.000766444
0.000791436
0.000815966
0.000839968
0.000863366
0.000886064
0.000907949
0.000928875
0.00094867
0.000967118
0.000983969
0.00099893
0.00101163
0.0010217
0.00102829
0.00103104
0.0010312
0.00102665
0.00101679
0.00100146
0.000980388
0.000953373
0.00092034
0.000881393
0.000836844
0.000787228
0.000733298
0.000676009
0.000616476
0.00055592
0.000495589
0.000436693
0.000380318
0.000327373
0.000278544
0.000234272
0.000194763
0.000160006
0.000129812
0.000103859
8.17371e-05
6.29887e-05
4.71494e-05
3.37851e-05
2.25338e-05
1.31648e-05
5.68648e-06
6.3416e-07
1.93441e-08
1.73378e-07
3.97571e-07
6.67031e-07
9.69185e-07
1.29587e-06
1.64091e-06
1.99913e-06
2.36594e-06
2.73711e-06
3.10877e-06
3.47735e-06
3.83966e-06
4.19294e-06
4.5349e-06
4.86381e-06
5.17855e-06
5.47865e-06
5.76436e-06
6.03663e-06
6.29719e-06
6.54854e-06
6.79401e-06
7.03776e-06
7.28481e-06
7.54114e-06
7.81368e-06
8.11044e-06
8.44054e-06
8.81437e-06
9.24365e-06
9.74155e-06
1.03229e-05
1.10041e-05
1.18035e-05
1.27414e-05
1.38402e-05
1.51241e-05
1.662e-05
1.83565e-05
2.03648e-05
2.26782e-05
2.53319e-05
2.83635e-05
3.18125e-05
3.57201e-05
4.01292e-05
4.50843e-05
5.06311e-05
5.68163e-05
6.36873e-05
7.12919e-05
7.96775e-05
8.8891e-05
9.89781e-05
0.000109982
0.000121945
0.000134903
0.000148892
0.000163939
0.000180068
0.000197298
0.000215638
0.000235093
0.000255659
0.000277322
0.000300059
0.000323837
0.000348612
0.000374326
0.000400912
0.000428292
0.000456374
0.00048506
0.000514245
0.000543816
0.000573662
0.000603669
0.000633729
0.000663741
0.000693613
0.000723263
0.000752622
0.000781634
0.000810253
0.000838445
0.000866185
0.000893453
0.000920228
0.000946488
0.000972199
0.000997314
0.00102176
0.00104545
0.00106824
0.00108995
0.00111037
0.00112923
0.00114618
0.00116083
0.00117272
0.00118118
0.00118524
0.00118618
0.00118249
0.00117274
0.00115682
0.00113439
0.00110516
0.00106897
0.00102586
0.000976121
0.000920285
0.000859152
0.000793771
0.000725399
0.000655438
0.000585357
0.000516601
0.000450498
0.000388183
0.000330533
0.000278137
0.000231296
0.000190041
0.00015418
0.000123348
9.70668e-05
7.47945e-05
5.59792e-05
4.01038e-05
2.67387e-05
1.56123e-05
6.73812e-06
7.50744e-07
2.26642e-08
2.03268e-07
4.66471e-07
7.83165e-07
1.13856e-06
1.52301e-06
1.92919e-06
2.35096e-06
2.78288e-06
3.21995e-06
3.65755e-06
4.09147e-06
4.5179e-06
4.93358e-06
5.33578e-06
5.72247e-06
6.09232e-06
6.44477e-06
6.78011e-06
7.09949e-06
7.40496e-06
7.69948e-06
7.98698e-06
8.27239e-06
8.56165e-06
8.86181e-06
9.18106e-06
9.52884e-06
9.91596e-06
1.03547e-05
1.08588e-05
1.1444e-05
1.21277e-05
1.29294e-05
1.3871e-05
1.49764e-05
1.62721e-05
1.77874e-05
1.95538e-05
2.16057e-05
2.39804e-05
2.67174e-05
2.98593e-05
3.3451e-05
3.75397e-05
4.21752e-05
4.74092e-05
5.32953e-05
5.98887e-05
6.72458e-05
7.54242e-05
8.44815e-05
9.44753e-05
0.000105462
0.000117498
0.000130634
0.00014492
0.000160399
0.000177111
0.000195087
0.000214352
0.00023492
0.000256798
0.000279978
0.000304443
0.000330162
0.000357088
0.00038516
0.000414301
0.000444417
0.000475399
0.000507125
0.00053946
0.000572259
0.000605374
0.000638654
0.000671954
0.000705135
0.00073807
0.00077065
0.000802786
0.000834408
0.000865469
0.000895941
0.000925817
0.000955104
0.000983823
0.001012
0.00103966
0.00106682
0.0010935
0.00111966
0.00114528
0.00117026
0.00119448
0.00121777
0.00123988
0.00126051
0.00127931
0.00129583
0.00130956
0.00131992
0.00132554
0.00132737
0.00132493
0.00131579
0.0012999
0.00127688
0.00124632
0.00120799
0.00116186
0.00110813
0.00104733
0.000980238
0.000907961
0.000831849
0.000753449
0.000674418
0.000596424
0.000521038
0.000449631
0.000383299
0.000322812
0.000268596
0.000220757
0.000179123
0.000143303
0.000112762
8.68795e-05
6.50153e-05
4.65686e-05
3.104e-05
1.81158e-05
7.81403e-06
8.70086e-07
2.61369e-08
2.34523e-07
5.38517e-07
9.04628e-07
1.31577e-06
1.76074e-06
2.23102e-06
2.71945e-06
3.21967e-06
3.72586e-06
4.23261e-06
4.73501e-06
5.22861e-06
5.7096e-06
6.1748e-06
6.62183e-06
7.04914e-06
7.45611e-06
7.84308e-06
8.21139e-06
8.56343e-06
8.90269e-06
9.23372e-06
9.56228e-06
9.89527e-06
1.02409e-05
1.06087e-05
1.10096e-05
1.14562e-05
1.19628e-05
1.25454e-05
1.32222e-05
1.40136e-05
1.49425e-05
1.60341e-05
1.73167e-05
1.88213e-05
2.05819e-05
2.26358e-05
2.50234e-05
2.77885e-05
3.09778e-05
3.46414e-05
3.88325e-05
4.3607e-05
4.90239e-05
5.51444e-05
6.20324e-05
6.97535e-05
7.8375e-05
8.79651e-05
9.85927e-05
0.000110326
0.000123233
0.000137377
0.000152821
0.000169619
0.000187823
0.000207473
0.000228603
0.000251231
0.000275368
0.000301005
0.000328121
0.000356674
0.000386605
0.000417833
0.000450258
0.000483756
0.000518186
0.000553385
0.000589179
0.000625379
0.000661792
0.000698226
0.000734494
0.000770424
0.000805862
0.00084068
0.000874779
0.00090809
0.000940578
0.000972238
0.00100309
0.00103319
0.00106259
0.00109138
0.00111963
0.00114742
0.00117481
0.00120185
0.00122854
0.00125486
0.00128073
0.00130602
0.00133055
0.00135407
0.00137623
0.00139666
0.00141486
0.00143032
0.00144242
0.00144973
0.0014525
0.00145147
0.00144336
0.00142804
0.00140511
0.0013741
0.00133467
0.00128669
0.00123029
0.0011659
0.00109429
0.00101653
0.000934019
0.000848399
0.000761476
0.000675113
0.00059111
0.000511086
0.000436374
0.000367953
0.000306416
0.000251975
0.000204508
0.000163625
0.000128747
9.91833e-05
7.42112e-05
5.31452e-05
3.54147e-05
2.06619e-05
8.90854e-06
9.9154e-07
2.97589e-08
2.67111e-07
6.13635e-07
1.03129e-06
1.50061e-06
2.00878e-06
2.54603e-06
3.10411e-06
3.67572e-06
4.25412e-06
4.83312e-06
5.40701e-06
5.97069e-06
6.51974e-06
7.05053e-06
7.56029e-06
8.04728e-06
8.51077e-06
8.95117e-06
9.37005e-06
9.77018e-06
1.01556e-05
1.05315e-05
1.09045e-05
1.12827e-05
1.16753e-05
1.20934e-05
1.25495e-05
1.30581e-05
1.36355e-05
1.43002e-05
1.50732e-05
1.5978e-05
1.70407e-05
1.82908e-05
1.97606e-05
2.14862e-05
2.35071e-05
2.58664e-05
2.86111e-05
3.17921e-05
3.54639e-05
3.96849e-05
4.45172e-05
5.00265e-05
5.62815e-05
6.33544e-05
7.13198e-05
8.0255e-05
9.02389e-05
0.000101352
0.000113674
0.000127285
0.000142264
0.000158684
0.000176615
0.00019612
0.000217251
0.000240051
0.000264547
0.000290753
0.000318661
0.000348246
0.000379458
0.000412223
0.000446442
0.000481987
0.000518704
0.000556414
0.000594913
0.000633979
0.000673376
0.000712861
0.000752194
0.000791143
0.000829499
0.000867076
0.000903724
0.000939336
0.000973843
0.00100722
0.0010395
0.00107072
0.00110099
0.00113041
0.00115911
0.00118724
0.00121492
0.00124227
0.00126939
0.00129635
0.00132317
0.00134983
0.00137625
0.00140228
0.00142773
0.00145232
0.0014757
0.00149744
0.00151704
0.00153395
0.00154753
0.00155651
0.00156031
0.00156054
0.00155381
0.00153951
0.0015173
0.00148665
0.00144712
0.00139849
0.00134077
0.00127427
0.00119967
0.00111797
0.00103057
0.000939124
0.00084555
0.000751868
0.000660089
0.000572074
0.000489413
0.00041332
0.00034459
0.00028358
0.000230257
0.000184256
0.000144976
0.000111671
8.35382e-05
5.98115e-05
3.98474e-05
2.32417e-05
1.00177e-05
1.11466e-06
3.35285e-08
3.01021e-07
6.91797e-07
1.16309e-06
1.69298e-06
2.26699e-06
2.87401e-06
3.50468e-06
4.15068e-06
4.80434e-06
5.45857e-06
6.10687e-06
6.74342e-06
7.36318e-06
7.96201e-06
8.53677e-06
9.08547e-06
9.60733e-06
1.01028e-05
1.05738e-05
1.10234e-05
1.14561e-05
1.18782e-05
1.2297e-05
1.27216e-05
1.31627e-05
1.36328e-05
1.41462e-05
1.47192e-05
1.53706e-05
1.61213e-05
1.69952e-05
1.80191e-05
1.9223e-05
2.06403e-05
2.23082e-05
2.42679e-05
2.65649e-05
2.92486e-05
3.23732e-05
3.59973e-05
4.0184e-05
4.50006e-05
5.05191e-05
5.68154e-05
6.39695e-05
7.20649e-05
8.11885e-05
9.14298e-05
0.00010288
0.000115633
0.00012978
0.000145414
0.000162623
0.000181491
0.000202093
0.000224497
0.000248755
0.000274906
0.000302967
0.000332937
0.000364785
0.000398457
0.000433863
0.000470886
0.000509372
0.000549134
0.000589953
0.00063158
0.000673744
0.000716155
0.000758517
0.000800535
0.000841931
0.000882449
0.000921872
0.000960025
0.000996789
0.0010321
0.00106594
0.00109836
0.00112946
0.00115937
0.00118826
0.00121631
0.00124371
0.00127066
0.00129732
0.00132385
0.00135037
0.00137694
0.0014036
0.0014303
0.00145695
0.00148339
0.0015094
0.00153469
0.00155888
0.00158153
0.00160214
0.00162014
0.00163486
0.00164532
0.00165031
0.00165145
0.00164637
0.00163346
0.00161253
0.001583
0.00154435
0.00149622
0.0014385
0.00137137
0.00129534
0.00121132
0.0011206
0.00102483
0.000925965
0.000826139
0.000727545
0.00063228
0.000542194
0.000458767
0.000383029
0.000315524
0.000256341
0.000205178
0.000161437
0.000124329
9.29848e-05
6.65574e-05
4.43302e-05
2.585e-05
1.11393e-05
1.23919e-06
3.74461e-08
3.36255e-07
7.73008e-07
1.30004e-06
1.89289e-06
2.53533e-06
3.21491e-06
3.92109e-06
4.64445e-06
5.37633e-06
6.10872e-06
6.83428e-06
7.54642e-06
8.23943e-06
8.90863e-06
9.55053e-06
1.01629e-05
1.07448e-05
1.12969e-05
1.18213e-05
1.23216e-05
1.2803e-05
1.32722e-05
1.37379e-05
1.42103e-05
1.47014e-05
1.52253e-05
1.5798e-05
1.64382e-05
1.71668e-05
1.80076e-05
1.89875e-05
2.01368e-05
2.14894e-05
2.30834e-05
2.49609e-05
2.71689e-05
2.97589e-05
3.27876e-05
3.63168e-05
4.04133e-05
4.51496e-05
5.06028e-05
5.68556e-05
6.39952e-05
7.21135e-05
8.13067e-05
9.16745e-05
0.00010332
0.000116347
0.000130863
0.000146973
0.00016478
0.000184382
0.000205871
0.000229327
0.000254818
0.000282393
0.00031208
0.00034388
0.000377766
0.000413677
0.000451513
0.000491138
0.000532372
0.000574996
0.000618751
0.000663342
0.000708444
0.000753712
0.00079879
0.000843328
0.000886992
0.000929479
0.000970533
0.00100995
0.0010476
0.00108342
0.0011174
0.00114963
0.00118023
0.00120938
0.00123731
0.00126424
0.00129045
0.00131616
0.00134161
0.001367
0.00139249
0.00141818
0.00144415
0.0014704
0.00149687
0.00152344
0.00154995
0.00157613
0.00160169
0.00162624
0.00164936
0.00167055
0.00168922
0.00170474
0.00171638
0.00172251
0.00172443
0.00172108
0.00170987
0.00169071
0.00166299
0.00162609
0.00157954
0.00152309
0.00145673
0.0013808
0.00129605
0.00120361
0.00110506
0.00100232
0.000897596
0.000793228
0.000691527
0.00059461
0.00050424
0.000421715
0.00034781
0.000282777
0.00022641
0.000178144
0.000137168
0.000102555
7.33831e-05
4.88618e-05
2.84856e-05
1.22726e-05
1.36505e-06
4.15132e-08
3.72831e-07
8.57305e-07
1.4422e-06
2.1004e-06
2.81391e-06
3.56884e-06
4.35341e-06
5.15709e-06
5.97015e-06
6.7836e-06
7.58921e-06
8.37956e-06
9.14827e-06
9.89012e-06
1.06012e-05
1.1279e-05
1.19226e-05
1.25328e-05
1.31119e-05
1.3664e-05
1.4195e-05
1.47126e-05
1.52263e-05
1.57477e-05
1.62903e-05
1.68697e-05
1.75042e-05
1.82143e-05
1.90236e-05
1.99588e-05
2.10502e-05
2.23316e-05
2.38414e-05
2.56223e-05
2.7722e-05
3.01934e-05
3.30949e-05
3.64907e-05
4.04508e-05
4.50515e-05
5.03748e-05
5.65088e-05
6.35477e-05
7.15908e-05
8.07431e-05
9.11142e-05
0.000102818
0.00011597
0.000130691
0.0001471
0.000165314
0.000185447
0.000207607
0.000231891
0.000258381
0.000287139
0.000318206
0.000351591
0.00038727
0.000425181
0.000465217
0.000507225
0.000551003
0.000596301
0.000642819
0.000690214
0.00073811
0.000786102
0.000833773
0.00088071
0.000926521
0.000970851
0.0010134
0.00105393
0.0010923
0.00112843
0.00116235
0.00119414
0.00122397
0.00125208
0.00127874
0.00130423
0.00132888
0.00135299
0.00137683
0.00140065
0.00142464
0.00144895
0.00147369
0.00149889
0.00152452
0.0015505
0.00157669
0.00160288
0.00162883
0.00165422
0.00167869
0.00170182
0.00172312
0.00174207
0.00175807
0.00177049
0.00177771
0.00178034
0.00177871
0.00176943
0.00175245
0.00172711
0.00169272
0.0016487
0.00159465
0.00153037
0.00145598
0.00137201
0.00127941
0.0011796
0.00107442
0.000966081
0.000857025
0.000749753
0.000646643
0.000549757
0.000460693
0.000380493
0.000309619
0.000248001
0.000195136
0.000150215
0.000112267
8.02989e-05
5.34474e-05
3.11506e-05
1.34184e-05
1.49231e-06
4.5733e-08
4.10775e-07
9.44751e-07
1.58966e-06
2.31566e-06
3.1029e-06
3.936e-06
4.80189e-06
5.68884e-06
6.58602e-06
7.48342e-06
8.37181e-06
9.24298e-06
1.00898e-05
1.09064e-05
1.16886e-05
1.24336e-05
1.31404e-05
1.38099e-05
1.44449e-05
1.50499e-05
1.56316e-05
1.61985e-05
1.67615e-05
1.73332e-05
1.79288e-05
1.85657e-05
1.92642e-05
2.00473e-05
2.09411e-05
2.19756e-05
2.31843e-05
2.46052e-05
2.62813e-05
2.82602e-05
3.05956e-05
3.33469e-05
3.65798e-05
4.03666e-05
4.47865e-05
4.99253e-05
5.5876e-05
6.27383e-05
7.06186e-05
7.96298e-05
8.98905e-05
0.000101525
0.00011466
0.00012943
0.000145965
0.0001644
0.000184864
0.00020748
0.000232363
0.000259612
0.000289305
0.000321496
0.000356206
0.000393421
0.000433078
0.000475068
0.000519226
0.000565331
0.000613104
0.000662208
0.000712255
0.000762812
0.000813417
0.000863588
0.000912847
0.000960738
0.00100685
0.00105083
0.00109241
0.00113141
0.00116777
0.00120149
0.00123271
0.00126163
0.00128852
0.00131371
0.00133754
0.00136039
0.00138262
0.00140456
0.00142649
0.00144865
0.00147122
0.00149432
0.00151802
0.0015423
0.00156712
0.00159237
0.00161786
0.0016434
0.00166873
0.00169354
0.00171749
0.0017402
0.00176122
0.00178006
0.00179621
0.00180908
0.00181733
0.00182068
0.00182057
0.00181344
0.00179891
0.00177641
0.00174514
0.00170445
0.00165376
0.00159269
0.00152112
0.00143933
0.00134803
0.00124842
0.00114221
0.00103155
0.000918914
0.00080697
0.000698338
0.000595389
0.000500049
0.000413666
0.000336956
0.000270027
0.000212475
0.000163516
0.00012215
8.73235e-05
5.80973e-05
3.38503e-05
1.45786e-05
1.62118e-06
5.01096e-08
4.50126e-07
1.03543e-06
1.74257e-06
2.53888e-06
3.40256e-06
4.3167e-06
5.26688e-06
6.24009e-06
7.22436e-06
8.20856e-06
9.18249e-06
1.0137e-05
1.10643e-05
1.19578e-05
1.2813e-05
1.36268e-05
1.43982e-05
1.51283e-05
1.58202e-05
1.64791e-05
1.71125e-05
1.77298e-05
1.8343e-05
1.89664e-05
1.96167e-05
2.03132e-05
2.10784e-05
2.19377e-05
2.29202e-05
2.40591e-05
2.53916e-05
2.69601e-05
2.88122e-05
3.10013e-05
3.35872e-05
3.66362e-05
4.02221e-05
4.44258e-05
4.93362e-05
5.50499e-05
6.16713e-05
6.93127e-05
7.80938e-05
8.81417e-05
9.95896e-05
0.000112577
0.000127247
0.000143746
0.000162222
0.00018282
0.000205681
0.000230937
0.000258704
0.000289079
0.000322133
0.000357902
0.000396381
0.000437516
0.0004812
0.000527261
0.000575462
0.000625502
0.000677008
0.000729551
0.000782645
0.000835767
0.000888371
0.00093991
0.00098986
0.00103775
0.00108316
0.00112579
0.00116544
0.001202
0.00123552
0.00126613
0.00129406
0.00131965
0.00134325
0.00136531
0.00138622
0.00140641
0.00142626
0.00144609
0.00146619
0.00148676
0.00150795
0.00152982
0.00155242
0.00157568
0.00159953
0.00162381
0.00164835
0.00167292
0.00169729
0.00172117
0.00174424
0.00176617
0.00178656
0.00180499
0.00182097
0.00183399
0.00184315
0.00184749
0.00184841
0.0018436
0.00183169
0.00181234
0.00178465
0.00174786
0.00170128
0.00164435
0.0015767
0.00149832
0.00140965
0.00131162
0.00120573
0.00109401
0.000978915
0.00086322
0.000749768
0.000641234
0.000539896
0.000447445
0.000364897
0.000292584
0.000230236
0.000177127
0.000132246
9.44828e-05
6.28266e-05
3.65924e-05
1.57564e-05
1.752e-06
5.46482e-08
4.90931e-07
1.12946e-06
1.90112e-06
2.77031e-06
3.71324e-06
4.71137e-06
5.74885e-06
6.81138e-06
7.88573e-06
8.95963e-06
1.00218e-05
1.10622e-05
1.20722e-05
1.30448e-05
1.39747e-05
1.48589e-05
1.56963e-05
1.64881e-05
1.7238e-05
1.79518e-05
1.86377e-05
1.93064e-05
1.99712e-05
2.06476e-05
2.13543e-05
2.21127e-05
2.29473e-05
2.38865e-05
2.49623e-05
2.62112e-05
2.76747e-05
2.93995e-05
3.14384e-05
3.38508e-05
3.67031e-05
4.00692e-05
4.40313e-05
4.86799e-05
5.4114e-05
6.04419e-05
6.77804e-05
7.62551e-05
8.60002e-05
9.71574e-05
0.000109876
0.00012431
0.00014062
0.000158967
0.000179512
0.000202413
0.00022782
0.000255867
0.000286672
0.000320325
0.000356878
0.000396344
0.00043868
0.000483784
0.000531484
0.000581538
0.000633621
0.000687338
0.000742216
0.000797722
0.000853275
0.000908262
0.000962066
0.00101409
0.00106379
0.0011107
0.00115446
0.00119482
0.00123167
0.00126503
0.00129507
0.00132204
0.00134632
0.00136834
0.00138855
0.00140747
0.00142553
0.00144319
0.00146081
0.0014787
0.00149712
0.00151623
0.00153611
0.00155679
0.00157825
0.00160042
0.00162315
0.0016463
0.00166967
0.00169305
0.0017162
0.00173887
0.00176079
0.00178165
0.00180111
0.00181879
0.00183432
0.00184723
0.00185699
0.00186237
0.00186415
0.00186172
0.0018527
0.00183661
0.00181275
0.00178025
0.00173831
0.0016862
0.00162332
0.00154939
0.00146451
0.00136932
0.00126503
0.00115348
0.00103704
0.000918544
0.000801004
0.000687394
0.000580354
0.000481958
0.000393564
0.000315777
0.000248508
0.000191116
0.000142601
0.000101808
6.76544e-05
3.93869e-05
1.69557e-05
1.88522e-06
5.93553e-08
5.33247e-07
1.22697e-06
2.06553e-06
3.01028e-06
4.03534e-06
5.1205e-06
6.2484e-06
7.40335e-06
8.57082e-06
9.73734e-06
1.08905e-05
1.20193e-05
1.31143e-05
1.41679e-05
1.51743e-05
1.61304e-05
1.7035e-05
1.78898e-05
1.86986e-05
1.94682e-05
2.02076e-05
2.09288e-05
2.16462e-05
2.23773e-05
2.31424e-05
2.3965e-05
2.48723e-05
2.58953e-05
2.70693e-05
2.84345e-05
3.00366e-05
3.19272e-05
3.41646e-05
3.68146e-05
3.99505e-05
4.36546e-05
4.80181e-05
5.31414e-05
5.9135e-05
6.61192e-05
7.42242e-05
8.35899e-05
9.43656e-05
0.000106709
0.000120785
0.000136766
0.000154825
0.000175141
0.000197886
0.000223229
0.000251325
0.000282312
0.000316299
0.000353362
0.000393531
0.00043678
0.000483019
0.000532084
0.000583729
0.00063762
0.000693339
0.000750381
0.000808169
0.000866066
0.000923394
0.000979465
0.00103361
0.00108521