/*--------------------------------*- C++ -*----------------------------------*\
  =========                 |
  \\      /  F ield         | OpenFOAM: The Open Source CFD Toolbox
   \\    /   O peration     | Website:  https://openfoam.org
    \\  /    A nd           | Version:  12
     \\/     M anipulation  |
\*---------------------------------------------------------------------------*/
FoamFile
{
    format      ascii;
    class       volScalarField;
    location    "3.5";
    object      p;
}
// * * * * * * * * * * * * * * * * * * * * * * * * * * * * * * * * * * * * * //

dimensions      [0 2 -2 0 0 0 0];

internalField   nonuniform List<scalar> 
18225
(
-3.0807e-08
6.65951e-06
2.08673e-05
4.01413e-05
6.1353e-05
8.21651e-05
0.000100795
0.000115886
0.00012641
0.000131596
0.00013089
0.00012392
0.000110477
9.04914e-05
6.40189e-05
3.12265e-05
-7.62446e-06
-5.21938e-05
-0.00010208
-0.000156837
-0.000215996
-0.000279075
-0.000345601
-0.000415115
-0.000487186
-0.000561427
-0.000637517
-0.000715216
-0.000794359
-0.000874855
-0.00095669
-0.00103993
-0.00112473
-0.00121134
-0.00130009
-0.00139141
-0.00148582
-0.00158393
-0.00168642
-0.00179408
-0.00190774
-0.00202835
-0.00215688
-0.00229439
-0.00244198
-0.0026008
-0.00277204
-0.00295693
-0.00315674
-0.00337275
-0.00360629
-0.0038587
-0.00413136
-0.00442568
-0.00474307
-0.00508499
-0.00545289
-0.0058482
-0.00627238
-0.00672675
-0.00721262
-0.00773115
-0.0082833
-0.00886981
-0.00949112
-0.0101472
-0.0108378
-0.0115617
-0.0123175
-0.0131026
-0.0139139
-0.0147473
-0.0155975
-0.0164583
-0.0173222
-0.0181805
-0.0190232
-0.0198392
-0.020616
-0.0213399
-0.021996
-0.0225687
-0.0230413
-0.0233966
-0.0236169
-0.0236844
-0.0235814
-0.0232909
-0.0227965
-0.0220833
-0.0211378
-0.019949
-0.0185082
-0.0168099
-0.0148519
-0.012636
-0.010168
-0.00746244
-0.00453692
-0.00140418
0.00190584
0.00535418
0.00890634
0.0125188
0.0161442
0.0197316
0.0232285
0.0265815
0.0297385
0.0326504
0.0352734
0.0375709
0.0395153
0.0410895
0.0422881
0.0431175
0.0435959
0.0437522
0.0436245
0.0432574
0.0427002
0.0420034
0.0412168
0.0403867
0.0395544
0.0387554
0.0380181
0.0373653
0.0368138
0.0363753
0.0360583
0.0358672
0.0357999
0.0358431
0.0359432
-1.34497e-07
5.83654e-06
1.85231e-05
3.57911e-05
5.48193e-05
7.35058e-05
9.01901e-05
0.000103578
0.000112671
0.000116708
0.000115135
0.000107573
9.37981e-05
7.37241e-05
4.73878e-05
1.49332e-05
-2.34024e-05
-6.73047e-05
-0.000116398
-0.000170263
-0.000228456
-0.000290522
-0.000356011
-0.000424488
-0.00049554
-0.000568799
-0.00064396
-0.000720798
-0.000799158
-0.000878955
-0.000960179
-0.0010429
-0.00112727
-0.00121354
-0.00130202
-0.00139314
-0.0014874
-0.00158539
-0.00168778
-0.00179532
-0.00190884
-0.00202924
-0.00215748
-0.00229457
-0.0024416
-0.00259966
-0.00276993
-0.0029536
-0.00315189
-0.00336608
-0.00359744
-0.0038473
-0.00411699
-0.00440789
-0.00472139
-0.00505892
-0.00542187
-0.00581168
-0.00622973
-0.00667735
-0.0071558
-0.00766623
-0.00820959
-0.00878659
-0.00939765
-0.0100428
-0.0107217
-0.0114334
-0.0121763
-0.012948
-0.0137456
-0.0145648
-0.0154007
-0.0162472
-0.0170969
-0.0179413
-0.0187708
-0.0195742
-0.0203393
-0.0210527
-0.0216998
-0.0222652
-0.0227323
-0.0230842
-0.0233033
-0.0233722
-0.0232733
-0.0229896
-0.022505
-0.0218047
-0.0208753
-0.0197058
-0.0182875
-0.0166149
-0.014686
-0.0125022
-0.0100692
-0.00740271
-0.00451824
-0.00142514
0.00183896
0.00524106
0.00874655
0.0123124
0.0158917
0.0194347
0.0228897
0.0262041
0.0293269
0.0322099
0.0348103
0.0370921
0.0390284
0.0406026
0.0418092
0.0426548
0.043157
0.0433442
0.0432534
0.042928
0.042416
0.0417664
0.0410274
0.040244
0.0394562
0.0386982
0.0379977
0.0373762
0.0368503
0.0364309
0.036125
0.0359362
0.0358613
0.0358888
0.0359737
-2.20149e-06
3.54226e-06
1.49853e-05
3.03603e-05
4.72445e-05
6.378e-05
7.84559e-05
9.00614e-05
9.76398e-05
0.000100451
9.79454e-05
8.97386e-05
7.55957e-05
5.54144e-05
2.92111e-05
-2.89324e-06
-4.06868e-05
-8.38815e-05
-0.000132129
-0.000185039
-0.000242193
-0.000303165
-0.00036753
-0.000434875
-0.00050481
-0.000576984
-0.000651111
-0.00072698
-0.000804447
-0.000883436
-0.000963941
-0.00104603
-0.00112986
-0.00121567
-0.00130376
-0.00139456
-0.00148854
-0.00158627
-0.00168841
-0.00179568
-0.00190888
-0.00202888
-0.00215659
-0.00229301
-0.00243918
-0.00259617
-0.0027651
-0.00294713
-0.00314346
-0.0033553
-0.00358391
-0.00383057
-0.00409659
-0.0043833
-0.00469205
-0.00502424
-0.00538123
-0.00576442
-0.00617513
-0.00661475
-0.00708446
-0.00758538
-0.00811844
-0.00868439
-0.00928365
-0.0099163
-0.010582
-0.0112798
-0.0120083
-0.0127652
-0.0135476
-0.0143515
-0.0151721
-0.0160035
-0.0168385
-0.0176688
-0.018485
-0.0192763
-0.0200306
-0.0207348
-0.0213745
-0.0219345
-0.0223986
-0.02275
-0.0229713
-0.0230451
-0.0229542
-0.0226816
-0.0222113
-0.0215284
-0.0206199
-0.0194744
-0.0180834
-0.0164414
-0.0145459
-0.0123987
-0.010005
-0.00738167
-0.00453806
-0.00148916
0.00172651
0.00508161
0.00853995
0.0120592
0.0155933
0.0190934
0.0225083
0.0257866
0.0288778
0.0317348
0.0343153
0.0365841
0.0385145
0.0400904
0.0413065
0.042169
0.0426955
0.0429134
0.0428592
0.0425752
0.0421081
0.0415057
0.0408148
0.040079
0.039337
0.0386218
0.0379601
0.0373722
0.0368737
0.0364749
0.0361817
0.0359964
0.0359154
0.0359316
0.036011
-6.63272e-06
-4.56181e-07
1.04401e-05
2.45814e-05
3.99147e-05
5.48039e-05
6.78857e-05
7.80396e-05
8.43611e-05
8.61385e-05
8.28334e-05
7.40638e-05
5.95889e-05
3.92953e-05
1.31842e-05
-1.86413e-05
-5.59893e-05
-9.85931e-05
-0.000146127
-0.000198222
-0.000254485
-0.000314509
-0.000377892
-0.000444241
-0.000513182
-0.000584381
-0.000657566
-0.000732538
-0.000809162
-0.000887371
-0.00096716
-0.0010486
-0.00113184
-0.00121712
-0.00130473
-0.00139508
-0.00148863
-0.00158595
-0.00168765
-0.00179444
-0.00190709
-0.00202645
-0.0021534
-0.0022889
-0.00243395
-0.0025896
-0.00275694
-0.00293708
-0.00313118
-0.00334043
-0.00356605
-0.00380928
-0.00407139
-0.0043537
-0.00465751
-0.00498419
-0.00533506
-0.00571152
-0.00611489
-0.00654647
-0.00700748
-0.00749902
-0.00802204
-0.00857728
-0.00916523
-0.009786
-0.0104393
-0.0111244
-0.0118398
-0.0125834
-0.0133526
-0.0141434
-0.0149512
-0.0157703
-0.0165938
-0.0174136
-0.0182205
-0.0190039
-0.019752
-0.0204518
-0.0210893
-0.0216492
-0.0221156
-0.0224717
-0.0227005
-0.0227844
-0.0227063
-0.0224493
-0.0219973
-0.0213354
-0.0204504
-0.0193311
-0.0179686
-0.0163571
-0.0144944
-0.0123816
-0.0100245
-0.00743782
-0.00462922
-0.00162083
0.00155662
0.00487439
0.00829624
0.0117806
0.0152819
0.0187518
0.0221397
0.0253947
0.0284669
0.0313092
0.0338799
0.0361438
0.0380745
0.0396558
0.0408823
0.0417601
0.0423065
0.0425488
0.0425226
0.0422701
0.0418372
0.0412709
0.0406172
0.0399187
0.0392134
0.0385331
0.0379035
0.0373441
0.0368693
0.0364886
0.0362071
0.0360264
0.0359434
0.0359564
0.0360396
-1.29629e-05
-5.86234e-06
5.0417e-06
1.84786e-05
3.27471e-05
4.64103e-05
5.8247e-05
6.72303e-05
7.25139e-05
7.34206e-05
6.943e-05
6.0167e-05
4.53899e-05
2.4979e-05
-1.07495e-06
-3.26822e-05
-6.96662e-05
-0.000111777
-0.000158708
-0.000210107
-0.000265599
-0.000324798
-0.000387317
-0.000452779
-0.000520825
-0.000591133
-0.000663446
-0.000737574
-0.000813389
-0.000890829
-0.000969893
-0.00105065
-0.00113325
-0.00121792
-0.00130495
-0.00139473
-0.00148772
-0.00158445
-0.00168553
-0.00179165
-0.00190355
-0.00202203
-0.00214799
-0.00228232
-0.002426
-0.00258005
-0.00274552
-0.0029235
-0.00311512
-0.00332151
-0.00354387
-0.00378341
-0.00404137
-0.00431903
-0.00461766
-0.0049386
-0.00528319
-0.00565275
-0.00604863
-0.00647209
-0.00692436
-0.00740656
-0.00791968
-0.0084645
-0.00904156
-0.00965105
-0.0102928
-0.0109661
-0.0116697
-0.0124017
-0.0131594
-0.0139393
-0.014737
-0.0155468
-0.0163622
-0.0171753
-0.017977
-0.018757
-0.0195037
-0.0202043
-0.0208449
-0.0214103
-0.0218847
-0.0222514
-0.0224933
-0.0225929
-0.022533
-0.0222965
-0.0218673
-0.0212304
-0.0203723
-0.0192817
-0.0179495
-0.0163697
-0.0145396
-0.0124604
-0.0101375
-0.00758353
-0.00480863
-0.00183433
0.00131149
0.00459912
0.00799275
0.0114514
0.0149298
0.0183801
0.021752
0.0249948
0.0280587
0.0308968
0.0334671
0.0357345
0.0376724
0.0392641
0.0405042
0.0413984
0.0419637
0.0422271
0.0422242
0.0419968
0.0415907
0.0410525
0.0404279
0.0397591
0.0390832
0.0384314
0.0378287
0.0372936
0.0368394
0.0364747
0.036204
0.0360287
0.0359465
0.0359606
0.0360507
-2.07248e-05
-1.23485e-05
-1.03132e-06
1.20846e-05
2.56485e-05
3.84024e-05
4.92603e-05
5.72884e-05
6.17021e-05
6.18628e-05
5.72726e-05
4.75674e-05
3.25089e-05
1.19746e-05
-1.40512e-05
-4.54886e-05
-8.21727e-05
-0.000123867
-0.000170278
-0.000221071
-0.000275884
-0.000334346
-0.000396087
-0.00046074
-0.000527959
-0.000597435
-0.000668919
-0.00074223
-0.000817249
-0.000893915
-0.000972229
-0.00105226
-0.00113416
-0.00121813
-0.00130448
-0.00139358
-0.00148586
-0.00158186
-0.00168215
-0.0017874
-0.00189835
-0.00201575
-0.00214047
-0.0022734
-0.00241547
-0.00256767
-0.00273101
-0.00290656
-0.00309541
-0.00329866
-0.00351748
-0.00375305
-0.00400656
-0.00427927
-0.00457245
-0.00488737
-0.0052254
-0.00558783
-0.00597598
-0.00639114
-0.00683456
-0.00730741
-0.0078107
-0.0083453
-0.0089118
-0.00951053
-0.0101414
-0.0108039
-0.011497
-0.0122189
-0.0129671
-0.0137385
-0.0145286
-0.0153323
-0.0161431
-0.0169534
-0.0177543
-0.0185357
-0.0192862
-0.0199931
-0.0206425
-0.0212194
-0.0217078
-0.0220912
-0.0223522
-0.0224733
-0.0224371
-0.0222264
-0.0218249
-0.0212174
-0.0203901
-0.0193314
-0.018032
-0.0164856
-0.0146893
-0.0126439
-0.0103545
-0.00783219
-0.005089
-0.0021449
0.000973231
0.00423553
0.00760663
0.0110461
0.0145091
0.0179477
0.0213122
0.0245517
0.0276165
0.0304595
0.0330384
0.0353177
0.0372702
0.0388789
0.0401376
0.0410518
0.0416379
0.0419229
0.0419421
0.0417373
0.0413542
0.0408398
0.0402394
0.0395952
0.0389439
0.0383163
0.0377366
0.0372226
0.0367868
0.0364366
0.036176
0.0360063
0.0359262
0.0359428
0.0360395
-2.95523e-05
-1.96401e-05
-7.60368e-06
5.49846e-06
1.86544e-05
3.07661e-05
4.08734e-05
4.81336e-05
5.18245e-05
5.13486e-05
4.6234e-05
3.6131e-05
2.08079e-05
1.43074e-07
-2.58825e-05
-5.71949e-05
-9.36381e-05
-0.000134985
-0.000180954
-0.00023122
-0.000285436
-0.000343243
-0.00040428
-0.000468194
-0.000534646
-0.000603337
-0.000674027
-0.000746543
-0.000820771
-0.000896652
-0.000974189
-0.00105345
-0.00113458
-0.00121779
-0.00130335
-0.00139165
-0.00148309
-0.0015782
-0.00167754
-0.00178175
-0.00189154
-0.00200766
-0.00213093
-0.00226222
-0.00240244
-0.00255254
-0.00271351
-0.00288637
-0.00307218
-0.00327203
-0.00348703
-0.00371834
-0.00396713
-0.00423462
-0.00452207
-0.00483074
-0.00516195
-0.00551702
-0.00589728
-0.00630404
-0.0067386
-0.00720215
-0.0076958
-0.0082205
-0.00877697
-0.00936566
-0.00998667
-0.0106397
-0.0113238
-0.0120375
-0.0127786
-0.0135441
-0.01433
-0.0151312
-0.0159415
-0.0167536
-0.0175588
-0.0183471
-0.0191072
-0.0198264
-0.020491
-0.0210857
-0.0215948
-0.0220012
-0.0222877
-0.0224365
-0.0224298
-0.0222504
-0.0218816
-0.0213079
-0.0205152
-0.0194917
-0.0182278
-0.0167168
-0.0149555
-0.0129444
-0.0106882
-0.00819717
-0.00548355
-0.00256738
0.00052612
0.00376696
0.00712018
0.0105459
0.0139997
0.0174337
0.0207983
0.0240428
0.0271171
0.0299739
0.0325703
0.0348702
0.0368456
0.0384787
0.0397626
0.0407021
0.041313
0.0416221
0.0416645
0.041482
0.0411207
0.0406275
0.0400483
0.0394251
0.0387949
0.038188
0.0376282
0.0371326
0.0367129
0.0363757
0.0361245
0.0359604
0.0358827
0.0359016
0.0360027
-3.91244e-05
-2.7497e-05
-1.45056e-05
-1.16466e-06
1.18352e-05
2.35367e-05
3.3096e-05
3.97564e-05
4.28577e-05
4.18448e-05
3.62737e-05
2.58122e-05
1.02381e-05
-1.05661e-05
-3.66196e-05
-6.78517e-05
-0.000104111
-0.000145178
-0.000190778
-0.000240596
-0.000294293
-0.000351521
-0.000411927
-0.000475165
-0.000540906
-0.000608857
-0.000678786
-0.000750526
-0.000823965
-0.000899049
-0.00097578
-0.00105423
-0.00113452
-0.00121688
-0.00130157
-0.00138894
-0.00147942
-0.0015735
-0.00167172
-0.00177471
-0.00188316
-0.0019978
-0.00211942
-0.00224885
-0.00238699
-0.00253476
-0.00269311
-0.00286304
-0.00304557
-0.00324176
-0.00345269
-0.00367949
-0.00392331
-0.00418535
-0.00446683
-0.00476904
-0.00509327
-0.00544085
-0.00581315
-0.00621152
-0.00663731
-0.00709179
-0.00757618
-0.00809153
-0.00863874
-0.00921844
-0.00983091
-0.0104761
-0.0111533
-0.0118613
-0.0125983
-0.0133613
-0.0141468
-0.0149499
-0.0157646
-0.0165839
-0.0173992
-0.0182005
-0.0189767
-0.0197151
-0.0204017
-0.0210213
-0.0215579
-0.0219942
-0.0223127
-0.0224954
-0.0225242
-0.0223814
-0.0220501
-0.0215144
-0.0207601
-0.0197748
-0.0185487
-0.0170749
-0.0153498
-0.0133735
-0.0111504
-0.00869007
-0.00600493
-0.00311418
-4.25514e-05
0.0031803
0.0065198
0.00993679
0.0133871
0.016823
0.0201949
0.0234522
0.0265444
0.0294237
0.0320466
0.034376
0.0363831
0.038049
0.0393656
0.0403369
0.0409781
0.0413154
0.0413837
0.041225
0.0408855
0.0404126
0.0398527
0.0392482
0.0386362
0.0380471
0.0375043
0.0370247
0.036619
0.0362933
0.0360504
0.0358913
0.0358157
0.0358358
0.0359388
-4.91501e-05
-3.56981e-05
-2.15785e-05
-7.79596e-06
5.25777e-06
1.67475e-05
2.59348e-05
3.21436e-05
3.47731e-05
3.33111e-05
2.7343e-05
1.65562e-05
7.40593e-07
-2.02144e-05
-4.63253e-05
-7.75212e-05
-0.000113653
-0.000154505
-0.000199808
-0.000249251
-0.000302504
-0.000359224
-0.000419066
-0.00048169
-0.000546771
-0.000614024
-0.000683221
-0.000754199
-0.000826851
-0.000901122
-0.000977017
-0.0010546
-0.001134
-0.00121543
-0.00129914
-0.00138549
-0.00147487
-0.00156777
-0.00166473
-0.00176633
-0.00187326
-0.00198622
-0.00210599
-0.00223336
-0.00236921
-0.00251443
-0.00266994
-0.0028367
-0.00301572
-0.00320802
-0.00341466
-0.00363673
-0.00387536
-0.00413175
-0.0044071
-0.00470269
-0.00501983
-0.0053599
-0.00572428
-0.00611439
-0.00653166
-0.00697749
-0.00745321
-0.00796005
-0.00849909
-0.00907119
-0.00967688
-0.0103163
-0.0109892
-0.0116946
-0.0124309
-0.0131956
-0.0139853
-0.0147954
-0.0156202
-0.0164528
-0.0172846
-0.0181059
-0.0189053
-0.01967
-0.020386
-0.0210378
-0.021609
-0.0220822
-0.0224393
-0.0226619
-0.0227317
-0.0226307
-0.0223413
-0.0218476
-0.0211349
-0.0201905
-0.0190044
-0.0175693
-0.0158813
-0.0139402
-0.0117501
-0.00931973
-0.00666175
-0.00379462
-0.000742431
0.00246556
0.00579512
0.00920777
0.0126598
0.0161036
0.0194896
0.022767
0.0258852
0.0287956
0.031454
0.0338222
0.03587
0.0375774
0.0389351
0.0399458
0.0406239
0.0409947
0.0410931
0.0409609
0.0406447
0.0401925
0.0396512
0.0390639
0.038468
0.0378944
0.0373663
0.0369002
0.0365065
0.0361906
0.0359548
0.0357998
0.0357256
0.0357452
0.0358471
-5.93762e-05
-4.40439e-05
-2.86754e-05
-1.42922e-05
-1.01362e-06
1.04304e-05
1.93955e-05
2.52799e-05
2.75395e-05
2.57038e-05
1.93885e-05
8.30252e-06
-7.74997e-06
-2.88703e-05
-5.50693e-05
-8.62735e-05
-0.000122333
-0.000163033
-0.000208106
-0.000257246
-0.000310125
-0.000366405
-0.000425747
-0.000487812
-0.000552281
-0.000618872
-0.000687362
-0.00075759
-0.000829452
-0.000902895
-0.000977921
-0.00105459
-0.00113304
-0.00121345
-0.0012961
-0.00138131
-0.00146947
-0.00156106
-0.00165659
-0.00175666
-0.0018619
-0.001973
-0.00209072
-0.00221584
-0.0023492
-0.00249165
-0.00264411
-0.0028075
-0.0029828
-0.003171
-0.00337314
-0.00359029
-0.00382357
-0.00407415
-0.00434325
-0.00463215
-0.0049422
-0.00527481
-0.00563143
-0.00601357
-0.00642277
-0.00686056
-0.00732847
-0.00782792
-0.00836023
-0.00892651
-0.0095276
-0.010164
-0.0108357
-0.0115421
-0.0122819
-0.013053
-0.0138521
-0.0146751
-0.0155163
-0.0163689
-0.0172245
-0.018073
-0.0189032
-0.0197019
-0.0204549
-0.0211463
-0.0217592
-0.0222759
-0.0226779
-0.0229463
-0.0230623
-0.0230075
-0.0227642
-0.0223158
-0.0216474
-0.0207462
-0.0196017
-0.0182065
-0.0165562
-0.0146506
-0.0124932
-0.0100923
-0.00746039
-0.00461533
-0.00158056
0.00161521
0.00493814
0.00835031
0.0118087
0.0152657
0.0186719
0.0219764
0.0251281
0.0280779
0.0307805
0.0331966
0.0352947
0.0370529
0.0384607
0.0395192
0.0402417
0.0406527
0.0407865
0.0406849
0.0403948
0.0399647
0.0394424
0.0388717
0.0382907
0.0377307
0.0372152
0.0367606
0.0363768
0.0360689
0.0358388
0.0356867
0.0356127
0.03563
0.0357279
-6.95803e-05
-5.23558e-05
-3.56616e-05
-2.0557e-05
-6.91705e-06
4.61785e-06
1.34863e-05
1.91539e-05
2.11294e-05
1.8983e-05
1.2361e-05
9.94759e-07
-1.52953e-05
-3.65988e-05
-6.29188e-05
-9.41762e-05
-0.000130218
-0.000170827
-0.000215736
-0.00026464
-0.000317212
-0.000373117
-0.000432016
-0.000493575
-0.000557474
-0.000623436
-0.000691241
-0.000760729
-0.000831797
-0.000904392
-0.000978515
-0.00105423
-0.00113165
-0.00121098
-0.00129246
-0.00137643
-0.00146326
-0.0015534
-0.00164738
-0.00174574
-0.00184912
-0.0019582
-0.0020737
-0.00219638
-0.00232705
-0.00246656
-0.00261577
-0.0027756
-0.00294699
-0.00313092
-0.00332839
-0.00354047
-0.00376826
-0.00401293
-0.00427573
-0.00455795
-0.00486099
-0.00518631
-0.00553548
-0.0059101
-0.00631187
-0.0067425
-0.00720373
-0.00769724
-0.00822461
-0.00878729
-0.00938646
-0.0100229
-0.0106971
-0.0114088
-0.012157
-0.0129398
-0.0137544
-0.0145967
-0.0154613
-0.0163412
-0.017228
-0.0181116
-0.0189803
-0.0198208
-0.0206183
-0.0213565
-0.0220181
-0.0225847
-0.0230374
-0.0233567
-0.0235236
-0.023519
-0.023325
-0.0229247
-0.0223029
-0.0214466
-0.020345
-0.0189905
-0.0173786
-0.0155086
-0.0133837
-0.0110119
-0.00840515
-0.00558095
-0.00256203
0.000623588
0.00394252
0.00735737
0.0108258
0.0143008
0.0177326
0.0210703
0.0242626
0.0272597
0.0300151
0.0324882
0.0346459
0.0364648
0.0379323
0.0390479
0.0398235
0.0402824
0.0404582
0.0403925
0.0401324
0.0397272
0.0392252
0.0386713
0.0381046
0.0375569
0.0370523
0.0366072
0.0362314
0.0359298
0.0357036
0.035553
0.0354779
0.0354908
0.035582
-7.95747e-05
-6.04768e-05
-4.24139e-05
-2.64996e-05
-1.23915e-05
-6.55466e-07
8.21939e-06
1.37591e-05
1.55212e-05
1.31151e-05
6.21731e-06
-5.41756e-06
-2.19511e-05
-4.34595e-05
-6.99352e-05
-0.000101292
-0.00013737
-0.000177949
-0.000222757
-0.000271489
-0.000323818
-0.000379408
-0.00043792
-0.00049902
-0.00056239
-0.000627753
-0.00069489
-0.000763644
-0.000833912
-0.00090564
-0.000978827
-0.00105353
-0.00112987
-0.00120804
-0.00128827
-0.00137089
-0.00145627
-0.00154485
-0.00163712
-0.00173364
-0.00183502
-0.00194191
-0.00205501
-0.00217508
-0.0023029
-0.00243928
-0.00258507
-0.00274117
-0.00290849
-0.00308798
-0.00328065
-0.00348755
-0.00370978
-0.00394851
-0.00420503
-0.00448066
-0.00477688
-0.00509523
-0.0054374
-0.00580515
-0.00620035
-0.00662495
-0.00708094
-0.00757029
-0.00809494
-0.00865668
-0.00925708
-0.00989737
-0.0105783
-0.0113001
-0.0120621
-0.0128627
-0.0136993
-0.0145679
-0.0154632
-0.0163781
-0.0173041
-0.0182307
-0.0191459
-0.0200358
-0.0208852
-0.0216772
-0.0223938
-0.0230161
-0.0235246
-0.0238995
-0.024121
-0.02417
-0.024028
-0.0236779
-0.0231044
-0.0222942
-0.0212365
-0.0199234
-0.0183502
-0.016516
-0.0144237
-0.0120807
-0.00949868
-0.00669463
-0.00369056
-0.000513709
0.00280309
0.00622296
0.00970449
0.0132011
0.0166631
0.0200397
0.023279
0.0263306
0.0291471
0.0316863
0.0339134
0.0358029
0.0373403
0.0385231
0.0393613
0.0398769
0.0401024
0.0400792
0.0398543
0.0394776
0.0389983
0.0384624
0.03791
0.0373739
0.0368787
0.0364413
0.0360717
0.0357744
0.0355505
0.0353998
0.0353218
0.0353284
0.0354105
-8.91976e-05
-6.82684e-05
-4.88215e-05
-3.20366e-05
-1.73797e-05
-5.35583e-06
3.60824e-06
9.09182e-06
1.06974e-05
8.0709e-06
9.18909e-07
-1.098e-05
-2.77683e-05
-4.95068e-05
-7.61756e-05
-0.000107678
-0.000143847
-0.000184454
-0.000229225
-0.000277848
-0.000329994
-0.000385325
-0.000443503
-0.000504189
-0.000567066
-0.000631857
-0.000698343
-0.000766367
-0.000835826
-0.000906665
-0.000978882
-0.00105253
-0.00112773
-0.00120466
-0.00128356
-0.00136473
-0.00144855
-0.00153544
-0.00162589
-0.00172042
-0.00181965
-0.0019242
-0.00203476
-0.00215206
-0.00227686
-0.00240995
-0.00255218
-0.0027044
-0.00286751
-0.00304245
-0.00323023
-0.00343187
-0.00364851
-0.00388134
-0.00413167
-0.00440092
-0.00469062
-0.00500246
-0.00533826
-0.00569998
-0.00608972
-0.0065097
-0.0069622
-0.00744956
-0.0079741
-0.00853802
-0.00914332
-0.00979165
-0.0104842
-0.0112215
-0.0120033
-0.0128283
-0.013694
-0.0145964
-0.0155302
-0.0164881
-0.0174612
-0.0184387
-0.0194081
-0.0203548
-0.021263
-0.0221151
-0.0228925
-0.0235756
-0.0241444
-0.0245786
-0.0248579
-0.0249629
-0.024875
-0.0245768
-0.0240528
-0.0232897
-0.0222765
-0.0210053
-0.0194712
-0.0176731
-0.0156135
-0.0132995
-0.0107424
-0.00795836
-0.0049688
-0.00180014
0.0015156
0.00494201
0.0084387
0.0119599
0.0154559
0.0188759
0.022168
0.025281
0.0281665
0.0307806
0.0330867
0.0350572
0.0366753
0.037936
0.0388474
0.0394295
0.0397137
0.0397406
0.0395572
0.0392138
0.0387605
0.0382445
0.0377071
0.0371822
0.0366955
0.0362644
0.0358991
0.0356042
0.0353806
0.0352281
0.0351456
0.0351441
0.0352147
-9.83139e-05
-7.56104e-05
-5.47852e-05
-3.70909e-05
-2.18268e-05
-9.44906e-06
-3.31563e-07
5.15172e-06
6.64385e-06
3.82541e-06
-3.56793e-06
-1.57333e-05
-3.27929e-05
-5.47905e-05
-8.1692e-05
-0.000113388
-0.000149702
-0.000190397
-0.00023519
-0.000283764
-0.000335786
-0.000390915
-0.000448805
-0.00050912
-0.000571538
-0.000635781
-0.000701629
-0.000768926
-0.000837566
-0.000907495
-0.000978708
-0.00105126
-0.00112525
-0.00120088
-0.00127836
-0.001358
-0.00144015
-0.00152524
-0.00161373
-0.00170616
-0.0018031
-0.00190517
-0.00201304
-0.00212743
-0.00224907
-0.00237874
-0.00251727
-0.00266548
-0.00282428
-0.00299459
-0.0031774
-0.00337378
-0.00358486
-0.00381189
-0.00405624
-0.00431939
-0.00460302
-0.00490896
-0.00523921
-0.00559596
-0.0059816
-0.00639866
-0.00684978
-0.00733771
-0.00786519
-0.00843487
-0.00904923
-0.00971037
-0.0104199
-0.0111788
-0.0119869
-0.0128433
-0.0137455
-0.0146895
-0.0156697
-0.0166786
-0.0177068
-0.018743
-0.0197739
-0.0207843
-0.0217576
-0.0226755
-0.0235187
-0.024267
-0.0248996
-0.025396
-0.0257356
-0.0258985
-0.025866
-0.0256208
-0.0251472
-0.0244318
-0.0234637
-0.0222349
-0.0207404
-0.0189789
-0.0169527
-0.0146683
-0.0121366
-0.00937311
-0.00639847
-0.00323819
7.66664e-05
0.00351035
0.00702338
0.0105709
0.0141039
0.0175713
0.0209213
0.024102
0.0270638
0.0297615
0.0321564
0.0342184
0.0359282
0.0372783
0.038274
0.0389334
0.0392862
0.039372
0.0392375
0.0389333
0.0385103
0.038017
0.037496
0.0369826
0.0365036
0.0360774
0.0357147
0.0354203
0.0351952
0.0350389
0.0349501
0.0349389
0.0349961
-0.000106807
-8.23978e-05
-6.02162e-05
-4.15927e-05
-2.56823e-05
-1.2903e-05
-3.58443e-06
1.93989e-06
3.34943e-06
3.5712e-07
-7.27318e-06
-1.97141e-05
-3.70666e-05
-5.93562e-05
-8.65324e-05
-0.000118472
-0.000154986
-0.000195826
-0.000240701
-0.000289285
-0.00034124
-0.000396216
-0.000453867
-0.00051385
-0.00057584
-0.000639556
-0.000704779
-0.000771349
-0.000839162
-0.000908159
-0.000978334
-0.00104974
-0.00112248
-0.00119672
-0.00127271
-0.00135072
-0.00143112
-0.0015143
-0.00160073
-0.00169092
-0.00178545
-0.00188492
-0.00198998
-0.00210132
-0.00221968
-0.00234581
-0.00248051
-0.00262463
-0.00277903
-0.00294466
-0.00312251
-0.00331365
-0.00351928
-0.00374069
-0.00397933
-0.00423682
-0.00451495
-0.00481576
-0.00514147
-0.00549457
-0.00587774
-0.00629388
-0.00674608
-0.00723752
-0.00777141
-0.00835093
-0.008979
-0.00965822
-0.0103906
-0.0111774
-0.0120189
-0.012914
-0.0138604
-0.0148539
-0.0158886
-0.0169564
-0.0180475
-0.0191496
-0.0202489
-0.0213292
-0.0223732
-0.0233618
-0.0242749
-0.0250917
-0.0257911
-0.0263519
-0.0267533
-0.0269755
-0.0269994
-0.0268078
-0.0263851
-0.0257179
-0.0247955
-0.0236096
-0.0221555
-0.0204314
-0.0184394
-0.0161858
-0.0136806
-0.0109389
-0.00798026
-0.00482934
-0.00151602
0.00192481
0.00545452
0.00902943
0.0126013
0.0161193
0.0195314
0.0227853
0.0258304
0.0286199
0.0311131
0.0332773
0.0350902
0.0365415
0.0376335
0.0383819
0.0388142
0.0389688
0.0388916
0.0386334
0.038246
0.0377789
0.0372764
0.0367753
0.0363037
0.0358813
0.0355195
0.0352238
0.0349953
0.0348333
0.0347366
0.0347139
0.0347561
-0.000114582
-8.85401e-05
-6.50353e-05
-4.54778e-05
-2.88981e-05
-1.56854e-05
-6.1332e-06
-5.39969e-07
8.06175e-07
-2.35175e-06
-1.02227e-05
-2.29547e-05
-4.06267e-05
-6.32445e-05
-9.074e-05
-0.000122974
-0.000159743
-0.000200787
-0.000245801
-0.000294453
-0.000346393
-0.000401268
-0.000458724
-0.000518411
-0.000580002
-0.000643212
-0.00070782
-0.000773664
-0.000840638
-0.000908681
-0.000977786
-0.001048
-0.00111943
-0.00119224
-0.00126665
-0.00134296
-0.0014215
-0.00150267
-0.00158694
-0.00167479
-0.00176679
-0.00186354
-0.00196567
-0.00207386
-0.00218882
-0.00231131
-0.00244211
-0.00258206
-0.00273203
-0.00289296
-0.00306588
-0.00325189
-0.00345223
-0.00366829
-0.00390161
-0.00415397
-0.00442734
-0.00472397
-0.00504637
-0.00539735
-0.00577997
-0.00619755
-0.00665364
-0.00715192
-0.00769614
-0.00828998
-0.00893688
-0.00963989
-0.0104014
-0.011223
-0.012105
-0.0130466
-0.014045
-0.015096
-0.0161929
-0.0173273
-0.0184884
-0.0196633
-0.0208371
-0.0219929
-0.0231123
-0.0241756
-0.0251619
-0.0260499
-0.026818
-0.0274446
-0.027909
-0.0281911
-0.0282719
-0.0281343
-0.0277629
-0.0271444
-0.0262681
-0.0251259
-0.023713
-0.0220274
-0.0200711
-0.0178497
-0.0153728
-0.0126545
-0.0097137
-0.00657381
-0.00326347
0.000183487
0.00372935
0.00733178
0.0109436
0.0145142
0.0179919
0.0213238
0.0244586
0.0273477
0.0299483
0.0322251
0.0341527
0.0357174
0.0369184
0.0377681
0.0382918
0.0385259
0.0385156
0.0383113
0.0379656
0.0375291
0.0370479
0.0365603
0.0360963
0.0356768
0.0353146
0.0350157
0.0347817
0.0346123
0.0345059
0.0344701
0.0344961
-0.000121555
-9.3958e-05
-6.91717e-05
-4.86881e-05
-3.14302e-05
-1.77666e-05
-7.96122e-06
-2.28329e-06
-9.9188e-07
-4.31622e-06
-1.24389e-05
-2.54835e-05
-4.35064e-05
-6.64923e-05
-9.43539e-05
-0.000126935
-0.000164014
-0.000205318
-0.00025053
-0.000299305
-0.000351284
-0.000406106
-0.000463407
-0.000522834
-0.000584053
-0.000646777
-0.000710778
-0.000775895
-0.00084202
-0.000909089
-0.000977093
-0.00104608
-0.00111614
-0.00118745
-0.00126022
-0.00133474
-0.00141135
-0.00149043
-0.00157243
-0.00165785
-0.00174722
-0.00184114
-0.00194024
-0.00204517
-0.00215666
-0.00227542
-0.00240226
-0.002538
-0.00268352
-0.0028398
-0.00300786
-0.0031889
-0.0033842
-0.00359527
-0.00382378
-0.00407167
-0.00434116
-0.00463476
-0.0049553
-0.00530596
-0.00569023
-0.00611192
-0.00657508
-0.00708394
-0.0076428
-0.00825589
-0.00892715
-0.00966006
-0.0104574
-0.0113208
-0.0122509
-0.0132466
-0.0143049
-0.015421
-0.0165878
-0.017796
-0.0190338
-0.0202875
-0.0215412
-0.0227771
-0.0239758
-0.0251168
-0.0261788
-0.0271398
-0.0279778
-0.0286711
-0.029199
-0.0295412
-0.0296792
-0.0295958
-0.029276
-0.0287065
-0.027877
-0.0267793
-0.0254087
-0.0237631
-0.0218441
-0.0196568
-0.0172103
-0.0145178
-0.011597
-0.00847046
-0.00516529
-0.00171401
0.00184668
0.00547594
0.00912775
0.0127523
0.0162979
0.0197118
0.0229416
0.0259374
0.0286542
0.0310538
0.0331075
0.0347981
0.0361209
0.0370851
0.0377128
0.0380383
0.0381051
0.0379636
0.0376667
0.0372661
0.0368095
0.0363373
0.0358814
0.0354644
0.0351005
0.0347968
0.0345554
0.0343766
0.034259
0.0342086
0.0342174
-0.000127657
-9.85826e-05
-7.25623e-05
-5.11703e-05
-3.32364e-05
-1.91164e-05
-9.05048e-06
-3.28313e-06
-2.04776e-06
-5.54786e-06
-1.39406e-05
-2.73253e-05
-4.57348e-05
-6.91319e-05
-9.74089e-05
-0.00013039
-0.000167836
-0.000209458
-0.000254924
-0.000303876
-0.000355945
-0.000410759
-0.000467947
-0.000527147
-0.00058802
-0.000650273
-0.000713677
-0.000778066
-0.00084333
-0.000909406
-0.000976279
-0.00104399
-0.00111265
-0.0011824
-0.00125347
-0.00132614
-0.00140073
-0.00147763
-0.00155728
-0.00164017
-0.00172682
-0.00181783
-0.00191381
-0.00201541
-0.00212334
-0.00223833
-0.00236117
-0.00249269
-0.0026338
-0.00278549
-0.00294885
-0.00312512
-0.00331572
-0.00352224
-0.00374656
-0.00399081
-0.00425748
-0.00454938
-0.00486974
-0.00522214
-0.00561057
-0.00603935
-0.00651311
-0.00703666
-0.00761486
-0.0082525
-0.00895401
-0.00972326
-0.0105633
-0.0114759
-0.0124616
-0.0135191
-0.0146449
-0.0158336
-0.0170773
-0.0183658
-0.0196864
-0.0210242
-0.0223623
-0.0236819
-0.0249629
-0.026184
-0.0273232
-0.0283582
-0.0292667
-0.0300271
-0.0306184
-0.0310208
-0.0312159
-0.0311868
-0.0309186
-0.0303987
-0.0296165
-0.0285644
-0.0272373
-0.0256333
-0.0237535
-0.0216027
-0.019189
-0.0165249
-0.0136271
-0.0105167
-0.00721949
-0.00376645
-0.000192973
0.00346155
0.00715251
0.010831
0.0144461
0.0179448
0.0212742
0.0243829
0.0272238
0.0297558
0.0319469
0.0337757
0.0352337
0.0363258
0.0370708
0.0375002
0.0376557
0.0375868
0.0373465
0.0369879
0.0365602
0.0361059
0.0356591
0.0352443
0.0348777
0.0345675
0.034317
0.0341268
0.0339967
0.0339303
0.033921
-0.000132828
-0.000102353
-7.51506e-05
-5.28755e-05
-3.42784e-05
-1.9707e-05
-9.38362e-06
-3.53197e-06
-2.36287e-06
-6.05585e-06
-1.47437e-05
-2.85011e-05
-4.73373e-05
-7.11922e-05
-9.99357e-05
-0.000133371
-0.000171241
-0.000213238
-0.000259013
-0.000308197
-0.000360405
-0.000415256
-0.000472368
-0.000531373
-0.000591924
-0.000653723
-0.000716537
-0.000780198
-0.000844591
-0.000909653
-0.000975369
-0.00104178
-0.00110898
-0.00117712
-0.00124643
-0.00131718
-0.00138968
-0.00146433
-0.00154155
-0.00162183
-0.0017057
-0.00179372
-0.0018865
-0.00198471
-0.00208904
-0.00220022
-0.00231905
-0.00244637
-0.00258314
-0.00273036
-0.00288922
-0.00306103
-0.00324732
-0.00344986
-0.00367072
-0.0039123
-0.00417737
-0.00446913
-0.00479121
-0.00514768
-0.00554306
-0.00598226
-0.00647049
-0.00701318
-0.00761578
-0.00828361
-0.00902155
-0.00983382
-0.0107236
-0.0116928
-0.0127416
-0.0138683
-0.0150689
-0.0163372
-0.0176644
-0.0190391
-0.0204475
-0.0218739
-0.0232999
-0.0247062
-0.0260716
-0.0273741
-0.0285913
-0.0297007
-0.0306798
-0.031507
-0.0321616
-0.0326238
-0.0328757
-0.0329007
-0.0326845
-0.0322144
-0.0314803
-0.0304747
-0.0291926
-0.027632
-0.0257936
-0.0236815
-0.0213035
-0.0186708
-0.0157992
-0.0127083
-0.00942242
-0.00597083
-0.00238741
0.00128992
0.00501825
0.00875008
0.0124348
0.0160201
0.0194524
0.0226792
0.0256512
0.0283246
0.0306637
0.0326429
0.0342492
0.0354831
0.0363593
0.0369059
0.0371623
0.0371767
0.0370021
0.0366923
0.0362984
0.0358651
0.0354287
0.0350165
0.0346463
0.0343282
0.034067
0.0338637
0.0337194
0.0336358
0.033608
-0.000137018
-0.000105216
-7.68849e-05
-5.37585e-05
-3.45185e-05
-1.951e-05
-8.9417e-06
-3.02001e-06
-1.93578e-06
-5.84615e-06
-1.48603e-05
-2.90285e-05
-4.83357e-05
-7.26975e-05