/*--------------------------------*- C++ -*----------------------------------*\
  =========                 |
  \\      /  F ield         | OpenFOAM: The Open Source CFD Toolbox
   \\    /   O peration     | Website:  https://openfoam.org
    \\  /    A nd           | Version:  12
     \\/     M anipulation  |
\*---------------------------------------------------------------------------*/
FoamFile
{
    format      ascii;
    class       surfaceScalarField;
    location    "1.5";
    object      phi;
}
// * * * * * * * * * * * * * * * * * * * * * * * * * * * * * * * * * * * * * //

dimensions      [0 3 -1 0 0 0 0];

internalField   nonuniform List<scalar> 
11100
(
-2.44932e-11
2.17016e-11
-4.95654e-11
2.5216e-11
-5.23931e-11
2.62902e-12
-2.23611e-11
-3.0016e-11
4.48529e-11
-6.73824e-11
1.50914e-10
-1.06069e-10
2.94967e-10
-1.4417e-10
4.74955e-10
-1.79991e-10
6.87714e-10
-2.12843e-10
9.29826e-10
-2.42107e-10
1.19745e-09
-2.67674e-10
1.48684e-09
-2.89389e-10
1.79418e-09
-3.07373e-10
2.11586e-09
-3.21667e-10
2.4483e-09
-3.32468e-10
2.78821e-09
-3.39895e-10
3.13236e-09
-3.44167e-10
3.4778e-09
-3.4543e-10
3.82169e-09
-3.43898e-10
4.16143e-09
-3.39727e-10
4.49454e-09
-3.33119e-10
4.81878e-09
-3.24229e-10
5.13202e-09
-3.13242e-10
5.43233e-09
-3.00311e-10
5.71794e-09
-2.85604e-10
5.98721e-09
-2.69268e-10
6.23867e-09
-2.51458e-10
6.47098e-09
-2.32313e-10
6.68297e-09
-2.11977e-10
6.87355e-09
-1.90581e-10
7.04181e-09
-1.68259e-10
7.18694e-09
-1.45136e-10
7.30829e-09
-1.21338e-10
7.40527e-09
-9.69854e-11
7.47748e-09
-7.2197e-11
7.52457e-09
-4.70913e-11
7.54636e-09
-2.17815e-11
7.54274e-09
3.61483e-12
7.51377e-09
2.8987e-11
7.45955e-09
5.42175e-11
7.38036e-09
7.9196e-11
7.27656e-09
1.03802e-10
7.14865e-09
1.27924e-10
6.99721e-09
1.51438e-10
6.82299e-09
1.74231e-10
6.62681e-09
1.96172e-10
6.40968e-09
2.17142e-10
6.17268e-09
2.37006e-10
5.91705e-09
2.55638e-10
5.64415e-09
2.72895e-10
5.35552e-09
2.88642e-10
5.05279e-09
3.02729e-10
4.73779e-09
3.15012e-10
4.41246e-09
3.25328e-10
4.07895e-09
3.33527e-10
3.73951e-09
3.39437e-10
3.39663e-09
3.42896e-10
3.0529e-09
3.43725e-10
2.71115e-09
3.41758e-10
2.37434e-09
3.36811e-10
2.04563e-09
3.28721e-10
1.72833e-09
3.17312e-10
1.4259e-09
3.02439e-10
1.14194e-09
2.83962e-10
8.80156e-10
2.61798e-10
6.44256e-10
2.35908e-10
4.37899e-10
2.06369e-10
2.64506e-10
1.73403e-10
1.27033e-10
1.37486e-10
2.75733e-11
9.94737e-11
-3.32392e-11
6.08252e-11
-5.71396e-11
2.39171e-11
-4.97069e-11
-7.41583e-12
-2.28437e-11
-2.68466e-11
-2.2841e-11
1.72612e-13
2.16622e-11
3.73736e-11
-1.1787e-11
1.37416e-10
-9.73853e-11
3.14839e-10
-2.0735e-10
5.76256e-10
-3.28827e-10
9.23862e-10
-4.53632e-10
1.35591e-09
-5.76259e-10
1.8684e-09
-6.92459e-10
2.45527e-09
-7.9975e-10
3.10953e-09
-8.96341e-10
3.82322e-09
-9.81397e-10
4.58822e-09
-1.05437e-09
5.39604e-09
-1.11521e-09
6.23838e-09
-1.16399e-09
7.10694e-09
-1.20104e-09
7.99377e-09
-1.2267e-09
8.89109e-09
-1.24149e-09
9.79157e-09
-1.24589e-09
1.06881e-08
-1.24047e-09
1.15742e-08
-1.22578e-09
1.24435e-08
-1.20239e-09
1.32901e-08
-1.17087e-09
1.41087e-08
-1.13179e-09
1.48941e-08
-1.08571e-09
1.56417e-08
-1.03317e-09
1.63471e-08
-9.747e-10
1.70065e-08
-9.10835e-10
1.76162e-08
-8.42078e-10
1.81732e-08
-7.68928e-10
1.86745e-08
-6.91868e-10
1.91176e-08
-6.11373e-10
1.95004e-08
-5.27903e-10
1.9821e-08
-4.41912e-10
2.00778e-08
-3.53845e-10
2.02698e-08
-2.64138e-10
2.03959e-08
-1.73223e-10
2.04556e-08
-8.15271e-11
2.04487e-08
1.05243e-11
2.03752e-08
1.0251e-10
2.02354e-08
1.94004e-10
2.00301e-08
2.84584e-10
1.976e-08
3.73819e-10
1.94267e-08
4.6128e-10
1.90316e-08
5.46525e-10
1.85767e-08
6.29114e-10
1.80643e-08
7.08589e-10
1.7497e-08
7.84492e-10
1.68776e-08
8.56349e-10
1.62096e-08
9.23681e-10
1.54965e-08
9.85991e-10
1.47424e-08
1.04278e-09
1.39516e-08
1.09353e-09
1.31289e-08
1.13771e-09
1.22794e-08
1.1748e-09
1.14087e-08
1.20424e-09
1.05227e-08
1.22548e-09
9.6276e-09
1.23799e-09
8.73012e-09
1.2412e-09
7.8373e-09
1.23459e-09
6.9565e-09
1.21762e-09
6.0954e-09
1.18983e-09
5.26195e-09
1.15077e-09
4.46431e-09
1.10009e-09
3.71072e-09
1.03756e-09
3.00941e-09
9.63114e-10
2.36842e-09
8.76909e-10
1.79533e-09
7.79472e-10
1.29694e-09
6.71807e-10
8.78807e-10
5.55632e-10
5.44623e-10
4.33669e-10
2.95384e-10
3.10077e-10
1.28271e-10
1.91041e-10
3.51775e-11
8.56958e-11
6.08818e-13
7.73835e-12
-2.22294e-11
4.14694e-11
-1.96909e-11
1.81076e-10
-1.51249e-10
4.2957e-10
-3.45808e-10
7.94404e-10
-5.72091e-10
1.2785e-09
-8.129e-10
1.8815e-09
-1.05657e-09
2.5996e-09
-1.29436e-09
3.42684e-09
-1.51965e-09
4.35508e-09
-1.728e-09
5.37503e-09
-1.91626e-09
6.47623e-09
-2.0826e-09
7.64774e-09
-2.22586e-09
8.87816e-09
-2.34564e-09
1.01561e-08
-2.4419e-09
1.14701e-08
-2.51501e-09
1.28089e-08
-2.56554e-09
1.41617e-08
-2.59428e-09
1.55179e-08
-2.60209e-09
1.68674e-08
-2.58997e-09
1.82006e-08
-2.55896e-09
1.95084e-08
-2.51014e-09
2.07821e-08
-2.44459e-09
2.20137e-08
-2.36342e-09
2.31958e-08
-2.26773e-09
2.43212e-08
-2.15862e-09
2.53837e-08
-2.03715e-09
2.63772e-08
-1.90438e-09
2.72965e-08
-1.76136e-09
2.81367e-08
-1.60911e-09
2.88935e-08
-1.44862e-09
2.9563e-08
-1.28087e-09
3.01419e-08
-1.10682e-09
3.06274e-08
-9.2742e-10
3.10171e-08
-7.43596e-10
3.13093e-08
-5.56268e-10
3.15024e-08
-3.6634e-10
3.15956e-08
-1.74716e-10
3.15884e-08
1.77114e-11
3.14809e-08
2.10046e-10
3.12735e-08
4.01394e-10
3.09672e-08
5.90856e-10
3.05635e-08
7.77527e-10
3.00643e-08
9.60493e-10
2.9472e-08
1.13883e-09
2.87895e-08
1.3116e-09
2.80203e-08
1.47784e-09
2.71682e-08
1.6366e-09
2.62376e-08
1.78689e-09
2.52336e-08
1.92769e-09
2.41616e-08
2.05799e-09
2.30277e-08
2.17676e-09
2.18383e-08
2.28293e-09
2.06006e-08
2.37544e-09
1.93221e-08
2.45321e-09
1.80112e-08
2.51517e-09
1.66765e-08
2.56023e-09
1.53271e-08
2.58734e-09
1.39729e-08
2.59545e-09
1.26239e-08
2.58358e-09
1.12908e-08
2.55079e-09
9.98432e-09
2.49627e-09
8.71578e-09
2.41932e-09
7.49645e-09
2.31943e-09
6.33766e-09
2.19636e-09
5.25056e-09
2.05022e-09
4.24589e-09
1.88159e-09
3.33371e-09
1.69167e-09
2.52301e-09
1.48252e-09
1.82133e-09
1.25733e-09
1.23419e-09
1.02082e-09
7.64578e-10
7.79698e-10
4.12311e-10
5.43326e-10
1.73421e-10
3.24601e-10
3.99261e-11
1.41249e-10
1.76994e-11
8.23199e-11
-1.01954e-10
3.25482e-10
-3.94336e-10
7.26651e-10
-7.46934e-10
1.28386e-09
-1.12924e-09
1.99345e-09
-1.52247e-09
2.84998e-09
-1.91307e-09
3.84596e-09
-2.29032e-09
4.97233e-09
-2.64599e-09
6.21847e-09
-2.97414e-09
7.57273e-09
-3.2705e-09
9.02246e-09
-3.53232e-09
1.05545e-08
-3.75789e-09
1.21553e-08
-3.94641e-09
1.38111e-08
-4.09771e-09
1.55083e-08
-4.21219e-09
1.72333e-08
-4.29057e-09
1.8973e-08
-4.33395e-09
2.07145e-08
-4.34358e-09
2.24455e-08
-4.32095e-09
2.41541e-08
-4.26759e-09
2.58292e-08
-4.18517e-09
2.746e-08
-4.07537e-09
2.90365e-08
-3.93994e-09
3.05494e-08
-3.78059e-09
3.19898e-08
-3.59909e-09
3.33498e-08
-3.39713e-09
3.46219e-08
-3.17645e-09
3.57993e-08
-2.93873e-09
3.68758e-08
-2.68562e-09
3.78459e-08
-2.41876e-09
3.87048e-08
-2.13976e-09
3.94482e-08
-1.8502e-09
4.00724e-08
-1.55165e-09
4.05745e-08
-1.24565e-09
4.0952e-08
-9.33716e-10
4.1203e-08
-6.17364e-10
4.13264e-08
-2.98094e-10
4.13215e-08
2.25973e-11
4.11883e-08
3.43215e-10
4.09275e-08
6.62261e-10
4.05401e-08
9.78231e-10
4.0028e-08
1.28961e-09
3.93936e-08
1.59487e-09
3.864e-08
1.89246e-09
3.77708e-08
2.18081e-09
3.67903e-08
2.45834e-09
3.57035e-08
2.72344e-09
3.45159e-08
2.97447e-09
3.32338e-08
3.20976e-09
3.18642e-08
3.42764e-09
3.04146e-08
3.6264e-09
2.88932e-08
3.80432e-09
2.73089e-08
3.95967e-09
2.56714e-08
4.09073e-09
2.39908e-08
4.19576e-09
2.2278e-08
4.27307e-09
2.05443e-08
4.321e-09
1.88018e-08
4.33797e-09
1.7063e-08
4.32246e-09
1.53406e-08
4.27313e-09
1.36481e-08
4.18878e-09
1.1999e-08
4.06847e-09
1.04068e-08
3.91158e-09
8.8853e-09
3.7179e-09
7.44779e-09
3.48774e-09
6.10726e-09
3.22213e-09
4.876e-09
2.92294e-09
3.76532e-09
2.59321e-09
2.7853e-09
2.23737e-09
1.94446e-09
1.86166e-09
1.24957e-09
1.4746e-09
7.05415e-10
1.08749e-09
3.14889e-10
7.15145e-10
7.93575e-11
3.76797e-10
9.70598e-11
1.17884e-10
-2.19817e-10
4.55582e-10
-7.32e-10
9.99741e-10
-1.29108e-09
1.73949e-09
-1.86896e-09
2.66403e-09
-2.447e-09
3.76212e-09
-3.01113e-09
5.02164e-09
-3.54984e-09
6.42977e-09
-4.05409e-09
7.97276e-09
-4.51712e-09
9.63627e-09
-4.93399e-09
1.14053e-08
-5.30136e-09
1.32646e-08
-5.61714e-09
1.51985e-08
-5.88032e-09
1.71914e-08
-6.09065e-09
1.92279e-08
-6.24862e-09
2.12925e-08
-6.3552e-09
2.33704e-08
-6.41179e-09
2.54469e-08
-6.42009e-09
2.7508e-08
-6.38208e-09
2.95403e-08
-6.29987e-09
3.15309e-08
-6.17576e-09
3.34676e-08
-6.01208e-09
3.53389e-08
-5.81125e-09
3.71341e-08
-5.57573e-09
3.88429e-08
-5.30796e-09
4.04562e-08
-5.01039e-09
4.19652e-08
-4.68548e-09
4.33621e-08
-4.33563e-09
4.46398e-08
-3.96324e-09
4.57917e-08
-3.57065e-09
4.68121e-08
-3.16021e-09
4.76961e-08
-2.73421e-09
4.84394e-08
-2.29492e-09
4.90383e-08
-1.84458e-09
4.949e-08
-1.38543e-09
4.97923e-08
-9.19668e-10
4.99438e-08
-4.49503e-10
4.99435e-08
2.28721e-11
4.97914e-08
4.95261e-10
4.94882e-08
9.6546e-10
4.90352e-08
1.43126e-09
4.84344e-08
1.89042e-09
4.76886e-08
2.3407e-09
4.68012e-08
2.77982e-09
4.57766e-08
3.20548e-09
4.46196e-08
3.61535e-09
4.3336e-08
4.00706e-09
4.19322e-08
4.37821e-09
4.04156e-08
4.7264e-09
3.87941e-08
5.04915e-09
3.70765e-08
5.34402e-09
3.52723e-08
5.60851e-09
3.33918e-08
5.84013e-09
3.14461e-08
6.03642e-09
2.94469e-08
6.19493e-09
2.74068e-08
6.31326e-09
2.53387e-08
6.38909e-09
2.32564e-08
6.42022e-09
2.11743e-08
6.4046e-09
1.91071e-08
6.34038e-09
1.70699e-08
6.22598e-09
1.50782e-08
6.06018e-09
1.31476e-08
5.8422e-09
1.12937e-08
5.57178e-09
9.53205e-09
5.2494e-09
7.87782e-09
4.87637e-09
6.34571e-09
4.45506e-09
4.94978e-09
3.98915e-09
3.70327e-09
3.48388e-09
2.61852e-09
2.94642e-09
1.70694e-09
2.3862e-09
9.79095e-10
1.81536e-09
4.44999e-10
1.24926e-09
1.14782e-10
7.07032e-10
2.11845e-10
1.48446e-10
-3.68253e-10
5.70007e-10
-1.15354e-09
1.24365e-09
-1.96471e-09
2.15107e-09
-2.77636e-09
3.27494e-09
-3.57087e-09
4.59837e-09
-4.33453e-09
6.10444e-09
-5.05591e-09
7.77623e-09
-5.72587e-09
9.59654e-09
-6.33743e-09
1.1548e-08
-6.88546e-09
1.36131e-08
-7.36645e-09
1.57742e-08
-7.77824e-09
1.80137e-08
-8.11982e-09
2.03142e-08
-8.3911e-09
2.26583e-08
-8.59277e-09
2.50293e-08
-8.72615e-09
2.74106e-08
-8.79307e-09
2.97862e-08
-8.79573e-09
3.21408e-08
-8.73668e-09
3.44597e-08
-8.61868e-09
3.67286e-08
-8.44469e-09
3.89343e-08
-8.21776e-09
4.10641e-08
-7.94106e-09
4.31062e-08
-7.6178e-09
4.50494e-08
-7.2512e-09
4.68835e-08
-6.84451e-09
4.8599e-08
-6.40096e-09
5.01871e-08
-5.92374e-09
5.16399e-08
-5.41604e-09
5.29503e-08
-4.881e-09
5.41118e-08
-4.32174e-09
5.51189e-08
-3.74132e-09
5.59668e-08
-3.1428e-09
5.66514e-08
-2.5292e-09
5.71695e-08
-1.90351e-09
5.75186e-08
-1.26871e-09
5.76968e-08
-6.2777e-10
5.77034e-08
1.63341e-11
5.7538e-08
6.60633e-10
5.72013e-08
1.30214e-09
5.66947e-08
1.93786e-09
5.60204e-08
2.56477e-09
5.51813e-08
3.17981e-09
5.41812e-08
3.77989e-09
5.30248e-08
4.3619e-09
5.17175e-08
4.92267e-09
5.02655e-08
5.459e-09
4.86761e-08
5.96766e-09
4.69571e-08
6.44536e-09
4.51175e-08
6.88882e-09
4.31668e-08
7.29471e-09
4.11156e-08
7.65971e-09
3.89752e-08
7.98048e-09
3.67579e-08
8.25374e-09
3.44766e-08
8.47623e-09
3.21451e-08
8.6448e-09
2.97778e-08
8.75639e-09
2.73899e-08
8.80811e-09
2.49972e-08
8.7973e-09
2.2616e-08
8.72154e-09
2.02632e-08
8.57879e-09
1.7956e-08
8.36744e-09
1.57118e-08
8.08644e-09
1.35482e-08
7.73537e-09
1.14829e-08
7.31467e-09
9.53359e-09
6.82572e-09
7.71758e-09
6.27108e-09
6.05205e-09
5.6547e-09
4.5538e-09
4.98215e-09
3.23932e-09
4.26091e-09
2.12486e-09
3.50067e-09
1.22663e-09
2.71359e-09
5.61154e-10
1.91475e-09
1.45812e-10
1.12239e-09
3.57659e-10
1.75108e-10
-5.43354e-10
6.7128e-10
-1.6497e-09
1.46175e-09
-2.75517e-09
2.52223e-09
-3.83682e-09
3.82977e-09
-4.87841e-09
5.36231e-09
-5.86706e-09
7.09837e-09
-6.79196e-09
9.0169e-09
-7.64439e-09
1.10971e-08
-8.41765e-09
1.33185e-08
-9.10685e-09
1.56608e-08
-9.70873e-09
1.8104e-08
-1.02214e-08
2.06282e-08
-1.06441e-08
2.32142e-08
-1.09771e-08
2.5843e-08
-1.12216e-08
2.84963e-08
-1.13794e-08
3.11561e-08
-1.14529e-08
3.38052e-08
-1.14448e-08
3.64271e-08
-1.13586e-08
3.90059e-08
-1.11975e-08
4.15266e-08
-1.09654e-08
4.39748e-08
-1.0666e-08
4.63371e-08
-1.03033e-08
4.86007e-08
-9.88142e-09
5.07538e-08
-9.40434e-09
5.27855e-08
-8.87614e-09
5.46854e-08
-8.30089e-09
5.64443e-08
-7.68263e-09
5.80536e-08
-7.02536e-09
5.95057e-08
-6.33307e-09
6.07936e-08
-5.60968e-09
6.19114e-08
-4.8591e-09
6.28538e-08
-4.08518e-09
6.36164e-08
-3.29178e-09
6.41956e-08
-2.48269e-09
6.45886e-08
-1.66172e-09
6.47935e-08
-8.32658e-10
6.48091e-08
7.04388e-13
6.46352e-08
8.34565e-10
6.42722e-08
1.66511e-09
6.37216e-08
2.48848e-09
6.29856e-08
3.30081e-09
6.20672e-08
4.09818e-09
6.09705e-08
4.87662e-09
5.97002e-08
5.63214e-09
5.82622e-08
6.36066e-09
5.66632e-08
7.05809e-09
5.49106e-08
7.72027e-09
5.30129e-08
8.34301e-09
5.09797e-08
8.92207e-09
4.88212e-08
9.45323e-09
4.65487e-08
9.93221e-09
4.41743e-08
1.03548e-08
4.17113e-08
1.07168e-08
3.91735e-08
1.1014e-08
3.65758e-08
1.12425e-08
3.39338e-08
1.13984e-08
3.1264e-08
1.1478e-08
2.85834e-08
1.14779e-08
2.59099e-08
1.1395e-08
2.32619e-08
1.12268e-08
2.06583e-08
1.0971e-08
1.81185e-08
1.06263e-08
1.56622e-08
1.01917e-08
1.33094e-08
9.66747e-09
1.10803e-08
9.05482e-09
8.99524e-09
8.35614e-09
7.07464e-09
7.5753e-09
5.33904e-09
6.71776e-09
3.8091e-09
5.79086e-09
2.50575e-09
4.80403e-09
1.45038e-09
3.76898e-09
6.65094e-10
2.70006e-09
1.73202e-10
1.6143e-09
5.30863e-10
1.98995e-10
-7.4234e-10
7.62768e-10
-2.21346e-09
1.66001e-09
-3.6524e-09
2.86152e-09
-5.03832e-09
4.33951e-09
-6.35639e-09
6.06731e-09
-7.59485e-09
8.01913e-09
-8.74378e-09
1.017e-08
-9.79523e-09
1.24955e-08
-1.07432e-08
1.49721e-08
-1.15834e-08
1.75765e-08
-1.23131e-08
2.02862e-08
-1.29311e-08
2.30792e-08
-1.34371e-08
2.59344e-08
-1.38322e-08
2.88309e-08
-1.41181e-08
3.17489e-08
-1.42974e-08
3.46693e-08
-1.43732e-08
3.75734e-08
-1.4349e-08
4.04439e-08
-1.4229e-08
4.32638e-08
-1.40174e-08
4.60172e-08
-1.37188e-08
4.86891e-08
-1.33379e-08
5.12653e-08
-1.28795e-08
5.37325e-08
-1.23486e-08
5.60781e-08
-1.175e-08
5.82907e-08
-1.10887e-08
6.03596e-08
-1.03697e-08
6.22749e-08
-9.59791e-09
6.40276e-08
-8.77812e-09
6.56098e-08
-7.9152e-09
6.7014e-08
-7.01395e-09
6.8234e-08
-6.07909e-09
6.92642e-08
-5.11536e-09
7.00998e-08
-4.12742e-09
7.07371e-08
-3.11992e-09
7.11729e-08
-2.09752e-09
7.14051e-08
-1.06486e-09
7.14324e-08
-2.65709e-11
7.12543e-08
1.01267e-09
7.08712e-08
2.04818e-09
7.02844e-08
3.07523e-09
6.94962e-08
4.08904e-09
6.85096e-08
5.08478e-09
6.73287e-08
6.05758e-09
6.59583e-08
7.00248e-09
6.44045e-08
7.91447e-09
6.26741e-08
8.78848e-09
6.0775e-08
9.61939e-09
5.8716e-08
1.0402e-08
5.6507e-08
1.11311e-08
5.41588e-08
1.18014e-08
5.16833e-08
1.24078e-08
4.90932e-08
1.29448e-08
4.64026e-08
1.34075e-08
4.3626e-08
1.37905e-08
4.07794e-08
1.40891e-08
3.78794e-08
1.42984e-08
3.49437e-08
1.44138e-08
3.19906e-08
1.4431e-08
2.90394e-08
1.43463e-08
2.61101e-08
1.41561e-08
2.32234e-08
1.38577e-08
2.04008e-08
1.34489e-08
1.76641e-08
1.29284e-08
1.50357e-08
1.22958e-08
1.25387e-08
1.15518e-08
1.01964e-08
1.06984e-08
8.03267e-09
9.73907e-09
6.07168e-09
8.67876e-09
4.3382e-09
7.52436e-09
2.85756e-09
6.28469e-09
1.65578e-09
4.97075e-09
7.59862e-10
3.596e-09
1.97953e-10
2.17622e-09
7.28819e-10
2.21109e-10
-9.63441e-10
8.47748e-10
-2.84009e-09
1.8447e-09
-4.64934e-09
3.17851e-09
-6.37212e-09
4.8171e-09
-7.99497e-09
6.72957e-09
-9.50731e-09
8.88614e-09
-1.09003e-08
1.12581e-08
-1.21671e-08
1.38175e-08
-1.33026e-08
1.65376e-08
-1.43035e-08
1.93924e-08
-1.51679e-08
2.23568e-08
-1.58955e-08
2.54066e-08
-1.64869e-08
2.85185e-08
-1.69441e-08
3.16701e-08
-1.72697e-08
3.484e-08
-1.74673e-08
3.80076e-08
-1.75408e-08
4.11534e-08
-1.74948e-08
4.42589e-08
-1.73344e-08
4.73062e-08
-1.70648e-08
5.02789e-08
-1.66914e-08
5.3161e-08
-1.62201e-08
5.5938e-08
-1.56564e-08
5.85958e-08
-1.50064e-08
6.11218e-08
-1.42759e-08
6.35037e-08
-1.34707e-08
6.57307e-08
-1.25967e-08
6.77925e-08
-1.16597e-08
6.96798e-08
-1.06654e-08
7.13843e-08
-9.61966e-09
7.28983e-08
-8.52799e-09
7.42152e-08
-7.39604e-09
7.53293e-08
-6.22939e-09
7.62354e-08
-5.03355e-09
7.69296e-08
-3.81405e-09
7.74084e-08
-2.57638e-09
7.76696e-08
-1.32603e-09
7.77116e-08
-6.85371e-11
7.75337e-08
1.19057e-09
7.71362e-08
2.4457e-09
7.65202e-08
3.69121e-09
7.56878e-08
4.92142e-09
7.4642e-08
6.13054e-09
7.33869e-08
7.31273e-09
7.19273e-08
8.46207e-09
7.02692e-08
9.57254e-09
6.84197e-08
1.06381e-08
6.63866e-08
1.16524e-08
6.41791e-08
1.26095e-08
6.18074e-08
1.35029e-08
5.92825e-08
1.43263e-08
5.66169e-08
1.50734e-08
5.38239e-08
1.57378e-08
5.09181e-08
1.63133e-08
4.79148e-08
1.67938e-08
4.48309e-08
1.7173e-08
4.1684e-08
1.74453e-08
3.84928e-08
1.76049e-08
3.52771e-08
1.76467e-08
3.20576e-08
1.75657e-08
2.8856e-08
1.73577e-08
2.56949e-08
1.70188e-08
2.25977e-08
1.65461e-08
1.95886e-08
1.59375e-08
1.66928e-08
1.51917e-08
1.3936e-08
1.43087e-08
1.13447e-08
1.32898e-08
8.94609e-09
1.21377e-08
6.76816e-09
1.08567e-08
4.83956e-09
9.45297e-09
3.18973e-09
7.93453e-09
1.84901e-09
6.31151e-09
8.48633e-10
4.59639e-09
2.21014e-10
2.80386e-09
9.49836e-10
2.42278e-10
-1.20571e-09
9.29063e-10
-3.52686e-09
2.02146e-09
-5.74173e-09
3.48206e-09
-7.83271e-09
5.27476e-09
-9.78766e-09
7.36472e-09
-1.15973e-08
9.71832e-09
-1.32539e-08
1.23032e-08
-1.4752e-08
1.50881e-08
-1.60876e-08
1.80432e-08
-1.72585e-08
2.11396e-08
-1.82643e-08
2.43496e-08
-1.91055e-08
2.76468e-08
-1.97842e-08
3.1006e-08
-2.03033e-08
3.4403e-08
-2.06667e-08
3.78149e-08
-2.08792e-08
4.12199e-08
-2.09457e-08
4.45972e-08
-2.08722e-08
4.79274e-08
-2.06646e-08
5.11921e-08
-2.03294e-08
5.43738e-08
-1.98732e-08
5.74564e-08
-1.93026e-08
6.04244e-08
-1.86245e-08
6.32638e-08
-1.78458e-08
6.59613e-08
-1.69733e-08
6.85044e-08
-1.60139e-08
7.08821e-08
-1.49743e-08
7.30837e-08
-1.38613e-08
7.50998e-08
-1.26815e-08
7.69217e-08
-1.14416e-08
7.85416e-08
-1.01479e-08
7.99527e-08
-8.80713e-09
8.11489e-08
-7.42556e-09
8.21249e-08
-6.00959e-09
8.28765e-08
-4.56559e-09
8.34e-08
-3.0999e-09
8.36929e-08
-1.6189e-09
8.37533e-08
-1.28972e-10
8.35804e-08
1.36346e-09
8.31742e-08
2.85191e-09
8.25356e-08
4.32982e-09
8.16665e-08
5.79054e-09
8.05697e-08
7.22734e-09
7.9249e-08
8.63339e-09
7.77094e-08
1.00017e-08
7.59566e-08
1.13253e-08
7.39977e-08
1.2597e-08
7.18406e-08
1.38095e-08
6.94947e-08
1.49554e-08
6.69701e-08
1.60274e-08
6.42784e-08
1.7018e-08
6.14322e-08
1.79196e-08
5.84453e-08
1.87247e-08
5.53328e-08
1.94258e-08
5.21111e-08
2.00156e-08
4.87974e-08
2.04867e-08
4.54106e-08
2.08321e-08
4.19704e-08
2.10451e-08
3.84981e-08
2.11191e-08
3.50158e-08
2.10481e-08
3.15469e-08
2.08266e-08
2.8116e-08
2.04497e-08
2.47487e-08
1.99135e-08
2.14716e-08
1.92145e-08
1.83126e-08
1.83507e-08
1.53003e-08
1.7321e-08
1.24643e-08
1.61257e-08
9.83548e-09
1.47665e-08
7.44525e-09
1.32469e-08
5.32614e-09
1.15721e-08
3.51157e-09
9.74911e-09
2.03586e-09
7.78721e-09
9.34341e-10
5.69793e-09
2.4324e-10
3.49497e-09
1.19308e-09
2.6316e-10
-1.46886e-09
1.00902e-09
-4.27272e-09
2.19493e-09
-6.92763e-09
3.77955e-09
-9.41732e-09
5.72281e-09
-1.17309e-08
7.986e-09
-1.38604e-08
1.05318e-08
-1.57997e-08
1.33242e-08
-1.75444e-08
1.63288e-08
-1.90922e-08
1.95125e-08
-2.04422e-08
2.28437e-08
-2.15955e-08
2.62923e-08
-2.25541e-08
2.98296e-08
-2.33215e-08
3.34285e-08
-2.39021e-08
3.7063e-08
-2.43012e-08
4.07087e-08
-2.45249e-08
4.43427e-08
-2.45797e-08
4.79433e-08
-2.44727e-08
5.14899e-08
-2.42113e-08
5.49636e-08
-2.38031e-08
5.83463e-08
-2.32559e-08
6.16213e-08
-2.25776e-08
6.47729e-08
-2.17762e-08
6.77866e-08
-2.08595e-08
7.0649e-08
-1.98357e-08
7.33474e-08
-1.87123e-08
7.58704e-08
-1.74973e-08
7.82072e-08
-1.61982e-08
8.03484e-08
-1.48226e-08
8.22849e-08
-1.33781e-08
8.40089e-08
-1.18719e-08
8.55132e-08
-1.03114e-08
8.67916e-08
-8.70392e-09
8.78385e-08
-7.05657e-09
8.86495e-08
-5.37656e-09
8.92207e-08
-3.6711e-09
8.95492e-08
-1.94738e-09
8.96329e-08
-2.12661e-10
8.94706e-08
1.52576e-09
8.9062e-08
3.26049e-09
8.84078e-08
4.98405e-09
8.75095e-08
6.68884e-09
8.63697e-08
8.36716e-09
8.49919e-08
1.00111e-08
8.33809e-08
1.16128e-08
8.15422e-08
1.3164e-08
7.94828e-08
1.46564e-08
7.72105e-08
1.60817e-08
7.47347e-08
1.74313e-08
7.20656e-08
1.86966e-08
6.92149e-08
1.98687e-08
6.61955e-08
2.0939e-08
6.30217e-08
2.18985e-08
5.97089e-08
2.27385e-08
5.62743e-08
2.34502e-08
5.27359e-08
2.40251e-08
4.91136e-08
2.44545e-08
4.54282e-08
2.47304e-08
4.17023e-08
2.48449e-08
3.79597e-08
2.47907e-08
3.42256e-08
2.45607e-08
3.05266e-08
2.41488e-08
2.68904e-08
2.35496e-08
2.33464e-08
2.27586e-08
1.9925e-08
2.17721e-08
1.6658e-08
2.0588e-08
1.35783e-08
1.92054e-08
1.072e-08
1.76248e-08
8.11842e-09
1.58486e-08
5.80975e-09
1.38808e-08
3.83135e-09
1.17275e-08
2.22154e-09
9.39704e-09
1.01951e-09
6.89997e-09
2.65338e-10
4.24916e-09
1.45842e-09
2.84251e-10
-1.75311e-09
1.08937e-09
-5.07783e-09
2.36863e-09
-8.20689e-09
4.07657e-09
-1.11252e-08
6.16906e-09
-1.38234e-08
8.60344e-09
-1.62948e-08
1.13386e-08
-1.85348e-08
1.43351e-08
-2.05409e-08
1.7555e-08
-2.23121e-08
2.09625e-08
-2.38497e-08
2.4523e-08
-2.5156e-08
2.82041e-08
-2.62352e-08
3.1975e-08
-2.70923e-08
3.58064e-08
-2.77335e-08
3.96709e-08
-2.81658e-08
4.35429e-08
-2.83969e-08
4.73981e-08
-2.84349e-08
5.12138e-08
-2.82885e-08
5.4969e-08
-2.79664e-08
5.86437e-08
-2.74778e-08
6.22198e-08
-2.68319e-08
6.56799e-08
-2.60377e-08
6.90082e-08
-2.51045e-08
7.21899e-08
-2.40413e-08
7.52115e-08
-2.28572e-08
7.80601e-08
-2.15609e-08
8.07241e-08
-2.01613e-08
8.31929e-08
-1.8667e-08
8.54566e-08
-1.70863e-08
8.75063e-08
-1.54277e-08
8.93338e-08
-1.36994e-08
9.09318e-08
-1.19095e-08
9.22939e-08
-1.0066e-08
9.34144e-08
-8.177e-09
9.42883e-08
-6.25045e-09
9.49115e-08
-4.29436e-09
9.52809e-08
-2.31675e-09
9.53939e-08
-3.25706e-10
9.52491e-08
1.67061e-09
9.48456e-08
3.66393e-09
9.41838e-08
5.64585e-09
9.32649e-08
7.60782e-09
9.20909e-08
9.54114e-09
9.06651e-08
1.14369e-08
8.89918e-08
1.32861e-08
8.70765e-08
1.50794e-08
8.49256e-08
1.68073e-08
8.25469e-08
1.84604e-08
7.99496e-08
2.00286e-08
7.7144e-08
2.15022e-08
7.41418e-08
2.28709e-08
7.09561e-08
2.41247e-08
6.76015e-08
2.52531e-08
6.40939e-08
2.62461e-08
6.0451e-08
2.70932e-08
5.66917e-08
2.77843e-08
5.28368e-08
2.83095e-08
4.89084e-08
2.86588e-08
4.49303e-08
2.8823e-08
4.0928e-08
2.87929e-08
3.69286e-08
2.85601e-08
3.29607e-08
2.81168e-08
2.90545e-08
2.74558e-08
2.52419e-08
2.65712e-08
2.15562e-08
2.54578e-08
1.80324e-08
2.41119e-08
1.47065e-08
2.25312e-08
1.16164e-08
2.07149e-08
8.80104e-09
1.8664e-08
6.30051e-09
1.63813e-08
4.15617e-09
1.38719e-08
2.41033e-09
1.11429e-08
1.10625e-09
8.20407e-09
2.87905e-10
5.06752e-09
1.74633e-09
3.05891e-10
-2.05899e-09
1.17128e-09
-5.94322e-09
2.54491e-09
-9.58051e-09
4.37681e-09
-1.29571e-08
6.61854e-09
-1.60651e-08
9.22331e-09
-1.88996e-08
1.21461e-08
-2.14577e-08
1.5344e-08
-2.37387e-08
1.87757e-08
-2.57438e-08
2.24022e-08
-2.74762e-08
2.61866e-08
-2.89404e-08
3.00938e-08
-3.01424e-08
3.40909e-08
-3.10894e-08
3.81471e-08
-3.17897e-08
4.22335e-08
-3.22522e-08
4.6323e-08
-3.24864e-08
5.03904e-08
-3.25023e-08
5.44123e-08
-3.23103e-08
5.83669e-08
-3.1921e-08
6.2234e-08
-3.13449e-08
6.59948e-08
-3.05927e-08
6.9632e-08
-2.96749e-08
7.31295e-08
-2.8602e-08
7.64724e-08
-2.73842e-08
7.96471e-08
-2.60318e-08
8.26408e-08
-2.45546e-08
8.54418e-08
-2.29624e-08
8.80395e-08
-2.12646e-08
9.04238e-08
-1.94707e-08
9.25858e-08
-1.75897e-08
9.45172e-08
-1.56308e-08
9.62104e-08
-1.36028e-08
9.76589e-08
-1.15145e-08
9.88566e-08
-9.3747e-09
9.97983e-08
-7.19217e-09
1.0048e-07
-4.97564e-09
1.00897e-07
-2.73393e-09
1.01047e-07
-4.75892e-10
1.00928e-07
1.78946e-09
1.00539e-07
4.053e-09
9.98795e-08
6.30542e-09
9.89501e-08
8.53724e-09
9.77525e-08
1.07387e-08
9.62894e-08
1.29e-08
9.45647e-08
1.50108e-08
9.25833e-08
1.70608e-08
9.03515e-08
1.90392e-08
8.78766e-08
2.09352e-08
8.51675e-08
2.27377e-08
8.22345e-08
2.44352e-08
7.90892e-08
2.60162e-08
7.57448e-08
2.74691e-08
7.2216e-08
2.87819e-08
6.85194e-08
2.99427e-08
6.4673e-08
3.09396e-08
6.06966e-08
3.17607e-08
5.66118e-08
3.23943e-08
5.24421e-08
3.28286e-08
4.82125e-08
3.30526e-08
4.39502e-08
3.30552e-08
3.96843e-08
3.28261e-08
3.54454e-08
3.23556e-08
3.12663e-08
3.16349e-08
2.71816e-08
3.06559e-08
2.32275e-08
2.94119e-08
1.94422e-08
2.78973e-08
1.58654e-08
2.61081e-08
1.25384e-08
2.40419e-08
9.50411e-09
2.16983e-08
6.80675e-09
1.90787e-08
4.49177e-09
1.61868e-08
2.60579e-09
1.30289e-08
1.19625e-09
9.61362e-09
3.11387e-10
5.9524e-09
2.05771e-09
3.28269e-10
-2.38726e-09
1.25539e-09
-6.87034e-09
2.72492e-09
-1.105e-08
4.68192e-09
-1.49141e-08
7.07327e-09
-1.84565e-08
9.84779e-09
-2.16741e-08
1.29565e-08
-2.45663e-08
1.63525e-08
-2.71347e-08
1.99915e-08
-2.93828e-08
2.38313e-08
-3.1316e-08
2.78324e-08
-3.29415e-08
3.19576e-08
-3.42675e-08
3.61719e-08
-3.53038e-08
4.04429e-08
-3.60607e-08
4.47403e-08
-3.65496e-08
4.90361e-08
-3.67821e-08
5.33042e-08
-3.67704e-08
5.75206e-08
-3.65267e-08
6.16631e-08
-3.60635e-08
6.57111e-08
-3.5393e-08
6.96459e-08
-3.45274e-08
7.34499e-08
-3.34789e-08
7.71072e-08
-3.22592e-08
8.06029e-08
-3.08799e-08
8.39233e-08
-2.93522e-08
8.70559e-08
-2.76872e-08
8.9989e-08
-2.58955e-08
9.27118e-08
-2.39875e-08
9.52146e-08
-2.19735e-08
9.74882e-08
-1.98633e-08
9.95242e-08
-1.76667e-08
1.01315e-07
-1.53935e-08
1.02853e-07
-1.3053e-08
1.04133e-07
-1.06547e-08
1.05149e-07
-8.2081e-09
1.05896e-07
-5.72259e-09
1.0637e-07
-3.20772e-09
1.06567e-07
-6.73104e-10
1.06485e-07
1.87147e-09
1.06122e-07
4.41605e-09
1.05477e-07
6.95044e-09
1.0455e-07
9.46423e-09
1.03342e-07
1.19467e-08
1.01855e-07
1.43869e-08
1.00093e-07
1.67734e-08
9.80587e-08
1.90948e-08
9.5759e-08
2.13389e-08
9.32006e-08
2.34937e-08
9.03919e-08
2.55464e-08
8.73429e-08
2.74842e-08
8.40651e-08
2.9294e-08
8.05717e-08
3.09625e-08
7.68776e-08
3.2476e-08
7.29995e-08
3.38208e-08
6.89559e-08
3.49832e-08
6.47675e-08
3.59492e-08
6.04566e-08
3.67051e-08
5.6048e-08
3.72373e-08
5.15681e-08
3.75325e-08
4.70457e-08
3.75775e-08
4.25119e-08
3.736e-08
3.79996e-08
3.6868e-08
3.3544e-08
3.60904e-08
2.91826e-08
3.50174e-08
2.49547e-08
3.36398e-08
2.09018e-08
3.19502e-08
1.70673e-08
2.99426e-08
1.34964e-08
2.76128e-08
1.02361e-08
2.49586e-08
7.33487e-09
2.19799e-08
4.84269e-09
1.8679e-08
2.81062e-09
1.50609e-08
1.29084e-09
1.11334e-08
3.36165e-10
6.90708e-09
2.39388e-09
3.51427e-10
-2.73868e-09
1.34173e-09
-7.86064e-09
2.90855e-09
-1.26168e-08
4.9914e-09
-1.6997e-08
7.53202e-09
-2.09971e-08
1.04745e-08
-2.46166e-08
1.37657e-08
-2.78575e-08
1.73549e-08
-3.07239e-08
2.11943e-08
-3.32222e-08
2.52389e-08
-3.53607e-08
2.94466e-08
-3.71491e-08
3.37779e-08
-3.85989e-08
3.81964e-08
-3.97223e-08
4.26681e-08
-4.05324e-08
4.71617e-08
-4.10431e-08
5.16482e-08
-4.12687e-08
5.61012e-08
-4.12234e-08
6.04961e-08
-4.09217e-08
6.48107e-08
-4.03781e-08
6.90244e-08
-3.96067e-08
7.31184e-08
-3.86215e-08
7.70755e-08
-3.7436e-08
8.08798e-08
-3.60635e-08
8.45168e-08
-3.45169e-08
8.7973e-08
-3.28084e-08
9.1236e-08
-3.09502e-08
9.42945e-08
-2.89539e-08
9.71377e-08
-2.68307e-08
9.97559e-08
-2.45916e-08
1.0214e-07
-2.22473e-08
1.04281e-07
-1.9808e-08
1.06172e-07
-1.72842e-08
1.07805e-07
-1.4686e-08
1.09173e-07
-1.20233e-08
1.10272e-07
-9.30621e-09
1.11094e-07
-6.5448e-09
1.11635e-07
-3.74923e-09
1.11892e-07
-9.29815e-10
1.11861e-07
1.90295e-09
1.11538e-07
4.73831e-09
1.10923e-07
7.56526e-09
1.10015e-07
1.03724e-08
1.08814e-07
1.31482e-08
1.0732e-07
1.58804e-08
1.05537e-07
1.85567e-08
1.03468e-07
2.11641e-08
1.01117e-07
2.36894e-08
9.84921e-08
2.61189e-08
9.55999e-08
2.84386e-08
9.24502e-08
3.06339e-08
8.90543e-08
3.26899e-08
8.54251e-08
3.45916e-08
8.15777e-08
3.63235e-08
7.75287e-08
3.78697e-08
7.32973e-08
3.92146e-08
6.89046e-08
4.03419e-08
6.43739e-08
4.12358e-08
5.97309e-08
4.18804e-08
5.50036e-08
4.22598e-08
5.02225e-08
4.23586e-08
4.54205e-08
4.2162e-08
4.0633e-08
4.16555e-08
3.58977e-08
4.08257e-08
3.1255e-08
3.96601e-08
2.67475e-08
3.81473e-08
2.24203e-08
3.62774e-08
1.83205e-08
3.40423e-08
1.44976e-08
3.14357e-08
1.10029e-08
2.84533e-08
7.88949e-09
2.50933e-08
5.2121e-09
2.13564e-08
3.02689e-09
1.72462e-08
1.39099e-09
1.27693e-08
3.62502e-10
7.93559e-09
2.75638e-09
3.75245e-10
-3.11393e-09
1.42972e-09
-8.91512e-09
3.09432e-09
-1.42814e-08
5.30238e-09
-1.9205e-08
7.99001e-09
-2.36847e-08
1.10963e-08
-2.77229e-08
1.45635e-08
-3.13247e-08
1.83371e-08
-3.44975e-08
2.23659e-08
-3.7251e-08
2.6602e-08
-3.95968e-08
3.10009e-08
-4.1548e-08
3.55214e-08
-4.31193e-08
4.01252e-08
-4.43261e-08
4.47775e-08
-4.51847e-08
4.9446e-08
-4.57117e-08
5.41015e-08
-4.59241e-08
5.87171e-08
-4.5839e-08
6.32684e-08
-4.54731e-08
6.77333e-08
-4.4843e-08
7.20915e-08
-4.39649e-08
7.63246e-08
-4.28546e-08
8.04158e-08
-4.15272e-08
8.43497e-08
-3.99974e-08
8.81122e-08
-3.82794e-08
9.16904e-08
-3.63866e-08
9.50722e-08
-3.43321e-08
9.82466e-08
-3.21282e-08
1.01203e-07
-2.97872e-08
1.03932e-07
-2.73205e-08
1.06424e-07
-2.47394e-08
1.08671e-07
-2.20549e-08
1.10664e-07
-1.92778e-08
1.12397e-07
-1.64186e-08
1.13862e-07
-1.34879e-08
1.15052e-07
-1.04962e-08
1.15961e-07
-7.4541e-09
1.16584e-07
-4.37228e-09
1.16916e-07
-1.26165e-09
1.16952e-07
1.86663e-09
1.16689e-07
5.0011e-09
1.16125e-07
8.12994e-09
1.15256e-07
1.12409e-08
1.14083e-07
1.43214e-08
1.12605e-07
1.73583e-08
1.10824e-07
2.03379e-08
1.08742e-07
2.3246e-08
1.06363e-07
2.60681e-08
1.03693e-07
2.8789e-08
1.00739e-07
3.13929e-08
9.75093e-08
3.38635e-08
9.40149e-08
3.61843e-08
9.02684e-08
3.83381e-08
8.62846e-08
4.03073e-08
8.20804e-08
4.2074e-08
7.76749e-08
4.362e-08
7.30899e-08
4.4927e-08
6.83494e-08
4.59763e-08
6.34802e-08
4.67496e-08
5.85117e-08
4.72283e-08
5.3476e-08
4.73943e-08
4.8408e-08
4.723e-08
4.33454e-08
4.67181e-08
3.83288e-08
4.58424e-08
3.34014e-08
4.45874e-08
2.86094e-08
4.29393e-08
2.40015e-08
4.08853e-08
1.96291e-08
3.84148e-08
1.55458e-08
3.5519e-08
1.18078e-08
3.21913e-08
8.47325e-09
2.84279e-08
5.60205e-09
2.42276e-08
3.25578e-09
1.95924e-08
1.49736e-09
1.45277e-08
3.90593e-10
9.04236e-09
3.14698e-09
3.99425e-10
-3.51335e-09
1.51809e-09
-1.00338e-08
3.27925e-09
-1.60426e-08
5.60938e-09
-2.15352e-08
8.43847e-09
-2.65138e-08
1.17002e-08
-3.09847e-08
1.53322e-08
-3.49567e-08
1.92759e-08
-3.84412e-08
2.34768e-08
-4.14519e-08
2.78843e-08
-4.40043e-08
3.24517e-08
-4.61155e-08
3.71362e-08
-4.78038e-08
4.18984e-08
-4.90883e-08
4.67027e-08
-4.99889e-08
5.15165e-08