/*--------------------------------*- C++ -*----------------------------------*\
  =========                 |
  \\      /  F ield         | OpenFOAM: The Open Source CFD Toolbox
   \\    /   O peration     | Website:  https://openfoam.org
    \\  /    A nd           | Version:  12
     \\/     M anipulation  |
\*---------------------------------------------------------------------------*/
FoamFile
{
    format      ascii;
    class       volScalarField;
    location    "4.5";
    object      epsilon;
}
// * * * * * * * * * * * * * * * * * * * * * * * * * * * * * * * * * * * * * //

dimensions      [0 2 -3 0 0 0 0];

internalField   nonuniform List<scalar> 
5625
(
3.64728e-09
2.46528e-08
5.46788e-08
9.00188e-08
1.28772e-07
1.69631e-07
2.11578e-07
2.53797e-07
2.95626e-07
3.36543e-07
3.76158e-07
4.14208e-07
4.50549e-07
4.85146e-07
5.18066e-07
5.49457e-07
5.79538e-07
6.08575e-07
6.36873e-07
6.64753e-07
6.92542e-07
7.20562e-07
7.49122e-07
7.78511e-07
8.08998e-07
8.40825e-07
8.74212e-07
9.09353e-07
9.4642e-07
9.85562e-07
1.02691e-06
1.07056e-06
1.11661e-06
1.16511e-06
1.21611e-06
1.26961e-06
1.32561e-06
1.38403e-06
1.44479e-06
1.50774e-06
1.57266e-06
1.63926e-06
1.70717e-06
1.7759e-06
1.84485e-06
1.91327e-06
1.98023e-06
2.04465e-06
2.10524e-06
2.1605e-06
2.20873e-06
2.24801e-06
2.27603e-06
2.28981e-06
2.29067e-06
2.27457e-06
2.23947e-06
2.18414e-06
2.10799e-06
2.01116e-06
1.89464e-06
1.76034e-06
1.6111e-06
1.45051e-06
1.28276e-06
1.11234e-06
9.43643e-07
7.80716e-07
6.26933e-07
4.84866e-07
3.56285e-07
2.42379e-07
1.44285e-07
6.42811e-08
9.48579e-09
6.89027e-09
1.33929e-08
2.67506e-08
4.30944e-08
6.11974e-08
8.03591e-08
1.00072e-07
1.19939e-07
1.39641e-07
1.58929e-07
1.77617e-07
1.95579e-07
2.12745e-07
2.29099e-07
2.44669e-07
2.59525e-07
2.7377e-07
2.87528e-07
3.00943e-07
3.14165e-07
3.27349e-07
3.40647e-07
3.54205e-07
3.68161e-07
3.82641e-07
3.97761e-07
4.13625e-07
4.30326e-07
4.47946e-07
4.66557e-07
4.86219e-07
5.06984e-07
5.28891e-07
5.51972e-07
5.76243e-07
6.01711e-07
6.28364e-07
6.56176e-07
6.85097e-07
7.15052e-07
7.45937e-07
7.7761e-07
8.09885e-07
8.42524e-07
8.75231e-07
9.0764e-07
9.39305e-07
9.69697e-07
9.98197e-07
1.02409e-06
1.04656e-06
1.06469e-06
1.0774e-06
1.08338e-06
1.08314e-06
1.07486e-06
1.05764e-06
1.03091e-06
9.94444e-07
9.48345e-07
8.93112e-07
8.29665e-07
7.59329e-07
6.83788e-07
6.0498e-07
5.24968e-07
4.45784e-07
3.69291e-07
2.97056e-07
2.30291e-07
1.69867e-07
1.16444e-07
7.08172e-08
3.49833e-08
1.79096e-08
1.46278e-08
1.30405e-08
2.06001e-08
3.11735e-08
4.32892e-08
5.62848e-08
6.97451e-08
8.33667e-08
9.69154e-08
1.10211e-07
1.23119e-07
1.35549e-07
1.47449e-07
1.58807e-07
1.6964e-07
1.79994e-07
1.8994e-07
1.99562e-07
2.08959e-07
2.18236e-07
2.27499e-07
2.36853e-07
2.46402e-07
2.56242e-07
2.66461e-07
2.77142e-07
2.88358e-07
3.00176e-07
3.12655e-07
3.25845e-07
3.3979e-07
3.54528e-07
3.70086e-07
3.86487e-07
4.03741e-07
4.21851e-07
4.40807e-07
4.60586e-07
4.81147e-07
5.02431e-07
5.24355e-07
5.46808e-07
5.69646e-07
5.92688e-07
6.15708e-07
6.3843e-07
6.60526e-07
6.81607e-07
7.01223e-07
7.18863e-07
7.33956e-07
7.4587e-07
7.53785e-07
7.57031e-07
7.55789e-07
7.48903e-07
7.35826e-07
7.16238e-07
6.90037e-07
6.57353e-07
6.18576e-07
5.74363e-07
5.25631e-07
4.73518e-07
4.19314e-07
3.64387e-07
3.10079e-07
2.57625e-07
2.08085e-07
1.62311e-07
1.20986e-07
8.47714e-08
5.47529e-08
3.40309e-08
3.7927e-08
2.39117e-08
1.56191e-08
1.94672e-08
2.68552e-08
3.59066e-08
4.58687e-08
5.63218e-08
6.69839e-08
7.76477e-08
8.81572e-08
9.83982e-08
1.08293e-07
1.17796e-07
1.26895e-07
1.35599e-07
1.43946e-07
1.51987e-07
1.59791e-07
1.67436e-07
1.75003e-07
1.8258e-07
1.90251e-07
1.981e-07
2.06204e-07
2.14637e-07
2.23466e-07
2.32754e-07
2.42554e-07
2.52917e-07
2.63885e-07
2.75494e-07
2.87776e-07
3.00754e-07
3.14444e-07
3.28854e-07
3.43982e-07
3.59816e-07
3.7633e-07
3.93482e-07
4.11213e-07
4.29442e-07
4.48063e-07
4.66942e-07
4.85911e-07
5.04766e-07
5.23263e-07
5.41115e-07
5.57989e-07
5.73508e-07
5.87253e-07
5.98764e-07
6.07545e-07
6.1283e-07
6.14456e-07
6.12292e-07
6.05555e-07
5.93887e-07
5.77095e-07
5.55151e-07
5.2821e-07
4.96615e-07
4.60908e-07
4.21814e-07
3.80216e-07
3.37109e-07
2.93533e-07
2.50518e-07
2.09014e-07
1.69862e-07
1.33778e-07
1.01426e-07
7.36104e-08
5.18622e-08
4.05926e-08
6.17338e-08
3.44512e-08
1.96148e-08
2.04828e-08
2.55926e-08
3.26143e-08
4.0664e-08
4.92822e-08
5.81795e-08
6.71528e-08
7.60535e-08
8.47736e-08
9.32398e-08
1.01409e-07
1.09264e-07
1.16812e-07
1.24082e-07
1.31117e-07
1.37974e-07
1.4472e-07
1.51425e-07
1.58165e-07
1.65013e-07
1.72043e-07
1.79323e-07
1.86918e-07
1.9489e-07
2.03294e-07
2.12179e-07
2.2159e-07
2.31566e-07
2.42139e-07
2.53337e-07
2.65179e-07
2.77677e-07
2.90834e-07
3.04645e-07
3.19091e-07
3.34139e-07
3.49742e-07
3.65833e-07
3.82327e-07
3.99111e-07
4.16048e-07
4.32972e-07
4.49683e-07
4.65949e-07
4.81503e-07
4.96045e-07
5.0924e-07
5.20725e-07
5.30114e-07
5.36982e-07
5.40576e-07
5.41165e-07
5.38301e-07
5.31477e-07
5.20435e-07
5.0505e-07
4.85327e-07
4.61421e-07
4.3364e-07
4.0245e-07
3.68469e-07
3.32442e-07
2.95205e-07
2.5764e-07
2.20618e-07
1.84965e-07
1.51425e-07
1.20687e-07
9.3465e-08
7.07511e-08
5.45774e-08
5.06773e-08
8.84113e-08
4.60428e-08
2.45005e-08
2.27181e-08
2.59778e-08
3.14561e-08
3.81227e-08
4.54638e-08
5.31688e-08
6.10275e-08
6.88895e-08
7.66469e-08
8.42256e-08
9.15807e-08
9.86932e-08
1.05566e-07
1.12222e-07
1.18698e-07
1.25045e-07
1.31321e-07
1.37592e-07
1.43924e-07
1.50387e-07
1.57046e-07
1.63967e-07
1.71211e-07
1.78834e-07
1.86889e-07
1.95422e-07
2.04475e-07
2.14085e-07
2.24282e-07
2.35088e-07
2.46521e-07
2.58586e-07
2.71282e-07
2.84596e-07
2.98501e-07
3.12956e-07
3.27904e-07
3.43267e-07
3.58949e-07
3.7483e-07
3.90765e-07
4.06583e-07
4.22088e-07
4.37054e-07
4.51231e-07
4.64342e-07
4.7609e-07
4.8616e-07
4.9423e-07
4.99879e-07
5.02446e-07
5.02455e-07
4.99234e-07
4.92459e-07
4.81918e-07
4.67504e-07
4.49219e-07
4.27184e-07
4.01668e-07
3.73067e-07
3.41929e-07
3.08923e-07
2.74813e-07
2.40418e-07
2.06559e-07
1.74025e-07
1.43553e-07
1.15854e-07
9.1737e-08
7.24293e-08
6.04419e-08
6.28538e-08
1.17264e-07
5.85562e-08
3.00359e-08
2.5763e-08
2.74112e-08
3.16183e-08
3.71982e-08
4.35753e-08
5.04114e-08
5.74827e-08
6.46321e-08
7.17471e-08
7.87507e-08
8.55945e-08
9.2256e-08
9.87342e-08
1.05047e-07
1.11228e-07
1.17323e-07
1.23385e-07
1.29476e-07
1.35659e-07
1.41998e-07
1.48558e-07
1.554e-07
1.62583e-07
1.70163e-07
1.78189e-07
1.86707e-07
1.95756e-07
2.0537e-07
2.15577e-07
2.26396e-07
2.37837e-07
2.49903e-07
2.62583e-07
2.75856e-07
2.89685e-07
3.04018e-07
3.18785e-07
3.33897e-07
3.49246e-07
3.64702e-07
3.80114e-07
3.95309e-07
4.10095e-07
4.24255e-07
4.3756e-07
4.49759e-07
4.60593e-07
4.69792e-07
4.77087e-07
4.82072e-07
4.84198e-07
4.8404e-07
4.80891e-07
4.7448e-07
4.64599e-07
4.5112e-07
4.34e-07
4.13303e-07
3.89214e-07
3.62089e-07
3.32429e-07
3.00872e-07
2.6817e-07
2.35142e-07
2.02633e-07
1.71463e-07
1.42422e-07
1.16297e-07
9.40243e-08
7.70574e-08
6.83556e-08
7.64363e-08
1.47789e-07
7.19074e-08
3.60948e-08
2.94026e-08
2.95848e-08
3.2691e-08
3.73705e-08
4.29809e-08
4.91523e-08
5.56443e-08
6.22892e-08
6.89677e-08
7.55975e-08
8.21257e-08
8.85257e-08
9.47927e-08
1.00941e-07
1.07001e-07
1.13014e-07
1.19031e-07
1.25111e-07
1.31316e-07
1.37706e-07
1.44346e-07
1.51295e-07
1.58612e-07
1.6635e-07
1.74558e-07
1.83279e-07
1.92552e-07
2.02407e-07
2.12868e-07
2.23949e-07
2.35656e-07
2.47981e-07
2.60907e-07
2.744e-07
2.88413e-07
3.02881e-07
3.17721e-07
3.32831e-07
3.48094e-07
3.63372e-07
3.7851e-07
3.93339e-07
4.07675e-07
4.2132e-07
4.34068e-07
4.45704e-07
4.56008e-07
4.64752e-07
4.71711e-07
4.76553e-07
4.78742e-07
4.78825e-07
4.76172e-07
4.70464e-07
4.61464e-07
4.48988e-07
4.32922e-07
4.1326e-07
3.90131e-07
3.63821e-07
3.34792e-07
3.03676e-07
2.71245e-07
2.38373e-07
2.05971e-07
1.74948e-07
1.46186e-07
1.20583e-07
9.92153e-08
8.3812e-08
7.77294e-08
9.10293e-08
1.79601e-07
8.60416e-08
4.26045e-08
3.35117e-08
3.23197e-08
3.44404e-08
3.83454e-08
4.33241e-08
4.89719e-08
5.5028e-08
6.13126e-08
6.76979e-08
7.40945e-08
8.04444e-08
8.67162e-08
9.29014e-08
9.90109e-08
1.05072e-07
1.11124e-07
1.17217e-07
1.23407e-07
1.29755e-07
1.36321e-07
1.43168e-07
1.50355e-07
1.5794e-07
1.65976e-07
1.7451e-07
1.83582e-07
1.93227e-07
2.03474e-07
2.14341e-07
2.25837e-07
2.37958e-07
2.5069e-07
2.64003e-07
2.77853e-07
2.9218e-07
3.06906e-07
3.21936e-07
3.37159e-07
3.5245e-07
3.67666e-07
3.82658e-07
3.97264e-07
4.11318e-07
4.24646e-07
4.37074e-07
4.48426e-07
4.58522e-07
4.67178e-07
4.74199e-07
4.79351e-07
4.82127e-07
4.82799e-07
4.81045e-07
4.76393e-07
4.68551e-07
4.57254e-07
4.42295e-07
4.23574e-07
4.01138e-07
3.75214e-07
3.46235e-07
3.14841e-07
2.81855e-07
2.4823e-07
2.14992e-07
1.83172e-07
1.53785e-07
1.2787e-07
1.06664e-07
9.22002e-08
8.82042e-08
1.06378e-07
2.12398e-07
1.00923e-07
4.95208e-08
3.80127e-08
3.55039e-08
3.67198e-08
3.99427e-08
4.43872e-08
4.9613e-08
5.53392e-08
6.13707e-08
6.75688e-08
7.38366e-08
8.01101e-08
8.63529e-08
9.25525e-08
9.87169e-08
1.04871e-07
1.11053e-07
1.1731e-07
1.23698e-07
1.30277e-07
1.37108e-07
1.44253e-07
1.5177e-07
1.59717e-07
1.68146e-07
1.77102e-07
1.86627e-07
1.9675e-07
2.07495e-07
2.18873e-07
2.30885e-07
2.4352e-07
2.5675e-07
2.70535e-07
2.84818e-07
2.99522e-07
3.1456e-07
3.29826e-07
3.45203e-07
3.6056e-07
3.7576e-07
3.90661e-07
4.05118e-07
4.18986e-07
4.32129e-07
4.44412e-07
4.55704e-07
4.65868e-07
4.74761e-07
4.82218e-07
4.88041e-07
4.91871e-07
4.93507e-07
4.92987e-07
4.8971e-07
4.83283e-07
4.73339e-07
4.59561e-07
4.41745e-07
4.19851e-07
3.94043e-07
3.64729e-07
3.32563e-07
2.98431e-07
2.6339e-07
2.28601e-07
1.95252e-07
1.64521e-07
1.37614e-07
1.15951e-07
1.019e-07
9.95425e-08
1.22305e-07
2.45945e-07
1.16527e-07
5.68153e-08
4.2855e-08
3.90629e-08
3.94321e-08
4.20417e-08
4.60279e-08
5.09113e-08
5.63873e-08
6.22462e-08
6.83387e-08
7.45586e-08
8.08346e-08
8.71248e-08
9.34127e-08
9.97034e-08
1.0602e-07
1.12399e-07
1.18889e-07
1.25544e-07
1.32425e-07
1.39592e-07
1.47107e-07
1.55029e-07
1.63413e-07
1.7231e-07
1.81762e-07
1.91807e-07
2.02471e-07
2.13772e-07
2.25714e-07
2.38288e-07
2.51473e-07
2.65229e-07
2.79504e-07
2.94226e-07
3.09309e-07
3.24654e-07
3.40147e-07
3.55668e-07
3.71089e-07
3.86281e-07
4.01118e-07
4.15481e-07
4.2926e-07
4.42354e-07
4.54672e-07
4.66125e-07
4.7662e-07
4.86045e-07
4.9426e-07
5.01075e-07
5.06238e-07
5.0933e-07
5.1021e-07
5.08564e-07
5.03755e-07
4.95311e-07
4.82791e-07
4.65884e-07
4.44459e-07
4.18615e-07
3.88729e-07
3.55473e-07
3.19796e-07
2.82866e-07
2.45995e-07
2.10549e-07
1.77895e-07
1.49431e-07
1.26786e-07
1.12685e-07
1.11578e-07
1.38678e-07
2.80052e-07
1.32837e-07
6.44696e-08
4.8005e-08
4.29452e-08
4.25099e-08
4.45591e-08
4.81464e-08
5.27511e-08
5.80438e-08
6.37979e-08
6.98513e-08
7.60881e-08
8.24297e-08
8.8829e-08
9.52653e-08
1.01741e-07
1.08277e-07
1.14909e-07
1.21684e-07
1.28659e-07
1.35892e-07
1.43446e-07
1.5138e-07
1.59754e-07
1.68621e-07
1.7803e-07
1.88022e-07
1.98628e-07
2.09869e-07
2.21756e-07
2.34284e-07
2.47434e-07
2.61173e-07
2.7545e-07
2.90199e-07
3.05337e-07
3.20767e-07
3.36381e-07
3.52065e-07
3.67697e-07
3.83158e-07
3.98337e-07
4.13131e-07
4.27452e-07
4.41227e-07
4.54398e-07
4.66917e-07
4.78736e-07
4.89798e-07
5.00018e-07
5.09267e-07
5.17358e-07
5.24027e-07
5.28953e-07
5.31428e-07
5.31522e-07
5.2847e-07
5.21631e-07
5.10434e-07
4.9446e-07
4.73486e-07
4.47544e-07
4.16975e-07
3.82457e-07
3.44994e-07
3.05866e-07
2.66537e-07
2.28565e-07
1.93524e-07
1.63033e-07
1.38951e-07
1.2439e-07
1.24188e-07
1.554e-07
3.14566e-07
1.49844e-07
7.24717e-08
5.34392e-08
4.71145e-08
4.59047e-08
4.74351e-08
5.06718e-08
5.505e-08
6.02137e-08
6.5918e-08
7.19872e-08
7.8295e-08
8.47546e-08
9.13129e-08
9.79451e-08
1.04651e-07
1.11449e-07
1.18376e-07
1.25479e-07
1.32812e-07
1.40436e-07
1.48412e-07
1.56801e-07
1.65661e-07
1.75043e-07
1.84993e-07
1.95548e-07
2.06733e-07
2.18565e-07
2.31043e-07
2.44154e-07
2.57869e-07
2.72141e-07
2.86907e-07
3.02091e-07
3.17597e-07
3.33322e-07
3.49154e-07
3.64977e-07
3.80681e-07
3.96159e-07
4.11322e-07
4.26098e-07
4.40434e-07
4.54297e-07
4.67673e-07
4.80554e-07
4.92927e-07
5.04764e-07
5.15994e-07
5.26494e-07
5.36064e-07
5.44418e-07
5.51193e-07
5.55697e-07
5.57415e-07
5.56188e-07
5.51018e-07
5.41188e-07
5.2618e-07
5.05682e-07
4.79656e-07
4.48393e-07
4.12565e-07
3.73217e-07
3.31722e-07
2.89696e-07
2.48888e-07
2.11099e-07
1.7819e-07
1.52279e-07
1.36888e-07
1.37284e-07
1.72396e-07
3.4937e-07
1.67544e-07
8.0814e-08
5.91414e-08
5.15446e-08
4.95809e-08
5.06251e-08
5.35513e-08
5.7747e-08
6.28279e-08
6.85293e-08
7.46606e-08
8.10842e-08
8.77049e-08
9.44632e-08
1.0133e-07
1.08302e-07
1.15398e-07
1.22652e-07
1.30112e-07
1.37833e-07
1.45875e-07
1.54299e-07
1.63167e-07
1.72532e-07
1.82446e-07
1.9295e-07
2.04076e-07
2.15843e-07
2.28259e-07
2.41316e-07
2.54989e-07
2.69237e-07
2.84003e-07
2.99212e-07
3.14774e-07
3.3059e-07
3.4655e-07
3.62542e-07
3.78457e-07
3.94197e-07
4.09676e-07
4.24833e-07
4.39629e-07
4.54049e-07
4.68102e-07
4.81811e-07
4.95204e-07
5.08297e-07
5.21079e-07
5.33487e-07
5.45388e-07
5.56563e-07
5.66687e-07
5.75335e-07
5.81949e-07
5.85403e-07
5.85861e-07
5.82388e-07
5.73948e-07
5.59941e-07
5.39976e-07
5.13935e-07
4.82054e-07
4.44975e-07
4.03759e-07
3.59855e-07
3.15011e-07
2.71168e-07
2.30362e-07
1.94714e-07
1.66635e-07
1.50088e-07
1.50797e-07
1.8961e-07
3.84374e-07
1.85934e-07
8.94917e-08
6.51001e-08
5.62165e-08
5.35117e-08
5.40957e-08
5.67449e-08
6.07959e-08
6.58339e-08
7.15727e-08
7.78057e-08
8.43833e-08
9.12011e-08
9.8193e-08
1.05326e-07
1.12593e-07
1.20012e-07
1.27618e-07
1.35457e-07
1.43586e-07
1.52064e-07
1.60952e-07
1.7031e-07
1.80191e-07
1.90642e-07
2.017e-07
2.13391e-07
2.25729e-07
2.38711e-07
2.52319e-07
2.66519e-07
2.81258e-07
2.96466e-07
3.1206e-07
3.27941e-07
3.44004e-07
3.60139e-07
3.7624e-07
3.92207e-07
4.07962e-07
4.23443e-07
4.38621e-07
4.5349e-07
4.68076e-07
4.82424e-07
4.96592e-07
5.10634e-07
5.24587e-07
5.38445e-07
5.52142e-07
5.65529e-07
5.78358e-07
5.90268e-07
6.00785e-07
6.09336e-07
6.14751e-07
6.16643e-07
6.14838e-07
6.0779e-07
5.94818e-07
5.75458e-07
5.49517e-07
5.17156e-07
4.78968e-07
4.36003e-07
3.89754e-07
3.4208e-07
2.95101e-07
2.5109e-07
2.1245e-07
1.81909e-07
1.63919e-07
1.64678e-07
2.07002e-07
4.19513e-07
2.05015e-07
9.85018e-08
7.1307e-08
6.11159e-08
5.76762e-08
5.78211e-08
6.02216e-08
6.41608e-08
6.91906e-08
7.5002e-08
8.1371e-08
8.81349e-08
9.51797e-08
1.02433e-07
1.09855e-07
1.1744e-07
1.25203e-07
1.33177e-07
1.4141e-07
1.49959e-07
1.58882e-07
1.68241e-07
1.78093e-07
1.8849e-07
1.99473e-07
2.11075e-07
2.23317e-07
2.36202e-07
2.4972e-07
2.63844e-07
2.78526e-07
2.93705e-07
3.093e-07
3.25219e-07
3.41359e-07
3.57612e-07
3.73872e-07
3.90041e-07
4.06038e-07
4.21804e-07
4.37307e-07
4.5255e-07
4.67564e-07
4.82408e-07
4.97161e-07
5.11905e-07
5.26716e-07
5.41636e-07
5.56659e-07
5.71704e-07
5.86601e-07
6.01069e-07
6.14711e-07
6.2701e-07
6.37351e-07
6.44697e-07
6.47936e-07
6.47644e-07
6.4197e-07
6.30055e-07
6.1138e-07
5.85674e-07
5.53016e-07
5.13924e-07
4.69407e-07
4.20967e-07
3.70543e-07
3.20415e-07
2.7309e-07
2.31266e-07
1.98015e-07
1.78327e-07
1.78892e-07
2.24546e-07
4.54747e-07
2.2479e-07
1.07843e-07
7.77563e-08
6.62322e-08
6.20582e-08
6.17813e-08
6.39571e-08
6.78131e-08
7.28655e-08
7.87802e-08
8.53147e-08
9.22923e-08
9.95889e-08
1.07124e-07
1.14857e-07
1.22775e-07
1.30893e-07
1.39247e-07
1.47882e-07
1.56856e-07
1.66228e-07
1.76058e-07
1.864e-07
1.97303e-07
2.08806e-07
2.20935e-07
2.33702e-07
2.47106e-07
2.61124e-07
2.7572e-07
2.90837e-07
3.06403e-07
3.22329e-07
3.38518e-07
3.54863e-07
3.71258e-07
3.87606e-07
4.03822e-07
4.19844e-07
4.35639e-07
4.51205e-07
4.66577e-07
4.81819e-07
4.97021e-07
5.12286e-07
5.27716e-07
5.43392e-07
5.59358e-07
5.75594e-07
5.92e-07
6.08379e-07
6.24419e-07
6.39685e-07
6.5363e-07
6.65589e-07
6.74669e-07
6.79341e-07
6.80245e-07
6.75926e-07
6.65072e-07
6.47153e-07
6.21824e-07
5.8907e-07
5.49317e-07
5.035e-07
4.53094e-07
4.00081e-07
3.46869e-07
2.96192e-07
2.5105e-07
2.14885e-07
1.93269e-07
1.93416e-07
2.42228e-07
4.90055e-07
2.45261e-07
1.17515e-07
8.44437e-08
7.15571e-08
6.66453e-08
6.59603e-08
6.79318e-08
7.17299e-08
7.6832e-08
8.28769e-08
8.96023e-08
9.68166e-08
1.04385e-07
1.1222e-07
1.20275e-07
1.28537e-07
1.37019e-07
1.45757e-07
1.54796e-07
1.64195e-07
1.74012e-07
1.84305e-07
1.95127e-07
2.06523e-07
2.18526e-07
2.31158e-07
2.44422e-07
2.58309e-07
2.72788e-07
2.87812e-07
3.03315e-07
3.19217e-07
3.35424e-07
3.51834e-07
3.68342e-07
3.84848e-07
4.01265e-07
4.17526e-07
4.33591e-07
4.49454e-07
4.65144e-07
4.80724e-07
4.96289e-07
5.11952e-07
5.27833e-07
5.44043e-07
5.60662e-07
5.77723e-07
5.95186e-07
6.12929e-07
6.30723e-07
6.48227e-07
6.64979e-07
6.80406e-07
6.93821e-07
7.04358e-07
7.10442e-07
7.12322e-07
7.09282e-07
6.99469e-07
6.82354e-07
6.57527e-07
6.24876e-07
5.84717e-07
5.37884e-07
4.85786e-07
4.30405e-07
3.74246e-07
3.20244e-07
2.71705e-07
2.32465e-07
2.08709e-07
2.08238e-07
2.60043e-07
5.25436e-07
2.66431e-07
1.27517e-07
9.1366e-08
7.70838e-08
7.14281e-08
7.0345e-08
7.213e-08
7.58924e-08
8.1068e-08
8.72668e-08
9.42047e-08
1.01674e-07
1.0953e-07
1.17676e-07
1.26063e-07
1.34674e-07
1.43523e-07
1.52644e-07
1.62085e-07
1.71903e-07
1.82156e-07
1.929e-07
2.04187e-07
2.16056e-07
2.28537e-07
2.41643e-07
2.55373e-07
2.69706e-07
2.84605e-07
3.00013e-07
3.15858e-07
3.32052e-07
3.48497e-07
3.65092e-07
3.81736e-07
3.98338e-07
4.14826e-07
4.31151e-07
4.47299e-07
4.6329e-07
4.79181e-07
4.95064e-07
5.11053e-07
5.27281e-07
5.43876e-07
5.60947e-07
5.78567e-07
5.96748e-07
6.15428e-07
6.34456e-07
6.53574e-07
6.72414e-07
6.90492e-07
7.07221e-07
7.219e-07
7.33673e-07
7.41027e-07
7.43731e-07
7.41845e-07
7.33015e-07
7.1672e-07
6.92487e-07
6.60111e-07
6.19788e-07
5.72229e-07
5.1874e-07
4.6126e-07
4.02347e-07
3.45108e-07
2.93147e-07
2.50711e-07
2.24627e-07
2.23353e-07
2.77996e-07
5.60904e-07
2.88304e-07
1.3785e-07
9.85206e-08
8.28072e-08
7.63988e-08
7.4925e-08
7.65385e-08
8.02847e-08
8.5555e-08
9.19278e-08
9.90963e-08
1.06836e-07
1.1499e-07
1.23456e-07
1.32178e-07
1.41139e-07
1.50353e-07
1.59852e-07
1.69688e-07
1.79914e-07
1.9059e-07
2.0177e-07
2.13502e-07
2.25822e-07
2.38754e-07
2.52306e-07
2.66467e-07
2.81211e-07
2.96492e-07
3.12246e-07
3.28394e-07
3.44844e-07
3.61499e-07
3.78258e-07
3.95029e-07
4.11732e-07
4.28312e-07
4.44743e-07
4.61034e-07
4.77231e-07
4.93416e-07
5.09703e-07
5.26224e-07
5.43119e-07
5.60517e-07
5.7852e-07
5.97182e-07
6.16493e-07
6.36362e-07
6.56609e-07
6.76948e-07
6.96991e-07
7.16233e-07
7.34084e-07
7.49834e-07
7.62638e-07
7.71083e-07
7.74484e-07
7.73587e-07
7.65653e-07
7.50147e-07
7.26552e-07
6.94575e-07
6.54293e-07
6.06277e-07
5.51702e-07
4.9242e-07
4.30991e-07
3.70655e-07
3.15295e-07
2.69582e-07
2.4101e-07
2.38763e-07
2.96096e-07
5.96485e-07
3.10882e-07
1.48513e-07
1.05906e-07
8.87228e-08
8.1551e-08
7.96916e-08
8.11464e-08
8.48936e-08
9.02769e-08
9.68411e-08
1.04255e-07
1.12276e-07
1.20736e-07
1.29524e-07
1.38581e-07
1.4789e-07
1.57461e-07
1.67331e-07
1.77549e-07
1.8817e-07
1.99253e-07
2.10851e-07
2.23006e-07
2.35753e-07
2.4911e-07
2.63077e-07
2.77639e-07
2.92761e-07
3.08391e-07
3.24458e-07
3.4088e-07
3.57564e-07
3.74413e-07
3.91332e-07
4.08239e-07
4.25069e-07
4.41785e-07
4.58383e-07
4.74895e-07
4.91392e-07
5.07976e-07
5.24777e-07
5.41938e-07
5.59599e-07
5.77884e-07
5.96879e-07
6.16614e-07
6.37053e-07
6.58077e-07
6.79474e-07
7.00937e-07
7.22053e-07
7.42311e-07
7.61117e-07
7.77756e-07
7.91401e-07
8.00754e-07
8.04752e-07
8.04636e-07
7.97475e-07
7.82681e-07
7.59707e-07
7.28187e-07
6.8809e-07
6.39844e-07
5.84468e-07
5.23687e-07
4.60011e-07
3.96763e-07
3.38077e-07
2.89043e-07
2.57849e-07
2.54473e-07
3.14361e-07
6.32214e-07
3.34167e-07
1.59508e-07
1.13519e-07
9.48271e-08
8.68793e-08
8.46374e-08
8.59443e-08
8.97075e-08
9.52195e-08
1.01989e-07
1.09659e-07
1.1797e-07
1.26739e-07
1.35849e-07
1.45238e-07
1.54886e-07
1.64806e-07
1.75033e-07
1.85619e-07
1.9662e-07
2.08092e-07
2.20086e-07
2.32643e-07
2.45793e-07
2.59547e-07
2.73903e-07
2.88838e-07
3.04311e-07
3.20264e-07
3.36623e-07
3.53302e-07
3.70211e-07
3.87255e-07
4.04348e-07
4.2142e-07
4.38422e-07
4.55336e-07
4.7218e-07
4.89008e-07
5.0591e-07
5.23007e-07
5.40436e-07
5.58345e-07
5.7687e-07
5.96119e-07
6.16159e-07
6.36994e-07
6.58558e-07
6.80702e-07
7.03189e-07
7.25687e-07
7.4777e-07
7.68919e-07
7.88538e-07
8.05912e-07
8.20224e-07
8.30297e-07
8.34848e-07
8.35247e-07
8.28717e-07
8.14505e-07
7.92066e-07
7.60986e-07
7.21138e-07
6.7282e-07
6.16883e-07
5.54893e-07
4.89256e-07
4.23318e-07
3.61419e-07
3.09061e-07
2.75138e-07
2.70493e-07
3.32807e-07
6.68132e-07
3.58162e-07
1.70833e-07
1.2136e-07
1.01117e-07
9.2379e-08
8.9756e-08
9.0924e-08
9.47159e-08
1.0037e-07
1.07357e-07
1.15291e-07
1.23895e-07
1.32972e-07
1.42401e-07
1.52114e-07
1.62091e-07
1.72346e-07
1.82917e-07
1.93855e-07
2.05217e-07
2.17058e-07
2.29428e-07
2.42366e-07
2.55895e-07
2.70026e-07
2.84747e-07
3.00033e-07
3.15836e-07
3.32095e-07
3.48735e-07
3.65669e-07
3.82808e-07
4.00065e-07
4.17364e-07
4.34649e-07
4.51887e-07
4.6908e-07
4.86266e-07
5.03517e-07
5.2094e-07
5.38667e-07
5.56842e-07
5.75607e-07
5.95088e-07
6.15375e-07
6.36511e-07
6.58471e-07
6.8116e-07
7.044e-07
7.2793e-07
7.51398e-07
7.74368e-07
7.96312e-07
8.16639e-07
8.34629e-07
8.49475e-07
8.60105e-07
8.6509e-07
8.65818e-07
8.59732e-07
8.45923e-07
8.23865e-07
7.93118e-07
7.53494e-07
7.05173e-07
6.4885e-07
5.85902e-07
5.18586e-07
4.50206e-07
3.8525e-07
3.296e-07
2.92869e-07
2.86833e-07
3.51457e-07
7.0428e-07
3.82866e-07
1.82488e-07
1.29426e-07
1.07589e-07
9.80458e-08
9.5042e-08
9.60783e-08
9.99097e-08
1.05716e-07
1.12929e-07
1.21132e-07
1.30029e-07
1.39413e-07
1.49152e-07
1.59178e-07
1.69472e-07
1.80048e-07
1.90945e-07
2.02218e-07
2.13922e-07
2.26113e-07
2.3884e-07
2.52138e-07
2.66028e-07
2.80515e-07
2.95585e-07
3.11207e-07
3.2733e-07
3.4389e-07
3.60812e-07
3.78011e-07
3.95403e-07
4.12909e-07
4.30464e-07
4.48027e-07
4.65582e-07
4.8315e-07
5.00785e-07
5.18577e-07
5.36645e-07
5.55125e-07
5.74161e-07
5.93888e-07
6.14416e-07
6.35814e-07
6.58095e-07
6.8121e-07
7.05032e-07
7.29359e-07
7.53906e-07
7.78306e-07
8.02113e-07
8.24796e-07
8.45762e-07
8.6429e-07
8.7958e-07
8.90623e-07
8.95901e-07
8.96818e-07
8.90965e-07
8.7734e-07
8.55442e-07
8.24838e-07
7.85308e-07
7.36954e-07
6.80328e-07
6.16616e-07
5.47881e-07
4.77318e-07
4.09492e-07
3.50624e-07
3.11033e-07
3.03501e-07
3.70327e-07
7.407e-07
4.08278e-07
1.94472e-07
1.37715e-07
1.14241e-07
1.03876e-07
1.0049e-07
1.014e-07
1.0528e-07
1.11248e-07
1.18691e-07
1.27166e-07
1.36354e-07
1.46036e-07
1.56075e-07
1.66402e-07
1.76997e-07
1.87877e-07
1.99084e-07
2.10673e-07
2.22702e-07
2.35226e-07
2.48292e-07
2.61934e-07
2.7617e-07
2.91001e-07
3.0641e-07
3.22361e-07
3.38804e-07
3.55672e-07
3.72892e-07
3.90382e-07
4.08065e-07
4.25872e-07
4.4375e-07
4.61672e-07
4.7964e-07
4.97691e-07
5.15894e-07
5.34353e-07
5.53191e-07
5.72548e-07
5.92562e-07
6.13356e-07
6.3502e-07
6.57599e-07
6.81081e-07
7.05385e-07
7.3036e-07
7.5578e-07
7.81342e-07
8.06665e-07
8.31292e-07
8.54693e-07
8.76273e-07
8.95303e-07
9.10988e-07
9.2233e-07
9.27777e-07
9.28766e-07
9.22928e-07
9.09237e-07
8.87228e-07
8.56494e-07
8.16826e-07
7.68292e-07
7.1134e-07
6.46975e-07
5.77037e-07
5.04548e-07
4.34067e-07
3.72088e-07
3.29617e-07
3.20503e-07
3.89435e-07
7.77426e-07
4.34396e-07
2.06784e-07
1.46225e-07
1.21071e-07
1.09866e-07
1.06096e-07
1.06884e-07
1.10819e-07
1.16954e-07
1.24631e-07
1.33376e-07
1.42849e-07
1.5282e-07
1.63147e-07
1.73759e-07
1.84638e-07
1.95804e-07
2.07304e-07
2.19192e-07
2.3153e-07
2.44372e-07
2.57765e-07
2.71739e-07
2.86312e-07
3.01481e-07
3.17227e-07
3.33513e-07
3.50287e-07
3.67483e-07
3.8503e-07
4.02853e-07
4.20881e-07
4.39056e-07
4.57339e-07
4.75717e-07
4.94206e-07
5.12859e-07
5.31757e-07
5.51011e-07
5.70749e-07
5.91107e-07
6.12214e-07
6.34177e-07
6.57064e-07
6.80897e-07
7.05635e-07
7.31172e-07
7.57334e-07
7.83871e-07
8.10467e-07
8.3673e-07
8.62196e-07
8.8633e-07
9.08535e-07
9.28073e-07
9.44144e-07
9.55714e-07
9.61235e-07
9.62198e-07
9.56169e-07
9.42153e-07
9.19719e-07
8.88511e-07
8.48375e-07
7.99398e-07
7.41977e-07
6.76968e-07
6.05978e-07
5.31797e-07
4.58889e-07
3.93942e-07
3.48601e-07
3.37842e-07
4.08793e-07
8.14486e-07
4.61218e-07
2.19421e-07
1.54955e-07
1.28074e-07
1.16012e-07
1.11854e-07
1.12523e-07
1.16518e-07
1.22824e-07
1.30736e-07
1.39746e-07
1.49496e-07
1.59744e-07
1.70344e-07
1.81224e-07
1.9237e-07
2.03806e-07
2.15581e-07
2.27754e-07
2.40387e-07
2.53537e-07
2.67247e-07
2.81549e-07
2.96457e-07
3.11968e-07
3.2806e-07
3.44696e-07
3.61824e-07
3.79381e-07
3.973e-07
4.15511e-07
4.33953e-07
4.5258e-07
4.71363e-07
4.90304e-07
5.09434e-07
5.28815e-07
5.48539e-07
5.6872e-07
5.89487e-07
6.10969e-07
6.33281e-07
6.56512e-07
6.8071e-07
7.05868e-07
7.31923e-07
7.58745e-07
7.86136e-07
8.13833e-07
8.41504e-07
8.68749e-07
8.95098e-07
9.20014e-07
9.42892e-07
9.62981e-07
9.79468e-07
9.91243e-07
9.96782e-07
9.97647e-07
9.91248e-07
9.76653e-07
9.53459e-07
9.21384e-07
8.80361e-07
8.30561e-07
7.72398e-07
7.06633e-07
6.34655e-07
5.58975e-07
4.83871e-07
4.16128e-07
3.6796e-07
3.55512e-07
4.28407e-07
8.51896e-07
4.88737e-07
2.3238e-07
1.63901e-07
1.35249e-07
1.22311e-07
1.17761e-07
1.18312e-07
1.2237e-07
1.28847e-07
1.36991e-07
1.46261e-07
1.56277e-07
1.66788e-07
1.77644e-07
1.88775e-07
2.00171e-07
2.11861e-07
2.23898e-07
2.36344e-07
2.49263e-07
2.62713e-07
2.76739e-07
2.9137e-07
3.06621e-07
3.22486e-07
3.38944e-07
3.55957e-07
3.73476e-07
3.91441e-07
4.09789e-07
4.28459e-07
4.47399e-07
4.66573e-07
4.85964e-07
5.05587e-07
5.25483e-07
5.45724e-07
5.66408e-07
5.87649e-07
6.09573e-07
6.32297e-07
6.55923e-07
6.80519e-07
7.06111e-07
7.32669e-07
7.60105e-07
7.88268e-07
8.16943e-07
8.45852e-07
8.74655e-07
9.02944e-07
9.30245e-07
9.56016e-07
9.79643e-07
1.00036e-06
1.01733e-06
1.02934e-06
1.03489e-06
1.03561e-06
1.02871e-06
1.0133e-06
9.89018e-07
9.55648e-07
9.13253e-07
8.62145e-07
8.02835e-07
7.36069e-07
6.63055e-07
5.86005e-07
5.08925e-07
4.38579e-07
3.87659e-07
3.73504e-07
4.48278e-07
8.8966e-07
5.16948e-07
2.45659e-07
1.73061e-07
1.42592e-07
1.28759e-07
1.23812e-07
1.24245e-07
1.28366e-07
1.35015e-07
1.43386e-07
1.52906e-07
1.63176e-07
1.73933e-07
1.85028e-07
1.96394e-07
2.08024e-07
2.19954e-07
2.32241e-07
2.44952e-07
2.58154e-07
2.71905e-07
2.86252e-07
3.01223e-07
3.16832e-07
3.33075e-07
3.49929e-07
3.6736e-07
3.85319e-07
4.03753e-07
4.22602e-07
4.41815e-07
4.61348e-07
4.81175e-07
5.01293e-07
5.21723e-07
5.42517e-07
5.63754e-07
5.85532e-07
6.07964e-07
6.31168e-07
6.5525e-07
6.80294e-07
7.06349e-07
7.33416e-07
7.61445e-07
7.90327e-07
8.19892e-07
8.4991e-07
8.80095e-07
9.10097e-07
9.39506e-07
9.67843e-07
9.94561e-07
1.01904e-06
1.04049e-06
1.05804e-06
1.07038e-06
1.07597e-06
1.07654e-06
1.06904e-06
1.05265e-06
1.02696e-06
9.91868e-07
9.47567e-07
8.94574e-07
8.33588e-07
7.65431e-07
6.91208e-07
6.12832e-07
5.33962e-07
4.6122e-07
4.07654e-07
3.91797e-07
4.68397e-07
9.27766e-07
5.45842e-07
2.59252e-07
1.8243e-07
1.501e-07
1.35352e-07
1.30003e-07
1.30316e-07
1.345e-07
1.41317e-07
1.49908e-07
1.59667e-07
1.70175e-07
1.81163e-07
1.9248e-07
2.04063e-07
2.15914e-07
2.28073e-07
2.40604e-07
2.53578e-07
2.67066e-07
2.81126e-07
2.95807e-07
3.11138e-07
3.27133e-07
3.43788e-07
3.61082e-07
3.78983e-07
3.97445e-07
4.1642e-07
4.35856e-07
4.55708e-07
4.75941e-07
4.96539e-07
5.17507e-07
5.38876e-07
5.60704e-07
5.83072e-07
6.06078e-07
6.2983e-07
6.54434e-07
6.79983e-07
7.06544e-07
7.34143e-07
7.62764e-07
7.92333e-07
8.22724e-07
8.53751e-07
8.85175e-07
9.167e-07
9.47974e-07
9.78585e-07
1.00805e-06
1.03582e-06
1.06126e-06
1.08356e-06
1.10183e-06
1.11463e-06
1.12035e-06
1.12081e-06
1.1127e-06
1.09518e-06
1.06784e-06
1.03061e-06
9.8385e-07
9.28329e-07
8.6502e-07
7.94941e-07
7.19189e-07
6.39424e-07
5.58901e-07
4.83968e-07
4.27891e-07
4.10363e-07
4.88747e-07
9.66186e-07
5.75412e-07
2.73155e-07
1.92006e-07
1.5777e-07
1.42088e-07
1.36328e-07
1.36519e-07
1.40764e-07
1.47743e-07
1.56545e-07
1.6653e-07
1.7726e-07
1.88461e-07
1.99984e-07
2.11772e-07
2.23833e-07
2.36215e-07
2.48989e-07
2.62231e-07
2.76014e-07
2.904e-07
3.05439e-07
3.2116e-07
3.37579e-07
3.54692e-07
3.72482e-07
3.90918e-07
4.09959e-07
4.29562e-07
4.49681e-07
4.70279e-07
4.91329e-07
5.12823e-07
5.34773e-07
5.57217e-07
5.80215e-07
6.0385e-07
6.28214e-07
6.53408e-07
6.79526e-07
7.06646e-07
7.34814e-07
7.6404e-07
7.94285e-07
8.25458e-07
8.57416e-07
8.89964e-07
9.22851e-07
9.5578e-07
9.88396e-07
1.02029e-06
1.05098e-06
1.0799e-06
1.10642e-06
1.12971e-06
1.14883e-06
1.16228e-06
1.16828e-06
1.16869e-06
1.16002e-06
1.14133e-06
1.11214e-06
1.07241e-06
1.02266e-06
9.63925e-07
8.97553e-07
8.24879e-07
7.47129e-07
6.65781e-07
5.83668e-07
5.06738e-07
4.48308e-07
4.29166e-07
5.09302e-07
1.00488e-06
6.05645e-07
2.87364e-07
2.01784e-07
1.65597e-07
1.4896e-07
1.42783e-07
1.42849e-07
1.47149e-07
1.54284e-07
1.63286e-07
1.73481e-07
1.84418e-07
1.95816e-07
2.07531e-07
2.19511e-07
2.31776e-07
2.44381e-07
2.57403e-07
2.70925e-07
2.85023e-07
2.99762e-07
3.15192e-07
3.31346e-07
3.48238e-07
3.6587e-07
3.84223e-07
4.03272e-07
4.22981e-07
4.4331e-07
4.64221e-07
4.85682e-07
5.07675e-07
5.30196e-07
5.53264e-07
5.7692e-07
6.01226e-07
6.2626e-07
6.52109e-07
6.78862e-07
7.06601e-07
7.35386e-07
7.65245e-07
7.96169e-07
8.28101e-07
8.60933e-07
8.9451e-07
9.28627e-07
9.63029e-07
9.97416e-07
1.03144e-06
1.06469e-06
1.09668e-06
1.12686e-06
1.15459e-06
1.179e-06
1.19913e-06
1.21344e-06
1.2199e-06
1.22036e-06
1.21126e-06
1.19144e-06
1.1603e-06
1.11778e-06
1.06453e-06
1.0019e-06
9.31654e-07
8.55588e-07
7.75209e-07
6.91941e-07
6.08205e-07
5.2944e-07
4.68832e-07
4.48156e-07
5.30024e-07
1.04378e-06
6.36529e-07
3.01871e-07
2.1176e-07
1.73578e-07
1.55967e-07
1.49362e-07
1.49298e-07
1.53649e-07
1.6093e-07
1.70119e-07
1.8051e-07
1.91637e-07
2.03217e-07
2.15111e-07
2.27278e-07
2.39746e-07
2.5258e-07
2.65864e-07
2.79687e-07
2.9413e-07
3.09258e-07
3.25125e-07
3.41765e-07
3.59195e-07
3.77416e-07
3.96415e-07
4.16169e-07
4.36645e-07
4.5781e-07
4.79631e-07
5.02082e-07
5.2515e-07
5.48836e-07
5.73161e-07
5.98168e-07
6.23916e-07
6.50479e-07
6.77933e-07
7.06355e-07
7.35813e-07
7.66348e-07
7.97973e-07
8.30657e-07
8.64327e-07
8.98864e-07
9.341e-07
9.69823e-07
1.00578e-06
1.04167e-06
1.07714e-06
1.11181e-06
1.14518e-06
1.17671e-06
1.20574e-06
1.23141e-06
1.2527e-06
1.2681e-06
1.27524e-06
1.27592e-06
1.26658e-06
1.24574e-06
1.21264e-06
1.16715e-06
1.10999e-06
1.04279e-06
9.67822e-07
8.87459e-07
8.0367e-07