/*--------------------------------*- C++ -*----------------------------------*\
  =========                 |
  \\      /  F ield         | OpenFOAM: The Open Source CFD Toolbox
   \\    /   O peration     | Website:  https://openfoam.org
    \\  /    A nd           | Version:  12
     \\/     M anipulation  |
\*---------------------------------------------------------------------------*/
FoamFile
{
    format      ascii;
    class       volScalarField;
    location    "4.5";
    object      k;
}
// * * * * * * * * * * * * * * * * * * * * * * * * * * * * * * * * * * * * * //

dimensions      [0 2 -2 0 0 0 0];

internalField   nonuniform List<scalar> 
5625
(
8.03224e-13
5.42918e-12
1.20416e-11
1.98244e-11
2.8359e-11
3.73569e-11
4.65949e-11
5.58926e-11
6.51043e-11
7.41152e-11
8.28395e-11
9.12191e-11
9.92223e-11
1.06842e-10
1.14091e-10
1.21005e-10
1.27629e-10
1.34024e-10
1.40256e-10
1.46396e-10
1.52516e-10
1.58686e-10
1.64976e-10
1.71448e-10
1.78162e-10
1.85171e-10
1.92524e-10
2.00263e-10
2.08426e-10
2.17046e-10
2.26152e-10
2.35765e-10
2.45906e-10
2.56588e-10
2.67819e-10
2.79602e-10
2.91933e-10
3.048e-10
3.18181e-10
3.32043e-10
3.4634e-10
3.61007e-10
3.75963e-10
3.911e-10
4.06284e-10
4.21351e-10
4.36099e-10
4.50286e-10
4.63629e-10
4.75799e-10
4.86421e-10
4.9507e-10
5.01241e-10
5.04276e-10
5.04464e-10
5.0092e-10
4.93191e-10
4.81005e-10
4.64234e-10
4.42909e-10
4.17249e-10
3.87674e-10
3.54806e-10
3.1944e-10
2.82498e-10
2.44966e-10
2.07815e-10
1.71934e-10
1.38067e-10
1.0678e-10
7.84631e-11
5.33781e-11
3.17753e-11
1.41564e-11
2.08902e-12
6.06965e-12
4.83466e-11
1.0804e-10
1.78163e-10
2.55018e-10
3.36025e-10
4.1918e-10
5.02863e-10
5.85765e-10
6.66854e-10
7.45357e-10
8.20752e-10
8.92754e-10
9.61298e-10
1.02651e-09
1.08869e-09
1.14828e-09
1.20579e-09
1.26184e-09
1.31706e-09
1.3721e-09
1.4276e-09
1.48416e-09
1.54238e-09
1.60276e-09
1.66581e-09
1.73194e-09
1.80156e-09
1.87498e-09
1.95252e-09
2.03443e-09
2.12091e-09
2.21213e-09
2.30822e-09
2.40926e-09
2.51526e-09
2.62619e-09
2.74194e-09
2.86232e-09
2.98703e-09
3.11565e-09
3.24762e-09
3.38218e-09
3.51839e-09
3.65503e-09
3.79062e-09
3.92335e-09
4.05106e-09
4.17119e-09
4.28078e-09
4.37647e-09
4.45443e-09
4.51014e-09
4.53743e-09
4.53906e-09
4.50701e-09
4.43726e-09
4.32742e-09
4.17631e-09
3.98424e-09
3.75318e-09
3.48693e-09
3.19109e-09
2.87281e-09
2.54039e-09
2.2027e-09
1.86848e-09
1.54571e-09
1.24108e-09
9.59675e-10
7.04973e-10
4.79308e-10
2.8487e-10
1.25969e-10
1.57766e-11
1.28856e-11
1.10347e-10
2.48206e-10
4.10165e-10
5.87638e-10
7.74667e-10
9.66623e-10
1.15977e-09
1.35109e-09
1.53819e-09
1.71929e-09
1.8932e-09
2.05925e-09
2.2173e-09
2.36765e-09
2.51099e-09
2.64833e-09
2.78091e-09
2.9101e-09
3.03739e-09
3.16429e-09
3.29226e-09
3.42272e-09
3.55701e-09
3.69633e-09
3.84182e-09
3.99446e-09
4.15516e-09
4.32469e-09
4.50374e-09
4.69289e-09
4.89263e-09
5.10334e-09
5.32533e-09
5.55874e-09
5.80365e-09
6.05996e-09
6.32742e-09
6.60556e-09
6.89369e-09
7.19085e-09
7.49568e-09
7.80648e-09
8.12099e-09
8.43644e-09
8.74936e-09
9.05557e-09
9.35003e-09
9.62686e-09
9.87921e-09
1.00993e-08
1.02785e-08
1.04061e-08
1.04674e-08
1.04708e-08
1.03962e-08
1.02345e-08
9.98025e-09
9.63081e-09
9.1869e-09
8.65306e-09
8.0381e-09
7.35493e-09
6.62012e-09
5.85285e-09
5.07361e-09
4.3026e-09
3.55825e-09
2.85597e-09
2.20742e-09
1.62059e-09
1.10074e-09
6.52831e-10
2.86822e-10
3.34101e-11
2.10639e-11
1.84867e-10
4.17837e-10
6.91895e-10
9.92272e-10
1.3088e-09
1.63363e-09
1.96042e-09
2.28404e-09
2.60047e-09
2.90668e-09
3.20065e-09
3.48127e-09
3.7483e-09
4.00227e-09
4.24436e-09
4.4763e-09
4.70018e-09
4.91837e-09
5.13338e-09
5.34776e-09
5.56402e-09
5.78455e-09
6.0116e-09
6.24725e-09
6.49339e-09
6.75171e-09
7.02371e-09
7.31072e-09
7.61391e-09
7.93425e-09
8.27255e-09
8.62949e-09
9.00552e-09
9.40094e-09
9.81581e-09
1.025e-08
1.0703e-08
1.1174e-08
1.16618e-08
1.21648e-08
1.26806e-08
1.32062e-08
1.3738e-08
1.4271e-08
1.47995e-08
1.53163e-08
1.5813e-08
1.62795e-08
1.67045e-08
1.70748e-08
1.7376e-08
1.75897e-08
1.76903e-08
1.76956e-08
1.75684e-08
1.72939e-08
1.68631e-08
1.62714e-08
1.552e-08
1.46165e-08
1.35756e-08
1.24194e-08
1.11757e-08
9.8774e-09
8.55913e-09
7.25531e-09
5.99719e-09
4.81086e-09
3.716e-09
2.72591e-09
1.84931e-09
1.09446e-09
4.78522e-10
5.43815e-11
3.03481e-11
2.69017e-10
6.10142e-10
1.01215e-09
1.45299e-09
1.91759e-09
2.39432e-09
2.87385e-09
3.34862e-09
3.81272e-09
4.26169e-09
4.69258e-09
5.10376e-09
5.49492e-09
5.86684e-09
6.22131e-09
6.56087e-09
6.88863e-09
7.20809e-09
7.52298e-09
7.83703e-09
8.15395e-09
8.47725e-09
8.81026e-09
9.15601e-09
9.51726e-09
9.89651e-09
1.0296e-08
1.07175e-08
1.1163e-08
1.16336e-08
1.21307e-08
1.26552e-08
1.32077e-08
1.37886e-08
1.43979e-08
1.50355e-08
1.57004e-08
1.63915e-08
1.7107e-08
1.78441e-08
1.85996e-08
1.9369e-08
2.01466e-08
2.09255e-08
2.1697e-08
2.24508e-08
2.31746e-08
2.38538e-08
2.4472e-08
2.50102e-08
2.54476e-08
2.57569e-08
2.59002e-08
2.59075e-08
2.57208e-08
2.53186e-08
2.46878e-08
2.38217e-08
2.27212e-08
2.13974e-08
1.98716e-08
1.81758e-08
1.63514e-08
1.44465e-08
1.25126e-08
1.06006e-08
8.75676e-09
7.01948e-09
5.41756e-09
3.9703e-09
2.69011e-09
1.58895e-09
6.92243e-10
7.78819e-11
4.05592e-11
3.61239e-10
8.21336e-10
1.36453e-09
1.96063e-09
2.58898e-09
3.23373e-09
3.88216e-09
4.524e-09
5.15121e-09
5.75777e-09
6.33967e-09
6.89474e-09
7.42258e-09
7.9243e-09
8.40237e-09
8.86027e-09
9.30228e-09
9.73316e-09
1.0158e-08
1.05819e-08
1.10098e-08
1.14465e-08
1.18966e-08
1.23641e-08
1.28528e-08
1.33659e-08
1.39066e-08
1.44773e-08
1.50803e-08
1.57174e-08
1.63904e-08
1.71002e-08
1.78479e-08
1.86336e-08
1.94576e-08
2.03191e-08
2.1217e-08
2.21495e-08
2.3114e-08
2.41069e-08
2.51233e-08
2.61571e-08
2.72009e-08
2.8245e-08
2.9278e-08
3.02861e-08
3.1253e-08
3.21597e-08
3.29841e-08
3.37015e-08
3.42845e-08
3.4696e-08
3.48846e-08
3.48952e-08
3.46454e-08
3.41064e-08
3.32602e-08
3.2097e-08
3.06174e-08
2.88352e-08
2.67786e-08
2.44906e-08
2.20272e-08
1.94539e-08
1.68413e-08
1.42588e-08
1.17699e-08
9.42689e-09
7.26877e-09
5.32135e-09
3.6009e-09
2.12321e-09
9.22537e-10
1.03298e-10
5.15823e-11
4.60596e-10
1.0491e-09
1.74506e-09
2.5094e-09
3.31533e-09
4.1423e-09
4.97388e-09
5.7968e-09
6.60068e-09
7.37779e-09
8.12294e-09
8.83343e-09
9.50875e-09
1.01504e-08
1.07617e-08
1.13471e-08
1.19122e-08
1.24631e-08
1.30065e-08
1.3549e-08
1.40969e-08
1.46564e-08
1.52332e-08
1.58327e-08
1.64595e-08
1.71179e-08
1.78117e-08
1.85442e-08
1.9318e-08
2.01357e-08
2.09989e-08
2.19092e-08
2.28674e-08
2.38739e-08
2.49283e-08
2.60299e-08
2.71768e-08
2.83665e-08
2.95954e-08
3.08585e-08
3.21498e-08
3.34612e-08
3.4783e-08
3.61034e-08
3.74079e-08
3.86794e-08
3.98975e-08
4.10389e-08
4.20762e-08
4.29789e-08
4.37131e-08
4.42313e-08
4.44684e-08
4.44847e-08
4.41721e-08
4.34926e-08
4.24228e-08
4.09488e-08
3.907e-08
3.68024e-08
3.4181e-08
3.12601e-08
2.81114e-08
2.48196e-08
2.14761e-08
1.81713e-08
1.49877e-08
1.19933e-08
9.23838e-09
6.75578e-09
4.56579e-09
2.68801e-09
1.16556e-09
1.30188e-10
6.33433e-11
5.66482e-10
1.29195e-09
2.15112e-09
3.09545e-09
4.09148e-09
5.11359e-09
6.14125e-09
7.15795e-09
8.15073e-09
9.11e-09
1.00294e-08
1.09055e-08
1.17378e-08
1.25283e-08
1.32811e-08
1.40019e-08
1.46978e-08
1.53764e-08
1.60459e-08
1.67145e-08
1.73903e-08
1.80807e-08
1.87929e-08
1.95333e-08
2.03078e-08
2.11215e-08
2.19789e-08
2.2884e-08
2.38401e-08
2.48499e-08
2.59156e-08
2.70385e-08
2.82195e-08
2.94588e-08
3.07557e-08
3.21088e-08
3.35155e-08
3.49723e-08
3.64746e-08
3.8016e-08
3.95887e-08
4.11831e-08
4.27873e-08
4.4387e-08
4.59651e-08
4.75013e-08
4.89719e-08
5.0349e-08
5.16006e-08
5.26904e-08
5.35781e-08
5.42067e-08
5.44959e-08
5.45216e-08
5.41494e-08
5.33303e-08
5.20348e-08
5.0244e-08
4.79547e-08
4.51847e-08
4.19752e-08
3.83921e-08
3.45235e-08
3.04743e-08
2.63585e-08
2.22896e-08
1.83707e-08
1.46872e-08
1.13021e-08
8.25577e-09
5.57275e-09
3.27642e-09
1.41844e-09
1.58211e-10
7.57942e-11
6.78494e-10
1.54889e-09
2.58096e-09
3.71615e-09
4.91393e-09
6.14315e-09
7.37888e-09
8.60107e-09
9.79402e-09
1.09461e-08
1.20496e-08
1.31005e-08
1.40983e-08
1.50455e-08
1.59472e-08
1.68104e-08
1.76437e-08
1.84566e-08
1.92588e-08
2.00603e-08
2.08708e-08
2.16994e-08
2.25545e-08
2.34437e-08
2.43741e-08
2.53517e-08
2.63817e-08
2.74687e-08
2.86164e-08
2.98279e-08
3.11053e-08
3.24501e-08
3.38628e-08
3.53433e-08
3.68902e-08
3.85014e-08
4.01735e-08
4.19018e-08
4.36802e-08
4.55011e-08
4.73551e-08
4.92308e-08
5.11145e-08
5.29896e-08
5.48368e-08
5.66331e-08
5.83516e-08
5.99606e-08
6.14238e-08
6.26995e-08
6.37407e-08
6.4482e-08
6.4827e-08
6.48657e-08
6.44388e-08
6.34838e-08
6.19644e-08
5.98559e-08
5.71521e-08
5.38713e-08
5.00608e-08
4.57976e-08
4.11863e-08
3.6353e-08
3.14352e-08
2.65705e-08
2.18848e-08
1.74824e-08
1.34401e-08
9.80708e-09
6.61231e-09
3.88299e-09
1.67888e-09
1.87102e-10
8.89032e-11
7.96359e-10
1.81927e-09
3.03341e-09
4.36975e-09
5.78024e-09
7.22787e-09
8.68297e-09
1.01217e-08
1.15253e-08
1.288e-08
1.41768e-08
1.54109e-08
1.65818e-08
1.76927e-08
1.87497e-08
1.97614e-08
2.0738e-08
2.16908e-08
2.26314e-08
2.35717e-08
2.4523e-08
2.54959e-08
2.65003e-08
2.75452e-08
2.86385e-08
2.97871e-08
3.0997e-08
3.22733e-08
3.36199e-08
3.50401e-08
3.65359e-08
3.81087e-08
3.97585e-08
4.14845e-08
4.32848e-08
4.5156e-08
4.70938e-08
4.90922e-08
5.11438e-08
5.32396e-08
5.53687e-08
5.75181e-08
5.96725e-08
6.18138e-08
6.39206e-08
6.59677e-08
6.79256e-08
6.97594e-08
7.14286e-08
7.28862e-08
7.40789e-08
7.49334e-08
7.53365e-08
7.53912e-08
7.49139e-08
7.38269e-08
7.20873e-08
6.96641e-08
6.65471e-08
6.27549e-08
5.83398e-08
5.33898e-08
4.80254e-08
4.23935e-08
3.66557e-08
3.09745e-08
2.54998e-08
2.03563e-08
1.5636e-08
1.13982e-08
7.67693e-09
4.50341e-09
1.94507e-09
2.16654e-10
1.02648e-10
9.19897e-10
2.10265e-09
3.50769e-09
5.05504e-09
6.68876e-09
8.36561e-09
1.00509e-08
1.17166e-08
1.33408e-08
1.49074e-08
1.64058e-08
1.78307e-08
1.91816e-08
2.04624e-08
2.16804e-08
2.28458e-08
2.39706e-08
2.50682e-08
2.61521e-08
2.72361e-08
2.83331e-08
2.94557e-08
3.06149e-08
3.1821e-08
3.30828e-08
3.44081e-08
3.58036e-08
3.72745e-08
3.88251e-08
4.04585e-08
4.21767e-08
4.39804e-08
4.58692e-08
4.78413e-08
4.98939e-08
5.20226e-08
5.42218e-08
5.64841e-08
5.88011e-08
6.11622e-08
6.35554e-08
6.59665e-08
6.83789e-08
7.07733e-08
7.31269e-08
7.54128e-08
7.75992e-08
7.96484e-08
8.15159e-08
8.31496e-08
8.44896e-08
8.54551e-08
8.59156e-08
8.59871e-08
8.54615e-08
8.42452e-08
8.22891e-08
7.95557e-08
7.6031e-08
7.17332e-08
6.6719e-08
6.10859e-08
5.49698e-08
4.85372e-08
4.19732e-08
3.54657e-08
2.91889e-08
2.32892e-08
1.7876e-08
1.30196e-08
8.7605e-09
5.13421e-09
2.21555e-09
2.46699e-10
1.17016e-10
1.04899e-09
2.39875e-09
4.00329e-09
5.77125e-09
7.6384e-09
9.55493e-09
1.14807e-08
1.33834e-08
1.52377e-08
1.70248e-08
1.87327e-08
2.03552e-08
2.18922e-08
2.33483e-08
2.47321e-08
2.60556e-08
2.73329e-08
2.85792e-08
2.98104e-08
3.10421e-08
3.22891e-08
3.35654e-08
3.48837e-08
3.62552e-08
3.76899e-08
3.91961e-08
4.07809e-08
4.24499e-08
4.42073e-08
4.60561e-08
4.79977e-08
5.00322e-08
5.21585e-08
5.43739e-08
5.66741e-08
5.90539e-08
6.15061e-08
6.40225e-08
6.65931e-08
6.92066e-08
7.18498e-08
7.45077e-08
7.7163e-08
7.97956e-08
8.23818e-08
8.48932e-08
8.72962e-08
8.95503e-08
9.1607e-08
9.34089e-08
9.48895e-08
9.59597e-08
9.64732e-08
9.65593e-08
9.59833e-08
9.46377e-08
9.24675e-08
8.94294e-08
8.55054e-08
8.07131e-08
7.51127e-08
6.88101e-08
6.19545e-08
5.47307e-08
4.73456e-08
4.00118e-08
3.29284e-08
2.62647e-08
2.01485e-08
1.46636e-08
9.85815e-09
5.77262e-09
2.48912e-09
2.77103e-10
1.31998e-10
1.18358e-09
2.70742e-09
4.51992e-09
6.51788e-09
8.62845e-09
1.07949e-08
1.29713e-08
1.51206e-08
1.72139e-08
1.92297e-08
2.11542e-08
2.29807e-08
2.47092e-08
2.63451e-08
2.78988e-08
2.9384e-08
3.0817e-08
3.22152e-08
3.35967e-08
3.49791e-08
3.63792e-08
3.78125e-08
3.92929e-08
4.0833e-08
4.24433e-08
4.41329e-08
4.59091e-08
4.77777e-08
4.97426e-08
5.18064e-08
5.39699e-08
5.62325e-08
5.85919e-08
6.10444e-08
6.35847e-08
6.6206e-08
6.89002e-08
7.16579e-08
7.44682e-08
7.7319e-08
8.01966e-08
8.30856e-08
8.59682e-08
8.8824e-08
9.16285e-08
9.43523e-08
9.69599e-08
9.94076e-08
1.01643e-07
1.03603e-07
1.05215e-07
1.06379e-07
1.06937e-07
1.07032e-07
1.06399e-07
1.0492e-07
1.02537e-07
9.9199e-08
9.48862e-08
8.96148e-08
8.34476e-08
7.6497e-08
6.89236e-08
6.09277e-08
5.27365e-08
4.45855e-08
3.66986e-08
2.92688e-08
2.24444e-08
1.63243e-08
1.09661e-08
6.41649e-09
2.76487e-09
3.07762e-10
1.47589e-10
1.32362e-09
3.02856e-09
5.05742e-09
7.29469e-09
9.6585e-09
1.20848e-08
1.45217e-08
1.6927e-08
1.92679e-08
2.15199e-08
2.36677e-08
2.57037e-08
2.76282e-08
2.94479e-08
3.11746e-08
3.28242e-08
3.44153e-08
3.59677e-08
3.75017e-08
3.9037e-08
4.05922e-08
4.21845e-08
4.38291e-08
4.55394e-08
4.73268e-08
4.92008e-08
5.11689e-08
5.32366e-08
5.54076e-08
5.7684e-08
6.00657e-08
6.25512e-08
6.51371e-08
6.78184e-08
7.05887e-08
7.34401e-08
7.63635e-08
7.93484e-08
8.23836e-08
8.54564e-08
8.85529e-08
9.16577e-08
9.47531e-08
9.78183e-08
1.00828e-07
1.03752e-07
1.06553e-07
1.09183e-07
1.11585e-07
1.13692e-07
1.15423e-07
1.16664e-07
1.17253e-07
1.17348e-07
1.16646e-07
1.15029e-07
1.1243e-07
1.08798e-07
1.04107e-07
9.83751e-08
9.16649e-08
8.40941e-08
7.58315e-08
6.70907e-08
5.8116e-08
4.91645e-08
4.04836e-08
3.22908e-08
2.47564e-08
1.79969e-08
1.20815e-08
7.06419e-09
3.0421e-09
3.38597e-10
1.63789e-10
1.46911e-09
3.36214e-09
5.61573e-09
8.10154e-09
1.07284e-08
1.34245e-08
1.61314e-08
1.88018e-08
2.13984e-08
2.38938e-08
2.62708e-08
2.85212e-08
3.06456e-08
3.26519e-08
3.45539e-08
3.63698e-08
3.81206e-08
3.98285e-08
4.15162e-08
4.32056e-08
4.49171e-08
4.66693e-08
4.84789e-08
5.036e-08
5.23247e-08
5.43826e-08
5.65414e-08
5.88062e-08
6.11804e-08
6.3665e-08
6.62594e-08
6.89608e-08
7.17647e-08
7.46651e-08
7.76543e-08
8.07234e-08
8.38626e-08
8.70608e-08
9.03065e-08
9.35871e-08
9.68887e-08
1.00196e-07
1.03492e-07
1.06755e-07
1.09959e-07
1.13073e-07
1.16055e-07
1.18856e-07
1.21414e-07
1.23653e-07
1.25488e-07
1.26787e-07
1.27391e-07
1.27473e-07
1.26687e-07
1.24921e-07
1.22104e-07
1.1818e-07
1.13124e-07
1.0695e-07
9.9723e-08
9.1563e-08
8.26447e-08
7.31914e-08
6.34618e-08
5.37316e-08
4.42712e-08
3.53225e-08
2.70794e-08
1.96783e-08
1.32023e-08
7.71461e-09
3.3203e-09
3.69551e-10
1.80598e-10
1.62004e-09
3.7082e-09
6.19485e-09
8.93844e-09
1.18379e-08
1.48136e-08
1.78001e-08
2.07443e-08
2.36043e-08
2.63497e-08
2.89612e-08
3.14301e-08
3.37574e-08
3.59526e-08
3.80313e-08
4.00144e-08
4.19254e-08
4.37893e-08
4.5631e-08
4.74747e-08
4.93426e-08
5.12549e-08
5.32292e-08
5.52806e-08
5.74215e-08
5.96617e-08
6.20087e-08
6.44673e-08
6.70402e-08
6.97276e-08
7.25279e-08
7.54371e-08
7.84498e-08
8.15588e-08
8.47554e-08
8.80302e-08
9.13725e-08
9.47715e-08
9.82153e-08
1.01692e-07
1.05187e-07
1.08687e-07
1.12174e-07
1.15626e-07
1.19017e-07
1.22312e-07
1.25467e-07
1.28427e-07
1.31126e-07
1.33483e-07
1.35404e-07
1.3674e-07
1.37339e-07
1.37394e-07
1.36505e-07
1.34579e-07
1.31537e-07
1.27324e-07
1.21912e-07
1.15316e-07
1.07598e-07
9.88807e-08
8.93419e-08
7.92112e-08
6.87584e-08
5.82753e-08
4.80533e-08
3.83586e-08
2.94102e-08
2.13667e-08
1.43275e-08
8.36707e-09
3.59916e-09
4.00588e-10
1.98018e-10
1.77644e-09
4.06675e-09
6.79485e-09
9.80543e-09
1.29873e-08
1.62521e-08
1.95274e-08
2.27538e-08
2.58846e-08
2.8886e-08
3.17367e-08
3.44273e-08
3.69598e-08
3.9345e-08
4.16011e-08
4.37514e-08
4.58224e-08
4.78418e-08
4.9837e-08
5.18344e-08
5.3858e-08
5.59295e-08
5.80674e-08
6.02875e-08
6.26025e-08
6.50223e-08
6.75541e-08
7.02022e-08
7.29685e-08
7.58523e-08
7.8851e-08
8.19598e-08
8.51719e-08
8.84794e-08
9.18729e-08
9.53424e-08
9.88773e-08
1.02467e-07
1.06099e-07
1.09763e-07
1.13445e-07
1.17131e-07
1.20804e-07
1.2444e-07
1.28011e-07
1.3148e-07
1.348e-07
1.3791e-07
1.40737e-07
1.43195e-07
1.45185e-07
1.46534e-07
1.47112e-07
1.4712e-07
1.46109e-07
1.44008e-07
1.40736e-07
1.36233e-07
1.30473e-07
1.23469e-07
1.15284e-07
1.06039e-07
9.59137e-08
8.51406e-08
7.39973e-08
6.27887e-08
5.1825e-08
4.13961e-08
3.17472e-08
2.30611e-08
1.54567e-08
9.02132e-09
3.87853e-09
4.31692e-10
2.16051e-10
1.93834e-09
4.43785e-09
7.41579e-09
1.07026e-08
1.41764e-08
1.774e-08
2.13131e-08
2.48299e-08
2.82384e-08
3.15011e-08
3.45948e-08
3.75098e-08
4.02486e-08
4.28242e-08
4.52572e-08
4.75739e-08
4.98038e-08
5.19774e-08
5.41249e-08
5.62746e-08
5.84525e-08
6.06814e-08
6.2981e-08
6.53676e-08
6.7854e-08
7.04501e-08
7.31626e-08
7.59953e-08
7.89492e-08
8.2023e-08
8.52128e-08
8.8513e-08
9.1916e-08
9.54131e-08
9.89946e-08
1.0265e-07
1.0637e-07
1.10143e-07
1.13958e-07
1.17805e-07
1.2167e-07
1.2554e-07
1.29397e-07
1.33216e-07
1.36965e-07
1.40605e-07
1.44083e-07
1.47332e-07
1.50276e-07
1.5282e-07
1.5486e-07
1.56199e-07
1.5675e-07
1.5668e-07
1.5553e-07
1.5324e-07
1.49727e-07
1.4493e-07
1.38826e-07
1.31425e-07
1.22792e-07
1.13045e-07
1.02362e-07
9.09789e-08
7.91764e-08
6.72694e-08
5.55845e-08
4.44343e-08
3.40903e-08
2.4762e-08
1.659e-08
9.67743e-09
4.15842e-09
4.62859e-10
2.34699e-10
2.10574e-09
4.82156e-09
8.05778e-09
1.16301e-08
1.54054e-08
1.92773e-08
2.3157e-08
2.69718e-08
3.06643e-08
3.41931e-08
3.7533e-08
4.06739e-08
4.36195e-08
4.63848e-08
4.89935e-08
5.1475e-08
5.38618e-08
5.61877e-08
5.84853e-08
6.07854e-08
6.31154e-08
6.54997e-08
6.79586e-08
7.05088e-08
7.31635e-08
7.59322e-08
7.88211e-08
8.18334e-08
8.49695e-08
8.8227e-08
9.16013e-08
9.50859e-08
9.86728e-08
1.02353e-07
1.06116e-07
1.09953e-07
1.13852e-07
1.17806e-07
1.21802e-07
1.25832e-07
1.29882e-07
1.33939e-07
1.37982e-07
1.41985e-07
1.45914e-07
1.49723e-07
1.53355e-07
1.56737e-07
1.59786e-07
1.62402e-07
1.64475e-07
1.65786e-07
1.663e-07
1.66127e-07
1.64821e-07
1.62325e-07
1.58561e-07
1.53464e-07
1.47013e-07
1.3922e-07
1.30148e-07
1.19916e-07
1.087e-07
9.67329e-08
8.42989e-08
7.17189e-08
5.93328e-08
4.74739e-08
3.64405e-08
2.64702e-08
1.77283e-08
1.03358e-08
4.43893e-09
4.94103e-10
2.53967e-10
2.27869e-09
5.21794e-09
8.72088e-09
1.25879e-08
1.66743e-08
2.08637e-08
2.50587e-08
2.91789e-08
3.31612e-08
3.69601e-08
4.05484e-08
4.3916e-08
4.70678e-08
5.00214e-08
5.28036e-08
5.54473e-08
5.79886e-08
6.04641e-08
6.29093e-08
6.53571e-08
6.78369e-08
7.03739e-08
7.29893e-08
7.57004e-08
7.852e-08
8.14575e-08
8.45188e-08
8.77063e-08
9.10196e-08
9.44556e-08
9.80092e-08
1.01673e-07
1.05439e-07
1.09298e-07
1.1324e-07
1.17255e-07
1.21335e-07
1.25471e-07
1.29652e-07
1.33869e-07
1.3811e-07
1.42359e-07
1.46595e-07
1.50789e-07
1.54901e-07
1.58881e-07
1.62666e-07
1.66177e-07
1.69324e-07
1.72001e-07
1.74093e-07
1.75362e-07
1.75829e-07
1.75532e-07
1.74053e-07
1.71337e-07
1.67307e-07
1.61898e-07
1.55092e-07
1.46903e-07
1.37394e-07
1.26684e-07
1.14948e-07
1.02417e-07
8.9373e-08
7.61417e-08
6.30725e-08
5.05172e-08
3.87999e-08
2.81875e-08
1.88727e-08
1.0997e-08
4.72029e-09
5.25446e-10
2.73856e-10
2.45721e-09
5.62703e-09
9.40518e-09
1.35761e-08
1.79831e-08
2.24992e-08
2.70177e-08
3.14503e-08
3.57274e-08
3.97996e-08
4.36378e-08
4.72319e-08
5.05885e-08
5.3728e-08
5.66809e-08
5.94836e-08
6.2176e-08
6.4798e-08
6.73879e-08
6.99807e-08
7.26074e-08
7.52945e-08
7.80638e-08
8.09328e-08
8.39143e-08
8.70176e-08
9.02477e-08
9.36068e-08
9.70937e-08
1.00705e-07
1.04434e-07
1.08275e-07
1.12218e-07
1.16255e-07
1.20376e-07
1.24573e-07
1.28837e-07
1.3316e-07
1.37534e-07
1.41948e-07
1.4639e-07
1.50843e-07
1.55282e-07
1.59675e-07
1.63978e-07
1.68135e-07
1.72075e-07
1.75715e-07
1.78955e-07
1.81687e-07
1.8379e-07
1.85005e-07
1.85418e-07
1.8498e-07
1.83314e-07
1.80363e-07
1.76051e-07
1.70314e-07
1.63137e-07
1.54539e-07
1.44584e-07
1.33392e-07
1.21137e-07
1.0805e-07
9.44111e-08
8.05449e-08
6.6808e-08
5.35672e-08
4.11708e-08
2.9916e-08
2.00247e-08
1.1662e-08
5.00278e-09
5.5692e-10
2.94368e-10
2.6413e-09
6.04886e-09
1.01107e-08
1.45948e-08
1.93318e-08
2.41836e-08
2.90335e-08
3.37847e-08
3.83611e-08
4.27092e-08
4.67978e-08
5.06172e-08
5.41762e-08
5.74984e-08
6.06182e-08
6.35762e-08
6.6416e-08
6.91811e-08
7.19124e-08
7.46473e-08
7.74183e-08
8.0253e-08
8.31739e-08
8.61984e-08
8.93396e-08
9.26061e-08
9.60029e-08
9.95313e-08
1.0319e-07
1.06974e-07
1.10879e-07
1.14896e-07
1.19018e-07
1.23236e-07
1.27541e-07
1.31926e-07
1.36383e-07
1.40905e-07
1.45483e-07
1.50108e-07
1.54766e-07
1.59436e-07
1.64093e-07
1.68698e-07
1.73203e-07
1.77545e-07
1.81647e-07
1.85418e-07
1.88754e-07
1.91539e-07
1.93647e-07
1.94803e-07
1.95157e-07
1.94568e-07
1.92702e-07
1.89501e-07
1.84889e-07
1.78804e-07
1.71234e-07
1.62203e-07
1.5178e-07
1.40089e-07
1.27305e-07
1.13659e-07
9.94292e-08
8.4938e-08
7.05447e-08
5.66273e-08
4.3556e-08
3.16577e-08
2.11858e-08
1.23315e-08
5.28674e-09
5.8856e-10
3.15505e-10
2.83098e-09
6.48346e-09
1.08375e-08
1.56439e-08
2.07201e-08
2.59163e-08
3.11052e-08
3.61809e-08
4.10604e-08
4.56858e-08
5.00244e-08
5.40671e-08
5.78252e-08
6.13262e-08
6.46086e-08
6.77176e-08
7.07009e-08
7.36053e-08
7.64749e-08
7.93492e-08
8.22622e-08
8.52425e-08
8.83131e-08
9.14916e-08
9.47911e-08
9.82199e-08
1.01782e-07
1.0548e-07
1.0931e-07
1.13269e-07
1.17351e-07
1.21549e-07
1.25854e-07
1.3026e-07
1.34758e-07
1.39342e-07
1.44005e-07
1.4874e-07
1.5354e-07
1.58393e-07
1.63284e-07
1.68191e-07
1.73082e-07
1.77916e-07
1.82637e-07
1.87176e-07
1.91449e-07
1.9536e-07
1.98797e-07
2.01639e-07
2.03753e-07
2.04851e-07
2.05145e-07
2.04399e-07
2.02324e-07
1.98859e-07
1.93927e-07
1.87469e-07
1.79477e-07
1.6998e-07
1.59056e-07
1.46834e-07
1.33496e-07
1.19275e-07
1.04447e-07
8.93323e-08
7.42887e-08
5.97014e-08
4.59583e-08
3.3415e-08
2.23577e-08
1.30064e-08
5.57252e-09
6.20403e-10
3.37267e-10
3.02626e-09
6.93082e-09
1.15854e-08
1.67233e-08
2.21479e-08
2.7697e-08
3.32319e-08
3.86372e-08
4.38227e-08
4.87262e-08
5.33134e-08
5.75764e-08
6.15296e-08
6.52046e-08
6.86449e-08
7.19003e-08
7.50228e-08
7.80631e-08
8.10681e-08
8.40793e-08
8.71325e-08
9.02572e-08
9.34767e-08
9.6809e-08
1.00267e-07
1.03858e-07
1.07588e-07
1.11456e-07
1.15461e-07
1.19599e-07
1.23864e-07
1.28248e-07
1.32746e-07
1.3735e-07
1.42054e-07
1.46852e-07
1.51738e-07
1.56706e-07
1.61748e-07
1.6685e-07
1.71996e-07
1.7716e-07
1.82307e-07
1.87388e-07
1.92342e-07
1.97094e-07
2.01553e-07
2.05616e-07
2.09166e-07
2.12076e-07
2.14197e-07
2.15245e-07
2.15481e-07
2.14576e-07
2.12287e-07
2.08545e-07
2.03274e-07
1.96415e-07
1.87966e-07
1.77962e-07
1.6649e-07
1.53693e-07
1.39761e-07
1.24933e-07
1.09488e-07
9.37408e-08
7.80471e-08
6.2793e-08
4.83799e-08
3.51897e-08
2.35418e-08
1.36877e-08
5.86043e-09
6.52486e-10
3.59652e-10
3.22711e-09
7.39092e-09
1.23546e-08
1.78329e-08
2.36147e-08
2.95248e-08
3.54124e-08
4.11518e-08
4.66454e-08
5.18266e-08
5.66601e-08
6.11395e-08
6.52829e-08
6.91268e-08
7.27197e-08
7.61168e-08
7.93745e-08
8.25474e-08
8.56853e-08
8.88319e-08
9.20245e-08
9.52933e-08
9.86623e-08
1.02149e-07
1.05768e-07
1.09525e-07
1.13425e-07
1.17468e-07
1.21654e-07
1.25977e-07
1.30433e-07
1.35015e-07
1.39718e-07
1.44535e-07
1.49462e-07
1.54493e-07
1.59623e-07
1.64846e-07
1.70153e-07
1.75529e-07
1.80954e-07
1.86399e-07
1.91823e-07
1.97173e-07
2.02381e-07
2.07365e-07
2.12027e-07
2.16259e-07
2.19938e-07
2.22933e-07
2.25066e-07
2.26078e-07
2.26262e-07
2.25203e-07
2.22697e-07
2.18668e-07
2.13038e-07
2.0575e-07
1.96803e-07
1.86243e-07
1.74168e-07
1.60737e-07
1.46155e-07
1.30674e-07
1.14577e-07
9.81789e-08
8.18273e-08
6.59056e-08
5.0823e-08
3.69833e-08
2.47394e-08
1.43761e-08
6.15077e-09
6.84838e-10
3.8266e-10
3.43354e-09
7.86371e-09
1.31447e-08
1.89724e-08
2.51202e-08
3.13989e-08
3.76452e-08
4.37224e-08
4.95253e-08
5.4983e-08
6.00595e-08
6.47506e-08
6.90788e-08
7.30857e-08
7.68259e-08
8.036e-08
8.37491e-08
8.70519e-08
9.0321e-08
9.36024e-08
9.69347e-08
1.00349e-07
1.0387e-07
1.07515e-07
1.11297e-07
1.15224e-07
1.19301e-07
1.23527e-07
1.27902e-07
1.32421e-07
1.3708e-07
1.41875e-07
1.46799e-07
1.51848e-07
1.57018e-07
1.62305e-07
1.67703e-07
1.73206e-07
1.78804e-07
1.8448e-07
1.90211e-07
1.95962e-07
2.01689e-07
2.07331e-07
2.12815e-07
2.18052e-07
2.22939e-07
2.2736e-07
2.31188e-07
2.34284e-07
2.36447e-07
2.37439e-07
2.37578e-07
2.36374e-07
2.33653e-07
2.2933e-07
2.23324e-07
2.15576e-07
2.0609e-07
1.94919e-07
1.82177e-07
1.68041e-07
1.5274e-07
1.36543e-07
1.19746e-07
1.02664e-07
8.56378e-08
6.90428e-08
5.32889e-08
3.87969e-08
2.59513e-08
1.50722e-08
6.44377e-09
7.17484e-10
4.06287e-10
3.6455e-09
8.34911e-09
1.39558e-08
2.01415e-08
2.66637e-08
3.33184e-08
3.99286e-08
4.63465e-08
5.24589e-08
5.81909e-08
6.35062e-08
6.84036e-08
7.29103e-08
7.70744e-08
8.09565e-08
8.46231e-08
8.81405e-08
9.15712e-08
9.49709e-08
9.83877e-08
1.01861e-07
1.05424e-07
1.091e-07
1.12909e-07
1.16861e-07
1.20966e-07
1.25228e-07
1.29648e-07
1.34224e-07
1.38953e-07
1.43831e-07
1.48855e-07
1.54021e-07
1.59324e-07
1.64761e-07
1.70328e-07
1.76021e-07
1.81832e-07
1.87749e-07
1.93753e-07
1.99817e-07
2.05902e-07
2.11956e-07
2.17916e-07
2.237e-07
2.29214e-07
2.34348e-07
2.38981e-07
2.42979e-07
2.462e-07
2.48416e-07
2.49407e-07
2.49511e-07
2.48175e-07
2.45244e-07
2.40624e-07
2.34227e-07
2.25992e-07
2.15923e-07
2.04084e-07
1.90605e-07
1.75685e-07
1.59581e-07
1.4259e-07
1.25027e-07
1.07215e-07
8.94879e-08
7.22079e-08
5.57785e-08
4.0631e-08
2.7178e-08
1.57763e-08
6.73955e-09
7.50439e-10
4.30529e-10
3.86295e-09
8.84702e-09
1.47875e-08
2.13398e-08
2.82444e-08
3.52819e-08
4.22607e-08
4.90213e-08
5.54425e-08
6.14455e-08
6.69946e-08
7.2092e-08
7.67708e-08
8.10859e-08
8.51047e-08
8.88999e-08
9.25431e-08
9.61008e-08
9.96318e-08
1.03186e-07
1.06805e-07
1.10521e-07
1.14359e-07
1.18338e-07
1.2247e-07
1.26764e-07
1.31223e-07
1.35849e-07
1.40641e-07
1.45598e-07
1.50715e-07
1.55989e-07
1.61419e-07
1.67e-07
1.72731e-07
1.78607e-07
1.84624e-07
1.90771e-07
1.97036e-07
2.03397e-07
2.09822e-07
2.16267e-07
2.22677e-07
2.28979e-07
2.35088e-07
2.40903e-07
2.46309e-07
2.51178e-07
2.5537e-07
2.58737e-07
2.61035e-07
2.62046e-07
2.62128e-07
2.60676e-07
2.57544e-07
2.52628e-07
2.4583e-07
2.37084e-07
2.26393e-07
2.13829e-07
1.99538e-07
1.83746e-07
1.66745e-07
1.48868e-07
1.30459e-07
1.11856e-07
9.33887e-08
7.54045e-08
5.82923e-08
4.24852e-08
2.84195e-08
1.64886e-08
7.03816e-09
7.83705e-10
4.5538e-10
4.08585e-09
9.3573e-09
1.56396e-08
2.25668e-08
2.98616e-08
3.72879e-08
4.46392e-08
5.17436e-08
5.84718e-08
6.47417e-08
7.05185e-08
7.58092e-08
8.06533e-08
8.51133e-08
8.9264e-08
9.31847e-08
9.69524e-08
1.00638e-07
1.04302e-07
1.07998e-07
1.11768e-07
1.15644e-07
1.19653e-07
1.23813e-07
1.28137e-07
1.32632e-07
1.37303e-07
1.42153e-07
1.4718e-07
1.52384e-07
1.57762e-07
1.63311e-07
1.69031e-07
1.74918e-07
1.8097e-07
1.87185e-07
1.93554e-07
2.00069e-07
2.06712e-07
2.13458e-07
2.20272e-07
2.27104e-07
2.33895e-07
2.40565e-07
2.47024e-07
2.53164e-07
2.58865e-07
2.63994e-07
2.68405e-07
2.71943e-07
2.74352e-07
2.75405e-07
2.75478e-07
2.73931e-07
2.70612e-07
2.65405e-07
2.58201e-07
2.48925e-07
2.37578e-07
2.24234e-07
2.09058e-07
1.92304e-07
1.74303e-07
1.55434e-07
1.36083e-07
1.16611e-07
9.73527e-08
7.86367e-08
6.08302e-08
4.43587e-08
2.96753e-08
1.72088e-08
7.33951e-09
8.17272e-10
4.80833e-10
4.31413e-09
9.8798e-09
1.65118e-08
2.38219e-08
3.15141e-08
3.93349e-08
4.70617e-08
5.45099e-08
6.15422e-08
6.80738e-08
7.40717e-08
7.95483e-08
8.45509e-08
8.915e-08
9.34285e-08
9.74725e-08
1.01365e-07
1.05179e-07
1.08982e-07
1.12825e-07
1.16754e-07
1.20801e-07
1.24992e-07
1.29346e-07
1.33875e-07
1.38589e-07
1.43491e-07
1.48584e-07
1.53868e-07
1.59343e-07
1.65006e-07
1.70857e-07
1.76895e-07
1.83117e-07
1.89522e-07
1.96105e-07
2.02858e-07
2.09769e-07
2.16819e-07
2.23979e-07
2.31208e-07
2.38454e-07
2.4565e-07
2.52712e-07
2.59543e-07
2.66032e-07
2.72051e-07
2.77462e-07
2.82115e-07
2.85848e-07
2.88397e-07
2.89518e-07
2.89596e-07
2.87974e-07
2.84485e-07
2.78998e-07
2.7139e-07
2.61573e-07
2.49542e-07
2.35371e-07
2.1924e-07
2.01431e-07
1.82323e-07
1.62348e-07
1.41943e-07
1.21511e-07
1.01395e-07
8.19092e-08
6.33922e-08
4.625e-08
3.09443e-08
1.79364e-08
7.64338e-09
8.51117e-10
5.06881e-10
4.54771e-09
1.04143e-08
1.74037e-08
2.51044e-08
3.32008e-08
4.14208e-08
4.95252e-08
5.73163e-08
6.46489e-08
7.1436e-08
7.76476e-08
8.33026e-08
8.84567e-08
9.31897e-08
9.75927e-08
1.01759e-07
1.05777e-07
1.09726e-07
1.13672e-07
1.17672e-07
1.2177e-07
1.26e-07
1.30387e-07
1.34951e-07
1.39705e-07
1.44656e-07
1.4981e-07
1.5517e-07
1.60735e-07
1.66507e-07
1.72485e-07
1.78667e-07
1.85052e-07
1.9164e-07
1.98428e-07
2.0541e-07
2.12577e-07
2.19914e-07
2.27399e-07
2.34998e-07
2.42669e-07
2.50352e-07
2.57975e-07
2.6545e-07
2.72675e-07
2.79531e-07
2.85889e-07
2.91603e-07
2.96518e-07
3.00467e-07
3.03185e-07
3.04396e-07
3.04495e-07
3.02821e-07
2.99182e-07
2.93429e-07
2.85425e-07
2.75065e-07
2.62331e-07
2.47295e-07
2.30147e-07
2.11198e-07
1.90873e-07
1.69668e-07
1.48087e-07
1.26586e-07
1.05532e-07
8.52281e-08
6.59779e-08
4.81572e-08
3.22248e-08
1.86705e-08
7.94943e-09
8.852e-10
5.33513e-10
4.78651e-09
1.09606e-08
1.83148e-08
2.64136e-08
3.49204e-08
4.35437e-08
5.20268e-08
6.01587e-08
6.77865e-08
7.48222e-08
8.12395e-08
8.7065e-08
9.23642e-08
9.72264e-08
1.01752e-07
1.06042e-07
1.10189e-07
1.14277e-07
1.18377e-07
1.22544e-07
1.26824e-07
1.31252e-07
1.35854e-07
1.40647e-07
1.45646e-07
1.50858e-07
1.56288e-07
1.6194e-07
1.67815e-07
1.73913e-07
1.80234e-07
1.86778e-07
1.93543e-07
2.00528e-07
2.07729e-07
2.15141e-07
2.22751e-07
2.30542e-07
2.38488e-07
2.46552e-07
2.54685e-07
2.62826e-07
2.70895e-07
2.78801e-07
2.86436e-07
2.93678e-07
3.0039e-07
3.06424e-07
3.11618e-07
3.158e-07
3.18711e-07
3.20034e-07
3.20169e-07
3.18465e-07
3.14697e-07
3.08699e-07
3.00313e-07
2.89417e-07
2.75973e-07
2.60046e-07
2.4183e-07
2.21661e-07
2.00014e-07
1.77453e-07
1.54565e-07
1.31873e-07
1.09785e-07
8.86006e-08
6.85873e-08
5.00777e-08
3.35148e-08
1.94101e-08
8.25717e-09
9.19466e-10
5.6072e-10
5.03042e-09
1.15185e-08
1.92447e-08
2.77484e-08
3.66712e-08
4.5701e-08
5.45629e-08
6.30323e-08
7.09494e-08
7.82257e-08
8.48403e-08
9.08286e-08
9.62667e-08
1.01255e-07
1.05902e-07
1.10317e-07
1.146e-07
1.18836e-07
1.231e-07
1.27448e-07
1.31927e-07
1.36572e-07
1.41408e-07
1.46453e-07
1.51721e-07
1.57219e-07
1.62954e-07
1.68928e-07
1.75142e-07
1.81597e-07
1.88293e-07
1.9523e-07
2.02407e-07
2.0982e-07
2.17467e-07
2.25338e-07
2.33418e-07
2.41688e-07
2.50119e-07
2.58668e-07
2.67284e-07
2.75898e-07
2.84429e-07
2.92779e-07
3.00837e-07
3.08475e-07
3.15553e-07
3.21918e-07
3.27403e-07
3.31831e-07
3.34954e-07
3.36409e-07
3.36592e-07
3.3488e-07
3.31005e-07
3.24785e-07
3.16039e-07
3.04621e-07
2.90473e-07
2.73643e-07
2.54322e-07
2.32868e-07
2.09801e-07
1.8576e-07
1.61424e-07
1.37407e-07