/*--------------------------------*- C++ -*----------------------------------*\
  =========                 |
  \\      /  F ield         | OpenFOAM: The Open Source CFD Toolbox
   \\    /   O peration     | Website:  https://openfoam.org
    \\  /    A nd           | Version:  12
     \\/     M anipulation  |
\*---------------------------------------------------------------------------*/
FoamFile
{
    format      ascii;
    class       volScalarField;
    location    "4.5";
    object      p;
}
// * * * * * * * * * * * * * * * * * * * * * * * * * * * * * * * * * * * * * //

dimensions      [0 2 -2 0 0 0 0];

internalField   nonuniform List<scalar> 
5625
(
-7.81712e-09
-8.82603e-06
-8.75498e-05
-0.00023758
-0.000440447
-0.000680061
-0.00094329
-0.00122052
-0.00150532
-0.00179396
-0.00208475
-0.00237753
-0.00267314
-0.00297308
-0.00327912
-0.00359312
-0.0039168
-0.00425167
-0.00459889
-0.00495924
-0.00533309
-0.00572031
-0.00612028
-0.00653182
-0.00695314
-0.00738175
-0.00781437
-0.00824679
-0.0086738
-0.00908896
-0.00948446
-0.00985095
-0.0101773
-0.0104505
-0.0106554
-0.0107744
-0.0107875
-0.0106723
-0.0104038
-0.00995423
-0.00929389
-0.00839099
-0.00721238
-0.00572431
-0.00389347
-0.00168823
0.000919683
0.00395341
0.00742876
0.0113521
0.0157187
0.0205023
0.0256667
0.0311692
0.0369239
0.0428377
0.0488004
0.0546855
0.0603566
0.0656734
0.0704999
0.0747132
0.0782125
0.0809279
0.0828271
0.0839196
0.084258
0.0839355
0.0830801
0.0818477
0.0804143
0.0789687
0.0777097
0.076851
0.0765099
-1.2021e-05
-2.10605e-05
-9.52668e-05
-0.000235557
-0.000425476
-0.000651104
-0.0009007
-0.0011654
-0.00143909
-0.00171806
-0.00200046
-0.00228587
-0.00257484
-0.00286855
-0.00316847
-0.00347617
-0.00379313
-0.00412064
-0.00445967
-0.00481086
-0.00517441
-0.00555011
-0.00593723
-0.00633451
-0.0067401
-0.00715145
-0.00756526
-0.00797733
-0.00838246
-0.00877427
-0.00914507
-0.00948567
-0.00978516
-0.0100308
-0.0102078
-0.010299
-0.0102852
-0.0101444
-0.00985236
-0.00938249
-0.00870594
-0.00779206
-0.00660892
-0.00512406
-0.00330546
-0.00112282
0.00145091
0.00443776
0.00785266
0.0117014
0.0159792
0.020658
0.0257069
0.0310845
0.0367007
0.0424713
0.0482888
0.0540314
0.0595675
0.0647628
0.0694867
0.0736218
0.077072
0.0797711
0.0816889
0.0828354
0.0832615
0.0830568
0.0823437
0.0812707
0.0800037
0.0787192
0.0775989
0.0768368
0.0765365
-1.33978e-05
-2.29767e-05
-9.3292e-05
-0.000224515
-0.00040173
-0.000613189
-0.000848567
-0.00109988
-0.00136142
-0.00162957
-0.00190239
-0.00217923
-0.00246036
-0.00274664
-0.00303922
-0.0033394
-0.00364839
-0.00396724
-0.00429672
-0.00463728
-0.004989
-0.00535153
-0.00572404
-0.0061052
-0.00649309
-0.00688512
-0.00727799
-0.00766752
-0.00804856
-0.00841483
-0.00875881
-0.00907152
-0.00934234
-0.00955889
-0.00970682
-0.00976965
-0.00972867
-0.00956282
-0.00924872
-0.00876075
-0.00807119
-0.0071506
-0.00596832
-0.00449319
-0.00269447
-0.000543115
0.00198684
0.00491649
0.0082601
0.0120231
0.0162008
0.0207644
0.0256916
0.0309335
0.0364053
0.0420285
0.0476985
0.0532981
0.0587009
0.0637775
0.0684029
0.0724641
0.0758695
0.0785559
0.0804949
0.0816967
0.0822108
0.0821233
0.0815511
0.0806351
0.0795312
0.0784026
0.0774124
0.0767327
0.0764492
4.0512e-06
-7.52036e-06
-7.61059e-05
-0.00020144
-0.000369473
-0.00057002
-0.00079384
-0.0010338
-0.00128464
-0.00154293
-0.00180672
-0.00207527
-0.00234864
-0.00262746
-0.00291266
-0.00320528
-0.00350632
-0.00381662
-0.00413678
-0.0044671
-0.00480753
-0.00515761
-0.00551643
-0.0058826
-0.00625417
-0.00662854
-0.00700244
-0.00737173
-0.00773137
-0.00807523
-0.00839598
-0.0086849
-0.00893171
-0.00912444
-0.00924922
-0.00929017
-0.00922922
-0.00904611
-0.00871829
-0.00822104
-0.00752765
-0.00660968
-0.00543749
-0.00398091
-0.00221014
-9.68899e-05
0.00238416
0.00525374
0.00852602
0.0122066
0.0162907
0.0207537
0.025575
0.0306991
0.036054
0.0415601
0.0471162
0.0526084
0.0579141
0.0629072
0.0674658
0.0714797
0.0748595
0.0775435
0.0795041
0.0807513
0.0813333
0.0813338
0.080866
0.0800648
0.0790784
0.0780587
0.0771541
0.0765164
0.0762161
4.07137e-05
2.4556e-05
-4.49283e-05
-0.0001672
-0.00032904
-0.000521298
-0.000735818
-0.000966147
-0.00120751
-0.00145673
-0.00171198
-0.00197246
-0.00223813
-0.00250946
-0.0027872
-0.00307219
-0.00336526
-0.00366707
-0.00397808
-0.00429845
-0.004628
-0.00496621
-0.0053121
-0.00566425
-0.00602068
-0.00637883
-0.00673548
-0.00708658
-0.00742724
-0.00775153
-0.00805234
-0.00832127
-0.00854843
-0.00872229
-0.00882953
-0.00885485
-0.00878089
-0.00858812
-0.0082548
-0.00775706
-0.00706904
-0.00616316
-0.00501058
-0.00358183
-0.00184769
0.000219722
0.00264559
0.00545075
0.0086498
0.0122491
0.0162448
0.0206165
0.0253407
0.0303657
0.0356247
0.0410383
0.0465083
0.0519233
0.057163
0.062103
0.066623
0.070614
0.0739868
0.07668
0.0786656
0.0799529
0.0805892
0.0806561
0.0802642
0.0795443
0.0786382
0.0776891
0.0768333
0.0762034
0.0758588
9.56149e-05
7.18371e-05
-1.27623e-06
-0.000122905
-0.000280877
-0.000466939
-0.000673852
-0.000895846
-0.00112866
-0.00136942
-0.00161645
-0.00186899
-0.00212696
-0.00239072
-0.00266089
-0.00293815
-0.00322318
-0.00351649
-0.0038184
-0.00412896
-0.00444792
-0.00477466
-0.00510817
-0.005447
-0.0057892
-0.00613227
-0.00647306
-0.00680768
-0.0071314
-0.00743853
-0.00772227
-0.00797459
-0.00818602
-0.00834554
-0.00844039
-0.00845594
-0.00837552
-0.00818034
-0.00784946
-0.0073598
-0.00668626
-0.00580197
-0.0046787
-0.00328745
-0.00159928
0.000413652
0.00277676
0.00551143
0.00863316
0.0121495
0.0160581
0.0203421
0.0249768
0.0299148
0.0350925
0.0404319
0.0458368
0.0511981
0.0563964
0.0613084
0.0658139
0.0698034
0.0731871
0.0759022
0.0779197
0.0792474
0.0799313
0.0800515
0.0797165
0.0790542
0.0782016
0.0772944
0.0764594
0.0758108
0.0754013
0.000167632
0.000133217
5.38094e-05
-6.94102e-05
-0.000225586
-0.00040728
-0.000608084
-0.000822911
-0.00104802
-0.00128089
-0.00152004
-0.00176482
-0.00201515
-0.00227132
-0.00253387
-0.00280335
-0.00308032
-0.00336516
-0.00365809
-0.00395905
-0.00426772
-0.00458342
-0.00490513
-0.0052314
-0.00556034
-0.00588951
-0.0062159
-0.0065358
-0.0068447
-0.00713721
-0.00740688
-0.00764609
-0.00784588
-0.00799578
-0.00808365
-0.00809553
-0.00801549
-0.0078255
-0.00750537
-0.00703276
-0.00638323
-0.00553049
-0.00444674
-0.00310321
-0.00147096
0.000478154
0.00277013
0.0054273
0.00846647
0.0118968
0.015718
0.019916
0.024467
0.029327
0.0344353
0.0397155
0.0450735
0.0504013
0.0555803
0.0604871
0.0650005
0.0690097
0.0724226
0.0751744
0.0772334
0.0786058
0.0793354
0.0795011
0.0792099
0.0785872
0.0777664
0.076878
0.0760409
0.0753524
0.0748623
0.000255421
0.000207557
0.000119354
-7.54754e-06
-0.000163837
-0.000342835
-0.00053892
-0.000747684
-0.000965913
-0.00119148
-0.00142315
-0.0016604
-0.00190321
-0.00215186
-0.00240681
-0.00266856
-0.00293753
-0.00321403
-0.00349817
-0.00378982
-0.0040886
-0.0043938
-0.00470439
-0.00501898
-0.00533573
-0.00565233
-0.00596594
-0.00627306
-0.00656948
-0.00685013
-0.00710899
-0.00733891
-0.00753147
-0.00767682
-0.0077635
-0.00777827
-0.00770593
-0.00752921
-0.00722865
-0.00678258
-0.00616715
-0.00535647
-0.004323
-0.00303796
-0.00147213
0.000403229
0.00261507
0.00518703
0.00813759
0.011478
0.01521
0.0193229
0.0237942
0.0285832
0.033632
0.0388661
0.044193
0.0495057
0.0546857
0.0596088
0.0641521
0.0682021
0.0716638
0.0744686
0.0765818
0.0780064
0.0787841
0.0789918
0.0787353
0.0781385
0.0773323
0.0764433
0.0755847
0.0748395
0.0742574
0.000357419
0.000293561
0.000194279
6.17749e-05
-9.63676e-05
-0.000274188
-0.000466836
-0.00067057
-0.000882722
-0.00110157
-0.00132618
-0.00155619
-0.00179167
-0.00203294
-0.00228042
-0.00253454
-0.00279567
-0.00306403
-0.00333965
-0.00362236
-0.00391172
-0.00420704
-0.0045073
-0.00481117
-0.00511693
-0.00542242
-0.00572501
-0.00602147
-0.00630792
-0.0065797
-0.00683124
-0.00705595
-0.00724601
-0.00739225
-0.0074839
-0.00750849
-0.00745159
-0.00729666
-0.00702496
-0.0066154
-0.00604459
-0.00528695
-0.00431497
-0.00309966
-0.00161122
0.000179952
0.0023021
0.0047805
0.00763564
0.0108811
0.0145212
0.0185484
0.0229424
0.0276657
0.0326631
0.0378619
0.0431715
0.0484855
0.053685
0.0586447
0.063239
0.0673512
0.0708819
0.0737581
0.0759405
0.0774283
0.0782598
0.0785102
0.0782835
0.0777029
0.0768979
0.0759925
0.0750968
0.0742821
0.0736
0.000471924
0.000389844
0.000277417
0.000137569
-2.39935e-05
-0.000202009
-0.000392383
-0.000592045
-0.00079888
-0.0010116
-0.00122958
-0.00145269
-0.0016811
-0.00191518
-0.00215537
-0.00240207
-0.00265558
-0.00291607
-0.00318353
-0.00345773
-0.00373824
-0.00402437
-0.00431517
-0.00460939
-0.00490545
-0.00520141
-0.00549486
-0.00578293
-0.0060621
-0.00632817
-0.00657613
-0.00679996
-0.00699252
-0.00714536
-0.00724848
-0.00729017
-0.0072568
-0.00713256
-0.00689935
-0.00653662
-0.00602133
-0.00532805
-0.00442911
-0.00329507
-0.00189536
-0.000199164
0.00182329
0.00419924
0.00695147
0.0100962
0.0136406
0.0175803
0.0218978
0.0265587
0.0315106
0.0366831
0.041987
0.0473165
0.0525525
0.0575676
0.0622335
0.0664291
0.0700499
0.0730172
0.0752863
0.0768509
0.0777457
0.078043
0.0778453
0.077275
0.0764614
0.0755275
0.0745821
0.073688
0.0729006
0.000597205
0.000494926
0.000367525
0.000218775
5.23902e-05
-0.000127052
-0.000316208
-0.000512682
-0.000714923
-0.000922096
-0.00113392
-0.00135048
-0.00157213
-0.0017993
-0.00203245
-0.00227198
-0.00251817
-0.00277114
-0.00303084
-0.00329706
-0.00356935
-0.00384707
-0.00412934
-0.00441506
-0.00470283
-0.00499093
-0.00527727
-0.00555934
-0.00583408
-0.00609782
-0.00634611
-0.00657361
-0.00677391
-0.00693933
-0.00706067
-0.00712704
-0.00712557
-0.00704119
-0.00685639
-0.00655106
-0.00610243
-0.00548502
-0.00467085
-0.00362984
-0.00233035
-0.000740174
0.0011723
0.00343649
0.00607776
0.00911516
0.0125591
0.0164084
0.0206486
0.0252486
0.0301592
0.0353121
0.0406199
0.0459774
0.0512649
0.0563531
0.0611102
0.0654102
0.0691428
0.0722224
0.0745974
0.0762554
0.077226
0.0775777
0.0774115
0.0768492
0.0760205
0.075049
0.0740443
0.0730634
0.0721674
0.000731509
0.000607294
0.000463304
0.000304264
0.000131809
-5.01599e-05
-0.000239055
-0.000433155
-0.000631489
-0.000833688
-0.00103982
-0.00125026
-0.00146549
-0.00168607
-0.00191251
-0.0021452
-0.00238442
-0.00263028
-0.00288273
-0.00314154
-0.0034063
-0.00367645
-0.00395123
-0.00422968
-0.00451063
-0.00479265
-0.00507401
-0.00535262
-0.00562592
-0.00589082
-0.00614354
-0.00637946
-0.00659294
-0.00677712
-0.00692367
-0.0070225
-0.00706152
-0.00702635
-0.00690003
-0.00666282
-0.00629206
-0.0057621
-0.00504448
-0.00410825
-0.00292054
-0.00144749
0.00034455
0.00248742
0.00500924
0.00793213
0.0112698
0.0150246
0.0191854
0.0237246
0.028596
0.0337342
0.0390533
0.0444492
0.0498016
0.0549791
0.0598462
0.0642716
0.0681379
0.071352
0.0738541
0.0756244
0.0766858
0.0771028
0.0769738
0.0764202
0.0755729
0.0745575
0.0734863
0.072413
0.0714065
0.000873072
0.000725398
0.000563399
0.000392842
0.00021321
2.77347e-05
-0.000161759
-0.000354238
-0.000549315
-0.000747103
-0.000948048
-0.00115278
-0.001362
-0.00157638
-0.00179647
-0.00202272
-0.0022554
-0.00249463
-0.00274035
-0.00299239
-0.00325038
-0.00351387
-0.00378223
-0.00405471
-0.00433041
-0.00460822
-0.00488682
-0.00516459
-0.00543956
-0.00570927
-0.00597065
-0.00621986
-0.00645212
-0.00666142
-0.00684028
-0.00697947
-0.00706767
-0.00709114
-0.00703342
-0.00687503
-0.0065933
-0.00616229
-0.00555287
-0.00473306
-0.00366855
-0.00232365
-0.000662501
0.00134933
0.0037429
0.00654356
0.00976847
0.0134237
0.0175016
0.0219783
0.0268112
0.0319373
0.0372734
0.0427161
0.0481449
0.0534265
0.0584214
0.0629924
0.0670146
0.0703863
0.0730382
0.0749414
0.0761116
0.0766072
0.076524
0.0759828
0.0751161
0.0740529
0.0729101
0.0717402
0.070622
0.00102014
0.000847657
0.000666397
0.000483243
0.000295464
0.000105613
-8.52541e-05
-0.0002768
-0.000469238
-0.000663169
-0.000859425
-0.00105893
-0.00126257
-0.00147116
-0.00168534
-0.00190558
-0.0021322
-0.00236532
-0.00260492
-0.00285087
-0.00310291
-0.00336068
-0.00362376
-0.00389163
-0.00416369
-0.00443921
-0.00471734
-0.00499699
-0.00527682
-0.00555506
-0.00582942
-0.00609692
-0.00635363
-0.00659446
-0.00681281
-0.00700031
-0.00714637
-0.00723787
-0.00725875
-0.00718972
-0.00700799
-0.00668718
-0.00619733
-0.00550527
-0.00457511
-0.00336918
-0.00184926
2.18168e-05
0.00227813
0.00494841
0.00805342
0.011603
0.0155934
0.0200045
0.0247974
0.0299125
0.035269
0.040765
0.0462799
0.0516786
0.0568177
0.0615539
0.0657543
0.0693071
0.0721326
0.0741916
0.0754903
0.0760808
0.0760545
0.0755319
0.0746476
0.073535
0.0723171
0.0710475
0.0698168
0.00117093
0.000972458
0.000770837
0.000574141
0.000377361
0.000182371
-1.05626e-05
-0.000201809
-0.00039219
-0.000582806
-0.000774882
-0.000969636
-0.00116818
-0.00137144
-0.00158017
-0.0017949
-0.00201597
-0.00224355
-0.00247767
-0.00271826
-0.00296518
-0.00321823
-0.00347719
-0.00374184
-0.00401191
-0.00428712
-0.0045671
-0.0048514
-0.00513931
-0.00542986
-0.00572159
-0.00601238
-0.00629924
-0.00657801
-0.00684301
-0.00708668
-0.00729916
-0.0074679
-0.00757717
-0.00760775
-0.00753663
-0.00733685
-0.00697751
-0.0064241
-0.00563903
-0.00458252
-0.0032139
-0.00149321
0.000616774
0.0031482
0.0061256
0.00956271
0.0134597
0.0178006
0.0225506
0.0276538
0.0330321
0.0385856
0.0441943
0.0497214
0.0550197
0.0599398
0.0643399
0.0680978
0.0711217
0.0733606
0.0748101
0.0755138
0.0755583
0.0750631
0.0741651
0.0730033
0.0717085
0.070337
0.0689926
0.0013237
0.00109816
0.000875204
0.000664138
0.000457617
0.000256816
6.11983e-05
-0.000130328
-0.000319201
-0.000507031
-0.00069544
-0.000885947
-0.00107988
-0.00127832
-0.00148211
-0.00169184
-0.00190791
-0.00213055
-0.00235984
-0.00259582
-0.00283848
-0.00308781
-0.00334385
-0.00360667
-0.00387642
-0.0041533
-0.00443749
-0.00472919
-0.00502844
-0.00533507
-0.00564851
-0.00596758
-0.00629024
-0.00661328
-0.00693194
-0.00723947
-0.00752671
-0.00778159
-0.00798866
-0.00812868
-0.00817829
-0.00810983
-0.00789136
-0.00748692
-0.00685712
-0.00596002
-0.00475241
-0.00319149
-0.00123689
0.00114703
0.00398863
0.00730566
0.0111024
0.0153671
0.0200697
0.025158
0.0305576
0.0361709
0.0418787
0.0475435
0.0530143
0.0581356
0.0627565
0.0667433
0.0699912
0.0724356
0.0740596
0.0748971
0.0750286
0.0745718
0.0736664
0.0724574
0.071085
0.06961
0.0681504
0.00147664
0.00122307
0.000977928
0.000751774
0.000534868
0.000327671
0.00012882
-6.35142e-05
-0.000251398
-0.000436954
-0.000622207
-0.000808977
-0.000998808
-0.00119294
-0.00139231
-0.00159759
-0.00180924
-0.00202754
-0.00225268
-0.0024848
-0.00272406
-0.00297068
-0.00322497
-0.00348737
-0.00375846
-0.00403896
-0.00432969
-0.00463152
-0.00494532
-0.00527175
-0.00561119
-0.00596342
-0.0063274
-0.00670087
-0.00707998
-0.00745878
-0.00782876
-0.00817827
-0.00849205
-0.00875075
-0.00893057
-0.00900306
-0.00893511
-0.00868927
-0.00822426
-0.00749593
-0.00645856
-0.00506648
-0.00327615
-0.00104849
0.00164879
0.00483758
0.00852626
0.0127077
0.0173567
0.0224255
0.0278437
0.0335167
0.039327
0.0451364
0.0507911
0.0561293
0.0609909
0.06523
0.0687276
0.071404
0.0732282
0.0742222
0.0744591
0.0740541
0.0731494
0.071897
0.0704476
0.0688679
0.0672911
0.00162797
0.00134549
0.00107739
0.00083552
0.000607674
0.000393574
0.000191004
-2.61918e-06
-0.00019
-0.000373775
-0.000556376
-0.000739922
-0.000926173
-0.00111652
-0.00131201
-0.00151338
-0.00172118
-0.00193576
-0.00215741
-0.00238642
-0.00262313
-0.00286801
-0.0031217
-0.00338503
-0.00365908
-0.00394512
-0.00424464
-0.00455929
-0.00489074
-0.00524059
-0.00561018
-0.0060003
-0.00641089
-0.00684069
-0.00728673
-0.00774383
-0.00820406
-0.00865616
-0.00908496
-0.00947091
-0.00978968
-0.0100119
-0.0101034
-0.0100249
-0.00973343
-0.00918255
-0.00832402
-0.00710938
-0.00549199
-0.00342934
-0.000885041
0.00216696
0.005739
0.00982876
0.0144168
0.0194598
0.0248919
0.0306223
0.0365359
0.0424946
0.0483422
0.053911
0.0590318
0.0635459
0.067319
0.0702548
0.0723061
0.0734812
0.0738442
0.0735064
0.0726126
0.0713222
0.0697972
0.0681118
0.0664156
0.00177584
0.00146366
0.00117191
0.000913777
0.000674517
0.000453075
0.00024636
5.10134e-05
-0.000136316
-0.000318785
-0.000499224
-0.000680051
-0.000863238
-0.00105032
-0.00124246
-0.00144048
-0.00164498
-0.00185643
-0.00207524
-0.00230184
-0.00253681
-0.00278088
-0.00303506
-0.00330063
-0.00357916
-0.00387257
-0.00418307
-0.00451308
-0.00486517
-0.0052419
-0.00564559
-0.00607808
-0.00654032
-0.00703201
-0.00755105
-0.00809298
-0.00865043
-0.00921243
-0.00976383
-0.0102848
-0.0107504
-0.0111303
-0.0113891
-0.0114859
-0.0113758
-0.0110103
-0.0103385
-0.00930933
-0.00787314
-0.00598409
-0.00360147
-0.000695148
0.00275054
0.00673999
0.0112584
0.0162677
0.0217071
0.0274905
0.0335057
0.0396157
0.0456627
0.0514737
0.0568702
0.0616808
0.0657548
0.0689776
0.071284
0.0726666
0.0731783
0.0729256
0.0720548
0.0707331
0.0691352
0.0673433
0.065525
0.00191841
0.00157576
0.00125974
0.000984881
0.000733799
0.000504643
0.00029341
9.59496e-05
-9.17462e-05
-0.000273355
-0.000452105
-0.000630703
-0.000811328
-0.000995661
-0.00118496
-0.00138013
-0.00158188
-0.00179075
-0.0020073
-0.00223216
-0.00246612
-0.00271025
-0.00296594
-0.00323493
-0.00351939
-0.00382189
-0.00414539
-0.00449315
-0.00486869
-0.00527554
-0.00571705
-0.00619609
-0.00671465
-0.00727337
-0.00787098
-0.00850373
-0.00916471
-0.00984317
-0.0105239
-0.0111868
-0.0118062
-0.0123508
-0.0127837
-0.0130628
-0.013141
-0.0129677
-0.0124898
-0.0116534
-0.0104061
-0.00869866
-0.00648619
-0.00373524
-0.000426606
0.00345448
0.00789336
0.0128595
0.0182979
0.0241275
0.0302402
0.0365009
0.042751
0.0488129
0.0544997
0.0596264
0.0640256
0.0675632
0.0701536
0.0717717
0.0724568
0.0723088
0.0714751
0.0701305
0.0684631
0.0665644
0.0646209
0.00205377
0.00167994
0.0013391
0.00104709
0.000783844
0.000546658
0.000330587
0.000130667
-5.77759e-05
-0.000238941
-0.000416445
-0.000593278
-0.000771814
-0.000953871
-0.0011408
-0.00133361
-0.00153308
-0.00173987
-0.00195469
-0.00217837
-0.00241199
-0.00265694
-0.00291503
-0.00318854
-0.00348022
-0.00379337
-0.00413172
-0.00449945
-0.00490101
-0.00534095
-0.00582367
-0.0063531
-0.00693223
-0.00756262
-0.00824383
-0.00897272
-0.0097428
-0.0105435
-0.0113595
-0.0121702
-0.0129493
-0.0136645
-0.0142775
-0.0147445
-0.0150169
-0.0150419
-0.014764
-0.014127
-0.0130753
-0.0115555
-0.00952136
-0.00693675
-0.00377252
-1.14819e-05
0.00433657
0.00924887
0.0146762
0.0205434
0.0267469
0.033155
0.0396089
0.0459277
0.0519162
0.0573767
0.0621242
0.0660037
0.0689076
0.0707903
0.0716753
0.071654
0.0708732
0.0695156
0.0677831
0.0657773
0.0637055
0.00217998
0.0017743
0.0014081
0.0010986
0.000822895
0.000577417
0.000356238
0.000153558
-3.59726e-05
-0.00021707
-0.000393736
-0.000569229
-0.000746109
-0.00092632
-0.00111131
-0.00130217
-0.00149976
-0.00170489
-0.00191842
-0.0021414
-0.00237521
-0.00262161
-0.00288287
-0.00316182
-0.00346186
-0.00378702
-0.00414189
-0.00453154
-0.00496142
-0.00543712
-0.0059641
-0.00654732
-0.00719078
-0.00789695
-0.00866613
-0.00949578
-0.0103798
-0.0113076
-0.0122638
-0.0132273
-0.0141709
-0.0150614
-0.0158592
-0.016519
-0.0169903
-0.0172184
-0.0171459
-0.0167138
-0.0158634
-0.014539
-0.0126929
-0.0102817
-0.00726925
-0.00364077
0.00060595
0.00545299
0.0108579
0.016752
0.0230375
0.0295865
0.0362419
0.0428202
0.0491191
0.0549283
0.0600452
0.0642929
0.0675398
0.0697172
0.0708303
0.0709593
0.0702493
0.0688901
0.0670981
0.0649854
0.0627816
0.00229504
0.00185686
0.00146483
0.00113751
0.000849113
0.000595132
0.000368623
0.000162929
-2.79825e-05
-0.000209345
-0.00038553
-0.000560057
-0.000735657
-0.000914388
-0.00109779
-0.00128702
-0.00148306
-0.00168683
-0.00189938
-0.00212202
-0.00235642
-0.00260476
-0.00286979
-0.00315493
-0.00346426
-0.00380259
-0.00417537
-0.00458863
-0.00504882
-0.00556259
-0.00613645
-0.00677642
-0.00748746
-0.00827289
-0.00913376
-0.010068
-0.0110698
-0.0121287
-0.0132291
-0.0143491
-0.0154611
-0.0165305
-0.0175167
-0.0183728
-0.0190467
-0.0194819
-0.0196187
-0.0193962
-0.0187534
-0.0176323
-0.0159799
-0.0137479
-0.0108989
-0.00741168
-0.00327744
0.00149224
0.00686218
0.0127709
0.0191271
0.0258083
0.0326595
0.0394965
0.0461109
0.0522808
0.0577858
0.0624262
0.066045
0.068548
0.0699188
0.0702238
0.0696044
0.0682565
0.0664113
0.0641923
0.0618532
0.00239692
0.0019256
0.00150728
0.00116186
0.000860577
0.000597929
0.000365919
0.000157007
-3.55268e-05
-0.00021743
-0.000393435
-0.000567304
-0.000741923
-0.000919456
-0.00110152
-0.00128935
-0.00148404
-0.00168664
-0.0018984
-0.00212088
-0.00235611
-0.00260669
-0.00287591
-0.00316777
-0.0034871
-0.0038395
-0.00423133
-0.00466957
-0.00516172
-0.00571547
-0.00633841
-0.00703756
-0.00781883
-0.00868639
-0.00964192
-0.0106838
-0.0118065
-0.0129996
-0.0142469
-0.0155264
-0.0168093
-0.0180602
-0.0192371
-0.0202918
-0.0211707
-0.0218155
-0.0221648
-0.0221554
-0.0217241
-0.0208103
-0.0193571
-0.0173128
-0.0146364
-0.0113002
-0.00728977
-0.00260991
0.00271176
0.00862142
0.0150353
0.0218369
0.0288754
0.0359667
0.042898
0.0494368
0.0553455
0.0604015
0.0644202
0.0672796
0.0689387
0.0694472
0.0689399
0.0676179
0.0657272
0.063403
0.0609251
0.00248351
0.00197841
0.00153336
0.0011696
0.00085528
0.00058385
0.000346218
0.000133941
-6.03969e-05
-0.00024305
-0.000419102
-0.000592536
-0.000766384
-0.000942898
-0.00112376
-0.0013103
-0.00150369
-0.00170515
-0.00191613
-0.00213848
-0.0023746
-0.00262753
-0.00290111
-0.00320001
-0.00352979
-0.00389689
-0.00430858
-0.00477285
-0.00529822
-0.00589345
-0.00656717
-0.00732741
-0.00818099
-0.00913284
-0.0101853
-0.0113371
-0.0125828
-0.013912
-0.0153083
-0.0167488
-0.0182041
-0.0196378
-0.0210067
-0.0222612
-0.0233463
-0.0242021
-0.0247655
-0.0249714
-0.0247546
-0.0240516
-0.0228025
-0.0209525
-0.0184564
-0.0152805
-0.0114048
-0.00682715
-0.0015675
0.00432849
0.0107852
0.0176933
0.0249072
0.032245
0.0394907
0.0464028
0.0527274
0.0582187
0.0626639
0.0659103
0.0678891
0.0686298
0.0682581
0.0669781
0.0650507
0.0626231
0.0600032
0.00255265
0.00201312
0.00154092
0.00115861
0.00083113
0.000550848
0.000307529
9.18033e-05
-0.00010445
-0.000287986
-0.000464219
-0.000637346
-0.000810518
-0.000986067
-0.00116574
-0.00135093
-0.00154292
-0.00174309
-0.00195313
-0.00217517
-0.00241201
-0.00266717
-0.00294507
-0.00325106
-0.00359146
-0.00397358
-0.00440563
-0.00489661
-0.00545607
-0.00609383
-0.00681955
-0.00764223
-0.00856955
-0.00960718
-0.010758
-0.012021
-0.0133911
-0.0148575
-0.0164035
-0.0180057
-0.0196339
-0.0212505
-0.0228113
-0.0242656
-0.0255568
-0.0266238
-0.0274018
-0.0278241
-0.0278233
-0.0273336
-0.0262924
-0.0246418
-0.0223323
-0.0193251
-0.0155942
-0.0111308
-0.00594696
-7.98906e-05
0.00640349
0.0134021
0.020777
0.0283497
0.0359034
0.0431889
0.0499376
0.0558809
0.0607767
0.0644398
0.0667702
0.0677732
0.0675621
0.066342
0.0643878
0.0618593
0.0590945
0.00260211
0.0020275
0.00152771
0.00112665
0.000785942
0.000496791
0.000247781
2.85917e-05
-0.000169607
-0.000354061
-0.000530508
-0.000703332
-0.000875792
-0.00105028
-0.0012286
-0.00141222
-0.00160253
-0.00180108
-0.00200978
-0.00223112
-0.00246828
-0.00272531
-0.00300722
-0.00332007
-0.00367098
-0.00406813
-0.0045207
-0.00503868
-0.00563268
-0.00631356
-0.00709197
-0.00797786
-0.00897974
-0.0101039
-0.0113538
-0.0127287
-0.0142234
-0.0158272
-0.0175227
-0.0192862
-0.0210864
-0.022885
-0.0246366
-0.0262893
-0.0277854
-0.0290624
-0.0300542
-0.0306925
-0.0309081
-0.0306331
-0.0298021
-0.0283544
-0.0262366
-0.023405
-0.019828
-0.0154902
-0.0103956
-0.00457288
0.00192025
0.00899175
0.0165106
0.0243035
0.0321546
0.0398094
0.0469861
0.0533943
0.0587621
0.06287
0.0655835
0.0668799
0.0668559
0.0657153
0.0637456
0.0611195
0.0582073
0.00262958
0.0020192
0.0014914
0.00107142
0.00071744
0.000419456
0.000164819
-5.77656e-05
-0.000257842
-0.000443144
-0.000619709
-0.000792096
-0.000963653
-0.00113682
-0.00131345
-0.00149507
-0.0016832
-0.00187956
-0.00208633
-0.00230632
-0.00254315
-0.00280142
-0.00308676
-0.00340595
-0.00376694
-0.0041788
-0.00465168
-0.00519659
-0.00582516
-0.00654926
-0.00738056
-0.00832986
-0.00940647
-0.0106173
-0.0119662
-0.0134526
-0.0150715
-0.0168118
-0.0186558
-0.020579
-0.0225495
-0.0245279
-0.026468
-0.0283167
-0.0300153
-0.0315
-0.0327035
-0.033556
-0.0339869
-0.0339262
-0.0333063
-0.0320636
-0.0301411
-0.0274907
-0.0240754
-0.0198732
-0.0148806
-0.00911739
-0.00263181
0.00449382
0.0121375
0.0201329
0.0282671
0.0362827
0.0438866
0.0507682
0.0566261
0.0612048
0.0643323
0.0659536
0.0661447
0.0651045
0.0631322
0.0604127
0.0573511
0.00263268
0.00198582
0.00142955
0.000990501
0.00062325
0.000316528
5.64063e-05
-0.000169409
-0.000371186
-0.000557133
-0.000733577
-0.00090523
-0.00107551
-0.00124691
-0.00142129
-0.00160027
-0.00178549
-0.00197886
-0.00218282
-0.00240057
-0.00263617
-0.00289477
-0.00318266
-0.00350738
-0.0038777
-0.00430362
-0.00479625
-0.0053676
-0.00603033
-0.00679732
-0.00768116
-0.00869352
-0.00984442
-0.0111414
-0.0125885
-0.0141853
-0.0159271
-0.0178021
-0.0197925
-0.021873
-0.0240109
-0.0261661
-0.0282913
-0.0303325
-0.0322299
-0.0339187
-0.0353305
-0.0363942
-0.0370378
-0.0371896
-0.03678
-0.0357427
-0.0340176
-0.0315523
-0.0283049
-0.024247
-0.0193679
-0.0136786
-0.00721779
-5.74052e-05
0.00769055
0.0158682
0.0242678
0.0326312
0.040657
0.0480158
0.0543779
0.0594508
0.0630217
0.0649996
0.0654349
0.0645177
0.0625567
0.0597491
0.0565367
0.00260896
0.00192483
0.00133964
0.000881371
0.000500895
0.000185599
-7.97744e-05
-0.000308547
-0.000511714
-0.000697956
-0.000873871
-0.00104431
-0.00121274
-0.00138168
-0.00155305
-0.00172851
-0.00190983
-0.00209914
-0.00229917
-0.00251349
-0.00274666
-0.00300439
-0.00329367
-0.00362279
-0.00400138
-0.00444036
-0.00495181
-0.00554875
-0.00624482
-0.00705388
-0.00798943
-0.00906394
-0.0102881
-0.0116699
-0.0132138
-0.0149192
-0.0167816
-0.0187889
-0.0209227
-0.0231572
-0.0254588
-0.0277866
-0.0300924
-0.0323215
-0.0344129
-0.0363011
-0.0379165
-0.0391871
-0.0400395
-0.0404006
-0.0401988
-0.0393657
-0.0378383
-0.0355602
-0.032485
-0.0285785
-0.0238229
-0.0182208
-0.0118012
-0.00462549
0.00320523
0.011543
0.020187
0.0288815
0.0373189
0.0451542
0.05203
0.0576169
0.061659
0.0640247
0.0647341
0.0639638
0.0620298
0.0591403
0.0557765
0.00255586
0.00183361
0.00121901
0.000741396
0.000347788
2.41619e-05
-0.000246125
-0.000477452
-0.000681549
-0.000867561
-0.00104235
-0.00121087
-0.00137666
-0.00154223
-0.00170953
-0.00188032
-0.00205649
-0.0022404
-0.00243509
-0.00264452
-0.00287376
-0.00312914
-0.00341834
-0.00375042
-0.0041359
-0.00458661
-0.0051156
-0.00573687
-0.00646506
-0.00731494
-0.00830088
-0.00943611
-0.0107319
-0.0121967
-0.0138353
-0.0156468
-0.0176269
-0.0197631
-0.0220366
-0.0244207
-0.0268814
-0.0293768
-0.031858
-0.0342692
-0.0365489
-0.0386306
-0.0404439
-0.0419157
-0.0429716
-0.0435372
-0.0435393
-0.0429075
-0.0415761
-0.0394855
-0.0365849
-0.032835
-0.0282111
-0.0227079
-0.0163448
-0.00917259
-0.00128087
0.00719346
0.0160588
0.0250637
0.0338982
0.0422039
0.0495985
0.0557154
0.0602538
0.0630378
0.0640515
0.0634534
0.0615631
0.0585992
0.0550841
0.00247072
0.00170944
0.00106489
0.000567819
0.000161229
-0.000170393
-0.000445134
-0.000678459
-0.000882849
-0.00106791
-0.00124074
-0.00140642
-0.00156851
-0.00172953
-0.00189146
-0.00205613
-0.00222561
-0.00240248
-0.00259011
-0.0027929
-0.00301643
-0.00326767
-0.00355501
-0.00388833
-0.00427899
-0.00473978
-0.00528468
-0.00592869
-0.00668737
-0.00757641
-0.00861098
-0.009805
-0.0111703
-0.0127157
-0.0144464
-0.0163605
-0.0184549
-0.0207159
-0.0231245
-0.0256534
-0.0282676
-0.0309248
-0.0335751
-0.036162
-0.0386232
-0.0408915
-0.0428957
-0.0445619
-0.0458147
-0.0465787
-0.0467792
-0.0463441
-0.0452054
-0.0433006
-0.0405751
-0.0369847
-0.0324986
-0.027104
-0.0208112
-0.0136602
-0.00572884
0.00285803
0.0119195
0.0212115
0.0304242
0.0391896
0.0471028
0.0537616
0.0588183
0.0620494
0.063398
0.0629983
0.0611701
0.0581404
0.0544749
0.00235078
0.00154943
0.000874362
0.000357745
-6.16113e-05
-0.000400786
-0.000679373
-0.000913968
-0.00111781
-0.00130097
-0.00147078
-0.00163242
-0.00178947
-0.00194445
-0.0020994
-0.00225622
-0.00241716
-0.00258504
-0.0027636
-0.00295769
-0.00317343
-0.00341845
-0.00370187
-0.00403438
-0.00442824
-0.00489714
-0.00545602
-0.00612082
-0.00690802
-0.00783415
-0.00891516
-0.0101656
-0.0115978
-0.013221
-0.0150404
-0.0170532
-0.0192577
-0.0216388
-0.0241775
-0.0268454
-0.0296071
-0.0324194
-0.0352317
-0.037987
-0.0406222
-0.0430692
-0.0452564
-0.0471091
-0.0485511
-0.049506
-0.0498979
-0.0496534
-0.0487022
-0.0469796
-0.0444275
-0.0409974
-0.0366531
-0.0313746
-0.0251636
-0.0180498
-0.0100991
-0.00142361
0.00780805
0.0173612
0.0269297
0.0361395
0.0445662
0.051774
0.0573674
0.0610726
0.0627861
0.0626121
0.0608654
0.0577798
0.0539657
0.00219314
0.00135058
0.000644368
0.000108132
-0.000323696
-0.000669851
-0.000951509
-0.00118644
-0.00138866
-0.0015687
-0.00173415
-0.00189025
-0.00204061
-0.00218778
-0.0023338
-0.00248072
-0.00263093
-0.00278757
-0.00295475
-0.00313778
-0.00334335
-0.00357978
-0.00385693
-0.00418633
-0.0045811
-0.00505586
-0.00562649
-0.00630982
-0.00712324
-0.00808406
-0.00920895
-0.010513
-0.0120091
-0.0137066
-0.0156113
-0.0177182
-0.0200281
-0.0225241
-0.025187
-0.0279877
-0.0308901
-0.0338502
-0.036817
-0.0397325
-0.0425332
-0.0451505
-0.0475119
-0.0495422
-0.0511645
-0.0523016
-0.0528767
-0.052815
-0.0520447
-0.0504988
-0.0481164
-0.0448451
-0.040644
-0.0354866
-0.0293667
-0.0223038
-0.0143523
-0.00561114
0.00376451
0.0135516
0.0234506
0.0330852
0.0420154
0.0497746
0.055919
0.0601227
0.0622306
0.0623099
0.0606656
0.057535
0.053575
0.00199477
0.00110973
0.00037167
-0.00018423
-0.000628139
-0.000980548
-0.0012643
-0.00149839
-0.00169765
-0.00187308
-0.00203249
-0.00218124
-0.00232294
-0.00246015
-0.00259498
-0.00272959
-0.00286659
-0.00300941
-0.00316257
-0.00333189
-0.00352464
-0.00374983
-0.0040181
-0.00434181
-0.00473496
-0.00521308
-0.00579295
-0.0064923
-0.00732932
-0.00832213
-0.009488
-0.0108426
-0.0123991
-0.0141671
-0.0161535
-0.0183488
-0.0207593
-0.0233644
-0.0261454
-0.029072
-0.0321078
-0.035208
-0.0383209
-0.041388
-0.0443453
-0.0471234
-0.0496494
-0.0518476
-0.0536405
-0.0549501
-0.0556989
-0.055811
-0.0552132
-0.0538367
-0.0516182
-0.0485022
-0.0444432
-0.0394093
-0.0333868
-0.0263861
-0.01845
-0.00966439
-0.000170231