/*--------------------------------*- C++ -*----------------------------------*\
  =========                 |
  \\      /  F ield         | OpenFOAM: The Open Source CFD Toolbox
   \\    /   O peration     | Website:  https://openfoam.org
    \\  /    A nd           | Version:  12
     \\/     M anipulation  |
\*---------------------------------------------------------------------------*/
FoamFile
{
    format      ascii;
    class       volVectorField;
    location    "4.5";
    object      U;
}
// * * * * * * * * * * * * * * * * * * * * * * * * * * * * * * * * * * * * * //

dimensions      [0 1 -1 0 0 0 0];

internalField   nonuniform List<vector> 
5625
(
(7.56086e-06 -3.51783e-06 0)
(4.61252e-05 -5.87048e-06 0)
(9.08146e-05 -5.31287e-06 0)
(0.000121338 -3.30888e-06 0)
(0.000127685 -1.01157e-06 0)
(0.000107827 1.23394e-06 0)
(6.28361e-05 3.22535e-06 0)
(-4.66883e-06 4.90052e-06 0)
(-9.15321e-05 6.25991e-06 0)
(-0.000194631 7.33958e-06 0)
(-0.000311205 8.19073e-06 0)
(-0.000439031 8.87062e-06 0)
(-0.000576486 9.4359e-06 0)
(-0.000722557 9.93901e-06 0)
(-0.0008768 1.04263e-05 0)
(-0.00103929 1.09375e-05 0)
(-0.00121053 1.15057e-05 0)
(-0.00139144 1.21586e-05 0)
(-0.00158323 1.29186e-05 0)
(-0.00178739 1.38048e-05 0)
(-0.00200566 1.48332e-05 0)
(-0.00223996 1.60179e-05 0)
(-0.00249236 1.7372e-05 0)
(-0.00276512 1.89074e-05 0)
(-0.00306061 2.06359e-05 0)
(-0.00338133 2.25687e-05 0)
(-0.00372985 2.47162e-05 0)
(-0.00410886 2.70879e-05 0)
(-0.00452104 2.96918e-05 0)
(-0.00496912 3.25332e-05 0)
(-0.00545577 3.56143e-05 0)
(-0.00598353 3.89326e-05 0)
(-0.00655477 4.24795e-05 0)
(-0.00717156 4.6239e-05 0)
(-0.00783556 5.01858e-05 0)
(-0.00854788 5.42833e-05 0)
(-0.00930894 5.84814e-05 0)
(-0.0101183 6.27145e-05 0)
(-0.0109743 6.6899e-05 0)
(-0.0118742 7.09318e-05 0)
(-0.0128136 7.46877e-05 0)
(-0.0137864 7.80186e-05 0)
(-0.0147845 8.07525e-05 0)
(-0.0157977 8.26941e-05 0)
(-0.0168132 8.36266e-05 0)
(-0.0178159 8.3315e-05 0)
(-0.0187881 8.15127e-05 0)
(-0.0197095 7.79693e-05 0)
(-0.0205576 7.24436e-05 0)
(-0.0213076 6.47516e-05 0)
(-0.0219324 5.44774e-05 0)
(-0.0224062 4.18369e-05 0)
(-0.022699 2.6934e-05 0)
(-0.0227912 9.07776e-06 0)
(-0.0226538 -1.05425e-05 0)
(-0.0222698 -3.20515e-05 0)
(-0.0216264 -5.47787e-05 0)
(-0.0207186 -7.79302e-05 0)
(-0.0195508 -0.000100568 0)
(-0.0181382 -0.00012162 0)
(-0.016508 -0.000139941 0)
(-0.0146988 -0.000154395 0)
(-0.0127606 -0.000163952 0)
(-0.0107527 -0.0001678 0)
(-0.00874089 -0.000165437 0)
(-0.00679428 -0.000156749 0)
(-0.00498076 -0.000142041 0)
(-0.00336296 -0.000122015 0)
(-0.00199422 -9.77002e-05 0)
(-0.000915218 -7.03504e-05 0)
(-0.000151267 -4.13753e-05 0)
(0.000290252 -1.24808e-05 0)
(0.000424328 1.45917e-05 0)
(0.000312972 3.39165e-05 0)
(8.20007e-05 3.71856e-05 0)
(1.79564e-05 -2.50348e-05 0)
(0.000107357 -4.35865e-05 0)
(0.000200129 -3.7224e-05 0)
(0.000253265 -1.69577e-05 0)
(0.000243028 8.50749e-06 0)
(0.00016299 3.45899e-05 0)
(1.47074e-05 5.88659e-05 0)
(-0.000195917 8.02776e-05 0)
(-0.000461217 9.85458e-05 0)
(-0.000773303 0.000113852 0)
(-0.00112504 0.00012664 0)
(-0.00151059 0.00013748 0)
(-0.00192563 0.000146983 0)
(-0.00236745 0.000155745 0)
(-0.00283485 0.000164318 0)
(-0.00332804 0.000173192 0)
(-0.00384848 0.000182793 0)
(-0.0043987 0.000193482 0)
(-0.00498215 0.000205564 0)
(-0.00560304 0.000219297 0)
(-0.00626627 0.000234899 0)
(-0.00697727 0.000252561 0)
(-0.00774197 0.000272446 0)
(-0.00856671 0.000294698 0)
(-0.00945817 0.000319446 0)
(-0.0104233 0.000346797 0)
(-0.0114694 0.000376835 0)
(-0.0126038 0.000409618 0)
(-0.0138338 0.000445165 0)
(-0.0151668 0.000483449 0)
(-0.0166098 0.00052438 0)
(-0.0181694 0.000567794 0)
(-0.0198514 0.000613434 0)
(-0.0216607 0.000660931 0)
(-0.023601 0.000709786 0)
(-0.0256738 0.000759347 0)
(-0.027879 0.000808789 0)
(-0.0302134 0.000857098 0)
(-0.0326708 0.000903047 0)
(-0.0352411 0.000945189 0)
(-0.0379098 0.000981845 0)
(-0.0406576 0.0010111 0)
(-0.0434597 0.00103084 0)
(-0.0462851 0.00103872 0)
(-0.0490967 0.00103228 0)
(-0.0518507 0.00100894 0)
(-0.0544968 0.000966135 0)
(-0.0569782 0.000901401 0)
(-0.0592328 0.000812528 0)
(-0.0611936 0.000697689 0)
(-0.0627887 0.000555276 0)
(-0.0639522 0.000384295 0)
(-0.064598 0.000189345 0)
(-0.0646866 -3.05669e-05 0)
(-0.064142 -0.000273364 0)
(-0.0629248 -0.000531323 0)
(-0.0610062 -0.000797969 0)
(-0.0583792 -0.00106459 0)
(-0.0550611 -0.0013209 0)
(-0.0510976 -0.00155554 0)
(-0.0465636 -0.00175665 0)
(-0.0415641 -0.00191267 0)
(-0.0362316 -0.0020133 0)
(-0.0307221 -0.0020505 0)
(-0.0252076 -0.00201935 0)
(-0.0198682 -0.00191883 0)
(-0.0148812 -0.00175215 0)
(-0.0104103 -0.00152668 0)
(-0.00659555 -0.00125358 0)
(-0.00354391 -0.000947115 0)
(-0.00132098 -0.000624381 0)
(5.7368e-05 -0.000306542 0)
(0.000637254 -2.30348e-05 0)
(0.000573698 0.000172697 0)
(0.000150433 0.000182368 0)
(2.41063e-05 -5.9806e-05 0)
(0.000140221 -9.75028e-05 0)
(0.000247789 -7.69101e-05 0)
(0.000291039 -2.3449e-05 0)
(0.000237435 4.37412e-05 0)
(7.69259e-05 0.000113342 0)
(-0.000189151 0.000179022 0)
(-0.000552857 0.000237777 0)
(-0.00100331 0.000288637 0)
(-0.00152905 0.000331905 0)
(-0.00211954 0.000368625 0)
(-0.00276604 0.000400227 0)
(-0.00346205 0.000428289 0)
(-0.00420349 0.000454387 0)
(-0.00498857 0.000479995 0)
(-0.00581769 0.000506445 0)
(-0.00669318 0.000534898 0)
(-0.00761908 0.000566354 0)
(-0.00860087 0.000601663 0)
(-0.00964527 0.000641543 0)
(-0.01076 0.000686605 0)
(-0.0119539 0.000737372 0)
(-0.0132362 0.000794294 0)
(-0.014617 0.000857758 0)
(-0.016107 0.000928089 0)
(-0.017717 0.00100555 0)
(-0.0194585 0.00109033 0)
(-0.0213428 0.00118252 0)
(-0.0233813 0.00128211 0)
(-0.025585 0.00138893 0)
(-0.0279644 0.00150262 0)
(-0.0305292 0.00162262 0)
(-0.0332876 0.00174808 0)
(-0.036246 0.00187785 0)
(-0.0394085 0.0020104 0)
(-0.0427762 0.00214376 0)
(-0.0463464 0.00227552 0)
(-0.050112 0.00240273 0)
(-0.0540606 0.00252189 0)
(-0.0581736 0.00262892 0)
(-0.0624254 0.00271914 0)
(-0.0667825 0.00278732 0)
(-0.071203 0.00282769 0)
(-0.0756357 0.00283403 0)
(-0.08002 0.00279984 0)
(-0.0842852 0.00271848 0)
(-0.0883513 0.00258342 0)
(-0.0921296 0.00238859 0)
(-0.0955235 0.0021287 0)
(-0.0984304 0.00179969 0)
(-0.100743 0.00139879 0)
(-0.102362 0.000922628 0)
(-0.103162 0.000387552 0)
(-0.103085 -0.000215379 0)
(-0.102024 -0.000870148 0)
(-0.0999266 -0.00156212 0)
(-0.0967568 -0.00227239 0)
(-0.0925108 -0.00297804 0)
(-0.0872219 -0.00365248 0)
(-0.0809641 -0.00426658 0)
(-0.0738546 -0.00479021 0)
(-0.0660532 -0.00519423 0)
(-0.0577597 -0.00545277 0)
(-0.0492069 -0.00554562 0)
(-0.0406513 -0.00546052 0)
(-0.0323606 -0.0051949 0)
(-0.0245989 -0.00475691 0)
(-0.0176107 -0.00416541 0)
(-0.0116062 -0.00344923 0)
(-0.00674607 -0.00264593 0)
(-0.00312867 -0.00180142 0)
(-0.000775905 -0.000972583 0)
(0.000384269 -0.000236934 0)
(0.000571975 0.000281801 0)
(0.000166195 0.000363369 0)
(2.67582e-05 -0.000101891 0)
(0.0001488 -0.000156761 0)
(0.000244261 -0.000111845 0)
(0.000250244 -1.05368e-05 0)
(0.000129079 0.000115679 0)
(-0.000131648 0.000246973 0)
(-0.000530788 0.000371872 0)
(-0.00105898 0.000484603 0)
(-0.00170302 0.00058314 0)
(-0.00244871 0.000667838 0)
(-0.0032829 0.00074049 0)
(-0.00419459 0.000803668 0)
(-0.00517556 0.000860271 0)
(-0.00622066 0.000913232 0)
(-0.00732771 0.000965327 0)
(-0.00849735 0.00101908 0)
(-0.00973278 0.00107671 0)
(-0.0110394 0.00114015 0)
(-0.0124247 0.00121103 0)
(-0.0138975 0.00129075 0)
(-0.0154684 0.00138048 0)
(-0.0171489 0.00148123 0)
(-0.0189516 0.00159386 0)
(-0.0208899 0.00171909 0)
(-0.022978 0.0018575 0)
(-0.0252304 0.00200955 0)
(-0.0276618 0.00217554 0)
(-0.0302871 0.00235553 0)
(-0.033121 0.0025494 0)
(-0.0361776 0.00275668 0)
(-0.03947 0.00297653 0)
(-0.0430097 0.00320769 0)
(-0.0468063 0.00344833 0)
(-0.0508667 0.003696 0)
(-0.0551944 0.00394754 0)
(-0.0597882 0.00419896 0)
(-0.064642 0.00444537 0)
(-0.0697434 0.00468089 0)
(-0.0750725 0.00489863 0)
(-0.0806012 0.00509061 0)
(-0.0862918 0.0052478 0)
(-0.0920965 0.00536017 0)
(-0.0979562 0.00541682 0)
(-0.1038 0.00540614 0)
(-0.109545 0.00531608 0)
(-0.115096 0.00513457 0)
(-0.120347 0.00484995 0)
(-0.12518 0.00445156 0)
(-0.129471 0.00393045 0)
(-0.133088 0.00328015 0)
(-0.135895 0.00249729 0)
(-0.137765 0.00158053 0)
(-0.138563 0.0005454 0)
(-0.138185 -0.000600693 0)
(-0.136529 -0.00184038 0)
(-0.133529 -0.00314303 0)
(-0.129149 -0.00447331 0)
(-0.123393 -0.00578878 0)
(-0.11631 -0.0070408 0)
(-0.108 -0.00817653 0)
(-0.0986149 -0.00914162 0)
(-0.0883603 -0.00988368 0)
(-0.0774887 -0.0103563 0)
(-0.0662932 -0.0105233 0)
(-0.0550962 -0.0103625 0)
(-0.0442339 -0.00986925 0)
(-0.0340387 -0.00905803 0)
(-0.02482 -0.00796299 0)
(-0.0168445 -0.00663685 0)
(-0.0103175 -0.00514917 0)
(-0.00536525 -0.00358587 0)
(-0.0020165 -0.0020533 0)
(-0.000181827 -0.000692768 0)
(0.00039867 0.000286364 0)
(0.000153836 0.000529487 0)
(2.6935e-05 -0.000144193 0)
(0.000137505 -0.000209153 0)
(0.000198349 -0.000128473 0)
(0.000143402 3.4462e-05 0)
(-6.72843e-05 0.000234839 0)
(-0.000447129 0.000443415 0)
(-0.000994784 0.000642827 0)
(-0.0016997 0.000824001 0)
(-0.00254683 0.00098357 0)
(-0.00351989 0.00112188 0)
(-0.00460369 0.00124155 0)
(-0.00578547 0.00134652 0)
(-0.00705574 0.00144126 0)
(-0.00840854 0.00153038 0)
(-0.00984148 0.00161824 0)
(-0.0113555 0.00170887 0)
(-0.0129548 0.00180582 0)
(-0.0146459 0.00191216 0)
(-0.0164381 0.00203055 0)
(-0.0183425 0.00216324 0)
(-0.0203719 0.00231211 0)
(-0.0225405 0.00247879 0)
(-0.0248639 0.00266463 0)
(-0.0273585 0.00287075 0)
(-0.0300413 0.00309804 0)
(-0.0329301 0.00334714 0)
(-0.0360425 0.0036184 0)
(-0.0393965 0.00391182 0)
(-0.0430092 0.00422699 0)
(-0.0468969 0.00456296 0)
(-0.0510744 0.00491817 0)
(-0.0555546 0.00529028 0)
(-0.0603473 0.00567606 0)
(-0.0654586 0.00607127 0)
(-0.0708903 0.00647047 0)
(-0.076638 0.0068669 0)
(-0.082691 0.00725239 0)
(-0.0890302 0.00761719 0)
(-0.0956275 0.00794996 0)
(-0.102445 0.00823774 0)
(-0.109431 0.00846599 0)
(-0.116525 0.00861869 0)
(-0.123649 0.00867861 0)
(-0.130716 0.00862762 0)
(-0.13762 0.00844716 0)
(-0.144246 0.00811883 0)
(-0.150463 0.0076252 0)
(-0.156132 0.0069507 0)
(-0.161104 0.00608269 0)
(-0.165223 0.00501266 0)
(-0.168335 0.00373735 0)
(-0.170291 0.00225892 0)
(-0.170946 0.000596982 0)
(-0.170175 -0.00123121 0)
(-0.167876 -0.00319574 0)
(-0.163979 -0.00525 0)
(-0.158449 -0.00733871 0)
(-0.151301 -0.00939613 0)
(-0.1426 -0.0113477 0)
(-0.132468 -0.0131128 0)
(-0.121085 -0.0146089 0)
(-0.108691 -0.0157568 0)
(-0.0955802 -0.0164861 0)
(-0.0820914 -0.0167419 0)
(-0.0685974 -0.0164904 0)
(-0.0554878 -0.0157238 0)
(-0.0431488 -0.0144639 0)
(-0.0319417 -0.0127623 0)
(-0.0221801 -0.0107 0)
(-0.0141072 -0.00838487 0)
(-0.00787467 -0.00595109 0)
(-0.00352093 -0.00356428 0)
(-0.000948698 -0.00143917 0)
(0.000119322 0.000122216 0)
(0.000128119 0.000635088 0)
(2.53279e-05 -0.000181536 0)
(0.000110267 -0.000245126 0)
(0.000117373 -0.000115767 0)
(-1.92681e-05 0.000122483 0)
(-0.000339446 0.000411053 0)
(-0.000856324 0.000710949 0)
(-0.00156777 0.000998483 0)
(-0.00246198 0.00126102 0)
(-0.00352232 0.00149367 0)
(-0.00473084 0.00169674 0)
(-0.00607074 0.00187377 0)
(-0.00752793 0.0020302 0)
(-0.00909194 0.00217232 0)
(-0.0107563 0.00230663 0)
(-0.0125186 0.00243938 0)
(-0.0143802 0.0025763 0)
(-0.016346 0.0027225 0)
(-0.018424 0.00288245 0)
(-0.0206251 0.00305998 0)
(-0.0229621 0.00325832 0)
(-0.0254503 0.00348025 0)
(-0.0281062 0.00372807 0)
(-0.0309479 0.00400371 0)
(-0.0339945 0.00430873 0)
(-0.0372656 0.00464432 0)
(-0.0407816 0.00501129 0)
(-0.0445627 0.00540997 0)
(-0.048629 0.00584016 0)
(-0.0529997 0.00630102 0)
(-0.0576925 0.00679086 0)
(-0.0627234 0.00730709 0)
(-0.0681051 0.00784594 0)
(-0.0738471 0.00840233 0)
(-0.0799538 0.00896964 0)
(-0.086424 0.00953954 0)
(-0.0932494 0.0101018 0)
(-0.100413 0.0106441 0)
(-0.10789 0.011152 0)
(-0.115641 0.0116088 0)
(-0.123618 0.0119956 0)
(-0.131759 0.0122912 0)
(-0.139985 0.0124729 0)
(-0.148206 0.0125161 0)
(-0.156315 0.0123954 0)
(-0.164189 0.0120851 0)
(-0.171693 0.0115601 0)
(-0.178677 0.010797 0)
(-0.184983 0.0097755 0)
(-0.190444 0.00847968 0)
(-0.194888 0.00689974 0)
(-0.198146 0.00503376 0)
(-0.200056 0.00288878 0)
(-0.200465 0.000489598 0)
(-0.199242 -0.00213448 0)
(-0.196281 -0.00493822 0)
(-0.191515 -0.00785723 0)
(-0.184916 -0.0108139 0)
(-0.176506 -0.0137166 0)
(-0.166364 -0.0164623 0)
(-0.15463 -0.0189403 0)
(-0.141506 -0.0210373 0)
(-0.127256 -0.0226446 0)
(-0.112205 -0.0236656 0)
(-0.096727 -0.0240244 0)
(-0.0812316 -0.023674 0)
(-0.0661495 -0.0226027 0)
(-0.05191 -0.0208391 0)
(-0.038917 -0.018454 0)
(-0.0275235 -0.0155591 0)
(-0.0180066 -0.0123051 0)
(-0.0105428 -0.00888049 0)
(-0.00518424 -0.00551677 0)
(-0.00183534 -0.00250768 0)
(-0.000220048 -0.000249164 0)
(9.65662e-05 0.000656453 0)
(2.24427e-05 -0.00021012 0)
(7.033e-05 -0.000257035 0)
(7.35501e-06 -6.4479e-05 0)
(-0.000229306 0.000263124 0)
(-0.000677163 0.000653452 0)
(-0.00134793 0.00105772 0)
(-0.00223799 0.00144583 0)
(-0.00333407 0.00180146 0)
(-0.00461802 0.00211818 0)
(-0.00607041 0.00239626 0)
(-0.00767318 0.00264026 0)
(-0.0094112 0.00285728 0)
(-0.0112733 0.00305561 0)
(-0.0132528 0.00324385 0)
(-0.0153473 0.00343032 0)
(-0.0175586 0.00362271 0)
(-0.0198926 0.00382789 0)
(-0.0223585 0.00405185 0)
(-0.0249685 0.00429977 0)
(-0.0277376 0.00457603 0)
(-0.0306826 0.00488434 0)
(-0.0338225 0.0052278 0)
(-0.0371774 0.00560895 0)
(-0.0407687 0.0060298 0)
(-0.0446184 0.00649183 0)
(-0.048749 0.00699595 0)
(-0.0531826 0.0075424 0)
(-0.0579411 0.0081306 0)
(-0.0630448 0.00875906 0)
(-0.0685124 0.00942513 0)
(-0.07436 0.0101248 0)
(-0.0805998 0.0108525 0)
(-0.0872396 0.0116008 0)
(-0.0942815 0.0123602 0)
(-0.10172 0.0131188 0)
(-0.109543 0.0138621 0)
(-0.117726 0.0145731 0)
(-0.126236 0.0152317 0)
(-0.135026 0.015815 0)
(-0.144035 0.0162973 0)
(-0.153188 0.0166502 0)
(-0.162395 0.0168433 0)
(-0.171549 0.0168443 0)
(-0.180528 0.0166199 0)
(-0.189193 0.0161371 0)
(-0.197393 0.0153641 0)
(-0.204964 0.0142718 0)
(-0.211732 0.0128354 0)
(-0.217517 0.0110366 0)
(-0.222138 0.00886531 0)
(-0.225414 0.00632214 0)
(-0.227178 0.0034201 0)
(-0.227273 0.000190952 0)
(-0.225566 -0.00332246 0)
(-0.221955 -0.00705814 0)
(-0.216374 -0.0109323 0)
(-0.208803 -0.0148434 0)
(-0.19927 -0.0186727 0)
(-0.187866 -0.0222873 0)
(-0.174741 -0.0255446 0)
(-0.160113 -0.028299 0)
(-0.144264 -0.0304107 0)
(-0.127539 -0.0317551 0)
(-0.110334 -0.0322335 0)
(-0.093089 -0.0317837 0)
(-0.0762658 -0.0303888 0)
(-0.0603282 -0.0280838 0)
(-0.0457158 -0.0249583 0)
(-0.0328169 -0.0211569 0)
(-0.0219403 -0.0168759 0)
(-0.0132882 -0.012362 0)
(-0.00693111 -0.00791719 0)
(-0.00278432 -0.00391682 0)
(-0.000587917 -0.000848629 0)
(6.35345e-05 0.000583064 0)
(1.86603e-05 -0.000226987 0)
(2.02658e-05 -0.000238502 0)
(-0.000126803 3.34325e-05 0)
(-0.000479714 0.000464988 0)
(-0.00107181 0.000970451 0)
(-0.00191221 0.00149147 0)
(-0.00299511 0.00199167 0)
(-0.00430537 0.00245113 0)
(-0.00582325 0.00286192 0)
(-0.007528 0.00322438 0)
(-0.00940042 0.00354421 0)
(-0.0114246 0.00383031 0)
(-0.013589 0.00409314 0)
(-0.0158866 0.00434361 0)
(-0.0183154 0.00459228 0)
(-0.0208777 0.00484896 0)
(-0.0235803 0.00512243 0)
(-0.0264335 0.0054204 0)
(-0.0294509 0.00574948 0)
(-0.0326491 0.00611533 0)
(-0.0360468 0.00652266 0)
(-0.0396647 0.00697541 0)
(-0.0435249 0.00747677 0)
(-0.0476508 0.00802919 0)
(-0.0520661 0.00863441 0)
(-0.056795 0.00929332 0)
(-0.0618612 0.0100059 0)
(-0.0672875 0.0107712 0)
(-0.0730951 0.0115866 0)
(-0.0793028 0.0124483 0)
(-0.0859258 0.0133506 0)
(-0.0929754 0.0142856 0)
(-0.100457 0.015243 0)
(-0.108369 0.0162099 0)
(-0.116703 0.0171701 0)
(-0.125438 0.0181046 0)
(-0.134546 0.0189904 0)
(-0.143983 0.0198014 0)
(-0.153693 0.0205078 0)
(-0.163605 0.0210764 0)
(-0.173632 0.0214711 0)
(-0.183671 0.0216531 0)
(-0.193601 0.0215822 0)
(-0.203287 0.0212172 0)
(-0.212578 0.0205179 0)
(-0.22131 0.0194457 0)
(-0.229306 0.0179666 0)
(-0.236384 0.0160522 0)
(-0.242354 0.0136825 0)
(-0.24703 0.0108484 0)
(-0.250227 0.00755405 0)
(-0.251776 0.00381934 0)
(-0.251521 -0.000315262 0)
(-0.24933 -0.00479265 0)
(-0.245105 -0.00953326 0)
(-0.238785 -0.0144329 0)
(-0.230353 -0.0193656 0)
(-0.219845 -0.0241849 0)
(-0.207356 -0.0287273 0)
(-0.193044 -0.0328177 0)
(-0.177133 -0.0362774 0)
(-0.159917 -0.038934 0)
(-0.14175 -0.0406333 0)
(-0.123048 -0.041252 0)
(-0.104267 -0.0407108 0)
(-0.0858964 -0.0389855 0)
(-0.0684271 -0.0361161 0)
(-0.0523308 -0.0322109 0)
(-0.0380283 -0.0274473 0)
(-0.02586 -0.0220691 0)
(-0.0160558 -0.0163841 0)
(-0.00870992 -0.010767 0)
(-0.00375668 -0.00567578 0)
(-0.000963642 -0.0016859 0)
(3.165e-05 0.000411422 0)
(1.42526e-05 -0.000229789 0)
(-3.79358e-05 -0.000184146 0)
(-0.00028116 0.000185023 0)
(-0.000764728 0.000735823 0)
(-0.00151613 0.00136979 0)
(-0.0025408 0.00201947 0)
(-0.00382999 0.00264251 0)
(-0.00536629 0.00321562 0)
(-0.00712818 0.00372957 0)
(-0.00909355 0.0041849 0)
(-0.0112422 0.00458862 0)
(-0.0135577 0.0049516 0)
(-0.0160279 0.00528662 0)
(-0.0186461 0.00560705 0)
(-0.0214105 0.00592587 0)
(-0.024324 0.00625516 0)
(-0.0273942 0.00660575 0)
(-0.0306325 0.00698716 0)
(-0.034054 0.00740757 0)
(-0.0376765 0.00787394 0)
(-0.0415203 0.0083921 0)
(-0.0456077 0.00896682 0)
(-0.0499625 0.00960195 0)
(-0.0546095 0.0103003 0)
(-0.0595741 0.0110639 0)
(-0.0648815 0.0118935 0)
(-0.0705565 0.0127886 0)
(-0.0766223 0.0137475 0)
(-0.0831003 0.0147666 0)
(-0.0900086 0.0158404 0)
(-0.0973615 0.016961 0)
(-0.105168 0.0181179 0)
(-0.11343 0.0192975 0)
(-0.122144 0.0204828 0)
(-0.131293 0.021653 0)
(-0.140853 0.0227834 0)
(-0.150787 0.0238451 0)
(-0.161043 0.024805 0)
(-0.171555 0.0256258 0)
(-0.182243 0.0262665 0)
(-0.193007 0.0266828 0)
(-0.203734 0.0268275 0)
(-0.214291 0.0266523 0)
(-0.224533 0.0261084 0)
(-0.234298 0.0251483 0)
(-0.243412 0.023728 0)
(-0.251692 0.0218086 0)
(-0.25895 0.0193593 0)
(-0.264992 0.0163596 0)
(-0.269629 0.0128021 0)
(-0.27268 0.00869562 0)
(-0.273974 0.00406775 0)
(-0.27336 -0.00103119 0)
(-0.27071 -0.00652962 0)
(-0.26593 -0.0123302 0)
(-0.258962 -0.0183082 0)
(-0.249794 -0.0243132 0)
(-0.238463 -0.0301713 0)
(-0.225066 -0.0356884 0)
(-0.209762 -0.0406568 0)
(-0.192775 -0.0448641 0)
(-0.174402 -0.0481045 0)
(-0.155002 -0.0501924 0)
(-0.134999 -0.0509779 0)
(-0.114866 -0.0503622 0)
(-0.0951083 -0.0483115 0)
(-0.0762433 -0.0448686 0)
(-0.0587715 -0.040159 0)
(-0.0431458 -0.0343928 0)
(-0.0297388 -0.0278617 0)
(-0.018812 -0.020936 0)
(-0.010488 -0.0140645 0)
(-0.00472774 -0.00778744 0)
(-0.00133476 -0.00276349 0)
(2.33871e-06 0.000142175 0)
(9.40016e-06 -0.000216653 0)
(-0.00010276 -8.94045e-05 0)
(-0.00045257 0.000396487 0)
(-0.00107961 0.0010826 0)
(-0.00200401 0.00185858 0)
(-0.00322649 0.0026485 0)
(-0.0047346 0.0034045 0)
(-0.00650817 0.00410031 0)
(-0.00852368 0.00472563 0)
(-0.0107576 0.00528147 0)
(-0.0131887 0.00577632 0)
(-0.0157999 0.0062232 0)
(-0.0185792 0.0066374 0)
(-0.0215196 0.00703489 0)
(-0.0246198 0.00743121 0)
(-0.0278835 0.00784082 0)
(-0.031319 0.00827671 0)
(-0.0349388 0.00875032 0)
(-0.038759 0.00927145 0)
(-0.0427987 0.00984845 0)
(-0.0470797 0.0104883 0)
(-0.0516256 0.0111965 0)
(-0.0564614 0.0119777 0)
(-0.0616131 0.012835 0)
(-0.0671072 0.0137704 0)
(-0.0729697 0.0147845 0)
(-0.0792257 0.0158763 0)
(-0.0858986 0.017043 0)
(-0.0930092 0.0182797 0)
(-0.100574 0.0195789 0)
(-0.108607 0.0209302 0)
(-0.117113 0.0223199 0)
(-0.126091 0.0237307 0)
(-0.135532 0.025141 0)
(-0.145415 0.0265248 0)
(-0.155709 0.0278513 0)
(-0.166368 0.029085 0)
(-0.177333 0.0301854 0)
(-0.18853 0.0311075 0)
(-0.199867 0.031802 0)
(-0.211235 0.0322163 0)
(-0.222512 0.0322949 0)
(-0.233556 0.0319816 0)
(-0.244213 0.0312202 0)
(-0.254313 0.029957 0)
(-0.263678 0.0281428 0)
(-0.27212 0.0257353 0)
(-0.27945 0.0227019 0)
(-0.285474 0.0190225 0)
(-0.290007 0.0146927 0)
(-0.292868 0.00972661 0)
(-0.293893 0.00415996 0)
(-0.292936 -0.00194648 0)
(-0.289874 -0.00850685 0)
(-0.284616 -0.0154065 0)
(-0.277108 -0.0225005 0)
(-0.267336 -0.029615 0)
(-0.255339 -0.0365491 0)
(-0.241207 -0.0430789 0)
(-0.225096 -0.0489645 0)
(-0.207227 -0.0539592 0)
(-0.187888 -0.0578229 0)
(-0.167441 -0.0603372 0)
(-0.146312 -0.0613231 0)
(-0.124981 -0.0606594 0)
(-0.103971 -0.0582997 0)
(-0.083821 -0.0542867 0)
(-0.0650596 -0.0487611 0)
(-0.0481725 -0.0419642 0)
(-0.0335671 -0.0342357 0)
(-0.0215397 -0.0260085 0)
(-0.0122473 -0.0178064 0)
(-0.00568374 -0.0102508 0)
(-0.00169477 -0.00407959 0)
(-2.38297e-05 -0.000221642 0)
(4.22712e-06 -0.000186064 0)
(-0.00017306 4.96171e-05 0)
(-0.00063854 0.000673278 0)
(-0.00142048 0.00151159 0)
(-0.0025303 0.00244333 0)
(-0.00396303 0.00338486 0)
(-0.0057018 0.00428344 0)
(-0.00772318 0.00511025 0)
(-0.0100013 0.00585434 0)
(-0.0125111 0.00651747 0)
(-0.0152303 0.00710986 0)
(-0.0181413 0.00764688 0)
(-0.0212319 0.00814649 0)
(-0.0244954 0.0086274 0)
(-0.0279307 0.00910784 0)
(-0.0315423 0.00960475 0)
(-0.0353393 0.0101334 0)
(-0.039335 0.0107072 0)
(-0.0435467 0.0113375 0)
(-0.0479946 0.0120343 0)
(-0.0527015 0.0128055 0)
(-0.057692 0.0136576 0)
(-0.0629923 0.0145957 0)
(-0.0686291 0.0156232 0)
(-0.0746296 0.0167422 0)
(-0.08102 0.0179527 0)
(-0.0878256 0.019253 0)
(-0.0950692 0.0206392 0)
(-0.10277 0.0221045 0)
(-0.110945 0.0236392 0)
(-0.119602 0.0252301 0)
(-0.128746 0.0268598 0)
(-0.138371 0.0285069 0)
(-0.148462 0.0301446 0)
(-0.158994 0.0317412 0)
(-0.169927 0.0332597 0)
(-0.18121 0.0346572 0)
(-0.192775 0.0358857 0)
(-0.204538 0.0368921 0)
(-0.216401 0.037619 0)
(-0.228246 0.0380052 0)
(-0.239942 0.0379876 0)
(-0.251341 0.0375022 0)
(-0.262283 0.0364862 0)
(-0.272595 0.0348805 0)
(-0.282096 0.0326315 0)
(-0.290598 0.0296945 0)
(-0.297914 0.0260362 0)
(-0.303854 0.021638 0)
(-0.308236 0.0164989 0)
(-0.310888 0.010639 0)
(-0.311652 0.00410215 0)
(-0.310388 -0.00304031 0)
(-0.306977 -0.0106889 0)
(-0.301333 -0.0187126 0)
(-0.293401 -0.0269475 0)
(-0.283165 -0.0351975 0)
(-0.270658 -0.0432359 0)
(-0.255963 -0.0508102 0)
(-0.239224 -0.0576485 0)
(-0.220651 -0.0634701 0)
(-0.200525 -0.0679995 0)
(-0.179198 -0.0709834 0)
(-0.157095 -0.0722111 0)
(-0.134702 -0.0715357 0)
(-0.112553 -0.0688945 0)
(-0.0912079 -0.0643267 0)
(-0.0712245 -0.0579848 0)
(-0.0531224 -0.0501396 0)
(-0.0373473 -0.0411778 0)
(-0.0242347 -0.0315949 0)
(-0.0139811 -0.0219893 0)
(-0.00661907 -0.0130629 0)
(-0.00204122 -0.00563001 0)
(-4.68638e-05 -0.00067595 0)
(-1.18698e-06 -0.000136767 0)
(-0.000247977 0.00023627 0)
(-0.000837091 0.00102021 0)
(-0.00178415 0.00202844 0)
(-0.00309064 0.00312996 0)
(-0.00474504 0.00423434 0)
(-0.00672529 0.00528466 0)
(-0.0090042 0.00625014 0)
(-0.0115532 0.00711963 0)
(-0.0143455 0.007896 0)
(-0.0173578 0.00859149 0)
(-0.0205718 0.00922404 0)
(-0.0239752 0.00981445 0)
(-0.0275615 0.0103843 0)
(-0.0313302 0.0109547 0)
(-0.0352862 0.0115451 0)
(-0.0394393 0.0121731 0)
(-0.0438038 0.0128541 0)
(-0.0483979 0.0136013 0)
(-0.0532425 0.0144258 0)
(-0.0583615 0.0153369 0)
(-0.0637803 0.0163419 0)
(-0.0695256 0.0174462 0)
(-0.0756249 0.0186536 0)
(-0.0821052 0.0199658 0)
(-0.0889931 0.0213825 0)
(-0.0963131 0.0229008 0)
(-0.104087 0.0245154 0)
(-0.112333 0.0262175 0)
(-0.121065 0.0279948 0)
(-0.130289 0.0298307 0)
(-0.140006 0.0317041 0)
(-0.150204 0.0335885 0)
(-0.160866 0.0354521 0)
(-0.171958 0.037257 0)
(-0.183435 0.0389591 0)
(-0.195239 0.0405085 0)
(-0.207293 0.0418492 0)
(-0.219509 0.0429201 0)
(-0.231777 0.0436555 0)
(-0.243977 0.0439865 0)
(-0.255969 0.0438421 0)
(-0.267602 0.0431516 0)
(-0.278712 0.0418466 0)
(-0.289126 0.0398629 0)
(-0.298665 0.0371442 0)
(-0.307143 0.033644 0)
(-0.314377 0.0293293 0)
(-0.320185 0.0241837 0)
(-0.324394 0.0182102 0)
(-0.326837 0.011435 0)
(-0.327366 0.00390997 0)
(-0.325845 -0.00428356 0)
(-0.322163 -0.0130336 0)
(-0.316233 -0.0221942 0)
(-0.307999 -0.031584 0)
(-0.297441 -0.0409862 0)
(-0.284579 -0.0501504 0)
(-0.269486 -0.0587965 0)
(-0.25229 -0.0666214 0)
(-0.233184 -0.0733105 0)
(-0.212435 -0.0785516 0)
(-0.190382 -0.0820548 0)
(-0.167444 -0.0835744 0)
(-0.144107 -0.0829338 0)
(-0.120916 -0.0800497 0)
(-0.0984512 -0.0749533 0)
(-0.0772993 -0.0678054 0)
(-0.0580167 -0.0589034 0)
(-0.0410908 -0.0486792 0)
(-0.0269016 -0.0376906 0)
(-0.0156906 -0.0266106 0)
(-0.00753391 -0.0162208 0)
(-0.00237451 -0.00740994 0)
(-6.7133e-05 -0.00121659 0)
(-6.79357e-06 -6.76965e-05 0)
(-0.000326867 0.000473478 0)
(-0.00104666 0.00144158 0)
(-0.00216798 0.00263823 0)
(-0.00368137 0.00392389 0)
(-0.00556782 0.00520226 0)
(-0.00779944 0.00641309 0)
(-0.0103447 0.0075243 0)
(-0.0131722 0.00852506 0)
(-0.0162529 0.00941977 0)
(-0.0195623 0.010223 0)
(-0.0230818 0.0109556 0)
(-0.0267986 0.0116414 0)
(-0.0307065 0.0123049 0)
(-0.0348054 0.0129702 0)
(-0.0391007 0.0136593 0)
(-0.043603 0.0143922 0)
(-0.0483275 0.0151865 0)
(-0.0532927 0.0160569 0)
(-0.0585206 0.0170161 0)
(-0.0640355 0.0180744 0)
(-0.0698635 0.0192397 0)
(-0.0760317 0.020518 0)
(-0.0825676 0.021913 0)
(-0.0894983 0.0234263 0)
(-0.0968496 0.0250566 0)
(-0.104645 0.0268 0)
(-0.112906 0.0286492 0)
(-0.121647 0.0305934 0)
(-0.130881 0.032617 0)
(-0.14061 0.0347002 0)
(-0.15083 0.0368172 0)
(-0.161527 0.0389367 0)
(-0.172676 0.041021 0)
(-0.184239 0.0430257 0)
(-0.196164 0.0448999 0)
(-0.208385 0.046586 0)
(-0.220822 0.0480203 0)
(-0.233377 0.0491336 0)
(-0.245936 0.0498525 0)
(-0.258374 0.0501004 0)
(-0.270547 0.0497996 0)
(-0.282303 0.0488733 0)
(-0.293478 0.0472481 0)
(-0.303899 0.0448563 0)
(-0.313392 0.0416393 0)
(-0.321779 0.0375503 0)
(-0.328881 0.0325572 0)
(-0.334529 0.0266463 0)
(-0.338555 0.019825 0)
(-0.340805 0.0121251 0)
(-0.341137 0.00360635 0)
(-0.339424 -0.00564109 0)
(-0.335555 -0.0154941 0)
(-0.329447 -0.0257939 0)
(-0.321036 -0.0363433 0)
(-0.310295 -0.0469073 0)
(-0.297231 -0.0572133 0)
(-0.2819 -0.0669553 0)
(-0.26441 -0.0758003 0)
(-0.244933 -0.0833993 0)
(-0.223715 -0.0894028 0)
(-0.201079 -0.0934816 0)
(-0.177433 -0.0953519 0)
(-0.15326 -0.0948028 0)
(-0.129114 -0.0917253 0)
(-0.105595 -0.0861374 0)
(-0.0833177 -0.0782038 0)
(-0.0628798 -0.0682446 0)
(-0.0448145 -0.056735 0)
(-0.0295515 -0.0442941 0)
(-0.0173824 -0.0316692 0)
(-0.00843232 -0.0197219 0)
(-0.0026969 -0.00941507 0)
(-8.51818e-05 -0.00183989 0)
(-1.25637e-05 2.20691e-05 0)
(-0.000409249 0.000763822 0)
(-0.00126599 0.0019412 0)
(-0.00256983 0.00334556 0)
(-0.00429934 0.00483 0)
(-0.00642728 0.00629345 0)
(-0.00891923 0.00767319 0)
(-0.0117389 0.00893659 0)
(-0.0148514 0.0100738 0)
(-0.0182255 0.0110911 0)
(-0.0218355 0.012006 0)
(-0.0256617 0.0128422 0)
(-0.0296914 0.0136268 0)
(-0.0339186 0.0143877 0)
(-0.0383433 0.0151518 0)
(-0.0429716 0.0159439 0)
(-0.0478147 0.0167865 0)
(-0.0528882 0.0176989 0)
(-0.0582115 0.0186978 0)
(-0.0638069 0.0197972 0)
(-0.0696993 0.0210084 0)
(-0.0759149 0.02234 0)
(-0.0824809 0.0237982 0)
(-0.0894247 0.0253869 0)
(-0.0967729 0.0271068 0)
(-0.10455 0.0289559 0)
(-0.11278 0.0309289 0)
(-0.12148 0.0330164 0)
(-0.130664 0.0352049 0)
(-0.14034 0.0374759 0)
(-0.150509 0.0398051 0)
(-0.161162 0.0421625 0)
(-0.172279 0.0445112 0)
(-0.183831 0.0468076 0)
(-0.195774 0.0490006 0)
(-0.20805 0.0510322 0)
(-0.220588 0.0528373 0)
(-0.233301 0.0543444 0)
(-0.246087 0.0554768 0)
(-0.258828 0.0561536 0)
(-0.271394 0.0562913 0)
(-0.283643 0.0558061 0)
(-0.295422 0.0546162 0)
(-0.306568 0.0526441 0)
(-0.316915 0.0498198 0)
(-0.326295 0.0460833 0)
(-0.334536 0.0413882 0)
(-0.341473 0.0357041 0)
(-0.346944 0.0290204 0)
(-0.350793 0.0213487 0)
(-0.352877 0.0127263 0)
(-0.353061 0.00321934 0)
(-0.351224 -0.00707399 0)
(-0.347259 -0.0180215 0)
(-0.341079 -0.0294534 0)
(-0.332616 -0.0411593 0)
(-0.321829 -0.0528882 0)
(-0.308711 -0.0643476 0)
(-0.293296 -0.0752075 0)
(-0.275668 -0.0851058 0)
(-0.255974 -0.0936595 0)
(-0.234435 -0.100481 0)
(-0.211353 -0.105198 0)
(-0.187119 -0.107487 0)
(-0.162213 -0.107096 0)
(-0.137192 -0.103886 0)
(-0.112676 -0.0978543 0)
(-0.089311 -0.0891647 0)
(-0.067737 -0.0781559 0)
(-0.048538 -0.0653432 0)
(-0.0321987 -0.0514059 0)
(-0.0190669 -0.0371659 0)
(-0.00932089 -0.0235652 0)
(-0.00301173 -0.0116424 0)
(-0.000101632 -0.00254306 0)
(-1.84818e-05 0.000133349 0)
(-0.000494761 0.00110961 0)
(-0.00149411 0.00252253 0)
(-0.00298791 0.00415457 0)
(-0.0049419 0.00585273 0)
(-0.00731985 0.00751228 0)
(-0.0100802 0.00906897 0)
(-0.0131813 0.0104904 0)
(-0.0165846 0.0117684 0)
(-0.0202563 0.0129118 0)
(-0.024169 0.0139412 0)
(-0.0283025 0.0148836 0)
(-0.0326436 0.0157698 0)
(-0.0371864 0.0166308 0)
(-0.0419312 0.0174967 0)
(-0.0468847 0.018395 0)
(-0.0520584 0.0193505 0)
(-0.0574684 0.0203848 0)
(-0.0631346 0.0215163 0)
(-0.0690797 0.02276 0)
(-0.0753286 0.0241283 0)
(-0.0819077 0.0256305 0)
(-0.0888439 0.0272729 0)
(-0.0961641 0.029059 0)
(-0.103894 0.0309891 0)
(-0.112058 0.03306 0)
(-0.120676 0.0352645 0)
(-0.129765 0.0375912 0)
(-0.139336 0.0400236 0)
(-0.149394 0.0425395 0)
(-0.159935 0.0451107 0)
(-0.170946 0.047702 0)
(-0.182404 0.0502711 0)
(-0.194273 0.052768 0)
(-0.206505 0.055135 0)
(-0.219037 0.0573068 0)
(-0.231792 0.0592111 0)
(-0.244679 0.060769 0)
(-0.257592 0.0618965 0)
(-0.270411 0.0625058 0)
(-0.283005 0.0625075 0)
(-0.295233 0.0618126 0)
(-0.306944 0.0603349 0)
(-0.317981 0.0579943 0)
(-0.328185 0.0547191 0)
(-0.337394 0.0504492 0)
(-0.345451 0.0451391 0)
(-0.352199 0.0387607 0)
(-0.357489 0.0313065 0)
(-0.361177 0.022792 0)
(-0.363129 0.0132593 0)
(-0.363219 0.00277998 0)
(-0.361331 -0.00854159 0)
(-0.357359 -0.020566 0)
(-0.351214 -0.033115 0)
(-0.342818 -0.0459677 0)
(-0.332118 -0.058859 0)
(-0.319086 -0.0714797 0)
(-0.303734 -0.0834772 0)
(-0.286118 -0.0944619 0)
(-0.266355 -0.104017 0)
(-0.244638 -0.111715 0)
(-0.221242 -0.117142 0)
(-0.196538 -0.119925 0)
(-0.170998 -0.11977 0)
(-0.145181 -0.116497 0)
(-0.119724 -0.110081 0)
(-0.095306 -0.100675 0)
(-0.0726121 -0.0886321 0)
(-0.0522815 -0.0745042 0)
(-0.0348595 -0.059029 0)
(-0.020756 -0.0431035 0)
(-0.0102075 -0.0277519 0)
(-0.00332287 -0.0140905 0)
(-0.000117106 -0.00332446 0)
(-2.454e-05 0.000266885 0)
(-0.000583131 0.00151292 0)
(-0.00173022 0.00318866 0)
(-0.00342072 0.00506901 0)
(-0.00560676 0.0069961 0)
(-0.00824239 0.00886266 0)
(-0.0112783 0.010604 0)
(-0.014667 0.0121888 0)
(-0.0183659 0.0136113 0)
(-0.0223382 0.0148833 0)
(-0.0265551 0.0160291 0)
(-0.0309952 0.0170795 0)
(-0.035645 0.0180688 0)
(-0.0404986 0.0190316 0)