/*--------------------------------*- C++ -*----------------------------------*\
  =========                 |
  \\      /  F ield         | OpenFOAM: The Open Source CFD Toolbox
   \\    /   O peration     | Website:  https://openfoam.org
    \\  /    A nd           | Version:  12
     \\/     M anipulation  |
\*---------------------------------------------------------------------------*/
FoamFile
{
    format      ascii;
    class       volScalarField;
    location    "8";
    object      epsilon;
}
// * * * * * * * * * * * * * * * * * * * * * * * * * * * * * * * * * * * * * //

dimensions      [0 2 -3 0 0 0 0];

internalField   nonuniform List<scalar> 
5625
(
9.99201e-13
2.498e-13
2.498e-13
2.498e-13
2.498e-13
2.498e-13
2.498e-13
2.498e-13
2.498e-13
2.498e-13
2.498e-13
2.498e-13
2.498e-13
2.498e-13
2.498e-13
2.498e-13
2.498e-13
2.498e-13
2.498e-13
2.498e-13
2.498e-13
2.498e-13
2.498e-13
2.498e-13
2.498e-13
2.498e-13
2.498e-13
2.498e-13
2.498e-13
2.498e-13
2.498e-13
2.498e-13
2.498e-13
2.498e-13
2.498e-13
2.498e-13
2.498e-13
2.498e-13
2.498e-13
2.498e-13
2.498e-13
2.498e-13
2.498e-13
2.498e-13
2.498e-13
2.498e-13
2.498e-13
2.498e-13
2.498e-13
2.498e-13
2.498e-13
2.498e-13
2.498e-13
2.498e-13
2.498e-13
2.498e-13
2.498e-13
2.498e-13
2.498e-13
2.498e-13
2.498e-13
2.498e-13
2.498e-13
2.498e-13
2.498e-13
2.498e-13
2.498e-13
2.498e-13
2.498e-13
2.498e-13
2.498e-13
2.498e-13
2.498e-13
2.498e-13
9.99201e-13
9.99201e-13
2.10206e-13
9.11795e-14
6.33652e-14
5.57499e-14
5.36101e-14
5.31171e-14
5.32223e-14
5.38603e-14
5.59933e-14
5.9959e-14
6.43559e-14
6.8718e-14
7.28889e-14
7.68195e-14
8.04998e-14
8.3934e-14
8.71314e-14
9.01026e-14
9.28586e-14
9.54096e-14
9.77654e-14
9.9935e-14
1.01926e-13
1.03748e-13
1.05405e-13
1.06905e-13
1.08253e-13
1.09455e-13
1.10515e-13
1.11438e-13
1.12226e-13
1.12883e-13
1.13412e-13
1.13815e-13
1.14094e-13
1.1425e-13
1.14284e-13
1.14197e-13
1.13987e-13
1.13654e-13
1.13198e-13
1.12615e-13
1.11905e-13
1.11065e-13
1.10091e-13
1.0898e-13
1.07728e-13
1.06331e-13
1.04783e-13
1.03079e-13
1.01214e-13
9.91795e-14
9.69695e-14
9.45757e-14
9.19894e-14
8.92015e-14
8.62021e-14
8.29807e-14
7.95276e-14
7.58346e-14
7.18995e-14
6.77364e-14
6.34034e-14
5.90802e-14
5.52967e-14
5.36451e-14
5.31359e-14
5.30691e-14
5.35793e-14
5.57347e-14
6.33591e-14
9.11778e-14
2.10205e-13
9.99201e-13
9.99201e-13
2.07717e-13
7.8918e-14
4.30315e-14
3.09291e-14
2.75931e-14
2.75872e-14
2.87947e-14
3.0592e-14
3.28723e-14
3.5574e-14
3.84982e-14
4.14946e-14
4.44701e-14
4.73715e-14
5.01689e-14
5.28458e-14
5.53935e-14
5.78074e-14
6.00855e-14
6.22274e-14
6.42336e-14
6.6105e-14
6.78432e-14
6.94495e-14
7.09258e-14
7.22739e-14
7.34954e-14
7.4592e-14
7.55655e-14
7.64173e-14
7.71489e-14
7.77616e-14
7.82566e-14
7.86348e-14
7.88971e-14
7.9044e-14
7.9076e-14
7.89933e-14
7.87958e-14
7.84832e-14
7.80551e-14
7.7511e-14
7.685e-14
7.60711e-14
7.51733e-14
7.41552e-14
7.30156e-14
7.1753e-14
7.03659e-14
6.88529e-14
6.72124e-14
6.5443e-14
6.35435e-14
6.15126e-14
5.93498e-14
5.70549e-14
5.46288e-14
5.20739e-14
4.93955e-14
4.66033e-14
4.3715e-14
4.07628e-14
3.78034e-14
3.49352e-14
3.23147e-14
3.01382e-14
2.8412e-14
2.72576e-14
2.7331e-14
3.08181e-14
4.2991e-14
7.89076e-14
2.07716e-13
9.99201e-13
9.99201e-13
2.07544e-13
7.79807e-14
4.14487e-14
2.98947e-14
2.57079e-14
2.44732e-14
2.46651e-14
2.56446e-14
2.71177e-14
2.8921e-14
3.09345e-14
3.30673e-14
3.52531e-14
3.74445e-14
3.96085e-14
4.17221e-14
4.37691e-14
4.57382e-14
4.76212e-14
4.94124e-14
5.11077e-14
5.27039e-14
5.4199e-14
5.55913e-14
5.68799e-14
5.8064e-14
5.91431e-14
6.0117e-14
6.09856e-14
6.17488e-14
6.24066e-14
6.29593e-14
6.34068e-14
6.37493e-14
6.39869e-14
6.41197e-14
6.41479e-14
6.40716e-14
6.38908e-14
6.36057e-14
6.32163e-14
6.27228e-14
6.21252e-14
6.14237e-14
6.06183e-14
5.97092e-14
5.86967e-14
5.7581e-14
5.63627e-14
5.50424e-14
5.36211e-14
5.21e-14
5.0481e-14
4.87664e-14
4.69595e-14
4.50647e-14
4.30881e-14
4.10381e-14
3.89265e-14
3.67698e-14
3.45917e-14
3.24258e-14
3.03199e-14
2.83409e-14
2.65786e-14
2.51496e-14
2.42101e-14
2.40554e-14
2.53323e-14
2.95897e-14
4.13256e-14
7.79482e-14
2.0754e-13
9.99201e-13
9.99201e-13
2.07647e-13
7.88871e-14
4.56691e-14
3.3921e-14
2.87596e-14
2.64703e-14
2.56989e-14
2.58273e-14
2.65306e-14
2.76173e-14
2.89625e-14
3.04784e-14
3.21011e-14
3.37831e-14
3.5489e-14
3.7192e-14
3.88718e-14
4.05129e-14
4.21034e-14
4.36339e-14
4.50972e-14
4.64874e-14
4.78e-14
4.90311e-14
5.01778e-14
5.12376e-14
5.22085e-14
5.30887e-14
5.3877e-14
5.4572e-14
5.51729e-14
5.56789e-14
5.60891e-14
5.64033e-14
5.66209e-14
5.67417e-14
5.67656e-14
5.66928e-14
5.65233e-14
5.62575e-14
5.58959e-14
5.54392e-14
5.48881e-14
5.42434e-14
5.35062e-14
5.26777e-14
5.17593e-14
5.07525e-14
4.96591e-14
4.84816e-14
4.72224e-14
4.58848e-14
4.44727e-14
4.2991e-14
4.14455e-14
3.98437e-14
3.81952e-14
3.6512e-14
3.48097e-14
3.31089e-14
3.14362e-14
2.98271e-14
2.83287e-14
2.70041e-14
2.594e-14
2.52594e-14
2.51513e-14
2.59393e-14
2.82412e-14
3.3415e-14
4.5208e-14
7.87772e-14
2.07634e-13
9.99201e-13
9.99201e-13
2.07858e-13
8.04625e-14
5.08589e-14
3.90767e-14
3.32566e-14
3.02012e-14
2.86853e-14
2.81253e-14
2.81996e-14
2.87116e-14
2.95317e-14
3.05688e-14
3.17566e-14
3.30453e-14
3.43968e-14
3.57815e-14
3.7176e-14
3.8562e-14
3.99247e-14
4.12522e-14
4.2535e-14
4.3765e-14
4.49357e-14
4.60417e-14
4.70783e-14
4.80417e-14
4.89286e-14
4.97361e-14
5.04618e-14
5.11036e-14
5.16597e-14
5.21286e-14
5.2509e-14
5.27999e-14
5.30006e-14
5.31105e-14
5.31294e-14
5.30574e-14
5.28947e-14
5.26417e-14
5.22993e-14
5.18686e-14
5.13508e-14
5.07474e-14
5.00601e-14
4.9291e-14
4.84424e-14
4.75169e-14
4.65175e-14
4.54477e-14
4.43115e-14
4.31138e-14
4.186e-14
4.0557e-14
3.92127e-14
3.78369e-14
3.64416e-14
3.50416e-14
3.36551e-14
3.23054e-14
3.10217e-14
2.98419e-14
2.88151e-14
2.80067e-14
2.75064e-14
2.74427e-14
2.80104e-14
2.95297e-14
3.2585e-14
3.84096e-14
5.02478e-14
8.02533e-14
2.07828e-13
9.99201e-13
9.99201e-13
2.08834e-13
8.90783e-14
5.84615e-14
4.54655e-14
3.86765e-14
3.48304e-14
3.26431e-14
3.14965e-14
3.10493e-14
3.10924e-14
3.14884e-14
3.21411e-14
3.29807e-14
3.39543e-14
3.50213e-14
3.61498e-14
3.73142e-14
3.84941e-14
3.96725e-14
4.08357e-14
4.19722e-14
4.30724e-14
4.41281e-14
4.51325e-14
4.60797e-14
4.69647e-14
4.7783e-14
4.85309e-14
4.92051e-14
4.98027e-14
5.03213e-14
5.07588e-14
5.11134e-14
5.13838e-14
5.1569e-14
5.16682e-14
5.16811e-14
5.16077e-14
5.14482e-14
5.12034e-14
5.08744e-14
5.04624e-14
4.99691e-14
4.93965e-14
4.87471e-14
4.80234e-14
4.72286e-14
4.63661e-14
4.544e-14
4.44548e-14
4.34157e-14
4.23288e-14
4.12011e-14
4.00407e-14
3.88575e-14
3.76628e-14
3.64705e-14
3.52974e-14
3.41638e-14
3.30951e-14
3.21229e-14
3.12871e-14
3.06398e-14
3.02496e-14
3.02111e-14
3.06597e-14
3.18008e-14
3.39709e-14
3.7779e-14
4.44942e-14
5.73599e-14
8.78182e-14
2.08687e-13
9.99201e-13
9.99201e-13
2.09868e-13
9.78804e-14
6.62261e-14
5.20789e-14
4.43959e-14
3.98469e-14
3.70825e-14
3.5444e-14
3.45661e-14
3.42255e-14
3.42761e-14
3.46164e-14
3.51727e-14
3.58896e-14
3.67242e-14
3.76429e-14
3.86182e-14
3.96281e-14
4.06541e-14
4.1681e-14
4.26958e-14
4.36877e-14
4.46473e-14
4.55666e-14
4.64385e-14
4.72572e-14
4.80172e-14
4.87141e-14
4.93439e-14
4.9903e-14
5.03885e-14
5.07979e-14
5.11291e-14
5.13804e-14
5.15505e-14
5.16386e-14
5.16443e-14
5.15675e-14
5.14087e-14
5.11686e-14
5.08484e-14
5.04498e-14
4.99748e-14
4.94258e-14
4.88056e-14
4.81175e-14
4.73652e-14
4.65529e-14
4.56856e-14
4.47685e-14
4.3808e-14
4.28111e-14
4.17859e-14
4.0742e-14
3.96904e-14
3.86439e-14
3.76177e-14
3.66303e-14
3.57034e-14
3.48641e-14
3.41455e-14
3.359e-14
3.32519e-14
3.32038e-14
3.35453e-14
3.44206e-14
3.60492e-14
3.87908e-14
4.32954e-14
5.08989e-14
6.49195e-14
9.6464e-14
2.097e-13
9.99201e-13
9.99201e-13
2.10778e-13
1.05592e-13
7.34228e-14
5.84526e-14
5.00833e-14
4.49771e-14
4.17476e-14
3.97091e-14
3.84791e-14
3.78241e-14
3.75912e-14
3.76746e-14
3.79976e-14
3.85027e-14
3.91451e-14
3.98897e-14
4.07077e-14
4.15758e-14
4.24742e-14
4.33866e-14
4.4299e-14
4.51992e-14
4.60771e-14
4.69236e-14
4.77309e-14
4.84922e-14
4.92015e-14
4.98536e-14
5.0444e-14
5.09685e-14
5.1424e-14
5.18074e-14
5.21164e-14
5.23491e-14
5.25041e-14
5.25804e-14
5.25776e-14
5.24956e-14
5.23349e-14
5.20964e-14
5.17814e-14
5.13919e-14
5.09301e-14
5.03987e-14
4.9801e-14
4.91408e-14
4.84224e-14
4.76505e-14
4.68307e-14
4.59692e-14
4.50729e-14
4.415e-14
4.32095e-14
4.22618e-14
4.13189e-14
4.03949e-14
3.9506e-14
3.86718e-14
3.79154e-14
3.7265e-14
3.67554e-14
3.64305e-14
3.63468e-14
3.65798e-14
3.72339e-14
3.846e-14
4.04891e-14
4.36995e-14
4.87703e-14
5.7079e-14
7.19592e-14
1.04093e-13
2.10602e-13
9.99201e-13
9.99201e-13
2.11562e-13
1.12342e-13
8.00799e-14
6.45809e-14
5.57091e-14
5.01657e-14
4.65557e-14
4.41826e-14
4.26552e-14
4.17337e-14
4.12606e-14
4.11267e-14
4.12529e-14
4.15794e-14
4.20601e-14
4.26582e-14
4.33438e-14
4.40923e-14
4.4883e-14
4.56984e-14
4.65236e-14
4.73457e-14
4.81536e-14
4.89374e-14
4.96887e-14
5.03999e-14
5.10645e-14
5.16767e-14
5.22316e-14
5.27247e-14
5.31523e-14
5.35113e-14
5.3799e-14
5.40134e-14
5.41529e-14
5.42166e-14
5.42039e-14
5.41149e-14
5.39499e-14
5.37102e-14
5.33971e-14
5.30127e-14
5.25596e-14
5.20408e-14
5.14599e-14
5.08211e-14
5.0129e-14
4.93891e-14
4.86074e-14
4.77908e-14
4.69469e-14
4.60846e-14
4.52137e-14
4.43453e-14
4.34926e-14
4.26702e-14
4.18957e-14
4.11892e-14
4.05751e-14
4.00828e-14
3.97482e-14
3.96167e-14
3.97467e-14
4.02162e-14
4.11329e-14
4.26526e-14
4.50135e-14
4.86047e-14
5.41207e-14
6.2955e-14
7.8415e-14
1.10741e-13
2.11392e-13
9.99201e-13
9.99201e-13
2.12303e-13
1.18822e-13
8.67581e-14
7.08392e-14
6.14954e-14
5.55236e-14
5.15414e-14
4.88462e-14
4.70387e-14
4.58714e-14
4.51811e-14
4.4854e-14
4.48073e-14
4.49787e-14
4.53199e-14
4.57923e-14
4.63648e-14
4.70113e-14
4.77101e-14
4.84429e-14
4.91937e-14
4.99489e-14
5.06965e-14
5.14261e-14
5.21286e-14
5.27959e-14
5.3421e-14
5.39976e-14
5.45203e-14
5.49845e-14
5.53862e-14
5.57219e-14
5.5989e-14
5.61851e-14
5.63087e-14
5.63588e-14
5.63348e-14
5.62368e-14
5.60652e-14
5.58214e-14
5.55069e-14
5.51239e-14
5.46751e-14
5.4164e-14
5.35944e-14
5.29709e-14
5.22984e-14
5.15829e-14
5.0831e-14
5.005e-14
4.92482e-14
4.84349e-14
4.76209e-14
4.68179e-14
4.60398e-14
4.53022e-14
4.46234e-14
4.40246e-14
4.35312e-14
4.31738e-14
4.29898e-14
4.30264e-14
4.33441e-14
4.40237e-14
4.51767e-14
4.69639e-14
4.96298e-14
5.35717e-14
5.94915e-14
6.87791e-14
8.46762e-14
1.16946e-13
2.12349e-13
9.99201e-13
9.99201e-13
2.29562e-13
1.3034e-13
9.55229e-14
7.81015e-14
6.78238e-14
6.1212e-14
5.67582e-14
5.36967e-14
5.15931e-14
5.01795e-14
4.92799e-14
4.87721e-14
4.85675e-14
4.85998e-14
4.88177e-14
4.91803e-14
4.96546e-14
5.02132e-14
5.08332e-14
5.14951e-14
5.21821e-14
5.28798e-14
5.35755e-14
5.42582e-14
5.49182e-14
5.5547e-14
5.6137e-14
5.66816e-14
5.71752e-14
5.76128e-14
5.79901e-14
5.83036e-14
5.85504e-14
5.87281e-14
5.88352e-14
5.88705e-14
5.88337e-14
5.87246e-14
5.85441e-14
5.82932e-14
5.79739e-14
5.75884e-14
5.71399e-14
5.66317e-14
5.60682e-14
5.54541e-14
5.47949e-14
5.40969e-14
5.33669e-14
5.26131e-14
5.1844e-14
5.10698e-14
5.03015e-14
4.95519e-14
4.88354e-14
4.81685e-14
4.75702e-14
4.70632e-14
4.66738e-14
4.64343e-14
4.63839e-14
4.65721e-14
4.7063e-14
4.79418e-14
4.93266e-14
5.13877e-14
5.43848e-14
5.87386e-14
6.51902e-14
7.51989e-14
9.21329e-14
1.25969e-13
2.22989e-13
9.99201e-13
9.99201e-13
2.47093e-13
1.42341e-13
1.04716e-13
8.56873e-14
7.43862e-14
6.70722e-14
6.21086e-14
5.86602e-14
5.62525e-14
5.45931e-14
5.349e-14
5.28106e-14
5.24594e-14
5.2365e-14
5.24721e-14
5.27375e-14
5.31258e-14
5.3608e-14
5.41598e-14
5.47607e-14
5.53929e-14
5.60412e-14
5.66922e-14
5.73343e-14
5.79573e-14
5.85521e-14
5.9111e-14
5.96269e-14
6.00938e-14
6.05066e-14
6.08608e-14
6.11528e-14
6.13795e-14
6.15386e-14
6.16283e-14
6.16477e-14
6.15962e-14
6.1474e-14
6.12818e-14
6.10209e-14
6.06934e-14
6.03017e-14
5.98491e-14
5.93393e-14
5.87767e-14
5.81664e-14
5.75144e-14
5.68272e-14
5.61121e-14
5.53776e-14
5.46329e-14
5.38885e-14
5.31562e-14
5.24494e-14
5.17831e-14
5.11748e-14
5.06447e-14
5.02161e-14
4.99173e-14
4.97821e-14
4.98522e-14
5.01801e-14
5.08342e-14
5.19059e-14
5.35219e-14
5.58665e-14
5.92204e-14
6.40399e-14
7.11287e-14
8.20655e-14
1.00472e-13
1.36944e-13
2.3936e-13
9.99201e-13
9.99201e-13
2.63461e-13
1.53916e-13
1.13741e-13
9.32121e-14
8.09341e-14
7.29386e-14
6.74759e-14
6.36483e-14
6.09439e-14
5.90468e-14
5.77494e-14
5.69087e-14
5.64215e-14
5.62111e-14
5.62186e-14
5.63972e-14
5.67098e-14
5.71253e-14
5.76181e-14
5.81663e-14
5.87514e-14
5.93572e-14
5.99696e-14
6.05766e-14
6.11672e-14
6.17321e-14
6.22631e-14
6.27528e-14
6.31952e-14
6.35847e-14
6.39168e-14
6.41876e-14
6.43941e-14
6.4534e-14
6.46053e-14
6.46072e-14
6.45393e-14
6.44016e-14
6.4195e-14
6.39211e-14
6.35819e-14
6.31801e-14
6.27192e-14
6.2203e-14
6.16363e-14
6.10246e-14
6.03739e-14
5.96911e-14
5.89842e-14
5.82617e-14
5.75336e-14
5.68107e-14
5.61056e-14
5.5432e-14
5.48061e-14
5.42459e-14
5.37727e-14
5.34113e-14
5.31912e-14
5.31485e-14
5.33271e-14
5.37834e-14
5.45901e-14
5.58452e-14
5.76851e-14
6.03077e-14
6.40157e-14
6.92999e-14
7.7023e-14
8.88712e-14
1.08686e-13
1.47573e-13
2.54618e-13
9.99201e-13
9.99201e-13
2.78713e-13
1.64965e-13
1.22462e-13
1.00543e-13
8.73518e-14
7.87148e-14
7.27798e-14
6.85926e-14
6.56071e-14
6.34855e-14
6.2006e-14
6.10152e-14
6.04029e-14
6.0087e-14
6.00047e-14
6.01063e-14
6.0352e-14
6.07093e-14
6.11508e-14
6.16536e-14
6.21981e-14
6.27672e-14
6.33463e-14
6.39226e-14
6.44847e-14
6.5023e-14
6.55288e-14
6.59946e-14
6.64138e-14
6.67811e-14
6.70915e-14
6.73412e-14
6.75271e-14
6.76468e-14
6.76984e-14
6.76812e-14
6.75946e-14
6.74389e-14
6.72152e-14
6.69249e-14
6.65705e-14
6.61547e-14
6.56812e-14
6.51541e-14
6.45784e-14
6.39599e-14
6.33048e-14
6.26206e-14
6.19153e-14
6.11982e-14
6.04794e-14
5.97704e-14
5.90842e-14
5.84353e-14
5.78406e-14
5.7319e-14
5.68927e-14
5.6588e-14
5.64359e-14
5.64742e-14
5.67499e-14
5.73224e-14
5.82693e-14
5.96947e-14
6.1744e-14
6.46284e-14
6.86701e-14
7.43913e-14
8.27067e-14
9.53973e-14
1.16496e-13
1.57545e-13
2.68585e-13
9.99201e-13
9.99201e-13
2.92937e-13
1.75483e-13
1.30844e-13
1.07633e-13
9.35882e-14
8.43499e-14
7.79718e-14
7.34471e-14
7.01983e-14
6.78674e-14
6.62187e-14
6.50895e-14
6.43628e-14
6.39513e-14
6.37884e-14
6.38215e-14
6.40084e-14
6.43148e-14
6.47119e-14
6.51754e-14
6.56847e-14
6.62221e-14
6.67722e-14
6.73215e-14
6.78584e-14
6.83726e-14
6.88552e-14
6.92984e-14
6.96956e-14
7.0041e-14
7.03298e-14
7.0558e-14
7.07223e-14
7.08205e-14
7.08508e-14
7.08123e-14
7.07047e-14
7.05283e-14
7.02843e-14
6.99744e-14
6.9601e-14
6.91672e-14
6.86769e-14
6.81343e-14
6.75448e-14
6.69143e-14
6.62495e-14
6.55581e-14
6.48484e-14
6.41301e-14
6.34139e-14
6.27116e-14
6.20369e-14
6.14048e-14
6.08329e-14
6.03411e-14
5.99525e-14
5.96947e-14
5.96002e-14
5.97087e-14
6.00697e-14
6.0746e-14
6.18193e-14
6.33997e-14
6.56409e-14
6.87659e-14
7.3115e-14
7.92382e-14
8.80973e-14
1.01558e-13
1.23823e-13
1.66814e-13
2.81318e-13
9.99201e-13
9.99201e-13
3.062e-13
1.85477e-13
1.38875e-13
1.14462e-13
9.96177e-14
8.98156e-14
8.30221e-14
7.81816e-14
7.46871e-14
7.21616e-14
7.03565e-14
6.91003e-14
6.82692e-14
6.77713e-14
6.75362e-14
6.75085e-14
6.76436e-14
6.79055e-14
6.82639e-14
6.86933e-14
6.91722e-14
6.96819e-14
7.02064e-14
7.07317e-14
7.12456e-14
7.17375e-14
7.21983e-14
7.26198e-14
7.29952e-14
7.33187e-14
7.35852e-14
7.37909e-14
7.39324e-14
7.40074e-14
7.40142e-14
7.39521e-14
7.38206e-14
7.36205e-14
7.33529e-14
7.30197e-14
7.26236e-14
7.21678e-14
7.16562e-14
7.10937e-14
7.04855e-14
6.98381e-14
6.91582e-14
6.8454e-14
6.77342e-14
6.70087e-14
6.62887e-14
6.55865e-14
6.49162e-14
6.42936e-14
6.37368e-14
6.32666e-14
6.29071e-14
6.26869e-14
6.26402e-14
6.28083e-14
6.32433e-14
6.40107e-14
6.51964e-14
6.69158e-14
6.93302e-14
7.26736e-14
7.73022e-14
8.37917e-14
9.31462e-14
1.07308e-13
1.30628e-13
1.75358e-13
2.92861e-13
9.99201e-13
9.99201e-13
3.18563e-13
1.94954e-13
1.46551e-13
1.21017e-13
1.05425e-13
9.50946e-14
8.79117e-14
8.27758e-14
7.90521e-14
7.63458e-14
7.43964e-14
7.30236e-14
7.20975e-14
7.15216e-14
7.12218e-14
7.114e-14
7.12295e-14
7.14524e-14
7.17769e-14
7.21766e-14
7.26287e-14
7.31139e-14
7.36154e-14
7.41187e-14
7.46112e-14
7.50819e-14
7.55214e-14
7.59213e-14
7.62746e-14
7.65753e-14
7.68185e-14
7.70001e-14
7.71168e-14
7.71664e-14
7.71472e-14
7.70585e-14
7.69002e-14
7.6673e-14
7.63782e-14
7.60179e-14
7.5595e-14
7.51129e-14
7.45757e-14
7.39886e-14
7.3357e-14
7.26876e-14
7.19876e-14
7.12653e-14
7.05298e-14
6.97914e-14
6.90616e-14
6.83532e-14
6.76808e-14
6.70608e-14
6.65119e-14
6.60556e-14
6.57171e-14
6.55259e-14
6.55176e-14
6.57353e-14
6.62331e-14
6.70794e-14
6.83635e-14
7.0206e-14
7.27749e-14
7.63141e-14
8.11946e-14
8.8015e-14
9.78173e-14
1.12611e-13
1.36882e-13
1.83158e-13
3.03242e-13
9.99201e-13
9.99201e-13
3.30082e-13
2.03924e-13
1.53868e-13
1.27294e-13
1.11002e-13
1.00176e-13
9.26282e-14
8.72159e-14
8.32785e-14
8.04044e-14
7.83216e-14
7.68417e-14
7.58291e-14
7.51826e-14
7.48247e-14
7.46948e-14
7.47439e-14
7.49324e-14
7.52271e-14
7.56003e-14
7.60285e-14
7.64915e-14
7.69718e-14
7.74544e-14
7.79263e-14
7.83761e-14
7.8794e-14
7.91717e-14
7.95018e-14
7.97784e-14
7.99964e-14
8.01517e-14
8.02412e-14
8.02625e-14
8.02142e-14
8.00957e-14
7.99069e-14
7.96488e-14
7.93229e-14
7.89314e-14
7.84774e-14
7.79645e-14
7.73973e-14
7.67808e-14
7.6121e-14
7.54248e-14
7.46996e-14
7.39539e-14
7.31974e-14
7.24406e-14
7.16953e-14
7.09749e-14
7.02943e-14
6.96704e-14
6.91226e-14
6.86732e-14
6.83479e-14
6.81776e-14
6.81989e-14
6.84565e-14
6.90064e-14
6.99195e-14
7.12885e-14
7.32384e-14
7.59434e-14
7.96562e-14
8.4761e-14
9.18768e-14
1.0208e-13
1.17439e-13
1.42554e-13
1.90192e-13
3.12482e-13
9.99201e-13
9.99201e-13
3.40812e-13
2.12403e-13
1.6083e-13
1.33289e-13
1.16344e-13
1.05054e-13
9.71641e-14
9.14932e-14
8.73565e-14
8.43264e-14
8.21203e-14
8.05421e-14
7.94505e-14
7.874e-14
7.83299e-14
7.81568e-14
7.817e-14
7.83277e-14
7.85958e-14
7.89452e-14
7.93515e-14
7.97937e-14
8.02538e-14
8.07161e-14
8.11673e-14
8.15957e-14
8.19911e-14
8.23451e-14
8.26503e-14
8.29006e-14
8.30908e-14
8.3217e-14
8.3276e-14
8.32657e-14
8.31847e-14
8.30324e-14
8.28092e-14
8.2516e-14
8.21545e-14
8.17273e-14
8.12377e-14
8.06894e-14
8.00873e-14
7.94367e-14
7.87438e-14
7.80157e-14
7.72603e-14
7.64863e-14
7.57035e-14
7.49229e-14
7.41568e-14
7.34187e-14
7.27241e-14
7.20904e-14
7.15373e-14
7.1088e-14
7.07689e-14
7.06117e-14
7.06542e-14
7.09424e-14
7.15342e-14
7.25025e-14
7.39431e-14
7.59849e-14
7.88076e-14
8.26718e-14
8.79733e-14
9.53493e-14
1.05905e-13
1.21762e-13
1.47619e-13
1.9644e-13
3.20597e-13
9.99201e-13
9.99201e-13
3.50806e-13
2.20407e-13
1.67444e-13
1.39005e-13
1.21451e-13
1.09726e-13
1.01516e-13
9.5603e-14
9.12802e-14
8.81053e-14
8.57851e-14
8.41165e-14
8.29525e-14
8.21838e-14
8.17265e-14
8.15147e-14
8.14954e-14
8.16255e-14
8.18692e-14
8.21966e-14
8.25823e-14
8.30044e-14
8.34443e-14
8.3886e-14
8.43157e-14
8.47212e-14
8.50925e-14
8.54206e-14
8.56983e-14
8.59192e-14
8.60784e-14
8.61719e-14
8.61967e-14
8.61506e-14
8.60326e-14
8.58421e-14
8.55798e-14
8.52467e-14
8.48449e-14
8.43771e-14
8.38468e-14
8.32582e-14
8.26162e-14
8.19264e-14
8.11955e-14
8.04305e-14
7.96398e-14
7.88323e-14
7.80183e-14
7.72088e-14
7.64165e-14
7.56555e-14
7.49413e-14
7.4292e-14
7.37277e-14
7.32721e-14
7.29524e-14
7.2801e-14
7.28566e-14
7.31667e-14
7.37902e-14
7.48025e-14
7.63016e-14
7.842e-14
8.13423e-14
8.53357e-14
9.08061e-14
9.84064e-14
1.09267e-13
1.25555e-13
1.5205e-13
2.01882e-13
3.27594e-13
9.99201e-13
9.99201e-13
3.60118e-13
2.27958e-13
1.73721e-13
1.44449e-13
1.26324e-13
1.14193e-13
1.05683e-13
9.9544e-14
9.50477e-14
9.17379e-14
8.93121e-14
8.75601e-14
8.63299e-14
8.55082e-14
8.5008e-14
8.47609e-14
8.47121e-14
8.48168e-14
8.50379e-14
8.53443e-14
8.57097e-14
8.61116e-14
8.65308e-14
8.69507e-14
8.73571e-14
8.77378e-14
8.80822e-14
8.83815e-14
8.86282e-14
8.88162e-14
8.89403e-14
8.89967e-14
8.89826e-14
8.8896e-14
8.87359e-14
8.85021e-14
8.81954e-14
8.78172e-14
8.73697e-14
8.68559e-14
8.62797e-14
8.56453e-14
8.4958e-14
8.42239e-14
8.34496e-14
8.26426e-14
8.18115e-14
8.09655e-14
8.0115e-14
7.92716e-14
7.84482e-14
7.76589e-14
7.69199e-14
7.62495e-14
7.56684e-14
7.52004e-14
7.48737e-14
7.4721e-14
7.47821e-14
7.51053e-14
7.5751e-14
7.67961e-14
7.83409e-14
8.05207e-14
8.35242e-14
8.76244e-14
9.32358e-14
1.01024e-13
1.12142e-13
1.28791e-13
1.55822e-13
2.06498e-13
3.33479e-13
9.99201e-13
9.99201e-13
3.68802e-13
2.35081e-13
1.79674e-13
1.49628e-13
1.30971e-13
1.18459e-13
1.09669e-13
1.03318e-13
9.86597e-14
9.52245e-14
9.27008e-14
9.08719e-14
8.95808e-14
8.87106e-14
8.81711e-14
8.78918e-14
8.78158e-14
8.78966e-14
8.8096e-14
8.83818e-14
8.87267e-14
8.91077e-14
8.95047e-14
8.99009e-14
9.02817e-14
9.06345e-14
9.09487e-14
9.12153e-14
9.14269e-14
9.15772e-14
9.16613e-14
9.16755e-14
9.16171e-14
9.14844e-14
9.12765e-14
9.09936e-14
9.06366e-14
9.02072e-14
8.97081e-14
8.91424e-14
8.85143e-14
8.78283e-14
8.70902e-14
8.6306e-14
8.54828e-14
8.46285e-14
8.37517e-14
8.2862e-14
8.19701e-14
8.10877e-14
8.0228e-14
7.94055e-14
7.86366e-14
7.79398e-14
7.73363e-14
7.68503e-14
7.65102e-14
7.63496e-14
7.64087e-14
7.67367e-14
7.73951e-14
7.8462e-14
8.00396e-14
8.22657e-14
8.5332e-14
8.95164e-14
9.52403e-14
1.0318e-13
1.14505e-13
1.31448e-13
1.58913e-13
2.10267e-13
3.38252e-13
9.99201e-13
9.99201e-13
3.76912e-13
2.41804e-13
1.85321e-13
1.54555e-13
1.35401e-13
1.22533e-13
1.13479e-13
1.0693e-13
1.0212e-13
9.85682e-14
9.59537e-14
9.40537e-14
9.27067e-14
9.17918e-14
9.12163e-14
9.09072e-14
9.08056e-14
9.08637e-14
9.10417e-14
9.13066e-14
9.16302e-14
9.19885e-14
9.23614e-14
9.27311e-14
9.3083e-14
9.34042e-14
9.36839e-14
9.39132e-14
9.40845e-14
9.41918e-14
9.42301e-14
9.41961e-14
9.40872e-14
9.39019e-14
9.36397e-14
9.3301e-14
9.2887e-14
9.23999e-14
9.18425e-14
9.12184e-14
9.05319e-14
8.97881e-14
8.89929e-14
8.81527e-14
8.72749e-14
8.63675e-14
8.54396e-14
8.45009e-14
8.35623e-14
8.26359e-14
8.17349e-14
8.08742e-14
8.00704e-14
7.93421e-14
7.87109e-14
7.82012e-14
7.78418e-14
7.76667e-14
7.77165e-14
7.80412e-14
7.8703e-14
7.97809e-14
8.13786e-14
8.36355e-14
8.67462e-14
9.09919e-14
9.67994e-14
1.04853e-13
1.16336e-13
1.33502e-13
1.61298e-13
2.13169e-13
3.41907e-13
9.99201e-13
9.99201e-13
3.84501e-13
2.48157e-13
1.90682e-13
1.59246e-13
1.39627e-13
1.26423e-13
1.17122e-13
1.10388e-13
1.05436e-13
1.01775e-13
9.90761e-14
9.71104e-14
9.57117e-14
9.47558e-14
9.41469e-14
9.38099e-14
9.36841e-14
9.37199e-14
9.38765e-14
9.41196e-14
9.44202e-14
9.47539e-14
9.50996e-14
9.54396e-14
9.57585e-14
9.60435e-14
9.62838e-14
9.64702e-14
9.65952e-14
9.6653e-14
9.6639e-14
9.65499e-14
9.63833e-14
9.61381e-14
9.58141e-14
9.54121e-14
9.49338e-14
9.43815e-14
9.37584e-14
9.30686e-14
9.23168e-14
9.15083e-14
9.06493e-14
8.97467e-14
8.8808e-14
8.78417e-14
8.68569e-14
8.58637e-14
8.48732e-14
8.38975e-14
8.29503e-14
8.20464e-14
8.12026e-14
8.04379e-14
7.97738e-14
7.9235e-14
7.88505e-14
7.86544e-14
7.8688e-14
7.90013e-14
7.96571e-14
8.07352e-14
8.23401e-14
8.46126e-14
8.77488e-14
9.20326e-14
9.78943e-14
1.06024e-13
1.17613e-13
1.34933e-13
1.62957e-13
2.15182e-13
3.44432e-13
9.99201e-13
9.99201e-13
3.9162e-13
2.54172e-13
1.95779e-13
1.63717e-13
1.43661e-13
1.30143e-13
1.20609e-13
1.137e-13
1.08616e-13
1.04853e-13
1.02076e-13
1.00049e-13
9.8603e-14
9.76091e-14
9.69693e-14
9.6606e-14
9.64567e-14
9.64704e-14
9.66048e-14
9.68248e-14
9.71005e-14
9.74066e-14
9.77218e-14
9.80277e-14
9.8309e-14
9.85525e-14
9.87473e-14
9.88843e-14
9.89562e-14
9.89574e-14
9.88834e-14
9.87312e-14
9.84988e-14
9.81855e-14
9.77914e-14
9.73178e-14
9.67667e-14
9.61409e-14
9.54441e-14
9.46807e-14
9.38557e-14
9.2975e-14
9.20451e-14
9.10732e-14
9.0067e-14
8.90354e-14
8.79877e-14
8.69342e-14
8.58863e-14
8.48562e-14
8.38576e-14
8.29056e-14
8.2017e-14
8.12108e-14
8.05087e-14
7.99354e-14
7.95201e-14
7.92969e-14
7.93071e-14
7.96011e-14
8.02418e-14
8.13093e-14
8.29087e-14
8.51812e-14
8.8324e-14
9.26222e-14
9.85082e-14
1.06675e-13
1.1832e-13
1.3572e-13
1.63867e-13
2.16285e-13
3.45813e-13
9.99201e-13
9.99201e-13
3.98322e-13
2.59882e-13
2.00638e-13
1.67989e-13
1.47521e-13
1.33706e-13
1.23953e-13
1.1688e-13
1.11671e-13
1.07813e-13
1.04963e-13
1.0288e-13
1.0139e-13
1.00361e-13
9.96925e-14
9.93041e-14
9.9132e-14
9.91232e-14
9.92345e-14
9.94295e-14
9.96775e-14
9.99528e-14
1.00233e-13
1.005e-13
1.00738e-13
1.00934e-13
1.01077e-13
1.01157e-13
1.01168e-13
1.01104e-13
1.00962e-13
1.00737e-13
1.0043e-13
1.00039e-13
9.9566e-14
9.90115e-14
9.83783e-14
9.76699e-14
9.68904e-14
9.60446e-14
9.51381e-14
9.41771e-14
9.31684e-14
9.21196e-14
9.1039e-14
8.99354e-14
8.88184e-14
8.76987e-14
8.65876e-14
8.54977e-14
8.44426e-14
8.34374e-14
8.24991e-14
8.16466e-14
8.09015e-14
8.02886e-14
7.98368e-14
7.95804e-14
7.95604e-14
7.98272e-14
8.04436e-14
8.14898e-14
8.30707e-14
8.53276e-14
8.84577e-14
9.27463e-14
9.86261e-14
1.06791e-13
1.18437e-13
1.35846e-13
1.64009e-13
2.16456e-13
3.46027e-13
9.99201e-13
9.99201e-13
4.04656e-13
2.65321e-13
2.05284e-13
1.72082e-13
1.51225e-13
1.37129e-13
1.27169e-13
1.1994e-13
1.14614e-13
1.10668e-13
1.0775e-13
1.05616e-13
1.04085e-13
1.03024e-13
1.02328e-13
1.01916e-13
1.01721e-13
1.01689e-13
1.01776e-13
1.01944e-13
1.02161e-13
1.02401e-13
1.02642e-13
1.02865e-13
1.03054e-13
1.03195e-13
1.03277e-13
1.03292e-13
1.03234e-13
1.03096e-13
1.02875e-13
1.02569e-13
1.02176e-13
1.01698e-13
1.01135e-13
1.00489e-13
9.97634e-14
9.89623e-14
9.80903e-14
9.71526e-14
9.61553e-14
9.51051e-14
9.40093e-14
9.28758e-14
9.17131e-14
9.05303e-14
8.93375e-14
8.81453e-14
8.69653e-14
8.58099e-14
8.46931e-14
8.36298e-14
8.26369e-14
8.17332e-14
8.09402e-14
8.02825e-14
7.97889e-14
7.94934e-14
7.94366e-14
7.96686e-14
8.02519e-14
8.1266e-14
8.28156e-14
8.50412e-14
8.81392e-14
9.2394e-14
9.82365e-14
1.06358e-13
1.17953e-13
1.35295e-13
1.63365e-13
2.15673e-13
3.45049e-13
9.99201e-13
9.99201e-13
4.1067e-13
2.70524e-13
2.09743e-13
1.76018e-13
1.54792e-13
1.40428e-13
1.30271e-13
1.22896e-13
1.1746e-13
1.13431e-13
1.10451e-13
1.08269e-13
1.06701e-13
1.0561e-13
1.04889e-13
1.04454e-13
1.04237e-13
1.04182e-13
1.04242e-13
1.0438e-13
1.04563e-13
1.04764e-13
1.0496e-13
1.05132e-13
1.05264e-13
1.05342e-13
1.05356e-13
1.05297e-13
1.05159e-13
1.04936e-13
1.04626e-13
1.04227e-13
1.03738e-13
1.03161e-13
1.02496e-13
1.01748e-13
1.00919e-13
1.00014e-13
9.90386e-14
9.79986e-14
9.69007e-14
9.57518e-14
9.45598e-14
9.33329e-14
9.208e-14
9.08107e-14
8.95352e-14
8.82641e-14
8.70092e-14
8.57829e-14
8.45991e-14
8.34727e-14
8.24205e-14
8.1461e-14
8.06154e-14
7.99081e-14
7.93674e-14
7.90268e-14
7.89266e-14
7.91161e-14
7.96571e-14
8.06284e-14
8.21335e-14
8.43118e-14
8.73579e-14
9.15538e-14
9.73274e-14
1.05365e-13
1.16852e-13
1.3405e-13
1.61916e-13
2.13911e-13
3.42842e-13
9.99201e-13
9.99201e-13
4.1641e-13
2.75523e-13
2.14042e-13
1.79819e-13
1.5824e-13
1.43621e-13
1.33277e-13
1.25763e-13
1.20225e-13
1.16119e-13
1.13081e-13
1.10856e-13
1.09255e-13
1.08137e-13
1.07393e-13
1.06936e-13
1.06696e-13
1.06616e-13
1.06648e-13
1.06753e-13
1.06898e-13
1.07054e-13
1.072e-13
1.07314e-13
1.07381e-13
1.07387e-13
1.07323e-13
1.07179e-13
1.0695e-13
1.06632e-13
1.0622e-13
1.05716e-13
1.05118e-13
1.04429e-13
1.03651e-13
1.02787e-13
1.01842e-13
1.00822e-13
9.97315e-14
9.85781e-14
9.73686e-14
9.61108e-14
9.4813e-14
9.3484e-14
9.21329e-14
9.07695e-14
8.9404e-14
8.80474e-14
8.67115e-14
8.54087e-14
8.41527e-14
8.29583e-14
8.1842e-14
8.08221e-14
7.99193e-14
7.91575e-14
7.85645e-14
7.81733e-14
7.80233e-14
7.81628e-14
7.86528e-14
7.95707e-14
8.10185e-14
8.31335e-14
8.61079e-14
9.02199e-14
9.58923e-14
1.03804e-13
1.15127e-13
1.32102e-13
1.59646e-13
2.11149e-13
3.39368e-13
9.99201e-13
9.99201e-13
4.21916e-13
2.8035e-13
2.18205e-13
1.83507e-13
1.61589e-13
1.46726e-13
1.36204e-13
1.28559e-13
1.22924e-13
1.18747e-13
1.15658e-13
1.13393e-13
1.11762e-13
1.1062e-13
1.09855e-13
1.09377e-13
1.09115e-13
1.09009e-13
1.09011e-13
1.09079e-13
1.09181e-13
1.09288e-13
1.09375e-13
1.09423e-13
1.09417e-13
1.09342e-13
1.09189e-13
1.08949e-13
1.08617e-13
1.08189e-13
1.07664e-13
1.0704e-13
1.0632e-13
1.05505e-13
1.04599e-13
1.03606e-13
1.02533e-13
1.01383e-13
1.00166e-13
9.88868e-14
9.75546e-14
9.61775e-14
9.47641e-14
9.33237e-14
9.18656e-14
9.04001e-14
8.89375e-14
8.74889e-14
8.6066e-14
8.46813e-14
8.33481e-14
8.20811e-14
8.08964e-14
7.98118e-14
7.88476e-14
7.8027e-14
7.7377e-14
7.69298e-14
7.67241e-14
7.68066e-14
7.7237e-14
7.80911e-14
7.94688e-14
8.15048e-14
8.43874e-14
8.83903e-14
9.39288e-14
1.01671e-13
1.12773e-13
1.29443e-13
1.56546e-13
2.07367e-13
3.34586e-13
9.99201e-13
9.99201e-13
4.27226e-13
2.85034e-13
2.22255e-13
1.87101e-13
1.64859e-13
1.49761e-13
1.39069e-13
1.31301e-13
1.25576e-13
1.21335e-13
1.18198e-13
1.15899e-13
1.14243e-13
1.1308e-13
1.12295e-13
1.11797e-13
1.11512e-13
1.11379e-13
1.11348e-13
1.11377e-13
1.11431e-13
1.11481e-13
1.11503e-13
1.11476e-13
1.11386e-13
1.11219e-13
1.10964e-13
1.10615e-13
1.10167e-13
1.09616e-13
1.08962e-13
1.08204e-13
1.07346e-13
1.0639e-13
1.05342e-13
1.04206e-13
1.02988e-13
1.01697e-13
1.00338e-13
9.89215e-14
9.74549e-14
9.59473e-14
9.4408e-14
9.28466e-14
9.1273e-14
8.96975e-14
8.81307e-14
8.65838e-14
8.50683e-14
8.35965e-14
8.21816e-14
8.08378e-14
7.95808e-14
7.84278e-14
7.73985e-14
7.65152e-14
7.58041e-14
7.52962e-14
7.50293e-14
7.50481e-14
7.54109e-14
7.61913e-14
7.74864e-14
7.94275e-14
8.21987e-14
8.6067e-14
9.14388e-14
9.89681e-14
1.09789e-13
1.26072e-13
1.52609e-13
2.02548e-13
3.28449e-13
9.99201e-13
9.99201e-13
4.32373e-13
2.896e-13
2.26215e-13
1.90621e-13
1.68065e-13
1.52743e-13
1.4189e-13
1.34005e-13
1.28198e-13
1.23898e-13
1.20721e-13
1.18393e-13
1.16715e-13
1.15534e-13
1.14732e-13
1.14215e-13
1.13907e-13
1.13746e-13
1.13679e-13
1.13663e-13
1.13663e-13
1.1365e-13
1.13598e-13
1.13487e-13
1.13302e-13
1.1303e-13
1.12661e-13
1.12188e-13
1.11608e-13
1.10918e-13
1.10119e-13
1.09211e-13
1.08199e-13
1.07086e-13
1.05879e-13
1.04583e-13
1.03207e-13
1.01758e-13
1.00245e-13
9.86777e-14
9.70644e-14
9.5415e-14
9.37394e-14
9.20478e-14
9.03503e-14
8.86574e-14
8.69798e-14
8.53287e-14
8.37154e-14
8.21522e-14
8.06517e-14
7.92277e-14
7.78952e-14
7.6671e-14
7.55736e-14
7.46246e-14
7.3849e-14
7.32764e-14
7.29433e-14
7.28926e-14
7.31802e-14
7.38774e-14
7.5078e-14
7.69091e-14
7.95492e-14
8.32577e-14
8.84297e-14
9.57025e-14
1.06182e-13
1.21992e-13
1.47834e-13
1.96681e-13
3.2091e-13
9.99201e-13
9.99201e-13