/*--------------------------------*- C++ -*----------------------------------*\
  =========                 |
  \\      /  F ield         | OpenFOAM: The Open Source CFD Toolbox
   \\    /   O peration     | Website:  https://openfoam.org
    \\  /    A nd           | Version:  12
     \\/     M anipulation  |
\*---------------------------------------------------------------------------*/
FoamFile
{
    format      ascii;
    class       volScalarField;
    location    "8";
    object      p;
}
// * * * * * * * * * * * * * * * * * * * * * * * * * * * * * * * * * * * * * //

dimensions      [0 2 -2 0 0 0 0];

internalField   nonuniform List<scalar> 
5625
(
-8.73861e-10
2.61921e-07
1.34366e-06
3.23436e-06
5.67346e-06
8.43037e-06
1.13227e-05
1.41973e-05
1.69236e-05
1.93923e-05
2.15135e-05
2.32149e-05
2.4439e-05
2.51416e-05
2.52898e-05
2.48607e-05
2.38399e-05
2.22204e-05
2.0002e-05
1.719e-05
1.37947e-05
9.8308e-06
5.31684e-06
2.7472e-07
-5.27079e-06
-1.12922e-05
-1.776e-05
-2.46424e-05
-3.19062e-05
-3.95164e-05
-4.7437e-05
-5.56307e-05
-6.40593e-05
-7.26839e-05
-8.14649e-05
-9.03622e-05
-9.93353e-05
-0.000108343
-0.000117346
-0.000126301
-0.00013517
-0.00014391
-0.000152482
-0.000160847
-0.000168965
-0.000176798
-0.000184308
-0.000191461
-0.000198221
-0.000204556
-0.000210433
-0.000215824
-0.000220702
-0.000225044
-0.000228828
-0.000232037
-0.000234659
-0.000236683
-0.000238108
-0.000238935
-0.000239173
-0.00023884
-0.00023796
-0.00023657
-0.000234716
-0.000232458
-0.000229872
-0.000227048
-0.000224099
-0.000221156
-0.000218372
-0.000215928
-0.000214052
-0.000212998
-0.000212762
-3.5601e-06
-2.85379e-06
-1.62161e-06
7.45131e-08
2.09867e-06
4.31252e-06
6.59154e-06
8.82466e-06
1.09139e-05
1.27745e-05
1.43342e-05
1.55329e-05
1.63214e-05
1.66605e-05
1.65199e-05
1.58775e-05
1.47187e-05
1.30349e-05
1.08237e-05
8.08767e-06
4.83408e-06
1.07424e-06
-3.17685e-06
-7.90097e-06
-1.3077e-05
-1.86813e-05
-2.4688e-05
-3.10692e-05
-3.77952e-05
-4.48349e-05
-5.21558e-05
-5.97243e-05
-6.75058e-05
-7.5465e-05
-8.35658e-05
-9.17715e-05
-0.000100045
-0.00010835
-0.000116649
-0.000124903
-0.000133077
-0.000141133
-0.000149035
-0.000156747
-0.000164233
-0.00017146
-0.000178394
-0.000185002
-0.000191255
-0.000197123
-0.000202579
-0.000207597
-0.000212155
-0.000216234
-0.000219815
-0.000222886
-0.000225436
-0.000227459
-0.000228956
-0.00022993
-0.000230392
-0.000230359
-0.000229854
-0.000228911
-0.00022757
-0.000225884
-0.000223913
-0.000221733
-0.000219428
-0.000217099
-0.000214856
-0.000212825
-0.000211143
-0.000209945
-0.000209275
-9.52369e-06
-8.04076e-06
-6.17521e-06
-4.19109e-06
-2.13248e-06
-4.79743e-08
1.99251e-06
3.91719e-06
5.66009e-06
7.16197e-06
8.37049e-06
9.24034e-06
9.73334e-06
9.81818e-06
9.47017e-06
8.67075e-06
7.40713e-06
5.67184e-06
3.46226e-06
7.80206e-07
-2.36841e-06
-5.97407e-06
-1.00239e-05
-1.4502e-05
-1.93898e-05
-2.46664e-05
-3.03087e-05
-3.62916e-05
-4.25885e-05
-4.91711e-05
-5.60099e-05
-6.30744e-05
-7.03329e-05
-7.77532e-05
-8.53021e-05
-9.29462e-05
-0.000100652
-0.000108384
-0.00011611
-0.000123794
-0.000131403
-0.000138903
-0.00014626
-0.000153443
-0.000160418
-0.000167155
-0.000173624
-0.000179795
-0.000185641
-0.000191137
-0.000196258
-0.000200981
-0.000205288
-0.00020916
-0.000212583
-0.000215546
-0.000218041
-0.000220062
-0.000221611
-0.000222692
-0.000223314
-0.000223491
-0.000223244
-0.000222599
-0.000221591
-0.000220258
-0.000218648
-0.000216814
-0.000214818
-0.000212726
-0.00021061
-0.000208542
-0.000206572
-0.000204745
-0.000203314
-1.64403e-05
-1.40677e-05
-1.13625e-05
-8.81458e-06
-6.40899e-06
-4.12928e-06
-2.00792e-06
-8.93908e-08
1.58448e-06
2.97541e-06
4.04858e-06
4.77293e-06
5.12176e-06
5.07285e-06
4.60862e-06
3.71589e-06
2.3859e-06
6.13946e-07
-1.60068e-06
-4.25517e-06
-7.34315e-06
-1.08553e-05
-1.47792e-05
-1.91001e-05
-2.38005e-05
-2.88609e-05
-3.42599e-05
-3.99744e-05
-4.59793e-05
-5.22488e-05
-5.87552e-05
-6.54702e-05
-7.23645e-05
-7.94079e-05
-8.65698e-05
-9.38191e-05
-0.000101124
-0.000108453
-0.000115774
-0.000123056
-0.000130267
-0.000137375
-0.000144349
-0.00015116
-0.000157778
-0.000164174
-0.00017032
-0.000176189
-0.000181756
-0.000186998
-0.000191891
-0.000196416
-0.000200555
-0.000204291
-0.000207611
-0.000210504
-0.000212962
-0.000214981
-0.000216559
-0.000217698
-0.000218407
-0.000218693
-0.000218574
-0.000218068
-0.000217199
-0.000215995
-0.00021449
-0.000212719
-0.000210723
-0.000208544
-0.000206228
-0.00020381
-0.000201275
-0.000198612
-0.000196293
-2.30603e-05
-1.98185e-05
-1.62452e-05
-1.30495e-05
-1.01768e-05
-7.56244e-06
-5.2127e-06
-3.15309e-06
-1.40744e-06
2.53312e-09
1.05652e-06
1.73586e-06
2.02439e-06
1.90862e-06
1.37823e-06
4.25877e-07
-9.52477e-07
-2.75792e-06
-4.98836e-06
-7.639e-06
-1.07021e-05
-1.41674e-05
-1.80224e-05
-2.2252e-05
-2.68394e-05
-3.17657e-05
-3.70101e-05
-4.25508e-05
-4.8364e-05
-5.44251e-05
-6.0708e-05
-6.71861e-05
-7.38315e-05
-8.06159e-05
-8.75105e-05
-9.44859e-05
-0.000101512
-0.00010856
-0.0001156
-0.0001226
-0.000129533
-0.000136369
-0.000143077
-0.000149631
-0.000156002
-0.000162164
-0.000168089
-0.000173754
-0.000179134
-0.000184206
-0.000188951
-0.000193348
-0.00019738
-0.000201031
-0.000204289
-0.000207141
-0.000209579
-0.000211598
-0.000213194
-0.000214367
-0.00021512
-0.000215458
-0.000215391
-0.00021493
-0.000214092
-0.000212893
-0.000211354
-0.000209498
-0.000207347
-0.000204927
-0.000202265
-0.000199369
-0.000196178
-0.000192641
-0.000189448
-2.85617e-05
-2.45219e-05
-2.01261e-05
-1.62804e-05
-1.29034e-05
-9.89505e-06
-7.24465e-06
-4.9652e-06
-3.06797e-06
-1.56238e-06
-4.5745e-07
2.38243e-07
5.17423e-07
3.74398e-07
-1.94492e-07
-1.19087e-06
-2.61403e-06
-4.46109e-06
-6.72677e-06
-9.40368e-06
-1.24821e-05
-1.59505e-05
-1.97949e-05
-2.40001e-05
-2.85486e-05
-3.34217e-05
-3.85989e-05
-4.40586e-05
-4.97779e-05
-5.57328e-05
-6.18983e-05
-6.82487e-05
-7.47574e-05
-8.13973e-05
-8.81409e-05
-9.49601e-05
-0.000101827
-0.000108712
-0.000115588
-0.000122426
-0.000129198
-0.000135876
-0.000142433
-0.00014884
-0.000155072
-0.000161103
-0.000166909
-0.000172464
-0.000177746
-0.000182734
-0.000187406
-0.000191744
-0.000195731
-0.000199351
-0.000202589
-0.000205434
-0.000207876
-0.000209906
-0.00021152
-0.000212714
-0.000213487
-0.000213839
-0.000213775
-0.0002133
-0.000212421
-0.000211148
-0.00020949
-0.00020746
-0.000205067
-0.000202326
-0.00019925
-0.000195831
-0.000191973
-0.000187597
-0.000183593
-3.23834e-05
-2.7631e-05
-2.24871e-05
-1.803e-05
-1.41597e-05
-1.07501e-05
-7.77915e-06
-5.2521e-06
-3.17164e-06
-1.53827e-06
-3.52514e-07
3.85045e-07
6.74388e-07
5.16448e-07
-8.65668e-08
-1.13104e-06
-2.61177e-06
-4.5219e-06
-6.8529e-06
-9.59451e-06
-1.27348e-05
-1.62602e-05
-2.01557e-05
-2.44044e-05
-2.89886e-05
-3.38886e-05
-3.9084e-05
-4.45531e-05
-5.02731e-05
-5.62203e-05
-6.23703e-05
-6.86979e-05
-7.51772e-05
-8.1782e-05
-8.84856e-05
-9.52607e-05
-0.00010208
-0.000108917
-0.000115743
-0.000122531
-0.000129254
-0.000135884
-0.000142396
-0.000148763
-0.00015496
-0.000160961
-0.000166742
-0.000172279
-0.000177551
-0.000182535
-0.000187211
-0.00019156
-0.000195564
-0.000199207
-0.000202474
-0.000205351
-0.000207827
-0.000209891
-0.000211536
-0.000212754
-0.000213541
-0.000213894
-0.00021381
-0.00021329
-0.000212335
-0.000210947
-0.000209128
-0.000206881
-0.000204208
-0.000201115
-0.000197608
-0.000193668
-0.000189172
-0.000184023
-0.000179286
-3.41191e-05
-2.87381e-05
-2.29276e-05
-1.79165e-05
-1.35907e-05
-9.8041e-06
-6.52706e-06
-3.75987e-06
-1.49939e-06
2.60351e-07
1.52527e-06
2.30103e-06
2.5935e-06
2.40919e-06
1.75534e-06
6.40261e-07
-9.26709e-07
-2.93496e-06
-5.37273e-06
-8.22688e-06
-1.14831e-05
-1.51257e-05
-1.91379e-05
-2.35016e-05
-2.81978e-05
-3.3206e-05
-3.85053e-05
-4.40733e-05
-4.98874e-05
-5.59235e-05
-6.21576e-05
-6.85644e-05
-7.51187e-05
-8.17943e-05
-8.85652e-05
-9.54047e-05
-0.000102286
-0.000109183
-0.000116068
-0.000122915
-0.000129696
-0.000136387
-0.000142959
-0.000149389
-0.00015565
-0.000161718
-0.000167569
-0.00017318
-0.000178527
-0.000183589
-0.000188346
-0.000192778
-0.000196866
-0.000200592
-0.000203941
-0.000206897
-0.000209446
-0.000211577
-0.000213278
-0.000214539
-0.000215352
-0.000215711
-0.000215607
-0.000215038
-0.000213998
-0.000212484
-0.000210492
-0.000208019
-0.000205062
-0.000201619
-0.000197694
-0.000193259
-0.00018817
-0.000182318
-0.000176924
-3.34525e-05
-2.75198e-05
-2.11231e-05
-1.5623e-05
-1.08944e-05
-6.77449e-06
-3.22829e-06
-2.52822e-07
2.1592e-06
4.01864e-06
5.33642e-06
6.12321e-06
6.38971e-06
6.14714e-06
5.40714e-06
4.18218e-06
2.48536e-06
3.30802e-07
-2.26663e-06
-5.29097e-06
-8.72547e-06
-1.25522e-05
-1.67527e-05
-2.13071e-05
-2.6195e-05
-3.13951e-05
-3.68854e-05
-4.2643e-05
-4.86445e-05
-5.48659e-05
-6.12825e-05
-6.78694e-05
-7.46011e-05
-8.14516e-05
-8.83952e-05
-9.54052e-05
-0.000102456
-0.00010952
-0.000116571
-0.000123583
-0.000130529
-0.000137383
-0.00014412
-0.000150714
-0.000157139
-0.000163372
-0.000169387
-0.000175161
-0.000180672
-0.000185897
-0.000190814
-0.000195403
-0.000199645
-0.00020352
-0.000207011
-0.0002101
-0.000212773
-0.000215014
-0.000216809
-0.000218146
-0.000219014
-0.000219401
-0.000219297
-0.000218693
-0.000217582
-0.000215954
-0.000213801
-0.000211117
-0.000207891
-0.000204121
-0.000199805
-0.000194913
-0.000189284
-0.000182796
-0.000176809
-3.01123e-05
-2.36982e-05
-1.67927e-05
-1.08723e-05
-5.80225e-06
-1.40563e-06
2.35707e-06
5.49116e-06
8.00726e-06
9.92012e-06
1.12448e-05
1.19962e-05
1.21892e-05
1.18389e-05
1.09611e-05
9.57191e-06
7.68791e-06
5.32645e-06
2.50545e-06
-7.56462e-07
-4.44002e-06
-8.52522e-06
-1.29914e-05
-1.78174e-05
-2.2981e-05
-2.84599e-05
-3.42309e-05
-4.02703e-05
-4.65539e-05
-5.30573e-05
-5.97554e-05
-6.66227e-05
-7.36338e-05
-8.07626e-05
-8.7983e-05
-9.52686e-05
-0.000102593
-0.00010993
-0.000117253
-0.000124536
-0.000131752
-0.000138874
-0.000145878
-0.000152738
-0.000159427
-0.000165922
-0.000172197
-0.000178228
-0.000183993
-0.000189466
-0.000194628
-0.000199455
-0.000203926
-0.000208022
-0.000211723
-0.000215009
-0.000217864
-0.000220269
-0.000222209
-0.000223669
-0.000224632
-0.000225086
-0.000225017
-0.000224413
-0.00022326
-0.000221548
-0.000219264
-0.000216397
-0.000212935
-0.000208872
-0.000204206
-0.0001989
-0.000192781
-0.000185717
-0.000179194
-2.38441e-05
-1.70147e-05
-9.67588e-06
-3.4068e-06
1.93623e-06
6.54303e-06
1.04571e-05
1.3686e-05
1.62433e-05
1.81472e-05
1.94165e-05
2.00696e-05
2.01255e-05
1.96028e-05
1.85209e-05
1.68993e-05
1.47581e-05
1.21175e-05
8.99849e-06
5.42217e-06
1.41033e-06
-3.01492e-06
-7.83091e-06
-1.30147e-05
-1.85426e-05
-2.4391e-05
-3.05354e-05
-3.69513e-05
-4.36136e-05
-5.04971e-05
-5.75763e-05
-6.48252e-05
-7.22179e-05
-7.97281e-05
-8.73295e-05
-9.49955e-05
-0.0001027
-0.000110415
-0.000118115
-0.000125774
-0.000133364
-0.00014086
-0.000148235
-0.000155462
-0.000162517
-0.000169374
-0.000176006
-0.000182391
-0.000188502
-0.000194316
-0.00019981
-0.00020496
-0.000209744
-0.00021414
-0.000218126
-0.000221683
-0.000224788
-0.000227424
-0.000229571
-0.000231211
-0.000232326
-0.000232899
-0.000232915
-0.000232356
-0.000231207
-0.000229454
-0.000227082
-0.000224075
-0.000220421
-0.000216108
-0.000211136
-0.000205464
-0.000198906
-0.00019132
-0.000184309
-1.43908e-05
-7.21136e-06
4.83587e-07
7.02513e-06
1.25654e-05
1.73062e-05
2.12953e-05
2.45424e-05
2.70641e-05
2.88822e-05
3.00188e-05
3.04963e-05
3.03368e-05
2.95628e-05
2.8197e-05
2.62623e-05
2.37818e-05
2.07788e-05
1.72771e-05
1.33003e-05
8.87259e-06
4.01826e-06
-1.23806e-06
-6.87167e-06
-1.28574e-05
-1.91702e-05
-2.57844e-05
-3.26745e-05
-3.98144e-05
-4.71783e-05
-5.47397e-05
-6.24726e-05
-7.03501e-05
-7.83458e-05
-8.64329e-05
-9.45846e-05
-0.000102774
-0.000110974
-0.000119158
-0.000127299
-0.00013537
-0.000143344
-0.000151194
-0.000158895
-0.000166419
-0.00017374
-0.000180831
-0.000187668
-0.000194225
-0.000200476
-0.000206397
-0.000211962
-0.000217148
-0.000221931
-0.000226288
-0.000230195
-0.00023363
-0.000236572
-0.000238999
-0.000240889
-0.000242224
-0.000242981
-0.000243143
-0.00024269
-0.000241603
-0.000239865
-0.000237459
-0.000234366
-0.000230569
-0.000226059
-0.000220831
-0.000214842
-0.000207894
-0.000199837
-0.000192379
-1.47999e-06
5.9809e-06
1.39494e-05
2.06798e-05
2.63323e-05
3.11203e-05
3.50957e-05
3.82715e-05
4.06674e-05
4.23087e-05
4.32214e-05
4.34315e-05
4.29647e-05
4.1847e-05
4.01046e-05
3.77636e-05
3.48503e-05
3.1391e-05
2.74119e-05
2.29395e-05
1.80002e-05
1.26204e-05
6.82661e-06
6.45299e-07
-5.89692e-06
-1.27735e-05
-1.99577e-05
-2.74228e-05
-3.51421e-05
-4.30888e-05
-5.12359e-05
-5.95566e-05
-6.80237e-05
-7.66102e-05
-8.52889e-05
-9.40327e-05
-0.000102814
-0.000111606
-0.000120382
-0.000129113
-0.000137772
-0.000146333
-0.000154767
-0.000163048
-0.000171147
-0.000179039
-0.000186695
-0.00019409
-0.000201195
-0.000207985
-0.000214433
-0.000220513
-0.000226198
-0.000231464
-0.000236284
-0.000240633
-0.000244488
-0.000247822
-0.000250613
-0.000252836
-0.000254468
-0.000255486
-0.000255868
-0.000255592
-0.000254637
-0.000252981
-0.000250604
-0.000247487
-0.000243609
-0.000238958
-0.000233528
-0.000227275
-0.000219987
-0.000211506
-0.000203642
1.51855e-05
2.28512e-05
3.10006e-05
3.7825e-05
4.34928e-05
4.8228e-05
5.20877e-05
5.50883e-05
5.72536e-05
5.86127e-05
5.91957e-05
5.90325e-05
5.81525e-05
5.65855e-05
5.4361e-05
5.15087e-05
4.80577e-05
4.40375e-05
3.9477e-05
3.4405e-05
2.88503e-05
2.28414e-05
1.64065e-05
9.57389e-06
2.37154e-06
-5.17259e-06
-1.30308e-05
-2.11754e-05
-2.95787e-05
-3.82133e-05
-4.70515e-05
-5.6066e-05
-6.52292e-05
-7.45135e-05
-8.38915e-05
-9.33355e-05
-0.000102818
-0.000112311
-0.000121787
-0.000131219
-0.000140578
-0.000149836
-0.000158964
-0.000167936
-0.000176723
-0.000185296
-0.000193628
-0.00020169
-0.000209454
-0.000216892
-0.000223975
-0.000230676
-0.000236967
-0.00024282
-0.000248206
-0.0002531
-0.000257472
-0.000261296
-0.000264546
-0.000267194
-0.000269215
-0.000270582
-0.000271271
-0.000271255
-0.000270511
-0.000269014
-0.000266742
-0.000263671
-0.000259779
-0.000255051
-0.000249481
-0.00024302
-0.000235443
-0.000226586
-0.000218353
3.59325e-05
4.37137e-05
5.19362e-05
5.87445e-05
6.43148e-05
6.88815e-05
7.25072e-05
7.52129e-05
7.70267e-05
7.79825e-05
7.81147e-05
7.74573e-05
7.6044e-05
7.39085e-05
7.10838e-05
6.7603e-05
6.34986e-05
5.88027e-05
5.35471e-05
4.77631e-05
4.14815e-05
3.47329e-05
2.75473e-05
1.99544e-05
1.19836e-05
3.66396e-06
-4.97586e-06
-1.39072e-05
-2.31019e-05
-3.25316e-05
-4.21686e-05
-5.19846e-05
-6.19521e-05
-7.2043e-05
-8.22296e-05
-9.24839e-05
-0.000102778
-0.000113084
-0.000123373
-0.000133617
-0.000143787
-0.000153856
-0.000163795
-0.000173573
-0.000183163
-0.000192534
-0.000201658
-0.000210504
-0.000219043
-0.000227246
-0.000235081
-0.00024252
-0.000249531
-0.000256085
-0.000262151
-0.0002677
-0.000272701
-0.000277125
-0.000280941
-0.00028412
-0.000286632
-0.000288449
-0.000289542
-0.000289881
-0.00028944
-0.000288192
-0.000286108
-0.000283165
-0.000279336
-0.000274604
-0.00026896
-0.000262351
-0.000254542
-0.00024536
-0.000236796
6.11215e-05
6.89109e-05
7.70779e-05
8.37399e-05
8.90808e-05
9.33439e-05
9.65984e-05
9.88707e-05
0.000100194
0.000100608
0.000100152
9.88639e-05
9.67824e-05
9.39452e-05
9.03892e-05
8.61509e-05
8.12661e-05
7.577e-05
6.96968e-05
6.30802e-05
5.59533e-05
4.83484e-05
4.0297e-05
3.18303e-05
2.29788e-05
1.37725e-05
4.24082e-06
-5.58694e-06
-1.56821e-05
-2.6016e-05
-3.65604e-05
-4.72871e-05
-5.81681e-05
-6.91752e-05
-8.02807e-05
-9.14562e-05
-0.000102674
-0.000113905
-0.000125121
-0.000136293
-0.000147393
-0.00015839
-0.000169256
-0.000179961
-0.000190474
-0.000200766
-0.000210804
-0.000220558
-0.000229997
-0.000239089
-0.000247801
-0.000256102
-0.000263959
-0.00027134
-0.000278211
-0.00028454
-0.000290293
-0.000295438
-0.000299941
-0.000303769
-0.00030689
-0.000309271
-0.000310879
-0.000311682
-0.00031165
-0.00031075
-0.000308954
-0.000306231
-0.000302552
-0.000297898
-0.000292256
-0.00028557
-0.000277592
-0.00026814
-0.00025929
9.11469e-05
9.88141e-05
0.00010677
0.000113131
0.000118086
0.000121887
0.000124611
0.00012629
0.000126964
0.000126679
0.000125478
0.000123406
0.000120506
0.000116819
0.000112388
0.000107251
0.000101449
9.5018e-05
8.79964e-05
8.04197e-05
7.23227e-05
6.37395e-05
5.4703e-05
4.52453e-05
3.5398e-05
2.51916e-05
1.46562e-05
3.82117e-06
-7.28435e-06
-1.86318e-05
-3.01928e-05
-4.19393e-05
-5.38432e-05
-6.58767e-05
-7.80117e-05
-9.02202e-05
-0.000102474
-0.000114745
-0.000127003
-0.000139221
-0.000151368
-0.000163415
-0.000175332
-0.000187087
-0.00019865
-0.000209989
-0.000221072
-0.000231865
-0.000242336
-0.000252451
-0.000262176
-0.000271475
-0.000280315
-0.00028866
-0.000296473
-0.000303719
-0.000310361
-0.000316363
-0.000321689
-0.0003263
-0.000330162
-0.000333236
-0.000335487
-0.000336878
-0.000337375
-0.000336941
-0.000335544
-0.000333147
-0.000329721
-0.000325239
-0.000319687
-0.000313003
-0.000304928
-0.000295273
-0.000286187
0.000126436
0.000133821
0.000141378
0.000147251
0.000151635
0.000154789
0.000156796
0.000157698
0.000157541
0.000156376
0.000154255
0.000151228
0.000147342
0.000142644
0.000137179
0.000130991
0.000124123
0.000116615
0.000108506
9.98354e-05
9.06384e-05
8.09508e-05
7.08066e-05
6.02385e-05
4.92788e-05
3.7958e-05
2.63065e-05
1.43536e-05
2.1282e-06
-1.03415e-05
-2.30274e-05
-3.59019e-05
-4.89373e-05
-6.21062e-05
-7.5381e-05
-8.87339e-05
-0.000102137
-0.000115562
-0.00012898
-0.000142362
-0.000155678
-0.000168898
-0.000181992
-0.000194927
-0.000207671
-0.000220192
-0.000232455
-0.000244427
-0.000256071
-0.000267353
-0.000278236
-0.000288682
-0.000298654
-0.000308113
-0.00031702
-0.000325335
-0.000333019
-0.000340031
-0.00034633
-0.000351875
-0.000356626
-0.000360541
-0.00036358
-0.000365701
-0.000366864
-0.00036703
-0.000366159
-0.000364213
-0.000361155
-0.000356956
-0.000351597
-0.000345009
-0.000336925
-0.000327143
-0.000317883
0.000167447
0.000174354
0.000181283
0.000186444
0.000190038
0.000192327
0.000193401
0.000193313
0.000192116
0.00018987
0.000186632
0.000182458
0.000177401
0.000171514
0.000164845
0.000157441
0.00014935
0.000140613
0.000131272
0.000121367
0.000110937
0.000100016
8.86393e-05
7.68408e-05
6.46519e-05
5.21033e-05
3.92249e-05
2.60452e-05
1.25925e-05
-1.10582e-06
-1.50225e-05
-2.91308e-05
-4.3404e-05
-5.78155e-05
-7.23384e-05
-8.69458e-05
-0.00010161
-0.000116304
-0.000130999
-0.000145665
-0.000160274
-0.000174794
-0.000189194
-0.000203442
-0.000217504
-0.000231348
-0.000244936
-0.000258234
-0.000271204
-0.000283807
-0.000296005
-0.000307758
-0.000319025
-0.000329763
-0.000339931
-0.000349484
-0.000358379
-0.00036657
-0.000374013
-0.000380662
-0.000386471
-0.000391394
-0.000395384
-0.000398396
-0.000400384
-0.000401303
-0.000401107
-0.000399754
-0.0003972
-0.000393412
-0.000388364
-0.000381985
-0.000373992
-0.000364179
-0.000354819
0.000214659
0.000220849
0.000226872
0.000231056
0.0002336
0.000234768
0.00023466
0.000233337
0.000230863
0.000227306
0.00022273
0.000217198
0.000210769
0.000203498
0.00019544
0.000186646
0.000177164
0.00016704
0.000156316
0.000145035
0.000133234
0.00012095
0.000108218
9.50696e-05
8.15372e-05
6.76502e-05
5.34371e-05
3.89256e-05
2.41423e-05
9.11343e-06
-6.13554e-06
-2.15792e-05
-3.71925e-05
-5.295e-05
-6.88264e-05
-8.47957e-05
-0.000100832
-0.000116908
-0.000132995
-0.000149067
-0.000165092
-0.000181041
-0.000196881
-0.00021258
-0.000228104
-0.000243418
-0.000258484
-0.000273265
-0.000287722
-0.000301813
-0.000315498
-0.000328732
-0.000341472
-0.000353671
-0.000365284
-0.000376261
-0.000386556
-0.000396117
-0.000404895
-0.000412838
-0.000419895
-0.000426014
-0.000431143
-0.00043523
-0.000438222
-0.00044007
-0.00044072
-0.000440124
-0.000438231
-0.000435003
-0.000430408
-0.000424366
-0.000416586
-0.000406854
-0.000397483
0.00026857
0.000273752
0.000278536
0.000281422
0.000282612
0.00028236
0.00028078
0.000277943
0.000273924
0.000268799
0.00026264
0.000255516
0.000247493
0.00023863
0.000228986
0.000218615
0.000207568
0.000195893
0.000183633
0.00017083
0.000157523
0.000143748
0.000129538
0.000114926
9.99401e-05
8.46095e-05
6.89605e-05
5.30186e-05
3.68083e-05
2.03536e-05
3.67763e-06
-1.31964e-05
-3.02457e-05
-4.74468e-05
-6.47765e-05
-8.22106e-05
-9.97245e-05
-0.000117293
-0.000134888
-0.000152484
-0.000170051
-0.000187559
-0.000204976
-0.000222269
-0.000239403
-0.000256341
-0.000273046
-0.000289478
-0.000305595
-0.000321353
-0.000336709
-0.000351614
-0.000366022
-0.000379883
-0.000393144
-0.000405754
-0.000417658
-0.000428801
-0.000439128
-0.00044858
-0.0004571
-0.00046463
-0.00047111
-0.000476482
-0.000480686
-0.000483664
-0.000485357
-0.000485707
-0.000484658
-0.000482163
-0.000478185
-0.000472634
-0.000465211
-0.000455694
-0.000446419
0.000329676
0.0003335
0.000336644
0.000337857
0.000337333
0.000335318
0.000331933
0.000327264
0.000321396
0.000314416
0.000306402
0.000297432
0.000287574
0.000276896
0.000265458
0.000253316
0.000240525
0.000227131
0.00021318
0.000198712
0.000183766
0.000168376
0.000152574
0.00013639
0.000119849
0.000102979
8.58026e-05
6.8342e-05
5.06186e-05
3.26532e-05
1.44657e-05
-3.92372e-06
-2.24954e-05
-4.12288e-05
-6.01035e-05
-7.90978e-05
-9.81895e-05
-0.000117355
-0.000136569
-0.000155807
-0.000175039
-0.000194236
-0.000213368
-0.0002324
-0.000251297
-0.000270022
-0.000288535
-0.000306794
-0.000324756
-0.000342375
-0.000359602
-0.000376386
-0.000392676
-0.000408417
-0.000423553
-0.000438026
-0.000451775
-0.000464739
-0.000476856
-0.00048806
-0.000498288
-0.000507472
-0.000515546
-0.000522444
-0.000528096
-0.000532437
-0.000535399
-0.000536917
-0.000536924
-0.000535366
-0.000532196
-0.000527317
-0.00052042
-0.000511279
-0.000502231
0.000398462
0.000400508
0.000401537
0.000400632
0.000397978
0.0003938
0.00038823
0.000381368
0.000373313
0.000364158
0.000353993
0.000342899
0.000330951
0.00031822
0.000304769
0.000290657
0.000275938
0.000260659
0.000244865
0.000228595
0.000211884
0.000194764
0.000177265
0.000159413
0.000141229
0.000122737
0.000103955
8.49016e-05
6.55934e-05
4.60469e-05
2.62778e-05
6.30175e-06
-1.38654e-05
-3.42072e-05
-5.47068e-05
-7.53461e-05
-9.61059e-05
-0.000116966
-0.000137903
-0.000158893
-0.00017991
-0.000200926
-0.00022191
-0.000242828
-0.000263646
-0.000284324
-0.000304823
-0.000325098
-0.000345103
-0.000364788
-0.000384103
-0.000402992
-0.000421399
-0.000439264
-0.000456525
-0.000473117
-0.000488974
-0.000504027
-0.000518206
-0.000531439
-0.000543651
-0.000554768
-0.000564714
-0.000573413
-0.000580787
-0.00058676
-0.000591255
-0.000594195
-0.000595506
-0.000595121
-0.000592985
-0.000588991
-0.000582823
-0.00057425
-0.000565585
0.000475374
0.000475144
0.000473498
0.000469957
0.000464688
0.000457889
0.000449702
0.000440242
0.000429621
0.000417942
0.0004053
0.000391785
0.000377474
0.000362443
0.000346755
0.00033047
0.000313641
0.000296315
0.000278532
0.00026033
0.000241741
0.000222791
0.000203506
0.000183905
0.000164008
0.000143829
0.000123383
0.000102682
8.17364e-05
6.05576e-05
3.91556e-05
1.75402e-05
-4.2778e-06
-2.62872e-05
-4.84757e-05
-7.083e-05
-9.33349e-05
-0.000115973
-0.000138727
-0.000161573
-0.000184489
-0.000207447
-0.000230419
-0.000253372
-0.00027627
-0.000299074
-0.000321742
-0.00034423
-0.000366487
-0.000388462
-0.000410099
-0.000431339
-0.00045212
-0.000472376
-0.000492039
-0.000511038
-0.000529297
-0.000546741
-0.00056329
-0.000578862
-0.000593374
-0.000606741
-0.000618877
-0.000629695
-0.000639105
-0.00064702
-0.000653352
-0.000658013
-0.000660916
-0.000661983
-0.000661146
-0.000658288
-0.000653088
-0.000645312
-0.000637216
0.000560798
0.000557704
0.000552722
0.00054594
0.000537501
0.000527561
0.000516269
0.000503759
0.000490154
0.000475567
0.0004601
0.000443845
0.000426887
0.000409299
0.000391146
0.000372487
0.000353372
0.000333844
0.000313941
0.000293693
0.000273128
0.000252266
0.000231125
0.00020972
0.00018806
0.000166155
0.00014401
0.000121631
9.90215e-05
7.61842e-05
5.31223e-05
2.98386e-05
6.33699e-06
-1.73768e-05
-4.12974e-05
-6.54172e-05
-8.97262e-05
-0.000114212
-0.000138861
-0.000163655
-0.000188572
-0.00021359
-0.00023868
-0.000263812
-0.00028895
-0.000314055
-0.000339084
-0.00036399
-0.000388722
-0.000413223
-0.000437435
-0.000461293
-0.000484729
-0.000507671
-0.000530044
-0.000551768
-0.000572759
-0.000592933
-0.000612198
-0.000630464
-0.000647635
-0.000663615
-0.000678306
-0.000691606
-0.000703414
-0.000713631
-0.000722153
-0.00072888
-0.00073371
-0.000736553
-0.000737327
-0.000735901
-0.000731953
-0.000725245
-0.000717941
0.000655012
0.000648365
0.000639279
0.000628561
0.000616316
0.000602646
0.000587703
0.000571641
0.000554595
0.000536685
0.00051802
0.000498693
0.000478791
0.000458387
0.000437543
0.000416315
0.000394748
0.000372879
0.00035074
0.000328353
0.000305738
0.000282907
0.000259869
0.000236629
0.000213189
0.000189547
0.000165701
0.000141645
0.000117375
9.28839e-05
6.81659e-05
4.32138e-05
1.80227e-05
-7.4032e-06
-3.30718e-05
-5.89826e-05
-8.51315e-05
-0.000111513
-0.000138117
-0.000164931
-0.00019194
-0.000219121
-0.000246451
-0.000273901
-0.000301436
-0.000329018
-0.000356602
-0.000384141
-0.000411579
-0.000438859
-0.000465916
-0.000492681
-0.000519079
-0.000545031
-0.000570454
-0.000595258
-0.00061935
-0.000642634
-0.000665008
-0.000686368
-0.000706607
-0.000725613
-0.000743274
-0.000759475
-0.000774099
-0.00078703
-0.000798152
-0.000807345
-0.000814495
-0.000819492
-0.00082224
-0.000822593
-0.000820228
-0.00081491
-0.000808662
0.000758151
0.00074715
0.000733074
0.000717623
0.000700852
0.000682789
0.000663589
0.000643423
0.000622439
0.000600763
0.000578504
0.00055576
0.000532614
0.000509134
0.000485381
0.000461401
0.000437232
0.000412904
0.000388438
0.000363846
0.000339137
0.000314313
0.00028937
0.000264302
0.000239099
0.000213748
0.000188233
0.00016254
0.000136651
0.000110549
8.42152e-05
5.76242e-05
3.07825e-05
3.67727e-06
-2.37239e-05
-5.14207e-05
-7.94159e-05
-0.000107711
-0.000136305
-0.000165191
-0.000194359
-0.000223792
-0.000253469
-0.000283365
-0.000313447
-0.000343677
-0.000374012
-0.000404402
-0.000434789
-0.000465113
-0.000495304
-0.000525286
-0.000554979
-0.000584296
-0.000613143
-0.00064142
-0.000669025
-0.000695846
-0.00072177
-0.000746678
-0.000770447
-0.00079295
-0.000814058
-0.00083364
-0.00085156
-0.000867684
-0.000881877
-0.000894003
-0.000903925
-0.000911519
-0.000916664
-0.000919203
-0.000918814
-0.000915264
-0.000910383
0.00087015
0.00085387
0.000833785
0.000812695
0.000790589
0.000767396
0.00074327
0.000718401
0.000692945
0.000667031
0.000640769
0.000614253
0.000587562
0.000560756
0.000533888
0.000506993
0.000480098
0.000453221
0.000426368
0.000399541
0.000372732
0.000345929
0.000319114
0.000292267
0.000265363
0.000238374
0.000211272
0.000184025
0.000156604
0.000128977
0.000101114
7.29853e-05
4.45701e-05
1.5836e-05
-1.32392e-05
-4.26729e-05
-7.24801e-05
-0.000102672
-0.000133256
-0.000164232
-0.000195599
-0.000227345
-0.000259455
-0.000291907
-0.000324672
-0.000357714
-0.00039099
-0.000424449
-0.000458033
-0.000491676
-0.000525304
-0.000558836
-0.000592184
-0.00062525
-0.000657932
-0.000690119
-0.000721692
-0.000752529
-0.000782499
-0.000811468
-0.000839293
-0.000865831
-0.000890932
-0.000914444
-0.000936213
-0.000956082
-0.000973893
-0.00098949
-0.00100271
-0.00101342
-0.00102146
-0.00102666
-0.0010287
-0.00102737
-0.00102422
0.000990672
0.000968055
0.000940805
0.000913054
0.000884708
0.000855571
0.000825791
0.000795571
0.000765075
0.000734431
0.000703745
0.000673103
0.000642573
0.000612206
0.000582038
0.000552092
0.000522378
0.000492897
0.00046364
0.000434588
0.000405717
0.000376998
0.000348395
0.000319869
0.000291378
0.000262877
0.00023432
0.00020566
0.00017685
0.000147843
0.000118593
8.90562e-05
5.91916e-05
2.89588e-05
-1.67825e-06
-3.27515e-05
-6.42887e-05
-9.63128e-05
-0.000128841
-0.000161886
-0.000195452
-0.000229538
-0.000264134
-0.000299226
-0.000334788
-0.000370787
-0.000407182
-0.000443923
-0.000480949
-0.000518192
-0.000555573
-0.000593004
-0.00063039
-0.000667623
-0.000704588
-0.000741162
-0.000777212
-0.000812597
-0.00084717
-0.000880777
-0.000913255
-0.000944439
-0.000974156
-0.00100223
-0.00102848
-0.00105273
-0.0010748
-0.00109449
-0.00111163
-0.00112604
-0.00113756
-0.00114598
-0.00115099
-0.0011524
-0.00115142
0.00111903
0.00108888
0.00105316
0.0010176
0.000982019
0.000946049
0.000909825
0.000873564
0.000837433
0.000801552
0.000766017
0.0007309
0.000696253
0.000662111
0.000628489
0.000595391
0.000562805
0.000530711
0.000499076
0.000467862
0.000437023
0.000406505
0.000376253
0.000346206
0.000316301
0.000286474
0.000256658
0.000226787
0.000196794
0.000166613
0.000136182
0.000105438
7.43216e-05
4.27772e-05
1.07524e-05
-2.18007e-05
-5.49247e-05
-8.86567e-05
-0.000123028
-0.000158062
-0.000193777
-0.000230181
-0.000267274
-0.000305048
-0.000343486
-0.000382558
-0.000422228
-0.000462444
-0.000503149
-0.000544269
-0.000585723
-0.000627417
-0.000669244
-0.000711088
-0.00075282
-0.000794303
-0.000835387
-0.000875912
-0.000915711
-0.000954606
-0.000992411
-0.00102894
-0.00106398
-0.00109734
-0.00112881
-0.00115817
-0.00118522
-0.00120974
-0.00123151
-0.00125033
-0.001266
-0.00127829
-0.00128691
-0.00129167
-0.00129337
0.0012541
0.00121506
0.00116941
0.00112479
0.00108087
0.00103711
0.000993595
0.000950567
0.000908183
0.00086655
0.000825745
0.000785819
0.000746802
0.000708702
0.00067151
0.000635202
0.000599739
0.000565073
0.000531145
0.000497889
0.000465231
0.000433094
0.000401396
0.000370052
0.000338975
0.000308076
0.000277265
0.000246455
0.000215557
0.000184484
0.000153152
0.000121477
8.93804e-05
5.67872e-05
2.36257e-05
-1.01704e-05
-4.46616e-05
-7.99027e-05
-0.000115941
-0.000152816
-0.00019056
-0.000229194
-0.000268733
-0.000309176
-0.000350517
-0.000392734
-0.000435794
-0.000479651
-0.000524246
-0.000569508
-0.000615349
-0.000661669
-0.000708354
-0.000755275
-0.000802291
-0.000849247
-0.000895973
-0.00094229
-0.000988005
-0.00103292
-0.00107681
-0.00111946
-0.00116064
-0.00120011
-0.00123763
-0.00127296
-0.00130584
-0.00133602
-0.00136326
-0.0013873
-0.00140791
-0.00142483
-0.00143781
-0.00144664
-0.00145162
0.0013942
0.00134477
0.00128756
0.0012325
0.00117906
0.00112647
0.00107478
0.00102423
0.000974962
0.000927064
0.000880582
0.000835538
0.000791929
0.000749729
0.000708896