/*--------------------------------*- C++ -*----------------------------------*\
  =========                 |
  \\      /  F ield         | OpenFOAM: The Open Source CFD Toolbox
   \\    /   O peration     | Website:  https://openfoam.org
    \\  /    A nd           | Version:  12
     \\/     M anipulation  |
\*---------------------------------------------------------------------------*/
FoamFile
{
    format      ascii;
    class       volVectorField;
    location    "8";
    object      U;
}
// * * * * * * * * * * * * * * * * * * * * * * * * * * * * * * * * * * * * * //

dimensions      [0 1 -1 0 0 0 0];

internalField   nonuniform List<vector> 
5625
(
(-2.63231e-07 5.89976e-07 0)
(-9.12548e-07 8.91958e-07 0)
(-1.34111e-06 7.85114e-07 0)
(-1.2223e-06 5.08295e-07 0)
(-3.25411e-07 1.74563e-07 0)
(1.43353e-06 -1.67214e-07 0)
(4.06e-06 -4.92879e-07 0)
(7.51922e-06 -7.90028e-07 0)
(1.17529e-05 -1.0532e-06 0)
(1.66886e-05 -1.28096e-06 0)
(2.22464e-05 -1.47402e-06 0)
(2.8343e-05 -1.63415e-06 0)
(3.4895e-05 -1.76358e-06 0)
(4.18203e-05 -1.86467e-06 0)
(4.90393e-05 -1.93978e-06 0)
(5.64758e-05 -1.99111e-06 0)
(6.40569e-05 -2.02073e-06 0)
(7.17139e-05 -2.03056e-06 0)
(7.93817e-05 -2.02232e-06 0)
(8.69994e-05 -1.99763e-06 0)
(9.45099e-05 -1.95794e-06 0)
(0.00010186 -1.9046e-06 0)
(0.000109 -1.83885e-06 0)
(0.000115883 -1.76183e-06 0)
(0.000122469 -1.67459e-06 0)
(0.000128717 -1.57813e-06 0)
(0.000134592 -1.47336e-06 0)
(0.000140061 -1.36114e-06 0)
(0.000145096 -1.2423e-06 0)
(0.000149669 -1.11758e-06 0)
(0.000153758 -9.87715e-07 0)
(0.000157342 -8.53406e-07 0)
(0.000160402 -7.15319e-07 0)
(0.000162925 -5.74096e-07 0)
(0.000164898 -4.30366e-07 0)
(0.00016631 -2.84742e-07 0)
(0.000167156 -1.37833e-07 0)
(0.00016743 9.76326e-09 0)
(0.000167131 1.57429e-07 0)
(0.00016626 3.04578e-07 0)
(0.00016482 4.50585e-07 0)
(0.000162818 5.94818e-07 0)
(0.000160262 7.36629e-07 0)
(0.000157165 8.75355e-07 0)
(0.00015354 1.0103e-06 0)
(0.000149407 1.14076e-06 0)
(0.000144784 1.26596e-06 0)
(0.000139697 1.38514e-06 0)
(0.000134171 1.49745e-06 0)
(0.000128237 1.60204e-06 0)
(0.000121928 1.69799e-06 0)
(0.000115281 1.78431e-06 0)
(0.000108336 1.85997e-06 0)
(0.000101136 1.92389e-06 0)
(9.37306e-05 1.97488e-06 0)
(8.61695e-05 2.01168e-06 0)
(7.85081e-05 2.03294e-06 0)
(7.08051e-05 2.03722e-06 0)
(6.31234e-05 2.02294e-06 0)
(5.55293e-05 1.9884e-06 0)
(4.8093e-05 1.93178e-06 0)
(4.08885e-05 1.85112e-06 0)
(3.39926e-05 1.74431e-06 0)
(2.74851e-05 1.6092e-06 0)
(2.1448e-05 1.44362e-06 0)
(1.59637e-05 1.2456e-06 0)
(1.11138e-05 1.01371e-06 0)
(6.97591e-06 7.4761e-07 0)
(3.6189e-06 4.49209e-07 0)
(1.09666e-06 1.24497e-07 0)
(-5.61381e-07 -2.13544e-07 0)
(-1.36713e-06 -5.40323e-07 0)
(-1.41195e-06 -8.06748e-07 0)
(-9.34111e-07 -9.00779e-07 0)
(-2.63091e-07 -5.8851e-07 0)
(-1.02198e-07 1.38367e-06 0)
(1.0133e-07 1.45586e-06 0)
(1.40398e-06 -1.91183e-07 0)
(4.21386e-06 -2.7893e-06 0)
(8.7948e-06 -5.85525e-06 0)
(1.52665e-05 -9.08397e-06 0)
(2.3645e-05 -1.22798e-05 0)
(3.38747e-05 -1.53183e-05 0)
(4.58496e-05 -1.81229e-05 0)
(5.943e-05 -2.06488e-05 0)
(7.44536e-05 -2.28723e-05 0)
(9.07447e-05 -2.47835e-05 0)
(0.00010812 -2.63818e-05 0)
(0.000126396 -2.76725e-05 0)
(0.000145385 -2.86647e-05 0)
(0.00016491 -2.93703e-05 0)
(0.000184792 -2.98023e-05 0)
(0.000204863 -2.99749e-05 0)
(0.000224962 -2.99026e-05 0)
(0.000244933 -2.96e-05 0)
(0.000264631 -2.90817e-05 0)
(0.000283919 -2.83621e-05 0)
(0.000302668 -2.74554e-05 0)
(0.000320757 -2.63753e-05 0)
(0.000338075 -2.51353e-05 0)
(0.000354517 -2.37483e-05 0)
(0.00036999 -2.22272e-05 0)
(0.000384405 -2.05842e-05 0)
(0.000397685 -1.88313e-05 0)
(0.000409757 -1.69802e-05 0)
(0.000420558 -1.50422e-05 0)
(0.000430032 -1.30284e-05 0)
(0.000438132 -1.09498e-05 0)
(0.000444815 -8.81711e-06 0)
(0.000450047 -6.64088e-06 0)
(0.000453804 -4.43161e-06 0)
(0.000456064 -2.19975e-06 0)
(0.000456816 4.42766e-08 0)
(0.000456055 2.29002e-06 0)
(0.000453783 4.52695e-06 0)
(0.00045001 6.74443e-06 0)
(0.000444753 8.9317e-06 0)
(0.000438036 1.10778e-05 0)
(0.000429891 1.31716e-05 0)
(0.000420358 1.52016e-05 0)
(0.000409485 1.71563e-05 0)
(0.000397327 1.90237e-05 0)
(0.000383949 2.07916e-05 0)
(0.000369421 2.24474e-05 0)
(0.000353825 2.39783e-05 0)
(0.00033725 2.53712e-05 0)
(0.000319793 2.66127e-05 0)
(0.000301561 2.76889e-05 0)
(0.00028267 2.85858e-05 0)
(0.000263243 2.92894e-05 0)
(0.000243414 2.97851e-05 0)
(0.000223325 3.00584e-05 0)
(0.000203125 3.0095e-05 0)
(0.000182973 2.98806e-05 0)
(0.000163034 2.94012e-05 0)
(0.000143483 2.86438e-05 0)
(0.000124496 2.75962e-05 0)
(0.000106257 2.62484e-05 0)
(8.89517e-05 2.45931e-05 0)
(7.27643e-05 2.2627e-05 0)
(5.78762e-05 2.03534e-05 0)
(4.44601e-05 1.77852e-05 0)
(3.2673e-05 1.49492e-05 0)
(2.26483e-05 1.18937e-05 0)
(1.44831e-05 8.69892e-06 0)
(8.223e-06 5.49268e-06 0)
(3.83982e-06 2.47326e-06 0)
(1.19972e-06 -5.34242e-08 0)
(2.2069e-08 -1.60723e-06 0)
(-1.10289e-07 -1.43092e-06 0)
(8.15818e-08 5.41928e-07 0)
(1.87001e-06 -2.13898e-06 0)
(5.90344e-06 -7.38059e-06 0)
(1.2454e-05 -1.41368e-05 0)
(2.16116e-05 -2.16739e-05 0)
(3.34093e-05 -2.94782e-05 0)
(4.78157e-05 -3.71883e-05 0)
(6.47354e-05 -4.45524e-05 0)
(8.40212e-05 -5.13995e-05 0)
(0.000105487 -5.76173e-05 0)
(0.000128919 -6.31362e-05 0)
(0.000154085 -6.79174e-05 0)
(0.000180738 -7.19444e-05 0)
(0.000208628 -7.52165e-05 0)
(0.000237501 -7.77447e-05 0)
(0.000267105 -7.95481e-05 0)
(0.000297194 -8.06515e-05 0)
(0.000327526 -8.10839e-05 0)
(0.000357871 -8.08766e-05 0)
(0.000388004 -8.0063e-05 0)
(0.000417713 -7.86773e-05 0)
(0.000446799 -7.67542e-05 0)
(0.00047507 -7.43285e-05 0)
(0.000502348 -7.14348e-05 0)
(0.000528467 -6.81075e-05 0)
(0.000553272 -6.43802e-05 0)
(0.00057662 -6.02862e-05 0)
(0.000598381 -5.58581e-05 0)
(0.000618435 -5.11277e-05 0)
(0.000636673 -4.61265e-05 0)
(0.000653001 -4.08852e-05 0)
(0.000667331 -3.54341e-05 0)
(0.000679591 -2.98031e-05 0)
(0.000689717 -2.40215e-05 0)
(0.000697658 -1.81188e-05 0)
(0.000703372 -1.21237e-05 0)
(0.00070683 -6.06538e-06 0)
(0.000708013 2.73201e-08 0)
(0.000706913 6.12533e-06 0)
(0.000703532 1.21994e-05 0)
(0.000697885 1.82201e-05 0)
(0.000689998 2.41574e-05 0)
(0.000679907 2.99812e-05 0)
(0.000667661 3.56606e-05 0)
(0.000653321 4.11644e-05 0)
(0.000636957 4.64605e-05 0)
(0.000618655 5.15165e-05 0)
(0.00059851 5.62992e-05 0)
(0.000576632 6.0775e-05 0)
(0.000553141 6.49094e-05 0)
(0.000528171 6.86676e-05 0)
(0.000501869 7.20142e-05 0)
(0.000474394 7.49136e-05 0)
(0.000445917 7.73299e-05 0)
(0.000416622 7.92271e-05 0)
(0.000386706 8.05698e-05 0)
(0.000356377 8.13228e-05 0)
(0.000325853 8.14521e-05 0)
(0.000295364 8.09255e-05 0)
(0.000265147 7.97129e-05 0)
(0.00023545 7.77878e-05 0)
(0.000206524 7.51283e-05 0)
(0.000178625 7.17191e-05 0)
(0.000152007 6.75538e-05 0)
(0.000126923 6.26382e-05 0)
(0.000103618 5.6995e-05 0)
(8.23203e-05 5.06698e-05 0)
(6.32393e-05 4.37393e-05 0)
(4.65528e-05 3.63237e-05 0)
(3.23978e-05 2.86015e-05 0)
(2.08571e-05 2.08321e-05 0)
(1.19473e-05 1.33831e-05 0)
(5.61706e-06 6.77243e-06 0)
(1.75475e-06 1.73435e-06 0)
(6.9739e-08 -6.90483e-07 0)
(2.50865e-07 -2.13025e-06 0)
(3.67233e-06 -1.04086e-05 0)
(1.05634e-05 -2.14747e-05 0)
(2.10248e-05 -3.42034e-05 0)
(3.49137e-05 -4.77473e-05 0)
(5.21161e-05 -6.14713e-05 0)
(7.25043e-05 -7.48996e-05 0)
(9.59094e-05 -8.76807e-05 0)
(0.000122124 -9.95614e-05 0)
(0.000150907 -0.000110365 0)
(0.000181997 -0.000119973 0)
(0.000215113 -0.000128315 0)
(0.00024996 -0.000135351 0)
(0.000286239 -0.000141072 0)
(0.000323647 -0.000145486 0)
(0.000361882 -0.000148617 0)
(0.000400647 -0.000150502 0)
(0.00043965 -0.000151183 0)
(0.000478609 -0.000150712 0)
(0.000517251 -0.000149141 0)
(0.000555318 -0.000146529 0)
(0.000592559 -0.000142935 0)
(0.00062874 -0.000138418 0)
(0.00066364 -0.000133039 0)
(0.00069705 -0.000126859 0)
(0.000728777 -0.000119938 0)
(0.000758642 -0.000112336 0)
(0.000786479 -0.000104112 0)
(0.000812138 -9.53231e-05 0)
(0.000835482 -8.60282e-05 0)
(0.000856389 -7.62835e-05 0)
(0.000874749 -6.61451e-05 0)
(0.000890469 -5.56682e-05 0)
(0.000903468 -4.4908e-05 0)
(0.00091368 -3.39188e-05 0)
(0.00092105 -2.2755e-05 0)
(0.000925542 -1.14709e-05 0)
(0.000927129 -1.20835e-07 0)
(0.0009258 1.12407e-05 0)
(0.00092156 2.25588e-05 0)
(0.000914424 3.37781e-05 0)
(0.000904425 4.48424e-05 0)
(0.000891609 5.5695e-05 0)
(0.000876037 6.62783e-05 0)
(0.000857785 7.65338e-05 0)
(0.000836943 8.6402e-05 0)
(0.000813617 9.58225e-05 0)
(0.000787929 0.000104734 0)
(0.000760015 0.000113075 0)
(0.000730028 0.000120781 0)
(0.000698137 0.000127789 0)
(0.000664524 0.000134036 0)
(0.000629389 0.000139457 0)
(0.000592946 0.000143989 0)
(0.000555425 0.000147567 0)
(0.000517069 0.000150131 0)
(0.000478135 0.00015162 0)
(0.000438893 0.000151977 0)
(0.000399626 0.000151149 0)
(0.000360623 0.000149089 0)
(0.000322185 0.000145757 0)
(0.000284616 0.000141123 0)
(0.000248225 0.000135168 0)
(0.000213319 0.000127891 0)
(0.000180201 0.000119313 0)
(0.000149165 0.000109481 0)
(0.000120489 9.84794e-05 0)
(9.44329e-05 8.64381e-05 0)
(7.12279e-05 7.35468e-05 0)
(5.10718e-05 6.0072e-05 0)
(3.41195e-05 4.63781e-05 0)
(2.04821e-05 3.2953e-05 0)
(1.02522e-05 2.04422e-05 0)
(3.54505e-06 9.70067e-06 0)
(2.374e-07 1.85712e-06 0)
(3.92699e-07 -6.52777e-06 0)
(5.30623e-06 -2.31946e-05 0)
(1.48765e-05 -4.23226e-05 0)
(2.90522e-05 -6.28213e-05 0)
(4.74612e-05 -8.38279e-05 0)
(6.9828e-05 -0.000104665 0)
(9.59074e-05 -0.000124801 0)
(0.000125437 -0.000143829 0)
(0.000158132 -0.000161443 0)
(0.000193687 -0.000177422 0)
(0.000231785 -0.000191611 0)
(0.000272095 -0.000203913 0)
(0.00031428 -0.000214272 0)
(0.000357996 -0.000222669 0)
(0.000402901 -0.000229111 0)
(0.000448653 -0.000233629 0)
(0.000494918 -0.000236269 0)
(0.000541366 -0.00023709 0)
(0.000587679 -0.000236162 0)
(0.00063355 -0.000233562 0)
(0.000678682 -0.000229371 0)
(0.000722794 -0.000223676 0)
(0.000765617 -0.000216564 0)
(0.0008069 -0.000208125 0)
(0.000846403 -0.000198449 0)
(0.000883907 -0.000187627 0)
(0.000919203 -0.00017575 0)
(0.000952102 -0.000162906 0)
(0.00098243 -0.000149184 0)
(0.00101003 -0.000134673 0)
(0.00103476 -0.00011946 0)
(0.00105648 -0.000103631 0)
(0.0010751 -8.72711e-05 0)
(0.00109052 -7.04666e-05 0)
(0.00110266 -5.33018e-05 0)
(0.00111145 -3.58613e-05 0)
(0.00111686 -1.82298e-05 0)
(0.00111884 -4.91929e-07 0)
(0.00111739 1.72669e-05 0)
(0.00111251 3.4961e-05 0)
(0.00110421 5.25036e-05 0)
(0.00109254 6.98071e-05 0)
(0.00107754 8.67829e-05 0)
(0.00105928 0.000103341 0)
(0.00103786 0.00011939 0)
(0.00101337 0.000134838 0)
(0.000985931 0.000149592 0)
(0.00095569 0.000163555 0)
(0.000922803 0.000176632 0)
(0.000887443 0.000188727 0)
(0.000849804 0.000199741 0)
(0.000810097 0.000209578 0)
(0.000768551 0.00021814 0)
(0.000725411 0.000225332 0)
(0.00068094 0.000231058 0)
(0.000635416 0.000235228 0)
(0.000589134 0.000237753 0)
(0.000542402 0.000238551 0)
(0.000495539 0.000237547 0)
(0.000448877 0.000234674 0)
(0.000402757 0.00022988 0)
(0.000357525 0.000223123 0)
(0.000313533 0.000214386 0)
(0.000271131 0.00020367 0)
(0.000230667 0.000191009 0)
(0.000192484 0.000176473 0)
(0.000156911 0.000160179 0)
(0.000124265 0.000142297 0)
(9.48432e-05 0.00012307 0)
(6.89216e-05 0.000102822 0)
(4.67485e-05 8.19823e-05 0)
(2.85514e-05 6.11006e-05 0)
(1.45825e-05 4.08733e-05 0)
(5.18322e-06 2.218e-05 0)
(3.79219e-07 6.12622e-06 0)
(5.10553e-07 -1.2433e-05 0)
(6.73361e-06 -4.00389e-05 0)
(1.8707e-05 -6.93498e-05 0)
(3.62576e-05 -9.93602e-05 0)
(5.88115e-05 -0.000129247 0)
(8.594e-05 -0.000158344 0)
(0.000117278 -0.000186112 0)
(0.000152464 -0.000212126 0)
(0.000191125 -0.00023606 0)
(0.000232888 -0.000257672 0)
(0.000277372 -0.000276791 0)
(0.000324194 -0.000293305 0)
(0.000372971 -0.000307154 0)
(0.00042332 -0.000318315 0)
(0.000474861 -0.000326802 0)
(0.00052722 -0.000332653 0)
(0.00058003 -0.000335929 0)
(0.000632934 -0.000336708 0)
(0.000685586 -0.00033508 0)
(0.000737652 -0.000331147 0)
(0.00078881 -0.000325017 0)
(0.000838756 -0.000316805 0)
(0.000887198 -0.00030663 0)
(0.000933863 -0.000294612 0)
(0.000978492 -0.000280873 0)
(0.00102084 -0.000265537 0)
(0.00106069 -0.000248727 0)
(0.00109783 -0.000230566 0)
(0.00113207 -0.000211176 0)
(0.00116323 -0.000190679 0)
(0.00119116 -0.000169195 0)
(0.00121573 -0.000146844 0)
(0.0012368 -0.000123746 0)
(0.00125427 -0.000100019 0)
(0.00126807 -7.57814e-05 0)
(0.00127811 -5.11516e-05 0)
(0.00128434 -2.6248e-05 0)
(0.00128673 -1.18967e-06 0)
(0.00128526 2.39039e-05 0)
(0.00127993 4.89121e-05 0)
(0.00127077 7.37132e-05 0)
(0.00125779 9.81842e-05 0)
(0.00124107 0.0001222 0)
(0.00122068 0.000145636 0)
(0.0011967 0.000168362 0)
(0.00116926 0.00019025 0)
(0.00113847 0.000211168 0)
(0.0011045 0.000230984 0)
(0.00106751 0.000249564 0)
(0.0010277 0.000266773 0)
(0.000985271 0.000282476 0)
(0.000940456 0.000296538 0)
(0.000893505 0.000308825 0)
(0.000844685 0.000319206 0)
(0.000794285 0.000327552 0)
(0.000742607 0.000333738 0)
(0.000689973 0.000337646 0)
(0.00063672 0.000339165 0)
(0.000583199 0.000338196 0)
(0.000529773 0.000334651 0)
(0.000476817 0.000328459 0)
(0.000424713 0.000319569 0)
(0.000373851 0.000307955 0)
(0.000324623 0.00029362 0)
(0.000277422 0.000276605 0)
(0.00023264 0.00025699 0)
(0.000190664 0.000234912 0)
(0.000151874 0.000210568 0)
(0.000116642 0.000184225 0)
(8.53312e-05 0.00015624 0)
(5.82904e-05 0.000127066 0)
(3.5867e-05 9.72707e-05 0)
(1.84653e-05 6.75499e-05 0)
(6.62748e-06 3.87537e-05 0)
(4.97946e-07 1.19134e-05 0)
(6.09313e-07 -1.96379e-05 0)
(7.97005e-06 -6.04496e-05 0)
(2.20625e-05 -0.000101881 0)
(4.26188e-05 -0.000143028 0)
(6.88929e-05 -0.000183135 0)
(0.00010032 -0.000221578 0)
(0.000136422 -0.000257844 0)
(0.000176739 -0.000291522 0)
(0.000220813 -0.000322292 0)
(0.000268196 -0.000349916 0)
(0.000318444 -0.000374226 0)
(0.000371119 -0.000395115 0)
(0.000425792 -0.000412528 0)
(0.00048204 -0.000426454 0)
(0.000539449 -0.000436917 0)
(0.000597613 -0.000443974 0)
(0.00065614 -0.000447704 0)
(0.000714648 -0.000448208 0)
(0.000772769 -0.000445602 0)
(0.000830151 -0.000440015 0)
(0.000886456 -0.000431585 0)
(0.00094136 -0.000420458 0)
(0.000994559 -0.000406783 0)
(0.00104576 -0.000390716 0)
(0.0010947 -0.000372413 0)
(0.00114112 -0.00035203 0)
(0.00118479 -0.000329727 0)
(0.00122548 -0.000305661 0)
(0.00126299 -0.000279989 0)
(0.00129715 -0.000252869 0)
(0.00132778 -0.000224455 0)
(0.00135474 -0.000194904 0)
(0.0013779 -0.000164369 0)
(0.00139714 -0.000133005 0)
(0.00141237 -0.000100965 0)
(0.00142353 -6.84047e-05 0)
(0.00143054 -3.5477e-05 0)
(0.00143336 -2.33773e-06 0)
(0.00143199 3.0857e-05 0)
(0.0014264 6.39495e-05 0)
(0.00141663 9.67806e-05 0)
(0.0014027 0.000129189 0)
(0.00138467 0.000161012 0)
(0.00136262 0.000192083 0)
(0.00133663 0.000222236 0)
(0.00130684 0.0002513 0)
(0.00127336 0.000279104 0)
(0.00123636 0.000305475 0)
(0.00119602 0.000330237 0)
(0.00115253 0.000353214 0)
(0.00110612 0.000374231 0)
(0.00105703 0.000393112 0)
(0.00100552 0.000409684 0)
(0.000951874 0.000423775 0)
(0.000896396 0.000435218 0)
(0.00083941 0.000443854 0)
(0.000781256 0.00044953 0)
(0.000722294 0.000452103 0)
(0.000662901 0.000451444 0)
(0.000603467 0.000447442 0)
(0.000544396 0.000440002 0)
(0.000486105 0.000429058 0)
(0.00042902 0.000414568 0)
(0.000373574 0.000396528 0)
(0.000320207 0.000374974 0)
(0.000269362 0.000349988 0)
(0.000221488 0.000321708 0)
(0.000177031 0.000290337 0)
(0.000136443 0.00025615 0)
(0.000100174 0.000219505 0)
(6.86745e-05 0.000180852 0)
(4.24052e-05 0.000140746 0)
(2.19066e-05 9.98514e-05 0)
(7.89215e-06 5.89625e-05 0)
(5.98278e-07 1.90216e-05 0)
(6.93555e-07 -2.79654e-05 0)
(9.04413e-06 -8.39774e-05 0)
(2.4996e-05 -0.000139265 0)
(4.82051e-05 -0.000193026 0)
(7.77794e-05 -0.000244587 0)
(0.000113034 -0.000293382 0)
(0.000153389 -0.000338947 0)
(0.000198292 -0.000380907 0)
(0.000247204 -0.000418973 0)
(0.000299603 -0.000452932 0)
(0.000354983 -0.000482638 0)
(0.000412853 -0.000508004 0)
(0.000472738 -0.000528999 0)
(0.000534175 -0.000545631 0)
(0.000596717 -0.000557951 0)
(0.000659932 -0.000566039 0)
(0.000723403 -0.000570003 0)
(0.00078673 -0.000569972 0)
(0.000849528 -0.000566092 0)
(0.00091143 -0.000558523 0)
(0.000972086 -0.000547439 0)
(0.00103116 -0.000533016 0)
(0.00108835 -0.000515441 0)
(0.00114335 -0.000494903 0)
(0.00119588 -0.000471594 0)
(0.00124568 -0.000445707 0)
(0.00129251 -0.000417436 0)
(0.00133615 -0.000386975 0)
(0.00137639 -0.000354516 0)
(0.00141304 -0.000320253 0)
(0.00144594 -0.000284377 0)
(0.00147492 -0.000247079 0)
(0.00149986 -0.000208549 0)
(0.00152063 -0.000168978 0)
(0.00153714 -0.000128555 0)
(0.00154931 -8.74714e-05 0)
(0.00155708 -4.5918e-05 0)
(0.00156039 -4.08715e-06 0)
(0.00155922 3.78272e-05 0)
(0.00155357 7.96294e-05 0)
(0.00154345 0.000121121 0)
(0.00152889 0.000162102 0)
(0.00150994 0.000202368 0)
(0.00148667 0.000241714 0)
(0.00145918 0.000279931 0)
(0.00142758 0.000316806 0)
(0.00139201 0.000352125 0)
(0.00135262 0.000385671 0)
(0.00130959 0.000417226 0)
(0.00126314 0.000446571 0)
(0.00121347 0.000473484 0)
(0.00116084 0.000497748 0)
(0.00110552 0.000519144 0)
(0.00104781 0.000537461 0)
(0.000988007 0.000552488 0)
(0.000926461 0.000564026 0)
(0.000863525 0.000571883 0)
(0.000799578 0.000575882 0)
(0.000735016 0.000575857 0)
(0.000670255 0.000571666 0)
(0.000605726 0.000563187 0)
(0.000541878 0.000550327 0)
(0.000479172 0.000533022 0)
(0.000418085 0.00051125 0)
(0.000359102 0.000485029 0)
(0.000302723 0.000454429 0)
(0.000249453 0.000419575 0)
(0.000199812 0.000380657 0)
(0.000154328 0.000337937 0)
(0.000113538 0.000291756 0)
(7.79884e-05 0.000242541 0)
(4.82424e-05 0.000190811 0)
(2.49618e-05 0.000137184 0)
(9.00624e-06 8.23912e-05 0)
(6.84645e-07 2.72841e-05 0)
(7.66931e-07 -3.72699e-05 0)
(9.98336e-06 -0.000110233 0)
(2.75655e-05 -0.000180912 0)
(5.31051e-05 -0.000248606 0)
(8.55824e-05 -0.000312725 0)
(0.000124207 -0.000372777 0)
(0.000168307 -0.000428359 0)
(0.000217246 -0.000479151 0)
(0.000270408 -0.000524913 0)
(0.000327204 -0.000565473 0)
(0.000387068 -0.000600726 0)
(0.000449458 -0.000630625 0)
(0.000513856 -0.000655172 0)
(0.000579762 -0.000674413 0)
(0.000646699 -0.000688433 0)
(0.000714211 -0.000697348 0)
(0.000781862 -0.000701302 0)
(0.000849235 -0.00070046 0)
(0.000915935 -0.000695005 0)
(0.000981585 -0.000685134 0)
(0.00104583 -0.000671056 0)
(0.00110833 -0.000652987 0)
(0.00116877 -0.00063115 0)
(0.00122685 -0.000605771 0)
(0.00128229 -0.000577078 0)
(0.00133483 -0.000545302 0)
(0.00138424 -0.000510673 0)
(0.00143027 -0.00047342 0)
(0.00147273 -0.000433773 0)
(0.00151143 -0.00039196 0)
(0.00154619 -0.000348207 0)
(0.00157687 -0.000302742 0)
(0.00160332 -0.000255789 0)
(0.00162542 -0.000207575 0)
(0.00164307 -0.000158324 0)
(0.00165619 -0.000108264 0)
(0.00166471 -5.76214e-05 0)
(0.00166858 -6.62571e-06 0)
(0.00166776 4.44918e-05 0)
(0.00166225 9.54971e-05 0)
(0.00165205 0.000146153 0)
(0.00163718 0.00019622 0)
(0.0016177 0.000245453 0)
(0.00159365 0.000293605 0)
(0.00156515 0.000340423 0)
(0.00153228 0.000385654 0)
(0.00149519 0.000429037 0)
(0.00145402 0.000470311 0)
(0.00140895 0.000509212 0)
(0.00136019 0.000545474 0)
(0.00130796 0.000578829 0)
(0.00125249 0.000609014 0)
(0.00119408 0.000635762 0)
(0.00113301 0.000658815 0)
(0.0010696 0.000677919 0)
(0.00100421 0.000692827 0)
(0.00093719 0.000703304 0)
(0.000868945 0.00070913 0)
(0.000799885 0.0007101 0)
(0.000730449 0.00070603 0)
(0.000661093 0.000696764 0)
(0.000592297 0.000682173 0)
(0.000524559 0.000662161 0)
(0.000458394 0.000636674 0)
(0.000394338 0.000605703 0)
(0.000332941 0.000569289 0)
(0.000274774 0.000527531 0)
(0.000220421 0.00048059 0)
(0.000170486 0.0004287 0)
(0.000125592 0.000372166 0)
(8.63708e-05 0.000311379 0)
(5.34828e-05 0.000246812 0)
(2.76966e-05 0.000179028 0)
(9.99955e-06 0.000108689 0)
(7.60755e-07 3.65678e-05 0)
(8.3208e-07 -4.74319e-05 0)
(1.08093e-05 -0.000138879 0)
(2.98188e-05 -0.000226296 0)
(5.73933e-05 -0.000309077 0)
(9.2399e-05 -0.000386719 0)
(0.00013395 -0.000458811 0)
(0.000181291 -0.000525025 0)
(0.00023371 -0.00058511 0)
(0.000290521 -0.000638889 0)
(0.000351071 -0.000686251 0)
(0.000414741 -0.000727146 0)
(0.000480943 -0.00076158 0)
(0.000549117 -0.000789606 0)
(0.000618735 -0.000811319 0)
(0.000689292 -0.000826852 0)
(0.000760313 -0.000836367 0)
(0.000831346 -0.000840053 0)
(0.000901964 -0.000838119 0)
(0.000971764 -0.000830792 0)
(0.00104037 -0.000818312 0)
(0.00110742 -0.000800928 0)
(0.00117257 -0.000778898 0)
(0.00123553 -0.000752484 0)
(0.00129598 -0.000721951 0)
(0.00135366 -0.000687566 0)
(0.0014083 -0.000649596 0)
(0.00145967 -0.000608307 0)
(0.00150756 -0.000563965 0)
(0.00155175 -0.000516834 0)
(0.00159206 -0.000467177 0)
(0.00162832 -0.000415254 0)
(0.00166037 -0.000361326 0)
(0.00168809 -0.000305652 0)
(0.00171134 -0.000248491 0)
(0.00173003 -0.000190103 0)
(0.00174406 -0.000130747 0)
(0.00175336 -7.06874e-05 0)
(0.00175788 -1.01869e-05 0)
(0.00175758 5.04867e-05 0)
(0.00175243 0.000111062 0)
(0.00174244 0.000171265 0)
(0.00172762 0.000230815 0)
(0.001708 0.000289429 0)
(0.00168365 0.000346816 0)
(0.00165463 0.000402683 0)
(0.00162105 0.00045673 0)
(0.00158303 0.000508652 0)
(0.00154071 0.000558142 0)
(0.00149426 0.000604888 0)
(0.00144387 0.000648575 0)
(0.00138976 0.000688886 0)
(0.00133217 0.000725507 0)
(0.00127138 0.000758122 0)
(0.00120768 0.000786421 0)
(0.00114139 0.000810098 0)
(0.00107286 0.000828858 0)
(0.00100246 0.000842415 0)
(0.000930612 0.000850499 0)
(0.000857732 0.000852856 0)
(0.000784278 0.000849257 0)
(0.000710734 0.000839497 0)
(0.000637606 0.000823402 0)
(0.000565426 0.000800834 0)
(0.000494751 0.000771697 0)
(0.000426163 0.000735939 0)
(0.000360265 0.000693561 0)
(0.000297686 0.000644619 0)
(0.000239079 0.000589236 0)
(0.000185119 0.000527599 0)
(0.000136507 0.00045997 0)
(9.39607e-05 0.00038669 0)
(5.82263e-05 0.000308178 0)
(3.01711e-05 0.000224939 0)
(1.08979e-05 0.000137569 0)
(8.29516e-07 4.6768e-05 0)
(8.90746e-07 -5.83502e-05 0)
(1.15359e-05 -0.000169622 0)
(3.17863e-05 -0.000274937 0)
(6.11164e-05 -0.000373788 0)
(9.8287e-05 -0.000465764 0)
(0.000142324 -0.000550543 0)
(0.000192396 -0.000627881 0)
(0.00024772 -0.000697612 0)
(0.000307548 -0.000759634 0)
(0.00037117 -0.000813913 0)
(0.000437921 -0.00086047 0)
(0.00050717 -0.000899379 0)
(0.000578326 -0.000930758 0)
(0.000650832 -0.000954765 0)
(0.000724166 -0.000971591 0)
(0.000797837 -0.000981457 0)
(0.000871385 -0.000984605 0)
(0.000944378 -0.000981299 0)
(0.00101641 -0.000971815 0)
(0.00108711 -0.00095644 0)
(0.00115613 -0.000935472 0)
(0.00122313 -0.000909211 0)
(0.0012878 -0.000877962 0)
(0.00134987 -0.000842031 0)
(0.00140906 -0.000801723 0)
(0.00146514 -0.000757342 0)
(0.00151787 -0.000709191 0)
(0.00156703 -0.000657569 0)
(0.00161245 -0.000602774 0)
(0.00165392 -0.0005451 0)
(0.0016913 -0.000484841 0)
(0.00172443 -0.000422288 0)
(0.00175318 -0.000357731 0)
(0.00177742 -0.000291459 0)
(0.00179704 -0.000223763 0)
(0.00181197 -0.000154934 0)
(0.00182211 -8.52671e-05 0)
(0.00182741 -1.50585e-05 0)
(0.00182781 5.53907e-05 0)
(0.00182329 0.000125775 0)
(0.00181384 0.000195783 0)
(0.00179946 0.000265098 0)
(0.00178016 0.000333396 0)
(0.00175599 0.000400348 0)
(0.00172702 0.000465616 0)
(0.00169333 0.000528858 0)
(0.00165502 0.000589722 0)
(0.00161222 0.000647853 0)
(0.00156508 0.00070289 0)
(0.0015138 0.000754467 0)
(0.00145856 0.000802216 0)
(0.00139961 0.000845768 0)
(0.00133721 0.000884753 0)
(0.00127164 0.000918805 0)
(0.00120323 0.000947563 0)
(0.00113233 0.000970673 0)
(0.00105931 0.000987793 0)
(0.000984582 0.000998594 0)
(0.000908596 0.00100277 0)
(0.00083182 0.00100003 0)
(0.000754757 0.000990111 0)
(0.00067794 0.00097279 0)
(0.000601936 0.00094787 0)
(0.000527338 0.000915201 0)
(0.000454772 0.000874676 0)
(0.000384894 0.000826243 0)
(0.00031839 0.000769904 0)
(0.000255976 0.000705727 0)
(0.000198398 0.000633846 0)
(0.000146432 0.000554465 0)
(0.000100875 0.000467867 0)
(6.25555e-05 0.000374413 0)
(3.24341e-05 0.000274546 0)
(1.17218e-05 0.000168799 0)
(8.93174e-07 5.78039e-05 0)
(9.43891e-07 -6.99341e-05 0)
(1.21694e-05 -0.000202183 0)
(3.34791e-05 -0.000326376 0)
(6.42866e-05 -0.000442103 0)
(0.000103252 -0.000549056 0)
(0.000149318 -0.00064701 0)
(0.000201583 -0.000735821 0)
(0.0002592 -0.000815417 0)
(0.000321363 -0.000885791 0)
(0.000387315 -0.000946998 0)
(0.000456347 -0.000999146 0)
(0.000527798 -0.00104239 0)
(0.000601049 -0.00107693 0)
(0.000675526 -0.001103 0)
(0.000750693 -0.00112086 0)
(0.000826053 -0.00113081 0)
(0.000901144 -0.00113314 0)
(0.000975539 -0.00112818 0)
(0.00104884 -0.00111627 0)
(0.00112068 -0.00109774 0)
(0.00119073 -0.00107295 0)
(0.00125865 -0.00104225 0)
(0.00132418 -0.00100597 0)
(0.00138703 -0.00096448 0)
(0.00144695 -0.00091811 0)
(0.00150373 -0.000867204 0)
(0.00155713 -0.0008121 0)
(0.00160697 -0.000753128 0)
(0.00165306 -0.000690618 0)
(0.00169523 -0.000624893 0)
(0.00173333 -0.000556274 0)
(0.00176722 -0.00048508 0)
(0.00179675 -0.000411627 0)
(0.00182181 -0.000336231 0)
(0.0018423 -0.00025921 0)
(0.00185812 -0.000180882 0)
(0.00186918 -0.000101569 0)
(0.00187542 -2.15962e-05 0)
(0.00187677 5.8705e-05 0)
(0.0018732 0.000138998 0)
(0.00186467 0.000218939 0)
(0.00185117 0.000298175 0)
(0.00183271 0.000376346 0)
(0.00180931 0.000453084 0)
(0.00178101 0.000528011 0)
(0.00174787 0.000600738 0)
(0.00170999 0.000670869 0)
(0.00166747 0.000738002 0)
(0.00162044 0.000801723 0)
(0.00156907 0.000861614 0)
(0.00151353 0.000917251 0)
(0.00145406 0.000968209 0)
(0.0013909 0.00101406 0)
(0.00132432 0.00105437 0)
(0.00125464 0.00108873 0)
(0.0011822 0.0011167 0)
(0.00110738 0.0011379 0)
(0.00103059 0.00115191 0)
(0.000952281 0.00115838 0)
(0.000872941 0.00115693 0)
(0.000793089 0.00114725 0)
(0.000713281 0.00112904 0)
(0.000634113 0.00110204 0)
(0.000556215 0.00106602 0)
(0.000480256 0.00102082 0)
(0.000406939 0.000966321 0)
(0.000337007 0.000902454 0)
(0.000271236 0.00082922 0)
(0.000210441 0.000746687 0)
(0.000155469 0.000654996 0)
(0.000107195 0.000554363 0)
(6.65296e-05 0.000445083 0)
(3.45209e-05 0.000327535 0)
(1.24861e-05 0.000202188 0)
(9.53424e-07 6.96118e-05 0)
(9.91783e-07 -8.20956e-05 0)
(1.2708e-05 -0.000236289 0)
(3.48874e-05 -0.000380144 0)
(6.6878e-05 -0.000513362 0)
(0.000107242 -0.000635746 0)
(0.000154842 -0.000747186 0)
(0.000208711 -0.000847649 0)
(0.000267941 -0.000937174 0)
(0.000331679 -0.00101587 0)
(0.000399125 -0.00108388 0)
(0.000469537 -0.00114144 0)
(0.00054223 -0.00118878 0)
(0.000616568 -0.00122621 0)
(0.000691966 -0.00125405 0)
(0.000767887 -0.00127265 0)
(0.000843836 -0.00128236 0)
(0.000919358 -0.00128358 0)
(0.00099404 -0.00127669 0)
(0.0010675 -0.0012621 0)
(0.00113939 -0.00124021 0)
(0.0012094 -0.00121142 0)
(0.00127722 -0.00117612 0)
(0.0013426 -0.00113471 0)
(0.00140528 -0.00108759 0)
(0.00146505 -0.00103512 0)
(0.0015217 -0.000977698 0)
(0.00157502 -0.000915681 0)
(0.00162485 -0.000849432 0)
(0.00167101 -0.000779305 0)
(0.00171336 -0.000705649 0)
(0.00175174 -0.000628808 0)
(0.00178603 -0.000549124 0)
(0.0018161 -0.000466932 0)
(0.00184183 -0.000382572 0)
(0.00186311 -0.00029638 0)
(0.00187984 -0.000208698 0)
(0.00189194 -0.000119868 0)
(0.00189932 -3.024e-05 0)
(0.00190191 5.98301e-05 0)
(0.00189965 0.000149979 0)
(0.0018925 0.000239834 0)
(0.00188042 0.000329011 0)
(0.0018634 0.000417116 0)
(0.00184142 0.000503744 0)
(0.00181452 0.000588478 0)
(0.00178273 0.000670886 0)
(0.0017461 0.000750529 0)
(0.00170473 0.000826952 0)
(0.0016587 0.000899691 0)
(0.00160817 0.000968273 0)
(0.00155329 0.00103222 0)
(0.00149427 0.00109104 0)
(0.00143131 0.00114423 0)
(0.00136469 0.00119132 0)
(0.0012947 0.0012318 0)
(0.00122168 0.00126519 0)
(0.001146 0.00129101 0)
(0.00106806 0.00130878 0)
(0.000988313 0.00131806 0)
(0.000907261 0.00131841 0)
(0.000825434 0.00130943 0)
(0.00074341 0.00129074 0)
(0.000661808 0.001262 0)
(0.000581294 0.00122291 0)
(0.000502573 0.00117322 0)
(0.000426398 0.00111274 0)
(0.000353562 0.00104131 0)
(0.000284902 0.00095886 0)
(0.000221299 0.00086538 0)
(0.000163671 0.000760933 0)
(0.000112969 0.000645662 0)
(7.01833e-05 0.000519789 0)
(3.6453e-05 0.000383624 0)
(1.32002e-05 0.000237572 0)
(1.01132e-06 8.21404e-05 0)
(1.03404e-06 -9.47413e-05 0)
(1.3142e-05 -0.000271642 0)
(3.59803e-05 -0.000435733 0)
(6.88241e-05 -0.000586842 0)
(0.00011014 -0.0007249 0)
(0.000158714 -0.000849927 0)
(0.000213515 -0.000962023 0)
(0.000273583 -0.00106136 0)
(0.000338023 -0.00114816 0)
(0.000406001 -0.00122271 0)
(0.000476753 -0.00128536 0)
(0.000549577 -0.00133645 0)
(0.000623833 -0.00137641 0)
(0.000698936 -0.00140564 0)
(0.000774357 -0.0014246 0)
(0.000849616 -0.00143375 0)
(0.000924278 -0.00143355 0)
(0.000997951 -0.00142446 0)
(0.00107028 -0.00140697 0)
(0.00114096 -0.00138153 0)
(0.00120969 -0.00134861 0)
(0.00127621 -0.00130865 0)
(0.00134029 -0.0012621 0)
(0.00140173 -0.00120939 0)
(0.00146032 -0.00115093 0)
(0.00151588 -0.00108714 0)
(0.00156826 -0.0010184 0)
(0.0016173 -0.000945112 0)
(0.00166285 -0.000867642 0)
(0.00170478 -0.000786359 0)
(0.00174297 -0.000701624 0)
(0.00177728 -0.000613793 0)
(0.0018076 -0.000523218 0)
(0.00183383 -0.00043025 0)
(0.00185584 -0.000335241 0)
(0.00187353 -0.000238544 0)
(0.00188681 -0.00014052 0)
(0.00189559 -4.15331e-05 0)
(0.00189977 5.80411e-05 0)
(0.00189927 0.000157818 0)
(0.00189404 0.000257403 0)
(0.00188401 0.000356384 0)
(0.00186913 0.000454338 0)
(0.00184937 0.000550828 0)
(0.00182472 0.000645398 0)
(0.00179518 0.000737577 0)
(0.00176078 0.000826879 0)
(0.00172156 0.000912803 0)
(0.0016776 0.000994831 0)
(0.00162899 0.00107243 0)
(0.00157587 0.00114507 0)
(0.00151841 0.00121218 0)
(0.00145679 0.00127321 0)
(0.00139126 0.00132758 0)
(0.00132208 0.00137475 0)
(0.00124958 0.00141412 0)
(0.00117411 0.00144515 0)
(0.00109607 0.00146728 0)
(0.0010159 0.00147996 0)
(0.000934117 0.00148269 0)
(0.000851246 0.00147495 0)
(0.000767884 0.00145629 0)
(0.000684674 0.00142627 0)
(0.000602309 0.00138449 0)
(0.000521532 0.00133062 0)
(0.000443138 0.00126435 0)
(0.000367971 0.00118545 0)
(0.000296928 0.00109375 0)
(0.000230953 0.000989153 0)
(0.000171035 0.000871635 0)
(0.000118202 0.000741251 0)
(7.35259e-05 0.000598145 0)
(3.82375e-05 0.000442551 0)
(1.38677e-05 0.000274803 0)
(1.0673e-06 9.53448e-05 0)
(1.06962e-06 -0.000107765 0)
(1.34536e-05 -0.000307907 0)