/*--------------------------------*- C++ -*----------------------------------*\
  =========                 |
  \\      /  F ield         | OpenFOAM: The Open Source CFD Toolbox
   \\    /   O peration     | Website:  https://openfoam.org
    \\  /    A nd           | Version:  12
     \\/     M anipulation  |
\*---------------------------------------------------------------------------*/
FoamFile
{
    format      ascii;
    class       volScalarField;
    location    "1.8";
    object      p;
}
// * * * * * * * * * * * * * * * * * * * * * * * * * * * * * * * * * * * * * //

dimensions      [0 2 -2 0 0 0 0];

internalField   nonuniform List<scalar> 
900
(
-6.65219e-09
6.46319e-05
0.000135843
0.00018005
0.000181579
0.000133609
3.37783e-05
-0.000117044
-0.000315606
-0.000557011
-0.000835387
-0.00114429
-0.00147702
-0.00182677
-0.00218674
-0.00255015
-0.00291021
-0.00326011
-0.00359302
-0.00390211
-0.00418064
-0.00442212
-0.00462065
-0.00477132
-0.00487088
-0.0049185
-0.00491656
-0.00487199
-0.00480054
-0.00473582
-0.00018711
-9.14704e-05
-6.93793e-06
3.30946e-05
2.54449e-05
-2.94864e-05
-0.000131294
-0.00027829
-0.000467278
-0.000693918
-0.000953143
-0.0012394
-0.00154688
-0.00186958
-0.00220144
-0.00253638
-0.00286827
-0.00319102
-0.00349854
-0.00378483
-0.00404404
-0.00427059
-0.0044594
-0.00460612
-0.00470757
-0.00476208
-0.00476927
-0.00472882
-0.00464393
-0.00454808
-0.000231144
-0.000102905
3.94987e-06
4.81161e-05
3.47312e-05
-2.92626e-05
-0.000140199
-0.000294751
-0.00048887
-0.000717915
-0.000976887
-0.00126055
-0.00156352
-0.00188033
-0.00220545
-0.00253335
-0.00285847
-0.00317527
-0.00347822
-0.00376181
-0.00402066
-0.00424948
-0.00444329
-0.00459742
-0.00470784
-0.00477122
-0.00478394
-0.00473909
-0.00463157
-0.00450282
-8.97029e-06
0.000134247
0.000248531
0.000286792
0.000258133
0.00017349
3.90977e-05
-0.00013999
-0.00035851
-0.00061105
-0.000892202
-0.00119662
-0.00151904
-0.00185426
-0.00219713
-0.00254255
-0.00288543
-0.00322066
-0.00354306
-0.00384742
-0.00412842
-0.00438069
-0.00459879
-0.00477729
-0.00491093
-0.00499466
-0.00502227
-0.00498284
-0.00486733
-0.00472308
0.000535045
0.000667723
0.00076162
0.000769521
0.000703077
0.000575868
0.000396272
0.000170999
-9.34504e-05
-0.000390836
-0.000715286
-0.00106132
-0.00142377
-0.00179776
-0.00217861
-0.00256176
-0.00294268
-0.00331678
-0.00367935
-0.00402544
-0.00434985
-0.00464703
-0.00491103
-0.00513558
-0.00531414
-0.00544
-0.0055048
-0.00549496
-0.00539893
-0.00526437
0.00145298
0.00154395
0.0015819
0.00152623
0.00139088
0.0011915
0.00093857
0.000640527
0.000305122
-6.06219e-05
-0.000450478
-0.00085898
-0.00128131
-0.00171316
-0.00215062
-0.00258999
-0.00302764
-0.00345985
-0.00388263
-0.00429157
-0.00468176
-0.00504758
-0.0053827
-0.00567999
-0.00593161
-0.00612909
-0.00626195
-0.00631453
-0.00627298
-0.00617874
0.00280119
0.00280946
0.00274447
0.00258129
0.00233631
0.0020269
0.00166584
0.00126349
0.000828862
0.000369609
-0.000107965
-0.000598784
-0.00109883
-0.00160494
-0.00211453
-0.00262541
-0.00313546
-0.00364243
-0.00414362
-0.0046357
-0.00511444
-0.00557453
-0.00600945
-0.00641132
-0.00677096
-0.00707788
-0.00731926
-0.00747764
-0.00753671
-0.0075229
0.00464287
0.00451197
0.00428019
0.00395115
0.00354382
0.00307685
0.00256549
0.00202228
0.00145745
0.000878904
0.000292533
-0.000297645
-0.000889216
-0.00148102
-0.0020728
-0.00266483
-0.00325756
-0.00385116
-0.00444519
-0.00503819
-0.00562741
-0.00620842
-0.00677494
-0.0073186
-0.00782886
-0.00829292
-0.00869529
-0.00901712
-0.00923943
-0.00936117
0.00704356
0.00669472
0.00620893
0.00563653
0.0049991
0.0043155
0.00360365
0.00287835
0.00215063
0.00142823
0.000715697
1.49251e-05
-0.000674502
-0.0013548
-0.00202949
-0.00270284
-0.00337933
-0.00406307
-0.00475726
-0.00546367
-0.00618215
-0.00691013
-0.00764234
-0.00837037
-0.00908247
-0.00976329
-0.0103944
-0.0109564
-0.0114275
-0.0117616
0.0100602
0.00938481
0.00852672
0.00760903
0.0066553
0.00568277
0.00471181
0.00375935
0.00283678
0.00195039
0.0011021
0.000290022
-0.000490903
-0.00124827
-0.00199147
-0.00273091
-0.0034773
-0.00424082
-0.00503038
-0.00585287
-0.00671248
-0.00761003
-0.00854244
-0.00950217
-0.0104767
-0.0114479
-0.0123945
-0.0132979
-0.014134
-0.0147865
0.0137234
0.0125741
0.0111858
0.00979061
0.00841277
0.00706467
0.00576839
0.00454246
0.00339739
0.00233638
0.00135661
0.000450042
-0.000395684
-0.00119634
-0.00197012
-0.00273662
-0.00351577
-0.00432683
-0.0051873
-0.00611196
-0.00711184
-0.00819337
-0.00935755
-0.0105992
-0.0119057
-0.0132567
-0.014628
-0.0160049
-0.0173617
-0.0184769
0.0180096
0.01619
0.014065
0.0120244
0.0100905
0.00826598
0.00657293
0.00503032
0.00364577
0.00241679
0.00133273
0.000376015
-0.000476653
-0.0012531
-0.00198431
-0.00270314
-0.0034429
-0.00423598
-0.00511248
-0.00609887
-0.00721658
-0.0084809
-0.00989972
-0.0114724
-0.0131881
-0.0150245
-0.016956
-0.0189754
-0.0210576
-0.0228281
0.0228005
0.0200551
0.0169285
0.0140338
0.011387
0.00897306
0.00681157
0.00491961
0.00329877
0.00193701
0.000811504
-0.000109524
-0.000865268
-0.00150073
-0.00206503
-0.00260967
-0.00318678
-0.00384735
-0.00463944
-0.00560637
-0.006785
-0.00820399
-0.00988231
-0.0118274
-0.0140326
-0.0164754
-0.0191302
-0.0220044
-0.0250763
-0.0277547
0.0278253
0.0238284
0.0193687
0.0153674
0.0118271
0.00870443
0.00601137
0.00375951
0.0019397
0.000524801
-0.000526143
-0.00126537
-0.00175447
-0.00206232
-0.002263
-0.00243361
-0.00265215
-0.0029953
-0.00353612
-0.00434181
-0.00547134
-0.00697325
-0.00888348
-0.0112228
-0.0139929
-0.0171737
-0.0207433
-0.0247326
-0.0291287
-0.0330396
0.0325807
0.0269271
0.0207296
0.0153253
0.0106935
0.00674638
0.0034812
0.000898182
-0.00102945
-0.00235164
-0.00313545
-0.00346177
-0.0034229
-0.00311998
-0.00266058
-0.00215611
-0.00171926
-0.00146135
-0.00148959
-0.00190418
-0.00279536
-0.00424039
-0.00630067
-0.00901806
-0.0124089
-0.0164605
-0.02116
-0.0265755
-0.0327103
-0.0382632
0.0362233
0.0284214
0.0200057
0.0128637
0.0069367
0.00207047
-0.00176338
-0.00458486
-0.00644821
-0.0074366
-0.00765373
-0.00721953
-0.00626721
-0.00494044
-0.00339051
-0.0017735
-0.000247461
0.00103059
0.00190788
0.00223937
0.0018915
0.000746112
-0.00129562
-0.00430798
-0.00833197
-0.01337
-0.0194276
-0.0266285
-0.0350038
-0.042705
0.0374278
0.0268971
0.0157113
0.00647229
-0.000938076
-0.00676976
-0.0110932
-0.0139618
-0.015471
-0.0157514
-0.0149567
-0.0132587
-0.0108437
-0.00790962
-0.00466316
-0.00131688
0.00191359
0.00481259
0.00716794
0.00877495
0.00944097
0.00899042
0.00727016
0.00415684
-0.000430448
-0.00652224
-0.0141568
-0.0235402
-0.0347474
-0.0452094
0.0342034
0.0202794
0.00571416
-0.00598074
-0.0150118
-0.0217652
-0.0263772
-0.0289542
-0.0296525
-0.0286685
-0.026223
-0.022555
-0.0179176
-0.0125758
-0.00680356
-0.000882281
0.0049019
0.0102606
0.0149062
0.0185566
0.0209398
0.0218009
0.0209084
0.0180657
0.0131281
0.00601595
-0.00336504
-0.0153411
-0.0300549
-0.0440023
0.0236604
0.00560719
-0.0129767
-0.0274422
-0.0381245
-0.0456014
-0.0501108
-0.0518411
-0.0510374
-0.0479869
-0.0429989
-0.0363967
-0.0285147
-0.0196967
-0.0102952
-0.000670772
0.00880844
0.0177676
0.0258274
0.0326077
0.0377326
0.0408386
0.0415831
0.0396596
0.0348234
0.0269103
0.0157323
0.000787419
-0.0181696
-0.0364375
0.00171048
-0.0212569
-0.0444833
-0.0619186
-0.0740853
-0.0818314
-0.0855517
-0.0855626
-0.082238
-0.0759899
-0.067242
-0.056421
-0.0439552
-0.0302759
-0.0158196
-0.00103116
0.0136328
0.0277018
0.0406906
0.0521013
0.0614258
0.0681548
0.071789
0.0718593
0.0679633
0.0597936
0.0470051
0.0288355
0.00488126
-0.0186406
-0.0373345
-0.0660199
-0.0944242
-0.114792
-0.127925
-0.135062
-0.136845
-0.13379
-0.126462
-0.115443
-0.101303
-0.0845903
-0.0658344
-0.0455529
-0.0242608
-0.00248119
0.0192461
0.0403561
0.0602551
0.0783129
0.0938608
0.106202
0.114619
0.118403
0.116905
0.109576
0.0958026
0.0744259
0.0447887
0.0150098
-0.101351
-0.136537
-0.170442
-0.193251
-0.206204
-0.211134
-0.209085
-0.200895
-0.18741
-0.169447
-0.147758
-0.123024
-0.0958694
-0.066878
-0.0366187
-0.00567131
0.0253644
0.0558815
0.0852005
0.112536
0.13704
0.157797
0.173796
0.183982
0.187321
0.182858
0.169519
0.145507
0.109733
0.0726819
-0.201399
-0.243776
-0.283048
-0.306914
-0.317378
-0.317242
-0.308231
-0.291706
-0.268932
-0.241043
-0.209007
-0.173634
-0.135591
-0.0954893
-0.0539108
-0.0113941
0.0315162
0.074181
0.115868
0.155754
0.192838
0.225903
0.253561
0.274288
0.286467
0.28847
0.278419
0.253438
0.211639
0.166418
-0.353658
-0.403618
-0.447076
-0.468771
-0.472196
-0.461858
-0.440661
-0.410805
-0.374168
-0.33226
-0.286253
-0.237018
-0.185202
-0.131377
-0.0760407
-0.0195728
0.037697
0.0953377
0.15273
0.209022
0.263085
0.313499
0.358509
0.395984
0.423467
0.438205
0.43692
0.414814
0.3684
0.314562
-0.583784
-0.640598
-0.684333
-0.696542
-0.683886
-0.654043
-0.611903
-0.560895
-0.503713
-0.442169
-0.377559
-0.310901
-0.242761
-0.173265
-0.102335
-0.0299157
0.0439622
0.119158
0.195354
0.27197
0.348069
0.422223
0.492366
0.555716
0.608772
0.647288
0.665332
0.65457
0.608166
0.54674
-0.938128
-0.996574
-1.02899
-1.0148
-0.967752
-0.901337
-0.823563
-0.739252
-0.651981
-0.564121
-0.476725
-0.389908
-0.303412
-0.216733
-0.129233
-0.040237
0.0509087
0.144788
0.241828
0.342149
0.44541
0.550613
0.65584
0.757976
0.852482
0.933199
0.99106
1.01113
0.978299
0.915675
-1.50656
-1.54615
-1.53538
-1.45602
-1.33741
-1.20314
-1.06629
-0.932897
-0.805333
-0.68435
-0.569634
-0.460216
-0.35482
-0.2519
-0.149709
-0.04641
0.0598253
0.17077
0.288075
0.413178
0.54714
0.690396
0.84237
1.00094
1.16175
1.31708
1.45355
1.54582
1.56197
1.52145
-2.47199
-2.42335
-2.27717
-2.04661
-1.79144
-1.54529
-1.3193
-1.1164
-0.935916
-0.7754
-0.631872
-0.501874
-0.381731
-0.267866
-0.156849
-0.0453539
0.0699081
0.192265
0.325099
0.471896
0.636205
0.821457
1.03057
1.26524
1.52472
1.80366
2.08681
2.33814
2.49752
2.5525
-4.60255
-3.97447
-3.26134
-2.65572
-2.16289
-1.7589
-1.42857
-1.1592
-0.938807
-0.756739
-0.603672
-0.471833
-0.354726
-0.246838
-0.143339
-0.0398043
0.0681029
0.184971
0.315565
0.465437
0.641151
0.850529
1.10293
1.40927
1.78122
2.22974
2.76674
3.41073
4.15412
4.80485
-11.2873
-7.78817
-5.25641
-3.7217
-2.71403
-2.00235
-1.49235
-1.12591
-0.859267
-0.660868
-0.508923
-0.388244
-0.287913
-0.199777
-0.117492
-0.035851
0.0510121
0.148636
0.262799
0.401989
0.577546
0.805102
1.10705
1.5158
2.07661
2.84928
3.92713
5.5334
8.12542
11.6641
)
;

boundaryField
{
    movingWall
    {
        type            zeroGradient;
    }
    fixedWalls
    {
        type            zeroGradient;
    }
    frontAndBack
    {
        type            empty;
    }
}


// ************************************************************************* //
