/*--------------------------------*- C++ -*----------------------------------*\
  =========                 |
  \\      /  F ield         | OpenFOAM: The Open Source CFD Toolbox
   \\    /   O peration     | Website:  https://openfoam.org
    \\  /    A nd           | Version:  12
     \\/     M anipulation  |
\*---------------------------------------------------------------------------*/
FoamFile
{
    format      ascii;
    class       volVectorField;
    location    "1.2";
    object      U;
}
// * * * * * * * * * * * * * * * * * * * * * * * * * * * * * * * * * * * * * //

dimensions      [0 1 -1 0 0 0 0];

internalField   nonuniform List<vector> 
900
(
(9.44302e-05 -9.42752e-05 0)
(0.000188606 -5.76129e-05 0)
(-1.79838e-05 2.19877e-05 0)
(-0.000571501 9.73243e-05 0)
(-0.00144195 0.000156579 0)
(-0.00255841 0.000198256 0)
(-0.00383923 0.000222999 0)
(-0.00520297 0.000232351 0)
(-0.00657319 0.000228218 0)
(-0.00788092 0.00021256 0)
(-0.00906594 0.000187276 0)
(-0.0100775 0.000154179 0)
(-0.0108744 0.000114999 0)
(-0.0114254 7.14171e-05 0)
(-0.0117091 2.5109e-05 0)
(-0.0117144 -2.23222e-05 0)
(-0.01144 -6.91555e-05 0)
(-0.0108953 -0.00011366 0)
(-0.0101001 -0.000154013 0)
(-0.00908518 -0.000188316 0)
(-0.0078921 -0.000214594 0)
(-0.00657311 -0.00023082 0)
(-0.00519062 -0.000234947 0)
(-0.00381619 -0.000224981 0)
(-0.0025287 -0.000199116 0)
(-0.0014112 -0.000156057 0)
(-0.000545612 -9.55381e-05 0)
(-1.29826e-06 -1.95225e-05 0)
(0.000195509 5.96656e-05 0)
(9.50842e-05 9.4869e-05 0)
(6.21723e-05 -0.000192089 0)
(-0.000161896 0.000173619 0)
(-0.00110401 0.000811998 0)
(-0.00282751 0.0014557 0)
(-0.0052565 0.00199678 0)
(-0.00824213 0.00239339 0)
(-0.0116036 0.00263327 0)
(-0.0151513 0.00271931 0)
(-0.0187011 0.00266252 0)
(-0.0220825 0.00247815 0)
(-0.025144 0.00218375 0)
(-0.0277561 0.00179799 0)
(-0.0298132 0.00134017 0)
(-0.0312347 0.000829891 0)
(-0.031965 0.000287268 0)
(-0.0319756 -0.0002678 0)
(-0.031264 -0.00081459 0)
(-0.0298549 -0.00133217 0)
(-0.0278005 -0.00179924 0)
(-0.0251804 -0.00219437 0)
(-0.0221012 -0.00249633 0)
(-0.0186955 -0.00268475 0)
(-0.0151194 -0.00274101 0)
(-0.0115488 -0.00264965 0)
(-0.008173 -0.00240056 0)
(-0.00518506 -0.0019929 0)
(-0.00276641 -0.00144192 0)
(-0.00106286 -0.000792894 0)
(-0.000143047 -0.000156735 0)
(6.45169e-05 0.000198962 0)
(-1.18713e-05 -2.09328e-06 0)
(-0.000789179 0.00110683 0)
(-0.00264445 0.00264997 0)
(-0.00559064 0.00417483 0)
(-0.00948772 0.00546257 0)
(-0.0141297 0.00641135 0)
(-0.0192693 0.00698217 0)
(-0.0246431 0.00717318 0)
(-0.0299904 0.00700481 0)
(-0.0350671 0.00651086 0)
(-0.039654 0.0057331 0)
(-0.0435623 0.00471802 0)
(-0.0466372 0.00351487 0)
(-0.04876 0.00217464 0)
(-0.0498495 0.000749596 0)
(-0.0498634 -0.000707127 0)
(-0.0487986 -0.00214142 0)
(-0.046692 -0.00349835 0)
(-0.0436207 -0.00472254 0)
(-0.0397018 -0.00575889 0)
(-0.0350914 -0.00655373 0)
(-0.0299822 -0.00705675 0)
(-0.0245996 -0.00722372 0)
(-0.0191948 -0.00702038 0)
(-0.014035 -0.00642834 0)
(-0.00938881 -0.00545405 0)
(-0.00550454 -0.00414311 0)
(-0.00258485 -0.00260501 0)
(-0.000760718 -0.00106527 0)
(-8.1737e-06 2.11446e-05 0)
(-8.40225e-05 0.000532448 0)
(-0.00146271 0.00284263 0)
(-0.00428492 0.00561368 0)
(-0.0084717 0.00826892 0)
(-0.0137916 0.0104928 0)
(-0.0199769 0.0121218 0)
(-0.0267235 0.0130857 0)
(-0.0337095 0.0133756 0)
(-0.0406168 0.013022 0)
(-0.0471462 0.012081 0)
(-0.0530281 0.010625 0)
(-0.0580294 0.00873654 0)
(-0.0619587 0.00650449 0)
(-0.0646688 0.00402168 0)
(-0.0660593 0.00138375 0)
(-0.0660775 -0.00131168 0)
(-0.0647198 -0.0039653 0)
(-0.062032 -0.00647655 0)
(-0.0581098 -0.00874447 0)
(-0.053098 -0.0106693 0)
(-0.0471894 -0.0121547 0)
(-0.0406214 -0.0131116 0)
(-0.0336707 -0.0134634 0)
(-0.026645 -0.013153 0)
(-0.0198709 -0.0121532 0)
(-0.0136764 -0.0104804 0)
(-0.00836834 -0.0082159 0)
(-0.00421126 -0.005536 0)
(-0.00142638 -0.00276823 0)
(-7.9129e-05 -0.000496115 0)
(-0.00014658 0.00141121 0)
(-0.00211096 0.00538691 0)
(-0.00589562 0.0096931 0)
(-0.0113138 0.0136842 0)
(-0.0180248 0.0169762 0)
(-0.0256891 0.0193562 0)
(-0.0339443 0.0207287 0)
(-0.042416 0.0210802 0)
(-0.0507377 0.0204544 0)
(-0.0585667 0.0189338 0)
(-0.0655947 0.0166263 0)
(-0.0715558 0.0136567 0)
(-0.0762314 0.0101603 0)
(-0.0794536 0.00627909 0)
(-0.0811079 0.00215983 0)
(-0.081134 -0.00204746 0)
(-0.0795274 -0.00619017 0)
(-0.0763399 -0.010114 0)
(-0.0716802 -0.0136645 0)
(-0.0657128 -0.0166893 0)
(-0.0586572 -0.0190421 0)
(-0.0507841 -0.0205886 0)
(-0.0424097 -0.0212141 0)
(-0.0338867 -0.0208344 0)
(-0.0255919 -0.0194101 0)
(-0.0179082 -0.016965 0)
(-0.0112027 -0.0136108 0)
(-0.00581281 -0.00957951 0)
(-0.00206842 -0.00527402 0)
(-0.000140511 -0.0013536 0)
(-0.000201046 0.00261027 0)
(-0.0027208 0.0087128 0)
(-0.00744418 0.0148675 0)
(-0.0140741 0.0203955 0)
(-0.0221519 0.024871 0)
(-0.0312575 0.02805 0)
(-0.0409654 0.0298224 0)
(-0.0508487 0.0301786 0)
(-0.0604967 0.0291819 0)
(-0.0695298 0.0269464 0)
(-0.077609 0.0236214 0)
(-0.0844434 0.0193792 0)
(-0.0897948 0.0144068 0)
(-0.0934808 0.00890111 0)
(-0.0953764 0.0030653 0)
(-0.0954161 -0.00289274 0)
(-0.0935941 -0.00876163 0)
(-0.0899655 -0.0143278 0)
(-0.084647 -0.0193773 0)
(-0.0778165 -0.0236994 0)
(-0.0697123 -0.0270918 0)
(-0.0606299 -0.0293686 0)
(-0.0509172 -0.0303709 0)
(-0.0409657 -0.029981 0)
(-0.0311992 -0.0281405 0)
(-0.0220562 -0.0248727 0)
(-0.0139695 -0.0203088 0)
(-0.00735954 -0.0147196 0)
(-0.0026745 -0.00855872 0)
(-0.000193888 -0.00252829 0)
(-0.000249983 0.00410753 0)
(-0.0032996 0.0127905 0)
(-0.00893924 0.0211139 0)
(-0.0167638 0.0283847 0)
(-0.0261928 0.0341567 0)
(-0.0367189 0.0381728 0)
(-0.0478485 0.0403237 0)
(-0.0591001 0.040615 0)
(-0.0700204 0.0391388 0)
(-0.0801966 0.036049 0)
(-0.0892645 0.0315426 0)
(-0.0969144 0.0258448 0)
(-0.102894 0.0191993 0)
(-0.107012 0.0118619 0)
(-0.109137 0.00409582 0)
(-0.109198 -0.00382973 0)
(-0.107188 -0.0116413 0)
(-0.103164 -0.0190622 0)
(-0.0972451 -0.0258152 0)
(-0.0896176 -0.0316264 0)
(-0.0805318 -0.0362318 0)
(-0.0703019 -0.0393873 0)
(-0.0593018 -0.0408822 0)
(-0.0479585 -0.0405566 0)
(-0.0367421 -0.0383231 0)
(-0.0261496 -0.0341922 0)
(-0.0166865 -0.0283004 0)
(-0.0088639 -0.0209402 0)
(-0.0032535 -0.012597 0)
(-0.000241967 -0.00399955 0)
(-0.000296002 0.0058889 0)
(-0.00386163 0.0175997 0)
(-0.0104061 0.0284161 0)
(-0.019418 0.0376402 0)
(-0.0301928 0.0448216 0)
(-0.0421302 0.0497078 0)
(-0.0546641 0.0522065 0)
(-0.0672565 0.0523531 0)
(-0.0794115 0.0502806 0)
(-0.090686 0.0461926 0)
(-0.100696 0.0403412 0)
(-0.109117 0.0330108 0)
(-0.115689 0.024506 0)
(-0.120216 0.0151443 0)
(-0.122561 0.0052513 0)
(-0.122653 -0.00484112 0)
(-0.120482 -0.0147958 0)
(-0.116102 -0.0242714 0)
(-0.109634 -0.0329246 0)
(-0.101264 -0.0404144 0)
(-0.0912506 -0.0464097 0)
(-0.0799195 -0.0506013 0)
(-0.0676665 -0.0527171 0)
(-0.0549517 -0.052544 0)
(-0.0422915 -0.0499522 0)
(-0.0302453 -0.0449244 0)
(-0.019397 -0.0375861 0)
(-0.010356 -0.0282354 0)
(-0.00382167 -0.0173753 0)
(-0.000287563 -0.00575565 0)
(-0.000341458 0.00794912 0)
(-0.00442245 0.0231341 0)
(-0.0118748 0.0367713 0)
(-0.02208 0.0481616 0)
(-0.0342049 0.0568635 0)
(-0.0475517 0.0626464 0)
(-0.0614778 0.0654527 0)
(-0.0753866 0.0653647 0)
(-0.088741 0.0625705 0)
(-0.101071 0.0573351 0)
(-0.111976 0.049975 0)
(-0.121125 0.0408401 0)
(-0.128254 0.0302996 0)
(-0.133167 0.0187347 0)
(-0.135727 0.00653388 0)
(-0.135861 -0.00590848 0)
(-0.133556 -0.0181921 0)
(-0.128864 -0.0299109 0)
(-0.121898 -0.0406543 0)
(-0.112843 -0.0500113 0)
(-0.101956 -0.0575787 0)
(-0.0895702 -0.0629738 0)
(-0.0760972 -0.0658528 0)
(-0.062027 -0.0659351 0)
(-0.0479226 -0.0630325 0)
(-0.0344087 -0.0570822 0)
(-0.0221534 -0.0481806 0)
(-0.0118714 -0.0366153 0)
(-0.0043969 -0.0228963 0)
(-0.000333276 -0.00779481 0)
(-0.00038835 0.0102912 0)
(-0.00499673 0.0294021 0)
(-0.0133754 0.0461913 0)
(-0.0247925 0.0599597 0)
(-0.0382801 0.0702873 0)
(-0.0530368 0.076983 0)
(-0.0683399 0.080044 0)
(-0.0835338 0.0796183 0)
(-0.098042 0.0759666 0)
(-0.111372 0.0694289 0)
(-0.123114 0.0603963 0)
(-0.132936 0.0492905 0)
(-0.140578 0.036549 0)
(-0.145847 0.0226175 0)
(-0.148613 0.00794592 0)
(-0.148801 -0.00701103 0)
(-0.146396 -0.0217926 0)
(-0.141442 -0.0359299 0)
(-0.134043 -0.0489457 0)
(-0.124373 -0.0603574 0)
(-0.112682 -0.0696845 0)
(-0.0993011 -0.0764624 0)
(-0.0846523 -0.080263 0)
(-0.0692506 -0.0807221 0)
(-0.0537037 -0.0775738 0)
(-0.0387034 -0.0706886 0)
(-0.025008 -0.0601137 0)
(-0.013446 -0.0461086 0)
(-0.00499645 -0.0291807 0)
(-0.000381389 -0.0101248 0)
(-0.000438406 0.0129256 0)
(-0.00559791 0.0364262 0)
(-0.0149351 0.0567016 0)
(-0.0275945 0.073055 0)
(-0.0424619 0.085101 0)
(-0.0586252 0.0927085 0)
(-0.0752785 0.0959522 0)
(-0.0917077 0.0950684 0)
(-0.107302 0.0904102 0)
(-0.121552 0.0824082 0)
(-0.134048 0.0715397 0)
(-0.144465 0.0583047 0)
(-0.152557 0.0432116 0)
(-0.158141 0.0267698 0)
(-0.161095 0.00948772 0)
(-0.161349 -0.0081246 0)
(-0.158885 -0.0255509 0)
(-0.153733 -0.0422641 0)
(-0.145985 -0.0577229 0)
(-0.135796 -0.0713728 0)
(-0.123397 -0.0826519 0)
(-0.109109 -0.091005 0)
(-0.0933539 -0.0959058 0)
(-0.0766639 -0.0968875 0)
(-0.0596878 -0.0935833 0)
(-0.0431849 -0.0857724 0)
(-0.0280091 -0.0734278 0)
(-0.0151132 -0.0567613 0)
(-0.00563645 -0.0362659 0)
(-0.000433943 -0.0127622 0)
(-0.000493234 0.0158696 0)
(-0.00623855 0.0442416 0)
(-0.0165795 0.0683401 0)
(-0.03052 0.0874743 0)
(-0.0467838 0.101311 0)
(-0.0643394 0.109802 0)
(-0.0822941 0.113129 0)
(-0.0998785 0.111643 0)
(-0.116453 0.105812 0)
(-0.131505 0.0961757 0)
(-0.144634 0.0833099 0)
(-0.155535 0.0677994 0)
(-0.163984 0.0502247 0)
(-0.16982 0.0311562 0)
(-0.172937 0.011155 0)
(-0.173269 -0.00922089 0)
(-0.170793 -0.0294081 0)
(-0.16553 -0.0488287 0)
(-0.157545 -0.0668828 0)
(-0.146967 -0.0829458 0)
(-0.133997 -0.096372 0)
(-0.118931 -0.106507 0)
(-0.102178 -0.112711 0)
(-0.0842764 -0.114392 0)
(-0.0659078 -0.111057 0)
(-0.0478974 -0.102361 0)
(-0.0311996 -0.0881747 0)
(-0.0169045 -0.0686348 0)
(-0.00633225 -0.0442051 0)
(-0.000492889 -0.0157319 0)
(-0.000554519 0.0191468 0)
(-0.00693144 0.0528956 0)
(-0.0183332 0.0811544 0)
(-0.033599 0.103247 0)
(-0.0512696 0.118912 0)
(-0.0701818 0.128221 0)
(-0.0893548 0.131494 0)
(-0.107969 0.129228 0)
(-0.125368 0.122037 0)
(-0.141048 0.110589 0)
(-0.154636 0.095569 0)
(-0.165862 0.0776543 0)
(-0.174538 0.0574968 0)
(-0.180537 0.0357226 0)
(-0.183772 0.0129362 0)
(-0.184191 -0.0102672 0)
(-0.181766 -0.033289 0)
(-0.176499 -0.0555114 0)
(-0.168427 -0.0762851 0)
(-0.157637 -0.0949205 0)
(-0.144287 -0.110687 0)
(-0.128631 -0.122825 0)
(-0.111045 -0.130563 0)
(-0.0920579 -0.133162 0)
(-0.0723715 -0.129967 0)
(-0.0528715 -0.120474 0)
(-0.0346167 -0.10441 0)
(-0.0188496 -0.0818033 0)
(-0.0070993 -0.0530662 0)
(-0.000560282 -0.0190665 0)
(-0.000624273 0.022788 0)
(-0.00769096 0.0624471 0)
(-0.0202222 0.0952004 0)
(-0.0368599 0.120397 0)
(-0.0559326 0.137884 0)
(-0.0761327 0.14789 0)
(-0.0963904 0.150918 0)
(-0.115845 0.147656 0)
(-0.133842 0.13889 0)
(-0.149906 0.125442 0)
(-0.16371 0.108122 0)
(-0.175042 0.0877007 0)
(-0.183767 0.0648989 0)
(-0.189802 0.0403897 0)
(-0.193093 0.0148089 0)
(-0.193602 -0.0112267 0)
(-0.191301 -0.0370992 0)
(-0.186168 -0.0621665 0)
(-0.178202 -0.0857432 0)
(-0.167436 -0.107084 0)
(-0.153967 -0.125377 0)
(-0.137983 -0.139749 0)
(-0.119806 -0.149285 0)
(-0.0999293 -0.15307 0)
(-0.0790566 -0.150248 0)
(-0.0581228 -0.14011 0)
(-0.0382928 -0.122185 0)
(-0.020979 -0.0963506 0)
(-0.00795439 -0.0629315 0)
(-0.000638518 -0.0228071 0)
(-0.000705187 0.026832 0)
(-0.00853521 0.0729688 0)
(-0.0222775 0.11054 0)
(-0.0403312 0.138943 0)
(-0.0607767 0.158175 0)
(-0.0821464 0.168681 0)
(-0.103285 0.171207 0)
(-0.123307 0.166678 0)
(-0.141582 0.156095 0)
(-0.157693 0.140454 0)
(-0.171389 0.120703 0)
(-0.182534 0.0977088 0)
(-0.191067 0.0722543 0)
(-0.196968 0.045047 0)
(-0.200225 0.0167363 0)
(-0.200824 -0.0120592 0)
(-0.198731 -0.0407231 0)
(-0.193901 -0.0686089 0)
(-0.186286 -0.0950141 0)
(-0.175852 -0.119153 0)
(-0.162608 -0.140139 0)
(-0.146655 -0.156985 0)
(-0.128226 -0.168617 0)
(-0.10775 -0.173915 0)
(-0.0859031 -0.171779 0)
(-0.0636493 -0.161231 0)
(-0.0422566 -0.141542 0)
(-0.0233255 -0.112367 0)
(-0.00891751 -0.0738981 0)
(-0.000730678 -0.0270043 0)
(-0.000801166 0.0313292 0)
(-0.009489 0.0845492 0)
(-0.0245386 0.127241 0)
(-0.0440456 0.158882 0)
(-0.065795 0.179689 0)
(-0.0881447 0.190399 0)
(-0.109863 0.192078 0)
(-0.130068 0.18595 0)
(-0.148187 0.173272 0)
(-0.163896 0.155244 0)
(-0.177053 0.132958 0)
(-0.18763 0.107376 0)
(-0.195664 0.0793304 0)
(-0.20121 0.0495457 0)
(-0.204314 0.0186629 0)
(-0.204987 -0.0127219 0)
(-0.2032 -0.0440196 0)
(-0.198879 -0.0746081 0)
(-0.191917 -0.10379 0)
(-0.182198 -0.130759 0)
(-0.169625 -0.15457 0)
(-0.154177 -0.174128 0)
(-0.135962 -0.188189 0)
(-0.115302 -0.195396 0)
(-0.0928025 -0.194355 0)
(-0.0694272 -0.183749 0)
(-0.0465337 -0.162498 0)
(-0.025928 -0.129948 0)
(-0.0100145 -0.0860798 0)
(-0.000841044 -0.0317208 0)
(-0.000918172 0.0363455 0)
(-0.0105881 0.0972988 0)
(-0.0270597 0.145375 0)
(-0.0480416 0.180185 0)
(-0.0709662 0.202262 0)
(-0.0940051 0.21275 0)
(-0.115873 0.213128 0)
(-0.135731 0.204996 0)
(-0.153113 0.189916 0)
(-0.167836 0.169313 0)
(-0.179907 0.144431 0)
(-0.189439 0.116315 0)
(-0.196588 0.0858306 0)
(-0.201505 0.0536949 0)
(-0.204302 0.0205123 0)
(-0.205026 -0.0131729 0)
(-0.203651 -0.0468295 0)
(-0.200074 -0.0798886 0)
(-0.194125 -0.111691 0)
(-0.18559 -0.14144 0)
(-0.174245 -0.168154 0)
(-0.159912 -0.190643 0)
(-0.142532 -0.207489 0)
(-0.122261 -0.217076 0)
(-0.0995809 -0.217658 0)
(-0.0754029 -0.207491 0)
(-0.0511469 -0.18503 0)
(-0.0288354 -0.149183 0)
(-0.0112809 -0.0996103 0)
(-0.000975925 -0.0370355 0)
(-0.00106563 0.0419706 0)
(-0.0118859 0.111358 0)
(-0.0299159 0.165014 0)
(-0.0523652 0.202774 0)
(-0.0762442 0.225636 0)
(-0.0995379 0.235304 0)
(-0.12095 0.233798 0)
(-0.139748 0.223181 0)
(-0.155639 0.205368 0)
(-0.168638 0.182029 0)
(-0.178947 0.154551 0)
(-0.186852 0.124049 0)
(-0.192654 0.0913911 0)
(-0.196613 0.0572554 0)
(-0.198915 0.0221814 0)
(-0.199649 -0.0133734 0)
(-0.198797 -0.0489708 0)
(-0.196227 -0.0841302 0)
(-0.191705 -0.118267 0)
(-0.184909 -0.150631 0)
(-0.175467 -0.18024 0)
(-0.163012 -0.205834 0)
(-0.147267 -0.225833 0)
(-0.128161 -0.238345 0)
(-0.10597 -0.241215 0)
(-0.0814777 -0.232171 0)
(-0.0561133 -0.209054 0)
(-0.0321116 -0.170157 0)
(-0.0127679 -0.114649 0)
(-0.00114504 -0.0430508 0)
(-0.00125882 0.0483305 0)
(-0.0134626 0.126906 0)
(-0.0332114 0.186224 0)
(-0.0570643 0.226498 0)
(-0.0815351 0.249414 0)
(-0.104446 0.257448 0)
(-0.124566 0.253327 0)
(-0.141363 0.23967 0)
(-0.154804 0.218791 0)
(-0.165172 0.192607 0)
(-0.172911 0.162632 0)
(-0.178511 0.130012 0)
(-0.182434 0.0955839 0)
(-0.185057 0.0599501 0)
(-0.186646 0.0235456 0)
(-0.187334 -0.0132912 0)
(-0.187114 -0.0502493 0)
(-0.185833 -0.0869756 0)
(-0.183191 -0.123002 0)
(-0.178761 -0.157667 0)
(-0.17201 -0.190039 0)
(-0.162358 -0.218829 0)
(-0.149257 -0.242328 0)
(-0.132333 -0.258366 0)
(-0.111559 -0.264339 0)
(-0.0874789 -0.257331 0)
(-0.0614355 -0.234385 0)
(-0.0358413 -0.192929 0)
(-0.0145514 -0.131389 0)
(-0.00136386 -0.0499041 0)
(-0.00152292 0.0556076 0)
(-0.0154396 0.14418 0)
(-0.0370853 0.209051 0)
(-0.0621723 0.251079 0)
(-0.0866497 0.272987 0)
(-0.10825 0.278318 0)
(-0.12594 0.270696 0)
(-0.139523 0.253396 0)
(-0.149333 0.229155 0)
(-0.155995 0.200116 0)
(-0.160241 0.167875 0)
(-0.162784 0.133559 0)
(-0.164249 0.0979276 0)
(-0.16513 0.0614617 0)
(-0.165767 0.0244559 0)
(-0.166339 -0.0129044 0)
(-0.166851 -0.0504689 0)
(-0.167135 -0.0880472 0)
(-0.166842 -0.12533 0)
(-0.165448 -0.161798 0)
(-0.162267 -0.196626 0)
(-0.156488 -0.228567 0)
(-0.14726 -0.255837 0)
(-0.13382 -0.276027 0)
(-0.115718 -0.286059 0)
(-0.0931052 -0.282268 0)
(-0.0670783 -0.260678 0)
(-0.0401329 -0.217515 0)
(-0.0167451 -0.150065 0)
(-0.00165775 -0.0577867 0)
(-0.00190009 0.0640723 0)
(-0.0179997 0.163484 0)
(-0.041711 0.233476 0)
(-0.0676616 0.276035 0)
(-0.091209 0.295444 0)
(-0.110165 0.296708 0)
(-0.123906 0.284567 0)
(-0.132748 0.263029 0)
(-0.137523 0.235233 0)
(-0.139268 0.203491 0)
(-0.139026 0.169402 0)
(-0.137733 0.134005 0)
(-0.136163 0.0979199 0)
(-0.134903 0.0614624 0)
(-0.134354 0.024752 0)
(-0.134727 -0.0122068 0)
(-0.136046 -0.0494493 0)
(-0.13814 -0.0869767 0)
(-0.140635 -0.124676 0)
(-0.142939 -0.162225 0)
(-0.144239 -0.198976 0)
(-0.143514 -0.233808 0)
(-0.139584 -0.264964 0)
(-0.131241 -0.289877 0)
(-0.11747 -0.305029 0)
(-0.097827 -0.305927 0)
(-0.0729155 -0.287335 0)
(-0.0451127 -0.243831 0)
(-0.0195192 -0.170963 0)
(-0.00206888 -0.0669735 0)
(-0.00246183 0.0741345 0)
(-0.0214125 0.185198 0)
(-0.0472723 0.25934 0)
(-0.0733384 0.300531 0)
(-0.0944615 0.31541 0)
(-0.108886 0.31096 0)
(-0.116694 0.293227 0)
(-0.118951 0.266966 0)
(-0.11711 0.235635 0)
(-0.112662 0.201589 0)
(-0.106957 0.166319 0)
(-0.101112 0.130681 0)
(-0.0960012 0.0950874 0)
(-0.092264 0.0596467 0)
(-0.0903265 0.0242775 0)
(-0.0904183 -0.011211 0)
(-0.0925796 -0.0470505 0)
(-0.0966568 -0.0834486 0)
(-0.102284 -0.120516 0)
(-0.108856 -0.158172 0)
(-0.115491 -0.196021 0)
(-0.121011 -0.233182 0)
(-0.123943 -0.268062 0)
(-0.122599 -0.298088 0)
(-0.115281 -0.319423 0)
(-0.100704 -0.326747 0)
(-0.0786136 -0.313349 0)
(-0.0508925 -0.271598 0)
(-0.0231231 -0.194415 0)
(-0.0026685 -0.0778723 0)
(-0.00333136 0.0864248 0)
(-0.0260573 0.209758 0)
(-0.0538697 0.286167 0)
(-0.0785903 0.323129 0)
(-0.0949709 0.330857 0)
(-0.102234 0.318842 0)
(-0.101629 0.294556 0)
(-0.0951967 0.26338 0)
(-0.0851025 0.228895 0)
(-0.0732779 0.193303 0)
(-0.0612993 0.157828 0)
(-0.0503778 0.123035 0)
(-0.0414011 0.0890636 0)
(-0.0349893 0.0557841 0)
(-0.0315448 0.0229063 0)
(-0.0312875 -0.00995055 0)
(-0.034271 -0.0432042 0)
(-0.04038 -0.0772611 0)
(-0.0493054 -0.11246 0)
(-0.0604996 -0.148993 0)
(-0.073113 -0.186783 0)
(-0.0859198 -0.225304 0)
(-0.0972553 -0.263308 0)
(-0.105007 -0.298454 0)
(-0.106732 -0.326841 0)
(-0.100062 -0.342444 0)
(-0.0833851 -0.337053 0)
(-0.0574675 -0.30015 0)
(-0.0279037 -0.220764 0)
(-0.00357931 -0.0911007 0)
(-0.00471752 0.101894 0)
(-0.0324038 0.237528 0)
(-0.0612475 0.312791 0)
(-0.0819063 0.341431 0)
(-0.0900253 0.338843 0)
(-0.0866624 0.317458 0)
(-0.0746964 0.286072 0)
(-0.0574036 0.250355 0)
(-0.0376212 0.213658 0)
(-0.0175782 0.17775 0)
(0.00108857 0.143398 0)
(0.0172332 0.110773 0)
(0.0300821 0.079695 0)
(0.0391296 0.0497906 0)
(0.0440607 0.0205785 0)
(0.0447 -0.00847975 0)
(0.0409874 -0.0379503 0)
(0.0329788 -0.0684028 0)
(0.0208736 -0.100378 0)
(0.00507054 -0.134337 0)
(-0.0137429 -0.170559 0)
(-0.0344677 -0.208977 0)
(-0.0554474 -0.248884 0)
(-0.0743317 -0.288486 0)
(-0.0880332 -0.324232 0)
(-0.0928892 -0.349861 0)
(-0.085486 -0.355746 0)
(-0.0644376 -0.328064 0)
(-0.0342776 -0.250215 0)
(-0.00500882 -0.107578 0)
(-0.00690632 0.121871 0)
(-0.040799 0.268403 0)
(-0.0681151 0.336693 0)
(-0.0799229 0.351539 0)
(-0.0746843 0.33524 0)
(-0.0562977 0.303271 0)
(-0.0299373 0.265152 0)
(-2.20737e-05 0.226208 0)
(0.0302198 0.189013 0)
(0.0585801 0.154566 0)
(0.0836445 0.123006 0)
(0.104552 0.0940409 0)
(0.120799 0.0671712 0)
(0.132102 0.0418116 0)
(0.138299 0.0173425 0)
(0.139296 -0.00687052 0)
(0.135034 -0.0314757 0)
(0.125496 -0.0571383 0)
(0.110723 -0.0845382 0)
(0.0908758 -0.114353 0)
(0.0663298 -0.147205 0)
(0.0378342 -0.183532 0)
(0.00673105 -0.223336 0)
(-0.0247611 -0.26571 0)
(-0.0532516 -0.308026 0)
(-0.073994 -0.34464 0)
(-0.0812524 -0.365084 0)
(-0.070282 -0.352515 0)
(-0.0424972 -0.28243 0)
(-0.00723643 -0.128569 0)
(-0.0100607 0.148279 0)
(-0.0506219 0.301015 0)
(-0.0704523 0.352836 0)
(-0.0654895 0.347193 0)
(-0.0398177 0.314561 0)
(-0.00183084 0.272378 0)
(0.0411265 0.229609 0)
(0.0841461 0.190089 0)
(0.124236 0.155007 0)
(0.159737 0.124311 0)
(0.189835 0.0974296 0)
(0.214196 0.0736285 0)
(0.232738 0.0521571 0)
(0.245486 0.0323026 0)
(0.252479 0.0133953 0)
(0.25373 -0.00520687 0)
(0.249196 -0.024145 0)
(0.238779 -0.0440872 0)
(0.222339 -0.0657508 0)
(0.199734 -0.0899279 0)
(0.170905 -0.117485 0)
(0.136024 -0.149311 0)
(0.0957449 -0.186163 0)
(0.0515955 -0.228289 0)
(0.00654671 -0.274622 0)
(-0.0342892 -0.321235 0)
(-0.0631143 -0.35861 0)
(-0.0706253 -0.36772 0)
(-0.0517215 -0.315656 0)
(-0.0103896 -0.155865 0)
(-0.0140915 0.18503 0)
(-0.0579682 0.331288 0)
(-0.0577918 0.351596 0)
(-0.0235638 0.319056 0)
(0.0302374 0.2704 0)
(0.0906397 0.221727 0)
(0.149806 0.17885 0)
(0.203732 0.142935 0)
(0.25072 0.11335 0)
(0.290315 0.0889409 0)
(0.322663 0.0685443 0)
(0.348137 0.0511434 0)
(0.367153 0.0358909 0)
(0.380065 0.0220809 0)
(0.387123 0.00910723 0)
(0.388445 -0.00357951 0)
(0.384011 -0.0165169 0)
(0.373658 -0.0302737 0)
(0.357081 -0.0454814 0)
(0.33384 -0.0628972 0)
(0.303403 -0.0834499 0)
(0.265231 -0.108279 0)
(0.21897 -0.138723 0)
(0.164826 -0.176165 0)
(0.10427 -0.221497 0)
(0.0412141 -0.273728 0)
(-0.0162967 -0.32692 0)
(-0.0546223 -0.363979 0)
(-0.0577255 -0.345213 0)
(-0.0143258 -0.193171 0)
(-0.0186692 0.236257 0)
(-0.0491328 0.346625 0)
(-0.00467272 0.316702 0)
(0.0745994 0.256303 0)
(0.160494 0.198856 0)
(0.240275 0.152153 0)
(0.309618 0.11625 0)
(0.367734 0.0890856 0)
(0.415342 0.0684091 0)
(0.453655 0.0523793 0)
(0.483893 0.0396256 0)
(0.507103 0.0291548 0)
(0.524107 0.0202422 0)
(0.535504 0.0123423 0)
(0.541683 0.00502171 0)
(0.542833 -0.00209188 0)
(0.538959 -0.00935703 0)
(0.529865 -0.0171618 0)
(0.515158 -0.02594 0)
(0.494207 -0.0362577 0)
(0.466127 -0.048876 0)
(0.429763 -0.0648501 0)
(0.383718 -0.0856559 0)
(0.326516 -0.113308 0)
(0.257087 -0.150321 0)
(0.17584 -0.1991 0)
(0.0868816 -0.259855 0)
(0.00297829 -0.324608 0)
(-0.0465963 -0.357889 0)
(-0.0185825 -0.244082 0)
(0.000558632 0.26357 0)
(0.0274541 0.304396 0)
(0.150287 0.22643 0)
(0.280146 0.156491 0)
(0.386296 0.107686 0)
(0.469071 0.0750152 0)
(0.533195 0.0532849 0)
(0.58274 0.0386353 0)
(0.620982 0.0284679 0)
(0.650437 0.0211401 0)
(0.672945 0.0156326 0)
(0.689812 0.0113044 0)
(0.70195 0.00773862 0)
(0.709971 0.00465025 0)
(0.71426 0.00182928 0)
(0.714993 -0.000897083 0)
(0.712216 -0.00367025 0)
(0.705721 -0.00670436 0)
(0.695176 -0.0101767 0)
(0.679973 -0.014376 0)
(0.6592 -0.0197233 0)
(0.631526 -0.0268669 0)
(0.595042 -0.0368472 0)
(0.547087 -0.0513609 0)
(0.484119 -0.0731341 0)
(0.401651 -0.106292 0)
(0.294399 -0.156439 0)
(0.161585 -0.228845 0)
(0.0335249 -0.309985 0)
(0.00173061 -0.268867 0)
(0.270473 0.116921 0)
(0.384439 0.100438 0)
(0.549334 0.0521247 0)
(0.669328 0.0275765 0)
(0.74377 0.0160214 0)
(0.791792 0.00969896 0)
(0.824556 0.00605428 0)
(0.84765 0.00393378 0)
(0.864311 0.00265589 0)
(0.876536 0.00184149 0)
(0.885555 0.00128968 0)
(0.892142 0.000891433 0)
(0.896787 0.000584485 0)
(0.899798 0.000331123 0)
(0.901364 0.000107317 0)
(0.901558 -0.000108741 0)
(0.900432 -0.00032463 0)
(0.897861 -0.000573038 0)
(0.893701 -0.00086988 0)
(0.887657 -0.00125034 0)
(0.879255 -0.00177545 0)
(0.867745 -0.00255023 0)
(0.851911 -0.00376851 0)
(0.829763 -0.00580031 0)
(0.798027 -0.00932375 0)
(0.751005 -0.015505 0)
(0.677322 -0.0269076 0)
(0.557299 -0.0513149 0)
(0.390424 -0.100001 0)
(0.272965 -0.117372 0)
)
;

boundaryField
{
    movingWall
    {
        type            fixedValue;
        value           uniform (1 0 0);
    }
    fixedWalls
    {
        type            noSlip;
    }
    frontAndBack
    {
        type            empty;
    }
}


// ************************************************************************* //
