/*--------------------------------*- C++ -*----------------------------------*\
  =========                 |
  \\      /  F ield         | OpenFOAM: The Open Source CFD Toolbox
   \\    /   O peration     | Website:  https://openfoam.org
    \\  /    A nd           | Version:  12
     \\/     M anipulation  |
\*---------------------------------------------------------------------------*/
FoamFile
{
    format      ascii;
    class       volScalarField;
    location    "5.5";
    object      epsilon;
}
// * * * * * * * * * * * * * * * * * * * * * * * * * * * * * * * * * * * * * //

dimensions      [0 2 -3 0 0 0 0];

internalField   nonuniform List<scalar> 
18225
(
8.0525e-07
5.44973e-06
1.21489e-05
2.01525e-05
2.91131e-05
3.88094e-05
4.90738e-05
5.9767e-05
7.07668e-05
8.19639e-05
9.32603e-05
0.00010457
0.00011582
0.000126954
0.000137931
0.000148731
0.000159356
0.000169829
0.000180202
0.000190552
0.000200986
0.000211639
0.000222682
0.000234315
0.000246778
0.000260347
0.00027534
0.000292119
0.000311092
0.000332718
0.000357511
0.000386042
0.000418941
0.000456904
0.000500692
0.000551134
0.000609127
0.000675639
0.000751705
0.000838422
0.000936956
0.00104853
0.00117441
0.00131592
0.00147443
0.00165134
0.00184808
0.0020661
0.00230686
0.00257184
0.00286251
0.00318033
0.00352674
0.00390316
0.00431095
0.00475141
0.00522581
0.00573529
0.00628095
0.00686375
0.00748457
0.0081442
0.00884328
0.00958236
0.0103619
0.0111822
0.0120436
0.0129461
0.0138898
0.0148747
0.0159006
0.0169673
0.0180745
0.0192217
0.0204085
0.0216343
0.0228981
0.0241992
0.0255364
0.0269085
0.0283138
0.0297505
0.0312163
0.0327086
0.0342242
0.0357594
0.0373097
0.0388699
0.040434
0.0419947
0.0435437
0.0450713
0.0465664
0.0480165
0.0494071
0.0507222
0.0519442
0.0530532
0.0540265
0.0548401
0.0554678
0.0558615
0.0560245
0.0559945
0.0556703
0.0550351
0.0540798
0.0527984
0.0511899
0.0492608
0.0470269
0.0445138
0.0417572
0.0388021
0.0357012
0.0325128
0.0292979
0.0261171
0.0230273
0.0200788
0.0173133
0.0147619
0.0124446
0.0103708
0.00854015
0.00694382
0.0055666
0.00438891
0.00338816
0.00254126
0.0018262
0.00122417
0.000722553
0.000320595
4.72833e-05
1.52165e-06
2.96855e-06
5.95685e-06
9.66667e-06
1.38603e-05
1.84143e-05
2.32428e-05
2.82773e-05
3.34589e-05
3.87353e-05
4.40602e-05
4.93928e-05
5.4699e-05
5.99518e-05
6.51325e-05
7.02315e-05
7.52497e-05
8.01989e-05
8.5103e-05
8.99988e-05
9.49364e-05
9.99805e-05
0.000105211
0.000110723
0.00011663
0.000123063
0.000130171
0.000138127
0.000147123
0.000157376
0.00016913
0.000182655
0.000198248
0.00021624
0.000236991
0.000260893
0.00028837
0.000319882
0.000355918
0.000396998
0.000443676
0.000496529
0.000556163
0.000623206
0.000698308
0.000782135
0.000875368
0.000978703
0.00109284
0.00121849
0.00135635
0.00150713
0.00167153
0.00185023
0.0020439
0.00225319
0.0024787
0.00272101
0.00298067
0.00325818
0.00355398
0.00386848
0.00420204
0.00455495
0.00492749
0.00531985
0.0057322
0.00616466
0.00661728
0.0070901
0.00758309
0.00809619
0.00862929
0.0091822
0.0097547
0.0103465
0.0109572
0.0115864
0.0122335
0.0128978
0.0135786
0.0142747
0.0149851
0.0157082
0.0164425
0.0171859
0.017936
0.0186902
0.0194451
0.0201971
0.0209419
0.0216744
0.0223891
0.0230796
0.0237388
0.0243587
0.0249306
0.0254449
0.0258909
0.0262571
0.0265311
0.0266917
0.0267434
0.0266967
0.0265106
0.0261772
0.025693
0.0250562
0.0242674
0.0233307
0.0222544
0.0210509
0.0197374
0.0183348
0.0168676
0.0153626
0.0138475
0.01235
0.0108959
0.00950823
0.008206
0.00700352
0.00591016
0.00493042
0.00406428
0.00330791
0.00265446
0.00209503
0.0016192
0.00121639
0.000876554
0.000591371
0.000356164
0.000175082
8.93086e-05
3.23295e-06
2.88891e-06
4.58104e-06
6.97946e-06
9.78134e-06
1.28611e-05
1.61446e-05
1.95782e-05
2.31183e-05
2.67275e-05
3.03731e-05
3.40269e-05
3.76653e-05
4.12699e-05
4.4828e-05
4.83332e-05
5.17863e-05
5.51956e-05
5.85776e-05
6.19579e-05
6.5371e-05
6.88616e-05
7.24847e-05
7.63065e-05
8.04048e-05
8.48702e-05
8.98065e-05
9.53322e-05
0.000101581
0.000108703
0.000116868
0.000126261
0.000137092
0.000149587
0.000163997
0.000180595
0.000199677
0.000221563
0.000246593
0.000275133
0.000307569
0.000344308
0.000385776
0.000432417
0.000484692
0.000543077
0.000608059
0.000680138
0.000759824
0.000847632
0.000944084
0.0010497
0.00116501
0.00129054
0.00142679
0.00157427
0.00173347
0.00190487
0.00208892
0.00228604
0.00249665
0.00272113
0.00295981
0.00321302
0.00348104
0.00376414
0.00406253
0.0043764
0.00470591
0.00505115
0.00541221
0.0057891
0.00618179
0.0065902
0.00701415
0.00745343
0.00790771
0.00837658
0.00885949
0.00935578
0.00986464
0.0103851
0.010916
0.0114558
0.0120031
0.0125559
0.013112
0.0136689
0.0142237
0.0147732
0.0153136
0.015841
0.0163506
0.0168376
0.0172963
0.0177209
0.0181049
0.0184414
0.0187229
0.0189419
0.019088
0.0191512
0.019139
0.0190478
0.0188584
0.0185662
0.0181702
0.0176707
0.0170697
0.0163713
0.0155825
0.0147126
0.0137738
0.0127806
0.0117492
0.0106974
0.00964314
0.00860432
0.00759757
0.00663763
0.00573673
0.00490413
0.00414596
0.00346522
0.00286203
0.002334
0.00187675
0.00148448
0.00115048
0.000867873
0.000630381
0.000433398
0.000276349
0.000170546
0.000189389
5.2894e-06
3.45642e-06
4.31552e-06
5.98606e-06
8.06975e-06
1.04156e-05
1.29444e-05
1.56043e-05
1.83562e-05
2.11682e-05
2.40134e-05
2.68691e-05
2.97164e-05
3.2541e-05
3.53329e-05
3.80873e-05
4.0805e-05
4.34928e-05
4.61638e-05
4.88383e-05
5.15439e-05
5.43157e-05
5.71975e-05
6.02418e-05
6.35103e-05
6.70748e-05
7.10181e-05
7.54344e-05
8.04302e-05
8.61258e-05
9.26555e-05
0.000100169
0.000108833
0.00011883
0.000130361
0.000143647
0.000158926
0.000176457
0.000196518
0.000219405
0.000245436
0.000274945
0.000308284
0.000345825
0.000387954
0.000435073
0.000487598
0.000545963
0.00061061
0.000681997
0.000760591
0.000846869
0.000941316
0.00104442
0.00115669
0.00127861
0.00141068
0.00155339
0.00170724
0.00187268
0.0020502
0.00224024
0.00244322
0.00265957
0.00288966
0.00313387
0.00339251
0.00366587
0.00395421
0.00425771
0.0045765
0.00491064
0.00526011
0.00562482
0.00600454
0.00639895
0.00680761
0.00722991
0.00766511
0.00811228
0.00857031
0.00903791
0.00951355
0.00999549
0.0104818
0.0109701
0.0114581
0.0119429
0.0124216
0.0128907
0.0133468
0.0137858
0.0142037
0.014596
0.0149581
0.0152849
0.0155714
0.0158122
0.0160014
0.0161328
0.0161964
0.0161986
0.0161318
0.0159964
0.015781
0.0154832
0.015103
0.0146419
0.0141025
0.013489
0.0128076
0.0120663
0.0112752
0.0104459
0.00959119
0.00872495
0.00786113
0.00701333
0.00619417
0.00541473
0.00468412
0.00400919
0.00339441
0.00284191
0.00235167
0.0019218
0.00154894
0.00122867
0.000955992
0.000725911
0.000534205
0.000378692
0.000262251
0.000203436
0.000308784
7.62768e-06
4.33845e-06
4.52604e-06
5.67326e-06
7.27714e-06
9.15408e-06
1.12133e-05
1.33995e-05
1.56739e-05
1.80064e-05
2.03726e-05
2.27525e-05
2.513e-05
2.74927e-05
2.98325e-05
3.21454e-05
3.44322e-05
3.6699e-05
3.89569e-05
4.12234e-05
4.35219e-05
4.58824e-05
4.83422e-05
5.09459e-05
5.37462e-05
5.68047e-05
6.0192e-05
6.39889e-05
6.8287e-05
7.31897e-05
7.8813e-05
8.52863e-05
9.27536e-05
0.000101374
0.000111324
0.000122794
0.000135996
0.000151157
0.000168524
0.000188361
0.000210953
0.000236602
0.000265631
0.000298381
0.00033521
0.000376497
0.00042264
0.000474055
0.000531177
0.00059446
0.000664377
0.00074142
0.000826097
0.000918935
0.00102048
0.00113127
0.00125189
0.00138291
0.00152491
0.00167846
0.00184416
0.00202256
0.00221424
0.00241973
0.00263954
0.00287417
0.00312403
0.00338952
0.00367097
0.00396857
0.00428245
0.0046126
0.00495892
0.00532116
0.00569887
0.00609147
0.00649816
0.00691795
0.00734964
0.00779183
0.00824289
0.00870097
0.00916402
0.00962978
0.0100958
0.0105594
0.0110178
0.011468
0.0119068
0.0123309
0.0127368
0.0131211
0.0134802
0.0138104
0.0141078
0.0143687
0.0145891
0.014765
0.0148915
0.0149592
0.0149755
0.0149339
0.0148305
0.0146658
0.0144321
0.0141276
0.0137526
0.0133083
0.0127968
0.0122218
0.0115884
0.0109037
0.0101765
0.00941697
0.00863681
0.00784837
0.00706425
0.0062967
0.00555701
0.00485495
0.00419843
0.00359321
0.0030429
0.002549
0.00211118
0.0017275
0.00139489
0.00110948
0.000867066
0.000663715
0.00049655
0.000365272
0.000275814
0.000253888
0.000442988
1.0204e-05
5.41969e-06
5.00817e-06
5.72843e-06
6.96469e-06
8.49789e-06
1.02231e-05
1.20792e-05
1.40253e-05
1.60312e-05
1.80736e-05
2.01337e-05
2.21967e-05
2.42517e-05
2.62915e-05
2.83127e-05
3.03162e-05
3.23076e-05
3.4297e-05
3.63e-05
3.83374e-05
4.04362e-05
4.26295e-05
4.49572e-05
4.74666e-05
5.02127e-05
5.3259e-05
5.66782e-05
6.0553e-05
6.49771e-05
7.00556e-05
7.59067e-05
8.26618e-05
9.04673e-05
9.94848e-05
0.000109893
0.000121887
0.00013568
0.000151505
0.000169615
0.00019028
0.000213795
0.000240474
0.000270652
0.000304689
0.000342969
0.000385898
0.000433911
0.000487466
0.00054705
0.00061318
0.000686399
0.000767281
0.000856426
0.000954466
0.00106205
0.00117987
0.00130862
0.00144901
0.00160177
0.00176763
0.00194731
0.00214151
0.00235093
0.0025762
0.00281791
0.00307657
0.00335262
0.00364637
0.00395797
0.00428734
0.00463419
0.00499825
0.00537892
0.00577536
0.00618648
0.00661094
0.00704715
0.00749327
0.00794726
0.00840684
0.00886955
0.00933278
0.00979377
0.0102497
0.0106976
0.0111346
0.0115578
0.011964
0.0123505
0.0127139
0.0130517
0.0133613
0.0136404
0.0138862
0.0140963
0.014268
0.0143992
0.0144815
0.0145131
0.0145051
0.0144424
0.0143255
0.0141541
0.0139217
0.0136258
0.0132656
0.0128405
0.0123517
0.0118017
0.0111944
0.010536
0.00983423
0.00909906
0.00834182
0.00757496
0.00681138
0.00606372
0.00534363
0.0046612
0.00402445
0.0034391
0.00290854
0.00243395
0.00201462
0.00164838
0.00133196
0.00106148
0.000832976
0.000643002
0.000489576
0.000373879
0.000304696
0.000314704
0.000588502
1.29909e-05
6.64825e-06
5.67246e-06
6.01972e-06
6.95115e-06
8.21107e-06
9.67856e-06
1.12856e-05
1.2988e-05
1.47544e-05
1.65613e-05
1.83904e-05
2.02277e-05
2.2063e-05
2.38897e-05
2.57048e-05
2.75093e-05
2.93086e-05
3.11121e-05
3.29342e-05
3.47943e-05
3.67172e-05
3.87336e-05
4.08804e-05
4.32013e-05
4.57476e-05
4.85783e-05
5.17613e-05
5.53742e-05
5.95049e-05
6.42527e-05
6.97295e-05
7.60607e-05
8.33862e-05
9.18615e-05
0.000101659
0.00011297
0.000126003
0.000140989
0.000158178
0.000177845
0.000200287
0.000225828
0.000254815
0.000287629
0.000324675
0.000366394
0.000413259
0.000465778
0.000524498
0.000590005
0.000662926
0.000743929
0.000833724
0.000933061
0.00104273
0.00116356
0.0012964
0.00144213
0.00160166
0.00177581
0.0019655
0.00217159
0.00239487
0.00263608
0.00289584
0.00317468
0.00347296
0.00379092
0.00412847
0.00448534
0.00486104
0.00525461
0.00566489
0.00609037
0.00652924
0.0069794
0.00743846
0.00790379
0.00837258
0.00884187
0.00930861
0.00976974
0.0102222
0.0106631
0.0110896
0.011499
0.011889
0.0122574
0.0126022
0.0129219
0.0132148
0.0134794
0.0137142
0.0139183
0.01409
0.0142281
0.0143316
0.014392
0.0144122
0.0143997
0.0143398
0.0142324
0.0140762
0.0138649
0.0135941
0.0132615
0.0128652
0.0124041
0.0118788
0.0112918
0.0106479
0.00995432
0.0092207
0.00845878
0.0076819
0.00690427
0.00614006
0.00540256
0.00470334
0.0040516
0.00345389
0.00291395
0.00243299
0.00201005
0.00164249
0.0013266
0.00105819
0.000833139
0.000648124
0.000501714
0.00039637
0.00034335
0.000382422
0.00074271
1.59716e-05
7.99745e-06
6.47276e-06
6.48015e-06
7.14657e-06
8.17756e-06
9.43587e-06
1.08451e-05
1.23575e-05
1.39397e-05
1.55675e-05
1.72224e-05
1.88906e-05
2.05624e-05
2.22314e-05
2.3895e-05
2.55544e-05
2.72146e-05
2.88849e-05
3.05789e-05
3.23152e-05
3.41173e-05
3.60144e-05
3.80417e-05
4.02409e-05
4.26608e-05
4.53581e-05
4.83982e-05
5.18558e-05
5.58162e-05
6.03763e-05
6.56453e-05
7.17467e-05
7.88187e-05
8.70164e-05
9.65125e-05
0.000107499
0.00012019
0.000134821
0.00015165
0.000170965
0.00019308
0.000218337
0.000247114
0.000279821
0.000316907
0.00035886
0.000406215
0.000459548
0.000519488
0.000586716
0.000661968
0.000746025
0.00083973
0.000943984
0.00105973
0.00118797
0.00132972
0.00148605
0.00165804
0.00184678
0.00205328
0.00227851
0.00252339
0.00278867
0.00307498
0.00338272
0.00371205
0.00406278
0.00443454
0.00482656
0.00523766
0.00566624
0.00611029
0.00656747
0.00703504
0.00751
0.00798909
0.0084689
0.00894595
0.00941676
0.00987798
0.0103264
0.0107593
0.0111738
0.0115681
0.0119401
0.0122886
0.0126127
0.0129116
0.0131853
0.0134334
0.0136561
0.0138532
0.0140248
0.0141709
0.0142912
0.0143845
0.0144465
0.0144748
0.0144773
0.0144418
0.0143646
0.0142439
0.0140723
0.0138437
0.0135533
0.0131971
0.0127716
0.0122756
0.0117096
0.0110772
0.0103847
0.00964164
0.00886035
0.00805536
0.00724272
0.00643883
0.00565943
0.00491842
0.00422712
0.00359364
0.00302277
0.00251618
0.00207286
0.0016898
0.00136272
0.00108682
0.000857534
0.000671428
0.00052734
0.000428594
0.000388816
0.000455077
0.000903598
1.91363e-05
9.45263e-06
7.38291e-06
7.07158e-06
7.5005e-06
8.33312e-06
9.41548e-06
1.06628e-05
1.20223e-05
1.34586e-05
1.49461e-05
1.64661e-05
1.80045e-05
1.95516e-05
2.11013e-05
2.26512e-05
2.42026e-05
2.57605e-05
2.7334e-05
2.89366e-05
3.05862e-05
3.23059e-05
3.4124e-05
3.60749e-05
3.81993e-05
4.0545e-05
4.31678e-05
4.6132e-05
4.95116e-05
5.33914e-05
5.78681e-05
6.30516e-05
6.90663e-05
7.6053e-05
8.41701e-05
9.35956e-05
0.000104529
0.000117193
0.000131836
0.000148734
0.000168194
0.000190555
0.000216193
0.000245523
0.000279002
0.000317133
0.000360471
0.000409622
0.000465254
0.000528097
0.000598944
0.000678661
0.000768185
0.00086852
0.000980733
0.00110596
0.00124537
0.00140021
0.0015717
0.0017611
0.00196963
0.00219846
0.00244864
0.00272108
0.00301648
0.00333532
0.00367775
0.00404353
0.00443204
0.00484224
0.00527258
0.00572105
0.00618509
0.0066617
0.0071475
0.00763876
0.00813154
0.0086218
0.0091055
0.00957874
0.0100379
0.0104797
0.0109015
0.0113009
0.0116763
0.0120268
0.0123519
0.0126517
0.0129268
0.0131781
0.013407
0.0136147
0.0138026
0.0139719
0.0141236
0.0142583
0.014376
0.0144758
0.0145551
0.0146133
0.0146451
0.0146506
0.0146193
0.0145487
0.0144304
0.014256
0.0140186
0.0137116
0.0133294
0.0128685
0.0123275
0.0117086
0.0110169
0.0102618
0.00945574
0.00861461
0.0077563
0.00689973
0.00606348
0.00526444
0.00451669
0.00383065
0.00321283
0.00266585
0.00218905
0.00177922
0.00143151
0.00114045
0.000900839
0.000708817
0.000563238
0.000468139
0.000439339
0.000531406
0.00106958
2.24797e-05
1.10056e-05
8.38738e-06
7.77095e-06
7.98218e-06
8.63885e-06
9.56994e-06
1.06814e-05
1.19158e-05
1.32347e-05
1.46108e-05
1.60246e-05
1.7462e-05
1.89131e-05
2.03718e-05
2.18358e-05
2.33065e-05
2.47891e-05
2.62927e-05
2.78307e-05
2.94211e-05
3.10868e-05
3.28561e-05
3.47629e-05
3.68481e-05
3.91595e-05
4.17527e-05
4.46927e-05
4.80543e-05
5.19234e-05
5.63989e-05
6.15933e-05
6.76351e-05
7.46704e-05
8.28646e-05
9.24052e-05
0.000103503
0.000116397
0.000131353
0.000148672
0.000168686
0.000191772
0.000218345
0.000248869
0.000283859
0.000323889
0.000369594
0.000421672
0.000480899
0.000548124
0.000624277
0.000710373
0.000807511
0.000916875
0.00103972
0.00117739
0.00133125
0.00150274
0.00169326
0.00190424
0.00213701
0.0023928
0.00267267
0.00297743
0.0033076
0.00366333
0.00404432
0.00444977
0.00487832
0.00532804
0.00579641
0.00628031
0.00677607
0.00727957
0.00778634
0.00829171
0.00879094
0.00927944
0.00975287
0.0102074
0.0106397
0.0110472
0.0114281
0.0117814
0.0121068
0.0124049
0.012677
0.0129249
0.0131507
0.0133568
0.0135461
0.013721
0.0138838
0.0140367
0.014181
0.0143176
0.0144466
0.0145668
0.0146762
0.0147726
0.0148516
0.0149073
0.0149299
0.0149181
0.0148609
0.0147478
0.0145702
0.0143191
0.0139866
0.013567
0.0130571
0.012457
0.0117708
0.0110069
0.0101778
0.00930012
0.00839339
0.00747894
0.00657834
0.0057118
0.00489666
0.00414632
0.00346962
0.00287079
0.00234997
0.00190405
0.0015278
0.00121505
0.00095986
0.000757791
0.000607504
0.000513547
0.000493815
0.000610554
0.00123943
2.60004e-05
1.26522e-05
9.47678e-06
8.56367e-06
8.5718e-06
9.06996e-06
9.86892e-06
1.08649e-05
1.19954e-05
1.32187e-05
1.45062e-05
1.58369e-05
1.71959e-05
1.85732e-05
1.99627e-05
2.13622e-05
2.27732e-05
2.42012e-05
2.56556e-05
2.715e-05
2.87026e-05
3.03366e-05
3.20806e-05
3.39692e-05
3.60436e-05
3.83525e-05
4.09528e-05
4.39109e-05
4.73037e-05
5.122e-05
5.57623e-05
6.10481e-05
6.72123e-05
7.44091e-05
8.28144e-05
9.26286e-05
0.000104079
0.000117423
0.000132953
0.000150997
0.000171925
0.000196155
0.000224154
0.000256445
0.000293614
0.000336315
0.000385277
0.000441308
0.000505304
0.000578255
0.000661244
0.000755457
0.000862176
0.00098278
0.00111873
0.00127157
0.00144288
0.00163427
0.00184733
0.00208358
0.00234443
0.00263108
0.00294448
0.00328522
0.00365346
0.00404883
0.00447035
0.00491641
0.00538467
0.00587209
0.00637496
0.00688891
0.00740907
0.00793017
0.00844677
0.00895345
0.00944499
0.00991667
0.0103644
0.0107848
0.0111756
0.0115354
0.0118638
0.0121615
0.01243
0.0126717
0.0128895
0.0130868
0.0132672
0.0134345
0.0135923
0.013744
0.0138924
0.0140398
0.0141878
0.0143372
0.0144876
0.0146375
0.0147847
0.0149256
0.0150551
0.0151666
0.0152529
0.0152984
0.0153047
0.0152558
0.0151416
0.0149509
0.0146734
0.0143015
0.0138298
0.0132565
0.012584
0.0118192
0.0109742
0.0100656
0.00911397
0.00814273
0.00717629
0.00623824
0.00534961
0.00452727
0.00378306
0.00312347
0.00255
0.00206011
0.00164842
0.00130819
0.00103272
0.000816878
0.000658973
0.000563902
0.000551526
0.000691928
0.00141221
2.96992e-05
1.43906e-05
1.06456e-05
9.44044e-06
9.25619e-06
9.61005e-06
1.02922e-05
1.11893e-05
1.22332e-05
1.3379e-05
1.45957e-05
1.58613e-05
1.71602e-05
1.84818e-05
1.982e-05
2.11726e-05
2.25413e-05
2.39317e-05
2.53536e-05
2.68213e-05
2.83534e-05
2.99739e-05
3.17121e-05
3.36036e-05
3.56909e-05
3.80242e-05
4.06624e-05
4.36746e-05
4.71409e-05
5.11544e-05
5.58228e-05
6.12707e-05
6.76415e-05
7.51e-05
8.38356e-05
9.40648e-05
0.000106035
0.00012003
0.000136369
0.000155417
0.000177588
0.000203349
0.000233227
0.000267815
0.000307782
0.000353874
0.000406929
0.000467879
0.00053776
0.000617715
0.000709001
0.000812989
0.000931162
0.00106511
0.0012165
0.00138708
0.00157864
0.00179293
0.00203169
0.00229648
0.00258869
0.0029094
0.0032593
0.00363858
0.00404683
0.00448294
0.00494504
0.00543043
0.00593557
0.00645614
0.00698707
0.00752271
0.008057
0.0085837
0.00909665
0.00959003
0.0100587
0.0104982
0.0109053
0.0112779
0.011615
0.011917
0.0121854
0.0124226
0.0126321
0.0128179
0.0129845
0.0131365
0.0132789
0.0134166
0.0135532
0.0136918
0.0138353
0.0139861
0.0141456
0.0143143
0.0144916
0.0146754
0.0148628
0.0150496
0.0152297
0.0153961
0.0155406
0.015653
0.0157173
0.0157305
0.0156806
0.0155531
0.015335
0.015017
0.0145918
0.0140551
0.0134072
0.0126531
0.0118034
0.0108741
0.00988612
0.00886429
0.00783541
0.00682643
0.00586218
0.00496351
0.00414586
0.00341866
0.00278545
0.00224475
0.00179146
0.00141846
0.00111832
0.000885209
0.000716943
0.000618632
0.000612017
0.000775132
0.00158727
3.35794e-05
1.6221e-05
1.18909e-05
1.03954e-05
1.00268e-05
1.02479e-05
1.08257e-05
1.16381e-05
1.261e-05
1.36932e-05
1.48544e-05
1.60702e-05
1.7324e-05
1.86048e-05
1.99063e-05
2.12262e-05
2.25666e-05
2.39334e-05
2.5337e-05
2.67921e-05
2.83185e-05
2.99409e-05
3.169e-05
3.36029e-05
3.57238e-05
3.81053e-05
4.08091e-05
4.39077e-05
4.74856e-05
5.16416e-05
5.64902e-05
6.21646e-05
6.88189e-05
7.66311e-05
8.58067e-05
9.65824e-05
0.00010923
0.00012406
0.00014143
0.000161746
0.000185471
0.00021313
0.00024532
0.000282715
0.000326075
0.000376255
0.000434214
0.000501024
0.000577874
0.00066608
0.000767086
0.000882465
0.00101391
0.00116322
0.00133229
0.00152306
0.00173748
0.00197745
0.00224473
0.0025409
0.0028672
0.00322443
0.00361285
0.00403206
0.00448085
0.00495715
0.00545791
0.00597917
0.00651599
0.00706264
0.00761268
0.00815925
0.00869529
0.00921388
0.00970857
0.0101737
0.0106046
0.010998
0.0113519
0.0116659
0.011941
0.0121795
0.0123849
0.0125614
0.0127141
0.0128486
0.0129714
0.0130882
0.0132023
0.013318
0.0134403
0.0135732
0.0137192
0.01388
0.0140563
0.014248
0.0144536
0.0146708
0.0148962
0.0151253
0.0153524
0.0155697
0.0157679
0.0159374
0.0160678
0.0161365
0.0161472
0.0160845
0.0159295
0.0156716
0.0153014
0.0148121
0.0142014
0.0134719
0.0126319
0.0116958
0.0106841
0.00962192
0.00853813
0.00746258
0.006424
0.0054475
0.00455274
0.00375279
0.00305394
0.00245644
0.00195589
0.00154511
0.00121612
0.00096233
0.000781025
0.000677407
0.000675013
0.000859927
0.00176423
3.76461e-05
1.81446e-05
1.32116e-05
1.1425e-05
1.08781e-05
1.09756e-05
1.14601e-05
1.21996e-05
1.31122e-05
1.41458e-05
1.52647e-05
1.64438e-05
1.76656e-05
1.89185e-05
2.01959e-05
2.14955e-05
2.28197e-05
2.41749e-05
2.55722e-05
2.70272e-05
2.85606e-05
3.01986e-05
3.19734e-05
3.39242e-05
3.60975e-05
3.85487e-05
4.13432e-05
4.45579e-05
4.82829e-05
5.26235e-05
5.77028e-05
6.36641e-05
7.06745e-05
7.89275e-05
8.86479e-05
0.000100095
0.000113569
0.000129416
0.000148031
0.000169869
0.00019545
0.000225367
0.000260294
0.000300996
0.000348338
0.000403295
0.000466962
0.000540563
0.00062546
0.000723153
0.000835288
0.00096365
0.00111015
0.00127681
0.00146571
0.00167899
0.00191871
0.00218685
0.00248517
0.00281507
0.00317754
0.00357294
0.00400091
0.00446019
0.00494857
0.00546275
0.00599835
0.00654992
0.00711104
0.00767456
0.00823279
0.00877784
0.00930201
0.00979817
0.0102601
0.0106829
0.0110631
0.011399
0.0116905
0.0119392
0.0121481
0.0123219
0.0124656
0.0125854
0.0126891
0.0127823
0.0128689
0.0129549
0.013047
0.0131499
0.013267
0.0134014
0.013555
0.0137288
0.0139231
0.014137
0.0143689
0.0146159
0.0148744
0.0151396
0.0154052
0.0156647
0.0159103
0.0161317
0.0163178
0.0164524
0.0165145
0.0165152
0.0164262
0.0162341
0.0159273
0.0154967
0.0149367
0.0142471
0.0134331
0.0125068
0.0114867
0.0103979
0.00927
0.0081355
0.00702678
0.00597346
0.00499989
0.0041235
0.00335411
0.00269441
0.00214131
0.00168793
0.00132594
0.00104809
0.000851061
0.000740077
0.000740385
0.000946211
0.00194295
4.19062e-05
2.01641e-05
1.46079e-05
1.25275e-05
1.18066e-05
1.17881e-05
1.21888e-05
1.28658e-05
1.37302e-05
1.47256e-05
1.58138e-05
1.69678e-05
1.81692e-05
1.94054e-05
2.06698e-05
2.196e-05
2.32788e-05
2.46331e-05
2.60347e-05
2.75005e-05
2.90524e-05
3.07184e-05
3.25325e-05
3.45363e-05
3.67793e-05
3.93205e-05
4.22295e-05
4.55886e-05
4.94942e-05
5.40598e-05
5.94183e-05
6.57251e-05
7.31619e-05
8.19405e-05
9.23075e-05
0.000104549
0.000118998
0.000136036
0.000156108
0.000179721
0.00020746
0.000239993
0.000278082
0.000322592
0.000374507
0.000434933
0.000505116
0.000586447
0.000680471
0.00078889
0.00091356
0.00105649
0.0012198
0.00140572
0.00161654
0.0018545
0.00212177
0.00242031
0.00275173
0.0031172
0.00351723
0.00395156
0.00441896
0.00491715
0.00544263
0.0059907
0.00655544
0.00712985
0.00770605
0.00827557
0.00882969
0.0093599
0.00985834
0.0103182
0.0107342
0.0111027
0.011422
0.0116925
0.0119161
0.012097
0.0122398
0.0123516
0.012441
0.0125141
0.012574
0.0126289
0.0126869
0.0127535
0.0128334
0.0129304
0.0130477
0.0131872
0.0133502
0.0135373
0.0137479
0.0139808
0.0142341
0.0145048
0.0147894
0.015083
0.0153801
0.0156737
0.0159558
0.0162175
0.0164501
0.016642
0.0167726
0.0168263
0.0168051
0.0166834
0.0164478
0.0160865
0.0155907
0.0149566
0.014186
0.0132873
0.0122766
0.0111772
0.0100189
0.00883587
0.0076638
0.00653687
0.00548456
0.00452933
0.00368537
0.00295857
0.00234784
0.00184709
0.00144794
0.00114257
0.000927072
0.000806634
0.00080812
0.001034
0.00212351
4.63677e-05
2.22827e-05
1.6081e-05
1.37025e-05
1.28103e-05
1.26819e-05
1.30074e-05
1.3631e-05
1.4457e-05
1.54246e-05
1.64925e-05
1.7632e-05
1.88231e-05
2.00529e-05
2.13141e-05
2.26047e-05
2.39276e-05
2.52906e-05
2.67064e-05
2.8193e-05
2.9774e-05
3.14794e-05
3.33455e-05
3.54168e-05
3.77462e-05
4.03967e-05
4.34433e-05
4.6974e-05
5.10932e-05
5.59234e-05
6.16087e-05
6.83186e-05
7.62514e-05
8.56397e-05
9.67548e-05
0.000109913
0.000125483
0.000143891
0.000165632
0.000191275
0.000221476
0.000256987
0.000298668
0.000347497
0.000404584
0.000471183
0.000548702
0.000638714
0.000742959
0.00086335
0.00100196
0.00116102
0.00134287
0.00154993
0.00178462
0.00204929
0.00234611
0.00267691
0.00304307
0.0034453
0.00388349
0.00435652
0.0048621
0.00539664
0.0059552
0.00653149
0.00711801
0.0077062
0.00828683
0.00885036
0.00938747
0.0098895
0.010349
0.0107602
0.0111191
0.0114242
0.0116759
0.0118768
0.0120313
0.0121458
0.0122274
0.0122874
0.0123272
0.0123551
0.0123802
0.012409
0.0124482
0.0125029
0.0125766
0.0126726
0.0127929
0.0129388
0.0131109
0.013309
0.0135322
0.0137791
0.0140475
0.0143347
0.0146372
0.0149508
0.0152704
0.01559
0.0159022
0.0161988
0.0164701
0.0167051
0.0168911
0.0170114
0.0170535
0.0170074
0.0168493
0.0165667
0.0161473
0.0155839
0.014874
0.0140217
0.0130391
0.0119471
0.0107743
0.00955551
0.00832925
0.00713402
0.00600472
0.00496948
0.00404766
0.00324929
0.002576
0.00202311
0.00158253
0.00124605
0.00100922
0.000877188
0.000878302
0.00112339
0.0023062
5.10403e-05
2.45048e-05
1.76331e-05
1.49506e-05
1.38886e-05
1.36553e-05
1.39131e-05
1.44914e-05
1.52882e-05
1.62373e-05
1.72943e-05
1.84286e-05
1.96189e-05
2.08515e-05
2.21187e-05
2.34185e-05
2.47544e-05
2.61348e-05
2.75737e-05
2.90905e-05
3.07107e-05
3.24664e-05
3.43968e-05
3.65495e-05
3.89814e-05
4.17605e-05
4.49672e-05
4.86969e-05
5.30623e-05
5.81965e-05
6.42565e-05
7.14271e-05
7.99259e-05
9.00084e-05
0.000101974
0.000116173
0.000133014
0.000152971
0.000176598
0.00020453
0.000237504
0.000276365
0.000322078
0.000375746
0.000438621
0.000512112
0.000597806
0.000697465
0.00081304
0.00094666
0.00110062
0.00127737
0.00147944
0.00170941
0.00196981
0.00226301
0.00259108
0.00295562
0.00335759
0.00379709
0.00427317
0.00478362
0.00532487
0.00589185
0.006478
0.00707538
0.00767487
0.00826653
0.00884002
0.00938516
0.00989249
0.0103538
0.0107627
0.011115
0.0114087
0.0116446
0.0118255
0.0119565
0.0120437
0.0121017
0.0121287
0.0121357
0.0121335
0.0121298
0.0121306
0.0121411
0.0121687
0.0122172
0.0122891
0.0123866
0.012511
0.0126627
0.0128416
0.0130472
0.0132783
0.0135333
0.0138101
0.0141062
0.0144187
0.014744
0.0150776
0.0154146
0.0157486
0.0160723
0.0163771
0.0166532
0.0168884
0.0170679
0.0171686
0.0171945
0.0171255
0.0169292
0.0165966
0.0161173
0.0154843
0.0146967
0.0137617
0.0126962
0.0115265
0.0102869
0.00901775
0.00776156
0.00655869
0.00544348
0.00444132
0.00356729
0.00282663
0.00221675
0.00173032
0.00135898
0.0010978
0.000951958
0.000951095
0.00121461
0.00249146
5.59348e-05
2.6835e-05
1.92667e-05
1.6273e-05
1.50417e-05
1.47078e-05
1.49043e-05
1.54446e-05
1.62204e-05
1.71596e-05
1.82147e-05
1.93526e-05
2.05507e-05
2.17944e-05
2.30759e-05
2.43933e-05
2.57503e-05
2.71565e-05
2.86269e-05
3.01829e-05
3.18519e-05
3.36685e-05
3.56751e-05
3.7923e-05
4.04736e-05
4.34003e-05
4.67899e-05
5.07459e-05
5.53906e-05
6.08687e-05
6.73517e-05
7.50418e-05
8.41778e-05
9.50409e-05
0.000107962
0.000123328
0.000141592
0.000163284
0.000189019
0.000219508
0.000255575
0.000298167
0.000348367
0.000407412
0.000476706
0.000557829
0.000652553
0.000762847
0.000890874
0.00103898
0.00120969
0.00140565
0.00162956
0.00188412
0.00217189
0.00249519
0.00285587
0.00325516
0.0036934
0.00416991
0.00468265
0.00522816
0.00580136
0.00639554
0.00700244
0.00761249
0.00821509
0.00879914
0.00935361
0.00986816
0.0103338
0.0107434
0.0110922
0.0113781
0.0116016
0.011766
0.0118763
0.0119426
0.0119711
0.0119723
0.0119491
0.011917
0.0118832
0.0118551
0.0118419
0.0118407
0.0118617
0.0119081
0.0119808
0.0120808
0.0122087
0.0123643
0.0125471
0.012756
0.0129898
0.013247
0.0135258
0.013824
0.0141392
0.0144685
0.0148086
0.0151552
0.0155033
0.0158467
0.016178
0.0164885
0.0167674
0.0170012
0.017174
0.0172573
0.0172652
0.0171688
0.0169333
0.0165492
0.0160075
0.0153017
0.0144332
0.0134139
0.0122661
0.0110224
0.00972384
0.00841608
0.00714482
0.00595103
0.0048669
0.00391354
0.0031008
0.002429
0.00189211
0.00148194
0.00119318
0.00103123
0.00102673
0.00130791
0.00267989
6.10631e-05
2.9279e-05
2.09855e-05
1.7672e-05
1.62707e-05
1.58395e-05
1.59804e-05
1.64896e-05
1.7252e-05
1.81893e-05
1.92504e-05
2.04001e-05
2.16141e-05
2.2877e-05
2.41805e-05
2.55231e-05
2.6909e-05
2.83487e-05
2.9859e-05
3.14627e-05
3.31898e-05
3.50779e-05
3.71726e-05
3.95296e-05
4.22152e-05
4.53087e-05
4.89045e-05
5.31147e-05
5.80723e-05
6.39354e-05
7.0891e-05
7.91609e-05
8.90073e-05
0.00010074
0.000114724
0.000131387
0.000151234
0.000174852
0.000202924
0.000236247
0.000275739
0.000322457
0.000377614
0.000442591
0.000518954
0.000608468
0.0007131
0.000835031
0.000976642
0.0011405
0.00132934
0.00154598
0.00179326
0.00207394
0.00239055
0.00274522
0.00313946
0.00357394
0.00404825
0.00456066
0.00510789
0.00568499
0.00628521
0.00690015
0.00751984
0.00813317
0.00872832
0.00929344
0.00981726
0.0102899
0.0107034
0.0110523
0.0113343
0.0115494
0.0117008
0.0117947
0.0118396
0.011848
0.0118189
0.0117714
0.0117108
0.0116487
0.0115923
0.0115483
0.0115262
0.01152
0.0115382
0.0115851
0.0116595
0.0117618
0.0118919
0.0120489
0.0122321
0.0124403
0.0126722
0.0129264
0.0132015
0.0134959
0.0138077
0.0141348
0.0144748
0.0148243
0.0151797
0.0155359
0.0158868
0.0162249
0.0165409
0.0168226
0.0170562
0.0172203
0.0172927
0.0172797
0.0171537
0.0168757
0.0164371
0.0158281
0.0150439
0.0140902
0.0129839
0.0117543
0.0104416
0.00909371
0.00776115
0.00649165
0.0053249
0.00428909
0.00339975
0.002661
0.00206883
0.00161563
0.00129589
0.00111534
0.0011055
0.00140362
0.00287217
6.64385e-05
3.18428e-05
2.27932e-05
1.91502e-05
1.75774e-05
1.70515e-05
1.71417e-05
1.7626e-05
1.83821e-05
1.9325e-05
2.03998e-05
2.15688e-05
2.28063e-05
2.40958e-05
2.54288e-05
2.68039e-05
2.8226e-05
2.97069e-05
3.12648e-05
3.29248e-05
3.47194e-05
3.66894e-05
3.88843e-05
4.13644e-05
4.42016e-05
4.74818e-05
5.13076e-05
5.58007e-05
6.11062e-05
6.73964e-05
7.4876e-05
8.37881e-05
9.44208e-05
0.000107115
0.000122274
0.000140371
0.000161964
0.000187705
0.000218356
0.0002548
0.00029806
0.000349316
0.000409915
0.000481397
0.000565502
0.000664185
0.000779619
0.000914201
0.00107053
0.0012514
0.0014597
0.00169843
0.0019705
0.00227866
0.00262531
0.00301226
0.00344053
0.00391007
0.00441949
0.00496584
0.00554438
0.00614851
0.00676977
0.00739799
0.00802161
0.00862824
0.00920518
0.00974028
0.0102227
0.0106434
0.0109963
0.0112782
0.0114892
0.0116323
0.0117116
0.0117417
0.0117282
0.0116778
0.0116038
0.0115184
0.0114292
0.0113458
0.0112748
0.0112221
0.011196
0.0111885
0.0112068
0.0112555
0.0113318
0.0114356
0.0115659
0.0117219
0.0119025
0.0121063
0.0123324
0.0125796
0.0128467
0.0131327
0.0134364
0.0137564