/*--------------------------------*- C++ -*----------------------------------*\
  =========                 |
  \\      /  F ield         | OpenFOAM: The Open Source CFD Toolbox
   \\    /   O peration     | Website:  https://openfoam.org
    \\  /    A nd           | Version:  12
     \\/     M anipulation  |
\*---------------------------------------------------------------------------*/
FoamFile
{
    format      ascii;
    class       volScalarField;
    location    "5.5";
    object      k;
}
// * * * * * * * * * * * * * * * * * * * * * * * * * * * * * * * * * * * * * //

dimensions      [0 2 -2 0 0 0 0];

internalField   nonuniform List<scalar> 
18225
(
2.21186e-10
1.49693e-09
3.33706e-09
5.53549e-09
7.99682e-09
1.06602e-08
1.34797e-08
1.64169e-08
1.94384e-08
2.25141e-08
2.56171e-08
2.87238e-08
3.18142e-08
3.48726e-08
3.7888e-08
4.08548e-08
4.37734e-08
4.66506e-08
4.95003e-08
5.23437e-08
5.52101e-08
5.8137e-08
6.11707e-08
6.43668e-08
6.77909e-08
7.15188e-08
7.5638e-08
8.02476e-08
8.546e-08
9.14013e-08
9.82124e-08
1.0605e-07
1.15088e-07
1.25516e-07
1.37544e-07
1.514e-07
1.67329e-07
1.85599e-07
2.06491e-07
2.30309e-07
2.57372e-07
2.88015e-07
3.22587e-07
3.61453e-07
4.04985e-07
4.53569e-07
5.07598e-07
5.67468e-07
6.33583e-07
7.06346e-07
7.86162e-07
8.73431e-07
9.68549e-07
1.0719e-06
1.18387e-06
1.3048e-06
1.43505e-06
1.57493e-06
1.72473e-06
1.88473e-06
2.05517e-06
2.23626e-06
2.42818e-06
2.63108e-06
2.84508e-06
3.07028e-06
3.30675e-06
3.55451e-06
3.81358e-06
4.08395e-06
4.36559e-06
4.65842e-06
4.96237e-06
5.27732e-06
5.60313e-06
5.93962e-06
6.28658e-06
6.64376e-06
7.01087e-06
7.38753e-06
7.77332e-06
8.16773e-06
8.57014e-06
8.97982e-06
9.3959e-06
9.81736e-06
1.0243e-05
1.06713e-05
1.11007e-05
1.15291e-05
1.19544e-05
1.23738e-05
1.27843e-05
1.31824e-05
1.35641e-05
1.39252e-05
1.42607e-05
1.45652e-05
1.48324e-05
1.50558e-05
1.52282e-05
1.53363e-05
1.53811e-05
1.53729e-05
1.52839e-05
1.51096e-05
1.48474e-05
1.44956e-05
1.40541e-05
1.35245e-05
1.29112e-05
1.22213e-05
1.14646e-05
1.06533e-05
9.80197e-06
8.92663e-06
8.04401e-06
7.17072e-06
6.32242e-06
5.51292e-06
4.75363e-06
4.05311e-06
3.41688e-06
2.84751e-06
2.34487e-06
1.90657e-06
1.52843e-06
1.20507e-06
9.30298e-07
6.97763e-07
5.01428e-07
3.36127e-07
1.98395e-07
8.80274e-08
1.29828e-08
1.67187e-09
1.33322e-08
2.99459e-08
4.97566e-08
7.19246e-08
9.59075e-08
1.21293e-07
1.47737e-07
1.74939e-07
2.02627e-07
2.30561e-07
2.58527e-07
2.86346e-07
3.13875e-07
3.41016e-07
3.67719e-07
3.93986e-07
4.19879e-07
4.45523e-07
4.71109e-07
4.969e-07
5.23233e-07
5.50525e-07
5.79277e-07
6.10078e-07
6.43611e-07
6.80663e-07
7.22127e-07
7.69012e-07
8.22454e-07
8.83721e-07
9.54224e-07
1.03552e-06
1.12933e-06
1.23754e-06
1.36219e-06
1.5055e-06
1.66987e-06
1.85784e-06
2.07214e-06
2.31564e-06
2.59136e-06
2.90245e-06
3.25217e-06
3.6439e-06
4.08109e-06
4.56728e-06
5.10605e-06
5.70102e-06
6.35583e-06
7.07411e-06
7.85947e-06
8.71547e-06
9.6456e-06
1.06532e-05
1.17416e-05
1.29137e-05
1.41726e-05
1.55208e-05
1.69607e-05
1.84946e-05
2.01243e-05
2.18515e-05
2.36774e-05
2.56034e-05
2.763e-05
2.9758e-05
3.19876e-05
3.43191e-05
3.67521e-05
3.92865e-05
4.19217e-05
4.46568e-05
4.74909e-05
5.04226e-05
5.34505e-05
5.65725e-05
5.97864e-05
6.30896e-05
6.64788e-05
6.99501e-05
7.34988e-05
7.71196e-05
8.08058e-05
8.45496e-05
8.83418e-05
9.21714e-05
9.60256e-05
9.98893e-05
0.000103745
0.000107572
0.000111346
0.000115041
0.000118624
0.000122061
0.000125312
0.000128333
0.000131075
0.000133483
0.000135497
0.000137045
0.000138004
0.000138391
0.000138309
0.000137496
0.000135915
0.000133544
0.00013037
0.000126389
0.000121618
0.000116096
0.000109887
0.000103078
9.57813e-05
8.81257e-05
8.02551e-05
7.23199e-05
6.4469e-05
5.68429e-05
4.95657e-05
4.27397e-05
3.64419e-05
3.07217e-05
2.56024e-05
2.1083e-05
1.7142e-05
1.37417e-05
1.08331e-05
8.36184e-06
6.27064e-06
4.505e-06
3.01822e-06
1.77872e-06
7.8343e-07
9.80876e-08
3.55211e-09
3.04597e-08
6.88609e-08
1.14655e-07
1.65891e-07
2.21314e-07
2.79972e-07
3.41073e-07
4.03921e-07
4.6789e-07
5.32421e-07
5.97023e-07
6.61279e-07
7.24862e-07
7.87542e-07
8.49201e-07
9.09847e-07
9.6962e-07
1.02881e-06
1.08785e-06
1.14736e-06
1.20811e-06
1.27106e-06
1.33737e-06
1.40839e-06
1.48572e-06
1.57115e-06
1.66675e-06
1.77486e-06
1.8981e-06
2.03938e-06
2.20197e-06
2.38948e-06
2.60586e-06
2.85547e-06
3.14303e-06
3.47368e-06
3.85294e-06
4.28671e-06
4.78128e-06
5.3433e-06
5.97973e-06
6.69786e-06
7.50526e-06
8.40973e-06
9.41926e-06
1.0542e-05
1.17864e-05
1.31606e-05
1.46733e-05
1.63327e-05
1.81473e-05
2.01254e-05
2.2275e-05
2.46041e-05
2.71201e-05
2.98302e-05
3.27413e-05
3.58594e-05
3.91904e-05
4.27393e-05
4.65106e-05
5.05083e-05
5.47357e-05
5.91953e-05
6.38893e-05
6.8819e-05
7.39855e-05
7.93889e-05
8.50291e-05
9.09054e-05
9.70164e-05
0.00010336
0.000109934
0.000116736
0.00012376
0.000131003
0.000138459
0.000146121
0.00015398
0.000162028
0.000170253
0.000178641
0.000187176
0.000195839
0.000204608
0.000213458
0.000222356
0.000231268
0.000240153
0.000248962
0.00025764
0.000266124
0.000274341
0.000282211
0.000289643
0.000296537
0.000302781
0.000308251
0.00031281
0.000316309
0.000318438
0.000319259
0.000319028
0.000317101
0.000313409
0.000307904
0.000300554
0.000291351
0.000280334
0.000267591
0.000253268
0.000237566
0.000220739
0.000203088
0.000184942
0.000166647
0.000148549
0.000130969
0.000114195
9.84623e-05
8.39479e-05
7.07662e-05
5.89701e-05
4.85571e-05
3.94772e-05
3.16439e-05
2.49445e-05
1.92519e-05
1.44344e-05
1.03661e-05
6.93948e-06
4.08163e-06
1.78636e-06
2.08006e-07
5.81158e-09
5.10784e-08
1.1603e-07
1.93588e-07
2.80385e-07
3.74276e-07
4.73646e-07
5.77149e-07
6.83604e-07
7.91952e-07
9.01245e-07
1.01065e-06
1.11945e-06
1.2271e-06
1.33321e-06
1.43756e-06
1.54018e-06
1.6413e-06
1.7414e-06
1.84124e-06
1.94183e-06
2.0445e-06
2.15086e-06
2.26288e-06
2.38285e-06
2.51345e-06
2.65774e-06
2.81921e-06
3.00181e-06
3.20996e-06
3.44864e-06
3.72335e-06
4.04019e-06
4.40588e-06
4.82778e-06
5.31392e-06
5.87298e-06
6.51433e-06
7.24798e-06
8.0846e-06
9.03546e-06
1.01124e-05
1.13278e-05
1.26945e-05
1.42257e-05
1.59351e-05
1.78366e-05
1.99442e-05
2.22724e-05
2.48355e-05
2.76479e-05
3.07238e-05
3.40776e-05
3.7723e-05
4.16735e-05
4.59422e-05
5.05414e-05
5.54829e-05
6.07774e-05
6.64348e-05
7.24642e-05
7.88735e-05
8.56695e-05
9.2858e-05
0.000100444
0.000108431
0.000116821
0.000125616
0.000134817
0.000144422
0.000154431
0.000164839
0.000175644
0.000186839
0.000198417
0.000210371
0.000222691
0.000235364
0.000248376
0.000261712
0.000275352
0.000289274
0.000303453
0.000317859
0.000332456
0.000347207
0.000362065
0.000376978
0.000391886
0.000406718
0.000421397
0.000435831
0.000449916
0.000463535
0.000476557
0.000488835
0.000500206
0.000510489
0.000519487
0.000526978
0.000532721
0.000536161
0.000537443
0.00053703
0.000533781
0.000527589
0.000518376
0.000506078
0.000490677
0.000472226
0.000450863
0.000426826
0.000400447
0.00037215
0.000342439
0.000311871
0.000281034
0.000250512
0.000220856
0.000192555
0.000166009
0.000141521
0.000119284
9.93885e-05
8.18287e-05
6.652e-05
5.33149e-05
4.20228e-05
3.24281e-05
2.43077e-05
1.74493e-05
1.16712e-05
6.85199e-06
2.98495e-06
3.39138e-07
8.38069e-09
7.43992e-08
1.69592e-07
2.83463e-07
4.10973e-07
5.48931e-07
6.94946e-07
8.47033e-07
1.00345e-06
1.16264e-06
1.32321e-06
1.48391e-06
1.64372e-06
1.8018e-06
1.95757e-06
2.11074e-06
2.26132e-06
2.40965e-06
2.55645e-06
2.7028e-06
2.85021e-06
3.00061e-06
3.15639e-06
3.32042e-06
3.49606e-06
3.68725e-06
3.89847e-06
4.13486e-06
4.4022e-06
4.70701e-06
5.05656e-06
5.45895e-06
5.92314e-06
6.45902e-06
7.07741e-06
7.7901e-06
8.60989e-06
9.55055e-06
1.06268e-05
1.18545e-05
1.325e-05
1.4831e-05
1.66157e-05
1.8623e-05
2.08725e-05
2.33844e-05
2.61793e-05
2.9278e-05
3.27017e-05
3.6472e-05
4.06101e-05
4.51374e-05
5.0075e-05
5.54438e-05
6.12639e-05
6.75549e-05
7.43355e-05
8.16233e-05
8.94348e-05
9.77851e-05
0.000106688
0.000116155
0.000126197
0.000136822
0.000148039
0.000159851
0.000172263
0.000185274
0.000198886
0.000213095
0.000227897
0.000243284
0.000259246
0.000275772
0.000292847
0.000310453
0.000328571
0.000347175
0.00036624
0.000385735
0.000405626
0.000425874
0.000446438
0.000467269
0.000488314
0.000509513
0.000530801
0.000552102
0.000573333
0.000594398
0.000615191
0.000635588
0.000655453
0.000674628
0.000692939
0.000710189
0.000726159
0.000740605
0.000753261
0.000763824
0.000771949
0.000776853
0.000778678
0.000778209
0.00077373
0.000765058
0.000752072
0.000734658
0.000712762
0.00068643
0.000655837
0.000621298
0.000583277
0.00054238
0.00049933
0.000454943
0.000410084
0.000365619
0.000322369
0.000281063
0.000242302
0.000206537
0.000174061
0.000145008
0.000119372
9.70272e-05
7.77573e-05
6.12815e-05
4.72831e-05
3.54352e-05
2.54269e-05
1.69937e-05
9.96089e-06
4.325e-06
4.86534e-07
1.12113e-08
1.00002e-07
2.28522e-07
3.8254e-07
5.5514e-07
7.41943e-07
9.39682e-07
1.14565e-06
1.35748e-06
1.57306e-06
1.79047e-06
2.00804e-06
2.22435e-06
2.43828e-06
2.64903e-06
2.8562e-06
3.05979e-06
3.26026e-06
3.45857e-06
3.6562e-06
3.85519e-06
4.05814e-06
4.26828e-06
4.48949e-06
4.72633e-06
4.98412e-06
5.26892e-06
5.58769e-06
5.94825e-06
6.35941e-06
6.83104e-06
7.3741e-06
8.00073e-06
8.72433e-06
9.55958e-06
1.05225e-05
1.16304e-05
1.29021e-05
1.43575e-05
1.60181e-05
1.79065e-05
2.00464e-05
2.24627e-05
2.51813e-05
2.8229e-05
3.16332e-05
3.54221e-05
3.96244e-05
4.42692e-05
4.93858e-05
5.50038e-05
6.11526e-05
6.78614e-05
7.51589e-05
8.30735e-05
9.16321e-05
0.000100861
0.000110785
0.000121426
0.000132807
0.000144945
0.000157858
0.000171559
0.000186061
0.000201372
0.000217496
0.000234438
0.000252195
0.000270762
0.000290131
0.000310289
0.00033122
0.000352901
0.000375307
0.000398407
0.000422166
0.000446546
0.000471501
0.000496986
0.000522947
0.00054933
0.000576075
0.000603118
0.000630392
0.000657824
0.000685339
0.000712853
0.000740275
0.000767508
0.000794442
0.000820954
0.000846906
0.000872139
0.000896476
0.000919713
0.00094162
0.000961934
0.000980361
0.000996584
0.00101021
0.00102082
0.00102746
0.00103005
0.00102983
0.00102458
0.00101388
0.000997582
0.000975486
0.000947471
0.000913543
0.000873878
0.000828848
0.000779026
0.000725186
0.000668278
0.000609389
0.000549685
0.000490349
0.000432511
0.000377181
0.000325199
0.000277201
0.000233598
0.000194587
0.000160166
0.00013017
0.000104307
8.21977e-05
6.34145e-05
4.75159e-05
3.40837e-05
2.2764e-05
1.33259e-05
5.77269e-06
6.46352e-07
1.42734e-08
1.2764e-07
2.92208e-07
4.8976e-07
7.11335e-07
9.51245e-07
1.20525e-06
1.46985e-06
1.74198e-06
2.0189e-06
2.29815e-06
2.57756e-06
2.8553e-06
3.1299e-06
3.40033e-06
3.66606e-06
3.92708e-06
4.184e-06
4.43803e-06
4.69107e-06
4.94572e-06
5.20534e-06
5.47407e-06
5.75689e-06
6.05966e-06
6.38918e-06
6.75327e-06
7.16083e-06
7.62193e-06
8.14787e-06
8.75133e-06
9.44641e-06
1.02487e-05
1.11755e-05
1.22457e-05
1.34799e-05
1.49004e-05
1.65315e-05
1.8399e-05
2.05306e-05
2.29554e-05
2.57043e-05
2.88095e-05
3.23045e-05
3.62241e-05
4.0604e-05
4.54809e-05
5.08922e-05
5.68759e-05
6.34704e-05
7.07144e-05
7.86466e-05
8.73054e-05
9.67289e-05
0.000106954
0.000118017
0.000129953
0.000142793
0.000156568
0.000171306
0.000187031
0.000203763
0.000221521
0.000240316
0.000260157
0.000281046
0.000302981
0.000325953
0.000349946
0.000374939
0.000400903
0.000427801
0.00045559
0.000484219
0.000513632
0.000543766
0.000574553
0.000605919
0.000637788
0.000670082
0.000702719
0.000735617
0.000768694
0.000801866
0.000835051
0.000868164
0.000901118
0.000933823
0.000966182
0.000998089
0.00102943
0.00106006
0.00108984
0.00111857
0.00114606
0.00117204
0.00119624
0.00121832
0.00123791
0.00125455
0.00126774
0.00127653
0.00128031
0.0012807
0.0012754
0.00126346
0.00124468
0.00121878
0.00118554
0.00114488
0.00109694
0.00104212
0.000981065
0.000914686
0.000844141
0.000770781
0.000696079
0.000621553
0.00054867
0.00047876
0.000412943
0.000352075
0.000296724
0.000247171
0.000203437
0.000165325
0.000132467
0.000104381
8.0522e-05
6.0326e-05
4.32605e-05
2.88771e-05
1.68875e-05
7.30364e-06
8.15718e-07
1.75483e-08
1.57165e-07
3.60277e-07
6.04463e-07
8.78579e-07
1.17552e-06
1.48998e-06
1.81759e-06
2.15454e-06
2.49741e-06
2.84311e-06
3.18895e-06
3.53263e-06
3.87231e-06
4.20671e-06
4.53515e-06
4.85763e-06
5.17486e-06
5.48835e-06
5.80045e-06
6.11439e-06
6.43431e-06
6.76535e-06
7.11366e-06
7.4865e-06
7.89229e-06
8.34071e-06
8.84277e-06
9.41093e-06
1.00592e-05
1.08033e-05
1.16608e-05
1.26509e-05
1.37951e-05
1.51168e-05
1.66418e-05
1.83978e-05
2.0415e-05
2.27256e-05
2.53641e-05
2.83668e-05
3.17725e-05
3.56213e-05
3.99554e-05
4.48182e-05
5.02547e-05
5.63111e-05
6.30345e-05
7.04729e-05
7.8675e-05
8.76896e-05
9.7566e-05
0.000108353
0.000120099
0.000132852
0.000146656
0.000161556
0.000177593
0.000194804
0.000213224
0.00023288
0.000253797
0.000275992
0.000299476
0.000324251
0.000350312
0.000377645
0.000406224
0.000436015
0.000466971
0.000499035
0.00053214
0.000566208
0.00060115
0.000636873
0.000673273
0.000710245
0.000747679
0.000785467
0.000823502
0.000861678
0.000899899
0.000938072
0.00097611
0.00101393
0.00105147
0.00108865
0.00112541
0.00116166
0.00119734
0.00123234
0.00126657
0.00129989
0.00133212
0.00136308
0.0013925
0.00142008
0.00144545
0.00146821
0.00148782
0.0015037
0.00151505
0.00152054
0.00152184
0.00151733
0.00150503
0.00148477
0.00145617
0.00141887
0.0013727
0.00131774
0.00125434
0.0011832
0.00110531
0.00102201
0.000934875
0.000845669
0.000756239
0.000668401
0.000583831
0.000503963
0.000429916
0.000362455
0.000301982
0.000248569
0.000202001
0.000161848
0.000127528
9.83718e-05
7.36911e-05
5.28333e-05
3.52519e-05
2.05997e-05
8.89888e-06
9.92421e-07
2.10254e-08
1.88488e-07
4.32511e-07
7.26253e-07
1.05627e-06
1.41394e-06
1.79283e-06
2.18762e-06
2.59367e-06
3.00682e-06
3.42334e-06
3.83994e-06
4.2538e-06
4.66271e-06
5.06509e-06
5.46009e-06
5.8477e-06
6.22878e-06
6.60516e-06
6.97964e-06
7.35612e-06
7.7396e-06
8.13627e-06
8.55356e-06
9.0002e-06
9.48636e-06
1.00237e-05
1.06255e-05
1.13067e-05
1.20844e-05
1.29774e-05
1.40069e-05
1.51963e-05
1.65714e-05
1.81607e-05
1.99953e-05
2.21089e-05
2.4538e-05
2.73219e-05
3.05024e-05
3.41239e-05
3.82335e-05
4.28804e-05
4.81158e-05
5.39932e-05
6.05677e-05
6.78958e-05
7.60356e-05
8.50463e-05
9.49877e-05
0.00010592
0.000117905
0.000131003
0.000145272
0.000160773
0.00017756
0.000195687
0.000215204
0.000236154
0.000258577
0.000282503
0.000307956
0.000334948
0.000363483
0.000393552
0.000425131
0.000458184
0.000492659
0.000528487
0.000565586
0.000603856
0.000643183
0.000683441
0.000724494
0.000766198
0.000808403
0.000850961
0.000893725
0.000936559
0.000979331
0.00102193
0.00106425
0.00110621
0.00114775
0.0011888
0.00122934
0.00126933
0.00130874
0.00134755
0.00138572
0.00142322
0.00145996
0.00149584
0.00153073
0.00156443
0.00159669
0.00162719
0.00165554
0.00168126
0.00170378
0.00172246
0.00173654
0.00174426
0.00174676
0.0017437
0.0017319
0.00171113
0.00168094
0.00164086
0.00159058
0.00153008
0.00145965
0.00137997
0.0012921
0.00119745
0.0010978
0.000995151
0.000891652
0.000789459
0.000690601
0.000596853
0.000509636
0.000429953
0.000358376
0.000295062
0.000239812
0.000192149
0.0001514
0.000116781
8.74743e-05
6.27044e-05
4.18242e-05
2.44263e-05
1.05433e-05
1.17472e-06
2.46989e-08
2.21564e-07
5.08794e-07
8.54916e-07
1.24408e-06
1.66606e-06
2.1132e-06
2.57917e-06
3.05846e-06
3.5461e-06
4.03765e-06
4.52916e-06
5.01729e-06
5.49936e-06
5.97351e-06
6.4387e-06
6.89491e-06
7.34315e-06
7.78555e-06
8.22546e-06
8.66746e-06
9.11749e-06
9.58284e-06
1.00723e-05
1.05962e-05
1.11665e-05
1.1797e-05
1.25035e-05
1.33036e-05
1.42173e-05
1.52672e-05
1.64781e-05
1.78779e-05
1.94973e-05
2.13699e-05
2.35326e-05
2.60258e-05
2.88927e-05
3.21802e-05
3.59383e-05
4.022e-05
4.50815e-05
5.05819e-05
5.67826e-05
6.37478e-05
7.15438e-05
8.02388e-05
8.99029e-05
0.000100607
0.000112425
0.000125429
0.000139692
0.000155289
0.00017229
0.000190766
0.000210783
0.000232404
0.000255685
0.000280676
0.000307417
0.000335938
0.000366255
0.000398371
0.000432273
0.000467928
0.000505286
0.000544274
0.000584798
0.000626743
0.000669972
0.000714329
0.000759641
0.000805721
0.000852376
0.000899406
0.000946614
0.000993812
0.00104082
0.0010875
0.0011337
0.00117931
0.00122427
0.00126852
0.00131204
0.00135482
0.00139689
0.00143827
0.001479
0.00151913
0.00155866
0.0015976
0.00163593
0.00167358
0.00171041
0.00174626
0.00178085
0.00181385
0.00184484
0.0018733
0.0018986
0.00192004
0.00193683
0.00194712
0.00195105
0.00194982
0.00193921
0.00191879
0.00188806
0.00184643
0.00179348
0.00172904
0.00165333
0.00156694
0.00147092
0.00136674
0.00125626
0.00114168
0.00102541
0.000909892
0.000797514
0.000690402
0.00059031
0.000498525
0.000415833
0.000342526
0.000278459
0.00022314
0.000175822
0.000135613
0.000101572
7.27989e-05
4.85446e-05
2.8339e-05
1.22251e-05
1.36126e-06
2.85671e-08
2.5638e-07
5.89089e-07
9.90377e-07
1.44187e-06
1.93167e-06
2.45083e-06
2.99194e-06
3.54852e-06
4.11477e-06
4.68545e-06
5.25592e-06
5.82227e-06
6.38134e-06
6.9309e-06
7.46975e-06
7.99785e-06
8.51634e-06
9.02773e-06
9.53591e-06
1.00462e-05
1.05655e-05
1.11024e-05
1.1667e-05
1.22714e-05
1.29295e-05
1.36573e-05
1.44732e-05
1.53977e-05
1.64542e-05
1.76688e-05
1.90706e-05
2.0692e-05
2.2569e-05
2.47408e-05
2.72508e-05
3.01459e-05
3.34772e-05
3.72996e-05
4.16718e-05
4.66564e-05
5.23196e-05
5.87311e-05
6.59637e-05
7.40932e-05
8.31982e-05
9.33599e-05
0.000104661
0.000117187
0.000131024
0.000146259
0.000162979
0.000181271
0.000201219
0.000222904
0.000246403
0.000271787
0.000299116
0.000328443
0.000359803
0.00039322
0.000428695
0.000466211
0.000505727
0.000547177
0.000590464
0.000635467
0.000682034
0.000729986
0.000779117
0.000829202
0.000879998
0.00093125
0.000982703
0.00103411
0.00108522
0.00113584
0.00118576
0.00123484
0.00128298
0.00133009
0.00137614
0.00142116
0.00146518
0.00150828
0.00155055
0.00159209
0.00163302
0.00167344
0.00171342
0.00175301
0.00179221
0.00183098
0.00186919
0.00190668
0.00194315
0.00197825
0.00201151
0.00204238
0.00207018
0.00209414
0.00211344
0.0021264
0.00213202
0.00213253
0.0021237
0.00210432
0.00207396
0.00203196
0.00197774
0.00191101
0.00183184
0.00174073
0.00163862
0.00152697
0.00140766
0.001283
0.00115558
0.00102811
0.000903306
0.000783631
0.000671201
0.000567626
0.000473957
0.000390674
0.000317733
0.000254661
0.000200668
0.000154771
0.000115909
8.30624e-05
5.53763e-05
3.23167e-05
1.39352e-05
1.55103e-06
3.2631e-08
2.92948e-07
6.73423e-07
1.13267e-06
1.64968e-06
2.21081e-06
2.80573e-06
3.4259e-06
4.06382e-06
4.71276e-06
5.36664e-06
6.02009e-06
6.66853e-06
7.30832e-06
7.93685e-06
8.55272e-06
9.15585e-06
9.74758e-06
1.03308e-05
1.09099e-05
1.14911e-05
1.20824e-05
1.26934e-05
1.3336e-05
1.4024e-05
1.47734e-05
1.56026e-05
1.65326e-05
1.75871e-05
1.87931e-05
2.01804e-05
2.17827e-05
2.36373e-05
2.57857e-05
2.82732e-05
3.115e-05
3.44705e-05
3.82939e-05
4.26838e-05
4.77086e-05
5.34411e-05
5.99584e-05
6.73418e-05
7.56765e-05
8.50511e-05
9.55577e-05
0.000107291
0.000120349
0.000134831
0.000150839
0.000168473
0.000187835
0.000209025
0.000232141
0.000257274
0.00028451
0.000313923
0.000345577
0.000379518
0.000415775
0.000454352
0.000495229
0.000538356
0.000583649
0.000630991
0.000680229
0.000731171
0.000783593
0.000837237
0.000891817
0.000947027
0.00100255
0.00105806
0.00111326
0.00116784
0.00122155
0.00127417
0.00132553
0.00137551
0.00142405
0.00147114
0.00151684
0.00156124
0.00160447
0.00164669
0.00168809
0.00172884
0.00176912
0.00180909
0.00184886
0.00188851
0.00192805
0.00196746
0.00200659
0.00204525
0.00208314
0.00211987
0.00215495
0.00218777
0.00221764
0.00224374
0.00226515
0.00228062
0.00228817
0.00229006
0.00228343
0.00226563
0.00223646
0.00219515
0.00214101
0.0020736
0.00199283
0.00189902
0.00179299
0.00167607
0.00155012
0.00141744
0.00128074
0.00114295
0.00100703
0.000875811
0.000751767
0.000636869
0.000532479
0.00043932
0.000357501
0.000286618
0.000225868
0.000174197
0.00013044
9.34597e-05
6.22948e-05
3.63448e-05
1.56673e-05
1.7433e-06
3.68943e-08
3.31302e-07
7.6187e-07
1.28191e-06
1.86767e-06
2.50367e-06
3.17815e-06
3.88133e-06
4.60465e-06
5.34037e-06
6.08152e-06
6.82193e-06
7.55634e-06
8.28053e-06
8.99151e-06
9.68767e-06
1.03689e-05
1.10367e-05
1.16944e-05
1.2347e-05
1.30017e-05
1.36674e-05
1.43552e-05
1.50786e-05
1.58533e-05
1.66974e-05
1.76321e-05
1.8681e-05
1.98714e-05
2.12336e-05
2.2802e-05
2.46148e-05
2.67147e-05
2.91489e-05
3.19696e-05
3.5234e-05
3.90046e-05
4.33492e-05
4.83413e-05
5.40594e-05
6.05875e-05
6.80145e-05
7.64345e-05
8.59459e-05
9.66515e-05
0.000108658
0.000122075
0.000137016
0.000153596
0.000171932
0.00019214
0.000214337
0.000238636
0.000265146
0.000293967
0.00032519
0.000358892
0.000395131
0.000433943
0.000475338
0.000519292
0.00056575
0.000614612
0.00066574
0.000718948
0.000774006
0.000830641
0.000888538
0.000947349
0.0010067
0.0010662
0.00112547
0.00118412
0.0012418
0.0012982
0.00135307
0.00140622
0.00145751
0.0015069
0.00155441
0.00160014
0.00164422
0.00168686
0.00172829
0.00176875
0.00180851
0.00184781
0.00188688
0.0019259
0.00196503
0.00200434
0.00204384
0.00208347
0.00212309
0.00216246
0.00220128
0.00223911
0.00227544
0.00230965
0.00234102
0.00236874
0.00239186
0.00240936
0.00241881
0.00242189
0.00241761
0.00240186
0.00237456
0.00233491
0.00228211
0.00221555
0.00213497
0.00204048
0.0019327
0.00181278
0.00168243
0.00154391
0.00139995
0.00125359
0.00110805
0.000966459
0.000831663
0.000706019
0.000591249
0.000488372
0.000397712
0.000318977
0.000251395
0.00019387
0.000145146
0.000103973
6.92871e-05
4.0415e-05
1.74178e-05
1.93765e-06
4.13624e-08
3.71493e-07
8.54547e-07
1.43829e-06
2.09611e-06
2.8106e-06
3.56849e-06
4.35872e-06
5.17156e-06
5.99821e-06
6.83075e-06
7.66212e-06
8.48634e-06
9.29859e-06
1.00955e-05
1.08751e-05
1.16375e-05
1.23842e-05
1.3119e-05
1.38476e-05
1.45781e-05
1.53207e-05
1.60878e-05
1.68948e-05
1.77592e-05
1.87018e-05
1.9746e-05
2.09189e-05
2.22511e-05
2.37769e-05
2.55351e-05
2.7569e-05
2.99269e-05
3.26624e-05
3.58347e-05
3.95087e-05
4.37557e-05
4.8653e-05
5.42841e-05
6.0739e-05
6.81136e-05
7.65099e-05
8.60354e-05
9.68031e-05
0.000108931
0.000122541
0.00013776
0.000154717
0.000173544
0.000194374
0.000217339
0.000242569
0.00027019
0.00030032
0.000333067
0.000368522
0.000406757
0.000447818
0.000491722
0.000538448
0.000587933
0.000640068
0.000694693
0.000751592
0.000810498
0.000871086
0.000932987
0.000995785
0.00105904
0.00112228
0.00118505
0.00124689
0.00130739
0.00136618
0.00142298
0.00147755
0.00152977
0.00157959
0.00162706
0.00167232
0.00171557
0.00175707
0.00179711
0.00183603
0.00187415
0.0019118
0.00194927
0.00198681
0.00202461
0.00206282
0.00210149
0.00214061
0.0021801
0.00221977
0.00225938
0.00229856
0.0023369
0.00237385
0.0024088
0.00244105
0.0024698
0.00249414
0.00251312
0.00252435
0.00252852
0.00252651
0.00251316
0.00248833
0.0024512
0.00240087
0.00233658
0.00225786
0.0021646
0.00205717
0.00193645
0.00180396
0.00166181
0.00151265
0.00135959
0.001206
0.00105531
0.000910713
0.000774978
0.000650226
0.000537829
0.000438379
0.000351759
0.000277269
0.000213801
0.00016003
0.000114603
7.63503e-05
4.45249e-05
1.91853e-05
2.13394e-06
4.6043e-08
4.1359e-07
9.51611e-07
1.60207e-06
2.33537e-06
3.13208e-06
3.97735e-06
4.85876e-06
5.76533e-06
6.68715e-06
7.61523e-06
8.54163e-06
9.45954e-06
1.03635e-05
1.12498e-05
1.21161e-05
1.29625e-05
1.37908e-05
1.46053e-05
1.54124e-05
1.62211e-05
1.7043e-05
1.78921e-05
1.87854e-05
1.97428e-05
2.07873e-05
2.19456e-05
2.32478e-05
2.4728e-05
2.64251e-05
2.83825e-05
3.06489e-05
3.32785e-05
3.63318e-05
3.98754e-05
4.39828e-05
4.87344e-05
5.42178e-05
6.05276e-05
6.77658e-05
7.60415e-05
8.54703e-05
9.61749e-05
0.000108284
0.000121931
0.000137255
0.000154401
0.000173514
0.000194744
0.000218239
0.000244147
0.000272612
0.00030377
0.000337746
0.000374648
0.000414564
0.000457553
0.000503641
0.000552812
0.000605003
0.000660095
0.000717912
0.000778211
0.000840687
0.000904971
0.000970634
0.0010372
0.00110414
0.00117092
0.001237
0.00130185
0.00136498
0.00142597
0.00148447
0.00154024
0.00159313
0.0016431
0.00169023
0.0017347
0.00177674
0.00181671
0.00185495
0.00189187
0.00192789
0.00196339
0.00199873
0.0020342
0.00207006
0.00210649
0.00214359
0.00218139
0.00221985
0.00225883
0.00229812
0.00233744
0.00237643
0.00241464
0.00245156
0.0024866
0.00251907
0.00254824
0.00257325
0.00259321
0.00260607
0.00261132
0.0026113
0.00260064
0.00257876
0.00254486
0.00249797
0.00243719
0.00236183
0.00227156
0.00216641
0.002047
0.00191454
0.0017709
0.00161861
0.00146073
0.00130073
0.00114226
0.00098888
0.00084376
0.000709461
0.000587759
0.000479579
0.000385033
0.000303543
0.00023403
0.000175118
0.000125363
8.34914e-05
4.86772e-05
2.09708e-05
2.33224e-06
5.09449e-08
4.57672e-07
1.05325e-06
1.77356e-06
2.5859e-06
3.4687e-06
4.40547e-06
5.38231e-06
6.38696e-06
7.40827e-06
8.43617e-06
9.46171e-06
1.04772e-05
1.14767e-05
1.24557e-05
1.34119e-05
1.43453e-05
1.5258e-05
1.61546e-05
1.70426e-05
1.7932e-05
1.88356e-05
1.97692e-05
2.07517e-05
2.18054e-05
2.29559e-05
2.42328e-05
2.56698e-05
2.73051e-05
2.91817e-05
3.13483e-05
3.38593e-05
3.67754e-05
4.01641e-05
4.41004e-05
4.86667e-05
5.39533e-05
6.00587e-05
6.70896e-05
7.5161e-05
8.4396e-05
9.49252e-05
0.000106887
0.000120427
0.000135696
0.000152852
0.000172055
0.00019347
0.000217264
0.000243601
0.000272643
0.000304546
0.000339452
0.000377489
0.000418763
0.000463347
0.000511282
0.000562558
0.000617116
0.000674834
0.000735522
0.000798916
0.000864679
0.000932397
0.00100159
0.0010717
0.00114216
0.00121233
0.00128158
0.00134932
0.00141498
0.00147806
0.00153816
0.00159501
0.00164844
0.00169842
0.00174504
0.00178851
0.00182914
0.00186732
0.0019035
0.00193814
0.00197173
0.00200473
0.00203755
0.00207055
0.00210401
0.00213816
0.00217314
0.00220901
0.00224575
0.00228326
0.00232137
0.00235984
0.00239838
0.00243661
0.00247411
0.00251038
0.00254488
0.00257698
0.00260599
0.00263115
0.00265159
0.00266586
0.0026725
0.00267384
0.00266614
0.00264754
0.00261743
0.00257477
0.00251852
0.0024478
0.00236202
0.00226089
0.00214469
0.00201428
0.00187123
0.00171781
0.00155698
0.00139221
0.00122734
0.00106622
0.000912458
0.000769069
0.000638288
0.000521432
0.000418905
0.000330306
0.000254621
0.000190453
0.000136281
9.07255e-05
5.28796e-05
2.27772e-05
2.53289e-06
5.60787e-08
5.03836e-07
1.15968e-06
1.95313e-06
2.84822e-06
3.82117e-06
4.8537e-06
5.93042e-06
7.03762e-06
8.1629e-06
9.29499e-06
1.04239e-05
1.1541e-05
1.26397e-05
1.37149e-05
1.47643e-05
1.57875e-05
1.67873e-05
1.77687e-05
1.874e-05
1.97124e-05
2.07002e-05
2.1721e-05
2.27958e-05
2.39492e-05
2.52098e-05
2.66104e-05
2.81883e-05
2.99858e-05
3.2051e-05
3.44377e-05
3.72064e-05
4.04248e-05
4.41682e-05
4.85201e-05
5.35726e-05
5.94267e-05
6.61928e-05
7.39903e-05
8.29483e-05
9.32047e-05
0.000104907
0.000118209
0.000133275
0.000150274
0.000169383
0.00019078
0.000214649
0.000241172
0.000270531
0.000302898
0.000338438
0.000377297
0.000419601
0.000465442
0.000514875
0.000567905
0.000624479
0.000684477
0.000747701
0.000813874
0.00088263
0.000953516
0.001026
0.00109948
0.00117328
0.00124671
0.00131905
0.00138962
0.00145776
0.00152291
0.00158462
0.00164254
0.0016965
0.00174645
0.00179251
0.00183492
0.00187405
0.00191034
0.0019443
0.0019765
0.00200747
0.00203774
0.00206779
0.00209804
0.00212881
0.00216036
0.00219284
0.00222635
0.00226089
0.00229639
0.00233269
0.00236961
0.00240687
0.00244416
0.00248114
0.0025174
0.0025525
0.00258593
0.00261713
0.00264552
0.00267039
0.00269096
0.00270629
0.00271433
0.00271678
0.00271207
0.00269697
0.002671
0.00263314
0.00258217
0.00251709
0.00243703
0.00234139
0.00223007
0.00210355
0.00196299
0.00181036
0.00164839
0.0014805
0.00131061
0.00114284
0.000981205
0.000829206
0.000689578
0.000564094
0.000453512
0.000357668
0.000275659
0.000206096
0.000147394
9.80752e-05
5.71435e-05
2.4609e-05
2.73636e-06
6.14562e-08
5.52189e-07
1.27116e-06
2.14121e-06
3.12295e-06
4.19027e-06
5.32304e-06
6.50423e-06
7.71867e-06
8.95254e-06
1.01933e-05
1.14299e-05
1.26528e-05
1.38544e-05
1.50294e-05
1.61751e-05
1.72912e-05
1.83807e-05
1.94494e-05
2.05065e-05
2.15644e-05
2.2639e-05
2.37498e-05
2.492e-05
2.61769e-05
2.75521e-05
2.90817e-05
3.08069e-05
3.27747e-05
3.50381e-05
3.76566e-05
4.06972e-05
4.42351e-05
4.83538e-05
5.31461e-05
5.87142e-05
6.51709e-05
7.26389e-05
8.12517e-05
9.11531e-05
0.000102497
0.000115448
0.000130179
0.000146871
0.000165714
0.000186903
0.000210636
0.000237113
0.000266534
0.000299094
0.000334974
0.000374346
0.000417352
0.000464108
0.000514687
0.000569111
0.000627339
0.000689259
0.000754673
0.000823294
0.000894736
0.000968516
0.00104406
0.00112069
0.0011977
0.00127428
0.00134966
0.00142304
0.00149369
0.00156097
0.00162434
0.00168342
0.00173799
0.001788
0.00183356
0.00187496
0.0019126
0.00194698
0.00197871
0.00200839
0.00203667
0.00206411
0.00209127
0.0021186
0.00214649
0.00217524
0.00220501
0.00223591
0.00226797
0.00230111
0.00233522
0.00237011
0.00240555
0.00244127
0.00247697
0.0025123
0.00254692
0.00258042
0.00261238
0.00264229
0.00266963
0.00269381
0.00271418
0.00273004
0.00273952
0.00274305
0.00274121
0.0027297
0.00270798
0.00267523
0.00263006
0.0025713
0.00249788
0.00240889
0.00230384
0.00218277
0.00204644
0.00189639
0.00173503
0.00156564
0.00139213
0.00121884
0.00105014
0.000890037
0.000741807
0.000607735
0.000489008
0.000385757
0.000297242
0.000222117
0.000158749
0.000105568
6.14836e-05
2.64722e-05
2.9433e-06
6.70907e-08
6.0285e-07
1.38794e-06
2.33823e-06
3.41073e-06
4.57688e-06
5.81458e-06
7.10508e-06
8.4316e-06
9.77887e-06
1.1133e-05
1.24817e-05
1.38145e-05
1.5123e-05
1.64014e-05
1.76466e-05
1.88586e-05
2.00406e-05
2.11993e-05
2.23446e-05
2.34906e-05
2.46546e-05
2.58584e-05
2.71274e-05
2.84918e-05
2.99863e-05
3.16506e-05
3.35304e-05
3.5677e-05
3.81489e-05
4.10119e-05
4.434e-05
4.82159e-05
5.2732e-05
5.79911e-05
6.41066e-05
7.12033e-05
7.94175e-05
8.88973e-05
9.98025e-05
0.000112304
0.000126585
0.000142837
0.00016126
0.000182065
0.000205465
0.000231678
0.000260922
0.00029341
0.000329348
0.000368926
0.000412312
0.000459643
0.000511013
0.000566467
0.00062598
0.000689454
0.000756697
0.000827421
0.00090123
0.000977616
0.00105597
0.00113557
0.00121562
0.00129527
0.00137364
0.00144986
0.00152308
0.00159259
0.00165777
0.00171817
0.00177352
0.00182376
0.00186899
0.00190951
0.00194577
0.00197834
0.00200788
0.00203509
0.00206066
0.00208526
0.00210948
0.00213385
0.0021588
0.00218463
0.0022116