/*--------------------------------*- C++ -*----------------------------------*\
  =========                 |
  \\      /  F ield         | OpenFOAM: The Open Source CFD Toolbox
   \\    /   O peration     | Website:  https://openfoam.org
    \\  /    A nd           | Version:  12
     \\/     M anipulation  |
\*---------------------------------------------------------------------------*/
FoamFile
{
    format      ascii;
    class       volScalarField;
    location    "5.5";
    object      nut;
}
// * * * * * * * * * * * * * * * * * * * * * * * * * * * * * * * * * * * * * //

dimensions      [0 2 -1 0 0 0 0];

internalField   nonuniform List<scalar> 
18225
(
5.468e-15
3.70061e-14
8.24962e-14
1.36844e-13
1.97691e-13
2.63534e-13
3.33235e-13
4.05849e-13
4.80545e-13
5.56581e-13
6.33294e-13
7.10098e-13
7.86501e-13
8.62113e-13
9.36662e-13
1.01001e-12
1.08217e-12
1.15331e-12
1.22376e-12
1.29407e-12
1.36494e-12
1.43731e-12
1.51233e-12
1.59135e-12
1.67602e-12
1.7682e-12
1.87005e-12
1.98403e-12
2.11291e-12
2.25981e-12
2.42821e-12
2.62198e-12
2.84542e-12
3.10324e-12
3.4006e-12
3.74314e-12
4.13694e-12
4.58857e-12
5.10504e-12
5.69381e-12
6.36278e-12
7.12022e-12
7.97479e-12
8.93544e-12
1.00114e-11
1.12123e-11
1.25476e-11
1.40273e-11
1.56613e-11
1.74596e-11
1.94321e-11
2.15888e-11
2.39393e-11
2.64934e-11
2.92601e-11
3.22484e-11
3.54668e-11
3.89231e-11
4.26246e-11
4.65781e-11
5.07893e-11
5.52636e-11
6.00055e-11
6.50186e-11
7.03061e-11
7.58702e-11
8.17125e-11
8.7834e-11
9.42349e-11
1.00915e-10
1.07873e-10
1.15109e-10
1.22618e-10
1.304e-10
1.3845e-10
1.46763e-10
1.55336e-10
1.64161e-10
1.73231e-10
1.82537e-10
1.92069e-10
2.01814e-10
2.11757e-10
2.21879e-10
2.32159e-10
2.42573e-10
2.53088e-10
2.63672e-10
2.74281e-10
2.84867e-10
2.95375e-10
3.05737e-10
3.15879e-10
3.25716e-10
3.35149e-10
3.44071e-10
3.52361e-10
3.59884e-10
3.66488e-10
3.72008e-10
3.76268e-10
3.7894e-10
3.80047e-10
3.79845e-10
3.77649e-10
3.73342e-10
3.66865e-10
3.58175e-10
3.47266e-10
3.34182e-10
3.1903e-10
3.01984e-10
2.83287e-10
2.63242e-10
2.42207e-10
2.20579e-10
1.9877e-10
1.77192e-10
1.56231e-10
1.36228e-10
1.17466e-10
1.00156e-10
8.44348e-11
7.03653e-11
5.79448e-11
4.7114e-11
3.77698e-11
2.97793e-11
2.29891e-11
1.72429e-11
1.23911e-11
8.30629e-12
4.90269e-12
2.17531e-12
3.20828e-13
1.65323e-13
5.38894e-12
1.35487e-11
2.30498e-11
3.35911e-11
4.49565e-11
5.69672e-11
6.94679e-11
8.23196e-11
9.53962e-11
1.08584e-10
1.21784e-10
1.3491e-10
1.47895e-10
1.60692e-10
1.73277e-10
1.85652e-10
1.97844e-10
2.09912e-10
2.21946e-10
2.34071e-10
2.46443e-10
2.5926e-10
2.72757e-10
2.87211e-10
3.02944e-10
3.20325e-10
3.39775e-10
3.61767e-10
3.86836e-10
4.15577e-10
4.48655e-10
4.86801e-10
5.30823e-10
5.81606e-10
6.40113e-10
7.07385e-10
7.84544e-10
8.72792e-10
9.73404e-10
1.08773e-09
1.21718e-09
1.36323e-09
1.52741e-09
1.71131e-09
1.91652e-09
2.14471e-09
2.39752e-09
2.67665e-09
2.98378e-09
3.32059e-09
3.68874e-09
4.08988e-09
4.52558e-09
4.99739e-09
5.50678e-09
6.05511e-09
6.64369e-09
7.27368e-09
7.94613e-09
8.66198e-09
9.42201e-09
1.02269e-08
1.10772e-08
1.19732e-08
1.29153e-08
1.39036e-08
1.49382e-08
1.60189e-08
1.71457e-08
1.83182e-08
1.95361e-08
2.0799e-08
2.21063e-08
2.34574e-08
2.48515e-08
2.62877e-08
2.7765e-08
2.92824e-08
3.08384e-08
3.24313e-08
3.40593e-08
3.57201e-08
3.74111e-08
3.91289e-08
4.08698e-08
4.26293e-08
4.44021e-08
4.61817e-08
4.79609e-08
4.97307e-08
5.14808e-08
5.31995e-08
5.48728e-08
5.64852e-08
5.8019e-08
5.94544e-08
6.0769e-08
6.19366e-08
6.29297e-08
6.37107e-08
6.42169e-08
6.44529e-08
6.44888e-08
6.41803e-08
6.35116e-08
6.24709e-08
6.10491e-08
5.92426e-08
5.70568e-08
5.45082e-08
5.16254e-08
4.84494e-08
4.50327e-08
4.14375e-08
3.77332e-08
3.39928e-08
3.02886e-08
2.6689e-08
2.32544e-08
2.00343e-08
1.70658e-08
1.43725e-08
1.19652e-08
9.84295e-09
7.99483e-09
6.40245e-09
5.04152e-09
3.88638e-09
2.90933e-09
2.08379e-09
1.38639e-09
7.99481e-10
3.15503e-10
9.69567e-12
3.5125e-13
2.89041e-11
9.31588e-11
1.69516e-10
2.53216e-10
3.42754e-10
4.36964e-10
5.34767e-10
6.35152e-10
7.37175e-10
8.39969e-10
9.42762e-10
1.04489e-09
1.14583e-09
1.2452e-09
1.34282e-09
1.43868e-09
1.533e-09
1.62622e-09
1.71904e-09
1.81241e-09
1.90755e-09
2.00598e-09
2.10951e-09
2.22028e-09
2.34077e-09
2.47383e-09
2.62269e-09
2.791e-09
2.98288e-09
3.2029e-09
3.45617e-09
3.74832e-09
4.08556e-09
4.47467e-09
4.92305e-09
5.43869e-09
6.03018e-09
6.70672e-09
7.47805e-09
8.35446e-09
9.3467e-09
1.0466e-08
1.17239e-08
1.31323e-08
1.47033e-08
1.64493e-08
1.83825e-08
2.05155e-08
2.28607e-08
2.54301e-08
2.82359e-08
3.12897e-08
3.46026e-08
3.81854e-08
4.2048e-08
4.61997e-08
5.06486e-08
5.54022e-08
6.04668e-08
6.58474e-08
7.15482e-08
7.75721e-08
8.3921e-08
9.05957e-08
9.75961e-08
1.04921e-07
1.12569e-07
1.20537e-07
1.28821e-07
1.37419e-07
1.46326e-07
1.55538e-07
1.65049e-07
1.74854e-07
1.84947e-07
1.95324e-07
2.05977e-07
2.16899e-07
2.28083e-07
2.39521e-07
2.51201e-07
2.63113e-07
2.75243e-07
2.87573e-07
3.00083e-07
3.1275e-07
3.25543e-07
3.38425e-07
3.51354e-07
3.64276e-07
3.77126e-07
3.89829e-07
4.02294e-07
4.14415e-07
4.26071e-07
4.37122e-07
4.47411e-07
4.56747e-07
4.64924e-07
4.71742e-07
4.76538e-07
4.79303e-07
4.809e-07
4.79882e-07
4.76149e-07
4.69586e-07
4.6008e-07
4.4756e-07
4.32027e-07
4.13571e-07
3.92385e-07
3.68769e-07
3.43123e-07
3.15936e-07
2.87763e-07
2.59191e-07
2.30815e-07
2.03192e-07
1.76817e-07
1.52096e-07
1.2933e-07
1.0871e-07
9.03184e-08
7.41437e-08
6.00946e-08
4.80193e-08
3.77238e-08
2.89943e-08
2.16065e-08
1.53417e-08
1.00002e-08
5.42565e-09
1.68398e-09
2.05608e-11
5.74677e-13
6.79343e-11
2.8077e-10
5.63455e-10
8.76781e-10
1.21044e-09
1.5598e-09
1.92121e-09
2.29123e-09
2.66659e-09
3.04421e-09
3.42128e-09
3.7954e-09
4.1646e-09
4.52749e-09
4.88332e-09
5.23206e-09
5.57444e-09
5.91208e-09
6.24745e-09
6.58399e-09
6.92612e-09
7.2793e-09
7.6501e-09
8.04623e-09
8.47663e-09
8.95154e-09
9.4826e-09
1.0083e-08
1.07674e-08
1.15523e-08
1.24559e-08
1.34985e-08
1.47022e-08
1.60912e-08
1.7692e-08
1.95328e-08
2.16443e-08
2.40589e-08
2.6811e-08
2.99368e-08
3.34738e-08
3.74611e-08
4.19386e-08
4.69472e-08
5.25279e-08
5.87222e-08
6.55714e-08
7.31162e-08
8.13965e-08
9.04513e-08
1.00318e-07
1.11031e-07
1.22624e-07
1.35128e-07
1.48569e-07
1.6297e-07
1.78352e-07
1.9473e-07
2.12114e-07
2.30512e-07
2.49926e-07
2.70354e-07
2.9179e-07
3.14226e-07
3.37649e-07
3.62046e-07
3.87397e-07
4.13686e-07
4.40893e-07
4.69002e-07
4.97995e-07
5.27852e-07
5.58557e-07
5.90096e-07
6.22454e-07
6.55621e-07
6.89587e-07
7.24344e-07
7.59885e-07
7.96202e-07
8.33287e-07
8.71131e-07
9.09717e-07
9.49026e-07
9.89028e-07
1.02968e-06
1.07094e-06
1.11271e-06
1.15492e-06
1.19743e-06
1.24007e-06
1.28264e-06
1.32487e-06
1.36646e-06
1.40703e-06
1.44614e-06
1.48328e-06
1.51786e-06
1.54923e-06
1.57697e-06
1.59718e-06
1.61148e-06
1.62262e-06
1.62492e-06
1.61799e-06
1.60129e-06
1.57427e-06
1.53652e-06
1.48786e-06
1.42845e-06
1.35884e-06
1.27999e-06
1.19326e-06
1.10036e-06
1.0033e-06
9.04221e-07
8.05332e-07
7.08727e-07
6.16274e-07
5.29515e-07
4.49601e-07
3.77263e-07
3.12827e-07
2.56259e-07
2.07223e-07
1.6516e-07
1.29353e-07
9.89988e-08
7.32567e-08
5.12967e-08
3.23735e-08
1.61123e-08
3.94173e-09
3.35228e-11
8.28724e-13
1.14827e-10
5.7192e-10
1.27469e-09
2.08885e-09
2.96253e-09
3.87624e-09
4.81896e-09
5.78174e-09
6.7563e-09
7.73485e-09
8.71024e-09
9.6762e-09
1.06276e-08
1.15608e-08
1.24737e-08
1.3366e-08
1.42396e-08
1.50984e-08
1.59487e-08
1.67992e-08
1.7661e-08
1.8548e-08
1.94768e-08
2.04669e-08
2.15408e-08
2.27244e-08
2.40469e-08
2.55414e-08
2.72447e-08
2.91981e-08
3.14471e-08
3.4042e-08
3.7038e-08
4.04951e-08
4.44785e-08
4.90581e-08
5.43088e-08
6.03101e-08
6.71453e-08
7.49018e-08
8.36694e-08
9.35408e-08
1.0461e-07
1.16971e-07
1.30718e-07
1.45944e-07
1.6274e-07
1.81195e-07
2.0139e-07
2.23406e-07
2.47315e-07
2.73183e-07
3.01067e-07
3.31016e-07
3.63069e-07
3.97254e-07
4.33588e-07
4.72077e-07
5.12715e-07
5.55486e-07
6.00364e-07
6.47313e-07
6.96291e-07
7.47248e-07
8.00133e-07
8.54887e-07
9.11455e-07
9.69777e-07
1.02981e-06
1.09151e-06
1.15484e-06
1.21977e-06
1.28629e-06
1.35437e-06
1.42401e-06
1.49524e-06
1.56806e-06
1.64251e-06
1.71862e-06
1.79645e-06
1.87602e-06
1.9574e-06
2.04061e-06
2.12569e-06
2.21266e-06
2.3015e-06
2.39218e-06
2.48463e-06
2.57872e-06
2.67424e-06
2.77091e-06
2.86833e-06
2.96597e-06
3.06319e-06
3.15918e-06
3.25296e-06
3.34334e-06
3.42921e-06
3.5101e-06
3.58127e-06
3.63703e-06
3.67963e-06
3.71645e-06
3.73328e-06
3.72874e-06
3.70149e-06
3.64998e-06
3.57297e-06
3.46977e-06
3.34049e-06
3.18616e-06
3.00882e-06
2.8115e-06
2.59815e-06
2.37343e-06
2.1425e-06
1.91068e-06
1.68309e-06
1.46441e-06
1.25854e-06
1.06846e-06
8.96106e-07
7.42434e-07
6.07467e-07
4.90469e-07
3.90108e-07
3.04636e-07
2.32061e-07
1.70267e-07
1.17183e-07
7.11548e-08
3.23759e-08
6.6309e-09
4.80924e-11
1.10863e-12
1.66067e-10
9.38465e-10
2.29912e-09
3.9824e-09
5.83006e-09
7.77357e-09
9.77931e-09
1.1825e-08
1.3892e-08
1.59636e-08
1.80246e-08
2.00614e-08
2.20631e-08
2.40216e-08
2.59321e-08
2.77939e-08
2.96102e-08
3.13891e-08
3.31434e-08
3.48908e-08
3.66543e-08
3.84625e-08
4.03493e-08
4.23548e-08
4.45251e-08
4.6913e-08
4.95782e-08
5.25878e-08
5.60166e-08
5.99478e-08
6.44733e-08
6.96942e-08
7.57208e-08
8.26729e-08
9.06797e-08
9.98795e-08
1.10419e-07
1.22454e-07
1.36145e-07
1.51659e-07
1.69167e-07
1.88842e-07
2.10857e-07
2.35383e-07
2.62587e-07
2.92629e-07
3.25662e-07
3.61827e-07
4.01255e-07
4.44059e-07
4.90338e-07
5.40174e-07
5.93627e-07
6.50739e-07
7.11527e-07
7.75987e-07
8.44092e-07
9.15792e-07
9.91019e-07
1.06969e-06
1.1517e-06
1.23695e-06
1.3253e-06
1.41664e-06
1.51084e-06
1.60779e-06
1.70738e-06
1.80949e-06
1.91407e-06
2.0211e-06
2.1306e-06
2.24249e-06
2.35679e-06
2.47353e-06
2.59278e-06
2.71463e-06
2.8392e-06
2.9666e-06
3.097e-06
3.23055e-06
3.36743e-06
3.50781e-06
3.65185e-06
3.79972e-06
3.95153e-06
4.10739e-06
4.26732e-06
4.4313e-06
4.5992e-06
4.7709e-06
4.94592e-06
5.12347e-06
5.30266e-06
5.4823e-06
5.66095e-06
5.83673e-06
6.00725e-06
6.17245e-06
6.32858e-06
6.46572e-06
6.57863e-06
6.66577e-06
6.74366e-06
6.78643e-06
6.78981e-06
6.75169e-06
6.66964e-06
6.54104e-06
6.36439e-06
6.13964e-06
5.86838e-06
5.554e-06
5.20169e-06
4.81832e-06
4.41215e-06
3.99241e-06
3.56874e-06
3.15065e-06
2.74691e-06
2.36503e-06
2.01088e-06
1.68852e-06
1.40009e-06
1.14601e-06
9.25134e-07
7.35151e-07
5.72864e-07
4.34497e-07
3.16015e-07
2.13558e-07
1.24741e-07
5.2453e-08
9.53009e-09
6.38899e-11
1.41142e-12
2.20551e-10
1.35473e-09
3.58618e-09
6.5514e-09
9.91808e-09
1.35078e-08
1.72291e-08
2.10274e-08
2.48628e-08
2.87016e-08
3.2514e-08
3.62743e-08
3.99611e-08
4.35586e-08
4.70573e-08
5.04548e-08
5.37565e-08
5.69763e-08
6.01367e-08
6.32695e-08
6.64158e-08
6.96268e-08
7.29632e-08
7.64965e-08
8.03091e-08
8.44946e-08
8.91588e-08
9.44201e-08
1.0041e-07
1.07275e-07
1.15175e-07
1.24286e-07
1.34798e-07
1.46918e-07
1.60867e-07
1.76879e-07
1.95203e-07
2.16097e-07
2.39828e-07
2.66668e-07
2.96894e-07
3.30779e-07
3.6859e-07
4.10587e-07
4.57015e-07
5.08103e-07
5.64056e-07
6.25057e-07
6.9126e-07
7.62786e-07
8.39725e-07
9.22132e-07
1.01003e-06
1.10339e-06
1.20216e-06
1.30625e-06
1.41553e-06
1.52983e-06
1.64899e-06
1.77285e-06
1.90117e-06
2.03373e-06
2.17033e-06
2.31076e-06
2.45483e-06
2.60239e-06
2.75328e-06
2.90737e-06
3.06461e-06
3.22497e-06
3.38842e-06
3.55508e-06
3.72507e-06
3.89856e-06
4.07572e-06
4.25681e-06
4.44211e-06
4.63191e-06
4.82657e-06
5.02645e-06
5.23192e-06
5.44335e-06
5.66111e-06
5.88554e-06
6.1169e-06
6.35543e-06
6.60123e-06
6.85427e-06
7.11433e-06
7.38087e-06
7.6532e-06
7.93041e-06
8.21105e-06
8.49313e-06
8.77439e-06
9.05177e-06
9.32112e-06
9.58295e-06
9.82861e-06
1.0045e-05
1.02274e-05
1.03656e-05
1.04869e-05
1.05589e-05
1.05685e-05
1.0514e-05
1.03915e-05
1.01979e-05
9.93092e-06
9.59067e-06
9.17944e-06
8.70214e-06
8.16624e-06
7.58167e-06
6.96042e-06
6.316e-06
5.66274e-06
5.01493e-06
4.38604e-06
3.78789e-06
3.23002e-06
2.71936e-06
2.25994e-06
1.85309e-06
1.49767e-06
1.19046e-06
9.26669e-07
7.00412e-07
5.05351e-07
3.35714e-07
1.89343e-07
7.47544e-08
1.25539e-08
8.06312e-11
1.73526e-12
2.77973e-10
1.80479e-09
5.07454e-09
9.72091e-09
1.52082e-08
2.11749e-08
2.74158e-08
3.38082e-08
4.02686e-08
4.67317e-08
5.31429e-08
5.94554e-08
6.5631e-08
7.16411e-08
7.74676e-08
8.31047e-08
8.856e-08
9.38547e-08
9.90249e-08
1.04122e-07
1.09212e-07
1.14379e-07
1.19721e-07
1.25352e-07
1.31407e-07
1.38036e-07
1.45409e-07
1.53713e-07
1.63159e-07
1.73977e-07
1.8642e-07
2.00762e-07
2.17301e-07
2.36354e-07
2.58262e-07
2.83381e-07
3.12085e-07
3.44761e-07
3.818e-07
4.23601e-07
4.70553e-07
5.2304e-07
5.81428e-07
6.46057e-07
7.1724e-07
7.95252e-07
8.80326e-07
9.7265e-07
1.07236e-06
1.17953e-06
1.29421e-06
1.41636e-06
1.54591e-06
1.68272e-06
1.82661e-06
1.97736e-06
2.13469e-06
2.2983e-06
2.46785e-06
2.64297e-06
2.82338e-06
3.00874e-06
3.19876e-06
3.39319e-06
3.59179e-06
3.79441e-06
4.00092e-06
4.21135e-06
4.42561e-06
4.64374e-06
4.86583e-06
5.09213e-06
5.32288e-06
5.5584e-06
5.79907e-06
6.04531e-06
6.29761e-06
6.5565e-06
6.82252e-06
7.09629e-06
7.3784e-06
7.66944e-06
7.96999e-06
8.28056e-06
8.60157e-06
8.93332e-06
9.27592e-06
9.62928e-06
9.99297e-06
1.03661e-05
1.07477e-05
1.1136e-05
1.15287e-05
1.19231e-05
1.2315e-05
1.26998e-05
1.30724e-05
1.34293e-05
1.37635e-05
1.40565e-05
1.43046e-05
1.44859e-05
1.46337e-05
1.47243e-05
1.47259e-05
1.46392e-05
1.44606e-05
1.41867e-05
1.38151e-05
1.33463e-05
1.27834e-05
1.21328e-05
1.14041e-05
1.06097e-05
9.76482e-06
8.88672e-06
7.99379e-06
7.10467e-06
6.23722e-06
5.40749e-06
4.62888e-06
3.91151e-06
3.26184e-06
2.68265e-06
2.17327e-06
1.73003e-06
1.34677e-06
1.01562e-06
7.27902e-07
4.76394e-07
2.60953e-07
9.82248e-08
1.56613e-08
9.80977e-11
2.07909e-12
3.38265e-10
2.28039e-09
6.71277e-09
1.33876e-08
2.15923e-08
3.0724e-08
4.03936e-08
5.03595e-08
6.04587e-08
7.05691e-08
8.05937e-08
9.04517e-08
1.00078e-07
1.09423e-07
1.18454e-07
1.2716e-07
1.35549e-07
1.4365e-07
1.51517e-07
1.59226e-07
1.66878e-07
1.74596e-07
1.82529e-07
1.9085e-07
1.99758e-07
2.09478e-07
2.20261e-07
2.32386e-07
2.46162e-07
2.61927e-07
2.80046e-07
3.00919e-07
3.2497e-07
3.52654e-07
3.84451e-07
4.20861e-07
4.62401e-07
5.096e-07
5.62988e-07
6.2309e-07
6.90416e-07
7.65451e-07
8.48645e-07
9.40403e-07
1.04108e-06
1.15096e-06
1.27026e-06
1.39914e-06
1.53767e-06
1.68584e-06
1.84356e-06
2.01065e-06
2.1869e-06
2.37201e-06
2.56564e-06
2.76738e-06
2.9768e-06
3.19347e-06
3.41695e-06
3.64672e-06
3.88239e-06
4.12356e-06
4.36989e-06
4.6211e-06
4.87697e-06
5.13736e-06
5.40224e-06
5.67162e-06
5.94557e-06
6.22423e-06
6.50782e-06
6.79671e-06
7.09132e-06
7.39214e-06
7.69973e-06
8.01472e-06
8.33782e-06
8.66979e-06
9.01142e-06
9.36356e-06
9.72703e-06
1.01026e-05
1.04912e-05
1.08932e-05
1.13093e-05
1.17396e-05
1.21842e-05
1.26427e-05
1.31142e-05
1.35973e-05
1.40901e-05
1.459e-05
1.50934e-05
1.5596e-05
1.60923e-05
1.6576e-05
1.70404e-05
1.74782e-05
1.78781e-05
1.82325e-05
1.8525e-05
1.873e-05
1.8875e-05
1.8963e-05
1.89361e-05
1.87978e-05
1.85465e-05
1.81792e-05
1.76941e-05
1.70921e-05
1.63772e-05
1.55569e-05
1.46424e-05
1.36478e-05
1.25908e-05
1.14912e-05
1.03705e-05
9.25081e-06
8.15351e-06
7.09835e-06
6.10224e-06
5.17843e-06
4.33595e-06
3.57941e-06
2.90907e-06
2.32126e-06
1.80892e-06
1.36252e-06
9.71558e-07
6.2827e-07
3.36298e-07
1.22225e-07
1.88266e-08
1.16118e-10
2.44235e-12
4.01444e-10
2.77779e-09
8.46478e-09
1.74509e-08
2.8918e-08
4.19965e-08
5.605e-08
7.06522e-08
8.55132e-08
1.00421e-07
1.1521e-07
1.29744e-07
1.43915e-07
1.57642e-07
1.70872e-07
1.83579e-07
1.9577e-07
2.07485e-07
2.18796e-07
2.29809e-07
2.40667e-07
2.51545e-07
2.62653e-07
2.74237e-07
2.86576e-07
2.99988e-07
3.14823e-07
3.31472e-07
3.50361e-07
3.71955e-07
3.96758e-07
4.25309e-07
4.58185e-07
4.95994e-07
5.39371e-07
5.88973e-07
6.45473e-07
7.09545e-07
7.81861e-07
8.63072e-07
9.53795e-07
1.0546e-06
1.16601e-06
1.28846e-06
1.42229e-06
1.56779e-06
1.7251e-06
1.8943e-06
2.07534e-06
2.26808e-06
2.4723e-06
2.68766e-06
2.91375e-06
3.1501e-06
3.3962e-06
3.65148e-06
3.91536e-06
4.18726e-06
4.46661e-06
4.75285e-06
5.04549e-06
5.34409e-06
5.6483e-06
5.95783e-06
6.2725e-06
6.59221e-06
6.91697e-06
7.24688e-06
7.58208e-06
7.92282e-06
8.26948e-06
8.62252e-06
8.98254e-06
9.35019e-06
9.72622e-06
1.01115e-05
1.05069e-05
1.09135e-05
1.13324e-05
1.17645e-05
1.22109e-05
1.26726e-05
1.31505e-05
1.36451e-05
1.4157e-05
1.4686e-05
1.52319e-05
1.57936e-05
1.63697e-05
1.69576e-05
1.75545e-05
1.81562e-05
1.87577e-05
1.93532e-05
1.99354e-05
2.04966e-05
2.1028e-05
2.152e-05
2.19611e-05
2.23402e-05
2.2648e-05
2.28545e-05
2.29649e-05
2.30243e-05
2.29492e-05
2.27422e-05
2.24056e-05
2.19379e-05
2.13378e-05
2.06066e-05
1.97491e-05
1.87734e-05
1.76913e-05
1.65181e-05
1.52727e-05
1.39765e-05
1.2653e-05
1.13267e-05
1.00218e-05
8.76087e-06
7.56379e-06
6.44665e-06
5.42098e-06
4.49331e-06
3.66512e-06
2.93311e-06
2.28977e-06
1.7244e-06
1.22528e-06
7.85133e-07
4.12994e-07
1.46369e-07
2.20305e-08
1.34557e-10
2.82485e-12
4.67567e-10
3.29567e-09
1.03082e-08
2.18285e-08
3.70258e-08
5.47771e-08
7.41516e-08
9.44767e-08
1.15277e-07
1.36204e-07
1.56989e-07
1.77419e-07
1.97324e-07
2.16572e-07
2.35077e-07
2.52792e-07
2.69719e-07
2.85902e-07
3.01437e-07
3.16466e-07
3.31177e-07
3.45808e-07
3.60643e-07
3.76012e-07
3.92294e-07
4.09911e-07
4.29336e-07
4.51085e-07
4.75724e-07
5.03866e-07
5.36166e-07
5.73325e-07
6.16084e-07
6.65218e-07
7.2153e-07
7.85843e-07
8.58987e-07
9.41787e-07
1.03505e-06
1.13953e-06
1.25595e-06
1.38494e-06
1.52707e-06
1.68276e-06
1.85235e-06
2.03606e-06
2.23395e-06
2.44597e-06
2.67194e-06
2.91157e-06
3.16445e-06
3.43007e-06
3.70785e-06
3.99715e-06
4.29728e-06
4.60753e-06
4.92718e-06
5.25554e-06
5.59194e-06
5.93576e-06
6.28644e-06
6.64353e-06
7.00665e-06
7.37553e-06
7.74997e-06
8.12993e-06
8.51543e-06
8.90661e-06
9.30369e-06
9.70702e-06
1.01171e-05
1.05344e-05
1.09599e-05
1.13942e-05
1.18383e-05
1.22934e-05
1.27606e-05
1.32411e-05
1.37362e-05
1.42473e-05
1.47754e-05
1.53216e-05
1.58869e-05
1.64715e-05
1.70757e-05
1.76988e-05
1.83399e-05
1.89969e-05
1.96674e-05
2.03477e-05
2.10333e-05
2.17186e-05
2.2397e-05
2.30611e-05
2.37022e-05
2.43113e-05
2.48782e-05
2.53923e-05
2.5842e-05
2.62164e-05
2.65054e-05
2.66797e-05
2.6741e-05
2.67429e-05
2.66069e-05
2.63204e-05
2.58927e-05
2.53245e-05
2.4615e-05
2.37658e-05
2.27818e-05
2.16714e-05
2.04462e-05
1.91218e-05
1.77174e-05
1.62551e-05
1.47595e-05
1.32564e-05
1.1772e-05
1.0331e-05
8.95593e-06
7.66521e-06
6.47268e-06
5.3868e-06
4.41039e-06
3.54077e-06
2.77031e-06
2.08756e-06
1.48019e-06
9.42288e-07
4.89426e-07
1.70424e-07
2.52585e-08
1.53314e-10
3.22671e-12
5.36715e-10
3.83396e-09
1.22308e-08
2.64614e-08
4.57742e-08
6.88381e-08
9.44035e-08
1.21499e-07
1.49407e-07
1.77592e-07
2.05641e-07
2.33229e-07
2.60095e-07
2.86045e-07
3.1094e-07
3.34704e-07
3.57324e-07
3.7885e-07
3.99396e-07
4.19143e-07
4.38333e-07
4.57273e-07
4.76332e-07
4.95941e-07
5.16587e-07
5.38819e-07
5.63242e-07
5.90521e-07
6.21377e-07
6.56583e-07
6.96968e-07
7.43406e-07
7.96817e-07
8.58153e-07
9.28393e-07
1.00853e-06
1.09954e-06
1.20241e-06
1.31806e-06
1.44737e-06
1.59111e-06
1.74998e-06
1.92455e-06
2.11524e-06
2.32234e-06
2.54597e-06
2.7861e-06
3.04254e-06
3.31497e-06
3.60292e-06
3.9058e-06
4.22294e-06
4.55358e-06
4.89692e-06
5.25212e-06
5.61832e-06
5.99469e-06
6.38044e-06
6.77481e-06
7.17709e-06
7.58669e-06
8.00308e-06
8.42586e-06
8.85471e-06
9.28943e-06
9.72995e-06
1.01763e-05
1.06286e-05
1.10872e-05
1.15524e-05
1.20248e-05
1.25052e-05
1.29945e-05
1.34936e-05
1.40038e-05
1.45264e-05
1.50628e-05
1.56146e-05
1.61832e-05
1.67699e-05
1.73761e-05
1.80028e-05
1.86505e-05
1.93194e-05
2.00087e-05
2.07171e-05
2.14427e-05
2.2182e-05
2.29301e-05
2.3683e-05
2.44355e-05
2.51805e-05
2.59097e-05
2.66142e-05
2.72841e-05
2.79092e-05
2.84792e-05
2.89833e-05
2.94104e-05
2.97506e-05
2.99934e-05
3.01219e-05
3.01038e-05
3.00302e-05
2.98314e-05
2.94617e-05
2.89434e-05
2.82805e-05
2.74723e-05
2.65206e-05
2.543e-05
2.42083e-05
2.28667e-05
2.14202e-05
1.98875e-05
1.82905e-05
1.66541e-05
1.50049e-05
1.33701e-05
1.17762e-05
1.02476e-05
8.80497e-06
7.46436e-06
6.23604e-06
5.12424e-06
4.12706e-06
3.23695e-06
2.44207e-06
1.72989e-06
1.09649e-06
5.64566e-07
1.94251e-07
2.85008e-08
1.72319e-10
3.64827e-12
6.08996e-10
4.39326e-09
1.4227e-08
3.13099e-08
5.50508e-08
8.39715e-08
1.16499e-07
1.51328e-07
1.87448e-07
2.24085e-07
2.60638e-07
2.96631e-07
3.3169e-07
3.65525e-07
3.97931e-07
4.28787e-07
4.58055e-07
4.85784e-07
5.12108e-07
5.37244e-07
5.61496e-07
5.85247e-07
6.08959e-07
6.33173e-07
6.58502e-07
6.85634e-07
7.15325e-07
7.48404e-07
7.85761e-07
8.28351e-07
8.77186e-07
9.3333e-07
9.97888e-07
1.072e-06
1.15682e-06
1.25352e-06
1.36324e-06
1.48709e-06
1.62611e-06
1.78128e-06
1.95344e-06
2.14333e-06
2.3515e-06
2.57835e-06
2.82412e-06
3.08882e-06
3.37231e-06
3.67426e-06
3.99419e-06
4.33146e-06
4.68532e-06
5.05493e-06
5.43937e-06
5.83767e-06
6.24884e-06
6.67191e-06
7.10592e-06
7.54994e-06
8.00311e-06
8.46465e-06
8.93385e-06
9.4101e-06
9.89291e-06
1.03819e-05
1.08768e-05
1.13774e-05
1.18838e-05
1.2396e-05
1.29145e-05
1.34396e-05
1.3972e-05
1.45127e-05
1.50627e-05
1.56233e-05
1.6196e-05
1.67823e-05
1.73841e-05
1.8003e-05
1.86405e-05
1.92982e-05
1.99771e-05
2.0678e-05
2.1401e-05
2.21457e-05
2.29101e-05
2.36902e-05
2.44822e-05
2.52849e-05
2.60942e-05
2.69013e-05
2.76982e-05
2.84765e-05
2.92273e-05
2.99411e-05
3.06083e-05
3.12189e-05
3.17627e-05
3.22299e-05
3.261e-05
3.28926e-05
3.307e-05
3.31338e-05
3.30393e-05
3.28547e-05
3.25991e-05
3.21543e-05
3.15502e-05
3.08023e-05
2.9909e-05
2.88719e-05
2.76953e-05
2.63861e-05
2.49542e-05
2.34134e-05
2.17814e-05
2.00794e-05
1.83317e-05
1.6565e-05
1.48072e-05
1.30859e-05
1.14272e-05
9.85376e-06
8.38358e-06
7.02885e-06
5.79527e-06
4.68184e-06
3.68128e-06
2.78156e-06
1.97028e-06
1.24573e-06
6.37819e-07
2.17779e-07
3.17517e-08
1.9153e-10
4.0901e-12
6.84537e-10
4.9746e-09
1.62959e-08
3.63512e-08
6.47756e-08
1.00005e-07
1.40157e-07
1.83573e-07
2.28907e-07
2.75101e-07
3.21321e-07
3.66906e-07
4.11329e-07
4.54186e-07
4.95181e-07
5.34133e-07
5.70967e-07
6.05721e-07
6.38546e-07
6.69697e-07
6.99537e-07
7.28533e-07
7.57249e-07
7.86347e-07
8.16579e-07
8.48784e-07
8.83888e-07
9.22893e-07
9.66881e-07
1.017e-06
1.07446e-06
1.14052e-06
1.2165e-06
1.30371e-06
1.40351e-06
1.51723e-06
1.64617e-06
1.79158e-06
1.95463e-06
2.13636e-06
2.33769e-06
2.55936e-06
2.80195e-06
3.0658e-06
3.35108e-06
3.65771e-06
3.98542e-06
4.33376e-06
4.70207e-06
5.08956e-06
5.49532e-06
5.91833e-06
6.3575e-06
6.81172e-06
7.27984e-06
7.76072e-06
8.25327e-06
8.75642e-06
9.26916e-06
9.79055e-06
1.03197e-05
1.0856e-05
1.13986e-05
1.19472e-05
1.25012e-05
1.30606e-05
1.36251e-05
1.41949e-05
1.47703e-05
1.5352e-05
1.59408e-05
1.65377e-05
1.71441e-05
1.77618e-05
1.83923e-05
1.90377e-05
1.96999e-05
2.03807e-05
2.10818e-05
2.18047e-05
2.25497e-05
2.33172e-05
2.41065e-05
2.49128e-05
2.57348e-05
2.65733e-05
2.74234e-05
2.82759e-05
2.91234e-05
2.99587e-05
3.07729e-05
3.1557e-05
3.23018e-05
3.29977e-05
3.36354e-05
3.42057e-05
3.46994e-05
3.51079e-05
3.54229e-05
3.56366e-05
3.57407e-05
3.57265e-05
3.5552e-05
3.52625e-05
3.49185e-05
3.44206e-05
3.37423e-05
3.29202e-05
3.19559e-05
3.08503e-05
2.96071e-05
2.82321e-05
2.67335e-05
2.51234e-05
2.34182e-05
2.16376e-05
1.9805e-05
1.79464e-05
1.60899e-05
1.42641e-05
1.24962e-05
1.08109e-05
9.22796e-06
7.76163e-06
6.41916e-06
5.2006e-06
4.09912e-06
3.10269e-06
2.19911e-06
1.38891e-06
7.08903e-07
2.40985e-07
3.50101e-08
2.10932e-10
4.55293e-12
7.63489e-10
5.57921e-09
1.8439e-08
4.15749e-08
7.48971e-08
1.16807e-07
1.65141e-07
2.17879e-07
2.73307e-07
3.30045e-07
3.86988e-07
4.43249e-07
4.98121e-07
5.51053e-07
6.0164e-07
6.4962e-07
6.94871e-07
7.37411e-07
7.77397e-07
8.15122e-07
8.51011e-07
8.85617e-07
9.19614e-07
9.53794e-07
9.89057e-07
1.02641e-06
1.06696e-06
1.11191e-06
1.16253e-06
1.22018e-06
1.28629e-06
1.36234e-06
1.44983e-06
1.5503e-06
1.66528e-06
1.79629e-06
1.94478e-06
2.11215e-06
2.29967e-06
2.50847e-06
2.73952e-06
2.9936e-06
3.27125e-06
3.57281e-06
3.89834e-06
4.24769e-06
4.62045e-06
5.01604e-06
5.43365e-06
5.87232e-06
6.33096e-06
6.80839e-06
7.30335e-06
7.81453e-06
8.34061e-06
8.88027e-06
9.43222e-06
9.99521e-06
1.0568e-05
1.11495e-05
1.17386e-05
1.23344e-05
1.29359e-05
1.35426e-05
1.41539e-05
1.47694e-05
1.5389e-05
1.60128e-05
1.66412e-05
1.7275e-05
1.79153e-05
1.85635e-05
1.92213e-05
1.98907e-05
2.05739e-05
2.1273e-05
2.19903e-05
2.27276e-05
2.34863e-05
2.42681e-05
2.50716e-05
2.58924e-05
2.67307e-05
2.7592e-05
2.84699e-05
2.93545e-05
3.02399e-05
3.11187e-05
3.19825e-05
3.2823e-05
3.36308e-05
3.43969e-05
3.5112e-05
3.57674e-05
3.63545e-05
3.68652e-05
3.72919e-05
3.76273e-05
3.78648e-05
3.79983e-05
3.8022e-05
3.79314e-05
3.76905e-05
3.73073e-05
3.68765e-05
3.62912e-05
3.55692e-05
3.46839e-05
3.36615e-05
3.25021e-05
3.1209e-05
2.97869e-05
2.82417e-05
2.65838e-05
2.48274e-05
2.29908e-05
2.10957e-05
1.91673e-05
1.72332e-05
1.53225e-05
1.34636e-05
1.16826e-05
1.00015e-05
8.43645e-06
6.99648e-06
5.68289e-06
4.48948e-06
3.40434e-06
2.41557e-06
1.5257e-06
7.77766e-07
2.63887e-07
3.82785e-08
2.30534e-10
5.03765e-12
8.46024e-10
6.20856e-09
2.06602e-08
4.69793e-08
8.53873e-08
1.34287e-07
1.91272e-07
2.53952e-07
3.2023e-07
3.88371e-07
4.56963e-07
5.24863e-07
5.91151e-07
6.55105e-07
7.16187e-07
7.74037e-07
8.28469e-07
8.79472e-07
9.27204e-07
9.71991e-07
1.01432e-06
1.05483e-06
1.09431e-06
1.1337e-06
1.17404e-06
1.21654e-06
1.2625e-06
1.31331e-06
1.37048e-06
1.43559e-06
1.51029e-06
1.59628e-06
1.69529e-06
1.80907e-06
1.93935e-06
2.08782e-06
2.25611e-06
2.44573e-06
2.65809e-06
2.8944e-06
3.15569e-06
3.44275e-06
3.75612e-06
4.09608e-06
4.46265e-06
4.85556e-06
5.2743e-06
5.71812e-06
6.18605e-06
6.67698e-06
7.18963e-06
7.72261e-06
8.27447e-06
8.84368e-06
9.42872e-06
1.0028e-05
1.064e-05
1.12633e-05
1.18962e-05
1.25375e-05
1.31858e-05
1.38398e-05
1.44984e-05
1.51609e-05
1.58263e-05
1.64944e-05
1.71649e-05
1.78381e-05
1.85145e-05
1.91952e-05
1.98815e-05
2.05754e-05
2.1279e-05
2.19947e-05
2.27251e-05
2.34727e-05
2.42396e-05
2.50281e-05
2.58379e-05
2.66696e-05
2.75141e-05
2.83839e-05
2.92757e-05
3.01808e-05
3.10941e-05
3.2006e-05
3.2909e-05
3.37953e-05
3.46556e-05
3.54812e-05
3.62626e-05
3.69913e-05
3.76586e-05
3.82569e-05
3.87788e-05
3.92175e-05
3.9567e-05
3.98215e-05
3.99758e-05
4.00254e-05
3.99657e-05
3.97922e-05
3.94852e-05
3.90286e-05
3.85179e-05
3.7875e-05
3.70841e-05
3.61559e-05
3.50819e-05
3.38805e-05
3.25506e-05
3.10962e-05
2.95207e-05
2.7832e-05
2.60426e-05
2.41685e-05
2.22296e-05
2.02496e-05
1.82557e-05
1.62766e-05
1.43418e-05
1.24789e-05
1.07118e-05
9.05883e-06
7.53095e-06
6.13096e-06
4.85352e-06
3.68705e-06
2.61989e-06
1.65624e-06
8.44518e-07
2.86533e-07
4.15635e-08
2.50367e-10
5.54529e-12
9.32332e-10
6.86424e-09
2.29641e-08
5.25693e-08
9.62349e-08
1.52392e-07
2.18425e-07
2.91567e-07
3.69334e-07
4.4961e-07
5.3065e-07
6.11022e-07
6.89568e-07
7.6537e-07
8.37736e-07
9.0619e-07
9.7047e-07
1.03052e-06
1.0865e-06
1.13876e-06
1.18784e-06
1.23448e-06
1.27959e-06
1.32424e-06
1.36967e-06
1.41726e-06
1.46851e-06
1.52507e-06
1.58865e-06
1.66109e-06
1.74427e-06
1.84014e-06
1.95065e-06
2.07776e-06
2.22343e-06
2.38952e-06
2.57783e-06
2.79002e-06
3.02761e-06
3.2919e-06
3.58398e-06
3.90465e-06
4.25447e-06
4.63366e-06
5.04216e-06
5.4796e-06
5.94536e-06
6.43851e-06
6.95795e-06
7.50233e-06
8.07019e-06
8.65991e-06
9.26979e-06
9.89806e-06
1.05429e-05
1.12025e-05
1.18749e-05
1.25583e-05
1.3251e-05
1.39511e-05
1.46569e-05
1.5367e-05
1.608e-05
1.67947e-05
1.75104e-05
1.82264e-05
1.89428e-05
1.96599e-05
2.03786e-05
2.11002e-05
2.18268e-05
2.25606e-05
2.33045e-05
2.40612e-05
2.48337e-05
2.56248e-05
2.64362e-05
2.72712e-05
2.81139e-05
2.89881e-05
2.98865e-05
3.08004e-05
3.17252e-05
3.26577e-05
3.35937e-05
3.45183e-05
3.5423e-05
3.63003e-05
3.71407e-05
3.79352e-05
3.86752e-05
3.93527e-05
3.99602e-05
4.04912e-05
4.09396e-05
4.13002e-05
4.15683e-05
4.17395e-05
4.18099e-05
4.17763e-05
4.16353e-05
4.13825e-05
4.10122e-05
4.04884e-05
3.9889e-05
3.91973e-05
3.83543e-05
3.73986e-05
3.6291e-05
3.50404e-05
3.36825e-05
3.22066e-05
3.06126e-05
2.89061e-05
2.70974e-05
2.52004e-05
2.32326e-05
2.12161e-05
1.91767e-05
1.7143e-05
1.51449e-05
1.32113e-05
1.13682e-05
9.63601e-06
8.02798e-06
6.54865e-06
5.19382e-06
3.95239e-06
2.813e-06
1.78106e-06
9.09374e-07
3.08995e-07
4.48741e-08
2.70479e-10
6.07704e-12
1.02262e-09
7.54799e-09
2.53566e-08
5.83546e-08
1.07443e-07
1.711e-07
2.46523e-07
3.30571e-07
4.20366e-07
5.13397e-07
6.0756e-07
7.01112e-07
7.92632e-07
8.80986e-07
9.65307e-07
1.04499e-06
1.11968e-06
1.18927e-06
1.25391e-06
1.31396e-06
1.37004e-06
1.42298e-06
1.47379e-06
1.52373e-06
1.5742e-06
1.62678e-06
1.68321e-06
1.74536e-06
1.81522e-06
1.89485e-06
1.98641e-06
2.09209e-06
2.21408e-06
2.35459e-06
2.51576e-06
2.69967e-06
2.90829e-06
3.14342e-06
3.40671e-06
3.69954e-06
4.02306e-06
4.37811e-06
4.76522e-06
5.18457e-06
5.63604e-06
6.11914e-06
6.6331e-06
7.17684e-06
7.74903e-06
8.34815e-06
8.97245e-06
9.62007e-06
1.0289e-05
1.09772e-05
1.16824e-05
1.24025e-05
1.31352e-05
1.38782e-05
1.46294e-05
1.53865e-05
1.61476e-05
1.69107e-05
1.76742e-05
1.84368e-05
1.91977e-05
1.99563e-05
2.07127e-05
2.14677e-05
2.22226e-05
2.29793e-05
2.37403e-05
2.45085e-05
2.52875e-05
2.60806e-05
2.68905e-05
2.7721e-05
2.85672e-05
2.94357e-05
3.03222e-05
3.12425e-05
3.21767e-05
3.31229e-05
3.40749e-05
3.50169e-05
3.59651e-05
3.68907e-05
3.7784e-05
3.86395e-05
3.94477e-05
4.02003e-05
4.08893e-05
4.15077e-05
4.20494e-05
4.25088e-05
4.28813e-05
4.31629e-05
4.33501e-05
4.344e-05
4.3429e-05
4.33144e-05
4.30939e-05
4.27659e-05
4.23292e-05
4.1751e-05
4.10705e-05
4.03331e-05
3.94449e-05
3.84292e-05
3.73243e-05
3.60579e-05
3.46582e-05
3.31622e-05
3.15574e-05
2.98416e-05
2.80234e-05
2.61143e-05
2.41291e-05
2.20878e-05
2.00147e-05
1.79376e-05
1.58865e-05
1.38914e-05
1.19803e-05
1.01759e-05
8.4938e-06
6.94066e-06
5.5137e-06
4.20259e-06
2.99623e-06
1.9009e-06
9.7264e-07
3.31364e-07
4.8222e-08
2.90935e-10
6.6342e-12
1.11713e-09
8.26165e-09
2.7844e-08
6.43475e-08
1.19025e-07
1.90411e-07
2.75532e-07
3.70872e-07
4.73156e-07
5.79466e-07
6.87322e-07
7.94651e-07
8.99747e-07
1.00124e-06
1.09808e-06
1.1895e-06
1.27506e-06
1.35459e-06
1.42821e-06
1.49632e-06
1.55958e-06
1.61891e-06
1.67547e-06
1.73067e-06
1.7861e-06
1.84357e-06
1.90504e-06
1.97265e-06
2.04864e-06
2.13536e-06
2.23523e-06
2.3507e-06
2.48422e-06
2.63823e-06
2.81511e-06
3.01712e-06