/*--------------------------------*- C++ -*----------------------------------*\
  =========                 |
  \\      /  F ield         | OpenFOAM: The Open Source CFD Toolbox
   \\    /   O peration     | Website:  https://openfoam.org
    \\  /    A nd           | Version:  12
     \\/     M anipulation  |
\*---------------------------------------------------------------------------*/
FoamFile
{
    format      ascii;
    class       volVectorField;
    location    "5.5";
    object      U;
}
// * * * * * * * * * * * * * * * * * * * * * * * * * * * * * * * * * * * * * //

dimensions      [0 1 -1 0 0 0 0];

internalField   nonuniform List<vector> 
18225
(
(-3.08633e-06 1.72148e-06 0)
(-1.02204e-05 1.02022e-06 0)
(-1.12245e-05 1.65755e-07 0)
(-3.36461e-06 -6.98577e-07 0)
(1.39766e-05 -1.50717e-06 0)
(4.01519e-05 -2.22919e-06 0)
(7.42041e-05 -2.84902e-06 0)
(0.000115032 -3.36359e-06 0)
(0.000161496 -3.77704e-06 0)
(0.00021247 -4.09403e-06 0)
(0.000266866 -4.32165e-06 0)
(0.00032365 -4.46616e-06 0)
(0.000381854 -4.53516e-06 0)
(0.000440585 -4.53544e-06 0)
(0.00049903 -4.47496e-06 0)
(0.000556464 -4.36099e-06 0)
(0.000612254 -4.20182e-06 0)
(0.000665861 -4.00495e-06 0)
(0.000716842 -3.77866e-06 0)
(0.00076485 -3.53036e-06 0)
(0.000809631 -3.26802e-06 0)
(0.000851022 -2.99853e-06 0)
(0.000888945 -2.72884e-06 0)
(0.000923399 -2.46422e-06 0)
(0.000954459 -2.21025e-06 0)
(0.000982261 -1.9727e-06 0)
(0.001007 -1.75588e-06 0)
(0.00102891 -1.56257e-06 0)
(0.00104827 -1.39534e-06 0)
(0.00106537 -1.25615e-06 0)
(0.00108055 -1.14617e-06 0)
(0.00109412 -1.06565e-06 0)
(0.00110641 -1.01409e-06 0)
(0.00111771 -9.90146e-07 0)
(0.00112832 -9.91763e-07 0)
(0.00113848 -1.01606e-06 0)
(0.00114839 -1.05951e-06 0)
(0.00115819 -1.1176e-06 0)
(0.00116798 -1.18589e-06 0)
(0.00117776 -1.25791e-06 0)
(0.00118746 -1.32811e-06 0)
(0.00119693 -1.39031e-06 0)
(0.0012059 -1.43606e-06 0)
(0.00121403 -1.45963e-06 0)
(0.00122088 -1.45242e-06 0)
(0.00122587 -1.40778e-06 0)
(0.00122837 -1.31808e-06 0)
(0.00122759 -1.17704e-06 0)
(0.00122269 -9.75945e-07 0)
(0.00121269 -7.08272e-07 0)
(0.00119653 -3.67271e-07 0)
(0.00117304 5.41583e-08 0)
(0.00114095 5.63269e-07 0)
(0.00109888 1.16754e-06 0)
(0.00104537 1.87586e-06 0)
(0.000978823 2.69546e-06 0)
(0.000897538 3.63575e-06 0)
(0.000799696 4.70748e-06 0)
(0.000683366 5.92214e-06 0)
(0.000546492 7.29301e-06 0)
(0.000386904 8.82915e-06 0)
(0.000202318 1.05471e-05 0)
(-9.65218e-06 1.24503e-05 0)
(-0.000251471 1.45479e-05 0)
(-0.000525672 1.68577e-05 0)
(-0.000834832 1.93879e-05 0)
(-0.00118149 2.21405e-05 0)
(-0.00156815 2.51195e-05 0)
(-0.00199723 2.83249e-05 0)
(-0.00247099 3.17527e-05 0)
(-0.0029915 3.53945e-05 0)
(-0.00356056 3.9237e-05 0)
(-0.00417961 4.32615e-05 0)
(-0.00484973 4.74439e-05 0)
(-0.0055715 5.17541e-05 0)
(-0.00634499 5.61557e-05 0)
(-0.00716967 6.06064e-05 0)
(-0.00804436 6.50578e-05 0)
(-0.00896716 6.94555e-05 0)
(-0.00993546 7.374e-05 0)
(-0.0109458 7.78464e-05 0)
(-0.0119941 8.17056e-05 0)
(-0.0130751 8.52443e-05 0)
(-0.0141831 8.83863e-05 0)
(-0.0153113 9.10525e-05 0)
(-0.0164522 9.3162e-05 0)
(-0.0175974 9.46325e-05 0)
(-0.0187378 9.53813e-05 0)
(-0.0198636 9.53257e-05 0)
(-0.020964 9.43843e-05 0)
(-0.0220278 9.24775e-05 0)
(-0.0230431 8.95293e-05 0)
(-0.0239976 8.54688e-05 0)
(-0.0248783 8.02309e-05 0)
(-0.025672 7.37636e-05 0)
(-0.0263654 6.60461e-05 0)
(-0.0269436 5.67494e-05 0)
(-0.0273947 4.63887e-05 0)
(-0.0277048 3.48291e-05 0)
(-0.027863 2.14874e-05 0)
(-0.0278595 7.50408e-06 0)
(-0.0276799 -7.54034e-06 0)
(-0.0273192 -2.37178e-05 0)
(-0.026771 -4.05259e-05 0)
(-0.0260325 -5.7671e-05 0)
(-0.0251047 -7.48325e-05 0)
(-0.0239921 -9.16237e-05 0)
(-0.0227036 -0.000107599 0)
(-0.0212527 -0.000122276 0)
(-0.0196575 -0.000135159 0)
(-0.0179412 -0.000145764 0)
(-0.0161312 -0.000153646 0)
(-0.0142588 -0.000158433 0)
(-0.0123584 -0.000159859 0)
(-0.0104663 -0.000157791 0)
(-0.00861909 -0.000152255 0)
(-0.00685261 -0.000143441 0)
(-0.00519993 -0.000131704 0)
(-0.00369007 -0.000117545 0)
(-0.00234664 -0.000101577 0)
(-0.00118684 -8.44818e-05 0)
(-0.000220924 -6.69635e-05 0)
(0.000547914 -4.96962e-05 0)
(0.00112319 -3.32608e-05 0)
(0.00151432 -1.81175e-05 0)
(0.00173569 -4.63827e-06 0)
(0.0018053 6.97649e-06 0)
(0.00174379 1.66501e-05 0)
(0.00157399 2.42882e-05 0)
(0.0013197 2.98399e-05 0)
(0.00100793 3.3041e-05 0)
(0.00067014 3.31749e-05 0)
(0.000346302 2.90795e-05 0)
(9.45338e-05 1.75728e-05 0)
(-1.09549e-05 -4.04054e-06 0)
(-4.86719e-06 6.17052e-06 0)
(-1.56916e-05 3.85005e-06 0)
(-1.06711e-05 -3.95899e-06 0)
(1.73668e-05 -1.32644e-05 0)
(7.01903e-05 -2.25101e-05 0)
(0.000146656 -3.10073e-05 0)
(0.000244516 -3.84781e-05 0)
(0.000360992 -4.4819e-05 0)
(0.0004931 -5.00123e-05 0)
(0.00063782 -5.40779e-05 0)
(0.000792185 -5.70618e-05 0)
(0.000953349 -5.9022e-05 0)
(0.00111862 -6.00298e-05 0)
(0.00128551 -6.0163e-05 0)
(0.00145173 -5.95084e-05 0)
(0.00161525 -5.81562e-05 0)
(0.00177425 -5.62024e-05 0)
(0.00192722 -5.37436e-05 0)
(0.00207287 -5.08785e-05 0)
(0.00221021 -4.7703e-05 0)
(0.00233849 -4.43122e-05 0)
(0.00245721 -4.07952e-05 0)
(0.0025661 -3.72365e-05 0)
(0.00266514 -3.37121e-05 0)
(0.00275448 -3.02921e-05 0)
(0.00283447 -2.70388e-05 0)
(0.00290558 -2.40042e-05 0)
(0.00296844 -2.12297e-05 0)
(0.00302377 -1.87473e-05 0)
(0.00307235 -1.65794e-05 0)
(0.00311504 -1.47378e-05 0)
(0.00315269 -1.32237e-05 0)
(0.00318613 -1.20275e-05 0)
(0.00321615 -1.1129e-05 0)
(0.00324349 -1.04973e-05 0)
(0.00326875 -1.0091e-05 0)
(0.00329242 -9.85876e-06 0)
(0.00331483 -9.73866e-06 0)
(0.00333611 -9.66169e-06 0)
(0.00335617 -9.54554e-06 0)
(0.00337472 -9.30603e-06 0)
(0.00339118 -8.85116e-06 0)
(0.00340471 -8.07669e-06 0)
(0.00341418 -6.8853e-06 0)
(0.00341818 -5.16648e-06 0)
(0.00341496 -2.82088e-06 0)
(0.00340251 2.65502e-07 0)
(0.00337846 4.19712e-06 0)
(0.00334021 9.0784e-06 0)
(0.00328479 1.50153e-05 0)
(0.00320896 2.21115e-05 0)
(0.00310919 3.04715e-05 0)
(0.00298163 4.02005e-05 0)
(0.00282214 5.1406e-05 0)
(0.00262626 6.42016e-05 0)
(0.00238924 7.86959e-05 0)
(0.00210599 9.50085e-05 0)
(0.00177112 0.000113261 0)
(0.00137892 0.000133577 0)
(0.000923366 0.000156107 0)
(0.00039815 0.000180892 0)
(-0.000203257 0.00020805 0)
(-0.0008877 0.000237724 0)
(-0.00166227 0.000269987 0)
(-0.00253389 0.000304845 0)
(-0.00350955 0.000342306 0)
(-0.00459615 0.000382343 0)
(-0.0058003 0.00042488 0)
(-0.00712821 0.000469786 0)
(-0.00858553 0.000516872 0)
(-0.0101772 0.000565887 0)
(-0.011907 0.000616514 0)
(-0.0137781 0.000668368 0)
(-0.0157918 0.000720997 0)
(-0.0179483 0.000773882 0)
(-0.0202461 0.000826439 0)
(-0.0226818 0.000878024 0)
(-0.0252501 0.000927938 0)
(-0.0279439 0.000975436 0)
(-0.0307536 0.00101973 0)
(-0.0336676 0.00106001 0)
(-0.036672 0.00109544 0)
(-0.039751 0.00112518 0)
(-0.042886 0.00114836 0)
(-0.0460569 0.00116417 0)
(-0.049241 0.00117175 0)
(-0.0524139 0.00117033 0)
(-0.0555492 0.00115911 0)
(-0.058619 0.00113738 0)
(-0.0615934 0.00110444 0)
(-0.0644414 0.00105966 0)
(-0.0671308 0.00100249 0)
(-0.0696281 0.000932454 0)
(-0.0718996 0.000849188 0)
(-0.0739107 0.000752442 0)
(-0.075627 0.000642015 0)
(-0.0770125 0.000517423 0)
(-0.0780403 0.000378934 0)
(-0.0786634 0.000228888 0)
(-0.078871 7.05795e-05 0)
(-0.0786347 -0.000102445 0)
(-0.0779233 -0.00028348 0)
(-0.0767252 -0.000471176 0)
(-0.0750289 -0.000662845 0)
(-0.0728315 -0.000855136 0)
(-0.0701396 -0.00104447 0)
(-0.0669687 -0.00122682 0)
(-0.0633451 -0.00139776 0)
(-0.0593064 -0.00155255 0)
(-0.0549016 -0.00168644 0)
(-0.0501912 -0.00179483 0)
(-0.0452465 -0.00187355 0)
(-0.0401478 -0.00191916 0)
(-0.0349826 -0.00192919 0)
(-0.0298431 -0.00190245 0)
(-0.0248227 -0.00183917 0)
(-0.0200125 -0.00174113 0)
(-0.0154974 -0.00161165 0)
(-0.0113529 -0.00145548 0)
(-0.00764127 -0.00127851 0)
(-0.00440957 -0.00108743 0)
(-0.00168757 -0.000889288 0)
(0.000512601 -0.000691046 0)
(0.00219594 -0.000499064 0)
(0.0033833 -0.000318923 0)
(0.00410876 -0.000155005 0)
(0.0044173 -1.05529e-05 0)
(0.00436198 0.00011179 0)
(0.00400391 0.000210428 0)
(0.00340716 0.000283219 0)
(0.00264666 0.000326292 0)
(0.00180789 0.000333177 0)
(0.000994552 0.000293325 0)
(0.000343934 0.000191492 0)
(1.03236e-05 3.9497e-05 0)
(-5.20238e-06 1.13585e-05 0)
(-1.25126e-05 3.8564e-06 0)
(5.46528e-06 -1.62542e-05 0)
(5.77963e-05 -4.04417e-05 0)
(0.000147307 -6.47942e-05 0)
(0.000272731 -8.74528e-05 0)
(0.000430987 -0.000107568 0)
(0.000618055 -0.000124775 0)
(0.000829486 -0.000138958 0)
(0.00106069 -0.000150127 0)
(0.0013071 -0.000158375 0)
(0.00156429 -0.00016384 0)
(0.00182807 -0.000166701 0)
(0.00209451 -0.000167163 0)
(0.00236002 -0.000165454 0)
(0.00262136 -0.000161818 0)
(0.00287568 -0.000156512 0)
(0.00312053 -0.0001498 0)
(0.00335387 -0.000141946 0)
(0.00357407 -0.000133215 0)
(0.00377992 -0.000123862 0)
(0.00397057 -0.000114132 0)
(0.00414557 -0.000104255 0)
(0.00430479 -9.44408e-05 0)
(0.00444845 -8.48796e-05 0)
(0.00457701 -7.57387e-05 0)
(0.00469118 -6.71595e-05 0)
(0.00479187 -5.92565e-05 0)
(0.00488016 -5.21174e-05 0)
(0.00495723 -4.58019e-05 0)
(0.00502434 -4.03401e-05 0)
(0.00508274 -3.57327e-05 0)
(0.00513369 -3.19503e-05 0)
(0.00517835 -2.89338e-05 0)
(0.00521776 -2.65942e-05 0)
(0.0052528 -2.48132e-05 0)
(0.00528412 -2.34437e-05 0)
(0.0053121 -2.23106e-05 0)
(0.00533683 -2.12163e-05 0)
(0.00535805 -1.99301e-05 0)
(0.0053751 -1.82111e-05 0)
(0.00538693 -1.57962e-05 0)
(0.005392 -1.23932e-05 0)
(0.00538835 -7.73291e-06 0)
(0.00537352 -1.49094e-06 0)
(0.0053445 6.62709e-06 0)
(0.00529788 1.69246e-05 0)
(0.00522967 2.97094e-05 0)
(0.00513541 4.52822e-05 0)
(0.00501013 6.39462e-05 0)
(0.00484836 8.60004e-05 0)
(0.00464415 0.000111744 0)
(0.00439106 0.000141477 0)
(0.00408214 0.000175505 0)
(0.00370996 0.000214141 0)
(0.00326659 0.000257695 0)
(0.00274359 0.000306493 0)
(0.00213206 0.000360905 0)
(0.00142263 0.000421119 0)
(0.000605537 0.000487444 0)
(-0.000329553 0.000560281 0)
(-0.00139345 0.000639896 0)
(-0.00259688 0.000726429 0)
(-0.00395074 0.000819973 0)
(-0.00546607 0.000920562 0)
(-0.00715364 0.00102814 0)
(-0.00902391 0.00114253 0)
(-0.0110867 0.0012634 0)
(-0.0133509 0.00139028 0)
(-0.0158245 0.0015225 0)
(-0.0185138 0.00165925 0)
(-0.0214236 0.00179953 0)
(-0.0245567 0.00194212 0)
(-0.0279134 0.00208568 0)
(-0.0314918 0.00222863 0)
(-0.0352869 0.00236927 0)
(-0.039291 0.00250574 0)
(-0.043493 0.00263605 0)
(-0.0478787 0.0027581 0)
(-0.0524303 0.00286974 0)
(-0.0571266 0.00296874 0)
(-0.0619433 0.00305287 0)
(-0.0668524 0.00311989 0)
(-0.0718229 0.00316762 0)
(-0.0768206 0.0031939 0)
(-0.0818084 0.00319669 0)
(-0.0867465 0.00317402 0)
(-0.0915927 0.00312406 0)
(-0.0963026 0.00304511 0)
(-0.10083 0.00293562 0)
(-0.105127 0.00279426 0)
(-0.109144 0.00261988 0)
(-0.112831 0.0024116 0)
(-0.116139 0.00216883 0)
(-0.119016 0.00189132 0)
(-0.121413 0.00157912 0)
(-0.12328 0.00123219 0)
(-0.124581 0.000847585 0)
(-0.12524 0.000444642 0)
(-0.125269 6.09094e-06 0)
(-0.124599 -0.000455565 0)
(-0.123211 -0.000938283 0)
(-0.121087 -0.00143486 0)
(-0.118215 -0.00193847 0)
(-0.114597 -0.00244057 0)
(-0.110248 -0.00293198 0)
(-0.105194 -0.00340258 0)
(-0.0994783 -0.00384133 0)
(-0.0931589 -0.00423659 0)
(-0.0863099 -0.00457671 0)
(-0.079021 -0.00485046 0)
(-0.0713965 -0.00504774 0)
(-0.0635534 -0.00516016 0)
(-0.0556186 -0.00518174 0)
(-0.0477256 -0.00510949 0)
(-0.0400097 -0.00494392 0)
(-0.0326035 -0.00468923 0)
(-0.0256316 -0.00435345 0)
(-0.0192058 -0.00394805 0)
(-0.0134199 -0.00348748 0)
(-0.00834665 -0.00298829 0)
(-0.00403453 -0.00246814 0)
(-0.000506706 -0.00194471 0)
(0.00223877 -0.00143457 0)
(0.00422743 -0.000952436 0)
(0.00550552 -0.000510457 0)
(0.00613701 -0.000118229 0)
(0.00619929 0.000216882 0)
(0.00578394 0.000488355 0)
(0.00498915 0.000690381 0)
(0.00392998 0.000812226 0)
(0.00273648 0.000838639 0)
(0.00156107 0.00074698 0)
(0.000595044 0.000510642 0)
(4.27133e-05 0.000153102 0)
(-4.47081e-06 1.47103e-05 0)
(-3.25934e-06 -1.56173e-06 0)
(3.23935e-05 -3.90541e-05 0)
(0.00011214 -8.38311e-05 0)
(0.00023931 -0.000129184 0)
(0.000412617 -0.000171692 0)
(0.000628412 -0.000209673 0)
(0.000881741 -0.000242341 0)
(0.00116698 -0.000269387 0)
(0.00147825 -0.000290775 0)
(0.00180962 -0.000306633 0)
(0.0021553 -0.000317197 0)
(0.00250978 -0.000322786 0)
(0.00286788 -0.000323777 0)
(0.00322482 -0.000320595 0)
(0.00357629 -0.000313699 0)
(0.00391849 -0.000303576 0)
(0.00424814 -0.000290723 0)
(0.00456248 -0.000275648 0)
(0.0048593 -0.000258849 0)
(0.00513694 -0.000240816 0)
(0.00539422 -0.000222014 0)
(0.00563045 -0.000202883 0)
(0.00584543 -0.000183824 0)
(0.00603933 -0.0001652 0)
(0.00621272 -0.000147329 0)
(0.00636645 -0.00013048 0)
(0.00650166 -0.000114873 0)
(0.00661968 -0.000100674 0)
(0.00672199 -8.79925e-05 0)
(0.00681016 -7.68845e-05 0)
(0.00688577 -6.73466e-05 0)
(0.00695037 -5.93179e-05 0)
(0.00700538 -5.26791e-05 0)
(0.00705206 -4.7253e-05 0)
(0.00709143 -4.2805e-05 0)
(0.0071242 -3.90444e-05 0)
(0.00715074 -3.56257e-05 0)
(0.00717097 -3.21584e-05 0)
(0.00718434 -2.8191e-05 0)
(0.00718977 -2.32429e-05 0)
(0.00718562 -1.68106e-05 0)
(0.00716963 -8.31117e-06 0)
(0.00713885 2.81545e-06 0)
(0.00708975 1.71636e-05 0)
(0.00701804 3.53326e-05 0)
(0.00691878 5.79262e-05 0)
(0.00678632 8.55519e-05 0)
(0.00661431 0.000118809 0)
(0.00639572 0.000158297 0)
(0.00612282 0.000204611 0)
(0.0057872 0.000258342 0)
(0.0053798 0.000320083 0)
(0.00489085 0.000390432 0)
(0.00430993 0.000469998 0)
(0.00362596 0.000559404 0)
(0.0028272 0.000659224 0)
(0.00190142 0.000769922 0)
(0.000835576 0.000892294 0)
(-0.000384034 0.00102688 0)
(-0.0017713 0.00117414 0)
(-0.00334044 0.00133441 0)
(-0.00510601 0.00150799 0)
(-0.00708253 0.00169501 0)
(-0.00928438 0.00189542 0)
(-0.0117254 0.00210894 0)
(-0.0144189 0.00233506 0)
(-0.0173768 0.00257297 0)
(-0.0206098 0.00282157 0)
(-0.0241267 0.00307939 0)
(-0.0279342 0.00334464 0)
(-0.0320364 0.00361518 0)
(-0.0364342 0.00388849 0)
(-0.0411255 0.00416174 0)
(-0.0461044 0.00443177 0)
(-0.0513611 0.00469513 0)
(-0.0568814 0.00494811 0)
(-0.0626471 0.00518681 0)
(-0.0686354 0.00540717 0)
(-0.074819 0.00560502 0)
(-0.0811662 0.00577619 0)
(-0.0876411 0.00591649 0)
(-0.0942035 0.00602183 0)
(-0.100809 0.00608824 0)
(-0.107411 0.0061119 0)
(-0.113958 0.00608923 0)
(-0.120395 0.00601689 0)
(-0.126668 0.00589182 0)
(-0.132717 0.00571127 0)
(-0.138482 0.00547286 0)
(-0.143902 0.00517458 0)
(-0.148915 0.00481486 0)
(-0.153458 0.00439264 0)
(-0.15747 0.00390741 0)
(-0.160889 0.00335929 0)
(-0.163657 0.00274909 0)
(-0.165716 0.00207815 0)
(-0.167018 0.00134589 0)
(-0.167503 0.000567464 0)
(-0.167144 -0.00025734 0)
(-0.165892 -0.00112625 0)
(-0.163727 -0.00202755 0)
(-0.160628 -0.0029497 0)
(-0.156591 -0.00388011 0)
(-0.151622 -0.00480337 0)
(-0.145746 -0.00570292 0)
(-0.139 -0.0065608 0)
(-0.131441 -0.00735751 0)
(-0.123144 -0.00807268 0)
(-0.114201 -0.00868593 0)
(-0.104724 -0.00917771 0)
(-0.09484 -0.00953041 0)
(-0.0846926 -0.00972937 0)
(-0.074436 -0.00976406 0)
(-0.0642326 -0.00962912 0)
(-0.0542476 -0.00932512 0)
(-0.0446438 -0.00885913 0)
(-0.0355756 -0.00824482 0)
(-0.0271828 -0.00750205 0)
(-0.0195852 -0.006656 0)
(-0.0128779 -0.00573587 0)
(-0.00712723 -0.00477313 0)
(-0.00236905 -0.00379969 0)
(0.00139176 -0.00284603 0)
(0.00418011 -0.0019396 0)
(0.00604803 -0.0011038 0)
(0.00707128 -0.000357648 0)
(0.00734542 0.000283391 0)
(0.00698365 0.000806509 0)
(0.00611389 0.00119815 0)
(0.00488234 0.00143942 0)
(0.00345495 0.00150403 0)
(0.00202091 0.0013561 0)
(0.000811441 0.000957994 0)
(7.21012e-05 0.00033484 0)
(-3.24085e-06 1.53186e-05 0)
(9.76153e-06 -1.45899e-05 0)
(6.64258e-05 -7.39655e-05 0)
(0.000175865 -0.000143987 0)
(0.000341389 -0.000215067 0)
(0.000561637 -0.000282016 0)
(0.000832519 -0.000342128 0)
(0.00114835 -0.000394049 0)
(0.00150256 -0.000437191 0)
(0.00188818 -0.000471414 0)
(0.00229814 -0.000496865 0)
(0.00272549 -0.000513883 0)
(0.00316355 -0.000522944 0)
(0.00360602 -0.000524632 0)
(0.00404711 -0.000519612 0)
(0.00448154 -0.000508606 0)
(0.00490464 -0.000492385 0)
(0.00531237 -0.000471742 0)
(0.00570134 -0.00044748 0)
(0.00606878 -0.000420396 0)
(0.00641259 -0.00039127 0)
(0.00673128 -0.000360844 0)
(0.00702394 -0.00032982 0)
(0.0072902 -0.000298839 0)
(0.00753023 -0.000268482 0)
(0.00774459 -0.000239256 0)
(0.00793424 -0.000211591 0)
(0.00810047 -0.000185835 0)
(0.0082448 -0.00016225 0)
(0.00836892 -0.000141012 0)
(0.00847462 -0.000122201 0)
(0.0085637 -0.000105806 0)
(0.00863791 -9.17212e-05 0)
(0.00869885 -7.9747e-05 0)
(0.00874787 -6.95879e-05 0)
(0.00878607 -6.08553e-05 0)
(0.00881411 -5.30689e-05 0)
(0.00883221 -4.56592e-05 0)
(0.00884007 -3.79803e-05 0)
(0.00883675 -2.92946e-05 0)
(0.0088207 -1.88208e-05 0)
(0.00878954 -5.68279e-06 0)
(0.00874021 1.10256e-05 0)
(0.0086688 3.2246e-05 0)
(0.00857056 5.89572e-05 0)
(0.00843986 9.21512e-05 0)
(0.0082702 0.000132826 0)
(0.0080542 0.000181986 0)
(0.00778359 0.000240624 0)
(0.00744921 0.000309732 0)
(0.00704105 0.000390294 0)
(0.00654822 0.000483286 0)
(0.00595898 0.000589685 0)
(0.00526076 0.000710469 0)
(0.00444016 0.000846637 0)
(0.00348303 0.000999045 0)
(0.00237441 0.00116873 0)
(0.00109842 0.0013567 0)
(-0.000361307 0.00156382 0)
(-0.00202167 0.00179083 0)
(-0.0039001 0.00203846 0)
(-0.00601427 0.00230723 0)
(-0.00838195 0.00259743 0)
(-0.0110207 0.0029091 0)
(-0.0139476 0.00324195 0)
(-0.017179 0.00359533 0)
(-0.0207297 0.00396813 0)
(-0.0246132 0.00435877 0)
(-0.0288406 0.00476516 0)
(-0.0334205 0.00518465 0)
(-0.0383583 0.00561402 0)
(-0.0436559 0.00604947 0)
(-0.0493113 0.00648668 0)
(-0.0553177 0.00692077 0)
(-0.0616639 0.00734639 0)
(-0.0683333 0.00775778 0)
(-0.0753044 0.00814881 0)
(-0.0825498 0.00851311 0)
(-0.0900372 0.00884413 0)
(-0.0977286 0.00913525 0)
(-0.105581 0.00937989 0)
(-0.113547 0.00957159 0)
(-0.121573 0.0097041 0)
(-0.129603 0.00977148 0)
(-0.137578 0.00976816 0)
(-0.145432 0.00968897 0)
(-0.153101 0.00952923 0)
(-0.160517 0.0092848 0)
(-0.167608 0.00895209 0)
(-0.174306 0.00852813 0)
(-0.180538 0.00801059 0)
(-0.186235 0.00739789 0)
(-0.191325 0.00668922 0)
(-0.195741 0.00588467 0)
(-0.199416 0.00498531 0)
(-0.202286 0.00399327 0)
(-0.204292 0.00291172 0)
(-0.205382 0.00174362 0)
(-0.205504 0.000505462 0)
(-0.204617 -0.000799188 0)
(-0.202686 -0.00216339 0)
(-0.19969 -0.00357009 0)
(-0.195616 -0.00500246 0)
(-0.190463 -0.00644119 0)
(-0.184247 -0.00786314 0)
(-0.176999 -0.00924341 0)
(-0.168768 -0.0105553 0)
(-0.15962 -0.0117699 0)
(-0.149641 -0.0128573 0)
(-0.138939 -0.0137876 0)
(-0.127637 -0.0145319 0)
(-0.115879 -0.0150644 0)
(-0.103824 -0.0153632 0)
(-0.0916443 -0.0154128 0)
(-0.0795218 -0.0152045 0)
(-0.067642 -0.0147389 0)
(-0.0561888 -0.0140255 0)
(-0.0453386 -0.0130839 0)
(-0.0352532 -0.0119428 0)
(-0.0260736 -0.0106391 0)
(-0.0179146 -0.00921629 0)
(-0.01086 -0.0077214 0)
(-0.00495947 -0.00620295 0)
(-0.000227782 -0.00470795 0)
(0.00335513 -0.00327949 0)
(0.00584178 -0.00195514 0)
(0.00731399 -0.000766295 0)
(0.00787892 0.000260997 0)
(0.00766621 0.00110444 0)
(0.006826 0.00174113 0)
(0.0055293 0.00214206 0)
(0.00397012 0.00226882 0)
(0.00236581 0.00207204 0)
(0.000979518 0.00150195 0)
(9.48695e-05 0.000571424 0)
(-1.78188e-06 1.20424e-05 0)
(2.49408e-05 -3.66212e-05 0)
(0.000104748 -0.000122113 0)
(0.000245407 -0.000221421 0)
(0.000449673 -0.00032219 0)
(0.000715961 -0.000417397 0)
(0.00103976 -0.000503191 0)
(0.00141478 -0.000577544 0)
(0.00183366 -0.000639502 0)
(0.00228854 -0.000688776 0)
(0.00277136 -0.000725504 0)
(0.00327417 -0.00075012 0)
(0.00378929 -0.000763273 0)
(0.00430945 -0.000765776 0)
(0.00482793 -0.000758565 0)
(0.0053386 -0.000742671 0)
(0.00583604 -0.00071919 0)
(0.0063155 -0.000689257 0)
(0.006773 -0.000654025 0)
(0.00720528 -0.000614637 0)
(0.00760982 -0.000572212 0)
(0.0079848 -0.00052782 0)
(0.0083291 -0.000482465 0)
(0.00864219 -0.000437075 0)
(0.00892416 -0.000392481 0)
(0.00917555 -0.000349414 0)
(0.00939738 -0.000308492 0)
(0.00959101 -0.000270212 0)
(0.00975808 -0.000234949 0)
(0.00990042 -0.000202946 0)
(0.01002 -0.000174313 0)
(0.0101186 -0.000149025 0)
(0.0101983 -0.000126917 0)
(0.0102606 -0.000107686 0)
(0.010307 -9.0888e-05 0)
(0.0103385 -7.59445e-05 0)
(0.0103556 -6.21404e-05 0)
(0.0103584 -4.86291e-05 0)
(0.0103462 -3.44581e-05 0)
(0.0103175 -1.85258e-05 0)
(0.0102703 3.35507e-07 0)
(0.0102014 2.34047e-05 0)
(0.010107 5.20317e-05 0)
(0.00998185 8.76189e-05 0)
(0.00982014 0.000131616 0)
(0.00961479 0.000185498 0)
(0.00935768 0.000250751 0)
(0.00903964 0.000328867 0)
(0.00865044 0.000421329 0)
(0.00817876 0.000529611 0)
(0.00761226 0.000655174 0)
(0.00693755 0.000799469 0)
(0.00614024 0.000963934 0)
(0.00520493 0.00115 0)
(0.00411532 0.00135904 0)
(0.00285407 0.00159254 0)
(0.00140303 0.00185182 0)
(-0.000256748 0.00213817 0)
(-0.0021449 0.00245283 0)
(-0.00428159 0.00279685 0)
(-0.00668738 0.00317107 0)
(-0.00938292 0.00357607 0)
(-0.0123887 0.00401206 0)
(-0.0157249 0.00447884 0)
(-0.0194104 0.00497567 0)
(-0.023463 0.00550126 0)
(-0.0278987 0.00605362 0)
(-0.0327309 0.00663004 0)
(-0.0379702 0.00722703 0)
(-0.0436234 0.00784027 0)
(-0.0496935 0.00846463 0)
(-0.0561786 0.00909415 0)
(-0.0630719 0.0097221 0)
(-0.0703607 0.010341 0)
(-0.0780268 0.0109428 0)
(-0.0860456 0.0115188 0)
(-0.0943863 0.01206 0)
(-0.103012 0.0125571 0)
(-0.111879 0.0130007 0)
(-0.120938 0.0133813 0)
(-0.130136 0.0136897 0)
(-0.139412 0.0139171 0)
(-0.148701 0.0140549 0)
(-0.157936 0.0140954 0)
(-0.167046 0.0140312 0)
(-0.175955 0.013856 0)
(-0.184589 0.0135639 0)
(-0.19287 0.0131501 0)
(-0.20072 0.0126106 0)
(-0.208062 0.0119423 0)
(-0.214818 0.0111432 0)
(-0.220915 0.0102122 0)
(-0.226278 0.00914937 0)
(-0.230836 0.00795602 0)
(-0.234523 0.00663478 0)
(-0.237276 0.00518982 0)
(-0.239036 0.0036269 0)
(-0.239754 0.00195314 0)
(-0.239383 0.000185726 0)
(-0.237883 -0.00166662 0)
(-0.235227 -0.00359077 0)
(-0.231399 -0.00556492 0)
(-0.226391 -0.00756634 0)
(-0.220211 -0.00956867 0)
(-0.21288 -0.0115409 0)
(-0.204436 -0.0134493 0)
(-0.194935 -0.0152583 0)
(-0.184451 -0.0169294 0)
(-0.173077 -0.0184229 0)
(-0.160927 -0.0196988 0)
(-0.148132 -0.020719 0)
(-0.134844 -0.0214486 0)
(-0.121232 -0.0218583 0)
(-0.107478 -0.0219266 0)
(-0.0937754 -0.0216415 0)
(-0.0803224 -0.0210021 0)
(-0.0673179 -0.0200203 0)
(-0.0549541 -0.018721 0)
(-0.04341 -0.0171416 0)
(-0.0328447 -0.015331 0)
(-0.0233905 -0.0133471 0)
(-0.0151482 -0.0112539 0)
(-0.0081825 -0.0091178 0)
(-0.00251996 -0.00700438 0)
(0.00185116 -0.00497466 0)
(0.00497964 -0.00308288 0)
(0.0069485 -0.00137544 0)
(0.00787132 0.000108421 0)
(0.00788894 0.00133439 0)
(0.00716778 0.00226809 0)
(0.00589772 0.00286915 0)
(0.00429453 0.00308619 0)
(0.00259765 0.00285588 0)
(0.00109692 0.00211375 0)
(0.000110707 0.000847792 0)
(-2.71046e-07 4.57235e-06 0)
(4.11226e-05 -6.84115e-05 0)
(0.00014531 -0.000184213 0)
(0.000318064 -0.000316496 0)
(0.000561135 -0.0004504 0)
(0.000872517 -0.000577116 0)
(0.00124725 -0.000691595 0)
(0.00167847 -0.000791063 0)
(0.00215817 -0.000874138 0)
(0.00267771 -0.000940332 0)
(0.0032282 -0.00098975 0)
(0.00380081 -0.00102291 0)
(0.00438701 -0.00104065 0)
(0.00497867 -0.00104402 0)
(0.00556827 -0.00103425 0)
(0.00614893 -0.00101272 0)
(0.00671451 -0.000980889 0)
(0.00725968 -0.000940272 0)
(0.00777989 -0.000892412 0)
(0.00827143 -0.000838844 0)
(0.0087314 -0.000781066 0)
(0.00915767 -0.000720516 0)
(0.00954889 -0.000658543 0)
(0.00990436 -0.00059639 0)
(0.0102241 -0.000535176 0)
(0.0105085 -0.000475881 0)
(0.0107587 -0.000419331 0)
(0.010976 -0.000366191 0)
(0.0111621 -0.000316959 0)
(0.0113189 -0.000271952 0)
(0.0114485 -0.000231308 0)
(0.0115528 -0.000194977 0)
(0.0116337 -0.00016272 0)
(0.0116928 -0.000134108 0)
(0.0117315 -0.000108522 0)
(0.0117508 -8.5152e-05 0)
(0.0117508 -6.30057e-05 0)
(0.0117314 -4.09122e-05 0)
(0.0116915 -1.75344e-05 0)
(0.0116291 8.63134e-06 0)
(0.0115414 3.92173e-05 0)
(0.0114245 7.5991e-05 0)
(0.0112734 0.00012082 0)
(0.011082 0.00017565 0)
(0.0108431 0.00024249 0)
(0.010548 0.000323387 0)
(0.0101871 0.000420405 0)
(0.00974933 0.000535616 0)
(0.00922243 0.00067108 0)
(0.00859292 0.000828841 0)
(0.00784609 0.00101092 0)
(0.00696605 0.00121933 0)
(0.00593575 0.00145604 0)
(0.004737 0.001723 0)
(0.00335055 0.00202213 0)
(0.00175611 0.00235529 0)
(-6.75127e-05 0.0027243 0)
(-0.00214233 0.00313082 0)
(-0.004491 0.00357639 0)
(-0.00713662 0.00406226 0)
(-0.0101025 0.00458935 0)
(-0.0134119 0.00515818 0)
(-0.0170874 0.00576871 0)
(-0.021151 0.00642027 0)
(-0.0256228 0.00711146 0)
(-0.0305214 0.00783998 0)
(-0.0358623 0.00860262 0)
(-0.0416582 0.0093951 0)
(-0.0479174 0.0102121 0)
(-0.0546442 0.0110471 0)
(-0.0618372 0.0118924 0)
(-0.0694894 0.0127396 0)
(-0.0775877 0.0135787 0)
(-0.0861121 0.0143993 0)
(-0.0950359 0.01519 0)
(-0.104325 0.0159387 0)
(-0.113939 0.0166331 0)
(-0.123829 0.0172607 0)
(-0.133941 0.0178088 0)
(-0.144216 0.0182651 0)
(-0.154585 0.0186177 0)
(-0.16498 0.0188554 0)
(-0.175324 0.0189677 0)
(-0.18554 0.018945 0)
(-0.195546 0.0187788 0)
(-0.205261 0.0184617 0)
(-0.214602 0.0179875 0)
(-0.223485 0.0173512 0)
(-0.231829 0.0165489 0)
(-0.239553 0.0155782 0)
(-0.246577 0.0144378 0)
(-0.252827 0.013128 0)
(-0.25823 0.0116502 0)
(-0.262717 0.0100077 0)
(-0.266224 0.00820527 0)
(-0.268693 0.00624962 0)
(-0.270071 0.00414966 0)
(-0.270312 0.00191659 0)
(-0.269375 -0.000431 0)
(-0.267229 -0.00287868 0)
(-0.263852 -0.00540734 0)
(-0.259233 -0.00799036 0)
(-0.253373 -0.0105989 0)
(-0.246284 -0.0131997 0)
(-0.237992 -0.0157541 0)
(-0.22854 -0.0182199 0)
(-0.217988 -0.0205525 0)
(-0.206411 -0.0227042 0)
(-0.193908 -0.0246254 0)
(-0.180592 -0.0262665 0)
(-0.166599 -0.0275795 0)
(-0.152084 -0.0285207 0)
(-0.137217 -0.0290528 0)
(-0.122185 -0.0291475 0)
(-0.107188 -0.0287886 0)
(-0.092431 -0.0279733 0)
(-0.0781236 -0.0267147 0)
(-0.0644695 -0.025042 0)
(-0.0516615 -0.0230009 0)
(-0.0398739 -0.0206514 0)
(-0.0292554 -0.0180662 0)
(-0.0199232 -0.0153264 0)
(-0.0119573 -0.0125174 0)
(-0.00539822 -0.00972463 0)
(-0.000244858 -0.00702881 0)
(0.00354452 -0.00450313 0)
(0.00605028 -0.00221139 0)
(0.00738809 -0.000208472 0)
(0.00770563 0.0014569 0)
(0.0071799 0.00273741 0)
(0.00601542 0.00357939 0)
(0.00444439 0.00391784 0)
(0.00272397 0.00367455 0)
(0.00116645 0.00276729 0)
(0.000120314 0.00114986 0)
(1.21406e-06 -7.24442e-06 0)
(5.76019e-05 -0.000110316 0)
(0.000186681 -0.000260619 0)
(0.00039183 -0.000429332 0)
(0.000673433 -0.000599444 0)
(0.00102886 -0.000760472 0)
(0.00145263 -0.000906185 0)
(0.00193733 -0.00103302 0)
(0.00247435 -0.00113914 0)
(0.00305437 -0.0012238 0)
(0.0036678 -0.00128707 0)
(0.00430506 -0.00132954 0)
(0.00495683 -0.00135221 0)
(0.00561428 -0.00135641 0)
(0.00626916 -0.0013437 0)
(0.00691392 -0.0013158 0)
(0.00754182 -0.00127457 0)
(0.00814696 -0.00122194 0)
(0.00872432 -0.0011599 0)
(0.00926976 -0.00109039 0)
(0.00978002 -0.00101533 0)
(0.0102527 -0.000936557 0)
(0.0106861 -0.000855801 0)
(0.0110796 -0.00077465 0)
(0.0114328 -0.000694534 0)
(0.0117462 -0.000616703 0)
(0.0120208 -0.000542214 0)
(0.012258 -0.000471912 0)
(0.0124594 -0.000406422 0)
(0.0126269 -0.000346139 0)
(0.0127626 -0.000291224 0)
(0.0128684 -0.000241593 0)
(0.0129462 -0.000196916 0)
(0.0129975 -0.000156615 0)
(0.0130236 -0.000119861 0)
(0.0130251 -8.55806e-05 0)
(0.013002 -5.24576e-05 0)
(0.0129538 -1.89432e-05 0)
(0.0128787 1.6732e-05 0)
(0.0127743 5.65499e-05 0)
(0.012637 0.000102669 0)
(0.012462 0.000157421 0)
(0.0122433 0.000223269 0)
(0.0119736 0.000302786 0)
(0.0116442 0.000398623 0)
(0.0112451 0.000513487 0)
(0.0107648 0.000650107 0)
(0.0101903 0.000811221 0)
(0.00950755 0.000999551 0)
(0.00870067 0.0012178 0)
(0.00775264 0.00146863 0)
(0.00664506 0.00175466 0)
(0.00535823 0.00207849 0)
(0.00387122 0.00244263 0)
(0.00216195 0.00284955 0)
(0.000207233 0.00330162 0)
(-0.002017 0.00380108 0)
(-0.00453561 0.00434996 0)
(-0.00737402 0.00495003 0)
(-0.0105579 0.00560268 0)
(-0.014113 0.00630878 0)
(-0.0180644 0.00706863 0)
(-0.0224364 0.00788171 0)
(-0.027252 0.00874665 0)
(-0.0325317 0.009661 0)
(-0.0382936 0.0106211 0)
(-0.0445521 0.0116222 0)
(-0.0513176 0.0126578 0)
(-0.0585952 0.0137202 0)
(-0.0663848 0.0148003 0)
(-0.0746794 0.0158874 0)
(-0.0834656 0.0169696 0)
(-0.0927225 0.0180336 0)
(-0.102421 0.0190653 0)
(-0.112526 0.0200494 0)
(-0.122992 0.0209703 0)
(-0.133767 0.021812 0)
(-0.144793 0.0225585 0)
(-0.156003 0.0231939 0)
(-0.167327 0.0237031 0)
(-0.178688 0.0240716 0)
(-0.190004 0.0242861 0)
(-0.201193 0.0243345 0)
(-0.212166 0.024206 0)
(-0.222838 0.0238914 0)
(-0.233121 0.0233831 0)
(-0.242927 0.022675 0)
(-0.252172 0.0217626 0)
(-0.260772 0.0206431 0)
(-0.268648 0.0193152 0)
(-0.275722 0.0177793 0)
(-0.281921 0.0160374 0)
(-0.287179 0.0140931 0)
(-0.291431 0.0119521 0)
(-0.29462 0.0096217 0)
(-0.296694 0.00711168 0)
(-0.297606 0.00443423 0)
(-0.297318 0.00160439 0)
(-0.295798 -0.00135693 0)
(-0.293019 -0.00442996 0)
(-0.288967 -0.0075901 0)
(-0.283638 -0.010806 0)
(-0.277035 -0.0140429 0)
(-0.269175 -0.017261 0)
(-0.260089 -0.0204147 0)
(-0.249818 -0.0234538 0)
(-0.238425 -0.0263251 0)
(-0.225985 -0.0289719 0)
(-0.212593 -0.0313354 0)
(-0.198363 -0.033356 0)
(-0.183428 -0.0349763 0)
(-0.167941 -0.0361433 0)
(-0.152072 -0.0368111 0)
(-0.136009 -0.0369444 0)
(-0.119952 -0.0365216 0)
(-0.104112 -0.035537 0)
(-0.0887039 -0.0340036 0)
(-0.0739403 -0.0319541 0)
(-0.0600259 -0.0294409 0)
(-0.0471483 -0.026535 0)
(-0.0354715 -0.0233229 0)
(-0.0251285 -0.0199029 0)
(-0.0162155 -0.0163798 0)
(-0.00878751 -0.0128599 0)
(-0.00285624 -0.0094452 0)
(0.00161058 -0.0062296 0)
(0.00468762 -0.00329646 0)
(0.00648915 -0.000718624 0)
(0.00716592 0.0014389 0)
(0.00690133 0.00311347 0)
(0.00591048 0.00423713 0)
(0.00443796 0.00473019 0)
(0.00275525 0.0044983 0)
(0.00119322 0.0034386 0)
(0.000124711 0.00146507 0)
(2.61284e-06 -2.33635e-05 0)
(7.38664e-05 -0.000162397 0)
(0.000227821 -0.000351398 0)
(0.000465208 -0.00055984 0)
(0.000784778 -0.000768942 0)
(0.0011831 -0.000966729 0)
(0.00165406 -0.00114584 0)
(0.00218969 -0.00130194 0)
(0.00278081 -0.00143268 0)
(0.00341751 -0.00153707 0)
(0.00408954 -0.00161511 0)
(0.00478668 -0.00166744 0)
(0.00549897 -0.00169527 0)
(0.0062169 -0.00170019 0)
(0.0069316 -0.00168408 0)
(0.00763495 -0.00164906 0)
(0.00831966 -0.00159742 0)
(0.00897934 -0.00153152 0)
(0.00960852 -0.00145381 0)
(0.0102027 -0.00136669 0)