/*--------------------------------*- C++ -*----------------------------------*\
  =========                 |
  \\      /  F ield         | OpenFOAM: The Open Source CFD Toolbox
   \\    /   O peration     | Website:  https://openfoam.org
    \\  /    A nd           | Version:  12
     \\/     M anipulation  |
\*---------------------------------------------------------------------------*/
FoamFile
{
    format      ascii;
    class       volScalarField;
    location    "7";
    object      k;
}
// * * * * * * * * * * * * * * * * * * * * * * * * * * * * * * * * * * * * * //

dimensions      [0 2 -2 0 0 0 0];

internalField   nonuniform List<scalar> 
18225
(
3.31474e-12
2.50464e-11
5.31525e-11
8.6814e-11
1.24907e-10
1.66613e-10
2.11364e-10
2.58756e-10
3.08478e-10
3.60283e-10
4.13967e-10
4.69351e-10
5.26283e-10
5.84621e-10
6.44239e-10
7.05021e-10
7.66857e-10
8.29644e-10
8.93284e-10
9.57683e-10
1.02275e-09
1.0884e-09
1.15455e-09
1.22111e-09
1.288e-09
1.35514e-09
1.42246e-09
1.48987e-09
1.5573e-09
1.62468e-09
1.69192e-09
1.75895e-09
1.82571e-09
1.89211e-09
1.95809e-09
2.02357e-09
2.08848e-09
2.15275e-09
2.21631e-09
2.2791e-09
2.34103e-09
2.40205e-09
2.46208e-09
2.52106e-09
2.57893e-09
2.63561e-09
2.69104e-09
2.74516e-09
2.7979e-09
2.8492e-09
2.89901e-09
2.94725e-09
2.99387e-09
3.03882e-09
3.08202e-09
3.12343e-09
3.16298e-09
3.20063e-09
3.23632e-09
3.26999e-09
3.3016e-09
3.33109e-09
3.35842e-09
3.38353e-09
3.40639e-09
3.42693e-09
3.44514e-09
3.46095e-09
3.47433e-09
3.48525e-09
3.49366e-09
3.49954e-09
3.50285e-09
3.50356e-09
3.50164e-09
3.49708e-09
3.48984e-09
3.47991e-09
3.46728e-09
3.45192e-09
3.43384e-09
3.41303e-09
3.38947e-09
3.36319e-09
3.33417e-09
3.30244e-09
3.268e-09
3.23087e-09
3.19108e-09
3.14864e-09
3.10361e-09
3.056e-09
3.00586e-09
2.95324e-09
2.89819e-09
2.84076e-09
2.78102e-09
2.71904e-09
2.65488e-09
2.58863e-09
2.52036e-09
2.45017e-09
2.37815e-09
2.3044e-09
2.22901e-09
2.15211e-09
2.07381e-09
1.99422e-09
1.91348e-09
1.8317e-09
1.74903e-09
1.66562e-09
1.5816e-09
1.49712e-09
1.41236e-09
1.32746e-09
1.24261e-09
1.15797e-09
1.07373e-09
9.90096e-10
9.07254e-10
8.2542e-10
7.4482e-10
6.65693e-10
5.88295e-10
5.12908e-10
4.3984e-10
3.69443e-10
3.02126e-10
2.38384e-10
1.78848e-10
1.24375e-10
7.61785e-11
3.59044e-11
4.75186e-12
2.2428e-11
1.99697e-10
4.55681e-10
7.62834e-10
1.10862e-09
1.48587e-09
1.88987e-09
2.31722e-09
2.76527e-09
3.23188e-09
3.71527e-09
4.21386e-09
4.72628e-09
5.25131e-09
5.78781e-09
6.33473e-09
6.89111e-09
7.45601e-09
8.02857e-09
8.60793e-09
9.1933e-09
9.78389e-09
1.03789e-08
1.09777e-08
1.15794e-08
1.21834e-08
1.27889e-08
1.33953e-08
1.40019e-08
1.46079e-08
1.52128e-08
1.58158e-08
1.64163e-08
1.70136e-08
1.76071e-08
1.81961e-08
1.878e-08
1.93582e-08
1.99299e-08
2.04947e-08
2.10518e-08
2.16007e-08
2.21407e-08
2.26713e-08
2.31919e-08
2.37018e-08
2.42004e-08
2.46873e-08
2.51618e-08
2.56234e-08
2.60714e-08
2.65055e-08
2.69249e-08
2.73293e-08
2.7718e-08
2.80906e-08
2.84465e-08
2.87853e-08
2.91064e-08
2.94094e-08
2.96939e-08
2.99593e-08
3.02052e-08
3.04313e-08
3.0637e-08
3.0822e-08
3.09859e-08
3.11282e-08
3.12487e-08
3.1347e-08
3.14228e-08
3.14758e-08
3.15056e-08
3.15121e-08
3.1495e-08
3.1454e-08
3.1389e-08
3.12998e-08
3.11862e-08
3.10482e-08
3.08856e-08
3.06985e-08
3.04867e-08
3.02503e-08
2.99894e-08
2.9704e-08
2.93943e-08
2.90603e-08
2.87024e-08
2.83208e-08
2.79157e-08
2.74874e-08
2.70364e-08
2.65631e-08
2.60679e-08
2.55513e-08
2.50139e-08
2.44563e-08
2.38791e-08
2.32831e-08
2.2669e-08
2.20375e-08
2.13895e-08
2.0726e-08
2.00478e-08
1.93559e-08
1.86513e-08
1.79353e-08
1.72087e-08
1.64729e-08
1.57291e-08
1.49785e-08
1.42224e-08
1.34623e-08
1.26994e-08
1.19354e-08
1.11718e-08
1.04101e-08
9.65192e-09
8.89909e-09
8.15338e-09
7.4167e-09
6.69105e-09
5.97856e-09
5.28154e-09
4.60246e-09
3.94408e-09
3.30949e-09
2.70223e-09
2.12657e-09
1.58784e-09
1.09319e-09
6.53261e-10
2.86343e-10
3.21606e-11
4.99518e-11
4.48122e-10
1.02923e-09
1.73133e-09
2.52492e-09
3.39263e-09
4.32297e-09
5.30765e-09
6.34033e-09
7.41595e-09
8.53025e-09
9.67961e-09
1.08608e-08
1.20711e-08
1.33077e-08
1.45683e-08
1.58507e-08
1.71527e-08
1.84723e-08
1.98075e-08
2.11566e-08
2.25177e-08
2.3889e-08
2.52689e-08
2.66556e-08
2.80475e-08
2.9443e-08
3.08405e-08
3.22384e-08
3.36351e-08
3.50291e-08
3.64188e-08
3.78027e-08
3.91793e-08
4.05471e-08
4.19047e-08
4.32504e-08
4.4583e-08
4.59008e-08
4.72026e-08
4.84867e-08
4.9752e-08
5.09968e-08
5.22199e-08
5.34199e-08
5.45954e-08
5.5745e-08
5.68675e-08
5.79615e-08
5.90258e-08
6.0059e-08
6.10598e-08
6.20272e-08
6.29597e-08
6.38562e-08
6.47156e-08
6.55366e-08
6.63182e-08
6.70591e-08
6.77583e-08
6.84147e-08
6.90273e-08
6.95951e-08
7.0117e-08
7.05921e-08
7.10194e-08
7.13981e-08
7.17273e-08
7.20061e-08
7.22338e-08
7.24096e-08
7.25328e-08
7.26027e-08
7.26188e-08
7.25805e-08
7.24872e-08
7.23384e-08
7.21339e-08
7.18732e-08
7.15561e-08
7.11824e-08
7.0752e-08
7.02648e-08
6.97208e-08
6.91202e-08
6.84632e-08
6.77499e-08
6.69809e-08
6.61565e-08
6.52773e-08
6.4344e-08
6.33572e-08
6.2318e-08
6.12272e-08
6.00858e-08
5.88951e-08
5.76564e-08
5.6371e-08
5.50404e-08
5.36662e-08
5.22502e-08
5.07941e-08
4.93e-08
4.77698e-08
4.62057e-08
4.46101e-08
4.29852e-08
4.13336e-08
3.96578e-08
3.79606e-08
3.62448e-08
3.45133e-08
3.27691e-08
3.10155e-08
2.92557e-08
2.74931e-08
2.57311e-08
2.39736e-08
2.22243e-08
2.04872e-08
1.87664e-08
1.70665e-08
1.53919e-08
1.37476e-08
1.2139e-08
1.05718e-08
9.05244e-09
7.58819e-09
6.18746e-09
4.86042e-09
3.61998e-09
2.48359e-09
1.47698e-09
6.43205e-10
7.1701e-11
8.27886e-11
7.43935e-10
1.71223e-09
2.88617e-09
4.21675e-09
5.67458e-09
7.23983e-09
8.89812e-09
1.06384e-08
1.24517e-08
1.43309e-08
1.62695e-08
1.82621e-08
2.03038e-08
2.23901e-08
2.4517e-08
2.66806e-08
2.88774e-08
3.11038e-08
3.33568e-08
3.5633e-08
3.79296e-08
4.02434e-08
4.25717e-08
4.49116e-08
4.72603e-08
4.96151e-08
5.19732e-08
5.43321e-08
5.6689e-08
5.90413e-08
6.13866e-08
6.37221e-08
6.60453e-08
6.83538e-08
7.0645e-08
7.29164e-08
7.51656e-08
7.73901e-08
7.95874e-08
8.17552e-08
8.38912e-08
8.59928e-08
8.80578e-08
9.00839e-08
9.20688e-08
9.40102e-08
9.59058e-08
9.77535e-08
9.9551e-08
1.01296e-07
1.02987e-07
1.04621e-07
1.06197e-07
1.07712e-07
1.09164e-07
1.10552e-07
1.11873e-07
1.13126e-07
1.14309e-07
1.15419e-07
1.16456e-07
1.17416e-07
1.183e-07
1.19105e-07
1.19829e-07
1.20471e-07
1.21029e-07
1.21503e-07
1.2189e-07
1.2219e-07
1.22401e-07
1.22522e-07
1.22552e-07
1.2249e-07
1.22336e-07
1.22087e-07
1.21745e-07
1.21308e-07
1.20775e-07
1.20147e-07
1.19423e-07
1.18603e-07
1.17687e-07
1.16676e-07
1.15569e-07
1.14366e-07
1.1307e-07
1.1168e-07
1.10197e-07
1.08623e-07
1.06958e-07
1.05205e-07
1.03364e-07
1.01438e-07
9.9428e-08
9.73369e-08
9.51667e-08
9.29201e-08
9.05996e-08
8.82083e-08
8.57492e-08
8.32256e-08
8.0641e-08
7.79989e-08
7.53033e-08
7.25581e-08
6.97676e-08
6.69362e-08
6.40684e-08
6.11691e-08
5.82431e-08
5.52956e-08
5.2332e-08
4.93578e-08
4.63788e-08
4.34009e-08
4.04304e-08
3.74738e-08
3.45377e-08
3.16293e-08
2.87561e-08
2.59259e-08
2.31472e-08
2.0429e-08
1.77814e-08
1.52154e-08
1.27434e-08
1.03803e-08
8.1437e-09
6.05604e-09
4.14737e-09
2.46137e-09
1.06966e-09
1.19043e-10
1.19515e-10
1.07461e-09
2.47559e-09
4.17721e-09
6.10922e-09
8.22912e-09
1.0508e-08
1.29245e-08
1.54623e-08
1.81081e-08
2.08509e-08
2.36815e-08
2.65915e-08
2.95737e-08
3.26215e-08
3.57289e-08
3.88901e-08
4.21e-08
4.53536e-08
4.86459e-08
5.19724e-08
5.53287e-08
5.87104e-08
6.21134e-08
6.55333e-08
6.89663e-08
7.24083e-08
7.58553e-08
7.93035e-08
8.2749e-08
8.6188e-08
8.96167e-08
9.30314e-08
9.64283e-08
9.98037e-08
1.03154e-07
1.06476e-07
1.09765e-07
1.13018e-07
1.16232e-07
1.19403e-07
1.22528e-07
1.25602e-07
1.28623e-07
1.31588e-07
1.34492e-07
1.37334e-07
1.40108e-07
1.42812e-07
1.45444e-07
1.47999e-07
1.50475e-07
1.52868e-07
1.55176e-07
1.57396e-07
1.59524e-07
1.61557e-07
1.63494e-07
1.65331e-07
1.67065e-07
1.68694e-07
1.70215e-07
1.71626e-07
1.72923e-07
1.74106e-07
1.7517e-07
1.76115e-07
1.76938e-07
1.77637e-07
1.78209e-07
1.78654e-07
1.78968e-07
1.79152e-07
1.79202e-07
1.79118e-07
1.78898e-07
1.78541e-07
1.78046e-07
1.77412e-07
1.76639e-07
1.75726e-07
1.74672e-07
1.73478e-07
1.72143e-07
1.70668e-07
1.69053e-07
1.67299e-07
1.65406e-07
1.63376e-07
1.61211e-07
1.58911e-07
1.56478e-07
1.53915e-07
1.51224e-07
1.48407e-07
1.45468e-07
1.42409e-07
1.39235e-07
1.35948e-07
1.32552e-07
1.29053e-07
1.25454e-07
1.2176e-07
1.17976e-07
1.14109e-07
1.10162e-07
1.06142e-07
1.02056e-07
9.791e-08
9.37102e-08
8.9464e-08
8.51785e-08
8.08615e-08
7.65207e-08
7.21642e-08
6.78006e-08
6.34387e-08
5.90876e-08
5.47568e-08
5.04563e-08
4.61966e-08
4.19888e-08
3.78444e-08
3.37761e-08
2.97974e-08
2.59231e-08
2.21696e-08
1.85558e-08
1.51035e-08
1.18392e-08
8.79581e-09
6.01754e-09
3.5676e-09
1.54897e-09
1.72282e-10
1.59241e-10
1.43221e-09
3.30101e-09
5.57322e-09
8.15591e-09
1.09927e-08
1.4045e-08
1.72842e-08
2.06881e-08
2.42388e-08
2.79213e-08
3.17229e-08
3.56322e-08
3.96395e-08
4.37357e-08
4.79125e-08
5.21622e-08
5.64779e-08
6.08525e-08
6.52797e-08
6.97532e-08
7.42671e-08
7.88154e-08
8.33925e-08
8.79928e-08
9.26108e-08
9.72413e-08
1.01879e-07
1.06518e-07
1.11154e-07
1.15782e-07
1.20396e-07
1.24991e-07
1.29563e-07
1.34106e-07
1.38616e-07
1.43087e-07
1.47515e-07
1.51896e-07
1.56223e-07
1.60493e-07
1.64701e-07
1.68842e-07
1.72912e-07
1.76906e-07
1.80819e-07
1.84647e-07
1.88386e-07
1.92032e-07
1.95579e-07
1.99024e-07
2.02363e-07
2.05591e-07
2.08705e-07
2.117e-07
2.14572e-07
2.17317e-07
2.19933e-07
2.22414e-07
2.24757e-07
2.26959e-07
2.29016e-07
2.30925e-07
2.32682e-07
2.34284e-07
2.35727e-07
2.3701e-07
2.38128e-07
2.3908e-07
2.39861e-07
2.40471e-07
2.40905e-07
2.41163e-07
2.41242e-07
2.41139e-07
2.40854e-07
2.40384e-07
2.39728e-07
2.38885e-07
2.37854e-07
2.36634e-07
2.35225e-07
2.33625e-07
2.31837e-07
2.29858e-07
2.27691e-07
2.25336e-07
2.22794e-07
2.20067e-07
2.17155e-07
2.14063e-07
2.10791e-07
2.07343e-07
2.03721e-07
1.9993e-07
1.95973e-07
1.91855e-07
1.87579e-07
1.83152e-07
1.78578e-07
1.73863e-07
1.69013e-07
1.64035e-07
1.58935e-07
1.53721e-07
1.484e-07
1.42981e-07
1.37471e-07
1.3188e-07
1.26217e-07
1.2049e-07
1.1471e-07
1.08888e-07
1.03033e-07
9.71573e-08
9.12718e-08
8.53885e-08
7.952e-08
7.36792e-08
6.78797e-08
6.21357e-08
5.64622e-08
5.08754e-08
4.53922e-08
4.00311e-08
3.48125e-08
2.97589e-08
2.48958e-08
2.02532e-08
1.58666e-08
1.17809e-08
8.05479e-09
4.77267e-09
2.07119e-09
2.30299e-10
2.01318e-10
1.81094e-09
4.17509e-09
7.05147e-09
1.03232e-08
1.39195e-08
1.77916e-08
2.19034e-08
2.62266e-08
3.07384e-08
3.54196e-08
4.02537e-08
4.52264e-08
5.03249e-08
5.55375e-08
6.08538e-08
6.62638e-08
7.17583e-08
7.73286e-08
8.29665e-08
8.86639e-08
9.44132e-08
1.00207e-07
1.06038e-07
1.11899e-07
1.17783e-07
1.23683e-07
1.29593e-07
1.35505e-07
1.41414e-07
1.47312e-07
1.53194e-07
1.59052e-07
1.64881e-07
1.70674e-07
1.76425e-07
1.82128e-07
1.87776e-07
1.93363e-07
1.98884e-07
2.04332e-07
2.09702e-07
2.14987e-07
2.20181e-07
2.2528e-07
2.30276e-07
2.35165e-07
2.39941e-07
2.44597e-07
2.4913e-07
2.53532e-07
2.578e-07
2.61927e-07
2.65909e-07
2.6974e-07
2.73415e-07
2.76929e-07
2.80278e-07
2.83456e-07
2.86458e-07
2.89281e-07
2.9192e-07
2.9437e-07
2.96626e-07
2.98686e-07
3.00544e-07
3.02196e-07
3.0364e-07
3.04871e-07
3.05885e-07
3.0668e-07
3.07252e-07
3.07598e-07
3.07715e-07
3.07602e-07
3.07256e-07
3.06673e-07
3.05853e-07
3.04793e-07
3.03494e-07
3.01952e-07
3.00169e-07
2.98143e-07
2.95874e-07
2.93363e-07
2.9061e-07
2.87616e-07
2.84383e-07
2.80913e-07
2.77207e-07
2.73268e-07
2.691e-07
2.64706e-07
2.6009e-07
2.55256e-07
2.50209e-07
2.44955e-07
2.39499e-07
2.33849e-07
2.2801e-07
2.2199e-07
2.15797e-07
2.09439e-07
2.02926e-07
1.96265e-07
1.89468e-07
1.82543e-07
1.75503e-07
1.68358e-07
1.6112e-07
1.53801e-07
1.46413e-07
1.38971e-07
1.31487e-07
1.23977e-07
1.16454e-07
1.08934e-07
1.01433e-07
9.39683e-08
8.65569e-08
7.92173e-08
7.1969e-08
6.48325e-08
5.783e-08
5.09855e-08
4.4325e-08
3.78776e-08
3.16764e-08
2.57593e-08
2.01722e-08
1.49716e-08
1.02324e-08
6.06082e-09
2.62947e-09
2.92329e-10
2.45227e-10
2.20614e-09
5.08711e-09
8.5938e-09
1.25845e-08
1.69733e-08
2.17011e-08
2.6724e-08
3.20076e-08
3.75239e-08
4.32493e-08
4.91637e-08
5.52493e-08
6.14903e-08
6.78726e-08
7.43829e-08
8.10092e-08
8.774e-08
9.45647e-08
1.01473e-07
1.08455e-07
1.15502e-07
1.22603e-07
1.29751e-07
1.36937e-07
1.44152e-07
1.51387e-07
1.58634e-07
1.65886e-07
1.73134e-07
1.8037e-07
1.87586e-07
1.94774e-07
2.01927e-07
2.09037e-07
2.16096e-07
2.23097e-07
2.30031e-07
2.36892e-07
2.43672e-07
2.50364e-07
2.56961e-07
2.63454e-07
2.69837e-07
2.76104e-07
2.82246e-07
2.88257e-07
2.9413e-07
2.99858e-07
3.05434e-07
3.10852e-07
3.16106e-07
3.21187e-07
3.26091e-07
3.30811e-07
3.35341e-07
3.39674e-07
3.43804e-07
3.47726e-07
3.51433e-07
3.54921e-07
3.58183e-07
3.61213e-07
3.64007e-07
3.6656e-07
3.68865e-07
3.70919e-07
3.72717e-07
3.74253e-07
3.75525e-07
3.76526e-07
3.77254e-07
3.77705e-07
3.77875e-07
3.77761e-07
3.77361e-07
3.7667e-07
3.75687e-07
3.7441e-07
3.72837e-07
3.70967e-07
3.68798e-07
3.6633e-07
3.63564e-07
3.60498e-07
3.57135e-07
3.53474e-07
3.49519e-07
3.4527e-07
3.4073e-07
3.35904e-07
3.30793e-07
3.25404e-07
3.1974e-07
3.13807e-07
3.07611e-07
3.01159e-07
2.94458e-07
2.87515e-07
2.8034e-07
2.7294e-07
2.65327e-07
2.57509e-07
2.49499e-07
2.41307e-07
2.32945e-07
2.24426e-07
2.15764e-07
2.06972e-07
1.98065e-07
1.89057e-07
1.79966e-07
1.70806e-07
1.61595e-07
1.52351e-07
1.43092e-07
1.33837e-07
1.24607e-07
1.15421e-07
1.06301e-07
9.72712e-08
8.8355e-08
7.9578e-08
7.09677e-08
6.25538e-08
5.43687e-08
4.64483e-08
3.88332e-08
3.15704e-08
2.47157e-08
1.83387e-08
1.25304e-08
7.42024e-09
3.21868e-09
3.578e-10
2.90532e-10
2.61387e-09
6.02802e-09
1.01849e-08
1.49172e-08
2.01236e-08
2.57343e-08
3.16975e-08
3.79724e-08
4.45259e-08
5.133e-08
5.83606e-08
6.55967e-08
7.30194e-08
8.06117e-08
8.83578e-08
9.62433e-08
1.04255e-07
1.12379e-07
1.20604e-07
1.28918e-07
1.37309e-07
1.45768e-07
1.54282e-07
1.62843e-07
1.71439e-07
1.80061e-07
1.88698e-07
1.97341e-07
2.05981e-07
2.14608e-07
2.23212e-07
2.31784e-07
2.40315e-07
2.48796e-07
2.57218e-07
2.6557e-07
2.73846e-07
2.82035e-07
2.90129e-07
2.98119e-07
3.05996e-07
3.13751e-07
3.21377e-07
3.28865e-07
3.36205e-07
3.43391e-07
3.50413e-07
3.57264e-07
3.63935e-07
3.70418e-07
3.76707e-07
3.82792e-07
3.88666e-07
3.94322e-07
3.99752e-07
4.04948e-07
4.09904e-07
4.14612e-07
4.19066e-07
4.23258e-07
4.27182e-07
4.3083e-07
4.34198e-07
4.37277e-07
4.40063e-07
4.42549e-07
4.4473e-07
4.46599e-07
4.48152e-07
4.49383e-07
4.50288e-07
4.50862e-07
4.51101e-07
4.51e-07
4.50558e-07
4.49768e-07
4.48628e-07
4.47137e-07
4.45291e-07
4.4309e-07
4.40531e-07
4.37614e-07
4.34339e-07
4.30705e-07
4.26714e-07
4.22366e-07
4.17665e-07
4.12611e-07
4.07208e-07
4.01461e-07
3.95373e-07
3.88949e-07
3.82195e-07
3.75118e-07
3.67724e-07
3.60023e-07
3.52021e-07
3.43729e-07
3.35157e-07
3.26315e-07
3.17216e-07
3.07871e-07
2.98293e-07
2.88497e-07
2.78496e-07
2.68307e-07
2.57944e-07
2.47426e-07
2.36768e-07
2.2599e-07
2.15111e-07
2.0415e-07
1.93128e-07
1.82065e-07
1.70985e-07
1.59911e-07
1.48866e-07
1.37875e-07
1.26965e-07
1.16163e-07
1.05499e-07
9.50035e-08
8.47094e-08
7.46524e-08
6.48715e-08
5.54098e-08
4.63158e-08
3.76456e-08
2.94658e-08
2.18588e-08
1.49328e-08
8.84153e-09
3.83473e-09
4.26257e-10
3.36848e-10
3.0307e-09
6.98988e-09
1.18114e-08
1.73017e-08
2.33438e-08
2.9857e-08
3.67815e-08
4.40701e-08
5.16844e-08
5.9592e-08
6.7765e-08
7.61788e-08
8.48114e-08
9.3643e-08
1.02655e-07
1.11831e-07
1.21155e-07
1.30612e-07
1.40188e-07
1.49869e-07
1.59642e-07
1.69494e-07
1.79412e-07
1.89385e-07
1.99402e-07
2.09449e-07
2.19516e-07
2.29591e-07
2.39664e-07
2.49723e-07
2.59757e-07
2.69755e-07
2.79707e-07
2.89602e-07
2.99429e-07
3.09178e-07
3.18838e-07
3.28399e-07
3.37851e-07
3.47183e-07
3.56385e-07
3.65447e-07
3.7436e-07
3.83113e-07
3.91697e-07
4.00101e-07
4.08317e-07
4.16334e-07
4.24144e-07
4.31737e-07
4.39103e-07
4.46234e-07
4.53121e-07
4.59754e-07
4.66126e-07
4.72227e-07
4.78048e-07
4.83582e-07
4.8882e-07
4.93754e-07
4.98377e-07
5.02679e-07
5.06654e-07
5.10294e-07
5.13592e-07
5.16541e-07
5.19134e-07
5.21364e-07
5.23225e-07
5.24711e-07
5.25815e-07
5.26533e-07
5.2686e-07
5.2679e-07
5.26321e-07
5.25444e-07
5.24159e-07
5.22461e-07
5.20349e-07
5.1782e-07
5.14872e-07
5.11504e-07
5.07715e-07
5.03506e-07
4.98877e-07
4.9383e-07
4.88367e-07
4.8249e-07
4.76203e-07
4.6951e-07
4.62417e-07
4.54928e-07
4.47051e-07
4.38794e-07
4.30164e-07
4.2117e-07
4.11824e-07
4.02136e-07
3.92117e-07
3.8178e-07
3.7114e-07
3.6021e-07
3.49006e-07
3.37544e-07
3.25841e-07
3.13915e-07
3.01785e-07
2.89472e-07
2.76995e-07
2.64375e-07
2.51637e-07
2.38802e-07
2.25895e-07
2.12941e-07
1.99967e-07
1.86999e-07
1.74066e-07
1.61199e-07
1.48427e-07
1.35783e-07
1.23302e-07
1.1102e-07
9.89764e-08
8.72125e-08
7.57742e-08
6.4712e-08
5.40825e-08
4.39513e-08
3.4396e-08
2.55125e-08
1.74265e-08
1.03168e-08
4.47423e-09
4.97321e-10
3.83836e-10
3.45356e-09
7.96564e-09
1.34613e-08
1.97205e-08
2.66102e-08
3.40389e-08
4.19385e-08
5.02555e-08
5.89462e-08
6.79737e-08
7.73062e-08
8.69156e-08
9.6777e-08
1.06868e-07
1.17167e-07
1.27654e-07
1.38313e-07
1.49126e-07
1.60076e-07
1.71148e-07
1.82326e-07
1.93597e-07
2.04946e-07
2.16359e-07
2.27823e-07
2.39324e-07
2.5085e-07
2.62387e-07
2.73922e-07
2.85444e-07
2.96939e-07
3.08395e-07
3.198e-07
3.31142e-07
3.42408e-07
3.53586e-07
3.64665e-07
3.75633e-07
3.86477e-07
3.97187e-07
4.07751e-07
4.18156e-07
4.28392e-07
4.38448e-07
4.48311e-07
4.57972e-07
4.67418e-07
4.7664e-07
4.85626e-07
4.94365e-07
5.02848e-07
5.11062e-07
5.18999e-07
5.26648e-07
5.33998e-07
5.4104e-07
5.47764e-07
5.5416e-07
5.60219e-07
5.65931e-07
5.71287e-07
5.76277e-07
5.80894e-07
5.85127e-07
5.88969e-07
5.92412e-07
5.95447e-07
5.98067e-07
6.00264e-07
6.0203e-07
6.0336e-07
6.04246e-07
6.04682e-07
6.04663e-07
6.04186e-07
6.0324e-07
6.01823e-07
5.99933e-07
5.97565e-07
5.94716e-07
5.91385e-07
5.8757e-07
5.8327e-07
5.78485e-07
5.73215e-07
5.67462e-07
5.61229e-07
5.54517e-07
5.47331e-07
5.39677e-07
5.31558e-07
5.22983e-07
5.13958e-07
5.04492e-07
4.94595e-07
4.84277e-07
4.7355e-07
4.62427e-07
4.50921e-07
4.39046e-07
4.26819e-07
4.14257e-07
4.01376e-07
3.88196e-07
3.74737e-07
3.6102e-07
3.47066e-07
3.32898e-07
3.18541e-07
3.0402e-07
2.8936e-07
2.74589e-07
2.59734e-07
2.44825e-07
2.29893e-07
2.14969e-07
2.00087e-07
1.85279e-07
1.70583e-07
1.56037e-07
1.41679e-07
1.27552e-07
1.13702e-07
1.00175e-07
8.7026e-08
7.43117e-08
6.20975e-08
5.04586e-08
3.94838e-08
2.9283e-08
1.99999e-08
1.18394e-08
5.13424e-09
5.70665e-10
4.31187e-10
3.87968e-09
8.94888e-09
1.51238e-08
2.21578e-08
2.99014e-08
3.82525e-08
4.71346e-08
5.64878e-08
6.62632e-08
7.64193e-08
8.69206e-08
9.77355e-08
1.08836e-07
1.20196e-07
1.31793e-07
1.43605e-07
1.55611e-07
1.67793e-07
1.80131e-07
1.92608e-07
2.05208e-07
2.17913e-07
2.30708e-07
2.43578e-07
2.56508e-07
2.69481e-07
2.82484e-07
2.95502e-07
3.08521e-07
3.21526e-07
3.34504e-07
3.4744e-07
3.60321e-07
3.73133e-07
3.85862e-07
3.98495e-07
4.11018e-07
4.23418e-07
4.35683e-07
4.47797e-07
4.5975e-07
4.71526e-07
4.83115e-07
4.94502e-07
5.05676e-07
5.16624e-07
5.27332e-07
5.3779e-07
5.47984e-07
5.57902e-07
5.67533e-07
5.76865e-07
5.85885e-07
5.94583e-07
6.02946e-07
6.10964e-07
6.18624e-07
6.25916e-07
6.32829e-07
6.39353e-07
6.45476e-07
6.51188e-07
6.56479e-07
6.61338e-07
6.65757e-07
6.69725e-07
6.73234e-07
6.76273e-07
6.78835e-07
6.80911e-07
6.82493e-07
6.83573e-07
6.84144e-07
6.84199e-07
6.83735e-07
6.82741e-07
6.81212e-07
6.79146e-07
6.76537e-07
6.73383e-07
6.69681e-07
6.65428e-07
6.60623e-07
6.55267e-07
6.49359e-07
6.42901e-07
6.35895e-07
6.28344e-07
6.20253e-07
6.11626e-07
6.0247e-07
5.92793e-07
5.82602e-07
5.71908e-07
5.60722e-07
5.49054e-07
5.36919e-07
5.2433e-07
5.11304e-07
4.97857e-07
4.84006e-07
4.69771e-07
4.55172e-07
4.40232e-07
4.24971e-07
4.09415e-07
3.93589e-07
3.77518e-07
3.61231e-07
3.44755e-07
3.28121e-07
3.1136e-07
2.94503e-07
2.77585e-07
2.60641e-07
2.43706e-07
2.26818e-07
2.10017e-07
1.93344e-07
1.76842e-07
1.60555e-07
1.44533e-07
1.28826e-07
1.13489e-07
9.85823e-08
8.4171e-08
7.03293e-08
5.71419e-08
4.47093e-08
3.31556e-08
2.26432e-08
1.34033e-08
5.81216e-09
6.46001e-10
4.78621e-10
4.30654e-09
9.9338e-09
1.67892e-08
2.4599e-08
3.3198e-08
4.24728e-08
5.23389e-08
6.273e-08
7.35918e-08
8.48785e-08
9.65507e-08
1.08574e-07
1.20916e-07
1.33549e-07
1.46447e-07
1.59587e-07
1.72944e-07
1.86499e-07
2.0023e-07
2.14118e-07
2.28145e-07
2.42291e-07
2.56541e-07
2.70875e-07
2.85278e-07
2.99733e-07
3.14223e-07
3.28732e-07
3.43245e-07
3.57746e-07
3.72219e-07
3.86648e-07
4.01019e-07
4.15316e-07
4.29524e-07
4.43628e-07
4.57613e-07
4.71464e-07
4.85167e-07
4.98706e-07
5.12068e-07
5.25238e-07
5.38201e-07
5.50943e-07
5.63451e-07
5.7571e-07
5.87706e-07
5.99426e-07
6.10855e-07
6.2198e-07
6.32789e-07
6.43266e-07
6.534e-07
6.63176e-07
6.72583e-07
6.81607e-07
6.90235e-07
6.98455e-07
7.06255e-07
7.13622e-07
7.20545e-07
7.27011e-07
7.33009e-07
7.38528e-07
7.43555e-07
7.48081e-07
7.52095e-07
7.55585e-07
7.58543e-07
7.60958e-07
7.62822e-07
7.64124e-07
7.64858e-07
7.65014e-07
7.64589e-07
7.63571e-07
7.61953e-07
7.59732e-07
7.56903e-07
7.53461e-07
7.49403e-07
7.44727e-07
7.39431e-07
7.33514e-07
7.26976e-07
7.19818e-07
7.12044e-07
7.03655e-07
6.94657e-07
6.85055e-07
6.74857e-07
6.64069e-07
6.52703e-07
6.40767e-07
6.28275e-07
6.1524e-07
6.01676e-07
5.876e-07
5.73028e-07
5.5798e-07
5.42476e-07
5.26538e-07
5.10188e-07
4.93451e-07
4.76352e-07
4.58918e-07
4.41179e-07
4.23163e-07
4.04902e-07
3.86429e-07
3.67776e-07
3.48979e-07
3.30075e-07
3.11101e-07
2.92097e-07
2.73105e-07
2.54166e-07
2.35325e-07
2.16628e-07
1.98124e-07
1.79864e-07
1.61903e-07
1.44297e-07
1.27108e-07
1.10403e-07
9.42557e-08
7.87492e-08
6.3978e-08
5.00543e-08
3.71168e-08
2.5347e-08
1.50031e-08
6.50565e-09
7.23067e-10
5.25882e-10
4.73184e-09
1.09151e-08
1.84483e-08
2.70311e-08
3.64822e-08
4.66772e-08
5.75235e-08
6.89484e-08
8.08924e-08
9.33055e-08
1.06144e-07
1.19371e-07
1.3295e-07
1.46852e-07
1.61048e-07
1.75511e-07
1.90216e-07
2.05141e-07
2.20262e-07
2.35559e-07
2.5101e-07
2.66596e-07
2.82298e-07
2.98096e-07
3.13973e-07
3.29909e-07
3.45888e-07
3.6189e-07
3.779e-07
3.939e-07
4.09872e-07
4.258e-07
4.41667e-07
4.57455e-07
4.7315e-07
4.88733e-07
5.0419e-07
5.19502e-07
5.34655e-07
5.49632e-07
5.64417e-07
5.78994e-07
5.93348e-07
6.07463e-07
6.21322e-07
6.34912e-07
6.48216e-07
6.61218e-07
6.73905e-07
6.8626e-07
6.98269e-07
7.09918e-07
7.2119e-07
7.32073e-07
7.42551e-07
7.52609e-07
7.62235e-07
7.71413e-07
7.8013e-07
7.88373e-07
7.96127e-07
8.03379e-07
8.10116e-07
8.16326e-07
8.21995e-07
8.27111e-07
8.31662e-07
8.35636e-07
8.39022e-07
8.41809e-07
8.43985e-07
8.45541e-07
8.46467e-07
8.46754e-07
8.46396e-07
8.45382e-07
8.43701e-07
8.41351e-07
8.38324e-07
8.34617e-07
8.30225e-07
8.25145e-07
8.19374e-07
8.12912e-07
8.05757e-07
7.97912e-07
7.89378e-07
7.80159e-07
7.70259e-07
7.59685e-07
7.48444e-07
7.36545e-07
7.23998e-07
7.10815e-07
6.97009e-07
6.82595e-07
6.67588e-07
6.52008e-07
6.35874e-07
6.19205e-07
6.02026e-07
5.84359e-07
5.66231e-07
5.4767e-07
5.28703e-07
5.0936e-07
4.89675e-07
4.6968e-07
4.4941e-07
4.28902e-07
4.08192e-07
3.87322e-07
3.66331e-07
3.45263e-07
3.2416e-07
3.0307e-07
2.8204e-07
2.61119e-07
2.4036e-07
2.19816e-07
1.99545e-07
1.79607e-07
1.60065e-07
1.40988e-07
1.2245e-07
1.04534e-07
8.7331e-08
7.09456e-08
5.55022e-08
4.11544e-08
2.81029e-08
1.66337e-08
7.21252e-09
8.01621e-10
5.72741e-10
5.15352e-09
1.1888e-08
2.00933e-08
2.94423e-08
3.9738e-08
5.08451e-08
6.26629e-08
7.51125e-08
8.81293e-08
1.01659e-07
1.15654e-07
1.30073e-07
1.4488e-07
1.6004e-07
1.75522e-07
1.91298e-07
2.07341e-07
2.23625e-07
2.40126e-07
2.56821e-07
2.73687e-07
2.90704e-07
3.07849e-07
3.25103e-07
3.42445e-07
3.59856e-07
3.77316e-07
3.94807e-07
4.12308e-07
4.29802e-07
4.4727e-07
4.64694e-07
4.82055e-07
4.99335e-07
5.16516e-07
5.33581e-07
5.50511e-07
5.67288e-07
5.83896e-07
6.00317e-07
6.16532e-07
6.32526e-07
6.4828e-07
6.63777e-07
6.79001e-07
6.93935e-07
7.08561e-07
7.22863e-07
7.36825e-07
7.50429e-07
7.63659e-07
7.765e-07
7.88934e-07
8.00946e-07
8.1252e-07
8.23639e-07
8.34289e-07
8.44453e-07
8.54116e-07
8.63263e-07
8.71879e-07
8.79948e-07
8.87457e-07
8.9439e-07
9.00733e-07
9.06473e-07
9.11595e-07
9.16086e-07
9.19934e-07
9.23125e-07
9.25648e-07
9.2749e-07
9.28641e-07
9.29091e-07
9.2883e-07
9.27851e-07
9.26137e-07
9.23686e-07
9.2049e-07
9.16544e-07
9.11842e-07
9.06381e-07
9.00158e-07
8.9317e-07
8.85418e-07
8.76901e-07
8.67623e-07
8.57586e-07
8.46795e-07
8.35257e-07
8.2298e-07
8.09973e-07
7.96248e-07
7.81816e-07
7.66693e-07
7.50895e-07
7.3444e-07
7.17346e-07
6.99637e-07
6.81334e-07
6.62463e-07
6.43051e-07
6.23126e-07
6.02719e-07
5.8186e-07
5.60585e-07
5.38928e-07
5.16926e-07
4.94618e-07
4.72046e-07
4.4925e-07
4.26274e-07
4.03165e-07
3.79968e-07
3.56735e-07
3.33514e-07
3.1036e-07
2.87326e-07
2.64472e-07
2.41855e-07
2.19541e-07
1.97593e-07
1.76085e-07
1.5509e-07
1.34691e-07
1.14977e-07
9.60502e-08
7.80248e-08
6.10375e-08
4.52568e-08
3.09031e-08
1.82905e-08
7.93076e-09
8.8144e-10
6.1899e-10
5.5697e-09
1.28483e-08
2.17167e-08
3.18219e-08
4.29511e-08
5.49581e-08
6.77344e-08
8.1195e-08
9.52701e-08
1.09901e-07
1.25037e-07
1.40634e-07
1.56651e-07
1.73052e-07
1.89804e-07
2.06876e-07
2.24239e-07
2.41866e-07
2.5973e-07
2.77807e-07
2.96072e-07
3.14502e-07
3.33076e-07
3.5177e-07
3.70563e-07
3.89434e-07
4.08362e-07
4.27327e-07
4.46308e-07
4.65285e-07
4.84238e-07
5.03148e-07
5.21994e-07
5.40758e-07
5.5942e-07
5.7796e-07
5.9636e-07
6.14599e-07
6.32661e-07
6.50524e-07
6.68171e-07
6.85584e-07
7.02742e-07
7.19628e-07
7.36223e-07
7.5251e-07
7.68468e-07
7.84081e-07
7.99331e-07
8.14198e-07
8.28666e-07
8.42716e-07
8.56331e-07
8.69493e-07
8.82184e-07
8.94388e-07
9.06086e-07
9.17262e-07
9.27899e-07
9.37978e-07
9.47485e-07
9.56402e-07
9.64713e-07
9.72401e-07
9.79452e-07
9.85848e-07
9.91575e-07
9.96618e-07
1.00096e-06
1.00459e-06
1.0075e-06
1.00966e-06
1.01107e-06
1.01172e-06
1.01159e-06
1.01068e-06
1.00896e-06
1.00644e-06
1.00311e-06
9.98952e-07
9.9397e-07
9.88155e-07
9.81505e-07
9.74016e-07
9.65689e-07
9.56522e-07
9.46519e-07
9.35682e-07
9.24016e-07
9.11528e-07
8.98226e-07
8.84121e-07
8.69224e-07
8.5355e-07
8.37113e-07
8.19932e-07
8.02026e-07
7.83416e-07
7.64126e-07
7.44182e-07
7.23611e-07
7.02442e-07
6.80706e-07
6.58438e-07
6.35671e-07
6.12444e-07
5.88796e-07
5.64767e-07
5.40399e-07
5.15739e-07
4.90832e-07
4.65726e-07
4.40473e-07
4.15123e-07
3.89731e-07
3.64353e-07
3.39047e-07
3.13875e-07
2.88897e-07
2.64182e-07
2.39797e-07
2.15815e-07
1.92314e-07
1.69376e-07
1.47091e-07
1.25557e-07
1.04884e-07
8.51967e-08
6.66453e-08
4.9413e-08
3.374e-08
1.99691e-08
8.65845e-09
9.62308e-10
6.64446e-10
5.97874e-09
1.3792e-08
2.33122e-08
3.41605e-08
4.61086e-08
5.89998e-08
7.2718e-08
8.71717e-08
1.02287e-07
1.18e-07
1.34256e-07
1.51009e-07
1.68216e-07
1.85837e-07
2.03837e-07
2.22183e-07
2.40844e-07
2.5979e-07
2.78995e-07
2.9843e-07
3.18072e-07
3.37894e-07
3.57873e-07
3.77985e-07
3.98208e-07
4.18518e-07
4.38894e-07
4.59314e-07
4.79755e-07
5.00197e-07
5.20619e-07
5.40998e-07
5.61315e-07
5.81548e-07
6.01677e-07
6.21681e-07
6.4154e-07
6.61233e-07
6.8074e-07
7.0004e-07
7.19114e-07
7.37942e-07
7.56503e-07
7.74778e-07
7.92746e-07
8.10389e-07
8.27685e-07
8.44616e-07
8.61162e-07
8.77303e-07
8.9302e-07
9.08294e-07
9.23106e-07
9.37435e-07
9.51263e-07
9.64572e-07
9.77341e-07
9.89552e-07
1.00119e-06
1.01223e-06
1.02265e-06
1.03245e-06
1.04159e-06
1.05006e-06
1.05785e-06
1.06494e-06
1.07131e-06
1.07693e-06
1.08181e-06
1.08592e-06
1.08924e-06
1.09176e-06
1.09346e-06
1.09434e-06
1.09438e-06
1.09357e-06
1.09189e-06
1.08934e-06
1.0859e-06
1.08157e-06
1.07634e-06
1.0702e-06
1.06315e-06
1.05519e-06
1.04632e-06
1.03653e-06
1.02582e-06
1.01421e-06
1.00169e-06
9.88266e-07
9.73957e-07
9.58768e-07
9.42712e-07
9.25805e-07
9.08064e-07
8.89506e-07
8.70154e-07
8.5003e-07
8.2916e-07
8.07573e-07
7.85298e-07
7.62366e-07
7.38813e-07
7.14675e-07
6.8999e-07
6.64799e-07
6.39146e-07
6.13074e-07
5.86632e-07
5.59867e-07
5.3283e-07
5.05576e-07
4.78158e-07
4.50635e-07
4.23064e-07
3.95508e-07
3.6803e-07
3.40696e-07
3.13575e-07
2.86738e-07
2.60262e-07
2.34225e-07
2.08711e-07
1.83811e-07
1.5962e-07
1.36246e-07
1.13809e-07
9.24433e-08
7.23115e-08
5.36125e-08
3.66066e-08
2.16652e-08
9.39374e-09
1.04402e-09
7.08952e-10
6.37922e-09
1.4716e-08
2.48742e-08
3.64499e-08
4.91996e-08
6.29562e-08
7.7596e-08
9.30217e-08
1.09154e-07
1.25926e-07
1.43279e-07
1.61164e-07
1.79534e-07
1.98348e-07
2.1757e-07
2.37162e-07
2.57093e-07
2.77332e-07
2.97849e-07
3.18616e-07
3.39605e-07
3.60791e-07
3.82148e-07
4.03652e-07
4.25277e-07
4.47e-07
4.68797e-07
4.90646e-07
5.12523e-07
5.34406e-07
5.56272e-07
5.78099e-07
5.99865e-07
6.21548e-07
6.43125e-07
6.64575e-07
6.85877e-07
7.07008e-07
7.27947e-07
7.48673e-07
7.69163e-07
7.89398e-07
8.09355e-07
8.29013e-07
8.48351e-07
8.67348e-07
8.85983e-07
9.04234e-07
9.22081e-07
9.39503e-07
9.56478e-07
9.72986e-07
9.89005e-07
1.00452e-06
1.0195e-06
1.03393e-06
1.04779e-06
1.06106e-06
1.07371e-06
1.08574e-06
1.09711e-06
1.1078e-06
1.11781e-06
1.1271e-06
1.13566e-06
1.14347e-06
1.15051e-06
1.15676e-06
1.1622e-06
1.16682e-06
1.1706e-06
1.17351e-06
1.17555e-06
1.1767e-06
1.17694e-06
1.17628e-06
1.17467e-06
1.17212e-06
1.16861e-06
1.16414e-06
1.15869e-06
1.15227e-06
1.14486e-06
1.13646e-06
1.12706e-06
1.11668e-06
1.1053e-06
1.09293e-06
1.07958e-06
1.06525e-06
1.04996e-06
1.0337e-06
1.01651e-06
9.98383e-07
9.7935e-07
9.59427e-07
9.38638e-07
9.17008e-07
8.94565e-07
8.71338e-07
8.47361e-07
8.22667e-07
7.97295e-07
7.71284e-07
7.44676e-07
7.17516e-07
6.8985e-07
6.61727e-07
6.33198e-07
6.04317e-07
5.7514e-07
5.45724e-07
5.16128e-07
4.86416e-07
4.56652e-07
4.26902e-07
3.97236e-07
3.67725e-07
3.38444e-07
3.09471e-07
2.80888e-07
2.52779e-07
2.25237e-07
1.98358e-07
1.72248e-07
1.4702e-07
1.22804e-07
9.9747e-08
7.80225e-08
5.78452e-08
3.94958e-08
2.33748e-08
1.01349e-08
1.12638e-09
7.52375e-10
6.76996e-09
1.56174e-08
2.63981e-08
3.86833e-08
5.22148e-08
6.68155e-08
8.2354e-08
9.87273e-08
1.15851e-07
1.33655e-07
1.52078e-07
1.71066e-07
1.9057e-07
2.10548e-07
2.3096e-07
2.51768e-07
2.72938e-07
2.94437e-07
3.16234e-07
3.38299e-07
3.60604e-07
3.83121e-07
4.05824e-07
4.28685e-07
4.51681e-07
4.74785e-07
4.97972e-07
5.2122e-07
5.44502e-07
5.67796e-07
5.91079e-07
6.14325e-07
6.37513e-07
6.60619e-07
6.83621e-07
7.06494e-07
7.29216e-07
7.51765e-07
7.74118e-07