/*--------------------------------*- C++ -*----------------------------------*\
  =========                 |
  \\      /  F ield         | OpenFOAM: The Open Source CFD Toolbox
   \\    /   O peration     | Website:  https://openfoam.org
    \\  /    A nd           | Version:  12
     \\/     M anipulation  |
\*---------------------------------------------------------------------------*/
FoamFile
{
    format      ascii;
    class       volScalarField;
    location    "7";
    object      nut;
}
// * * * * * * * * * * * * * * * * * * * * * * * * * * * * * * * * * * * * * //

dimensions      [0 2 -1 0 0 0 0];

internalField   nonuniform List<scalar> 
18225
(
8.14491e-17
2.46175e-15
5.22422e-15
8.53272e-15
1.22768e-14
1.63759e-14
2.07744e-14
2.54324e-14
3.03194e-14
3.54113e-14
4.06877e-14
4.61313e-14
5.17269e-14
5.74608e-14
6.33206e-14
6.92946e-14
7.53723e-14
8.15435e-14
8.77985e-14
9.41281e-14
1.00523e-13
1.06976e-13
1.13477e-13
1.20019e-13
1.26594e-13
1.33193e-13
1.39809e-13
1.46435e-13
1.53063e-13
1.59685e-13
1.66294e-13
1.72883e-13
1.79444e-13
1.8597e-13
1.92455e-13
1.98891e-13
2.05271e-13
2.11588e-13
2.17835e-13
2.24006e-13
2.30093e-13
2.3609e-13
2.41991e-13
2.47788e-13
2.53475e-13
2.59046e-13
2.64494e-13
2.69813e-13
2.74997e-13
2.8004e-13
2.84935e-13
2.89677e-13
2.94259e-13
2.98676e-13
3.02922e-13
3.06992e-13
3.1088e-13
3.1458e-13
3.18088e-13
3.21397e-13
3.24504e-13
3.27403e-13
3.30088e-13
3.32557e-13
3.34803e-13
3.36822e-13
3.38611e-13
3.40165e-13
3.4148e-13
3.42553e-13
3.4338e-13
3.43958e-13
3.44283e-13
3.44353e-13
3.44164e-13
3.43716e-13
3.43004e-13
3.42028e-13
3.40786e-13
3.39277e-13
3.375e-13
3.35454e-13
3.33139e-13
3.30556e-13
3.27704e-13
3.24585e-13
3.212e-13
3.1755e-13
3.13639e-13
3.09469e-13
3.05042e-13
3.00362e-13
2.95435e-13
2.90263e-13
2.84852e-13
2.79208e-13
2.73336e-13
2.67244e-13
2.60938e-13
2.54426e-13
2.47717e-13
2.40818e-13
2.33739e-13
2.2649e-13
2.19081e-13
2.11523e-13
2.03827e-13
1.96004e-13
1.88068e-13
1.80031e-13
1.71906e-13
1.63707e-13
1.55449e-13
1.47146e-13
1.38815e-13
1.30471e-13
1.22131e-13
1.13812e-13
1.05533e-13
9.73125e-14
8.91703e-14
8.11272e-14
7.32054e-14
6.54283e-14
5.78212e-14
5.04116e-14
4.32301e-14
3.63111e-14
2.96948e-14
2.34298e-14
1.75782e-14
1.22243e-14
7.48728e-15
3.52889e-15
1.1676e-16
5.51098e-16
8.03239e-14
4.30057e-13
1.00873e-12
1.7013e-12
2.4542e-12
3.2493e-12
4.07994e-12
4.9427e-12
5.83513e-12
6.75507e-12
7.70051e-12
8.66954e-12
9.66035e-12
1.06712e-11
1.17004e-11
1.27463e-11
1.38073e-11
1.48821e-11
1.59691e-11
1.70668e-11
1.81739e-11
1.9289e-11
2.04108e-11
2.15379e-11
2.2669e-11
2.38028e-11
2.49381e-11
2.60736e-11
2.7208e-11
2.834e-11
2.94685e-11
3.05922e-11
3.17099e-11
3.28203e-11
3.39223e-11
3.50147e-11
3.60963e-11
3.71659e-11
3.82224e-11
3.92646e-11
4.02913e-11
4.13014e-11
4.22938e-11
4.32674e-11
4.42211e-11
4.51537e-11
4.60643e-11
4.69517e-11
4.78149e-11
4.86529e-11
4.94646e-11
5.02491e-11
5.10052e-11
5.17322e-11
5.24289e-11
5.30946e-11
5.37281e-11
5.43287e-11
5.48954e-11
5.54274e-11
5.59238e-11
5.63839e-11
5.68067e-11
5.71915e-11
5.75376e-11
5.78442e-11
5.81106e-11
5.83361e-11
5.852e-11
5.86618e-11
5.8761e-11
5.8817e-11
5.88293e-11
5.87975e-11
5.87211e-11
5.85997e-11
5.84332e-11
5.82211e-11
5.79632e-11
5.76595e-11
5.73098e-11
5.69141e-11
5.64723e-11
5.59846e-11
5.54511e-11
5.48721e-11
5.42478e-11
5.35787e-11
5.28651e-11
5.21075e-11
5.13067e-11
5.04632e-11
4.95779e-11
4.86516e-11
4.76852e-11
4.66798e-11
4.56365e-11
4.45564e-11
4.3441e-11
4.22915e-11
4.11095e-11
3.98964e-11
3.86539e-11
3.73839e-11
3.6088e-11
3.47682e-11
3.34265e-11
3.2065e-11
3.06858e-11
2.92912e-11
2.78835e-11
2.64652e-11
2.50387e-11
2.36066e-11
2.21716e-11
2.07365e-11
1.93042e-11
1.78775e-11
1.64596e-11
1.50535e-11
1.36626e-11
1.22903e-11
1.09399e-11
9.61525e-12
8.31994e-12
7.05789e-12
5.83317e-12
4.65028e-12
3.51505e-12
2.43796e-12
1.44592e-12
6.16514e-13
1.15162e-13
7.90233e-16
1.22741e-15
2.0165e-13
1.3828e-12
4.15515e-12
8.44148e-12
1.38186e-11
1.98995e-11
2.6437e-11
3.32929e-11
4.03924e-11
4.76932e-11
5.51699e-11
6.28046e-11
7.05839e-11
7.84959e-11
8.65302e-11
9.46765e-11
1.02925e-10
1.11266e-10
1.1969e-10
1.28187e-10
1.36748e-10
1.45363e-10
1.54024e-10
1.6272e-10
1.71442e-10
1.8018e-10
1.88927e-10
1.97671e-10
2.06405e-10
2.15117e-10
2.23801e-10
2.32445e-10
2.41042e-10
2.49581e-10
2.58054e-10
2.66452e-10
2.74766e-10
2.82987e-10
2.91106e-10
2.99114e-10
3.07003e-10
3.14763e-10
3.22387e-10
3.29866e-10
3.37191e-10
3.44355e-10
3.51348e-10
3.58163e-10
3.64793e-10
3.71228e-10
3.77461e-10
3.83485e-10
3.89291e-10
3.94873e-10
4.00224e-10
4.05335e-10
4.102e-10
4.14812e-10
4.19165e-10
4.23251e-10
4.27064e-10
4.30597e-10
4.33846e-10
4.36803e-10
4.39463e-10
4.41821e-10
4.4387e-10
4.45606e-10
4.47023e-10
4.48118e-10
4.48886e-10
4.49322e-10
4.49423e-10
4.49186e-10
4.48607e-10
4.47683e-10
4.46411e-10
4.4479e-10
4.42818e-10
4.40493e-10
4.37815e-10
4.34783e-10
4.31397e-10
4.27658e-10
4.23567e-10
4.19125e-10
4.14335e-10
4.09198e-10
4.03719e-10
3.97902e-10
3.9175e-10
3.85269e-10
3.78464e-10
3.71342e-10
3.63911e-10
3.56177e-10
3.48149e-10
3.39835e-10
3.31247e-10
3.22393e-10
3.13285e-10
3.03935e-10
2.94354e-10
2.84557e-10
2.74555e-10
2.64364e-10
2.53998e-10
2.43473e-10
2.32804e-10
2.22009e-10
2.11104e-10
2.00106e-10
1.89035e-10
1.77909e-10
1.66746e-10
1.55567e-10
1.44392e-10
1.33241e-10
1.22135e-10
1.11096e-10
1.00146e-10
8.93076e-11
7.8607e-11
6.80716e-11
5.77354e-11
4.76442e-11
3.78673e-11
2.85212e-11
1.98131e-11
1.21055e-11
5.95932e-12
1.98361e-12
2.89366e-13
1.7618e-15
2.03427e-15
3.42673e-13
2.51183e-12
8.31574e-12
1.87434e-11
3.37071e-11
5.24551e-11
7.40776e-11
9.77921e-11
1.23021e-10
1.49371e-10
1.76578e-10
2.04469e-10
2.32926e-10
2.61866e-10
2.91227e-10
3.20959e-10
3.51022e-10
3.81377e-10
4.11991e-10
4.42832e-10
4.73866e-10
5.05065e-10
5.36395e-10
5.67826e-10
5.99327e-10
6.30866e-10
6.62413e-10
6.93936e-10
7.25402e-10
7.56781e-10
7.88041e-10
8.1915e-10
8.50077e-10
8.80789e-10
9.11255e-10
9.41443e-10
9.71322e-10
1.00086e-09
1.03003e-09
1.05879e-09
1.08712e-09
1.11499e-09
1.14236e-09
1.16921e-09
1.1955e-09
1.22121e-09
1.24631e-09
1.27076e-09
1.29455e-09
1.31763e-09
1.34e-09
1.3616e-09
1.38243e-09
1.40245e-09
1.42164e-09
1.43997e-09
1.45742e-09
1.47396e-09
1.48957e-09
1.50423e-09
1.5179e-09
1.53058e-09
1.54223e-09
1.55284e-09
1.56239e-09
1.57085e-09
1.5782e-09
1.58444e-09
1.58953e-09
1.59347e-09
1.59623e-09
1.59781e-09
1.59819e-09
1.59735e-09
1.59529e-09
1.59199e-09
1.58745e-09
1.58165e-09
1.57459e-09
1.56627e-09
1.55667e-09
1.5458e-09
1.53367e-09
1.52026e-09
1.50558e-09
1.48964e-09
1.47244e-09
1.454e-09
1.43432e-09
1.41342e-09
1.39131e-09
1.36801e-09
1.34353e-09
1.31791e-09
1.29116e-09
1.26331e-09
1.23439e-09
1.20443e-09
1.17346e-09
1.14151e-09
1.10864e-09
1.07487e-09
1.04025e-09
1.00482e-09
9.68623e-10
9.31717e-10
8.94149e-10
8.5597e-10
8.17236e-10
7.78003e-10
7.38328e-10
6.98273e-10
6.57898e-10
6.17268e-10
5.76448e-10
5.35508e-10
4.94518e-10
4.53553e-10
4.12695e-10
3.72034e-10
3.3167e-10
2.91727e-10
2.52359e-10
2.13771e-10
1.76252e-10
1.40217e-10
1.0627e-10
7.52736e-11
4.83784e-11
2.6906e-11
1.19406e-11
3.60845e-12
4.92559e-13
2.92506e-15
2.93669e-15
4.98951e-13
3.74722e-12
1.29137e-11
3.06238e-11
5.81628e-11
9.54181e-11
1.41321e-10
1.94394e-10
2.53158e-10
3.16335e-10
3.82912e-10
4.5212e-10
5.2339e-10
5.96306e-10
6.70556e-10
7.45908e-10
8.22179e-10
8.99224e-10
9.76921e-10
1.05517e-09
1.13387e-09
1.21293e-09
1.29228e-09
1.37183e-09
1.45151e-09
1.53124e-09
1.61094e-09
1.69054e-09
1.76996e-09
1.84912e-09
1.92795e-09
2.00636e-09
2.08429e-09
2.16165e-09
2.23837e-09
2.31437e-09
2.38957e-09
2.4639e-09
2.53727e-09
2.60962e-09
2.68086e-09
2.75093e-09
2.81974e-09
2.88722e-09
2.9533e-09
3.01791e-09
3.08096e-09
3.1424e-09
3.20215e-09
3.26014e-09
3.3163e-09
3.37057e-09
3.42287e-09
3.47314e-09
3.52133e-09
3.56735e-09
3.61116e-09
3.65269e-09
3.69188e-09
3.72867e-09
3.76301e-09
3.79483e-09
3.82409e-09
3.85073e-09
3.8747e-09
3.89595e-09
3.91443e-09
3.93009e-09
3.9429e-09
3.9528e-09
3.95977e-09
3.96375e-09
3.96472e-09
3.96265e-09
3.95749e-09
3.94923e-09
3.93783e-09
3.92328e-09
3.90557e-09
3.88466e-09
3.86056e-09
3.83326e-09
3.80276e-09
3.76904e-09
3.73213e-09
3.69203e-09
3.64876e-09
3.60233e-09
3.55277e-09
3.50011e-09
3.44438e-09
3.38563e-09
3.3239e-09
3.25923e-09
3.19169e-09
3.12134e-09
3.04825e-09
2.97248e-09
2.89413e-09
2.81326e-09
2.72998e-09
2.64437e-09
2.55654e-09
2.4666e-09
2.37466e-09
2.28082e-09
2.18523e-09
2.088e-09
1.98926e-09
1.88917e-09
1.78786e-09
1.68548e-09
1.58221e-09
1.4782e-09
1.37364e-09
1.26874e-09
1.16371e-09
1.0588e-09
9.54307e-10
8.50576e-10
7.48039e-10
6.47241e-10
5.48891e-10
4.53915e-10
3.63524e-10
2.79275e-10
2.03087e-10
1.3715e-10
8.36189e-11
4.40422e-11
1.8582e-11
5.39577e-12
7.1896e-13
4.23322e-15
3.91284e-15
6.67359e-13
5.06754e-12
1.78013e-11
4.33338e-11
8.48826e-11
1.43911e-10
2.20212e-10
3.12374e-10
4.18337e-10
5.35863e-10
6.62836e-10
7.97413e-10
9.38068e-10
1.08357e-09
1.23296e-09
1.38547e-09
1.5405e-09
1.69757e-09
1.85631e-09
2.01638e-09
2.17751e-09
2.33948e-09
2.50206e-09
2.66507e-09
2.82832e-09
2.99164e-09
3.15487e-09
3.31785e-09
3.48041e-09
3.6424e-09
3.80367e-09
3.96405e-09
4.12339e-09
4.28154e-09
4.43833e-09
4.59362e-09
4.74725e-09
4.89907e-09
5.04891e-09
5.19664e-09
5.34208e-09
5.4851e-09
5.62555e-09
5.76326e-09
5.8981e-09
6.02991e-09
6.15856e-09
6.28389e-09
6.40577e-09
6.52405e-09
6.6386e-09
6.74927e-09
6.85594e-09
6.95847e-09
7.05673e-09
7.1506e-09
7.23994e-09
7.32463e-09
7.40456e-09
7.47959e-09
7.54963e-09
7.61454e-09
7.67423e-09
7.72858e-09
7.77749e-09
7.82086e-09
7.85859e-09
7.89058e-09
7.91675e-09
7.937e-09
7.95125e-09
7.95943e-09
7.96146e-09
7.95729e-09
7.94682e-09
7.93001e-09
7.9068e-09
7.87715e-09
7.84102e-09
7.79837e-09
7.74919e-09
7.69344e-09
7.63113e-09
7.56224e-09
7.48679e-09
7.40479e-09
7.31626e-09
7.22124e-09
7.11977e-09
7.0119e-09
6.89771e-09
6.77726e-09
6.65063e-09
6.51793e-09
6.37927e-09
6.23475e-09
6.08452e-09
5.92871e-09
5.76747e-09
5.60098e-09
5.42941e-09
5.25294e-09
5.07178e-09
4.88614e-09
4.69625e-09
4.50234e-09
4.30468e-09
4.10352e-09
3.89916e-09
3.6919e-09
3.48207e-09
3.27002e-09
3.05614e-09
2.84085e-09
2.62463e-09
2.40803e-09
2.19168e-09
1.97631e-09
1.76282e-09
1.55228e-09
1.34603e-09
1.1457e-09
9.53286e-10
7.71215e-10
6.02352e-10
4.49913e-10
3.17242e-10
2.07371e-10
1.22357e-10
6.24988e-11
2.56928e-11
7.32017e-12
9.64754e-13
5.65878e-15
4.94676e-15
8.45403e-13
6.45684e-12
2.29161e-11
5.66056e-11
1.12908e-10
1.9539e-10
3.05522e-10
4.42883e-10
6.05637e-10
7.91102e-10
9.96246e-10
1.21805e-09
1.45373e-09
1.70083e-09
1.95726e-09
2.2213e-09
2.4915e-09
2.76669e-09
3.04589e-09
3.32832e-09
3.61329e-09
3.90023e-09
4.18865e-09
4.47811e-09
4.7682e-09
5.05855e-09
5.34884e-09
5.63874e-09
5.92793e-09
6.21612e-09
6.50302e-09
6.78834e-09
7.0718e-09
7.35312e-09
7.63202e-09
7.90822e-09
8.18144e-09
8.45142e-09
8.71788e-09
8.98056e-09
9.23917e-09
9.49346e-09
9.74316e-09
9.988e-09
1.02277e-08
1.04621e-08
1.06908e-08
1.09136e-08
1.11303e-08
1.13405e-08
1.15442e-08
1.1741e-08
1.19306e-08
1.21129e-08
1.22877e-08
1.24546e-08
1.26135e-08
1.27642e-08
1.29064e-08
1.30399e-08
1.31645e-08
1.328e-08
1.33863e-08
1.34831e-08
1.35702e-08
1.36475e-08
1.37148e-08
1.37719e-08
1.38186e-08
1.38548e-08
1.38804e-08
1.38952e-08
1.3899e-08
1.38918e-08
1.38733e-08
1.38436e-08
1.38025e-08
1.37499e-08
1.36857e-08
1.36099e-08
1.35224e-08
1.34232e-08
1.33123e-08
1.31896e-08
1.30551e-08
1.29089e-08
1.27509e-08
1.25813e-08
1.24001e-08
1.22075e-08
1.20034e-08
1.1788e-08
1.15614e-08
1.13239e-08
1.10756e-08
1.08167e-08
1.05474e-08
1.02679e-08
9.97862e-09
9.67973e-09
9.37158e-09
9.0545e-09
8.72885e-09
8.39502e-09
8.05344e-09
7.70456e-09
7.34886e-09
6.98688e-09
6.61919e-09
6.24641e-09
5.86925e-09
5.48847e-09
5.10494e-09
4.71963e-09
4.33367e-09
3.94837e-09
3.56523e-09
3.18607e-09
2.81299e-09
2.44848e-09
2.0955e-09
1.75752e-09
1.43849e-09
1.14281e-09
8.75152e-10
6.40106e-10
4.41674e-10
2.82551e-10
1.63354e-10
8.19513e-11
3.32049e-11
9.36437e-12
1.22707e-12
7.18295e-15
6.0257e-15
1.03101e-12
7.90106e-12
2.82117e-11
7.02997e-11
1.41802e-10
2.48633e-10
3.94422e-10
5.80434e-10
8.05854e-10
1.0683e-09
1.3644e-09
1.69027e-09
2.04195e-09
2.41564e-09
2.8079e-09
3.21564e-09
3.63621e-09
4.06734e-09
4.5071e-09
4.95384e-09
5.40618e-09
5.86291e-09
6.32302e-09
6.78561e-09
7.24988e-09
7.71513e-09
8.1807e-09
8.64599e-09
9.11045e-09
9.57352e-09
1.00347e-08
1.04935e-08
1.09494e-08
1.14019e-08
1.18506e-08
1.22951e-08
1.27348e-08
1.31693e-08
1.35983e-08
1.40211e-08
1.44375e-08
1.48469e-08
1.5249e-08
1.56433e-08
1.60294e-08
1.64069e-08
1.67753e-08
1.71343e-08
1.74835e-08
1.78224e-08
1.81507e-08
1.84679e-08
1.87737e-08
1.90677e-08
1.93496e-08
1.96189e-08
1.98753e-08
2.01185e-08
2.03481e-08
2.05637e-08
2.07651e-08
2.09519e-08
2.11237e-08
2.12804e-08
2.14214e-08
2.15467e-08
2.16558e-08
2.17484e-08
2.18245e-08
2.18835e-08
2.19254e-08
2.19499e-08
2.19567e-08
2.19457e-08
2.19166e-08
2.18692e-08
2.18034e-08
2.1719e-08
2.16159e-08
2.1494e-08
2.13531e-08
2.11933e-08
2.10143e-08
2.08162e-08
2.05991e-08
2.03628e-08
2.01074e-08
1.98331e-08
1.95398e-08
1.92277e-08
1.88971e-08
1.85479e-08
1.81805e-08
1.77951e-08
1.7392e-08
1.69716e-08
1.65341e-08
1.60799e-08
1.56095e-08
1.51234e-08
1.46222e-08
1.41062e-08
1.35763e-08
1.3033e-08
1.24772e-08
1.19096e-08
1.13312e-08
1.07428e-08
1.01457e-08
9.541e-09
8.93012e-09
8.31459e-09
7.69617e-09
7.07685e-09
6.4589e-09
5.84497e-09
5.23807e-09
4.64174e-09
4.06002e-09
3.49752e-09
2.95944e-09
2.45148e-09
1.97978e-09
1.55057e-09
1.16984e-09
8.42731e-10
5.72785e-10
3.61196e-10
2.06113e-10
1.02258e-10
4.10734e-11
1.15139e-11
1.50367e-12
8.79168e-15
7.13892e-15
1.22239e-12
9.3875e-12
3.36468e-11
8.43114e-11
1.71303e-10
3.02979e-10
4.8537e-10
7.21848e-10
1.01321e-09
1.35803e-09
1.75323e-09
2.19462e-09
2.67743e-09
3.19671e-09
3.74763e-09
4.32567e-09
4.92672e-09
5.54712e-09
6.18365e-09
6.8335e-09
7.49424e-09
8.16374e-09
8.84016e-09
9.52188e-09
1.02075e-08
1.08957e-08
1.15853e-08
1.22754e-08
1.29648e-08
1.36528e-08
1.43385e-08
1.50211e-08
1.56997e-08
1.63737e-08
1.70423e-08
1.77048e-08
1.83604e-08
1.90086e-08
1.96486e-08
2.02798e-08
2.09014e-08
2.15129e-08
2.21135e-08
2.27027e-08
2.32797e-08
2.3844e-08
2.4395e-08
2.4932e-08
2.54544e-08
2.59616e-08
2.6453e-08
2.69281e-08
2.73862e-08
2.78268e-08
2.82494e-08
2.86533e-08
2.9038e-08
2.9403e-08
2.97478e-08
3.00718e-08
3.03745e-08
3.06555e-08
3.09142e-08
3.11501e-08
3.13629e-08
3.1552e-08
3.1717e-08
3.18575e-08
3.1973e-08
3.20631e-08
3.21275e-08
3.21658e-08
3.21777e-08
3.21628e-08
3.21208e-08
3.20513e-08
3.19541e-08
3.18289e-08
3.16756e-08
3.1494e-08
3.12838e-08
3.10449e-08
3.07773e-08
3.04808e-08
3.01554e-08
2.98012e-08
2.9418e-08
2.90062e-08
2.85656e-08
2.80966e-08
2.75993e-08
2.7074e-08
2.6521e-08
2.59407e-08
2.53335e-08
2.46998e-08
2.40403e-08
2.33556e-08
2.26462e-08
2.19131e-08
2.1157e-08
2.03789e-08
1.95797e-08
1.87608e-08
1.79232e-08
1.70685e-08
1.61982e-08
1.5314e-08
1.44179e-08
1.35121e-08
1.2599e-08
1.16813e-08
1.07623e-08
9.84549e-09
8.93496e-09
8.03533e-09
7.15184e-09
6.29032e-09
5.45728e-09
4.65986e-09
3.90572e-09
3.20286e-09
2.5593e-09
1.9826e-09
1.47926e-09
1.05396e-09
7.08803e-10
4.42604e-10
2.50383e-10
1.23325e-10
4.926e-11
1.37564e-11
1.7927e-12
1.04738e-14
8.27702e-15
1.41796e-12
1.09046e-11
3.91827e-11
9.85479e-11
2.01207e-10
3.5799e-10
5.77422e-10
8.65205e-10
1.2241e-09
1.65413e-09
2.15306e-09
2.71691e-09
3.34058e-09
4.0183e-09
4.74412e-09
5.51213e-09
6.31676e-09
7.15284e-09
8.01566e-09
8.90102e-09
9.80516e-09
1.07248e-08
1.16569e-08
1.25991e-08
1.35488e-08
1.45042e-08
1.54632e-08
1.64243e-08
1.7386e-08
1.83466e-08
1.93051e-08
2.026e-08
2.12102e-08
2.21545e-08
2.30919e-08
2.40213e-08
2.49417e-08
2.58519e-08
2.67512e-08
2.76384e-08
2.85126e-08
2.93729e-08
3.02184e-08
3.1048e-08
3.1861e-08
3.26564e-08
3.34333e-08
3.41908e-08
3.49281e-08
3.56443e-08
3.63385e-08
3.701e-08
3.76578e-08
3.82812e-08
3.88794e-08
3.94516e-08
3.99969e-08
4.05146e-08
4.1004e-08
4.14642e-08
4.18946e-08
4.22944e-08
4.26629e-08
4.29995e-08
4.33033e-08
4.35739e-08
4.38105e-08
4.40124e-08
4.41792e-08
4.43101e-08
4.44046e-08
4.44622e-08
4.44823e-08
4.44645e-08
4.44085e-08
4.43133e-08
4.41789e-08
4.40047e-08
4.37906e-08
4.35361e-08
4.3241e-08
4.29051e-08
4.25282e-08
4.21102e-08
4.1651e-08
4.11505e-08
4.06088e-08
4.0026e-08
3.94022e-08
3.87377e-08
3.80327e-08
3.72877e-08
3.65031e-08
3.56793e-08
3.48171e-08
3.39172e-08
3.29803e-08
3.20074e-08
3.09996e-08
2.9958e-08
2.88841e-08
2.77791e-08
2.66449e-08
2.54831e-08
2.42958e-08
2.30854e-08
2.18542e-08
2.06053e-08
1.93418e-08
1.80674e-08
1.6786e-08
1.55024e-08
1.42215e-08
1.29492e-08
1.16918e-08
1.04564e-08
9.25108e-09
8.08429e-09
6.96533e-09
5.904e-09
4.91036e-09
3.99438e-09
3.16544e-09
2.43169e-09
1.7993e-09
1.2717e-09
8.48784e-10
5.26375e-10
2.95994e-10
1.45074e-10
5.77304e-11
1.60807e-11
2.09263e-12
1.22199e-14
9.43162e-15
1.6163e-12
1.24419e-11
4.47835e-11
1.12923e-10
2.31339e-10
4.13319e-10
6.69905e-10
1.00922e-09
1.43617e-09
1.95255e-09
2.55731e-09
3.24715e-09
4.01704e-09
4.86084e-09
5.77172e-09
6.74266e-09
7.76672e-09
8.83726e-09
9.94805e-09
1.10934e-08
1.2268e-08
1.34673e-08
1.4687e-08
1.59233e-08
1.71729e-08
1.84326e-08
1.96998e-08
2.0972e-08
2.22468e-08
2.35221e-08
2.47961e-08
2.60667e-08
2.73324e-08
2.85915e-08
2.98424e-08
3.10835e-08
3.23135e-08
3.3531e-08
3.47344e-08
3.59225e-08
3.7094e-08
3.82475e-08
3.93818e-08
4.04955e-08
4.15875e-08
4.26565e-08
4.37012e-08
4.47206e-08
4.57133e-08
4.66782e-08
4.76141e-08
4.85199e-08
4.93944e-08
5.02366e-08
5.10452e-08
5.18192e-08
5.25576e-08
5.32591e-08
5.39229e-08
5.45478e-08
5.51328e-08
5.56769e-08
5.61791e-08
5.66385e-08
5.70541e-08
5.74249e-08
5.775e-08
5.80286e-08
5.82597e-08
5.84426e-08
5.85763e-08
5.86603e-08
5.86936e-08
5.86757e-08
5.86061e-08
5.84834e-08
5.83076e-08
5.80779e-08
5.77939e-08
5.74552e-08
5.70613e-08
5.66118e-08
5.61067e-08
5.55455e-08
5.49282e-08
5.42547e-08
5.35251e-08
5.27394e-08
5.18978e-08
5.10007e-08
5.00484e-08
4.90414e-08
4.79804e-08
4.68661e-08
4.56994e-08
4.44814e-08
4.32132e-08
4.18963e-08
4.0532e-08
3.91222e-08
3.7669e-08
3.61744e-08
3.46411e-08
3.30718e-08
3.14697e-08
2.98383e-08
2.81816e-08
2.65038e-08
2.481e-08
2.31057e-08
2.13969e-08
1.96905e-08
1.79941e-08
1.63161e-08
1.46658e-08
1.30533e-08
1.14893e-08
9.98552e-09
8.55397e-09
7.20697e-09
5.95669e-09
4.8146e-09
3.79083e-09
2.89343e-09
2.12757e-09
1.49475e-09
9.9214e-10
6.12228e-10
3.42804e-10
1.67433e-10
6.64527e-11
1.84773e-11
2.4021e-12
1.40221e-14
1.05951e-14
1.81612e-12
1.39895e-11
5.04156e-11
1.27354e-10
2.61534e-10
4.68665e-10
7.6228e-10
1.15293e-09
1.64776e-09
2.25043e-09
2.96139e-09
3.77828e-09
4.6965e-09
5.70983e-09
6.81095e-09
7.99195e-09
9.24474e-09
1.05613e-08
1.19341e-08
1.33557e-08
1.48195e-08
1.63194e-08
1.78496e-08
1.94053e-08
2.09816e-08
2.25744e-08
2.418e-08
2.57948e-08
2.74157e-08
2.90397e-08
3.06641e-08
3.22865e-08
3.39043e-08
3.55154e-08
3.71176e-08
3.87089e-08
4.02873e-08
4.18509e-08
4.33977e-08
4.49261e-08
4.64343e-08
4.79204e-08
4.93828e-08
5.08198e-08
5.22298e-08
5.36111e-08
5.49622e-08
5.62813e-08
5.75669e-08
5.88175e-08
6.00316e-08
6.12075e-08
6.23437e-08
6.34389e-08
6.44914e-08
6.54999e-08
6.64628e-08
6.73787e-08
6.82463e-08
6.9064e-08
6.98306e-08
7.05447e-08
7.12049e-08
7.181e-08
7.23585e-08
7.28494e-08
7.32812e-08
7.36528e-08
7.39631e-08
7.42108e-08
7.43949e-08
7.45142e-08
7.45678e-08
7.45546e-08
7.44743e-08
7.43247e-08
7.41058e-08
7.38166e-08
7.34565e-08
7.30247e-08
7.25208e-08
7.19442e-08
7.12945e-08
7.05715e-08
6.97748e-08
6.89043e-08
6.79602e-08
6.69425e-08
6.58514e-08
6.46874e-08
6.34509e-08
6.21428e-08
6.07638e-08
5.9315e-08
5.77977e-08
5.62133e-08
5.45636e-08
5.28504e-08
5.10761e-08
4.92432e-08
4.73544e-08
4.5413e-08
4.34227e-08
4.13876e-08
3.93121e-08
3.72014e-08
3.50612e-08
3.28979e-08
3.07184e-08
2.85307e-08
2.63434e-08
2.41662e-08
2.20094e-08
1.98847e-08
1.78043e-08
1.57815e-08
1.38303e-08
1.19653e-08
1.02012e-08
8.55264e-09
7.03341e-09
5.65601e-09
4.43076e-09
3.36506e-09
2.46253e-09
1.72228e-09
1.13844e-09
6.99928e-10
3.90682e-10
1.90334e-10
7.53974e-11
2.09372e-11
2.71992e-12
1.58732e-14
1.17607e-14
2.01626e-12
1.55388e-11
5.60478e-11
1.41767e-10
2.9164e-10
5.23752e-10
8.54074e-10
1.29554e-09
1.85754e-09
2.54567e-09
3.36197e-09
4.30519e-09
5.37142e-09
6.5546e-09
7.84722e-09
9.24069e-09
1.0726e-08
1.22941e-08
1.39358e-08
1.56426e-08
1.74064e-08
1.92194e-08
2.10747e-08
2.29657e-08
2.48867e-08
2.6832e-08
2.87969e-08
3.07768e-08
3.27674e-08
3.4765e-08
3.6766e-08
3.87671e-08
4.07651e-08
4.27571e-08
4.47402e-08
4.67119e-08
4.86696e-08
5.06107e-08
5.25329e-08
5.44338e-08
5.63112e-08
5.81629e-08
5.99866e-08
6.17802e-08
6.35416e-08
6.52686e-08
6.69592e-08
6.86114e-08
7.02231e-08
7.17924e-08
7.33171e-08
7.47954e-08
7.62253e-08
7.76049e-08
7.89322e-08
8.02054e-08
8.14225e-08
8.25817e-08
8.36811e-08
8.47189e-08
8.56934e-08
8.66026e-08
8.7445e-08
8.82186e-08
8.89219e-08
8.95531e-08
9.01106e-08
9.05927e-08
9.0998e-08
9.13248e-08
9.15717e-08
9.17372e-08
9.182e-08
9.18186e-08
9.17326e-08
9.15594e-08
9.12984e-08
9.09485e-08
9.05089e-08
8.99786e-08
8.93569e-08
8.8643e-08
8.78363e-08
8.69365e-08
8.59432e-08
8.48562e-08
8.36755e-08
8.24013e-08
8.10339e-08
7.95738e-08
7.80217e-08
7.63786e-08
7.46455e-08
7.28241e-08
7.09159e-08
6.8923e-08
6.68477e-08
6.46927e-08
6.24612e-08
6.01565e-08
5.77827e-08
5.53443e-08
5.28462e-08
5.02942e-08
4.76945e-08
4.50543e-08
4.23812e-08
3.96841e-08
3.69725e-08
3.4257e-08
3.15493e-08
2.8862e-08
2.62088e-08
2.36046e-08
2.10651e-08
1.86068e-08
1.62468e-08
1.40026e-08
1.18914e-08
9.92975e-09
8.13279e-09
6.51353e-09
5.08208e-09
3.8447e-09
2.80308e-09
1.95367e-09
1.28732e-09
7.89259e-10
4.39505e-10
2.13713e-10
8.45369e-11
2.34524e-11
3.04499e-12
1.77669e-14
1.2922e-14
2.21563e-12
1.70814e-11
6.16512e-11
1.56088e-10
3.21513e-10
5.78326e-10
9.44863e-10
1.43638e-09
2.06444e-09
2.83658e-09
3.75643e-09
4.82399e-09
6.03612e-09
7.38714e-09
8.86947e-09
1.04742e-08
1.21915e-08
1.40112e-08
1.59234e-08
1.79179e-08
1.99853e-08
2.21166e-08
2.43033e-08
2.65376e-08
2.88124e-08
3.11209e-08
3.34571e-08
3.58152e-08
3.819e-08
4.05769e-08
4.29712e-08
4.53687e-08
4.77657e-08
5.01583e-08
5.25431e-08
5.49167e-08
5.72759e-08
5.96176e-08
6.19388e-08
6.42366e-08
6.65083e-08
6.87509e-08
7.09618e-08
7.31383e-08
7.52778e-08
7.73777e-08
7.94353e-08
8.14482e-08
8.34137e-08
8.53294e-08
8.71929e-08
8.90015e-08
9.07529e-08
9.24446e-08
9.40743e-08
9.56394e-08
9.71376e-08
9.85666e-08
9.9924e-08
1.01207e-07
1.02415e-07
1.03543e-07
1.04591e-07
1.05556e-07
1.06435e-07
1.07228e-07
1.0793e-07
1.08541e-07
1.09059e-07
1.0948e-07
1.09804e-07
1.10029e-07
1.10152e-07
1.10172e-07
1.10088e-07
1.09898e-07
1.09599e-07
1.09191e-07
1.08672e-07
1.08042e-07
1.07299e-07
1.06441e-07
1.0547e-07
1.04383e-07
1.03181e-07
1.01863e-07
1.00429e-07
9.88788e-08
9.72137e-08
9.54339e-08
9.35405e-08
9.15345e-08
8.94176e-08
8.71917e-08
8.4859e-08
8.24221e-08
7.98843e-08
7.72491e-08
7.45206e-08
7.17035e-08
6.88032e-08
6.58255e-08
6.27773e-08
5.9666e-08
5.65001e-08
5.32887e-08
5.00423e-08
4.67722e-08
4.3491e-08
4.02122e-08
3.69507e-08
3.37226e-08
3.05451e-08
2.74364e-08
2.44158e-08
2.15031e-08
1.87184e-08
1.60819e-08
1.36132e-08
1.13303e-08
9.24932e-09
7.38357e-09
5.74249e-09
4.33093e-09
3.14836e-09
2.18837e-09
1.43844e-09
8.80014e-10
4.89152e-10
2.37505e-10
9.38449e-11
2.60152e-11
3.37631e-12
1.96971e-14
1.40735e-14
2.41328e-12
1.86099e-11
6.71995e-11
1.70254e-10
3.51021e-10
6.3215e-10
1.03426e-09
1.57484e-09
2.26752e-09
3.12175e-09
4.1427e-09
5.33162e-09
6.68622e-09
8.20128e-09
9.86929e-09
1.16811e-08
1.36264e-08
1.56941e-08
1.78732e-08
2.01527e-08
2.25217e-08
2.49699e-08
2.74877e-08
3.00659e-08
3.2696e-08
3.53703e-08
3.80813e-08
4.08223e-08
4.35872e-08
4.637e-08
4.91654e-08
5.19684e-08
5.47742e-08
5.75783e-08
6.03765e-08
6.31647e-08
6.5939e-08
6.86958e-08
7.14314e-08
7.41423e-08
7.68251e-08
7.94764e-08
8.20929e-08
8.46715e-08
8.72088e-08
8.97018e-08
9.21473e-08
9.45422e-08
9.68835e-08
9.91681e-08
1.01393e-07
1.03555e-07
1.05651e-07
1.07678e-07
1.09634e-07
1.11515e-07
1.13318e-07
1.1504e-07
1.16679e-07
1.18232e-07
1.19695e-07
1.21065e-07
1.22341e-07
1.23519e-07
1.24596e-07
1.25569e-07
1.26437e-07
1.27196e-07
1.27843e-07
1.28377e-07
1.28794e-07
1.29092e-07
1.29269e-07
1.29323e-07
1.29252e-07
1.29053e-07
1.28724e-07
1.28263e-07
1.2767e-07
1.26942e-07
1.26077e-07
1.25076e-07
1.23936e-07
1.22657e-07
1.21239e-07
1.1968e-07
1.17982e-07
1.16143e-07
1.14165e-07
1.12048e-07
1.09794e-07
1.07405e-07
1.04881e-07
1.02226e-07
9.94421e-08
9.65335e-08
9.35038e-08
9.03578e-08
8.71008e-08
8.37388e-08
8.02788e-08
7.67283e-08
7.30961e-08
6.93918e-08
6.56262e-08
6.18111e-08
5.79595e-08
5.40859e-08
5.02058e-08
4.63363e-08
4.24957e-08
3.87036e-08
3.49808e-08
3.13492e-08
2.78314e-08
2.44506e-08
2.12298e-08
1.81918e-08
1.53582e-08
1.27482e-08
1.03789e-08
8.26338e-09
6.4102e-09
4.82256e-09
3.49759e-09
2.4259e-09
1.59147e-09
9.71991e-10
5.39504e-10
2.61653e-10
1.03297e-10
2.86185e-11
3.71295e-12
2.16584e-14
1.52099e-14
2.60833e-12
2.01178e-11
7.26688e-11
1.84204e-10
3.80043e-10
6.85009e-10
1.12191e-09
1.71035e-09
2.46597e-09
3.39996e-09
4.51903e-09
5.82559e-09
7.3182e-09
8.99216e-09
1.08401e-08
1.28527e-08
1.50193e-08
1.73281e-08
1.97672e-08
2.23245e-08
2.49883e-08
2.77469e-08
3.05896e-08
3.35061e-08
3.64866e-08
3.95222e-08
4.26045e-08
4.57257e-08
4.88785e-08
5.20563e-08
5.52526e-08
5.84617e-08
6.16779e-08
6.4896e-08
6.81111e-08
7.13184e-08
7.45133e-08
7.76915e-08
8.08488e-08
8.3981e-08
8.70841e-08
9.01541e-08
9.31872e-08
9.61796e-08
9.91276e-08
1.02027e-07
1.04875e-07
1.07667e-07
1.104e-07
1.1307e-07
1.15673e-07
1.18207e-07
1.20666e-07
1.23048e-07
1.25349e-07
1.27565e-07
1.29694e-07
1.3173e-07
1.33671e-07
1.35513e-07
1.37253e-07
1.38887e-07
1.40411e-07
1.41822e-07
1.43117e-07
1.44292e-07
1.45345e-07
1.4627e-07
1.47066e-07
1.4773e-07
1.48257e-07
1.48645e-07
1.48891e-07
1.48993e-07
1.48947e-07
1.48752e-07
1.48404e-07
1.479e-07
1.4724e-07
1.4642e-07
1.4544e-07
1.44297e-07
1.42991e-07
1.4152e-07
1.39883e-07
1.3808e-07
1.36112e-07
1.33977e-07
1.31677e-07
1.29213e-07
1.26586e-07
1.23798e-07
1.20852e-07
1.1775e-07
1.14497e-07
1.11096e-07
1.07553e-07
1.03874e-07
1.00064e-07
9.61332e-08
9.20885e-08
8.79399e-08
8.36983e-08
7.93756e-08
7.49852e-08
7.05417e-08
6.60612e-08
6.15612e-08
5.70608e-08
5.25805e-08
4.81422e-08
4.37693e-08
3.94863e-08
3.53186e-08
3.12924e-08
2.74339e-08
2.37693e-08
2.03235e-08
1.71198e-08
1.4179e-08
1.15183e-08
9.15072e-09
7.08366e-09
5.31856e-09
3.85007e-09
2.66575e-09
1.74611e-09
1.06499e-09
5.90447e-10
2.86096e-10
1.12868e-10
3.12555e-11
4.05399e-12
2.36455e-14
1.63269e-14
2.8e-12
2.1599e-11
7.80379e-11
1.97885e-10
4.0847e-10
7.36707e-10
1.20749e-09
1.84244e-09
2.65905e-09
3.67017e-09
4.88392e-09
6.3038e-09
7.9292e-09
9.75589e-09
1.17767e-08
1.39822e-08
1.63613e-08
1.89018e-08
2.1591e-08
2.44159e-08
2.73638e-08
3.04222e-08
3.35791e-08
3.68231e-08
4.01436e-08
4.35305e-08
4.69744e-08
5.04666e-08
5.39988e-08
5.75635e-08
6.11536e-08
6.47622e-08
6.83832e-08
7.20106e-08
7.56387e-08
7.92621e-08
8.28756e-08
8.64741e-08
9.0053e-08
9.36074e-08
9.71327e-08
1.00624e-07
1.04078e-07
1.0749e-07
1.10854e-07
1.14168e-07
1.17426e-07
1.20624e-07
1.23759e-07
1.26825e-07
1.29819e-07
1.32736e-07
1.35572e-07
1.38323e-07
1.40985e-07
1.43553e-07
1.46023e-07
1.4839e-07
1.50651e-07
1.52801e-07
1.54836e-07
1.56752e-07
1.58544e-07
1.60208e-07
1.6174e-07
1.63136e-07
1.64392e-07
1.65504e-07
1.66468e-07
1.67279e-07
1.67934e-07
1.6843e-07
1.68762e-07
1.68928e-07
1.68923e-07
1.68747e-07
1.68392e-07
1.67858e-07
1.67142e-07
1.66241e-07
1.65154e-07
1.63877e-07
1.6241e-07
1.60752e-07
1.589e-07
1.56855e-07
1.54617e-07
1.52185e-07
1.4956e-07
1.46743e-07
1.43737e-07
1.40544e-07
1.37166e-07
1.33607e-07
1.29872e-07
1.25966e-07
1.21896e-07
1.17668e-07
1.13291e-07
1.08774e-07
1.04127e-07
9.9363e-08
9.44941e-08
8.95353e-08
8.45026e-08
7.94135e-08
7.42875e-08
6.91454e-08
6.40097e-08
5.89047e-08
5.38562e-08
4.88911e-08
4.40378e-08
3.93253e-08
3.47832e-08
3.04409e-08
2.63274e-08
2.24697e-08
1.88928e-08
1.56187e-08
1.26648e-08
1.00436e-08
7.76147e-09
5.81793e-09
4.2051e-09
2.90748e-09
1.90204e-09
1.15881e-09
6.41866e-10
3.10777e-10
1.22536e-10
3.39197e-11
4.39858e-12
2.56533e-14
1.74206e-14
2.98765e-12
2.30485e-11
8.32884e-11
2.11251e-10
4.36207e-10
7.87074e-10
1.29073e-09
1.97068e-09
2.84614e-09
3.93149e-09
5.23611e-09
6.76455e-09
8.51688e-09
1.04893e-08
1.26749e-08
1.5064e-08
1.76455e-08
2.04064e-08
2.33336e-08
2.64132e-08
2.96318e-08
3.29759e-08
3.64326e-08
3.99896e-08
4.36353e-08
4.73588e-08
5.11497e-08
5.49985e-08
5.88961e-08
6.28342e-08
6.68048e-08
7.08007e-08
7.48146e-08
7.88402e-08
8.2871e-08
8.6901e-08
9.09245e-08
9.49359e-08
9.89298e-08
1.02901e-07
1.06844e-07
1.10754e-07
1.14626e-07
1.18455e-07
1.22236e-07
1.25965e-07
1.29635e-07
1.33243e-07
1.36784e-07
1.40253e-07
1.43644e-07
1.46953e-07
1.50175e-07
1.53305e-07
1.56338e-07
1.5927e-07
1.62094e-07
1.64806e-07
1.67402e-07
1.69875e-07
1.72221e-07
1.74435e-07
1.76512e-07
1.78447e-07
1.80235e-07
1.8187e-07
1.83349e-07
1.84665e-07
1.85815e-07
1.86793e-07
1.87595e-07
1.88217e-07
1.88653e-07
1.889e-07
1.88954e-07
1.88812e-07
1.88468e-07
1.87919e-07
1.87161e-07
1.86192e-07
1.8501e-07
1.83611e-07
1.81994e-07
1.80157e-07
1.78099e-07
1.75818e-07
1.73315e-07
1.70589e-07
1.67642e-07
1.64475e-07
1.6109e-07
1.57489e-07
1.53677e-07
1.49657e-07
1.45436e-07
1.41019e-07
1.36414e-07
1.3163e-07
1.26676e-07
1.21563e-07
1.16304e-07
1.10914e-07
1.05407e-07
9.98013e-08
9.41153e-08
8.83701e-08
8.25882e-08
7.67941e-08
7.1014e-08
6.52759e-08
5.96093e-08
5.40452e-08
4.86156e-08
4.33532e-08
3.8291e-08
3.34615e-08
2.88962e-08
2.46244e-08
2.06727e-08
1.70639e-08
1.38158e-08
1.09402e-08
8.4423e-09
6.31971e-09
4.562e-09
3.15058e-09
2.05893e-09
1.25326e-09
6.93648e-10
3.35642e-10
1.32278e-10
3.66048e-11
4.7459e-12
2.76771e-14
1.84876e-14
3.17069e-12
2.44619e-11
8.84045e-11
2.24262e-10
4.63173e-10
8.35965e-10
1.37138e-09
2.09469e-09
3.02669e-09
4.18315e-09
5.57457e-09
7.20639e-09
9.07932e-09
1.11899e-08
1.35314e-08
1.6094e-08
1.88664e-08
2.18351e-08
2.49865e-08
2.83061e-08
3.17796e-08
3.53928e-08
3.91322e-08
4.29845e-08
4.69374e-08
5.09791e-08
5.50985e-08
5.92855e-08
6.35301e-08
6.78234e-08
7.21569e-08
7.65224e-08
8.09125e-08
8.53199e-08
8.97379e-08
9.41598e-08