/*--------------------------------*- C++ -*----------------------------------*\
  =========                 |
  \\      /  F ield         | OpenFOAM: The Open Source CFD Toolbox
   \\    /   O peration     | Website:  https://openfoam.org
    \\  /    A nd           | Version:  12
     \\/     M anipulation  |
\*---------------------------------------------------------------------------*/
FoamFile
{
    format      ascii;
    class       volScalarField;
    location    "7";
    object      p;
}
// * * * * * * * * * * * * * * * * * * * * * * * * * * * * * * * * * * * * * //

dimensions      [0 2 -2 0 0 0 0];

internalField   nonuniform List<scalar> 
18225
(
6.63682e-10
-1.76521e-07
-2.20968e-07
-1.7077e-08
4.4477e-07
1.15232e-06
2.09021e-06
3.23886e-06
4.5757e-06
6.0763e-06
7.71604e-06
9.47061e-06
1.13166e-05
1.32314e-05
1.51938e-05
1.71837e-05
1.9182e-05
2.1171e-05
2.31341e-05
2.50559e-05
2.6922e-05
2.8719e-05
3.04346e-05
3.20574e-05
3.3577e-05
3.49838e-05
3.62692e-05
3.74252e-05
3.8445e-05
3.93224e-05
4.00518e-05
4.06286e-05
4.1049e-05
4.13096e-05
4.14079e-05
4.13421e-05
4.1111e-05
4.0714e-05
4.01512e-05
3.94231e-05
3.8531e-05
3.74766e-05
3.62622e-05
3.48906e-05
3.33649e-05
3.1689e-05
2.98668e-05
2.79029e-05
2.58023e-05
2.35701e-05
2.12119e-05
1.87336e-05
1.61414e-05
1.34415e-05
1.06407e-05
7.74571e-06
4.76352e-06
1.70129e-06
-1.43375e-06
-4.63423e-06
-7.8927e-06
-1.12017e-05
-1.45536e-05
-1.79409e-05
-2.13561e-05
-2.47915e-05
-2.82397e-05
-3.16933e-05
-3.51449e-05
-3.8587e-05
-4.20126e-05
-4.54146e-05
-4.87859e-05
-5.21197e-05
-5.54093e-05
-5.86481e-05
-6.18297e-05
-6.49479e-05
-6.79966e-05
-7.09699e-05
-7.38621e-05
-7.66677e-05
-7.93815e-05
-8.19981e-05
-8.45129e-05
-8.6921e-05
-8.92179e-05
-9.13995e-05
-9.34616e-05
-9.54005e-05
-9.72126e-05
-9.88946e-05
-0.000100443
-0.000101856
-0.00010313
-0.000104264
-0.000105254
-0.0001061
-0.000106801
-0.000107354
-0.00010776
-0.000108018
-0.000108129
-0.000108093
-0.000107911
-0.000107584
-0.000107115
-0.000106506
-0.000105761
-0.000104882
-0.000103876
-0.000102746
-0.0001015
-0.000100145
-9.86872e-05
-9.71373e-05
-9.55051e-05
-9.3802e-05
-9.20409e-05
-9.0236e-05
-8.84032e-05
-8.65599e-05
-8.47255e-05
-8.29211e-05
-8.11701e-05
-7.94975e-05
-7.79305e-05
-7.64979e-05
-7.52296e-05
-7.41558e-05
-7.33053e-05
-7.27052e-05
-7.2383e-05
-7.23485e-05
-7.2495e-05
-3.93907e-08
-2.30519e-07
-2.84237e-07
-9.88302e-08
3.16105e-07
9.40868e-07
1.76013e-06
2.75779e-06
3.9158e-06
5.21471e-06
6.63483e-06
8.15629e-06
9.75969e-06
1.14261e-05
1.31374e-05
1.4876e-05
1.66255e-05
1.83701e-05
2.0095e-05
2.17862e-05
2.34306e-05
2.5016e-05
2.65311e-05
2.79651e-05
2.93085e-05
3.05522e-05
3.16881e-05
3.27088e-05
3.36076e-05
3.43785e-05
3.50163e-05
3.55165e-05
3.58752e-05
3.60892e-05
3.61559e-05
3.60733e-05
3.58403e-05
3.54559e-05
3.49201e-05
3.42331e-05
3.33961e-05
3.24102e-05
3.12776e-05
3.00005e-05
2.85818e-05
2.70247e-05
2.5333e-05
2.35106e-05
2.1562e-05
1.94919e-05
1.73052e-05
1.50075e-05
1.26042e-05
1.01011e-05
7.50435e-06
4.82015e-06
2.0549e-06
-7.84853e-07
-3.69243e-06
-6.66106e-06
-9.68388e-06
-1.2754e-05
-1.58643e-05
-1.9008e-05
-2.2178e-05
-2.53673e-05
-2.85689e-05
-3.1776e-05
-3.49816e-05
-3.81791e-05
-4.13616e-05
-4.45226e-05
-4.76556e-05
-5.07542e-05
-5.38121e-05
-5.68233e-05
-5.97817e-05
-6.26816e-05
-6.55173e-05
-6.82833e-05
-7.09743e-05
-7.35851e-05
-7.61109e-05
-7.85469e-05
-8.08886e-05
-8.31315e-05
-8.52716e-05
-8.73048e-05
-8.92276e-05
-9.10364e-05
-9.2728e-05
-9.42994e-05
-9.57477e-05
-9.70705e-05
-9.82655e-05
-9.93308e-05
-0.000100265
-0.000101066
-0.000101733
-0.000102266
-0.000102663
-0.000102926
-0.000103054
-0.000103048
-0.000102909
-0.00010264
-0.000102242
-0.000101717
-0.000101071
-0.000100305
-9.94248e-05
-9.84358e-05
-9.73439e-05
-9.61558e-05
-9.48793e-05
-9.3523e-05
-9.20963e-05
-9.06101e-05
-8.90761e-05
-8.75072e-05
-8.59177e-05
-8.4323e-05
-8.274e-05
-8.1187e-05
-7.96835e-05
-7.82505e-05
-7.691e-05
-7.56852e-05
-7.45999e-05
-7.36774e-05
-7.29403e-05
-7.24119e-05
-7.212e-05
-7.20833e-05
-7.22116e-05
-1.03671e-06
-1.17867e-06
-1.18465e-06
-9.69557e-07
-5.52163e-07
4.44565e-08
8.05054e-07
1.71559e-06
2.76119e-06
3.92601e-06
5.19397e-06
6.54887e-06
7.97466e-06
9.45551e-06
1.0976e-05
1.25213e-05
1.40768e-05
1.5629e-05
1.71646e-05
1.86711e-05
2.01369e-05
2.15509e-05
2.29025e-05
2.41823e-05
2.53811e-05
2.64907e-05
2.75034e-05
2.84123e-05
2.92111e-05
2.98942e-05
3.04566e-05
3.08939e-05
3.12023e-05
3.13788e-05
3.14209e-05
3.13264e-05
3.10942e-05
3.07232e-05
3.02132e-05
2.95644e-05
2.87775e-05
2.78537e-05
2.67945e-05
2.56022e-05
2.42791e-05
2.28283e-05
2.1253e-05
1.95568e-05
1.77437e-05
1.5818e-05
1.37844e-05
1.16477e-05
9.41297e-06
7.08562e-06
4.67117e-06
2.17538e-06
-3.95847e-07
-3.03648e-06
-5.74033e-06
-8.50115e-06
-1.13126e-05
-1.41682e-05
-1.70615e-05
-1.99861e-05
-2.29354e-05
-2.5903e-05
-2.88824e-05
-3.18671e-05
-3.48507e-05
-3.7827e-05
-4.07897e-05
-4.37327e-05
-4.66499e-05
-4.95353e-05
-5.23831e-05
-5.51877e-05
-5.79434e-05
-6.06449e-05
-6.32869e-05
-6.58643e-05
-6.83721e-05
-7.08057e-05
-7.31603e-05
-7.54317e-05
-7.76156e-05
-7.97079e-05
-8.17049e-05
-8.36029e-05
-8.53986e-05
-8.70887e-05
-8.86703e-05
-9.01406e-05
-9.14973e-05
-9.27379e-05
-9.38606e-05
-9.48636e-05
-9.57454e-05
-9.6505e-05
-9.71414e-05
-9.76541e-05
-9.8043e-05
-9.83081e-05
-9.84501e-05
-9.84697e-05
-9.83683e-05
-9.81478e-05
-9.78103e-05
-9.73585e-05
-9.67957e-05
-9.61258e-05
-9.5353e-05
-9.44825e-05
-9.35199e-05
-9.24716e-05
-9.13449e-05
-9.01475e-05
-8.88883e-05
-8.75769e-05
-8.62239e-05
-8.48407e-05
-8.34398e-05
-8.20346e-05
-8.06395e-05
-7.92698e-05
-7.79418e-05
-7.66725e-05
-7.54796e-05
-7.43816e-05
-7.33969e-05
-7.25439e-05
-7.18406e-05
-7.13062e-05
-7.09655e-05
-7.08396e-05
-7.08674e-05
-3.07144e-06
-3.08422e-06
-2.96402e-06
-2.65735e-06
-2.1799e-06
-1.55071e-06
-7.83369e-07
1.09802e-07
1.11595e-06
2.22175e-06
3.41373e-06
4.67829e-06
6.0019e-06
7.37115e-06
8.77288e-06
1.01942e-05
1.16227e-05
1.30462e-05
1.44532e-05
1.58326e-05
1.7174e-05
1.84672e-05
1.9703e-05
2.08724e-05
2.19674e-05
2.29801e-05
2.39037e-05
2.47315e-05
2.54578e-05
2.60773e-05
2.65853e-05
2.69777e-05
2.72509e-05
2.74019e-05
2.74282e-05
2.7328e-05
2.70999e-05
2.6743e-05
2.62569e-05
2.56416e-05
2.48979e-05
2.40267e-05
2.30294e-05
2.1908e-05
2.06647e-05
1.93022e-05
1.78235e-05
1.62319e-05
1.45312e-05
1.27253e-05
1.08184e-05
8.81512e-06
6.72019e-06
4.53859e-06
2.27548e-06
-6.37685e-08
-2.47366e-06
-4.94855e-06
-7.48267e-06
-1.00702e-05
-1.27051e-05
-1.53814e-05
-1.80932e-05
-2.08342e-05
-2.35985e-05
-2.63799e-05
-2.91723e-05
-3.19699e-05
-3.47665e-05
-3.75562e-05
-4.03333e-05
-4.30919e-05
-4.58264e-05
-4.85312e-05
-5.12008e-05
-5.383e-05
-5.64135e-05
-5.89463e-05
-6.14234e-05
-6.38402e-05
-6.61919e-05
-6.84742e-05
-7.06827e-05
-7.28135e-05
-7.48625e-05
-7.68261e-05
-7.87006e-05
-8.04829e-05
-8.21696e-05
-8.3758e-05
-8.52453e-05
-8.6629e-05
-8.79068e-05
-8.90767e-05
-9.01369e-05
-9.10859e-05
-9.19224e-05
-9.26454e-05
-9.32542e-05
-9.37484e-05
-9.41279e-05
-9.43929e-05
-9.45441e-05
-9.45822e-05
-9.45087e-05
-9.43252e-05
-9.4034e-05
-9.36375e-05
-9.31389e-05
-9.25416e-05
-9.18499e-05
-9.10682e-05
-9.02019e-05
-8.92567e-05
-8.82391e-05
-8.71561e-05
-8.60156e-05
-8.48261e-05
-8.35968e-05
-8.23376e-05
-8.10592e-05
-7.9773e-05
-7.84911e-05
-7.72264e-05
-7.59922e-05
-7.48024e-05
-7.36714e-05
-7.26138e-05
-7.16445e-05
-7.07781e-05
-7.00292e-05
-6.94129e-05
-6.89456e-05
-6.86413e-05
-6.84849e-05
-5.94106e-06
-5.76486e-06
-5.453e-06
-4.99817e-06
-4.40902e-06
-3.69675e-06
-2.87189e-06
-1.94487e-06
-9.26376e-07
1.72563e-07
1.34077e-06
2.56689e-06
3.83959e-06
5.1475e-06
6.47942e-06
7.82431e-06
9.17138e-06
1.05101e-05
1.18304e-05
1.31224e-05
1.43768e-05
1.55847e-05
1.67376e-05
1.78276e-05
1.88471e-05
1.97892e-05
2.06475e-05
2.1416e-05
2.20892e-05
2.26624e-05
2.31311e-05
2.34915e-05
2.37403e-05
2.38746e-05
2.38921e-05
2.3791e-05
2.357e-05
2.32283e-05
2.27653e-05
2.21813e-05
2.14768e-05
2.06525e-05
1.971e-05
1.86509e-05
1.74773e-05
1.61918e-05
1.47971e-05
1.32964e-05
1.16931e-05
9.99103e-06
8.19407e-06
6.30652e-06
4.33284e-06
2.27772e-06
1.46019e-07
-2.05722e-06
-4.32681e-06
-6.65745e-06
-9.0437e-06
-1.148e-05
-1.39609e-05
-1.64806e-05
-1.90334e-05
-2.16137e-05
-2.42156e-05
-2.68336e-05
-2.94618e-05
-3.20946e-05
-3.47264e-05
-3.73517e-05
-3.99648e-05
-4.25604e-05
-4.51333e-05
-4.76781e-05
-5.01897e-05
-5.26632e-05
-5.50937e-05
-5.74764e-05
-5.98068e-05
-6.20804e-05
-6.42929e-05
-6.64401e-05
-6.85181e-05
-7.05232e-05
-7.24515e-05
-7.42998e-05
-7.60646e-05
-7.7743e-05
-7.9332e-05
-8.08289e-05
-8.22312e-05
-8.35366e-05
-8.47432e-05
-8.58489e-05
-8.68522e-05
-8.77517e-05
-8.85463e-05
-8.92351e-05
-8.98174e-05
-9.0293e-05
-9.06617e-05
-9.09238e-05
-9.10798e-05
-9.11307e-05
-9.10776e-05
-9.09222e-05
-9.06663e-05
-9.03125e-05
-8.98634e-05
-8.93222e-05
-8.86926e-05
-8.79788e-05
-8.71852e-05
-8.63172e-05
-8.53803e-05
-8.43807e-05
-8.33252e-05
-8.22211e-05
-8.10761e-05
-7.98989e-05
-7.86983e-05
-7.74838e-05
-7.62654e-05
-7.50537e-05
-7.38593e-05
-7.26935e-05
-7.15675e-05
-7.0493e-05
-6.94814e-05
-6.85441e-05
-6.76926e-05
-6.69371e-05
-6.62837e-05
-6.57367e-05
-6.53401e-05
-9.45479e-06
-9.05518e-06
-8.51109e-06
-7.86823e-06
-7.12761e-06
-6.29168e-06
-5.36764e-06
-4.36407e-06
-3.28968e-06
-2.15341e-06
-9.64418e-07
2.67888e-07
1.53402e-06
2.82441e-06
4.12955e-06
5.43995e-06
6.74633e-06
8.03955e-06
9.31075e-06
1.05513e-05
1.17529e-05
1.29077e-05
1.40081e-05
1.50468e-05
1.60173e-05
1.6913e-05
1.77282e-05
1.84574e-05
1.90958e-05
1.96387e-05
2.00821e-05
2.04226e-05
2.0657e-05
2.07828e-05
2.07977e-05
2.07002e-05
2.04889e-05
2.01632e-05
1.97227e-05
1.91674e-05
1.84978e-05
1.7715e-05
1.682e-05
1.58147e-05
1.4701e-05
1.34813e-05
1.21582e-05
1.07349e-05
9.21445e-06
7.60053e-06
5.89692e-06
4.10766e-06
2.237e-06
2.89412e-07
-1.73049e-06
-3.8179e-06
-5.96791e-06
-8.17544e-06
-1.04354e-05
-1.27424e-05
-1.50913e-05
-1.74766e-05
-1.9893e-05
-2.2335e-05
-2.47972e-05
-2.72742e-05
-2.97606e-05
-3.2251e-05
-3.47401e-05
-3.72227e-05
-3.96935e-05
-4.21474e-05
-4.45795e-05
-4.69848e-05
-4.93585e-05
-5.1696e-05
-5.39925e-05
-5.62438e-05
-5.84455e-05
-6.05933e-05
-6.26834e-05
-6.47118e-05
-6.66749e-05
-6.8569e-05
-7.03908e-05
-7.21371e-05
-7.38048e-05
-7.5391e-05
-7.68932e-05
-7.83087e-05
-7.96353e-05
-8.08708e-05
-8.20134e-05
-8.30613e-05
-8.40131e-05
-8.48675e-05
-8.56233e-05
-8.62799e-05
-8.68366e-05
-8.72931e-05
-8.76493e-05
-8.79055e-05
-8.8062e-05
-8.81197e-05
-8.80797e-05
-8.79433e-05
-8.77123e-05
-8.73886e-05
-8.69749e-05
-8.64737e-05
-8.58883e-05
-8.52223e-05
-8.44796e-05
-8.36647e-05
-8.27823e-05
-8.18377e-05
-8.08365e-05
-7.9785e-05
-7.86897e-05
-7.75574e-05
-7.63957e-05
-7.52122e-05
-7.40149e-05
-7.28124e-05
-7.16131e-05
-7.04257e-05
-6.92591e-05
-6.81221e-05
-6.70232e-05
-6.59712e-05
-6.49749e-05
-6.404e-05
-6.31619e-05
-6.23358e-05
-6.16702e-05
-1.34416e-05
-1.28015e-05
-1.20023e-05
-1.11454e-05
-1.0225e-05
-9.23495e-06
-8.17942e-06
-7.06545e-06
-5.90007e-06
-4.69044e-06
-3.444e-06
-2.16851e-06
-8.7187e-07
4.37852e-07
1.75258e-06
3.06421e-06
4.36472e-06
5.64618e-06
6.90084e-06
8.12113e-06
9.29974e-06
1.04296e-05
1.1504e-05
1.25164e-05
1.34609e-05
1.43316e-05
1.51233e-05
1.58311e-05
1.64505e-05
1.69772e-05
1.74078e-05
1.77389e-05
1.79678e-05
1.80921e-05
1.81098e-05
1.80194e-05
1.78199e-05
1.75106e-05
1.70913e-05
1.6562e-05
1.59234e-05
1.51763e-05
1.4322e-05
1.33622e-05
1.22989e-05
1.11343e-05
9.87115e-06
8.51226e-06
7.06084e-06
5.52033e-06
3.89441e-06
2.18698e-06
4.02155e-07
-1.45578e-06
-3.38237e-06
-5.373e-06
-7.42293e-06
-9.52732e-06
-1.16812e-05
-1.38796e-05
-1.61173e-05
-1.83893e-05
-2.06904e-05
-2.30154e-05
-2.53591e-05
-2.77164e-05
-3.00821e-05
-3.24511e-05
-3.48184e-05
-3.71789e-05
-3.95277e-05
-4.18601e-05
-4.41712e-05
-4.64564e-05
-4.87112e-05
-5.09311e-05
-5.31118e-05
-5.52491e-05
-5.73391e-05
-5.93777e-05
-6.13613e-05
-6.32861e-05
-6.51488e-05
-6.6946e-05
-6.86745e-05
-7.03313e-05
-7.19137e-05
-7.34189e-05
-7.48444e-05
-7.6188e-05
-7.74474e-05
-7.86207e-05
-7.97062e-05
-8.07022e-05
-8.16073e-05
-8.24203e-05
-8.31403e-05
-8.37664e-05
-8.42981e-05
-8.4735e-05
-8.5077e-05
-8.53243e-05
-8.54771e-05
-8.55361e-05
-8.55021e-05
-8.53764e-05
-8.51603e-05
-8.48556e-05
-8.44642e-05
-8.39885e-05
-8.34312e-05
-8.27952e-05
-8.20839e-05
-8.13008e-05
-8.04499e-05
-7.95356e-05
-7.85625e-05
-7.75357e-05
-7.64604e-05
-7.53422e-05
-7.4187e-05
-7.3001e-05
-7.17905e-05
-7.05621e-05
-6.93223e-05
-6.80778e-05
-6.68353e-05
-6.56012e-05
-6.43818e-05
-6.31834e-05
-6.20129e-05
-6.08725e-05
-5.97471e-05
-5.86241e-05
-5.76778e-05
-1.77588e-05
-1.68713e-05
-1.58055e-05
-1.47191e-05
-1.35998e-05
-1.24336e-05
-1.12223e-05
-9.9718e-06
-8.68771e-06
-7.37581e-06
-6.04213e-06
-4.69307e-06
-3.33524e-06
-1.97544e-06
-6.20557e-07
7.22449e-07
2.04665e-06
3.34514e-06
4.61114e-06
5.83797e-06
7.01918e-06
8.14849e-06
9.21988e-06
1.02276e-05
1.11662e-05
1.20305e-05
1.28158e-05
1.35175e-05
1.41317e-05
1.46545e-05
1.50828e-05
1.54135e-05
1.56443e-05
1.57728e-05
1.57975e-05
1.57171e-05
1.55306e-05
1.52374e-05
1.48376e-05
1.43313e-05
1.37191e-05
1.30021e-05
1.21815e-05
1.12592e-05
1.02369e-05
9.11713e-06
7.90239e-06
6.59559e-06
5.19985e-06
3.71858e-06
2.15538e-06
5.14064e-07
-1.20134e-06
-2.98665e-06
-4.83752e-06
-6.74946e-06
-8.71786e-06
-1.0738e-05
-1.28052e-05
-1.49144e-05
-1.70608e-05
-1.92394e-05
-2.14453e-05
-2.36734e-05
-2.59187e-05
-2.81764e-05
-3.04414e-05
-3.27089e-05
-3.49741e-05
-3.72321e-05
-3.94783e-05
-4.17081e-05
-4.39169e-05
-4.61004e-05
-4.82541e-05
-5.03741e-05
-5.2456e-05
-5.44961e-05
-5.64905e-05
-5.84355e-05
-6.03275e-05
-6.21632e-05
-6.39393e-05
-6.56527e-05
-6.73004e-05
-6.88797e-05
-7.03878e-05
-7.18223e-05
-7.31809e-05
-7.44613e-05
-7.56616e-05
-7.67799e-05
-7.78145e-05
-7.87639e-05
-7.96269e-05
-8.04022e-05
-8.10889e-05
-8.16862e-05
-8.21934e-05
-8.26103e-05
-8.29365e-05
-8.31721e-05
-8.33172e-05
-8.33724e-05
-8.33382e-05
-8.32156e-05
-8.30056e-05
-8.27095e-05
-8.23291e-05
-8.1866e-05
-8.13226e-05
-8.0701e-05
-8.00039e-05
-7.92343e-05
-7.83953e-05
-7.74903e-05
-7.6523e-05
-7.54974e-05
-7.44175e-05
-7.32879e-05
-7.21129e-05
-7.08974e-05
-6.96462e-05
-6.83641e-05
-6.70562e-05
-6.57274e-05
-6.43825e-05
-6.30259e-05
-6.16621e-05
-6.02957e-05
-5.8932e-05
-5.75701e-05
-5.61859e-05
-5.47596e-05
-5.35306e-05
-2.22904e-05
-2.11548e-05
-1.9818e-05
-1.84932e-05
-1.71625e-05
-1.58048e-05
-1.44198e-05
-1.30127e-05
-1.15882e-05
-1.0151e-05
-8.70598e-06
-7.25854e-06
-5.81421e-06
-4.37881e-06
-2.95823e-06
-1.5585e-06
-1.85644e-07
1.15428e-06
2.45532e-06
3.71157e-06
4.9173e-06
6.06691e-06
7.15504e-06
8.17651e-06
9.12645e-06
1.00002e-05
1.07935e-05
1.15023e-05
1.2123e-05
1.26522e-05
1.30869e-05
1.34247e-05
1.36631e-05
1.38005e-05
1.38353e-05
1.37664e-05
1.35931e-05
1.33151e-05
1.29324e-05
1.24455e-05
1.18549e-05
1.1162e-05
1.0368e-05
9.4747e-06
8.48421e-06
7.39886e-06
6.22129e-06
4.9544e-06
3.60135e-06
2.1655e-06
6.50472e-07
-9.39947e-07
-2.60178e-06
-4.33087e-06
-6.12295e-06
-7.97359e-06
-9.87827e-06
-1.18324e-05
-1.38312e-05
-1.587e-05
-1.79439e-05
-2.00482e-05
-2.2178e-05
-2.43284e-05
-2.64946e-05
-2.86719e-05
-3.08554e-05
-3.30404e-05
-3.52222e-05
-3.73964e-05
-3.95583e-05
-4.17036e-05
-4.38279e-05
-4.59271e-05
-4.7997e-05
-5.00336e-05
-5.20331e-05
-5.39917e-05
-5.59058e-05
-5.77719e-05
-5.95867e-05
-6.13469e-05
-6.30496e-05
-6.46917e-05
-6.62705e-05
-6.77833e-05
-6.92278e-05
-7.06014e-05
-7.19021e-05
-7.31277e-05
-7.42764e-05
-7.53464e-05
-7.63362e-05
-7.72443e-05
-7.80694e-05
-7.88104e-05
-7.94663e-05
-8.00362e-05
-8.05197e-05
-8.09161e-05
-8.12251e-05
-8.14467e-05
-8.15808e-05
-8.16277e-05
-8.15877e-05
-8.14615e-05
-8.12498e-05
-8.09535e-05
-8.0574e-05
-8.01124e-05
-7.95704e-05
-7.89498e-05
-7.82525e-05
-7.74808e-05
-7.6637e-05
-7.57237e-05
-7.47437e-05
-7.36999e-05
-7.25954e-05
-7.14335e-05
-7.02176e-05
-6.8951e-05
-6.76375e-05
-6.62804e-05
-6.48833e-05
-6.34497e-05
-6.19828e-05
-6.04857e-05
-5.89611e-05
-5.74124e-05
-5.58437e-05
-5.42518e-05
-5.26043e-05
-5.0875e-05
-4.93668e-05
-2.6944e-05
-2.55624e-05
-2.3954e-05
-2.23861e-05
-2.0836e-05
-1.92758e-05
-1.77038e-05
-1.61249e-05
-1.4543e-05
-1.29622e-05
-1.13864e-05
-9.82035e-06
-8.26871e-06
-6.73654e-06
-5.22898e-06
-3.7513e-06
-2.30881e-06
-9.06856e-07
4.49263e-07
1.75429e-06
3.00312e-06
4.19072e-06
5.31229e-06
6.36317e-06
7.33899e-06
8.23557e-06
9.04905e-06
9.77582e-06
1.04126e-05
1.09564e-05
1.14047e-05
1.17551e-05
1.20057e-05
1.21549e-05
1.22015e-05
1.21447e-05
1.1984e-05
1.17192e-05
1.13505e-05
1.08785e-05
1.03042e-05
9.62874e-06
8.8537e-06
7.98095e-06
7.01266e-06
5.95128e-06
4.79954e-06
3.56041e-06
2.23709e-06
8.33023e-07
-6.48155e-07
-2.20262e-06
-3.82638e-06
-5.51529e-06
-7.26506e-06
-9.07131e-06
-1.09295e-05
-1.28352e-05
-1.47835e-05
-1.67699e-05
-1.87897e-05
-2.0838e-05
-2.29101e-05
-2.50013e-05
-2.71069e-05
-2.92221e-05
-3.13424e-05
-3.34631e-05
-3.55797e-05
-3.76878e-05
-3.97831e-05
-4.18613e-05
-4.39182e-05
-4.59497e-05
-4.79521e-05
-4.99213e-05
-5.18538e-05
-5.3746e-05
-5.55945e-05
-5.73958e-05
-5.91469e-05
-6.08448e-05
-6.24865e-05
-6.40692e-05
-6.55904e-05
-6.70475e-05
-6.84382e-05
-6.97604e-05
-7.10118e-05
-7.21906e-05
-7.3295e-05
-7.43233e-05
-7.52739e-05
-7.61456e-05
-7.69369e-05
-7.76469e-05
-7.82745e-05
-7.88188e-05
-7.92792e-05
-7.96551e-05
-7.99459e-05
-8.01515e-05
-8.02717e-05
-8.03065e-05
-8.0256e-05
-8.01205e-05
-7.99004e-05
-7.95964e-05
-7.92091e-05
-7.87394e-05
-7.81885e-05
-7.75576e-05
-7.68479e-05
-7.6061e-05
-7.51986e-05
-7.42625e-05
-7.32545e-05
-7.21768e-05
-7.10315e-05
-6.98208e-05
-6.85472e-05
-6.72129e-05
-6.58203e-05
-6.43718e-05
-6.28698e-05
-6.13164e-05
-5.97136e-05
-5.80633e-05
-5.6367e-05
-5.46271e-05
-5.2847e-05
-5.10215e-05
-4.91105e-05
-4.70823e-05
-4.53007e-05
-3.16463e-05
-3.00217e-05
-2.81429e-05
-2.63297e-05
-2.45546e-05
-2.27842e-05
-2.10152e-05
-1.92525e-05
-1.74998e-05
-1.57606e-05
-1.40383e-05
-1.2337e-05
-1.06609e-05
-9.0144e-06
-7.40211e-06
-5.82874e-06
-4.29902e-06
-2.81777e-06
-1.38973e-06
-1.96447e-08
1.28787e-06
2.52829e-06
3.69727e-06
4.79061e-06
5.80435e-06
6.73474e-06
7.57829e-06
8.33178e-06
8.99228e-06
9.55718e-06
1.00242e-05
1.03913e-05
1.06568e-05
1.08195e-05
1.08785e-05
1.0833e-05
1.0683e-05
1.04283e-05
1.00696e-05
9.60751e-06
9.04317e-06
8.37802e-06
7.61377e-06
6.75246e-06
5.79641e-06
4.7482e-06
3.61069e-06
2.38697e-06
1.08035e-06
-3.05637e-07
-1.76727e-06
-3.30064e-06
-4.9017e-06
-6.56625e-06
-8.28998e-06
-1.00684e-05
-1.18971e-05
-1.37715e-05
-1.56868e-05
-1.76385e-05
-1.96218e-05
-2.1632e-05
-2.36644e-05
-2.57143e-05
-2.7777e-05
-2.98481e-05
-3.19228e-05
-3.39968e-05
-3.60656e-05
-3.81249e-05
-4.01705e-05
-4.21982e-05
-4.4204e-05
-4.6184e-05
-4.81345e-05
-5.00517e-05
-5.19322e-05
-5.37724e-05
-5.55692e-05
-5.73193e-05
-5.90198e-05
-6.06678e-05
-6.22604e-05
-6.37952e-05
-6.52696e-05
-6.66812e-05
-6.80278e-05
-6.93074e-05
-7.05179e-05
-7.16575e-05
-7.27245e-05
-7.37173e-05
-7.46344e-05
-7.54744e-05
-7.62361e-05
-7.69184e-05
-7.75202e-05
-7.80407e-05
-7.8479e-05
-7.88344e-05
-7.91065e-05
-7.92947e-05
-7.93988e-05
-7.94184e-05
-7.93534e-05
-7.92039e-05
-7.89699e-05
-7.86517e-05
-7.82496e-05
-7.77641e-05
-7.71956e-05
-7.65449e-05
-7.58128e-05
-7.50001e-05
-7.41078e-05
-7.3137e-05
-7.20889e-05
-7.09647e-05
-6.97658e-05
-6.84934e-05
-6.7149e-05
-6.57341e-05
-6.42499e-05
-6.26978e-05
-6.10792e-05
-5.93953e-05
-5.7647e-05
-5.58352e-05
-5.39604e-05
-5.20243e-05
-5.00298e-05
-4.797e-05
-4.5798e-05
-4.34767e-05
-4.14288e-05
-3.63394e-05
-3.44748e-05
-3.2327e-05
-3.0267e-05
-2.82631e-05
-2.62762e-05
-2.43023e-05
-2.23463e-05
-2.04119e-05
-1.85022e-05
-1.66204e-05
-1.47701e-05
-1.29552e-05
-1.11798e-05
-9.44798e-06
-7.76407e-06
-6.13241e-06
-4.5574e-06
-3.04337e-06
-1.59466e-06
-2.15488e-07
1.09002e-06
2.31791e-06
3.46435e-06
4.52575e-06
5.49873e-06
6.38013e-06
7.16708e-06
7.85698e-06
8.44753e-06
8.93673e-06
9.3229e-06
9.60469e-06
9.78109e-06
9.85141e-06
9.81533e-06
9.67283e-06
9.42427e-06
9.07032e-06
8.61197e-06
8.05056e-06
7.38771e-06
6.62538e-06
5.76578e-06
4.81142e-06
3.76508e-06
2.62977e-06
1.40875e-06
1.05492e-07
-1.27634e-06
-2.73289e-06
-4.26014e-06
-5.85393e-06
-7.50996e-06
-9.22382e-06
-1.0991e-05
-1.2807e-05
-1.4667e-05
-1.65665e-05
-1.85008e-05
-2.0465e-05
-2.24546e-05
-2.44648e-05
-2.64909e-05
-2.85284e-05
-3.05726e-05
-3.26191e-05
-3.46634e-05
-3.67013e-05
-3.87284e-05
-4.07407e-05
-4.27341e-05
-4.47047e-05
-4.66487e-05
-4.85624e-05
-5.04424e-05
-5.22851e-05
-5.40874e-05
-5.5846e-05
-5.75579e-05
-5.92203e-05
-6.08303e-05
-6.23855e-05
-6.38832e-05
-6.53211e-05
-6.6697e-05
-6.80088e-05
-6.92544e-05
-7.0432e-05
-7.15398e-05
-7.25762e-05
-7.35395e-05
-7.44284e-05
-7.52416e-05
-7.59777e-05
-7.66356e-05
-7.72144e-05
-7.77129e-05
-7.81304e-05
-7.8466e-05
-7.87191e-05
-7.8889e-05
-7.89752e-05
-7.89773e-05
-7.88949e-05
-7.87276e-05
-7.84753e-05
-7.81378e-05
-7.77151e-05
-7.72073e-05
-7.66143e-05
-7.59363e-05
-7.51736e-05
-7.43266e-05
-7.33955e-05
-7.23807e-05
-7.12829e-05
-7.01024e-05
-6.88398e-05
-6.74957e-05
-6.60708e-05
-6.45654e-05
-6.29803e-05
-6.13159e-05
-5.95726e-05
-5.77507e-05
-5.58505e-05
-5.38719e-05
-5.18147e-05
-4.968e-05
-4.74705e-05
-4.51779e-05
-4.27486e-05
-4.01406e-05
-3.78336e-05
-4.09773e-05
-3.88749e-05
-3.6459e-05
-3.41506e-05
-3.19145e-05
-2.9706e-05
-2.75205e-05
-2.53631e-05
-2.32378e-05
-2.11474e-05
-1.90951e-05
-1.70842e-05
-1.51185e-05
-1.32018e-05
-1.1338e-05
-9.53113e-06
-7.78522e-06
-6.1044e-06
-4.4927e-06
-2.95417e-06
-1.49269e-06
-1.12105e-07
1.18395e-06
2.39196e-06
3.50864e-06
4.53091e-06
5.45594e-06
6.28116e-06
7.00426e-06
7.62324e-06
8.13641e-06
8.54237e-06
8.84008e-06
9.02879e-06
9.10812e-06
9.07801e-06
8.93872e-06
8.69088e-06
8.33543e-06
7.87362e-06
7.30703e-06
6.63755e-06
5.86737e-06
4.99894e-06
4.03501e-06
2.97856e-06
1.83283e-06
6.01279e-07
-7.12433e-07
-2.10445e-06
-3.57074e-06
-5.10713e-06
-6.70929e-06
-8.37279e-06
-1.00931e-05
-1.18656e-05
-1.36856e-05
-1.55483e-05
-1.74491e-05
-1.93832e-05
-2.13457e-05
-2.33319e-05
-2.53372e-05
-2.73568e-05
-2.9386e-05
-3.14205e-05
-3.34556e-05
-3.5487e-05
-3.75104e-05
-3.95216e-05
-4.15166e-05
-4.34914e-05
-4.54422e-05
-4.73652e-05
-4.92569e-05
-5.11139e-05
-5.29328e-05
-5.47105e-05
-5.6444e-05
-5.81303e-05
-5.97666e-05
-6.13504e-05
-6.28791e-05
-6.43503e-05
-6.57618e-05
-6.71115e-05
-6.83973e-05
-6.96173e-05
-7.07697e-05
-7.18529e-05
-7.28651e-05
-7.3805e-05
-7.46711e-05
-7.5462e-05
-7.61766e-05
-7.68136e-05
-7.7372e-05
-7.78508e-05
-7.8249e-05
-7.85656e-05
-7.88e-05
-7.89512e-05
-7.90186e-05
-7.90015e-05
-7.88993e-05
-7.87114e-05
-7.84374e-05
-7.80767e-05
-7.76289e-05
-7.70937e-05
-7.64706e-05
-7.57595e-05
-7.496e-05
-7.40718e-05
-7.30949e-05
-7.2029e-05
-7.0874e-05
-6.96297e-05
-6.82961e-05
-6.68729e-05
-6.536e-05
-6.37573e-05
-6.20646e-05
-6.02816e-05
-5.8408e-05
-5.64434e-05
-5.43873e-05
-5.22389e-05
-4.99974e-05
-4.76636e-05
-4.524e-05
-4.2717e-05
-4.00348e-05
-3.71467e-05
-3.45874e-05
-4.55237e-05
-4.31841e-05
-4.04997e-05
-3.7941e-05
-3.54689e-05
-3.30338e-05
-3.06304e-05
-2.82644e-05
-2.594e-05
-2.366e-05
-2.14277e-05
-1.92463e-05
-1.71195e-05
-1.5051e-05
-1.30447e-05
-1.11043e-05
-9.23386e-06
-7.43721e-06
-5.71823e-06
-4.08072e-06
-2.52837e-06
-1.06477e-06
3.06668e-07
1.5827e-06
2.7603e-06
3.83664e-06
4.80917e-06
5.67558e-06
6.43387e-06
7.0823e-06
7.61946e-06
8.04427e-06
8.35595e-06
8.55407e-06
8.63852e-06
8.60954e-06
8.4677e-06
8.21391e-06
7.84939e-06
7.3757e-06
6.79471e-06
6.10858e-06
5.31978e-06
4.43104e-06
3.44537e-06
2.36602e-06
1.19648e-06
-5.95425e-08
-1.39815e-06
-2.81526e-06
-4.30662e-06
-5.86785e-06
-7.49443e-06
-9.18175e-06
-1.09251e-05
-1.27197e-05
-1.45607e-05
-1.64433e-05
-1.83625e-05
-2.03136e-05
-2.22916e-05
-2.42918e-05
-2.63093e-05
-2.83394e-05
-3.03775e-05
-3.24189e-05
-3.44593e-05
-3.64942e-05
-3.85194e-05
-4.05307e-05
-4.25241e-05
-4.44956e-05
-4.64415e-05
-4.83583e-05
-5.02422e-05
-5.20901e-05
-5.38987e-05
-5.5665e-05
-5.73859e-05
-5.90587e-05
-6.06807e-05
-6.22493e-05
-6.37623e-05
-6.52173e-05
-6.6612e-05
-6.79446e-05
-6.92131e-05
-7.04155e-05
-7.15503e-05
-7.26157e-05
-7.36103e-05
-7.45325e-05
-7.53809e-05
-7.61544e-05
-7.68515e-05
-7.74711e-05
-7.80122e-05
-7.84735e-05
-7.88541e-05
-7.9153e-05
-7.93693e-05
-7.95019e-05
-7.955e-05
-7.95128e-05
-7.93893e-05
-7.91789e-05
-7.88806e-05
-7.84937e-05
-7.80175e-05
-7.74511e-05
-7.67939e-05
-7.60451e-05
-7.52039e-05
-7.42697e-05
-7.32417e-05
-7.21193e-05
-7.09016e-05
-6.95881e-05
-6.81778e-05
-6.66701e-05
-6.50642e-05
-6.33592e-05
-6.15543e-05
-5.96486e-05
-5.76412e-05
-5.55309e-05
-5.33168e-05
-5.09973e-05
-4.85713e-05
-4.6039e-05
-4.34031e-05
-4.06527e-05
-3.77221e-05
-3.45601e-05
-3.17547e-05
-4.99492e-05
-4.73714e-05
-4.44165e-05
-4.16043e-05
-3.88919e-05
-3.62249e-05
-3.35975e-05
-3.10159e-05
-2.84848e-05
-2.60071e-05
-2.35862e-05
-2.12254e-05
-1.89285e-05
-1.66991e-05
-1.45412e-05
-1.24585e-05
-1.04548e-05
-8.53407e-06
-6.69995e-06
-4.95614e-06
-3.30618e-06
-1.75349e-06
-3.01302e-07
1.04734e-06
2.28962e-06
3.42295e-06
4.44501e-06
5.35374e-06
6.1474e-06
6.82452e-06
7.38399e-06
7.82499e-06
8.14705e-06
8.35003e-06
8.43415e-06
8.39995e-06
8.24831e-06
7.98046e-06
7.59794e-06
7.10264e-06
6.49673e-06
5.78272e-06
4.96336e-06
4.04172e-06
3.02111e-06
1.90509e-06
6.97434e-07
-5.97859e-07
-1.97661e-06
-3.43445e-06
-4.9669e-06
-6.56929e-06
-8.23689e-06
-9.96485e-06
-1.17482e-05
-1.35821e-05
-1.54614e-05
-1.73811e-05
-1.93363e-05
-2.13218e-05
-2.33327e-05
-2.53641e-05
-2.7411e-05
-2.94687e-05
-3.15325e-05
-3.35978e-05
-3.56599e-05
-3.77146e-05
-3.97575e-05
-4.17846e-05
-4.37917e-05
-4.57751e-05
-4.77309e-05
-4.96556e-05
-5.15458e-05
-5.33982e-05
-5.52096e-05
-5.69771e-05
-5.86977e-05
-6.03688e-05
-6.19878e-05
-6.35522e-05
-6.50598e-05
-6.65084e-05
-6.78958e-05
-6.92201e-05
-7.04795e-05
-7.16723e-05
-7.27967e-05
-7.38512e-05
-7.48342e-05
-7.57444e-05
-7.65805e-05
-7.7341e-05
-7.80248e-05
-7.86306e-05
-7.91573e-05
-7.96038e-05
-7.99689e-05
-8.02516e-05
-8.04507e-05
-8.05653e-05
-8.05942e-05
-8.05364e-05
-8.03909e-05
-8.01566e-05
-7.98325e-05
-7.94174e-05
-7.89104e-05
-7.83102e-05
-7.76158e-05
-7.6826e-05
-7.59398e-05
-7.49559e-05
-7.38731e-05
-7.26903e-05
-7.14061e-05
-7.00193e-05
-6.85287e-05
-6.69328e-05
-6.52304e-05
-6.342e-05
-6.15001e-05
-5.94693e-05
-5.7326e-05
-5.50686e-05
-5.26956e-05
-5.02049e-05
-4.75949e-05
-4.48657e-05
-4.20198e-05
-3.90453e-05
-3.58707e-05
-3.24405e-05
-2.93945e-05
-5.42295e-05
-5.14108e-05
-4.81814e-05
-4.51111e-05
-4.21532e-05
-3.92483e-05
-3.63903e-05
-3.35862e-05
-3.08409e-05
-2.81577e-05
-2.55402e-05
-2.2992e-05
-2.05168e-05
-1.81186e-05
-1.58012e-05
-1.35686e-05
-1.14245e-05
-9.37284e-06
-7.41729e-06
-5.56146e-06
-3.80883e-06
-2.16268e-06
-6.26112e-07
7.97971e-07
2.10693e-06
3.29838e-06
4.3702e-06
5.32058e-06
6.14801e-06
6.8513e-06
7.42961e-06
7.88241e-06
8.20953e-06
8.41116e-06
8.48783e-06
8.44041e-06
8.27013e-06
7.97857e-06
7.56761e-06
7.0395e-06
6.39677e-06
5.64226e-06
4.77912e-06
3.81074e-06
2.7408e-06
1.57319e-06
3.12031e-07
-1.03834e-06
-2.47342e-06
-3.98855e-06
-5.5789e-06
-7.23955e-06
-8.96547e-06
-1.07515e-05
-1.25926e-05
-1.44834e-05
-1.64188e-05
-1.83934e-05
-2.04022e-05
-2.24398e-05
-2.45012e-05
-2.65812e-05
-2.8675e-05
-3.07775e-05
-3.28839e-05
-3.49896e-05
-3.709e-05
-3.91806e-05
-4.12572e-05
-4.33155e-05
-4.53516e-05
-4.73616e-05
-4.93418e-05
-5.12886e-05
-5.31987e-05
-5.50688e-05
-5.68958e-05
-5.86769e-05
-6.04091e-05
-6.209e-05
-6.3717e-05
-6.52877e-05
-6.67999e-05
-6.82516e-05
-6.96407e-05
-7.09654e-05
-7.22238e-05
-7.34144e-05
-7.45355e-05
-7.55856e-05
-7.65632e-05
-7.74671e-05
-7.82957e-05
-7.9048e-05
-7.97225e-05
-8.03181e-05
-8.08337e-05
-8.12679e-05
-8.16198e-05
-8.18879e-05
-8.20713e-05
-8.21688e-05
-8.2179e-05
-8.21009e-05
-8.19331e-05
-8.16744e-05
-8.13234e-05
-8.0879e-05
-8.03396e-05
-7.97039e-05
-7.89703e-05
-7.81375e-05
-7.72039e-05
-7.61678e-05
-7.50277e-05
-7.37819e-05
-7.24287e-05
-7.09663e-05
-6.93929e-05
-6.77066e-05
-6.59055e-05
-6.39878e-05
-6.19514e-05
-5.97943e-05
-5.75144e-05
-5.51096e-05
-5.25779e-05
-4.99168e-05
-4.71242e-05
-4.41999e-05
-4.11466e-05
-3.79514e-05
-3.4537e-05
-3.08437e-05
-2.75619e-05
-5.83437e-05
-5.52793e-05
-5.17697e-05
-4.84351e-05
-4.52252e-05
-4.20756e-05
-3.89799e-05
-3.59457e-05
-3.29787e-05
-3.00824e-05
-2.72606e-05
-2.45173e-05
-2.18565e-05
-1.92822e-05
-1.67985e-05
-1.44094e-05
-1.21189e-05
-9.93083e-06
-7.84895e-06
-5.87687e-06
-4.01801e-06
-2.27563e-06
-6.5272e-07
8.47936e-07
2.22384e-06
3.47277e-06
4.59281e-06
5.58236e-06
6.44016e-06
7.16528e-06
7.75715e-06
8.21554e-06
8.54062e-06
8.73289e-06
8.79322e-06
8.72286e-06
8.52341e-06
8.19679e-06
7.74532e-06
7.1716e-06
6.47857e-06
5.66947e-06
4.74785e-06
3.71749e-06
2.58246e-06
1.34706e-06
1.57853e-08
-1.40665e-06
-2.91537e-06
-4.50536e-06
-6.17143e-06
-7.90834e-06
-9.71073e-06
-1.15732e-05
-1.34902e-05
-1.54563e-05
-1.74661e-05
-1.95139e-05
-2.15945e-05
-2.37023e-05
-2.58321e-05
-2.79786e-05
-3.01366e-05
-3.23012e-05
-3.44673e-05
-3.66302e-05
-3.87853e-05
-4.0928e-05
-4.30539e-05
-4.5159e-05
-4.72391e-05
-4.92904e-05
-5.13092e-05
-5.32919e-05
-5.52353e-05
-5.71361e-05
-5.89913e-05
-6.07979e-05
-6.25534e-05
-6.42552e-05
-6.59008e-05
-6.7488e-05
-6.90146e-05
-7.04786e-05
-7.18781e-05
-7.32114e-05
-7.44767e-05
-7.56724e-05
-7.6797e-05
-7.7849e-05
-7.88271e-05
-7.973e-05
-8.05562e-05
-8.13046e-05
-8.1974e-05
-8.25631e-05
-8.30706e-05
-8.34955e-05
-8.38364e-05
-8.40921e-05
-8.42613e-05
-8.43429e-05
-8.43353e-05
-8.42374e-05
-8.40475e-05
-8.37644e-05
-8.33864e-05
-8.2912e-05
-8.23395e-05
-8.16673e-05
-8.08935e-05
-8.00164e-05
-7.9034e-05
-7.79444e-05
-7.67455e-05
-7.54353e-05
-7.40115e-05
-7.24721e-05
-7.08146e-05
-6.90368e-05
-6.71362e-05
-6.51104e-05
-6.2957e-05
-6.06734e-05
-5.82571e-05
-5.57054e-05
-5.30159e-05
-5.01857e-05
-4.72123e-05
-4.40953e-05
-4.08374e-05
-3.74247e-05
-3.37745e-05
-2.98227e-05
-2.63093e-05
-6.22731e-05
-5.89562e-05
-5.51584e-05
-5.15517e-05
-4.8082e-05
-4.46797e-05
-4.13382e-05
-3.80661e-05
-3.48694e-05
-3.17522e-05
-2.87186e-05
-2.57729e-05
-2.29195e-05
-2.01625e-05
-1.75064e-05
-1.49553e-05
-1.25134e-05
-1.01846e-05
-7.97272e-06
-5.8815e-06
-3.91436e-06
-2.0745e-06
-3.64881e-07
1.21181e-06
2.6532e-06
3.95721e-06
5.12212e-06
6.14653e-06
7.02943e-06
7.77015e-06
8.3684e-06