/*--------------------------------*- C++ -*----------------------------------*\
  =========                 |
  \\      /  F ield         | OpenFOAM: The Open Source CFD Toolbox
   \\    /   O peration     | Website:  https://openfoam.org
    \\  /    A nd           | Version:  12
     \\/     M anipulation  |
\*---------------------------------------------------------------------------*/
FoamFile
{
    format      ascii;
    class       surfaceScalarField;
    location    "7";
    object      phi;
}
// * * * * * * * * * * * * * * * * * * * * * * * * * * * * * * * * * * * * * //

dimensions      [0 3 -1 0 0 0 0];

internalField   nonuniform List<scalar> 
36180
(
-5.22942e-12
5.222e-12
-1.85486e-11
1.33163e-11
-3.67537e-11
1.82079e-11
-5.67695e-11
2.00151e-11
-7.61029e-11
1.93357e-11
-9.28154e-11
1.67122e-11
-1.05418e-10
1.26041e-11
-1.12806e-10
7.38785e-12
-1.1417e-10
1.36531e-12
-1.08946e-10
-5.22453e-12
-9.67549e-11
-1.21907e-11
-7.73683e-11
-1.9387e-11
-5.06724e-11
-2.66955e-11
-1.66498e-11
-3.4023e-11
2.46451e-11
-4.12947e-11
7.30949e-11
-4.84502e-11
1.28535e-10
-5.54403e-11
1.90759e-10
-6.22245e-11
2.59529e-10
-6.87692e-11
3.34575e-10
-7.50464e-11
4.15607e-10
-8.10325e-11
5.02315e-10
-8.67078e-11
5.9437e-10
-9.20555e-11
6.91431e-10
-9.70616e-11
7.93146e-10
-1.01714e-10
8.9915e-10
-1.06004e-10
1.00907e-09
-1.09923e-10
1.12254e-09
-1.13465e-10
1.23916e-09
-1.16625e-10
1.35856e-09
-1.194e-10
1.48035e-09
-1.21788e-10
1.60414e-09
-1.23788e-10
1.72954e-09
-1.25401e-10
1.85617e-09
-1.26629e-10
1.98364e-09
-1.27474e-10
2.11158e-09
-1.2794e-10
2.23961e-09
-1.28031e-10
2.36737e-09
-1.27754e-10
2.49448e-09
-1.27114e-10
2.6206e-09
-1.2612e-10
2.74538e-09
-1.24779e-10
2.86848e-09
-1.231e-10
2.98957e-09
-1.21094e-10
3.10834e-09
-1.1877e-10
3.22448e-09
-1.1614e-10
3.33769e-09
-1.13214e-10
3.4477e-09
-1.10005e-10
3.55423e-09
-1.06526e-10
3.65702e-09
-1.0279e-10
3.75582e-09
-9.88086e-11
3.85042e-09
-9.4597e-11
3.94059e-09
-9.01685e-11
4.02613e-09
-8.55375e-11
4.10684e-09
-8.07182e-11
4.18257e-09
-7.5725e-11
4.25314e-09
-7.05725e-11
4.31842e-09
-6.52752e-11
4.37826e-09
-5.98478e-11
4.43257e-09
-5.43047e-11
4.48123e-09
-4.86605e-11
4.52416e-09
-4.29295e-11
4.56128e-09
-3.7126e-11
4.59255e-09
-3.1264e-11
4.61791e-09
-2.53574e-11
4.63733e-09
-1.94199e-11
4.65079e-09
-1.34648e-11
4.6583e-09
-7.50532e-12
4.65985e-09
-1.55433e-12
4.65547e-09
4.37557e-12
4.6452e-09
1.02722e-11
4.62908e-09
1.61237e-11
4.60716e-09
2.19182e-11
4.57951e-09
2.76445e-11
4.54622e-09
3.32915e-11
4.50737e-09
3.88486e-11
4.46307e-09
4.43054e-11
4.41342e-09
4.96519e-11
4.35854e-09
5.48783e-11
4.29856e-09
5.9975e-11
4.23363e-09
6.4933e-11
4.16389e-09
6.97432e-11
4.08949e-09
7.43969e-11
4.0106e-09
7.88857e-11
3.9274e-09
8.32012e-11
3.84007e-09
8.73354e-11
3.74879e-09
9.12804e-11
3.65376e-09
9.50284e-11
3.55519e-09
9.85716e-11
3.45328e-09
1.01903e-10
3.34827e-09
1.05014e-10
3.24037e-09
1.07898e-10
3.12982e-09
1.10548e-10
3.01687e-09
1.12956e-10
2.90175e-09
1.15115e-10
2.78473e-09
1.17018e-10
2.66608e-09
1.18656e-10
2.54605e-09
1.20024e-10
2.42494e-09
1.21113e-10
2.30302e-09
1.21916e-10
2.1806e-09
1.22426e-10
2.05796e-09
1.22634e-10
1.93543e-09
1.22535e-10
1.81331e-09
1.22119e-10
1.69193e-09
1.2138e-10
1.57162e-09
1.20311e-10
1.45271e-09
1.18903e-10
1.33556e-09
1.17151e-10
1.22052e-09
1.15046e-10
1.10793e-09
1.12583e-10
9.98178e-10
1.09756e-10
8.91618e-10
1.06559e-10
7.8863e-10
1.02988e-10
6.89592e-10
9.90382e-11
5.94884e-10
9.4708e-11
5.04887e-10
8.99964e-11
4.19983e-10
8.49044e-11
3.40547e-10
7.94359e-11
2.66949e-10
7.35977e-11
1.99548e-10
6.74008e-11
1.38686e-10
6.08617e-11
8.46825e-11
5.40035e-11
3.78239e-11
4.68583e-11
-1.64611e-12
3.94699e-11
-3.35434e-11
3.18971e-11
-5.77622e-11
2.42186e-11
-7.43023e-11
1.65399e-11
-8.33043e-11
9.00186e-12
-8.50987e-11
1.79418e-12
-8.02548e-11
-4.84402e-12
-6.96827e-11
-1.05723e-11
-5.47155e-11
-1.49674e-11
-3.72408e-11
-1.74749e-11
-1.98542e-11
-1.73868e-11
-6.04348e-12
-1.3811e-11
-6.04351e-12
-1.0544e-11
1.5764e-11
-3.35025e-11
3.62713e-11
-6.21692e-11
4.68741e-11
-9.11617e-11
4.90059e-11
-1.15977e-10
4.41509e-11
-1.32928e-10
3.36623e-11
-1.39041e-10
1.87182e-11
-1.31972e-10
3.17422e-13
-1.09901e-10
-2.07056e-11
-7.14657e-11
-4.36602e-11
-1.568e-11
-6.79762e-11
5.81171e-11
-9.31847e-11
1.5032e-10
-1.18898e-10
2.61092e-10
-1.44796e-10
3.90408e-10
-1.7061e-10
5.38077e-10
-1.9612e-10
7.03772e-10
-2.21136e-10
8.87047e-10
-2.455e-10
1.08736e-09
-2.69079e-10
1.30407e-09
-2.91759e-10
1.53648e-09
-3.13441e-10
1.78381e-09
-3.34042e-10
2.04525e-09
-3.53492e-10
2.31992e-09
-3.7173e-10
2.6069e-09
-3.88704e-10
2.90527e-09
-4.04372e-10
3.21405e-09
-4.18698e-10
3.53223e-09
-4.31653e-10
3.85883e-09
-4.43216e-10
4.1928e-09
-4.5337e-10
4.53311e-09
-4.62103e-10
4.87873e-09
-4.69409e-10
5.22862e-09
-4.75287e-10
5.58173e-09
-4.7974e-10
5.93703e-09
-4.82775e-10
6.29349e-09
-4.84405e-10
6.6501e-09
-4.84644e-10
7.00586e-09
-4.83512e-10
7.35978e-09
-4.81031e-10
7.71089e-09
-4.77227e-10
8.05824e-09
-4.72129e-10
8.40091e-09
-4.6577e-10
8.73799e-09
-4.58183e-10
9.06863e-09
-4.49408e-10
9.39197e-09
-4.39482e-10
9.70721e-09
-4.28448e-10
1.00136e-08
-4.16351e-10
1.03103e-08
-4.03235e-10
1.05966e-08
-3.89149e-10
1.0872e-08
-3.74142e-10
1.11356e-08
-3.58263e-10
1.1387e-08
-3.41564e-10
1.16256e-08
-3.24098e-10
1.18508e-08
-3.05917e-10
1.20621e-08
-2.87074e-10
1.22592e-08
-2.67625e-10
1.24415e-08
-2.47623e-10
1.26088e-08
-2.27123e-10
1.27607e-08
-2.06179e-10
1.28969e-08
-1.84844e-10
1.30171e-08
-1.63174e-10
1.31212e-08
-1.41222e-10
1.3209e-08
-1.19039e-10
1.32803e-08
-9.66797e-11
1.33351e-08
-7.41941e-11
1.33732e-08
-5.16334e-11
1.33948e-08
-2.90473e-11
1.33997e-08
-6.48466e-12
1.33881e-08
1.60068e-11
1.336e-08
3.83803e-11
1.33155e-08
6.05901e-11
1.32548e-08
8.25919e-11
1.31781e-08
1.04342e-10
1.30856e-08
1.25798e-10
1.29776e-08
1.4692e-10
1.28542e-08
1.67667e-10
1.27158e-08
1.88e-10
1.25628e-08
2.07881e-10
1.23955e-08
2.27275e-10
1.22143e-08
2.46144e-10
1.20196e-08
2.64455e-10
1.18118e-08
2.82173e-10
1.15915e-08
2.99266e-10
1.1359e-08
3.15701e-10
1.11148e-08
3.31448e-10
1.08597e-08
3.46475e-10
1.05939e-08
3.60751e-10
1.03182e-08
3.74249e-10
1.00332e-08
3.86937e-10
9.73944e-09
3.98789e-10
9.43756e-09
4.09775e-10
9.12824e-09
4.19867e-10
8.81216e-09
4.29038e-10
8.49002e-09
4.37261e-10
8.16253e-09
4.44507e-10
7.83043e-09
4.50749e-10
7.4945e-09
4.55962e-10
7.15549e-09
4.60116e-10
6.81422e-09
4.63187e-10
6.4715e-09
4.65148e-10
6.12816e-09
4.65971e-10
5.78506e-09
4.65632e-10
5.44308e-09
4.64105e-10
5.10309e-09
4.61364e-10
4.76602e-09
4.57387e-10
4.43277e-09
4.5215e-10
4.10429e-09
4.45631e-10
3.78152e-09
4.37811e-10
3.46544e-09
4.2867e-10
3.157e-09
4.18194e-10
2.85719e-09
4.0637e-10
2.56698e-09
3.9319e-10
2.28737e-09
3.7865e-10
2.01933e-09
3.62752e-10
1.76382e-09
3.45506e-10
1.52179e-09
3.26929e-10
1.29418e-09
3.07049e-10
1.08187e-09
2.8591e-10
8.85699e-10
2.63569e-10
7.06455e-10
2.40105e-10
5.44837e-10
2.15621e-10
4.01443e-10
1.90253e-10
2.76739e-10
1.64173e-10
1.7103e-10
1.37605e-10
8.44159e-11
1.10833e-10
1.67375e-11
8.42181e-11
-3.24803e-11
5.82194e-11
-6.41046e-11
3.34183e-11
-7.94973e-11
1.05485e-11
-8.06047e-11
-9.46505e-12
-7.01044e-11
-2.54679e-11
-5.15481e-11
-3.60314e-11
-2.95252e-11
-3.94099e-11
-9.83262e-12
-3.35038e-11
-1.58762e-11
-9.95684e-12
2.5719e-11
-2.98913e-11
5.62033e-11
-5.19508e-11
6.89323e-11
-6.98802e-11
6.69336e-11
-7.84951e-11
5.27652e-11
-7.34824e-11
2.86484e-11
-5.1275e-11
-3.48948e-12
-8.97277e-12
-4.19858e-11
5.57454e-11
-8.54239e-11
1.4468e-10
-1.32596e-10
2.5918e-10
-1.82476e-10
4.00191e-10
-2.34196e-10
5.68308e-10
-2.87016e-10
7.63821e-10
-3.40309e-10
9.86748e-10
-3.93538e-10
1.23688e-09
-4.46247e-10
1.51378e-09
-4.98042e-10
1.81687e-09
-5.48586e-10
2.14538e-09
-5.97589e-10
2.49841e-09
-6.44798e-10
2.87497e-09
-6.89997e-10
3.27393e-09
-7.32999e-10
3.69408e-09
-7.73643e-10
4.13414e-09
-8.11788e-10
4.59275e-09
-8.47318e-10
5.06851e-09
-8.80131e-10
5.55996e-09
-9.10144e-10
6.06559e-09
-9.37288e-10
6.58388e-09
-9.61509e-10
7.11328e-09
-9.82765e-10
7.6522e-09
-1.00103e-09
8.19906e-09
-1.01627e-09
8.75227e-09
-1.0285e-09
9.31024e-09
-1.0377e-09
9.87137e-09
-1.0439e-09
1.04341e-08
-1.04712e-09
1.09968e-08
-1.04738e-09
1.1558e-08
-1.04472e-09
1.21162e-08
-1.03918e-09
1.26698e-08
-1.03083e-09
1.32173e-08
-1.01971e-09
1.37575e-08
-1.0059e-09
1.42888e-08
-9.89464e-10
1.48098e-08
-9.70485e-10
1.53194e-08
-9.49044e-10
1.58162e-08
-9.25229e-10
1.6299e-08
-8.99133e-10
1.67666e-08
-8.70852e-10
1.72179e-08
-8.40485e-10
1.76519e-08
-8.08137e-10
1.80676e-08
-7.73914e-10
1.84639e-08
-7.37925e-10
1.88401e-08
-7.0028e-10
1.91953e-08
-6.61092e-10
1.95287e-08
-6.20475e-10
1.98396e-08
-5.78544e-10
2.01274e-08
-5.35414e-10
2.03915e-08
-4.91203e-10
2.06313e-08
-4.46025e-10
2.08465e-08
-3.99996e-10
2.10365e-08
-3.53233e-10
2.12011e-08
-3.05849e-10
2.13401e-08
-2.57959e-10
2.14531e-08
-2.09673e-10
2.154e-08
-1.61104e-10
2.16007e-08
-1.1236e-10
2.16352e-08
-6.35489e-11
2.16435e-08
-1.47758e-11
2.16256e-08
3.38557e-11
2.15818e-08
8.22444e-11
2.15121e-08
1.30291e-10
2.14168e-08
1.779e-10
2.12961e-08
2.24976e-10
2.11505e-08
2.71427e-10
2.09803e-08
3.17163e-10
2.07858e-08
3.62098e-10
2.05677e-08
4.06147e-10
2.03263e-08
4.49227e-10
2.00624e-08
4.91257e-10
1.97763e-08
5.32159e-10
1.94689e-08
5.71858e-10
1.91408e-08
6.10279e-10
1.87927e-08
6.47349e-10
1.84254e-08
6.82999e-10
1.80397e-08
7.17159e-10
1.76364e-08
7.49763e-10
1.72165e-08
7.80744e-10
1.67807e-08
8.10037e-10
1.633e-08
8.3758e-10
1.58655e-08
8.6331e-10
1.53881e-08
8.87165e-10
1.48989e-08
9.09086e-10
1.43989e-08
9.29012e-10
1.38893e-08
9.46886e-10
1.33712e-08
9.62648e-10
1.28457e-08
9.76241e-10
1.2314e-08
9.87608e-10
1.17774e-08
9.96695e-10
1.12372e-08
1.00344e-09
1.06945e-08
1.0078e-09
1.01508e-08
1.00972e-09
9.60727e-09
1.00914e-09
9.06536e-09
1.00601e-09
8.52644e-09
1.00029e-09
7.9919e-09
9.91929e-10
7.46316e-09
9.80886e-10
6.94167e-09
9.67122e-10
6.42888e-09
9.50602e-10
5.92625e-09
9.31297e-10
5.43526e-09
9.09185e-10
4.95738e-09
8.84249e-10
4.49409e-09
8.56485e-10
4.04684e-09
8.25899e-10
3.61708e-09
7.92511e-10
3.20623e-09
7.56356e-10
2.81567e-09
7.17491e-10
2.44672e-09
6.75994e-10
2.10066e-09
6.31973e-10
1.77865e-09
5.85572e-10
1.48179e-09
5.36974e-10
1.211e-09
4.86412e-10
9.67065e-10
4.34183e-10
7.50585e-10
3.80653e-10
5.61908e-10
3.26283e-10
4.01102e-10
2.71638e-10
2.67901e-10
2.1742e-10
1.61632e-10
1.64487e-10
8.11531e-11
1.13897e-10
2.4761e-11
6.69404e-11
-9.8944e-12
2.51902e-11
-2.59184e-11
-9.44403e-12
-2.72874e-11
-3.46626e-11
-1.89922e-11
-4.77053e-11
-7.25448e-12
-4.52417e-11
-2.31307e-11
-5.82666e-12
3.15447e-11
-1.46605e-11
6.50359e-11
-1.91541e-11
7.34252e-11
-1.31809e-11
6.09593e-11
8.42221e-12
3.11615e-11
5.00135e-11
-1.29439e-11
1.1525e-10
-6.87262e-11
2.07159e-10
-1.33896e-10
3.282e-10
-2.06465e-10
4.80315e-10
-2.84711e-10
6.6498e-10
-3.67142e-10
8.83247e-10
-4.52463e-10
1.13579e-09
-5.39555e-10
1.42292e-09
-6.27444e-10
1.74467e-09
-7.15286e-10
2.10077e-09
-8.02345e-10
2.4907e-09
-8.87982e-10
2.91375e-09
-9.71636e-10
3.36899e-09
-1.05282e-09
3.8553e-09
-1.13111e-09
4.37143e-09
-1.20613e-09
4.91599e-09
-1.27756e-09
5.48745e-09
-1.34511e-09
6.08421e-09
-1.40854e-09
6.70453e-09
-1.46764e-09
7.34663e-09
-1.52223e-09
8.00864e-09
-1.57216e-09
8.68865e-09
-1.6173e-09
9.38469e-09
-1.65755e-09
1.00948e-08
-1.69283e-09
1.08168e-08
-1.72309e-09
1.15488e-08
-1.74829e-09
1.22887e-08
-1.7684e-09
1.30345e-08
-1.78343e-09
1.37839e-08
-1.79338e-09
1.45351e-08
-1.7983e-09
1.5286e-08
-1.79822e-09
1.60344e-08
-1.7932e-09
1.67786e-08
-1.78332e-09
1.75164e-08
-1.76867e-09
1.8246e-08
-1.74933e-09
1.89656e-08
-1.72542e-09
1.96732e-08
-1.69707e-09
2.03671e-08
-1.66439e-09
2.10456e-08
-1.62752e-09
2.1707e-08
-1.58662e-09
2.23497e-08
-1.54184e-09
2.29721e-08
-1.49334e-09
2.35729e-08
-1.44128e-09
2.41507e-08
-1.38585e-09
2.4704e-08
-1.32721e-09
2.52316e-08
-1.26556e-09
2.57324e-08
-1.20108e-09
2.62053e-08
-1.13396e-09
2.66492e-08
-1.06439e-09
2.70632e-08
-9.92566e-10
2.74465e-08
-9.18688e-10
2.77982e-08
-8.42949e-10
2.81177e-08
-7.65548e-10
2.84044e-08
-6.8668e-10
2.86577e-08
-6.06542e-10
2.88772e-08
-5.25328e-10
2.90625e-08
-4.43232e-10
2.92132e-08
-3.60446e-10
2.93293e-08
-2.77158e-10
2.94105e-08
-1.93555e-10
2.94568e-08
-1.0982e-10
2.94681e-08
-2.61352e-11
2.94447e-08
5.73234e-11
2.93865e-08
1.40382e-10
2.92939e-08
2.2287e-10
2.91672e-08
3.04623e-10
2.90067e-08
3.85476e-10
2.88129e-08
4.65272e-10
2.85862e-08
5.43857e-10
2.83272e-08
6.21079e-10
2.80365e-08
6.96793e-10
2.77149e-08
7.70855e-10
2.7363e-08
8.43126e-10
2.69817e-08
9.13471e-10
2.65718e-08
9.81758e-10
2.61343e-08
1.04786e-09
2.567e-08
1.11165e-09
2.518e-08
1.173e-09
2.46653e-08
1.23181e-09
2.41271e-08
1.28794e-09
2.35666e-08
1.34129e-09
2.29849e-08
1.39175e-09
2.23832e-08
1.43921e-09
2.1763e-08
1.48355e-09
2.11255e-08
1.52469e-09
2.04721e-08
1.5625e-09
1.98042e-08
1.59689e-09
1.91233e-08
1.62777e-09
1.84309e-08
1.65503e-09
1.77286e-08
1.67858e-09
1.70179e-08
1.69832e-09
1.63004e-08
1.71416e-09
1.55778e-08
1.72601e-09
1.48519e-08
1.73378e-09
1.41242e-08
1.73739e-09
1.33966e-08
1.73675e-09
1.26708e-08
1.73179e-09
1.19487e-08
1.72243e-09
1.1232e-08
1.7086e-09
1.05226e-08
1.69024e-09
9.82248e-09
1.66729e-09
9.13337e-09
1.63971e-09
8.45722e-09
1.60745e-09
7.79589e-09
1.57051e-09
7.15129e-09
1.52885e-09
6.52528e-09
1.4825e-09
5.91971e-09
1.43147e-09
5.33639e-09
1.37583e-09
4.7771e-09
1.31565e-09
4.24355e-09
1.25104e-09
3.73739e-09
1.18215e-09
3.26017e-09
1.1092e-09
2.81332e-09
1.03242e-09
2.39814e-09
9.52151e-10
2.01577e-09
8.68781e-10
1.66715e-09
7.82805e-10
1.35298e-09
6.94821e-10
1.0737e-09
6.0556e-10
8.29438e-10
5.15904e-10
6.19939e-10
4.26918e-10
4.44545e-10
3.39881e-10
3.02116e-10
2.56326e-10
1.90971e-10
1.78085e-10
1.08821e-10
1.0734e-10
5.26955e-11
4.66811e-11
1.88554e-11
-8.22762e-13
2.71832e-12
-3.15684e-11
-1.30992e-12
-4.12137e-11
-2.44406e-11
-5.61926e-14
3.16006e-11
6.66093e-12
5.83182e-11
2.63083e-11
5.37776e-11
6.42566e-11
2.30104e-11
1.25162e-10
-2.97442e-11
2.13031e-10
-1.00814e-10
3.31275e-10
-1.86971e-10
4.82751e-10
-2.85372e-10
6.69801e-10
-3.93515e-10
8.94286e-10
-5.09197e-10
1.15762e-09
-6.30479e-10
1.46081e-09
-7.55652e-10
1.80447e-09
-8.83213e-10
2.18886e-09
-1.01184e-09
2.61393e-09
-1.14035e-09
3.07931e-09
-1.26773e-09
3.58438e-09
-1.39305e-09
4.12827e-09
-1.51552e-09
4.70987e-09
-1.63442e-09
5.32789e-09
-1.74913e-09
5.98086e-09
-1.8591e-09
6.66712e-09
-1.96382e-09
7.38491e-09
-2.06289e-09
8.13229e-09
-2.15593e-09
8.90726e-09
-2.24261e-09
9.70768e-09
-2.32265e-09
1.05314e-08
-2.39583e-09
1.1376e-08
-2.46195e-09
1.22393e-08
-2.52084e-09
1.31188e-08
-2.57238e-09
1.40122e-08
-2.61647e-09
1.4917e-08
-2.65305e-09
1.58306e-08
-2.68207e-09
1.67508e-08
-2.70354e-09
1.76749e-08
-2.71747e-09
1.86004e-08
-2.72389e-09
1.95251e-08
-2.72286e-09
2.04464e-08
-2.71448e-09
2.13619e-08
-2.69884e-09
2.22693e-08
-2.67607e-09
2.31663e-08
-2.6463e-09
2.40506e-08
-2.60971e-09
2.49199e-08
-2.56645e-09
2.57723e-08
-2.51673e-09
2.66055e-08
-2.46075e-09
2.74176e-08
-2.39871e-09
2.82066e-08
-2.33086e-09
2.89707e-08
-2.25742e-09
2.97081e-08
-2.17865e-09
3.0417e-08
-2.09481e-09
3.1096e-08
-2.00616e-09
3.17434e-08
-1.91298e-09
3.23579e-08
-1.81554e-09
3.2938e-08
-1.71412e-09
3.34827e-08
-1.60902e-09
3.39906e-08
-1.50052e-09
3.44608e-08
-1.38891e-09
3.48924e-08
-1.2745e-09
3.52844e-08
-1.15757e-09
3.56361e-08
-1.03841e-09
3.59469e-08
-9.17333e-10
3.62162e-08
-7.94618e-10
3.64435e-08
-6.70556e-10
3.66285e-08
-5.45437e-10
3.67709e-08
-4.19545e-10
3.68705e-08
-2.93159e-10
3.69273e-08
-1.66557e-10
3.69411e-08
-4.00115e-11
3.69122e-08
8.62115e-11
3.68408e-08
2.11849e-10
3.6727e-08
3.36645e-10
3.65713e-08
4.60346e-10
3.6374e-08
5.82709e-10
3.61358e-08
7.03492e-10
3.58572e-08
8.22461e-10
3.55389e-08
9.39389e-10
3.51816e-08
1.05405e-09
3.47863e-08
1.16623e-09
3.43537e-08
1.27572e-09
3.38848e-08
1.38231e-09
3.33808e-08
1.4858e-09
3.28426e-08
1.586e-09
3.22716e-08
1.68271e-09
3.16688e-08
1.77576e-09
3.10357e-08
1.86495e-09
3.03735e-08
1.95011e-09
2.96837e-08
2.03108e-09
2.89678e-08
2.10768e-09
2.82273e-08
2.17975e-09
2.74637e-08
2.24712e-09
2.66787e-08
2.30964e-09
2.58741e-08
2.36716e-09
2.50515e-08
2.41952e-09
2.42126e-08
2.46657e-09
2.33595e-08
2.50818e-09
2.24939e-08
2.54419e-09
2.16177e-08
2.57448e-09
2.0733e-08
2.5989e-09
1.98417e-08
2.61732e-09
1.89458e-08
2.62962e-09
1.80475e-08
2.63568e-09
1.71489e-08
2.63538e-09
1.62521e-08
2.62862e-09
1.53592e-08
2.61528e-09
1.44725e-08
2.59528e-09
1.35942e-08
2.56853e-09
1.27265e-08
2.53497e-09
1.18717e-08
2.49454e-09
1.1032e-08
2.44719e-09
1.02096e-08
2.39291e-09
9.40671e-09
2.33171e-09
8.62561e-09
2.2636e-09
7.86843e-09
2.18865e-09
7.1373e-09
2.10696e-09
6.43428e-09
2.01866e-09
5.76138e-09
1.92394e-09
5.12049e-09
1.82304e-09
4.51341e-09
1.71628e-09
3.9418e-09
1.60403e-09
3.40717e-09
1.48678e-09
2.91085e-09
1.3651e-09
2.45394e-09
1.23971e-09
2.03733e-09
1.11143e-09
1.6616e-09
9.81288e-10
1.32704e-09
8.5047e-10
1.03356e-09
7.20398e-10
7.80693e-10
5.92746e-10
5.67535e-10
4.69484e-10
3.92697e-10
3.52923e-10
2.5427e-10
2.45767e-10
1.49783e-10
1.51168e-10
7.61688e-11
7.27914e-11
2.97053e-11
1.48949e-11
6.00905e-12
-1.75176e-11
-1.84316e-11
6.44199e-12
2.51586e-11
3.09327e-11
3.38271e-11
7.82895e-11
6.4209e-12
1.52878e-10
-5.15787e-11
2.5859e-10
-1.35456e-10
3.98837e-10
-2.41061e-10
5.76563e-10
-3.64697e-10
7.94253e-10
-5.03062e-10
1.05395e-09
-6.5321e-10
1.35726e-09
-8.12513e-10
1.70541e-09
-9.78624e-10
2.0992e-09
-1.14945e-09
2.5391e-09
-1.32311e-09
3.02522e-09
-1.49795e-09
3.55734e-09
-1.67247e-09
4.13495e-09
-1.84534e-09
4.75726e-09
-2.01536e-09
5.42323e-09
-2.18149e-09
6.13156e-09
-2.34276e-09
6.88076e-09
-2.49834e-09
7.66914e-09
-2.64747e-09
8.49481e-09
-2.78949e-09
9.35574e-09
-2.92383e-09
1.02498e-08
-3.04995e-09
1.11746e-08
-3.16741e-09
1.21277e-08
-3.27582e-09
1.31068e-08
-3.37486e-09
1.4109e-08
-3.46423e-09
1.51319e-08
-3.54371e-09
1.61727e-08
-3.61312e-09
1.72285e-08
-3.67232e-09
1.82967e-08
-3.72121e-09
1.93743e-08
-3.75973e-09
2.04586e-08
-3.78785e-09
2.15468e-08
-3.8056e-09
2.26359e-08
-3.81302e-09
2.37232e-08
-3.81019e-09
2.4806e-08
-3.79722e-09
2.58814e-08
-3.77424e-09
2.69467e-08
-3.74142e-09
2.79994e-08
-3.69896e-09
2.90367e-08
-3.64706e-09
3.00562e-08
-3.58596e-09
3.10554e-08
-3.51593e-09
3.20319e-08
-3.43723e-09
3.29834e-08
-3.35017e-09
3.39076e-08
-3.25506e-09
3.48024e-08
-3.15222e-09
3.56657e-08
-3.04199e-09
3.64956e-08
-2.92474e-09
3.72903e-08
-2.80082e-09
3.80479e-08
-2.67061e-09
3.87669e-08
-2.53449e-09
3.94456e-08
-2.39285e-09
4.00826e-08
-2.24609e-09
4.06767e-08
-2.0946e-09
4.12266e-08
-1.9388e-09
4.17312e-08
-1.77908e-09
4.21895e-08
-1.61586e-09
4.26006e-08
-1.44954e-09
4.29638e-08
-1.28053e-09
4.32784e-08
-1.10923e-09
4.35439e-08
-9.36037e-10
4.37598e-08
-7.61362e-10
4.39259e-08
-5.85594e-10
4.40418e-08
-4.09122e-10
4.41076e-08
-2.32331e-10
4.41232e-08
-5.56001e-11
4.40887e-08
1.207e-10
4.40044e-08
2.96204e-10
4.38705e-08
4.70554e-10
4.36874e-08
6.43398e-10
4.34557e-08
8.14396e-10
4.3176e-08
9.8321e-10
4.28489e-08
1.14951e-09
4.24753e-08
1.31299e-09
4.20561e-08
1.47332e-09
4.15921e-08
1.63022e-09
4.10844e-08
1.78337e-09
4.05343e-08
1.93249e-09
3.99428e-08
2.07731e-09
3.93112e-08
2.21754e-09
3.8641e-08
2.35293e-09
3.79336e-08
2.48321e-09
3.71904e-08
2.60813e-09
3.6413e-08
2.72745e-09
3.56032e-08
2.84092e-09
3.47626e-08
2.94831e-09
3.38929e-08
3.04939e-09
3.29961e-08
3.14393e-09
3.2074e-08
3.23173e-09
3.11286e-08
3.31256e-09
3.01619e-08
3.38622e-09
2.9176e-08
3.4525e-09
2.8173e-08
3.51121e-09
2.7155e-08
3.56215e-09
2.61244e-08
3.60514e-09
2.50833e-08
3.63999e-09
2.40341e-08
3.66654e-09
2.29791e-08
3.6846e-09
2.19207e-08
3.69403e-09
2.08615e-08
3.69467e-09
1.98037e-08
3.68638e-09
1.87499e-08
3.66904e-09
1.77027e-08
3.64252e-09
1.66645e-08
3.60672e-09
1.56379e-08
3.56157e-09
1.46254e-08
3.507e-09
1.36296e-08
3.44298e-09
1.26531e-08
3.36949e-09
1.16982e-08
3.28655e-09
1.07676e-08
3.19422e-09
9.86365e-09
3.09261e-09
8.98875e-09
2.98186e-09
8.14523e-09
2.86218e-09
7.33535e-09
2.73382e-09
6.56124e-09
2.59715e-09
5.82494e-09
2.45258e-09
5.12832e-09
2.30065e-09
4.47312e-09
2.14198e-09
3.86089e-09
1.97734e-09
3.29294e-09
1.80765e-09
2.77039e-09
1.63398e-09
2.29406e-09
1.45762e-09
1.8645e-09
1.28003e-09
1.48191e-09
1.10298e-09
1.14619e-09
9.28474e-10
8.5681e-10
7.58861e-10
6.12884e-10
5.9685e-10
4.1309e-10
4.4556e-10
2.55682e-10
3.08576e-10
1.38476e-10
1.89997e-10
5.88614e-11
9.45093e-11
1.38216e-11
2.7522e-11
-4.61e-12
1.31744e-11
1.19842e-11
5.63667e-11
-9.36529e-12
1.33125e-10
-7.0337e-11
2.46774e-10
-1.65228e-10
4.00346e-10
-2.89028e-10
5.96542e-10
-4.37257e-10
8.37712e-10
-6.05867e-10
1.12584e-09
-7.91191e-10
1.46255e-09
-9.89917e-10
1.84908e-09
-1.19905e-09
2.28634e-09
-1.41588e-09
2.77485e-09
-1.63796e-09
3.31483e-09
-1.86309e-09
3.90614e-09
-2.08926e-09
4.54836e-09
-2.31469e-09
5.24074e-09
-2.53773e-09
5.9823e-09
-2.75692e-09
6.77177e-09
-2.97096e-09
7.60765e-09
-3.17864e-09
8.48822e-09
-3.3789e-09
9.41154e-09
-3.57079e-09
1.03755e-08
-3.75346e-09
1.13778e-08
-3.92615e-09
1.24161e-08
-4.0882e-09
1.34877e-08
-4.23901e-09
1.45899e-08
-4.37809e-09
1.57201e-08
-4.50498e-09
1.68752e-08
-4.61933e-09
1.80523e-08
-4.72082e-09
1.92484e-08
-4.80921e-09
2.04604e-08
-4.88432e-09
2.16852e-08
-4.94599e-09
2.29196e-08
-4.99416e-09
2.41605e-08
-5.02879e-09
2.54048e-08
-5.04988e-09
2.66493e-08
-5.05749e-09
2.78908e-08
-5.05173e-09
2.91263e-08
-5.03272e-09
3.03527e-08
-5.00064e-09
3.1567e-08
-4.95571e-09
3.27662e-08
-4.89817e-09
3.39474e-08
-4.82829e-09
3.51078e-08
-4.74638e-09
3.62447e-08
-4.65277e-09
3.73553e-08
-4.54782e-09
3.8437e-08
-4.43192e-09
3.94874e-08
-4.30547e-09
4.05041e-08
-4.1689e-09
4.14848e-08
-4.02265e-09
4.24272e-08
-3.86718e-09
4.33294e-08
-3.70297e-09
4.41893e-08
-3.5305e-09
4.50051e-08
-3.35028e-09
4.5775e-08
-3.16281e-09
4.64975e-08
-2.96861e-09
4.71711e-08
-2.7682e-09
4.77945e-08
-2.56212e-09
4.83663e-08
-2.35088e-09
4.88854e-08
-2.13503e-09
4.9351e-08
-1.9151e-09
4.97621e-08
-1.69161e-09
5.01179e-08
-1.46511e-09
5.0418e-08
-1.23611e-09
5.06618e-08
-1.00514e-09
5.08489e-08
-7.72726e-10
5.09792e-08
-5.39368e-10
5.10524e-08
-3.05575e-10
5.10687e-08
-7.18453e-11
5.1028e-08
1.61332e-10
5.09308e-08
3.93476e-10
5.07772e-08
6.24115e-10
5.05678e-08
8.52787e-10
5.03032e-08
1.07904e-09
4.99839e-08
1.30243e-09
4.96109e-08
1.52253e-09
4.9185e-08
1.73891e-09
4.87072e-08
1.95117e-09
4.81785e-08
2.1589e-09
4.76001e-08
2.36171e-09
4.69734e-08
2.55923e-09
4.62996e-08
2.75107e-09
4.55803e-08
2.93688e-09
4.48169e-08
3.11632e-09
4.40111e-08
3.28902e-09
4.31645e-08
3.45467e-09
4.2279e-08
3.61294e-09
4.13565e-08
3.76351e-09
4.03987e-08
3.90607e-09
3.94078e-08
4.04032e-09
3.83857e-08
4.16597e-09
3.73347e-08
4.28273e-09
3.6257e-08
4.39032e-09
3.51547e-08
4.48848e-09
3.40302e-08
4.57695e-09
3.2886e-08
4.65545e-09
3.17244e-08
4.72375e-09
3.05479e-08
4.78161e-09
2.93591e-08
4.82879e-09
2.81606e-08
4.86508e-09
2.69549e-08
4.89026e-09
2.57448e-08
4.90413e-09
2.4533e-08
4.90651e-09
2.33222e-08
4.89722e-09
2.21151e-08
4.8761e-09
2.09146e-08
4.84302e-09
1.97234e-08
4.79787e-09
1.85445e-08
4.74055e-09
1.73805e-08
4.67099e-09
1.62343e-08
4.58916e-09
1.51087e-08
4.49507e-09
1.40065e-08
4.38875e-09
1.29304e-08
4.2703e-09
1.18832e-08
4.13987e-09
1.08674e-08
3.99766e-09
9.88561e-09
3.84394e-09
8.94037e-09
3.67907e-09
8.03402e-09
3.5035e-09
7.16885e-09
3.31776e-09
6.34697e-09
3.12252e-09
5.57036e-09
2.91858e-09
4.84082e-09
2.70688e-09
4.15996e-09
2.48852e-09
3.52915e-09
2.26479e-09
2.94955e-09
2.03722e-09
2.42205e-09
1.80754e-09
1.94726e-09
1.57776e-09
1.52552e-09
1.35022e-09
1.15684e-09
1.12754e-09
8.4094e-10
9.12752e-10
5.7721e-10
7.09291e-10
3.64742e-10
5.21043e-10
2.02339e-10
3.524e-10
8.85418e-11
2.08306e-10
2.16884e-11
9.43752e-11
1.70783e-11
1.98905e-11
-7.90624e-12
8.19891e-11
-7.1464e-11
1.88728e-10
-1.77076e-10
3.42454e-10
-3.18954e-10
5.45346e-10
-4.9192e-10
7.99365e-10
-6.91276e-10
1.10621e-09
-9.12714e-10
1.46731e-09
-1.15229e-09
1.88377e-09
-1.40638e-09
2.35641e-09
-1.67169e-09
2.88572e-09
-1.94519e-09
3.47189e-09
-2.22413e-09
4.11478e-09
-2.50599e-09
4.81398e-09
-2.78847e-09
5.56877e-09
-3.06947e-09
6.37814e-09
-3.3471e-09
7.24084e-09
-3.61962e-09
8.15535e-09
-3.88546e-09
9.11991e-09
-4.1432e-09
1.01326e-08
-4.39154e-09
1.11911e-08
-4.62933e-09
1.22932e-08
-4.85553e-09
1.34362e-08
-5.06921e-09
1.46176e-08
-5.26954e-09
1.58343e-08
-5.4558e-09
1.70836e-08
-5.62735e-09
1.83623e-08
-5.78365e-09
1.96672e-08
-5.92423e-09
2.09951e-08
-6.04871e-09
2.23426e-08
-6.15676e-09
2.37064e-08
-6.24816e-09
2.50832e-08
-6.32272e-09
2.64693e-08
-6.38034e-09
2.78615e-08
-6.42096e-09
2.92562e-08
-6.4446e-09
3.06501e-08
-6.45133e-09
3.20396e-08
-6.44125e-09
3.34214e-08
-6.41454e-09
3.47922e-08
-6.37141e-09
3.61486e-08
-6.31212e-09
3.74874e-08
-6.23698e-09
3.88054e-08
-6.14633e-09
4.00996e-08
-6.04055e-09
4.13669e-08
-5.92006e-09
4.26044e-08
-5.7853e-09
4.38092e-08
-5.63676e-09
4.49787e-08
-5.47494e-09
4.61102e-08
-5.30038e-09
4.72012e-08
-5.11363e-09
4.82492e-08
-4.91527e-09
4.92522e-08
-4.70589e-09
5.02078e-08
-4.48611e-09
5.11141e-08
-4.25656e-09
5.19691e-08
-4.01787e-09
5.27712e-08
-3.77069e-09
5.35187e-08
-3.51569e-09
5.42101e-08
-3.25351e-09
5.4844e-08
-2.98484e-09
5.54194e-08
-2.71034e-09
5.59349e-08
-2.43069e-09
5.63899e-08
-2.14654e-09
5.67834e-08
-1.85858e-09
5.71147e-08
-1.56747e-09
5.73834e-08
-1.27386e-09
5.75891e-08
-9.7841e-10
5.77315e-08
-6.81766e-10
5.78105e-08
-3.84565e-10
5.78261e-08
-8.74369e-11
5.77784e-08
2.09001e-10
5.76678e-08
5.04141e-10
5.74945e-08
7.97386e-10
5.72591e-08
1.08815e-09
5.69623e-08
1.37587e-09
5.66048e-08
1.65997e-09
5.61874e-08
1.93991e-09
5.57111e-08
2.21516e-09
5.51771e-08
2.4852e-09
5.45865e-08
2.74951e-09
5.39406e-08
3.00761e-09
5.32408e-08
3.259e-09
5.24887e-08
3.50323e-09
5.16857e-08
3.73983e-09
5.08337e-08
3.96835e-09
4.99343e-08
4.18837e-09
4.89895e-08
4.39946e-09
4.80013e-08
4.60121e-09
4.69716e-08
4.79322e-09
4.59025e-08
4.97511e-09
4.47963e-08
5.14648e-09
4.36553e-08
5.30699e-09
4.24818e-08
5.45625e-09
4.12782e-08
5.59394e-09
4.0047e-08
5.7197e-09
3.87907e-08
5.83322e-09
3.7512e-08
5.93417e-09
3.62135e-08
6.02224e-09
3.4898e-08
6.09714e-09
3.35682e-08
6.15859e-09
3.22269e-08
6.20632e-09
3.08771e-08
6.24007e-09
2.95217e-08
6.25959e-09
2.81635e-08
6.26466e-09
2.68056e-08
6.25509e-09
2.54511e-08
6.23067e-09
2.41028e-08
6.19127e-09
2.27639e-08
6.13673e-09
2.14375e-08
6.06697e-09
2.01266e-08
5.98191e-09
1.88342e-08
5.88152e-09
1.75635e-08
5.76583e-09
1.63173e-08
5.6349e-09
1.50988e-08
5.48886e-09
1.39107e-08
5.3279e-09
1.27561e-08
5.15227e-09
1.16377e-08
4.96233e-09
1.05583e-08
4.75851e-09
9.52045e-09
4.54134e-09
8.52671e-09
4.3115e-09
7.57947e-09
4.06976e-09
6.68098e-09
3.81707e-09
5.83334e-09
3.55452e-09
5.03847e-09
3.28338e-09
4.2981e-09
3.00516e-09
3.61376e-09
2.72156e-09
2.98677e-09
2.43453e-09
2.4182e-09
2.14633e-09
1.90892e-09
1.85949e-09
1.45956e-09
1.5769e-09
1.07051e-09
1.30181e-09
7.41927e-10
1.03787e-09
4.73794e-10
7.89176e-10
2.65901e-10
5.60294e-10
1.17908e-10
3.56299e-10
2.94046e-11
1.82878e-10
4.64829e-11
2.64722e-11
-3.43784e-11
1.07307e-10
-1.52299e-10
2.43989e-10
-3.13758e-10
4.37991e-10
-5.12955e-10
6.90697e-10
-7.44626e-10
1.00335e-09
-1.00393e-09
1.37699e-09
-1.28636e-09
1.81245e-09
-1.58775e-09
2.31032e-09
-1.90425e-09
2.87091e-09
-2.23228e-09
3.49429e-09
-2.56856e-09
4.18021e-09
-2.91005e-09
4.92818e-09
-3.25396e-09
5.73741e-09
-3.5977e-09
6.60685e-09
-3.93892e-09
7.53519e-09
-4.27544e-09
8.52085e-09
-4.60529e-09
9.56203e-09
-4.92664e-09
1.06567e-08
-5.23785e-09
1.18025e-08
-5.5374e-09
1.29972e-08
-5.82394e-09
1.42379e-08
-6.09625e-09
1.55219e-08
-6.35321e-09
1.68462e-08
-6.59385e-09
1.82077e-08
-6.81729e-09
1.96031e-08
-7.02279e-09
2.10291e-08
-7.20967e-09
2.24823e-08
-7.37738e-09
2.3959e-08
-7.52545e-09
2.54558e-08
-7.6535e-09
2.69688e-08
-7.76124e-09
2.84946e-08
-7.84845e-09
3.00292e-08
-7.915e-09
3.15691e-08
-7.96083e-09
3.31104e-08
-7.98594e-09
3.46495e-08
-7.99041e-09
3.61827e-08
-7.97439e-09
3.77062e-08
-7.93808e-09
3.92165e-08
-7.88173e-09
4.07101e-08
-7.80566e-09
4.21834e-08
-7.71025e-09
4.36329e-08
-7.5959e-09
4.50555e-08
-7.46309e-09
4.64477e-08
-7.31231e-09
4.78065e-08
-7.14411e-09
4.91288e-08
-6.95908e-09
5.04117e-08
-6.75783e-09
5.16524e-08
-6.54102e-09
5.28481e-08
-6.30932e-09
5.39962e-08
-6.06344e-09
5.50944e-08
-5.8041e-09
5.61404e-08
-5.53205e-09
5.71319e-08
-5.24805e-09
5.80669e-08
-4.95288e-09
5.89435e-08
-4.64735e-09
5.97601e-08
-4.33224e-09
6.05149e-08
-4.00837e-09
6.12066e-08
-3.67656e-09
6.18339e-08
-3.33761e-09
6.23956e-08
-2.99237e-09
6.28907e-08
-2.64164e-09
6.33183e-08
-2.28623e-09
6.36778e-08
-1.92698e-09
6.39687e-08
-1.56467e-09
6.41904e-08
-1.20011e-09
6.43427e-08
-8.34097e-10
6.44255e-08
-4.67404e-10
6.44389e-08
-1.00804e-10
6.4383e-08
2.64947e-10
6.4258e-08
6.29102e-10
6.40644e-08
9.90931e-10
6.38029e-08
1.34972e-09
6.3474e-08
1.70476e-09
6.30786e-08
2.05536e-09
6.26176e-08
2.40087e-09
6.20922e-08
2.74061e-09
6.15034e-08
3.07396e-09
6.08527e-08
3.40028e-09
6.01413e-08
3.71897e-09
5.93709e-08
4.02943e-09
5.8543e-08
4.3311e-09
5.76594e-08
4.62341e-09
5.6722e-08
4.9058e-09
5.57326e-08
5.17776e-09
5.46933e-08
5.43877e-09
5.36062e-08
5.68831e-09
5.24735e-08
5.9259e-09
5.12975e-08
6.15108e-09
5.00806e-08
6.36336e-09
4.88253e-08
6.56231e-09
4.75341e-08
6.74749e-09
4.62095e-08
6.91848e-09
4.48544e-08
7.07486e-09
4.34713e-08
7.21624e-09
4.20633e-08
7.34224e-09
4.0633e-08
7.45249e-09
3.91835e-08
7.54662e-09
3.77178e-08
7.62431e-09
3.62389e-08
7.68524e-09
3.47499e-08
7.72909e-09
3.32539e-08
7.75558e-09
3.17541e-08
7.76445e-09
3.02537e-08
7.75547e-09
2.8756e-08
7.72841e-09
2.72642e-08
7.6831e-09
2.57815e-08
7.61939e-09
2.43113e-08
7.53717e-09
2.28568e-08
7.43637e-09
2.14214e-08
7.31696e-09
2.00082e-08
7.17898e-09
1.86206e-08
7.02251e-09
1.72618e-08
6.84772e-09
1.59349e-08
6.65483e-09
1.4643e-08
6.44416e-09
1.33892e-08
6.21611e-09
1.21765e-08
5.9712e-09
1.10078e-08
5.71006e-09
9.88583e-09
5.43344e-09
8.81335e-09
5.14225e-09
7.79289e-09
4.83753e-09
6.82687e-09
4.52053e-09
5.91759e-09
4.19267e-09
5.06715e-09
3.8556e-09
4.27753e-09
3.51118e-09
3.55049e-09
3.16157e-09
2.88766e-09
2.80916e-09
2.29048e-09
2.45668e-09
1.7602e-09
2.10718e-09
1.29793e-09
1.76408e-09