/*--------------------------------*- C++ -*----------------------------------*\
  =========                 |
  \\      /  F ield         | OpenFOAM: The Open Source CFD Toolbox
   \\    /   O peration     | Website:  https://openfoam.org
    \\  /    A nd           | Version:  12
     \\/     M anipulation  |
\*---------------------------------------------------------------------------*/
FoamFile
{
    format      ascii;
    class       volVectorField;
    location    "7";
    object      U;
}
// * * * * * * * * * * * * * * * * * * * * * * * * * * * * * * * * * * * * * //

dimensions      [0 1 -1 0 0 0 0];

internalField   nonuniform List<vector> 
18225
(
(-9.80167e-08 2.07376e-07 0)
(-7.45711e-07 5.17781e-07 0)
(-1.82039e-06 7.1333e-07 0)
(-3.14653e-06 8.04207e-07 0)
(-4.51076e-06 8.17959e-07 0)
(-5.75485e-06 7.7533e-07 0)
(-6.76468e-06 6.92649e-07 0)
(-7.45457e-06 5.82778e-07 0)
(-7.7611e-06 4.55461e-07 0)
(-7.63864e-06 3.17704e-07 0)
(-7.05602e-06 1.745e-07 0)
(-5.99327e-06 2.93871e-08 0)
(-4.43931e-06 -1.15128e-07 0)
(-2.39e-06 -2.57308e-07 0)
(1.53144e-07 -3.95917e-07 0)
(3.18412e-06 -5.30097e-07 0)
(6.69326e-06 -6.59229e-07 0)
(1.06679e-05 -7.82877e-07 0)
(1.50929e-05 -9.00717e-07 0)
(1.99512e-05 -1.01252e-06 0)
(2.52236e-05 -1.11811e-06 0)
(3.089e-05 -1.21737e-06 0)
(3.69286e-05 -1.31019e-06 0)
(4.3317e-05 -1.39651e-06 0)
(5.00314e-05 -1.47628e-06 0)
(5.70479e-05 -1.54947e-06 0)
(6.43415e-05 -1.61606e-06 0)
(7.18871e-05 -1.67606e-06 0)
(7.96588e-05 -1.72946e-06 0)
(8.7631e-05 -1.77631e-06 0)
(9.57774e-05 -1.81663e-06 0)
(0.000104072 -1.85047e-06 0)
(0.000112488 -1.87791e-06 0)
(0.000121001 -1.89901e-06 0)
(0.000129583 -1.91386e-06 0)
(0.000138209 -1.92256e-06 0)
(0.000146854 -1.92522e-06 0)
(0.000155493 -1.92197e-06 0)
(0.000164101 -1.91294e-06 0)
(0.000172653 -1.89827e-06 0)
(0.000181127 -1.87813e-06 0)
(0.000189498 -1.85268e-06 0)
(0.000197745 -1.82209e-06 0)
(0.000205845 -1.78655e-06 0)
(0.000213779 -1.74624e-06 0)
(0.000221524 -1.70138e-06 0)
(0.000229062 -1.65217e-06 0)
(0.000236375 -1.59882e-06 0)
(0.000243443 -1.54155e-06 0)
(0.000250251 -1.48057e-06 0)
(0.000256782 -1.41613e-06 0)
(0.000263021 -1.34844e-06 0)
(0.000268955 -1.27775e-06 0)
(0.000274569 -1.20427e-06 0)
(0.000279852 -1.12825e-06 0)
(0.000284792 -1.04993e-06 0)
(0.000289379 -9.69521e-07 0)
(0.000293604 -8.87271e-07 0)
(0.000297458 -8.03405e-07 0)
(0.000300935 -7.18151e-07 0)
(0.000304027 -6.31732e-07 0)
(0.00030673 -5.44369e-07 0)
(0.000309039 -4.56277e-07 0)
(0.000310951 -3.67669e-07 0)
(0.000312462 -2.78751e-07 0)
(0.000313572 -1.89723e-07 0)
(0.00031428 -1.00782e-07 0)
(0.000314586 -1.21156e-08 0)
(0.00031449 7.60644e-08 0)
(0.000313995 1.63621e-07 0)
(0.000313103 2.5038e-07 0)
(0.000311818 3.36157e-07 0)
(0.000310144 4.20791e-07 0)
(0.000308086 5.04132e-07 0)
(0.00030565 5.86033e-07 0)
(0.000302842 6.66351e-07 0)
(0.000299669 7.44949e-07 0)
(0.000296139 8.21694e-07 0)
(0.00029226 8.9646e-07 0)
(0.000288042 9.69123e-07 0)
(0.000283495 1.03957e-06 0)
(0.000278627 1.10767e-06 0)
(0.000273451 1.17333e-06 0)
(0.000267978 1.23643e-06 0)
(0.000262219 1.29687e-06 0)
(0.000256188 1.35453e-06 0)
(0.000249896 1.40933e-06 0)
(0.000243359 1.46115e-06 0)
(0.000236589 1.50989e-06 0)
(0.000229602 1.55545e-06 0)
(0.000222412 1.59772e-06 0)
(0.000215036 1.63659e-06 0)
(0.000207489 1.67197e-06 0)
(0.000199787 1.70373e-06 0)
(0.000191948 1.73177e-06 0)
(0.00018399 1.75596e-06 0)
(0.00017593 1.77619e-06 0)
(0.000167787 1.79232e-06 0)
(0.00015958 1.80422e-06 0)
(0.000151328 1.81176e-06 0)
(0.000143052 1.81479e-06 0)
(0.000134773 1.81315e-06 0)
(0.00012651 1.80669e-06 0)
(0.000118287 1.79524e-06 0)
(0.000110124 1.77863e-06 0)
(0.000102045 1.75668e-06 0)
(9.40726e-05 1.72919e-06 0)
(8.62302e-05 1.69597e-06 0)
(7.85418e-05 1.65681e-06 0)
(7.10318e-05 1.61149e-06 0)
(6.37251e-05 1.5598e-06 0)
(5.66467e-05 1.5015e-06 0)
(4.98222e-05 1.43637e-06 0)
(4.32771e-05 1.36416e-06 0)
(3.70371e-05 1.28463e-06 0)
(3.11281e-05 1.19756e-06 0)
(2.55757e-05 1.10272e-06 0)
(2.0405e-05 9.99908e-07 0)
(1.56408e-05 8.88965e-07 0)
(1.13067e-05 7.69791e-07 0)
(7.42533e-06 6.42379e-07 0)
(4.0172e-06 5.06862e-07 0)
(1.10043e-06 3.636e-07 0)
(-1.31022e-06 2.13285e-07 0)
(-3.2046e-06 5.70785e-08 0)
(-4.57869e-06 -1.03098e-07 0)
(-5.43661e-06 -2.64249e-07 0)
(-5.79342e-06 -4.21787e-07 0)
(-5.67854e-06 -5.68843e-07 0)
(-5.14042e-06 -6.95588e-07 0)
(-4.2521e-06 -7.88006e-07 0)
(-3.11974e-06 -8.27031e-07 0)
(-1.90244e-06 -7.85594e-07 0)
(-8.35204e-07 -6.20474e-07 0)
(-1.31436e-07 -2.84509e-07 0)
(-1.83091e-07 1.39335e-06 0)
(-1.39998e-06 3.3233e-06 0)
(-3.183e-06 4.43024e-06 0)
(-5.20415e-06 4.80853e-06 0)
(-7.09101e-06 4.58438e-06 0)
(-8.55675e-06 3.88042e-06 0)
(-9.37896e-06 2.80444e-06 0)
(-9.38095e-06 1.4465e-06 0)
(-8.42374e-06 -1.19724e-07 0)
(-6.40116e-06 -1.83495e-06 0)
(-3.23494e-06 -3.65164e-06 0)
(1.12963e-06 -5.53178e-06 0)
(6.72739e-06 -7.44487e-06 0)
(1.35765e-05 -9.36639e-06 0)
(2.16812e-05 -1.12764e-05 0)
(3.10336e-05 -1.31587e-05 0)
(4.1616e-05 -1.49999e-05 0)
(5.3402e-05 -1.6789e-05 0)
(6.63577e-05 -1.85166e-05 0)
(8.04433e-05 -2.01752e-05 0)
(9.56133e-05 -2.17581e-05 0)
(0.000111818 -2.32598e-05 0)
(0.000129003 -2.46758e-05 0)
(0.000147111 -2.6002e-05 0)
(0.000166083 -2.72351e-05 0)
(0.000185854 -2.83725e-05 0)
(0.000206362 -2.94119e-05 0)
(0.000227538 -3.03515e-05 0)
(0.000249317 -3.11901e-05 0)
(0.000271628 -3.19265e-05 0)
(0.000294402 -3.25603e-05 0)
(0.00031757 -3.30912e-05 0)
(0.000341061 -3.35193e-05 0)
(0.000364804 -3.38449e-05 0)
(0.00038873 -3.40687e-05 0)
(0.000412769 -3.41916e-05 0)
(0.000436853 -3.4215e-05 0)
(0.000460912 -3.41402e-05 0)
(0.00048488 -3.39689e-05 0)
(0.00050869 -3.37031e-05 0)
(0.000532279 -3.3345e-05 0)
(0.000555582 -3.28969e-05 0)
(0.000578539 -3.23614e-05 0)
(0.000601089 -3.17412e-05 0)
(0.000623174 -3.10392e-05 0)
(0.00064474 -3.02584e-05 0)
(0.000665731 -2.94021e-05 0)
(0.000686096 -2.84735e-05 0)
(0.000705786 -2.74762e-05 0)
(0.000724755 -2.64135e-05 0)
(0.000742956 -2.52892e-05 0)
(0.000760349 -2.41069e-05 0)
(0.000776894 -2.28705e-05 0)
(0.000792555 -2.15836e-05 0)
(0.000807296 -2.02502e-05 0)
(0.000821087 -1.8874e-05 0)
(0.000833898 -1.74591e-05 0)
(0.000845704 -1.60092e-05 0)
(0.00085648 -1.45283e-05 0)
(0.000866207 -1.30202e-05 0)
(0.000874865 -1.14888e-05 0)
(0.00088244 -9.93775e-06 0)
(0.000888918 -8.37093e-06 0)
(0.000894289 -6.79201e-06 0)
(0.000898546 -5.20464e-06 0)
(0.000901684 -3.6124e-06 0)
(0.000903699 -2.01881e-06 0)
(0.000904592 -4.27321e-07 0)
(0.000904365 1.15871e-06 0)
(0.000903022 2.73601e-06 0)
(0.00090057 4.30136e-06 0)
(0.000897019 5.85163e-06 0)
(0.000892379 7.38379e-06 0)
(0.000886665 8.89489e-06 0)
(0.000879891 1.0382e-05 0)
(0.000872075 1.18425e-05 0)
(0.000863237 1.32735e-05 0)
(0.000853398 1.46724e-05 0)
(0.000842582 1.60368e-05 0)
(0.000830813 1.7364e-05 0)
(0.000818118 1.86518e-05 0)
(0.000804527 1.98977e-05 0)
(0.000790069 2.10995e-05 0)
(0.000774776 2.22549e-05 0)
(0.000758681 2.33617e-05 0)
(0.00074182 2.44179e-05 0)
(0.00072423 2.54213e-05 0)
(0.000705948 2.63699e-05 0)
(0.000687014 2.72616e-05 0)
(0.000667468 2.80945e-05 0)
(0.000647354 2.88665e-05 0)
(0.000626715 2.95756e-05 0)
(0.000605596 3.022e-05 0)
(0.000584044 3.07976e-05 0)
(0.000562107 3.13065e-05 0)
(0.000539833 3.17448e-05 0)
(0.000517274 3.21104e-05 0)
(0.000494482 3.24014e-05 0)
(0.000471509 3.26159e-05 0)
(0.00044841 3.27519e-05 0)
(0.000425242 3.28074e-05 0)
(0.00040206 3.27805e-05 0)
(0.000378924 3.26692e-05 0)
(0.000355892 3.24716e-05 0)
(0.000333026 3.21858e-05 0)
(0.000310387 3.18099e-05 0)
(0.000288038 3.13421e-05 0)
(0.000266043 3.07808e-05 0)
(0.000244465 3.01242e-05 0)
(0.000223371 2.9371e-05 0)
(0.000202827 2.85198e-05 0)
(0.000182897 2.75697e-05 0)
(0.00016365 2.65197e-05 0)
(0.00014515 2.53695e-05 0)
(0.000127464 2.41191e-05 0)
(0.000110657 2.27692e-05 0)
(9.47916e-05 2.1321e-05 0)
(7.99297e-05 1.97769e-05 0)
(6.61301e-05 1.81401e-05 0)
(5.34477e-05 1.64155e-05 0)
(4.1933e-05 1.46097e-05 0)
(3.16301e-05 1.27318e-05 0)
(2.25755e-05 1.07939e-05 0)
(1.47959e-05 8.81204e-06 0)
(8.30562e-06 6.8073e-06 0)
(3.10361e-06 4.80753e-06 0)
(-8.3037e-07 2.84926e-06 0)
(-3.54034e-06 9.80289e-07 0)
(-5.09996e-06 -7.36981e-07 0)
(-5.61873e-06 -2.22171e-06 0)
(-5.24922e-06 -3.36989e-06 0)
(-4.19831e-06 -4.04983e-06 0)
(-2.74964e-06 -4.09857e-06 0)
(-1.28955e-06 -3.32245e-06 0)
(-1.8656e-07 -1.51273e-06 0)
(-1.78249e-07 2.87987e-06 0)
(-1.30403e-06 6.48868e-06 0)
(-2.78161e-06 8.23815e-06 0)
(-4.22063e-06 8.43138e-06 0)
(-5.19953e-06 7.34225e-06 0)
(-5.38827e-06 5.21249e-06 0)
(-4.52354e-06 2.25195e-06 0)
(-2.38977e-06 -1.36007e-06 0)
(1.18782e-06 -5.472e-06 0)
(6.34733e-06 -9.95672e-06 0)
(1.31941e-05 -1.4708e-05 0)
(2.18047e-05 -1.9637e-05 0)
(3.22304e-05 -2.46696e-05 0)
(4.45003e-05 -2.97437e-05 0)
(5.86243e-05 -3.48071e-05 0)
(7.45952e-05 -3.98158e-05 0)
(9.23911e-05 -4.47324e-05 0)
(0.000111977 -4.95254e-05 0)
(0.000133307 -5.41675e-05 0)
(0.000156325 -5.86358e-05 0)
(0.000180967 -6.29103e-05 0)
(0.00020716 -6.69741e-05 0)
(0.000234826 -7.08127e-05 0)
(0.00026388 -7.44135e-05 0)
(0.000294233 -7.7766e-05 0)
(0.000325792 -8.08615e-05 0)
(0.00035846 -8.36924e-05 0)
(0.000392137 -8.62529e-05 0)
(0.000426721 -8.85383e-05 0)
(0.000462106 -9.05449e-05 0)
(0.000498189 -9.22704e-05 0)
(0.000534861 -9.37134e-05 0)
(0.000572015 -9.48735e-05 0)
(0.000609544 -9.5751e-05 0)
(0.00064734 -9.63474e-05 0)
(0.000685296 -9.66648e-05 0)
(0.000723306 -9.67062e-05 0)
(0.000761264 -9.64753e-05 0)
(0.000799068 -9.59764e-05 0)
(0.000836614 -9.52147e-05 0)
(0.000873803 -9.41958e-05 0)
(0.000910537 -9.2926e-05 0)
(0.00094672 -9.14122e-05 0)
(0.00098226 -8.96618e-05 0)
(0.00101707 -8.76825e-05 0)
(0.00105105 -8.54826e-05 0)
(0.00108413 -8.30709e-05 0)
(0.00111623 -8.04565e-05 0)
(0.00114726 -7.76486e-05 0)
(0.00117716 -7.46571e-05 0)
(0.00120585 -7.14919e-05 0)
(0.00123327 -6.81631e-05 0)
(0.00125936 -6.46811e-05 0)
(0.00128405 -6.10564e-05 0)
(0.00130731 -5.72997e-05 0)
(0.00132906 -5.34217e-05 0)
(0.00134928 -4.94332e-05 0)
(0.00136791 -4.53451e-05 0)
(0.00138493 -4.1168e-05 0)
(0.00140029 -3.69127e-05 0)
(0.00141398 -3.25901e-05 0)
(0.00142595 -2.82107e-05 0)
(0.0014362 -2.37851e-05 0)
(0.00144471 -1.93237e-05 0)
(0.00145145 -1.48367e-05 0)
(0.00145644 -1.03342e-05 0)
(0.00145965 -5.82628e-06 0)
(0.0014611 -1.32257e-06 0)
(0.00146077 3.16736e-06 0)
(0.00145869 7.63417e-06 0)
(0.00145485 1.20687e-05 0)
(0.00144928 1.64621e-05 0)
(0.00144198 2.08057e-05 0)
(0.00143299 2.50909e-05 0)
(0.00142232 2.93097e-05 0)
(0.00141001 3.34539e-05 0)
(0.00139608 3.75157e-05 0)
(0.00138056 4.14877e-05 0)
(0.00136349 4.53623e-05 0)
(0.00134492 4.91326e-05 0)
(0.00132488 5.27914e-05 0)
(0.00130342 5.6332e-05 0)
(0.00128059 5.97478e-05 0)
(0.00125643 6.30323e-05 0)
(0.001231 6.61792e-05 0)
(0.00120436 6.91823e-05 0)
(0.00117656 7.20357e-05 0)
(0.00114766 7.47333e-05 0)
(0.00111773 7.72693e-05 0)
(0.00108682 7.9638e-05 0)
(0.00105502 8.18337e-05 0)
(0.00102238 8.38509e-05 0)
(0.000988973 8.5684e-05 0)
(0.00095488 8.73275e-05 0)
(0.000920173 8.87759e-05 0)
(0.000884931 9.0024e-05 0)
(0.000849232 9.10662e-05 0)
(0.000813159 9.18975e-05 0)
(0.000776794 9.25124e-05 0)
(0.000740224 9.29057e-05 0)
(0.000703536 9.30725e-05 0)
(0.000666819 9.30075e-05 0)
(0.000630163 9.2706e-05 0)
(0.000593662 9.21631e-05 0)
(0.000557409 9.13742e-05 0)
(0.000521499 9.03351e-05 0)
(0.00048603 8.90415e-05 0)
(0.000451098 8.74898e-05 0)
(0.000416803 8.56767e-05 0)
(0.000383244 8.35996e-05 0)
(0.00035052 8.12563e-05 0)
(0.00031873 7.86457e-05 0)
(0.000287975 7.57674e-05 0)
(0.000258352 7.26225e-05 0)
(0.000229958 6.92135e-05 0)
(0.000202888 6.55445e-05 0)
(0.000177233 6.16222e-05 0)
(0.000153081 5.74555e-05 0)
(0.000130515 5.30569e-05 0)
(0.000109611 4.84428e-05 0)
(9.04381e-05 4.36346e-05 0)
(7.30548e-05 3.86596e-05 0)
(5.75081e-05 3.35528e-05 0)
(4.38305e-05 2.83582e-05 0)
(3.20371e-05 2.31317e-05 0)
(2.21222e-05 1.79429e-05 0)
(1.40552e-05 1.28795e-05 0)
(7.77616e-06 8.05056e-06 0)
(3.1904e-06 3.59215e-06 0)
(1.62966e-07 -3.2714e-07 0)
(-1.48737e-06 -3.49958e-06 0)
(-1.99683e-06 -5.67126e-06 0)
(-1.67463e-06 -6.53442e-06 0)
(-9.25287e-07 -5.71647e-06 0)
(-1.53746e-07 -2.76903e-06 0)
(-1.25353e-07 4.02142e-06 0)
(-7.42595e-07 8.63223e-06 0)
(-1.26818e-06 1.03234e-05 0)
(-1.30834e-06 9.59212e-06 0)
(-4.59812e-07 6.85755e-06 0)
(1.60485e-06 2.47879e-06 0)
(5.15428e-06 -3.2333e-06 0)
(1.04121e-05 -1.00101e-05 0)
(1.75623e-05 -1.76202e-05 0)
(2.67527e-05 -2.58651e-05 0)
(3.80979e-05 -3.45745e-05 0)
(5.16825e-05 -4.36025e-05 0)
(6.75638e-05 -5.28242e-05 0)
(8.5775e-05 -6.21321e-05 0)
(0.000106327 -7.14338e-05 0)
(0.000129211 -8.065e-05 0)
(0.0001544 -8.97118e-05 0)
(0.000181852 -9.85598e-05 0)
(0.000211511 -0.000107143 0)
(0.000243308 -0.000115416 0)
(0.000277163 -0.00012334 0)
(0.000312986 -0.000130882 0)
(0.000350678 -0.000138013 0)
(0.000390133 -0.000144708 0)
(0.000431239 -0.000150945 0)
(0.000473876 -0.000156705 0)
(0.000517922 -0.000161975 0)
(0.000563248 -0.000166741 0)
(0.000609723 -0.000170993 0)
(0.000657213 -0.000174723 0)
(0.000705582 -0.000177926 0)
(0.000754692 -0.000180598 0)
(0.000804404 -0.000182738 0)
(0.000854578 -0.000184345 0)
(0.000905076 -0.000185422 0)
(0.000955757 -0.000185972 0)
(0.00100648 -0.000186 0)
(0.00105712 -0.000185513 0)
(0.00110753 -0.000184518 0)
(0.00115758 -0.000183024 0)
(0.00120714 -0.000181043 0)
(0.00125608 -0.000178584 0)
(0.00130427 -0.000175662 0)
(0.0013516 -0.00017229 0)
(0.00139795 -0.000168482 0)
(0.0014432 -0.000164254 0)
(0.00148724 -0.000159622 0)
(0.00152996 -0.000154602 0)
(0.00157127 -0.000149214 0)
(0.00161107 -0.000143474 0)
(0.00164926 -0.000137402 0)
(0.00168577 -0.000131016 0)
(0.0017205 -0.000124337 0)
(0.00175337 -0.000117384 0)
(0.00178433 -0.000110178 0)
(0.0018133 -0.000102738 0)
(0.00184022 -9.50847e-05 0)
(0.00186504 -8.72392e-05 0)
(0.00188771 -7.92219e-05 0)
(0.00190818 -7.10531e-05 0)
(0.00192641 -6.27534e-05 0)
(0.00194238 -5.43429e-05 0)
(0.00195604 -4.58418e-05 0)
(0.00196739 -3.72699e-05 0)
(0.0019764 -2.8647e-05 0)
(0.00198306 -1.99924e-05 0)
(0.00198736 -1.13251e-05 0)
(0.0019893 -2.66388e-06 0)
(0.00198889 5.97294e-06 0)
(0.00198613 1.45674e-05 0)
(0.00198104 2.31018e-05 0)
(0.00197364 3.15591e-05 0)
(0.00196394 3.99224e-05 0)
(0.00195197 4.81753e-05 0)
(0.00193777 5.6302e-05 0)
(0.00192136 6.42869e-05 0)
(0.0019028 7.21148e-05 0)
(0.00188213 7.97711e-05 0)
(0.00185938 8.72414e-05 0)
(0.00183463 9.45117e-05 0)
(0.00180791 0.000101569 0)
(0.00177929 0.000108399 0)
(0.00174883 0.000114989 0)
(0.00171661 0.000121327 0)
(0.00168268 0.000127401 0)
(0.00164713 0.000133198 0)
(0.00161003 0.000138708 0)
(0.00157146 0.000143917 0)
(0.0015315 0.000148815 0)
(0.00149024 0.000153392 0)
(0.00144776 0.000157635 0)
(0.00140417 0.000161535 0)
(0.00135955 0.00016508 0)
(0.00131401 0.000168261 0)
(0.00126763 0.000171067 0)
(0.00122054 0.000173488 0)
(0.00117282 0.000175514 0)
(0.00112459 0.000177135 0)
(0.00107596 0.000178342 0)
(0.00102705 0.000179125 0)
(0.000977956 0.000179475 0)
(0.00092881 0.000179383 0)
(0.000879728 0.000178841 0)
(0.000830831 0.000177839 0)
(0.00078224 0.000176372 0)
(0.000734081 0.00017443 0)
(0.000686478 0.000172008 0)
(0.000639558 0.000169101 0)
(0.000593449 0.000165703 0)
(0.000548277 0.000161812 0)
(0.000504171 0.000157425 0)
(0.000461257 0.000152542 0)
(0.00041966 0.000147165 0)
(0.000379504 0.000141298 0)
(0.000340912 0.000134949 0)
(0.000304001 0.000128128 0)
(0.000268884 0.000120851 0)
(0.00023567 0.000113137 0)
(0.000204459 0.000105012 0)
(0.000175345 9.65108e-05 0)
(0.000148411 8.76738e-05 0)
(0.000123726 7.85536e-05 0)
(0.000101347 6.92149e-05 0)
(8.13134e-05 5.97372e-05 0)
(6.36448e-05 5.0218e-05 0)
(4.83378e-05 4.07762e-05 0)
(3.53627e-05 3.15565e-05 0)
(2.46597e-05 2.27347e-05 0)
(1.61347e-05 1.45229e-05 0)
(9.65501e-06 7.1771e-06 0)
(5.04471e-06 1.00474e-06 0)
(2.07887e-06 -3.627e-06 0)
(4.74959e-07 -6.27982e-06 0)
(-1.16876e-07 -6.4253e-06 0)
(-7.78451e-08 -3.41793e-06 0)
(-5.70781e-08 4.4553e-06 0)
(4.7178e-08 8.87847e-06 0)
(8.47716e-07 9.45978e-06 0)
(2.70902e-06 6.83023e-06 0)
(5.97226e-06 1.52292e-06 0)
(1.09309e-05 -6.00383e-06 0)
(1.78345e-05 -1.53503e-05 0)
(2.6894e-05 -2.61668e-05 0)
(3.8284e-05 -3.8148e-05 0)
(5.21458e-05 -5.10272e-05 0)
(6.85896e-05 -6.45717e-05 0)
(8.76963e-05 -7.85783e-05 0)
(0.00010952 -9.28693e-05 0)
(0.00013409 -0.00010729 0)
(0.000161413 -0.000121703 0)
(0.000191474 -0.000135992 0)
(0.000224239 -0.00015005 0)
(0.000259658 -0.000163788 0)
(0.000297664 -0.000177123 0)
(0.000338174 -0.000189987 0)
(0.000381096 -0.000202317 0)
(0.000426324 -0.000214059 0)
(0.000473742 -0.000225167 0)
(0.000523225 -0.000235598 0)
(0.000574639 -0.000245317 0)
(0.000627845 -0.000254295 0)
(0.000682696 -0.000262506 0)
(0.000739041 -0.000269927 0)
(0.000796724 -0.000276543 0)
(0.000855585 -0.000282339 0)
(0.000915461 -0.000287306 0)
(0.00097619 -0.000291436 0)
(0.0010376 -0.000294726 0)
(0.00109954 -0.000297176 0)
(0.00116182 -0.000298786 0)
(0.00122429 -0.000299563 0)
(0.00128677 -0.000299513 0)
(0.00134911 -0.000298647 0)
(0.00141115 -0.000296974 0)
(0.00147271 -0.000294511 0)
(0.00153365 -0.000291272 0)
(0.0015938 -0.000287275 0)
(0.00165302 -0.000282541 0)
(0.00171117 -0.00027709 0)
(0.00176809 -0.000270945 0)
(0.00182365 -0.00026413 0)
(0.00187772 -0.000256671 0)
(0.00193017 -0.000248594 0)
(0.00198087 -0.000239928 0)
(0.00202971 -0.0002307 0)
(0.00207658 -0.000220941 0)
(0.00212137 -0.000210681 0)
(0.00216398 -0.00019995 0)
(0.00220432 -0.00018878 0)
(0.00224231 -0.000177203 0)
(0.00227785 -0.000165251 0)
(0.00231088 -0.000152957 0)
(0.00234133 -0.000140353 0)
(0.00236914 -0.000127472 0)
(0.00239425 -0.000114347 0)
(0.00241662 -0.00010101 0)
(0.00243621 -8.74924e-05 0)
(0.00245298 -7.38277e-05 0)
(0.0024669 -6.00473e-05 0)
(0.00247795 -4.61825e-05 0)
(0.00248612 -3.22644e-05 0)
(0.0024914 -1.83235e-05 0)
(0.00249378 -4.38977e-06 0)
(0.00249327 9.5072e-06 0)
(0.00248988 2.33385e-05 0)
(0.00248362 3.7076e-05 0)
(0.00247452 5.06917e-05 0)
(0.0024626 6.41588e-05 0)
(0.00244789 7.74508e-05 0)
(0.00243044 9.05419e-05 0)
(0.00241028 0.000103407 0)
(0.00238747 0.000116022 0)
(0.00236205 0.000128362 0)
(0.00233409 0.000140405 0)
(0.00230365 0.000152128 0)
(0.0022708 0.000163509 0)
(0.00223561 0.000174526 0)
(0.00219815 0.000185158 0)
(0.00215851 0.000195386 0)
(0.00211678 0.000205189 0)
(0.00207304 0.000214548 0)
(0.00202738 0.000223444 0)
(0.00197992 0.000231859 0)
(0.00193073 0.000239773 0)
(0.00187994 0.00024717 0)
(0.00182765 0.000254032 0)
(0.00177398 0.000260342 0)
(0.00171902 0.000266083 0)
(0.00166292 0.000271238 0)
(0.00160579 0.000275792 0)
(0.00154775 0.000279729 0)
(0.00148893 0.000283033 0)
(0.00142946 0.000285688 0)
(0.00136949 0.000287681 0)
(0.00130914 0.000288996 0)
(0.00124855 0.000289621 0)
(0.00118787 0.000289541 0)
(0.00112723 0.000288743 0)
(0.00106679 0.000287217 0)
(0.0010067 0.000284951 0)
(0.000947093 0.000281935 0)
(0.000888129 0.000278161 0)
(0.000829957 0.000273621 0)
(0.000772727 0.000268311 0)
(0.000716592 0.000262226 0)
(0.000661702 0.000255367 0)
(0.000608207 0.000247735 0)
(0.000556254 0.000239336 0)
(0.000505988 0.000230179 0)
(0.000457551 0.00022028 0)
(0.000411081 0.000209657 0)
(0.000366709 0.000198336 0)
(0.000324561 0.000186353 0)
(0.000284754 0.00017375 0)
(0.000247394 0.00016058 0)
(0.000212579 0.000146909 0)
(0.000180391 0.000132817 0)
(0.000150898 0.000118402 0)
(0.000124149 0.000103782 0)
(0.000100174 8.90969e-05 0)
(7.89824e-05 7.45154e-05 0)
(6.05547e-05 6.02383e-05 0)
(4.48456e-05 4.65039e-05 0)
(3.17784e-05 3.35944e-05 0)
(2.12424e-05 2.1843e-05 0)
(1.30901e-05 1.16418e-05 0)
(7.13429e-06 3.45101e-06 0)
(3.15094e-06 -2.18977e-06 0)
(8.85431e-07 -4.64022e-06 0)
(8.77845e-09 -3.13088e-06 0)
(1.69849e-08 4.0407e-06 0)
(9.40436e-07 6.82191e-06 0)
(3.26254e-06 5.01989e-06 0)
(7.30715e-06 -6.53573e-07 0)
(1.33328e-05 -9.58663e-06 0)
(2.15811e-05 -2.12456e-05 0)
(3.2267e-05 -3.51588e-05 0)
(4.55742e-05 -5.09081e-05 0)
(6.16552e-05 -6.8123e-05 0)
(8.06331e-05 -8.64755e-05 0)
(0.000102603 -0.000105675 0)
(0.000127633 -0.000125463 0)
(0.000155765 -0.000145611 0)
(0.000187019 -0.000165917 0)
(0.000221391 -0.0001862 0)
(0.000258855 -0.000206302 0)
(0.000299368 -0.000226079 0)
(0.000342867 -0.000245407 0)
(0.000389273 -0.000264173 0)
(0.000438492 -0.000282279 0)
(0.000490415 -0.000299638 0)
(0.000544922 -0.000316171 0)
(0.000601881 -0.000331811 0)
(0.000661148 -0.000346498 0)
(0.000722573 -0.000360181 0)
(0.000785996 -0.000372816 0)
(0.000851251 -0.000384363 0)
(0.000918164 -0.000394792 0)
(0.000986558 -0.000404076 0)
(0.00105625 -0.000412194 0)
(0.00112706 -0.000419131 0)
(0.00119879 -0.000424877 0)
(0.00127126 -0.000429424 0)
(0.00134427 -0.000432771 0)
(0.00141764 -0.00043492 0)
(0.00149117 -0.000435876 0)
(0.00156467 -0.000435649 0)
(0.00163796 -0.000434252 0)
(0.00171084 -0.000431702 0)
(0.00178314 -0.000428017 0)
(0.00185467 -0.000423219 0)
(0.00192525 -0.000417335 0)
(0.00199471 -0.000410391 0)
(0.00206288 -0.000402417 0)
(0.0021296 -0.000393446 0)
(0.00219471 -0.000383511 0)
(0.00225805 -0.000372649 0)
(0.00231947 -0.000360899 0)
(0.00237884 -0.000348298 0)
(0.00243602 -0.000334889 0)
(0.00249088 -0.000320714 0)
(0.0025433 -0.000305815 0)
(0.00259316 -0.000290237 0)
(0.00264036 -0.000274024 0)
(0.00268479 -0.000257224 0)
(0.00272636 -0.00023988 0)
(0.00276499 -0.000222042 0)
(0.0028006 -0.000203754 0)
(0.00283311 -0.000185064 0)
(0.00286247 -0.000166018 0)
(0.00288861 -0.000146664 0)
(0.0029115 -0.000127049 0)
(0.00293109 -0.000107217 0)
(0.00294734 -8.72157e-05 0)
(0.00296024 -6.70899e-05 0)
(0.00296976 -4.68843e-05 0)
(0.00297589 -2.66431e-05 0)
(0.00297864 -6.40974e-06 0)
(0.00297799 1.37731e-05 0)
(0.00297398 3.38636e-05 0)
(0.00296661 5.38206e-05 0)
(0.0029559 7.36039e-05 0)
(0.00294189 9.31744e-05 0)
(0.00292462 0.000112493 0)
(0.00290413 0.000131524 0)
(0.00288047 0.000150229 0)
(0.0028537 0.000168573 0)
(0.00282387 0.000186521 0)
(0.00279106 0.00020404 0)
(0.00275534 0.000221096 0)
(0.00271679 0.000237658 0)
(0.00267549 0.000253693 0)
(0.00263153 0.000269173 0)
(0.00258501 0.000284067 0)
(0.00253602 0.000298345 0)
(0.00248468 0.000311981 0)
(0.00243108 0.000324945 0)
(0.00237535 0.000337213 0)
(0.0023176 0.000348756 0)
(0.00225795 0.000359549 0)
(0.00219653 0.000369568 0)
(0.00213347 0.000378788 0)
(0.0020689 0.000387184 0)
(0.00200296 0.000394733 0)
(0.0019358 0.000401412 0)
(0.00186755 0.000407199 0)
(0.00179838 0.000412072 0)
(0.00172841 0.00041601 0)
(0.00165783 0.000418992 0)
(0.00158677 0.000420998 0)
(0.00151541 0.00042201 0)
(0.00144389 0.000422009 0)
(0.0013724 0.000420979 0)
(0.0013011 0.000418904 0)
(0.00123015 0.00041577 0)
(0.00115972 0.000411565 0)
(0.00108999 0.000406277 0)
(0.00102113 0.0003999 0)
(0.000953307 0.000392428 0)
(0.000886697 0.000383858 0)
(0.00082147 0.000374192 0)
(0.000757794 0.000363436 0)
(0.000695836 0.0003516 0)
(0.00063576 0.000338701 0)
(0.000577725 0.00032476 0)
(0.000521885 0.00030981 0)
(0.000468391 0.000293889 0)
(0.000417381 0.000277047 0)
(0.000368989 0.000259345 0)
(0.000323338 0.000240859 0)
(0.000280538 0.00022168 0)
(0.000240686 0.000201917 0)
(0.000203866 0.0001817 0)
(0.000170142 0.000161183 0)
(0.000139562 0.00014055 0)
(0.000112151 0.000120015 0)
(8.7913e-05 9.98295e-05 0)
(6.68274e-05 8.02865e-05 0)
(4.88471e-05 6.1728e-05 0)
(3.38974e-05 4.45508e-05 0)
(2.18733e-05 2.92141e-05 0)
(1.26408e-05 1.62473e-05 0)
(6.05069e-06 6.26074e-06 0)
(1.95988e-06 -3.46823e-08 0)
(9.78113e-08 -1.80284e-06 0)
(9.10853e-08 2.72189e-06 0)
(1.86932e-06 2.2722e-06 0)
(5.80026e-06 -3.32196e-06 0)
(1.2168e-05 -1.33054e-05 0)
(2.11428e-05 -2.70166e-05 0)
(3.29064e-05 -4.38684e-05 0)
(4.76309e-05 -6.33344e-05 0)
(6.54644e-05 -8.49415e-05 0)
(8.65285e-05 -0.000108264 0)
(0.00011092 -0.000132922 0)
(0.000138711 -0.00015857 0)
(0.00016995 -0.000184903 0)
(0.000204661 -0.000211642 0)
(0.000242846 -0.000238541 0)
(0.000284488 -0.000265376 0)
(0.000329545 -0.000291947 0)
(0.00037796 -0.000318075 0)
(0.000429656 -0.000343599 0)
(0.000484538 -0.000368374 0)
(0.000542499 -0.000392273 0)
(0.000603414 -0.00041518 0)
(0.000667147 -0.000436992 0)
(0.000733549 -0.000457621 0)
(0.000802461 -0.000476985 0)
(0.000873713 -0.000495016 0)
(0.000947127 -0.000511652 0)
(0.00102252 -0.000526843 0)
(0.00109969 -0.000540545 0)
(0.00117846 -0.000552721 0)
(0.0012586 -0.000563343 0)
(0.00133993 -0.000572388 0)
(0.00142222 -0.000579842 0)
(0.00150527 -0.000585694 0)
(0.00158887 -0.000589941 0)
(0.0016728 -0.000592584 0)
(0.00175685 -0.000593631 0)
(0.0018408 -0.000593092 0)
(0.00192445 -0.000590986 0)
(0.0020076 -0.000587333 0)
(0.00209002 -0.000582157 0)
(0.00217152 -0.000575489 0)
(0.00225191 -0.000567361 0)
(0.00233099 -0.000557809 0)
(0.00240857 -0.000546874 0)
(0.00248446 -0.000534597 0)
(0.0025585 -0.000521025 0)
(0.0026305 -0.000506206 0)
(0.0027003 -0.00049019 0)
(0.00276775 -0.00047303 0)
(0.00283269 -0.000454781 0)
(0.00289498 -0.000435498 0)
(0.00295448 -0.00041524 0)
(0.00301107 -0.000394066 0)
(0.00306461 -0.000372036 0)
(0.00311501 -0.000349212 0)
(0.00316215 -0.000325654 0)
(0.00320595 -0.000301427 0)
(0.0032463 -0.000276592 0)
(0.00328314 -0.000251212 0)
(0.00331639 -0.000225351 0)
(0.00334599 -0.000199072 0)
(0.00337189 -0.000172436 0)
(0.00339403 -0.000145507 0)
(0.0034124 -0.000118347 0)
(0.00342694 -9.10153e-05 0)
(0.00343766 -6.35739e-05 0)
(0.00344453 -3.60819e-05 0)
(0.00344755 -8.59814e-06 0)
(0.00344672 1.88197e-05 0)
(0.00344206 4.6115e-05 0)
(0.00343359 7.32321e-05 0)
(0.00342133 0.000100116 0)
(0.00340532 0.000126715 0)
(0.0033856 0.000152975 0)
(0.00336223 0.000178847 0)
(0.00333525 0.00020428 0)
(0.00330473 0.000229226 0)
(0.00327074 0.000253638 0)
(0.00323335 0.00027747 0)
(0.00319266 0.000300677 0)
(0.00314874 0.000323215 0)
(0.0031017 0.000345043 0)
(0.00305163 0.000366117 0)
(0.00299865 0.0003864 0)
(0.00294285 0.00040585 0)
(0.00288436 0.000424429 0)
(0.00282331 0.000442101 0)
(0.00275981 0.000458829 0)
(0.00269401 0.000474577 0)
(0.00262604 0.000489311 0)
(0.00255604 0.000502996 0)
(0.00248415 0.000515601 0)
(0.00241054 0.000527093 0)
(0.00233535 0.00053744 0)
(0.00225874 0.000546611 0)
(0.00218087 0.000554579 0)
(0.00210192 0.000561312 0)
(0.00202205 0.000566785 0)
(0.00194143 0.00057097 0)
(0.00186025 0.000573842 0)
(0.00177867 0.000575376 0)
(0.00169688 0.00057555 0)
(0.00161507 0.000574342 0)
(0.00153342 0.000571733 0)
(0.00145212 0.000567707 0)
(0.00137135 0.000562248 0)
(0.00129131 0.000555345 0)
(0.00121219 0.000546989 0)
(0.00113417 0.000537175 0)
(0.00105746 0.000525903 0)
(0.000982222 0.000513176 0)
(0.000908659 0.000499006 0)
(0.000836951 0.000483407 0)
(0.000767279 0.000466405 0)
(0.000699819 0.000448031 0)
(0.000634741 0.000428327 0)
(0.000572211 0.000407348 0)
(0.000512385 0.000385158 0)
(0.000455412 0.000361838 0)
(0.000401432 0.000337485 0)
(0.000350571 0.000312214 0)
(0.000302944 0.000286163 0)
(0.000258654 0.000259492 0)
(0.000217785 0.000232391 0)
(0.000180408 0.00020508 0)
(0.000146573 0.000177812 0)
(0.000116312 0.000150884 0)
(8.96373e-05 0.000124634 0)
(6.65404e-05 9.94525e-05 0)
(4.69905e-05 7.57845e-05 0)
(3.09341e-05 5.41386e-05 0)
(1.82972e-05 3.50921e-05 0)
(9.01093e-06 1.93002e-05 0)
(3.04544e-06 7.51238e-06 0)
(1.84597e-07 5.93541e-07 0)
(1.62824e-07 4.89369e-07 0)
(2.79854e-06 -4.83332e-06 0)
(8.36337e-06 -1.56995e-05 0)
(1.71077e-05 -3.13345e-05 0)
(2.91153e-05 -5.10475e-05 0)
(4.45075e-05 -7.42157e-05 0)
(6.34103e-05 -0.000100272 0)
(8.59318e-05 -0.000128701 0)
(0.000112158 -0.000159032 0)
(0.000142154 -0.000190839 0)
(0.000175965 -0.000223733 0)
(0.000213611 -0.000257361 0)
(0.000255097 -0.000291404 0)
(0.000300403 -0.000325571 0)
(0.000349489 -0.000359598 0)
(0.000402299 -0.000393247 0)
(0.000458755 -0.000426301 0)
(0.000518763 -0.000458565 0)
(0.000582213 -0.000489861 0)
(0.000648979 -0.000520033 0)
(0.000718919 -0.000548936 0)
(0.000791881 -0.000576443 0)
(0.000867698 -0.00060244 0)
(0.000946193 -0.000626828 0)
(0.00102718 -0.000649516 0)
(0.00111046 -0.000670429 0)
(0.00119583 -0.000689499 0)
(0.00128308 -0.00070667 0)
(0.00137199 -0.000721897 0)
(0.00146234 -0.00073514 0)
(0.00155391 -0.000746371 0)
(0.00164646 -0.00075557 0)
(0.00173977 -0.000762723 0)
(0.0018336 -0.000767824 0)
(0.00192771 -0.000770875 0)
(0.00202188 -0.000771884 0)
(0.00211588 -0.000770865 0)
(0.00220947 -0.000767839 0)
(0.00230242 -0.000762832 0)
(0.00239452 -0.000755876 0)
(0.00248554 -0.000747007 0)
(0.00257526 -0.000736268 0)
(0.00266347 -0.000723703 0)
(0.00274997 -0.000709364 0)
(0.00283456 -0.000693305 0)
(0.00291703 -0.000675584 0)
(0.00299721 -0.000656262 0)
(0.00307491 -0.000635404 0)
(0.00314996 -0.000613076 0)
(0.00322219 -0.000589349 0)
(0.00329145 -0.000564295 0)
(0.00335759 -0.000537987 0)
(0.00342046 -0.000510501 0)
(0.00347994 -0.000481914 0)
(0.00353589 -0.000452305 0)
(0.00358822 -0.000421753 0)
(0.0036368 -0.000390337 0)
(0.00368156 -0.000358139 0)
(0.00372239 -0.000325239 0)
(0.00375922 -0.000291718 0)
(0.00379199 -0.000257657 0)
(0.00382064 -0.000223137 0)
(0.00384511 -0.000188237 0)
(0.00386537 -0.000153037 0)
(0.00388139 -0.000117615 0)
(0.00389314 -8.20502e-05 0)
(0.00390061 -4.64184e-05 0)
(0.0039038 -1.07954e-05 0)
(0.00390272 2.47443e-05 0)
(0.00389737 6.01277e-05 0)
(0.00388778 9.52829e-05 0)
(0.00387398 0.00013014 0)
(0.003856 0.000164629 0)
(0.0038339 0.000198684 0)
(0.00380774 0.000232239 0)
(0.00377756 0.000265229 0)
(0.00374344 0.000297592 0)
(0.00370546 0.000329267 0)
(0.00366371 0.000360194 0)
(0.00361827 0.000390316 0)
(0.00356924 0.000419575 0)
(0.00351673 0.000447917 0)
(0.00346084 0.000475289 0)
(0.0034017 0.000501637 0)
(0.00333943 0.000526913 0)
(0.00327416 0.000551065 0)
(0.00320601 0.000574046 0)
(0.00313514 0.000595809 0)
(0.00306169 0.000616308 0)
(0.00298581 0.0006355 0)
(0.00290766 0.00065334 0)
(0.00282739 0.000669786 0)
(0.00274517 0.000684798 0)
(0.00266117 0.000698335 0)
(0.00257557 0.00071036 0)
(0.00248855 0.000720834 0)
(0.00240028 0.000729722 0)
(0.00231095 0.000736988 0)
(0.00222075 0.000742601 0)
(0.00212988 0.000746527 0)
(0.00203853 0.000748739 0)
(0.00194689 0.000749207 0)
(0.00185518 0.000747906 0)
(0.00176358 0.000744813 0)
(0.00167231 0.000739909 0)