/*--------------------------------*- C++ -*----------------------------------*\
  =========                 |
  \\      /  F ield         | OpenFOAM: The Open Source CFD Toolbox
   \\    /   O peration     | Website:  https://openfoam.org
    \\  /    A nd           | Version:  12
     \\/     M anipulation  |
\*---------------------------------------------------------------------------*/
FoamFile
{
    format      ascii;
    class       volScalarField;
    location    "7";
    object      k;
}
// * * * * * * * * * * * * * * * * * * * * * * * * * * * * * * * * * * * * * //

dimensions      [0 2 -2 0 0 0 0];

internalField   nonuniform List<scalar> 
18225
(
6.77954e-12
3.38799e-11
7.41455e-11
1.22497e-10
1.76672e-10
2.35333e-10
2.97534e-10
3.62544e-10
4.29765e-10
4.98698e-10
5.68923e-10
6.40085e-10
7.11883e-10
7.84067e-10
8.56434e-10
9.28821e-10
1.0011e-09
1.07319e-09
1.14503e-09
1.21659e-09
1.28786e-09
1.35886e-09
1.42963e-09
1.50021e-09
1.57068e-09
1.64109e-09
1.71152e-09
1.78206e-09
1.85278e-09
1.92375e-09
1.99504e-09
2.06671e-09
2.13882e-09
2.2114e-09
2.28449e-09
2.3581e-09
2.43224e-09
2.5069e-09
2.58206e-09
2.65768e-09
2.73372e-09
2.81012e-09
2.88681e-09
2.96369e-09
3.04068e-09
3.11765e-09
3.19449e-09
3.27106e-09
3.34722e-09
3.42281e-09
3.49765e-09
3.57157e-09
3.64437e-09
3.71584e-09
3.78578e-09
3.85396e-09
3.92014e-09
3.98408e-09
4.04551e-09
4.10419e-09
4.15985e-09
4.2122e-09
4.26097e-09
4.30589e-09
4.34667e-09
4.38302e-09
4.41468e-09
4.44137e-09
4.46286e-09
4.47888e-09
4.48912e-09
4.49342e-09
4.49176e-09
4.48385e-09
4.46953e-09
4.44867e-09
4.42119e-09
4.38702e-09
4.34617e-09
4.29866e-09
4.24456e-09
4.18397e-09
4.11706e-09
4.044e-09
3.96505e-09
3.88046e-09
3.79055e-09
3.69568e-09
3.59622e-09
3.4926e-09
3.38524e-09
3.2746e-09
3.16118e-09
3.04547e-09
2.92795e-09
2.80914e-09
2.68953e-09
2.56962e-09
2.44989e-09
2.33079e-09
2.21277e-09
2.09625e-09
1.9816e-09
1.86918e-09
1.75932e-09
1.65229e-09
1.54835e-09
1.4477e-09
1.35052e-09
1.25694e-09
1.16706e-09
1.08096e-09
9.98651e-10
9.20156e-10
8.45442e-10
7.74453e-10
7.07118e-10
6.43341e-10
5.83014e-10
5.26012e-10
4.72202e-10
4.21445e-10
3.73599e-10
3.28525e-10
2.8609e-10
2.46175e-10
2.08678e-10
1.73526e-10
1.40681e-10
1.10159e-10
8.20497e-11
5.65593e-11
3.41013e-11
1.55488e-11
3.10977e-12
3.39003e-11
2.91674e-10
6.59041e-10
1.09635e-09
1.58513e-09
2.11388e-09
2.6743e-09
3.25986e-09
3.86522e-09
4.48593e-09
5.11818e-09
5.75879e-09
6.40506e-09
7.05476e-09
7.70606e-09
8.35751e-09
9.00798e-09
9.65669e-09
1.03031e-08
1.0947e-08
1.15882e-08
1.2227e-08
1.28637e-08
1.34987e-08
1.41327e-08
1.47661e-08
1.53998e-08
1.60344e-08
1.66706e-08
1.73091e-08
1.79504e-08
1.85952e-08
1.9244e-08
1.9897e-08
2.05546e-08
2.12169e-08
2.18839e-08
2.25557e-08
2.3232e-08
2.39125e-08
2.45967e-08
2.52842e-08
2.59742e-08
2.66661e-08
2.73588e-08
2.80515e-08
2.8743e-08
2.94321e-08
3.01175e-08
3.07977e-08
3.14713e-08
3.21366e-08
3.27918e-08
3.34351e-08
3.40647e-08
3.46783e-08
3.5274e-08
3.58496e-08
3.64027e-08
3.6931e-08
3.7432e-08
3.79034e-08
3.83426e-08
3.87471e-08
3.91143e-08
3.94418e-08
3.97271e-08
3.99676e-08
4.01608e-08
4.03044e-08
4.03959e-08
4.04338e-08
4.04183e-08
4.03466e-08
4.02171e-08
4.00287e-08
3.97807e-08
3.94726e-08
3.91043e-08
3.86762e-08
3.81888e-08
3.76431e-08
3.70404e-08
3.63826e-08
3.56716e-08
3.49101e-08
3.41008e-08
3.32468e-08
3.23516e-08
3.14189e-08
3.04527e-08
2.94572e-08
2.84365e-08
2.73953e-08
2.63379e-08
2.52689e-08
2.41927e-08
2.31139e-08
2.20367e-08
2.09652e-08
1.99034e-08
1.88551e-08
1.78237e-08
1.68124e-08
1.58241e-08
1.48613e-08
1.39263e-08
1.30209e-08
1.21466e-08
1.13049e-08
1.04964e-08
9.72185e-09
8.98149e-09
8.27532e-09
7.60313e-09
6.96448e-09
6.35872e-09
5.785e-09
5.24233e-09
4.7296e-09
4.24559e-09
3.78905e-09
3.3587e-09
2.95328e-09
2.57159e-09
2.21256e-09
1.87526e-09
1.55902e-09
1.26348e-09
9.88769e-10
7.35645e-10
5.05878e-10
3.02933e-10
1.33793e-10
1.55423e-11
7.43731e-11
6.60625e-10
1.50539e-09
2.51485e-09
3.64438e-09
4.86659e-09
6.16195e-09
7.51528e-09
8.91423e-09
1.03485e-08
1.18092e-08
1.32892e-08
1.47822e-08
1.62829e-08
1.77873e-08
1.92919e-08
2.07941e-08
2.22922e-08
2.37849e-08
2.52717e-08
2.67525e-08
2.82276e-08
2.96978e-08
3.11642e-08
3.26282e-08
3.4091e-08
3.55545e-08
3.70202e-08
3.84897e-08
3.99646e-08
4.14464e-08
4.29362e-08
4.44351e-08
4.59441e-08
4.74637e-08
4.89944e-08
5.05361e-08
5.20888e-08
5.3652e-08
5.52249e-08
5.68066e-08
5.83958e-08
5.99909e-08
6.15901e-08
6.31913e-08
6.47923e-08
6.63904e-08
6.79829e-08
6.95666e-08
7.11383e-08
7.26944e-08
7.4231e-08
7.57442e-08
7.72297e-08
7.8683e-08
8.00993e-08
8.14739e-08
8.28015e-08
8.4077e-08
8.52948e-08
8.64494e-08
8.75351e-08
8.85462e-08
8.94768e-08
9.03211e-08
9.10733e-08
9.17277e-08
9.22787e-08
9.27207e-08
9.30487e-08
9.32559e-08
9.33389e-08
9.32996e-08
9.31301e-08
9.28271e-08
9.23881e-08
9.18115e-08
9.10963e-08
9.02422e-08
8.925e-08
8.81211e-08
8.68577e-08
8.54631e-08
8.39413e-08
8.22972e-08
8.05364e-08
7.86656e-08
7.66919e-08
7.46234e-08
7.24686e-08
7.02367e-08
6.79373e-08
6.55803e-08
6.3176e-08
6.07347e-08
5.82669e-08
5.57828e-08
5.32928e-08
5.08068e-08
4.83343e-08
4.58844e-08
4.34657e-08
4.10863e-08
3.87534e-08
3.64737e-08
3.4253e-08
3.20965e-08
3.00085e-08
2.79925e-08
2.60515e-08
2.41874e-08
2.24016e-08
2.06948e-08
1.9067e-08
1.75176e-08
1.60456e-08
1.46494e-08
1.33271e-08
1.20764e-08
1.08947e-08
9.7792e-09
8.727e-09
7.73514e-09
6.80072e-09
5.92096e-09
5.09335e-09
4.31578e-09
3.58667e-09
2.90521e-09
2.27168e-09
1.68789e-09
1.15807e-09
6.9058e-10
3.02428e-10
3.40282e-11
1.2341e-10
1.10373e-09
2.52567e-09
4.23119e-09
6.143e-09
8.21332e-09
1.04083e-08
1.27017e-08
1.50724e-08
1.75028e-08
1.99781e-08
2.24856e-08
2.50149e-08
2.75573e-08
3.01055e-08
3.2654e-08
3.51984e-08
3.77355e-08
4.02635e-08
4.27813e-08
4.52889e-08
4.77869e-08
5.02767e-08
5.27602e-08
5.52396e-08
5.77174e-08
6.01964e-08
6.26795e-08
6.51693e-08
6.76685e-08
7.01796e-08
7.27046e-08
7.52455e-08
7.78036e-08
8.038e-08
8.29753e-08
8.55896e-08
8.82225e-08
9.08733e-08
9.35406e-08
9.62227e-08
9.89174e-08
1.01622e-07
1.04333e-07
1.07048e-07
1.09762e-07
1.1247e-07
1.15169e-07
1.17852e-07
1.20514e-07
1.23149e-07
1.2575e-07
1.28312e-07
1.30825e-07
1.33283e-07
1.35678e-07
1.38001e-07
1.40244e-07
1.42398e-07
1.44454e-07
1.46402e-07
1.48232e-07
1.49936e-07
1.51502e-07
1.52922e-07
1.54186e-07
1.55283e-07
1.56206e-07
1.56944e-07
1.57489e-07
1.57828e-07
1.57957e-07
1.5788e-07
1.57583e-07
1.5706e-07
1.56307e-07
1.55321e-07
1.541e-07
1.52645e-07
1.50956e-07
1.49036e-07
1.46889e-07
1.44521e-07
1.41937e-07
1.39147e-07
1.3616e-07
1.32987e-07
1.29641e-07
1.26135e-07
1.22483e-07
1.18701e-07
1.14806e-07
1.10814e-07
1.06743e-07
1.02609e-07
9.84317e-08
9.42274e-08
9.00137e-08
8.58075e-08
8.16248e-08
7.7481e-08
7.33908e-08
6.93675e-08
6.54235e-08
6.15699e-08
5.78168e-08
5.41726e-08
5.06447e-08
4.72391e-08
4.39604e-08
4.08121e-08
3.77964e-08
3.49144e-08
3.21661e-08
2.95504e-08
2.70657e-08
2.47091e-08
2.24774e-08
2.03667e-08
1.83724e-08
1.649e-08
1.47144e-08
1.30406e-08
1.14637e-08
9.97907e-09
8.58235e-09
7.26999e-09
6.03936e-09
4.88912e-09
3.81984e-09
2.83476e-09
1.94136e-09
1.15443e-09
5.03446e-10
5.6258e-11
1.79126e-10
1.60595e-09
3.68325e-09
6.18184e-09
8.98754e-09
1.20289e-08
1.5255e-08
1.86268e-08
2.21127e-08
2.56865e-08
2.93261e-08
3.30131e-08
3.67319e-08
4.04697e-08
4.42158e-08
4.7962e-08
5.17019e-08
5.54311e-08
5.91467e-08
6.28472e-08
6.65328e-08
7.02043e-08
7.38639e-08
7.75144e-08
8.11592e-08
8.48022e-08
8.84473e-08
9.20987e-08
9.57607e-08
9.94369e-08
1.03131e-07
1.06846e-07
1.10585e-07
1.1435e-07
1.18142e-07
1.21962e-07
1.2581e-07
1.29685e-07
1.33586e-07
1.37512e-07
1.41459e-07
1.45424e-07
1.49402e-07
1.5339e-07
1.57382e-07
1.61372e-07
1.65352e-07
1.69317e-07
1.73258e-07
1.77166e-07
1.81033e-07
1.8485e-07
1.88605e-07
1.92289e-07
1.95889e-07
1.99396e-07
2.02795e-07
2.06076e-07
2.09224e-07
2.12226e-07
2.15068e-07
2.17738e-07
2.20219e-07
2.22499e-07
2.24563e-07
2.26397e-07
2.27987e-07
2.2932e-07
2.30382e-07
2.31161e-07
2.31635e-07
2.31804e-07
2.31673e-07
2.31217e-07
2.3043e-07
2.29306e-07
2.27841e-07
2.26032e-07
2.23879e-07
2.21384e-07
2.18551e-07
2.15385e-07
2.11894e-07
2.08089e-07
2.03981e-07
1.99585e-07
1.94916e-07
1.89994e-07
1.84838e-07
1.79469e-07
1.7391e-07
1.68185e-07
1.6232e-07
1.56338e-07
1.50267e-07
1.44132e-07
1.3796e-07
1.31775e-07
1.25602e-07
1.19464e-07
1.13386e-07
1.07387e-07
1.01488e-07
9.57061e-08
9.00584e-08
8.4559e-08
7.92205e-08
7.40535e-08
6.90666e-08
6.42666e-08
5.96584e-08
5.52451e-08
5.10282e-08
4.70076e-08
4.31818e-08
3.95479e-08
3.61018e-08
3.28387e-08
2.97527e-08
2.68373e-08
2.40854e-08
2.14898e-08
1.90431e-08
1.67381e-08
1.45677e-08
1.25259e-08
1.06074e-08
8.80831e-09
7.12689e-09
5.56411e-09
4.12504e-09
2.8211e-09
1.67447e-09
7.2857e-10
8.12148e-11
2.40623e-10
2.15974e-09
4.95993e-09
8.33476e-09
1.213e-08
1.6248e-08
2.06189e-08
2.51888e-08
2.99144e-08
3.47596e-08
3.96944e-08
4.46934e-08
4.97355e-08
5.48029e-08
5.98816e-08
6.496e-08
7.00298e-08
7.50848e-08
8.01212e-08
8.51372e-08
9.01328e-08
9.51097e-08
1.00071e-07
1.0502e-07
1.09961e-07
1.14901e-07
1.19844e-07
1.24797e-07
1.29764e-07
1.34752e-07
1.39764e-07
1.44806e-07
1.4988e-07
1.54989e-07
1.60135e-07
1.65319e-07
1.70541e-07
1.75799e-07
1.81092e-07
1.86417e-07
1.9177e-07
1.97145e-07
2.02538e-07
2.0794e-07
2.13346e-07
2.18747e-07
2.24133e-07
2.29495e-07
2.34821e-07
2.40101e-07
2.45322e-07
2.50471e-07
2.55534e-07
2.60498e-07
2.65346e-07
2.70064e-07
2.74635e-07
2.79042e-07
2.83268e-07
2.87295e-07
2.91104e-07
2.94678e-07
2.97996e-07
3.01042e-07
3.03794e-07
3.06236e-07
3.08348e-07
3.10112e-07
3.11512e-07
3.12529e-07
3.13132e-07
3.13329e-07
3.13121e-07
3.12475e-07
3.11382e-07
3.09835e-07
3.07828e-07
3.05358e-07
3.02425e-07
2.9903e-07
2.95179e-07
2.90879e-07
2.86141e-07
2.80979e-07
2.75408e-07
2.69448e-07
2.63121e-07
2.56451e-07
2.49466e-07
2.42193e-07
2.34665e-07
2.26914e-07
2.18972e-07
2.10876e-07
2.0266e-07
1.94359e-07
1.86008e-07
1.77643e-07
1.69295e-07
1.60999e-07
1.52783e-07
1.44678e-07
1.36709e-07
1.28901e-07
1.21276e-07
1.13853e-07
1.0665e-07
9.96802e-08
9.29552e-08
8.6484e-08
8.0273e-08
7.43263e-08
6.86455e-08
6.32305e-08
5.80788e-08
5.31865e-08
4.8548e-08
4.41563e-08
4.00034e-08
3.60805e-08
3.23779e-08
2.88858e-08
2.55941e-08
2.24929e-08
1.9573e-08
1.6826e-08
1.42448e-08
1.18245e-08
9.56283e-09
7.46127e-09
5.52709e-09
3.77612e-09
2.23858e-09
9.72716e-10
1.08306e-10
3.07436e-10
2.76114e-09
6.34623e-09
1.06732e-08
1.55448e-08
2.08354e-08
2.64544e-08
3.23317e-08
3.84107e-08
4.46448e-08
5.09947e-08
5.74275e-08
6.39158e-08
7.04368e-08
7.69719e-08
8.35066e-08
9.00298e-08
9.65339e-08
1.03014e-07
1.09467e-07
1.15895e-07
1.22299e-07
1.28682e-07
1.3505e-07
1.4141e-07
1.47767e-07
1.5413e-07
1.60506e-07
1.66901e-07
1.73322e-07
1.79776e-07
1.86268e-07
1.92802e-07
1.9938e-07
2.06006e-07
2.12679e-07
2.194e-07
2.26166e-07
2.32975e-07
2.39821e-07
2.46701e-07
2.53607e-07
2.60532e-07
2.67466e-07
2.74399e-07
2.81322e-07
2.88221e-07
2.95083e-07
3.01896e-07
3.08644e-07
3.15311e-07
3.21881e-07
3.28336e-07
3.34659e-07
3.40829e-07
3.46828e-07
3.52635e-07
3.58229e-07
3.63587e-07
3.68687e-07
3.73508e-07
3.78024e-07
3.82214e-07
3.86052e-07
3.89517e-07
3.92583e-07
3.95229e-07
3.97431e-07
3.99168e-07
4.00418e-07
4.01133e-07
4.01341e-07
4.01031e-07
4.00163e-07
3.98724e-07
3.96707e-07
3.94102e-07
3.90908e-07
3.87122e-07
3.82747e-07
3.7779e-07
3.72259e-07
3.66169e-07
3.59535e-07
3.5238e-07
3.44726e-07
3.36603e-07
3.28041e-07
3.19075e-07
3.09742e-07
3.00081e-07
2.90135e-07
2.79946e-07
2.6956e-07
2.59021e-07
2.48376e-07
2.37668e-07
2.26943e-07
2.16243e-07
2.05611e-07
1.95085e-07
1.84702e-07
1.74498e-07
1.64503e-07
1.54745e-07
1.45249e-07
1.36036e-07
1.27125e-07
1.18529e-07
1.10261e-07
1.02328e-07
9.47344e-08
8.74828e-08
8.05722e-08
7.39995e-08
6.77592e-08
6.18438e-08
5.62442e-08
5.09501e-08
4.59497e-08
4.12306e-08
3.67801e-08
3.25851e-08
2.86331e-08
2.49122e-08
2.14115e-08
1.81224e-08
1.50385e-08
1.21571e-08
9.48062e-09
7.01859e-09
4.79155e-09
2.83819e-09
1.23224e-09
1.37118e-10
3.79335e-10
3.40815e-09
7.83751e-09
1.31889e-08
1.92194e-08
2.57735e-08
3.27383e-08
4.00264e-08
4.7567e-08
5.53014e-08
6.31807e-08
7.11635e-08
7.92154e-08
8.7308e-08
9.5418e-08
1.03527e-07
1.11622e-07
1.19693e-07
1.27733e-07
1.35741e-07
1.43716e-07
1.51661e-07
1.59582e-07
1.67484e-07
1.75375e-07
1.83265e-07
1.91161e-07
1.99074e-07
2.07011e-07
2.14981e-07
2.2299e-07
2.31046e-07
2.39153e-07
2.47315e-07
2.55532e-07
2.63807e-07
2.72137e-07
2.8052e-07
2.88952e-07
2.97426e-07
3.05936e-07
3.14472e-07
3.23025e-07
3.31583e-07
3.40134e-07
3.48663e-07
3.57156e-07
3.65597e-07
3.73967e-07
3.8225e-07
3.90426e-07
3.98475e-07
4.06375e-07
4.14104e-07
4.2164e-07
4.28959e-07
4.36035e-07
4.42844e-07
4.4936e-07
4.55556e-07
4.61404e-07
4.66876e-07
4.71946e-07
4.76583e-07
4.80761e-07
4.8445e-07
4.87624e-07
4.90255e-07
4.92315e-07
4.93781e-07
4.94584e-07
4.94782e-07
4.94341e-07
4.93216e-07
4.91393e-07
4.88861e-07
4.8561e-07
4.81636e-07
4.76937e-07
4.71516e-07
4.65379e-07
4.58538e-07
4.51009e-07
4.42813e-07
4.33974e-07
4.24521e-07
4.1449e-07
4.03919e-07
3.92849e-07
3.81326e-07
3.694e-07
3.57121e-07
3.44543e-07
3.31722e-07
3.18713e-07
3.05573e-07
2.92358e-07
2.79122e-07
2.6592e-07
2.52803e-07
2.3982e-07
2.27016e-07
2.14435e-07
2.02115e-07
1.9009e-07
1.78392e-07
1.67047e-07
1.56076e-07
1.45497e-07
1.35325e-07
1.25568e-07
1.16232e-07
1.0732e-07
9.88289e-08
9.07556e-08
8.30926e-08
7.58306e-08
6.89578e-08
6.24611e-08
5.63258e-08
5.05365e-08
4.50772e-08
3.99317e-08
3.50844e-08
3.05207e-08
2.62273e-08
2.21935e-08
1.84118e-08
1.48791e-08
1.15987e-08
8.58248e-09
5.85603e-09
3.46672e-09
1.50432e-09
1.67331e-10
4.56235e-10
4.10007e-09
9.43208e-09
1.58788e-08
2.3149e-08
3.10553e-08
3.94615e-08
4.82615e-08
5.73691e-08
6.67129e-08
7.62333e-08
8.58798e-08
9.56104e-08
1.0539e-07
1.15191e-07
1.24991e-07
1.34773e-07
1.44525e-07
1.54239e-07
1.63914e-07
1.73549e-07
1.83147e-07
1.92715e-07
2.0226e-07
2.11793e-07
2.21322e-07
2.3086e-07
2.40417e-07
2.50002e-07
2.59626e-07
2.69297e-07
2.79021e-07
2.88805e-07
2.9865e-07
3.0856e-07
3.18533e-07
3.28568e-07
3.3866e-07
3.48803e-07
3.5899e-07
3.69211e-07
3.79455e-07
3.89709e-07
3.99959e-07
4.10189e-07
4.20383e-07
4.30522e-07
4.40587e-07
4.50558e-07
4.60412e-07
4.70127e-07
4.7968e-07
4.89045e-07
4.98198e-07
5.0711e-07
5.15755e-07
5.24105e-07
5.32129e-07
5.39798e-07
5.47081e-07
5.53947e-07
5.60363e-07
5.66297e-07
5.71716e-07
5.76588e-07
5.80879e-07
5.84558e-07
5.87592e-07
5.8995e-07
5.91602e-07
5.92459e-07
5.9262e-07
5.92015e-07
5.90597e-07
5.88352e-07
5.85263e-07
5.81322e-07
5.76521e-07
5.70859e-07
5.64337e-07
5.56964e-07
5.48752e-07
5.39719e-07
5.2989e-07
5.19293e-07
5.07963e-07
4.95941e-07
4.83272e-07
4.70006e-07
4.56197e-07
4.41903e-07
4.27187e-07
4.12112e-07
3.96744e-07
3.8115e-07
3.65398e-07
3.49557e-07
3.33691e-07
3.17865e-07
3.02142e-07
2.86582e-07
2.71238e-07
2.56163e-07
2.41403e-07
2.27001e-07
2.12992e-07
1.9941e-07
1.8628e-07
1.73623e-07
1.61456e-07
1.49789e-07
1.3863e-07
1.2798e-07
1.17837e-07
1.08196e-07
9.90482e-08
9.0381e-08
8.21806e-08
7.44305e-08
6.71131e-08
6.02094e-08
5.37e-08
4.75654e-08
4.17868e-08
3.63464e-08
3.12287e-08
2.64208e-08
2.19138e-08
1.77044e-08
1.37966e-08
1.02051e-08
6.96043e-09
4.11884e-09
1.78664e-09
1.98689e-10
5.38148e-10
4.83701e-09
1.11303e-08
1.87435e-08
2.73342e-08
3.66814e-08
4.66243e-08
5.70368e-08
6.78167e-08
7.88789e-08
9.0152e-08
1.01576e-07
1.131e-07
1.24683e-07
1.3629e-07
1.47895e-07
1.59478e-07
1.71024e-07
1.82526e-07
1.93978e-07
2.05381e-07
2.1674e-07
2.28062e-07
2.39356e-07
2.50633e-07
2.61906e-07
2.73186e-07
2.84486e-07
2.95819e-07
3.07194e-07
3.1862e-07
3.30106e-07
3.41655e-07
3.53273e-07
3.64958e-07
3.76711e-07
3.88527e-07
4.004e-07
4.12324e-07
4.24286e-07
4.36276e-07
4.48279e-07
4.6028e-07
4.72262e-07
4.84206e-07
4.96093e-07
5.07899e-07
5.19605e-07
5.31184e-07
5.42613e-07
5.53866e-07
5.64916e-07
5.75735e-07
5.86294e-07
5.96562e-07
6.06509e-07
6.16104e-07
6.25313e-07
6.34102e-07
6.42437e-07
6.50283e-07
6.57604e-07
6.64363e-07
6.70524e-07
6.76049e-07
6.80902e-07
6.85044e-07
6.88442e-07
6.91057e-07
6.92849e-07
6.93718e-07
6.9381e-07
6.93e-07
6.91251e-07
6.88543e-07
6.8486e-07
6.80189e-07
6.74522e-07
6.67857e-07
6.60194e-07
6.51543e-07
6.41918e-07
6.31337e-07
6.1983e-07
6.07428e-07
5.94171e-07
5.80106e-07
5.65284e-07
5.49764e-07
5.33608e-07
5.16883e-07
4.99661e-07
4.82016e-07
4.64026e-07
4.4577e-07
4.27325e-07
4.08773e-07
3.9019e-07
3.71652e-07
3.53234e-07
3.35005e-07
3.17029e-07
2.99369e-07
2.82079e-07
2.65209e-07
2.48803e-07
2.32898e-07
2.17526e-07
2.02711e-07
1.88473e-07
1.74825e-07
1.61773e-07
1.49321e-07
1.37466e-07
1.26201e-07
1.15514e-07
1.05393e-07
9.5819e-08
8.67732e-08
7.82342e-08
7.01795e-08
6.25861e-08
5.54308e-08
4.86914e-08
4.23471e-08
3.63796e-08
3.07738e-08
2.55195e-08
2.0613e-08
1.60592e-08
1.18755e-08
8.0973e-09
4.79019e-09
2.07734e-09
2.30981e-10
6.25154e-10
5.61967e-09
1.29337e-08
2.17858e-08
3.17789e-08
4.26571e-08
5.42331e-08
6.63603e-08
7.89192e-08
9.181e-08
1.04949e-07
1.18265e-07
1.31699e-07
1.45201e-07
1.58731e-07
1.72257e-07
1.85755e-07
1.99208e-07
2.12606e-07
2.25945e-07
2.39224e-07
2.52448e-07
2.65626e-07
2.78768e-07
2.91888e-07
3.04999e-07
3.18115e-07
3.3125e-07
3.44418e-07
3.57629e-07
3.70894e-07
3.8422e-07
3.97611e-07
4.11071e-07
4.246e-07
4.38193e-07
4.51847e-07
4.65553e-07
4.793e-07
4.93076e-07
5.06866e-07
5.20653e-07
5.34418e-07
5.48142e-07
5.61803e-07
5.75378e-07
5.88842e-07
6.0217e-07
6.15335e-07
6.2831e-07
6.41066e-07
6.53573e-07
6.658e-07
6.77716e-07
6.89288e-07
7.00482e-07
7.11263e-07
7.21596e-07
7.31444e-07
7.40769e-07
7.49532e-07
7.57693e-07
7.65214e-07
7.72053e-07
7.78169e-07
7.83521e-07
7.88069e-07
7.91772e-07
7.94591e-07
7.9646e-07
7.97296e-07
7.97274e-07
7.96215e-07
7.9409e-07
7.9088e-07
7.86565e-07
7.81131e-07
7.74567e-07
7.6687e-07
7.58041e-07
7.48089e-07
7.37028e-07
7.24881e-07
7.11676e-07
6.97451e-07
6.8225e-07
6.66124e-07
6.49132e-07
6.31337e-07
6.12811e-07
5.9363e-07
5.73875e-07
5.53631e-07
5.32985e-07
5.12027e-07
4.90848e-07
4.69538e-07
4.48188e-07
4.26886e-07
4.05715e-07
3.84756e-07
3.64087e-07
3.43777e-07
3.23891e-07
3.04487e-07
2.85616e-07
2.67322e-07
2.49641e-07
2.32604e-07
2.16233e-07
2.00542e-07
1.85541e-07
1.71232e-07
1.57612e-07
1.44674e-07
1.32404e-07
1.20786e-07
1.098e-07
9.94219e-08
8.9628e-08
8.03916e-08
7.16857e-08
6.34836e-08
5.57594e-08
4.84888e-08
4.16507e-08
3.52279e-08
2.92087e-08
2.35888e-08
1.83741e-08
1.35845e-08
9.26058e-09
5.47724e-09
2.37487e-09
2.64036e-10
7.17373e-10
6.44917e-09
1.48451e-08
2.50099e-08
3.64896e-08
4.89909e-08
6.2299e-08
7.62455e-08
9.06926e-08
1.05525e-07
1.20645e-07
1.35971e-07
1.51432e-07
1.66972e-07
1.82542e-07
1.98105e-07
2.13632e-07
2.29104e-07
2.44509e-07
2.5984e-07
2.75097e-07
2.90287e-07
3.05418e-07
3.20503e-07
3.35556e-07
3.50592e-07
3.65628e-07
3.80679e-07
3.95758e-07
4.10878e-07
4.26049e-07
4.41278e-07
4.5657e-07
4.71925e-07
4.87342e-07
5.02817e-07
5.18341e-07
5.33904e-07
5.49494e-07
5.65094e-07
5.80686e-07
5.96252e-07
6.11768e-07
6.27214e-07
6.42563e-07
6.5779e-07
6.72867e-07
6.87768e-07
7.02462e-07
7.1692e-07
7.31111e-07
7.45002e-07
7.58561e-07
7.71754e-07
7.84546e-07
7.96901e-07
8.08781e-07
8.20149e-07
8.30965e-07
8.41189e-07
8.50779e-07
8.59693e-07
8.67887e-07
8.75318e-07
8.81941e-07
8.87712e-07
8.92586e-07
8.9652e-07
8.99469e-07
9.01341e-07
9.02106e-07
9.01904e-07
9.00543e-07
8.97999e-07
8.94246e-07
8.89266e-07
8.8304e-07
8.75559e-07
8.66815e-07
8.56812e-07
8.45555e-07
8.33061e-07
8.19354e-07
8.04464e-07
7.88431e-07
7.71304e-07
7.53136e-07
7.33993e-07
7.13945e-07
6.9307e-07
6.71451e-07
6.49179e-07
6.26348e-07
6.03055e-07
5.794e-07
5.55485e-07
5.31413e-07
5.07285e-07
4.83199e-07
4.59253e-07
4.35539e-07
4.12142e-07
3.89145e-07
3.66622e-07
3.44639e-07
3.23256e-07
3.02524e-07
2.82486e-07
2.63176e-07
2.44621e-07
2.26838e-07
2.09839e-07
1.93627e-07
1.78199e-07
1.63546e-07
1.49653e-07
1.36501e-07
1.24068e-07
1.12326e-07
1.01249e-07
9.08037e-08
8.09611e-08
7.169e-08
6.29605e-08
5.47451e-08
4.70196e-08
3.97642e-08
3.29657e-08
2.66193e-08
2.07316e-08
1.5325e-08
1.04455e-08
6.17715e-09
2.67802e-09
2.97718e-10
8.14957e-10
7.3269e-09
1.68675e-08
2.84215e-08
4.14743e-08
5.56936e-08
7.08358e-08
8.67093e-08
1.03157e-07
1.20047e-07
1.37267e-07
1.54723e-07
1.72333e-07
1.9003e-07
2.07759e-07
2.25476e-07
2.43147e-07
2.60749e-07
2.78266e-07
2.95693e-07
3.13028e-07
3.30278e-07
3.47453e-07
3.64566e-07
3.81634e-07
3.98673e-07
4.15701e-07
4.32735e-07
4.49788e-07
4.66874e-07
4.84002e-07
5.01179e-07
5.18408e-07
5.3569e-07
5.53019e-07
5.70391e-07
5.87793e-07
6.05213e-07
6.22635e-07
6.4004e-07
6.57407e-07
6.74715e-07
6.91938e-07
7.09051e-07
7.26027e-07
7.42837e-07
7.59452e-07
7.75842e-07
7.91976e-07
8.07822e-07
8.23347e-07
8.38519e-07
8.53301e-07
8.6766e-07
8.81558e-07
8.94958e-07
9.07821e-07
9.20106e-07
9.31774e-07
9.4278e-07
9.53082e-07
9.62634e-07
9.71391e-07
9.79306e-07
9.86331e-07
9.9242e-07
9.97524e-07
1.0016e-06
1.00459e-06
1.00638e-06
1.00702e-06
1.00657e-06
1.00485e-06
1.00184e-06
9.97511e-07
9.91837e-07
9.84803e-07
9.76395e-07
9.66607e-07
9.5544e-07
9.42899e-07
9.29002e-07
9.13771e-07
8.9724e-07
8.7945e-07
8.60451e-07
8.40303e-07
8.19072e-07
7.96835e-07
7.73675e-07
7.49683e-07
7.24955e-07
6.99594e-07
6.73707e-07
6.47404e-07
6.20795e-07
5.93995e-07
5.67116e-07
5.40268e-07
5.13559e-07
4.87092e-07
4.60965e-07
4.35271e-07
4.10094e-07
3.8551e-07
3.61588e-07
3.38387e-07
3.15956e-07
2.94336e-07
2.73557e-07
2.53643e-07
2.34605e-07
2.1645e-07
1.99174e-07
1.82768e-07
1.67217e-07
1.52498e-07
1.38587e-07
1.25453e-07
1.13065e-07
1.01387e-07
9.0386e-08
8.00259e-08
7.02734e-08
6.10971e-08
5.24695e-08
4.43685e-08
3.67788e-08
2.96951e-08
2.31244e-08
1.70918e-08
1.16484e-08
6.88781e-09
2.98588e-09
3.31926e-10
9.18074e-10
8.25437e-09
1.90045e-08
3.20264e-08
4.67418e-08
6.27773e-08
7.98589e-08
9.77708e-08
1.16335e-07
1.35403e-07
1.54846e-07
1.74555e-07
1.94437e-07
2.14415e-07
2.34423e-07
2.5441e-07
2.74338e-07
2.94178e-07
3.13913e-07
3.33534e-07
3.53041e-07
3.72439e-07
3.9174e-07
4.10958e-07
4.30112e-07
4.49219e-07
4.68299e-07
4.87368e-07
5.06441e-07
5.25532e-07
5.44649e-07
5.63798e-07
5.82981e-07
6.02196e-07
6.21436e-07
6.40693e-07
6.59953e-07
6.792e-07
6.98415e-07
7.17577e-07
7.36661e-07
7.55643e-07
7.74496e-07
7.93191e-07
8.11699e-07
8.2999e-07
8.48033e-07
8.65797e-07
8.8325e-07
9.00357e-07
9.17086e-07
9.33403e-07
9.49271e-07
9.64655e-07
9.79516e-07
9.93818e-07
1.00752e-06
1.02058e-06
1.03295e-06
1.0446e-06
1.05547e-06
1.06553e-06
1.07471e-06
1.08298e-06
1.09028e-06
1.09657e-06
1.10179e-06
1.1059e-06
1.10884e-06
1.11046e-06
1.11091e-06
1.11014e-06
1.10801e-06
1.10449e-06
1.09955e-06
1.09316e-06
1.08531e-06
1.07599e-06
1.06518e-06
1.05288e-06
1.0391e-06
1.02386e-06
1.00718e-06
9.89087e-07
9.69628e-07
9.48855e-07
9.26827e-07
9.03615e-07
8.79298e-07
8.53963e-07
8.27707e-07
8.00631e-07
7.72845e-07
7.44462e-07
7.15602e-07
6.86384e-07
6.56931e-07
6.27366e-07
5.97811e-07
5.68385e-07
5.39201e-07
5.1037e-07
4.81995e-07
4.54171e-07
4.26984e-07
4.00514e-07
3.74827e-07
3.49981e-07
3.26025e-07
3.02993e-07
2.80914e-07
2.59804e-07
2.3967e-07
2.20512e-07
2.02319e-07
1.85075e-07
1.68758e-07
1.53338e-07
1.38784e-07
1.25059e-07
1.12126e-07
9.99451e-08
8.84774e-08
7.76851e-08
6.7533e-08
5.79903e-08
4.90318e-08
4.06404e-08
3.28098e-08
2.55476e-08
1.88813e-08
1.28669e-08
7.60779e-09
3.2978e-09
3.66589e-10
1.0269e-09
9.23321e-09
2.12598e-08
3.5831e-08
5.23015e-08
7.02547e-08
8.93847e-08
1.0945e-07
1.30252e-07
1.51621e-07
1.73413e-07
1.95502e-07
2.17783e-07
2.40164e-07
2.62573e-07
2.84948e-07
3.07245e-07
3.29429e-07
3.51481e-07
3.7339e-07
3.95154e-07
4.1678e-07
4.3828e-07
4.59669e-07
4.80968e-07
5.02194e-07
5.23368e-07
5.44508e-07
5.65629e-07
5.86744e-07
6.0786e-07
6.28983e-07
6.50111e-07
6.71242e-07
6.92365e-07
7.13469e-07
7.34538e-07
7.55553e-07
7.76491e-07
7.97329e-07
8.1804e-07
8.38596e-07
8.58969e-07
8.79129e-07
8.99044e-07
9.18683e-07
9.38014e-07
9.57006e-07
9.75624e-07
9.93836e-07
1.01161e-06
1.02891e-06
1.04569e-06
1.06193e-06
1.07759e-06
1.09262e-06
1.10699e-06
1.12065e-06
1.13357e-06
1.14569e-06
1.15697e-06
1.16737e-06
1.17683e-06
1.1853e-06
1.19274e-06
1.19909e-06
1.20431e-06
1.20834e-06
1.21111e-06
1.21246e-06
1.21266e-06
1.2115e-06
1.20891e-06
1.20483e-06
1.19926e-06
1.19216e-06
1.18351e-06
1.17329e-06
1.16151e-06
1.14814e-06
1.13321e-06
1.11671e-06
1.09868e-06
1.07914e-06
1.05814e-06
1.03573e-06
1.01197e-06
9.86929e-07
9.60687e-07
9.33334e-07
9.04968e-07
8.75697e-07
8.45634e-07
8.14898e-07
7.83614e-07
7.51912e-07
7.19921e-07
6.87774e-07
6.55603e-07
6.23536e-07
5.91701e-07
5.60218e-07
5.29201e-07
4.98758e-07
4.68986e-07
4.39974e-07
4.118e-07
3.84529e-07
3.58219e-07
3.32912e-07
3.08642e-07
2.85429e-07
2.63285e-07
2.4221e-07
2.22196e-07
2.03227e-07
1.85278e-07
1.6832e-07
1.52317e-07
1.3723e-07
1.23017e-07
1.09635e-07
9.70399e-08
8.51908e-08
7.40481e-08
6.35771e-08
5.37498e-08
4.45468e-08
3.59605e-08
2.79988e-08
2.06915e-08
1.40997e-08
8.33628e-09
3.61346e-09
4.01669e-10
1.14163e-09
1.0265e-08
2.36372e-08
3.98418e-08
5.81628e-08
7.81385e-08
9.94297e-08
1.21768e-07
1.44931e-07
1.68729e-07
1.92999e-07
2.17598e-07
2.42406e-07
2.67318e-07
2.92248e-07
3.17127e-07
3.41901e-07
3.66533e-07
3.90996e-07
4.15279e-07
4.3938e-07
4.63303e-07
4.87063e-07
5.10676e-07
5.34162e-07
5.57542e-07
5.80837e-07
6.04065e-07
6.27241e-07
6.50377e-07
6.7348e-07
6.96553e-07
7.19593e-07
7.42594e-07
7.65544e-07
7.88428e-07
8.11228e-07
8.3392e-07
8.56482e-07
8.78885e-07
9.01101e-07
9.23101e-07
9.44854e-07
9.66329e-07
9.87494e-07
1.00832e-06
1.02877e-06
1.04881e-06
1.06841e-06
1.08754e-06
1.10617e-06
1.12426e-06
1.14177e-06
1.15867e-06
1.17492e-06
1.19049e-06
1.20533e-06
1.21941e-06
1.23267e-06
1.24508e-06
1.25659e-06
1.26715e-06
1.27671e-06
1.28523e-06
1.29265e-06
1.29892e-06
1.304e-06
1.30783e-06
1.31029e-06
1.31132e-06
1.31118e-06
1.30957e-06
1.30646e-06
1.30182e-06
1.2956e-06
1.2878e-06
1.27838e-06
1.26733e-06
1.25464e-06
1.24029e-06
1.22431e-06
1.20668e-06
1.18744e-06
1.16662e-06
1.14425e-06
1.12038e-06
1.09507e-06
1.0684e-06
1.04043e-06
1.01125e-06
9.8098e-07
9.4971e-07
9.17561e-07
8.84656e-07
8.51124e-07
8.171e-07
7.82722e-07
7.48131e-07
7.13467e-07
6.7887e-07
6.44476e-07
6.10418e-07
5.76822e-07
5.43807e-07
5.11484e-07
4.79951e-07
4.49298e-07
4.19603e-07
3.90929e-07
3.6333e-07
3.36844e-07
3.11501e-07
2.87315e-07
2.6429e-07
2.42421e-07
2.21692e-07
2.02078e-07
1.83548e-07
1.66065e-07
1.49587e-07
1.34068e-07
1.19461e-07
1.05718e-07
9.27938e-08
8.06444e-08
6.92313e-08
5.85231e-08
4.8498e-08
3.91468e-08
3.04777e-08
2.25221e-08
1.53465e-08
9.07316e-09
3.93278e-09
4.3716e-10
1.26241e-09
1.13513e-08
2.61403e-08
4.40647e-08
6.43347e-08
8.64411e-08
1.1001e-07
1.34744e-07
1.60396e-07
1.86754e-07
2.13635e-07
2.40877e-07
2.68342e-07
2.95911e-07
3.23483e-07
3.50979e-07
3.78338e-07
4.05513e-07
4.32476e-07
4.59211e-07
4.85715e-07
5.11994e-07
5.38061e-07
5.63935e-07
5.89637e-07
6.15189e-07
6.40611e-07
6.65923e-07
6.91139e-07
7.1627e-07
7.41323e-07
7.66297e-07
7.91188e-07
8.15987e-07
8.40679e-07
8.65247e-07
8.89669e-07
9.1392e-07
9.37973e-07
9.618e-07
9.85369e-07
1.00865e-06
1.03161e-06
1.05423e-06
1.07646e-06
1.09827e-06
1.11964e-06
1.14053e-06
1.16091e-06
1.18075e-06
1.20002e-06
1.21868e-06
1.2367e-06
1.25404e-06
1.27067e-06
1.28656e-06
1.30166e-06
1.31593e-06
1.32933e-06
1.34182e-06
1.35336e-06
1.36389e-06
1.37337e-06
1.38176e-06
1.389e-06
1.39504e-06
1.39983e-06
1.40333e-06
1.40536e-06
1.40605e-06
1.40545e-06
1.40334e-06
1.39969e-06
1.39446e-06
1.38762e-06
1.37914e-06
1.36901e-06
1.3572e-06
1.3437e-06
1.3285e-06
1.3116e-06
1.29301e-06
1.27274e-06
1.25082e-06
1.22729e-06
1.20218e-06
1.17555e-06
1.14747e-06
1.11802e-06
1.08727e-06
1.05532e-06
1.02229e-06
9.8829e-07
9.53439e-07
9.17872e-07
8.81727e-07
8.45149e-07
8.08284e-07
7.71281e-07
7.34289e-07
6.97454e-07
6.60922e-07
6.2483e-07
5.89309e-07
5.54483e-07
5.20463e-07
4.87352e-07
4.55237e-07
4.24196e-07
3.94291e-07
3.6557e-07
3.38068e-07
3.11808e-07
2.86798e-07
2.63036e-07
2.40509e-07
2.19192e-07
1.99054e-07
1.80056e-07
1.62154e-07
1.45299e-07
1.2944e-07
1.14526e-07
1.00505e-07
8.73304e-08
7.49592e-08
6.33566e-08
5.24976e-08
4.23715e-08
3.2986e-08
2.43746e-08
1.66082e-08
9.81888e-09
4.25597e-09
4.73081e-10
1.38942e-09
1.24936e-08
2.87724e-08
4.85055e-08
7.08257e-08
9.51741e-08
1.2114e-07
1.48396e-07
1.76668e-07
2.05722e-07
2.35349e-07
2.65369e-07
2.95622e-07
3.25973e-07
3.56307e-07
3.86531e-07
4.16574e-07
4.46383e-07
4.75925e-07
5.05181e-07
5.34145e-07
5.62824e-07
5.91233e-07
6.19389e-07
6.47316e-07
6.75037e-07
7.02572e-07
7.29942e-07
7.5716e-07
7.84236e-07
8.11175e-07
8.37975e-07
8.64629e-07
8.91124e-07
9.17446e-07
9.43572e-07
9.69478e-07
9.95138e-07
1.02052e-06
1.0456e-06
1.07034e-06
1.09472e-06
1.11869e-06
1.14223e-06
1.16531e-06
1.1879e-06
1.20997e-06
1.23148e-06
1.2524e-06
1.27271e-06
1.29238e-06
1.31138e-06
1.32966e-06
1.34721e-06
1.36399e-06
1.37996e-06
1.39508e-06
1.40932e-06
1.42264e-06
1.435e-06
1.44635e-06
1.45665e-06
1.46586e-06
1.47393e-06
1.48082e-06
1.48647e-06
1.49085e-06
1.49389e-06
1.4954e-06
1.49568e-06
1.49456e-06
1.4919e-06
1.48769e-06
1.48188e-06
1.47444e-06
1.46535e-06
1.45459e-06
1.44212e-06
1.42794e-06
1.41203e-06
1.3944e-06
1.37503e-06
1.35394e-06
1.33115e-06
1.30669e-06
1.2806e-06
1.25291e-06
1.2237e-06
1.19304e-06
1.16099e-06
1.12765e-06
1.09313e-06
1.05754e-06
1.02101e-06
9.83652e-07
9.45621e-07
9.0706e-07
8.68123e-07
8.28963e-07
7.89738e-07
7.50606e-07
7.11721e-07
6.73234e-07
6.35289e-07
5.98022e-07
5.6156e-07
5.26019e-07
4.91499e-07
4.58091e-07
4.25868e-07
3.9489e-07
3.65202e-07
3.36833e-07
3.09799e-07
2.84103e-07
2.59735e-07
2.36672e-07
2.14884e-07
1.94331e-07
1.74968e-07
1.56742e-07
1.39599e-07
1.23485e-07
1.08342e-07
9.41207e-08
8.07728e-08
6.82595e-08
5.65529e-08
4.564e-08
3.55279e-08
2.62516e-08
1.78866e-08
1.05745e-08
4.58348e-09
5.09485e-10
1.5228e-09
1.36932e-08
3.15365e-08
5.31694e-08
7.76433e-08
1.04348e-07
1.32833e-07
1.6274e-07
1.93768e-07
2.25654e-07
2.58165e-07
2.91098e-07
3.24271e-07
3.57529e-07
3.9074e-07
4.23798e-07
4.56621e-07
4.89147e-07
5.21338e-07
5.5317e-07
5.84638e-07
6.15748e-07
6.46514e-07
6.76956e-07
7.07099e-07
7.36965e-07
7.66578e-07
7.95956e-07
8.25114e-07
8.54059e-07
8.82795e-07
9.11317e-07
9.39618e-07
9.67682e-07
9.9549e-07
1.02302e-06
1.05024e-06
1.07713e-06