/*--------------------------------*- C++ -*----------------------------------*\
  =========                 |
  \\      /  F ield         | OpenFOAM: The Open Source CFD Toolbox
   \\    /   O peration     | Website:  https://openfoam.org
    \\  /    A nd           | Version:  12
     \\/     M anipulation  |
\*---------------------------------------------------------------------------*/
FoamFile
{
    format      ascii;
    class       volScalarField;
    location    "7";
    object      nut;
}
// * * * * * * * * * * * * * * * * * * * * * * * * * * * * * * * * * * * * * //

dimensions      [0 2 -1 0 0 0 0];

internalField   nonuniform List<scalar> 
18225
(
1.66606e-16
8.32594e-16
1.82211e-15
3.01035e-15
4.34169e-15
5.78326e-15
7.31186e-15
8.90948e-15
1.05614e-14
1.22554e-14
1.39812e-14
1.573e-14
1.74944e-14
1.92683e-14
2.10467e-14
2.28256e-14
2.4602e-14
2.63736e-14
2.8139e-14
2.98975e-14
3.1649e-14
3.33938e-14
3.5133e-14
3.68676e-14
3.85992e-14
4.03295e-14
4.20605e-14
4.37939e-14
4.55318e-14
4.72758e-14
4.90278e-14
5.07891e-14
5.25611e-14
5.43448e-14
5.61409e-14
5.79499e-14
5.97719e-14
6.16067e-14
6.34537e-14
6.53122e-14
6.71809e-14
6.90585e-14
7.0943e-14
7.28324e-14
7.47243e-14
7.66159e-14
7.85043e-14
8.0386e-14
8.22576e-14
8.41151e-14
8.59543e-14
8.77708e-14
8.95599e-14
9.13164e-14
9.30352e-14
9.47106e-14
9.6337e-14
9.79082e-14
9.9418e-14
1.0086e-13
1.02228e-13
1.03514e-13
1.04713e-13
1.05817e-13
1.06819e-13
1.07712e-13
1.0849e-13
1.09146e-13
1.09674e-13
1.10068e-13
1.1032e-13
1.10425e-13
1.10384e-13
1.1019e-13
1.09838e-13
1.09326e-13
1.0865e-13
1.07811e-13
1.06807e-13
1.05639e-13
1.04309e-13
1.02821e-13
1.01176e-13
9.93809e-14
9.74405e-14
9.53618e-14
9.31524e-14
9.08209e-14
8.83768e-14
8.58301e-14
8.31917e-14
8.0473e-14
7.76857e-14
7.48419e-14
7.1954e-14
6.90342e-14
6.60949e-14
6.31481e-14
6.02057e-14
5.72789e-14
5.43786e-14
5.1515e-14
4.86975e-14
4.59349e-14
4.3235e-14
4.06048e-14
3.80504e-14
3.5577e-14
3.31887e-14
3.0889e-14
2.86804e-14
2.65643e-14
2.45417e-14
2.26127e-14
2.07766e-14
1.90321e-14
1.73773e-14
1.581e-14
1.43275e-14
1.29267e-14
1.16043e-14
1.03569e-14
9.18114e-15
8.07344e-15
7.03061e-15
6.0497e-15
5.12823e-15
4.26437e-15
3.45722e-15
2.70714e-15
2.01636e-15
1.38994e-15
8.38034e-16
3.82108e-16
7.6422e-17
8.33094e-16
7.55561e-14
2.56572e-13
4.74068e-13
7.1163e-13
9.65114e-13
1.23171e-12
1.50898e-12
1.79476e-12
2.08713e-12
2.38444e-12
2.68525e-12
2.98838e-12
3.29282e-12
3.59774e-12
3.90249e-12
4.20657e-12
4.50961e-12
4.8114e-12
5.11182e-12
5.41087e-12
5.70863e-12
6.00528e-12
6.30103e-12
6.59616e-12
6.89097e-12
7.18581e-12
7.48099e-12
7.77686e-12
8.07373e-12
8.37191e-12
8.67165e-12
8.97318e-12
9.27668e-12
9.58228e-12
9.89006e-12
1.02001e-11
1.05123e-11
1.08265e-11
1.11428e-11
1.14608e-11
1.17804e-11
1.21012e-11
1.24229e-11
1.27451e-11
1.30673e-11
1.33891e-11
1.37098e-11
1.40289e-11
1.43457e-11
1.46595e-11
1.49697e-11
1.52753e-11
1.55755e-11
1.58695e-11
1.61563e-11
1.64349e-11
1.67043e-11
1.69635e-11
1.72114e-11
1.74468e-11
1.76685e-11
1.78755e-11
1.80665e-11
1.82404e-11
1.83959e-11
1.85318e-11
1.8647e-11
1.874e-11
1.88098e-11
1.88553e-11
1.88756e-11
1.88712e-11
1.88405e-11
1.87827e-11
1.86974e-11
1.85841e-11
1.84426e-11
1.82728e-11
1.80748e-11
1.78489e-11
1.75955e-11
1.73152e-11
1.70089e-11
1.66775e-11
1.63222e-11
1.59442e-11
1.55451e-11
1.51264e-11
1.469e-11
1.42377e-11
1.37714e-11
1.32933e-11
1.28053e-11
1.23097e-11
1.18086e-11
1.13041e-11
1.07983e-11
1.02933e-11
9.79101e-12
9.29333e-12
8.80203e-12
8.31873e-12
7.84496e-12
7.38206e-12
6.93124e-12
6.49355e-12
6.06986e-12
5.66091e-12
5.26727e-12
4.88933e-12
4.52738e-12
4.18152e-12
3.85171e-12
3.53785e-12
3.23975e-12
2.9571e-12
2.68949e-12
2.43644e-12
2.19739e-12
1.97177e-12
1.75896e-12
1.55835e-12
1.36931e-12
1.19127e-12
1.02365e-12
8.65999e-13
7.17909e-13
5.79108e-13
4.49472e-13
3.29053e-13
2.18143e-13
1.17754e-13
3.4652e-14
3.81948e-16
1.82771e-15
2.5687e-13
1.30342e-12
2.93792e-12
4.83851e-12
6.87595e-12
9.00409e-12
1.12004e-11
1.34494e-11
1.57381e-11
1.80553e-11
2.03914e-11
2.2738e-11
2.50882e-11
2.74363e-11
2.97776e-11
3.21088e-11
3.44276e-11
3.67325e-11
3.90232e-11
4.12999e-11
4.35635e-11
4.58156e-11
4.80582e-11
5.02936e-11
5.25244e-11
5.47534e-11
5.69834e-11
5.9217e-11
6.14569e-11
6.37056e-11
6.59651e-11
6.82374e-11
7.05239e-11
7.28258e-11
7.51437e-11
7.74782e-11
7.9829e-11
8.21956e-11
8.45773e-11
8.69725e-11
8.93797e-11
9.17968e-11
9.42211e-11
9.665e-11
9.908e-11
1.01508e-10
1.03929e-10
1.06339e-10
1.08734e-10
1.11109e-10
1.13457e-10
1.15773e-10
1.18051e-10
1.20285e-10
1.22466e-10
1.24589e-10
1.26646e-10
1.28627e-10
1.30526e-10
1.32334e-10
1.34041e-10
1.3564e-10
1.3712e-10
1.38473e-10
1.39689e-10
1.4076e-10
1.41675e-10
1.42426e-10
1.43003e-10
1.43398e-10
1.43598e-10
1.43615e-10
1.43431e-10
1.4304e-10
1.42437e-10
1.4162e-10
1.40585e-10
1.39332e-10
1.37861e-10
1.36174e-10
1.34272e-10
1.32162e-10
1.29847e-10
1.27337e-10
1.24639e-10
1.21764e-10
1.18722e-10
1.15527e-10
1.12192e-10
1.08731e-10
1.0516e-10
1.01495e-10
9.77526e-11
9.39495e-11
9.01026e-11
8.62287e-11
8.23444e-11
7.84659e-11
7.46086e-11
7.07873e-11
6.70159e-11
6.33072e-11
5.96732e-11
5.61242e-11
5.26697e-11
4.93178e-11
4.60752e-11
4.29475e-11
3.99389e-11
3.70526e-11
3.42902e-11
3.16527e-11
2.91396e-11
2.67499e-11
2.44816e-11
2.2332e-11
2.02976e-11
1.83744e-11
1.65581e-11
1.48437e-11
1.32261e-11
1.17003e-11
1.02609e-11
8.9029e-12
7.62129e-12
6.41147e-12
5.26932e-12
4.19141e-12
3.17564e-12
2.22325e-12
1.34666e-12
5.9725e-13
1.17684e-13
8.36237e-16
3.03279e-15
4.76169e-13
2.94254e-12
7.83006e-12
1.43434e-11
2.17314e-11
2.95895e-11
3.77213e-11
4.60234e-11
5.44324e-11
6.2903e-11
7.14003e-11
7.98959e-11
8.83671e-11
9.67958e-11
1.05168e-10
1.13474e-10
1.21708e-10
1.29867e-10
1.37951e-10
1.45962e-10
1.53908e-10
1.61793e-10
1.69628e-10
1.77421e-10
1.85184e-10
1.92927e-10
2.00663e-10
2.084e-10
2.1615e-10
2.23923e-10
2.31726e-10
2.39567e-10
2.47453e-10
2.55387e-10
2.63374e-10
2.71415e-10
2.79511e-10
2.8766e-10
2.95862e-10
3.04111e-10
3.12402e-10
3.2073e-10
3.29086e-10
3.37462e-10
3.45846e-10
3.54229e-10
3.62596e-10
3.70934e-10
3.79227e-10
3.87458e-10
3.95611e-10
4.03664e-10
4.11598e-10
4.19391e-10
4.27019e-10
4.34457e-10
4.4168e-10
4.48659e-10
4.55367e-10
4.61774e-10
4.67849e-10
4.7356e-10
4.78875e-10
4.83761e-10
4.88185e-10
4.92113e-10
4.95512e-10
4.98348e-10
5.00596e-10
5.02205e-10
5.03127e-10
5.03425e-10
5.03018e-10
5.01883e-10
5.00002e-10
4.9736e-10
4.93945e-10
4.89753e-10
4.8478e-10
4.7903e-10
4.72512e-10
4.6524e-10
4.57231e-10
4.48511e-10
4.39109e-10
4.2906e-10
4.18405e-10
4.07187e-10
3.95456e-10
3.83263e-10
3.70664e-10
3.57719e-10
3.44486e-10
3.31026e-10
3.17403e-10
3.03677e-10
2.89909e-10
2.76158e-10
2.6248e-10
2.48931e-10
2.3556e-10
2.22415e-10
2.09538e-10
1.96969e-10
1.8474e-10
1.7288e-10
1.61415e-10
1.50364e-10
1.39741e-10
1.29556e-10
1.19817e-10
1.10525e-10
1.01678e-10
9.32707e-11
8.52955e-11
7.77411e-11
7.05941e-11
6.38388e-11
5.74579e-11
5.14326e-11
4.5743e-11
4.03686e-11
3.52886e-11
3.04822e-11
2.59292e-11
2.16108e-11
1.75116e-11
1.36231e-11
9.95422e-12
6.55623e-12
3.57978e-12
1.34616e-12
2.17566e-13
1.38253e-15
4.402e-15
7.18828e-13
4.86469e-12
1.43773e-11
2.87429e-11
4.63872e-11
6.59608e-11
8.66073e-11
1.07828e-10
1.29331e-10
1.50932e-10
1.72511e-10
1.93982e-10
2.15283e-10
2.36371e-10
2.57214e-10
2.77793e-10
2.98099e-10
3.18131e-10
3.37896e-10
3.57408e-10
3.76685e-10
3.95751e-10
4.14632e-10
4.33359e-10
4.51962e-10
4.70473e-10
4.88923e-10
5.07342e-10
5.2576e-10
5.44203e-10
5.62694e-10
5.81255e-10
5.99904e-10
6.18654e-10
6.37516e-10
6.56498e-10
6.75603e-10
6.94832e-10
7.14181e-10
7.33644e-10
7.53211e-10
7.72869e-10
7.92603e-10
8.12394e-10
8.3222e-10
8.52056e-10
8.71874e-10
8.91644e-10
9.11331e-10
9.30899e-10
9.50306e-10
9.69509e-10
9.88461e-10
1.00711e-09
1.0254e-09
1.04328e-09
1.06068e-09
1.07755e-09
1.0938e-09
1.10938e-09
1.1242e-09
1.13818e-09
1.15126e-09
1.16335e-09
1.17436e-09
1.18421e-09
1.19282e-09
1.20011e-09
1.20606e-09
1.21039e-09
1.21312e-09
1.21438e-09
1.21393e-09
1.21173e-09
1.20773e-09
1.20187e-09
1.19413e-09
1.1845e-09
1.17295e-09
1.1595e-09
1.14415e-09
1.12694e-09
1.10791e-09
1.08712e-09
1.06463e-09
1.04053e-09
1.01491e-09
9.87887e-10
9.59572e-10
9.30096e-10
8.99596e-10
8.68215e-10
8.36101e-10
8.03408e-10
7.70288e-10
7.36895e-10
7.0338e-10
6.69892e-10
6.36571e-10
6.03554e-10
5.70967e-10
5.38929e-10
5.07545e-10
4.76913e-10
4.47116e-10
4.18228e-10
3.90308e-10
3.63405e-10
3.37555e-10
3.12783e-10
2.89103e-10
2.66519e-10
2.45026e-10
2.24608e-10
2.05244e-10
1.86903e-10
1.6955e-10
1.53143e-10
1.37636e-10
1.22979e-10
1.09118e-10
9.59984e-11
8.3565e-11
7.17626e-11
6.05403e-11
4.98569e-11
3.96919e-11
3.00692e-11
2.11043e-11
1.30853e-11
6.55552e-12
2.21828e-12
3.26888e-13
1.99584e-15
5.91328e-15
9.82686e-13
6.95858e-12
2.18867e-11
4.65578e-11
7.91616e-11
1.17175e-10
1.58483e-10
2.01614e-10
2.45617e-10
2.89886e-10
3.34031e-10
3.77798e-10
4.21021e-10
4.63589e-10
5.05439e-10
5.46533e-10
5.86865e-10
6.26443e-10
6.65296e-10
7.03465e-10
7.41002e-10
7.77969e-10
8.14432e-10
8.50463e-10
8.86135e-10
9.21522e-10
9.56696e-10
9.91728e-10
1.02668e-09
1.06162e-09
1.09659e-09
1.13165e-09
1.16683e-09
1.20218e-09
1.23771e-09
1.27345e-09
1.3094e-09
1.34558e-09
1.38199e-09
1.41861e-09
1.45543e-09
1.49243e-09
1.52959e-09
1.56688e-09
1.60426e-09
1.64169e-09
1.67911e-09
1.71647e-09
1.75372e-09
1.79079e-09
1.82759e-09
1.86405e-09
1.90009e-09
1.93561e-09
1.9705e-09
2.00466e-09
2.03797e-09
2.07031e-09
2.10155e-09
2.13154e-09
2.16015e-09
2.18722e-09
2.21261e-09
2.23614e-09
2.25767e-09
2.27701e-09
2.29401e-09
2.3085e-09
2.32053e-09
2.32927e-09
2.33511e-09
2.33813e-09
2.33789e-09
2.33427e-09
2.32717e-09
2.31652e-09
2.30224e-09
2.28428e-09
2.26264e-09
2.2373e-09
2.20829e-09
2.17566e-09
2.13949e-09
2.09988e-09
2.05696e-09
2.01089e-09
1.96186e-09
1.91005e-09
1.85571e-09
1.79908e-09
1.74043e-09
1.68002e-09
1.61814e-09
1.5551e-09
1.49118e-09
1.42669e-09
1.36193e-09
1.29717e-09
1.23271e-09
1.16879e-09
1.10568e-09
1.04361e-09
9.82779e-10
9.23387e-10
8.65599e-10
8.09558e-10
7.55384e-10
7.03174e-10
6.53e-10
6.04911e-10
5.58937e-10
5.15083e-10
4.73339e-10
4.33673e-10
3.96041e-10
3.60382e-10
3.2662e-10
2.9467e-10
2.64436e-10
2.35814e-10
2.08694e-10
1.82964e-10
1.5851e-10
1.35227e-10
1.13029e-10
9.18701e-11
7.17842e-11
5.29524e-11
3.57994e-11
2.11026e-11
9.93659e-12
3.1557e-12
4.43849e-13
2.66161e-15
7.5552e-15
1.26705e-12
9.19706e-12
3.00312e-11
6.66203e-11
1.17826e-10
1.80319e-10
2.50448e-10
3.25183e-10
4.02306e-10
4.80301e-10
5.5816e-10
6.3522e-10
7.11057e-10
7.85409e-10
8.58125e-10
9.29137e-10
9.98436e-10
1.06606e-09
1.13207e-09
1.19658e-09
1.2597e-09
1.32156e-09
1.3823e-09
1.44208e-09
1.50104e-09
1.55933e-09
1.6171e-09
1.67448e-09
1.7316e-09
1.78857e-09
1.84552e-09
1.90252e-09
1.95965e-09
2.017e-09
2.07461e-09
2.13252e-09
2.19076e-09
2.24936e-09
2.3083e-09
2.3676e-09
2.42724e-09
2.48718e-09
2.5474e-09
2.60784e-09
2.66845e-09
2.72917e-09
2.78991e-09
2.85061e-09
2.91114e-09
2.97142e-09
3.03131e-09
3.0907e-09
3.14942e-09
3.20734e-09
3.26428e-09
3.32007e-09
3.3745e-09
3.42738e-09
3.47848e-09
3.52759e-09
3.57445e-09
3.61883e-09
3.66045e-09
3.69906e-09
3.73439e-09
3.76615e-09
3.79406e-09
3.81794e-09
3.83777e-09
3.852e-09
3.86169e-09
3.8667e-09
3.86635e-09
3.86045e-09
3.84883e-09
3.83137e-09
3.80795e-09
3.77851e-09
3.743e-09
3.70142e-09
3.65381e-09
3.60026e-09
3.54089e-09
3.47587e-09
3.40541e-09
3.32975e-09
3.24921e-09
3.1641e-09
3.0748e-09
2.9817e-09
2.88523e-09
2.78584e-09
2.684e-09
2.58018e-09
2.47487e-09
2.36856e-09
2.26173e-09
2.15485e-09
2.04838e-09
1.94275e-09
1.83839e-09
1.73566e-09
1.63493e-09
1.53651e-09
1.44068e-09
1.34769e-09
1.25773e-09
1.17097e-09
1.08754e-09
1.00751e-09
9.30954e-10
8.5787e-10
7.88245e-10
7.22028e-10
6.59142e-10
5.99482e-10
5.42926e-10
4.89326e-10
4.38516e-10
3.90318e-10
3.44542e-10
3.00999e-10
2.59506e-10
2.19909e-10
1.82114e-10
1.46137e-10
1.12186e-10
8.07882e-11
5.29235e-11
3.00124e-11
1.35442e-11
4.13814e-12
5.67246e-13
3.36965e-15
9.3221e-15
1.57168e-12
1.15765e-11
3.86954e-11
8.82987e-11
1.60712e-10
2.52453e-10
3.58475e-10
4.73845e-10
5.9452e-10
7.17484e-10
8.40612e-10
9.62474e-10
1.08214e-09
1.19903e-09
1.31283e-09
1.42339e-09
1.5307e-09
1.63482e-09
1.7359e-09
1.83414e-09
1.92977e-09
2.02302e-09
2.11418e-09
2.20351e-09
2.29128e-09
2.37776e-09
2.4632e-09
2.54784e-09
2.63192e-09
2.71562e-09
2.79914e-09
2.88263e-09
2.96624e-09
3.05007e-09
3.13424e-09
3.2188e-09
3.30382e-09
3.38932e-09
3.47533e-09
3.56185e-09
3.64884e-09
3.73629e-09
3.82413e-09
3.9123e-09
4.00072e-09
4.0893e-09
4.17793e-09
4.26646e-09
4.35477e-09
4.44269e-09
4.53003e-09
4.61661e-09
4.7022e-09
4.78658e-09
4.86949e-09
4.95066e-09
5.0298e-09
5.1066e-09
5.18075e-09
5.25189e-09
5.31967e-09
5.38373e-09
5.44368e-09
5.49913e-09
5.54969e-09
5.59496e-09
5.63456e-09
5.66825e-09
5.696e-09
5.71522e-09
5.72809e-09
5.73397e-09
5.73194e-09
5.72177e-09
5.70323e-09
5.67614e-09
5.64036e-09
5.5958e-09
5.54242e-09
5.48023e-09
5.4093e-09
5.32976e-09
5.24178e-09
5.14563e-09
5.04161e-09
4.93008e-09
4.81148e-09
4.68627e-09
4.55499e-09
4.4182e-09
4.27651e-09
4.13057e-09
3.98102e-09
3.82857e-09
3.6739e-09
3.5177e-09
3.36067e-09
3.20349e-09
3.04681e-09
2.89126e-09
2.73744e-09
2.58591e-09
2.43719e-09
2.29173e-09
2.14996e-09
2.01223e-09
1.87885e-09
1.75007e-09
1.62608e-09
1.50702e-09
1.39296e-09
1.28395e-09
1.17995e-09
1.08091e-09
9.86705e-10
8.97189e-10
8.12175e-10
7.31446e-10
6.54752e-10
5.81827e-10
5.12392e-10
4.46172e-10
3.82922e-10
3.22464e-10
2.64752e-10
2.09976e-10
1.58698e-10
1.12001e-10
7.15638e-11
3.94413e-11
1.7292e-11
5.15589e-12
6.96028e-13
4.11213e-15
1.12119e-14
1.89662e-12
1.40998e-11
4.78543e-11
1.11325e-10
2.06854e-10
3.31452e-10
4.79031e-10
6.42688e-10
8.16153e-10
9.94382e-10
1.17363e-09
1.35125e-09
1.52549e-09
1.69524e-09
1.85986e-09
2.01906e-09
2.17279e-09
2.32118e-09
2.46447e-09
2.60299e-09
2.73713e-09
2.86732e-09
2.994e-09
3.11762e-09
3.23863e-09
3.35746e-09
3.4745e-09
3.59016e-09
3.70478e-09
3.81869e-09
3.93216e-09
4.04546e-09
4.15879e-09
4.27234e-09
4.38625e-09
4.50064e-09
4.6156e-09
4.73117e-09
4.84739e-09
4.96426e-09
5.08176e-09
5.19983e-09
5.31842e-09
5.43742e-09
5.55673e-09
5.67619e-09
5.79565e-09
5.91492e-09
6.0338e-09
6.15206e-09
6.26944e-09
6.38566e-09
6.50042e-09
6.61338e-09
6.7242e-09
6.83249e-09
6.93786e-09
7.03987e-09
7.13808e-09
7.23202e-09
7.32121e-09
7.40515e-09
7.48333e-09
7.55522e-09
7.6203e-09
7.67805e-09
7.72797e-09
7.76961e-09
7.80326e-09
7.8251e-09
7.83871e-09
7.8426e-09
7.83579e-09
7.818e-09
7.78897e-09
7.74851e-09
7.69646e-09
7.63274e-09
7.55732e-09
7.47023e-09
7.37161e-09
7.26164e-09
7.14059e-09
7.0088e-09
6.86669e-09
6.71475e-09
6.55355e-09
6.3837e-09
6.2059e-09
6.02089e-09
5.82945e-09
5.63242e-09
5.43065e-09
5.22503e-09
5.01645e-09
4.80581e-09
4.59401e-09
4.38192e-09
4.1704e-09
3.96027e-09
3.75232e-09
3.54728e-09
3.34583e-09
3.14859e-09
2.95611e-09
2.76888e-09
2.58732e-09
2.41177e-09
2.2425e-09
2.0797e-09
1.92349e-09
1.77394e-09
1.63102e-09
1.49465e-09
1.3647e-09
1.24096e-09
1.12319e-09
1.01109e-09
9.04319e-10
8.02524e-10
7.05337e-10
6.12414e-10
5.23475e-10
4.38378e-10
3.5722e-10
2.80492e-10
2.0926e-10
1.4531e-10
9.1088e-11
4.91732e-11
2.11347e-11
6.20223e-12
8.29266e-13
4.88274e-15
1.32249e-14
2.24217e-12
1.67723e-11
5.75177e-11
1.35621e-10
2.55806e-10
4.1606e-10
6.0965e-10
8.27793e-10
1.06177e-09
1.30408e-09
1.54887e-09
1.79188e-09
2.03016e-09
2.26184e-09
2.4858e-09
2.70152e-09
2.9089e-09
3.10811e-09
3.29954e-09
3.4837e-09
3.66119e-09
3.83268e-09
3.99885e-09
4.16039e-09
4.31796e-09
4.47221e-09
4.62375e-09
4.77314e-09
4.9209e-09
5.0675e-09
5.21334e-09
5.35879e-09
5.50414e-09
5.64965e-09
5.79554e-09
5.94194e-09
6.08899e-09
6.23675e-09
6.38526e-09
6.53452e-09
6.68449e-09
6.83509e-09
6.98624e-09
7.13779e-09
7.28959e-09
7.44142e-09
7.59308e-09
7.74431e-09
7.89481e-09
8.04428e-09
8.19237e-09
8.3387e-09
8.48286e-09
8.62441e-09
8.76288e-09
8.89778e-09
9.02858e-09
9.15473e-09
9.27564e-09
9.39073e-09
9.49938e-09
9.60097e-09
9.69485e-09
9.78039e-09
9.85694e-09
9.92389e-09
9.98061e-09
1.00265e-08
1.00617e-08
1.00824e-08
1.00928e-08
1.00904e-08
1.00744e-08
1.00447e-08
1.00008e-08
9.94263e-09
9.87006e-09
9.78301e-09
9.6815e-09
9.56563e-09
9.43559e-09
9.29165e-09
9.13416e-09
8.96358e-09
8.78044e-09
8.58535e-09
8.37901e-09
8.16219e-09
7.93573e-09
7.70053e-09
7.45755e-09
7.20777e-09
6.95224e-09
6.69202e-09
6.42818e-09
6.16181e-09
5.89397e-09
5.62573e-09
5.35812e-09
5.09214e-09
4.82873e-09
4.56879e-09
4.31316e-09
4.06259e-09
3.81777e-09
3.57931e-09
3.34773e-09
3.12347e-09
2.90688e-09
2.6982e-09
2.49761e-09
2.3052e-09
2.12095e-09
1.94478e-09
1.77652e-09
1.61593e-09
1.46271e-09
1.31648e-09
1.17683e-09
1.04333e-09
9.1553e-10
7.93043e-10
6.75595e-10
5.6314e-10
4.56014e-10
3.55131e-10
2.62194e-10
1.79779e-10
1.11085e-10
5.90788e-11
2.50443e-11
7.27167e-12
9.66161e-13
5.67631e-15
1.53631e-14
2.60879e-12
1.96001e-11
6.77093e-11
1.61205e-10
3.07428e-10
5.05672e-10
7.48884e-10
1.02652e-09
1.32729e-09
1.64097e-09
1.95919e-09
2.27567e-09
2.58597e-09
2.8872e-09
3.17764e-09
3.45644e-09
3.7234e-09
3.97876e-09
4.22306e-09
4.45706e-09
4.68164e-09
4.89773e-09
5.10633e-09
5.30841e-09
5.50491e-09
5.69675e-09
5.88476e-09
6.06972e-09
6.25234e-09
6.43324e-09
6.61299e-09
6.79206e-09
6.97084e-09
7.14967e-09
7.32881e-09
7.50846e-09
7.68876e-09
7.86979e-09
8.05159e-09
8.23414e-09
8.41737e-09
8.60118e-09
8.78542e-09
8.9699e-09
9.1544e-09
9.33864e-09
9.52233e-09
9.70513e-09
9.88664e-09
1.00665e-08
1.02442e-08
1.04192e-08
1.05911e-08
1.07593e-08
1.09232e-08
1.10822e-08
1.12356e-08
1.13827e-08
1.1523e-08
1.16555e-08
1.17797e-08
1.18947e-08
1.19999e-08
1.20944e-08
1.21777e-08
1.22489e-08
1.23073e-08
1.23525e-08
1.23834e-08
1.23981e-08
1.24004e-08
1.23867e-08
1.23567e-08
1.23102e-08
1.22468e-08
1.21666e-08
1.20694e-08
1.19552e-08
1.18241e-08
1.16762e-08
1.15119e-08
1.13315e-08
1.11354e-08
1.09243e-08
1.06986e-08
1.04593e-08
1.02071e-08
9.94283e-09
9.66756e-09
9.3823e-09
9.08815e-09
8.78624e-09
8.47775e-09
8.1639e-09
7.8459e-09
7.525e-09
7.20241e-09
6.87935e-09
6.55698e-09
6.23646e-09
5.91887e-09
5.60524e-09
5.29653e-09
4.99364e-09
4.69735e-09
4.40839e-09
4.12737e-09
3.85481e-09
3.59113e-09
3.33664e-09
3.09156e-09
2.85599e-09
2.62995e-09
2.41333e-09
2.20597e-09
2.00757e-09
1.81778e-09
1.63618e-09
1.46227e-09
1.29555e-09
1.13554e-09
9.81823e-10
8.34185e-10
6.92741e-10
5.58148e-10
4.31841e-10
3.16243e-10
2.14757e-10
1.31287e-10
6.90759e-11
2.90009e-11
8.35958e-12
1.10604e-12
6.48863e-15
1.76293e-14
2.99712e-12
2.259e-11
7.84582e-11
1.88135e-10
3.61744e-10
6.00099e-10
8.96035e-10
1.23734e-09
1.6101e-09
2.0011e-09
2.39918e-09
2.79572e-09
3.18453e-09
3.56148e-09
3.92412e-09
4.2712e-09
4.60239e-09
4.918e-09
5.21878e-09
5.50576e-09
5.78014e-09
6.04321e-09
6.2963e-09
6.54072e-09
6.77775e-09
7.00857e-09
7.23431e-09
7.45597e-09
7.67448e-09
7.89064e-09
8.10515e-09
8.31861e-09
8.53153e-09
8.74429e-09
8.95722e-09
9.17055e-09
9.38443e-09
9.59894e-09
9.81409e-09
1.00299e-08
1.02461e-08
1.04627e-08
1.06794e-08
1.0896e-08
1.11122e-08
1.13275e-08
1.15417e-08
1.17543e-08
1.19647e-08
1.21725e-08
1.23771e-08
1.2578e-08
1.27743e-08
1.29656e-08
1.3151e-08
1.33299e-08
1.35015e-08
1.36649e-08
1.38194e-08
1.39643e-08
1.40985e-08
1.42215e-08
1.43322e-08
1.443e-08
1.4514e-08
1.45836e-08
1.4638e-08
1.46765e-08
1.46969e-08
1.47005e-08
1.46898e-08
1.46595e-08
1.46105e-08
1.45426e-08
1.44555e-08
1.43493e-08
1.4224e-08
1.40795e-08
1.39161e-08
1.3734e-08
1.35336e-08
1.33153e-08
1.30797e-08
1.28274e-08
1.25592e-08
1.22759e-08
1.19785e-08
1.16679e-08
1.13452e-08
1.10115e-08
1.06682e-08
1.03163e-08
9.95732e-09
9.59244e-09
9.22305e-09
8.85049e-09
8.4761e-09
8.10121e-09
7.72711e-09
7.35505e-09
6.98625e-09
6.62183e-09
6.26287e-09
5.91035e-09
5.56516e-09
5.22811e-09
4.89989e-09
4.58109e-09
4.2722e-09
3.97357e-09
3.68545e-09
3.40798e-09
3.14119e-09
2.88496e-09
2.6391e-09
2.40331e-09
2.17717e-09
1.96021e-09
1.75188e-09
1.55164e-09
1.35896e-09
1.17345e-09
9.94996e-10
8.23924e-10
6.61276e-10
5.09074e-10
3.70503e-10
2.49798e-10
1.51521e-10
7.91095e-11
3.29898e-11
9.46212e-12
1.24835e-12
7.31638e-15
2.00274e-14
3.4079e-12
2.57492e-11
8.97952e-11
2.16486e-10
4.18864e-10
6.99394e-10
1.0509e-09
1.45956e-09
1.90872e-09
2.38201e-09
2.86522e-09
3.34716e-09
3.81966e-09
4.27722e-09
4.71651e-09
5.13585e-09
5.53479e-09
5.91372e-09
6.2736e-09
6.61579e-09
6.94186e-09
7.2535e-09
7.55243e-09
7.84034e-09
8.11884e-09
8.38947e-09
8.65362e-09
8.91257e-09
9.16744e-09
9.41924e-09
9.66881e-09
9.91687e-09
1.0164e-08
1.04107e-08
1.06573e-08
1.0904e-08
1.1151e-08
1.13984e-08
1.16462e-08
1.18942e-08
1.21423e-08
1.23903e-08
1.26378e-08
1.28846e-08
1.31303e-08
1.33743e-08
1.36162e-08
1.38555e-08
1.40915e-08
1.43237e-08
1.45512e-08
1.47736e-08
1.49898e-08
1.51993e-08
1.54012e-08
1.55946e-08
1.57787e-08
1.59526e-08
1.61155e-08
1.62664e-08
1.64046e-08
1.6529e-08
1.6639e-08
1.67337e-08
1.68122e-08
1.68739e-08
1.69181e-08
1.69441e-08
1.69485e-08
1.69353e-08
1.69069e-08
1.68554e-08
1.6783e-08
1.66897e-08
1.65754e-08
1.64401e-08
1.62839e-08
1.61071e-08
1.59097e-08
1.56922e-08
1.54549e-08
1.51985e-08
1.49236e-08
1.46308e-08
1.43211e-08
1.39953e-08
1.36544e-08
1.32996e-08
1.2932e-08
1.25527e-08
1.21632e-08
1.17647e-08
1.13586e-08
1.09463e-08
1.05293e-08
1.01089e-08
9.68665e-09
9.26389e-09
8.84202e-09
8.42239e-09
8.00628e-09
7.59492e-09
7.18945e-09
6.79095e-09
6.40038e-09
6.01862e-09
5.64642e-09
5.28443e-09
4.93317e-09
4.59307e-09
4.26438e-09
3.94727e-09
3.64176e-09
3.34775e-09
3.06502e-09
2.79324e-09
2.53195e-09
2.28063e-09
2.03871e-09
1.80557e-09
1.5807e-09
1.36375e-09
1.15473e-09
9.54204e-10
7.63655e-10
5.85715e-10
4.24348e-10
2.84603e-10
1.7167e-10
8.91421e-11
3.7e-11
1.05763e-11
1.39268e-12
8.15703e-15
2.25615e-14
3.84191e-12
2.9085e-11
1.01751e-10
2.46341e-10
4.78937e-10
8.03739e-10
1.21357e-09
1.69299e-09
2.22249e-09
2.78234e-09
3.35512e-09
3.92683e-09
4.48717e-09
5.02916e-09
5.54853e-09
6.04315e-09
6.51242e-09
6.95684e-09
7.37764e-09
7.77653e-09
8.15551e-09
8.51669e-09
8.86223e-09
9.19421e-09
9.51464e-09
9.82539e-09
1.01282e-08
1.04245e-08
1.07157e-08
1.10031e-08
1.12875e-08
1.15698e-08
1.18507e-08
1.21307e-08
1.24102e-08
1.26894e-08
1.29684e-08
1.32474e-08
1.35262e-08
1.38047e-08
1.40826e-08
1.43596e-08
1.46355e-08
1.49096e-08
1.51816e-08
1.54508e-08
1.57167e-08
1.59786e-08
1.62359e-08
1.64877e-08
1.67332e-08
1.69718e-08
1.72025e-08
1.74244e-08
1.76367e-08
1.78385e-08
1.80288e-08
1.82068e-08
1.83714e-08
1.85219e-08
1.86573e-08
1.87768e-08
1.88795e-08
1.89647e-08
1.90316e-08
1.90794e-08
1.91076e-08
1.91156e-08
1.90988e-08
1.90643e-08
1.90135e-08
1.89373e-08
1.88379e-08
1.87161e-08
1.85719e-08
1.84055e-08
1.82169e-08
1.80065e-08
1.77745e-08
1.75213e-08
1.72476e-08
1.69538e-08
1.66407e-08
1.63091e-08
1.59598e-08
1.55939e-08
1.52124e-08
1.48163e-08
1.4407e-08
1.39857e-08
1.35538e-08
1.31125e-08
1.26634e-08
1.2208e-08
1.17476e-08
1.12837e-08
1.0818e-08
1.03518e-08
9.88652e-09
9.42367e-09
8.96456e-09
8.51049e-09
8.06267e-09
7.62223e-09
7.1902e-09
6.76751e-09
6.35497e-09
5.95327e-09
5.56299e-09
5.18456e-09
4.81828e-09
4.46432e-09
4.12271e-09
3.79334e-09
3.47596e-09
3.17022e-09
2.87564e-09
2.59164e-09
2.3176e-09
2.0529e-09
1.79702e-09
1.54966e-09
1.31096e-09
1.08179e-09
8.64053e-10
6.60994e-10
4.77355e-10
3.18979e-10
1.9166e-10
9.91501e-11
4.10242e-11
1.17002e-11
1.53876e-12
9.00886e-15
2.5236e-14
4.29996e-12
3.26046e-11
1.14357e-10
2.77784e-10
5.42126e-10
9.13371e-10
1.38431e-09
1.93779e-09
2.55128e-09
3.20155e-09
3.86772e-09
4.53286e-09
5.18442e-09
5.81385e-09
6.41593e-09
6.98804e-09
7.52948e-09
8.04087e-09
8.52376e-09
8.98025e-09
9.41279e-09
9.82397e-09
1.02164e-08
1.05926e-08
1.09549e-08
1.13057e-08
1.16469e-08
1.19802e-08
1.23074e-08
1.26297e-08
1.29482e-08
1.3264e-08
1.35776e-08
1.38898e-08
1.42008e-08
1.45109e-08
1.48202e-08
1.51287e-08
1.54363e-08
1.57427e-08
1.60476e-08
1.63506e-08
1.66513e-08
1.69491e-08
1.72434e-08
1.75335e-08
1.78188e-08
1.80985e-08
1.83717e-08
1.86377e-08
1.88956e-08
1.91444e-08
1.93834e-08
1.96115e-08
1.98278e-08
2.00313e-08
2.02212e-08
2.03965e-08
2.05563e-08
2.06997e-08
2.08259e-08
2.0934e-08
2.10232e-08
2.10929e-08
2.11424e-08
2.1171e-08
2.11782e-08
2.11629e-08
2.11207e-08
2.10622e-08
2.09837e-08
2.08811e-08
2.07519e-08
2.05995e-08
2.04239e-08
2.02252e-08
2.00036e-08
1.97595e-08
1.94933e-08
1.92054e-08
1.88964e-08
1.85669e-08
1.82177e-08
1.78496e-08
1.74636e-08
1.70606e-08
1.66417e-08
1.6208e-08
1.57609e-08
1.53016e-08
1.48314e-08
1.43517e-08
1.3864e-08
1.33698e-08
1.28706e-08
1.23679e-08
1.18632e-08
1.1358e-08
1.08539e-08
1.03523e-08
9.85454e-09
9.36203e-09
8.87603e-09
8.39772e-09
7.92818e-09
7.46839e-09
7.01921e-09
6.58138e-09
6.15549e-09
5.74201e-09
5.34127e-09
4.95343e-09
4.57854e-09
4.21648e-09
3.86698e-09
3.52965e-09
3.20397e-09
2.88935e-09
2.58511e-09
2.29061e-09
2.00534e-09
1.72906e-09
1.46207e-09
1.20549e-09
9.61653e-10
7.34416e-10
5.29262e-10
3.52808e-10
2.11447e-10
1.09121e-10
4.50584e-11
1.28326e-11
1.68641e-12
9.87096e-15
2.80553e-14
4.78284e-12
3.63148e-11
1.27641e-10
3.10893e-10
6.08595e-10
1.02855e-09
1.56344e-09
2.19426e-09
2.89529e-09
3.63955e-09
4.40254e-09
5.16429e-09
5.90987e-09
6.62915e-09
7.31593e-09
7.96715e-09
8.582e-09
9.16129e-09
9.70691e-09
1.02214e-08
1.07077e-08
1.11689e-08
1.1608e-08
1.20282e-08
1.24321e-08
1.28223e-08
1.32012e-08
1.35709e-08
1.39331e-08
1.42893e-08
1.46408e-08
1.49886e-08
1.53335e-08
1.56761e-08
1.60167e-08
1.63555e-08
1.66927e-08
1.7028e-08
1.73614e-08
1.76925e-08
1.80209e-08
1.83461e-08
1.86675e-08
1.89845e-08
1.92964e-08
1.96024e-08
1.99018e-08
2.01937e-08
2.04772e-08
2.07514e-08
2.10154e-08
2.12682e-08
2.15089e-08
2.17366e-08
2.19502e-08
2.21489e-08
2.23317e-08
2.24978e-08
2.26462e-08
2.27762e-08
2.2887e-08
2.29778e-08
2.30479e-08
2.30968e-08
2.31239e-08
2.31287e-08
2.31108e-08
2.30673e-08
2.29976e-08
2.29121e-08
2.2803e-08
2.26719e-08
2.25118e-08
2.23277e-08
2.21201e-08
2.1889e-08
2.16348e-08
2.13579e-08
2.10586e-08
2.07376e-08
2.03953e-08
2.00325e-08
1.965e-08
1.92485e-08
1.8829e-08
1.83925e-08
1.79401e-08
1.74729e-08
1.69921e-08
1.6499e-08
1.5995e-08
1.54814e-08
1.49597e-08
1.44313e-08
1.38978e-08
1.33608e-08
1.28217e-08
1.22821e-08
1.17435e-08
1.12074e-08
1.06752e-08
1.01484e-08
9.62823e-09
9.11593e-09
8.61265e-09
8.11941e-09
7.63711e-09
7.16653e-09
6.70831e-09
6.26294e-09
5.83077e-09
5.41198e-09
5.0066e-09
4.61452e-09
4.23545e-09
3.86897e-09
3.51454e-09
3.17151e-09
2.83918e-09
2.51688e-09
2.20412e-09
1.9007e-09
1.60706e-09
1.32457e-09
1.05598e-09
8.05697e-10
5.79928e-10
3.86035e-10
2.31015e-10
1.19051e-10
4.91023e-11
1.39735e-11
1.83562e-12
1.07431e-14
3.10236e-14
5.29131e-12
4.02224e-11
1.4163e-10
3.45744e-10
6.78499e-10
1.14953e-09
1.7513e-09
2.46281e-09
3.25485e-09
4.09652e-09
4.95951e-09
5.82066e-09
6.66267e-09
7.47375e-09
8.24677e-09
8.97822e-09
9.66728e-09
1.0315e-08
1.09235e-08
1.1496e-08
1.20358e-08
1.25466e-08
1.3032e-08
1.34954e-08
1.394e-08
1.43689e-08
1.47845e-08
1.51893e-08
1.55852e-08
1.59738e-08
1.63567e-08
1.67347e-08
1.71088e-08
1.74795e-08
1.78471e-08
1.82119e-08
1.85739e-08
1.89328e-08
1.92884e-08
1.96403e-08
1.9988e-08
2.03309e-08
2.06683e-08
2.09995e-08
2.13238e-08
2.16402e-08
2.1948e-08
2.22461e-08
2.25337e-08
2.28098e-08
2.30735e-08
2.33238e-08
2.35597e-08
2.37804e-08
2.39849e-08
2.41722e-08
2.43416e-08
2.44922e-08
2.46233e-08
2.47341e-08
2.4824e-08
2.48922e-08
2.49384e-08
2.4962e-08
2.49625e-08
2.49396e-08
2.48931e-08
2.48183e-08
2.47211e-08
2.46053e-08
2.44643e-08
2.43017e-08
2.41119e-08
2.3896e-08
2.36566e-08
2.3394e-08
2.31084e-08
2.28002e-08
2.24699e-08
2.21181e-08
2.17453e-08
2.13521e-08
2.09395e-08
2.05081e-08
2.0059e-08
1.95929e-08
1.91111e-08
1.86145e-08
1.81044e-08
1.75821e-08
1.70487e-08
1.65057e-08
1.59545e-08
1.53965e-08
1.48333e-08
1.42664e-08
1.36972e-08
1.31274e-08
1.25585e-08
1.1992e-08
1.14294e-08
1.08721e-08
1.03215e-08
9.77881e-09
9.24525e-09
8.72189e-09
8.20969e-09
7.70947e-09
7.22191e-09
6.74753e-09
6.28671e-09
5.83965e-09
5.40639e-09
4.9868e-09
4.5806e-09
4.18733e-09
3.80643e-09
3.4372e-09
3.07891e-09
2.73089e-09
2.39261e-09
2.06395e-09
1.74544e-09
1.43869e-09
1.1468e-09
8.74719e-10
6.29307e-10
4.18652e-10
2.50371e-10
1.28946e-10
5.31588e-11
1.51237e-11
1.98649e-12
1.16259e-14
3.41448e-14
5.82608e-12
4.43333e-11
1.56349e-10
3.82404e-10
7.51977e-10
1.27655e-09
1.94824e-09
2.74381e-09
3.63035e-09
4.57274e-09
5.53873e-09
6.50185e-09
7.44236e-09
8.34685e-09
9.20727e-09
1.00197e-08
1.07834e-08
1.14996e-08
1.21709e-08
1.2801e-08
1.33938e-08
1.39535e-08
1.44842e-08
1.49898e-08
1.5474e-08
1.59401e-08
1.6391e-08
1.68293e-08
1.72571e-08
1.76763e-08
1.80883e-08
1.84942e-08
1.88949e-08
1.92909e-08
1.96826e-08
2.00701e-08
2.04532e-08
2.08318e-08
2.12055e-08
2.15738e-08
2.19361e-08
2.22918e-08
2.264e-08
2.298e-08
2.33109e-08
2.36319e-08
2.3942e-08
2.42402e-08
2.45256e-08
2.47972e-08
2.50542e-08
2.52955e-08
2.55203e-08
2.57276e-08
2.59166e-08
2.60866e-08
2.62367e-08
2.63663e-08
2.64746e-08
2.65612e-08
2.66254e-08
2.66668e-08
2.6685e-08
2.66796e-08
2.66504e-08
2.65972e-08
2.65193e-08
2.64116e-08
2.62864e-08
2.61387e-08
2.59658e-08
2.57708e-08
2.5552e-08
2.53051e-08
2.50352e-08
2.47425e-08
2.44275e-08
2.40903e-08
2.37316e-08
2.33519e-08
2.29516e-08
2.25316e-08
2.20925e-08
2.16351e-08
2.11602e-08
2.06688e-08
2.01617e-08
1.96402e-08
1.91052e-08
1.8558e-08
1.79998e-08
1.74319e-08
1.68556e-08
1.62724e-08
1.56838e-08
1.50912e-08
1.44962e-08
1.39002e-08
1.33049e-08
1.27118e-08
1.21224e-08
1.15381e-08
1.09604e-08
1.03905e-08
9.82979e-09
9.27929e-09
8.74004e-09
8.21292e-09
7.69865e-09
7.1978e-09
6.71078e-09
6.23783e-09
5.779e-09
5.33416e-09
4.90302e-09
4.48512e-09
4.07985e-09
3.68651e-09
3.30432e-09
2.93256e-09
2.57073e-09
2.21871e-09
1.87714e-09
1.5478e-09
1.23411e-09
9.41499e-10
6.77428e-10
4.50691e-10
2.69539e-10
1.38822e-10
5.72341e-11
1.62848e-11
2.13923e-12
1.25205e-14
3.74225e-14
6.38779e-12
4.86529e-11
1.71819e-10
4.20931e-10
8.29153e-10
1.40982e-09
2.15454e-09
3.03762e-09
4.02213e-09
5.06851e-09
6.14035e-09
7.20782e-09
8.24867e-09
9.24791e-09
1.01966e-08
1.10905e-08
1.19289e-08
1.27133e-08
1.3447e-08
1.4134e-08
1.47788e-08
1.53863e-08
1.59611e-08
1.65076e-08
1.70298e-08
1.75315e-08
1.80158e-08
1.84855e-08
1.89431e-08
1.93904e-08
1.9829e-08
2.026e-08
2.06842e-08
2.11022e-08
2.15144e-08
2.19206e-08
2.23209e-08