/*--------------------------------*- C++ -*----------------------------------*\
  =========                 |
  \\      /  F ield         | OpenFOAM: The Open Source CFD Toolbox
   \\    /   O peration     | Website:  https://openfoam.org
    \\  /    A nd           | Version:  12
     \\/     M anipulation  |
\*---------------------------------------------------------------------------*/
FoamFile
{
    format      ascii;
    class       volScalarField;
    location    "7";
    object      p;
}
// * * * * * * * * * * * * * * * * * * * * * * * * * * * * * * * * * * * * * //

dimensions      [0 2 -2 0 0 0 0];

internalField   nonuniform List<scalar> 
18225
(
1.91005e-08
7.43371e-06
1.08603e-05
4.82874e-06
-1.19498e-05
-3.94005e-05
-7.69013e-05
-0.000123546
-0.000178324
-0.000240233
-0.000308344
-0.00038182
-0.000459934
-0.000542063
-0.000627687
-0.000716372
-0.000807767
-0.000901585
-0.000997593
-0.0010956
-0.00119544
-0.00129697
-0.00140007
-0.00150461
-0.00161044
-0.00171744
-0.00182543
-0.00193424
-0.00204367
-0.00215348
-0.00226342
-0.00237321
-0.00248252
-0.002591
-0.0026983
-0.00280399
-0.00290764
-0.00300881
-0.003107
-0.00320171
-0.00329242
-0.00337858
-0.00345966
-0.00353508
-0.00360427
-0.00366669
-0.00372176
-0.00376895
-0.00380771
-0.00383754
-0.00385797
-0.00386854
-0.00386887
-0.00385859
-0.00383743
-0.00380515
-0.0037616
-0.00370669
-0.00364044
-0.00356294
-0.00347438
-0.00337505
-0.00326535
-0.00314577
-0.00301693
-0.00287954
-0.00273446
-0.0025826
-0.0024249
-0.00226259
-0.00209688
-0.00192904
-0.00176046
-0.00159255
-0.00142681
-0.00126473
-0.00110785
-0.000957715
-0.000815832
-0.000683694
-0.000562743
-0.000454351
-0.000359811
-0.000280313
-0.00021693
-0.000170606
-0.000142137
-0.000132167
-0.00014117
-0.00016945
-0.000217128
-0.000284146
-0.000370264
-0.000475062
-0.000597945
-0.000738151
-0.00089476
-0.00106671
-0.0012528
-0.00145172
-0.00166205
-0.00188231
-0.00211094
-0.00234633
-0.00258687
-0.00283091
-0.00307685
-0.00332307
-0.00356803
-0.00381022
-0.00404821
-0.00428063
-0.00450621
-0.00472375
-0.00493213
-0.00513034
-0.00531744
-0.00549258
-0.00565499
-0.00580397
-0.00593889
-0.0060592
-0.00616442
-0.00625414
-0.00632804
-0.00638593
-0.00642777
-0.00645376
-0.00646444
-0.00646085
-0.00644477
-0.00641907
-0.00638827
-0.00635924
-0.0063409
-7.35989e-06
4.0882e-08
2.54705e-06
-4.28459e-06
-2.09163e-05
-4.71655e-05
-8.25678e-05
-0.000126421
-0.000177907
-0.000236189
-0.000300466
-0.000370003
-0.000444148
-0.000522332
-0.000604068
-0.000688948
-0.000776626
-0.000866818
-0.000959289
-0.00105384
-0.00115031
-0.00124853
-0.00134838
-0.00144971
-0.00155238
-0.00165626
-0.00176116
-0.00186692
-0.00197333
-0.00208017
-0.00218718
-0.00229409
-0.0024006
-0.00250637
-0.00261104
-0.00271423
-0.00281551
-0.00291446
-0.00301061
-0.00310347
-0.00319255
-0.00327733
-0.00335729
-0.00343188
-0.00350056
-0.0035628
-0.00361805
-0.00366579
-0.00370551
-0.00373671
-0.00375895
-0.00377179
-0.00377484
-0.00376776
-0.00375028
-0.00372216
-0.00368326
-0.0036335
-0.00357286
-0.00350145
-0.00341944
-0.0033271
-0.00322481
-0.00311304
-0.00299237
-0.00286349
-0.00272721
-0.00258436
-0.00243593
-0.00228306
-0.00212688
-0.00196864
-0.00180964
-0.00165127
-0.00149494
-0.0013421
-0.00119422
-0.00105277
-0.000919214
-0.000794982
-0.000681456
-0.000579954
-0.000491716
-0.000417882
-0.000359482
-0.000317419
-0.000292458
-0.000285211
-0.000296131
-0.000325506
-0.000373449
-0.0004399
-0.000524624
-0.000627213
-0.000747091
-0.000883524
-0.00103562
-0.00120237
-0.0013826
-0.00157506
-0.00177839
-0.00199116
-0.00221187
-0.002439
-0.00267097
-0.00290622
-0.0031432
-0.00338039
-0.00361629
-0.00384947
-0.00407855
-0.00430223
-0.00451929
-0.0047286
-0.00492909
-0.00511978
-0.00529981
-0.00546837
-0.00562474
-0.00576828
-0.00589842
-0.00601466
-0.0061166
-0.00620391
-0.00627636
-0.00633384
-0.00637643
-0.00640442
-0.0064184
-0.00641943
-0.00640917
-0.00639009
-0.00636573
-0.00634091
-0.00632255
-1.07298e-05
-2.46133e-06
-2.58943e-08
-7.27308e-06
-2.37149e-05
-4.89123e-05
-8.2454e-05
-0.00012377
-0.00017219
-0.000227015
-0.000287566
-0.000353211
-0.000423373
-0.00049754
-0.000575268
-0.000656177
-0.000739942
-0.000826292
-0.000914992
-0.00100585
-0.00109868
-0.00119334
-0.00128968
-0.00138757
-0.00148685
-0.00158739
-0.001689
-0.00179153
-0.00189477
-0.0019985
-0.00210248
-0.00220645
-0.00231011
-0.00241314
-0.00251521
-0.00261594
-0.00271494
-0.00281179
-0.00290605
-0.00299727
-0.00308495
-0.00316862
-0.00324776
-0.00332187
-0.00339041
-0.00345288
-0.00350875
-0.00355753
-0.00359871
-0.00363182
-0.00365642
-0.00367209
-0.00367845
-0.00367518
-0.00366198
-0.00363864
-0.00360499
-0.00356097
-0.00350654
-0.00344179
-0.00336687
-0.00328205
-0.00318766
-0.00308415
-0.00297208
-0.00285208
-0.00272493
-0.00259141
-0.00245251
-0.00230926
-0.00216277
-0.00201422
-0.00186488
-0.00171606
-0.00156913
-0.00142548
-0.00128651
-0.00115366
-0.00102831
-0.000911848
-0.000805604
-0.000710847
-0.000628767
-0.000560465
-0.00050693
-0.000469031
-0.000447501
-0.00044293
-0.00045575
-0.000486235
-0.00053449
-0.000600455
-0.000683898
-0.000784421
-0.000901467
-0.00103432
-0.00118213
-0.0013439
-0.00151852
-0.00170477
-0.00190134
-0.00210685
-0.00231987
-0.00253892
-0.0027625
-0.00298912
-0.00321727
-0.0034455
-0.00367238
-0.00389655
-0.00411669
-0.00433156
-0.00454
-0.00474094
-0.00493337
-0.00511639
-0.00528916
-0.00545095
-0.00560109
-0.005739
-0.00586418
-0.0059762
-0.00607473
-0.0061595
-0.00623036
-0.0062873
-0.00633043
-0.0063601
-0.00637689
-0.00638173
-0.00637603
-0.00636169
-0.00634094
-0.00631609
-0.00629351
-4.47405e-06
4.4674e-06
7.05281e-06
-4.01203e-07
-1.6786e-05
-4.13985e-05
-7.37787e-05
-0.000113393
-0.000159643
-0.000211917
-0.000269619
-0.000332192
-0.000399127
-0.000469968
-0.000544313
-0.000621814
-0.000702173
-0.000785134
-0.000870481
-0.000958023
-0.00104759
-0.00113904
-0.00123223
-0.00132702
-0.00142327
-0.00152083
-0.00161954
-0.00171924
-0.00181973
-0.0019208
-0.00202223
-0.00212375
-0.00222509
-0.00232594
-0.00242598
-0.00252485
-0.00262218
-0.00271757
-0.00281059
-0.00290081
-0.00298776
-0.00307097
-0.00314996
-0.00322422
-0.00329326
-0.00335657
-0.00341364
-0.00346399
-0.00350714
-0.0035426
-0.00356996
-0.00358878
-0.00359871
-0.00359939
-0.00359056
-0.00357198
-0.00354348
-0.00350496
-0.0034564
-0.00339786
-0.00332946
-0.00325145
-0.00316414
-0.00306795
-0.0029634
-0.00285111
-0.00273177
-0.00260619
-0.0024753
-0.00234007
-0.00220157
-0.00206097
-0.00191947
-0.00177836
-0.00163895
-0.00150259
-0.00137066
-0.00124454
-0.00112559
-0.00101516
-0.000914536
-0.000824961
-0.000747599
-0.00068352
-0.000633693
-0.000598964
-0.000580049
-0.000577523
-0.000591807
-0.000623167
-0.000671705
-0.000737357
-0.000819895
-0.000918929
-0.00103391
-0.00116414
-0.00130878
-0.00146685
-0.00163728
-0.00181886
-0.00201033
-0.00221033
-0.00241747
-0.00263032
-0.0028474
-0.00306728
-0.0032885
-0.00350964
-0.00372935
-0.00394629
-0.0041592
-0.00436691
-0.00456829
-0.00476232
-0.00494807
-0.00512466
-0.00529134
-0.00544742
-0.00559228
-0.0057254
-0.00584634
-0.00595473
-0.00605029
-0.0061328
-0.00620218
-0.00625841
-0.00630165
-0.00633219
-0.00635051
-0.00635735
-0.00635376
-0.00634104
-0.00632027
-0.00629177
-0.00626269
1.29332e-05
2.14738e-05
2.34522e-05
1.53825e-05
-1.34339e-06
-2.58621e-05
-5.76564e-05
-9.61979e-05
-0.000140928
-0.000191293
-0.000246763
-0.000306845
-0.000371085
-0.00043908
-0.000510472
-0.000584952
-0.00066225
-0.000742137
-0.000824413
-0.000908907
-0.000995463
-0.00108394
-0.00117421
-0.00126615
-0.00135961
-0.00145446
-0.00155055
-0.00164772
-0.00174579
-0.00184455
-0.0019438
-0.00204327
-0.00214271
-0.00224184
-0.00234033
-0.00243785
-0.00253403
-0.00262851
-0.00272086
-0.00281066
-0.00289748
-0.00298085
-0.00306029
-0.00313533
-0.00320548
-0.00327023
-0.0033291
-0.0033816
-0.00342724
-0.00346557
-0.00349615
-0.00351855
-0.00353241
-0.00353738
-0.00353316
-0.00351951
-0.00349625
-0.00346326
-0.0034205
-0.003368
-0.00330587
-0.00323431
-0.00315363
-0.00306421
-0.00296653
-0.00286118
-0.00274883
-0.00263027
-0.00250635
-0.00237804
-0.00224639
-0.0021125
-0.00197757
-0.00184284
-0.0017096
-0.00157918
-0.00145293
-0.00133219
-0.00121831
-0.00111261
-0.00101636
-0.000930798
-0.000857059
-0.000796203
-0.000749186
-0.000716845
-0.000699887
-0.000698881
-0.000714243
-0.000746236
-0.00079496
-0.000860353
-0.000942187
-0.00104008
-0.00115348
-0.00128171
-0.00142392
-0.00157917
-0.00174637
-0.00192436
-0.00211187
-0.00230758
-0.00251011
-0.00271805
-0.00292997
-0.00314445
-0.00336007
-0.00357546
-0.00378928
-0.00400025
-0.00420715
-0.00440884
-0.00460426
-0.00479242
-0.00497242
-0.00514348
-0.00530487
-0.00545595
-0.00559617
-0.00572506
-0.00584223
-0.00594736
-0.00604021
-0.00612062
-0.00618851
-0.00624388
-0.00628686
-0.00631766
-0.00633665
-0.00634433
-0.00634137
-0.00632859
-0.00630612
-0.00627282
-0.00623704
4.16862e-05
4.85792e-05
4.88924e-05
3.95206e-05
2.18988e-05
-3.05882e-06
-3.48022e-05
-7.28084e-05
-0.000116551
-0.000165525
-0.000219256
-0.000277306
-0.000339276
-0.000404814
-0.000473606
-0.000545383
-0.000619909
-0.000696985
-0.000776436
-0.00085811
-0.000941873
-0.0010276
-0.00111518
-0.00120448
-0.00129539
-0.00138779
-0.00148153
-0.00157646
-0.00167241
-0.0017692
-0.00186662
-0.00196444
-0.00206241
-0.00216024
-0.00225766
-0.00235432
-0.00244989
-0.002544
-0.00263625
-0.00272623
-0.00281352
-0.00289766
-0.00297819
-0.00305464
-0.00312653
-0.00319335
-0.00325463
-0.00330988
-0.00335862
-0.00340037
-0.0034347
-0.00346117
-0.0034794
-0.00348904
-0.00348977
-0.00348133
-0.00346351
-0.00343619
-0.00339928
-0.0033528
-0.00329683
-0.00323154
-0.00315721
-0.00307419
-0.00298293
-0.00288399
-0.00277801
-0.00266574
-0.00254803
-0.0024258
-0.00230006
-0.00217192
-0.00204254
-0.00191313
-0.00178498
-0.00165938
-0.00153767
-0.00142119
-0.00131126
-0.00120921
-0.0011163
-0.00103374
-0.000962673
-0.000904159
-0.000859149
-0.000828479
-0.000812857
-0.000812851
-0.000828879
-0.000861204
-0.000909931
-0.000974997
-0.00105618
-0.00115309
-0.0012652
-0.00139181
-0.0015321
-0.00168512
-0.00184979
-0.00202494
-0.00220934
-0.00240165
-0.00260052
-0.00280455
-0.00301232
-0.00322244
-0.00343351
-0.00364417
-0.00385312
-0.0040591
-0.00426094
-0.00445753
-0.00464784
-0.00483095
-0.00500599
-0.00517221
-0.00532895
-0.00547562
-0.00561171
-0.0057368
-0.00585056
-0.00595272
-0.00604306
-0.00612146
-0.00618785
-0.00624224
-0.00628469
-0.00631536
-0.00633445
-0.00634225
-0.00633914
-0.00632552
-0.00630081
-0.00626284
-0.00622115
8.14093e-05
8.55011e-05
8.30936e-05
7.16633e-05
5.25275e-05
2.65706e-05
-5.65353e-06
-4.3637e-05
-8.68884e-05
-0.000134948
-0.000187392
-0.000243835
-0.000303934
-0.000367383
-0.000433918
-0.000503308
-0.000575357
-0.000649899
-0.000726788
-0.000805898
-0.000887119
-0.000970346
-0.00105548
-0.00114242
-0.00123106
-0.0013213
-0.00141299
-0.00150602
-0.00160022
-0.00169542
-0.00179142
-0.00188802
-0.00198498
-0.00208203
-0.00217888
-0.00227524
-0.00237077
-0.00246511
-0.00255788
-0.00264869
-0.0027371
-0.00282269
-0.00290499
-0.00298354
-0.00305784
-0.00312743
-0.00319179
-0.00325045
-0.0033029
-0.00334869
-0.00338734
-0.00341842
-0.00344152
-0.00345626
-0.00346232
-0.00345941
-0.00344729
-0.00342581
-0.00339486
-0.00335443
-0.00330456
-0.00324541
-0.0031772
-0.00310027
-0.00301504
-0.00292203
-0.00282186
-0.00271526
-0.00260304
-0.00248611
-0.00236546
-0.00224217
-0.00211739
-0.00199232
-0.00186822
-0.0017464
-0.00162818
-0.00151489
-0.00140786
-0.00130841
-0.00121781
-0.00113726
-0.00106793
-0.00101088
-0.000967049
-0.000937299
-0.00092234
-0.000922748
-0.000938949
-0.000971212
-0.00101965
-0.0010842
-0.00116464
-0.0012606
-0.00137154
-0.00149677
-0.00163546
-0.00178666
-0.0019493
-0.00212221
-0.00230415
-0.00249379
-0.00268978
-0.00289072
-0.0030952
-0.00330184
-0.00350925
-0.00371608
-0.00392106
-0.00412295
-0.0043206
-0.00451292
-0.00469894
-0.00487774
-0.00504852
-0.00521057
-0.00536327
-0.00550607
-0.00563854
-0.00576027
-0.00587097
-0.00597043
-0.00605847
-0.00613499
-0.00619991
-0.00625324
-0.006295
-0.00632526
-0.00634411
-0.00635164
-0.006348
-0.00633326
-0.00630635
-0.00626441
-0.00621797
0.000131383
0.000131667
0.000125569
0.000111336
9.00639e-05
6.25512e-05
2.93313e-05
-9.11519e-06
-5.23369e-05
-9.99214e-05
-0.000151497
-0.000206731
-0.000265333
-0.000327048
-0.000391658
-0.000458978
-0.000528854
-0.000601152
-0.000675764
-0.000752592
-0.000831552
-0.000912564
-0.000995552
-0.00108044
-0.00116713
-0.00125554
-0.00134556
-0.00143706
-0.00152992
-0.00162396
-0.00171902
-0.0018149
-0.00191136
-0.00200818
-0.00210506
-0.00220172
-0.00229785
-0.00239308
-0.00248706
-0.00257939
-0.00266965
-0.00275742
-0.00284223
-0.00292362
-0.0030011
-0.00307419
-0.00314236
-0.00320514
-0.00326201
-0.00331249
-0.0033561
-0.00339237
-0.00342088
-0.00344123
-0.00345305
-0.00345604
-0.00344993
-0.00343453
-0.00340971
-0.00337541
-0.00333165
-0.00327855
-0.00321631
-0.00314523
-0.0030657
-0.00297822
-0.00288338
-0.00278188
-0.00267452
-0.00256219
-0.00244585
-0.00232659
-0.00220553
-0.00208387
-0.00196287
-0.00184384
-0.00172809
-0.00161697
-0.00151182
-0.00141394
-0.00132464
-0.00124513
-0.00117658
-0.00112006
-0.00107655
-0.00104692
-0.00103188
-0.00103203
-0.00104781
-0.00107951
-0.00112723
-0.00119093
-0.00127041
-0.00136527
-0.00147499
-0.00159889
-0.00173612
-0.00188574
-0.00204668
-0.00221775
-0.0023977
-0.00258521
-0.00277892
-0.00297743
-0.00317932
-0.00338321
-0.00358771
-0.0037915
-0.00399329
-0.00419186
-0.00438609
-0.0045749
-0.00475735
-0.00493256
-0.00509976
-0.00525826
-0.00540749
-0.00554695
-0.00567626
-0.00579505
-0.00590307
-0.00600013
-0.0060861
-0.00616088
-0.00622442
-0.0062767
-0.0063177
-0.00634744
-0.00636588
-0.00637299
-0.00636871
-0.00635291
-0.00632418
-0.00627922
-0.00622931
0.000190696
0.00018631
0.000175659
0.000157928
0.00013393
0.000104332
6.9632e-05
3.02725e-05
-1.33434e-05
-6.08554e-05
-0.000111946
-0.000166337
-0.000223792
-0.000284108
-0.000347118
-0.000412684
-0.000480692
-0.000551052
-0.000623688
-0.000698539
-0.00077555
-0.000854668
-0.000935843
-0.00101902
-0.00110413
-0.0011911
-0.00127985
-0.00137028
-0.00146225
-0.00155564
-0.00165028
-0.00174598
-0.00184255
-0.00193974
-0.00203729
-0.00213494
-0.00223236
-0.00232922
-0.00242515
-0.00251978
-0.00261269
-0.00270343
-0.00279157
-0.00287662
-0.00295809
-0.00303548
-0.00310827
-0.00317595
-0.003238
-0.0032939
-0.00334316
-0.00338528
-0.00341981
-0.00344632
-0.00346441
-0.00347374
-0.00347402
-0.003465
-0.00344653
-0.00341852
-0.00338095
-0.0033339
-0.00327755
-0.00321215
-0.00313807
-0.00305579
-0.00296588
-0.00286901
-0.00276595
-0.00265759
-0.00254488
-0.00242889
-0.00231075
-0.00219165
-0.00207286
-0.00195568
-0.00184144
-0.00173151
-0.00162722
-0.00152992
-0.00144091
-0.00136143
-0.00129269
-0.00123576
-0.00119166
-0.00116126
-0.00114532
-0.00114445
-0.0011591
-0.00118958
-0.00123603
-0.0012984
-0.0013765
-0.00146996
-0.00157824
-0.00170066
-0.00183638
-0.00198446
-0.0021438
-0.00231322
-0.00249147
-0.0026772
-0.00286904
-0.00306559
-0.00326541
-0.00346712
-0.00366933
-0.00387069
-0.00406994
-0.00426587
-0.00445734
-0.00464332
-0.00482285
-0.00499511
-0.00515933
-0.00531489
-0.00546121
-0.00559784
-0.00572441
-0.00584067
-0.00594637
-0.00604135
-0.0061255
-0.00619874
-0.00626103
-0.00631234
-0.00635263
-0.00638184
-0.00639988
-0.00640659
-0.00640181
-0.00638523
-0.00635525
-0.00630832
-0.00625622
0.00025834
0.000248546
0.000232589
0.000210735
0.000183468
0.000151298
0.000114673
7.39903e-05
2.9595e-05
-1.82102e-05
-6.91655e-05
-0.000123052
-0.000179688
-0.000238927
-0.000300653
-0.000364778
-0.000431233
-0.000499971
-0.000570955
-0.00064416
-0.000719564
-0.000797146
-0.000876882
-0.000958742
-0.00104269
-0.00112867
-0.00121662
-0.00130645
-0.00139807
-0.00149135
-0.00158616
-0.00168231
-0.00177962
-0.00187788
-0.00197683
-0.0020762
-0.00217569
-0.00227498
-0.0023737
-0.00247147
-0.00256788
-0.00266249
-0.00275483
-0.00284443
-0.00293078
-0.00301336
-0.00309164
-0.00316508
-0.00323314
-0.00329527
-0.00335095
-0.00339965
-0.00344088
-0.00347418
-0.00349912
-0.00351531
-0.00352241
-0.00352016
-0.00350836
-0.00348686
-0.00345564
-0.00341472
-0.00336424
-0.00330445
-0.00323567
-0.00315835
-0.00307304
-0.00298039
-0.00288117
-0.00277623
-0.00266654
-0.00255315
-0.00243718
-0.00231985
-0.00220242
-0.00208621
-0.00197256
-0.00186284
-0.00175844
-0.0016607
-0.00157097
-0.00149051
-0.00142054
-0.0013622
-0.00131651
-0.00128439
-0.00126662
-0.00126383
-0.00127652
-0.00130501
-0.00134946
-0.00140985
-0.001486
-0.00157754
-0.00168395
-0.00180455
-0.00193851
-0.00208486
-0.00224252
-0.0024103
-0.00258691
-0.00277101
-0.0029612
-0.00315607
-0.00335417
-0.0035541
-0.00375446
-0.00395389
-0.00415113
-0.00434495
-0.00453423
-0.00471794
-0.00489514
-0.00506501
-0.00522681
-0.00537994
-0.00552387
-0.00565818
-0.00578252
-0.00589666
-0.0060004
-0.00609362
-0.00617622
-0.00624816
-0.00630939
-0.00635988
-0.00639958
-0.00642838
-0.00644615
-0.00645265
-0.00644762
-0.00643068
-0.00640011
-0.00635228
-0.00629918
0.000333249
0.000317419
0.000295502
0.000268972
0.00023795
0.000202769
0.000163822
0.000121446
7.59245e-05
2.74954e-05
-2.3645e-05
-7.73392e-05
-0.000133466
-0.000191937
-0.000252691
-0.000315689
-0.000380915
-0.000448363
-0.000518041
-0.000589959
-0.000664132
-0.000740572
-0.000819286
-0.000900272
-0.000983519
-0.001069
-0.00115667
-0.00124647
-0.00133833
-0.00143213
-0.00152775
-0.00162505
-0.00172384
-0.00182392
-0.00192505
-0.00202698
-0.0021294
-0.00223199
-0.00233441
-0.00243625
-0.00253711
-0.00263653
-0.00273406
-0.00282918
-0.00292138
-0.00301012
-0.00309484
-0.00317497
-0.00324995
-0.00331919
-0.00338213
-0.00343822
-0.00348692
-0.00352772
-0.00356016
-0.0035838
-0.00359826
-0.00360324
-0.00359849
-0.00358384
-0.0035592
-0.00352457
-0.00348007
-0.00342588
-0.00336232
-0.0032898
-0.00320886
-0.00312012
-0.00302434
-0.00292237
-0.00281516
-0.00270375
-0.00258929
-0.00247299
-0.00235612
-0.00224001
-0.00212604
-0.0020156
-0.00191009
-0.0018109
-0.00171939
-0.00163688
-0.00156462
-0.00150378
-0.00145543
-0.00142051
-0.00139986
-0.00139414
-0.00140388
-0.00142944
-0.001471
-0.00152857
-0.00160198
-0.0016909
-0.00179481
-0.00191304
-0.00204476
-0.00218901
-0.00234468
-0.00251058
-0.00268542
-0.00286783
-0.0030564
-0.00324969
-0.00344624
-0.00364462
-0.00384342
-0.00404128
-0.00423689
-0.00442904
-0.00461659
-0.00479851
-0.00497387
-0.00514185
-0.00530175
-0.00545296
-0.00559499
-0.00572743
-0.00584998
-0.00596242
-0.0060646
-0.0061564
-0.00623778
-0.00630869
-0.00636911
-0.00641901
-0.00645832
-0.00648692
-0.00650464
-0.0065112
-0.0065063
-0.00648949
-0.00645903
-0.00641129
-0.00635828
0.000414322
0.000391915
0.000363474
0.000331785
0.000296581
0.000258004
0.000216381
0.000171986
0.000125029
7.56781e-05
2.40611e-05
-2.97317e-05
-8.56429e-05
-0.000143645
-0.000203734
-0.000265927
-0.000330257
-0.000396766
-0.000465504
-0.000536525
-0.000609879
-0.000685614
-0.000763769
-0.000844372
-0.000927441
-0.00101297
-0.00110096
-0.00119135
-0.00128409
-0.00137911
-0.00147628
-0.00157549
-0.00167656
-0.0017793
-0.00188349
-0.00198887
-0.00209516
-0.00220203
-0.00230913
-0.00241606
-0.0025224
-0.00262769
-0.00273145
-0.00283315
-0.00293226
-0.00302821
-0.00312041
-0.00320826
-0.00329115
-0.00336847
-0.00343962
-0.00350399
-0.003561
-0.0036101
-0.00365078
-0.00368255
-0.003705
-0.00371777
-0.00372056
-0.00371316
-0.00369544
-0.00366736
-0.003629
-0.00358052
-0.0035222
-0.00345442
-0.0033777
-0.00329265
-0.0032
-0.0031006
-0.0029954
-0.00288543
-0.00277186
-0.00265588
-0.00253881
-0.00242198
-0.0023068
-0.00219468
-0.00208706
-0.00198537
-0.001891
-0.00180531
-0.00172961
-0.0016651
-0.00161289
-0.00157399
-0.00154927
-0.00153945
-0.00154509
-0.0015666
-0.00160419
-0.0016579
-0.00172761
-0.00181299
-0.00191356
-0.00202864
-0.00215742
-0.00229894
-0.0024521
-0.00261569
-0.0027884
-0.00296886
-0.00315563
-0.00334725
-0.00354224
-0.00373914
-0.00393652
-0.00413299
-0.00432724
-0.00451802
-0.00470419
-0.00488472
-0.00505866
-0.00522521
-0.00538365
-0.0055334
-0.00567398
-0.00580501
-0.00592621
-0.00603738
-0.00613839
-0.00622916
-0.00630966
-0.00637987
-0.00643979
-0.00648937
-0.00652856
-0.00655724
-0.00657522
-0.00658219
-0.00657783
-0.00656169
-0.00653202
-0.00648529
-0.00643334
0.000500429
0.000470976
0.000435523
0.000398256
0.000358502
0.000316194
0.00027159
0.000224889
0.000176224
0.000125686
7.33259e-05
1.9164e-05
-3.68111e-05
-9.46363e-05
-0.000154369
-0.000216083
-0.000279863
-0.000345802
-0.000413996
-0.00048454
-0.000557523
-0.000633031
-0.000711137
-0.000791901
-0.000875369
-0.00096157
-0.00105051
-0.00114218
-0.00123654
-0.00133354
-0.00143307
-0.00153503
-0.00163926
-0.00174559
-0.0018538
-0.00196364
-0.00207482
-0.00218702
-0.00229988
-0.00241301
-0.00252595
-0.00263824
-0.00274938
-0.00285882
-0.00296599
-0.00307028
-0.00317109
-0.00326777
-0.00335967
-0.00344614
-0.00352651
-0.00360015
-0.00366642
-0.00372471
-0.00377447
-0.00381516
-0.00384632
-0.00386752
-0.00387843
-0.00387879
-0.00386843
-0.00384727
-0.00381533
-0.00377276
-0.00371979
-0.00365679
-0.00358423
-0.00350273
-0.00341299
-0.00331585
-0.00321225
-0.00310325
-0.00298998
-0.00287369
-0.00275568
-0.00263732
-0.00252004
-0.00240529
-0.00229453
-0.00218925
-0.00209087
-0.00200082
-0.00192043
-0.00185097
-0.00179361
-0.00174941
-0.00171929
-0.00170403
-0.00170425
-0.00172039
-0.00175273
-0.00180135
-0.00186615
-0.00194686
-0.00204299
-0.00215392
-0.00227884
-0.00241679
-0.00256668
-0.00272729
-0.0028973
-0.00307533
-0.00325991
-0.00344957
-0.0036428
-0.00383811
-0.00403404
-0.00422918
-0.00442218
-0.00461178
-0.00479683
-0.00497626
-0.00514913
-0.00531461
-0.005472
-0.00562072
-0.00576029
-0.00589034
-0.00601062
-0.00612095
-0.00622121
-0.00631134
-0.00639135
-0.00646122
-0.00652097
-0.00657057
-0.00660998
-0.00663908
-0.00665766
-0.00666544
-0.00666208
-0.00664713
-0.00661891
-0.00657403
-0.00652397
0.000590408
0.000553501
0.000510612
0.000467411
0.00042279
0.000376468
0.000328619
0.000279367
0.000228756
0.000176792
0.000123447
6.86626e-05
1.23548e-05
-4.55813e-05
-0.000105267
-0.000166836
-0.000230429
-0.000296189
-0.00036426
-0.000434779
-0.00050788
-0.000583684
-0.0006623
-0.000743822
-0.000828325
-0.000915869
-0.00100649
-0.00110019
-0.00119698
-0.00129679
-0.00139957
-0.00150521
-0.00161358
-0.0017245
-0.00183777
-0.00195315
-0.00207034
-0.00218902
-0.00230882
-0.00242933
-0.0025501
-0.00267063
-0.00279039
-0.00290881
-0.00302528
-0.00313917
-0.00324981
-0.00335653
-0.00345863
-0.00355539
-0.00364612
-0.00373011
-0.00380668
-0.00387517
-0.00393495
-0.00398545
-0.00402613
-0.00405653
-0.00407626
-0.004085
-0.00408255
-0.00406877
-0.00404365
-0.00400729
-0.00395989
-0.00390179
-0.00383345
-0.00375545
-0.00366848
-0.00357337
-0.00347105
-0.00336259
-0.00324912
-0.0031319
-0.00301225
-0.00289156
-0.0027713
-0.00265294
-0.002538
-0.00242799
-0.0023244
-0.0022287
-0.00214229
-0.0020665
-0.00200255
-0.00195158
-0.00191457
-0.00189236
-0.00188564
-0.00189491
-0.0019205
-0.00196256
-0.00202104
-0.00209568
-0.00218607
-0.0022916
-0.00241148
-0.00254477
-0.00269038
-0.00284711
-0.00301362
-0.00318851
-0.00337031
-0.00355751
-0.00374859
-0.00394201
-0.0041363
-0.00433
-0.00452174
-0.00471024
-0.00489429
-0.00507282
-0.00524487
-0.0054096
-0.00556629
-0.00571435
-0.00585331
-0.00598281
-0.0061026
-0.00621251
-0.00631245
-0.00640237
-0.00648229
-0.00655222
-0.00661219
-0.0066622
-0.0067022
-0.0067321
-0.00675169
-0.0067607
-0.00675881
-0.00674558
-0.00671942
-0.00667711
-0.00662966
0.000683062
0.000638344
0.000587656
0.000538216
0.000488464
0.000437887
0.000386575
0.000334561
0.000281798
0.000228197
0.000173644
0.000117997
6.10961e-05
2.76307e-06
-5.71905e-05
-0.00011896
-0.000182744
-0.000248738
-0.000317135
-0.00038812
-0.000461865
-0.000538533
-0.000618268
-0.000701198
-0.000787433
-0.000877059
-0.000970139
-0.00106671
-0.00116679
-0.00127034
-0.00137733
-0.00148767
-0.00160122
-0.00171784
-0.00183731
-0.0019594
-0.00208381
-0.00221022
-0.00233823
-0.00246742
-0.00259733
-0.00272742
-0.00285714
-0.00298588
-0.003113
-0.00323783
-0.00335964
-0.00347771
-0.0035913
-0.00369963
-0.00380194
-0.00389748
-0.00398551
-0.00406529
-0.00413616
-0.00419746
-0.00424861
-0.00428908
-0.00431844
-0.00433631
-0.00434243
-0.00433661
-0.00431882
-0.00428909
-0.0042476
-0.00419465
-0.00413067
-0.00405622
-0.00397197
-0.00387875
-0.00377747
-0.00366918
-0.00355505
-0.00343633
-0.00331437
-0.00319058
-0.00306645
-0.0029435
-0.00282328
-0.00270736
-0.00259729
-0.00249458
-0.00240071
-0.00231708
-0.00224498
-0.00218561
-0.00214005
-0.00210919
-0.00209382
-0.00209449
-0.00211163
-0.00214543
-0.0021959
-0.00226286
-0.00234594
-0.00244455
-0.00255796
-0.00268524
-0.00282533
-0.00297701
-0.00313897
-0.00330979
-0.00348799
-0.00367202
-0.00386035
-0.00405141
-0.00424368
-0.00443568
-0.004626
-0.00481332
-0.0049964
-0.00517414
-0.00534554
-0.00550974
-0.00566601
-0.00581375
-0.00595248
-0.00608183
-0.00620155
-0.00631148
-0.00641153
-0.00650168
-0.00658195
-0.00665238
-0.00671299
-0.00676382
-0.00680483
-0.00683594
-0.00685696
-0.00686766
-0.0068677
-0.00685669
-0.00683315
-0.00679407
-0.00674985
0.000777154
0.000724317
0.000665518
0.000609583
0.000554479
0.000499452
0.000444493
0.000389543
0.000334448
0.000279021
0.000223054
0.000166317
0.000108567
4.95508e-05
-1.09916e-05
-7.332e-05
-0.000137692
-0.000204359
-0.000273563
-0.000345536
-0.000420495
-0.00049864
-0.000580154
-0.000665201
-0.000753922
-0.000846434
-0.000942828
-0.00104317
-0.00114749
-0.00125579
-0.00136804
-0.00148416
-0.00160404
-0.00172754
-0.00185444
-0.00198451
-0.00211745
-0.00225291
-0.0023905
-0.00252978
-0.00267023
-0.00281132
-0.00295244
-0.00309296
-0.00323218
-0.00336938
-0.00350379
-0.00363464
-0.00376111
-0.00388238
-0.00399763
-0.00410603
-0.00420678
-0.00429909
-0.00438222
-0.00445544
-0.00451813
-0.00456968
-0.0046096
-0.00463747
-0.00465295
-0.00465582
-0.00464597
-0.00462342
-0.0045883
-0.00454086
-0.00448151
-0.00441076
-0.00432929
-0.00423789
-0.00413747
-0.00402909
-0.00391389
-0.00379315
-0.00366823
-0.00354058
-0.00341169
-0.00328315
-0.00315654
-0.00303347
-0.00291557
-0.00280442
-0.00270155
-0.00260844
-0.00252647
-0.00245693
-0.00240097
-0.00235959
-0.00233363
-0.00232378
-0.0023305
-0.0023541
-0.00239465
-0.00245204
-0.00252596
-0.00261589
-0.00272112
-0.00284078
-0.00297382
-0.00311905
-0.00327516
-0.00344072
-0.00361425
-0.00379419
-0.00397896
-0.00416697
-0.00435667
-0.00454654
-0.00473512
-0.00492104
-0.00510305
-0.00527998
-0.00545081
-0.00561465
-0.00577074
-0.00591844
-0.00605727
-0.00618684
-0.0063069
-0.00641727
-0.00651789
-0.00660872
-0.0066898
-0.00676117
-0.00682289
-0.00687499
-0.00691745
-0.00695021
-0.00697312
-0.00698595
-0.00698839
-0.00698009
-0.00695967
-0.00692437
-0.00688389
0.000871405
0.000810181
0.000743006
0.000680366
0.000619734
0.000560098
0.000501345
0.00044331
0.000385729
0.000328308
0.000270735
0.000212688
0.000153836
9.38454e-05
3.23837e-05
-3.08767e-05
-9.62548e-05
-0.000164059
-0.000234582
-0.000308104
-0.000384886
-0.000465169
-0.000549175
-0.000637102
-0.000729125
-0.000825391
-0.00092602
-0.0010311
-0.00114069
-0.00125482
-0.00137345
-0.00149654
-0.00162399
-0.00175564
-0.00189129
-0.0020307
-0.00217356
-0.00231952
-0.00246816
-0.002619
-0.00277152
-0.00292514
-0.00307922
-0.00323306
-0.00338593
-0.00353706
-0.00368562
-0.00383078
-0.00397165
-0.00410735
-0.004237
-0.00435969
-0.00447456
-0.00458075
-0.00467743
-0.00476384
-0.00483926
-0.00490303
-0.00495459
-0.00499345
-0.00501922
-0.00503162
-0.0050305
-0.0050158
-0.00498762
-0.00494618
-0.00489182
-0.00482506
-0.00474653
-0.00465699
-0.00455735
-0.00444865
-0.00433205
-0.00420883
-0.00408035
-0.00394808
-0.00381357
-0.00367842
-0.00354426
-0.00341278
-0.00328565
-0.00316452
-0.003051
-0.00294667
-0.00285298
-0.00277133
-0.00270295
-0.00264896
-0.00261029
-0.00258773
-0.00258186
-0.00259306
-0.0026215
-0.00266717
-0.00272982
-0.002809
-0.00290408
-0.00301422
-0.00313841
-0.00327549
-0.00342418
-0.00358304
-0.00375059
-0.00392525
-0.00410543
-0.0042895
-0.00447588
-0.00466299
-0.00484935
-0.00503353
-0.00521422
-0.00539023
-0.00556047
-0.00572402
-0.00588008
-0.00602798
-0.00616719
-0.00629733
-0.00641811
-0.00652936
-0.00663098
-0.00672296
-0.00680532
-0.00687812
-0.00694142
-0.00699526
-0.00703965
-0.00707452
-0.00709978
-0.00711521
-0.0071205
-0.00711535
-0.00709851
-0.00706747
-0.00703116
0.000964489
0.00089465
0.00081888
0.000749365
0.000683065
0.000618696
0.000556032
0.000494793
0.000434594
0.000375023
0.000315662
0.00025609
0.000195882
0.000134621
7.18976e-05
7.31486e-06
-5.95099e-05
-0.000128942
-0.00020133
-0.000276999
-0.000356257
-0.000439386
-0.000526647
-0.000618273
-0.000714473
-0.000815426
-0.00092128
-0.00103215
-0.00114812
-0.00126922
-0.00139546
-0.00152678
-0.0016631
-0.00180427
-0.00195008
-0.00210029
-0.00225457
-0.00241256
-0.0025738
-0.00273781
-0.00290402
-0.0030718
-0.00324047
-0.0034093
-0.00357749
-0.00374421
-0.00390859
-0.00406969
-0.0042266
-0.00437835
-0.00452398
-0.00466252
-0.00479303
-0.00491458
-0.00502626
-0.00512725
-0.00521673
-0.005294
-0.00535841
-0.00540941
-0.00544654
-0.00546947
-0.00547797
-0.00547194
-0.00545142
-0.00541659
-0.00536774
-0.00530535
-0.00523002
-0.00514249
-0.00504364
-0.00493451
-0.00481625
-0.00469012
-0.00455752
-0.00441994
-0.00427894
-0.00413616
-0.0039933
-0.00385209
-0.00371425
-0.00358154
-0.00345564
-0.00333821
-0.00323082
-0.00313496
-0.00305197
-0.00298309
-0.00292937
-0.00289171
-0.00287081
-0.00286715
-0.00288104
-0.00291255
-0.00296153
-0.00302762
-0.00311026
-0.00320868
-0.00332193
-0.00344889
-0.00358829
-0.00373873
-0.00389872
-0.00406668
-0.00424099
-0.00442001
-0.00460209
-0.00478565
-0.00496911
-0.00515103
-0.00533003
-0.00550486
-0.00567439
-0.00583763
-0.00599373
-0.00614199
-0.00628185
-0.00641286
-0.00653474
-0.00664726
-0.00675034
-0.00684393
-0.00692806
-0.00700278
-0.00706815
-0.00712423
-0.00717103
-0.0072085
-0.00723658
-0.00725505
-0.00726362
-0.00726206
-0.00724922
-0.00722285
-0.00719105
0.00105503
0.000976389
0.000891846
0.000815323
0.000743251
0.000674059
0.000607394