/*--------------------------------*- C++ -*----------------------------------*\
  =========                 |
  \\      /  F ield         | OpenFOAM: The Open Source CFD Toolbox
   \\    /   O peration     | Website:  https://openfoam.org
    \\  /    A nd           | Version:  12
     \\/     M anipulation  |
\*---------------------------------------------------------------------------*/
FoamFile
{
    format      ascii;
    class       surfaceScalarField;
    location    "7";
    object      phi;
}
// * * * * * * * * * * * * * * * * * * * * * * * * * * * * * * * * * * * * * //

dimensions      [0 3 -1 0 0 0 0];

internalField   nonuniform List<scalar> 
36180
(
3.24686e-11
-3.26084e-11
1.64267e-10
-1.31783e-10
3.66781e-10
-2.02494e-10
6.01243e-10
-2.34445e-10
8.37281e-10
-2.36024e-10
1.05312e-09
-2.1583e-10
1.23386e-09
-1.80731e-10
1.36979e-09
-1.35934e-10
1.45506e-09
-8.52684e-11
1.48655e-09
-3.14805e-11
1.46305e-09
2.34947e-11
1.38471e-09
7.83425e-11
1.25252e-09
1.32185e-10
1.06803e-09
1.84491e-10
8.33054e-10
2.34978e-10
5.49506e-10
2.83547e-10
2.19271e-10
3.30234e-10
-1.55888e-10
3.75159e-10
-5.744e-10
4.18512e-10
-1.03491e-09
4.60511e-10
-1.5363e-09
5.01385e-10
-2.07765e-09
5.41351e-10
-2.65827e-09
5.80618e-10
-3.27764e-09
6.19372e-10
-3.93541e-09
6.57771e-10
-4.63135e-09
6.95935e-10
-5.3653e-09
7.33949e-10
-6.13716e-09
7.71858e-10
-6.94683e-09
8.09671e-10
-7.79419e-09
8.47358e-10
-8.67904e-09
8.84854e-10
-9.6011e-09
9.22061e-10
-1.05599e-08
9.58846e-10
-1.1555e-08
9.95049e-10
-1.25855e-08
1.03048e-09
-1.36504e-08
1.06493e-09
-1.47486e-08
1.09816e-09
-1.58785e-08
1.12992e-09
-1.70384e-08
1.15993e-09
-1.82263e-08
1.1879e-09
-1.94399e-08
1.21354e-09
-2.06764e-08
1.23652e-09
-2.19329e-08
1.25653e-09
-2.32062e-08
1.27325e-09
-2.44925e-08
1.28633e-09
-2.5788e-08
1.29546e-09
-2.70883e-08
1.30031e-09
-2.83888e-08
1.30055e-09
-2.96847e-08
1.29588e-09
-3.09707e-08
1.286e-09
-3.22413e-08
1.27062e-09
-3.34908e-08
1.24949e-09
-3.47132e-08
1.22236e-09
-3.59022e-08
1.18903e-09
-3.70515e-08
1.14932e-09
-3.81546e-08
1.10309e-09
-3.92049e-08
1.05024e-09
-4.01956e-08
9.9071e-10
-4.11201e-08
9.24489e-10
-4.19717e-08
8.5162e-10
-4.27439e-08
7.72195e-10
-4.34303e-08
6.86368e-10
-4.40246e-08
5.94347e-10
-4.4521e-08
4.96401e-10
-4.49139e-08
3.92851e-10
-4.51979e-08
2.84054e-10
-4.53684e-08
1.70434e-10
-4.54215e-08
5.31344e-11
-4.53531e-08
-6.83804e-11
-4.51604e-08
-1.92698e-10
-4.48411e-08
-3.19319e-10
-4.43936e-08
-4.47497e-10
-4.38172e-08
-5.76436e-10
-4.31119e-08
-7.05304e-10
-4.22786e-08
-8.33234e-10
-4.13193e-08
-9.59333e-10
-4.02366e-08
-1.08269e-09
-3.90342e-08
-1.20238e-09
-3.77168e-08
-1.31748e-09
-3.62897e-08
-1.42708e-09
-3.47594e-08
-1.53029e-09
-3.31331e-08
-1.62626e-09
-3.1419e-08
-1.71416e-09
-2.96257e-08
-1.79324e-09
-2.77629e-08
-1.86279e-09
-2.58408e-08
-1.92218e-09
-2.38699e-08
-1.97087e-09
-2.18615e-08
-2.00842e-09
-1.9827e-08
-2.03446e-09
-1.77783e-08
-2.04875e-09
-1.57271e-08
-2.05115e-09
-1.36855e-08
-2.04164e-09
-1.16652e-08
-2.0203e-09
-9.67783e-09
-1.98734e-09
-7.73476e-09
-1.94308e-09
-5.84682e-09
-1.88794e-09
-4.02436e-09
-1.82246e-09
-2.2771e-09
-1.74726e-09
-6.14039e-10
-1.66306e-09
9.56621e-10
-1.57066e-09
2.42754e-09
-1.47092e-09
3.79228e-09
-1.36474e-09
5.04537e-09
-1.25309e-09
6.18231e-09
-1.13694e-09
7.19963e-09
-1.01732e-09
8.09486e-09
-8.95233e-10
8.86651e-09
-7.71648e-10
9.51405e-09
-6.47537e-10
1.00379e-08
-5.23839e-10
1.04393e-08
-4.01445e-10
1.07205e-08
-2.81201e-10
1.08844e-08
-1.63896e-10
1.09347e-08
-5.02723e-11
1.08757e-08
5.90138e-11
1.07124e-08
1.63286e-10
1.04504e-08
2.62026e-10
1.00957e-08
3.54644e-10
9.65514e-09
4.40593e-10
9.13582e-09
5.19321e-10
8.54557e-09
5.90246e-10
7.89285e-09
6.52717e-10
7.18688e-09
7.05978e-10
6.43776e-09
7.4912e-10
5.65673e-09
7.81029e-10
4.8564e-09
8.00323e-10
4.05111e-09
8.05289e-10
3.2573e-09
7.93817e-10
2.49395e-09
7.63346e-10
1.78308e-09
7.10875e-10
1.14996e-09
6.33114e-10
6.22939e-10
5.27022e-10
2.31839e-10
3.911e-10
3.21748e-12
2.28622e-10
-5.51748e-11
5.83923e-11
-5.51748e-11
1.32414e-10
-1.65018e-10
4.63106e-10
-4.6246e-10
9.20263e-10
-6.59635e-10
1.43111e-09
-7.45273e-10
1.93344e-09
-7.38346e-10
2.37893e-09
-6.61307e-10
2.73205e-09
-5.33844e-10
2.96798e-09
-3.71866e-10
3.07043e-09
-1.87715e-10
3.02963e-09
9.32291e-12
2.84066e-09
2.12467e-10
2.50215e-09
4.16852e-10
2.01519e-09
6.19139e-10
1.38252e-09
8.17165e-10
6.07825e-10
1.00967e-09
-3.04707e-10
1.19608e-09
-1.35079e-09
1.37632e-09
-2.5263e-09
1.55067e-09
-3.8274e-09
1.71961e-09
-5.25065e-09
1.88376e-09
-6.7931e-09
2.04383e-09
-8.45228e-09
2.20053e-09
-1.02262e-08
2.35453e-09
-1.21132e-08
2.50642e-09
-1.41122e-08
2.6567e-09
-1.6222e-08
2.80573e-09
-1.84418e-08
2.95376e-09
-2.07708e-08
3.10091e-09
-2.32083e-08
3.24715e-09
-2.57533e-08
3.39231e-09
-2.84045e-08
3.53611e-09
-3.11606e-08
3.67813e-09
-3.40196e-08
3.81785e-09
-3.69792e-08
3.95462e-09
-4.00364e-08
4.08771e-09
-4.31877e-08
4.21628e-09
-4.6429e-08
4.33943e-09
-4.97553e-08
4.45618e-09
-5.31608e-08
4.56547e-09
-5.66391e-08
4.66622e-09
-6.01829e-08
4.75728e-09
-6.37838e-08
4.83747e-09
-6.74329e-08
4.90559e-09
-7.11201e-08
4.96043e-09
-7.48345e-08
5.00078e-09
-7.85644e-08
5.02541e-09
-8.22973e-08
5.03316e-09
-8.60196e-08
5.02285e-09
-8.97171e-08
4.99337e-09
-9.33748e-08
4.94368e-09
-9.69769e-08
4.87279e-09
-1.00507e-07
4.77979e-09
-1.03949e-07
4.66389e-09
-1.07284e-07
4.52441e-09
-1.10496e-07
4.36078e-09
-1.13565e-07
4.17259e-09
-1.16474e-07
3.95958e-09
-1.19205e-07
3.72164e-09
-1.2174e-07
3.45885e-09
-1.2406e-07
3.1715e-09
-1.26147e-07
2.86006e-09
-1.27986e-07
2.5252e-09
-1.2956e-07
2.16782e-09
-1.30852e-07
1.78904e-09
-1.3185e-07
1.39018e-09
-1.32538e-07
9.72728e-10
-1.32906e-07
5.38347e-10
-1.32943e-07
9.00625e-11
-1.3264e-07
-3.71284e-10
-1.3199e-07
-8.427e-10
-1.30988e-07
-1.32158e-09
-1.2963e-07
-1.80517e-09
-1.27916e-07
-2.29052e-09
-1.25847e-07
-2.77459e-09
-1.23426e-07
-3.2542e-09
-1.20659e-07
-3.72609e-09
-1.17555e-07
-4.18696e-09
-1.14124e-07
-4.63347e-09
-1.10379e-07
-5.06231e-09
-1.06336e-07
-5.4702e-09
-1.02012e-07
-5.85395e-09
-9.74282e-08
-6.2105e-09
-9.26054e-08
-6.53694e-09
-8.75681e-08
-6.83054e-09
-8.2342e-08
-7.08883e-09
-7.69547e-08
-7.30956e-09
-7.14347e-08
-7.49082e-09
-6.58121e-08
-7.63101e-09
-6.01177e-08
-7.72885e-09
-5.4383e-08
-7.78348e-09
-4.86398e-08
-7.79439e-09
-4.29199e-08
-7.7615e-09
-3.72551e-08
-7.68509e-09
-3.16765e-08
-7.5659e-09
-2.62146e-08
-7.40503e-09
-2.08985e-08
-7.20399e-09
-1.57563e-08
-6.96465e-09
-1.08144e-08
-6.68922e-09
-6.0972e-09
-6.38024e-09
-1.62731e-09
-6.04055e-09
2.57497e-09
-5.67319e-09
6.49168e-09
-5.28146e-09
1.01074e-08
-4.86877e-09
1.34091e-08
-4.4387e-09
1.63867e-08
-3.99487e-09
1.90323e-08
-3.54089e-09
2.13411e-08
-3.08042e-09
2.33106e-08
-2.617e-09
2.49408e-08
-2.15412e-09
2.62345e-08
-1.6951e-09
2.71964e-08
-1.24313e-09
2.78337e-08
-8.01224e-10
2.81557e-08
-3.72223e-10
2.81735e-08
4.12261e-11
2.79002e-08
4.3656e-10
2.73507e-08
8.11559e-10
2.65414e-08
1.16389e-09
2.54907e-08
1.49129e-09
2.42185e-08
1.79152e-09
2.27466e-08
2.06219e-09
2.10986e-08
2.30072e-09
1.93004e-08
2.50417e-09
1.73804e-08
2.66912e-09
1.53699e-08
2.79152e-09
1.33037e-08
2.86653e-09
1.12206e-08
2.8884e-09
9.16407e-09
2.85034e-09
7.18286e-09
2.74456e-09
5.33117e-09
2.56256e-09
3.66833e-09
2.29595e-09
2.25691e-09
1.93845e-09
1.15788e-09
1.49013e-09
4.20183e-10
9.66316e-10
5.85032e-11
4.20072e-10
3.32833e-12
2.04587e-10
-3.69609e-10
6.63639e-10
-9.21508e-10
1.26175e-09
-1.25774e-09
1.90457e-09
-1.38808e-09
2.51316e-09
-1.34692e-09
3.02437e-09
-1.17251e-09
3.39e-09
-8.99472e-10
3.57496e-09
-5.56826e-10
3.55507e-09
-1.6782e-10
3.31489e-09
2.49504e-10
2.84583e-09
6.81525e-10
2.14442e-09
1.11827e-09
1.21086e-09
1.5527e-09
4.79214e-11
1.98011e-09
-1.34002e-09
2.39761e-09
-2.94764e-09
2.8037e-09
-4.76922e-09
3.1979e-09
-6.79906e-09
3.5805e-09
-9.03174e-09
3.95229e-09
-1.14624e-08
4.31439e-09
-1.40866e-08
4.66806e-09
-1.69007e-08
5.0146e-09
-1.99014e-08
5.35526e-09
-2.30861e-08
5.69113e-09
-2.64525e-08
6.02311e-09
-2.99986e-08
6.35185e-09
-3.37226e-08
6.67775e-09
-3.76227e-08
7.00094e-09
-4.16968e-08
7.32126e-09
-4.59427e-08
7.63826e-09
-5.03579e-08
7.95126e-09
-5.4939e-08
8.25928e-09
-5.96823e-08
8.5611e-09
-6.4583e-08
8.85531e-09
-6.96355e-08
9.14025e-09
-7.48333e-08
9.41409e-09
-8.01687e-08
9.67484e-09
-8.56329e-08
9.92035e-09
-9.12158e-08
1.01484e-08
-9.6906e-08
1.03565e-08
-1.02691e-07
1.05422e-08
-1.08557e-07
1.07031e-08
-1.14488e-07
1.08366e-08
-1.20467e-07
1.094e-08
-1.26477e-07
1.10109e-08
-1.32499e-07
1.10467e-08
-1.3851e-07
1.10448e-08
-1.44491e-07
1.1003e-08
-1.50416e-07
1.09189e-08
-1.56263e-07
1.07904e-08
-1.62006e-07
1.06155e-08
-1.67618e-07
1.03925e-08
-1.73074e-07
1.01197e-08
-1.78346e-07
9.79597e-09
-1.83405e-07
9.42021e-09
-1.88224e-07
8.99173e-09
-1.92775e-07
8.51017e-09
-1.97029e-07
7.97555e-09
-2.00958e-07
7.38823e-09
-2.04536e-07
6.74903e-09
-2.07735e-07
6.05913e-09
-2.1053e-07
5.32021e-09
-2.12896e-07
4.53435e-09
-2.14811e-07
3.70412e-09
-2.16254e-07
2.83249e-09
-2.17204e-07
1.92292e-09
-2.17645e-07
9.79341e-10
-2.17561e-07
6.55486e-12
-2.16941e-07
-9.91306e-10
-2.15775e-07
-2.00881e-09
-2.14056e-07
-3.0404e-09
-2.11781e-07
-4.08017e-09
-2.0895e-07
-5.12193e-09
-2.05565e-07
-6.15924e-09
-2.01634e-07
-7.18544e-09
-1.97166e-07
-8.19374e-09
-1.92176e-07
-9.17725e-09
-1.8668e-07
-1.01291e-08
-1.807e-07
-1.10423e-08
-1.7426e-07
-1.19102e-08
-1.67388e-07
-1.27263e-08
-1.60115e-07
-1.34841e-08
-1.52474e-07
-1.41777e-08
-1.44503e-07
-1.48016e-08
-1.36241e-07
-1.53507e-08
-1.2773e-07
-1.58203e-08
-1.19014e-07
-1.62065e-08
-1.10139e-07
-1.65061e-08
-1.01152e-07
-1.67165e-08
-9.20992e-08
-1.68358e-08
-8.30305e-08
-1.68631e-08
-7.3994e-08
-1.6798e-08
-6.50378e-08
-1.66412e-08
-5.62095e-08
-1.63942e-08
-4.75554e-08
-1.60592e-08
-3.91203e-08
-1.56391e-08
-3.09471e-08
-1.51379e-08
-2.30763e-08
-1.456e-08
-1.55459e-08
-1.39106e-08
-8.39098e-09
-1.31955e-08
-1.64317e-09
-1.2421e-08
4.66919e-09
-1.15938e-08
1.05215e-08
-1.0721e-08
1.58928e-08
-9.81005e-09
2.07663e-08
-8.86835e-09
2.51289e-08
-7.90355e-09
2.89718e-08
-6.92327e-09
3.22898e-08
-5.93501e-09
3.50818e-08
-4.94613e-09
3.73504e-08
-3.96375e-09
3.9102e-08
-2.99471e-09
4.03464e-08
-2.04556e-09
4.10966e-08
-1.12248e-09
4.13692e-08
-2.31345e-10
4.11835e-08
6.22283e-10
4.05619e-08
1.43315e-09
3.95297e-08
2.19612e-09
3.81148e-08
2.90611e-09
3.63483e-08
3.55801e-09
3.42641e-08
4.14648e-09
3.1899e-08
4.66578e-09
2.92936e-08
5.10954e-09
2.64922e-08
5.47053e-09
2.35433e-08
5.7404e-09
2.05004e-08
5.90945e-09
1.74223e-08
5.96649e-09
1.43738e-08
5.89881e-09
1.1426e-08
5.69244e-09
8.65564e-09
5.3329e-09
6.14446e-09
4.80712e-09
3.97576e-09
4.10715e-09
2.22871e-09
3.23718e-09
9.68269e-10
2.22676e-09
2.29339e-10
1.159e-09
2.32667e-10
2.38069e-10
-6.07682e-10
7.51747e-10
-1.43519e-09
1.3941e-09
-1.90009e-09
2.05353e-09
-2.0475e-09
2.64036e-09
-1.93375e-09
3.08304e-09
-1.61518e-09
3.32616e-09
-1.14259e-09
3.32847e-09
-5.5914e-10
3.06074e-09
9.9909e-11
2.50361e-09
8.06636e-10
1.64559e-09
1.53955e-09
4.8125e-10
2.2826e-09
-9.90269e-10
3.02422e-09
-2.76661e-09
3.75645e-09
-4.84326e-09
4.47426e-09
-7.21439e-09
5.17483e-09
-9.87356e-09
5.85707e-09
-1.28142e-08
6.52112e-09
-1.60298e-08
7.16797e-09
-1.95146e-08
7.79916e-09
-2.32631e-08
8.41653e-09
-2.72705e-08
9.02198e-09
-3.15325e-08
9.6173e-09
-3.60455e-08
1.02041e-08
-4.0806e-08
1.07837e-08
-4.58111e-08
1.13569e-08
-5.10575e-08
1.19242e-08
-5.65422e-08
1.24856e-08
-6.22617e-08
1.30408e-08
-6.82122e-08
1.35887e-08
-7.43891e-08
1.41281e-08
-8.0787e-08
1.46572e-08
-8.73996e-08
1.51737e-08
-9.42195e-08
1.56752e-08
-1.01238e-07
1.61587e-08
-1.08445e-07
1.66211e-08
-1.15829e-07
1.70588e-08
-1.23377e-07
1.74681e-08
-1.31074e-07
1.78452e-08
-1.38903e-07
1.8186e-08
-1.46847e-07
1.84862e-08
-1.54885e-07
1.87416e-08
-1.62997e-07
1.89478e-08
-1.71157e-07
1.91005e-08
-1.79341e-07
1.91954e-08
-1.87523e-07
1.92283e-08
-1.95673e-07
1.91951e-08
-2.03762e-07
1.90918e-08
-2.11758e-07
1.89148e-08
-2.19628e-07
1.86606e-08
-2.27339e-07
1.83262e-08
-2.34855e-07
1.79086e-08
-2.42141e-07
1.74056e-08
-2.4916e-07
1.68153e-08
-2.55876e-07
1.61362e-08
-2.62252e-07
1.53674e-08
-2.6825e-07
1.45087e-08
-2.73835e-07
1.35605e-08
-2.78971e-07
1.25236e-08
-2.83621e-07
1.13998e-08
-2.87754e-07
1.01914e-08
-2.91335e-07
8.90158e-09
-2.94335e-07
7.53413e-09
-2.96724e-07
6.09365e-09
-2.98477e-07
4.58548e-09
-2.9957e-07
3.01568e-09
-2.99982e-07
1.39111e-09
-2.99695e-07
-2.80584e-10
-2.98695e-07
-1.99144e-09
-2.96971e-07
-3.73261e-09
-2.94516e-07
-5.4947e-09
-2.91329e-07
-7.26776e-09
-2.87409e-07
-9.04144e-09
-2.82764e-07
-1.0805e-08
-2.77402e-07
-1.25473e-08
-2.71338e-07
-1.42572e-08
-2.64592e-07
-1.59232e-08
-2.57187e-07
-1.75341e-08
-2.49151e-07
-1.90783e-08
-2.40516e-07
-2.0545e-08
-2.31319e-07
-2.19233e-08
-2.21601e-07
-2.3203e-08
-2.11404e-07
-2.43741e-08
-2.00778e-07
-2.54277e-08
-1.89773e-07
-2.63555e-08
-1.78444e-07
-2.71499e-08
-1.66846e-07
-2.78045e-08
-1.55038e-07
-2.8314e-08
-1.4308e-07
-2.86741e-08
-1.31034e-07
-2.88819e-08
-1.18962e-07
-2.89356e-08
-1.06925e-07
-2.88348e-08
-9.49857e-08
-2.85804e-08
-8.32052e-08
-2.81747e-08
-7.16431e-08
-2.76213e-08
-6.03572e-08
-2.6925e-08
-4.94031e-08
-2.6092e-08
-3.88334e-08
-2.51297e-08
-2.86976e-08
-2.40463e-08
-1.90418e-08
-2.28514e-08
-9.90773e-09
-2.15551e-08
-1.33309e-09
-2.01684e-08
6.64903e-09
-1.87032e-08
1.40103e-08
-1.71713e-08
2.07273e-08
-1.55854e-08
2.67817e-08
-1.39579e-08
3.21601e-08
-1.23017e-08
3.68543e-08
-1.06292e-08
4.0861e-08
-8.95283e-09
4.41819e-08
-7.2847e-09
4.68237e-08
-5.63645e-09
4.87974e-08
-4.01924e-09
5.01187e-08
-2.44379e-09
5.08077e-08
-9.20364e-10
5.08886e-08
5.41333e-10
5.03898e-08
1.93195e-09
4.93435e-08
3.24243e-09
4.77858e-08
4.46381e-09
4.57568e-08
5.587e-09
4.33007e-08
6.60264e-09
4.04657e-08
7.50078e-09
3.73046e-08
8.2706e-09
3.38752e-08
8.9e-09
3.02402e-08
9.37539e-09
2.64683e-08
9.68134e-09
2.26342e-08
9.80054e-09
1.88192e-08
9.71389e-09
1.51105e-08
9.40106e-09
1.16015e-08
8.84191e-09
8.38937e-09
8.01927e-09
5.57256e-09
6.92396e-09
3.24617e-09
5.56356e-09
1.49591e-09
3.97702e-09
3.93042e-10
2.26187e-09
6.25709e-10
2.40016e-10
-8.47706e-10
7.42175e-10
-1.93735e-09
1.34291e-09
-2.50082e-09
1.91937e-09
-2.62396e-09
2.3751e-09
-2.38948e-09
2.63401e-09
-1.87408e-09
2.63712e-09
-1.14569e-09
2.34013e-09
-2.62153e-10
1.71117e-09
7.28873e-10
7.28646e-10
1.78916e-09
-6.20686e-10
2.88889e-09
-2.34352e-09
4.00543e-09
-4.44157e-09
5.12227e-09
-6.91296e-09
6.22784e-09
-9.75332e-09
7.31462e-09
-1.29567e-08
8.37822e-09
-1.65164e-08
9.41671e-09
-2.04252e-08
1.04299e-08
-2.46761e-08
1.14189e-08
-2.92626e-08
1.23857e-08
-3.41785e-08
1.33324e-08
-3.94179e-08
1.42615e-08
-4.4976e-08
1.51753e-08
-5.08478e-08
1.60759e-08
-5.70289e-08
1.69648e-08
-6.35151e-08
1.7843e-08
-7.03018e-08
1.87109e-08
-7.73844e-08
1.95682e-08
-8.47577e-08
2.04141e-08
-9.24158e-08
2.12469e-08
-1.00352e-07
2.20643e-08
-1.08558e-07
2.28635e-08
-1.17026e-07
2.36411e-08
-1.25744e-07
2.43931e-08
-1.347e-07
2.51148e-08
-1.4388e-07
2.58015e-08
-1.53269e-07
2.64478e-08
-1.62849e-07
2.70481e-08
-1.726e-07
2.75963e-08
-1.82501e-07
2.80864e-08
-1.92527e-07
2.8512e-08
-2.02652e-07
2.88668e-08
-2.12848e-07
2.91443e-08
-2.23086e-07
2.93381e-08
-2.33332e-07
2.94418e-08
-2.43554e-07
2.94494e-08
-2.53713e-07
2.93548e-08
-2.63774e-07
2.91524e-08
-2.73696e-07
2.8837e-08
-2.83439e-07
2.84037e-08
-2.92961e-07
2.78482e-08
-3.02219e-07
2.71667e-08
-3.1117e-07
2.6356e-08
-3.19768e-07
2.54137e-08
-3.2797e-07
2.43383e-08
-3.35732e-07
2.31287e-08
-3.43008e-07
2.17851e-08
-3.49756e-07
2.03085e-08
-3.55933e-07
1.87008e-08
-3.61498e-07
1.69649e-08
-3.66412e-07
1.51048e-08
-3.70636e-07
1.31256e-08
-3.74135e-07
1.10335e-08
-3.76877e-07
8.83558e-09
-3.78832e-07
6.54019e-09
-3.79973e-07
4.15666e-09
-3.80277e-07
1.69536e-09
-3.79725e-07
-8.32307e-10
-3.78302e-07
-3.41414e-09
-3.75998e-07
-6.03699e-09
-3.72806e-07
-8.68691e-09
-3.68724e-07
-1.13492e-08
-3.63757e-07
-1.40086e-08
-3.57913e-07
-1.66494e-08
-3.51205e-07
-1.92553e-08
-3.43652e-07
-2.18099e-08
-3.35279e-07
-2.42967e-08
-3.26114e-07
-2.66991e-08
-3.16191e-07
-2.90008e-08
-3.0555e-07
-3.11857e-08
-2.94236e-07
-3.32383e-08
-2.82295e-07
-3.51437e-08
-2.69781e-07
-3.68878e-08
-2.56751e-07
-3.84575e-08
-2.43266e-07
-3.98408e-08
-2.29389e-07
-4.1027e-08
-2.15186e-07
-4.20068e-08
-2.00728e-07
-4.27724e-08
-1.86085e-07
-4.33177e-08
-1.71328e-07
-4.36383e-08
-1.56532e-07
-4.37316e-08
-1.4177e-07
-4.35969e-08
-1.27115e-07
-4.32355e-08
-1.12639e-07
-4.26504e-08
-9.84137e-08
-4.18468e-08
-8.45072e-08
-4.08315e-08
-7.0986e-08
-3.96133e-08
-5.79132e-08
-3.82025e-08
-4.53485e-08
-3.66111e-08
-3.33473e-08
-3.48526e-08
-2.19606e-08
-3.29417e-08
-1.12346e-08
-3.08945e-08
-1.21014e-09
-2.87276e-08
8.07725e-09
-2.64587e-08
1.65978e-08
-2.4106e-08
2.43277e-08
-2.16878e-08
3.12489e-08
-1.92229e-08
3.73494e-08
-1.67297e-08
4.26233e-08
-1.42267e-08
4.70703e-08
-1.17318e-08
5.06964e-08
-9.26251e-09
5.35129e-08
-6.83573e-09
5.55368e-08
-4.46774e-09
5.67906e-08
-2.17408e-09
5.73016e-08
3.02492e-11
5.71028e-08
2.13075e-09
5.62318e-08
4.11345e-09
5.47312e-08
5.96448e-09
5.26484e-08
7.66979e-09
5.0036e-08
9.21502e-09
4.69516e-08
1.05851e-08
4.34583e-08
1.1764e-08
3.96244e-08
1.27338e-08
3.55246e-08
1.34752e-08
3.12396e-08
1.39664e-08
2.68565e-08
1.41837e-08
2.2469e-08
1.41014e-08
1.8177e-08
1.3693e-08
1.40862e-08
1.29328e-08
1.03062e-08
1.17993e-08
6.94894e-09
1.02812e-08
4.12656e-09
8.38595e-09
1.94967e-09
6.1539e-09
5.30654e-10
3.68089e-09
1.15636e-09
2.17721e-10
-1.06543e-09
6.52932e-10
-2.37256e-09
1.13743e-09
-2.98532e-09
1.54371e-09
-3.03024e-09
1.77256e-09
-2.61833e-09
1.7464e-09
-1.84791e-09
1.40541e-09
-8.04701e-10
7.0462e-10
4.38634e-10
-3.88484e-10
1.82198e-09
-1.89612e-09
3.2968e-09
-3.83214e-09
4.8249e-09
-6.20374e-09
6.37704e-09
-9.01306e-09
7.93159e-09
-1.22585e-08
9.47327e-09
-1.59358e-08
1.09919e-08
-2.0039e-08
1.24814e-08
-2.45612e-08
1.3939e-08
-2.94952e-08
1.53639e-08
-3.48334e-08
1.67572e-08
-4.05689e-08
1.81211e-08
-4.66949e-08
1.94583e-08
-5.32049e-08
2.07715e-08
-6.0093e-08
2.20635e-08
-6.73536e-08
2.33365e-08
-7.4981e-08
2.45922e-08
-8.29697e-08
2.58316e-08
-9.13136e-08
2.70548e-08
-1.00006e-07
2.8261e-08
-1.09041e-07
2.94485e-08
-1.18409e-07
3.06149e-08
-1.28101e-07
3.17567e-08
-1.38107e-07
3.28695e-08
-1.48415e-07
3.39485e-08
-1.59009e-07
3.49877e-08
-1.69875e-07
3.59808e-08
-1.80994e-07
3.69207e-08
-1.92346e-07
3.78e-08
-2.03909e-07
3.86106e-08
-2.15657e-07
3.93444e-08
-2.27563e-07
3.99927e-08
-2.39598e-07
4.05468e-08
-2.51729e-07
4.09979e-08
-2.63922e-07
4.13372e-08
-2.7614e-07
4.1556e-08
-2.88344e-07
4.16457e-08
-3.00493e-07
4.15981e-08
-3.12543e-07
4.14051e-08
-3.2445e-07
4.10594e-08
-3.36167e-07
4.05541e-08
-3.47646e-07
3.98829e-08
-3.58838e-07
3.90403e-08
-3.69693e-07
3.80216e-08
-3.8016e-07
3.68231e-08
-3.90189e-07
3.5442e-08
-3.99727e-07
3.38765e-08
-4.08724e-07
3.21263e-08
-4.17131e-07
3.01919e-08
-4.24898e-07
2.80754e-08
-4.31977e-07
2.578e-08
-4.38323e-07
2.33105e-08
-4.43891e-07
2.06729e-08
-4.4864e-07
1.78747e-08
-4.52532e-07
1.49249e-08
-4.5553e-07
1.18339e-08
-4.57603e-07
8.6134e-09
-4.58723e-07
5.27657e-09
-4.58866e-07
1.83794e-09
-4.58011e-07
-1.68673e-09
-4.56145e-07
-5.28049e-09
-4.53257e-07
-8.92529e-09
-4.49341e-07
-1.2602e-08
-4.444e-07
-1.62908e-08
-4.38438e-07
-1.99707e-08
-4.31467e-07
-2.36205e-08
-4.23504e-07
-2.72184e-08
-4.14571e-07
-3.07422e-08
-4.04698e-07
-3.41697e-08
-3.93919e-07
-3.74788e-08
-3.82272e-07
-4.06475e-08
-3.69803e-07
-4.36544e-08
-3.56563e-07
-4.64789e-08
-3.42605e-07
-4.9101e-08
-3.27991e-07
-5.15019e-08
-3.12784e-07
-5.36643e-08
-2.97053e-07
-5.5572e-08
-2.8087e-07
-5.72107e-08
-2.64308e-07
-5.85682e-08
-2.47447e-07
-5.96338e-08
-2.30365e-07
-6.03993e-08
-2.13145e-07
-6.08588e-08
-1.95868e-07
-6.10087e-08
-1.78617e-07
-6.0848e-08
-1.61474e-07
-6.0378e-08
-1.44522e-07
-5.96026e-08
-1.2784e-07
-5.85285e-08
-1.11507e-07
-5.71645e-08
-9.55984e-08
-5.55221e-08
-8.0186e-08
-5.36149e-08
-6.53384e-08
-5.14587e-08
-5.11196e-08
-4.90713e-08
-3.7589e-08
-4.64724e-08
-2.48003e-08
-4.36831e-08
-1.2802e-08
-4.07259e-08
-1.63619e-09
-3.76245e-08
8.66097e-09
-3.44031e-08
1.806e-08
-3.10868e-08
2.65381e-08
-2.77009e-08
3.4079e-08
-2.42706e-08
4.06734e-08
-2.08211e-08
4.63187e-08
-1.73771e-08
5.10191e-08
-1.39628e-08
5.47851e-08
-1.06017e-08
5.76339e-08
-7.3166e-09
5.95892e-08
-4.12932e-09
6.06806e-08
-1.06112e-09
6.09438e-08
1.86755e-09
6.04205e-08
4.63673e-09
5.91582e-08
7.22679e-09
5.72102e-08
9.61774e-09
5.46358e-08
1.17894e-08
5.14999e-08
1.3721e-08
4.78738e-08
1.53901e-08
4.38346e-08
1.6773e-08
3.94661e-08
1.78437e-08
3.48586e-08
1.85739e-08
3.01091e-08
1.89332e-08
2.53211e-08
1.88894e-08
2.06044e-08
1.84096e-08
1.60748e-08
1.74623e-08
1.18532e-08
1.6021e-08
8.06471e-09
1.40696e-08
4.83931e-09
1.16113e-08
2.31358e-09
8.67963e-09
6.38644e-10
5.35583e-09
1.79501e-09
1.76836e-10
-1.24227e-09
4.99571e-10
-2.6953e-09
8.04018e-10
-3.28977e-09
9.64017e-10
-3.19024e-09
8.81501e-10
-2.53582e-09
4.80329e-10
-1.44674e-09
-2.97829e-10
-2.65418e-11
-1.4966e-09
1.63741e-09
-3.14744e-09
3.47282e-09
-5.27179e-09
5.42115e-09
-7.88299e-09
7.4361e-09
-1.09879e-08
9.48199e-09
-1.45886e-08
1.15323e-08
-1.86834e-08
1.3568e-08
-2.32678e-08
1.55764e-08
-2.83361e-08
1.75497e-08
-3.38812e-08
1.9484e-08
-3.98956e-08
2.13783e-08
-4.63718e-08
2.32334e-08
-5.33023e-08
2.50516e-08
-6.06799e-08
2.68359e-08
-6.84977e-08
2.85893e-08
-7.67489e-08
3.03147e-08
-8.54269e-08
3.20145e-08
-9.45249e-08
3.36903e-08
-1.04036e-07
3.53427e-08
-1.13953e-07
3.69714e-08
-1.24266e-07
3.85748e-08
-1.34968e-07
4.01502e-08
-1.46047e-07
4.16939e-08
-1.57491e-07
4.3201e-08
-1.69287e-07
4.46654e-08
-1.81419e-07
4.60801e-08
-1.93869e-07
4.74374e-08
-2.06616e-07
4.87285e-08
-2.1964e-07
4.9944e-08
-2.32913e-07
5.10738e-08
-2.4641e-07
5.21075e-08
-2.601e-07
5.3034e-08
-2.73949e-07
5.38422e-08
-2.87923e-07
5.45207e-08
-3.01983e-07
5.5058e-08
-3.16089e-07
5.54426e-08
-3.30196e-07
5.56635e-08
-3.4426e-07
5.57097e-08
-3.58233e-07
5.55707e-08
-3.72064e-07
5.52365e-08
-3.85703e-07
5.4698e-08
-3.99095e-07
5.39466e-08
-4.12187e-07
5.29747e-08
-4.24923e-07
5.17758e-08
-4.37246e-07
5.03445e-08
-4.49099e-07
4.86765e-08
-4.60426e-07
4.67691e-08
-4.7117e-07
4.46209e-08
-4.81276e-07
4.22319e-08
-4.90688e-07
3.96038e-08
-4.99353e-07
3.67401e-08
-5.07219e-07
3.36459e-08
-5.14236e-07
3.03279e-08
-5.20358e-07
2.67949e-08
-5.2554e-07
2.30572e-08
-5.29743e-07
1.91271e-08
-5.32927e-07
1.50186e-08
-5.35061e-07
1.07474e-08
-5.36116e-07
6.33109e-09
-5.36067e-07
1.7887e-09
-5.34894e-07
-2.85912e-09
-5.32584e-07
-7.59026e-09
-5.29128e-07
-1.23813e-08
-5.24523e-07
-1.72076e-08
-5.1877e-07
-2.20434e-08
-5.11879e-07
-2.68622e-08
-5.03863e-07
-3.16365e-08
-4.94742e-07
-3.63387e-08
-4.84544e-07
-4.09405e-08
-4.733e-07
-4.54138e-08
-4.61048e-07
-4.97303e-08
-4.47833e-07
-5.38624e-08
-4.33705e-07
-5.7783e-08
-4.18718e-07
-6.14658e-08
-4.02933e-07
-6.48857e-08
-3.86416e-07
-6.8019e-08
-3.69237e-07
-7.08435e-08
-3.5147e-07
-7.33391e-08
-3.33193e-07
-7.54875e-08
-3.14488e-07
-7.72729e-08
-2.9544e-07
-7.86821e-08
-2.76135e-07
-7.97043e-08
-2.56662e-07
-8.0332e-08
-2.3711e-07
-8.05603e-08
-2.17571e-07
-8.03875e-08
-1.98134e-07
-7.98152e-08
-1.78888e-07
-7.8848e-08
-1.59923e-07
-7.74938e-08
-1.41324e-07
-7.57635e-08
-1.23175e-07
-7.36714e-08
-1.05555e-07
-7.12342e-08
-8.85423e-08
-6.84718e-08
-7.22072e-08
-6.54064e-08
-5.6617e-08
-6.20626e-08
-4.18329e-08
-5.84673e-08
-2.791e-08
-5.46488e-08
-1.48975e-08
-5.0637e-08
-2.83739e-09
-4.64632e-08
8.23503e-09
-4.21593e-08
1.82918e-08
-3.77576e-08
2.73121e-08
-3.3291e-08
3.52829e-08
-2.87919e-08
4.21983e-08
-2.42925e-08
4.806e-08
-1.98245e-08
5.28771e-08
-1.54189e-08
5.66661e-08
-1.11056e-08
5.94506e-08
-6.91375e-09
6.1261e-08
-2.87159e-09
6.21351e-08
9.93459e-10
6.21173e-08
4.65451e-09
6.12588e-08
8.08534e-09
5.96169e-08
1.12596e-08
5.72561e-08
1.41503e-08
5.42471e-08
1.673e-08
5.06674e-08
1.89698e-08
4.66013e-08
2.08391e-08
4.21397e-08
2.23052e-08
3.73805e-08
2.3333e-08
3.24285e-08
2.38852e-08
2.73952e-08
2.39228e-08
2.23988e-08
2.34061e-08
1.7564e-08
2.22971e-08
1.3022e-08
2.05629e-08
8.91138e-09
1.81803e-08
5.37939e-09
1.51433e-08
2.58698e-09
1.1472e-08
7.18266e-10
7.22455e-09
2.51327e-09
1.21531e-10
-1.36381e-09
2.94448e-10
-2.86823e-09
3.64581e-10
-3.35991e-09
2.12063e-10
-3.03773e-09
-2.56365e-10
-2.06739e-09
-1.11266e-09
-5.90444e-10
-2.4115e-09
1.27229e-09
-4.19336e-09
3.41927e-09
-6.4871e-09
5.76656e-09
-9.31212e-09
8.24618e-09
-1.26802e-08
1.08042e-08
-1.65972e-08
1.33989e-08
-2.10642e-08
1.59993e-08
-2.6079e-08
1.85829e-08
-3.16372e-08
2.11346e-08
-3.77326e-08
2.36451e-08
-4.43579e-08
2.61094e-08
-5.15057e-08
2.85261e-08
-5.91682e-08
3.08959e-08
-6.73377e-08
3.32211e-08
-7.60066e-08
3.55048e-08
-8.51674e-08
3.77501e-08
-9.48127e-08
3.996e-08
-1.04935e-07
4.21366e-08
-1.15526e-07
4.42814e-08
-1.26578e-07
4.63943e-08
-1.3808e-07
4.84742e-08
-1.50024e-07
5.05186e-08
-1.62397e-07
5.25233e-08
-1.75187e-07
5.44831e-08
-1.88377e-07
5.63913e-08
-2.01951e-07
5.82397e-08
-2.1589e-07
6.00192e-08
-2.30173e-07
6.17195e-08
-2.44773e-07
6.33294e-08
-2.59666e-07
6.48365e-08
-2.7482e-07
6.62283e-08
-2.90204e-07
6.74912e-08
-3.05781e-07
6.86113e-08
-3.21514e-07
6.95746e-08
-3.3736e-07
7.03669e-08
-3.53276e-07
7.09737e-08
-3.69214e-07
7.13812e-08
-3.85126e-07
7.15754e-08
-4.00959e-07
7.1543e-08
-4.1666e-07
7.12714e-08
-4.32172e-07
7.07486e-08
-4.47438e-07
6.99636e-08
-4.62398e-07
6.89065e-08
-4.76992e-07
6.75685e-08
-4.91158e-07
6.59422e-08
-5.04835e-07
6.40218e-08
-5.17962e-07
6.18028e-08
-5.30475e-07
5.92828e-08
-5.42315e-07
5.64608e-08
-5.53421e-07
5.3338e-08
-5.63735e-07
4.99176e-08
-5.732e-07
4.62047e-08
-5.81761e-07
4.22067e-08
-5.89365e-07
3.79328e-08
-5.95965e-07
3.33949e-08
-6.01515e-07
2.86065e-08
-6.05972e-07
2.35838e-08
-6.09298e-07
1.83447e-08
-6.1146e-07
1.29094e-08
-6.12429e-07
7.30004e-09
-6.12181e-07
1.54072e-09
-6.10697e-07
-4.34268e-09
-6.07965e-07
-1.03226e-08
-6.03976e-07
-1.63699e-08
-5.9873e-07
-2.24541e-08
-5.9223e-07
-2.85434e-08
-5.84486e-07
-3.46052e-08
-5.75517e-07
-4.0606e-08
-5.65344e-07
-4.65116e-08
-5.53997e-07
-5.22876e-08
-5.41511e-07
-5.78996e-08
-5.27928e-07
-6.33133e-08
-5.13296e-07
-6.8495e-08
-4.97667e-07
-7.34116e-08
-4.81102e-07
-7.80312e-08
-4.63664e-07
-8.23233e-08
-4.45424e-07
-8.62589e-08
-4.26457e-07
-8.98111e-08
-4.06841e-07
-9.29551e-08
-3.86659e-07
-9.56688e-08
-3.66e-07
-9.79326e-08
-3.44952e-07
-9.97303e-08
-3.23607e-07
-1.01049e-07
-3.02062e-07
-1.01878e-07
-2.80411e-07
-1.02211e-07
-2.58751e-07
-1.02047e-07
-2.37178e-07
-1.01387e-07
-2.15791e-07
-1.00236e-07
-1.94682e-07
-9.86021e-08
-1.73946e-07
-9.64994e-08
-1.53674e-07
-9.39441e-08
-1.33952e-07
-9.09564e-08
-1.14863e-07
-8.75599e-08
-9.64883e-08
-8.37815e-08
-7.88999e-08
-7.9651e-08
-6.21667e-08
-7.52006e-08
-4.63505e-08
-7.0465e-08
-3.15068e-08
-6.54807e-08
-1.7684e-08
-6.0286e-08
-4.92309e-09
-5.49201e-08
6.74243e-09
-4.94232e-08
1.7287e-08
-4.38356e-08
2.66932e-08
-3.8198e-08
3.49514e-08
-3.25507e-08
4.20604e-08
-2.69335e-08
4.80268e-08
-2.13853e-08
5.28656e-08
-1.59443e-08
5.65994e-08
-1.06475e-08
5.92588e-08
-5.531e-09
6.0882e-08
-6.29807e-10
6.1515e-08
4.02154e-09
6.12114e-08
8.38892e-09
6.00322e-08
1.24389e-08
5.80448e-08
1.61377e-08
5.53244e-08
1.94504e-08
5.19534e-08
2.23407e-08
4.80216e-08
2.4771e-08
4.36255e-08
2.67013e-08
3.88691e-08
2.80894e-08
3.38636e-08
2.88908e-08
2.8727e-08
2.90593e-08
2.3585e-08
2.85481e-08
1.85705e-08
2.73117e-08
1.38245e-08
2.53088e-08
9.49796e-09
2.25068e-08
5.75441e-09
1.88869e-08
2.77581e-09
1.44506e-08
7.72413e-10
9.22795e-09
3.28569e-09
5.48069e-11
-1.41862e-09
4.70416e-11
-2.86046e-09
-1.63325e-10
-3.14954e-09
-6.85954e-10
-2.5151e-09
-1.60605e-09
-1.1473e-09
-2.98886e-09
7.92367e-10
-4.88335e-09
3.16678e-09
-7.32518e-09
5.86109e-09
-1.03392e-08
8.78058e-09
-1.39416e-08
1.18485e-08
-1.81415e-08
1.50042e-08
-2.2943e-08
1.82004e-08
-2.83458e-08
2.14021e-08
-3.43468e-08
2.45839e-08
-4.09408e-08
2.77286e-08
-4.81213e-08
3.08255e-08
-5.58808e-08
3.38689e-08
-6.42117e-08
3.68569e-08
-7.31059e-08
3.97901e-08
-8.25556e-08
4.26708e-08
-9.25527e-08
4.55019e-08
-1.03089e-07
4.82867e-08
-1.14157e-07
5.10279e-08
-1.25748e-07
5.37273e-08
-1.37852e-07
5.63856e-08
-1.5046e-07
5.90022e-08
-1.6356e-07
6.15747e-08
-1.77141e-07
6.40991e-08
-1.91188e-07
6.65699e-08
-2.05684e-07
6.89797e-08
-2.20613e-07
7.13197e-08
-2.35952e-07
7.35795e-08
-2.51681e-07
7.57474e-08
-2.67771e-07
7.78102e-08
-2.84196e-07
7.97538e-08
-3.00922e-07
8.15631e-08
-3.17916e-07
8.32222e-08
-3.35139e-07
8.47146e-08
-3.52551e-07
8.60233e-08
-3.70108e-07
8.71312e-08
-3.87762e-07
8.8021e-08
-4.05464e-07
8.86755e-08
-4.23161e-07
8.90778e-08
-4.40797e-07
8.92116e-08
-4.58315e-07
8.90613e-08
-4.75656e-07
8.86118e-08
-4.92756e-07
8.78495e-08
-5.09555e-07
8.67617e-08
-5.25985e-07
8.53373e-08
-5.41983e-07
8.35664e-08
-5.57482e-07
8.14412e-08
-5.72416e-07
7.89556e-08
-5.86719e-07
7.61053e-08
-6.00324e-07
7.28884e-08
-6.13168e-07
6.9305e-08
-6.25188e-07
6.53578e-08
-6.36322e-07
6.10514e-08
-6.46511e-07
5.63935e-08
-6.55698e-07
5.13937e-08
-6.6383e-07
4.60646e-08
-6.70856e-07
4.04211e-08
-6.7673e-07
3.44807e-08
-6.81409e-07
2.82633e-08
-6.84856e-07
2.17915e-08
-6.87037e-07
1.50901e-08
-6.87923e-07
8.18612e-09
-6.87491e-07
1.109e-09
-6.85724e-07
-6.10994e-09
-6.82609e-07
-1.34374e-08
-6.78141e-07
-2.08385e-08
-6.72318e-07
-2.82765e-08
-6.65148e-07
-3.57137e-08
-6.56642e-07
-4.3111e-08
-6.4682e-07
-5.04285e-08
-6.35705e-07
-5.76259e-08
-6.23331e-07
-6.46623e-08
-6.09733e-07
-7.1497e-08
-5.94957e-07
-7.80893e-08
-5.79053e-07
-8.43994e-08
-5.62076e-07
-9.03882e-08
-5.4409e-07
-9.60179e-08
-5.2516e-07
-1.01252e-07
-5.05362e-07
-1.06057e-07
-4.84772e-07
-1.10401e-07
-4.63474e-07
-1.14253e-07
-4.41554e-07
-1.17589e-07
-4.19104e-07
-1.20383e-07
-3.96217e-07
-1.22617e-07
-3.7299e-07
-1.24275e-07
-3.49524e-07
-1.25344e-07
-3.25919e-07
-1.25817e-07
-3.02277e-07
-1.2569e-07
-2.787e-07
-1.24964e-07
-2.55291e-07
-1.23645e-07
-2.32151e-07
-1.21742e-07
-2.09379e-07
-1.19271e-07
-1.87072e-07
-1.16251e-07
-1.65325e-07
-1.12704e-07
-1.44227e-07
-1.08658e-07
-1.23865e-07
-1.04144e-07
-1.04318e-07
-9.91975e-08
-8.56626e-08
-9.38562e-08
-6.79665e-08
-8.8161e-08