/*--------------------------------*- C++ -*----------------------------------*\
  =========                 |
  \\      /  F ield         | OpenFOAM: The Open Source CFD Toolbox
   \\    /   O peration     | Website:  https://openfoam.org
    \\  /    A nd           | Version:  12
     \\/     M anipulation  |
\*---------------------------------------------------------------------------*/
FoamFile
{
    format      ascii;
    class       volVectorField;
    location    "7";
    object      U;
}
// * * * * * * * * * * * * * * * * * * * * * * * * * * * * * * * * * * * * * //

dimensions      [0 1 -1 0 0 0 0];

internalField   nonuniform List<vector> 
18225
(
(2.51974e-07 -2.53971e-07 0)
(1.14521e-05 -3.57821e-06 0)
(3.45159e-05 -6.01467e-06 0)
(6.48968e-05 -7.07639e-06 0)
(9.74169e-05 -7.22239e-06 0)
(0.000128465 -6.77561e-06 0)
(0.000155609 -5.96102e-06 0)
(0.000177233 -4.93678e-06 0)
(0.000192315 -3.80864e-06 0)
(0.000200276 -2.64496e-06 0)
(0.000200844 -1.4893e-06 0)
(0.000193964 -3.6822e-07 0)
(0.000179723 7.03341e-07 0)
(0.000158303 1.71796e-06 0)
(0.000129937 2.67407e-06 0)
(9.48826e-05 3.5742e-06 0)
(5.33991e-05 4.4218e-06 0)
(5.73512e-06 5.22275e-06 0)
(-4.78819e-05 5.98363e-06 0)
(-0.000107254 6.71249e-06 0)
(-0.000172214 7.41667e-06 0)
(-0.000242625 8.10285e-06 0)
(-0.000318378 8.77672e-06 0)
(-0.000399393 9.44368e-06 0)
(-0.000485612 1.01084e-05 0)
(-0.000576996 1.07745e-05 0)
(-0.000673521 1.14449e-05 0)
(-0.00077517 1.21214e-05 0)
(-0.00088193 1.28051e-05 0)
(-0.000993789 1.34962e-05 0)
(-0.00111073 1.41941e-05 0)
(-0.00123271 1.48974e-05 0)
(-0.00135969 1.56041e-05 0)
(-0.00149161 1.63116e-05 0)
(-0.00162836 1.70166e-05 0)
(-0.00176984 1.77154e-05 0)
(-0.0019159 1.84036e-05 0)
(-0.00206636 1.90766e-05 0)
(-0.00222099 1.97291e-05 0)
(-0.00237954 2.03557e-05 0)
(-0.00254173 2.09504e-05 0)
(-0.0027072 2.15071e-05 0)
(-0.00287559 2.20194e-05 0)
(-0.00304647 2.24805e-05 0)
(-0.00321937 2.28837e-05 0)
(-0.00339378 2.32219e-05 0)
(-0.00356914 2.3488e-05 0)
(-0.00374486 2.36749e-05 0)
(-0.00392028 2.37756e-05 0)
(-0.00409474 2.37831e-05 0)
(-0.00426749 2.36906e-05 0)
(-0.00443779 2.34915e-05 0)
(-0.00460484 2.31797e-05 0)
(-0.00476781 2.27493e-05 0)
(-0.00492586 2.21953e-05 0)
(-0.00507811 2.15129e-05 0)
(-0.00522367 2.06982e-05 0)
(-0.00536165 1.97482e-05 0)
(-0.00549113 1.86608e-05 0)
(-0.00561123 1.74347e-05 0)
(-0.00572104 1.60701e-05 0)
(-0.00581969 1.45679e-05 0)
(-0.00590633 1.29308e-05 0)
(-0.00598014 1.11625e-05 0)
(-0.00604033 9.26785e-06 0)
(-0.00608616 7.24998e-06 0)
(-0.006117 5.11763e-06 0)
(-0.00613217 2.90386e-06 0)
(-0.00613127 5.75754e-07 0)
(-0.00611372 -1.8189e-06 0)
(-0.00607921 -4.28072e-06 0)
(-0.00602748 -6.7922e-06 0)
(-0.00595837 -9.33652e-06 0)
(-0.00587183 -1.18962e-05 0)
(-0.00576793 -1.44526e-05 0)
(-0.00564685 -1.69865e-05 0)
(-0.00550891 -1.94778e-05 0)
(-0.00535453 -2.19062e-05 0)
(-0.00518427 -2.42509e-05 0)
(-0.00499882 -2.64916e-05 0)
(-0.00479898 -2.8608e-05 0)
(-0.00458567 -3.05805e-05 0)
(-0.00435992 -3.23903e-05 0)
(-0.00412288 -3.40198e-05 0)
(-0.00387579 -3.54528e-05 0)
(-0.00361997 -3.66748e-05 0)
(-0.00335684 -3.76731e-05 0)
(-0.00308788 -3.8437e-05 0)
(-0.00281462 -3.89585e-05 0)
(-0.00253863 -3.92317e-05 0)
(-0.00226151 -3.92534e-05 0)
(-0.00198488 -3.90232e-05 0)
(-0.00171032 -3.85433e-05 0)
(-0.00143945 -3.78185e-05 0)
(-0.00117379 -3.68564e-05 0)
(-0.000914863 -3.56672e-05 0)
(-0.000664093 -3.42633e-05 0)
(-0.000422839 -3.26595e-05 0)
(-0.000192367 -3.08724e-05 0)
(2.61585e-05 -2.89204e-05 0)
(0.000231687 -2.68236e-05 0)
(0.000423286 -2.46029e-05 0)
(0.000600155 -2.22807e-05 0)
(0.000761614 -1.98745e-05 0)
(0.000907126 -1.74098e-05 0)
(0.00103629 -1.49105e-05 0)
(0.00114885 -1.2396e-05 0)
(0.00124465 -9.88654e-06 0)
(0.0013237 -7.40152e-06 0)
(0.00138611 -4.95897e-06 0)
(0.00143211 -2.57539e-06 0)
(0.00146205 -2.65805e-07 0)
(0.00147639 1.9564e-06 0)
(0.00147565 4.07869e-06 0)
(0.00146048 6.09179e-06 0)
(0.00143159 7.98855e-06 0)
(0.00138976 9.75838e-06 0)
(0.00133586 1.13941e-05 0)
(0.00127082 1.28881e-05 0)
(0.00119566 1.42321e-05 0)
(0.00111148 1.54159e-05 0)
(0.00101945 1.64264e-05 0)
(0.000920885 1.72462e-05 0)
(0.000817215 1.78515e-05 0)
(0.000710043 1.82099e-05 0)
(0.000601176 1.82774e-05 0)
(0.000492683 1.79943e-05 0)
(0.000386947 1.72808e-05 0)
(0.000286729 1.6032e-05 0)
(0.000195229 1.41154e-05 0)
(0.00011611 1.13775e-05 0)
(5.34217e-05 7.66287e-06 0)
(1.12033e-05 2.88654e-06 0)
(-7.90531e-06 -2.47084e-06 0)
(-5.58738e-06 -5.58854e-06 0)
(3.6144e-06 -1.14859e-05 0)
(3.61027e-05 -3.59658e-05 0)
(9.05788e-05 -5.32142e-05 0)
(0.000158063 -6.11589e-05 0)
(0.000228268 -6.14119e-05 0)
(0.000293589 -5.59946e-05 0)
(0.000348461 -4.66224e-05 0)
(0.000388888 -3.463e-05 0)
(0.000412157 -2.1019e-05 0)
(0.000416563 -6.5199e-06 0)
(0.000401164 8.34485e-06 0)
(0.000365571 2.32189e-05 0)
(0.000309798 3.78581e-05 0)
(0.000234124 5.21119e-05 0)
(0.000139003 6.58969e-05 0)
(2.49822e-05 7.91805e-05 0)
(-0.000107359 9.19702e-05 0)
(-0.000257442 0.000104296 0)
(-0.000424732 0.000116206 0)
(-0.000608729 0.000127752 0)
(-0.000809003 0.000138993 0)
(-0.00102519 0.000149987 0)
(-0.00125698 0.00016079 0)
(-0.00150414 0.000171449 0)
(-0.00176649 0.000182006 0)
(-0.00204386 0.000192493 0)
(-0.00233614 0.000202931 0)
(-0.00264322 0.000213332 0)
(-0.00296499 0.000223697 0)
(-0.00330134 0.000234017 0)
(-0.00365214 0.000244274 0)
(-0.00401719 0.000254441 0)
(-0.00439629 0.000264481 0)
(-0.00478913 0.00027435 0)
(-0.00519538 0.000283996 0)
(-0.0056146 0.000293361 0)
(-0.00604626 0.000302381 0)
(-0.00648975 0.000310985 0)
(-0.00694435 0.000319099 0)
(-0.00740925 0.000326644 0)
(-0.0078835 0.000333539 0)
(-0.00836606 0.000339697 0)
(-0.00885576 0.000345031 0)
(-0.00935131 0.000349454 0)
(-0.0098513 0.000352875 0)
(-0.0103542 0.000355205 0)
(-0.0108584 0.000356357 0)
(-0.0113621 0.000356244 0)
(-0.0118634 0.000354781 0)
(-0.0123604 0.00035189 0)
(-0.012851 0.000347494 0)
(-0.013333 0.000341524 0)
(-0.0138041 0.000333917 0)
(-0.0142621 0.000324616 0)
(-0.0147047 0.000313577 0)
(-0.0151292 0.000300762 0)
(-0.0155334 0.000286146 0)
(-0.0159147 0.000269715 0)
(-0.0162707 0.000251468 0)
(-0.016599 0.000231418 0)
(-0.016897 0.000209594 0)
(-0.0171626 0.000186037 0)
(-0.0173935 0.000160808 0)
(-0.0175874 0.000133981 0)
(-0.0177425 0.000105646 0)
(-0.0178567 7.58984e-05 0)
(-0.0179284 4.48481e-05 0)
(-0.017956 1.28307e-05 0)
(-0.0179383 -2.03042e-05 0)
(-0.0178742 -5.42049e-05 0)
(-0.0177628 -8.87069e-05 0)
(-0.0176035 -0.000123611 0)
(-0.0173962 -0.000158704 0)
(-0.0171407 -0.00019376 0)
(-0.0168375 -0.000228544 0)
(-0.016487 -0.000262816 0)
(-0.0160904 -0.000296328 0)
(-0.0156489 -0.000328834 0)
(-0.0151641 -0.000360083 0)
(-0.0146378 -0.000389831 0)
(-0.0140724 -0.00041784 0)
(-0.0134705 -0.000443877 0)
(-0.0128347 -0.000467723 0)
(-0.0121683 -0.000489174 0)
(-0.0114747 -0.000508041 0)
(-0.0107574 -0.000524156 0)
(-0.0100202 -0.000537374 0)
(-0.00926704 -0.000547573 0)
(-0.00850212 -0.000554659 0)
(-0.00772962 -0.000558564 0)
(-0.00695381 -0.000559251 0)
(-0.00617901 -0.000556715 0)
(-0.00540951 -0.000550978 0)
(-0.00464958 -0.000542095 0)
(-0.00390336 -0.000530152 0)
(-0.0031749 -0.000515262 0)
(-0.00246808 -0.000497568 0)
(-0.00178656 -0.000477239 0)
(-0.00113379 -0.000454466 0)
(-0.000512955 -0.000429462 0)
(7.30503e-05 -0.00040246 0)
(0.000621639 -0.000373704 0)
(0.00113055 -0.00034345 0)
(0.00159786 -0.000311968 0)
(0.00202202 -0.000279529 0)
(0.0024018 -0.000246399 0)
(0.00273636 -0.000212847 0)
(0.00302519 -0.000179135 0)
(0.00326813 -0.000145516 0)
(0.00346538 -0.000112235 0)
(0.00361745 -7.95196e-05 0)
(0.00372513 -4.75872e-05 0)
(0.00378956 -1.66386e-05 0)
(0.00381209 1.31417e-05 0)
(0.00379439 4.15655e-05 0)
(0.00373834 6.8495e-05 0)
(0.00364605 9.37648e-05 0)
(0.00351987 0.000117218 0)
(0.00336239 0.000138703 0)
(0.00317641 0.000158057 0)
(0.00296499 0.000175099 0)
(0.00273147 0.000189621 0)
(0.00247951 0.000201373 0)
(0.00221311 0.000210053 0)
(0.00193672 0.000215291 0)
(0.0016553 0.000216631 0)
(0.00137437 0.000213521 0)
(0.00110015 0.000205302 0)
(0.000839604 0.000191218 0)
(0.000600425 0.000170472 0)
(0.000390946 0.00014238 0)
(0.000219724 0.00010674 0)
(9.46875e-05 6.47046e-05 0)
(2.13249e-05 2.1291e-05 0)
(-2.46874e-06 -7.9084e-06 0)
(6.11818e-06 -3.47276e-05 0)
(5.36959e-05 -9.05777e-05 0)
(0.000126911 -0.000126335 0)
(0.000213582 -0.000141447 0)
(0.000300489 -0.000139259 0)
(0.000377911 -0.000123758 0)
(0.000438457 -9.85446e-05 0)
(0.000476594 -6.65878e-05 0)
(0.000488388 -3.02292e-05 0)
(0.00047123 8.74644e-06 0)
(0.000423556 4.90119e-05 0)
(0.000344606 8.96085e-05 0)
(0.000234198 0.000129872 0)
(9.25701e-05 0.000169367 0)
(-7.97719e-05 0.000207835 0)
(-0.000282153 0.000245151 0)
(-0.000513811 0.000281286 0)
(-0.000773965 0.000316283 0)
(-0.00106185 0.000350227 0)
(-0.00137678 0.000383238 0)
(-0.00171812 0.000415446 0)
(-0.00208532 0.000446985 0)
(-0.00247792 0.000477984 0)
(-0.00289552 0.000508554 0)
(-0.00333779 0.000538788 0)
(-0.00380445 0.000568755 0)
(-0.00429525 0.000598502 0)
(-0.00480994 0.000628046 0)
(-0.00534826 0.00065738 0)
(-0.00590995 0.000686468 0)
(-0.00649468 0.000715251 0)
(-0.00710205 0.000743644 0)
(-0.0077316 0.000771539 0)
(-0.00838274 0.000798808 0)
(-0.00905479 0.000825302 0)
(-0.00974694 0.000850853 0)
(-0.0104582 0.000875281 0)
(-0.0111875 0.000898387 0)
(-0.0119335 0.000919963 0)
(-0.0126949 0.000939789 0)
(-0.0134699 0.000957639 0)
(-0.0142568 0.000973277 0)
(-0.0150537 0.000986465 0)
(-0.0158582 0.000996962 0)
(-0.0166681 0.00100453 0)
(-0.0174809 0.00100892 0)
(-0.0182939 0.00100991 0)
(-0.0191041 0.00100726 0)
(-0.0199085 0.00100076 0)
(-0.020704 0.000990208 0)
(-0.0214871 0.000975402 0)
(-0.0222545 0.000956171 0)
(-0.0230025 0.000932361 0)
(-0.0237276 0.000903842 0)
(-0.0244258 0.000870507 0)
(-0.0250936 0.00083228 0)
(-0.025727 0.000789114 0)
(-0.0263222 0.000740996 0)
(-0.0268755 0.00068795 0)
(-0.0273831 0.000630036 0)
(-0.0278414 0.000567355 0)
(-0.0282468 0.000500047 0)
(-0.028596 0.000428298 0)
(-0.0288858 0.000352334 0)
(-0.029113 0.000272423 0)
(-0.0292751 0.000188876 0)
(-0.0293696 0.000102048 0)
(-0.0293941 1.23996e-05 0)
(-0.029347 -7.969e-05 0)
(-0.0292267 -0.000173737 0)
(-0.0290321 -0.000269214 0)
(-0.0287626 -0.000365567 0)
(-0.0284179 -0.000462215 0)
(-0.0279981 -0.000558553 0)
(-0.027504 -0.000653954 0)
(-0.0269367 -0.000747775 0)
(-0.0262977 -0.000839364 0)
(-0.0255893 -0.000928065 0)
(-0.0248139 -0.00101323 0)
(-0.0239747 -0.0010942 0)
(-0.0230751 -0.00117037 0)
(-0.0221192 -0.00124113 0)
(-0.0211113 -0.0013059 0)
(-0.0200562 -0.00136416 0)
(-0.0189592 -0.00141541 0)
(-0.0178256 -0.00145923 0)
(-0.0166613 -0.00149522 0)
(-0.0154724 -0.00152309 0)
(-0.0142651 -0.00154258 0)
(-0.0130458 -0.00155351 0)
(-0.011821 -0.0015558 0)
(-0.0105973 -0.00154942 0)
(-0.00938122 -0.00153443 0)
(-0.00817921 -0.00151097 0)
(-0.00699763 -0.00147926 0)
(-0.00584265 -0.00143959 0)
(-0.0047202 -0.00139233 0)
(-0.00363592 -0.0013379 0)
(-0.00259513 -0.00127682 0)
(-0.00160276 -0.00120962 0)
(-0.000663318 -0.00113691 0)
(0.00021913 -0.00105934 0)
(0.00104101 -0.000977582 0)
(0.00179923 -0.000892329 0)
(0.00249127 -0.000804298 0)
(0.00311508 -0.000714205 0)
(0.00366919 -0.000622769 0)
(0.00415266 -0.000530694 0)
(0.00456507 -0.000438669 0)
(0.00490653 -0.000347357 0)
(0.00517763 -0.000257392 0)
(0.00537948 -0.000169377 0)
(0.00551364 -8.38803e-05 0)
(0.00558209 -1.43945e-06 0)
(0.00558726 7.74435e-05 0)
(0.00553198 0.000152297 0)
(0.00541946 0.000222656 0)
(0.0052533 0.000288065 0)
(0.00503749 0.000348063 0)
(0.00477638 0.00040217 0)
(0.00447476 0.00044986 0)
(0.00413785 0.000490545 0)
(0.00377134 0.000523545 0)
(0.0033815 0.000548064 0)
(0.00297519 0.000563159 0)
(0.00255997 0.000567722 0)
(0.00214418 0.000560466 0)
(0.00173698 0.000539942 0)
(0.00134838 0.000504605 0)
(0.000989156 0.00045299 0)
(0.000670559 0.000384114 0)
(0.000403721 0.000298258 0)
(0.000198887 0.000198561 0)
(6.48948e-05 9.47e-05 0)
(2.90491e-06 1.12414e-05 0)
(7.27458e-06 -6.55185e-05 0)
(6.19723e-05 -0.000158469 0)
(0.000142363 -0.000213133 0)
(0.000233634 -0.000232982 0)
(0.000320559 -0.000223961 0)
(0.000392168 -0.000192361 0)
(0.000440054 -0.0001439 0)
(0.000457786 -8.34191e-05 0)
(0.000440675 -1.48381e-05 0)
(0.000385506 5.8767e-05 0)
(0.000290263 0.000135052 0)
(0.000153857 0.000212286 0)
(-2.40882e-05 0.000289235 0)
(-0.000243433 0.000365064 0)
(-0.000503681 0.00043925 0)
(-0.000804109 0.000511511 0)
(-0.00114387 0.000581751 0)
(-0.00152207 0.000650004 0)
(-0.00193783 0.000716395 0)
(-0.00239029 0.000781104 0)
(-0.00287871 0.000844343 0)
(-0.00340238 0.000906329 0)
(-0.0039607 0.000967269 0)
(-0.00455313 0.00102734 0)
(-0.0051792 0.00108671 0)
(-0.00583848 0.00114546 0)
(-0.00653056 0.00120367 0)
(-0.00725503 0.00126135 0)
(-0.00801144 0.00131846 0)
(-0.00879931 0.00137493 0)
(-0.00961808 0.00143062 0)
(-0.0104671 0.00148535 0)
(-0.0113455 0.00153891 0)
(-0.0122525 0.00159104 0)
(-0.0131869 0.00164145 0)
(-0.0141475 0.0016898 0)
(-0.0151328 0.00173574 0)
(-0.0161412 0.00177889 0)
(-0.0171707 0.00181885 0)
(-0.0182193 0.00185519 0)
(-0.0192847 0.00188747 0)
(-0.0203642 0.00191526 0)
(-0.0214551 0.00193809 0)
(-0.0225542 0.00195551 0)
(-0.0236584 0.00196708 0)
(-0.024764 0.00197234 0)
(-0.0258674 0.00197086 0)
(-0.0269646 0.00196222 0)
(-0.0280514 0.00194603 0)
(-0.0291234 0.00192191 0)
(-0.0301763 0.00188953 0)
(-0.0312053 0.00184858 0)
(-0.0322056 0.00179879 0)
(-0.0331725 0.00173995 0)
(-0.0341008 0.00167189 0)
(-0.0349858 0.00159449 0)
(-0.0358222 0.00150772 0)
(-0.0366053 0.00141158 0)
(-0.0373301 0.00130615 0)
(-0.0379919 0.00119159 0)
(-0.0385858 0.00106811 0)
(-0.0391075 0.000936039 0)
(-0.0395528 0.000795743 0)
(-0.0399174 0.000647689 0)
(-0.0401979 0.000492417 0)
(-0.0403907 0.000330545 0)
(-0.0404929 0.00016278 0)
(-0.0405018 -1.0075e-05 0)
(-0.0404154 -0.000187204 0)
(-0.0402318 -0.000367692 0)
(-0.0399499 -0.000550552 0)
(-0.0395691 -0.000734741 0)
(-0.0390892 -0.00091917 0)
(-0.0385108 -0.00110271 0)
(-0.0378349 -0.00128418 0)
(-0.0370631 -0.00146241 0)
(-0.0361977 -0.00163618 0)
(-0.0352417 -0.00180428 0)
(-0.0341984 -0.00196552 0)
(-0.033072 -0.00211871 0)
(-0.031867 -0.00226272 0)
(-0.0305888 -0.00239643 0)
(-0.029243 -0.00251881 0)
(-0.0278358 -0.00262889 0)
(-0.026374 -0.00272578 0)
(-0.0248646 -0.00280869 0)
(-0.023315 -0.00287692 0)
(-0.0217332 -0.00292991 0)
(-0.020127 -0.0029672 0)
(-0.0185047 -0.00298848 0)
(-0.0168746 -0.00299358 0)
(-0.0152451 -0.00298243 0)
(-0.0136247 -0.00295516 0)
(-0.0120216 -0.002912 0)
(-0.010444 -0.00285335 0)
(-0.00889991 -0.00277973 0)
(-0.0073969 -0.0026918 0)
(-0.00594233 -0.00259035 0)
(-0.00454312 -0.00247627 0)
(-0.00320572 -0.00235057 0)
(-0.00193606 -0.00221435 0)
(-0.00073954 -0.00206877 0)
(0.000379074 -0.00191509 0)
(0.00141563 -0.00175458 0)
(0.00236662 -0.00158856 0)
(0.00322923 -0.00141837 0)
(0.00400131 -0.00124533 0)
(0.00468141 -0.00107078 0)
(0.00526876 -0.000896008 0)
(0.00576325 -0.000722274 0)
(0.00616544 -0.000550789 0)
(0.00647654 -0.000382715 0)
(0.00669837 -0.000219148 0)
(0.00683333 -6.11444e-05 0)
(0.00688443 9.02985e-05 0)
(0.00685522 0.000234234 0)
(0.00674979 0.000369741 0)
(0.00657274 0.000495906 0)
(0.00632924 0.000611806 0)
(0.00602495 0.000716482 0)
(0.0056661 0.000808911 0)
(0.00525952 0.000887961 0)
(0.00481265 0.000952361 0)
(0.0043336 0.00100065 0)
(0.00383124 0.00103117 0)
(0.00331524 0.001042 0)
(0.00279611 0.00103102 0)
(0.00228524 0.000995899 0)
(0.00179487 0.000934309 0)
(0.00133792 0.000844204 0)
(0.000927699 0.000724453 0)
(0.000577285 0.000575942 0)
(0.000299302 0.000403551 0)
(0.000107243 0.00022004 0)
(7.71737e-06 5.36247e-05 0)
(7.50528e-06 -9.86131e-05 0)
(6.22242e-05 -0.000229039 0)
(0.000139453 -0.000299788 0)
(0.000222617 -0.000319637 0)
(0.000295293 -0.000297887 0)
(0.000345794 -0.000243457 0)
(0.000365193 -0.000164333 0)
(0.000346622 -6.73175e-05 0)
(0.000285009 4.20015e-05 0)
(0.000176811 0.000159166 0)
(1.97401e-05 0.000280722 0)
(-0.000187493 0.000404068 0)
(-0.000445407 0.000527314 0)
(-0.00075395 0.000649155 0)
(-0.00111267 0.000768748 0)
(-0.00152083 0.000885616 0)
(-0.00197757 0.000999559 0)
(-0.00248192 0.00111058 0)
(-0.00303294 0.00121882 0)
(-0.00362968 0.00132453 0)
(-0.00427128 0.00142797 0)
(-0.00495695 0.00152944 0)
(-0.00568595 0.00162923 0)
(-0.00645762 0.00172759 0)
(-0.00727134 0.0018247 0)
(-0.00812653 0.00192071 0)
(-0.0090226 0.00201567 0)
(-0.00995895 0.00210958 0)
(-0.0109349 0.00220235 0)
(-0.0119497 0.00229383 0)
(-0.0130026 0.00238377 0)
(-0.0140925 0.00247187 0)
(-0.0152183 0.00255778 0)
(-0.0163787 0.00264104 0)
(-0.0175722 0.00272118 0)
(-0.0187969 0.00279766 0)
(-0.0200509 0.0028699 0)
(-0.0213319 0.00293728 0)
(-0.0226375 0.00299914 0)
(-0.0239647 0.0030548 0)
(-0.0253106 0.00310357 0)
(-0.0266717 0.00314474 0)
(-0.0280444 0.00317759 0)
(-0.0294248 0.0032014 0)
(-0.0308086 0.00321547 0)
(-0.0321913 0.0032191 0)
(-0.0335683 0.00321162 0)
(-0.0349345 0.0031924 0)
(-0.0362847 0.00316082 0)
(-0.0376135 0.00311633 0)
(-0.0389153 0.00305842 0)
(-0.0401844 0.00298666 0)
(-0.0414149 0.00290067 0)
(-0.042601 0.00280014 0)
(-0.0437365 0.00268488 0)
(-0.0448155 0.00255474 0)
(-0.045832 0.00240971 0)
(-0.0467801 0.00224987 0)
(-0.047654 0.00207539 0)
(-0.0484479 0.00188658 0)
(-0.0491565 0.00168384 0)
(-0.0497745 0.00146772 0)
(-0.050297 0.00123887 0)
(-0.0507193 0.000998067 0)
(-0.0510373 0.000746206 0)
(-0.051247 0.000484309 0)
(-0.0513453 0.000213519 0)
(-0.0513291 -6.49021e-05 0)
(-0.0511963 -0.000349612 0)
(-0.050945 -0.00063915 0)
(-0.0505741 -0.000931961 0)
(-0.0500831 -0.00122641 0)
(-0.0494721 -0.00152078 0)
(-0.0487419 -0.0018133 0)
(-0.0478941 -0.00210216 0)
(-0.0469307 -0.00238551 0)
(-0.0458548 -0.00266148 0)
(-0.0446699 -0.00292821 0)
(-0.0433803 -0.00318385 0)
(-0.0419909 -0.00342659 0)
(-0.0405073 -0.00365466 0)
(-0.0389359 -0.00386638 0)
(-0.0372833 -0.00406016 0)
(-0.0355572 -0.00423451 0)
(-0.0337653 -0.00438807 0)
(-0.0319162 -0.00451963 0)
(-0.0300186 -0.00462814 0)
(-0.0280816 -0.00471271 0)
(-0.0261149 -0.00477266 0)
(-0.0241279 -0.0048075 0)
(-0.0221307 -0.00481694 0)
(-0.0201331 -0.0048009 0)
(-0.018145 -0.00475954 0)
(-0.0161763 -0.00469323 0)
(-0.0142366 -0.00460253 0)
(-0.0123354 -0.00448824 0)
(-0.0104819 -0.00435137 0)
(-0.00868473 -0.00419308 0)
(-0.00695227 -0.00401476 0)
(-0.00529228 -0.00381793 0)
(-0.00371197 -0.00360427 0)
(-0.0022179 -0.00337557 0)
(-0.000815957 -0.00313375 0)
(0.000488691 -0.00288078 0)
(0.00169164 -0.00261871 0)
(0.00278926 -0.00234961 0)
(0.00377872 -0.00207556 0)
(0.00465799 -0.00179865 0)
(0.00542588 -0.00152091 0)
(0.00608195 -0.00124435 0)
(0.00662662 -0.0009709 0)
(0.00706102 -0.000702418 0)
(0.0073871 -0.0004407 0)
(0.00760752 -0.000187458 0)
(0.00772563 5.56921e-05 0)
(0.00774554 0.000287158 0)
(0.00767199 0.000505422 0)
(0.0075104 0.000708976 0)
(0.00726684 0.000896289 0)
(0.00694807 0.00106579 0)
(0.00656153 0.00121582 0)
(0.00611533 0.00134459 0)
(0.00561834 0.00145011 0)
(0.00508022 0.00153015 0)
(0.00451143 0.00158224 0)
(0.0039233 0.0016036 0)
(0.00332803 0.00159123 0)
(0.00273872 0.00154195 0)
(0.00216927 0.00145269 0)
(0.00163426 0.00132085 0)
(0.0011487 0.00114512 0)
(0.00072756 0.000926656 0)
(0.000386191 0.000671105 0)
(0.000143316 0.000392002 0)
(1.14796e-05 0.000116679 0)
(7.09765e-06 -0.000130156 0)
(5.61292e-05 -0.00029394 0)
(0.000121312 -0.000375331 0)
(0.000185263 -0.000388702 0)
(0.000231201 -0.000347121 0)
(0.000247187 -0.000262381 0)
(0.000224147 -0.000144842 0)
(0.000155118 -3.31129e-06 0)
(3.49422e-05 0.000154933 0)
(-0.000140009 0.000324031 0)
(-0.000372107 0.000499385 0)
(-0.000662717 0.000677496 0)
(-0.00101242 0.000855785 0)
(-0.00142122 0.00103244 0)
(-0.00188867 0.00120627 0)
(-0.00241407 0.00137658 0)
(-0.00299653 0.00154303 0)
(-0.00363507 0.00170558 0)
(-0.00432868 0.00186438 0)
(-0.0050764 0.0020197 0)
(-0.00587726 0.00217188 0)
(-0.00673039 0.00232128 0)
(-0.00763497 0.00246824 0)
(-0.0085902 0.00261306 0)
(-0.00959533 0.00275596 0)
(-0.0106496 0.00289708 0)
(-0.0117523 0.00303647 0)
(-0.0129025 0.00317406 0)
(-0.0140993 0.00330968 0)
(-0.0153418 0.00344307 0)
(-0.0166287 0.00357386 0)
(-0.0179587 0.00370156 0)
(-0.0193303 0.00382563 0)
(-0.0207417 0.0039454 0)
(-0.0221909 0.00406016 0)
(-0.0236755 0.00416911 0)
(-0.0251931 0.00427139 0)
(-0.0267406 0.0043661 0)
(-0.028315 0.00445229 0)
(-0.0299126 0.00452897 0)
(-0.0315297 0.00459514 0)
(-0.033162 0.00464978 0)
(-0.0348051 0.00469187 0)
(-0.0364541 0.00472039 0)
(-0.0381039 0.00473435 0)
(-0.0397491 0.00473278 0)
(-0.0413841 0.00471474 0)
(-0.0430027 0.00467935 0)
(-0.0445989 0.00462579 0)
(-0.0461663 0.00455331 0)
(-0.0476983 0.00446124 0)
(-0.0491882 0.004349 0)
(-0.0506291 0.00421613 0)
(-0.0520143 0.00406226 0)
(-0.0533367 0.00388717 0)
(-0.0545896 0.00369074 0)
(-0.0557661 0.00347302 0)
(-0.0568594 0.00323419 0)
(-0.0578631 0.0029746 0)
(-0.0587708 0.00269473 0)
(-0.0595764 0.00239527 0)
(-0.0602741 0.00207703 0)
(-0.0608586 0.00174103 0)
(-0.0613248 0.00138842 0)
(-0.0616681 0.00102055 0)
(-0.0618845 0.000638918 0)
(-0.0619705 0.000245182 0)
(-0.061923 -0.00015884 0)
(-0.0617397 -0.000571198 0)
(-0.061419 -0.000989804 0)
(-0.0609599 -0.00141244 0)
(-0.0603619 -0.00183679 0)
(-0.0596256 -0.00226044 0)
(-0.0587521 -0.00268089 0)
(-0.0577434 -0.00309559 0)
(-0.0566021 -0.00350197 0)
(-0.0553317 -0.0038974 0)
(-0.0539364 -0.0042793 0)
(-0.0524212 -0.0046451 0)
(-0.0507918 -0.00499228 0)
(-0.0490546 -0.0053184 0)
(-0.0472169 -0.00562113 0)
(-0.0452862 -0.00589826 0)
(-0.0432711 -0.00614773 0)
(-0.0411804 -0.00636767 0)
(-0.0390237 -0.0065564 0)
(-0.0368109 -0.00671246 0)
(-0.0345522 -0.00683462 0)
(-0.0322584 -0.00692192 0)
(-0.0299402 -0.00697367 0)
(-0.0276089 -0.00698946 0)
(-0.0252755 -0.00696918 0)
(-0.0229511 -0.006913 0)
(-0.020647 -0.00682142 0)
(-0.0183741 -0.0066952 0)
(-0.016143 -0.00653542 0)
(-0.0139643 -0.00634343 0)
(-0.0118477 -0.00612086 0)
(-0.00980294 -0.00586957 0)
(-0.00783889 -0.00559167 0)
(-0.0059639 -0.00528948 0)
(-0.00418562 -0.00496548 0)
(-0.00251097 -0.00462231 0)
(-0.000946075 -0.00426274 0)
(0.000503782 -0.00388963 0)
(0.00183417 -0.00350588 0)
(0.00304154 -0.00311444 0)
(0.00412326 -0.00271824 0)
(0.00507761 -0.00232021 0)
(0.00590378 -0.00192319 0)
(0.00660187 -0.00152997 0)
(0.00717289 -0.00114325 0)
(0.00761873 -0.000765631 0)
(0.00794212 -0.000399609 0)
(0.00814668 -4.76135e-05 0)
(0.00823682 0.000288043 0)
(0.00821778 0.000605096 0)
(0.00809556 0.00090131 0)
(0.00787699 0.00117442 0)
(0.00756964 0.00142213 0)
(0.00718192 0.00164203 0)
(0.00672299 0.00183154 0)
(0.00620288 0.0019879 0)
(0.00563244 0.00210803 0)
(0.00502341 0.00218858 0)
(0.00438844 0.0022259 0)
(0.00374107 0.0022161 0)
(0.0030957 0.00215516 0)
(0.00246759 0.00203924 0)
(0.00187275 0.00186516 0)
(0.00132775 0.00163115 0)
(0.000849513 0.00133808 0)
(0.0004563 0.00099119 0)
(0.000171899 0.000602788 0)
(1.42656e-05 0.000196411 0)
(6.2451e-06 -0.000157298 0)
(4.50817e-05 -0.00034644 0)
(9.07364e-05 -0.000430526 0)
(0.00012586 -0.000429288 0)
(0.000134097 -0.000359651 0)
(0.000103704 -0.00023638 0)
(2.57972e-05 -7.22571e-05 0)
(-0.000106393 0.000121902 0)
(-0.000297859 0.000337148 0)
(-0.000552106 0.00056624 0)
(-0.00087142 0.000803459 0)
(-0.00125712 0.00104441 0)
(-0.00170974 0.00128585 0)
(-0.00222929 0.00152544 0)
(-0.00281531 0.00176163 0)
(-0.00346709 0.0019935 0)
(-0.00418373 0.00222058 0)
(-0.00496425 0.00244276 0)
(-0.00580762 0.00266018 0)
(-0.00671282 0.00287313 0)
(-0.00767885 0.00308199 0)
(-0.00870477 0.00328717 0)
(-0.00978965 0.00348906 0)
(-0.0109326 0.00368797 0)
(-0.0121327 0.00388413 0)
(-0.0133891 0.00407766 0)
(-0.0147007 0.00426855 0)
(-0.0160666 0.00445665 0)
(-0.0174854 0.00464169 0)
(-0.018956 0.00482324 0)
(-0.0204768 0.00500075 0)
(-0.022046 0.00517354 0)
(-0.0236617 0.0053408 0)
(-0.0253215 0.00550164 0)
(-0.0270231 0.00565503 0)
(-0.0287634 0.00579989 0)
(-0.0305394 0.00593503 0)
(-0.0323474 0.00605922 0)
(-0.0341835 0.00617117 0)
(-0.0360436 0.00626956 0)
(-0.0379229 0.00635302 0)
(-0.0398166 0.00642021 0)
(-0.0417191 0.00646976 0)
(-0.043625 0.00650033 0)
(-0.0455282 0.00651061 0)
(-0.0474223 0.00649934 0)
(-0.0493008 0.00646531 0)
(-0.0511568 0.00640738 0)
(-0.0529832 0.00632453 0)
(-0.0547727 0.00621581 0)
(-0.056518 0.0060804 0)
(-0.0582113 0.00591761 0)
(-0.0598451 0.0057269 0)
(-0.0614117 0.00550788 0)
(-0.0629034 0.00526033 0)
(-0.0643127 0.0049842 0)
(-0.0656319 0.00467966 0)
(-0.0668539 0.00434705 0)
(-0.0679714 0.00398692 0)
(-0.0689776 0.00360003 0)
(-0.0698661 0.00318737 0)
(-0.0706305 0.00275012 0)
(-0.0712653 0.00228971 0)
(-0.0717651 0.00180776 0)
(-0.0721251 0.00130612 0)
(-0.0723412 0.000786833 0)
(-0.0724098 0.000252163 0)
(-0.0723279 -0.000295448 0)
(-0.0720932 -0.00085338 0)
(-0.0717042 -0.00141884 0)
(-0.0711601 -0.0019889 0)
(-0.0704607 -0.00256048 0)
(-0.0696068 -0.00313039 0)
(-0.0686 -0.00369537 0)
(-0.0674425 -0.00425206 0)
(-0.0661375 -0.0047971 0)
(-0.0646889 -0.00532707 0)
(-0.0631016 -0.0058386 0)
(-0.061381 -0.00632834 0)
(-0.0595336 -0.00679304 0)
(-0.0575663 -0.00722952 0)
(-0.0554871 -0.00763475 0)
(-0.0533045 -0.00800588 0)
(-0.0510275 -0.00834024 0)
(-0.0486661 -0.0086354 0)
(-0.0462305 -0.00888916 0)
(-0.0437314 -0.00909963 0)
(-0.0411802 -0.00926522 0)
(-0.0385885 -0.00938465 0)
(-0.0359679 -0.00945701 0)
(-0.0333308 -0.00948174 0)
(-0.0306891 -0.00945867 0)
(-0.0280552 -0.00938799 0)
(-0.0254411 -0.0092703 0)
(-0.022859 -0.00910657 0)
(-0.0203205 -0.00889814 0)
(-0.0178373 -0.00864674 0)
(-0.0154203 -0.00835443 0)
(-0.0130801 -0.00802362 0)
(-0.0108268 -0.007657 0)
(-0.00866967 -0.00725756 0)
(-0.00661743 -0.00682852 0)
(-0.00467795 -0.00637331 0)
(-0.00285828 -0.00589555 0)
(-0.00116456 -0.00539896 0)
(0.000397957 -0.00488736 0)
(0.00182501 -0.00436465 0)
(0.00311329 -0.00383472 0)
(0.00426052 -0.00330143 0)
(0.00526542 -0.00276861 0)
(0.00612771 -0.00224 0)
(0.00684812 -0.00171926 0)
(0.00742838 -0.00120992 0)
(0.00787118 -0.000715392 0)
(0.00818021 -0.000238989 0)
(0.00836004 0.00021608 0)
(0.00841624 0.000646693 0)
(0.00835527 0.00104978 0)
(0.00818445 0.00142222 0)
(0.00791201 0.00176087 0)
(0.00754705 0.00206249 0)
(0.0070996 0.00232365 0)
(0.00658056 0.00254069 0)
(0.00600176 0.00270964 0)
(0.00537595 0.00282627 0)
(0.00471681 0.00288599 0)
(0.00403892 0.00288402 0)
(0.00335781 0.00281546 0)
(0.00268989 0.00267568 0)
(0.00205243 0.00246068 0)
(0.00146354 0.00216794 0)
(0.000942131 0.00179739 0)
(0.000509246 0.00135284 0)
(0.000193137 0.000843918 0)
(1.62203e-05 0.000288781 0)
(5.07942e-06 -0.000177847 0)
(3.01417e-05 -0.000381008 0)
(5.00081e-05 -0.000457468 0)
(4.80224e-05 -0.000431853 0)
(8.93969e-06 -0.000324805 0)
(-7.83558e-05 -0.000154037 0)
(-0.000222241 6.52829e-05 0)
(-0.000429031 0.000320377 0)
(-0.000703329 0.000600678 0)
(-0.00104833 0.000897624 0)
(-0.00146607 0.00120443 0)
(-0.00195769 0.00151585 0)
(-0.00252363 0.00182799 0)
(-0.00316377 0.00213803 0)
(-0.00387764 0.0024441 0)
(-0.00466447 0.00274503 0)
(-0.00552337 0.00304022 0)
(-0.00645331 0.00332949 0)
(-0.00745327 0.00361296 0)
(-0.00852219 0.00389094 0)
(-0.00965903 0.00416384 0)
(-0.0108628 0.00443208 0)
(-0.0121325 0.00469607 0)
(-0.013467 0.00495612 0)
(-0.0148654 0.00521244 0)
(-0.0163266 0.00546508 0)
(-0.0178494 0.00571395 0)
(-0.0194324 0.00595879 0)
(-0.0210742 0.00619915 0)
(-0.0227731 0.00643442 0)
(-0.0245273 0.00666383 0)
(-0.0263345 0.00688645 0)
(-0.0281924 0.00710119 0)
(-0.0300981 0.00730684 0)
(-0.0320486 0.00750207 0)
(-0.0340404 0.00768541 0)
(-0.0360696 0.00785535 0)
(-0.0381321 0.00801028 0)
(-0.0402232 0.00814852 0)
(-0.042338 0.00826838 0)
(-0.044471 0.00836812 0)
(-0.0466164 0.00844602 0)
(-0.0487682 0.00850036 0)
(-0.0509198 0.00852945 0)
(-0.0530644 0.00853167 0)
(-0.0551948 0.00850543 0)
(-0.0573036 0.00844927 0)
(-0.0593831 0.00836181 0)
(-0.0614253 0.00824181 0)
(-0.0634222 0.00808814 0)
(-0.0653656 0.00789988 0)
(-0.0672472 0.00767623 0)
(-0.0690585 0.00741662 0)
(-0.0707913 0.00712067 0)
(-0.0724372 0.00678821 0)
(-0.073988 0.00641933 0)
(-0.0754358 0.00601432 0)
(-0.0767727 0.00557376 0)
(-0.0779912 0.00509847 0)
(-0.0790841 0.00458954 0)
(-0.0800445 0.0040483 0)
(-0.0808661 0.0034764 0)
(-0.0815428 0.00287571 0)
(-0.0820694 0.0022484 0)
(-0.0824408 0.00159686 0)
(-0.082653 0.000923763 0)
(-0.0827024 0.000232016 0)
(-0.0825861 -0.000475252 0)
(-0.0823018 -0.0011947 0)
(-0.0818483 -0.00192278 0)
(-0.0812249 -0.00265579 0)
(-0.0804317 -0.00338986 0)
(-0.0794698 -0.00412098 0)
(-0.0783411 -0.00484507 0)
(-0.0770481 -0.00555794 0)
(-0.0755944 -0.00625538 0)
(-0.0739844 -0.00693316 0)
(-0.0722232 -0.00758708 0)
(-0.070317 -0.008213 0)
(-0.0682724 -0.00880685 0)
(-0.0660973 -0.00936473 0)
(-0.0637998 -0.00988287 0)
(-0.0613891 -0.0103577 0)
(-0.0588751 -0.010786 0)
(-0.0562679 -0.0111647 0)
(-0.0535788 -0.011491 0)
(-0.050819 -0.0117626 0)
(-0.0480007 -0.0119776 0)
(-0.0451361 -0.0121342 0)
(-0.0422378 -0.0122313 0)
(-0.0393188 -0.0122683 0)
(-0.0363921 -0.0122448 0)
(-0.0334707 -0.012161 0)
(-0.0305677 -0.0120176 0)
(-0.0276961 -0.0118158 0)
(-0.0248685 -0.0115571 0)
(-0.0220974 -0.0112437 0)
(-0.0193949 -0.010878 0)
(-0.0167725 -0.0104631 0)
(-0.0142411 -0.0100021 0)
(-0.0118112 -0.00949881 0)
(-0.00949229 -0.00895717 0)
(-0.00729322 -0.00838145 0)
(-0.00522192 -0.00777611 0)
(-0.00328542 -0.00714584 0)
(-0.00148976 -0.00649543 0)
(0.000160028 -0.00582975 0)
(0.00165995 -0.00515374 0)
(0.0030071 -0.00447232 0)
(0.00419964 -0.00379035 0)
(0.00523685 -0.00311265 0)
(0.0061191 -0.0024439 0)
(0.00684783 -0.00178868 0)
(0.00742559 -0.00115144 0)
(0.00785598 -0.000536476 0)
(0.00814367 5.20061e-05 0)
(0.00829431 0.000609878 0)
(0.0083146 0.0011331 0)
(0.00821236 0.0016177 0)
(0.00799623 0.00205951 0)
(0.00767579 0.00245442 0)
(0.00726173 0.00279802 0)
(0.00676566 0.00308572 0)
(0.00620014 0.00331262 0)
(0.00557873 0.00347353 0)
(0.00491594 0.00356292 0)
(0.00422723 0.00357507 0)
(0.00352906 0.00350416 0)
(0.00283887 0.0033446 0)
(0.00217514 0.00309142 0)
(0.00155742 0.00274093 0)
(0.00100651 0.00229158 0)
(0.000545965 0.00174496 0)
(0.000207679 0.0011071 0)
(1.74904e-05 0.00039011 0)
(3.68592e-06 -0.000190083 0)