/*--------------------------------*- C++ -*----------------------------------*\
  =========                 |
  \\      /  F ield         | OpenFOAM: The Open Source CFD Toolbox
   \\    /   O peration     | Website:  https://openfoam.org
    \\  /    A nd           | Version:  12
     \\/     M anipulation  |
\*---------------------------------------------------------------------------*/
FoamFile
{
    format      ascii;
    class       volScalarField;
    location    "1.9";
    object      p;
}
// * * * * * * * * * * * * * * * * * * * * * * * * * * * * * * * * * * * * * //

dimensions      [0 2 -2 0 0 0 0];

internalField   nonuniform List<scalar> 
900
(
-4.95581e-08
-0.0059738
-0.0162029
-0.027934
-0.0385454
-0.0462586
-0.0499551
-0.0490176
-0.0432271
-0.0326808
-0.0177252
0.00109743
0.0230938
0.0474549
0.0732915
0.0996628
0.125599
0.150138
0.172358
0.191406
0.206544
0.217193
0.222983
0.223818
0.219938
0.212005
0.201194
0.189336
0.179091
0.173169
0.00590898
-0.00011648
-0.00905141
-0.0187455
-0.0273332
-0.0334293
-0.0361007
-0.0348065
-0.0293346
-0.0197438
-0.00631349
0.0104999
0.0300997
0.0517813
0.0747654
0.0982209
0.121292
0.143133
0.162933
0.179948
0.193543
0.203229
0.208706
0.209915
0.207086
0.200799
0.192034
0.182228
0.173282
0.167316
0.0162712
0.00868705
-0.000497824
-0.0092662
-0.0166
-0.021592
-0.0235443
-0.0220348
-0.0168963
-0.00817971
0.00387885
0.0188898
0.0363391
0.0556156
0.0760386
0.0968789
0.117387
0.13682
0.154466
0.169679
0.181905
0.190724
0.195878
0.197314
0.195217
0.190042
0.182534
0.173651
0.164459
0.15695
0.0287133
0.0185356
0.00764392
-0.00159792
-0.00883741
-0.0135778
-0.0153414
-0.0138417
-0.00898736
-0.000859259
0.0103116
0.0241653
0.0402346
0.057967
0.0767463
0.0959134
0.114789
0.132699
0.148993
0.163082
0.174454
0.182713
0.187604
0.189041
0.18713
0.182192
0.174755
0.165375
0.154467
0.144374
0.0409958
0.0278286
0.0145458
0.00407254
-0.00374608
-0.00874498
-0.010636
-0.00926386
-0.00462539
0.00314929
0.0138106
0.0270032
0.0422816
0.0591265
0.0769625
0.095175
0.11313
0.130193
0.145753
0.159244
0.170171
0.178132
0.182848
0.184177
0.182134
0.176913
0.168855
0.158201
0.144874
0.131785
0.0515806
0.0353062
0.0193409
0.00725086
-0.00151059
-0.0070424
-0.00921302
-0.0079865
-0.00344918
0.0042098
0.0147078
0.027677
0.0426751
0.0591975
0.07669
0.0945632
0.112208
0.12901
0.144375
0.15774
0.168602
0.176537
0.181219
0.182441
0.180124
0.174342
0.16529
0.152956
0.136895
0.120672
0.059361
0.0399567
0.0211816
0.00727629
-0.00261633
-0.0088066
-0.0112914
-0.0101414
-0.00553042
0.00228781
0.0129873
0.0261749
0.0413969
0.0581476
0.0758786
0.0940089
0.111937
0.129054
0.14476
0.15848
0.169686
0.177911
0.182772
0.183985
0.181377
0.174915
0.164672
0.150441
0.131491
0.112083
0.0634606
0.0409231
0.0192846
0.00347979
-0.00760776
-0.0144645
-0.0171957
-0.0159694
-0.0110453
-0.00274597
0.00855141
0.0224177
0.0383765
0.0559085
0.0744583
0.09344
0.112247
0.130259
0.146859
0.161444
0.173443
0.182334
0.187665
0.189064
0.186262
0.179126
0.167626
0.151395
0.129468
0.106836
0.0631112
0.0374205
0.0128937
-0.00481996
-0.0170707
-0.0245027
-0.0273191
-0.0257814
-0.0202366
-0.0110809
0.00125016
0.0162831
0.0335091
0.0523865
0.0723428
0.0927777
0.113068
0.132574
0.150648
0.166645
0.179941
0.189944
0.196118
0.197996
0.195205
0.18751
0.174789
0.156533
0.131566
0.105644
0.0575647
0.028668
0.00123315
-0.0183471
-0.0316519
-0.0394798
-0.0421311
-0.0399639
-0.0334178
-0.0229695
-0.00912094
0.00760294
0.0266541
0.0474614
0.069429
0.091936
0.114336
0.135962
0.156127
0.174137
0.189298
0.200938
0.208423
0.211175
0.208706
0.200672
0.186854
0.166601
0.138532
0.109211
0.0460262
0.0138331
-0.0165332
-0.0378957
-0.052074
-0.0600317
-0.0621759
-0.058972
-0.0509634
-0.0387175
-0.0228106
-0.00382647
0.0176425
0.0409919
0.0655997
0.0908219
0.115987
0.140395
0.163317
0.183999
0.201672
0.215567
0.224935
0.229072
0.227351
0.219303
0.204596
0.182424
0.151183
0.118308
0.0276
-0.00801694
-0.0413413
-0.0643569
-0.0791508
-0.0868763
-0.0880686
-0.0833201
-0.0732956
-0.0586672
-0.0400959
-0.0182303
0.00628942
0.0328248
0.0607293
0.0893369
0.117953
0.145847
0.172245
0.196331
0.217249
0.234123
0.246069
0.252229
0.251816
0.2442
0.228911
0.204953
0.170465
0.133836
0.00124102
-0.0379628
-0.0742683
-0.0987499
-0.113806
-0.120821
-0.120492
-0.113571
-0.100868
-0.0831796
-0.0612626
-0.0358366
-0.00758992
0.0228082
0.0546921
0.0873816
0.120166
0.15229
0.18294
0.211237
0.236234
0.256931
0.27229
0.281271
0.282882
0.276293
0.260848
0.235311
0.197511
0.156886
-0.0342971
-0.0772849
-0.116579
-0.142257
-0.157093
-0.162767
-0.160192
-0.15032
-0.134145
-0.112609
-0.0865798
-0.0568515
-0.0241583
0.0108084
0.047376
0.0848626
0.122556
0.15969
0.195424
0.228818
0.258833
0.284336
0.304111
0.316896
0.321447
0.316671
0.301659
0.274854
0.233701
0.188804
-0.0805245
-0.127528
-0.169783
-0.196265
-0.210221
-0.213719
-0.207964
-0.194174
-0.17357
-0.14727
-0.116265
-0.0814271
-0.043528
-0.00326646
0.0386985
0.0817017
0.125052
0.168005
0.209702
0.249157
0.285246
0.316693
0.342081
0.359884
0.368541
0.366615
0.352843
0.32524
0.280744
0.231269
-0.139302
-0.190587
-0.235712
-0.262417
-0.274574
-0.274777
-0.264634
-0.245713
-0.219522
-0.187387
-0.150438
-0.109617
-0.065722
-0.0194344
0.0286286
0.0778579
0.127619
0.177199
0.22576
0.272305
0.315636
0.354335
0.386762
0.411081
0.425335
0.42763
0.416217
0.388512
0.340778
0.286395
-0.212972
-0.268834
-0.31662
-0.34268
-0.351739
-0.347131
-0.331021
-0.305441
-0.272255
-0.233037
-0.189057
-0.141321
-0.0906204
-0.0375819
0.017251
0.0733607
0.130217
0.1872
0.243538
0.298253
0.350104
0.397546
0.438704
0.471384
0.49314
0.501482
0.493986
0.467221
0.41651
0.356886
-0.304553
-0.365304
-0.41533
-0.439424
-0.443526
-0.432027
-0.407871
-0.373698
-0.331811
-0.284057
-0.231847
-0.176215
-0.117907
-0.0574596
0.00471183
0.068267
0.132836
0.197938
0.262928
0.326908
0.388645
0.446504
0.498384
0.541693
0.573397
0.590232
0.588839
0.56458
0.511429
0.446253
-0.418071
-0.483982
-0.53544
-0.555523
-0.551971
-0.530707
-0.495759
-0.450548
-0.397897
-0.339941
-0.278199
-0.213687
-0.147038
-0.0786252
-0.00864574
0.0627856
0.135525
0.209323
0.283739
0.358038
0.43108
0.501204
0.566124
0.622839
0.66763
0.69625
0.704063
0.684689
0.630103
0.559169
-0.559095
-0.630246
-0.681614
-0.694471
-0.679301
-0.644285
-0.594923
-0.535606
-0.469731
-0.399699
-0.327063
-0.252727
-0.177117
-0.100339
-0.0222924
0.0572133
0.138358
0.221216
0.305656
0.391216
0.476964
0.561335
0.641951
0.715443
0.777346
0.822199
0.843662
0.832834
0.778653
0.702034
-0.735642
-0.81156
-0.859974
-0.860482
-0.827836
-0.773521
-0.705002
-0.627787
-0.545832
-0.461696
-0.376825
-0.291859
-0.20688
-0.121605
-0.0355322
0.0519411
0.141416
0.233396
0.328178
0.425717
0.525456
0.626106
0.725381
0.819686
0.903836
0.970929
1.01247
1.01589
0.965467
0.883929
-0.959748
-1.03856
-1.07859
-1.05848
-0.999747
-0.918437
-0.824646
-0.724983
-0.623768
-0.523477
-0.425198
-0.329081
-0.234671
-0.141149
-0.0474856
0.0474407
0.144755
0.245498
0.350532
0.460399
0.575136
0.694
0.8151
0.934927
1.0478
1.14521
1.21616
1.24286
1.20232
1.11823
-1.25033
-1.32683
-1.34806
-1.29389
-1.19636
-1.07769
-0.950959
-0.823618
-0.699851
-0.581585
-0.469138
-0.36184
-0.258458
-0.157459
-0.0571579
0.0441886
0.14832
0.256922
0.371554
0.493539
0.623773
0.762429
0.908483
1.05904
1.2085
1.34725
1.46101
1.52543
1.50616
1.42552
-1.63883
-1.69979
-1.68204
-1.57192
-1.41687
-1.24747
-1.0788
-0.91813
-0.768821
-0.631417
-0.504817
-0.387088
-0.275928
-0.168902
-0.0635541
0.0425548
0.151845
0.266721
0.389558
0.522645
0.668048
0.827321
1.00098
1.18765
1.38274
1.57706
1.75289
1.87836
1.90202
1.83937
-2.17913
-2.19276
-2.09718
-1.8955
-1.65699
-1.41998
-1.1992
-1.00015
-0.823539
-0.667196
-0.527742
-0.401461
-0.28468
-0.173908
-0.0658469
0.0426625
0.15473
0.273502
0.402229
0.544321
0.70331
0.882668
1.08536
1.31288
1.5637
1.83086
2.09604
2.31883
2.42688
2.4163
-2.95752
-2.85514
-2.61061
-2.26256
-1.90548
-1.58065
-1.29842
-1.0583
-0.855138
-0.682303
-0.533153
-0.40167
-0.282575
-0.171254
-0.0635848
0.0442495
0.155972
0.275411
0.406657
0.554296
0.723547
0.920318
1.15103
1.42195
1.7376
2.09761
2.48926
2.86678
3.13223
3.24554
-4.10955
-3.75133
-3.22914
-2.65346
-2.13503
-1.70415
-1.35629
-1.07755
-0.853041
-0.6696
-0.516426
-0.384877
-0.268049
-0.160305
-0.0568632
0.0465623
0.154113
0.27014
0.399375
0.547455
0.721294
0.929533
1.18296
1.49465
1.87934
2.35068
2.91191
3.52842
4.08373
4.46464
-6.02935
-4.99862
-3.90633
-2.99006
-2.27813
-1.74013
-1.33766
-1.03462
-0.802326
-0.619807
-0.47199
-0.347955
-0.239604
-0.14071
-0.0462158
0.0482621
0.14695
0.254416
0.375565
0.516665
0.685866
0.894167
1.15677
1.49489
1.93753
2.52135
3.28521
4.2568
5.40053
6.47205
-10.1524
-6.84808
-4.49176
-3.10238
-2.21184
-1.60817
-1.19236
-0.89907
-0.684822
-0.522181
-0.393627
-0.287499
-0.195676
-0.112196
-0.0323948
0.0476104
0.131854
0.224357
0.329548
0.453517
0.604458
0.794139
1.0403
1.37079
1.82986
2.48456
3.43679
4.90127
7.33972
10.7156
-17.7771
-9.30084
-4.95576
-3.03603
-1.99911
-1.37039
-0.976459
-0.718261
-0.538814
-0.406853
-0.304502
-0.220783
-0.148484
-0.0825264
-0.0190548
0.0449771
0.113175
0.188654
0.274955
0.377334
0.50309
0.663253
0.875843
1.1724
1.61065
2.29271
3.40056
5.41833
9.87753
18.4522
)
;

boundaryField
{
    movingWall
    {
        type            zeroGradient;
    }
    fixedWalls
    {
        type            zeroGradient;
    }
    frontAndBack
    {
        type            empty;
    }
}


// ************************************************************************* //
