/*--------------------------------*- C++ -*----------------------------------*\
  =========                 |
  \\      /  F ield         | OpenFOAM: The Open Source CFD Toolbox
   \\    /   O peration     | Website:  https://openfoam.org
    \\  /    A nd           | Version:  12
     \\/     M anipulation  |
\*---------------------------------------------------------------------------*/
FoamFile
{
    format      ascii;
    class       volScalarField;
    location    "1.3";
    object      p;
}
// * * * * * * * * * * * * * * * * * * * * * * * * * * * * * * * * * * * * * //

dimensions      [0 2 -2 0 0 0 0];

internalField   nonuniform List<scalar> 
900
(
-1.09234e-07
6.44497e-05
0.00013562
0.0001798
0.000181311
0.000133324
3.34829e-05
-0.00011735
-0.000315915
-0.000557325
-0.000835697
-0.0011446
-0.00147731
-0.00182706
-0.00218702
-0.00255041
-0.00291044
-0.00326032
-0.00359321
-0.00390229
-0.00418079
-0.00442226
-0.00462078
-0.00477145
-0.00487102
-0.00491864
-0.00491671
-0.00487213
-0.00480066
-0.00473592
-0.000187297
-9.16649e-05
-7.14091e-06
3.28832e-05
2.52272e-05
-2.97108e-05
-0.000131521
-0.00027852
-0.000467505
-0.000694142
-0.000953359
-0.00123961
-0.00154707
-0.00186976
-0.0022016
-0.00253651
-0.00286838
-0.00319111
-0.00349861
-0.00378487
-0.00404405
-0.00427059
-0.00445938
-0.0046061
-0.00470754
-0.00476205
-0.00476925
-0.00472879
-0.0046439
-0.00454804
-0.000231298
-0.000103054
3.80256e-06
4.79717e-05
3.45879e-05
-2.94027e-05
-0.000140336
-0.000294881
-0.000488992
-0.000718026
-0.000976984
-0.00126063
-0.00156358
-0.00188037
-0.00220547
-0.00253334
-0.00285844
-0.00317521
-0.00347813
-0.0037617
-0.00402052
-0.00424932
-0.00444311
-0.00459722
-0.00470762
-0.00477099
-0.0047837
-0.00473886
-0.00463137
-0.00450263
-9.08438e-06
0.000134141
0.000248429
0.000286695
0.000258039
0.000173401
3.90131e-05
-0.000140066
-0.000358579
-0.000611107
-0.000892246
-0.00119665
-0.00151905
-0.00185425
-0.0021971
-0.0025425
-0.00288535
-0.00322055
-0.00354294
-0.00384727
-0.00412825
-0.00438049
-0.00459857
-0.00477705
-0.00491066
-0.00499437
-0.00502196
-0.00498254
-0.00486707
-0.00472285
0.000534961
0.000667643
0.00076154
0.000769442
0.000702995
0.000575786
0.000396186
0.000170914
-9.35355e-05
-0.000390918
-0.000715364
-0.00106139
-0.00142383
-0.00179782
-0.00217865
-0.00256179
-0.00294269
-0.00331678
-0.00367933
-0.00402541
-0.0043498
-0.00464696
-0.00491094
-0.00513547
-0.00531401
-0.00543985
-0.00550463
-0.00549481
-0.00539879
-0.00526426
0.00145293
0.00154389
0.00158183
0.00152616
0.0013908
0.00119141
0.000938459
0.000640404
0.000304988
-6.07669e-05
-0.000450632
-0.000859142
-0.00128147
-0.00171333
-0.00215079
-0.00259016
-0.00302781
-0.00346002
-0.00388279
-0.00429173
-0.00468191
-0.00504773
-0.00538284
-0.00568012
-0.00593175
-0.00612922
-0.00626208
-0.00631465
-0.00627309
-0.00617884
0.00280118
0.00280944
0.00274443
0.00258124
0.00233624
0.00202682
0.00166573
0.00126336
0.000828711
0.000369436
-0.000108155
-0.000598995
-0.00109906
-0.00160518
-0.00211478
-0.00262567
-0.00313573
-0.00364271
-0.00414391
-0.00463599
-0.00511473
-0.00557483
-0.00600976
-0.00641163
-0.00677128
-0.00707821
-0.0073196
-0.00747796
-0.007537
-0.00752314
0.00464292
0.00451201
0.00428023
0.00395117
0.00354383
0.00307684
0.00256546
0.00202223
0.00145738
0.00087881
0.000292422
-0.000297778
-0.000889364
-0.00148119
-0.00207298
-0.00266502
-0.00325776
-0.00385137
-0.0044454
-0.00503842
-0.00562763
-0.00620865
-0.00677518
-0.00731885
-0.00782912
-0.00829319
-0.00869557
-0.00901739
-0.00923966
-0.00936137
0.0070437
0.00669486
0.00620906
0.00563666
0.00499922
0.00431562
0.00360375
0.00287843
0.0021507
0.00142828
0.000715738
1.49522e-05
-0.000674486
-0.0013548
-0.00202949
-0.00270285
-0.00337935
-0.00406309
-0.00475728
-0.0054637
-0.00618217
-0.00691016
-0.00764237
-0.0083704
-0.00908249
-0.00976331
-0.0103944
-0.0109564
-0.0114275
-0.0117616
0.0100604
0.00938503
0.00852694
0.00760924
0.00665551
0.00568298
0.004712
0.00375954
0.00283695
0.00195055
0.00110224
0.000290158
-0.000490777
-0.00124815
-0.00199135
-0.0027308
-0.00347719
-0.00424071
-0.00503027
-0.00585275
-0.00671236
-0.0076099
-0.0085423
-0.00950202
-0.0104765
-0.0114477
-0.0123943
-0.0132977
-0.0141339
-0.0147864
0.0137237
0.0125743
0.0111861
0.00979088
0.00841302
0.00706491
0.00576861
0.00454266
0.00339757
0.00233655
0.00135676
0.000450173
-0.000395571
-0.00119624
-0.00197004
-0.00273654
-0.0035157
-0.00432675
-0.00518723
-0.00611188
-0.00711176
-0.00819328
-0.00935746
-0.0105991
-0.0119056
-0.0132565
-0.0146279
-0.0160048
-0.0173616
-0.0184768
0.01801
0.0161903
0.0140653
0.0120247
0.0100908
0.00826621
0.00657312
0.00503048
0.00364589
0.00241689
0.00133279
0.000376046
-0.000476656
-0.00125313
-0.00198437
-0.00270322
-0.003443
-0.00423609
-0.00511261
-0.006099
-0.00721672
-0.00848104
-0.00989987
-0.0114726
-0.0131883
-0.0150247
-0.0169561
-0.0189755
-0.0210577
-0.0228282
0.0228009
0.0200554
0.0169288
0.0140341
0.0113872
0.00897328
0.00681175
0.00491974
0.00329886
0.00193705
0.0008115
-0.000109576
-0.000865365
-0.00150087
-0.00206521
-0.00260989
-0.00318704
-0.00384764
-0.00463975
-0.00560671
-0.00678535
-0.00820436
-0.00988269
-0.0118278
-0.0140331
-0.0164758
-0.0191307
-0.0220048
-0.0250767
-0.027755
0.0278257
0.0238288
0.0193691
0.0153677
0.0118275
0.00870473
0.00601163
0.00375972
0.00193986
0.000524913
-0.00052608
-0.00126536
-0.00175451
-0.00206241
-0.00226313
-0.00243378
-0.00265237
-0.00299555
-0.00353641
-0.00434213
-0.00547169
-0.00697362
-0.00888387
-0.0112233
-0.0139934
-0.0171742
-0.0207438
-0.0247331
-0.0291291
-0.03304
0.0325812
0.0269276
0.0207301
0.0153258
0.010694
0.00674681
0.0034816
0.00089854
-0.00102913
-0.00235136
-0.00313521
-0.00346159
-0.00342275
-0.00311988
-0.00266052
-0.00215609
-0.00171928
-0.0014614
-0.00148968
-0.0019043
-0.00279551
-0.00424058
-0.00630088
-0.00901829
-0.0124092
-0.0164607
-0.0211603
-0.0265758
-0.0327106
-0.0382635
0.0362239
0.028422
0.0200062
0.0128643
0.00693725
0.002071
-0.00176288
-0.00458438
-0.00644777
-0.00743619
-0.00765336
-0.0072192
-0.00626692
-0.00494018
-0.00339028
-0.00177331
-0.000247303
0.00103071
0.00190797
0.00223943
0.00189153
0.000746117
-0.00129563
-0.00430801
-0.00833201
-0.01337
-0.0194277
-0.0266286
-0.0350039
-0.0427051
0.0374284
0.0268977
0.0157119
0.00647287
-0.000937508
-0.00676921
-0.0110927
-0.0139613
-0.0154706
-0.015751
-0.0149563
-0.0132583
-0.0108434
-0.00790934
-0.00466292
-0.00131667
0.00191376
0.00481273
0.00716805
0.00877503
0.00944103
0.00899045
0.00727017
0.00415684
-0.000430448
-0.00652224
-0.0141568
-0.0235402
-0.0347475
-0.0452095
0.0342039
0.0202799
0.00571471
-0.00598021
-0.0150113
-0.0217647
-0.0263768
-0.0289538
-0.0296522
-0.0286682
-0.0262228
-0.0225548
-0.0179175
-0.0125756
-0.00680346
-0.000882225
0.00490192
0.0102605
0.0149062
0.0185565
0.0209397
0.0218007
0.0209083
0.0180655
0.0131279
0.00601575
-0.00336524
-0.0153414
-0.0300551
-0.0440025
0.0236609
0.00560768
-0.0129762
-0.0274418
-0.0381241
-0.0456011
-0.0501105
-0.0518408
-0.0510371
-0.0479867
-0.0429987
-0.0363966
-0.0285147
-0.0196968
-0.0102953
-0.000670901
0.00880826
0.0177674
0.0258271
0.0326074
0.0377323
0.0408382
0.0415827
0.0396592
0.034823
0.0269099
0.0157318
0.000786983
-0.01817
-0.0364379
0.00171095
-0.0212565
-0.0444829
-0.0619182
-0.0740849
-0.0818311
-0.0855514
-0.0855623
-0.0822378
-0.0759897
-0.0672419
-0.056421
-0.0439552
-0.030276
-0.0158197
-0.00103132
0.0136326
0.0277015
0.0406904
0.052101
0.0614255
0.0681544
0.0717886
0.0718589
0.0679628
0.0597932
0.0470047
0.0288351
0.00488082
-0.0186409
-0.0373341
-0.0660194
-0.0944237
-0.114792
-0.127925
-0.135062
-0.136844
-0.13379
-0.126461
-0.115443
-0.101303
-0.0845902
-0.0658343
-0.0455529
-0.0242609
-0.00248123
0.019246
0.040356
0.0602549
0.0783128
0.0938606
0.106201
0.114619
0.118403
0.116905
0.109575
0.0958024
0.0744256
0.0447885
0.0150095
-0.101351
-0.136537
-0.170442
-0.193251
-0.206204
-0.211133
-0.209084
-0.200894
-0.18741
-0.169447
-0.147757
-0.123024
-0.0958692
-0.0668779
-0.0366186
-0.00567122
0.0253644
0.0558815
0.0852006
0.112536
0.13704
0.157797
0.173796
0.183982
0.187321
0.182858
0.169519
0.145507
0.109733
0.0726818
-0.201399
-0.243776
-0.283047
-0.306913
-0.317378
-0.317242
-0.308231
-0.291706
-0.268932
-0.241043
-0.209007
-0.173634
-0.13559
-0.0954892
-0.0539107
-0.011394
0.0315163
0.0741811
0.115868
0.155754
0.192839
0.225903
0.253561
0.274288
0.286467
0.28847
0.278419
0.253438
0.211639
0.166418
-0.353658
-0.403617
-0.447075
-0.468771
-0.472196
-0.461858
-0.440661
-0.410805
-0.374168
-0.332259
-0.286253
-0.237017
-0.185202
-0.131377
-0.0760406
-0.0195728
0.037697
0.0953376
0.15273
0.209022
0.263085
0.313499
0.358509
0.395984
0.423467
0.438204
0.43692
0.414814
0.3684
0.314562
-0.583783
-0.640597
-0.684333
-0.696541
-0.683886
-0.654043
-0.611903
-0.560895
-0.503713
-0.442169
-0.377559
-0.3109
-0.242761
-0.173265
-0.102336
-0.0299158
0.0439621
0.119158
0.195353
0.27197
0.348069
0.422222
0.492366
0.555715
0.608772
0.647287
0.665332
0.65457
0.608166
0.54674
-0.938128
-0.996574
-1.02899
-1.0148
-0.967752
-0.901337
-0.823562
-0.739252
-0.651981
-0.564121
-0.476725
-0.389908
-0.303412
-0.216733
-0.129233
-0.0402371
0.0509086
0.144788
0.241828
0.342149
0.44541
0.550612
0.65584
0.757976
0.852481
0.933199
0.99106
1.01113
0.978299
0.915675
-1.50656
-1.54615
-1.53538
-1.45602
-1.33741
-1.20314
-1.06629
-0.932897
-0.805333
-0.68435
-0.569634
-0.460216
-0.35482
-0.2519
-0.149709
-0.04641
0.0598252
0.17077
0.288075
0.413178
0.54714
0.690396
0.84237
1.00094
1.16175
1.31708
1.45355
1.54582
1.56197
1.52145
-2.47199
-2.42335
-2.27717
-2.04661
-1.79144
-1.54529
-1.3193
-1.1164
-0.935916
-0.7754
-0.631872
-0.501874
-0.38173
-0.267865
-0.156849
-0.0453539
0.0699082
0.192265
0.325099
0.471896
0.636205
0.821457
1.03057
1.26524
1.52472
1.80366
2.08681
2.33814
2.49752
2.5525
-4.60255
-3.97447
-3.26134
-2.65572
-2.16288
-1.7589
-1.42857
-1.1592
-0.938807
-0.756739
-0.603672
-0.471832
-0.354726
-0.246838
-0.143339
-0.0398042
0.0681029
0.184971
0.315565
0.465437
0.641151
0.850529
1.10293
1.40927
1.78122
2.22974
2.76674
3.41073
4.15412
4.80485
-11.2873
-7.78817
-5.25641
-3.7217
-2.71403
-2.00235
-1.49235
-1.12591
-0.859267
-0.660868
-0.508923
-0.388244
-0.287913
-0.199777
-0.117492
-0.035851
0.051012
0.148636
0.262799
0.401989
0.577546
0.805102
1.10705
1.5158
2.07661
2.84928
3.92713
5.5334
8.12542
11.6641
)
;

boundaryField
{
    movingWall
    {
        type            zeroGradient;
    }
    fixedWalls
    {
        type            zeroGradient;
    }
    frontAndBack
    {
        type            empty;
    }
}


// ************************************************************************* //
