/*--------------------------------*- C++ -*----------------------------------*\
  =========                 |
  \\      /  F ield         | OpenFOAM: The Open Source CFD Toolbox
   \\    /   O peration     | Website:  https://openfoam.org
    \\  /    A nd           | Version:  12
     \\/     M anipulation  |
\*---------------------------------------------------------------------------*/
FoamFile
{
    format      ascii;
    class       volScalarField;
    location    "1";
    object      k;
}
// * * * * * * * * * * * * * * * * * * * * * * * * * * * * * * * * * * * * * //

dimensions      [0 2 -2 0 0 0 0];

internalField   nonuniform List<scalar> 
5625
(
7.33733e-09
4.95231e-08
1.09397e-07
1.78865e-07
2.53342e-07
3.29385e-07
4.04158e-07
4.7528e-07
5.40774e-07
5.99044e-07
6.48868e-07
6.89379e-07
7.20056e-07
7.40704e-07
7.51447e-07
7.52725e-07
7.45218e-07
7.29837e-07
7.07744e-07
6.80322e-07
6.49173e-07
6.16087e-07
5.8301e-07
5.51998e-07
5.25148e-07
5.04521e-07
4.92093e-07
4.89313e-07
4.97391e-07
5.17313e-07
5.49564e-07
5.94165e-07
6.50721e-07
7.18509e-07
7.96593e-07
8.8395e-07
9.79587e-07
1.08263e-06
1.19236e-06
1.30824e-06
1.42984e-06
1.55683e-06
1.68887e-06
1.82555e-06
1.96635e-06
2.1105e-06
2.25698e-06
2.40441e-06
2.55098e-06
2.69437e-06
2.8317e-06
2.95948e-06
3.07352e-06
3.16887e-06
3.23969e-06
3.27643e-06
3.28496e-06
3.25549e-06
3.18046e-06
3.05908e-06
2.89242e-06
2.68399e-06
2.44018e-06
2.1701e-06
1.88492e-06
1.59668e-06
1.31697e-06
1.05561e-06
8.19651e-07
6.13044e-07
4.36754e-07
2.8952e-07
1.69145e-07
7.45636e-08
1.099e-08
5.54342e-08
4.4091e-07
9.81333e-07
1.60716e-06
2.27775e-06
2.96225e-06
3.63521e-06
4.27522e-06
4.86448e-06
5.38865e-06
5.83671e-06
6.20088e-06
6.47649e-06
6.6618e-06
6.75794e-06
6.7689e-06
6.70079e-06
6.56186e-06
6.36256e-06
6.1154e-06
5.83479e-06
5.53686e-06
5.23917e-06
4.96022e-06
4.7189e-06
4.53376e-06
4.42263e-06
4.39842e-06
4.47202e-06
4.65228e-06
4.94351e-06
5.34586e-06
5.85569e-06
6.46645e-06
7.16967e-06
7.95614e-06
8.8169e-06
9.7441e-06
1.07313e-05
1.17737e-05
1.28674e-05
1.40096e-05
1.51971e-05
1.64265e-05
1.76928e-05
1.89893e-05
2.03069e-05
2.16332e-05
2.29519e-05
2.42422e-05
2.54784e-05
2.66289e-05
2.76563e-05
2.85161e-05
2.9156e-05
2.94808e-05
2.95524e-05
2.92816e-05
2.86003e-05
2.75027e-05
2.59992e-05
2.41213e-05
2.19267e-05
1.94974e-05
1.69334e-05
1.43428e-05
1.18295e-05
9.48121e-06
7.36138e-06
5.50519e-06
3.92124e-06
2.59805e-06
1.51534e-06
6.63094e-07
8.29805e-08
1.17627e-07
1.00585e-06
2.25341e-06
3.69822e-06
5.24602e-06
6.82552e-06
8.37791e-06
9.85377e-06
1.1212e-05
1.24196e-05
1.3451e-05
1.42884e-05
1.4921e-05
1.53449e-05
1.55628e-05
1.55841e-05
1.54231e-05
1.5099e-05
1.4636e-05
1.40633e-05
1.34143e-05
1.27264e-05
1.20404e-05
1.13991e-05
1.08462e-05
1.04245e-05
1.01758e-05
1.01285e-05
1.03081e-05
1.0735e-05
1.14188e-05
1.23595e-05
1.35485e-05
1.49703e-05
1.66054e-05
1.84324e-05
2.04308e-05
2.25825e-05
2.4873e-05
2.72909e-05
2.98276e-05
3.24761e-05
3.52289e-05
3.80773e-05
4.10093e-05
4.40088e-05
4.70533e-05
5.01134e-05
5.31509e-05
5.61171e-05
5.8952e-05
6.1583e-05
6.39245e-05
6.58763e-05
6.73181e-05
6.8027e-05
6.81733e-05
6.75288e-05
6.59361e-05
6.33877e-05
5.99069e-05
5.55661e-05
5.04974e-05
4.48896e-05
3.89738e-05
3.29995e-05
2.72061e-05
2.17962e-05
1.69154e-05
1.2644e-05
9.00078e-06
5.95814e-06
3.46862e-06
1.50841e-06
1.75568e-07
1.92163e-07
1.68402e-06
3.79102e-06
6.23434e-06
8.85221e-06
1.15232e-05
1.41474e-05
1.66411e-05
1.89346e-05
2.0972e-05
2.27102e-05
2.4119e-05
2.51805e-05
2.58881e-05
2.62467e-05
2.62729e-05
2.5991e-05
2.54339e-05
2.46432e-05
2.36686e-05
2.25673e-05
2.14031e-05
2.02452e-05
1.91666e-05
1.82414e-05
1.7542e-05
1.71408e-05
1.70817e-05
1.74101e-05
1.81595e-05
1.93454e-05
2.09671e-05
2.3009e-05
2.54446e-05
2.82403e-05
3.13595e-05
3.47675e-05
3.84335e-05
4.23326e-05
4.64453e-05
5.07562e-05
5.5252e-05
5.99186e-05
6.47392e-05
6.96916e-05
7.47463e-05
7.98639e-05
8.49936e-05
9.00706e-05
9.50138e-05
9.97243e-05
0.000104083
0.000107951
0.00011117
0.000113531
0.000114662
0.000114887
0.00011379
0.000111101
0.000106811
0.000100955
9.36465e-05
8.51038e-05
7.56434e-05
6.56564e-05
5.55675e-05
4.57856e-05
3.66562e-05
2.84266e-05
2.12318e-05
1.51011e-05
9.98506e-06
5.80162e-06
2.51132e-06
2.85191e-07
2.76657e-07
2.44867e-06
5.5315e-06
9.1126e-06
1.29511e-05
1.68671e-05
2.07131e-05
2.43656e-05
2.77221e-05
3.07004e-05
3.32375e-05
3.52892e-05
3.68293e-05
3.7849e-05
3.83552e-05
3.83745e-05
3.79425e-05
3.71085e-05
3.59344e-05
3.4494e-05
3.28722e-05
3.11637e-05
2.94708e-05
2.79013e-05
2.65644e-05
2.55664e-05
2.50165e-05
2.49707e-05
2.55006e-05
2.66532e-05
2.84495e-05
3.08866e-05
3.39405e-05
3.75703e-05
4.17254e-05
4.63512e-05
5.13954e-05
5.6812e-05
6.25625e-05
6.86164e-05
7.49482e-05
8.15347e-05
8.83514e-05
9.53695e-05
0.000102553
0.000109855
0.000117217
0.000124566
0.000131811
0.000138839
0.000145517
0.000151681
0.000157143
0.000161688
0.000165024
0.000166609
0.000166935
0.000165392
0.000161547
0.000155398
0.000146971
0.000136415
0.000124032
0.000110277
9.57204e-05
8.09915e-05
6.66991e-05
5.33597e-05
4.1343e-05
3.08487e-05
2.1918e-05
1.44746e-05
8.39489e-06
3.62166e-06
4.07179e-07
3.69436e-07
3.28526e-06
7.43957e-06
1.22737e-05
1.74581e-05
2.27467e-05
2.79386e-05
3.28657e-05
3.73889e-05
4.13968e-05
4.48043e-05
4.75519e-05
4.96049e-05
5.09519e-05
5.16027e-05
5.15969e-05
5.09824e-05
4.98273e-05
4.8217e-05
4.62531e-05
4.40518e-05
4.17428e-05
3.94657e-05
3.73673e-05
3.55958e-05
3.42952e-05
3.3618e-05
3.36247e-05
3.44216e-05
3.60674e-05
3.85879e-05
4.19758e-05
4.61952e-05
5.11879e-05
5.68822e-05
6.32015e-05
7.0072e-05
7.74279e-05
8.52134e-05
9.33819e-05
0.000101893
0.000110709
0.00011979
0.000129091
0.000138559
0.00014813
0.000157727
0.00016726
0.000176616
0.000185661
0.000194236
0.000202145
0.000209158
0.000215008
0.000219342
0.000221429
0.000221909
0.00022001
0.000215076
0.000207106
0.000196105
0.000182234
0.000165869
0.000147602
0.000128191
0.000108488
8.93272e-05
7.14241e-05
5.52939e-05
4.12168e-05
2.92515e-05
1.92929e-05
1.1171e-05
4.80746e-06
5.37907e-07
4.69414e-07
4.18492e-06
9.4934e-06
1.56799e-05
2.23183e-05
2.90897e-05
3.57339e-05
4.20338e-05
4.78104e-05
5.292e-05
5.72537e-05
6.07359e-05
6.3323e-05
6.50016e-05
6.57848e-05
6.57288e-05
6.48948e-05
6.33728e-05
6.12747e-05
5.8733e-05
5.58996e-05
5.29425e-05
5.0043e-05
4.73905e-05
4.51762e-05
4.35853e-05
4.28172e-05
4.29298e-05
4.40721e-05
4.63114e-05
4.96758e-05
5.41507e-05
5.96839e-05
6.61951e-05
7.35864e-05
8.17539e-05
9.05969e-05
0.000100024
0.000109957
0.000120327
0.000131073
0.000142138
0.000153462
0.000164982
0.000176629
0.000188326
0.000199985
0.000211505
0.000222768
0.00023363
0.000243919
0.000253419
0.000261868
0.00026895
0.000274281
0.000276926
0.000277617
0.0002755
0.000269619
0.000259984
0.000246557
0.000229495
0.000209228
0.000186465
0.000162145
0.000137343
0.000113134
9.04554e-05
6.99932e-05
5.21304e-05
3.69572e-05
2.4345e-05
1.40755e-05
6.04612e-06
6.74731e-07
5.75885e-07
5.14186e-06
1.16787e-05
1.93063e-05
2.74949e-05
3.58463e-05
4.4036e-05
5.17937e-05
5.88965e-05
6.51668e-05
7.04698e-05
7.47131e-05
7.78442e-05
7.98479e-05
8.07427e-05
8.06045e-05
7.95095e-05
7.75721e-05
7.49342e-05
7.17631e-05
6.82495e-05
6.46043e-05
6.1054e-05
5.78342e-05
5.51818e-05
5.33295e-05
5.2517e-05
5.28053e-05
5.43812e-05
5.73218e-05
6.1653e-05
6.73477e-05
7.43323e-05
8.2498e-05
9.17143e-05
0.000101843
0.000112751
0.000124314
0.000136424
0.000148985
0.00016191
0.000175119
0.000188532
0.00020207
0.000215654
0.000229201
0.000242625
0.000255828
0.0002687
0.000281103
0.000292861
0.00030375
0.000313481
0.000321697
0.000327963
0.000331199
0.000332143
0.000329939
0.00032328
0.000312203
0.000296615
0.00027665
0.000252761
0.000225744
0.000196692
0.000166884
0.000137634
0.000110114
8.52082e-05
6.34313e-05
4.49285e-05
2.95618e-05
1.70687e-05
7.32103e-06
8.15742e-07
6.88374e-07
6.15218e-06
1.39858e-05
2.31356e-05
3.29617e-05
4.29809e-05
5.27993e-05
6.20888e-05
7.05801e-05
7.80585e-05
8.43626e-05
8.93823e-05
9.3057e-05
9.53692e-05
9.63466e-05
9.60876e-05
9.46849e-05
9.22807e-05
8.90504e-05
8.51998e-05
8.09627e-05
7.65961e-05
7.23754e-05
6.85857e-05
6.55117e-05
6.34436e-05
6.26428e-05
6.31859e-05
6.5293e-05
6.90469e-05
7.44662e-05
8.15051e-05
9.00613e-05
9.99901e-05
0.000111121
0.000123274
0.000136275
0.000149961
0.000164189
0.000178831
0.000193771
0.000208907
0.000224142
0.00023939
0.00025457
0.000269609
0.000284434
0.000298969
0.000313119
0.000326761
0.000339726
0.000351778
0.000362605
0.000371811
0.000378906
0.000382695
0.000383891
0.00038169
0.00037442
0.000362161
0.000344761
0.000322308
0.000295249
0.000264424
0.000231028
0.000196509
0.0001624
0.000130112
0.000100752
7.49992e-05
5.3088e-05
3.48943e-05
2.01228e-05
8.62001e-06
9.59637e-07
8.06558e-07
7.21318e-06
1.64081e-05
2.7156e-05
3.87004e-05
5.0468e-05
6.19899e-05
7.28767e-05
8.28089e-05
9.15331e-05
9.88598e-05
0.000104661
0.000108869
0.000111463
0.000112487
0.000112061
0.000110299
0.000107374
0.000103498
9.89195e-05
9.39194e-05
8.88046e-05
8.39025e-05
7.95504e-05
7.60826e-05
7.38578e-05
7.31318e-05
7.40177e-05
7.67584e-05
8.14371e-05
8.80588e-05
9.65511e-05
0.000106775
0.00011854
0.000131628
0.00014581
0.000160863
0.000176582
0.000192782
0.000209302
0.000226001
0.000242758
0.00025947
0.000276053
0.000292442
0.000308585
0.000324438
0.000339952
0.000355059
0.00036965
0.000383555
0.00039653
0.000408236
0.000418237
0.000425997
0.00043023
0.000431627
0.000429467
0.000421742
0.000408583
0.000389777
0.000365349
0.000335703
0.000301669
0.000264487
0.000225719
0.000187082
0.00015022
0.000116481
8.67474e-05
6.13828e-05
4.03099e-05
2.32187e-05
9.93448e-06
1.10565e-06
9.30216e-07
8.32299e-06
1.89411e-05
3.13591e-05
4.46981e-05
5.82887e-05
7.15825e-05
8.41245e-05
9.55419e-05
0.000105541
0.000113902
0.00012048
0.000125201
0.000128041
0.000129067
0.000128423
0.000126244
0.000122741
0.000118165
0.000112813
0.000107015
0.000101131
9.55448e-05
9.06474e-05
8.68244e-05
8.4513e-05
8.39298e-05
8.52522e-05
8.87294e-05
9.44393e-05
0.000102365
0.000112399
0.000124354
0.000137989
0.000153026
0.00016918
0.000186176
0.00020376
0.000221709
0.000239831
0.000257965
0.000275982
0.000293786
0.000311311
0.00032852
0.000345398
0.000361935
0.000378115
0.000393889
0.000409158
0.000423747
0.000437391
0.000449725
0.00046028
0.000468491
0.000473005
0.000474522
0.000472387
0.00046436
0.000450592
0.000430816
0.000404981
0.00037341
0.000336867
0.000296572
0.000254139
0.000211418
0.00017027
0.000132296
9.86202e-05
6.97813e-05
4.57897e-05
2.63454e-05
1.12596e-05
1.25307e-06
1.0592e-06
9.48035e-06
2.15817e-05
3.57392e-05
5.09455e-05
6.64294e-05
8.15581e-05
9.58066e-05
0.000108746
0.000120039
0.000129438
0.000136779
0.000141983
0.000145024
0.000146001
0.00014508
0.000142425
0.000138283
0.000132954
0.000126784
0.000120156
0.000113489
0.000107224
0.000101807
9.76772e-05
9.53573e-05
9.4988e-05
9.68425e-05
0.000101156
0.000107993
0.000117306
0.000128942
0.000142658
0.000158148
0.000175073
0.000193083
0.000211849
0.000231069
0.000250484
0.00026988
0.000289087
0.000307984
0.000326496
0.000344591
0.000362272
0.000379565
0.000396498
0.000413081
0.000429275
0.000444979
0.00046
0.000474053
0.000486746
0.000497592
0.000506011
0.000510622
0.000512173
0.000510014
0.000501829
0.000487741
0.000467429
0.000440759
0.000407944
0.000369632
0.000326957
0.000281512
0.000235229
0.00019015
0.000148137
0.000110588
7.827e-05
5.13266e-05
2.9498e-05
1.25929e-05
1.40157e-06
1.1934e-06
1.06844e-05
2.43278e-05
4.02925e-05
5.74362e-05
7.48802e-05
9.19022e-05
0.000107903
0.000122394
0.000134994
0.000145425
0.000153506
0.000159155
0.000162341
0.000163212
0.000161949
0.000158752
0.000153911
0.000147775
0.000140744
0.000133261
0.000125804
0.000118871
0.00011297
0.00010859
0.000106343
0.000106261
0.000108741
0.000113983
0.000122029
0.00013279
0.000146058
0.000161524
0.000178811
0.000197509
0.000217205
0.000237514
0.000258092
0.000278653
0.000298972
0.000318886
0.000338298
0.00035717
0.000375514
0.000393382
0.00041084
0.000427947
0.000444724
0.000461134
0.000477056
0.000492277
0.000506487
0.000519277
0.000530154
0.000538548
0.000543082
0.000544588
0.000542356
0.000534131
0.000519991
0.00049954
0.000472564
0.000439146
0.000399783
0.000355462
0.000307687
0.000258403
0.000209794
0.000163973
0.000122644
8.68503e-05
5.69226e-05
3.26769e-05
1.39341e-05
1.55107e-06
1.33277e-06
1.19346e-05
2.71781e-05
4.50164e-05
6.41657e-05
8.36339e-05
0.000102604
0.000120397
0.000136464
0.000150375
0.000161823
0.000170612
0.000176657
0.000179925
0.000180628
0.000178954
0.000175145
0.000169541
0.000162546
0.000154616
0.000146257
0.000138007
0.000130428
0.000124083
0.000119521
0.000117424
0.000117707
0.000120901
0.00012715
0.000136467
0.000148711
0.000163607
0.000180772
0.000199752
0.000220064
0.000241232
0.000262818
0.000284449
0.000305821
0.000326717
0.000346997
0.000366603
0.000385545
0.00040389
0.000421735
0.000439181
0.000456303
0.000473123
0.000489585
0.000505545
0.000520763
0.000534908
0.000547567
0.000558257
0.000566433
0.000570754
0.000572156
0.000569817
0.000561633
0.000547663
0.000527397
0.000500554
0.000467084
0.000427309
0.000382027
0.000332587
0.000280878
0.000229166
0.000179796
0.000134795
9.55344e-05
6.25871e-05
3.58864e-05
1.52843e-05
1.70169e-06
1.4773e-06
1.32305e-05
3.01319e-05
4.99094e-05
7.1131e-05
9.26852e-05
0.000113654
0.000133276
0.000150935
0.000166155
0.000178597
0.000188053
0.000194438
0.000197716
0.000198181
0.000196021
0.00019153
0.0001851
0.000177194
0.000168331
0.000159079
0.000150042
0.000141842
0.000135097
0.000130442
0.000128542
0.00012929
0.000133269
0.000140591
0.00015122
0.000164953
0.000181439
0.000200214
0.000220744
0.000242472
0.000264864
0.000287442
0.000309811
0.000331671
0.000352826
0.000373177
0.000392718
0.000411518
0.000429694
0.000447383
0.00046471
0.000481751
0.000498513
0.000514912
0.000530773
0.000545833
0.000559748
0.000572111
0.00058246
0.000590287
0.000594313
0.000595574
0.000593113
0.000585022
0.000571356
0.000551508
0.000525112
0.000492007
0.000452338
0.000406686
0.000356194
0.000302619
0.000248245
0.000195605
0.000147056
0.000104341
6.83342e-05
3.91336e-05
1.66458e-05
1.85366e-06
1.62698e-06
1.45721e-05
3.31888e-05
5.49706e-05
7.83303e-05
0.00010203
0.000125046
0.000146527
0.00016579
0.000182309
0.000195714
0.000205788
0.000212445
0.000215657
0.000215809
0.000213084
0.000207837
0.000200519
0.000191654
0.000181827
0.000171672
0.000161859
0.000153071
0.000145977
0.000141318
0.000139666
0.000140961
0.00014579
0.000154232
0.00016619
0.000181389
0.000199395
0.000219657
0.000241561
0.000264482
0.000287834
0.000311113
0.00033392
0.000355974
0.000377118
0.000397309
0.000416601
0.000435122
0.000453035
0.000470509
0.000487674
0.000504595
0.000521249
0.000537521
0.000553204
0.000568014
0.000581607
0.000593589
0.000603525
0.000610944
0.00061465
0.000615758
0.000613171
0.000605197
0.000591874
0.000572561
0.000546786
0.000514303
0.000475101
0.000429544
0.000378526
0.00032361
0.000267015
0.000211402
0.000159444
0.000113292
7.4181e-05
4.24276e-05
1.80218e-05
2.0073e-06
1.78179e-06
1.59592e-05
3.63488e-05
6.01997e-05
8.57624e-05
0.000111666
0.000136773
0.000160141
0.000181013
0.000198813
0.000213143
0.000223777
0.000230626
0.000233695
0.000233451
0.000230079
0.000224003
0.000215735
0.000205866
0.000195049
0.000183988
0.000173416
0.000164078
0.000156692
0.000152115
0.00015076
0.000152673
0.000158408
0.000167997
0.000181277
0.00019789
0.000217315
0.000238913
0.000261991
0.000285866
0.000309913
0.000333616
0.00035659
0.00037859
0.000399515
0.000419385
0.00043832
0.000456501
0.000474131
0.000491392
0.000508409
0.00052522
0.000541769
0.000557906
0.000573396
0.000587943
0.000601204
0.000612805
0.000622346
0.000629353
0.000632771
0.000633737
0.000631034
0.000623167
0.00061015
0.000591361
0.000566239
0.000534466
0.00049592
0.000450766
0.000399636
0.000343842
0.000285451
0.000227177
0.00017197
0.000122407
8.01452e-05
4.57782e-05
1.94157e-05
2.163e-06
1.94173e-06
1.73922e-05
3.96119e-05
6.55966e-05
9.34264e-05
0.00012159
0.000148831
0.000174108
0.000196587
0.000215643
0.000230851
0.000241981
0.000248931
0.000251783
0.000251049
0.000246948
0.000239968
0.000230691
0.000219777
0.000207951
0.000195986
0.00018468
0.000174836
0.000167218
0.000162802
0.00016179
0.000164382
0.00017106
0.000181804
0.000196374
0.000214325
0.000235043
0.000257805
0.000281847
0.000306435
0.000330924
0.000354801
0.000377713
0.000399469
0.000420032
0.000439493
0.000458033
0.000475882
0.000493267
0.000510372
0.000527301
0.000544062
0.00056056
0.000576612
0.000591961
0.000606305
0.000619306
0.000630607
0.00063984
0.000646508
0.000649704
0.000650555
0.000647757
0.000639962
0.000627162
0.000608772
0.000584203
0.000553066
0.000515186
0.000470572
0.000419607
0.000363311
0.000303525
0.000242911
0.000184636
0.000131703
8.62436e-05
4.91955e-05
2.08309e-05
2.32112e-06
2.10682e-06
1.8871e-05
4.29784e-05
7.11615e-05
0.000101322
0.000131801
0.000161215
0.000188418
0.000212498
0.000232778
0.000248809
0.000260359
0.000267314
0.000269868
0.00026855
0.000263634
0.000255678
0.000245336
0.000233342
0.000220494
0.000207633
0.000195622
0.00018532
0.000177534
0.000173351
0.000172722
0.000176042
0.000183685
0.00019557
0.000211376
0.000230566
0.000252433
0.000276176
0.000300967
0.000326039
0.00035074
0.00037458
0.000397254
0.000418636
0.000438762
0.000457792
0.000475965
0.000493546
0.000510773
0.000527821
0.000544764
0.000561575
0.000578121
0.000594192
0.000609514
0.000623779
0.000636656
0.000647803
0.000656871
0.000663344
0.000666408
0.000667186
0.000664328
0.00065656
0.000643858
0.000625667
0.000601438
0.000570728
0.000533354
0.000489242
0.000438561
0.000382034
0.000321201
0.000258571
0.000197432
0.000141188
9.24906e-05
5.26891e-05
2.2271e-05
2.48204e-06
2.27709e-06
2.03959e-05
4.64487e-05
7.68944e-05
0.000109449
0.000142296
0.000173919
0.000203061
0.000228729
0.000250194
0.000266983
0.000278872
0.000285729
0.0002879
0.000285903
0.000280087
0.000271085
0.000259627
0.000246523
0.000232645
0.000218902
0.000206222
0.000195512
0.000187622
0.000183736
0.000183523
0.000187606
0.000196218
0.000209214
0.000226183
0.000246495
0.000269357
0.000293892
0.000319227
0.000344573
0.00036929
0.000392929
0.000415244
0.000436184
0.000455859
0.000474495
0.000492379
0.000509799
0.000526994
0.000544116
0.000561208
0.000578203
0.000594937
0.000611174
0.000626627
0.000640984
0.00065392
0.000665102
0.000674185
0.000680654
0.000683701
0.000684461
0.000681605
0.000673825
0.000661096
0.000642883
0.000618698
0.000588103
0.000550931
0.000507114
0.00045667
0.00040005
0.000338448
0.000274112
0.000210334
0.000150863
9.88968e-05
5.62673e-05
2.3739e-05
2.64611e-06
2.45255e-06
2.19671e-05
5.00229e-05
8.27958e-05
0.000117806
0.000153073
0.000186938
0.000218027
0.000245263
0.000267865
0.000285343
0.00029748
0.000304132
0.000305831
0.000303058
0.000296258
0.000286143
0.000273523
0.000259286
0.000244378
0.000229776
0.000216464
0.000205395
0.000197475
0.000193928
0.000194167
0.00019903
0.0002086
0.000222656
0.000240699
0.000262006
0.000285701
0.000310847
0.000336536
0.000361976
0.000386555
0.000409877
0.000431767
0.000452253
0.000471517
0.000489845
0.000507558
0.000524957
0.000542271
0.000559622
0.000577018
0.000594356
0.000611443
0.000628021
0.000643793
0.000658443
0.000671646
0.000683069
0.000692367
0.000699047
0.000702214
0.000703024
0.000700259
0.000692462
0.000679605
0.000661165
0.000636702
0.000605844
0.000568464
0.000524584
0.000474163
0.000417439
0.00035525
0.000289485
0.000223309
0.000160721
0.000105469
5.99374e-05
2.52377e-05
2.81362e-06
2.63322e-06
2.35846e-05
5.37015e-05
8.88656e-05
0.000126393
0.00016413
0.000200266
0.000233306
0.000262084
0.000285769
0.000303857
0.000316142
0.000322478
0.000323615
0.000319969
0.000312104
0.000300814
0.000286992
0.000271607
0.000255675
0.000240239
0.000226338
0.000214955
0.000207094
0.00020389
0.000204636
0.000210273
0.000220772
0.000235824
0.00025484
0.000277007
0.000301378
0.000326965
0.000352842
0.00037823
0.000402558
0.000425497
0.000446949
0.000467018
0.000485956
0.000504095
0.000521784
0.000539322
0.000556918
0.000574665
0.000592532
0.000610384
0.000628
0.000645104
0.00066139
0.000676535
0.000690212
0.000702085
0.000711796
0.000718907
0.000722354
0.000723298
0.000720748
0.00071298
0.00069995
0.000681129
0.000656102
0.000624579
0.000586517
0.000542097
0.000491329
0.000434331
0.000371613
0.000304643
0.000236312
0.000170745
0.000112208
6.3705e-05
2.67692e-05
2.98483e-06
2.81912e-06
2.52486e-05
5.74845e-05
9.51041e-05
0.00013521
0.000175465
0.000213897
0.000248884
0.000279171
0.000303879
0.000322493
0.000334814
0.000340728
0.000341207
0.000336593
0.000327584
0.000315063
0.000300007
0.000283465
0.000266524
0.000250287
0.000235841
0.000224195
0.000216471
0.000213606
0.00021489
0.000221292
0.000232679
0.000248652
0.000268532
0.000291426
0.000316323
0.000342201
0.000368128
0.000393355
0.000417365
0.0004399
0.000460944
0.000480674
0.000499402
0.000517498
0.000535322
0.000553167
0.000571216
0.000589525
0.00060803
0.000626561
0.000644876
0.000662681
0.000679659
0.000695482
0.00070982
0.00072233
0.000732652
0.000740371
0.000744303
0.000745478
0.000743299
0.000735672
0.000722503
0.000703231
0.000677432
0.000644879
0.000605651
0.000560137
0.000508515
0.000450911
0.000387585
0.000319551
0.000249296
0.000180909
0.000119111
6.75743e-05
2.83352e-05
3.15991e-06
3.01027e-06
2.69593e-05
6.13723e-05
0.000101511
0.000144255
0.000187072
0.000227824
0.000264751
0.000296507
0.000322167
0.000341218
0.000353448
0.000358846
0.000358561
0.000352888
0.000342664
0.000328862
0.000312548
0.000294848
0.000276919
0.000259918
0.000244975
0.000233121
0.000225591
0.000223062
0.000224909
0.000232051
0.000244273
0.000261083
0.000281716
0.000305208
0.000330496
0.000356536
0.000382408
0.000407403
0.000431068
0.000453221
0.000473924
0.000493423
0.000512079
0.000530288
0.000548414
0.000566732
0.000585394
0.000604421
0.000623714
0.000643074
0.000662234
0.000680885
0.0006987
0.000715345
0.000730487
0.000743787
0.000754884
0.000763372
0.000768021
0.000769545
0.00076791
0.000760608
0.000747431
0.000727749
0.000701082
0.000667226
0.000626386
0.000579197
0.000526117
0.000467426
0.000403258
0.000334197
0.000262213
0.000191183
0.000126172
7.15473e-05
2.99368e-05
3.339e-06
3.20668e-06
2.87168e-05
6.53649e-05
0.000108087
0.000153527
0.00019895
0.000242037
0.00028089
0.000314068
0.000340604
0.000359994
0.000371994
0.000376809
0.000375633
0.000368816
0.00035731
0.000342187
0.000324599
0.000305749
0.00028686
0.000269139
0.000253749
0.000241737
0.000234445
0.000232252
0.000234668
0.00024252
0.000255514
0.000273073
0.00029435
0.000318319
0.00034388
0.000369981
0.000395725
0.000420453
0.000443782
0.000465609
0.000486067
0.000505462
0.000524194
0.000542675
0.000561262
0.000580206
0.000599626
0.000619506
0.000639712
0.000660017
0.00068013
0.000699728
0.000718474
0.000736032
0.000752072
0.000766262
0.00077825
0.000787646
0.000793268
0.00079529
0.000794363
0.000787644
0.00077469
0.000754762
0.000727274
0.000691978
0.000649174
0.000599757
0.00054456
0.000484174
0.000418774
0.000348595
0.000275023
0.000201531
0.000133377
7.5624e-05
3.15746e-05
3.52215e-06
3.40836e-06
3.05211e-05
6.94624e-05
0.00011483
0.000163024
0.000211093
0.000256529
0.000297287
0.000331831
0.00035916
0.00037878
0.00039042
0.000394568
0.000392389
0.000384345
0.000371499
0.000355021
0.000336152
0.000316169
0.000296354
0.000277959
0.000262173
0.000250055
0.000243031
0.000241173
0.000244149
0.000252671
0.000266371
0.000284588
0.000306406
0.000330745
0.000356482
0.000382568
0.000408142
0.000432602
0.000455637
0.000477218
0.000497545
0.000516975
0.000535933
0.000554837
0.000574029
0.000593732
0.000614027
0.000634863
0.00065607
0.000677393
0.000698519
0.00071911
0.000738824
0.000757326
0.000774298
0.000789422
0.000802366
0.000812756
0.000819619
0.000822368
0.00082226
0.000816442
0.000804034
0.000784155
0.000756047
0.000719341
0.000674367
0.000622252
0.000564278
0.000501499
0.000434329
0.000362799
0.000287696
0.000211915
0.000140712
7.98027e-05
3.32485e-05
3.70938e-06
3.61532e-06
3.23723e-05
7.36648e-05
0.000121741
0.000172745
0.000223496
0.000271289
0.000313924
0.000349774
0.000377803
0.00039754
0.000408689
0.000412081
0.000408793
0.000399445
0.000385207
0.000367351
0.000347205
0.000326115
0.000305415
0.000286396
0.000270265
0.000258085
0.000251352
0.000249823
0.000253341
0.000262487
0.000276822
0.000295609
0.000317872
0.00034249
0.000368326
0.00039435
0.000419742
0.00044396
0.000466767
0.000488202
0.000508523
0.000528126
0.000547452
0.000566915
0.000586834
0.000607399
0.000628655
0.00065051
0.000672762
0.000695125
0.000717268
0.00073884
0.000759496
0.000778914
0.000796791
0.000812841
0.000826759
0.000838177
0.00084646
0.000850371
0.00085104
0.000846508
0.000835045
0.000815624
0.000787253
0.000749355
0.000702182
0.000647042
0.000585683
0.000519766
0.000450163
0.0003769
0.000300223
0.000222298
0.000148157
8.40801e-05
3.49581e-05
3.90062e-06
3.82758e-06
3.42704e-05
7.7972e-05
0.000128819
0.000182687
0.000236154
0.000286306
0.000330785
0.000367871
0.000396501
0.000416233
0.000426761
0.000429309
0.000424814
0.00041409
0.000398419
0.000379173
0.000357762
0.000335597
0.00031406
0.00029447
0.000278046
0.000265844
0.000259416
0.000258204
0.000262239
0.000271958
0.000286855
0.000306129
0.000328751
0.000353573
0.000379456
0.000405394
0.000430616
0.000454644
0.000477306
0.000498704
0.000519147
0.000539055
0.000558877
0.000579011
0.000599751
0.00062125
0.000643512
0.000666407
0.000689697
0.00071307
0.000736177
0.000758658
0.000780174
0.00080042
0.000819127
0.000836047
0.000850921
0.000863428
0.000873111
0.000878578
0.00088019
0.000877237
0.000867166
0.000848704
0.000820567
0.000781879
0.00073269
0.000674378
0.000609143
0.000539351
0.000466555
0.00039103
0.000312615
0.000232649
0.00015569
8.84511e-05
3.67023e-05
4.09578e-06
4.04513e-06
3.62155e-05
8.23839e-05
0.000136062
0.000192846
0.000249059
0.000301567
0.000347849
0.000386094
0.000415223
0.000434817
0.000444602
0.000446213
0.00044042
0.000428259
0.000411124
0.000390486
0.000367833
0.000344637
0.000322315
0.00030221
0.000285541
0.000273354
0.000267235
0.000266326
0.000270846
0.000281082
0.000296471
0.000316154
0.000339062
0.00036403
0.000389926
0.000415778
0.000440864
0.000464769
0.000487381
0.000508858
0.000529544
0.000549878
0.000570301
0.000591193
0.000612815
0.000635281
0.000658553
0.000682461
0.000706735
0.000731037
0.000755001
0.000778267
0.000800509
0.000821449
0.000840862
0.000858553
0.000874326
0.00088792
0.000898953
0.000906304
0.000909159
0.000907965
0.000899751
0.000882806
0.000855511
0.000816606
0.000765798
0.000704389
0.000634948
0.000560607
0.000483807
0.000405361
0.000324911
0.000242939
0.000163287
9.29085e-05
3.84797e-05
4.29469e-06
4.26798e-06
3.82076e-05
8.69003e-05
0.000143471
0.000203221
0.000262205
0.00031706
0.000365096
0.000404418
0.000433942
0.000453243
0.000462179
0.00046276
0.000455586
0.000441936
0.000423317
0.000401296
0.000377436
0.000353258
0.000330211
0.000309647
0.000292782
0.000280641
0.000274828
0.000274205
0.000279172
0.000289868
0.000305679
0.000325701
0.000348835
0.000373907
0.000399803
0.000425586
0.000450588
0.000474448
0.000497111
0.000518777
0.00053982
0.00056068
0.000581787
0.000603493
0.000626024
0.000649451
0.000673694
0.000698545
0.000723701
0.000748802
0.000773472
0.000797356
0.00082015
0.000841615
0.000861577
0.000879909
0.000896485
0.000911112
0.000923442
0.00093281
0.000937467
0.000938018
0.000932118
0.000917269
0.000891493
0.000853079
0.000801253
0.000737056
0.000663293
0.000583849
0.00050223
0.000420095
0.000337176
0.000253154
0.000170922
9.74438e-05
4.02882e-05
4.4971e-06
4.49615e-06
4.02467e-05
9.15211e-05
0.000151044
0.000213807
0.000275584
0.000332769
0.000382504
0.000422811
0.000452618
0.000471465
0.000479476
0.00047891
0.000470288
0.000455109
0.000434999
0.000411617
0.000386594
0.000361493
0.000337784
0.00031682
0.000299803
0.000287739
0.000282221
0.000281862
0.000287235
0.000298333
0.000314502
0.0003348
0.00035811
0.000383261
0.000409159
0.000434908
0.000459887
0.000483789
0.000506602
0.000528561
0.000550058
0.000571525
0.000593369
0.000615913
0.000639343
0.000663687
0.000688823
0.000714506
0.000740402
0.000766135
0.000791324
0.000815628
0.000838774
0.000860569
0.000880904
0.000899726
0.000916987
0.000932575
0.00094622
0.000957398
0.000964511
0.000966836
0.000963603
0.000951401
0.000927848
0.000890722
0.000838654
0.000772216
0.000694255
0.000609327
0.000522124
0.00043546
0.000349506
0.000263288
0.00017857
0.000102046
4.21251e-05
4.70272e-06
4.72964e-06
4.23328e-05
9.62461e-05
0.000158779
0.000224601
0.000289187
0.000348679
0.000400048
0.000441241
0.000471205
0.000489437
0.000496483
0.000494633
0.000484506
0.000467771
0.000446176
0.000421468
0.000395337
0.00036938
0.000345077
0.000323774
0.000306641
0.000294692
0.000289448
0.00028933
0.000295063
0.000306506
0.000322971
0.000343492
0.000366941
0.000392157
0.000418073
0.000443831
0.000468857
0.000492887
0.000515944
0.000538288
0.000560321
0.00058245
0.000605056
0.00062843
0.000652716
0.000677898
0.000703813
0.00073018
0.000756643
0.000782811
0.000808309
0.000832818
0.000856102
0.000878026
0.00089855
0.000917701
0.000935517
0.000951972
0.000966874
0.000979759
0.00098956
0.00099407
0.000993598
0.000984539
0.000963889
0.000928886
0.000877479
0.000809562
0.000727782
0.000637207
0.000543758
0.000451694
0.00036202
0.000273352
0.000186207
0.000106702
4.3987e-05
4.91117e-06
4.96846e-06
4.4466e-05
0.000101075
0.000166676
0.000235598
0.000303004
0.000364773
0.000417704
0.000459674
0.000489665
0.000507134
0.000513152
0.00050991
0.000498227
0.000479922
0.000456862
0.000430875
0.000403703
0.000376966
0.000352141
0.000330558
0.00031335
0.000301543
0.000296551
0.000296648
0.000302695
0.000314425
0.00033113
0.000351827
0.000375387
0.000400665
0.000426623
0.000452442
0.000477587
0.000501829
0.000525215
0.000548021
0.000570653
0.000593471
0.000616837
0.000641002
0.000666069
0.000691978
0.000718527
0.000745406
0.000772238
0.000798628
0.000824215
0.000848707
0.000871917
0.000893772
0.000914307
0.000933631
0.000951868
0.00096908
0.000985162
0.000999718
0.00101192
0.00101952
0.00102158
0.00101608
0.000998955
0.00096689
0.000917115
0.000848659
0.000763692
0.000667556
0.000567357