/*--------------------------------*- C++ -*----------------------------------*\
  =========                 |
  \\      /  F ield         | OpenFOAM: The Open Source CFD Toolbox
   \\    /   O peration     | Website:  https://openfoam.org
    \\  /    A nd           | Version:  12
     \\/     M anipulation  |
\*---------------------------------------------------------------------------*/
FoamFile
{
    format      ascii;
    class       volScalarField;
    location    "1";
    object      nut;
}
// * * * * * * * * * * * * * * * * * * * * * * * * * * * * * * * * * * * * * //

dimensions      [0 2 -1 0 0 0 0];

internalField   nonuniform List<scalar> 
5625
(
2.90602e-13
1.96139e-12
4.33259e-12
7.0835e-12
1.00323e-11
1.30421e-11
1.60005e-11
1.88128e-11
2.14002e-11
2.36993e-11
2.56615e-11
2.72525e-11
2.84515e-11
2.92515e-11
2.96577e-11
2.96886e-11
2.93719e-11
2.8745e-11
2.78555e-11
2.67598e-11
2.55229e-11
2.42172e-11
2.2921e-11
2.17165e-11
2.06872e-11
1.99146e-11
1.94765e-11
1.94254e-11
1.98113e-11
2.06696e-11
2.20167e-11
2.38508e-11
2.61539e-11
2.88959e-11
3.20389e-11
3.55423e-11
3.93677e-11
4.34812e-11
4.7856e-11
5.24714e-11
5.73121e-11
6.23652e-11
6.7618e-11
7.30547e-11
7.86541e-11
8.43864e-11
9.02106e-11
9.60718e-11
1.01898e-10
1.07597e-10
1.13053e-10
1.18129e-10
1.22657e-10
1.2644e-10
1.29241e-10
1.30688e-10
1.31016e-10
1.29824e-10
1.26819e-10
1.21969e-10
1.15317e-10
1.07001e-10
9.72774e-11
8.65083e-11
7.51385e-11
6.36482e-11
5.24986e-11
4.20802e-11
3.2675e-11
2.44396e-11
1.74123e-11
1.15429e-11
6.74399e-12
2.97306e-12
4.38208e-13
8.78207e-12
2.85909e-10
7.1196e-10
1.19366e-09
1.7052e-09
2.22521e-09
2.73513e-09
3.21906e-09
3.66368e-09
4.05823e-09
4.39441e-09
4.66645e-09
4.8709e-09
5.00657e-09
5.07446e-09
5.07781e-09
5.02144e-09
4.91182e-09
4.75714e-09
4.56714e-09
4.35299e-09
4.12716e-09
3.9031e-09
3.69493e-09
3.51694e-09
3.38306e-09
3.30675e-09
3.29669e-09
3.36117e-09
3.50626e-09
3.7345e-09
4.04528e-09
4.43521e-09
4.89877e-09
5.4292e-09
6.0193e-09
6.6623e-09
7.35236e-09
8.08483e-09
8.85628e-09
9.66424e-09
1.05067e-08
1.1382e-08
1.22877e-08
1.3221e-08
1.41774e-08
1.51511e-08
1.61338e-08
1.71144e-08
1.80788e-08
1.90088e-08
1.98819e-08
2.0671e-08
2.13426e-08
2.18593e-08
2.21351e-08
2.22254e-08
2.20617e-08
2.15842e-08
2.07874e-08
1.9676e-08
1.82717e-08
1.66169e-08
1.47747e-08
1.28233e-08
1.0848e-08
8.9309e-09
7.1414e-09
5.52908e-09
4.12069e-09
2.9214e-09
1.91972e-09
1.09494e-09
4.29786e-10
1.32347e-11
1.86348e-11
1.52524e-09
4.8611e-09
8.71294e-09
1.27536e-08
1.68249e-08
2.07934e-08
2.45424e-08
2.79728e-08
3.10041e-08
3.35745e-08
3.56414e-08
3.71796e-08
3.81819e-08
3.86574e-08
3.86341e-08
3.81505e-08
3.72584e-08
3.60226e-08
3.452e-08
3.28385e-08
3.10753e-08
2.93346e-08
2.77253e-08
2.63565e-08
2.53336e-08
2.47598e-08
2.46927e-08
2.51929e-08
2.63017e-08
2.8032e-08
3.03718e-08
3.32878e-08
3.67317e-08
4.06469e-08
4.49753e-08
4.96638e-08
5.46683e-08
5.99552e-08
6.55014e-08
7.12919e-08
7.7317e-08
8.35688e-08
9.0038e-08
9.67107e-08
1.03565e-07
1.10569e-07
1.17674e-07
1.24814e-07
1.31898e-07
1.38804e-07
1.45378e-07
1.51427e-07
1.56708e-07
1.61025e-07
1.63482e-07
1.64738e-07
1.64153e-07
1.61163e-07
1.55708e-07
1.47781e-07
1.37509e-07
1.25198e-07
1.1133e-07
9.65281e-08
8.14808e-08
6.6857e-08
5.32198e-08
4.0966e-08
3.02984e-08
2.12359e-08
1.36505e-08
7.33476e-09
2.27764e-09
2.80001e-11
3.04427e-11
3.56449e-09
1.45022e-08
2.86099e-08
4.35788e-08
5.85803e-08
7.31042e-08
8.67383e-08
9.91382e-08
1.10026e-07
1.19192e-07
1.2649e-07
1.31843e-07
1.35234e-07
1.36705e-07
1.36373e-07
1.34383e-07
1.30933e-07
1.26266e-07
1.20666e-07
1.14458e-07
1.07995e-07
1.01655e-07
9.58234e-08
9.08854e-08
8.72053e-08
8.5143e-08
8.48593e-08
8.65505e-08
9.03333e-08
9.62183e-08
1.04127e-07
1.13908e-07
1.25363e-07
1.38275e-07
1.52429e-07
1.67638e-07
1.83754e-07
2.00675e-07
2.18339e-07
2.36716e-07
2.558e-07
2.75595e-07
2.96104e-07
3.17322e-07
3.39219e-07
3.61735e-07
3.84762e-07
4.08128e-07
4.31579e-07
4.54756e-07
4.77172e-07
4.98194e-07
5.1708e-07
5.33405e-07
5.42941e-07
5.49221e-07
5.49405e-07
5.41271e-07
5.24586e-07
4.99209e-07
4.65468e-07
4.24353e-07
3.77522e-07
3.27159e-07
2.75717e-07
2.25596e-07
1.78824e-07
1.3682e-07
1.00284e-07
6.92281e-08
4.31267e-08
2.13777e-08
5.28835e-09
4.54799e-11
4.38281e-11
5.99724e-09
2.92321e-08
6.37823e-08
1.02063e-07
1.40696e-07
1.77985e-07
2.1279e-07
2.44233e-07
2.71635e-07
2.94494e-07
3.1248e-07
3.25429e-07
3.33333e-07
3.3633e-07
3.34771e-07
3.2904e-07
3.19667e-07
3.07292e-07
2.9266e-07
2.76599e-07
2.6001e-07
2.43835e-07
2.29028e-07
2.1652e-07
2.07168e-07
2.01839e-07
2.00786e-07
2.04443e-07
2.13007e-07
2.26407e-07
2.44363e-07
2.66429e-07
2.92071e-07
3.20729e-07
3.51885e-07
3.85103e-07
4.20068e-07
4.56581e-07
4.94554e-07
5.3398e-07
5.74912e-07
6.17429e-07
6.61614e-07
7.07527e-07
7.55182e-07
8.04519e-07
8.55365e-07
9.074e-07
9.60097e-07
1.01267e-06
1.06402e-06
1.1126e-06
1.15721e-06
1.19642e-06
1.21924e-06
1.23564e-06
1.23826e-06
1.22152e-06
1.18525e-06
1.12905e-06
1.05363e-06
9.61198e-07
8.55484e-07
7.41427e-07
6.24599e-07
5.10477e-07
4.03719e-07
3.07601e-07
2.23738e-07
1.52134e-07
9.16881e-08
4.2008e-08
8.81644e-09
6.49267e-11
5.85256e-11
8.64146e-09
4.75284e-08
1.13344e-07
1.90941e-07
2.70902e-07
3.48371e-07
4.20469e-07
4.85227e-07
5.41232e-07
5.87496e-07
6.23416e-07
6.48733e-07
6.63514e-07
6.68109e-07
6.63393e-07
6.50165e-07
6.29593e-07
6.0305e-07
5.72102e-07
5.38475e-07
5.04009e-07
4.70604e-07
4.40148e-07
4.14437e-07
3.95058e-07
3.83774e-07
3.80602e-07
3.86452e-07
4.01482e-07
4.25385e-07
4.57461e-07
4.96736e-07
5.42107e-07
5.92529e-07
6.46996e-07
7.04739e-07
7.65238e-07
8.28214e-07
8.93595e-07
9.61468e-07
1.03201e-06
1.10546e-06
1.18203e-06
1.26191e-06
1.34517e-06
1.43176e-06
1.52138e-06
1.61347e-06
1.70705e-06
1.80065e-06
1.8922e-06
1.97881e-06
2.05805e-06
2.12723e-06
2.16696e-06
2.19443e-06
2.19771e-06
2.1658e-06
2.09929e-06
1.99796e-06
1.86332e-06
1.69937e-06
1.51263e-06
1.31151e-06
1.10548e-06
9.03849e-07
7.14586e-07
5.43382e-07
3.93112e-07
2.63938e-07
1.54535e-07
6.64382e-08
1.25458e-08
8.57609e-11
7.43633e-11
1.14408e-08
6.80958e-08
1.74407e-07
3.08261e-07
4.50426e-07
5.89629e-07
7.19311e-07
8.35347e-07
9.35014e-07
1.01656e-06
1.079e-06
1.12202e-06
1.14589e-06
1.15138e-06
1.14033e-06
1.1142e-06
1.07522e-06
1.02595e-06
9.69251e-07
9.08237e-07
8.46169e-07
7.86357e-07
7.32025e-07
6.86173e-07
6.51273e-07
6.30546e-07
6.23004e-07
6.30464e-07
6.52822e-07
6.893e-07
7.38541e-07
7.98782e-07
8.68132e-07
9.4475e-07
1.02713e-06
1.11412e-06
1.20501e-06
1.29946e-06
1.39748e-06
1.49934e-06
1.60542e-06
1.71615e-06
1.83194e-06
1.95311e-06
2.07976e-06
2.21173e-06
2.34842e-06
2.48875e-06
2.6309e-06
2.77224e-06
2.90918e-06
3.03717e-06
3.15112e-06
3.24763e-06
3.30177e-06
3.3329e-06
3.32818e-06
3.26937e-06
3.15974e-06
2.99993e-06
2.79278e-06
2.54448e-06
2.26444e-06
1.96455e-06
1.65797e-06
1.35764e-06
1.07475e-06
8.17375e-07
5.89756e-07
3.92494e-07
2.24873e-07
9.23701e-08
1.63507e-08
1.07559e-10
9.12291e-11
1.43789e-08
9.01678e-08
2.43927e-07
4.49511e-07
6.75409e-07
9.0005e-07
1.1103e-06
1.29815e-06
1.45863e-06
1.58876e-06
1.68706e-06
1.75323e-06
1.78793e-06
1.79264e-06
1.77085e-06
1.7249e-06
1.65867e-06
1.57643e-06
1.48294e-06
1.38324e-06
1.28255e-06
1.18608e-06
1.09877e-06
1.02509e-06
9.68835e-07
9.34651e-07
9.20138e-07
9.28005e-07
9.57699e-07
1.00777e-06
1.07595e-06
1.15951e-06
1.25558e-06
1.36148e-06
1.47503e-06
1.59467e-06
1.7195e-06
1.84916e-06
1.98379e-06
2.12381e-06
2.26984e-06
2.42248e-06
2.58227e-06
2.74954e-06
2.92426e-06
3.10592e-06
3.29338e-06
3.48464e-06
3.67668e-06
3.86533e-06
4.04519e-06
4.2097e-06
4.35148e-06
4.46233e-06
4.52058e-06
4.54317e-06
4.51754e-06
4.41842e-06
4.25398e-06
4.02637e-06
3.74002e-06
3.40322e-06
3.02789e-06
2.62873e-06
2.22186e-06
1.82315e-06
1.44637e-06
1.10162e-06
7.94398e-07
5.25971e-07
2.9703e-07
1.18413e-07
2.01725e-08
1.30014e-10
1.09048e-10
1.74508e-08
1.13361e-07
3.19572e-07
6.0969e-07
9.39332e-07
1.27305e-06
1.58767e-06
1.86893e-06
2.10827e-06
2.30083e-06
2.44442e-06
2.53885e-06
2.58537e-06
2.5867e-06
2.54866e-06
2.47484e-06
2.37137e-06
2.24491e-06
2.10272e-06
1.95238e-06
1.80161e-06
1.65803e-06
1.52869e-06
1.41948e-06
1.33659e-06
1.2846e-06
1.26036e-06
1.26737e-06
1.30438e-06
1.36891e-06
1.45754e-06
1.56632e-06
1.69125e-06
1.8287e-06
1.9758e-06
2.13054e-06
2.29182e-06
2.45928e-06
2.63317e-06
2.81407e-06
3.00276e-06
3.19995e-06
3.40618e-06
3.6216e-06
3.84581e-06
4.07766e-06
4.31505e-06
4.5547e-06
4.792e-06
5.02094e-06
5.23417e-06
5.42317e-06
5.57859e-06
5.69034e-06
5.73171e-06
5.73565e-06
5.67712e-06
5.52668e-06
5.29996e-06
5.00093e-06
4.63534e-06
4.21309e-06
3.74791e-06
3.25645e-06
2.75688e-06
2.26716e-06
1.80302e-06
1.37616e-06
9.93157e-07
6.56056e-07
3.67378e-07
1.43838e-07
2.39766e-08
1.52917e-10
1.27769e-10
2.0655e-08
1.37506e-07
3.99812e-07
7.84523e-07
1.23517e-06
1.69977e-06
2.14162e-06
2.53745e-06
2.87336e-06
3.14176e-06
3.33948e-06
3.46654e-06
3.52499e-06
3.5195e-06
3.45886e-06
3.34842e-06
3.1972e-06
3.01496e-06
2.8121e-06
2.59936e-06
2.38749e-06
2.18682e-06
2.00683e-06
1.85516e-06
1.74142e-06
1.66809e-06
1.63231e-06
1.63782e-06
1.68243e-06
1.76241e-06
1.87292e-06
2.00858e-06
2.16412e-06
2.33489e-06
2.51726e-06
2.70878e-06
2.90812e-06
3.11492e-06
3.3295e-06
3.55257e-06
3.78497e-06
4.02739e-06
4.28018e-06
4.54307e-06
4.81501e-06
5.09384e-06
5.37615e-06
5.65706e-06
5.93019e-06
6.18768e-06
6.42043e-06
6.6185e-06
6.77146e-06
6.86889e-06
6.87977e-06
6.8462e-06
6.75302e-06
6.54466e-06
6.25312e-06
5.88414e-06
5.44415e-06
4.94402e-06
4.3985e-06
3.8253e-06
3.24382e-06
2.67343e-06
2.13131e-06
1.63048e-06
1.17849e-06
7.78223e-07
4.34039e-07
1.68303e-07
2.77399e-08
1.76145e-10
1.47356e-10
2.3991e-08
1.62537e-07
4.83748e-07
9.70842e-07
1.55671e-06
2.17115e-06
2.76084e-06
3.29064e-06
3.73944e-06
4.09591e-06
4.35551e-06
4.51854e-06
4.58801e-06
4.57155e-06
4.48144e-06
4.32531e-06
4.11573e-06
3.86634e-06
3.59129e-06
3.30509e-06
3.02206e-06
2.75573e-06
2.51774e-06
2.31887e-06
2.17126e-06
2.07403e-06
2.02597e-06
2.03024e-06
2.08341e-06
2.18022e-06
2.31417e-06
2.47829e-06
2.66593e-06
2.87133e-06
3.09009e-06
3.3193e-06
3.55742e-06
3.80405e-06
4.05956e-06
4.32469e-06
4.60025e-06
4.88674e-06
5.18409e-06
5.49139e-06
5.80657e-06
6.12621e-06
6.44531e-06
6.75729e-06
7.05404e-06
7.32619e-06
7.56349e-06
7.75531e-06
7.89116e-06
7.96118e-06
7.93319e-06
7.84928e-06
7.71737e-06
7.4537e-06
7.09851e-06
6.66431e-06
6.15736e-06
5.58879e-06
4.97369e-06
4.33011e-06
3.67803e-06
3.03766e-06
2.42729e-06
1.8611e-06
1.34766e-06
8.90726e-07
4.96318e-07
1.91694e-07
3.14558e-08
1.99583e-10
1.67787e-10
2.74588e-08
1.88439e-07
5.70902e-07
1.16651e-06
1.89905e-06
2.67921e-06
3.43442e-06
4.11506e-06
4.69088e-06
5.14571e-06
5.47328e-06
5.67429e-06
5.75273e-06
5.72056e-06
5.59377e-06
5.3829e-06
5.10483e-06
4.77771e-06
4.42012e-06
4.05085e-06
3.68818e-06
3.34912e-06
3.0477e-06
2.7984e-06
2.61573e-06
2.49327e-06
2.43347e-06
2.43771e-06
2.50107e-06
2.61648e-06
2.77555e-06
2.96959e-06
3.19047e-06
3.43131e-06
3.68693e-06
3.95398e-06
4.2307e-06
4.51665e-06
4.81218e-06
5.11802e-06
5.43478e-06
5.76262e-06
6.10085e-06
6.44762e-06
6.79963e-06
7.15196e-06
7.498e-06
7.82956e-06
8.13718e-06
8.4105e-06
8.63886e-06
8.81177e-06
8.91945e-06
8.95322e-06
8.88066e-06
8.74631e-06
8.56276e-06
8.25579e-06
7.84051e-06
7.34712e-06
6.78113e-06
6.15343e-06
5.4789e-06
4.77541e-06
4.06298e-06
3.36227e-06
2.69243e-06
2.06873e-06
1.50085e-06
9.93519e-07
5.54211e-07
2.14016e-07
3.51229e-08
2.23178e-10
1.89045e-10
3.10588e-08
2.15219e-07
6.61055e-07
1.37019e-06
2.25864e-06
3.21746e-06
4.15283e-06
4.99832e-06
5.71271e-06
6.27401e-06
6.67385e-06
6.91342e-06
6.99766e-06
6.94462e-06
6.77382e-06
6.49939e-06
6.1433e-06
5.72888e-06
5.27969e-06
4.81926e-06
4.37026e-06
3.95283e-06
3.58538e-06
3.28379e-06
3.06654e-06
2.91886e-06
2.84903e-06
2.8553e-06
2.931e-06
3.06698e-06
3.25282e-06
3.47799e-06
3.73283e-06
4.00936e-06
4.30164e-06
4.6059e-06
4.92021e-06
5.24405e-06
5.57775e-06
5.9219e-06
6.27684e-06
6.64218e-06
7.01642e-06
7.39656e-06
7.77794e-06
8.15411e-06
8.51698e-06
8.8571e-06
9.16415e-06
9.42748e-06
9.63665e-06
9.78192e-06
9.85466e-06
9.84762e-06
9.72855e-06
9.54663e-06
9.30694e-06
8.96051e-06
8.49473e-06
7.94778e-06
7.32973e-06
6.65071e-06
5.92514e-06
5.17036e-06
4.40603e-06
3.65293e-06
2.93086e-06
2.25618e-06
1.63977e-06
1.08748e-06
6.08074e-07
2.3534e-07
3.87445e-08
2.46919e-10
2.11121e-10
3.47912e-08
2.42893e-07
7.54137e-07
1.58112e-06
2.63305e-06
3.781e-06
4.90831e-06
5.92974e-06
6.79161e-06
7.46516e-06
7.93963e-06
8.21685e-06
8.30264e-06
8.22319e-06
8.00103e-06
7.65456e-06
7.21176e-06
6.70163e-06
6.15324e-06
5.59527e-06
5.05506e-06
4.55564e-06
4.12122e-06
3.7677e-06
3.51729e-06
3.34596e-06
3.26866e-06
3.27961e-06
3.37008e-06
3.52864e-06
3.7427e-06
3.99982e-06
4.28885e-06
4.60071e-06
4.92879e-06
5.26894e-06
5.61909e-06
5.97868e-06
6.34796e-06
6.72732e-06
7.11671e-06
7.51505e-06
7.91984e-06
8.32687e-06
8.73008e-06
9.12164e-06
9.49227e-06
9.83176e-06
1.01295e-05
1.03751e-05
1.05588e-05
1.06719e-05
1.07071e-05
1.06584e-05
1.04942e-05
1.0269e-05
9.97641e-06
9.58231e-06
9.08272e-06
8.48614e-06
7.82105e-06
7.09627e-06
6.32566e-06
5.52584e-06
4.71587e-06
3.9164e-06
3.14766e-06
2.42705e-06
1.76678e-06
1.17392e-06
6.58423e-07
2.55772e-07
4.23273e-08
2.70822e-10
2.34014e-10
3.8656e-08
2.71482e-07
8.50161e-07
1.79891e-06
3.02072e-06
4.3663e-06
5.69481e-06
6.90062e-06
7.91627e-06
8.70557e-06
9.25516e-06
9.56761e-06
9.64974e-06
9.5381e-06
9.25724e-06
8.83068e-06
8.29335e-06
7.68034e-06
7.02664e-06
6.36643e-06
5.7315e-06
5.14938e-06
4.64763e-06
4.24546e-06
3.9627e-06
3.77171e-06
3.68974e-06
3.70831e-06
3.81604e-06
3.99902e-06
4.2424e-06
4.53184e-06
4.85474e-06
5.20099e-06
5.56341e-06
5.93756e-06
6.32129e-06
6.71399e-06
7.11582e-06
7.52694e-06
7.94675e-06
8.37339e-06
8.80333e-06
9.23109e-06
9.64936e-06
1.00492e-05
1.04206e-05
1.0753e-05
1.1036e-05
1.12599e-05
1.14158e-05
1.14961e-05
1.14945e-05
1.14061e-05
1.12e-05
1.09347e-05
1.05963e-05
1.01514e-05
9.62287e-06
8.98369e-06
8.27412e-06
7.50643e-06
6.69407e-06
5.85293e-06
5.0013e-06
4.1595e-06
3.34801e-06
2.58509e-06
1.88436e-06
1.25428e-06
7.05819e-07
2.75434e-07
4.58798e-08
2.94926e-10
2.57723e-10
4.2654e-08
3.01009e-07
9.49183e-07
2.02343e-06
3.4207e-06
4.97088e-06
6.50776e-06
7.90403e-06
9.07744e-06
9.98388e-06
1.06074e-05
1.0951e-05
1.10236e-05
1.08738e-05
1.05269e-05
1.00127e-05
9.37395e-06
8.6521e-06
7.88846e-06
7.12304e-06
6.39116e-06
5.72759e-06
5.15987e-06
4.71351e-06
4.40026e-06
4.19366e-06
4.11055e-06
4.13977e-06
4.2671e-06
4.47603e-06
4.7494e-06
5.07104e-06
5.42695e-06
5.80617e-06
6.20102e-06
6.60687e-06
7.02156e-06
7.4445e-06
7.87572e-06
8.31508e-06
8.76139e-06
9.21197e-06
9.66219e-06
1.01055e-05
1.05335e-05
1.09366e-05
1.13043e-05
1.16264e-05
1.18928e-05
1.20946e-05
1.22238e-05
1.22738e-05
1.22389e-05
1.21147e-05
1.18714e-05
1.15704e-05
1.11908e-05
1.06974e-05
1.01322e-05
9.4619e-06
8.70764e-06
7.89708e-06
7.04348e-06
6.16217e-06
5.27059e-06
4.3886e-06
3.53668e-06
2.73379e-06
1.99489e-06
1.32993e-06
7.50852e-07
2.94453e-07
4.9412e-08
3.19284e-10
2.82245e-10
4.6787e-08
3.31496e-07
1.05127e-06
2.25469e-06
3.83245e-06
5.59305e-06
7.34379e-06
8.93458e-06
1.02677e-05
1.12908e-05
1.19854e-05
1.23546e-05
1.24118e-05
1.22172e-05
1.1797e-05
1.11883e-05
1.04421e-05
9.60662e-06
8.72977e-06
7.85749e-06
7.02852e-06
6.28566e-06
5.65492e-06
5.1695e-06
4.8284e-06
4.61057e-06
4.53e-06
4.57279e-06
4.72176e-06
4.95773e-06
5.2613e-06
5.61452e-06
6.00217e-06
6.41252e-06
6.83756e-06
7.27261e-06
7.71557e-06
8.16586e-06
8.62345e-06
9.0878e-06
9.55715e-06
1.00279e-05
1.04946e-05
1.09497e-05
1.1384e-05
1.17877e-05
1.21503e-05
1.24618e-05
1.27129e-05
1.28952e-05
1.30017e-05
1.30261e-05
1.29637e-05
1.28084e-05
1.25335e-05
1.2201e-05
1.1783e-05
1.1248e-05
1.06345e-05
9.93739e-06
9.13923e-06
8.2831e-06
7.38611e-06
6.46328e-06
5.53125e-06
4.60939e-06
3.71793e-06
2.87625e-06
2.10048e-06
1.40211e-06
7.94073e-07
3.12951e-07
5.2934e-08
3.43955e-10
3.07582e-10
5.10562e-08
3.62965e-07
1.15652e-06
2.49278e-06
4.2557e-06
6.23168e-06
8.2004e-06
9.98808e-06
1.1481e-05
1.26186e-05
1.33802e-05
1.37679e-05
1.38043e-05
1.35576e-05
1.30568e-05
1.23475e-05
1.14887e-05
1.0536e-05
9.54388e-06
8.56401e-06
7.64043e-06
6.82055e-06
6.13114e-06
5.61225e-06
5.24639e-06
5.02184e-06
4.9474e-06
5.00638e-06
5.17862e-06
5.44228e-06
5.7758e-06
6.15957e-06
6.57729e-06
7.01668e-06
7.46954e-06
7.93127e-06
8.39988e-06
8.8749e-06
9.35617e-06
9.8428e-06
1.03324e-05
1.08207e-05
1.13014e-05
1.17661e-05
1.22055e-05
1.26095e-05
1.29681e-05
1.32716e-05
1.35112e-05
1.36792e-05
1.37687e-05
1.37738e-05
1.36897e-05
1.35079e-05
1.32057e-05
1.28452e-05
1.23929e-05
1.18203e-05
1.11556e-05
1.0422e-05
9.58515e-06
8.67818e-06
7.73315e-06
6.76518e-06
5.79011e-06
4.82692e-06
3.89545e-06
3.01512e-06
2.20296e-06
1.47193e-06
8.35973e-07
3.31045e-07
5.64557e-08
3.69002e-10
3.33736e-10
5.5463e-08
3.95436e-07
1.26499e-06
2.73779e-06
4.69032e-06
6.886e-06
9.07571e-06
1.10613e-05
1.27127e-05
1.39612e-05
1.47843e-05
1.51826e-05
1.51923e-05
1.48866e-05
1.4298e-05
1.34825e-05
1.25068e-05
1.14342e-05
1.03262e-05
9.23892e-06
8.22434e-06
7.33112e-06
6.58801e-06
6.04136e-06
5.65411e-06
5.42724e-06
5.36226e-06
5.43967e-06
5.63636e-06
5.9279e-06
6.29067e-06
6.70361e-06
7.14953e-06
7.61576e-06
8.09408e-06
8.5801e-06
9.07204e-06
9.56956e-06
1.00724e-05
1.05793e-05
1.10874e-05
1.15917e-05
1.20852e-05
1.25593e-05
1.30046e-05
1.3411e-05
1.37689e-05
1.40691e-05
1.43031e-05
1.44632e-05
1.45425e-05
1.4535e-05
1.44354e-05
1.4233e-05
1.39073e-05
1.35205e-05
1.30357e-05
1.2426e-05
1.17167e-05
1.09308e-05
1.00578e-05
9.09474e-06
8.09485e-06
7.07608e-06
6.05339e-06
5.04575e-06
4.07248e-06
3.15268e-06
2.30388e-06
1.54032e-06
8.76978e-07
3.48841e-07
5.99859e-08
3.94486e-10
3.6071e-10
6.00088e-08
4.28927e-07
1.37677e-06
2.98986e-06
5.1363e-06
7.55546e-06
9.96828e-06
1.21515e-05
1.39588e-05
1.53134e-05
1.61917e-05
1.65919e-05
1.6569e-05
1.61971e-05
1.55137e-05
1.45872e-05
1.34914e-05
1.22974e-05
1.10738e-05
9.8804e-06
8.77907e-06
7.81704e-06
7.02592e-06
6.45695e-06
6.05192e-06
5.82683e-06
5.77421e-06
5.87183e-06
6.09368e-06
6.41285e-06
6.80385e-06
7.24433e-06
7.71645e-06
8.20734e-06
8.70895e-06
9.21716e-06
9.73054e-06
1.02489e-05
1.07718e-05
1.12978e-05
1.18236e-05
1.23435e-05
1.28503e-05
1.33353e-05
1.3789e-05
1.42018e-05
1.45641e-05
1.48672e-05
1.51024e-05
1.52619e-05
1.53383e-05
1.5325e-05
1.52158e-05
1.49987e-05
1.46523e-05
1.42409e-05
1.37269e-05
1.30807e-05
1.23273e-05
1.14828e-05
1.05647e-05
9.54397e-06
8.4805e-06
7.40356e-06
6.3269e-06
5.27002e-06
4.25187e-06
3.29086e-06
2.40453e-06
1.60807e-06
9.17444e-07
3.66437e-07
6.35324e-08
4.20461e-10
3.88508e-10
6.46946e-08
4.63455e-07
1.49194e-06
3.24909e-06
5.59362e-06
8.23965e-06
1.08769e-05
1.32566e-05
1.5216e-05
1.6671e-05
1.7597e-05
1.79903e-05
1.79288e-05
1.74835e-05
1.66991e-05
1.56572e-05
1.44387e-05
1.31227e-05
1.17848e-05
1.0488e-05
9.30448e-06
8.2786e-06
7.44613e-06
6.85932e-06
6.44055e-06
6.22077e-06
6.18295e-06
6.30207e-06
6.54932e-06
6.89551e-06
7.31343e-06
7.77972e-06
8.27604e-06
8.78957e-06
9.31256e-06
9.8413e-06
1.03747e-05
1.09128e-05
1.14551e-05
1.2e-05
1.25435e-05
1.308e-05
1.3602e-05
1.41007e-05
1.45669e-05
1.49912e-05
1.53642e-05
1.5677e-05
1.59207e-05
1.6087e-05
1.61677e-05
1.61551e-05
1.60419e-05
1.58165e-05
1.54525e-05
1.50169e-05
1.44757e-05
1.37928e-05
1.29949e-05
1.20918e-05
1.11122e-05
1.00356e-05
8.89844e-06
7.75469e-06
6.61616e-06
5.5037e-06
4.43627e-06
3.43139e-06
2.50602e-06
1.67583e-06
9.57661e-07
3.83929e-07
6.7102e-08
4.46976e-10
4.17134e-10
6.95216e-08
4.99035e-07
1.61054e-06
3.51557e-06
6.0623e-06
8.93819e-06
1.18006e-05
1.43748e-05
1.64818e-05
1.80305e-05
1.89959e-05
1.9373e-05
1.92679e-05
1.87408e-05
1.78503e-05
1.66893e-05
1.53465e-05
1.39087e-05
1.24585e-05
1.10624e-05
9.8011e-06
8.71639e-06
7.85088e-06
7.24813e-06
6.8215e-06
6.60932e-06
6.58816e-06
6.72958e-06
7.00209e-06
7.37437e-06
7.81776e-06
8.30807e-06
8.82675e-06
9.36115e-06
9.90399e-06
1.04521e-05
1.10047e-05
1.15621e-05
1.21238e-05
1.26879e-05
1.32505e-05
1.38055e-05
1.43455e-05
1.48619e-05
1.53457e-05
1.57874e-05
1.61777e-05
1.65072e-05
1.67666e-05
1.69466e-05
1.70379e-05
1.70316e-05
1.69193e-05
1.6691e-05
1.63119e-05
1.58515e-05
1.52856e-05
1.45666e-05
1.37224e-05
1.27621e-05
1.17146e-05
1.05743e-05
9.35591e-06
8.13603e-06
6.92648e-06
5.75066e-06
4.62823e-06
3.57583e-06
2.60929e-06
1.74414e-06
9.97841e-07
4.01426e-07
7.06996e-08
4.74071e-10
4.46591e-10
7.44907e-08
5.35679e-07
1.73264e-06
3.7894e-06
6.54228e-06
9.65071e-06
1.27384e-05
1.55042e-05
1.77535e-05
1.93889e-05
2.03842e-05
2.07368e-05
2.05823e-05
1.99654e-05
1.89646e-05
1.76815e-05
1.62135e-05
1.46552e-05
1.30951e-05
1.16048e-05
1.02706e-05
9.13265e-06
8.24177e-06
7.62462e-06
7.19473e-06
6.9927e-06
6.98956e-06
7.15363e-06
7.45089e-06
7.84812e-06
8.31543e-06
8.82807e-06
9.36745e-06
9.9213e-06
1.04829e-05
1.10496e-05
1.16212e-05
1.21981e-05
1.27799e-05
1.33645e-05
1.39479e-05
1.45241e-05
1.5086e-05
1.56248e-05
1.61315e-05
1.65967e-05
1.70108e-05
1.73637e-05
1.7645e-05
1.78445e-05
1.79518e-05
1.79568e-05
1.78499e-05
1.76218e-05
1.72313e-05
1.6745e-05
1.61565e-05
1.54027e-05
1.45122e-05
1.34946e-05
1.23778e-05
1.11651e-05
9.85895e-06
8.55343e-06
7.26292e-06
6.01473e-06
4.83029e-06
3.72571e-06
2.71522e-06
1.81348e-06
1.03811e-06
4.19064e-07
7.4328e-08
5.01778e-10
4.76881e-10
7.96028e-08
5.73398e-07
1.85827e-06
4.07061e-06
7.03352e-06
1.03768e-05
1.36894e-05
1.66434e-05
1.90289e-05
2.07438e-05
2.17576e-05
2.20797e-05
2.18684e-05
2.11547e-05
2.00398e-05
1.86327e-05
1.70394e-05
1.53626e-05
1.36958e-05
1.21168e-05
1.07149e-05
9.52976e-06
8.61961e-06
7.99002e-06
7.56124e-06
7.37112e-06
7.38686e-06
7.57352e-06
7.89475e-06
8.31565e-06
8.80536e-06
9.33878e-06
9.89749e-06
1.04697e-05
1.10494e-05
1.16345e-05
1.22253e-05
1.28224e-05
1.34256e-05
1.40326e-05
1.46393e-05
1.52405e-05
1.58282e-05
1.6394e-05
1.6929e-05
1.74235e-05
1.78671e-05
1.82489e-05
1.85574e-05
1.87811e-05
1.89085e-05
1.89284e-05
1.88304e-05
1.8605e-05
1.82081e-05
1.76941e-05
1.70846e-05
1.62982e-05
1.53627e-05
1.42884e-05
1.31034e-05
1.18114e-05
1.04121e-05
9.01194e-06
7.63021e-06
6.29971e-06
5.04506e-06
3.88256e-06
2.82464e-06
1.88429e-06
1.07871e-06
4.36878e-07
7.79899e-08
5.30116e-10
5.08008e-10
8.48586e-08
6.12202e-07
1.98745e-06
4.35923e-06
7.53591e-06
1.11161e-05
1.46525e-05
1.77906e-05
2.03059e-05
2.2092e-05
2.31121e-05
2.34018e-05
2.31226e-05
2.23071e-05
2.10748e-05
1.95423e-05
1.78247e-05
1.60322e-05
1.42623e-05
1.26005e-05
1.11366e-05
9.91002e-06
8.98579e-06
8.34602e-06
7.92152e-06
7.7448e-06
7.77981e-06
7.98866e-06
8.33285e-06
8.77609e-06
9.28675e-06
9.83961e-06
1.04166e-05
1.10065e-05
1.16041e-05
1.22079e-05
1.28186e-05
1.34371e-05
1.40632e-05
1.46948e-05
1.53282e-05
1.59576e-05
1.65749e-05
1.71724e-05
1.77407e-05
1.82694e-05
1.87473e-05
1.91623e-05
1.95018e-05
1.9753e-05
1.99032e-05
1.99404e-05
1.98536e-05
1.9633e-05
1.9236e-05
1.86937e-05
1.80627e-05
1.72469e-05
1.62689e-05
1.51395e-05
1.38895e-05
1.25148e-05
1.10184e-05
9.5155e-06
8.03258e-06
6.60929e-06
5.27519e-06
4.04796e-06
2.93838e-06
1.95701e-06
1.11989e-06
4.54887e-07
8.16865e-08
5.59096e-10
5.39974e-10
9.02587e-08
6.52098e-07
2.12023e-06
4.65526e-06
8.0493e-06
1.18679e-05
1.56268e-05
1.89444e-05
2.15822e-05
2.34306e-05
2.44461e-05
2.47005e-05
2.43423e-05
2.34216e-05
2.2069e-05
2.04106e-05
1.85703e-05
1.66656e-05
1.47972e-05
1.30583e-05
1.15381e-05
1.02758e-05
9.34185e-06
8.69406e-06
8.27626e-06
8.11395e-06
8.16823e-06
8.39857e-06
8.76458e-06
9.2288e-06
9.75911e-06
1.03303e-05
1.09248e-05
1.15322e-05
1.21478e-05
1.27708e-05
1.34025e-05
1.40439e-05
1.4695e-05
1.53539e-05
1.60167e-05
1.66771e-05
1.73283e-05
1.79616e-05
1.85672e-05
1.91339e-05
1.96495e-05
2.01006e-05
2.04734e-05
2.07539e-05
2.09285e-05
2.09842e-05
2.09095e-05
2.06944e-05
2.03053e-05
1.97376e-05
1.90813e-05
1.82403e-05
1.72232e-05
1.60418e-05
1.47312e-05
1.32746e-05
1.16787e-05
1.00667e-05
8.47351e-06
6.94691e-06
5.52336e-06
4.22357e-06
3.05728e-06
2.03204e-06
1.16182e-06
4.73129e-07
8.54179e-08
5.8872e-10
5.72781e-10
9.58038e-08
6.93092e-07
2.25659e-06
4.95866e-06
8.57351e-06
1.26318e-05
1.66111e-05
2.0103e-05
2.28557e-05
2.47572e-05
2.57579e-05
2.59725e-05
2.55266e-05
2.44971e-05
2.30222e-05
2.12383e-05
1.92778e-05
1.7265e-05
1.5303e-05
1.3493e-05
1.19224e-05
1.06294e-05
9.68941e-06
9.03554e-06
8.62621e-06
8.47883e-06
8.55202e-06
8.80291e-06
9.18951e-06
9.67343e-06
1.02222e-05
1.0811e-05
1.14226e-05
1.20474e-05
1.26815e-05
1.33247e-05
1.39785e-05
1.46445e-05
1.53226e-05
1.60111e-05
1.67057e-05
1.74007e-05
1.80889e-05
1.87612e-05
1.9407e-05
2.00143e-05
2.05695e-05
2.10581e-05
2.14651e-05
2.17755e-05
2.19746e-05
2.20492e-05
2.19869e-05
2.17767e-05
2.14007e-05
2.08214e-05
2.01279e-05
1.92681e-05
1.82164e-05
1.69868e-05
1.56205e-05
1.40875e-05
1.2392e-05
1.06668e-05
8.95555e-06
7.3156e-06
5.79218e-06
4.41113e-06
3.18225e-06
2.10977e-06
1.20467e-06
4.91645e-07
8.91838e-08
6.18979e-10
6.06431e-10
1.01494e-07
7.35188e-07
2.39656e-06
5.26935e-06
9.1084e-06
1.34069e-05
1.76043e-05
2.12649e-05
2.41245e-05
2.60692e-05
2.70464e-05
2.72144e-05
2.6675e-05
2.5533e-05
2.39348e-05
2.20266e-05
1.9949e-05
1.78328e-05
1.57827e-05
1.39078e-05
1.22921e-05
1.09734e-05
1.00302e-05
9.37183e-06
8.97217e-06
8.83978e-06
8.93119e-06
9.20151e-06
9.60742e-06
1.01098e-05
1.06762e-05
1.12819e-05
1.19105e-05
1.2553e-05
1.32063e-05
1.38707e-05
1.45482e-05
1.52404e-05
1.59474e-05
1.66674e-05
1.73963e-05
1.81284e-05
1.88559e-05
1.95692e-05
2.02569e-05
2.09058e-05
2.15012e-05
2.20273e-05
2.24681e-05
2.28076e-05
2.30307e-05
2.31237e-05
2.30743e-05
2.28715e-05
2.25047e-05
2.19276e-05
2.11951e-05
2.03185e-05
1.92378e-05
1.79651e-05
1.65474e-05
1.49476e-05
1.31555e-05
1.13151e-05
9.48011e-06
7.71778e-06
6.0841e-06
4.61238e-06
3.31421e-06
2.19061e-06
1.24859e-06
5.10476e-07
9.29831e-08
6.49856e-10
6.40924e-10
1.0733e-07
7.7839e-07
2.54011e-06
5.58724e-06
9.65362e-06
1.41927e-05
1.86051e-05
2.24284e-05
2.53868e-05
2.7364e-05
2.83106e-05
2.84232e-05
2.77867e-05
2.65293e-05
2.48074e-05
2.27769e-05
2.05863e-05
1.83719e-05
1.62396e-05
1.43056e-05
1.26504e-05
1.13101e-05
1.03659e-05
9.70436e-06
9.315e-06
9.19726e-06
9.30591e-06
9.5944e-06
1.00183e-05
1.05381e-05
1.11212e-05
1.17435e-05
1.23892e-05
1.305e-05
1.37233e-05
1.441e-05
1.51125e-05
1.58324e-05
1.65699e-05
1.73232e-05
1.80883e-05
1.8859e-05
1.96271e-05
2.03823e-05
2.11122e-05
2.18024e-05
2.24371e-05
2.29994e-05
2.34724e-05
2.38394e-05
2.40851e-05
2.41956e-05
2.41588e-05
2.39643e-05
2.36032e-05
2.30409e-05
2.22753e-05
2.13793e-05
2.02762e-05
1.89666e-05
1.75001e-05
1.58463e-05
1.39642e-05
1.20096e-05
1.00473e-05
8.15508e-06
6.40122e-06
4.82906e-06
3.45416e-06
2.27498e-06
1.29373e-06
5.29656e-07
9.68145e-08
6.81325e-10
6.76264e-10
1.13313e-07
8.227e-07
2.68725e-06
5.91224e-06
1.02088e-05
1.49883e-05
1.96123e-05
2.35918e-05
2.66413e-05
2.86383e-05
2.95477e-05
2.95981e-05
2.88607e-05
2.74859e-05
2.5641e-05
2.34911e-05
2.11922e-05
1.88852e-05
1.66768e-05
1.46899e-05
1.29999e-05
1.1642e-05
1.06984e-05
1.00346e-05
9.65567e-06
9.55184e-06
9.67651e-06
9.98177e-06
1.04224e-05
1.09585e-05
1.15578e-05
1.21965e-05
1.28595e-05
1.35392e-05
1.42334e-05
1.49436e-05
1.56723e-05
1.64212e-05
1.71905e-05
1.79782e-05
1.87803e-05
1.95902e-05
2.03992e-05
2.11959e-05
2.1967e-05
2.2697e-05
2.33689e-05
2.39649e-05
2.44675e-05
2.48597e-05
2.5126e-05
2.52527e-05
2.52278e-05
2.50413e-05
2.46835e-05
2.41412e-05
2.33636e-05
2.24376e-05
2.13197e-05
1.99812e-05
1.8467e-05
1.67718e-05
1.48118e-05
1.27462e-05
1.06558e-05
8.62818e-06
6.74522e-06
5.06276e-06
3.60308e-06
2.3633e-06
1.34023e-06
5.49218e-07
1.00676e-07
7.13349e-10
7.12451e-10
1.19442e-07
8.68119e-07
2.83796e-06
6.24424e-06
1.07734e-05
1.57927e-05
2.06244e-05
2.47531e-05
2.78852e-05
2.98904e-05
3.07564e-05
3.07377e-05
2.98962e-05
2.8403e-05
2.64366e-05
2.41712e-05
2.17693e-05
1.93761e-05
1.7098e-05
1.50638e-05
1.33438e-05
1.19719e-05
1.10296e-05
1.03642e-05
9.99527e-06
9.90427e-06
1.00435e-05
1.03641e-05
1.08201e-05
1.13717e-05
1.19866e-05
1.26417e-05
1.33224e-05
1.40215e-05
1.47376e-05
1.54721e-05
1.62279e-05
1.70067e-05
1.78084e-05
1.86311e-05
1.94703e-05
2.03191e-05
2.11679e-05
2.20046e-05
2.28147e-05
2.35816e-05
2.42876e-05
2.49142e-05
2.54433e-05
2.58578e-05
2.61423e-05
2.62835e-05
2.62697e-05
2.60912e-05
2.57396e-05
2.52066e-05
2.44468e-05
2.34838e-05
2.23565e-05
2.09992e-05
1.94383e-05
1.77096e-05
1.56903e-05
1.35196e-05
1.1303e-05
9.13673e-06
7.11715e-06
5.31491e-06
3.76198e-06
2.45602e-06
1.38822e-06
5.69183e-07
1.04564e-07
7.45879e-10
7.49488e-10
1.25718e-07
9.1465e-07
2.99221e-06
6.58306e-06
1.13471e-05
1.66051e-05
2.16397e-05
2.591e-05
2.91151e-05
3.11169e-05
3.19373e-05
3.18404e-05
3.08925e-05
2.92809e-05
2.71956e-05
2.48194e-05
2.23205e-05
1.98478e-05
1.75065e-05
1.54308e-05
1.36844e-05
1.23027e-05
1.13617e-05
1.06948e-05
1.03351e-05
1.02555e-05
1.04077e-05
1.07419e-05
1.12121e-05
1.17781e-05
1.24083e-05
1.30798e-05
1.37785e-05
1.44978e-05
1.52363e-05
1.59959e-05
1.67795e-05
1.75884e-05
1.84226e-05
1.92799e-05
2.01555e-05
2.10418e-05
2.19284e-05
2.28024e-05
2.36481e-05
2.44484e-05
2.51846e-05
2.58378e-05
2.63897e-05
2.68233e-05
2.71236e-05
2.72777e-05
2.72753e-05
2.71061e-05
2.67606e-05
2.62309e-05
2.55005e-05
2.45152e-05
2.33741e-05
2.20078e-05
2.04074e-05
1.86455e-05
1.65901e-05
1.4323e-05
1.19849e-05
9.67926e-06
7.51734e-06
5.58661e-06
3.93178e-06
2.5536e-06
1.43787e-06
5.89566e-07
1.08476e-07
7.78855e-10
7.87377e-10
1.32141e-07
9.62293e-07
3.14997e-06
6.92855e-06
1.19293e-05
1.74243e-05
2.26567e-05
2.70605e-05
3.03292e-05
3.23153e-05
3.30877e-05
3.29056e-05
3.18492e-05
3.01201e-05
2.79194e-05
2.54378e-05
2.28487e-05
2.03037e-05
1.79059e-05
1.57943e-05
1.40253e-05
1.26368e-05
1.16968e-05
1.10284e-05
1.06766e-05
1.06068e-05
1.077e-05
1.11162e-05
1.15991e-05
1.21788e-05
1.28238e-05
1.35117e-05
1.42287e-05
1.49685e-05
1.573e-05
1.65151e-05
1.73267e-05
1.81655e-05
1.90316e-05
1.99224e-05
2.08326e-05
2.1754e-05
2.26755e-05
2.3583e-05
2.44604e-05
2.52895e-05
2.60514e-05
2.67269e-05
2.72977e-05
2.77471e-05
2.80606e-05
2.82255e-05
2.82323e-05
2.8072e-05
2.77364e-05
2.72148e-05
2.64963e-05
2.55326e-05
2.43599e-05
2.29904e-05
2.13696e-05
1.95704e-05
1.7498e-05
1.51482e-05
1.26961e-05