/*--------------------------------*- C++ -*----------------------------------*\
  =========                 |
  \\      /  F ield         | OpenFOAM: The Open Source CFD Toolbox
   \\    /   O peration     | Website:  https://openfoam.org
    \\  /    A nd           | Version:  12
     \\/     M anipulation  |
\*---------------------------------------------------------------------------*/
FoamFile
{
    format      ascii;
    class       volScalarField;
    location    "1";
    object      p;
}
// * * * * * * * * * * * * * * * * * * * * * * * * * * * * * * * * * * * * * //

dimensions      [0 2 -2 0 0 0 0];

internalField   nonuniform List<scalar> 
5625
(
1.10697e-07
3.71083e-06
-1.86981e-05
-7.07471e-05
-0.000151019
-0.000257392
-0.00038674
-0.000536119
-0.000703233
-0.000886467
-0.00108488
-0.00129812
-0.00152635
-0.00177011
-0.00203021
-0.00230764
-0.00260346
-0.00291874
-0.00325454
-0.00361187
-0.00399172
-0.004395
-0.00482261
-0.00527543
-0.00575431
-0.0062601
-0.0067936
-0.00735551
-0.00794634
-0.00856624
-0.00921485
-0.00989097
-0.0105923
-0.0113149
-0.0120529
-0.0127979
-0.0135385
-0.0142596
-0.0149417
-0.0155609
-0.0160881
-0.0164886
-0.0167226
-0.0167452
-0.0165074
-0.0159569
-0.0150403
-0.0137054
-0.0119042
-0.00959634
-0.00675295
-0.00336042
0.000563703
0.00498455
0.00985927
0.0150917
0.0205431
0.0260725
0.0315082
0.0366675
0.0413687
0.0454471
0.0487709
0.051256
0.0528766
0.0536695
0.0537304
0.0532029
0.0522615
0.0510928
0.0498778
0.0487806
0.0479395
0.0474718
0.0473812
-1.24013e-05
-1.06988e-05
-3.43189e-05
-8.59704e-05
-0.000164141
-0.000267282
-0.000392913
-0.000538574
-0.000702248
-0.00088244
-0.00107822
-0.0012892
-0.00151543
-0.00175734
-0.0020156
-0.00229105
-0.00258459
-0.00289718
-0.00322974
-0.00358315
-0.00395826
-0.00435588
-0.00477677
-0.00522169
-0.00569138
-0.00618656
-0.00670789
-0.00725595
-0.0078311
-0.0084334
-0.00906235
-0.0097167
-0.0103941
-0.0110906
-0.0118006
-0.0125157
-0.013225
-0.0139138
-0.0145635
-0.0151508
-0.0156477
-0.0160209
-0.0162318
-0.0162372
-0.0159896
-0.0154383
-0.0145316
-0.0132187
-0.0114528
-0.00919464
-0.00641567
-0.00310199
0.000725804
0.00503915
0.00980506
0.0149099
0.0202327
0.0256354
0.0309513
0.0360033
0.0406158
0.0446297
0.0479176
0.0503986
0.052048
0.0529016
0.0530512
0.0526345
0.0518182
0.0507796
0.049689
0.0487002
0.0479391
0.0475138
0.0474318
-2.55286e-05
-2.29039e-05
-4.67713e-05
-9.81364e-05
-0.000174373
-0.000274356
-0.000396221
-0.000538001
-0.000697989
-0.000874842
-0.00106766
-0.00127602
-0.00149988
-0.00173954
-0.00199553
-0.00226853
-0.0025593
-0.00286863
-0.00319728
-0.00354601
-0.0039155
-0.00430643
-0.00471942
-0.0051551
-0.00561404
-0.00609684
-0.00660403
-0.00713604
-0.00769313
-0.00827524
-0.00888181
-0.00951154
-0.0101621
-0.0108298
-0.011509
-0.012192
-0.0128682
-0.0135235
-0.0141404
-0.0146966
-0.0151654
-0.0155148
-0.0157078
-0.0157029
-0.0154541
-0.0149123
-0.0140273
-0.0127494
-0.0110326
-0.008838
-0.00613709
-0.00291547
0.000804705
0.00501021
0.00965876
0.0146327
0.0198309
0.0251136
0.0303192
0.0352757
0.0398121
0.0437733
0.0470353
0.049519
0.0512004
0.0521139
0.0523484
0.0520368
0.051339
0.0504242
0.0494535
0.0485688
0.0478839
0.047498
0.0474214
-3.34832e-05
-2.8338e-05
-5.13571e-05
-0.000102306
-0.00017718
-0.000274846
-0.000393793
-0.000532426
-0.000689297
-0.00086321
-0.00105331
-0.00125916
-0.00148067
-0.00171802
-0.00197164
-0.00224208
-0.00252996
-0.00283593
-0.00316062
-0.00350462
-0.00386852
-0.00425282
-0.00465803
-0.00508463
-0.00553309
-0.00600386
-0.00649737
-0.00701396
-0.00755381
-0.00811683
-0.00870247
-0.0093095
-0.00993574
-0.0105777
-0.0112303
-0.0118861
-0.0125352
-0.0131646
-0.0137576
-0.014293
-0.0147454
-0.0150843
-0.0152741
-0.0152744
-0.0150405
-0.0145244
-0.0136763
-0.0124471
-0.0107906
-0.00866732
-0.00604786
-0.00291728
0.000709002
0.00482202
0.00936542
0.0142435
0.0193525
0.0245549
0.0296925
0.034596
0.039096
0.0430386
0.0462997
0.0488002
0.0505148
0.0514768
0.0517735
0.0515355
0.0509196
0.0500902
0.0492024
0.0483897
0.0477565
0.0473949
0.0473147
-3.34364e-05
-2.64856e-05
-4.85616e-05
-9.91642e-05
-0.000173148
-0.000269166
-0.000385881
-0.000521967
-0.00067619
-0.000847486
-0.00103507
-0.0012385
-0.00145764
-0.00169263
-0.00194378
-0.00221154
-0.00249642
-0.00279892
-0.00311956
-0.00345879
-0.00381705
-0.00419474
-0.00459221
-0.00500984
-0.00544798
-0.00590698
-0.00638719
-0.00688888
-0.00741223
-0.00795718
-0.00852326
-0.00910944
-0.0097138
-0.0103333
-0.0109632
-0.011597
-0.0122256
-0.0128369
-0.0134152
-0.013941
-0.0143898
-0.0147325
-0.0149347
-0.014957
-0.0147555
-0.0142826
-0.0134886
-0.0123236
-0.0107406
-0.0086986
-0.00616638
-0.00312698
0.000411594
0.00443635
0.00889394
0.0136988
0.018746
0.0239001
0.0290051
0.0338921
0.0383915
0.0423477
0.0456346
0.0481703
0.0499271
0.0509362
0.051284
0.0511
0.0505405
0.049768
0.0489342
0.0481672
0.0475645
0.0472114
0.0471154
-2.49957e-05
-1.71986e-05
-3.88591e-05
-8.9412e-05
-0.000162934
-0.000257823
-0.000372826
-0.000506815
-0.000658736
-0.000827653
-0.00101285
-0.0012139
-0.00143067
-0.00166322
-0.0019118
-0.00217677
-0.00245852
-0.00275743
-0.0030739
-0.00340825
-0.0037608
-0.00413181
-0.00452152
-0.00493019
-0.00535807
-0.00580543
-0.00627258
-0.00675978
-0.00726723
-0.007795
-0.0083428
-0.0089099
-0.00949479
-0.010095
-0.0107065
-0.0113236
-0.0119383
-0.0125397
-0.0131134
-0.0136411
-0.0140998
-0.0144615
-0.0146928
-0.0147551
-0.0146046
-0.0141937
-0.0134718
-0.012388
-0.0108934
-0.00894481
-0.00650835
-0.00356423
-0.000114591
0.00382612
0.00820949
0.0129555
0.0179601
0.0230899
0.0281897
0.0330901
0.0376198
0.0416198
0.04496
0.0475535
0.0493688
0.0504337
0.0508329
0.0506958
0.050179
0.0494456
0.0486461
0.0479052
0.0473157
0.0469565
0.0468324
-7.84922e-06
-3.45606e-07
-2.23449e-05
-7.32791e-05
-0.000146778
-0.000241011
-0.000354756
-0.000487039
-0.000636961
-0.000803707
-0.000986639
-0.00118537
-0.00139974
-0.00162981
-0.00187574
-0.00213782
-0.00241633
-0.00271155
-0.00302376
-0.00335316
-0.00369993
-0.00406423
-0.00444619
-0.00484595
-0.0052637
-0.00569965
-0.0061541
-0.00662736
-0.00711973
-0.00763146
-0.00816259
-0.00871279
-0.00928114
-0.00986585
-0.0104639
-0.0110707
-0.0116793
-0.0122803
-0.0128606
-0.0134035
-0.0138871
-0.0142846
-0.0145634
-0.0146849
-0.0146055
-0.0142764
-0.0136459
-0.012661
-0.0112705
-0.00942821
-0.00709721
-0.0042543
-0.000896607
0.00296247
0.00727859
0.0119763
0.0169534
0.0220784
0.0271963
0.032137
0.036726
0.0407999
0.0442225
0.0469007
0.0487964
0.0499329
0.050392
0.0503027
0.0498229
0.0491173
0.0483373
0.0476067
0.0470156
0.0466368
0.0464733
1.81799e-05
2.41599e-05
9.55069e-07
-5.08772e-05
-0.00012481
-0.000218837
-0.000331745
-0.000462681
-0.000610885
-0.000775659
-0.000956449
-0.00115291
-0.0013649
-0.00159245
-0.00183568
-0.00209479
-0.00236999
-0.00266145
-0.00296933
-0.00329374
-0.00363473
-0.00399234
-0.00436662
-0.00475762
-0.00516547
-0.0055904
-0.0060327
-0.00649279
-0.00697118
-0.0074684
-0.00798493
-0.008521
-0.00907644
-0.00965039
-0.0102409
-0.0108448
-0.0114564
-0.0120679
-0.0126679
-0.0132408
-0.0137662
-0.014218
-0.0145639
-0.0147654
-0.0147779
-0.0145513
-0.0140317
-0.0131638
-0.0118931
-0.0101703
-0.00795489
-0.00521999
-0.00195807
0.00181969
0.00607279
0.01073
0.0156917
0.0208281
0.0259847
0.0309899
0.035666
0.0398439
0.04338
0.0461727
0.0481756
0.0494053
0.0499392
0.0499052
0.0494625
0.0487785
0.0480073
0.047274
0.0466682
0.0462578
0.0460453
5.30193e-05
5.62562e-05
3.09527e-05
-2.23402e-05
-9.71729e-05
-0.000191422
-0.000303885
-0.000433807
-0.000580555
-0.000743546
-0.000922316
-0.00111657
-0.0013262
-0.00155121
-0.00179169
-0.00204779
-0.00231962
-0.00260728
-0.00291081
-0.00323021
-0.00356544
-0.00391645
-0.00428319
-0.00466566
-0.00506397
-0.00547838
-0.00590927
-0.00635722
-0.00682304
-0.00730767
-0.00781214
-0.00833743
-0.00888431
-0.00945306
-0.0100431
-0.0106526
-0.0112777
-0.0119122
-0.0125461
-0.0131655
-0.0137508
-0.0142765
-0.0147104
-0.0150133
-0.015139
-0.0150355
-0.0146464
-0.013913
-0.0127776
-0.0111873
-0.0090978
-0.00647836
-0.00331708
0.000377768
0.00456953
0.00919131
0.0141464
0.0193071
0.0245197
0.0296115
0.0344009
0.0387126
0.0423942
0.0453339
0.0474749
0.0488244
0.0494538
0.0494884
0.0490882
0.0484243
0.0476549
0.0469085
0.0462768
0.045824
0.0455547
9.64985e-05
9.57965e-05
6.7493e-05
1.21472e-05
-6.40509e-05
-0.000158926
-0.000271304
-0.000400518
-0.000546052
-0.000707439
-0.000884306
-0.00107643
-0.00128372
-0.00150618
-0.0017439
-0.00199695
-0.00226539
-0.00254921
-0.00284838
-0.00316281
-0.00349235
-0.00383687
-0.00419627
-0.00457053
-0.00495977
-0.00536432
-0.00578471
-0.0062218
-0.00667676
-0.00715109
-0.00764654
-0.00816502
-0.00870841
-0.00927836
-0.00987584
-0.0105007
-0.0111509
-0.011822
-0.0125056
-0.0131889
-0.0138533
-0.0144734
-0.0150166
-0.0154422
-0.0157023
-0.0157421
-0.0155021
-0.0149201
-0.0139349
-0.0124897
-0.0105364
-0.00804052
-0.00498589
-0.0013775
0.00275211
0.00734035
0.0122941
0.0174887
0.0227715
0.0279688
0.0328958
0.0373704
0.0412303
0.0443516
0.0466648
0.0481654
0.0489161
0.0490376
0.0486905
0.0480493
0.0472782
0.0465108
0.045844
0.0453393
0.0450071
0.000148292
0.00014253
0.000110358
5.23708e-05
-2.56435e-05
-0.00012153
-0.000234156
-0.000362944
-0.000507489
-0.000667439
-0.000842521
-0.00103258
-0.00123757
-0.00145751
-0.00169245
-0.00194243
-0.00220746
-0.00248745
-0.00278228
-0.00309178
-0.00341573
-0.00375394
-0.00410627
-0.00447271
-0.00485344
-0.00524893
-0.00565994
-0.00608766
-0.0065338
-0.00700053
-0.00749048
-0.00800668
-0.00855237
-0.00913074
-0.00974454
-0.0103955
-0.0110835
-0.0118058
-0.0125556
-0.0133212
-0.0140845
-0.0148198
-0.0154933
-0.0160628
-0.0164775
-0.0166797
-0.0166063
-0.0161916
-0.0153705
-0.0140824
-0.0122757
-0.00991195
-0.00697114
-0.00345465
0.000609357
0.00516298
0.0101174
0.0153515
0.020715
0.026034
0.0311205
0.0357855
0.0398563
0.0431953
0.0457177
0.0474045
0.0483068
0.0485387
0.0482596
0.0476479
0.0468746
0.046081
0.0453713
0.0448068
0.0444065
0.000208028
0.000196152
0.000159278
9.80842e-05
1.78138e-05
-7.94468e-05
-0.00019263
-0.00032125
-0.000465016
-0.000623691
-0.000797103
-0.000985175
-0.00118791
-0.00140533
-0.00163751
-0.00188443
-0.00214604
-0.00242221
-0.00271274
-0.00301739
-0.00333589
-0.003668
-0.00401358
-0.00437268
-0.00474557
-0.00513295
-0.00553586
-0.00595597
-0.00639562
-0.00685782
-0.00734627
-0.0078653
-0.00841972
-0.0090145
-0.00965433
-0.010343
-0.0110823
-0.0118712
-0.0127045
-0.0135712
-0.0144531
-0.015324
-0.0161484
-0.0168817
-0.01747
-0.0178523
-0.0179617
-0.0177286
-0.0170844
-0.0159649
-0.014315
-0.0120927
-0.00927404
-0.00585675
-0.00186431
0.00265057
0.00760405
0.0128799
0.0183308
0.023784
0.0290488
0.0339298
0.0382434
0.0418366
0.0446073
0.0465187
0.0476073
0.0479775
0.0477858
0.0472141
0.0464412
0.0456185
0.0448596
0.0442286
0.0437556
0.000275233
0.000256279
0.000213928
0.000148997
6.60528e-05
-3.29191e-05
-0.000146945
-0.00027564
-0.000418824
-0.000576377
-0.000748235
-0.000934401
-0.00113493
-0.00134988
-0.00157929
-0.00182317
-0.00208139
-0.00235376
-0.00264005
-0.00293995
-0.00325315
-0.00357942
-0.00391864
-0.00427093
-0.00463677
-0.00501711
-0.00541339
-0.00582786
-0.00626364
-0.00672474
-0.00721612
-0.00774362
-0.0083138
-0.00893362
-0.00960987
-0.0103484
-0.0111532
-0.0120247
-0.0129589
-0.0139453
-0.0149653
-0.0159914
-0.0169861
-0.0179016
-0.018681
-0.0192593
-0.0195657
-0.0195273
-0.0190717
-0.0181316
-0.0166487
-0.0145775
-0.0118904
-0.00858132
-0.00466877
-0.000199662
0.00474801
0.0100637
0.0156049
0.0212006
0.0266591
0.031779
0.0363654
0.0402492
0.0433085
0.0454858
0.0467988
0.0473395
0.0472589
0.0467415
0.0459747
0.0451218
0.044309
0.0436064
0.0430562
0.000349419
0.000322495
0.000273943
0.00020477
0.000118762
1.77668e-05
-9.73645e-05
-0.000226356
-0.000369143
-0.000525725
-0.000696143
-0.000880488
-0.00107887
-0.00129137
-0.00151807
-0.00175891
-0.00201376
-0.00228239
-0.0025645
-0.00285977
-0.00316787
-0.00348858
-0.00382186
-0.00416796
-0.00452763
-0.00490212
-0.0052934
-0.00570441
-0.00613922
-0.00660298
-0.00710211
-0.00764416
-0.00823764
-0.00889165
-0.00961523
-0.0104164
-0.011301
-0.0122712
-0.0133236
-0.0144478
-0.0156245
-0.0168243
-0.0180069
-0.0191215
-0.0201073
-0.0208954
-0.0214116
-0.0215791
-0.0213227
-0.0205721
-0.0192662
-0.017356
-0.0148107
-0.0116202
-0.0077979
-0.00338429
0.00154948
0.00689956
0.0125294
0.0182718
0.023935
0.0293128
0.0341993
0.0384088
0.0417973
0.0442834
0.0458626
0.0466099
0.0466681
0.0462229
0.0454709
0.0445894
0.0437192
0.0429409
0.042309
0.000430023
0.000394309
0.000338901
0.000265019
0.000175591
7.22878e-05
-4.41905e-05
-0.000173686
-0.000316253
-0.000472006
-0.0006411
-0.000823711
-0.00102001
-0.00123012
-0.00145412
-0.00169197
-0.00194348
-0.00220841
-0.00248644
-0.00277721
-0.00308041
-0.00339588
-0.00372368
-0.00406427
-0.0044187
-0.00478864
-0.00517669
-0.00558662
-0.00602357
-0.00649405
-0.00700609
-0.00756913
-0.00819384
-0.00889158
-0.0096737
-0.0105504
-0.0115293
-0.0126139
-0.0138013
-0.0150806
-0.0164313
-0.0178214
-0.019208
-0.0205362
-0.0217416
-0.0227515
-0.0234879
-0.0238712
-0.0238233
-0.0232714
-0.0221521
-0.0204129
-0.0180197
-0.0149593
-0.0112394
-0.00689325
-0.00198434
0.00339102
0.00910373
0.014992
0.020866
0.0265159
0.0317261
0.0362935
0.0400509
0.0428899
0.0447793
0.0457732
0.0460021
0.0456511
0.0449257
0.044019
0.0430896
0.0422325
0.0415139
0.000516463
0.000471213
0.000408338
0.000329317
0.000236141
0.00013027
1.22243e-05
-0.000117967
-0.000260477
-0.000415543
-0.000583425
-0.000764392
-0.000958672
-0.00116644
-0.00138779
-0.00162267
-0.00187089
-0.00213218
-0.0024062
-0.00269262
-0.00299115
-0.0033017
-0.00362453
-0.00396032
-0.00431053
-0.00467732
-0.00506402
-0.0054754
-0.00591781
-0.00639927
-0.00692963
-0.00752039
-0.0081845
-0.0089357
-0.00978767
-0.0107527
-0.0118401
-0.0130543
-0.0143924
-0.0158429
-0.0173831
-0.0189786
-0.0205826
-0.0221369
-0.0235728
-0.0248141
-0.0257796
-0.0263867
-0.0265551
-0.0262102
-0.0252864
-0.0237276
-0.0214973
-0.01858
-0.014975
-0.0107094
-0.00583875
-0.000450572
0.00533491
0.0113633
0.0174485
0.0233792
0.0289313
0.033885
0.0380486
0.0412842
0.0435298
0.0448133
0.0452489
0.0450178
0.0443342
0.0434082
0.0424196
0.0414803
0.0406705
0.000608101
0.000552626
0.00048173
0.000397183
0.000299969
0.000191294
7.14815e-05
-5.95824e-05
-0.000202193
-0.000356704
-0.000523487
-0.0007029
-0.000895229
-0.00110071
-0.00131945
-0.0015514
-0.00179637
-0.00205407
-0.00232418
-0.00260638
-0.00290046
-0.00320646
-0.00352482
-0.00385657
-0.0042036
-0.0045687
-0.00495604
-0.0053715
-0.00582282
-0.00631971
-0.00687396
-0.00749931
-0.0082111
-0.0090255
-0.00995851
-0.0110244
-0.0122338
-0.0135918
-0.0150953
-0.0167313
-0.0184748
-0.0202882
-0.0221212
-0.0239115
-0.0255866
-0.0270667
-0.0282679
-0.029105
-0.029496
-0.0293648
-0.0286439
-0.0272743
-0.0252182
-0.0224572
-0.0189803
-0.0148081
-0.00999119
-0.00460571
0.00123838
0.00739588
0.0136867
0.0199005
0.0258063
0.0311691
0.0357725
0.0394467
0.0420951
0.0437139
0.0443958
0.0443144
0.0436911
0.0427545
0.041708
0.0406835
0.0397785
0.000704287
0.000637941
0.000558515
0.000468093
0.000366575
0.000254887
0.000133126
1.02722e-06
-0.000141829
-0.000295914
-0.000461706
-0.000639651
-0.000830098
-0.00103334
-0.00124951
-0.00147857
-0.00172032
-0.00197449
-0.00224077
-0.00251889
-0.00280874
-0.00311053
-0.00342495
-0.00375341
-0.00409836
-0.00446326
-0.00485327
-0.00527553
-0.00573931
-0.00625613
-0.00683992
-0.00750676
-0.00827445
-0.00916162
-0.0101865
-0.0113651
-0.0127092
-0.0142242
-0.015906
-0.01774
-0.0196984
-0.0217402
-0.0238111
-0.0258448
-0.0277653
-0.0294896
-0.0309309
-0.0320025
-0.0326204
-0.0327071
-0.0321914
-0.0310198
-0.0291504
-0.0265544
-0.0232179
-0.0191565
-0.0144114
-0.00904672
-0.0031618
0.00310885
0.00959357
0.0160854
0.0223494
0.0281372
0.0332086
0.0373602
0.040457
0.0424585
0.0434297
0.0435319
0.0429911
0.042055
0.0409537
0.0398416
0.0388371
0.000804307
0.000726491
0.000638073
0.000541463
0.000435409
0.000320523
0.000196651
6.33677e-05
-7.98711e-05
-0.000233651
-0.000398556
-0.000575115
-0.000763742
-0.000964792
-0.00117844
-0.00140463
-0.00164318
-0.00189385
-0.00215638
-0.00243055
-0.00271638
-0.00301429
-0.00332528
-0.00365123
-0.00399516
-0.00436137
-0.00475611
-0.00518792
-0.00566771
-0.00620899
-0.00682793
-0.00754305
-0.00837464
-0.00934377
-0.0104707
-0.0117731
-0.0132635
-0.0149469
-0.0168184
-0.0188608
-0.0210435
-0.0233216
-0.0256369
-0.0279192
-0.030089
-0.0320604
-0.0337444
-0.0350525
-0.0358998
-0.0362065
-0.0359034
-0.0349384
-0.0332607
-0.0308351
-0.0276519
-0.0237188
-0.0190624
-0.013738
-0.00783315
-0.00146992
0.00519074
0.0119482
0.0185668
0.0247875
0.0303478
0.0350105
0.0385993
0.0410313
0.0423374
0.0426606
0.0422283
0.0413068
0.0401554
0.0389541
0.037846
0.000907426
0.000817579
0.000719741
0.000616661
0.000505866
0.000387617
0.000261487
0.000126885
-1.68613e-05
-0.000170448
-0.000334561
-0.000509808
-0.000696672
-0.000895573
-0.00110671
-0.00133004
-0.00156541
-0.00181262
-0.00207143
-0.00234176
-0.00262375
-0.0029181
-0.00322614
-0.00355031
-0.00389429
-0.00426331
-0.00466481
-0.00510887
-0.00560818
-0.00617836
-0.00683791
-0.00760785
-0.00851098
-0.00957068
-0.0108092
-0.0122453
-0.0138921
-0.015754
-0.0178245
-0.0200837
-0.0224976
-0.0250175
-0.0275813
-0.0301149
-0.0325355
-0.0347547
-0.0366816
-0.0382266
-0.0393041
-0.0398346
-0.0397498
-0.0389907
-0.0375069
-0.0352632
-0.0322446
-0.0284511
-0.0239004
-0.0186371
-0.0127354
-0.00630407
0.000508892
0.00751225
0.0144732
0.0211255
0.027187
0.0323878
0.036508
0.0394175
0.0411058
0.041691
0.0413969
0.0405071
0.0393121
0.0380207
0.0368052
0.00101285
0.000910443
0.000802792
0.000692996
0.000577281
0.000455525
0.00032701
0.000190966
4.65985e-05
-0.000106896
-0.000270303
-0.0004443
-0.000629446
-0.000826226
-0.00103486
-0.00125533
-0.00148751
-0.00173124
-0.00198637
-0.00225291
-0.00253122
-0.00282227
-0.00312782
-0.00345089
-0.00379593
-0.00416918
-0.00457943
-0.00503836
-0.00556058
-0.00616392
-0.00686929
-0.00770023
-0.00868199
-0.00984016
-0.0111986
-0.0127773
-0.0145892
-0.0166377
-0.0189144
-0.0213964
-0.0240462
-0.0268111
-0.029625
-0.0324102
-0.035081
-0.0375464
-0.0397144
-0.0414943
-0.0428002
-0.0435531
-0.0436838
-0.0431319
-0.0418468
-0.0397922
-0.0369472
-0.0333054
-0.0288769
-0.0236953
-0.0178216
-0.0113497
-0.004413
0.00280962
0.0100919
0.0171648
0.0237304
0.0294878
0.0341729
0.0376042
0.0397227
0.0406136
0.0404909
0.0396531
0.0384232
0.0370414
0.0357153
0.00111975
0.00100428
0.000886456
0.000769721
0.00064893
0.000523542
0.000392527
0.000254934
0.000109846
-4.36458e-05
-0.000206416
-0.00037921
-0.000562669
-0.000757333
-0.000963451
-0.00118102
-0.00140997
-0.00165019
-0.00190161
-0.0021644
-0.00243913
-0.00272709
-0.00303052
-0.00335313
-0.00370016
-0.00407899
-0.00449984
-0.00497612
-0.00552446
-0.00616496
-0.00692099
-0.00781859
-0.00888541
-0.010149
-0.0116349
-0.0133634
-0.0153473
-0.0175887
-0.0200768
-0.0227855
-0.0256735
-0.0286842
-0.0317475
-0.0347824
-0.0377004
-0.0404085
-0.0428134
-0.044824
-0.0463543
-0.0473257
-0.0476687
-0.047323
-0.046238
-0.0443756
-0.0417106
-0.0382311
-0.03394
-0.0288602
-0.0230395
-0.0165565
-0.00952865
-0.0021195
0.00545504
0.0129278
0.0199897
0.0263125
0.0315884
0.0355813
0.0381772
0.0394195
0.0395049
0.0387425
0.0374884
0.0360174
0.0345773
0.00122725
0.00109824
0.000969896
0.000846027
0.000720025
0.000590899
0.000457287
0.000318051
0.000172156
1.85961e-05
-0.000143591
-0.000315207
-0.00049699
-0.00068952
-0.000893077
-0.00110769
-0.00133333
-0.00156995
-0.00181761
-0.0020766
-0.00234778
-0.0026328
-0.00293443
-0.00325708
-0.00360693
-0.00399255
-0.00442571
-0.00492163
-0.00549902
-0.00618033
-0.0069914
-0.00796072
-0.00911821
-0.0104933
-0.0121125
-0.0139968
-0.0161579
-0.0185966
-0.021299
-0.0242361
-0.0273624
-0.0306174
-0.0339273
-0.0372079
-0.0403681
-0.0433132
-0.0459489
-0.0481839
-0.0499324
-0.0511164
-0.0516668
-0.0515238
-0.0506371
-0.0489672
-0.046486
-0.0431769
-0.039036
-0.0340765
-0.0283334
-0.0218699
-0.0147859
-0.0072279
0.000602578
0.0084451
0.0159848
0.0228709
0.0287542
0.0333424
0.0364601
0.0381005
0.0384335
0.0377732
0.0365082
0.0349505
0.0333926
0.00133442
0.00119139
0.00105222
0.000921045
0.000789717
0.000656762
0.00052047
0.000379514
0.000232745
7.90633e-05
-8.25689e-05
-0.000253011
-0.000433099
-0.000623446
-0.000824361
-0.0010359
-0.00125811
-0.00149101
-0.00173477
-0.00198987
-0.00225745
-0.00253958
-0.00283961
-0.00316272
-0.00351606
-0.00390953
-0.0043565
-0.00487408
-0.00548315
-0.00620849
-0.00707841
-0.0081238
-0.00937666
-0.0108681
-0.0126255
-0.0146696
-0.0170116
-0.0196497
-0.0225676
-0.0257324
-0.029095
-0.0325908
-0.0361425
-0.0396628
-0.0430582
-0.0462327
-0.0490912
-0.0515423
-0.0535008
-0.0548895
-0.0556402
-0.055694
-0.0550011
-0.0535215
-0.0512252
-0.0480917
-0.0441114
-0.0392886
-0.0336462
-0.0272322
-0.0201287
-0.0124628
-0.00441868
0.0037549
0.0117434
0.0191793
0.0256762
0.0308855
0.0345655
0.03665
0.0372724
0.036744
0.0354835
0.0338431
0.0321639
0.00144027
0.00128278
0.00113248
0.000993838
0.000857088
0.000720231
0.000581193
0.000438456
0.000290765
0.000136932
-2.41464e-05
-0.000193389
-0.000371727
-0.000559803
-0.000757951
-0.000966273
-0.00118487
-0.00141385
-0.0016535
-0.00190453
-0.00216838
-0.00244757
-0.00274607
-0.0030699
-0.00342727
-0.00382943
-0.00429147
-0.00483243
-0.00547538
-0.00624749
-0.00717945
-0.00830444
-0.00965639
-0.0112678
-0.0131666
-0.0153734
-0.0178977
-0.0207357
-0.023868
-0.0272581
-0.0308529
-0.0345841
-0.0383709
-0.0421231
-0.0457452
-0.0491398
-0.0522114
-0.0548686
-0.0570271
-0.0586107
-0.0595525
-0.0597949
-0.0592891
-0.0579954
-0.0558824
-0.052927
-0.0491148
-0.0444423
-0.0389213
-0.0325854
-0.0254986
-0.0177677
-0.00955659
-0.00109771
0.00730086
0.0152618
0.0223669
0.0282137
0.0324902
0.0350631
0.0360181
0.035654
0.0344162
0.0326984
0.0308954
0.00154376
0.00137136
0.00120965
0.00106341
0.000921154
0.000780336
0.000638501
0.000493944
0.000345306
0.00019132
3.08301e-05
-0.000137151
-0.000313639
-0.000499314
-0.000694514
-0.000899405
-0.00111414
-0.00133893
-0.0015742
-0.00182087
-0.00208075
-0.00235681
-0.00265372
-0.00297837
-0.00334009
-0.00375157
-0.00422965
-0.00479536
-0.00547398
-0.00629501
-0.00729149
-0.00849874
-0.00995245
-0.0116862
-0.0137284
-0.0160989
-0.0188055
-0.0218419
-0.0251857
-0.0287967
-0.0326179
-0.0365773
-0.0405907
-0.0445655
-0.0484041
-0.0520082
-0.0552816
-0.0581336
-0.0604805
-0.0622478
-0.0633699
-0.0637909
-0.0634636
-0.0623489
-0.0604152
-0.0576376
-0.0539978
-0.0494861
-0.0441045
-0.0378727
-0.0308373
-0.0230845
-0.0147554
-0.0060624
0.0026992
0.0111496
0.018846
0.0253359
0.0302357
0.0333377
0.0346687
0.0345037
0.0333092
0.0315208
0.029592
0.0016438
0.00145604
0.00128264
0.00112868
0.000980857
0.000836036
0.000691374
0.000544979
0.000395398
0.000241293
8.14641e-05
-8.5152e-05
-0.000259642
-0.000442725
-0.000634739
-0.000835917
-0.00104648
-0.00126671
-0.00149721
-0.00173915
-0.00199467
-0.0022673
-0.0025624
-0.00288778
-0.00325395
-0.00367511
-0.00416989
-0.00476131
-0.00547688
-0.00634839
-0.00741112
-0.00870237
-0.0102594
-0.0121167
-0.0143027
-0.0168363
-0.0197234
-0.0229551
-0.0265057
-0.0303315
-0.0343716
-0.0385505
-0.0427809
-0.0469675
-0.0510114
-0.0548129
-0.0582759
-0.06131
-0.0638329
-0.0657712
-0.0670615
-0.0676498
-0.0674905
-0.0665462
-0.0647856
-0.0621828
-0.058717
-0.0543733
-0.0491452
-0.0430402
-0.0360884
-0.0283551
-0.0199578
-0.0110851
-0.0020142
0.00688055
0.0151397
0.022267
0.0278077
0.0314744
0.0332239
0.0332947
0.0321662
0.0303157
0.0282603
0.00173922
0.00153566
0.00135031
0.00118851
0.00103507
0.000886221
0.000738721
0.000590497
0.00044001
0.000285859
0.000126813
-3.82818e-05
-0.000210569
-0.000390802
-0.000579322
-0.000776426
-0.000982393
-0.00119762
-0.00142287
-0.00165955
-0.00191023
-0.00217894
-0.00247182
-0.00279764
-0.00316813
-0.00359905
-0.00411082
-0.00472851
-0.00548177
-0.00640467
-0.00753458
-0.00891066
-0.0105715
-0.0125522
-0.014881
-0.0175758
-0.0206399
-0.024062
-0.0278132
-0.0318463
-0.0360964
-0.0404848
-0.0449211
-0.0493079
-0.0535446
-0.0575308
-0.0611702
-0.0643732
-0.0670585
-0.0691547
-0.0706001
-0.0713432
-0.0713405
-0.0705564
-0.0689606
-0.0665274
-0.0632342
-0.0590622
-0.0539981
-0.0480387
-0.0411988
-0.0335236
-0.0251065
-0.01611
-0.00678799
0.00249789
0.0112806
0.0190284
0.0252171
0.0294774
0.0316857
0.0320299
0.0309926
0.02909
0.026908
0.00182878
0.00160898
0.00141141
0.00124169
0.00108259
0.000929704
0.00077938
0.000629369
0.000478052
0.000323976
0.000165886
2.53157e-06
-0.000167283
-0.000344331
-0.000528967
-0.000721548
-0.000922413
-0.00113207
-0.00135145
-0.00158224
-0.00182741
-0.00209156
-0.00238162
-0.00270736
-0.00308179
-0.00352223
-0.00405093
-0.00469496
-0.00548614
-0.00646065
-0.00765789
-0.00911865
-0.0108826
-0.0129854
-0.0154547
-0.0183074
-0.0215436
-0.0251496
-0.0290939
-0.0333252
-0.0377754
-0.0423621
-0.0469924
-0.0515669
-0.0559833
-0.0601407
-0.063943
-0.067301
-0.070135
-0.0723752
-0.0739624
-0.0748471
-0.0749886
-0.0743533
-0.0729128
-0.0706418
-0.0675172
-0.0635175
-0.058624
-0.0528246
-0.0461203
-0.0385377
-0.0301462
-0.021081
-0.0115685
-0.0019507
0.00730709
0.0156471
0.0224803
0.0273549
0.0300587
0.0307141
0.0297948
0.0278521
0.0255445
0.0019112
0.00167469
0.00146465
0.0012869
0.00112213
0.000965223
0.000812118
0.000660398
0.000508375
0.000354553
0.000197656
3.63269e-05
-0.000130667
-0.00030411
-0.000484379
-0.000671885
-0.00086703
-0.00107043
-0.0012832
-0.00150731
-0.00174614
-0.00200491
-0.00229136
-0.00261627
-0.00299396
-0.00344336
-0.00398854
-0.00465854
-0.00548726
-0.00651295
-0.00777684
-0.0093212
-0.0111867
-0.0134089
-0.0160153
-0.0190211
-0.0224232
-0.0262054
-0.0303337
-0.0347534
-0.0393925
-0.0441656
-0.0489774
-0.0537262
-0.0583089
-0.0626238
-0.066575
-0.0700742
-0.0730429
-0.0754134
-0.0771286
-0.0781418
-0.0784147
-0.0779162
-0.07662
-0.0745022
-0.0715399
-0.0677101
-0.0629901
-0.0573604
-0.0508106
-0.0433501
-0.0350254
-0.0259438
-0.0163015
-0.00641469
0.00326212
0.0121561
0.0196188
0.0251191
0.0283503
0.029354
0.0285812
0.0266119
0.0241808
0.0019851
0.00173139
0.00150862
0.00132278
0.00115233
0.000991438
0.000835627
0.00068232
0.000529768
0.000376446
0.000221051
6.21144e-05
-0.000101623
-0.000270947
-0.000446262
-0.000628029
-0.000816712
-0.00101304
-0.00121831
-0.00143478
-0.00166629
-0.00191866
-0.00220047
-0.00252356
-0.00290357
-0.00336104
-0.00392185
-0.00461696
-0.00548231
-0.00655806
-0.00788715
-0.00951312
-0.0114773
-0.0138154
-0.0165541
-0.0197074
-0.0232678
-0.0272173
-0.0315197
-0.0361169
-0.040933
-0.04588
-0.05086
-0.0557698
-0.060505
-0.0649637
-0.06905
-0.0726765
-0.0757663
-0.0782535
-0.0800834
-0.0812117
-0.0816031
-0.081229
-0.0800655
-0.0780907
-0.0752825
-0.0716174
-0.0670702
-0.0616157
-0.0552339
-0.0479193
-0.0396971
-0.0306471
-0.0209337
-0.0108422
-0.000807866
0.00859314
0.0166594
0.0227869
0.0265711
0.0279585
0.0273617
0.0253809
0.0228298
0.00204902
0.00177763
0.00154185
0.00134785
0.00117173
0.00100693
0.000848527
0.000693807
0.000540967
0.000388464
0.000234966
7.88816e-05
-8.10659e-05
-0.000245648
-0.000415308
-0.000590549
-0.000771896
-0.000960193
-0.00115692
-0.00136464
-0.00158766
-0.00183241
-0.00210834
-0.00242836
-0.00280946
-0.00327378
-0.00384897
-0.00456788
-0.00546838
-0.00659242
-0.00798449
-0.00968923
-0.0117485
-0.0141978
-0.017063
-0.0203574
-0.0240674
-0.0281738
-0.0326395
-0.0374029
-0.0423836
-0.0474914
-0.0526263
-0.0576834
-0.0625575
-0.0671462
-0.0713541
-0.0750946
-0.0782923
-0.0808831
-0.0828147
-0.0840454
-0.0845425
-0.0842804
-0.0832376
-0.0813946
-0.0787307
-0.0752229
-0.0708445
-0.0655665
-0.0593611
-0.0522102
-0.04412
-0.0351439
-0.0254141
-0.0151814
-0.00485429
0.00500024
0.0136338
0.0203793
0.0247355
0.0265391
0.0261482
0.0241726
0.021506
0.00210143
0.00181183
0.00156277
0.00136055
0.0011788
0.00101018
0.000849356
0.00069346
0.000540648
0.000389372
0.000238258
8.55911e-05
-6.99216e-05
-0.000229021
-0.000392199
-0.000559993
-0.000732987
-0.00091214
-0.00109912
-0.00129681
-0.00150996
-0.00174568
-0.00201427
-0.00232972
-0.0027104
-0.00318002
-0.00376796
-0.0045089
-0.00544253
-0.00661248
-0.0080646
-0.00984447
-0.0119943
-0.0145492
-0.0175341
-0.0209628
-0.0248125
-0.0290642
-0.033682
-0.0385998
-0.0437323
-0.0489877
-0.0542639
-0.0594548
-0.0644543
-0.0691598
-0.0734762
-0.077318
-0.0806109
-0.083293
-0.085314
-0.0866348
-0.0872255
-0.0870631
-0.086129
-0.084406
-0.0818756
-0.0785158
-0.0742995
-0.0691954
-0.0631699
-0.0561946
-0.048259
-0.0393925
-0.0296954
-0.0193822
-0.00882777
0.00142247
0.0105783
0.0179221
0.0228609
0.0251097
0.0249546
0.0230022
0.0202259
0.0021407
0.00183234
0.00156971
0.00135922
0.00117191
0.000999613
0.000836579
0.000679815
0.000527431
0.000377895
0.000229752
8.1185e-05
-6.91213e-05
-0.000221867
-0.000377597
-0.000536877
-0.00070035
-0.000869084
-0.00104494
-0.00123112
-0.00143287
-0.00165793
-0.00191749
-0.00222665
-0.00260511
-0.00307816
-0.00367686
-0.00443763
-0.00540188
-0.00661478
-0.00812338
-0.00997401
-0.012209
-0.014863
-0.0179601
-0.0215166
-0.0254942
-0.0298789
-0.0346369
-0.0396975
-0.0449688
-0.0503585
-0.0557625
-0.0610739
-0.0661857
-0.0709952
-0.0754078
-0.0793388
-0.0827153
-0.085477
-0.087576
-0.0889755
-0.0896482
-0.0895738
-0.0887364
-0.0871215
-0.0847128
-0.0814901
-0.077427
-0.0724908
-0.0666441
-0.0598505
-0.0520856
-0.043357
-0.0337351
-0.0233969
-0.0126792
-0.00209256
0.00753221
0.0154441
0.0209688
0.0236873
0.0237971
0.021887
0.019008
0.00216512
0.00183737
0.00156087
0.00134208
0.00114931
0.000973529
0.000808576
0.000651336
0.000499882
0.000352714
0.000208247
6.45887e-05
-7.96008e-05
-0.00022498
-0.000372148
-0.000521692
-0.000674312
-0.000831185
-0.000994365
-0.0011674
-0.00135599
-0.00156856
-0.0018172
-0.00211809
-0.0024923
-0.00296661
-0.00357372
-0.00435173
-0.00534363
-0.00659601
-0.00815693
-0.0100733
-0.0123875
-0.0151333
-0.0183339
-0.0220118
-0.0261019
-0.0306128
-0.035496
-0.0406876
-0.0460845
-0.051595
-0.0571137
-0.0625326
-0.0677441
-0.0726456
-0.0771427
-0.0811516
-0.0846008
-0.0874317
-0.0895982
-0.0910658
-0.0918096
-0.091812
-0.0910598
-0.089541
-0.087242
-0.0841446