/*--------------------------------*- C++ -*----------------------------------*\
  =========                 |
  \\      /  F ield         | OpenFOAM: The Open Source CFD Toolbox
   \\    /   O peration     | Website:  https://openfoam.org
    \\  /    A nd           | Version:  12
     \\/     M anipulation  |
\*---------------------------------------------------------------------------*/
FoamFile
{
    format      ascii;
    class       surfaceScalarField;
    location    "1";
    object      phi;
}
// * * * * * * * * * * * * * * * * * * * * * * * * * * * * * * * * * * * * * //

dimensions      [0 3 -1 0 0 0 0];

internalField   nonuniform List<scalar> 
11100
(
2.04912e-10
-2.07932e-10
8.83008e-10
-6.77922e-10
1.77933e-09
-8.96093e-10
2.6868e-09
-9.07276e-10
3.48745e-09
-8.00412e-10
4.12493e-09
-6.37236e-10
4.58271e-09
-4.57618e-10
4.8677e-09
-2.84905e-10
4.99884e-09
-1.31088e-10
4.99977e-09
-8.93794e-13
4.8938e-09
1.05987e-10
4.70098e-09
1.92826e-10
4.43619e-09
2.64805e-10
4.10807e-09
3.28129e-10
3.71871e-09
3.89362e-10
3.26369e-09
4.55029e-10
2.73233e-09
5.31372e-10
2.10809e-09
6.24245e-10
1.36902e-09
7.39076e-10
4.88045e-10
8.80983e-10
-5.66693e-10
1.05474e-09
-1.8317e-09
1.26502e-09
-3.34815e-09
1.51644e-09
-5.1619e-09
1.81375e-09
-7.32378e-09
2.16188e-09
-9.88988e-09
2.56609e-09
-1.2922e-08
3.03211e-09
-1.64881e-08
3.56606e-09
-2.06626e-08
4.17452e-09
-2.5527e-08
4.86444e-09
-3.11698e-08
5.64279e-09
-3.7686e-08
6.51617e-09
-4.51762e-08
7.49016e-09
-5.37448e-08
8.56856e-09
-6.34972e-08
9.75247e-09
-7.45365e-08
1.10392e-08
-8.69576e-08
1.24212e-08
-1.00842e-07
1.38847e-08
-1.16251e-07
1.54087e-08
-1.33215e-07
1.6964e-08
-1.51727e-07
1.85123e-08
-1.71733e-07
2.00054e-08
-1.93118e-07
2.13856e-08
-2.15704e-07
2.25856e-08
-2.39234e-07
2.35298e-08
-2.63369e-07
2.41352e-08
-2.87684e-07
2.43146e-08
-3.11663e-07
2.39791e-08
-3.34705e-07
2.30419e-08
-3.56128e-07
2.14236e-08
-3.75182e-07
1.90543e-08
-3.91039e-07
1.58567e-08
-4.02886e-07
1.18468e-08
-4.10001e-07
7.11515e-09
-4.1165e-07
1.64839e-09
-4.07126e-07
-4.52383e-09
-3.96063e-07
-1.10631e-08
-3.78272e-07
-1.77904e-08
-3.53893e-07
-2.4379e-08
-3.23426e-07
-3.04669e-08
-2.87764e-07
-3.56622e-08
-2.48184e-07
-3.95805e-08
-2.06295e-07
-4.18885e-08
-1.63943e-07
-4.23525e-08
-1.23061e-07
-4.08816e-08
-8.55054e-08
-3.75556e-08
-5.28764e-08
-3.2629e-08
-2.63709e-08
-2.65055e-08
-6.683e-09
-1.96879e-08
6.03828e-09
-1.27213e-08
1.21637e-08
-6.12545e-09
1.25969e-08
-4.33177e-10
8.81766e-09
3.77924e-09
3.3271e-09
5.49055e-09
3.3271e-09
6.66626e-10
-8.74464e-10
2.37596e-09
-2.38697e-09
4.57226e-09
-3.09212e-09
6.77763e-09
-3.11239e-09
8.70161e-09
-2.72407e-09
1.01945e-08
-2.12982e-09
1.12045e-08
-1.46739e-09
1.17412e-08
-8.21528e-10
1.18483e-08
-2.38126e-10
1.15838e-08
2.63598e-10
1.10066e-08
6.83196e-10
1.01678e-08
1.03167e-09
9.10502e-09
1.32761e-09
7.83935e-09
1.59381e-09
6.37396e-09
1.85477e-09
4.69382e-09
2.13518e-09
2.76627e-09
2.45894e-09
5.41767e-10
2.84876e-09
-2.04527e-09
3.32612e-09
-5.07543e-09
3.91116e-09
-8.6439e-09
4.62321e-09
-1.28598e-08
5.48095e-09
-1.78463e-08
6.50294e-09
-2.37407e-08
7.7081e-09
-3.06948e-08
9.11601e-09
-3.8876e-08
1.07473e-08
-4.84676e-08
1.26237e-08
-5.96695e-08
1.4768e-08
-7.2699e-08
1.7204e-08
-8.77907e-08
1.99561e-08
-1.05195e-07
2.30475e-08
-1.25178e-07
2.64989e-08
-1.48014e-07
3.03258e-08
-1.73981e-07
3.45355e-08
-2.03352e-07
3.91233e-08
-2.36382e-07
4.40691e-08
-2.73293e-07
4.93325e-08
-3.14257e-07
5.48488e-08
-3.59374e-07
6.05256e-08
-4.08649e-07
6.62389e-08
-4.61968e-07
7.18313e-08
-5.19074e-07
7.71111e-08
-5.79541e-07
8.18532e-08
-6.42758e-07
8.58018e-08
-7.07904e-07
8.86758e-08
-7.73944e-07
9.01758e-08
-8.39624e-07
8.99942e-08
-9.03472e-07
8.78277e-08
-9.63822e-07
8.33919e-08
-1.01884e-06
7.64389e-08
-1.06656e-06
6.67718e-08
-1.10494e-06
5.4242e-08
-1.13187e-06
3.87727e-08
-1.14558e-06
2.0826e-08
-1.14445e-06
5.20198e-10
-1.12712e-06
-2.18555e-08
-1.09267e-06
-4.55126e-08
-1.04096e-06
-6.95021e-08
-9.72581e-07
-9.27547e-08
-8.89004e-07
-1.14044e-07
-7.92604e-07
-1.32061e-07
-6.86648e-07
-1.45537e-07
-5.7516e-07
-1.53377e-07
-4.62698e-07
-1.54814e-07
-3.5403e-07
-1.49549e-07
-2.53749e-07
-1.37837e-07
-1.65865e-07
-1.20513e-07
-9.34533e-08
-9.89174e-08
-3.83865e-08
-7.47546e-08
-1.20638e-09
-4.99014e-08
1.89489e-08
-2.62808e-08
2.42816e-08
-5.76584e-09
1.85727e-08
9.4881e-09
7.63642e-09
1.64268e-08
1.09635e-08
1.10491e-09
-1.98011e-09
3.5853e-09
-4.86747e-09
6.66357e-09
-6.17024e-09
9.71394e-09
-6.16254e-09
1.23269e-08
-5.33671e-09
1.4281e-08
-4.08368e-09
1.54928e-08
-2.67898e-09
1.59691e-08
-1.29773e-09
1.57691e-08
-3.80328e-11
1.49752e-08
1.05754e-09
1.36727e-08
1.98571e-09
1.19359e-08
2.76842e-09
9.81918e-09
3.44437e-09
7.35139e-09
4.06161e-09
4.5336e-09
4.67256e-09
1.33817e-09
5.33062e-09
-2.29087e-09
6.08798e-09
-6.43664e-09
6.99454e-09
-1.12082e-08
8.09768e-09
-1.67395e-08
9.44252e-09
-2.31887e-08
1.10724e-08
-3.07372e-08
1.30295e-08
-3.959e-08
1.53557e-08
-4.99752e-08
1.80934e-08
-6.21453e-08
2.12861e-08
-7.63771e-08
2.49791e-08
-9.29727e-08
2.92193e-08
-1.1226e-07
3.4055e-08
-1.34591e-07
3.95356e-08
-1.60345e-07
4.57096e-08
-1.89919e-07
5.26217e-08
-2.23729e-07
6.03086e-08
-2.62196e-07
6.87934e-08
-3.0574e-07
7.80791e-08
-3.54757e-07
8.81404e-08
-4.09603e-07
9.89152e-08
-4.70567e-07
1.10296e-07
-5.3784e-07
1.22122e-07
-6.11483e-07
1.34169e-07
-6.91393e-07
1.46149e-07
-7.77262e-07
1.57701e-07
-8.68547e-07
1.68397e-07
-9.64437e-07
1.77742e-07
-1.06382e-06
1.85188e-07
-1.16529e-06
1.90142e-07
-1.2671e-06
1.91988e-07
-1.36721e-06
1.90107e-07
-1.4633e-06
1.83909e-07
-1.55276e-06
1.72861e-07
-1.63285e-06
1.56521e-07
-1.70065e-06
1.34579e-07
-1.75329e-06
1.06881e-07
-1.78776e-06
7.32355e-08
-1.80174e-06
3.48092e-08
-1.79307e-06
-8.1503e-09
-1.76e-06
-5.49241e-08
-1.70166e-06
-1.03849e-07
-1.61813e-06
-1.5304e-07
-1.51052e-06
-2.00363e-07
-1.38116e-06
-2.43403e-07
-1.2336e-06
-2.79621e-07
-1.07257e-06
-3.06562e-07
-9.03832e-07
-3.22118e-07
-7.33841e-07
-3.24806e-07
-5.69365e-07
-3.14026e-07
-4.16956e-07
-2.90245e-07
-2.82417e-07
-2.55052e-07
-1.70287e-07
-2.11047e-07
-8.34518e-08
-1.6159e-07
-2.28892e-08
-1.10464e-07
1.24286e-08
-6.15986e-08
2.56224e-08
-1.89596e-08
2.20548e-08
1.30557e-08
9.69688e-09
2.87848e-08
2.06604e-08
1.43998e-09
-3.42029e-09
4.46854e-09
-7.896e-09
8.10142e-09
-9.80293e-09
1.16164e-08
-9.67725e-09
1.45326e-08
-8.25261e-09
1.65826e-08
-6.13337e-09
1.76609e-08
-3.75715e-09
1.77722e-08
-1.40891e-09
1.69863e-08
7.4798e-10
1.54032e-08
2.64065e-09
1.31278e-08
4.26116e-09
1.02509e-08
5.64532e-09
6.83774e-09
6.85754e-09
2.92058e-09
7.97878e-09
-1.50492e-09
9.09807e-09
-6.48114e-09
1.03069e-08
-1.20884e-08
1.16953e-08
-1.84442e-08
1.33503e-08
-2.57015e-08
1.5355e-08
-3.40479e-08
1.77889e-08
-4.37043e-08
2.07288e-08
-5.49244e-08
2.42496e-08
-6.79942e-08
2.84255e-08
-8.32324e-08
3.33316e-08
-1.0099e-07
3.90439e-08
-1.21652e-07
4.5641e-08
-1.45636e-07
5.32028e-08
-1.73391e-07
6.181e-08
-2.05398e-07
7.15431e-08
-2.42167e-07
8.24785e-08
-2.84229e-07
9.4683e-08
-3.32126e-07
1.08206e-07
-3.86402e-07
1.2307e-07
-4.47581e-07
1.39258e-07
-5.16141e-07
1.56701e-07
-5.92488e-07
1.75262e-07
-6.76917e-07
1.94725e-07
-7.69571e-07
2.14776e-07
-8.70401e-07
2.34999e-07
-9.79115e-07
2.54863e-07
-1.09514e-06
2.73723e-07
-1.21757e-06
2.90825e-07
-1.34514e-06
3.05318e-07
-1.47622e-06
3.16271e-07
-1.60878e-06
3.22704e-07
-1.74042e-06
3.23619e-07
-1.86835e-06
3.18044e-07
-1.98952e-06
3.05079e-07
-2.10061e-06
2.83944e-07
-2.19812e-06
2.54038e-07
-2.27853e-06
2.14989e-07
-2.33836e-06
1.66704e-07
-2.37442e-06
1.093e-07
-2.38378e-06
4.41655e-08
-2.3641e-06
-2.78288e-08
-2.31378e-06
-1.05242e-07
-2.23212e-06
-1.85509e-07
-2.11951e-06
-2.6565e-07
-1.9776e-06
-3.42277e-07
-1.80938e-06
-4.1162e-07
-1.61926e-06
-4.69738e-07
-1.41299e-06
-5.12837e-07
-1.19746e-06
-5.37648e-07
-9.80419e-07
-5.41845e-07
-7.7e-07
-5.24445e-07
-5.74147e-07
-4.86098e-07
-3.99995e-07
-4.29204e-07
-2.53259e-07
-3.57783e-07
-1.37719e-07
-2.7713e-07
-5.48614e-08
-1.93322e-07
-3.68045e-09
-1.1278e-07
1.94444e-08
-4.20845e-08
2.08715e-08
1.16286e-08
9.96297e-09
3.96933e-08
3.06234e-08
1.66633e-09
-5.08731e-09
5.02168e-09
-1.12516e-08
8.91917e-09
-1.37004e-08
1.25663e-08
-1.33242e-08
1.54413e-08
-1.11273e-08
1.72518e-08
-7.94363e-09
1.78818e-08
-4.38699e-09
1.73368e-08
-8.63793e-10
1.56959e-08
2.38899e-09
1.30726e-08
5.26395e-09
9.58559e-09
7.74821e-09
5.33703e-09
9.8939e-09
3.98499e-10
1.17961e-08
-5.19808e-09
1.35754e-08
-1.14655e-08
1.53655e-08
-1.84632e-08
1.73046e-08
-2.62978e-08
1.95299e-08
-3.51219e-08
2.21744e-08
-4.51331e-08
2.53663e-08
-5.65727e-08
2.92286e-08
-6.97245e-08
3.38806e-08
-8.49138e-08
3.94389e-08
-1.02507e-07
4.60191e-08
-1.22913e-07
5.37371e-08
-1.46579e-07
6.27099e-08
-1.73994e-07
7.30563e-08
-2.05687e-07
8.4896e-08
-2.42224e-07
9.83469e-08
-2.84204e-07
1.13523e-07
-3.32256e-07
1.3053e-07
-3.87024e-07
1.49451e-07
-4.49159e-07
1.70341e-07
-5.19295e-07
1.93206e-07
-5.98025e-07
2.17988e-07
-6.85867e-07
2.44542e-07
-7.83224e-07
2.72619e-07
-8.90338e-07
3.01839e-07
-1.00724e-06
3.3168e-07
-1.1337e-06
3.61461e-07
-1.26918e-06
3.90334e-07
-1.41275e-06
4.17293e-07
-1.5631e-06
4.41179e-07
-1.71849e-06
4.60709e-07
-1.87673e-06
4.74513e-07
-2.0352e-06
4.81175e-07
-2.19088e-06
4.79294e-07
-2.34038e-06
4.67542e-07
-2.48003e-06
4.44734e-07
-2.60598e-06
4.09899e-07
-2.7143e-06
3.62348e-07
-2.80106e-06
3.01752e-07
-2.86255e-06
2.282e-07
-2.89548e-06
1.42228e-07
-2.89683e-06
4.55144e-08
-2.86434e-06
-6.03197e-08
-2.79663e-06
-1.72953e-07
-2.69328e-06
-2.88859e-07
-2.55502e-06
-4.03905e-07
-2.38392e-06
-5.13383e-07
-2.18343e-06
-6.12107e-07
-1.9585e-06
-6.94673e-07
-1.71546e-06
-7.55871e-07
-1.46193e-06
-7.91178e-07
-1.20645e-06
-7.97326e-07
-9.58055e-07
-7.72839e-07
-7.25686e-07
-7.18468e-07
-5.17505e-07
-6.37385e-07
-3.40209e-07
-5.3508e-07
-1.98407e-07
-4.18932e-07
-9.41557e-08
-2.97573e-07
-2.66646e-08
-1.80271e-07
7.86431e-09
-7.66134e-08
1.63492e-08
3.14366e-09
8.98643e-09
4.70561e-08
3.96098e-08
1.78397e-09
-6.87154e-09
5.25861e-09
-1.47263e-08
9.15733e-09
-1.7599e-08
1.26387e-08
-1.68054e-08
1.51609e-08
-1.36492e-08
1.64239e-08
-9.20633e-09
1.63113e-08
-4.27417e-09
1.48341e-08
6.13432e-10
1.20812e-08
5.14203e-09
8.17712e-09
9.16804e-09
3.25097e-09
1.26744e-08
-2.58775e-09
1.57326e-08
-9.26516e-09
1.84735e-08
-1.67533e-08
2.10635e-08
-2.50763e-08
2.36885e-08
-3.4313e-08
2.65413e-08
-4.45975e-08
2.98145e-08
-5.61191e-08
3.3696e-08
-6.91205e-08
3.83676e-08
-8.38968e-08
4.40049e-08
-1.00794e-07
5.07782e-08
-1.2021e-07
5.88546e-08
-1.4259e-07
6.83992e-08
-1.6843e-07
7.95766e-08
-1.98272e-07
9.25519e-08
-2.32706e-07
1.07491e-07
-2.72366e-07
1.24556e-07
-3.17926e-07
1.43907e-07
-3.70093e-07
1.6569e-07
-4.29599e-07
1.90035e-07
-4.97185e-07
2.17037e-07
-5.73583e-07
2.46739e-07
-6.59489e-07
2.79112e-07
-7.55526e-07
3.14025e-07
-8.62206e-07
3.51222e-07
-9.79879e-07
3.90292e-07
-1.10868e-06
4.30638e-07
-1.24846e-06
4.71463e-07
-1.39875e-06
5.11753e-07
-1.55869e-06
5.50272e-07
-1.72698e-06
5.85579e-07
-1.90185e-06
6.16048e-07
-2.08105e-06
6.39917e-07
-2.26188e-06
6.55339e-07
-2.44116e-06
6.60458e-07
-2.61535e-06
6.5348e-07
-2.78058e-06
6.32768e-07
-2.93276e-06
5.96918e-07
-3.06772e-06
5.44856e-07
-3.18128e-06
4.75912e-07
-3.26944e-06
3.89909e-07
-3.32847e-06
2.87235e-07
-3.35515e-06
1.6891e-07
-3.34666e-06
3.70247e-08
-3.30096e-06
-1.06019e-07
-3.21695e-06
-2.56967e-07
-3.09448e-06
-4.11333e-07
-2.93455e-06
-5.63836e-07
-2.73946e-06
-7.08472e-07
-2.51291e-06
-8.38653e-07
-2.26007e-06
-9.47511e-07
-1.98756e-06
-1.02838e-06
-1.70331e-06
-1.07543e-06
-1.41633e-06
-1.08431e-06
-1.13624e-06
-1.05293e-06
-8.72724e-07
-9.81989e-07
-6.34769e-07
-8.7534e-07
-4.29951e-07
-7.39898e-07
-2.63694e-07
-5.85189e-07
-1.38697e-07
-4.2257e-07
-5.45483e-08
-2.6442e-07
-7.51931e-09
-1.23642e-07
9.52261e-09
-1.38983e-08
7.18882e-09
4.93899e-08
4.67986e-08
1.80572e-09
-8.67785e-09
5.20854e-09
-1.81294e-08
8.86607e-09
-2.12566e-08
1.19097e-08
-1.98488e-08
1.3794e-08
-1.55332e-08
1.42248e-08
-9.6369e-09
1.30948e-08
-3.14399e-09
1.04258e-08
3.28253e-09
6.31759e-09
9.25034e-09
9.05125e-10
1.45805e-08
-5.67466e-09
1.92542e-08
-1.33081e-08
2.33661e-08
-2.19222e-08
2.70876e-08
-3.14961e-08
3.06374e-08
-4.20677e-08
3.42601e-08
-5.37374e-08
3.82109e-08
-6.66687e-08
4.27458e-08
-8.10882e-08
4.81155e-08
-9.72845e-08
5.45639e-08
-1.15607e-07
6.23271e-08
-1.36464e-07
7.16353e-08
-1.60323e-07
8.27137e-08
-1.87708e-07
9.57845e-08
-2.192e-07
1.11068e-07
-2.55432e-07
1.28784e-07
-2.97091e-07
1.49149e-07
-3.44907e-07
1.72373e-07
-3.99654e-07
1.98653e-07
-4.62132e-07
2.28169e-07
-5.33162e-07
2.61066e-07
-6.1356e-07
2.97435e-07
-7.04112e-07
3.37291e-07
-8.05541e-07
3.80541e-07
-9.18463e-07
4.26948e-07
-1.04334e-06
4.76099e-07
-1.18042e-06
5.27367e-07
-1.32966e-06
5.79883e-07
-1.4907e-06
6.32506e-07
-1.66277e-06
6.83822e-07
-1.84464e-06
7.32143e-07
-2.0346e-06
7.75536e-07
-2.23042e-06
8.11866e-07
-2.42937e-06
8.38865e-07
-2.62824e-06
8.54213e-07
-2.82342e-06
8.55635e-07
-3.01094e-06
8.41004e-07
-3.18662e-06
8.08445e-07
-3.34614e-06
7.56441e-07
-3.4852e-06
6.8392e-07
-3.59964e-06
5.9035e-07
-3.68555e-06
4.75812e-07
-3.73939e-06
3.41083e-07
-3.75819e-06
1.87704e-07
-3.73942e-06
1.8259e-08
-3.68135e-06
-1.64088e-07
-3.58313e-06
-3.55193e-07
-3.4448e-06
-5.49659e-07
-3.26751e-06
-7.4113e-07
-3.0536e-06
-9.22381e-07
-2.80677e-06
-1.08548e-06
-2.53215e-06
-1.22213e-06
-2.23634e-06
-1.32419e-06
-1.92735e-06
-1.38441e-06
-1.61438e-06
-1.39727e-06
-1.30745e-06
-1.35986e-06
-1.0168e-06
-1.27264e-06
-7.52172e-07
-1.13997e-06
-5.2197e-07
-9.701e-07
-3.3246e-07
-7.74698e-07
-1.8707e-07
-5.6796e-07
-8.59102e-08
-3.6558e-07
-2.55253e-08
-1.84027e-07
1.16811e-09
-4.05917e-08
4.88116e-09
4.56768e-08
5.16798e-08
1.74277e-09
-1.04209e-08
4.9002e-09
-2.12869e-08
8.09487e-09
-2.44512e-08
1.04514e-08
-2.22052e-08
1.14359e-08
-1.65174e-08
1.07713e-08
-8.97207e-09
8.36807e-09
-7.40566e-10
4.26385e-09
7.38685e-09
-1.42822e-09
1.49425e-08
-8.56283e-09
2.17152e-08
-1.69967e-08
2.76881e-08
-2.66144e-08
3.29838e-08
-3.73464e-08
3.78197e-08
-4.91816e-08
4.24726e-08
-6.21741e-08
4.72527e-08
-7.64478e-08
5.24846e-08
-9.2197e-08
5.8495e-08
-1.09687e-07
6.56053e-08
-1.29252e-07
7.4129e-08
-1.51296e-07
8.43711e-08
-1.76289e-07
9.66286e-08
-2.04768e-07
1.11193e-07
-2.37333e-07
1.28349e-07
-2.74646e-07
1.48381e-07
-3.17427e-07
1.71566e-07
-3.66453e-07
1.98174e-07
-4.22543e-07
2.28463e-07
-4.86557e-07
2.62667e-07
-5.59378e-07
3.0099e-07
-6.41894e-07
3.43581e-07
-7.3497e-07
3.90511e-07
-8.3942e-07
4.41741e-07
-9.55961e-07
4.97081e-07
-1.08516e-06
5.56147e-07
-1.22738e-06
6.18322e-07
-1.38272e-06
6.82707e-07
-1.55094e-06
7.48096e-07
-1.73137e-06
8.12945e-07
-1.92293e-06
8.75378e-07
-2.12399e-06
9.33202e-07
-2.33241e-06
9.83954e-07
-2.54551e-06
1.02497e-06
-2.76013e-06
1.05348e-06
-2.97265e-06
1.06673e-06
-3.17909e-06
1.06208e-06
-3.37524e-06
1.03716e-06
-3.55676e-06
9.89956e-07
-3.71927e-06
9.1896e-07
-3.85858e-06
8.23221e-07
-3.97067e-06
7.02448e-07
-4.05193e-06
5.57072e-07
-4.09916e-06
3.88309e-07
-4.10968e-06
1.98229e-07
-4.08135e-06
-1.00711e-08
-4.01271e-06
-2.32731e-07
-3.90308e-06
-4.6482e-07
-3.75261e-06
-7.00131e-07
-3.56239e-06
-9.31347e-07
-3.33464e-06
-1.15013e-06
-3.07282e-06
-1.34731e-06
-2.78179e-06
-1.51316e-06
-2.46792e-06
-1.63806e-06
-2.13909e-06
-1.71325e-06
-1.8045e-06
-1.73186e-06
-1.47442e-06
-1.68993e-06
-1.15958e-06
-1.58748e-06
-8.70413e-07
-1.42913e-06
-6.16198e-07
-1.22432e-06
-4.04097e-07
-9.868e-07
-2.38367e-07
-7.3369e-07
-1.1978e-07
-4.84167e-07
-4.53205e-08
-2.58486e-07
-8.15845e-09
-7.77538e-08
2.28129e-09
3.52371e-08
5.39611e-08
1.60817e-09
-1.20296e-08
4.36418e-09
-2.40433e-08
6.89238e-09
-2.69794e-08
8.33202e-09
-2.36447e-08
8.17434e-09
-1.63595e-08
6.17034e-09
-6.96781e-09
2.25583e-09
3.17411e-09
-3.51046e-09
1.31532e-08
-1.09994e-08
2.24315e-08
-2.0055e-08
3.07707e-08
-3.05282e-08
3.81614e-08
-4.23037e-08
4.47593e-08
-5.53176e-08
5.08337e-08
-6.95707e-08
5.67257e-08
-8.51357e-08
6.28177e-08
-1.02162e-07
6.95104e-08
-1.20875e-07
7.72082e-08
-1.41579e-07
8.63102e-08
-1.64657e-07
9.72069e-08
-1.90566e-07
1.10279e-07
-2.19835e-07
1.25898e-07
-2.5307e-07
1.44428e-07
-2.90944e-07
1.66223e-07
-3.34196e-07
1.91633e-07
-3.83629e-07
2.20998e-07
-4.40098e-07
2.54644e-07
-5.04505e-07
2.9287e-07
-5.77783e-07
3.35945e-07
-6.60877e-07
3.84084e-07
-7.54723e-07
4.37427e-07
-8.60212e-07
4.96001e-07
-9.78154e-07
5.59683e-07
-1.10922e-06
6.28149e-07
-1.2539e-06
7.00825e-07
-1.41241e-06
7.76834e-07
-1.58466e-06
8.54952e-07
-1.77013e-06
9.33572e-07
-1.96788e-06
1.01069e-06
-2.17644e-06
1.08393e-06
-2.39378e-06
1.15054e-06
-2.61734e-06
1.20752e-06
-2.84406e-06
1.25169e-06
-3.07038e-06
1.2798e-06
-3.29237e-06
1.28872e-06
-3.50585e-06
1.27556e-06
-3.70649e-06
1.23779e-06
-3.88994e-06
1.17341e-06
-4.05199e-06
1.08101e-06
-4.18866e-06
9.59888e-07
-4.29629e-06
8.10075e-07
-4.37162e-06
6.32407e-07
-4.41187e-06
4.28557e-07
-4.41474e-06
2.01094e-07
-4.3784e-06
-4.64112e-08
-4.30162e-06
-3.09509e-07
-4.18381e-06
-5.82625e-07
-4.02507e-06
-8.58872e-07
-3.8263e-06
-1.13012e-06
-3.58938e-06
-1.38705e-06
-3.31737e-06
-1.61932e-06
-3.01468e-06
-1.81586e-06
-2.68724e-06
-1.9655e-06
-2.3426e-06
-2.05788e-06
-1.98989e-06
-2.08457e-06
-1.63949e-06
-2.04033e-06
-1.30258e-06
-1.9244e-06
-9.90301e-07
-1.74141e-06
-7.12841e-07
-1.50178e-06
-4.7836e-07
-1.22128e-06
-2.92071e-07
-9.19979e-07
-1.55543e-07
-6.20695e-07
-6.63546e-08
-3.47675e-07
-1.80832e-08
-1.26025e-07
-4.7307e-10
1.76269e-08
5.3488e-08
1.41125e-09
-1.3441e-08
3.62573e-09
-2.62579e-08
5.30161e-09
-2.86553e-08
5.61261e-09
-2.39555e-08
4.08907e-09
-1.48357e-08
5.19771e-10
-3.39826e-09
-5.12659e-09
8.82063e-09
-1.27653e-08
2.07921e-08
-2.22485e-08
3.19147e-08
-3.34081e-08
4.19304e-08
-4.60902e-08
5.08435e-08
-6.01805e-08
5.88496e-08
-7.56228e-08
6.6276e-08
-9.24317e-08
7.35346e-08
-1.107e-07
8.1086e-08
-1.30603e-07
8.94139e-08
-1.52402e-07
9.90066e-08
-1.76439e-07
1.10348e-07
-2.03144e-07
1.23912e-07
-2.33026e-07
1.40161e-07
-2.66676e-07
1.59548e-07
-3.04763e-07
1.82514e-07
-3.48029e-07
2.09489e-07
-3.97287e-07
2.40892e-07
-4.53414e-07
2.77125e-07
-5.17337e-07
3.18567e-07
-5.90026e-07
3.65559e-07
-6.72472e-07
4.1839e-07
-7.65665e-07
4.77277e-07
-8.70567e-07
5.42329e-07
-9.88068e-07
6.13502e-07
-1.11894e-06
6.90556e-07
-1.26378e-06
7.72992e-07
-1.42295e-06
8.59995e-07
-1.5965e-06
9.50378e-07
-1.78408e-06
1.04253e-06
-1.98491e-06
1.13441e-06
-2.1977e-06
1.22348e-06
-2.4206e-06
1.30683e-06
-2.65121e-06
1.38115e-06
-2.8866e-06
1.4429e-06
-3.12332e-06
1.48841e-06
-3.35756e-06
1.51404e-06
-3.58519e-06
1.51636e-06
-3.80195e-06
1.49232e-06
-4.00355e-06
1.43939e-06
-4.1858e-06
1.35566e-06
-4.34477e-06
1.23999e-06
-4.47686e-06
1.09197e-06
-4.57882e-06
9.12037e-07
-4.64785e-06
7.01444e-07
-4.68159e-06
4.62295e-07
-4.6781e-06
1.97596e-07
-4.63582e-06
-8.86841e-08
-4.55368e-06
-3.9165e-07
-4.43106e-06
-7.05247e-07
-4.26787e-06
-1.02206e-06
-4.06469e-06
-1.3333e-06
-3.82293e-06
-1.62881e-06
-3.54508e-06
-1.89718e-06
-3.23491e-06
-2.12602e-06
-2.89781e-06
-2.3026e-06
-2.54086e-06
-2.41484e-06
-2.17293e-06
-2.4525e-06
-1.80448e-06
-2.40878e-06
-1.44707e-06
-2.2818e-06
-1.1126e-06
-2.07588e-06
-8.12234e-07
-1.80215e-06
-5.55245e-07
-1.47827e-06
-3.47946e-07
-1.12728e-06
-1.9286e-07
-7.75781e-07
-8.83e-08
-4.52235e-07
-2.83784e-08
-1.85947e-07
-3.28046e-09
-7.47102e-09
5.02075e-08
1.16137e-09
-1.46028e-08
2.70875e-09
-2.78055e-08
3.36223e-09
-2.93089e-08
2.34917e-09
-2.29424e-08
-7.47422e-10
-1.17388e-08
-6.09112e-09
1.94569e-09
-1.36734e-08
1.64031e-08
-2.33786e-08
3.04974e-08
-3.50372e-08
4.35733e-08
-4.84681e-08
5.53614e-08
-6.35123e-08
6.58877e-08
-8.00577e-08
7.5395e-08
-9.80572e-08
8.42755e-08
-1.17541e-07
9.3018e-08
-1.38623e-07
1.02168e-07
-1.61507e-07
1.12298e-07
-1.86488e-07
1.23987e-07
-2.13949e-07
1.37809e-07
-2.44365e-07
1.54328e-07
-2.78298e-07
1.74094e-07
-3.16396e-07
1.97646e-07
-3.59389e-07
2.25507e-07
-4.08085e-07
2.58185e-07
-4.63363e-07
2.9617e-07
-5.26166e-07
3.39927e-07
-5.97483e-07
3.89884e-07
-6.78337e-07
4.46413e-07
-7.69763e-07
5.09816e-07
-8.72776e-07
5.8029e-07
-9.88338e-07
6.57891e-07
-1.11731e-06
7.42474e-07
-1.2604e-06
8.33645e-07
-1.41809e-06
9.30685e-07
-1.59059e-06
1.03249e-06
-1.77772e-06
1.13751e-06
-1.97889e-06
1.24371e-06
-2.193e-06
1.34852e-06
-2.41842e-06
1.4489e-06
-2.65292e-06
1.54134e-06
-2.89377e-06
1.622e-06
-3.13768e-06
1.68682e-06
-3.38097e-06
1.7317e-06
-3.61962e-06
1.75269e-06
-3.84946e-06
1.74619e-06
-4.06626e-06
1.70912e-06
-4.26591e-06
1.63904e-06
-4.44454e-06
1.53429e-06
-4.59859e-06
1.39404e-06
-4.72491e-06
1.21829e-06
-4.82076e-06
1.00788e-06
-4.88378e-06
7.64467e-07
-4.91202e-06
4.90533e-07
-4.90385e-06
1.89429e-07
-4.85795e-06
-1.34587e-07
-4.77327e-06
-4.76326e-07
-4.6491e-06
-8.29423e-07
-4.48506e-06
-1.1861e-06
-4.2813e-06
-1.53706e-06
-4.03863e-06
-1.87147e-06
-3.75886e-06
-2.17696e-06
-3.44503e-06
-2.43985e-06
-3.10178e-06
-2.64585e-06
-2.73563e-06
-2.78099e-06
-2.35507e-06
-2.83305e-06
-1.97054e-06
-2.79331e-06
-1.59395e-06
-2.65839e-06
-1.23793e-06
-2.43189e-06
-9.14732e-07
-2.12535e-06
-6.34879e-07
-1.75812e-06
-4.05951e-07
-1.35621e-06
-2.31591e-07
-9.50141e-07
-1.10998e-07
-5.72828e-07
-3.89308e-08
-2.58014e-07
-6.1081e-09
-4.02937e-08
4.40994e-08
8.64765e-10
-1.54678e-08
1.6321e-09
-2.8573e-08
1.10756e-09
-2.87844e-08
-1.40943e-09
-2.04253e-08
-6.27022e-09
-6.87778e-09
-1.35813e-08
9.25699e-09
-2.32873e-08
2.61092e-08
-3.52369e-08
4.24471e-08
-4.92361e-08
5.75726e-08
-6.50895e-08
7.12148e-08
-8.26327e-08
8.3431e-08
-1.01757e-07
9.45189e-08
-1.22424e-07
1.04943e-07
-1.44682e-07
1.15276e-07
-1.68668e-07
1.26154e-07
-1.94615e-07
1.38245e-07
-2.22851e-07
1.52223e-07
-2.538e-07
1.68758e-07
-2.87983e-07
1.8851e-07
-3.26011e-07
2.12123e-07
-3.68588e-07
2.40223e-07
-4.165e-07
2.7342e-07
-4.70616e-07
3.12301e-07
-5.31875e-07
3.57429e-07
-6.01273e-07
4.09326e-07
-6.79852e-07
4.68463e-07
-7.68674e-07
5.35235e-07
-8.68796e-07
6.09939e-07
-9.8124e-07
6.92734e-07
-1.10694e-06
7.83594e-07
-1.24671e-06
8.82242e-07
-1.40115e-06
9.88086e-07
-1.57061e-06
1.10015e-06
-1.7551e-06
1.21698e-06
-1.95422e-06
1.33663e-06
-2.16707e-06
1.45656e-06
-2.39226e-06
1.5737e-06
-2.62779e-06
1.68443e-06
-2.87113e-06
1.78467e-06
-3.1192e-06
1.87007e-06
-3.36848e-06
1.9361e-06
-3.61511e-06
1.97833e-06
-3.85501e-06
1.99259e-06
-4.08404e-06
1.97523e-06
-4.29817e-06
1.92325e-06
-4.49359e-06
1.83446e-06
-4.66681e-06
1.70751e-06
-4.81475e-06
1.54198e-06
-4.93475e-06
1.33829e-06
-5.02455e-06
1.09768e-06
-5.08226e-06
8.2218e-07
-5.10629e-06
5.14559e-07
-5.09527e-06
1.7841e-07
-5.04801e-06
-1.81841e-07
-4.96348e-06
-5.60865e-07
-4.84074e-06
-9.52157e-07
-4.6791e-06
-1.34774e-06
-4.47819e-06
-1.73797e-06
-4.23817e-06
-2.11149e-06
-3.96005e-06
-2.45507e-06
-3.64605e-06
-2.75386e-06
-3.29996e-06
-2.99194e-06
-2.92758e-06
-3.15338e-06
-2.5369e-06
-3.22373e-06
-2.13819e-06
-3.19202e-06
-1.74366e-06
-3.05293e-06
-1.36668e-06
-2.80888e-06
-1.02063e-06
-2.4714e-06
-7.17447e-07
-2.0613e-06
-4.66164e-07
-1.60749e-06
-2.71737e-07
-1.14457e-06
-1.34413e-07
-7.10153e-07
-4.97084e-08
-3.42718e-07
-8.93977e-09
-8.10623e-08
3.51596e-08
5.27533e-10
-1.59957e-08
4.12963e-10
-2.84587e-08
-1.43225e-09
-2.69393e-08
-5.61913e-09
-1.62383e-08
-1.24207e-08
-7.59467e-11
-2.18771e-08
1.87136e-08
-3.38792e-08
3.81114e-08
-4.82356e-08
5.68036e-08
-6.47248e-08
7.40618e-08
-8.31357e-08
8.96257e-08
-1.03298e-07
1.03594e-07
-1.25107e-07
1.16328e-07
-1.48537e-07
1.28372e-07
-1.7365e-07
1.4039e-07
-2.00611e-07
1.53115e-07
-2.2968e-07
1.67314e-07
-2.61221e-07
1.83764e-07
-2.95697e-07
2.03235e-07
-3.33673e-07
2.26486e-07
-3.75808e-07
2.54258e-07
-4.22857e-07
2.87272e-07
-4.75661e-07
3.26223e-07
-5.35139e-07
3.7178e-07
-6.02281e-07
4.24571e-07
-6.78132e-07
4.85176e-07
-7.63767e-07
5.54099e-07
-8.60274e-07
6.31742e-07
-9.68715e-07
7.1838e-07
-1.09009e-06
8.14113e-07
-1.2253e-06
9.188e-07
-1.37505e-06
1.032e-06
-1.53984e-06
1.15288e-06
-1.71985e-06
1.28015e-06
-1.91485e-06
1.41199e-06
-2.12421e-06
1.54598e-06
-2.34673e-06
1.67909e-06
-2.58069e-06
1.80766e-06
-2.8238e-06
1.92753e-06
-3.0732e-06
2.03408e-06
-3.3256e-06
2.12246e-06
-3.57728e-06
2.18778e-06
-3.8243e-06
2.22535e-06
-4.06264e-06
2.23093e-06
-4.28833e-06
2.20091e-06
-4.4976e-06
2.13252e-06
-4.68703e-06
2.02389e-06
-4.8536e-06
1.87408e-06
-4.99472e-06
1.68311e-06
-5.10825e-06
1.45182e-06
-5.1924e-06
1.18183e-06
-5.24569e-06
8.75475e-07
-5.26685e-06
5.35713e-07
-5.25471e-06
1.66272e-07
-5.20817e-06
-2.28378e-07
-5.12613e-06
-6.42909e-07
-5.00745e-06
-1.07084e-06
-4.85104e-06
-1.50414e-06
-4.656e-06
-1.93301e-06
-4.42181e-06
-2.34569e-06
-4.14862e-06
-2.72826e-06
-3.83774e-06
-3.06474e-06
-3.49201e-06
-3.33766e-06
-3.11636e-06
-3.52903e-06
-2.71813e-06
-3.62197e-06
-2.30728e-06
-3.60287e-06
-1.89619e-06
-3.46402e-06
-1.49893e-06
-3.20613e-06
-1.13008e-06
-2.84025e-06
-8.03119e-07
-2.38827e-06
-5.28724e-07
-1.88188e-06
-3.13386e-07
-1.35991e-06
-1.58591e-07
-8.64948e-07
-6.07375e-08
-4.40572e-07
-1.17826e-08
-1.30017e-07
2.33771e-08
1.53598e-10
-1.61495e-08
-9.35762e-10
-2.73695e-08
-4.2324e-09
-2.36426e-08
-1.0242e-08
-1.02286e-08
-1.9147e-08
8.82934e-09
-3.09119e-08
3.04787e-08
-4.53675e-08
5.25672e-08
-6.22776e-08
7.37138e-08
-8.13906e-08
9.31749e-08
-1.02478e-07
1.10713e-07
-1.25365e-07
1.26481e-07
-1.49949e-07
1.40912e-07
-1.76216e-07
1.54639e-07
-2.04249e-07
1.68423e-07
-2.34234e-07
1.831e-07
-2.66464e-07
1.99544e-07
-3.01336e-07
2.18635e-07
-3.39352e-07
2.41251e-07
-3.81118e-07
2.68252e-07
-4.2734e-07
3.0048e-07
-4.78818e-07
3.3875e-07
-5.36441e-07
3.83846e-07
-6.01175e-07
4.36513e-07
-6.7405e-07
4.97446e-07
-7.56145e-07
5.6727e-07
-8.48558e-07
6.46512e-07
-9.52383e-07
7.35566e-07
-1.06867e-06
8.34667e-07
-1.19838e-06
9.43824e-07
-1.34234e-06
1.06275e-06
-1.50115e-06
1.19081e-06
-1.67515e-06
1.32688e-06
-1.86434e-06
1.46933e-06
-2.06826e-06
1.61591e-06
-2.28601e-06
1.76372e-06
-2.5161e-06
1.90918e-06
-2.7565e-06
2.04807e-06
-3.00465e-06
2.17568e-06
-3.25746e-06
2.28689e-06
-3.51142e-06
2.37642e-06
-3.76276e-06
2.43912e-06
-4.00755e-06
2.47014e-06
-4.24191e-06
2.46528e-06
-4.46212e-06
2.42112e-06
-4.66479e-06
2.33519e-06
-4.84694e-06
2.20603e-06
-5.00603e-06
2.03317e-06
-5.13999e-06
1.81707e-06
-5.24715e-06
1.55898e-06
-5.32618e-06
1.26086e-06
-5.37596e-06
9.25251e-07
-5.39546e-06
5.5522e-07
-5.3837e-06
1.54513e-07
-5.33962e-06
-2.72464e-07
-5.26202e-06
-7.20509e-07
-5.14956e-06
-1.1833e-06
-5.00077e-06
-1.65293e-06
-4.81421e-06
-2.11957e-06
-4.58866e-06
-2.57124e-06
-4.32342e-06
-2.99349e-06
-4.01881e-06
-3.36936e-06
-3.67662e-06
-3.67985e-06
-3.30076e-06
-3.90489e-06
-2.89776e-06
-4.02497e-06
-2.47708e-06
-4.02355e-06
-2.0511e-06
-3.89e-06
-1.63451e-06
-3.62272e-06
-1.24311e-06
-3.23165e-06
-8.92012e-07
-2.73936e-06
-5.93781e-07
-2.18012e-06
-3.56674e-07
-1.59701e-06
-1.83632e-07
-1.03799e-06
-7.20818e-08
-5.52122e-07
-1.46569e-08
-1.87442e-07
8.72019e-09
-2.53456e-10
-1.58964e-08
-2.40222e-09
-2.5221e-08
-7.27066e-09
-1.87743e-08
-1.5244e-08
-2.25526e-09
-2.64023e-08
1.99879e-08
-4.06254e-08
4.4702e-08
-5.76775e-08
6.96194e-08
-7.72735e-08
9.33099e-08
-9.9129e-08
1.1503e-07
-1.22997e-07
1.34582e-07
-1.48697e-07
1.5218e-07
-1.76129e-07
1.68344e-07
-2.05293e-07
1.83802e-07
-2.3629e-07
1.9942e-07
-2.69332e-07
2.16142e-07
-3.0474e-07
2.34952e-07
-3.42945e-07
2.56841e-07
-3.84488e-07
2.82793e-07
-4.30013e-07
3.13778e-07
-4.80269e-07
3.50735e-07
-5.36096e-07
3.94577e-07
-5.98424e-07
4.46174e-07
-6.68257e-07
5.06346e-07
-7.46657e-07
5.75846e-07
-8.34723e-07
6.55336e-07
-9.33561e-07
7.4535e-07
-1.04426e-06
8.4626e-07
-1.16782e-06
9.58235e-07
-1.30516e-06
1.08117e-06
-1.45701e-06
1.2146e-06
-1.62383e-06
1.35763e-06
-1.80581e-06
1.50886e-06
-2.00271e-06
1.66624e-06
-2.21386e-06
1.82707e-06
-2.43807e-06
1.98793e-06
-2.67359e-06
2.1447e-06
-2.91812e-06
2.29261e-06
-3.16885e-06
2.4264e-06
-3.42249e-06
2.54053e-06
-3.67547e-06
2.6294e-06
-3.92399e-06
2.68764e-06
-4.16424e-06
2.7104e-06
-4.39256e-06
2.69361e-06
-4.60558e-06
2.63414e-06
-4.80031e-06
2.52993e-06
-4.97424e-06
2.37996e-06
-5.12533e-06
2.18426e-06
-5.25199e-06
1.94373e-06
-5.353e-06
1.65999e-06
-5.42741e-06
1.33527e-06
-5.47444e-06
9.72277e-07
-5.49328e-06
5.74064e-07
-5.48307e-06
1.44306e-07
-5.44278e-06
-3.12764e-07
-5.37112e-06
-7.92164e-07
-5.26658e-06
-1.28783e-06
-5.12735e-06
-1.79216e-06
-4.95147e-06
-2.29545e-06
-4.73704e-06
-2.78567e-06
-4.48253e-06
-3.248e-06
-4.1872e-06
-3.66469e-06
-3.85174e-06
-4.01531e-06
-3.47889e-06
-4.27774e-06
-3.07416e-06
-4.4297e-06
-2.6463e-06
-4.4514e-06
-2.2075e-06
-4.32879e-06
-1.77292e-06
-4.0573e-06
-1.3595e-06
-3.64507e-06
-9.84143e-07
-3.11472e-06
-6.61462e-07
-2.5028e-06
-4.01753e-07
-1.85672e-06
-2.09659e-07
-1.23008e-06
-8.38216e-08
-6.77959e-07
-1.75947e-08
-2.53669e-07
-8.87451e-09
-6.91036e-10
-1.52054e-08
-3.97766e-09
-2.19345e-08
-1.05291e-08
-1.22229e-08
-2.05963e-08
7.81203e-09
-3.41455e-08
3.35374e-08
-5.09634e-08
6.152e-08
-7.07412e-08
8.93974e-08
-9.31409e-08
1.1571e-07
-1.17843e-07
1.39732e-07
-1.4458e-07
1.61319e-07
-1.73165e-07
1.80765e-07
-2.03504e-07
1.98683e-07
-2.35607e-07
2.15905e-07
-2.69595e-07
2.33409e-07
-3.05706e-07
2.52253e-07
-3.4429e-07
2.73536e-07
-3.85809e-07
2.9836e-07
-4.3084e-07
3.27824e-07
-4.80064e-07
3.63002e-07
-5.34266e-07
4.04937e-07
-5.94324e-07
4.54635e-07
-6.61201e-07
5.13051e-07
-7.35928e-07
5.81074e-07
-8.19589e-07
6.59507e-07
-9.13289e-07
7.49036e-07
-1.01813e-06
8.50189e-07
-1.13516e-06
9.63294e-07
-1.26536e-06
1.08843e-06
-1.40953e-06
1.22534e-06
-1.5683e-06
1.37336e-06
-1.74199e-06
1.53133e-06
-1.9306e-06
1.69746e-06
-2.13367e-06
1.86931e-06
-2.3503e-06
2.04369e-06
-2.57902e-06
2.21665e-06
-2.81783e-06
2.38351e-06
-3.0642e-06
2.53898e-06
-3.31513e-06
2.67733e-06
-3.56724e-06
2.79264e-06
-3.81689e-06
2.87905e-06
-4.06039e-06
2.93113e-06
-4.29412e-06
2.94413e-06
-4.5147e-06
2.91419e-06
-4.71915e-06
2.83859e-06
-4.90491e-06
2.71569e-06
-5.06996e-06
2.54501e-06
-5.21271e-06
2.32702e-06
-5.33203e-06
2.06304e-06
-5.42709e-06
1.75505e-06
-5.49728e-06
1.40547e-06
-5.54211e-06
1.0171e-06
-5.56098e-06
5.92932e-07
-5.55314e-06
1.36467e-07
-5.51756e-06
-3.48341e-07
-5.4529e-06
-8.56824e-07
-5.35753e-06
-1.3832e-06
-5.22935e-06
-1.92035e-06