/*--------------------------------*- C++ -*----------------------------------*\
  =========                 |
  \\      /  F ield         | OpenFOAM: The Open Source CFD Toolbox
   \\    /   O peration     | Website:  https://openfoam.org
    \\  /    A nd           | Version:  12
     \\/     M anipulation  |
\*---------------------------------------------------------------------------*/
FoamFile
{
    format      ascii;
    class       volVectorField;
    location    "1";
    object      U;
}
// * * * * * * * * * * * * * * * * * * * * * * * * * * * * * * * * * * * * * //

dimensions      [0 1 -1 0 0 0 0];

internalField   nonuniform List<vector> 
5625
(
(8.72971e-07 -2.29612e-06 0)
(3.54314e-05 -5.85251e-06 0)
(9.80668e-05 -7.1859e-06 0)
(0.000168573 -7.09809e-06 0)
(0.000233988 -6.29487e-06 0)
(0.000288492 -5.17053e-06 0)
(0.000329643 -4.00023e-06 0)
(0.000357286 -2.93057e-06 0)
(0.000372535 -2.02075e-06 0)
(0.000377096 -1.28762e-06 0)
(0.000372796 -7.16134e-07 0)
(0.000361301 -2.82965e-07 0)
(0.000343949 4.7221e-08 0)
(0.000321634 3.14145e-07 0)
(0.000294763 5.58824e-07 0)
(0.000263247 8.20043e-07 0)
(0.000226514 1.13424e-06 0)
(0.000183538 1.53434e-06 0)
(0.000132871 2.04951e-06 0)
(7.26682e-05 2.70672e-06 0)
(7.16519e-07 3.52999e-06 0)
(-8.55485e-05 4.54181e-06 0)
(-0.000189039 5.76585e-06 0)
(-0.000313017 7.22592e-06 0)
(-0.000461106 8.94843e-06 0)
(-0.000637308 1.0962e-05 0)
(-0.000846041 1.33011e-05 0)
(-0.00109216 1.60044e-05 0)
(-0.00138102 1.91177e-05 0)
(-0.00171845 2.26927e-05 0)
(-0.00211084 2.67871e-05 0)
(-0.00256508 3.14609e-05 0)
(-0.00308856 3.67748e-05 0)
(-0.00368899 4.2785e-05 0)
(-0.00437432 4.95385e-05 0)
(-0.00515245 5.70656e-05 0)
(-0.0060309 6.53736e-05 0)
(-0.00701643 7.44371e-05 0)
(-0.0081145 8.419e-05 0)
(-0.0093287 9.45149e-05 0)
(-0.0106601 0.000105235 0)
(-0.0121066 0.000116105 0)
(-0.0136619 0.000126803 0)
(-0.0153152 0.000136928 0)
(-0.0170503 0.000145997 0)
(-0.0188449 0.000153445 0)
(-0.0206704 0.000158639 0)
(-0.0224913 0.000160888 0)
(-0.0242658 0.000159469 0)
(-0.0259454 0.000153664 0)
(-0.0274764 0.00014285 0)
(-0.0287976 0.000125763 0)
(-0.0298516 0.000103169 0)
(-0.0305727 7.43282e-05 0)
(-0.0309092 3.8698e-05 0)
(-0.0308121 -1.70084e-06 0)
(-0.0302299 -4.62136e-05 0)
(-0.0291469 -9.38141e-05 0)
(-0.0275592 -0.000141587 0)
(-0.0254903 -0.000186789 0)
(-0.0229923 -0.000226239 0)
(-0.0201472 -0.000256735 0)
(-0.0170643 -0.000275439 0)
(-0.013875 -0.000280327 0)
(-0.0107234 -0.000270577 0)
(-0.00775402 -0.000246828 0)
(-0.00509911 -0.000211183 0)
(-0.00286556 -0.000166943 0)
(-0.00112554 -0.00011809 0)
(8.8876e-05 -6.87801e-05 0)
(0.000785809 -2.26033e-05 0)
(0.00101251 1.69366e-05 0)
(0.000854748 4.69096e-05 0)
(0.000467174 5.83e-05 0)
(8.59638e-05 3.96498e-05 0)
(6.74249e-06 -1.71651e-05 0)
(0.000101015 -5.1346e-05 0)
(0.000256683 -6.74296e-05 0)
(0.000428795 -6.82257e-05 0)
(0.000587363 -6.01544e-05 0)
(0.000717143 -4.77789e-05 0)
(0.000811292 -3.40896e-05 0)
(0.000868766 -2.0869e-05 0)
(0.000891966 -9.04868e-06 0)
(0.000885005 9.92062e-07 0)
(0.000852452 9.27734e-06 0)
(0.000798557 1.60455e-05 0)
(0.000726727 2.16892e-05 0)
(0.000639207 2.66819e-05 0)
(0.00053692 3.15245e-05 0)
(0.00041942 3.67174e-05 0)
(0.000284906 4.27403e-05 0)
(0.000130282 5.00435e-05 0)
(-4.87825e-05 5.90509e-05 0)
(-0.000257781 7.01573e-05 0)
(-0.000503316 8.37381e-05 0)
(-0.000793059 0.000100156 0)
(-0.00113571 0.000119769 0)
(-0.00154104 0.000142948 0)
(-0.00201987 0.000170075 0)
(-0.00258417 0.000201561 0)
(-0.00324708 0.000237845 0)
(-0.00402296 0.000279397 0)
(-0.00492746 0.00032672 0)
(-0.00597753 0.000380339 0)
(-0.00719142 0.000440778 0)
(-0.00858853 0.000508526 0)
(-0.0101892 0.00058399 0)
(-0.0120144 0.000667433 0)
(-0.0140849 0.000758906 0)
(-0.0164208 0.000858162 0)
(-0.0190403 0.000964572 0)
(-0.0219586 0.00107703 0)
(-0.0251862 0.00119388 0)
(-0.0287274 0.00131282 0)
(-0.0325788 0.00143084 0)
(-0.0367267 0.00154421 0)
(-0.0411459 0.00164847 0)
(-0.0457979 0.00173843 0)
(-0.0506292 0.00180828 0)
(-0.0555702 0.00185172 0)
(-0.060535 0.00186213 0)
(-0.0654211 0.00183279 0)
(-0.0701103 0.00175725 0)
(-0.0744706 0.00162963 0)
(-0.0783587 0.00144488 0)
(-0.0816191 0.00119851 0)
(-0.0841138 0.000888814 0)
(-0.0856554 0.00052091 0)
(-0.0861522 0.000109202 0)
(-0.0854846 -0.000359531 0)
(-0.0835461 -0.000856894 0)
(-0.0803096 -0.00136582 0)
(-0.0757867 -0.00186298 0)
(-0.0700536 -0.00232138 0)
(-0.0632545 -0.00271192 0)
(-0.0556023 -0.0030061 0)
(-0.0473733 -0.00317929 0)
(-0.0388941 -0.00321421 0)
(-0.0305201 -0.00310407 0)
(-0.022609 -0.00285469 0)
(-0.01549 -0.00248481 0)
(-0.00943421 -0.00202428 0)
(-0.00463103 -0.00151054 0)
(-0.00117219 -0.000984227 0)
(0.000952459 -0.000485758 0)
(0.0018565 -5.45288e-05 0)
(0.00175695 0.00026394 0)
(0.00102696 0.000398584 0)
(0.000187862 0.000255273 0)
(1.48594e-05 -5.10166e-05 0)
(0.000159087 -0.000130074 0)
(0.000379521 -0.000167014 0)
(0.000619425 -0.000167836 0)
(0.00083732 -0.000146553 0)
(0.00101114 -0.000113948 0)
(0.0011304 -7.74755e-05 0)
(0.00119299 -4.17779e-05 0)
(0.00120197 -9.40846e-06 0)
(0.00116313 1.85432e-05 0)
(0.00108302 4.2036e-05 0)
(0.000967866 6.16526e-05 0)
(0.000822601 7.84118e-05 0)
(0.000650417 9.35627e-05 0)
(0.000452473 0.000108462 0)
(0.000227771 0.00012448 0)
(-2.68346e-05 0.00014295 0)
(-0.000316588 0.000165141 0)
(-0.000648708 0.000192249 0)
(-0.00103233 0.000225409 0)
(-0.00147842 0.000265705 0)
(-0.00199972 0.000314191 0)
(-0.00261071 0.000371915 0)
(-0.00332763 0.000439941 0)
(-0.0041685 0.000519368 0)
(-0.00515315 0.000611349 0)
(-0.00630329 0.000717091 0)
(-0.00764254 0.000837857 0)
(-0.00919644 0.000974953 0)
(-0.0109924 0.0011297 0)
(-0.0130597 0.00130334 0)
(-0.0154288 0.00149697 0)
(-0.0181315 0.00171136 0)
(-0.0211994 0.00194682 0)
(-0.0246636 0.00220297 0)
(-0.0285527 0.00247854 0)
(-0.0328914 0.00277113 0)
(-0.0376983 0.00307698 0)
(-0.0429835 0.00339075 0)
(-0.0487461 0.0037054 0)
(-0.0549713 0.004012 0)
(-0.0616278 0.00429977 0)
(-0.0686654 0.00455615 0)
(-0.0760123 0.00476692 0)
(-0.0835742 0.00491655 0)
(-0.0912327 0.00498865 0)
(-0.0988458 0.00496649 0)
(-0.106249 0.00483373 0)
(-0.113256 0.00457526 0)
(-0.119666 0.00417809 0)
(-0.125265 0.00363234 0)
(-0.129828 0.0029314 0)
(-0.133162 0.00206706 0)
(-0.13499 0.00108126 0)
(-0.13524 -4.43469e-05 0)
(-0.133693 -0.0012708 0)
(-0.13027 -0.00256442 0)
(-0.124937 -0.00387225 0)
(-0.117736 -0.00513648 0)
(-0.108796 -0.00629118 0)
(-0.0983365 -0.00726646 0)
(-0.0866703 -0.00799461 0)
(-0.0741947 -0.00841741 0)
(-0.0613737 -0.00849407 0)
(-0.0487116 -0.00820836 0)
(-0.0367168 -0.00757369 0)
(-0.025862 -0.00663421 0)
(-0.0165432 -0.0054615 0)
(-0.00904496 -0.00414695 0)
(-0.0035157 -0.00279224 0)
(4.45774e-05 -0.00150183 0)
(0.00178955 -0.000379666 0)
(0.00202742 0.000456929 0)
(0.00127807 0.000849122 0)
(0.000238558 0.000583988 0)
(2.15163e-05 -9.87253e-05 0)
(0.000203563 -0.000235256 0)
(0.000467171 -0.000295515 0)
(0.000747139 -0.000294008 0)
(0.000994997 -0.000253399 0)
(0.00118442 -0.000192113 0)
(0.00130246 -0.000123318 0)
(0.00134623 -5.54939e-05 0)
(0.00131924 6.56099e-06 0)
(0.00122845 6.07394e-05 0)
(0.0010819 0.000106834 0)
(0.000887233 0.000145905 0)
(0.000650454 0.000179836 0)
(0.000375318 0.000210977 0)
(6.29166e-05 0.000241904 0)
(-0.000288487 0.000275241 0)
(-0.00068351 0.00031357 0)
(-0.00112958 0.000359363 0)
(-0.00163688 0.000414979 0)
(-0.00221819 0.000482667 0)
(-0.00288885 0.000564589 0)
(-0.00366666 0.000662857 0)
(-0.00457187 0.000779562 0)
(-0.00562714 0.000916822 0)
(-0.0068576 0.0010768 0)
(-0.00829083 0.00126175 0)
(-0.00995692 0.00147397 0)
(-0.0118884 0.00171583 0)
(-0.0141202 0.00198973 0)
(-0.0166897 0.00229798 0)
(-0.0196358 0.0026427 0)
(-0.0229991 0.00302556 0)
(-0.0268207 0.00344752 0)
(-0.031141 0.0039085 0)
(-0.0359981 0.00440699 0)
(-0.0414257 0.00493962 0)
(-0.0474509 0.00550074 0)
(-0.054091 0.00608202 0)
(-0.0613503 0.00667208 0)
(-0.0692167 0.00725627 0)
(-0.0776587 0.00781653 0)
(-0.0866214 0.00833148 0)
(-0.0960242 0.00877666 0)
(-0.105759 0.00912503 0)
(-0.115687 0.00934768 0)
(-0.125643 0.00941479 0)
(-0.135432 0.00929678 0)
(-0.144833 0.00896565 0)
(-0.153606 0.00839656 0)
(-0.161493 0.00756946 0)
(-0.168229 0.00647083 0)
(-0.173546 0.00509503 0)
(-0.177205 0.00344065 0)
(-0.178944 0.00155029 0)
(-0.178598 -0.000550518 0)
(-0.17599 -0.00282542 0)
(-0.171041 -0.00519688 0)
(-0.163735 -0.00757436 0)
(-0.154146 -0.00985554 0)
(-0.142448 -0.0119257 0)
(-0.128918 -0.0136645 0)
(-0.113939 -0.0149561 0)
(-0.0979885 -0.0157007 0)
(-0.0816236 -0.0158281 0)
(-0.0654481 -0.0153094 0)
(-0.0500752 -0.0141659 0)
(-0.0360816 -0.012472 0)
(-0.0239595 -0.0103506 0)
(-0.0140733 -0.00796188 0)
(-0.00662595 -0.00548738 0)
(-0.00163877 -0.0031172 0)
(0.0010592 -0.00104464 0)
(0.00183302 0.000518239 0)
(0.00129511 0.00130611 0)
(0.000253357 0.000963729 0)
(2.64261e-05 -0.000158071 0)
(0.000233197 -0.000357007 0)
(0.000520366 -0.000439436 0)
(0.000816334 -0.000431403 0)
(0.00106827 -0.00036519 0)
(0.00124751 -0.000267613 0)
(0.00133983 -0.000158281 0)
(0.00134205 -5.00681e-05 0)
(0.00125815 4.95774e-05 0)
(0.001096 0.0001373 0)
(0.000864763 0.000212711 0)
(0.000573038 0.000277433 0)
(0.000227551 0.000334408 0)
(-0.00016769 0.000387353 0)
(-0.000611903 0.00044037 0)
(-0.00110778 0.00049769 0)
(-0.00166156 0.00056349 0)
(-0.00228297 0.000641814 0)
(-0.00298518 0.000736535 0)
(-0.00378467 0.00085137 0)
(-0.00470113 0.000989909 0)
(-0.00575744 0.00115566 0)
(-0.00697954 0.00135211 0)
(-0.00839648 0.00158275 0)
(-0.0100404 0.00185114 0)
(-0.0119464 0.00216091 0)
(-0.0141527 0.00251576 0)
(-0.0167004 0.00291937 0)
(-0.0196333 0.00337539 0)
(-0.0229975 0.00388723 0)
(-0.0268411 0.00445779 0)
(-0.031213 0.00508911 0)
(-0.0361617 0.00578192 0)
(-0.0417338 0.00653504 0)
(-0.0479717 0.0073448 0)
(-0.0549107 0.00820437 0)
(-0.062576 0.00910309 0)
(-0.0709788 0.0100259 0)
(-0.0801127 0.0109528 0)
(-0.0899493 0.0118587 0)
(-0.100435 0.0127134 0)
(-0.111486 0.0134816 0)
(-0.122989 0.0141239 0)
(-0.134796 0.0145975 0)
(-0.146726 0.0148579 0)
(-0.158567 0.01486 0)
(-0.170078 0.0145606 0)
(-0.180991 0.0139201 0)
(-0.191024 0.012905 0)
(-0.199882 0.0114902 0)
(-0.207267 0.00966159 0)
(-0.21289 0.00741811 0)
(-0.21649 0.00477114 0)
(-0.217818 0.00177639 0)
(-0.216684 -0.00151827 0)
(-0.212939 -0.00504492 0)
(-0.206519 -0.0086891 0)
(-0.197431 -0.0123178 0)
(-0.185778 -0.0157795 0)
(-0.171765 -0.0189064 0)
(-0.155708 -0.0215239 0)
(-0.138033 -0.0234636 0)
(-0.119265 -0.0245803 0)
(-0.100017 -0.0247699 0)
(-0.0809583 -0.0239875 0)
(-0.0627729 -0.0222604 0)
(-0.0461146 -0.0196934 0)
(-0.0315528 -0.0164647 0)
(-0.0195219 -0.0128108 0)
(-0.0102795 -0.00900546 0)
(-0.00387792 -0.0053398 0)
(-0.000147742 -0.00211376 0)
(0.00130478 0.000349666 0)
(0.0011456 0.00166601 0)
(0.000246312 0.00132876 0)
(2.94142e-05 -0.000223662 0)
(0.000248123 -0.000486943 0)
(0.000540905 -0.000588039 0)
(0.000831325 -0.00056779 0)
(0.00106409 -0.000469225 0)
(0.00120966 -0.000328054 0)
(0.00125354 -0.000170673 0)
(0.0011928 -1.46785e-05 0)
(0.00103203 0.000129611 0)
(0.000779931 0.000257496 0)
(0.000446515 0.000368397 0)
(4.10889e-05 0.000464601 0)
(-0.000429231 0.000550296 0)
(-0.000960478 0.000630807 0)
(-0.00155243 0.000712057 0)
(-0.00220891 0.000800183 0)
(-0.00293792 0.000901291 0)
(-0.00375161 0.00102132 0)
(-0.00466617 0.001166 0)
(-0.00570182 0.00134085 0)
(-0.00688262 0.00155122 0)
(-0.00823647 0.00180236 0)
(-0.00979499 0.00209945 0)
(-0.0115935 0.00244768 0)
(-0.0136709 0.00285229 0)
(-0.0160698 0.00331855 0)
(-0.0188361 0.00385174 0)
(-0.0220188 0.00445702 0)
(-0.0256701 0.00513933 0)
(-0.0298439 0.00590311 0)
(-0.034596 0.00675183 0)
(-0.0399821 0.00768747 0)
(-0.0460561 0.00870983 0)
(-0.0528683 0.00981569 0)
(-0.0604621 0.0109979 0)
(-0.0688709 0.0122446 0)
(-0.0781138 0.013538 0)
(-0.0881917 0.0148539 0)
(-0.0990824 0.0161613 0)
(-0.110737 0.0174217 0)
(-0.123074 0.0185898 0)
(-0.135981 0.0196139 0)
(-0.149306 0.0204372 0)
(-0.162863 0.0209996 0)
(-0.176431 0.0212396 0)
(-0.189757 0.0210969 0)
(-0.202559 0.0205154 0)
(-0.21454 0.0194458 0)
(-0.225386 0.0178487 0)
(-0.234781 0.0156977 0)
(-0.242416 0.0129821 0)
(-0.247999 0.00971012 0)
(-0.251268 0.00591018 0)
(-0.251992 0.00165234 0)
(-0.249987 -0.00298812 0)
(-0.245131 -0.00790698 0)
(-0.237377 -0.0129535 0)
(-0.226754 -0.017951 0)
(-0.213383 -0.022698 0)
(-0.19749 -0.0269735 0)
(-0.179405 -0.0305475 0)
(-0.159572 -0.0331975 0)
(-0.138539 -0.0347298 0)
(-0.116949 -0.0350033 0)
(-0.095508 -0.0339522 0)
(-0.0749511 -0.0316053 0)
(-0.0559918 -0.0280954 0)
(-0.0392651 -0.0236556 0)
(-0.0252709 -0.0186024 0)
(-0.0143233 -0.0133094 0)
(-0.00651453 -0.00818015 0)
(-0.0016924 -0.00363385 0)
(0.000543611 -0.00011669 0)
(0.000883433 0.00185967 0)
(0.00022632 0.00163824 0)
(3.08467e-05 -0.000291799 0)
(0.000249851 -0.00061758 0)
(0.000531621 -0.00073187 0)
(0.000796804 -0.000692555 0)
(0.000989203 -0.000554392 0)
(0.00107952 -0.000362363 0)
(0.00105386 -0.000149849 0)
(0.000910055 6.07105e-05 0)
(0.000653561 0.000256054 0)
(0.000293887 0.000430115 0)
(-0.000158231 0.00058219 0)
(-0.000693012 0.00071536 0)
(-0.00130319 0.000835238 0)
(-0.00198509 0.00094899 0)
(-0.00273925 0.00106462 0)
(-0.00357083 0.00119047 0)
(-0.00448971 0.00133487 0)
(-0.00551053 0.00150597 0)
(-0.00665264 0.00171168 0)
(-0.00793998 0.00195964 0)
(-0.00940099 0.00225729 0)
(-0.0110685 0.00261191 0)
(-0.0129798 0.0030307 0)
(-0.0151763 0.00352082 0)
(-0.0177036 0.00408943 0)
(-0.0206112 0.00474364 0)
(-0.0239524 0.00549047 0)
(-0.0277836 0.0063366 0)
(-0.0321643 0.0072882 0)
(-0.0371555 0.00835051 0)
(-0.042819 0.00952718 0)
(-0.0492153 0.0108195 0)
(-0.056402 0.0122255 0)
(-0.06443 0.0137385 0)
(-0.0733408 0.0153466 0)
(-0.083162 0.0170308 0)
(-0.0939029 0.0187641 0)
(-0.10555 0.0205108 0)
(-0.11806 0.022226 0)
(-0.131361 0.0238554 0)
(-0.145342 0.0253362 0)
(-0.159856 0.0265982 0)
(-0.174717 0.0275658 0)
(-0.1897 0.0281608 0)
(-0.204549 0.0283052 0)
(-0.218977 0.0279249 0)
(-0.232678 0.0269531 0)
(-0.245329 0.0253341 0)
(-0.256605 0.0230266 0)
(-0.266186 0.0200069 0)
(-0.273767 0.0162724 0)
(-0.279066 0.0118443 0)
(-0.28184 0.00677037 0)
(-0.281877 0.00113789 0)
(-0.279017 -0.00494847 0)
(-0.273159 -0.0113493 0)
(-0.264275 -0.0178785 0)
(-0.252404 -0.0243171 0)
(-0.237677 -0.0304161 0)
(-0.220317 -0.0359029 0)
(-0.200655 -0.0404926 0)
(-0.179131 -0.0439081 0)
(-0.156295 -0.0459047 0)
(-0.132797 -0.0462991 0)
(-0.109366 -0.044999 0)
(-0.0867734 -0.0420287 0)
(-0.0657814 -0.0375434 0)
(-0.0470863 -0.0318285 0)
(-0.0312529 -0.0252816 0)
(-0.0186564 -0.0183809 0)
(-0.00943711 -0.011651 0)
(-0.0034734 -0.00564051 0)
(-0.000374812 -0.000927881 0)
(0.000549236 0.00184173 0)
(0.000199613 0.00186824 0)
(3.09593e-05 -0.000359014 0)
(0.000239804 -0.000742097 0)
(0.000495385 -0.000862321 0)
(0.000717316 -0.000796033 0)
(0.000849923 -0.000610521 0)
(0.000865094 -0.000360336 0)
(0.000750293 -8.5898e-05 0)
(0.000504643 0.000185518 0)
(0.000134705 0.00043775 0)
(-0.000349106 0.000663447 0)
(-0.000935418 0.000861895 0)
(-0.00161413 0.00103712 0)
(-0.00237802 0.00119637 0)
(-0.0032239 0.00134886 0)
(-0.00415328 0.00150494 0)
(-0.00517278 0.00167541 0)
(-0.00629433 0.00187114 0)
(-0.00753517 0.00210278 0)
(-0.00891781 0.00238071 0)
(-0.01047 0.00271501 0)
(-0.0122244 0.0031155 0)
(-0.014219 0.00359178 0)
(-0.0164962 0.00415334 0)
(-0.0191037 0.00480955 0)
(-0.0220931 0.0055697 0)
(-0.0255209 0.00644292 0)
(-0.0294469 0.00743796 0)
(-0.0339344 0.00856298 0)
(-0.039049 0.00982523 0)
(-0.0448576 0.0112304 0)
(-0.0514264 0.0127817 0)
(-0.0588192 0.0144789 0)
(-0.0670941 0.016317 0)
(-0.0763005 0.0182849 0)
(-0.0864744 0.0203637 0)
(-0.0976345 0.0225253 0)
(-0.109776 0.0247313 0)
(-0.122867 0.0269321 0)
(-0.136843 0.0290664 0)
(-0.151602 0.0310618 0)
(-0.167003 0.0328362 0)
(-0.182866 0.0342996 0)
(-0.198971 0.0353575 0)
(-0.215061 0.035914 0)
(-0.23085 0.0358764 0)
(-0.246028 0.0351594 0)
(-0.260273 0.0336891 0)
(-0.273255 0.0314076 0)
(-0.28465 0.0282759 0)
(-0.294147 0.0242777 0)
(-0.301461 0.0194219 0)
(-0.306331 0.0137457 0)
(-0.30854 0.00731676 0)
(-0.307902 0.000241843 0)
(-0.304282 -0.00734653 0)
(-0.297598 -0.015277 0)
(-0.28783 -0.023331 0)
(-0.275021 -0.031251 0)
(-0.259293 -0.0387441 0)
(-0.240856 -0.0454888 0)
(-0.220021 -0.0511469 0)
(-0.197209 -0.0553857 0)
(-0.172953 -0.0579062 0)
(-0.147898 -0.0584775 0)
(-0.122781 -0.0569734 0)
(-0.0984021 -0.0534052 0)
(-0.0755682 -0.0479434 0)
(-0.055036 -0.0409211 0)
(-0.0374382 -0.0328157 0)
(-0.0232173 -0.0242134 0)
(-0.0125711 -0.0157668 0)
(-0.00541976 -0.00816232 0)
(-0.00139642 -0.00211829 0)
(0.000171982 0.00158156 0)
(0.000170407 0.00200466 0)
(3.00772e-05 -0.000422467 0)
(0.000219626 -0.000854345 0)
(0.000435131 -0.000971432 0)
(0.000597212 -0.000869257 0)
(0.000652091 -0.000628185 0)
(0.000573703 -0.000312483 0)
(0.000351567 3.04254e-05 0)
(-1.34308e-05 0.000368552 0)
(-0.000513335 0.00068298 0)
(-0.00113672 0.000965231 0)
(-0.00187161 0.00121475 0)
(-0.00270766 0.0014367 0)
(-0.00363789 0.00164016 0)
(-0.00465973 0.00183664 0)
(-0.00577584 0.00203907 0)
(-0.00699448 0.002261 0)
(-0.00832972 0.00251607 0)
(-0.00980147 0.00281771 0)
(-0.0114355 0.00317907 0)
(-0.0132632 0.00361294 0)
(-0.0153217 0.00413179 0)
(-0.0176536 0.00474783 0)
(-0.0203069 0.00547306 0)
(-0.0233346 0.00631928 0)
(-0.0267947 0.00729804 0)
(-0.0307495 0.00842053 0)
(-0.0352651 0.00969725 0)
(-0.0404105 0.0111377 0)
(-0.0462567 0.0127498 0)
(-0.0528746 0.0145392 0)
(-0.0603335 0.0165079 0)
(-0.0686981 0.0186533 0)
(-0.078025 0.020966 0)
(-0.0883586 0.0234285 0)
(-0.099727 0.0260133 0)
(-0.112136 0.0286812 0)
(-0.125564 0.0313799 0)
(-0.139958 0.0340435 0)
(-0.155228 0.0365924 0)
(-0.171243 0.0389344 0)
(-0.187831 0.0409669 0)
(-0.20478 0.04258 0)
(-0.22184 0.0436609 0)
(-0.238729 0.0440979 0)
(-0.25514 0.0437866 0)
(-0.270752 0.0426341 0)
(-0.285236 0.0405639 0)
(-0.29827 0.0375203 0)
(-0.309543 0.0334712 0)
(-0.318768 0.0284112 0)
(-0.325684 0.0223637 0)
(-0.330063 0.0153831 0)
(-0.331716 0.00755661 0)
(-0.330485 -0.000990008 0)
(-0.326257 -0.0100998 0)
(-0.318961 -0.0195743 0)
(-0.308578 -0.0291668 0)
(-0.295143 -0.0385862 0)
(-0.278757 -0.0475004 0)
(-0.259603 -0.0555422 0)
(-0.237957 -0.0623219 0)
(-0.214204 -0.0674501 0)
(-0.188851 -0.0705694 0)
(-0.162524 -0.0713945 0)
(-0.135961 -0.0697561 0)
(-0.109982 -0.0656428 0)
(-0.0854382 -0.0592311 0)
(-0.0631494 -0.0508949 0)
(-0.0438221 -0.0411892 0)
(-0.027974 -0.0308105 0)
(-0.0158707 -0.0205447 0)
(-0.00748519 -0.0112245 0)
(-0.00248505 -0.00371455 0)
(-0.000228686 0.0010592 0)
(0.000141285 0.0020397 0)
(2.83719e-05 -0.000479594 0)
(0.000190559 -0.000948766 0)
(0.000353401 -0.00105191 0)
(0.000440389 -0.000903979 0)
(0.000400995 -0.000598666 0)
(0.000212023 -0.000210005 0)
(-0.000134307 0.000207716 0)
(-0.000634886 0.000618013 0)
(-0.00128008 0.000999445 0)
(-0.00205731 0.00134263 0)
(-0.00295397 0.00164741 0)
(-0.00395959 0.0019203 0)
(-0.00506749 0.00217243 0)
(-0.00627592 0.00241786 0)
(-0.00758881 0.00267233 0)
(-0.00901618 0.00295237 0)
(-0.0105743 0.00327464 0)
(-0.0122859 0.00365566 0)
(-0.01418 0.00411157 0)
(-0.0162916 0.00465814 0)
(-0.0186623 0.00531074 0)
(-0.0213392 0.00608441 0)
(-0.0243753 0.00699387 0)
(-0.027829 0.00805348 0)
(-0.031764 0.00927716 0)
(-0.036248 0.0106781 0)
(-0.0413524 0.0122685 0)
(-0.0471512 0.0140588 0)
(-0.0537192 0.0160573 0)
(-0.0611302 0.0182688 0)
(-0.0694544 0.0206934 0)
(-0.0787553 0.0233245 0)
(-0.0890854 0.0261472 0)
(-0.100482 0.0291357 0)
(-0.112961 0.0322521 0)
(-0.126514 0.0354435 0)
(-0.141099 0.0386419 0)
(-0.15664 0.041763 0)
(-0.173019 0.0447072 0)
(-0.190077 0.0473616 0)
(-0.207612 0.0496029 0)
(-0.225386 0.0513021 0)
(-0.243123 0.0523298 0)
(-0.260524 0.0525618 0)
(-0.27727 0.0518854 0)
(-0.293039 0.0502048 0)
(-0.30751 0.0474456 0)
(-0.320376 0.0435588 0)
(-0.331355 0.0385231 0)
(-0.340186 0.0323468 0)
(-0.346645 0.0250691 0)
(-0.350537 0.0167613 0)
(-0.351701 0.00752861 0)
(-0.350005 -0.00248663 0)
(-0.345352 -0.0131078 0)
(-0.337676 -0.0241153 0)
(-0.32695 -0.0352396 0)
(-0.31319 -0.0461617 0)
(-0.296468 -0.0565156 0)
(-0.276924 -0.0658922 0)
(-0.25479 -0.0738514 0)
(-0.230405 -0.0799457 0)
(-0.204234 -0.0837553 0)
(-0.176876 -0.0849324 0)
(-0.149061 -0.0832542 0)
(-0.121626 -0.0786745 0)
(-0.0954665 -0.0713646 0)
(-0.0714665 -0.0617308 0)
(-0.0504149 -0.0504017 0)
(-0.0329153 -0.038185 0)
(-0.0193121 -0.0260061 0)
(-0.00964259 -0.0148511 0)
(-0.00361882 -0.00573821 0)
(-0.000640731 0.000261118 0)
(0.000113611 0.00196997 0)
(2.60441e-05 -0.0005283 0)
(0.000153836 -0.00102041 0)
(0.000252547 -0.00109709 0)
(0.000250434 -0.000892554 0)
(0.000101442 -0.000513882 0)
(-0.000213883 -4.47501e-05 0)
(-0.000700012 0.000453933 0)
(-0.00135117 0.000941482 0)
(-0.00215576 0.00139424 0)
(-0.00309991 0.00180223 0)
(-0.00417035 0.00216593 0)
(-0.00535651 0.0024935 0)
(-0.00665214 0.00279835 0)
(-0.00805642 0.00309732 0)
(-0.00957465 0.00340922 0)
(-0.0112187 0.00375378 0)
(-0.0130073 0.00415096 0)
(-0.0149658 0.00462054 0)
(-0.0171265 0.00518193 0)
(-0.0195282 0.0058541 0)
(-0.0222165 0.00665556 0)
(-0.0252429 0.00760434 0)
(-0.0286654 0.00871804 0)
(-0.0325473 0.0100137 0)
(-0.0369571 0.0115075 0)
(-0.0419676 0.0132148 0)
(-0.0476545 0.0151489 0)
(-0.0540956 0.0173211 0)
(-0.0613683 0.0197393 0)
(-0.0695474 0.0224068 0)
(-0.0787024 0.0253205 0)
(-0.0888932 0.0284687 0)
(-0.100166 0.0318291 0)
(-0.112547 0.0353661 0)
(-0.12604 0.039029 0)
(-0.140618 0.0427497 0)
(-0.156217 0.0464421 0)
(-0.172736 0.0500022 0)
(-0.19003 0.0533093 0)
(-0.207913 0.0562294 0)
(-0.226159 0.0586194 0)
(-0.244502 0.060333 0)
(-0.262654 0.061227 0)
(-0.280303 0.0611686 0)
(-0.297131 0.0600413 0)
(-0.312824 0.0577511 0)
(-0.32708 0.0542303 0)
(-0.339618 0.0494407 0)
(-0.350187 0.0433745 0)
(-0.358564 0.0360555 0)
(-0.36456 0.0275386 0)
(-0.368013 0.0179106 0)
(-0.36879 0.00729148 0)
(-0.366781 -0.00416335 0)
(-0.361897 -0.0162633 0)
(-0.354071 -0.0287739 0)
(-0.343262 -0.0414089 0)
(-0.329458 -0.0538275 0)
(-0.312691 -0.065635 0)
(-0.293055 -0.0763843 0)
(-0.270724 -0.0855864 0)
(-0.245984 -0.0927349 0)
(-0.219247 -0.0973424 0)
(-0.191075 -0.0989903 0)
(-0.162181 -0.0973906 0)
(-0.133413 -0.0924485 0)
(-0.105709 -0.0843165 0)
(-0.0800231 -0.0734227 0)
(-0.057234 -0.0604633 0)
(-0.0380432 -0.0463577 0)
(-0.0228871 -0.0321759 0)
(-0.0118793 -0.0190662 0)
(-0.00478675 -0.00820825 0)
(-0.00105795 -0.000822607 0)
(8.79374e-05 0.00179425 0)
(2.31834e-05 -0.000566684 0)
(0.000110329 -0.0010648 0)
(0.000134512 -0.0011009 0)
(3.0406e-05 -0.000827969 0)
(-0.000242301 -0.000366385 0)
(-0.000698537 0.000190807 0)
(-0.00133885 0.000776415 0)
(-0.00215438 0.00134593 0)
(-0.00313127 0.00187386 0)
(-0.00425422 0.00234998 0)
(-0.00550923 0.00277575 0)
(-0.00688568 0.00316123 0)
(-0.00837781 0.00352241 0)
(-0.00998581 0.00387914 0)
(-0.0117165 0.00425351 0)
(-0.0135837 0.00466872 0)
(-0.0156085 0.00514821 0)
(-0.0178191 0.00571527 0)
(-0.020251 0.00639278 0)
(-0.0229465 0.00720312 0)
(-0.0259552 0.00816809 0)
(-0.029333 0.0093089 0)
(-0.0331421 0.0106461 0)
(-0.0374503 0.0121994 0)
(-0.0423307 0.0139873 0)
(-0.04786 0.0160269 0)
(-0.0541174 0.0183326 0)
(-0.061183 0.0209157 0)
(-0.0691356 0.0237832 0)
(-0.0780494 0.0269359 0)
(-0.087991 0.0303663 0)
(-0.0990144 0.0340561 0)
(-0.111157 0.037974 0)
(-0.124434 0.0420727 0)
(-0.138831 0.0462868 0)
(-0.154301 0.050531 0)
(-0.17076 0.0546999 0)
(-0.18808 0.0586683 0)
(-0.206091 0.0622945 0)
(-0.224582 0.0654238 0)
(-0.243304 0.067895 0)
(-0.261977 0.069547 0)
(-0.280301 0.070227 0)
(-0.297964 0.0697973 0)
(-0.314658 0.068143 0)
(-0.330086 0.0651762 0)
(-0.343971 0.0608402 0)
(-0.356068 0.0551103 0)
(-0.366161 0.0479946 0)
(-0.374066 0.0395324 0)
(-0.379628 0.0297932 0)
(-0.382718 0.0188764 0)
(-0.383226 0.00691326 0)
(-0.381058 -0.00593224 0)
(-0.37613 -0.0194614 0)
(-0.368369 -0.0334315 0)
(-0.357712 -0.0475456 0)
(-0.344115 -0.061447 0)
(-0.327568 -0.0747183 0)
(-0.308108 -0.0868782 0)
(-0.285849 -0.0973913 0)
(-0.26101 -0.105691 0)
(-0.233944 -0.111218 0)
(-0.205165 -0.113475 0)
(-0.175359 -0.112095 0)
(-0.145378 -0.106919 0)
(-0.116198 -0.0980657 0)
(-0.0888449 -0.0859708 0)
(-0.0642973 -0.0713905 0)
(-0.0433671 -0.0553544 0)
(-0.0265978 -0.0390828 0)
(-0.0141931 -0.0238953 0)
(-0.00598582 -0.0111429 0)
(-0.00147845 -0.0022002 0)
(6.4414e-05 0.00151238 0)
(1.99023e-05 -0.000593161 0)
(6.08682e-05 -0.00107795 0)
(1.04346e-06 -0.00105773 0)
(-0.000216927 -0.000703744 0)
(-0.000626396 -0.000149282 0)
(-0.00123699 0.00050362 0)
(-0.00204474 0.00118192 0)
(-0.00303725 0.00183774 0)
(-0.00419816 0.00244421 0)
(-0.00551059 0.00299125 0)
(-0.00695977 0.0034817 0)
(-0.008535 0.00392781 0)
(-0.0102311 0.00434844 0)
(-0.0120494 0.00476669 0)
(-0.0139982 0.0052082 0)
(-0.0160935 0.00569981 0)
(-0.0183586 0.00626867 0)
(-0.0208246 0.00694177 0)
(-0.02353 0.00774565 0)
(-0.0265209 0.00870624 0)
(-0.0298504 0.0098488 0)
(-0.0335782 0.0111978 0)
(-0.0377708 0.0127767 0)
(-0.0424999 0.014608 0)
(-0.0478421 0.0167124 0)
(-0.0538773 0.0191082 0)
(-0.0606872 0.0218105 0)
(-0.068353 0.0248303 0)
(-0.0769532 0.0281725 0)
(-0.0865596 0.0318345 0)
(-0.0972339 0.0358029 0)
(-0.109023 0.0400517 0)
(-0.121952 0.0445385 0)
(-0.136023 0.0492026 0)
(-0.151203 0.0539623 0)
(-0.167426 0.0587135 0)
(-0.184583 0.0633303 0)
(-0.202522 0.0676662 0)
(-0.22105 0.0715585 0)
(-0.239935 0.0748335 0)
(-0.258912 0.0773142 0)
(-0.27769 0.0788284 0)
(-0.295968 0.0792174 0)
(-0.313443 0.0783441 0)
(-0.329823 0.076099 0)
(-0.344835 0.0724051 0)
(-0.358238 0.0672194 0)
(-0.36982 0.0605337 0)
(-0.379405 0.0523718 0)
(-0.386847 0.0427881 0)
(-0.392025 0.0318645 0)
(-0.394836 0.0197099 0)
(-0.395192 0.00646222 0)
(-0.393009 -0.00771035 0)
(-0.388205 -0.0226068 0)
(-0.380695 -0.0379822 0)
(-0.370394 -0.0535351 0)
(-0.357225 -0.0688992 0)
(-0.341131 -0.0836396 0)
(-0.32209 -0.0972461 0)
(-0.300151 -0.109139 0)
(-0.275459 -0.118694 0)
(-0.248298 -0.125273 0)
(-0.219123 -0.128292 0)
(-0.188581 -0.127294 0)
(-0.157516 -0.122039 0)
(-0.126937 -0.11259 0)
(-0.097943 -0.0993761 0)
(-0.0716183 -0.0832016 0)
(-0.0488992 -0.0652036 0)
(-0.0304527 -0.0467577 0)
(-0.0165887 -0.0293653 0)
(-0.00721857 -0.0145608 0)
(-0.00190334 -0.00387998 0)
(4.28399e-05 0.00112425 0)
(1.62424e-05 -0.000606246 0)
(6.0162e-06 -0.0010562 0)
(-0.00014648 -0.000962486 0)
(-0.000489228 -0.000513923 0)
(-0.00104748 0.000143773 0)
(-0.00182481 0.00090007 0)
(-0.00281211 0.00167661 0)
(-0.00399308 0.00242269 0)
(-0.00534859 0.00311058 0)
(-0.00686 0.00373082 0)
(-0.00851173 0.00428799 0)
(-0.010293 0.00479693 0)
(-0.0121993 0.00527962 0)
(-0.014233 0.0057627 0)
(-0.0164043 0.00627557 0)
(-0.0187309 0.00684891 0)
(-0.0212388 0.00751377 0)
(-0.0239616 0.00830101 0)
(-0.0269412 0.00924098 0)
(-0.0302266 0.0103633 0)
(-0.0338745 0.0116968 0)
(-0.0379483 0.0132691 0)
(-0.0425178 0.0151069 0)
(-0.0476582 0.0172351 0)
(-0.053449 0.0196761 0)
(-0.0599722 0.0224496 0)
(-0.0673107 0.0255705 0)
(-0.0755456 0.0290488 0)
(-0.0847534 0.0328866 0)
(-0.095002 0.0370763 0)
(-0.106346 0.0415978 0)
(-0.118823 0.0464151 0)
(-0.132447 0.0514739 0)
(-0.147201 0.056698 0)
(-0.163036 0.0619878 0)
(-0.179863 0.0672197 0)
(-0.197551 0.0722463 0)
(-0.215926 0.0769003 0)
(-0.234775 0.0809991 0)
(-0.253849 0.084352 0)
(-0.272872 0.0867695 0)
(-0.291552 0.0880723 0)
(-0.309594 0.0881004 0)
(-0.326708 0.0867215 0)
(-0.342628 0.0838362 0)
(-0.357111 0.0793813 0)
(-0.36995 0.0733306 0)
(-0.380974 0.0656924 0)
(-0.390043 0.0565068 0)
(-0.397046 0.0458414 0)
(-0.401894 0.0337879 0)
(-0.404508 0.0204604 0)
(-0.404814 0.00600009 0)
(-0.402738 -0.00942543 0)
(-0.398194 -0.025618 0)
(-0.39109 -0.042336 0)
(-0.381317 -0.0592796 0)
(-0.368763 -0.0760787 0)
(-0.353325 -0.0922867 0)
(-0.334924 -0.10737 0)
(-0.313536 -0.120711 0)
(-0.289231 -0.131623 0)
(-0.262213 -0.139394 0)
(-0.232863 -0.143344 0)
(-0.201778 -0.142909 0)
(-0.169781 -0.137751 0)
(-0.137903 -0.12786 0)
(-0.107312 -0.113634 0)
(-0.079203 -0.0959125 0)
(-0.0546507 -0.0759337 0)
(-0.0344634 -0.0552329 0)
(-0.0190752 -0.0355047 0)
(-0.00849097 -0.0184818 0)
(-0.00233582 -0.00587142 0)
(2.2847e-05 0.000629101 0)
(1.22598e-05 -0.00060468 0)
(-5.36897e-05 -0.000996241 0)
(-0.000306816 -0.000810463 0)
(-0.00078441 -0.000252996 0)
(-0.00150256 0.000518639 0)
(-0.00245799 0.00138603 0)
(-0.00363592 0.00226612 0)
(-0.00501575 0.00310603 0)
(-0.00657529 0.00387771 0)
(-0.00829404 0.00457286 0)
(-0.0101555 0.00519824 0)
(-0.012149 0.00577163 0)
(-0.0142704 0.00631847 0)
(-0.0165235 0.00686918 0)
(-0.01892 0.00745714 0)
(-0.0214798 0.00811707 0)
(-0.0242312 0.00888405 0)
(-0.0272107 0.00979298 0)
(-0.0304626 0.0108781 0)
(-0.0340395 0.0121729 0)
(-0.0380009 0.0137097 0)
(-0.0424135 0.0155195 0)
(-0.04735 0.0176318 0)
(-0.0528883 0.0200737 0)
(-0.0591098 0.0228695 0)
(-0.0660979 0.0260392 0)
(-0.0739353 0.0295973 0)
(-0.0827017 0.0335517 0)
(-0.09247 0.0379008 0)
(-0.103303 0.042631 0)
(-0.115246 0.0477136 0)
(-0.128326 0.0531018 0)
(-0.142542 0.0587271 0)
(-0.157862 0.0644968 0)
(-0.174215 0.0702924 0)
(-0.191494 0.0759697 0)
(-0.209544 0.0813602 0)
(-0.228175 0.0862764 0)
(-0.247155 0.0905177 0)
(-0.266225 0.0938794 0)
(-0.285104 0.096163 0)
(-0.303505 0.0971862 0)
(-0.321145 0.0967924 0)
(-0.337756 0.0948581 0)
(-0.3531 0.0912975 0)
(-0.366967 0.0860641 0)
(-0.379189 0.0791493 0)
(-0.38963 0.0705786 0)
(-0.398187 0.0604068 0)
(-0.404779 0.0487129 0)
(-0.409346 0.0355954 0)
(-0.411829 0.0211702 0)
(-0.412167 0.0055776 0)
(-0.410292 -0.0110194 0)
(-0.406115 -0.0284299 0)
(-0.399536 -0.0464202 0)
(-0.390427 -0.064698 0)
(-0.378643 -0.0828952 0)
(-0.364036 -0.10056 0)
(-0.346471 -0.117143 0)
(-0.325853 -0.131989 0)
(-0.30217 -0.144361 0)
(-0.275537 -0.153465 0)
(-0.246252 -0.15852 0)
(-0.214842 -0.158846 0)
(-0.182094 -0.153987 0)
(-0.149045 -0.143834 0)
(-0.116927 -0.128731 0)
(-0.087047 -0.109533 0)
(-0.0606289 -0.0875706 0)
(-0.0386415 -0.0645404 0)
(-0.0216637 -0.0423433 0)
(-0.00981042 -0.0229269 0)
(-0.00278049 -0.00818636 0)
(3.9094e-06 2.50829e-05 0)
(7.96539e-06 -0.00058724 0)
(-0.000117903 -0.000895025 0)
(-0.000479005 -0.000597333 0)
(-0.00110074 8.41066e-05 0)
(-0.00198901 0.00098069 0)