/*--------------------------------*- C++ -*----------------------------------*\
  =========                 |
  \\      /  F ield         | OpenFOAM: The Open Source CFD Toolbox
   \\    /   O peration     | Website:  https://openfoam.org
    \\  /    A nd           | Version:  12
     \\/     M anipulation  |
\*---------------------------------------------------------------------------*/
FoamFile
{
    format      ascii;
    class       volScalarField;
    location    "5.5";
    object      k;
}
// * * * * * * * * * * * * * * * * * * * * * * * * * * * * * * * * * * * * * //

dimensions      [0 2 -2 0 0 0 0];

internalField   nonuniform List<scalar> 
5625
(
1.32119e-13
8.9302e-13
1.98068e-12
3.26084e-12
4.66467e-12
6.14475e-12
7.66433e-12
9.19376e-12
1.07091e-11
1.21914e-11
1.36267e-11
1.50052e-11
1.63219e-11
1.75755e-11
1.87684e-11
1.99059e-11
2.0996e-11
2.20484e-11
2.3074e-11
2.40845e-11
2.50917e-11
2.61074e-11
2.71426e-11
2.82079e-11
2.9313e-11
3.04666e-11
3.16768e-11
3.29506e-11
3.42941e-11
3.57129e-11
3.72114e-11
3.87937e-11
4.04626e-11
4.22206e-11
4.4069e-11
4.60083e-11
4.80376e-11
5.01552e-11
5.23573e-11
5.46385e-11
5.69913e-11
5.94051e-11
6.18662e-11
6.43572e-11
6.68561e-11
6.93355e-11
7.17624e-11
7.40971e-11
7.62928e-11
7.82955e-11
8.00434e-11
8.14666e-11
8.24821e-11
8.29815e-11
8.30124e-11
8.24291e-11
8.11571e-11
7.91518e-11
7.63919e-11
7.28826e-11
6.86599e-11
6.37931e-11
5.83844e-11
5.25646e-11
4.64856e-11
4.03094e-11
3.41961e-11
2.82918e-11
2.27189e-11
1.75706e-11
1.2911e-11
8.78327e-12
5.22857e-12
2.3294e-12
3.43743e-13
9.98368e-13
7.9523e-12
1.7771e-11
2.93053e-11
4.1947e-11
5.52719e-11
6.89503e-11
8.27158e-11
9.63532e-11
1.09693e-10
1.22607e-10
1.35011e-10
1.46857e-10
1.58134e-10
1.68865e-10
1.79097e-10
1.88901e-10
1.98366e-10
2.0759e-10
2.16678e-10
2.25737e-10
2.34871e-10
2.44181e-10
2.53763e-10
2.63702e-10
2.74079e-10
2.84964e-10
2.96422e-10
3.08507e-10
3.21269e-10
3.34749e-10
3.48982e-10
3.63996e-10
3.7981e-10
3.96438e-10
4.13883e-10
4.32139e-10
4.51189e-10
4.71e-10
4.91524e-10
5.12691e-10
5.34408e-10
5.56552e-10
5.78966e-10
6.01453e-10
6.23766e-10
6.45609e-10
6.66625e-10
6.86393e-10
7.04428e-10
7.20174e-10
7.33003e-10
7.42169e-10
7.46659e-10
7.46927e-10
7.41652e-10
7.30175e-10
7.12098e-10
6.87231e-10
6.55624e-10
6.176e-10
5.73787e-10
5.25103e-10
4.72728e-10
4.18027e-10
3.62458e-10
3.0746e-10
2.54348e-10
2.0422e-10
1.57914e-10
1.16002e-10
7.88693e-11
4.68748e-11
2.07279e-11
2.59601e-12
2.11949e-12
1.81505e-11
4.08263e-11
6.74665e-11
9.66587e-11
1.27423e-10
1.58999e-10
1.90771e-10
2.22242e-10
2.53021e-10
2.82814e-10
3.11425e-10
3.38744e-10
3.64748e-10
3.89486e-10
4.13073e-10
4.35673e-10
4.5749e-10
4.78752e-10
4.99702e-10
5.20587e-10
5.41649e-10
5.63123e-10
5.85224e-10
6.08157e-10
6.32102e-10
6.57226e-10
6.83675e-10
7.11578e-10
7.41047e-10
7.72178e-10
8.05051e-10
8.39731e-10
8.76264e-10
9.1468e-10
9.54986e-10
9.97167e-10
1.04118e-09
1.08696e-09
1.13438e-09
1.18328e-09
1.23344e-09
1.28459e-09
1.33635e-09
1.38826e-09
1.43975e-09
1.49014e-09
1.5386e-09
1.58416e-09
1.62568e-09
1.6619e-09
1.69138e-09
1.71238e-09
1.72246e-09
1.72303e-09
1.71075e-09
1.68414e-09
1.6423e-09
1.5848e-09
1.51174e-09
1.4239e-09
1.3227e-09
1.21028e-09
1.08936e-09
9.63099e-10
8.3487e-10
7.07996e-10
5.85511e-10
4.69948e-10
3.63229e-10
2.66666e-10
1.81125e-10
1.07422e-10
4.71959e-11
5.49755e-12
3.4647e-12
3.04079e-11
6.87282e-11
1.13807e-10
1.63216e-10
2.15282e-10
2.68714e-10
3.22469e-10
3.75705e-10
4.27759e-10
4.78133e-10
5.26495e-10
5.72664e-10
6.16598e-10
6.58386e-10
6.98223e-10
7.36389e-10
7.73232e-10
8.0914e-10
8.44526e-10
8.7981e-10
9.15404e-10
9.51701e-10
9.89073e-10
1.02786e-09
1.06837e-09
1.11089e-09
1.15566e-09
1.2029e-09
1.2528e-09
1.30552e-09
1.3612e-09
1.41994e-09
1.48183e-09
1.54691e-09
1.61518e-09
1.68663e-09
1.76118e-09
1.8387e-09
1.91898e-09
2.00175e-09
2.08664e-09
2.17314e-09
2.26065e-09
2.34837e-09
2.43534e-09
2.52039e-09
2.60212e-09
2.6789e-09
2.74883e-09
2.80977e-09
2.85932e-09
2.89449e-09
2.91105e-09
2.91192e-09
2.89098e-09
2.84581e-09
2.77491e-09
2.67754e-09
2.55389e-09
2.4052e-09
2.23392e-09
2.04364e-09
1.839e-09
1.62535e-09
1.40842e-09
1.19387e-09
9.86839e-10
7.91626e-10
6.11464e-10
4.48545e-10
3.043e-10
1.80092e-10
7.87397e-11
8.94836e-12
4.99182e-12
4.42493e-11
1.0036e-10
1.66484e-10
2.38998e-10
3.15419e-10
3.93838e-10
4.72719e-10
5.5082e-10
6.27165e-10
7.01026e-10
7.71913e-10
8.39563e-10
9.0392e-10
9.65116e-10
1.02344e-09
1.07932e-09
1.13326e-09
1.18583e-09
1.23766e-09
1.28934e-09
1.34151e-09
1.39472e-09
1.44953e-09
1.50644e-09
1.5659e-09
1.62832e-09
1.69406e-09
1.76345e-09
1.83676e-09
1.91422e-09
1.99604e-09
2.08235e-09
2.17328e-09
2.26888e-09
2.36917e-09
2.47409e-09
2.58352e-09
2.69726e-09
2.815e-09
2.93631e-09
3.06064e-09
3.18726e-09
3.31523e-09
3.4434e-09
3.57036e-09
3.69441e-09
3.81351e-09
3.92529e-09
4.02701e-09
4.11557e-09
4.18755e-09
4.23846e-09
4.26202e-09
4.26323e-09
4.23249e-09
4.16631e-09
4.06251e-09
3.91996e-09
3.73888e-09
3.52103e-09
3.26994e-09
2.99088e-09
2.69066e-09
2.3772e-09
2.05896e-09
1.74434e-09
1.44093e-09
1.15505e-09
8.91455e-10
6.53307e-10
4.42653e-10
2.61459e-10
1.13907e-10
1.28153e-11
6.67139e-12
5.94186e-11
1.35098e-10
2.24446e-10
3.22498e-10
4.25856e-10
5.31912e-10
6.38576e-10
7.44159e-10
8.47338e-10
9.47123e-10
1.04285e-09
1.13418e-09
1.22102e-09
1.30358e-09
1.38224e-09
1.45759e-09
1.53033e-09
1.60124e-09
1.67116e-09
1.74092e-09
1.81135e-09
1.88324e-09
1.95732e-09
2.03427e-09
2.1147e-09
2.19916e-09
2.28814e-09
2.38207e-09
2.48132e-09
2.58619e-09
2.69694e-09
2.81377e-09
2.93681e-09
3.06613e-09
3.20173e-09
3.34351e-09
3.49128e-09
3.64475e-09
3.80348e-09
3.96687e-09
4.13413e-09
4.30427e-09
4.47603e-09
4.64786e-09
4.81785e-09
4.98375e-09
5.14287e-09
5.29206e-09
5.42772e-09
5.54578e-09
5.64172e-09
5.70943e-09
5.74046e-09
5.7422e-09
5.70108e-09
5.61238e-09
5.47313e-09
5.2817e-09
5.03822e-09
4.74494e-09
4.40651e-09
4.03e-09
3.62463e-09
3.20118e-09
2.77126e-09
2.3463e-09
1.93674e-09
1.55119e-09
1.19607e-09
8.7562e-10
5.92522e-10
3.4937e-10
1.51801e-10
1.69974e-11
8.48453e-12
7.57614e-11
1.72563e-10
2.87038e-10
4.12764e-10
5.45331e-10
6.81363e-10
8.18153e-10
9.53525e-10
1.08577e-09
1.21361e-09
1.3362e-09
1.45309e-09
1.5642e-09
1.66978e-09
1.77036e-09
1.86669e-09
1.95969e-09
2.05036e-09
2.1398e-09
2.22907e-09
2.31925e-09
2.41134e-09
2.50628e-09
2.60495e-09
2.70812e-09
2.81649e-09
2.93069e-09
3.05124e-09
3.17861e-09
3.31318e-09
3.45525e-09
3.60507e-09
3.76277e-09
3.92841e-09
4.10195e-09
4.28323e-09
4.47199e-09
4.66778e-09
4.87001e-09
5.07788e-09
5.29038e-09
5.50619e-09
5.72372e-09
5.941e-09
6.15567e-09
6.36491e-09
6.56537e-09
6.75318e-09
6.92388e-09
7.07243e-09
7.19324e-09
7.27851e-09
7.31752e-09
7.32021e-09
7.26875e-09
7.15692e-09
6.98088e-09
6.73832e-09
6.42914e-09
6.05598e-09
5.62461e-09
5.14395e-09
4.62581e-09
4.08412e-09
3.53392e-09
2.99011e-09
2.46623e-09
1.97349e-09
1.52017e-09
1.11165e-09
7.51292e-10
4.42307e-10
1.91791e-10
2.14222e-11
1.04191e-11
9.31781e-11
2.12508e-10
3.5383e-10
5.0916e-10
6.72999e-10
8.41129e-10
1.01017e-09
1.17742e-09
1.34074e-09
1.49855e-09
1.6498e-09
1.79394e-09
1.93088e-09
2.06095e-09
2.18482e-09
2.30344e-09
2.41795e-09
2.52963e-09
2.63982e-09
2.74987e-09
2.86109e-09
2.97473e-09
3.09195e-09
3.21382e-09
3.34129e-09
3.47522e-09
3.61635e-09
3.76532e-09
3.92268e-09
4.08888e-09
4.26426e-09
4.44907e-09
4.64344e-09
4.8474e-09
5.06084e-09
5.28352e-09
5.51503e-09
5.75478e-09
6.00201e-09
6.25567e-09
6.51449e-09
6.77687e-09
7.04086e-09
7.30411e-09
7.5638e-09
7.81661e-09
8.0586e-09
8.28521e-09
8.49118e-09
8.67052e-09
8.81659e-09
8.92001e-09
8.96761e-09
8.97182e-09
8.91057e-09
8.77577e-09
8.56258e-09
8.26787e-09
7.89115e-09
7.43531e-09
6.90716e-09
6.31753e-09
5.68092e-09
5.01461e-09
4.33734e-09
3.66777e-09
3.0229e-09
2.41678e-09
1.85975e-09
1.35847e-09
9.16985e-10
5.39127e-10
2.334e-10
2.60332e-11
1.2467e-11
1.11603e-10
2.54771e-10
4.24533e-10
6.11259e-10
8.08282e-10
1.01048e-09
1.21375e-09
1.4148e-09
1.61105e-09
1.80058e-09
1.98212e-09
2.15502e-09
2.31919e-09
2.47505e-09
2.62342e-09
2.76547e-09
2.9026e-09
3.03637e-09
3.1684e-09
3.30033e-09
3.43373e-09
3.5701e-09
3.71084e-09
3.85721e-09
4.01035e-09
4.17124e-09
4.34077e-09
4.51968e-09
4.70859e-09
4.90797e-09
5.11821e-09
5.33953e-09
5.57204e-09
5.81569e-09
6.07029e-09
6.33545e-09
6.61062e-09
6.89504e-09
7.18771e-09
7.48738e-09
7.79249e-09
8.10116e-09
8.41114e-09
8.71972e-09
9.02369e-09
9.3193e-09
9.60208e-09
9.86686e-09
1.01076e-08
1.03176e-08
1.04889e-08
1.06109e-08
1.06676e-08
1.0674e-08
1.06037e-08
1.04466e-08
1.01965e-08
9.84955e-09
9.40461e-09
8.86473e-09
8.23767e-09
7.53612e-09
6.77731e-09
5.98196e-09
5.1727e-09
4.37219e-09
3.60115e-09
2.87673e-09
2.21156e-09
1.61374e-09
1.08804e-09
6.38937e-10
2.76256e-10
3.07872e-11
1.46233e-11
1.3099e-10
2.99245e-10
4.98955e-10
7.18768e-10
9.5078e-10
1.1889e-09
1.42826e-09
1.66493e-09
1.89583e-09
2.1187e-09
2.33204e-09
2.53508e-09
2.72773e-09
2.91052e-09
3.08446e-09
3.25094e-09
3.41165e-09
3.56845e-09
3.72327e-09
3.87802e-09
4.03459e-09
4.19473e-09
4.36006e-09
4.53204e-09
4.71198e-09
4.90104e-09
5.10018e-09
5.31023e-09
5.53187e-09
5.76561e-09
6.0118e-09
6.27065e-09
6.54218e-09
6.82624e-09
7.12252e-09
7.43047e-09
7.74937e-09
8.07825e-09
8.41588e-09
8.76078e-09
9.11116e-09
9.46487e-09
9.81941e-09
1.01718e-08
1.05185e-08
1.08553e-08
1.11775e-08
1.14793e-08
1.1754e-08
1.19938e-08
1.21901e-08
1.23307e-08
1.2397e-08
1.2406e-08
1.23275e-08
1.21486e-08
1.18623e-08
1.14635e-08
1.09506e-08
1.03265e-08
9.60001e-09
8.78543e-09
7.90269e-09
6.97593e-09
6.03174e-09
5.09688e-09
4.196e-09
3.34961e-09
2.57289e-09
1.87555e-09
1.26322e-09
7.41026e-10
3.20057e-10
3.56498e-11
1.68842e-11
1.5131e-10
3.45857e-10
5.76968e-10
8.3149e-10
1.10022e-09
1.37605e-09
1.65327e-09
1.92728e-09
2.19447e-09
2.45219e-09
2.69871e-09
2.93313e-09
3.1554e-09
3.36614e-09
3.56657e-09
3.75835e-09
3.94346e-09
4.12409e-09
4.30248e-09
4.48089e-09
4.66146e-09
4.84622e-09
5.03702e-09
5.23553e-09
5.44322e-09
5.66137e-09
5.89104e-09
6.13314e-09
6.38835e-09
6.65719e-09
6.93997e-09
7.23683e-09
7.54768e-09
7.87225e-09
8.21006e-09
8.56039e-09
8.9223e-09
9.29462e-09
9.67591e-09
1.00645e-08
1.04583e-08
1.08551e-08
1.12521e-08
1.16461e-08
1.20334e-08
1.24096e-08
1.27694e-08
1.31066e-08
1.34139e-08
1.36827e-08
1.39032e-08
1.40621e-08
1.41378e-08
1.41496e-08
1.40631e-08
1.38629e-08
1.3541e-08
1.30912e-08
1.25112e-08
1.18039e-08
1.09788e-08
1.00518e-08
9.04539e-09
7.98688e-09
6.90674e-09
5.8359e-09
4.80303e-09
3.83223e-09
2.94147e-09
2.14235e-09
1.44152e-09
8.44822e-10
3.64562e-10
4.05936e-11
1.92475e-11
1.72545e-10
3.94562e-10
6.58488e-10
9.49297e-10
1.25643e-09
1.57168e-09
1.88847e-09
2.20146e-09
2.50649e-09
2.8005e-09
3.08147e-09
3.34843e-09
3.60131e-09
3.84089e-09
4.0686e-09
4.2864e-09
4.4966e-09
4.70172e-09
4.90435e-09
5.10706e-09
5.31231e-09
5.52239e-09
5.73937e-09
5.96512e-09
6.20126e-09
6.44917e-09
6.71001e-09
6.98471e-09
7.27396e-09
7.57824e-09
7.8978e-09
8.23265e-09
8.58259e-09
8.94718e-09
9.32575e-09
9.71739e-09
1.0121e-08
1.05351e-08
1.09581e-08
1.13882e-08
1.18232e-08
1.22606e-08
1.26975e-08
1.31308e-08
1.35563e-08
1.39696e-08
1.4365e-08
1.4736e-08
1.50744e-08
1.53709e-08
1.56145e-08
1.57906e-08
1.58751e-08
1.58893e-08
1.57945e-08
1.5573e-08
1.52159e-08
1.47159e-08
1.40702e-08
1.32816e-08
1.236e-08
1.13229e-08
1.01947e-08
9.00601e-09
7.79077e-09
6.58396e-09
5.41836e-09
4.32183e-09
3.31541e-09
2.41287e-09
1.62214e-09
9.4987e-10
4.09578e-10
4.55965e-11
2.17118e-11
1.94682e-10
4.45333e-10
7.43468e-10
1.07211e-09
1.41928e-09
1.77564e-09
2.13365e-09
2.48722e-09
2.83157e-09
3.16319e-09
3.47981e-09
3.78032e-09
4.0647e-09
4.33388e-09
4.58954e-09
4.83395e-09
5.06978e-09
5.2999e-09
5.52727e-09
5.7548e-09
5.98524e-09
6.22115e-09
6.46483e-09
6.71831e-09
6.98336e-09
7.26146e-09
7.55381e-09
7.86136e-09
8.18476e-09
8.52443e-09
8.88051e-09
9.25289e-09
9.6412e-09
1.00448e-08
1.04629e-08
1.08943e-08
1.13377e-08
1.17915e-08
1.2254e-08
1.27231e-08
1.31967e-08
1.36721e-08
1.41465e-08
1.46164e-08
1.50779e-08
1.55261e-08
1.59552e-08
1.6358e-08
1.67258e-08
1.70484e-08
1.73136e-08
1.75051e-08
1.75969e-08
1.76125e-08
1.75083e-08
1.72651e-08
1.68728e-08
1.63235e-08
1.56138e-08
1.47464e-08
1.37315e-08
1.25878e-08
1.13415e-08
1.00257e-08
8.67783e-09
7.33656e-09
6.03875e-09
4.81616e-09
3.69319e-09
2.68613e-09
1.80444e-09
1.05582e-09
4.54952e-10
5.06413e-11
2.42764e-11
2.17717e-10
4.98156e-10
8.31879e-10
1.19988e-09
1.58871e-09
1.98782e-09
2.38868e-09
2.78436e-09
3.16944e-09
3.53993e-09
3.89327e-09
4.22826e-09
4.5449e-09
4.84431e-09
5.12844e-09
5.39991e-09
5.66176e-09
5.91725e-09
6.16972e-09
6.42242e-09
6.6784e-09
6.94048e-09
7.21117e-09
7.49268e-09
7.78689e-09
8.09533e-09
8.41926e-09
8.75958e-09
9.11691e-09
9.49157e-09
9.88356e-09
1.02926e-08
1.07182e-08
1.11595e-08
1.16154e-08
1.20847e-08
1.25658e-08
1.3057e-08
1.35565e-08
1.40621e-08
1.45717e-08
1.50827e-08
1.5592e-08
1.60964e-08
1.65917e-08
1.70729e-08
1.75337e-08
1.79665e-08
1.83619e-08
1.87085e-08
1.89933e-08
1.91976e-08
1.92945e-08
1.93101e-08
1.91946e-08
1.89284e-08
1.85007e-08
1.7903e-08
1.71312e-08
1.61879e-08
1.50837e-08
1.38378e-08
1.24782e-08
1.10398e-08
9.56303e-09
8.09002e-09
6.66156e-09
5.31342e-09
4.07363e-09
2.96135e-09
1.98798e-09
1.16239e-09
5.00568e-10
5.57151e-11
2.69411e-11
2.41648e-10
5.53028e-10
9.23714e-10
1.3326e-09
1.76469e-09
2.20818e-09
2.65347e-09
3.09275e-09
3.5199e-09
3.93043e-09
4.32148e-09
4.69173e-09
5.04127e-09
5.3714e-09
5.68438e-09
5.98321e-09
6.27133e-09
6.55242e-09
6.83019e-09
7.10824e-09
7.38995e-09
7.67836e-09
7.97621e-09
8.28584e-09
8.60922e-09
8.94794e-09
9.30325e-09
9.67602e-09
1.00668e-08
1.04757e-08
1.09027e-08
1.13473e-08
1.18088e-08
1.22861e-08
1.2778e-08
1.32831e-08
1.37998e-08
1.43261e-08
1.48602e-08
1.54001e-08
1.59434e-08
1.64877e-08
1.703e-08
1.7567e-08
1.80943e-08
1.86066e-08
1.90974e-08
1.95583e-08
1.99791e-08
2.03476e-08
2.06495e-08
2.08633e-08
2.09627e-08
2.09762e-08
2.08468e-08
2.05562e-08
2.00925e-08
1.94468e-08
1.86148e-08
1.75988e-08
1.64096e-08
1.50668e-08
1.35993e-08
1.20437e-08
1.04427e-08
8.84153e-09
7.28481e-09
5.81228e-09
4.45588e-09
3.23803e-09
2.17241e-09
1.26942e-09
5.46345e-10
6.08085e-11
2.9706e-11
2.66475e-10
6.09949e-10
1.01897e-09
1.47026e-09
1.94721e-09
2.43668e-09
2.92795e-09
3.41227e-09
3.88276e-09
4.33442e-09
4.76405e-09
5.17025e-09
5.55318e-09
5.91438e-09
6.25645e-09
6.58279e-09
6.89729e-09
7.20405e-09
7.50717e-09
7.81063e-09
8.11808e-09
8.43283e-09
8.7578e-09
9.09545e-09
9.44783e-09
9.81656e-09
1.02029e-08
1.06075e-08
1.1031e-08
1.14733e-08
1.19342e-08
1.2413e-08
1.29088e-08
1.34205e-08
1.39465e-08
1.44855e-08
1.50355e-08
1.55949e-08
1.61616e-08
1.67337e-08
1.73089e-08
1.78849e-08
1.84587e-08
1.90268e-08
1.95847e-08
2.01269e-08
2.0646e-08
2.11332e-08
2.15773e-08
2.19651e-08
2.22813e-08
2.2501e-08
2.25997e-08
2.26087e-08
2.24624e-08
2.21454e-08
2.16448e-08
2.09515e-08
2.0061e-08
1.89754e-08
1.77054e-08
1.62709e-08
1.47013e-08
1.30342e-08
1.13142e-08
9.58918e-09
7.90713e-09
6.31186e-09
4.83941e-09
3.51584e-09
2.35756e-09
1.37678e-09
5.9223e-10
6.59155e-11
3.25713e-11
2.92201e-10
6.68926e-10
1.11767e-09
1.61287e-09
2.13626e-09
2.67331e-09
3.21208e-09
3.74283e-09
4.25787e-09
4.75163e-09
5.22062e-09
5.66331e-09
6.07999e-09
6.47246e-09
6.84371e-09
7.19757e-09
7.5384e-09
7.87075e-09
8.19915e-09
8.5279e-09
8.86099e-09
9.20194e-09
9.55383e-09
9.91925e-09
1.03003e-08
1.06986e-08
1.11153e-08
1.15512e-08
1.20065e-08
1.24811e-08
1.29746e-08
1.34863e-08
1.40149e-08
1.45592e-08
1.51177e-08
1.56887e-08
1.62704e-08
1.68611e-08
1.74589e-08
1.80618e-08
1.86677e-08
1.92743e-08
1.98787e-08
2.0477e-08
2.10647e-08
2.16356e-08
2.21818e-08
2.26935e-08
2.31588e-08
2.35633e-08
2.38908e-08
2.41127e-08
2.42078e-08
2.42091e-08
2.40427e-08
2.36969e-08
2.31584e-08
2.24174e-08
2.14695e-08
2.03169e-08
1.89701e-08
1.74489e-08
1.57827e-08
1.40099e-08
1.21763e-08
1.03318e-08
8.52775e-09
6.81167e-09
5.22395e-09
3.79466e-09
2.54336e-09
1.48443e-09
6.382e-10
7.10334e-11
3.55374e-11
3.18831e-10
7.29968e-10
1.21981e-09
1.76045e-09
2.33186e-09
2.91805e-09
3.50582e-09
4.08433e-09
4.64505e-09
5.18181e-09
5.69078e-09
6.17038e-09
6.62102e-09
7.04481e-09
7.44518e-09
7.82643e-09
8.19341e-09
8.55115e-09
8.9046e-09
9.25843e-09
9.6169e-09
9.98378e-09
1.03623e-08
1.07551e-08
1.11644e-08
1.15917e-08
1.20381e-08
1.25044e-08
1.29906e-08
1.34964e-08
1.40214e-08
1.45646e-08
1.51246e-08
1.57002e-08
1.62896e-08
1.68912e-08
1.75033e-08
1.81242e-08
1.87521e-08
1.93851e-08
2.00212e-08
2.06581e-08
2.12927e-08
2.19211e-08
2.25381e-08
2.31371e-08
2.37093e-08
2.42441e-08
2.47284e-08
2.5147e-08
2.54827e-08
2.57031e-08
2.57936e-08
2.57822e-08
2.55929e-08
2.52159e-08
2.46379e-08
2.38486e-08
2.2844e-08
2.16262e-08
2.02055e-08
1.86015e-08
1.68437e-08
1.49706e-08
1.30285e-08
1.10691e-08
9.14637e-09
7.31159e-09
5.60949e-09
4.07453e-09
2.72984e-09
1.59239e-09
6.84254e-10
7.61619e-11
3.8605e-11
3.46367e-10
7.93085e-10
1.32541e-09
1.91301e-09
2.53402e-09
3.17092e-09
3.80913e-09
4.43667e-09
5.04411e-09
5.62464e-09
6.17412e-09
6.69088e-09
7.17555e-09
7.63057e-09
8.05985e-09
8.46821e-09
8.86103e-09
9.24383e-09
9.622e-09
1.00006e-08
1.03841e-08
1.07765e-08
1.11813e-08
1.1601e-08
1.2038e-08
1.24937e-08
1.29692e-08
1.3465e-08
1.39811e-08
1.45173e-08
1.50726e-08
1.56461e-08
1.62365e-08
1.68421e-08
1.74614e-08
1.80928e-08
1.87346e-08
1.93851e-08
2.00428e-08
2.0706e-08
2.13725e-08
2.204e-08
2.27053e-08
2.33641e-08
2.40106e-08
2.46374e-08
2.5235e-08
2.57917e-08
2.62933e-08
2.67238e-08
2.70648e-08
2.72807e-08
2.73651e-08
2.73367e-08
2.71216e-08
2.6711e-08
2.60915e-08
2.52527e-08
2.41911e-08
2.29088e-08
2.1416e-08
1.97322e-08
1.78865e-08
1.59174e-08
1.38713e-08
1.18013e-08
9.76313e-09
7.81175e-09
5.99621e-09
4.35561e-09
2.91714e-09
1.70072e-09
7.30411e-10
8.13029e-11
4.17743e-11
3.74816e-10
8.58285e-10
1.43448e-09
2.07056e-09
2.74275e-09
3.43188e-09
4.12195e-09
4.79973e-09
5.45483e-09
6.0798e-09
6.67016e-09
7.22422e-09
7.74282e-09
8.22883e-09
8.68666e-09
9.12173e-09
9.53995e-09
9.94738e-09
1.03498e-08
1.07527e-08
1.11609e-08
1.15785e-08
1.2009e-08
1.24552e-08
1.29193e-08
1.34028e-08
1.39067e-08
1.44313e-08
1.49767e-08
1.55422e-08
1.6127e-08
1.673e-08
1.73498e-08
1.79849e-08
1.86336e-08
1.92945e-08
1.99659e-08
2.06464e-08
2.13345e-08
2.20285e-08
2.27264e-08
2.34256e-08
2.41227e-08
2.48127e-08
2.54894e-08
2.61444e-08
2.67672e-08
2.73451e-08
2.78628e-08
2.83033e-08
2.86476e-08
2.88563e-08
2.89332e-08
2.88842e-08
2.86407e-08
2.81939e-08
2.75306e-08
2.66405e-08
2.55205e-08
2.4173e-08
2.26083e-08
2.08459e-08
1.89147e-08
1.68526e-08
1.47063e-08
1.2529e-08
1.03785e-08
8.31251e-09
6.38443e-09
4.63819e-09
3.10545e-09
1.80953e-09
7.76707e-10
8.64603e-11
4.50459e-11
4.0418e-10
9.25576e-10
1.54704e-09
2.23312e-09
2.95803e-09
3.70091e-09
4.4442e-09
5.17335e-09
5.87697e-09
6.54691e-09
7.17838e-09
7.7697e-09
8.32199e-09
8.8386e-09
9.32451e-09
9.78575e-09
1.02289e-08
1.06604e-08
1.10867e-08
1.15134e-08
1.19458e-08
1.23881e-08
1.28439e-08
1.33161e-08
1.38069e-08
1.43177e-08
1.48493e-08
1.54022e-08
1.59761e-08
1.65704e-08
1.71842e-08
1.78163e-08
1.84653e-08
1.91296e-08
1.98079e-08
2.04985e-08
2.12003e-08
2.19117e-08
2.26315e-08
2.33579e-08
2.40889e-08
2.48216e-08
2.55521e-08
2.6275e-08
2.69831e-08
2.76671e-08
2.83155e-08
2.89144e-08
2.94477e-08
2.98972e-08
3.02432e-08
3.04431e-08
3.0511e-08
3.0439e-08
3.01647e-08
2.9679e-08
2.89694e-08
2.80253e-08
2.68443e-08
2.54294e-08
2.37913e-08
2.19496e-08
1.99331e-08
1.77796e-08
1.55353e-08
1.32536e-08
1.09931e-08
8.81437e-09
6.77456e-09
4.92259e-09
3.295e-09
1.91894e-09
8.2319e-10
9.16392e-11
4.842e-11
4.34461e-10
9.94965e-10
1.66309e-09
2.40068e-09
3.17988e-09
3.97797e-09
4.77578e-09
5.55736e-09
6.31022e-09
7.02554e-09
7.6982e-09
8.3266e-09
8.9122e-09
9.45887e-09
9.97226e-09
1.04591e-08
1.09264e-08
1.13815e-08
1.18311e-08
1.22812e-08
1.27373e-08
1.32039e-08
1.36847e-08
1.41825e-08
1.46995e-08
1.52372e-08
1.57963e-08
1.6377e-08
1.69792e-08
1.76021e-08
1.82447e-08
1.89059e-08
1.95842e-08
2.02783e-08
2.09868e-08
2.17085e-08
2.2442e-08
2.31861e-08
2.39395e-08
2.47006e-08
2.54671e-08
2.62357e-08
2.7002e-08
2.77598e-08
2.85011e-08
2.92156e-08
2.98906e-08
3.05111e-08
3.10601e-08
3.15183e-08
3.18653e-08
3.20554e-08
3.21137e-08
3.20167e-08
3.17096e-08
3.11827e-08
3.04237e-08
2.94223e-08
2.81767e-08
2.66905e-08
2.49754e-08
2.30515e-08
2.0948e-08
1.87025e-08
1.6361e-08
1.39764e-08
1.1608e-08
9.31791e-09
7.16704e-09
5.20919e-09
3.48606e-09
2.0291e-09
8.69914e-10
9.68454e-11
5.18968e-11
4.65663e-10
1.06645e-09
1.78264e-09
2.57325e-09
3.40825e-09
4.263e-09
5.11657e-09
5.95153e-09
6.75425e-09
7.5152e-09
8.22899e-09
8.89413e-09
9.51249e-09
1.00886e-08
1.06287e-08
1.11404e-08
1.16314e-08
1.21094e-08
1.25817e-08
1.30548e-08
1.35343e-08
1.40248e-08
1.45302e-08
1.50534e-08
1.55965e-08
1.61609e-08
1.67472e-08
1.73558e-08
1.79862e-08
1.86379e-08
1.93097e-08
2.00005e-08
2.0709e-08
2.14341e-08
2.21743e-08
2.29287e-08
2.36961e-08
2.44754e-08
2.52652e-08
2.60639e-08
2.68688e-08
2.76762e-08
2.84812e-08
2.92766e-08
3.00535e-08
3.08004e-08
3.15036e-08
3.21471e-08
3.27128e-08
3.31804e-08
3.35283e-08
3.37088e-08
3.37572e-08
3.36343e-08
3.32929e-08
3.27225e-08
3.19109e-08
3.08482e-08
2.9533e-08
2.79702e-08
2.61726e-08
2.41614e-08
2.19667e-08
1.96266e-08
1.71866e-08
1.46995e-08
1.22241e-08
9.82373e-09
7.56232e-09
5.49834e-09
3.67889e-09
2.14016e-09
9.16936e-10
1.02085e-10
5.54764e-11
4.97784e-10
1.14004e-09
1.90568e-09
2.75081e-09
3.64311e-09
4.55591e-09
5.4664e-09
6.35559e-09
7.20865e-09
8.01534e-09
8.77004e-09
9.47143e-09
1.01219e-08
1.07266e-08
1.12928e-08
1.18285e-08
1.23424e-08
1.28428e-08
1.33374e-08
1.3833e-08
1.43356e-08
1.48499e-08
1.53798e-08
1.59283e-08
1.64975e-08
1.70886e-08
1.77025e-08
1.83392e-08
1.89983e-08
1.96793e-08
2.03812e-08
2.11028e-08
2.1843e-08
2.26007e-08
2.33749e-08
2.41645e-08
2.49686e-08
2.57861e-08
2.66158e-08
2.74555e-08
2.83023e-08
2.91522e-08
2.99991e-08
3.08352e-08
3.16505e-08
3.24324e-08
3.31662e-08
3.38348e-08
3.4419e-08
3.48978e-08
3.52468e-08
3.54191e-08
3.5458e-08
3.53091e-08
3.49323e-08
3.43164e-08
3.34489e-08
3.23203e-08
3.09299e-08
2.92836e-08
2.73959e-08
2.529e-08
2.29975e-08
2.05576e-08
1.8016e-08
1.54249e-08
1.28425e-08
1.03324e-08
7.96079e-09
5.79035e-09
3.87373e-09
2.25227e-09
9.64311e-10
1.07364e-10
5.91587e-11
5.30824e-10
1.21572e-09
2.0322e-09
2.93333e-09
3.8844e-09
4.85658e-09
5.82508e-09
6.76923e-09
7.67298e-09
8.52537e-09
9.32058e-09
1.00576e-08
1.07394e-08
1.13719e-08
1.19631e-08
1.25222e-08
1.30583e-08
1.35806e-08
1.4097e-08
1.4615e-08
1.51405e-08
1.56785e-08
1.6233e-08
1.6807e-08
1.74025e-08
1.80209e-08
1.86628e-08
1.93283e-08
2.00172e-08
2.07288e-08
2.14621e-08
2.22162e-08
2.29902e-08
2.3783e-08
2.45938e-08
2.54218e-08
2.6266e-08
2.71256e-08
2.79988e-08
2.88836e-08
2.97764e-08
3.06725e-08
3.15651e-08
3.24455e-08
3.33025e-08
3.41226e-08
3.48899e-08
3.55863e-08
3.61917e-08
3.66844e-08
3.70354e-08
3.72018e-08
3.7232e-08
3.70577e-08
3.66453e-08
3.59822e-08
3.50557e-08
3.38564e-08
3.2384e-08
3.06462e-08
2.86593e-08
2.64491e-08
2.40497e-08
2.15022e-08
1.88535e-08
1.61551e-08
1.34645e-08
1.08446e-08
8.36278e-09
6.08549e-09
4.07078e-09
2.36554e-09
1.01208e-09
1.12687e-10
6.29434e-11
5.64779e-10
1.2935e-09
2.16217e-09
3.12078e-09
4.13205e-09
5.16487e-09
6.19237e-09
7.1921e-09
8.14673e-09
9.0446e-09
9.87981e-09
1.06517e-08
1.13638e-08
1.20232e-08
1.26387e-08
1.32203e-08
1.37781e-08
1.43216e-08
1.48597e-08
1.53998e-08
1.59483e-08
1.65103e-08
1.70898e-08
1.76897e-08
1.83123e-08
1.89587e-08
1.96296e-08
2.03252e-08
2.10452e-08
2.1789e-08
2.25559e-08
2.33449e-08
2.41553e-08
2.49862e-08
2.58371e-08
2.67071e-08
2.75955e-08
2.85012e-08
2.94223e-08
3.03564e-08
3.12995e-08
3.22461e-08
3.31885e-08
3.4117e-08
3.50194e-08
3.58812e-08
3.66855e-08
3.7413e-08
3.80428e-08
3.85524e-08
3.89083e-08
3.90714e-08
3.90942e-08
3.8896e-08
3.84482e-08
3.77368e-08
3.67483e-08
3.54733e-08
3.39122e-08
3.20739e-08
2.99772e-08
2.7651e-08
2.51332e-08
2.2468e-08
1.97039e-08
1.68931e-08
1.40915e-08
1.13608e-08
8.76852e-09
6.38391e-09
4.27019e-09
2.48008e-09
1.0603e-09
1.18059e-10
6.68299e-11
5.99645e-10
1.37334e-09
2.29559e-09
3.31309e-09
4.38595e-09
5.48062e-09
6.56799e-09
7.62377e-09
8.62931e-09
9.57232e-09
1.04468e-08
1.12526e-08
1.19941e-08
1.26794e-08
1.33182e-08
1.39216e-08
1.45005e-08
1.50652e-08
1.56247e-08
1.61871e-08
1.67589e-08
1.73453e-08
1.79504e-08
1.85772e-08
1.92278e-08
1.99035e-08
2.06049e-08
2.13323e-08
2.20854e-08
2.28637e-08
2.36667e-08
2.44935e-08
2.53436e-08
2.62163e-08
2.71111e-08
2.80273e-08
2.89642e-08
2.99206e-08
3.08943e-08
3.18823e-08
3.28802e-08
3.38816e-08
3.4878e-08
3.58588e-08
3.68107e-08
3.7718e-08
3.8563e-08
3.93254e-08
3.99833e-08
4.05132e-08
4.08779e-08
4.10408e-08
4.10579e-08
4.08379e-08
4.03555e-08
3.95952e-08
3.85424e-08
3.71872e-08
3.55303e-08
3.35821e-08
3.13639e-08
2.89088e-08
2.62588e-08
2.3463e-08
2.0573e-08
1.7642e-08
1.4725e-08
1.18816e-08
9.17818e-09
6.68569e-09
4.47204e-09
2.59593e-09
1.10896e-09
1.23481e-10
7.08175e-11
6.35416e-10
1.45525e-09
2.4324e-09
3.51021e-09
4.64598e-09
5.80361e-09
6.95162e-09
8.06378e-09
9.12012e-09
1.01077e-08
1.10207e-08
1.18594e-08
1.26292e-08
1.33393e-08
1.40006e-08
1.46252e-08
1.52248e-08
1.58104e-08
1.63916e-08
1.69766e-08
1.75722e-08
1.81839e-08
1.88156e-08
1.94705e-08
2.01507e-08
2.08573e-08
2.15913e-08
2.23527e-08
2.31414e-08
2.39571e-08
2.47992e-08
2.56673e-08
2.65608e-08
2.74794e-08
2.84225e-08
2.93895e-08
3.03797e-08
3.13914e-08
3.24225e-08
3.34692e-08
3.45266e-08
3.55873e-08
3.66421e-08
3.76793e-08
3.86847e-08
3.96416e-08
4.05312e-08
4.13324e-08
4.20223e-08
4.25764e-08
4.29544e-08
4.31207e-08
4.31341e-08
4.28951e-08
4.23797e-08
4.15706e-08
4.04518e-08
3.90124e-08
3.72532e-08
3.51856e-08
3.28339e-08
3.02353e-08
2.74377e-08
2.4496e-08
2.14668e-08
1.84056e-08
1.53668e-08
1.24076e-08
9.59181e-09
6.99079e-09
4.67633e-09
2.71313e-09
1.1581e-09
1.28955e-10
7.49055e-11
6.72082e-10
1.53919e-09
2.57257e-09
3.71205e-09
4.912e-09
6.1336e-09
7.34289e-09
8.5116e-09
9.61845e-09
1.065e-08
1.16004e-08
1.24709e-08
1.32679e-08
1.40019e-08
1.46849e-08
1.53302e-08
1.59502e-08
1.65568e-08
1.71599e-08
1.77683e-08
1.83887e-08
1.90268e-08
1.96867e-08
2.03713e-08
2.10829e-08
2.18228e-08
2.25917e-08
2.33898e-08
2.42172e-08
2.50736e-08
2.59587e-08
2.6872e-08
2.78133e-08
2.87821e-08
2.97782e-08
3.08009e-08
3.18492e-08
3.29213e-08
3.40146e-08
3.51248e-08
3.62461e-08
3.73706e-08
3.84881e-08
3.95858e-08
4.06488e-08
4.16592e-08
4.25974e-08
4.34414e-08
4.41672e-08
4.47495e-08
4.51458e-08
4.53191e-08
4.53311e-08
4.50763e-08
4.45301e-08
4.36731e-08
4.24875e-08
4.0961e-08
3.90937e-08
3.68979e-08
3.44004e-08
3.16434e-08
2.86813e-08
2.55765e-08
2.23922e-08
1.91881e-08
1.60191e-08
1.29394e-08
1.00094e-08
7.29906e-09
4.88296e-09
2.83163e-09
1.20768e-09
1.34478e-10
7.90925e-11
7.09634e-10
1.62514e-09
2.71605e-09
3.91851e-09
5.18384e-09
6.47033e-09
7.74139e-09
8.96667e-09
1.01236e-08
1.11981e-08
1.21849e-08
1.3086e-08
1.39091e-08
1.46659e-08
1.537e-08
1.60356e-08
1.66761e-08
1.7304e-08
1.79298e-08
1.85625e-08
1.92091e-08
1.98752e-08
2.0565e-08
2.12816e-08
2.20271e-08
2.28029e-08
2.36097e-08
2.44479e-08
2.53176e-08
2.62186e-08
2.71507e-08
2.81136e-08
2.91073e-08
3.01313e-08
3.11853e-08
3.22686e-08
3.338e-08
3.45174e-08
3.56777e-08
3.6856e-08
3.80457e-08
3.92383e-08
4.04224e-08
4.15847e-08
4.27089e-08
4.37767e-08
4.47673e-08
4.56578e-08
4.64234e-08
4.70377e-08
4.74571e-08
4.76414e-08
4.76543e-08
4.73873e-08
4.6813e-08
4.591e-08
4.46578e-08
4.30423e-08
4.10624e-08
3.87305e-08
3.60758e-08
3.31454e-08
3.00011e-08
2.6714e-08
2.33564e-08
1.99943e-08
1.66842e-08
1.34779e-08
1.0431e-08
7.61027e-09
5.09176e-09
2.95135e-09
1.25768e-09
1.40047e-10
8.33774e-11
7.48058e-10
1.71306e-09
2.86276e-09
4.12948e-09
5.4613e-09
6.81348e-09
8.14666e-09
9.42834e-09
1.06346e-08
1.17512e-08
1.27732e-08
1.37036e-08
1.45517e-08
1.53305e-08
1.60551e-08
1.67408e-08
1.74021e-08
1.8052e-08
1.87015e-08
1.93599e-08
2.00343e-08
2.07305e-08
2.14527e-08
2.22039e-08
2.29862e-08
2.38011e-08
2.46494e-08
2.55315e-08
2.64475e-08
2.73974e-08
2.83811e-08
2.93985e-08
3.04494e-08
3.15336e-08
3.26506e-08
3.37997e-08
3.49792e-08
3.61867e-08
3.74185e-08
3.86693e-08
3.99316e-08
4.1196e-08
4.24506e-08
4.36808e-08
4.48698e-08
4.59982e-08
4.70444e-08
4.79848e-08
4.87936e-08
4.94434e-08
4.98905e-08
5.00898e-08
5.01061e-08
4.98305e-08
4.92314e-08
4.82847e-08
4.69674e-08
4.52625e-08
4.31669e-08
4.06926e-08
3.78707e-08
3.47525e-08
3.14079e-08
2.79185e-08
2.43674e-08
2.08294e-08
1.7365e-08
1.4024e-08
1.08564e-08
7.92407e-09
5.30246e-09
3.07215e-09
1.30804e-09
1.45655e-10
8.77584e-11
7.87341e-10
1.80293e-09
3.01264e-09
4.34484e-09
5.74417e-09
7.16269e-09
8.55817e-09
9.89591e-09
1.11508e-08
1.23083e-08
1.33641e-08
1.43226e-08
1.51945e-08
1.59946e-08
1.67394e-08
1.74453e-08
1.81279e-08
1.88008e-08
1.94755e-08
2.01613e-08
2.08658e-08
2.15946e-08
2.2352e-08
2.3141e-08
2.39636e-08
2.48214e-08
2.57152e-08
2.66454e-08
2.76123e-08
2.86159e-08
2.96561e-08
3.0733e-08
3.18464e-08
3.29959e-08
3.41811e-08
3.54009e-08
3.66533e-08
3.79355e-08
3.92432e-08
4.05703e-08
4.19089e-08
4.32486e-08
4.45767e-08
4.58778e-08
4.71343e-08
4.8326e-08
4.94307e-08
5.04236e-08
5.12784e-08
5.19666e-08
5.24455e-08
5.26632e-08
5.26853e-08
5.24048e-08
5.17846e-08
5.07975e-08
4.94174e-08
4.76241e-08
4.54117e-08
4.27908e-08
3.97931e-08
3.64743e-08
3.29121e-08
2.91996e-08
2.54332e-08
2.16992e-08
1.80647e-08
1.45789e-08
1.12858e-08
8.24007e-09
5.51472e-09
3.19384e-09
1.35868e-09
1.51294e-10
9.22339e-11
8.27465e-10
1.89471e-09
3.16561e-09
4.56442e-09
6.03219e-09
7.51759e-09
8.97537e-09
1.03686e-08
1.16711e-08
1.28682e-08
1.39564e-08
1.49417e-08
1.58366e-08
1.66573e-08
1.74221e-08
1.81487e-08
1.88536e-08
1.95508e-08
2.02525e-08
2.09682e-08
2.17054e-08
2.24698e-08
2.32658e-08
2.40962e-08
2.49631e-08
2.58681e-08
2.68119e-08
2.7795e-08
2.88177e-08
2.988e-08
3.09821e-08
3.21238e-08
3.33049e-08
3.45249e-08
3.57833e-08
3.70786e-08
3.84085e-08
3.97696e-08
4.1157e-08
4.25641e-08
4.39821e-08
4.53998e-08
4.68038e-08
4.8178e-08
4.9504e-08
5.0761e-08
5.19259e-08
5.29733e-08
5.3876e-08
5.46047e-08
5.51184e-08
5.53578e-08
5.53879e-08
5.51059e-08
5.44682e-08
5.34444e-08
5.20051e-08
5.01261e-08
4.77978e-08
4.50281e-08
4.18487e-08
3.83183e-08
3.45225e-08
3.05665e-08
2.6562e-08