/*--------------------------------*- C++ -*----------------------------------*\
  =========                 |
  \\      /  F ield         | OpenFOAM: The Open Source CFD Toolbox
   \\    /   O peration     | Website:  https://openfoam.org
    \\  /    A nd           | Version:  12
     \\/     M anipulation  |
\*---------------------------------------------------------------------------*/
FoamFile
{
    format      ascii;
    class       volVectorField;
    location    "5.5";
    object      U;
}
// * * * * * * * * * * * * * * * * * * * * * * * * * * * * * * * * * * * * * //

dimensions      [0 1 -1 0 0 0 0];

internalField   nonuniform List<vector> 
5625
(
(7.55438e-06 -3.52247e-06 0)
(4.61096e-05 -5.87087e-06 0)
(9.07983e-05 -5.31256e-06 0)
(0.000121327 -3.30925e-06 0)
(0.00012769 -1.01305e-06 0)
(0.000107858 1.23206e-06 0)
(6.28993e-05 3.22264e-06 0)
(-4.56868e-06 4.89755e-06 0)
(-9.13931e-05 6.25688e-06 0)
(-0.000194453 7.33661e-06 0)
(-0.000310988 8.18786e-06 0)
(-0.000438775 8.86787e-06 0)
(-0.000576195 9.43331e-06 0)
(-0.000722232 9.93659e-06 0)
(-0.000876445 1.04241e-05 0)
(-0.0010389 1.09354e-05 0)
(-0.00121012 1.15039e-05 0)
(-0.00139101 1.21569e-05 0)
(-0.00158278 1.29172e-05 0)
(-0.00178693 1.38036e-05 0)
(-0.00200519 1.48322e-05 0)
(-0.00223948 1.60172e-05 0)
(-0.00249188 1.73715e-05 0)
(-0.00276465 1.89072e-05 0)
(-0.00306015 2.06361e-05 0)
(-0.00338088 2.25693e-05 0)
(-0.00372943 2.47172e-05 0)
(-0.00410846 2.70895e-05 0)
(-0.00452068 2.96939e-05 0)
(-0.00496881 3.2536e-05 0)
(-0.0054555 3.56177e-05 0)
(-0.00598333 3.89366e-05 0)
(-0.00655464 4.24843e-05 0)
(-0.00717151 4.62446e-05 0)
(-0.0078356 5.01922e-05 0)
(-0.00854802 5.42905e-05 0)
(-0.00930919 5.84894e-05 0)
(-0.0101186 6.27232e-05 0)
(-0.0109748 6.69085e-05 0)
(-0.0118748 7.0942e-05 0)
(-0.0128144 7.46985e-05 0)
(-0.0137873 7.80298e-05 0)
(-0.0147856 8.0764e-05 0)
(-0.0157989 8.27058e-05 0)
(-0.0168145 8.36382e-05 0)
(-0.0178174 8.33264e-05 0)
(-0.0187897 8.15236e-05 0)
(-0.0197112 7.79794e-05 0)
(-0.0205594 7.24527e-05 0)
(-0.0213095 6.47594e-05 0)
(-0.0219343 5.44836e-05 0)
(-0.0224083 4.18413e-05 0)
(-0.0227011 2.69366e-05 0)
(-0.0227932 9.0779e-06 0)
(-0.0226558 -1.05445e-05 0)
(-0.0222717 -3.2056e-05 0)
(-0.0216283 -5.47856e-05 0)
(-0.0207203 -7.79392e-05 0)
(-0.0195524 -0.000100579 0)
(-0.0181397 -0.000121633 0)
(-0.0165093 -0.000139955 0)
(-0.0146999 -0.00015441 0)
(-0.0127615 -0.000163968 0)
(-0.0107534 -0.000167815 0)
(-0.00874146 -0.000165451 0)
(-0.00679469 -0.000156762 0)
(-0.00498103 -0.000142052 0)
(-0.00336311 -0.000122023 0)
(-0.00199428 -9.77062e-05 0)
(-0.000915213 -7.03539e-05 0)
(-0.000151224 -4.13765e-05 0)
(0.000290307 -1.24798e-05 0)
(0.000424375 1.45943e-05 0)
(0.000312997 3.39197e-05 0)
(8.20055e-05 3.71879e-05 0)
(1.79491e-05 -2.50395e-05 0)
(0.000107335 -4.35846e-05 0)
(0.000200109 -3.72269e-05 0)
(0.000253266 -1.69696e-05 0)
(0.00024308 8.48507e-06 0)
(0.000163117 3.45611e-05 0)
(1.4928e-05 5.88305e-05 0)
(-0.00019559 8.02387e-05 0)
(-0.00046078 9.85054e-05 0)
(-0.000772752 0.000113812 0)
(-0.00112438 0.000126601 0)
(-0.00150982 0.000137442 0)
(-0.00192476 0.000146947 0)
(-0.00236648 0.000155712 0)
(-0.00283379 0.000164288 0)
(-0.0033269 0.000173165 0)
(-0.00384727 0.00018277 0)
(-0.00439744 0.000193462 0)
(-0.00498084 0.000205548 0)
(-0.0056017 0.000219285 0)
(-0.0062649 0.000234892 0)
(-0.00697589 0.000252558 0)
(-0.0077406 0.000272447 0)
(-0.00856535 0.000294706 0)
(-0.00945686 0.000319459 0)
(-0.0104221 0.000346816 0)
(-0.0114683 0.000376862 0)
(-0.0126027 0.000409652 0)
(-0.0138329 0.000445208 0)
(-0.015166 0.0004835 0)
(-0.0166092 0.00052444 0)
(-0.0181689 0.000567864 0)
(-0.0198512 0.000613514 0)
(-0.0216607 0.000661021 0)
(-0.0236012 0.000709886 0)
(-0.0256744 0.000759456 0)
(-0.0278799 0.000808908 0)
(-0.0302147 0.000857225 0)
(-0.0326724 0.000903181 0)
(-0.0352431 0.000945329 0)
(-0.0379122 0.000981989 0)
(-0.0406605 0.00101125 0)
(-0.0434629 0.00103099 0)
(-0.0462887 0.00103887 0)
(-0.0491007 0.00103242 0)
(-0.0518551 0.00100907 0)
(-0.0545015 0.000966259 0)
(-0.0569833 0.000901512 0)
(-0.0592381 0.000812623 0)
(-0.0611991 0.000697766 0)
(-0.0627944 0.000555331 0)
(-0.063958 0.000384326 0)
(-0.0646038 0.000189353 0)
(-0.0646924 -3.05876e-05 0)
(-0.0641477 -0.000273411 0)
(-0.0629302 -0.000531397 0)
(-0.0610114 -0.00079807 0)
(-0.058384 -0.00106471 0)
(-0.0550656 -0.00132105 0)
(-0.0511017 -0.00155571 0)
(-0.0465672 -0.00175683 0)
(-0.0415672 -0.00191285 0)
(-0.0362343 -0.00201349 0)
(-0.0307242 -0.00205068 0)
(-0.0252093 -0.00201952 0)
(-0.0198695 -0.00191899 0)
(-0.014882 -0.00175228 0)
(-0.0104108 -0.00152679 0)
(-0.0065958 -0.00125366 0)
(-0.00354398 -0.000947168 0)
(-0.00132093 -0.000624407 0)
(5.74671e-05 -0.000306545 0)
(0.000637349 -2.30206e-05 0)
(0.000573754 0.000172719 0)
(0.000150443 0.000182382 0)
(2.41008e-05 -5.98016e-05 0)
(0.000140204 -9.74993e-05 0)
(0.000247785 -7.69243e-05 0)
(0.000291079 -2.34878e-05 0)
(0.000237564 4.36765e-05 0)
(7.71792e-05 0.00011326 0)
(-0.000188747 0.000178923 0)
(-0.000552282 0.000237669 0)
(-0.00100256 0.000288525 0)
(-0.00152812 0.000331792 0)
(-0.00211842 0.000368514 0)
(-0.00276474 0.000400121 0)
(-0.00346059 0.00042819 0)
(-0.00420188 0.000454295 0)
(-0.00498682 0.000479912 0)
(-0.00581581 0.000506371 0)
(-0.0066912 0.000534835 0)
(-0.00761701 0.000566302 0)
(-0.00859873 0.000601622 0)
(-0.00964308 0.000641514 0)
(-0.0107578 0.000686589 0)
(-0.0119517 0.00073737 0)
(-0.013234 0.000794307 0)
(-0.0146149 0.000857786 0)
(-0.0161049 0.000928134 0)
(-0.0177151 0.00100561 0)
(-0.0194567 0.00109041 0)
(-0.0213411 0.00118263 0)
(-0.0233798 0.00128224 0)
(-0.0255838 0.00138908 0)
(-0.0279635 0.0015028 0)
(-0.0305286 0.00162283 0)
(-0.0332874 0.00174832 0)
(-0.0362462 0.00187812 0)
(-0.0394092 0.00201069 0)
(-0.0427774 0.00214407 0)
(-0.0463481 0.00227586 0)
(-0.0501143 0.00240309 0)
(-0.0540635 0.00252227 0)
(-0.0581771 0.00262931 0)
(-0.0624295 0.00271955 0)
(-0.0667873 0.00278773 0)
(-0.0712085 0.00282809 0)
(-0.0756418 0.00283443 0)
(-0.0800266 0.00280022 0)
(-0.0842924 0.00271883 0)
(-0.0883591 0.00258375 0)
(-0.0921378 0.00238887 0)
(-0.0955321 0.00212894 0)
(-0.0984393 0.00179988 0)
(-0.100752 0.00139892 0)
(-0.102371 0.000922692 0)
(-0.103172 0.000387549 0)
(-0.103094 -0.000215454 0)
(-0.102033 -0.000870295 0)
(-0.0999352 -0.00156233 0)
(-0.0967649 -0.00227268 0)
(-0.0925184 -0.00297839 0)
(-0.0872289 -0.00365288 0)
(-0.0809705 -0.00426702 0)
(-0.0738603 -0.00479069 0)
(-0.0660582 -0.00519473 0)
(-0.0577638 -0.00545327 0)
(-0.0492103 -0.0055461 0)
(-0.040654 -0.00546098 0)
(-0.0323626 -0.00519532 0)
(-0.0246003 -0.00475727 0)
(-0.0176116 -0.0041657 0)
(-0.0116067 -0.00344945 0)
(-0.00674627 -0.00264608 0)
(-0.00312868 -0.0018015 0)
(-0.000775812 -0.000972604 0)
(0.000384377 -0.000236909 0)
(0.000572043 0.000281847 0)
(0.000166208 0.000363401 0)
(2.67549e-05 -0.000101879 0)
(0.000148795 -0.00015676 0)
(0.000244287 -0.000111882 0)
(0.000250343 -1.06193e-05 0)
(0.000129307 0.000115552 0)
(-0.000131247 0.000246807 0)
(-0.000530181 0.000371679 0)
(-0.00105814 0.000484392 0)
(-0.00170193 0.00058292 0)
(-0.00244738 0.000667617 0)
(-0.00328133 0.000740274 0)
(-0.00419277 0.000803461 0)
(-0.00517353 0.000860078 0)
(-0.00621842 0.000913054 0)
(-0.00732528 0.000965167 0)
(-0.00849476 0.00101894 0)
(-0.00973005 0.00107659 0)
(-0.0110366 0.00114005 0)
(-0.0124217 0.00121096 0)
(-0.0138945 0.0012907 0)
(-0.0154653 0.00138046 0)
(-0.0171458 0.00148124 0)
(-0.0189486 0.0015939 0)
(-0.0208871 0.00171916 0)
(-0.0229753 0.00185761 0)
(-0.0252278 0.0020097 0)
(-0.0276594 0.00217572 0)
(-0.030285 0.00235576 0)
(-0.0331192 0.00254967 0)
(-0.0361762 0.002757 0)
(-0.0394689 0.0029769 0)
(-0.0430091 0.00320811 0)
(-0.0468063 0.00344881 0)
(-0.0508673 0.00369653 0)
(-0.0551956 0.00394812 0)
(-0.0597901 0.00419959 0)
(-0.0646447 0.00444604 0)
(-0.0697469 0.0046816 0)
(-0.0750768 0.00489937 0)
(-0.0806063 0.00509137 0)
(-0.0862978 0.00524858 0)
(-0.0921034 0.00536096 0)
(-0.0979639 0.0054176 0)
(-0.103808 0.00540689 0)
(-0.109554 0.0053168 0)
(-0.115106 0.00513524 0)
(-0.120357 0.00485055 0)
(-0.125191 0.00445209 0)
(-0.129483 0.00393088 0)
(-0.1331 0.00328048 0)
(-0.135908 0.00249751 0)
(-0.137778 0.00158062 0)
(-0.138575 0.000545361 0)
(-0.138197 -0.000600866 0)
(-0.136541 -0.00184069 0)
(-0.133541 -0.00314347 0)
(-0.12916 -0.00447387 0)
(-0.123403 -0.00578945 0)
(-0.116319 -0.00704157 0)
(-0.108008 -0.00817738 0)
(-0.0986224 -0.00914252 0)
(-0.0883669 -0.00988462 0)
(-0.0774942 -0.0103573 0)
(-0.0662978 -0.0105242 0)
(-0.0550999 -0.0103634 0)
(-0.0442367 -0.00987003 0)
(-0.0340407 -0.00905871 0)
(-0.0248213 -0.00796355 0)
(-0.0168453 -0.00663728 0)
(-0.0103179 -0.00514947 0)
(-0.00536535 -0.00358604 0)
(-0.00201645 -0.00205336 0)
(-0.000181732 -0.000692742 0)
(0.000398739 0.000286434 0)
(0.000153849 0.00052954 0)
(2.69341e-05 -0.000144177 0)
(0.000137518 -0.000209164 0)
(0.000198416 -0.000128545 0)
(0.000143575 3.43175e-05 0)
(-6.69432e-05 0.000234626 0)
(-0.000446565 0.00044314 0)
(-0.000993959 0.00064251 0)
(-0.00169858 0.000823657 0)
(-0.0025454 0.000983212 0)
(-0.00351816 0.00112152 0)
(-0.00460165 0.0012412 0)
(-0.00578314 0.00134618 0)
(-0.00705313 0.00144095 0)
(-0.00840568 0.00153009 0)
(-0.00983839 0.00161798 0)
(-0.0113522 0.00170865 0)
(-0.0129513 0.00180562 0)
(-0.0146423 0.00191201 0)
(-0.0164344 0.00203044 0)
(-0.0183387 0.00216316 0)
(-0.0203681 0.00231209 0)
(-0.0225368 0.00247882 0)
(-0.0248602 0.00266471 0)
(-0.0273549 0.00287088 0)
(-0.0300379 0.00309823 0)
(-0.0329269 0.00334739 0)
(-0.0360397 0.00361872 0)
(-0.039394 0.00391222 0)
(-0.0430071 0.00422746 0)
(-0.0468953 0.00456352 0)
(-0.0510734 0.0049188 0)
(-0.0555542 0.00529099 0)
(-0.0603476 0.00567686 0)
(-0.0654597 0.00607215 0)
(-0.0708922 0.00647143 0)
(-0.0766408 0.00686794 0)
(-0.0826947 0.00725349 0)
(-0.0890349 0.00761835 0)
(-0.0956333 0.00795117 0)
(-0.102451 0.00823899 0)
(-0.109439 0.00846725 0)
(-0.116534 0.00861995 0)
(-0.123659 0.00867985 0)
(-0.130727 0.00862882 0)
(-0.137632 0.00844829 0)
(-0.144259 0.00811987 0)
(-0.150477 0.00762613 0)
(-0.156146 0.0069515 0)
(-0.161118 0.00608334 0)
(-0.165238 0.00501314 0)
(-0.16835 0.00373764 0)
(-0.170307 0.00225901 0)
(-0.170961 0.000596872 0)
(-0.17019 -0.00123153 0)
(-0.167891 -0.00319627 0)
(-0.163992 -0.00525073 0)
(-0.158462 -0.00733963 0)
(-0.151314 -0.00939722 0)
(-0.142611 -0.0113489 0)
(-0.132478 -0.0131141 0)
(-0.121094 -0.0146104 0)
(-0.108699 -0.0157583 0)
(-0.095587 -0.0164876 0)
(-0.082097 -0.0167434 0)
(-0.0686019 -0.0164917 0)
(-0.0554912 -0.0157251 0)
(-0.0431513 -0.014465 0)
(-0.0319434 -0.0127632 0)
(-0.0221812 -0.0107007 0)
(-0.0141078 -0.00838536 0)
(-0.0078749 -0.00595138 0)
(-0.00352095 -0.0035644 0)
(-0.000948635 -0.00143915 0)
(0.00011938 0.000122304 0)
(0.000128132 0.00063516 0)
(2.53295e-05 -0.000181521 0)
(0.0001103 -0.000245159 0)
(0.000117486 -0.00011589 0)
(-1.90129e-05 0.000122257 0)
(-0.00033898 0.000410731 0)
(-0.000855586 0.000710542 0)
(-0.00156671 0.000998016 0)
(-0.00246058 0.00126051 0)
(-0.00352056 0.00149314 0)
(-0.00472871 0.00169621 0)
(-0.00606824 0.00187325 0)
(-0.00752508 0.0020297 0)
(-0.00908877 0.00217186 0)
(-0.0107528 0.00230621 0)
(-0.0125149 0.002439 0)
(-0.0143762 0.00257597 0)
(-0.0163418 0.00272223 0)
(-0.0184197 0.00288224 0)
(-0.0206207 0.00305982 0)
(-0.0229577 0.00325824 0)
(-0.0254458 0.00348023 0)
(-0.0281018 0.00372813 0)
(-0.0309436 0.00400385 0)
(-0.0339903 0.00430895 0)
(-0.0372617 0.00464463 0)
(-0.040778 0.00501169 0)
(-0.0445595 0.00541047 0)
(-0.0486263 0.00584078 0)
(-0.0529975 0.00630174 0)
(-0.0576909 0.00679171 0)
(-0.0627225 0.00730806 0)
(-0.068105 0.00784703 0)
(-0.0738478 0.00840354 0)
(-0.0799555 0.00897096 0)
(-0.0864267 0.00954098 0)
(-0.0932532 0.0101033 0)
(-0.100418 0.0106458 0)
(-0.107896 0.0111538 0)
(-0.115648 0.0116106 0)
(-0.123627 0.0119974 0)
(-0.131769 0.0122931 0)
(-0.139996 0.0124747 0)
(-0.148218 0.0125178 0)
(-0.156328 0.0123971 0)
(-0.164203 0.0120867 0)
(-0.171708 0.0115615 0)
(-0.178693 0.0107983 0)
(-0.185 0.0097766 0)
(-0.190461 0.00848055 0)
(-0.194906 0.00690037 0)
(-0.198164 0.00503411 0)
(-0.200074 0.00288885 0)
(-0.200483 0.000489375 0)
(-0.199259 -0.002135 0)
(-0.196298 -0.00493903 0)
(-0.191531 -0.00785832 0)
(-0.184931 -0.0108152 0)
(-0.17652 -0.0137182 0)
(-0.166377 -0.0164641 0)
(-0.154642 -0.0189423 0)
(-0.141516 -0.0210394 0)
(-0.127265 -0.0226467 0)
(-0.112213 -0.0236677 0)
(-0.0967336 -0.0240265 0)
(-0.0812368 -0.0236759 0)
(-0.0661536 -0.0226044 0)
(-0.0519131 -0.0208407 0)
(-0.0389191 -0.0184553 0)
(-0.0275248 -0.0155601 0)
(-0.0180074 -0.0123058 0)
(-0.0105432 -0.00888093 0)
(-0.00518435 -0.00551698 0)
(-0.00183532 -0.00250769 0)
(-0.000220006 -0.000249068 0)
(9.65778e-05 0.000656541 0)
(2.24467e-05 -0.000210112 0)
(7.03842e-05 -0.000257102 0)
(7.51986e-06 -6.46697e-05 0)
(-0.000228962 0.000262796 0)
(-0.000676564 0.000652996 0)
(-0.00134701 0.00105716 0)
(-0.0022367 0.00144518 0)
(-0.00333238 0.00180076 0)
(-0.0046159 0.00211746 0)
(-0.00606788 0.00239553 0)
(-0.00767023 0.00263955 0)
(-0.00940786 0.00285661 0)
(-0.0112696 0.00305498 0)
(-0.0132488 0.00324328 0)
(-0.0153429 0.00342982 0)
(-0.017554 0.00362228 0)
(-0.0198878 0.00382753 0)
(-0.0223535 0.00405157 0)
(-0.0249635 0.00429958 0)
(-0.0277325 0.00457593 0)
(-0.0306775 0.00488434 0)
(-0.0338174 0.0052279 0)
(-0.0371725 0.00560916 0)
(-0.040764 0.00603013 0)
(-0.0446141 0.00649229 0)
(-0.048745 0.00699655 0)
(-0.0531791 0.00754314 0)
(-0.0579382 0.00813149 0)
(-0.0630425 0.00876011 0)
(-0.0685109 0.00942634 0)
(-0.0743593 0.0101262 0)
(-0.0806 0.0108541 0)
(-0.0872409 0.0116025 0)
(-0.0942839 0.0123621 0)
(-0.101724 0.0131208 0)
(-0.109548 0.0138643 0)
(-0.117733 0.0145754 0)
(-0.126244 0.0152341 0)
(-0.135035 0.0158174 0)
(-0.144045 0.0162998 0)
(-0.1532 0.0166527 0)
(-0.162408 0.0168458 0)
(-0.171563 0.0168466 0)
(-0.180543 0.0166222 0)
(-0.18921 0.0161392 0)
(-0.197411 0.015366 0)
(-0.204983 0.0142734 0)
(-0.211752 0.0128368 0)
(-0.217537 0.0110377 0)
(-0.222157 0.00886606 0)
(-0.225434 0.00632253 0)
(-0.227197 0.00342011 0)
(-0.227293 0.000190569 0)
(-0.225585 -0.00332323 0)
(-0.221974 -0.00705929 0)
(-0.216392 -0.0109338 0)
(-0.208819 -0.0148452 0)
(-0.199286 -0.0186749 0)
(-0.18788 -0.0222897 0)
(-0.174754 -0.0255472 0)
(-0.160125 -0.0283018 0)
(-0.144275 -0.0304135 0)
(-0.127548 -0.0317579 0)
(-0.110341 -0.0322363 0)
(-0.093095 -0.0317863 0)
(-0.0762706 -0.0303912 0)
(-0.0603318 -0.0280858 0)
(-0.0457184 -0.0249601 0)
(-0.0328186 -0.0211583 0)
(-0.0219413 -0.0168769 0)
(-0.0132887 -0.0123627 0)
(-0.00693131 -0.00791751 0)
(-0.00278436 -0.00391688 0)
(-0.000587894 -0.000848536 0)
(6.35443e-05 0.000583162 0)
(1.86668e-05 -0.000226991 0)
(2.03422e-05 -0.000238616 0)
(-0.000126585 3.31567e-05 0)
(-0.000479277 0.000464538 0)
(-0.00107107 0.000969837 0)
(-0.0019111 0.00149072 0)
(-0.00299358 0.00199081 0)
(-0.00430338 0.00245021 0)
(-0.0058208 0.00286098 0)
(-0.00752507 0.00322343 0)
(-0.00939703 0.00354329 0)
(-0.0114208 0.00382943 0)
(-0.0135847 0.00409233 0)
(-0.015882 0.00434287 0)
(-0.0183104 0.00459163 0)
(-0.0208725 0.0048484 0)
(-0.0235748 0.00512198 0)
(-0.0264279 0.00542005 0)
(-0.0294452 0.00574926 0)
(-0.0326434 0.00611523 0)
(-0.0360411 0.00652269 0)
(-0.0396591 0.00697559 0)
(-0.0435196 0.0074771 0)
(-0.0476457 0.00802968 0)
(-0.0520614 0.00863506 0)
(-0.0567908 0.00929416 0)
(-0.0618576 0.010007 0)
(-0.0672846 0.0107724 0)
(-0.0730929 0.011588 0)
(-0.0793015 0.01245 0)
(-0.0859255 0.0133525 0)
(-0.0929761 0.0142877 0)
(-0.100459 0.0152453 0)
(-0.108372 0.0162123 0)
(-0.116707 0.0171728 0)
(-0.125444 0.0181074 0)
(-0.134553 0.0189934 0)
(-0.143991 0.0198045 0)
(-0.153703 0.020511 0)
(-0.163617 0.0210796 0)
(-0.173645 0.0214743 0)
(-0.183685 0.0216563 0)
(-0.193617 0.0215852 0)
(-0.203305 0.0212201 0)
(-0.212597 0.0205205 0)
(-0.22133 0.0194481 0)
(-0.229327 0.0179687 0)
(-0.236405 0.0160539 0)
(-0.242376 0.0136838 0)
(-0.247052 0.0108493 0)
(-0.250249 0.00755443 0)
(-0.251798 0.00381924 0)
(-0.251542 -0.000315852 0)
(-0.249351 -0.00479373 0)
(-0.245126 -0.0095348 0)
(-0.238804 -0.0144349 0)
(-0.230371 -0.019368 0)
(-0.219862 -0.0241877 0)
(-0.207371 -0.0287304 0)
(-0.193058 -0.032821 0)
(-0.177146 -0.0362809 0)
(-0.159928 -0.0389376 0)
(-0.14176 -0.0406368 0)
(-0.123056 -0.0412555 0)
(-0.104274 -0.040714 0)
(-0.0859017 -0.0389885 0)
(-0.0684312 -0.0361187 0)
(-0.0523337 -0.0322131 0)
(-0.0380304 -0.0274491 0)
(-0.0258612 -0.0220704 0)
(-0.0160565 -0.016385 0)
(-0.00871023 -0.0107675 0)
(-0.00375677 -0.00567591 0)
(-0.000963642 -0.00168582 0)
(3.16578e-05 0.000411525 0)
(1.42614e-05 -0.000229811 0)
(-3.78367e-05 -0.00018432 0)
(-0.000280886 0.000184644 0)
(-0.000764196 0.000735228 0)
(-0.00151525 0.001369 0)
(-0.00253951 0.00201851 0)
(-0.00382822 0.00264142 0)
(-0.00536401 0.00321446 0)
(-0.00712538 0.00372838 0)
(-0.00909023 0.00418371 0)
(-0.0112384 0.00458746 0)
(-0.0135534 0.0049505 0)
(-0.0160232 0.0052856 0)
(-0.018641 0.00560613 0)
(-0.021405 0.00592507 0)
(-0.0243182 0.00625448 0)
(-0.0273881 0.00660521 0)
(-0.0306263 0.00698676 0)
(-0.0340477 0.00740732 0)
(-0.0376702 0.00787385 0)
(-0.0415141 0.00839218 0)
(-0.0456017 0.00896709 0)
(-0.0499567 0.00960241 0)
(-0.0546041 0.010301 0)
(-0.0595692 0.0110648 0)
(-0.0648771 0.0118946 0)
(-0.0705528 0.01279 0)
(-0.0766194 0.0137491 0)
(-0.0830982 0.0147685 0)
(-0.0900076 0.0158425 0)
(-0.0973616 0.0169634 0)
(-0.105169 0.0181206 0)
(-0.113433 0.0193005 0)
(-0.122148 0.020486 0)
(-0.131298 0.0216564 0)
(-0.14086 0.022787 0)
(-0.150796 0.0238489 0)
(-0.161053 0.0248089 0)
(-0.171567 0.0256298 0)
(-0.182256 0.0262705 0)
(-0.193022 0.0266867 0)
(-0.20375 0.0268314 0)
(-0.21431 0.026656 0)
(-0.224553 0.0261119 0)
(-0.234319 0.0251515 0)
(-0.243434 0.0237308 0)
(-0.251715 0.021811 0)
(-0.258973 0.0193613 0)
(-0.265015 0.016361 0)
(-0.269653 0.012803 0)
(-0.272703 0.00869595 0)
(-0.273997 0.0040675 0)
(-0.273383 -0.00103203 0)
(-0.270732 -0.00653104 0)
(-0.265952 -0.0123322 0)
(-0.258983 -0.0183107 0)
(-0.249813 -0.0243162 0)
(-0.238481 -0.0301747 0)
(-0.225083 -0.0356921 0)
(-0.209777 -0.0406609 0)
(-0.192789 -0.0448684 0)
(-0.174414 -0.0481088 0)
(-0.155012 -0.0501967 0)
(-0.135008 -0.0509821 0)
(-0.114873 -0.0503662 0)
(-0.0951141 -0.0483152 0)
(-0.0762478 -0.0448718 0)
(-0.0587748 -0.0401618 0)
(-0.0431481 -0.034395 0)
(-0.0297403 -0.0278634 0)
(-0.0188129 -0.0209371 0)
(-0.0104884 -0.0140651 0)
(-0.00472789 -0.00778765 0)
(-0.00133479 -0.00276345 0)
(2.34462e-06 0.000142278 0)
(9.41117e-06 -0.000216698 0)
(-0.000102638 -8.96512e-05 0)
(-0.000452242 0.000395986 0)
(-0.00107898 0.00108184 0)
(-0.00200299 0.00185759 0)
(-0.003225 0.00264731 0)
(-0.00473259 0.00340317 0)
(-0.00650561 0.00409888 0)
(-0.00852055 0.00472416 0)
(-0.0107539 0.00528001 0)
(-0.0131845 0.0057749 0)
(-0.0157952 0.00622186 0)
(-0.018574 0.00663616 0)
(-0.021514 0.00703378 0)
(-0.0246138 0.00743024 0)
(-0.0278772 0.00784 0)
(-0.0313124 0.00827607 0)
(-0.0349321 0.00874985 0)
(-0.0387522 0.00927119 0)
(-0.042792 0.00984839 0)
(-0.0470731 0.0104884 0)
(-0.0516191 0.0111969 0)
(-0.0564552 0.0119783 0)
(-0.0616074 0.0128359 0)
(-0.067102 0.0137715 0)
(-0.0729652 0.0147859 0)
(-0.0792219 0.015878 0)
(-0.0858957 0.0170451 0)
(-0.0930073 0.0182821 0)
(-0.100574 0.0195816 0)
(-0.108607 0.0209332 0)
(-0.117115 0.0223233 0)
(-0.126094 0.0237344 0)
(-0.135537 0.0251449 0)
(-0.145421 0.026529 0)
(-0.155717 0.0278557 0)
(-0.166378 0.0290896 0)
(-0.177345 0.0301901 0)
(-0.188543 0.0311123 0)
(-0.199882 0.0318068 0)
(-0.211252 0.032221 0)
(-0.222531 0.0322995 0)
(-0.233576 0.031986 0)
(-0.244234 0.0312243 0)
(-0.254335 0.0299608 0)
(-0.263701 0.0281461 0)
(-0.272145 0.0257381 0)
(-0.279475 0.0227041 0)
(-0.285499 0.0190241 0)
(-0.290032 0.0146936 0)
(-0.292893 0.00972685 0)
(-0.293918 0.00415951 0)
(-0.29296 -0.00194763 0)
(-0.289897 -0.00850868 0)
(-0.284638 -0.015409 0)
(-0.277129 -0.0225036 0)
(-0.267357 -0.0296186 0)
(-0.255358 -0.0365532 0)
(-0.241225 -0.0430834 0)
(-0.225112 -0.0489693 0)
(-0.207241 -0.0539643 0)
(-0.187901 -0.0578281 0)
(-0.167452 -0.0603424 0)
(-0.146321 -0.0613281 0)
(-0.124989 -0.0606641 0)
(-0.103977 -0.058304 0)
(-0.0838259 -0.0542906 0)
(-0.0650633 -0.0487644 0)
(-0.0481751 -0.0419668 0)
(-0.0335688 -0.0342377 0)
(-0.0215408 -0.0260099 0)
(-0.0122479 -0.0178072 0)
(-0.00568395 -0.0102511 0)
(-0.00169482 -0.00407959 0)
(-2.38257e-05 -0.000221547 0)
(4.24031e-06 -0.000186139 0)
(-0.000172916 4.92838e-05 0)
(-0.000638157 0.000672637 0)
(-0.00141976 0.00151064 0)
(-0.00252914 0.0024421 0)
(-0.00396136 0.00338341 0)
(-0.00569956 0.00428182 0)
(-0.00772034 0.00510853 0)
(-0.00999787 0.00585258 0)
(-0.012507 0.00651572 0)
(-0.0152256 0.00710817 0)
(-0.0181361 0.00764528 0)
(-0.0212262 0.00814502 0)
(-0.0244892 0.00862608 0)
(-0.0279242 0.00910669 0)
(-0.0315355 0.0096038 0)
(-0.0353322 0.0101327 0)
(-0.0393279 0.0107066 0)
(-0.0435395 0.0113373 0)
(-0.0479875 0.0120343 0)
(-0.0526945 0.0128058 0)
(-0.0576852 0.0136582 0)
(-0.0629859 0.0145965 0)
(-0.0686232 0.0156244 0)
(-0.0746243 0.0167436 0)
(-0.0810155 0.0179545 0)
(-0.0878219 0.0192552 0)
(-0.0950665 0.0206417 0)
(-0.102769 0.0221074 0)
(-0.110945 0.0236425 0)
(-0.119604 0.0252338 0)
(-0.128749 0.0268639 0)
(-0.138375 0.0285113 0)
(-0.148468 0.0301493 0)
(-0.159001 0.0317463 0)
(-0.169937 0.033265 0)
(-0.181221 0.0346627 0)
(-0.192788 0.0358913 0)
(-0.204553 0.0368978 0)
(-0.216418 0.0376247 0)
(-0.228265 0.0380108 0)
(-0.239962 0.037993 0)
(-0.251363 0.0375073 0)
(-0.262306 0.0364909 0)
(-0.272619 0.0348847 0)
(-0.282121 0.0326352 0)
(-0.290624 0.0296976 0)
(-0.29794 0.0260386 0)
(-0.30388 0.0216397 0)
(-0.308262 0.0164998 0)
(-0.310915 0.0106391 0)
(-0.311678 0.00410146 0)
(-0.310413 -0.0030418 0)
(-0.307002 -0.0106912 0)
(-0.301356 -0.0187156 0)
(-0.293423 -0.0269512 0)
(-0.283186 -0.0352017 0)
(-0.270677 -0.0432407 0)
(-0.255981 -0.0508154 0)
(-0.23924 -0.0576541 0)
(-0.220666 -0.0634759 0)
(-0.200538 -0.0680054 0)
(-0.17921 -0.0709893 0)
(-0.157105 -0.0722169 0)
(-0.13471 -0.0715412 0)
(-0.11256 -0.0688996 0)
(-0.0912132 -0.0643312 0)
(-0.0712285 -0.0579887 0)
(-0.0531254 -0.0501428 0)
(-0.0373492 -0.0411802 0)
(-0.0242359 -0.0315966 0)
(-0.0139818 -0.0219903 0)
(-0.00661935 -0.0130634 0)
(-0.00204129 -0.00563008 0)
(-4.68616e-05 -0.000675869 0)
(-1.17172e-06 -0.000136877 0)
(-0.000247811 0.000235837 0)
(-0.000836655 0.00101942 0)
(-0.00178333 0.00202728 0)
(-0.00308935 0.00312849 0)
(-0.00474319 0.00423261 0)
(-0.00672282 0.00528274 0)
(-0.00900109 0.00624811 0)
(-0.0115495 0.00711756 0)
(-0.0143411 0.00789394 0)
(-0.0173528 0.0085895 0)
(-0.0205662 0.00922217 0)
(-0.0239691 0.00981273 0)
(-0.027555 0.0103828 0)
(-0.0313232 0.0109534 0)
(-0.0352789 0.011544 0)
(-0.0394318 0.0121723 0)
(-0.0437962 0.0128535 0)
(-0.0483902 0.013601 0)
(-0.053235 0.0144259 0)
(-0.0583541 0.0153373 0)
(-0.0637732 0.0163426 0)
(-0.069519 0.0174473 0)
(-0.0756188 0.0186551 0)
(-0.0820999 0.0199677 0)
(-0.0889886 0.0213847 0)
(-0.0963096 0.0229035 0)
(-0.104085 0.0245185 0)
(-0.112332 0.0262211 0)
(-0.121065 0.0279988 0)
(-0.130291 0.0298351 0)
(-0.140009 0.0317089 0)
(-0.150209 0.0335938 0)
(-0.160872 0.0354578 0)
(-0.171966 0.037263 0)
(-0.183446 0.0389654 0)
(-0.195251 0.0405149 0)
(-0.207308 0.0418558 0)
(-0.219525 0.0429268 0)
(-0.231795 0.0436621 0)
(-0.243997 0.0439929 0)
(-0.25599 0.0438482 0)
(-0.267625 0.0431574 0)
(-0.278736 0.0418519 0)
(-0.289152 0.0398677 0)
(-0.298691 0.0371483 0)
(-0.30717 0.0336473 0)
(-0.314404 0.0293319 0)
(-0.320213 0.0241854 0)
(-0.324421 0.0182111 0)
(-0.326864 0.0114349 0)
(-0.327392 0.00390899 0)
(-0.325871 -0.00428542 0)
(-0.322188 -0.0130363 0)
(-0.316257 -0.0221977 0)
(-0.308022 -0.0315883 0)
(-0.297462 -0.0409912 0)
(-0.284599 -0.050156 0)
(-0.269505 -0.0588025 0)
(-0.252307 -0.0666279 0)
(-0.2332 -0.0733172 0)
(-0.212448 -0.0785584 0)
(-0.190394 -0.0820616 0)
(-0.167454 -0.083581 0)
(-0.144115 -0.0829401 0)
(-0.120923 -0.0800555 0)
(-0.0984569 -0.0749585 0)
(-0.0773037 -0.0678099 0)
(-0.0580199 -0.0589071 0)
(-0.041093 -0.0486821 0)
(-0.026903 -0.0376927 0)
(-0.0156913 -0.0266119 0)
(-0.00753424 -0.0162214 0)
(-0.0023746 -0.00741008 0)
(-6.71325e-05 -0.00121653 0)
(-6.7763e-06 -6.78466e-05 0)
(-0.00032668 0.000472933 0)
(-0.00104617 0.00144061 0)
(-0.00216708 0.00263685 0)
(-0.00367995 0.00392214 0)
(-0.0055658 0.00520023 0)
(-0.00779675 0.00641085 0)
(-0.0103414 0.00752193 0)
(-0.0131681 0.00852265 0)
(-0.0162482 0.00941739 0)
(-0.019557 0.0102208 0)
(-0.0230758 0.0109535 0)
(-0.026792 0.0116394 0)
(-0.0306995 0.0123032 0)
(-0.034798 0.0129687 0)
(-0.039093 0.0136581 0)
(-0.0435951 0.0143913 0)
(-0.0483194 0.0151859 0)
(-0.0532847 0.0160567 0)
(-0.0585127 0.0170163 0)
(-0.0640279 0.0180749 0)
(-0.0698563 0.0192406 0)
(-0.076025 0.0205193 0)
(-0.0825615 0.0219148 0)
(-0.0894929 0.0234285 0)
(-0.0968452 0.0250593 0)
(-0.104642 0.0268032 0)
(-0.112904 0.028653 0)
(-0.121647 0.0305976 0)
(-0.130882 0.0326218 0)
(-0.140612 0.0347054 0)
(-0.150834 0.0368229 0)
(-0.161533 0.0389429 0)
(-0.172684 0.0410276 0)
(-0.184248 0.0430327 0)
(-0.196175 0.0449071 0)
(-0.208399 0.0465934 0)
(-0.220838 0.0480278 0)
(-0.233394 0.0491412 0)
(-0.245956 0.04986 0)
(-0.258395 0.0501076 0)
(-0.27057 0.0498065 0)
(-0.282327 0.0488798 0)
(-0.293503 0.047254 0)
(-0.303926 0.0448615 0)
(-0.313419 0.0416438 0)
(-0.321806 0.0375539 0)
(-0.328909 0.0325599 0)
(-0.334557 0.0266481 0)
(-0.338583 0.0198257 0)
(-0.340833 0.0121249 0)
(-0.341164 0.00360506 0)
(-0.33945 -0.00564335 0)
(-0.335581 -0.0154973 0)
(-0.329471 -0.025798 0)
(-0.321059 -0.0363482 0)
(-0.310317 -0.0469129 0)
(-0.297252 -0.0572196 0)
(-0.281919 -0.0669621 0)
(-0.264427 -0.0758075 0)
(-0.244949 -0.0834068 0)
(-0.223729 -0.0894104 0)
(-0.201092 -0.0934893 0)
(-0.177444 -0.0953594 0)
(-0.15327 -0.09481 0)
(-0.129122 -0.0917319 0)
(-0.105601 -0.0861434 0)
(-0.0833224 -0.0782089 0)
(-0.0628833 -0.0682489 0)
(-0.0448169 -0.0567384 0)
(-0.029553 -0.0442965 0)
(-0.0173833 -0.0316707 0)
(-0.00843272 -0.0197227 0)
(-0.00269701 -0.00941532 0)
(-8.51827e-05 -0.00183986 0)
(-1.25446e-05 2.18736e-05 0)
(-0.000409042 0.000763152 0)
(-0.00126546 0.00194004 0)
(-0.00256884 0.00334393 0)
(-0.0042978 0.00482796 0)
(-0.0064251 0.0062911 0)
(-0.00891635 0.00767061 0)
(-0.0117353 0.00893387 0)
(-0.0148471 0.010071 0)
(-0.0182205 0.0110884 0)
(-0.0218298 0.0120033 0)
(-0.0256554 0.0128397 0)
(-0.0296846 0.0136246 0)
(-0.0339112 0.0143858 0)
(-0.0383355 0.0151502 0)
(-0.0429636 0.0159426 0)
(-0.0478065 0.0167855 0)
(-0.0528799 0.0176983 0)
(-0.0582032 0.0186976 0)
(-0.0637988 0.0197975 0)
(-0.0696915 0.0210091 0)
(-0.0759075 0.0223411 0)
(-0.0824741 0.0237999 0)
(-0.0894186 0.025389 0)
(-0.0967677 0.0271095 0)
(-0.104546 0.0289592 0)
(-0.112777 0.0309327 0)
(-0.121478 0.0330208 0)
(-0.130664 0.0352099 0)
(-0.140342 0.0374814 0)
(-0.150512 0.0398112 0)
(-0.161167 0.0421691 0)
(-0.172286 0.0445184 0)
(-0.18384 0.0468152 0)
(-0.195784 0.0490086 0)
(-0.208063 0.0510405 0)
(-0.220603 0.0528457 0)
(-0.233318 0.0543529 0)
(-0.246105 0.0554853 0)
(-0.258849 0.0561619 0)
(-0.271417 0.0562993 0)
(-0.283667 0.0558138 0)
(-0.295447 0.0546233 0)
(-0.306594 0.0526506 0)
(-0.316943 0.0498254 0)
(-0.326322 0.0460881 0)
(-0.334564 0.041392 0)
(-0.341501 0.0357069 0)
(-0.346972 0.0290221 0)
(-0.350822 0.0213493 0)
(-0.352905 0.0127257 0)
(-0.353089 0.00321771 0)
(-0.35125 -0.00707668 0)
(-0.347285 -0.0180252 0)
(-0.341103 -0.029458 0)
(-0.332639 -0.0411649 0)
(-0.321851 -0.0528945 0)
(-0.308732 -0.0643546 0)
(-0.293315 -0.0752151 0)
(-0.275686 -0.0851138 0)
(-0.25599 -0.0936678 0)
(-0.234449 -0.100489 0)
(-0.211366 -0.105207 0)
(-0.18713 -0.107495 0)
(-0.162222 -0.107104 0)
(-0.1372 -0.103893 0)
(-0.112682 -0.097861 0)
(-0.0893159 -0.0891705 0)
(-0.0677407 -0.0781607 0)
(-0.0485406 -0.0653471 0)
(-0.0322004 -0.0514087 0)
(-0.0190679 -0.0371677 0)
(-0.00932134 -0.0235662 0)
(-0.00301187 -0.0116427 0)
(-0.000101634 -0.00254306 0)
(-1.84608e-05 0.000133103 0)
(-0.000494535 0.0011088 0)
(-0.00149353 0.00252115 0)
(-0.00298684 0.00415267 0)
(-0.00494023 0.00585038 0)
(-0.00731751 0.00750958 0)
(-0.0100771 0.00906602 0)
(-0.0131775 0.0104874 0)
(-0.01658 0.0117653 0)
(-0.0202509 0.0129088 0)
(-0.024163 0.0139382 0)
(-0.0282958 0.0148809 0)
(-0.0326364 0.0157673 0)
(-0.0371786 0.0166287 0)
(-0.0419231 0.0174948 0)
(-0.0468763 0.0183935 0)
(-0.0520498 0.0193495 0)
(-0.0574598 0.0203842 0)
(-0.0631261 0.0215161 0)
(-0.0690714 0.0227604 0)
(-0.0753206 0.0241292 0)
(-0.0819002 0.0256319 0)
(-0.088837 0.0272749 0)
(-0.096158 0.0290616 0)
(-0.103889 0.0309923 0)
(-0.112054 0.0330638 0)
(-0.120673 0.035269 0)
(-0.129763 0.0375963 0)
(-0.139336 0.0400294 0)
(-0.149395 0.0425459 0)
(-0.159938 0.0451177 0)
(-0.170952 0.0477096 0)
(-0.182412 0.0502792 0)
(-0.194283 0.0527766 0)
(-0.206517 0.0551439 0)
(-0.219051 0.0573161 0)
(-0.231808 0.0592206 0)
(-0.244697 0.0607785 0)
(-0.257611 0.0619059 0)
(-0.270432 0.062515 0)
(-0.283028 0.0625164 0)
(-0.295258 0.0618209 0)
(-0.30697 0.0603426 0)
(-0.318008 0.0580012 0)
(-0.328212 0.0547251 0)
(-0.337423 0.0504542 0)
(-0.34548 0.045143 0)
(-0.352228 0.0387635 0)
(-0.357518 0.0313081 0)
(-0.361206 0.0227924 0)
(-0.363157 0.0132585 0)
(-0.363246 0.00277798 0)
(-0.361357 -0.00854474 0)
(-0.357385 -0.0205702 0)
(-0.351238 -0.0331203 0)
(-0.342841 -0.0459738 0)
(-0.332139 -0.058866 0)
(-0.319107 -0.0714874 0)
(-0.303753 -0.0834855 0)
(-0.286135 -0.0944707 0)
(-0.266371 -0.104026 0)
(-0.244652 -0.111725 0)
(-0.221255 -0.117151 0)
(-0.19655 -0.119934 0)
(-0.171008 -0.119778 0)
(-0.145189 -0.116505 0)
(-0.11973 -0.110088 0)
(-0.0953113 -0.100682 0)
(-0.0726161 -0.0886376 0)
(-0.0522843 -0.0745086 0)
(-0.0348614 -0.0590322 0)
(-0.0207571 -0.0431056 0)
(-0.010208 -0.0277531 0)
(-0.00332302 -0.014091 0)
(-0.00011711 -0.00332449 0)
(-2.45174e-05 0.000266584 0)
(-0.000582887 0.00151197 0)
(-0.0017296 0.00318706 0)
(-0.00341958 0.00506682 0)
(-0.00560498 0.00699342 0)
(-0.0082399 0.0088596 0)
(-0.011275 0.0106007 0)
(-0.014663 0.0121854 0)
(-0.018361 0.0136077 0)
(-0.0223327 0.0148799 0)
(-0.0265488 0.0160258 0)
(-0.0309882 0.0170764 0)