/*--------------------------------*- C++ -*----------------------------------*\
  =========                 |
  \\      /  F ield         | OpenFOAM: The Open Source CFD Toolbox
   \\    /   O peration     | Website:  https://openfoam.org
    \\  /    A nd           | Version:  12
     \\/     M anipulation  |
\*---------------------------------------------------------------------------*/
FoamFile
{
    format      ascii;
    class       volVectorField;
    location    "1.55";
    object      U;
}
// * * * * * * * * * * * * * * * * * * * * * * * * * * * * * * * * * * * * * //

dimensions      [0 1 -1 0 0 0 0];

internalField   nonuniform List<vector> 
400
(
(2.45988e-06 -4.92441e-06 0)
(2.27367e-05 -1.40634e-05 0)
(5.74459e-05 -2.0035e-05 0)
(0.000100696 -2.23167e-05 0)
(0.000145321 -2.17604e-05 0)
(0.000186417 -1.92717e-05 0)
(0.000221065 -1.56156e-05 0)
(0.000247697 -1.13599e-05 0)
(0.000265615 -6.86078e-06 0)
(0.000274604 -2.29332e-06 0)
(0.000274636 2.28491e-06 0)
(0.000265703 6.85692e-06 0)
(0.000247826 1.13641e-05 0)
(0.00022121 1.56292e-05 0)
(0.000186555 1.92937e-05 0)
(0.000145431 2.17873e-05 0)
(0.000100769 2.23432e-05 0)
(5.74824e-05 2.00555e-05 0)
(2.2747e-05 1.40744e-05 0)
(2.45942e-06 4.92636e-06 0)
(6.61461e-06 -4.47284e-05 0)
(5.28091e-05 -0.000110155 0)
(0.000121328 -0.000148789 0)
(0.000200581 -0.000162652 0)
(0.000278448 -0.000157196 0)
(0.000347483 -0.000138511 0)
(0.000403839 -0.000111894 0)
(0.000445987 -8.12574e-05 0)
(0.000473743 -4.90437e-05 0)
(0.000487493 -1.64318e-05 0)
(0.000487582 1.62309e-05 0)
(0.000473995 4.88852e-05 0)
(0.000446358 8.11741e-05 0)
(0.00040427 0.000111901 0)
(0.000347905 0.000138606 0)
(0.000278804 0.000157352 0)
(0.000200833 0.000162831 0)
(0.000121468 0.000148945 0)
(5.28596e-05 0.000110252 0)
(6.61817e-06 4.4756e-05 0)
(8.29125e-06 -0.000107346 0)
(6.14963e-05 -0.00024453 0)
(0.000132089 -0.000314164 0)
(0.000205645 -0.000330453 0)
(0.000269613 -0.000309072 0)
(0.000318696 -0.000264445 0)
(0.000352543 -0.000208068 0)
(0.000373488 -0.000147773 0)
(0.000384887 -8.77776e-05 0)
(0.000389795 -2.92573e-05 0)
(0.00038998 2.85853e-05 0)
(0.000385413 8.72257e-05 0)
(0.000374269 0.000147435 0)
(0.00035346 0.00020799 0)
(0.000319614 0.000264629 0)
(0.000270404 0.000309457 0)
(0.00020622 0.00033093 0)
(0.000132417 0.000314608 0)
(6.16182e-05 0.000244829 0)
(8.2987e-06 0.000107442 0)
(8.25444e-06 -0.000170858 0)
(4.80483e-05 -0.000364659 0)
(8.42481e-05 -0.000441504 0)
(0.000102783 -0.000436236 0)
(9.60886e-05 -0.000381054 0)
(6.65575e-05 -0.000302551 0)
(2.28299e-05 -0.000220016 0)
(-2.38221e-05 -0.000144826 0)
(-6.22462e-05 -8.09507e-05 0)
(-8.36503e-05 -2.63841e-05 0)
(-8.32793e-05 2.47313e-05 0)
(-6.11917e-05 7.95665e-05 0)
(-2.22553e-05 0.000143929 0)
(2.46881e-05 0.00021973 0)
(6.84501e-05 0.000302882 0)
(9.77459e-05 0.000381878 0)
(0.000104011 0.000437323 0)
(8.49688e-05 0.000442563 0)
(4.83283e-05 0.00036541 0)
(8.27487e-06 0.000171119 0)
(6.28023e-06 -0.000211226 0)
(4.73001e-06 -0.00040321 0)
(-4.66265e-05 -0.000428355 0)
(-0.000156592 -0.000353384 0)
(-0.000319111 -0.000235061 0)
(-0.000515332 -0.000116641 0)
(-0.000719217 -2.62706e-05 0)
(-0.000902859 2.31204e-05 0)
(-0.00104102 3.23357e-05 0)
(-0.00111478 1.29635e-05 0)
(-0.00111408 -1.65318e-05 0)
(-0.00103901 -3.53566e-05 0)
(-0.000899824 -2.51393e-05 0)
(-0.000715588 2.55353e-05 0)
(-0.000511615 0.000117223 0)
(-0.000315805 0.000236738 0)
(-0.000154089 0.000355702 0)
(-4.51143e-05 0.0004307 0)
(5.34656e-06 0.000404945 0)
(6.3348e-06 0.000211873 0)
(7.58373e-07 -0.000193198 0)
(-8.76959e-05 -0.000258629 0)
(-0.000312034 -0.000118454 0)
(-0.000667379 0.000111807 0)
(-0.00112002 0.000339908 0)
(-0.00162073 0.000500822 0)
(-0.00211307 0.000557698 0)
(-0.00254097 0.000500801 0)
(-0.00285579 0.000344151 0)
(-0.00302192 0.000120142 0)
(-0.00302066 -0.000127268 0)
(-0.00285216 -0.000350233 0)
(-0.00253546 -0.000504959 0)
(-0.00210641 -0.000559363 0)
(-0.00161382 -0.000499855 0)
(-0.00111377 -0.000336666 0)
(-0.000662545 -0.000107127 0)
(-0.000309028 0.00012336 0)
(-8.64179e-05 0.000262406 0)
(8.86484e-07 0.000194693 0)
(-1.12036e-05 -5.66241e-05 0)
(-0.000261911 0.000236855 0)
(-0.000796552 0.000741517 0)
(-0.00158211 0.00126897 0)
(-0.00253441 0.00167738 0)
(-0.00355227 0.00187494 0)
(-0.00452931 0.0018189 0)
(-0.00536448 0.00151211 0)
(-0.00597229 0.000996427 0)
(-0.00629117 0.000343437 0)
(-0.00628908 -0.000356774 0)
(-0.00596624 -0.00100791 0)
(-0.00535521 -0.00152015 0)
(-0.00451798 -0.00182239 0)
(-0.00354031 -0.0018735 0)
(-0.00252337 -0.0016715 0)
(-0.00157337 -0.00126006 0)
(-0.000790965 -0.000731829 0)
(-0.000259439 -0.000229094 0)
(-1.09306e-05 5.98698e-05 0)
(-3.42062e-05 0.000298394 0)
(-0.000567622 0.00135348 0)
(-0.00162633 0.00255151 0)
(-0.00312485 0.00359938 0)
(-0.00489273 0.00428928 0)
(-0.00674451 0.00449964 0)
(-0.00849577 0.00418991 0)
(-0.00997684 0.00339255 0)
(-0.0110471 0.00220111 0)
(-0.0116066 0.000754965 0)
(-0.0116035 -0.000778235 0)
(-0.0110381 -0.00222138 0)
(-0.00996288 -0.00340715 0)
(-0.00847837 -0.00419683 0)
(-0.00672571 -0.00449795 0)
(-0.00487491 -0.00427946 0)
(-0.0031103 -0.00358359 0)
(-0.0016167 -0.00253359 0)
(-0.000563174 -0.0013385 0)
(-3.3671e-05 -0.00029179 0)
(-7.52033e-05 0.00103076 0)
(-0.00107585 0.0035095 0)
(-0.00297779 0.0059188 0)
(-0.00560399 0.00782226 0)
(-0.00864354 0.00893039 0)
(-0.0117802 0.00909507 0)
(-0.0147132 0.00829585 0)
(-0.0171731 0.00662384 0)
(-0.0189408 0.00426138 0)
(-0.0198624 0.00145812 0)
(-0.0198586 -0.00149523 0)
(-0.0189298 -0.0042942 0)
(-0.0171555 -0.00664834 0)
(-0.0146905 -0.00830871 0)
(-0.0117548 -0.00909422 0)
(-0.00861829 -0.0089158 0)
(-0.00558239 -0.00779664 0)
(-0.00296278 -0.00588807 0)
(-0.00106852 -0.00348253 0)
(-7.42274e-05 -0.00101819 0)
(-0.000144208 0.00238234 0)
(-0.00188288 0.00732489 0)
(-0.00508369 0.0117257 0)
(-0.00941751 0.0149644 0)
(-0.0143542 0.0166616 0)
(-0.0193835 0.0166599 0)
(-0.0240388 0.014994 0)
(-0.0279139 0.0118612 0)
(-0.0306846 0.00758791 0)
(-0.0321261 0.00259368 0)
(-0.0321235 -0.00264549 0)
(-0.0306765 -0.00763482 0)
(-0.0278997 -0.0118982 0)
(-0.0240185 -0.0150161 0)
(-0.0193581 -0.0166629 0)
(-0.0143263 -0.0166437 0)
(-0.00939117 -0.0149277 0)
(-0.00506369 -0.011678 0)
(-0.0018722 -0.00728022 0)
(-0.000142581 -0.0023601 0)
(-0.000255139 0.00470588 0)
(-0.00311239 0.0136782 0)
(-0.00823118 0.0211936 0)
(-0.0150393 0.0264158 0)
(-0.0226776 0.0288896 0)
(-0.0303602 0.0284937 0)
(-0.0373987 0.0253827 0)
(-0.043212 0.0199343 0)
(-0.0473472 0.0126974 0)
(-0.0494951 0.00434054 0)
(-0.0494984 -0.00439681 0)
(-0.0473558 -0.0127511 0)
(-0.0432216 -0.0199812 0)
(-0.037404 -0.0254167 0)
(-0.0303572 -0.0285073 0)
(-0.0226651 -0.0288763 0)
(-0.0150204 -0.0263737 0)
(-0.00821217 -0.0211298 0)
(-0.00309992 -0.0136122 0)
(-0.000252754 -0.00467001 0)
(-0.000426868 0.00849491 0)
(-0.00491426 0.0237556 0)
(-0.0127447 0.0359193 0)
(-0.0229688 0.0439361 0)
(-0.0342518 0.0473385 0)
(-0.0454382 0.046141 0)
(-0.0555653 0.040732 0)
(-0.0638534 0.0317826 0)
(-0.0697134 0.0201688 0)
(-0.0727522 0.0069025 0)
(-0.0727719 -0.00692583 0)
(-0.0697681 -0.020199 0)
(-0.0639309 -0.0318223 0)
(-0.0556487 -0.0407762 0)
(-0.0455105 -0.0461778 0)
(-0.0343008 -0.0473516 0)
(-0.0229907 -0.0439121 0)
(-0.0127457 -0.0358569 0)
(-0.00490693 -0.0236751 0)
(-0.000424098 -0.00844425 0)
(-0.000685057 0.014413 0)
(-0.00746007 0.039072 0)
(-0.018945 0.0578416 0)
(-0.0336176 0.069544 0)
(-0.0494836 0.0738684 0)
(-0.0649278 0.0711662 0)
(-0.0786943 0.0622527 0)
(-0.089825 0.0482573 0)
(-0.0976316 0.030511 0)
(-0.101672 0.0104651 0)
(-0.101726 -0.0103653 0)
(-0.0977842 -0.0304424 0)
(-0.0900494 -0.0482411 0)
(-0.078952 -0.0622927 0)
(-0.0651763 -0.0712461 0)
(-0.0496857 -0.0739552 0)
(-0.0337513 -0.0695984 0)
(-0.0190097 -0.0578362 0)
(-0.00747604 -0.0390126 0)
(-0.000683558 -0.014357 0)
(-0.00106703 0.0233248 0)
(-0.0109404 0.0614391 0)
(-0.0270739 0.0890618 0)
(-0.0470894 0.105169 0)
(-0.068126 0.109991 0)
(-0.0880724 0.104601 0)
(-0.105454 0.0905592 0)
(-0.119257 0.0696764 0)
(-0.128821 0.0438722 0)
(-0.133753 0.0150971 0)
(-0.133866 -0.0146962 0)
(-0.129143 -0.0435508 0)
(-0.11974 -0.0694959 0)
(-0.106026 -0.090548 0)
(-0.0886512 -0.104746 0)
(-0.0686293 -0.110234 0)
(-0.0474569 -0.105423 0)
(-0.0272831 -0.0892404 0)
(-0.0110166 -0.0614963 0)
(-0.00107104 -0.023299 0)
(-0.00164051 0.0363529 0)
(-0.0155805 0.0928427 0)
(-0.0371614 0.131385 0)
(-0.0627544 0.151846 0)
(-0.0884732 0.155826 0)
(-0.111848 0.145819 0)
(-0.131472 0.124615 0)
(-0.146591 0.0949735 0)
(-0.156848 0.0594851 0)
(-0.162098 0.020548 0)
(-0.162289 -0.019579 0)
(-0.157401 -0.0586803 0)
(-0.147438 -0.0944641 0)
(-0.132502 -0.124468 0)
(-0.112926 -0.146042 0)
(-0.0894542 -0.156341 0)
(-0.0635155 -0.152499 0)
(-0.037633 -0.131982 0)
(-0.0157776 -0.093215 0)
(-0.00165872 -0.0364443 0)
(-0.0025352 0.0549614 0)
(-0.0216608 0.135071 0)
(-0.0486847 0.185217 0)
(-0.0782944 0.207986 0)
(-0.105723 0.208039 0)
(-0.128729 0.190467 0)
(-0.146664 0.159924 0)
(-0.159625 0.120323 0)
(-0.168016 0.0748081 0)
(-0.17223 0.0259449 0)
(-0.172485 -0.02408 0)
(-0.168757 -0.0732001 0)
(-0.160775 -0.119203 0)
(-0.148103 -0.159472 0)
(-0.1303 -0.190734 0)
(-0.107232 -0.208945 0)
(-0.0795442 -0.209287 0)
(-0.0495211 -0.186572 0)
(-0.0220486 -0.136088 0)
(-0.00258275 -0.0553349 0)
(-0.00382061 0.0812796 0)
(-0.0292147 0.188864 0)
(-0.0591988 0.247028 0)
(-0.0869777 0.265824 0)
(-0.108153 0.256176 0)
(-0.12225 0.2273 0)
(-0.13066 0.186118 0)
(-0.135132 0.137462 0)
(-0.137222 0.0845408 0)
(-0.13808 0.0294135 0)
(-0.138301 -0.0265022 0)
(-0.13788 -0.0819842 0)
(-0.136199 -0.135582 0)
(-0.13208 -0.185164 0)
(-0.123895 -0.227422 0)
(-0.109823 -0.257361 0)
(-0.0884765 -0.267856 0)
(-0.0602982 -0.249411 0)
(-0.0297874 -0.19087 0)
(-0.00390065 -0.0821411 0)
(-0.00567738 0.121377 0)
(-0.0361692 0.252318 0)
(-0.0587989 0.30271 0)
(-0.0690536 0.30332 0)
(-0.0675332 0.27566 0)
(-0.0583177 0.233221 0)
(-0.0457642 0.183969 0)
(-0.033431 0.132215 0)
(-0.0238561 0.0799581 0)
(-0.0186517 0.0278162 0)
(-0.0186134 -0.0243194 0)
(-0.0237722 -0.0767881 0)
(-0.0333838 -0.129712 0)
(-0.0458607 -0.182475 0)
(-0.0586517 -0.233033 0)
(-0.0681453 -0.276928 0)
(-0.0698364 -0.305889 0)
(-0.0595169 -0.30613 0)
(-0.0366594 -0.255632 0)
(-0.00579186 -0.123022 0)
(-0.0145068 0.185289 0)
(-0.0304637 0.315803 0)
(-0.00974727 0.32553 0)
(0.033489 0.28937 0)
(0.0837751 0.238961 0)
(0.13211 0.18716 0)
(0.173939 0.138915 0)
(0.206803 0.0954228 0)
(0.229365 0.0560559 0)
(0.240984 0.0193562 0)
(0.241396 -0.0164658 0)
(0.230557 -0.0533019 0)
(0.20864 -0.0929831 0)
(0.176205 -0.137028 0)
(0.134495 -0.186151 0)
(0.0859322 -0.23919 0)
(0.0350922 -0.291072 0)
(-0.00894819 -0.32851 0)
(-0.0302889 -0.319063 0)
(-0.0145628 -0.187185 0)
(0.102254 0.097845 0)
(0.170891 0.136615 0)
(0.285787 0.116744 0)
(0.399393 0.0889078 0)
(0.490753 0.0651395 0)
(0.559866 0.0463299 0)
(0.610715 0.0317471 0)
(0.646389 0.0204721 0)
(0.669079 0.0115094 0)
(0.680251 0.00389583 0)
(0.680635 -0.00327094 0)
(0.670278 -0.0108174 0)
(0.648323 -0.0197197 0)
(0.61331 -0.0309178 0)
(0.562973 -0.0454405 0)
(0.494121 -0.064261 0)
(0.402646 -0.0881788 0)
(0.28839 -0.116392 0)
(0.172343 -0.136867 0)
(0.102609 -0.0984018 0)
)
;

boundaryField
{
    movingWall
    {
        type            fixedValue;
        value           uniform (1 0 0);
    }
    fixedWalls
    {
        type            noSlip;
    }
    frontAndBack
    {
        type            empty;
    }
}


// ************************************************************************* //
