/*--------------------------------*- C++ -*----------------------------------*\
  =========                 |
  \\      /  F ield         | OpenFOAM: The Open Source CFD Toolbox
   \\    /   O peration     | Website:  https://openfoam.org
    \\  /    A nd           | Version:  12
     \\/     M anipulation  |
\*---------------------------------------------------------------------------*/
FoamFile
{
    format      ascii;
    class       volScalarField;
    location    "7.5";
    object      k;
}
// * * * * * * * * * * * * * * * * * * * * * * * * * * * * * * * * * * * * * //

dimensions      [0 2 -2 0 0 0 0];

internalField   nonuniform List<scalar> 
18225
(
3.36587e-10
2.27797e-09
5.07834e-09
8.42465e-09
1.21724e-08
1.62297e-08
2.05276e-08
2.50087e-08
2.9623e-08
3.43259e-08
3.90775e-08
4.38432e-08
4.85936e-08
5.33059e-08
5.79644e-08
6.25613e-08
6.70977e-08
7.15842e-08
7.60416e-08
8.05015e-08
8.50067e-08
8.9612e-08
9.43843e-08
9.94036e-08
1.04763e-07
1.10571e-07
1.16951e-07
1.24039e-07
1.31993e-07
1.40983e-07
1.51203e-07
1.62863e-07
1.76192e-07
1.91443e-07
2.08888e-07
2.28818e-07
2.51548e-07
2.7741e-07
3.06758e-07
3.39962e-07
3.77407e-07
4.19495e-07
4.66639e-07
5.19263e-07
5.778e-07
6.4269e-07
7.14377e-07
7.93307e-07
8.79929e-07
9.74689e-07
1.07803e-06
1.1904e-06
1.31221e-06
1.4439e-06
1.58587e-06
1.73852e-06
1.9022e-06
2.07727e-06
2.26406e-06
2.46286e-06
2.67393e-06
2.89752e-06
3.13382e-06
3.38302e-06
3.64526e-06
3.92065e-06
4.20928e-06
4.5112e-06
4.82644e-06
5.15502e-06
5.4969e-06
5.85205e-06
6.22038e-06
6.6018e-06
6.99617e-06
7.40332e-06
7.82302e-06
8.25503e-06
8.69902e-06
9.15459e-06
9.62127e-06
1.00985e-05
1.05855e-05
1.10816e-05
1.15857e-05
1.20966e-05
1.26129e-05
1.3133e-05
1.36548e-05
1.41761e-05
1.46942e-05
1.52059e-05
1.57077e-05
1.61953e-05
1.66641e-05
1.71089e-05
1.75239e-05
1.79024e-05
1.82371e-05
1.85201e-05
1.87426e-05
1.88897e-05
1.89554e-05
1.89601e-05
1.88693e-05
1.86747e-05
1.83728e-05
1.79611e-05
1.74387e-05
1.68074e-05
1.60716e-05
1.52393e-05
1.43219e-05
1.33339e-05
1.22926e-05
1.12175e-05
1.01291e-05
9.048e-06
7.9939e-06
6.98438e-06
6.03418e-06
5.1546e-06
4.35321e-06
3.6339e-06
2.99712e-06
2.44038e-06
1.95889e-06
1.54621e-06
1.19482e-06
8.96887e-07
6.44933e-07
4.32528e-07
2.55375e-07
1.13331e-07
1.67154e-08
2.54409e-09
2.0288e-08
4.55708e-08
7.57247e-08
1.09478e-07
1.46012e-07
1.84708e-07
2.25051e-07
2.66591e-07
3.08927e-07
3.51701e-07
3.94599e-07
4.37359e-07
4.79775e-07
5.21704e-07
5.63077e-07
6.03904e-07
6.44279e-07
6.84391e-07
7.24522e-07
7.65058e-07
8.06491e-07
8.49425e-07
8.9458e-07
9.42795e-07
9.95042e-07
1.05242e-06
1.11619e-06
1.18773e-06
1.26861e-06
1.36054e-06
1.46543e-06
1.58534e-06
1.72254e-06
1.87947e-06
2.05878e-06
2.26327e-06
2.49596e-06
2.76001e-06
3.05876e-06
3.39569e-06
3.77439e-06
4.1986e-06
4.67214e-06
5.19889e-06
5.78282e-06
6.42792e-06
7.1382e-06
7.91771e-06
8.77046e-06
9.70046e-06
1.07117e-05
1.18079e-05
1.2993e-05
1.42707e-05
1.56443e-05
1.71174e-05
1.8693e-05
2.03739e-05
2.2163e-05
2.40625e-05
2.60746e-05
2.82012e-05
3.04438e-05
3.28037e-05
3.52819e-05
3.78792e-05
4.05962e-05
4.3433e-05
4.63897e-05
4.94662e-05
5.26619e-05
5.59763e-05
5.94084e-05
6.29569e-05
6.66204e-05
7.03968e-05
7.42839e-05
7.82786e-05
8.23776e-05
8.65765e-05
9.08702e-05
9.52524e-05
9.97156e-05
0.000104251
0.000108848
0.000113493
0.000118173
0.000122868
0.000127559
0.000132221
0.000136826
0.000141341
0.00014573
0.00014995
0.000153955
0.000157691
0.0001611
0.000164115
0.000166666
0.000168664
0.000169972
0.000170542
0.000170574
0.000169743
0.000167977
0.000165247
0.000161531
0.000156821
0.000151134
0.000144509
0.000137019
0.000128765
0.000119879
0.000110515
0.000100849
9.10637e-05
8.13452e-05
7.18694e-05
6.27943e-05
5.42523e-05
4.63448e-05
3.914e-05
3.26727e-05
2.69472e-05
2.19413e-05
1.76117e-05
1.38998e-05
1.07394e-05
8.0601e-06
5.79428e-06
3.88382e-06
2.28956e-06
1.00862e-06
1.26287e-07
5.40476e-09
4.6347e-08
1.04781e-07
1.74478e-07
2.52483e-07
3.36903e-07
4.2631e-07
5.19515e-07
6.15481e-07
7.1328e-07
8.12085e-07
9.11171e-07
1.00993e-06
1.10788e-06
1.20471e-06
1.30023e-06
1.39449e-06
1.48768e-06
1.58026e-06
1.67286e-06
1.76639e-06
1.86197e-06
1.961e-06
2.06514e-06
2.17633e-06
2.29681e-06
2.42913e-06
2.57616e-06
2.74114e-06
2.92764e-06
3.13966e-06
3.38156e-06
3.65813e-06
3.97461e-06
4.33664e-06
4.75032e-06
5.22215e-06
5.75908e-06
6.36844e-06
7.05793e-06
7.83558e-06
8.70976e-06
9.68907e-06
1.07823e-05
1.19986e-05
1.3347e-05
1.48367e-05
1.64772e-05
1.82777e-05
2.02476e-05
2.23962e-05
2.47326e-05
2.72659e-05
3.00049e-05
3.2958e-05
3.61336e-05
3.95395e-05
4.31829e-05
4.70707e-05
5.12092e-05
5.56041e-05
6.02604e-05
6.51824e-05
7.03741e-05
7.58385e-05
8.15782e-05
8.7595e-05
9.38901e-05
0.000100464
0.000107318
0.00011445
0.00012186
0.000129546
0.000137506
0.000145736
0.000154233
0.000162991
0.000172005
0.000181268
0.00019077
0.000200501
0.000210447
0.000220594
0.000230923
0.000241413
0.000252038
0.000262767
0.000273565
0.000284391
0.000295195
0.000305922
0.000316505
0.00032687
0.000336932
0.000346593
0.000355746
0.000364271
0.000372033
0.000378883
0.00038466
0.000389181
0.000392104
0.000393322
0.000393348
0.00039137
0.000387245
0.000380905
0.000372303
0.00036142
0.000348291
0.000333008
0.000315736
0.000296707
0.000276223
0.000254641
0.000232361
0.000209809
0.00018741
0.000165571
0.000144657
0.000124972
0.000106751
9.01502e-05
7.52497e-05
6.2059e-05
5.05267e-05
4.05532e-05
3.2004e-05
2.47246e-05
1.85526e-05
1.33321e-05
8.92919e-06
5.25358e-06
2.2997e-06
2.67792e-07
8.84144e-09
7.77092e-08
1.76531e-07
2.94555e-07
4.26682e-07
5.69678e-07
7.21115e-07
8.78979e-07
1.04151e-06
1.20713e-06
1.37445e-06
1.54223e-06
1.70943e-06
1.87525e-06
2.03913e-06
2.20078e-06
2.36025e-06
2.5179e-06
2.67446e-06
2.83103e-06
2.98913e-06
3.15067e-06
3.318e-06
3.49394e-06
3.68177e-06
3.88528e-06
4.10878e-06
4.35714e-06
4.63582e-06
4.9509e-06
5.30911e-06
5.71786e-06
6.18527e-06
6.72018e-06
7.33217e-06
8.03157e-06
8.82942e-06
9.73748e-06
1.07682e-05
1.19346e-05
1.32504e-05
1.47297e-05
1.63872e-05
1.82379e-05
2.0297e-05
2.25803e-05
2.51033e-05
2.7882e-05
3.09324e-05
3.42704e-05
3.79117e-05
4.18722e-05
4.61673e-05
5.0812e-05
5.58212e-05
6.12089e-05
6.69887e-05
7.31732e-05
7.97744e-05
8.68031e-05
9.42693e-05
0.000102182
0.000110549
0.000119376
0.00012867
0.000138434
0.000148672
0.000159386
0.000170577
0.000182245
0.000194387
0.000207002
0.000220086
0.000233632
0.000247634
0.000262083
0.000276968
0.000292277
0.000307994
0.000324101
0.000340577
0.000357396
0.00037453
0.000391946
0.000409602
0.000427455
0.000445452
0.000463531
0.000481622
0.000499645
0.000517505
0.000535094
0.000552291
0.000568957
0.000584934
0.000600049
0.000614105
0.000626886
0.000638154
0.000647647
0.000655073
0.000659829
0.00066175
0.000661754
0.000658426
0.000651518
0.00064092
0.000626546
0.000608355
0.000586391
0.000560799
0.000531844
0.000499909
0.000465493
0.000429196
0.000391694
0.000353706
0.000315956
0.000279135
0.000243865
0.000210665
0.000179933
0.000151936
0.00012681
0.00010457
8.51298e-05
6.83193e-05
5.3911e-05
4.16429e-05
3.12404e-05
2.24402e-05
1.50166e-05
8.81877e-06
3.84245e-06
4.36582e-07
1.27476e-08
1.13167e-07
2.57973e-07
4.31225e-07
6.25292e-07
8.35362e-07
1.05784e-06
1.28976e-06
1.52853e-06
1.77183e-06
2.01759e-06
2.264e-06
2.50953e-06
2.75298e-06
2.99353e-06
3.23077e-06
3.46473e-06
3.69596e-06
3.92552e-06
4.15504e-06
4.38671e-06
4.62337e-06
4.86846e-06
5.12611e-06
5.40114e-06
5.69911e-06
6.02635e-06
6.39001e-06
6.79811e-06
7.25956e-06
7.78426e-06
8.3831e-06
9.06801e-06
9.85199e-06
1.07491e-05
1.17746e-05
1.29447e-05
1.42767e-05
1.5789e-05
1.75007e-05
1.94321e-05
2.1604e-05
2.40381e-05
2.67564e-05
2.97817e-05
3.31369e-05
3.68454e-05
4.09308e-05
4.54168e-05
5.03269e-05
5.56847e-05
6.15138e-05
6.78372e-05
7.46776e-05
8.2057e-05
8.99968e-05
9.85172e-05
0.000107638
0.000117376
0.000127749
0.000138771
0.000150456
0.000162816
0.000175861
0.000189597
0.000204033
0.00021917
0.000235012
0.000251557
0.000268803
0.000286744
0.000305374
0.000324682
0.000344654
0.000365275
0.000386525
0.000408381
0.000430818
0.000453806
0.00047731
0.000501294
0.000525712
0.000550518
0.000575656
0.000601067
0.000626683
0.000652426
0.000678211
0.00070394
0.000729502
0.000754771
0.000779603
0.000803834
0.000827279
0.00084973
0.000870952
0.000890683
0.000908628
0.00092447
0.00093785
0.000948349
0.000955146
0.000957923
0.000958018
0.000953497
0.000943868
0.000928978
0.000908677
0.000882876
0.000851601
0.000815026
0.000773502
0.000727557
0.0006779
0.000625391
0.000571014
0.000515824
0.000460893
0.000407248
0.000355816
0.000307373
0.000262518
0.000221651
0.000184976
0.000152519
0.000124152
9.96262e-05
7.8608e-05
6.07122e-05
4.55367e-05
3.26964e-05
2.18626e-05
1.28188e-05
5.56694e-06
6.26269e-07
1.7049e-08
1.52075e-07
3.4753e-07
5.8181e-07
8.44442e-07
1.12882e-06
1.43004e-06
1.74405e-06
2.06733e-06
2.39672e-06
2.72941e-06
3.06293e-06
3.3952e-06
3.72459e-06
4.04996e-06
4.37076e-06
4.68703e-06
4.99949e-06
5.30959e-06
5.6195e-06
5.93223e-06
6.25159e-06
6.58224e-06
6.92977e-06
7.3007e-06
7.70255e-06
8.14389e-06
8.63439e-06
9.18491e-06
9.80753e-06
1.05156e-05
1.1324e-05
1.22488e-05
1.33076e-05
1.45196e-05
1.59053e-05
1.74869e-05
1.92879e-05
2.13332e-05
2.3649e-05
2.62627e-05
2.92027e-05
3.24985e-05
3.61804e-05
4.02792e-05
4.48266e-05
4.98543e-05
5.53948e-05
6.14805e-05
6.8144e-05
7.54177e-05
8.33341e-05
9.19252e-05
0.000101222
0.000111256
0.000122057
0.000133652
0.000146068
0.000159332
0.000173464
0.000188488
0.000204419
0.000221275
0.000239067
0.000257805
0.000277494
0.000298137
0.000319731
0.000342271
0.000365747
0.000390144
0.000415442
0.000441617
0.000468639
0.000496475
0.000525084
0.000554424
0.000584445
0.000615095
0.000646314
0.000678042
0.000710211
0.000742751
0.000775585
0.000808633
0.000841807
0.000875013
0.000908147
0.000941094
0.000973729
0.00100591
0.00103746
0.00106821
0.00109794
0.00112641
0.00115334
0.00117842
0.00120129
0.00122158
0.00123882
0.00125248
0.00126165
0.00126563
0.0012661
0.00126096
0.00124919
0.0012306
0.00120494
0.00117205
0.00113188
0.0010846
0.00103062
0.00097057
0.000905361
0.00083611
0.00076412
0.00069081
0.000617636
0.000546008
0.000477207
0.000412317
0.000352177
0.000297352
0.000248139
0.000204584
0.00016652
0.000133615
0.000105419
8.14122e-05
6.10526e-05
4.38226e-05
2.92826e-05
1.71474e-05
7.42949e-06
8.3189e-07
2.1699e-08
1.94047e-07
4.44253e-07
7.44665e-07
1.08172e-06
1.44684e-06
1.83366e-06
2.23693e-06
2.65211e-06
3.07511e-06
3.5023e-06
3.93049e-06
4.35698e-06
4.77966e-06
5.19707e-06
5.60845e-06
6.01386e-06
6.41424e-06
6.8114e-06
7.20818e-06
7.6084e-06
8.01696e-06
8.43985e-06
8.88425e-06
9.35853e-06
9.87234e-06
1.04367e-05
1.1064e-05
1.17682e-05
1.25649e-05
1.34712e-05
1.45061e-05
1.56904e-05
1.70469e-05
1.86001e-05
2.03766e-05
2.24049e-05
2.47154e-05
2.73401e-05
3.03131e-05
3.36697e-05
3.74469e-05
4.16826e-05
4.64163e-05
5.1688e-05
5.75389e-05
6.40104e-05
7.11447e-05
7.89844e-05
8.75719e-05
9.69502e-05
0.000107162
0.000118248
0.000130252
0.000143212
0.00015717
0.00017216
0.00018822
0.000205382
0.000223674
0.000243124
0.000263753
0.00028558
0.000308616
0.00033287
0.000358342
0.000385028
0.000412917
0.000441988
0.000472215
0.000503563
0.00053599
0.000569446
0.000603873
0.000639207
0.000675376
0.000712305
0.000749911
0.00078811
0.000826815
0.000865936
0.000905383
0.000945063
0.000984887
0.00102476
0.00106459
0.00110428
0.00114372
0.0011828
0.00122141
0.0012594
0.00129661
0.00133286
0.00136794
0.00140158
0.00143351
0.00146336
0.00149075
0.00151522
0.00153623
0.00155315
0.00156513
0.00157083
0.00157208
0.0015672
0.00155423
0.00153297
0.00150306
0.00146419
0.00141624
0.00135931
0.00129381
0.00122046
0.00114031
0.00105471
0.000965273
0.000873774
0.000782075
0.000691998
0.000605225
0.000523192
0.000447029
0.00037751
0.000315056
0.000259759
0.000211426
0.000169642
0.000133838
0.000103354
7.74983e-05
5.56126e-05
3.71408e-05
2.17273e-05
9.39852e-06
1.04973e-06
2.66683e-08
2.38849e-07
5.47551e-07
9.1875e-07
1.33559e-06
1.78734e-06
2.26606e-06
2.76521e-06
3.27909e-06
3.80263e-06
4.33128e-06
4.86108e-06
5.38865e-06
5.91134e-06
6.42732e-06
6.93564e-06
7.43637e-06
7.93063e-06
8.4207e-06
8.91006e-06
9.40346e-06
9.90695e-06
1.0428e-05
1.09754e-05
1.15596e-05
1.21925e-05
1.28878e-05
1.36608e-05
1.45288e-05
1.55111e-05
1.66289e-05
1.79059e-05
1.93679e-05
2.1043e-05
2.29618e-05
2.51574e-05
2.76652e-05
3.05231e-05
3.37712e-05
3.74517e-05
4.16089e-05
4.62889e-05
5.15395e-05
5.74098e-05
6.39503e-05
7.12127e-05
7.92491e-05
8.81129e-05
9.78576e-05
0.000108537
0.000120206
0.000132918
0.000146726
0.000161683
0.000177842
0.00019525
0.000213955
0.000234001
0.000255428
0.000278271
0.00030256
0.000328319
0.000355563
0.000384303
0.000414536
0.000446253
0.000479433
0.000514043
0.000550041
0.000587369
0.00062596
0.000665734
0.000706601
0.000748461
0.000791206
0.000834722
0.000878891
0.000923592
0.000968706
0.00101412
0.00105971
0.00110538
0.00115103
0.00119656
0.0012419
0.00128695
0.00133164
0.0013759
0.00141964
0.00146276
0.00150517
0.00154673
0.00158727
0.00162661
0.00166449
0.00170062
0.00173462
0.00176607
0.00179445
0.00181916
0.00183947
0.00185462
0.00186266
0.00186512
0.0018614
0.00184831
0.00182557
0.00179273
0.00174934
0.00169513
0.00163011
0.00155463
0.00146946
0.00137573
0.00127497
0.00116905
0.0010601
0.000950345
0.000842045
0.000737301
0.000637945
0.000545443
0.000460834
0.000384707
0.000317236
0.000258227
0.0002072
0.00016347
0.000126234
9.46473e-05
6.79056e-05
4.53319e-05
2.6499e-05
1.14494e-05
1.27691e-06
3.19393e-08
2.86334e-07
6.57064e-07
1.10342e-06
1.60506e-06
2.14899e-06
2.72555e-06
3.32679e-06
3.9458e-06
4.57641e-06
5.2131e-06
5.85102e-06
6.48608e-06
7.11505e-06
7.73568e-06
8.34681e-06
8.94851e-06
9.54213e-06
1.01304e-05
1.07175e-05
1.13092e-05
1.19128e-05
1.25372e-05
1.31932e-05
1.38933e-05
1.46518e-05
1.54852e-05
1.64121e-05
1.74533e-05
1.8632e-05
1.9974e-05
2.15077e-05
2.32643e-05
2.52781e-05
2.75859e-05
3.02279e-05
3.3247e-05
3.66892e-05
4.06033e-05
4.50406e-05
5.0055e-05
5.57029e-05
6.20425e-05
6.9134e-05
7.70391e-05
8.58211e-05
9.55443e-05
0.000106274
0.000118077
0.000131018
0.000145166
0.000160587
0.000177346
0.000195509
0.000215138
0.000236294
0.000259033
0.000283407
0.000309462
0.000337236
0.000366759
0.000398053
0.000431126
0.000465974
0.00050258
0.000540912
0.000580919
0.000622536
0.000665679
0.000710248
0.000756124
0.000803175
0.000851258
0.000900216
0.000949888
0.00100011
0.00105072
0.00110156
0.00115247
0.00120333
0.00125402
0.00130442
0.00135445
0.00140404
0.00145314
0.00150172
0.00154973
0.00159715
0.00164396
0.0016901
0.00173553
0.00178015
0.00182384
0.00186643
0.00190767
0.00194728
0.00198487
0.00201996
0.002052
0.0020803
0.0021041
0.00212255
0.00213356
0.0021376
0.00213573
0.00212351
0.00210044
0.00206601
0.0020196
0.00196081
0.00188951
0.00180597
0.0017109
0.00160549
0.00149138
0.00137062
0.00124561
0.00111895
0.000993274
0.000871123
0.000754749
0.000646001
0.000546227
0.000456247
0.000376362
0.000306418
0.000245893
0.000194006
0.000149814
0.000112322
8.05746e-05
5.37725e-05
3.14154e-05
1.35627e-05
1.51118e-06
3.75022e-08
3.36423e-07
7.72592e-07
1.2983e-06
1.88957e-06
2.531e-06
3.2111e-06
3.92042e-06
4.65073e-06
5.39468e-06
6.14568e-06
6.89796e-06
7.64662e-06
8.38781e-06
9.11884e-06
9.8383e-06
1.05463e-05
1.12443e-05
1.19357e-05
1.26253e-05
1.332e-05
1.40284e-05
1.47611e-05
1.55308e-05
1.63521e-05
1.72423e-05
1.82207e-05
1.93091e-05
2.05324e-05
2.19179e-05
2.34961e-05
2.53008e-05
2.73689e-05
2.97409e-05
3.24609e-05
3.55763e-05
3.91384e-05
4.32018e-05
4.78248e-05
5.30685e-05
5.89977e-05
6.56794e-05
7.31836e-05
8.15824e-05
9.09502e-05
0.000101363
0.000112898
0.000125635
0.000139652
0.000155031
0.000171853
0.000190197
0.000210143
0.000231768
0.000255147
0.000280351
0.000307443
0.000336483
0.000367519
0.000400588
0.000435715
0.00047291
0.000512166
0.000553457
0.000596734
0.00064193
0.00068895
0.000737678
0.000787975
0.000839675
0.000892599
0.000946546
0.00100131
0.00105666
0.00111239
0.00116828
0.00122413
0.00127976
0.001335
0.00138971
0.0014438
0.00149719
0.00154982
0.00160169
0.0016528
0.00170318
0.00175286
0.0018019
0.00185032
0.00189816
0.0019454
0.001992
0.00203788
0.00208288
0.00212678
0.00216927
0.00220993
0.00224827
0.00228367
0.00231538
0.00234256
0.00236429
0.00237862
0.00238462
0.00238483
0.00237432
0.00235191
0.00231709
0.00226912
0.00220743
0.00213176
0.00204224
0.00193949
0.00182467
0.00169943
0.00156595
0.00142681
0.0012849
0.00114322
0.00100471
0.00087205
0.000747504
0.000632785
0.000528995
0.000436623
0.000355606
0.000285421
0.000225211
0.000173915
0.000130386
9.3522e-05
6.23982e-05
3.64396e-05
1.57226e-05
1.75077e-06
4.33525e-08
3.89083e-07
8.94049e-07
1.50322e-06
2.18884e-06
2.93297e-06
3.7222e-06
4.54544e-06
5.39307e-06
6.25647e-06
7.1279e-06
8.00058e-06
8.86875e-06
9.72788e-06
1.05748e-05
1.14078e-05
1.2227e-05
1.30343e-05
1.38333e-05
1.46299e-05
1.5432e-05
1.62496e-05
1.70951e-05
1.79832e-05
1.89311e-05
1.99587e-05
2.10885e-05
2.23461e-05
2.37601e-05
2.53627e-05
2.71892e-05
2.92791e-05
3.16754e-05
3.44256e-05
3.75811e-05
4.11975e-05
4.53348e-05
5.00573e-05
5.54332e-05
6.15347e-05
6.84377e-05
7.62216e-05
8.49688e-05
9.47647e-05
0.000105697
0.000117856
0.000131334
0.000146224
0.000162621
0.00018062
0.000200317
0.000221806
0.000245181
0.000270532
0.000297943
0.000327495
0.000359259
0.000393293
0.000429645
0.000468345
0.000509404
0.000552811
0.000598531
0.0006465
0.000696627
0.000748789
0.000802831
0.000858568
0.000915786
0.000974245
0.00103368
0.00109383
0.0011544
0.00121511
0.00127569
0.00133589
0.00139549
0.00145429
0.00151214
0.00156895
0.00162465
0.00167922
0.0017327
0.00178514
0.00183663
0.0018873
0.00193725
0.00198662
0.0020355
0.00208398
0.00213211
0.00217987
0.00222721
0.00227397
0.00231992
0.00236474
0.00240799
0.00244912
0.00248747
0.00252224
0.0025525
0.00257724
0.00259491
0.00260339
0.00260533
0.0025972
0.00257621
0.00254204
0.00249384
0.00243088
0.00235274
0.0022594
0.00215132
0.00202954
0.00189568
0.00175192
0.00160095
0.00144585
0.00128992
0.00113647
0.000988602
0.000849004
0.000719799
0.000602431
0.000497641
0.000405512
0.000325572
0.000256925
0.000198408
0.000148742
0.000106676
7.11608e-05
4.15439e-05
1.79175e-05
1.99433e-06
4.94907e-08
4.44318e-07
1.02144e-06
1.71819e-06
2.50284e-06
3.35484e-06
4.25871e-06
5.20167e-06
6.17259e-06
7.16146e-06
8.15934e-06
9.15834e-06
1.01518e-05
1.11344e-05
1.21025e-05
1.30542e-05
1.39894e-05
1.49104e-05
1.58214e-05
1.67292e-05
1.76427e-05
1.85737e-05
1.95363e-05
2.05475e-05
2.16269e-05
2.27976e-05
2.40853e-05
2.55195e-05
2.71331e-05
2.8963e-05
3.10501e-05
3.34397e-05
3.61817e-05
3.93305e-05
4.29457e-05
4.70917e-05
5.18379e-05
5.72589e-05
6.34338e-05
7.04467e-05
7.83857e-05
8.73435e-05
9.74161e-05
0.000108703
0.000121308
0.000135335
0.000150893
0.00016809
0.000187038
0.000207847
0.000230629
0.000255493
0.000282545
0.000311887
0.000343615
0.000377812
0.000414552
0.000453892
0.000495868
0.000540494
0.000587757
0.000637612
0.00068998
0.000744747
0.000801757
0.000860815
0.000921688
0.000984107
0.00104777
0.00111234
0.00117748
0.00124283
0.00130805
0.0013728
0.00143677
0.0014997
0.00156136
0.0016216
0.0016803
0.00173744
0.00179302
0.00184712
0.00189987
0.00195143
0.00200198
0.00205173
0.00210088
0.00214962
0.00219813
0.00224652
0.00229487
0.0023432
0.00239142
0.00243939
0.00248686
0.00253348
0.00257876
0.00262214
0.00266289
0.00270019
0.00273307
0.00276043
0.00278103
0.00279208
0.00279559
0.00279015
0.00277119
0.00273855
0.00269131
0.00262862
0.00254986
0.00245482
0.00234379
0.00221761
0.00207775
0.00192634
0.00176605
0.00160008
0.00143194
0.00126524
0.00110348
0.000949807
0.000806765
0.000676199
0.000559165
0.000455961
0.000366218
0.000289048
0.000223219
0.000167328
0.000119991
8.00277e-05
4.67089e-05
2.0139e-05
2.24093e-06
5.59203e-08
5.02164e-07
1.15485e-06
1.94332e-06
2.83174e-06
3.79679e-06
4.82085e-06
5.88933e-06
6.98948e-06
8.10985e-06
9.24017e-06
1.03714e-05
1.14958e-05
1.26073e-05
1.37018e-05
1.4777e-05
1.58329e-05
1.6872e-05
1.78991e-05
1.89221e-05
1.99511e-05
2.09994e-05
2.20833e-05
2.3222e-05
2.4438e-05
2.57573e-05
2.72095e-05
2.88279e-05
3.06501e-05
3.27181e-05
3.50785e-05
3.77831e-05
4.08886e-05
4.44575e-05
4.85579e-05
5.32636e-05
5.86542e-05
6.48153e-05
7.1838e-05
7.98189e-05
8.88598e-05
9.90673e-05
0.000110553
0.000123431
0.000137821
0.000153845
0.000171627
0.000191293
0.000212971
0.000236788
0.000262872
0.000291345
0.000322326
0.000355927
0.000392249
0.000431378
0.000473384
0.00051831
0.000566177
0.000616969
0.000670635
0.000727081
0.000786169
0.000847712
0.000911475
0.000977173
0.00104448
0.00111302
0.00118239
0.00125218
0.00132195
0.00139127
0.00145975
0.00152702
0.00159277
0.00165674
0.00171875
0.0017787
0.00183657
0.00189242
0.00194638
0.00199862
0.00204939
0.00209894
0.00214757
0.00219557
0.00224319
0.0022907
0.00233829
0.00238611
0.00243424
0.00248267
0.00253131
0.00257999
0.00262843
0.00267624
0.00272293
0.00276788
0.00281036
0.00284951
0.00288438
0.00291386
0.00293679
0.0029503
0.00295525
0.0029525
0.00293605
0.00290568
0.00286048
0.00279945
0.00272181
0.00262713
0.00251546
0.00238741
0.00224423
0.00208785
0.00192087
0.00174648
0.00156831
0.00139023
0.0012161
0.00104947
0.000893375
0.000750095
0.000621068
0.000506873
0.000407308
0.000321544
0.000248314
0.000186118
0.000133441
8.89809e-05
5.19234e-05
2.23822e-05
2.48999e-06
6.26481e-08
5.62683e-07
1.29441e-06
2.17884e-06
3.17585e-06
4.25922e-06
5.4091e-06
6.60897e-06
7.84438e-06
9.10229e-06
1.0371e-05
1.16403e-05
1.29013e-05
1.41472e-05
1.53732e-05
1.65767e-05
1.77578e-05
1.89191e-05
2.00665e-05
2.12085e-05
2.23568e-05
2.35265e-05
2.47358e-05
2.60065e-05
2.73641e-05
2.88379e-05
3.04611e-05
3.22717e-05
3.43119e-05
3.66292e-05
3.92763e-05
4.23118e-05
4.58001e-05
4.98119e-05
5.44246e-05
5.97219e-05
6.57947e-05
7.27402e-05
8.06625e-05
8.96718e-05
9.98845e-05
0.000111423
0.000124413
0.000138988
0.000155284
0.00017344
0.000193597
0.000215901
0.000240496
0.000267526
0.000297132
0.000329452
0.000364614
0.000402737
0.000443921
0.000488251
0.000535782
0.000586539
0.00064051
0.000697637
0.000757816
0.000820887
0.000886633
0.000954778
0.00102499
0.00109687
0.00116999
0.00124387
0.00131801
0.00139188
0.001465
0.00153689
0.0016071
0.00167528
0.00174114
0.00180447
0.00186519
0.00192329
0.00197886
0.00203208
0.0020832
0.00213254
0.00218042
0.00222723
0.00227333
0.00231908
0.00236478
0.00241072
0.00245708
0.00250401
0.00255157
0.00259972
0.00264834
0.00269723
0.00274606
0.00279442
0.0028418
0.00288757
0.002931
0.00297126
0.00300739
0.00303833
0.00306297
0.00307873
0.00308509
0.00308473
0.00307117
0.00304371
0.00300146
0.00294335
0.00286841
0.00277599
0.00266588
0.00253839
0.00239446
0.00223577
0.00206473
0.00188442
0.0016985
0.00151101
0.00132611
0.00114777
0.000979494
0.000824056
0.000683334
0.000558257
0.000448861
0.000354429
0.000273703
0.000205112
0.000147025
9.80158e-05
5.71835e-05
2.46449e-05
2.74127e-06
6.96834e-08
6.2596e-07
1.44033e-06
2.42508e-06
3.53562e-06
4.74273e-06
6.02418e-06
7.36144e-06
8.7382e-06
1.01398e-05
1.1553e-05
1.29662e-05
1.43696e-05
1.57552e-05
1.71177e-05
1.84542e-05
1.97649e-05
2.10528e-05
2.23243e-05
2.35891e-05
2.48606e-05
2.61555e-05
2.74943e-05
2.89017e-05
3.0406e-05
3.20402e-05
3.38416e-05
3.58526e-05
3.81208e-05
4.06994e-05
4.36475e-05
4.70311e-05
5.09226e-05
5.54016e-05
6.05554e-05
6.64787e-05
7.3274e-05
8.10513e-05
8.99285e-05
0.000100031
0.00011149
0.000124444
0.000139038
0.000155422
0.00017375
0.00019418
0.000216872
0.000241989
0.000269693
0.000300144
0.000333498
0.000369902
0.000409492
0.000452387
0.000498686
0.000548459
0.000601738
0.000658517
0.000718738
0.000782286
0.000848985
0.00091859
0.000990788
0.0010652
0.00114136
0.00121878
0.00129691
0.00137514
0.00145289
0.00152956
0.00160461
0.00167752
0.00174788
0.00181536
0.00187973
0.0019409
0.00199888
0.0020538
0.00210589
0.00215546
0.00220291
0.00224864
0.00229312
0.00233679
0.00238009
0.00242338
0.00246699
0.00251118
0.00255615
0.00260198
0.00264869
0.00269622
0.00274439
0.00279295
0.00284156
0.00288979
0.00293712
0.00298294
0.00302653
0.0030671
0.00310375
0.00313547
0.00316116
0.00317889
0.00318694
0.0031883
0.00317795
0.00315388
0.00311537
0.00306125
0.0029904
0.00290195
0.00279538
0.00267068
0.00252844
0.00236999
0.00219744
0.00201368
0.0018223
0.0016274
0.0014334
0.00124465
0.00106513
0.000898131
0.000746037
0.000610197
0.000490954
0.000387767
0.000299433
0.000224341
0.000160759
0.00010714
6.24921e-05
2.69282e-05
2.99487e-06
7.70378e-08
6.92102e-07
1.59284e-06
2.68244e-06
3.91164e-06
5.24807e-06
6.66702e-06
8.14781e-06
9.6722e-06
1.12237e-05
1.27876e-05
1.43508e-05
1.59021e-05
1.74328e-05
1.89369e-05
2.04112e-05
2.18558e-05
2.32743e-05
2.46739e-05
2.60654e-05
2.74638e-05
2.88878e-05
3.03605e-05
3.19092e-05
3.35657e-05
3.53666e-05
3.73536e-05
3.9574e-05
4.20808e-05
4.49333e-05
4.81979e-05
5.19479e-05
5.62645e-05
6.1237e-05
6.6963e-05
7.35489e-05
8.11098e-05
8.97696e-05
9.96608e-05
0.000110924
0.000123709
0.000138171
0.000154472
0.000172783
0.000193276
0.000216128
0.00024152
0.000269631
0.000300642
0.000334725
0.00037205
0.00041277
0.000457025
0.000504929
0.000556569
0.00061199
0.000671192
0.000734122
0.00080066
0.000870617
0.000943727
0.00101964
0.00109793
0.0011781
0.00125956
0.00134169
0.00142381
0.00150525
0.00158532
0.00166338
0.00173886
0.00181126
0.00188021
0.00194547
0.00200692
0.00206459
0.00211865
0.00216938
0.00221714
0.00226241
0.00230568
0.00234749
0.00238837
0.00242881
0.00246926
0.00251008
0.00255159
0.00259401
0.00263749
0.00268206
0.00272769
0.00277425
0.00282153
0.00286924
0.00291704
0.00296447
0.00301103
0.00305615
0.00309916
0.00313932
0.00317579
0.00320765
0.00323387
0.00325316
0.0032629
0.00326564
0.00325865
0.00323829
0.00320411
0.00315484
0.00308922
0.00300616
0.00290487
0.00278495
0.0026466
0.00249074
0.00231912
0.0021343
0.0019397
0.00173941
0.00153801
0.00134019
0.00115039
0.000972453
0.000809322
0.000662835
0.000533714
0.000421662
0.000325582
0.000243858
0.000174675
0.000116371
6.78579e-05
2.92354e-05
3.25114e-06
8.47252e-08
7.61231e-07
1.75223e-06
2.9514e-06
4.3046e-06
5.77615e-06
7.33875e-06
8.96942e-06
1.06479e-05
1.23558e-05
1.40766e-05
1.57957e-05
1.75008e-05
1.91821e-05
2.08328e-05
2.24496e-05
2.40326e-05
2.55858e-05
2.71173e-05
2.86393e-05
3.01685e-05
3.17257e-05
3.33366e-05
3.50316e-05
3.68459e-05
3.88202e-05
4.10009e-05
4.34401e-05
4.6197e-05
4.93374e-05
5.29348e-05
5.7071e-05
6.18364e-05
6.73304e-05
7.36619e-05
8.09497e-05
8.93225e-05
9.89189e-05
0.000109887
0.000122385
0.000136579
0.000152645
0.000170764
0.000191125
0.000213921
0.00023935
0.000267611
0.000298902
0.000333416
0.000371343
0.000412858
0.000458118
0.00050726
0.000560386
0.000617558
0.000678789
0.000744031
0.000813167
0.000885999
0.000962246
0.00104153
0.00112339
0.00120727
0.00129252
0.00137845
0.00146429
0.00154928
0.00163264
0.00171365
0.00179164
0.00186605
0.00193645
0.00200256
0.00206426
0.00212158
0.00217471
0.00222398
0.00226982
0.00231278
0.00235342
0.00239238
0.00243024
0.00246757
0.00250489
0.00254262
0.00258111
0.00262062
0.0026613
0.00270324
0.00274642
0.00279074
0.00283601
0.00288199
0.00292838
0.0029748
0.00302083
0.003066
0.00310976
0.00315154
0.00319066
0.00322638
0.00325787
0.00328422
0.00330442
0.00331584
0.00331982
0.00331607
0.00329967
0.00327018
0.00322637
0.00316684
0.0030903
0.00299568
0.00288221
0.00274968
0.00259854
0.00243006
0.00224645
0.00205081
0.00184713
0.00164003
0.0014345
0.00123542
0.0010472
0.00087338
0.000716354
0.000577303
0.000456245
0.000352249
0.000263733
0.000188819
0.000125736
7.3295e-05
3.15719e-05
3.51068e-06
9.2761e-08
8.33489e-07
1.91883e-06
3.2325e-06
4.71528e-06
6.32802e-06
8.04064e-06
9.82779e-06
1.1667e-05
1.35378e-05
1.5422e-05
1.73033e-05
1.9168e-05
2.10053e-05
2.28079e-05
2.45718e-05
2.62975e-05
2.79896e-05
2.9657e-05
3.13134e-05
3.29773e-05
3.4672e-05
3.64258e-05
3.82722e-05
4.02504e-05
4.24054e-05
4.47881e-05
4.74566e-05
5.04758e-05
5.39189e-05
5.7867e-05
6.24108e-05
6.76503e-05
7.36959e-05
8.06687e-05
8.87005e-05
9.79347e-05
0.000108525
0.000120638
0.000134447
0.00015014
0.000167911
0.000187962
0.000210502
0.000235746
0.00026391
0.000295213
0.000329869
0.000368087
0.000410064
0.000455979
0.000505989
0.000560218
0.000618746
0.000681602
0.00074875
0.00082008
0.000895394
0.0009744
0.0010567
0.0011418
0.0012291
0.0013179
0.00140743
0.00149684
0.00158528
0.00167189
0.00175583
0.00183635
0.00191283
0.00198476
0.00205181
0.00211383
0.00217087
0.00222312
0.00227097
0.00231491
0.00235552
0.0023935
0.00242952
0.00246428
0.00249839
0.00253243
0.00256688
0.00260216
0.00263854
0.00267618
0.00271521
0.0027556
0.00279728
0.00284008
0.00288379
0.00292813
0.00297277
0.00301737
0.00306151
0.00310477
0.00314667
0.0031867
0.0032243
0.0032588
0.00328947
0.00331555
0.00333616
0.0033492
0.00335438
0.0033535
0.00334113
0.00331646
0.00327846
0.00322557
0.00315633
0.00306942
0.00296373
0.0028386
0.002694
0.00253069
0.00235037
0.00215577
0.00195064
0.00173957
0.00152773
0.00132041
0.00112258
0.00093842
0.000770957
0.000621905
0.000491672
0.000379556
0.000284053
0.000203249
0.00013527
7.88212e-05
3.39449e-05
3.77427e-06
1.01163e-07
9.09033e-07
2.09299e-06
3.52636e-06
5.14457e-06
6.90482e-06
8.77413e-06
1.07246e-05
1.27314e-05
1.47721e-05
1.68263e-05
1.88761e-05
2.09064e-05
2.29054e-05
2.48648e-05
2.67808e-05
2.86537e-05
3.04888e-05
3.22961e-05
3.40909e-05
3.58936e-05
3.77301e-05
3.96315e-05
4.1635e-05
4.37837e-05
4.61269e-05
4.87211e-05
5.16298e-05
5.49248e-05
5.86864e-05
6.30045e-05
6.79787e-05
7.37196e-05
8.03493e-05
8.80016e-05
9.68224e-05
0.00010697
0.000118617
0.000131944
0.000147147
0.000164432
0.000184014
0.000206116
0.000230969
0.000258809
0.00028987
0.00032439
0.000362598
0.000404713
0.000450938
0.000501452
0.000556402
0.000615889
0.000679963
0.000748605
0.000821717
0.000899106
0.00098048
0.00106543
0.00115344
0.00124386
0.00133596
0.00142889
0.00152174
0.00161355
0.00170338
0.00179029
0.00187344
0.00195211
0.00202572
0.00209388
0.00215641
0.00221334
0.00226488
0.00231144
0.00235358
0.00239196
0.00242732
0.00246045
0.00249208
0.00252295
0.00255368
0.0025848
0.00261677
0.00264991
0.00268444
0.00272041
0.00275786
0.00279672
0.00283683
0.00287798
0.00291992
0.00296235
0.00300496
0.0030474
0.00308932