/*--------------------------------*- C++ -*----------------------------------*\
  =========                 |
  \\      /  F ield         | OpenFOAM: The Open Source CFD Toolbox
   \\    /   O peration     | Website:  https://openfoam.org
    \\  /    A nd           | Version:  12
     \\/     M anipulation  |
\*---------------------------------------------------------------------------*/
FoamFile
{
    format      ascii;
    class       volScalarField;
    location    "7.5";
    object      nut;
}
// * * * * * * * * * * * * * * * * * * * * * * * * * * * * * * * * * * * * * //

dimensions      [0 2 -1 0 0 0 0];

internalField   nonuniform List<scalar> 
18225
(
8.31763e-15
5.62926e-14
1.25495e-13
2.08188e-13
3.008e-13
4.01065e-13
5.07273e-13
6.18009e-13
7.32036e-13
8.48252e-13
9.65673e-13
1.08344e-12
1.20083e-12
1.31728e-12
1.4324e-12
1.546e-12
1.65811e-12
1.76898e-12
1.87913e-12
1.98935e-12
2.10068e-12
2.21449e-12
2.33242e-12
2.45646e-12
2.58891e-12
2.73243e-12
2.89006e-12
3.06522e-12
3.26175e-12
3.48392e-12
3.73644e-12
4.02453e-12
4.35388e-12
4.7307e-12
5.1617e-12
5.65413e-12
6.2157e-12
6.85468e-12
7.57974e-12
8.40005e-12
9.32513e-12
1.03649e-11
1.15296e-11
1.28296e-11
1.42757e-11
1.58787e-11
1.76495e-11
1.95993e-11
2.17391e-11
2.40798e-11
2.66326e-11
2.94081e-11
3.24172e-11
3.567e-11
3.91768e-11
4.29471e-11
4.69901e-11
5.13145e-11
5.59281e-11
6.08384e-11
6.60518e-11
7.15743e-11
7.74109e-11
8.3566e-11
9.00431e-11
9.6845e-11
1.03974e-10
1.11431e-10
1.19217e-10
1.27333e-10
1.35777e-10
1.44549e-10
1.53647e-10
1.63068e-10
1.72808e-10
1.82864e-10
1.93231e-10
2.03901e-10
2.14867e-10
2.2612e-10
2.37646e-10
2.49433e-10
2.61463e-10
2.73716e-10
2.86166e-10
2.98785e-10
3.11538e-10
3.24383e-10
3.37273e-10
3.50149e-10
3.62946e-10
3.75585e-10
3.87977e-10
4.00022e-10
4.11602e-10
4.22589e-10
4.32838e-10
4.42188e-10
4.50455e-10
4.57444e-10
4.62941e-10
4.66575e-10
4.68198e-10
4.68315e-10
4.66074e-10
4.61269e-10
4.53812e-10
4.43643e-10
4.30742e-10
4.15149e-10
3.96976e-10
3.7642e-10
3.5376e-10
3.29356e-10
3.03637e-10
2.77082e-10
2.50198e-10
2.23495e-10
1.97458e-10
1.72523e-10
1.49052e-10
1.27326e-10
1.07531e-10
8.97629e-11
7.40335e-11
6.02815e-11
4.83879e-11
3.81942e-11
2.95141e-11
2.21547e-11
1.5931e-11
1.06842e-11
6.30824e-12
2.79949e-12
4.12903e-13
2.51475e-13
8.19803e-12
2.0611e-11
3.50668e-11
5.11105e-11
6.84169e-11
8.67176e-11
1.0578e-10
1.25398e-10
1.45383e-10
1.65569e-10
1.85807e-10
2.05974e-10
2.25971e-10
2.45732e-10
2.65222e-10
2.84447e-10
3.03449e-10
3.22318e-10
3.41186e-10
3.60234e-10
3.79695e-10
3.99852e-10
4.21043e-10
4.43663e-10
4.6817e-10
4.95081e-10
5.24984e-10
5.58534e-10
5.96463e-10
6.39579e-10
6.88774e-10
7.45022e-10
8.09387e-10
8.83016e-10
9.67148e-10
1.06311e-09
1.1723e-09
1.29622e-09
1.43643e-09
1.59455e-09
1.77228e-09
1.97136e-09
2.19357e-09
2.44074e-09
2.71469e-09
3.0173e-09
3.35041e-09
3.71592e-09
4.11567e-09
4.55151e-09
5.02524e-09
5.53866e-09
6.09347e-09
6.69134e-09
7.33386e-09
8.02251e-09
8.75869e-09
9.54367e-09
1.03786e-08
1.12645e-08
1.22022e-08
1.31926e-08
1.42361e-08
1.53334e-08
1.64846e-08
1.76902e-08
1.895e-08
2.02642e-08
2.16327e-08
2.30552e-08
2.45314e-08
2.60609e-08
2.76433e-08
2.92779e-08
3.0964e-08
3.27007e-08
3.44869e-08
3.63215e-08
3.82029e-08
4.01295e-08
4.2099e-08
4.4109e-08
4.61564e-08
4.82374e-08
5.03479e-08
5.24824e-08
5.46349e-08
5.67979e-08
5.89627e-08
6.11189e-08
6.32543e-08
6.53547e-08
6.7404e-08
6.93835e-08
7.12721e-08
7.3046e-08
7.46784e-08
7.61379e-08
7.73919e-08
7.83936e-08
7.90774e-08
7.94087e-08
7.95129e-08
7.9212e-08
7.8473e-08
7.72798e-08
7.56197e-08
7.34864e-08
7.08838e-08
6.78292e-08
6.43544e-08
6.05069e-08
5.63483e-08
5.19532e-08
4.74056e-08
4.27947e-08
3.82106e-08
3.37389e-08
2.94565e-08
2.54273e-08
2.17005e-08
1.83084e-08
1.52675e-08
1.25789e-08
1.02316e-08
8.20415e-09
6.46754e-09
4.99043e-09
3.73876e-09
2.6795e-09
1.78353e-09
1.0288e-09
4.06078e-10
1.24781e-11
5.34244e-13
4.39662e-11
1.41694e-10
2.57836e-10
3.85185e-10
5.21481e-10
6.64977e-10
8.14066e-10
9.67241e-10
1.1231e-09
1.28038e-09
1.43792e-09
1.59476e-09
1.75014e-09
1.90352e-09
2.05464e-09
2.20351e-09
2.35047e-09
2.49619e-09
2.64169e-09
2.78838e-09
2.93805e-09
3.09287e-09
3.25547e-09
3.4289e-09
3.61666e-09
3.82278e-09
4.05174e-09
4.30863e-09
4.59905e-09
4.92924e-09
5.30605e-09
5.73696e-09
6.23014e-09
6.79441e-09
7.43927e-09
8.17487e-09
9.01198e-09
9.96198e-09
1.10368e-08
1.22488e-08
1.36108e-08
1.51361e-08
1.6838e-08
1.87303e-08
2.08266e-08
2.31408e-08
2.56867e-08
2.84779e-08
3.15281e-08
3.48504e-08
3.84577e-08
4.23627e-08
4.65773e-08
5.11127e-08
5.59797e-08
6.1188e-08
6.67463e-08
7.26623e-08
7.89429e-08
8.55935e-08
9.26186e-08
1.00021e-07
1.07804e-07
1.15967e-07
1.24511e-07
1.33436e-07
1.42738e-07
1.52416e-07
1.62467e-07
1.72888e-07
1.83674e-07
1.94821e-07
2.06325e-07
2.18181e-07
2.30382e-07
2.42924e-07
2.558e-07
2.69003e-07
2.82525e-07
2.96358e-07
3.10491e-07
3.2491e-07
3.39601e-07
3.54545e-07
3.69718e-07
3.85092e-07
4.00634e-07
4.16301e-07
4.32042e-07
4.47793e-07
4.6348e-07
4.7901e-07
4.94279e-07
5.09159e-07
5.23507e-07
5.37155e-07
5.49914e-07
5.61558e-07
5.71844e-07
5.80488e-07
5.86915e-07
5.90537e-07
5.9293e-07
5.92262e-07
5.88293e-07
5.80871e-07
5.69851e-07
5.55132e-07
5.36693e-07
5.1462e-07
4.89125e-07
4.60551e-07
4.29365e-07
3.96152e-07
3.61579e-07
3.26369e-07
2.91255e-07
2.56938e-07
2.24046e-07
1.93105e-07
1.64513e-07
1.38531e-07
1.15287e-07
9.47861e-08
7.69328e-08
6.15506e-08
4.84063e-08
3.72388e-08
2.77708e-08
1.97298e-08
1.28655e-08
6.98195e-09
2.16732e-09
2.64598e-11
8.73948e-13
1.03321e-10
4.26968e-10
8.56801e-10
1.33332e-09
1.84097e-09
2.37283e-09
2.92346e-09
3.48776e-09
4.06088e-09
4.63826e-09
5.2158e-09
5.78996e-09
6.35792e-09
6.91766e-09
7.46816e-09
8.00942e-09
8.54263e-09
9.07018e-09
9.59577e-09
1.01244e-08
1.06627e-08
1.12183e-08
1.18009e-08
1.24214e-08
1.30924e-08
1.38285e-08
1.46458e-08
1.55625e-08
1.65989e-08
1.77772e-08
1.9122e-08
2.06601e-08
2.24206e-08
2.4435e-08
2.6737e-08
2.93627e-08
3.23503e-08
3.57398e-08
3.95732e-08
4.38937e-08
4.8746e-08
5.41757e-08
6.02287e-08
6.69516e-08
7.43905e-08
8.25913e-08
9.15993e-08
1.01459e-07
1.12212e-07
1.23901e-07
1.36564e-07
1.50239e-07
1.64959e-07
1.80756e-07
1.97656e-07
2.15684e-07
2.34859e-07
2.55195e-07
2.76704e-07
2.99392e-07
3.23259e-07
3.48305e-07
3.74521e-07
4.019e-07
4.30426e-07
4.60086e-07
4.90861e-07
5.22733e-07
5.55684e-07
5.89696e-07
6.24753e-07
6.60839e-07
6.97936e-07
7.36034e-07
7.7512e-07
8.15187e-07
8.56228e-07
8.98238e-07
9.41212e-07
9.85146e-07
1.03003e-06
1.07587e-06
1.12263e-06
1.17031e-06
1.21886e-06
1.26825e-06
1.31842e-06
1.36927e-06
1.4207e-06
1.47255e-06
1.52464e-06
1.5767e-06
1.62844e-06
1.6795e-06
1.72941e-06
1.77767e-06
1.82365e-06
1.86665e-06
1.90588e-06
1.94082e-06
1.96759e-06
1.98572e-06
2.00072e-06
2.00554e-06
1.99912e-06
1.9808e-06
1.9499e-06
1.90586e-06
1.84837e-06
1.77756e-06
1.69399e-06
1.59876e-06
1.49343e-06
1.38005e-06
1.26101e-06
1.13896e-06
1.01661e-06
8.96591e-07
7.81269e-07
6.72641e-07
5.72224e-07
4.81022e-07
3.99529e-07
3.27779e-07
2.6542e-07
2.11798e-07
1.66049e-07
1.27192e-07
9.41814e-08
6.59802e-08
4.16527e-08
2.07338e-08
5.07269e-09
4.31375e-11
1.26005e-12
1.74611e-10
8.69565e-10
1.93783e-09
3.1755e-09
4.50408e-09
5.89428e-09
7.32966e-09
8.79694e-09
1.02839e-08
1.1779e-08
1.32717e-08
1.4753e-08
1.62153e-08
1.76534e-08
1.90645e-08
2.04484e-08
2.18079e-08
2.3149e-08
2.4481e-08
2.58166e-08
2.71723e-08
2.85681e-08
3.00279e-08
3.15794e-08
3.32548e-08
3.50902e-08
3.71267e-08
3.94097e-08
4.19899e-08
4.49232e-08
4.82705e-08
5.20988e-08
5.64802e-08
6.14925e-08
6.72191e-08
7.37483e-08
8.11732e-08
8.95915e-08
9.91039e-08
1.09814e-07
1.21829e-07
1.35254e-07
1.50196e-07
1.66762e-07
1.85054e-07
2.05175e-07
2.2722e-07
2.51283e-07
2.77449e-07
3.05798e-07
3.36404e-07
3.6933e-07
4.04632e-07
4.42355e-07
4.82533e-07
5.2519e-07
5.70336e-07
6.17972e-07
6.68085e-07
7.20655e-07
7.75648e-07
8.33025e-07
8.92736e-07
9.54729e-07
1.01895e-06
1.08533e-06
1.15382e-06
1.22436e-06
1.29691e-06
1.37142e-06
1.44787e-06
1.52623e-06
1.60649e-06
1.68865e-06
1.77272e-06
1.85872e-06
1.94669e-06
2.03668e-06
2.12873e-06
2.22291e-06
2.31928e-06
2.4179e-06
2.51882e-06
2.62209e-06
2.72774e-06
2.83576e-06
2.94611e-06
3.05873e-06
3.17345e-06
3.29005e-06
3.40816e-06
3.52733e-06
3.64694e-06
3.76625e-06
3.88429e-06
3.99987e-06
4.1116e-06
4.21805e-06
4.3187e-06
4.40858e-06
4.48114e-06
4.53504e-06
4.58263e-06
4.60805e-06
4.60737e-06
4.57905e-06
4.52123e-06
4.43223e-06
4.31099e-06
4.15747e-06
3.9727e-06
3.75892e-06
3.51965e-06
3.25952e-06
2.98416e-06
2.69982e-06
2.41306e-06
2.13033e-06
1.85752e-06
1.59967e-06
1.36071e-06
1.14329e-06
9.48807e-07
7.77494e-07
6.28588e-07
5.00542e-07
3.91253e-07
2.98273e-07
2.18972e-07
1.50759e-07
9.15583e-08
4.16611e-08
8.53259e-09
6.18801e-11
1.68524e-12
2.52473e-10
1.4266e-09
3.49441e-09
6.05234e-09
8.8606e-09
1.18159e-08
1.48677e-08
1.7983e-08
2.11342e-08
2.42967e-08
2.74479e-08
3.05683e-08
3.36418e-08
3.66569e-08
3.9607e-08
4.24913e-08
4.53152e-08
4.80908e-08
5.08371e-08
5.35803e-08
5.6354e-08
5.91994e-08
6.21657e-08
6.53098e-08
6.86974e-08
7.24025e-08
7.65084e-08
8.11077e-08
8.63028e-08
9.22064e-08
9.89415e-08
1.06642e-07
1.15452e-07
1.25526e-07
1.37028e-07
1.50133e-07
1.65022e-07
1.81883e-07
2.0091e-07
2.223e-07
2.46251e-07
2.72959e-07
3.02617e-07
3.35412e-07
3.71523e-07
4.11117e-07
4.54352e-07
5.01367e-07
5.52288e-07
6.07222e-07
6.66258e-07
7.29463e-07
7.96883e-07
8.68541e-07
9.44437e-07
1.02455e-06
1.10883e-06
1.19721e-06
1.2896e-06
1.38591e-06
1.48602e-06
1.5898e-06
1.69712e-06
1.80785e-06
1.92187e-06
2.03906e-06
2.1593e-06
2.28249e-06
2.40858e-06
2.53756e-06
2.66951e-06
2.80434e-06
2.9421e-06
3.08285e-06
3.2267e-06
3.37376e-06
3.52419e-06
3.67816e-06
3.83587e-06
3.99751e-06
4.16332e-06
4.33351e-06
4.50828e-06
4.68784e-06
4.87235e-06
5.06193e-06
5.25664e-06
5.45647e-06
5.6614e-06
5.87115e-06
6.085e-06
6.30217e-06
6.52161e-06
6.74197e-06
6.96152e-06
7.17802e-06
7.38862e-06
7.59238e-06
7.7875e-06
7.95962e-06
8.1057e-06
8.21694e-06
8.3152e-06
8.37687e-06
8.39019e-06
8.35293e-06
8.26183e-06
8.11399e-06
7.9074e-06
7.64138e-06
7.31741e-06
6.93918e-06
6.51264e-06
6.04584e-06
5.54865e-06
5.03225e-06
4.50853e-06
3.98934e-06
3.48578e-06
3.00751e-06
2.56226e-06
2.15549e-06
1.79035e-06
1.46765e-06
1.18635e-06
9.43779e-07
7.36111e-07
5.58703e-07
4.06544e-07
2.74804e-07
1.60521e-07
6.74925e-08
1.22618e-08
8.2197e-11
2.14487e-12
3.35214e-10
2.05892e-09
5.4494e-09
9.95401e-09
1.50689e-08
2.05244e-08
2.61829e-08
3.19631e-08
3.78054e-08
4.36602e-08
4.94836e-08
5.5238e-08
6.08925e-08
6.64244e-08
7.18203e-08
7.70776e-08
8.2205e-08
8.72235e-08
9.21669e-08
9.70819e-08
1.02029e-07
1.07081e-07
1.12327e-07
1.17869e-07
1.23822e-07
1.30319e-07
1.37507e-07
1.45549e-07
1.54626e-07
1.64933e-07
1.76686e-07
1.90116e-07
2.05472e-07
2.23017e-07
2.43033e-07
2.65812e-07
2.91658e-07
3.20882e-07
3.53801e-07
3.90732e-07
4.31987e-07
4.7787e-07
5.28673e-07
5.84669e-07
6.4611e-07
7.13222e-07
7.86202e-07
8.65215e-07
9.5039e-07
1.04182e-06
1.13956e-06
1.24363e-06
1.354e-06
1.47062e-06
1.59338e-06
1.72216e-06
1.85678e-06
1.99704e-06
2.14275e-06
2.29373e-06
2.44972e-06
2.61048e-06
2.77579e-06
2.94545e-06
3.11927e-06
3.29709e-06
3.47879e-06
3.66423e-06
3.85341e-06
4.04633e-06
4.24298e-06
4.44356e-06
4.64823e-06
4.85722e-06
5.07079e-06
5.28926e-06
5.51298e-06
5.74236e-06
5.97781e-06
6.21978e-06
6.46873e-06
6.72514e-06
6.98944e-06
7.26204e-06
7.54331e-06
7.83351e-06
8.13278e-06
8.44111e-06
8.75813e-06
9.08334e-06
9.41607e-06
9.75512e-06
1.00987e-05
1.04447e-05
1.07905e-05
1.11319e-05
1.14644e-05
1.17869e-05
1.20939e-05
1.23649e-05
1.26e-05
1.27779e-05
1.29291e-05
1.30319e-05
1.30582e-05
1.30062e-05
1.28717e-05
1.26502e-05
1.23389e-05
1.19369e-05
1.14466e-05
1.08732e-05
1.02252e-05
9.51422e-06
8.7545e-06
7.9624e-06
7.15546e-06
6.3515e-06
5.56749e-06
4.8186e-06
4.11732e-06
3.47293e-06
2.89117e-06
2.37431e-06
1.92146e-06
1.52901e-06
1.19125e-06
9.0097e-07
6.50301e-07
4.32061e-07
2.43661e-07
9.61799e-08
1.61501e-08
1.03721e-10
2.63607e-12
4.22348e-10
2.74218e-09
7.70922e-09
1.47661e-08
2.30998e-08
3.21636e-08
4.16482e-08
5.13692e-08
6.12023e-08
7.10509e-08
8.08341e-08
9.04835e-08
9.99436e-08
1.09173e-07
1.18147e-07
1.26858e-07
1.35318e-07
1.43561e-07
1.51639e-07
1.59629e-07
1.67628e-07
1.75755e-07
1.84154e-07
1.92988e-07
2.02446e-07
2.12739e-07
2.24102e-07
2.36797e-07
2.51107e-07
2.67344e-07
2.85843e-07
3.06966e-07
3.31097e-07
3.58644e-07
3.90032e-07
4.25703e-07
4.66112e-07
5.11717e-07
5.62977e-07
6.20344e-07
6.84252e-07
7.55115e-07
8.33316e-07
9.19199e-07
1.01306e-06
1.11516e-06
1.22569e-06
1.34478e-06
1.47251e-06
1.6089e-06
1.75391e-06
1.90746e-06
2.06939e-06
2.23948e-06
2.41748e-06
2.60311e-06
2.79603e-06
2.99589e-06
3.20229e-06
3.41485e-06
3.63325e-06
3.85716e-06
4.08629e-06
4.32038e-06
4.55924e-06
4.80271e-06
5.05076e-06
5.30343e-06
5.56069e-06
5.82265e-06
6.08945e-06
6.36143e-06
6.63895e-06
6.92242e-06
7.21232e-06
7.50922e-06
7.81371e-06
8.12646e-06
8.44816e-06
8.77954e-06
9.12135e-06
9.4743e-06
9.8391e-06
1.02164e-05
1.06066e-05
1.10102e-05
1.14274e-05
1.18579e-05
1.23012e-05
1.27566e-05
1.32227e-05
1.36975e-05
1.41785e-05
1.46619e-05
1.5143e-05
1.56168e-05
1.6077e-05
1.65176e-05
1.69335e-05
1.73025e-05
1.76206e-05
1.78566e-05
1.80412e-05
1.81719e-05
1.81945e-05
1.81092e-05
1.7912e-05
1.75983e-05
1.71648e-05
1.66112e-05
1.59405e-05
1.51595e-05
1.42791e-05
1.33138e-05
1.22817e-05
1.12034e-05
1.01014e-05
8.99882e-06
7.91818e-06
6.87998e-06
5.90165e-06
4.9967e-06
4.17414e-06
3.43833e-06
2.78922e-06
2.22281e-06
1.73187e-06
1.3068e-06
9.36877e-07
6.13178e-07
3.35806e-07
1.26362e-07
2.01445e-08
1.26168e-10
3.15709e-12
5.13755e-10
3.46366e-09
1.01953e-08
2.03308e-08
3.27885e-08
4.66551e-08
6.13433e-08
7.649e-08
9.18506e-08
1.07244e-07
1.22526e-07
1.37578e-07
1.52306e-07
1.66637e-07
1.80527e-07
1.9396e-07
2.0695e-07
2.19543e-07
2.31818e-07
2.4389e-07
2.55903e-07
2.68038e-07
2.80508e-07
2.93561e-07
3.07477e-07
3.22571e-07
3.39193e-07
3.57725e-07
3.78588e-07
4.02233e-07
4.29147e-07
4.5985e-07
4.94892e-07
5.34849e-07
5.80318e-07
6.31912e-07
6.90253e-07
7.5596e-07
8.29641e-07
9.11881e-07
1.00323e-06
1.1042e-06
1.21523e-06
1.33671e-06
1.46894e-06
1.61216e-06
1.76651e-06
1.93203e-06
2.10871e-06
2.2964e-06
2.49492e-06
2.70396e-06
2.92319e-06
3.15222e-06
3.39061e-06
3.63786e-06
3.89349e-06
4.157e-06
4.42791e-06
4.70567e-06
4.98989e-06
5.28017e-06
5.57619e-06
5.87771e-06
6.18456e-06
6.49666e-06
6.81403e-06
7.1368e-06
7.46509e-06
7.79913e-06
8.13928e-06
8.48601e-06
8.8399e-06
9.20158e-06
9.57177e-06
9.95129e-06
1.0341e-05
1.07419e-05
1.11549e-05
1.15811e-05
1.20214e-05
1.2477e-05
1.29486e-05
1.3437e-05
1.39428e-05
1.44664e-05
1.50077e-05
1.55663e-05
1.61412e-05
1.67307e-05
1.73327e-05
1.7944e-05
1.85604e-05
1.91765e-05
1.97861e-05
2.03819e-05
2.09554e-05
2.14976e-05
2.19971e-05
2.24416e-05
2.28177e-05
2.30896e-05
2.32724e-05
2.34035e-05
2.33974e-05
2.32546e-05
2.2974e-05
2.25515e-05
2.19844e-05
2.12728e-05
2.04208e-05
1.94363e-05
1.83319e-05
1.71243e-05
1.5834e-05
1.44849e-05
1.31031e-05
1.17159e-05
1.03502e-05
9.03099e-06
7.78025e-06
6.61554e-06
5.5493e-06
4.58842e-06
3.73427e-06
2.98307e-06
2.32664e-06
1.75346e-06
1.25063e-06
8.08683e-07
4.32731e-07
1.57213e-07
2.42113e-08
1.49316e-10
3.70695e-12
6.09438e-10
4.21752e-09
1.28522e-08
2.64944e-08
4.39019e-08
6.37567e-08
8.50964e-08
1.07279e-07
1.29868e-07
1.52549e-07
1.75073e-07
1.97241e-07
2.18896e-07
2.39919e-07
2.60235e-07
2.7981e-07
2.98657e-07
3.16837e-07
3.34458e-07
3.5168e-07
3.68709e-07
3.85799e-07
4.03252e-07
4.21419e-07
4.40695e-07
4.61521e-07
4.84386e-07
5.09823e-07
5.38411e-07
5.70771e-07
6.07568e-07
6.49505e-07
6.97321e-07
7.51779e-07
8.13668e-07
8.83783e-07
9.6292e-07
1.05186e-06
1.15136e-06
1.26212e-06
1.3848e-06
1.51996e-06
1.66809e-06
1.82957e-06
2.00465e-06
2.19349e-06
2.39612e-06
2.61245e-06
2.84229e-06
3.08533e-06
3.34119e-06
3.60935e-06
3.88928e-06
4.18038e-06
4.482e-06
4.7935e-06
5.11423e-06
5.44356e-06
5.78088e-06
6.12562e-06
6.4773e-06
6.83551e-06
7.19996e-06
7.57041e-06
7.94675e-06
8.32898e-06
8.71719e-06
9.11161e-06
9.51249e-06
9.92021e-06
1.03353e-05
1.07584e-05
1.11903e-05
1.16318e-05
1.2084e-05
1.25479e-05
1.30246e-05
1.35155e-05
1.40217e-05
1.45447e-05
1.50856e-05
1.56457e-05
1.62259e-05
1.6827e-05
1.74495e-05
1.80934e-05
1.87582e-05
1.94428e-05
2.01453e-05
2.0863e-05
2.15922e-05
2.23282e-05
2.3065e-05
2.37955e-05
2.45112e-05
2.5203e-05
2.58603e-05
2.64715e-05
2.70237e-05
2.75026e-05
2.78957e-05
2.81796e-05
2.83239e-05
2.84188e-05
2.83602e-05
2.81384e-05
2.77579e-05
2.72166e-05
2.65127e-05
2.56469e-05
2.46239e-05
2.34524e-05
2.21457e-05
2.07216e-05
1.92022e-05
1.76131e-05
1.59829e-05
1.43415e-05
1.27189e-05
1.1144e-05
9.64224e-06
8.23489e-06
6.93763e-06
5.75995e-06
4.70497e-06
3.76964e-06
2.94536e-06
2.21933e-06
1.57728e-06
1.01055e-06
5.31355e-07
1.88234e-07
2.83255e-08
1.72989e-10
4.28523e-12
7.09457e-10
5.00156e-09
1.56453e-08
3.31308e-08
5.61966e-08
8.31396e-08
1.12551e-07
1.43415e-07
1.75017e-07
2.06834e-07
2.38466e-07
2.69598e-07
2.99978e-07
3.29417e-07
3.5779e-07
3.85034e-07
4.11155e-07
4.36224e-07
4.60384e-07
4.83846e-07
5.06886e-07
5.29849e-07
5.53141e-07
5.77235e-07
6.02662e-07
6.30014e-07
6.59943e-07
6.93157e-07
7.30417e-07
7.72542e-07
8.20394e-07
8.7488e-07
9.36943e-07
1.00755e-06
1.0877e-06
1.17836e-06
1.28051e-06
1.3951e-06
1.523e-06
1.66502e-06
1.82188e-06
1.99419e-06
2.18243e-06
2.38693e-06
2.60788e-06
2.84532e-06
3.09912e-06
3.36904e-06
3.65466e-06
3.95549e-06
4.27091e-06
4.60022e-06
4.94266e-06
5.29744e-06
5.66376e-06
6.0408e-06
6.4278e-06
6.82401e-06
7.22875e-06
7.64141e-06
8.06148e-06
8.48853e-06
8.92227e-06
9.36249e-06
9.80913e-06
1.02622e-05
1.07219e-05
1.11886e-05
1.16624e-05
1.21441e-05
1.26343e-05
1.31337e-05
1.36434e-05
1.41645e-05
1.46982e-05
1.52458e-05
1.58089e-05
1.6389e-05
1.69876e-05
1.76063e-05
1.82465e-05
1.89095e-05
1.95961e-05
2.03071e-05
2.10422e-05
2.1801e-05
2.25821e-05
2.33834e-05
2.42017e-05
2.50325e-05
2.58703e-05
2.67086e-05
2.75403e-05
2.83562e-05
2.91461e-05
2.98985e-05
3.06016e-05
3.12426e-05
3.18079e-05
3.22836e-05
3.26564e-05
3.29047e-05
3.29987e-05
3.30161e-05
3.28893e-05
3.25741e-05
3.20852e-05
3.14234e-05
3.05879e-05
2.95799e-05
2.84041e-05
2.70696e-05
2.55896e-05
2.3982e-05
2.22693e-05
2.04778e-05
1.8637e-05
1.67786e-05
1.49348e-05
1.31369e-05
1.14136e-05
9.78908e-06
8.28198e-06
6.90435e-06
5.66117e-06
4.55036e-06
3.56337e-06
2.68664e-06
1.90532e-06
1.2127e-06
6.29586e-07
2.19121e-07
3.24681e-08
1.97055e-10
4.89195e-12
8.13913e-10
5.81547e-09
1.85553e-08
4.01484e-08
6.94549e-08
1.04456e-07
1.43257e-07
1.84391e-07
2.26775e-07
2.69604e-07
3.1226e-07
3.5426e-07
3.95222e-07
4.34858e-07
4.72972e-07
5.09456e-07
5.44299e-07
5.7758e-07
6.09473e-07
6.40243e-07
6.70249e-07
6.99935e-07
7.29832e-07
7.60551e-07
7.9278e-07
8.27283e-07
8.64897e-07
9.06527e-07
9.53144e-07
1.00578e-06
1.06551e-06
1.13347e-06
1.21082e-06
1.29876e-06
1.39845e-06
1.5111e-06
1.63782e-06
1.77973e-06
1.9378e-06
2.11295e-06
2.30593e-06
2.51737e-06
2.7477e-06
2.9972e-06
3.26594e-06
3.55382e-06
3.86054e-06
4.18566e-06
4.52858e-06
4.88856e-06
5.2648e-06
5.65638e-06
6.06236e-06
6.48176e-06
6.91363e-06
7.35702e-06
7.81105e-06
8.27489e-06
8.74778e-06
9.22904e-06
9.71813e-06
1.02146e-05
1.07181e-05
1.12285e-05
1.17456e-05
1.22695e-05
1.28005e-05
1.33388e-05
1.38849e-05
1.44394e-05
1.50032e-05
1.55772e-05
1.61628e-05
1.67611e-05
1.73739e-05
1.80028e-05
1.86495e-05
1.93158e-05
2.00036e-05
2.07146e-05
2.14502e-05
2.22115e-05
2.29991e-05
2.38132e-05
2.46526e-05
2.55162e-05
2.64009e-05
2.73019e-05
2.82149e-05
2.91359e-05
3.00579e-05
3.09719e-05
3.18673e-05
3.27339e-05
3.35603e-05
3.43348e-05
3.50444e-05
3.56763e-05
3.62165e-05
3.66535e-05
3.69739e-05
3.71644e-05
3.71723e-05
3.70881e-05
3.68895e-05
3.64752e-05
3.58772e-05
3.51e-05
3.41445e-05
3.30115e-05
3.17057e-05
3.02356e-05
2.86137e-05
2.68574e-05
2.49884e-05
2.30328e-05
2.10202e-05
1.89829e-05
1.69544e-05
1.49679e-05
1.30543e-05
1.12405e-05
9.54786e-06
7.99077e-06
6.57611e-06
5.30295e-06
4.16304e-06
3.14249e-06
2.22644e-06
1.41092e-06
7.26092e-07
2.49695e-07
3.66258e-08
2.21421e-10
5.52748e-12
9.22939e-10
6.65997e-09
2.1573e-08
4.74856e-08
8.35034e-08
1.27385e-07
1.76746e-07
2.29609e-07
2.84447e-07
3.40094e-07
3.95649e-07
4.50404e-07
5.03801e-07
5.55417e-07
6.04958e-07
6.5225e-07
6.97249e-07
7.40034e-07
7.8081e-07
8.19901e-07
8.57753e-07
8.94921e-07
9.32071e-07
9.6997e-07
1.00948e-06
1.05157e-06
1.09727e-06
1.14771e-06
1.20409e-06
1.26767e-06
1.33978e-06
1.42178e-06
1.51506e-06
1.62103e-06
1.7411e-06
1.87663e-06
2.02892e-06
2.19921e-06
2.38861e-06
2.59807e-06
2.8284e-06
3.0802e-06
3.35387e-06
3.64958e-06
3.96729e-06
4.30674e-06
4.66745e-06
5.04879e-06
5.44995e-06
5.86999e-06
6.30789e-06
6.76255e-06
7.23283e-06
7.71762e-06
8.21578e-06
8.72626e-06
9.24804e-06
9.78018e-06
1.03218e-05
1.08722e-05
1.14308e-05
1.19969e-05
1.25702e-05
1.31504e-05
1.37374e-05
1.43312e-05
1.4932e-05
1.55402e-05
1.61563e-05
1.67811e-05
1.74155e-05
1.80609e-05
1.87187e-05
1.93906e-05
2.00785e-05
2.07844e-05
2.15104e-05
2.22585e-05
2.30306e-05
2.38286e-05
2.46536e-05
2.55064e-05
2.63868e-05
2.72944e-05
2.82261e-05
2.91752e-05
3.01431e-05
3.11264e-05
3.21168e-05
3.31049e-05
3.40815e-05
3.50371e-05
3.59608e-05
3.68415e-05
3.76674e-05
3.84265e-05
3.91067e-05
3.96959e-05
4.01818e-05
4.05509e-05
4.07941e-05
4.09033e-05
4.08236e-05
4.06074e-05
4.03272e-05
3.98271e-05
3.91252e-05
3.82424e-05
3.71816e-05
3.59431e-05
3.4531e-05
3.29529e-05
3.12199e-05
2.93481e-05
2.73578e-05
2.52741e-05
2.31259e-05
2.09453e-05
1.87664e-05
1.66236e-05
1.45495e-05
1.25734e-05
1.07191e-05
9.00338e-06
7.43497e-06
6.01423e-06
4.73344e-06
3.57865e-06
2.53532e-06
1.6026e-06
8.20096e-07
2.79859e-07
4.07911e-08
2.46029e-10
6.19248e-12
1.0367e-09
7.53636e-09
2.46961e-08
5.51056e-08
9.82172e-08
1.51661e-07
2.12582e-07
2.78468e-07
3.47278e-07
4.17416e-07
4.87628e-07
5.56923e-07
6.24522e-07
6.89826e-07
7.52409e-07
8.12011e-07
8.68536e-07
9.22051e-07
9.72787e-07
1.02113e-06
1.06761e-06
1.1129e-06
1.15783e-06
1.20332e-06
1.25045e-06
1.30037e-06
1.35436e-06
1.41379e-06
1.4801e-06
1.55481e-06
1.6395e-06
1.73578e-06
1.8453e-06
1.96969e-06
2.11056e-06
2.26947e-06
2.44791e-06
2.64722e-06
2.86862e-06
3.11313e-06
3.38157e-06
3.67453e-06
3.99233e-06
4.33507e-06
4.70256e-06
5.09438e-06
5.50988e-06
5.94823e-06
6.40842e-06
6.8893e-06
7.38966e-06
7.9082e-06
8.44361e-06
8.99458e-06
9.55984e-06
1.01382e-05
1.07284e-05
1.13295e-05
1.19403e-05
1.25601e-05
1.31881e-05
1.38235e-05
1.44659e-05
1.51148e-05
1.57701e-05
1.64317e-05
1.70998e-05
1.77748e-05
1.84573e-05
1.91484e-05
1.98491e-05
2.05612e-05
2.12864e-05
2.20269e-05
2.27849e-05
2.35627e-05
2.43628e-05
2.51871e-05
2.60376e-05
2.69162e-05
2.7823e-05
2.87589e-05
2.97208e-05
3.07022e-05
3.17074e-05
3.27356e-05
3.37751e-05
3.48179e-05
3.58563e-05
3.68807e-05
3.78807e-05
3.88458e-05
3.97648e-05
4.06263e-05
4.1419e-05
4.21316e-05
4.27531e-05
4.32728e-05
4.36805e-05
4.39666e-05
4.41213e-05
4.41337e-05
4.39608e-05
4.3621e-05
4.32238e-05
4.26514e-05
4.18644e-05
4.08875e-05
3.97374e-05
3.84127e-05
3.69166e-05
3.52559e-05
3.34397e-05
3.14821e-05
2.94018e-05
2.7222e-05
2.49703e-05
2.26781e-05
2.03793e-05
1.81088e-05
1.59009e-05
1.37868e-05
1.17926e-05
9.93741e-06
8.23206e-06
6.67831e-06
5.26911e-06
3.99071e-06
2.82903e-06
1.78633e-06
9.11229e-07
3.09583e-07
4.49618e-08
2.70858e-10
6.88787e-12
1.15539e-09
8.44633e-09
2.79264e-08
6.29905e-08
1.13514e-07
1.77079e-07
2.50403e-07
3.30421e-07
4.14535e-07
5.00656e-07
5.87117e-07
6.72588e-07
7.56015e-07
8.36586e-07
9.13709e-07
9.87009e-07
1.05632e-06
1.12169e-06
1.18336e-06
1.24177e-06
1.29755e-06
1.3515e-06
1.40461e-06
1.45798e-06
1.5129e-06
1.57076e-06
1.63308e-06
1.70149e-06
1.77771e-06
1.86353e-06
1.9608e-06
2.07139e-06
2.19721e-06
2.34014e-06
2.502e-06
2.68456e-06
2.88945e-06
3.11816e-06
3.372e-06
3.65205e-06
3.95915e-06
4.29385e-06
4.65642e-06
5.04685e-06
5.46482e-06
5.90975e-06
6.38082e-06
6.87699e-06
7.39706e-06
7.93966e-06
8.50338e-06
9.08673e-06
9.68818e-06
1.03062e-05
1.09395e-05
1.15864e-05
1.22456e-05
1.2916e-05
1.35962e-05
1.42852e-05
1.49819e-05
1.56856e-05
1.63954e-05
1.71109e-05
1.78318e-05
1.85579e-05
1.92894e-05
2.00268e-05
2.0771e-05
2.15231e-05
2.22848e-05
2.30581e-05
2.38451e-05
2.46486e-05
2.5471e-05
2.63153e-05
2.71837e-05
2.80785e-05
2.90006e-05
2.99529e-05
3.09328e-05
3.19317e-05
3.29588e-05
3.4016e-05
3.50897e-05
3.61722e-05
3.72567e-05
3.83339e-05
3.93944e-05
4.04275e-05
4.14224e-05
4.23681e-05
4.32537e-05
4.40684e-05
4.48019e-05
4.54442e-05
4.59859e-05
4.64181e-05
4.67322e-05
4.69206e-05
4.69756e-05
4.68911e-05
4.66374e-05
4.61934e-05
4.56764e-05
4.49961e-05
4.41507e-05
4.30957e-05
4.18709e-05
4.04771e-05
3.89165e-05
3.71951e-05
3.53195e-05
3.33015e-05
3.11576e-05
2.89091e-05
2.65814e-05
2.42046e-05
2.18119e-05
1.94385e-05
1.71198e-05
1.48886e-05
1.27733e-05
1.07954e-05
8.96805e-06
7.29451e-06
5.76871e-06
4.37722e-06
3.10652e-06
1.96164e-06
9.99415e-07
3.38884e-07
4.91409e-08
2.95915e-10
7.61481e-12
1.27924e-09
9.3918e-09
3.12684e-08
7.11357e-08
1.29347e-07
2.03493e-07
2.89924e-07
3.85009e-07
4.85568e-07
5.88968e-07
6.93075e-07
7.96169e-07
8.96875e-07
9.94125e-07
1.08713e-06
1.17537e-06
1.2586e-06
1.33681e-06
1.41027e-06
1.47945e-06
1.54509e-06
1.60812e-06
1.66968e-06
1.7311e-06
1.79387e-06
1.85965e-06
1.93022e-06
2.00749e-06
2.09347e-06
2.19024e-06
2.29994e-06
2.42475e-06
2.56681e-06
2.72827e-06
2.91119e-06
3.11752e-06
3.34907e-06
3.60746e-06
3.8941e-06
4.21011e-06
4.55636e-06
4.93338e-06
5.34136e-06
5.78018e-06
6.24941e-06
6.74829e-06
7.27583e-06
7.83078e-06
8.41171e-06
9.01708e-06
9.64521e-06
1.02944e-05
1.09629e-05
1.16489e-05
1.23508e-05
1.30669e-05
1.37955e-05
1.45351e-05
1.52843e-05
1.60415e-05
1.68056e-05
1.75755e-05
1.83501e-05
1.91289e-05
1.99114e-05
2.06975e-05
2.14874e-05
2.22818e-05
2.30819e-05
2.38892e-05
2.47059e-05
2.55343e-05
2.63773e-05
2.7238e-05
2.81194e-05
2.90246e-05
2.99558e-05
3.09155e-05
3.1902e-05
3.2911e-05
3.39459e-05
3.50172e-05
3.61098e-05
3.722e-05
3.83389e-05
3.94565e-05
4.0565e-05
4.16538e-05
4.27124e-05
4.37299e-05
4.46953e-05
4.5598e-05
4.64278e-05
4.71752e-05
4.78311e-05
4.83874e-05
4.88361e-05
4.91703e-05
4.93833e-05
4.94688e-05
4.94206e-05
4.92329e-05
4.88956e-05
4.83626e-05
4.77425e-05
4.69915e-05
4.60471e-05
4.49405e-05
4.36508e-05
4.22019e-05
4.05921e-05
3.88275e-05
3.69116e-05
3.48536e-05
3.26677e-05
3.03727e-05
2.79917e-05
2.55528e-05
2.30881e-05
2.06326e-05
1.82222e-05
1.58914e-05
1.36708e-05
1.15844e-05
9.6476e-06
7.86566e-06
6.2337e-06
4.73881e-06
3.36804e-06
2.12871e-06
1.08478e-06
3.6782e-07
5.3336e-08
3.21236e-10
8.37465e-12
1.4085e-09
1.03749e-08
3.47286e-08
7.95465e-08
1.45696e-07
2.30817e-07
3.30946e-07
4.4188e-07
5.59843e-07
6.81623e-07
8.04574e-07
9.26539e-07
1.04578e-06
1.16094e-06
1.27099e-06
1.37526e-06
1.47337e-06
1.56528e-06
1.65123e-06
1.73177e-06
1.8077e-06
1.88011e-06
1.95032e-06
2.01985e-06
2.09045e-06
2.16404e-06
2.24269e-06
2.32862e-06
2.42414e-06
2.53165e-06
2.6536e-06
2.79246e-06
2.95068e-06
3.13064e-06
3.33465e-06
3.56488e-06
3.82329e-06
4.11166e-06
4.43149e-06
4.78396e-06
5.16994e-06
5.58994e-06
6.04409e-06
6.53216e-06
7.05357e-06
7.60741e-06
8.19247e-06
8.80731e-06
9.45027e-06
1.01195e-05
1.08132e-05
1.15293e-05
1.22658e-05
1.30206e-05
1.37917e-05
1.45771e-05
1.5375e-05
1.61832e-05
1.70001e-05
1.78238e-05
1.86529e-05
1.94859e-05
2.03217e-05
2.11594e-05
2.19985e-05
2.28391e-05
2.36815e-05
2.45267e-05
2.53764e-05
2.62326e-05
2.7098e-05
2.79757e-05
2.8869e-05
2.97815e-05
3.07165e-05
3.16778e-05
3.26665e-05
3.36818e-05
3.4712e-05
3.57853e-05
3.68873e-05
3.801e-05
3.91458e-05
4.02943e-05
4.14428e-05
4.25774e-05
4.36905e-05
4.47709e-05
4.58076e-05
4.67897e-05
4.77069e-05
4.85494e-05
4.93083e-05
4.99752e-05
5.05429e-05
5.10046e-05
5.13544e-05
5.15868e-05
5.16969e-05
5.16796e-05
5.15304e-05
5.12453e-05
5.08205e-05
5.02067e-05
4.94774e-05
4.86602e-05
4.76508e-05
4.64953e-05
4.51638e-05
4.36544e-05
4.20058e-05
4.02107e-05
3.82687e-05
3.6186e-05
3.39746e-05
3.16506e-05
2.92343e-05
2.67515e-05
2.42327e-05
2.17121e-05
1.9226e-05
1.68101e-05
1.44971e-05
1.23136e-05
1.02776e-05
8.39667e-06
6.66732e-06
5.0775e-06
3.61475e-06
2.28823e-06
1.1676e-06
3.96481e-07
5.75581e-08
3.4688e-10
9.16893e-12
1.54345e-09
1.13981e-08
3.83148e-08
8.82349e-08
1.6256e-07
2.59009e-07
3.73341e-07
5.00783e-07
6.36955e-07
7.78041e-07
9.20846e-07
1.06274e-06
1.20158e-06
1.33568e-06
1.46377e-06
1.58496e-06
1.69877e-06
1.80507e-06
1.90411e-06
1.99645e-06
2.08302e-06
2.16502e-06
2.24397e-06
2.32161e-06
2.39995e-06
2.48119e-06
2.56772e-06
2.66207e-06
2.7669e-06
2.88493e-06
3.01895e-06
3.17173e-06
3.34603e-06
3.54451e-06
3.76972e-06
4.02404e-06
4.30962e-06
4.62838e-06
4.9819e-06
5.37144e-06
5.79788e-06
6.26169e-06
6.76293e-06
7.30127e-06
7.87597e-06
8.48594e-06
9.12976e-06
9.80574e-06
1.0512e-05
1.12463e-05
1.20067e-05
1.27906e-05
1.35958e-05
1.44199e-05
1.52604e-05
1.61149e-05
1.69811e-05
1.78567e-05
1.87393e-05
1.96269e-05
2.05176e-05
2.14097e-05
2.23018e-05
2.3193e-05
2.40829e-05
2.49717e-05
2.58601e-05
2.67496e-05
2.76423e-05
2.85412e-05
2.94494e-05
3.03708e-05
3.13093e-05
3.22691e-05
3.32528e-05
3.42662e-05
3.52944e-05
3.63619e-05
3.74556e-05
3.85825e-05
3.97318e-05
4.08972e-05
4.20601e-05
4.32328e-05
4.43983e-05
4.5534e-05
4.66357e-05
4.76917e-05
4.86913e-05
4.96242e-05
5.0481e-05
5.12529e-05
5.19325e-05
5.25129e-05
5.29883e-05
5.33534e-05
5.36038e-05
5.37356e-05
5.37453e-05
5.3629e-05
5.33829e-05
5.30048e-05
5.24929e-05
5.18106e-05
5.09816e-05
5.00949e-05
4.90271e-05
4.77972e-05
4.64549e-05
4.49247e-05
4.32214e-05
4.13997e-05
3.94407e-05
3.73436e-05
3.51184e-05
3.27783e-05
3.03404e-05
2.78279e-05
2.52693e-05
2.26976e-05
2.01486e-05
1.76594e-05
1.52645e-05
1.29931e-05
1.08661e-05
8.89348e-06
7.07383e-06
5.39609e-06
3.84836e-06
2.44108e-06
1.24825e-06
4.2498e-07
6.18216e-08
3.72925e-10
9.99937e-12
1.6844e-09
1.24637e-08
4.20356e-08
9.72176e-08
1.79955e-07
2.88061e-07
4.17044e-07
5.61561e-07
7.16625e-07
8.77795e-07
1.0413e-06
1.20399e-06
1.36332e-06
1.51722e-06
1.66416e-06
1.80303e-06
1.93319e-06
2.05444e-06
2.16701e-06
2.2715e-06
2.36892e-06
2.46064e-06
2.54835e-06
2.63404e-06
2.71999e-06
2.80871e-06
2.90291e-06
3.00546e-06
3.11939e-06
3.24777e-06
3.39373e-06
3.56038e-06
3.75078e-06