/*--------------------------------*- C++ -*----------------------------------*\
  =========                 |
  \\      /  F ield         | OpenFOAM: The Open Source CFD Toolbox
   \\    /   O peration     | Website:  https://openfoam.org
    \\  /    A nd           | Version:  12
     \\/     M anipulation  |
\*---------------------------------------------------------------------------*/
FoamFile
{
    format      ascii;
    class       surfaceScalarField;
    location    "7.5";
    object      phi;
}
// * * * * * * * * * * * * * * * * * * * * * * * * * * * * * * * * * * * * * //

dimensions      [0 3 -1 0 0 0 0];

internalField   nonuniform List<scalar> 
36180
(
-5.07267e-11
5.01412e-11
-8.09108e-11
3.0195e-11
-5.04947e-11
-3.0391e-11
5.06956e-11
-1.01167e-10
2.2099e-10
-1.70276e-10
4.53983e-10
-2.32982e-10
7.41523e-10
-2.87534e-10
1.07494e-09
-3.33419e-10
1.44558e-09
-3.70645e-10
1.84504e-09
-3.99474e-10
2.26533e-09
-4.20305e-10
2.69894e-09
-4.33623e-10
3.13891e-09
-4.39987e-10
3.57891e-09
-4.40005e-10
4.01323e-09
-4.34334e-10
4.43689e-09
-4.23663e-10
4.8456e-09
-4.08708e-10
5.2358e-09
-3.90193e-10
5.60464e-09
-3.68843e-10
5.95001e-09
-3.45368e-10
6.27047e-09
-3.20457e-10
6.56523e-09
-2.94755e-10
6.8341e-09
-2.68867e-10
7.07743e-09
-2.43336e-10
7.29608e-09
-2.18658e-10
7.49134e-09
-1.95272e-10
7.66486e-09
-1.73532e-10
7.81857e-09
-1.53708e-10
7.95457e-09
-1.36003e-10
8.07511e-09
-1.20544e-10
8.1825e-09
-1.07387e-10
8.279e-09
-9.65068e-11
8.3668e-09
-8.77997e-11
8.44789e-09
-8.10857e-11
8.524e-09
-7.61086e-11
8.59653e-09
-7.25378e-11
8.6665e-09
-6.99711e-11
8.73444e-09
-6.79356e-11
8.80035e-09
-6.59116e-11
8.86364e-09
-6.3284e-11
8.92312e-09
-5.94813e-11
8.97685e-09
-5.37318e-11
9.02227e-09
-4.54259e-11
9.05604e-09
-3.37649e-11
9.07409e-09
-1.80541e-11
9.07161e-09
2.48431e-12
9.04305e-09
2.85528e-11
8.98216e-09
6.08948e-11
8.88192e-09
1.00242e-10
8.73461e-09
1.47307e-10
8.53181e-09
2.02804e-10
8.26436e-09
2.6745e-10
7.92238e-09
3.41972e-10
7.49525e-09
4.27133e-10
6.97159e-09
5.23656e-10
6.33922e-09
6.32369e-10
5.58513e-09
7.5409e-10
4.69562e-09
8.89516e-10
3.65602e-09
1.0396e-09
2.45099e-09
1.20503e-09
1.0644e-09
1.38659e-09
-5.20557e-10
1.58495e-09
-2.32121e-09
1.80065e-09
-4.35532e-09
2.03412e-09
-6.64079e-09
2.28547e-09
-9.19536e-09
2.55457e-09
-1.20365e-08
2.8411e-09
-1.51809e-08
3.1444e-09
-1.86443e-08
3.46343e-09
-2.2441e-08
3.79674e-09
-2.65835e-08
4.14247e-09
-3.10818e-08
4.49833e-09
-3.59434e-08
4.86157e-09
-4.11724e-08
5.22901e-09
-4.67694e-08
5.59702e-09
-5.2731e-08
5.96155e-09
-5.90491e-08
6.31817e-09
-6.57112e-08
6.66211e-09
-7.26995e-08
6.98829e-09
-7.99909e-08
7.29138e-09
-8.75568e-08
7.56588e-09
-9.53629e-08
7.80613e-09
-1.03369e-07
8.00641e-09
-1.1153e-07
8.16099e-09
-1.19794e-07
8.26414e-09
-1.28105e-07
8.31023e-09
-1.36398e-07
8.29375e-09
-1.44608e-07
8.20936e-09
-1.5266e-07
8.05195e-09
-1.60476e-07
7.81668e-09
-1.67975e-07
7.49904e-09
-1.7507e-07
7.09497e-09
-1.81671e-07
6.60092e-09
-1.87685e-07
6.01404e-09
-1.93018e-07
5.33226e-09
-1.97571e-07
4.5535e-09
-2.01241e-07
3.66985e-09
-2.03933e-07
2.69246e-09
-2.05586e-07
1.6522e-09
-2.06093e-07
5.07055e-10
-2.05369e-07
-7.23271e-10
-2.03362e-07
-2.00766e-09
-2.00015e-07
-3.34705e-09
-1.95295e-07
-4.71954e-09
-1.89195e-07
-6.10046e-09
-1.81731e-07
-7.46403e-09
-1.72949e-07
-8.78197e-09
-1.62926e-07
-1.00223e-08
-1.51775e-07
-1.1151e-08
-1.39642e-07
-1.21329e-08
-1.26708e-07
-1.29343e-08
-1.13184e-07
-1.35241e-08
-9.93081e-08
-1.3876e-08
-8.53371e-08
-1.3971e-08
-7.15381e-08
-1.3799e-08
-5.81778e-08
-1.33603e-08
-4.55112e-08
-1.26666e-08
-3.37699e-08
-1.17413e-08
-2.31519e-08
-1.0618e-08
-1.38126e-08
-9.33936e-09
-5.85852e-09
-7.95403e-09
6.55109e-10
-6.51363e-09
5.72486e-09
-5.06975e-09
9.39366e-09
-3.6688e-09
1.17461e-08
-2.3524e-09
1.28994e-08
-1.15332e-09
1.29957e-08
-9.62855e-11
1.21924e-08
8.03216e-10
1.06653e-08
1.52718e-09
8.60012e-09
2.06515e-09
6.21202e-09
2.3881e-09
3.76493e-09
2.44708e-09
1.60341e-09
2.16152e-09
2.05786e-10
1.39762e-09
2.05786e-10
-7.82495e-11
1.28384e-10
-9.63863e-11
4.83493e-11
4.02309e-11
-1.6698e-10
3.60491e-10
-4.214e-10
8.63846e-10
-6.73607e-10
1.53629e-09
-9.05407e-10
2.35786e-09
-1.1091e-09
3.30617e-09
-1.28174e-09
4.35819e-09
-1.42268e-09
5.49114e-09
-1.53244e-09
6.68305e-09
-1.61223e-09
7.91311e-09
-1.66371e-09
9.16195e-09
-1.68884e-09
1.04118e-08
-1.68986e-09
1.16466e-08
-1.66918e-09
1.28523e-08
-1.62938e-09
1.40167e-08
-1.57312e-09
1.51297e-08
-1.50314e-09
1.6183e-08
-1.42214e-09
1.71704e-08
-1.33281e-09
1.80877e-08
-1.23773e-09
1.89323e-08
-1.13934e-09
1.97033e-08
-1.03991e-09
2.04015e-08
-9.41527e-10
2.10289e-08
-8.46032e-10
2.15886e-08
-7.5504e-10
2.2085e-08
-6.69888e-10
2.25229e-08
-5.91623e-10
2.29079e-08
-5.21012e-10
2.32459e-08
-4.58534e-10
2.35429e-08
-4.04369e-10
2.38048e-08
-3.58396e-10
2.40372e-08
-3.20193e-10
2.42451e-08
-2.89039e-10
2.44329e-08
-2.6392e-10
2.46039e-08
-2.43532e-10
2.47602e-08
-2.26296e-10
2.49027e-08
-2.10363e-10
2.50304e-08
-1.93683e-10
2.5141e-08
-1.73891e-10
2.52302e-08
-1.48655e-10
2.52916e-08
-1.15099e-10
2.53168e-08
-7.06742e-11
2.52955e-08
-1.23877e-11
2.52148e-08
6.25995e-11
2.506e-08
1.57238e-10
2.48142e-08
2.74404e-10
2.44581e-08
4.16999e-10
2.39704e-08
5.87907e-10
2.33278e-08
7.89966e-10
2.25046e-08
1.026e-09
2.14732e-08
1.29884e-09
2.02038e-08
1.61133e-09
1.86645e-08
1.96642e-09
1.68213e-08
2.36691e-09
1.46377e-08
2.81591e-09
1.20755e-08
3.31636e-09
9.09386e-09
3.87111e-09
5.65029e-09
4.48317e-09
1.7003e-09
5.15502e-09
-2.80249e-09
5.88938e-09
-7.90634e-09
6.6888e-09
-1.36602e-08
7.55449e-09
-2.01129e-08
8.4868e-09
-2.73131e-08
9.4857e-09
-3.53088e-08
1.05503e-08
-4.41459e-08
1.16782e-08
-5.38675e-08
1.2866e-08
-6.45125e-08
1.41084e-08
-7.61148e-08
1.5399e-08
-8.87018e-08
1.67295e-08
-1.02293e-07
1.80899e-08
-1.169e-07
1.94686e-08
-1.32524e-07
2.08524e-08
-1.49153e-07
2.22265e-08
-1.66766e-07
2.35746e-08
-1.85327e-07
2.48791e-08
-2.04786e-07
2.61214e-08
-2.2508e-07
2.72818e-08
-2.46128e-07
2.834e-08
-2.67838e-07
2.92754e-08
-2.90099e-07
3.00671e-08
-3.12787e-07
3.06941e-08
-3.35761e-07
3.11357e-08
-3.58869e-07
3.13719e-08
-3.81942e-07
3.13831e-08
-4.04799e-07
3.11503e-08
-4.27245e-07
3.06559e-08
-4.49077e-07
2.98832e-08
-4.70077e-07
2.88168e-08
-4.90021e-07
2.74429e-08
-5.08675e-07
2.57496e-08
-5.25801e-07
2.37271e-08
-5.41156e-07
2.13684e-08
-5.54493e-07
1.86694e-08
-5.65567e-07
1.56281e-08
-5.74136e-07
1.22388e-08
-5.79938e-07
8.49381e-09
-5.82804e-07
4.51867e-09
-5.82527e-07
2.30237e-10
-5.78933e-07
-4.31723e-09
-5.71859e-07
-9.08228e-09
-5.61207e-07
-1.39984e-08
-5.46926e-07
-1.90015e-08
-5.2902e-07
-2.40058e-08
-5.07565e-07
-2.89196e-08
-4.82703e-07
-3.36433e-08
-4.54659e-07
-3.80663e-08
-4.23739e-07
-4.20714e-08
-3.90332e-07
-4.55395e-08
-3.54911e-07
-4.83555e-08
-3.18021e-07
-5.0414e-08
-2.80271e-07
-5.16266e-08
-2.42313e-07
-5.19286e-08
-2.04827e-07
-5.12851e-08
-1.6849e-07
-4.96966e-08
-1.33955e-07
-4.72017e-08
-1.01819e-07
-4.38778e-08
-7.25982e-08
-3.98387e-08
-4.67083e-08
-3.52293e-08
-2.44457e-08
-3.02166e-08
-5.97902e-09
-2.49803e-08
8.65211e-09
-1.97009e-08
1.9531e-08
-1.45477e-08
2.68507e-08
-9.67201e-09
3.08954e-08
-5.19811e-09
3.20235e-08
-1.22438e-09
3.06513e-08
2.17547e-09
2.72445e-08
4.93399e-09
2.23151e-08
6.99453e-09
1.64554e-08
8.24779e-09
1.03693e-08
8.53321e-09
4.92547e-09
7.60533e-09
1.1785e-09
5.1446e-09
1.38428e-09
-6.4844e-11
1.93142e-10
-1.53325e-11
-1.17829e-12
2.67186e-10
-4.49479e-10
8.23775e-10
-9.77962e-10
1.65669e-09
-1.5065e-09
2.74784e-09
-1.99654e-09
4.06896e-09
-2.43021e-09
5.58705e-09
-2.79983e-09
7.26732e-09
-3.10296e-09
9.07486e-09
-3.33999e-09
1.09756e-08
-3.51304e-09
1.29372e-08
-3.62533e-09
1.49293e-08
-3.68088e-09
1.69237e-08
-3.68434e-09
1.88954e-08
-3.64081e-09
2.08217e-08
-3.55575e-09
2.26835e-08
-3.43486e-09
2.44643e-08
-3.28394e-09
2.6151e-08
-3.10882e-09
2.77334e-08
-2.91523e-09
2.92043e-08
-2.7087e-09
3.05595e-08
-2.49448e-09
3.17971e-08
-2.27748e-09
3.29177e-08
-2.06214e-09
3.39241e-08
-1.85245e-09
3.48209e-08
-1.65185e-09
3.56142e-08
-1.46322e-09
3.63114e-08
-1.28879e-09
3.69206e-08
-1.13023e-09
3.74506e-08
-9.88518e-10
3.79102e-08
-8.64012e-10
3.83082e-08
-7.56404e-10
3.86527e-08
-6.64727e-10
3.89511e-08
-5.87358e-10
3.92092e-08
-5.2203e-10
3.94315e-08
-4.65844e-10
3.96205e-08
-4.15292e-10
3.97764e-08
-3.6628e-10
3.9897e-08
-3.14256e-10
3.99771e-08
-2.54023e-10
4.00088e-08
-1.80303e-10
3.99806e-08
-8.69138e-11
3.98779e-08
3.19921e-11
3.96826e-08
1.82941e-10
3.93729e-08
3.72236e-10
3.89237e-08
6.06433e-10
3.83062e-08
8.91984e-10
3.74878e-08
1.23536e-09
3.64327e-08
1.64296e-09
3.51016e-08
2.12115e-09
3.34514e-08
2.6762e-09
3.14358e-08
3.31441e-09
2.9005e-08
4.04207e-09
2.61058e-08
4.86562e-09
2.26815e-08
5.79121e-09
1.8672e-08
6.82549e-09
1.40139e-08
7.97438e-09
8.64105e-09
9.24401e-09
2.48383e-09
1.06404e-08
-4.53102e-09
1.21699e-08
-1.24785e-08
1.38369e-08
-2.14342e-08
1.56444e-08
-3.14745e-08
1.75948e-08
-4.26762e-08
1.96885e-08
-5.51144e-08
2.1924e-08
-6.88616e-08
2.42975e-08
-8.39858e-08
2.68024e-08
-1.00549e-07
2.94291e-08
-1.18605e-07
3.21646e-08
-1.38198e-07
3.49925e-08
-1.59362e-07
3.78929e-08
-1.82114e-07
4.08421e-08
-2.06459e-07
4.3813e-08
-2.32381e-07
4.6775e-08
-2.59849e-07
4.96943e-08
-2.88808e-07
5.25341e-08
-3.19185e-07
5.52552e-08
-3.5088e-07
5.78165e-08
-3.83773e-07
6.01752e-08
-4.17721e-07
6.22876e-08
-4.52555e-07
6.41095e-08
-4.88085e-07
6.55971e-08
-5.24098e-07
6.67071e-08
-5.60359e-07
6.73972e-08
-5.96614e-07
6.76268e-08
-6.32589e-07
6.73573e-08
-6.6799e-07
6.65521e-08
-7.02512e-07
6.51775e-08
-7.35831e-07
6.32027e-08
-7.67614e-07
6.05999e-08
-7.97517e-07
5.73455e-08
-8.25187e-07
5.34199e-08
-8.50269e-07
4.88085e-08
-8.72403e-07
4.35025e-08
-8.91233e-07
3.74997e-08
-9.0641e-07
3.08052e-08
-9.176e-07
2.34289e-08
-9.24429e-07
1.53226e-08
-9.26671e-07
6.76092e-09
-9.24069e-07
-2.37175e-09
-9.16359e-07
-1.2028e-08
-9.03373e-07
-2.20676e-08
-8.85002e-07
-3.23696e-08
-8.61204e-07
-4.28e-08
-8.32024e-07
-5.31854e-08
-7.97605e-07
-6.33383e-08
-7.58191e-07
-7.30581e-08
-7.14132e-07
-8.21244e-08
-6.65899e-07
-9.03048e-08
-6.14074e-07
-9.73643e-08
-5.59354e-07
-1.03076e-07
-5.02535e-07
-1.07233e-07
-4.44501e-07
-1.0966e-07
-3.862e-07
-1.1023e-07
-3.28613e-07
-1.08872e-07
-2.72726e-07
-1.05584e-07
-2.1949e-07
-1.00438e-07
-1.69784e-07
-9.35841e-08
-1.24378e-07
-8.5244e-08
-8.39052e-08
-7.57025e-08
-4.88299e-08
-6.5292e-08
-1.94372e-08
-5.4373e-08
4.17443e-09
-4.33125e-08
2.20882e-08
-3.24615e-08
3.45534e-08
-2.21372e-08
4.19646e-08
-1.26093e-08
4.48366e-08
-4.09642e-09
4.37869e-08
3.22517e-09
3.95159e-08
9.205e-09
3.2813e-08
1.36975e-08
2.45831e-08
1.64776e-08
1.58812e-08
1.72352e-08
7.95556e-09
1.5531e-08
2.22518e-09
1.0875e-08
3.60946e-09
-2.56105e-11
2.18711e-10
1.28279e-10
-1.55075e-10
5.85537e-10
-9.06719e-10
1.39243e-09
-1.78483e-09
2.5529e-09
-2.66694e-09
4.04618e-09
-3.48981e-09
5.838e-09
-4.22202e-09
7.88711e-09
-4.84893e-09
1.01491e-08
-5.365e-09
1.2579e-08
-5.76988e-09
1.51324e-08
-6.06643e-09
1.77667e-08
-6.25965e-09
2.04418e-08
-6.35607e-09
2.31208e-08
-6.36334e-09
2.577e-08
-6.29002e-09
2.83596e-08
-6.14529e-09
3.08635e-08
-5.93877e-09
3.32598e-08
-5.68029e-09
3.55308e-08
-5.37973e-09
3.76624e-08
-5.04683e-09
3.96447e-08
-4.69101e-09
4.14714e-08
-4.32119e-09
4.31396e-08
-3.94571e-09
4.46496e-08
-3.57216e-09
4.60045e-08
-3.20732e-09
4.72097e-08
-2.85705e-09
4.82727e-08
-2.52623e-09
4.92025e-08
-2.21867e-09
5.00095e-08
-1.93715e-09
5.07043e-08
-1.68332e-09
5.1298e-08
-1.45771e-09
5.18013e-08
-1.25972e-09
5.22241e-08
-1.08759e-09
5.25752e-08
-9.38434e-10
5.28614e-08
-8.08249e-10
5.30875e-08
-6.91926e-10
5.32555e-08
-5.83301e-10
5.33644e-08
-4.75188e-10
5.34098e-08
-3.5959e-10
5.33832e-08
-2.27496e-10
5.32723e-08
-6.94029e-11
5.30602e-08
1.25261e-10
5.27252e-08
3.66952e-10
5.22412e-08
6.66937e-10
5.1577e-08
1.03643e-09
5.06965e-08
1.48691e-09
4.95587e-08
2.02977e-09
4.81177e-08
2.67642e-09
4.63225e-08
3.43814e-09
4.41175e-08
4.32612e-09
4.14423e-08
5.35144e-09
3.82316e-08
6.52511e-09
3.44155e-08
7.85812e-09
2.99196e-08
9.36158e-09
2.46646e-08
1.10462e-08
1.85676e-08
1.29225e-08
1.1541e-08
1.50009e-08
3.49222e-09
1.72928e-08
-5.67475e-09
1.98074e-08
-1.60577e-08
2.25528e-08
-2.77567e-08
2.55359e-08
-4.08736e-08
2.87613e-08
-5.55096e-08
3.22309e-08
-7.17649e-08
3.59437e-08
-8.97357e-08
3.98948e-08
-1.09513e-07
4.40749e-08
-1.31181e-07
4.84698e-08
-1.54811e-07
5.30598e-08
-1.80466e-07
5.78193e-08
-2.0819e-07
6.27168e-08
-2.38012e-07
6.77143e-08
-2.69938e-07
7.2768e-08
-3.03953e-07
7.78278e-08
-3.40016e-07
8.28382e-08
-3.7806e-07
8.77385e-08
-4.17989e-07
9.24633e-08
-4.59678e-07
9.69439e-08
-5.0297e-07
1.01109e-07
-5.47679e-07
1.04884e-07
-5.93588e-07
1.08197e-07
-6.4045e-07
1.10972e-07
-6.8799e-07
1.13137e-07
-7.35905e-07
1.14622e-07
-7.83868e-07
1.1536e-07
-8.31526e-07
1.15285e-07
-8.78508e-07
1.14339e-07
-9.24422e-07
1.12467e-07
-9.68863e-07
1.09618e-07
-1.01141e-06
1.05749e-07
-1.05163e-06
1.00822e-07
-1.08909e-06
9.48068e-08
-1.12335e-06
8.76791e-08
-1.15397e-06
7.94248e-08
-1.18051e-06
7.00388e-08
-1.20253e-06
5.95275e-08
-1.21964e-06
4.79089e-08
-1.23142e-06
3.52106e-08
-1.23754e-06
2.14397e-08
-1.23763e-06
6.85531e-09
-1.23143e-06
-8.57143e-09
-1.2187e-06
-2.47582e-08
-1.19927e-06
-4.14951e-08
-1.17305e-06
-5.85882e-08
-1.14004e-06
-7.58157e-08
-1.10032e-06
-9.28999e-08
-1.05412e-06
-1.09539e-07
-1.00177e-06
-1.25413e-07
-9.4372e-07
-1.40173e-07
-8.80571e-07
-1.53454e-07
-8.1305e-07
-1.64886e-07
-7.42012e-07
-1.74114e-07
-6.68433e-07
-1.80811e-07
-5.93391e-07
-1.84703e-07
-5.18036e-07
-1.85585e-07
-4.43567e-07
-1.83341e-07
-3.71189e-07
-1.77962e-07
-3.02073e-07
-1.69554e-07
-2.37314e-07
-1.58344e-07
-1.77882e-07
-1.44675e-07
-1.24591e-07
-1.28994e-07
-7.80588e-08
-1.11824e-07
-3.86882e-08
-9.37436e-08
-6.65479e-09
-7.53459e-08
1.80918e-08
-5.72081e-08
3.58149e-08
-3.98603e-08
4.69696e-08
-2.37641e-08
5.21774e-08
-9.30416e-09
5.22015e-08
3.20103e-09
4.79284e-08
1.34781e-08
4.03735e-08
2.12524e-08
3.06902e-08
2.6161e-08
2.02062e-08
2.77191e-08
1.04491e-08
2.52881e-08
3.11869e-09
1.82054e-08
6.72815e-09
2.82933e-11
1.90337e-10
3.1133e-10
-4.3814e-10
9.63543e-10
-1.55892e-09
2.03077e-09
-2.85203e-09
3.51657e-09
-4.15272e-09
5.39778e-09
-5.371e-09
7.63541e-09
-6.45964e-09
1.01816e-08
-7.39515e-09
1.29843e-08
-8.16765e-09
1.59897e-08
-8.77534e-09
1.91448e-08
-9.22155e-09
2.23982e-08
-9.5131e-09
2.57014e-08
-9.65928e-09
2.90093e-08
-9.67127e-09
3.2281e-08
-9.56165e-09
3.54797e-08
-9.34402e-09
3.85736e-08
-9.03268e-09
4.15356e-08
-8.6423e-09
4.43435e-08
-8.18763e-09
4.69799e-08
-7.68323e-09
4.94321e-08
-7.14317e-09
5.16918e-08
-6.58084e-09
5.37548e-08
-6.00871e-09
5.56208e-08
-5.43817e-09
5.72928e-08
-4.87935e-09
5.87767e-08
-4.34103e-09
6.0081e-08
-3.83049e-09
6.12157e-08
-3.35343e-09
6.21925e-08
-2.91394e-09
6.30236e-08
-2.51442e-09
6.37215e-08
-2.15557e-09
6.42981e-08
-1.83635e-09
6.47645e-08
-1.55396e-09
6.513e-08
-1.30391e-09
6.54016e-08
-1.07993e-09
6.55838e-08
-8.74129e-10
6.56775e-08
-6.76958e-10
6.56797e-08
-4.77344e-10
6.5583e-08
-2.62912e-10
6.53753e-08
-1.97871e-11
6.5039e-08
2.66862e-10
6.45512e-08
6.13019e-10
6.38831e-08
1.0351e-09
6.29997e-08
1.55034e-09
6.18599e-08
2.17618e-09
6.04165e-08
2.93032e-09
5.86158e-08
3.83046e-09
5.6398e-08
4.89422e-09
5.36971e-08
6.13911e-09
5.04408e-08
7.58242e-09
4.65509e-08
9.24126e-09
4.19434e-08
1.11326e-08
3.65282e-08
1.32733e-08
3.02099e-08
1.56799e-08
2.28876e-08
1.83686e-08
1.44545e-08
2.13555e-08
4.79875e-09
2.46567e-08
-6.19533e-09
2.82869e-08
-1.86469e-08
3.2259e-08
-3.26783e-08
3.65842e-08
-4.84134e-08
4.12709e-08
-6.5976e-08
4.63239e-08
-8.54884e-08
5.17434e-08
-1.07069e-07
5.75246e-08
-1.30831e-07
6.36563e-08
-1.56876e-07
7.01205e-08
-1.85298e-07
7.68911e-08
-2.16171e-07
8.39332e-08
-2.49555e-07
9.12033e-08
-2.85487e-07
9.86483e-08
-3.23978e-07
1.06206e-07
-3.65014e-07
1.13804e-07
-4.08549e-07
1.21363e-07
-4.54505e-07
1.28794e-07
-5.02768e-07
1.36001e-07
-5.53189e-07
1.42885e-07
-6.05582e-07
1.49337e-07
-6.59725e-07
1.55251e-07
-7.15356e-07
1.60516e-07
-7.72182e-07
1.65022e-07
-8.29872e-07
1.68662e-07
-8.88066e-07
1.71331e-07
-9.46374e-07
1.7293e-07
-1.00438e-06
1.73365e-07
-1.06164e-06
1.72548e-07
-1.11771e-06
1.70402e-07
-1.17209e-06
1.66854e-07
-1.22432e-06
1.61842e-07
-1.27388e-06
1.55315e-07
-1.32029e-06
1.47229e-07
-1.36303e-06
1.37552e-07
-1.40162e-06
1.26265e-07
-1.43555e-06
1.13359e-07
-1.46436e-06
9.88416e-08
-1.48756e-06
8.27357e-08
-1.50474e-06
6.50819e-08
-1.51547e-06
4.59385e-08
-1.5194e-06
2.53734e-08
-1.51617e-06
3.63071e-09
-1.50552e-06
-1.92237e-08
-1.48724e-06
-4.30421e-08
-1.46119e-06
-6.75477e-08
-1.42731e-06
-9.24647e-08
-1.38565e-06
-1.17475e-07
-1.33636e-06
-1.4219e-07
-1.27972e-06
-1.66183e-07
-1.21612e-06
-1.89007e-07
-1.14612e-06
-2.10179e-07
-1.07038e-06
-2.29189e-07
-9.89738e-07
-2.45528e-07
-9.0515e-07
-2.58701e-07
-8.17706e-07
-2.68255e-07
-7.28605e-07
-2.73804e-07
-6.39133e-07
-2.75057e-07
-5.5063e-07
-2.71844e-07
-4.64453e-07
-2.64138e-07
-3.81933e-07
-2.52074e-07
-3.04324e-07
-2.35953e-07
-2.32758e-07
-2.16241e-07
-1.68202e-07
-1.9355e-07
-1.11413e-07
-1.68613e-07
-6.2915e-08
-1.42242e-07
-2.29742e-08
-1.15287e-07
8.40065e-09
-8.85829e-08
3.1452e-08
-6.29116e-08
4.66548e-08
-3.89669e-08
5.46917e-08
-1.73411e-08
5.64273e-08
1.4655e-09
5.28887e-08
1.70166e-08
4.52638e-08
2.88773e-08
3.49024e-08
3.65224e-08
2.33428e-08
3.92787e-08
1.23288e-08
3.63021e-08
3.8047e-09
2.67295e-08
1.05328e-08
9.01848e-11
1.00105e-10
5.17334e-10
-8.65307e-10
1.37764e-09
-2.41922e-09
2.71135e-09
-4.18571e-09
4.51932e-09
-5.96065e-09
6.77551e-09
-7.62718e-09
9.43685e-09
-9.12097e-09
1.24501e-08
-1.04084e-08
1.57565e-08
-1.14741e-08
1.92954e-08
-1.23143e-08
2.30061e-08
-1.29322e-08
2.68297e-08
-1.33367e-08
3.07101e-08
-1.35398e-08
3.45955e-08
-1.35566e-08
3.8438e-08
-1.34042e-08
4.21952e-08
-1.31012e-08
4.58298e-08
-1.26672e-08
4.93099e-08
-1.21224e-08
5.26094e-08
-1.14871e-08
5.57076e-08
-1.07814e-08
5.8589e-08
-1.00246e-08
6.12435e-08
-9.23534e-09
6.36655e-08
-8.43073e-09
6.58539e-08
-7.62654e-09
6.78113e-08
-6.83674e-09
6.95437e-08
-6.07344e-09
7.10598e-08
-5.34664e-09
7.23706e-08
-4.66419e-09
7.34883e-08
-4.03164e-09
7.44261e-08
-3.4522e-09
7.51972e-08
-2.92667e-09
7.58142e-08
-2.45341e-09
7.62886e-08
-2.02835e-09
7.66297e-08
-1.64495e-09
7.6844e-08
-1.29426e-09
7.69348e-08
-9.64961e-10
7.69013e-08
-6.43442e-10
7.67379e-08
-3.13946e-10
7.64338e-08
4.12295e-11
7.59722e-08
4.41761e-10
7.53303e-08
9.08825e-10
7.44782e-08
1.46503e-09
7.33794e-08
2.13389e-09
7.19899e-08
2.93989e-09
7.02582e-08
3.9079e-09
6.81253e-08
5.06316e-09
6.55249e-08
6.43093e-09
6.23827e-08
8.03636e-09
5.86174e-08
9.9044e-09
5.41402e-08
1.20597e-08
4.88549e-08
1.45265e-08
4.26585e-08
1.7329e-08
3.54412e-08
2.04906e-08
2.70867e-08
2.40344e-08
1.74717e-08
2.79835e-08
6.46774e-09
3.23595e-08
-6.05913e-09
3.71836e-08
-2.02472e-08
4.2475e-08
-3.62382e-08
4.825e-08
-5.4176e-08
5.4522e-08
-7.42049e-08
6.12998e-08
-9.64675e-08
6.85865e-08
-1.21103e-07
7.63785e-08
-1.48242e-07
8.46643e-08
-1.78009e-07
9.34228e-08
-2.10511e-07
1.02623e-07
-2.45841e-07
1.12221e-07
-2.84069e-07
1.22162e-07
-3.25244e-07
1.32378e-07
-3.69382e-07
1.42787e-07
-4.16472e-07
1.53295e-07
-4.66463e-07
1.63795e-07
-5.19269e-07
1.74169e-07
-5.74763e-07
1.84288e-07
-6.32777e-07
1.94015e-07
-6.93097e-07
2.03205e-07
-7.55469e-07
2.1171e-07
-8.19597e-07
2.19379e-07
-8.85142e-07
2.26061e-07
-9.51729e-07
2.31609e-07
-1.01895e-06
2.35879e-07
-1.08635e-06
2.38734e-07
-1.15347e-06
2.40048e-07
-1.2198e-06
2.39702e-07
-1.28485e-06
2.37591e-07
-1.34806e-06
2.3362e-07
-1.40892e-06
2.27707e-07
-1.46686e-06
2.19785e-07
-1.52135e-06
2.098e-07
-1.57183e-06
1.97712e-07
-1.61777e-06
1.83496e-07
-1.65865e-06
1.67144e-07
-1.69395e-06
1.48663e-07
-1.7232e-06
1.28082e-07
-1.74591e-06
1.05447e-07
-1.76166e-06
8.08323e-08
-1.77005e-06
5.43342e-08
-1.77076e-06
2.60786e-08
-1.76344e-06
-3.68314e-09
-1.74787e-06
-3.47986e-08
-1.72387e-06
-6.70403e-08
-1.69135e-06
-1.00065e-07
-1.65031e-06
-1.33509e-07
-1.60083e-06
-1.66957e-07
-1.54311e-06
-1.99911e-07
-1.47747e-06
-2.3182e-07
-1.40437e-06
-2.62105e-07
-1.3244e-06
-2.90149e-07
-1.23829e-06
-3.153e-07
-1.14691e-06
-3.36905e-07
-1.05129e-06
-3.54326e-07
-9.52566e-07
-3.66979e-07
-8.52009e-07
-3.7436e-07
-7.50983e-07
-3.76083e-07
-6.50915e-07
-3.71912e-07
-5.53261e-07
-3.61792e-07
-4.59462e-07
-3.45874e-07
-3.70894e-07
-3.24522e-07
-2.88818e-07
-2.98316e-07
-2.14334e-07
-2.68034e-07
-1.48329e-07
-2.34618e-07
-9.14455e-08
-1.99126e-07
-4.40547e-08
-1.62678e-07
-6.24398e-09
-1.26394e-07
2.21803e-08
-9.13359e-08
4.16794e-08
-5.8466e-08
5.29601e-08
-2.86218e-08
5.69487e-08
-2.52302e-09
5.47723e-08
1.91929e-08
4.77461e-08
3.59036e-08
3.73706e-08
4.68978e-08
2.5348e-08
5.13013e-08
1.35968e-08
4.80534e-08
4.27861e-09
3.60476e-08
1.48115e-08
1.55607e-10
-5.55714e-11
7.34608e-10
-1.44434e-09
1.81019e-09
-3.4948e-09
3.41285e-09
-5.78835e-09
5.53845e-09
-8.08622e-09
8.15728e-09
-1.0246e-08
1.12223e-08
-1.21859e-08
1.46754e-08
-1.38615e-08
1.84525e-08
-1.52513e-08
2.24867e-08
-1.63485e-08
2.67109e-08
-1.71565e-08
3.10597e-08
-1.76855e-08
3.54707e-08
-1.79508e-08
3.98855e-08
-1.79715e-08
4.42509e-08
-1.77696e-08
4.85188e-08
-1.73692e-08
5.26473e-08
-1.67957e-08
5.66001e-08
-1.60753e-08
6.03476e-08
-1.52346e-08
6.38658e-08
-1.42996e-08
6.71369e-08
-1.32957e-08
7.01487e-08
-1.22471e-08
7.28941e-08
-1.11762e-08
7.53711e-08
-1.01035e-08
7.75817e-08
-9.04733e-09
7.95316e-08
-8.02335e-09
8.12296e-08
-7.04463e-09
8.26867e-08
-6.1213e-09
8.39155e-08
-5.26049e-09
8.49296e-08
-4.46623e-09
8.57422e-08
-3.73934e-09
8.63662e-08
-3.07742e-09
8.68127e-08
-2.47478e-09
8.70902e-08
-1.92252e-09
8.72044e-08
-1.40846e-09
8.71568e-08
-9.17285e-10
8.69439e-08
-4.30641e-10
8.65573e-08
7.2723e-11
8.59818e-08
6.16704e-10
8.51958e-08
1.22774e-09
8.41703e-08
1.93438e-09
8.28683e-08
2.76698e-09
8.12449e-08
3.75729e-09
7.92466e-08
4.93822e-09
7.68112e-08
6.34333e-09
7.38677e-08
8.00662e-09
7.03365e-08
9.96214e-09
6.61291e-08
1.22438e-08
6.11483e-08
1.48852e-08
5.52886e-08
1.79194e-08
4.84361e-08
2.1379e-08
4.0469e-08
2.52961e-08
3.12576e-08
2.97019e-08
2.06651e-08
3.4627e-08
8.54766e-09
4.01009e-08
-5.24459e-09
4.61518e-08
-2.08667e-08
5.28057e-08
-3.84778e-08
6.00861e-08
-5.82398e-08
6.80119e-08
-8.03152e-08
7.65975e-08
-1.04866e-07
8.58501e-08
-1.32048e-07
9.57691e-08
-1.62013e-07
1.06344e-07
-1.94901e-07
1.17552e-07
-2.30837e-07
1.29359e-07
-2.69928e-07
1.41713e-07
-3.12258e-07
1.54551e-07
-3.57885e-07
1.67789e-07
-4.06834e-07
1.81327e-07
-4.59094e-07
1.95048e-07
-5.14617e-07
2.08818e-07
-5.7331e-07
2.22488e-07
-6.35033e-07
2.35893e-07
-6.99602e-07
2.48857e-07
-7.66784e-07
2.61196e-07
-8.36294e-07
2.72716e-07
-9.07806e-07
2.83221e-07
-9.80943e-07
2.92516e-07
-1.05529e-06
3.00407e-07
-1.13039e-06
3.06708e-07
-1.20575e-06
3.11241e-07
-1.28086e-06
3.13841e-07
-1.35517e-06
3.14357e-07
-1.42812e-06
3.12652e-07
-1.49913e-06
3.08607e-07
-1.56763e-06
3.02122e-07
-1.63304e-06
2.93112e-07
-1.69477e-06
2.81512e-07
-1.75224e-06
2.67277e-07
-1.80491e-06
2.50378e-07
-1.85222e-06
2.30808e-07
-1.89366e-06
2.08577e-07
-1.92871e-06
1.8372e-07
-1.95692e-06
1.5629e-07
-1.97784e-06
1.2637e-07
-1.99108e-06
9.40679e-08
-1.99627e-06
5.95272e-08
-1.99312e-06
2.29275e-08
-1.98135e-06
-1.54558e-08
-1.96076e-06
-5.53901e-08
-1.93123e-06
-9.65689e-08
-1.89271e-06
-1.38583e-07
-1.84524e-06
-1.80982e-07
-1.78894e-06
-2.23254e-07
-1.72405e-06
-2.648e-07
-1.65092e-06
-3.0495e-07
-1.57003e-06
-3.42998e-07
-1.48198e-06
-3.78194e-07
-1.38753e-06
-4.0975e-07
-1.28757e-06
-4.36868e-07
-1.18313e-06
-4.5877e-07
-1.07537e-06
-4.74736e-07
-9.65593e-07
-4.84138e-07
-8.55192e-07
-4.86484e-07
-7.45641e-07
-4.81462e-07
-6.38457e-07
-4.68976e-07
-5.35158e-07
-4.49173e-07
-4.37212e-07
-4.22468e-07
-3.45987e-07
-3.89541e-07
-2.62697e-07
-3.51324e-07
-1.88352e-07
-3.08962e-07
-1.23715e-07
-2.63763e-07
-6.92669e-08
-2.17125e-07
-2.51909e-08
-1.7047e-07
8.63697e-09
-1.25164e-07
3.26377e-08
-8.24668e-08
4.75116e-08
-4.34957e-08
5.42143e-08
-9.22577e-09
5.3935e-08
1.94723e-08
4.80793e-08
4.17593e-08
3.82622e-08
5.67149e-08
2.63129e-08
6.32506e-08
1.4294e-08
6.00722e-08
4.55571e-09
4.57859e-08
1.93672e-08
2.21565e-10
-2.77183e-10
9.54978e-10
-2.17777e-09
2.2482e-09
-4.78801e-09
4.11899e-09
-7.65912e-09
6.55619e-09
-1.05234e-08
9.52539e-09
-1.32152e-08
1.29754e-08
-1.56359e-08
1.68437e-08
-1.77298e-08
2.10613e-08
-1.94689e-08
2.55561e-08
-2.08433e-08
3.02554e-08
-2.18558e-08
3.5088e-08
-2.25182e-08
3.99862e-08
-2.28489e-08
4.4886e-08
-2.28714e-08
4.97292e-08
-2.26127e-08
5.44629e-08
-2.21029e-08
5.90408e-08
-2.13736e-08
6.34231e-08
-2.04575e-08
6.75764e-08
-1.93879e-08
7.14742e-08
-1.81974e-08
7.50963e-08
-1.69178e-08
7.84284e-08
-1.55792e-08
8.1462e-08
-1.42099e-08
8.41939e-08
-1.28354e-08
8.66253e-08
-1.14787e-08
8.87614e-08
-1.01595e-08
9.06107e-08
-8.89386e-09
9.21838e-08
-7.69448e-09
9.34934e-08
-6.57008e-09
9.45527e-08
-5.52547e-09
9.53747e-08
-4.56139e-09
9.59717e-08
-3.67444e-09
9.6354e-08
-2.85706e-09
9.6529e-08
-2.09753e-09
9.65005e-08
-1.37999e-09
9.62678e-08
-6.84528e-10
9.58245e-08
1.2656e-11
9.51581e-08
7.39077e-10
9.42492e-08
1.52568e-09
9.30703e-08
2.40663e-09
9.15859e-08
3.41879e-09
8.97514e-08
4.60142e-09
8.75131e-08
5.99557e-09
8.48076e-08
7.64376e-09
8.15615e-08
9.58941e-09
7.76917e-08
1.18765e-08
7.31049e-08
1.45489e-08
6.76981e-08
1.76506e-08
6.13583e-08
2.12249e-08
5.39634e-08
2.53143e-08
4.53816e-08
2.99608e-08
3.54724e-08
3.52052e-08
2.40872e-08
4.10872e-08
1.10692e-08
4.7645e-08
-3.7454e-09
5.49155e-08
-2.05263e-08
6.29327e-08
-3.94482e-08
7.17276e-08
-6.06889e-08
8.13268e-08
-8.44279e-08
9.17509e-08
-1.10843e-07
1.03013e-07
-1.4011e-07
1.15117e-07
-1.72395e-07
1.28054e-07
-2.07856e-07
1.41804e-07
-2.46633e-07
1.56329e-07
-2.88848e-07
1.71574e-07
-3.346e-07
1.87465e-07
-3.83957e-07
2.03907e-07
-4.36951e-07
2.20783e-07
-4.93577e-07
2.37953e-07
-5.53788e-07
2.55258e-07
-6.17486e-07
2.72516e-07
-6.84526e-07
2.89527e-07
-7.54709e-07
3.06075e-07
-8.27782e-07
3.21931e-07
-9.03442e-07
3.36855e-07
-9.81329e-07
3.50603e-07
-1.06104e-06
3.6293e-07
-1.14212e-06
3.73594e-07
-1.22407e-06
3.8236e-07
-1.30637e-06
3.89006e-07
-1.38845e-06
3.93325e-07
-1.46974e-06
3.95127e-07
-1.54963e-06
3.94245e-07
-1.62751e-06
3.90533e-07
-1.70277e-06
3.83868e-07
-1.7748e-06
3.74151e-07
-1.84299e-06
3.61306e-07
-1.90676e-06
3.45282e-07
-1.96554e-06
3.2605e-07
-2.01876e-06
3.03605e-07
-2.06592e-06
2.77963e-07
-2.10651e-06
2.49165e-07
-2.14006e-06
2.17275e-07
-2.16615e-06
1.82383e-07
-2.18439e-06
1.44608e-07
-2.19442e-06
1.041e-07
-2.19594e-06
6.10469e-08
-2.1887e-06
1.56802e-08
-2.17246e-06
-3.16915e-08
-2.14709e-06
-8.0763e-08
-2.1125e-06
-1.31157e-07
-2.06868e-06
-1.82399e-07
-2.0157e-06
-2.33961e-07
-1.95372e-06
-2.8524e-07
-1.88297e-06
-3.35545e-07
-1.80383e-06
-3.84095e-07
-1.71676e-06
-4.30065e-07
-1.62237e-06
-4.7258e-07
-1.52141e-06
-5.10717e-07
-1.41473e-06
-5.4354e-07
-1.30337e-06
-5.7013e-07
-1.18848e-06
-5.89626e-07
-1.07135e-06
-6.01271e-07
-9.53375e-07
-6.0446e-07
-8.36049e-07
-5.98788e-07
-7.20927e-07
-5.84099e-07
-6.09576e-07
-5.60524e-07
-5.03537e-07
-5.28507e-07
-4.04268e-07
-4.8881e-07
-3.13088e-07
-4.42505e-07
-2.3112e-07
-3.9093e-07
-1.59248e-07
-3.35635e-07
-9.8068e-08
-2.78305e-07
-4.78679e-08
-2.2067e-07
-8.61028e-09
-1.64421e-07
2.00652e-08
-1.11142e-07
3.88281e-08
-6.22586e-08
4.8636e-08
-1.90337e-08
5.07098e-08
1.73985e-08
4.65162e-08
4.59529e-08
3.77525e-08
6.54786e-08
2.63468e-08
7.46564e-08
1.44805e-08
7.19385e-08
4.65971e-09
5.56067e-08
2.40269e-08
2.86139e-10
-5.63385e-10
1.17282e-09
-3.06449e-09
2.68225e-09
-6.29744e-09
4.81754e-09
-9.79439e-09
7.55883e-09
-1.32647e-08
1.0866e-08
-1.65223e-08
1.46832e-08
-1.94531e-08
1.89438e-08
-2.19904e-08
2.35743e-08
-2.40994e-08
2.84977e-08
-2.57668e-08
3.36367e-08
-2.69948e-08
3.89152e-08
-2.77967e-08
4.42603e-08
-2.8194e-08
4.96037e-08
-2.82147e-08
5.48823e-08
-2.78914e-08
6.00393e-08
-2.72599e-08
6.50246e-08
-2.63588e-08
6.97948e-08
-2.52277e-08
7.43136e-08
-2.39068e-08
7.85519e-08
-2.24357e-08
8.24871e-08
-2.08529e-08
8.61031e-08
-1.91953e-08
8.939e-08
-1.74968e-08
9.23432e-08
-1.57886e-08
9.4963e-08
-1.40985e-08
9.72538e-08
-1.24503e-08
9.92233e-08
-1.08634e-08
1.00882e-07
-9.35304e-09
1.02241e-07
-7.92957e-09
1.03314e-07
-6.59849e-09
1.04113e-07
-5.36029e-09
1.04649e-07
-4.21038e-09
1.04931e-07
-3.13897e-09
1.04965e-07
-2.13112e-09
1.04751e-07
-1.16678e-09
1.04288e-07
-2.20856e-10
1.03564e-07
7.36584e-10
1.02563e-07
1.74009e-09
1.0126e-07
2.82849e-09
9.96221e-08
4.04459e-09
9.76063e-08
5.43461e-09
9.516e-08
7.04768e-09
9.22203e-08
8.93527e-09
8.87135e-08
1.11506e-08
8.45548e-08
1.37481e-08
7.96484e-08
1.67828e-08
7.38875e-08
2.03098e-08
6.71542e-08
2.43839e-08
5.932e-08
2.90591e-08
5.02458e-08
3.43886e-08
3.97825e-08
4.04241e-08
2.77716e-08
4.72162e-08
1.40454e-08
5.48134e-08
-1.57153e-09
6.32619e-08
-1.92617e-08
7.26057e-08
-3.92134e-08
8.28843e-08
-6.16188e-08
9.4133e-08
-8.66722e-08
1.0638e-07
-1.14567e-07
1.19646e-07
-1.45495e-07
1.3394e-07
-1.79638e-07
1.4926e-07
-2.17169e-07
1.65585e-07
-2.58245e-07
1.8288e-07
-3.03003e-07
2.01087e-07
-3.51553e-07
2.20125e-07
-4.03976e-07
2.39888e-07
-4.60315e-07
2.60246e-07
-5.2057e-07
2.81038e-07
-5.84696e-07
3.02079e-07
-6.52596e-07
3.23158e-07
-7.24119e-07
3.44039e-07
-7.99056e-07
3.64465e-07
-8.77142e-07
3.84161e-07
-9.58051e-07
4.02841e-07
-1.0414e-06
4.20208e-07
-1.12677e-06
4.35965e-07
-1.21365e-06
4.49817e-07
-1.30154e-06
4.61478e-07
-1.38985e-06
4.70677e-07
-1.47801e-06
4.77161e-07
-1.56538e-06
4.807e-07
-1.65135e-06
4.81091e-07
-1.73526e-06
4.78158e-07
-1.81648e-06
4.71755e-07
-1.89438e-06
4.61769e-07
-1.96834e-06
4.48112e-07
-2.03777e-06
4.30729e-07
-2.10207e-06
4.09591e-07
-2.16072e-06
3.84698e-07
-2.21319e-06
3.56074e-07
-2.259e-06
3.2377e-07
-2.29769e-06
2.87859e-07
-2.32886e-06
2.48445e-07
-2.35213e-06
2.05654e-07
-2.36717e-06
1.59644e-07
-2.37368e-06
1.10609e-07
-2.37141e-06
5.87775e-08
-2.36016e-06
4.42795e-09
-2.33975e-06
-5.20952e-08
-2.31009e-06
-1.10425e-07
-2.27112e-06
-1.70122e-07
-2.22287e-06
-2.30655e-07
-2.16541e-06
-2.91425e-07
-2.0989e-06
-3.51748e-07
-2.02359e-06
-4.10849e-07
-1.93984e-06
-4.67854e-07
-1.84808e-06
-5.21821e-07