/*--------------------------------*- C++ -*----------------------------------*\
  =========                 |
  \\      /  F ield         | OpenFOAM: The Open Source CFD Toolbox
   \\    /   O peration     | Website:  https://openfoam.org
    \\  /    A nd           | Version:  12
     \\/     M anipulation  |
\*---------------------------------------------------------------------------*/
FoamFile
{
    format      ascii;
    class       volVectorField;
    location    "7.5";
    object      U;
}
// * * * * * * * * * * * * * * * * * * * * * * * * * * * * * * * * * * * * * //

dimensions      [0 1 -1 0 0 0 0];

internalField   nonuniform List<vector> 
18225
(
(-3.23402e-06 1.74481e-06 0)
(-1.03194e-05 1.05415e-06 0)
(-1.08435e-05 1.35009e-07 0)
(-2.1442e-06 -7.9065e-07 0)
(1.62949e-05 -1.63016e-06 0)
(4.37297e-05 -2.36258e-06 0)
(7.91173e-05 -2.98196e-06 0)
(0.000121296 -3.49168e-06 0)
(0.000169084 -3.89798e-06 0)
(0.000221323 -4.20714e-06 0)
(0.000276901 -4.42605e-06 0)
(0.000334769 -4.56137e-06 0)
(0.000393948 -4.62045e-06 0)
(0.000453538 -4.61062e-06 0)
(0.000512726 -4.5398e-06 0)
(0.000570789 -4.41599e-06 0)
(0.000627101 -4.24751e-06 0)
(0.00068113 -4.04259e-06 0)
(0.000732446 -3.80945e-06 0)
(0.000780715 -3.55603e-06 0)
(0.000825696 -3.29e-06 0)
(0.000867241 -3.01848e-06 0)
(0.000905285 -2.74811e-06 0)
(0.000939842 -2.48446e-06 0)
(0.000970996 -2.2328e-06 0)
(0.000998893 -1.9981e-06 0)
(0.00102373 -1.78425e-06 0)
(0.00104576 -1.59404e-06 0)
(0.00106525 -1.42981e-06 0)
(0.0010825 -1.29327e-06 0)
(0.00109781 -1.18524e-06 0)
(0.00111151 -1.10567e-06 0)
(0.00112389 -1.05364e-06 0)
(0.00113523 -1.02748e-06 0)
(0.0011458 -1.02474e-06 0)
(0.0011558 -1.04219e-06 0)
(0.0011654 -1.07595e-06 0)
(0.00117471 -1.12121e-06 0)
(0.00118376 -1.17323e-06 0)
(0.00119252 -1.22506e-06 0)
(0.00120086 -1.27269e-06 0)
(0.00120859 -1.30633e-06 0)
(0.00121538 -1.32175e-06 0)
(0.00122086 -1.31e-06 0)
(0.00122451 -1.26512e-06 0)
(0.00122574 -1.17976e-06 0)
(0.00122385 -1.04632e-06 0)
(0.00121804 -8.5786e-07 0)
(0.00120741 -6.07629e-07 0)
(0.00119098 -2.88985e-07 0)
(0.00116764 1.04887e-07 0)
(0.00113622 5.80907e-07 0)
(0.00109543 1.14611e-06 0)
(0.00104389 1.80874e-06 0)
(0.000980109 2.57512e-06 0)
(0.000902498 3.45487e-06 0)
(0.000809358 4.45646e-06 0)
(0.000698885 5.59058e-06 0)
(0.000569163 6.87016e-06 0)
(0.000418165 8.30258e-06 0)
(0.000243766 9.90398e-06 0)
(4.37351e-05 1.16776e-05 0)
(-0.000184235 1.36316e-05 0)
(-0.000442518 1.57812e-05 0)
(-0.000733538 1.81365e-05 0)
(-0.0010597 2.07e-05 0)
(-0.0014234 2.3476e-05 0)
(-0.00182694 2.64656e-05 0)
(-0.00227255 2.96669e-05 0)
(-0.00276224 3.30737e-05 0)
(-0.00329786 3.66758e-05 0)
(-0.00388092 4.04584e-05 0)
(-0.00451262 4.44016e-05 0)
(-0.00519377 4.84803e-05 0)
(-0.00592469 5.26641e-05 0)
(-0.0067052 5.69167e-05 0)
(-0.00753454 6.11965e-05 0)
(-0.00841133 6.54566e-05 0)
(-0.00933352 6.96448e-05 0)
(-0.0102984 7.37041e-05 0)
(-0.0113024 7.75732e-05 0)
(-0.0123413 8.11869e-05 0)
(-0.0134101 8.44765e-05 0)
(-0.0145031 8.73705e-05 0)
(-0.0156136 8.97951e-05 0)
(-0.0167343 9.16747e-05 0)
(-0.0178572 9.29325e-05 0)
(-0.0189734 9.34913e-05 0)
(-0.0200735 9.32735e-05 0)
(-0.0211471 9.22026e-05 0)
(-0.0221835 9.02036e-05 0)
(-0.0231713 8.72043e-05 0)
(-0.0240986 8.3137e-05 0)
(-0.0249529 7.7939e-05 0)
(-0.0257216 7.15603e-05 0)
(-0.0263919 6.39815e-05 0)
(-0.0269493 5.486e-05 0)
(-0.0273823 4.47259e-05 0)
(-0.0276772 3.34732e-05 0)
(-0.0278246 2.0391e-05 0)
(-0.0278131 6.77611e-06 0)
(-0.0276297 -7.911e-06 0)
(-0.0272693 -2.37023e-05 0)
(-0.0267251 -4.0151e-05 0)
(-0.0259944 -5.69526e-05 0)
(-0.0250776 -7.37902e-05 0)
(-0.0239789 -9.03023e-05 0)
(-0.0227066 -0.000106059 0)
(-0.0212734 -0.000120591 0)
(-0.0196968 -0.000133412 0)
(-0.0179989 -0.000144043 0)
(-0.0162063 -0.000152039 0)
(-0.0143495 -0.000157023 0)
(-0.0124621 -0.000158718 0)
(-0.0105798 -0.000156973 0)
(-0.00873881 -0.000151791 0)
(-0.00697477 -0.00014334 0)
(-0.00532079 -0.000131949 0)
(-0.00380616 -0.000118096 0)
(-0.00245495 -0.000102378 0)
(-0.001285 -8.54635e-05 0)
(-0.000307267 -6.80499e-05 0)
(0.000474296 -5.08229e-05 0)
(0.00106249 -3.43579e-05 0)
(0.0014661 -1.91333e-05 0)
(0.00169899 -5.53009e-06 0)
(0.00177889 6.21309e-06 0)
(0.00172602 1.6049e-05 0)
(0.00156328 2.38198e-05 0)
(0.00131442 2.95156e-05 0)
(0.0010065 3.28492e-05 0)
(0.000671046 3.31072e-05 0)
(0.000348125 2.91343e-05 0)
(9.60608e-05 1.7734e-05 0)
(-1.04982e-05 -3.8402e-06 0)
(-5.20069e-06 6.22434e-06 0)
(-1.58533e-05 3.60424e-06 0)
(-9.36425e-06 -4.61147e-06 0)
(2.10414e-05 -1.42564e-05 0)
(7.68955e-05 -2.37209e-05 0)
(0.000156817 -3.23396e-05 0)
(0.000258348 -3.98578e-05 0)
(0.000378552 -4.61936e-05 0)
(0.00051432 -5.13419e-05 0)
(0.000662536 -5.53345e-05 0)
(0.000820165 -5.82239e-05 0)
(0.000984308 -6.00758e-05 0)
(0.00115224 -6.09663e-05 0)
(0.00132146 -6.09789e-05 0)
(0.00148967 -6.0204e-05 0)
(0.00165484 -5.87366e-05 0)
(0.00181519 -5.66753e-05 0)
(0.00196922 -5.41201e-05 0)
(0.00211568 -5.11711e-05 0)
(0.00225361 -4.79262e-05 0)
(0.00238229 -4.44802e-05 0)
(0.00250127 -4.09226e-05 0)
(0.00261033 -3.73366e-05 0)
(0.00270947 -3.37978e-05 0)
(0.00279886 -3.03743e-05 0)
(0.00287887 -2.71255e-05 0)
(0.00295001 -2.41005e-05 0)
(0.00301291 -2.13372e-05 0)
(0.00306827 -1.88637e-05 0)
(0.00311688 -1.6698e-05 0)
(0.00315955 -1.48472e-05 0)
(0.00319709 -1.33076e-05 0)
(0.00323029 -1.20647e-05 0)
(0.00325986 -1.10935e-05 0)
(0.00328646 -1.0358e-05 0)
(0.00331059 -9.81227e-06 0)
(0.00333265 -9.40023e-06 0)
(0.00335282 -9.05618e-06 0)
(0.00337113 -8.7075e-06 0)
(0.00338734 -8.26951e-06 0)
(0.00340101 -7.66035e-06 0)
(0.00341143 -6.77673e-06 0)
(0.0034176 -5.5279e-06 0)
(0.00341825 -3.8073e-06 0)
(0.00341184 -1.52106e-06 0)
(0.00339649 1.44491e-06 0)
(0.00337006 5.18795e-06 0)
(0.00333012 9.81076e-06 0)
(0.00327393 1.54149e-05 0)
(0.00319846 2.21001e-05 0)
(0.00310041 2.99662e-05 0)
(0.0029762 3.91133e-05 0)
(0.00282194 4.96425e-05 0)
(0.00263347 6.16596e-05 0)
(0.00240634 7.5265e-05 0)
(0.00213578 9.05713e-05 0)
(0.00181677 0.000107689 0)
(0.00144395 0.00012673 0)
(0.00101171 0.000147839 0)
(0.000514146 0.000171059 0)
(-5.48469e-05 0.000196484 0)
(-0.000701669 0.00022426 0)
(-0.00143297 0.000254463 0)
(-0.00225532 0.000287111 0)
(-0.00317532 0.000322219 0)
(-0.00419953 0.000359773 0)
(-0.00533432 0.000399723 0)
(-0.00658574 0.000441966 0)
(-0.00795936 0.000486351 0)
(-0.00946014 0.000532672 0)
(-0.0110922 0.000580662 0)
(-0.0128589 0.000629995 0)
(-0.0147623 0.000680284 0)
(-0.0168031 0.00073108 0)
(-0.0189809 0.000781873 0)
(-0.0212934 0.000832097 0)
(-0.0237367 0.000881133 0)
(-0.0263052 0.000928317 0)
(-0.028991 0.000972941 0)
(-0.0317847 0.00101427 0)
(-0.0346744 0.00105154 0)
(-0.0376464 0.00108397 0)
(-0.040685 0.00111078 0)
(-0.0437722 0.00113117 0)
(-0.0468882 0.00114438 0)
(-0.0500112 0.00114962 0)
(-0.0531177 0.00114616 0)
(-0.0561822 0.00113327 0)
(-0.0591779 0.00111026 0)
(-0.0620762 0.00107649 0)
(-0.0648473 0.00103137 0)
(-0.0674603 0.00097435 0)
(-0.0698833 0.000904982 0)
(-0.0720835 0.0008229 0)
(-0.0740279 0.000727848 0)
(-0.0756834 0.000619606 0)
(-0.077015 0.000497638 0)
(-0.0779973 0.000362068 0)
(-0.0785823 0.000215827 0)
(-0.0787643 6.09319e-05 0)
(-0.0785102 -0.000108167 0)
(-0.0777922 -0.000285108 0)
(-0.0765977 -0.000468751 0)
(-0.0749151 -0.000656614 0)
(-0.0727408 -0.000845393 0)
(-0.0700801 -0.00103157 0)
(-0.0669475 -0.0012113 0)
(-0.0633677 -0.00138028 0)
(-0.0593764 -0.0015339 0)
(-0.0550206 -0.00166747 0)
(-0.0503585 -0.00177643 0)
(-0.0454593 -0.00185658 0)
(-0.0404011 -0.00190443 0)
(-0.0352698 -0.00191739 0)
(-0.0301559 -0.00189409 0)
(-0.0251518 -0.00183455 0)
(-0.0203482 -0.00174034 0)
(-0.0158301 -0.00161454 0)
(-0.0116734 -0.00146167 0)
(-0.00794184 -0.00128746 0)
(-0.00468377 -0.00109847 0)
(-0.0019308 -0.000901664 0)
(0.000303045 -0.000704027 0)
(0.00202093 -0.000511954 0)
(0.00324203 -0.000331145 0)
(0.00399906 -0.000166112 0)
(0.00433605 -2.03114e-05 0)
(0.00430505 0.000103818 0)
(0.00396728 0.00020398 0)
(0.00338638 0.000278423 0)
(0.00263749 0.000323068 0)
(0.00180624 0.000331434 0)
(0.000996614 0.000292938 0)
(0.000346461 0.000192167 0)
(1.11097e-05 4.04012e-05 0)
(-5.36611e-06 1.13815e-05 0)
(-1.19422e-05 3.06129e-06 0)
(8.44017e-06 -1.80946e-05 0)
(6.44256e-05 -4.31233e-05 0)
(0.000158538 -6.80408e-05 0)
(0.000289207 -9.10256e-05 0)
(0.000453058 -0.000111279 0)
(0.00064583 -0.000128481 0)
(0.000862875 -0.000142548 0)
(0.00109945 -0.00015352 0)
(0.00135086 -0.000161508 0)
(0.00161262 -0.000166674 0)
(0.00188046 -0.00016921 0)
(0.00215043 -0.000169336 0)
(0.00241894 -0.000167292 0)
(0.00268275 -0.000163334 0)
(0.00293904 -0.000157728 0)
(0.0031854 -0.000150745 0)
(0.00341984 -0.000142654 0)
(0.0036408 -0.000133724 0)
(0.0038471 -0.000124211 0)
(0.00403796 -0.000114359 0)
(0.00421299 -0.000104395 0)
(0.00437211 -9.45261e-05 0)
(0.00451557 -8.49368e-05 0)
(0.00464387 -7.57875e-05 0)
(0.00475773 -6.72114e-05 0)
(0.00485808 -5.93134e-05 0)
(0.00494598 -5.21699e-05 0)
(0.00502259 -4.58282e-05 0)
(0.0050891 -4.03058e-05 0)
(0.00514672 -3.55899e-05 0)
(0.00519659 -3.16375e-05 0)
(0.00523977 -2.83756e-05 0)
(0.00527716 -2.57017e-05 0)
(0.00530948 -2.34845e-05 0)
(0.0053372 -2.15646e-05 0)
(0.00536053 -1.9756e-05 0)
(0.00537932 -1.78516e-05 0)
(0.0053931 -1.56153e-05 0)
(0.00540098 -1.28063e-05 0)
(0.00540165 -9.14296e-06 0)
(0.00539339 -4.36722e-06 0)
(0.00537395 1.83072e-06 0)
(0.00534066 9.7268e-06 0)
(0.00529036 1.96232e-05 0)
(0.00521939 3.18104e-05 0)
(0.00512362 4.65813e-05 0)
(0.00499844 6.42264e-05 0)
(0.00483876 8.50326e-05 0)
(0.00463903 0.000109285 0)
(0.00439321 0.00013727 0)
(0.00409483 0.000169273 0)
(0.00373691 0.000205588 0)
(0.00331205 0.000246502 0)
(0.00281234 0.00029232 0)
(0.00222946 0.00034338 0)
(0.00155464 0.000399883 0)
(0.000778747 0.000462079 0)
(-0.000107838 0.000530345 0)
(-0.00111531 0.000604968 0)
(-0.00225374 0.00068608 0)
(-0.00353341 0.00077379 0)
(-0.00496473 0.000868154 0)
(-0.00655799 0.000969154 0)
(-0.0083232 0.00107667 0)
(-0.0102699 0.00119044 0)
(-0.0124069 0.00131009 0)
(-0.0147421 0.00143509 0)
(-0.0172823 0.00156473 0)
(-0.0200326 0.00169817 0)
(-0.0229967 0.00183438 0)
(-0.026176 0.00197218 0)
(-0.02957 0.00211021 0)
(-0.0331755 0.00224696 0)
(-0.0369866 0.00238078 0)
(-0.0409949 0.00250991 0)
(-0.0451885 0.00263244 0)
(-0.0495528 0.00274642 0)
(-0.05407 0.00284981 0)
(-0.0587189 0.00294056 0)
(-0.0634754 0.00301659 0)
(-0.0683122 0.00307582 0)
(-0.073199 0.00311624 0)
(-0.0781028 0.00313585 0)
(-0.0829877 0.00313275 0)
(-0.0878156 0.00310513 0)
(-0.092546 0.00305127 0)
(-0.0971361 0.00296958 0)
(-0.101542 0.00285861 0)
(-0.105717 0.00271706 0)
(-0.109615 0.00254385 0)
(-0.113187 0.00233811 0)
(-0.116386 0.00209922 0)
(-0.119162 0.00182689 0)
(-0.121469 0.00152109 0)
(-0.123257 0.00118167 0)
(-0.124492 0.000805293 0)
(-0.125099 0.000412405 0)
(-0.125092 -1.64979e-05 0)
(-0.1244 -0.000467927 0)
(-0.123007 -0.000939995 0)
(-0.120892 -0.00142613 0)
(-0.118045 -0.00191999 0)
(-0.114466 -0.00241321 0)
(-0.110166 -0.00289677 0)
(-0.105173 -0.00336095 0)
(-0.0995245 -0.00379503 0)
(-0.0932776 -0.00418763 0)
(-0.0865028 -0.00452724 0)
(-0.0792868 -0.00480271 0)
(-0.0717307 -0.00500387 0)
(-0.0639485 -0.00512217 0)
(-0.0560647 -0.00515132 0)
(-0.0482104 -0.00508794 0)
(-0.0405196 -0.004932 0)
(-0.033124 -0.00468718 0)
(-0.0261484 -0.00436088 0)
(-0.0197053 -0.00396408 0)
(-0.0138903 -0.00351076 0)
(-0.00877809 -0.00301713 0)
(-0.00441978 -0.00250068 0)
(-0.000841268 -0.00197904 0)
(0.00195668 -0.00146894 0)
(0.00399708 -0.000985292 0)
(0.00532408 -0.00054059 0)
(0.00600001 -0.000144771 0)
(0.00610101 0.000194519 0)
(0.00571814 0.000470241 0)
(0.00494921 0.000676636 0)
(0.0039094 0.000802683 0)
(0.00272899 0.000833056 0)
(0.00156085 0.000744981 0)
(0.000597117 0.000511451 0)
(4.35244e-05 0.000154791 0)
(-4.49014e-06 1.45403e-05 0)
(-1.91168e-06 -3.34624e-06 0)
(3.70719e-05 -4.26536e-05 0)
(0.000121647 -8.88994e-05 0)
(0.000254798 -0.000135275 0)
(0.000434886 -0.000178398 0)
(0.00065791 -0.000216654 0)
(0.000918609 -0.000249323 0)
(0.00121111 -0.000276158 0)
(0.0015293 -0.000297171 0)
(0.00186712 -0.000312534 0)
(0.00221867 -0.000322521 0)
(0.00257835 -0.000327483 0)
(0.00294094 -0.000327825 0)
(0.00330165 -0.000323996 0)
(0.0036562 -0.000316478 0)
(0.00400081 -0.000305773 0)
(0.00433224 -0.000292394 0)
(0.00464781 -0.000276855 0)
(0.00494538 -0.000259664 0)
(0.00522335 -0.000241309 0)
(0.00548061 -0.000222256 0)
(0.00571656 -0.000202939 0)
(0.00593104 -0.000183751 0)
(0.00612428 -0.000165045 0)
(0.00629687 -0.000147126 0)
(0.0064497 -0.000130247 0)
(0.0065839 -0.000114609 0)
(0.00670078 -0.000100355 0)
(0.00680179 -8.75735e-05 0)
(0.0068884 -7.62942e-05 0)
(0.00696211 -6.64882e-05 0)
(0.00702432 -5.80679e-05 0)
(0.0070763 -5.08876e-05 0)
(0.00711913 -4.47436e-05 0)
(0.00715361 -3.93762e-05 0)
(0.0071802 -3.44712e-05 0)
(0.00719899 -2.96624e-05 0)
(0.00720962 -2.45408e-05 0)
(0.00721124 -1.86434e-05 0)
(0.00720248 -1.1502e-05 0)
(0.00718132 -2.55476e-06 0)
(0.0071452 8.72081e-06 0)
(0.00709089 2.29008e-05 0)
(0.00701453 4.05555e-05 0)
(0.00691157 6.22704e-05 0)
(0.00677681 8.86254e-05 0)
(0.00660438 0.0001202 0)
(0.00638774 0.000157569 0)
(0.00611969 0.000201301 0)
(0.0057924 0.000251961 0)
(0.00539738 0.000310112 0)
(0.00492552 0.000376316 0)
(0.00436705 0.000451143 0)
(0.00371161 0.000535163 0)
(0.00294821 0.000628959 0)
(0.00206539 0.00073292 0)
(0.00105102 0.000847755 0)
(-0.000107804 0.000974039 0)
(-0.00142411 0.00111219 0)
(-0.00291124 0.00126254 0)
(-0.00458291 0.0014254 0)
(-0.00645286 0.00160093 0)
(-0.00853475 0.00178915 0)
(-0.0108419 0.00198988 0)
(-0.013387 0.00220274 0)
(-0.016182 0.00242707 0)
(-0.0192374 0.00266197 0)
(-0.0225625 0.00290624 0)
(-0.0261644 0.00315833 0)
(-0.0300483 0.00341643 0)
(-0.0342165 0.00367836 0)
(-0.0386686 0.00394166 0)
(-0.0434008 0.00420354 0)
(-0.048406 0.00446094 0)
(-0.0536731 0.00471057 0)
(-0.0591872 0.0049489 0)
(-0.0649293 0.00517225 0)
(-0.0708763 0.00537682 0)
(-0.077001 0.00555875 0)
(-0.083272 0.00571413 0)
(-0.089654 0.00583911 0)
(-0.0961079 0.00592991 0)
(-0.102591 0.00598287 0)
(-0.109058 0.00599447 0)
(-0.115459 0.0059614 0)
(-0.121743 0.00588057 0)
(-0.127856 0.00574913 0)
(-0.133741 0.00556451 0)
(-0.139343 0.00532444 0)
(-0.144601 0.00502701 0)
(-0.149457 0.00467068 0)
(-0.15385 0.00425437 0)
(-0.157722 0.00377751 0)
(-0.161014 0.00324011 0)
(-0.163668 0.00264281 0)
(-0.165629 0.00198669 0)
(-0.166852 0.00127086 0)
(-0.167276 0.000510688 0)
(-0.166875 -0.000295403 0)
(-0.165603 -0.00114514 0)
(-0.163436 -0.00202686 0)
(-0.160356 -0.00292994 0)
(-0.156356 -0.00384261 0)
(-0.151441 -0.00474986 0)
(-0.145632 -0.00563545 0)
(-0.138967 -0.00648203 0)
(-0.131497 -0.00727068 0)
(-0.123294 -0.00798143 0)
(-0.114448 -0.00859415 0)
(-0.105065 -0.00908939 0)
(-0.0952701 -0.00944942 0)
(-0.0852018 -0.00965928 0)
(-0.0750116 -0.0097079 0)
(-0.0648593 -0.00958918 0)
(-0.0549082 -0.00930282 0)
(-0.0453202 -0.00885489 0)
(-0.0362495 -0.00825804 0)
(-0.027837 -0.00753116 0)
(-0.0202043 -0.00669863 0)
(-0.013449 -0.00578902 0)
(-0.00764045 -0.00483343 0)
(-0.00281807 -0.00386371 0)
(0.00100989 -0.0029105 0)
(0.00386515 -0.00200165 0)
(0.00579693 -0.00116112 0)
(0.00687877 -0.000408519 0)
(0.00720462 0.000240079 0)
(0.00688667 0.000771162 0)
(0.00605233 0.00117092 0)
(0.00484782 0.0014201 0)
(0.00343935 0.00149216 0)
(0.0020167 0.00135095 0)
(0.000812119 0.000958147 0)
(7.27811e-05 0.000337104 0)
(-3.16232e-06 1.46829e-05 0)
(1.18143e-05 -1.77661e-05 0)
(7.26638e-05 -7.98322e-05 0)
(0.000188006 -0.00015205 0)
(0.000360738 -0.00022469 0)
(0.000589101 -0.000292596 0)
(0.000868603 -0.000353142 0)
(0.0011932 -0.00040507 0)
(0.00155603 -0.000447877 0)
(0.00194986 -0.000481501 0)
(0.00236745 -0.000506159 0)
(0.0028017 -0.000522248 0)
(0.00324584 -0.000530298 0)
(0.00369354 -0.000530939 0)
(0.00413896 -0.000524874 0)
(0.00457685 -0.000512861 0)
(0.00500259 -0.000495696 0)
(0.00541219 -0.000474194 0)
(0.00580233 -0.000449173 0)
(0.00617032 -0.000421439 0)
(0.00651415 -0.000391774 0)
(0.00683241 -0.000360919 0)
(0.00712427 -0.000329564 0)
(0.00738943 -0.00029834 0)
(0.0076281 -0.00026781 0)
(0.00784089 -0.000238458 0)
(0.00802879 -0.000210689 0)
(0.00819306 -0.000184821 0)
(0.00833519 -0.000161081 0)
(0.00845681 -0.000139604 0)
(0.00855961 -0.000120434 0)
(0.00864525 -0.000103517 0)
(0.00871532 -8.87033e-05 0)
(0.0087712 -7.57506e-05 0)
(0.00881402 -6.43206e-05 0)
(0.00884457 -5.39842e-05 0)
(0.00886323 -4.42232e-05 0)
(0.00886988 -3.44338e-05 0)
(0.00886383 -2.39485e-05 0)
(0.0088438 -1.20088e-05 0)
(0.00880777 2.19386e-06 0)
(0.00875302 1.95276e-05 0)
(0.00867608 4.08832e-05 0)
(0.00857264 6.72007e-05 0)
(0.00843757 9.94255e-05 0)
(0.00826492 0.00013852 0)
(0.00804786 0.000185445 0)
(0.00777874 0.000241157 0)
(0.00744906 0.000306607 0)
(0.00704949 0.000382734 0)
(0.00656987 0.00047047 0)
(0.00599924 0.000570739 0)
(0.00532584 0.000684465 0)
(0.00453714 0.000812586 0)
(0.00361989 0.000955929 0)
(0.00256012 0.00111538 0)
(0.00134295 0.00129196 0)
(-4.6964e-05 0.00148646 0)
(-0.00162546 0.00169959 0)
(-0.00340893 0.00193204 0)
(-0.00541399 0.00218435 0)
(-0.00765744 0.00245685 0)
(-0.010156 0.00274965 0)
(-0.0129259 0.0030626 0)
(-0.0159829 0.00339521 0)
(-0.0193416 0.00374663 0)
(-0.0230154 0.00411556 0)
(-0.0270155 0.00450028 0)
(-0.0313514 0.00489853 0)
(-0.0360294 0.00530758 0)
(-0.0410532 0.00572416 0)
(-0.0464224 0.0061445 0)
(-0.0521332 0.00656433 0)
(-0.0581772 0.00697892 0)
(-0.0645415 0.00738313 0)
(-0.0712085 0.00777146 0)
(-0.0781556 0.00813812 0)
(-0.085355 0.00847715 0)
(-0.0927743 0.00878242 0)
(-0.100376 0.0090478 0)
(-0.108117 0.00926722 0)
(-0.115952 0.00943473 0)
(-0.12383 0.00954458 0)
(-0.131696 0.00959133 0)
(-0.139491 0.00956985 0)
(-0.147157 0.00947538 0)
(-0.154628 0.00930362 0)
(-0.161841 0.00905069 0)
(-0.168728 0.00871325 0)
(-0.175223 0.00828846 0)
(-0.181258 0.00777409 0)
(-0.186764 0.00716854 0)
(-0.191675 0.00647095 0)
(-0.195925 0.00568122 0)
(-0.199451 0.00480021 0)
(-0.20219 0.00382974 0)
(-0.204085 0.00277257 0)
(-0.205088 0.0016312 0)
(-0.205144 0.000421941 0)
(-0.204216 -0.000852973 0)
(-0.202267 -0.00218692 0)
(-0.199277 -0.00356325 0)
(-0.195232 -0.00496623 0)
(-0.190129 -0.0063777 0)
(-0.183983 -0.00777526 0)
(-0.176821 -0.00913444 0)
(-0.168689 -0.0104294 0)
(-0.15965 -0.0116321 0)
(-0.149788 -0.0127132 0)
(-0.139203 -0.0136431 0)
(-0.128016 -0.0143931 0)
(-0.116366 -0.0149371 0)
(-0.104409 -0.0152529 0)
(-0.0923122 -0.015324 0)
(-0.0802546 -0.0151408 0)
(-0.0684196 -0.0147024 0)
(-0.0569899 -0.0140171 0)
(-0.0461416 -0.0131026 0)
(-0.0360374 -0.0119864 0)
(-0.0268203 -0.0107042 0)
(-0.0186078 -0.00929818 0)
(-0.0114872 -0.00781503 0)
(-0.00551237 -0.00630303 0)
(-0.000701852 -0.00480937 0)
(0.00296051 -0.00337775 0)
(0.00552384 -0.00204651 0)
(0.00706712 -0.000847968 0)
(0.00769545 0.000190879 0)
(0.00753709 0.00104675 0)
(0.00674139 0.00169616 0)
(0.00547925 0.00210955 0)
(0.00394496 0.00224808 0)
(0.00235652 0.00206192 0)
(0.000978226 0.00150031 0)
(9.53445e-05 0.000573806 0)
(-1.63467e-06 1.07898e-05 0)
(2.76153e-05 -4.15477e-05 0)
(0.000112413 -0.000130716 0)
(0.000259948 -0.000233022 0)
(0.000472501 -0.000335939 0)
(0.000748042 -0.000432473 0)
(0.00108162 -0.000518872 0)
(0.00146655 -0.000593224 0)
(0.00189515 -0.000654693 0)
(0.00235925 -0.000703099 0)
(0.00285061 -0.000738674 0)
(0.0033611 -0.000761941 0)
(0.00388293 -0.000773624 0)
(0.0044088 -0.000774602 0)
(0.00493194 -0.00076587 0)
(0.00544627 -0.000748504 0)
(0.00594637 -0.000723641 0)
(0.00642758 -0.000692446 0)
(0.006886 -0.000656092 0)
(0.00731844 -0.000615736 0)
(0.0077225 -0.000572498 0)
(0.00809644 -0.000527444 0)
(0.00843922 -0.000481567 0)
(0.00875039 -0.000435773 0)
(0.00903009 -0.000390868 0)
(0.0092789 -0.000347551 0)
(0.00949785 -0.0003064 0)
(0.00968828 -0.000267869 0)
(0.00985178 -0.000232281 0)
(0.00999008 -0.000199825 0)
(0.010105 -0.000170552 0)
(0.0101983 -0.000144376 0)
(0.0102716 -0.000121068 0)
(0.0103264 -0.000100263 0)
(0.0103637 -8.14554e-05 0)
(0.0103843 -6.40068e-05 0)
(0.0103883 -4.71476e-05 0)
(0.0103753 -2.9986e-05 0)
(0.0103442 -1.15204e-05 0)
(0.0102932 9.36365e-06 0)
(0.0102196 3.38649e-05 0)
(0.0101198 6.32659e-05 0)
(0.00998954 9.88951e-05 0)
(0.00982319 0.00014214 0)
(0.00961437 0.000194408 0)
(0.00935563 0.000257127 0)
(0.00903851 0.000331725 0)
(0.00865351 0.000419625 0)
(0.00819014 0.000522239 0)
(0.00763689 0.000640963 0)
(0.00698129 0.000777177 0)
(0.00620987 0.000932244 0)
(0.00530827 0.00110752 0)
(0.00426123 0.00130429 0)
(0.00305253 0.00152393 0)
(0.00166518 0.00176771 0)
(8.1456e-05 0.00203682 0)
(-0.00171708 0.00233244 0)
(-0.00374935 0.00265557 0)
(-0.00603469 0.00300705 0)
(-0.0085926 0.00338749 0)
(-0.0114425 0.00379719 0)
(-0.0146036 0.00423609 0)
(-0.0180941 0.00470369 0)
(-0.0219314 0.00519897 0)
(-0.0261312 0.00572034 0)
(-0.0307071 0.00626557 0)
(-0.0356704 0.00683172 0)
(-0.0410291 0.00741512 0)
(-0.0467877 0.00801137 0)
(-0.0529467 0.00861529 0)
(-0.0595021 0.00922098 0)
(-0.0664446 0.00982188 0)
(-0.0737601 0.0104108 0)
(-0.0814284 0.0109799 0)
(-0.089424 0.0115212 0)
(-0.0977152 0.0120259 0)
(-0.106265 0.0124856 0)
(-0.11503 0.0128914 0)
(-0.123962 0.0132347 0)
(-0.133009 0.013507 0)
(-0.142111 0.0137001 0)
(-0.151208 0.0138063 0)
(-0.160233 0.0138184 0)
(-0.169119 0.0137299 0)
(-0.177794 0.0135346 0)
(-0.186187 0.0132275 0)
(-0.194224 0.012804 0)
(-0.201832 0.0122603 0)
(-0.208935 0.0115934 0)
(-0.215461 0.0108015 0)
(-0.221339 0.00988321 0)
(-0.226498 0.00883856 0)
(-0.23087 0.00766853 0)
(-0.234392 0.00637537 0)
(-0.237001 0.00496275 0)
(-0.238643 0.00343586 0)
(-0.239268 0.00180114 0)
(-0.238831 7.51907e-05 0)
(-0.237292 -0.00173458 0)
(-0.234624 -0.0036157 0)
(-0.230811 -0.00554718 0)
(-0.225844 -0.00750751 0)
(-0.219728 -0.00947184 0)
(-0.212483 -0.0114102 0)
(-0.204143 -0.0132897 0)
(-0.19476 -0.0150755 0)
(-0.184406 -0.0167304 0)
(-0.173169 -0.0182155 0)
(-0.161157 -0.0194912 0)
(-0.148499 -0.0205194 0)
(-0.135341 -0.0212652 0)
(-0.121846 -0.0216987 0)
(-0.108194 -0.0217972 0)
(-0.0945725 -0.0215472 0)
(-0.0811786 -0.0209461 0)
(-0.0682089 -0.0200039 0)
(-0.0558553 -0.0187431 0)
(-0.0442975 -0.0171993 0)
(-0.0336963 -0.0154195 0)
(-0.0241873 -0.0134602 0)
(-0.0158748 -0.0113845 0)
(-0.00882793 -0.00925859 0)
(-0.00307789 -0.00714812 0)
(0.00138267 -0.00511486 0)
(0.00459852 -0.00321413 0)
(0.0066493 -0.00149359 0)
(0.007646 6.19991e-06 0)
(0.00772762 0.00124959 0)
(0.00705955 0.00220132 0)
(0.00583136 0.0028201 0)
(0.00425903 0.00305393 0)
(0.00258269 0.00283879 0)
(0.00109335 0.00210899 0)
(0.000110946 0.000849708 0)
(-6.01865e-08 2.53253e-06 0)
(4.43748e-05 -7.54201e-05 0)
(0.000154274 -0.000195975 0)
(0.000334763 -0.000332111 0)
(0.000587043 -0.000468784 0)
(0.00090863 -0.000597211 0)
(0.00129409 -0.00071246 0)
(0.00173613 -0.000811899 0)
(0.00222639 -0.000894296 0)
(0.00275592 -0.000959304 0)
(0.00331559 -0.00100715 0)
(0.00389642 -0.00103848 0)
(0.00448973 -0.00105422 0)
(0.00508735 -0.00105551 0)
(0.00568172 -0.00104367 0)
(0.00626598 -0.00102013 0)
(0.00683404 -0.000986407 0)
(0.00738064 -0.000944055 0)
(0.00790131 -0.000894645 0)
(0.00839244 -0.000839728 0)
(0.00885122 -0.000780806 0)
(0.00927564 -0.000719308 0)
(0.00966441 -0.000656566 0)
(0.0100169 -0.000593796 0)
(0.0103332 -0.00053208 0)
(0.0106138 -0.000472352 0)
(0.0108597 -0.000415387 0)
(0.0110723 -0.000361789 0)
(0.0112531 -0.000311984 0)
(0.0114041 -0.000266216 0)
(0.0115269 -0.000224542 0)
(0.0116235 -0.00018683 0)
(0.0116954 -0.000152753 0)
(0.0117441 -0.000121799 0)
(0.0117704 -9.32617e-05 0)
(0.0117749 -6.62528e-05 0)
(0.0117576 -3.97049e-05 0)
(0.0117175 -1.23823e-05 0)
(0.0116532 1.71047e-05 0)
(0.0115621 5.02962e-05 0)
(0.011441 8.88528e-05 0)
(0.0112852 0.000134545 0)
(0.0110895 0.000189217 0)
(0.0108469 0.000254787 0)
(0.0105499 0.000333207 0)
(0.0101894 0.000426456 0)
(0.00975519 0.000536514 0)
(0.00923597 0.000665356 0)
(0.00861919 0.000814938 0)
(0.00789117 0.000987189 0)
(0.00703708 0.00118402 0)
(0.00604101 0.00140729 0)
(0.00488596 0.00165886 0)
(0.00355394 0.00194052 0)
(0.00202599 0.00225402 0)
(0.000282234 0.00260107 0)
(-0.00169792 0.00298325 0)
(-0.00393574 0.00340201 0)
(-0.00645294 0.00385858 0)
(-0.00927149 0.00435389 0)
(-0.0124134 0.00488853 0)
(-0.0159001 0.00546264 0)
(-0.0197527 0.0060758 0)
(-0.0239908 0.00672692 0)
(-0.0286325 0.00741421 0)
(-0.0336936 0.00813501 0)
(-0.0391872 0.00888576 0)
(-0.0451229 0.00966191 0)
(-0.0515066 0.0104579 0)
(-0.0583394 0.0112672 0)
(-0.0656173 0.0120822 0)
(-0.0733308 0.0128944 0)
(-0.0814645 0.0136944 0)
(-0.0899965 0.0144719 0)
(-0.0988985 0.0152163 0)
(-0.108136 0.0159161 0)
(-0.117667 0.0165599 0)
(-0.127444 0.0171359 0)
(-0.137414 0.0176325 0)
(-0.147518 0.0180385 0)
(-0.157691 0.0183429 0)
(-0.167866 0.0185356 0)
(-0.17797 0.0186069 0)
(-0.187929 0.0185482 0)
(-0.197667 0.0183517 0)
(-0.207104 0.0180108 0)
(-0.216162 0.0175197 0)
(-0.224763 0.0168737 0)
(-0.232828 0.0160693 0)
(-0.240281 0.015104 0)
(-0.247047 0.0139767 0)
(-0.253055 0.0126872 0)
(-0.258234 0.0112368 0)
(-0.262519 0.00962816 0)
(-0.265849 0.00786555 0)
(-0.268167 0.005955 0)
(-0.269421 0.00390459 0)
(-0.269569 0.00172461 0)
(-0.268568 -0.000567258 0)
(-0.266388 -0.00295797 0)
(-0.263008 -0.00542944 0)
(-0.258414 -0.00795622 0)
(-0.252607 -0.0105108 0)
(-0.245595 -0.0130618 0)
(-0.237406 -0.015572 0)
(-0.228075 -0.0180001 0)
(-0.21766 -0.0203027 0)
(-0.206234 -0.0224335 0)
(-0.193889 -0.0243438 0)
(-0.180734 -0.0259846 0)
(-0.1669 -0.0273082 0)
(-0.152536 -0.0282705 0)
(-0.137808 -0.0288336 0)
(-0.122899 -0.0289678 0)
(-0.108003 -0.028655 0)
(-0.0933235 -0.0278903 0)
(-0.0790665 -0.0266841 0)
(-0.0654353 -0.0250629 0)
(-0.0526231 -0.0230697 0)
(-0.0408059 -0.0207621 0)
(-0.0301355 -0.0182109 0)
(-0.0207327 -0.0154959 0)
(-0.0126826 -0.012702 0)
(-0.00603047 -0.00991463 0)
(-0.000780326 -0.00721555 0)
(0.00310497 -0.00467918 0)
(0.00570178 -0.00237097 0)
(0.00712264 -0.000347549 0)
(0.00751297 0.00134068 0)
(0.00704827 0.00264498 0)
(0.00593263 0.00351053 0)
(0.00439829 0.00387141 0)
(0.00270311 0.00364845 0)
(0.00116049 0.00275797 0)
(0.00012031 0.00115068 0)
(1.47328e-06 -1.02014e-05 0)
(6.13467e-05 -0.000119703 0)
(0.00019678 -0.000275916 0)
(0.000410411 -0.000449377 0)
(0.000702006 -0.00062289 0)
(0.00106842 -0.000786011 0)
(0.00150366 -0.000932642 0)
(0.00199988 -0.0010594 0)
(0.00254807 -0.0011646 0)
(0.0031386 -0.00124772 0)
(0.00376163 -0.00130894 0)
(0.00440738 -0.00134902 0)
(0.00506642 -0.0013691 0)
(0.00572984 -0.0013706 0)
(0.00638936 -0.00135519 0)
(0.00703747 -0.00132467 0)
(0.00766745 -0.00128097 0)
(0.00827349 -0.00122608 0)
(0.00885065 -0.00116199 0)
(0.00939489 -0.00109069 0)
(0.00990306 -0.00101409 0)
(0.0103728 -0.000934028 0)
(0.0108027 -0.0008522 0)
(0.0111919 -0.000770161 0)
(0.0115404 -0.000689292 0)
(0.0118484 -0.000610784 0)
(0.0121171 -0.000535623 0)
(0.0123477 -0.000464574 0)
(0.0125419 -0.000398171 0)
(0.0127013 -0.000336715 0)
(0.0128279 -0.000280259 0)
(0.0129233 -0.000228612 0)
(0.0129891 -0.000181332 0)
(0.0130266 -0.000137729 0)
(0.0130364 -9.68671e-05 0)
(0.0130189 -5.75661e-05 0)
(0.0129736 -1.84147e-05 0)
(0.0128992 2.22197e-05 0)
(0.0127937 6.61738e-05 0)
(0.0126538 0.000115477 0)
(0.0124754 0.00017232 0)
(0.012253 0.000239035 0)
(0.0119801 0.00031806 0)
(0.0116487 0.000411922 0)
(0.0112496 0.000523199 0)
(0.0107723 0.000654503 0)
(0.0102048 0.000808449 0)
(0.00953385 0.000987641 0)
(0.00874493 0.00119466 0)
(0.00782213 0.00143204 0)
(0.0067483 0.00170228 0)
(0.00550505 0.00200783 0)
(0.00407285 0.00235108 0)
(0.00243104 0.00273434 0)
(0.000557983 0.00315985 0)
(-0.00156889 0.00362971 0)
(-0.00397286 0.00414586 0)
(-0.0066778 0.00471001 0)
(-0.00970788 0.00532352 0)
(-0.0130873 0.00598734 0)
(-0.0168401 0.00670191 0)
(-0.0209894 0.00746699 0)
(-0.0255572 0.00828156 0)
(-0.0305637 0.00914372 0)
(-0.0360271 0.0100505 0)
(-0.0419621 0.0109979 0)
(-0.0483802 0.0119804 0)
(-0.0552884 0.0129916 0)
(-0.0626888 0.0140235 0)
(-0.0705778 0.0150669 0)
(-0.0789459 0.0161112 0)
(-0.0877766 0.0171448 0)
(-0.0970469 0.0181549 0)
(-0.106726 0.019128 0)
(-0.116777 0.0200497 0)
(-0.127155 0.0209054 0)
(-0.137807 0.0216802 0)
(-0.148676 0.0223593 0)
(-0.159699 0.0229282 0)
(-0.170804 0.023373 0)
(-0.181919 0.0236807 0)
(-0.192967 0.0238392 0)
(-0.203867 0.0238376 0)
(-0.214537 0.023666 0)
(-0.224895 0.0233164 0)
(-0.234857 0.0227816 0)
(-0.244342 0.0220562 0)
(-0.253269 0.021136 0)
(-0.26156 0.0200183 0)
(-0.269138 0.018702 0)
(-0.275931 0.017187 0)
(-0.281869 0.0154751 0)
(-0.286889 0.0135695 0)
(-0.290928 0.0114748 0)
(-0.293933 0.00919793 0)
(-0.295852 0.00674752 0)
(-0.29664 0.00413476 0)
(-0.296261 0.00137357 0)
(-0.294682 -0.00151639 0)
(-0.291876 -0.00451684 0)
(-0.28783 -0.00760453 0)
(-0.282536 -0.0107496 0)
(-0.275998 -0.0139188 0)
(-0.26823 -0.0170745 0)
(-0.259261 -0.0201729 0)
(-0.249129 -0.0231648 0)
(-0.237891 -0.0259985 0)
(-0.225621 -0.028619 0)
(-0.212407 -0.0309686 0)
(-0.19836 -0.0329885 0)
(-0.183607 -0.0346216 0)
(-0.168295 -0.0358145 0)
(-0.152589 -0.0365207 0)
(-0.136672 -0.0367032 0)
(-0.120739 -0.0363382 0)
(-0.104997 -0.0354174 0)
(-0.089659 -0.0339506 0)
(-0.0749353 -0.031967 0)
(-0.0610307 -0.0295157 0)
(-0.0481342 -0.0266644 0)
(-0.0364127 -0.0234974 0)
(-0.026003 -0.020111 0)
(-0.0170063 -0.0166094 0)
(-0.00948308 -0.0130986 0)
(-0.0034505 -0.0096818 0)
(0.00111846 -0.00645435 0)
(0.00429384 -0.00350166 0)
(0.00618619 -0.000898752 0)
(0.00694343 0.00128723 0)
(0.00674721 0.00299176 0)
(0.00581172 0.00414533 0)
(0.00438147 0.00466699 0)
(0.00272857 0.00446114 0)
(0.0011849 0.00342328 0)
(0.000124474 0.00146415 0)
(2.91647e-06 -2.73641e-05 0)
(7.80409e-05 -0.000174421 0)
(0.000238897 -0.000370553 0)
(0.000485393 -0.000584662 0)
(0.000815593 -0.000797802 0)
(0.00122551 -0.000998049 0)
(0.0017085 -0.0011782 0)
(0.00225614 -0.00133412 0)
(0.00285883 -0.00146368 0)
(0.00350633 -0.0015661 0)
(0.00418814 -0.00164156 0)
(0.00489382 -0.00169089 0)
(0.0056133 -0.00171546 0)
(0.00633698 -0.00171699 0)
(0.00705598 -0.00169749 0)
(0.00776219 -0.00165918 0)
(0.00844836 -0.00160442 0)
(0.00910819 -0.00153565 0)
(0.00973631 -0.00145534 0)