/*--------------------------------*- C++ -*----------------------------------*\
  =========                 |
  \\      /  F ield         | OpenFOAM: The Open Source CFD Toolbox
   \\    /   O peration     | Website:  https://openfoam.org
    \\  /    A nd           | Version:  12
     \\/     M anipulation  |
\*---------------------------------------------------------------------------*/
FoamFile
{
    format      ascii;
    class       volScalarField;
    location    "0.4";
    object      nut;
}
// * * * * * * * * * * * * * * * * * * * * * * * * * * * * * * * * * * * * * //

dimensions      [0 2 -1 0 0 0 0];

internalField   nonuniform List<scalar> 
900
(
1.11022e-21
1.11022e-21
1.11022e-21
1.11022e-21
1.11022e-21
1.11022e-21
1.11022e-21
1.11022e-21
1.11022e-21
1.11022e-21
1.11022e-21
1.11022e-21
1.11022e-21
1.11022e-21
1.11022e-21
1.11022e-21
1.11022e-21
1.11022e-21
1.11022e-21
1.11022e-21
1.11022e-21
1.11022e-21
1.11022e-21
1.11022e-21
1.11022e-21
1.11022e-21
1.11022e-21
1.11022e-21
1.11022e-21
1.11022e-21
4.44089e-21
5.27714e-21
5.34031e-21
5.3455e-21
5.34567e-21
5.34499e-21
5.3431e-21
5.34116e-21
5.33949e-21
5.34162e-21
5.33775e-21
5.33281e-21
5.32993e-21
5.32927e-21
5.33076e-21
5.33423e-21
5.33922e-21
5.34214e-21
5.33986e-21
5.3425e-21
5.34374e-21
5.34518e-21
5.34678e-21
5.34742e-21
5.34775e-21
5.34784e-21
5.34718e-21
5.34146e-21
5.27761e-21
4.44089e-21
4.44089e-21
1.2168e-20
1.40744e-20
1.42968e-20
1.43006e-20
1.42523e-20
1.41371e-20
1.40329e-20
1.39489e-20
1.39389e-20
1.36389e-20
1.37839e-20
1.45901e-20
1.47942e-20
1.44096e-20
1.3496e-20
1.37014e-20
1.39483e-20
1.39466e-20
1.40217e-20
1.40994e-20
1.41896e-20
1.42845e-20
1.43239e-20
1.43474e-20
1.4355e-20
1.43263e-20
1.40877e-20
1.21697e-20
4.44089e-21
4.44089e-21
1.75272e-20
2.60658e-20
2.78558e-20
2.77308e-20
2.68987e-20
3.72843e-20
5.16483e-20
6.64761e-20
8.06326e-20
9.20648e-20
1.00206e-19
1.04849e-19
1.06012e-19
1.03812e-19
9.85302e-20
9.05906e-20
8.03102e-20
6.82961e-20
5.61309e-20
4.42927e-20
3.33837e-20
2.72292e-20
2.78915e-20
2.82935e-20
2.84553e-20
2.81693e-20
2.61544e-20
1.75268e-20
4.44089e-21
4.44089e-21
1.99676e-20
3.74684e-20
4.32415e-20
5.96091e-20
9.95249e-20
1.47861e-19
1.99858e-19
2.51023e-19
2.97064e-19
3.33093e-19
3.58252e-19
3.72385e-19
3.75907e-19
3.69238e-19
3.53125e-19
3.28592e-19
2.96294e-19
2.57513e-19
2.16001e-19
1.74185e-19
1.34263e-19
9.81842e-20
6.77889e-20
4.48496e-20
4.62681e-20
4.51503e-20
3.7848e-20
1.99644e-20
4.44089e-21
4.44089e-21
2.08423e-20
4.50704e-20
7.54473e-20
1.59557e-19
2.68646e-19
3.9016e-19
5.14114e-19
6.31212e-19
7.32872e-19
8.12006e-19
8.67163e-19
8.97972e-19
9.05675e-19
8.91268e-19
8.56244e-19
8.0266e-19
7.3219e-19
6.47327e-19
5.53657e-19
4.56454e-19
3.60549e-19
2.70027e-19
1.88414e-19
1.20867e-19
7.13341e-20
6.15333e-20
4.61536e-20
2.08429e-20
4.44089e-21
4.44089e-21
2.11284e-20
4.85556e-20
1.45441e-19
3.27144e-19
5.5035e-19
7.87311e-19
1.01971e-18
1.23261e-18
1.41361e-18
1.55429e-18
1.65242e-18
1.70713e-18
1.7209e-18
1.69558e-18
1.6337e-18
1.53886e-18
1.4145e-18
1.26492e-18
1.09728e-18
9.19624e-19
7.39812e-19
5.64793e-19
4.01052e-19
2.57842e-19
1.43759e-19
7.34759e-20
5.08315e-20
2.11438e-20
4.44089e-21
4.44089e-21
2.12012e-20
5.44041e-20
2.36822e-19
5.53013e-19
9.32976e-19
1.32455e-18
1.69784e-18
2.0323e-18
2.31286e-18
2.53045e-18
2.68222e-18
2.76671e-18
2.78807e-18
2.74924e-18
2.65404e-18
2.50804e-18
2.317e-18
2.08746e-18
1.82827e-18
1.54976e-18
1.26258e-18
9.76749e-19
7.02372e-19
4.53146e-19
2.45327e-19
1.00332e-19
5.30549e-20
2.1247e-20
4.44089e-21
4.44089e-21
2.11966e-20
7.38024e-20
3.41259e-19
8.15836e-19
1.38391e-18
1.95945e-18
2.49746e-18
2.97182e-18
3.3659e-18
3.67055e-18
3.88269e-18
4.00054e-18
4.03028e-18
3.97614e-18
3.84338e-18
3.63977e-18
3.37364e-18
3.05404e-18
2.69169e-18
2.29883e-18
1.88838e-18
1.47317e-18
1.06695e-18
6.88628e-19
3.65373e-19
1.38593e-19
5.39604e-20
2.12812e-20
4.44089e-21
4.44089e-21
2.1167e-20
9.51194e-20
4.50363e-19
1.09191e-18
1.86286e-18
2.63737e-18
3.35202e-18
3.97483e-18
4.48829e-18
4.88363e-18
5.15816e-18
5.31013e-18
5.3481e-18
5.27764e-18
5.10555e-18
4.84182e-18
4.49731e-18
4.08359e-18
3.61336e-18
3.10059e-18
2.55998e-18
2.00668e-18
1.45799e-18
9.38945e-19
4.90584e-19
1.77594e-19
5.42246e-20
2.12899e-20
4.44089e-21
4.44089e-21
2.11326e-20
1.1679e-19
5.56717e-19
1.35978e-18
2.33108e-18
3.30335e-18
4.19292e-18
4.96163e-18
5.59135e-18
6.07411e-18
6.40814e-18
6.59216e-18
6.63724e-18
6.55027e-18
6.33955e-18
6.01715e-18
5.59622e-18
5.09063e-18
4.51508e-18
3.88508e-18
3.21686e-18
2.5275e-18
1.83771e-18
1.17941e-18
6.09041e-19
2.14186e-19
5.41683e-20
2.12885e-20
4.44089e-21
4.44089e-21
2.1101e-20
1.37267e-19
6.53753e-19
1.60169e-18
2.75479e-18
3.90796e-18
4.95741e-18
5.8585e-18
6.5926e-18
7.15292e-18
7.53901e-18
7.75043e-18
7.8007e-18
7.69782e-18
7.45152e-18
7.07563e-18
6.58522e-18
5.99617e-18
5.32493e-18
4.58848e-18
3.80436e-18
2.99141e-18
2.17358e-18
1.38962e-18
7.1133e-19
2.45799e-19
5.39039e-20
2.12817e-20
4.44089e-21
4.44089e-21
2.10754e-20
1.5508e-19
7.3569e-19
1.80317e-18
3.10689e-18
4.41044e-18
5.59233e-18
6.60216e-18
7.42102e-18
8.04344e-18
8.47049e-18
8.70271e-18
8.75574e-18
8.63846e-18
8.36181e-18
7.94096e-18
7.39247e-18
6.73379e-18
5.98287e-18
5.158e-18
4.27793e-18
3.36308e-18
2.44036e-18
1.55461e-18
7.90677e-19
2.70382e-19
5.33836e-20
2.1271e-20
4.44089e-21
4.44089e-21
2.10569e-20
1.6891e-19
7.97619e-19
1.9528e-18
3.36631e-18
4.77899e-18
6.05608e-18
7.14295e-18
8.02079e-18
8.6855e-18
9.13959e-18
9.38467e-18
9.43788e-18
9.3086e-18
9.00872e-18
8.5543e-18
7.96285e-18
7.25293e-18
6.44365e-18
5.55439e-18
4.60499e-18
3.61724e-18
2.62052e-18
1.66431e-18
8.42522e-19
2.86279e-19
5.29614e-20
2.12603e-20
4.44089e-21
4.44089e-21
2.10461e-20
1.77693e-19
8.3568e-19
2.04207e-18
3.51784e-18
4.99083e-18
6.31888e-18
7.44542e-18
8.35227e-18
9.03664e-18
9.50223e-18
9.75161e-18
9.80254e-18
9.6646e-18
9.3502e-18
8.87561e-18
8.25893e-18
7.51937e-18
6.67676e-18
5.75134e-18
4.76395e-18
3.73761e-18
2.70335e-18
1.71292e-18
8.64371e-19
2.92538e-19
5.27882e-20
2.12526e-20
4.44089e-21
4.44089e-21
2.10433e-20
1.80699e-19
8.47269e-19
2.06544e-18
3.55203e-18
5.0322e-18
6.36315e-18
7.48903e-18
8.39291e-18
9.07314e-18
9.53419e-18
9.77933e-18
9.82598e-18
9.68354e-18
9.36457e-18
8.88512e-18
8.26325e-18
7.51826e-18
6.67024e-18
5.73989e-18
4.7487e-18
3.72048e-18
2.68686e-18
1.69974e-18
8.56074e-19
2.89047e-19
5.28962e-20
2.12484e-20
4.44089e-21
4.44089e-21
2.10487e-20
1.77653e-19
8.31472e-19
2.02128e-18
3.46654e-18
4.90021e-18
6.18566e-18
7.27049e-18
8.13956e-18
8.79209e-18
9.23286e-18
9.46556e-18
9.50625e-18
9.3639e-18
9.05072e-18
8.58222e-18
7.97573e-18
7.25002e-18
6.42492e-18
5.52111e-18
4.56044e-18
3.56707e-18
2.57225e-18
1.6257e-18
8.18269e-19
2.76149e-19
5.32574e-20
2.12467e-20
4.44089e-21
4.44089e-21
2.10625e-20
1.68621e-19
7.88328e-19
1.90958e-18
3.26203e-18
4.59724e-18
5.79125e-18
6.79739e-18
7.60253e-18
8.20634e-18
8.61325e-18
8.82701e-18
8.86135e-18
8.72458e-18
8.42804e-18
7.98611e-18
7.41501e-18
6.73248e-18
5.95748e-18
5.11021e-18
4.21242e-18
3.28817e-18
2.36738e-18
1.49563e-18
7.53435e-19
2.54922e-19
5.37502e-20
2.12449e-20
4.44089e-21
4.44089e-21
2.10845e-20
1.54112e-19
7.1964e-19
1.73481e-18
2.94795e-18
4.13929e-18
5.20265e-18
6.09843e-18
6.81531e-18
7.35288e-18
7.71472e-18
7.90432e-18
7.93242e-18
7.80651e-18
7.53659e-18
7.13551e-18
6.61797e-18
6.00012e-18
5.29943e-18
4.53512e-18
3.7284e-18
2.90266e-18
2.08571e-18
1.3176e-18
6.65533e-19
2.26975e-19
5.40435e-20
2.12389e-20
4.44089e-21
4.44089e-21
2.11141e-20
1.35168e-19
6.29214e-19
1.50604e-18
2.54181e-18
3.55393e-18
4.45712e-18
5.21915e-18
5.82993e-18
6.2885e-18
6.59727e-18
6.75917e-18
6.78168e-18
6.67136e-18
6.43649e-18
6.08814e-18
5.6391e-18
5.10336e-18
4.4964e-18
3.83599e-18
3.1423e-18
2.43745e-18
1.74651e-18
1.10311e-18
5.60038e-19
1.94139e-19
5.41719e-20
2.12276e-20
4.44089e-21
4.44089e-21
2.11492e-20
1.13153e-19
5.22259e-19
1.23642e-18
2.06913e-18
2.88047e-18
3.6067e-18
4.22207e-18
4.71702e-18
5.0896e-18
5.341e-18
5.47331e-18
5.49115e-18
5.40013e-18
5.20633e-18
4.91906e-18
4.54881e-18
4.10697e-18
3.6067e-18
3.06399e-18
2.49743e-18
1.92709e-18
1.37472e-18
8.67521e-19
4.43992e-19
1.58504e-19
5.41169e-20
2.12096e-20
4.44089e-21
4.44089e-21
2.11835e-20
8.97216e-20
4.05627e-19
9.44316e-19
1.56494e-18
2.17088e-18
2.71773e-18
3.18493e-18
3.56294e-18
3.84864e-18
4.04223e-18
4.14484e-18
4.15902e-18
4.08929e-18
3.93946e-18
3.71701e-18
3.43e-18
3.08698e-18
2.69871e-18
2.27913e-18
1.84465e-18
1.41251e-18
1.00048e-18
6.29752e-19
3.26188e-19
1.22433e-19
5.37363e-20
2.11793e-20
4.44089e-21
4.44089e-21
2.11991e-20
6.67209e-20
2.87982e-19
6.54059e-19
1.07336e-18
1.48701e-18
1.86644e-18
2.19529e-18
2.46373e-18
2.6676e-18
2.80662e-18
2.88118e-18
2.89244e-18
2.8437e-18
2.73701e-18
2.57791e-18
2.37207e-18
2.12528e-18
1.846e-18
1.54595e-18
1.23877e-18
9.38038e-19
6.57041e-19
4.11418e-19
2.16926e-19
8.85144e-20
5.26953e-20
2.11219e-20
4.44089e-21
4.44089e-21
2.11464e-20
4.75062e-20
1.8006e-19
3.94913e-19
6.43236e-19
8.94336e-19
1.13097e-18
1.3406e-18
1.51392e-18
1.64619e-18
1.73715e-18
1.78679e-18
1.79539e-18
1.76512e-18
1.69687e-18
1.59433e-18
1.46115e-18
1.30055e-18
1.11905e-18
9.25954e-19
7.315e-19
5.45193e-19
3.75657e-19
2.33409e-19
1.26791e-19
7.32077e-20
5.03285e-20
2.09952e-20
4.44089e-21
4.44089e-21
2.08851e-20
4.48918e-20
9.38076e-20
1.95729e-19
3.18289e-19
4.47781e-19
5.74718e-19
6.90772e-19
7.88605e-19
8.6355e-19
9.15675e-19
9.44775e-19
9.507e-19
9.34632e-19
8.96906e-19
8.39652e-19
7.64967e-19
6.74129e-19
5.72062e-19
4.65345e-19
3.6042e-19
2.62872e-19
1.77404e-19
1.09705e-19
6.35651e-20
6.08253e-20
4.55653e-20
2.06742e-20
4.44089e-21
4.44089e-21
2.00339e-20
3.76941e-20
4.30396e-20
7.32093e-20
1.19134e-19
1.71274e-19
2.25134e-19
2.76524e-19
3.2131e-19
3.55805e-19
3.80202e-19
3.94202e-19
3.97528e-19
3.90682e-19
3.73788e-19
3.47873e-19
3.14034e-19
2.72508e-19
2.26722e-19
1.80226e-19
1.35995e-19
9.66071e-20
6.44183e-20
4.48003e-20
4.58852e-20
4.45408e-20
3.73153e-20
1.97848e-20
4.44089e-21
4.44089e-21
1.7611e-20
2.62898e-20
2.8004e-20
2.76913e-20
2.96209e-20
4.34125e-20
5.85586e-20
7.37535e-20
8.78574e-20
9.90395e-20
1.07194e-19
1.12018e-19
1.13318e-19
1.11235e-19
1.05819e-19
9.74498e-20
8.66442e-20
7.35512e-20
5.98374e-20
4.64741e-20
3.42627e-20
2.70866e-20
2.77818e-20
2.81704e-20
2.8249e-20
2.78743e-20
2.58232e-20
1.7358e-20
4.44089e-21
4.44089e-21
1.2232e-20
1.41528e-20
1.43528e-20
1.43296e-20
1.42402e-20
1.41221e-20
1.4024e-20
1.39428e-20
1.38175e-20
1.35225e-20
1.49592e-20
1.58344e-20
1.60918e-20
1.57488e-20
1.48191e-20
1.34288e-20
1.38106e-20
1.39343e-20
1.39933e-20
1.40689e-20
1.4162e-20
1.42607e-20
1.42972e-20
1.43118e-20
1.43015e-20
1.42455e-20
1.39692e-20
1.20525e-20
4.44089e-21
4.44089e-21
5.29061e-21
5.34937e-21
5.35132e-21
5.34947e-21
5.34743e-21
5.34523e-21
5.34354e-21
5.34076e-21
5.34123e-21
5.33456e-21
5.32915e-21
5.3259e-21
5.32486e-21
5.32594e-21
5.32916e-21
5.33438e-21
5.34069e-21
5.34014e-21
5.34172e-21
5.34214e-21
5.34334e-21
5.34455e-21
5.34437e-21
5.34336e-21
5.34102e-21
5.33582e-21
5.32071e-21
5.2366e-21
4.44089e-21
1.11022e-21
1.11022e-21
1.11022e-21
1.11022e-21
1.11022e-21
1.11022e-21
1.11022e-21
1.11022e-21
1.11022e-21
1.11022e-21
1.11022e-21
1.11022e-21
1.11022e-21
1.11022e-21
1.11022e-21
1.11022e-21
1.11022e-21
1.11022e-21
1.11022e-21
1.11022e-21
1.11022e-21
1.11022e-21
1.11022e-21
1.11022e-21
1.11022e-21
1.11022e-21
1.11022e-21
1.11022e-21
1.11022e-21
1.11022e-21
)
;

boundaryField
{
    movingWall
    {
        type            nutkWallFunction;
        Cmu             0.09;
        kappa           0.41;
        E               9.8;
        value           uniform 0;
    }
    fixedWalls
    {
        type            nutkWallFunction;
        Cmu             0.09;
        kappa           0.41;
        E               9.8;
        value           uniform 0;
    }
    frontAndBack
    {
        type            empty;
    }
}


// ************************************************************************* //
