/*--------------------------------*- C++ -*----------------------------------*\
  =========                 |
  \\      /  F ield         | OpenFOAM: The Open Source CFD Toolbox
   \\    /   O peration     | Website:  https://openfoam.org
    \\  /    A nd           | Version:  12
     \\/     M anipulation  |
\*---------------------------------------------------------------------------*/
FoamFile
{
    format      ascii;
    class       surfaceScalarField;
    location    "0.5";
    object      phi;
}
// * * * * * * * * * * * * * * * * * * * * * * * * * * * * * * * * * * * * * //

dimensions      [0 3 -1 0 0 0 0];

internalField   nonuniform List<scalar> 
11100
(
2.43511e-10
-2.46526e-10
5.98139e-10
-3.54566e-10
7.90522e-10
-1.92277e-10
7.37448e-10
5.31631e-11
3.91254e-10
3.4625e-10
-2.63363e-10
6.54642e-10
-1.22172e-09
9.58355e-10
-2.46641e-09
1.24468e-09
-3.97283e-09
1.5064e-09
-5.71281e-09
1.73997e-09
-7.65705e-09
1.94421e-09
-9.77653e-09
2.11946e-09
-1.20434e-08
2.26689e-09
-1.44316e-08
2.3881e-09
-1.69165e-08
2.48488e-09
-1.94755e-08
2.55902e-09
-2.20877e-08
2.61216e-09
-2.47335e-08
2.64581e-09
-2.73948e-08
2.66125e-09
-3.00543e-08
2.65953e-09
-3.26959e-08
2.6415e-09
-3.53036e-08
2.60777e-09
-3.78624e-08
2.55878e-09
-4.03572e-08
2.4948e-09
-4.27732e-08
2.41595e-09
-4.50955e-08
2.32228e-09
-4.73093e-08
2.21376e-09
-4.93996e-08
2.09033e-09
-5.13516e-08
1.95196e-09
-5.31503e-08
1.79867e-09
-5.47809e-08
1.63057e-09
-5.62287e-08
1.44787e-09
-5.74797e-08
1.25097e-09
-5.85202e-08
1.04044e-09
-5.93372e-08
8.17045e-10
-5.9919e-08
5.81781e-10
-6.02549e-08
3.35875e-10
-6.03363e-08
8.13434e-11
-6.01554e-08
-1.80913e-10
-5.97071e-08
-4.48229e-10
-5.89887e-08
-7.18462e-10
-5.79996e-08
-9.89078e-10
-5.67423e-08
-1.25733e-09
-5.5222e-08
-1.5203e-09
-5.34471e-08
-1.77491e-09
-5.14291e-08
-2.018e-09
-4.91827e-08
-2.24639e-09
-4.67259e-08
-2.45688e-09
-4.40795e-08
-2.64636e-09
-4.12676e-08
-2.81187e-09
-3.8317e-08
-2.95063e-09
-3.52569e-08
-3.06016e-09
-3.21186e-08
-3.13827e-09
-2.89354e-08
-3.1832e-09
-2.57418e-08
-3.19358e-09
-2.25733e-08
-3.16856e-09
-1.94655e-08
-3.10775e-09
-1.64542e-08
-3.01135e-09
-1.35741e-08
-2.88007e-09
-1.08589e-08
-2.71522e-09
-8.34029e-09
-2.51863e-09
-6.04756e-09
-2.29273e-09
-4.00704e-09
-2.04053e-09
-2.24144e-09
-1.76561e-09
-7.69205e-10
-1.47224e-09
3.96271e-10
-1.16548e-09
1.24765e-09
-8.51382e-10
1.78501e-09
-5.37369e-10
2.01799e-09
-2.32981e-10
1.96884e-09
4.91406e-11
1.67742e-09
2.91415e-10
1.20866e-09
4.68758e-10
6.64316e-10
5.44339e-10
1.98982e-10
4.6533e-10
1.9898e-10
3.6622e-10
-6.12826e-10
7.78599e-10
-7.66934e-10
7.86807e-10
-2.00417e-10
1.53044e-10
6.86998e-10
-1.23165e-09
1.73099e-09
-3.40671e-09
2.82973e-09
-6.36356e-09
3.91521e-09
-1.00633e-08
4.94445e-09
-1.4449e-08
5.89202e-09
-1.94534e-08
6.74433e-09
-2.50049e-08
7.4957e-09
-3.10309e-08
8.14547e-09
-3.74602e-08
8.69615e-09
-4.42242e-08
9.15203e-09
-5.12576e-08
9.51825e-09
-5.84988e-08
9.80022e-09
-6.58899e-08
1.00032e-08
-7.33761e-08
1.0132e-08
-8.09057e-08
1.01908e-08
-8.84295e-08
1.01833e-08
-9.59004e-08
1.01124e-08
-1.03273e-07
9.98014e-09
-1.10502e-07
9.7883e-09
-1.17545e-07
9.53792e-09
-1.24359e-07
9.22967e-09
-1.30901e-07
8.86391e-09
-1.37128e-07
8.44081e-09
-1.42998e-07
7.96049e-09
-1.48469e-07
7.42315e-09
-1.535e-07
6.8292e-09
-1.58049e-07
6.17939e-09
-1.62076e-07
5.47495e-09
-1.65542e-07
4.71766e-09
-1.68412e-07
3.90999e-09
-1.7065e-07
3.05516e-09
-1.72226e-07
2.15722e-09
-1.73111e-07
1.22097e-09
-1.73282e-07
2.53131e-10
-1.72723e-07
-7.40486e-10
-1.71419e-07
-1.75176e-09
-1.69366e-07
-2.77203e-09
-1.66563e-07
-3.79183e-09
-1.63019e-07
-4.80098e-09
-1.58751e-07
-5.7887e-09
-1.53782e-07
-6.74371e-09
-1.48146e-07
-7.65444e-09
-1.41883e-07
-8.5092e-09
-1.35044e-07
-9.29641e-09
-1.27685e-07
-1.00048e-08
-1.19873e-07
-1.06235e-08
-1.11681e-07
-1.11427e-08
-1.03188e-07
-1.15533e-08
-9.44791e-08
-1.18475e-08
-8.56434e-08
-1.20189e-08
-7.67742e-08
-1.20628e-08
-6.79666e-08
-1.19761e-08
-5.93168e-08
-1.17576e-08
-5.09199e-08
-1.14082e-08
-4.28692e-08
-1.09307e-08
-3.52544e-08
-1.03301e-08
-2.81595e-08
-9.61345e-09
-2.16623e-08
-8.78999e-09
-1.58316e-08
-7.87123e-09
-1.07262e-08
-6.87099e-09
-6.39281e-09
-5.80566e-09
-2.86366e-09
-4.69464e-09
-1.5406e-10
-3.56099e-09
1.74119e-09
-2.43263e-09
2.85229e-09
-1.34409e-09
3.24088e-09
-3.39454e-10
3.00862e-09
5.23674e-10
2.30885e-09
1.16852e-09
1.36102e-09
1.49217e-09
4.62836e-10
1.3635e-09
6.61813e-10
3.00623e-10
-9.13616e-10
3.59459e-10
-8.25845e-10
-2.88798e-10
4.4785e-10
-1.91268e-09
2.31092e-09
-4.65139e-09
4.46974e-09
-8.55612e-09
6.73447e-09
-1.36167e-08
8.97575e-09
-1.97816e-08
1.11093e-08
-2.69729e-08
1.30834e-08
-3.50971e-08
1.48685e-08
-4.4052e-08
1.64506e-08
-5.37323e-08
1.78257e-08
-6.40329e-08
1.89967e-08
-7.48509e-08
1.997e-08
-8.60873e-08
2.07547e-08
-9.76474e-08
2.13602e-08
-1.09441e-07
2.17965e-08
-1.21381e-07
2.20725e-08
-1.33387e-07
2.21966e-08
-1.45379e-07
2.21757e-08
-1.57283e-07
2.20156e-08
-1.69023e-07
2.17209e-08
-1.8053e-07
2.12949e-08
-1.91732e-07
2.07402e-08
-2.02561e-07
2.00584e-08
-2.12948e-07
1.92505e-08
-2.22824e-07
1.83173e-08
-2.32123e-07
1.72595e-08
-2.40778e-07
1.60782e-08
-2.48724e-07
1.47745e-08
-2.55895e-07
1.33508e-08
-2.6223e-07
1.18102e-08
-2.6767e-07
1.0157e-08
-2.72157e-07
8.39699e-09
-2.75639e-07
6.53757e-09
-2.7807e-07
4.58784e-09
-2.79408e-07
2.55877e-09
-2.79618e-07
4.63577e-10
-2.78675e-07
-1.68333e-09
-2.76562e-07
-3.86519e-09
-2.7327e-07
-6.06344e-09
-2.68804e-07
-8.25789e-09
-2.63178e-07
-1.04269e-08
-2.56419e-07
-1.25476e-08
-2.48567e-07
-1.45963e-08
-2.39673e-07
-1.65485e-08
-2.29802e-07
-1.83797e-08
-2.19033e-07
-2.00657e-08
-2.07455e-07
-2.15827e-08
-1.9517e-07
-2.29085e-08
-1.82291e-07
-2.4022e-08
-1.6894e-07
-2.49047e-08
-1.55247e-07
-2.55404e-08
-1.4135e-07
-2.59157e-08
-1.27392e-07
-2.6021e-08
-1.13518e-07
-2.58499e-08
-9.98753e-08
-2.54003e-08
-8.66095e-08
-2.4674e-08
-7.38626e-08
-2.36776e-08
-6.17712e-08
-2.24215e-08
-5.04633e-08
-2.09214e-08
-4.00563e-08
-1.9197e-08
-3.06542e-08
-1.72733e-08
-2.2345e-08
-1.51803e-08
-1.51974e-08
-1.29532e-08
-9.25813e-09
-1.06339e-08
-4.5475e-09
-8.27162e-09
-1.05511e-09
-5.92502e-09
1.266e-09
-3.6652e-09
2.50639e-09
-1.57986e-09
2.8092e-09
2.2086e-10
2.38073e-09
1.59699e-09
1.5023e-09
2.37059e-09
5.44074e-10
2.32173e-09
1.20589e-09
5.1202e-11
-9.64981e-10
-5.09988e-10
-2.64751e-10
-2.11772e-09
2.05556e-09
-5.01981e-09
5.21302e-09
-9.34909e-09
8.79903e-09
-1.5153e-08
1.25384e-08
-2.24149e-08
1.62377e-08
-3.10727e-08
1.97671e-08
-4.10329e-08
2.30435e-08
-5.21821e-08
2.60177e-08
-6.43955e-08
2.86639e-08
-7.75422e-08
3.09724e-08
-9.14903e-08
3.29447e-08
-1.06109e-07
3.45888e-08
-1.21271e-07
3.59167e-08
-1.36853e-07
3.69425e-08
-1.52738e-07
3.76806e-08
-1.6881e-07
3.81448e-08
-1.84961e-07
3.83479e-08
-2.01086e-07
3.83007e-08
-2.17083e-07
3.80126e-08
-2.32853e-07
3.74909e-08
-2.483e-07
3.67413e-08
-2.63328e-07
3.5768e-08
-2.77843e-07
3.45742e-08
-2.91755e-07
3.31621e-08
-3.04971e-07
3.15334e-08
-3.17402e-07
2.96902e-08
-3.28958e-07
2.76345e-08
-3.39553e-07
2.53696e-08
-3.49102e-07
2.28998e-08
-3.57523e-07
2.02312e-08
-3.64738e-07
1.73721e-08
-3.70674e-07
1.43329e-08
-3.75263e-07
1.11268e-08
-3.78445e-07
7.76985e-09
-3.80168e-07
4.2813e-09
-3.80388e-07
6.83505e-10
-3.79073e-07
-2.99822e-09
-3.76203e-07
-6.73537e-09
-3.7177e-07
-1.04964e-08
-3.65781e-07
-1.42472e-08
-3.58256e-07
-1.79512e-08
-3.49234e-07
-2.157e-08
-3.38767e-07
-2.50634e-08
-3.26924e-07
-2.83909e-08
-3.13793e-07
-3.15113e-08
-2.99474e-07
-3.43841e-08
-2.84087e-07
-3.69698e-08
-2.67765e-07
-3.92311e-08
-2.50653e-07
-4.11335e-08
-2.32912e-07
-4.26457e-08
-2.14712e-07
-4.37409e-08
-1.9623e-07
-4.43974e-08
-1.77652e-07
-4.45988e-08
-1.59167e-07
-4.4335e-08
-1.40965e-07
-4.36026e-08
-1.23234e-07
-4.24052e-08
-1.06158e-07
-4.07537e-08
-8.99127e-08
-3.86664e-08
-7.46644e-08
-3.61697e-08
-6.05637e-08
-3.32977e-08
-4.77443e-08
-3.00928e-08
-3.63186e-08
-2.66059e-08
-2.63745e-08
-2.28973e-08
-1.79709e-08
-1.90376e-08
-1.11332e-08
-1.51093e-08
-5.84869e-09
-1.12096e-08
-2.06019e-09
-7.45371e-09
3.40429e-10
-3.98048e-09
1.52009e-09
-9.58809e-10
1.71329e-09
1.40378e-09
1.23239e-09
2.85149e-09
4.83141e-10
3.07097e-09
1.68902e-09
-2.70031e-10
-6.95109e-10
-1.61419e-09
1.0793e-09
-4.37452e-09
4.81585e-09
-8.74846e-09
9.58695e-09
-1.48391e-08
1.48897e-08
-2.26749e-08
2.03741e-08
-3.22244e-08
2.57873e-08
-4.34116e-08
3.09543e-08
-5.6128e-08
3.57599e-08
-7.02433e-08
4.0133e-08
-8.56136e-08
4.40342e-08
-1.02088e-07
4.74465e-08
-1.19511e-07
5.03685e-08
-1.37731e-07
5.28085e-08
-1.56596e-07
5.47814e-08
-1.75959e-07
5.6305e-08
-1.95676e-07
5.73984e-08
-2.15612e-07
5.808e-08
-2.35631e-07
5.83672e-08
-2.55605e-07
5.82752e-08
-2.7541e-07
5.78168e-08
-2.94921e-07
5.70028e-08
-3.14022e-07
5.58413e-08
-3.32592e-07
5.43389e-08
-3.50519e-07
5.25004e-08
-3.67686e-07
5.03296e-08
-3.83983e-07
4.78301e-08
-3.99298e-07
4.50052e-08
-4.13523e-07
4.18592e-08
-4.26551e-07
3.83978e-08
-4.3828e-07
3.46285e-08
-4.4861e-07
3.05614e-08
-4.57447e-07
2.62095e-08
-4.64704e-07
2.15897e-08
-4.703e-07
1.67224e-08
-4.74162e-07
1.16325e-08
-4.7623e-07
6.34927e-09
-4.76454e-07
9.06573e-10
-4.74795e-07
-4.65719e-09
-4.71231e-07
-1.02991e-08
-4.65755e-07
-1.59721e-08
-4.58377e-07
-2.16252e-08
-4.49125e-07
-2.72038e-08
-4.38044e-07
-3.2651e-08
-4.252e-07
-3.79075e-08
-4.10678e-07
-4.29129e-08
-3.94582e-07
-4.76066e-08
-3.77037e-07
-5.19288e-08
-3.58186e-07
-5.58215e-08
-3.38187e-07
-5.92295e-08
-3.17219e-07
-6.21019e-08
-2.95472e-07
-6.43931e-08
-2.73149e-07
-6.60637e-08
-2.50465e-07
-6.70815e-08
-2.27641e-07
-6.74227e-08
-2.04903e-07
-6.70728e-08
-1.82479e-07
-6.60268e-08
-1.60594e-07
-6.42902e-08
-1.39468e-07
-6.18796e-08
-1.19312e-07
-5.88226e-08
-1.00323e-07
-5.51585e-08
-8.26821e-08
-5.09385e-08
-6.65489e-08
-4.62259e-08
-5.20579e-08
-4.10969e-08
-3.93141e-08
-3.56412e-08
-2.83886e-08
-2.99631e-08
-1.9314e-08
-2.41839e-08
-1.20789e-08
-1.84447e-08
-6.62272e-09
-1.29099e-08
-2.82983e-09
-7.77337e-09
-5.22989e-10
-3.26566e-09
5.43574e-10
3.37213e-10
6.92438e-10
2.70262e-09
3.36174e-10
3.42722e-09
2.0252e-09
-6.18514e-10
-7.674e-11
-2.82474e-09
3.28541e-09
-6.84846e-09
8.83953e-09
-1.28162e-08
1.55547e-08
-2.07839e-08
2.28574e-08
-3.07474e-08
3.03377e-08
-4.26518e-08
3.76917e-08
-5.64018e-08
4.47042e-08
-7.18715e-08
5.12296e-08
-8.89139e-08
5.71754e-08
-1.07368e-07
6.24882e-08
-1.27065e-07
6.7143e-08
-1.47831e-07
7.11345e-08
-1.69493e-07
7.4471e-08
-1.91881e-07
7.71692e-08
-2.14826e-07
7.92504e-08
-2.38166e-07
8.07378e-08
-2.6174e-07
8.16546e-08
-2.85396e-07
8.20226e-08
-3.08982e-07
8.18613e-08
-3.32353e-07
8.11874e-08
-3.55365e-07
8.00149e-08
-3.77878e-07
7.83548e-08
-3.99756e-07
7.62162e-08
-4.20861e-07
7.3606e-08
-4.41062e-07
7.05301e-08
-4.60225e-07
6.69938e-08
-4.78223e-07
6.3003e-08
-4.94929e-07
5.85645e-08
-5.10218e-07
5.36871e-08
-5.23972e-07
4.83824e-08
-5.36076e-07
4.26654e-08
-5.46422e-07
3.65555e-08
-5.54909e-07
3.00766e-08
-5.61445e-07
2.32583e-08
-5.65948e-07
1.61356e-08
-5.68348e-07
8.7497e-09
-5.6859e-07
1.14799e-09
-5.66631e-07
-6.61608e-09
-5.62447e-07
-1.4483e-08
-5.56031e-07
-2.23878e-08
-5.47396e-07
-3.02599e-08
-5.36575e-07
-3.80248e-08
-5.23623e-07
-4.56039e-08
-5.08614e-07
-5.29161e-08
-4.91648e-07
-5.98789e-08
-4.72845e-07
-6.64093e-08
-4.52349e-07
-7.24256e-08
-4.30321e-07
-7.78487e-08
-4.06947e-07
-8.26035e-08
-3.82429e-07
-8.66204e-08
-3.56985e-07
-8.98372e-08
-3.30848e-07
-9.22001e-08
-3.04264e-07
-9.36655e-08
-2.77486e-07
-9.4201e-08
-2.50772e-07
-9.37865e-08
-2.24384e-07
-9.24155e-08
-1.98578e-07
-9.00958e-08
-1.73608e-07
-8.685e-08
-1.49714e-07
-8.27164e-08
-1.27123e-07
-7.7749e-08
-1.06044e-07
-7.20182e-08
-8.66584e-08
-6.56113e-08
-6.91228e-08
-5.86326e-08
-5.35591e-08
-5.12048e-08
-4.0052e-08
-4.34702e-08
-2.86432e-08
-3.55927e-08
-1.93275e-08
-2.77604e-08
-1.2047e-08
-2.01904e-08
-6.68671e-09
-1.31337e-08
-3.06947e-09
-6.88291e-09
-9.50939e-10
-1.78133e-09
-1.36466e-11
1.76532e-09
1.40604e-10
3.27297e-09
2.1658e-09
-9.71411e-10
8.94533e-10
-4.07201e-09
6.3859e-09
-9.41519e-09
1.41827e-08
-1.70456e-08
2.31851e-08
-2.69608e-08
3.27726e-08
-3.91141e-08
4.24909e-08
-5.34186e-08
5.19962e-08
-6.97543e-08
6.10399e-08
-8.7975e-08
6.94502e-08
-1.07915e-07
7.71157e-08
-1.29397e-07
8.39699e-08
-1.52234e-07
8.998e-08
-1.76237e-07
9.51373e-08
-2.01215e-07
9.94493e-08
-2.2698e-07
1.02934e-07
-2.53347e-07
1.05617e-07
-2.80133e-07
1.07524e-07
-3.07163e-07
1.08684e-07
-3.34262e-07
1.09122e-07
-3.61262e-07
1.08861e-07
-3.87998e-07
1.07924e-07
-4.1431e-07
1.06326e-07
-4.40038e-07
1.04083e-07
-4.65026e-07
1.01205e-07
-4.89122e-07
9.77016e-08
-5.12173e-07
9.35817e-08
-5.34032e-07
8.88527e-08
-5.54552e-07
8.35232e-08
-5.73591e-07
7.76032e-08
-5.91009e-07
7.11053e-08
-6.06673e-07
6.4046e-08
-6.20454e-07
5.64461e-08
-6.3223e-07
4.83322e-08
-6.4189e-07
3.97367e-08
-6.49331e-07
3.06994e-08
-6.54463e-07
2.1267e-08
-6.57207e-07
1.14941e-08
-6.57503e-07
1.44332e-09
-6.55304e-07
-8.81509e-09
-6.50584e-07
-1.92031e-08
-6.43336e-07
-2.96357e-08
-6.33575e-07
-4.00209e-08
-6.21338e-07
-5.02616e-08
-6.06686e-07
-6.02556e-08
-5.89705e-07
-6.98977e-08
-5.70503e-07
-7.90806e-08
-5.49215e-07
-8.76969e-08
-5.26e-07
-9.56407e-08
-5.0104e-07
-1.02809e-07
-4.74538e-07
-1.09106e-07
-4.46719e-07
-1.14439e-07
-4.17826e-07
-1.1873e-07
-3.88119e-07
-1.21907e-07
-3.57869e-07
-1.23915e-07
-3.27359e-07
-1.24711e-07
-2.96876e-07
-1.24269e-07
-2.66711e-07
-1.22581e-07
-2.37151e-07
-1.19656e-07
-2.08478e-07
-1.15523e-07
-1.80961e-07
-1.10233e-07
-1.54855e-07
-1.03855e-07
-1.30393e-07
-9.64808e-08
-1.07781e-07
-8.82234e-08
-8.7195e-08
-7.92182e-08
-6.87763e-08
-6.96236e-08
-5.26242e-08
-5.96224e-08
-3.87932e-08
-4.94237e-08
-2.72879e-08
-3.92657e-08
-1.8059e-08
-2.94193e-08
-1.09988e-08
-2.01938e-08
-5.9385e-09
-1.19432e-08
-2.64434e-09
-5.0755e-09
-8.15302e-10
-6.37223e-11
-8.01427e-11
2.5378e-09
2.08565e-09
-1.31885e-09
2.21326e-09
-5.31903e-09
1.0386e-08
-1.20012e-08
2.08648e-08
-2.13252e-08
3.2509e-08
-3.32233e-08
4.46707e-08
-4.75992e-08
5.68667e-08
-6.43279e-08
6.8725e-08
-8.32597e-08
7.99716e-08
-1.04224e-07
9.04146e-08
-1.27036e-07
9.99272e-08
-1.51498e-07
1.08432e-07
-1.77409e-07
1.15891e-07
-2.04562e-07
1.22291e-07
-2.32753e-07
1.2764e-07
-2.61777e-07
1.31958e-07
-2.91432e-07
1.35272e-07
-3.21522e-07
1.37614e-07
-3.51853e-07
1.39015e-07
-3.82236e-07
1.39505e-07
-4.12487e-07
1.39112e-07
-4.42424e-07
1.37861e-07
-4.7187e-07
1.35772e-07
-5.00649e-07
1.32862e-07
-5.28591e-07
1.29146e-07
-5.55524e-07
1.24635e-07
-5.81282e-07
1.1934e-07
-6.05702e-07
1.13272e-07
-6.28621e-07
1.06443e-07
-6.49883e-07
9.88651e-08
-6.69335e-07
9.05567e-08
-6.86828e-07
8.15393e-08
-7.02223e-07
7.18405e-08
-7.15385e-07
6.14948e-08
-7.26193e-07
5.05443e-08
-7.34533e-07
3.90397e-08
-7.40307e-07
2.70408e-08
-7.4343e-07
1.46171e-08
-7.43834e-07
1.84759e-09
-7.4147e-07
-1.1179e-08
-7.36309e-07
-2.43645e-08
-7.28343e-07
-3.7602e-08
-7.17587e-07
-5.07765e-08
-7.04083e-07
-6.37662e-08
-6.87895e-07
-7.64434e-08
-6.69116e-07
-8.86765e-08
-6.47865e-07
-1.00332e-07
-6.24287e-07
-1.11275e-07
-5.98554e-07
-1.21374e-07
-5.70864e-07
-1.305e-07
-5.41437e-07
-1.38532e-07
-5.10519e-07
-1.45357e-07
-4.78374e-07
-1.50875e-07
-4.45283e-07
-1.54998e-07
-4.11545e-07
-1.57654e-07
-3.77465e-07
-1.5879e-07
-3.4336e-07
-1.58374e-07
-3.09547e-07
-1.56394e-07
-2.76342e-07
-1.52861e-07
-2.44053e-07
-1.47812e-07
-2.12978e-07
-1.41308e-07
-1.83397e-07
-1.33436e-07
-1.55569e-07
-1.24309e-07
-1.29724e-07
-1.14069e-07
-1.06059e-07
-1.02883e-07
-8.47354e-08
-9.09472e-08
-6.58701e-08
-7.84876e-08
-4.95334e-08
-6.57603e-08
-3.57442e-08
-5.30549e-08
-2.4466e-08
-4.06975e-08
-1.56045e-08
-2.90553e-08
-9.00506e-09
-1.85427e-08
-4.4516e-09
-9.62896e-09
-1.6663e-09
-2.84902e-09
-3.11537e-10
1.18304e-09
1.77411e-09
-1.6566e-09
3.86975e-09
-6.54624e-09
1.52755e-08
-1.45643e-08
2.88828e-08
-2.55861e-08
4.35308e-08
-3.9476e-08
5.85605e-08
-5.60837e-08
7.34745e-08
-7.52419e-08
8.78831e-08
-9.67668e-08
1.01496e-07
-1.20461e-07
1.14109e-07
-1.46116e-07
1.25582e-07
-1.73517e-07
1.35833e-07
-2.02444e-07
1.44818e-07
-2.32676e-07
1.52523e-07
-2.63992e-07
1.58957e-07
-2.96176e-07
1.64141e-07
-3.2901e-07
1.68107e-07
-3.62284e-07
1.70888e-07
-3.95791e-07
1.72522e-07
-4.29328e-07
1.73042e-07
-4.62696e-07
1.7248e-07
-4.95699e-07
1.70864e-07
-5.28146e-07
1.68218e-07
-5.59846e-07
1.64562e-07
-5.90614e-07
1.59914e-07
-6.20266e-07
1.54287e-07
-6.4862e-07
1.47695e-07
-6.755e-07
1.40152e-07
-7.00729e-07
1.31672e-07
-7.24138e-07
1.22274e-07
-7.4556e-07
1.11979e-07
-7.64836e-07
1.00815e-07
-7.81813e-07
8.88174e-08
-7.96347e-07
7.60289e-08
-8.08305e-07
6.25021e-08
-8.17565e-07
4.82997e-08
-8.24019e-07
3.34956e-08
-8.27577e-07
1.81749e-08
-8.28164e-07
2.43452e-09
-8.25726e-07
-1.36172e-08
-8.2023e-07
-2.98607e-08
-8.11666e-07
-4.61656e-08
-8.00051e-07
-6.23922e-08
-7.85425e-07
-7.83923e-08
-7.67857e-07
-9.40111e-08
-7.47445e-07
-1.09089e-07
-7.24314e-07
-1.23463e-07
-6.98618e-07
-1.3697e-07
-6.70541e-07
-1.49451e-07
-6.40293e-07
-1.60748e-07
-6.0811e-07
-1.70715e-07
-5.74254e-07
-1.79213e-07
-5.39009e-07
-1.86121e-07
-5.02676e-07
-1.9133e-07
-4.65577e-07
-1.94754e-07
-4.28041e-07
-1.96326e-07
-3.9041e-07
-1.96005e-07
-3.53028e-07
-1.93776e-07
-3.16237e-07
-1.89653e-07
-2.80372e-07
-1.83676e-07
-2.45759e-07
-1.75921e-07
-2.12705e-07
-1.6649e-07
-1.81493e-07
-1.55521e-07
-1.5238e-07
-1.43183e-07
-1.25585e-07
-1.29677e-07
-1.01292e-07
-1.1524e-07
-7.96384e-08
-1.00141e-07
-6.07134e-08
-8.46853e-08
-4.45538e-08
-6.92146e-08
-3.11406e-08
-5.41107e-08
-2.03972e-08
-3.97987e-08
-1.2188e-08
-2.67519e-08
-6.31862e-09
-1.54983e-08
-2.53847e-09
-6.62918e-09
-5.45407e-10
-8.10031e-10
1.22871e-09
-1.98378e-09
5.85342e-09
-7.74416e-09
2.10358e-08
-1.70803e-08
3.82189e-08
-2.97859e-08
5.62364e-08
-4.56573e-08
7.44318e-08
-6.44879e-08
9.23051e-08
-8.60651e-08
1.0946e-07
-1.10168e-07
1.256e-07
-1.3657e-07
1.4051e-07
-1.65038e-07
1.5405e-07
-1.95335e-07
1.66131e-07
-2.27226e-07
1.76709e-07
-2.60473e-07
1.8577e-07
-2.94842e-07
1.93326e-07
-3.30102e-07
1.994e-07
-3.66023e-07
2.04028e-07
-4.02384e-07
2.07249e-07
-4.38963e-07
2.09101e-07
-4.75547e-07
2.09625e-07
-5.11922e-07
2.08856e-07
-5.47883e-07
2.06825e-07
-5.83223e-07
2.03559e-07
-6.17742e-07
1.99081e-07
-6.51239e-07
1.93411e-07
-6.8352e-07
1.86567e-07
-7.1439e-07
1.78565e-07
-7.43658e-07
1.6942e-07
-7.71138e-07
1.59152e-07
-7.96647e-07
1.47783e-07
-8.20007e-07
1.35339e-07
-8.41047e-07
1.21855e-07
-8.59604e-07
1.07374e-07
-8.75523e-07
9.19477e-08
-8.8866e-07
7.56396e-08
-8.98886e-07
5.85252e-08
-9.06083e-07
4.06929e-08
-9.10153e-07
2.22447e-08
-9.11014e-07
3.29595e-09
-9.08607e-07
-1.60241e-08
-9.02895e-07
-3.55732e-08
-8.93864e-07
-5.51967e-08
-8.81527e-07
-7.47285e-08
-8.65927e-07
-9.39928e-08
-8.47132e-07
-1.12806e-07
-8.25243e-07
-1.30978e-07
-8.0039e-07
-1.48316e-07
-7.72734e-07
-1.64627e-07
-7.42466e-07
-1.79719e-07
-7.09807e-07
-1.93407e-07
-6.75007e-07
-2.05515e-07
-6.38342e-07
-2.15878e-07
-6.00113e-07
-2.2435e-07
-5.60642e-07
-2.30801e-07
-5.20269e-07
-2.35127e-07
-4.79349e-07
-2.37246e-07
-4.38246e-07
-2.37108e-07
-3.97329e-07
-2.34693e-07
-3.56969e-07
-2.30013e-07
-3.17529e-07
-2.23117e-07
-2.79361e-07
-2.14089e-07
-2.42799e-07
-2.03052e-07
-2.08155e-07
-1.90165e-07
-1.75711e-07
-1.75626e-07
-1.45715e-07
-1.59674e-07
-1.18373e-07
-1.42582e-07
-9.38462e-08
-1.24668e-07
-7.22469e-08
-1.06285e-07
-5.36332e-08
-8.78283e-08
-3.80073e-08
-6.97366e-08
-2.53138e-08
-5.24922e-08
-1.54393e-08
-3.66264e-08
-8.21433e-09
-2.27233e-08
-3.41635e-09
-1.14272e-08
-7.77382e-10
-3.449e-09
4.51321e-10
-2.29936e-09
8.15268e-09
-8.90782e-09
2.76442e-08
-1.95361e-08
4.88471e-08
-3.38999e-08
7.06001e-08
-5.17286e-08
9.22605e-08
-7.27593e-08
1.13336e-07
-9.67322e-08
1.33433e-07
-1.23388e-07
1.52255e-07
-1.52468e-07
1.6959e-07
-1.83713e-07
1.85295e-07
-2.16865e-07
1.99283e-07
-2.5167e-07
2.11513e-07
-2.87875e-07
2.21975e-07
-3.25231e-07
2.30682e-07
-3.63494e-07
2.37663e-07
-4.02425e-07
2.42959e-07
-4.41789e-07
2.46612e-07
-4.81355e-07
2.48667e-07
-5.20897e-07
2.49167e-07
-5.60193e-07
2.48152e-07
-5.99024e-07
2.45656e-07
-6.37175e-07
2.4171e-07
-6.74434e-07
2.36339e-07
-7.10589e-07
2.29567e-07
-7.45434e-07
2.21412e-07
-7.78764e-07
2.11894e-07
-8.10377e-07
2.01033e-07
-8.40076e-07
1.8885e-07
-8.67665e-07
1.75372e-07
-8.92958e-07
1.60631e-07
-9.15771e-07
1.44668e-07
-9.35931e-07
1.27534e-07
-9.53273e-07
1.0929e-07
-9.67643e-07
9.00103e-08
-9.78903e-07
6.97844e-08
-9.86925e-07
4.87156e-08
-9.91604e-07
2.69229e-08
-9.92849e-07
4.54134e-09
-9.90594e-07
-1.82786e-08
-9.84797e-07
-4.13711e-08
-9.75438e-07
-6.45558e-08
-9.62527e-07
-8.76395e-08
-9.46102e-07
-1.10417e-07
-9.26233e-07
-1.32675e-07
-9.0302e-07
-1.54191e-07
-8.76594e-07
-1.74741e-07
-8.47123e-07
-1.94098e-07
-8.14802e-07
-2.12039e-07
-7.79862e-07
-2.28347e-07
-7.42562e-07
-2.42814e-07
-7.03192e-07
-2.55248e-07
-6.62069e-07
-2.65474e-07
-6.19531e-07
-2.73339e-07
-5.75939e-07
-2.78718e-07
-5.3167e-07
-2.81515e-07
-4.87113e-07
-2.81665e-07
-4.42662e-07
-2.79143e-07
-3.98715e-07
-2.7396e-07
-3.55663e-07
-2.66169e-07
-3.13888e-07
-2.55864e-07
-2.73754e-07
-2.43186e-07
-2.35601e-07
-2.28318e-07
-1.99741e-07
-2.11486e-07
-1.6645e-07
-1.92965e-07
-1.35962e-07
-1.7307e-07
-1.08467e-07
-1.52164e-07
-8.41e-08
-1.30651e-07
-6.29459e-08
-1.08982e-07
-4.5031e-08
-8.76514e-08
-3.03241e-08
-6.71992e-08
-1.87364e-08
-4.82141e-08
-1.01242e-08
-3.13356e-08
-4.29301e-09
-1.72583e-08
-1.00596e-09
-6.73606e-09
-5.54642e-10
-2.60351e-09
1.07561e-08
-1.00357e-08
3.50763e-08
-2.19249e-08
6.07363e-08
-3.79136e-08
8.65888e-08
-5.76661e-08
1.12013e-07
-8.08637e-08
1.36533e-07
-1.07199e-07
1.59768e-07
-1.36373e-07
1.8143e-07
-1.68094e-07
2.01311e-07
-2.02076e-07
2.19277e-07
-2.38039e-07
2.35246e-07
-2.75708e-07
2.49183e-07
-3.14816e-07
2.61083e-07
-3.551e-07
2.70966e-07
-3.96304e-07
2.78867e-07
-4.38176e-07
2.84832e-07
-4.80473e-07
2.88909e-07
-5.22953e-07
2.91148e-07
-5.65382e-07
2.91596e-07
-6.07528e-07
2.90298e-07
-6.49162e-07
2.87291e-07
-6.90061e-07
2.82608e-07
-7.30001e-07
2.7628e-07
-7.68764e-07
2.68329e-07
-8.06131e-07
2.5878e-07
-8.4189e-07
2.47653e-07
-8.75827e-07
2.3497e-07
-9.07734e-07
2.20758e-07
-9.37409e-07
2.05047e-07
-9.64652e-07
1.87874e-07
-9.8927e-07
1.69287e-07
-1.01108e-06
1.49344e-07
-1.02991e-06
1.28116e-07
-1.04559e-06
1.0569e-07
-1.05797e-06
8.21672e-08
-1.06692e-06
5.76667e-08
-1.07232e-06
3.23252e-08
-1.07408e-06
6.29729e-09
-1.07211e-06
-2.02444e-08
-1.06637e-06
-4.71099e-08
-1.05684e-06
-7.40926e-08
-1.04351e-06
-1.00971e-07
-1.02641e-06
-1.27509e-07
-1.00563e-06
-1.53463e-07
-9.8124e-07
-1.78576e-07
-9.5339e-07
-2.02591e-07
-9.22242e-07
-2.25246e-07
-8.87997e-07
-2.46284e-07
-8.50892e-07
-2.65453e-07
-8.11194e-07
-2.82512e-07
-7.69204e-07
-2.97237e-07
-7.25253e-07
-3.09425e-07
-6.79697e-07
-3.18896e-07
-6.32915e-07
-3.255e-07
-5.85306e-07
-3.29124e-07
-5.37282e-07
-3.29689e-07
-4.89267e-07
-3.27159e-07
-4.41683e-07
-3.21543e-07
-3.94954e-07
-3.12898e-07
-3.49491e-07
-3.01327e-07
-3.0569e-07
-2.86987e-07
-2.63925e-07
-2.70083e-07
-2.24539e-07
-2.50872e-07
-1.8784e-07
-2.29664e-07
-1.54093e-07
-2.06817e-07
-1.23518e-07
-1.82739e-07
-9.62803e-08
-1.57889e-07
-7.24926e-08
-1.3277e-07
-5.22085e-08
-1.07936e-07
-3.54235e-08
-8.39842e-08
-2.20752e-08
-6.15624e-08
-1.20459e-08
-4.13648e-08
-5.16792e-09
-2.41364e-08
-1.23114e-09
-1.06728e-08
-1.78579e-09
-2.8968e-09
1.36528e-08
-1.11277e-08
4.33071e-08
-2.42442e-08
7.38527e-08
-4.18195e-08
1.04164e-07
-6.34556e-08
1.33649e-07
-8.87791e-08
1.61857e-07
-1.17436e-07
1.88425e-07
-1.49086e-07
2.1308e-07
-1.83405e-07
2.3563e-07
-2.20079e-07
2.55951e-07
-2.58805e-07
2.73972e-07
-2.99289e-07
2.89667e-07
-3.41247e-07
3.0304e-07
-3.84402e-07
3.14121e-07
-4.28487e-07
3.22952e-07
-4.73242e-07
3.29586e-07
-5.1841e-07
3.34077e-07
-5.63745e-07
3.36482e-07
-6.09001e-07
3.36852e-07
-6.53939e-07
3.35236e-07
-6.98324e-07
3.31675e-07
-7.41922e-07
3.26207e-07
-7.84504e-07
3.18861e-07
-8.25842e-07
3.09667e-07
-8.65709e-07
2.98647e-07
-9.03883e-07
2.85827e-07
-9.40143e-07
2.7123e-07
-9.74272e-07
2.54887e-07
-1.00606e-06
2.36831e-07
-1.03529e-06
2.17105e-07
-1.06176e-06
1.95763e-07
-1.08529e-06
1.72871e-07
-1.10568e-06
1.48509e-07
-1.12277e-06
1.22774e-07
-1.13638e-06
9.57828e-08
-1.14639e-06
6.76681e-08
-1.15265e-06
3.85846e-08
-1.15506e-06
8.70699e-09
-1.15353e-06
-2.177e-08
-1.14801e-06
-5.26316e-08
-1.13846e-06
-8.36444e-08
-1.12487e-06
-1.14558e-07
-1.10727e-06
-1.45105e-07
-1.08573e-06
-1.75008e-07
-1.06033e-06
-2.03977e-07
-1.0312e-06
-2.31718e-07
-9.98513e-07
-2.57934e-07
-9.62468e-07
-2.82329e-07
-9.23306e-07
-3.04615e-07
-8.81301e-07
-3.24517e-07
-8.36764e-07
-3.41775e-07
-7.90037e-07
-3.56152e-07
-7.41493e-07
-3.6744e-07
-6.91529e-07
-3.75464e-07
-6.40566e-07
-3.80087e-07
-5.89041e-07
-3.81213e-07
-5.37404e-07
-3.78796e-07
-4.86109e-07
-3.72838e-07
-4.3561e-07
-3.63397e-07
-3.86352e-07
-3.50585e-07
-3.38767e-07
-3.34573e-07
-2.93261e-07
-3.15588e-07
-2.50216e-07
-2.93917e-07
-2.09974e-07
-2.69906e-07
-1.72836e-07
-2.43955e-07
-1.39054e-07
-2.16521e-07
-1.08829e-07
-1.88114e-07
-8.23032e-08
-1.59296e-07
-5.95612e-08
-1.30678e-07
-4.0627e-08
-1.02918e-07
-2.54658e-08
-7.67236e-08
-1.3986e-08
-5.28446e-08
-6.04446e-09
-3.20779e-08
-1.45435e-09
-1.5263e-08
-3.24014e-09
-3.1805e-09
1.68332e-08
-1.21848e-08
5.23113e-08
-2.64932e-08
8.81611e-08
-4.56136e-08
1.23284e-07
-6.90884e-08
1.57124e-07
-9.64911e-08
1.8926e-07
-1.27421e-07
2.19355e-07
-1.615e-07
2.47159e-07
-1.98368e-07
2.72499e-07
-2.37685e-07
2.95267e-07
-2.79123e-07
3.1541e-07
-3.22369e-07
3.32913e-07
-3.67123e-07
3.47794e-07
-4.13096e-07
3.60094e-07
-4.60008e-07
3.69865e-07
-5.07589e-07
3.77167e-07
-5.55575e-07
3.82064e-07
-6.0371e-07
3.84617e-07
-6.51744e-07
3.84886e-07
-6.99429e-07
3.82921e-07
-7.46524e-07
3.7877e-07
-7.92788e-07
3.72471e-07
-8.37984e-07
3.64058e-07
-8.81879e-07
3.53561e-07
-9.24238e-07
3.41006e-07
-9.64832e-07
3.2642e-07
-1.00343e-06
3.09829e-07
-1.03981e-06
2.91266e-07
-1.07375e-06
2.70768e-07
-1.10502e-06
2.48383e-07
-1.13343e-06
2.24169e-07
-1.15876e-06
1.98201e-07
-1.18082e-06
1.70568e-07
-1.19942e-06
1.41378e-07
-1.2144e-06
1.10758e-07
-1.22559e-06
7.88587e-08
-1.23285e-06
4.58511e-08
-1.23608e-06
1.19296e-08
-1.23516e-06
-2.26886e-08
-1.23003e-06
-5.7764e-08
-1.22064e-06
-9.3036e-08
-1.20697e-06
-1.28224e-07
-1.18904e-06
-1.6303e-07
-1.16691e-06
-1.9714e-07
-1.14066e-06
-2.30231e-07
-1.11041e-06
-2.6197e-07
-1.07632e-06
-2.92021e-07
-1.0386e-06
-3.20049e-07
-9.97486e-07
-3.45728e-07
-9.53261e-07
-3.68742e-07
-9.06241e-07
-3.88794e-07
-8.56781e-07
-4.05612e-07
-8.05267e-07
-4.18955e-07
-7.52115e-07
-4.28616e-07
-6.97768e-07
-4.34434e-07
-6.42689e-07
-4.36293e-07
-5.87354e-07
-4.3413e-07
-5.32251e-07
-4.27941e-07
-4.77868e-07
-4.17781e-07
-4.24685e-07
-4.03768e-07
-3.73172e-07
-3.86086e-07
-3.23776e-07
-3.64983e-07
-2.76916e-07
-3.40777e-07
-2.32976e-07
-3.13847e-07
-1.92293e-07
-2.84637e-07
-1.5516e-07
-2.53654e-07
-1.21814e-07
-2.21461e-07
-9.24308e-08
-1.88679e-07
-6.71294e-08
-1.55979e-07
-4.59642e-08
-1.24083e-07
-2.89287e-08
-9.37591e-08
-1.59572e-08
-6.58161e-08
-6.92943e-09
-4.11057e-08
-1.67748e-09
-2.05149e-08
-4.91763e-09
-3.45432e-09
2.02875e-08
-1.32071e-08
6.2064e-08
-2.86717e-08
1.03626e-07
-4.92936e-08
1.43906e-07
-7.45588e-08
1.82389e-07
-1.0399e-07
2.1869e-07
-1.3714e-07
2.52506e-07
-1.73594e-07
2.83612e-07
-2.12958e-07
3.11863e-07
-2.54862e-07
3.37172e-07
-2.98957e-07
3.59505e-07
-3.44911e-07
3.78866e-07
-3.92407e-07
3.9529e-07
-4.41143e-07
4.0883e-07
-4.90828e-07
4.1955e-07
-5.41183e-07
4.27522e-07
-5.91937e-07
4.32817e-07
-6.42826e-07
4.35507e-07
-6.93594e-07
4.35654e-07
-7.43988e-07
4.33315e-07
-7.93761e-07
4.28542e-07
-8.42666e-07
4.21376e-07
-8.90462e-07
4.11854e-07
-9.36907e-07
4.00007e-07
-9.81764e-07
3.85863e-07
-1.02479e-06
3.6945e-07
-1.06576e-06
3.50797e-07
-1.10443e-06
3.29938e-07
-1.14058e-06
3.06915e-07
-1.17397e-06
2.81778e-07
-1.2044e-06
2.54591e-07
-1.23163e-06
2.25436e-07
-1.25547e-06
1.94409e-07
-1.27572e-06
1.61629e-07
-1.2922e-06
1.27236e-07
-1.30474e-06
9.13932e-08
-1.31317e-06
5.429e-08
-1.31738e-06
1.61396e-08
-1.31725e-06
-2.28187e-08
-1.3127e-06
-6.23207e-08
-1.30366e-06
-1.02078e-07
-1.2901e-06
-1.41781e-07
-1.27203e-06
-1.81097e-07
-1.24949e-06
-2.1968e-07
-1.22256e-06
-2.57167e-07
-1.19134e-06
-2.93186e-07
-1.156e-06
-3.27361e-07
-1.11673e-06
-3.59316e-07
-1.07378e-06
-3.88681e-07
-1.02742e-06
-4.15099e-07
-9.77985e-07
-4.38232e-07
-9.2583e-07
-4.57767e-07
-8.71358e-07
-4.73427e-07
-8.15004e-07
-4.8497e-07
-7.57232e-07
-4.92206e-07
-6.9853e-07
-4.94994e-07
-6.39407e-07
-4.93253e-07
-5.80383e-07
-4.86966e-07
-5.21981e-07
-4.76183e-07
-4.64723e-07
-4.61026e-07
-4.09119e-07
-4.41689e-07
-3.5566e-07
-4.18442e-07
-3.04809e-07
-3.91628e-07
-2.56992e-07
-3.61664e-07
-2.12592e-07
-3.29037e-07
-1.71943e-07
-2.94303e-07
-1.35322e-07
-2.58082e-07
-1.02946e-07
-2.21055e-07
-7.49682e-08
-1.83957e-07
-5.14759e-08
-1.47576e-07
-3.24922e-08
-1.12743e-07
-1.7977e-08
-8.03313e-08
-7.83133e-09
-5.12515e-08
-1.90325e-09
-2.6443e-08
-6.82088e-09
-3.71852e-09
2.40059e-08
-1.41952e-08
7.25407e-08
-3.07793e-08
1.2021e-07
-5.28578e-08
1.65985e-07
-7.98624e-08
2.09394e-07
-1.11266e-07
2.50094e-07
-1.46581e-07
2.8782e-07
-1.85351e-07
3.22382e-07
-2.27151e-07
3.53663e-07
-2.71585e-07
3.81605e-07
-3.18279e-07
4.06199e-07
-3.66882e-07
4.2747e-07
-4.17063e-07
4.45471e-07
-4.68506e-07
4.60273e-07
-5.20911e-07
4.71954e-07
-5.73989e-07
4.806e-07
-6.27462e-07
4.86291e-07
-6.81062e-07
4.89106e-07
-7.34525e-07
4.89117e-07
-7.87595e-07
4.86386e-07
-8.40019e-07
4.80966e-07
-8.91549e-07
4.72905e-07
-9.41936e-07
4.62241e-07
-9.90935e-07
4.49006e-07
-1.0383e-06
4.3323e-07
-1.0838e-06
4.14942e-07
-1.12717e-06
3.94173e-07
-1.16819e-06
3.70958e-07
-1.20662e-06
3.4534e-07
-1.24221e-06
3.17374e-07
-1.27475e-06
2.87128e-07
-1.304e-06
2.54689e-07
-1.32975e-06
2.20161e-07
-1.35179e-06
1.83671e-07
-1.36993e-06
1.45372e-07
-1.38398e-06
1.0544e-07
-1.39377e-06
6.40807e-08
-1.39915e-06
2.15256e-08
-1.40001e-06
-2.19644e-08
-1.39623e-06
-6.61006e-08
-1.38774e-06
-1.10568e-07
-1.3745e-06
-1.55025e-07
-1.35649e-06
-1.99108e-07
-1.33373e-06
-2.42432e-07
-1.3063e-06
-2.84599e-07
-1.27429e-06
-3.25193e-07
-1.23786e-06