/*--------------------------------*- C++ -*----------------------------------*\
  =========                 |
  \\      /  F ield         | OpenFOAM: The Open Source CFD Toolbox
   \\    /   O peration     | Website:  https://openfoam.org
    \\  /    A nd           | Version:  12
     \\/     M anipulation  |
\*---------------------------------------------------------------------------*/
FoamFile
{
    format      ascii;
    class       volScalarField;
    location    "6.5";
    object      epsilon;
}
// * * * * * * * * * * * * * * * * * * * * * * * * * * * * * * * * * * * * * //

dimensions      [0 2 -3 0 0 0 0];

internalField   nonuniform List<scalar> 
5625
(
3.68718e-07
2.49395e-06
5.55065e-06
9.1835e-06
1.32232e-05
1.75641e-05
2.21348e-05
2.68899e-05
3.18062e-05
3.68817e-05
4.21347e-05
4.76029e-05
5.33419e-05
5.94244e-05
6.59388e-05
7.29875e-05
8.06858e-05
8.91605e-05
9.8548e-05
0.000108993
0.000120649
0.000133674
0.000148229
0.000164479
0.00018259
0.000202727
0.000225051
0.000249718
0.000276877
0.00030667
0.000339227
0.000374665
0.000413089
0.00045459
0.000499242
0.000547104
0.000598215
0.000652596
0.000710245
0.000771131
0.000835191
0.000902316
0.000972341
0.00104502
0.00112002
0.00119687
0.00127493
0.00135338
0.00143117
0.00150694
0.00157907
0.00164557
0.00170406
0.00175164
0.00178385
0.00179831
0.00179887
0.00177577
0.00172773
0.00165456
0.00155699
0.00143724
0.00129914
0.00114802
0.000990266
0.000832604
0.000681351
0.000541689
0.00041717
0.000309548
0.000218932
0.000144231
8.38699e-05
3.68644e-05
5.42984e-06
6.96703e-07
1.35838e-06
2.72161e-06
4.40547e-06
6.29672e-06
8.33712e-06
1.04904e-05
1.27339e-05
1.50563e-05
1.74566e-05
1.99432e-05
2.25339e-05
2.5255e-05
2.8141e-05
3.12336e-05
3.45817e-05
3.82399e-05
4.22687e-05
4.67332e-05
5.17027e-05
5.72503e-05
6.3452e-05
7.0386e-05
7.8132e-05
8.67705e-05
9.63821e-05
0.000107046
0.00011884
0.000131839
0.000146115
0.000161733
0.000178756
0.000197239
0.000217232
0.000238775
0.000261902
0.000286638
0.000312996
0.000340978
0.000370568
0.000401733
0.000434413
0.000468517
0.000503911
0.000540407
0.00057775
0.000615599
0.000653517
0.000690945
0.000727193
0.000761425
0.000792646
0.000819688
0.000841151
0.000854919
0.000860297
0.000858562
0.000845628
0.00082098
0.000784656
0.000737154
0.000679616
0.00061389
0.00054245
0.000468198
0.000394163
0.000323177
0.000257568
0.000198951
0.000148149
0.000105267
6.98957e-05
4.14946e-05
2.01817e-05
1.02501e-05
1.48019e-06
1.32385e-06
2.09769e-06
3.18918e-06
4.4571e-06
5.84343e-06
7.31684e-06
8.85926e-06
1.04618e-05
1.21233e-05
1.38493e-05
1.56523e-05
1.75505e-05
1.95681e-05
2.17345e-05
2.40841e-05
2.66558e-05
2.94927e-05
3.26415e-05
3.61524e-05
4.00786e-05
4.4476e-05
4.94028e-05
5.4919e-05
6.1086e-05
6.79664e-05
7.56229e-05
8.41182e-05
9.35142e-05
0.000103872
0.000115249
0.000127701
0.00014128
0.000156033
0.000172002
0.000189219
0.00020771
0.00022749
0.000248558
0.000270897
0.000294468
0.000319207
0.000345013
0.000371746
0.000399216
0.000427175
0.000455307
0.000483218
0.000510428
0.000536369
0.000560379
0.000581707
0.0005995
0.000612736
0.00061984
0.000621329
0.000617017
0.00060483
0.000584581
0.000556461
0.000520976
0.000479029
0.000431945
0.00038141
0.00032934
0.000277702
0.000228315
0.000182675
0.00014183
0.000106344
7.63516e-05
5.17294e-05
3.24661e-05
1.97039e-05
2.16905e-05
2.42205e-06
1.58694e-06
1.98454e-06
2.75064e-06
3.70154e-06
4.76842e-06
5.91773e-06
7.13147e-06
8.40097e-06
9.72458e-06
1.11066e-05
1.2557e-05
1.40907e-05
1.57275e-05
1.74918e-05
1.94121e-05
2.15212e-05
2.38556e-05
2.64553e-05
2.9364e-05
3.26284e-05
3.62984e-05
4.04268e-05
4.50691e-05
5.02836e-05
5.61304e-05
6.26717e-05
6.99712e-05
7.80935e-05
8.71033e-05
9.70647e-05
0.00010804
0.000120087
0.00013326
0.000147607
0.000163164
0.000179956
0.000197991
0.000217257
0.000237719
0.00025931
0.000281929
0.000305434
0.000329637
0.000354301
0.000379134
0.000403788
0.000427857
0.000450875
0.000472319
0.000491622
0.000508177
0.000521354
0.00053002
0.000533495
0.000532628
0.000526407
0.00051382
0.000494794
0.000469538
0.000438496
0.000402422
0.000362393
0.000319774
0.00027611
0.000232988
0.000191871
0.000153955
0.000120076
9.07003e-05
6.59928e-05
4.60144e-05
3.11632e-05
2.35129e-05
3.52384e-05
3.49405e-06
1.99561e-06
2.0923e-06
2.62787e-06
3.3718e-06
4.24085e-06
5.19661e-06
6.21938e-06
7.29975e-06
8.43551e-06
9.6302e-06
1.08925e-05
1.22358e-05
1.3678e-05
1.52413e-05
1.69522e-05
1.88409e-05
2.0942e-05
2.32938e-05
2.59384e-05
2.8922e-05
3.22946e-05
3.61104e-05
4.04271e-05
4.53067e-05
5.08147e-05
5.70199e-05
6.39944e-05
7.18126e-05
8.05501e-05
9.02828e-05
0.000101083
0.00011302
0.000126155
0.000140539
0.000156205
0.00017317
0.000191422
0.00021092
0.000231587
0.000253305
0.000275916
0.000299207
0.000322924
0.000346767
0.000370396
0.000393439
0.000415493
0.000436127
0.000454894
0.000471343
0.00048502
0.000495489
0.000501508
0.000503348
0.00050144
0.000494676
0.000482396
0.000464444
0.000440868
0.000411966
0.000378329
0.000340885
0.000300882
0.000259797
0.000219181
0.000180484
0.000144895
0.000113243
8.59942e-05
6.33547e-05
4.55166e-05
3.32029e-05
2.93234e-05
5.0317e-05
4.67719e-06
2.49746e-06
2.32751e-06
2.67829e-06
3.26822e-06
3.99844e-06
4.82444e-06
5.72406e-06
6.68679e-06
7.70977e-06
8.79604e-06
9.95377e-06
1.11958e-05
1.25394e-05
1.40064e-05
1.56228e-05
1.74191e-05
1.94301e-05
2.16951e-05
2.42582e-05
2.71683e-05
3.04793e-05
3.42505e-05
3.85463e-05
4.34369e-05
4.89973e-05
5.53078e-05
6.24532e-05
7.05213e-05
7.96021e-05
8.97853e-05
0.000101154
0.000113778
0.000127725
0.000143041
0.000159746
0.000177828
0.00019724
0.000217888
0.000239633
0.000262289
0.000285621
0.000309343
0.000333134
0.000356649
0.000379528
0.000401413
0.00042196
0.00044082
0.000457672
0.000472213
0.000484144
0.0004932
0.000498361
0.000499977
0.000498419
0.000492475
0.000481504
0.000465155
0.000443236
0.000415785
0.000383189
0.000346255
0.00030621
0.000264618
0.0002232
0.000183614
0.000147242
0.000115056
8.76087e-05
6.51675e-05
4.80247e-05
3.71779e-05
3.63054e-05
6.64814e-05
5.96028e-06
3.06928e-06
2.64941e-06
2.84174e-06
3.30802e-06
3.93371e-06
4.66736e-06
5.48379e-06
6.37129e-06
7.32639e-06
8.35191e-06
9.45595e-06
1.06515e-05
1.19561e-05
1.33923e-05
1.4987e-05
1.67723e-05
1.87853e-05
2.10683e-05
2.36694e-05
2.66427e-05
3.00487e-05
3.39547e-05
3.8435e-05
4.357e-05
4.94472e-05
5.61612e-05
6.38113e-05
7.25001e-05
8.23313e-05
9.34076e-05
0.000105822
0.000119657
0.000134967
0.000151781
0.000170088
0.000189832
0.000210902
0.00023313
0.000256291
0.000280103
0.000304238
0.00032835
0.000352076
0.00037506
0.000396973
0.00041753
0.000436489
0.000453683
0.000468979
0.000482267
0.000493431
0.000502288
0.000508289
0.000510998
0.000511082
0.000507298
0.000498778
0.000484863
0.000465011
0.000438963
0.00040688
0.000369444
0.000327899
0.000283971
0.000239671
0.000197008
0.000157712
0.000123035
9.37115e-05
7.01099e-05
5.26139e-05
4.24686e-05
4.40642e-05
8.34116e-05
7.3373e-06
3.69948e-06
3.03718e-06
3.08755e-06
3.45009e-06
3.99362e-06
4.65947e-06
5.41946e-06
6.26033e-06
7.1781e-06
8.17552e-06
9.26102e-06
1.04482e-05
1.17559e-05
1.32079e-05
1.48333e-05
1.66669e-05
1.87493e-05
2.11273e-05
2.38549e-05
2.69931e-05
3.0611e-05
3.4786e-05
3.96044e-05
4.51613e-05
5.15601e-05
5.89109e-05
6.73296e-05
7.69348e-05
8.78433e-05
0.000100163
0.000113989
0.000129397
0.000146421
0.000165056
0.000185237
0.00020684
0.000229669
0.000253461
0.000277892
0.000302591
0.00032716
0.000351209
0.000374375
0.000396351
0.000416909
0.000435905
0.000453283
0.000469064
0.000483305
0.000496064
0.000507344
0.000517024
0.000524796
0.000530226
0.000532647
0.00053198
0.000526745
0.000515932
0.000498604
0.000474187
0.000442595
0.000404358
0.000360715
0.000313551
0.000265194
0.000218084
0.000174409
0.000135823
0.000103346
7.75128e-05
5.88193e-05
4.87494e-05
5.23821e-05
0.000100883
8.80558e-06
4.38213e-06
3.47918e-06
3.39821e-06
3.67129e-06
4.14868e-06
4.76458e-06
5.48747e-06
6.3027e-06
7.2058e-06
8.19968e-06
9.29342e-06
1.05018e-05
1.1845e-05
1.33492e-05
1.50463e-05
1.69749e-05
1.91802e-05
2.17155e-05
2.46418e-05
2.80292e-05
3.19572e-05
3.65155e-05
4.18036e-05
4.79319e-05
5.502e-05
6.31951e-05
7.25888e-05
8.33334e-05
9.55546e-05
0.000109363
0.000124847
0.000142056
0.000160991
0.000181587
0.000203707
0.000227133
0.000251568
0.000276642
0.000301934
0.000326997
0.000351397
0.000374749
0.000396753
0.000417216
0.00043607
0.000453364
0.000469248
0.000483934
0.000497647
0.000510564
0.000522754
0.000534121
0.000544366
0.000553031
0.000559101
0.000561554
0.00056005
0.000552796
0.000538409
0.000516009
0.000485248
0.000446458
0.000400793
0.000350226
0.000297363
0.000245082
0.000196101
0.000152582
0.000115948
8.69949e-05
6.63767e-05
5.5836e-05
6.1132e-05
0.000118748
1.03648e-05
5.11432e-06
3.96869e-06
3.76321e-06
3.95745e-06
4.38088e-06
4.96069e-06
5.66176e-06
6.46801e-06
7.37459e-06
8.38477e-06
9.50853e-06
1.07621e-05
1.21679e-05
1.37548e-05
1.55585e-05
1.76223e-05
1.99972e-05
2.27435e-05
2.59308e-05
2.96395e-05
3.39609e-05
3.89984e-05
4.48667e-05
5.16924e-05
5.9612e-05
6.87686e-05
7.93081e-05
9.13722e-05
0.00010509
0.000120564
0.00013786
0.000156992
0.000177899
0.000200442
0.000224385
0.000249401
0.00027508
0.00030095
0.000326509
0.000351272
0.000374816
0.000396826
0.000417127
0.000435697
0.000452669
0.000468301
0.000482935
0.000496941
0.000510653
0.000524304
0.000537967
0.000551514
0.000564582
0.000576564
0.000586551
0.000592702
0.000594477
0.000591047
0.000579969
0.00056008
0.000530768
0.000492097
0.000445031
0.000391504
0.000334292
0.000276663
0.000221888
0.000172735
0.000131157
9.83229e-05
7.51289e-05
6.36208e-05
7.02442e-05
0.000136943
1.20164e-05
5.895e-06
4.50183e-06
4.17608e-06
4.29944e-06
4.67863e-06
5.2337e-06
5.9256e-06
6.73683e-06
7.66225e-06
8.70564e-06
9.87814e-06
1.11978e-05
1.26897e-05
1.43862e-05
1.63272e-05
1.85615e-05
2.1147e-05
2.4152e-05
2.76559e-05
3.17504e-05
3.65401e-05
4.21428e-05
4.86896e-05
5.63233e-05
6.51967e-05
7.54673e-05
8.72914e-05
0.000100814
0.000116159
0.000133408
0.000152591
0.000173662
0.000196484
0.000220816
0.000246311
0.000272524
0.000298935
0.000324986
0.000350134
0.000373904
0.000395946
0.000416077
0.0004343
0.0004508
0.000465919
0.000480104
0.000493843
0.000507602
0.000521751
0.000536514
0.000551916
0.00056776
0.000583598
0.00059872
0.000612135
0.000622362
0.000627068
0.000627221
0.000619779
0.000602953
0.000575885
0.00053831
0.000490875
0.000435316
0.000374418
0.000311734
0.000251066
0.00019586
0.000148727
0.000111352
8.49822e-05
7.20432e-05
7.96732e-05
0.0001554
1.37631e-05
6.72435e-06
5.07657e-06
4.63273e-06
4.69119e-06
5.03425e-06
5.57419e-06
6.26784e-06
7.09626e-06
8.05409e-06
9.14573e-06
1.03838e-05
1.17884e-05
1.33878e-05
1.52181e-05
1.73245e-05
1.97617e-05
2.25954e-05
2.59028e-05
2.97742e-05
3.43136e-05
3.96395e-05
4.58853e-05
5.31979e-05
6.17365e-05
7.16683e-05
8.3162e-05
9.6379e-05
0.00011146
0.000128511
0.00014758
0.000168641
0.000191571
0.000216134
0.000241976
0.000268627
0.000295527
0.000322065
0.000347633
0.000371695
0.000393847
0.000413875
0.000431775
0.000447762
0.000462231
0.000475708
0.000488777
0.000502009
0.000515888
0.000530757
0.000546775
0.00056389
0.000581824
0.000600065
0.000617848
0.000634146
0.000647761
0.000656059
0.000658809
0.000655266
0.000642048
0.000618085
0.00058274
0.00053623
0.000479918
0.000416404
0.00034936
0.000283048
0.000221624
0.000168489
0.000126
9.5885e-05
8.10753e-05
8.9401e-05
0.000174107
1.56086e-05
7.60339e-06
5.69206e-06
5.13069e-06
5.12873e-06
5.44256e-06
5.97575e-06
6.6809e-06
7.53755e-06
8.54016e-06
9.6939e-06
1.1013e-05
1.25201e-05
1.42468e-05
1.62336e-05
1.85314e-05
2.12018e-05
2.43188e-05
2.79694e-05
3.22555e-05
3.72942e-05
4.32185e-05
5.01772e-05
5.83332e-05
6.78602e-05
7.89371e-05
9.17393e-05
0.000106426
0.000123124
0.000141907
0.000162774
0.000185624
0.000210241
0.000236273
0.000263243
0.000290562
0.000317572
0.000343602
0.000368046
0.00039043
0.000410484
0.000428172
0.000443706
0.000457512
0.000470168
0.000482335
0.000494665
0.000507736
0.000521988
0.000537683
0.000554886
0.000573459
0.000593061
0.000613147
0.000632958
0.00065152
0.000667739
0.000679538
0.000684753
0.00068479
0.000675646
0.000655587
0.000623612
0.000579418
0.000523835
0.000459071
0.000388703
0.000317312
0.000249752
0.000190319
0.00014222
0.000107819
9.07143e-05
9.94307e-05
0.000193085
1.75578e-05
8.53377e-06
6.34831e-06
5.66862e-06
5.60947e-06
5.90012e-06
6.43399e-06
7.15957e-06
8.05471e-06
9.11368e-06
1.03425e-05
1.17572e-05
1.33833e-05
1.52561e-05
1.7421e-05
1.99349e-05
2.2867e-05
2.63002e-05
3.03322e-05
3.50769e-05
4.06649e-05
4.7244e-05
5.4978e-05
6.40445e-05
7.46293e-05
8.69193e-05
0.00010109
0.00011729
0.000135619
0.000156107
0.000178685
0.000203162
0.00022921
0.000256357
0.000284001
0.000311449
0.000337974
0.000362895
0.000385657
0.000405912
0.000423567
0.0004388
0.000452038
0.000463893
0.000475079
0.00048632
0.000498271
0.000511448
0.000526198
0.000542674
0.000560842
0.000580487
0.000601232
0.000622542
0.000643712
0.000663864
0.00068198
0.000696575
0.000705007
0.000707586
0.000702842
0.000687316
0.000659703
0.000619149
0.000565834
0.000501362
0.000428971
0.000353354
0.000279983
0.000214118
0.000159991
0.000120794
0.000100976
0.00010978
0.000212376
1.9616e-05
9.51764e-06
7.04597e-06
6.24597e-06
6.13201e-06
6.4046e-06
6.94597e-06
7.70032e-06
8.64367e-06
9.77004e-06
1.10864e-05
1.26108e-05
1.43717e-05
1.64084e-05
1.87718e-05
2.15253e-05
2.47462e-05
2.85267e-05
3.29757e-05
3.82195e-05
4.44024e-05
5.16865e-05
6.025e-05
7.02827e-05
8.19796e-05
9.553e-05
0.000111102
0.000128824
0.000148756
0.000170868
0.000195008
0.00022088
0.000248038
0.000275884
0.000303707
0.000330735
0.000356216
0.000379507
0.000400164
0.000418011
0.000433163
0.00044602
0.0004572
0.000467456
0.000477573
0.000488275
0.000500149
0.000513607
0.000528878
0.000545997
0.000564839
0.000585138
0.000606509
0.000628463
0.000650381
0.000671516
0.000691001
0.000707572
0.000719216
0.00072418
0.00072347
0.000712847
0.000690322
0.000654517
0.000604906
0.000542319
0.00046939
0.000390657
0.000312046
0.000239789
0.000179303
0.000134831
0.00011189
0.000120478
0.000232036
2.17894e-05
1.05576e-05
7.78612e-06
6.86282e-06
6.69564e-06
6.95461e-06
7.50982e-06
8.30089e-06
9.30177e-06
1.05062e-05
1.19221e-05
1.35697e-05
1.54805e-05
1.76985e-05
2.028e-05
2.32954e-05
2.68306e-05
3.09875e-05
3.58865e-05
4.16662e-05
4.84847e-05
5.65174e-05
6.59551e-05
7.69974e-05
8.9844e-05
0.00010468
0.000121659
0.000140874
0.000162337
0.000185941
0.000211437
0.000238418
0.000266313
0.000294412
0.000321913
0.000348004
0.000371955
0.000393216
0.000411503
0.000426843
0.000439573
0.000450292
0.00045977
0.000468844
0.000478304
0.000488816
0.000500855
0.000514696
0.000530448
0.000548039
0.000567273
0.000587858
0.000609426
0.000631537
0.000653686
0.000675267
0.000695567
0.000713502
0.000727804
0.000735789
0.000737972
0.000732334
0.000715275
0.000684993
0.000640281
0.000581088
0.000509194
0.000428668
0.000345631
0.000267217
0.000200153
0.000149962
0.000123493
0.00013156
0.000252128
2.40847e-05
1.16564e-05
8.57024e-06
7.51969e-06
7.30023e-06
7.54946e-06
8.12452e-06
8.95995e-06
1.00274e-05
1.13203e-05
1.28475e-05
1.46313e-05
1.67068e-05
1.91225e-05
2.19407e-05
2.52393e-05
2.91125e-05
3.36728e-05
3.90516e-05
4.54003e-05
5.28893e-05
6.17066e-05
7.20532e-05
8.41348e-05
9.81504e-05
0.000114274
0.000132634
0.00015328
0.000176158
0.000201076
0.000227678
0.000255439
0.000283672
0.000311569
0.000338275
0.000362979
0.000385022
0.000403998
0.000419814
0.000432718
0.000443257
0.000452192
0.000460391
0.000468734
0.000477958
0.000488561
0.000500917
0.000515196
0.000531376
0.000549292
0.000568705
0.000589313
0.000610784
0.000632749
0.000654796
0.000676457
0.000697157
0.000715998
0.000732005
0.000743121
0.000747693
0.000746413
0.000734825
0.000710427
0.00067145
0.000616942
0.000547634
0.000466786
0.000380373
0.000296253
0.000222522
0.000166216
0.000135828
0.000143062
0.000272717
2.65091e-05
1.28174e-05
9.4001e-06
8.2175e-06
7.94612e-06
8.18906e-06
8.7897e-06
9.67688e-06
1.08198e-05
1.22113e-05
1.38611e-05
1.57939e-05
1.80483e-05
2.06775e-05
2.37501e-05
2.73515e-05
3.15849e-05
3.65728e-05
4.24581e-05
4.94037e-05
5.75921e-05
6.72216e-05
7.85003e-05
9.16361e-05
0.000106821
0.00012421
0.000143896
0.000165875
0.000190015
0.000216029
0.000243451
0.000271639
0.000299805
0.000327071
0.000352565
0.000375523
0.000395408
0.00041199
0.000425392
0.000436074
0.000444762
0.00045234
0.000459807
0.000467825
0.000477064
0.000488001
0.000500843
0.000515589
0.000532161
0.000550317
0.000569787
0.000590281
0.000611514
0.000633188
0.000654976
0.000676524
0.000697354
0.000716698
0.000733727
0.000747195
0.000754386
0.000756084
0.000749634
0.000731046
0.000698196
0.00064933
0.00058401
0.000504374
0.000415843
0.000326697
0.000246373
0.000183625
0.000148939
0.000155023
0.000293862
2.90703e-05
1.4044e-05
1.02777e-05
8.95745e-06
8.634e-06
8.87376e-06
9.50547e-06
1.04517e-05
1.16788e-05
1.31788e-05
1.49624e-05
1.70564e-05
1.95032e-05
2.23608e-05
2.57043e-05
2.96267e-05
3.42401e-05
3.96772e-05
4.60914e-05
5.3657e-05
6.25665e-05
7.30262e-05
8.52482e-05
9.94371e-05
0.000115772
0.00013438
0.000155308
0.00017849
0.000203707
0.00023057
0.000258503
0.000286761
0.000314472
0.000340724
0.000364667
0.000385633
0.00040324
0.000417463
0.000428638
0.000437417
0.000444683
0.000451476
0.000458461
0.000466507
0.000476128
0.000487623
0.000501049
0.000516337
0.000533308
0.000551684
0.000571188
0.000591554
0.000612537
0.000633897
0.000655376
0.0006767
0.000697468
0.000717026
0.000734686
0.000749478
0.000759186
0.000762904
0.000760688
0.000747428
0.000720621
0.00067792
0.000617719
0.000540785
0.000451548
0.00035829
0.000271632
0.000202205
0.000162864
0.000167478
0.000315615
3.17766e-05
1.53398e-05
1.12053e-05
9.74102e-06
9.36491e-06
9.60429e-06
1.02724e-05
1.12848e-05
1.26047e-05
1.4223e-05
1.61511e-05
1.84181e-05
2.107e-05
2.417e-05
2.77995e-05
3.20591e-05
3.707e-05
4.29743e-05
4.99357e-05
5.81383e-05
6.77827e-05
7.90807e-05
9.2244e-05
0.000107469
0.000124913
0.00014467
0.000166732
0.000190959
0.000217042
0.000244489
0.000272619
0.0003006
0.000327507
0.000352427
0.000374576
0.000393418
0.000408756
0.000420774
0.000430015
0.0004373
0.000443688
0.000449901
0.000456914
0.000465357
0.000475613
0.000487819
0.00050193
0.000517861
0.000535286
0.000553935
0.000573536
0.000593851
0.000614669
0.000635794
0.000657022
0.000678128
0.000698764
0.00071835
0.000736291
0.000751735
0.000763232
0.000768598
0.000769196
0.000760463
0.00073915
0.000702647
0.000648312
0.000575408
0.00048695
0.00039071
0.000298188
0.000221963
0.000177631
0.000180458
0.000338019
3.46365e-05
1.67089e-05
1.21854e-05
1.05699e-05
1.01402e-05
1.03817e-05
1.10914e-05
1.21771e-05
1.35982e-05
1.53442e-05
1.74273e-05
1.98785e-05
2.27474e-05
2.61024e-05
3.00313e-05
3.46424e-05
4.00651e-05
4.6451e-05
5.39729e-05
6.28228e-05
7.32078e-05
8.53414e-05
9.94306e-05
0.000115657
0.000134153
0.000154966
0.00017803
0.000203123
0.000229845
0.000257603
0.000285625
0.000313012
0.000338818
0.000362168
0.00038238
0.000399079
0.000412268
0.000422335
0.000429997
0.000436323
0.000442047
0.000448234
0.00045564
0.000464771
0.000475845
0.000488885
0.000503884
0.000520528
0.000538497
0.000557521
0.000577339
0.000597737
0.000618534
0.000639572
0.000660681
0.000681668
0.000702209
0.000721765
0.00073978
0.00075546
0.000767802
0.000774555
0.000776578
0.000771278
0.000754507
0.000723741
0.00067555
0.000607713
0.000521494
0.000423577
0.000325884
0.000242889
0.000193252
0.000193987
0.000361105
3.76593e-05
1.81553e-05
1.32205e-05
1.14459e-05
1.09612e-05
1.12072e-05
1.19637e-05
1.31297e-05
1.46602e-05
1.65433e-05
1.87911e-05
2.14368e-05
2.45337e-05
2.8155e-05
3.23949e-05
3.7369e-05
4.3215e-05
5.00925e-05
5.81824e-05
6.76832e-05
7.88054e-05
9.17607e-05
0.000106747
0.000123926
0.000143396
0.000165155
0.00018907
0.000214836
0.000241962
0.000269762
0.000297393
0.000323913
0.000348388
0.000370015
0.000388245
0.000402886
0.000414138
0.000422576
0.000429188
0.000434735
0.000440346
0.000446886
0.000454999
0.000465023
0.000477061
0.00049121
0.000507166
0.000524611
0.000543235
0.000562758
0.000582934
0.000603571
0.000624519
0.000645648
0.000666814
0.000687846
0.000708424
0.000728017
0.00074606
0.00076178
0.0007743
0.000781697
0.000784377
0.000781144
0.000767671
0.000741724
0.000699444
0.00063731
0.000554643
0.000456466
0.000354516
0.000264964
0.000209707
0.000208089
0.000384892
4.08554e-05
1.96838e-05
1.43134e-05
1.2371e-05
1.18296e-05
1.20825e-05
1.28907e-05
1.41439e-05
1.57921e-05
1.7821e-05
2.02428e-05
2.30925e-05
2.64269e-05
3.03241e-05
3.48845e-05
4.02304e-05
4.65072e-05
5.38818e-05
6.25416e-05
7.26894e-05
8.45361e-05
9.82882e-05
0.00011413
0.000132197
0.000152548
0.000175127
0.000199729
0.000225968
0.000253264
0.000280856
0.000307846
0.000333279
0.000356264
0.000376102
0.000392398
0.000405149
0.000414745
0.000422012
0.000427757
0.000433079
0.000438962
0.000446184
0.00045523
0.000466303
0.00047963
0.000494939
0.000511933
0.000530282
0.000549668
0.000569809
0.000590475
0.000611498
0.000632759
0.000654156
0.000675572
0.00069685
0.000717668
0.000737474
0.000755652
0.000771376
0.000783759
0.000791105
0.000793878
0.000791371
0.000779793
0.000757383
0.000720274
0.000663997
0.000585924
0.000488923
0.000383824
0.00028811
0.000226997
0.000222777
0.000409389
4.42348e-05
2.12988e-05
1.54671e-05
1.33475e-05
1.27474e-05
1.30092e-05
1.38742e-05
1.52214e-05
1.6995e-05
1.9178e-05
2.17823e-05
2.48445e-05
2.84245e-05
3.26054e-05
3.74931e-05
4.32166e-05
4.99278e-05
5.78e-05
6.70253e-05
7.78085e-05
9.0358e-05
0.000104871
0.000121513
0.000140391
0.000161517
0.000184779
0.000209897
0.000236408
0.000263655
0.000290814
0.000316955
0.000341141
0.000362552
0.000380614
0.000395103
0.000406199
0.000414491
0.000420844
0.000426221
0.000431701
0.000438195
0.000446349
0.000456474
0.000468961
0.000483605
0.000500149
0.000518266
0.000537603
0.000557832
0.000578679
0.000599934
0.000621455
0.000643157
0.000664975
0.000686821
0.000708558
0.000729863
0.000750147
0.000768709
0.000784604
0.000796802
0.000803655
0.000806123
0.000803202
0.000792105
0.000771708
0.000738583
0.000687793
0.000614974
0.000520497
0.000413511
0.000312209
0.00024512
0.000238055
0.000434592
4.78073e-05
2.3005e-05
1.66846e-05
1.43776e-05
1.37164e-05
1.39893e-05
1.4916e-05
1.63639e-05
1.82704e-05
2.06154e-05
2.34097e-05
2.66914e-05
3.05236e-05
3.49936e-05
4.02128e-05
4.63162e-05
5.34613e-05
6.18263e-05
7.16063e-05
8.30057e-05
9.62274e-05
0.000111456
0.000128833
0.000148432
0.000170219
0.000194018
0.000219482
0.000246073
0.00027307
0.000299604
0.000324739
0.00034758
0.000367402
0.000383774
0.000396643
0.000406353
0.000413708
0.000419512
0.000424904
0.000430883
0.000438266
0.000447469
0.00045907
0.000472987
0.000489019
0.000506863
0.000526155
0.000546524
0.00056764
0.000589236
0.000611126
0.000633205
0.000655427
0.000677774
0.0007002
0.000722595
0.000744649
0.000765734
0.000785049
0.000801478
0.000813678
0.000819926
0.000821869
0.00081772
0.000805821
0.000785821
0.000755142
0.000708955
0.000641578
0.000550769
0.000443245
0.000337121
0.000264054
0.000253924
0.000460491
5.15841e-05
2.48073e-05
1.7969e-05
1.54638e-05
1.47389e-05
1.50247e-05
1.60181e-05
1.75731e-05
1.96197e-05
2.21336e-05
2.51245e-05
2.86314e-05
3.27203e-05
3.74825e-05
4.30345e-05
4.95164e-05
5.70903e-05
6.59382e-05
7.62557e-05
8.82447e-05
0.000102099
0.000117988
0.000136027
0.00015625
0.000178575
0.000202766
0.000228409
0.000254903
0.000281474
0.000307231
0.000331255
0.000352714
0.000370998
0.000385825
0.000397313
0.000406006
0.000412657
0.000418323
0.000424069
0.000430843
0.000439199
0.000449876
0.000462979
0.000478388
0.000495855
0.000515026
0.000535504
0.000556904
0.000578896
0.000601229
0.000623745
0.000646382
0.000669146
0.000692077
0.000715186
0.000738408
0.000761458
0.000783688
0.000804198
0.000821708
0.000834274
0.000840173
0.000841569
0.000835773
0.000822043
0.00080088
0.000770897
0.000727966
0.000665701
0.000579386
0.000472679
0.000362678
0.000283752
0.000270377
0.000487066
5.55765e-05
2.67109e-05
1.93237e-05
1.66085e-05
1.5817e-05
1.61178e-05
1.71827e-05
1.88511e-05
2.10444e-05
2.37333e-05
2.6926e-05
3.06621e-05
3.50101e-05
4.00651e-05
4.5948e-05
5.28031e-05
6.07964e-05
7.01114e-05
8.09432e-05
9.3488e-05
0.000107929
0.000124415
0.000143033
0.000163778
0.000186518
0.000210958
0.000236625
0.000262864
0.000288867
0.000313739
0.000336597
0.000356694
0.000373544
0.000387016
0.000397373
0.000405313
0.000411668
0.000417523
0.000423917
0.000431574
0.000441331
0.000453539
0.000468189
0.000485125
0.000504034
0.000524515
0.000546144
0.000568525
0.00059133
0.000614331
0.000637407
0.000660544
0.000683814
0.000707329
0.000731174
0.000755342
0.000779599
0.000803298
0.000825455
0.000844633
0.000858287
0.00086434
0.000865363
0.000857926
0.000841689
0.000818
0.000786892
0.00074551
0.000687499
0.000606092
0.000501471
0.000388684
0.000304153
0.000287401
0.00051429
5.97965e-05
2.87212e-05
2.07521e-05
1.78145e-05
1.69534e-05
1.72709e-05
1.8412e-05
2.01998e-05
2.25456e-05
2.54148e-05
2.88131e-05
3.27806e-05
3.73878e-05
4.27333e-05
4.89417e-05
5.6161e-05
6.45594e-05
7.4321e-05
8.56377e-05
9.86984e-05
0.000113672
0.000130686
0.000149797
0.00017096
0.000193991
0.000218546
0.000244098
0.00026995
0.000295277
0.000319198
0.000340885
0.00035969
0.000375255
0.000387601
0.000397148
0.000404604
0.000410975
0.000417311
0.000424477
0.000433392
0.000444661
0.000458425
0.000474654
0.000493112
0.000513427
0.000535157
0.000557855
0.000581117
0.000604626
0.000628177
0.000651695
0.000675228
0.00069892
0.000722968
0.000747546
0.000772724
0.000798341
0.000823782
0.000848002
0.000869416
0.000885131
0.000892078
0.000893097
0.00088443
0.000865427
0.000838167
0.000804198
0.000762426
0.000707324
0.000630755
0.000529296
0.000414921
0.000325176
0.000304974
0.000542127
6.42569e-05
3.08438e-05
2.22579e-05
1.90846e-05
1.81505e-05
1.84865e-05
1.97084e-05
2.16211e-05
2.41247e-05
2.71781e-05
3.07843e-05
3.49832e-05
3.98473e-05
4.54781e-05
5.20034e-05
5.95737e-05
6.83587e-05
7.8541e-05
9.03081e-05
0.000103839
0.000119287
0.000136757
0.000156272
0.000177747
0.000200955
0.0002255
0.000250817
0.000276179
0.000300758
0.000323705
0.000344262
0.000361884
0.000376348
0.000387805
0.000396785
0.000404098
0.000410771
0.000417737
0.000425991
0.000436348
0.000449139
0.000464492
0.000482288
0.000502222
0.000523866
0.000546744
0.000570388
0.000594391
0.000618451
0.000642397
0.000666206
0.000689992
0.000713985
0.000738474
0.000763734
0.00078993
0.000816994
0.000844379
0.000871012
0.000895172
0.000913966
0.000922794
0.000924362
0.000915232
0.00089365
0.000862182
0.000823839
0.000779646
0.000725701
0.000653386
0.000555875
0.000441153
0.000346727
0.000323068
0.000570538
6.89709e-05
3.30847e-05
2.38447e-05
2.04218e-05
1.94111e-05
1.97673e-05
2.10743e-05
2.3117e-05
2.57827e-05
2.9023e-05
3.28375e-05
3.72658e-05
4.23818e-05
4.82897e-05
5.51198e-05
6.30243e-05
7.21729e-05
8.27459e-05
9.49241e-05
0.000108876
0.000124736
0.000142585
0.000162415
0.000184103
0.00020738
0.000231809
0.000256792
0.00028159
0.000305386
0.000327375
0.00034688
0.000363465
0.00037703
0.000387849
0.000396542
0.000403983
0.000411121
0.000418996
0.000428573
0.00044038
0.000454732
0.000471664
0.000490978
0.000512301
0.000535161
0.000559049
0.000583481
0.000608054
0.000632488
0.000656652
0.000680579
0.000704459
0.000728608
0.000753417
0.000779269
0.000806438
0.000834965
0.000864411
0.000893722
0.000921091
0.000943757
0.000955707
0.000958556
0.00094999
0.000926457
0.000890613
0.000846722
0.000798134
0.0007433
0.000674144
0.000580989
0.000467136
0.000368696
0.000341644
0.000599471
7.39523e-05
3.54501e-05
2.55166e-05
2.18291e-05
2.07381e-05
2.1116e-05
2.25124e-05
2.46895e-05
2.75207e-05
3.09491e-05
3.49704e-05
3.96236e-05
4.49839e-05
5.11577e-05
5.8277e-05
6.64951e-05
7.59808e-05
8.69102e-05
9.94566e-05
0.000113775
0.000129984
0.000148137
0.000168197
0.000190005
0.000213254
0.000237478
0.000262055
0.000286245
0.000309255
0.000330338
0.000348901
0.000364617
0.000377498
0.000387927
0.000396583
0.000404322
0.0004122
0.000421246
0.000432165
0.000445469
0.000461378
0.000479841
0.000500585
0.000523181
0.000547112
0.000571843
0.000596884
0.00062184
0.000646458
0.000670654
0.000694524
0.000718334
0.000742489
0.000767483
0.00079381
0.000821861
0.000851803
0.000883335
0.000915484
0.000946455
0.000973439
0.000989923
0.000994954
0.000988115
0.000963663
0.000923771
0.000873592
0.000818828
0.000760891
0.000693334
0.000604502
0.000492626
0.000390958
0.000360657
0.000628868
7.92156e-05
3.79463e-05
2.72776e-05
2.33099e-05
2.21345e-05
2.25355e-05
2.40252e-05
2.63406e-05
2.93394e-05
3.29554e-05
3.718e-05
4.20513e-05
4.76457e-05
5.4071e-05
6.14609e-05
6.99689e-05
7.97615e-05
9.10101e-05
0.000103879
0.00011851
0.000135002
0.000153386
0.000173595
0.000195438
0.00021858
0.000242528
0.000266652
0.000290219
0.000312475
0.000332733
0.000350489
0.000365517
0.000377929
0.000388178
0.000396991
0.000405313
0.000414188
0.00042444
0.00043676
0.000451568
0.000468994
0.000488906
0.000510964
0.000534687
0.000559522
0.000584915
0.000610372
0.000635518
0.000660134
0.000684185
0.000707833
0.00073142
0.000755441
0.000780484
0.000807155
0.000835967
0.000867219
0.000900773
0.000935784
0.000970535
0.00100219
0.00102449
0.0010328
0.00102883
0.00100483
0.000961699
0.000904989
0.000842583
0.0007793
0.000711394
0.000626371
0.000517389
0.000413378
0.000380052
0.00065866
8.47762e-05
4.05802e-05
2.9132e-05
2.48675e-05
2.36034e-05
2.40289e-05
2.56154e-05
2.80722e-05
3.12394e-05
3.50408e-05
3.94632e-05
4.45434e-05
5.03587e-05
5.70186e-05
6.46576e-05
7.34286e-05
8.34955e-05
9.50235e-05
0.000108168
0.000123056
0.000139769
0.000158314
0.000178599
0.000200406
0.000223375
0.000246999
0.000270646
0.000293605
0.000315162
0.000334701
0.000351804
0.000366335
0.000378492
0.00038878
0.000397993
0.000407121
0.000417055
0.000428588
0.000442331
0.000458615
0.000477486
0.000498737
0.000521968
0.000546652
0.000572209
0.000598073
0.000623757
0.000648909
0.000673349
0.000697099
0.000720383
0.000743619
0.000767382
0.000792352
0.000819237
0.000848669
0.000881086
0.000916521
0.000954303
0.000992841
0.0010293
0.00105835
0.00107141
0.00107121
0.00104929
0.00100419
0.00094123
0.000870127
0.000799361
0.000728868
0.000646652