/*--------------------------------*- C++ -*----------------------------------*\
  =========                 |
  \\      /  F ield         | OpenFOAM: The Open Source CFD Toolbox
   \\    /   O peration     | Website:  https://openfoam.org
    \\  /    A nd           | Version:  12
     \\/     M anipulation  |
\*---------------------------------------------------------------------------*/
FoamFile
{
    format      ascii;
    class       volScalarField;
    location    "6.5";
    object      k;
}
// * * * * * * * * * * * * * * * * * * * * * * * * * * * * * * * * * * * * * //

dimensions      [0 2 -2 0 0 0 0];

internalField   nonuniform List<scalar> 
5625
(
1.63747e-10
1.10756e-09
2.46503e-09
4.07838e-09
5.87242e-09
7.80018e-09
9.83005e-09
1.19418e-08
1.41251e-08
1.63791e-08
1.8712e-08
2.11404e-08
2.36891e-08
2.63903e-08
2.92834e-08
3.24137e-08
3.58326e-08
3.95962e-08
4.37652e-08
4.84041e-08
5.35806e-08
5.93648e-08
6.58288e-08
7.30458e-08
8.10892e-08
9.00322e-08
9.99464e-08
1.10901e-07
1.22963e-07
1.36195e-07
1.50653e-07
1.66392e-07
1.83457e-07
2.01888e-07
2.21718e-07
2.42974e-07
2.65673e-07
2.89824e-07
3.15427e-07
3.42467e-07
3.70917e-07
4.00728e-07
4.31827e-07
4.64105e-07
4.97413e-07
5.31541e-07
5.66209e-07
6.01051e-07
6.35595e-07
6.6925e-07
7.01282e-07
7.30813e-07
7.56789e-07
7.77922e-07
7.92228e-07
7.98647e-07
7.98897e-07
7.88637e-07
7.67304e-07
7.34805e-07
6.91476e-07
6.38292e-07
5.7696e-07
5.09848e-07
4.39786e-07
3.69767e-07
3.02594e-07
2.40569e-07
1.85269e-07
1.37473e-07
9.72298e-08
6.40545e-08
3.72473e-08
1.63718e-08
2.41144e-09
1.23762e-09
9.86348e-09
2.21185e-08
3.66553e-08
5.28111e-08
7.01665e-08
8.84382e-08
1.07444e-07
1.27092e-07
1.47375e-07
1.68365e-07
1.90214e-07
2.13143e-07
2.37443e-07
2.63469e-07
2.91629e-07
3.22383e-07
3.56237e-07
3.93739e-07
4.35469e-07
4.82036e-07
5.34072e-07
5.92224e-07
6.57152e-07
7.29517e-07
8.09977e-07
8.99177e-07
9.97741e-07
1.10627e-06
1.22532e-06
1.35541e-06
1.49702e-06
1.65056e-06
1.8164e-06
1.99482e-06
2.18607e-06
2.3903e-06
2.60759e-06
2.83794e-06
3.08122e-06
3.33718e-06
3.60538e-06
3.88518e-06
4.17559e-06
4.47528e-06
4.78236e-06
5.09433e-06
5.4079e-06
5.71885e-06
6.02186e-06
6.31036e-06
6.57644e-06
6.81067e-06
7.00153e-06
7.13079e-06
7.18692e-06
7.18822e-06
7.09421e-06
6.90063e-06
6.60683e-06
6.2159e-06
5.7367e-06
5.1846e-06
4.5809e-06
3.95097e-06
3.32164e-06
2.71804e-06
2.16076e-06
1.66393e-06
1.23453e-06
8.72945e-07
5.74804e-07
3.33687e-07
1.45593e-07
1.82087e-08
2.6294e-09
2.25317e-08
5.08554e-08
8.44532e-08
1.21784e-07
1.61876e-07
2.04076e-07
2.47961e-07
2.9332e-07
3.40135e-07
3.88575e-07
4.38989e-07
4.91891e-07
5.47956e-07
6.08e-07
6.72972e-07
7.43938e-07
8.2207e-07
9.08635e-07
1.00498e-06
1.11251e-06
1.23269e-06
1.36704e-06
1.51709e-06
1.68437e-06
1.87042e-06
2.07674e-06
2.30481e-06
2.55603e-06
2.83171e-06
3.1331e-06
3.46131e-06
3.81733e-06
4.20204e-06
4.61613e-06
5.06017e-06
5.53454e-06
6.03941e-06
6.57474e-06
7.14019e-06
7.73508e-06
8.35831e-06
9.00819e-06
9.68231e-06
1.03773e-05
1.10886e-05
1.18102e-05
1.25343e-05
1.32509e-05
1.39475e-05
1.4609e-05
1.52171e-05
1.57503e-05
1.61833e-05
1.64716e-05
1.65921e-05
1.65917e-05
1.6369e-05
1.59174e-05
1.52356e-05
1.43305e-05
1.32224e-05
1.19466e-05
1.05522e-05
9.09793e-06
7.64566e-06
6.2535e-06
4.96897e-06
3.82455e-06
2.83605e-06
2.00414e-06
1.31843e-06
7.63945e-07
3.31257e-07
3.85317e-08
4.30252e-09
3.77856e-08
8.56945e-08
1.42594e-07
2.05825e-07
2.73724e-07
3.45174e-07
4.19459e-07
4.96218e-07
5.75421e-07
6.57356e-07
7.42616e-07
8.32077e-07
9.26884e-07
1.02843e-06
1.13832e-06
1.25837e-06
1.39059e-06
1.53711e-06
1.70024e-06
1.88239e-06
2.08606e-06
2.31382e-06
2.56831e-06
2.85216e-06
3.16803e-06
3.5185e-06
3.90613e-06
4.33333e-06
4.80243e-06
5.31555e-06
5.87466e-06
6.48149e-06
7.13752e-06
7.84396e-06
8.60169e-06
9.41127e-06
1.02728e-05
1.1186e-05
1.215e-05
1.31632e-05
1.42232e-05
1.53265e-05
1.64686e-05
1.76431e-05
1.88418e-05
2.00542e-05
2.12667e-05
2.24628e-05
2.36219e-05
2.47189e-05
2.57244e-05
2.66034e-05
2.73168e-05
2.77853e-05
2.7976e-05
2.79729e-05
2.75957e-05
2.68354e-05
2.56895e-05
2.41674e-05
2.23015e-05
2.01502e-05
1.7796e-05
1.53385e-05
1.28835e-05
1.05306e-05
8.36095e-06
6.42983e-06
4.76377e-06
3.36323e-06
2.20991e-06
1.27797e-06
5.51584e-07
6.25987e-08
6.20682e-09
5.50532e-08
1.25286e-07
2.0884e-07
3.0173e-07
4.01474e-07
5.06413e-07
6.15486e-07
7.28156e-07
8.44381e-07
9.64588e-07
1.08965e-06
1.22087e-06
1.35993e-06
1.5089e-06
1.67016e-06
1.84638e-06
2.04053e-06
2.2558e-06
2.4956e-06
2.76349e-06
3.06321e-06
3.39859e-06
3.77357e-06
4.1921e-06
4.65815e-06
5.17564e-06
5.74839e-06
6.38007e-06
7.07417e-06
7.8339e-06
8.66219e-06
9.56156e-06
1.05341e-05
1.15815e-05
1.27046e-05
1.39038e-05
1.51787e-05
1.6528e-05
1.79494e-05
1.94395e-05
2.09934e-05
2.26049e-05
2.42659e-05
2.59665e-05
2.76938e-05
2.94325e-05
3.11636e-05
3.28638e-05
3.45054e-05
3.60548e-05
3.74721e-05
3.87103e-05
3.97171e-05
4.03787e-05
4.0648e-05
4.06506e-05
4.01193e-05
3.90374e-05
3.73984e-05
3.52107e-05
3.25162e-05
2.93966e-05
2.59707e-05
2.23848e-05
1.87963e-05
1.53539e-05
1.21798e-05
9.35686e-06
6.92457e-06
4.88302e-06
3.20426e-06
1.84951e-06
7.95564e-07
8.93848e-08
8.30853e-09
7.40411e-08
1.68912e-07
2.81968e-07
4.0773e-07
5.42782e-07
6.84841e-07
8.32454e-07
9.84887e-07
1.14208e-06
1.30462e-06
1.47371e-06
1.65111e-06
1.83914e-06
2.04061e-06
2.25878e-06
2.49731e-06
2.76027e-06
3.052e-06
3.37719e-06
3.74076e-06
4.14782e-06
4.60369e-06
5.11378e-06
5.68358e-06
6.3186e-06
7.02428e-06
7.80593e-06
8.66863e-06
9.61718e-06
1.0656e-05
1.17888e-05
1.30189e-05
1.43488e-05
1.57799e-05
1.73128e-05
1.89466e-05
2.06793e-05
2.25074e-05
2.44257e-05
2.64275e-05
2.8504e-05
3.06451e-05
3.28382e-05
3.50691e-05
3.7321e-05
3.95742e-05
4.18057e-05
4.39883e-05
4.60894e-05
4.80695e-05
4.98815e-05
5.14685e-05
5.27656e-05
5.3634e-05
5.4e-05
5.4025e-05
5.33675e-05
5.19856e-05
4.98675e-05
4.70155e-05
4.34768e-05
3.93534e-05
3.48005e-05
3.00136e-05
2.52067e-05
2.0585e-05
1.63187e-05
1.25243e-05
9.25768e-06
6.51982e-06
4.2723e-06
2.4617e-06
1.05623e-06
1.181e-07
1.05878e-08
9.45895e-08
2.16169e-07
3.61277e-07
5.22794e-07
6.96262e-07
8.78703e-07
1.06822e-06
1.26387e-06
1.46556e-06
1.67407e-06
1.89094e-06
2.11849e-06
2.35973e-06
2.61829e-06
2.89843e-06
3.20491e-06
3.543e-06
3.9184e-06
4.3372e-06
4.80582e-06
5.33099e-06
5.91966e-06
6.57894e-06
7.31606e-06
8.13826e-06
9.05267e-06
1.00662e-05
1.11856e-05
1.24168e-05
1.37653e-05
1.52356e-05
1.68312e-05
1.85542e-05
2.04051e-05
2.23827e-05
2.44837e-05
2.67029e-05
2.90325e-05
3.14629e-05
3.39822e-05
3.65769e-05
3.92317e-05
4.19298e-05
4.46533e-05
4.7383e-05
5.00976e-05
5.27731e-05
5.53816e-05
5.78894e-05
6.02548e-05
6.24258e-05
6.43378e-05
6.59138e-05
6.70036e-05
6.74868e-05
6.75536e-05
6.68123e-05
6.51728e-05
6.26201e-05
5.91453e-05
5.47959e-05
4.96894e-05
4.40133e-05
3.80102e-05
3.1952e-05
2.61042e-05
2.06913e-05
1.58702e-05
1.1719e-05
8.24286e-06
5.39371e-06
3.10283e-06
1.32873e-06
1.48175e-07
1.30339e-08
1.16615e-07
2.66843e-07
4.46375e-07
6.46332e-07
8.61111e-07
1.08697e-06
1.32152e-06
1.56357e-06
1.81303e-06
2.07087e-06
2.33903e-06
2.62042e-06
2.91882e-06
3.23881e-06
3.5857e-06
3.96551e-06
4.38485e-06
4.85089e-06
5.37131e-06
5.95421e-06
6.60809e-06
7.34174e-06
8.16417e-06
9.08451e-06
1.01119e-05
1.12552e-05
1.25232e-05
1.39239e-05
1.54644e-05
1.7151e-05
1.89883e-05
2.09791e-05
2.31241e-05
2.54215e-05
2.78666e-05
3.04518e-05
3.31663e-05
3.59966e-05
3.89268e-05
4.19387e-05
4.50132e-05
4.81304e-05
5.12706e-05
5.44147e-05
5.75439e-05
6.0639e-05
6.3679e-05
6.6639e-05
6.94874e-05
7.21826e-05
7.46696e-05
7.68768e-05
7.87148e-05
8.00312e-05
8.0645e-05
8.07675e-05
7.99836e-05
7.8136e-05
7.52103e-05
7.11838e-05
6.6099e-05
6.00819e-05
5.33438e-05
4.61679e-05
3.88791e-05
3.18034e-05
2.52241e-05
1.93456e-05
1.4276e-05
1.00302e-05
6.55429e-06
3.76474e-06
1.60962e-06
1.79212e-07
1.56422e-08
1.40081e-07
3.20837e-07
5.3708e-07
7.7805e-07
1.03691e-06
1.30909e-06
1.59166e-06
1.88317e-06
2.18351e-06
2.49388e-06
2.81667e-06
3.15544e-06
3.51482e-06
3.90042e-06
4.31875e-06
4.77718e-06
5.2838e-06
5.84741e-06
6.47744e-06
7.18385e-06
7.97707e-06
8.86791e-06
9.86743e-06
1.09868e-05
1.22371e-05
1.36292e-05
1.51732e-05
1.68784e-05
1.87529e-05
2.08026e-05
2.30315e-05
2.54405e-05
2.80273e-05
3.07859e-05
3.3706e-05
3.67734e-05
3.99703e-05
4.32753e-05
4.66651e-05
5.01152e-05
5.36017e-05
5.71019e-05
6.05962e-05
6.40677e-05
6.75022e-05
7.08864e-05
7.42058e-05
7.7441e-05
8.05639e-05
8.35335e-05
8.62913e-05
8.8758e-05
9.08318e-05
9.23624e-05
9.31026e-05
9.32845e-05
9.24881e-05
9.04802e-05
8.72522e-05
8.27662e-05
7.70546e-05
7.02429e-05
6.25549e-05
5.43018e-05
4.58525e-05
3.75896e-05
2.98566e-05
2.29127e-05
1.6905e-05
1.18671e-05
7.74463e-06
4.44197e-06
1.89649e-06
2.10948e-07
1.8412e-08
1.64989e-07
3.78141e-07
6.33353e-07
9.17869e-07
1.22354e-06
1.54487e-06
1.87837e-06
2.22231e-06
2.57657e-06
2.94259e-06
3.32327e-06
3.72289e-06
4.147e-06
4.60235e-06
5.09677e-06
5.63909e-06
6.23904e-06
6.90721e-06
7.6549e-06
8.49411e-06
9.43736e-06
1.04976e-05
1.16881e-05
1.30221e-05
1.45127e-05
1.61723e-05
1.80126e-05
2.00435e-05
2.2273e-05
2.47062e-05
2.73448e-05
3.01862e-05
3.32233e-05
3.64434e-05
3.98289e-05
4.33569e-05
4.70006e-05
5.07302e-05
5.4515e-05
5.83255e-05
6.21352e-05
6.59223e-05
6.9671e-05
7.33712e-05
7.70168e-05
8.06037e-05
8.41252e-05
8.7568e-05
9.09064e-05
9.4098e-05
9.70791e-05
9.97618e-05
0.000102033
0.000103743
0.000104588
0.000104819
0.000104026
0.000101903
9.84478e-05
9.36084e-05
8.74023e-05
7.99443e-05
7.14567e-05
6.22633e-05
5.2764e-05
4.33893e-05
3.4543e-05
2.65447e-05
1.95909e-05
1.37446e-05
8.95932e-06
5.13128e-06
2.18777e-06
2.4327e-07
2.13459e-08
1.91363e-07
4.38805e-07
7.35265e-07
1.06587e-06
1.42106e-06
1.79438e-06
2.18172e-06
2.58103e-06
2.99221e-06
3.41698e-06
3.85877e-06
4.32267e-06
4.81525e-06
5.3445e-06
5.91967e-06
6.5512e-06
7.25059e-06
8.03035e-06
8.90382e-06
9.88516e-06
1.09891e-05
1.22309e-05
1.3626e-05
1.51897e-05
1.6937e-05
1.88817e-05
2.10363e-05
2.34107e-05
2.60119e-05
2.88427e-05
3.1901e-05
3.51787e-05
3.86615e-05
4.23283e-05
4.61518e-05
5.0099e-05
5.41336e-05
5.82176e-05
6.23148e-05
6.63931e-05
7.04275e-05
7.44014e-05
7.83074e-05
8.21457e-05
8.59213e-05
8.96397e-05
9.33016e-05
9.68973e-05
0.000100401
0.000103765
0.000106919
0.000109765
0.000112181
0.000114017
0.000114933
0.000115197
0.000114409
0.000112211
0.000108606
0.000103525
9.6968e-05
8.90295e-05
7.99158e-05
6.99463e-05
5.95354e-05
4.91508e-05
3.92525e-05
3.02254e-05
2.2326e-05
1.56592e-05
1.01963e-05
5.83128e-06
2.48283e-06
2.76058e-07
2.44487e-08
2.19249e-07
5.0293e-07
8.4297e-07
1.22225e-06
1.62973e-06
2.0579e-06
2.50199e-06
2.95964e-06
3.43076e-06
3.91736e-06
4.42351e-06
4.95514e-06
5.51995e-06
6.12726e-06
6.78787e-06
7.51396e-06
8.31894e-06
9.21734e-06
1.02247e-05
1.13575e-05
1.26327e-05
1.40678e-05
1.56806e-05
1.74882e-05
1.95072e-05
2.17524e-05
2.42364e-05
2.6968e-05
2.9952e-05
3.31872e-05
3.66657e-05
4.0372e-05
4.42824e-05
4.83654e-05
5.25827e-05
5.68908e-05
6.12441e-05
6.55987e-05
6.99157e-05
7.41648e-05
7.83272e-05
8.23962e-05
8.63764e-05
9.02807e-05
9.41255e-05
9.79246e-05
0.000101683
0.00010539
0.000109015
0.000112505
0.000115778
0.00011873
0.000121232
0.000123131
0.000124079
0.000124356
0.000123562
0.00012133
0.000117645
0.000112431
0.000105665
9.74136e-05
8.7854e-05
7.72846e-05
6.61168e-05
5.48412e-05
4.39672e-05
3.39477e-05
2.5109e-05
1.76114e-05
1.14561e-05
6.54211e-06
2.78161e-06
3.0929e-07
2.77271e-08
2.48709e-07
5.70654e-07
9.56693e-07
1.38733e-06
1.84993e-06
2.33587e-06
2.83969e-06
3.35869e-06
3.89279e-06
4.44436e-06
5.01811e-06
5.62093e-06
6.26174e-06
6.95129e-06
7.70207e-06
8.52808e-06
9.44478e-06
1.04689e-05
1.16182e-05
1.29114e-05
1.43681e-05
1.60078e-05
1.78505e-05
1.99149e-05
2.22187e-05
2.4777e-05
2.76015e-05
3.06991e-05
3.40704e-05
3.77084e-05
4.15976e-05
4.57127e-05
5.00191e-05
5.44736e-05
5.90261e-05
6.36236e-05
6.82134e-05
7.27486e-05
7.71923e-05
8.1521e-05
8.57269e-05
8.98169e-05
9.38101e-05
9.77321e-05
0.000101609
0.000105459
0.000109286
0.000113075
0.000116787
0.000120357
0.000123698
0.000126699
0.000129228
0.000131129
0.000132072
0.000132343
0.000131531
0.00012929
0.000125591
0.000120337
0.000113487
0.000105075
9.52407e-05
8.42456e-05
7.24804e-05
6.04419e-05
4.86787e-05
3.77107e-05
2.79432e-05
1.96053e-05
1.27417e-05
7.26508e-06
3.08451e-06
3.43003e-07
3.11896e-08
2.79818e-07
6.42151e-07
1.07671e-06
1.56149e-06
2.08214e-06
2.62887e-06
3.19548e-06
3.7789e-06
4.37908e-06
4.99877e-06
5.64341e-06
6.32091e-06
7.04149e-06
7.81747e-06
8.66309e-06
9.59435e-06
1.06288e-05
1.17855e-05
1.30845e-05
1.4547e-05
1.61947e-05
1.80495e-05
2.01329e-05
2.24652e-05
2.50643e-05
2.7945e-05
3.11169e-05
3.45831e-05
3.83388e-05
4.23692e-05
4.66491e-05
5.11418e-05
5.58005e-05
6.05696e-05
6.53885e-05
7.01963e-05
7.49367e-05
7.95647e-05
8.40502e-05
8.83817e-05
9.25663e-05
9.6627e-05
0.000100597
0.000104514
0.000108408
0.000112298
0.000116181
0.000120033
0.000123803
0.000127418
0.000130783
0.000133783
0.00013629
0.000138143
0.00013905
0.000139301
0.000138456
0.000136219
0.000132551
0.000127327
0.00012049
0.000112044
0.000102083
9.08214e-05
7.86131e-05
6.59426e-05
5.33833e-05
4.15173e-05
3.08345e-05
2.16469e-05
1.40572e-05
8.00234e-06
3.39226e-06
3.77272e-07
3.48458e-08
3.12666e-07
7.17618e-07
1.20335e-06
1.74518e-06
2.32694e-06
2.93761e-06
3.57015e-06
4.22115e-06
4.89056e-06
5.58158e-06
6.3004e-06
7.05605e-06
7.86015e-06
8.72669e-06
9.67178e-06
1.07135e-05
1.18716e-05
1.31675e-05
1.46236e-05
1.62635e-05
1.8111e-05
2.01901e-05
2.25235e-05
2.51325e-05
2.80346e-05
3.12429e-05
3.47637e-05
3.8595e-05
4.27245e-05
4.71279e-05
5.17685e-05
5.65973e-05
6.15544e-05
6.6573e-05
7.15836e-05
7.65208e-05
8.13297e-05
8.59718e-05
9.04296e-05
9.47076e-05
9.88305e-05
0.000102838
0.000106775
0.000110687
0.000114603
0.000118538
0.000122477
0.000126384
0.000130196
0.000133831
0.000137189
0.000140155
0.000142607
0.000144376
0.000145227
0.000145446
0.000144553
0.00014232
0.000138699
0.000133546
0.000126784
0.00011839
0.000108416
9.70222e-05
8.45113e-05
7.13367e-05
5.80784e-05
4.53704e-05
3.37896e-05
2.37432e-05
1.54079e-05
8.75657e-06
3.70581e-06
4.12196e-07
3.87066e-08
3.4735e-07
7.9728e-07
1.33698e-06
1.93892e-06
2.58501e-06
3.26286e-06
3.96461e-06
4.68641e-06
5.42828e-06
6.19384e-06
6.99013e-06
7.82739e-06
8.7187e-06
9.67984e-06
1.07289e-05
1.18861e-05
1.31735e-05
1.46148e-05
1.62349e-05
1.80595e-05
2.01145e-05
2.24255e-05
2.50164e-05
2.7908e-05
3.11171e-05
3.46538e-05
3.85197e-05
4.27059e-05
4.71909e-05
5.19394e-05
5.69021e-05
6.20169e-05
6.72117e-05
7.241e-05
7.7537e-05
8.25273e-05
8.73322e-05
9.19255e-05
9.63064e-05
0.000100498
0.000104545
0.000108499
0.000112417
0.000116344
0.000120305
0.000124303
0.000128311
0.000132278
0.000136129
0.000139775
0.000143112
0.00014603
0.000148411
0.000150079
0.000150861
0.000151042
0.000150083
0.000147841
0.000144256
0.00013918
0.000132513
0.000124213
0.000114298
0.000102872
9.01768e-05
7.66174e-05
6.27586e-05
4.92706e-05
3.68139e-05
2.59011e-05
1.67991e-05
9.53069e-06
4.02622e-06
4.47889e-07
4.27839e-08
3.83979e-07
8.8138e-07
1.478e-06
2.14327e-06
2.85705e-06
3.60551e-06
4.37983e-06
5.17577e-06
5.99334e-06
6.83667e-06
7.71371e-06
8.63594e-06
9.61806e-06
1.06777e-05
1.1835e-05
1.31123e-05
1.45343e-05
1.61267e-05
1.79168e-05
1.99325e-05
2.22015e-05
2.47503e-05
2.76034e-05
3.07809e-05
3.42971e-05
3.81582e-05
4.23595e-05
4.68838e-05
5.16988e-05
5.6757e-05
6.1996e-05
6.73409e-05
7.27092e-05
7.80177e-05
8.31902e-05
8.81666e-05
9.29099e-05
9.74109e-05
0.000101689
0.000105787
0.000109766
0.000113692
0.000117622
0.0001216
0.000125642
0.000129734
0.000133835
0.00013788
0.000141784
0.00014545
0.000148773
0.000151647
0.000153961
0.000155525
0.000156235
0.000156371
0.000155327
0.000153051
0.000149467
0.000144439
0.000137848
0.000129639
0.000119806
0.000108407
9.56166e-05
8.17769e-05
6.74147e-05
5.32143e-05
3.99102e-05
2.81263e-05
1.82358e-05
1.03276e-05
4.35452e-06
4.84464e-07
4.70906e-08
4.22667e-07
9.70182e-07
1.62685e-06
2.35886e-06
3.14385e-06
3.96646e-06
4.81687e-06
5.69033e-06
6.58691e-06
7.51123e-06
8.47221e-06
9.48268e-06
1.0559e-05
1.17208e-05
1.29902e-05
1.43922e-05
1.59532e-05
1.77018e-05
1.96672e-05
2.18791e-05
2.43667e-05
2.71572e-05
3.02747e-05
3.37378e-05
3.75572e-05
4.17338e-05
4.62554e-05
5.10947e-05
5.62078e-05
6.15343e-05
6.69989e-05
7.25152e-05
7.79931e-05
8.33463e-05
8.85025e-05
9.34121e-05
9.80544e-05
0.000102441
0.000106612
0.000110632
0.000114575
0.000118513
0.000122505
0.000126583
0.000130751
0.000134979
0.00013921
0.000143365
0.000147349
0.000151061
0.000154396
0.000157249
0.000159516
0.000160986
0.000161626
0.000161713
0.000160564
0.00015822
0.000154586
0.000149543
0.000142974
0.000134809
0.000125036
0.000113676
0.000100845
8.6808e-05
7.20335e-05
5.7193e-05
4.30775e-05
3.04223e-05
1.97225e-05
1.115e-05
4.69169e-06
5.22026e-07
5.16404e-08
4.6354e-07
1.06397e-06
1.78398e-06
2.58631e-06
3.44624e-06
4.34672e-06
5.27682e-06
6.23127e-06
7.21016e-06
8.21864e-06
9.26665e-06
1.03685e-05
1.15422e-05
1.28094e-05
1.41947e-05
1.57249e-05
1.74292e-05
1.9338e-05
2.14827e-05
2.38946e-05
2.66037e-05
2.96375e-05
3.30188e-05
3.67635e-05
4.08782e-05
4.53566e-05
5.01779e-05
5.53037e-05
6.0678e-05
6.62272e-05
7.18641e-05
7.74936e-05
8.30208e-05
8.83615e-05
9.34521e-05
9.82583e-05
0.00010278
0.000107051
0.000111135
0.000115111
0.000119066
0.000123073
0.000127185
0.000131422
0.000135771
0.000140186
0.000144593
0.000148901
0.000153007
0.000156806
0.000160191
0.000163059
0.000165309
0.000166709
0.000167287
0.000167321
0.000166051
0.000163599
0.000159858
0.00015472
0.000148085
0.000139881
0.0001301
0.000118747
0.000105885
9.17068e-05
7.65996e-05
6.11934e-05
4.63103e-05
3.27904e-05
2.12623e-05
1.20002e-05
5.03858e-06
5.60669e-07
5.64478e-08
5.06728e-07
1.16303e-06
1.94988e-06
2.82632e-06
3.76509e-06
4.7473e-06
5.76082e-06
6.79978e-06
7.86425e-06
8.95997e-06
1.00979e-05
1.12939e-05
1.2568e-05
1.39436e-05
1.54477e-05
1.71095e-05
1.89603e-05
2.10325e-05
2.33593e-05
2.59732e-05
2.89047e-05
3.21808e-05
3.58222e-05
3.98414e-05
4.42389e-05
4.90011e-05
5.40969e-05
5.94765e-05
6.50711e-05
7.07952e-05
7.65517e-05
8.22392e-05
8.77628e-05
9.30449e-05
9.80354e-05
0.00010272
0.000107121
0.000111296
0.000115329
0.000119313
0.000123341
0.000127483
0.000131782
0.000136242
0.000140834
0.000145492
0.000150129
0.000154643
0.000158923
0.000162858
0.000166341
0.000169268
0.000171538
0.0001729
0.000173435
0.000173408
0.000172009
0.000169412
0.000165503
0.000160183
0.000153377
0.000145023
0.000135128
0.000123702
0.000110778
9.64774e-05
8.10983e-05
6.51987e-05
4.95993e-05
3.52289e-05
2.28571e-05
1.288e-05
5.39585e-06
6.00469e-07
6.15282e-08
5.52368e-07
1.26768e-06
2.12507e-06
3.07962e-06
4.10131e-06
5.16926e-06
6.27003e-06
7.39703e-06
8.55032e-06
9.73622e-06
1.09669e-05
1.22596e-05
1.36364e-05
1.51231e-05
1.67485e-05
1.85443e-05
2.05438e-05
2.27815e-05
2.52918e-05
2.8108e-05
3.12608e-05
3.47755e-05
3.86704e-05
4.29531e-05
4.76176e-05
5.26414e-05
5.79828e-05
6.35801e-05
6.93525e-05
7.52039e-05
8.10297e-05
8.67263e-05
9.22029e-05
9.73932e-05
0.000102265
0.000106827
0.000111126
0.000115242
0.000119275
0.000123331
0.000127501
0.00013185
0.000136407
0.000141158
0.000146056
0.000151019
0.000155947
0.000160724
0.000165234
0.00016936
0.000172991
0.000176022
0.000178351
0.000179709
0.00018023
0.000180134
0.000178609
0.000175839
0.000171709
0.000166128
0.000159038
0.000150406
0.000140261
0.000128644
0.000115578
0.000101135
8.55194e-05
6.91908e-05
5.29316e-05
3.77333e-05
2.45073e-05
1.37908e-05
5.764e-06
6.41479e-07
6.68978e-08
6.00602e-07
1.37825e-06
2.31008e-06
3.34693e-06
4.45584e-06
5.61371e-06
6.80562e-06
8.02421e-06
9.26945e-06
1.05483e-05
1.1874e-05
1.32658e-05
1.47474e-05
1.63469e-05
1.80955e-05
2.00269e-05
2.21765e-05
2.45804e-05
2.72741e-05
3.02912e-05
3.36617e-05
3.7409e-05
4.15476e-05
4.60797e-05
5.09918e-05
5.62518e-05
6.18071e-05
6.75843e-05
7.34919e-05
7.94251e-05
8.52752e-05
9.09401e-05
9.63378e-05
0.000101418
0.000106169
0.000110624
0.000114854
0.000118961
0.000123058
0.000127256
0.000131643
0.000136273
0.000141159
0.00014627
0.000151539
0.00015687
0.000162146
0.000167245
0.000172039
0.000176407
0.000180234
0.000183413
0.00018584
0.000187233
0.000187758
0.000187608
0.000185966
0.000183012
0.000178625
0.000172716
0.000165239
0.000156195
0.000145649
0.000133688
0.00012036
0.000105712
8.98607e-05
7.31526e-05
5.62918e-05
4.02967e-05
2.62119e-05
1.47332e-05
6.14331e-06
6.83735e-07
7.25754e-08
6.51577e-07
1.49508e-06
2.50546e-06
3.62905e-06
4.82964e-06
6.08175e-06
7.36877e-06
8.68244e-06
1.00226e-05
1.13969e-05
1.28199e-05
1.43123e-05
1.59003e-05
1.76139e-05
1.94867e-05
2.15545e-05
2.38545e-05
2.64239e-05
2.92992e-05
3.25138e-05
3.60963e-05
4.00675e-05
4.44374e-05
4.9202e-05
5.43394e-05
5.98078e-05
6.55437e-05
7.1463e-05
7.74648e-05
8.34386e-05
8.92747e-05
9.48771e-05
0.000100176
0.000105141
0.000109784
0.000114163
0.000118371
0.000122529
0.000126759
0.000131174
0.000135853
0.000140837
0.000146122
0.000151658
0.00015736
0.000163116
0.000168798
0.000174269
0.000179395
0.000184051
0.000188115
0.00019148
0.000194041
0.000195502
0.00019605
0.000195874
0.000194137
0.000191004
0.000186346
0.000180067
0.000172125
0.000162545
0.000151442
0.000138965
0.000125217
0.000110254
9.41316e-05
7.70714e-05
5.96638e-05
4.29098e-05
2.79687e-05
1.57076e-05
6.53392e-06
7.27252e-07
7.85786e-08
7.05452e-07
1.61853e-06
2.71182e-06
3.92679e-06
5.22374e-06
6.57451e-06
7.96063e-06
9.37282e-06
1.08108e-05
1.22827e-05
1.38046e-05
1.5399e-05
1.70942e-05
1.89225e-05
2.09198e-05
2.31236e-05
2.55729e-05
2.83059e-05
3.13594e-05
3.47662e-05
3.85528e-05
4.27369e-05
4.73232e-05
5.23008e-05
5.76393e-05
6.32869e-05
6.91698e-05
7.51945e-05
8.12529e-05
8.72317e-05
9.30242e-05
9.8544e-05
0.000103738
0.000108596
0.000113157
0.000117501
0.000121745
0.00012602
0.000130456
0.00013516
0.000140204
0.000145613
0.000151361
0.000157382
0.000163573
0.000169805
0.000175937
0.000181822
0.000187319
0.000192294
0.000196626
0.000200206
0.000202929
0.000204493
0.00020508
0.000204913
0.000203117
0.000199833
0.000194918
0.000188257
0.000179801
0.000169587
0.000157782
0.000144609
0.000130256
0.000114829
9.83554e-05
8.0941e-05
6.30318e-05
4.5562e-05
2.9774e-05
1.67136e-05
6.93576e-06
7.72024e-07
8.49249e-08
7.62395e-07
1.74897e-06
2.92974e-06
4.24097e-06
5.63914e-06
7.09314e-06
8.58237e-06
1.00964e-05
1.16346e-05
1.3206e-05
1.4828e-05
1.65251e-05
1.83277e-05
2.02706e-05
2.23915e-05
2.47301e-05
2.73264e-05
3.02197e-05
3.34463e-05
3.70381e-05
4.10191e-05
4.54028e-05
5.01885e-05
5.53578e-05
6.08718e-05
6.6669e-05
7.26663e-05
7.87623e-05
8.48446e-05
9.08e-05
9.65283e-05
0.000101956
0.00010705
0.000111823
0.000116338
0.000120699
0.00012504
0.000129501
0.000134214
0.00013928
0.000144757
0.000150651
0.00015692
0.000163477
0.000170202
0.00017695
0.000183566
0.000189893
0.000195782
0.000201097
0.000205714
0.000209526
0.000212433
0.000214131
0.000214775
0.000214653
0.000212847
0.000209459
0.000204328
0.00019731
0.000188328
0.000177421
0.000164793
0.00015075
0.000135592
0.000119518
0.00010257
8.47641e-05
6.63827e-05
4.82415e-05
3.16231e-05
1.77502e-05
7.34862e-06
8.18032e-07
9.16339e-08
8.2258e-07
1.88678e-06
3.15986e-06
4.57247e-06
6.07691e-06
7.63878e-06
9.2351e-06
1.08541e-05
1.24949e-05
1.41672e-05
1.58899e-05
1.76897e-05
1.95993e-05
2.16556e-05
2.38985e-05
2.63693e-05
2.91093e-05
3.21578e-05
3.5551e-05
3.93189e-05
4.34825e-05
4.80509e-05
5.30174e-05
5.83562e-05
6.40195e-05
6.99373e-05
7.60184e-05
8.21557e-05
8.82349e-05
9.41463e-05
9.97996e-05
0.000105137
0.000110147
0.000114866
0.00011938
0.000123815
0.000128316
0.000133032
0.000138091
0.000143584
0.000149553
0.000155987
0.000162824
0.000169957
0.000177248
0.000184537
0.000191656
0.000198438
0.000204727
0.000210383
0.000215288
0.000219337
0.000222439
0.0002243
0.000225024
0.000224976
0.000223219
0.000219792
0.000214513
0.000207195
0.000197721
0.000186104
0.000172573
0.000157509
0.000141345
0.000124413
0.000106829
8.85542e-05
6.97073e-05
5.09364e-05
3.35105e-05
1.88163e-05
7.77219e-06
8.65241e-07
9.8726e-08
8.8619e-07
2.03239e-06
3.40285e-06
4.92218e-06
6.53811e-06
8.21258e-06
9.91992e-06
1.16468e-05
1.3392e-05
1.51661e-05
1.69897e-05
1.88915e-05
2.09066e-05
2.30744e-05
2.54367e-05
2.80362e-05
3.0915e-05
3.41127e-05
3.76644e-05
4.15978e-05
4.59309e-05
5.06677e-05
5.57954e-05
6.12807e-05
6.70678e-05
7.30789e-05
7.92164e-05
8.53697e-05
9.14254e-05
9.72805e-05
0.000102857
0.000108116
0.000113067
0.00011777
0.000122335
0.000126902
0.000131629
0.000136664
0.000142131
0.000148108
0.00015462
0.000161637
0.000169076
0.000176811
0.000184687
0.000192527
0.000200151
0.000207383
0.000214063
0.000220051
0.000225233
0.000229512
0.000232807
0.000234857
0.000235692
0.000235729
0.000234088
0.000230699
0.000225359
0.000217832
0.000207941
0.00019565
0.000181182
0.000164985
0.000147627
0.000129616
0.000111198
9.23364e-05
7.3002e-05
5.36355e-05
3.54297e-05
1.99102e-05
8.20602e-06
9.13602e-07
1.06223e-07
9.53414e-07
2.18621e-06
3.65937e-06
5.29101e-06
7.02385e-06
8.8157e-06
1.06379e-05
1.24752e-05
1.43264e-05
1.62026e-05
1.81264e-05
2.01288e-05
2.22474e-05
2.45238e-05
2.70018e-05
2.97253e-05
3.27371e-05
3.60764e-05
3.9777e-05
4.38643e-05
4.83525e-05
5.32405e-05
5.85093e-05
6.41184e-05
7.00051e-05
7.60846e-05
8.2255e-05
8.84047e-05
9.44238e-05
0.000100218
0.000105726
0.000110926
0.00011585
0.000120583
0.000125251
0.000130011
0.000135024
0.000140438
0.000146368
0.000152876
0.00015997
0.000167599
0.000175661
0.000184011
0.000192473
0.000200858
0.000208973
0.000216636
0.000223684
0.00022998
0.000235416
0.000239907
0.000243385
0.000245642
0.000246622
0.000246749
0.000245288
0.000242019
0.000236721
0.000229098
0.000218902
0.000206023
0.000190643
0.000173247
0.000154539
0.000135228
0.000115753
9.6147e-05
7.62697e-05
5.63289e-05
3.73736e-05
2.10298e-05
8.64955e-06
9.63054e-07
1.14146e-07
1.02445e-06
2.34868e-06
3.93015e-06
5.67994e-06
7.53524e-06
9.44929e-06
1.13899e-05
1.33402e-05
1.52981e-05
1.72763e-05
1.92989e-05
2.13997e-05
2.36187e-05
2.6e-05
2.85889e-05
3.14308e-05
3.45685e-05
3.80408e-05
4.18798e-05
4.61083e-05
5.07363e-05
5.57578e-05
6.11478e-05
6.68593e-05
7.2823e-05
7.89495e-05
8.51341e-05
9.12665e-05
9.72429e-05
0.000102981
0.000108434
0.000113602
0.000118539
0.000123348
0.000128175
0.000133184
0.000138539
0.000144384
0.00015082
0.000157895
0.000165598
0.000173857
0.000182549
0.000191508
0.000200544
0.000209452
0.000218031
0.000226092
0.000233473
0.000240043
0.000245703
0.000250382
0.000254025
0.000256497
0.000257641
0.000257873
0.000256642
0.000253574
0.000248425
0.000240837
0.000230479
0.000217143
0.000200932
0.000182333
0.000162161
0.000141348
0.000120578
0.000100033
7.95211e-05
5.9009e-05
3.93348e-05
2.21727e-05
9.10212e-06
1.01352e-06
1.2252e-07
1.09951e-06
2.52028e-06
4.21592e-06
6.08994e-06
8.07342e-06
1.01145e-05
1.21771e-05
1.42421e-05
1.63073e-05
1.83863e-05
2.05057e-05
2.27019e-05
2.50175e-05
2.74988e-05
3.01932e-05
3.31467e-05
3.64024e-05
3.99981e-05
4.39641e-05
4.83202e-05
5.30725e-05
5.821e-05
6.3702e-05
6.94958e-05
7.55171e-05
8.16729e-05
8.78581e-05
9.39657e-05
9.99002e-05
0.000105592
0.000111013
0.000116182
0.000121173
0.000126108
0.000131145
0.000136456
0.000142202
0.000148519
0.000155496
0.000163164
0.000171489
0.00018038
0.000189693
0.000199244
0.000208827
0.000218224
0.000227225
0.000235642
0.000243313
0.000250117
0.000255966
0.000260804
0.000264592
0.000267268
0.000268593
0.000268945
0.000267982
0.000265186
0.000260289
0.000252872
0.000242513
0.000228888
0.000211982
0.000192238
0.000170548
0.000148059
0.000125755
0.00010405
8.27746e-05
6.16711e-05
4.13061e-05
2.33358e-05
9.56295e-06
1.06492e-06
1.31369e-07
1.17881e-06
2.70147e-06
4.51746e-06
6.52204e-06
8.63956e-06
1.08124e-05
1.30001e-05
1.51814e-05
1.73537e-05
1.95319e-05
2.17452e-05
2.40328e-05
2.64403e-05
2.90162e-05
3.18095e-05
3.48671e-05
3.82319e-05
4.19407e-05
4.60217e-05
5.04917e-05
5.53527e-05
6.05893e-05
6.61655e-05
7.20239e-05
7.80864e-05
8.42582e-05
9.04356e-05
9.65171e-05
0.000102417
0.000108081
0.000113496
0.000118702
0.00012379
0.000128899
0.000134196
0.000139856
0.000146033
0.000152855
0.000160396
0.000168667
0.000177614
0.000187126
0.000197039
0.00020715
0.000217239
0.000227079
0.000236455
0.000245178
0.000253092
0.000260085
0.000266086
0.000271054
0.000274971
0.000277816
0.000279343
0.000279827
0.000279154
0.000276688
0.000272134
0.000265019
0.000254825
0.000241104
0.000223686
0.000202919
0.000179719
0.000155431
0.000131368
0.00010826
8.60562e-05
6.43143e-05
4.32799e-05
2.45158e-05
1.00311e-05
1.11714e-06
1.40719e-07
1.26257e-06
2.89278e-06
4.83557e-06
6.97728e-06
9.23481e-06
1.15441e-05
1.38599e-05
1.61584e-05
1.84369e-05
2.07119e-05
2.30154e-05
2.53897e-05
2.78835e-05
3.05477e-05
3.34327e-05
3.65862e-05
4.00507e-05
4.38618e-05
4.80455e-05
5.26155e-05
5.75704e-05
6.28902e-05
6.85347e-05
7.44427e-05
8.05337e-05
8.67128e-05
9.28795e-05
9.89392e-05
0.000104818
0.000110475
0.000115916
0.000121197
0.000126427
0.000131755
0.000137357
0.000143404
0.000150044
0.000157393
0.000165507
0.00017438
0.000183938
0.000194046
0.000204523
0.000215152
0.000225699
0.000235928
0.000245624
0.000254599
0.000262708
0.000269848
0.000275964
0.000281034
0.000285058
0.000288041
0.000289781
0.00029041
0.000290028
0.000287934
0.000283797
0.000277098
0.00026723
0.000253615
0.000235905
0.000214293
0.000189661
0.000163506
0.000137487
0.000112727
8.93989e-05
6.69417e-05
4.52497e-05
2.57089e-05
1.05055e-05
1.17007e-06
1.50597e-07
1.35104e-06
3.09473e-06
5.17107e-06
7.45674e-06
9.86038e-06
1.23107e-05
1.47572e-05
1.71733e-05
1.95563e-05
2.19249e-05
2.4314e-05
2.67696e-05
2.93435e-05
3.2089e-05
3.50579e-05
3.82985e-05
4.18528e-05
4.57551e-05
5.00293e-05
5.46863e-05
5.97209e-05
6.51096e-05
7.08088e-05
7.67545e-05
8.28652e-05
8.90475e-05
9.52057e-05
0.000101253
0.000107129
0.000112805
0.000118306
0.000123702
0.000129115
0.000134703
0.000140648
0.000147114
0.000154239
0.000162125
0.000170812
0.000180274
0.000190416
0.000201086
0.000212082
0.000223176
0.000234123
0.000244684
0.000254643
0.000263818
0.000272073
0.000279321
0.000285519
0.000290663
0.000294772
0.000297869
0.000299822
0.000300613
0.000300505
0.000298806
0.000295138
0.000288947
0.000279547
0.000266235
0.000248471