/*--------------------------------*- C++ -*----------------------------------*\
  =========                 |
  \\      /  F ield         | OpenFOAM: The Open Source CFD Toolbox
   \\    /   O peration     | Website:  https://openfoam.org
    \\  /    A nd           | Version:  12
     \\/     M anipulation  |
\*---------------------------------------------------------------------------*/
FoamFile
{
    format      ascii;
    class       volScalarField;
    location    "6.5";
    object      nut;
}
// * * * * * * * * * * * * * * * * * * * * * * * * * * * * * * * * * * * * * //

dimensions      [0 2 -1 0 0 0 0];

internalField   nonuniform List<scalar> 
5625
(
6.54479e-15
4.42678e-14
9.85246e-14
1.63008e-13
2.34714e-13
3.11765e-13
3.92896e-13
4.77299e-13
5.64564e-13
6.54655e-13
7.47898e-13
8.44958e-13
9.46827e-13
1.05479e-12
1.17043e-12
1.29554e-12
1.43219e-12
1.58262e-12
1.74925e-12
1.93467e-12
2.14157e-12
2.37276e-12
2.63113e-12
2.91959e-12
3.24109e-12
3.59854e-12
3.99481e-12
4.43268e-12
4.91479e-12
5.44366e-12
6.02158e-12
6.65064e-12
7.33273e-12
8.06942e-12
8.86205e-12
9.71165e-12
1.06189e-11
1.15842e-11
1.26076e-11
1.36884e-11
1.48255e-11
1.60171e-11
1.72601e-11
1.85503e-11
1.98816e-11
2.12456e-11
2.26313e-11
2.40239e-11
2.54047e-11
2.67498e-11
2.80302e-11
2.92105e-11
3.02488e-11
3.10935e-11
3.16653e-11
3.19218e-11
3.19318e-11
3.15218e-11
3.0669e-11
2.93701e-11
2.76382e-11
2.55124e-11
2.3061e-11
2.03785e-11
1.75782e-11
1.47795e-11
1.20946e-11
9.61549e-12
7.40516e-12
5.49477e-12
3.88625e-12
2.56025e-12
1.48877e-12
6.54378e-13
9.63848e-14
1.97865e-13
6.44589e-12
1.61782e-11
2.74488e-11
3.98637e-11
5.31479e-11
6.71014e-11
8.1592e-11
9.65523e-11
1.11978e-10
1.27924e-10
1.44507e-10
1.61896e-10
1.80312e-10
2.00022e-10
2.21338e-10
2.44607e-10
2.70211e-10
2.98562e-10
3.30099e-10
3.65278e-10
4.04572e-10
4.48465e-10
4.97445e-10
5.52003e-10
6.12621e-10
6.7977e-10
7.53903e-10
8.35447e-10
9.24799e-10
1.02232e-09
1.12834e-09
1.24312e-09
1.36692e-09
1.4999e-09
1.64222e-09
1.79396e-09
1.95516e-09
2.1258e-09
2.30579e-09
2.49496e-09
2.69304e-09
2.8996e-09
3.11404e-09
3.3355e-09
3.56276e-09
3.79418e-09
4.02757e-09
4.26007e-09
4.48801e-09
4.70677e-09
4.91072e-09
5.09299e-09
5.24511e-09
5.35294e-09
5.40356e-09
5.41644e-09
5.35638e-09
5.2202e-09
5.00668e-09
4.71729e-09
4.35816e-09
3.94079e-09
3.48164e-09
3.00069e-09
2.51926e-09
2.05737e-09
1.63141e-09
1.25248e-09
9.25856e-10
6.51513e-10
4.25434e-10
2.41507e-10
9.45293e-11
2.91119e-12
4.20376e-13
3.45138e-11
1.10962e-10
2.01278e-10
2.99481e-10
4.03591e-10
5.12273e-10
6.24615e-10
7.4015e-10
8.58868e-10
9.81216e-10
1.10808e-09
1.24077e-09
1.38098e-09
1.53074e-09
1.69241e-09
1.86863e-09
2.06227e-09
2.27641e-09
2.5143e-09
2.7793e-09
3.07488e-09
3.40452e-09
3.77174e-09
4.17998e-09
4.6326e-09
5.13281e-09
5.68361e-09
6.28776e-09
6.94775e-09
7.66575e-09
8.4436e-09
9.28283e-09
1.01846e-08
1.11498e-08
1.21789e-08
1.32724e-08
1.44301e-08
1.56521e-08
1.69379e-08
1.82867e-08
1.96973e-08
2.11681e-08
2.26963e-08
2.42775e-08
2.59055e-08
2.75712e-08
2.92617e-08
3.09597e-08
3.26416e-08
3.42767e-08
3.58261e-08
3.72417e-08
3.84683e-08
3.93944e-08
3.9877e-08
4.01538e-08
3.98709e-08
3.90071e-08
3.75429e-08
3.54773e-08
3.28476e-08
2.97376e-08
2.62748e-08
2.26195e-08
1.89449e-08
1.54154e-08
1.21646e-08
9.28186e-09
6.80703e-09
4.73459e-09
3.02428e-09
1.61785e-09
5.01211e-10
6.16042e-12
6.87868e-13
8.09719e-11
3.33033e-10
6.65294e-10
1.03005e-09
1.41415e-09
1.81202e-09
2.22046e-09
2.6379e-09
3.06438e-09
3.50155e-09
3.9526e-09
4.42217e-09
4.91624e-09
5.44197e-09
6.00755e-09
6.62208e-09
7.29538e-09
8.03784e-09
8.86031e-09
9.77386e-09
1.07897e-08
1.19188e-08
1.31722e-08
1.45601e-08
1.60925e-08
1.77782e-08
1.96253e-08
2.16407e-08
2.38303e-08
2.61986e-08
2.87491e-08
3.14844e-08
3.44061e-08
3.75151e-08
4.08119e-08
4.4297e-08
4.7971e-08
5.18349e-08
5.58899e-08
6.01376e-08
6.45794e-08
6.92167e-08
7.40487e-08
7.90712e-08
8.42741e-08
8.96391e-08
9.51361e-08
1.0072e-07
1.06325e-07
1.11859e-07
1.17197e-07
1.22176e-07
1.26709e-07
1.3024e-07
1.32249e-07
1.33782e-07
1.33387e-07
1.30989e-07
1.26498e-07
1.19877e-07
1.11232e-07
1.00837e-07
8.91339e-08
7.66873e-08
6.41177e-08
5.20161e-08
4.08658e-08
3.09874e-08
2.25183e-08
1.54262e-08
9.55209e-09
4.71672e-09
1.16455e-09
1.00082e-11
9.92318e-13
1.36689e-10
6.75188e-10
1.49371e-09
2.43005e-09
3.42062e-09
4.44153e-09
5.4819e-09
6.53708e-09
7.60691e-09
8.69542e-09
9.81048e-09
1.09635e-08
1.2169e-08
1.34444e-08
1.48092e-08
1.62848e-08
1.78942e-08
1.9661e-08
2.16097e-08
2.37646e-08
2.61496e-08
2.87878e-08
3.17011e-08
3.49095e-08
3.84309e-08
4.22809e-08
4.64721e-08
5.10144e-08
5.59148e-08
6.11778e-08
6.68063e-08
7.2802e-08
7.91651e-08
8.58961e-08
9.29966e-08
1.0047e-07
1.08323e-07
1.16565e-07
1.25208e-07
1.34266e-07
1.43757e-07
1.537e-07
1.64111e-07
1.74997e-07
1.86356e-07
1.98162e-07
2.10365e-07
2.22878e-07
2.35563e-07
2.48217e-07
2.60554e-07
2.72184e-07
2.83086e-07
2.91527e-07
2.96553e-07
3.00647e-07
3.00293e-07
2.95305e-07
2.85522e-07
2.70851e-07
2.51521e-07
2.28155e-07
2.0175e-07
1.73586e-07
1.45072e-07
1.17554e-07
9.2144e-08
6.95811e-08
5.01833e-08
3.3872e-08
2.03015e-08
9.27214e-09
1.94258e-09
1.42908e-11
1.32833e-12
1.97555e-10
1.10324e-09
2.67168e-09
4.57801e-09
6.63136e-09
8.74934e-09
1.08958e-08
1.30556e-08
1.52263e-08
1.74151e-08
1.96371e-08
2.19149e-08
2.4277e-08
2.67568e-08
2.9392e-08
3.22228e-08
3.52915e-08
3.86412e-08
4.23152e-08
4.63553e-08
5.08016e-08
5.56914e-08
6.10581e-08
6.69312e-08
7.33353e-08
8.02897e-08
8.78085e-08
9.5901e-08
1.04572e-07
1.13821e-07
1.23651e-07
1.34071e-07
1.45077e-07
1.56672e-07
1.68867e-07
1.81679e-07
1.95129e-07
2.09248e-07
2.24074e-07
2.39648e-07
2.56015e-07
2.73227e-07
2.91329e-07
3.1035e-07
3.30297e-07
3.51136e-07
3.72772e-07
3.95054e-07
4.17724e-07
4.40397e-07
4.62538e-07
4.83395e-07
5.02806e-07
5.17814e-07
5.26545e-07
5.33394e-07
5.32349e-07
5.2289e-07
5.04943e-07
4.78472e-07
4.43961e-07
4.02543e-07
3.55954e-07
3.06379e-07
2.562e-07
2.077e-07
1.62772e-07
1.22698e-07
8.80439e-08
5.87061e-08
3.4206e-08
1.46699e-08
2.7656e-09
1.88817e-11
1.69273e-12
2.62356e-10
1.58738e-09
4.1337e-09
7.43593e-09
1.10914e-08
1.48887e-08
1.87277e-08
2.25641e-08
2.63851e-08
3.01996e-08
3.40324e-08
3.79216e-08
4.19156e-08
4.60706e-08
5.04489e-08
5.51163e-08
6.01405e-08
6.5589e-08
7.15277e-08
7.8019e-08
8.51203e-08
9.28829e-08
1.01351e-07
1.10563e-07
1.20549e-07
1.31329e-07
1.42916e-07
1.55318e-07
1.68537e-07
1.8257e-07
1.97418e-07
2.13076e-07
2.2956e-07
2.46889e-07
2.65089e-07
2.84203e-07
3.04283e-07
3.25396e-07
3.47621e-07
3.71048e-07
3.95771e-07
4.2187e-07
4.49419e-07
4.78465e-07
5.0901e-07
5.40989e-07
5.74242e-07
6.08446e-07
6.43114e-07
6.77545e-07
7.10794e-07
7.4169e-07
7.69281e-07
7.90714e-07
8.02029e-07
8.09613e-07
8.05466e-07
7.88417e-07
7.58939e-07
7.17224e-07
6.64159e-07
6.01482e-07
5.31704e-07
4.57898e-07
3.83375e-07
3.11301e-07
2.44316e-07
1.84237e-07
1.31897e-07
8.72206e-08
4.97642e-08
2.04028e-08
3.60605e-09
2.36901e-11
2.08381e-12
3.30832e-10
2.11001e-09
5.80804e-09
1.08974e-08
1.67107e-08
2.28212e-08
2.90024e-08
3.51464e-08
4.1214e-08
4.72097e-08
5.31686e-08
5.91483e-08
6.52231e-08
7.14791e-08
7.80105e-08
8.49156e-08
9.22929e-08
1.0024e-07
1.08849e-07
1.18206e-07
1.28386e-07
1.39456e-07
1.51469e-07
1.64467e-07
1.78481e-07
1.93533e-07
2.09637e-07
2.26798e-07
2.4502e-07
2.64312e-07
2.84677e-07
3.06122e-07
3.28677e-07
3.52384e-07
3.77297e-07
4.03491e-07
4.31057e-07
4.60104e-07
4.90753e-07
5.23139e-07
5.57394e-07
5.93629e-07
6.31935e-07
6.72349e-07
7.14825e-07
7.59196e-07
8.05129e-07
8.52055e-07
8.99152e-07
9.453e-07
9.89072e-07
1.02878e-06
1.06259e-06
1.08718e-06
1.0989e-06
1.10362e-06
1.09306e-06
1.06501e-06
1.02104e-06
9.61734e-07
8.88435e-07
8.03457e-07
7.09982e-07
6.11808e-07
5.12992e-07
4.17413e-07
3.28324e-07
2.47989e-07
1.77485e-07
1.16813e-07
6.57316e-08
2.61663e-08
4.4515e-09
2.86522e-11
2.5008e-12
4.03013e-10
2.66278e-09
7.63961e-09
1.48402e-08
2.33248e-08
3.2371e-08
4.155e-08
5.06401e-08
5.95487e-08
6.82647e-08
7.68314e-08
8.53299e-08
9.38671e-08
1.02567e-07
1.11565e-07
1.20998e-07
1.31003e-07
1.4171e-07
1.53242e-07
1.65709e-07
1.79209e-07
1.93824e-07
2.09622e-07
2.26652e-07
2.44951e-07
2.64544e-07
2.85447e-07
3.07672e-07
3.31227e-07
3.56129e-07
3.82393e-07
4.10048e-07
4.39143e-07
4.69744e-07
5.01938e-07
5.35834e-07
5.71559e-07
6.09263e-07
6.49106e-07
6.91256e-07
7.3587e-07
7.83074e-07
8.32938e-07
8.8544e-07
9.4042e-07
9.97518e-07
1.05613e-06
1.11531e-06
1.17382e-06
1.23002e-06
1.28197e-06
1.32745e-06
1.36404e-06
1.3883e-06
1.39533e-06
1.39467e-06
1.37464e-06
1.33286e-06
1.27258e-06
1.19479e-06
1.10122e-06
9.94641e-07
8.78711e-07
7.57743e-07
6.3633e-07
5.18877e-07
4.09113e-07
3.09665e-07
2.21823e-07
1.45693e-07
8.13258e-08
3.18038e-08
5.29509e-09
3.37262e-11
2.94363e-12
4.79034e-10
3.24267e-09
9.59347e-09
1.91597e-08
3.0755e-08
4.32996e-08
5.60861e-08
6.87199e-08
8.10195e-08
9.29419e-08
1.04535e-07
1.15906e-07
1.27203e-07
1.38595e-07
1.50267e-07
1.62405e-07
1.7519e-07
1.88795e-07
2.03379e-07
2.19083e-07
2.36028e-07
2.54318e-07
2.74035e-07
2.95242e-07
3.17983e-07
3.42293e-07
3.68195e-07
3.95709e-07
4.24854e-07
4.55656e-07
4.88148e-07
5.22376e-07
5.58409e-07
5.96338e-07
6.36276e-07
6.7836e-07
7.22751e-07
7.69627e-07
8.19181e-07
8.71598e-07
9.27041e-07
9.85613e-07
1.04732e-06
1.11201e-06
1.17932e-06
1.24861e-06
1.31888e-06
1.38876e-06
1.45648e-06
1.51992e-06
1.57666e-06
1.6241e-06
1.65956e-06
1.68e-06
1.67841e-06
1.66836e-06
1.63831e-06
1.58122e-06
1.50401e-06
1.40806e-06
1.29534e-06
1.16887e-06
1.03262e-06
8.91191e-07
7.49536e-07
6.12432e-07
4.83982e-07
3.67128e-07
2.63365e-07
1.72924e-07
9.6158e-08
3.72472e-08
6.13248e-09
3.88937e-11
3.41268e-12
5.59082e-10
3.84943e-09
1.16509e-08
2.37815e-08
3.88463e-08
5.53683e-08
7.22947e-08
8.89967e-08
1.05165e-07
1.20705e-07
1.35664e-07
1.5018e-07
1.64448e-07
1.78695e-07
1.93164e-07
2.08099e-07
2.23738e-07
2.40303e-07
2.57993e-07
2.76988e-07
2.9744e-07
3.19475e-07
3.43197e-07
3.68684e-07
3.95995e-07
4.25175e-07
4.56257e-07
4.89271e-07
5.24246e-07
5.61219e-07
6.00234e-07
6.41352e-07
6.84657e-07
7.30255e-07
7.78279e-07
8.28888e-07
8.82265e-07
9.38613e-07
9.98139e-07
1.06103e-06
1.12743e-06
1.19738e-06
1.27075e-06
1.34719e-06
1.42605e-06
1.50629e-06
1.58647e-06
1.66472e-06
1.73881e-06
1.80618e-06
1.86413e-06
1.90988e-06
1.94074e-06
1.95416e-06
1.94216e-06
1.91903e-06
1.87865e-06
1.80674e-06
1.71281e-06
1.59974e-06
1.46948e-06
1.32519e-06
1.17095e-06
1.0115e-06
8.51994e-07
6.97462e-07
5.52318e-07
4.19801e-07
3.0163e-07
1.9819e-07
1.10102e-07
4.24793e-08
6.96346e-09
4.41359e-11
3.90874e-12
6.43379e-10
4.48422e-09
1.38048e-08
2.86604e-08
4.74832e-08
6.83765e-08
8.98864e-08
1.11094e-07
1.31524e-07
1.51012e-07
1.69598e-07
1.87455e-07
2.04834e-07
2.22031e-07
2.39359e-07
2.57132e-07
2.7565e-07
2.95194e-07
3.16013e-07
3.38329e-07
3.6233e-07
3.88172e-07
4.15981e-07
4.45855e-07
4.77867e-07
5.12075e-07
5.48523e-07
5.87246e-07
6.28282e-07
6.71672e-07
7.17464e-07
7.65727e-07
8.16548e-07
8.70044e-07
9.26358e-07
9.85664e-07
1.04816e-06
1.11407e-06
1.1836e-06
1.25693e-06
1.33413e-06
1.41514e-06
1.49963e-06
1.58699e-06
1.67616e-06
1.76569e-06
1.85365e-06
1.9377e-06
2.01522e-06
2.08342e-06
2.13944e-06
2.18058e-06
2.20434e-06
2.20851e-06
2.18499e-06
2.14862e-06
2.09446e-06
2.01102e-06
1.90097e-06
1.77194e-06
1.62577e-06
1.46557e-06
1.29543e-06
1.12011e-06
9.44826e-07
7.74788e-07
6.14667e-07
4.67999e-07
3.36768e-07
2.21545e-07
1.23187e-07
4.75105e-08
7.78919e-09
4.94491e-11
4.43289e-12
7.32178e-10
5.14896e-09
1.60551e-08
3.37748e-08
5.6591e-08
8.21762e-08
1.0863e-07
1.34695e-07
1.59697e-07
1.83384e-07
2.05787e-07
2.27118e-07
2.47694e-07
2.67891e-07
2.88103e-07
3.08725e-07
3.3013e-07
3.52661e-07
3.76628e-07
4.02299e-07
4.29901e-07
4.59623e-07
4.91616e-07
5.25997e-07
5.62857e-07
6.02261e-07
6.4426e-07
6.88893e-07
7.36195e-07
7.86203e-07
8.38964e-07
8.94539e-07
9.53017e-07
1.01451e-06
1.07918e-06
1.14719e-06
1.21878e-06
1.29417e-06
1.37356e-06
1.45709e-06
1.54475e-06
1.6363e-06
1.73117e-06
1.82837e-06
1.92645e-06
2.02347e-06
2.11706e-06
2.20452e-06
2.28298e-06
2.34954e-06
2.40142e-06
2.43606e-06
2.45126e-06
2.44493e-06
2.40954e-06
2.36068e-06
2.29131e-06
2.19704e-06
2.073e-06
1.92894e-06
1.76808e-06
1.59341e-06
1.40895e-06
1.21939e-06
1.02992e-06
8.45863e-07
6.721e-07
5.12464e-07
3.69243e-07
2.43237e-07
1.35518e-07
5.23658e-08
8.61179e-09
5.4839e-11
4.98645e-12
8.2576e-10
5.84599e-09
1.84062e-08
3.91199e-08
6.61302e-08
9.66721e-08
1.28359e-07
1.5956e-07
1.89371e-07
2.17442e-07
2.43793e-07
2.68681e-07
2.92502e-07
3.1572e-07
3.38824e-07
3.62297e-07
3.86593e-07
4.12128e-07
4.39273e-07
4.68347e-07
4.9962e-07
5.33313e-07
5.69604e-07
6.08628e-07
6.50487e-07
6.95253e-07
7.42976e-07
7.93688e-07
8.47415e-07
9.04181e-07
9.64019e-07
1.02698e-06
1.09314e-06
1.16261e-06
1.23555e-06
1.31216e-06
1.39268e-06
1.47734e-06
1.56634e-06
1.65976e-06
1.75744e-06
1.85894e-06
1.96335e-06
2.06931e-06
2.17492e-06
2.27781e-06
2.37525e-06
2.46429e-06
2.54195e-06
2.60535e-06
2.65187e-06
2.67918e-06
2.68536e-06
2.66814e-06
2.62123e-06
2.56082e-06
2.47685e-06
2.36879e-06
2.23474e-06
2.07598e-06
1.90103e-06
1.71266e-06
1.51479e-06
1.31199e-06
1.10938e-06
9.12321e-07
7.25845e-07
5.54076e-07
3.99634e-07
2.63596e-07
1.4723e-07
5.70766e-08
9.434e-09
6.03179e-11
5.57099e-12
9.24431e-10
6.57792e-09
2.08655e-08
4.47012e-08
7.60891e-08
1.11814e-07
1.48973e-07
1.85526e-07
2.20325e-07
2.5291e-07
2.83294e-07
3.11788e-07
3.38875e-07
3.6512e-07
3.91116e-07
4.17443e-07
4.44644e-07
4.73211e-07
5.03579e-07
5.36121e-07
5.7115e-07
6.0892e-07
6.49633e-07
6.93437e-07
7.40442e-07
7.90717e-07
8.44303e-07
9.01219e-07
9.61469e-07
1.02506e-06
1.09199e-06
1.16229e-06
1.23605e-06
1.31336e-06
1.3944e-06
1.47941e-06
1.56863e-06
1.66233e-06
1.76067e-06
1.86364e-06
1.97093e-06
2.08181e-06
2.19505e-06
2.30884e-06
2.42088e-06
2.52845e-06
2.62857e-06
2.71813e-06
2.79415e-06
2.85387e-06
2.89482e-06
2.91488e-06
2.91234e-06
2.88445e-06
2.82669e-06
2.75529e-06
2.65784e-06
2.53463e-06
2.39081e-06
2.21863e-06
2.02944e-06
1.82734e-06
1.61624e-06
1.40054e-06
1.18527e-06
9.75742e-07
7.77098e-07
5.93703e-07
4.28528e-07
2.82965e-07
1.58466e-07
6.16766e-08
1.02589e-08
6.59016e-11
6.18824e-12
1.02852e-09
7.34756e-09
2.34419e-08
5.05323e-08
8.64756e-08
1.27588e-07
1.70419e-07
2.125e-07
2.52419e-07
2.89606e-07
3.24074e-07
3.56197e-07
3.86555e-07
4.15826e-07
4.44714e-07
4.73904e-07
5.04032e-07
5.3567e-07
5.6932e-07
6.05408e-07
6.44288e-07
6.86246e-07
7.31501e-07
7.80212e-07
8.32487e-07
8.88386e-07
9.47931e-07
1.01112e-06
1.07791e-06
1.1483e-06
1.22225e-06
1.29978e-06
1.38095e-06
1.46589e-06
1.55481e-06
1.64796e-06
1.74566e-06
1.84817e-06
1.95562e-06
2.06791e-06
2.1845e-06
2.30439e-06
2.42594e-06
2.54698e-06
2.6648e-06
2.77646e-06
2.87884e-06
2.96874e-06
3.04322e-06
3.09963e-06
3.13562e-06
3.14923e-06
3.13887e-06
3.10107e-06
3.03336e-06
2.95187e-06
2.84127e-06
2.70282e-06
2.54539e-06
2.36243e-06
2.158e-06
1.94136e-06
1.71645e-06
1.48753e-06
1.25948e-06
1.03756e-06
8.26929e-07
6.32128e-07
4.56459e-07
3.0166e-07
1.69368e-07
6.61987e-08
1.10896e-08
7.16081e-11
6.8401e-12
1.13839e-09
8.15785e-09
2.61454e-08
5.66319e-08
9.73111e-08
1.44005e-07
1.92687e-07
2.40438e-07
2.85577e-07
3.27427e-07
3.66005e-07
4.01761e-07
4.35385e-07
4.67676e-07
4.99457e-07
5.31524e-07
5.6461e-07
5.99367e-07
6.36365e-07
6.76081e-07
7.18908e-07
7.65158e-07
8.15063e-07
8.68785e-07
9.26422e-07
9.88016e-07
1.05356e-06
1.12301e-06
1.19631e-06
1.27339e-06
1.3542e-06
1.43875e-06
1.5271e-06
1.61942e-06
1.71595e-06
1.81704e-06
1.92304e-06
2.03423e-06
2.15071e-06
2.27223e-06
2.39804e-06
2.52681e-06
2.65642e-06
2.78434e-06
2.90798e-06
3.02401e-06
3.12904e-06
3.21991e-06
3.29376e-06
3.34797e-06
3.38024e-06
3.38863e-06
3.37159e-06
3.32459e-06
3.24759e-06
3.15663e-06
3.03268e-06
2.88006e-06
2.70565e-06
2.51123e-06
2.29119e-06
2.05839e-06
1.81836e-06
1.57522e-06
1.33372e-06
1.09904e-06
8.76263e-07
6.70023e-07
4.83891e-07
3.19958e-07
1.80061e-07
7.06728e-08
1.19289e-08
7.74556e-11
7.52864e-12
1.25441e-09
9.0119e-09
2.89866e-08
6.30217e-08
1.08626e-07
1.61092e-07
2.15793e-07
2.69338e-07
3.19776e-07
3.66325e-07
4.09023e-07
4.48404e-07
4.8528e-07
5.20582e-07
5.5526e-07
5.90221e-07
6.26299e-07
6.64227e-07
7.04639e-07
7.48062e-07
7.94924e-07
8.45555e-07
9.00195e-07
9.59e-07
1.02205e-06
1.08936e-06
1.16088e-06
1.23653e-06
1.31621e-06
1.3998e-06
1.48726e-06
1.57857e-06
1.67383e-06
1.77328e-06
1.87723e-06
1.98611e-06
2.10034e-06
2.22024e-06
2.34584e-06
2.47672e-06
2.6119e-06
2.74915e-06
2.88713e-06
3.02287e-06
3.15293e-06
3.27397e-06
3.38283e-06
3.47603e-06
3.55079e-06
3.60443e-06
3.63459e-06
3.63925e-06
3.61674e-06
3.56118e-06
3.47521e-06
3.37504e-06
3.23745e-06
3.07064e-06
2.87839e-06
2.66797e-06
2.43323e-06
2.18187e-06
1.92472e-06
1.66574e-06
1.40956e-06
1.16129e-06
9.25891e-07
7.07945e-07
5.11207e-07
3.38092e-07
1.90649e-07
7.51251e-08
1.27792e-08
8.3461e-11
8.25605e-12
1.37698e-09
9.91291e-09
3.1977e-08
6.97255e-08
1.20456e-07
1.78892e-07
2.39773e-07
2.99226e-07
3.55023e-07
4.06295e-07
4.53106e-07
4.96096e-07
5.36206e-07
5.74508e-07
6.12083e-07
6.49957e-07
6.8906e-07
7.30208e-07
7.74095e-07
8.21295e-07
8.72262e-07
9.2734e-07
9.8677e-07
1.05069e-06
1.11916e-06
1.19215e-06
1.26956e-06
1.35128e-06
1.43715e-06
1.52703e-06
1.62087e-06
1.71867e-06
1.8206e-06
1.92696e-06
2.0382e-06
2.15485e-06
2.27741e-06
2.40622e-06
2.54125e-06
2.68181e-06
2.82606e-06
2.97349e-06
3.12073e-06
3.26481e-06
3.40232e-06
3.52997e-06
3.6442e-06
3.7416e-06
3.81923e-06
3.87425e-06
3.90411e-06
3.90661e-06
3.87989e-06
3.81656e-06
3.72194e-06
3.61261e-06
3.46092e-06
3.27871e-06
3.06868e-06
2.83782e-06
2.58699e-06
2.31502e-06
2.03812e-06
1.76109e-06
1.48846e-06
1.22534e-06
9.76497e-07
7.4636e-07
5.38719e-07
3.56251e-07
2.0122e-07
7.95786e-08
1.36427e-08
8.96393e-11
9.02464e-12
1.50651e-09
1.08642e-08
3.51281e-08
7.67684e-08
1.3284e-07
1.97453e-07
2.64677e-07
3.30142e-07
3.91352e-07
4.47356e-07
4.98268e-07
5.4484e-07
5.8816e-07
6.29446e-07
6.69917e-07
7.10717e-07
7.52875e-07
7.97284e-07
8.44696e-07
8.95723e-07
9.50844e-07
1.01041e-06
1.07465e-06
1.14368e-06
1.21751e-06
1.29609e-06
1.37927e-06
1.46686e-06
1.55869e-06
1.6546e-06
1.75454e-06
1.85857e-06
1.96696e-06
2.08012e-06
2.19864e-06
2.3232e-06
2.45437e-06
2.5925e-06
2.7374e-06
2.88763e-06
3.04326e-06
3.2012e-06
3.35867e-06
3.51248e-06
3.65929e-06
3.79556e-06
3.91706e-06
4.02084e-06
4.10353e-06
4.16199e-06
4.19337e-06
4.19518e-06
4.16533e-06
4.09497e-06
3.99213e-06
3.87302e-06
3.70688e-06
3.50818e-06
3.27936e-06
3.02567e-06
2.75462e-06
2.46083e-06
2.161e-06
1.86323e-06
1.57185e-06
1.29214e-06
1.0287e-06
7.85662e-07
5.66681e-07
3.74585e-07
2.11838e-07
8.40538e-08
1.45207e-08
9.60024e-11
9.83686e-12
1.64343e-09
1.18693e-08
3.8452e-08
8.41765e-08
1.45821e-07
2.16827e-07
2.90561e-07
3.62141e-07
4.28808e-07
4.89546e-07
5.44535e-07
5.94656e-07
6.41155e-07
6.85404e-07
7.28763e-07
7.72496e-07
8.17729e-07
8.65427e-07
9.16398e-07
9.71285e-07
1.03058e-06
1.09464e-06
1.16366e-06
1.23775e-06
1.31686e-06
1.40089e-06
1.48964e-06
1.58288e-06
1.68041e-06
1.78208e-06
1.88786e-06
1.99792e-06
2.11262e-06
2.23257e-06
2.35852e-06
2.49129e-06
2.63157e-06
2.77969e-06
2.93449e-06
3.09683e-06
3.26412e-06
3.43387e-06
3.60309e-06
3.76869e-06
3.92713e-06
4.07359e-06
4.20486e-06
4.3174e-06
4.40737e-06
4.47127e-06
4.50586e-06
4.50828e-06
4.47612e-06
4.39938e-06
4.2887e-06
4.1588e-06
3.97787e-06
3.7616e-06
3.51253e-06
3.23505e-06
2.93893e-06
2.62172e-06
2.29564e-06
1.97404e-06
1.66115e-06
1.36267e-06
1.08311e-06
8.26208e-07
5.95305e-07
3.93214e-07
2.22549e-07
8.85717e-08
1.5414e-08
1.02559e-10
1.06953e-11
1.78818e-09
1.29316e-08
4.19611e-08
9.1977e-08
1.59442e-07
2.37071e-07
3.17486e-07
3.95281e-07
4.67443e-07
5.3291e-07
5.91943e-07
6.45573e-07
6.95212e-07
7.42395e-07
7.88626e-07
8.3529e-07
8.83604e-07
9.34606e-07
9.89147e-07
1.0479e-06
1.11137e-06
1.17988e-06
1.25364e-06
1.33268e-06
1.41694e-06
1.50624e-06
1.60034e-06
1.69898e-06
1.80194e-06
1.9091e-06
2.0205e-06
2.13644e-06
2.25744e-06
2.38431e-06
2.518e-06
2.65947e-06
2.80952e-06
2.96757e-06
3.13499e-06
3.30982e-06
3.49013e-06
3.67327e-06
3.85643e-06
4.03627e-06
4.2075e-06
4.36686e-06
4.51044e-06
4.63404e-06
4.73341e-06
4.80457e-06
4.84384e-06
4.84795e-06
4.81421e-06
4.73153e-06
4.61264e-06
4.47149e-06
4.27531e-06
4.04042e-06
3.7696e-06
3.46734e-06
3.14362e-06
2.79932e-06
2.44413e-06
2.09533e-06
1.75779e-06
1.43792e-06
1.14033e-06
8.68338e-07
6.24776e-07
4.12236e-07
2.33375e-07
9.31593e-08
1.63229e-08
1.09315e-10
1.16031e-11
1.94118e-09
1.4055e-08
4.56681e-08
1.00198e-07
1.73746e-07
2.58239e-07
3.45511e-07
4.29622e-07
5.07312e-07
5.77493e-07
6.4053e-07
6.97618e-07
7.5035e-07
8.00429e-07
8.49506e-07
8.99084e-07
9.50472e-07
1.00477e-06
1.06288e-06
1.12548e-06
1.19307e-06
1.26598e-06
1.34437e-06
1.42824e-06
1.51747e-06
1.61183e-06
1.71103e-06
1.81481e-06
1.92295e-06
2.03537e-06
2.15225e-06
2.27401e-06
2.40142e-06
2.53548e-06
2.67736e-06
2.8282e-06
2.98822e-06
3.15881e-06
3.33915e-06
3.52784e-06
3.72277e-06
3.92146e-06
4.12104e-06
4.31587e-06
4.50279e-06
4.67762e-06
4.83579e-06
4.97256e-06
5.08319e-06
5.16316e-06
5.2083e-06
5.21498e-06
5.18021e-06
5.09184e-06
4.96404e-06
4.81139e-06
4.59952e-06
4.34515e-06
4.0515e-06
3.7233e-06
3.37052e-06
2.99528e-06
2.60828e-06
2.22882e-06
1.86319e-06
1.51893e-06
1.20101e-06
9.12406e-07
6.55274e-07
4.31741e-07
2.44359e-07
9.78238e-08
1.72473e-08
1.16272e-10
1.25628e-11
2.10292e-09
1.52431e-08
4.95863e-08
1.08867e-07
1.88779e-07
2.80389e-07
3.74699e-07
4.65223e-07
5.48467e-07
6.2334e-07
6.90331e-07
7.50817e-07
8.06583e-07
8.59508e-07
9.11393e-07
9.63856e-07
1.01829e-06
1.07587e-06
1.1375e-06
1.2039e-06
1.27555e-06
1.35277e-06
1.43566e-06
1.52419e-06
1.61818e-06
1.71737e-06
1.82143e-06
1.93009e-06
2.04317e-06
2.1607e-06
2.28297e-06
2.41064e-06
2.54468e-06
2.68636e-06
2.83705e-06
2.99788e-06
3.16973e-06
3.3534e-06
3.54801e-06
3.75209e-06
3.96361e-06
4.18046e-06
4.39677e-06
4.60958e-06
4.81464e-06
5.00714e-06
5.18195e-06
5.33373e-06
5.45715e-06
5.54714e-06
5.59907e-06
5.60893e-06
5.57349e-06
5.47969e-06
5.34212e-06
5.17774e-06
4.94983e-06
4.67535e-06
4.35807e-06
4.00309e-06
3.62039e-06
3.21092e-06
2.78954e-06
2.37601e-06
1.97873e-06
1.60676e-06
1.26585e-06
9.58787e-07
6.86979e-07
4.51815e-07
2.55547e-07
1.02565e-07
1.81867e-08
1.23431e-10
1.35774e-11
2.27394e-09
1.65002e-08
5.37295e-08
1.18014e-07
2.04585e-07
3.03576e-07
4.05108e-07
5.0214e-07
5.90957e-07
6.70489e-07
7.41372e-07
8.05186e-07
8.63916e-07
9.19626e-07
9.74265e-07
1.02957e-06
1.08701e-06
1.14781e-06
1.21292e-06
1.28304e-06
1.35866e-06
1.44005e-06
1.52729e-06
1.62029e-06
1.71883e-06
1.8226e-06
1.93127e-06
2.04459e-06
2.16244e-06
2.28497e-06
2.41267e-06
2.54641e-06
2.68745e-06
2.83732e-06
2.99767e-06
3.16927e-06
3.35423e-06
3.55219e-06
3.76252e-06
3.98367e-06
4.21462e-06
4.44947e-06
4.68543e-06
4.91848e-06
5.14375e-06
5.35585e-06
5.54902e-06
5.71727e-06
5.85465e-06
5.95554e-06
6.01486e-06
6.02829e-06
5.99243e-06
5.89357e-06
5.74535e-06
5.56884e-06
5.32477e-06
5.02973e-06
4.68822e-06
4.30612e-06
3.89313e-06
3.44706e-06
2.98894e-06
2.53817e-06
2.10567e-06
1.70247e-06
1.33557e-06
1.0079e-06
7.20084e-07
4.72542e-07
2.66972e-07
1.07388e-07
1.91404e-08
1.30786e-10
1.46501e-11
2.45482e-09
1.78305e-08
5.81117e-08
1.27667e-07
2.21208e-07
3.27853e-07
4.36794e-07
5.40423e-07
6.34824e-07
7.18971e-07
7.93675e-07
8.60731e-07
9.22344e-07
9.80764e-07
1.03809e-06
1.09617e-06
1.15656e-06
1.22052e-06
1.28902e-06
1.36277e-06
1.44223e-06
1.52764e-06
1.61905e-06
1.71631e-06
1.81917e-06
1.92729e-06
2.04035e-06
2.15814e-06
2.28064e-06
2.40817e-06
2.54142e-06
2.68155e-06
2.83007e-06
2.98876e-06
3.15918e-06
3.34348e-06
3.54237e-06
3.75594e-06
3.9834e-06
4.22467e-06
4.47446e-06
4.72997e-06
4.98767e-06
5.24283e-06
5.49004e-06
5.7233e-06
5.93616e-06
6.12195e-06
6.2741e-06
6.38643e-06
6.45347e-06
6.47064e-06
6.43445e-06
6.33117e-06
6.1717e-06
5.98229e-06
5.72218e-06
5.40635e-06
5.04e-06
4.63117e-06
4.18772e-06
3.70394e-06
3.20699e-06
2.71619e-06
2.24509e-06
1.80708e-06
1.41095e-06
1.06019e-06
7.548e-07
4.94007e-07
2.78666e-07
1.12298e-07
2.01076e-08
1.38334e-10
1.57839e-11
2.64611e-09
1.92383e-08
6.27476e-08
1.37858e-07
2.38694e-07
3.53274e-07
4.6981e-07
5.80119e-07
6.80104e-07
7.68809e-07
8.47246e-07
9.17449e-07
9.81848e-07
1.04289e-06
1.10282e-06
1.1636e-06
1.22686e-06
1.29388e-06
1.36568e-06
1.44293e-06
1.52609e-06
1.61536e-06
1.71074e-06
1.81205e-06
1.919e-06
2.03126e-06
2.14853e-06
2.27066e-06
2.39777e-06
2.53037e-06
2.66941e-06
2.81632e-06
2.97292e-06
3.14135e-06
3.32317e-06
3.52075e-06
3.73477e-06
3.96526e-06
4.21276e-06
4.4734e-06
4.74419e-06
5.0223e-06
5.30337e-06
5.58217e-06
5.85269e-06
6.10826e-06
6.34172e-06
6.54571e-06
6.71307e-06
6.83712e-06
6.91198e-06
6.93288e-06
6.89624e-06
6.78939e-06
6.61897e-06
6.41503e-06
6.13938e-06
5.80286e-06
5.41161e-06
4.97568e-06
4.50232e-06
3.98109e-06
3.44369e-06
2.91057e-06
2.39783e-06
1.92152e-06
1.49273e-06
1.11613e-06
7.91359e-07
5.163e-07
2.90657e-07
1.17301e-07
2.10872e-08
1.46066e-10
1.69824e-11
2.84841e-09
2.07283e-08
6.76522e-08
1.48615e-07
2.57086e-07
3.79889e-07
5.04203e-07
6.21267e-07
7.26822e-07
8.20016e-07
9.02086e-07
9.75324e-07
1.0424e-06
1.10596e-06
1.1684e-06
1.23179e-06
1.29781e-06
1.36781e-06
1.44277e-06
1.52339e-06
1.61009e-06
1.70303e-06
1.80218e-06
1.90733e-06
2.01817e-06
2.13438e-06
2.25571e-06
2.38212e-06
2.51388e-06
2.65173e-06
2.79689e-06
2.95108e-06
3.11639e-06
3.29505e-06
3.48962e-06
3.70158e-06
3.93192e-06
4.18177e-06
4.44889e-06
4.73033e-06
5.02402e-06
5.32612e-06
5.63183e-06
5.9354e-06
6.23017e-06
6.50875e-06
6.7633e-06
6.9858e-06
7.16851e-06
7.30428e-06
7.38693e-06
7.41142e-06
7.37411e-06
7.26459e-06
7.08404e-06
6.86382e-06
6.57326e-06
6.21649e-06
5.8008e-06
5.33678e-06
4.83438e-06
4.27736e-06
3.69845e-06
3.12137e-06
2.5644e-06
2.04652e-06
1.58165e-06
1.17624e-06
8.30015e-07
5.39519e-07
3.02975e-07
1.22404e-07
2.20783e-08
1.53972e-10
1.82492e-11
3.06237e-09
2.23053e-08
7.28413e-08
1.59971e-07
2.76428e-07
4.07746e-07
5.40018e-07
6.639e-07
7.74998e-07
8.72595e-07
9.58181e-07
1.03433e-06
1.10396e-06
1.16992e-06
1.23476e-06
1.30064e-06
1.36933e-06
1.44217e-06
1.52017e-06
1.604e-06
1.69407e-06
1.7905e-06
1.89322e-06
2.00202e-06
2.11657e-06
2.23658e-06
2.36189e-06
2.49257e-06
2.62911e-06
2.77247e-06
2.92416e-06
3.08621e-06
3.261e-06
3.45107e-06
3.659e-06
3.88637e-06
4.13507e-06
4.40431e-06
4.69166e-06
4.99575e-06
5.31345e-06
5.64056e-06
5.9718e-06
6.30082e-06
6.62031e-06
6.92219e-06
7.19792e-06
7.43888e-06
7.63682e-06
7.78418e-06
7.87445e-06
7.90243e-06
7.86431e-06
7.75291e-06
7.5628e-06
7.32547e-06
7.0204e-06
6.64399e-06
6.20477e-06
5.71163e-06
5.18087e-06
4.59085e-06
3.97015e-06
3.34815e-06
2.74497e-06
2.18262e-06
1.67834e-06
1.241e-06
8.71039e-07
5.6377e-07
3.15652e-07
1.27611e-07
2.30799e-08
1.62041e-10
1.9588e-11
3.28861e-09
2.39743e-08
7.83311e-08
1.71956e-07
2.96764e-07
4.36893e-07
5.77294e-07
7.08043e-07
8.24639e-07
9.26536e-07
1.01551e-06
1.09442e-06
1.16647e-06
1.23471e-06
1.30182e-06
1.37009e-06
1.4413e-06
1.51686e-06
1.59775e-06
1.68464e-06
1.7779e-06
1.87764e-06
1.98375e-06
2.09601e-06
2.21413e-06
2.33785e-06
2.46711e-06
2.60215e-06
2.74366e-06
2.89287e-06
3.05158e-06
3.22213e-06
3.40714e-06
3.60942e-06
3.83163e-06
4.07622e-06
4.34356e-06
4.63216e-06
4.94146e-06
5.26907e-06
5.61155e-06
5.96429e-06
6.32149e-06
6.67621e-06
7.02045e-06
7.34547e-06
7.64212e-06
7.90123e-06
8.11407e-06
8.27275e-06
8.37048e-06
8.40188e-06
8.36294e-06
8.24991e-06
8.0512e-06
7.7965e-06
7.47712e-06
7.08178e-06
6.6199e-06
6.09797e-06
5.53845e-06
4.91895e-06
4.25717e-06
3.59001e-06
2.93931e-06
2.33009e-06
1.78328e-06
1.31089e-06
9.14712e-07
5.89166e-07
3.2872e-07
1.32928e-07
2.40909e-08
1.70259e-10
2.10028e-11
3.52785e-09
2.57407e-08
8.41385e-08
1.84604e-07
3.18137e-07
4.67371e-07
6.16064e-07
7.53714e-07
8.75746e-07
9.81821e-07
1.07403e-06
1.15556e-06
1.22988e-06
1.30025e-06
1.36951e-06
1.44003e-06
1.51364e-06
1.59177e-06
1.6754e-06
1.76519e-06
1.86147e-06
1.96434e-06
2.07368e-06
2.18927e-06
2.31084e-06
2.43823e-06
2.57149e-06
2.71103e-06
2.85778e-06
3.01325e-06
3.17954e-06
3.35924e-06
3.55522e-06
3.77057e-06
4.00864e-06
4.27065e-06
4.55629e-06
4.86581e-06
5.19771e-06
5.54937e-06
5.917e-06
6.29556e-06
6.67872e-06
7.0589e-06
7.42749e-06
7.77514e-06
8.09212e-06
8.36881e-06
8.59607e-06
8.76572e-06
8.87075e-06
8.90565e-06
8.86642e-06
8.75064e-06
8.54513e-06
8.27337e-06
7.93971e-06
7.52616e-06
7.04221e-06
6.49363e-06
5.90371e-06
5.25835e-06
4.55737e-06
3.8456e-06
3.14678e-06
2.48889e-06
1.89682e-06
1.3863e-06
9.61312e-07
6.15828e-07
3.42214e-07
1.38358e-07
2.51099e-08
1.78608e-10
2.24976e-11
3.78079e-09
2.761e-08
9.0281e-08
1.97945e-07
3.4059e-07
4.99222e-07
6.56356e-07
8.00922e-07
9.28306e-07
1.03842e-06
1.1337e-06
1.21768e-06
1.29412e-06
1.36647e-06
1.43774e-06
1.51037e-06
1.58625e-06
1.66681e-06
1.75304e-06
1.84556e-06
1.94471e-06
2.05056e-06
2.16299e-06
2.28179e-06
2.40677e-06
2.53784e-06
2.67519e-06
2.81945e-06
2.97178e-06
3.13396e-06
3.3084e-06
3.49799e-06
3.70589e-06
3.93546e-06
4.1894e-06
4.46853e-06
4.7738e-06
5.10469e-06
5.45952e-06
5.83539e-06
6.22815e-06
6.63228e-06
7.04091e-06
7.4459e-06
7.83804e-06
8.20744e-06
8.54391e-06
8.8374e-06
9.07849e-06
9.25871e-06
9.37088e-06
9.40935e-06
9.37013e-06
9.25111e-06
9.04049e-06
8.75258e-06
8.40443e-06
7.97357e-06
7.46874e-06
6.8954e-06
6.27344e-06
5.60501e-06
4.86825e-06
4.11309e-06
3.36636e-06
2.65869e-06
2.01908e-06
1.46757e-06
1.01111e-06
6.43879e-07
3.56169e-07
1.43901e-07
2.61356e-08
1.87069e-10
2.40768e-11
4.04821e-09
2.95881e-08
9.67769e-08
2.12015e-07
3.64162e-07
5.32481e-07
6.98191e-07
8.49665e-07
9.82296e-07
1.09629e-06
1.19446e-06
1.28072e-06
1.3591e-06
1.43329e-06
1.50643e-06
1.58104e-06
1.65905e-06
1.7419e-06
1.83058e-06
1.9257e-06
2.02757e-06
2.13626e-06
2.25168e-06
2.37365e-06
2.50202e-06
2.63685e-06
2.77847e-06
2.92771e-06
3.086e-06
3.25539e-06
3.43856e-06
3.63867e-06
3.85917e-06
4.10321e-06
4.3731e-06
4.67043e-06
4.99563e-06
5.34804e-06
5.72576e-06
6.12561e-06
6.54303e-06
6.97205e-06
7.40527e-06
7.834e-06
8.24853e-06
8.63851e-06
8.99337e-06
9.30275e-06
9.55696e-06
9.74732e-06
9.86647e-06
9.90858e-06
9.86957e-06
9.74728e-06
9.53304e-06
9.23084e-06
8.86752e-06
8.42042e-06
7.89609e-06
7.30021e-06
6.64545e-06
5.95415e-06
5.18704e-06
4.39031e-06