/*--------------------------------*- C++ -*----------------------------------*\
  =========                 |
  \\      /  F ield         | OpenFOAM: The Open Source CFD Toolbox
   \\    /   O peration     | Website:  https://openfoam.org
    \\  /    A nd           | Version:  12
     \\/     M anipulation  |
\*---------------------------------------------------------------------------*/
FoamFile
{
    format      ascii;
    class       volScalarField;
    location    "7";
    object      epsilon;
}
// * * * * * * * * * * * * * * * * * * * * * * * * * * * * * * * * * * * * * //

dimensions      [0 2 -3 0 0 0 0];

internalField   nonuniform List<scalar> 
5625
(
4.2958e-10
8.11208e-10
1.71966e-09
2.80427e-09
4.02629e-09
5.35648e-09
6.77351e-09
8.26097e-09
9.80541e-09
1.13952e-08
1.30199e-08
1.467e-08
1.63366e-08
1.80111e-08
1.96854e-08
2.13519e-08
2.3003e-08
2.46315e-08
2.62305e-08
2.77933e-08
2.93135e-08
3.07849e-08
3.22016e-08
3.3558e-08
3.48486e-08
3.60684e-08
3.72126e-08
3.82768e-08
3.92568e-08
4.01489e-08
4.09494e-08
4.16553e-08
4.22638e-08
4.27725e-08
4.31793e-08
4.34826e-08
4.3681e-08
4.37737e-08
4.37602e-08
4.36405e-08
4.34144e-08
4.30829e-08
4.26469e-08
4.21078e-08
4.14677e-08
4.07285e-08
3.98931e-08
3.89644e-08
3.79458e-08
3.68411e-08
3.56544e-08
3.43902e-08
3.30534e-08
3.16492e-08
3.01831e-08
2.8661e-08
2.70892e-08
2.54741e-08
2.38228e-08
2.21424e-08
2.04403e-08
1.87246e-08
1.70034e-08
1.52855e-08
1.35799e-08
1.18964e-08
1.02454e-08
8.63822e-09
7.08753e-09
5.60795e-09
4.21723e-09
2.93827e-09
1.80225e-09
8.5027e-10
4.5026e-10
2.90421e-09
1.57989e-09
1.53774e-09
1.83688e-09
2.29709e-09
2.85394e-09
3.47647e-09
4.14687e-09
4.85342e-09
5.58755e-09
6.34245e-09
7.11242e-09
7.89241e-09
8.67788e-09
9.46461e-09
1.02487e-08
1.10263e-08
1.17939e-08
1.25481e-08
1.32857e-08
1.40036e-08
1.46986e-08
1.53681e-08
1.60093e-08
1.66196e-08
1.71966e-08
1.77379e-08
1.82416e-08
1.87055e-08
1.91279e-08
1.95071e-08
1.98416e-08
2.013e-08
2.03712e-08
2.05643e-08
2.07083e-08
2.08028e-08
2.08472e-08
2.08413e-08
2.07851e-08
2.06786e-08
2.05221e-08
2.03162e-08
2.00614e-08
1.97588e-08
1.94093e-08
1.90142e-08
1.8575e-08
1.80933e-08
1.75708e-08
1.70096e-08
1.64118e-08
1.57797e-08
1.5116e-08
1.44232e-08
1.37042e-08
1.2962e-08
1.21998e-08
1.14211e-08
1.06293e-08
9.82821e-09
9.02178e-09
8.21425e-09
7.41012e-09
6.61431e-09
5.83224e-09
5.0701e-09
4.33521e-09
3.63677e-09
2.9873e-09
2.4057e-09
1.92464e-09
1.61183e-09
1.65637e-09
3.04469e-09
6.45514e-09
3.1641e-09
2.4402e-09
2.30402e-09
2.41559e-09
2.6639e-09
2.99893e-09
3.3935e-09
3.83089e-09
4.29983e-09
4.79214e-09
5.30153e-09
5.82291e-09
6.35196e-09
6.88491e-09
7.41842e-09
7.94941e-09
8.47507e-09
8.99275e-09
9.49997e-09
9.9944e-09
1.04738e-08
1.09361e-08
1.13794e-08
1.18017e-08
1.22013e-08
1.25766e-08
1.29259e-08
1.3248e-08
1.35415e-08
1.38052e-08
1.40379e-08
1.42389e-08
1.44071e-08
1.4542e-08
1.46429e-08
1.47094e-08
1.47412e-08
1.4738e-08
1.46999e-08
1.46268e-08
1.4519e-08
1.43769e-08
1.42008e-08
1.39914e-08
1.37496e-08
1.34761e-08
1.3172e-08
1.28384e-08
1.24768e-08
1.20884e-08
1.16749e-08
1.1238e-08
1.07795e-08
1.03015e-08
9.80593e-09
9.29522e-09
8.77175e-09
8.23813e-09
7.69714e-09
7.15178e-09
6.60534e-09
6.06141e-09
5.52403e-09
4.99783e-09
4.48828e-09
4.0021e-09
3.54798e-09
3.13787e-09
2.78941e-09
2.53122e-09
2.41583e-09
2.55976e-09
3.31964e-09
6.77202e-09
1.06688e-08
5.11821e-09
3.71119e-09
3.19952e-09
3.04313e-09
3.07411e-09
3.22032e-09
3.44405e-09
3.7228e-09
4.04181e-09
4.39073e-09
4.76184e-09
5.14915e-09
5.54782e-09
5.95379e-09
6.3636e-09
6.77417e-09
7.18277e-09
7.5869e-09
7.98427e-09
8.37277e-09
8.75044e-09
9.11543e-09
9.46603e-09
9.80064e-09
1.01177e-08
1.04159e-08
1.0694e-08
1.09506e-08
1.11846e-08
1.13952e-08
1.15814e-08
1.17423e-08
1.18773e-08
1.19858e-08
1.20673e-08
1.21213e-08
1.21477e-08
1.21462e-08
1.21168e-08
1.20595e-08
1.19745e-08
1.18621e-08
1.17226e-08
1.15566e-08
1.13648e-08
1.11477e-08
1.09064e-08
1.06418e-08
1.03551e-08
1.00474e-08
9.72008e-09
9.37469e-09
9.01281e-09
8.6362e-09
8.24676e-09
7.84655e-09
7.43782e-09
7.02298e-09
6.6047e-09
6.18593e-09
5.76996e-09
5.36053e-09
4.962e-09
4.57955e-09
4.21956e-09
3.89017e-09
3.60231e-09
3.37151e-09
3.22148e-09
3.19186e-09
3.35834e-09
3.89723e-09
5.37556e-09
1.12046e-08
1.53478e-08
7.30964e-09
5.18486e-09
4.30759e-09
3.90954e-09
3.7566e-09
3.75099e-09
3.84298e-09
4.00374e-09
4.21475e-09
4.46329e-09
4.74009e-09
5.03807e-09
5.35164e-09
5.6762e-09
6.00791e-09
6.34345e-09
6.67994e-09
7.01484e-09
7.34584e-09
7.67083e-09
7.9879e-09
8.29528e-09
8.59135e-09
8.87456e-09
9.14352e-09
9.39693e-09
9.63357e-09
9.85234e-09
1.00522e-08
1.02323e-08
1.03917e-08
1.05298e-08
1.06459e-08
1.07394e-08
1.08098e-08
1.08569e-08
1.08803e-08
1.08799e-08
1.08558e-08
1.08077e-08
1.07359e-08
1.06407e-08
1.05225e-08
1.03816e-08
1.02187e-08
1.00344e-08
9.82957e-09
9.60512e-09
9.36209e-09
9.10163e-09
8.82503e-09
8.5337e-09
8.2292e-09
7.91325e-09
7.58769e-09
7.2546e-09
6.9162e-09
6.57499e-09
6.23374e-09
5.89556e-09
5.56401e-09
5.24322e-09
4.93807e-09
4.65452e-09
4.40006e-09
4.18453e-09
4.02131e-09
3.92984e-09
3.94043e-09
4.10529e-09
4.52718e-09
5.45213e-09
7.68795e-09
1.61416e-08
2.03639e-08
9.66777e-09
6.79077e-09
5.5449e-09
4.91465e-09
4.59318e-09
4.45409e-09
4.43431e-09
4.49784e-09
4.62217e-09
4.79197e-09
4.9963e-09
5.22693e-09
5.47744e-09
5.74264e-09
6.01826e-09
6.30068e-09
6.58678e-09
6.87382e-09
7.15938e-09
7.44127e-09
7.71752e-09
7.98634e-09
8.24608e-09
8.49523e-09
8.73243e-09
8.95638e-09
9.16593e-09
9.35999e-09
9.53759e-09
9.69785e-09
9.83995e-09
9.9632e-09
1.0067e-08
1.01507e-08
1.02141e-08
1.02566e-08
1.02781e-08
1.02784e-08
1.02576e-08
1.02154e-08
1.01522e-08
1.00681e-08
9.96346e-09
9.83881e-09
9.69467e-09
9.53171e-09
9.3507e-09
9.15257e-09
8.93832e-09
8.70912e-09
8.46624e-09
8.21111e-09
7.94532e-09
7.67059e-09
7.38885e-09
7.10223e-09
6.81307e-09
6.52401e-09
6.23801e-09
5.95841e-09
5.68916e-09
5.43487e-09
5.2011e-09
4.99465e-09
4.82422e-09
4.70131e-09
4.64196e-09
4.66989e-09
4.82289e-09
5.16731e-09
5.8361e-09
7.15226e-09
1.01853e-08
2.14542e-08
2.56207e-08
1.21434e-08
8.48688e-09
6.86696e-09
6.00803e-09
5.52611e-09
5.26412e-09
5.14449e-09
5.12354e-09
5.17422e-09
5.27853e-09
5.4237e-09
5.60027e-09
5.80094e-09
6.01989e-09
6.25237e-09
6.4944e-09
6.74259e-09
6.994e-09
7.24603e-09
7.4964e-09
7.74303e-09
7.98408e-09
8.21785e-09
8.4428e-09
8.65753e-09
8.86073e-09
9.05124e-09
9.22798e-09
9.38998e-09
9.53635e-09
9.66632e-09
9.77917e-09
9.87431e-09
9.95121e-09
1.00095e-08
1.00487e-08
1.00687e-08
1.00693e-08
1.00505e-08
1.00122e-08
9.95468e-09
9.87808e-09
9.78279e-09
9.66925e-09
9.53804e-09
9.38982e-09
9.22539e-09
9.04567e-09
8.85171e-09
8.64468e-09
8.4259e-09
8.19684e-09
7.95911e-09
7.71454e-09
7.46515e-09
7.21319e-09
6.96118e-09
6.71195e-09
6.46873e-09
6.2352e-09
6.01563e-09
5.8151e-09
5.63981e-09
5.49748e-09
5.39811e-09
5.35509e-09
5.38735e-09
5.52328e-09
5.80885e-09
6.32573e-09
7.23942e-09
8.95486e-09
1.28181e-08
2.70455e-08
3.10392e-08
1.46979e-08
1.02428e-08
8.24449e-09
7.15862e-09
6.52123e-09
6.14321e-09
5.93172e-09
5.8349e-09
5.82098e-09
5.86891e-09
5.96409e-09
6.09572e-09
6.25557e-09
6.43716e-09
6.63522e-09
6.8454e-09
7.06401e-09
7.28788e-09
7.51423e-09
7.74063e-09
7.96491e-09
8.18511e-09
8.39948e-09
8.60642e-09
8.80448e-09
8.99235e-09
9.16883e-09
9.33281e-09
9.48333e-09
9.61949e-09
9.74049e-09
9.84565e-09
9.93435e-09
1.00061e-08
1.00604e-08
1.0097e-08
1.01156e-08
1.01161e-08
1.00985e-08
1.00627e-08
1.0009e-08
9.93746e-09
9.84857e-09
9.74277e-09
9.62065e-09
9.48289e-09
9.33033e-09
9.1639e-09
8.9847e-09
8.79396e-09
8.59306e-09
8.38354e-09
8.16713e-09
7.94574e-09
7.7215e-09
7.49679e-09
7.27428e-09
7.057e-09
6.84841e-09
6.65253e-09
6.47406e-09
6.31863e-09
6.19313e-09
6.10627e-09
6.06939e-09
6.09788e-09
6.21379e-09
6.45057e-09
6.8628e-09
7.54839e-09
8.70698e-09
1.08289e-08
1.55469e-08
3.28355e-08
3.65524e-08
1.72986e-08
1.20343e-08
9.65555e-09
8.34446e-09
7.5554e-09
7.06644e-09
6.76899e-09
6.60271e-09
6.53083e-09
6.52927e-09
6.58126e-09
6.67475e-09
6.80049e-09
6.9513e-09
7.12137e-09
7.30594e-09
7.50102e-09
7.70319e-09
7.90949e-09
8.11732e-09
8.32438e-09
8.52862e-09
8.72821e-09
8.92148e-09
9.10693e-09
9.2832e-09
9.44907e-09
9.60341e-09
9.74521e-09
9.87359e-09
9.98774e-09
1.00869e-08
1.01706e-08
1.02382e-08
1.02893e-08
1.03236e-08
1.03408e-08
1.03408e-08
1.03236e-08
1.02892e-08
1.02378e-08
1.01696e-08
1.0085e-08
9.98461e-09
9.86889e-09
9.73863e-09
9.59469e-09
9.43805e-09
9.26986e-09
9.09138e-09
8.90407e-09
8.70955e-09
8.50963e-09
8.30634e-09
8.10195e-09
7.89898e-09
7.7003e-09
7.50917e-09
7.32931e-09
7.16508e-09
7.02159e-09
6.90505e-09
6.8231e-09
6.78545e-09
6.80487e-09
6.89891e-09
7.09292e-09
7.42554e-09
7.96041e-09
8.81227e-09
1.02158e-08
1.27489e-08
1.83379e-08
3.87544e-08
4.21021e-08
1.99178e-08
1.38411e-08
1.10825e-08
9.54864e-09
8.61145e-09
8.01584e-09
7.6372e-09
7.40655e-09
7.28201e-09
7.2363e-09
7.25058e-09
7.31125e-09
7.40816e-09
7.53333e-09
7.68043e-09
7.84426e-09
8.0205e-09
8.20547e-09
8.39601e-09
8.58937e-09
8.78311e-09
8.97507e-09
9.16332e-09
9.34614e-09
9.52196e-09
9.68938e-09
9.84712e-09
9.99405e-09
1.01291e-08
1.02515e-08
1.03602e-08
1.04546e-08
1.05342e-08
1.05983e-08
1.06466e-08
1.06787e-08
1.06944e-08
1.06935e-08
1.06762e-08
1.06423e-08
1.05921e-08
1.05259e-08
1.04441e-08
1.03472e-08
1.02358e-08
1.01107e-08
9.97283e-09
9.82323e-09
9.66307e-09
9.49371e-09
9.31667e-09
9.13366e-09
8.94659e-09
8.75759e-09
8.56908e-09
8.38375e-09
8.20466e-09
8.03528e-09
7.87964e-09
7.74243e-09
7.62924e-09
7.54682e-09
7.5036e-09
7.51036e-09
7.58136e-09
7.73644e-09
8.00424e-09
8.42886e-09
9.08317e-09
1.0099e-08
1.17469e-08
1.4693e-08
2.11607e-08
4.47388e-08
4.76374e-08
2.25311e-08
1.56458e-08
1.25107e-08
1.07575e-08
9.67591e-09
8.97762e-09
8.52199e-09
8.2313e-09
8.05852e-09
7.97312e-09
7.95412e-09
7.98639e-09
8.05875e-09
8.16249e-09
8.29068e-09
8.43769e-09
8.59886e-09
8.77025e-09
8.94848e-09
9.13062e-09
9.3141e-09
9.49666e-09
9.67627e-09
9.85113e-09
1.00196e-08
1.01803e-08
1.03318e-08
1.0473e-08
1.06028e-08
1.07203e-08
1.08247e-08
1.09153e-08
1.09914e-08
1.10524e-08
1.10981e-08
1.11281e-08
1.1142e-08
1.114e-08
1.11219e-08
1.10878e-08
1.10378e-08
1.09724e-08
1.0892e-08
1.07971e-08
1.06883e-08
1.05666e-08
1.04328e-08
1.0288e-08
1.01336e-08
9.97084e-09
9.80144e-09
9.62716e-09
9.45001e-09
9.27227e-09
9.09648e-09
8.92549e-09
8.76256e-09
8.61142e-09
8.47638e-09
8.36248e-09
8.27577e-09
8.22363e-09
8.21529e-09
8.26255e-09
8.38137e-09
8.59376e-09
8.93178e-09
9.44507e-09
1.02158e-08
1.13931e-08
1.32831e-08
1.6641e-08
2.39872e-08
5.07298e-08
5.31141e-08
2.51175e-08
1.74335e-08
1.39277e-08
1.19597e-08
1.07379e-08
9.94087e-09
9.41215e-09
9.06531e-09
8.84815e-09
8.72688e-09
8.67835e-09
8.68597e-09
8.73737e-09
8.82319e-09
8.93585e-09
9.0693e-09
9.21851e-09
9.37928e-09
9.548e-09
9.72158e-09
9.8973e-09
1.00728e-08
1.02459e-08
1.04148e-08
1.05777e-08
1.07333e-08
1.088e-08
1.10168e-08
1.11425e-08
1.12561e-08
1.1357e-08
1.14442e-08
1.15172e-08
1.15755e-08
1.16187e-08
1.16464e-08
1.16584e-08
1.16548e-08
1.16354e-08
1.16003e-08
1.15497e-08
1.14842e-08
1.1404e-08
1.13097e-08
1.12022e-08
1.10822e-08
1.09508e-08
1.08091e-08
1.06584e-08
1.05003e-08
1.03363e-08
1.01685e-08
9.99882e-09
9.82981e-09
9.66409e-09
9.50471e-09
9.35511e-09
9.21928e-09
9.1018e-09
9.00812e-09
8.94475e-09
8.91967e-09
8.94289e-09
9.02744e-09
9.19081e-09
9.45722e-09
9.86226e-09
1.0461e-08
1.1345e-08
1.26805e-08
1.48091e-08
1.85742e-08
2.67909e-08
5.66717e-08
5.84944e-08
2.76591e-08
1.91916e-08
1.53231e-08
1.3146e-08
1.17885e-08
1.08968e-08
1.02988e-08
9.89941e-09
9.64136e-09
9.48761e-09
9.41284e-09
9.39898e-09
9.43254e-09
9.5034e-09
9.6034e-09
9.72601e-09
9.86587e-09
1.00185e-08
1.018e-08
1.03472e-08
1.05172e-08
1.06875e-08
1.08559e-08
1.10204e-08
1.11792e-08
1.13309e-08
1.1474e-08
1.16073e-08
1.17297e-08
1.18402e-08
1.1938e-08
1.20223e-08
1.20925e-08
1.21482e-08
1.21888e-08
1.22141e-08
1.2224e-08
1.22182e-08
1.2197e-08
1.21603e-08
1.21084e-08
1.20417e-08
1.19607e-08
1.1866e-08
1.17585e-08
1.16389e-08
1.15084e-08
1.13682e-08
1.12196e-08
1.10642e-08
1.09039e-08
1.07405e-08
1.05763e-08
1.04139e-08
1.0256e-08
1.01059e-08
9.96718e-09
9.84414e-09
9.74166e-09
9.66553e-09
9.62276e-09
9.62196e-09
9.67389e-09
9.79285e-09
9.99777e-09
1.03152e-08
1.07841e-08
1.14651e-08
1.24588e-08
1.39484e-08
1.63104e-08
2.04747e-08
2.95464e-08
6.2511e-08
6.37472e-08
3.01411e-08
2.09097e-08
1.66885e-08
1.43088e-08
1.28206e-08
1.18385e-08
1.11749e-08
1.07264e-08
1.04307e-08
1.02475e-08
1.01495e-08
1.01169e-08
1.01353e-08
1.01938e-08
1.02835e-08
1.03976e-08
1.05303e-08
1.06769e-08
1.08331e-08
1.09958e-08
1.11617e-08
1.13283e-08
1.14933e-08
1.16547e-08
1.18106e-08
1.19594e-08
1.20997e-08
1.22303e-08
1.23499e-08
1.24578e-08
1.25528e-08
1.26345e-08
1.2702e-08
1.27549e-08
1.27929e-08
1.28156e-08
1.28228e-08
1.28146e-08
1.27909e-08
1.27519e-08
1.26979e-08
1.26292e-08
1.25465e-08
1.24504e-08
1.23417e-08
1.22214e-08
1.20905e-08
1.19503e-08
1.18024e-08
1.16483e-08
1.14899e-08
1.13292e-08
1.11687e-08
1.1011e-08
1.0859e-08
1.07161e-08
1.05862e-08
1.04738e-08
1.0384e-08
1.03231e-08
1.02985e-08
1.03194e-08
1.03975e-08
1.05482e-08
1.07919e-08
1.11573e-08
1.1687e-08
1.24466e-08
1.35459e-08
1.51845e-08
1.77729e-08
2.23255e-08
3.22291e-08
6.8196e-08
6.88483e-08
3.25521e-08
2.25798e-08
1.80173e-08
1.54423e-08
1.38288e-08
1.27606e-08
1.20351e-08
1.15409e-08
1.12105e-08
1.10007e-08
1.0882e-08
1.08332e-08
1.08389e-08
1.0887e-08
1.09687e-08
1.10762e-08
1.12036e-08
1.13457e-08
1.14983e-08
1.16578e-08
1.1821e-08
1.19852e-08
1.21479e-08
1.23071e-08
1.24608e-08
1.26075e-08
1.27456e-08
1.2874e-08
1.29913e-08
1.30967e-08
1.31892e-08
1.32682e-08
1.33329e-08
1.3383e-08
1.34181e-08
1.34378e-08
1.3442e-08
1.34308e-08
1.34041e-08
1.33621e-08
1.33052e-08
1.32338e-08
1.31484e-08
1.30499e-08
1.2939e-08
1.28167e-08
1.26843e-08
1.2543e-08
1.23944e-08
1.22401e-08
1.20822e-08
1.19228e-08
1.17644e-08
1.16097e-08
1.14618e-08
1.13244e-08
1.12014e-08
1.10976e-08
1.10186e-08
1.09707e-08
1.09621e-08
1.10024e-08
1.11043e-08
1.12841e-08
1.15637e-08
1.19742e-08
1.25612e-08
1.33956e-08
1.45958e-08
1.63773e-08
1.91834e-08
2.41098e-08
3.48153e-08
7.36761e-08
7.37802e-08
3.48838e-08
2.41961e-08
1.93048e-08
1.65423e-08
1.48091e-08
1.36592e-08
1.28756e-08
1.23388e-08
1.19766e-08
1.17428e-08
1.16057e-08
1.1543e-08
1.15379e-08
1.15778e-08
1.1653e-08
1.17556e-08
1.18792e-08
1.20183e-08
1.21685e-08
1.23261e-08
1.24875e-08
1.26502e-08
1.28114e-08
1.29691e-08
1.31213e-08
1.32663e-08
1.34026e-08
1.35289e-08
1.3644e-08
1.3747e-08
1.38369e-08
1.39131e-08
1.39749e-08
1.40219e-08
1.40536e-08
1.40699e-08
1.40706e-08
1.40558e-08
1.40254e-08
1.39797e-08
1.39191e-08
1.38441e-08
1.37552e-08
1.36533e-08
1.35392e-08
1.3414e-08
1.32789e-08
1.31353e-08
1.29848e-08
1.28292e-08
1.26705e-08
1.2511e-08
1.23532e-08
1.22e-08
1.20548e-08
1.19211e-08
1.18034e-08
1.17065e-08
1.16362e-08
1.15995e-08
1.16048e-08
1.16623e-08
1.17856e-08
1.19919e-08
1.23047e-08
1.27571e-08
1.33978e-08
1.43027e-08
1.55984e-08
1.75155e-08
2.05288e-08
2.58114e-08
3.72814e-08
7.89018e-08
7.85334e-08
3.71317e-08
2.57555e-08
2.05485e-08
1.76065e-08
1.57593e-08
1.45322e-08
1.3694e-08
1.31176e-08
1.27264e-08
1.24709e-08
1.23177e-08
1.22429e-08
1.22288e-08
1.22621e-08
1.23324e-08
1.24315e-08
1.25524e-08
1.26897e-08
1.28385e-08
1.29949e-08
1.31554e-08
1.33172e-08
1.34774e-08
1.3634e-08
1.3785e-08
1.39285e-08
1.40631e-08
1.41874e-08
1.43002e-08
1.44007e-08
1.44877e-08
1.45608e-08
1.46192e-08
1.46626e-08
1.46905e-08
1.47027e-08
1.46993e-08
1.46801e-08
1.46453e-08
1.45952e-08
1.45301e-08
1.44505e-08
1.43573e-08
1.4251e-08
1.41328e-08
1.40036e-08
1.38648e-08
1.37178e-08
1.35643e-08
1.34062e-08
1.32454e-08
1.30845e-08
1.29261e-08
1.27731e-08
1.26291e-08
1.24978e-08
1.23837e-08
1.2292e-08
1.22288e-08
1.22014e-08
1.22185e-08
1.22911e-08
1.24334e-08
1.26637e-08
1.30068e-08
1.34977e-08
1.41882e-08
1.51588e-08
1.65439e-08
1.85883e-08
2.17964e-08
2.74143e-08
3.96044e-08
8.38245e-08
8.31059e-08
3.92948e-08
2.72573e-08
2.17476e-08
1.86343e-08
1.66788e-08
1.53786e-08
1.44894e-08
1.38763e-08
1.34585e-08
1.31836e-08
1.30161e-08
1.2931e-08
1.29095e-08
1.29375e-08
1.30042e-08
1.31008e-08
1.32202e-08
1.33564e-08
1.35045e-08
1.36604e-08
1.38205e-08
1.39816e-08
1.41412e-08
1.42969e-08
1.44466e-08
1.45886e-08
1.47213e-08
1.48434e-08
1.49536e-08
1.50511e-08
1.51348e-08
1.52042e-08
1.52587e-08
1.52977e-08
1.53211e-08
1.53286e-08
1.53201e-08
1.52958e-08
1.52557e-08
1.52002e-08
1.51297e-08
1.50447e-08
1.49461e-08
1.48345e-08
1.47111e-08
1.4577e-08
1.44335e-08
1.42821e-08
1.41245e-08
1.39627e-08
1.37988e-08
1.36354e-08
1.34751e-08
1.33211e-08
1.31769e-08
1.30465e-08
1.29346e-08
1.28466e-08
1.27888e-08
1.27689e-08
1.27959e-08
1.28815e-08
1.30405e-08
1.32921e-08
1.36624e-08
1.41883e-08
1.49243e-08
1.59552e-08
1.74227e-08
1.9585e-08
2.29738e-08
2.89029e-08
4.17618e-08
8.83963e-08
8.75037e-08
4.1376e-08
2.87034e-08
2.29037e-08
1.96268e-08
1.75684e-08
1.61993e-08
1.52622e-08
1.46153e-08
1.41731e-08
1.38807e-08
1.37007e-08
1.36067e-08
1.35792e-08
1.36031e-08
1.36672e-08
1.37622e-08
1.38806e-08
1.40164e-08
1.41643e-08
1.432e-08
1.44798e-08
1.46406e-08
1.47994e-08
1.49541e-08
1.51024e-08
1.52425e-08
1.53729e-08
1.54922e-08
1.55993e-08
1.56931e-08
1.57728e-08
1.58378e-08
1.58874e-08
1.59213e-08
1.59392e-08
1.59409e-08
1.59266e-08
1.5896e-08
1.58496e-08
1.57877e-08
1.57108e-08
1.56194e-08
1.55143e-08
1.53964e-08
1.52668e-08
1.51267e-08
1.49774e-08
1.48205e-08
1.46578e-08
1.44913e-08
1.43233e-08
1.41562e-08
1.39929e-08
1.38366e-08
1.3691e-08
1.35603e-08
1.34492e-08
1.33634e-08
1.33094e-08
1.32952e-08
1.33302e-08
1.34266e-08
1.35998e-08
1.38699e-08
1.42642e-08
1.48213e-08
1.55981e-08
1.66835e-08
1.82258e-08
2.04952e-08
2.40486e-08
3.02618e-08
4.37312e-08
9.25701e-08
9.17414e-08
4.33823e-08
3.00985e-08
2.40206e-08
2.05872e-08
1.84308e-08
1.69966e-08
1.60146e-08
1.53361e-08
1.48716e-08
1.45634e-08
1.43725e-08
1.42709e-08
1.42384e-08
1.42592e-08
1.43214e-08
1.44154e-08
1.45335e-08
1.46692e-08
1.48171e-08
1.49727e-08
1.51323e-08
1.52924e-08
1.54503e-08
1.56035e-08
1.57499e-08
1.58876e-08
1.6015e-08
1.61308e-08
1.62339e-08
1.63231e-08
1.63978e-08
1.64572e-08
1.65009e-08
1.65285e-08
1.65398e-08
1.65346e-08
1.65131e-08
1.64752e-08
1.64213e-08
1.63518e-08
1.62672e-08
1.61682e-08
1.60556e-08
1.59302e-08
1.57933e-08
1.56461e-08
1.549e-08
1.53266e-08
1.51577e-08
1.49854e-08
1.48121e-08
1.46402e-08
1.44728e-08
1.43132e-08
1.4165e-08
1.40327e-08
1.39211e-08
1.3836e-08
1.37842e-08
1.3774e-08
1.3815e-08
1.392e-08
1.4105e-08
1.43907e-08
1.48055e-08
1.53896e-08
1.62022e-08
1.73356e-08
1.89441e-08
2.13089e-08
2.50091e-08
3.14759e-08
4.54908e-08
9.62995e-08
9.58419e-08
4.53243e-08
3.14502e-08
2.5104e-08
2.15203e-08
1.92702e-08
1.77741e-08
1.67498e-08
1.60419e-08
1.55568e-08
1.52344e-08
1.50337e-08
1.49257e-08
1.4889e-08
1.49074e-08
1.49683e-08
1.50619e-08
1.51798e-08
1.53156e-08
1.54635e-08
1.5619e-08
1.5778e-08
1.59372e-08
1.60936e-08
1.62447e-08
1.63884e-08
1.65227e-08
1.66462e-08
1.67574e-08
1.68552e-08
1.69387e-08
1.7007e-08
1.70596e-08
1.7096e-08
1.71159e-08
1.71191e-08
1.71056e-08
1.70754e-08
1.70287e-08
1.69659e-08
1.68874e-08
1.67938e-08
1.66859e-08
1.65644e-08
1.64304e-08
1.62849e-08
1.61294e-08
1.59653e-08
1.57942e-08
1.56181e-08
1.5439e-08
1.52592e-08
1.50816e-08
1.4909e-08
1.47448e-08
1.45929e-08
1.44577e-08
1.43442e-08
1.42584e-08
1.42073e-08
1.41993e-08
1.42444e-08
1.43557e-08
1.45498e-08
1.4848e-08
1.52797e-08
1.58864e-08
1.67292e-08
1.79036e-08
1.95691e-08
2.20162e-08
2.58436e-08
3.25305e-08
4.70193e-08
9.95395e-08
9.98366e-08
4.72169e-08
3.27686e-08
2.6162e-08
2.24329e-08
2.00926e-08
1.85372e-08
1.74727e-08
1.6737e-08
1.62329e-08
1.58974e-08
1.5688e-08
1.55744e-08
1.55343e-08
1.55508e-08
1.56109e-08
1.57042e-08
1.58222e-08
1.59579e-08
1.61057e-08
1.62607e-08
1.64187e-08
1.65762e-08
1.67303e-08
1.68785e-08
1.70184e-08
1.71483e-08
1.72665e-08
1.73717e-08
1.74629e-08
1.7539e-08
1.75994e-08
1.76434e-08
1.76708e-08
1.76812e-08
1.76747e-08
1.76511e-08
1.76105e-08
1.75533e-08
1.74799e-08
1.73908e-08
1.72866e-08
1.71682e-08
1.70364e-08
1.68922e-08
1.67368e-08
1.65717e-08
1.63983e-08
1.62184e-08
1.60338e-08
1.58466e-08
1.56595e-08
1.54749e-08
1.52959e-08
1.51261e-08
1.49693e-08
1.483e-08
1.47133e-08
1.46253e-08
1.45732e-08
1.45656e-08
1.46127e-08
1.47281e-08
1.49284e-08
1.52359e-08
1.56807e-08
1.63052e-08
1.71722e-08
1.83801e-08
2.00924e-08
2.26077e-08
2.65409e-08
3.34116e-08
4.82962e-08
1.02246e-07
1.03765e-07
4.90787e-08
3.40665e-08
2.72048e-08
2.33336e-08
2.09055e-08
1.92926e-08
1.81894e-08
1.74273e-08
1.69051e-08
1.65576e-08
1.63402e-08
1.62217e-08
1.61787e-08
1.61938e-08
1.62533e-08
1.63464e-08
1.64644e-08
1.66e-08
1.67473e-08
1.69012e-08
1.70574e-08
1.72125e-08
1.73633e-08
1.75073e-08
1.76422e-08
1.77661e-08
1.78775e-08
1.7975e-08
1.80576e-08
1.81245e-08
1.8175e-08
1.82085e-08
1.82248e-08
1.82237e-08
1.82053e-08
1.81694e-08
1.81165e-08
1.80468e-08
1.79608e-08
1.78592e-08
1.77426e-08
1.76118e-08
1.74679e-08
1.73119e-08
1.71452e-08
1.69689e-08
1.67849e-08
1.65947e-08
1.64003e-08
1.62039e-08
1.60081e-08
1.58154e-08
1.56289e-08
1.54523e-08
1.52893e-08
1.51446e-08
1.50233e-08
1.49317e-08
1.4877e-08
1.48679e-08
1.4915e-08
1.50318e-08
1.52357e-08
1.5549e-08
1.60026e-08
1.66398e-08
1.75249e-08
1.8758e-08
2.05063e-08
2.30745e-08
2.70905e-08
3.41054e-08
4.93017e-08
1.04378e-07
1.07674e-07
5.0932e-08
3.53593e-08
2.82444e-08
2.42325e-08
2.17177e-08
2.00484e-08
1.89073e-08
1.81197e-08
1.75802e-08
1.72212e-08
1.69965e-08
1.68735e-08
1.68281e-08
1.6842e-08
1.6901e-08
1.6994e-08
1.71118e-08
1.7247e-08
1.73932e-08
1.75454e-08
1.76991e-08
1.78506e-08
1.79969e-08
1.81352e-08
1.82634e-08
1.83796e-08
1.84822e-08
1.857e-08
1.8642e-08
1.86973e-08
1.87355e-08
1.87561e-08
1.87589e-08
1.87439e-08
1.8711e-08
1.86605e-08
1.85928e-08
1.85082e-08
1.84073e-08
1.82909e-08
1.81597e-08
1.80146e-08
1.78566e-08
1.7687e-08
1.75069e-08
1.73179e-08
1.71215e-08
1.69196e-08
1.6714e-08
1.6507e-08
1.63011e-08
1.6099e-08
1.59038e-08
1.5719e-08
1.55486e-08
1.53972e-08
1.527e-08
1.51732e-08
1.51141e-08
1.51017e-08
1.51464e-08
1.52623e-08
1.54666e-08
1.57821e-08
1.62402e-08
1.68848e-08
1.77811e-08
1.90308e-08
2.08034e-08
2.34083e-08
2.74824e-08
3.45995e-08
5.00175e-08
1.05896e-07
1.11619e-07
5.28026e-08
3.66648e-08
2.92949e-08
2.51415e-08
2.25397e-08
2.0814e-08
1.96352e-08
1.88222e-08
1.82658e-08
1.78957e-08
1.76641e-08
1.7537e-08
1.74894e-08
1.75023e-08
1.7561e-08
1.76538e-08
1.77713e-08
1.79055e-08
1.80502e-08
1.81998e-08
1.83499e-08
1.84966e-08
1.86369e-08
1.87679e-08
1.88875e-08
1.89938e-08
1.90854e-08
1.91611e-08
1.92198e-08
1.9261e-08
1.92841e-08
1.9289e-08
1.92755e-08
1.92435e-08
1.91934e-08
1.91255e-08
1.90401e-08
1.89379e-08
1.88195e-08
1.86857e-08
1.85373e-08
1.83755e-08
1.82012e-08
1.80157e-08
1.78203e-08
1.76165e-08
1.7406e-08
1.71905e-08
1.69721e-08
1.67529e-08
1.65355e-08
1.63226e-08
1.61172e-08
1.59229e-08
1.57437e-08
1.55841e-08
1.54494e-08
1.53458e-08
1.52806e-08
1.52628e-08
1.5303e-08
1.54151e-08
1.56167e-08
1.59307e-08
1.63887e-08
1.70351e-08
1.79354e-08
1.91924e-08
2.09771e-08
2.36014e-08
2.77075e-08
3.48822e-08
5.04267e-08
1.06764e-07
1.15661e-07
5.47194e-08
3.80028e-08
3.03717e-08
2.60736e-08
2.3383e-08
2.15997e-08
2.03827e-08
1.9544e-08
1.89707e-08
1.85897e-08
1.83513e-08
1.82204e-08
1.81709e-08
1.81831e-08
1.82415e-08
1.83342e-08
1.8451e-08
1.8584e-08
1.87263e-08
1.88725e-08
1.90178e-08
1.91583e-08
1.92908e-08
1.94126e-08
1.95214e-08
1.96155e-08
1.96934e-08
1.97541e-08
1.97966e-08
1.98206e-08
1.98255e-08
1.98114e-08
1.97782e-08
1.9726e-08
1.96554e-08
1.95666e-08
1.94604e-08
1.93374e-08
1.91984e-08
1.90442e-08
1.88759e-08
1.86945e-08
1.85012e-08
1.82973e-08
1.80843e-08
1.78635e-08
1.76367e-08
1.74057e-08
1.71726e-08
1.69395e-08
1.67089e-08
1.64835e-08
1.62664e-08
1.60611e-08
1.58716e-08
1.57022e-08
1.55584e-08
1.54463e-08
1.53731e-08
1.53478e-08
1.5381e-08
1.54866e-08
1.56821e-08
1.59907e-08
1.64438e-08
1.7086e-08
1.7983e-08
1.92377e-08
2.10216e-08
2.36472e-08
2.77579e-08
3.49436e-08
5.05147e-08
1.06952e-07
1.19866e-07
5.67138e-08
3.93949e-08
3.1492e-08
2.70432e-08
2.42601e-08
2.24169e-08
2.11602e-08
2.02952e-08
1.97045e-08
1.93125e-08
1.90676e-08
1.89331e-08
1.88821e-08
1.88938e-08
1.89522e-08
1.90447e-08
1.91608e-08
1.92921e-08
1.94315e-08
1.95732e-08
1.97124e-08
1.98451e-08
1.99679e-08
2.00782e-08
2.01737e-08
2.02527e-08
2.0314e-08
2.03564e-08
2.03794e-08
2.03825e-08
2.03656e-08
2.03287e-08
2.0272e-08
2.01959e-08
2.01009e-08
1.99877e-08
1.9857e-08
1.97096e-08
1.95464e-08
1.93685e-08
1.91769e-08
1.89729e-08
1.87576e-08
1.85325e-08
1.8299e-08
1.80587e-08
1.78133e-08
1.75645e-08
1.73145e-08
1.70654e-08
1.68197e-08
1.65801e-08
1.63495e-08
1.61315e-08
1.59299e-08
1.57492e-08
1.55945e-08
1.54719e-08
1.53888e-08
1.53538e-08
1.53777e-08
1.5474e-08
1.56604e-08
1.59597e-08
1.64032e-08
1.70352e-08
1.79213e-08
1.91638e-08
2.09335e-08
2.35416e-08
2.76285e-08
3.47767e-08
5.02712e-08
1.06436e-07
1.24307e-07
5.88194e-08
4.0864e-08
3.26737e-08
2.80653e-08
2.51842e-08
2.32777e-08
2.19791e-08
2.10864e-08
2.04777e-08
2.00745e-08
1.98232e-08
1.96856e-08
1.96335e-08
1.96452e-08
1.9704e-08
1.97965e-08
1.99118e-08
2.0041e-08
2.01768e-08
2.03131e-08
2.04447e-08
2.05678e-08
2.06787e-08
2.07749e-08
2.08543e-08
2.09151e-08
2.09561e-08
2.09766e-08
2.09761e-08
2.09544e-08
2.09114e-08
2.08475e-08
2.07631e-08
2.06588e-08
2.05352e-08
2.03933e-08
2.02339e-08
2.0058e-08
1.98668e-08
1.96613e-08
1.94428e-08
1.92126e-08
1.89721e-08
1.87226e-08
1.84656e-08
1.82029e-08
1.79361e-08
1.7667e-08
1.73977e-08
1.71304e-08
1.68674e-08
1.66114e-08
1.63654e-08
1.61329e-08
1.59176e-08
1.57239e-08
1.55568e-08
1.54223e-08
1.53273e-08
1.52806e-08
1.52926e-08
1.53764e-08
1.55498e-08
1.58352e-08
1.62636e-08
1.68788e-08
1.77458e-08
1.89656e-08
2.07072e-08
2.32781e-08
2.73117e-08
3.4372e-08
4.96826e-08
1.05189e-07
1.29056e-07
6.10709e-08
4.2434e-08
3.39354e-08
2.91557e-08
2.61692e-08
2.41946e-08
2.28511e-08
2.19289e-08
2.13014e-08
2.08869e-08
2.06295e-08
2.04893e-08
2.04368e-08
2.04492e-08
2.0509e-08
2.0602e-08
2.07167e-08
2.08436e-08
2.09751e-08
2.11047e-08
2.12273e-08
2.13386e-08
2.14352e-08
2.15144e-08
2.15741e-08
2.1613e-08
2.16299e-08
2.16242e-08
2.15957e-08
2.15445e-08
2.14707e-08
2.1375e-08
2.12581e-08
2.11207e-08
2.09638e-08
2.07884e-08
2.05958e-08
2.0387e-08
2.01634e-08
1.99262e-08
1.96768e-08
1.94165e-08
1.9147e-08
1.88695e-08
1.85858e-08
1.82975e-08
1.80063e-08
1.7714e-08
1.74227e-08
1.71347e-08
1.68522e-08
1.6578e-08
1.63148e-08
1.60658e-08
1.58347e-08
1.56256e-08
1.54435e-08
1.52943e-08
1.51848e-08
1.51234e-08
1.51205e-08
1.51888e-08
1.53457e-08
1.56131e-08
1.60215e-08
1.66137e-08
1.74536e-08
1.86404e-08
2.03398e-08
2.2854e-08
2.68043e-08
3.37254e-08
4.87423e-08
1.03196e-07
1.3419e-07
6.35038e-08
4.4129e-08
3.5296e-08
3.033e-08
2.72288e-08
2.51801e-08
2.3788e-08
2.28343e-08
2.21871e-08
2.17612e-08
2.14982e-08
2.13564e-08
2.13047e-08
2.13191e-08
2.13808e-08
2.1475e-08
2.15893e-08
2.17137e-08
2.18402e-08
2.19619e-08
2.20736e-08
2.21707e-08
2.22499e-08
2.23087e-08
2.23449e-08
2.23575e-08
2.23455e-08
2.23088e-08
2.22472e-08
2.21611e-08
2.20513e-08
2.19184e-08
2.17635e-08
2.15876e-08
2.13921e-08
2.11782e-08
2.09473e-08
2.07008e-08
2.044e-08
2.01666e-08
1.98819e-08
1.95875e-08
1.92849e-08
1.89758e-08
1.86617e-08
1.83443e-08
1.80255e-08
1.77071e-08
1.73912e-08
1.70798e-08
1.67751e-08
1.64796e-08
1.61962e-08
1.59281e-08
1.56787e-08
1.54522e-08
1.52532e-08
1.50873e-08
1.49613e-08
1.4883e-08
1.48626e-08
1.49126e-08
1.50494e-08
1.52946e-08
1.56778e-08
1.62408e-08
1.70455e-08
1.81887e-08
1.9832e-08
2.22695e-08
2.61063e-08
3.28368e-08
4.74503e-08
1.00456e-07
1.39784e-07
6.61532e-08
4.5973e-08
3.67741e-08
3.16037e-08
2.83767e-08
2.62469e-08
2.48019e-08
2.38143e-08
2.31466e-08
2.27096e-08
2.24421e-08
2.23001e-08
2.22508e-08
2.22687e-08
2.23338e-08
2.24301e-08
2.25445e-08
2.26663e-08
2.27869e-08
2.28993e-08
2.29977e-08
2.30777e-08
2.3136e-08
2.31699e-08
2.3178e-08
2.31592e-08
2.31129e-08
2.30393e-08
2.29386e-08
2.28118e-08
2.26597e-08
2.24835e-08
2.22847e-08
2.20645e-08
2.18247e-08
2.15666e-08
2.12921e-08
2.10025e-08
2.06997e-08
2.03852e-08
2.00607e-08
1.97277e-08
1.9388e-08
1.90432e-08
1.8695e-08
1.83451e-08
1.79954e-08
1.76476e-08
1.73037e-08
1.69657e-08
1.66359e-08
1.63168e-08
1.6011e-08
1.57215e-08
1.54518e-08
1.52056e-08
1.49875e-08
1.48028e-08
1.46578e-08
1.45603e-08
1.45197e-08
1.45482e-08
1.46615e-08
1.48804e-08
1.52334e-08
1.57609e-08
1.65226e-08
1.7612e-08
1.91853e-08
2.15264e-08
2.522e-08
3.1709e-08
4.58106e-08
9.69786e-08
1.45909e-07
6.9053e-08
4.79888e-08
3.83872e-08
3.29917e-08
2.96258e-08
2.74068e-08
2.59043e-08
2.48805e-08
2.41918e-08
2.37444e-08
2.3474e-08
2.33342e-08
2.32896e-08
2.33131e-08
2.33833e-08
2.3483e-08
2.3598e-08
2.37169e-08
2.38304e-08
2.39313e-08
2.40135e-08
2.40726e-08
2.41052e-08
2.41093e-08
2.40835e-08
2.40271e-08
2.39399e-08
2.38226e-08
2.36761e-08
2.35014e-08
2.33002e-08
2.3074e-08
2.28245e-08
2.25536e-08
2.22632e-08
2.19551e-08
2.16312e-08
2.12933e-08
2.09432e-08
2.05829e-08
2.02139e-08
1.9838e-08
1.94571e-08
1.90727e-08
1.86867e-08
1.83008e-08
1.79166e-08
1.75361e-08
1.71613e-08
1.6794e-08
1.64366e-08
1.60912e-08
1.57606e-08
1.54475e-08
1.51551e-08
1.48871e-08
1.46477e-08
1.44419e-08
1.42758e-08
1.41566e-08
1.40933e-08
1.40975e-08
1.4184e-08
1.43727e-08
1.46908e-08
1.51768e-08
1.58879e-08
1.69138e-08
1.84036e-08
2.06295e-08
2.4151e-08
3.0349e-08
4.38331e-08
9.27842e-08
1.52634e-07
7.22344e-08
5.01974e-08
4.01516e-08
3.45071e-08
3.0988e-08
2.86711e-08
2.71061e-08
2.60442e-08
2.53345e-08
2.48784e-08
2.46075e-08
2.44727e-08
2.44358e-08
2.44676e-08
2.45451e-08
2.46494e-08
2.47653e-08
2.48806e-08
2.49852e-08
2.50715e-08
2.51335e-08
2.51664e-08
2.51678e-08
2.51355e-08
2.50686e-08
2.49669e-08
2.4831e-08
2.4662e-08
2.44614e-08
2.42309e-08
2.39727e-08
2.36888e-08
2.33814e-08
2.30529e-08
2.27053e-08
2.23409e-08
2.19618e-08
2.15701e-08
2.11678e-08
2.07568e-08
2.0339e-08
1.99162e-08
1.94901e-08
1.90626e-08
1.86354e-08
1.82101e-08
1.77886e-08
1.73728e-08
1.69643e-08
1.65653e-08
1.61777e-08
1.58039e-08
1.54462e-08
1.51073e-08
1.47902e-08
1.44983e-08
1.42357e-08
1.40069e-08
1.38176e-08
1.36746e-08
1.35863e-08
1.35635e-08
1.36203e-08
1.37752e-08
1.4054e-08