/*--------------------------------*- C++ -*----------------------------------*\
  =========                 |
  \\      /  F ield         | OpenFOAM: The Open Source CFD Toolbox
   \\    /   O peration     | Website:  https://openfoam.org
    \\  /    A nd           | Version:  12
     \\/     M anipulation  |
\*---------------------------------------------------------------------------*/
FoamFile
{
    format      ascii;
    class       volScalarField;
    location    "7";
    object      k;
}
// * * * * * * * * * * * * * * * * * * * * * * * * * * * * * * * * * * * * * //

dimensions      [0 2 -2 0 0 0 0];

internalField   nonuniform List<scalar> 
5625
(
1.89359e-13
1.43032e-12
3.03211e-12
4.94449e-12
7.09917e-12
9.44456e-12
1.19431e-11
1.45658e-11
1.72889e-11
2.0092e-11
2.29568e-11
2.58663e-11
2.88047e-11
3.17572e-11
3.47094e-11
3.76477e-11
4.05589e-11
4.34303e-11
4.62497e-11
4.90052e-11
5.16857e-11
5.42801e-11
5.6778e-11
5.91694e-11
6.1445e-11
6.35958e-11
6.56133e-11
6.74897e-11
6.92177e-11
7.07905e-11
7.2202e-11
7.34467e-11
7.45196e-11
7.54165e-11
7.61338e-11
7.66685e-11
7.70183e-11
7.71818e-11
7.71581e-11
7.69469e-11
7.65483e-11
7.59637e-11
7.51949e-11
7.42445e-11
7.31157e-11
7.18125e-11
7.03395e-11
6.8702e-11
6.69061e-11
6.49582e-11
6.28658e-11
6.06368e-11
5.82797e-11
5.58037e-11
5.32187e-11
5.0535e-11
4.77636e-11
4.4916e-11
4.20043e-11
3.90413e-11
3.60403e-11
3.30151e-11
2.99803e-11
2.69513e-11
2.3944e-11
2.09757e-11
1.80646e-11
1.52309e-11
1.24967e-11
9.88793e-12
7.43581e-12
5.18075e-12
3.17772e-12
1.49919e-12
1.98474e-13
1.28018e-12
1.1395e-11
2.59735e-11
4.34127e-11
6.29594e-11
8.41618e-11
1.06704e-10
1.30339e-10
1.54863e-10
1.80096e-10
2.05876e-10
2.32053e-10
2.58487e-10
2.85043e-10
3.11595e-10
3.38021e-10
3.64201e-10
3.90022e-10
4.15375e-10
4.40154e-10
4.64257e-10
4.87585e-10
5.10047e-10
5.31551e-10
5.52014e-10
5.71354e-10
5.89496e-10
6.0637e-10
6.2191e-10
6.36055e-10
6.48749e-10
6.59944e-10
6.69595e-10
6.77664e-10
6.84118e-10
6.8893e-10
6.92081e-10
6.93554e-10
6.93342e-10
6.91444e-10
6.87861e-10
6.82606e-10
6.75694e-10
6.6715e-10
6.57001e-10
6.45284e-10
6.32041e-10
6.17318e-10
6.0117e-10
5.83657e-10
5.64843e-10
5.448e-10
5.23606e-10
5.01342e-10
4.78097e-10
4.53963e-10
4.29041e-10
4.03432e-10
3.77246e-10
3.50596e-10
3.23603e-10
2.96391e-10
2.69089e-10
2.41835e-10
2.14773e-10
1.88055e-10
1.61845e-10
1.36319e-10
1.11674e-10
8.81313e-11
6.59588e-11
4.54964e-11
2.72265e-11
1.19461e-11
1.3421e-12
2.84543e-12
2.55182e-11
5.85462e-11
9.83305e-11
1.43104e-10
1.9178e-10
2.43594e-10
2.97956e-10
3.54379e-10
4.12444e-10
4.71771e-10
5.32013e-10
5.92847e-10
6.53963e-10
7.15068e-10
7.75881e-10
8.3613e-10
8.95554e-10
9.539e-10
1.01092e-09
1.06639e-09
1.12009e-09
1.17178e-09
1.22127e-09
1.26837e-09
1.31289e-09
1.35466e-09
1.3935e-09
1.42928e-09
1.46185e-09
1.49108e-09
1.51687e-09
1.5391e-09
1.55769e-09
1.57257e-09
1.58367e-09
1.59095e-09
1.59437e-09
1.59391e-09
1.58958e-09
1.58137e-09
1.56931e-09
1.55343e-09
1.5338e-09
1.51047e-09
1.48353e-09
1.45307e-09
1.41921e-09
1.38206e-09
1.34177e-09
1.29848e-09
1.25236e-09
1.20358e-09
1.15234e-09
1.09883e-09
1.04328e-09
9.85901e-10
9.26942e-10
8.66651e-10
8.0529e-10
7.43133e-10
6.80468e-10
6.17595e-10
5.5483e-10
4.92506e-10
4.30976e-10
3.70617e-10
3.11845e-10
2.55117e-10
2.00964e-10
1.50024e-10
1.0312e-10
6.1412e-11
2.67706e-11
2.9851e-12
4.70282e-12
4.2245e-11
9.71262e-11
1.63463e-10
2.38327e-10
3.19884e-10
4.06824e-10
4.98131e-10
5.92966e-10
6.90604e-10
7.90398e-10
8.91755e-10
9.94123e-10
1.09698e-09
1.19983e-09
1.30219e-09
1.40361e-09
1.50365e-09
1.60188e-09
1.69789e-09
1.79129e-09
1.88169e-09
1.96875e-09
2.0521e-09
2.13143e-09
2.20641e-09
2.27677e-09
2.34221e-09
2.4025e-09
2.45738e-09
2.50666e-09
2.55014e-09
2.58763e-09
2.61901e-09
2.64413e-09
2.66289e-09
2.67522e-09
2.68106e-09
2.68036e-09
2.67315e-09
2.65939e-09
2.63915e-09
2.61249e-09
2.57949e-09
2.54027e-09
2.49497e-09
2.44373e-09
2.38675e-09
2.32424e-09
2.25642e-09
2.18354e-09
2.10589e-09
2.02376e-09
1.93746e-09
1.84735e-09
1.75379e-09
1.65714e-09
1.55783e-09
1.45627e-09
1.3529e-09
1.24819e-09
1.14262e-09
1.03671e-09
9.30988e-10
8.2602e-10
7.2241e-10
6.20805e-10
5.21913e-10
4.26528e-10
3.35563e-10
2.5012e-10
1.71609e-10
1.0199e-10
4.43661e-11
4.93898e-12
6.76531e-12
6.08089e-11
1.39936e-10
2.35754e-10
3.44076e-10
4.62259e-10
5.88395e-10
7.20994e-10
8.58819e-10
1.0008e-09
1.14598e-09
1.29348e-09
1.44249e-09
1.59225e-09
1.74202e-09
1.89111e-09
2.03885e-09
2.18459e-09
2.32771e-09
2.46761e-09
2.60372e-09
2.73548e-09
2.86238e-09
2.98389e-09
3.09954e-09
3.20889e-09
3.31149e-09
3.40695e-09
3.4949e-09
3.575e-09
3.64693e-09
3.71041e-09
3.76518e-09
3.81104e-09
3.84779e-09
3.87528e-09
3.8934e-09
3.90204e-09
3.90118e-09
3.89081e-09
3.87091e-09
3.84154e-09
3.80282e-09
3.75485e-09
3.6978e-09
3.63186e-09
3.55728e-09
3.47431e-09
3.38326e-09
3.28446e-09
3.17828e-09
3.06512e-09
2.94541e-09
2.81963e-09
2.68827e-09
2.55187e-09
2.41096e-09
2.26616e-09
2.11808e-09
1.96736e-09
1.81469e-09
1.66078e-09
1.50638e-09
1.35228e-09
1.19932e-09
1.04838e-09
9.00425e-10
7.56499e-10
6.17778e-10
4.85611e-10
3.61619e-10
2.47857e-10
1.47153e-10
6.39533e-11
7.11521e-12
8.97644e-12
8.07061e-11
1.85813e-10
3.13224e-10
4.57421e-10
6.14905e-10
7.83144e-10
9.60143e-10
1.14424e-09
1.33399e-09
1.52811e-09
1.72541e-09
1.9248e-09
2.12523e-09
2.32574e-09
2.52536e-09
2.72322e-09
2.91842e-09
3.11015e-09
3.2976e-09
3.48e-09
3.65659e-09
3.82668e-09
3.98959e-09
4.14467e-09
4.29131e-09
4.42894e-09
4.55702e-09
4.67505e-09
4.78257e-09
4.87915e-09
4.96443e-09
5.03806e-09
5.09974e-09
5.14923e-09
5.18631e-09
5.21083e-09
5.22266e-09
5.22175e-09
5.2081e-09
5.18165e-09
5.14252e-09
5.09082e-09
5.02672e-09
4.95044e-09
4.86224e-09
4.76242e-09
4.65134e-09
4.5294e-09
4.39705e-09
4.25479e-09
4.10315e-09
3.94271e-09
3.77411e-09
3.59802e-09
3.41513e-09
3.22622e-09
3.03206e-09
2.8335e-09
2.63142e-09
2.42673e-09
2.2204e-09
2.01345e-09
1.80694e-09
1.602e-09
1.39984e-09
1.20176e-09
1.00918e-09
8.23682e-10
6.47092e-10
4.81577e-10
3.29875e-10
1.95735e-10
8.50262e-11
9.45701e-12
1.12936e-11
1.01555e-10
2.3388e-10
3.94387e-10
5.7617e-10
7.74846e-10
9.87234e-10
1.21082e-09
1.4435e-09
1.68345e-09
1.92903e-09
2.17872e-09
2.43114e-09
2.68496e-09
2.93892e-09
3.19184e-09
3.44256e-09
3.68998e-09
3.93304e-09
4.17071e-09
4.40201e-09
4.626e-09
4.84178e-09
5.04848e-09
5.24529e-09
5.43143e-09
5.60617e-09
5.76883e-09
5.91877e-09
6.0554e-09
6.17819e-09
6.28666e-09
6.38037e-09
6.45894e-09
6.52206e-09
6.56945e-09
6.6009e-09
6.61628e-09
6.61547e-09
6.59852e-09
6.56531e-09
6.51601e-09
6.45074e-09
6.36973e-09
6.27324e-09
6.16159e-09
6.03518e-09
5.89445e-09
5.73992e-09
5.57215e-09
5.39177e-09
5.19946e-09
4.99596e-09
4.78207e-09
4.55865e-09
4.32659e-09
4.08687e-09
3.84049e-09
3.58852e-09
3.33208e-09
3.07236e-09
2.81059e-09
2.54806e-09
2.28615e-09
2.0263e-09
1.77005e-09
1.51908e-09
1.27519e-09
1.0404e-09
8.17023e-10
6.07798e-10
4.16173e-10
2.46854e-10
1.07202e-10
1.19217e-11
1.36821e-11
1.23044e-10
2.83418e-10
4.78028e-10
6.98542e-10
9.3967e-10
1.19757e-09
1.4692e-09
1.752e-09
2.04376e-09
2.34247e-09
2.64629e-09
2.95352e-09
3.26254e-09
3.57182e-09
3.8799e-09
4.18537e-09
4.48688e-09
4.78314e-09
5.07288e-09
5.35492e-09
5.6281e-09
5.89131e-09
6.14351e-09
6.38369e-09
6.61091e-09
6.82426e-09
7.02292e-09
7.20611e-09
7.37311e-09
7.52325e-09
7.65596e-09
7.77069e-09
7.86697e-09
7.94443e-09
8.00271e-09
8.04157e-09
8.06081e-09
8.06032e-09
8.04014e-09
8.0001e-09
7.94041e-09
7.86123e-09
7.76282e-09
7.64548e-09
7.50963e-09
7.35573e-09
7.18432e-09
6.99603e-09
6.79154e-09
6.57162e-09
6.33711e-09
6.0889e-09
5.82799e-09
5.5554e-09
5.27226e-09
4.97974e-09
4.67908e-09
4.37161e-09
4.0587e-09
3.7418e-09
3.42243e-09
3.10219e-09
2.78275e-09
2.46592e-09
2.15356e-09
1.84774e-09
1.55067e-09
1.2648e-09
9.92964e-10
7.38479e-10
5.05521e-10
2.99782e-10
1.30165e-10
1.44739e-11
1.61123e-11
1.44908e-10
3.33816e-10
5.63117e-10
8.23025e-10
1.10733e-09
1.41153e-09
1.73203e-09
2.06585e-09
2.41034e-09
2.76315e-09
3.12211e-09
3.4852e-09
3.85049e-09
4.21618e-09
4.58054e-09
4.94188e-09
5.29862e-09
5.64921e-09
5.99217e-09
6.32608e-09
6.64956e-09
6.96131e-09
7.26008e-09
7.54468e-09
7.81399e-09
8.06694e-09
8.30255e-09
8.51988e-09
8.71809e-09
8.89638e-09
9.05405e-09
9.19047e-09
9.30508e-09
9.39741e-09
9.46705e-09
9.5137e-09
9.53712e-09
9.53716e-09
9.51389e-09
9.46708e-09
9.39696e-09
9.30374e-09
9.18769e-09
9.0492e-09
8.88872e-09
8.70682e-09
8.50413e-09
8.28138e-09
8.03939e-09
7.77906e-09
7.50139e-09
7.20745e-09
6.8984e-09
6.57548e-09
6.24002e-09
5.89343e-09
5.53718e-09
5.17286e-09
4.80209e-09
4.42662e-09
4.04826e-09
3.66891e-09
3.29059e-09
2.91542e-09
2.54566e-09
2.18373e-09
1.83226e-09
1.49417e-09
1.17279e-09
8.72047e-10
5.96845e-10
3.53884e-10
1.53637e-10
1.70829e-11
1.85587e-11
1.66915e-10
3.84543e-10
6.48756e-10
9.48305e-10
1.27606e-09
1.62684e-09
1.99653e-09
2.38167e-09
2.77925e-09
3.18652e-09
3.601e-09
4.02034e-09
4.44232e-09
4.86486e-09
5.28593e-09
5.70362e-09
6.11606e-09
6.52148e-09
6.91815e-09
7.30443e-09
7.67872e-09
8.03952e-09
8.38538e-09
8.71492e-09
9.02683e-09
9.31989e-09
9.59293e-09
9.84489e-09
1.00748e-08
1.02817e-08
1.04648e-08
1.06233e-08
1.07566e-08
1.08642e-08
1.09455e-08
1.10002e-08
1.10281e-08
1.10289e-08
1.10027e-08
1.09493e-08
1.08689e-08
1.07616e-08
1.0628e-08
1.04683e-08
1.02831e-08
1.0073e-08
9.83879e-09
9.58131e-09
9.30149e-09
9.00037e-09
8.67911e-09
8.33895e-09
7.98123e-09
7.60742e-09
7.21903e-09
6.81772e-09
6.40522e-09
5.98334e-09
5.55402e-09
5.11926e-09
4.68119e-09
4.24204e-09
3.80413e-09
3.36994e-09
2.9421e-09
2.52342e-09
2.11694e-09
1.72606e-09
1.35459e-09
1.00708e-09
6.89172e-10
4.08581e-10
1.77369e-10
1.97209e-11
2.09986e-11
1.88865e-10
4.35134e-10
7.34159e-10
1.07323e-09
1.4443e-09
1.84152e-09
2.26024e-09
2.69655e-09
3.14703e-09
3.6086e-09
4.07843e-09
4.55386e-09
5.03238e-09
5.51161e-09
5.98927e-09
6.46317e-09
6.93121e-09
7.39136e-09
7.84166e-09
8.28025e-09
8.70531e-09
9.11514e-09
9.50808e-09
9.88257e-09
1.02371e-08
1.05703e-08
1.08809e-08
1.11676e-08
1.14292e-08
1.16649e-08
1.18735e-08
1.20543e-08
1.22065e-08
1.23295e-08
1.24227e-08
1.24858e-08
1.25183e-08
1.25201e-08
1.24912e-08
1.24314e-08
1.23408e-08
1.22198e-08
1.20687e-08
1.18879e-08
1.16781e-08
1.14401e-08
1.11745e-08
1.08824e-08
1.05648e-08
1.0223e-08
9.85815e-09
9.47178e-09
9.0654e-09
8.64066e-09
8.19931e-09
7.74322e-09
7.27439e-09
6.79488e-09
6.30691e-09
5.81278e-09
5.31491e-09
4.81584e-09
4.31826e-09
3.82497e-09
3.33897e-09
2.86346e-09
2.40192e-09
1.95818e-09
1.53658e-09
1.14225e-09
7.81596e-10
4.63337e-10
2.01127e-10
2.23617e-11
2.34128e-11
2.10582e-10
4.85185e-10
8.18645e-10
1.19681e-09
1.61071e-09
2.05384e-09
2.52103e-09
3.00792e-09
3.5107e-09
4.02594e-09
4.55046e-09
5.08132e-09
5.61572e-09
6.15099e-09
6.68458e-09
7.21405e-09
7.73704e-09
8.2513e-09
8.75463e-09
9.24495e-09
9.72024e-09
1.01786e-08
1.06181e-08
1.10371e-08
1.14339e-08
1.18068e-08
1.21546e-08
1.24757e-08
1.27689e-08
1.30331e-08
1.32671e-08
1.34701e-08
1.36411e-08
1.37795e-08
1.38847e-08
1.39561e-08
1.39934e-08
1.39964e-08
1.3965e-08
1.3899e-08
1.37986e-08
1.36641e-08
1.34959e-08
1.32945e-08
1.30605e-08
1.27948e-08
1.24983e-08
1.2172e-08
1.18172e-08
1.14351e-08
1.10272e-08
1.05951e-08
1.01405e-08
9.66533e-09
9.1715e-09
8.66113e-09
8.13644e-09
7.5998e-09
7.05366e-09
6.50064e-09
5.94345e-09
5.38496e-09
4.82818e-09
4.27626e-09
3.73258e-09
3.20071e-09
2.68455e-09
2.18838e-09
1.71706e-09
1.27631e-09
8.73259e-10
5.17642e-10
2.24689e-10
2.49809e-11
2.57845e-11
2.31916e-10
5.34352e-10
9.01632e-10
1.31818e-09
1.77414e-09
2.26234e-09
2.77709e-09
3.3136e-09
3.86769e-09
4.43556e-09
5.01373e-09
5.59894e-09
6.18811e-09
6.7783e-09
7.3667e-09
7.95062e-09
8.52747e-09
9.09474e-09
9.65003e-09
1.0191e-08
1.07155e-08
1.12214e-08
1.17065e-08
1.21691e-08
1.26073e-08
1.30192e-08
1.34034e-08
1.37583e-08
1.40825e-08
1.43746e-08
1.46336e-08
1.48584e-08
1.5048e-08
1.52016e-08
1.53185e-08
1.53983e-08
1.54404e-08
1.54446e-08
1.54109e-08
1.5339e-08
1.52291e-08
1.50815e-08
1.48967e-08
1.46752e-08
1.44176e-08
1.4125e-08
1.37982e-08
1.34385e-08
1.30471e-08
1.26256e-08
1.21755e-08
1.16986e-08
1.11968e-08
1.06721e-08
1.01267e-08
9.56307e-09
8.98355e-09
8.39077e-09
7.7875e-09
7.17662e-09
6.56114e-09
5.94426e-09
5.3293e-09
4.71977e-09
4.11939e-09
3.53214e-09
2.9623e-09
2.41461e-09
1.89443e-09
1.40805e-09
9.63337e-10
5.7101e-10
2.47845e-10
2.75549e-11
2.81e-11
2.52743e-10
5.8235e-10
9.82639e-10
1.43664e-09
1.93363e-09
2.46578e-09
3.0269e-09
3.61179e-09
4.21586e-09
4.835e-09
5.4654e-09
6.10351e-09
6.74597e-09
7.38958e-09
8.03129e-09
8.66813e-09
9.2973e-09
9.91607e-09
1.05218e-08
1.1112e-08
1.16842e-08
1.22362e-08
1.27656e-08
1.32705e-08
1.37487e-08
1.41985e-08
1.4618e-08
1.50056e-08
1.53598e-08
1.56791e-08
1.59622e-08
1.62081e-08
1.64157e-08
1.6584e-08
1.67124e-08
1.68002e-08
1.6847e-08
1.68525e-08
1.68167e-08
1.67391e-08
1.662e-08
1.64598e-08
1.62588e-08
1.60178e-08
1.57375e-08
1.54187e-08
1.50626e-08
1.46705e-08
1.42438e-08
1.3784e-08
1.32929e-08
1.27724e-08
1.22247e-08
1.16519e-08
1.10565e-08
1.0441e-08
9.80816e-09
9.16079e-09
8.50192e-09
7.83472e-09
7.16252e-09
6.48879e-09
5.81719e-09
5.15157e-09
4.49599e-09
3.85481e-09
3.23271e-09
2.63486e-09
2.0671e-09
1.5363e-09
1.05103e-09
6.22966e-10
2.70389e-10
3.00608e-11
3.03485e-11
2.72969e-10
6.28956e-10
1.06129e-09
1.55165e-09
2.08843e-09
2.66321e-09
3.26929e-09
3.90104e-09
4.55353e-09
5.22229e-09
5.90322e-09
6.59248e-09
7.28644e-09
7.98165e-09
8.67478e-09
9.36267e-09
1.00423e-08
1.07106e-08
1.13649e-08
1.20024e-08
1.26205e-08
1.32167e-08
1.37887e-08
1.43341e-08
1.48508e-08
1.53367e-08
1.579e-08
1.62089e-08
1.65917e-08
1.69369e-08
1.72432e-08
1.75092e-08
1.77338e-08
1.79162e-08
1.80554e-08
1.81509e-08
1.82021e-08
1.82086e-08
1.81707e-08
1.80875e-08
1.79596e-08
1.77872e-08
1.75708e-08
1.7311e-08
1.70087e-08
1.66648e-08
1.62806e-08
1.58573e-08
1.53965e-08
1.48999e-08
1.43695e-08
1.38071e-08
1.32152e-08
1.25962e-08
1.19526e-08
1.12872e-08
1.0603e-08
9.90301e-09
9.19058e-09
8.46913e-09
7.74225e-09
7.01373e-09
6.28754e-09
5.56785e-09
4.85906e-09
4.16589e-09
3.4934e-09
2.84719e-09
2.23357e-09
1.65994e-09
1.13557e-09
6.7305e-10
2.9212e-10
3.24765e-11
3.25226e-11
2.92523e-10
6.74012e-10
1.13731e-09
1.66279e-09
2.23801e-09
2.85394e-09
3.5034e-09
4.18034e-09
4.87947e-09
5.596e-09
6.32554e-09
7.06396e-09
7.80737e-09
8.55205e-09
9.29447e-09
1.00312e-08
1.0759e-08
1.14747e-08
1.21753e-08
1.28579e-08
1.35197e-08
1.41579e-08
1.47702e-08
1.5354e-08
1.5907e-08
1.64271e-08
1.69123e-08
1.73607e-08
1.77704e-08
1.81399e-08
1.84677e-08
1.87525e-08
1.89931e-08
1.91885e-08
1.93377e-08
1.94401e-08
1.94952e-08
1.95025e-08
1.94622e-08
1.93736e-08
1.9237e-08
1.90528e-08
1.88215e-08
1.85438e-08
1.82205e-08
1.78526e-08
1.74415e-08
1.69885e-08
1.64953e-08
1.59637e-08
1.53957e-08
1.47935e-08
1.41596e-08
1.34965e-08
1.2807e-08
1.2094e-08
1.13609e-08
1.06108e-08
9.84732e-09
9.07414e-09
8.29514e-09
7.51439e-09
6.73613e-09
5.96487e-09
5.20533e-09
4.46257e-09
3.74203e-09
3.04969e-09
2.39232e-09
1.77785e-09
1.21619e-09
7.20811e-10
3.12843e-10
3.478e-11
3.46178e-11
3.11368e-10
7.17428e-10
1.21056e-09
1.76986e-09
2.38207e-09
3.03758e-09
3.72872e-09
4.44905e-09
5.19293e-09
5.95525e-09
6.73131e-09
7.51672e-09
8.30733e-09
9.09919e-09
9.88851e-09
1.06717e-08
1.14452e-08
1.22057e-08
1.29501e-08
1.36751e-08
1.4378e-08
1.50557e-08
1.57057e-08
1.63254e-08
1.69123e-08
1.74642e-08
1.79789e-08
1.84545e-08
1.8889e-08
1.92808e-08
1.96283e-08
1.99302e-08
2.01852e-08
2.03921e-08
2.05502e-08
2.06586e-08
2.07167e-08
2.07242e-08
2.06812e-08
2.0587e-08
2.04418e-08
2.02462e-08
2.00006e-08
1.97057e-08
1.93624e-08
1.89718e-08
1.85353e-08
1.80542e-08
1.75304e-08
1.69657e-08
1.63624e-08
1.57226e-08
1.50491e-08
1.43445e-08
1.36117e-08
1.28541e-08
1.20749e-08
1.12776e-08
1.04661e-08
9.64418e-09
8.81608e-09
7.98612e-09
7.15882e-09
6.33896e-09
5.5316e-09
4.74211e-09
3.97628e-09
3.24048e-09
2.54189e-09
1.88894e-09
1.29214e-09
7.65804e-10
3.32364e-10
3.695e-11
3.66334e-11
3.29495e-10
7.59188e-10
1.281e-09
1.87279e-09
2.52054e-09
3.21401e-09
3.94511e-09
4.707e-09
5.49367e-09
6.29971e-09
7.12013e-09
7.95026e-09
8.78571e-09
9.62227e-09
1.04559e-08
1.12829e-08
1.20994e-08
1.2902e-08
1.36873e-08
1.44519e-08
1.51929e-08
1.59072e-08
1.6592e-08
1.72447e-08
1.78626e-08
1.84434e-08
1.89849e-08
1.9485e-08
1.99418e-08
2.03534e-08
2.07184e-08
2.10352e-08
2.13026e-08
2.15194e-08
2.16847e-08
2.17977e-08
2.18578e-08
2.18647e-08
2.18184e-08
2.17182e-08
2.15645e-08
2.13577e-08
2.10982e-08
2.07869e-08
2.04246e-08
2.00125e-08
1.9552e-08
1.90447e-08
1.84922e-08
1.78967e-08
1.72604e-08
1.65857e-08
1.58753e-08
1.51322e-08
1.43593e-08
1.35601e-08
1.27381e-08
1.1897e-08
1.10408e-08
1.01737e-08
9.30004e-09
8.42436e-09
7.5515e-09
6.68651e-09
5.83471e-09
5.0018e-09
4.1939e-09
3.41771e-09
2.68082e-09
1.99212e-09
1.36268e-09
8.07592e-10
3.50494e-10
3.89652e-11
3.8572e-11
3.46929e-10
7.99345e-10
1.34873e-09
1.97174e-09
2.65358e-09
3.38347e-09
4.15284e-09
4.95445e-09
5.78198e-09
6.62968e-09
7.49227e-09
8.36482e-09
9.24266e-09
1.01214e-08
1.09967e-08
1.18647e-08
1.27213e-08
1.3563e-08
1.43861e-08
1.51872e-08
1.59631e-08
1.67108e-08
1.74271e-08
1.81094e-08
1.87551e-08
1.93616e-08
1.99267e-08
2.04482e-08
2.09241e-08
2.13528e-08
2.17324e-08
2.20615e-08
2.23389e-08
2.25633e-08
2.27339e-08
2.28499e-08
2.29106e-08
2.29156e-08
2.28653e-08
2.27585e-08
2.25959e-08
2.23778e-08
2.21049e-08
2.17778e-08
2.13975e-08
2.09652e-08
2.04824e-08
1.99506e-08
1.93716e-08
1.87477e-08
1.80811e-08
1.73743e-08
1.66301e-08
1.58517e-08
1.50421e-08
1.42049e-08
1.33438e-08
1.24627e-08
1.15658e-08
1.06574e-08
9.74205e-09
8.82463e-09
7.91016e-09
7.00394e-09
6.11156e-09
5.23899e-09
4.39264e-09
3.57956e-09
2.80769e-09
2.08633e-09
1.42709e-09
8.45743e-10
3.67046e-10
4.08051e-11
4.04401e-11
3.63727e-10
8.38033e-10
1.41396e-09
2.067e-09
2.78162e-09
3.54647e-09
4.35252e-09
5.19215e-09
6.05868e-09
6.94604e-09
7.84867e-09
8.76135e-09
9.67918e-09
1.05975e-08
1.15118e-08
1.24179e-08
1.33116e-08
1.41892e-08
1.50469e-08
1.58811e-08
1.66885e-08
1.74658e-08
1.82101e-08
1.89184e-08
1.95881e-08
2.02166e-08
2.08016e-08
2.1341e-08
2.18326e-08
2.22748e-08
2.26658e-08
2.30042e-08
2.32887e-08
2.35182e-08
2.36917e-08
2.38084e-08
2.38678e-08
2.38695e-08
2.38138e-08
2.36996e-08
2.35276e-08
2.32981e-08
2.30118e-08
2.26695e-08
2.22721e-08
2.18209e-08
2.13172e-08
2.07629e-08
2.01597e-08
1.95099e-08
1.88158e-08
1.808e-08
1.73055e-08
1.64953e-08
1.56527e-08
1.47815e-08
1.38854e-08
1.29685e-08
1.20352e-08
1.10898e-08
1.01373e-08
9.18252e-09
8.23084e-09
7.28775e-09
6.35907e-09
5.45103e-09
4.57031e-09
3.72424e-09
2.92109e-09
2.17053e-09
1.48465e-09
8.79836e-10
3.81836e-10
4.2449e-11
4.22477e-11
3.79981e-10
8.7546e-10
1.47704e-09
2.1591e-09
2.90534e-09
3.70387e-09
4.54519e-09
5.42129e-09
6.32512e-09
7.25031e-09
8.19097e-09
9.14162e-09
1.00971e-08
1.10524e-08
1.2003e-08
1.29443e-08
1.38721e-08
1.47823e-08
1.56711e-08
1.65348e-08
1.73699e-08
1.81732e-08
1.89413e-08
1.96716e-08
2.03612e-08
2.10076e-08
2.16084e-08
2.21615e-08
2.26649e-08
2.31167e-08
2.35153e-08
2.38594e-08
2.41477e-08
2.43789e-08
2.45524e-08
2.46673e-08
2.47231e-08
2.47195e-08
2.46568e-08
2.45339e-08
2.43517e-08
2.41104e-08
2.38108e-08
2.34536e-08
2.30398e-08
2.25708e-08
2.2048e-08
2.1473e-08
2.08479e-08
2.01749e-08
1.94563e-08
1.86949e-08
1.78935e-08
1.70554e-08
1.61841e-08
1.52831e-08
1.43565e-08
1.34084e-08
1.24433e-08
1.14658e-08
1.04809e-08
9.4937e-09
8.50967e-09
7.53451e-09
6.57427e-09
5.63539e-09
4.72477e-09
3.85e-09
3.01965e-09
2.24371e-09
1.53466e-09
9.09458e-10
3.94685e-10
4.38772e-11
4.40086e-11
3.95814e-10
9.11912e-10
1.53847e-09
2.24873e-09
3.02568e-09
3.85684e-09
4.73227e-09
5.64354e-09
6.58322e-09
7.54461e-09
8.52149e-09
9.50809e-09
1.04989e-08
1.14889e-08
1.2473e-08
1.34467e-08
1.44054e-08
1.53449e-08
1.62613e-08
1.71507e-08
1.80096e-08
1.88345e-08
1.96223e-08
2.03701e-08
2.10751e-08
2.17348e-08
2.23468e-08
2.29091e-08
2.34195e-08
2.38766e-08
2.42786e-08
2.46241e-08
2.49121e-08
2.51416e-08
2.53116e-08
2.54216e-08
2.5471e-08
2.54597e-08
2.53879e-08
2.52548e-08
2.50611e-08
2.48073e-08
2.4494e-08
2.41221e-08
2.36927e-08
2.32069e-08
2.26664e-08
2.20728e-08
2.14282e-08
2.07347e-08
1.99948e-08
1.92112e-08
1.83868e-08
1.7525e-08
1.66292e-08
1.57031e-08
1.47508e-08
1.37765e-08
1.27848e-08
1.17804e-08
1.07683e-08
9.75398e-09
8.74288e-09
7.7409e-09
6.75426e-09
5.78956e-09
4.85392e-09
3.95516e-09
3.10204e-09
2.30488e-09
1.57646e-09
9.34209e-10
4.05421e-10
4.50704e-11
4.57402e-11
4.11383e-10
9.47749e-10
1.59884e-09
2.33678e-09
3.14381e-09
4.00689e-09
4.91558e-09
5.86102e-09
6.8354e-09
7.83164e-09
8.8432e-09
9.86398e-09
1.08882e-08
1.19105e-08
1.29257e-08
1.39288e-08
1.49153e-08
1.58808e-08
1.6821e-08
1.77322e-08
1.86106e-08
1.94528e-08
2.02556e-08
2.10162e-08
2.17316e-08
2.23995e-08
2.30177e-08
2.35839e-08
2.40965e-08
2.45536e-08
2.49541e-08
2.52964e-08
2.55797e-08
2.5803e-08
2.59656e-08
2.60669e-08
2.61067e-08
2.60849e-08
2.60016e-08
2.58562e-08
2.56495e-08
2.53821e-08
2.50546e-08
2.46679e-08
2.42232e-08
2.37217e-08
2.31649e-08
2.25546e-08
2.18928e-08
2.11817e-08
2.04237e-08
1.96216e-08
1.87783e-08
1.78971e-08
1.69815e-08
1.60352e-08
1.50623e-08
1.40672e-08
1.30543e-08
1.20286e-08
1.09951e-08
9.95934e-09
8.92687e-09
7.90372e-09
6.89623e-09
5.91116e-09
4.95578e-09
4.03807e-09
3.167e-09
2.35309e-09
1.6094e-09
9.53708e-10
4.13877e-10
4.60102e-11
4.74635e-11
4.26876e-10
9.83403e-10
1.65888e-09
2.42431e-09
3.26116e-09
4.1558e-09
5.09728e-09
6.07628e-09
7.08458e-09
8.11468e-09
9.1597e-09
1.02132e-08
1.12691e-08
1.23216e-08
1.33654e-08
1.43953e-08
1.54065e-08
1.63944e-08
1.73548e-08
1.82836e-08
1.91771e-08
2.00319e-08
2.08448e-08
2.16129e-08
2.23334e-08
2.30041e-08
2.36227e-08
2.41873e-08
2.46962e-08
2.5148e-08
2.55413e-08
2.58751e-08
2.61486e-08
2.63608e-08
2.65115e-08
2.66001e-08
2.66264e-08
2.65907e-08
2.64928e-08
2.63328e-08
2.61112e-08
2.58288e-08
2.54862e-08
2.50845e-08
2.46247e-08
2.41082e-08
2.35365e-08
2.29114e-08
2.22348e-08
2.15089e-08
2.07362e-08
1.99193e-08
1.90612e-08
1.81652e-08
1.72347e-08
1.62734e-08
1.52855e-08
1.42752e-08
1.3247e-08
1.2206e-08
1.11571e-08
1.0106e-08
9.05823e-09
8.01996e-09
6.99758e-09
5.99796e-09
5.02847e-09
4.09722e-09
3.21332e-09
2.38745e-09
1.63287e-09
9.67598e-10
4.19898e-10
4.66794e-11
4.92025e-11
4.42509e-10
1.01937e-09
1.71943e-09
2.51253e-09
3.37936e-09
4.30564e-09
5.27988e-09
6.29228e-09
7.33413e-09
8.39753e-09
9.47517e-09
1.05602e-08
1.16463e-08
1.27272e-08
1.37974e-08
1.48515e-08
1.58844e-08
1.68914e-08
1.7868e-08
1.88102e-08
1.97142e-08
2.05766e-08
2.13942e-08
2.21642e-08
2.2884e-08
2.35514e-08
2.41643e-08
2.47211e-08
2.52202e-08
2.56604e-08
2.60406e-08
2.63599e-08
2.66178e-08
2.68137e-08
2.69472e-08
2.70183e-08
2.70269e-08
2.69735e-08
2.68577e-08
2.66801e-08
2.64413e-08
2.61422e-08
2.57834e-08
2.5366e-08
2.48912e-08
2.43603e-08
2.37749e-08
2.31367e-08
2.24477e-08
2.17099e-08
2.09259e-08
2.00981e-08
1.92296e-08
1.83235e-08
1.73832e-08
1.64124e-08
1.54151e-08
1.43956e-08
1.33583e-08
1.23083e-08
1.12505e-08
1.01904e-08
9.13382e-09
8.08683e-09
7.05587e-09
6.04786e-09
5.07025e-09
4.1312e-09
3.23991e-09
2.40716e-09
1.64632e-09
9.75549e-10
4.23343e-10
4.70621e-11
5.09842e-11
4.58526e-10
1.05622e-09
1.78144e-09
2.60283e-09
3.50024e-09
4.45873e-09
5.4662e-09
6.51231e-09
7.58785e-09
8.68443e-09
9.79428e-09
1.09101e-08
1.20252e-08
1.31331e-08
1.42277e-08
1.53035e-08
1.63551e-08
1.73776e-08
1.83666e-08
1.93178e-08
2.02274e-08
2.10921e-08
2.19088e-08
2.26747e-08
2.33875e-08
2.40451e-08
2.46457e-08
2.51878e-08
2.56703e-08
2.60922e-08
2.64526e-08
2.6751e-08
2.6987e-08
2.71605e-08
2.72714e-08
2.73197e-08
2.73058e-08
2.72302e-08
2.70928e-08
2.68944e-08
2.66358e-08
2.63179e-08
2.59414e-08
2.55076e-08
2.50176e-08
2.44728e-08
2.38748e-08
2.32252e-08
2.2526e-08
2.17792e-08
2.09873e-08
2.01526e-08
1.92781e-08
1.83668e-08
1.7422e-08
1.64473e-08
1.54466e-08
1.44241e-08
1.33842e-08
1.23317e-08
1.12716e-08
1.02095e-08
9.15083e-09
8.10185e-09
7.06895e-09
6.05904e-09
5.07958e-09
4.13876e-09
3.2458e-09
2.4115e-09
1.64925e-09
9.77276e-10
4.24088e-10
4.71446e-11
5.28381e-11
4.75192e-10
1.09455e-09
1.84592e-09
2.69669e-09
3.6258e-09
4.61759e-09
5.6593e-09
6.73998e-09
7.84986e-09
8.97999e-09
1.01221e-08
1.12685e-08
1.24118e-08
1.35453e-08
1.46626e-08
1.57577e-08
1.68251e-08
1.78597e-08
1.8857e-08
1.98126e-08
2.07227e-08
2.15841e-08
2.23938e-08
2.31492e-08
2.38482e-08
2.44889e-08
2.507e-08
2.55902e-08
2.60487e-08
2.64448e-08
2.67782e-08
2.70486e-08
2.72561e-08
2.74007e-08
2.74828e-08
2.75026e-08
2.74611e-08
2.73584e-08
2.71953e-08
2.69727e-08
2.66913e-08
2.63522e-08
2.59565e-08
2.55053e-08
2.5e-08
2.44418e-08
2.38324e-08
2.31733e-08
2.24664e-08
2.17137e-08
2.09174e-08
2.008e-08
1.92041e-08
1.82927e-08
1.73489e-08
1.63761e-08
1.53781e-08
1.4359e-08
1.3323e-08
1.22748e-08
1.12193e-08
1.01619e-08
9.10808e-09
8.06394e-09
7.03584e-09
6.03063e-09
5.05572e-09
4.11926e-09
3.23046e-09
2.40005e-09
1.64139e-09
9.72593e-10
4.22048e-10
4.69176e-11
5.47955e-11
4.92788e-10
1.13502e-09
1.91399e-09
2.79571e-09
3.75818e-09
4.7849e-09
5.86242e-09
6.97911e-09
8.12452e-09
9.28911e-09
1.0464e-08
1.16409e-08
1.28121e-08
1.39703e-08
1.51086e-08
1.62209e-08
1.73012e-08
1.83445e-08
1.93458e-08
2.03009e-08
2.12061e-08
2.20582e-08
2.28544e-08
2.35923e-08
2.42702e-08
2.48865e-08
2.54402e-08
2.59305e-08
2.63571e-08
2.67196e-08
2.70182e-08
2.72531e-08
2.74246e-08
2.75333e-08
2.758e-08
2.75655e-08
2.74907e-08
2.73563e-08
2.71632e-08
2.69126e-08
2.66056e-08
2.62432e-08
2.58267e-08
2.53572e-08
2.4836e-08
2.42646e-08
2.36444e-08
2.29772e-08
2.22646e-08
2.15086e-08
2.07112e-08
1.98749e-08
1.9002e-08
1.80954e-08
1.71579e-08
1.61929e-08
1.52039e-08
1.41947e-08
1.31695e-08
1.21326e-08
1.10889e-08
1.00436e-08
9.00195e-09
7.96996e-09
6.95384e-09
5.96036e-09
4.99681e-09
4.07126e-09
3.19278e-09
2.37203e-09
1.62221e-09
9.61212e-10
4.17104e-10
4.63678e-11
5.68893e-11
5.1161e-10
1.1783e-09
1.98676e-09
2.90155e-09
3.89958e-09
4.96348e-09
6.07897e-09
7.23366e-09
8.41637e-09
9.61685e-09
1.08256e-08
1.20336e-08
1.32325e-08
1.44146e-08
1.55726e-08
1.66998e-08
1.77902e-08
1.88383e-08
1.98393e-08
2.07888e-08
2.16832e-08
2.25195e-08
2.3295e-08
2.4008e-08
2.46568e-08
2.52405e-08
2.57585e-08
2.62105e-08
2.65965e-08
2.6917e-08
2.71725e-08
2.73636e-08
2.74916e-08
2.75574e-08
2.75621e-08
2.75069e-08
2.73929e-08
2.72215e-08
2.69939e-08
2.67114e-08
2.63753e-08
2.59867e-08
2.55472e-08
2.50579e-08
2.45203e-08
2.39358e-08
2.33059e-08
2.26321e-08
2.19161e-08
2.11597e-08
2.03649e-08
1.95337e-08
1.86685e-08
1.77719e-08
1.68464e-08
1.58953e-08
1.49217e-08
1.39292e-08
1.29218e-08
1.19035e-08
1.0879e-08
9.85315e-09
8.83119e-09
7.81878e-09
6.822e-09
5.84742e-09
4.90218e-09
3.99419e-09
3.13236e-09
2.32714e-09
1.5915e-09
9.43009e-10
4.09202e-10
4.54892e-11
5.91525e-11
5.31957e-10
1.22508e-09
2.06541e-09
3.01588e-09
4.05225e-09
5.15614e-09
6.31236e-09
7.50764e-09
8.72998e-09
9.96829e-09
1.12123e-08
1.24522e-08
1.36791e-08
1.48846e-08
1.60609e-08
1.7201e-08
1.82983e-08
1.93474e-08
2.03431e-08
2.12814e-08
2.21586e-08
2.29719e-08
2.37193e-08
2.4399e-08
2.50102e-08
2.55524e-08
2.60256e-08
2.643e-08
2.67666e-08
2.70359e-08
2.72396e-08
2.7379e-08
2.74554e-08
2.74707e-08
2.74263e-08
2.73239e-08
2.71651e-08
2.69516e-08
2.66849e-08
2.63666e-08
2.59982e-08
2.55811e-08
2.51169e-08
2.4607e-08
2.40527e-08
2.34555e-08
2.28169e-08
2.21382e-08
2.14212e-08
2.06675e-08
1.98787e-08
1.90569e-08
1.82041e-08
1.73226e-08
1.64148e-08
1.54836e-08
1.45318e-08
1.35628e-08
1.25801e-08
1.15876e-08
1.05897e-08
9.59075e-09
8.5959e-09
7.6105e-09
6.64038e-09
5.69187e-09
4.77189e-09
3.88811e-09
3.04922e-09
2.26539e-09
1.54927e-09
9.17982e-10
3.9834e-10
4.42816e-11
6.16183e-11
5.54126e-10
1.27605e-09
2.15107e-09
3.14038e-09
4.21842e-09
5.36569e-09
6.56598e-09
7.80501e-09
9.06982e-09
1.03484e-08
1.16295e-08
1.29026e-08
1.41579e-08
1.53863e-08
1.65796e-08
1.773e-08
1.8831e-08
1.98765e-08
2.08618e-08
2.17824e-08
2.26353e-08
2.34179e-08
2.41285e-08
2.4766e-08
2.53302e-08
2.58212e-08
2.62398e-08
2.6587e-08
2.68642e-08
2.70733e-08
2.72164e-08
2.72951e-08
2.73119e-08
2.72691e-08
2.71687e-08
2.70129e-08
2.68036e-08
2.6543e-08
2.62331e-08
2.58755e-08
2.54721e-08
2.50246e-08
2.45344e-08
2.40031e-08
2.34322e-08
2.2823e-08
2.2177e-08
2.14955e-08
2.07801e-08
2.00321e-08
1.92531e-08
1.84449e-08
1.76092e-08
1.67481e-08
1.58637e-08
1.49584e-08
1.40348e-08
1.3096e-08
1.2145e-08
1.11856e-08
1.02214e-08
9.25686e-09
8.29655e-09
7.34555e-09
6.40937e-09
5.49405e-09
4.60622e-09
3.75326e-09
2.94355e-09
2.18693e-09
1.49563e-09
8.86205e-10
3.8455e-10
4.27487e-11
6.43185e-11
5.78401e-10
1.33186e-09
2.24486e-09
3.27666e-09
4.40022e-09
5.59482e-09
6.84305e-09
8.12951e-09
9.44012e-09
1.07618e-08
1.20822e-08
1.33898e-08
1.46741e-08
1.59249e-08
1.71335e-08
1.82916e-08
1.93922e-08
2.04293e-08
2.13978e-08
2.22937e-08
2.31142e-08
2.38571e-08
2.45214e-08
2.51068e-08
2.56136e-08
2.6043e-08
2.63964e-08
2.66758e-08
2.68839e-08
2.7023e-08
2.70956e-08
2.71053e-08
2.70546e-08
2.69463e-08
2.67832e-08
2.65679e-08
2.63031e-08
2.59911e-08
2.56342e-08
2.52346e-08
2.47941e-08
2.43146e-08
2.37977e-08
2.32451e-08
2.26582e-08
2.20383e-08
2.13867e-08
2.07048e-08
1.99939e-08
1.92552e-08
1.849e-08
1.76998e-08
1.68862e-08
1.60507e-08
1.51953e-08
1.4322e-08
1.34331e-08
1.25311e-08
1.16187e-08
1.06992e-08
9.77612e-09
8.85318e-09
7.93468e-09
7.0253e-09
6.1302e-09
5.25503e-09
4.40609e-09
3.59041e-09
2.81597e-09
2.09224e-09
1.43091e-09
8.47868e-10
3.67917e-10
4.08998e-11
6.72828e-11
6.05045e-10
1.39311e-09
2.3478e-09
3.42618e-09
4.59963e-09
5.84599e-09
7.14654e-09
8.48456e-09
9.84469e-09
1.12126e-08
1.25747e-08
1.39184e-08
1.52319e-08
1.65044e-08
1.77262e-08
1.88885e-08
1.99841e-08
2.10066e-08
2.19512e-08
2.2814e-08
2.35927e-08
2.42859e-08
2.48932e-08
2.54152e-08
2.58532e-08
2.62095e-08
2.64864e-08
2.66873e-08
2.68155e-08
2.68739e-08
2.68676e-08
2.67995e-08
2.66733e-08
2.64925e-08
2.62606e-08
2.59807e-08
2.56559e-08
2.5289e-08
2.48825e-08
2.44388e-08
2.39601e-08
2.34483e-08
2.2905e-08
2.23319e-08
2.17305e-08
2.11019e-08
2.04474e-08
1.97682e-08
1.90653e-08
1.83398e-08
1.75928e-08
1.68254e-08
1.60389e-08
1.52346e-08
1.4414e-08
1.35788e-08
1.27307e-08
1.1872e-08
1.10049e-08
1.01323e-08
9.25713e-09
8.38279e-09
7.51309e-09
6.65228e-09
5.80508e-09
4.97675e-09