/*--------------------------------*- C++ -*----------------------------------*\
  =========                 |
  \\      /  F ield         | OpenFOAM: The Open Source CFD Toolbox
   \\    /   O peration     | Website:  https://openfoam.org
    \\  /    A nd           | Version:  12
     \\/     M anipulation  |
\*---------------------------------------------------------------------------*/
FoamFile
{
    format      ascii;
    class       volScalarField;
    location    "7";
    object      nut;
}
// * * * * * * * * * * * * * * * * * * * * * * * * * * * * * * * * * * * * * //

dimensions      [0 2 -1 0 0 0 0];

internalField   nonuniform List<scalar> 
5625
(
7.51227e-18
2.26975e-16
4.81159e-16
7.84633e-16
1.12655e-15
1.49874e-15
1.89523e-15
2.31142e-15
2.74355e-15
3.18837e-15
3.64297e-15
4.10467e-15
4.57097e-15
5.03949e-15
5.50797e-15
5.97424e-15
6.43621e-15
6.89187e-15
7.33928e-15
7.77655e-15
8.2019e-15
8.6136e-15
9.00999e-15
9.38949e-15
9.7506e-15
1.00919e-14
1.04121e-14
1.07098e-14
1.0984e-14
1.12336e-14
1.14576e-14
1.16551e-14
1.18254e-14
1.19677e-14
1.20815e-14
1.21664e-14
1.22219e-14
1.22478e-14
1.22441e-14
1.22105e-14
1.21473e-14
1.20545e-14
1.19325e-14
1.17817e-14
1.16026e-14
1.13958e-14
1.1162e-14
1.09022e-14
1.06172e-14
1.03081e-14
9.97604e-15
9.62232e-15
9.24827e-15
8.85537e-15
8.44516e-15
8.01928e-15
7.57949e-15
7.12761e-15
6.66557e-15
6.19538e-15
5.71915e-15
5.23909e-15
4.75751e-15
4.27684e-15
3.79962e-15
3.32858e-15
2.86664e-15
2.41695e-15
1.98307e-15
1.56909e-15
1.17997e-15
8.2212e-16
5.04265e-16
2.37904e-16
7.87386e-18
5.07873e-17
7.39681e-15
3.94842e-14
9.2341e-14
1.55305e-13
2.23372e-13
2.94756e-13
3.68699e-13
4.44723e-13
5.22431e-13
6.01445e-13
6.81396e-13
7.6192e-13
8.42657e-13
9.23256e-13
1.00337e-12
1.08267e-12
1.16082e-12
1.2375e-12
1.3124e-12
1.38523e-12
1.45568e-12
1.5235e-12
1.5884e-12
1.65014e-12
1.70849e-12
1.7632e-12
1.81408e-12
1.86092e-12
1.90355e-12
1.9418e-12
1.97552e-12
2.00458e-12
2.02887e-12
2.04829e-12
2.06276e-12
2.07222e-12
2.07661e-12
2.07593e-12
2.07016e-12
2.05932e-12
2.04343e-12
2.02256e-12
1.99676e-12
1.96614e-12
1.93079e-12
1.89084e-12
1.84642e-12
1.79771e-12
1.74488e-12
1.68812e-12
1.62765e-12
1.56369e-12
1.49649e-12
1.42631e-12
1.35342e-12
1.27811e-12
1.20068e-12
1.12146e-12
1.04077e-12
9.58945e-13
8.76352e-13
7.93353e-13
7.10323e-13
6.2765e-13
5.45731e-13
4.64971e-13
3.85787e-13
3.08623e-13
2.34005e-13
1.62759e-13
9.6794e-14
4.1391e-14
7.75425e-15
5.32436e-17
1.12884e-16
1.85222e-14
1.26419e-13
3.77688e-13
7.62999e-13
1.2426e-12
1.78078e-12
2.3545e-12
2.95039e-12
3.56058e-12
4.17998e-12
4.80492e-12
5.43234e-12
6.05956e-12
6.68404e-12
7.30334e-12
7.91508e-12
8.51692e-12
9.10659e-12
9.68184e-12
1.02405e-11
1.07805e-11
1.12998e-11
1.17964e-11
1.22685e-11
1.27144e-11
1.31322e-11
1.35206e-11
1.38779e-11
1.4203e-11
1.44945e-11
1.47514e-11
1.49727e-11
1.51575e-11
1.53052e-11
1.54151e-11
1.54867e-11
1.55199e-11
1.55143e-11
1.54701e-11
1.53872e-11
1.52658e-11
1.51065e-11
1.49096e-11
1.46759e-11
1.44061e-11
1.41011e-11
1.37621e-11
1.33902e-11
1.29866e-11
1.25529e-11
1.20905e-11
1.16012e-11
1.10867e-11
1.05489e-11
9.9897e-12
9.41129e-12
8.81579e-12
8.20545e-12
7.5826e-12
6.94963e-12
6.30903e-12
5.66339e-12
5.01541e-12
4.36801e-12
3.7245e-12
3.08892e-12
2.46682e-12
1.86675e-12
1.30307e-12
8.00269e-13
3.96154e-13
1.32602e-13
1.94298e-14
1.18425e-16
1.86571e-16
3.13817e-14
2.28771e-13
7.51616e-13
1.67984e-12
2.99577e-12
4.62548e-12
6.48426e-12
8.50027e-12
1.062e-11
1.28055e-11
1.503e-11
1.72738e-11
1.95217e-11
2.17614e-11
2.39822e-11
2.61746e-11
2.83298e-11
3.04394e-11
3.24956e-11
3.44908e-11
3.64175e-11
3.82688e-11
4.00379e-11
4.17185e-11
4.33044e-11
4.47899e-11
4.61696e-11
4.74386e-11
4.85922e-11
4.96262e-11
5.05369e-11
5.13209e-11
5.19753e-11
5.24977e-11
5.2886e-11
5.31388e-11
5.3255e-11
5.32341e-11
5.30761e-11
5.27809e-11
5.23496e-11
5.17834e-11
5.10842e-11
5.02542e-11
4.9296e-11
4.82129e-11
4.70083e-11
4.56864e-11
4.42514e-11
4.27083e-11
4.10623e-11
3.9319e-11
3.74844e-11
3.55648e-11
3.3567e-11
3.14981e-11
2.93655e-11
2.71771e-11
2.49413e-11
2.26672e-11
2.03646e-11
1.80447e-11
1.57207e-11
1.34091e-11
1.11312e-11
8.9163e-12
6.80548e-12
4.85638e-12
3.14583e-12
1.76399e-12
7.89221e-13
2.40216e-13
3.2955e-14
1.95939e-16
2.68394e-16
4.55283e-14
3.3991e-13
1.16125e-12
2.72538e-12
5.11938e-12
8.30683e-12
1.21741e-11
1.65798e-11
2.13877e-11
2.64813e-11
3.1767e-11
3.71712e-11
4.26363e-11
4.81164e-11
5.35741e-11
5.89777e-11
6.42997e-11
6.95155e-11
7.46027e-11
7.95406e-11
8.43099e-11
8.88924e-11
9.3271e-11
9.74297e-11
1.01353e-10
1.05028e-10
1.0844e-10
1.11577e-10
1.14428e-10
1.16983e-10
1.19233e-10
1.2117e-10
1.22786e-10
1.24076e-10
1.25035e-10
1.25659e-10
1.25946e-10
1.25895e-10
1.25505e-10
1.24777e-10
1.23713e-10
1.22315e-10
1.20589e-10
1.1854e-10
1.16174e-10
1.13498e-10
1.10521e-10
1.07253e-10
1.03704e-10
9.98865e-11
9.58122e-11
9.14951e-11
8.69501e-11
8.21931e-11
7.7241e-11
7.21125e-11
6.68277e-11
6.14088e-11
5.58805e-11
5.02714e-11
4.46147e-11
3.89506e-11
3.33289e-11
2.78125e-11
2.24814e-11
1.74378e-11
1.28083e-11
8.74042e-12
5.38611e-12
2.86683e-12
1.22128e-12
3.57451e-13
4.78805e-14
2.82274e-16
3.56114e-16
6.06358e-14
4.5759e-13
1.59243e-12
3.83162e-12
7.40876e-12
1.23927e-11
1.87106e-11
2.61983e-11
3.46501e-11
4.38569e-11
5.36265e-11
6.3792e-11
7.42128e-11
8.47719e-11
9.53717e-11
1.0593e-10
1.16377e-10
1.26651e-10
1.36699e-10
1.46471e-10
1.55926e-10
1.65021e-10
1.73721e-10
1.8199e-10
1.89796e-10
1.9711e-10
2.03905e-10
2.10155e-10
2.15837e-10
2.20931e-10
2.25418e-10
2.29282e-10
2.32509e-10
2.35087e-10
2.37007e-10
2.3826e-10
2.38843e-10
2.38752e-10
2.37988e-10
2.3655e-10
2.34442e-10
2.31671e-10
2.28245e-10
2.24175e-10
2.19473e-10
2.14154e-10
2.08235e-10
2.01735e-10
1.94675e-10
1.87078e-10
1.78972e-10
1.70385e-10
1.61347e-10
1.51894e-10
1.42063e-10
1.31897e-10
1.21444e-10
1.10758e-10
9.99028e-11
8.89521e-11
7.79935e-11
6.71328e-11
5.64981e-11
4.62447e-11
3.65571e-11
2.76476e-11
1.97459e-11
1.30754e-11
7.81388e-12
4.03933e-12
1.6781e-12
4.82098e-13
6.38813e-14
3.75178e-16
4.48041e-16
7.64371e-14
5.80068e-13
2.03855e-12
4.97291e-12
9.77809e-12
1.66631e-11
2.56484e-11
3.66024e-11
4.92948e-11
6.34464e-11
7.87682e-11
9.49846e-11
1.11846e-10
1.29131e-10
1.46649e-10
1.64235e-10
1.81746e-10
1.99055e-10
2.16054e-10
2.32644e-10
2.48738e-10
2.64257e-10
2.79129e-10
2.93288e-10
3.06674e-10
3.19231e-10
3.3091e-10
3.41663e-10
3.5145e-10
3.60233e-10
3.67978e-10
3.74656e-10
3.80241e-10
3.84712e-10
3.88052e-10
3.90247e-10
3.91289e-10
3.9117e-10
3.89895e-10
3.87456e-10
3.83865e-10
3.79131e-10
3.73269e-10
3.66297e-10
3.58236e-10
3.49113e-10
3.38957e-10
3.27804e-10
3.1569e-10
3.02661e-10
2.88763e-10
2.74053e-10
2.58589e-10
2.4244e-10
2.25681e-10
2.08399e-10
1.90692e-10
1.72673e-10
1.54474e-10
1.3625e-10
1.18183e-10
1.00486e-10
8.34039e-11
6.72179e-11
5.22365e-11
3.87826e-11
2.71655e-11
1.76379e-11
1.03424e-11
5.25594e-12
2.15321e-12
6.1244e-13
8.06909e-14
4.72955e-16
5.42798e-16
9.27066e-14
7.05793e-13
2.49452e-12
6.13476e-12
1.21861e-11
2.10111e-11
3.27508e-11
4.73455e-11
6.45813e-11
8.41459e-11
1.05675e-10
1.28795e-10
1.5314e-10
1.78373e-10
2.04187e-10
2.30309e-10
2.56496e-10
2.82532e-10
3.08225e-10
3.33405e-10
3.5792e-10
3.8163e-10
4.04412e-10
4.26151e-10
4.46746e-10
4.66102e-10
4.84133e-10
5.00763e-10
5.15921e-10
5.29544e-10
5.41578e-10
5.51972e-10
5.60684e-10
5.6768e-10
5.7293e-10
5.7641e-10
5.78106e-10
5.78006e-10
5.76117e-10
5.72423e-10
5.66943e-10
5.59691e-10
5.50691e-10
5.3997e-10
5.27564e-10
5.13515e-10
4.97872e-10
4.8069e-10
4.62036e-10
4.4198e-10
4.20607e-10
3.98009e-10
3.74291e-10
3.49574e-10
3.23992e-10
2.97701e-10
2.70878e-10
2.43728e-10
2.16485e-10
1.89416e-10
1.6283e-10
1.37074e-10
1.12534e-10
8.96237e-11
6.87723e-11
5.03902e-11
3.48276e-11
2.23198e-11
1.29303e-11
6.50225e-12
2.64151e-12
7.46916e-13
9.80807e-14
5.74208e-16
6.39211e-16
1.09248e-13
8.33364e-13
2.95572e-12
7.30584e-12
1.46064e-11
2.53759e-11
3.9887e-11
5.81724e-11
8.00629e-11
1.05242e-10
1.333e-10
1.63781e-10
1.96216e-10
2.30153e-10
2.65162e-10
3.00851e-10
3.36859e-10
3.72861e-10
4.08566e-10
4.4371e-10
4.78053e-10
5.11382e-10
5.43501e-10
5.74232e-10
6.03415e-10
6.30903e-10
6.56563e-10
6.80275e-10
7.01929e-10
7.21429e-10
7.38689e-10
7.53631e-10
7.6619e-10
7.76311e-10
7.83947e-10
7.89063e-10
7.91633e-10
7.91639e-10
7.89089e-10
7.83956e-10
7.76267e-10
7.66043e-10
7.53316e-10
7.38128e-10
7.20531e-10
7.0059e-10
6.78377e-10
6.53982e-10
6.27503e-10
5.99056e-10
5.68771e-10
5.36797e-10
5.03301e-10
4.68476e-10
4.32539e-10
3.95738e-10
3.58354e-10
3.20709e-10
2.83165e-10
2.46131e-10
2.1006e-10
1.75449e-10
1.42827e-10
1.12737e-10
8.57083e-11
6.22097e-11
4.25982e-11
2.70593e-11
1.55507e-11
7.76667e-12
3.13828e-12
8.84077e-13
1.15847e-13
6.77714e-16
7.36262e-16
1.25891e-13
9.61526e-13
3.41795e-12
8.47611e-12
1.7018e-11
2.97155e-11
4.69742e-11
6.89273e-11
9.54653e-11
1.26288e-10
1.60959e-10
1.98965e-10
2.39747e-10
2.82746e-10
3.27417e-10
3.73243e-10
4.19745e-10
4.66478e-10
5.13038e-10
5.59054e-10
6.04188e-10
6.48135e-10
6.90614e-10
7.3137e-10
7.7017e-10
8.06804e-10
8.41077e-10
8.72817e-10
9.01864e-10
9.28078e-10
9.51333e-10
9.71517e-10
9.88534e-10
1.0023e-09
1.01275e-09
1.01983e-09
1.0235e-09
1.02373e-09
1.02053e-09
1.01386e-09
1.00375e-09
9.90237e-10
9.73357e-10
9.5317e-10
9.2975e-10
9.03187e-10
8.73589e-10
8.41081e-10
8.05809e-10
7.6794e-10
7.27666e-10
6.85205e-10
6.40804e-10
5.94747e-10
5.47351e-10
4.98979e-10
4.50038e-10
4.00986e-10
3.52331e-10
3.04635e-10
2.58509e-10
2.14599e-10
1.73573e-10
1.3609e-10
1.02757e-10
7.40762e-11
5.03896e-11
3.18115e-11
1.81812e-11
9.03836e-12
3.63895e-12
1.02256e-12
1.33804e-13
7.82365e-16
8.33062e-16
1.42483e-13
1.08916e-12
3.8774e-12
9.63648e-12
1.9403e-11
3.39965e-11
5.39522e-11
7.95041e-11
1.10609e-10
1.46992e-10
1.88207e-10
2.33696e-10
2.82827e-10
3.34947e-10
3.89404e-10
4.45564e-10
5.02828e-10
5.60633e-10
6.18457e-10
6.75816e-10
7.32268e-10
7.87405e-10
8.40853e-10
8.92269e-10
9.4134e-10
9.87779e-10
1.03132e-09
1.07174e-09
1.10881e-09
1.14233e-09
1.17215e-09
1.19809e-09
1.22004e-09
1.23787e-09
1.25149e-09
1.26082e-09
1.26581e-09
1.2664e-09
1.26262e-09
1.2544e-09
1.24178e-09
1.2248e-09
1.20352e-09
1.17801e-09
1.14837e-09
1.11472e-09
1.0772e-09
1.036e-09
9.91295e-10
9.43331e-10
8.92366e-10
8.38702e-10
7.8268e-10
7.24686e-10
6.65156e-10
6.0458e-10
5.43506e-10
4.82538e-10
4.22343e-10
3.63643e-10
3.07203e-10
2.53819e-10
2.04285e-10
1.59362e-10
1.19716e-10
8.58703e-11
5.8133e-11
3.65378e-11
2.08008e-11
1.03068e-11
4.13911e-12
1.16106e-12
1.51776e-13
8.87134e-16
9.28836e-16
1.58894e-13
1.21527e-12
4.33066e-12
1.07788e-11
2.17451e-11
3.81903e-11
6.07728e-11
8.98238e-11
1.25365e-10
1.67154e-10
2.14742e-10
2.67533e-10
3.24842e-10
3.85928e-10
4.50044e-10
5.16448e-10
5.84429e-10
6.53308e-10
7.22447e-10
7.91252e-10
8.59171e-10
9.25692e-10
9.90344e-10
1.05269e-09
1.11233e-09
1.1689e-09
1.22206e-09
1.2715e-09
1.31695e-09
1.35815e-09
1.39487e-09
1.42691e-09
1.4541e-09
1.47629e-09
1.49334e-09
1.50515e-09
1.51164e-09
1.51276e-09
1.5085e-09
1.49879e-09
1.48368e-09
1.46321e-09
1.43744e-09
1.40648e-09
1.37044e-09
1.32949e-09
1.28381e-09
1.23362e-09
1.17917e-09
1.12078e-09
1.05878e-09
9.93566e-10
9.25581e-10
8.55325e-10
7.83362e-10
7.10318e-10
6.36887e-10
5.63832e-10
4.91977e-10
4.22202e-10
3.55428e-10
2.9259e-10
2.34601e-10
1.82308e-10
1.36429e-10
9.74928e-11
6.57673e-11
4.12018e-11
2.33889e-11
1.15616e-11
4.63445e-12
1.29835e-12
1.69598e-13
9.91043e-16
1.02293e-15
1.75011e-13
1.33902e-12
4.77478e-12
1.18959e-11
2.40304e-11
4.22725e-11
6.73962e-11
9.98237e-11
1.39639e-10
1.8663e-10
2.4035e-10
3.00174e-10
3.65367e-10
4.35116e-10
5.08585e-10
5.84938e-10
6.63357e-10
7.43055e-10
8.23286e-10
9.03346e-10
9.82578e-10
1.06037e-09
1.13615e-09
1.20938e-09
1.27959e-09
1.34632e-09
1.40915e-09
1.46771e-09
1.52164e-09
1.57064e-09
1.61441e-09
1.65271e-09
1.68531e-09
1.71202e-09
1.73267e-09
1.74713e-09
1.75528e-09
1.75706e-09
1.75246e-09
1.74139e-09
1.72388e-09
1.69999e-09
1.66981e-09
1.63344e-09
1.59103e-09
1.54278e-09
1.48892e-09
1.42973e-09
1.36551e-09
1.29666e-09
1.22359e-09
1.14679e-09
1.06683e-09
9.84304e-10
8.99922e-10
8.14449e-10
7.28729e-10
6.43678e-10
5.60281e-10
4.79575e-10
4.02626e-10
3.30502e-10
2.64229e-10
2.04727e-10
1.52758e-10
1.08853e-10
7.32346e-11
4.57678e-11
2.59252e-11
1.27924e-11
5.12077e-12
1.43321e-12
1.87111e-13
1.09316e-15
1.11479e-15
1.9074e-13
1.4597e-12
5.20729e-12
1.29819e-11
2.6247e-11
4.62226e-11
7.37897e-11
1.09454e-10
1.53356e-10
2.05313e-10
2.64876e-10
3.31401e-10
4.04104e-10
4.82112e-10
5.64508e-10
6.50368e-10
7.38779e-10
8.28854e-10
9.19747e-10
1.01065e-09
1.10081e-09
1.18951e-09
1.27609e-09
1.35993e-09
1.44045e-09
1.51711e-09
1.58944e-09
1.65696e-09
1.71928e-09
1.776e-09
1.82679e-09
1.87133e-09
1.90936e-09
1.94063e-09
1.96495e-09
1.98214e-09
1.99207e-09
1.99464e-09
1.98985e-09
1.97756e-09
1.95782e-09
1.93069e-09
1.89626e-09
1.85466e-09
1.80608e-09
1.75073e-09
1.68889e-09
1.62089e-09
1.54711e-09
1.46801e-09
1.38409e-09
1.29595e-09
1.20425e-09
1.10972e-09
1.01319e-09
9.15572e-10
8.17857e-10
7.21116e-10
6.26486e-10
5.35155e-10
4.48332e-10
3.6721e-10
2.92913e-10
2.26435e-10
1.68577e-10
1.19864e-10
8.04777e-11
5.02005e-11
2.83896e-11
1.39893e-11
5.59393e-12
1.56448e-12
2.0416e-13
1.19257e-15
1.204e-15
2.0601e-13
1.57675e-12
5.62625e-12
1.40319e-11
2.83857e-11
5.00246e-11
7.9928e-11
1.18677e-10
1.66461e-10
2.23123e-10
2.88213e-10
3.61064e-10
4.4085e-10
5.26645e-10
6.17455e-10
7.1228e-10
8.1012e-10
9.09999e-10
1.01097e-09
1.11215e-09
1.21267e-09
1.31174e-09
1.4086e-09
1.50254e-09
1.59292e-09
1.6791e-09
1.76054e-09
1.8367e-09
1.9071e-09
1.97129e-09
2.02889e-09
2.07952e-09
2.12286e-09
2.15863e-09
2.1866e-09
2.20654e-09
2.2183e-09
2.22175e-09
2.2169e-09
2.20356e-09
2.18179e-09
2.15165e-09
2.11324e-09
2.06671e-09
2.01226e-09
1.95015e-09
1.88069e-09
1.80426e-09
1.72133e-09
1.6324e-09
1.53807e-09
1.43903e-09
1.33605e-09
1.22999e-09
1.12179e-09
1.01251e-09
9.03285e-10
7.95328e-10
6.89928e-10
5.88416e-10
4.92133e-10
4.02395e-10
3.20415e-10
2.47258e-10
1.83759e-10
1.3044e-10
8.74398e-11
5.44646e-11
3.07618e-11
1.51422e-11
6.04987e-12
1.691e-12
2.20595e-13
1.28841e-15
1.29025e-15
2.20769e-13
1.68978e-12
6.03026e-12
1.50425e-11
3.04397e-11
5.3667e-11
8.57932e-11
1.27466e-10
1.78918e-10
2.40008e-10
3.10288e-10
3.89065e-10
4.75473e-10
5.68537e-10
6.67196e-10
7.70378e-10
8.77004e-10
9.86017e-10
1.09639e-09
1.20714e-09
1.31734e-09
1.42609e-09
1.53256e-09
1.63597e-09
1.73557e-09
1.8307e-09
1.9207e-09
2.005e-09
2.08303e-09
2.1543e-09
2.21835e-09
2.27477e-09
2.32319e-09
2.36329e-09
2.39477e-09
2.41741e-09
2.431e-09
2.43538e-09
2.43058e-09
2.41637e-09
2.39278e-09
2.35991e-09
2.31784e-09
2.26673e-09
2.20683e-09
2.1384e-09
2.06181e-09
1.97749e-09
1.88594e-09
1.78777e-09
1.68364e-09
1.57433e-09
1.46071e-09
1.34376e-09
1.22455e-09
1.10425e-09
9.84145e-10
8.65589e-10
7.50009e-10
6.38872e-10
5.33647e-10
4.35759e-10
3.46508e-10
2.67028e-10
1.98183e-10
1.40495e-10
9.40639e-11
5.85244e-11
3.30218e-11
1.6241e-11
6.48458e-12
1.81165e-12
2.36267e-13
1.37979e-15
1.37337e-15
2.34987e-13
1.79858e-12
6.41855e-12
1.6012e-11
3.24053e-11
5.71435e-11
9.13756e-11
1.35807e-10
1.90705e-10
2.55943e-10
3.31064e-10
4.15353e-10
5.07904e-10
6.07693e-10
7.13601e-10
8.24488e-10
9.39206e-10
1.05662e-09
1.17564e-09
1.29519e-09
1.41427e-09
1.53191e-09
1.64721e-09
1.75931e-09
1.86742e-09
1.97076e-09
2.06866e-09
2.16044e-09
2.24552e-09
2.32333e-09
2.39337e-09
2.45517e-09
2.50831e-09
2.55245e-09
2.58724e-09
2.61242e-09
2.62777e-09
2.6331e-09
2.62843e-09
2.61348e-09
2.5883e-09
2.55297e-09
2.50759e-09
2.45234e-09
2.38745e-09
2.31325e-09
2.23011e-09
2.13853e-09
2.03905e-09
1.93234e-09
1.81915e-09
1.70034e-09
1.57687e-09
1.44982e-09
1.32038e-09
1.18985e-09
1.05964e-09
9.31222e-10
8.06167e-10
6.86063e-10
5.72502e-10
4.67007e-10
3.70966e-10
2.85573e-10
2.11726e-10
1.49942e-10
1.00293e-10
6.23443e-11
3.51494e-11
1.72758e-11
6.89408e-12
1.92531e-12
2.51031e-13
1.46588e-15
1.45334e-15
2.48659e-13
1.90309e-12
6.79095e-12
1.69399e-11
3.42819e-11
6.04534e-11
9.66745e-11
1.437e-10
2.01823e-10
2.70926e-10
3.50539e-10
4.39921e-10
5.38129e-10
6.4409e-10
7.56631e-10
8.74549e-10
9.96631e-10
1.12168e-09
1.24852e-09
1.37604e-09
1.50315e-09
1.62882e-09
1.75208e-09
1.87202e-09
1.98777e-09
2.09851e-09
2.2035e-09
2.30203e-09
2.39345e-09
2.47714e-09
2.55257e-09
2.61922e-09
2.67663e-09
2.72442e-09
2.76222e-09
2.78973e-09
2.80668e-09
2.81291e-09
2.80839e-09
2.79282e-09
2.76626e-09
2.72876e-09
2.68044e-09
2.62148e-09
2.55213e-09
2.47274e-09
2.38372e-09
2.28559e-09
2.17896e-09
2.06453e-09
1.94313e-09
1.8157e-09
1.68328e-09
1.54705e-09
1.40831e-09
1.26845e-09
1.12901e-09
9.91584e-10
8.57859e-10
7.29541e-10
6.08333e-10
4.9585e-10
3.93564e-10
3.02725e-10
2.24262e-10
1.58696e-10
1.06068e-10
6.58887e-11
3.71246e-11
1.82368e-11
7.27442e-12
2.03088e-12
2.64743e-13
1.54583e-15
1.53025e-15
2.61803e-13
2.00345e-12
7.14799e-12
1.78275e-11
3.60723e-11
6.36017e-11
1.01698e-10
1.51157e-10
2.12291e-10
2.84981e-10
3.68744e-10
4.62808e-10
5.66192e-10
6.77772e-10
7.96327e-10
9.20592e-10
1.0493e-09
1.18119e-09
1.31502e-09
1.44963e-09
1.58386e-09
1.71663e-09
1.84692e-09
1.97375e-09
2.09621e-09
2.21344e-09
2.32464e-09
2.42906e-09
2.526e-09
2.61482e-09
2.69493e-09
2.76579e-09
2.82691e-09
2.87787e-09
2.91827e-09
2.9478e-09
2.96615e-09
2.97315e-09
2.96876e-09
2.95264e-09
2.92486e-09
2.88546e-09
2.83457e-09
2.77236e-09
2.6991e-09
2.61516e-09
2.52096e-09
2.41707e-09
2.30412e-09
2.18288e-09
2.05422e-09
1.91916e-09
1.7788e-09
1.63441e-09
1.48738e-09
1.33921e-09
1.19153e-09
1.04605e-09
9.04552e-10
7.68862e-10
6.40777e-10
5.21999e-10
4.14075e-10
3.18311e-10
2.35666e-10
1.66667e-10
1.11332e-10
6.91218e-11
3.89272e-11
1.91142e-11
7.62173e-12
2.12728e-12
2.77263e-13
1.61882e-15
1.60436e-15
2.74462e-13
2.1e-12
7.49085e-12
1.86778e-11
3.77828e-11
6.65998e-11
1.06465e-10
1.58206e-10
2.22147e-10
2.98163e-10
3.85747e-10
4.84097e-10
5.92187e-10
7.08847e-10
8.32806e-10
9.62741e-10
1.09733e-09
1.23525e-09
1.37523e-09
1.51602e-09
1.65643e-09
1.79533e-09
1.93165e-09
2.06438e-09
2.19255e-09
2.31527e-09
2.4317e-09
2.54105e-09
2.64261e-09
2.73569e-09
2.81969e-09
2.89402e-09
2.95819e-09
3.01173e-09
3.05425e-09
3.08538e-09
3.10484e-09
3.11242e-09
3.10808e-09
3.09142e-09
3.06255e-09
3.0215e-09
2.96838e-09
2.90338e-09
2.82677e-09
2.73893e-09
2.6403e-09
2.53147e-09
2.41312e-09
2.28603e-09
2.15115e-09
2.00952e-09
1.86232e-09
1.7109e-09
1.5567e-09
1.40133e-09
1.24649e-09
1.09399e-09
9.45722e-10
8.03585e-10
6.69472e-10
5.45162e-10
4.32273e-10
3.3216e-10
2.45814e-10
1.73769e-10
1.16028e-10
7.20079e-11
4.05375e-11
1.98982e-11
7.93215e-12
2.21344e-12
2.88451e-13
1.68404e-15
1.67607e-15
2.86705e-13
2.19327e-12
7.82143e-12
1.94957e-11
3.9423e-11
6.94649e-11
1.11004e-10
1.6489e-10
2.31452e-10
3.10549e-10
4.0165e-10
5.03911e-10
6.16264e-10
7.37486e-10
8.66256e-10
1.0012e-09
1.14093e-09
1.28409e-09
1.42934e-09
1.57539e-09
1.72102e-09
1.86505e-09
2.00637e-09
2.14393e-09
2.27674e-09
2.40388e-09
2.52449e-09
2.63775e-09
2.74292e-09
2.83931e-09
2.92629e-09
3.00326e-09
3.06971e-09
3.12516e-09
3.16921e-09
3.20146e-09
3.22165e-09
3.22954e-09
3.22507e-09
3.20785e-09
3.17797e-09
3.13547e-09
3.08045e-09
3.0131e-09
2.93369e-09
2.84261e-09
2.74033e-09
2.62743e-09
2.50462e-09
2.37272e-09
2.2327e-09
2.08564e-09
1.93279e-09
1.77553e-09
1.61538e-09
1.45401e-09
1.29319e-09
1.13482e-09
9.80848e-10
8.33272e-10
6.94059e-10
5.65052e-10
4.47931e-10
3.441e-10
2.54579e-10
1.79914e-10
1.20096e-10
7.45118e-11
4.19358e-11
2.05795e-11
8.20193e-12
2.28832e-12
2.98173e-13
1.74071e-15
1.74593e-15
2.98626e-13
2.28397e-12
8.14231e-12
2.02877e-11
4.10064e-11
7.22208e-11
1.15352e-10
1.71265e-10
2.40284e-10
3.22247e-10
4.16587e-10
5.22418e-10
6.38619e-10
7.63915e-10
8.96931e-10
1.03623e-09
1.18039e-09
1.32799e-09
1.47766e-09
1.62805e-09
1.77792e-09
1.92604e-09
2.07128e-09
2.21257e-09
2.3489e-09
2.47933e-09
2.60298e-09
2.71903e-09
2.82673e-09
2.92538e-09
3.01433e-09
3.09301e-09
3.16088e-09
3.21747e-09
3.26235e-09
3.29515e-09
3.3156e-09
3.32347e-09
3.31862e-09
3.30074e-09
3.26989e-09
3.2261e-09
3.16947e-09
3.10019e-09
3.01854e-09
2.92489e-09
2.81973e-09
2.70366e-09
2.57738e-09
2.44174e-09
2.29773e-09
2.14646e-09
1.98921e-09
1.82739e-09
1.66258e-09
1.49649e-09
1.33095e-09
1.16792e-09
1.00942e-09
8.57496e-10
7.14182e-10
5.81381e-10
4.60826e-10
3.53961e-10
2.61838e-10
1.85016e-10
1.23481e-10
7.65988e-11
4.31028e-11
2.11486e-11
8.42739e-12
2.3509e-12
3.06296e-13
1.78804e-15
1.81463e-15
3.10343e-13
2.37302e-12
8.45678e-12
2.10619e-11
4.25496e-11
7.48973e-11
1.19557e-10
1.77402e-10
2.48743e-10
3.33389e-10
4.30728e-10
5.39822e-10
6.59496e-10
7.88414e-10
9.25143e-10
1.06819e-09
1.21608e-09
1.36734e-09
1.52056e-09
1.67437e-09
1.82746e-09
1.97862e-09
2.12668e-09
2.27054e-09
2.40921e-09
2.54173e-09
2.66722e-09
2.78487e-09
2.89393e-09
2.9937e-09
3.08355e-09
3.16291e-09
3.23125e-09
3.2881e-09
3.33303e-09
3.36574e-09
3.38589e-09
3.3933e-09
3.38778e-09
3.36907e-09
3.33722e-09
3.29225e-09
3.23427e-09
3.16346e-09
3.08009e-09
2.98455e-09
2.87731e-09
2.75896e-09
2.63023e-09
2.49197e-09
2.34516e-09
2.19095e-09
2.03061e-09
1.86559e-09
1.69748e-09
1.52804e-09
1.35913e-09
1.19274e-09
1.03094e-09
8.75836e-10
7.29496e-10
5.93871e-10
4.70738e-10
3.61578e-10
2.6747e-10
1.8899e-10
1.26128e-10
7.82355e-11
4.40202e-11
2.15966e-11
8.60504e-12
2.40022e-12
3.12696e-13
1.82533e-15
1.883e-15
3.21999e-13
2.46151e-12
8.76876e-12
2.18283e-11
4.4073e-11
7.75303e-11
1.23677e-10
1.83387e-10
2.56948e-10
3.4413e-10
4.44268e-10
5.56365e-10
6.79177e-10
8.11304e-10
9.51249e-10
1.09746e-09
1.2484e-09
1.40256e-09
1.55848e-09
1.71476e-09
1.87008e-09
2.02318e-09
2.17291e-09
2.31816e-09
2.45794e-09
2.59129e-09
2.71735e-09
2.83534e-09
2.9445e-09
3.04417e-09
3.13375e-09
3.21267e-09
3.28043e-09
3.33658e-09
3.38075e-09
3.41259e-09
3.43181e-09
3.43827e-09
3.43169e-09
3.41193e-09
3.379e-09
3.33292e-09
3.27381e-09
3.20183e-09
3.11727e-09
3.02048e-09
2.91195e-09
2.79226e-09
2.66212e-09
2.52237e-09
2.37401e-09
2.21815e-09
2.0561e-09
1.88929e-09
1.71932e-09
1.54796e-09
1.37709e-09
1.20873e-09
1.04495e-09
8.87896e-10
7.39671e-10
6.02256e-10
4.77459e-10
3.66793e-10
2.7136e-10
1.91757e-10
1.27984e-10
7.93898e-11
4.46701e-11
2.1915e-11
8.73153e-12
2.43536e-12
3.17255e-13
1.85188e-15
1.952e-15
3.33758e-13
2.55071e-12
9.08281e-12
2.25983e-11
4.55998e-11
8.0161e-11
1.27778e-10
1.89316e-10
2.65034e-10
3.54648e-10
4.57431e-10
5.72313e-10
6.97976e-10
8.32942e-10
9.75644e-10
1.12446e-09
1.27781e-09
1.43411e-09
1.59189e-09
1.7497e-09
1.9062e-09
2.06014e-09
2.21036e-09
2.35576e-09
2.49535e-09
2.62822e-09
2.75353e-09
2.87051e-09
2.97845e-09
3.07674e-09
3.16478e-09
3.24207e-09
3.30813e-09
3.36256e-09
3.40501e-09
3.43516e-09
3.45276e-09
3.45769e-09
3.44963e-09
3.42853e-09
3.3944e-09
3.34724e-09
3.28718e-09
3.21438e-09
3.12911e-09
3.03172e-09
2.92269e-09
2.80258e-09
2.67208e-09
2.53202e-09
2.38337e-09
2.22723e-09
2.06488e-09
1.89774e-09
1.72741e-09
1.55563e-09
1.38428e-09
1.21538e-09
1.05101e-09
8.93309e-10
7.44401e-10
6.06289e-10
4.80795e-10
3.69456e-10
2.734e-10
1.93243e-10
1.29e-10
8.00322e-11
4.50364e-11
2.20961e-11
8.80383e-12
2.45548e-12
3.19865e-13
1.86706e-15
2.02268e-15
3.45803e-13
2.64202e-12
9.40403e-12
2.33848e-11
4.71561e-11
8.28356e-11
1.31933e-10
1.95298e-10
2.73147e-10
3.65135e-10
4.70458e-10
5.87958e-10
7.16229e-10
8.53705e-10
9.98738e-10
1.14964e-09
1.30475e-09
1.46246e-09
1.62123e-09
1.77962e-09
1.93626e-09
2.0899e-09
2.23938e-09
2.38365e-09
2.52173e-09
2.65274e-09
2.7759e-09
2.89047e-09
2.99581e-09
3.09134e-09
3.17654e-09
3.25093e-09
3.31411e-09
3.36573e-09
3.40546e-09
3.43304e-09
3.44827e-09
3.45101e-09
3.441e-09
3.41825e-09
3.38273e-09
3.33449e-09
3.27363e-09
3.20033e-09
3.11483e-09
3.01749e-09
2.90874e-09
2.78914e-09
2.65935e-09
2.52016e-09
2.3725e-09
2.21746e-09
2.05627e-09
1.89031e-09
1.72115e-09
1.5505e-09
1.38021e-09
1.21226e-09
1.04873e-09
8.91748e-10
7.43416e-10
6.05748e-10
4.80572e-10
3.69438e-10
2.73494e-10
1.93379e-10
1.29132e-10
8.01362e-11
4.51045e-11
2.21328e-11
8.81925e-12
2.45985e-12
3.20432e-13
1.87034e-15
2.09624e-15
3.58337e-13
2.73701e-12
9.73801e-12
2.42018e-11
4.87707e-11
8.56045e-11
1.36222e-10
2.0145e-10
2.81449e-10
3.758e-10
4.83603e-10
6.036e-10
7.34279e-10
8.73975e-10
1.02094e-09
1.17342e-09
1.32967e-09
1.48804e-09
1.64695e-09
1.80494e-09
1.96064e-09
2.1128e-09
2.26029e-09
2.40209e-09
2.53727e-09
2.66501e-09
2.78456e-09
2.89527e-09
2.99656e-09
3.08792e-09
3.16889e-09
3.23909e-09
3.29817e-09
3.34583e-09
3.38179e-09
3.40587e-09
3.41795e-09
3.41782e-09
3.40538e-09
3.38061e-09
3.34352e-09
3.29416e-09
3.23264e-09
3.15915e-09
3.07393e-09
2.9773e-09
2.86968e-09
2.75157e-09
2.6236e-09
2.48652e-09
2.34121e-09
2.18869e-09
2.03014e-09
1.8669e-09
1.70048e-09
1.53252e-09
1.36483e-09
1.19935e-09
1.0381e-09
8.83187e-10
7.36687e-10
6.00601e-10
4.76753e-10
3.66702e-10
2.71611e-10
1.92141e-10
1.28363e-10
7.96893e-11
4.48671e-11
2.20215e-11
8.77622e-12
2.44803e-12
3.18895e-13
1.86133e-15
2.1739e-15
3.71572e-13
2.83733e-12
1.00907e-11
2.50644e-11
5.04741e-11
8.85215e-11
1.4073e-10
2.07893e-10
2.90106e-10
3.86853e-10
4.97124e-10
6.1954e-10
7.52467e-10
8.94119e-10
1.04265e-09
1.1962e-09
1.35296e-09
1.51124e-09
1.66941e-09
1.82599e-09
1.97963e-09
2.1291e-09
2.2733e-09
2.41125e-09
2.5421e-09
2.66508e-09
2.77954e-09
2.8849e-09
2.98066e-09
3.0664e-09
3.14176e-09
3.20642e-09
3.26009e-09
3.30259e-09
3.33374e-09
3.35343e-09
3.36153e-09
3.3579e-09
3.34254e-09
3.31544e-09
3.27664e-09
3.22619e-09
3.16421e-09
3.09086e-09
3.00637e-09
2.91104e-09
2.80526e-09
2.68951e-09
2.56436e-09
2.43052e-09
2.2888e-09
2.14016e-09
1.9857e-09
1.82669e-09
1.66453e-09
1.50083e-09
1.33731e-09
1.17583e-09
1.01838e-09
8.66984e-10
7.23674e-10
5.90422e-10
4.6902e-10
3.6102e-10
2.67594e-10
1.89428e-10
1.26629e-10
7.86562e-11
4.43058e-11
2.17538e-11
8.67171e-12
2.41922e-12
3.15158e-13
1.83952e-15
2.25696e-15
3.85733e-13
2.94471e-12
1.04684e-11
2.59883e-11
5.22982e-11
9.16424e-11
1.45545e-10
2.14754e-10
2.99284e-10
3.98506e-10
5.11275e-10
6.36068e-10
7.71106e-10
9.14469e-10
1.06419e-09
1.2183e-09
1.37495e-09
1.53234e-09
1.68885e-09
1.84298e-09
1.9934e-09
2.13891e-09
2.27847e-09
2.41116e-09
2.5362e-09
2.65293e-09
2.76077e-09
2.85925e-09
2.94798e-09
3.02665e-09
3.09496e-09
3.1527e-09
3.19976e-09
3.23601e-09
3.26134e-09
3.27569e-09
3.279e-09
3.27125e-09
3.25246e-09
3.22265e-09
3.18187e-09
3.13021e-09
3.06781e-09
2.99482e-09
2.91147e-09
2.81804e-09
2.71487e-09
2.6024e-09
2.48114e-09
2.35172e-09
2.21487e-09
2.07147e-09
1.92256e-09
1.76931e-09
1.61306e-09
1.45527e-09
1.29758e-09
1.14174e-09
9.89639e-10
8.43224e-10
7.04459e-10
5.75265e-10
4.57399e-10
3.52396e-10
2.61435e-10
1.85226e-10
1.23919e-10
7.70276e-11
4.3415e-11
2.13269e-11
8.50452e-12
2.3731e-12
3.0918e-13
1.80467e-15
2.34675e-15
4.01048e-13
3.06091e-12
1.08775e-11
2.69897e-11
5.42757e-11
9.5024e-11
1.50754e-10
2.22158e-10
3.0915e-10
4.10962e-10
5.26291e-10
6.53442e-10
7.90469e-10
9.35298e-10
1.08582e-09
1.23998e-09
1.39581e-09
1.5515e-09
1.70538e-09
1.85597e-09
2.00195e-09
2.14219e-09
2.2757e-09
2.40167e-09
2.51941e-09
2.62835e-09
2.72805e-09
2.81814e-09
2.89836e-09
2.96848e-09
3.02838e-09
3.078e-09
3.11725e-09
3.14613e-09
3.16463e-09
3.17276e-09
3.17057e-09
3.15809e-09
3.13539e-09
3.10254e-09
3.05964e-09
3.00679e-09
2.94414e-09
2.87184e-09
2.7901e-09
2.69918e-09
2.59937e-09
2.49105e-09
2.37466e-09
2.25079e-09
2.12009e-09
1.98335e-09
1.84148e-09
1.69552e-09
1.5467e-09
1.39635e-09
1.24601e-09
1.0973e-09
9.52011e-10
8.11972e-10
6.79063e-10
5.5513e-10
4.41883e-10
3.40824e-10
2.5313e-10
1.79534e-10
1.2023e-10
7.48027e-11
4.21941e-11
2.07404e-11
8.27464e-12
2.30967e-12
3.00961e-13
1.75676e-15
2.44458e-15
4.17743e-13
3.18769e-12
1.13243e-11
2.80847e-11
5.6439e-11
9.87224e-11
1.56443e-10
2.30225e-10
3.19855e-10
4.24403e-10
5.42375e-10
6.71874e-10
8.10763e-10
9.56794e-10
1.10771e-09
1.26133e-09
1.41562e-09
1.56871e-09
1.71893e-09
1.86481e-09
2.00508e-09
2.13868e-09
2.26472e-09
2.38248e-09
2.4914e-09
2.59104e-09
2.68107e-09
2.7613e-09
2.83154e-09
2.89179e-09
2.94205e-09
2.98227e-09
3.0126e-09
3.03313e-09
3.04392e-09
3.0451e-09
3.03677e-09
3.01906e-09
2.9921e-09
2.956e-09
2.9109e-09
2.85692e-09
2.79421e-09
2.72293e-09
2.64328e-09
2.55546e-09
2.45973e-09
2.35642e-09
2.24594e-09
2.12874e-09
2.00539e-09
1.87656e-09
1.74304e-09
1.60576e-09
1.4658e-09
1.32437e-09
1.18285e-09
1.04274e-09
9.05675e-10
7.73373e-10
6.47599e-10
5.30102e-10
4.22532e-10
3.26344e-10
2.42703e-10
1.72364e-10
1.15572e-10
7.19864e-11
4.06459e-11
1.99959e-11
7.98262e-12
2.22909e-12
2.90525e-13
1.69595e-15
2.55171e-15
4.36032e-13
3.32674e-12
1.1815e-11
2.92887e-11
5.88194e-11
1.02791e-10
1.62694e-10
2.39063e-10
3.31535e-10
4.38983e-10
5.59686e-10
6.91514e-10
8.3211e-10
9.79034e-10
1.12987e-09
1.28231e-09
1.43424e-09
1.58376e-09
1.72921e-09
1.86914e-09
2.00237e-09
2.12792e-09
2.24503e-09
2.35309e-09
2.45168e-09
2.54052e-09
2.61945e-09
2.68837e-09
2.74737e-09
2.79651e-09
2.83583e-09
2.86568e-09
2.88618e-09
2.8975e-09
2.89987e-09
2.89349e-09
2.87856e-09
2.85528e-09
2.82383e-09
2.78438e-09
2.73709e-09
2.68211e-09
2.61961e-09
2.54972e-09
2.47263e-09
2.38851e-09
2.2976e-09
2.20015e-09
2.09646e-09
1.98693e-09
1.872e-09
1.75223e-09
1.6283e-09
1.50098e-09
1.37122e-09
1.24006e-09
1.10873e-09
9.78571e-10
8.51057e-10
7.27764e-10
6.10326e-10
5.00377e-10
3.99487e-10
3.09054e-10
2.30222e-10
1.63762e-10
1.09972e-10
6.85945e-11
3.8779e-11
1.90974e-11
7.63011e-12
2.13184e-12
2.77933e-13
1.6226e-15
2.66931e-15
4.56114e-13
3.47963e-12
1.23555e-11
3.06164e-11
6.14461e-11
1.07279e-10
1.69577e-10
2.48765e-10
3.44297e-10
4.5481e-10
5.78318e-10
7.12421e-10
8.54519e-10
1.00196e-09
1.15215e-09
1.30267e-09
1.45133e-09
1.59623e-09
1.7357e-09
1.86838e-09
1.99318e-09
2.10926e-09
2.21594e-09
2.31281e-09
2.39962e-09
2.47626e-09
2.54269e-09
2.59911e-09
2.64565e-09
2.68245e-09
2.71009e-09
2.72868e-09
2.73858e-09
2.74009e-09
2.73353e-09
2.71921e-09
2.69742e-09
2.6684e-09
2.63241e-09
2.58966e-09
2.54033e-09
2.48461e-09
2.42264e-09
2.35458e-09
2.28057e-09
2.20076e-09
2.11533e-09
2.02445e-09
1.92838e-09
1.8274e-09
1.72185e-09
1.61217e-09
1.4989e-09
1.38268e-09
1.26427e-09
1.14458e-09
1.02463e-09
9.05617e-10
7.88832e-10
6.75687e-10
5.67668e-10
4.6628e-10
3.72988e-10
2.89125e-10
2.15804e-10
1.53805e-10