/*--------------------------------*- C++ -*----------------------------------*\
  =========                 |
  \\      /  F ield         | OpenFOAM: The Open Source CFD Toolbox
   \\    /   O peration     | Website:  https://openfoam.org
    \\  /    A nd           | Version:  12
     \\/     M anipulation  |
\*---------------------------------------------------------------------------*/
FoamFile
{
    format      ascii;
    class       surfaceScalarField;
    location    "7";
    object      phi;
}
// * * * * * * * * * * * * * * * * * * * * * * * * * * * * * * * * * * * * * //

dimensions      [0 3 -1 0 0 0 0];

internalField   nonuniform List<scalar> 
11100
(
-3.1633e-11
3.16563e-11
-7.98433e-11
4.82127e-11
-1.15405e-10
3.55609e-11
-1.20968e-10
5.56382e-12
-8.69741e-11
-3.39952e-11
-8.49418e-12
-7.84796e-11
1.16136e-10
-1.24631e-10
2.86421e-10
-1.70286e-10
5.00407e-10
-2.13987e-10
7.5518e-10
-2.54774e-10
1.0472e-09
-2.92021e-10
1.37253e-09
-3.25334e-10
1.72701e-09
-3.54476e-10
2.10633e-09
-3.79325e-10
2.50617e-09
-3.99839e-10
2.9222e-09
-4.16033e-10
3.35017e-09
-4.27967e-10
3.7859e-09
-4.35737e-10
4.22537e-09
-4.39463e-10
4.66465e-09
-4.39287e-10
5.10002e-09
-4.35368e-10
5.5279e-09
-4.27881e-10
5.94491e-09
-4.1701e-10
6.34786e-09
-4.02953e-10
6.73378e-09
-3.85911e-10
7.09987e-09
-3.66098e-10
7.4436e-09
-3.43728e-10
7.76263e-09
-3.19023e-10
8.05484e-09
-2.92206e-10
8.31834e-09
-2.63505e-10
8.55149e-09
-2.33145e-10
8.75285e-09
-2.01357e-10
8.92122e-09
-1.68366e-10
9.05562e-09
-1.34401e-10
9.15531e-09
-9.96872e-11
9.21976e-09
-6.44481e-11
9.24867e-09
-2.89052e-11
9.24195e-09
6.72262e-12
9.19973e-09
4.22195e-11
9.12236e-09
7.73736e-11
9.01039e-09
1.11975e-10
8.86457e-09
1.45816e-10
8.68588e-09
1.78694e-10
8.47547e-09
2.1041e-10
8.23471e-09
2.40767e-10
7.96514e-09
2.6957e-10
7.66852e-09
2.96628e-10
7.34677e-09
3.21753e-10
7.00201e-09
3.44759e-10
6.63655e-09
3.65463e-10
6.25287e-09
3.83683e-10
5.85363e-09
3.99242e-10
5.44167e-09
4.11963e-10
5.02e-09
4.21674e-10
4.5918e-09
4.28205e-10
4.16041e-09
4.31393e-10
3.72933e-09
4.31078e-10
3.30223e-09
4.27109e-10
2.88289e-09
4.19343e-10
2.47524e-09
4.07653e-10
2.08331e-09
3.9193e-10
1.71122e-09
3.72091e-10
1.36313e-09
3.4809e-10
1.0432e-09
3.19932e-10
7.55506e-10
2.87698e-10
5.03932e-10
2.51576e-10
2.92023e-10
2.1191e-10
1.22757e-10
1.69268e-10
-1.80174e-12
1.24559e-10
-8.10027e-11
7.92026e-11
-1.16269e-10
3.52672e-11
-1.12299e-10
-3.96966e-12
-7.82597e-11
-3.40386e-11
-3.11987e-11
-4.70607e-11
-3.11986e-11
-1.58577e-11
4.75148e-11
-1.5919e-11
4.82759e-11
3.60555e-11
-1.64138e-11
1.64296e-10
-1.22676e-10
3.84481e-10
-2.54182e-10
7.05278e-10
-3.99277e-10
1.13017e-09
-5.49526e-10
1.65869e-09
-6.988e-10
2.28737e-09
-8.42675e-10
3.01057e-09
-9.77975e-10
3.821e-09
-1.10245e-09
4.7102e-09
-1.21453e-09
5.66888e-09
-1.31316e-09
6.68722e-09
-1.39767e-09
7.75505e-09
-1.46767e-09
8.86204e-09
-1.52302e-09
9.99784e-09
-1.56377e-09
1.11522e-08
-1.59009e-09
1.2315e-08
-1.60227e-09
1.34764e-08
-1.60073e-09
1.4627e-08
-1.58594e-09
1.57576e-08
-1.55844e-09
1.68594e-08
-1.51885e-09
1.79243e-08
-1.4678e-09
1.89443e-08
-1.40599e-09
1.99124e-08
-1.33415e-09
2.08217e-08
-1.25303e-09
2.16661e-08
-1.16341e-09
2.24399e-08
-1.06607e-09
2.31383e-08
-9.6183e-10
2.37566e-08
-8.51494e-10
2.42911e-08
-7.35888e-10
2.47386e-08
-6.15836e-10
2.50964e-08
-4.92161e-10
2.53624e-08
-3.65686e-10
2.55352e-08
-2.37229e-10
2.56139e-08
-1.076e-10
2.55982e-08
2.23959e-11
2.54884e-08
1.51965e-10
2.52855e-08
2.80322e-10
2.49908e-08
4.06694e-10
2.46063e-08
5.30317e-10
2.41345e-08
6.50441e-10
2.35786e-08
7.66327e-10
2.29421e-08
8.77248e-10
2.22292e-08
9.8249e-10
2.14445e-08
1.08135e-09
2.05931e-08
1.17315e-09
1.96806e-08
1.25719e-09
1.87133e-08
1.33284e-09
1.76975e-08
1.39943e-09
1.66404e-08
1.45635e-09
1.55494e-08
1.50297e-09
1.44324e-08
1.5387e-09
1.32976e-08
1.56299e-09
1.21537e-08
1.5753e-09
1.10096e-08
1.57513e-09
9.87472e-09
1.56202e-09
8.75849e-09
1.53558e-09
7.67066e-09
1.49548e-09
6.62109e-09
1.44151e-09
5.61964e-09
1.37354e-09
4.67609e-09
1.29164e-09
3.79997e-09
1.19606e-09
3.00033e-09
1.08734e-09
2.28552e-09
9.66389e-10
1.66281e-09
8.3462e-10
1.13796e-09
6.94114e-10
7.14645e-10
5.47876e-10
3.93686e-10
4.00163e-10
1.72006e-10
2.56947e-10
4.15106e-11
1.26525e-10
-1.29524e-11
2.04249e-11
-1.49355e-11
-4.50774e-11
-4.61341e-11
2.54154e-11
2.21e-11
1.31855e-10
-5.81628e-11
3.43939e-10
-2.28497e-10
6.79947e-10
-4.58684e-10
1.15209e-09
-7.26324e-10
1.76718e-09
-1.01437e-09
2.52734e-09
-1.30969e-09
3.43074e-09
-1.6022e-09
4.47227e-09
-1.8842e-09
5.64416e-09
-2.14987e-09
6.93657e-09
-2.39486e-09
8.338e-09
-2.61597e-09
9.83575e-09
-2.81091e-09
1.14162e-08
-2.97811e-09
1.30651e-08
-3.1166e-09
1.47679e-08
-3.22585e-09
1.65099e-08
-3.30575e-09
1.82763e-08
-3.35648e-09
2.00526e-08
-3.37851e-09
2.18243e-08
-3.37252e-09
2.35778e-08
-3.33936e-09
2.52994e-08
-3.28007e-09
2.69763e-08
-3.19581e-09
2.85964e-08
-3.08785e-09
3.0148e-08
-2.95757e-09
3.16202e-08
-2.80642e-09
3.30031e-08
-2.63593e-09
3.42874e-08
-2.44766e-09
3.54645e-08
-2.24325e-09
3.65271e-08
-2.02434e-09
3.74682e-08
-1.79264e-09
3.82821e-08
-1.54983e-09
3.89639e-08
-1.29763e-09
3.95095e-08
-1.03776e-09
3.99158e-08
-7.71936e-10
4.01804e-08
-5.01877e-10
4.03021e-08
-2.29282e-10
4.02803e-08
4.41581e-11
4.01155e-08
3.1677e-10
3.98089e-08
5.86899e-10
3.93627e-08
8.52912e-10
3.87798e-08
1.1132e-09
3.80641e-08
1.36618e-09
3.72201e-08
1.61029e-09
3.62534e-08
1.84399e-09
3.51701e-08
2.0658e-09
3.39772e-08
2.27423e-09
3.26825e-08
2.46785e-09
3.12944e-08
2.64525e-09
2.98222e-08
2.80506e-09
2.82757e-08
2.94594e-09
2.66654e-08
3.06663e-09
2.50025e-08
3.16587e-09
2.32987e-08
3.2425e-09
2.15663e-08
3.2954e-09
1.98181e-08
3.32355e-09
1.80672e-08
3.32601e-09
1.63272e-08
3.30198e-09
1.4612e-08
3.25077e-09
1.29356e-08
3.17189e-09
1.1312e-08
3.06507e-09
9.75529e-09
2.9303e-09
8.27902e-09
2.76791e-09
6.89641e-09
2.57867e-09
5.61985e-09
2.36389e-09
4.46066e-09
2.12559e-09
3.42862e-09
1.86665e-09
2.53161e-09
1.59112e-09
1.77498e-09
1.3045e-09
1.16098e-09
1.01417e-09
6.88002e-10
7.29921e-10
3.49902e-10
4.64626e-10
1.35209e-10
2.35118e-10
2.64895e-11
6.36423e-11
-1.96446e-11
7.22342e-11
-5.01337e-11
3.00563e-10
-2.8649e-10
6.95736e-10
-6.23671e-10
1.26609e-09
-1.02904e-09
2.01668e-09
-1.47691e-09
2.94903e-09
-1.94673e-09
4.06126e-09
-2.42192e-09
5.34826e-09
-2.8892e-09
6.80208e-09
-3.33802e-09
8.41228e-09
-3.76007e-09
1.01663e-08
-4.14891e-09
1.205e-08
-4.49964e-09
1.40477e-08
-4.8086e-09
1.61428e-08
-5.0732e-09
1.83179e-08
-5.29172e-09
2.05552e-08
-5.46315e-09
2.28366e-08
-5.58712e-09
2.51439e-08
-5.66379e-09
2.74591e-08
-5.69373e-09
2.97645e-08
-5.67791e-09
3.20428e-08
-5.61763e-09
3.42771e-08
-5.51446e-09
3.64516e-08
-5.37021e-09
3.85506e-08
-5.1869e-09
4.05598e-08
-4.96672e-09
4.24653e-08
-4.712e-09
4.42546e-08
-4.42521e-09
4.59159e-08
-4.10892e-09
4.74384e-08
-3.76578e-09
4.88126e-08
-3.39851e-09
5.00298e-08
-3.00988e-09
5.10827e-08
-2.6027e-09
5.19649e-08
-2.17981e-09
5.26712e-08
-1.74406e-09
5.31976e-08
-1.2983e-09
5.35411e-08
-8.45388e-10
5.36999e-08
-3.88159e-10
5.36735e-08
7.05648e-11
5.34623e-08
5.27986e-10
5.30679e-08
9.81338e-10
5.24929e-08
1.42789e-09
5.17412e-08
1.86494e-09
5.08175e-08
2.28985e-09
4.97278e-08
2.70001e-09
4.84789e-08
3.09285e-09
4.70788e-08
3.46587e-09
4.55365e-08
3.81661e-09
4.38616e-08
4.1427e-09
4.20651e-08
4.44179e-09
4.01585e-08
4.71163e-09
3.81544e-08
4.95004e-09
3.60661e-08
5.15494e-09
3.39076e-08
5.32431e-09
3.16938e-08
5.45628e-09
2.94401e-08
5.54911e-09
2.71625e-08
5.60119e-09
2.48774e-08
5.6111e-09
2.26017e-08
5.57764e-09
2.03527e-08
5.49986e-09
1.81474e-08
5.37712e-09
1.60034e-08
5.20915e-09
1.39375e-08
4.99613e-09
1.19666e-08
4.73879e-09
1.01068e-08
4.43853e-09
8.37309e-09
4.09756e-09
6.77956e-09
3.71911e-09
5.33862e-09
3.3076e-09
4.06074e-09
2.869e-09
2.95414e-09
2.4111e-09
2.02434e-09
1.94397e-09
1.27382e-09
1.48044e-09
7.0179e-10
1.03665e-09
3.04094e-10
6.32813e-10
7.33902e-11
2.94346e-10
5.37457e-11
1.17432e-10
-1.67566e-10
4.67059e-10
-6.36115e-10
1.04727e-09
-1.20388e-09
1.85622e-09
-1.83799e-09
2.89071e-09
-2.5114e-09
4.14558e-09
-3.20159e-09
5.61342e-09
-3.88977e-09
7.28458e-09
-4.56036e-09
9.14719e-09
-5.20062e-09
1.11873e-08
-5.80023e-09
1.33894e-08
-6.35094e-09
1.5736e-08
-6.84632e-09
1.82089e-08
-7.28146e-09
2.07885e-08
-7.65279e-09
2.34546e-08
-7.95785e-09
2.61866e-08
-8.19516e-09
2.89636e-08
-8.36411e-09
3.17646e-08
-8.46479e-09
3.45688e-08
-8.49794e-09
3.73558e-08
-8.46485e-09
4.01054e-08
-8.36728e-09
4.27984e-08
-8.2074e-09
4.54159e-08
-7.98777e-09
4.79403e-08
-7.71123e-09
5.03544e-08
-7.3809e-09
5.26426e-08
-7.00012e-09
5.47898e-08
-6.57244e-09
5.67824e-08
-6.10156e-09
5.8608e-08
-5.59132e-09
6.02551e-08
-5.04567e-09
6.17139e-08
-4.46864e-09
6.29755e-08
-3.86433e-09
6.40326e-08
-3.23688e-09
6.4879e-08
-2.59046e-09
6.55099e-08
-1.92926e-09
6.5922e-08
-1.25745e-09
6.61131e-08
-5.79222e-10
6.60823e-08
1.01289e-10
6.58304e-08
7.79964e-10
6.5359e-08
1.45273e-09
6.46713e-08
2.11556e-09
6.37718e-08
2.76448e-09
6.2666e-08
3.39559e-09
6.1361e-08
4.00505e-09
5.98647e-08
4.58909e-09
5.81866e-08
5.14403e-09
5.63369e-08
5.66627e-09
5.43273e-08
6.1523e-09
5.21704e-08
6.59873e-09
4.98798e-08
7.00227e-09
4.747e-08
7.35975e-09
4.49568e-08
7.66817e-09
4.23565e-08
7.92465e-09
3.96863e-08
8.12651e-09
3.69641e-08
8.27129e-09
3.42085e-08
8.35676e-09
3.14387e-08
8.38095e-09
2.8674e-08
8.34224e-09
2.59345e-08
8.23939e-09
2.324e-08
8.07161e-09
2.06105e-08
7.83864e-09
1.80658e-08
7.54085e-09
1.56252e-08
7.17936e-09
1.33076e-08
6.75617e-09
1.11308e-08
6.27435e-09
9.1117e-09
5.7382e-09
7.26578e-09
5.15353e-09
5.60691e-09
4.52786e-09
4.14719e-09
3.87083e-09
2.89668e-09
3.19448e-09
1.86342e-09
2.51371e-09
1.05339e-09
1.84668e-09
4.70813e-10
1.21539e-09
1.18714e-10
6.46446e-10
1.7246e-10
1.59318e-10
-3.26883e-10
6.24103e-10
-1.1009e-09
1.38278e-09
-1.96256e-09
2.42446e-09
-2.87968e-09
3.73794e-09
-3.82488e-09
5.31106e-09
-4.77471e-09
7.13039e-09
-5.70909e-09
9.18098e-09
-6.61095e-09
1.14464e-08
-7.466e-09
1.39085e-08
-8.26241e-09
1.65482e-08
-8.99058e-09
1.93447e-08
-9.64285e-09
2.22766e-08
-1.02133e-08
2.53213e-08
-1.06975e-08
2.8456e-08
-1.10926e-08
3.16573e-08
-1.13965e-08
3.49018e-08
-1.16085e-08
3.81658e-08
-1.17289e-08
4.14263e-08
-1.17584e-08
4.46603e-08
-1.16988e-08
4.78455e-08
-1.15525e-08
5.09603e-08
-1.13222e-08
5.39839e-08
-1.10114e-08
5.68965e-08
-1.06238e-08
5.96792e-08
-1.01636e-08
6.23142e-08
-9.63516e-09
6.47851e-08
-9.04333e-09
6.70766e-08
-8.39303e-09
6.91747e-08
-7.68942e-09
7.10669e-08
-6.93782e-09
7.27419e-08
-6.14365e-09
7.419e-08
-5.31245e-09
7.54029e-08
-4.44981e-09
7.63738e-08
-3.56139e-09
7.70974e-08
-2.65283e-09
7.75698e-08
-1.72983e-09
7.77886e-08
-7.98034e-10
7.7753e-08
1.36923e-10
7.74635e-08
1.06945e-09
7.69222e-08
1.994e-09
7.61327e-08
2.90512e-09
7.50998e-08
3.79739e-09
7.38298e-08
4.66551e-09
7.23306e-08
5.50426e-09
7.06112e-08
6.30853e-09
6.86819e-08
7.0733e-09
6.65545e-08
7.79371e-09
6.42418e-08
8.46501e-09
6.17579e-08
9.0826e-09
5.91181e-08
9.64206e-09
5.63387e-08
1.01391e-08
5.34372e-08
1.05698e-08
5.04317e-08
1.09301e-08
4.73415e-08
1.12167e-08
4.41866e-08
1.14262e-08
4.09878e-08
1.15556e-08
3.77663e-08
1.16025e-08
3.45439e-08
1.15646e-08
3.13427e-08
1.14406e-08
2.81851e-08
1.12292e-08
2.50936e-08
1.09302e-08
2.20904e-08
1.05441e-08
1.91974e-08
1.00723e-08
1.64364e-08
9.51723e-09
1.38281e-08
8.88267e-09
1.13925e-08
8.17375e-09
9.14879e-09
7.39726e-09
7.11473e-09
6.56192e-09
5.30697e-09
5.67859e-09
3.74081e-09
4.76064e-09
2.43034e-09
3.82417e-09
1.38861e-09
2.88841e-09
6.27982e-10
1.97602e-09
1.60724e-10
1.1137e-09
3.33184e-10
1.97999e-10
-5.24882e-10
7.71052e-10
-1.67395e-09
1.69966e-09
-2.89116e-09
2.9652e-09
-4.14521e-09
4.54917e-09
-5.40885e-09
6.43272e-09
-6.65826e-09
8.59628e-09
-7.87266e-09
1.10194e-08
-9.03408e-09
1.36806e-08
-1.01272e-08
1.65575e-08
-1.11393e-08
1.96266e-08
-1.20597e-08
2.28636e-08
-1.28799e-08
2.62436e-08
-1.35933e-08
2.9741e-08
-1.4195e-08
3.33301e-08
-1.46816e-08
3.69846e-08
-1.5051e-08
4.06786e-08
-1.53025e-08
4.43861e-08
-1.54364e-08
4.80817e-08
-1.5454e-08
5.17403e-08
-1.53574e-08
5.53375e-08
-1.51497e-08
5.88499e-08
-1.48346e-08
6.22547e-08
-1.44162e-08
6.55304e-08
-1.38995e-08
6.86565e-08
-1.32897e-08
7.16137e-08
-1.25924e-08
7.43843e-08
-1.18139e-08
7.69516e-08
-1.09603e-08
7.93005e-08
-1.00384e-08
8.14175e-08
-9.05476e-09
8.32903e-08
-8.01649e-09
8.49085e-08
-6.93065e-09
8.62631e-08
-5.8044e-09
8.73467e-08
-4.64499e-09
8.81536e-08
-3.45969e-09
8.86795e-08
-2.25578e-09
8.8922e-08
-1.04054e-09
8.88802e-08
1.78796e-10
8.85546e-08
1.39503e-09
8.79476e-08
2.60104e-09
8.70629e-08
3.78978e-09
8.5906e-08
4.95431e-09
8.44837e-08
6.08778e-09
8.28045e-08
7.18349e-09
8.08782e-08
8.23485e-09
7.87161e-08
9.23543e-09
7.63308e-08
1.0179e-08
7.37364e-08
1.10594e-08
7.09483e-08
1.18707e-08
6.7983e-08
1.26074e-08
6.48582e-08
1.32639e-08
6.15929e-08
1.38351e-08
5.82069e-08
1.43161e-08
5.47211e-08
1.47024e-08
5.11574e-08
1.49899e-08
4.75383e-08
1.51747e-08
4.38871e-08
1.52537e-08
4.02275e-08
1.52242e-08
3.6584e-08
1.50841e-08
3.2981e-08
1.48321e-08
2.94434e-08
1.44678e-08
2.5996e-08
1.39915e-08
2.26635e-08
1.34048e-08
1.94704e-08
1.27103e-08
1.64408e-08
1.19123e-08
1.35982e-08
1.10163e-08
1.09656e-08
1.00299e-08
8.56508e-09
8.96243e-09
6.41818e-09
7.82549e-09
4.54566e-09
6.63316e-09
2.9677e-09
5.40214e-09
1.70408e-09
4.15203e-09
7.74588e-10
2.90551e-09
1.99426e-10
1.68887e-09
5.3261e-10
2.34203e-10
-7.59085e-10
9.09801e-10
-2.34955e-09
2.00081e-09
-3.98217e-09
3.48194e-09
-5.62635e-09
5.32815e-09
-7.25506e-09
7.51427e-09
-8.84438e-09
1.00148e-08
-1.03732e-08
1.28037e-08
-1.1823e-08
1.58545e-08
-1.3178e-08
1.91399e-08
-1.44247e-08
2.26322e-08
-1.55519e-08
2.63031e-08
-1.65508e-08
3.0124e-08
-1.74142e-08
3.40661e-08
-1.81371e-08
3.81005e-08
-1.87159e-08
4.21982e-08
-1.91487e-08
4.63305e-08
-1.94348e-08
5.04691e-08
-1.9575e-08
5.45863e-08
-1.95712e-08
5.8655e-08
-1.94261e-08
6.26489e-08
-1.91436e-08
6.65426e-08
-1.87283e-08
7.03118e-08
-1.81855e-08
7.39335e-08
-1.75212e-08
7.73858e-08
-1.67419e-08
8.06481e-08
-1.58548e-08
8.37014e-08
-1.48672e-08
8.65281e-08
-1.37871e-08
8.91122e-08
-1.26224e-08
9.14392e-08
-1.13817e-08
9.34963e-08
-1.00736e-08
9.52723e-08
-8.70663e-09
9.67577e-08
-7.28981e-09
9.79447e-08
-5.83204e-09
9.88273e-08
-4.3423e-09
9.94012e-08
-2.8296e-09
9.96635e-08
-1.30291e-09
9.96135e-08
2.28804e-10
9.92519e-08
1.75666e-09
9.85811e-08
3.27185e-09
9.76052e-08
4.76566e-09
9.633e-08
6.2295e-09
9.47628e-08
7.65492e-09
9.29127e-08
9.03361e-09
9.07901e-08
1.03574e-08
8.84072e-08
1.16184e-08
8.57773e-08
1.28088e-08
8.29156e-08
1.39211e-08
7.98382e-08
1.4948e-08
7.65631e-08
1.58826e-08
7.3109e-08
1.6718e-08
6.94962e-08
1.74479e-08
6.5746e-08
1.80663e-08
6.18809e-08
1.85676e-08
5.79241e-08
1.89466e-08
5.39e-08
1.91988e-08
4.98336e-08
1.93201e-08
4.57507e-08
1.93071e-08
4.16777e-08
1.91571e-08
3.76415e-08
1.88684e-08
3.36691e-08
1.84402e-08
2.9788e-08
1.78725e-08
2.60259e-08
1.71669e-08
2.24102e-08
1.6326e-08
1.89684e-08
1.53541e-08
1.57278e-08
1.4257e-08
1.27153e-08
1.30424e-08
9.95773e-09
1.172e-08
7.48146e-09
1.03018e-08
5.31266e-09
8.80196e-09
3.47738e-09
7.23742e-09
2.00171e-09
5.6277e-09
9.12038e-10
3.99519e-09
2.35408e-10
2.3655e-09
7.68017e-10
2.68795e-10
-1.02788e-09
1.04304e-09
-3.12379e-09
2.29112e-09
-5.23026e-09
3.98183e-09
-7.31705e-09
6.08409e-09
-9.35731e-09
8.56679e-09
-1.13271e-08
1.13987e-08
-1.32051e-08
1.45483e-08
-1.49726e-08
1.79838e-08
-1.66135e-08
2.16733e-08
-1.81141e-08
2.55845e-08
-1.94631e-08
2.96849e-08
-2.06512e-08
3.39421e-08
-2.16715e-08
3.83238e-08
-2.25188e-08
4.27978e-08
-2.31899e-08
4.73322e-08
-2.36831e-08
5.18957e-08
-2.39983e-08
5.64574e-08
-2.41368e-08
6.09874e-08
-2.41012e-08
6.54565e-08
-2.38952e-08
6.98365e-08
-2.35236e-08
7.41004e-08
-2.29922e-08
7.82224e-08
-2.23075e-08
8.2178e-08
-2.14767e-08
8.59441e-08
-2.0508e-08
8.9499e-08
-1.94097e-08
9.28226e-08
-1.81909e-08
9.58966e-08
-1.6861e-08
9.8704e-08
-1.54299e-08
1.0123e-07
-1.39076e-08
1.03461e-07
-1.23043e-08
1.05385e-07
-1.06307e-08
1.06992e-07
-8.89736e-09
1.08275e-07
-7.11497e-09
1.09227e-07
-5.29433e-09
1.09844e-07
-3.44623e-09
1.10122e-07
-1.58146e-09
1.10062e-07
2.89245e-10
1.09663e-07
2.15522e-09
1.08929e-07
4.00591e-09
1.07864e-07
5.83084e-09
1.06474e-07
7.61971e-09
1.04766e-07
9.36237e-09
1.02751e-07
1.10488e-08
1.00439e-07
1.26694e-08
9.78433e-08
1.42143e-08
9.49776e-08
1.56745e-08
9.18579e-08
1.70408e-08
8.85015e-08
1.83045e-08
8.4927e-08
1.94571e-08
8.11545e-08
2.04905e-08
7.72052e-08
2.13971e-08
7.31019e-08
2.21696e-08
6.88682e-08
2.28013e-08
6.4529e-08
2.32858e-08
6.01103e-08
2.36176e-08
5.56388e-08
2.37916e-08
5.11421e-08
2.38037e-08
4.66488e-08
2.36504e-08
4.2188e-08
2.33293e-08
3.77892e-08
2.2839e-08
3.34825e-08
2.21792e-08
2.92986e-08
2.13509e-08
2.5268e-08
2.03565e-08
2.14219e-08
1.92002e-08
1.77912e-08
1.78876e-08
1.44073e-08
1.64263e-08
1.13013e-08
1.4826e-08
8.50451e-09
1.30985e-08
6.04847e-09
1.1258e-08
3.96475e-09
9.32113e-09
2.2853e-09
7.30716e-09
1.04248e-09
5.238e-09
2.69383e-10
3.1386e-09
1.0374e-09
3.02597e-10
-1.33048e-09
1.17348e-09
-3.99468e-09
2.57582e-09
-6.63259e-09
4.4728e-09
-9.21404e-09
6.82765e-09
-1.17122e-08
9.60353e-09
-1.4103e-08
1.27636e-08
-1.63651e-08
1.62709e-08
-1.84799e-08
2.00884e-08
-2.04311e-08
2.41793e-08
-2.2205e-08
2.85067e-08
-2.37904e-08
3.30339e-08
-2.51784e-08
3.77244e-08
-2.63621e-08
4.25423e-08
-2.73368e-08
4.74521e-08
-2.80997e-08
5.24188e-08
-2.86498e-08
5.74083e-08
-2.89878e-08
6.23873e-08
-2.91158e-08
6.73234e-08
-2.90373e-08
7.21856e-08
-2.87574e-08
7.69438e-08
-2.82818e-08
8.15694e-08
-2.76178e-08
8.6035e-08
-2.67731e-08
9.0315e-08
-2.57567e-08
9.43849e-08
-2.45779e-08
9.82224e-08
-2.32471e-08
1.01806e-07
-2.17748e-08
1.05117e-07
-2.01722e-08
1.08139e-07
-1.84509e-08
1.10854e-07
-1.66228e-08
1.13249e-07
-1.46999e-08
1.15313e-07
-1.26947e-08
1.17036e-07
-1.06196e-08
1.18408e-07
-8.48718e-09
1.19424e-07
-6.31011e-09
1.20078e-07
-4.10103e-09
1.2037e-07
-1.8726e-09
1.20296e-07
3.62607e-10
1.19859e-07
2.59209e-09
1.19062e-07
4.80346e-09
1.17908e-07
6.98446e-09
1.16405e-07
9.12301e-09
1.1456e-07
1.12072e-08
1.12384e-07
1.32253e-08
1.09887e-07
1.51659e-08
1.07084e-07
1.70177e-08
1.03988e-07
1.87698e-08
1.00618e-07
2.04116e-08
9.69894e-08
2.19327e-08
9.31233e-08
2.33232e-08
8.90402e-08
2.45736e-08
8.47625e-08
2.56748e-08
8.03141e-08
2.66181e-08
7.57199e-08
2.73955e-08
7.10063e-08
2.79995e-08
6.62006e-08
2.84232e-08
6.13315e-08
2.86608e-08
5.64283e-08
2.87068e-08
5.15218e-08
2.85569e-08
4.66431e-08
2.82079e-08
4.18246e-08
2.76576e-08
3.70989e-08
2.69048e-08
3.24996e-08
2.59501e-08
2.80608e-08
2.47954e-08
2.38169e-08
2.34441e-08
1.98031e-08
2.19015e-08
1.60546e-08
2.01748e-08
1.26073e-08
1.82733e-08
9.49737e-09
1.62085e-08
6.76127e-09
1.39941e-08
4.436e-09
1.16464e-08
2.55895e-09
9.1842e-09
1.16811e-09
6.62885e-09
3.02024e-10
4.00468e-09
1.33942e-09
3.36322e-10
-1.6668e-09
1.30355e-09
-4.9619e-09
2.85962e-09
-8.18866e-09
4.96221e-09
-1.13166e-08
7.56888e-09
-1.43188e-08
1.06371e-08
-1.71712e-08
1.41244e-08
-1.98525e-08
1.79885e-08
-2.23439e-08
2.2187e-08
-2.46296e-08
2.66781e-08
-2.66961e-08
3.14202e-08
-2.85326e-08
3.63724e-08
-3.01305e-08
4.1494e-08
-3.14837e-08
4.67454e-08
-3.25881e-08
5.20875e-08
-3.34418e-08
5.74825e-08
-3.40447e-08
6.28932e-08
-3.43985e-08
6.82839e-08
-3.45065e-08
7.362e-08
-3.43735e-08
7.88684e-08
-3.40057e-08
8.39972e-08
-3.34106e-08
8.89762e-08
-3.25968e-08
9.37769e-08
-3.15737e-08
9.83721e-08
-3.03519e-08
1.02737e-07
-2.89426e-08
1.06847e-07
-2.73576e-08
1.10682e-07
-2.56095e-08
1.14221e-07
-2.37113e-08
1.17447e-07
-2.16765e-08
1.20342e-07
-1.95187e-08
1.22895e-07
-1.72521e-08
1.25091e-07
-1.48909e-08
1.26921e-07
-1.24495e-08
1.28376e-07
-9.94247e-09
1.2945e-07
-7.3843e-09
1.30139e-07
-4.78959e-09
1.30439e-07
-2.17289e-09
1.3035e-07
4.51318e-10
1.29874e-07
3.06867e-09
1.29012e-07
5.6649e-09
1.27771e-07
8.22592e-09
1.26156e-07
1.07378e-08
1.24176e-07
1.31869e-08
1.21842e-07
1.55596e-08
1.19165e-07
1.78429e-08
1.16159e-07
2.00236e-08
1.1284e-07
2.20892e-08
1.09224e-07
2.40275e-08
1.0533e-07
2.58263e-08
1.01179e-07
2.74743e-08
9.67925e-08
2.89603e-08
9.21936e-08
3.02737e-08
8.74072e-08
3.14044e-08
8.24597e-08
3.2343e-08
7.73787e-08
3.30805e-08
7.2193e-08
3.36089e-08
6.6933e-08
3.39208e-08
6.16299e-08
3.40098e-08
5.63165e-08
3.38704e-08
5.10262e-08
3.34982e-08
4.57938e-08
3.28899e-08
4.0655e-08
3.20437e-08
3.56462e-08
3.0959e-08
3.08048e-08
2.96368e-08
2.6169e-08
2.80799e-08
2.17776e-08
2.62928e-08
1.76704e-08
2.4282e-08
1.38874e-08
2.20562e-08
1.04698e-08
1.96261e-08
7.45888e-09
1.7005e-08
4.89686e-09
1.42084e-08
2.82641e-09
1.12546e-08
1.29082e-09
8.16444e-09
3.33895e-10
4.9616e-09
1.67332e-09
3.70546e-10
-2.03734e-09
1.43521e-09
-6.02657e-09
3.14642e-09
-9.89986e-09
5.45612e-09
-1.36263e-08
8.31603e-09
-1.71787e-08
1.16779e-08
-2.0533e-08
1.54934e-08
-2.3668e-08
1.97147e-08
-2.65652e-08
2.42943e-08
-2.92092e-08
2.91851e-08
-3.1587e-08
3.43409e-08
-3.36884e-08
3.97161e-08
-3.55057e-08
4.52662e-08
-3.70338e-08
5.09475e-08
-3.82695e-08
5.67178e-08
-3.92121e-08
6.25358e-08
-3.98627e-08
6.83617e-08
-4.02244e-08
7.41573e-08
-4.03021e-08
7.98858e-08
-4.01019e-08
8.55119e-08
-3.96319e-08
9.10024e-08
-3.89011e-08
9.63253e-08
-3.79198e-08
1.01451e-07
-3.66994e-08
1.06351e-07
-3.52522e-08
1.11e-07
-3.35913e-08
1.15373e-07
-3.17306e-08
1.19448e-07
-2.96846e-08
1.23205e-07
-2.74681e-08
1.26625e-07
-2.50967e-08
1.29692e-07
-2.2586e-08
1.32393e-07
-1.99522e-08
1.34713e-07
-1.72114e-08
1.36643e-07
-1.438e-08
1.38176e-07
-1.14746e-08
1.39303e-07
-8.51164e-09
1.40021e-07
-5.50768e-09
1.40327e-07
-2.47918e-09
1.40221e-07
5.57447e-10
1.39704e-07
3.58592e-09
1.38779e-07
6.5901e-09
1.37451e-07
9.55403e-09
1.35727e-07
1.24619e-08
1.33615e-07
1.52983e-08
1.31127e-07
1.80478e-08
1.28274e-07
2.06954e-08
1.25072e-07
2.32265e-08
1.21534e-07
2.56265e-08
1.1768e-07
2.78816e-08
1.13528e-07
2.99781e-08
1.091e-07
3.19027e-08
1.04417e-07
3.36428e-08
9.95052e-08
3.5186e-08
9.43889e-08
3.65207e-08
8.9096e-08
3.76358e-08
8.36554e-08
3.85211e-08
7.80975e-08
3.91668e-08
7.2454e-08
3.95643e-08
6.67583e-08
3.97055e-08
6.10449e-08
3.95838e-08
5.53497e-08
3.91934e-08
4.971e-08
3.85297e-08
4.4164e-08
3.75896e-08
3.87515e-08
3.63715e-08
3.35131e-08
3.48752e-08
2.84906e-08
3.31024e-08
2.37267e-08
3.10566e-08
1.92654e-08
2.87434e-08
1.51512e-08
2.61704e-08
1.14299e-08
2.33475e-08
8.14776e-09
2.02871e-08
5.35208e-09
1.70041e-08
3.0907e-09
1.3516e-08
1.41214e-09
9.843e-09
3.65442e-10
6.0083e-09
2.03876e-09
4.05697e-10
-2.44304e-09
1.56992e-09
-7.1908e-09
3.43904e-09
-1.1769e-08
5.95883e-09
-1.61461e-08
9.07487e-09
-2.02948e-08
1.27328e-08
-2.41909e-08
1.68784e-08
-2.78136e-08
2.1458e-08
-3.11449e-08
2.64188e-08
-3.41699e-08
3.17084e-08
-3.68766e-08
3.72758e-08
-3.92558e-08
4.3071e-08
-4.13009e-08
4.90451e-08
-4.30079e-08
5.51508e-08
-4.43752e-08
6.13424e-08
-4.54036e-08
6.75756e-08
-4.60958e-08
7.38078e-08
-4.64567e-08
7.99983e-08
-4.64926e-08
8.61083e-08
-4.62119e-08
9.21008e-08
-4.56243e-08
9.79406e-08
-4.4741e-08
1.03595e-07
-4.35741e-08
1.09033e-07
-4.21371e-08
1.14225e-07
-4.04444e-08
1.19145e-07
-3.85112e-08
1.23767e-07
-3.63533e-08
1.2807e-07
-3.39874e-08
1.32033e-07
-3.14305e-08
1.35636e-07
-2.87001e-08
1.38864e-07
-2.5814e-08
1.41702e-07
-2.27902e-08
1.44138e-07
-1.96472e-08
1.46161e-07
-1.64033e-08
1.47764e-07
-1.3077e-08
1.48939e-07
-9.68686e-09
1.49682e-07
-6.25131e-09
1.49992e-07
-2.78882e-09
1.49867e-07
6.82296e-10
1.49309e-07
4.14383e-09
1.48322e-07
7.57774e-09
1.4691e-07
1.09662e-08
1.4508e-07
1.42916e-08
1.42842e-07
1.75365e-08
1.40206e-07
2.06837e-08
1.37185e-07
2.37166e-08
1.33793e-07
2.66185e-08
1.30046e-07
2.93732e-08
1.25963e-07
3.1965e-08
1.21562e-07
3.43784e-08
1.16867e-07
3.65984e-08
1.11899e-07
3.86107e-08
1.06684e-07
4.04011e-08
1.01248e-07
4.19564e-08
9.562e-08
4.32637e-08
8.98302e-08
4.4311e-08
8.39099e-08
4.50871e-08
7.78927e-08
4.55815e-08
7.18136e-08
4.57847e-08
6.57091e-08
4.56883e-08
5.96173e-08
4.52851e-08
5.3578e-08
4.4569e-08
4.76322e-08
4.35354e-08
4.18227e-08
4.2181e-08
3.61933e-08
4.05045e-08
3.07896e-08
3.85061e-08
2.56582e-08
3.6188e-08
2.08471e-08
3.35545e-08
1.64054e-08
3.0612e-08
1.23835e-08
2.73694e-08
8.83261e-09
2.3838e-08
5.80509e-09
2.00316e-08
3.35402e-09
1.59671e-08
1.53321e-09
1.16638e-08
3.96987e-10
7.14452e-09
2.43575e-09
4.42051e-10
-2.88509e-09
1.70857e-09
-8.45731e-09
3.7391e-09
-1.37995e-08
6.47266e-09
-1.88797e-08
9.84816e-09
-2.36703e-08
1.38047e-08
-2.81475e-08
1.8282e-08
-3.22908e-08
2.32203e-08
-3.60832e-08
2.8561e-08
-3.95106e-08
3.42467e-08
-4.25623e-08
4.02212e-08
-4.52303e-08
4.64301e-08
-4.75098e-08
5.28205e-08
-4.93983e-08
5.93413e-08
-5.0896e-08
6.59432e-08
-5.20056e-08
7.25792e-08
-5.27318e-08
7.9204e-08
-5.30815e-08
8.57747e-08
-5.30633e-08
9.22505e-08
-5.26877e-08
9.85927e-08
-5.19665e-08
1.04765e-07
-5.09132e-08
1.10733e-07
-4.95422e-08
1.16465e-07
-4.78693e-08
1.21932e-07
-4.5911e-08
1.27106e-07
-4.36848e-08
1.31961e-07
-4.12089e-08
1.36476e-07
-3.85019e-08
1.40628e-07
-3.55832e-08
1.44401e-07
-3.24725e-08
1.47776e-07
-2.91896e-08
1.50741e-07
-2.57547e-08
1.53282e-07
-2.21883e-08
1.55389e-07
-1.85109e-08
1.57055e-07
-1.47428e-08
1.58273e-07
-1.09047e-08
1.59039e-07
-7.01698e-09
1.5935e-07
-3.10003e-09
1.59206e-07
8.25903e-10
1.58609e-07
4.74071e-09
1.57563e-07
8.62447e-09
1.56071e-07
1.24575e-08
1.54143e-07
1.62202e-08
1.51786e-07
1.98935e-08
1.49011e-07
2.34583e-08
1.45832e-07
2.6896e-08
1.42262e-07
3.01882e-08
1.38318e-07
3.33168e-08
1.34019e-07
3.62643e-08
1.29384e-07
3.90134e-08
1.24435e-07
4.15473e-08
1.19196e-07
4.38496e-08
1.13693e-07
4.59046e-08
1.07952e-07
4.76969e-08
1.02004e-07
4.9212e-08
9.58789e-08
5.0436e-08
8.96102e-08
5.13558e-08
8.32325e-08
5.19591e-08
7.67826e-08
5.22346e-08
7.0299e-08
5.2172e-08
6.38218e-08
5.17623e-08
5.73933e-08
5.09976e-08
5.10572e-08
4.98714e-08
4.48592e-08
4.8379e-08
3.88466e-08
4.65172e-08
3.30684e-08
4.42844e-08
2.75751e-08
4.16813e-08
2.24189e-08
3.87107e-08
1.76535e-08
3.53775e-08
1.33338e-08
3.16891e-08
9.51614e-09
2.76556e-08
6.25799e-09
2.32898e-08
3.61776e-09
1.86073e-08
1.65472e-09
1.36268e-08
4.2874e-10
8.37051e-09
2.86449e-09
4.79723e-10
-3.36481e-09
1.85141e-09
-9.829e-09
4.04689e-09
-1.5995e-08
6.99764e-09
-2.18304e-08
1.06353e-08
-2.73079e-08
1.48919e-08
-3.24041e-08
1.97006e-08
-3.70995e-08
2.49954e-08
-4.1378e-08
3.07119e-08
-4.52271e-08
3.67871e-08
-4.86376e-08
4.31601e-08
-5.16034e-08
4.97718e-08
-5.41215e-08
5.65653e-08
-5.61917e-08
6.34857e-08
-5.78165e-08
7.04809e-08
-5.90007e-08
7.75007e-08
-5.97517e-08
8.44978e-08
-6.00785e-08
9.1427e-08
-5.99925e-08
9.82458e-08
-5.95065e-08
1.04914e-07
-5.86351e-08
1.11395e-07
-5.7394e-08
1.17653e-07
-5.58003e-08
1.23656e-07
-5.38721e-08
1.29374e-07
-5.16286e-08
1.34778e-07
-4.90895e-08
1.39845e-07
-4.62755e-08
1.4455e-07
-4.32075e-08
1.48874e-07
-3.99071e-08
1.52798e-07
-3.63962e-08
1.56305e-07
-3.2697e-08
1.59382e-07
-2.88317e-08
1.62017e-07
-2.48229e-08
1.64199e-07
-2.0693e-08
1.65921e-07
-1.64645e-08
1.67176e-07
-1.216e-08
1.67961e-07
-7.80188e-09
1.68273e-07
-3.41234e-09
1.68113e-07
9.86429e-10
1.67481e-07
5.37248e-09
1.66381e-07
9.72403e-09
1.64819e-07
1.40195e-08
1.62802e-07
1.82376e-08
1.60338e-07
2.23573e-08
1.57439e-07
2.63577e-08
1.54116e-07
3.02183e-08
1.50386e-07
3.3919e-08
1.46263e-07
3.74397e-08
1.41766e-07
4.07611e-08
1.36915e-07
4.38639e-08
1.31733e-07
4.67294e-08
1.26244e-07
4.93393e-08
1.20472e-07
5.16759e-08
1.14447e-07
5.37219e-08
1.08199e-07
5.54607e-08
1.01758e-07
5.68764e-08
9.51603e-08
5.79539e-08
8.84407e-08
5.86787e-08
8.16376e-08
5.90376e-08
7.47914e-08
5.90182e-08
6.79443e-08
5.86093e-08
6.11408e-08
5.7801e-08
5.44274e-08
5.65849e-08
4.78525e-08
5.49539e-08
4.14669e-08
5.29028e-08
3.53229e-08
5.04284e-08
2.94751e-08
4.75291e-08
2.39799e-08
4.42059e-08
1.88953e-08
4.0462e-08
1.42813e-08
3.63032e-08
1.01991e-08
3.17378e-08
6.71147e-09
2.67774e-08
3.88246e-09
2.14363e-08
1.777e-09
1.57323e-08
4.60804e-10
9.6867e-09
3.32529e-09
5.18653e-10
-3.88346e-09
1.99805e-09
-1.13084e-08
4.36121e-09
-1.83581e-08
7.53121e-09
-2.50004e-08
1.14316e-08
-3.12084e-08
1.59871e-08
-3.69596e-08
2.11235e-08
-4.22359e-08
2.67685e-08
-4.70229e-08
3.28514e-08
-5.131e-08
3.9304e-08
-5.50901e-08
4.60602e-08
-5.83595e-08
5.30565e-08
-6.11178e-08
6.02321e-08
-6.33673e-08
6.75288e-08
-6.51132e-08
7.48914e-08
-6.63633e-08
8.22673e-08
-6.71276e-08
8.96071e-08
-6.74183e-08
9.6864e-08
-6.72494e-08
1.03994e-07
-6.66368e-08
1.10957e-07
-6.55976e-08
1.17714e-07
-6.41507e-08
1.24229e-07
-6.23158e-08
1.30471e-07
-6.01137e-08
1.36408e-07
-5.75661e-08
1.42014e-07
-5.46955e-08
1.47264e-07
-5.15249e-08
1.52134e-07
-4.80777e-08
1.56605e-07
-4.43778e-08
1.60658e-07
-4.04494e-08
1.64278e-07
-3.63168e-08
1.6745e-07
-3.20045e-08
1.70165e-07
-2.7537e-08
1.7241e-07
-2.29388e-08
1.7418e-07
-1.82344e-08
1.75468e-07
-1.34482e-08
1.76271e-07
-8.60443e-09
1.76586e-07
-3.72726e-09
1.76413e-07
1.15938e-09
1.75754e-07
6.03171e-09
1.74612e-07
1.08662e-08
1.72992e-07
1.56395e-08
1.70901e-07
2.03284e-08
1.68348e-07
2.49102e-08
1.65344e-07
2.93621e-08
1.619e-07
3.36619e-08
1.58032e-07
3.77875e-08
1.53754e-07
4.17171e-08
1.49086e-07
4.54292e-08
1.44047e-07
4.89028e-08
1.3866e-07
5.2117e-08
1.32947e-07
5.50517e-08
1.26936e-07
5.76869e-08
1.20655e-07
6.00033e-08
1.14133e-07
6.19821e-08
1.07405e-07
6.36051e-08
1.00503e-07
6.4855e-08
9.34669e-08
6.57152e-08
8.63347e-08
6.61699e-08
7.91486e-08
6.62044e-08
7.19527e-08
6.58052e-08
6.47938e-08
6.496e-08
5.77207e-08
6.36579e-08
5.0785e-08
6.18896e-08
4.40402e-08
5.96476e-08
3.75426e-08
5.69259e-08
3.13506e-08
5.37212e-08
2.55246e-08
5.00319e-08
2.01274e-08
4.58592e-08
1.52237e-08
4.12068e-08
1.08801e-08
3.60814e-08
7.16492e-09
3.04926e-08
4.14788e-09
2.44534e-08
1.89999e-09
1.79802e-08
4.93182e-10
1.10935e-08
3.81847e-09
5.58582e-10
-4.44204e-09
2.14729e-09
-1.28971e-08
4.67916e-09
-2.089e-08
8.06787e-09
-2.83891e-08
1.22282e-08
-3.53687e-08
1.70767e-08
-4.18081e-08
2.25316e-08
-4.76909e-08
2.85138e-08
-5.30051e-08
3.49465e-08
-5.77427e-08
4.17558e-08
-6.18994e-08
4.88708e-08
-6.54746e-08
5.62238e-08
-6.84708e-08
6.37502e-08
-7.08937e-08
7.13889e-08
-7.27518e-08
7.90818e-08
-7.40563e-08
8.67747e-08