/*--------------------------------*- C++ -*----------------------------------*\
  =========                 |
  \\      /  F ield         | OpenFOAM: The Open Source CFD Toolbox
   \\    /   O peration     | Website:  https://openfoam.org
    \\  /    A nd           | Version:  12
     \\/     M anipulation  |
\*---------------------------------------------------------------------------*/
FoamFile
{
    format      ascii;
    class       volVectorField;
    location    "7";
    object      U;
}
// * * * * * * * * * * * * * * * * * * * * * * * * * * * * * * * * * * * * * //

dimensions      [0 1 -1 0 0 0 0];

internalField   nonuniform List<vector> 
5625
(
(-5.35338e-07 1.19545e-06 0)
(-2.19912e-06 1.9751e-06 0)
(-3.83365e-06 1.94798e-06 0)
(-4.71373e-06 1.53676e-06 0)
(-4.25636e-06 9.58044e-07 0)
(-2.18176e-06 3.14912e-07 0)
(1.61932e-06 -3.35656e-07 0)
(7.15841e-06 -9.60733e-07 0)
(1.43832e-05 -1.5414e-06 0)
(2.31994e-05 -2.06791e-06 0)
(3.34836e-05 -2.53603e-06 0)
(4.50939e-05 -2.94468e-06 0)
(5.78772e-05 -3.29458e-06 0)
(7.16738e-05 -3.58741e-06 0)
(8.63212e-05 -3.82537e-06 0)
(0.000101657 -4.01093e-06 0)
(0.000117519 -4.14668e-06 0)
(0.00013375 -4.23523e-06 0)
(0.000150196 -4.27915e-06 0)
(0.000166707 -4.28104e-06 0)
(0.000183139 -4.24344e-06 0)
(0.000199357 -4.16886e-06 0)
(0.000215228 -4.0598e-06 0)
(0.00023063 -3.91872e-06 0)
(0.000245447 -3.74809e-06 0)
(0.000259572 -3.55034e-06 0)
(0.000272903 -3.32787e-06 0)
(0.00028535 -3.08309e-06 0)
(0.000296829 -2.81835e-06 0)
(0.000307264 -2.536e-06 0)
(0.000316591 -2.23835e-06 0)
(0.00032475 -1.92767e-06 0)
(0.000331692 -1.60621e-06 0)
(0.000337377 -1.27616e-06 0)
(0.000341772 -9.39679e-07 0)
(0.000344853 -5.98888e-07 0)
(0.000346606 -2.55854e-07 0)
(0.000347021 8.74179e-08 0)
(0.000346102 4.28824e-07 0)
(0.000343855 7.66633e-07 0)
(0.000340299 1.09884e-06 0)
(0.000335458 1.42357e-06 0)
(0.000329364 1.73897e-06 0)
(0.000322057 2.04327e-06 0)
(0.000313584 2.33466e-06 0)
(0.000304001 2.61137e-06 0)
(0.000293368 2.87164e-06 0)
(0.000281755 3.11368e-06 0)
(0.000269238 3.33572e-06 0)
(0.0002559 3.53593e-06 0)
(0.00024183 3.71248e-06 0)
(0.000227125 3.86348e-06 0)
(0.000211889 3.98699e-06 0)
(0.00019623 4.08098e-06 0)
(0.000180266 4.14335e-06 0)
(0.000164117 4.17191e-06 0)
(0.000147914 4.16435e-06 0)
(0.00013179 4.11823e-06 0)
(0.000115884 4.03098e-06 0)
(0.000100343 3.89992e-06 0)
(8.53144e-05 3.72223e-06 0)
(7.09525e-05 3.495e-06 0)
(5.74127e-05 3.21534e-06 0)
(4.48515e-05 2.88052e-06 0)
(3.34241e-05 2.48822e-06 0)
(2.32812e-05 2.03704e-06 0)
(1.45638e-05 1.52723e-06 0)
(7.39609e-06 9.62139e-07 0)
(1.87463e-06 3.50968e-07 0)
(-1.94026e-06 -2.8778e-07 0)
(-4.05281e-06 -9.23745e-07 0)
(-4.56625e-06 -1.50015e-06 0)
(-3.74717e-06 -1.91377e-06 0)
(-2.16388e-06 -1.94956e-06 0)
(-5.30963e-07 -1.18508e-06 0)
(-3.2799e-07 3.55651e-06 0)
(-9.92339e-07 5.27521e-06 0)
(-2.18748e-07 3.31046e-06 0)
(2.98911e-06 -9.32445e-07 0)
(9.40855e-06 -6.50998e-06 0)
(1.94948e-05 -1.27839e-05 0)
(3.34627e-05 -1.93147e-05 0)
(5.1357e-05 -2.57998e-05 0)
(7.30959e-05 -3.20313e-05 0)
(9.85028e-05 -3.78679e-05 0)
(0.00012733 -4.32151e-05 0)
(0.000159279 -4.80108e-05 0)
(0.000194015 -5.22165e-05 0)
(0.000231176 -5.58101e-05 0)
(0.000270386 -5.87821e-05 0)
(0.000311259 -6.11318e-05 0)
(0.000353406 -6.28656e-05 0)
(0.00039644 -6.39952e-05 0)
(0.000439978 -6.45367e-05 0)
(0.000483647 -6.45095e-05 0)
(0.000527084 -6.39358e-05 0)
(0.000569938 -6.28401e-05 0)
(0.000611873 -6.1249e-05 0)
(0.000652573 -5.91905e-05 0)
(0.000691735 -5.66941e-05 0)
(0.000729077 -5.37903e-05 0)
(0.000764337 -5.05106e-05 0)
(0.000797273 -4.68871e-05 0)
(0.000827665 -4.29525e-05 0)
(0.000855312 -3.874e-05 0)
(0.000880038 -3.42828e-05 0)
(0.000901687 -2.96144e-05 0)
(0.000920127 -2.47684e-05 0)
(0.000935247 -1.9778e-05 0)
(0.000946959 -1.46766e-05 0)
(0.000955197 -9.497e-06 0)
(0.000959917 -4.27193e-06 0)
(0.000961099 9.66352e-07 0)
(0.000958742 6.186e-06 0)
(0.000952868 1.13556e-05 0)
(0.000943521 1.64442e-05 0)
(0.000930765 2.14212e-05 0)
(0.000914684 2.62566e-05 0)
(0.000895385 3.09209e-05 0)
(0.000872991 3.5385e-05 0)
(0.00084765 3.96202e-05 0)
(0.000819523 4.35982e-05 0)
(0.000788796 4.72915e-05 0)
(0.00075567 5.06724e-05 0)
(0.000720365 5.37143e-05 0)
(0.000683119 5.63905e-05 0)
(0.000644186 5.86749e-05 0)
(0.000603838 6.05421e-05 0)
(0.000562362 6.19671e-05 0)
(0.000520063 6.29254e-05 0)
(0.000477256 6.33937e-05 0)
(0.000434272 6.33494e-05 0)
(0.000391455 6.27715e-05 0)
(0.000349157 6.16406e-05 0)
(0.000307741 5.99396e-05 0)
(0.000267574 5.76548e-05 0)
(0.000229027 5.47765e-05 0)
(0.000192469 5.13011e-05 0)
(0.000158265 4.72332e-05 0)
(0.000126765 4.25886e-05 0)
(9.82979e-05 3.73993e-05 0)
(7.31599e-05 3.172e-05 0)
(5.16003e-05 2.56378e-05 0)
(3.38018e-05 1.92863e-05 0)
(1.98569e-05 1.28664e-05 0)
(9.73538e-06 6.67201e-06 0)
(3.24036e-06 1.13659e-06 0)
(-6.18368e-08 -3.10647e-06 0)
(-9.23563e-07 -5.11733e-06 0)
(-3.19459e-07 -3.49024e-06 0)
(-9.73802e-09 3.35183e-06 0)
(2.12234e-06 1.70672e-06 0)
(7.84606e-06 -5.97382e-06 0)
(1.79806e-05 -1.76293e-05 0)
(3.30509e-05 -3.17489e-05 0)
(5.33975e-05 -4.72208e-05 0)
(7.91832e-05 -6.3216e-05 0)
(0.000110408 -7.91164e-05 0)
(0.000146935 -9.44644e-05 0)
(0.000188519 -0.000108924 0)
(0.000234824 -0.000122251 0)
(0.000285446 -0.000134272 0)
(0.000339928 -0.000144865 0)
(0.000397773 -0.000153951 0)
(0.000458458 -0.000161483 0)
(0.000521439 -0.00016744 0)
(0.000586166 -0.000171821 0)
(0.000652085 -0.000174641 0)
(0.000718643 -0.000175928 0)
(0.0007853 -0.000175724 0)
(0.000851524 -0.000174078 0)
(0.000916803 -0.000171047 0)
(0.000980644 -0.000166695 0)
(0.00104257 -0.000161093 0)
(0.00110215 -0.000154313 0)
(0.00115894 -0.000146436 0)
(0.00121256 -0.000137541 0)
(0.00126266 -0.000127714 0)
(0.00130888 -0.00011704 0)
(0.00135094 -0.000105607 0)
(0.00138857 -9.35053e-05 0)
(0.00142153 -8.08233e-05 0)
(0.00144961 -6.76516e-05 0)
(0.00147266 -5.40805e-05 0)
(0.00149053 -4.02003e-05 0)
(0.00150313 -2.61006e-05 0)
(0.00151038 -1.18706e-05 0)
(0.00151226 2.40129e-06 0)
(0.00150875 1.66278e-05 0)
(0.0014999 3.07224e-05 0)
(0.00148576 4.46001e-05 0)
(0.00146643 5.81768e-05 0)
(0.00144204 7.13698e-05 0)
(0.00141275 8.40979e-05 0)
(0.00137874 9.6281e-05 0)
(0.00134024 0.000107841 0)
(0.0012975 0.0001187 0)
(0.00125078 0.000128783 0)
(0.0012004 0.000138016 0)
(0.00114668 0.000146327 0)
(0.00108998 0.000153645 0)
(0.00103069 0.000159901 0)
(0.000969211 0.00016503 0)
(0.000905973 0.000168968 0)
(0.000841428 0.000171655 0)
(0.000776045 0.000173033 0)
(0.000710312 0.00017305 0)
(0.000644731 0.00017166 0)
(0.000579817 0.000168823 0)
(0.000516094 0.000164506 0)
(0.000454089 0.000158691 0)
(0.00039433 0.00015137 0)
(0.000337336 0.000142555 0)
(0.000283613 0.000132281 0)
(0.000233643 0.000120613 0)
(0.000187875 0.000107657 0)
(0.000146707 9.35694e-05 0)
(0.000110476 7.8577e-05 0)
(7.94339e-05 6.29981e-05 0)
(5.37307e-05 4.72731e-05 0)
(3.33832e-05 3.20033e-05 0)
(1.82513e-05 1.80037e-05 0)
(8.02169e-06 6.37404e-06 0)
(2.20168e-06 -1.38279e-06 0)
(1.88475e-11 -3.20932e-06 0)
(3.20301e-07 -2.66808e-07 0)
(5.66271e-06 -1.0721e-05 0)
(1.70783e-05 -2.85486e-05 0)
(3.51046e-05 -5.13767e-05 0)
(5.98561e-05 -7.73578e-05 0)
(9.14185e-05 -0.000105047 0)
(0.000129788 -0.000133307 0)
(0.000174835 -0.000161242 0)
(0.000226312 -0.000188157 0)
(0.00028387 -0.000213514 0)
(0.000347075 -0.000236906 0)
(0.000415421 -0.000258027 0)
(0.000488347 -0.000276652 0)
(0.000565246 -0.000292628 0)
(0.000645477 -0.000305853 0)
(0.000728377 -0.000316273 0)
(0.000813271 -0.000323868 0)
(0.000899478 -0.000328652 0)
(0.000986316 -0.000330664 0)
(0.00107312 -0.000329967 0)
(0.00115922 -0.00032664 0)
(0.00124398 -0.00032078 0)
(0.0013268 -0.000312496 0)
(0.00140706 -0.00030191 0)
(0.00148422 -0.000289154 0)
(0.00155775 -0.000274368 0)
(0.00162714 -0.000257697 0)
(0.00169194 -0.000239295 0)
(0.00175173 -0.000219318 0)
(0.00180613 -0.000197927 0)
(0.0018548 -0.000175286 0)
(0.00189742 -0.00015156 0)
(0.00193376 -0.000126915 0)
(0.00196359 -0.00010152 0)
(0.00198673 -7.55417e-05 0)
(0.00200307 -4.91471e-05 0)
(0.0020125 -2.25026e-05 0)
(0.00201498 4.22671e-06 0)
(0.00201052 3.08773e-05 0)
(0.00199914 5.72874e-05 0)
(0.00198093 8.32974e-05 0)
(0.00195602 0.00010875 0)
(0.00192455 0.00013349 0)
(0.00188674 0.000157365 0)
(0.00184282 0.000180225 0)
(0.00179308 0.000201925 0)
(0.00173782 0.000222319 0)
(0.0016774 0.000241268 0)
(0.00161221 0.000258635 0)
(0.00154266 0.000274287 0)
(0.00146922 0.000288095 0)
(0.00139236 0.000299934 0)
(0.00131259 0.000309687 0)
(0.00123047 0.000317239 0)
(0.00114656 0.000322485 0)
(0.00106145 0.000325329 0)
(0.000975741 0.000325683 0)
(0.000890068 0.000323471 0)
(0.000805068 0.000318633 0)
(0.000721388 0.000311127 0)
(0.000639678 0.00030093 0)
(0.000560585 0.000288049 0)
(0.000484743 0.000272522 0)
(0.000412771 0.000254431 0)
(0.000345256 0.000233906 0)
(0.000282747 0.000211145 0)
(0.000225743 0.000186425 0)
(0.000174678 0.000160124 0)
(0.000129904 0.000132749 0)
(9.16836e-05 0.000104968 0)
(6.0164e-05 7.7645e-05 0)
(3.53746e-05 5.18956e-05 0)
(1.72613e-05 2.91433e-05 0)
(5.74803e-06 1.12209e-05 0)
(3.30991e-07 4.9341e-07 0)
(6.15156e-07 -7.40974e-06 0)
(9.10845e-06 -3.24562e-05 0)
(2.62425e-05 -6.51851e-05 0)
(5.22842e-05 -0.000103141 0)
(8.6911e-05 -0.00014432 0)
(0.000129903 -0.000187082 0)
(0.000181034 -0.000230083 0)
(0.000239991 -0.000272222 0)
(0.00030637 -0.000312614 0)
(0.000379686 -0.00035055 0)
(0.000459381 -0.000385472 0)
(0.000544836 -0.00041695 0)
(0.00063538 -0.000444659 0)
(0.000730299 -0.000468365 0)
(0.000828847 -0.000487909 0)
(0.000930257 -0.000503199 0)
(0.00103375 -0.000514196 0)
(0.00113853 -0.000520907 0)
(0.00124382 -0.000523382 0)
(0.00134884 -0.000521704 0)
(0.00145284 -0.000515988 0)
(0.00155506 -0.000506371 0)
(0.00165481 -0.000493017 0)
(0.00175138 -0.000476105 0)
(0.00184413 -0.000455833 0)
(0.00193244 -0.000432412 0)
(0.00201574 -0.000406065 0)
(0.00209348 -0.000377024 0)
(0.00216518 -0.000345531 0)
(0.0022304 -0.000311832 0)
(0.00228872 -0.00027618 0)
(0.0023398 -0.00023883 0)
(0.00238334 -0.000200042 0)
(0.00241908 -0.000160076 0)
(0.00244682 -0.000119192 0)
(0.00246641 -7.76505e-05 0)
(0.00247773 -3.57119e-05 0)
(0.00248074 6.36595e-06 0)
(0.00247542 4.83272e-05 0)
(0.00246184 8.99186e-05 0)
(0.00244007 0.00013089 0)
(0.00241026 0.000170995 0)
(0.0023726 0.00020999 0)
(0.00232733 0.000247636 0)
(0.00227473 0.000283701 0)
(0.00221512 0.000317953 0)
(0.00214887 0.00035017 0)
(0.00207639 0.000380133 0)
(0.00199815 0.000407629 0)
(0.00191462 0.000432453 0)
(0.00182635 0.000454407 0)
(0.0017339 0.000473301 0)
(0.00163786 0.000488955 0)
(0.00153887 0.0005012 0)
(0.00143759 0.000509878 0)
(0.00133471 0.000514847 0)
(0.00123093 0.000515982 0)
(0.00112697 0.000513177 0)
(0.00102358 0.000506351 0)
(0.000921509 0.000495451 0)
(0.000821498 0.000480457 0)
(0.000724299 0.000461392 0)
(0.000630646 0.000438325 0)
(0.000541258 0.000411387 0)
(0.000456824 0.000380776 0)
(0.000378 0.000346781 0)
(0.000305393 0.000309789 0)
(0.000239556 0.000270315 0)
(0.000180979 0.000229022 0)
(0.000130078 0.000186753 0)
(8.71829e-05 0.000144566 0)
(5.25501e-05 0.000103768 0)
(2.64341e-05 6.59656e-05 0)
(9.20208e-06 3.31388e-05 0)
(6.27751e-07 7.72795e-06 0)
(8.75353e-07 -1.78349e-05 0)
(1.23184e-05 -6.31095e-05 0)
(3.4928e-05 -0.000115537 0)
(6.87472e-05 -0.000172687 0)
(0.000113047 -0.000232507 0)
(0.000167301 -0.000293259 0)
(0.000231042 -0.000353472 0)
(0.00030375 -0.000411908 0)
(0.000384836 -0.000467543 0)
(0.000473653 -0.000519536 0)
(0.000569499 -0.000567209 0)
(0.000671625 -0.000610028 0)
(0.000779238 -0.000647582 0)
(0.000891511 -0.000679567 0)
(0.00100759 -0.000705774 0)
(0.00112661 -0.000726075 0)
(0.00124769 -0.000740416 0)
(0.00136994 -0.000748802 0)
(0.00149249 -0.000751296 0)
(0.00161447 -0.000748007 0)
(0.00173504 -0.000739085 0)
(0.00185336 -0.000724719 0)
(0.00196865 -0.000705127 0)
(0.00208014 -0.000680556 0)
(0.00218709 -0.000651278 0)
(0.00228884 -0.000617582 0)
(0.00238472 -0.000579777 0)
(0.00247415 -0.000538187 0)
(0.00255658 -0.000493145 0)
(0.00263151 -0.000444998 0)
(0.00269849 -0.000394097 0)
(0.00275713 -0.000340801 0)
(0.0028071 -0.000285472 0)
(0.0028481 -0.000228478 0)
(0.00287992 -0.000170183 0)
(0.00290237 -0.000110955 0)
(0.00291535 -5.11608e-05 0)
(0.00291878 8.8361e-06 0)
(0.00291267 6.86742e-05 0)
(0.00289707 0.000127996 0)
(0.00287208 0.000186447 0)
(0.00283786 0.000243679 0)
(0.00279461 0.000299349 0)
(0.00274261 0.000353119 0)
(0.00268217 0.00040466 0)
(0.00261366 0.000453647 0)
(0.00253748 0.000499764 0)
(0.0024541 0.000542706 0)
(0.00236403 0.000582173 0)
(0.00226781 0.000617879 0)
(0.00216604 0.000649548 0)
(0.00205936 0.000676916 0)
(0.00194842 0.000699734 0)
(0.00183395 0.00071777 0)
(0.00171666 0.000730811 0)
(0.00159733 0.000738663 0)
(0.00147675 0.000741159 0)
(0.00135572 0.000738161 0)
(0.00123507 0.000729564 0)
(0.00111563 0.000715302 0)
(0.000998255 0.000695355 0)
(0.00088377 0.000669758 0)
(0.000773013 0.000638608 0)
(0.000666802 0.000602077 0)
(0.000565935 0.000560423 0)
(0.000471179 0.000514008 0)
(0.000383269 0.000463309 0)
(0.000302899 0.000408946 0)
(0.000230716 0.000351697 0)
(0.000167318 0.000292526 0)
(0.000113243 0.000232611 0)
(6.89892e-05 0.000173369 0)
(3.51214e-05 0.000116487 0)
(1.24197e-05 6.39821e-05 0)
(8.90319e-07 1.82551e-05 0)
(1.10692e-06 -3.1277e-05 0)
(1.52933e-05 -0.000102137 0)
(4.30839e-05 -0.000178956 0)
(8.43459e-05 -0.000259369 0)
(0.000137987 -0.000341322 0)
(0.000203197 -0.000423037 0)
(0.000279267 -0.000502973 0)
(0.000365463 -0.000579807 0)
(0.000461 -0.00065242 0)
(0.000565055 -0.00071988 0)
(0.000676765 -0.000781423 0)
(0.000795235 -0.000836436 0)
(0.00091954 -0.000884442 0)
(0.00104873 -0.000925087 0)
(0.00118185 -0.000958125 0)
(0.00131791 -0.000983407 0)
(0.00145594 -0.00100087 0)
(0.00159496 -0.00101053 0)
(0.001734 -0.00101246 0)
(0.00187212 -0.00100681 0)
(0.00200839 -0.000993781 0)
(0.00214191 -0.000973605 0)
(0.00227182 -0.000946572 0)
(0.00239727 -0.000913 0)
(0.00251749 -0.000873242 0)
(0.00263173 -0.000827676 0)
(0.00273929 -0.000776705 0)
(0.00283952 -0.00072075 0)
(0.00293184 -0.000660251 0)
(0.00301569 -0.000595658 0)
(0.00309061 -0.000527434 0)
(0.00315615 -0.000456051 0)
(0.00321197 -0.000381984 0)
(0.00325775 -0.000305716 0)
(0.00329324 -0.000227729 0)
(0.00331826 -0.000148507 0)
(0.00333269 -6.85329e-05 0)
(0.00333645 1.17125e-05 0)
(0.00332955 9.17519e-05 0)
(0.00331203 0.000171113 0)
(0.00328402 0.000249327 0)
(0.00324568 0.000325935 0)
(0.00319725 0.000400482 0)
(0.00313901 0.000472524 0)
(0.00307131 0.000541622 0)
(0.00299454 0.000607351 0)
(0.00290915 0.000669294 0)
(0.00281565 0.000727047 0)
(0.00271458 0.000780218 0)
(0.00260654 0.00082843 0)
(0.00249218 0.000871322 0)
(0.00237218 0.00090855 0)
(0.00224728 0.000939789 0)
(0.00211823 0.000964737 0)
(0.00198585 0.000983118 0)
(0.00185095 0.000994685 0)
(0.00171442 0.000999221 0)
(0.00157711 0.000996549 0)
(0.00143995 0.000986535 0)
(0.00130385 0.000969094 0)
(0.00116973 0.000944199 0)
(0.00103853 0.000911887 0)
(0.000911174 0.000872271 0)
(0.000788592 0.000825552 0)
(0.000671694 0.000772029 0)
(0.000561373 0.000712114 0)
(0.0004585 0.000646348 0)
(0.000363924 0.000575419 0)
(0.000278463 0.000500178 0)
(0.000202908 0.000421664 0)
(0.00013801 0.000341118 0)
(8.45072e-05 0.000260003 0)
(4.32519e-05 0.00018003 0)
(1.5394e-05 0.000103191 0)
(1.12396e-06 3.18069e-05 0)
(1.31823e-06 -4.75164e-05 0)
(1.80838e-05 -0.000149044 0)
(5.08029e-05 -0.000254807 0)
(9.92044e-05 -0.000362501 0)
(0.000161872 -0.000470089 0)
(0.000237732 -0.000575781 0)
(0.000325847 -0.000678 0)
(0.00042527 -0.000775373 0)
(0.000535016 -0.000866725 0)
(0.000654076 -0.000951066 0)
(0.00078142 -0.00102757 0)
(0.000915996 -0.00109559 0)
(0.00105674 -0.00115459 0)
(0.00120257 -0.00120419 0)
(0.0013524 -0.00124413 0)
(0.00150514 -0.00127426 0)
(0.00165972 -0.00129452 0)
(0.00181506 -0.00130494 0)
(0.00197012 -0.00130564 0)
(0.00212385 -0.0012968 0)
(0.00227527 -0.00127868 0)
(0.00242339 -0.00125158 0)
(0.00256729 -0.00121586 0)
(0.00270608 -0.00117191 0)
(0.00283892 -0.0011202 0)
(0.002965 -0.00106118 0)
(0.00308359 -0.000995367 0)
(0.003194 -0.000923286 0)
(0.0032956 -0.000845489 0)
(0.00338781 -0.000762542 0)
(0.00347012 -0.000675026 0)
(0.00354209 -0.000583533 0)
(0.00360332 -0.000488662 0)
(0.00365349 -0.000391019 0)
(0.00369235 -0.000291211 0)
(0.00371969 -0.000189847 0)
(0.00373538 -8.75348e-05 0)
(0.00373937 1.51193e-05 0)
(0.00373163 0.000117514 0)
(0.00371224 0.000219054 0)
(0.00368132 0.00031915 0)
(0.00363905 0.000417221 0)
(0.00358568 0.000512694 0)
(0.00352152 0.000605009 0)
(0.00344692 0.000693615 0)
(0.00336233 0.000777973 0)
(0.0032682 0.00085756 0)
(0.00316509 0.000931867 0)
(0.00305357 0.0010004 0)
(0.00293429 0.00106269 0)
(0.00280793 0.00111827 0)
(0.00267523 0.00116673 0)
(0.00253697 0.00120764 0)
(0.00239397 0.00124064 0)
(0.00224709 0.00126538 0)
(0.00209721 0.00128154 0)
(0.00194528 0.00128886 0)
(0.00179224 0.0012871 0)
(0.00163907 0.00127611 0)
(0.00148676 0.00125576 0)
(0.00133634 0.001226 0)
(0.00118884 0.00118688 0)
(0.00104527 0.00113849 0)
(0.000906675 0.00108104 0)
(0.00077409 0.00101487 0)
(0.00064854 0.000940397 0)
(0.000531043 0.000858206 0)
(0.000422606 0.000769019 0)
(0.000324226 0.000673725 0)
(0.000236888 0.000573394 0)
(0.000161551 0.000469293 0)
(9.91797e-05 0.000362893 0)
(5.0892e-05 0.000255891 0)
(1.81649e-05 0.000150233 0)
(1.33605e-06 4.81506e-05 0)
(1.51722e-06 -6.63979e-05 0)
(2.07531e-05 -0.000203464 0)
(5.82254e-05 -0.000342596 0)
(0.000113548 -0.000481529 0)
(0.000185009 -0.000618245 0)
(0.000271287 -0.00075095 0)
(0.000371229 -0.000878049 0)
(0.000483677 -0.000998145 0)
(0.000607448 -0.00111003 0)
(0.000741343 -0.00121269 0)
(0.000884157 -0.00130527 0)
(0.00103468 -0.00138708 0)
(0.00119169 -0.00145759 0)
(0.00135397 -0.00151641 0)
(0.00152032 -0.00156328 0)
(0.00168952 -0.00159806 0)
(0.0018604 -0.00162072 0)
(0.00203178 -0.00163133 0)
(0.00220252 -0.00163005 0)
(0.00237152 -0.00161712 0)
(0.0025377 -0.00159287 0)
(0.00270003 -0.00155767 0)
(0.0028575 -0.00151196 0)
(0.00300917 -0.00145626 0)
(0.00315416 -0.00139109 0)
(0.00329163 -0.00131703 0)
(0.00342078 -0.00123471 0)
(0.0035409 -0.00114476 0)
(0.00365133 -0.00104787 0)
(0.00375146 -0.000944709 0)
(0.00384076 -0.000835996 0)
(0.00391877 -0.000722448 0)
(0.00398507 -0.000604795 0)
(0.00403933 -0.000483772 0)
(0.00408129 -0.000360119 0)
(0.00411073 -0.000234578 0)
(0.00412754 -0.000107886 0)
(0.00413163 1.92168e-05 0)
(0.004123 0.000146 0)
(0.00410173 0.000271739 0)
(0.00406795 0.000395714 0)
(0.00402185 0.00051722 0)
(0.00396368 0.000635559 0)
(0.00389379 0.000750047 0)
(0.00381254 0.000860014 0)
(0.00372039 0.000964804 0)
(0.00361785 0.00106378 0)
(0.00350547 0.00115632 0)
(0.00338387 0.00124182 0)
(0.00325373 0.00131972 0)
(0.00311578 0.00138944 0)
(0.00297079 0.00145048 0)
(0.00281959 0.00150232 0)
(0.00266304 0.00154452 0)
(0.00250207 0.00157664 0)
(0.00233761 0.00159831 0)
(0.00217066 0.00160919 0)
(0.00200224 0.00160899 0)
(0.00183341 0.00159749 0)
(0.00166525 0.00157454 0)
(0.00149885 0.00154006 0)
(0.00133534 0.00149405 0)
(0.00117585 0.0014366 0)
(0.00102154 0.00136791 0)
(0.000873561 0.0012883 0)
(0.000733079 0.00119821 0)
(0.000601262 0.00109822 0)
(0.000479282 0.000989052 0)
(0.000368313 0.000871615 0)
(0.000269529 0.000746977 0)
(0.000184092 0.000616401 0)
(0.00011318 0.000481343 0)
(5.81526e-05 0.000343469 0)
(2.07844e-05 0.000204672 0)
(1.53343e-06 6.71076e-05 0)
(1.71068e-06 -8.78322e-05 0)
(2.33625e-05 -0.000265176 0)
(6.5496e-05 -0.000442016 0)
(0.000127622 -0.000616103 0)
(0.000207747 -0.000785425 0)
(0.000304314 -0.000948185 0)
(0.000415958 -0.00110278 0)
(0.000541314 -0.00124781 0)
(0.000679001 -0.00138206 0)
(0.00082763 -0.00150449 0)
(0.000985817 -0.00161425 0)
(0.00115218 -0.00171065 0)
(0.00132535 -0.00179318 0)
(0.00150397 -0.00186145 0)
(0.0016867 -0.00191524 0)
(0.00187221 -0.00195443 0)
(0.0020592 -0.00197905 0)
(0.00224642 -0.00198921 0)
(0.00243262 -0.00198514 0)
(0.00261663 -0.00196717 0)
(0.00279728 -0.00193569 0)
(0.00297349 -0.00189117 0)
(0.0031442 -0.00183416 0)
(0.00330841 -0.00176526 0)
(0.00346519 -0.00168511 0)
(0.00361366 -0.00159442 0)
(0.003753 -0.00149392 0)
(0.00388246 -0.00138438 0)
(0.00400134 -0.00126661 0)
(0.00410903 -0.00114141 0)
(0.00420498 -0.00100964 0)
(0.00428871 -0.000872147 0)
(0.00435978 -0.000729795 0)
(0.00441787 -0.000583458 0)
(0.0044627 -0.000434014 0)
(0.00449406 -0.00028234 0)
(0.00451181 -0.000129315 0)
(0.00451589 2.4188e-05 0)
(0.00450631 0.000177302 0)
(0.00448313 0.000329166 0)
(0.00444649 0.000478931 0)
(0.00439661 0.000625757 0)
(0.00433375 0.000768817 0)
(0.00425825 0.0009073 0)
(0.00417051 0.00104041 0)
(0.00407101 0.00116737 0)
(0.00396026 0.00128742 0)
(0.00383886 0.00139983 0)
(0.00370745 0.00150387 0)
(0.00356674 0.00159887 0)
(0.00341749 0.00168416 0)
(0.00326051 0.00175912 0)
(0.00309667 0.00182315 0)
(0.00292688 0.0018757 0)
(0.00275211 0.00191626 0)
(0.00257336 0.00194436 0)
(0.00239168 0.00195959 0)
(0.00220817 0.0019616 0)
(0.00202395 0.00195011 0)
(0.00184018 0.0019249 0)
(0.00165805 0.00188583 0)
(0.00147879 0.00183287 0)
(0.00130363 0.00176608 0)
(0.00113384 0.00168563 0)
(0.000970714 0.00159179 0)
(0.000815552 0.001485 0)
(0.000669675 0.0013658 0)
(0.000534418 0.00123492 0)
(0.000411131 0.00109323 0)
(0.000301174 0.000941797 0)
(0.000205905 0.000781845 0)
(0.0001267 0.000614806 0)
(6.51493e-05 0.000442306 0)
(2.3302e-05 0.000266191 0)
(1.72178e-06 8.85531e-05 0)
(1.90417e-06 -0.000111789 0)
(2.59652e-05 -0.000334098 0)
(7.27447e-05 -0.000552947 0)
(0.000141652 -0.000766078 0)
(0.000230414 -0.000971474 0)
(0.000337239 -0.00116733 0)
(0.000460552 -0.00135206 0)
(0.000598784 -0.00152424 0)
(0.00075035 -0.00168267 0)
(0.000913672 -0.00182633 0)
(0.00108718 -0.00195438 0)
(0.00126933 -0.00206616 0)
(0.00145859 -0.00216118 0)
(0.00165345 -0.00223911 0)
(0.00185244 -0.00229975 0)
(0.00205411 -0.00234307 0)
(0.00225706 -0.00236915 0)
(0.00245992 -0.00237818 0)
(0.00266136 -0.00237048 0)
(0.00286013 -0.00234645 0)
(0.00305499 -0.0023066 0)
(0.00324479 -0.0022515 0)
(0.00342842 -0.00218181 0)
(0.00360483 -0.00209825 0)
(0.00377306 -0.00200159 0)
(0.00393218 -0.00189265 0)
(0.00408135 -0.0017723 0)
(0.00421978 -0.00164145 0)
(0.00434678 -0.00150103 0)
(0.0044617 -0.001352 0)
(0.00456397 -0.00119534 0)
(0.00465311 -0.00103205 0)
(0.00472869 -0.000863132 0)
(0.00479035 -0.000689604 0)
(0.00483783 -0.000512486 0)
(0.00487092 -0.000332797 0)
(0.00488947 -0.000151556 0)
(0.00489344 3.02224e-05 0)
(0.00488282 0.000211532 0)
(0.0048577 0.000391374 0)
(0.00481821 0.00056876 0)
(0.00476459 0.000742717 0)
(0.0046971 0.000912285 0)
(0.00461611 0.00107652 0)
(0.00452203 0.0012345 0)
(0.00441534 0.00138531 0)
(0.00429659 0.00152808 0)
(0.00416638 0.00166194 0)
(0.0040254 0.00178606 0)
(0.00387436 0.00189964 0)
(0.00371407 0.00200191 0)
(0.00354536 0.00209213 0)
(0.00336915 0.00216959 0)
(0.00318639 0.00223365 0)
(0.00299809 0.0022837 0)
(0.00280531 0.00231917 0)
(0.00260916 0.00233957 0)
(0.0024108 0.00234446 0)
(0.00221143 0.00233348 0)
(0.00201229 0.00230635 0)
(0.00181467 0.00226285 0)
(0.00161987 0.0022029 0)
(0.00142925 0.00212649 0)
(0.00124421 0.00203374 0)
(0.00106615 0.00192488 0)
(0.00089652 0.00180029 0)
(0.000736796 0.00166049 0)
(0.000588475 0.00150615 0)
(0.000453081 0.00133811 0)
(0.000332154 0.00115739 0)
(0.000227242 0.000965191 0)
(0.000139916 0.000762897 0)
(7.19847e-05 0.000552094 0)
(2.57603e-05 0.000334582 0)
(1.90558e-06 0.00011241 0)
(2.1021e-06 -0.000138285 0)
(2.86046e-05 -0.000410266 0)
(8.00777e-05 -0.000675431 0)
(0.000155822 -0.000931497 0)
(0.000253276 -0.00117643 0)
(0.000370411 -0.00140842 0)
(0.000505436 -0.00162589 0)
(0.000656572 -0.00182742 0)
(0.000822031 -0.00201184 0)
(0.00100004 -0.00217816 0)
(0.00118884 -0.00232558 0)
(0.00138672 -0.00245348 0)
(0.00159198 -0.00256143 0)
(0.00180298 -0.00264916 0)
(0.00201808 -0.00271657 0)
(0.00223574 -0.00276368 0)
(0.00245443 -0.00279066 0)
(0.00267269 -0.00279782 0)
(0.0028891 -0.00278557 0)
(0.00310232 -0.00275443 0)
(0.00331106 -0.00270502 0)
(0.0035141 -0.00263803 0)
(0.00371028 -0.00255426 0)
(0.00389852 -0.00245455 0)
(0.0040778 -0.0023398 0)
(0.00424718 -0.00221099 0)
(0.00440578 -0.00206913 0)
(0.00455281 -0.00191525 0)
(0.00468754 -0.00175044 0)
(0.00480933 -0.0015758 0)
(0.00491759 -0.00139247 0)
(0.00501183 -0.00120158 0)
(0.00509162 -0.00100429 0)
(0.00515662 -0.000801751 0)
(0.00520653 -0.000595142 0)
(0.00524117 -0.000385624 0)
(0.00526039 -0.000174359 0)
(0.00526414 3.74957e-05 0)
(0.00525243 0.00024879 0)
(0.00522535 0.000458384 0)
(0.00518304 0.000665151 0)
(0.00512574 0.00086798 0)
(0.00505373 0.00106577 0)
(0.00496739 0.00125745 0)
(0.00486712 0.00144196 0)
(0.00475345 0.00161826 0)
(0.00462691 0.00178534 0)
(0.00448815 0.00194221 0)
(0.00433785 0.00208792 0)
(0.00417676 0.00222154 0)
(0.00400572 0.00234217 0)
(0.00382558 0.00244896 0)
(0.0036373 0.00254111 0)
(0.00344186 0.00261783 0)
(0.00324033 0.00267842 0)
(0.00303382 0.00272221 0)
(0.00282349 0.0027486 0)
(0.00261056 0.00275706 0)
(0.00239631 0.00274713 0)
(0.00218205 0.00271844 0)
(0.00196917 0.00267069 0)
(0.00175907 0.00260371 0)
(0.00155322 0.00251741 0)
(0.00135313 0.00241184 0)
(0.00116034 0.00228717 0)
(0.000976442 0.0021437 0)
(0.000803055 0.00198189 0)
(0.000641841 0.00180236 0)
(0.000494497 0.00160589 0)
(0.000362745 0.00139343 0)
(0.000248316 0.00116615 0)
(0.000152974 0.000925374 0)
(7.87414e-05 0.000672647 0)
(2.81926e-05 0.00040973 0)
(2.0882e-06 0.000138639 0)
(2.30784e-06 -0.000167378 0)
(3.13129e-05 -0.000493808 0)
(8.7573e-05 -0.000809636 0)
(0.000170265 -0.00111254 0)
(0.000276526 -0.00140047 0)
(0.000404073 -0.00167161 0)
(0.000550892 -0.00192439 0)
(0.000714988 -0.00215744 0)
(0.000894362 -0.00236961 0)
(0.00108704 -0.00255996 0)
(0.00129109 -0.00272775 0)
(0.0015046 -0.00287245 0)
(0.00172572 -0.0029937 0)
(0.00195265 -0.00309131 0)
(0.00218365 -0.00316529 0)
(0.00241702 -0.00321578 0)
(0.00265114 -0.00324305 0)
(0.00288444 -0.00324753 0)
(0.00311543 -0.00322975 0)
(0.00334268 -0.00319038 0)
(0.00356486 -0.00313017 0)
(0.00378067 -0.00304996 0)
(0.00398893 -0.00295067 0)
(0.0041885 -0.0028333 0)
(0.00437834 -0.00269891 0)
(0.00455749 -0.00254861 0)
(0.00472504 -0.00238356 0)
(0.0048802 -0.00220497 0)
(0.00502222 -0.00201406 0)
(0.00515045 -0.00181209 0)
(0.00526432 -0.00160035 0)
(0.00536331 -0.00138012 0)
(0.00544701 -0.0011527 0)
(0.00551506 -0.000919423 0)
(0.00556719 -0.000681587 0)
(0.0056032 -0.000440509 0)
(0.00562296 -0.000197499 0)
(0.00562642 4.61428e-05 0)
(0.0056136 0.000289122 0)
(0.00558458 0.000530156 0)
(0.00553953 0.000767979 0)
(0.00547867 0.00100134 0)
(0.00540231 0.001229 0)
(0.00531081 0.00144974 0)
(0.00520461 0.00166238 0)
(0.00508422 0.00186574 0)
(0.00495021 0.00205868 0)
(0.00480322 0.00224007 0)
(0.00464396 0.00240883 0)
(0.0044732 0.00256391 0)
(0.00429178 0.00270428 0)
(0.00410061 0.00282897 0)
(0.00390065 0.00293704 0)
(0.00369293 0.00302759 0)
(0.00347856 0.00309979 0)
(0.00325869 0.00315286 0)
(0.00303454 0.00318609 0)
(0.0028074 0.00319882 0)
(0.00257861 0.0031905 0)
(0.00234956 0.00316063 0)
(0.00212173 0.00310882 0)
(0.00189661 0.0030348 0)
(0.00167579 0.00293838 0)
(0.0014609 0.00281951 0)
(0.00125359 0.00267826 0)
(0.00105562 0.00251487 0)
(0.000868739 0.00232969 0)
(0.000694784 0.00212327 0)
(0.000535618 0.00189631 0)
(0.000393143 0.00164971 0)
(0.000269278 0.00138455 0)
(0.000165977 0.00110211 0)
(8.54798e-05 0.00080388 0)
(3.06234e-05 0.000491591 0)
(2.27205e-06 0.000167229 0)
(2.52377e-06 -0.00019915 0)
(3.41105e-05 -0.000584913 0)
(9.52772e-05 -0.00095581 0)
(0.000185058 -0.00130948 0)
(0.000300259 -0.00164384 0)
(0.000438334 -0.00195712 0)
(0.000597028 -0.00224774 0)
(0.000774121 -0.00251438 0)
(0.000967395 -0.00275596 0)
(0.00117467 -0.00297161 0)
(0.00139382 -0.00316069 0)
(0.00162276 -0.00332275 0)
(0.00185949 -0.00345755 0)
(0.00210204 -0.00356503 0)
(0.00234854 -0.00364531 0)
(0.00259719 -0.00369865 0)
(0.00284624 -0.0037255 0)
(0.00309405 -0.00372641 0)
(0.00333904 -0.00370207 0)
(0.00357973 -0.0036533 0)
(0.0038147 -0.003581 0)
(0.00404264 -0.00348618 0)
(0.00426231 -0.00336992 0)
(0.00447256 -0.00323338 0)
(0.00467231 -0.00307778 0)
(0.00486058 -0.0029044 0)
(0.00503648 -0.00271455 0)
(0.00519917 -0.00250961 0)
(0.00534793 -0.00229095 0)
(0.0054821 -0.00205999 0)
(0.0056011 -0.00181818 0)
(0.00570444 -0.00156696 0)
(0.00579169 -0.00130778 0)
(0.0058625 -0.00104212 0)
(0.00591662 -0.000771425 0)
(0.00595384 -0.000497168 0)
(0.00597405 -0.000220803 0)
(0.00597718 5.62247e-05 0)
(0.00596328 0.000332478 0)
(0.00593242 0.000606532 0)
(0.00588477 0.000876979 0)
(0.00582057 0.00114243 0)
(0.00574012 0.0014015 0)
(0.00564379 0.00165285 0)
(0.00553203 0.00189514 0)
(0.00540534 0.00212706 0)
(0.0052643 0.00234734 0)
(0.00510957 0.00255471 0)
(0.00494185 0.00274796 0)
(0.00476194 0.0029259 0)
(0.00457069 0.00308736 0)
(0.00436902 0.00323124 0)
(0.00415793 0.00335647 0)
(0.00393848 0.00346201 0)
(0.0037118 0.00354691 0)
(0.0034791 0.00361025 0)
(0.00324165 0.00365119 0)
(0.00300078 0.00366894 0)
(0.00275791 0.00366282 0)
(0.00251451 0.0036322 0)
(0.00227212 0.00357659 0)
(0.00203237 0.00349557 0)
(0.00179692 0.00338885 0)
(0.00156752 0.00325624 0)
(0.00134597 0.00309773 0)
(0.00113415 0.00291341 0)
(0.000933974 0.00270356 0)
(0.000747435 0.00246861 0)
(0.00057657 0.00220918 0)
(0.000423464 0.00192607 0)
(0.00029022 0.00162028 0)
(0.000178992 0.00129304 0)
(9.2238e-05 0.000945774 0)
(3.30685e-05 0.000580169 0)
(2.45876e-06 0.000198191 0)
(2.75133e-06 -0.000233697 0)
(3.70056e-05 -0.000683801 0)
(0.000103203 -0.00111423 0)
(0.000200207 -0.00152259 0)
(0.000324471 -0.00190681 0)
(0.000473153 -0.00226511 0)
(0.000643749 -0.00259599 0)
(0.000833797 -0.0028982 0)
(0.00104085 -0.00317073 0)
(0.00126253 -0.00341282 0)
(0.0014965 -0.00362394 0)
(0.0017405 -0.00380379 0)
(0.00199237 -0.00395226 0)
(0.00225001 -0.00406943 0)
(0.00251141 -0.00415559 0)
(0.00277464 -0.00421117 0)
(0.00303789 -0.00423678 0)
(0.00329942 -0.00423314 0)
(0.00355758 -0.00420112 0)
(0.00381083 -0.00414172 0)
(0.00405772 -0.00405601 0)