/*--------------------------------*- C++ -*----------------------------------*\
  =========                 |
  \\      /  F ield         | OpenFOAM: The Open Source CFD Toolbox
   \\    /   O peration     | Website:  https://openfoam.org
    \\  /    A nd           | Version:  12
     \\/     M anipulation  |
\*---------------------------------------------------------------------------*/
FoamFile
{
    format      ascii;
    class       volScalarField;
    location    "1.1";
    object      p;
}
// * * * * * * * * * * * * * * * * * * * * * * * * * * * * * * * * * * * * * //

dimensions      [0 2 -2 0 0 0 0];

internalField   nonuniform List<scalar> 
400
(
3.36865e-08
0.000377367
0.000551457
0.000299317
-0.000383028
-0.0014432
-0.00281646
-0.00443258
-0.00621951
-0.00810732
-0.0100284
-0.0119166
-0.0137041
-0.0153209
-0.0166948
-0.0177554
-0.0184377
-0.0186893
-0.0185144
-0.0181364
-0.00029325
0.000166893
0.000360623
7.66686e-05
-0.000634926
-0.00169743
-0.00304412
-0.00461054
-0.00633204
-0.00814544
-0.00998924
-0.0118028
-0.0135247
-0.0150915
-0.0164385
-0.017501
-0.0182123
-0.0184954
-0.0183006
-0.0178394
0.00137108
0.00176776
0.00181543
0.00131421
0.000363749
-0.000927508
-0.00248047
-0.00422887
-0.00611159
-0.00807265
-0.0100595
-0.0120208
-0.013904
-0.0156528
-0.0172061
-0.0184972
-0.019447
-0.0199468
-0.0198971
-0.0194984
0.00584414
0.00584697
0.0053794
0.0043226
0.00281579
0.000993502
-0.00105018
-0.00324746
-0.00553903
-0.00788373
-0.0102456
-0.0125912
-0.0148843
-0.0170816
-0.0191266
-0.0209494
-0.0224553
-0.0235098
-0.0239735
-0.0239665
0.0136847
0.0127683
0.0112028
0.0090836
0.00659177
0.00387879
0.00104897
-0.0018312
-0.00472475
-0.00761735
-0.0105087
-0.013403
-0.0162996
-0.0191833
-0.0220165
-0.0247317
-0.0272234
-0.0293392
-0.0308976
-0.0318057
0.025553
0.0228922
0.0193493
0.0154472
0.0114101
0.00738759
0.00348176
-0.000262596
-0.00385323
-0.00733672
-0.0107833
-0.0142706
-0.0178684
-0.0216219
-0.0255371
-0.0295671
-0.0336075
-0.0375061
-0.0410368
-0.043682
0.0419917
0.0363032
0.0294594
0.022764
0.0164746
0.0106963
0.00549709
0.000863233
-0.00330512
-0.00717113
-0.0109351
-0.0148092
-0.0189929
-0.023647
-0.0288684
-0.0346667
-0.0409691
-0.0476643
-0.05449
-0.0601523
0.0629975
0.0523321
0.0402583
0.0294085
0.0200361
0.012115
0.00561702
0.000402304
-0.0038022
-0.00736684
-0.0107174
-0.0142974
-0.0185314
-0.0237865
-0.0303311
-0.0382981
-0.0477064
-0.0585694
-0.070623
-0.0812491
0.0872105
0.0687321
0.0487293
0.0319932
0.0186834
0.00848255
0.00115032
-0.0036944
-0.0066283
-0.00836898
-0.00971213
-0.0114784
-0.0144623
-0.0193785
-0.0267979
-0.0370914
-0.0504835
-0.067268
-0.0872619
-0.105692
0.110522
0.0802885
0.0487819
0.024149
0.00627531
-0.00572823
-0.0125151
-0.014896
-0.0139503
-0.0109478
-0.00726027
-0.00429205
-0.00341632
-0.00590381
-0.012831
-0.024998
-0.0430352
-0.0677918
-0.0993361
-0.129534
0.123804
0.0766281
0.0292127
-0.00528884
-0.0276054
-0.0396707
-0.0428892
-0.0387959
-0.0292619
-0.01639
-0.0024009
0.0104458
0.0199193
0.0239015
0.0205083
0.00820458
-0.0143898
-0.0491503
-0.0967237
-0.143939
0.109332
0.038848
-0.029328
-0.0748795
-0.0997774
-0.10779
-0.101628
-0.0839947
-0.0579469
-0.0267712
0.00614188
0.0373627
0.0634688
0.0811182
0.0871951
0.0789527
0.0536809
0.00767598
-0.0609046
-0.131637
0.0352339
-0.0655804
-0.158742
-0.214148
-0.236191
-0.231807
-0.205914
-0.163027
-0.107874
-0.0452927
0.0198624
0.0827169
0.138335
0.181729
0.208007
0.212496
0.190185
0.134154
0.0401765
-0.0613302
-0.153221
-0.29056
-0.409783
-0.468218
-0.475007
-0.442563
-0.379453
-0.292863
-0.189671
-0.0764964
0.0402661
0.154272
0.258942
0.347319
0.412172
0.445902
0.439589
0.380662
0.260106
0.1213
-0.548531
-0.723882
-0.861032
-0.903103
-0.868888
-0.780289
-0.651676
-0.493831
-0.315927
-0.126121
0.0681987
0.259829
0.441161
0.603675
0.737331
0.830307
0.867305
0.825902
0.687175
0.509315
-1.31218
-1.51089
-1.63331
-1.61139
-1.4843
-1.29023
-1.05186
-0.783763
-0.496614
-0.198538
0.1042
0.405941
0.700068
0.977654
1.22665
1.43091
1.56614
1.59243
1.46963
1.2677
-2.73138
-2.89141
-2.90674
-2.71189
-2.38976
-2.00562
-1.5914
-1.16332
-0.729309
-0.292044
0.148342
0.592221
1.03856
1.48301
1.91601
2.31975
2.65927
2.86618
2.85525
2.69339
-5.33452
-5.25661
-4.90856
-4.30771
-3.61165
-2.91183
-2.23962
-1.60023
-0.988309
-0.392891
0.199833
0.804361
1.43407
2.09878
2.80156
3.53313
4.25772
4.88106
5.24224
5.32428
-11.1826
-9.54073
-7.66715
-6.05721
-4.724
-3.6043
-2.65476
-1.83637
-1.10859
-0.431982
0.231225
0.918074
1.66654
2.5156
3.50456
4.66978
6.0497
7.69915
9.60202
11.2636
-29.316
-19.966
-13.208
-9.10226
-6.39378
-4.46385
-3.05231
-1.99195
-1.15159
-0.428671
0.260501
0.995048
1.85884
2.95379
4.41246
6.40296
9.18326
13.3626
20.1807
29.568
)
;

boundaryField
{
    movingWall
    {
        type            zeroGradient;
    }
    fixedWalls
    {
        type            zeroGradient;
    }
    frontAndBack
    {
        type            empty;
    }
}


// ************************************************************************* //
