/*--------------------------------*- C++ -*----------------------------------*\
  =========                 |
  \\      /  F ield         | OpenFOAM: The Open Source CFD Toolbox
   \\    /   O peration     | Website:  https://openfoam.org
    \\  /    A nd           | Version:  12
     \\/     M anipulation  |
\*---------------------------------------------------------------------------*/
FoamFile
{
    format      ascii;
    class       volVectorField;
    location    "1.75";
    object      U;
}
// * * * * * * * * * * * * * * * * * * * * * * * * * * * * * * * * * * * * * //

dimensions      [0 1 -1 0 0 0 0];

internalField   nonuniform List<vector> 
400
(
(2.45763e-06 -4.92666e-06 0)
(2.27335e-05 -1.4066e-05 0)
(5.74453e-05 -2.00368e-05 0)
(0.000100698 -2.23186e-05 0)
(0.000145323 -2.17625e-05 0)
(0.00018642 -1.92742e-05 0)
(0.000221069 -1.56185e-05 0)
(0.000247701 -1.13633e-05 0)
(0.000265619 -6.86454e-06 0)
(0.000274608 -2.29766e-06 0)
(0.00027464 2.28017e-06 0)
(0.000265707 6.85156e-06 0)
(0.00024783 1.13583e-05 0)
(0.000221215 1.56227e-05 0)
(0.000186559 1.92867e-05 0)
(0.000145435 2.178e-05 0)
(0.000100771 2.23357e-05 0)
(5.74806e-05 2.00481e-05 0)
(2.2743e-05 1.40671e-05 0)
(2.45745e-06 4.92027e-06 0)
(6.61463e-06 -4.47307e-05 0)
(5.28088e-05 -0.000110159 0)
(0.000121328 -0.000148794 0)
(0.000200581 -0.000162658 0)
(0.000278449 -0.000157202 0)
(0.000347483 -0.000138518 0)
(0.00040384 -0.000111901 0)
(0.000445987 -8.12664e-05 0)
(0.000473744 -4.90535e-05 0)
(0.000487494 -1.6443e-05 0)
(0.000487583 1.62189e-05 0)
(0.000473996 4.88717e-05 0)
(0.000446359 8.11596e-05 0)
(0.000404272 0.000111885 0)
(0.000347907 0.000138588 0)
(0.000278806 0.000157334 0)
(0.000200835 0.000162811 0)
(0.000121468 0.000148925 0)
(5.28587e-05 0.000110233 0)
(6.61743e-06 4.47406e-05 0)
(8.29122e-06 -0.000107346 0)
(6.14955e-05 -0.000244532 0)
(0.000132087 -0.000314167 0)
(0.000205643 -0.000330457 0)
(0.000269611 -0.000309078 0)
(0.000318693 -0.000264451 0)
(0.000352541 -0.000208074 0)
(0.000373486 -0.000147781 0)
(0.000384885 -8.7786e-05 0)
(0.000389793 -2.92668e-05 0)
(0.000389979 2.85752e-05 0)
(0.000385411 8.72143e-05 0)
(0.000374267 0.000147423 0)
(0.000353459 0.000207977 0)
(0.000319613 0.000264614 0)
(0.000270404 0.00030944 0)
(0.000206221 0.000330913 0)
(0.00013242 0.000314591 0)
(6.16223e-05 0.000244812 0)
(8.30034e-06 0.000107428 0)
(8.25399e-06 -0.000170858 0)
(4.80469e-05 -0.00036466 0)
(8.42462e-05 -0.000441505 0)
(0.00010278 -0.000436238 0)
(9.60856e-05 -0.000381055 0)
(6.65542e-05 -0.000302553 0)
(2.28268e-05 -0.000220018 0)
(-2.38251e-05 -0.000144828 0)
(-6.22495e-05 -8.09527e-05 0)
(-8.36534e-05 -2.63864e-05 0)
(-8.32824e-05 2.47292e-05 0)
(-6.1195e-05 7.9564e-05 0)
(-2.22587e-05 0.000143926 0)
(2.46841e-05 0.000219728 0)
(6.84463e-05 0.000302879 0)
(9.77432e-05 0.000381874 0)
(0.000104011 0.00043732 0)
(8.49732e-05 0.000442559 0)
(4.83352e-05 0.000365406 0)
(8.27796e-06 0.000171114 0)
(6.27988e-06 -0.000211226 0)
(4.72929e-06 -0.00040321 0)
(-4.66275e-05 -0.000428355 0)
(-0.000156593 -0.000353383 0)
(-0.000319113 -0.000235059 0)
(-0.000515334 -0.000116639 0)
(-0.000719219 -2.62678e-05 0)
(-0.000902861 2.31239e-05 0)
(-0.00104103 3.234e-05 0)
(-0.00111479 1.29686e-05 0)
(-0.00111408 -1.65259e-05 0)
(-0.00103901 -3.53501e-05 0)
(-0.000899826 -2.51318e-05 0)
(-0.000715592 2.55437e-05 0)
(-0.000511619 0.000117232 0)
(-0.000315808 0.000236748 0)
(-0.00015409 0.000355712 0)
(-4.51112e-05 0.00043071 0)
(5.3518e-06 0.000404954 0)
(6.33725e-06 0.000211879 0)
(7.58552e-07 -0.000193198 0)
(-8.76952e-05 -0.000258628 0)
(-0.000312033 -0.000118454 0)
(-0.000667378 0.000111808 0)
(-0.00112002 0.00033991 0)
(-0.00162073 0.000500825 0)
(-0.00211307 0.000557702 0)
(-0.00254097 0.000500806 0)
(-0.00285579 0.000344157 0)
(-0.00302192 0.000120149 0)
(-0.00302066 -0.000127261 0)
(-0.00285216 -0.000350224 0)
(-0.00253546 -0.000504949 0)
(-0.00210641 -0.000559351 0)
(-0.00161382 -0.000499842 0)
(-0.00111377 -0.000336652 0)
(-0.000662546 -0.000107112 0)
(-0.000309029 0.000123374 0)
(-8.64186e-05 0.000262419 0)
(8.86374e-07 0.000194703 0)
(-1.12029e-05 -5.66249e-05 0)
(-0.000261909 0.000236854 0)
(-0.000796549 0.000741515 0)
(-0.00158211 0.00126897 0)
(-0.0025344 0.00167738 0)
(-0.00355227 0.00187494 0)
(-0.00452931 0.0018189 0)
(-0.00536448 0.00151211 0)
(-0.00597229 0.000996427 0)
(-0.00629117 0.000343438 0)
(-0.00628907 -0.000356774 0)
(-0.00596624 -0.00100791 0)
(-0.00535521 -0.00152015 0)
(-0.00451798 -0.00182239 0)
(-0.00354031 -0.0018735 0)
(-0.00252337 -0.0016715 0)
(-0.00157337 -0.00126006 0)
(-0.000790969 -0.000731825 0)
(-0.000259445 -0.00022909 0)
(-1.0933e-05 5.98742e-05 0)
(-3.42056e-05 0.000298391 0)
(-0.000567621 0.00135348 0)
(-0.00162633 0.00255151 0)
(-0.00312485 0.00359937 0)
(-0.00489273 0.00428927 0)
(-0.0067445 0.00449963 0)
(-0.00849576 0.00418991 0)
(-0.00997684 0.00339255 0)
(-0.0110471 0.0022011 0)
(-0.0116066 0.000754956 0)
(-0.0116034 -0.000778244 0)
(-0.0110381 -0.00222139 0)
(-0.00996288 -0.00340716 0)
(-0.00847836 -0.00419684 0)
(-0.00672571 -0.00449796 0)
(-0.00487491 -0.00427947 0)
(-0.0031103 -0.0035836 0)
(-0.0016167 -0.0025336 0)
(-0.000563179 -0.00133851 0)
(-3.36734e-05 -0.000291795 0)
(-7.52034e-05 0.00103076 0)
(-0.00107585 0.00350949 0)
(-0.00297779 0.0059188 0)
(-0.00560399 0.00782225 0)
(-0.00864354 0.00893038 0)
(-0.0117802 0.00909506 0)
(-0.0147132 0.00829584 0)
(-0.0171731 0.00662383 0)
(-0.0189408 0.00426137 0)
(-0.0198624 0.0014581 0)
(-0.0198586 -0.00149524 0)
(-0.0189298 -0.00429421 0)
(-0.0171555 -0.00664836 0)
(-0.0146905 -0.00830872 0)
(-0.0117548 -0.00909424 0)
(-0.00861829 -0.00891582 0)
(-0.00558239 -0.00779666 0)
(-0.00296278 -0.00588809 0)
(-0.00106852 -0.00348254 0)
(-7.42278e-05 -0.0010182 0)
(-0.000144209 0.00238234 0)
(-0.00188288 0.00732489 0)
(-0.00508369 0.0117257 0)
(-0.00941751 0.0149644 0)
(-0.0143543 0.0166616 0)
(-0.0193835 0.0166599 0)
(-0.0240388 0.014994 0)
(-0.0279139 0.0118612 0)
(-0.0306846 0.0075879 0)
(-0.0321262 0.00259368 0)
(-0.0321235 -0.0026455 0)
(-0.0306765 -0.00763483 0)
(-0.0278997 -0.0118982 0)
(-0.0240185 -0.0150161 0)
(-0.0193581 -0.0166629 0)
(-0.0143263 -0.0166437 0)
(-0.00939117 -0.0149277 0)
(-0.00506369 -0.011678 0)
(-0.00187219 -0.00728023 0)
(-0.000142579 -0.00236011 0)
(-0.000255139 0.00470588 0)
(-0.00311239 0.0136782 0)
(-0.00823118 0.0211936 0)
(-0.0150393 0.0264158 0)
(-0.0226776 0.0288896 0)
(-0.0303602 0.0284937 0)
(-0.0373987 0.0253827 0)
(-0.043212 0.0199343 0)
(-0.0473472 0.0126975 0)
(-0.0494951 0.00434054 0)
(-0.0494984 -0.00439681 0)
(-0.0473558 -0.0127511 0)
(-0.0432216 -0.0199812 0)
(-0.037404 -0.0254167 0)
(-0.0303572 -0.0285073 0)
(-0.0226651 -0.0288763 0)
(-0.0150204 -0.0263737 0)
(-0.00821216 -0.0211298 0)
(-0.00309991 -0.0136122 0)
(-0.000252752 -0.00467001 0)
(-0.000426868 0.00849491 0)
(-0.00491426 0.0237556 0)
(-0.0127447 0.0359193 0)
(-0.0229688 0.0439361 0)
(-0.0342518 0.0473385 0)
(-0.0454382 0.046141 0)
(-0.0555653 0.040732 0)
(-0.0638534 0.0317826 0)
(-0.0697134 0.0201688 0)
(-0.0727522 0.00690251 0)
(-0.0727719 -0.00692583 0)
(-0.0697681 -0.020199 0)
(-0.0639309 -0.0318222 0)
(-0.0556487 -0.0407762 0)
(-0.0455105 -0.0461778 0)
(-0.0343008 -0.0473516 0)
(-0.0229907 -0.0439121 0)
(-0.0127457 -0.0358569 0)
(-0.00490693 -0.0236751 0)
(-0.000424097 -0.00844424 0)
(-0.000685057 0.014413 0)
(-0.00746007 0.039072 0)
(-0.018945 0.0578416 0)
(-0.0336176 0.069544 0)
(-0.0494836 0.0738684 0)
(-0.0649278 0.0711662 0)
(-0.0786943 0.0622527 0)
(-0.089825 0.0482573 0)
(-0.0976316 0.030511 0)
(-0.101672 0.0104651 0)
(-0.101726 -0.0103653 0)
(-0.0977842 -0.0304424 0)
(-0.0900494 -0.0482411 0)
(-0.078952 -0.0622927 0)
(-0.0651763 -0.0712461 0)
(-0.0496857 -0.0739552 0)
(-0.0337513 -0.0695984 0)
(-0.0190097 -0.0578362 0)
(-0.00747604 -0.0390126 0)
(-0.00068356 -0.014357 0)
(-0.00106703 0.0233248 0)
(-0.0109404 0.0614391 0)
(-0.0270739 0.0890618 0)
(-0.0470894 0.105169 0)
(-0.068126 0.109991 0)
(-0.0880724 0.104601 0)
(-0.105454 0.0905592 0)
(-0.119257 0.0696764 0)
(-0.128821 0.0438722 0)
(-0.133753 0.0150971 0)
(-0.133866 -0.0146962 0)
(-0.129143 -0.0435508 0)
(-0.11974 -0.0694959 0)
(-0.106026 -0.090548 0)
(-0.0886512 -0.104746 0)
(-0.0686293 -0.110234 0)
(-0.0474569 -0.105423 0)
(-0.0272831 -0.0892404 0)
(-0.0110166 -0.0614963 0)
(-0.00107104 -0.023299 0)
(-0.00164051 0.0363528 0)
(-0.0155805 0.0928427 0)
(-0.0371614 0.131385 0)
(-0.0627544 0.151846 0)
(-0.0884732 0.155826 0)
(-0.111848 0.145819 0)
(-0.131472 0.124615 0)
(-0.146591 0.0949735 0)
(-0.156848 0.0594851 0)
(-0.162098 0.020548 0)
(-0.162289 -0.019579 0)
(-0.157401 -0.0586803 0)
(-0.147438 -0.0944641 0)
(-0.132502 -0.124468 0)
(-0.112926 -0.146042 0)
(-0.0894542 -0.156341 0)
(-0.0635155 -0.152499 0)
(-0.037633 -0.131982 0)
(-0.0157776 -0.093215 0)
(-0.00165872 -0.0364443 0)
(-0.0025352 0.0549614 0)
(-0.0216608 0.135071 0)
(-0.0486847 0.185217 0)
(-0.0782944 0.207986 0)
(-0.105723 0.208039 0)
(-0.128729 0.190467 0)
(-0.146664 0.159924 0)
(-0.159625 0.120323 0)
(-0.168016 0.0748081 0)
(-0.17223 0.0259449 0)
(-0.172485 -0.02408 0)
(-0.168757 -0.0732001 0)
(-0.160775 -0.119203 0)
(-0.148103 -0.159472 0)
(-0.1303 -0.190734 0)
(-0.107232 -0.208945 0)
(-0.0795442 -0.209287 0)
(-0.0495211 -0.186572 0)
(-0.0220486 -0.136088 0)
(-0.00258274 -0.0553349 0)
(-0.00382061 0.0812796 0)
(-0.0292147 0.188864 0)
(-0.0591988 0.247028 0)
(-0.0869777 0.265824 0)
(-0.108153 0.256176 0)
(-0.12225 0.2273 0)
(-0.13066 0.186118 0)
(-0.135132 0.137462 0)
(-0.137222 0.0845408 0)
(-0.13808 0.0294135 0)
(-0.138301 -0.0265022 0)
(-0.13788 -0.0819842 0)
(-0.136199 -0.135582 0)
(-0.13208 -0.185164 0)
(-0.123895 -0.227422 0)
(-0.109823 -0.257361 0)
(-0.0884765 -0.267856 0)
(-0.0602982 -0.249411 0)
(-0.0297874 -0.19087 0)
(-0.00390065 -0.0821411 0)
(-0.00567738 0.121377 0)
(-0.0361692 0.252318 0)
(-0.0587989 0.30271 0)
(-0.0690536 0.30332 0)
(-0.0675332 0.27566 0)
(-0.0583177 0.233221 0)
(-0.0457642 0.183969 0)
(-0.033431 0.132215 0)
(-0.0238561 0.0799581 0)
(-0.0186517 0.0278162 0)
(-0.0186134 -0.0243194 0)
(-0.0237722 -0.0767881 0)
(-0.0333838 -0.129712 0)
(-0.0458607 -0.182475 0)
(-0.0586517 -0.233033 0)
(-0.0681453 -0.276928 0)
(-0.0698364 -0.305889 0)
(-0.0595169 -0.30613 0)
(-0.0366594 -0.255632 0)
(-0.00579186 -0.123022 0)
(-0.0145068 0.185289 0)
(-0.0304637 0.315803 0)
(-0.00974727 0.32553 0)
(0.033489 0.28937 0)
(0.0837751 0.238961 0)
(0.13211 0.18716 0)
(0.173939 0.138915 0)
(0.206803 0.0954228 0)
(0.229365 0.0560559 0)
(0.240984 0.0193562 0)
(0.241396 -0.0164658 0)
(0.230557 -0.0533019 0)
(0.20864 -0.0929831 0)
(0.176205 -0.137028 0)
(0.134495 -0.186151 0)
(0.0859322 -0.23919 0)
(0.0350922 -0.291072 0)
(-0.00894819 -0.32851 0)
(-0.0302889 -0.319063 0)
(-0.0145628 -0.187185 0)
(0.102254 0.097845 0)
(0.170891 0.136615 0)
(0.285787 0.116744 0)
(0.399393 0.0889078 0)
(0.490753 0.0651395 0)
(0.559866 0.0463299 0)
(0.610715 0.0317471 0)
(0.646389 0.0204721 0)
(0.669079 0.0115094 0)
(0.680251 0.00389583 0)
(0.680635 -0.00327094 0)
(0.670278 -0.0108174 0)
(0.648323 -0.0197197 0)
(0.61331 -0.0309178 0)
(0.562973 -0.0454405 0)
(0.494121 -0.064261 0)
(0.402646 -0.0881788 0)
(0.28839 -0.116392 0)
(0.172343 -0.136867 0)
(0.102609 -0.0984018 0)
)
;

boundaryField
{
    movingWall
    {
        type            fixedValue;
        value           uniform (1 0 0);
    }
    fixedWalls
    {
        type            noSlip;
    }
    frontAndBack
    {
        type            empty;
    }
}


// ************************************************************************* //
