/*--------------------------------*- C++ -*----------------------------------*\
  =========                 |
  \\      /  F ield         | OpenFOAM: The Open Source CFD Toolbox
   \\    /   O peration     | Website:  https://openfoam.org
    \\  /    A nd           | Version:  12
     \\/     M anipulation  |
\*---------------------------------------------------------------------------*/
FoamFile
{
    format      ascii;
    class       volScalarField;
    location    "2.5";
    object      k;
}
// * * * * * * * * * * * * * * * * * * * * * * * * * * * * * * * * * * * * * //

dimensions      [0 2 -2 0 0 0 0];

internalField   nonuniform List<scalar> 
18225
(
5.00972e-10
2.50353e-09
5.4788e-09
9.05146e-09
1.30542e-08
1.73882e-08
2.19836e-08
2.6786e-08
3.17512e-08
3.68421e-08
4.20274e-08
4.72807e-08
5.25792e-08
5.79044e-08
6.32407e-08
6.85759e-08
7.39004e-08
7.92072e-08
8.44917e-08
8.97515e-08
9.4986e-08
1.00196e-07
1.05385e-07
1.10555e-07
1.15712e-07
1.2086e-07
1.26006e-07
1.31156e-07
1.36314e-07
1.41487e-07
1.46681e-07
1.51899e-07
1.57147e-07
1.62427e-07
1.67742e-07
1.73094e-07
1.78483e-07
1.83909e-07
1.89371e-07
1.94867e-07
2.00393e-07
2.05945e-07
2.11519e-07
2.17107e-07
2.22703e-07
2.28298e-07
2.33885e-07
2.39453e-07
2.44992e-07
2.5049e-07
2.55935e-07
2.61314e-07
2.66612e-07
2.71816e-07
2.76908e-07
2.81874e-07
2.86696e-07
2.91356e-07
2.95836e-07
3.00116e-07
3.04178e-07
3.08002e-07
3.11567e-07
3.14853e-07
3.1784e-07
3.20508e-07
3.22835e-07
3.24803e-07
3.26394e-07
3.27589e-07
3.28367e-07
3.28712e-07
3.28626e-07
3.28087e-07
3.27082e-07
3.25603e-07
3.23643e-07
3.21197e-07
3.18265e-07
3.14849e-07
3.10953e-07
3.06584e-07
3.01754e-07
2.96475e-07
2.90765e-07
2.84644e-07
2.78132e-07
2.71256e-07
2.64043e-07
2.56522e-07
2.48726e-07
2.40687e-07
2.3244e-07
2.24021e-07
2.15465e-07
2.0681e-07
1.98092e-07
1.89346e-07
1.80607e-07
1.71909e-07
1.63284e-07
1.54763e-07
1.46373e-07
1.3814e-07
1.30089e-07
1.22241e-07
1.14613e-07
1.07221e-07
1.00078e-07
9.31951e-08
8.65793e-08
8.02359e-08
7.41676e-08
6.83753e-08
6.28575e-08
5.76104e-08
5.26289e-08
4.79067e-08
4.34359e-08
3.92078e-08
3.52129e-08
3.14414e-08
2.78832e-08
2.45283e-08
2.13674e-08
1.8392e-08
1.55948e-08
1.2971e-08
1.0518e-08
8.23742e-09
6.1363e-09
4.23037e-09
2.55081e-09
1.16312e-09
2.32629e-10
2.50502e-09
2.15529e-08
4.86979e-08
8.10099e-08
1.17123e-07
1.56189e-07
1.97591e-07
2.40847e-07
2.85562e-07
3.31402e-07
3.78087e-07
4.25377e-07
4.73071e-07
5.21e-07
5.69028e-07
6.17041e-07
6.64956e-07
7.12709e-07
7.6026e-07
8.07587e-07
8.54683e-07
9.01561e-07
9.48241e-07
9.94757e-07
1.04115e-06
1.08747e-06
1.13376e-06
1.18009e-06
1.2265e-06
1.27304e-06
1.31976e-06
1.36671e-06
1.41392e-06
1.46142e-06
1.50925e-06
1.5574e-06
1.60589e-06
1.65471e-06
1.70386e-06
1.75331e-06
1.80303e-06
1.85299e-06
1.90314e-06
1.95343e-06
2.00378e-06
2.05414e-06
2.10441e-06
2.15452e-06
2.20437e-06
2.25385e-06
2.30285e-06
2.35126e-06
2.39895e-06
2.44578e-06
2.49162e-06
2.53632e-06
2.57972e-06
2.62167e-06
2.66199e-06
2.70053e-06
2.7371e-06
2.77153e-06
2.80363e-06
2.83323e-06
2.86013e-06
2.88415e-06
2.90512e-06
2.92285e-06
2.93716e-06
2.94788e-06
2.95483e-06
2.95788e-06
2.95706e-06
2.95217e-06
2.94308e-06
2.92973e-06
2.91204e-06
2.88998e-06
2.86356e-06
2.83277e-06
2.79767e-06
2.75832e-06
2.71482e-06
2.66728e-06
2.61587e-06
2.56076e-06
2.50214e-06
2.44025e-06
2.37532e-06
2.30764e-06
2.23747e-06
2.16513e-06
2.09092e-06
2.01516e-06
1.93818e-06
1.86031e-06
1.78187e-06
1.70318e-06
1.62455e-06
1.5463e-06
1.46871e-06
1.39205e-06
1.31657e-06
1.24251e-06
1.17008e-06
1.09948e-06
1.03086e-06
9.64362e-07
9.0011e-07
8.38194e-07
7.78682e-07
7.21621e-07
6.67035e-07
6.14927e-07
5.65284e-07
5.18078e-07
4.73264e-07
4.30784e-07
3.90567e-07
3.52535e-07
3.16602e-07
2.82679e-07
2.50674e-07
2.20499e-07
1.92067e-07
1.65303e-07
1.40142e-07
1.16536e-07
9.44643e-08
7.39377e-08
5.50171e-08
3.78373e-08
2.26597e-08
1.00083e-08
1.16264e-09
5.49545e-09
4.88137e-08
1.11231e-07
1.85815e-07
2.69268e-07
3.59564e-07
4.55258e-07
5.55228e-07
6.58556e-07
7.64474e-07
8.72334e-07
9.81583e-07
1.09176e-06
1.20247e-06
1.3134e-06
1.42429e-06
1.53494e-06
1.64522e-06
1.75502e-06
1.8643e-06
1.97305e-06
2.0813e-06
2.18908e-06
2.2965e-06
2.40363e-06
2.51059e-06
2.6175e-06
2.72449e-06
2.83168e-06
2.93918e-06
3.04712e-06
3.15558e-06
3.26466e-06
3.37442e-06
3.48493e-06
3.5962e-06
3.70827e-06
3.82111e-06
3.9347e-06
4.049e-06
4.16393e-06
4.27941e-06
4.39532e-06
4.51154e-06
4.62793e-06
4.7443e-06
4.86049e-06
4.97628e-06
5.09145e-06
5.20576e-06
5.31896e-06
5.43077e-06
5.54089e-06
5.64902e-06
5.75484e-06
5.85799e-06
5.95814e-06
6.0549e-06
6.14789e-06
6.23673e-06
6.321e-06
6.40029e-06
6.47419e-06
6.54228e-06
6.60413e-06
6.65931e-06
6.70743e-06
6.74805e-06
6.7808e-06
6.80528e-06
6.82105e-06
6.82775e-06
6.82562e-06
6.81404e-06
6.79279e-06
6.76166e-06
6.72054e-06
6.66934e-06
6.60805e-06
6.53671e-06
6.45542e-06
6.36432e-06
6.26366e-06
6.15371e-06
6.03482e-06
5.90739e-06
5.7719e-06
5.62886e-06
5.47885e-06
5.32248e-06
5.16041e-06
4.99333e-06
4.82196e-06
4.64703e-06
4.46931e-06
4.28954e-06
4.10848e-06
3.92687e-06
3.74543e-06
3.56486e-06
3.38582e-06
3.20895e-06
3.03483e-06
2.86399e-06
2.69693e-06
2.53408e-06
2.37583e-06
2.22248e-06
2.07432e-06
1.93155e-06
1.79434e-06
1.66278e-06
1.53694e-06
1.41682e-06
1.3024e-06
1.19359e-06
1.09031e-06
9.924e-07
8.99712e-07
8.12059e-07
7.29245e-07
6.51062e-07
5.773e-07
5.07751e-07
4.42219e-07
3.80525e-07
3.22521e-07
2.68099e-07
2.17205e-07
1.69868e-07
1.26232e-07
8.66166e-08
5.16551e-08
2.26226e-08
2.54544e-09
9.11819e-09
8.15496e-08
1.86606e-07
3.12611e-07
4.53852e-07
6.06797e-07
7.68939e-07
9.38343e-07
1.11344e-06
1.29291e-06
1.47567e-06
1.66076e-06
1.84741e-06
2.03495e-06
2.22284e-06
2.41066e-06
2.59806e-06
2.78482e-06
2.97076e-06
3.15581e-06
3.33996e-06
3.52325e-06
3.70577e-06
3.88766e-06
4.06909e-06
4.25024e-06
4.43133e-06
4.61256e-06
4.79414e-06
4.97629e-06
5.15918e-06
5.34299e-06
5.52786e-06
5.71392e-06
5.90124e-06
6.08989e-06
6.27988e-06
6.4712e-06
6.6638e-06
6.8576e-06
7.05247e-06
7.24825e-06
7.44477e-06
7.64179e-06
7.83907e-06
8.03631e-06
8.23319e-06
8.42937e-06
8.62447e-06
8.81807e-06
9.00974e-06
9.19901e-06
9.38537e-06
9.56831e-06
9.74728e-06
9.92169e-06
1.00909e-05
1.02544e-05
1.04114e-05
1.05614e-05
1.07035e-05
1.08372e-05
1.09617e-05
1.10764e-05
1.11804e-05
1.12731e-05
1.13538e-05
1.14218e-05
1.14765e-05
1.15172e-05
1.15431e-05
1.15536e-05
1.15493e-05
1.1529e-05
1.14922e-05
1.14388e-05
1.13685e-05
1.12811e-05
1.11767e-05
1.10553e-05
1.09171e-05
1.07623e-05
1.05913e-05
1.04047e-05
1.0203e-05
9.98681e-06
9.75705e-06
9.51456e-06
9.2603e-06
8.99532e-06
8.72074e-06
8.43773e-06
8.1475e-06
7.85132e-06
7.55044e-06
7.24615e-06
6.93972e-06
6.63241e-06
6.32544e-06
6.01999e-06
5.71719e-06
5.41809e-06
5.12368e-06
4.83488e-06
4.5525e-06
4.27728e-06
4.00986e-06
3.75078e-06
3.50048e-06
3.25933e-06
3.02759e-06
2.80543e-06
2.59295e-06
2.39015e-06
2.19699e-06
2.01333e-06
1.839e-06
1.67376e-06
1.51734e-06
1.36941e-06
1.22966e-06
1.09773e-06
9.73256e-07
8.5589e-07
7.45299e-07
6.41182e-07
5.43286e-07
4.51429e-07
3.65525e-07
2.8563e-07
2.11998e-07
1.452e-07
8.63496e-08
3.76588e-08
4.20825e-09
1.32335e-08
1.18645e-07
2.72107e-07
4.56689e-07
6.63951e-07
8.88611e-07
1.12691e-06
1.37595e-06
1.63338e-06
1.89727e-06
2.16598e-06
2.43811e-06
2.71251e-06
2.98821e-06
3.2644e-06
3.54046e-06
3.8159e-06
4.09037e-06
4.36364e-06
4.63559e-06
4.90621e-06
5.17557e-06
5.44381e-06
5.71113e-06
5.9778e-06
6.24408e-06
6.5103e-06
6.77676e-06
7.04378e-06
7.31165e-06
7.58066e-06
7.85106e-06
8.12304e-06
8.3968e-06
8.67244e-06
8.95004e-06
9.22963e-06
9.51117e-06
9.79458e-06
1.00797e-05
1.03664e-05
1.06545e-05
1.09435e-05
1.12332e-05
1.15233e-05
1.18132e-05
1.21025e-05
1.23907e-05
1.26771e-05
1.29613e-05
1.32426e-05
1.35202e-05
1.37934e-05
1.40615e-05
1.43236e-05
1.4579e-05
1.48266e-05
1.50656e-05
1.52951e-05
1.55141e-05
1.57216e-05
1.59165e-05
1.60979e-05
1.62647e-05
1.64159e-05
1.65505e-05
1.66675e-05
1.67658e-05
1.68445e-05
1.69027e-05
1.6939e-05
1.6953e-05
1.69453e-05
1.69141e-05
1.68588e-05
1.67791e-05
1.66746e-05
1.65451e-05
1.63907e-05
1.62114e-05
1.60074e-05
1.57792e-05
1.55273e-05
1.52524e-05
1.49554e-05
1.46374e-05
1.42994e-05
1.39427e-05
1.35689e-05
1.31793e-05
1.27758e-05
1.23599e-05
1.19335e-05
1.14984e-05
1.10566e-05
1.06098e-05
1.01599e-05
9.7089e-06
9.25844e-06
8.81031e-06
8.36616e-06
7.92754e-06
7.49589e-06
7.07256e-06
6.65874e-06
6.25549e-06
5.86375e-06
5.48432e-06
5.11783e-06
4.7648e-06
4.4256e-06
4.1005e-06
3.78961e-06
3.49294e-06
3.21041e-06
2.94181e-06
2.68689e-06
2.44528e-06
2.21659e-06
2.00034e-06
1.79605e-06
1.60318e-06
1.42123e-06
1.24967e-06
1.088e-06
9.35796e-07
7.92682e-07
6.58396e-07
5.32823e-07
4.16055e-07
3.0849e-07
2.10996e-07
1.25246e-07
5.44978e-08
6.07501e-09
1.77747e-08
1.59539e-07
3.66381e-07
6.15665e-07
8.95992e-07
1.20015e-06
1.52297e-06
1.86046e-06
2.20941e-06
2.56715e-06
2.93143e-06
3.30036e-06
3.67235e-06
4.04608e-06
4.42047e-06
4.79466e-06
5.16799e-06
5.53998e-06
5.91033e-06
6.27889e-06
6.64564e-06
7.01069e-06
7.37424e-06
7.73657e-06
8.09804e-06
8.45903e-06
8.81996e-06
9.18128e-06
9.54339e-06
9.90671e-06
1.02716e-05
1.06384e-05
1.10074e-05
1.13788e-05
1.17528e-05
1.21295e-05
1.25088e-05
1.28907e-05
1.32751e-05
1.36618e-05
1.40505e-05
1.44408e-05
1.48325e-05
1.52249e-05
1.56176e-05
1.601e-05
1.64013e-05
1.6791e-05
1.71781e-05
1.7562e-05
1.79416e-05
1.83161e-05
1.86844e-05
1.90456e-05
1.93985e-05
1.9742e-05
2.0075e-05
2.03961e-05
2.07041e-05
2.09978e-05
2.12758e-05
2.15368e-05
2.17794e-05
2.20022e-05
2.22039e-05
2.23831e-05
2.25385e-05
2.26687e-05
2.27725e-05
2.28487e-05
2.2895e-05
2.29116e-05
2.28989e-05
2.28546e-05
2.27779e-05
2.26681e-05
2.2525e-05
2.23483e-05
2.21378e-05
2.18939e-05
2.16167e-05
2.13068e-05
2.0965e-05
2.05921e-05
2.01895e-05
1.97584e-05
1.93004e-05
1.88172e-05
1.83109e-05
1.77834e-05
1.72369e-05
1.66739e-05
1.60968e-05
1.5508e-05
1.49101e-05
1.43057e-05
1.36972e-05
1.30873e-05
1.24783e-05
1.18725e-05
1.12723e-05
1.06797e-05
1.00967e-05
9.52511e-06
8.96647e-06
8.42227e-06
7.89374e-06
7.38195e-06
6.88776e-06
6.41185e-06
5.95471e-06
5.51666e-06
5.09787e-06
4.69832e-06
4.31789e-06
3.9563e-06
3.61316e-06
3.288e-06
2.98024e-06
2.68927e-06
2.4144e-06
2.15492e-06
1.91013e-06
1.67931e-06
1.46182e-06
1.25704e-06
1.0645e-06
8.83845e-07
7.14933e-07
5.5791e-07
4.13338e-07
2.82421e-07
1.67438e-07
7.27594e-08
8.10141e-09
2.27066e-08
2.03933e-07
4.68714e-07
7.88279e-07
1.14806e-06
1.53877e-06
1.95371e-06
2.38769e-06
2.83652e-06
3.29673e-06
3.7654e-06
4.24007e-06
4.71869e-06
5.19953e-06
5.68121e-06
6.16261e-06
6.64287e-06
7.12139e-06
7.59779e-06
8.07188e-06
8.54364e-06
9.01321e-06
9.48086e-06
9.94698e-06
1.0412e-05
1.08765e-05
1.13409e-05
1.18058e-05
1.22719e-05
1.27395e-05
1.32092e-05
1.36813e-05
1.41563e-05
1.46344e-05
1.51157e-05
1.56004e-05
1.60884e-05
1.65796e-05
1.70739e-05
1.7571e-05
1.80705e-05
1.85718e-05
1.90746e-05
1.95781e-05
2.00816e-05
2.05844e-05
2.10856e-05
2.15842e-05
2.20793e-05
2.25698e-05
2.30545e-05
2.35322e-05
2.40018e-05
2.44618e-05
2.49109e-05
2.53476e-05
2.57705e-05
2.61781e-05
2.65687e-05
2.69407e-05
2.72924e-05
2.76223e-05
2.79286e-05
2.82095e-05
2.84633e-05
2.86885e-05
2.88831e-05
2.90457e-05
2.91747e-05
2.92684e-05
2.93236e-05
2.93416e-05
2.93223e-05
2.92625e-05
2.91614e-05
2.90183e-05
2.88326e-05
2.8604e-05
2.83325e-05
2.80182e-05
2.76614e-05
2.72629e-05
2.68236e-05
2.63447e-05
2.58277e-05
2.52742e-05
2.46863e-05
2.40663e-05
2.34165e-05
2.27397e-05
2.20386e-05
2.13164e-05
2.05762e-05
1.9821e-05
1.90543e-05
1.82793e-05
1.74993e-05
1.67175e-05
1.5937e-05
1.51609e-05
1.43921e-05
1.36332e-05
1.28867e-05
1.21551e-05
1.14403e-05
1.07441e-05
1.00682e-05
9.41396e-06
8.78239e-06
8.17437e-06
7.59051e-06
7.0312e-06
6.49663e-06
5.98677e-06
5.50142e-06
5.04021e-06
4.60263e-06
4.18805e-06
3.79573e-06
3.42484e-06
3.07451e-06
2.74383e-06
2.43187e-06
2.13772e-06
1.86056e-06
1.59961e-06
1.35426e-06
1.12407e-06
9.08879e-07
7.08899e-07
5.24873e-07
3.58364e-07
2.12286e-07
9.21712e-08
1.02564e-08
2.80118e-08
2.51674e-07
5.78749e-07
9.739e-07
1.41919e-06
1.90312e-06
2.41736e-06
2.95542e-06
3.51205e-06
4.08291e-06
4.66434e-06
5.25327e-06
5.84711e-06
6.44372e-06
7.04134e-06
7.63859e-06
8.23441e-06
8.82803e-06
9.419e-06
1.00071e-05
1.05922e-05
1.11747e-05
1.17547e-05
1.23329e-05
1.29097e-05
1.34859e-05
1.4062e-05
1.46388e-05
1.5217e-05
1.57971e-05
1.63798e-05
1.69654e-05
1.75546e-05
1.81474e-05
1.87441e-05
1.93448e-05
1.99495e-05
2.05579e-05
2.11698e-05
2.17848e-05
2.24024e-05
2.30219e-05
2.36427e-05
2.4264e-05
2.48848e-05
2.55041e-05
2.6121e-05
2.67341e-05
2.73423e-05
2.79442e-05
2.85385e-05
2.91237e-05
2.96982e-05
3.02606e-05
3.0809e-05
3.13418e-05
3.18571e-05
3.23532e-05
3.28282e-05
3.32801e-05
3.37069e-05
3.41066e-05
3.44772e-05
3.48166e-05
3.51228e-05
3.53938e-05
3.56274e-05
3.58217e-05
3.59748e-05
3.60849e-05
3.61473e-05
3.61652e-05
3.61371e-05
3.60595e-05
3.59314e-05
3.57517e-05
3.55199e-05
3.52356e-05
3.48987e-05
3.45092e-05
3.40677e-05
3.35749e-05
3.3032e-05
3.24404e-05
3.18019e-05
3.11185e-05
3.03928e-05
2.96274e-05
2.88254e-05
2.799e-05
2.71249e-05
2.62335e-05
2.53199e-05
2.4388e-05
2.34419e-05
2.24855e-05
2.15231e-05
2.05585e-05
1.95957e-05
1.86385e-05
1.76903e-05
1.67547e-05
1.58346e-05
1.49329e-05
1.40522e-05
1.31948e-05
1.23625e-05
1.15572e-05
1.078e-05
1.0032e-05
9.31404e-06
8.62646e-06
7.9695e-06
7.34309e-06
6.74697e-06
6.18065e-06
5.64347e-06
5.13464e-06
4.65322e-06
4.19817e-06
3.7684e-06
3.36277e-06
2.98012e-06
2.61935e-06
2.27941e-06
1.95937e-06
1.65847e-06
1.3762e-06
1.11237e-06
8.67266e-07
6.41821e-07
4.37973e-07
2.59295e-07
1.12521e-07
1.25163e-08
3.36831e-08
3.02702e-07
6.96349e-07
1.17228e-06
1.709e-06
2.29265e-06
2.91317e-06
3.5627e-06
4.23486e-06
4.92436e-06
5.62673e-06
6.33822e-06
7.05568e-06
7.77649e-06
8.49852e-06
9.22006e-06
9.93982e-06
1.06569e-05
1.13707e-05
1.20809e-05
1.27876e-05
1.34909e-05
1.41914e-05
1.48895e-05
1.55859e-05
1.62815e-05
1.69771e-05
1.76734e-05
1.83713e-05
1.90715e-05
1.97747e-05
2.04813e-05
2.11919e-05
2.19068e-05
2.2626e-05
2.33498e-05
2.40778e-05
2.481e-05
2.55458e-05
2.62848e-05
2.70263e-05
2.77696e-05
2.85136e-05
2.92575e-05
3.00001e-05
3.07401e-05
3.14763e-05
3.22073e-05
3.29316e-05
3.36477e-05
3.43538e-05
3.50483e-05
3.57294e-05
3.63952e-05
3.70437e-05
3.76731e-05
3.82812e-05
3.88659e-05
3.94249e-05
3.99562e-05
4.04573e-05
4.0926e-05
4.13599e-05
4.17566e-05
4.21138e-05
4.2429e-05
4.26999e-05
4.29242e-05
4.30996e-05
4.3224e-05
4.32912e-05
4.3307e-05
4.32678e-05
4.31699e-05
4.30119e-05
4.27927e-05
4.25117e-05
4.21683e-05
4.17624e-05
4.12939e-05
4.07636e-05
4.01722e-05
3.9521e-05
3.88117e-05
3.80464e-05
3.72275e-05
3.6358e-05
3.5441e-05
3.44802e-05
3.34794e-05
3.24428e-05
3.13748e-05
3.02801e-05
2.91634e-05
2.80295e-05
2.68834e-05
2.573e-05
2.45741e-05
2.34202e-05
2.22731e-05
2.1137e-05
2.0016e-05
1.89137e-05
1.78337e-05
1.67791e-05
1.57525e-05
1.47564e-05
1.37927e-05
1.28629e-05
1.19684e-05
1.111e-05
1.02882e-05
9.50328e-06
8.75508e-06
8.04327e-06
7.36724e-06
6.72618e-06
6.11908e-06
5.54481e-06
5.00211e-06
4.48962e-06
4.00598e-06
3.54979e-06
3.1197e-06
2.71447e-06
2.33299e-06
1.97435e-06
1.63794e-06
1.32358e-06
1.0316e-06
7.6316e-07
5.20566e-07
3.08067e-07
1.33637e-07
1.48616e-08
3.97208e-08
3.57021e-07
8.21519e-07
1.38343e-06
2.01748e-06
2.70733e-06
3.4411e-06
4.20946e-06
5.00484e-06
5.82091e-06
6.65236e-06
7.4947e-06
8.34414e-06
9.19756e-06
1.00524e-05
1.09066e-05
1.17586e-05
1.26073e-05
1.3452e-05
1.42923e-05
1.51284e-05
1.59604e-05
1.67889e-05
1.76144e-05
1.8438e-05
1.92604e-05
2.00826e-05
2.09056e-05
2.17302e-05
2.25574e-05
2.33878e-05
2.4222e-05
2.50604e-05
2.59035e-05
2.67513e-05
2.76038e-05
2.84608e-05
2.93218e-05
3.01864e-05
3.1054e-05
3.19235e-05
3.27942e-05
3.36648e-05
3.45341e-05
3.54009e-05
3.62636e-05
3.71208e-05
3.79708e-05
3.88119e-05
3.96424e-05
4.04602e-05
4.12635e-05
4.20503e-05
4.28184e-05
4.35657e-05
4.429e-05
4.49888e-05
4.56599e-05
4.63007e-05
4.69088e-05
4.74816e-05
4.80166e-05
4.85109e-05
4.89621e-05
4.93673e-05
4.97239e-05
5.00292e-05
5.02805e-05
5.04753e-05
5.0611e-05
5.06798e-05
5.06912e-05
5.06381e-05
5.05169e-05
5.03263e-05
5.00649e-05
4.97319e-05
4.93266e-05
4.88487e-05
4.82985e-05
4.76763e-05
4.69832e-05
4.62207e-05
4.53905e-05
4.4495e-05
4.35371e-05
4.25201e-05
4.14476e-05
4.03237e-05
3.91531e-05
3.79404e-05
3.6691e-05
3.541e-05
3.41031e-05
3.2776e-05
3.14343e-05
3.00839e-05
2.87303e-05
2.73791e-05
2.60356e-05
2.4705e-05
2.3392e-05
2.2101e-05
2.08362e-05
1.96011e-05
1.83991e-05
1.72328e-05
1.61047e-05
1.50167e-05
1.39701e-05
1.2966e-05
1.2005e-05
1.10874e-05
1.02129e-05
9.38128e-06
8.59165e-06
7.84308e-06
7.13436e-06
6.46411e-06
5.83084e-06
5.23294e-06
4.66878e-06
4.1367e-06
3.63513e-06
3.16258e-06
2.71775e-06
2.2996e-06
1.90742e-06
1.541e-06
1.20077e-06
8.88059e-07
6.05583e-07
3.58275e-07
1.55378e-07
1.72768e-08
4.61298e-08
4.14673e-07
9.54366e-07
1.60753e-06
2.34488e-06
3.1475e-06
4.00156e-06
4.8962e-06
5.82256e-06
6.77324e-06
7.74199e-06
8.72352e-06
9.71338e-06
1.07079e-05
1.17039e-05
1.26991e-05
1.36915e-05
1.468e-05
1.56636e-05
1.6642e-05
1.7615e-05
1.85832e-05
1.9547e-05
2.05072e-05
2.14648e-05
2.24208e-05
2.33763e-05
2.43324e-05
2.52901e-05
2.62502e-05
2.72137e-05
2.81811e-05
2.91528e-05
3.01291e-05
3.11102e-05
3.20958e-05
3.30856e-05
3.40792e-05
3.50757e-05
3.60744e-05
3.70743e-05
3.8074e-05
3.90724e-05
4.0068e-05
4.10592e-05
4.20444e-05
4.30219e-05
4.39897e-05
4.4946e-05
4.58887e-05
4.68158e-05
4.77252e-05
4.86145e-05
4.94815e-05
5.03238e-05
5.11389e-05
5.19244e-05
5.26776e-05
5.33958e-05
5.40763e-05
5.47163e-05
5.53129e-05
5.58632e-05
5.63643e-05
5.68131e-05
5.72067e-05
5.75422e-05
5.78165e-05
5.80268e-05
5.81692e-05
5.82361e-05
5.82402e-05
5.81698e-05
5.80224e-05
5.77962e-05
5.74899e-05
5.71024e-05
5.6633e-05
5.60813e-05
5.54473e-05
5.47317e-05
5.39354e-05
5.306e-05
5.21075e-05
5.10806e-05
4.99824e-05
4.88165e-05
4.75871e-05
4.62989e-05
4.49568e-05
4.35663e-05
4.21334e-05
4.0664e-05
3.91644e-05
3.76412e-05
3.6101e-05
3.45502e-05
3.29954e-05
3.1443e-05
2.98992e-05
2.83697e-05
2.68602e-05
2.53759e-05
2.39214e-05
2.25011e-05
2.11188e-05
1.97776e-05
1.84804e-05
1.72293e-05
1.60261e-05
1.4872e-05
1.37676e-05
1.27133e-05
1.17089e-05
1.07538e-05
9.84731e-06
8.98815e-06
8.17494e-06
7.40607e-06
6.67978e-06
5.99421e-06
5.34743e-06
4.73754e-06
4.1627e-06
3.62117e-06
3.11147e-06
2.63239e-06
2.18313e-06
1.76344e-06
1.37383e-06
1.01584e-06
6.92569e-07
4.09653e-07
1.77629e-07
1.97488e-08
5.29182e-08
4.75734e-07
1.09506e-06
1.84487e-06
2.69164e-06
3.61373e-06
4.59527e-06
5.62379e-06
6.68907e-06
7.78256e-06
8.897e-06
1.00262e-05
1.11651e-05
1.23092e-05
1.34549e-05
1.45994e-05
1.57406e-05
1.68769e-05
1.80072e-05
1.91312e-05
2.02487e-05
2.13602e-05
2.24662e-05
2.35677e-05
2.46658e-05
2.57616e-05
2.68564e-05
2.79513e-05
2.90474e-05
3.01457e-05
3.1247e-05
3.2352e-05
3.3461e-05
3.45743e-05
3.56919e-05
3.68134e-05
3.79384e-05
3.90663e-05
4.01961e-05
4.13268e-05
4.24571e-05
4.35856e-05
4.47109e-05
4.58312e-05
4.69448e-05
4.805e-05
4.91446e-05
5.02267e-05
5.12941e-05
5.23448e-05
5.33764e-05
5.43866e-05
5.5373e-05
5.63332e-05
5.72646e-05
5.81646e-05
5.90304e-05
5.98594e-05
6.06486e-05
6.13951e-05
6.20958e-05
6.27478e-05
6.33478e-05
6.38926e-05
6.43791e-05
6.4804e-05
6.5164e-05
6.54559e-05
6.56768e-05
6.58204e-05
6.58821e-05
6.58746e-05
6.57834e-05
6.56063e-05
6.53417e-05
6.49881e-05
6.45441e-05
6.4009e-05
6.33822e-05
6.26639e-05
6.18545e-05
6.09551e-05
5.99673e-05
5.88933e-05
5.7736e-05
5.64986e-05
5.51853e-05
5.38004e-05
5.23491e-05
5.0837e-05
4.92701e-05
4.76547e-05
4.59977e-05
4.43062e-05
4.25873e-05
4.08484e-05
3.90968e-05
3.734e-05
3.55852e-05
3.38393e-05
3.2109e-05
3.04007e-05
2.87203e-05
2.70733e-05
2.54646e-05
2.38986e-05
2.23791e-05
2.09091e-05
1.94915e-05
1.81281e-05
1.68203e-05
1.55691e-05
1.43747e-05
1.32371e-05
1.21556e-05
1.11293e-05
1.01569e-05
9.23667e-06
8.36687e-06
7.54544e-06
6.77025e-06
6.03908e-06
5.34974e-06
4.70012e-06
4.08826e-06
3.51243e-06
2.97127e-06
2.46386e-06
1.98993e-06
1.55005e-06
1.14596e-06
7.81161e-07
4.61987e-07
2.00297e-07
2.22674e-08
6.00962e-08
5.40298e-07
1.24383e-06
2.09581e-06
3.0583e-06
4.10676e-06
5.22318e-06
6.3934e-06
7.60576e-06
8.85047e-06
1.01192e-05
1.14049e-05
1.27014e-05
1.40038e-05
1.53078e-05
1.66101e-05
1.79082e-05
1.92002e-05
2.0485e-05
2.17619e-05
2.30309e-05
2.42924e-05
2.55472e-05
2.67961e-05
2.80405e-05
2.92816e-05
3.05207e-05
3.17591e-05
3.2998e-05
3.42385e-05
3.54812e-05
3.6727e-05
3.7976e-05
3.92284e-05
4.04841e-05
4.17426e-05
4.30034e-05
4.42655e-05
4.55278e-05
4.67891e-05
4.8048e-05
4.93027e-05
5.05517e-05
5.17931e-05
5.30248e-05
5.4245e-05
5.54514e-05
5.66419e-05
5.78142e-05
5.89661e-05
6.00951e-05
6.11988e-05
6.22747e-05
6.33202e-05
6.43326e-05
6.53093e-05
6.62472e-05
6.71437e-05
6.79955e-05
6.87997e-05
6.95531e-05
7.02523e-05
7.08941e-05
7.1475e-05
7.19917e-05
7.24406e-05
7.28183e-05
7.31213e-05
7.33464e-05
7.34852e-05
7.35383e-05
7.3514e-05
7.33978e-05
7.31878e-05
7.28821e-05
7.24791e-05
7.19772e-05
7.13757e-05
7.0674e-05
6.98719e-05
6.89701e-05
6.79695e-05
6.68718e-05
6.56794e-05
6.43951e-05
6.30225e-05
6.15658e-05
6.00298e-05
5.84201e-05
5.67424e-05
5.50035e-05
5.32101e-05
5.13696e-05
4.94898e-05
4.75786e-05
4.5644e-05
4.36942e-05
4.17374e-05
3.97815e-05
3.78344e-05
3.59036e-05
3.39964e-05
3.21193e-05
3.02786e-05
2.84799e-05
2.67283e-05
2.50281e-05
2.3383e-05
2.17961e-05
2.02696e-05
1.88054e-05
1.74044e-05
1.60672e-05
1.47935e-05
1.35829e-05
1.24343e-05
1.13462e-05
1.03167e-05
9.3439e-06
8.42542e-06
7.55885e-06
6.74169e-06
5.97146e-06
5.24577e-06
4.56239e-06
3.91937e-06
3.31516e-06
2.74874e-06
2.21977e-06
1.72888e-06
1.27803e-06
8.71085e-07
5.15115e-07
2.23313e-07
2.48249e-08
6.76755e-08
6.0847e-07
1.4009e-06
2.36078e-06
3.44547e-06
4.62741e-06
5.88635e-06
7.20633e-06
8.57419e-06
9.9788e-06
1.14107e-05
1.28617e-05
1.43248e-05
1.57943e-05
1.72653e-05
1.87338e-05
2.01969e-05
2.16525e-05
2.30991e-05
2.4536e-05
2.59632e-05
2.7381e-05
2.87902e-05
3.0192e-05
3.15877e-05
3.29786e-05
3.43662e-05
3.57519e-05
3.71369e-05
3.85222e-05
3.99086e-05
4.12967e-05
4.26868e-05
4.40789e-05
4.54726e-05
4.68674e-05
4.82625e-05
4.96567e-05
5.10488e-05
5.24373e-05
5.38205e-05
5.51968e-05
5.6564e-05
5.79204e-05
5.92636e-05
6.05916e-05
6.19022e-05
6.3193e-05
6.44616e-05
6.57058e-05
6.69229e-05
6.81106e-05
6.92662e-05
7.03871e-05
7.14705e-05
7.25136e-05
7.35135e-05
7.44672e-05
7.53716e-05
7.62234e-05
7.70194e-05
7.77561e-05
7.84302e-05
7.9038e-05
7.95759e-05
8.00404e-05
8.04277e-05
8.07343e-05
8.09567e-05
8.10838e-05
8.11241e-05
8.10778e-05
8.09326e-05
8.06864e-05
8.03372e-05
7.98832e-05
7.93231e-05
7.86556e-05
7.78803e-05
7.69968e-05
7.60057e-05
7.49079e-05
7.37052e-05
7.23998e-05
7.09947e-05
6.94935e-05
6.79007e-05
6.62211e-05
6.44605e-05
6.26251e-05
6.07218e-05
5.8758e-05
5.67414e-05
5.46803e-05
5.25833e-05
5.0459e-05
4.83163e-05
4.61642e-05
4.40113e-05
4.18664e-05
3.97377e-05
3.76333e-05
3.55607e-05
3.35269e-05
3.15382e-05
2.96004e-05
2.77184e-05
2.58967e-05
2.41386e-05
2.2447e-05
2.0824e-05
1.92709e-05
1.77882e-05
1.63761e-05
1.50339e-05
1.37605e-05
1.25544e-05
1.14136e-05
1.03357e-05
9.31835e-06
8.35873e-06
7.45407e-06
6.6016e-06
5.79862e-06
5.04264e-06
4.33148e-06
3.66337e-06
3.03716e-06
2.45246e-06
1.90995e-06
1.41175e-06
9.6215e-07
5.68926e-07
2.46627e-07
2.74157e-08
7.56684e-08
6.80359e-07
1.56654e-06
2.64021e-06
3.85379e-06
5.17655e-06
6.58591e-06
8.06399e-06
9.59602e-06
1.11695e-05
1.27736e-05
1.4399e-05
1.60379e-05
1.76834e-05
1.933e-05
2.09731e-05
2.26093e-05
2.42359e-05
2.58515e-05
2.74551e-05
2.90466e-05
3.06263e-05
3.21953e-05
3.37545e-05
3.53056e-05
3.68499e-05
3.8389e-05
3.99244e-05
4.14573e-05
4.29888e-05
4.45196e-05
4.60502e-05
4.75808e-05
4.91112e-05
5.06409e-05
5.21693e-05
5.36952e-05
5.52173e-05
5.67343e-05
5.82444e-05
5.97458e-05
6.12364e-05
6.27143e-05
6.41774e-05
6.56233e-05
6.70498e-05
6.84546e-05
6.98353e-05
7.11896e-05
7.2515e-05
7.3809e-05
7.5069e-05
7.62926e-05
7.74769e-05
7.86192e-05
7.97168e-05
8.07665e-05
8.17655e-05
8.27104e-05
8.35981e-05
8.44252e-05
8.51882e-05
8.58835e-05
8.65076e-05
8.70568e-05
8.75272e-05
8.79153e-05
8.82171e-05
8.84287e-05
8.85372e-05
8.85601e-05
8.84866e-05
8.83084e-05
8.80231e-05
8.76287e-05
8.71234e-05
8.65055e-05
8.5774e-05
8.49279e-05
8.39672e-05
8.28921e-05
8.17035e-05
8.0403e-05
7.89928e-05
7.74758e-05
7.58557e-05
7.41368e-05
7.23242e-05
7.04236e-05
6.84414e-05
6.63848e-05
6.42613e-05
6.20791e-05
5.98469e-05
5.75736e-05
5.52685e-05
5.29411e-05
5.0601e-05
4.82577e-05
4.59205e-05
4.35987e-05
4.1301e-05
3.90359e-05
3.6811e-05
3.46335e-05
3.25101e-05
3.04464e-05
2.84473e-05
2.6517e-05
2.46587e-05
2.28751e-05
2.11676e-05
1.95373e-05
1.79844e-05
1.65082e-05
1.51077e-05
1.37814e-05
1.2527e-05
1.13421e-05
1.02239e-05
9.16952e-06
8.17582e-06
7.23972e-06
6.35825e-06
5.52861e-06
4.74836e-06
4.01554e-06
3.32882e-06
2.68775e-06
2.09303e-06
1.54698e-06
1.05425e-06
6.23355e-07
2.70212e-07
3.00368e-08
8.40872e-08
7.56078e-07
1.74101e-06
2.93454e-06
4.28391e-06
5.75508e-06
7.32298e-06
8.96775e-06
1.06729e-05
1.24244e-05
1.421e-05
1.60193e-05
1.78431e-05
1.96737e-05
2.15046e-05
2.33306e-05
2.51476e-05
2.69527e-05
2.87439e-05
3.05203e-05
3.22816e-05
3.40282e-05
3.57611e-05
3.74815e-05
3.9191e-05
4.08912e-05
4.25836e-05
4.42699e-05
4.59512e-05
4.76286e-05
4.93028e-05
5.09743e-05
5.26429e-05
5.43085e-05
5.59703e-05
5.76275e-05
5.92787e-05
6.09226e-05
6.25574e-05
6.41812e-05
6.57922e-05
6.73881e-05
6.89668e-05
7.05261e-05
7.20636e-05
7.35771e-05
7.50642e-05
7.65225e-05
7.79496e-05
7.93432e-05
8.07007e-05
8.20197e-05
8.32975e-05
8.45315e-05
8.5719e-05
8.68571e-05
8.79429e-05
8.89734e-05
8.99455e-05
9.08557e-05
9.17009e-05
9.24775e-05
9.31819e-05
9.38106e-05
9.43598e-05
9.48259e-05
9.52051e-05
9.54938e-05
9.56846e-05
9.5769e-05
9.57695e-05
9.56639e-05
9.54491e-05
9.51227e-05
9.46823e-05
9.41262e-05
9.34527e-05
9.26605e-05
9.17487e-05
9.07168e-05
8.95651e-05
8.82943e-05
8.69058e-05
8.54016e-05
8.37845e-05
8.2058e-05
8.02262e-05
7.82942e-05
7.62676e-05
7.41528e-05
7.19569e-05
6.96877e-05
6.73535e-05
6.49631e-05
6.2526e-05
6.00519e-05
5.75507e-05
5.50325e-05
5.25076e-05
4.9986e-05
4.74778e-05
4.49924e-05
4.25392e-05
4.01268e-05
3.77632e-05
3.54558e-05
3.3211e-05
3.10347e-05
2.89315e-05
2.69055e-05
2.49596e-05
2.3096e-05
2.13159e-05
1.96197e-05
1.80072e-05
1.64772e-05
1.50282e-05
1.36579e-05
1.23637e-05
1.11428e-05
9.99174e-06
8.90731e-06
7.8861e-06
6.92481e-06
6.02037e-06
5.17005e-06
4.37166e-06
3.62369e-06
2.92559e-06
2.2781e-06
1.68367e-06
1.14736e-06
6.78387e-07
2.94061e-07
3.26874e-08
9.29436e-08
8.35732e-07
1.92454e-06
3.24418e-06
4.73645e-06
6.36382e-06
8.09865e-06
9.91897e-06
1.18065e-05
1.37454e-05
1.57222e-05
1.77248e-05
1.97429e-05
2.17675e-05
2.37914e-05
2.58083e-05
2.78137e-05
2.98041e-05
3.17773e-05
3.3732e-05
3.5668e-05
3.75855e-05
3.94857e-05
4.13699e-05
4.32397e-05
4.50969e-05
4.69431e-05
4.87798e-05
5.06085e-05
5.243e-05
5.4245e-05
5.60538e-05
5.78562e-05
5.96519e-05
6.14399e-05
6.32191e-05
6.49881e-05
6.67452e-05
6.84886e-05
7.02163e-05
7.19262e-05
7.36161e-05
7.52836e-05
7.69266e-05
7.85428e-05
8.01297e-05
8.16851e-05
8.32067e-05
8.46921e-05
8.6139e-05
8.75449e-05
8.89074e-05
9.02241e-05
9.14924e-05
9.27095e-05
9.38728e-05
9.49794e-05
9.60264e-05
9.70106e-05
9.79289e-05
9.87779e-05
9.95544e-05
0.000100255
0.000100875
0.000101413
0.000101864
0.000102224
0.00010249
0.000102651
0.00010271
0.000102679
0.000102538
0.000102284
0.000101915
0.000101429
0.000100824
0.000100099
9.92511e-05
9.82802e-05
9.71855e-05
9.59669e-05
9.46249e-05
9.31606e-05
9.15759e-05
8.98731e-05
8.80555e-05
8.61269e-05
8.4092e-05
8.19562e-05
7.97258e-05
7.74077e-05
7.50096e-05
7.25398e-05
7.00072e-05
6.74215e-05
6.47926e-05
6.21309e-05
5.94469e-05
5.67515e-05
5.40554e-05
5.13693e-05
4.87036e-05
4.60684e-05
4.34733e-05
4.09271e-05
3.84383e-05
3.60141e-05
3.36611e-05
3.1385e-05
2.91903e-05
2.70808e-05
2.50592e-05
2.3127e-05
2.12852e-05
1.95337e-05
1.78715e-05
1.62972e-05
1.48084e-05
1.34026e-05
1.20765e-05
1.08267e-05
9.64968e-06
8.54165e-06
7.49905e-06
6.51849e-06
5.59698e-06
4.73204e-06
3.922e-06
3.16617e-06
2.46527e-06
1.82192e-06
1.24153e-06
7.34048e-07
3.18185e-07
3.53688e-08
1.02249e-07
9.19422e-07
2.11738e-06
3.56953e-06
5.212e-06
7.00359e-06
8.91396e-06
1.09189e-05
1.29982e-05
1.51343e-05
1.73119e-05
1.95175e-05
2.17392e-05
2.3967e-05
2.61922e-05
2.84081e-05
3.0609e-05
3.27912e-05
3.49519e-05
3.70897e-05
3.92042e-05
4.12959e-05
4.33657e-05
4.54151e-05
4.74459e-05
4.94599e-05
5.14588e-05
5.34442e-05
5.54175e-05
5.73795e-05
5.93309e-05
6.12717e-05
6.32017e-05
6.51203e-05
6.70265e-05
6.8919e-05
7.07961e-05
7.2656e-05
7.44968e-05
7.63164e-05
7.81126e-05
7.9883e-05
8.16255e-05
8.33378e-05
8.50176e-05
8.66626e-05
8.82706e-05
8.98393e-05
9.13666e-05
9.28502e-05
9.42878e-05
9.56771e-05
9.70157e-05
9.83013e-05
9.95313e-05
0.000100703
0.000101814
0.000102861
0.000103841
0.000104752
0.00010559
0.000106352
0.000107034
0.000107634
0.000108148
0.000108572
0.000108903
0.000109137
0.000109261
0.000109292
0.000109223
0.000109042
0.000108748
0.000108337
0.000107808
0.000107158
0.000106386
0.000105489
0.000104468
0.00010332
0.000102047
0.000100647
9.91215e-05
9.7472e-05
9.57004e-05
9.38094e-05
9.18025e-05
8.96839e-05
8.74585e-05
8.51322e-05
8.27115e-05
8.0204e-05
7.76176e-05
7.49614e-05
7.22448e-05
6.94778e-05
6.66712e-05
6.38359e-05
6.09831e-05
5.81241e-05
5.52705e-05
5.24334e-05
4.96236e-05
4.68518e-05
4.41278e-05
4.14609e-05
3.88594e-05
3.6331e-05
3.3882e-05
3.15181e-05
2.92436e-05
2.7062e-05
2.49755e-05
2.29854e-05
2.1092e-05
1.92947e-05
1.7592e-05
1.59819e-05
1.44615e-05
1.30276e-05
1.16767e-05
1.04047e-05
9.20788e-06
8.0822e-06
7.02399e-06
6.02995e-06
5.09733e-06
4.22423e-06
3.40983e-06
2.65481e-06
1.9619e-06
1.33688e-06
7.90412e-07
3.42615e-07
3.80843e-08
1.12012e-07
1.00723e-06
2.31972e-06
3.91094e-06
5.71105e-06
7.67507e-06
9.76979e-06
1.19687e-05
1.42494e-05
1.65925e-05
1.89808e-05
2.1399e-05
2.38338e-05
2.62735e-05
2.87085e-05
3.11308e-05
3.3534e-05
3.59138e-05
3.82669e-05
4.05919e-05
4.28881e-05
4.51559e-05
4.73964e-05
4.96113e-05
5.18023e-05
5.39715e-05
5.61205e-05
5.82511e-05
6.03646e-05
6.24618e-05
6.45432e-05
6.66088e-05
6.86583e-05
7.06909e-05
7.27053e-05
7.47002e-05
7.66738e-05