/*--------------------------------*- C++ -*----------------------------------*\
  =========                 |
  \\      /  F ield         | OpenFOAM: The Open Source CFD Toolbox
   \\    /   O peration     | Website:  https://openfoam.org
    \\  /    A nd           | Version:  12
     \\/     M anipulation  |
\*---------------------------------------------------------------------------*/
FoamFile
{
    format      ascii;
    class       volScalarField;
    location    "2.5";
    object      nut;
}
// * * * * * * * * * * * * * * * * * * * * * * * * * * * * * * * * * * * * * //

dimensions      [0 2 -1 0 0 0 0];

internalField   nonuniform List<scalar> 
18225
(
1.23087e-14
6.15109e-14
1.34612e-13
2.22391e-13
3.20738e-13
4.27223e-13
5.40129e-13
6.58124e-13
7.80119e-13
9.05203e-13
1.03261e-12
1.16168e-12
1.29187e-12
1.42272e-12
1.55384e-12
1.68493e-12
1.81576e-12
1.94616e-12
2.07602e-12
2.20527e-12
2.3339e-12
2.46193e-12
2.58943e-12
2.71649e-12
2.84322e-12
2.96974e-12
3.09621e-12
3.22275e-12
3.34952e-12
3.47666e-12
3.60429e-12
3.73254e-12
3.86151e-12
3.99127e-12
4.12189e-12
4.25341e-12
4.38586e-12
4.51921e-12
4.65344e-12
4.7885e-12
4.9243e-12
5.06074e-12
5.1977e-12
5.33502e-12
5.47253e-12
5.61003e-12
5.74732e-12
5.88414e-12
6.02024e-12
6.15534e-12
6.28913e-12
6.42129e-12
6.55148e-12
6.67934e-12
6.80447e-12
6.92649e-12
7.04496e-12
7.15946e-12
7.26953e-12
7.37471e-12
7.47451e-12
7.56846e-12
7.65605e-12
7.73679e-12
7.81017e-12
7.8757e-12
7.93289e-12
7.98123e-12
8.02031e-12
8.04967e-12
8.06878e-12
8.07723e-12
8.0751e-12
8.06184e-12
8.03715e-12
8.00079e-12
7.95261e-12
7.8925e-12
7.82045e-12
7.73649e-12
7.64074e-12
7.53338e-12
7.41468e-12
7.28497e-12
7.14465e-12
6.99421e-12
6.8342e-12
6.66523e-12
6.48798e-12
6.30317e-12
6.11159e-12
5.91404e-12
5.71139e-12
5.50451e-12
5.29428e-12
5.08161e-12
4.86737e-12
4.65246e-12
4.43773e-12
4.224e-12
4.01207e-12
3.80267e-12
3.59651e-12
3.39423e-12
3.1964e-12
3.00354e-12
2.81611e-12
2.63448e-12
2.45897e-12
2.28985e-12
2.12729e-12
1.97142e-12
1.82232e-12
1.67999e-12
1.54442e-12
1.41549e-12
1.29309e-12
1.17706e-12
1.06721e-12
9.63326e-13
8.65172e-13
7.72505e-13
6.85079e-13
6.0265e-13
5.24987e-13
4.5188e-13
3.83156e-13
3.18689e-13
2.58421e-13
2.02388e-13
1.50765e-13
1.03937e-13
6.26716e-14
2.85771e-14
5.71552e-15
6.15475e-14
5.58238e-12
1.89559e-11
3.50235e-11
5.25729e-11
7.12977e-11
9.09903e-11
1.1147e-10
1.32575e-10
1.54165e-10
1.76115e-10
1.98319e-10
2.20688e-10
2.43146e-10
2.6563e-10
2.8809e-10
3.10488e-10
3.32797e-10
3.54997e-10
3.7708e-10
3.99045e-10
4.20897e-10
4.42648e-10
4.64314e-10
4.85915e-10
5.07474e-10
5.29017e-10
5.50567e-10
5.72152e-10
5.93795e-10
6.1552e-10
6.37347e-10
6.59293e-10
6.81375e-10
7.03602e-10
7.25983e-10
7.4852e-10
7.71212e-10
7.94056e-10
8.17042e-10
8.40157e-10
8.63383e-10
8.86701e-10
9.10085e-10
9.33506e-10
9.56931e-10
9.80325e-10
1.00365e-09
1.02686e-09
1.0499e-09
1.07273e-09
1.0953e-09
1.11754e-09
1.1394e-09
1.1608e-09
1.18169e-09
1.20199e-09
1.22163e-09
1.24052e-09
1.2586e-09
1.27577e-09
1.29197e-09
1.30709e-09
1.32106e-09
1.33379e-09
1.34519e-09
1.35517e-09
1.36365e-09
1.37053e-09
1.37573e-09
1.37917e-09
1.38078e-09
1.3806e-09
1.37851e-09
1.37446e-09
1.36841e-09
1.36033e-09
1.3502e-09
1.33801e-09
1.32378e-09
1.30751e-09
1.28923e-09
1.269e-09
1.24687e-09
1.2229e-09
1.19719e-09
1.16981e-09
1.14088e-09
1.11052e-09
1.07885e-09
1.04601e-09
1.01213e-09
9.77362e-10
9.41864e-10
9.05786e-10
8.69284e-10
8.32512e-10
7.95624e-10
7.58767e-10
7.22087e-10
6.85718e-10
6.49791e-10
6.14427e-10
5.79734e-10
5.45814e-10
5.12756e-10
4.80636e-10
4.49522e-10
4.19467e-10
3.90514e-10
3.62695e-10
3.36032e-10
3.10533e-10
2.86197e-10
2.63019e-10
2.40986e-10
2.20077e-10
2.00262e-10
1.81509e-10
1.63778e-10
1.47028e-10
1.31216e-10
1.16298e-10
1.02228e-10
8.89657e-11
7.64716e-11
6.47115e-11
5.36579e-11
4.32922e-11
3.36064e-11
2.46059e-11
1.63138e-11
8.80687e-12
2.59176e-12
2.85653e-14
1.35021e-13
1.89777e-11
9.62964e-11
2.17046e-10
3.57446e-10
5.0795e-10
6.65147e-10
8.27374e-10
9.93474e-10
1.16249e-09
1.33359e-09
1.50605e-09
1.67925e-09
1.85265e-09
2.02582e-09
2.19842e-09
2.37019e-09
2.54093e-09
2.71054e-09
2.87898e-09
3.04625e-09
3.21242e-09
3.3776e-09
3.54194e-09
3.70561e-09
3.8688e-09
4.03172e-09
4.19458e-09
4.35759e-09
4.52094e-09
4.68483e-09
4.84942e-09
5.01486e-09
5.18127e-09
5.34875e-09
5.51736e-09
5.68714e-09
5.85808e-09
6.03016e-09
6.20333e-09
6.37748e-09
6.5525e-09
6.72825e-09
6.90454e-09
7.08118e-09
7.25791e-09
7.43449e-09
7.61062e-09
7.78599e-09
7.96026e-09
8.13305e-09
8.30397e-09
8.47259e-09
8.63847e-09
8.80113e-09
8.96005e-09
9.11473e-09
9.26459e-09
9.40907e-09
9.54756e-09
9.67945e-09
9.80411e-09
9.92088e-09
1.00291e-08
1.01281e-08
1.02172e-08
1.02958e-08
1.03631e-08
1.04186e-08
1.04614e-08
1.04911e-08
1.05066e-08
1.05088e-08
1.04964e-08
1.04691e-08
1.04264e-08
1.03681e-08
1.0294e-08
1.02041e-08
1.00983e-08
9.97667e-09
9.83953e-09
9.68713e-09
9.51989e-09
9.33831e-09
9.14302e-09
8.93474e-09
8.71426e-09
8.4825e-09
8.24043e-09
7.98909e-09
7.7296e-09
7.46312e-09
7.19083e-09
6.91395e-09
6.63371e-09
6.35132e-09
6.068e-09
5.78491e-09
5.50319e-09
5.22392e-09
4.9481e-09
4.67669e-09
4.41054e-09
4.15044e-09
3.89709e-09
3.65107e-09
3.4129e-09
3.183e-09
2.96168e-09
2.74917e-09
2.54564e-09
2.35114e-09
2.16567e-09
1.98914e-09
1.82144e-09
1.66238e-09
1.51171e-09
1.36915e-09
1.23439e-09
1.10708e-09
9.86854e-10
8.73348e-10
7.66186e-10
6.64999e-10
5.69434e-10
4.79161e-10
3.93886e-10
3.13365e-10
2.37454e-10
1.66257e-10
1.00711e-10
4.46677e-11
8.80173e-12
6.25396e-14
2.24031e-13
3.51774e-11
2.17385e-10
5.78458e-10
1.05963e-09
1.60541e-09
2.18591e-09
2.78661e-09
3.39988e-09
4.021e-09
4.64661e-09
5.2741e-09
5.90134e-09
6.52661e-09
7.14852e-09
7.76603e-09
8.37835e-09
8.98499e-09
9.5857e-09
1.01805e-08
1.07695e-08
1.13531e-08
1.19319e-08
1.25064e-08
1.30774e-08
1.36457e-08
1.4212e-08
1.47773e-08
1.53424e-08
1.5908e-08
1.64748e-08
1.70436e-08
1.76149e-08
1.81892e-08
1.87669e-08
1.93483e-08
1.99335e-08
2.05227e-08
2.11157e-08
2.17124e-08
2.23126e-08
2.29159e-08
2.35219e-08
2.41299e-08
2.47395e-08
2.53497e-08
2.59598e-08
2.65689e-08
2.71759e-08
2.77797e-08
2.83791e-08
2.89728e-08
2.95594e-08
3.01374e-08
3.07051e-08
3.1261e-08
3.18031e-08
3.23297e-08
3.28386e-08
3.33279e-08
3.37954e-08
3.42389e-08
3.46561e-08
3.50446e-08
3.5402e-08
3.57259e-08
3.60139e-08
3.62636e-08
3.64725e-08
3.66386e-08
3.67591e-08
3.68289e-08
3.68538e-08
3.68276e-08
3.67486e-08
3.66153e-08
3.64268e-08
3.61822e-08
3.58811e-08
3.55232e-08
3.51088e-08
3.46384e-08
3.4113e-08
3.35339e-08
3.29029e-08
3.2222e-08
3.14938e-08
3.07211e-08
2.99072e-08
2.90554e-08
2.81696e-08
2.72538e-08
2.63121e-08
2.5349e-08
2.43688e-08
2.3376e-08
2.23752e-08
2.13706e-08
2.03666e-08
1.93673e-08
1.83767e-08
1.73985e-08
1.64362e-08
1.54928e-08
1.45713e-08
1.36741e-08
1.28033e-08
1.19609e-08
1.11482e-08
1.03664e-08
9.61633e-09
8.89843e-09
8.21289e-09
7.55965e-09
6.93836e-09
6.34847e-09
5.78921e-09
5.25964e-09
4.75864e-09
4.28497e-09
3.8373e-09
3.4142e-09
3.01419e-09
2.63578e-09
2.27747e-09
1.9378e-09
1.61542e-09
1.30923e-09
1.01864e-09
7.4437e-10
4.90294e-10
2.67712e-10
1.00674e-10
1.62714e-11
1.03393e-13
3.25144e-13
5.30996e-11
3.59367e-10
1.06213e-09
2.12347e-09
3.4271e-09
4.87332e-09
6.39887e-09
7.96691e-09
9.55573e-09
1.11518e-08
1.27461e-08
1.43322e-08
1.59054e-08
1.74625e-08
1.90009e-08
2.05192e-08
2.20166e-08
2.34928e-08
2.49484e-08
2.63843e-08
2.78017e-08
2.92025e-08
3.05885e-08
3.19619e-08
3.3325e-08
3.46803e-08
3.60299e-08
3.73764e-08
3.87218e-08
4.00682e-08
4.14174e-08
4.27711e-08
4.41306e-08
4.54971e-08
4.68715e-08
4.82543e-08
4.96459e-08
5.10465e-08
5.24557e-08
5.38732e-08
5.52983e-08
5.67301e-08
5.81674e-08
5.96091e-08
6.10533e-08
6.24984e-08
6.39423e-08
6.53827e-08
6.68173e-08
6.82432e-08
6.96576e-08
7.10572e-08
7.24386e-08
7.37982e-08
7.5132e-08
7.64357e-08
7.7705e-08
7.89351e-08
8.01211e-08
8.12579e-08
8.23399e-08
8.33618e-08
8.43176e-08
8.52015e-08
8.60075e-08
8.67295e-08
8.73616e-08
8.78977e-08
8.83357e-08
8.86592e-08
8.88639e-08
8.89624e-08
8.89377e-08
8.87855e-08
8.85019e-08
8.80841e-08
8.75296e-08
8.68369e-08
8.60052e-08
8.50347e-08
8.39264e-08
8.26823e-08
8.13053e-08
7.97995e-08
7.81698e-08
7.64221e-08
7.45632e-08
7.2601e-08
7.05438e-08
6.8401e-08
6.61824e-08
6.38984e-08
6.15596e-08
5.91771e-08
5.67621e-08
5.43257e-08
5.18788e-08
4.94322e-08
4.69963e-08
4.4581e-08
4.21955e-08
3.98485e-08
3.75479e-08
3.53008e-08
3.31133e-08
3.09909e-08
2.89381e-08
2.69585e-08
2.50549e-08
2.32292e-08
2.14826e-08
1.98154e-08
1.82273e-08
1.67175e-08
1.52842e-08
1.39255e-08
1.26388e-08
1.14212e-08
1.02693e-08
9.17946e-09
8.14797e-09
7.17083e-09
6.24401e-09
5.36354e-09
4.52577e-09
3.72774e-09
2.96806e-09
2.24865e-09
1.57827e-09
9.78569e-10
4.90239e-10
1.65891e-10
2.44469e-11
1.49258e-13
4.36719e-13
7.25824e-11
5.14004e-10
1.61683e-09
3.43967e-09
5.84894e-09
8.65829e-09
1.17115e-08
1.48999e-08
1.81529e-08
2.14258e-08
2.46894e-08
2.7925e-08
3.11199e-08
3.42659e-08
3.73579e-08
4.03929e-08
4.33702e-08
4.62903e-08
4.9155e-08
5.19673e-08
5.47309e-08
5.74502e-08
6.01301e-08
6.27758e-08
6.53929e-08
6.79869e-08
7.05631e-08
7.31269e-08
7.56832e-08
7.82367e-08
8.07914e-08
8.33511e-08
8.5919e-08
8.84977e-08
9.10894e-08
9.36956e-08
9.63175e-08
9.89554e-08
1.01609e-07
1.04279e-07
1.06964e-07
1.09662e-07
1.12371e-07
1.1509e-07
1.17815e-07
1.20544e-07
1.23273e-07
1.25998e-07
1.28714e-07
1.31417e-07
1.34102e-07
1.36761e-07
1.3939e-07
1.41981e-07
1.44527e-07
1.47019e-07
1.4945e-07
1.5181e-07
1.5409e-07
1.56281e-07
1.5837e-07
1.60349e-07
1.62204e-07
1.63926e-07
1.65502e-07
1.66919e-07
1.68167e-07
1.69232e-07
1.70118e-07
1.70771e-07
1.71206e-07
1.71439e-07
1.71435e-07
1.71186e-07
1.70684e-07
1.69924e-07
1.689e-07
1.67609e-07
1.66048e-07
1.64219e-07
1.62122e-07
1.59761e-07
1.57141e-07
1.54271e-07
1.51158e-07
1.47814e-07
1.44253e-07
1.40488e-07
1.36537e-07
1.32416e-07
1.28145e-07
1.23745e-07
1.19234e-07
1.14636e-07
1.09971e-07
1.05262e-07
1.00529e-07
9.57941e-08
9.10771e-08
8.63975e-08
8.17736e-08
7.72224e-08
7.27595e-08
6.83988e-08
6.41527e-08
6.0032e-08
5.60456e-08
5.22006e-08
4.85027e-08
4.49556e-08
4.15617e-08
3.83216e-08
3.52348e-08
3.22991e-08
2.95114e-08
2.68675e-08
2.4362e-08
2.19888e-08
1.97411e-08
1.76112e-08
1.55913e-08
1.36733e-08
1.18489e-08
1.01106e-08
8.45229e-09
6.87076e-09
5.36883e-09
3.96036e-09
2.67736e-09
1.57813e-09
7.43067e-10
2.35988e-10
3.31934e-11
1.99045e-13
5.57897e-13
9.35727e-11
6.7927e-10
2.21832e-09
4.92182e-09
8.70626e-09
1.3326e-08
1.85115e-08
2.40386e-08
2.97436e-08
3.55139e-08
4.12746e-08
4.69765e-08
5.25877e-08
5.80884e-08
6.3467e-08
6.8718e-08
7.38402e-08
7.8836e-08
8.37101e-08
8.84696e-08
9.31229e-08
9.76796e-08
1.0215e-07
1.06546e-07
1.10877e-07
1.15155e-07
1.19392e-07
1.23596e-07
1.27778e-07
1.31947e-07
1.36111e-07
1.40278e-07
1.44452e-07
1.48641e-07
1.52847e-07
1.57074e-07
1.61325e-07
1.65601e-07
1.69903e-07
1.7423e-07
1.78582e-07
1.82956e-07
1.8735e-07
1.91761e-07
1.96184e-07
2.00615e-07
2.05048e-07
2.09477e-07
2.13895e-07
2.18293e-07
2.22665e-07
2.26999e-07
2.31285e-07
2.35513e-07
2.3967e-07
2.43743e-07
2.47717e-07
2.51579e-07
2.55312e-07
2.58899e-07
2.62324e-07
2.65568e-07
2.68613e-07
2.71439e-07
2.74027e-07
2.76356e-07
2.78405e-07
2.80159e-07
2.81624e-07
2.82686e-07
2.83407e-07
2.83794e-07
2.83791e-07
2.83384e-07
2.82562e-07
2.81315e-07
2.79634e-07
2.77514e-07
2.74952e-07
2.71948e-07
2.68504e-07
2.64626e-07
2.60322e-07
2.55605e-07
2.50489e-07
2.44993e-07
2.39137e-07
2.32946e-07
2.26446e-07
2.19665e-07
2.12635e-07
2.05387e-07
1.97956e-07
1.90376e-07
1.82683e-07
1.74911e-07
1.67097e-07
1.59274e-07
1.51476e-07
1.43735e-07
1.36081e-07
1.28542e-07
1.21144e-07
1.13911e-07
1.06863e-07
1.00018e-07
9.33924e-08
8.69971e-08
8.08421e-08
7.49341e-08
6.9277e-08
6.38723e-08
5.87189e-08
5.38136e-08
4.91509e-08
4.47235e-08
4.05225e-08
3.65374e-08
3.27564e-08
2.91664e-08
2.5754e-08
2.25052e-08
1.9407e-08
1.64483e-08
1.36227e-08
1.09319e-08
8.39191e-09
6.04282e-09
3.95819e-09
2.24443e-09
1.01282e-09
3.09451e-10
4.24212e-11
2.51992e-13
6.88245e-13
1.16049e-10
8.54875e-10
2.85799e-09
6.52303e-09
1.18753e-08
1.86589e-08
2.65011e-08
3.50379e-08
4.397e-08
5.30739e-08
6.21919e-08
7.12174e-08
8.00809e-08
8.87388e-08
9.71665e-08
1.05352e-07
1.13294e-07
1.20997e-07
1.2847e-07
1.35729e-07
1.42788e-07
1.49667e-07
1.56385e-07
1.62962e-07
1.69418e-07
1.75773e-07
1.82046e-07
1.88255e-07
1.94417e-07
2.00547e-07
2.0666e-07
2.12768e-07
2.18881e-07
2.25009e-07
2.31159e-07
2.37336e-07
2.43546e-07
2.4979e-07
2.56071e-07
2.62387e-07
2.68739e-07
2.75124e-07
2.81538e-07
2.87976e-07
2.94432e-07
3.009e-07
3.07371e-07
3.13835e-07
3.20283e-07
3.26702e-07
3.3308e-07
3.39403e-07
3.45653e-07
3.51816e-07
3.57871e-07
3.63801e-07
3.69583e-07
3.75195e-07
3.80614e-07
3.85816e-07
3.90773e-07
3.9546e-07
3.99849e-07
4.03912e-07
4.07619e-07
4.10943e-07
4.13854e-07
4.16331e-07
4.18385e-07
4.19827e-07
4.20787e-07
4.21248e-07
4.21135e-07
4.20429e-07
4.19114e-07
4.17177e-07
4.14606e-07
4.11395e-07
4.07541e-07
4.03044e-07
3.97908e-07
3.92142e-07
3.85759e-07
3.78777e-07
3.71219e-07
3.63109e-07
3.54478e-07
3.45361e-07
3.35796e-07
3.25823e-07
3.15487e-07
3.04833e-07
2.9391e-07
2.82768e-07
2.71456e-07
2.60026e-07
2.48528e-07
2.37011e-07
2.25523e-07
2.14111e-07
2.02818e-07
1.91686e-07
1.80752e-07
1.70051e-07
1.59614e-07
1.49466e-07
1.39632e-07
1.3013e-07
1.20974e-07
1.12175e-07
1.03739e-07
9.56694e-08
8.79646e-08
8.06204e-08
7.36289e-08
6.69793e-08
6.06585e-08
5.46507e-08
4.89381e-08
4.35013e-08
3.83202e-08
3.33751e-08
2.86484e-08
2.41276e-08
1.981e-08
1.57108e-08
1.1873e-08
8.37817e-09
5.35247e-09
2.94955e-09
1.29307e-09
3.85552e-10
5.20513e-11
3.07513e-13
8.27591e-13
1.40013e-10
1.04101e-09
3.5339e-09
8.22322e-09
1.52845e-08
2.4499e-08
3.54187e-08
4.75341e-08
6.03813e-08
7.35866e-08
8.68717e-08
1.0004e-07
1.12959e-07
1.25547e-07
1.37753e-07
1.49555e-07
1.60949e-07
1.71941e-07
1.8255e-07
1.92798e-07
2.02715e-07
2.12331e-07
2.21679e-07
2.30791e-07
2.39702e-07
2.48443e-07
2.57045e-07
2.65537e-07
2.73945e-07
2.82294e-07
2.90606e-07
2.989e-07
3.07191e-07
3.15496e-07
3.23824e-07
3.32184e-07
3.40584e-07
3.49028e-07
3.57518e-07
3.66055e-07
3.74636e-07
3.8326e-07
3.9192e-07
4.00611e-07
4.09323e-07
4.18047e-07
4.26772e-07
4.35483e-07
4.44166e-07
4.52803e-07
4.61377e-07
4.69866e-07
4.7825e-07
4.86503e-07
4.946e-07
5.02514e-07
5.10216e-07
5.17674e-07
5.24857e-07
5.31729e-07
5.38257e-07
5.44404e-07
5.50132e-07
5.55404e-07
5.60182e-07
5.64427e-07
5.68104e-07
5.71175e-07
5.73668e-07
5.75324e-07
5.76345e-07
5.76676e-07
5.76229e-07
5.74982e-07
5.72916e-07
5.70017e-07
5.66273e-07
5.61677e-07
5.56226e-07
5.49923e-07
5.42776e-07
5.34799e-07
5.26009e-07
5.16431e-07
5.06096e-07
4.95038e-07
4.83297e-07
4.70918e-07
4.57952e-07
4.4445e-07
4.30472e-07
4.16075e-07
4.01323e-07
3.8628e-07
3.71012e-07
3.55582e-07
3.40058e-07
3.24502e-07
3.08978e-07
2.93547e-07
2.78265e-07
2.63186e-07
2.48361e-07
2.33836e-07
2.19652e-07
2.05844e-07
1.92445e-07
1.79479e-07
1.66967e-07
1.54924e-07
1.4336e-07
1.32279e-07
1.2168e-07
1.11559e-07
1.01905e-07
9.27051e-08
8.39406e-08
7.55903e-08
6.76301e-08
6.00341e-08
5.2776e-08
4.58309e-08
3.91792e-08
3.28113e-08
2.67359e-08
2.09911e-08
1.56578e-08
1.08706e-08
6.81292e-09
3.67733e-09
1.5804e-09
4.6379e-10
6.20146e-11
3.65136e-13
9.75939e-13
1.65481e-10
1.23804e-09
4.24667e-09
1.00165e-08
1.89e-08
3.07527e-08
4.50804e-08
6.12356e-08
7.85736e-08
9.65392e-08
1.14697e-07
1.32729e-07
1.50416e-07
1.67613e-07
1.84239e-07
2.00251e-07
2.15639e-07
2.30415e-07
2.44605e-07
2.58247e-07
2.71384e-07
2.84065e-07
2.9634e-07
3.08259e-07
3.19873e-07
3.31229e-07
3.42374e-07
3.53349e-07
3.64194e-07
3.74944e-07
3.85631e-07
3.96281e-07
4.06919e-07
4.17563e-07
4.28231e-07
4.38933e-07
4.49679e-07
4.60476e-07
4.71326e-07
4.82229e-07
4.93183e-07
5.04183e-07
5.15222e-07
5.26291e-07
5.37377e-07
5.48466e-07
5.59543e-07
5.70589e-07
5.81582e-07
5.92501e-07
6.03319e-07
6.1401e-07
6.24544e-07
6.34888e-07
6.4501e-07
6.54871e-07
6.64436e-07
6.73663e-07
6.8251e-07
6.90935e-07
6.98893e-07
7.06337e-07
7.13223e-07
7.19503e-07
7.25131e-07
7.30061e-07
7.34247e-07
7.37644e-07
7.4027e-07
7.41857e-07
7.42654e-07
7.42545e-07
7.41448e-07
7.39342e-07
7.36208e-07
7.32032e-07
7.26804e-07
7.20518e-07
7.13174e-07
7.04781e-07
6.95349e-07
6.84898e-07
6.73454e-07
6.61048e-07
6.47717e-07
6.33507e-07
6.18467e-07
6.02653e-07
5.86124e-07
5.68946e-07
5.51188e-07
5.32923e-07
5.14225e-07
4.95172e-07
4.75841e-07
4.56312e-07
4.36664e-07
4.16973e-07
3.97316e-07
3.77765e-07
3.5839e-07
3.39258e-07
3.2043e-07
3.01961e-07
2.83904e-07
2.66303e-07
2.49197e-07
2.32619e-07
2.16596e-07
2.01146e-07
1.86283e-07
1.72014e-07
1.58338e-07
1.45251e-07
1.32741e-07
1.20791e-07
1.09378e-07
9.84765e-08
8.80565e-08
7.80862e-08
6.85341e-08
5.93723e-08
5.05821e-08
4.21617e-08
3.4138e-08
2.65814e-08
1.96207e-08
1.34501e-08
8.30878e-09
4.41811e-09
1.87272e-09
5.43753e-10
7.22507e-11
4.24472e-13
1.13341e-12
1.92486e-10
1.4464e-09
4.99796e-09
1.19037e-08
2.27109e-08
3.7374e-08
5.53772e-08
7.59448e-08
9.82431e-08
1.21513e-07
1.45135e-07
1.68638e-07
1.91691e-07
2.14075e-07
2.35658e-07
2.56375e-07
2.76206e-07
2.95167e-07
3.13297e-07
3.30649e-07
3.47287e-07
3.63281e-07
3.78703e-07
3.93625e-07
4.08118e-07
4.22248e-07
4.36081e-07
4.49674e-07
4.63081e-07
4.7635e-07
4.89522e-07
5.02635e-07
5.15719e-07
5.288e-07
5.41898e-07
5.55029e-07
5.68204e-07
5.81429e-07
5.94709e-07
6.08042e-07
6.21423e-07
6.34847e-07
6.48301e-07
6.61773e-07
6.75246e-07
6.88702e-07
7.02117e-07
7.15468e-07
7.28726e-07
7.41862e-07
7.54843e-07
7.67634e-07
7.80196e-07
7.9249e-07
8.04472e-07
8.16097e-07
8.27318e-07
8.38086e-07
8.48351e-07
8.5806e-07
8.6716e-07
8.75599e-07
8.83321e-07
8.90273e-07
8.96402e-07
9.01657e-07
9.05987e-07
9.09343e-07
9.11678e-07
9.12841e-07
9.13067e-07
9.12148e-07
9.1004e-07
9.06724e-07
9.02186e-07
8.96413e-07
8.89398e-07
8.81141e-07
8.71646e-07
8.60926e-07
8.48998e-07
8.35888e-07
8.21629e-07
8.06259e-07
7.89824e-07
7.72379e-07
7.5398e-07
7.34693e-07
7.14587e-07
6.93739e-07
6.72226e-07
6.50133e-07
6.27544e-07
6.04547e-07
5.81232e-07
5.57689e-07
5.34008e-07
5.10275e-07
4.86579e-07
4.63002e-07
4.39626e-07
4.16525e-07
3.93771e-07
3.7143e-07
3.4956e-07
3.28216e-07
3.07443e-07
2.8728e-07
2.67758e-07
2.48903e-07
2.30729e-07
2.13247e-07
1.96457e-07
1.80353e-07
1.64924e-07
1.50148e-07
1.36001e-07
1.22452e-07
1.09466e-07
9.70056e-08
8.50372e-08
7.35318e-08
6.24751e-08
5.18781e-08
4.17924e-08
3.23279e-08
2.36677e-08
1.60678e-08
9.8201e-09
5.16573e-09
2.16856e-09
6.25092e-10
8.2709e-11
4.85205e-13
1.30021e-12
2.21071e-10
1.66655e-09
5.78979e-09
1.38889e-08
2.67185e-08
4.43477e-08
6.62557e-08
9.15461e-08
1.19191e-07
1.48212e-07
1.7778e-07
2.0725e-07
2.36158e-07
2.64193e-07
2.91166e-07
3.1698e-07
3.41607e-07
3.65065e-07
3.87406e-07
4.08705e-07
4.29049e-07
4.48533e-07
4.67256e-07
4.85314e-07
5.02802e-07
5.1981e-07
5.36421e-07
5.52714e-07
5.68755e-07
5.84608e-07
6.00326e-07
6.15955e-07
6.31533e-07
6.47091e-07
6.62655e-07
6.78242e-07
6.93866e-07
7.09532e-07
7.25243e-07
7.40996e-07
7.56785e-07
7.72598e-07
7.8842e-07
8.04232e-07
8.20013e-07
8.35738e-07
8.51377e-07
8.66898e-07
8.82268e-07
8.97447e-07
9.12395e-07
9.27067e-07
9.41419e-07
9.55399e-07
9.68959e-07
9.82042e-07
9.94596e-07
1.00656e-06
1.01788e-06
1.0285e-06
1.03835e-06
1.04737e-06
1.05552e-06
1.06272e-06
1.06892e-06
1.07407e-06
1.07812e-06
1.08101e-06
1.08261e-06
1.08292e-06
1.08224e-06
1.08013e-06
1.07665e-06
1.07178e-06
1.06553e-06
1.05787e-06
1.04881e-06
1.03835e-06
1.0265e-06
1.01329e-06
9.98726e-07
9.82852e-07
9.65704e-07
9.47328e-07
9.27779e-07
9.07115e-07
8.85404e-07
8.62717e-07
8.39132e-07
8.14733e-07
7.89607e-07
7.63844e-07
7.37539e-07
7.10789e-07
6.8369e-07
6.56341e-07
6.28841e-07
6.01286e-07
5.73771e-07
5.46389e-07
5.19228e-07
4.92371e-07
4.65898e-07
4.39882e-07
4.14388e-07
3.89477e-07
3.65201e-07
3.41604e-07
3.18721e-07
2.96582e-07
2.75204e-07
2.54599e-07
2.3477e-07
2.15709e-07
1.97404e-07
1.79832e-07
1.62964e-07
1.46766e-07
1.312e-07
1.16224e-07
1.01803e-07
8.79105e-08
7.45387e-08
6.17159e-08
4.95231e-08
3.81145e-08
2.7731e-08
1.86904e-08
1.13337e-08
5.91605e-09
2.4668e-09
7.07518e-10
9.33482e-11
5.47083e-13
1.47658e-12
2.51287e-10
1.89899e-09
6.62435e-09
1.59774e-08
3.09301e-08
5.16768e-08
7.76989e-08
1.07984e-07
1.41304e-07
1.76447e-07
2.12356e-07
2.48194e-07
2.83349e-07
3.17404e-07
3.50104e-07
3.81318e-07
4.11005e-07
4.3919e-07
4.65941e-07
4.91354e-07
5.15546e-07
5.38639e-07
5.60761e-07
5.82038e-07
6.0259e-07
6.22532e-07
6.4197e-07
6.61e-07
6.79708e-07
6.98169e-07
7.16449e-07
7.34604e-07
7.52678e-07
7.70709e-07
7.88724e-07
8.06744e-07
8.2478e-07
8.4284e-07
8.60923e-07
8.79023e-07
8.97129e-07
9.15225e-07
9.33292e-07
9.51303e-07
9.69232e-07
9.87044e-07
1.0047e-06
1.02217e-06
1.03941e-06
1.05636e-06
1.07299e-06
1.08923e-06
1.10504e-06
1.12035e-06
1.13511e-06
1.14926e-06
1.16274e-06
1.17548e-06
1.18742e-06
1.19849e-06
1.20863e-06
1.21779e-06
1.22589e-06
1.23287e-06
1.23869e-06
1.24328e-06
1.2466e-06
1.24859e-06
1.24904e-06
1.24812e-06
1.24617e-06
1.24252e-06
1.23734e-06
1.23064e-06
1.2224e-06
1.21262e-06
1.20132e-06
1.1885e-06
1.17417e-06
1.15836e-06
1.14111e-06
1.12245e-06
1.10242e-06
1.08108e-06
1.05849e-06
1.03471e-06
1.00982e-06
9.83885e-07
9.57e-07
9.29251e-07
9.00731e-07
8.71537e-07
8.41768e-07
8.11528e-07
7.80919e-07
7.50047e-07
7.19017e-07
6.8793e-07
6.56889e-07
6.25992e-07
5.95334e-07
5.65005e-07
5.3509e-07
5.05668e-07
4.76811e-07
4.48584e-07
4.21043e-07
3.94236e-07
3.68205e-07
3.42978e-07
3.18579e-07
2.95019e-07
2.72301e-07
2.50419e-07
2.29358e-07
2.09093e-07
1.89593e-07
1.7082e-07
1.52733e-07
1.35288e-07
1.1845e-07
1.02194e-07
8.65242e-08
7.14881e-08
5.71988e-08
4.38574e-08
3.17633e-08
2.12954e-08
1.28411e-08
6.66626e-09
2.76659e-09
7.90804e-10
1.04137e-10
6.09914e-13
1.66281e-12
2.83187e-10
2.14424e-09
7.50381e-09
1.81751e-08
3.53563e-08
5.93734e-08
8.97119e-08
1.25243e-07
1.6453e-07
2.06113e-07
2.48694e-07
2.91229e-07
3.32942e-07
3.73305e-07
4.11991e-07
4.48831e-07
4.83774e-07
5.1685e-07
5.48146e-07
5.77786e-07
6.05914e-07
6.32687e-07
6.58263e-07
6.82799e-07
7.06446e-07
7.29342e-07
7.51618e-07
7.73388e-07
7.94757e-07
8.15814e-07
8.36636e-07
8.57288e-07
8.7782e-07
8.98274e-07
9.18681e-07
9.3906e-07
9.59424e-07
9.79777e-07
1.00011e-06
1.02043e-06
1.0407e-06
1.06091e-06
1.08103e-06
1.10103e-06
1.12087e-06
1.14052e-06
1.15993e-06
1.17904e-06
1.19782e-06
1.21621e-06
1.23415e-06
1.25158e-06
1.26844e-06
1.28467e-06
1.3002e-06
1.31497e-06
1.32891e-06
1.34195e-06
1.35403e-06
1.36508e-06
1.37503e-06
1.38383e-06
1.39142e-06
1.39772e-06
1.4027e-06
1.40629e-06
1.40845e-06
1.40915e-06
1.40806e-06
1.40559e-06
1.40198e-06
1.39657e-06
1.38942e-06
1.38064e-06
1.37022e-06
1.35817e-06
1.3445e-06
1.32923e-06
1.31237e-06
1.29396e-06
1.27403e-06
1.25263e-06
1.2298e-06
1.20561e-06
1.18012e-06
1.15339e-06
1.12551e-06
1.09655e-06
1.0666e-06
1.03576e-06
1.00412e-06
9.71776e-07
9.38841e-07
9.05418e-07
8.71615e-07
8.3754e-07
8.03302e-07
7.69009e-07
7.34766e-07
7.00677e-07
6.66841e-07
6.33354e-07
6.00306e-07
5.67778e-07
5.35849e-07
5.04587e-07
4.74052e-07
4.44297e-07
4.15364e-07
3.87286e-07
3.60088e-07
3.33781e-07
3.08369e-07
2.83846e-07
2.60195e-07
2.37389e-07
2.15395e-07
1.94172e-07
1.73675e-07
1.5386e-07
1.34691e-07
1.1615e-07
9.82494e-08
8.10596e-08
6.47266e-08
4.94986e-08
3.5733e-08
2.38682e-08
1.43363e-08
7.41452e-09
3.06737e-09
8.74793e-10
1.15052e-10
6.73565e-13
1.85921e-12
3.16827e-10
2.40279e-09
8.43029e-09
2.04877e-08
4.00085e-08
6.7454e-08
1.02312e-07
1.43331e-07
1.88855e-07
2.37163e-07
2.86702e-07
3.36206e-07
3.84731e-07
4.31628e-07
4.76497e-07
5.1913e-07
5.59466e-07
5.97544e-07
6.33472e-07
6.67402e-07
6.99514e-07
7.29997e-07
7.59045e-07
7.86847e-07
8.13584e-07
8.39422e-07
8.64513e-07
8.88995e-07
9.12988e-07
9.36594e-07
9.59902e-07
9.82984e-07
1.0059e-06
1.02868e-06
1.05138e-06
1.074e-06
1.09656e-06
1.11905e-06
1.14148e-06
1.16382e-06
1.18605e-06
1.20814e-06
1.23007e-06
1.25178e-06
1.27325e-06
1.29441e-06
1.31523e-06
1.33564e-06
1.35558e-06
1.37501e-06
1.39384e-06
1.41203e-06
1.4295e-06
1.44618e-06
1.46201e-06
1.47691e-06
1.49083e-06
1.50369e-06
1.51542e-06
1.52597e-06
1.53526e-06
1.54324e-06
1.54985e-06
1.55504e-06
1.55875e-06
1.56095e-06
1.56158e-06
1.5606e-06
1.55765e-06
1.55344e-06
1.54781e-06
1.54046e-06
1.53115e-06
1.52013e-06
1.50741e-06
1.493e-06
1.47692e-06
1.45917e-06
1.4398e-06
1.41884e-06
1.39632e-06
1.37229e-06
1.34682e-06
1.31995e-06
1.29175e-06
1.26229e-06
1.23166e-06
1.19993e-06
1.1672e-06
1.13355e-06
1.09909e-06
1.06392e-06
1.02815e-06
9.91869e-07
9.55204e-07
9.18261e-07
8.81152e-07
8.43987e-07
8.06875e-07
7.69923e-07
7.33234e-07
6.96907e-07
6.61035e-07
6.25705e-07
5.90999e-07
5.56988e-07
5.23737e-07
4.91299e-07
4.59722e-07
4.29039e-07
3.99275e-07
3.70445e-07
3.42552e-07
3.15588e-07
2.89536e-07
2.64367e-07
2.40045e-07
2.16526e-07
1.93763e-07
1.71711e-07
1.50334e-07
1.29618e-07
1.0959e-07
9.03391e-08
7.20446e-08
5.50003e-08
3.962e-08
2.63997e-08
1.58161e-08
8.15983e-09
3.36882e-09
9.59396e-10
1.26083e-10
7.37959e-13
2.06607e-12
3.52262e-10
2.67513e-09
9.40581e-09
2.2921e-08
4.48981e-08
7.59368e-08
1.15521e-07
1.62269e-07
2.14289e-07
2.69586e-07
3.26337e-07
3.83046e-07
4.38592e-07
4.92202e-07
5.43402e-07
5.91949e-07
6.3777e-07
6.80917e-07
7.21523e-07
7.59771e-07
7.95877e-07
8.30068e-07
8.62574e-07
8.93618e-07
9.2341e-07
9.52146e-07
9.80002e-07
1.00714e-06
1.03368e-06
1.05976e-06
1.08546e-06
1.11087e-06
1.13605e-06
1.16104e-06
1.18588e-06
1.21058e-06
1.23515e-06
1.25959e-06
1.28388e-06
1.30801e-06
1.33194e-06
1.35564e-06
1.37907e-06
1.40218e-06
1.42492e-06
1.44724e-06
1.46908e-06
1.49038e-06
1.51108e-06
1.5311e-06
1.55039e-06
1.56887e-06
1.58647e-06
1.60313e-06
1.61877e-06
1.63333e-06
1.64674e-06
1.65894e-06
1.66985e-06
1.67943e-06
1.68761e-06
1.69433e-06
1.69956e-06
1.70324e-06
1.70532e-06
1.70578e-06
1.70459e-06
1.70158e-06
1.69656e-06
1.69043e-06
1.68254e-06
1.67308e-06
1.66154e-06
1.6482e-06
1.63313e-06
1.61634e-06
1.59785e-06
1.57769e-06
1.55589e-06
1.53249e-06
1.50752e-06
1.48105e-06
1.45311e-06
1.42377e-06
1.39311e-06
1.36118e-06
1.32808e-06
1.29387e-06
1.25866e-06
1.22252e-06
1.18557e-06
1.14789e-06
1.10961e-06
1.07081e-06
1.03162e-06
9.92148e-07
9.52501e-07
9.12794e-07
8.73139e-07
8.33644e-07
7.94415e-07
7.55554e-07
7.17158e-07
6.79318e-07
6.42117e-07
6.05631e-07
5.69927e-07
5.35063e-07
5.01087e-07
4.68036e-07
4.35936e-07
4.04803e-07
3.74639e-07
3.45437e-07
3.17177e-07
2.89829e-07
2.63355e-07
2.37708e-07
2.12838e-07
1.887e-07
1.65257e-07
1.42501e-07
1.2047e-07
9.92711e-08
7.91157e-08
6.03407e-08
4.34133e-08
2.88857e-08
1.72792e-08
8.90186e-09
3.67089e-09
1.0446e-09
1.37224e-10
8.03076e-13
2.28369e-12
3.89544e-10
2.96171e-09
1.04323e-08
2.548e-08
5.00359e-08
8.48395e-08
1.29364e-07
1.82084e-07
2.40855e-07
3.03391e-07
3.67588e-07
4.3171e-07
4.94453e-07
5.54921e-07
6.12565e-07
6.67107e-07
7.1847e-07
7.66719e-07
8.12016e-07
8.54578e-07
8.9466e-07
9.32527e-07
9.68447e-07
1.00268e-06
1.03546e-06
1.06703e-06
1.09757e-06
1.12726e-06
1.15626e-06
1.18469e-06
1.21267e-06
1.24027e-06
1.26756e-06
1.29458e-06
1.32138e-06
1.34795e-06
1.37432e-06
1.40046e-06
1.42636e-06
1.45199e-06
1.47732e-06
1.5023e-06
1.52689e-06
1.55103e-06
1.57467e-06
1.59774e-06
1.62019e-06
1.64195e-06
1.66295e-06
1.68311e-06
1.70238e-06
1.72068e-06
1.73794e-06
1.7541e-06
1.76908e-06
1.78283e-06
1.79527e-06
1.80634e-06
1.816e-06
1.82419e-06
1.83085e-06
1.83594e-06
1.83942e-06
1.84125e-06
1.8414e-06
1.83985e-06
1.83657e-06
1.83126e-06
1.8242e-06
1.81586e-06
1.80566e-06
1.79387e-06
1.78015e-06
1.76447e-06
1.74706e-06
1.72794e-06
1.70714e-06
1.68468e-06
1.66059e-06
1.63491e-06
1.60768e-06
1.57896e-06
1.5488e-06
1.51725e-06
1.48439e-06
1.45028e-06
1.415e-06
1.37862e-06
1.34124e-06
1.30294e-06
1.26382e-06
1.22397e-06
1.18351e-06
1.14253e-06
1.10114e-06
1.05947e-06
1.0176e-06
9.75673e-07
9.33785e-07
8.9205e-07
8.50576e-07
8.09469e-07
7.68826e-07
7.28744e-07
6.89307e-07
6.50597e-07
6.12684e-07
5.75627e-07
5.39479e-07
5.04279e-07
4.70054e-07
4.36821e-07
4.04584e-07
3.73334e-07
3.43051e-07
3.13704e-07
2.85251e-07
2.57643e-07
2.30829e-07
2.04761e-07
1.79403e-07
1.54751e-07
1.3085e-07
1.07828e-07
8.59226e-08
6.55104e-08
4.7109e-08
3.13251e-08
1.87258e-08
9.641e-09
3.97375e-09
1.13044e-09
1.48483e-10
8.68948e-13
2.51233e-12
4.28723e-10
3.26295e-09
1.15113e-08
2.81695e-08
5.5432e-08
9.41789e-08
1.43863e-07
2.02801e-07
2.68577e-07
3.38596e-07
4.10458e-07
4.8218e-07
5.52272e-07
6.19715e-07
6.83887e-07
7.44479e-07
8.01411e-07
8.54768e-07
9.0474e-07
9.51584e-07
9.95595e-07
1.03708e-06
1.07634e-06
1.11368e-06
1.14937e-06
1.18366e-06
1.21677e-06
1.2489e-06
1.28022e-06
1.31087e-06
1.34096e-06
1.37057e-06
1.39978e-06
1.42864e-06
1.45717e-06
1.48538e-06
1.51327e-06
1.54083e-06
1.56804e-06
1.59486e-06
1.62124e-06
1.64714e-06
1.67251e-06
1.69729e-06
1.72141e-06
1.74482e-06
1.76744e-06
1.78921e-06
1.81005e-06
1.82989e-06
1.84868e-06
1.86633e-06
1.88279e-06
1.89798e-06
1.91185e-06
1.92434e-06
1.93538e-06
1.94493e-06
1.95293e-06
1.95936e-06
1.96415e-06
1.96728e-06
1.96872e-06
1.96844e-06
1.96642e-06
1.96264e-06
1.95707e-06
1.94935e-06
1.94022e-06
1.92954e-06
1.91701e-06
1.90281e-06
1.88695e-06
1.86898e-06
1.84932e-06
1.82799e-06
1.805e-06
1.78039e-06
1.75419e-06
1.72644e-06
1.69718e-06
1.66646e-06
1.63433e-06
1.60085e-06
1.56607e-06
1.53008e-06
1.49292e-06
1.45469e-06
1.41547e-06
1.37533e-06
1.33437e-06
1.29268e-06
1.25036e-06
1.20752e-06
1.16426e-06
1.12069e-06
1.07692e-06
1.03306e-06
9.89231e-07
9.45537e-07
9.02091e-07
8.58999e-07
8.16363e-07
7.74281e-07
7.32843e-07
6.92133e-07
6.52225e-07
6.13184e-07
5.75064e-07
5.37907e-07
5.01744e-07
4.66593e-07
4.32459e-07
3.99333e-07
3.67195e-07
3.36013e-07
3.05743e-07
2.76334e-07
2.47731e-07
2.19885e-07
1.92761e-07
1.66356e-07
1.40724e-07
1.16006e-07
9.24632e-08
7.05096e-08
5.07089e-08
3.372e-08
2.01575e-08
1.03782e-08
4.27781e-09
1.21705e-09
1.59874e-10
9.35659e-13
2.75224e-12
4.69842e-10
3.57923e-09
1.26445e-08
3.09936e-08
6.10947e-08
1.03969e-07
1.59039e-07
2.24446e-07
2.9748e-07
3.75219e-07
4.54954e-07
5.34448e-07
6.12024e-07
6.86537e-07
7.57298e-07
8.2397e-07
8.86475e-07
9.44919e-07
9.99527e-07
1.0506e-06
1.09846e-06
1.14348e-06
1.18599e-06
1.22633e-06
1.26481e-06
1.3017e-06
1.33724e-06
1.37166e-06
1.40514e-06
1.43782e-06
1.46982e-06
1.50125e-06
1.53216e-06
1.5626e-06