/*--------------------------------*- C++ -*----------------------------------*\
  =========                 |
  \\      /  F ield         | OpenFOAM: The Open Source CFD Toolbox
   \\    /   O peration     | Website:  https://openfoam.org
    \\  /    A nd           | Version:  12
     \\/     M anipulation  |
\*---------------------------------------------------------------------------*/
FoamFile
{
    format      ascii;
    class       volScalarField;
    location    "2";
    object      p;
}
// * * * * * * * * * * * * * * * * * * * * * * * * * * * * * * * * * * * * * //

dimensions      [0 2 -2 0 0 0 0];

internalField   nonuniform List<scalar> 
900
(
-2.13567e-08
6.46176e-05
0.000135838
0.00018006
0.000181604
0.000133652
3.38367e-05
-0.000116968
-0.000315513
-0.0005569
-0.00083526
-0.00114414
-0.00147686
-0.00182659
-0.00218656
-0.00254995
-0.00291
-0.00325989
-0.0035928
-0.00390188
-0.00418041
-0.00442188
-0.00462041
-0.00477107
-0.00487061
-0.00491821
-0.00491626
-0.00487169
-0.00480024
-0.00473552
-0.000187141
-9.14967e-05
-6.95796e-06
3.30835e-05
2.54424e-05
-2.94789e-05
-0.000131278
-0.000278263
-0.000467241
-0.000693871
-0.000953087
-0.00123934
-0.00154681
-0.0018695
-0.00220135
-0.00253628
-0.00286817
-0.00319091
-0.00349843
-0.00378471
-0.00404391
-0.00427046
-0.00445926
-0.00460598
-0.00470742
-0.00476192
-0.0047691
-0.00472863
-0.00464375
-0.00454789
-0.000231182
-0.000102944
3.91085e-06
4.80767e-05
3.46909e-05
-2.93032e-05
-0.000140241
-0.000294793
-0.000488912
-0.000717957
-0.00097693
-0.00126059
-0.00156357
-0.00188037
-0.00220549
-0.00253339
-0.00285851
-0.00317531
-0.00347826
-0.00376185
-0.00402069
-0.00424951
-0.00444332
-0.00459744
-0.00470786
-0.00477124
-0.00478396
-0.0047391
-0.00463157
-0.00450281
-9.01349e-06
0.0001342
0.000248478
0.000286731
0.000258065
0.000173413
3.90133e-05
-0.000140083
-0.000358611
-0.000611159
-0.000892319
-0.00119675
-0.00151918
-0.0018544
-0.00219728
-0.0025427
-0.00288559
-0.00322082
-0.00354322
-0.00384758
-0.00412858
-0.00438085
-0.00459895
-0.00477746
-0.00491111
-0.00499485
-0.00502246
-0.00498302
-0.0048675
-0.00472324
0.000535008
0.000667681
0.000761572
0.000769464
0.000703011
0.000575792
0.000396187
0.000170905
-9.35539e-05
-0.00039095
-0.000715409
-0.00106145
-0.00142391
-0.00179792
-0.00217877
-0.00256193
-0.00294285
-0.00331696
-0.00367953
-0.00402563
-0.00435004
-0.00464722
-0.00491123
-0.00513578
-0.00531436
-0.00544023
-0.00550504
-0.0054952
-0.00539915
-0.00526458
0.00145297
0.00154394
0.00158188
0.00152621
0.00139086
0.00119148
0.00093854
0.000640493
0.000305086
-6.06627e-05
-0.000450522
-0.000859029
-0.00128136
-0.00171321
-0.00215068
-0.00259005
-0.00302771
-0.00345992
-0.0038827
-0.00429165
-0.00468183
-0.00504766
-0.00538279
-0.00568008
-0.00593172
-0.00612921
-0.00626208
-0.00631466
-0.00627311
-0.00617886
0.00280121
0.00280949
0.00274449
0.00258133
0.00233635
0.00202695
0.00166589
0.00126354
0.000828923
0.000369675
-0.000107893
-0.000598708
-0.00109875
-0.00160485
-0.00211444
-0.00262532
-0.00313537
-0.00364233
-0.00414353
-0.00463561
-0.00511435
-0.00557445
-0.00600937
-0.00641124
-0.00677088
-0.0070778
-0.00731919
-0.00747758
-0.00753667
-0.00752286
0.00464291
0.00451201
0.00428025
0.00395121
0.0035439
0.00307694
0.00256559
0.00202239
0.00145757
0.000879034
0.000292673
-0.000297497
-0.000889059
-0.00148086
-0.00207263
-0.00266466
-0.00325738
-0.00385098
-0.00444501
-0.00503801
-0.00562723
-0.00620824
-0.00677476
-0.00731842
-0.00782866
-0.00829271
-0.00869509
-0.00901694
-0.00923926
-0.00936102
0.0070436
0.00669477
0.00620898
0.0056366
0.00499917
0.00431558
0.00360374
0.00287844
0.00215073
0.00142833
0.000715808
1.50416e-05
-0.000674382
-0.00135468
-0.00202936
-0.00270271
-0.00337921
-0.00406294
-0.00475714
-0.00546356
-0.00618203
-0.00691002
-0.00764223
-0.00837025
-0.00908234
-0.00976315
-0.0103943
-0.0109563
-0.0114274
-0.0117615
0.0100602
0.00938483
0.00852674
0.00760905
0.00665532
0.00568279
0.00471183
0.00375937
0.00283679
0.00195039
0.0011021
0.000290017
-0.000490915
-0.00124829
-0.00199149
-0.00273095
-0.00347735
-0.00424087
-0.00503044
-0.00585294
-0.00671256
-0.00761012
-0.00854253
-0.00950227
-0.0104767
-0.011448
-0.0123946
-0.013298
-0.0141341
-0.0147866
0.0137234
0.0125741
0.0111858
0.00979058
0.00841273
0.00706462
0.00576833
0.00454239
0.0033973
0.00233629
0.0013565
0.00044992
-0.00039582
-0.0011965
-0.00197029
-0.0027368
-0.00351597
-0.00432704
-0.00518752
-0.0061122
-0.00711209
-0.00819363
-0.00935783
-0.0105995
-0.011906
-0.013257
-0.0146283
-0.0160052
-0.017362
-0.0184771
0.0180096
0.01619
0.0140649
0.0120243
0.0100905
0.00826592
0.00657286
0.00503023
0.00364567
0.00241668
0.00133261
0.000375882
-0.0004768
-0.00125326
-0.00198448
-0.00270333
-0.0034431
-0.00423619
-0.00511271
-0.0060991
-0.00721683
-0.00848115
-0.00989999
-0.0114727
-0.0131884
-0.0150248
-0.0169563
-0.0189757
-0.0210578
-0.0228283
0.0228005
0.0200551
0.0169285
0.0140338
0.0113869
0.00897303
0.00681155
0.00491958
0.00329874
0.00193698
0.000811466
-0.000109566
-0.000865313
-0.00150078
-0.00206508
-0.00260973
-0.00318684
-0.00384742
-0.00463951
-0.00560644
-0.00678507
-0.00820407
-0.00988239
-0.0118275
-0.0140327
-0.0164755
-0.0191304
-0.0220045
-0.0250764
-0.0277548
0.0278253
0.0238284
0.0193687
0.0153674
0.0118271
0.00870446
0.00601141
0.00375955
0.00193975
0.000524855
-0.000526084
-0.00126531
-0.0017544
-0.00206225
-0.00226292
-0.00243352
-0.00265206
-0.0029952
-0.00353602
-0.0043417
-0.00547123
-0.00697313
-0.00888335
-0.0112227
-0.0139928
-0.0171736
-0.0207432
-0.0247325
-0.0291286
-0.0330395
0.0325807
0.0269271
0.0207296
0.0153253
0.0106936
0.00674644
0.00348127
0.000898253
-0.00102938
-0.00235155
-0.00313536
-0.00346168
-0.00342279
-0.00311987
-0.00266047
-0.00215599
-0.00171914
-0.00146122
-0.00148945
-0.00190403
-0.00279521
-0.00424023
-0.0063005
-0.00901788
-0.0124087
-0.0164603
-0.0211598
-0.0265753
-0.0327101
-0.0382631
0.0362234
0.0284214
0.0200057
0.0128638
0.00693673
0.00207051
-0.00176335
-0.00458482
-0.00644818
-0.00743657
-0.0076537
-0.0072195
-0.00626719
-0.00494042
-0.00339049
-0.00177348
-0.000247447
0.0010306
0.00190789
0.00223938
0.00189151
0.000746118
-0.00129561
-0.00430797
-0.00833196
-0.01337
-0.0194276
-0.0266285
-0.0350038
-0.0427049
0.0374278
0.0268972
0.0157113
0.0064723
-0.00093807
-0.00676976
-0.0110932
-0.0139618
-0.0154711
-0.0157515
-0.0149568
-0.0132588
-0.0108438
-0.00790971
-0.00466327
-0.001317
0.00191345
0.00481243
0.00716778
0.00877478
0.00944079
0.00899022
0.00726995
0.00415662
-0.000430673
-0.00652246
-0.014157
-0.0235404
-0.0347476
-0.0452096
0.0342034
0.0202794
0.00571419
-0.00598072
-0.0150118
-0.0217652
-0.0263773
-0.0289542
-0.0296526
-0.0286685
-0.0262231
-0.0225551
-0.0179178
-0.0125759
-0.0068037
-0.000882444
0.00490172
0.0102604
0.014906
0.0185564
0.0209396
0.0218006
0.0209081
0.0180654
0.0131278
0.00601562
-0.00336537
-0.0153415
-0.0300552
-0.0440026
0.0236605
0.00560725
-0.0129766
-0.0274422
-0.0381245
-0.0456014
-0.0501108
-0.0518411
-0.0510374
-0.0479869
-0.0429989
-0.0363967
-0.0285147
-0.0196968
-0.0102953
-0.000670846
0.00880835
0.0177675
0.0258273
0.0326075
0.0377325
0.0408384
0.0415829
0.0396594
0.0348232
0.0269101
0.015732
0.000787167
-0.0181698
-0.0364377
0.00171057
-0.0212568
-0.0444832
-0.0619185
-0.0740852
-0.0818313
-0.0855516
-0.0855625
-0.0822379
-0.0759898
-0.0672419
-0.0564209
-0.0439552
-0.0302759
-0.0158195
-0.00103111
0.0136329
0.0277018
0.0406907
0.0521013
0.0614258
0.0681548
0.071789
0.0718592
0.0679632
0.0597936
0.0470051
0.0288354
0.00488115
-0.0186407
-0.0373344
-0.0660198
-0.094424
-0.114792
-0.127925
-0.135062
-0.136844
-0.13379
-0.126462
-0.115443
-0.101303
-0.0845902
-0.0658343
-0.0455528
-0.0242607
-0.00248109
0.0192462
0.0403561
0.0602551
0.078313
0.0938609
0.106202
0.114619
0.118403
0.116905
0.109576
0.0958026
0.0744259
0.0447887
0.0150097
-0.101351
-0.136537
-0.170442
-0.193251
-0.206204
-0.211134
-0.209084
-0.200895
-0.18741
-0.169447
-0.147758
-0.123024
-0.0958693
-0.066878
-0.0366186
-0.00567128
0.0253644
0.0558815
0.0852005
0.112536
0.13704
0.157797
0.173796
0.183982
0.187321
0.182858
0.169519
0.145507
0.109733
0.0726819
-0.201399
-0.243776
-0.283048
-0.306913
-0.317378
-0.317242
-0.308231
-0.291706
-0.268932
-0.241043
-0.209007
-0.173634
-0.135591
-0.0954894
-0.0539109
-0.0113942
0.0315161
0.0741809
0.115868
0.155753
0.192838
0.225902
0.253561
0.274287
0.286467
0.28847
0.278419
0.253438
0.211638
0.166418
-0.353658
-0.403618
-0.447075
-0.468771
-0.472196
-0.461858
-0.440661
-0.410805
-0.374168
-0.33226
-0.286253
-0.237018
-0.185202
-0.131377
-0.0760407
-0.0195729
0.0376969
0.0953375
0.15273
0.209022
0.263085
0.313499
0.358509
0.395984
0.423467
0.438204
0.43692
0.414814
0.368399
0.314562
-0.583784
-0.640598
-0.684333
-0.696542
-0.683886
-0.654043
-0.611903
-0.560895
-0.503713
-0.442169
-0.377559
-0.310901
-0.242761
-0.173265
-0.102335
-0.0299158
0.0439621
0.119158
0.195354
0.27197
0.348069
0.422222
0.492366
0.555715
0.608772
0.647287
0.665332
0.65457
0.608166
0.54674
-0.938128
-0.996574
-1.02899
-1.0148
-0.967752
-0.901337
-0.823562
-0.739252
-0.651981
-0.564121
-0.476725
-0.389908
-0.303412
-0.216733
-0.129233
-0.040237
0.0509087
0.144788
0.241828
0.342149
0.44541
0.550613
0.65584
0.757976
0.852482
0.933199
0.99106
1.01113
0.978299
0.915675
-1.50656
-1.54615
-1.53538
-1.45602
-1.33741
-1.20314
-1.06629
-0.932897
-0.805333
-0.68435
-0.569634
-0.460216
-0.35482
-0.2519
-0.149709
-0.04641
0.0598253
0.17077
0.288075
0.413178
0.54714
0.690396
0.84237
1.00094
1.16175
1.31708
1.45355
1.54582
1.56197
1.52145
-2.47199
-2.42335
-2.27717
-2.04661
-1.79144
-1.54529
-1.3193
-1.1164
-0.935916
-0.7754
-0.631872
-0.501874
-0.381731
-0.267866
-0.156849
-0.0453539
0.0699081
0.192265
0.325099
0.471896
0.636205
0.821457
1.03057
1.26524
1.52472
1.80366
2.08681
2.33814
2.49752
2.5525
-4.60255
-3.97447
-3.26134
-2.65572
-2.16288
-1.7589
-1.42857
-1.1592
-0.938807
-0.756739
-0.603672
-0.471833
-0.354726
-0.246838
-0.143339
-0.0398043
0.0681029
0.184971
0.315565
0.465437
0.641151
0.850529
1.10293
1.40927
1.78122
2.22974
2.76674
3.41073
4.15412
4.80485
-11.2873
-7.78817
-5.25641
-3.7217
-2.71403
-2.00235
-1.49235
-1.12591
-0.859267
-0.660868
-0.508923
-0.388244
-0.287913
-0.199777
-0.117492
-0.0358511
0.051012
0.148636
0.262799
0.401989
0.577545
0.805102
1.10705
1.5158
2.07661
2.84928
3.92713
5.5334
8.12542
11.6641
)
;

boundaryField
{
    movingWall
    {
        type            zeroGradient;
    }
    fixedWalls
    {
        type            zeroGradient;
    }
    frontAndBack
    {
        type            empty;
    }
}


// ************************************************************************* //
