/*--------------------------------*- C++ -*----------------------------------*\
  =========                 |
  \\      /  F ield         | OpenFOAM: The Open Source CFD Toolbox
   \\    /   O peration     | Website:  https://openfoam.org
    \\  /    A nd           | Version:  12
     \\/     M anipulation  |
\*---------------------------------------------------------------------------*/
FoamFile
{
    format      ascii;
    class       volScalarField;
    location    "2";
    object      epsilon;
}
// * * * * * * * * * * * * * * * * * * * * * * * * * * * * * * * * * * * * * //

dimensions      [0 2 -3 0 0 0 0];

internalField   nonuniform List<scalar> 
18225
(
3.5705e-06
2.41522e-05
5.37582e-05
8.90111e-05
0.000128308
0.000170592
0.000215031
0.000260907
0.000307569
0.000354409
0.000400861
0.000446395
0.000490529
0.000532825
0.000572902
0.000610436
0.000645161
0.000676876
0.000705443
0.000730783
0.000752879
0.000771769
0.000787544
0.000800347
0.000810363
0.000817824
0.000822999
0.000826196
0.000827758
0.000828067
0.000827545
0.000826613
0.000825767
0.000825527
0.000826432
0.000829094
0.00083419
0.000842383
0.000854382
0.000870934
0.000892814
0.000920829
0.000955803
0.000998581
0.00105002
0.00111098
0.00118232
0.00126492
0.00135964
0.00146736
0.00158894
0.00172526
0.00187721
0.00204565
0.00223148
0.00243554
0.00265869
0.00290171
0.00316535
0.00345027
0.00375704
0.00408612
0.00443787
0.00481251
0.00521016
0.00563083
0.00607445
0.00654087
0.00702986
0.00754118
0.00807455
0.00862964
0.00920611
0.00980359
0.0104217
0.0110599
0.0117178
0.0123948
0.0130902
0.0138032
0.0145329
0.0152784
0.0160382
0.016811
0.017595
0.0183881
0.0191879
0.0199916
0.0207959
0.0215968
0.02239
0.0231702
0.0239316
0.0246673
0.0253699
0.0260308
0.0266406
0.027189
0.027664
0.028053
0.0283428
0.0285068
0.0285631
0.0285052
0.0282936
0.0279219
0.0273866
0.0266853
0.0258189
0.0247922
0.0236147
0.0223012
0.0208711
0.0193486
0.017761
0.0161384
0.0145115
0.0129101
0.0113621
0.00989143
0.00851751
0.00725441
0.00611071
0.00508979
0.00419034
0.00340716
0.00273212
0.00215508
0.00166468
0.00124944
0.000898503
0.000602693
0.000355922
0.000157981
2.3302e-05
6.74407e-06
1.31348e-05
2.63319e-05
4.26615e-05
6.10399e-05
8.08836e-05
0.000101771
0.000123352
0.000145312
0.000167364
0.000189237
0.000210684
0.000231475
0.000251405
0.000270294
0.00028799
0.000304366
0.00031933
0.000332813
0.00034478
0.000355222
0.000364156
0.000371625
0.000377695
0.000382453
0.000386009
0.000388489
0.000390037
0.000390817
0.000391008
0.000390807
0.000390417
0.00039007
0.000390011
0.000390497
0.000391817
0.000394289
0.000398228
0.00040397
0.000411866
0.000422287
0.000435611
0.000452231
0.000472548
0.000496966
0.000525896
0.000559751
0.000598944
0.000643891
0.000695008
0.000752714
0.000817431
0.000889583
0.000969595
0.00105789
0.00115489
0.00126101
0.00137663
0.00150212
0.00163782
0.00178401
0.00194092
0.00210876
0.00228765
0.00247767
0.00267886
0.00289121
0.00311466
0.00334916
0.0035946
0.00385087
0.00411784
0.00439537
0.0046833
0.00498144
0.00528958
0.00560749
0.00593488
0.00627141
0.00661668
0.00697023
0.0073315
0.00769982
0.0080744
0.00845432
0.00883847
0.00922559
0.00961417
0.0100025
0.0103885
0.01077
0.0111442
0.0115082
0.0118585
0.0121914
0.0125027
0.0127879
0.0130418
0.0132587
0.0134329
0.0135579
0.0136224
0.0136352
0.0135911
0.0134741
0.0132814
0.0130117
0.0126644
0.0122405
0.0117428
0.011176
0.0105475
0.00986645
0.00914406
0.00839307
0.00762715
0.00686034
0.00610628
0.00537758
0.0046852
0.00403801
0.00344249
0.00290265
0.00242014
0.00199443
0.00162324
0.00130288
0.00102872
0.000795524
0.00059801
0.000431227
0.000291111
0.000175417
8.626e-05
4.40116e-05
1.43094e-05
1.27788e-05
2.02715e-05
3.08544e-05
4.31607e-05
5.6608e-05
7.0839e-05
8.5583e-05
0.00010061
0.000115716
0.000130711
0.000145422
0.000159692
0.00017338
0.000186361
0.000198531
0.000209804
0.000220113
0.000229414
0.000237679
0.000244902
0.000251095
0.000256286
0.000260519
0.000263854
0.000266364
0.000268137
0.000269271
0.000269879
0.000270083
0.000270019
0.000269829
0.000269672
0.000269718
0.000270144
0.000271154
0.000272964
0.000275794
0.000279879
0.000285463
0.000292803
0.000302166
0.000313825
0.000328062
0.000345161
0.000365413
0.000389111
0.00041655
0.000448029
0.000483848
0.000524313
0.000569734
0.000620425
0.000676703
0.000738891
0.000807309
0.000882276
0.000964102
0.00105308
0.00114949
0.00125358
0.00136557
0.00148565
0.00161397
0.00175065
0.00189577
0.00204939
0.00221154
0.00238222
0.00256142
0.0027491
0.00294521
0.00314969
0.00336243
0.00358331
0.00381217
0.00404881
0.00429298
0.00454437
0.00480261
0.00506723
0.0053377
0.00561336
0.00589346
0.0061771
0.00646327
0.00675076
0.00703822
0.00732411
0.00760667
0.00788393
0.00815371
0.00841355
0.00866081
0.00889255
0.00910565
0.00929674
0.00946216
0.009598
0.00970031
0.00976351
0.00978453
0.00976699
0.00970587
0.00959348
0.0094283
0.00921014
0.00893949
0.00861776
0.00824756
0.00783284
0.00737888
0.00689224
0.00638059
0.00585242
0.00531675
0.00478267
0.00425901
0.00375386
0.00327425
0.00282589
0.00241297
0.0020381
0.00170239
0.00140554
0.0011461
0.000921684
0.000729274
0.000565457
0.0004268
0.000310195
0.000213387
0.000136126
8.40298e-05
9.33243e-05
2.33666e-05
1.52748e-05
1.9116e-05
2.65253e-05
3.57159e-05
4.59971e-05
5.6994e-05
6.84506e-05
8.01649e-05
9.19639e-05
0.000103694
0.000115215
0.000126403
0.000137145
0.000147343
0.000156916
0.000165794
0.000173926
0.000181276
0.000187821
0.000193556
0.000198489
0.00020264
0.000206044
0.000208747
0.000210805
0.000212287
0.00021327
0.000213841
0.000214098
0.000214148
0.000214104
0.000214092
0.000214246
0.000214711
0.000215648
0.000217229
0.000219632
0.000223045
0.000227667
0.000233706
0.000241378
0.000250906
0.000262522
0.000276462
0.000292967
0.000312283
0.000334661
0.000360357
0.000389633
0.000422757
0.000460006
0.000501663
0.000548023
0.000599384
0.000656053
0.000718339
0.000786552
0.000860995
0.000941961
0.00102973
0.00112456
0.00122668
0.00133632
0.00145364
0.0015788
0.00171194
0.00185315
0.00200252
0.00216008
0.00232584
0.00249981
0.00268192
0.00287208
0.00307016
0.00327596
0.0034892
0.00370956
0.00393662
0.00416986
0.00440869
0.00465239
0.00490014
0.00515098
0.00540384
0.00565752
0.00591068
0.00616181
0.0064093
0.00665136
0.00688604
0.00711126
0.00732481
0.00752433
0.00770734
0.00787127
0.00801343
0.00813096
0.00822075
0.00827878
0.00830306
0.00829393
0.0082495
0.00816793
0.00804459
0.00787886
0.00767114
0.00742236
0.00713418
0.00680915
0.00645079
0.00606359
0.00565293
0.00522499
0.00478648
0.00434445
0.00390591
0.00347762
0.00306569
0.00267541
0.00231101
0.00197557
0.00167097
0.00139796
0.00115625
0.000944676
0.000761389
0.000604078
0.000470179
0.000357184
0.00026299
0.000186522
0.000129217
0.000100244
0.000152144
3.3613e-05
1.91348e-05
2.00449e-05
2.5182e-05
3.23002e-05
4.05672e-05
4.95601e-05
5.90115e-05
6.87248e-05
7.85399e-05
8.83193e-05
9.79419e-05
0.0001073
0.000116298
0.000124853
0.000132896
0.000140369
0.000147228
0.000153441
0.00015899
0.000163868
0.000168081
0.000171646
0.000174591
0.000176952
0.000178778
0.000180124
0.000181056
0.000181646
0.000181978
0.000182141
0.000182233
0.000182361
0.00018264
0.000183196
0.000184167
0.000185701
0.000187954
0.00019109
0.000195284
0.000200719
0.000207587
0.000216088
0.000226431
0.00023883
0.000253508
0.000270693
0.000290623
0.000313542
0.000339707
0.000369382
0.000402846
0.000440388
0.000482315
0.000528943
0.000580603
0.000637637
0.000700392
0.000769218
0.000844464
0.000926469
0.00101556
0.00111205
0.00121622
0.00132834
0.00144863
0.0015773
0.00171452
0.00186041
0.00201504
0.00217844
0.00235057
0.00253135
0.00272062
0.00291813
0.00312353
0.0033364
0.0035562
0.00378226
0.00401384
0.00425003
0.00448985
0.00473217
0.00497577
0.00521931
0.00546136
0.00570037
0.00593472
0.00616272
0.00638257
0.00659243
0.00679038
0.0069745
0.00714282
0.00729336
0.0074241
0.00753304
0.00761811
0.00767575
0.00770241
0.00770363
0.0076724
0.00760959
0.00751383
0.0073819
0.00721344
0.00700882
0.00676885
0.00649496
0.00618934
0.00585503
0.00549595
0.00511691
0.00472342
0.00432155
0.00391767
0.00351817
0.00312911
0.00275598
0.00240342
0.00207509
0.00177355
0.00150025
0.00125567
0.00103936
0.000850165
0.000686381
0.000545973
0.000426777
0.000326797
0.000244587
0.00017999
0.000135936
0.000125108
0.000218246
4.48285e-05
2.38351e-05
2.21437e-05
2.54342e-05
3.09697e-05
3.77637e-05
4.53338e-05
5.33891e-05
6.17269e-05
7.01901e-05
7.86488e-05
8.69915e-05
9.51206e-05
0.000102951
0.00011041
0.000117436
0.000123977
0.000129995
0.000135461
0.000140359
0.000144683
0.000148435
0.000151631
0.000154293
0.000156453
0.000158152
0.000159438
0.000160369
0.000161009
0.000161429
0.000161711
0.000161942
0.000162216
0.000162639
0.000163324
0.000164397
0.000165991
0.000168251
0.000171328
0.000175384
0.000180591
0.000187131
0.000195194
0.000204981
0.000216701
0.000230573
0.000246827
0.000265704
0.000287457
0.000312354
0.000340679
0.000372733
0.000408836
0.000449329
0.000494574
0.00054495
0.000600857
0.000662708
0.000730926
0.000805938
0.000888165
0.000978022
0.00107591
0.00118219
0.00129722
0.00142129
0.00155466
0.00169753
0.00185005
0.00201226
0.00218407
0.00236538
0.00255598
0.00275554
0.0029636
0.00317958
0.00340274
0.00363223
0.00386706
0.0041061
0.00434813
0.00459181
0.00483571
0.00507832
0.0053181
0.00555345
0.00578276
0.00600441
0.0062168
0.00641835
0.00660746
0.00678251
0.00694196
0.00708468
0.00720929
0.00731448
0.00739894
0.00746145
0.00749621
0.00750688
0.00749476
0.00745329
0.00738369
0.00728471
0.00715324
0.00698855
0.00679052
0.00655933
0.00629574
0.00600131
0.0056785
0.00533079
0.00496261
0.00457932
0.00418696
0.00379203
0.00340109
0.00302046
0.00265582
0.00231196
0.00199258
0.00170018
0.00143609
0.00120058
0.00099303
0.000812121
0.000656061
0.000522807
0.000410309
0.000316803
0.000241278
0.000184302
0.000150199
0.000155072
0.000289904
5.68624e-05
2.91315e-05
2.50063e-05
2.66911e-05
3.09173e-05
3.65415e-05
4.30126e-05
5.00122e-05
5.73253e-05
6.47918e-05
7.2284e-05
7.96952e-05
8.69339e-05
9.39219e-05
0.000100592
0.000106887
0.000112763
0.000118183
0.000123121
0.000127561
0.000131498
0.000134934
0.000137881
0.000140358
0.000142395
0.000144026
0.000145296
0.000146255
0.000146962
0.000147483
0.000147891
0.000148267
0.000148699
0.000149285
0.000150133
0.000151358
0.00015309
0.000155465
0.00015863
0.000162742
0.00016797
0.000174492
0.0001825
0.000192195
0.000203794
0.000217522
0.000233624
0.000252355
0.000273992
0.00029883
0.000327185
0.0003594
0.000395841
0.000436905
0.000483015
0.000534622
0.000592203
0.000656256
0.000727297
0.000805848
0.0008924
0.000987477
0.00109156
0.00120511
0.00132852
0.00146214
0.00160624
0.001761
0.00192655
0.00210282
0.00228969
0.00248684
0.00269379
0.00290989
0.00313436
0.00336621
0.00360431
0.00384737
0.00409395
0.00434253
0.00459147
0.00483911
0.00508375
0.0053237
0.00555734
0.00578312
0.00599956
0.00620534
0.00639923
0.00658015
0.00674713
0.00689941
0.00703626
0.00715681
0.00726043
0.0073465
0.00741431
0.00746305
0.00748708
0.00749257
0.00747805
0.00743822
0.0073734
0.00728217
0.00716124
0.007009
0.00682431
0.00660638
0.006355
0.00607083
0.00575561
0.00541229
0.00504506
0.00465932
0.00426145
0.0038585
0.00345784
0.0030666
0.00269133
0.00233756
0.00200952
0.00171007
0.00144066
0.0012015
0.000991797
0.000809963
0.000653963
0.000521568
0.000410651
0.000319497
0.000247366
0.000195446
0.00016927
0.000188428
0.000365825
6.96081e-05
3.48907e-05
2.84178e-05
2.8648e-05
3.17387e-05
3.63825e-05
4.19592e-05
4.81157e-05
5.46234e-05
6.13157e-05
6.80635e-05
7.47616e-05
8.13221e-05
8.76705e-05
9.37437e-05
9.94892e-05
0.000104864
0.000109836
0.000114381
0.000118483
0.000122137
0.000125344
0.000128116
0.000130468
0.000132429
0.000134028
0.000135308
0.000136315
0.000137103
0.000137733
0.000138275
0.000138805
0.000139408
0.000140178
0.000141217
0.000142641
0.000144574
0.00014715
0.000150517
0.000154832
0.000160266
0.000167003
0.00017524
0.00018519
0.000197081
0.000211158
0.000227686
0.000246948
0.000269254
0.000294939
0.000324365
0.00035793
0.000396063
0.000439224
0.000487918
0.000542682
0.000604086
0.000672724
0.000749216
0.000834192
0.000928287
0.00103209
0.00114618
0.00127107
0.0014072
0.00155493
0.00171449
0.00188597
0.0020693
0.00226428
0.0024705
0.00268735
0.00291395
0.00314926
0.003392
0.0036407
0.00389373
0.00414931
0.00440555
0.00466054
0.00491235
0.0051591
0.00539901
0.00563044
0.00585195
0.0060623
0.00626046
0.00644566
0.00661732
0.0067751
0.0069188
0.00704841
0.00716396
0.00726542
0.0073528
0.00742601
0.00748489
0.00752899
0.00755477
0.00756448
0.00755856
0.00753171
0.00748275
0.00740987
0.00730928
0.00717807
0.00701395
0.00681491
0.0065796
0.00630764
0.00599993
0.00565882
0.00528825
0.00489369
0.00448201
0.00406106
0.00363928
0.00322506
0.00282624
0.00244954
0.0021002
0.00178181
0.00149623
0.00124381
0.00102364
0.000833889
0.000672183
0.00053597
0.00042287
0.000331114
0.000260078
0.000211371
0.000191687
0.000224203
0.000445012
8.29868e-05
4.1031e-05
3.22507e-05
3.11268e-05
3.32033e-05
3.69967e-05
4.18173e-05
4.72776e-05
5.31287e-05
5.91973e-05
6.53512e-05
7.14845e-05
7.75102e-05
8.33562e-05
8.89622e-05
9.42781e-05
9.92638e-05
0.000103888
0.000108129
0.000111971
0.00011541
0.000118447
0.00012109
0.000123357
0.000125272
0.000126864
0.000128171
0.000129238
0.000130116
0.000130864
0.000131548
0.000132242
0.00013303
0.000134004
0.000135265
0.000136928
0.000139117
0.00014197
0.000145636
0.000150277
0.000156073
0.000163216
0.000171916
0.000182403
0.000194926
0.000209753
0.000227181
0.000247529
0.000271149
0.000298427
0.000329783
0.00036568
0.000406627
0.000453177
0.000505922
0.000565503
0.000632596
0.000707912
0.000792176
0.000886119
0.000990474
0.00110593
0.00123311
0.00137257
0.00152475
0.00168993
0.00186824
0.00205959
0.00226368
0.00247998
0.00270768
0.00294572
0.00319271
0.00344707
0.00370694
0.0039703
0.00423497
0.00449872
0.00475929
0.00501448
0.00526224
0.00550071
0.00572829
0.00594368
0.00614591
0.00633433
0.00650868
0.00666894
0.00681541
0.00694859
0.00706916
0.00717788
0.0072755
0.00736269
0.00744
0.00750771
0.00756584
0.00761387
0.0076504
0.00767505
0.00768544
0.00768063
0.00765606
0.00760934
0.00753641
0.00743287
0.00729515
0.00711999
0.00690484
0.0066482
0.00635003
0.00601199
0.00563763
0.00523243
0.00480364
0.00435996
0.00391096
0.0034665
0.00303597
0.00262762
0.00224809
0.00190203
0.00159207
0.00131893
0.00108174
0.000878476
0.000706416
0.000562615
0.000444352
0.000349631
0.000277826
0.000230887
0.000216582
0.000261772
0.000526679
9.69377e-05
4.74984e-05
3.64237e-05
3.40152e-05
3.51667e-05
3.8205e-05
4.23711e-05
4.72398e-05
5.25444e-05
5.8099e-05
6.37667e-05
6.94411e-05
7.5035e-05
8.0477e-05
8.5708e-05
9.068e-05
9.53546e-05
9.97022e-05
0.000103701
0.000107339
0.00011061
0.000113515
0.000116063
0.000118271
0.00012016
0.00012176
0.000123107
0.000124243
0.000125219
0.000126092
0.000126927
0.000127797
0.000128785
0.000129984
0.000131496
0.000133437
0.000135936
0.000139133
0.000143186
0.000148264
0.000154559
0.000162277
0.000171647
0.000182919
0.000196368
0.000212297
0.00023104
0.000252963
0.000278472
0.000308013
0.000342076
0.000381206
0.000425993
0.00047709
0.000535198
0.000601069
0.000675497
0.000759311
0.000853351
0.000958454
0.00107544
0.00120505
0.00134794
0.00150465
0.00167552
0.00186072
0.00206015
0.00227344
0.0024999
0.00273855
0.00298805
0.00324674
0.00351263
0.00378348
0.00405683
0.0043301
0.00460063
0.00486582
0.00512321
0.00537057
0.00560597
0.00582787
0.00603516
0.00622717
0.0064037
0.00656497
0.00671161
0.00684455
0.00696499
0.0070743
0.00717393
0.00726532
0.00734978
0.00742843
0.00750209
0.00757122
0.00763581
0.00769529
0.00774848
0.00779419
0.00783032
0.00785138
0.00785658
0.00784072
0.00779991
0.00772831
0.00762107
0.00747372
0.00728253
0.00704487
0.00675967
0.00642772
0.00605202
0.00563781
0.00519253
0.0047255
0.00424738
0.00376947
0.00330283
0.00285751
0.0024418
0.00206182
0.00172125
0.00142149
0.00116193
0.00094048
0.000754132
0.000599525
0.000473523
0.000373817
0.000299668
0.000253272
0.000243408
0.000300711
0.00061021
0.000111413
5.42544e-05
4.08817e-05
3.7238e-05
3.75319e-05
3.98892e-05
4.34791e-05
4.7837e-05
5.26764e-05
5.7801e-05
6.3067e-05
6.83626e-05
7.36012e-05
7.87118e-05
8.36366e-05
8.83282e-05
9.27494e-05
9.6872e-05
0.000100676
0.000104148
0.000107284
0.000110085
0.000112562
0.000114728
0.000116607
0.000118226
0.000119621
0.000120834
0.000121915
0.00012292
0.000123915
0.000124972
0.000126177
0.000127623
0.000129416
0.000131675
0.000134534
0.000138142
0.000142664
0.000148284
0.000155205
0.000163654
0.000173883
0.000186169
0.000200823
0.000218184
0.000238632
0.000262588
0.000290518
0.000322941
0.000360429
0.000403615
0.000453192
0.000509921
0.00057462
0.000648162
0.000731466
0.000825476
0.000931145
0.0010494
0.00118112
0.00132706
0.00148788
0.00166399
0.00185559
0.0020626
0.00228457
0.00252072
0.00276985
0.00303036
0.00330026
0.0035772
0.0038585
0.00414125
0.00442241
0.0046989
0.00496776
0.00522624
0.00547192
0.00570284
0.00591752
0.00611506
0.00629514
0.00645798
0.00660435
0.00673546
0.00685293
0.0069586
0.0070545
0.00714273
0.00722531
0.0073041
0.00738075
0.00745654
0.00753235
0.00760854
0.00768496
0.00776082
0.00783474
0.00790484
0.0079682
0.00802083
0.00805822
0.00807371
0.00806678
0.00802924
0.00795495
0.00783835
0.0076746
0.0074599
0.00719208
0.00687093
0.00649859
0.00607976
0.00562174
0.00513413
0.00462843
0.00411722
0.00361322
0.00312839
0.00267294
0.00225475
0.00187893
0.00154786
0.0012615
0.00101788
0.000813796
0.000645513
0.000509458
0.000402941
0.000325028
0.00027807
0.000271808
0.000340721
0.000695139
0.000126373
6.12709e-05
4.55857e-05
4.07422e-05
4.02304e-05
4.19676e-05
4.50432e-05
4.89551e-05
5.33948e-05
5.81538e-05
6.30815e-05
6.80632e-05
7.30089e-05
7.78462e-05
8.25173e-05
8.69767e-05
9.1188e-05
9.51244e-05
9.87666e-05
0.000102103
0.000105129
0.000107848
0.000110269
0.000112408
0.000114286
0.000115933
0.000117383
0.00011868
0.000119872
0.000121016
0.00012218
0.000123439
0.000124877
0.000126593
0.000128697
0.000131314
0.000134585
0.000138668
0.00014374
0.000150001
0.000157674
0.000167007
0.00017828
0.000191803
0.000207923
0.000227029
0.000249554
0.00027598
0.000306846
0.00034275
0.000384358
0.000432403
0.000487691
0.000551099
0.000623571
0.000706108
0.000799751
0.000905558
0.00102458
0.0011578
0.00130612
0.00147028
0.00165081
0.00184797
0.00206168
0.00229147
0.00253645
0.00279524
0.00306599
0.00334639
0.00363369
0.00392479
0.0042163
0.0045047
0.00478648
0.00505828
0.00531705
0.00556018
0.00578564
0.00599206
0.00617873
0.00634571
0.00649364
0.00662382
0.00673808
0.00683856
0.00692787
0.00700855
0.00708326
0.00715457
0.00722486
0.00729633
0.00737022
0.00744782
0.00752994
0.00761688
0.00770811
0.00780251
0.00789852
0.00799362
0.0080845
0.00816709
0.00823685
0.00828765
0.00831067
0.00830759
0.00826747
0.00818374
0.00805058
0.00786304
0.00761776
0.00731334
0.00695079
0.00653391
0.00606938
0.00556671
0.0050378
0.00449622
0.00395626
0.00343177
0.00293506
0.00247605
0.00206165
0.0016956
0.00137872
0.00110942
0.000884488
0.000699889
0.000551621
0.000436575
0.000353555
0.000304996
0.000301552
0.000381605
0.000781135
0.000141787
6.85262e-05
5.05072e-05
4.44889e-05
4.32127e-05
4.43803e-05
4.69925e-05
5.05118e-05
5.46056e-05
5.90527e-05
6.36944e-05
6.84117e-05
7.31118e-05
7.77219e-05
8.21835e-05
8.6451e-05
9.04886e-05
9.42696e-05
9.77767e-05
0.000100999
0.000103935
0.000106587
0.000108964
0.000111085
0.000112971
0.000114652
0.000116164
0.000117549
0.000118859
0.000120151
0.000121495
0.000122967
0.000124657
0.000126668
0.000129115
0.00013213
0.000135864
0.000140488
0.000146193
0.000153197
0.000161744
0.000172111
0.000184608
0.000199584
0.000217433
0.000238595
0.000263563
0.000292893
0.000327203
0.000367182
0.000413598
0.000467296
0.000529202
0.000600319
0.000681721
0.000774536
0.000879922
0.000999037
0.001133
0.00128282
0.00144937
0.00163329
0.00183491
0.0020542
0.00229069
0.0025434
0.00281081
0.00309084
0.00338088
0.00367779
0.00397802
0.00427772
0.00457289
0.00485953
0.00513387
0.00539254
0.00563273
0.00585232
0.00604999
0.00622528
0.00637854
0.00651095
0.00662428
0.00672084
0.00680356
0.00687523
0.00693936
0.00699949
0.0070583
0.00711787
0.00718053
0.00724825
0.00732292
0.0074055
0.00749638
0.00759535
0.00770182
0.00781439
0.00793099
0.00804926
0.00816578
0.00827614
0.0083752
0.0084578
0.00851614
0.00854152
0.00853583
0.00848646
0.00838676
0.00823058
0.00801341
0.00773243
0.00738729
0.00698047
0.00651759
0.00600751
0.00546205
0.0048954
0.0043231
0.00376083
0.0032231
0.00272211
0.00226692
0.00186302
0.00151246
0.00121437
0.000965717
0.000762299
0.000599737
0.000474491
0.000385053
0.000333883
0.000332503
0.000423238
0.000867999
0.000157628
7.60032e-05
5.56249e-05
4.84494e-05
4.64424e-05
4.70821e-05
4.92737e-05
5.24457e-05
5.6239e-05
6.04188e-05
6.48184e-05
6.93133e-05
7.38079e-05
7.82274e-05
8.2513e-05
8.66189e-05
9.05101e-05
9.41613e-05
9.75556e-05
0.000100684
0.000103544
0.000106141
0.000108486
0.000110597
0.000112497
0.000114218
0.000115796
0.000117276
0.000118709
0.000120158
0.000121693
0.000123394
0.000125357
0.000127688
0.000130511
0.000133968
0.00013822
0.000143451
0.000149872
0.00015772
0.000167266
0.000178817
0.000192721
0.00020937
0.000229209
0.000252738
0.000280522
0.000313192
0.000351458
0.00039611
0.000448026
0.000508171
0.0005776
0.000657446
0.000748914
0.000853254
0.000971728
0.00110557
0.00125592
0.00142379
0.00160992
0.00181476
0.00203835
0.00228023
0.00253941
0.00281425
0.00310249
0.00340121
0.00370693
0.00401568
0.00432313
0.00462476
0.0049161
0.00519295
0.00545158
0.00568891
0.00590275
0.00609179
0.00625576
0.00639534
0.00651207
0.00660838
0.00668712
0.00675142
0.00680532
0.00685343
0.00689771
0.00694095
0.00698652
0.00703756
0.00709625
0.00716417
0.00724247
0.00733174
0.00743207
0.00754299
0.00766349
0.00779204
0.00792652
0.00806411
0.00820144
0.0083347
0.00845968
0.00857058
0.00866141
0.00872087
0.00874365
0.00872949
0.00866571
0.00854489
0.0083614
0.00811089
0.00779136
0.00740366
0.00695186
0.00644359
0.00589005
0.00530551
0.00470639
0.00410999
0.00353302
0.00299017
0.00249295
0.00204904
0.00166214
0.00133241
0.00105731
0.000832642
0.000653728
0.000516611
0.000419442
0.000364653
0.000364591
0.000465565
0.000955648
0.000173874
8.36885e-05
6.09223e-05
5.26013e-05
4.98911e-05
5.00376e-05
5.18464e-05
5.47096e-05
5.8241e-05
6.2192e-05
6.63865e-05
7.06946e-05
7.50172e-05
7.92774e-05
8.34157e-05
8.7386e-05
9.11539e-05
9.46949e-05
9.79933e-05
0.000101041
0.000103838
0.000106391
0.000108711
0.000110819
0.00011274
0.000114506
0.000116156
0.000117736
0.000119302
0.000120917
0.000122655
0.000124603
0.000126859
0.000129539
0.000132773
0.000136716
0.000141541
0.00014745
0.000154671
0.000163468
0.00017414
0.00018703
0.000202527
0.000221073
0.00024317
0.000269386
0.000300362
0.000336818
0.000379562
0.000429494
0.00048761
0.000555004
0.000632862
0.000722452
0.000825102
0.000942173
0.00107501
0.00122488
0.00139292
0.00158001
0.00178674
0.00201324
0.00225913
0.0025234
0.00280437
0.00309962
0.00340601
0.00371974
0.00403642
0.00435126
0.00465925
0.00495541
0.00523507
0.00549409
0.00572912
0.00593782
0.00611889
0.00627216
0.00639859
0.00650018
0.0065796
0.00664061
0.00668701
0.00672471
0.00675527
0.00678097
0.00680744
0.00683837
0.00687619
0.0069232
0.00698114
0.00705118
0.00713405
0.00722996
0.00733868
0.0074595
0.00759125
0.00773233
0.00788064
0.00803351
0.00818777
0.00833961
0.00848448
0.00861741
0.00873343
0.00882669
0.0088841
0.00890192
0.008876
0.00879397
0.00864933
0.00843604
0.00815034
0.00779114
0.00736051
0.00686432
0.00631247
0.00571873
0.0050999
0.00447457
0.00386153
0.00327808
0.0027385
0.00225304
0.0018275
0.00146352
0.00115935
0.000911016
0.000713669
0.000562977
0.00045673
0.000397298
0.000397807
0.000508586
0.00104411
0.000190509
9.15714e-05
6.63865e-05
5.69277e-05
5.35369e-05
5.32185e-05
5.46789e-05
5.72661e-05
6.05693e-05
6.43244e-05
6.8346e-05
7.24978e-05
7.6677e-05
8.08046e-05
8.48197e-05
8.86763e-05
9.23403e-05
9.5788e-05
9.9005e-05
0.000101985
0.000104729
0.000107245
0.000109549
0.00011166
0.000113607
0.000115423
0.000117151
0.000118839
0.000120545
0.000122337
0.000124293
0.000126505
0.000129078
0.000132135
0.000135819
0.000140295
0.000145752
0.000152409
0.00016052
0.000170374
0.000182304
0.000196692
0.000213974
0.000234648
0.000259279
0.000288511
0.000323068
0.000363767
0.000411523
0.000467354
0.000532382
0.000607834
0.00069503
0.000795367
0.000910288
0.00104124
0.00118962
0.00135669
0.00154349
0.00175074
0.0019787
0.00222711
0.00249501
0.00278072
0.00308172
0.00339472
0.00371561
0.00403965
0.00436161
0.00467598
0.00497727
0.00526031
0.00552052
0.00575422
0.00595882
0.00613299
0.00627668
0.00639105
0.00647834
0.00654197
0.00658538
0.00661651
0.00663609
0.00664681
0.00665566
0.00666565
0.00668038
0.00670361
0.00673709
0.00678262
0.00684142
0.00691423
0.00700133
0.00710261
0.00721756
0.00734534
0.00748474
0.00763421
0.00779181
0.00795517
0.00812147
0.00828734
0.00844876
0.00860113
0.0087392
0.00885672
0.00894651
0.00899747
0.00900909
0.008971
0.00886952
0.00869947
0.0084552
0.00813358
0.00773429
0.00726088
0.00672134
0.00612824
0.00549813
0.00485044
0.0042058
0.00358412
0.00300269
0.00247473
0.00200863
0.00160795
0.00127212
0.000997684
0.000779765
0.000613724
0.000496994
0.000431868
0.000432187
0.000552352
0.00113352
0.000207519
9.96431e-05
7.20075e-05
6.14148e-05
5.73621e-05
5.66033e-05
5.77454e-05
6.00849e-05
6.31896e-05
6.67779e-05
7.06542e-05
7.46762e-05
7.87367e-05
8.27545e-05
8.66674e-05
9.04289e-05
9.40055e-05
9.73744e-05
0.000100523
0.000103445
0.000106145
0.000108633
0.000110926
0.000113046
0.000115024
0.000116897
0.000118709
0.000120512
0.000122368
0.000124349
0.000126539
0.000129034
0.00013195
0.000135417
0.00013959
0.000144648
0.000150798
0.00015828
0.000167373
0.000178397
0.000191722
0.000207773
0.000227041
0.000250082
0.000277533
0.00031012
0.000348659
0.000394073
0.00044739
0.000509753
0.000582417
0.000666743
0.000764181
0.000876249
0.00100449
0.0011504
0.00131539
0.00150065
0.00170705
0.00193502
0.00218444
0.00245445
0.00274343
0.00304886
0.0033673
0.00369446
0.00402528
0.00435411
0.00467497
0.00498184
0.00526904
0.0055315
0.00576514
0.00596709
0.00613585
0.0062714
0.00637516
0.00644967
0.00649827
0.00652799
0.00654059
0.00654184
0.00653493
0.00652592
0.00652055
0.00651961
0.00652625
0.00654504
0.00657659
0.00662211
0.00668233
0.00675752
0.00684761
0.00695221
0.00707066
0.00720206
0.00734528
0.00749893
0.00766135
0.00783056
0.0080042
0.00817943
0.00835287
0.00852048
0.00867751
0.00881851
0.00893672
0.00902284
0.00906406
0.00906813
0.00901755
0.00889649
0.00870014
0.00842429
0.00806598
0.007626
0.00710973
0.00652787
0.00589599
0.00523373
0.00456318
0.00390672
0.0032848
0.00271399
0.00220577
0.00176611
0.00139608
0.00109304
0.000852326
0.000669071
0.000540373
0.000468464
0.000467809
0.000596957
0.00122409
0.00022489
0.000107897
7.77773e-05
6.6052e-05
6.13525e-05
6.01749e-05
6.10245e-05
6.31411e-05
6.60738e-05
6.95207e-05
7.32763e-05
7.71915e-05
8.1155e-05
8.50827e-05
8.89113e-05
9.25939e-05
9.60975e-05
9.94001e-05
0.00010249
0.000105365
0.00010803
0.000110496
0.000112784
0.000114919
0.000116935
0.00011887
0.000120774
0.000122701
0.000124717
0.000126901
0.000129341
0.000132142
0.000135427
0.000139338
0.000144043
0.000149736
0.000156644
0.00016503
0.000175202
0.000187514
0.000202377
0.000220265
0.000241726
0.000267383
0.000297953
0.000334247
0.000377185
0.000427798
0.00048724
0.000556782
0.000637813
0.000731827
0.0008404
0.000965153
0.0011077
0.00126955
0.00145207
0.00165629
0.00188283
0.00213173
0.00240232
0.00269306
0.00300149
0.00332415
0.00365661
0.00399355
0.00432897
0.00465644
0.00496942
0.00526168
0.00552763
0.00576273
0.00596376
0.00612898
0.00625824
0.00635302
0.00641631
0.00645212
0.00646651
0.00646502
0.00644718
0.00642394
0.00639805
0.00637448
0.00635848
0.00635186
0.0063531
0.00636977
0.00640085
0.00644695
0.00650832
0.00658485
0.00667618
0.00678176
0.00690087
0.00703266
0.00717611
0.00733012
0.00749336
0.00766429
0.00784106
0.00802145
0.00820271
0.00838148
0.00855366
0.00871445
0.0088578
0.00897626
0.00905885
0.00909455
0.00908776
0.0090231
0.00888216
0.00865886
0.00835012
0.00795359
0.00747149
0.00691187
0.00628853
0.00562057
0.00493095
0.00424426
0.00358414
0.00297081
0.00241929
0.00193855
0.00153179
0.0011976
0.000931753
0.000729306
0.000587053
0.000507234
0.000504782
0.000642529
0.00131608
0.000242616
0.000116328
8.36897e-05
7.08308e-05
6.54969e-05
6.39191e-05
6.44983e-05
6.64146e-05
6.91983e-05
7.25265e-05
7.61829e-05
8.00117e-05
8.38969e-05
8.77519e-05
9.15119e-05
9.51298e-05
9.85729e-05
0.00010182
0.000104862
0.000107698
0.000110334
0.000112786
0.000115076
0.000117232
0.000119291
0.000121297
0.000123299
0.00012536
0.00012755
0.000129951
0.00013266
0.00013579
0.000139474
0.000143866
0.000149148
0.000155532
0.000163266
0.00017264
0.000183993
0.000197717
0.000214268
0.000234174
0.000258045
0.000286579
0.000320576
0.000360944
0.00040871
0.000465024
0.000531167
0.000608544
0.000698677
0.000803189
0.000923766
0.00106211
0.00121986
0.00139852
0.00159929
0.001823
0.00206989
0.00233949
0.00263044
0.0029404
0.00326596
0.00360263
0.00394494
0.00428659
0.00462074
0.00494035
0.00523863
0.00550942
0.00574764
0.00594964
0.00611341
0.00623864
0.00632663
0.00638034
0.00640452
0.00640832
0.00638864
0.00635687
0.0063165
0.00627463
0.00623481
0.00620129
0.0061788
0.00616895
0.00616775
0.00618369
0.00621499
0.00626161
0.00632338
0.00639992
0.00649067
0.006595
0.00671221
0.00684156
0.00698226
0.00713346
0.00729423
0.00746349
0.00763991
0.00782184
0.00800721
0.00819336
0.0083769
0.00855368
0.00871851
0.00886454
0.00898393
0.009064
0.00909575
0.00907727
0.00899794
0.00883496
0.00858281
0.00823869
0.00780105
0.00727469
0.00667072
0.00600685
0.00530615
0.00459493
0.00389988
0.00324508
0.00264958
0.00212589
0.00167992
0.00131195
0.00101852
0.00079478
0.000637285
0.000548334
0.000543247
0.000689224
0.00140985
0.000260689
0.000124931
8.974e-05
7.57444e-05
6.97859e-05
6.7824e-05
6.81521e-05
6.98884e-05
7.25436e-05
7.57729e-05
7.93493e-05
8.31094e-05
8.6933e-05
9.07305e-05
9.44358e-05
9.80015e-05
0.000101395
0.000104598
0.0001076