/*--------------------------------*- C++ -*----------------------------------*\
  =========                 |
  \\      /  F ield         | OpenFOAM: The Open Source CFD Toolbox
   \\    /   O peration     | Website:  https://openfoam.org
    \\  /    A nd           | Version:  12
     \\/     M anipulation  |
\*---------------------------------------------------------------------------*/
FoamFile
{
    format      ascii;
    class       volScalarField;
    location    "2";
    object      nut;
}
// * * * * * * * * * * * * * * * * * * * * * * * * * * * * * * * * * * * * * //

dimensions      [0 2 -1 0 0 0 0];

internalField   nonuniform List<scalar> 
18225
(
2.38858e-14
1.61573e-13
3.59631e-13
5.95468e-13
8.58363e-13
1.14124e-12
1.43856e-12
1.7455e-12
2.05771e-12
2.37112e-12
2.68195e-12
2.98667e-12
3.28202e-12
3.56509e-12
3.83333e-12
4.08455e-12
4.31699e-12
4.52929e-12
4.72053e-12
4.89019e-12
5.03815e-12
5.16467e-12
5.27037e-12
5.35621e-12
5.42344e-12
5.47362e-12
5.50857e-12
5.53034e-12
5.54127e-12
5.5439e-12
5.54106e-12
5.53562e-12
5.53089e-12
5.53037e-12
5.53765e-12
5.55694e-12
5.59274e-12
5.6495e-12
5.732e-12
5.84529e-12
5.99461e-12
6.18542e-12
6.42331e-12
6.71401e-12
7.06335e-12
7.4772e-12
7.9615e-12
8.52219e-12
9.16523e-12
9.89661e-12
1.07223e-11
1.16484e-11
1.26809e-11
1.38257e-11
1.50889e-11
1.64764e-11
1.79937e-11
1.96461e-11
2.14386e-11
2.33756e-11
2.54607e-11
2.76968e-11
3.00862e-11
3.26303e-11
3.53297e-11
3.81844e-11
4.11938e-11
4.43567e-11
4.76719e-11
5.11375e-11
5.47518e-11
5.85125e-11
6.24174e-11
6.64641e-11
7.06499e-11
7.49717e-11
7.94264e-11
8.40099e-11
8.87178e-11
9.3545e-11
9.84854e-11
1.03532e-10
1.08676e-10
1.13907e-10
1.19214e-10
1.24582e-10
1.29996e-10
1.35436e-10
1.40879e-10
1.463e-10
1.51669e-10
1.56949e-10
1.62102e-10
1.67081e-10
1.71836e-10
1.76308e-10
1.80435e-10
1.84145e-10
1.87358e-10
1.8999e-10
1.91949e-10
1.93057e-10
1.93436e-10
1.93042e-10
1.91606e-10
1.89088e-10
1.85461e-10
1.80711e-10
1.74843e-10
1.6789e-10
1.59916e-10
1.51021e-10
1.41337e-10
1.31027e-10
1.20278e-10
1.0929e-10
9.82733e-11
8.74299e-11
7.69475e-11
6.69889e-11
5.76852e-11
4.91318e-11
4.13869e-11
3.44732e-11
2.83819e-11
2.3078e-11
1.85061e-11
1.45979e-11
1.12764e-11
8.46379e-12
6.08666e-12
4.08286e-12
2.41118e-12
1.07025e-12
1.57861e-13
7.21858e-13
2.35498e-11
5.90793e-11
1.00304e-10
1.45847e-10
1.94677e-10
2.45913e-10
2.98762e-10
3.5249e-10
4.06406e-10
4.59863e-10
5.12255e-10
5.63026e-10
6.11673e-10
6.57757e-10
7.00903e-10
7.40809e-10
7.77242e-10
8.10043e-10
8.39126e-10
8.6447e-10
8.86121e-10
9.04189e-10
9.18837e-10
9.30283e-10
9.38795e-10
9.44685e-10
9.48309e-10
9.50063e-10
9.50388e-10
9.49773e-10
9.48699e-10
9.47741e-10
9.47496e-10
9.48578e-10
9.51705e-10
9.57658e-10
9.67191e-10
9.81127e-10
1.00033e-09
1.02569e-09
1.05814e-09
1.09865e-09
1.14819e-09
1.20776e-09
1.27835e-09
1.36098e-09
1.45665e-09
1.56638e-09
1.69119e-09
1.83207e-09
1.99006e-09
2.16615e-09
2.36137e-09
2.5767e-09
2.81311e-09
3.07156e-09
3.3529e-09
3.65795e-09
3.98739e-09
4.34182e-09
4.72169e-09
5.12732e-09
5.55888e-09
6.01642e-09
6.49987e-09
7.00907e-09
7.54375e-09
8.1036e-09
8.68828e-09
9.2974e-09
9.93055e-09
1.05873e-08
1.12672e-08
1.19698e-08
1.26945e-08
1.34408e-08
1.42081e-08
1.49957e-08
1.58026e-08
1.66281e-08
1.7471e-08
1.83301e-08
1.92038e-08
2.00903e-08
2.09876e-08
2.18932e-08
2.28041e-08
2.3717e-08
2.46279e-08
2.55319e-08
2.64237e-08
2.72969e-08
2.81441e-08
2.89571e-08
2.97265e-08
3.04418e-08
3.10914e-08
3.16613e-08
3.21372e-08
3.24997e-08
3.27131e-08
3.2805e-08
3.27732e-08
3.2562e-08
3.21658e-08
3.15798e-08
3.08e-08
2.9826e-08
2.86625e-08
2.73198e-08
2.58143e-08
2.41685e-08
2.24105e-08
2.05728e-08
1.8691e-08
1.68016e-08
1.49405e-08
1.3141e-08
1.14316e-08
9.83546e-09
8.36926e-09
7.04305e-09
5.86064e-09
4.82024e-09
3.91553e-09
3.13664e-09
2.4712e-09
1.90625e-09
1.42809e-09
1.02363e-09
6.81519e-10
3.93233e-10
1.5525e-10
4.77055e-12
1.53161e-12
1.25984e-10
4.04656e-10
7.34387e-10
1.09426e-09
1.47714e-09
1.87721e-09
2.28889e-09
2.70681e-09
3.12579e-09
3.54089e-09
3.94746e-09
4.34119e-09
4.71821e-09
5.0751e-09
5.40897e-09
5.71746e-09
5.99881e-09
6.25178e-09
6.47573e-09
6.67052e-09
6.83655e-09
6.97468e-09
7.08622e-09
7.17286e-09
7.23672e-09
7.28021e-09
7.3061e-09
7.31748e-09
7.31773e-09
7.3107e-09
7.29998e-09
7.29007e-09
7.28558e-09
7.29115e-09
7.31228e-09
7.35511e-09
7.42536e-09
7.52932e-09
7.67359e-09
7.86505e-09
8.11085e-09
8.4183e-09
8.79485e-09
9.24808e-09
9.78558e-09
1.0415e-08
1.11439e-08
1.19798e-08
1.29303e-08
1.40029e-08
1.52049e-08
1.65438e-08
1.80267e-08
1.96608e-08
2.14529e-08
2.34095e-08
2.55364e-08
2.78388e-08
3.03211e-08
3.29867e-08
3.58379e-08
3.88759e-08
4.21007e-08
4.55114e-08
4.91062e-08
5.28824e-08
5.68369e-08
6.09661e-08
6.52663e-08
6.97337e-08
7.43645e-08
7.91547e-08
8.41005e-08
8.91981e-08
9.44436e-08
9.98331e-08
1.05363e-07
1.11028e-07
1.16824e-07
1.22746e-07
1.28789e-07
1.34944e-07
1.41205e-07
1.47561e-07
1.54002e-07
1.60514e-07
1.67081e-07
1.73682e-07
1.80294e-07
1.86888e-07
1.93431e-07
1.99881e-07
2.0619e-07
2.12302e-07
2.18152e-07
2.23666e-07
2.28761e-07
2.33339e-07
2.37287e-07
2.40513e-07
2.42584e-07
2.43837e-07
2.44269e-07
2.43342e-07
2.4102e-07
2.3725e-07
2.31982e-07
2.25189e-07
2.16886e-07
2.07136e-07
1.96051e-07
1.83799e-07
1.70596e-07
1.56698e-07
1.42388e-07
1.27965e-07
1.1372e-07
9.99244e-08
8.68142e-08
7.45775e-08
6.33496e-08
5.32111e-08
4.41911e-08
3.62735e-08
2.94055e-08
2.35068e-08
1.84783e-08
1.42131e-08
1.06004e-08
7.53311e-09
4.914e-09
2.66778e-09
8.28433e-10
1.01156e-11
2.50104e-12
2.95241e-10
1.21375e-09
2.4262e-09
3.76354e-09
5.18005e-09
6.65334e-09
8.16452e-09
9.69527e-09
1.12275e-08
1.27438e-08
1.42273e-08
1.56625e-08
1.70353e-08
1.83333e-08
1.9546e-08
2.06649e-08
2.16835e-08
2.25975e-08
2.34046e-08
2.41046e-08
2.46989e-08
2.51909e-08
2.55855e-08
2.5889e-08
2.61092e-08
2.6255e-08
2.63364e-08
2.63648e-08
2.63523e-08
2.63132e-08
2.62599e-08
2.62089e-08
2.61769e-08
2.61799e-08
2.62379e-08
2.63734e-08
2.66064e-08
2.69592e-08
2.74554e-08
2.81193e-08
2.89764e-08
3.00523e-08
3.13732e-08
3.29656e-08
3.48558e-08
3.70699e-08
3.9634e-08
4.25733e-08
4.59129e-08
4.96773e-08
5.38904e-08
5.85754e-08
6.37547e-08
6.94497e-08
7.56802e-08
8.24643e-08
8.98175e-08
9.77525e-08
1.06278e-07
1.15401e-07
1.2512e-07
1.35434e-07
1.46336e-07
1.57814e-07
1.69857e-07
1.82448e-07
1.95569e-07
2.09205e-07
2.23337e-07
2.3795e-07
2.53028e-07
2.68557e-07
2.84524e-07
3.00917e-07
3.17727e-07
3.34945e-07
3.52563e-07
3.70576e-07
3.88978e-07
4.07762e-07
4.26923e-07
4.46453e-07
4.66343e-07
4.8658e-07
5.07146e-07
5.28018e-07
5.49165e-07
5.70545e-07
5.92106e-07
6.13777e-07
6.35471e-07
6.57076e-07
6.78453e-07
6.99433e-07
7.19817e-07
7.39369e-07
7.5782e-07
7.74869e-07
7.90228e-07
8.03375e-07
8.12469e-07
8.19327e-07
8.23723e-07
8.23488e-07
8.185e-07
8.08508e-07
7.93248e-07
7.72543e-07
7.46356e-07
7.14828e-07
6.78299e-07
6.37313e-07
5.92609e-07
5.45093e-07
4.95793e-07
4.45797e-07
3.96195e-07
3.48002e-07
3.02109e-07
2.59232e-07
2.19887e-07
1.84385e-07
1.52842e-07
1.25202e-07
1.01274e-07
8.07606e-08
6.32984e-08
4.84876e-08
3.59135e-08
2.51711e-08
1.58988e-08
7.91863e-09
1.93857e-09
1.6491e-11
3.59774e-12
4.97554e-10
2.4608e-09
5.45302e-09
8.89792e-09
1.25739e-08
1.63935e-08
2.03025e-08
2.42538e-08
2.82024e-08
3.2104e-08
3.59164e-08
3.96e-08
4.31188e-08
4.64408e-08
4.95393e-08
5.23923e-08
5.49838e-08
5.73028e-08
5.93439e-08
6.11068e-08
6.2596e-08
6.38203e-08
6.47929e-08
6.55304e-08
6.6053e-08
6.63837e-08
6.65486e-08
6.65764e-08
6.64982e-08
6.63508e-08
6.61644e-08
6.59811e-08
6.58428e-08
6.57888e-08
6.58695e-08
6.61422e-08
6.66553e-08
6.74643e-08
6.86273e-08
7.02043e-08
7.2257e-08
7.48482e-08
7.8041e-08
8.18985e-08
8.64829e-08
9.18552e-08
9.80747e-08
1.05199e-07
1.13282e-07
1.22378e-07
1.32535e-07
1.43801e-07
1.56219e-07
1.69828e-07
1.84663e-07
2.00752e-07
2.18117e-07
2.36769e-07
2.56713e-07
2.77942e-07
3.0044e-07
3.24181e-07
3.4913e-07
3.75246e-07
4.0248e-07
4.30784e-07
4.60106e-07
4.90396e-07
5.21612e-07
5.53717e-07
5.86677e-07
6.20464e-07
6.55057e-07
6.90443e-07
7.26615e-07
7.63574e-07
8.01325e-07
8.39879e-07
8.79253e-07
9.19465e-07
9.60534e-07
1.00248e-06
1.04532e-06
1.08907e-06
1.13373e-06
1.17929e-06
1.22573e-06
1.273e-06
1.32102e-06
1.3697e-06
1.41887e-06
1.46831e-06
1.51775e-06
1.56684e-06
1.61513e-06
1.66211e-06
1.70712e-06
1.7498e-06
1.78953e-06
1.82347e-06
1.84915e-06
1.86998e-06
1.88593e-06
1.89119e-06
1.88545e-06
1.86805e-06
1.83825e-06
1.79548e-06
1.73952e-06
1.67057e-06
1.5893e-06
1.4969e-06
1.39503e-06
1.28579e-06
1.1716e-06
1.05505e-06
9.38799e-07
8.25334e-07
7.16877e-07
6.15248e-07
5.21786e-07
4.37327e-07
3.62223e-07
2.9639e-07
2.39393e-07
1.9053e-07
1.48913e-07
1.13549e-07
8.34006e-08
5.74579e-08
3.4922e-08
1.59039e-08
3.26029e-09
2.36556e-11
4.79815e-12
7.17252e-10
4.02023e-09
9.77386e-09
1.68325e-08
2.45303e-08
3.25746e-08
4.08119e-08
4.91313e-08
5.74347e-08
6.56291e-08
7.36259e-08
8.1342e-08
8.87018e-08
9.56386e-08
1.02096e-07
1.08028e-07
1.13402e-07
1.18196e-07
1.22398e-07
1.2601e-07
1.29042e-07
1.31513e-07
1.33452e-07
1.34895e-07
1.35884e-07
1.36469e-07
1.36704e-07
1.36649e-07
1.36369e-07
1.3594e-07
1.35422e-07
1.34902e-07
1.34466e-07
1.34192e-07
1.34182e-07
1.34555e-07
1.35404e-07
1.36841e-07
1.38982e-07
1.41943e-07
1.45847e-07
1.50815e-07
1.56969e-07
1.64427e-07
1.73306e-07
1.83717e-07
1.95767e-07
2.09554e-07
2.25171e-07
2.42704e-07
2.62227e-07
2.8381e-07
3.07512e-07
3.3338e-07
3.61451e-07
3.91748e-07
4.24277e-07
4.59028e-07
4.95973e-07
5.35067e-07
5.76246e-07
6.19429e-07
6.64526e-07
7.11433e-07
7.60047e-07
8.10262e-07
8.61977e-07
9.15097e-07
9.69557e-07
1.02533e-06
1.08237e-06
1.14063e-06
1.20011e-06
1.26081e-06
1.32275e-06
1.38598e-06
1.45054e-06
1.51649e-06
1.58392e-06
1.65288e-06
1.72349e-06
1.7958e-06
1.86991e-06
1.9459e-06
2.02381e-06
2.10369e-06
2.18555e-06
2.26936e-06
2.35504e-06
2.44244e-06
2.53138e-06
2.62154e-06
2.71233e-06
2.80313e-06
2.89312e-06
2.98132e-06
3.06648e-06
3.14913e-06
3.22524e-06
3.29167e-06
3.3439e-06
3.38656e-06
3.42176e-06
3.4374e-06
3.43298e-06
3.4073e-06
3.35897e-06
3.28688e-06
3.19053e-06
3.07016e-06
2.92686e-06
2.76263e-06
2.58036e-06
2.38373e-06
2.17703e-06
1.96497e-06
1.75235e-06
1.54381e-06
1.34354e-06
1.15506e-06
9.81011e-07
8.23153e-07
6.82319e-07
5.58519e-07
4.51049e-07
3.5867e-07
2.7975e-07
2.12408e-07
1.54663e-07
1.04636e-07
6.11841e-08
2.57553e-08
4.68476e-09
3.14221e-11
6.08611e-12
9.49061e-10
5.77855e-09
1.51562e-08
2.74855e-08
4.13736e-08
5.60787e-08
7.1206e-08
8.65028e-08
1.01769e-07
1.16824e-07
1.31502e-07
1.45649e-07
1.59122e-07
1.718e-07
1.83577e-07
1.94371e-07
2.04121e-07
2.12787e-07
2.20351e-07
2.26816e-07
2.32202e-07
2.36549e-07
2.39909e-07
2.42352e-07
2.43955e-07
2.4481e-07
2.45017e-07
2.44684e-07
2.43929e-07
2.42892e-07
2.41676e-07
2.40438e-07
2.39329e-07
2.38485e-07
2.38087e-07
2.38346e-07
2.39421e-07
2.41505e-07
2.44795e-07
2.49493e-07
2.55803e-07
2.63927e-07
2.74066e-07
2.86413e-07
3.0115e-07
3.18451e-07
3.38473e-07
3.6136e-07
3.87239e-07
4.16219e-07
4.48391e-07
4.83829e-07
5.22588e-07
5.64701e-07
6.10181e-07
6.59016e-07
7.11167e-07
7.66567e-07
8.25125e-07
8.86751e-07
9.51289e-07
1.01858e-06
1.08846e-06
1.16074e-06
1.23526e-06
1.31186e-06
1.39038e-06
1.47068e-06
1.5527e-06
1.63634e-06
1.72158e-06
1.80844e-06
1.89695e-06
1.98719e-06
2.07923e-06
2.1732e-06
2.26922e-06
2.36745e-06
2.46807e-06
2.57124e-06
2.67716e-06
2.78601e-06
2.89799e-06
3.01324e-06
3.13192e-06
3.25411e-06
3.37988e-06
3.50918e-06
3.64191e-06
3.7778e-06
3.91643e-06
4.05721e-06
4.19944e-06
4.34209e-06
4.48382e-06
4.62301e-06
4.75775e-06
4.88891e-06
5.00879e-06
5.11452e-06
5.19896e-06
5.26545e-06
5.32254e-06
5.34925e-06
5.34439e-06
5.30666e-06
5.23412e-06
5.12523e-06
4.97928e-06
4.79666e-06
4.57899e-06
4.32919e-06
4.05144e-06
3.75109e-06
3.43444e-06
3.1084e-06
2.78014e-06
2.45669e-06
2.1445e-06
1.84911e-06
1.57487e-06
1.32481e-06
1.10055e-06
9.02413e-07
7.29593e-07
5.80331e-07
4.52161e-07
3.4214e-07
2.4715e-07
1.64383e-07
9.28214e-08
3.66925e-08
6.16995e-09
3.96502e-11
7.45022e-12
1.19108e-09
7.66395e-09
2.13274e-08
4.04993e-08
6.29246e-08
8.71195e-08
1.1223e-07
1.37718e-07
1.6319e-07
1.88318e-07
2.12807e-07
2.36389e-07
2.58824e-07
2.799e-07
2.99443e-07
3.17312e-07
3.33403e-07
3.47654e-07
3.60036e-07
3.70555e-07
3.7925e-07
3.86187e-07
3.9146e-07
3.95184e-07
3.97494e-07
3.98541e-07
3.98492e-07
3.97527e-07
3.95838e-07
3.9366e-07
3.91151e-07
3.88571e-07
3.86159e-07
3.8413e-07
3.82775e-07
3.82431e-07
3.83345e-07
3.85816e-07
3.90149e-07
3.96656e-07
4.05644e-07
4.17418e-07
4.32271e-07
4.50484e-07
4.72313e-07
4.97995e-07
5.27736e-07
5.61715e-07
6.0008e-07
6.42946e-07
6.90397e-07
7.42486e-07
7.99248e-07
8.60666e-07
9.267e-07
9.97275e-07
1.07228e-06
1.15157e-06
1.23495e-06
1.3222e-06
1.41309e-06
1.50738e-06
1.60482e-06
1.70514e-06
1.80812e-06
1.91354e-06
2.02126e-06
2.13115e-06
2.2431e-06
2.35706e-06
2.47303e-06
2.5911e-06
2.71135e-06
2.83394e-06
2.95904e-06
3.08686e-06
3.21762e-06
3.3516e-06
3.48908e-06
3.63036e-06
3.77574e-06
3.92552e-06
4.07999e-06
4.2394e-06
4.40397e-06
4.57383e-06
4.74904e-06
4.92952e-06
5.11506e-06
5.30522e-06
5.49932e-06
5.69645e-06
5.89544e-06
6.09468e-06
6.29222e-06
6.48555e-06
6.67181e-06
6.85029e-06
7.01399e-06
7.15714e-06
7.27192e-06
7.35585e-06
7.42811e-06
7.45997e-06
7.44726e-06
7.38955e-06
7.28481e-06
7.13132e-06
6.92846e-06
6.67689e-06
6.37882e-06
6.03803e-06
5.65988e-06
5.25116e-06
4.81989e-06
4.37493e-06
3.92557e-06
3.481e-06
3.04984e-06
2.63966e-06
2.2566e-06
1.90512e-06
1.58789e-06
1.30581e-06
1.05817e-06
8.4289e-07
6.56761e-07
4.95824e-07
3.55788e-07
2.33143e-07
1.2787e-07
4.8198e-08
7.69573e-09
4.82318e-11
8.88202e-12
1.44238e-09
9.63679e-09
2.80583e-08
5.54096e-08
8.86558e-08
1.25333e-07
1.63855e-07
2.03207e-07
2.42659e-07
2.8163e-07
3.19625e-07
3.56203e-07
3.90975e-07
4.23602e-07
4.53803e-07
4.81357e-07
5.06101e-07
5.27936e-07
5.46819e-07
5.62764e-07
5.75834e-07
5.86137e-07
5.93821e-07
5.99068e-07
6.0209e-07
6.03125e-07
6.0243e-07
6.00284e-07
5.9698e-07
5.92876e-07
5.88207e-07
5.83365e-07
5.78711e-07
5.74551e-07
5.71328e-07
5.69539e-07
5.69539e-07
5.71759e-07
5.76641e-07
5.84624e-07
5.96144e-07
6.11621e-07
6.31457e-07
6.56021e-07
6.8565e-07
7.20634e-07
7.61225e-07
8.07622e-07
8.59972e-07
9.18376e-07
9.82886e-07
1.0535e-06
1.13018e-06
1.21285e-06
1.30138e-06
1.39562e-06
1.49535e-06
1.60035e-06
1.71033e-06
1.82497e-06
1.94394e-06
2.0669e-06
2.19351e-06
2.32347e-06
2.45648e-06
2.5923e-06
2.73076e-06
2.87174e-06
3.01515e-06
3.16097e-06
3.30928e-06
3.46019e-06
3.61388e-06
3.77058e-06
3.93055e-06
4.0941e-06
4.26158e-06
4.43337e-06
4.60987e-06
4.7915e-06
4.97869e-06
5.17183e-06
5.37133e-06
5.57748e-06
5.79053e-06
6.01062e-06
6.23771e-06
6.47159e-06
6.71182e-06
6.95765e-06
7.20801e-06
7.46146e-06
7.71619e-06
7.96986e-06
8.21967e-06
8.46228e-06
8.69401e-06
8.91128e-06
9.10802e-06
9.27981e-06
9.41553e-06
9.50697e-06
9.57792e-06
9.60546e-06
9.57441e-06
9.4872e-06
9.34229e-06
9.13816e-06
8.87443e-06
8.55214e-06
8.17401e-06
7.74448e-06
7.26976e-06
6.75769e-06
6.21755e-06
5.65966e-06
5.09491e-06
4.53425e-06
3.98812e-06
3.46585e-06
2.97526e-06
2.52224e-06
2.1106e-06
1.742e-06
1.41606e-06
1.13056e-06
8.81784e-07
6.64893e-07
4.74674e-07
3.07339e-07
1.64729e-07
5.99581e-08
9.24927e-09
5.70816e-11
1.0375e-11
1.70234e-09
1.16761e-08
3.5183e-08
7.17678e-08
1.17876e-07
1.6995e-07
2.25424e-07
2.82555e-07
3.40104e-07
3.97104e-07
4.52742e-07
5.06324e-07
5.57245e-07
6.04987e-07
6.49121e-07
6.8931e-07
7.25309e-07
7.5697e-07
7.84231e-07
8.07111e-07
8.25708e-07
8.40185e-07
8.50763e-07
8.57715e-07
8.61353e-07
8.62029e-07
8.60119e-07
8.5603e-07
8.50183e-07
8.43099e-07
8.35106e-07
8.26765e-07
8.18586e-07
8.1099e-07
8.04611e-07
8.00142e-07
7.98064e-07
7.98972e-07
8.03464e-07
8.12135e-07
8.25564e-07
8.44303e-07
8.68871e-07
8.99735e-07
9.37302e-07
9.81915e-07
1.03384e-06
1.09328e-06
1.16037e-06
1.23516e-06
1.31765e-06
1.40779e-06
1.50545e-06
1.61045e-06
1.72259e-06
1.84159e-06
1.96716e-06
2.09895e-06
2.23658e-06
2.37963e-06
2.52768e-06
2.68029e-06
2.83707e-06
2.99763e-06
3.16164e-06
3.32883e-06
3.49901e-06
3.67204e-06
3.84786e-06
4.02649e-06
4.20804e-06
4.39269e-06
4.58068e-06
4.77232e-06
4.96796e-06
5.16801e-06
5.37294e-06
5.58324e-06
5.79943e-06
6.02204e-06
6.25161e-06
6.48864e-06
6.73357e-06
6.98671e-06
7.24827e-06
7.51824e-06
7.79642e-06
8.08231e-06
8.37506e-06
8.67346e-06
8.97586e-06
9.28013e-06
9.58367e-06
9.88333e-06
1.01754e-05
1.04558e-05
1.07199e-05
1.09627e-05
1.11779e-05
1.13594e-05
1.15042e-05
1.15899e-05
1.16424e-05
1.16547e-05
1.15954e-05
1.14707e-05
1.12803e-05
1.1023e-05
1.06987e-05
1.03089e-05
9.85648e-06
9.34634e-06
8.78509e-06
8.18115e-06
7.54451e-06
6.8864e-06
6.21883e-06
5.55402e-06
4.90379e-06
4.27896e-06
3.68877e-06
3.14046e-06
2.63895e-06
2.18672e-06
1.78388e-06
1.42829e-06
1.1159e-06
8.41231e-07
5.98435e-07
3.8394e-07
2.02232e-07
7.17835e-08
1.0821e-08
6.61326e-11
1.1924e-11
1.97046e-09
1.37708e-08
4.25906e-08
8.92005e-08
1.49877e-07
2.19997e-07
2.95837e-07
3.7469e-07
4.54581e-07
5.33987e-07
6.11671e-07
6.86566e-07
7.5776e-07
8.24482e-07
8.86105e-07
9.42134e-07
9.92214e-07
1.03613e-06
1.07378e-06
1.10521e-06
1.13054e-06
1.15001e-06
1.16394e-06
1.17271e-06
1.17676e-06
1.17659e-06
1.17271e-06
1.16571e-06
1.15616e-06
1.14477e-06
1.132e-06
1.11861e-06
1.10529e-06
1.09259e-06
1.0814e-06
1.07263e-06
1.06692e-06
1.06504e-06
1.06779e-06
1.07593e-06
1.09021e-06
1.11133e-06
1.13991e-06
1.17654e-06
1.22167e-06
1.27571e-06
1.33893e-06
1.41153e-06
1.49358e-06
1.5851e-06
1.68601e-06
1.79616e-06
1.91533e-06
2.04326e-06
2.17961e-06
2.32403e-06
2.4761e-06
2.63537e-06
2.80136e-06
2.97355e-06
3.15141e-06
3.33443e-06
3.52211e-06
3.71401e-06
3.90973e-06
4.10895e-06
4.31145e-06
4.51707e-06
4.72577e-06
4.93758e-06
5.15262e-06
5.37114e-06
5.59342e-06
5.81986e-06
6.05091e-06
6.28707e-06
6.52894e-06
6.7771e-06
7.03222e-06
7.29492e-06
7.5658e-06
7.84544e-06
8.13424e-06
8.43246e-06
8.74014e-06
9.05698e-06
9.38245e-06
9.7156e-06
1.0055e-05
1.03988e-05
1.07447e-05
1.10897e-05
1.14304e-05
1.17629e-05
1.20827e-05
1.23851e-05
1.26649e-05
1.29164e-05
1.31335e-05
1.33106e-05
1.34432e-05
1.3511e-05
1.35332e-05
1.35202e-05
1.34259e-05
1.32593e-05
1.30217e-05
1.27125e-05
1.23321e-05
1.18818e-05
1.13648e-05
1.07859e-05
1.01517e-05
9.47075e-06
8.75323e-06
8.01082e-06
7.25613e-06
6.50222e-06
5.76194e-06
5.04729e-06
4.36874e-06
3.73473e-06
3.15125e-06
2.62163e-06
2.14653e-06
1.724e-06
1.34985e-06
1.01816e-06
7.22736e-07
4.60653e-07
2.39588e-07
8.35587e-08
1.24036e-08
7.53342e-11
1.35248e-11
2.24631e-09
1.59146e-08
5.02104e-08
1.07424e-07
1.84015e-07
2.74459e-07
3.73773e-07
4.7809e-07
5.84491e-07
6.90703e-07
7.94882e-07
8.95482e-07
9.91199e-07
1.08093e-06
1.16376e-06
1.23899e-06
1.30612e-06
1.36482e-06
1.41498e-06
1.45662e-06
1.48992e-06
1.51521e-06
1.53291e-06
1.54354e-06
1.54769e-06
1.54605e-06
1.53931e-06
1.52823e-06
1.5136e-06
1.49634e-06
1.47708e-06
1.45682e-06
1.43645e-06
1.41668e-06
1.39871e-06
1.38369e-06
1.37245e-06
1.36599e-06
1.3653e-06
1.37135e-06
1.38509e-06
1.40735e-06
1.43892e-06
1.48046e-06
1.53251e-06
1.59549e-06
1.66969e-06
1.75526e-06
1.85224e-06
1.96056e-06
2.08005e-06
2.21048e-06
2.35151e-06
2.50277e-06
2.66382e-06
2.83419e-06
3.01336e-06
3.20074e-06
3.39575e-06
3.59775e-06
3.8061e-06
4.02018e-06
4.23939e-06
4.46318e-06
4.69108e-06
4.9227e-06
5.15774e-06
5.39603e-06
5.63749e-06
5.88215e-06
6.13018e-06
6.38183e-06
6.63748e-06
6.89759e-06
7.16271e-06
7.43349e-06
7.71061e-06
7.99481e-06
8.28683e-06
8.58738e-06
8.89708e-06
9.21649e-06
9.54595e-06
9.88543e-06
1.02348e-05
1.05931e-05
1.09595e-05
1.13324e-05
1.17096e-05
1.20884e-05
1.24655e-05
1.28378e-05
1.32013e-05
1.35511e-05
1.38821e-05
1.41894e-05
1.44676e-05
1.47109e-05
1.49141e-05
1.50719e-05
1.518e-05
1.52201e-05
1.5196e-05
1.51547e-05
1.50234e-05
1.4814e-05
1.45311e-05
1.41746e-05
1.37452e-05
1.3244e-05
1.26741e-05
1.20399e-05
1.13477e-05
1.06056e-05
9.82374e-06
9.01364e-06
8.18816e-06
7.36084e-06
6.54526e-06
5.75432e-06
4.99958e-06
4.29056e-06
3.63429e-06
3.03497e-06
2.49383e-06
2.00925e-06
1.57697e-06
1.19081e-06
8.44445e-07
5.35888e-07
2.76291e-07
9.52144e-08
1.39921e-08
8.46506e-11
1.51741e-11
2.52951e-09
1.81038e-08
5.79982e-08
1.26232e-07
2.19762e-07
3.32395e-07
4.5787e-07
5.9103e-07
7.27819e-07
8.65029e-07
1.00005e-06
1.1307e-06
1.25516e-06
1.37189e-06
1.47963e-06
1.57744e-06
1.6646e-06
1.74068e-06
1.80547e-06
1.85901e-06
1.90152e-06
1.93342e-06
1.95527e-06
1.96774e-06
1.97162e-06
1.96777e-06
1.95713e-06
1.94067e-06
1.91942e-06
1.89457e-06
1.86691e-06
1.83773e-06
1.80817e-06
1.77913e-06
1.75219e-06
1.72876e-06
1.70986e-06
1.69677e-06
1.69075e-06
1.69298e-06
1.70461e-06
1.72666e-06
1.76005e-06
1.80555e-06
1.86375e-06
1.9351e-06
2.01987e-06
2.11818e-06
2.23e-06
2.35517e-06
2.49343e-06
2.64442e-06
2.80769e-06
2.98276e-06
3.16907e-06
3.36601e-06
3.57292e-06
3.78912e-06
4.01385e-06
4.24635e-06
4.48584e-06
4.73155e-06
4.98274e-06
5.23875e-06
5.49897e-06
5.76292e-06
6.03022e-06
6.30063e-06
6.57403e-06
6.85047e-06
7.13012e-06
7.41329e-06
7.70044e-06
7.99214e-06
8.28906e-06
8.59198e-06
8.90173e-06
9.21915e-06
9.54506e-06
9.88019e-06
1.02251e-05
1.05802e-05
1.09457e-05
1.13211e-05
1.17061e-05
1.20988e-05
1.24967e-05
1.2898e-05
1.3301e-05
1.37025e-05
1.40986e-05
1.44843e-05
1.4855e-05
1.52059e-05
1.55323e-05
1.58287e-05
1.60902e-05
1.63118e-05
1.64881e-05
1.66143e-05
1.66868e-05
1.66949e-05
1.66272e-05
1.65331e-05
1.6377e-05
1.61271e-05
1.58034e-05
1.5406e-05
1.49361e-05
1.43945e-05
1.37838e-05
1.3108e-05
1.23724e-05
1.15846e-05
1.07542e-05
9.89224e-06
9.01152e-06
8.1257e-06
7.24882e-06
6.39452e-06
5.57528e-06
4.80168e-06
4.08176e-06
3.4206e-06
2.82011e-06
2.27901e-06
1.7931e-06
1.35605e-06
9.61536e-07
6.08644e-07
3.12043e-07
1.06714e-07
1.55834e-08
9.40597e-11
1.6869e-11
2.81974e-09
2.03362e-08
6.59271e-08
1.45479e-07
2.56704e-07
3.92992e-07
5.4685e-07
7.11768e-07
8.824e-07
1.05443e-06
1.22432e-06
1.38912e-06
1.54636e-06
1.69395e-06
1.83024e-06
1.95391e-06
2.06402e-06
2.15996e-06
2.24146e-06
2.30852e-06
2.36143e-06
2.4007e-06
2.42702e-06
2.44126e-06
2.44441e-06
2.43757e-06
2.42191e-06
2.39867e-06
2.36917e-06
2.33483e-06
2.29674e-06
2.25648e-06
2.21546e-06
2.17481e-06
2.13659e-06
2.10243e-06
2.07367e-06
2.05187e-06
2.03856e-06
2.03521e-06
2.04317e-06
2.06367e-06
2.09776e-06
2.14631e-06
2.20999e-06
2.28924e-06
2.38431e-06
2.49526e-06
2.62197e-06
2.7642e-06
2.92155e-06
3.09355e-06
3.27962e-06
3.47913e-06
3.69139e-06
3.91564e-06
4.15108e-06
4.39684e-06
4.65202e-06
4.91567e-06
5.18683e-06
5.46454e-06
5.74791e-06
6.03608e-06
6.3283e-06
6.62397e-06
6.92259e-06
7.22387e-06
7.52765e-06
7.83397e-06
8.14306e-06
8.4553e-06
8.77128e-06
9.09169e-06
9.41736e-06
9.74923e-06
1.00883e-05
1.04354e-05
1.07915e-05
1.11573e-05
1.15329e-05
1.19188e-05
1.23149e-05
1.27195e-05
1.31295e-05
1.35459e-05
1.39672e-05
1.43898e-05
1.4809e-05
1.52207e-05
1.56208e-05
1.60047e-05
1.63675e-05
1.67047e-05
1.70115e-05
1.72833e-05
1.75158e-05
1.77045e-05
1.78457e-05
1.79352e-05
1.79688e-05
1.79405e-05
1.78302e-05
1.76798e-05
1.7487e-05
1.7212e-05
1.68531e-05
1.64219e-05
1.59201e-05
1.53481e-05
1.47081e-05
1.40031e-05
1.32376e-05
1.24182e-05
1.15534e-05
1.06539e-05
9.73192e-06
8.80102e-06
7.87544e-06
6.96941e-06
6.09624e-06
5.2675e-06
4.49227e-06
3.7766e-06
3.12311e-06
2.53097e-06
1.99613e-06
1.51219e-06
1.07289e-06
6.78383e-07
3.46702e-07
1.18044e-07
1.71768e-08
1.03553e-10
1.86072e-11
3.11672e-09
2.261e-08
7.39805e-08
1.65068e-07
2.94537e-07
4.55583e-07
6.3959e-07
8.38675e-07
1.0461e-06
1.2563e-06
1.46465e-06
1.66731e-06
1.861e-06
2.04304e-06
2.21123e-06
2.36385e-06
2.49966e-06
2.61785e-06
2.71802e-06
2.80016e-06
2.86458e-06
2.9119e-06
2.94297e-06
2.95885e-06
2.96077e-06
2.95009e-06
2.92824e-06
2.89676e-06
2.85729e-06
2.81157e-06
2.76096e-06
2.70739e-06
2.65257e-06
2.59799e-06
2.54617e-06
2.49902e-06
2.45822e-06
2.42567e-06
2.40323e-06
2.39265e-06
2.39554e-06
2.41332e-06
2.44719e-06
2.49813e-06
2.56682e-06
2.65372e-06
2.75904e-06
2.88276e-06
3.02467e-06
3.18438e-06
3.36138e-06
3.55505e-06
3.76466e-06
3.98943e-06
4.22849e-06
4.48091e-06
4.7457e-06
5.02179e-06
5.30807e-06
5.60336e-06
5.90649e-06
6.21627e-06
6.53158e-06
6.85137e-06
7.17471e-06
7.50083e-06
7.82916e-06
8.15932e-06
8.49114e-06
8.82469e-06
9.16029e-06
9.49847e-06
9.83995e-06
1.01856e-05
1.05365e-05
1.08937e-05
1.12582e-05
1.16313e-05
1.20134e-05
1.24056e-05
1.28071e-05
1.32179e-05
1.36334e-05
1.40571e-05
1.44906e-05
1.4927e-05
1.53619e-05
1.57923e-05
1.62142e-05
1.66229e-05
1.70141e-05
1.73831e-05
1.77256e-05
1.8037e-05
1.83134e-05
1.85509e-05
1.87458e-05
1.88947e-05
1.89946e-05
1.90424e-05
1.90353e-05
1.8971e-05
1.88273e-05
1.863e-05
1.8397e-05
1.80875e-05
1.77067e-05
1.72482e-05
1.67224e-05
1.61288e-05
1.54692e-05
1.47458e-05
1.39618e-05
1.31226e-05
1.22358e-05
1.13111e-05
1.03599e-05
9.39556e-06
8.43224e-06
7.48457e-06
6.56662e-06
5.69092e-06
4.86765e-06
4.10385e-06
3.403e-06
2.76482e-06
2.18551e-06
1.65865e-06
1.17808e-06
7.44912e-07
3.80234e-07
1.29211e-07
1.87731e-08
1.13133e-10
2.03869e-11
3.42021e-09
2.49242e-08
8.21486e-08
1.84933e-07
3.33042e-07
5.1964e-07
7.35153e-07
9.70319e-07
1.21695e-06
1.46813e-06
1.71803e-06
1.96175e-06
2.19515e-06
2.41481e-06
2.61791e-06
2.80226e-06
2.96626e-06
3.10885e-06
3.22948e-06
3.32809e-06
3.40502e-06
3.46099e-06
3.49702e-06
3.51437e-06
3.51453e-06
3.49913e-06
3.46992e-06
3.42876e-06
3.37762e-06
3.31862e-06
3.25343e-06
3.18439e-06
3.11349e-06
3.04273e-06
2.97511e-06
2.91282e-06
2.85796e-06
2.81284e-06
2.77964e-06
2.76045e-06
2.75713e-06
2.77132e-06
2.80436e-06
2.85729e-06
2.93086e-06
3.02548e-06
3.14129e-06
3.27819e-06
3.43584e-06
3.61372e-06
3.81116e-06
4.02736e-06
4.26143e-06
4.5124e-06
4.77919e-06
5.06066e-06
5.3556e-06
5.66268e-06
5.98054e-06
6.30773e-06
6.64279e-06
6.98427e-06
7.33079e-06
7.68107e-06
8.03399e-06
8.38865e-06
8.74435e-06
9.10069e-06
9.45753e-06
9.81503e-06
1.01737e-05
1.05341e-05
1.08974e-05
1.12645e-05
1.16368e-05
1.20155e-05
1.24017e-05
1.27967e-05
1.32007e-05
1.3615e-05
1.40315e-05
1.44575e-05
1.48956e-05
1.53377e-05
1.5783e-05
1.62275e-05
1.66651e-05
1.70929e-05
1.75065e-05
1.79013e-05
1.82728e-05
1.86169e-05
1.89295e-05
1.92068e-05
1.94456e-05
1.96427e-05
1.97954e-05
1.99011e-05
1.99578e-05
1.9963e-05
1.99149e-05
1.98118e-05
1.9637e-05
1.93969e-05
1.91369e-05
1.87991e-05
1.83985e-05
1.79211e-05
1.73727e-05
1.67642e-05
1.60929e-05
1.53595e-05
1.45662e-05
1.3717e-05
1.28182e-05
1.18784e-05
1.09081e-05
9.92009e-06
8.92828e-06
7.94753e-06
6.99253e-06
6.07677e-06
5.21152e-06
4.40496e-06
3.66151e-06
2.98159e-06
2.36173e-06
1.79563e-06
1.27718e-06
8.08293e-07
4.12688e-07
1.40237e-07
2.03754e-08
1.22814e-10
2.22064e-11
3.73002e-09
2.72781e-08
9.04257e-08
2.05033e-07
3.72062e-07
5.84768e-07
8.3279e-07
1.10549e-06
1.39323e-06
1.68765e-06
1.98162e-06
2.26909e-06
2.54495e-06
2.80493e-06
3.04552e-06
3.26401e-06
3.45835e-06
3.6272e-06
3.76984e-06
3.88612e-06
3.97642e-06
4.04153e-06
4.08265e-06
4.10125e-06
4.0991e-06
4.07811e-06
4.04039e-06
3.98813e-06
3.92368e-06
3.84958e-06
3.76785e-06
3.68129e-06
3.59216e-06
3.50318e-06
3.41777e-06
3.33842e-06
3.26777e-06
3.20852e-06
3.16327e-06
3.13443e-06
3.12413e-06
3.1342e-06
3.16614e-06
3.22105e-06
3.29968e-06
3.40239e-06
3.52925e-06
3.68003e-06
3.85424e-06
4.05119e-06
4.27004e-06
4.5098e-06
4.76936e-06
5.04753e-06
5.343e-06
5.65436e-06
5.98012e-06
6.31866e-06
6.66829e-06
7.02726e-06
7.39377e-06
7.76607e-06
8.1425e-06
8.52152e-06
8.90185e-06
9.28243e-06
9.66252e-06
1.00417e-05
1.042e-05
1.07977e-05
1.11755e-05
1.15544e-05
1.19355e-05
1.23204e-05
1.27104e-05
1.31068e-05
1.35109e-05
1.39243e-05
1.43413e-05
1.47687e-05
1.52037e-05
1.56491e-05
1.6099e-05
1.65465e-05
1.69952e-05
1.74405e-05
1.78719e-05
1.82881e-05
1.86846e-05
1.9057e-05
1.94011e-05
1.97133e-05
1.99902e-05
2.02286e-05
2.04261e-05
2.05803e-05
2.06895e-05
2.07514e-05
2.07643e-05
2.07267e-05
2.06376e-05
2.04954e-05
2.02942e-05
2.00231e-05
1.97246e-05
1.93714e-05
1.89488e-05
1.84732e-05
1.7913e-05
1.72852e-05
1.66053e-05
1.58682e-05
1.50723e-05
1.42204e-05
1.33174e-05
1.23706e-05
1.13894e-05
1.03857e-05
9.37311e-06
8.3664e-06
7.3808e-06
6.43066e-06
5.52842e-06
4.68344e-06
3.90125e-06
3.1831e-06
2.52602e-06
1.92387e-06
1.37062e-06
8.68766e-07
4.44167e-07
1.51157e-07
2.1988e-08
1.32618e-10
2.40646e-11
4.04599e-09
2.9671e-08
9.88089e-08
2.25343e-07
4.11489e-07
6.50683e-07
9.31927e-07
1.24323e-06
1.57349e-06
1.91289e-06
2.25291e-06
2.58628e-06
2.9068e-06
3.20929e-06
3.48951e-06
3.74409e-06
3.97056e-06
4.16721e-06
4.33313e-06
4.46807e-06
4.57239e-06
4.64699e-06
4.69323e-06
4.71281e-06
4.70777e-06
4.68035e-06
4.633e-06
4.56831e-06
4.48901e-06
4.39811e-06
4.29805e-06
4.19208e-06
4.08283e-06
3.97384e-06
3.86889e-06
3.77089e-06
3.68304e-06
3.6085e-06
3.55029e-06
3.51113e-06
3.49347e-06
3.49931e-06
3.53026e-06
3.58749e-06
3.67169e-06
3.78319e-06
3.92193e-06
4.08752e-06
4.27931e-06
4.49643e-06
4.73781e-06
5.00223e-06
5.28837e-06
5.59473e-06
5.91974e-06
6.26169e-06
6.61873e-06
6.98891e-06
7.37015e-06
7.76034e-06
8.15732e-06
8.559e-06
8.96342e-06
9.36883e-06
9.77374e-06
1.0177e-05
1.0578e-05
1.09763e-05
1.13722e-05
1.17661e-05
1.2159e-05
1.25523e-05
1.29476e-05
1.33466e-05
1.37509e-05
1.41617e-05
1.45799e-05
1.50033e-05
1.54309e-05
1.58765e-05
1.63248e-05
1.67789e-05
1.72343e-05
1.7683e-05
1.81243e-05
1.85652e-05
1.89834e-05
1.93812e-05
1.97543e-05
2.00988e-05
2.0411e-05
2.06878e-05
2.09264e-05
2.11246e-05
2.12803e-05
2.13919e-05
2.14575e-05
2.14758e-05
2.1446e-05
2.13674e-05
2.12394e-05
2.10614e-05
2.08316e-05
2.05356e-05
2.01983e-05
1.98294e-05
1.93934e-05
1.89029e-05
1.83585e-05
1.77308e-05
1.70371e-05
1.62948e-05
1.55006e-05
1.4651e-05
1.37493e-05
1.28016e-05
1.18158e-05
1.0803e-05
9.77581e-06
8.74904e-06
7.73814e-06
6.75831e-06
5.82309e-06
4.94315e-06
4.12526e-06
3.37164e-06
2.67999e-06
2.04444e-06
1.45905e-06
9.26691e-07
4.74807e-07
1.62012e-07
2.36163e-08
1.42576e-10
2.59606e-11
4.36801e-09
3.21028e-08
1.07297e-07
2.4585e-07
4.51253e-07
7.17187e-07
1.03213e-06
1.38275e-06
1.75656e-06
2.1422e-06
2.52975e-06
2.91063e-06
3.2775e-06
3.6242e-06
3.94566e-06
4.23787e-06
4.49783e-06
4.72347e-06
4.91363e-06
5.06793e-06
5.18674e-06
5.27104e-06
5.32232e-06
5.34254e-06
5.33401e-06
5.29933e-06
5.2413e-06
5.16293e-06
5.06738e-06
4.95816e-06
4.83815e-06
4.71112e-06
4.58014e-06
4.44966e-06
4.32375e-06