/*--------------------------------*- C++ -*----------------------------------*\
  =========                 |
  \\      /  F ield         | OpenFOAM: The Open Source CFD Toolbox
   \\    /   O peration     | Website:  https://openfoam.org
    \\  /    A nd           | Version:  12
     \\/     M anipulation  |
\*---------------------------------------------------------------------------*/
FoamFile
{
    format      ascii;
    class       volScalarField;
    location    "2";
    object      p;
}
// * * * * * * * * * * * * * * * * * * * * * * * * * * * * * * * * * * * * * //

dimensions      [0 2 -2 0 0 0 0];

internalField   nonuniform List<scalar> 
18225
(
3.70634e-08
1.24906e-05
3.56679e-05
6.38562e-05
9.23774e-05
0.000118578
0.000140566
0.000156898
0.000166502
0.000168615
0.000162746
0.000148629
0.0001262
9.55623e-05
5.6961e-05
1.0752e-05
-4.26197e-05
-0.000102649
-0.000168786
-0.000240463
-0.000317102
-0.00039814
-0.000483027
-0.00057123
-0.000662238
-0.000755578
-0.000850827
-0.000947623
-0.00104568
-0.00114479
-0.00124482
-0.00134573
-0.00144759
-0.00155056
-0.00165489
-0.00176094
-0.00186921
-0.00198028
-0.00209483
-0.00221366
-0.00233766
-0.00246782
-0.00260523
-0.00275105
-0.00290651
-0.00307291
-0.00325159
-0.00344393
-0.00365135
-0.00387528
-0.00411716
-0.00437843
-0.00466055
-0.00496496
-0.00529307
-0.00564633
-0.0060261
-0.00643377
-0.00687064
-0.00733795
-0.00783681
-0.00836823
-0.008933
-0.00953167
-0.0101645
-0.0108312
-0.0115312
-0.0122634
-0.0130257
-0.0138158
-0.01463
-0.0154641
-0.0163127
-0.0171692
-0.0180262
-0.0188749
-0.0197051
-0.0205056
-0.0212641
-0.0219669
-0.0225994
-0.023146
-0.0235903
-0.0239155
-0.0241042
-0.024139
-0.0240027
-0.0236786
-0.023151
-0.0224051
-0.0214283
-0.0202097
-0.0187412
-0.0170175
-0.015037
-0.0128016
-0.0103174
-0.00759942
-0.00466519
-0.00152677
0.00178444
0.00523044
0.00877658
0.0123796
0.0159922
0.0195641
0.0230431
0.0263764
0.0295123
0.0324027
0.0350045
0.0372819
0.0392081
0.0407667
0.0419529
0.0427736
0.0432474
0.0434032
0.0432788
0.0429187
0.0423712
0.0416865
0.0409134
0.0400975
0.0392794
0.0384938
0.0377689
0.0371268
0.0365842
0.0361529
0.0358409
0.0356528
0.0355866
0.0356293
0.0357278
1.05961e-06
1.22601e-05
3.28538e-05
5.80812e-05
8.37317e-05
0.000107318
0.000127016
0.000141415
0.000149448
0.000150348
0.000143606
0.000128938
0.000106257
7.56425e-05
3.73135e-05
-8.39904e-06
-6.1078e-05
-0.000120245
-0.00018538
-0.000255941
-0.000331379
-0.000411156
-0.000494749
-0.000581649
-0.000671368
-0.000763455
-0.000857502
-0.000953161
-0.00105015
-0.00114828
-0.00124742
-0.00134753
-0.00144869
-0.00155104
-0.00165486
-0.00176049
-0.0018684
-0.00197918
-0.00209349
-0.00221211
-0.0023359
-0.00246583
-0.00260295
-0.00274839
-0.00290335
-0.00306908
-0.00324688
-0.00343811
-0.00364413
-0.00386633
-0.00410612
-0.00436491
-0.00464411
-0.00494513
-0.00526935
-0.00561819
-0.00599299
-0.00639508
-0.00682576
-0.00728623
-0.00777761
-0.00830088
-0.00885682
-0.00944594
-0.0100685
-0.0107243
-0.0114128
-0.0121327
-0.0128824
-0.0136592
-0.0144599
-0.0152801
-0.0161147
-0.0169573
-0.0178005
-0.0186357
-0.019453
-0.0202414
-0.0209887
-0.0216815
-0.0223055
-0.0228451
-0.0232844
-0.0236066
-0.0237945
-0.023831
-0.023699
-0.023382
-0.0228642
-0.0221314
-0.0211706
-0.0199713
-0.0185252
-0.0168272
-0.0148755
-0.0126721
-0.0102226
-0.00754347
-0.00464977
-0.00155069
0.00171492
0.00511512
0.00861501
0.0121718
0.0157389
0.019267
0.0227045
0.0259998
0.0291022
0.0319643
0.034544
0.0368063
0.0387248
0.0402838
0.0414784
0.0423155
0.0428133
0.0429999
0.0429122
0.0425935
0.0420908
0.0414528
0.0407268
0.0399569
0.0391826
0.0384375
0.0377488
0.0371376
0.0366202
0.0362075
0.0359066
0.0357208
0.0356471
0.0356742
0.0357579
-5.50802e-07
1.01062e-05
2.86134e-05
5.1141e-05
7.39871e-05
9.49137e-05
0.000112228
0.000124582
0.000130936
0.000130525
0.000122832
0.000107555
8.45843e-05
5.3975e-05
1.59197e-05
-2.9278e-05
-8.12303e-05
-0.000139488
-0.00020356
-0.000272933
-0.000347088
-0.000425513
-0.000507713
-0.000593205
-0.000681525
-0.000772238
-0.000864955
-0.000959342
-0.00105514
-0.00115214
-0.00125025
-0.00134942
-0.00144973
-0.00155133
-0.00165448
-0.00175953
-0.00186693
-0.00197726
-0.00209115
-0.00220936
-0.00233274
-0.00246221
-0.0025988
-0.00274359
-0.00289774
-0.00306247
-0.00323903
-0.00342872
-0.00363287
-0.00385283
-0.00408996
-0.00434562
-0.0046212
-0.00491804
-0.00523753
-0.00558101
-0.00594982
-0.00634525
-0.00676854
-0.00722095
-0.00770355
-0.00821726
-0.00876289
-0.00934097
-0.00995175
-0.0105951
-0.0112705
-0.0119767
-0.0127122
-0.0134745
-0.0142603
-0.0150656
-0.0158852
-0.0167132
-0.0175421
-0.0183637
-0.0191683
-0.0199451
-0.0206821
-0.0213663
-0.0219833
-0.0225182
-0.0229549
-0.0232769
-0.0234673
-0.0235091
-0.0233852
-0.0230794
-0.022576
-0.0218607
-0.0209207
-0.0197453
-0.0183263
-0.0166586
-0.0147402
-0.0125729
-0.0101623
-0.00752605
-0.00467255
-0.00161733
0.00160035
0.00495404
0.0084073
0.0119181
0.0154406
0.0189262
0.0223244
0.025584
0.0286555
0.0314922
0.0340526
0.0363022
0.0382154
0.0397765
0.0409808
0.041835
0.042357
0.0425743
0.042523
0.0422453
0.0417872
0.0411958
0.0405173
0.0397944
0.0390653
0.0383623
0.0377117
0.0371336
0.0366433
0.0362509
0.0359624
0.0357801
0.0357004
0.0357164
0.0357946
-5.0653e-06
5.93874e-06
2.33486e-05
4.40572e-05
6.48638e-05
8.37471e-05
9.91582e-05
0.000109836
0.000114784
0.000113256
0.000104736
8.89126e-05
6.56626e-05
3.50229e-05
-2.83375e-06
-4.76255e-05
-9.89869e-05
-0.000156492
-0.000219674
-0.000288043
-0.000361102
-0.000438364
-0.000519357
-0.000603619
-0.000690705
-0.000780196
-0.000871715
-0.000964943
-0.00105963
-0.00115558
-0.00125269
-0.00135094
-0.00145038
-0.00155118
-0.00165359
-0.00175796
-0.00186472
-0.00197443
-0.00208772
-0.00220532
-0.00232804
-0.00245681
-0.00259259
-0.00273645
-0.0028895
-0.00305292
-0.00322793
-0.00341579
-0.00361779
-0.00383522
-0.00406942
-0.00432171
-0.00459342
-0.0048859
-0.00520046
-0.00553843
-0.0059011
-0.0062898
-0.00670574
-0.00715012
-0.00762401
-0.00812836
-0.00866398
-0.00923143
-0.009831
-0.0104626
-0.0111258
-0.0118195
-0.0125422
-0.0132916
-0.0140645
-0.0148571
-0.0156644
-0.0164806
-0.0172986
-0.0181101
-0.0189059
-0.0196754
-0.0204067
-0.021087
-0.0217022
-0.0222373
-0.0226767
-0.0230038
-0.0232018
-0.0232538
-0.0231429
-0.0228526
-0.0223675
-0.0216729
-0.0207563
-0.0196067
-0.0182159
-0.0165784
-0.0146922
-0.012559
-0.0101846
-0.0075844
-0.00476522
-0.00175016
0.00143003
0.00474699
0.00816437
0.0116408
0.0151311
0.0185872
0.021959
0.025196
0.0282488
0.0310713
0.0336222
0.0358673
0.0377809
0.0393475
0.0405622
0.0414317
0.0419735
0.0422149
0.0421914
0.0419448
0.0415204
0.0409646
0.0403228
0.0396367
0.0389437
0.0382751
0.0376562
0.0371061
0.0366391
0.0362645
0.0359874
0.0358096
0.035728
0.0357408
0.0358227
-1.18612e-05
1.99781e-07
1.72811e-05
3.68572e-05
5.62371e-05
7.35871e-05
8.75e-05
9.68133e-05
0.000100589
9.81088e-05
8.88656e-05
7.25487e-05
4.90262e-05
1.83238e-05
-1.94003e-05
-6.38801e-05
-0.000114768
-0.000171655
-0.000234094
-0.000301614
-0.000373737
-0.000449995
-0.000529934
-0.000613113
-0.0006991
-0.00078749
-0.000877917
-0.000970073
-0.00106371
-0.00115865
-0.00125479
-0.00135211
-0.00145066
-0.00155061
-0.0016522
-0.00175577
-0.00186176
-0.00197069
-0.0020832
-0.00219997
-0.00232182
-0.00244963
-0.00258434
-0.00272699
-0.00287865
-0.00304047
-0.00321364
-0.00339937
-0.00359891
-0.00381353
-0.00404451
-0.00429315
-0.00456075
-0.0048486
-0.00515801
-0.00549027
-0.00584668
-0.0062285
-0.00663699
-0.00707328
-0.00753848
-0.00803359
-0.00855942
-0.00911659
-0.00970545
-0.010326
-0.0109779
-0.0116602
-0.0123714
-0.0131095
-0.0138715
-0.0146537
-0.0154514
-0.0162588
-0.0170692
-0.0178746
-0.0186658
-0.0194324
-0.0201629
-0.0208444
-0.021463
-0.022004
-0.0224516
-0.0227894
-0.0230006
-0.0230683
-0.0229754
-0.0227054
-0.0222428
-0.0215729
-0.0206828
-0.0195615
-0.0182005
-0.016594
-0.01474
-0.0126397
-0.0102989
-0.00773051
-0.00494436
-0.0019627
0.0011867
0.00447432
0.00786428
0.0113158
0.014784
0.0182212
0.0215776
0.0248029
0.0278479
0.0306665
0.0332173
0.035466
0.0373867
0.0389635
0.0401915
0.041077
0.0416372
0.0418992
0.0418985
0.0416765
0.0412783
0.0407501
0.0401369
0.0394799
0.0388158
0.0381753
0.0375827
0.0370565
0.0366097
0.0362509
0.0359844
0.0358118
0.0357309
0.0357449
0.0358337
-2.03359e-05
-6.78239e-06
1.05496e-05
2.95134e-05
4.79252e-05
6.41292e-05
7.68563e-05
8.50476e-05
8.783e-05
8.45229e-05
7.46354e-05
5.78623e-05
3.40693e-05
3.27549e-06
-3.43707e-05
-7.86148e-05
-0.000129122
-0.000185498
-0.000247309
-0.0003141
-0.000385408
-0.000460781
-0.000539782
-0.000621984
-0.000706971
-0.000794345
-0.000883751
-0.000974888
-0.00106752
-0.00116147
-0.00125663
-0.00135299
-0.00145061
-0.00154963
-0.00165031
-0.00175298
-0.00185806
-0.00196606
-0.0020776
-0.00219336
-0.00231411
-0.00244072
-0.00257411
-0.00271528
-0.00286528
-0.00302522
-0.00319625
-0.00337955
-0.00357633
-0.00378783
-0.0040153
-0.00425999
-0.00452317
-0.00480612
-0.00511011
-0.00543641
-0.00578632
-0.00616107
-0.00656189
-0.00698998
-0.00744647
-0.00793236
-0.00844856
-0.00899573
-0.00957431
-0.0101844
-0.0108258
-0.0114978
-0.0121989
-0.0129274
-0.0136805
-0.0144547
-0.0152455
-0.0160474
-0.0168538
-0.017657
-0.018448
-0.0192165
-0.0199512
-0.0206393
-0.0212671
-0.0218197
-0.0222814
-0.0226359
-0.0228661
-0.022955
-0.0228856
-0.0226411
-0.0222057
-0.0215646
-0.0207047
-0.0196146
-0.0182857
-0.0167119
-0.0148908
-0.0128234
-0.0105152
-0.00797754
-0.00522216
-0.00226982
0.000852917
0.00411621
0.00748467
0.010918
0.0143717
0.0177981
0.0211478
0.0243705
0.0274169
0.0302406
0.0328001
0.0350606
0.0369956
0.0385889
0.0398349
0.0407396
0.0413198
0.0416025
0.041623
0.0414228
0.041047
0.0405419
0.0399522
0.0393192
0.0386793
0.0380624
0.0374924
0.0369869
0.0365581
0.0362134
0.0359569
0.0357899
0.035711
0.0357275
0.0358227
-2.99965e-05
-1.46452e-05
3.37239e-06
2.21342e-05
3.99511e-05
5.5332e-05
6.71408e-05
7.44196e-05
7.63657e-05
7.23404e-05
6.1876e-05
4.46774e-05
2.06128e-05
-1.03012e-05
-4.79212e-05
-9.20007e-05
-0.000142213
-0.000198176
-0.000259465
-0.000325636
-0.00039624
-0.000470837
-0.000549003
-0.000630326
-0.000714397
-0.000800829
-0.000889274
-0.000979438
-0.00107109
-0.00116405
-0.00125823
-0.00135361
-0.00145024
-0.00154828
-0.00164796
-0.0017496
-0.00185364
-0.00196056
-0.00207095
-0.0021855
-0.00230495
-0.00243014
-0.00256196
-0.0027014
-0.00284947
-0.00300725
-0.00317586
-0.00335644
-0.00355018
-0.00375827
-0.00398194
-0.0042224
-0.0044809
-0.00475868
-0.005057
-0.00537712
-0.00572029
-0.00608779
-0.00648086
-0.00690071
-0.00734851
-0.00782534
-0.00833215
-0.00886974
-0.00943865
-0.0100392
-0.0106712
-0.0113341
-0.0120269
-0.0127478
-0.0134944
-0.0142634
-0.0150506
-0.0158507
-0.0166573
-0.0174629
-0.0182587
-0.0190346
-0.0197792
-0.02048
-0.0211231
-0.0216936
-0.0221758
-0.0225532
-0.0228086
-0.0229247
-0.0228843
-0.0226705
-0.022267
-0.021659
-0.0208329
-0.0197771
-0.0184827
-0.0169434
-0.0151563
-0.0131222
-0.0108461
-0.00833857
-0.00561194
-0.00268613
0.000413176
0.00365619
0.00700798
0.0104288
0.0138742
0.017297
0.0206477
0.0238759
0.0269323
0.02977
0.032347
0.0346277
0.0365851
0.038202
0.0394723
0.0404012
0.0410052
0.0413109
0.0413534
0.0411745
0.0408194
0.0403347
0.0397654
0.0391529
0.0385334
0.0379367
0.0373861
0.0368986
0.0364855
0.0361536
0.0359063
0.0357447
0.0356682
0.0356869
0.0357866
-4.04139e-05
-2.30602e-05
-4.03758e-06
1.48529e-05
3.23852e-05
4.72207e-05
5.8346e-05
6.48999e-05
6.61508e-05
6.15051e-05
5.05233e-05
3.29244e-05
8.58384e-06
-2.24805e-05
-6.01265e-05
-0.000104111
-0.000154114
-0.000209758
-0.000270626
-0.000336284
-0.00040629
-0.000480215
-0.000557647
-0.000638181
-0.000721419
-0.00080698
-0.000894521
-0.000983753
-0.00107445
-0.00116644
-0.00125962
-0.00135398
-0.00144958
-0.00154655
-0.00164514
-0.00174566
-0.00184852
-0.0019542
-0.00206329
-0.00217643
-0.00229437
-0.00241792
-0.00254795
-0.00268541
-0.0028313
-0.00298666
-0.00315258
-0.00333018
-0.00352061
-0.00372503
-0.00394463
-0.00418061
-0.00443418
-0.00470657
-0.00499901
-0.00531276
-0.00564908
-0.00600925
-0.00639454
-0.00680622
-0.00724551
-0.00771357
-0.00821148
-0.00874013
-0.00930026
-0.00989229
-0.0105163
-0.0111721
-0.0118586
-0.0125746
-0.0133177
-0.014085
-0.0148725
-0.0156752
-0.0164869
-0.0173003
-0.0181067
-0.018896
-0.0196569
-0.0203769
-0.0210421
-0.0216373
-0.0221468
-0.0225536
-0.0228405
-0.0229898
-0.022984
-0.022806
-0.0224391
-0.0218681
-0.0210793
-0.0200608
-0.0188031
-0.0172999
-0.0155478
-0.0135473
-0.0113032
-0.00882505
-0.00612559
-0.00322407
-0.000145377
0.00308092
0.00642025
0.00983345
0.0132765
0.0167022
0.020061
0.0233026
0.0263773
0.0292377
0.031841
0.0341509
0.0361392
0.0377879
0.0390898
0.0400493
0.0406821
0.0410146
0.0410817
0.0409252
0.0405909
0.0401255
0.0395746
0.03898
0.0383781
0.0377987
0.0372647
0.0367927
0.0363933
0.0360726
0.0358334
0.0356767
0.0356023
0.0356222
0.0357238
-5.11961e-05
-3.17305e-05
-1.14832e-05
7.79458e-06
2.5295e-05
3.98191e-05
5.04627e-05
5.64557e-05
5.71344e-05
5.19537e-05
4.05041e-05
2.25237e-05
-2.10192e-06
-3.33491e-05
-7.10739e-05
-0.000115033
-0.000164909
-0.000220325
-0.000280872
-0.000346118
-0.000415629
-0.000488981
-0.000565772
-0.000645604
-0.000728086
-0.00081284
-0.000899529
-0.000987867
-0.00107763
-0.00116865
-0.00126083
-0.00135414
-0.00144865
-0.00154449
-0.0016419
-0.00174118
-0.00184273
-0.00194703
-0.00205464
-0.0021662
-0.00228244
-0.00240413
-0.00253215
-0.0026674
-0.00281086
-0.00296356
-0.00312654
-0.00330091
-0.00348778
-0.00368829
-0.00390359
-0.00413487
-0.0043833
-0.00465011
-0.00493652
-0.00524379
-0.0055732
-0.00592605
-0.00630367
-0.00670738
-0.00713849
-0.00759829
-0.00808798
-0.00860863
-0.00916115
-0.00974621
-0.0103641
-0.0110149
-0.0116979
-0.012412
-0.0131553
-0.013925
-0.0147175
-0.0155279
-0.0163503
-0.0171775
-0.0180008
-0.0188103
-0.0195945
-0.0203408
-0.0210351
-0.0216622
-0.0222057
-0.0226486
-0.0229733
-0.0231617
-0.023196
-0.0230585
-0.0227325
-0.0222023
-0.0214539
-0.0204751
-0.0192562
-0.0177904
-0.0160742
-0.0141077
-0.0118953
-0.009446
-0.00677243
-0.00389333
-0.000832856
0.00237979
0.00571039
0.00912041
0.0125663
0.0160007
0.0193743
0.0226367
0.0257377
0.0286292
0.0312678
0.0336158
0.0356442
0.0373334
0.0386751
0.0396725
0.0403407
0.0407052
0.0408009
0.0406696
0.0403572
0.0399114
0.0393782
0.0388
0.0382136
0.0376491
0.0371294
0.0366705
0.0362828
0.0359717
0.0357393
0.0355866
0.0355136
0.0355331
0.0356337
-6.20149e-05
-4.0397e-05
-1.87819e-05
1.07792e-06
1.87476e-05
3.31509e-05
4.34817e-05
4.90524e-05
4.92637e-05
4.36189e-05
3.17409e-05
1.339e-05
-1.15348e-05
-4.30006e-05
-8.08582e-05
-0.000124861
-0.00017469
-0.000229969
-0.000290289
-0.00035522
-0.000424331
-0.000497206
-0.000573443
-0.000652654
-0.000734451
-0.000818459
-0.000904343
-0.000991821
-0.00108067
-0.00117072
-0.00126187
-0.0013541
-0.00144747
-0.00154211
-0.00163825
-0.00173619
-0.00183631
-0.00193908
-0.00204506
-0.00215486
-0.0022692
-0.00238885
-0.00251463
-0.00264745
-0.00278827
-0.00293807
-0.00309789
-0.00326879
-0.00345188
-0.00364825
-0.00385906
-0.00408544
-0.00432858
-0.00458968
-0.00486997
-0.00517072
-0.00549325
-0.0058389
-0.00620906
-0.00660516
-0.00702863
-0.00748088
-0.00796329
-0.00847716
-0.00902362
-0.00960359
-0.0102177
-0.0108662
-0.0115489
-0.0122649
-0.0130125
-0.0137895
-0.0145922
-0.0154161
-0.0162555
-0.017103
-0.0179503
-0.0187871
-0.0196021
-0.0203821
-0.0211128
-0.0217788
-0.0223633
-0.0228488
-0.0232172
-0.0234502
-0.0235295
-0.023437
-0.0231557
-0.0226695
-0.0219642
-0.0210272
-0.0198487
-0.0184216
-0.016742
-0.0148098
-0.012629
-0.0102079
-0.00755927
-0.00470111
-0.00165694
0.00154457
0.00486961
0.00828019
0.0117333
0.0151817
0.0185763
0.0218662
0.025001
0.0279319
0.0306145
0.0330099
0.0350876
0.0368266
0.038217
0.0392609
0.0399719
0.040375
0.0405045
0.0404024
0.0401148
0.03969
0.0391748
0.0386124
0.0380402
0.0374887
0.0369811
0.0365334
0.0361554
0.035852
0.0356252
0.0354753
0.0354025
0.0354197
0.0355165
-7.25894e-05
-4.88315e-05
-2.57681e-05
-5.18619e-06
1.28084e-05
2.72431e-05
3.73998e-05
4.26624e-05
4.2493e-05
3.64407e-05
2.41636e-05
5.44526e-06
-1.97979e-05
-5.15215e-05
-8.95674e-05
-0.000133683
-0.000183544
-0.000238773
-0.000298957
-0.000363666
-0.000432471
-0.000504955
-0.000580724
-0.000659389
-0.000740567
-0.000823884
-0.000909007
-0.000995653
-0.0010836
-0.00117268
-0.00126279
-0.00135391
-0.00144609
-0.00153946
-0.00163424
-0.00173072
-0.00182929
-0.0019304
-0.00203459
-0.00214247
-0.00225474
-0.00237214
-0.00249549
-0.00262568
-0.00276364
-0.00291033
-0.00306677
-0.00323401
-0.00341311
-0.00360516
-0.00381129
-0.00403264
-0.00427037
-0.00452568
-0.00479983
-0.00509411
-0.00540989
-0.00574858
-0.00611166
-0.00650068
-0.00691721
-0.00736287
-0.00783925
-0.00834787
-0.00889017
-0.00946738
-0.0100805
-0.01073
-0.0114161
-0.0121382
-0.0128951
-0.0136846
-0.0145035
-0.0153474
-0.0162105
-0.0170856
-0.0179642
-0.018836
-0.0196891
-0.0205103
-0.0212849
-0.0219967
-0.0226288
-0.0231629
-0.0235808
-0.0238633
-0.023992
-0.0239483
-0.0237149
-0.0232755
-0.0226154
-0.021722
-0.0205852
-0.0191976
-0.0175553
-0.0156576
-0.0135083
-0.0111153
-0.00849089
-0.00565263
-0.00262337
0.000568892
0.00389084
0.00730499
0.010769
0.014236
0.0176567
0.0209804
0.024156
0.0271342
0.0298693
0.0323213
0.0344579
0.0362564
0.0377053
0.0388048
0.0395673
0.0400167
0.0401867
0.0401189
0.03986
0.0394588
0.038963
0.0384166
0.037858
0.0373183
0.0368212
0.0363827
0.0360124
0.0357151
0.0354921
0.0353437
0.0352697
0.0352826
0.0353729
-8.26866e-05
-5.68377e-05
-3.22928e-05
-1.08921e-05
7.54282e-06
2.21273e-05
3.22194e-05
3.72661e-05
3.67847e-05
3.03687e-05
1.77111e-05
-1.37887e-06
-2.69651e-05
-5.89888e-05
-9.72803e-05
-0.000141578
-0.00019155
-0.000246813
-0.000306949
-0.000371526
-0.000440112
-0.000512292
-0.00058767
-0.000665861
-0.000746481
-0.00082916
-0.000913561
-0.000999401
-0.00108646
-0.00117456
-0.00126361
-0.00135358
-0.00144452
-0.00153655
-0.00162989
-0.00172482
-0.00182172
-0.00192104
-0.0020233
-0.0021291
-0.00223912
-0.0023541
-0.00247484
-0.0026022
-0.0027371
-0.00288049
-0.00303337
-0.00319675
-0.00337169
-0.00355927
-0.0037606
-0.0039768
-0.00420905
-0.00445857
-0.00472664
-0.00501459
-0.00532385
-0.00565595
-0.00601248
-0.00639513
-0.00680569
-0.00724598
-0.00771786
-0.00822314
-0.00876359
-0.00934078
-0.00995606
-0.0106104
-0.0113042
-0.0120374
-0.012809
-0.0136171
-0.0144586
-0.0153293
-0.0162234
-0.0171337
-0.0180513
-0.0189657
-0.0198647
-0.0207345
-0.0215599
-0.0223243
-0.02301
-0.0235984
-0.0240705
-0.0244071
-0.0245888
-0.0245971
-0.0244143
-0.0240237
-0.0234105
-0.0225621
-0.021468
-0.0201208
-0.0185161
-0.0166534
-0.0145357
-0.0121708
-0.00957039
-0.00675155
-0.0037364
-0.000552203
0.00276832
0.00618822
0.009666
0.0131553
0.0166067
0.0199696
0.0231925
0.0262253
0.0290213
0.0315389
0.0337442
0.0356124
0.03713
0.0382953
0.0391189
0.0396233
0.0398415
0.0398146
0.0395896
0.0392157
0.0387415
0.0382123
0.0376673
0.0371387
0.0366506
0.0362196
0.0358553
0.0355621
0.0353413
0.0351928
0.035116
0.0351228
0.0352041
-9.21072e-05
-6.42445e-05
-3.82222e-05
-1.59435e-05
3.01265e-06
1.78361e-05
2.79474e-05
3.28498e-05
3.21085e-05
2.53598e-05
1.23307e-05
-7.14208e-06
-3.31013e-05
-6.54707e-05
-0.000104067
-0.000148616
-0.000198776
-0.000254156
-0.00031433
-0.000378862
-0.000447314
-0.000519269
-0.000594332
-0.000672116
-0.000752238
-0.000834325
-0.00091804
-0.0010031
-0.00108928
-0.0011764
-0.00126438
-0.00135316
-0.00144281
-0.00153343
-0.00162525
-0.00171853
-0.00181366
-0.00191105
-0.00201124
-0.00211481
-0.00222243
-0.00233482
-0.00245277
-0.00257714
-0.0027088
-0.00284872
-0.00299786
-0.00315723
-0.00332788
-0.00351086
-0.00370729
-0.0039183
-0.00414507
-0.00438885
-0.00465097
-0.00493282
-0.00523595
-0.00556197
-0.00591265
-0.00628988
-0.00669565
-0.00713208
-0.00760131
-0.00810552
-0.00864683
-0.00922723
-0.00984846
-0.0105119
-0.0112184
-0.0119681
-0.0127604
-0.0135935
-0.0144647
-0.0153695
-0.0163023
-0.0172554
-0.0182198
-0.0191845
-0.0201367
-0.0210622
-0.0219451
-0.0227681
-0.023513
-0.0241605
-0.0246912
-0.0250853
-0.0253232
-0.025386
-0.0252557
-0.0249155
-0.0243506
-0.0235481
-0.0224976
-0.0211913
-0.019625
-0.0177977
-0.0157122
-0.0133757
-0.0107996
-0.00800026
-0.00499911
-0.00182257
0.00149741
0.00492444
0.00841796
0.0119323
0.0154182
0.018825
0.022101
0.0251954
0.0280603
0.0306525
0.0329363
0.0348847
0.0364818
0.0377236
0.0386189
0.0391882
0.0394634
0.0394851
0.0393001
0.0389583
0.0385091
0.0379989
0.0374683
0.0369505
0.0364705
0.0360454
0.0356852
0.0353944
0.035174
0.0350236
0.0349424
0.0349413
0.0350114
-0.000100688
-7.09073e-05
-4.3437e-05
-2.02516e-05
-7.21254e-07
1.44029e-05
2.45945e-05
2.94044e-05
2.84401e-05
2.13777e-05
7.97705e-06
-1.18965e-05
-3.82631e-05
-7.10268e-05
-0.000109988
-0.000154859
-0.000205284
-0.000260862
-0.000321158
-0.000385727
-0.000454127
-0.000525935
-0.000600754
-0.000678195
-0.000757873
-0.000839414
-0.000922478
-0.00100678
-0.00109209
-0.00117823
-0.0012651
-0.00135267
-0.00144098
-0.00153014
-0.00162035
-0.0017119
-0.00180514
-0.0019005
-0.00199849
-0.00209969
-0.00220476
-0.00231441
-0.00242941
-0.00255062
-0.0026789
-0.00281519
-0.00296045
-0.00311568
-0.00328192
-0.00346022
-0.00365171
-0.00385752
-0.00407887
-0.00431705
-0.00457345
-0.00484956
-0.00514704
-0.00546766
-0.00581339
-0.00618634
-0.00658879
-0.00702316
-0.00749195
-0.00799774
-0.00854307
-0.00913035
-0.00976176
-0.0104391
-0.0111636
-0.0119358
-0.0127553
-0.0136205
-0.0145286
-0.0154752
-0.0164543
-0.0174581
-0.018477
-0.0194994
-0.020512
-0.0214998
-0.0224462
-0.0233332
-0.024142
-0.0248529
-0.0254456
-0.0259001
-0.0261964
-0.0263155
-0.0262392
-0.0259507
-0.0254349
-0.0246792
-0.0236728
-0.0224083
-0.020881
-0.0190898
-0.0170373
-0.01473
-0.0121791
-0.00940002
-0.00641347
-0.00324499
7.44734e-05
0.00350923
0.00701959
0.0105608
0.0140841
0.0175388
0.0208731
0.0240354
0.0269767
0.0296524
0.0320244
0.0340637
0.0357515
0.0370814
0.0380596
0.0387046
0.0390468
0.0391258
0.0389883
0.0386843
0.0382643
0.0377759
0.037261
0.0367542
0.0362816
0.0358612
0.0355035
0.0352132
0.0349912
0.0348371
0.0347498
0.0347391
0.0347961
-0.000108291
-7.66995e-05
-4.78315e-05
-2.3736e-05
-3.60298e-06
1.18604e-05
2.21735e-05
2.69249e-05
2.57609e-05
1.83923e-05
4.61192e-06
-1.56869e-05
-4.24993e-05
-7.57089e-05
-0.000115097
-0.000160359
-0.000211126
-0.000266981
-0.000327481
-0.000392168
-0.000460593
-0.000532329
-0.000606972
-0.000684132
-0.000763419
-0.000844456
-0.0009269
-0.00101046
-0.00109491
-0.00118006
-0.00126582
-0.00135214
-0.00143906
-0.0015267
-0.00161524
-0.00170496
-0.00179622
-0.00188943
-0.00198511
-0.00208381
-0.0021862
-0.00229297
-0.00240489
-0.00252279
-0.00264755
-0.00278008
-0.00292135
-0.00307234
-0.00323409
-0.00340768
-0.00359422
-0.00379489
-0.00401094
-0.00424374
-0.00449475
-0.0047656
-0.00505807
-0.00537415
-0.00571602
-0.00608609
-0.00648694
-0.00692136
-0.00739228
-0.00790269
-0.0084556
-0.0090539
-0.00970021
-0.0103968
-0.0111452
-0.0119462
-0.0127998
-0.0137043
-0.0146569
-0.015653
-0.0166863
-0.0177484
-0.0188291
-0.0199163
-0.0209958
-0.0220519
-0.0230671
-0.0240229
-0.0248996
-0.025677
-0.0263344
-0.0268514
-0.0272079
-0.0273846
-0.0273632
-0.0271271
-0.0266612
-0.0259528
-0.0249914
-0.0237693
-0.0222819
-0.0205279
-0.0185095
-0.0162329
-0.0137084
-0.010951
-0.00798035
-0.00482105
-0.00150291
0.00193929
0.00546677
0.00903586
0.0125986
0.0161043
0.0195011
0.022737
0.0257619
0.0285294
0.0309995
0.0331403
0.0349304
0.0363604
0.0374335
0.038166
0.038586
0.0387321
0.0386503
0.038391
0.0380054
0.0375423
0.0370452
0.0365501
0.0360847
0.0356679
0.0353111
0.0350194
0.034794
0.0346344
0.0345392
0.0345174
0.0345597
-0.000114803
-8.15149e-05
-5.13132e-05
-2.63222e-05
-5.57931e-06
1.02426e-05
2.06992e-05
2.54107e-05
2.40566e-05
1.63791e-05
2.20278e-06
-1.85512e-05
-4.58522e-05
-7.95611e-05
-0.000119439
-0.000165162
-0.000216345
-0.000272557
-0.000333339
-0.000398223
-0.00046675
-0.000538485
-0.000613017
-0.000689954
-0.0007689
-0.000849475
-0.00093133
-0.00101417
-0.00109776
-0.00118193
-0.00126656
-0.0013516
-0.00143709
-0.00152314
-0.00160995
-0.00169777
-0.00178696
-0.00187793
-0.00197117
-0.00206727
-0.00216685
-0.00227061
-0.00237932
-0.00249381
-0.00261492
-0.00274359
-0.00288077
-0.00302746
-0.00318469
-0.00335356
-0.00353521
-0.00373085
-0.00394182
-0.00416954
-0.0044156
-0.00468178
-0.00497004
-0.00528261
-0.00562194
-0.00599075
-0.00639203
-0.00682895
-0.00730491
-0.00782339
-0.00838788
-0.00900176
-0.00966813
-0.0103896
-0.0111682
-0.0120049
-0.0128997
-0.013851
-0.0148558
-0.0159091
-0.0170041
-0.0181319
-0.0192815
-0.0204399
-0.0215922
-0.0227217
-0.0238103
-0.0248387
-0.0257864
-0.0266328
-0.0273569
-0.0279378
-0.0283555
-0.0285905
-0.0286247
-0.0284414
-0.0280259
-0.0273655
-0.0264497
-0.025271
-0.0238246
-0.0221091
-0.0201263
-0.017882
-0.0153859
-0.0126521
-0.00969932
-0.00655104
-0.0032358
0.000212728
0.00375673
0.00735379
0.0109569
0.0145159
0.0179788
0.0212933
0.0244081
0.0272754
0.0298528
0.0321059
0.03401
0.0355524
0.0367331
0.0375654
0.0380752
0.0382992
0.0382825
0.0380757
0.0377305
0.037297
0.0368204
0.0363383
0.0358801
0.0354662
0.0351088
0.034814
0.0345833
0.0344164
0.0343118
0.0342771
0.0343036
-0.000120129
-8.52602e-05
-5.37995e-05
-2.79434e-05
-6.60098e-06
9.58206e-06
2.01877e-05
2.48642e-05
2.33172e-05
1.53191e-05
7.23115e-07
-2.0521e-05
-4.83569e-05
-8.26209e-05
-0.000123052
-0.000169307
-0.00022098
-0.000277625
-0.000338766
-0.000403923
-0.000472625
-0.000544427
-0.000618913
-0.000695682
-0.000774336
-0.000854487
-0.000935783
-0.00101793
-0.00110067
-0.00118385
-0.00126732
-0.00135106
-0.00143509
-0.00151951
-0.00160452
-0.00169036
-0.0017774
-0.00186603
-0.00195676
-0.00205014
-0.00214681
-0.00224746
-0.00235286
-0.00246381
-0.0025812
-0.00270593
-0.00283896
-0.00298131
-0.00313402
-0.00329822
-0.00347508
-0.00366589
-0.00387205
-0.0040951
-0.00433677
-0.00459901
-0.00488403
-0.0051943
-0.00553263
-0.00590209
-0.00630609
-0.0067483
-0.00723257
-0.00776293
-0.00834339
-0.00897784
-0.00966983
-0.0104224
-0.0112378
-0.0121172
-0.0130605
-0.0140661
-0.0151307
-0.0162487
-0.0174127
-0.0186131
-0.0198379
-0.0210734
-0.0223036
-0.023511
-0.0246766
-0.0257804
-0.0268014
-0.0277186
-0.0285105
-0.0291562
-0.0296356
-0.0299293
-0.0300193
-0.0298892
-0.0295245
-0.0289125
-0.0280431
-0.0269088
-0.0255048
-0.0238293
-0.0218841
-0.0196743
-0.0172088
-0.0145011
-0.0115686
-0.00843381
-0.00512378
-0.00167084
0.00188828
0.00551257
0.0091562
0.0127696
0.0163012
0.0196983
0.0229087
0.0258831
0.0285768
0.0309524
0.0329821
0.0346495
0.0359509
0.0368962
0.0375083
0.0378218
0.0378807
0.037735
0.0374372
0.0370386
0.0365858
0.0361186
0.0356681
0.0352565
0.0348974
0.0345978
0.03436
0.0341838
0.0340683
0.0340193
0.0340289
-0.00012419
-8.78576e-05
-5.52175e-05
-2.85388e-05
-6.62013e-06
9.911e-06
2.0658e-05
2.52907e-05
2.35376e-05
1.5198e-05
1.51985e-07
-2.16224e-05
-5.00425e-05
-8.49193e-05
-0.000125968
-0.000172824
-0.000225061
-0.000282213
-0.000343789
-0.000409292
-0.00047824
-0.000550176
-0.000624676
-0.000701331
-0.000779739
-0.000859505
-0.000940272
-0.00102173
-0.00110365
-0.00118582
-0.00126814
-0.00135055
-0.00143308
-0.00151583
-0.00159898
-0.00168279
-0.0017676
-0.00185382
-0.00194194
-0.00203251
-0.00212618
-0.00222363
-0.00232562
-0.00243297
-0.00254656
-0.00266729
-0.00279615
-0.00293416
-0.0030824
-0.00324202
-0.00341426
-0.0036005
-0.00380221
-0.00402109
-0.00425904
-0.00451824
-0.00480114
-0.00511056
-0.00544965
-0.00582193
-0.00623127
-0.00668184
-0.00717806
-0.0077245
-0.0083257
-0.00898606
-0.00970957
-0.0104996
-0.0113586
-0.0122879
-0.0132872
-0.0143546
-0.0154863
-0.0166762
-0.0179161
-0.0191953
-0.0205011
-0.0218186
-0.0231309
-0.0244197
-0.0256651
-0.0268464
-0.0279423
-0.0289312
-0.0297915
-0.0305023
-0.0310434
-0.0313959
-0.0315418
-0.031465
-0.0311514
-0.0305885
-0.0297663
-0.0286774
-0.0273172
-0.0256836
-0.0237781
-0.0216051
-0.019173
-0.0164942
-0.0135851
-0.0104667
-0.00716486
-0.0037102
-0.00013812
0.00351181
0.00719509
0.0108632
0.0144649
0.0179475
0.0212583
0.0243461
0.0271642
0.0296724
0.0318391
0.033644
0.0350794
0.0361512
0.036879
0.0372947
0.0374404
0.0373656
0.0371231
0.0367651
0.0363403
0.0358904
0.0354486
0.035039
0.0346772
0.0343713
0.0341246
0.0339373
0.0338094
0.0337447
0.0337367
-0.00012692
-8.92372e-05
-5.55016e-05
-2.80526e-05
-5.59274e-06
1.12608e-05
2.21294e-05
2.6698e-05
2.47164e-05
1.60059e-05
4.73671e-07
-2.18758e-05
-5.09324e-05
-8.64813e-05
-0.000128213
-0.000175739
-0.000228612
-0.000286344
-0.000348427
-0.000414349
-0.00048361
-0.000555744
-0.000630316
-0.000706911
-0.000785118
-0.000864535
-0.000944801
-0.0010256
-0.00110669
-0.00118787
-0.00126902
-0.00135008
-0.00143108
-0.00151212
-0.00159337
-0.00167508
-0.00175761
-0.00184134
-0.00192678
-0.00201448
-0.00210506
-0.00219924
-0.00229776
-0.00240145
-0.00251118
-0.0026279
-0.00275259
-0.0028863
-0.00303015
-0.00318534
-0.00335321
-0.00353519
-0.00373292
-0.00394825
-0.00418329
-0.00444048
-0.00472258
-0.00503277
-0.00537463
-0.00575215
-0.00616973
-0.00663209
-0.00714422
-0.00771126
-0.00833831
-0.00903024
-0.00979145
-0.0106256
-0.0115352
-0.0125215
-0.0135841
-0.0147206
-0.0159265
-0.017195
-0.0185169
-0.0198806
-0.0212722
-0.0226759
-0.0240738
-0.0254466
-0.0267737
-0.0280339
-0.0292054
-0.0302662
-0.0311949
-0.0319706
-0.0325733
-0.0329842
-0.0331858
-0.0331625
-0.0329001
-0.0323868
-0.0316126
-0.0305705
-0.0292555
-0.0276659
-0.0258023
-0.0236688
-0.021273
-0.0186263
-0.0157439
-0.0126455
-0.00935533
-0.0059023
-0.00232021
0.00135285
0.00507402
0.00879605
0.0124683
0.0160384
0.0194528
0.0226595
0.0256093
0.0282591
0.0305737
0.0325285
0.0341112
0.0353235
0.0361808
0.0367119
0.0369568
0.0369635
0.036785
0.0364745
0.0360825
0.0356528
0.0352211
0.0348138
0.0344485
0.0341349
0.0338776
0.0336775
0.0335358
0.0334542
0.0334279
-0.000128263
-8.934e-05
-5.45946e-05
-2.64329e-05
-3.47671e-06
1.36641e-05
2.4623e-05
2.90979e-05
2.68555e-05
1.77378e-05
1.67701e-06
-2.12963e-05
-5.10445e-05
-8.73264e-05
-0.000129806
-0.000178071
-0.00023165
-0.000290035
-0.000352697
-0.000419105
-0.000488746
-0.00056114
-0.000635841
-0.000712426