/*--------------------------------*- C++ -*----------------------------------*\
  =========                 |
  \\      /  F ield         | OpenFOAM: The Open Source CFD Toolbox
   \\    /   O peration     | Website:  https://openfoam.org
    \\  /    A nd           | Version:  12
     \\/     M anipulation  |
\*---------------------------------------------------------------------------*/
FoamFile
{
    format      ascii;
    class       surfaceScalarField;
    location    "2";
    object      phi;
}
// * * * * * * * * * * * * * * * * * * * * * * * * * * * * * * * * * * * * * //

dimensions      [0 3 -1 0 0 0 0];

internalField   nonuniform List<scalar> 
36180
(
-6.49227e-11
6.43617e-11
-1.04944e-10
4.00244e-11
-6.35579e-11
-4.13888e-11
6.99765e-11
-1.33541e-10
2.89975e-10
-2.20005e-10
5.8647e-10
-2.96498e-10
9.48342e-10
-3.61873e-10
1.36434e-09
-4.16001e-10
1.82354e-09
-4.59197e-10
2.3155e-09
-4.91962e-10
2.83043e-09
-5.14925e-10
3.3592e-09
-5.28774e-10
3.89345e-09
-5.34259e-10
4.42559e-09
-5.32151e-10
4.94885e-09
-5.23262e-10
5.45724e-09
-5.084e-10
5.94562e-09
-4.88396e-10
6.40967e-09
-4.64063e-10
6.84588e-09
-4.36214e-10
7.2515e-09
-4.05628e-10
7.62455e-09
-3.73057e-10
7.96373e-09
-3.39192e-10
8.26841e-09
-3.04682e-10
8.53855e-09
-2.70145e-10
8.77473e-09
-2.36178e-10
8.97804e-09
-2.03313e-10
9.15006e-09
-1.72017e-10
9.29273e-09
-1.42678e-10
9.40832e-09
-1.15599e-10
9.49935e-09
-9.10279e-11
9.56852e-09
-6.91766e-11
9.61872e-09
-5.02021e-11
9.65291e-09
-3.41972e-11
9.67409e-09
-2.11841e-11
9.68516e-09
-1.10749e-11
9.689e-09
-3.83695e-12
9.68811e-09
8.81952e-13
9.68476e-09
3.35178e-12
9.68079e-09
3.96508e-12
9.67754e-09
3.24818e-12
9.67573e-09
1.81271e-12
9.67536e-09
3.66445e-13
9.67566e-09
-2.97881e-13
9.67494e-09
7.19263e-13
9.6706e-09
4.34183e-12
9.65904e-09
1.1568e-11
9.63561e-09
2.34295e-11
9.59465e-09
4.09614e-11
9.52945e-09
6.51926e-11
9.43233e-09
9.71288e-11
9.29459e-09
1.37739e-10
9.10664e-09
1.87949e-10
8.858e-09
2.48636e-10
8.53737e-09
3.20639e-10
8.1326e-09
4.04762e-10
7.63078e-09
5.01823e-10
7.0182e-09
6.12581e-10
6.28043e-09
7.37773e-10
5.40212e-09
8.78313e-10
4.36726e-09
1.03485e-09
3.15906e-09
1.2082e-09
1.75991e-09
1.39915e-09
1.5153e-10
1.60838e-09
-1.6849e-09
1.83643e-09
-3.76866e-09
2.08376e-09
-6.11923e-09
2.35057e-09
-8.7559e-09
2.63667e-09
-1.16976e-08
2.94166e-09
-1.49624e-08
3.2648e-09
-1.85672e-08
3.60489e-09
-2.25275e-08
3.96028e-09
-2.68564e-08
4.32883e-09
-3.15642e-08
4.70788e-09
-3.66585e-08
5.09427e-09
-4.21428e-08
5.48429e-09
-4.80166e-08
5.87377e-09
-5.42746e-08
6.25803e-09
-6.09066e-08
6.63196e-09
-6.78966e-08
6.99006e-09
-7.52231e-08
7.3265e-09
-8.28583e-08
7.63519e-09
-9.07681e-08
7.90983e-09
-9.89121e-08
8.14399e-09
-1.07243e-07
8.3312e-09
-1.15708e-07
8.465e-09
-1.24247e-07
8.53898e-09
-1.32794e-07
8.54689e-09
-1.41277e-07
8.48268e-09
-1.49617e-07
8.34056e-09
-1.57732e-07
8.11508e-09
-1.65534e-07
7.80122e-09
-1.72928e-07
7.39447e-09
-1.79819e-07
6.891e-09
-1.86107e-07
6.28778e-09
-1.9169e-07
5.58273e-09
-1.96464e-07
4.77396e-09
-2.00318e-07
3.85387e-09
-2.03152e-07
2.83454e-09
-2.04899e-07
1.74666e-09
-2.05451e-07
5.52014e-10
-2.04719e-07
-7.31879e-10
-2.02648e-07
-2.07037e-09
-1.99187e-07
-3.46161e-09
-1.94306e-07
-4.88067e-09
-1.88004e-07
-6.3026e-09
-1.80304e-07
-7.69976e-09
-1.71263e-07
-9.04083e-09
-1.60971e-07
-1.02917e-08
-1.49555e-07
-1.14167e-08
-1.37174e-07
-1.23803e-08
-1.24026e-07
-1.31486e-08
-1.10334e-07
-1.36918e-08
-9.63482e-08
-1.39858e-08
-8.23337e-08
-1.40145e-08
-6.8562e-08
-1.37717e-08
-5.53e-08
-1.32621e-08
-4.2798e-08
-1.25019e-08
-3.12794e-08
-1.15186e-08
-2.09299e-08
-1.03495e-08
-1.18903e-08
-9.03965e-09
-4.25136e-09
-7.63889e-09
1.94744e-09
-6.19879e-09
6.71655e-09
-4.76911e-09
1.0111e-08
-3.39445e-09
1.22241e-08
-2.1131e-09
1.31787e-08
-9.54614e-10
1.31184e-08
6.03309e-11
1.22022e-08
9.16171e-10
1.06007e-08
1.6015e-09
8.49725e-09
2.10347e-09
6.10169e-09
2.39556e-09
3.672e-09
2.42969e-09
1.54497e-09
2.12703e-09
1.85807e-10
1.35917e-09
1.85807e-10
-9.66653e-11
1.61033e-10
-1.16192e-10
5.95542e-11
6.55967e-11
-2.23183e-10
4.81329e-10
-5.49283e-10
1.12495e-09
-8.63634e-10
1.97501e-09
-1.14657e-09
3.00426e-09
-1.39112e-09
4.18353e-09
-1.59527e-09
5.48359e-09
-1.75926e-09
6.87608e-09
-1.88445e-09
8.33401e-09
-1.97286e-09
9.83212e-09
-2.02688e-09
1.13471e-08
-2.04922e-09
1.28576e-08
-2.04269e-09
1.43446e-08
-2.01028e-09
1.57912e-08
-1.95503e-09
1.71828e-08
-1.88002e-09
1.85071e-08
-1.78832e-09
1.97538e-08
-1.68296e-09
2.0915e-08
-1.56689e-09
2.19849e-08
-1.44292e-09
2.29594e-08
-1.31372e-09
2.38365e-08
-1.18175e-09
2.46157e-08
-1.04935e-09
2.52982e-08
-9.18728e-10
2.58868e-08
-7.91892e-10
2.63854e-08
-6.70581e-10
2.67989e-08
-5.56249e-10
2.71334e-08
-4.50078e-10
2.73954e-08
-3.53046e-10
2.75922e-08
-2.65944e-10
2.77313e-08
-1.89344e-10
2.78207e-08
-1.23567e-10
2.78681e-08
-6.86641e-11
2.78814e-08
-2.43088e-11
2.78677e-08
9.81953e-12
2.78337e-08
3.4949e-11
2.77848e-08
5.22014e-11
2.77256e-08
6.31679e-11
2.7659e-08
6.98905e-11
2.7586e-08
7.47685e-11
2.75058e-08
8.05635e-11
2.74151e-08
9.03816e-11
2.73082e-08
1.07646e-10
2.71765e-08
1.3602e-10
2.70087e-08
1.7937e-10
2.67905e-08
2.41687e-10
2.65044e-08
3.2701e-10
2.61302e-08
4.39357e-10
2.56447e-08
5.82663e-10
2.50217e-08
7.60731e-10
2.42325e-08
9.77201e-10
2.32456e-08
1.23554e-09
2.20272e-08
1.53904e-09
2.0541e-08
1.89088e-09
1.87487e-08
2.29419e-09
1.66093e-08
2.75192e-09
1.40802e-08
3.2669e-09
1.11163e-08
3.84225e-09
7.67065e-09
4.48048e-09
3.69442e-09
5.18444e-09
-8.62837e-10
5.9564e-09
-6.05347e-09
6.79901e-09
-1.1931e-08
7.71395e-09
-1.85487e-08
8.70151e-09
-2.59595e-08
9.7613e-09
-3.42151e-08
1.08923e-08
-4.33654e-08
1.20919e-08
-5.34567e-08
1.33561e-08
-6.45309e-08
1.46791e-08
-7.66239e-08
1.60532e-08
-8.97641e-08
1.74691e-08
-1.03971e-07
1.89151e-08
-1.19255e-07
2.03781e-08
-1.35614e-07
2.18427e-08
-1.53032e-07
2.32919e-08
-1.71481e-07
2.47069e-08
-1.90916e-07
2.60676e-08
-2.11279e-07
2.73526e-08
-2.32492e-07
2.85394e-08
-2.54462e-07
2.96051e-08
-2.77078e-07
3.05261e-08
-3.00213e-07
3.12788e-08
-3.23721e-07
3.18398e-08
-3.47442e-07
3.2186e-08
-3.71199e-07
3.22952e-08
-3.94798e-07
3.21459e-08
-4.18033e-07
3.17178e-08
-4.40684e-07
3.0992e-08
-4.6252e-07
2.99512e-08
-4.83299e-07
2.85799e-08
-5.0277e-07
2.68651e-08
-5.20675e-07
2.47963e-08
-5.36753e-07
2.23662e-08
-5.50742e-07
1.95712e-08
-5.62378e-07
1.64105e-08
-5.71404e-07
1.28799e-08
-5.77545e-07
8.97558e-09
-5.80621e-07
4.82247e-09
-5.80418e-07
3.48763e-10
-5.7676e-07
-4.39003e-09
-5.69481e-07
-9.3494e-09
-5.58493e-07
-1.44492e-08
-5.43758e-07
-1.96161e-08
-5.25299e-07
-2.47617e-08
-5.0321e-07
-2.97883e-08
-4.77664e-07
-3.45867e-08
-4.48917e-07
-3.90392e-08
-4.17309e-07
-4.30241e-08
-3.83269e-07
-4.64204e-08
-3.47304e-07
-4.91136e-08
-3.09993e-07
-5.10027e-08
-2.71972e-07
-5.20065e-08
-2.33916e-07
-5.2071e-08
-1.96513e-07
-5.11746e-08
-1.60443e-07
-4.93324e-08
-1.26346e-07
-4.65987e-08
-9.47991e-08
-4.30654e-08
-6.629e-08
-3.88587e-08
-4.11973e-08
-3.41323e-08
-1.9778e-08
-2.90582e-08
-2.161e-09
-2.38158e-08
1.16516e-08
-1.85817e-08
2.17742e-08
-1.35171e-08
2.84244e-08
-8.76328e-09
3.19028e-08
-4.43303e-09
3.25766e-08
-6.13463e-10
3.08629e-08
2.62992e-09
2.72206e-08
5.24374e-09
2.21545e-08
7.16963e-09
1.62431e-08
8.30697e-09
1.01741e-08
8.49866e-09
4.79499e-09
7.50611e-09
1.12885e-09
5.02531e-09
1.31466e-09
-7.01838e-11
2.31205e-10
5.6438e-12
-1.6279e-11
3.77144e-10
-5.94692e-10
1.09238e-09
-1.26453e-09
2.14959e-09
-1.92085e-09
3.52192e-09
-2.51891e-09
5.17103e-09
-3.04023e-09
7.05388e-09
-3.47812e-09
9.12618e-09
-3.83156e-09
1.13443e-08
-4.10257e-09
1.36663e-08
-4.2949e-09
1.60528e-08
-4.41334e-09
1.8467e-08
-4.46344e-09
2.08755e-08
-4.45117e-09
2.32481e-08
-4.38286e-09
2.5558e-08
-4.26497e-09
2.77821e-08
-4.10412e-09
2.99006e-08
-3.90687e-09
3.18974e-08
-3.67972e-09
3.37594e-08
-3.42896e-09
3.54771e-08
-3.16063e-09
3.70439e-08
-2.88046e-09
3.84559e-08
-2.59379e-09
3.97122e-08
-2.30562e-09
4.0814e-08
-2.02061e-09
4.17651e-08
-1.74298e-09
4.2571e-08
-1.47645e-09
4.32389e-08
-1.22419e-09
4.37777e-08
-9.88819e-10
4.41971e-08
-7.72505e-10
4.45081e-08
-5.76951e-10
4.47221e-08
-4.03352e-10
4.48509e-08
-2.52346e-10
4.49062e-08
-1.23962e-10
4.48994e-08
-1.75496e-11
4.48413e-08
6.7972e-11
4.47412e-08
1.35073e-10
4.46071e-08
1.86302e-10
4.44449e-08
2.25301e-10
4.42582e-08
2.56575e-10
4.40476e-08
2.85422e-10
4.38102e-08
3.17945e-10
4.35396e-08
3.60995e-10
4.32251e-08
4.221e-10
4.28518e-08
5.09341e-10
4.24e-08
6.31233e-10
4.18451e-08
7.96567e-10
4.11578e-08
1.01425e-09
4.0304e-08
1.29317e-09
3.92447e-08
1.64202e-09
3.79361e-08
2.06925e-09
3.63304e-08
2.58293e-09
3.43752e-08
3.19076e-09
3.20142e-08
3.90007e-09
2.91872e-08
4.71788e-09
2.58304e-08
5.65101e-09
2.18764e-08
6.70583e-09
1.72546e-08
7.88872e-09
1.18917e-08
9.2052e-09
5.71109e-09
1.06611e-08
-1.36706e-09
1.22626e-08
-9.42519e-09
1.40145e-08
-1.85462e-08
1.59201e-08
-2.88133e-08
1.7981e-08
-4.03097e-08
2.01979e-08
-5.31172e-08
2.25688e-08
-6.73142e-08
2.50893e-08
-8.29742e-08
2.7752e-08
-1.00164e-07
3.05459e-08
-1.18941e-07
3.34561e-08
-1.39352e-07
3.6464e-08
-1.61429e-07
3.95466e-08
-1.85191e-07
4.26767e-08
-2.10636e-07
4.58231e-08
-2.37744e-07
4.89508e-08
-2.66473e-07
5.20207e-08
-2.96757e-07
5.49909e-08
-3.28506e-07
5.78165e-08
-3.61603e-07
6.04505e-08
-3.95908e-07
6.28443e-08
-4.31252e-07
6.49485e-08
-4.67439e-07
6.67133e-08
-5.0425e-07
6.80895e-08
-5.41439e-07
6.90289e-08
-5.78738e-07
6.94849e-08
-6.15856e-07
6.94131e-08
-6.52481e-07
6.87716e-08
-6.88285e-07
6.75217e-08
-7.22922e-07
6.56283e-08
-7.56031e-07
6.30602e-08
-7.87241e-07
5.97908e-08
-8.16175e-07
5.57987e-08
-8.42447e-07
5.10686e-08
-8.65673e-07
4.55921e-08
-8.85471e-07
3.93687e-08
-9.01467e-07
3.24063e-08
-9.13307e-07
2.47197e-08
-9.20597e-07
1.6266e-08
-9.23102e-07
7.32742e-09
-9.20556e-07
-2.19688e-09
-9.12691e-07
-1.22553e-08
-8.99345e-07
-2.26951e-08
-8.80421e-07
-3.33735e-08
-8.55899e-07
-4.41378e-08
-8.25855e-07
-5.48064e-08
-7.90462e-07
-6.51811e-08
-7.50005e-07
-7.50433e-08
-7.04885e-07
-8.4159e-08
-6.55622e-07
-9.22874e-08
-6.02853e-07
-9.91899e-08
-5.47324e-07
-1.04642e-07
-4.89882e-07
-1.08445e-07
-4.31449e-07
-1.10439e-07
-3.73002e-07
-1.10518e-07
-3.1554e-07
-1.08637e-07
-2.60049e-07
-1.04823e-07
-2.07466e-07
-9.91816e-08
-1.58642e-07
-9.18899e-08
-1.14305e-07
-8.31954e-08
-7.50357e-08
-7.34017e-08
-4.12422e-08
-6.28517e-08
-1.31506e-08
-5.19074e-08
9.19624e-09
-4.09286e-08
2.59297e-08
-3.02505e-08
3.7338e-08
-2.01716e-08
4.38427e-08
-1.09377e-08
4.59743e-08
-2.74509e-09
4.43536e-08
4.2506e-09
3.96766e-08
9.92073e-09
3.27196e-08
1.41267e-08
2.43687e-08
1.66578e-08
1.56543e-08
1.7213e-08
7.79294e-09
1.53675e-08
2.15962e-09
1.06586e-08
3.47428e-09
-1.58187e-11
2.47019e-10
1.99193e-10
-2.31296e-10
7.94945e-10
-1.19046e-09
1.8256e-09
-2.29519e-09
3.29171e-09
-3.38696e-09
5.16305e-09
-4.39026e-09
7.39342e-09
-5.2706e-09
9.9291e-09
-6.01379e-09
1.27136e-08
-6.6161e-09
1.56907e-08
-7.07962e-09
1.88056e-08
-7.40984e-09
2.20067e-08
-7.61436e-09
2.52454e-08
-7.70223e-09
2.84777e-08
-7.68341e-09
3.16633e-08
-7.56849e-09
3.47667e-08
-7.36845e-09
3.77571e-08
-7.09445e-09
4.06078e-08
-6.75762e-09
4.3297e-08
-6.36898e-09
4.58073e-08
-5.93922e-09
4.81253e-08
-5.4786e-09
5.02416e-08
-4.99685e-09
5.21509e-08
-4.5031e-09
5.38511e-08
-4.00583e-09
5.53434e-08
-3.51291e-09
5.66319e-08
-3.03144e-09
5.77232e-08
-2.56772e-09
5.86262e-08
-2.12718e-09
5.93517e-08
-1.71439e-09
5.99123e-08
-1.33308e-09
6.03215e-08
-9.86143e-10
6.05937e-08
-6.75558e-10
6.07437e-08
-4.02332e-10
6.07861e-08
-1.66417e-10
6.07352e-08
3.33339e-11
6.0604e-08
1.99197e-10
6.04039e-08
3.35169e-10
6.01443e-08
4.45953e-10
5.98315e-08
5.38006e-10
5.94689e-08
6.192e-10
5.90555e-08
6.98818e-10
5.85859e-08
7.87532e-10
5.80496e-08
8.97314e-10
5.74304e-08
1.0413e-09
5.67062e-08
1.23359e-09
5.58484e-08
1.48904e-09
5.48219e-08
1.82301e-09
5.35851e-08
2.25105e-09
5.20896e-08
2.7887e-09
5.02804e-08
3.45121e-09
4.80963e-08
4.25335e-09
4.54699e-08
5.20932e-09
4.2328e-08
6.33264e-09
3.8592e-08
7.63614e-09
3.41778e-08
9.13204e-09
2.89966e-08
1.08322e-08
2.29553e-08
1.27471e-08
1.59565e-08
1.48875e-08
7.89843e-09
1.72633e-08
-1.32531e-09
1.98848e-08
-1.18227e-08
2.27599e-08
-2.37032e-08
2.58951e-08
-3.7078e-08
2.92948e-08
-5.20577e-08
3.29608e-08
-6.87512e-08
3.68914e-08
-8.72634e-08
4.1081e-08
-1.07693e-07
4.55189e-08
-1.3013e-07
5.0189e-08
-1.54653e-07
5.50689e-08
-1.81326e-07
6.01293e-08
-2.10196e-07
6.53341e-08
-2.4129e-07
7.064e-08
-2.7461e-07
7.59965e-08
-3.10133e-07
8.13464e-08
-3.47808e-07
8.66258e-08
-3.87553e-07
9.17653e-08
-4.29252e-07
9.66902e-08
-4.72758e-07
1.01322e-07
-5.17887e-07
1.0558e-07
-5.64423e-07
1.0938e-07
-6.12114e-07
1.1264e-07
-6.60676e-07
1.15276e-07
-7.09794e-07
1.17207e-07
-7.59122e-07
1.18357e-07
-8.08288e-07
1.18651e-07
-8.56894e-07
1.18019e-07
-9.04522e-07
1.16399e-07
-9.50733e-07
1.13733e-07
-9.95076e-07
1.09971e-07
-1.03708e-06
1.05069e-07
-1.07629e-06
9.89939e-08
-1.11221e-06
9.17197e-08
-1.14437e-06
8.3232e-08
-1.17231e-06
7.35276e-08
-1.19556e-06
6.26165e-08
-1.21367e-06
5.05232e-08
-1.22624e-06
3.72835e-08
-1.23289e-06
2.2915e-08
-1.23325e-06
7.69199e-09
-1.22705e-06
-8.39627e-09
-1.21405e-06
-2.52545e-08
-1.19409e-06
-4.26514e-08
-1.16711e-06
-6.03627e-08
-1.13311e-06
-7.81358e-08
-1.09224e-06
-9.56773e-08
-1.04475e-06
-1.12669e-07
-9.91028e-07
-1.28764e-07
-9.31594e-07
-1.43593e-07
-8.67103e-07
-1.56778e-07
-7.9835e-07
-1.67943e-07
-7.26256e-07
-1.76737e-07
-6.51853e-07
-1.82848e-07
-5.76268e-07
-1.86024e-07
-5.00692e-07
-1.86095e-07
-4.26342e-07
-1.82986e-07
-3.54429e-07
-1.76737e-07
-2.86108e-07
-1.67502e-07
-2.2244e-07
-1.55558e-07
-1.64348e-07
-1.41288e-07
-1.1258e-07
-1.25169e-07
-6.76862e-08
-1.07746e-07
-2.9994e-08
-8.95996e-08
3.91167e-10
-7.13138e-08
2.35846e-08
-5.34439e-08
3.99002e-08
-3.64872e-08
4.98318e-08
-2.08694e-08
5.40241e-08
-6.93739e-09
5.3249e-08
5.02575e-09
4.83904e-08
1.47793e-08
4.04486e-08
2.20684e-08
3.05545e-08
2.6552e-08
2.00049e-08
2.77627e-08
1.02874e-08
2.5085e-08
3.04934e-09
1.78967e-08
6.52362e-09
5.27514e-11
1.94261e-10
4.3397e-10
-6.12523e-10
1.27688e-09
-2.03337e-09
2.63366e-09
-3.65199e-09
4.50393e-09
-5.25724e-09
6.85428e-09
-6.7406e-09
9.6324e-09
-8.04873e-09
1.27762e-08
-9.15762e-09
1.62195e-08
-1.00594e-08
1.98954e-08
-1.07555e-08
2.37386e-08
-1.1253e-08
2.76865e-08
-1.15624e-08
3.1681e-08
-1.16967e-08
3.56681e-08
-1.16705e-08
3.95991e-08
-1.14995e-08
4.34306e-08
-1.11999e-08
4.71246e-08
-1.07884e-08
5.06484e-08
-1.02815e-08
5.3975e-08
-9.69563e-09
5.70826e-08
-9.0468e-09
5.99543e-08
-8.35035e-09
6.25783e-08
-7.62082e-09
6.49471e-08
-6.8719e-09
6.70576e-08
-6.1163e-09
6.89104e-08
-5.36571e-09
7.05097e-08
-4.63074e-09
7.18627e-08
-3.92079e-09
7.29796e-08
-3.24403e-09
7.38725e-08
-2.60735e-09
7.45558e-08
-2.01636e-09
7.5045e-08
-1.47536e-09
7.53567e-08
-9.87245e-10
7.55077e-08
-5.53407e-10
7.5515e-08
-1.73634e-10
7.53943e-08
1.53968e-10
7.51604e-08
4.33155e-10
7.48256e-08
6.69881e-10
7.43999e-08
8.71713e-10
7.38893e-08
1.04862e-09
7.32957e-08
1.21275e-09
7.26161e-08
1.37841e-09
7.18416e-08
1.56203e-09
7.09569e-08
1.78203e-09
6.99396e-08
2.05858e-09
6.87599e-08
2.41336e-09
6.73797e-08
2.86918e-09
6.57531e-08
3.44962e-09
6.38255e-08
4.17863e-09
6.15341e-08
5.08009e-09
5.88078e-08
6.1775e-09
5.55676e-08
7.49364e-09
5.17265e-08
9.05038e-09
4.71906e-08
1.08685e-08
4.18589e-08
1.29679e-08
3.56238e-08
1.53671e-08
2.83725e-08
1.80835e-08
1.99858e-08
2.11338e-08
1.03393e-08
2.45341e-08
-6.9588e-10
2.82984e-08
-1.32513e-08
3.24402e-08
-2.74616e-08
3.69702e-08
-4.34629e-08
4.18964e-08
-6.13909e-08
4.72229e-08
-8.13796e-08
5.29495e-08
-1.03558e-07
5.90702e-08
-1.2805e-07
6.55721e-08
-1.54965e-07
7.24347e-08
-1.84405e-07
7.96282e-08
-2.16449e-07
8.71132e-08
-2.51159e-07
9.48399e-08
-2.88573e-07
1.02747e-07
-3.28698e-07
1.10765e-07
-3.7151e-07
1.18809e-07
-4.16954e-07
1.2679e-07
-4.64933e-07
1.34605e-07
-5.15312e-07
1.42145e-07
-5.67917e-07
1.49295e-07
-6.2253e-07
1.55935e-07
-6.78893e-07
1.61943e-07
-7.36706e-07
1.67193e-07
-7.9563e-07
1.71564e-07
-8.55289e-07
1.74935e-07
-9.15273e-07
1.77191e-07
-9.75139e-07
1.78224e-07
-1.03442e-06
1.77931e-07
-1.09262e-06
1.76221e-07
-1.14923e-06
1.7301e-07
-1.20372e-06
1.68226e-07
-1.25556e-06
1.61809e-07
-1.3042e-06
1.53709e-07
-1.3491e-06
1.43891e-07
-1.38971e-06
1.32334e-07
-1.42551e-06
1.19032e-07
-1.45598e-06
1.03995e-07
-1.48062e-06
8.72545e-08
-1.49896e-06
6.88606e-08
-1.51056e-06
4.88854e-08
-1.51506e-06
2.74135e-08
-1.51208e-06
4.71197e-09
-1.50134e-06
-1.91298e-08
-1.48266e-06
-4.39407e-08
-1.45589e-06
-6.94136e-08
-1.42102e-06
-9.52336e-08
-1.37812e-06
-1.21039e-07
-1.32738e-06
-1.46414e-07
-1.26914e-06
-1.70913e-07
-1.20385e-06
-1.94051e-07
-1.13213e-06
-2.15315e-07
-1.05473e-06
-2.34179e-07
-9.72546e-07
-2.50125e-07
-8.86618e-07
-2.62665e-07
-7.98102e-07
-2.71363e-07
-7.08258e-07
-2.75869e-07
-6.18416e-07
-2.75937e-07
-5.29946e-07
-2.71456e-07
-4.44213e-07
-2.6247e-07
-3.62534e-07
-2.49181e-07
-2.8613e-07
-2.31962e-07
-2.1608e-07
-2.11338e-07
-1.53278e-07
-1.87971e-07
-9.84019e-08
-1.62622e-07
-5.18875e-08
-1.36114e-07
-1.39175e-08
-1.09284e-07
1.55771e-08
-8.29384e-08
3.69043e-08
-5.78145e-08
5.0589e-08
-3.4554e-08
5.73462e-08
-1.36946e-08
5.80558e-08
4.31612e-09
5.37456e-08
1.90896e-08
4.55887e-08
3.02254e-08
3.491e-08
3.72307e-08
2.32125e-08
3.94601e-08
1.21943e-08
3.61032e-08
3.74101e-09
2.635e-08
1.02646e-08
1.29809e-10
6.4445e-11
6.92647e-10
-1.17537e-09
1.79634e-09
-3.13708e-09
3.48436e-09
-5.34002e-09
5.75224e-09
-7.52513e-09
8.56274e-09
-9.5511e-09
1.18583e-08
-1.13443e-08
1.55702e-08
-1.28694e-08
1.9624e-08
-1.41132e-08
2.39442e-08
-1.50757e-08
2.84564e-08
-1.57652e-08
3.30893e-08
-1.61952e-08
3.77757e-08
-1.63831e-08
4.24536e-08
-1.63485e-08
4.70667e-08
-1.61126e-08
5.15643e-08
-1.56976e-08
5.59024e-08
-1.51265e-08
6.00428e-08
-1.44219e-08
6.39537e-08
-1.36065e-08
6.76092e-08
-1.27023e-08
7.09892e-08
-1.17303e-08
7.40791e-08
-1.07108e-08
7.68697e-08
-9.6625e-09
7.93565e-08
-8.60302e-09
8.15392e-08
-7.54847e-09
8.34219e-08
-6.51343e-09
8.5012e-08
-5.51088e-09
8.63201e-08
-4.55211e-09
8.73594e-08
-3.64666e-09
8.81453e-08
-2.80224e-09
8.86946e-08
-2.02474e-09
8.90254e-08
-1.31804e-09
8.91559e-08
-6.839e-10
8.91041e-08
-1.21834e-10
8.8887e-08
3.71052e-10
8.85199e-08
8.00289e-10
8.80155e-08
1.1743e-09
8.73831e-08
1.50412e-09
8.66277e-08
1.80395e-09
8.57494e-08
2.09111e-09
8.47418e-08
2.38595e-09
8.35921e-08
2.7118e-09
8.22793e-08
3.09479e-09
8.07744e-08
3.56352e-09
7.9039e-08
4.14873e-09
7.70254e-08
4.88274e-09
7.46761e-08
5.79899e-09
7.19233e-08
6.93143e-09
6.86894e-08
8.31395e-09
6.4887e-08
9.97991e-09
6.0419e-08
1.19617e-08
5.51791e-08
1.42903e-08
4.90524e-08
1.69952e-08
4.19159e-08
2.01044e-08
3.3639e-08
2.3644e-08
2.40841e-08
2.76384e-08
1.31071e-08
3.21108e-08
5.58898e-10
3.70823e-08
-1.37144e-08
4.25717e-08
-2.98698e-08
4.85956e-08
-4.80662e-08
5.51667e-08
-6.84627e-08
6.22928e-08
-9.12163e-08
6.99764e-08
-1.16479e-07
7.82125e-08
-1.44396e-07
8.69873e-08
-1.75101e-07
9.62769e-08
-2.08712e-07
1.06046e-07
-2.45328e-07
1.16244e-07
-2.85026e-07
1.26811e-07
-3.27852e-07
1.37666e-07
-3.73823e-07
1.48718e-07
-4.22917e-07
1.59859e-07
-4.75074e-07
1.70966e-07
-5.30189e-07
1.81905e-07
-5.88112e-07
1.92527e-07
-6.48644e-07
2.02677e-07
-7.1154e-07
2.12191e-07
-7.76505e-07
2.20901e-07
-8.43199e-07
2.28636e-07
-9.11233e-07
2.35228e-07
-9.80181e-07
2.40512e-07
-1.04958e-06
2.44329e-07
-1.11892e-06
2.46531e-07
-1.18767e-06
2.46979e-07
-1.25529e-06
2.45549e-07
-1.3212e-06
2.42127e-07
-1.38481e-06
2.3662e-07
-1.44553e-06
2.28946e-07
-1.50276e-06
2.19042e-07
-1.55591e-06
2.06862e-07
-1.6044e-06
1.92379e-07
-1.64765e-06
1.75584e-07
-1.68511e-06
1.5649e-07
-1.71625e-06
1.35133e-07
-1.74056e-06
1.11571e-07
-1.7576e-06
8.5893e-08
-1.76693e-06
5.82158e-08
-1.7682e-06
2.86885e-08
-1.76108e-06
-2.40704e-09
-1.74532e-06
-3.48873e-08
-1.72077e-06
-6.84909e-08
-1.68735e-06
-1.02834e-07
-1.64508e-06
-1.37506e-07
-1.59408e-06
-1.72036e-07
-1.53461e-06
-2.05886e-07
-1.46705e-06
-2.38478e-07
-1.39191e-06
-2.69189e-07
-1.30986e-06
-2.9736e-07
-1.22172e-06
-3.2232e-07
-1.12845e-06
-3.43401e-07
-1.03114e-06
-3.59976e-07
-9.31019e-07
-3.71481e-07
-8.29431e-07
-3.77456e-07
-7.27791e-07
-3.77576e-07
-6.27565e-07
-3.71683e-07
-5.30225e-07
-3.5981e-07
-4.37203e-07
-3.42203e-07
-3.49845e-07
-3.1932e-07
-2.69356e-07
-2.91827e-07
-1.9676e-07
-2.60567e-07
-1.32856e-07
-2.26526e-07
-7.81886e-08
-1.90781e-07
-3.30312e-08
-1.54441e-07
2.61992e-09
-1.1859e-07
2.9038e-08
-8.42326e-08
4.67466e-08
-5.22626e-08
5.64955e-08
-2.34435e-08
5.92346e-08
1.57696e-09
5.60965e-08
2.22277e-08
4.83837e-08
3.79382e-08
3.75716e-08
4.80428e-08
2.53241e-08
5.17077e-08
1.35098e-08
4.79175e-08
4.22768e-09
3.56321e-08
1.44923e-08
2.10462e-10
-1.46017e-10
9.62161e-10
-1.92708e-09
2.33281e-09
-4.50774e-09
4.35232e-09
-7.35955e-09
7.00928e-09
-1.01821e-08
1.02616e-08
-1.28034e-08
1.40467e-08
-1.51294e-08
1.82899e-08
-1.71127e-08
2.29104e-08
-1.87337e-08
2.78252e-08
-1.99905e-08
3.29524e-08
-2.08924e-08
3.8213e-08
-2.14558e-08
4.35323e-08
-2.17025e-08
4.88413e-08
-2.16575e-08
5.40768e-08
-2.13481e-08
5.91823e-08
-2.08032e-08
6.41081e-08
-2.00522e-08
6.8811e-08
-1.91249e-08
7.3255e-08
-1.80505e-08
7.74104e-08
-1.68577e-08
8.12541e-08
-1.5574e-08
8.4769e-08
-1.42257e-08
8.79438e-08
-1.28373e-08
9.07726e-08
-1.14318e-08
9.32542e-08
-1.00301e-08
9.53921e-08
-8.65126e-09
9.71934e-08
-7.3122e-09
9.86689e-08
-6.02761e-09
9.98322e-08
-4.80994e-09
1.00699e-07
-3.66922e-09
1.01287e-07
-2.613e-09
1.01616e-07
-1.64619e-09
1.01703e-07
-7.70889e-10
1.01567e-07
1.38268e-11
1.01226e-07
7.12099e-10
1.00694e-07
1.33158e-09
9.99851e-08
1.88366e-09
9.91058e-08
2.38341e-09
9.80597e-08
2.85005e-09
9.6844e-08
3.30689e-09
9.54486e-08
3.78132e-09
9.38557e-08
4.30469e-09
9.20384e-08
4.91208e-09
8.996e-08
5.64188e-09
8.75735e-08
6.53528e-09
8.48206e-08
7.63563e-09
8.16318e-08
8.98778e-09
7.7926e-08
1.06372e-08
7.36104e-08
1.26295e-08
6.8581e-08
1.50093e-08
6.27226e-08
1.78201e-08
5.59094e-08
2.11035e-08
4.80057e-08
2.48989e-08
3.88667e-08
2.92434e-08
2.83389e-08
3.41718e-08
1.62611e-08
3.97162e-08
2.4656e-09
4.59063e-08
-1.32208e-08
5.27687e-08
-3.09757e-08
6.03266e-08
-5.09788e-08
6.85988e-08
-7.34107e-08
7.75985e-08
-9.845e-08
8.73321e-08
-1.26271e-07
9.77971e-08
-1.57039e-07
1.0898e-07
-1.90908e-07
1.20856e-07
-2.28016e-07
1.33385e-07
-2.6848e-07
1.4651e-07
-3.12391e-07
1.60156e-07
-3.5981e-07
1.74229e-07
-4.10759e-07
1.88616e-07
-4.65223e-07
2.03182e-07
-5.23139e-07
2.17776e-07
-5.84398e-07
2.32225e-07
-6.48837e-07
2.46343e-07
-7.16239e-07
2.59929e-07
-7.86335e-07
2.72773e-07
-8.58798e-07
2.84655e-07
-9.33253e-07
2.95355e-07
-1.00927e-06
3.04653e-07
-1.08638e-06
3.12334e-07
-1.16406e-06
3.18192e-07
-1.24176e-06
3.22031e-07
-1.3189e-06
3.23673e-07
-1.39488e-06
3.22956e-07
-1.46907e-06
3.19737e-07
-1.54083e-06
3.13894e-07
-1.60954e-06
3.05327e-07
-1.67455e-06
2.93958e-07
-1.73524e-06
2.79732e-07
-1.791e-06
2.62615e-07
-1.84122e-06
2.42599e-07
-1.88533e-06
2.19699e-07
-1.9228e-06
1.93955e-07
-1.9531e-06
1.65436e-07
-1.97577e-06
1.34238e-07
-1.99037e-06
1.00495e-07
-1.99653e-06
6.43732e-08
-1.99392e-06
2.60848e-08
-1.98227e-06
-1.40571e-08
-1.96138e-06
-5.5781e-08
-1.93113e-06
-9.87357e-08
-1.89151e-06
-1.42461e-07
-1.84256e-06
-1.86451e-07
-1.78447e-06
-2.3013e-07
-1.71751e-06
-2.72842e-07
-1.64211e-06
-3.13881e-07
-1.55881e-06
-3.52491e-07
-1.4683e-06
-3.87872e-07
-1.37141e-06
-4.19204e-07
-1.26914e-06
-4.45676e-07
-1.16259e-06
-4.66517e-07
-1.05304e-06
-4.81031e-07
-9.41859e-07
-4.88643e-07
-8.305e-07
-4.88935e-07
-7.20492e-07
-4.8169e-07
-6.13379e-07
-4.66923e-07
-5.10678e-07
-4.44903e-07
-4.13833e-07
-4.16166e-07
-3.24157e-07
-3.81502e-07
-2.42789e-07
-3.41935e-07
-1.70643e-07
-2.98672e-07
-1.08376e-07
-2.53048e-07
-5.63604e-08
-2.06457e-07
-1.46723e-08
-1.60278e-07
1.6905e-08
-1.1581e-07
3.88685e-08
-7.42262e-08
5.19739e-08
-3.6549e-08
5.72097e-08
-3.65878e-09
5.57778e-08
2.36595e-08
4.90759e-08
4.464e-08
3.86938e-08
5.84249e-08
2.64215e-08
6.398e-08
1.42694e-08
6.00695e-08
4.5226e-09
4.53789e-08
1.90149e-08
2.91251e-10
-4.37275e-10
1.23303e-09
-2.86886e-09
2.87092e-09
-6.14565e-09
5.21798e-09
-9.70662e-09
8.25348e-09
-1.32176e-08
1.19292e-08
-1.64791e-08
1.61776e-08
-1.93778e-08
2.09185e-08
-2.18537e-08
2.60655e-08
-2.38807e-08
3.15293e-08
-2.54544e-08
3.72216e-08
-2.65847e-08
4.30569e-08
-2.72911e-08
4.89543e-08
-2.75999e-08
5.48386e-08
-2.75417e-08
6.06408e-08
-2.71503e-08
6.6299e-08
-2.64615e-08
7.17587e-08
-2.55119e-08
7.69725e-08
-2.43386e-08
8.19002e-08
-2.29783e-08
8.6509e-08
-2.14665e-08
9.07729e-08
-1.98379e-08
9.46723e-08
-1.81252e-08
9.81941e-08
-1.63591e-08
1.01331e-07
-1.45683e-08
1.0408e-07
-1.27792e-08
1.06444e-07
-1.10154e-08
1.0843e-07
-9.29806e-09
1.10048e-07
-7.64568e-09
1.11311e-07
-6.07369e-09
1.12237e-07
-4.59459e-09
1.12841e-07
-3.21766e-09
1.13144e-07
-1.94884e-09
1.13164e-07
-7.90472e-10
1.12919e-07
2.58982e-10
1.12425e-07
1.20518e-09
1.11699e-07
2.05825e-09
1.10749e-07
2.83308e-09
1.09583e-07
3.54936e-09
1.08201e-07
4.23202e-09
1.06597e-07
4.91124e-09
1.04756e-07
5.62241e-09
1.02655e-07
6.40602e-09
1.00259e-07
7.30727e-09
9.75257e-08
8.37562e-09
9.43969e-08
9.66413e-09
9.08039e-08
1.12286e-08
8.66648e-08
1.31268e-08
8.18847e-08
1.54174e-08
7.63554e-08
1.81588e-08
6.9956e-08
2.14087e-08
6.25532e-08
2.52229e-08
5.40018e-08
2.96549e-08
4.41455e-08
3.47552e-08
3.28179e-08
4.05711e-08
1.98432e-08
4.71465e-08
5.03769e-09
5.45217e-08
-1.17891e-08
6.27331e-08
-3.08329e-08
7.18125e-08
-5.22927e-08
8.17864e-08
-7.63687e-08
9.26748e-08
-1.0326e-07
1.0449e-07
-1.3316e-07
1.17233e-07
-1.66256e-07
1.30893e-07
-2.02722e-07
1.45446e-07
-2.42713e-07
1.60848e-07
-2.86366e-07
1.77038e-07
-3.33786e-07
1.9393e-07
-3.85048e-07
2.11417e-07
-4.40184e-07
2.29366e-07
-4.99187e-07
2.47618e-07
-5.61995e-07
2.6599e-07
-6.28495e-07
2.84276e-07
-6.98516e-07
3.02246e-07
-7.71828e-07
3.19656e-07
-8.48141e-07
3.36242e-07
-9.27103e-07
3.51735e-07
-1.00831e-06
3.65859e-07
-1.09129e-06
3.78337e-07
-1.17553e-06
3.88899e-07
-1.26048e-06
3.97286e-07
-1.34555e-06
4.03253e-07
-1.43009e-06
4.06575e-07
-1.51347e-06
4.0705e-07
-1.59501e-06
4.04502e-07
-1.67406e-06
3.98781e-07
-1.74993e-06
3.89764e-07
-1.82196e-06
3.77359e-07
-1.8895e-06
3.61501e-07
-1.95192e-06
3.42154e-07
-2.00862e-06
3.19308e-07
-2.059e-06
2.92985e-07
-2.10253e-06
2.63232e-07
-2.1387e-06
2.30125e-07
-2.16704e-06
1.93773e-07
-2.18712e-06
1.54317e-07
-2.19856e-06
1.11937e-07
-2.20104e-06
6.68525e-08
-2.19429e-06
1.93338e-08
-2.17808e-06
-3.02651e-08
-2.15227e-06
-8.15925e-08
-2.11679e-06
-1.34216e-07
-2.07165e-06
-1.876e-07
-2.01695e-06
-2.41153e-07
-1.95288e-06
-2.94197e-07
-1.87975e-06
-3.45973e-07
-1.79798e-06
-3.95652e-07
-1.70812e-06
-4.4235e-07
-1.61086e-06
-4.85133e-07
-1.50703e-06
-5.23038e-07
-1.39759e-06
-5.5511e-07
-1.28368e-06
-5.80433e-07
-1.16653e-06
-5.98175e-07
-1.04754e-06
-6.07637e-07
-9.28177e-07
-6.08297e-07
-8.10001e-07
-5.99866e-07
-6.94602e-07
-5.82322e-07
-5.83563e-07
-5.55943e-07
-4.78407e-07
-5.21322e-07
-3.80543e-07
-4.79366e-07
-2.91217e-07
-4.31261e-07
-2.11455e-07
-3.78433e-07
-1.42027e-07
-3.22477e-07
-8.34084e-08
-2.65075e-07
-3.57693e-08
-2.07917e-07
1.03576e-09
-1.52615e-07
2.7458e-08
-1.00648e-07
4.42355e-08
-5.33265e-08
5.23706e-08
-1.17939e-08
5.31049e-08
2.29253e-08
4.79028e-08
4.98422e-08
3.84401e-08
6.78876e-08
2.6606e-08
7.58141e-08
1.45285e-08
7.2147e-08
4.64779e-09
5.52596e-08
2.36627e-08
3.69826e-10
-8.07097e-10
1.4985e-09
-3.99754e-09
3.39939e-09
-8.04655e-09
6.06665e-09
-1.23739e-08
9.46831e-09
-1.66193e-08
1.3549e-08
-2.05598e-08
1.82355e-08
-2.40643e-08
2.34427e-08
-2.70609e-08
2.90789e-08
-2.95168e-08
3.50496e-08
-3.14251e-08
4.1261e-08
-3.2796e-08
4.76221e-08
-3.36522e-08
5.40465e-08
-3.40243e-08
6.04537e-08
-3.39489e-08
6.677e-08
-3.34666e-08
7.29289e-08
-3.26204e-08
7.88715e-08
-3.14545e-08
8.45466e-08
-3.00137e-08
8.99107e-08
-2.83424e-08
9.49278e-08
-2.64837e-08
9.95694e-08
-2.44795e-08
1.03814e-07
-2.23694e-08
1.07645e-07
-2.01908e-08
1.11055e-07
-1.79783e-08
1.1404e-07
-1.57639e-08
1.16601e-07
-1.35763e-08
1.18744e-07
-1.14411e-08
1.20479e-07
-9.38064e-09
1.21819e-07
-7.4135e-09
1.22779e-07
-5.55471e-09
1.23377e-07
-3.81534e-09
1.2363e-07
-2.2023e-09
1.23558e-07
-7.18021e-10
1.23177e-07
6.39816e-10
1.22503e-07
1.87869e-09
1.2155e-07
3.01159e-09
1.20326e-07
4.05739e-09
1.18834e-07
5.04102e-09
1.17072e-07
5.99384e-09
1.1503e-07
6.95373e-09
1.12687e-07
7.96507e-09
1.10014e-07
9.07848e-09
1.06971e-07
1.03505e-08
1.03504e-07
1.1843e-08
9.95459e-08
1.36221e-08
9.5017e-08
1.57575e-08
8.98225e-08
1.83214e-08
8.38531e-08
2.13868e-08
7.69852e-08
2.50267e-08
6.90808e-08
2.93131e-08
5.99884e-08
3.43153e-08
4.95435e-08
4.00998e-08
3.75694e-08
4.67292e-08
2.38787e-08
5.42617e-08
8.2743e-09
6.2751e-08
-9.44928e-09
7.22453e-08
-2.95038e-08
8.27876e-08
-5.21055e-08
9.44142e-08
-7.74726e-08
1.07154e-07
-1.05823e-07
1.21025e-07
-1.37369e-07
1.36036e-07
-1.72318e-07
1.52181e-07
-2.10862e-07
1.69437e-07
-2.53177e-07
1.8776e-07
-2.99415e-07
2.07086e-07
-3.49699e-07
2.27322e-07
-4.04118e-07
2.48349e-07
-4.62719e-07
2.70017e-07
-5.25499e-07
2.92146e-07
-5.92403e-07
3.14522e-07
-6.63318e-07
3.36906e-07
-7.38069e-07
3.59027e-07
-8.16416e-07
3.80593e-07
-8.98051e-07
4.01291e-07
-9.82603e-07
4.20795e-07
-1.06964e-06
4.3877e-07
-1.15866e-06
4.54881e-07
-1.24912e-06
4.68799e-07
-1.34043e-06
4.80205e-07
-1.43195e-06
4.88801e-07
-1.523e-06
4.94312e-07
-1.61292e-06
4.96491e-07
-1.70099e-06
4.95123e-07
-1.78652e-06
4.90028e-07
-1.8688e-06
4.81062e-07
-1.94715e-06
4.68116e-07
-2.02091e-06
4.51115e-07
-2.08943e-06
4.30021e-07
-2.1521e-06
4.04829e-07
-2.20836e-06
3.75563e-07
-2.25766e-06
3.42281e-07
-2.2995e-06
3.05073e-07
-2.33343e-06
2.64056e-07
-2.35904e-06
2.19383e-07
-2.37596e-06
1.71241e-07
-2.38388e-06
1.19857e-07
-2.38253e-06
6.55025e-08
-2.3717e-06
8.49916e-09
-2.35121e-06
-5.07558e-08
-2.32096e-06
-1.11841e-07
-2.28092e-06
-1.74252e-07
-2.23113e-06
-2.3739e-07
-2.1717e-06
-3.00581e-07
-2.10284e-06
-3.63059e-07
-2.02484e-06
-4.23971e-07
-1.93812e-06
-4.82376e-07
-1.8432e-06
-5.37271e-07
-1.74074e-06
-5.87592e-07
-1.63154e-06
-6.32239e-07
-1.51654e-06
-6.70113e-07
-1.39682e-06