/*--------------------------------*- C++ -*----------------------------------*\
  =========                 |
  \\      /  F ield         | OpenFOAM: The Open Source CFD Toolbox
   \\    /   O peration     | Website:  https://openfoam.org
    \\  /    A nd           | Version:  12
     \\/     M anipulation  |
\*---------------------------------------------------------------------------*/
FoamFile
{
    format      ascii;
    class       volVectorField;
    location    "2";
    object      U;
}
// * * * * * * * * * * * * * * * * * * * * * * * * * * * * * * * * * * * * * //

dimensions      [0 1 -1 0 0 0 0];

internalField   nonuniform List<vector> 
18225
(
(-4.14811e-06 2.30415e-06 0)
(-1.33627e-05 1.56356e-06 0)
(-1.38905e-05 1.76943e-07 0)
(-2.28888e-06 -1.14401e-06 0)
(2.17684e-05 -2.21807e-06 0)
(5.69429e-05 -3.09764e-06 0)
(0.00010172 -3.81988e-06 0)
(0.000154566 -4.40228e-06 0)
(0.000213973 -4.85805e-06 0)
(0.000278491 -5.19773e-06 0)
(0.000346753 -5.43156e-06 0)
(0.000417478 -5.56827e-06 0)
(0.000489485 -5.61699e-06 0)
(0.000561696 -5.58537e-06 0)
(0.00063314 -5.48224e-06 0)
(0.000702955 -5.31502e-06 0)
(0.000770392 -5.09285e-06 0)
(0.00083481 -4.82364e-06 0)
(0.000895682 -4.51703e-06 0)
(0.000952584 -4.18137e-06 0)
(0.0010052 -3.82561e-06 0)
(0.00105331 -3.45677e-06 0)
(0.00109678 -3.08189e-06 0)
(0.00113558 -2.70904e-06 0)
(0.00116973 -2.34722e-06 0)
(0.00119936 -2.00429e-06 0)
(0.00122464 -1.68626e-06 0)
(0.00124582 -1.39648e-06 0)
(0.00126318 -1.13586e-06 0)
(0.00127704 -9.05239e-07 0)
(0.00128777 -7.06508e-07 0)
(0.00129574 -5.41636e-07 0)
(0.00130135 -4.12132e-07 0)
(0.001305 -3.18907e-07 0)
(0.00130708 -2.60661e-07 0)
(0.00130801 -2.39197e-07 0)
(0.00130814 -2.49885e-07 0)
(0.0013078 -2.90176e-07 0)
(0.00130726 -3.56797e-07 0)
(0.00130675 -4.4449e-07 0)
(0.0013064 -5.47061e-07 0)
(0.00130628 -6.57004e-07 0)
(0.00130632 -7.66401e-07 0)
(0.00130637 -8.67848e-07 0)
(0.00130614 -9.50075e-07 0)
(0.00130521 -1.00286e-06 0)
(0.00130302 -1.01637e-06 0)
(0.00129889 -9.80224e-07 0)
(0.00129197 -8.84211e-07 0)
(0.00128129 -7.1837e-07 0)
(0.00126575 -4.73289e-07 0)
(0.0012441 -1.40019e-07 0)
(0.001215 2.89809e-07 0)
(0.00117697 8.24236e-07 0)
(0.00112842 1.47086e-06 0)
(0.00106768 2.23848e-06 0)
(0.000992924 3.13423e-06 0)
(0.000902271 4.16573e-06 0)
(0.000793703 5.34332e-06 0)
(0.000665108 6.67957e-06 0)
(0.000514264 8.18517e-06 0)
(0.000338851 9.87373e-06 0)
(0.00013644 1.17492e-05 0)
(-9.5479e-05 1.38227e-05 0)
(-0.00035948 1.61055e-05 0)
(-0.000658195 1.86122e-05 0)
(-0.000994251 2.13479e-05 0)
(-0.00137023 2.43149e-05 0)
(-0.00178866 2.75154e-05 0)
(-0.00225191 3.09467e-05 0)
(-0.00276217 3.4602e-05 0)
(-0.0033214 3.84693e-05 0)
(-0.00393119 4.25311e-05 0)
(-0.00459277 4.67641e-05 0)
(-0.00530689 5.11389e-05 0)
(-0.00607378 5.56194e-05 0)
(-0.00689307 6.01633e-05 0)
(-0.0077637 6.47217e-05 0)
(-0.00868394 6.92394e-05 0)
(-0.00965124 7.36556e-05 0)
(-0.0106623 7.79034e-05 0)
(-0.0117129 8.19114e-05 0)
(-0.0127981 8.56036e-05 0)
(-0.0139119 8.89004e-05 0)
(-0.0150475 9.1719e-05 0)
(-0.0161974 9.39745e-05 0)
(-0.0173529 9.55801e-05 0)
(-0.0185048 9.64486e-05 0)
(-0.019643 9.64925e-05 0)
(-0.0207564 9.56255e-05 0)
(-0.0218336 9.37634e-05 0)
(-0.0228622 9.08257e-05 0)
(-0.0238295 8.67372e-05 0)
(-0.0247221 8.14298e-05 0)
(-0.0255264 7.48494e-05 0)
(-0.0262286 6.69754e-05 0)
(-0.0268134 5.74641e-05 0)
(-0.0272686 4.68563e-05 0)
(-0.0275797 3.50367e-05 0)
(-0.0277363 2.13496e-05 0)
(-0.0277275 7.03585e-06 0)
(-0.0275392 -8.3712e-06 0)
(-0.0271667 -2.48787e-05 0)
(-0.0266038 -4.19779e-05 0)
(-0.0258483 -5.93855e-05 0)
(-0.0249016 -7.67539e-05 0)
(-0.0237692 -9.36667e-05 0)
(-0.0224609 -0.000109659 0)
(-0.0209912 -0.000124238 0)
(-0.0193795 -0.000136903 0)
(-0.01765 -0.000147171 0)
(-0.0158313 -0.000154611 0)
(-0.0139554 -0.000158871 0)
(-0.0120575 -0.000159716 0)
(-0.010174 -0.000157052 0)
(-0.00834162 -0.000150943 0)
(-0.0065955 -0.000141621 0)
(-0.00496797 -0.000129476 0)
(-0.00348688 -0.000115035 0)
(-0.00217446 -9.89271e-05 0)
(-0.00104647 -8.18361e-05 0)
(-0.000111723 -6.44547e-05 0)
(0.000627898 -4.7432e-05 0)
(0.00117697 -3.13208e-05 0)
(0.00154567 -1.65569e-05 0)
(0.00174888 -3.47366e-06 0)
(0.0018047 7.75801e-06 0)
(0.00173374 1.70732e-05 0)
(0.00155838 2.44038e-05 0)
(0.00130208 2.969e-05 0)
(0.000991222 3.26785e-05 0)
(0.000656654 3.266e-05 0)
(0.000337554 2.84824e-05 0)
(9.07692e-05 1.70416e-05 0)
(-1.13669e-05 -4.23687e-06 0)
(-6.42263e-06 8.04511e-06 0)
(-1.9714e-05 4.72407e-06 0)
(-1.04489e-05 -6.2042e-06 0)
(2.93889e-05 -1.87014e-05 0)
(0.000101343 -3.05476e-05 0)
(0.000202962 -4.10772e-05 0)
(0.000330728 -5.00999e-05 0)
(0.000480749 -5.75842e-05 0)
(0.000649039 -6.35666e-05 0)
(0.000831687 -6.81117e-05 0)
(0.00102494 -7.13044e-05 0)
(0.00122527 -7.32378e-05 0)
(0.00142938 -7.40146e-05 0)
(0.00163426 -7.37407e-05 0)
(0.00183719 -7.25274e-05 0)
(0.00203573 -7.04864e-05 0)
(0.00222776 -6.77318e-05 0)
(0.00241145 -6.43758e-05 0)
(0.00258529 -6.05306e-05 0)
(0.00274807 -5.63037e-05 0)
(0.00289883 -5.1799e-05 0)
(0.00303693 -4.71125e-05 0)
(0.00316196 -4.23348e-05 0)
(0.00327375 -3.75511e-05 0)
(0.00337235 -3.28432e-05 0)
(0.00345805 -2.82844e-05 0)
(0.00353128 -2.3939e-05 0)
(0.00359268 -1.98602e-05 0)
(0.00364297 -1.60905e-05 0)
(0.00368301 -1.2665e-05 0)
(0.00371374 -9.6126e-06 0)
(0.00373616 -6.95481e-06 0)
(0.00375134 -4.70412e-06 0)
(0.00376032 -2.86335e-06 0)
(0.00376418 -1.42109e-06 0)
(0.00376393 -3.67705e-07 0)
(0.00376052 3.38267e-07 0)
(0.00375476 7.39866e-07 0)
(0.00374736 8.90897e-07 0)
(0.00373881 8.64097e-07 0)
(0.00372939 7.44956e-07 0)
(0.00371914 6.32293e-07 0)
(0.00370776 6.36863e-07 0)
(0.00369467 8.79128e-07 0)
(0.00367891 1.49205e-06 0)
(0.00365914 2.61397e-06 0)
(0.00363362 4.38692e-06 0)
(0.00360021 6.95495e-06 0)
(0.00355639 1.04612e-05 0)
(0.00349919 1.50457e-05 0)
(0.0034253 2.08434e-05 0)
(0.00333099 2.79831e-05 0)
(0.0032122 3.65876e-05 0)
(0.00306452 4.67736e-05 0)
(0.00288323 5.86537e-05 0)
(0.00266326 7.23406e-05 0)
(0.00239928 8.79384e-05 0)
(0.00208563 0.000105556 0)
(0.00171638 0.000125305 0)
(0.00128535 0.000147321 0)
(0.000786018 0.000171663 0)
(0.000211704 0.000198415 0)
(-0.000444516 0.000227704 0)
(-0.00118985 0.00025963 0)
(-0.00203156 0.000294231 0)
(-0.00297678 0.000331504 0)
(-0.00403262 0.000371432 0)
(-0.00520598 0.000413957 0)
(-0.00650341 0.000458966 0)
(-0.00793089 0.000506284 0)
(-0.00949372 0.000555674 0)
(-0.0111963 0.000606829 0)
(-0.0130419 0.000659372 0)
(-0.0150326 0.000712857 0)
(-0.0171689 0.000766764 0)
(-0.0194497 0.000820503 0)
(-0.0218721 0.000873422 0)
(-0.0244313 0.000924807 0)
(-0.0271201 0.000973893 0)
(-0.0299295 0.00101987 0)
(-0.0328479 0.00106189 0)
(-0.0358616 0.0010991 0)
(-0.0389544 0.00113059 0)
(-0.0421081 0.00115549 0)
(-0.0453018 0.0011729 0)
(-0.0485127 0.00118196 0)
(-0.0517158 0.00118181 0)
(-0.0548842 0.00117164 0)
(-0.0579889 0.00115066 0)
(-0.0609996 0.00111816 0)
(-0.0638841 0.00107346 0)
(-0.0666091 0.00101597 0)
(-0.0691403 0.000945187 0)
(-0.0714425 0.00086074 0)
(-0.0734803 0.000762371 0)
(-0.0752183 0.000649887 0)
(-0.076619 0.000522802 0)
(-0.0776553 0.000381386 0)
(-0.078278 0.000228445 0)
(-0.0784787 6.67706e-05 0)
(-0.0782256 -0.000109765 0)
(-0.0774892 -0.000294204 0)
(-0.0762579 -0.000484996 0)
(-0.0745214 -0.000679293 0)
(-0.0722785 -0.000873709 0)
(-0.0695369 -0.00106449 0)
(-0.0663144 -0.00124739 0)
(-0.0626399 -0.0014178 0)
(-0.0585536 -0.00157093 0)
(-0.0541074 -0.00170198 0)
(-0.0493648 -0.00180642 0)
(-0.0443995 -0.00188022 0)
(-0.0392939 -0.00192015 0)
(-0.0341372 -0.00192404 0)
(-0.0290221 -0.00189105 0)
(-0.0240418 -0.00182179 0)
(-0.0192861 -0.00171843 0)
(-0.0148382 -0.00158463 0)
(-0.0107704 -0.0014254 0)
(-0.00714186 -0.0012468 0)
(-0.00399579 -0.00105556 0)
(-0.00135832 -0.000858652 0)
(0.000761806 -0.000662853 0)
(0.00237246 -0.000474254 0)
(0.00349665 -0.000298145 0)
(0.00416987 -0.000138583 0)
(0.00443766 1.46554e-06 0)
(0.00435322 0.000119606 0)
(0.00397651 0.000214488 0)
(0.00337094 0.000283967 0)
(0.00260977 0.000324361 0)
(0.00177678 0.000329301 0)
(0.000973534 0.000288459 0)
(0.000334227 0.000187096 0)
(9.07426e-06 3.75612e-05 0)
(-5.92337e-06 1.37619e-05 0)
(-1.26813e-05 3.3415e-06 0)
(1.5164e-05 -2.41618e-05 0)
(8.773e-05 -5.60597e-05 0)
(0.000207902 -8.70646e-05 0)
(0.000373013 -0.000115122 0)
(0.000578321 -0.000139452 0)
(0.000818177 -0.000159811 0)
(0.0010866 -0.000176192 0)
(0.00137762 -0.000188719 0)
(0.00168543 -0.000197581 0)
(0.00200452 -0.000203013 0)
(0.00232972 -0.00020528 0)
(0.00265631 -0.000204662 0)
(0.00297998 -0.000201455 0)
(0.00329688 -0.000195962 0)
(0.00360364 -0.00018849 0)
(0.00389737 -0.000179345 0)
(0.00417564 -0.000168829 0)
(0.00443649 -0.000157235 0)
(0.0046784 -0.000144845 0)
(0.00490028 -0.000131922 0)
(0.00510143 -0.000118715 0)
(0.00528153 -0.000105458 0)
(0.00544063 -9.23673e-05 0)
(0.00557905 -7.96429e-05 0)
(0.00569743 -6.74572e-05 0)
(0.00579666 -5.59558e-05 0)
(0.0058778 -4.52585e-05 0)
(0.00594214 -3.54641e-05 0)
(0.00599108 -2.66517e-05 0)
(0.00602614 -1.88778e-05 0)
(0.00604889 -1.21737e-05 0)
(0.00606094 -6.54262e-06 0)
(0.00606384 -1.95348e-06 0)
(0.00605914 1.62979e-06 0)
(0.00604817 4.33278e-06 0)
(0.00603214 6.26405e-06 0)
(0.00601199 7.58779e-06 0)
(0.00598839 8.50927e-06 0)
(0.00596161 9.26982e-06 0)
(0.00593154 1.01474e-05 0)
(0.00589754 1.14546e-05 0)
(0.00585849 1.35347e-05 0)
(0.00581266 1.67566e-05 0)
(0.00575771 2.15091e-05 0)
(0.00569067 2.8193e-05 0)
(0.0056079 3.72147e-05 0)
(0.00550512 4.89786e-05 0)
(0.00537737 6.38809e-05 0)
(0.00521909 8.23049e-05 0)
(0.00502407 0.000104618 0)
(0.00478554 0.000131169 0)
(0.00449616 0.000162291 0)
(0.00414806 0.000198305 0)
(0.00373287 0.000239522 0)
(0.00324172 0.000286236 0)
(0.00266529 0.000338751 0)
(0.00199383 0.000397405 0)
(0.00121724 0.000462277 0)
(0.000325025 0.000533781 0)
(-0.000693897 0.000612196 0)
(-0.00185074 0.000697715 0)
(-0.00315667 0.00079043 0)
(-0.00462296 0.00089038 0)
(-0.00626083 0.000997533 0)
(-0.00808113 0.00111175 0)
(-0.0100942 0.00123275 0)
(-0.0123096 0.00136009 0)
(-0.0147357 0.00149316 0)
(-0.0173796 0.00163117 0)
(-0.0202469 0.00177314 0)
(-0.0233408 0.00191788 0)
(-0.0266628 0.00206403 0)
(-0.0302113 0.00221003 0)
(-0.0339823 0.00235415 0)
(-0.0379685 0.00249448 0)
(-0.0421593 0.002629 0)
(-0.046541 0.00275554 0)
(-0.0510961 0.00287187 0)
(-0.0558036 0.00297567 0)
(-0.0606391 0.00306461 0)
(-0.0655744 0.00313635 0)
(-0.0705781 0.00318858 0)
(-0.0756155 0.00321905 0)
(-0.0806487 0.00322555 0)
(-0.0856372 0.00320603 0)
(-0.0905374 0.00315852 0)
(-0.0953039 0.00308121 0)
(-0.0998887 0.00297247 0)
(-0.104243 0.00283086 0)
(-0.108315 0.00265517 0)
(-0.112054 0.00244447 0)
(-0.115407 0.00219815 0)
(-0.118324 0.00191596 0)
(-0.120752 0.001598 0)
(-0.122639 0.00124432 0)
(-0.12395 0.000851866 0)
(-0.124606 0.000441277 0)
(-0.12462 -6.05355e-06 0)
(-0.123922 -0.000476607 0)
(-0.122494 -0.000967858 0)
(-0.120317 -0.00147213 0)
(-0.117383 -0.00198215 0)
(-0.113695 -0.00248922 0)
(-0.10927 -0.00298378 0)
(-0.104139 -0.0034552 0)
(-0.0983475 -0.00389206 0)
(-0.0919577 -0.00428257 0)
(-0.085048 -0.004615 0)
(-0.077712 -0.00487833 0)
(-0.0700579 -0.00506277 0)
(-0.0622056 -0.00516049 0)
(-0.0542843 -0.00516625 0)
(-0.0464283 -0.00507793 0)
(-0.0387728 -0.00489696 0)
(-0.0314487 -0.00462852 0)
(-0.0245779 -0.00428145 0)
(-0.0182679 -0.00386793 0)
(-0.0126081 -0.00340283 0)
(-0.00766556 -0.00290285 0)
(-0.00348347 -0.0023855 0)
(-7.98727e-05 -0.00186805 0)
(0.00255157 -0.00136642 0)
(0.00443985 -0.000894605 0)
(0.00563362 -0.000463952 0)
(0.00619796 -8.33143e-05 0)
(0.00621055 0.000240609 0)
(0.00576193 0.000501907 0)
(0.004949 0.000694925 0)
(0.00388456 0.000809419 0)
(0.00269606 0.000830438 0)
(0.00153268 0.000735894 0)
(0.000581321 0.000500201 0)
(4.08376e-05 0.000148014 0)
(-4.54753e-06 1.70472e-05 0)
(1.21961e-06 -5.8128e-06 0)
(5.33261e-05 -5.62541e-05 0)
(0.00016221 -0.000114666 0)
(0.000331314 -0.000172174 0)
(0.000557926 -0.000224793 0)
(0.000836487 -0.000270796 0)
(0.00116004 -0.00030952 0)
(0.00152104 -0.000340829 0)
(0.0019118 -0.000364872 0)
(0.00232478 -0.000381962 0)
(0.00275278 -0.000392513 0)
(0.00318901 -0.000397008 0)
(0.00362721 -0.000395972 0)
(0.00406168 -0.000389961 0)
(0.0044873 -0.000379548 0)
(0.00489959 -0.000365317 0)
(0.00529467 -0.000347846 0)
(0.00566929 -0.000327712 0)
(0.00602077 -0.000305469 0)
(0.00634706 -0.000281654 0)
(0.00664662 -0.000256772 0)
(0.00691848 -0.000231296 0)
(0.00716214 -0.000205669 0)
(0.00737755 -0.000180301 0)
(0.00756507 -0.000155563 0)
(0.00772545 -0.000131784 0)
(0.00785973 -0.000109245 0)
(0.00796927 -8.81809e-05 0)
(0.00805566 -6.87854e-05 0)
(0.00812065 -5.12091e-05 0)
(0.00816617 -3.55567e-05 0)
(0.00819418 -2.18829e-05 0)
(0.00820669 -1.01883e-05 0)
(0.00820566 -4.15277e-07 0)
(0.00819298 7.54152e-06 0)
(0.00817026 1.38968e-05 0)
(0.00813898 1.88816e-05 0)
(0.00810019 2.28244e-05 0)
(0.00805457 2.61276e-05 0)
(0.0080023 2.92652e-05 0)
(0.00794298 3.27824e-05 0)
(0.00787554 3.72916e-05 0)
(0.00779819 4.3465e-05 0)
(0.00770837 5.20244e-05 0)
(0.00760266 6.373e-05 0)
(0.00747677 7.93672e-05 0)
(0.00732553 9.97322e-05 0)
(0.00714284 0.000125619 0)
(0.00692174 0.000157805 0)
(0.00665437 0.000197047 0)
(0.00633203 0.000244067 0)
(0.00594524 0.000299557 0)
(0.00548373 0.000364171 0)
(0.0049365 0.000438536 0)
(0.00429189 0.000523262 0)
(0.0035376 0.000618956 0)
(0.0026607 0.000726077 0)
(0.00164791 0.00084507 0)
(0.000484989 0.000976705 0)
(-0.000842539 0.00112138 0)
(-0.00234934 0.00127942 0)
(-0.00405035 0.0014511 0)
(-0.00596061 0.00163658 0)
(-0.00809499 0.00183587 0)
(-0.010468 0.00204875 0)
(-0.0130934 0.00227477 0)
(-0.0159842 0.00251321 0)
(-0.0191516 0.00276303 0)
(-0.0226056 0.00302284 0)
(-0.0263537 0.00329091 0)
(-0.0304008 0.00356512 0)
(-0.0347492 0.00384299 0)
(-0.0393975 0.00412168 0)
(-0.0443408 0.004398 0)
(-0.0495701 0.00466843 0)
(-0.0550722 0.00492921 0)
(-0.0608293 0.0051763 0)
(-0.0668191 0.00540551 0)
(-0.0730145 0.00561254 0)
(-0.079384 0.00579299 0)
(-0.0858914 0.00594251 0)
(-0.0924961 0.00605677 0)
(-0.0991533 0.00613158 0)
(-0.105815 0.0061629 0)
(-0.112428 0.00614692 0)
(-0.118938 0.00608008 0)
(-0.125287 0.0059591 0)
(-0.131415 0.00578106 0)
(-0.137259 0.00554339 0)
(-0.142757 0.00524394 0)
(-0.147843 0.00488105 0)
(-0.152455 0.0044536 0)
(-0.156526 0.00396105 0)
(-0.159996 0.0034036 0)
(-0.162802 0.00278218 0)
(-0.164885 0.00209829 0)
(-0.166197 0.00135153 0)
(-0.166675 0.000558057 0)
(-0.166293 -0.000282647 0)
(-0.165002 -0.00116773 0)
(-0.162781 -0.00208444 0)
(-0.159612 -0.00302039 0)
(-0.155493 -0.00396214 0)
(-0.150432 -0.00489395 0)
(-0.144457 -0.00579863 0)
(-0.13761 -0.00665736 0)
(-0.129953 -0.00745004 0)
(-0.121564 -0.008156 0)
(-0.112542 -0.00875481 0)
(-0.103003 -0.00922725 0)
(-0.0930788 -0.0095563 0)
(-0.0829169 -0.00972829 0)
(-0.0726742 -0.009734 0)
(-0.0625145 -0.00956957 0)
(-0.052603 -0.00923726 0)
(-0.0431008 -0.00874583 0)
(-0.0341588 -0.00811046 0)
(-0.0259123 -0.00735226 0)
(-0.018475 -0.00649725 0)
(-0.0119355 -0.00557494 0)
(-0.00635321 -0.00461662 0)
(-0.00175757 -0.00365352 0)
(0.00185236 -0.00271504 0)
(0.00450619 -0.00182732 0)
(0.00625937 -0.00101232 0)
(0.00718954 -0.000287694 0)
(0.00739279 0.000332385 0)
(0.00698163 0.00083611 0)
(0.00608229 0.0012106 0)
(0.0048383 0.00143772 0)
(0.00341233 0.00149183 0)
(0.0019895 0.00133802 0)
(0.000795626 0.000940221 0)
(6.98617e-05 0.000325632 0)
(-2.98003e-06 1.60078e-05 0)
(1.88806e-05 -2.56161e-05 0)
(9.89152e-05 -0.00010455 0)
(0.000246585 -0.000195174 0)
(0.000465051 -0.000284962 0)
(0.000751444 -0.000367714 0)
(0.00109957 -0.000440502 0)
(0.00150147 -0.000502066 0)
(0.00194834 -0.000552038 0)
(0.0024311 -0.000590547 0)
(0.00294077 -0.00061802 0)
(0.00346869 -0.00063507 0)
(0.00400668 -0.000642435 0)
(0.00454715 -0.000640931 0)
(0.00508317 -0.000631436 0)
(0.0056085 -0.000614854 0)
(0.00611765 -0.000592109 0)
(0.00660585 -0.000564125 0)
(0.00706908 -0.000531812 0)
(0.00750404 -0.000496057 0)
(0.00790813 -0.000457711 0)
(0.00827941 -0.000417581 0)
(0.0086166 -0.000376422 0)
(0.00891899 -0.000334942 0)
(0.00918643 -0.000293788 0)
(0.00941926 -0.000253549 0)
(0.00961826 -0.000214746 0)
(0.0097846 -0.000177832 0)
(0.00991982 -0.000143187 0)
(0.0100257 -0.000111121 0)
(0.0101043 -8.18746e-05 0)
(0.0101578 -5.56099e-05 0)
(0.0101885 -3.24079e-05 0)
(0.0101987 -1.22617e-05 0)
(0.0101905 4.92698e-06 0)
(0.0101661 1.93589e-05 0)
(0.0101273 3.13582e-05 0)
(0.0100758 4.13307e-05 0)
(0.0100124 4.98179e-05 0)
(0.00993792 5.74803e-05 0)
(0.00985219 6.50968e-05 0)
(0.00975445 7.35625e-05 0)
(0.00964309 8.38807e-05 0)
(0.00951559 9.71519e-05 0)
(0.00936844 0.000114558 0)
(0.00919707 0.000137344 0)
(0.00899582 0.000166795 0)
(0.00875789 0.000204216 0)
(0.00847538 0.00025091 0)
(0.00813922 0.000308155 0)
(0.00773928 0.000377193 0)
(0.00726434 0.000459215 0)
(0.0067022 0.000555355 0)
(0.00603965 0.00066669 0)
(0.00526263 0.000794248 0)
(0.00435619 0.000939018 0)
(0.00330475 0.00110178 0)
(0.00209179 0.00128359 0)
(0.000700152 0.00148525 0)
(-0.000887714 0.00170747 0)
(-0.00268984 0.00195091 0)
(-0.00472455 0.00221609 0)
(-0.00701024 0.00250332 0)
(-0.00956521 0.00281269 0)
(-0.0124073 0.003144 0)
(-0.0155536 0.00349668 0)
(-0.0190201 0.00386976 0)
(-0.022821 0.00426176 0)
(-0.0269688 0.00467072 0)
(-0.0314732 0.00509407 0)
(-0.0363409 0.00552868 0)
(-0.0415751 0.00597081 0)
(-0.0471749 0.00641613 0)
(-0.0531349 0.00685975 0)
(-0.059445 0.00729626 0)
(-0.0660895 0.00771977 0)
(-0.0730478 0.00812399 0)
(-0.0802932 0.00850237 0)
(-0.0877937 0.00884809 0)
(-0.0955115 0.00915428 0)
(-0.103403 0.00941403 0)
(-0.111421 0.00962054 0)
(-0.119512 0.00976723 0)
(-0.127617 0.00984779 0)
(-0.135676 0.00985627 0)
(-0.143623 0.00978716 0)
(-0.15139 0.00963545 0)
(-0.158907 0.00939668 0)
(-0.166103 0.00906699 0)
(-0.172903 0.00864315 0)
(-0.179235 0.00812269 0)
(-0.185024 0.00750388 0)
(-0.1902 0.00678587 0)
(-0.194689 0.00596878 0)
(-0.198425 0.00505379 0)
(-0.20134 0.00404329 0)
(-0.203374 0.00294076 0)
(-0.204474 0.00174959 0)
(-0.204585 0.000487365 0)
(-0.203668 -0.000842275 0)
(-0.201686 -0.00223152 0)
(-0.198621 -0.00366198 0)
(-0.194459 -0.00511556 0)
(-0.189204 -0.00657162 0)
(-0.182874 -0.00800639 0)
(-0.175505 -0.00939411 0)
(-0.167148 -0.0107068 0)
(-0.157877 -0.0119149 0)
(-0.147784 -0.0129878 0)
(-0.13698 -0.0138956 0)
(-0.125597 -0.0146099 0)
(-0.113782 -0.0151058 0)
(-0.101701 -0.015363 0)
(-0.0895275 -0.0153676 0)
(-0.0774466 -0.0151136 0)
(-0.0656438 -0.0146037 0)
(-0.0543017 -0.0138503 0)
(-0.043593 -0.0128751 0)
(-0.0336744 -0.011709 0)
(-0.0246804 -0.0103902 0)
(-0.0167182 -0.00896252 0)
(-0.00986353 -0.00747311 0)
(-0.00415834 -0.00596947 0)
(0.000389816 -0.00449709 0)
(0.00380693 -0.00309704 0)
(0.00615 -0.00180473 0)
(0.00750359 -0.000649416 0)
(0.00797602 0.000344859 0)
(0.00769653 0.00115744 0)
(0.00681347 0.00176667 0)
(0.00549501 0.00214475 0)
(0.00393134 0.00225433 0)
(0.0023351 0.00204749 0)
(0.000963322 0.00147662 0)
(9.24892e-05 0.000557708 0)
(-1.1992e-06 9.96545e-06 0)
(3.86894e-05 -5.72863e-05 0)
(0.000148863 -0.000170088 0)
(0.000336741 -0.000297911 0)
(0.000604524 -0.000424781 0)
(0.00094897 -0.000542244 0)
(0.0013633 -0.000646026 0)
(0.00183872 -0.000734142 0)
(0.00236543 -0.000805899 0)
(0.0029332 -0.000861354 0)
(0.00353183 -0.000901029 0)
(0.00415145 -0.000925744 0)
(0.00478266 -0.000936513 0)
(0.00541674 -0.000934485 0)
(0.00604567 -0.000920896 0)
(0.00666223 -0.000897037 0)
(0.00726003 -0.000864226 0)
(0.0078335 -0.000823782 0)
(0.00837793 -0.000777011 0)
(0.00888944 -0.00072518 0)
(0.00936491 -0.000669511 0)
(0.00980204 -0.000611163 0)
(0.0101992 -0.000551223 0)
(0.0105555 -0.000490704 0)
(0.0108706 -0.000430535 0)
(0.0111449 -0.000371559 0)
(0.011379 -0.000314524 0)
(0.0115742 -0.000260082 0)
(0.0117322 -0.00020878 0)
(0.0118548 -0.000161067 0)
(0.0119444 -0.000117282 0)
(0.0120032 -7.76546e-05 0)
(0.0120337 -4.22908e-05 0)
(0.0120384 -1.11694e-05 0)
(0.0120198 1.58669e-05 0)
(0.0119799 3.91266e-05 0)
(0.0119207 5.90858e-05 0)
(0.0118437 7.63625e-05 0)
(0.0117499 9.17606e-05 0)
(0.0116398 0.000106259 0)
(0.0115128 0.000121011 0)
(0.0113678 0.00013734 0)
(0.0112024 0.000156727 0)
(0.0110133 0.000180797 0)
(0.0107961 0.000211293 0)
(0.0105448 0.00025005 0)
(0.0102524 0.000298967 0)
(0.00991048 0.00035997 0)
(0.00950917 0.000434982 0)
(0.00903734 0.000525895 0)
(0.00848252 0.000634544 0)
(0.00783097 0.000762692 0)
(0.00706775 0.000912014 0)
(0.00617678 0.0010841 0)
(0.00514089 0.00128044 0)
(0.00394202 0.00150242 0)
(0.00256105 0.00175144 0)
(0.00097823 0.00202868 0)
(-0.000826977 0.00233527 0)
(-0.00287558 0.00267224 0)
(-0.00518897 0.0030404 0)
(-0.00778866 0.0034403 0)
(-0.0106961 0.00387222 0)
(-0.0139322 0.00433602 0)
(-0.0175172 0.00483111 0)
(-0.0214699 0.00535632 0)
(-0.0258076 0.00590984 0)
(-0.030545 0.00648913 0)
(-0.0356942 0.00709085 0)
(-0.0412635 0.00771081 0)
(-0.0472575 0.00834398 0)
(-0.053676 0.00898445 0)
(-0.0605133 0.00962546 0)
(-0.0677586 0.0102595 0)
(-0.0753947 0.0108783 0)
(-0.0833981 0.0114731 0)
(-0.0917388 0.0120345 0)
(-0.10038 0.012553 0)
(-0.10928 0.0130186 0)
(-0.118388 0.0134215 0)
(-0.12765 0.0137521 0)
(-0.137004 0.014001 0)
(-0.146386 0.0141592 0)
(-0.155726 0.0142182 0)
(-0.16495 0.0141704 0)
(-0.173983 0.0140087 0)
(-0.182745 0.013727 0)
(-0.191157 0.0133201 0)
(-0.199139 0.0127834 0)
(-0.20661 0.0121138 0)
(-0.21349 0.0113089 0)
(-0.219701 0.0103675 0)
(-0.225166 0.00928977 0)
(-0.229814 0.00807701 0)
(-0.233572 0.00673212 0)
(-0.236378 0.00525965 0)
(-0.238169 0.00366588 0)
(-0.238897 0.00195861 0)
(-0.238511 0.000156255 0)
(-0.236973 -0.00173196 0)
(-0.234256 -0.00369168 0)
(-0.230343 -0.00569948 0)
(-0.225231 -0.00773093 0)
(-0.218928 -0.00975786 0)
(-0.21146 -0.0117482 0)
(-0.20287 -0.0136671 0)
(-0.193218 -0.0154774 0)
(-0.182583 -0.0171395 0)
(-0.171066 -0.0186129 0)
(-0.158787 -0.0198576 0)
(-0.145884 -0.0208361 0)
(-0.132515 -0.0215147 0)
(-0.118855 -0.0218661 0)
(-0.10509 -0.0218713 0)
(-0.0914155 -0.0215213 0)
(-0.0780319 -0.020819 0)
(-0.0651366 -0.0197797 0)
(-0.0529186 -0.0184315 0)
(-0.0415516 -0.0168148 0)
(-0.0311877 -0.0149804 0)
(-0.0219511 -0.0129872 0)
(-0.0139332 -0.0108993 0)
(-0.00718988 -0.00878189 0)
(-0.00173924 -0.00669853 0)
(0.00243773 -0.00470755 0)
(0.0053955 -0.00286022 0)
(0.00722087 -0.00119989 0)
(0.0080293 0.000237049 0)
(0.00796181 0.00141878 0)
(0.00718307 0.00231283 0)
(0.00588014 0.00288056 0)
(0.00426461 0.00307221 0)
(0.00257076 0.00282641 0)
(0.00108178 0.0020815 0)
(0.000108365 0.000829645 0)
(6.45988e-07 -1.48903e-06 0)
(5.94442e-05 -0.00010158 0)
(0.000200828 -0.000253545 0)
(0.00042948 -0.000423073 0)
(0.00074608 -0.000591155 0)
(0.00114677 -0.000747171 0)
(0.00162415 -0.000885454 0)
(0.0021687 -0.00100322 0)
(0.00276977 -0.00109936 0)
(0.00341618 -0.00117384 0)
(0.00409672 -0.00122723 0)
(0.00480047 -0.00126057 0)
(0.00551703 -0.00127517 0)
(0.00623665 -0.00127251 0)
(0.00695042 -0.00125425 0)
(0.00765022 -0.0012221 0)
(0.00832889 -0.00117781 0)
(0.00898016 -0.00112314 0)
(0.00959868 -0.00105983 0)
(0.01018 -0.000989592 0)
(0.0107206 -0.000914051 0)
(0.0112178 -0.000834763 0)
(0.0116697 -0.000753186 0)
(0.012075 -0.000670678 0)
(0.0124335 -0.000588484 0)
(0.0127451 -0.000507732 0)
(0.0130107 -0.000429426 0)
(0.0132315 -0.000354437 0)
(0.0134091 -0.000283504 0)
(0.0135456 -0.000217223 0)
(0.0136432 -0.000156046 0)
(0.0137044 -0.000100269 0)
(0.0137318 -5.00251e-05 0)
(0.0137279 -5.2676e-06 0)
(0.0136952 3.42359e-05 0)
(0.0136359 6.89243e-05 0)
(0.0135518 9.94583e-05 0)
(0.0134444 0.000126709 0)
(0.0133144 0.000151791 0)
(0.0131619 0.000176063 0)
(0.0129862 0.000201117 0)
(0.0127852 0.000228783 0)
(0.0125561 0.000261105 0)
(0.0122946 0.000300321 0)
(0.011995 0.000348835 0)
(0.0116502 0.000409178 0)
(0.0112517 0.000483964 0)
(0.0107892 0.000575851 0)
(0.0102511 0.000687491 0)
(0.00962405 0.000821496 0)
(0.00889319 0.000980398 0)
(0.00804227 0.00116663 0)
(0.00705363 0.00138249 0)
(0.00590829 0.00163017 0)
(0.00458609 0.0019117 0)
(0.00306578 0.00222899 0)
(0.00132509 0.0025838 0)
(-0.00065901 0.00297777 0)
(-0.00291026 0.0034123 0)
(-0.00545284 0.00388863 0)
(-0.00831113 0.00440764 0)
(-0.0115095 0.00496987 0)
(-0.0150718 0.00557535 0)
(-0.0190211 0.00622355 0)
(-0.0233792 0.00691322 0)
(-0.0281659 0.0076423 0)
(-0.0333986 0.00840776 0)
(-0.0390914 0.00920557 0)
(-0.0452548 0.0100306 0)
(-0.0518945 0.0108764 0)
(-0.0590113 0.0117356 0)
(-0.0666 0.0125995 0)
(-0.0746491 0.0134583 0)
(-0.0831402 0.0143014 0)
(-0.0920479 0.015117 0)
(-0.101339 0.0158929 0)
(-0.110974 0.0166163 0)
(-0.120905 0.017274 0)
(-0.131077 0.017853 0)
(-0.14143 0.0183403 0)
(-0.151896 0.0187233 0)
(-0.162404 0.0189901 0)
(-0.172876 0.0191294 0)
(-0.183232 0.019131 0)
(-0.19339 0.0189858 0)
(-0.203263 0.0186856 0)
(-0.212767 0.0182237 0)
(-0.221814 0.0175946 0)
(-0.23032 0.0167941 0)
(-0.2382 0.0158193 0)
(-0.245373 0.0146689 0)
(-0.251759 0.0133428 0)
(-0.257283 0.0118428 0)
(-0.261873 0.0101723 0)
(-0.265463 0.00833626 0)
(-0.267992 0.00634217 0)
(-0.269404 0.00419957 0)
(-0.269654 0.00192063 0)
(-0.268699 -0.000474679 0)
(-0.266507 -0.00297097 0)
(-0.263057 -0.0055475 0)
(-0.258339 -0.00817572 0)
(-0.252356 -0.0108247 0)
(-0.245123 -0.0134589 0)
(-0.23667 -0.016038 0)
(-0.227044 -0.0185185 0)
(-0.216311 -0.0208538 0)
(-0.204553 -0.0229947 0)
(-0.191873 -0.0248906 0)
(-0.178395 -0.0264918 0)
(-0.164261 -0.0277509 0)
(-0.149632 -0.0286257 0)
(-0.134685 -0.0290813 0)
(-0.119615 -0.0290927 0)
(-0.104622 -0.0286476 0)
(-0.0899157 -0.0277479 0)
(-0.0757043 -0.0264111 0)
(-0.0621891 -0.0246711 0)
(-0.0495578 -0.0225771 0)
(-0.0379778 -0.0201924 0)
(-0.0275888 -0.017591 0)
(-0.0184981 -0.0148543 0)
(-0.0107757 -0.0120666 0)
(-0.00445225 -0.00931057 0)
(0.000481917 -0.00666384 0)
(0.00407554 -0.00419558 0)
(0.00641395 -0.00196556 0)
(0.00761565 -2.4847e-05 0)
(0.00782898 0.00158124 0)
(0.00723 0.00280816 0)
(0.00602014 0.00360468 0)
(0.00442738 0.00390803 0)
(0.00270342 0.00364253 0)
(0.00115352 0.00272942 0)
(0.000118144 0.00112771 0)
(2.45623e-06 -1.84285e-05 0)
(8.02895e-05 -0.000158748 0)
(0.000253093 -0.000355118 0)
(0.00052237 -0.000570541 0)
(0.000886869 -0.000783469 0)
(0.00134188 -0.000981301 0)
(0.00187928 -0.00115701 0)
(0.00248889 -0.00130698 0)
(0.0031593 -0.00142966 0)
(0.00387852 -0.00152485 0)
(0.00463448 -0.00159319 0)
(0.00541539 -0.00163591 0)
(0.00620998 -0.00165462 0)
(0.00700766 -0.00165119 0)
(0.00779868 -0.00162769 0)
(0.00857422 -0.00158628 0)
(0.0093264 -0.00152919 0)
(0.0100483 -0.00145867 0)
(0.0107341 -0.00137694 0)
(0.0113788 -0.00128615 0)
(0.0119785 -0.0011884 0)
(0.0125301 -0.00108567 0)
(0.0130313 -0.000979821 0)
(0.0134809 -0.000872584 0)
(0.0138782 -0.000765551 0)
(0.0142232 -0.000660162 0)
(0.0145165 -0.000557697 0)
(0.0147594 -0.00045927 0)
(0.0149534 -0.000365819 0)
(0.0151006 -0.000278104 0)
(0.0152033 -0.000196693 0)
(0.0152639 -0.000121951 0)
(0.015285 -5.40308e-05 0)
(0.0152692 7.14832e-06 0)
(0.0152189 6.19121e-05 0)
(0.0151361 0.000110854 0)
(0.0150227 0.000154853 0)
(0.0148798 0.000195072 0)
(0.0147079 0.000232989 0)
(0.0145067 0.000270394 0)
(0.0142748 0.000309391 0)
(0.0140096 0.000352386 0)
(0.0137074 0.000402069 0)
(0.0133629 0.000461382 0)
(0.0129693 0.000533484 0)
(0.0125182 0.000621698 0)
(0.0119992 0.000729461 0)
(0.0114006 0.000860264 0)
(0.0107086 0.00101759 0)
(0.00990771 0.00120488 0)
(0.00898077 0.00142545 0)
(0.00790896 0.00168249 0)
(0.0066719 0.00197902 0)
(0.00524776 0.00231789 0)
(0.00361343 0.00270173 0)
(0.0017446 0.00313297 0)
(-0.00038405 0.00361386 0)
(-0.00279863 0.00414638 0)
(-0.00552587 0.00473222 0)
(-0.00859279 0.00537272 0)
(-0.0120264 0.00606877 0)
(-0.0158534 0.00682069 0)
(-0.0200996 0.00762811 0)
(-0.0247894 0.00848981 0)
(-0.0299453 0.0094036 0)
(-0.0355873 0.0103661 0)
(-0.0417316 0.0113727 0)
(-0.0483909 0.0124174 0)
(-0.0555724 0.0134925 0)
(-0.0632781 0.0145892 0)
(-0.0715033 0.0156969 0)
(-0.0802365 0.0168035 0)
(-0.0894586 0.0178957 0)
(-0.0991425 0.018959 0)
(-0.109253 0.0199779 0)
(-0.119747 0.0209363 0)
(-0.130574 0.0218174 0)
(-0.141673 0.0226045 0)
(-0.152979 0.0232811 0)
(-0.164419 0.023831 0)
(-0.175916 0.0242389 0)
(-0.187386 0.0244906 0)
(-0.198743 0.024573 0)
(-0.209898 0.0244746 0)
(-0.220761 0.0241852 0)
(-0.23124 0.0236965 0)
(-0.241245 0.0230017 0)
(-0.250688 0.0220959 0)
(-0.259482 0.0209756 0)
(-0.267542 0.0196394 0)
(-0.274788 0.0180875 0)
(-0.281145 0.0163217 0)
(-0.286541 0.0143461 0)
(-0.29091 0.0121664 0)
(-0.294191 0.00979068 0)
(-0.29633 0.00722933 0)
(-0.297279 0.00449553 0)
(-0.296999 0.00160556 0)
(-0.295454 -0.00141812 0)
(-0.292621 -0.00455434 0)
(-0.288484 -0.00777646 0)
(-0.28304 -0.0110509 0)
(-0.276295 -0.0143403 0)
(-0.268269 -0.0176023 0)
(-0.258996 -0.020789 0)
(-0.248523 -0.0238484 0)
(-0.236917 -0.026725 0)
(-0.224261 -0.0293603 0)
(-0.210658 -0.031694 0)
(-0.196227 -0.0336665 0)
(-0.181112 -0.0352207 0)
(-0.165472 -0.0363055 0)
(-0.149486 -0.0368777 0)
(-0.133347 -0.036906 0)
(-0.117262 -0.0363735 0)
(-0.101443 -0.0352803 0)
(-0.0861071 -0.0336451 0)
(-0.071465 -0.0315064 0)
(-0.0577168 -0.0289216 0)
(-0.0450432 -0.0259656 0)
(-0.0335991 -0.0227272 0)
(-0.0235072 -0.0193055 0)
(-0.0148523 -0.0158042 0)
(-0.00767866 -0.0123265 0)
(-0.00198785 -0.00897057 0)
(0.00226074 -0.00582537 0)
(0.00514807 -0.00296918 0)
(0.00679235 -0.000469863 0)
(0.00734592 0.00161199 0)
(0.00699158 0.00321754 0)
(0.00594184 0.00428208 0)
(0.00443704 0.00472888 0)
(0.00274302 0.00446674 0)
(0.00118337 0.00339694 0)
(0.000122808 0.00143962 0)
(4.16579e-06 -4.07776e-05 0)
(0.000100634 -0.0002287 0)
(0.000304421 -0.000474653 0)
(0.000613608 -0.000739924 0)
(0.00102473 -0.00100095 0)
(0.00153199 -0.0012434 0)
(0.00212647 -0.00145898 0)
(0.00279731 -0.00164325 0)
(0.00353239 -0.0017942 0)
(0.00431903 -0.00191145 0)
(0.00514444 -0.00199569 0)
(0.00599606 -0.00204834 0)
(0.00686189 -0.00207131 0)
(0.00773062 -0.00206688 0)
(0.00859181 -0.00203755 0)
(0.009436 -0.00198596 0)
(0.0102547 -0.00191486 0)
(0.0110405 -0.00182699 0)
(0.011787 -0.00172507 0)
(0.0124888 -0.00161178 0)
(0.0131416 -0.00148967 0)
(0.013742 -0.00136119 0)
(0.0142875 -0.00122862 0)