/*--------------------------------*- C++ -*----------------------------------*\
  =========                 |
  \\      /  F ield         | OpenFOAM: The Open Source CFD Toolbox
   \\    /   O peration     | Website:  https://openfoam.org
    \\  /    A nd           | Version:  12
     \\/     M anipulation  |
\*---------------------------------------------------------------------------*/
FoamFile
{
    format      ascii;
    class       volScalarField;
    location    "5";
    object      epsilon;
}
// * * * * * * * * * * * * * * * * * * * * * * * * * * * * * * * * * * * * * //

dimensions      [0 2 -3 0 0 0 0];

internalField   nonuniform List<scalar> 
5625
(
4.69941e-07
3.17859e-06
7.07423e-06
1.17037e-05
1.6851e-05
2.23808e-05
2.82022e-05
3.42564e-05
4.05137e-05
4.6971e-05
5.36512e-05
6.06015e-05
6.78922e-05
7.56153e-05
8.38822e-05
9.28225e-05
0.000102582
0.00011332
0.000125209
0.000138432
0.000153181
0.000169654
0.000188056
0.000208593
0.000231473
0.000256903
0.000285085
0.000316216
0.000350483
0.000388064
0.000429121
0.000473805
0.000522246
0.000574559
0.000630839
0.000691159
0.00075557
0.0008241
0.000896745
0.00097347
0.00105419
0.00113878
0.00122702
0.00131861
0.00141313
0.00150997
0.00160835
0.00170723
0.00180527
0.00190078
0.00199171
0.00207554
0.0021493
0.00220932
0.00224999
0.00226827
0.00226904
0.00224
0.00217952
0.00208734
0.0019644
0.00181346
0.00163935
0.0014488
0.00124984
0.00105096
0.000860134
0.000683896
0.00052674
0.000390886
0.000276482
0.000182157
0.000105929
4.65617e-05
6.85823e-06
8.87972e-07
1.73128e-06
3.46867e-06
5.61449e-06
8.02423e-06
1.06235e-05
1.33659e-05
1.62224e-05
1.91783e-05
2.22321e-05
2.53943e-05
2.86872e-05
3.21441e-05
3.58085e-05
3.97332e-05
4.39797e-05
4.86174e-05
5.37223e-05
5.93766e-05
6.56676e-05
7.26874e-05
8.05314e-05
8.92981e-05
9.90876e-05
0.000110001
0.000122139
0.000135602
0.000150488
0.000166889
0.000184897
0.000204594
0.000226058
0.000249361
0.000274563
0.000301717
0.000330865
0.000362039
0.000395255
0.000430516
0.000467804
0.000507075
0.000548257
0.000591232
0.000635834
0.000681826
0.000728885
0.000776585
0.000824373
0.000871546
0.000917236
0.000960388
0.00099975
0.00103385
0.00106093
0.00107831
0.00108512
0.00108296
0.00106669
0.00103566
0.0009899
0.00093004
0.000857517
0.000774655
0.000684573
0.000590926
0.000497536
0.000407976
0.000325185
0.000251204
0.000187077
0.000132938
8.82743e-05
5.2408e-05
2.54904e-05
1.29466e-05
1.88654e-06
1.68732e-06
2.67359e-06
4.06457e-06
5.68016e-06
7.44628e-06
9.32288e-06
1.12868e-05
1.33266e-05
1.54404e-05
1.76355e-05
1.99273e-05
2.23389e-05
2.49008e-05
2.76502e-05
3.06306e-05
3.38911e-05
3.7486e-05
4.14742e-05
4.59191e-05
5.08877e-05
5.64502e-05
6.26798e-05
6.9652e-05
7.7444e-05
8.61341e-05
9.58014e-05
0.000106524
0.000118381
0.000131448
0.000145798
0.000161501
0.000178623
0.000197222
0.00021735
0.000239051
0.000262357
0.000287284
0.000313833
0.000341984
0.000371687
0.00040286
0.000435377
0.000469063
0.000503679
0.000538911
0.000574362
0.000609536
0.000643829
0.000676524
0.00070679
0.000733679
0.000756118
0.000772818
0.000781796
0.000783692
0.00077828
0.000762945
0.000737444
0.000702018
0.0006573
0.000604427
0.000545067
0.000481344
0.000415673
0.000350535
0.000288225
0.000230632
0.000179082
0.000134288
9.64221e-05
6.5332e-05
4.10054e-05
2.48872e-05
2.73964e-05
3.08695e-06
2.02267e-06
2.52951e-06
3.50589e-06
4.71759e-06
6.07683e-06
7.54074e-06
9.08625e-06
1.07022e-05
1.23863e-05
1.41441e-05
1.59878e-05
1.79365e-05
2.00151e-05
2.22543e-05
2.46905e-05
2.73648e-05
3.03233e-05
3.36166e-05
3.72997e-05
4.14313e-05
4.60744e-05
5.12954e-05
5.71642e-05
6.37538e-05
7.11398e-05
7.94006e-05
8.8616e-05
9.88673e-05
0.000110236
0.000122802
0.000136645
0.000151836
0.000168446
0.000186532
0.000206141
0.000227305
0.000250034
0.000274314
0.000300097
0.000327303
0.000355803
0.000385418
0.000415913
0.000446988
0.000478276
0.00050934
0.000539669
0.000568675
0.000595701
0.000620032
0.000640904
0.000657523
0.000668464
0.000672859
0.000671786
0.000663966
0.000648124
0.000624161
0.000592343
0.000553225
0.000507756
0.000457292
0.000403552
0.000348485
0.000294092
0.000242217
0.000194372
0.000151615
0.000114534
8.33409e-05
5.81149e-05
3.93604e-05
2.96985e-05
4.45081e-05
4.45319e-06
2.54355e-06
2.66696e-06
3.34963e-06
4.29771e-06
5.40499e-06
6.62246e-06
7.92489e-06
9.30021e-06
1.07455e-05
1.2265e-05
1.38698e-05
1.55768e-05
1.74085e-05
1.93931e-05
2.15637e-05
2.3959e-05
2.66224e-05
2.96021e-05
3.29514e-05
3.67284e-05
4.09963e-05
4.58229e-05
5.12812e-05
5.7449e-05
6.44084e-05
7.22464e-05
8.10533e-05
9.09227e-05
0.00010195
0.000114229
0.000127853
0.000142908
0.00015947
0.000177603
0.000197351
0.000218732
0.000241733
0.000266302
0.000292341
0.000319703
0.000348187
0.000377527
0.000407403
0.000437438
0.000467204
0.000496233
0.000524019
0.000550018
0.000573669
0.000594401
0.000611646
0.000624851
0.000632458
0.00063479
0.000632405
0.0006239
0.000608445
0.000585839
0.000556139
0.000519722
0.000477328
0.000430128
0.000379692
0.000327882
0.000276653
0.000227835
0.00018293
0.000142985
0.00010859
8.00093e-05
5.74865e-05
4.19369e-05
3.70374e-05
6.35527e-05
5.96102e-06
3.18318e-06
2.96683e-06
3.41409e-06
4.16601e-06
5.09651e-06
6.14878e-06
7.29451e-06
8.52018e-06
9.82204e-06
1.12039e-05
1.26759e-05
1.42543e-05
1.59611e-05
1.78237e-05
1.98749e-05
2.21533e-05
2.47029e-05
2.75733e-05
3.08201e-05
3.45049e-05
3.86957e-05
4.3467e-05
4.89001e-05
5.50829e-05
6.21101e-05
7.00825e-05
7.91067e-05
8.92931e-05
0.000100755
0.000113604
0.000127946
0.000143867
0.000161453
0.000180761
0.000201816
0.000224604
0.000249062
0.000275075
0.000302467
0.000331003
0.00036039
0.000390265
0.000420227
0.000449842
0.000478657
0.000506223
0.000532106
0.000555868
0.000577104
0.000595432
0.000610475
0.000621902
0.000628427
0.000630479
0.000628534
0.000621065
0.00060726
0.000586676
0.00055907
0.000524487
0.000483413
0.000436863
0.000386382
0.00033394
0.000281706
0.000231773
0.000185884
0.000145268
0.000110626
8.22975e-05
6.06539e-05
4.69576e-05
4.58559e-05
8.39683e-05
7.59617e-06
3.91194e-06
3.37718e-06
3.62258e-06
4.21703e-06
5.01442e-06
5.94915e-06
6.98904e-06
8.11903e-06
9.33464e-06
1.06393e-05
1.20433e-05
1.35628e-05
1.52203e-05
1.7044e-05
1.90681e-05
2.1333e-05
2.38856e-05
2.67794e-05
3.0075e-05
3.38406e-05
3.81525e-05
4.30953e-05
4.87627e-05
5.52557e-05
6.26844e-05
7.11677e-05
8.08303e-05
9.18013e-05
0.000104211
0.000118187
0.000133848
0.000151295
0.000170599
0.000191793
0.000214863
0.000239739
0.000266281
0.000294277
0.000323444
0.000353427
0.000383816
0.000414174
0.000444045
0.000472983
0.000500577
0.000526464
0.000550345
0.000572008
0.000591285
0.000608036
0.000622116
0.000633291
0.000640875
0.000644309
0.00064443
0.000639683
0.000628971
0.000611457
0.000586462
0.000553656
0.000513238
0.000466066
0.000413704
0.000358327
0.000302468
0.00024866
0.000199089
0.000155335
0.000118328
8.85368e-05
6.64489e-05
5.36394e-05
5.56551e-05
0.000105351
9.35093e-06
4.71507e-06
3.87143e-06
3.93601e-06
4.39834e-06
5.09114e-06
5.9396e-06
6.90768e-06
7.97842e-06
9.14662e-06
1.04157e-05
1.17962e-05
1.33054e-05
1.4967e-05
1.6811e-05
1.88744e-05
2.12009e-05
2.3842e-05
2.68569e-05
3.03133e-05
3.42884e-05
3.88693e-05
4.41533e-05
5.0249e-05
5.72765e-05
6.53653e-05
7.46538e-05
8.52878e-05
9.7416e-05
0.000111185
0.000126729
0.000144169
0.000163598
0.000185059
0.000208542
0.000233969
0.000261179
0.000289928
0.000319884
0.00035064
0.000381729
0.000412653
0.000442922
0.00047208
0.000499744
0.000525626
0.000549547
0.000571436
0.00059132
0.000609271
0.000625359
0.000639585
0.000651799
0.000661613
0.000668478
0.000671544
0.000670727
0.000664154
0.000650555
0.000628747
0.000598005
0.000558217
0.000510048
0.000455054
0.000395608
0.000334644
0.000275238
0.00022015
0.00017147
0.000130487
9.78818e-05
7.42841e-05
6.15712e-05
6.61599e-05
0.000127415
1.12219e-05
5.58497e-06
4.43476e-06
4.33205e-06
4.68046e-06
5.28908e-06
6.07397e-06
6.99489e-06
8.03307e-06
9.1827e-06
1.04474e-05
1.18385e-05
1.33747e-05
1.50817e-05
1.69923e-05
1.9147e-05
2.15944e-05
2.43919e-05
2.76065e-05
3.13153e-05
3.56066e-05
4.05806e-05
4.63503e-05
5.30409e-05
6.07912e-05
6.97517e-05
8.00819e-05
9.19472e-05
0.000105513
0.000120938
0.000138359
0.000157886
0.000179582
0.000203445
0.000229393
0.000257253
0.000286751
0.000317511
0.000349069
0.000380896
0.000412432
0.000443132
0.000472515
0.000500204
0.00052596
0.000549695
0.000571475
0.000591485
0.000609994
0.000627282
0.000643571
0.000658947
0.000673286
0.000686214
0.000697151
0.000704823
0.000707934
0.000706064
0.000696953
0.000678858
0.000650667
0.000611939
0.000563084
0.000505555
0.000441833
0.0003752
0.000309284
0.000247511
0.000192613
0.000146391
0.000109851
8.38258e-05
7.052e-05
7.72098e-05
0.000149976
1.32086e-05
6.51794e-06
5.05858e-06
4.7973e-06
5.04532e-06
5.58527e-06
6.32425e-06
7.21746e-06
8.24427e-06
9.39844e-06
1.0684e-05
1.21134e-05
1.37072e-05
1.54938e-05
1.75097e-05
1.98e-05
2.24193e-05
2.54322e-05
2.89147e-05
3.29546e-05
3.76533e-05
4.31259e-05
4.95024e-05
5.69273e-05
6.55597e-05
7.5571e-05
8.71408e-05
0.000100452
0.000115682
0.000132992
0.000152511
0.00017432
0.000198433
0.000224774
0.000253165
0.00028331
0.000314798
0.000347111
0.000379657
0.000411807
0.000442954
0.000472567
0.000500254
0.000525796
0.000549168
0.000570537
0.000590228
0.00060867
0.000626328
0.000643619
0.000660834
0.000678067
0.000695153
0.000711636
0.000726752
0.000739354
0.000747135
0.000749395
0.000745102
0.000731183
0.000706164
0.000669271
0.000620579
0.000561297
0.000493858
0.000421753
0.000349104
0.000280034
0.000218038
0.000165582
0.000124149
9.48751e-05
8.03497e-05
8.87166e-05
0.000172952
1.53128e-05
7.51262e-06
5.73794e-06
5.32348e-06
5.48126e-06
5.9649e-06
6.67245e-06
7.55403e-06
8.58726e-06
9.76548e-06
1.10933e-05
1.25849e-05
1.42629e-05
1.61591e-05
1.83143e-05
2.07792e-05
2.36151e-05
2.68954e-05
3.07061e-05
3.51475e-05
4.03352e-05
4.64009e-05
5.3493e-05
6.1776e-05
7.14298e-05
8.26459e-05
9.56219e-05
0.000110554
0.000127623
0.000146982
0.000168735
0.000192915
0.000219464
0.000248207
0.00027884
0.000310926
0.000343906
0.000377125
0.000409886
0.000441505
0.000471392
0.000499109
0.000524429
0.000547356
0.000568126
0.000587168
0.000605044
0.000622366
0.000639718
0.000657564
0.000676182
0.000695607
0.000715585
0.000735557
0.000754628
0.000771548
0.000784465
0.000790427
0.000790643
0.000781309
0.000760156
0.000726098
0.000678796
0.000619061
0.000549072
0.000472335
0.000393323
0.000316832
0.000247208
0.000187751
0.000140593
0.000107313
9.09836e-05
0.000100623
0.000196258
1.7538e-05
8.5692e-06
6.47021e-06
5.90538e-06
5.98055e-06
6.41822e-06
7.10655e-06
7.99042e-06
9.04559e-06
1.02651e-05
1.16544e-05
1.32294e-05
1.50156e-05
1.70485e-05
1.93739e-05
2.20487e-05
2.51424e-05
2.87376e-05
3.2932e-05
3.78394e-05
4.35907e-05
5.03354e-05
5.82409e-05
6.74923e-05
7.82894e-05
9.08418e-05
0.000105361
0.000122049
0.00014108
0.000162587
0.000186627
0.000213166
0.000242047
0.000272971
0.000305491
0.000339017
0.000372846
0.000406209
0.000438348
0.000468592
0.000496437
0.000521616
0.00054413
0.000564248
0.000582469
0.000599453
0.000615933
0.000632623
0.000650131
0.000668887
0.000689089
0.000710671
0.000733284
0.000756283
0.000778704
0.000799258
0.000816439
0.000826934
0.000830424
0.000826
0.000809397
0.000779255
0.00073477
0.000676208
0.000605279
0.000525256
0.000440761
0.000357163
0.000279706
0.000212684
0.000159077
0.000121075
0.000102387
0.000112905
0.000219879
1.98889e-05
9.68897e-06
7.25432e-06
6.53984e-06
6.5381e-06
6.9386e-06
7.61837e-06
8.51693e-06
9.60809e-06
1.08847e-05
1.2353e-05
1.40311e-05
1.59476e-05
1.81424e-05
2.06667e-05
2.35847e-05
2.69744e-05
3.09291e-05
3.55587e-05
4.09915e-05
4.73752e-05
5.48772e-05
6.36845e-05
7.40018e-05
8.6047e-05
0.000100044
0.000116213
0.000134752
0.000155819
0.000179503
0.000205801
0.000234585
0.000265577
0.000298337
0.000332262
0.000366613
0.000400563
0.000433274
0.000463987
0.000492113
0.000517314
0.000539553
0.000559095
0.000576477
0.000592427
0.000607771
0.000623329
0.000639825
0.000657808
0.000677607
0.000699304
0.000722724
0.000747438
0.000772761
0.000797739
0.000821145
0.000841604
0.000856509
0.000863117
0.000863191
0.000851723
0.000826501
0.000786264
0.000730625
0.000660624
0.000579034
0.000490359
0.000400367
0.000315182
0.000240223
0.000179545
0.000136138
0.000114555
0.000125568
0.000243839
2.23715e-05
1.0874e-05
8.09027e-06
7.22513e-06
7.1506e-06
7.52163e-06
8.20231e-06
9.12691e-06
1.02671e-05
1.16154e-05
1.31794e-05
1.49792e-05
1.7047e-05
1.94274e-05
2.21779e-05
2.53703e-05
2.90922e-05
3.3448e-05
3.8561e-05
4.45748e-05
5.1654e-05
5.99843e-05
6.97718e-05
8.12391e-05
9.46196e-05
0.000110147
0.00012804
0.000148484
0.000171602
0.000197427
0.000225871
0.000256691
0.000289472
0.000323619
0.000358375
0.000392872
0.000426198
0.000457501
0.000486092
0.000511536
0.000533722
0.000552878
0.000569541
0.00058448
0.00059859
0.000612781
0.000627869
0.000644504
0.000663119
0.000683906
0.00070682
0.000731592
0.000757747
0.000784614
0.000811304
0.000836715
0.000859566
0.000877987
0.000888651
0.000891928
0.000885997
0.000866484
0.000831742
0.00078069
0.00071355
0.000632335
0.000541119
0.000445811
0.000353307
0.000270244
0.000201967
0.000152513
0.000127508
0.000138633
0.000268192
2.49927e-05
1.2127e-05
8.97883e-06
7.96054e-06
7.81624e-06
8.16432e-06
8.8546e-06
9.81588e-06
1.10175e-05
1.24516e-05
1.41269e-05
1.60661e-05
1.83053e-05
2.0894e-05
2.38967e-05
2.73933e-05
3.14815e-05
3.62778e-05
4.19193e-05
4.85651e-05
5.63971e-05
6.5619e-05
7.64545e-05
8.91419e-05
0.000103925
0.000121041
0.000140699
0.000163056
0.000188188
0.00021605
0.00024645
0.000279014
0.000313175
0.000348185
0.00038315
0.000417103
0.000449102
0.000478347
0.000504286
0.000526703
0.000545748
0.000561925
0.000576012
0.000588952
0.00060173
0.000615251
0.000630251
0.000647246
0.000666521
0.000688119
0.000711884
0.000737482
0.000764429
0.000792109
0.000819746
0.000846396
0.000870967
0.000891874
0.000906585
0.000912868
0.000912011
0.00089867
0.000870334
0.000825263
0.000762791
0.000683955
0.000592068
0.000492841
0.000393739
0.000302624
0.000226332
0.000170227
0.000141282
0.000152138
0.00029301
2.77602e-05
1.34513e-05
9.92139e-06
8.74613e-06
8.53412e-06
8.8649e-06
9.57284e-06
1.05809e-05
1.18557e-05
1.33892e-05
1.51912e-05
1.7287e-05
1.97168e-05
2.25358e-05
2.58153e-05
2.96444e-05
3.41312e-05
3.94046e-05
4.56161e-05
5.29405e-05
6.15764e-05
7.17446e-05
8.36842e-05
9.76456e-05
0.000113878
0.000132613
0.00015404
0.000178275
0.000205326
0.000235057
0.000267153
0.000301096
0.000336169
0.000371479
0.000406023
0.000438784
0.000468849
0.000495537
0.000518497
0.000537768
0.000553777
0.000567279
0.000579239
0.000590706
0.000602667
0.000615959
0.000631172
0.000648652
0.000668537
0.000690732
0.000714993
0.000740954
0.000768151
0.000796034
0.000823964
0.000851178
0.000876779
0.000899403
0.000917454
0.000927546
0.00093032
0.000923253
0.000901797
0.00086368
0.000807377
0.000732818
0.000642241
0.000540761
0.000436088
0.000337217
0.000252634
0.000189319
0.000155926
0.000166125
0.000318372
3.06826e-05
1.48504e-05
1.09198e-05
9.58256e-06
9.30405e-06
9.62247e-06
1.03557e-05
1.14202e-05
1.27798e-05
1.44258e-05
1.63693e-05
1.86384e-05
2.12774e-05
2.43475e-05
2.79276e-05
3.21159e-05
3.70314e-05
4.28159e-05
4.9635e-05
5.76792e-05
6.71631e-05
7.83226e-05
9.14095e-05
0.000106682
0.000124387
0.000144742
0.000167905
0.000193935
0.000222759
0.000254133
0.000287605
0.000322514
0.000357995
0.000393036
0.000426565
0.00045757
0.000485231
0.000509045
0.000528905
0.000545123
0.00055839
0.000569664
0.000580029
0.000590586
0.000602261
0.000615675
0.000631298
0.00064933
0.000669755
0.000692362
0.00071685
0.000742842
0.00076992
0.000797621
0.000825425
0.000852743
0.000878849
0.000902613
0.000922808
0.00093684
0.000942621
0.000941033
0.000926463
0.000895752
0.00084667
0.000778013
0.000690695
0.000588813
0.000479894
0.000373836
0.000280852
0.000209828
0.000171494
0.000180643
0.000344359
3.37689e-05
1.63283e-05
1.19763e-05
1.0471e-05
1.01264e-05
1.04369e-05
1.12027e-05
1.23332e-05
1.37888e-05
1.55601e-05
1.76596e-05
2.0118e-05
2.29842e-05
2.63254e-05
3.02284e-05
3.48007e-05
4.01728e-05
4.6499e-05
5.39592e-05
6.27586e-05
7.31263e-05
8.53113e-05
9.95742e-05
0.000116175
0.000135352
0.000157298
0.000182126
0.000209826
0.000240229
0.000272969
0.000307457
0.000342887
0.000378267
0.000412499
0.000444492
0.000473295
0.000498241
0.000519051
0.000535885
0.000549323
0.00056028
0.000569862
0.000579317
0.00058948
0.000601184
0.000615023
0.000631256
0.000649883
0.000670803
0.000693713
0.000718274
0.000744124
0.000770902
0.000798238
0.000825716
0.00085289
0.000879161
0.000903562
0.000925038
0.000942031
0.000951116
0.000953269
0.000945164
0.000921766
0.000880397
0.000818844
0.000736549
0.000636198
0.000524614
0.000412228
0.000310936
0.000231791
0.000188038
0.000195739
0.000371046
3.70289e-05
1.78896e-05
1.30934e-05
1.14129e-05
1.10021e-05
1.13086e-05
1.2114e-05
1.33196e-05
1.48823e-05
1.67917e-05
1.90612e-05
2.17245e-05
2.4835e-05
2.84662e-05
3.27128e-05
3.76921e-05
4.35457e-05
5.04406e-05
5.85702e-05
6.81534e-05
7.94321e-05
9.26649e-05
0.000108117
0.000126044
0.000146667
0.000170144
0.00019653
0.000225734
0.000257481
0.000291275
0.000326391
0.000361891
0.000396684
0.000429628
0.000459663
0.000485958
0.000508045
0.000525897
0.000539945
0.000551008
0.00056019
0.000568799
0.000577665
0.000587873
0.000600063
0.000614609
0.000631573
0.000650888
0.000672312
0.000695499
0.000720103
0.00074579
0.000772254
0.000799192
0.000826281
0.000853174
0.000879368
0.000904036
0.00092631
0.000944969
0.000957224
0.00096192
0.000959143
0.000942451
0.000908688
0.000854895
0.000779046
0.000682101
0.000569631
0.000452067
0.000342795
0.000255232
0.000205609
0.000211457
0.0003985
4.0473e-05
1.95387e-05
1.42739e-05
1.24102e-05
1.19324e-05
1.22384e-05
1.30902e-05
1.438e-05
1.60607e-05
1.81205e-05
2.05737e-05
2.34568e-05
2.68277e-05
3.07665e-05
3.53758e-05
4.07826e-05
4.71395e-05
5.46259e-05
6.34476e-05
7.38357e-05
8.60423e-05
0.000100332
0.00011697
0.0001362
0.000158218
0.000183136
0.000210941
0.000241451
0.000274274
0.000308788
0.000344136
0.000379272
0.000413039
0.000444299
0.000472074
0.000495701
0.000514943
0.000530038
0.00054167
0.00055087
0.000558966
0.00056686
0.000575774
0.000586488
0.000599482
0.000614917
0.000632756
0.000652878
0.00067487
0.000698398
0.000723123
0.000748744
0.000774998
0.00080164
0.00082841
0.000855029
0.000881055
0.000905759
0.00092839
0.000947872
0.00096238
0.000969156
0.000969917
0.000958925
0.000932076
0.000886086
0.000817622
0.000725752
0.000614266
0.000492947
0.000376288
0.000280157
0.000224242
0.000227837
0.000426774
4.4112e-05
2.12807e-05
1.5521e-05
1.34649e-05
1.2919e-05
1.32278e-05
1.41325e-05
1.55156e-05
1.7325e-05
1.95472e-05
2.21972e-05
2.53141e-05
2.89606e-05
3.32229e-05
3.82118e-05
4.40639e-05
5.09424e-05
5.9038e-05
6.85681e-05
7.97739e-05
9.29149e-05
0.000108258
0.000126062
0.000146552
0.000169889
0.000196131
0.000225187
0.000256775
0.000290388
0.000325277
0.000360473
0.000394849
0.000427222
0.000456502
0.000481841
0.000502782
0.000519334
0.000531991
0.000541655
0.000549666
0.000556945
0.000564821
0.000574237
0.000585822
0.00059984
0.00061634
0.000635296
0.000656306
0.00067898
0.000702977
0.000727972
0.000753694
0.000779919
0.000806448
0.000833066
0.000859533
0.000885441
0.000910108
0.000932834
0.000952617
0.000968191
0.000976717
0.000979273
0.000972606
0.000951475
0.000912705
0.000851976
0.000766486
0.00065782
0.000534391
0.000411218
0.000306554
0.000243952
0.000244911
0.000455908
4.79575e-05
2.31208e-05
1.68378e-05
1.45794e-05
1.39636e-05
1.42782e-05
1.52424e-05
1.67276e-05
1.86762e-05
2.10726e-05
2.39318e-05
2.72957e-05
3.12314e-05
3.58314e-05
4.12145e-05
4.75263e-05
5.49404e-05
6.36578e-05
7.39057e-05
8.59331e-05
0.000100004
0.000116382
0.000135314
0.000157
0.000181558
0.000208983
0.0002391
0.000271523
0.000305629
0.000340557
0.000375247
0.000408521
0.000439213
0.000466324
0.000489178
0.00050754
0.000521672
0.0005323
0.00054066
0.000547712
0.000554862
0.000563192
0.000573505
0.000586207
0.000601456
0.000619353
0.000639502
0.000661517
0.00068501
0.000709631
0.000735071
0.000761089
0.000787499
0.000814139
0.000840828
0.00086735
0.000893304
0.000918019
0.000940782
0.000960621
0.000976424
0.000985766
0.000989151
0.000985091
0.000968115
0.000935412
0.000882122
0.000803812
0.000699619
0.000575863
0.000447326
0.000334399
0.000264713
0.000262706
0.000485926
5.2023e-05
2.5065e-05
1.8228e-05
1.57562e-05
1.50684e-05
1.53917e-05
1.64218e-05
1.80179e-05
2.0116e-05
2.26975e-05
2.57777e-05
2.94005e-05
3.36375e-05
3.85873e-05
4.43763e-05
5.1159e-05
5.9118e-05
6.84637e-05
7.94312e-05
9.22748e-05
0.000107258
0.000124639
0.000144646
0.000167445
0.000193107
0.000221555
0.000252526
0.00028553
0.000319838
0.00035449
0.000388361
0.000420259
0.000449075
0.000473938
0.000494369
0.000510368
0.000522437
0.000531608
0.0005389
0.000545684
0.000553189
0.000562386
0.000573865
0.000587909
0.000604782
0.000624123
0.000645574
0.000668724
0.00069317
0.000718562
0.000744612
0.000771112
0.00079791
0.000824883
0.000851884
0.000878713
0.000904969
0.000929954
0.00095289
0.000972739
0.000988376
0.000997659
0.00100117
0.000998029
0.000983442
0.000955193
0.000908414
0.000837476
0.000739068
0.000616792
0.000484289
0.000363595
0.000286527
0.000281239
0.000516839
5.63206e-05
2.71188e-05
1.96952e-05
1.69981e-05
1.62356e-05
1.65704e-05
1.76727e-05
1.93883e-05
2.16458e-05
2.44232e-05
2.7735e-05
3.16273e-05
3.61757e-05
4.14849e-05
4.76885e-05
5.49489e-05
6.34573e-05
7.34316e-05
8.51127e-05
9.87574e-05
0.000114626
0.000132964
0.000153975
0.00017779
0.000204421
0.000233717
0.000265327
0.000298661
0.000332893
0.000366988
0.000399782
0.000430107
0.000456943
0.00047958
0.000497749
0.000511685
0.000522131
0.000530174
0.000537022
0.00054402
0.000552303
0.000562666
0.000575526
0.000591352
0.000609866
0.000630758
0.000653617
0.000678003
0.000703504
0.000729777
0.000756561
0.000783681
0.000811029
0.000838528
0.000866067
0.000893472
0.000920339
0.000945927
0.00096935
0.000989418
0.00100483
0.0010135
0.00101663
0.00101298
0.000999007
0.000973297
0.000931533
0.000867503
0.000775708
0.00065661
0.000521729
0.000393993
0.000309393
0.000300517
0.000548645
6.08631e-05
2.92882e-05
2.12432e-05
1.83079e-05
1.74678e-05
1.78166e-05
1.89975e-05
2.08411e-05
2.32674e-05
2.62503e-05
2.98033e-05
3.39741e-05
3.88421e-05
4.45175e-05
5.11407e-05
5.88816e-05
6.79383e-05
7.85349e-05
9.09156e-05
0.000105336
0.00012205
0.000141287
0.00016322
0.000187938
0.000215391
0.000245355
0.000277387
0.00031081
0.000344714
0.000378012
0.000409535
0.000438166
0.000463008
0.000483531
0.000499677
0.000511891
0.000521175
0.000528548
0.000535431
0.000543068
0.000552463
0.000564172
0.000578896
0.000596505
0.000616761
0.000639284
0.000663615
0.000689292
0.0007159
0.000743108
0.000770685
0.0007985
0.000826498
0.000854658
0.000882924
0.000911156
0.000938964
0.00096556
0.000989932
0.00101068
0.0010261
0.00103402
0.00103649
0.00103131
0.00101634
0.000991132
0.000952452
0.000894215
0.000809271
0.00069479
0.000559228
0.000425416
0.000333279
0.000320542
0.000581327
6.56642e-05
3.15793e-05
2.2876e-05
1.96886e-05
1.87677e-05
1.91331e-05
2.03987e-05
2.23784e-05
2.49826e-05
2.81799e-05
3.19823e-05
3.64385e-05
4.16317e-05
4.76772e-05
5.47214e-05
6.29407e-05
7.25391e-05
8.37447e-05
9.6803e-05
0.000111966
0.000129475
0.00014954
0.000172301
0.000197798
0.00022592
0.000256367
0.000288614
0.000321902
0.000355261
0.000387574
0.000417695
0.00044459
0.000467504
0.000486097
0.000500525
0.000511474
0.000519897
0.000527113
0.000534455
0.000543097
0.000553736
0.000567309
0.000583906
0.000603388
0.000625444
0.000649629
0.000675446
0.000702411
0.000730113
0.00075824
0.000786598
0.000815109
0.000843785
0.000872677
0.0009018
0.000931071
0.000960133
0.000988168
0.00101404
0.00103615
0.00105205
0.00105954
0.00106132
0.00105408
0.00103682
0.00101016
0.000972357
0.000918221
0.000839711
0.000730887
0.000596353
0.000457652
0.000358131
0.000341303
0.000614863
7.07384e-05
3.39987e-05
2.45977e-05
2.11436e-05
2.01381e-05
2.05225e-05
2.1879e-05
2.40027e-05
2.67931e-05
3.02125e-05
3.42708e-05
3.90175e-05
4.45388e-05
5.09547e-05
5.84173e-05
6.71081e-05
7.72358e-05
8.90305e-05
0.000102736
0.000118598
0.000136844
0.000157657
0.000181142
0.000207289
0.000235924
0.000266674
0.00029894
0.000331898
0.000364534
0.000395728
0.000424382
0.000449568
0.000470689
0.000487593
0.000500619
0.00051064
0.000518708
0.00052618
0.00053435
0.000544105
0.000556529
0.000572011
0.000590552
0.000611951
0.000635815
0.000661641
0.000688896
0.000717086
0.000745804
0.000774765
0.00080382
0.000832956
0.000862265
0.00089189
0.000921937
0.000952397
0.000982976
0.00101286
0.00104081
0.00106501
0.00108229
0.00108998
0.0010913
0.00108201
0.0010616
0.00103177
0.000992564
0.000940382
0.000867227
0.000764579
0.000632669
0.000490455
0.000383868
0.000362784
0.000649217
7.61008e-05
3.65531e-05
2.64127e-05
2.26761e-05
2.15822e-05
2.19879e-05
2.34412e-05
2.57164e-05
2.87004e-05
3.23485e-05
3.66673e-05
4.1707e-05
4.75565e-05
5.43398e-05
6.22138e-05
7.13644e-05
8.20031e-05
9.43604e-05
0.000108676
0.000125187
0.0001441
0.000165574
0.000189674
0.000216338
0.000245333
0.000276217
0.000308328
0.000340791
0.00037257
0.000402565
0.000429749
0.000453317
0.000472836
0.000488339
0.00050036
0.000509796
0.000517904
0.000525995
0.00053513
0.000546501
0.000560815
0.000578254
0.000598777
0.000622085
0.00064771
0.000675099
0.000703691
0.000732981
0.000762575
0.000792221
0.000821828
0.000851457
0.000881295
0.00091159
0.000942559
0.000974291
0.00100658
0.00103865
0.0010692
0.00109621
0.00111609
0.00112491
0.00112623
0.0011154
0.00109153
0.00105722
0.00101442
0.000961752
0.000892259
0.000795701
0.000667769
0.000523551
0.000410392
0.000384959
0.000684347
8.17675e-05
3.92497e-05
2.83256e-05
2.42897e-05
2.31031e-05
2.35324e-05
2.50882e-05
2.7522e-05
3.07061e-05
3.45877e-05
3.91698e-05
4.45025e-05
5.0677e-05
5.78209e-05
6.60951e-05
7.56887e-05
8.68146e-05
9.97016e-05
0.000114584
0.000131684
0.000151192
0.000173234
0.000197837
0.000224887
0.000254094
0.000284959
0.000316765
0.000348604
0.000379438
0.000408209
0.000433975
0.000456068
0.000474214
0.000488617
0.000499946
0.000509219
0.000517724
0.000526603
0.000537141
0.000550317
0.000566547
0.000585982
0.000608472
0.000633629
0.000660919
0.000689742
0.000719514
0.000749728
0.000780009
0.000810147
0.000840115
0.000870062
0.000900277
0.000931127
0.000962955
0.000995968
0.00103008
0.0010646
0.00109817
0.00112864
0.00115239
0.00116358
0.00116561
0.0011542
0.0011271
0.00108751
0.00103921
0.000983503
0.000915469
0.000824265
0.000701301
0.000556643
0.000437581
0.000407789
0.0007202
8.77549e-05
4.20959e-05
3.03411e-05
2.59881e-05
2.47043e-05
2.51592e-05
2.68232e-05
2.94219e-05
3.28115e-05
3.69298e-05
4.17757e-05
4.73986e-05
5.38916e-05
6.13855e-05
7.00443e-05
8.00593e-05
9.16432e-05
0.000105021
0.00012042
0.000138047
0.000158071
0.000180586
0.000205579
0.00023289
0.000262176
0.000292886
0.000324266
0.00035539
0.000385237
0.000412806
0.000437256
0.000458055
0.000475086
0.000488703
0.000499694
0.000509144
0.000518231
0.000528288
0.000540488
0.000555491
0.000573682
0.0005951
0.000619491
0.00064639
0.0006752
0.000705284
0.000736039
0.000766964
0.000797709
0.000828116
0.000858231
0.000888295
0.000918708
0.000949961
0.000982536
0.00101677
0.00105273
0.00108984
0.00112679
0.00116129
0.00118989
0.00120503
0.00120867
0.00119798
0.00116843
0.00112335
0.00106808
0.00100685
0.000937699
0.000850472
0.000732991
0.000589422
0.000465298
0.000431229
0.000756713
9.40806e-05
4.50995e-05
3.24641e-05
2.77752e-05
2.63894e-05
2.68719e-05
2.86493e-05
3.14185e-05
3.50177e-05
3.93742e-05
4.44818e-05
5.03891e-05
5.71907e-05
6.50202e-05
7.40438e-05
8.44539e-05
9.64618e-05
0.000110288
0.000126148
0.000144235
0.000164693
0.000187586
0.000212862
0.000240317
0.000269561
0.000300006
0.00033087
0.000361226
0.000390086
0.00041652
0.000439795
0.000459513
0.0004757
0.000488839
0.000499791
0.000509633
0.000519685
0.000531216
0.000545107
0.000561992
0.00058214
0.000605479
0.000631664
0.000660154
0.000690303
0.00072144
0.000752953
0.000784352
0.000815324
0.000845769
0.000875811
0.000905788
0.000936211
0.000967699
0.00100087
0.00103622
0.00107396
0.0011137
0.00115421
0.00119325
0.00122727
0.00124811
0.0012545
0.00124599
0.00121529
0.00116513
0.00110197
0.00103297
0.00095992
0.000874706
0.000762665
0.000621581
0.000493386
0.000455221
0.000793811
0.000100763
4.82686e-05
3.46998e-05
2.96552e-05
2.81623e-05
2.86742e-05
3.05698e-05
3.35142e-05
3.73257e-05
4.19196e-05
4.72843e-05
5.34672e-05
6.05642e-05
6.87111e-05
7.80757e-05
8.88506e-05
0.000101244
0.000115471
0.000131735
0.000150212
0.000171023
0.000194202
0.000219659
0.000247153
0.000276256
0.000306348
0.000336638
0.000366211
0.000394123
0.000419526
0.000441798
0.000460665
0.000476277
0.000489209
0.000500375
0.00051097
0.000522279
0.000535333
0.000550989
0.000569765
0.000591817
0.000616973
0.000644804
0.000674703
0.00070598
0.000737941
0.000769971
0.000801604
0.00083257
0.000862831
0.000892594
0.000922293
0.000952549
0.000984103
0.00101772
0.00105403
0.00109341
0.00113569
0.00117981
0.0012236
0.00126349
0.00129164
0.00130217
0.00129726
0.00126714
0.00121292
0.00114155
0.00106295
0.00098317
0.000897516
0.000790268
0.000652825
0.000521673
0.000479695
0.00083141
0.000107821
5.16116e-05
3.70534e-05
3.16322e-05
3.00268e-05
3.05697e-05
3.25879e-05
3.57114e-05
3.97361e-05
4.45645e-05
5.0179e-05
5.66257e-05
6.40014e-05
7.24439e-05
8.21221e-05
9.32277e-05
0.000105966
0.000120543
0.000137151
0.000155949
0.000177034
0.00020041
0.000225958
0.0002534
0.000282281
0.000311962
0.000341651
0.000370458
0.000397498
0.000422005
0.000443466
0.000461723
0.000477032
0.000490035
0.000501723
0.000513333
0.000525982
0.000540652
0.000558098
0.00057873
0.000602594
0.000629428
0.000658726
0.000689826
0.000722003
0.000754549
0.000786858
0.000818494
0.000849238
0.000879119
0.000908427
0.000937686
0.000967622
0.000999088
0.00103297
0.00107007
0.00111092
0.00115557
0.00120318
0.00125173
0.00129767
0.0013343
0.0013508
0.00135063
0.00132314
0.00126644
0.00118723
0.00109769
0.0010085
0.000919589
0.000815874
0.000682889
0.000549981
0.000504571
0.000869408
0.000115275
5.51375e-05
3.95307e-05