/*--------------------------------*- C++ -*----------------------------------*\
  =========                 |
  \\      /  F ield         | OpenFOAM: The Open Source CFD Toolbox
   \\    /   O peration     | Website:  https://openfoam.org
    \\  /    A nd           | Version:  12
     \\/     M anipulation  |
\*---------------------------------------------------------------------------*/
FoamFile
{
    format      ascii;
    class       volScalarField;
    location    "5";
    object      nut;
}
// * * * * * * * * * * * * * * * * * * * * * * * * * * * * * * * * * * * * * //

dimensions      [0 2 -1 0 0 0 0];

internalField   nonuniform List<scalar> 
5625
(
8.34043e-15
5.64131e-14
1.25552e-13
2.07716e-13
2.99069e-13
3.97212e-13
5.00529e-13
6.07979e-13
7.19034e-13
8.3364e-13
9.52201e-13
1.07556e-12
1.20495e-12
1.34203e-12
1.48875e-12
1.64743e-12
1.82064e-12
2.01122e-12
2.22223e-12
2.45692e-12
2.71869e-12
3.01106e-12
3.33767e-12
3.70217e-12
4.10827e-12
4.55962e-12
5.05982e-12
5.61236e-12
6.22058e-12
6.88761e-12
7.61635e-12
8.40945e-12
9.26926e-12
1.01978e-11
1.11967e-11
1.22674e-11
1.34107e-11
1.4627e-11
1.59165e-11
1.72783e-11
1.87111e-11
2.02125e-11
2.17788e-11
2.34045e-11
2.5082e-11
2.68009e-11
2.85471e-11
3.03022e-11
3.20423e-11
3.37377e-11
3.53516e-11
3.68396e-11
3.81488e-11
3.92141e-11
3.9936e-11
4.02604e-11
4.02741e-11
3.97586e-11
3.86851e-11
3.70489e-11
3.48668e-11
3.21876e-11
2.90974e-11
2.57153e-11
2.21838e-11
1.86538e-11
1.52668e-11
1.21386e-11
9.34924e-12
6.93794e-12
4.90735e-12
3.23315e-12
1.88015e-12
8.26433e-13
1.21728e-13
2.52153e-13
8.21445e-12
2.06164e-11
3.49773e-11
5.07939e-11
6.77149e-11
8.5484e-11
1.03932e-10
1.22971e-10
1.42593e-10
1.6287e-10
1.83946e-10
2.06034e-10
2.29414e-10
2.54425e-10
2.81458e-10
3.10952e-10
3.4339e-10
3.79292e-10
4.19209e-10
4.63717e-10
5.13408e-10
5.68893e-10
6.30785e-10
6.99697e-10
7.76238e-10
8.60997e-10
9.54542e-10
1.05741e-09
1.1701e-09
1.29307e-09
1.42673e-09
1.57142e-09
1.72745e-09
1.89504e-09
2.07439e-09
2.26559e-09
2.46871e-09
2.68372e-09
2.91052e-09
3.14888e-09
3.39846e-09
3.65874e-09
3.92896e-09
4.20802e-09
4.4944e-09
4.78604e-09
5.08018e-09
5.37321e-09
5.6605e-09
5.93626e-09
6.19337e-09
6.42319e-09
6.61504e-09
6.75115e-09
6.81512e-09
6.83152e-09
6.75607e-09
6.58465e-09
6.3157e-09
5.95108e-09
5.49847e-09
4.97235e-09
4.39343e-09
3.78692e-09
3.17969e-09
2.597e-09
2.05953e-09
1.58131e-09
1.16904e-09
8.22707e-10
5.37257e-10
3.05e-10
1.19385e-10
3.67668e-12
5.35712e-13
4.39819e-11
1.41396e-10
2.56469e-10
3.81575e-10
5.14181e-10
6.52577e-10
7.95591e-10
9.42617e-10
1.09363e-09
1.2492e-09
1.41042e-09
1.57896e-09
1.75695e-09
1.94697e-09
2.152e-09
2.37535e-09
2.62066e-09
2.89181e-09
3.19288e-09
3.52812e-09
3.90187e-09
4.31853e-09
4.78249e-09
5.29809e-09
5.86952e-09
6.50083e-09
7.19577e-09
7.95782e-09
8.79011e-09
9.69535e-09
1.06759e-08
1.17336e-08
1.28701e-08
1.40864e-08
1.53831e-08
1.67608e-08
1.82196e-08
1.97592e-08
2.13792e-08
2.30787e-08
2.48562e-08
2.67094e-08
2.8635e-08
3.06275e-08
3.26791e-08
3.47782e-08
3.69087e-08
3.90487e-08
4.11686e-08
4.32297e-08
4.51829e-08
4.69676e-08
4.85144e-08
4.96834e-08
5.02928e-08
5.06428e-08
5.02882e-08
4.92013e-08
4.73572e-08
4.47548e-08
4.14409e-08
3.75207e-08
3.3155e-08
2.85455e-08
2.39109e-08
1.94583e-08
1.53566e-08
1.17186e-08
8.59487e-09
5.97859e-09
3.81914e-09
2.04315e-09
6.32991e-10
7.78024e-12
8.76588e-13
1.03182e-10
4.24346e-10
8.47653e-10
1.31229e-09
1.80149e-09
2.3081e-09
2.82801e-09
3.35919e-09
3.90167e-09
4.45748e-09
5.03065e-09
5.62703e-09
6.25419e-09
6.92116e-09
7.63831e-09
8.4171e-09
9.26992e-09
1.02099e-08
1.12506e-08
1.24061e-08
1.36904e-08
1.51173e-08
1.67005e-08
1.84531e-08
2.03873e-08
2.25144e-08
2.48444e-08
2.7386e-08
3.01466e-08
3.31319e-08
3.63464e-08
3.97934e-08
4.34748e-08
4.7392e-08
5.15456e-08
5.59364e-08
6.05651e-08
6.54331e-08
7.0542e-08
7.58938e-08
8.14905e-08
8.73336e-08
9.34223e-08
9.97513e-08
1.06308e-07
1.13069e-07
1.19997e-07
1.27034e-07
1.34099e-07
1.41074e-07
1.47803e-07
1.54079e-07
1.59795e-07
1.64252e-07
1.66787e-07
1.68722e-07
1.68232e-07
1.65216e-07
1.59561e-07
1.51221e-07
1.40327e-07
1.27225e-07
1.12471e-07
9.6776e-08
8.09228e-08
6.56569e-08
5.15882e-08
3.91219e-08
2.84321e-08
1.94791e-08
1.20624e-08
5.95651e-09
1.47072e-09
1.26397e-11
1.26455e-12
1.74177e-10
8.60263e-10
1.90297e-09
3.0956e-09
4.35707e-09
5.65685e-09
6.98105e-09
8.3236e-09
9.68425e-09
1.1068e-08
1.24848e-08
1.3949e-08
1.54791e-08
1.70968e-08
1.8827e-08
2.06968e-08
2.27348e-08
2.49712e-08
2.74365e-08
3.01614e-08
3.31759e-08
3.6509e-08
4.01881e-08
4.42382e-08
4.86819e-08
5.35386e-08
5.8824e-08
6.45508e-08
7.07277e-08
7.73602e-08
8.44524e-08
9.20064e-08
1.00023e-07
1.08502e-07
1.17447e-07
1.26862e-07
1.36755e-07
1.47137e-07
1.58026e-07
1.69439e-07
1.81398e-07
1.93926e-07
2.07044e-07
2.20762e-07
2.35076e-07
2.49955e-07
2.65333e-07
2.81103e-07
2.9709e-07
3.13039e-07
3.2859e-07
3.4325e-07
3.56992e-07
3.67646e-07
3.73991e-07
3.79154e-07
3.78726e-07
3.72454e-07
3.60138e-07
3.41658e-07
3.17302e-07
2.87853e-07
2.54566e-07
2.19054e-07
1.83092e-07
1.4838e-07
1.16319e-07
8.78456e-08
6.33617e-08
4.27701e-08
2.56361e-08
1.17091e-08
2.45325e-09
1.80482e-11
1.69272e-12
2.51731e-10
1.40558e-09
3.40341e-09
5.83122e-09
8.44577e-09
1.1142e-08
1.38736e-08
1.66214e-08
1.93819e-08
2.21639e-08
2.49868e-08
2.7879e-08
3.08764e-08
3.40215e-08
3.73615e-08
4.09475e-08
4.48327e-08
4.90715e-08
5.37182e-08
5.88255e-08
6.44437e-08
7.06195e-08
7.73948e-08
8.48065e-08
9.28853e-08
1.01655e-07
1.11135e-07
1.21334e-07
1.32261e-07
1.43914e-07
1.56298e-07
1.69424e-07
1.83286e-07
1.97892e-07
2.13253e-07
2.2939e-07
2.46333e-07
2.64119e-07
2.82797e-07
3.02419e-07
3.2304e-07
3.44727e-07
3.67536e-07
3.91505e-07
4.16641e-07
4.429e-07
4.70165e-07
4.98245e-07
5.26815e-07
5.55389e-07
5.83296e-07
6.09584e-07
6.34049e-07
6.52993e-07
6.64014e-07
6.72651e-07
6.71368e-07
6.59476e-07
6.36883e-07
6.03542e-07
5.60061e-07
5.07863e-07
4.49134e-07
3.86626e-07
3.23342e-07
2.62162e-07
2.05476e-07
1.54904e-07
1.11164e-07
7.41271e-08
4.31934e-08
1.85251e-08
3.49258e-09
2.3846e-11
2.15705e-12
3.34296e-10
2.02232e-09
5.26546e-09
9.47052e-09
1.41244e-08
1.89577e-08
2.38428e-08
2.87228e-08
3.35813e-08
3.84291e-08
4.32977e-08
4.82351e-08
5.33024e-08
5.85709e-08
6.41191e-08
7.00302e-08
7.63895e-08
8.32821e-08
9.0791e-08
9.89943e-08
1.07964e-07
1.17766e-07
1.28453e-07
1.40074e-07
1.52668e-07
1.66258e-07
1.80862e-07
1.96489e-07
2.13144e-07
2.3082e-07
2.49521e-07
2.69241e-07
2.90002e-07
3.11826e-07
3.3475e-07
3.58824e-07
3.84117e-07
4.10713e-07
4.38711e-07
4.68224e-07
4.99373e-07
5.32256e-07
5.66968e-07
6.03567e-07
6.42055e-07
6.82351e-07
7.24252e-07
7.67352e-07
8.11037e-07
8.54425e-07
8.96325e-07
9.35264e-07
9.70037e-07
9.97087e-07
1.01138e-06
1.02094e-06
1.01577e-06
9.94333e-07
9.57223e-07
9.04685e-07
8.3783e-07
7.58843e-07
6.70886e-07
5.77829e-07
4.83844e-07
3.92928e-07
3.08413e-07
2.32595e-07
1.66531e-07
1.10131e-07
6.28387e-08
2.57642e-08
4.55391e-09
2.99182e-11
2.65534e-12
4.21539e-10
2.68805e-09
7.39775e-09
1.38779e-08
2.1278e-08
2.90547e-08
3.69189e-08
4.47332e-08
5.24472e-08
6.0066e-08
6.76341e-08
7.52241e-08
8.293e-08
9.08608e-08
9.91357e-08
1.07878e-07
1.17214e-07
1.27264e-07
1.38146e-07
1.49967e-07
1.62822e-07
1.76794e-07
1.91951e-07
2.08344e-07
2.26011e-07
2.44983e-07
2.65273e-07
2.86892e-07
3.09844e-07
3.34141e-07
3.59786e-07
3.86791e-07
4.15195e-07
4.45048e-07
4.76424e-07
5.09414e-07
5.44134e-07
5.80722e-07
6.19332e-07
6.6013e-07
7.03285e-07
7.48937e-07
7.972e-07
8.48118e-07
9.01635e-07
9.5754e-07
1.01541e-06
1.07454e-06
1.13388e-06
1.19202e-06
1.24718e-06
1.29722e-06
1.33983e-06
1.37086e-06
1.38568e-06
1.39164e-06
1.37841e-06
1.34312e-06
1.28777e-06
1.21308e-06
1.12073e-06
1.01365e-06
8.95823e-07
7.72045e-07
6.47428e-07
5.26863e-07
4.14461e-07
3.13081e-07
2.24089e-07
1.47495e-07
8.30002e-08
3.30418e-08
5.62149e-09
3.61843e-11
3.18663e-12
5.13498e-10
3.39214e-09
9.73014e-09
1.88976e-08
2.9697e-08
4.12082e-08
5.28849e-08
6.44446e-08
7.57689e-08
8.68429e-08
9.77214e-08
1.08507e-07
1.19334e-07
1.30362e-07
1.41758e-07
1.53699e-07
1.66355e-07
1.79892e-07
1.94464e-07
2.1021e-07
2.27252e-07
2.45693e-07
2.65619e-07
2.87091e-07
3.10155e-07
3.34843e-07
3.61175e-07
3.89166e-07
4.1883e-07
4.50186e-07
4.83256e-07
5.18077e-07
5.54712e-07
5.93245e-07
6.33787e-07
6.76474e-07
7.21469e-07
7.68958e-07
8.19145e-07
8.72241e-07
9.28444e-07
9.8791e-07
1.05073e-06
1.11687e-06
1.18614e-06
1.25807e-06
1.3319e-06
1.40647e-06
1.48017e-06
1.55098e-06
1.61643e-06
1.67373e-06
1.71985e-06
1.75049e-06
1.75938e-06
1.75857e-06
1.73344e-06
1.68088e-06
1.60498e-06
1.50701e-06
1.38913e-06
1.25483e-06
1.1087e-06
9.56191e-07
8.0308e-07
6.54928e-07
5.16442e-07
3.90943e-07
2.80068e-07
1.83959e-07
1.0269e-07
4.016e-08
6.68669e-09
4.25914e-11
3.75079e-12
6.10344e-10
4.13074e-09
1.22181e-08
2.43964e-08
3.91537e-08
5.51146e-08
7.13785e-08
8.74425e-08
1.03075e-07
1.18221e-07
1.3294e-07
1.47369e-07
1.61694e-07
1.76131e-07
1.90912e-07
2.06272e-07
2.22441e-07
2.39638e-07
2.58061e-07
2.77889e-07
2.99274e-07
3.22347e-07
3.47209e-07
3.7394e-07
4.02596e-07
4.3322e-07
4.65843e-07
5.0049e-07
5.37187e-07
5.75967e-07
6.16874e-07
6.59966e-07
7.05333e-07
7.5309e-07
8.03379e-07
8.56374e-07
9.12278e-07
9.71317e-07
1.03373e-06
1.09976e-06
1.1696e-06
1.24338e-06
1.32111e-06
1.4026e-06
1.48739e-06
1.57467e-06
1.66319e-06
1.75121e-06
1.83651e-06
1.91642e-06
1.9879e-06
2.04768e-06
2.09237e-06
2.11822e-06
2.11626e-06
2.10359e-06
2.06586e-06
1.99403e-06
1.89681e-06
1.77597e-06
1.63396e-06
1.4746e-06
1.30286e-06
1.12457e-06
9.45936e-07
7.73003e-07
6.10946e-07
4.63485e-07
3.32515e-07
2.1834e-07
1.21417e-07
4.7033e-08
7.74401e-09
4.91163e-11
4.34832e-12
7.12312e-10
4.90351e-09
1.48379e-08
3.02797e-08
4.9451e-08
7.04704e-08
9.19974e-08
1.13232e-07
1.33779e-07
1.53518e-07
1.72509e-07
1.90926e-07
2.09015e-07
2.27066e-07
2.45384e-07
2.64281e-07
2.84055e-07
3.04987e-07
3.27329e-07
3.51306e-07
3.77109e-07
4.049e-07
4.34805e-07
4.66924e-07
5.01331e-07
5.38083e-07
5.77223e-07
6.1879e-07
6.62821e-07
7.09365e-07
7.58478e-07
8.1024e-07
8.64756e-07
9.22163e-07
9.82629e-07
1.04635e-06
1.11357e-06
1.18453e-06
1.2595e-06
1.33872e-06
1.42236e-06
1.51046e-06
1.60287e-06
1.69916e-06
1.79848e-06
1.89955e-06
2.00053e-06
2.09909e-06
2.19239e-06
2.27725e-06
2.35025e-06
2.40789e-06
2.44679e-06
2.4638e-06
2.44874e-06
2.41958e-06
2.36884e-06
2.27837e-06
2.1601e-06
2.01767e-06
1.85358e-06
1.67176e-06
1.47736e-06
1.27635e-06
1.07522e-06
8.80309e-07
6.97196e-07
5.29974e-07
3.80823e-07
2.5024e-07
1.39023e-07
5.36387e-08
8.79317e-09
5.5735e-11
4.98019e-12
8.19684e-10
5.71194e-09
1.75802e-08
3.649e-08
6.04417e-08
8.70199e-08
1.14374e-07
1.41333e-07
1.67294e-07
1.92044e-07
2.15637e-07
2.38289e-07
2.6032e-07
2.82104e-07
3.04039e-07
3.26521e-07
3.49931e-07
3.74621e-07
4.00908e-07
4.29071e-07
4.59346e-07
4.91929e-07
5.26979e-07
5.64619e-07
6.04942e-07
6.4802e-07
6.93909e-07
7.42658e-07
7.94313e-07
8.48927e-07
9.06565e-07
9.67314e-07
1.03129e-06
1.09863e-06
1.16953e-06
1.2442e-06
1.3229e-06
1.4059e-06
1.49346e-06
1.58581e-06
1.68305e-06
1.78508e-06
1.8915e-06
2.00152e-06
2.11383e-06
2.22658e-06
2.33733e-06
2.44318e-06
2.54081e-06
2.62669e-06
2.69725e-06
2.74908e-06
2.77904e-06
2.78439e-06
2.75483e-06
2.70899e-06
2.64087e-06
2.53589e-06
2.39732e-06
2.2348e-06
2.05066e-06
1.8488e-06
1.63437e-06
1.41336e-06
1.19234e-06
9.77879e-07
7.75881e-07
5.9081e-07
4.2518e-07
2.79724e-07
1.55542e-07
5.99905e-08
9.83564e-09
6.24429e-11
5.64777e-12
9.3278e-10
6.55844e-09
2.04451e-08
4.29996e-08
7.2031e-08
1.04575e-07
1.38212e-07
1.71344e-07
2.03111e-07
2.33191e-07
2.61626e-07
2.88681e-07
3.14762e-07
3.40342e-07
3.65923e-07
3.92004e-07
4.19056e-07
4.47516e-07
4.77771e-07
5.1016e-07
5.4497e-07
5.82439e-07
6.22755e-07
6.66067e-07
7.12488e-07
7.62102e-07
8.14974e-07
8.71153e-07
9.30687e-07
9.93625e-07
1.06003e-06
1.12997e-06
1.20358e-06
1.28098e-06
1.36239e-06
1.44802e-06
1.53816e-06
1.63309e-06
1.73307e-06
1.83827e-06
1.94867e-06
2.06397e-06
2.18345e-06
2.30586e-06
2.42937e-06
2.55153e-06
2.66938e-06
2.7795e-06
2.87829e-06
2.9621e-06
3.02742e-06
3.07106e-06
3.09024e-06
3.08237e-06
3.03784e-06
2.97629e-06
2.88901e-06
2.77033e-06
2.61419e-06
2.43273e-06
2.23008e-06
2.01e-06
1.77752e-06
1.53857e-06
1.29967e-06
1.06755e-06
8.48351e-07
6.46926e-07
4.66169e-07
3.07106e-07
1.71109e-07
6.61198e-08
1.08741e-08
6.92473e-11
6.35275e-12
1.05195e-09
7.44597e-09
2.34382e-08
4.98023e-08
8.41684e-08
1.23015e-07
1.63303e-07
2.02959e-07
2.40833e-07
2.76477e-07
3.09918e-07
3.41483e-07
3.71672e-07
4.01074e-07
4.30311e-07
4.59991e-07
4.90692e-07
5.22939e-07
5.57199e-07
5.93875e-07
6.33308e-07
6.75775e-07
7.215e-07
7.70653e-07
8.23363e-07
8.7972e-07
9.39788e-07
1.00361e-06
1.07122e-06
1.14266e-06
1.21796e-06
1.29719e-06
1.38045e-06
1.46789e-06
1.55971e-06
1.65616e-06
1.75754e-06
1.86415e-06
1.97623e-06
2.09388e-06
2.2169e-06
2.34472e-06
2.47621e-06
2.60964e-06
2.74262e-06
2.87216e-06
2.99484e-06
3.10692e-06
3.20468e-06
3.2845e-06
3.34306e-06
3.37745e-06
3.38525e-06
3.36366e-06
3.30463e-06
3.22851e-06
3.12286e-06
2.98679e-06
2.81803e-06
2.61807e-06
2.39768e-06
2.16033e-06
1.91097e-06
1.65534e-06
1.39989e-06
1.15138e-06
9.16158e-07
6.99433e-07
5.04524e-07
3.32804e-07
1.85892e-07
7.20663e-08
1.1912e-08
7.61634e-11
7.09709e-12
1.1776e-09
8.37785e-09
2.65687e-08
5.69051e-08
9.6839e-08
1.42275e-07
1.89517e-07
2.35972e-07
2.80178e-07
3.2155e-07
3.60106e-07
3.96239e-07
4.30563e-07
4.63795e-07
4.96686e-07
5.2997e-07
5.64335e-07
6.00404e-07
6.38725e-07
6.79769e-07
7.23931e-07
7.7153e-07
8.22817e-07
8.77983e-07
9.37163e-07
1.00045e-06
1.06789e-06
1.13951e-06
1.21532e-06
1.29533e-06
1.37955e-06
1.46802e-06
1.56083e-06
1.65813e-06
1.76015e-06
1.86716e-06
1.9795e-06
2.09749e-06
2.22133e-06
2.351e-06
2.48613e-06
2.62577e-06
2.76835e-06
2.91164e-06
3.05269e-06
3.18811e-06
3.31414e-06
3.42686e-06
3.52253e-06
3.59768e-06
3.6492e-06
3.67444e-06
3.67123e-06
3.6362e-06
3.56348e-06
3.47354e-06
3.35091e-06
3.19577e-06
3.01468e-06
2.79785e-06
2.55952e-06
2.30489e-06
2.03886e-06
1.76699e-06
1.49559e-06
1.23137e-06
9.80809e-07
7.49429e-07
5.40984e-07
3.57249e-07
2.00074e-07
7.78725e-08
1.29532e-08
8.32113e-11
7.88298e-12
1.31013e-09
9.35762e-09
2.98479e-08
6.43253e-08
1.10052e-07
1.62337e-07
2.16787e-07
2.70262e-07
3.20968e-07
3.68181e-07
4.11914e-07
4.52645e-07
4.91109e-07
5.28166e-07
5.64711e-07
6.01608e-07
6.39665e-07
6.79605e-07
7.22061e-07
7.6757e-07
8.1658e-07
8.69448e-07
9.26449e-07
9.87785e-07
1.05359e-06
1.12394e-06
1.19887e-06
1.27837e-06
1.36242e-06
1.45097e-06
1.54401e-06
1.64156e-06
1.7437e-06
1.8506e-06
1.96252e-06
2.0798e-06
2.20281e-06
2.3319e-06
2.46722e-06
2.60863e-06
2.75547e-06
2.90645e-06
3.05949e-06
3.21187e-06
3.3602e-06
3.50074e-06
3.62959e-06
3.7427e-06
3.8364e-06
3.90735e-06
3.9526e-06
3.96968e-06
3.9566e-06
3.90906e-06
3.8238e-06
3.72112e-06
3.58195e-06
3.40763e-06
3.20941e-06
2.97903e-06
2.72152e-06
2.44858e-06
2.16517e-06
1.87664e-06
1.58915e-06
1.30932e-06
1.04366e-06
7.97903e-07
5.76226e-07
3.8084e-07
2.13833e-07
8.35799e-08
1.40016e-08
9.04138e-11
8.71283e-12
1.44999e-09
1.0389e-08
3.32885e-08
7.20862e-08
1.23836e-07
1.83215e-07
2.45099e-07
3.05775e-07
3.63108e-07
4.16235e-07
4.65179e-07
5.10511e-07
5.53108e-07
5.93983e-07
6.34182e-07
6.7471e-07
7.16497e-07
7.60367e-07
8.0704e-07
8.57117e-07
9.11094e-07
9.69361e-07
1.03221e-06
1.09985e-06
1.17239e-06
1.2499e-06
1.33237e-06
1.41975e-06
1.51195e-06
1.60891e-06
1.71058e-06
1.81695e-06
1.92813e-06
2.04431e-06
2.16583e-06
2.2931e-06
2.42657e-06
2.5666e-06
2.7133e-06
2.86634e-06
3.02478e-06
3.18693e-06
3.35014e-06
3.51117e-06
3.66679e-06
3.81277e-06
3.94492e-06
4.05922e-06
4.15208e-06
4.22021e-06
4.26073e-06
4.2712e-06
4.24966e-06
4.19052e-06
4.09355e-06
3.97895e-06
3.82297e-06
3.63082e-06
3.41124e-06
3.16644e-06
2.88932e-06
2.59605e-06
2.29359e-06
1.98717e-06
1.68274e-06
1.38683e-06
1.10587e-06
8.457e-07
6.10834e-07
4.03928e-07
2.27326e-07
8.92263e-08
1.50608e-08
9.77938e-11
9.58925e-12
1.59767e-09
1.1476e-08
3.6904e-08
8.02154e-08
1.38227e-07
2.04943e-07
2.74473e-07
3.42508e-07
4.06564e-07
4.65652e-07
5.19817e-07
5.6974e-07
6.16452e-07
6.61133e-07
7.04988e-07
7.49169e-07
7.94727e-07
8.42593e-07
8.93565e-07
9.48308e-07
1.00736e-06
1.07114e-06
1.13994e-06
1.21397e-06
1.29332e-06
1.37801e-06
1.46798e-06
1.56314e-06
1.66336e-06
1.76851e-06
1.87852e-06
1.9934e-06
2.11328e-06
2.23844e-06
2.3693e-06
2.50639e-06
2.65024e-06
2.80124e-06
2.95944e-06
3.12429e-06
3.29452e-06
3.46737e-06
3.64106e-06
3.81191e-06
3.97557e-06
4.12785e-06
4.26476e-06
4.38193e-06
4.47588e-06
4.54324e-06
4.58105e-06
4.58677e-06
4.55832e-06
4.48837e-06
4.3801e-06
4.25389e-06
4.08075e-06
3.87077e-06
3.62875e-06
3.36381e-06
3.06822e-06
2.75161e-06
2.42761e-06
2.10124e-06
1.77833e-06
1.46532e-06
1.16845e-06
8.93528e-07
6.45291e-07
4.26808e-07
2.40687e-07
9.48451e-08
1.6134e-08
1.05373e-10
1.0515e-11
1.75365e-09
1.26226e-08
4.07088e-08
8.87432e-08
1.53272e-07
2.27575e-07
3.04956e-07
3.8049e-07
4.51348e-07
5.16425e-07
5.75803e-07
6.30295e-07
6.81097e-07
7.29568e-07
7.77081e-07
8.24934e-07
8.74306e-07
9.26227e-07
9.81575e-07
1.04107e-06
1.10529e-06
1.17466e-06
1.24948e-06
1.32994e-06
1.41609e-06
1.50791e-06
1.60529e-06
1.70807e-06
1.81607e-06
1.92912e-06
2.04716e-06
2.1702e-06
2.29846e-06
2.43234e-06
2.57239e-06
2.71928e-06
2.87364e-06
3.03588e-06
3.20596e-06
3.38302e-06
3.56468e-06
3.7503e-06
3.93565e-06
4.11696e-06
4.28995e-06
4.45053e-06
4.5941e-06
4.71648e-06
4.81396e-06
4.88299e-06
4.92036e-06
4.9233e-06
4.88951e-06
4.80975e-06
4.69059e-06
4.55287e-06
4.36199e-06
4.13265e-06
3.86828e-06
3.57764e-06
3.26183e-06
2.91931e-06
2.57048e-06
2.22141e-06
1.87778e-06
1.54605e-06
1.23226e-06
9.41972e-07
6.79994e-07
4.49717e-07
2.54025e-07
1.00465e-07
1.72236e-08
1.13169e-10
1.1493e-11
1.91848e-09
1.3833e-08
4.47175e-08
9.77011e-08
1.6902e-07
2.51171e-07
3.36608e-07
4.19775e-07
4.975e-07
5.68577e-07
6.3315e-07
6.92176e-07
7.47037e-07
7.99278e-07
8.50445e-07
9.01987e-07
9.55208e-07
1.01124e-06
1.07102e-06
1.13533e-06
1.20477e-06
1.27978e-06
1.36065e-06
1.44752e-06
1.54042e-06
1.63926e-06
1.74387e-06
1.85403e-06
1.96952e-06
2.09015e-06
2.21586e-06
2.34675e-06
2.48314e-06
2.62558e-06
2.77482e-06
2.93169e-06
3.09693e-06
3.27093e-06
3.45346e-06
3.64269e-06
3.83867e-06
4.03751e-06
4.2357e-06
4.4292e-06
4.6139e-06
4.78518e-06
4.93781e-06
5.06816e-06
5.17193e-06
5.24519e-06
5.2844e-06
5.28642e-06
5.24864e-06
5.16002e-06
5.03046e-06
4.8805e-06
4.67143e-06
4.42137e-06
4.13339e-06
3.81408e-06
3.47287e-06
3.10294e-06
2.72526e-06
2.3501e-06
1.98287e-06
1.63026e-06
1.29808e-06
9.91534e-07
7.15262e-07
4.72846e-07
2.67422e-07
1.06112e-07
1.83315e-08
1.21199e-10
1.25264e-11
2.09268e-09
1.51116e-08
4.89454e-08
1.07122e-07
1.85524e-07
2.75798e-07
3.69502e-07
4.60431e-07
5.45077e-07
6.22156e-07
6.91892e-07
7.5541e-07
8.14288e-07
8.70271e-07
9.25081e-07
9.80321e-07
1.03741e-06
1.09758e-06
1.16185e-06
1.23101e-06
1.3057e-06
1.38636e-06
1.47324e-06
1.56646e-06
1.66599e-06
1.77167e-06
1.88328e-06
2.00053e-06
2.12318e-06
2.25104e-06
2.38411e-06
2.52258e-06
2.66695e-06
2.81796e-06
2.97658e-06
3.14382e-06
3.32054e-06
3.50715e-06
3.70217e-06
3.90665e-06
4.11729e-06
4.33096e-06
4.5439e-06
4.75226e-06
4.9514e-06
5.1354e-06
5.30028e-06
5.44154e-06
5.55437e-06
5.63439e-06
5.67754e-06
5.68025e-06
5.63953e-06
5.54285e-06
5.40342e-06
5.2399e-06
5.01226e-06
4.74014e-06
4.42673e-06
4.07755e-06
3.70486e-06
3.30551e-06
2.89484e-06
2.48969e-06
2.09541e-06
1.71917e-06
1.36668e-06
1.04266e-06
7.51362e-07
4.96346e-07
2.80936e-07
1.11813e-07
1.94588e-08
1.29473e-10
1.36184e-11
2.2768e-09
1.64628e-08
5.34081e-08
1.17041e-07
2.0284e-07
3.01526e-07
4.03713e-07
5.02529e-07
5.94145e-07
6.77216e-07
7.52074e-07
8.20029e-07
8.82876e-07
9.42562e-07
1.00099e-06
1.05993e-06
1.1209e-06
1.18523e-06
1.25398e-06
1.32801e-06
1.40794e-06
1.4942e-06
1.58702e-06
1.68647e-06
1.79245e-06
1.90475e-06
2.02308e-06
2.14711e-06
2.27658e-06
2.41136e-06
2.5515e-06
2.69739e-06
2.84971e-06
3.00947e-06
3.17785e-06
3.35609e-06
3.54514e-06
3.7443e-06
3.95521e-06
4.17539e-06
4.40241e-06
4.6329e-06
4.8634e-06
5.08947e-06
5.3046e-06
5.50479e-06
5.68504e-06
5.84008e-06
5.96461e-06
6.05365e-06
6.1026e-06
6.10738e-06
6.06462e-06
5.96043e-06
5.81068e-06
5.63303e-06
5.38625e-06
5.09076e-06
4.75006e-06
4.36978e-06
3.96244e-06
3.52908e-06
3.08182e-06
2.64248e-06
2.21717e-06
1.81401e-06
1.43881e-06
1.09578e-06
7.88531e-07
5.2034e-07
2.94595e-07
1.17601e-07
2.06057e-08
1.37997e-10
1.47729e-11
2.47138e-09
1.78914e-08
5.81218e-08
1.27492e-07
2.21021e-07
3.28425e-07
4.39317e-07
5.46146e-07
6.44771e-07
7.33815e-07
8.13741e-07
8.86071e-07
9.52823e-07
1.01616e-06
1.07818e-06
1.14079e-06
1.20563e-06
1.27411e-06
1.34734e-06
1.42621e-06
1.51133e-06
1.60311e-06
1.70175e-06
1.80725e-06
1.91947e-06
2.03812e-06
2.16286e-06
2.29335e-06
2.42932e-06
2.57073e-06
2.71777e-06
2.87102e-06
3.03143e-06
3.20028e-06
3.37903e-06
3.56909e-06
3.77075e-06
3.98569e-06
4.21288e-06
4.45051e-06
4.69589e-06
4.946e-06
5.19693e-06
5.44172e-06
5.67657e-06
5.89609e-06
6.09456e-06
6.26603e-06
6.40459e-06
6.50459e-06
6.56082e-06
6.56875e-06
6.52464e-06
6.4133e-06
6.25235e-06
6.06026e-06
5.79379e-06
5.47387e-06
5.10454e-06
4.6917e-06
4.24789e-06
3.77571e-06
3.28848e-06
2.8106e-06
2.34997e-06
1.9161e-06
1.51531e-06
1.15135e-06
8.26994e-07
5.44944e-07
3.08453e-07
1.23486e-07
2.17721e-08
1.46776e-10
1.59933e-11
2.67704e-09
1.94022e-08
6.31033e-08
1.38511e-07
2.40125e-07
3.56567e-07
4.76391e-07
5.91355e-07
6.97022e-07
7.92008e-07
8.76938e-07
9.53563e-07
1.02415e-06
1.09108e-06
1.15664e-06
1.22287e-06
1.29156e-06
1.36415e-06
1.44182e-06
1.52546e-06
1.61568e-06
1.71286e-06
1.81716e-06
1.92851e-06
2.04671e-06
2.17141e-06
2.30225e-06
2.43888e-06
2.58108e-06
2.72891e-06
2.88277e-06
3.04348e-06
3.21228e-06
3.39076e-06
3.58065e-06
3.78334e-06
3.99992e-06
4.23134e-06
4.47649e-06
4.73347e-06
4.99981e-06
5.27253e-06
5.54436e-06
5.81178e-06
6.06931e-06
6.31091e-06
6.53014e-06
6.72033e-06
6.87483e-06
6.9873e-06
7.05195e-06
7.06381e-06
7.01882e-06
6.90065e-06
6.72742e-06
6.5206e-06
6.23404e-06
5.88891e-06
5.48995e-06
5.04351e-06
4.56218e-06
4.04705e-06
3.51665e-06
2.99595e-06
2.49551e-06
2.02678e-06
1.59703e-06
1.20983e-06
8.66977e-07
5.70265e-07
3.22568e-07
1.29469e-07
2.29575e-08
1.55809e-10
1.72832e-11
2.89448e-09
2.10002e-08
6.83697e-08
1.50135e-07
2.60207e-07
3.8602e-07
5.15009e-07
6.38226e-07
7.50957e-07
8.51843e-07
9.41698e-07
1.02253e-06
1.09685e-06
1.16729e-06
1.23632e-06
1.30613e-06
1.3786e-06
1.45525e-06
1.53729e-06
1.6256e-06
1.7208e-06
1.82323e-06
1.93298e-06
2.04994e-06
2.17384e-06
2.30431e-06
2.44094e-06
2.58342e-06
2.73163e-06
2.88578e-06
3.04649e-06
3.21489e-06
3.39255e-06
3.58138e-06
3.78348e-06
3.99979e-06
4.23289e-06
4.48232e-06
4.74723e-06
5.02581e-06
5.31635e-06
5.61155e-06
5.90814e-06
6.20089e-06
6.48367e-06
6.74974e-06
6.99188e-06
7.20262e-06
7.37451e-06
7.50055e-06
7.57439e-06
7.59065e-06
7.54509e-06
7.42056e-06
7.23399e-06
7.01194e-06
6.70513e-06
6.33424e-06
5.90491e-06
5.42447e-06
4.90515e-06
4.34414e-06
3.7676e-06
3.20011e-06
2.6554e-06
2.14738e-06
1.68492e-06
1.27175e-06
9.08725e-07
5.96409e-07
3.36983e-07
1.35555e-07
2.41609e-08
1.6509e-10
1.86466e-11
3.12438e-09
2.2691e-08
7.39388e-08
1.62402e-07
2.81324e-07
4.16852e-07
5.55241e-07
6.86823e-07
8.06629e-07
9.13358e-07
1.00804e-06
1.09297e-06
1.17093e-06
1.24479e-06
1.3172e-06
1.39051e-06
1.46668e-06
1.5473e-06
1.6336e-06
1.72647e-06
1.82649e-06
1.93397e-06
2.04894e-06
2.17125e-06
2.30058e-06
2.43652e-06
2.57867e-06
2.72678e-06
2.88086e-06
3.04132e-06
3.20906e-06
3.38553e-06
3.57266e-06
3.77267e-06
3.98751e-06
4.21982e-06
4.47048e-06
4.73956e-06
5.02607e-06
5.32982e-06
5.6439e-06
5.96514e-06
6.28894e-06
6.60934e-06
6.91955e-06
7.21204e-06
7.47874e-06
7.71134e-06
7.90163e-06
8.04192e-06
8.12535e-06
8.14624e-06
8.10022e-06
7.97015e-06
7.76948e-06
7.53123e-06
7.20434e-06
6.80743e-06
6.34699e-06
5.833e-06
5.27554e-06
4.66725e-06
4.04197e-06
3.42421e-06
2.83099e-06
2.27919e-06
1.77992e-06
1.33767e-06
9.52504e-07
6.23483e-07
3.51735e-07
1.4175e-07
2.53813e-08
1.74614e-10
2.00875e-11
3.36748e-09
2.448e-08
7.98292e-08
1.75347e-07
3.03532e-07
4.49131e-07
5.97153e-07
7.37203e-07
8.64082e-07
9.76581e-07
1.07599e-06
1.16488e-06
1.24636e-06
1.32352e-06
1.39921e-06
1.47591e-06
1.55568e-06
1.64017e-06
1.7306e-06
1.82787e-06
1.93254e-06
2.04485e-06
2.16481e-06
2.29221e-06
2.42668e-06
2.56781e-06
2.71525e-06
2.86884e-06
3.02875e-06
3.19563e-06
3.3707e-06
3.55576e-06
3.75312e-06
3.96542e-06
4.19467e-06
4.44374e-06
4.71347e-06
5.00382e-06
5.3156e-06
5.64344e-06
5.98401e-06
6.33358e-06
6.68662e-06
7.03657e-06
7.37589e-06
7.69622e-06
7.98862e-06
8.24392e-06
8.45315e-06
8.60801e-06
8.70117e-06
8.72666e-06
8.68003e-06
8.5455e-06
8.33115e-06
8.07464e-06
7.72832e-06
7.30552e-06
6.8139e-06
6.26595e-06
5.67099e-06
5.01578e-06
4.33974e-06
3.66886e-06
3.02331e-06
2.42335e-06
1.88299e-06
1.4082e-06
9.98606e-07
6.51602e-07
3.66862e-07
1.48063e-07
2.66175e-08
1.8437e-10
2.16103e-11
3.62452e-09
2.6373e-08
8.60598e-08
1.8901e-07
3.26886e-07
4.82918e-07
6.40804e-07
7.89416e-07
9.23348e-07
1.04153e-06
1.14552e-06
1.23825e-06
1.3231e-06
1.40343e-06
1.48228e-06
1.56226e-06
1.64551e-06
1.73372e-06
1.82814e-06
1.92964e-06
2.03874e-06
2.15567e-06
2.28036e-06
2.41258e-06
2.55194e-06
2.69804e-06
2.8506e-06
3.00959e-06
3.17538e-06
3.34891e-06
3.53173e-06
3.72602e-06
3.93441e-06
4.15968e-06
4.40499e-06
4.67219e-06
4.96245e-06
5.27732e-06
5.61347e-06
5.96754e-06
6.33681e-06
6.71641e-06
7.10028e-06
7.48117e-06
7.85077e-06
8.19982e-06
8.51851e-06
8.79687e-06
9.02522e-06
9.19467e-06
9.2975e-06
9.32744e-06
9.27992e-06
9.14208e-06
8.91504e-06
8.63812e-06
8.27316e-06
7.82501e-06
7.30282e-06
6.71966e-06
6.08833e-06
5.38829e-06
4.66019e-06
3.93413e-06
3.23303e-06
2.5808e-06
1.99504e-06
1.48398e-06
1.04735e-06
6.80888e-07
3.82402e-07
1.54501e-07
2.78682e-08
1.94346e-10
2.32195e-11
3.89631e-09
2.83762e-08
9.26503e-08
2.0343e-07
3.51442e-07
5.18276e-07
6.86251e-07
8.43501e-07
9.84451e-07
1.1082e-06
1.21663e-06
1.31303e-06
1.4011e-06
1.48445e-06
1.56632e-06
1.64944e-06
1.73603e-06
1.82781e-06
1.92604e-06
2.03158e-06
2.14491e-06
2.26621e-06
2.3954e-06
2.53219e-06
2.67622e-06
2.82712e-06
2.9847e-06
3.14909e-06
3.32093e-06
3.50144e-06
3.69255e-06
3.89679e-06
4.11718e-06
4.35685e-06
4.61902e-06
4.90565e-06
5.21918e-06
5.55817e-06
5.91981e-06
6.3023e-06
6.70165e-06
7.11255e-06
7.52832e-06
7.94102e-06
8.34147e-06
8.71957e-06
9.06467e-06
9.36603e-06
9.61335e-06
9.79721e-06
9.90952e-06
9.94376e-06
9.89519e-06
9.75499e-06
9.51602e-06
9.21766e-06
8.83454e-06
8.36184e-06
7.81022e-06
7.19062e-06
6.52373e-06
5.78237e-06
5.0019e-06
4.21946e-06
3.46033e-06
2.75221e-06
2.11686e-06
1.56561e-06
1.09908e-06
7.11474e-07
3.98395e-07
1.61071e-07
2.91321e-08
2.04528e-10
2.49198e-11
4.18365e-09
3.04958e-08
9.96213e-08
2.18646e-07
3.77254e-07
5.55261e-07
7.3354e-07
8.99489e-07
1.0474e-06
1.17658e-06
1.28929e-06
1.38918e-06
1.4803e-06
1.56651e-06
1.65124e-06
1.73734e-06
1.82712e-06
1.92231e-06
2.02417e-06
2.13354e-06
2.25089e-06
2.37634e-06
2.50978e-06
2.65094e-06
2.79945e-06
2.95502e-06
3.1176e-06
3.28751e-06
3.46565e-06
3.65358e-06
3.8536e-06
4.06861e-06
4.30194e-06
4.55699e-06
4.8372e-06
5.14566e-06
5.48241e-06
5.8458e-06
6.23501e-06
6.64698e-06
7.07736e-06
7.52031e-06
7.96854e-06
8.41331e-06
8.84464e-06
9.2516e-06
9.62277e-06
9.94672e-06
1.02126e-05
1.04105e-05
1.05321e-05
1.05706e-05
1.0521e-05
1.03787e-05
1.0129e-05
9.8089e-06
9.40788e-06
8.91152e-06
8.33153e-06
7.67598e-06
6.97303e-06
6.19475e-06
5.36279e-06
4.52373e-06
3.70493e-06
2.93791e-06
2.24908e-06
1.6537e-06
1.15415e-06
7.43505e-07
4.14881e-07
1.6778e-07
3.04079e-08
2.14897e-10
2.67161e-11
4.48741e-09
3.27386e-08
1.06994e-07
2.34699e-07
4.04376e-07
5.93927e-07
7.82715e-07
9.57403e-07
1.11219e-06
1.24665e-06
1.36345e-06
1.46664e-06
1.56061e-06
1.6495e-06
1.73693e-06
1.82586e-06
1.91865e-06
2.01707e-06
2.12238e-06
2.23538e-06
2.35652e-06
2.48591e-06
2.62341e-06
2.76875e-06
2.92163e-06
3.08183e-06
3.24947e-06
3.42508e-06
3.60987e-06
3.80574e-06
4.01536e-06
4.24199e-06
4.48922e-06
4.76088e-06
5.06107e-06
5.39124e-06
5.75107e-06
6.14074e-06
6.5583e-06
7.00041e-06
7.46228e-06
7.93751e-06
8.41815e-06
8.8947e-06
9.3564e-06
9.79156e-06
1.01881e-05
1.05339e-05
1.08177e-05
1.10293e-05
1.11599e-05
1.12027e-05
1.11528e-05
1.1007e-05
1.07488e-05
1.04074e-05
9.98852e-06
9.4694e-06
8.86183e-06
8.17297e-06
7.43192e-06
6.62126e-06
5.74022e-06
4.8452e-06
3.96602e-06
3.13786e-06
2.39212e-06
1.74874e-06
1.2129e-06
7.77131e-07
4.31904e-07
1.7463e-07
3.16939e-08
2.25433e-10
2.86137e-11
4.80851e-09
3.51115e-08
1.1479e-07
2.51629e-07
4.3286e-07
6.34325e-07
8.33807e-07
1.01725e-06
1.17881e-06
1.31837e-06
1.43905e-06
1.54532e-06
1.64195e-06
1.73334e-06
1.82329e-06
1.91488e-06
2.01051e-06
2.11198e-06
2.22055e-06
2.33699e-06
2.46173e-06
2.59486e-06
2.73626e-06
2.88566e-06
3.04283e-06
3.20769e-06
3.38052e-06
3.56212e-06
3.75398e-06
3.95838e-06
4.17833e-06
4.41747e-06
4.67976e-06
4.96935e-06
5.28949e-06
5.64127e-06
6.02577e-06
6.44227e-06
6.88858e-06
7.36101e-06
7.8543e-06
8.36149e-06
8.87395e-06
9.38145e-06
9.87251e-06
1.03348e-05
1.07555e-05
1.11223e-05
1.14233e-05
1.1648e-05
1.17875e-05
1.18348e-05
1.17848e-05
1.16349e-05
1.13704e-05
1.10088e-05
1.05718e-05
1.00311e-05
9.3974e-06
8.6776e-06
7.89641e-06
7.05686e-06
6.13102e-06
5.18162e-06
4.24231e-06
3.35162e-06
2.54611e-06
1.85116e-06
1.27568e-06
8.12508e-07
4.49508e-07
1.81624e-07
3.29883e-08
2.3611e-10
3.0618e-11
5.1479e-09
3.76217e-08
1.23033e-07
2.69478e-07
4.62759e-07
6.765e-07
8.86844e-07
1.07903e-06
1.24722e-06
1.39168e-06
1.51601e-06
1.62514e-06
1.72422e-06
1.81792e-06
1.91021e-06
2.00429e-06
2.1026e-06
2.20695e-06
2.31859e-06
2.4383e-06
2.56646e-06
2.70318e-06
2.84834e-06
3.00173e-06
3.1632e-06
3.33281e-06
3.51105e-06
3.69898e-06
3.89841e-06
4.11195e-06
4.34296e-06
4.5954e-06
4.87355e-06
5.18136e-06
5.52168e-06
5.89636e-06
6.3059e-06
6.7494e-06
7.22441e-06
7.72686e-06
8.251e-06
8.78928e-06
9.33241e-06
9.86952e-06
1.03885e-05
1.08764e-05
1.132e-05
1.17065e-05
1.20239e-05
1.22612e-05
1.24094e-05
1.24611e-05
1.24113e-05
1.22573e-05
1.19884e-05
1.1609e-05
1.11529e-05
1.05919e-05
9.93395e-06
9.18599e-06
8.36376e-06
7.49551e-06
6.53173e-06
5.5302e-06
4.53202e-06
3.57834e-06