/*--------------------------------*- C++ -*----------------------------------*\
  =========                 |
  \\      /  F ield         | OpenFOAM: The Open Source CFD Toolbox
   \\    /   O peration     | Website:  https://openfoam.org
    \\  /    A nd           | Version:  12
     \\/     M anipulation  |
\*---------------------------------------------------------------------------*/
FoamFile
{
    format      ascii;
    class       volScalarField;
    location    "0.05";
    object      k;
}
// * * * * * * * * * * * * * * * * * * * * * * * * * * * * * * * * * * * * * //

dimensions      [0 2 -2 0 0 0 0];

internalField   nonuniform List<scalar> 
400
(
1.12185e-12
8.41836e-12
1.74297e-11
2.74656e-11
3.76967e-11
4.73901e-11
5.59246e-11
6.27893e-11
6.75893e-11
7.00545e-11
7.00479e-11
6.75702e-11
6.27601e-11
5.58886e-11
4.73516e-11
3.76601e-11
2.74348e-11
1.74079e-11
8.40676e-12
1.12014e-12
7.5109e-12
6.65027e-11
1.47802e-10
2.38587e-10
3.30692e-10
4.17665e-10
4.94097e-10
5.55514e-10
5.98436e-10
6.20475e-10
6.20419e-10
5.98274e-10
5.55266e-10
4.93794e-10
4.17342e-10
3.30387e-10
2.38335e-10
1.47628e-10
6.64179e-11
7.50046e-12
1.61208e-11
1.43739e-10
3.21645e-10
5.21875e-10
7.26004e-10
9.19323e-10
1.08951e-09
1.2264e-09
1.32212e-09
1.37129e-09
1.37116e-09
1.32176e-09
1.22584e-09
1.08882e-09
9.18596e-10
7.25323e-10
5.21317e-10
3.21264e-10
1.43555e-10
1.60985e-11
2.54959e-11
2.27656e-10
5.10485e-10
8.29943e-10
1.15659e-09
1.46662e-09
1.74e-09
1.96013e-09
2.11417e-09
2.1933e-09
2.19307e-09
2.1135e-09
1.95912e-09
1.73877e-09
1.46533e-09
1.15538e-09
8.28961e-10
5.0982e-10
2.27338e-10
2.54578e-11
3.47855e-11
3.10753e-10
6.9738e-10
1.1348e-09
1.58276e-09
2.0085e-09
2.38429e-09
2.68711e-09
2.89909e-09
3.00799e-09
3.00759e-09
2.89796e-09
2.68539e-09
2.3822e-09
2.00632e-09
1.58074e-09
1.13317e-09
6.96289e-10
3.10235e-10
3.47243e-11
4.33747e-11
3.87559e-10
8.70054e-10
1.41636e-09
1.97627e-09
2.50878e-09
2.97906e-09
3.35816e-09
3.62357e-09
3.75984e-09
3.75918e-09
3.62166e-09
3.35528e-09
2.97559e-09
2.50517e-09
1.97295e-09
1.41371e-09
8.6829e-10
3.86728e-10
4.32777e-11
5.07939e-11
4.5389e-10
1.01913e-09
1.65936e-09
2.31576e-09
2.94023e-09
3.49183e-09
3.93651e-09
4.24776e-09
4.40739e-09
4.4063e-09
4.24461e-09
3.93176e-09
3.48614e-09
2.93433e-09
2.31037e-09
1.65507e-09
1.0163e-09
4.52567e-10
5.06409e-11
5.66862e-11
5.06564e-10
1.13748e-09
1.8522e-09
2.58505e-09
3.28229e-09
3.89813e-09
4.39448e-09
4.7417e-09
4.91947e-09
4.9177e-09
4.7366e-09
4.38681e-09
3.88895e-09
3.27281e-09
2.57644e-09
1.84538e-09
1.133e-09
5.04483e-10
5.64476e-11
6.07926e-11
5.43268e-10
1.21993e-09
1.98646e-09
2.7724e-09
3.52004e-09
4.1802e-09
4.712e-09
5.08367e-09
5.27343e-09
5.27065e-09
5.07564e-09
4.69996e-09
4.16583e-09
3.50524e-09
2.759e-09
1.97589e-09
1.21301e-09
5.4007e-10
6.04281e-11
6.29439e-11
5.62493e-10
1.26308e-09
2.05664e-09
2.87014e-09
3.64372e-09
4.32643e-09
4.87594e-09
5.25942e-09
5.45441e-09
5.45019e-09
5.24724e-09
4.85769e-09
4.30468e-09
3.62137e-09
2.84995e-09
2.04077e-09
1.25273e-09
5.57724e-10
6.24028e-11
6.30562e-11
5.63489e-10
1.26526e-09
2.06001e-09
2.87444e-09
3.64849e-09
4.33106e-09
4.87978e-09
5.26191e-09
5.45507e-09
5.44899e-09
5.24431e-09
4.85344e-09
4.29968e-09
3.61628e-09
2.84539e-09
2.03722e-09
1.25044e-09
5.56671e-10
6.22849e-11
6.11298e-11
5.46262e-10
1.22648e-09
1.99661e-09
2.78538e-09
3.53443e-09
4.19417e-09
4.7236e-09
5.09119e-09
5.27548e-09
5.26708e-09
5.0669e-09
4.68726e-09
4.15089e-09
3.49004e-09
2.74539e-09
1.96528e-09
1.20615e-09
5.36926e-10
6.00763e-11
5.72358e-11
5.11443e-10
1.14817e-09
1.86872e-09
2.60616e-09
3.30567e-09
3.9208e-09
4.41328e-09
4.75388e-09
4.92279e-09
4.91191e-09
4.72242e-09
4.36618e-09
3.86468e-09
3.24809e-09
2.55428e-09
1.82809e-09
1.12182e-09
4.9936e-10
5.58745e-11
5.153e-11
4.60425e-10
1.03344e-09
1.68147e-09
2.34396e-09
2.97141e-09
3.522e-09
3.96149e-09
4.26389e-09
4.4118e-09
4.39863e-09
4.2258e-09
3.90437e-09
3.45386e-09
2.9014e-09
2.2808e-09
1.63198e-09
1.00135e-09
4.45716e-10
4.98748e-11
4.42458e-11
3.95292e-10
8.86979e-10
1.44245e-09
2.00945e-09
2.54534e-09
3.01431e-09
3.38725e-09
3.64229e-09
3.76496e-09
3.75026e-09
3.5998e-09
3.32338e-09
2.93792e-09
2.46662e-09
1.93824e-09
1.38652e-09
8.50667e-10
3.78643e-10
4.23738e-11
3.57062e-11
3.18922e-10
7.15223e-10
1.16219e-09
1.6174e-09
2.04645e-09
2.42067e-09
2.71697e-09
2.9182e-09
3.01323e-09
2.99846e-09
2.87554e-09
2.6526e-09
2.34333e-09
1.96635e-09
1.54456e-09
1.1047e-09
6.7776e-10
3.01715e-10
3.37721e-11
2.63478e-11
2.35207e-10
5.26899e-10
8.54945e-10
1.18792e-09
1.50061e-09
1.77229e-09
1.98643e-09
2.13088e-09
2.19791e-09
2.18506e-09
2.09378e-09
1.93014e-09
1.70418e-09
1.42949e-09
1.12264e-09
8.02967e-10
4.92781e-10
2.19465e-10
2.45776e-11
1.67708e-11
1.49482e-10
3.34008e-10
5.40444e-10
7.48927e-10
9.43843e-10
1.11252e-09
1.24495e-09
1.3338e-09
1.37453e-09
1.36549e-09
1.30776e-09
1.20512e-09
1.06384e-09
8.92386e-10
7.0105e-10
5.01765e-10
3.08277e-10
1.37494e-10
1.54193e-11
7.85798e-12
6.95306e-11
1.5417e-10
2.47922e-10
3.41972e-10
4.29521e-10
5.05073e-10
5.64265e-10
6.03882e-10
6.21898e-10
6.17535e-10
5.91329e-10
5.44863e-10
4.81065e-10
4.03738e-10
3.17505e-10
2.27692e-10
1.40367e-10
6.29528e-11
7.10899e-12
1.17831e-12
8.83497e-12
1.82507e-11
2.86289e-11
3.90721e-11
4.88134e-11
5.72273e-11
6.38205e-11
6.82308e-11
7.02325e-11
6.9757e-11
6.68722e-11
6.17093e-11
5.46037e-11
4.59793e-11
3.63595e-11
2.63539e-11
1.66552e-11
8.02312e-12
1.06952e-12
)
;

boundaryField
{
    movingWall
    {
        type            kqRWallFunction;
        value           nonuniform List<scalar> 
20
(
1.17831e-12
8.83497e-12
1.82507e-11
2.86289e-11
3.90721e-11
4.88134e-11
5.72273e-11
6.38205e-11
6.82308e-11
7.02325e-11
6.9757e-11
6.68722e-11
6.17093e-11
5.46037e-11
4.59793e-11
3.63595e-11
2.63539e-11
1.66552e-11
8.02312e-12
1.06952e-12
)
;
    }
    fixedWalls
    {
        type            kqRWallFunction;
        value           nonuniform List<scalar> 
60
(
1.12185e-12
7.5109e-12
1.61208e-11
2.54959e-11
3.47855e-11
4.33747e-11
5.07939e-11
5.66862e-11
6.07926e-11
6.29439e-11
6.30562e-11
6.11298e-11
5.72358e-11
5.153e-11
4.42458e-11
3.57062e-11
2.63478e-11
1.67708e-11
7.85798e-12
1.17831e-12
1.12014e-12
7.50046e-12
1.60985e-11
2.54578e-11
3.47243e-11
4.32777e-11
5.06409e-11
5.64476e-11
6.04281e-11
6.24028e-11
6.22849e-11
6.00763e-11
5.58745e-11
4.98748e-11
4.23738e-11
3.37721e-11
2.45776e-11
1.54193e-11
7.10899e-12
1.06952e-12
1.12185e-12
8.41836e-12
1.74297e-11
2.74656e-11
3.76967e-11
4.73901e-11
5.59246e-11
6.27893e-11
6.75893e-11
7.00545e-11
7.00479e-11
6.75702e-11
6.27601e-11
5.58886e-11
4.73516e-11
3.76601e-11
2.74348e-11
1.74079e-11
8.40676e-12
1.12014e-12
)
;
    }
    frontAndBack
    {
        type            empty;
    }
}


// ************************************************************************* //
