/*--------------------------------*- C++ -*----------------------------------*\
  =========                 |
  \\      /  F ield         | OpenFOAM: The Open Source CFD Toolbox
   \\    /   O peration     | Website:  https://openfoam.org
    \\  /    A nd           | Version:  12
     \\/     M anipulation  |
\*---------------------------------------------------------------------------*/
FoamFile
{
    format      ascii;
    class       volVectorField;
    location    "0.05";
    object      U;
}
// * * * * * * * * * * * * * * * * * * * * * * * * * * * * * * * * * * * * * //

dimensions      [0 1 -1 0 0 0 0];

internalField   nonuniform List<vector> 
400
(
(2.45985e-06 -4.92577e-06 0)
(2.27346e-05 -1.40637e-05 0)
(5.74392e-05 -2.00337e-05 0)
(0.000100681 -2.23147e-05 0)
(0.000145294 -2.17585e-05 0)
(0.000186378 -1.92706e-05 0)
(0.000221015 -1.56158e-05 0)
(0.000247637 -1.13619e-05 0)
(0.000265547 -6.86469e-06 0)
(0.000274533 -2.29943e-06 0)
(0.000274564 2.27664e-06 0)
(0.000265635 6.84649e-06 0)
(0.000247764 1.13518e-05 0)
(0.000221159 1.56152e-05 0)
(0.000186514 1.92785e-05 0)
(0.000145402 2.17717e-05 0)
(0.000100749 2.23279e-05 0)
(5.74697e-05 2.00416e-05 0)
(2.27397e-05 1.40633e-05 0)
(2.45753e-06 4.92053e-06 0)
(6.61411e-06 -4.47226e-05 0)
(5.27991e-05 -0.000110136 0)
(0.000121301 -0.000148759 0)
(0.000200532 -0.000162615 0)
(0.000278375 -0.000157157 0)
(0.000347384 -0.000138475 0)
(0.000403718 -0.000111865 0)
(0.000445846 -8.12397e-05 0)
(0.00047359 -4.90391e-05 0)
(0.000487333 -1.64419e-05 0)
(0.000487421 1.62058e-05 0)
(0.000473841 4.88455e-05 0)
(0.000446218 8.11215e-05 0)
(0.000404149 0.000111838 0)
(0.000347807 0.000138536 0)
(0.000278731 0.00015728 0)
(0.000200784 0.000162761 0)
(0.00012144 0.000148884 0)
(5.28479e-05 0.000110207 0)
(6.61677e-06 4.47348e-05 0)
(8.28951e-06 -0.000107325 0)
(6.14813e-05 -0.000244476 0)
(0.000132054 -0.000314086 0)
(0.000205585 -0.00033036 0)
(0.000269527 -0.000308976 0)
(0.000318584 -0.000264354 0)
(0.000352408 -0.000207991 0)
(0.000373335 -0.000147718 0)
(0.000384722 -8.77488e-05 0)
(0.000389624 -2.92569e-05 0)
(0.000389809 2.85563e-05 0)
(0.000385248 8.7168e-05 0)
(0.000374117 0.000147352 0)
(0.000353327 0.000207886 0)
(0.000319504 0.000264511 0)
(0.00027032 0.000309334 0)
(0.000206164 0.000330812 0)
(0.000132388 0.000314506 0)
(6.16094e-05 0.000244755 0)
(8.29931e-06 0.00010741 0)
(8.25248e-06 -0.000170823 0)
(4.80361e-05 -0.000364573 0)
(8.42221e-05 -0.000441381 0)
(0.000102741 -0.000436095 0)
(9.60323e-05 -0.000380907 0)
(6.64876e-05 -0.000302413 0)
(2.27452e-05 -0.000219897 0)
(-2.3915e-05 -0.000144735 0)
(-6.23411e-05 -8.08937e-05 0)
(-8.37477e-05 -2.63652e-05 0)
(-8.33771e-05 2.47109e-05 0)
(-6.12869e-05 7.9508e-05 0)
(-2.23447e-05 0.000143836 0)
(2.4607e-05 0.00021961 0)
(6.83803e-05 0.000302742 0)
(9.76911e-05 0.000381729 0)
(0.000103974 0.00043718 0)
(8.49515e-05 0.000442438 0)
(4.83254e-05 0.000365322 0)
(8.2767e-06 0.000171084 0)
(6.2794e-06 -0.000211184 0)
(4.72817e-06 -0.000403109 0)
(-4.66269e-05 -0.000428216 0)
(-0.000156588 -0.000353226 0)
(-0.0003191 -0.0002349 0)
(-0.000515312 -0.00011649 0)
(-0.000719188 -2.61404e-05 0)
(-0.000902821 2.32236e-05 0)
(-0.00104098 3.24046e-05 0)
(-0.00111473 1.29947e-05 0)
(-0.00111403 -1.65394e-05 0)
(-0.00103896 -3.54018e-05 0)
(-0.000899785 -2.52188e-05 0)
(-0.000715559 2.5427e-05 0)
(-0.000511596 0.000117094 0)
(-0.000315794 0.000236599 0)
(-0.000154084 0.000355565 0)
(-4.51108e-05 0.00043058 0)
(5.34932e-06 0.00040486 0)
(6.33598e-06 0.00021184 0)
(7.59581e-07 -0.000193161 0)
(-8.76825e-05 -0.000258544 0)
(-0.000311998 -0.000118344 0)
(-0.000667312 0.000111927 0)
(-0.00111991 0.000340026 0)
(-0.00162059 0.000500928 0)
(-0.00211289 0.000557788 0)
(-0.00254076 0.000500871 0)
(-0.00285556 0.000344199 0)
(-0.00302168 0.000120167 0)
(-0.00302041 -0.000127268 0)
(-0.00285193 -0.000350256 0)
(-0.00253525 -0.000505004 0)
(-0.00210623 -0.000559428 0)
(-0.00161368 -0.000499938 0)
(-0.00111367 -0.00033676 0)
(-0.000662482 -0.000107226 0)
(-0.000308998 0.000123269 0)
(-8.64097e-05 0.000262337 0)
(8.85735e-07 0.000194664 0)
(-1.12006e-05 -5.6608e-05 0)
(-0.000261882 0.000236884 0)
(-0.000796478 0.000741543 0)
(-0.00158198 0.00126898 0)
(-0.0025342 0.00167739 0)
(-0.003552 0.00187493 0)
(-0.00452898 0.00181889 0)
(-0.00536409 0.00151209 0)
(-0.00597186 0.000996415 0)
(-0.00629072 0.000343432 0)
(-0.00628862 -0.000356771 0)
(-0.00596581 -0.0010079 0)
(-0.00535482 -0.00152014 0)
(-0.00451765 -0.00182238 0)
(-0.00354004 -0.0018735 0)
(-0.00252318 -0.00167151 0)
(-0.00157325 -0.00126008 0)
(-0.000790903 -0.000731861 0)
(-0.000259421 -0.000229128 0)
(-1.0932e-05 5.98494e-05 0)
(-3.42025e-05 0.000298374 0)
(-0.000567582 0.00135342 0)
(-0.00162623 0.0025514 0)
(-0.00312467 0.00359923 0)
(-0.00489245 0.0042891 0)
(-0.00674413 0.00449945 0)
(-0.0084953 0.00418974 0)
(-0.0099763 0.00339241 0)
(-0.0110465 0.00220101 0)
(-0.0116059 0.000754919 0)
(-0.0116028 -0.000778223 0)
(-0.0110375 -0.00222132 0)
(-0.00996234 -0.00340704 0)
(-0.0084779 -0.0041967 0)
(-0.00672534 -0.0044978 0)
(-0.00487463 -0.00427932 0)
(-0.00311012 -0.00358348 0)
(-0.0016166 -0.00253351 0)
(-0.00056314 -0.00133847 0)
(-3.36696e-05 -0.000291788 0)
(-7.52001e-05 0.0010307 0)
(-0.00107581 0.00350932 0)
(-0.00297767 0.00591853 0)
(-0.00560377 0.0078219 0)
(-0.00864321 0.00893 0)
(-0.0117798 0.00909467 0)
(-0.0147126 0.00829549 0)
(-0.0171725 0.00662355 0)
(-0.0189401 0.00426119 0)
(-0.0198617 0.00145804 0)
(-0.0198579 -0.00149519 0)
(-0.0189291 -0.00429404 0)
(-0.0171549 -0.00664809 0)
(-0.01469 -0.00830839 0)
(-0.0117543 -0.00909387 0)
(-0.00861796 -0.00891545 0)
(-0.00558217 -0.00779633 0)
(-0.00296265 -0.00588783 0)
(-0.00106847 -0.00348238 0)
(-7.42219e-05 -0.00101814 0)
(-0.000144205 0.00238223 0)
(-0.00188284 0.00732459 0)
(-0.00508357 0.0117253 0)
(-0.00941729 0.0149638 0)
(-0.0143539 0.016661 0)
(-0.019383 0.0166593 0)
(-0.0240382 0.0149935 0)
(-0.0279132 0.0118608 0)
(-0.0306839 0.00758764 0)
(-0.0321254 0.00259359 0)
(-0.0321228 -0.0026454 0)
(-0.0306758 -0.00763455 0)
(-0.0278991 -0.0118978 0)
(-0.0240179 -0.0150155 0)
(-0.0193576 -0.0166623 0)
(-0.0143259 -0.0166431 0)
(-0.00939094 -0.0149271 0)
(-0.00506356 -0.0116776 0)
(-0.00187214 -0.00727993 0)
(-0.000142574 -0.00236 0)
(-0.000255136 0.00470573 0)
(-0.00311235 0.0136778 0)
(-0.00823107 0.021193 0)
(-0.0150391 0.0264151 0)
(-0.0226773 0.0288888 0)
(-0.0303598 0.0284929 0)
(-0.0373982 0.0253819 0)
(-0.0432115 0.0199338 0)
(-0.0473466 0.0126971 0)
(-0.0494944 0.00434043 0)
(-0.0494978 -0.00439666 0)
(-0.0473551 -0.0127507 0)
(-0.043221 -0.0199806 0)
(-0.0374036 -0.0254159 0)
(-0.0303569 -0.0285064 0)
(-0.0226648 -0.0288755 0)
(-0.0150202 -0.0263729 0)
(-0.00821206 -0.0211292 0)
(-0.00309987 -0.0136118 0)
(-0.000252749 -0.00466985 0)
(-0.000426865 0.00849472 0)
(-0.00491423 0.023755 0)
(-0.0127446 0.0359185 0)
(-0.0229686 0.0439352 0)
(-0.0342516 0.0473375 0)
(-0.045438 0.04614 0)
(-0.055565 0.0407311 0)
(-0.063853 0.031782 0)
(-0.069713 0.0201684 0)
(-0.0727518 0.00690237 0)
(-0.0727715 -0.00692566 0)
(-0.0697677 -0.0201985 0)
(-0.0639305 -0.0318216 0)
(-0.0556484 -0.0407753 0)
(-0.0455103 -0.0461768 0)
(-0.0343006 -0.0473506 0)
(-0.0229906 -0.0439111 0)
(-0.0127456 -0.0358561 0)
(-0.0049069 -0.0236746 0)
(-0.000424097 -0.00844405 0)
(-0.000685056 0.0144127 0)
(-0.00746006 0.0390715 0)
(-0.018945 0.0578408 0)
(-0.0336175 0.069543 0)
(-0.0494835 0.0738673 0)
(-0.0649277 0.0711651 0)
(-0.0786942 0.0622518 0)
(-0.0898249 0.0482566 0)
(-0.0976315 0.0305105 0)
(-0.101672 0.0104649 0)
(-0.101726 -0.0103652 0)
(-0.0977841 -0.0304419 0)
(-0.0900493 -0.0482403 0)
(-0.0789519 -0.0622917 0)
(-0.0651762 -0.0712451 0)
(-0.0496856 -0.0739541 0)
(-0.0337513 -0.0695974 0)
(-0.0190097 -0.0578354 0)
(-0.00747604 -0.0390121 0)
(-0.000683561 -0.0143568 0)
(-0.00106703 0.0233246 0)
(-0.0109404 0.0614386 0)
(-0.0270739 0.089061 0)
(-0.0470895 0.105168 0)
(-0.068126 0.10999 0)
(-0.0880725 0.1046 0)
(-0.105454 0.0905582 0)
(-0.119257 0.0696757 0)
(-0.128821 0.0438717 0)
(-0.133753 0.0150969 0)
(-0.133866 -0.014696 0)
(-0.129143 -0.0435503 0)
(-0.11974 -0.0694951 0)
(-0.106027 -0.090547 0)
(-0.0886513 -0.104745 0)
(-0.0686294 -0.110233 0)
(-0.0474569 -0.105422 0)
(-0.0272831 -0.0892396 0)
(-0.0110166 -0.0614958 0)
(-0.00107104 -0.0232989 0)
(-0.00164051 0.0363527 0)
(-0.0155805 0.0928422 0)
(-0.0371614 0.131384 0)
(-0.0627546 0.151845 0)
(-0.0884735 0.155825 0)
(-0.111849 0.145818 0)
(-0.131472 0.124614 0)
(-0.146592 0.0949728 0)
(-0.156849 0.0594846 0)
(-0.162099 0.0205478 0)
(-0.16229 -0.0195788 0)
(-0.157401 -0.0586799 0)
(-0.147439 -0.0944634 0)
(-0.132502 -0.124467 0)
(-0.112926 -0.146041 0)
(-0.0894544 -0.15634 0)
(-0.0635157 -0.152498 0)
(-0.0376331 -0.131981 0)
(-0.0157777 -0.0932146 0)
(-0.00165872 -0.0364441 0)
(-0.0025352 0.0549613 0)
(-0.0216609 0.135071 0)
(-0.0486848 0.185216 0)
(-0.0782946 0.207985 0)
(-0.105723 0.208038 0)
(-0.12873 0.190466 0)
(-0.146665 0.159923 0)
(-0.159626 0.120322 0)
(-0.168017 0.0748078 0)
(-0.172231 0.0259448 0)
(-0.172486 -0.0240799 0)
(-0.168757 -0.0731997 0)
(-0.160776 -0.119203 0)
(-0.148103 -0.159472 0)
(-0.1303 -0.190733 0)
(-0.107232 -0.208945 0)
(-0.0795444 -0.209286 0)
(-0.0495212 -0.186572 0)
(-0.0220486 -0.136088 0)
(-0.00258275 -0.0553347 0)
(-0.00382061 0.0812795 0)
(-0.0292148 0.188864 0)
(-0.0591989 0.247027 0)
(-0.0869779 0.265823 0)
(-0.108153 0.256175 0)
(-0.12225 0.227299 0)
(-0.130661 0.186117 0)
(-0.135132 0.137461 0)
(-0.137223 0.0845405 0)
(-0.138081 0.0294134 0)
(-0.138302 -0.0265021 0)
(-0.13788 -0.081984 0)
(-0.1362 -0.135582 0)
(-0.132081 -0.185164 0)
(-0.123895 -0.227421 0)
(-0.109824 -0.25736 0)
(-0.0884767 -0.267855 0)
(-0.0602983 -0.249411 0)
(-0.0297875 -0.19087 0)
(-0.00390066 -0.082141 0)
(-0.00567739 0.121377 0)
(-0.0361692 0.252318 0)
(-0.058799 0.30271 0)
(-0.0690538 0.303319 0)
(-0.0675335 0.275659 0)
(-0.0583181 0.233221 0)
(-0.0457647 0.183969 0)
(-0.0334316 0.132215 0)
(-0.0238567 0.0799579 0)
(-0.0186524 0.0278162 0)
(-0.0186141 -0.0243193 0)
(-0.0237729 -0.076788 0)
(-0.0333844 -0.129711 0)
(-0.0458612 -0.182475 0)
(-0.0586521 -0.233033 0)
(-0.0681456 -0.276928 0)
(-0.0698366 -0.305888 0)
(-0.059517 -0.30613 0)
(-0.0366594 -0.255632 0)
(-0.00579187 -0.123022 0)
(-0.0145068 0.185289 0)
(-0.0304637 0.315803 0)
(-0.00974734 0.32553 0)
(0.0334889 0.28937 0)
(0.0837749 0.238961 0)
(0.13211 0.18716 0)
(0.173939 0.138915 0)
(0.206803 0.0954227 0)
(0.229364 0.0560559 0)
(0.240983 0.0193562 0)
(0.241396 -0.0164658 0)
(0.230556 -0.0533019 0)
(0.208639 -0.092983 0)
(0.176204 -0.137028 0)
(0.134495 -0.186151 0)
(0.085932 -0.239189 0)
(0.035092 -0.291072 0)
(-0.00894827 -0.32851 0)
(-0.030289 -0.319063 0)
(-0.0145628 -0.187185 0)
(0.102254 0.097845 0)
(0.170891 0.136615 0)
(0.285787 0.116744 0)
(0.399393 0.0889077 0)
(0.490753 0.0651395 0)
(0.559866 0.0463298 0)
(0.610715 0.0317471 0)
(0.646389 0.0204721 0)
(0.669079 0.0115094 0)
(0.68025 0.00389582 0)
(0.680635 -0.00327094 0)
(0.670278 -0.0108174 0)
(0.648323 -0.0197197 0)
(0.61331 -0.0309178 0)
(0.562973 -0.0454405 0)
(0.494121 -0.064261 0)
(0.402646 -0.0881788 0)
(0.28839 -0.116392 0)
(0.172343 -0.136867 0)
(0.102609 -0.0984018 0)
)
;

boundaryField
{
    movingWall
    {
        type            fixedValue;
        value           uniform (1 0 0);
    }
    fixedWalls
    {
        type            noSlip;
    }
    frontAndBack
    {
        type            empty;
    }
}


// ************************************************************************* //
