/*--------------------------------*- C++ -*----------------------------------*\
  =========                 |
  \\      /  F ield         | OpenFOAM: The Open Source CFD Toolbox
   \\    /   O peration     | Website:  https://openfoam.org
    \\  /    A nd           | Version:  12
     \\/     M anipulation  |
\*---------------------------------------------------------------------------*/
FoamFile
{
    format      ascii;
    class       surfaceScalarField;
    location    "0.05";
    object      phi;
}
// * * * * * * * * * * * * * * * * * * * * * * * * * * * * * * * * * * * * * //

dimensions      [0 3 -1 0 0 0 0];

internalField   nonuniform List<scalar> 
760
(
-4.19726e-08
4.19742e-08
-3.49375e-07
3.07402e-07
-7.98212e-07
4.48837e-07
-1.25677e-06
4.58558e-07
-1.65399e-06
3.97221e-07
-1.9629e-06
3.0891e-07
-2.18378e-06
2.20882e-07
-2.32884e-06
1.45059e-07
-2.41209e-06
8.32485e-08
-2.44362e-06
3.15329e-08
-2.4266e-06
-1.7022e-08
-2.35653e-06
-7.00724e-08
-2.2219e-06
-1.34626e-07
-2.00704e-06
-2.14865e-07
-1.69819e-06
-3.08852e-07
-1.2944e-06
-4.03783e-07
-8.23838e-07
-4.70567e-07
-3.61209e-07
-4.62629e-07
-4.38329e-08
-3.17376e-07
-4.3833e-08
-2.6499e-07
3.06964e-07
-1.1004e-06
1.14282e-06
-2.2448e-06
1.59323e-06
-3.41401e-06
1.62778e-06
-4.43699e-06
1.4202e-06
-5.24325e-06
1.11517e-06
-5.82765e-06
8.05281e-07
-6.21596e-06
5.33366e-07
-6.44015e-06
3.07439e-07
-6.52386e-06
1.15253e-07
-6.47466e-06
-6.62291e-08
-6.28173e-06
-2.63003e-07
-5.91803e-06
-4.98328e-07
-5.34774e-06
-7.85152e-07
-4.5418e-06
-1.11479e-06
-3.50409e-06
-1.4415e-06
-2.30783e-06
-1.66682e-06
-1.13208e-06
-1.63838e-06
-2.72691e-07
-1.17677e-06
-3.16523e-07
-5.22437e-07
8.29401e-07
-1.83164e-06
2.45202e-06
-3.53336e-06
3.29494e-06
-5.25087e-06
3.34529e-06
-6.75179e-06
2.92112e-06
-7.93857e-06
2.30194e-06
-8.80301e-06
1.66972e-06
-9.38007e-06
1.11043e-06
-9.71391e-06
6.41282e-07
-9.83729e-06
2.38629e-07
-9.76079e-06
-1.42724e-07
-9.46945e-06
-5.54345e-07
-8.92586e-06
-1.04192e-06
-8.08085e-06
-1.63015e-06
-6.89519e-06
-2.30045e-06
-5.37538e-06
-2.96131e-06
-3.62232e-06
-3.41989e-06
-1.87842e-06
-3.38228e-06
-5.35359e-07
-2.51983e-06
-8.51882e-07
-7.68211e-07
1.59761e-06
-2.50214e-06
4.18595e-06
-4.65909e-06
5.45189e-06
-6.79391e-06
5.48011e-06
-8.64218e-06
4.7694e-06
-1.00976e-05
3.75736e-06
-1.11563e-05
2.72846e-06
-1.1863e-05
1.81707e-06
-1.22714e-05
1.04972e-06
-1.2421e-05
3.88178e-07
-1.23245e-05
-2.39228e-07
-1.19643e-05
-9.14492e-07
-1.1296e-05
-1.71025e-06
-1.02602e-05
-2.66595e-06
-8.80749e-06
-3.75315e-06
-6.93941e-06
-4.82939e-06
-4.7652e-06
-5.5941e-06
-2.55973e-06
-5.58775e-06
-7.85009e-07
-4.29455e-06
-1.63689e-06
-9.94468e-07
2.59208e-06
-3.10136e-06
6.29284e-06
-5.62364e-06
7.97418e-06
-8.05939e-06
7.91585e-06
-1.01341e-05
6.8441e-06
-1.17502e-05
5.37351e-06
-1.29176e-05
3.89584e-06
-1.36931e-05
2.59259e-06
-1.41396e-05
1.49619e-06
-1.43016e-05
5.50199e-07
-1.41938e-05
-3.47043e-07
-1.3797e-05
-1.31128e-06
-1.30617e-05
-2.44561e-06
-1.19196e-05
-3.80805e-06
-1.03087e-05
-5.36405e-06
-8.21598e-06
-6.92208e-06
-5.74065e-06
-8.06944e-06
-3.16679e-06
-8.16161e-06
-1.01425e-06
-6.44709e-06
-2.65114e-06
-1.20375e-06
3.79583e-06
-3.63175e-06
8.72084e-06
-6.43201e-06
1.07744e-05
-9.05653e-06
1.05404e-05
-1.12405e-05
9.02802e-06
-1.29117e-05
7.04471e-06
-1.4103e-05
5.08719e-06
-1.48869e-05
3.3765e-06
-1.5335e-05
1.94427e-06
-1.54961e-05
7.11294e-07
-1.53863e-05
-4.56843e-07
-1.49858e-05
-1.71174e-06
-1.42416e-05
-3.18987e-06
-1.3077e-05
-4.97259e-06
-1.14145e-05
-7.02652e-06
-9.21692e-06
-9.11971e-06
-6.55572e-06
-1.07306e-05
-3.70346e-06
-1.10139e-05
-1.22629e-06
-8.92426e-06
-3.87743e-06
-1.40285e-06
5.19868e-06
-4.10069e-06
1.14187e-05
-7.08832e-06
1.37621e-05
-9.78687e-06
1.32389e-05
-1.19622e-05
1.12033e-05
-1.35838e-05
8.66633e-06
-1.47161e-05
6.21953e-06
-1.54497e-05
4.11006e-06
-1.58642e-05
2.35883e-06
-1.60117e-05
8.58768e-07
-1.59092e-05
-5.59358e-07
-1.55372e-05
-2.08376e-06
-1.48408e-05
-3.88623e-06
-1.37362e-05
-6.07717e-06
-1.21277e-05
-8.63504e-06
-9.94527e-06
-1.13022e-05
-7.21589e-06
-1.346e-05
-4.17824e-06
-1.40515e-05
-1.42854e-06
-1.1674e-05
-5.30596e-06
-1.60071e-06
6.79939e-06
-4.51617e-06
1.43341e-05
-7.59207e-06
1.6838e-05
-1.0242e-05
1.58889e-05
-1.22873e-05
1.32486e-05
-1.37552e-05
1.01343e-05
-1.47484e-05
7.21273e-06
-1.53762e-05
4.73777e-06
-1.57246e-05
2.70732e-06
-1.58469e-05
9.81058e-07
-1.57606e-05
-6.45719e-07
-1.54472e-05
-2.39713e-06
-1.48523e-05
-4.48114e-06
-1.38869e-05
-7.0426e-06
-1.24369e-05
-1.0085e-05
-1.0393e-05
-1.33461e-05
-7.72101e-06
-1.6132e-05
-4.59968e-06
-1.71729e-05
-1.6304e-06
-1.46432e-05
-6.93636e-06
-1.80743e-06
8.60682e-06
-4.88348e-06
1.74102e-05
-7.93406e-06
1.98885e-05
-1.04004e-05
1.83552e-05
-1.21894e-05
1.50375e-05
-1.34011e-05
1.1346e-05
-1.41799e-05
7.9916e-06
-1.46516e-05
5.2095e-06
-1.49052e-05
2.96089e-06
-1.49922e-05
1.06799e-06
-1.49295e-05
-7.08336e-07
-1.47013e-05
-2.62539e-06
-1.42562e-05
-4.92624e-06
-1.35041e-05
-7.79471e-06
-1.23153e-05
-1.12738e-05
-1.05378e-05
-1.51236e-05
-8.06111e-06
-1.86086e-05
-4.97287e-06
-2.02611e-05
-1.84215e-06
-1.7774e-05
-8.77851e-06
-2.03342e-06
1.06402e-05
-5.20151e-06
2.05783e-05
-8.09127e-06
2.27783e-05
-1.02233e-05
2.04873e-05
-1.1625e-05
1.64392e-05
-1.24816e-05
1.22026e-05
-1.29783e-05
8.48833e-06
-1.32515e-05
5.48268e-06
-1.3387e-05
3.09639e-06
-1.34308e-05
1.11175e-06
-1.33979e-05
-7.41174e-07
-1.3276e-05
-2.74732e-06
-1.30211e-05
-5.1811e-06
-1.25482e-05
-8.26766e-06
-1.17184e-05
-1.21036e-05
-1.0339e-05
-1.6503e-05
-8.21125e-06
-2.07364e-05
-5.29557e-06
-2.31768e-05
-2.07404e-06
-2.09955e-05
-1.08525e-05
-2.28801e-06
1.29282e-05
-5.45739e-06
2.37477e-05
-8.01999e-06
2.53409e-05
-9.64915e-06
2.21165e-05
-1.05308e-05
1.73208e-05
-1.09424e-05
1.26141e-05
-1.11014e-05
8.6474e-06
-1.11445e-05
5.52573e-06
-1.1146e-05
3.09788e-06
-1.11413e-05
1.1071e-06
-1.1142e-05
-7.40467e-07
-1.11406e-05
-2.74872e-06
-1.11054e-05
-5.21632e-06
-1.09647e-05
-8.40837e-06
-1.05819e-05
-1.24864e-05
-9.73279e-06
-1.7352e-05
-8.12474e-06
-2.23444e-05
-5.55272e-06
-2.57488e-05
-2.33479e-06
-2.42134e-05
-1.31873e-05
-2.57684e-06
1.55051e-05
-5.61797e-06
2.67888e-05
-7.6459e-06
2.73688e-05
-8.58672e-06
2.30573e-05
-8.82103e-06
1.75552e-05
-8.71343e-06
1.25065e-05
-8.49724e-06
8.43121e-06
-8.29333e-06
5.32182e-06
-8.1543e-06
2.95885e-06
-8.09947e-06
1.05227e-06
-8.13481e-06
-7.05134e-07
-8.25925e-06
-2.62428e-06
-8.45844e-06
-5.01713e-06
-8.68453e-06
-8.18228e-06
-8.81921e-06
-1.23517e-05
-8.62553e-06
-1.75457e-05
-7.7237e-06
-2.32463e-05
-5.7077e-06
-2.77648e-05
-2.62866e-06
-2.72925e-05
-1.5816e-05
-2.89506e-06
1.84001e-05
-5.61517e-06
2.95089e-05
-6.85037e-06
2.8604e-05
-6.90716e-06
2.31141e-05
-6.3841e-06
1.70321e-05
-5.71034e-06
1.18328e-05
-5.1065e-06
7.82737e-06
-4.65767e-06
4.87299e-06
-4.3831e-06
2.68429e-06
-4.28049e-06
9.49656e-07
-4.34848e-06
-6.37143e-07
-4.59355e-06
-2.37921e-06
-5.02357e-06
-4.58711e-06
-5.6256e-06
-7.58024e-06
-6.32011e-06
-1.16572e-05
-6.88706e-06
-1.69788e-05
-6.88578e-06
-2.32476e-05
-5.68759e-06
-2.8963e-05
-2.94892e-06
-3.00311e-05
-1.87649e-05
-3.21319e-06
2.16133e-05
-5.32098e-06
3.16167e-05
-5.45037e-06
2.87334e-05
-4.43486e-06
2.20986e-05
-3.08211e-06
1.56793e-05
-1.83657e-06
1.05872e-05
-8.6622e-07
6.85702e-06
-1.97473e-07
4.20425e-06
1.94448e-07
2.29237e-06
3.37722e-07
8.06382e-07
2.42282e-07
-5.41703e-07
-1.06414e-07
-2.03052e-06
-7.41849e-07
-3.95168e-06
-1.69596e-06
-6.62613e-06
-2.95048e-06
-1.04027e-05
-4.34328e-06
-1.5586e-05
-5.42529e-06
-2.21655e-05
-5.35916e-06
-2.90291e-05
-3.26277e-06
-3.21275e-05
-2.20277e-05
-3.44533e-06
2.50587e-05
-4.50588e-06
3.26773e-05
-3.17292e-06
2.74005e-05
-9.39624e-07
1.98653e-05
1.24739e-06
1.34923e-05
3.01116e-06
8.82346e-06
4.2851e-06
5.58309e-06
5.12267e-06
3.36668e-06
5.59963e-06
1.8154e-06
5.77147e-06
6.34542e-07
5.65698e-06
-4.27212e-07
5.23394e-06
-1.60747e-06
4.44266e-06
-3.1604e-06
3.20055e-06
-5.38402e-06
1.44448e-06
-8.64663e-06
-7.69775e-07
-1.33717e-05
-3.07029e-06
-1.9865e-05
-4.48964e-06
-2.76098e-05
-3.47813e-06
-3.3139e-05
-2.55058e-05
-3.3846e-06
2.84432e-05
-2.77123e-06
3.20639e-05
3.7685e-07
2.42524e-05
3.86671e-06
1.63754e-05
6.78348e-06
1.05756e-05
8.93369e-06
6.67325e-06
1.04001e-05
4.11672e-06
1.13283e-05
2.43843e-06
1.18444e-05
1.29925e-06
1.20281e-05
4.50844e-07
1.19058e-05
-3.04853e-07
1.14491e-05
-1.15081e-06
1.05761e-05
-2.28737e-06
9.15536e-06
-3.9633e-06
7.03199e-06
-6.52326e-06
4.10934e-06
-1.04491e-05
5.66137e-07
-1.63218e-05
-2.67963e-06
-2.4364e-05
-3.38321e-06
-3.24355e-05
-2.8889e-05
-2.58912e-06
3.10324e-05
5.48621e-07
2.89262e-05
5.74737e-06
1.90536e-05
1.03222e-05
1.18006e-05
1.37044e-05
7.19333e-06
1.60149e-05
4.36275e-06
1.75129e-05
2.61873e-06
1.84294e-05
1.52192e-06
1.8928e-05
8.00632e-07
1.91034e-05
2.75472e-07
1.89863e-05
-1.87806e-07
1.85457e-05
-7.10188e-07
1.76864e-05
-1.42808e-06
1.62421e-05
-2.51894e-06
1.39751e-05
-4.25626e-06
1.0613e-05
-7.08701e-06
6.0146e-06
-1.17234e-05
7.32126e-07
-1.90815e-05
-2.53051e-06
-2.91728e-05
-3.14195e-05
-6.43619e-09
3.10388e-05
6.62642e-06
2.22933e-05
1.367e-05
1.201e-05
1.87794e-05
6.69122e-06
2.21538e-05
3.81899e-06
2.43004e-05
2.21611e-06
2.56278e-05
1.29133e-06
2.64144e-05
7.35356e-07
2.68335e-05
3.81517e-07
2.6979e-05
1.29938e-07
2.68812e-05
-8.99457e-08
2.65106e-05
-3.39667e-07
2.57741e-05
-6.91523e-07
2.44981e-05
-1.24299e-06
2.24021e-05
-2.16019e-06
1.90692e-05
-3.75415e-06
1.39733e-05
-6.62747e-06
6.88165e-06
-1.19899e-05
1.18229e-07
-2.24094e-05
-3.13013e-05
6.3577e-06
2.46811e-05
1.74586e-05
1.11924e-05
2.50057e-05
4.46294e-06
2.95122e-05
2.18472e-06
3.21831e-05
1.14808e-06
3.37689e-05
6.30332e-07
3.47059e-05
3.54258e-07
3.52445e-05
1.9678e-07
3.55257e-05
1.00308e-07
3.5622e-05
3.36792e-08
3.55561e-05
-2.40666e-08
3.53066e-05
-9.01801e-08
3.48014e-05
-1.86279e-07
3.39009e-05
-3.42504e-07
3.23563e-05
-6.15642e-07
2.97303e-05
-1.12806e-06
2.52623e-05
-2.15957e-06
1.77173e-05
-4.4449e-06
6.5239e-06
-1.1216e-05
-2.47774e-05
2.46811e-05
3.58735e-05
4.03364e-05
4.25212e-05
4.36692e-05
4.42996e-05
4.46538e-05
4.48506e-05
4.49509e-05
4.49846e-05
4.49605e-05
4.48703e-05
4.46841e-05
4.43416e-05
4.37259e-05
4.25979e-05
4.04383e-05
3.59934e-05
2.47774e-05
)
;

boundaryField
{
    movingWall
    {
        type            calculated;
        value           uniform 0;
    }
    fixedWalls
    {
        type            calculated;
        value           uniform 0;
    }
    frontAndBack
    {
        type            empty;
    }
}


// ************************************************************************* //
