/*--------------------------------*- C++ -*----------------------------------*\
  =========                 |
  \\      /  F ield         | OpenFOAM: The Open Source CFD Toolbox
   \\    /   O peration     | Website:  https://openfoam.org
    \\  /    A nd           | Version:  12
     \\/     M anipulation  |
\*---------------------------------------------------------------------------*/
FoamFile
{
    format      ascii;
    class       volScalarField;
    location    "5";
    object      epsilon;
}
// * * * * * * * * * * * * * * * * * * * * * * * * * * * * * * * * * * * * * //

dimensions      [0 2 -3 0 0 0 0];

internalField   nonuniform List<scalar> 
5625
(
2.41758e-11
4.56509e-11
9.67402e-11
1.57691e-10
2.26308e-10
3.00933e-10
3.80352e-10
4.63625e-10
5.49982e-10
6.38754e-10
7.29341e-10
8.21192e-10
9.13792e-10
1.00665e-09
1.09931e-09
1.19133e-09
1.28227e-09
1.37174e-09
1.45933e-09
1.54469e-09
1.62744e-09
1.70725e-09
1.78379e-09
1.85676e-09
1.92587e-09
1.99084e-09
2.05142e-09
2.10738e-09
2.15851e-09
2.20462e-09
2.24553e-09
2.2811e-09
2.31119e-09
2.33569e-09
2.35453e-09
2.36764e-09
2.37497e-09
2.37651e-09
2.37226e-09
2.36224e-09
2.34649e-09
2.3251e-09
2.29813e-09
2.26571e-09
2.22796e-09
2.18503e-09
2.13709e-09
2.08433e-09
2.02695e-09
1.96518e-09
1.89925e-09
1.82944e-09
1.756e-09
1.67924e-09
1.59946e-09
1.51697e-09
1.4321e-09
1.34522e-09
1.25668e-09
1.16685e-09
1.07613e-09
9.84925e-10
8.93651e-10
8.02753e-10
7.12694e-10
6.23964e-10
5.37089e-10
4.52641e-10
3.7126e-10
2.93687e-10
2.20827e-10
1.53854e-10
9.43778e-11
4.45334e-11
2.35829e-11
1.63523e-10
8.87018e-11
8.62086e-11
1.02907e-10
1.2863e-10
1.59744e-10
1.94501e-10
2.31894e-10
2.71258e-10
3.12105e-10
3.54047e-10
3.96757e-10
4.39948e-10
4.83359e-10
5.26751e-10
5.69897e-10
6.12587e-10
6.54619e-10
6.95801e-10
7.35951e-10
7.74896e-10
8.12472e-10
8.48521e-10
8.82897e-10
9.15462e-10
9.46085e-10
9.74647e-10
1.00104e-09
1.02515e-09
1.0469e-09
1.0662e-09
1.08299e-09
1.09719e-09
1.10876e-09
1.11765e-09
1.12385e-09
1.12732e-09
1.12805e-09
1.12606e-09
1.12134e-09
1.11392e-09
1.10384e-09
1.09113e-09
1.07584e-09
1.05804e-09
1.0378e-09
1.01519e-09
9.90313e-10
9.63259e-10
9.34136e-10
9.0306e-10
8.70154e-10
8.35549e-10
7.99384e-10
7.61805e-10
7.22966e-10
6.83028e-10
6.42161e-10
6.0054e-10
5.58351e-10
5.15786e-10
4.73048e-10
4.30354e-10
3.87932e-10
3.46032e-10
3.04928e-10
2.64934e-10
2.26422e-10
1.89862e-10
1.55899e-10
1.25511e-10
1.00396e-10
8.40969e-11
8.65259e-11
1.59513e-10
3.63554e-10
1.77742e-10
1.36833e-10
1.29006e-10
1.35089e-10
1.48825e-10
1.67398e-10
1.89276e-10
2.13516e-10
2.3948e-10
2.66707e-10
2.94839e-10
3.23586e-10
3.52705e-10
3.81981e-10
4.11224e-10
4.40261e-10
4.68931e-10
4.97086e-10
5.24589e-10
5.51307e-10
5.7712e-10
6.01912e-10
6.25576e-10
6.48012e-10
6.69124e-10
6.88828e-10
7.07043e-10
7.23697e-10
7.38724e-10
7.52065e-10
7.63669e-10
7.73492e-10
7.81498e-10
7.87657e-10
7.91947e-10
7.94353e-10
7.9487e-10
7.93496e-10
7.9024e-10
7.85116e-10
7.78146e-10
7.6936e-10
7.58793e-10
7.4649e-10
7.32499e-10
7.16879e-10
6.99692e-10
6.81008e-10
6.60904e-10
6.39462e-10
6.1677e-10
5.92924e-10
5.68025e-10
5.42179e-10
5.15501e-10
4.8811e-10
4.60133e-10
4.31706e-10
4.02972e-10
3.74085e-10
3.45214e-10
3.16541e-10
2.88272e-10
2.60642e-10
2.33931e-10
2.08483e-10
1.84747e-10
1.6334e-10
1.45178e-10
1.31753e-10
1.25809e-10
1.33443e-10
1.73351e-10
3.54591e-10
6.01393e-10
2.87802e-10
2.08334e-10
1.7932e-10
1.70279e-10
1.71745e-10
1.79654e-10
1.91883e-10
2.07164e-10
2.24667e-10
2.43809e-10
2.64153e-10
2.85363e-10
3.07164e-10
3.29327e-10
3.51655e-10
3.73974e-10
3.96131e-10
4.17984e-10
4.39406e-10
4.60278e-10
4.80493e-10
4.99948e-10
5.18551e-10
5.36213e-10
5.52856e-10
5.68405e-10
5.82792e-10
5.95957e-10
6.07843e-10
6.18402e-10
6.27591e-10
6.35372e-10
6.41715e-10
6.46595e-10
6.49995e-10
6.519e-10
6.52306e-10
6.51212e-10
6.48624e-10
6.44553e-10
6.39018e-10
6.32043e-10
6.23658e-10
6.13898e-10
6.02805e-10
5.90426e-10
5.76814e-10
5.62028e-10
5.46131e-10
5.29195e-10
5.11293e-10
4.92508e-10
4.72927e-10
4.52643e-10
4.31757e-10
4.10377e-10
3.88617e-10
3.66604e-10
3.44474e-10
3.22376e-10
3.0048e-10
2.78976e-10
2.58086e-10
2.38075e-10
2.19271e-10
2.02096e-10
1.87114e-10
1.75136e-10
1.67393e-10
1.65954e-10
1.74777e-10
2.03088e-10
2.80601e-10
5.86394e-10
8.66407e-10
4.11652e-10
2.91524e-10
2.4181e-10
2.1908e-10
2.10118e-10
2.0941e-10
2.14156e-10
2.2273e-10
2.34092e-10
2.47525e-10
2.62507e-10
2.7864e-10
2.95608e-10
3.13153e-10
3.31059e-10
3.49138e-10
3.67228e-10
3.85186e-10
4.02882e-10
4.20199e-10
4.3703e-10
4.53278e-10
4.68853e-10
4.83672e-10
4.9766e-10
5.10748e-10
5.22874e-10
5.33981e-10
5.44017e-10
5.52939e-10
5.60706e-10
5.67284e-10
5.72646e-10
5.76769e-10
5.79635e-10
5.81234e-10
5.8156e-10
5.80612e-10
5.78395e-10
5.7492e-10
5.70202e-10
5.64263e-10
5.5713e-10
5.48836e-10
5.39417e-10
5.28916e-10
5.17383e-10
5.0487e-10
4.91437e-10
4.77149e-10
4.62076e-10
4.46294e-10
4.29887e-10
4.12943e-10
3.95562e-10
3.77847e-10
3.59915e-10
3.41893e-10
3.23922e-10
3.06161e-10
2.8879e-10
2.7202e-10
2.56102e-10
2.4134e-10
2.28123e-10
2.16958e-10
2.08541e-10
2.03884e-10
2.0457e-10
2.13323e-10
2.35515e-10
2.84018e-10
4.01147e-10
8.44389e-10
1.1519e-09
5.45563e-10
3.82609e-10
3.11913e-10
2.75956e-10
2.57379e-10
2.49044e-10
2.4739e-10
2.50389e-10
2.56771e-10
2.65675e-10
2.76486e-10
2.8874e-10
3.02075e-10
3.16202e-10
3.30878e-10
3.45899e-10
3.61092e-10
3.76301e-10
3.91391e-10
4.06241e-10
4.2074e-10
4.3479e-10
4.48301e-10
4.6119e-10
4.73384e-10
4.84814e-10
4.95419e-10
5.05144e-10
5.1394e-10
5.21763e-10
5.28575e-10
5.34344e-10
5.39042e-10
5.42648e-10
5.45145e-10
5.46523e-10
5.46775e-10
5.45902e-10
5.43907e-10
5.408e-10
5.36596e-10
5.31317e-10
5.24987e-10
5.17637e-10
5.09303e-10
5.00026e-10
4.89853e-10
4.78836e-10
4.67031e-10
4.54504e-10
4.41322e-10
4.27562e-10
4.13307e-10
3.98647e-10
3.83681e-10
3.68517e-10
3.53276e-10
3.38092e-10
3.23115e-10
3.08516e-10
2.94495e-10
2.81285e-10
2.69171e-10
2.58501e-10
2.49727e-10
2.43447e-10
2.40495e-10
2.4211e-10
2.50261e-10
2.68413e-10
3.03514e-10
3.72458e-10
5.31249e-10
1.12182e-09
1.45294e-09
6.87018e-10
4.79394e-10
3.87261e-10
3.3818e-10
3.10377e-10
2.94954e-10
2.87524e-10
2.85621e-10
2.87719e-10
2.92802e-10
3.00152e-10
3.09237e-10
3.19647e-10
3.31054e-10
3.43192e-10
3.55837e-10
3.68799e-10
3.81911e-10
3.95029e-10
4.08026e-10
4.20787e-10
4.33207e-10
4.45196e-10
4.56669e-10
4.67549e-10
4.77769e-10
4.87267e-10
4.95987e-10
5.03879e-10
5.10902e-10
5.17016e-10
5.2219e-10
5.26396e-10
5.29614e-10
5.31827e-10
5.33024e-10
5.332e-10
5.32354e-10
5.30491e-10
5.27619e-10
5.23754e-10
5.18916e-10
5.1313e-10
5.06427e-10
4.98841e-10
4.90415e-10
4.81193e-10
4.71229e-10
4.6058e-10
4.49311e-10
4.3749e-10
4.25197e-10
4.12515e-10
3.99537e-10
3.86368e-10
3.7312e-10
3.59921e-10
3.46914e-10
3.34261e-10
3.22149e-10
3.10795e-10
3.0046e-10
2.9146e-10
2.84193e-10
2.79176e-10
2.77106e-10
2.78969e-10
2.86247e-10
3.01337e-10
3.28503e-10
3.76392e-10
4.66178e-10
6.68321e-10
1.41362e-09
1.76562e-09
8.34077e-10
5.80337e-10
4.66336e-10
4.04115e-10
3.67282e-10
3.45094e-10
3.32284e-10
3.25917e-10
3.24193e-10
3.25929e-10
3.30296e-10
3.3669e-10
3.44645e-10
3.53799e-10
3.63856e-10
3.74571e-10
3.85736e-10
3.97175e-10
4.08731e-10
4.20269e-10
4.31668e-10
4.42821e-10
4.53629e-10
4.64007e-10
4.73875e-10
4.83164e-10
4.91811e-10
4.99758e-10
5.06955e-10
5.1336e-10
5.18933e-10
5.23642e-10
5.2746e-10
5.30365e-10
5.32342e-10
5.3338e-10
5.33472e-10
5.32619e-10
5.30824e-10
5.28098e-10
5.24455e-10
5.19916e-10
5.14507e-10
5.08257e-10
5.01203e-10
4.93386e-10
4.84855e-10
4.75661e-10
4.65864e-10
4.55529e-10
4.4473e-10
4.33546e-10
4.22066e-10
4.10387e-10
3.98617e-10
3.86876e-10
3.753e-10
3.64041e-10
3.53274e-10
3.43201e-10
3.3406e-10
3.26139e-10
3.19791e-10
3.15464e-10
3.13745e-10
3.15437e-10
3.21688e-10
3.34243e-10
3.5595e-10
3.91921e-10
4.52582e-10
5.63565e-10
8.10313e-10
1.71561e-09
2.08661e-09
9.85139e-10
6.84228e-10
5.48027e-10
4.72628e-10
4.26883e-10
3.98142e-10
3.80223e-10
3.69698e-10
3.64481e-10
3.63211e-10
3.64941e-10
3.68988e-10
3.74832e-10
3.82069e-10
3.90374e-10
3.99479e-10
4.0916e-10
4.19224e-10
4.29507e-10
4.39863e-10
4.50165e-10
4.60299e-10
4.70164e-10
4.79668e-10
4.88731e-10
4.97279e-10
5.05247e-10
5.12578e-10
5.1922e-10
5.25127e-10
5.30262e-10
5.3459e-10
5.38086e-10
5.40725e-10
5.42494e-10
5.4338e-10
5.43378e-10
5.42488e-10
5.40714e-10
5.38066e-10
5.34561e-10
5.30219e-10
5.25065e-10
5.19133e-10
5.12458e-10
5.05084e-10
4.97058e-10
4.88437e-10
4.79281e-10
4.69657e-10
4.59642e-10
4.49318e-10
4.38778e-10
4.28125e-10
4.17471e-10
4.06945e-10
3.9669e-10
3.86869e-10
3.77671e-10
3.69313e-10
3.62056e-10
3.56216e-10
3.52184e-10
3.5046e-10
3.51708e-10
3.5684e-10
3.67176e-10
3.84736e-10
4.12839e-10
4.57474e-10
5.30898e-10
6.63309e-10
9.55476e-10
2.02418e-09
2.41306e-09
1.13883e-09
7.90064e-10
6.31451e-10
5.42857e-10
4.88292e-10
4.53156e-10
4.30329e-10
4.15876e-10
4.07415e-10
4.03396e-10
4.02753e-10
4.04716e-10
4.0871e-10
4.14288e-10
4.21092e-10
4.28831e-10
4.37262e-10
4.46179e-10
4.55406e-10
4.64787e-10
4.74188e-10
4.83489e-10
4.92584e-10
5.01377e-10
5.09783e-10
5.17728e-10
5.25144e-10
5.3197e-10
5.38154e-10
5.43649e-10
5.48416e-10
5.52422e-10
5.55637e-10
5.58041e-10
5.59617e-10
5.60353e-10
5.60244e-10
5.59292e-10
5.57499e-10
5.54878e-10
5.51444e-10
5.4722e-10
5.42232e-10
5.36513e-10
5.30101e-10
5.23041e-10
5.15383e-10
5.07184e-10
4.98508e-10
4.89425e-10
4.80013e-10
4.7036e-10
4.60563e-10
4.50728e-10
4.40977e-10
4.31443e-10
4.22279e-10
4.1366e-10
4.05787e-10
3.98896e-10
3.93271e-10
3.89254e-10
3.87279e-10
3.879e-10
3.91859e-10
4.00186e-10
4.14375e-10
4.36729e-10
4.71051e-10
5.24221e-10
6.10357e-10
7.64278e-10
1.10225e-09
2.33607e-09
2.74245e-09
1.29395e-09
8.96978e-10
7.15868e-10
6.14109e-10
5.50817e-10
5.0942e-10
4.81848e-10
4.63651e-10
4.52141e-10
4.45577e-10
4.42767e-10
4.42857e-10
4.45207e-10
4.49328e-10
4.54829e-10
4.61395e-10
4.68763e-10
4.76711e-10
4.85051e-10
4.9362e-10
5.02272e-10
5.10884e-10
5.19342e-10
5.27548e-10
5.35413e-10
5.42858e-10
5.49814e-10
5.56218e-10
5.62016e-10
5.67161e-10
5.71612e-10
5.75334e-10
5.78299e-10
5.80485e-10
5.81875e-10
5.82458e-10
5.8223e-10
5.8119e-10
5.79344e-10
5.76704e-10
5.73287e-10
5.69115e-10
5.64217e-10
5.58628e-10
5.52386e-10
5.45538e-10
5.38137e-10
5.30241e-10
5.21918e-10
5.13239e-10
5.04288e-10
4.95156e-10
4.85943e-10
4.76763e-10
4.67743e-10
4.59023e-10
4.50767e-10
4.4316e-10
4.36417e-10
4.30794e-10
4.26596e-10
4.24197e-10
4.2407e-10
4.26828e-10
4.33293e-10
4.44612e-10
4.62461e-10
4.89428e-10
5.29802e-10
5.91364e-10
6.90097e-10
8.6545e-10
1.2492e-09
2.64826e-09
3.07255e-09
1.44943e-09
1.00421e-09
8.00645e-10
6.85799e-10
6.13888e-10
5.66359e-10
5.34186e-10
5.12399e-10
4.98002e-10
4.89061e-10
4.84254e-10
4.82639e-10
4.83514e-10
4.86344e-10
4.90704e-10
4.96252e-10
5.02706e-10
5.09829e-10
5.1742e-10
5.25304e-10
5.33331e-10
5.41366e-10
5.49294e-10
5.5701e-10
5.64422e-10
5.71448e-10
5.78015e-10
5.84061e-10
5.89528e-10
5.94368e-10
5.98538e-10
6.02005e-10
6.04738e-10
6.06716e-10
6.07922e-10
6.08345e-10
6.0798e-10
6.06829e-10
6.04898e-10
6.02198e-10
5.98749e-10
5.94574e-10
5.89704e-10
5.84172e-10
5.78022e-10
5.71301e-10
5.64064e-10
5.56373e-10
5.48296e-10
5.39911e-10
5.31302e-10
5.22566e-10
5.13807e-10
5.05146e-10
4.96714e-10
4.88662e-10
4.81161e-10
4.74409e-10
4.68636e-10
4.64114e-10
4.61173e-10
4.6022e-10
4.61767e-10
4.66487e-10
4.75282e-10
4.89419e-10
5.10753e-10
5.42162e-10
5.88419e-10
6.58198e-10
7.69336e-10
9.6588e-10
1.395e-09
2.95796e-09
3.40134e-09
1.60433e-09
1.1111e-09
8.85229e-10
7.5743e-10
6.77028e-10
6.23498e-10
5.86859e-10
5.6162e-10
5.44478e-10
5.33301e-10
5.26639e-10
5.23461e-10
5.23e-10
5.24675e-10
5.28026e-10
5.32685e-10
5.38348e-10
5.44764e-10
5.51716e-10
5.59021e-10
5.6652e-10
5.74071e-10
5.81552e-10
5.88856e-10
5.95885e-10
6.02554e-10
6.08789e-10
6.14523e-10
6.19699e-10
6.24266e-10
6.28183e-10
6.31411e-10
6.33924e-10
6.35698e-10
6.36715e-10
6.36968e-10
6.3645e-10
6.35163e-10
6.33115e-10
6.30319e-10
6.26794e-10
6.22565e-10
6.17665e-10
6.12129e-10
6.06002e-10
5.99335e-10
5.92182e-10
5.8461e-10
5.7669e-10
5.68502e-10
5.60135e-10
5.51689e-10
5.43274e-10
5.35016e-10
5.27053e-10
5.19543e-10
5.12669e-10
5.06638e-10
5.01696e-10
4.98135e-10
4.96307e-10
4.96651e-10
4.99722e-10
5.06249e-10
5.17217e-10
5.34011e-10
5.58667e-10
5.94343e-10
6.46295e-10
7.24078e-10
8.4735e-10
1.06468e-09
1.53838e-09
3.26248e-09
3.72708e-09
1.75781e-09
1.21706e-09
9.69137e-10
8.28569e-10
7.3983e-10
6.80438e-10
6.39465e-10
6.10903e-10
5.91141e-10
5.77853e-10
5.69459e-10
5.64837e-10
5.63158e-10
5.63792e-10
5.66244e-10
5.7012e-10
5.75095e-10
5.80899e-10
5.87304e-10
5.94116e-10
6.01165e-10
6.08306e-10
6.15409e-10
6.22361e-10
6.29061e-10
6.35423e-10
6.41367e-10
6.46825e-10
6.51739e-10
6.56057e-10
6.59734e-10
6.62736e-10
6.65032e-10
6.66599e-10
6.67421e-10
6.67488e-10
6.66797e-10
6.65349e-10
6.63153e-10
6.60224e-10
6.56582e-10
6.52254e-10
6.47272e-10
6.41676e-10
6.35511e-10
6.2883e-10
6.21692e-10
6.14165e-10
6.06322e-10
5.98247e-10
5.90035e-10
5.81787e-10
5.7362e-10
5.65664e-10
5.58066e-10
5.50991e-10
5.44631e-10
5.39207e-10
5.34977e-10
5.32253e-10
5.31411e-10
5.32921e-10
5.3738e-10
5.45575e-10
5.5857e-10
5.77868e-10
6.05679e-10
6.45441e-10
7.02878e-10
7.88404e-10
9.23457e-10
1.16102e-09
1.67815e-09
3.5593e-09
4.0482e-09
1.90914e-09
1.32156e-09
1.05195e-09
8.98846e-10
8.01947e-10
7.36842e-10
6.91668e-10
6.59905e-10
6.37639e-10
6.22351e-10
6.12333e-10
6.06372e-10
6.03575e-10
6.03265e-10
6.04911e-10
6.08091e-10
6.12461e-10
6.17733e-10
6.23665e-10
6.30053e-10
6.36718e-10
6.43506e-10
6.50284e-10
6.56932e-10
6.63346e-10
6.69435e-10
6.75119e-10
6.80327e-10
6.84998e-10
6.8908e-10
6.92527e-10
6.95304e-10
6.97381e-10
6.98733e-10
6.99347e-10
6.99212e-10
6.98325e-10
6.9669e-10
6.94315e-10
6.91216e-10
6.87417e-10
6.82944e-10
6.77832e-10
6.72124e-10
6.65865e-10
6.59111e-10
6.51924e-10
6.44374e-10
6.36538e-10
6.28503e-10
6.20366e-10
6.12236e-10
6.04232e-10
5.96492e-10
5.89167e-10
5.82432e-10
5.76488e-10
5.71567e-10
5.67944e-10
5.65947e-10
5.65977e-10
5.68533e-10
5.74256e-10
5.83987e-10
5.98869e-10
6.20517e-10
6.51313e-10
6.94965e-10
7.5765e-10
8.50612e-10
9.97009e-10
1.25408e-09
1.81314e-09
3.84596e-09
4.36339e-09
2.05769e-09
1.42418e-09
1.13331e-09
9.67944e-10
8.63084e-10
7.92424e-10
7.43183e-10
7.08341e-10
6.83681e-10
6.66495e-10
6.54948e-10
6.47738e-10
6.43909e-10
6.42737e-10
6.43655e-10
6.46214e-10
6.50048e-10
6.54852e-10
6.60372e-10
6.66391e-10
6.72722e-10
6.79204e-10
6.85696e-10
6.92076e-10
6.98234e-10
7.04077e-10
7.09521e-10
7.14493e-10
7.18932e-10
7.22784e-10
7.26002e-10
7.28551e-10
7.30399e-10
7.31525e-10
7.31913e-10
7.31554e-10
7.30446e-10
7.28593e-10
7.26006e-10
7.22703e-10
7.18705e-10
7.14045e-10
7.08757e-10
7.02886e-10
6.9648e-10
6.89598e-10
6.82304e-10
6.74669e-10
6.66775e-10
6.58713e-10
6.50583e-10
6.42497e-10
6.34581e-10
6.26977e-10
6.19844e-10
6.13364e-10
6.07748e-10
6.03239e-10
6.00127e-10
5.98758e-10
5.99554e-10
6.03047e-10
6.09915e-10
6.21054e-10
6.37683e-10
6.61526e-10
6.95129e-10
7.42458e-10
8.10122e-10
9.10165e-10
1.06739e-09
1.3431e-09
1.94225e-09
4.12014e-09
4.67151e-09
2.20292e-09
1.52454e-09
1.21292e-09
1.0356e-09
9.22994e-10
8.46948e-10
7.93778e-10
7.55972e-10
7.29023e-10
7.10034e-10
6.97044e-10
6.88666e-10
6.83881e-10
6.81917e-10
6.82173e-10
6.84171e-10
6.87525e-10
6.91914e-10
6.97069e-10
7.02763e-10
7.08799e-10
7.15009e-10
7.21245e-10
7.27381e-10
7.33304e-10
7.38916e-10
7.44131e-10
7.48875e-10
7.53083e-10
7.56702e-10
7.59685e-10
7.61994e-10
7.636e-10
7.64481e-10
7.64621e-10
7.64013e-10
7.62655e-10
7.60553e-10
7.57719e-10
7.54172e-10
7.49936e-10
7.45045e-10
7.39535e-10
7.33453e-10
7.2685e-10
7.19787e-10
7.1233e-10
7.04554e-10
6.96543e-10
6.88392e-10
6.80205e-10
6.72097e-10
6.64201e-10
6.56662e-10
6.49647e-10
6.43346e-10
6.37978e-10
6.33798e-10
6.31109e-10
6.30274e-10
6.31739e-10
6.36062e-10
6.43961e-10
6.56383e-10
6.74618e-10
7.00495e-10
7.36714e-10
7.87486e-10
8.59834e-10
9.66551e-10
1.134e-09
1.42733e-09
2.06441e-09
4.37955e-09
4.97165e-09
2.34441e-09
1.62233e-09
1.29053e-09
1.10159e-09
9.81478e-10
9.0022e-10
8.4326e-10
8.02609e-10
7.73469e-10
7.52765e-10
7.38412e-10
7.28938e-10
7.23261e-10
7.20565e-10
7.20213e-10
7.21702e-10
7.24623e-10
7.28638e-10
7.33465e-10
7.38865e-10
7.44634e-10
7.50595e-10
7.56596e-10
7.62503e-10
7.68201e-10
7.73588e-10
7.78577e-10
7.8309e-10
7.87062e-10
7.90438e-10
7.93171e-10
7.95224e-10
7.96567e-10
7.97178e-10
7.97044e-10
7.96156e-10
7.94516e-10
7.92129e-10
7.8901e-10
7.85179e-10
7.80663e-10
7.75496e-10
7.69719e-10
7.63378e-10
7.56529e-10
7.49233e-10
7.41561e-10
7.33589e-10
7.25407e-10
7.17109e-10
7.08806e-10
7.00616e-10
6.92676e-10
6.85138e-10
6.78174e-10
6.71981e-10
6.66787e-10
6.62858e-10
6.6051e-10
6.60122e-10
6.62161e-10
6.67213e-10
6.7603e-10
6.89608e-10
7.09305e-10
7.37047e-10
7.75679e-10
8.29642e-10
9.06343e-10
1.01928e-09
1.19627e-09
1.50607e-09
2.17859e-09
4.62202e-09
5.2631e-09
2.48181e-09
1.71733e-09
1.36595e-09
1.16576e-09
1.03838e-09
9.5209e-10
8.91482e-10
8.48098e-10
8.16864e-10
7.94528e-10
7.78884e-10
7.68377e-10
7.61866e-10
7.58489e-10
7.57575e-10
7.58595e-10
7.61118e-10
7.64791e-10
7.69318e-10
7.74448e-10
7.79968e-10
7.85695e-10
7.9147e-10
7.97155e-10
8.02629e-10
8.07789e-10
8.12544e-10
8.16816e-10
8.20538e-10
8.23654e-10
8.26117e-10
8.27889e-10
8.28942e-10
8.29254e-10
8.28811e-10
8.27609e-10
8.25648e-10
8.22938e-10
8.19492e-10
8.15335e-10
8.10494e-10
8.05006e-10
7.98914e-10
7.92267e-10
7.85122e-10
7.77544e-10
7.69605e-10
7.61386e-10
7.52978e-10
7.4448e-10
7.36005e-10
7.27676e-10
7.19634e-10
7.12036e-10
7.0506e-10
6.98909e-10
6.93821e-10
6.9007e-10
6.87985e-10
6.87961e-10
6.90483e-10
6.96162e-10
7.05785e-10
7.2039e-10
7.414e-10
7.70828e-10
8.11657e-10
8.68537e-10
9.4923e-10
1.06788e-09
1.25365e-09
1.57862e-09
2.2838e-09
4.84544e-09
5.54539e-09
2.61491e-09
1.80937e-09
1.43905e-09
1.22798e-09
1.09359e-09
1.00245e-09
9.38332e-10
8.92327e-10
8.59092e-10
8.35199e-10
8.18331e-10
8.06849e-10
7.99553e-10
7.95538e-10
7.94101e-10
7.94684e-10
7.96838e-10
8.00191e-10
8.04436e-10
8.0931e-10
8.14592e-10
8.2009e-10
8.2564e-10
8.311e-10
8.36344e-10
8.41266e-10
8.45774e-10
8.49786e-10
8.53236e-10
8.56067e-10
8.58231e-10
8.59691e-10
8.60419e-10
8.60394e-10
8.59606e-10
8.58048e-10
8.55724e-10
8.52645e-10
8.48828e-10
8.44298e-10
8.39085e-10
8.33228e-10
8.26772e-10
8.19769e-10
8.12278e-10
8.04368e-10
7.96112e-10
7.87595e-10
7.78909e-10
7.70159e-10
7.61459e-10
7.52937e-10
7.44738e-10
7.37023e-10
7.29975e-10
7.23806e-10
7.18757e-10
7.15116e-10
7.13219e-10
7.13477e-10
7.16391e-10
7.22598e-10
7.32911e-10
7.48412e-10
7.70579e-10
8.01507e-10
8.44301e-10
9.03802e-10
9.88094e-10
1.11191e-09
1.30563e-09
1.64433e-09
2.37908e-09
5.04781e-09
5.81824e-09
2.74358e-09
1.89837e-09
1.50975e-09
1.28818e-09
1.14703e-09
1.05123e-09
9.83738e-10
9.35221e-10
9.00071e-10
8.74695e-10
8.56662e-10
8.44255e-10
8.36218e-10
8.31602e-10
8.29671e-10
8.29843e-10
8.31647e-10
8.34697e-10
8.38671e-10
8.43295e-10
8.4834e-10
8.53608e-10
8.58927e-10
8.6415e-10
8.69149e-10
8.73815e-10
8.78052e-10
8.81778e-10
8.84926e-10
8.87438e-10
8.89267e-10
8.90377e-10
8.90739e-10
8.90335e-10
8.89155e-10
8.87194e-10
8.8446e-10
8.80963e-10
8.76724e-10
8.7177e-10
8.66134e-10
8.59856e-10
8.52984e-10
8.45574e-10
8.37687e-10
8.29393e-10
8.20769e-10
8.11903e-10
8.02889e-10
7.93835e-10
7.84859e-10
7.76092e-10
7.67683e-10
7.59796e-10
7.5262e-10
7.46372e-10
7.41302e-10
7.37701e-10
7.3592e-10
7.3638e-10
7.39598e-10
7.4623e-10
7.57118e-10
7.73378e-10
7.9654e-10
8.28771e-10
8.73282e-10
9.35088e-10
1.02255e-09
1.15094e-09
1.35169e-09
1.70256e-09
2.46354e-09
5.22717e-09
6.08158e-09
2.86777e-09
1.98429e-09
1.57802e-09
1.34635e-09
1.19869e-09
1.09839e-09
1.02767e-09
9.7674e-10
9.39757e-10
9.12963e-10
8.9382e-10
8.80534e-10
8.71792e-10
8.66605e-10
8.64205e-10
8.63985e-10
8.65453e-10
8.68208e-10
8.71914e-10
8.76289e-10
8.81092e-10
8.86119e-10
8.91192e-10
8.9616e-10
9.00892e-10
9.05274e-10
9.0921e-10
9.12617e-10
9.15425e-10
9.17577e-10
9.19028e-10
9.1974e-10
9.19687e-10
9.18853e-10
9.17228e-10
9.14812e-10
9.11612e-10
9.07642e-10
9.02926e-10
8.97492e-10
8.91376e-10
8.84622e-10
8.77281e-10
8.69409e-10
8.61071e-10
8.5234e-10
8.43297e-10
8.3403e-10
8.24637e-10
8.15229e-10
8.05926e-10
7.96864e-10
7.88192e-10
7.80081e-10
7.72723e-10
7.66339e-10
7.61185e-10
7.5756e-10
7.55823e-10
7.56404e-10
7.59837e-10
7.66792e-10
7.78135e-10
7.95014e-10
8.19001e-10
8.52326e-10
8.98295e-10
9.62066e-10
1.05225e-09
1.18456e-09
1.39137e-09
1.75272e-09
2.53629e-09
5.3817e-09
6.33557e-09
2.98756e-09
2.06717e-09
1.64391e-09
1.40249e-09
1.24857e-09
1.14396e-09
1.07012e-09
1.01688e-09
9.78137e-10
9.49987e-10
9.29782e-10
9.15655e-10
9.06241e-10
9.00507e-10
8.97657e-10
8.97057e-10
8.98198e-10
9.00661e-10
9.04097e-10
9.08215e-10
9.12764e-10
9.17533e-10
9.2234e-10
9.27028e-10
9.31462e-10
9.35526e-10
9.39122e-10
9.42166e-10
9.44588e-10
9.46332e-10
9.47352e-10
9.47612e-10
9.47088e-10
9.45765e-10
9.43636e-10
9.40703e-10
9.36975e-10
9.32471e-10
9.27215e-10
9.2124e-10
9.14584e-10
9.07294e-10
8.99424e-10
8.91032e-10
8.82188e-10
8.72965e-10
8.63447e-10
8.53727e-10
8.43904e-10
8.3409e-10
8.2441e-10
8.15001e-10
8.06017e-10
7.97629e-10
7.90035e-10
7.83459e-10
7.78162e-10
7.74449e-10
7.72684e-10
7.73308e-10
7.76864e-10
7.84038e-10
7.95714e-10
8.13066e-10
8.37701e-10
8.71903e-10
9.19052e-10
9.84431e-10
1.07685e-09
1.2124e-09
1.42422e-09
1.79425e-09
2.59653e-09
5.50967e-09
6.58053e-09
3.1031e-09
2.14714e-09
1.70749e-09
1.45668e-09
1.29672e-09
1.18795e-09
1.11112e-09
1.05566e-09
1.01523e-09
9.85779e-10
9.64556e-10
9.49623e-10
9.39562e-10
9.33302e-10
9.30015e-10
9.29044e-10
9.2986e-10
9.32028e-10
9.35188e-10
9.39035e-10
9.43313e-10
9.47802e-10
9.52314e-10
9.56688e-10
9.60786e-10
9.64491e-10
9.677e-10
9.70332e-10
9.72314e-10
9.73592e-10
9.7412e-10
9.73865e-10
9.72805e-10
9.70926e-10
9.68225e-10
9.64706e-10
9.60382e-10
9.55274e-10
9.4941e-10
9.42825e-10
9.35562e-10
9.27671e-10
9.19207e-10
9.10234e-10
9.00822e-10
8.9105e-10
8.81002e-10
8.70773e-10
8.60466e-10
8.50195e-10
8.40087e-10
8.30282e-10
8.20933e-10
8.12219e-10
8.04336e-10
7.97513e-10
7.92013e-10
7.88147e-10
7.86284e-10
7.8687e-10
7.90458e-10
7.97745e-10
8.09628e-10
8.27302e-10
8.52402e-10
8.87252e-10
9.35293e-10
1.0019e-09
1.09605e-09
1.23411e-09
1.44982e-09
1.82663e-09
2.6435e-09
5.60947e-09
6.817e-09
3.21466e-09
2.22435e-09
1.76889e-09
1.50902e-09
1.34324e-09
1.23046e-09
1.15075e-09
1.09314e-09
1.05109e-09
1.02038e-09
9.98179e-10
9.82469e-10
9.71783e-10
9.65012e-10
9.61298e-10
9.59961e-10
9.6045e-10
9.62317e-10
9.65187e-10
9.68746e-10
9.72729e-10
9.7691e-10
9.81093e-10
9.85115e-10
9.88833e-10
9.92128e-10
9.94897e-10
9.97057e-10
9.98537e-10
9.99281e-10
9.99249e-10
9.98408e-10
9.96737e-10
9.94227e-10
9.90876e-10
9.86694e-10
9.81696e-10
9.75907e-10
9.69358e-10
9.62089e-10
9.54146e-10
9.45582e-10
9.36456e-10
9.26835e-10
9.16791e-10
9.06407e-10
8.95769e-10
8.84974e-10
8.74128e-10
8.63348e-10
8.5276e-10
8.42506e-10
8.32744e-10
8.23651e-10
8.15427e-10
8.08302e-10
8.02541e-10
7.98459e-10
7.96426e-10
7.96895e-10
8.00422e-10
8.07713e-10
8.19674e-10
8.37515e-10
8.62891e-10
8.98151e-10
9.4678e-10
1.01422e-09
1.10956e-09
1.24937e-09
1.46782e-09
1.84937e-09
2.67652e-09
5.67964e-09
7.0457e-09
3.32255e-09
2.29904e-09
1.82828e-09
1.55965e-09
1.38824e-09
1.27159e-09
1.18908e-09
1.12941e-09
1.08578e-09
1.05387e-09
1.03072e-09
1.01425e-09
1.00296e-09
9.95692e-10
9.91557e-10
9.89854e-10
9.90012e-10
9.91567e-10
9.94132e-10
9.97381e-10
1.00104e-09
1.00488e-09
1.00869e-09
1.01232e-09
1.0156e-09
1.01843e-09
1.0207e-09
1.02232e-09
1.02323e-09
1.02336e-09
1.02269e-09
1.02118e-09
1.01882e-09
1.01559e-09
1.0115e-09
1.00657e-09
1.00081e-09
9.94257e-10
9.8694e-10
9.78905e-10
9.70201e-10
9.60886e-10
9.51023e-10
9.40681e-10
9.29937e-10
9.18874e-10
9.07584e-10
8.96164e-10
8.84722e-10
8.73376e-10
8.62256e-10
8.51503e-10
8.41276e-10
8.31754e-10
8.23136e-10
8.15654e-10
8.09575e-10
8.05212e-10
8.02939e-10
8.03209e-10
8.06583e-10
8.13768e-10
8.25677e-10
8.43526e-10
8.6898e-10
9.04404e-10
9.53308e-10
1.02117e-09
1.11714e-09
1.2579e-09
1.47786e-09
1.86208e-09
2.69497e-09
5.71889e-09
7.2675e-09
3.42718e-09
2.37147e-09
1.88588e-09
1.60876e-09
1.43189e-09
1.31147e-09
1.22625e-09
1.16457e-09
1.11942e-09
1.08633e-09
1.06226e-09
1.04506e-09
1.03318e-09
1.02542e-09
1.02087e-09
1.0188e-09
1.01862e-09
1.01985e-09
1.02209e-09
1.025e-09
1.02831e-09
1.03176e-09
1.03517e-09
1.03834e-09
1.04114e-09
1.04343e-09
1.04513e-09
1.04613e-09
1.04638e-09
1.04583e-09
1.04443e-09
1.04216e-09
1.03901e-09
1.03497e-09
1.03005e-09
1.02427e-09
1.01766e-09
1.01024e-09
1.00206e-09
9.9317e-10
9.83618e-10
9.73468e-10
9.62786e-10
9.51646e-10
9.40128e-10
9.28317e-10
9.16307e-10
9.04199e-10
8.92102e-10
8.80135e-10
8.68428e-10
8.57124e-10
8.46381e-10
8.36378e-10
8.27316e-10
8.19424e-10
8.12968e-10
8.08262e-10
8.05679e-10
8.0567e-10
8.08797e-10
8.15765e-10
8.27488e-10
8.45182e-10
8.70513e-10
9.0585e-10
9.54705e-10
1.02256e-09
1.11858e-09
1.25948e-09
1.47969e-09
1.86439e-09
2.69835e-09
5.72614e-09
7.48338e-09
3.52904e-09
2.44197e-09
1.94194e-09
1.65654e-09
1.47434e-09
1.35026e-09
1.2624e-09
1.19876e-09
1.15212e-09
1.11788e-09
1.09291e-09
1.07501e-09
1.06254e-09
1.0543e-09
1.04934e-09
1.0469e-09
1.04637e-09
1.04726e-09
1.04916e-09
1.05171e-09
1.05462e-09
1.05765e-09
1.06059e-09
1.06325e-09
1.06549e-09
1.06719e-09
1.06823e-09
1.06853e-09
1.06804e-09
1.0667e-09
1.06447e-09
1.06134e-09
1.0573e-09
1.05234e-09
1.04649e-09
1.03976e-09
1.03218e-09
1.0238e-09
1.01466e-09
1.00481e-09
9.94312e-10
9.83235e-10
9.71647e-10
9.59626e-10
9.47255e-10
9.34622e-10
9.21824e-10
9.08963e-10
8.96149e-10
8.83503e-10
8.71154e-10
8.59247e-10
8.47938e-10
8.37404e-10
8.27846e-10
8.19491e-10
8.12603e-10
8.07493e-10
8.04532e-10
8.04166e-10
8.06953e-10
8.13595e-10
8.24999e-10
8.42375e-10
8.67381e-10
9.02374e-10
9.50849e-10
1.01827e-09
1.11375e-09
1.25393e-09
1.4731e-09
1.85604e-09
2.68628e-09
5.70057e-09
7.69448e-09
3.62863e-09
2.5109e-09
1.99673e-09
1.70322e-09
1.51581e-09
1.38813e-09
1.29768e-09
1.23212e-09
1.18403e-09
1.14867e-09
1.12282e-09
1.10422e-09
1.09119e-09
1.08247e-09
1.07709e-09
1.07428e-09
1.0734e-09
1.07393e-09
1.07546e-09
1.07761e-09
1.0801e-09
1.08266e-09
1.08507e-09
1.08716e-09
1.08878e-09
1.08978e-09
1.09009e-09
1.0896e-09
1.08826e-09
1.08603e-09
1.08286e-09
1.07876e-09
1.0737e-09
1.06771e-09
1.0608e-09
1.053e-09
1.04435e-09
1.03489e-09
1.02467e-09
1.01376e-09
1.00222e-09
9.90117e-10
9.7753e-10
9.64538e-10
9.5123e-10
9.37697e-10
9.24039e-10
9.10357e-10
8.96765e-10
8.83382e-10
8.70338e-10
8.57775e-10
8.45851e-10
8.34738e-10
8.24636e-10
8.15768e-10
8.08394e-10
8.0282e-10
7.99412e-10
7.98611e-10
8.00966e-10
8.0717e-10
8.1812e-10
8.35013e-10
8.59487e-10
8.93874e-10
9.41633e-10
1.00817e-09
1.10251e-09
1.24111e-09
1.45791e-09
1.83683e-09
2.65844e-09
5.64151e-09
7.90197e-09
3.72651e-09
2.57863e-09
2.05054e-09
1.74905e-09
1.5565e-09
1.42527e-09
1.33227e-09
1.26481e-09
1.21529e-09
1.17883e-09
1.15212e-09
1.13284e-09
1.11925e-09
1.11007e-09
1.10428e-09
1.10109e-09
1.09985e-09
1.10001e-09
1.10114e-09
1.10287e-09
1.10488e-09
1.10692e-09
1.10875e-09
1.1102e-09
1.1111e-09
1.11133e-09
1.1108e-09
1.10941e-09
1.10712e-09
1.10387e-09
1.09965e-09
1.09445e-09
1.08826e-09
1.0811e-09
1.07301e-09
1.06401e-09
1.05415e-09
1.04349e-09
1.03208e-09
1.01999e-09
1.00729e-09
9.94056e-10
9.8037e-10
9.66317e-10
9.51987e-10
9.37476e-10
9.22883e-10
9.08313e-10
8.93879e-10
8.797e-10
8.65906e-10
8.52638e-10
8.40049e-10
8.2831e-10
8.17616e-10
8.08186e-10
8.00274e-10
7.94179e-10
7.90261e-10
7.8895e-10
7.90784e-10
7.96443e-10
8.06809e-10
8.23056e-10
8.46794e-10
8.80316e-10
9.27024e-10
9.92233e-10
1.08482e-09
1.22098e-09
1.43408e-09
1.80668e-09
2.61472e-09
5.54871e-09
8.10708e-09
3.82326e-09
2.64555e-09
2.10369e-09
1.79429e-09
1.59663e-09
1.46188e-09
1.36635e-09
1.29702e-09
1.24608e-09
1.20853e-09
1.18098e-09
1.16103e-09
1.1469e-09
1.13726e-09
1.13107e-09
1.1275e-09
1.12589e-09
1.12566e-09
1.12637e-09
1.12764e-09
1.12913e-09
1.13059e-09
1.13177e-09
1.13249e-09
1.1326e-09
1.13196e-09
1.13048e-09
1.12808e-09
1.12471e-09
1.12032e-09
1.11491e-09
1.10846e-09
1.101e-09
1.09254e-09
1.08312e-09
1.07278e-09
1.06158e-09
1.04959e-09
1.03685e-09
1.02346e-09
1.00949e-09
9.95014e-10
9.80127e-10
9.64916e-10
9.49476e-10
9.33904e-10
9.18301e-10
9.02774e-10
8.87437e-10
8.72407e-10
8.57812e-10
8.4379e-10
8.30493e-10
8.18086e-10
8.06758e-10
7.96722e-10
7.88226e-10
7.81559e-10
7.77071e-10
7.75182e-10
7.76411e-10
7.81423e-10
7.91078e-10
8.0652e-10
8.29323e-10
8.61724e-10
9.07048e-10
9.70487e-10
1.06072e-09
1.19357e-09
1.40165e-09
1.76562e-09
2.55518e-09
5.4223e-09
8.31104e-09
3.91944e-09
2.71205e-09
2.15647e-09
1.83917e-09
1.63642e-09
1.49816e-09
1.4001e-09
1.3289e-09
1.27656e-09
1.23794e-09
1.20956e-09
1.18895e-09
1.1743e-09
1.16422e-09
1.15763e-09
1.15369e-09
1.15169e-09
1.15107e-09
1.15134e-09
1.1521e-09
1.15303e-09
1.15384e-09
1.1543e-09
1.15421e-09
1.15342e-09
1.1518e-09
1.14926e-09
1.14571e-09
1.14112e-09
1.13545e-09
1.12869e-09
1.12086e-09
1.11196e-09
1.10204e-09
1.09114e-09
1.07932e-09
1.06664e-09
1.05316e-09
1.03897e-09
1.02415e-09
1.00878e-09
9.92953e-10
9.76759e-10
9.60293e-10
9.43653e-10
9.26939e-10
9.10254e-10
8.93706e-10
8.77407e-10
8.61474e-10
8.46032e-10
8.31216e-10
8.17171e-10
8.0406e-10
7.92062e-10
7.81385e-10
7.72265e-10
7.64982e-10
7.5987e-10
7.57341e-10
7.57889e-10
7.6216e-10
7.70984e-10
7.85471e-10
8.07145e-10
8.38178e-10
8.81794e-10
9.43032e-10
1.03031e-09
1.159e-09
1.36075e-09
1.71386e-09
2.48007e-09
5.26281e-09
8.51501e-09
4.01561e-09
2.77851e-09
2.20917e-09
1.88394e-09
1.67608e-09
1.53429e-09
1.43369e-09
1.36063e-09
1.30689e-09
1.26722e-09
1.23803e-09
1.21679e-09
1.20163e-09
1.19112e-09
1.18416e-09
1.17984e-09
1.17746e-09
1.17642e-09
1.17622e-09
1.17644e-09
1.17675e-09
1.17685e-09
1.1765e-09
1.17551e-09
1.17371e-09
1.17099e-09
1.16724e-09
1.16241e-09
1.15644e-09
1.14933e-09
1.14107e-09
1.13168e-09
1.12118e-09
1.10964e-09
1.09709e-09
1.08362e-09
1.06929e-09
1.05419e-09
1.0384e-09
1.02202e-09
1.00513e-09
9.87833e-10
9.70226e-10
9.52409e-10
9.34483e-10
9.16551e-10
8.98717e-10
8.81089e-10
8.63777e-10
8.46896e-10
8.30569e-10
8.14924e-10
8.00103e-10
7.86259e-10
7.73566e-10
7.62219e-10
7.52445e-10
7.4451e-10
7.38734e-10
7.35511e-10
7.35312e-10
7.38756e-10
7.46641e-10
7.60032e-10