/*--------------------------------*- C++ -*----------------------------------*\
  =========                 |
  \\      /  F ield         | OpenFOAM: The Open Source CFD Toolbox
   \\    /   O peration     | Website:  https://openfoam.org
    \\  /    A nd           | Version:  12
     \\/     M anipulation  |
\*---------------------------------------------------------------------------*/
FoamFile
{
    format      ascii;
    class       volScalarField;
    location    "5";
    object      nut;
}
// * * * * * * * * * * * * * * * * * * * * * * * * * * * * * * * * * * * * * //

dimensions      [0 2 -1 0 0 0 0];

internalField   nonuniform List<scalar> 
5625
(
1.04186e-19
3.14774e-18
6.67047e-18
1.08732e-17
1.56045e-17
2.07501e-17
2.62262e-17
3.19681e-17
3.79226e-17
4.40437e-17
5.02899e-17
5.66232e-17
6.30082e-17
6.94112e-17
7.58002e-17
8.21448e-17
8.84156e-17
9.45845e-17
1.00625e-16
1.0651e-16
1.12216e-16
1.17719e-16
1.22997e-16
1.28028e-16
1.32793e-16
1.37273e-16
1.4145e-16
1.45309e-16
1.48835e-16
1.52014e-16
1.54835e-16
1.57287e-16
1.59362e-16
1.61052e-16
1.62351e-16
1.63254e-16
1.6376e-16
1.63866e-16
1.63573e-16
1.62882e-16
1.61797e-16
1.60321e-16
1.58462e-16
1.56226e-16
1.53623e-16
1.50663e-16
1.47358e-16
1.43719e-16
1.39763e-16
1.35504e-16
1.30958e-16
1.26144e-16
1.21081e-16
1.15788e-16
1.10286e-16
1.04598e-16
9.87472e-17
9.27564e-17
8.66512e-17
8.04574e-17
7.4202e-17
6.7913e-17
6.16194e-17
5.53518e-17
4.9142e-17
4.30239e-17
3.70336e-17
3.12107e-17
2.55993e-17
2.02505e-17
1.52265e-17
1.06086e-17
6.50758e-18
3.07069e-18
1.01631e-19
7.04707e-19
1.02937e-16
5.49726e-16
1.28531e-15
2.16066e-15
3.10595e-15
4.09621e-15
5.12073e-15
6.17275e-15
7.24655e-15
8.33672e-15
9.43794e-15
1.0545e-14
1.16528e-14
1.27564e-14
1.38509e-14
1.49315e-14
1.59936e-14
1.70328e-14
1.80447e-14
1.90254e-14
1.99708e-14
2.08771e-14
2.17408e-14
2.25586e-14
2.33273e-14
2.40438e-14
2.47056e-14
2.53102e-14
2.58552e-14
2.63388e-14
2.6759e-14
2.71145e-14
2.74039e-14
2.76264e-14
2.7781e-14
2.78674e-14
2.78853e-14
2.78347e-14
2.77159e-14
2.75295e-14
2.72763e-14
2.69573e-14
2.65738e-14
2.61273e-14
2.56196e-14
2.50526e-14
2.44286e-14
2.375e-14
2.30193e-14
2.22395e-14
2.14135e-14
2.05445e-14
1.96359e-14
1.86912e-14
1.77142e-14
1.67086e-14
1.56786e-14
1.46281e-14
1.35615e-14
1.24831e-14
1.13976e-14
1.03094e-14
9.22339e-15
8.14434e-15
7.07718e-15
6.02692e-15
4.99869e-15
3.9979e-15
3.03101e-15
2.10833e-15
1.25408e-15
5.36336e-16
1.00422e-16
6.87426e-19
1.56675e-18
2.57745e-16
1.76063e-15
5.26302e-15
1.06356e-14
1.73221e-14
2.48209e-14
3.28079e-14
4.10939e-14
4.95668e-14
5.81542e-14
6.6803e-14
7.54699e-14
8.41161e-14
9.27056e-14
1.01204e-13
1.09576e-13
1.17791e-13
1.25817e-13
1.33622e-13
1.41176e-13
1.48452e-13
1.55421e-13
1.62058e-13
1.68337e-13
1.74235e-13
1.79731e-13
1.84804e-13
1.89436e-13
1.9361e-13
1.97312e-13
2.00528e-13
2.03248e-13
2.05461e-13
2.07161e-13
2.08341e-13
2.08999e-13
2.09134e-13
2.08744e-13
2.07833e-13
2.06404e-13
2.04464e-13
2.02021e-13
1.99084e-13
1.95664e-13
1.91776e-13
1.87433e-13
1.82653e-13
1.77453e-13
1.71852e-13
1.65872e-13
1.59536e-13
1.52865e-13
1.45886e-13
1.38625e-13
1.31107e-13
1.23362e-13
1.15417e-13
1.07302e-13
9.90484e-14
9.06861e-14
8.22471e-14
7.37641e-14
6.52711e-14
5.68044e-14
4.84051e-14
4.01234e-14
3.20286e-14
2.42288e-14
1.69073e-14
1.03799e-14
5.13581e-15
1.71777e-15
2.51424e-16
1.52812e-18
2.59172e-18
4.37007e-16
3.1881e-15
1.0482e-14
2.34443e-14
4.18364e-14
6.46253e-14
9.06184e-14
1.18799e-13
1.48405e-13
1.78893e-13
2.09878e-13
2.41075e-13
2.72268e-13
3.03277e-13
3.33952e-13
3.64157e-13
3.93767e-13
4.22666e-13
4.50743e-13
4.77894e-13
5.04018e-13
5.2902e-13
5.5281e-13
5.75303e-13
5.96418e-13
6.1608e-13
6.3422e-13
6.50775e-13
6.65688e-13
6.78907e-13
6.90387e-13
7.0009e-13
7.07985e-13
7.14046e-13
7.18254e-13
7.20599e-13
7.21074e-13
7.19683e-13
7.16432e-13
7.11336e-13
7.04417e-13
6.95703e-13
6.85227e-13
6.7303e-13
6.59157e-13
6.4366e-13
6.26595e-13
6.08026e-13
5.88018e-13
5.66645e-13
5.43983e-13
5.20112e-13
4.95118e-13
4.69089e-13
4.42119e-13
4.14303e-13
3.85741e-13
3.5654e-13
3.26807e-13
2.96661e-13
2.6623e-13
2.35655e-13
2.05106e-13
1.74789e-13
1.44975e-13
1.16038e-13
8.85012e-14
6.31071e-14
4.08466e-14
2.28843e-14
1.02285e-14
3.10998e-15
4.26178e-16
2.52708e-18
3.73381e-18
6.34895e-16
4.74318e-15
1.62162e-14
3.80921e-14
7.16208e-14
1.16318e-13
1.70601e-13
2.32474e-13
2.99997e-13
3.71501e-13
4.45635e-13
5.21336e-13
5.97764e-13
6.74253e-13
7.50258e-13
8.25321e-13
8.99049e-13
9.71092e-13
1.04113e-12
1.10889e-12
1.17409e-12
1.23649e-12
1.29585e-12
1.35197e-12
1.40463e-12
1.45366e-12
1.49889e-12
1.54015e-12
1.57731e-12
1.61024e-12
1.63884e-12
1.66302e-12
1.68268e-12
1.69779e-12
1.70828e-12
1.71413e-12
1.71534e-12
1.71191e-12
1.70385e-12
1.69121e-12
1.67404e-12
1.6524e-12
1.62638e-12
1.59607e-12
1.56159e-12
1.52307e-12
1.48064e-12
1.43445e-12
1.38467e-12
1.33148e-12
1.27506e-12
1.21562e-12
1.15337e-12
1.08853e-12
1.02134e-12
9.52052e-13
8.80948e-13
8.0832e-13
7.34498e-13
6.59853e-13
5.84819e-13
5.09913e-13
4.35775e-13
3.63212e-13
2.93251e-13
2.27204e-13
1.66697e-13
1.13625e-13
6.99372e-14
3.71803e-14
1.58203e-14
4.6252e-15
6.18879e-16
3.63892e-18
4.96413e-18
8.47257e-16
6.39786e-15
2.2281e-14
5.36628e-14
1.03879e-13
1.73968e-13
2.62961e-13
3.68569e-13
4.87884e-13
6.17908e-13
7.55865e-13
8.99325e-13
1.04623e-12
1.19487e-12
1.3438e-12
1.49182e-12
1.63791e-12
1.78119e-12
1.92087e-12
2.05627e-12
2.18678e-12
2.31182e-12
2.43089e-12
2.54352e-12
2.64929e-12
2.74779e-12
2.83867e-12
2.92162e-12
2.99634e-12
3.06257e-12
3.12011e-12
3.16875e-12
3.20835e-12
3.23879e-12
3.25997e-12
3.27184e-12
3.27438e-12
3.26761e-12
3.25156e-12
3.2263e-12
3.19195e-12
3.14864e-12
3.09653e-12
3.03583e-12
2.96676e-12
2.88957e-12
2.80454e-12
2.71199e-12
2.61226e-12
2.50569e-12
2.3927e-12
2.27371e-12
2.14916e-12
2.01957e-12
1.88545e-12
1.74741e-12
1.60609e-12
1.46222e-12
1.31666e-12
1.17036e-12
1.02449e-12
8.80406e-13
7.39781e-13
6.04605e-13
4.77243e-13
3.60409e-13
2.57035e-13
1.69962e-13
1.01428e-13
5.2362e-14
2.17263e-14
6.23487e-15
8.25316e-16
4.83452e-18
6.2615e-18
1.07077e-15
8.13096e-15
2.85964e-14
6.98306e-14
1.3748e-13
2.34617e-13
3.61656e-13
5.16833e-13
6.96927e-13
8.97963e-13
1.11576e-12
1.34631e-12
1.58592e-12
1.83134e-12
2.07973e-12
2.32862e-12
2.57589e-12
2.8197e-12
3.05842e-12
3.29064e-12
3.5151e-12
3.73065e-12
3.9363e-12
4.13113e-12
4.31431e-12
4.4851e-12
4.64282e-12
4.78689e-12
4.91675e-12
5.03196e-12
5.1321e-12
5.21683e-12
5.28588e-12
5.33901e-12
5.37609e-12
5.39699e-12
5.40169e-12
5.39022e-12
5.36262e-12
5.31903e-12
5.25965e-12
5.18471e-12
5.09452e-12
4.98943e-12
4.86983e-12
4.73619e-12
4.58901e-12
4.42886e-12
4.25637e-12
4.0722e-12
3.8771e-12
3.67189e-12
3.45744e-12
3.23473e-12
3.00484e-12
2.76897e-12
2.52846e-12
2.28486e-12
2.03993e-12
1.7957e-12
1.55456e-12
1.31925e-12
1.09295e-12
8.79254e-13
6.82091e-13
5.05555e-13
3.53537e-13
2.2918e-13
1.34183e-13
6.80969e-14
2.78631e-14
7.9168e-15
1.04204e-15
6.09204e-18
7.60897e-18
1.30266e-15
9.92384e-15
3.51023e-14
8.6423e-14
1.71912e-13
2.96886e-13
4.63564e-13
6.71292e-13
9.17161e-13
1.19676e-12
1.50486e-12
1.83597e-12
2.18473e-12
2.54609e-12
2.91546e-12
3.28871e-12
3.66219e-12
4.03266e-12
4.39725e-12
4.75343e-12
5.09893e-12
5.43174e-12
5.75007e-12
6.0523e-12
6.33699e-12
6.60285e-12
6.8487e-12
7.07354e-12
7.27645e-12
7.45663e-12
7.6134e-12
7.7462e-12
7.85454e-12
7.93806e-12
7.99649e-12
8.02967e-12
8.03751e-12
8.02006e-12
7.97741e-12
7.90976e-12
7.81744e-12
7.70083e-12
7.56042e-12
7.39678e-12
7.21057e-12
7.00257e-12
6.7736e-12
6.52464e-12
6.25671e-12
5.97098e-12
5.66874e-12
5.35137e-12
5.02045e-12
4.67769e-12
4.32503e-12
3.96461e-12
3.59887e-12
3.23056e-12
2.8628e-12
2.49912e-12
2.14354e-12
1.80054e-12
1.47506e-12
1.17237e-12
8.97862e-13
6.5665e-13
4.53048e-13
2.89863e-13
1.67667e-13
8.41994e-14
3.41651e-14
9.65088e-15
1.26612e-15
7.39349e-18
8.9923e-18
1.54057e-15
1.17597e-14
4.17447e-14
1.03309e-13
2.06862e-13
3.60036e-13
5.67033e-13
8.28639e-13
1.14269e-12
1.50481e-12
1.90911e-12
2.34895e-12
2.81741e-12
3.30765e-12
3.81321e-12
4.32809e-12
4.84679e-12
5.36436e-12
5.87634e-12
6.37872e-12
6.8679e-12
7.34069e-12
7.7942e-12
8.22584e-12
8.6333e-12
9.01452e-12
9.36766e-12
9.69107e-12
9.98333e-12
1.02432e-11
1.04695e-11
1.06615e-11
1.08183e-11
1.09394e-11
1.10244e-11
1.1073e-11
1.1085e-11
1.10605e-11
1.09997e-11
1.09028e-11
1.07704e-11
1.06029e-11
1.04012e-11
1.01661e-11
9.89869e-12
9.60009e-12
9.27162e-12
8.91477e-12
8.53119e-12
8.12271e-12
7.69137e-12
7.2394e-12
6.7693e-12
6.28384e-12
5.78611e-12
5.27955e-12
4.76803e-12
4.25586e-12
3.74784e-12
3.24934e-12
2.76622e-12
2.30486e-12
1.87196e-12
1.47433e-12
1.11852e-12
8.10265e-13
5.53822e-13
3.51212e-13
2.01534e-13
1.00521e-13
4.05717e-14
1.14186e-14
1.49493e-15
8.72327e-18
1.03992e-17
1.78242e-15
1.36236e-14
4.84742e-14
1.20371e-13
2.42091e-13
4.23571e-13
6.7106e-13
9.86932e-13
1.37002e-12
1.81628e-12
2.31954e-12
2.87227e-12
3.46622e-12
4.09292e-12
4.74405e-12
5.41167e-12
6.08831e-12
6.76711e-12
7.44178e-12
8.10657e-12
8.75632e-12
9.38632e-12
9.99237e-12
1.05706e-11
1.11177e-11
1.16306e-11
1.21065e-11
1.25431e-11
1.29381e-11
1.32898e-11
1.35965e-11
1.38569e-11
1.407e-11
1.42348e-11
1.43508e-11
1.44174e-11
1.44345e-11
1.44022e-11
1.43206e-11
1.41902e-11
1.40116e-11
1.37857e-11
1.35135e-11
1.31963e-11
1.28356e-11
1.24331e-11
1.19906e-11
1.15105e-11
1.0995e-11
1.04469e-11
9.86921e-12
9.26519e-12
8.63855e-12
7.99336e-12
7.33415e-12
6.66593e-12
5.99426e-12
5.32526e-12
4.66566e-12
4.02275e-12
3.40438e-12
2.81876e-12
2.27424e-12
1.77896e-12
1.3403e-12
9.64273e-13
6.54734e-13
4.12656e-13
2.35499e-13
1.16924e-13
4.70251e-14
1.32025e-14
1.7261e-15
1.00673e-17
1.18187e-17
2.02636e-15
1.55019e-14
5.5245e-14
1.37503e-13
2.77387e-13
4.87103e-13
7.74933e-13
1.14489e-12
1.59692e-12
2.1275e-12
2.73038e-12
3.39741e-12
4.11922e-12
4.88586e-12
5.68728e-12
6.51362e-12
7.35544e-12
8.20388e-12
9.05068e-12
9.88824e-12
1.07096e-11
1.15084e-11
1.22788e-11
1.30157e-11
1.37144e-11
1.43706e-11
1.49805e-11
1.55408e-11
1.60485e-11
1.6501e-11
1.68962e-11
1.72321e-11
1.75073e-11
1.77204e-11
1.78707e-11
1.79575e-11
1.79804e-11
1.79397e-11
1.78354e-11
1.76682e-11
1.74389e-11
1.71487e-11
1.67991e-11
1.63918e-11
1.59288e-11
1.54124e-11
1.48454e-11
1.42306e-11
1.35715e-11
1.28718e-11
1.21356e-11
1.13675e-11
1.05725e-11
9.75633e-12
8.92506e-12
8.08549e-12
7.24504e-12
6.41179e-12
5.59446e-12
4.80235e-12
4.04522e-12
3.33302e-12
2.67558e-12
2.08214e-12
1.56066e-12
1.11716e-12
7.54921e-13
4.73713e-13
2.69301e-13
1.33278e-13
5.34696e-14
1.49864e-14
1.95745e-15
1.14128e-17
1.32412e-17
2.27075e-15
1.73824e-14
6.20152e-14
1.54606e-13
3.12557e-13
5.50292e-13
8.78081e-13
1.30156e-12
1.82182e-12
2.43596e-12
3.13779e-12
3.91867e-12
4.76832e-12
5.67548e-12
6.62846e-12
7.61559e-12
8.6255e-12
9.64732e-12
1.06708e-11
1.16864e-11
1.26853e-11
1.36593e-11
1.46009e-11
1.55035e-11
1.63609e-11
1.71675e-11
1.79184e-11
1.86092e-11
1.92359e-11
1.97951e-11
2.0284e-11
2.06999e-11
2.1041e-11
2.13055e-11
2.14922e-11
2.16003e-11
2.16295e-11
2.15798e-11
2.14514e-11
2.12451e-11
2.09621e-11
2.06037e-11
2.0172e-11
1.96692e-11
1.90979e-11
1.84613e-11
1.77627e-11
1.70062e-11
1.61962e-11
1.53375e-11
1.44355e-11
1.34963e-11
1.25265e-11
1.15332e-11
1.05244e-11
9.50885e-12
8.4958e-12
7.49537e-12
6.5183e-12
5.57583e-12
4.67955e-12
3.84104e-12
3.07142e-12
2.38083e-12
1.77763e-12
1.26771e-12
8.53633e-13
5.33935e-13
3.02685e-13
1.49452e-13
5.9852e-14
1.67547e-14
2.1869e-15
1.27474e-17
1.46582e-17
2.51414e-15
1.9254e-14
6.8747e-14
1.7159e-13
3.47425e-13
6.12835e-13
9.80011e-13
1.45616e-12
2.04353e-12
2.73984e-12
3.53902e-12
4.4321e-12
5.40795e-12
6.45415e-12
7.55751e-12
8.70464e-12
9.8823e-12
1.10777e-11
1.22786e-11
1.34734e-11
1.46515e-11
1.58028e-11
1.69182e-11
1.79893e-11
1.90084e-11
1.99686e-11
2.08636e-11
2.16879e-11
2.24366e-11
2.31053e-11
2.36904e-11
2.41885e-11
2.45973e-11
2.49145e-11
2.51386e-11
2.52687e-11
2.53041e-11
2.52449e-11
2.50914e-11
2.48446e-11
2.45059e-11
2.40771e-11
2.35607e-11
2.29595e-11
2.22768e-11
2.15165e-11
2.0683e-11
1.97813e-11
1.88169e-11
1.77959e-11
1.67253e-11
1.56123e-11
1.44653e-11
1.32932e-11
1.21058e-11
1.09136e-11
9.72793e-12
8.56091e-12
7.42522e-12
6.33398e-12
5.30049e-12
4.3378e-12
3.45821e-12
2.67258e-12
1.98957e-12
1.41483e-12
9.50172e-13
5.92891e-13
3.35405e-13
1.65323e-13
6.61204e-14
1.84926e-14
2.4125e-15
1.40598e-17
1.60619e-17
2.75521e-15
2.11069e-14
7.54061e-14
1.8837e-13
3.81831e-13
6.74456e-13
1.08029e-12
1.60805e-12
2.26107e-12
3.0377e-12
3.93204e-12
4.93479e-12
6.0341e-12
7.21645e-12
8.46727e-12
9.77154e-12
1.11143e-11
1.24807e-11
1.38568e-11
1.5229e-11
1.65847e-11
1.79121e-11
1.92002e-11
2.04391e-11
2.16195e-11
2.27329e-11
2.3772e-11
2.47299e-11
2.56006e-11
2.63789e-11
2.70602e-11
2.76406e-11
2.81171e-11
2.84869e-11
2.87483e-11
2.88999e-11
2.8941e-11
2.88719e-11
2.86927e-11
2.84046e-11
2.80093e-11
2.75093e-11
2.69072e-11
2.62067e-11
2.54117e-11
2.45271e-11
2.35581e-11
2.25109e-11
2.1392e-11
2.02091e-11
1.89702e-11
1.76844e-11
1.63616e-11
1.50124e-11
1.36485e-11
1.22823e-11
1.0927e-11
9.5967e-12
8.30591e-12
7.06955e-12
5.90251e-12
4.8192e-12
3.83295e-12
2.95525e-12
2.19498e-12
1.5575e-12
1.04387e-12
6.50162e-13
3.6722e-13
1.80768e-13
7.2225e-14
2.0186e-14
2.63237e-15
1.53389e-17
1.74459e-17
2.99284e-15
2.29325e-14
8.19624e-14
2.04876e-13
4.15632e-13
7.34912e-13
1.17853e-12
1.75665e-12
2.47362e-12
3.32841e-12
4.31524e-12
5.42453e-12
6.64377e-12
7.95839e-12
9.35254e-12
1.08096e-11
1.2313e-11
1.38461e-11
1.5393e-11
1.69383e-11
1.84675e-11
1.99671e-11
2.14243e-11
2.28274e-11
2.41658e-11
2.54296e-11
2.66099e-11
2.76988e-11
2.86891e-11
2.95748e-11
3.03504e-11
3.10113e-11
3.15538e-11
3.19748e-11
3.22721e-11
3.24441e-11
3.24902e-11
3.24103e-11
3.22048e-11
3.18752e-11
3.14234e-11
3.08522e-11
3.0165e-11
2.9366e-11
2.84599e-11
2.74524e-11
2.63497e-11
2.51591e-11
2.38884e-11
2.25464e-11
2.11427e-11
1.96878e-11
1.81934e-11
1.66717e-11
1.51362e-11
1.3601e-11
1.20814e-11
1.05932e-11
9.1527e-12
7.77648e-12
6.48091e-12
5.28167e-12
4.19297e-12
3.22689e-12
2.39246e-12
1.69475e-12
1.13406e-12
7.05335e-13
3.97893e-13
1.95668e-13
7.81175e-14
2.18211e-14
2.8447e-15
1.65743e-17
1.88042e-17
3.22603e-15
2.47234e-14
8.83898e-14
2.21042e-13
4.48702e-13
7.93987e-13
1.27441e-12
1.90147e-12
2.6805e-12
3.611e-12
4.68733e-12
5.89961e-12
7.23468e-12
8.67699e-12
1.02094e-11
1.1814e-11
1.34724e-11
1.51663e-11
1.6878e-11
1.85904e-11
2.02872e-11
2.19529e-11
2.35734e-11
2.51352e-11
2.66261e-11
2.80349e-11
2.93515e-11
3.05666e-11
3.16723e-11
3.26612e-11
3.35273e-11
3.42653e-11
3.48707e-11
3.53403e-11
3.56713e-11
3.5862e-11
3.59115e-11
3.582e-11
3.55877e-11
3.52165e-11
3.47087e-11
3.40675e-11
3.32967e-11
3.24012e-11
3.13866e-11
3.02593e-11
2.90267e-11
2.76969e-11
2.6279e-11
2.47831e-11
2.32203e-11
2.16025e-11
1.99429e-11
1.82554e-11
1.65552e-11
1.48582e-11
1.31814e-11
1.15424e-11
9.959e-12
8.44947e-12
7.03152e-12
5.72192e-12
4.53576e-12
3.48563e-12
2.58065e-12
1.82561e-12
1.22011e-12
7.58008e-13
4.27192e-13
2.09909e-13
8.37511e-14
2.33847e-14
3.04778e-15
1.77558e-17
2.0132e-17
3.45397e-15
2.64732e-14
9.46659e-14
2.36815e-13
4.80935e-13
8.51501e-13
1.36763e-12
2.0421e-12
2.88113e-12
3.88471e-12
5.04728e-12
6.35867e-12
7.80506e-12
9.36997e-12
1.10351e-11
1.2781e-11
1.45878e-11
1.64357e-11
1.83051e-11
2.01773e-11
2.20341e-11
2.38586e-11
2.56349e-11
2.73479e-11
2.89842e-11
3.0531e-11
3.19771e-11
3.3312e-11
3.45268e-11
3.56134e-11
3.65647e-11
3.7375e-11
3.80392e-11
3.85535e-11
3.8915e-11
3.91218e-11
3.91729e-11
3.90685e-11
3.8809e-11
3.83964e-11
3.78334e-11
3.71236e-11
3.62716e-11
3.52828e-11
3.41634e-11
3.29208e-11
3.15634e-11
3.01002e-11
2.85416e-11
2.68989e-11
2.51844e-11
2.34115e-11
2.15949e-11
1.97502e-11
1.78939e-11
1.60439e-11
1.42185e-11
1.2437e-11
1.07189e-11
9.08368e-12
7.55041e-12
6.13689e-12
4.85896e-12
3.72966e-12
2.75822e-12
1.94914e-12
1.30138e-12
8.07782e-13
4.54892e-13
2.23377e-13
8.90804e-14
2.4864e-14
3.23993e-15
1.88738e-17
2.14254e-17
3.67596e-15
2.81768e-14
1.00773e-13
2.52151e-13
5.12244e-13
9.07305e-13
1.45797e-12
2.17821e-12
3.07506e-12
4.14893e-12
5.3943e-12
6.80067e-12
8.3536e-12
1.00356e-11
1.18273e-11
1.37079e-11
1.5656e-11
1.76502e-11
1.96693e-11
2.16929e-11
2.37013e-11
2.56759e-11
2.75992e-11
2.94548e-11
3.12277e-11
3.29042e-11
3.44715e-11
3.59184e-11
3.72348e-11
3.84119e-11
3.9442e-11
4.03184e-11
4.1036e-11
4.15904e-11
4.19785e-11
4.21981e-11
4.22485e-11
4.21295e-11
4.1842e-11
4.13882e-11
4.07711e-11
3.99949e-11
3.90645e-11
3.7986e-11
3.67665e-11
3.54142e-11
3.39382e-11
3.23487e-11
3.06571e-11
2.88759e-11
2.70187e-11
2.51002e-11
2.31363e-11
2.11442e-11
1.91421e-11
1.71489e-11
1.51849e-11
1.32705e-11
1.14268e-11
9.67454e-12
8.0339e-12
6.52361e-12
5.16024e-12
3.95722e-12
2.92387e-12
2.06444e-12
1.37727e-12
8.54272e-13
4.80772e-13
2.35963e-13
9.40616e-14
2.62468e-14
3.41953e-15
1.99187e-17
2.26815e-17
3.89151e-15
2.98304e-14
1.06697e-13
2.67016e-13
5.42565e-13
9.6129e-13
1.54526e-12
2.30955e-12
3.26195e-12
4.40321e-12
5.7278e-12
7.22489e-12
8.87934e-12
1.06728e-11
1.25847e-11
1.45929e-11
1.66746e-11
1.88068e-11
2.0967e-11
2.31329e-11
2.52835e-11
2.73986e-11
2.94591e-11
3.14475e-11
3.33474e-11
3.51438e-11
3.6823e-11
3.83727e-11
3.97821e-11
4.10414e-11
4.21424e-11
4.30781e-11
4.38426e-11
4.44315e-11
4.48414e-11
4.50701e-11
4.51166e-11
4.49811e-11
4.46647e-11
4.41698e-11
4.34998e-11
4.26592e-11
4.16537e-11
4.04899e-11
3.91756e-11
3.77198e-11
3.61324e-11
3.44247e-11
3.2609e-11
3.06988e-11
2.87089e-11
2.66553e-11
2.45552e-11
2.2427e-11
2.02901e-11
1.81651e-11
1.60733e-11
1.40367e-11
1.20775e-11
1.02177e-11
8.47841e-12
6.87923e-12
5.43735e-12
4.16659e-12
3.07633e-12
2.17058e-12
1.44715e-12
8.97098e-13
5.04618e-13
2.47561e-13
9.8652e-14
2.75211e-14
3.58503e-15
2.08816e-17
2.3898e-17
4.10024e-15
3.14311e-14
1.12429e-13
2.81388e-13
5.71853e-13
1.01338e-12
1.62939e-12
2.43598e-12
3.44159e-12
4.64728e-12
6.04745e-12
7.63086e-12
9.38171e-12
1.12807e-11
1.33061e-11
1.54346e-11
1.76419e-11
1.99036e-11
2.21956e-11
2.44943e-11
2.6777e-11
2.90221e-11
3.12094e-11
3.33199e-11
3.5336e-11
3.72417e-11
3.90223e-11
4.06647e-11
4.21572e-11
4.34895e-11
4.46527e-11
4.56395e-11
4.64438e-11
4.70607e-11
4.74868e-11
4.772e-11
4.77592e-11
4.76049e-11
4.72582e-11
4.67221e-11
4.60002e-11
4.50976e-11
4.40204e-11
4.2776e-11
4.13727e-11
3.98202e-11
3.81294e-11
3.63123e-11
3.43821e-11
3.23535e-11
3.02421e-11
2.80651e-11
2.58407e-11
2.35885e-11
2.13292e-11
1.90846e-11
1.6877e-11
1.47298e-11
1.26661e-11
1.0709e-11
8.88048e-12
7.20094e-12
5.6881e-12
4.35608e-12
3.21434e-12
2.26669e-12
1.51045e-12
9.35892e-13
5.26222e-13
2.5807e-13
1.02811e-13
2.86755e-14
3.73494e-15
2.17537e-17
2.50739e-17
4.30197e-15
3.29775e-14
1.17963e-13
2.95255e-13
6.00086e-13
1.06354e-12
1.7103e-12
2.55741e-12
3.61389e-12
4.88102e-12
6.35309e-12
8.0184e-12
9.86046e-12
1.1859e-11
1.39912e-11
1.62324e-11
1.85571e-11
2.09394e-11
2.33536e-11
2.57749e-11
2.81791e-11
3.05434e-11
3.28461e-11
3.50672e-11
3.7188e-11
3.91915e-11
4.10622e-11
4.27861e-11
4.4351e-11
4.5746e-11
4.69619e-11
4.79908e-11
4.88266e-11
4.94643e-11
4.99004e-11
5.01328e-11
5.01607e-11
4.99846e-11
4.96061e-11
4.90284e-11
4.82557e-11
4.72934e-11
4.61481e-11
4.48279e-11
4.33417e-11
4.17e-11
3.99142e-11
3.79971e-11
3.5963e-11
3.38271e-11
3.16062e-11
2.93182e-11
2.69825e-11
2.46195e-11
2.22511e-11
1.98999e-11
1.75895e-11
1.5344e-11
1.31876e-11
1.11442e-11
9.23673e-12
7.48601e-12
5.91032e-12
4.52405e-12
3.3367e-12
2.35192e-12
1.56658e-12
9.703e-13
5.45383e-13
2.67389e-13
1.06499e-13
2.9699e-14
3.86783e-15
2.25267e-17
2.62088e-17
4.49664e-15
3.44693e-14
1.23298e-13
3.08614e-13
6.27261e-13
1.11177e-12
1.78801e-12
2.67388e-12
3.7789e-12
5.1045e-12
6.64479e-12
8.3876e-12
1.03157e-11
1.24078e-11
1.46399e-11
1.69863e-11
1.94199e-11
2.19135e-11
2.44402e-11
2.69736e-11
2.94883e-11
3.19602e-11
3.43666e-11
3.66862e-11
3.88994e-11
4.09884e-11
4.29369e-11
4.47304e-11
4.63561e-11
4.78026e-11
4.90606e-11
5.01219e-11
5.09802e-11
5.16306e-11
5.20697e-11
5.22955e-11
5.23074e-11
5.21062e-11
5.16939e-11
5.1074e-11
5.02512e-11
4.92314e-11
4.80217e-11
4.66307e-11
4.50681e-11
4.33447e-11
4.14728e-11
3.94659e-11
3.73388e-11
3.51076e-11
3.27898e-11
3.04042e-11
2.79709e-11
2.55112e-11
2.30477e-11
2.0604e-11
1.82044e-11
1.58739e-11
1.36374e-11
1.15196e-11
9.54391e-12
7.73182e-12
6.10194e-12
4.66889e-12
3.44223e-12
2.42543e-12
1.615e-12
9.99978e-13
5.61908e-13
2.75425e-13
1.09678e-13
3.05811e-14
3.98233e-15
2.31926e-17
2.73033e-17
4.68436e-15
3.59073e-14
1.28439e-13
3.21476e-13
6.53401e-13
1.15811e-12
1.86258e-12
2.78548e-12
3.93676e-12
5.31794e-12
6.92286e-12
8.73881e-12
1.07477e-11
1.29274e-11
1.52527e-11
1.76965e-11
2.02305e-11
2.28263e-11
2.54553e-11
2.80901e-11
3.07039e-11
3.32715e-11
3.57691e-11
3.81744e-11
4.04672e-11
4.26287e-11
4.46421e-11
4.64924e-11
4.81663e-11
4.96525e-11
5.09411e-11
5.20241e-11
5.28952e-11
5.35495e-11
5.39838e-11
5.41964e-11
5.41871e-11
5.3957e-11
5.35085e-11
5.28455e-11
5.19731e-11
5.08979e-11
4.96274e-11
4.81708e-11
4.65382e-11
4.47411e-11
4.27924e-11
4.07061e-11
3.84977e-11
3.61838e-11
3.37825e-11
3.13133e-11
2.87969e-11
2.62552e-11
2.37116e-11
2.119e-11
1.87158e-11
1.63142e-11
1.4011e-11
1.18312e-11
9.79886e-12
7.93581e-12
6.26095e-12
4.78909e-12
3.52981e-12
2.48643e-12
1.65517e-12
1.0246e-12
5.75616e-13
2.82089e-13
1.12313e-13
3.1312e-14
4.07717e-15
2.37441e-17
2.8359e-17
4.86539e-15
3.72935e-14
1.33392e-13
3.3386e-13
6.78546e-13
1.20264e-12
1.93414e-12
2.89242e-12
4.08777e-12
5.52172e-12
7.18778e-12
9.07263e-12
1.11574e-11
1.34188e-11
1.58304e-11
1.8364e-11
2.09899e-11
2.36783e-11
2.63995e-11
2.91246e-11
3.18258e-11
3.44767e-11
3.70526e-11
3.95305e-11
4.18892e-11
4.41095e-11
4.61741e-11
4.80677e-11
4.97767e-11
5.12896e-11
5.25966e-11
5.36899e-11
5.45631e-11
5.52118e-11
5.56328e-11
5.58252e-11
5.57889e-11
5.55255e-11
5.50379e-11
5.43306e-11
5.3409e-11
5.22803e-11
5.09527e-11
4.94355e-11
4.77397e-11
4.58772e-11
4.38612e-11
4.17064e-11
3.94287e-11
3.70451e-11
3.45743e-11
3.20362e-11
2.94518e-11
2.68437e-11
2.42354e-11
2.16517e-11
1.91179e-11
1.666e-11
1.4304e-11
1.20755e-11
9.9986e-12
8.09555e-12
6.38545e-12
4.88318e-12
3.59835e-12
2.53417e-12
1.68661e-12
1.04386e-12
5.86335e-13
2.87297e-13
1.14372e-13
3.18825e-14
4.15116e-15
2.41742e-17
2.93781e-17
5.04013e-15
3.86311e-14
1.38169e-13
3.45795e-13
7.02759e-13
1.24548e-12
2.00288e-12
2.99498e-12
4.23234e-12
5.71638e-12
7.44024e-12
9.38992e-12
1.15456e-11
1.38829e-11
1.63743e-11
1.899e-11
2.16993e-11
2.44708e-11
2.72737e-11
3.00779e-11
3.28544e-11
3.5576e-11
3.82169e-11
4.07535e-11
4.3164e-11
4.54288e-11
4.75302e-11
4.94527e-11
5.11828e-11
5.27089e-11
5.40214e-11
5.51127e-11
5.59768e-11
5.66094e-11
5.70082e-11
5.71725e-11
5.71029e-11
5.68014e-11
5.62715e-11
5.55182e-11
5.45476e-11
5.33672e-11
5.19858e-11
5.04134e-11
4.86612e-11
4.67415e-11
4.46682e-11
4.24561e-11
4.01215e-11
3.76819e-11
3.51561e-11
3.25642e-11
2.99277e-11
2.72692e-11
2.46126e-11
2.19828e-11
1.94054e-11
1.69066e-11
1.45126e-11
1.2249e-11
1.01403e-11
8.2088e-12
6.47364e-12
4.9498e-12
3.64687e-12
2.56795e-12
1.70884e-12
1.05748e-12
5.93907e-13
2.90973e-13
1.15823e-13
3.22843e-14
4.20321e-15
2.44766e-17
3.03637e-17
5.20909e-15
3.99242e-14
1.42785e-13
3.5732e-13
7.2612e-13
1.28676e-12
2.06904e-12
3.09353e-12
4.37096e-12
5.90261e-12
7.68112e-12
9.69172e-12
1.19136e-11
1.43212e-11
1.68858e-11
1.95761e-11
2.23602e-11
2.52054e-11
2.80795e-11
3.09513e-11
3.37909e-11
3.65699e-11
3.92621e-11
4.18432e-11
4.42908e-11
4.65851e-11
4.87082e-11
5.06447e-11
5.23811e-11
5.3906e-11
5.52103e-11
5.62866e-11
5.71295e-11
5.77351e-11
5.8102e-11
5.823e-11
5.81202e-11
5.77753e-11
5.71995e-11
5.63983e-11
5.53785e-11
5.41482e-11
5.27165e-11
5.1094e-11
4.92922e-11
4.7324e-11
4.52034e-11
4.29456e-11
4.0567e-11
3.80853e-11
3.55194e-11
3.28895e-11
3.02172e-11
2.75251e-11
2.48371e-11
2.21781e-11
1.95736e-11
1.70499e-11
1.46331e-11
1.23488e-11
1.02215e-11
8.27347e-12
6.52391e-12
4.98773e-12
3.67446e-12
2.58714e-12
1.72146e-12
1.0652e-12
5.98191e-13
2.93049e-13
1.1664e-13
3.25099e-14
4.23236e-15
2.46457e-17
3.13195e-17
5.37292e-15
4.11777e-14
1.47257e-13
3.68482e-13
7.48728e-13
1.32666e-12
2.13291e-12
3.18849e-12
4.50425e-12
6.08121e-12
7.91144e-12
9.97929e-12
1.22629e-11
1.47354e-11
1.73667e-11
2.01243e-11
2.29747e-11
2.58839e-11
2.88186e-11
3.17464e-11
3.46364e-11
3.74596e-11
4.01889e-11
4.27995e-11
4.52689e-11
4.75771e-11
4.97063e-11
5.16411e-11
5.33683e-11
5.48771e-11
5.61587e-11
5.72064e-11
5.80155e-11
5.85823e-11
5.89071e-11
5.89899e-11
5.88327e-11
5.84388e-11
5.78132e-11
5.6962e-11
5.58927e-11
5.4614e-11
5.31354e-11
5.14681e-11
4.96238e-11
4.76158e-11
4.54582e-11
4.31665e-11
4.07571e-11
3.82476e-11
3.56571e-11
3.30055e-11
3.03141e-11
2.76057e-11
2.49036e-11
2.22326e-11
1.96181e-11
1.7086e-11
1.46621e-11
1.2372e-11
1.02398e-11
8.28777e-12
6.53484e-12
4.99587e-12
3.68033e-12
2.59119e-12
1.72411e-12
1.0668e-12
5.99067e-13
2.93465e-13
1.16801e-13
3.25531e-14
4.23782e-15
2.4677e-17
3.22499e-17
5.53238e-15
4.23976e-14
1.51609e-13
3.79335e-13
7.70694e-13
1.36539e-12
2.19481e-12
3.28036e-12
4.6329e-12
6.25311e-12
8.13236e-12
1.0254e-11
1.2595e-11
1.51273e-11
1.78191e-11
2.06366e-11
2.35448e-11
2.65085e-11
2.94931e-11
3.2465e-11
3.53926e-11
3.8246e-11
4.09978e-11
4.36227e-11
4.60981e-11
4.84041e-11
5.0523e-11
5.24397e-11
5.41417e-11
5.56186e-11
5.68625e-11
5.78673e-11
5.86291e-11
5.91453e-11
5.94174e-11
5.94458e-11
5.92334e-11
5.87846e-11
5.8105e-11
5.72015e-11
5.60823e-11
5.47565e-11
5.32345e-11
5.15275e-11
4.9648e-11
4.76091e-11
4.54253e-11
4.31118e-11
4.06851e-11
3.81626e-11
3.55631e-11
3.29064e-11
3.02133e-11
2.75061e-11
2.48079e-11
2.21428e-11
1.95357e-11
1.70121e-11
1.45974e-11
1.23166e-11
1.01937e-11
8.25032e-12
6.50535e-12
4.97343e-12
3.66389e-12
2.5797e-12
1.7165e-12
1.06211e-12
5.96443e-13
2.92179e-13
1.16287e-13
3.24092e-14
4.21896e-15
2.45668e-17
3.31596e-17
5.68829e-15
4.35901e-14
1.55862e-13
3.8994e-13
7.92144e-13
1.40318e-12
2.25511e-12
3.36967e-12
4.75766e-12
6.41929e-12
8.34512e-12
1.05175e-11
1.29119e-11
1.54988e-11
1.82451e-11
2.11152e-11
2.40728e-11
2.70813e-11
3.01048e-11
3.31089e-11
3.60609e-11
3.89304e-11
4.16896e-11
4.4313e-11
4.67781e-11
4.90651e-11
5.11567e-11
5.30385e-11
5.46985e-11
5.61274e-11
5.7318e-11
5.82653e-11
5.89657e-11
5.94194e-11
5.96276e-11
5.95919e-11
5.93164e-11
5.88063e-11
5.80683e-11
5.71102e-11
5.59408e-11
5.45699e-11
5.30081e-11
5.12672e-11
4.93598e-11
4.72991e-11
4.50996e-11
4.27766e-11
4.03462e-11
3.78256e-11
3.52332e-11
3.25882e-11
2.99109e-11
2.72229e-11
2.45466e-11
2.19054e-11
1.93236e-11
1.68257e-11
1.44367e-11
1.21808e-11
1.00814e-11
8.15983e-12
6.43443e-12
4.91961e-12
3.62458e-12
2.55226e-12
1.6984e-12
1.05099e-12
5.90235e-13
2.8915e-13
1.15084e-13
3.20741e-14
4.1753e-15
2.43123e-17
3.40538e-17
5.84154e-15
4.47624e-14
1.60042e-13
4.00361e-13
8.13211e-13
1.44025e-12
2.3142e-12
3.45701e-12
4.87934e-12
6.5808e-12
8.55103e-12
1.07711e-11
1.32151e-11
1.58519e-11
1.86467e-11
2.15624e-11
2.45609e-11
2.76044e-11
3.06559e-11
3.36797e-11
3.66427e-11
3.95137e-11
4.22648e-11
4.48704e-11
4.73084e-11
4.95591e-11
5.1606e-11
5.34355e-11
5.50365e-11
5.64006e-11
5.75219e-11
5.83965e-11
5.90213e-11
5.94e-11
5.95328e-11
5.94235e-11
5.90771e-11
5.85e-11
5.76997e-11
5.66849e-11
5.5465e-11
5.40505e-11
5.24526e-11
5.06832e-11
4.87552e-11
4.66819e-11
4.44778e-11
4.21577e-11
3.97376e-11
3.72341e-11
3.4665e-11
3.20487e-11
2.94049e-11
2.67542e-11
2.41181e-11
2.1519e-11
1.89804e-11
1.65257e-11
1.4179e-11
1.19637e-11
9.90237e-12
8.01571e-12
6.3216e-12
4.83407e-12
3.56213e-12
2.50869e-12
1.66967e-12
1.03337e-12
5.80408e-13
2.84364e-13
1.13187e-13
3.15463e-14
4.10663e-15
2.39123e-17
3.49377e-17
5.99305e-15
4.59213e-14
1.64176e-13
4.10665e-13
8.34032e-13
1.47687e-12
2.37246e-12
3.54296e-12
4.99872e-12
6.73869e-12
8.75139e-12
1.10165e-11
1.35065e-11
1.61885e-11
1.9026e-11
2.198e-11
2.5011e-11
2.80797e-11
3.11478e-11
3.41789e-11
3.7139e-11
3.99966e-11
4.27236e-11
4.52949e-11
4.76883e-11
4.9885e-11
5.18694e-11
5.36287e-11
5.51532e-11
5.64356e-11
5.74715e-11
5.8257e-11
5.87937e-11
5.90842e-11
5.91308e-11
5.89384e-11
5.85133e-11
5.78632e-11
5.69966e-11
5.59229e-11
5.46525e-11
5.31964e-11
5.15662e-11
4.97742e-11
4.78334e-11
4.57571e-11
4.35595e-11
4.12551e-11
3.88593e-11
3.63882e-11
3.38586e-11
3.12881e-11
2.86955e-11
2.61001e-11
2.35225e-11
2.09838e-11
1.85062e-11
1.61121e-11
1.38243e-11
1.16652e-11
9.65651e-12
7.81797e-12
6.16687e-12
4.7168e-12
3.47654e-12
2.44901e-12
1.63034e-12
1.00924e-12
5.66967e-13
2.77822e-13
1.10595e-13
3.08263e-14
4.01304e-15
2.33676e-17
3.58167e-17
6.14371e-15
4.70742e-14
1.68289e-13
4.20918e-13
8.54746e-13
1.51326e-12
2.4303e-12
3.62808e-12
5.11661e-12
6.89396e-12
8.94743e-12
1.12551e-11
1.37877e-11
1.65104e-11
1.93847e-11
2.237e-11
2.54249e-11
2.85086e-11
3.15819e-11
3.46073e-11
3.75503e-11
4.03792e-11
4.3066e-11
4.55856e-11
4.79167e-11
5.00415e-11
5.19451e-11
5.36163e-11
5.50465e-11
5.62303e-11
5.7164e-11
5.78455e-11
5.82807e-11
5.84705e-11
5.84198e-11
5.81351e-11
5.7624e-11
5.68953e-11
5.59588e-11
5.48247e-11
5.35041e-11
5.20088e-11
5.03508e-11
4.85425e-11
4.6597e-11
4.45275e-11
4.23477e-11
4.00718e-11
3.77144e-11
3.52908e-11
3.2817e-11
3.03093e-11
2.77854e-11
2.52633e-11
2.27621e-11
2.03018e-11
1.79029e-11
1.55865e-11
1.3374e-11
1.12865e-11
9.34468e-12
7.56725e-12
5.97073e-12
4.56817e-12
3.36808e-12
2.37339e-12
1.58051e-12
9.78698e-13
5.49957e-13
2.69548e-13
1.07321e-13
2.99171e-14
3.89492e-15
2.26802e-17
3.66957e-17
6.29441e-15
4.82278e-14
1.72406e-13
4.31184e-13
8.75483e-13
1.54967e-12
2.48808e-12
3.71294e-12
5.23374e-12
7.04757e-12
9.14029e-12
1.14882e-11
1.40601e-11
1.68189e-11
1.97243e-11
2.27335e-11
2.58036e-11
2.88921e-11
3.19587e-11
3.49652e-11
3.78766e-11
4.06611e-11
4.32908e-11
4.57413e-11
4.79922e-11
5.00267e-11
5.18313e-11
5.33962e-11
5.47147e-11
5.57827e-11
5.6597e-11
5.71622e-11
5.74814e-11
5.75585e-11
5.74002e-11
5.70145e-11
5.64107e-11
5.55987e-11
5.45893e-11
5.33939e-11
5.20244e-11
5.0493e-11
4.8812e-11
4.69942e-11
4.50524e-11
4.29997e-11
4.08492e-11
3.86147e-11
3.63098e-11
3.39489e-11
3.15467e-11
2.91185e-11
2.66804e-11
2.4249e-11
2.18419e-11
1.94773e-11
1.71742e-11
1.4952e-11
1.28307e-11
1.08299e-11
8.96874e-12
7.26503e-12
5.73431e-12
4.38902e-12
3.23736e-12