/*--------------------------------*- C++ -*----------------------------------*\
  =========                 |
  \\      /  F ield         | OpenFOAM: The Open Source CFD Toolbox
   \\    /   O peration     | Website:  https://openfoam.org
    \\  /    A nd           | Version:  12
     \\/     M anipulation  |
\*---------------------------------------------------------------------------*/
FoamFile
{
    format      ascii;
    class       volScalarField;
    location    "5";
    object      p;
}
// * * * * * * * * * * * * * * * * * * * * * * * * * * * * * * * * * * * * * //

dimensions      [0 2 -2 0 0 0 0];

internalField   nonuniform List<scalar> 
5625
(
-4.18577e-09
2.57282e-07
1.33788e-06
3.22612e-06
5.66123e-06
8.41279e-06
1.12986e-05
1.41658e-05
1.6884e-05
1.93439e-05
2.14562e-05
2.31483e-05
2.43632e-05
2.50567e-05
2.51961e-05
2.47585e-05
2.37297e-05
2.21028e-05
1.98777e-05
1.70596e-05
1.3659e-05
9.6905e-06
5.17277e-06
1.27639e-07
-5.42007e-06
-1.1443e-05
-1.79115e-05
-2.47939e-05
-3.20571e-05
-3.96661e-05
-4.75849e-05
-5.57763e-05
-6.42022e-05
-7.28238e-05
-8.16015e-05
-9.04953e-05
-9.94648e-05
-0.000108469
-0.000117468
-0.00012642
-0.000135285
-0.000144023
-0.000152592
-0.000160955
-0.000169071
-0.000176902
-0.000184412
-0.000191565
-0.000198326
-0.000204661
-0.00021054
-0.000215934
-0.000220815
-0.000225161
-0.00022895
-0.000232164
-0.000234792
-0.000236823
-0.000238254
-0.000239089
-0.000239335
-0.00023901
-0.000238139
-0.000236757
-0.000234911
-0.000232662
-0.000230083
-0.000227267
-0.000224325
-0.000221387
-0.000218607
-0.000216167
-0.000214292
-0.000213239
-0.000213002
-3.56439e-06
-2.85773e-06
-1.62616e-06
6.79365e-08
2.08873e-06
4.2981e-06
6.57167e-06
8.79854e-06
1.08809e-05
1.27341e-05
1.42861e-05
1.54768e-05
1.62573e-05
1.65884e-05
1.64401e-05
1.57902e-05
1.46242e-05
1.29336e-05
1.07161e-05
7.97439e-06
4.71563e-06
9.51246e-07
-3.30378e-06
-8.03119e-06
-1.32099e-05
-1.88163e-05
-2.48244e-05
-3.12065e-05
-3.79328e-05
-4.49724e-05
-5.22927e-05
-5.98603e-05
-6.76405e-05
-7.5598e-05
-8.3697e-05
-9.19008e-05
-0.000100173
-0.000108475
-0.000116772
-0.000125024
-0.000133196
-0.000141251
-0.000149151
-0.000156862
-0.000164348
-0.000171574
-0.000178508
-0.000185118
-0.000191372
-0.000197241
-0.0002027
-0.000207721
-0.000212283
-0.000216365
-0.000219951
-0.000223027
-0.000225582
-0.000227612
-0.000229115
-0.000230096
-0.000230565
-0.000230539
-0.000230042
-0.000229106
-0.000227773
-0.000226093
-0.00022413
-0.000221955
-0.000219657
-0.000217333
-0.000215094
-0.000213065
-0.000211385
-0.000210188
-0.000209517
-9.5202e-06
-8.03751e-06
-6.1732e-06
-4.19145e-06
-2.13623e-06
-5.59766e-08
1.97949e-06
3.89852e-06
5.63525e-06
7.13055e-06
8.33217e-06
9.19495e-06
9.68079e-06
9.75848e-06
9.40341e-06
8.59711e-06
7.32687e-06
5.58528e-06
3.36975e-06
6.82197e-07
-2.47149e-06
-6.08172e-06
-1.01356e-05
-1.46173e-05
-1.95082e-05
-2.47874e-05
-3.04318e-05
-3.64163e-05
-4.27144e-05
-4.92978e-05
-5.6137e-05
-6.32016e-05
-7.046e-05
-7.78798e-05
-8.54282e-05
-9.30715e-05
-0.000100776
-0.000108508
-0.000116233
-0.000123916
-0.000131524
-0.000139024
-0.000146381
-0.000153564
-0.000160539
-0.000167277
-0.000173747
-0.00017992
-0.000185768
-0.000191266
-0.00019639
-0.000201116
-0.000205427
-0.000209303
-0.000212731
-0.000215699
-0.000218199
-0.000220226
-0.000221781
-0.000222868
-0.000223496
-0.00022368
-0.00022344
-0.000222802
-0.0002218
-0.000220474
-0.00021887
-0.000217042
-0.000215051
-0.000212964
-0.000210853
-0.000208788
-0.000206821
-0.000204995
-0.000203564
-1.64233e-05
-1.40521e-05
-1.13494e-05
-8.8046e-06
-6.40293e-06
-4.12778e-06
-2.01157e-06
-9.86555e-08
1.56918e-06
2.95378e-06
4.02037e-06
4.73801e-06
5.08004e-06
5.02436e-06
4.55341e-06
3.65413e-06
2.31776e-06
5.39717e-07
-1.68074e-06
-4.34067e-06
-7.43377e-06
-1.09506e-05
-1.48788e-05
-1.92036e-05
-2.39074e-05
-2.8971e-05
-3.43727e-05
-4.00894e-05
-4.60963e-05
-5.23673e-05
-5.88751e-05
-6.55911e-05
-7.24862e-05
-7.95303e-05
-8.66927e-05
-9.39422e-05
-0.000101248
-0.000108577
-0.000115898
-0.00012318
-0.000130391
-0.0001375
-0.000144476
-0.000151288
-0.000157907
-0.000164304
-0.000170451
-0.000176323
-0.000181892
-0.000187137
-0.000192033
-0.000196562
-0.000200705
-0.000204445
-0.00020777
-0.000210667
-0.000213131
-0.000215155
-0.000216739
-0.000217885
-0.000218599
-0.000218892
-0.000218779
-0.000218279
-0.000217417
-0.000216219
-0.00021472
-0.000212955
-0.000210964
-0.000208791
-0.000206479
-0.000204065
-0.000201533
-0.000198873
-0.000196556
-2.30257e-05
-1.97869e-05
-1.62174e-05
-1.30261e-05
-1.01583e-05
-7.54912e-06
-5.20503e-06
-3.15139e-06
-1.412e-06
-8.47482e-09
1.03889e-06
1.71154e-06
1.99331e-06
1.87084e-06
1.33379e-06
3.74948e-07
-1.00976e-06
-2.8213e-06
-5.05764e-06
-7.71384e-06
-1.07822e-05
-1.42525e-05
-1.81121e-05
-2.23461e-05
-2.69374e-05
-3.18673e-05
-3.71151e-05
-4.26588e-05
-4.84747e-05
-5.45382e-05
-6.08234e-05
-6.73033e-05
-7.39505e-05
-8.07366e-05
-8.76326e-05
-9.46094e-05
-0.000101637
-0.000108686
-0.000115727
-0.000122729
-0.000129663
-0.0001365
-0.000143211
-0.000149766
-0.000156139
-0.000162303
-0.000168231
-0.000173898
-0.000179281
-0.000184357
-0.000189106
-0.000193506
-0.000197542
-0.000201198
-0.00020446
-0.000207317
-0.000209761
-0.000211785
-0.000213387
-0.000214566
-0.000215324
-0.000215668
-0.000215607
-0.000215153
-0.000214321
-0.000213128
-0.000211596
-0.000209745
-0.0002076
-0.000205186
-0.000202528
-0.000199637
-0.00019645
-0.000192916
-0.000189727
-2.85071e-05
-2.44718e-05
-2.00816e-05
-1.62415e-05
-1.28704e-05
-9.8682e-06
-7.22417e-06
-4.9513e-06
-3.06079e-06
-1.56202e-06
-4.64002e-07
2.24768e-07
4.97031e-07
3.47154e-07
-2.28504e-07
-1.23151e-06
-2.66114e-06
-4.51447e-06
-6.78621e-06
-9.46893e-06
-1.25529e-05
-1.60266e-05
-1.98761e-05
-2.4086e-05
-2.8639e-05
-3.35163e-05
-3.86974e-05
-4.41608e-05
-4.98835e-05
-5.58417e-05
-6.20102e-05
-6.83634e-05
-7.48748e-05
-8.15172e-05
-8.82632e-05
-9.50847e-05
-0.000101954
-0.000108841
-0.00011572
-0.00012256
-0.000129334
-0.000136015
-0.000142574
-0.000148984
-0.000155219
-0.000161253
-0.000167061
-0.00017262
-0.000177905
-0.000182897
-0.000187573
-0.000191916
-0.000195907
-0.000199531
-0.000202774
-0.000205624
-0.000208072
-0.000210108
-0.000211727
-0.000212927
-0.000213705
-0.000214064
-0.000214006
-0.000213537
-0.000212664
-0.000211397
-0.000209746
-0.000207721
-0.000205334
-0.000202599
-0.000199528
-0.000196115
-0.000192262
-0.000187891
-0.000183891
-3.23074e-05
-2.75611e-05
-2.24244e-05
-1.79743e-05
-1.4111e-05
-1.07085e-05
-7.74479e-06
-5.22502e-06
-3.15186e-06
-1.52581e-06
-3.47353e-07
3.82946e-07
6.65106e-07
5.00074e-07
-1.09902e-07
-1.1612e-06
-2.64857e-06
-4.56517e-06
-6.90242e-06
-9.65008e-06
-1.27962e-05
-1.63272e-05
-2.0228e-05
-2.44819e-05
-2.90709e-05
-3.39756e-05
-3.91754e-05
-4.46487e-05
-5.03727e-05
-5.63238e-05
-6.24774e-05
-6.88086e-05
-7.52913e-05
-8.18994e-05
-8.86061e-05
-9.53844e-05
-0.000102207
-0.000109046
-0.000115875
-0.000122667
-0.000129393
-0.000136027
-0.000142542
-0.000148912
-0.000155112
-0.000161117
-0.000166901
-0.000172443
-0.000177719
-0.000182707
-0.000187388
-0.000191742
-0.000195751
-0.000199399
-0.000202671
-0.000205554
-0.000208035
-0.000210105
-0.000211756
-0.00021298
-0.000213773
-0.000214132
-0.000214055
-0.000213541
-0.000212592
-0.00021121
-0.000209398
-0.000207157
-0.000204491
-0.000201404
-0.000197903
-0.000193969
-0.000189479
-0.000184336
-0.000179605
-3.40214e-05
-2.8648e-05
-2.28463e-05
-1.78435e-05
-1.35259e-05
-9.7474e-06
-6.47842e-06
-3.71924e-06
-1.4667e-06
2.85187e-07
1.54236e-06
2.31049e-06
2.59546e-06
2.40378e-06
1.74275e-06
6.20653e-07
-9.53135e-07
-2.96803e-06
-5.41221e-06
-8.27259e-06
-1.15348e-05
-1.51832e-05
-1.9201e-05
-2.357e-05
-2.82713e-05
-3.32845e-05
-3.85885e-05
-4.41612e-05
-4.99796e-05
-5.602e-05
-6.22581e-05
-6.86689e-05
-7.5227e-05
-8.19065e-05
-8.86811e-05
-9.55243e-05
-0.000102409
-0.00010931
-0.000116199
-0.000123049
-0.000129834
-0.000136528
-0.000143105
-0.000149539
-0.000155804
-0.000161876
-0.000167731
-0.000173346
-0.000178698
-0.000183766
-0.000188527
-0.000192964
-0.000197058
-0.000200789
-0.000204144
-0.000207106
-0.000209662
-0.000211799
-0.000213506
-0.000214774
-0.000215594
-0.000215959
-0.000215862
-0.0002153
-0.000214267
-0.00021276
-0.000210775
-0.000208309
-0.000205359
-0.000201923
-0.000198004
-0.000193576
-0.000188495
-0.000182651
-0.000177262
-3.33337e-05
-2.741e-05
-2.10236e-05
-1.55332e-05
-1.08139e-05
-6.70308e-06
-3.16583e-06
-1.99152e-07
2.20425e-06
4.05526e-06
5.36479e-06
6.14352e-06
6.40216e-06
6.15193e-06
5.40448e-06
4.17228e-06
2.46845e-06
3.07079e-07
-2.29693e-06
-5.32763e-06
-8.76826e-06
-1.2601e-05
-1.68071e-05
-2.1367e-05
-2.62602e-05
-3.14655e-05
-3.69607e-05
-4.27231e-05
-4.87292e-05
-5.49551e-05
-6.13761e-05
-6.79672e-05
-7.4703e-05
-8.15577e-05
-8.85052e-05
-9.55193e-05
-0.000102574
-0.000109642
-0.000116697
-0.000123713
-0.000130663
-0.000137522
-0.000144263
-0.000150861
-0.000157291
-0.000163528
-0.000169548
-0.000175327
-0.000180843
-0.000186073
-0.000190996
-0.00019559
-0.000199838
-0.000203719
-0.000207216
-0.000210312
-0.000212991
-0.000215239
-0.000217041
-0.000218385
-0.00021926
-0.000219654
-0.000219558
-0.000218962
-0.000217858
-0.000216238
-0.000214093
-0.000211416
-0.000208199
-0.000204437
-0.000200129
-0.000195245
-0.000189625
-0.000183146
-0.000177167
-2.99736e-05
-2.35699e-05
-1.66762e-05
-1.07668e-05
-5.7072e-06
-1.32071e-06
2.43208e-06
5.55656e-06
8.06328e-06
9.96706e-06
1.12829e-05
1.20257e-05
1.22104e-05
1.18521e-05
1.09665e-05
9.56971e-06
7.67839e-06
5.30989e-06
2.48206e-06
-7.86419e-07
-4.47634e-06
-8.56765e-06
-1.30398e-05
-1.78714e-05
-2.30406e-05
-2.85248e-05
-3.43009e-05
-4.03453e-05
-4.66338e-05
-5.31419e-05
-5.98446e-05
-6.67164e-05
-7.37319e-05
-8.08651e-05
-8.80898e-05
-9.53797e-05
-0.000102709
-0.00011005
-0.000117377
-0.000124664
-0.000131884
-0.000139012
-0.00014602
-0.000152884
-0.000159579
-0.000166078
-0.000172358
-0.000178395
-0.000184164
-0.000189644
-0.000194811
-0.000199643
-0.000204121
-0.000208223
-0.00021193
-0.000215223
-0.000218085
-0.000220497
-0.000222445
-0.000223911
-0.000224883
-0.000225344
-0.000225283
-0.000224687
-0.000223542
-0.000221838
-0.000219563
-0.000216705
-0.000213252
-0.000209198
-0.000204541
-0.000199246
-0.000193137
-0.000186084
-0.00017957
-2.36872e-05
-1.68695e-05
-9.54401e-06
-3.28722e-06
2.04417e-06
6.63976e-06
1.0543e-05
1.37614e-05
1.63085e-05
1.82025e-05
1.94622e-05
2.01062e-05
2.01531e-05
1.96219e-05
1.85317e-05
1.69021e-05
1.47531e-05
1.21051e-05
8.97887e-06
5.39563e-06
1.37706e-06
-3.05463e-06
-7.87691e-06
-1.30667e-05
-1.86005e-05
-2.44545e-05
-3.06045e-05
-3.70257e-05
-4.36933e-05
-5.05819e-05
-5.7666e-05
-6.49198e-05
-7.23174e-05
-7.98324e-05
-8.74385e-05
-9.51092e-05
-0.000102818
-0.000110538
-0.000118243
-0.000125907
-0.000133502
-0.000141002
-0.000148382
-0.000155615
-0.000162675
-0.000169536
-0.000176174
-0.000182564
-0.000188681
-0.000194501
-0.000200001
-0.000205157
-0.000209947
-0.000214349
-0.000218342
-0.000221905
-0.000225017
-0.00022766
-0.000229814
-0.000231461
-0.000232584
-0.000233165
-0.000233189
-0.000232638
-0.000231498
-0.000229754
-0.00022739
-0.000224393
-0.000220748
-0.000216446
-0.000211483
-0.000205822
-0.000199275
-0.000191702
-0.000184701
-1.42177e-05
-7.05117e-06
6.29173e-07
7.15718e-06
1.26847e-05
1.74133e-05
2.13905e-05
2.46262e-05
2.7137e-05
2.89444e-05
3.00708e-05
3.05384e-05
3.03695e-05
2.95863e-05
2.82117e-05
2.62684e-05
2.37797e-05
2.07689e-05
1.72595e-05
1.32753e-05
8.84047e-06
3.97926e-06
-1.28374e-06
-6.9238e-06
-1.29159e-05
-1.92347e-05
-2.58549e-05
-3.27507e-05
-3.98964e-05
-4.72658e-05
-5.48328e-05
-6.2571e-05
-7.04538e-05
-7.84548e-05
-8.65472e-05
-9.47041e-05
-0.000102899
-0.000111104
-0.000119293
-0.000127439
-0.000135516
-0.000143495
-0.000151351
-0.000159057
-0.000166587
-0.000173913
-0.000181011
-0.000187854
-0.000194416
-0.000200673
-0.0002066
-0.000212172
-0.000217364
-0.000222153
-0.000226516
-0.00023043
-0.000233872
-0.000236821
-0.000239255
-0.000241153
-0.000242494
-0.00024326
-0.000243429
-0.000242984
-0.000241906
-0.000240177
-0.000237779
-0.000234695
-0.000230909
-0.000226409
-0.000221191
-0.000215213
-0.000208276
-0.000200232
-0.000192786
-1.29235e-06
6.15455e-06
1.41073e-05
2.08231e-05
2.6462e-05
3.12368e-05
3.51996e-05
3.83632e-05
4.07474e-05
4.23775e-05
4.32795e-05
4.34791e-05
4.30023e-05
4.1875e-05
4.01234e-05
3.77735e-05
3.48517e-05
3.13841e-05
2.73971e-05
2.2917e-05
1.79702e-05
1.25832e-05
6.78247e-06
5.94375e-07
-5.95441e-06
-1.28374e-05
-2.00279e-05
-2.74992e-05
-3.52245e-05
-4.31771e-05
-5.13301e-05
-5.96566e-05
-6.81294e-05
-7.67217e-05
-8.54061e-05
-9.41556e-05
-0.000102943
-0.000111741
-0.000120522
-0.000129259
-0.000137924
-0.000146491
-0.000154931
-0.000163217
-0.000171323
-0.000179221
-0.000186884
-0.000194284
-0.000201396
-0.000208193
-0.000214647
-0.000220733
-0.000226425
-0.000231698
-0.000236525
-0.000240881
-0.000244742
-0.000248084
-0.000250881
-0.000253111
-0.000254751
-0.000255777
-0.000256167
-0.000255899
-0.000254952
-0.000253305
-0.000250937
-0.000247829
-0.000243961
-0.00023932
-0.000233901
-0.000227659
-0.000220382
-0.000211914
-0.000204061
1.53857e-05
2.30365e-05
3.11693e-05
3.79783e-05
4.36316e-05
4.8353e-05
5.21995e-05
5.51875e-05
5.73406e-05
5.8688e-05
5.92599e-05
5.90859e-05
5.81957e-05
5.66188e-05
5.4385e-05
5.15235e-05
4.8064e-05
4.40353e-05
3.94668e-05
3.4387e-05
2.88249e-05
2.28087e-05
1.63668e-05
9.52736e-06
2.31842e-06
-5.23222e-06
-1.30967e-05
-2.12475e-05
-2.9657e-05
-3.82976e-05
-4.71418e-05
-5.61622e-05
-6.53313e-05
-7.46215e-05
-8.40054e-05
-9.34554e-05
-0.000102944
-0.000112443
-0.000121925
-0.000131363
-0.000140728
-0.000149992
-0.000159127
-0.000168105
-0.000176898
-0.000185478
-0.000193817
-0.000201886
-0.000209656
-0.000217101
-0.000224192
-0.0002309
-0.000237198
-0.000243057
-0.000248451
-0.000253352
-0.000257731
-0.000261563
-0.000264821
-0.000267477
-0.000269506
-0.000270881
-0.000271577
-0.00027157
-0.000270835
-0.000269347
-0.000267084
-0.000264022
-0.00026014
-0.000255423
-0.000249864
-0.000243413
-0.000235848
-0.000227004
-0.000218782
3.6143e-05
4.39087e-05
5.21137e-05
5.8906e-05
6.44614e-05
6.90138e-05
7.26259e-05
7.53185e-05
7.71199e-05
7.80638e-05
7.81846e-05
7.75164e-05
7.60928e-05
7.39474e-05
7.11133e-05
6.76235e-05
6.35105e-05
5.88064e-05
5.35429e-05
4.77513e-05
4.14624e-05
3.47068e-05
2.75144e-05
1.9915e-05
1.19378e-05
3.61191e-06
-5.03394e-06
-1.39713e-05
-2.31718e-05
-3.26074e-05
-4.22501e-05
-5.20719e-05
-6.20451e-05
-7.21418e-05
-8.23341e-05
-9.25942e-05
-0.000102894
-0.000113206
-0.000123501
-0.000133751
-0.000143928
-0.000154003
-0.000163948
-0.000173733
-0.000183329
-0.000192707
-0.000201838
-0.000210691
-0.000219238
-0.000227447
-0.00023529
-0.000242736
-0.000249755
-0.000256316
-0.000262391
-0.000267948
-0.000272957
-0.000277389
-0.000281213
-0.000284401
-0.000286922
-0.000288747
-0.000289849
-0.000290197
-0.000289766
-0.000288527
-0.000286453
-0.00028352
-0.000279701
-0.00027498
-0.000269347
-0.00026275
-0.000254954
-0.000245784
-0.000237233
6.13393e-05
6.91127e-05
7.72617e-05
8.39071e-05
8.92326e-05
9.34811e-05
9.67216e-05
9.89806e-05
0.000100292
0.000100693
0.000100226
9.89267e-05
9.6835e-05
9.39879e-05
9.04226e-05
8.61755e-05
8.12823e-05
7.57781e-05
6.96972e-05
6.30734e-05
5.59395e-05
4.83279e-05
4.02701e-05
3.17972e-05
2.29396e-05
1.37274e-05
4.19005e-06
-5.64332e-06
-1.5744e-05
-2.60833e-05
-3.66332e-05
-4.73653e-05
-5.82517e-05
-6.92644e-05
-8.03753e-05
-9.15564e-05
-0.00010278
-0.000114016
-0.000125238
-0.000136417
-0.000147522
-0.000158526
-0.000169399
-0.00018011
-0.00019063
-0.000200928
-0.000210973
-0.000220735
-0.000230181
-0.00023928
-0.000248
-0.000256309
-0.000264174
-0.000271563
-0.000278442
-0.000284779
-0.000290541
-0.000295695
-0.000300207
-0.000304044
-0.000307174
-0.000309564
-0.000311182
-0.000311995
-0.000311973
-0.000311083
-0.000309297
-0.000306585
-0.000302918
-0.000298275
-0.000292645
-0.00028597
-0.000278005
-0.000268567
-0.00025973
9.13685e-05
9.90192e-05
0.000106957
0.0001133
0.00011824
0.000122026
0.000124735
0.000126401
0.000127062
0.000126764
0.000125552
0.000123469
0.000120558
0.000116862
0.000112421
0.000107276
0.000101465
9.50265e-05
8.79974e-05
8.04136e-05
7.23098e-05
6.37201e-05
5.46773e-05
4.52137e-05
3.53605e-05
2.51485e-05
1.46075e-05
3.76715e-06
-7.34375e-06
-1.86964e-05
-3.02628e-05
-4.20145e-05
-5.39237e-05
-6.59625e-05
-7.8103e-05
-9.03169e-05
-0.000102576
-0.000114853
-0.000127117
-0.000139341
-0.000151494
-0.000163548
-0.000175471
-0.000187233
-0.000198803
-0.000210148
-0.000221238
-0.000232038
-0.000242517
-0.000252639
-0.000262372
-0.00027168
-0.000280528
-0.00028888
-0.000296702
-0.000303957
-0.000310608
-0.000316619
-0.000321953
-0.000326574
-0.000330444
-0.000333528
-0.000335789
-0.00033719
-0.000337696
-0.000337273
-0.000335886
-0.0003335
-0.000330085
-0.000325614
-0.000320074
-0.000313403
-0.000305342
-0.000295701
-0.000286628
0.000126658
0.000134026
0.000141564
0.000147419
0.000151787
0.000154926
0.000156918
0.000157806
0.000157636
0.000156459
0.000154326
0.000151288
0.000147391
0.000142683
0.000137209
0.000131013
0.000124136
0.00011662
0.000108504
9.98258e-05
9.06221e-05
8.0928e-05
7.07775e-05
6.02036e-05
4.9238e-05
3.79117e-05
2.62547e-05
1.42964e-05
2.06563e-06
-1.04093e-05
-2.31006e-05
-3.59804e-05
-4.90213e-05
-6.21956e-05
-7.5476e-05
-8.88345e-05
-0.000102243
-0.000115674
-0.000129098
-0.000142487
-0.000155809
-0.000169036
-0.000182136
-0.000195078
-0.000207829
-0.000220357
-0.000232628
-0.000244607
-0.000256259
-0.000267549
-0.00027844
-0.000288894
-0.000298874
-0.000308341
-0.000317256
-0.00032558
-0.000333272
-0.000340293
-0.000346601
-0.000352155
-0.000356915
-0.000360839
-0.000363886
-0.000366017
-0.000367189
-0.000367365
-0.000366504
-0.000364568
-0.000361521
-0.000357333
-0.000351984
-0.000345409
-0.000337337
-0.00032757
-0.000318322
0.000167665
0.000174555
0.000181464
0.000186608
0.000190186
0.000192458
0.000193518
0.000193416
0.000192205
0.000189947
0.000186697
0.000182512
0.000177445
0.000171547
0.000164869
0.000157457
0.000149357
0.000140612
0.000131264
0.000121352
0.000110915
9.99877e-05
8.86053e-05
7.68008e-05
6.46062e-05
5.20521e-05
3.91681e-05
2.5983e-05
1.25249e-05
-1.17879e-06
-1.51009e-05
-2.92147e-05
-4.34935e-05
-5.79107e-05
-7.24395e-05
-8.70529e-05
-0.000101723
-0.000116424
-0.000131125
-0.000145798
-0.000160413
-0.00017494
-0.000189347
-0.000203603
-0.000217673
-0.000231524
-0.00024512
-0.000258426
-0.000271403
-0.000284015
-0.000296221
-0.000307982
-0.000319257
-0.000330004
-0.00034018
-0.000349741
-0.000358644
-0.000366844
-0.000374295
-0.000380953
-0.00038677
-0.000391701
-0.0003957
-0.00039872
-0.000400717
-0.000401644
-0.000401458
-0.000400114
-0.000397569
-0.000393791
-0.000388754
-0.000382385
-0.000374403
-0.000364603
-0.000355254
0.00021487
0.000221043
0.000227046
0.000231212
0.00023374
0.000234892
0.000234769
0.000233432
0.000230945
0.000227376
0.000222789
0.000217245
0.000210806
0.000203525
0.000195458
0.000186656
0.000177166
0.000167034
0.000156304
0.000145015
0.000133208
0.000120918
0.00010818
9.50264e-05
8.14886e-05
6.75962e-05
5.33779e-05
3.88611e-05
2.40727e-05
9.03845e-06
-6.21584e-06
-2.1665e-05
-3.72838e-05
-5.30471e-05
-6.89294e-05
-8.49048e-05
-0.000100947
-0.000117029
-0.000133124
-0.000149202
-0.000165235
-0.000181191
-0.000197039
-0.000212745
-0.000228277
-0.000243599
-0.000258673
-0.000273463
-0.000287927
-0.000302027
-0.00031572
-0.000328963
-0.000341711
-0.000353919
-0.00036554
-0.000376526
-0.000386828
-0.000396398
-0.000405184
-0.000413135
-0.0004202
-0.000426327
-0.000431464
-0.000435559
-0.00043856
-0.000440415
-0.000441074
-0.000440486
-0.000438603
-0.000435383
-0.000430797
-0.000424765
-0.000416995
-0.000407274
-0.000397912
0.00026877
0.000273934
0.000278699
0.000281568
0.000282741
0.000282475
0.00028088
0.000278029
0.000273998
0.00026886
0.00026269
0.000255556
0.000247523
0.000238651
0.000228999
0.00021862
0.000207566
0.000195883
0.000183617
0.000170808
0.000157496
0.000143715
0.0001295
0.000114883
9.98925e-05
8.45572e-05
6.89036e-05
5.29571e-05
3.67422e-05
2.02827e-05
3.60197e-06
-1.32771e-05
-3.03315e-05
-4.7538e-05
-6.48732e-05
-8.23132e-05
-9.98331e-05
-0.000117408
-0.00013501
-0.000152613
-0.000170187
-0.000187702
-0.000205126
-0.000222427
-0.000239569
-0.000256515
-0.000273228
-0.000289668
-0.000305794
-0.000321561
-0.000336925
-0.000351839
-0.000366256
-0.000380125
-0.000393395
-0.000406013
-0.000417926
-0.000429078
-0.000439413
-0.000448873
-0.000457402
-0.00046494
-0.000471429
-0.000476809
-0.000481021
-0.000484007
-0.000485708
-0.000486066
-0.000485026
-0.00048254
-0.00047857
-0.000473028
-0.000465614
-0.000456107
-0.000446841
0.000329861
0.000333668
0.000336793
0.000337989
0.000337449
0.000335419
0.00033202
0.000327338
0.000321458
0.000314466
0.000306443
0.000297462
0.000287596
0.000276909
0.000265463
0.000253315
0.000240517
0.000227117
0.00021316
0.000198688
0.000183737
0.000168343
0.000152537
0.000136348
0.000119804
0.00010293
8.575e-05
6.82856e-05
5.05585e-05
3.25892e-05
1.43977e-05
-3.99601e-06
-2.25721e-05
-4.13102e-05
-6.01898e-05
-7.91894e-05
-9.82866e-05
-0.000117458
-0.000136679
-0.000155922
-0.000175161
-0.000194366
-0.000213504
-0.000232544
-0.000251449
-0.000270182
-0.000288703
-0.000306971
-0.000324941
-0.000342569
-0.000359804
-0.000376598
-0.000392896
-0.000408647
-0.000423791
-0.000438273
-0.000452031
-0.000465004
-0.000477129
-0.000488343
-0.000498579
-0.000507772
-0.000515855
-0.000522761
-0.000528422
-0.000532771
-0.000535742
-0.000537268
-0.000537284
-0.000535734
-0.000532572
-0.000527702
-0.000520814
-0.000511682
-0.000502643
0.000398627
0.000400656
0.000401667
0.000400745
0.000398076
0.000393883
0.0003883
0.000381426
0.000373359
0.000364194
0.000354019
0.000342915
0.00033096
0.000318221
0.000304764
0.000290646
0.000275921
0.000260637
0.000244838
0.000228564
0.000211849
0.000194727
0.000177225
0.000159369
0.000141183
0.000122688
0.000103903
8.48467e-05
6.55356e-05
4.59861e-05
2.62137e-05
6.23418e-06
-1.39367e-05
-3.42826e-05
-5.47866e-05
-7.54305e-05
-9.61954e-05
-0.00011706
-0.000138003
-0.000159
-0.000180023
-0.000201046
-0.000222037
-0.000242963
-0.000263788
-0.000284475
-0.000304981
-0.000325265
-0.000345278
-0.000364972
-0.000384296
-0.000403194
-0.00042161
-0.000439484
-0.000456753
-0.000473355
-0.000489221
-0.000504283
-0.000518471
-0.000531712
-0.000543933
-0.000555058
-0.000565013
-0.00057372
-0.000581103
-0.000587084
-0.000591587
-0.000594536
-0.000595855
-0.000595479
-0.000593351
-0.000589366
-0.000583206
-0.000574642
-0.000565984
0.000475514
0.000475268
0.000473604
0.000470047
0.000464763
0.000457951
0.00044975
0.000440279
0.000429647
0.000417957
0.000405307
0.000391783
0.000377465
0.000362427
0.000346733
0.000330443
0.00031361
0.000296279
0.000278493
0.000260288
0.000241696
0.000222744
0.000203456
0.000183853
0.000163954
0.000143773
0.000123325
0.000102622
8.16745e-05
6.04934e-05
3.90886e-05
1.74703e-05
-4.35096e-06
-2.63639e-05
-4.85565e-05
-7.09152e-05
-9.3425e-05
-0.000116069
-0.000138828
-0.00016168
-0.000184602
-0.000207568
-0.000230547
-0.000253507
-0.000276413
-0.000299225
-0.000321902
-0.000344398
-0.000366664
-0.000388647
-0.000410293
-0.000431542
-0.000452332
-0.000472597
-0.000492269
-0.000511277
-0.000529545
-0.000546997
-0.000563555
-0.000579135
-0.000593655
-0.000607031
-0.000619175
-0.000630001
-0.000639419
-0.000647341
-0.000653681
-0.000658349
-0.000661259
-0.000662333
-0.000661504
-0.000658654
-0.000653461
-0.000645692
-0.000637603
0.000560909
0.000557799
0.000552799
0.000546002
0.000537548
0.000527595
0.000516291
0.00050377
0.000490155
0.000475558
0.000460083
0.000443821
0.000426856
0.000409262
0.000391105
0.000372441
0.000353322
0.000333791
0.000313885
0.000293635
0.000273068
0.000252205
0.000231062
0.000209656
0.000187995
0.000166088
0.000143942
0.000121562
9.89506e-05
7.61114e-05
5.30472e-05
2.9761e-05
6.25633e-06
-1.74609e-05
-4.13855e-05
-6.55096e-05
-8.98236e-05
-0.000114315
-0.00013897
-0.00016377
-0.000188694
-0.000213719
-0.000238817
-0.000263957
-0.000289103
-0.000314216
-0.000339254
-0.000364169
-0.00038891
-0.000413421
-0.000437642
-0.000461509
-0.000484954
-0.000507905
-0.000530287
-0.000552019
-0.000573019
-0.000593201
-0.000612475
-0.000630748
-0.000647927
-0.000663914
-0.000678611
-0.000691918
-0.000703733
-0.000713956
-0.000722484
-0.000729217
-0.000734053
-0.000736902
-0.00073768
-0.00073626
-0.000732317
-0.000725614
-0.000718316
0.000655088
0.000648426
0.000639324
0.000628591
0.000616333
0.00060265
0.000587696
0.000571624
0.000554568
0.00053665
0.000517977
0.000498644
0.000478737
0.000458327
0.00043748
0.000416248
0.000394678
0.000372808
0.000350666
0.000328279
0.000305663
0.000282831
0.000259793
0.000236553
0.000213112
0.00018947
0.000165623
0.000141567
0.000117295
9.2803e-05
6.80834e-05
4.31291e-05
1.79354e-05
-7.49395e-06
-3.31665e-05
-5.90816e-05
-8.52355e-05
-0.000111622
-0.000138233
-0.000165054
-0.000192069
-0.000219259
-0.000246597
-0.000274055
-0.000301599
-0.00032919
-0.000356783
-0.000384332
-0.00041178
-0.00043907
-0.000466136
-0.00049291
-0.000519318
-0.000545279
-0.000570711
-0.000595523
-0.000619624
-0.000642916
-0.000665298
-0.000686665
-0.00070691
-0.000725923
-0.00074359
-0.000759796
-0.000774426
-0.000787362
-0.000798488
-0.000807686
-0.000814839
-0.000819841
-0.000822591
-0.000822948
-0.000820586
-0.000815271
-0.000809026
0.000758189
0.000747174
0.000733082
0.000717617
0.000700834
0.00068276
0.00066355
0.000643375
0.000622383
0.000600699
0.000578434
0.000555685
0.000532534
0.000509051
0.000485295
0.000461313
0.000437144
0.000412815
0.000388348
0.000363757
0.000339049
0.000314225
0.000289283
0.000264217
0.000239014
0.000213664
0.000188151
0.000162458
0.000136569
0.000110466
8.41314e-05
5.75396e-05
3.0696e-05
3.5873e-06
-2.38173e-05
-5.1518e-05
-7.95179e-05
-0.000107819
-0.000136419
-0.000165312
-0.000194487
-0.000223927
-0.000253613
-0.000283518
-0.000313609
-0.000343849
-0.000374194
-0.000404593
-0.000434991
-0.000465325
-0.000495526
-0.000525519
-0.000555222
-0.000584548
-0.000613404
-0.00064169
-0.000669303
-0.000696133
-0.000722065
-0.00074698
-0.000770756
-0.000793265
-0.000814379
-0.000833966
-0.000851891
-0.00086802
-0.000882216
-0.000894345
-0.00090427
-0.000911866
-0.000917013
-0.000919553
-0.000919165
-0.000915616
-0.000910736
0.000870144
0.000853851
0.000833753
0.00081265
0.000790533
0.00076733
0.000743195
0.000718318
0.000692855
0.000666936
0.00064067
0.000614151
0.000587456
0.000560649
0.000533779
0.000506884
0.00047999
0.000453114
0.000426263
0.000399438
0.000372631
0.000345831
0.000319019
0.000292175
0.000265274
0.000238288
0.000211188
0.000183943
0.000156524
0.000128898
0.000101035
7.2906e-05
4.44897e-05
1.57538e-05
-1.3324e-05
-4.2761e-05
-7.25723e-05
-0.000102769
-0.000133359
-0.000164342
-0.000195715
-0.000227469
-0.000259588
-0.000292049
-0.000324824
-0.000357876
-0.000391162
-0.000424631
-0.000458226
-0.000491879
-0.000525518
-0.000559061
-0.000592419
-0.000625496
-0.000658188
-0.000690384
-0.000721967
-0.000752812
-0.000782791
-0.000811767
-0.000839599
-0.000866144
-0.000891251
-0.000914768
-0.000936542
-0.000956415
-0.00097423
-0.000989829
-0.00100306
-0.00101376
-0.0010218
-0.001027
-0.00102905
-0.00102771
-0.00102456
0.000990618
0.00096799
0.000940726
0.000912965
0.000884609
0.000855464
0.000825676
0.00079545
0.000764949
0.000734301
0.000703613
0.000672969
0.000642438
0.00061207
0.000581903
0.000551959
0.000522248
0.00049277
0.000463516
0.000434469
0.000405603
0.000376889
0.00034829
0.000319769
0.000291283
0.000262786
0.000234233
0.000205577
0.00017677
0.000147766
0.000118518
8.89823e-05
5.91179e-05
2.88843e-05
-1.75436e-06
-3.28302e-05
-6.43709e-05
-9.63994e-05
-0.000128933
-0.000161984
-0.000195557
-0.000229651
-0.000264256
-0.000299357
-0.000334929
-0.000370938
-0.000407344
-0.000444095
-0.000481132
-0.000518386
-0.000555778
-0.000593221
-0.000630618
-0.000667861
-0.000704837
-0.000741421
-0.00077748
-0.000812875
-0.000847457
-0.000881072
-0.000913558
-0.000944748
-0.000974471
-0.00100255
-0.00102881
-0.00105306
-0.00107513
-0.00109483
-0.00111197
-0.00112638
-0.0011379
-0.00114632
-0.00115133
-0.00115273
-0.00115175
0.00111892
0.00108876
0.00105303
0.00101746
0.000981871
0.000945895
0.000909665
0.000873399
0.000837265
0.000801382
0.000765845
0.000730728
0.000696083
0.000661942
0.000628323
0.000595229
0.000562648
0.000530558
0.00049893
0.000467722
0.000436889
0.000406378
0.000376133
0.000346093
0.000316195
0.000286374
0.000256563
0.000226697
0.000196709
0.000166533
0.000136105
0.000105363
7.42477e-05
4.27035e-05
1.06777e-05
-2.18773e-05
-5.50043e-05
-8.87405e-05
-0.000123117
-0.000158158
-0.000193879
-0.000230291
-0.000267393
-0.000305177
-0.000343625
-0.000382708
-0.000422388
-0.000462617
-0.000503333
-0.000544465
-0.000585931
-0.000627635
-0.000669474
-0.000711329
-0.000753073
-0.000794566
-0.00083566
-0.000876194
-0.000916002
-0.000954904
-0.000992717
-0.00102925
-0.0010643
-0.00109766
-0.00112913
-0.0011585
-0.00118555
-0.00121007
-0.00123185
-0.00125067
-0.00126634
-0.00127862
-0.00128724
-0.001292
-0.00129369
0.00125394
0.00121489
0.00116922
0.0011246
0.00108067
0.0010369
0.000993384
0.000950353
0.000907967
0.000866333
0.000825529
0.000785605
0.00074659
0.000708494
0.000671307
0.000635004
0.000599547
0.000564888
0.000530968
0.000497719
0.00046507
0.000432942
0.000401253
0.000369918
0.000338848
0.000307957
0.000277154
0.000246351
0.000215459
0.000184391
0.000153062
0.000121391
8.92963e-05
5.67038e-05
2.35418e-05
-1.02561e-05
-4.47504e-05
-7.99957e-05
-0.000116039
-0.000152921
-0.000190673
-0.000229316
-0.000268863
-0.000309318
-0.000350669
-0.000392898
-0.000435969
-0.000479839
-0.000524447
-0.000569721
-0.000615574
-0.000661906
-0.000708603
-0.000755536
-0.000802563
-0.000849529
-0.000896265
-0.000942591
-0.000988314
-0.00103323
-0.00107713
-0.00111979
-0.00116097
-0.00120045
-0.00123797
-0.0012733
-0.00130618
-0.00133636
-0.0013636
-0.00138764
-0.00140825
-0.00142517
-0.00143814
-0.00144698
-0.00145195
0.00139397
0.00134453
0.00128731
0.00123224
0.0011788
0.0011262
0.00107451
0.00102396
0.000974692
0.000926795
0.000880316
0.000835275