/*--------------------------------*- C++ -*----------------------------------*\
  =========                 |
  \\      /  F ield         | OpenFOAM: The Open Source CFD Toolbox
   \\    /   O peration     | Website:  https://openfoam.org
    \\  /    A nd           | Version:  12
     \\/     M anipulation  |
\*---------------------------------------------------------------------------*/
FoamFile
{
    format      ascii;
    class       surfaceScalarField;
    location    "5";
    object      phi;
}
// * * * * * * * * * * * * * * * * * * * * * * * * * * * * * * * * * * * * * //

dimensions      [0 3 -1 0 0 0 0];

internalField   nonuniform List<scalar> 
11100
(
-1.36754e-11
1.37299e-11
-2.9969e-11
1.6296e-11
-3.48379e-11
4.8711e-12
-2.11332e-11
-1.37038e-11
1.44813e-11
-3.56131e-11
7.30686e-11
-5.85862e-11
1.54275e-10
-8.12056e-11
2.56873e-10
-1.02597e-10
3.79117e-10
-1.22242e-10
5.1897e-10
-1.39853e-10
6.7426e-10
-1.55289e-10
8.42766e-10
-1.68505e-10
1.02228e-09
-1.79517e-10
1.21066e-09
-1.88377e-10
1.40582e-09
-1.95162e-10
1.60579e-09
-1.99964e-10
1.80867e-09
-2.02882e-10
2.01269e-09
-2.0402e-10
2.21617e-09
-2.03483e-10
2.41754e-09
-2.01375e-10
2.61534e-09
-1.97798e-10
2.8082e-09
-1.92855e-10
2.99484e-09
-1.86642e-10
3.17409e-09
-1.79256e-10
3.34488e-09
-1.70789e-10
3.50621e-09
-1.61329e-10
3.65717e-09
-1.50965e-10
3.79695e-09
-1.3978e-10
3.92481e-09
-1.27854e-10
4.04007e-09
-1.15268e-10
4.14217e-09
-1.02097e-10
4.23059e-09
-8.84174e-11
4.30489e-09
-7.4302e-11
4.36471e-09
-5.98231e-11
4.40976e-09
-4.50518e-11
4.43982e-09
-3.00586e-11
4.45473e-09
-1.49135e-11
4.45441e-09
3.13537e-13
4.43886e-09
1.55523e-11
4.40813e-09
3.07324e-11
4.36234e-09
4.57823e-11
4.30171e-09
6.06296e-11
4.22651e-09
7.52007e-11
4.13709e-09
8.94206e-11
4.03387e-09
1.03213e-10
3.91737e-09
1.16498e-10
3.78818e-09
1.29196e-10
3.64695e-09
1.41224e-10
3.49445e-09
1.52497e-10
3.33152e-09
1.62928e-10
3.15909e-09
1.72427e-10
2.97819e-09
1.80902e-10
2.78992e-09
1.88259e-10
2.59552e-09
1.94402e-10
2.39628e-09
1.99232e-10
2.19363e-09
2.02649e-10
1.98908e-09
2.04551e-10
1.78424e-09
2.04837e-10
1.58083e-09
2.03404e-10
1.38067e-09
2.00153e-10
1.18569e-09
1.94985e-10
9.97874e-10
1.8781e-10
8.19323e-10
1.78547e-10
6.52188e-10
1.67133e-10
4.98656e-10
1.53529e-10
3.60916e-10
1.37738e-10
2.41085e-10
1.19828e-10
1.41122e-10
9.99613e-11
6.26667e-11
7.84528e-11
6.81696e-12
5.58482e-11
-2.62334e-11
3.30487e-11
-3.77279e-11
1.14939e-11
-3.11826e-11
-6.54613e-12
-1.39398e-11
-1.72433e-11
-1.39399e-11
4.45065e-14
1.36862e-11
1.9976e-11
-3.63513e-12
7.46224e-11
-4.97748e-11
1.73205e-10
-1.12286e-10
3.2062e-10
-1.83027e-10
5.18604e-10
-2.5657e-10
7.66617e-10
-3.29219e-10
1.0625e-09
-3.9848e-10
1.40297e-09
-4.62715e-10
1.78401e-09
-5.20886e-10
2.2011e-09
-5.72377e-10
2.64946e-09
-6.16871e-10
3.1242e-09
-6.54255e-10
3.62039e-09
-6.84565e-10
4.13317e-09
-7.07939e-10
4.65779e-09
-7.24582e-10
5.18966e-09
-7.3475e-10
5.72437e-09
-7.38731e-10
6.25771e-09
-7.3683e-10
6.78571e-09
-7.29369e-10
7.30458e-09
-7.16672e-10
7.8108e-09
-6.99067e-10
8.30103e-09
-6.76879e-10
8.77221e-09
-6.50431e-10
9.22146e-09
-6.20041e-10
9.64615e-09
-5.86019e-10
1.00439e-08
-5.48671e-10
1.04124e-08
-5.08295e-10
1.07497e-08
-4.65183e-10
1.10541e-08
-4.1962e-10
1.13238e-08
-3.71886e-10
1.15577e-08
-3.22257e-10
1.17544e-08
-2.71002e-10
1.1913e-08
-2.18389e-10
1.20326e-08
-1.64681e-10
1.21127e-08
-1.10141e-10
1.21528e-08
-5.50291e-11
1.21527e-08
3.92117e-13
1.21124e-08
5.58612e-11
1.2032e-08
1.11114e-10
1.19119e-08
1.65885e-10
1.17526e-08
2.19904e-10
1.1555e-08
2.72896e-10
1.13198e-08
3.24585e-10
1.10483e-08
3.74685e-10
1.07419e-08
4.22908e-10
1.04022e-08
4.68958e-10
1.00308e-08
5.12533e-10
9.63001e-09
5.53327e-10
9.20192e-09
5.91025e-10
8.74904e-09
6.25308e-10
8.27409e-09
6.5585e-10
7.78003e-09
6.82324e-10
7.27003e-09
7.04397e-10
6.74753e-09
7.21735e-10
6.21618e-09
7.34005e-10
5.67985e-09
7.40877e-10
5.14266e-09
7.42028e-10
4.60892e-09
7.37146e-10
4.08313e-09
7.25939e-10
3.56998e-09
7.08141e-10
3.07426e-09
6.83524e-10
2.60089e-09
6.51918e-10
2.1548e-09
6.13227e-10
1.74086e-09
5.67469e-10
1.36379e-09
5.1481e-10
1.02798e-09
4.55635e-10
7.37313e-10
3.90628e-10
4.94862e-10
3.20904e-10
3.02533e-10
2.48177e-10
1.60568e-10
1.75013e-10
6.6893e-11
1.05168e-10
1.62435e-11
4.4103e-11
-1.03115e-12
3.10115e-14
-1.49712e-11
2.35782e-11
-9.89197e-12
1.02761e-10
-8.28182e-11
2.44654e-10
-1.91669e-10
4.54012e-10
-3.21644e-10
7.3319e-10
-4.62205e-10
1.08232e-09
-6.05703e-10
1.49966e-09
-7.46561e-10
1.98195e-09
-8.80767e-10
2.52473e-09
-1.0055e-09
3.12268e-09
-1.11883e-09
3.76984e-09
-1.21953e-09
4.45983e-09
-1.30686e-09
5.18604e-09
-1.38047e-09
5.94175e-09
-1.44027e-09
6.72023e-09
-1.48642e-09
7.51484e-09
-1.51919e-09
8.31909e-09
-1.539e-09
9.1267e-09
-1.54634e-09
9.93162e-09
-1.54175e-09
1.07281e-08
-1.5258e-09
1.15105e-08
-1.49913e-09
1.22738e-08
-1.46234e-09
1.3013e-08
-1.41608e-09
1.37235e-08
-1.36097e-09
1.44011e-08
-1.29766e-09
1.50419e-08
-1.22676e-09
1.56421e-08
-1.14889e-09
1.61985e-08
-1.06467e-09
1.6708e-08
-9.74685e-10
1.71679e-08
-8.79538e-10
1.75758e-08
-7.79806e-10
1.79296e-08
-6.76063e-10
1.82275e-08
-5.68876e-10
1.84679e-08
-4.58803e-10
1.86497e-08
-3.46403e-10
1.87717e-08
-2.32228e-10
1.88336e-08
-1.16831e-10
1.88347e-08
-7.65749e-13
1.87752e-08
1.15414e-10
1.86551e-08
2.31148e-10
1.84751e-08
3.45873e-10
1.8236e-08
4.59018e-10
1.79389e-08
5.70005e-10
1.75853e-08
6.78245e-10
1.71768e-08
7.83141e-10
1.67156e-08
8.84087e-10
1.62041e-08
9.80463e-10
1.5645e-08
1.07164e-09
1.50414e-08
1.15699e-09
1.43966e-08
1.23584e-09
1.37143e-08
1.30756e-09
1.29987e-08
1.37148e-09
1.22541e-08
1.42694e-09
1.14852e-08
1.47326e-09
1.06972e-08
1.50979e-09
9.89532e-09
1.53587e-09
9.08532e-09
1.55088e-09
8.27315e-09
1.5542e-09
7.46502e-09
1.54527e-09
6.6674e-09
1.52357e-09
5.88689e-09
1.48865e-09
5.13026e-09
1.44016e-09
4.40432e-09
1.37787e-09
3.71582e-09
1.30173e-09
3.07138e-09
1.21191e-09
2.47731e-09
1.10888e-09
1.93945e-09
9.93494e-10
1.46296e-09
8.67121e-10
1.05204e-09
7.31821e-10
7.09666e-10
5.90557e-10
4.37199e-10
4.47481e-10
2.34077e-10
3.08292e-10
9.74428e-11
1.80738e-10
2.20602e-11
7.54138e-11
7.08844e-12
4.7389e-11
-5.72808e-11
1.88006e-10
-2.23435e-10
4.21029e-10
-4.24693e-10
7.45469e-10
-6.46086e-10
1.15949e-09
-8.76227e-10
1.66017e-09
-1.10638e-09
2.24346e-09
-1.32985e-09
2.90428e-09
-1.54159e-09
3.63667e-09
-1.73789e-09
4.43393e-09
-1.91609e-09
5.2888e-09
-2.07441e-09
6.19364e-09
-2.2117e-09
7.14052e-09
-2.32736e-09
8.12144e-09
-2.42119e-09
9.12833e-09
-2.49331e-09
1.01532e-08
-2.54408e-09
1.11883e-08
-2.57406e-09
1.22259e-08
-2.58393e-09
1.32586e-08
-2.5745e-09
1.42795e-08
-2.54663e-09
1.52816e-08
-2.50127e-09
1.62586e-08
-2.43936e-09
1.72044e-08
-2.36191e-09
1.81134e-08
-2.2699e-09
1.89801e-08
-2.16435e-09
1.97996e-08
-2.04626e-09
2.05673e-08
-1.91663e-09
2.12791e-08
-1.77644e-09
2.19311e-08
-1.62667e-09
2.25198e-08
-1.46829e-09
2.30423e-08
-1.30226e-09
2.34957e-08
-1.12952e-09
2.38779e-08
-9.51007e-10
2.41867e-08
-7.67653e-10
2.44207e-08
-5.80383e-10
2.45786e-08
-3.9012e-10
2.46596e-08
-1.97785e-10
2.46631e-08
-4.30142e-12
2.45891e-08
1.89402e-10
2.44379e-08
3.8239e-10
2.421e-08
5.7372e-10
2.39066e-08
7.62437e-10
2.3529e-08
9.47575e-10
2.30791e-08
1.12815e-09
2.25591e-08
1.30318e-09
2.19716e-08
1.47164e-09
2.13195e-08
1.63251e-09
2.06064e-08
1.78476e-09
1.98361e-08
1.92732e-09
1.90128e-08
2.05915e-09
1.81412e-08
2.17915e-09
1.72264e-08
2.28627e-09
1.62739e-08
2.37942e-09
1.52896e-08
2.45754e-09
1.42798e-08
2.51958e-09
1.32512e-08
2.56452e-09
1.22107e-08
2.59137e-09
1.11657e-08
2.59919e-09
1.01239e-08
2.58714e-09
9.09298e-09
2.55446e-09
8.08113e-09
2.5005e-09
7.09647e-09
2.42482e-09
6.1472e-09
2.32714e-09
5.24144e-09
2.20749e-09
4.38716e-09
2.06621e-09
3.59197e-09
1.90407e-09
2.86305e-09
1.72242e-09
2.20693e-09
1.52324e-09
1.62935e-09
1.30941e-09
1.13506e-09
1.08485e-09
7.27685e-10
8.54854e-10
4.09664e-10
6.26314e-10
1.82237e-10
4.08165e-10
4.56951e-11
2.11957e-10
5.27832e-11
6.88058e-11
-1.26086e-10
2.66384e-10
-4.21014e-10
5.85424e-10
-7.43733e-10
1.01949e-09
-1.08015e-09
1.56233e-09
-1.41906e-09
2.20745e-09
-1.75151e-09
2.94798e-09
-2.07038e-09
3.77654e-09
-2.37015e-09
4.68526e-09
-2.64662e-09
5.66587e-09
-2.8967e-09
6.70971e-09
-3.11825e-09
7.80788e-09
-3.30987e-09
8.95132e-09
-3.4708e-09
1.01309e-08
-3.60078e-09
1.13375e-08
-3.69994e-09
1.25622e-08
-3.76875e-09
1.37961e-08
-3.80793e-09
1.50305e-08
-3.8184e-09
1.62573e-08
-3.80122e-09
1.74682e-08
-3.75759e-09
1.86557e-08
-3.68877e-09
1.98125e-08
-3.59611e-09
2.09315e-08
-3.48098e-09
2.20064e-08
-3.34478e-09
2.3031e-08
-3.18893e-09
2.39996e-08
-3.01484e-09
2.49069e-08
-2.82394e-09
2.57481e-08
-2.61765e-09
2.65188e-08
-2.39735e-09
2.72149e-08
-2.16446e-09
2.7833e-08
-1.92034e-09
2.83698e-08
-1.66637e-09
2.88227e-08
-1.40391e-09
2.91894e-08
-1.13431e-09
2.94679e-08
-8.58927e-10
2.96569e-08
-5.79101e-10
2.97553e-08
-2.96183e-10
2.97625e-08
-1.15253e-11
2.96784e-08
2.73512e-10
2.95032e-08
5.57559e-10
2.92377e-08
8.39231e-10
2.8883e-08
1.11713e-09
2.84408e-08
1.38984e-09
2.7913e-08
1.65592e-09
2.73023e-08
1.91391e-09
2.66116e-08
2.16235e-09
2.58443e-08
2.39973e-09
2.50046e-08
2.62454e-09
2.40966e-08
2.83526e-09
2.31254e-08
3.03033e-09
2.20964e-08
3.20822e-09
2.10153e-08
3.36737e-09
1.98884e-08
3.50626e-09
1.87226e-08
3.62335e-09
1.7525e-08
3.71717e-09
1.63033e-08
3.78626e-09
1.50654e-08
3.82926e-09
1.38197e-08
3.84489e-09
1.25749e-08
3.83195e-09
1.13399e-08
3.78945e-09
1.01239e-08
3.71653e-09
8.93608e-09
3.61259e-09
7.78592e-09
3.47731e-09
6.68266e-09
3.31074e-09
5.63551e-09
3.11336e-09
4.65342e-09
2.88617e-09
3.74501e-09
2.63083e-09
2.91844e-09
2.3498e-09
2.18138e-09
2.04647e-09
1.54087e-09
1.72536e-09
1.00339e-09
1.39234e-09
5.74871e-10
1.05484e-09
2.60916e-10
7.22121e-10
6.71677e-11
4.05706e-10
1.19951e-10
8.74179e-11
-2.13504e-10
3.35651e-10
-6.69248e-10
7.32368e-10
-1.14045e-09
1.26653e-09
-1.61431e-09
1.9278e-09
-2.08034e-09
2.70623e-09
-2.52994e-09
3.59198e-09
-2.95612e-09
4.57517e-09
-3.35334e-09
5.64585e-09
-3.7173e-09
6.79397e-09
-4.04482e-09
8.00937e-09
-4.33365e-09
9.28185e-09
-4.58235e-09
1.06012e-08
-4.79015e-09
1.19573e-08
-4.95685e-09
1.334e-08
-5.0827e-09
1.47396e-08
-5.16834e-09
1.61464e-08
-5.21471e-09
1.7551e-08
-5.22301e-09
1.89444e-08
-5.19462e-09
2.03179e-08
-5.13107e-09
2.16631e-08
-5.03401e-09
2.29722e-08
-4.90517e-09
2.42375e-08
-4.74635e-09
2.54521e-08
-4.55938e-09
2.66093e-08
-4.34612e-09
2.77029e-08
-4.10842e-09
2.87271e-08
-3.84816e-09
2.96767e-08
-3.56722e-09
3.05467e-08
-3.26744e-09
3.1333e-08
-2.95067e-09
3.20314e-08
-2.61876e-09
3.26385e-08
-2.27353e-09
3.31514e-08
-1.9168e-09
3.35675e-08
-1.55038e-09
3.38846e-08
-1.17608e-09
3.41012e-08
-7.95697e-10
3.42161e-08
-4.11056e-10
3.42285e-08
-2.39722e-11
3.41383e-08
3.63722e-10
3.39457e-08
7.5018e-10
3.36514e-08
1.13354e-09
3.32566e-08
1.5119e-09
3.2763e-08
1.88336e-09
3.21729e-08
2.24599e-09
3.1489e-08
2.59781e-09
3.07145e-08
2.93684e-09
2.98532e-08
3.26105e-09
2.89093e-08
3.56843e-09
2.78877e-08
3.85691e-09
2.67936e-08
4.12442e-09
2.56329e-08
4.36889e-09
2.4412e-08
4.58826e-09
2.31377e-08
4.78049e-09
2.18175e-08
4.94354e-09
2.04592e-08
5.07546e-09
1.90712e-08
5.17433e-09
1.76621e-08
5.23837e-09
1.62411e-08
5.26587e-09
1.48177e-08
5.25531e-09
1.34018e-08
5.20536e-09
1.20034e-08
5.11491e-09
1.06328e-08
4.98317e-09
9.30043e-09
4.80969e-09
8.01673e-09
4.59444e-09
6.79214e-09
4.33793e-09
5.63705e-09
4.04125e-09
4.56168e-09
3.70621e-09
3.57604e-09
3.33544e-09
2.68993e-09
2.93258e-09
1.91293e-09
2.50235e-09
1.25448e-09
2.05078e-09
7.24e-10
1.58532e-09
3.31106e-10
1.11502e-09
8.59948e-11
6.50816e-10
2.05947e-10
1.03488e-10
-3.16991e-10
3.9613e-10
-9.61889e-10
8.61698e-10
-1.60602e-09
1.48535e-09
-2.23797e-09
2.25325e-09
-2.84823e-09
3.15221e-09
-3.4289e-09
4.16958e-09
-3.97349e-09
5.29301e-09
-4.47678e-09
6.51043e-09
-4.93472e-09
7.80995e-09
-5.34434e-09
9.17984e-09
-5.70354e-09
1.06086e-08
-6.01108e-09
1.20848e-08
-6.26635e-09
1.35973e-08
-6.46938e-09
1.51353e-08
-6.62066e-09
1.6688e-08
-6.72111e-09
1.82453e-08
-6.772e-09
1.97972e-08
-6.77485e-09
2.1334e-08
-6.73142e-09
2.28465e-08
-6.64364e-09
2.43261e-08
-6.51357e-09
2.57643e-08
-6.34339e-09
2.71533e-08
-6.13532e-09
2.84855e-08
-5.89165e-09
2.97541e-08
-5.61471e-09
3.09525e-08
-5.30682e-09
3.20747e-08
-4.97033e-09
3.3115e-08
-4.60757e-09
3.40685e-08
-4.22087e-09
3.49303e-08
-3.81255e-09
3.56965e-08
-3.38493e-09
3.63633e-08
-2.9403e-09
3.69274e-08
-2.48096e-09
3.73862e-08
-2.00918e-09
3.77374e-08
-1.52725e-09
3.79791e-08
-1.03746e-09
3.81102e-08
-5.42098e-10
3.81297e-08
-4.34795e-11
3.80373e-08
4.56075e-10
3.78333e-08
9.54217e-10
3.75182e-08
1.44858e-09
3.70934e-08
1.93675e-09
3.65604e-08
2.41629e-09
3.59217e-08
2.88475e-09
3.51799e-08
3.33962e-09
3.43383e-08
3.77835e-09
3.3401e-08
4.19838e-09
3.23723e-08
4.59712e-09
3.12573e-08
4.97194e-09
3.00615e-08
5.32022e-09
2.8791e-08
5.63932e-09
2.74527e-08
5.92661e-09
2.60537e-08
6.1795e-09
2.46018e-08
6.39541e-09
2.31054e-08
6.57184e-09
2.15733e-08
6.7064e-09
2.00149e-08
6.79679e-09
1.84399e-08
6.84086e-09
1.68585e-08
6.83667e-09
1.52814e-08
6.7825e-09
1.37193e-08
6.67692e-09
1.21837e-08
6.51883e-09
1.06858e-08
6.30756e-09
9.23733e-09
6.0429e-09
7.85006e-09
5.7252e-09
6.53583e-09
5.35547e-09
5.30658e-09
4.93545e-09
4.17427e-09
4.46775e-09
3.15091e-09
3.95593e-09
2.24864e-09
3.40462e-09
1.47974e-09
2.81967e-09
8.56849e-10
2.20821e-09
3.93092e-10
1.57877e-09
1.02422e-10
9.41486e-10
3.0837e-10
1.17423e-10
-4.34414e-10
4.48899e-10
-1.29336e-09
9.75064e-10
-2.13218e-09
1.67792e-09
-2.94082e-09
2.54056e-09
-3.71087e-09
3.54697e-09
-4.43532e-09
4.68189e-09
-5.1084e-09
5.93064e-09
-5.72553e-09
7.27908e-09
-6.28317e-09
8.71354e-09
-6.77879e-09
1.02207e-08
-7.21074e-09
1.17878e-08
-7.57815e-09
1.34023e-08
-7.88081e-09
1.5052e-08
-8.11912e-09
1.67254e-08
-8.29399e-09
1.8411e-08
-8.40674e-09
2.0098e-08
-8.45905e-09
2.17761e-08
-8.45288e-09
2.34351e-08
-8.39044e-09
2.50656e-08
-8.27411e-09
2.66584e-08
-8.10644e-09
2.82051e-08
-7.89004e-09
2.96974e-08
-7.62765e-09
3.11278e-08
-7.32203e-09
3.24891e-08
-6.97597e-09
3.37746e-08
-6.59229e-09
3.49781e-08
-6.17382e-09
3.60938e-08
-5.72336e-09
3.71167e-08
-5.24372e-09
3.80419e-08
-4.7377e-09
3.8865e-08
-4.20809e-09
3.95824e-08
-3.65764e-09
4.01905e-08
-3.08913e-09
4.06867e-08
-2.50531e-09
4.10684e-08
-1.90894e-09
4.13337e-08
-1.3028e-09
4.14813e-08
-6.89649e-10
4.15101e-08
-7.22966e-11
4.14197e-08
5.46436e-10
4.12103e-08
1.1637e-09
4.08822e-08
1.77659e-09
4.04368e-08
2.3822e-09
3.98755e-08
2.97754e-09
3.92007e-08
3.55961e-09
3.8415e-08
4.12533e-09
3.75217e-08
4.67161e-09
3.65248e-08
5.19529e-09
3.54288e-08
5.69319e-09
3.42386e-08
6.1621e-09
3.296e-08
6.59879e-09
3.15993e-08
7.00003e-09
3.01634e-08
7.36257e-09
2.86597e-08
7.68322e-09
2.70962e-08
7.95882e-09
2.54818e-08
8.18629e-09
2.38255e-08
8.36266e-09
2.21373e-08
8.48508e-09
2.04272e-08
8.55088e-09
1.87063e-08
8.55761e-09
1.69857e-08
8.50308e-09
1.52772e-08
8.38543e-09
1.35929e-08
8.20317e-09
1.19452e-08
7.95523e-09
1.0347e-08
7.6411e-09
8.8114e-09
7.26081e-09
7.35177e-09
6.8151e-09
5.98178e-09
6.30544e-09
4.71536e-09
5.73417e-09
3.56671e-09
5.10457e-09
2.5504e-09
4.42093e-09
1.6814e-09
3.68867e-09
9.75207e-10
2.9144e-09
4.48007e-10
2.10597e-09
1.16866e-10
1.27263e-09
4.25237e-10
1.29603e-10
-5.64018e-10
4.95092e-10
-1.65885e-09
1.07443e-09
-2.71152e-09
1.84689e-09
-3.71328e-09
2.79291e-09
-4.65688e-09
3.89391e-09
-5.53632e-09
5.13228e-09
-6.34677e-09
6.4912e-09
-7.08444e-09
7.9546e-09
-7.74656e-09
9.5071e-09
-8.3313e-09
1.1134e-08
-8.83762e-09
1.28211e-08
-9.26527e-09
1.45549e-08
-9.61463e-09
1.63225e-08
-9.88667e-09
1.81113e-08
-1.00828e-08
1.99096e-08
-1.0205e-08
2.17059e-08
-1.02554e-08
2.34896e-08
-1.02365e-08
2.52502e-08
-1.01511e-08
2.69781e-08
-1.0002e-08
2.86641e-08
-9.79241e-09
3.02995e-08
-9.52539e-09
3.1876e-08
-9.20418e-09
3.3386e-08
-8.83206e-09
3.48224e-08
-8.41232e-09
3.61784e-08
-7.94828e-09
3.74478e-08
-7.44323e-09
3.86249e-08
-6.90047e-09
3.97045e-08
-6.32327e-09
4.06817e-08
-5.7149e-09
4.15522e-08
-5.07859e-09
4.23122e-08
-4.41758e-09
4.29581e-08
-3.73509e-09
4.34872e-08
-3.03433e-09
4.38967e-08
-2.31852e-09
4.41849e-08
-1.59089e-09
4.43499e-08
-8.54699e-10
4.43908e-08
-1.13215e-10
4.4307e-08
6.30249e-10
4.40984e-08
1.37234e-09
4.37653e-08
2.10966e-09
4.33088e-08
2.83876e-09
4.27302e-08
3.55612e-09
4.20317e-08
4.25818e-09
4.12157e-08
4.94131e-09
4.02855e-08
5.60181e-09
3.92449e-08
6.23595e-09
3.80981e-08
6.83994e-09
3.68503e-08
7.40994e-09
3.55071e-08
7.94208e-09
3.40746e-08
8.43249e-09
3.25599e-08
8.8773e-09
3.09705e-08
9.27264e-09
2.93146e-08
9.61473e-09
2.7601e-08
9.89984e-09
2.58394e-08
1.01243e-08
2.40397e-08
1.02848e-08
2.22128e-08
1.03778e-08
2.03699e-08
1.04005e-08
1.85229e-08
1.035e-08
1.66845e-08
1.02239e-08
1.48674e-08
1.00202e-08
1.30852e-08
9.73737e-09
1.1352e-08
9.37431e-09
9.68221e-09
8.93064e-09
8.09069e-09
8.40662e-09
6.59285e-09
7.80328e-09
5.20453e-09
7.12249e-09
3.94207e-09
6.36703e-09
2.82232e-09
5.54069e-09
1.86271e-09
4.64828e-09
1.08136e-09
3.69576e-09
4.97121e-10
2.69021e-09
1.29739e-10
1.64001e-09
5.54974e-10
1.4032e-10
-7.04338e-10
5.35623e-10
-2.05415e-09
1.16144e-09
-3.33734e-09
1.99459e-09
-4.54643e-09
3.01308e-09
-5.67537e-09
4.19607e-09
-6.71931e-09
5.52378e-09
-7.67447e-09
6.97743e-09
-8.53809e-09
8.53921e-09
-9.30834e-09
1.01922e-08
-9.98426e-09
1.19203e-08
-1.05657e-08
1.37082e-08
-1.10532e-08
1.55415e-08
-1.14479e-08
1.74065e-08
-1.17516e-08
1.929e-08
-1.19663e-08
2.11797e-08
-1.20948e-08
2.30641e-08
-1.21397e-08
2.4932e-08
-1.21044e-08
2.6773e-08
-1.19921e-08
2.85774e-08
-1.18064e-08
3.03359e-08
-1.15509e-08
3.20399e-08
-1.12294e-08
3.36812e-08
-1.08455e-08
3.52524e-08
-1.04032e-08
3.67463e-08
-9.90624e-09
3.81564e-08
-9.35837e-09
3.94766e-08
-8.76341e-09
4.07013e-08
-8.12511e-09
4.18252e-08
-7.4472e-09
4.28437e-08
-6.73339e-09
4.37525e-08
-5.98735e-09
4.45476e-08
-5.21274e-09
4.52258e-08
-4.41322e-09
4.57839e-08
-3.59242e-09
4.62193e-08
-2.75398e-09
4.653e-08
-1.90159e-09
4.67143e-08
-1.03892e-09
4.67708e-08
-1.69705e-10
4.66988e-08
7.02288e-10
4.64979e-08
1.57323e-09
4.61683e-08
2.43922e-09
4.57108e-08
3.29632e-09
4.51264e-08
4.14047e-09
4.44171e-08
4.96756e-09
4.3585e-08
5.77341e-09
4.26331e-08
6.55372e-09
4.15649e-08
7.30416e-09
4.03845e-08
8.0203e-09
3.90968e-08
8.69767e-09
3.77072e-08
9.33174e-09
3.62217e-08
9.91796e-09
3.46473e-08
1.04518e-08
3.29913e-08
1.09286e-08
3.12622e-08
1.13439e-08
2.94687e-08
1.16933e-08
2.76205e-08
1.19725e-08
2.57281e-08
1.21772e-08
2.38024e-08
1.23035e-08
2.18553e-08
1.23476e-08
1.98993e-08
1.2306e-08
1.79475e-08
1.21757e-08
1.60138e-08
1.1954e-08
1.41126e-08
1.16386e-08
1.22591e-08
1.12278e-08
1.04691e-08
1.07206e-08
8.75907e-09
1.01167e-08
7.14595e-09
9.41641e-09
5.64749e-09
8.62097e-09
4.28202e-09
7.73251e-09
3.06857e-09
6.75414e-09
2.02688e-09
5.68997e-09
1.17745e-09
4.54519e-09
5.41565e-10
3.32609e-09
1.41385e-10
2.04019e-09
6.96359e-10
1.49766e-10
-8.54103e-10
5.71078e-10
-2.47547e-09
1.23712e-09
-4.00338e-09
2.1224e-09
-5.4317e-09
3.20267e-09
-6.75564e-09
4.45498e-09
-7.97162e-09
5.85758e-09
-9.07707e-09
7.38992e-09
-1.00704e-08
9.03259e-09
-1.0951e-08
1.07673e-08
-1.1719e-08
1.25767e-08
-1.23752e-08
1.44447e-08
-1.29212e-08
1.6356e-08
-1.33592e-08
1.82961e-08
-1.36917e-08
2.02516e-08
-1.39219e-08
2.22099e-08
-1.40531e-08
2.41591e-08
-1.40889e-08
2.60882e-08
-1.40334e-08
2.79867e-08
-1.38906e-08
2.98449e-08
-1.36646e-08
3.16538e-08
-1.33599e-08
3.34051e-08
-1.29806e-08
3.50907e-08
-1.25312e-08
3.67034e-08
-1.2016e-08
3.82364e-08
-1.14393e-08
3.96835e-08
-1.08054e-08
4.10386e-08
-1.01186e-08
4.22965e-08
-9.38303e-09
4.34522e-08
-8.60288e-09
4.45011e-08
-7.78227e-09
4.5439e-08
-6.92525e-09
4.62621e-08
-6.03588e-09
4.69671e-08
-5.11818e-09
4.75509e-08
-4.17617e-09
4.80108e-08
-3.21389e-09
4.83446e-08
-2.23539e-09
4.85504e-08
-1.24474e-09
4.86268e-08
-2.46081e-10
4.85727e-08
7.56395e-10
4.83875e-08
1.75842e-09
4.8071e-08
2.75565e-09
4.76237e-08
3.74364e-09
4.70463e-08
4.71786e-09
4.63403e-08
5.67364e-09
4.55074e-08
6.60625e-09
4.45503e-08
7.51083e-09
4.34721e-08
8.3824e-09
4.22764e-08
9.21593e-09
4.09679e-08
1.00063e-08
3.95514e-08
1.07482e-08
3.8033e-08
1.14364e-08
3.64191e-08
1.20656e-08
3.47171e-08
1.26306e-08
3.29351e-08
1.3126e-08
3.10819e-08
1.35465e-08
2.91673e-08
1.38871e-08
2.72019e-08
1.41427e-08
2.51968e-08
1.43086e-08
2.31643e-08
1.43801e-08
2.11173e-08
1.4353e-08
1.90697e-08
1.42233e-08
1.70361e-08
1.39876e-08
1.50319e-08
1.36428e-08
1.30733e-08
1.31863e-08
1.11775e-08
1.26165e-08
9.36225e-09
1.19319e-08
7.64628e-09
1.11324e-08
6.04903e-09
1.02182e-08
4.59079e-09
9.19075e-09
3.29266e-09
8.05227e-09
2.17655e-09
6.80608e-09
1.26522e-09
5.45653e-09
5.82245e-10
4.00907e-09
1.52075e-10
2.47036e-09
8.48434e-10
1.58025e-10
-1.01213e-09
6.01685e-10
-2.91913e-09
1.30179e-09
-4.70349e-09
2.23056e-09
-6.36047e-09
3.36162e-09
-7.8867e-09
4.67001e-09
-9.28001e-09
6.13218e-09
-1.05392e-08
7.72597e-09
-1.16642e-08
9.43056e-09
-1.26556e-08
1.12264e-08
-1.35149e-08
1.30954e-08
-1.42441e-08
1.50204e-08
-1.48462e-08
1.69855e-08
-1.53243e-08
1.8976e-08
-1.56823e-08
2.09782e-08
-1.59241e-08
2.29793e-08
-1.60542e-08
2.49675e-08
-1.60771e-08
2.69318e-08
-1.59977e-08
2.88621e-08
-1.58209e-08
3.0749e-08
-1.55515e-08
3.25839e-08
-1.51947e-08
3.43586e-08
-1.47553e-08
3.60657e-08
-1.42383e-08
3.76984e-08
-1.36487e-08
3.92503e-08
-1.29912e-08
4.07155e-08
-1.22706e-08
4.20885e-08
-1.14916e-08
4.33643e-08
-1.06588e-08
4.45382e-08
-9.77679e-09
4.56059e-08
-8.84996e-09
4.65634e-08
-7.88275e-09
4.7407e-08
-6.87953e-09
4.81335e-08
-5.84464e-09
4.87397e-08
-4.78243e-09
4.9223e-08
-3.69723e-09
4.95811e-08
-2.59343e-09
4.98117e-08
-1.47542e-09
4.99133e-08
-3.47683e-10
4.98845e-08
7.85216e-10
4.97243e-08
1.91863e-09
4.94321e-08
3.04781e-09
4.90079e-08
4.16786e-09
4.84519e-08
5.27377e-09
4.77651e-08
6.36041e-09
4.69489e-08
7.42248e-09
4.60052e-08
8.45455e-09
4.49365e-08
9.45105e-09
4.37461e-08
1.04063e-08
4.2438e-08
1.13144e-08
4.10166e-08
1.21695e-08
3.94875e-08
1.29655e-08
3.78567e-08
1.36964e-08
3.61313e-08
1.4356e-08
3.43191e-08
1.49382e-08
3.24287e-08
1.54368e-08
3.04699e-08
1.58459e-08
2.84531e-08
1.61595e-08
2.63898e-08
1.63719e-08
2.42924e-08
1.64775e-08
2.21743e-08
1.64711e-08
2.00499e-08
1.63478e-08
1.79344e-08
1.61031e-08
1.58442e-08
1.57329e-08
1.37967e-08
1.52339e-08
1.181e-08
1.46032e-08
9.90336e-09
1.38385e-08
8.09711e-09
1.29386e-08
6.41238e-09
1.19029e-08
4.87134e-09
1.07318e-08
3.49707e-09
9.42654e-09
2.31362e-09
7.98954e-09
1.34592e-09
6.42423e-09
6.19814e-10
4.73517e-09
1.62003e-10
2.92817e-09
1.01044e-09
1.65079e-10
-1.17721e-09
6.2729e-10
-3.38134e-09
1.35497e-09
-5.43118e-09
2.31804e-09
-7.32354e-09
3.48802e-09
-9.05668e-09
4.83805e-09
-1.063e-08
6.34291e-09
-1.20441e-08
7.97898e-09
-1.33003e-08
9.72424e-09
-1.44009e-08
1.15582e-08
-1.53488e-08
1.34618e-08
-1.61478e-08
1.54176e-08
-1.6802e-08
1.74093e-08
-1.7316e-08
1.94218e-08
-1.76949e-08
2.14417e-08
-1.79439e-08
2.34561e-08
-1.80686e-08
2.54536e-08
-1.80746e-08
2.74236e-08
-1.79677e-08
2.93565e-08
-1.77537e-08
3.12433e-08
-1.74384e-08
3.3076e-08
-1.70274e-08
3.48472e-08
-1.65265e-08
3.655e-08
-1.59412e-08
3.81783e-08
-1.52769e-08
3.97262e-08
-1.45391e-08
4.11884e-08
-1.37329e-08
4.25601e-08
-1.28633e-08
4.38366e-08
-1.19354e-08
4.50138e-08
-1.09539e-08
4.60875e-08
-9.92373e-09
4.70542e-08
-8.84945e-09
4.79104e-08
-7.7357e-09
4.86528e-08
-6.58706e-09
4.92784e-08
-5.4081e-09
4.97846e-08
-4.20338e-09
5.01686e-08
-2.97752e-09
5.04284e-08
-1.73518e-09
5.05618e-08
-4.81089e-10
5.05671e-08
7.79898e-10
5.04429e-08
2.04282e-09
5.01881e-08
3.30257e-09
4.9802e-08
4.55389e-09
4.92844e-08
5.79134e-09
4.86355e-08
7.00932e-09
4.78559e-08
8.20203e-09
4.6947e-08
9.36349e-09
4.59105e-08
1.04875e-08
4.4749e-08
1.15678e-08
4.34657e-08
1.25977e-08
4.20644e-08
1.35707e-08
4.05501e-08
1.44798e-08
3.89282e-08
1.53183e-08
3.72052e-08
1.6079e-08
3.53886e-08
1.67548e-08
3.34866e-08
1.73388e-08
3.15087e-08
1.78238e-08
2.94651e-08
1.8203e-08
2.73675e-08
1.84695e-08
2.52283e-08
1.86166e-08
2.30613e-08
1.86381e-08
2.08812e-08
1.85279e-08
1.87039e-08
1.82803e-08
1.65466e-08
1.78902e-08
1.44275e-08
1.7353e-08
1.2366e-08
1.66646e-08
1.03827e-08
1.58218e-08
8.49937e-09
1.4822e-08
6.73883e-09
1.36635e-08
5.12505e-09
1.23456e-08
3.68312e-09
1.08685e-08
2.43915e-09
9.2335e-09
1.4203e-09
7.44307e-09
6.54673e-10
5.50079e-09
1.71293e-10
3.41155e-09
1.18173e-09
1.70806e-10
-1.34801e-09
6.47353e-10
-3.85789e-09
1.39537e-09
-6.17919e-09
2.3824e-09
-8.31057e-09
3.57789e-09
-1.02522e-08
4.95316e-09
-1.20053e-08
6.48145e-09
-1.35724e-08
8.13786e-09
-1.49567e-08
9.89937e-09
-1.61624e-08
1.17447e-08
-1.71942e-08
1.36544e-08
-1.80575e-08
1.56106e-08
-1.87581e-08
1.7597e-08
-1.93024e-08
1.95988e-08
-1.96966e-08
2.16025e-08
-1.99476e-08
2.3596e-08
-2.00621e-08
2.55684e-08
-2.0047e-08
2.75097e-08
-1.99091e-08
2.94111e-08
-1.96551e-08
3.12645e-08
-1.92918e-08
3.30627e-08
-1.88256e-08
3.47991e-08
-1.82629e-08
3.64679e-08
-1.76099e-08
3.80636e-08
-1.68726e-08
3.95813e-08
-1.60568e-08
4.10165e-08
-1.5168e-08
4.23649e-08
-1.42117e-08
4.36227e-08
-1.31931e-08
4.47861e-08
-1.21173e-08
4.58516e-08
-1.09893e-08
4.68159e-08
-9.81377e-09
4.76758e-08
-8.59561e-09
4.84283e-08
-7.33949e-09
4.90702e-08
-6.05009e-09
4.9599e-08
-4.73211e-09
5.00117e-08
-3.39027e-09
5.03059e-08
-2.02939e-09
5.04792e-08
-6.54367e-10
5.05293e-08
7.29761e-10
5.04543e-08
2.1178e-09
5.02525e-08
3.50438e-09
4.99225e-08
4.88394e-09
4.94631e-08
6.25068e-09
4.88739e-08
7.59859e-09
4.81545e-08
8.9214e-09
4.73054e-08
1.02126e-08
4.63275e-08
1.14654e-08
4.52223e-08
1.26729e-08
4.39923e-08
1.38278e-08
4.26403e-08
1.49226e-08
4.11704e-08
1.59497e-08
3.95873e-08
1.69013e-08
3.78968e-08
1.77695e-08
3.61056e-08
1.8546e-08
3.42216e-08
1.92228e-08
3.22536e-08
1.97918e-08
3.02117e-08
2.02449e-08
2.81073e-08
2.05739e-08
2.59528e-08
2.07711e-08
2.37622e-08
2.08288e-08
2.15504e-08
2.07397e-08
1.9334e-08
2.04967e-08
1.71307e-08
2.00935e-08
1.49596e-08
1.95241e-08
1.28413e-08
1.8783e-08
1.07975e-08
1.78656e-08
8.85138e-09
1.6768e-08
7.02753e-09
1.54873e-08
5.35167e-09
1.40214e-08
3.85088e-09
1.23693e-08
2.55338e-09
1.0531e-08
1.48859e-09
8.50786e-09
6.86981e-10
6.3024e-09
1.80003e-10
3.91852e-09
1.36174e-09
1.74977e-10
-1.52299e-09
6.6093e-10
-4.34384e-09
1.4208e-09
-6.93906e-09
2.41972e-09
-9.30949e-09
3.62505e-09
-1.14575e-08
5.00639e-09
-1.33866e-08
6.53556e-09
-1.51016e-08
8.1866e-09
-1.66078e-08
9.93571e-09
-1.79115e-08
1.17612e-08
-1.90196e-08
1.36433e-08
-1.99396e-08
1.55643e-08
-2.06791e-08
1.75081e-08
-2.12462e-08
1.94604e-08
-2.16489e-08
2.14084e-08
-2.18957e-08
2.33409e-08
-2.19946e-08
2.52478e-08
-2.19539e-08
2.71201e-08
-2.17815e-08
2.89503e-08
-2.14852e-08
3.07313e-08
-2.10728e-08
3.24571e-08
-2.05514e-08
3.41224e-08
-1.99282e-08
3.57224e-08
-1.921e-08
3.72529e-08
-1.84031e-08
3.871e-08
-1.75139e-08
4.00902e-08
-1.65482e-08
4.13901e-08
-1.55117e-08
4.26067e-08
-1.44097e-08
4.3737e-08
-1.32476e-08
4.4778e-08
-1.20303e-08
4.57268e-08
-1.07626e-08
4.65807e-08
-9.44946e-09
4.73367e-08
-8.09545e-09
4.79918e-08
-6.70527e-09
4.85433e-08
-5.2836e-09
4.89882e-08
-3.83516e-09
4.93236e-08
-2.36477e-09
4.95466e-08
-8.77383e-10
4.96545e-08
6.21899e-10
4.96446e-08
2.12777e-09
4.95143e-08
3.63468e-09
4.92613e-08
5.13686e-09
4.88838e-08
6.62824e-09
4.83799e-08
8.10245e-09
4.77485e-08
9.55281e-09
4.69888e-08
1.09723e-08
4.61005e-08
1.23537e-08
4.50841e-08
1.36893e-08
4.39408e-08
1.49712e-08
4.26723e-08
1.6191e-08
4.12816e-08
1.73404e-08
3.97725e-08
1.84105e-08
3.81496e-08
1.93924e-08
3.64188e-08
2.02768e-08
3.45872e-08
2.10544e-08
3.26631e-08
2.1716e-08
3.0656e-08
2.2252e-08
2.85768e-08
2.26531e-08
2.64379e-08
2.291e-08
2.42531e-08
2.30136e-08
2.20375e-08
2.29552e-08
1.98081e-08
2.27262e-08
1.75831e-08
2.23186e-08
1.53824e-08
2.17248e-08
1.32275e-08
2.09379e-08
1.11414e-08
1.99517e-08
9.14865e-09
1.87608e-08
7.2754e-09
1.73606e-08
5.54923e-09
1.57476e-08
3.9992e-09
1.39193e-08
2.65572e-09
1.18745e-08
1.55056e-09
9.61302e-09
7.16668e-10
7.13629e-09
1.88127e-10
4.44706e-09
1.54986e-09
1.77249e-10
-1.70024e-09
6.66647e-10
-4.83323e-09
1.42819e-09
-7.7006e-09
2.42452e-09
-1.03058e-08
3.62096e-09
-1.26539e-08
4.98547e-09
-1.47512e-08
6.48868e-09
-1.66048e-08
8.10378e-09
-1.82228e-08
9.8065e-09
-1.96142e-08
1.1575e-08
-2.07881e-08
1.33897e-08
-2.17543e-08
1.52332e-08
-2.25227e-08
1.70903e-08
-2.31033e-08
1.89476e-08
-2.35062e-08
2.07933e-08
-2.37413e-08
2.26173e-08
-2.38186e-08
2.44111e-08
-2.37476e-08
2.61671e-08
-2.35375e-08
2.78793e-08
-2.31974e-08
2.95421e-08
-2.27356e-08
3.11513e-08
-2.21605e-08
3.27028e-08
-2.14798e-08
3.41936e-08
-2.07007e-08
3.56208e-08
-1.98303e-08
3.69819e-08
-1.8875e-08
3.82745e-08
-1.78409e-08
3.94967e-08
-1.67338e-08
4.06462e-08
-1.55592e-08
4.17209e-08
-1.43223e-08
4.27186e-08
-1.3028e-08
4.36371e-08
-1.16811e-08
4.44738e-08
-1.02862e-08
4.52261e-08
-8.84776e-09
4.58912e-08
-7.37036e-09
4.64661e-08
-5.85848e-09
4.69476e-08
-4.31665e-09
4.73324e-08
-2.74957e-09
4.76171e-08
-1.16206e-09
4.77982e-08
4.40845e-10
4.78721e-08
2.05385e-09
4.78354e-08
3.67138e-09
4.76848e-08
5.28754e-09
4.7417e-08
6.89609e-09
4.7029e-08
8.4904e-09
4.65184e-08
1.00635e-08
4.58829e-08
1.16078e-08
4.5121e-08
1.31157e-08
4.42315e-08
1.45788e-08
4.32142e-08
1.59885e-08
4.20696e-08
1.73357e-08
4.07991e-08
1.86109e-08
3.94051e-08
1.98045e-08
3.78912e-08
2.09063e-08
3.6262e-08
2.1906e-08
3.45236e-08
2.27929e-08
3.26832e-08
2.35564e-08
3.07497e-08
2.41855e-08
2.87334e-08
2.46694e-08
2.66461e-08
2.49972e-08
2.45015e-08
2.51583e-08
2.23147e-08
2.5142e-08
2.01028e-08
2.49382e-08
1.78843e-08
2.4537e-08
1.568e-08
2.39291e-08
1.35121e-08
2.31058e-08
1.14047e-08
2.20591e-08
9.3838e-09
2.07817e-08
7.4771e-09
1.92673e-08
5.71403e-09
1.75107e-08
4.12567e-09
1.55077e-08
2.74474e-09
1.32554e-08
1.60546e-09
1.07523e-08
7.43438e-10
7.99831e-09
1.95601e-10
4.9949e-09
1.74546e-09
1.77164e-10
-1.8774e-09
6.62675e-10
-5.31874e-09
1.41344e-09
-8.45136e-09
2.38959e-09
-1.1282e-08
3.55447e-09
-1.38188e-08
4.87459e-09
-1.60713e-08
6.31958e-09
-1.80498e-08
7.86211e-09
-1.97654e-08
9.47778e-09
-2.12299e-08
1.1145e-08
-2.24553e-08
1.28449e-08
-2.34541e-08
1.45609e-08
-2.42387e-08
1.6279e-08
-2.48213e-08
1.79871e-08