/*--------------------------------*- C++ -*----------------------------------*\
  =========                 |
  \\      /  F ield         | OpenFOAM: The Open Source CFD Toolbox
   \\    /   O peration     | Website:  https://openfoam.org
    \\  /    A nd           | Version:  12
     \\/     M anipulation  |
\*---------------------------------------------------------------------------*/
FoamFile
{
    format      ascii;
    class       volScalarField;
    location    "6.5";
    object      epsilon;
}
// * * * * * * * * * * * * * * * * * * * * * * * * * * * * * * * * * * * * * //

dimensions      [0 2 -3 0 0 0 0];

internalField   nonuniform List<scalar> 
18225
(
3.98486e-08
1.99138e-07
4.3581e-07
7.20011e-07
1.03844e-06
1.38323e-06
1.74884e-06
2.13095e-06
2.52605e-06
2.93122e-06
3.34398e-06
3.76225e-06
4.18425e-06
4.60852e-06
5.03387e-06
5.45933e-06
5.88417e-06
6.30788e-06
6.7301e-06
7.15067e-06
7.56954e-06
7.98683e-06
8.40274e-06
8.81757e-06
9.23168e-06
9.64547e-06
1.00594e-05
1.04739e-05
1.08895e-05
1.13066e-05
1.17255e-05
1.21467e-05
1.25704e-05
1.29969e-05
1.34264e-05
1.3859e-05
1.42946e-05
1.47334e-05
1.5175e-05
1.56194e-05
1.60662e-05
1.65152e-05
1.69658e-05
1.74176e-05
1.787e-05
1.83223e-05
1.87738e-05
1.92237e-05
1.96713e-05
2.01154e-05
2.05552e-05
2.09896e-05
2.14174e-05
2.18374e-05
2.22484e-05
2.2649e-05
2.30379e-05
2.34136e-05
2.37746e-05
2.41194e-05
2.44465e-05
2.47541e-05
2.50408e-05
2.53047e-05
2.55444e-05
2.5758e-05
2.59441e-05
2.6101e-05
2.62272e-05
2.63214e-05
2.63816e-05
2.64069e-05
2.63972e-05
2.63508e-05
2.62667e-05
2.61441e-05
2.59826e-05
2.57819e-05
2.55419e-05
2.52627e-05
2.49449e-05
2.45889e-05
2.41957e-05
2.37665e-05
2.33025e-05
2.28055e-05
2.22772e-05
2.17197e-05
2.11353e-05
2.05264e-05
1.98955e-05
1.92454e-05
1.85789e-05
1.78989e-05
1.72083e-05
1.65101e-05
1.58073e-05
1.51026e-05
1.4399e-05
1.36991e-05
1.30055e-05
1.23207e-05
1.16469e-05
1.09863e-05
1.03406e-05
9.71161e-06
9.10072e-06
8.5092e-06
7.93804e-06
7.38806e-06
6.85984e-06
6.35376e-06
5.87002e-06
5.40866e-06
4.96953e-06
4.55229e-06
4.15651e-06
3.78165e-06
3.42706e-06
3.09201e-06
2.77572e-06
2.47737e-06
2.19613e-06
1.93118e-06
1.68174e-06
1.44711e-06
1.22669e-06
1.02006e-06
8.26984e-07
6.47563e-07
4.82324e-07
3.32481e-07
2.00463e-07
9.14027e-08
1.82806e-08
1.99258e-07
1.62641e-07
2.44523e-07
3.66236e-07
5.10007e-07
6.68783e-07
8.38711e-07
1.01722e-06
1.20239e-06
1.3927e-06
1.58689e-06
1.78393e-06
1.98294e-06
2.18321e-06
2.38415e-06
2.58529e-06
2.78628e-06
2.98685e-06
3.18683e-06
3.38613e-06
3.58473e-06
3.78267e-06
3.98004e-06
4.17696e-06
4.37362e-06
4.57019e-06
4.76688e-06
4.9639e-06
5.16146e-06
5.35977e-06
5.559e-06
5.75932e-06
5.96088e-06
6.16378e-06
6.36811e-06
6.57391e-06
6.7812e-06
6.98994e-06
7.20007e-06
7.4115e-06
7.62408e-06
7.83764e-06
8.05198e-06
8.26684e-06
8.48194e-06
8.69698e-06
8.91159e-06
9.1254e-06
9.33798e-06
9.5489e-06
9.75765e-06
9.96374e-06
1.01666e-05
1.03657e-05
1.05603e-05
1.075e-05
1.09339e-05
1.11114e-05
1.12819e-05
1.14445e-05
1.15985e-05
1.17432e-05
1.18777e-05
1.20014e-05
1.21135e-05
1.2213e-05
1.22994e-05
1.23719e-05
1.24298e-05
1.24725e-05
1.2499e-05
1.25089e-05
1.25023e-05
1.24783e-05
1.24364e-05
1.23765e-05
1.22981e-05
1.22013e-05
1.2086e-05
1.19523e-05
1.18005e-05
1.16308e-05
1.14437e-05
1.12397e-05
1.10195e-05
1.07838e-05
1.05336e-05
1.02697e-05
9.99329e-06
9.70545e-06
9.40741e-06
9.10043e-06
8.78583e-06
8.46494e-06
8.13915e-06
7.80982e-06
7.47832e-06
7.146e-06
6.81416e-06
6.48408e-06
6.15695e-06
5.83392e-06
5.51603e-06
5.20427e-06
4.89951e-06
4.60254e-06
4.31404e-06
4.0346e-06
3.7647e-06
3.50471e-06
3.25492e-06
3.01553e-06
2.78662e-06
2.56823e-06
2.3603e-06
2.16267e-06
1.97515e-06
1.79749e-06
1.6294e-06
1.47054e-06
1.32056e-06
1.17908e-06
1.04573e-06
9.2013e-07
8.0194e-07
6.9085e-07
5.86617e-07
4.89083e-07
3.98226e-07
3.14223e-07
2.37587e-07
1.69474e-07
1.12582e-07
7.46261e-08
9.13644e-08
4.37148e-07
2.45415e-07
2.51139e-07
3.10947e-07
3.96496e-07
4.9753e-07
6.09113e-07
7.2838e-07
8.53429e-07
9.82882e-07
1.11568e-06
1.25099e-06
1.38811e-06
1.52649e-06
1.66568e-06
1.80533e-06
1.94515e-06
2.08495e-06
2.22457e-06
2.36395e-06
2.50305e-06
2.64189e-06
2.7805e-06
2.91898e-06
3.05742e-06
3.19595e-06
3.33471e-06
3.47381e-06
3.61342e-06
3.75364e-06
3.89462e-06
4.03645e-06
4.17922e-06
4.32301e-06
4.46786e-06
4.6138e-06
4.76082e-06
4.90889e-06
5.05796e-06
5.20796e-06
5.35876e-06
5.51024e-06
5.66223e-06
5.81455e-06
5.96698e-06
6.11929e-06
6.27121e-06
6.42245e-06
6.57271e-06
6.72165e-06
6.86891e-06
7.01412e-06
7.15687e-06
7.29674e-06
7.4333e-06
7.56607e-06
7.69459e-06
7.81836e-06
7.93688e-06
8.04963e-06
8.15608e-06
8.2557e-06
8.34797e-06
8.43233e-06
8.50826e-06
8.57525e-06
8.63277e-06
8.68035e-06
8.71753e-06
8.74386e-06
8.75868e-06
8.76206e-06
8.75368e-06
8.73311e-06
8.7001e-06
8.65448e-06
8.59614e-06
8.52503e-06
8.44119e-06
8.34471e-06
8.23579e-06
8.11466e-06
7.98166e-06
7.83719e-06
7.68173e-06
7.51581e-06
7.34004e-06
7.15511e-06
6.96174e-06
6.76072e-06
6.55286e-06
6.33904e-06
6.12014e-06
5.89708e-06
5.67078e-06
5.44217e-06
5.21216e-06
4.98167e-06
4.75156e-06
4.5227e-06
4.2959e-06
4.07191e-06
3.85146e-06
3.6352e-06
3.42373e-06
3.21758e-06
3.01722e-06
2.82306e-06
2.63541e-06
2.45456e-06
2.28071e-06
2.11398e-06
1.95446e-06
1.80217e-06
1.65709e-06
1.51912e-06
1.38816e-06
1.26403e-06
1.14655e-06
1.03551e-06
9.30682e-07
8.31831e-07
7.3872e-07
6.51125e-07
5.68848e-07
4.91728e-07
4.1967e-07
3.52676e-07
2.90901e-07
2.34755e-07
1.8512e-07
1.43867e-07
1.15352e-07
1.12274e-07
2.00033e-07
7.25376e-07
3.69547e-07
3.13137e-07
3.30265e-07
3.80025e-07
4.48385e-07
5.28835e-07
6.17785e-07
7.12997e-07
8.12941e-07
9.16505e-07
1.02284e-06
1.13129e-06
1.24131e-06
1.35249e-06
1.46448e-06
1.57704e-06
1.68995e-06
1.80309e-06
1.91635e-06
2.0297e-06
2.14311e-06
2.25663e-06
2.37028e-06
2.48414e-06
2.5983e-06
2.71284e-06
2.82786e-06
2.94347e-06
3.05975e-06
3.1768e-06
3.29468e-06
3.41347e-06
3.53319e-06
3.65388e-06
3.77555e-06
3.89817e-06
4.02171e-06
4.14611e-06
4.27128e-06
4.39712e-06
4.52349e-06
4.65025e-06
4.77722e-06
4.90421e-06
5.03099e-06
5.15733e-06
5.28297e-06
5.40764e-06
5.53103e-06
5.65283e-06
5.77271e-06
5.89032e-06
6.0053e-06
6.11727e-06
6.22583e-06
6.3306e-06
6.43114e-06
6.52706e-06
6.61791e-06
6.70327e-06
6.78271e-06
6.8558e-06
6.92212e-06
6.98125e-06
7.03279e-06
7.07635e-06
7.11155e-06
7.13804e-06
7.15542e-06
7.16325e-06
7.16186e-06
7.1507e-06
7.12958e-06
7.09833e-06
7.05687e-06
7.00515e-06
6.94317e-06
6.871e-06
6.78876e-06
6.69662e-06
6.59483e-06
6.48367e-06
6.36349e-06
6.2347e-06
6.09774e-06
5.95313e-06
5.8014e-06
5.64316e-06
5.47902e-06
5.30965e-06
5.13574e-06
4.95797e-06
4.77708e-06
4.59379e-06
4.40881e-06
4.22288e-06
4.03668e-06
3.85091e-06
3.66624e-06
3.48328e-06
3.30263e-06
3.12485e-06
2.95045e-06
2.77989e-06
2.61359e-06
2.45192e-06
2.2952e-06
2.14368e-06
1.99757e-06
1.85705e-06
1.72222e-06
1.59316e-06
1.46988e-06
1.35238e-06
1.2406e-06
1.13445e-06
1.03383e-06
9.38605e-07
8.48621e-07
7.63722e-07
6.83746e-07
6.08541e-07
5.3797e-07
4.71928e-07
4.10362e-07
3.53298e-07
3.00886e-07
2.53474e-07
2.11754e-07
1.77063e-07
1.52093e-07
1.43018e-07
1.68294e-07
3.30709e-07
1.05286e-06
5.18249e-07
4.02818e-07
3.83937e-07
4.05932e-07
4.5056e-07
5.09613e-07
5.7866e-07
6.55013e-07
7.36895e-07
8.23049e-07
9.12545e-07
1.00467e-06
1.09887e-06
1.19469e-06
1.2918e-06
1.3899e-06
1.4888e-06
1.58834e-06
1.6884e-06
1.78893e-06
1.88987e-06
1.99124e-06
2.09306e-06
2.19536e-06
2.29819e-06
2.40163e-06
2.50575e-06
2.6106e-06
2.71627e-06
2.8228e-06
2.93026e-06
3.03868e-06
3.14807e-06
3.25846e-06
3.36981e-06
3.4821e-06
3.59527e-06
3.70926e-06
3.82395e-06
3.93925e-06
4.05499e-06
4.17103e-06
4.28719e-06
4.40326e-06
4.51903e-06
4.63426e-06
4.74868e-06
4.86204e-06
4.97403e-06
5.08437e-06
5.19272e-06
5.29877e-06
5.40216e-06
5.50255e-06
5.59958e-06
5.69288e-06
5.78208e-06
5.8668e-06
5.94667e-06
6.02131e-06
6.09034e-06
6.15339e-06
6.21011e-06
6.26015e-06
6.30316e-06
6.33883e-06
6.36685e-06
6.38693e-06
6.39851e-06
6.40181e-06
6.39673e-06
6.38288e-06
6.36013e-06
6.32839e-06
6.2876e-06
6.23775e-06
6.17889e-06
6.1111e-06
6.0345e-06
5.94929e-06
5.8557e-06
5.754e-06
5.64452e-06
5.52762e-06
5.40373e-06
5.27329e-06
5.1368e-06
4.99479e-06
4.8478e-06
4.69643e-06
4.54127e-06
4.38294e-06
4.22206e-06
4.05927e-06
3.89519e-06
3.73044e-06
3.56563e-06
3.40135e-06
3.23816e-06
3.07661e-06
2.9172e-06
2.76041e-06
2.60666e-06
2.45636e-06
2.30985e-06
2.16746e-06
2.02943e-06
1.89601e-06
1.76736e-06
1.64362e-06
1.52489e-06
1.41123e-06
1.30267e-06
1.19919e-06
1.10076e-06
1.0073e-06
9.18747e-07
8.34988e-07
7.55913e-07
6.81411e-07
6.11369e-07
5.45692e-07
4.8431e-07
4.27194e-07
3.74383e-07
3.26013e-07
2.82377e-07
2.4402e-07
2.11919e-07
1.87855e-07
1.7538e-07
1.82596e-07
2.34583e-07
4.77417e-07
1.41432e-06
6.85632e-07
5.10659e-07
4.58465e-07
4.56486e-07
4.81707e-07
5.24077e-07
5.78272e-07
6.41115e-07
7.10538e-07
7.85103e-07
8.63763e-07
9.45727e-07
1.03038e-06
1.11723e-06
1.20591e-06
1.2961e-06
1.38756e-06
1.48012e-06
1.57364e-06
1.66803e-06
1.76323e-06
1.85921e-06
1.95596e-06
2.05351e-06
2.15188e-06
2.25111e-06
2.35124e-06
2.45233e-06
2.55442e-06
2.65754e-06
2.76172e-06
2.86697e-06
2.97331e-06
3.0807e-06
3.18911e-06
3.2985e-06
3.40878e-06
3.51986e-06
3.63162e-06
3.74394e-06
3.85664e-06
3.96956e-06
4.0825e-06
4.19523e-06
4.30754e-06
4.41917e-06
4.52985e-06
4.6393e-06
4.74724e-06
4.85336e-06
4.95733e-06
5.05885e-06
5.15756e-06
5.25314e-06
5.34524e-06
5.43351e-06
5.5176e-06
5.59716e-06
5.67185e-06
5.74131e-06
5.80522e-06
5.86323e-06
5.91502e-06
5.9603e-06
5.99875e-06
6.03011e-06
6.05413e-06
6.07053e-06
6.07861e-06
6.07918e-06
6.07161e-06
6.05573e-06
6.03142e-06
5.99862e-06
5.95728e-06
5.90741e-06
5.84906e-06
5.78233e-06
5.70735e-06
5.6243e-06
5.53341e-06
5.43494e-06
5.32922e-06
5.21659e-06
5.09745e-06
4.97225e-06
4.84145e-06
4.70555e-06
4.5651e-06
4.42064e-06
4.27274e-06
4.12201e-06
3.96903e-06
3.8144e-06
3.65872e-06
3.50258e-06
3.34655e-06
3.19119e-06
3.03702e-06
2.88455e-06
2.73426e-06
2.58658e-06
2.4419e-06
2.3006e-06
2.16299e-06
2.02935e-06
1.89992e-06
1.7749e-06
1.65444e-06
1.53866e-06
1.42765e-06
1.32145e-06
1.22007e-06
1.12352e-06
1.03175e-06
9.447e-07
8.62303e-07
7.84475e-07
7.11128e-07
6.42177e-07
5.77546e-07
5.17184e-07
4.61073e-07
4.09251e-07
3.61836e-07
3.19068e-07
2.81374e-07
2.49479e-07
2.24645e-07
2.09125e-07
2.07303e-07
2.29404e-07
3.07956e-07
6.36672e-07
1.80703e-06
8.69124e-07
6.32533e-07
5.47917e-07
5.23918e-07
5.32181e-07
5.60596e-07
6.02884e-07
6.55348e-07
7.15613e-07
7.82038e-07
8.53439e-07
9.28928e-07
1.00782e-06
1.08957e-06
1.17375e-06
1.26002e-06
1.3481e-06
1.43777e-06
1.52888e-06
1.62129e-06
1.71494e-06
1.80975e-06
1.9057e-06
2.00278e-06
2.101e-06
2.20037e-06
2.30091e-06
2.40265e-06
2.50561e-06
2.60979e-06
2.71521e-06
2.82185e-06
2.9297e-06
3.0387e-06
3.14881e-06
3.25994e-06
3.37199e-06
3.48485e-06
3.59837e-06
3.7124e-06
3.82674e-06
3.94121e-06
4.05559e-06
4.16963e-06
4.2831e-06
4.39571e-06
4.50719e-06
4.61725e-06
4.72559e-06
4.8319e-06
4.93585e-06
5.03713e-06
5.1354e-06
5.23033e-06
5.32158e-06
5.40883e-06
5.49174e-06
5.56996e-06
5.64319e-06
5.71109e-06
5.77335e-06
5.82965e-06
5.87971e-06
5.92323e-06
5.95995e-06
5.98961e-06
6.01199e-06
6.02671e-06
6.0332e-06
6.03242e-06
6.02354e-06
6.00644e-06
5.98101e-06
5.94719e-06
5.90493e-06
5.85423e-06
5.79514e-06
5.72774e-06
5.65216e-06
5.56857e-06
5.47719e-06
5.37828e-06
5.27214e-06
5.15913e-06
5.03964e-06
4.91412e-06
4.78302e-06
4.64687e-06
4.5062e-06
4.36158e-06
4.21359e-06
4.06283e-06
3.90991e-06
3.75545e-06
3.60005e-06
3.44431e-06
3.28883e-06
3.13415e-06
2.98082e-06
2.82935e-06
2.68021e-06
2.53384e-06
2.39064e-06
2.25095e-06
2.11509e-06
1.98333e-06
1.85589e-06
1.73296e-06
1.61468e-06
1.50116e-06
1.39245e-06
1.2886e-06
1.18962e-06
1.09548e-06
1.00615e-06
9.21563e-07
8.41643e-07
7.66315e-07
6.95501e-07
6.29134e-07
5.67163e-07
5.09568e-07
4.56375e-07
4.07675e-07
3.63655e-07
3.24647e-07
2.91215e-07
2.64276e-07
2.45342e-07
2.37109e-07
2.44879e-07
2.8121e-07
3.86699e-07
8.0604e-07
2.22963e-06
1.06751e-06
7.6644e-07
6.49311e-07
6.04258e-07
5.97027e-07
6.13233e-07
6.45546e-07
6.89709e-07
7.43012e-07
8.03608e-07
8.70173e-07
9.41706e-07
1.01744e-06
1.09676e-06
1.17918e-06
1.26431e-06
1.35183e-06
1.44149e-06
1.53309e-06
1.62647e-06
1.72151e-06
1.81815e-06
1.9163e-06
2.01595e-06
2.11707e-06
2.21964e-06
2.32368e-06
2.42917e-06
2.53611e-06
2.64449e-06
2.75429e-06
2.86547e-06
2.97799e-06
3.09178e-06
3.20675e-06
3.32279e-06
3.43978e-06
3.55757e-06
3.676e-06
3.79487e-06
3.91397e-06
4.0331e-06
4.152e-06
4.27041e-06
4.38808e-06
4.5047e-06
4.61999e-06
4.73364e-06
4.84535e-06
4.95479e-06
5.06166e-06
5.16561e-06
5.26634e-06
5.3635e-06
5.45679e-06
5.54586e-06
5.63041e-06
5.71012e-06
5.78467e-06
5.85375e-06
5.91707e-06
5.97432e-06
6.02522e-06
6.06949e-06
6.10686e-06
6.13708e-06
6.15988e-06
6.17486e-06
6.18143e-06
6.1807e-06
6.17176e-06
6.15445e-06
6.12866e-06
6.09427e-06
6.05125e-06
5.99955e-06
5.9392e-06
5.87027e-06
5.79285e-06
5.7071e-06
5.61323e-06
5.51148e-06
5.40216e-06
5.28562e-06
5.16226e-06
5.03253e-06
4.89692e-06
4.75597e-06
4.61024e-06
4.46034e-06
4.30689e-06
4.15053e-06
3.99192e-06
3.83173e-06
3.6706e-06
3.50919e-06
3.34813e-06
3.18803e-06
3.02946e-06
2.87298e-06
2.71908e-06
2.56823e-06
2.42084e-06
2.27729e-06
2.1379e-06
2.00294e-06
1.87263e-06
1.74716e-06
1.62665e-06
1.51121e-06
1.40088e-06
1.29569e-06
1.19563e-06
1.10067e-06
1.01074e-06
9.25783e-07
8.45717e-07
7.70456e-07
6.99927e-07
6.34066e-07
5.72839e-07
5.16247e-07
4.64351e-07
4.1729e-07
3.75321e-07
3.38861e-07
3.08577e-07
2.85547e-07
2.71563e-07
2.69789e-07
2.86491e-07
3.36733e-07
4.69681e-07
9.83645e-07
2.68162e-06
1.28026e-06
9.11379e-07
7.61047e-07
6.95295e-07
6.73444e-07
6.78608e-07
7.02307e-07
7.39677e-07
7.87651e-07
8.4415e-07
9.07683e-07
9.77136e-07
1.05165e-06
1.13054e-06
1.21325e-06
1.29935e-06
1.38846e-06
1.4803e-06
1.57461e-06
1.67121e-06
1.76996e-06
1.87072e-06
1.97343e-06
2.07801e-06
2.18441e-06
2.29261e-06
2.40257e-06
2.51426e-06
2.62765e-06
2.7427e-06
2.85936e-06
2.97758e-06
3.09726e-06
3.21832e-06
3.34063e-06
3.46406e-06
3.58845e-06
3.71361e-06
3.83936e-06
3.96547e-06
4.0917e-06
4.21781e-06
4.34352e-06
4.46855e-06
4.59263e-06
4.71544e-06
4.83669e-06
4.95607e-06
5.07325e-06
5.18792e-06
5.29977e-06
5.40846e-06
5.51369e-06
5.61515e-06
5.7125e-06
5.80545e-06
5.89369e-06
5.97691e-06
6.05481e-06
6.12709e-06
6.19346e-06
6.25363e-06
6.30731e-06
6.35422e-06
6.39408e-06
6.42662e-06
6.45157e-06
6.46861e-06
6.47684e-06
6.4775e-06
6.46978e-06
6.45337e-06
6.4281e-06
6.39384e-06
6.35049e-06
6.29798e-06
6.23629e-06
6.16546e-06
6.08554e-06
5.99668e-06
5.89905e-06
5.79288e-06
5.67849e-06
5.55621e-06
5.42646e-06
5.28971e-06
5.14648e-06
4.99735e-06
4.84293e-06
4.68387e-06
4.52087e-06
4.35463e-06
4.18589e-06
4.01537e-06
3.84381e-06
3.67195e-06
3.50048e-06
3.33009e-06
3.16143e-06
2.99511e-06
2.83169e-06
2.67168e-06
2.51556e-06
2.36371e-06
2.2165e-06
2.07421e-06
1.93708e-06
1.8053e-06
1.67899e-06
1.55826e-06
1.44313e-06
1.33361e-06
1.22969e-06
1.1313e-06
1.03837e-06
9.50814e-07
8.68535e-07
7.91443e-07
7.19455e-07
6.52506e-07
5.90567e-07
5.33652e-07
4.81844e-07
4.35315e-07
3.94371e-07
3.59507e-07
3.31505e-07
3.11609e-07
3.01877e-07
3.05956e-07
3.31151e-07
3.95142e-07
5.56074e-07
1.16798e-06
3.16307e-06
1.50724e-06
1.06688e-06
8.82258e-07
7.9575e-07
7.59753e-07
7.54669e-07
7.70753e-07
8.02481e-07
8.46397e-07
9.00173e-07
9.62146e-07
1.03107e-06
1.10599e-06
1.18614e-06
1.27089e-06
1.35975e-06
1.45228e-06
1.54814e-06
1.64705e-06
1.74878e-06
1.85314e-06
1.95998e-06
2.06918e-06
2.18064e-06
2.29429e-06
2.41006e-06
2.52789e-06
2.64773e-06
2.7695e-06
2.89316e-06
3.0186e-06
3.14574e-06
3.27446e-06
3.40463e-06
3.53611e-06
3.66871e-06
3.80225e-06
3.93652e-06
4.07128e-06
4.20628e-06
4.34127e-06
4.47595e-06
4.61006e-06
4.74328e-06
4.87531e-06
5.00585e-06
5.13457e-06
5.26118e-06
5.38534e-06
5.50676e-06
5.62511e-06
5.74009e-06
5.85138e-06
5.9587e-06
6.06174e-06
6.1602e-06
6.25379e-06
6.34222e-06
6.42519e-06
6.5024e-06
6.57358e-06
6.63842e-06
6.69663e-06
6.7479e-06
6.79196e-06
6.82849e-06
6.8572e-06
6.87779e-06
6.88932e-06
6.89248e-06
6.88721e-06
6.87277e-06
6.84895e-06
6.81555e-06
6.77243e-06
6.71946e-06
6.65657e-06
6.58374e-06
6.50102e-06
6.40847e-06
6.30627e-06
6.19463e-06
6.07383e-06
5.94424e-06
5.80627e-06
5.66043e-06
5.50727e-06
5.34741e-06
5.18152e-06
5.01032e-06
4.83459e-06
4.65511e-06
4.47271e-06
4.28822e-06
4.10248e-06
3.9163e-06
3.7305e-06
3.54586e-06
3.36312e-06
3.18299e-06
3.0061e-06
2.83304e-06
2.66435e-06
2.50048e-06
2.34183e-06
2.18872e-06
2.04142e-06
1.90013e-06
1.76498e-06
1.63607e-06
1.51343e-06
1.39706e-06
1.2869e-06
1.18288e-06
1.08491e-06
9.92878e-07
9.06662e-07
8.26153e-07
7.51251e-07
6.81882e-07
6.18012e-07
5.5966e-07
5.06922e-07
4.60001e-07
4.19245e-07
3.85218e-07
3.58807e-07
3.41417e-07
3.35382e-07
3.4484e-07
3.78201e-07
4.55851e-07
6.45234e-07
1.3578e-06
3.67445e-06
1.74855e-06
1.23278e-06
1.01249e-06
9.04877e-07
8.54925e-07
8.40129e-07
8.49348e-07
8.76351e-07
9.17256e-07
9.69462e-07
1.03112e-06
1.10084e-06
1.17755e-06
1.2604e-06
1.34868e-06
1.44181e-06
1.53932e-06
1.6408e-06
1.74592e-06
1.85441e-06
1.96602e-06
2.08058e-06
2.19793e-06
2.31793e-06
2.44047e-06
2.56546e-06
2.6928e-06
2.82241e-06
2.95418e-06
3.08801e-06
3.22379e-06
3.36139e-06
3.50065e-06
3.64141e-06
3.78348e-06
3.92665e-06
4.0707e-06
4.21537e-06
4.36041e-06
4.50554e-06
4.65047e-06
4.79491e-06
4.93853e-06
5.08104e-06
5.22212e-06
5.36145e-06
5.49873e-06
5.63363e-06
5.76586e-06
5.89511e-06
6.02108e-06
6.14349e-06
6.26203e-06
6.37643e-06
6.4864e-06
6.59167e-06
6.69195e-06
6.78695e-06
6.87639e-06
6.95998e-06
7.03742e-06
7.1084e-06
7.17261e-06
7.22973e-06
7.27944e-06
7.32138e-06
7.35524e-06
7.38066e-06
7.39694e-06
7.40365e-06
7.40187e-06
7.39039e-06
7.36888e-06
7.33708e-06
7.29477e-06
7.24178e-06
7.17796e-06
7.10324e-06
7.01761e-06
6.92112e-06
6.81388e-06
6.6961e-06
6.56805e-06
6.43008e-06
6.28263e-06
6.12622e-06
5.96144e-06
5.78897e-06
5.60955e-06
5.42396e-06
5.23307e-06
5.03776e-06
4.83895e-06
4.6376e-06
4.43465e-06
4.23105e-06
4.02772e-06
3.82556e-06
3.62544e-06
3.42815e-06
3.23446e-06
3.04504e-06
2.86051e-06
2.6814e-06
2.50817e-06
2.3412e-06
2.18079e-06
2.02717e-06
1.8805e-06
1.74087e-06
1.60831e-06
1.48281e-06
1.3643e-06
1.2527e-06
1.14787e-06
1.04967e-06
9.57977e-07
8.72636e-07
7.93529e-07
7.20564e-07
6.53694e-07
5.92933e-07
5.38385e-07
4.90271e-07
4.48978e-07
4.1513e-07
3.89711e-07
3.7429e-07
3.7148e-07
3.85928e-07
4.27184e-07
5.18429e-07
7.36652e-07
1.55212e-06
4.21647e-06
2.00446e-06
1.4091e-06
1.15154e-06
1.02225e-06
9.58331e-07
9.34163e-07
9.37095e-07
9.60128e-07
9.98916e-07
1.05056e-06
1.113e-06
1.1847e-06
1.26445e-06
1.35129e-06
1.44444e-06
1.54324e-06
1.64714e-06
1.75568e-06
1.86845e-06
1.98515e-06
2.10548e-06
2.22922e-06
2.35616e-06
2.48614e-06
2.61902e-06
2.75464e-06
2.89289e-06
3.03363e-06
3.17674e-06
3.32206e-06
3.46945e-06
3.61873e-06
3.76972e-06
3.9222e-06
4.07596e-06
4.23074e-06
4.38629e-06
4.54232e-06
4.69854e-06
4.85466e-06
5.01035e-06
5.16531e-06
5.31922e-06
5.47175e-06
5.62259e-06
5.77143e-06
5.91796e-06
6.06188e-06
6.20291e-06
6.34076e-06
6.47514e-06
6.60579e-06
6.73245e-06
6.85484e-06
6.9727e-06
7.08577e-06
7.19377e-06
7.29643e-06
7.39346e-06
7.48457e-06
7.56944e-06
7.64775e-06
7.71917e-06
7.78333e-06
7.83987e-06
7.8884e-06
7.92853e-06
7.95984e-06
7.98192e-06
7.9935e-06
7.9958e-06
7.98815e-06
7.96973e-06
7.94022e-06
7.89931e-06
7.84676e-06
7.78237e-06
7.70601e-06
7.6176e-06
7.51714e-06
7.40472e-06
7.2805e-06
7.14474e-06
6.9978e-06
6.84011e-06
6.67221e-06
6.49474e-06
6.30841e-06
6.11403e-06
5.91246e-06
5.70465e-06
5.49159e-06
5.27432e-06
5.0539e-06
4.8314e-06
4.6079e-06
4.38447e-06
4.16213e-06
3.94189e-06
3.72467e-06
3.51135e-06
3.30273e-06
3.09952e-06
2.90236e-06
2.71179e-06
2.52825e-06
2.3521e-06
2.18362e-06
2.02298e-06
1.87031e-06
1.72563e-06
1.58892e-06
1.46012e-06
1.33911e-06
1.22573e-06
1.11982e-06
1.02121e-06
9.29731e-07
8.45224e-07
7.67574e-07
6.96715e-07
6.32651e-07
5.75483e-07
5.25443e-07
4.82949e-07
4.48678e-07
4.23711e-07
4.09776e-07
4.09768e-07
4.28866e-07
4.77779e-07
5.82557e-07
8.29934e-07
1.75012e-06
4.79001e-06
2.27533e-06
1.59598e-06
1.29936e-06
1.14766e-06
1.0696e-06
1.03625e-06
1.03335e-06
1.05305e-06
1.09051e-06
1.1425e-06
1.20674e-06
1.2815e-06
1.36545e-06
1.4575e-06
1.55678e-06
1.66253e-06
1.77412e-06
1.89102e-06
2.01278e-06
2.13902e-06
2.26939e-06
2.40362e-06
2.54146e-06
2.68271e-06
2.82716e-06
2.97465e-06
3.12499e-06
3.27802e-06
3.43357e-06
3.59145e-06
3.75147e-06
3.9134e-06
4.07702e-06
4.24209e-06
4.40832e-06
4.57546e-06
4.74319e-06
4.9112e-06
5.07919e-06
5.24682e-06
5.41377e-06
5.57971e-06
5.74432e-06
5.90729e-06
6.06829e-06
6.22703e-06
6.38322e-06
6.53659e-06
6.68685e-06
6.83376e-06
6.97706e-06
7.1165e-06
7.25184e-06
7.38285e-06
7.50926e-06
7.63083e-06
7.74731e-06
7.85841e-06
7.96385e-06
8.06332e-06
8.15649e-06
8.24301e-06
8.32251e-06
8.3946e-06
8.45886e-06
8.51486e-06
8.56213e-06
8.60021e-06
8.62864e-06
8.64635e-06
8.65316e-06
8.65003e-06
8.63538e-06
8.60876e-06
8.56982e-06
8.51823e-06
8.45372e-06
8.37609e-06
8.28522e-06
8.18104e-06
8.06359e-06
7.93301e-06
7.78952e-06
7.63347e-06
7.46529e-06
7.28553e-06
7.09487e-06
6.89404e-06
6.68391e-06
6.46543e-06
6.23962e-06
6.00756e-06
5.77042e-06
5.52936e-06
5.2856e-06
5.04035e-06
4.79483e-06
4.55021e-06
4.30763e-06
4.06818e-06
3.83287e-06
3.60262e-06
3.37829e-06
3.16062e-06
2.95024e-06
2.7477e-06
2.55343e-06
2.36775e-06
2.1909e-06
2.02301e-06
1.86415e-06
1.71428e-06
1.57334e-06
1.44119e-06
1.31766e-06
1.20255e-06
1.09566e-06
9.96777e-07
9.0572e-07
8.22341e-07
7.46547e-07
6.78322e-07
6.17758e-07
5.65093e-07
5.20766e-07
4.85505e-07
4.60479e-07
4.47578e-07
4.49977e-07
4.73414e-07
5.29763e-07
6.48004e-07
9.24786e-07
1.9512e-06
5.39607e-06
2.5616e-06
1.79362e-06
1.45601e-06
1.28103e-06
1.18852e-06
1.14606e-06
1.1377e-06
1.15462e-06
1.19147e-06
1.24466e-06
1.31164e-06
1.39049e-06
1.47974e-06
1.57815e-06
1.68474e-06
1.79865e-06
1.91916e-06
2.04567e-06
2.17765e-06
2.31465e-06
2.45627e-06
2.60218e-06
2.75209e-06
2.90573e-06
3.06286e-06
3.22325e-06
3.3867e-06
3.55299e-06
3.72188e-06
3.89316e-06
4.06658e-06
4.24189e-06
4.4188e-06
4.59703e-06
4.77627e-06
4.95621e-06
5.13652e-06
5.31686e-06
5.49689e-06
5.67627e-06
5.85467e-06
6.03176e-06
6.20721e-06
6.38073e-06
6.552e-06
6.72076e-06
6.88674e-06
7.04968e-06
7.20935e-06
7.36551e-06
7.51794e-06
7.66643e-06
7.81075e-06
7.95069e-06
8.08603e-06
8.21652e-06
8.3419e-06
8.46191e-06
8.57624e-06
8.68458e-06
8.78657e-06
8.88184e-06
8.96998e-06
9.05055e-06
9.12309e-06
9.1871e-06
9.24206e-06
9.28744e-06
9.3227e-06
9.34721e-06
9.3593e-06
9.3609e-06
9.35059e-06
9.32744e-06
9.29101e-06
9.24093e-06
9.17685e-06
9.0985e-06
9.00569e-06
8.89831e-06
8.77632e-06
8.63983e-06
8.48903e-06
8.32422e-06
8.14584e-06
7.95443e-06
7.75067e-06
7.53534e-06
7.30933e-06
7.07366e-06
6.82942e-06
6.57779e-06
6.32002e-06
6.05742e-06
5.79132e-06
5.52308e-06
5.25405e-06
4.98558e-06
4.71896e-06
4.45544e-06
4.19618e-06
3.94227e-06
3.69471e-06
3.45435e-06
3.22198e-06
2.99824e-06
2.78365e-06
2.57862e-06
2.38344e-06
2.1983e-06
2.02328e-06
1.85838e-06
1.70351e-06
1.55855e-06
1.42329e-06
1.29752e-06
1.181e-06
1.07347e-06
9.74732e-07
8.8459e-07
8.02922e-07
7.29688e-07
6.64964e-07
6.08984e-07
5.62204e-07
5.25395e-07
4.99815e-07
4.87512e-07
4.91942e-07
5.19417e-07
5.82987e-07
7.14616e-07
1.02101e-06
2.15496e-06
6.0357e-06
2.86371e-06
2.00229e-06
1.62159e-06
1.42234e-06
1.31501e-06
1.26344e-06
1.24989e-06
1.26453e-06
1.30143e-06
1.35661e-06
1.42724e-06
1.51119e-06
1.60679e-06
1.71267e-06
1.82771e-06
1.95094e-06
2.08155e-06
2.21883e-06
2.36218e-06
2.51107e-06
2.66505e-06
2.82372e-06
2.98673e-06
3.15375e-06
3.3245e-06
3.4987e-06
3.67609e-06
3.85638e-06
4.03933e-06
4.22464e-06
4.41202e-06
4.60118e-06
4.79179e-06
4.98352e-06
5.17602e-06
5.36896e-06
5.56196e-06
5.75468e-06
5.94676e-06
6.13785e-06
6.32762e-06
6.51573e-06
6.70189e-06
6.8858e-06
7.06719e-06
7.24581e-06
7.42142e-06
7.5938e-06
7.76275e-06
7.92808e-06
8.08958e-06
8.24708e-06
8.40038e-06
8.54929e-06
8.6936e-06
8.83307e-06
8.96746e-06
9.09648e-06
9.21984e-06
9.33719e-06
9.44817e-06
9.55235e-06
9.6493e-06
9.73853e-06
9.81953e-06
9.89177e-06
9.95465e-06
1.00076e-05
1.005e-05
1.00813e-05
1.00997e-05
1.01059e-05
1.01004e-05
1.00813e-05
1.00479e-05
9.99996e-06
9.93698e-06
9.85864e-06
9.76467e-06
9.65489e-06
9.52922e-06
9.38769e-06
9.23045e-06
9.05776e-06
8.87002e-06
8.66776e-06
8.45164e-06
8.22244e-06
7.9811e-06
7.72866e-06
7.46626e-06
7.19516e-06
6.9167e-06
6.6323e-06
6.34341e-06
6.05153e-06
5.75817e-06
5.46482e-06
5.17295e-06
4.88398e-06
4.59924e-06
4.32001e-06
4.04741e-06
3.78251e-06
3.52619e-06
3.27925e-06
3.04232e-06
2.81591e-06
2.6004e-06
2.39603e-06
2.20294e-06
2.02116e-06
1.85062e-06
1.69117e-06
1.54263e-06
1.40473e-06
1.27721e-06
1.15979e-06
1.05222e-06
9.5427e-07
8.65778e-07
7.86675e-07
7.17014e-07
6.57022e-07
6.07163e-07
5.68249e-07
5.4162e-07
5.29481e-07
5.35575e-07
5.6679e-07
6.3737e-07
7.82308e-07
1.11849e-06
2.36118e-06
6.70995e-06
3.18214e-06
2.22225e-06
1.79626e-06
1.57166e-06
1.44903e-06
1.38828e-06
1.36979e-06
1.38259e-06
1.42018e-06
1.47813e-06
1.55329e-06
1.6433e-06
1.74628e-06
1.86071e-06
1.98529e-06
2.11896e-06
2.26077e-06
2.40993e-06
2.56573e-06
2.72757e-06
2.89492e-06
3.06732e-06
3.24433e-06
3.4256e-06
3.61076e-06
3.79948e-06
3.99145e-06
4.18634e-06
4.38383e-06
4.58358e-06
4.78526e-06
4.98852e-06
5.19298e-06
5.39829e-06
5.60406e-06
5.80991e-06
6.01547e-06
6.22036e-06
6.42423e-06
6.62671e-06
6.82749e-06
7.02625e-06
7.2227e-06
7.41659e-06
7.60766e-06
7.79571e-06
7.98053e-06
8.16195e-06
8.33979e-06
8.51389e-06
8.68411e-06
8.85028e-06
9.01223e-06
9.1698e-06
9.32278e-06
9.47095e-06
9.61407e-06
9.75185e-06
9.88397e-06
1.00101e-05
1.01298e-05
1.02426e-05
1.03482e-05
1.04459e-05
1.05352e-05
1.06155e-05
1.06862e-05
1.07467e-05
1.07962e-05
1.08342e-05
1.08594e-05
1.08705e-05
1.08701e-05
1.08553e-05
1.08257e-05
1.07805e-05
1.07195e-05
1.06421e-05
1.0548e-05
1.04369e-05
1.03088e-05
1.01636e-05
1.00012e-05
9.82208e-06
9.62641e-06
9.41471e-06
9.18761e-06
8.94588e-06
8.69044e-06
8.42233e-06
8.14275e-06
7.853e-06
7.55449e-06
7.24871e-06
6.93724e-06
6.62171e-06
6.30377e-06
5.98507e-06
5.66726e-06
5.35192e-06
5.04059e-06
4.73472e-06
4.43564e-06
4.14457e-06
3.86258e-06
3.59063e-06
3.32948e-06
3.07979e-06
2.84202e-06
2.61652e-06
2.40348e-06
2.20299e-06
2.01501e-06
1.8394e-06
1.67597e-06
1.52445e-06
1.38455e-06
1.25595e-06
1.13836e-06
1.03152e-06
9.35218e-07
8.49354e-07
7.73954e-07
7.09228e-07
6.55648e-07
6.14057e-07
5.85874e-07
5.73459e-07
5.80849e-07
6.15506e-07
6.9289e-07
8.51058e-07
1.21721e-06
2.5698e-06
7.41982e-06
3.51734e-06
2.45378e-06
1.98019e-06
1.72907e-06
1.59061e-06
1.52058e-06
1.49733e-06
1.50873e-06
1.54761e-06
1.60908e-06
1.68964e-06
1.78666e-06
1.89803e-06
2.02205e-06
2.15725e-06
2.30243e-06
2.45651e-06
2.61857e-06
2.78783e-06
2.96358e-06
3.14521e-06
3.33217e-06
3.52398e-06
3.7202e-06
3.92041e-06
4.12421e-06
4.33124e-06
4.5411e-06
4.75341e-06
4.96781e-06
5.18388e-06
5.40125e-06
5.61949e-06
5.8382e-06
6.05698e-06
6.27542e-06
6.49312e-06
6.70971e-06
6.92483e-06
7.13813e-06
7.3493e-06
7.55805e-06
7.76413e-06
7.9673e-06
8.16737e-06
8.36415e-06
8.55748e-06
8.74723e-06
8.93327e-06
9.11548e-06
9.29373e-06
9.4679e-06
9.63784e-06
9.80339e-06
9.96438e-06
1.01206e-05
1.02718e-05
1.04176e-05
1.05579e-05
1.06921e-05
1.08198e-05
1.09407e-05
1.10542e-05
1.11598e-05
1.12569e-05
1.13448e-05
1.14229e-05
1.14905e-05
1.1547e-05
1.15916e-05
1.16235e-05
1.16404e-05
1.16445e-05
1.16348e-05
1.16094e-05
1.15679e-05
1.15097e-05
1.14344e-05
1.13415e-05
1.12307e-05
1.11018e-05
1.09545e-05
1.0789e-05
1.06053e-05
1.04037e-05
1.01846e-05
9.94861e-06
9.69636e-06
9.42875e-06
9.14683e-06
8.85178e-06
8.54492e-06
8.22769e-06
7.90168e-06
7.56853e-06
7.22998e-06
6.88783e-06
6.54388e-06
6.19994e-06
5.85781e-06
5.5192e-06
5.18577e-06
4.85905e-06
4.54049e-06
4.23134e-06
3.93274e-06
3.64565e-06
3.37085e-06
3.10897e-06
2.86045e-06
2.6256e-06
2.40456e-06
2.19735e-06
2.00386e-06
1.8239e-06
1.65722e-06
1.50348e-06
1.36235e-06
1.23351e-06
1.11663e-06
1.01149e-06
9.17927e-07
8.35943e-07
7.65728e-07
7.07751e-07
6.62885e-07
6.32626e-07
6.19485e-07
6.27793e-07
6.65593e-07
7.49576e-07
9.20905e-07
1.31722e-06
2.78095e-06
8.16627e-06
3.86974e-06
2.69712e-06
2.17352e-06
1.89467e-06
1.73981e-06
1.66035e-06
1.63252e-06
1.64292e-06
1.68368e-06
1.74941e-06
1.83622e-06
1.94119e-06
2.06195e-06
2.19657e-06
2.34343e-06
2.50114e-06
2.66849e-06
2.84444e-06
3.02808e-06
3.2186e-06
3.41531e-06
3.61757e-06
3.82483e-06
4.03656e-06
4.25229e-06
4.47155e-06
4.6939e-06
4.91891e-06
5.14613e-06
5.37514e-06
5.60548e-06
5.83672e-06
6.06841e-06
6.3001e-06
6.53138e-06
6.76181e-06
6.99099e-06
7.21855e-06
7.44413e-06
7.66741e-06
7.88809e-06
8.10593e-06
8.3207e-06
8.5322e-06
8.74029e-06
8.94482e-06
9.14568e-06
9.34278e-06
9.53602e-06
9.72533e-06
9.9106e-06
1.00918e-05
1.02686e-05
1.04412e-05
1.06091e-05
1.07723e-05
1.09305e-05
1.10833e-05
1.12306e-05
1.13718e-05
1.15066e-05
1.16345e-05
1.1755e-05
1.18675e-05
1.19714e-05
1.20661e-05
1.2151e-05
1.22252e-05
1.22881e-05
1.23391e-05
1.23772e-05
1.24005e-05
1.24092e-05
1.24049e-05
1.23846e-05
1.23476e-05
1.22935e-05
1.22216e-05
1.21315e-05
1.20227e-05
1.18949e-05
1.17479e-05
1.15815e-05
1.13958e-05
1.11909e-05
1.0967e-05
1.07247e-05
1.04646e-05
1.01875e-05
9.89434e-06
9.58626e-06
9.26456e-06
8.93071e-06
8.58631e-06
8.23307e-06
7.87282e-06
7.50747e-06
7.13897e-06
6.76931e-06
6.40044e-06
6.03432e-06
5.6728e-06
5.31766e-06
4.97056e-06
4.63299e-06
4.3063e-06
3.99166e-06
3.69005e-06
3.40225e-06
3.12887e-06
2.87034e-06
2.62688e-06
2.3986e-06
2.18545e-06
1.98726e-06
1.80378e-06
1.63468e-06
1.47961e-06
1.33818e-06
1.21007e-06
1.09497e-06
9.92711e-07
9.03243e-07
8.26732e-07
7.63642e-07
7.14872e-07
6.81985e-07
6.67646e-07
6.76484e-07
7.17123e-07
8.07505e-07
9.91944e-07
1.41867e-06
2.99494e-06
8.95012e-06
4.23972e-06
2.95253e-06
2.37643e-06
2.06856e-06
1.89669e-06
1.80763e-06
1.77538e-06
1.78517e-06
1.8284e-06
1.89912e-06
1.99304e-06
2.10687e-06
2.23798e-06
2.38422e-06
2.54374e-06
2.71496e-06
2.89653e-06
3.08726e-06
3.28611e-06
3.49218e-06
3.70465e-06
3.92281e-06
4.14601e-06
4.37366e-06
4.6052e-06
4.84011e-06
5.07788e-06
5.318e-06
5.55999e-06
5.80334e-06
6.04758e-06
6.29222e-06
6.53678e-06
6.78078e-06
7.02379e-06