/*--------------------------------*- C++ -*----------------------------------*\
  =========                 |
  \\      /  F ield         | OpenFOAM: The Open Source CFD Toolbox
   \\    /   O peration     | Website:  https://openfoam.org
    \\  /    A nd           | Version:  12
     \\/     M anipulation  |
\*---------------------------------------------------------------------------*/
FoamFile
{
    format      ascii;
    class       volScalarField;
    location    "6.5";
    object      k;
}
// * * * * * * * * * * * * * * * * * * * * * * * * * * * * * * * * * * * * * //

dimensions      [0 2 -2 0 0 0 0];

internalField   nonuniform List<scalar> 
18225
(
1.08808e-11
5.43754e-11
1.18999e-10
1.96601e-10
2.83548e-10
3.77695e-10
4.77525e-10
5.81862e-10
6.89747e-10
8.00379e-10
9.13085e-10
1.02729e-09
1.14252e-09
1.25837e-09
1.37451e-09
1.49069e-09
1.60669e-09
1.72239e-09
1.83768e-09
1.95251e-09
2.06689e-09
2.18083e-09
2.2944e-09
2.40767e-09
2.52074e-09
2.63373e-09
2.74676e-09
2.85994e-09
2.97342e-09
3.0873e-09
3.20169e-09
3.3167e-09
3.4324e-09
3.54886e-09
3.66613e-09
3.78424e-09
3.9032e-09
4.023e-09
4.14359e-09
4.26493e-09
4.38694e-09
4.50953e-09
4.63257e-09
4.75593e-09
4.87945e-09
5.00296e-09
5.12625e-09
5.24911e-09
5.37131e-09
5.49259e-09
5.61267e-09
5.73128e-09
5.84809e-09
5.96277e-09
6.075e-09
6.18439e-09
6.29058e-09
6.39316e-09
6.49175e-09
6.5859e-09
6.6752e-09
6.75921e-09
6.83747e-09
6.90955e-09
6.97498e-09
7.03332e-09
7.08413e-09
7.12696e-09
7.16145e-09
7.18716e-09
7.2036e-09
7.2105e-09
7.20785e-09
7.19518e-09
7.17221e-09
7.13875e-09
7.09465e-09
7.03984e-09
6.97431e-09
6.89808e-09
6.81128e-09
6.71408e-09
6.60672e-09
6.48952e-09
6.36283e-09
6.22712e-09
6.08287e-09
5.93065e-09
5.77107e-09
5.60479e-09
5.43253e-09
5.25502e-09
5.07303e-09
4.88735e-09
4.69879e-09
4.50814e-09
4.31622e-09
4.12381e-09
3.93168e-09
3.74058e-09
3.5512e-09
3.36421e-09
3.18023e-09
2.99984e-09
2.82354e-09
2.65179e-09
2.48498e-09
2.32346e-09
2.16751e-09
2.01733e-09
1.8731e-09
1.73491e-09
1.60283e-09
1.47685e-09
1.35694e-09
1.24302e-09
1.13495e-09
1.03259e-09
9.35768e-10
8.44282e-10
7.57918e-10
6.76453e-10
5.99659e-10
5.27313e-10
4.59203e-10
3.95137e-10
3.34952e-10
2.78529e-10
2.2581e-10
1.76819e-10
1.317e-10
9.07849e-11
5.47369e-11
2.49578e-11
4.99158e-12
5.44081e-11
4.68121e-10
1.05772e-09
1.75958e-09
2.54404e-09
3.39266e-09
4.29209e-09
5.23188e-09
6.20345e-09
7.19963e-09
8.21436e-09
9.24248e-09
1.02797e-08
1.13224e-08
1.23677e-08
1.34132e-08
1.44571e-08
1.54982e-08
1.65356e-08
1.75688e-08
1.85979e-08
1.96231e-08
2.06448e-08
2.16639e-08
2.26811e-08
2.36977e-08
2.47145e-08
2.57328e-08
2.67537e-08
2.77782e-08
2.88073e-08
2.9842e-08
3.08829e-08
3.19308e-08
3.29859e-08
3.40486e-08
3.51189e-08
3.61967e-08
3.72818e-08
3.83737e-08
3.94715e-08
4.05746e-08
4.16818e-08
4.27919e-08
4.39034e-08
4.50148e-08
4.61243e-08
4.723e-08
4.83297e-08
4.94212e-08
5.05019e-08
5.15694e-08
5.26207e-08
5.3653e-08
5.46631e-08
5.56477e-08
5.66036e-08
5.75271e-08
5.84146e-08
5.92622e-08
6.00662e-08
6.08226e-08
6.15274e-08
6.21764e-08
6.27658e-08
6.32913e-08
6.3749e-08
6.41349e-08
6.4445e-08
6.46755e-08
6.48225e-08
6.48833e-08
6.48586e-08
6.47436e-08
6.45358e-08
6.42337e-08
6.38358e-08
6.33416e-08
6.27508e-08
6.20639e-08
6.12819e-08
6.04064e-08
5.94395e-08
5.8384e-08
5.72434e-08
5.60216e-08
5.4723e-08
5.33528e-08
5.19165e-08
5.042e-08
4.88697e-08
4.72723e-08
4.56346e-08
4.39638e-08
4.22672e-08
4.05518e-08
3.8825e-08
3.70939e-08
3.53654e-08
3.3646e-08
3.19423e-08
3.02601e-08
2.8605e-08
2.69822e-08
2.53962e-08
2.38511e-08
2.23506e-08
2.08976e-08
1.94947e-08
1.81438e-08
1.68464e-08
1.56034e-08
1.44152e-08
1.32819e-08
1.22031e-08
1.11782e-08
1.0206e-08
9.28518e-09
8.41422e-09
7.5913e-09
6.81447e-09
6.08172e-09
5.391e-09
4.74029e-09
4.12767e-09
3.55139e-09
3.01e-09
2.5024e-09
2.02804e-09
1.58709e-09
1.1808e-09
8.11997e-10
4.86246e-10
2.14755e-10
2.49473e-11
1.19365e-10
1.06027e-09
2.41606e-09
4.03619e-09
5.84902e-09
7.81059e-09
9.88956e-09
1.20616e-08
1.43068e-08
1.66086e-08
1.89531e-08
2.13283e-08
2.37244e-08
2.61329e-08
2.85473e-08
3.09619e-08
3.33729e-08
3.57771e-08
3.81727e-08
4.05587e-08
4.29351e-08
4.53023e-08
4.76617e-08
5.00149e-08
5.23641e-08
5.47116e-08
5.706e-08
5.94119e-08
6.177e-08
6.41366e-08
6.65142e-08
6.89047e-08
7.13099e-08
7.37312e-08
7.61695e-08
7.86255e-08
8.10993e-08
8.35906e-08
8.60988e-08
8.86225e-08
9.11604e-08
9.37102e-08
9.62695e-08
9.88354e-08
1.01405e-07
1.03973e-07
1.06538e-07
1.09093e-07
1.11634e-07
1.14156e-07
1.16652e-07
1.19118e-07
1.21546e-07
1.23929e-07
1.26261e-07
1.28534e-07
1.3074e-07
1.3287e-07
1.34916e-07
1.3687e-07
1.38723e-07
1.40465e-07
1.42088e-07
1.43581e-07
1.44936e-07
1.46143e-07
1.47193e-07
1.48077e-07
1.48787e-07
1.49313e-07
1.49646e-07
1.49779e-07
1.49716e-07
1.49444e-07
1.48958e-07
1.48254e-07
1.47329e-07
1.46182e-07
1.44812e-07
1.4322e-07
1.41409e-07
1.39382e-07
1.37144e-07
1.34703e-07
1.32065e-07
1.2924e-07
1.26238e-07
1.23071e-07
1.19752e-07
1.16295e-07
1.12714e-07
1.09024e-07
1.05242e-07
1.01385e-07
9.74673e-08
9.35074e-08
8.95215e-08
8.5526e-08
8.15368e-08
7.75693e-08
7.36381e-08
6.97569e-08
6.59386e-08
6.2195e-08
5.85367e-08
5.49731e-08
5.15124e-08
4.81617e-08
4.49265e-08
4.18116e-08
3.88201e-08
3.59542e-08
3.3215e-08
3.06025e-08
2.81159e-08
2.57535e-08
2.35128e-08
2.13906e-08
1.93833e-08
1.74867e-08
1.56963e-08
1.40075e-08
1.24156e-08
1.09158e-08
9.50372e-09
8.17537e-09
6.9273e-09
5.75701e-09
4.66321e-09
3.64632e-09
2.70928e-09
1.85884e-09
1.10847e-09
4.85435e-10
5.46196e-11
1.98066e-10
1.77143e-09
4.05356e-09
6.79082e-09
9.85916e-09
1.31819e-08
1.67046e-08
2.03854e-08
2.41903e-08
2.80909e-08
3.20635e-08
3.60879e-08
4.01473e-08
4.42275e-08
4.83172e-08
5.24071e-08
5.64905e-08
6.05623e-08
6.46193e-08
6.86599e-08
7.26841e-08
7.66929e-08
8.06885e-08
8.46738e-08
8.86525e-08
9.26286e-08
9.66067e-08
1.00591e-07
1.04586e-07
1.08597e-07
1.12626e-07
1.16677e-07
1.20754e-07
1.24859e-07
1.28993e-07
1.33157e-07
1.37352e-07
1.41577e-07
1.4583e-07
1.5011e-07
1.54413e-07
1.58737e-07
1.63076e-07
1.67427e-07
1.71782e-07
1.76136e-07
1.80482e-07
1.84812e-07
1.89117e-07
1.93388e-07
1.97616e-07
2.01791e-07
2.059e-07
2.09933e-07
2.13877e-07
2.1772e-07
2.21448e-07
2.25047e-07
2.28503e-07
2.31801e-07
2.34927e-07
2.37864e-07
2.40597e-07
2.43111e-07
2.4539e-07
2.47417e-07
2.49179e-07
2.50659e-07
2.51843e-07
2.52718e-07
2.53262e-07
2.5347e-07
2.53348e-07
2.52871e-07
2.52032e-07
2.50824e-07
2.49242e-07
2.47284e-07
2.44949e-07
2.4224e-07
2.3916e-07
2.35715e-07
2.31915e-07
2.2777e-07
2.23293e-07
2.18501e-07
2.1341e-07
2.08041e-07
2.02415e-07
1.96556e-07
1.90488e-07
1.84238e-07
1.77833e-07
1.713e-07
1.64668e-07
1.57964e-07
1.51218e-07
1.44457e-07
1.37707e-07
1.30996e-07
1.24346e-07
1.17783e-07
1.11327e-07
1.04998e-07
9.88137e-08
9.27909e-08
8.69429e-08
8.12815e-08
7.58162e-08
7.05546e-08
6.55021e-08
6.06625e-08
5.60372e-08
5.16266e-08
4.74288e-08
4.3441e-08
3.9659e-08
3.60773e-08
3.26896e-08
2.94889e-08
2.64676e-08
2.36177e-08
2.09313e-08
1.84004e-08
1.60174e-08
1.37756e-08
1.16691e-08
9.69385e-09
7.84762e-09
6.1313e-09
4.55013e-09
3.11613e-09
1.85301e-09
8.08095e-10
9.03012e-11
2.87487e-10
2.57745e-09
5.91139e-09
9.92148e-09
1.44245e-08
1.93056e-08
2.44834e-08
2.98949e-08
3.54895e-08
4.12251e-08
4.70665e-08
5.29838e-08
5.89522e-08
6.49508e-08
7.0963e-08
7.69752e-08
8.29773e-08
8.89621e-08
9.4925e-08
1.00864e-07
1.06778e-07
1.1267e-07
1.18543e-07
1.24401e-07
1.3025e-07
1.36096e-07
1.41945e-07
1.47804e-07
1.5368e-07
1.59579e-07
1.65507e-07
1.71468e-07
1.77468e-07
1.83508e-07
1.89593e-07
1.95722e-07
2.01896e-07
2.08114e-07
2.14374e-07
2.20672e-07
2.27005e-07
2.33367e-07
2.3975e-07
2.46149e-07
2.52554e-07
2.58955e-07
2.65342e-07
2.71703e-07
2.78026e-07
2.84297e-07
2.90502e-07
2.96626e-07
3.02651e-07
3.08562e-07
3.1434e-07
3.19966e-07
3.2542e-07
3.30684e-07
3.35735e-07
3.40552e-07
3.45113e-07
3.49396e-07
3.53379e-07
3.57037e-07
3.60349e-07
3.63292e-07
3.65844e-07
3.67982e-07
3.69687e-07
3.70937e-07
3.71698e-07
3.71971e-07
3.7176e-07
3.71029e-07
3.69767e-07
3.67964e-07
3.65613e-07
3.62711e-07
3.59258e-07
3.55256e-07
3.5071e-07
3.45631e-07
3.4003e-07
3.33925e-07
3.27334e-07
3.2028e-07
3.1279e-07
3.04892e-07
2.96619e-07
2.88005e-07
2.79085e-07
2.699e-07
2.60488e-07
2.50891e-07
2.41149e-07
2.31305e-07
2.21401e-07
2.11476e-07
2.0157e-07
1.91722e-07
1.81968e-07
1.72342e-07
1.62876e-07
1.53598e-07
1.44535e-07
1.3571e-07
1.27143e-07
1.18851e-07
1.10848e-07
1.03145e-07
9.57498e-08
8.86672e-08
8.18998e-08
7.54473e-08
6.93073e-08
6.34752e-08
5.79446e-08
5.27076e-08
4.77547e-08
4.30755e-08
3.86588e-08
3.44928e-08
3.05658e-08
2.68661e-08
2.33826e-08
2.01054e-08
1.7026e-08
1.41383e-08
1.14395e-08
8.93106e-09
6.6212e-09
4.52821e-09
2.68774e-09
1.16945e-09
1.3036e-10
3.86185e-10
3.46626e-09
7.96038e-09
1.33768e-08
1.94679e-08
2.6077e-08
3.3092e-08
4.04264e-08
4.80106e-08
5.57869e-08
6.37068e-08
7.17298e-08
7.98218e-08
8.79546e-08
9.61052e-08
1.04256e-07
1.12392e-07
1.20504e-07
1.28587e-07
1.36637e-07
1.44654e-07
1.5264e-07
1.60602e-07
1.68543e-07
1.76473e-07
1.844e-07
1.92332e-07
2.0028e-07
2.0825e-07
2.16253e-07
2.24296e-07
2.32386e-07
2.40527e-07
2.48725e-07
2.56982e-07
2.653e-07
2.73679e-07
2.82116e-07
2.90609e-07
2.99152e-07
3.0774e-07
3.16365e-07
3.25017e-07
3.33686e-07
3.4236e-07
3.51025e-07
3.59667e-07
3.68269e-07
3.76816e-07
3.85287e-07
3.93664e-07
4.01926e-07
4.1005e-07
4.18015e-07
4.25794e-07
4.33364e-07
4.40699e-07
4.4777e-07
4.54551e-07
4.61012e-07
4.67124e-07
4.72858e-07
4.78184e-07
4.8307e-07
4.87488e-07
4.91406e-07
4.94795e-07
4.97626e-07
4.99872e-07
5.01505e-07
5.02473e-07
5.0279e-07
5.02456e-07
5.01421e-07
4.99669e-07
4.97187e-07
4.93967e-07
4.90005e-07
4.85299e-07
4.79853e-07
4.73675e-07
4.66776e-07
4.59175e-07
4.50892e-07
4.41954e-07
4.32391e-07
4.2224e-07
4.11538e-07
4.0033e-07
3.88662e-07
3.76583e-07
3.64145e-07
3.51403e-07
3.38412e-07
3.25228e-07
3.11909e-07
2.9851e-07
2.85086e-07
2.71692e-07
2.58378e-07
2.45195e-07
2.32188e-07
2.19401e-07
2.06871e-07
1.94636e-07
1.82725e-07
1.71165e-07
1.5998e-07
1.49188e-07
1.38803e-07
1.28836e-07
1.19292e-07
1.10175e-07
1.01485e-07
9.32171e-08
8.53655e-08
7.7921e-08
7.08727e-08
6.42075e-08
5.79113e-08
5.19688e-08
4.63639e-08
4.10807e-08
3.61032e-08
3.14166e-08
2.70075e-08
2.28645e-08
1.89797e-08
1.53494e-08
1.19762e-08
8.87166e-09
6.06113e-09
3.5932e-09
1.56133e-09
1.73845e-10
4.93415e-10
4.43145e-09
1.01853e-08
1.71298e-08
2.49484e-08
3.34395e-08
4.24575e-08
5.18902e-08
6.16466e-08
7.16518e-08
8.18428e-08
9.2167e-08
1.0258e-07
1.13045e-07
1.23534e-07
1.34021e-07
1.4449e-07
1.54928e-07
1.65327e-07
1.75684e-07
1.85999e-07
1.96275e-07
2.06519e-07
2.16738e-07
2.26943e-07
2.37145e-07
2.47355e-07
2.57586e-07
2.67847e-07
2.78151e-07
2.88507e-07
2.98924e-07
3.09407e-07
3.19963e-07
3.30593e-07
3.41301e-07
3.52084e-07
3.62941e-07
3.73865e-07
3.84851e-07
3.95889e-07
4.0697e-07
4.1808e-07
4.29206e-07
4.4033e-07
4.51437e-07
4.62506e-07
4.73518e-07
4.84449e-07
4.95275e-07
5.05973e-07
5.16514e-07
5.26872e-07
5.37017e-07
5.46918e-07
5.56544e-07
5.65861e-07
5.74836e-07
5.83433e-07
5.91618e-07
5.99352e-07
6.066e-07
6.13322e-07
6.19482e-07
6.25041e-07
6.29962e-07
6.34208e-07
6.37742e-07
6.40529e-07
6.42536e-07
6.43684e-07
6.44019e-07
6.43522e-07
6.4213e-07
6.39823e-07
6.36586e-07
6.32409e-07
6.27284e-07
6.2121e-07
6.14192e-07
6.06239e-07
5.97366e-07
5.87595e-07
5.76952e-07
5.65471e-07
5.53192e-07
5.40158e-07
5.26421e-07
5.12034e-07
4.97059e-07
4.81559e-07
4.656e-07
4.49252e-07
4.32587e-07
4.15677e-07
3.98595e-07
3.81413e-07
3.64203e-07
3.47035e-07
3.29973e-07
3.13083e-07
2.96423e-07
2.80048e-07
2.64009e-07
2.4835e-07
2.33111e-07
2.18327e-07
2.04027e-07
1.90233e-07
1.76964e-07
1.64233e-07
1.52047e-07
1.40409e-07
1.29318e-07
1.1877e-07
1.08755e-07
9.92612e-08
9.02743e-08
8.17774e-08
7.37519e-08
6.61779e-08
5.90348e-08
5.23019e-08
4.59588e-08
3.99864e-08
3.43677e-08
2.90884e-08
2.41385e-08
1.95136e-08
1.52175e-08
1.12657e-08
7.69103e-09
4.55565e-09
1.9779e-09
2.20091e-10
6.08807e-10
5.46985e-09
1.25787e-08
2.11672e-08
3.08458e-08
4.13646e-08
5.25427e-08
6.42396e-08
7.63416e-08
8.87548e-08
1.014e-07
1.14212e-07
1.27135e-07
1.40122e-07
1.53138e-07
1.66152e-07
1.79143e-07
1.92095e-07
2.04999e-07
2.1785e-07
2.30648e-07
2.43398e-07
2.56109e-07
2.68789e-07
2.81453e-07
2.94113e-07
3.06784e-07
3.1948e-07
3.32216e-07
3.45004e-07
3.57856e-07
3.70783e-07
3.83791e-07
3.96886e-07
4.10071e-07
4.23348e-07
4.36714e-07
4.50164e-07
4.63692e-07
4.77289e-07
4.90943e-07
5.04639e-07
5.18362e-07
5.32094e-07
5.45813e-07
5.59498e-07
5.73125e-07
5.86667e-07
6.00098e-07
6.13388e-07
6.26506e-07
6.3942e-07
6.52096e-07
6.64498e-07
6.7659e-07
6.88333e-07
6.99687e-07
7.10613e-07
7.21068e-07
7.31009e-07
7.40393e-07
7.49174e-07
7.57308e-07
7.6475e-07
7.71454e-07
7.77375e-07
7.82468e-07
7.86689e-07
7.89997e-07
7.9235e-07
7.93639e-07
7.93958e-07
7.93251e-07
7.91448e-07
7.88524e-07
7.84462e-07
7.79248e-07
7.72872e-07
7.65334e-07
7.56636e-07
7.46791e-07
7.35816e-07
7.23737e-07
7.10586e-07
6.96405e-07
6.81239e-07
6.65145e-07
6.48183e-07
6.30422e-07
6.11934e-07
5.92797e-07
5.73096e-07
5.52915e-07
5.32343e-07
5.11469e-07
4.90385e-07
4.6918e-07
4.47942e-07
4.26758e-07
4.05709e-07
3.84876e-07
3.6433e-07
3.44141e-07
3.24371e-07
3.05075e-07
2.86303e-07
2.68096e-07
2.50491e-07
2.33515e-07
2.17191e-07
2.01533e-07
1.8655e-07
1.72247e-07
1.5862e-07
1.45664e-07
1.33365e-07
1.2171e-07
1.1068e-07
1.00253e-07
9.04062e-08
8.11145e-08
7.23522e-08
6.40937e-08
5.63136e-08
4.89886e-08
4.20975e-08
3.5623e-08
2.9553e-08
2.38827e-08
1.86172e-08
1.37759e-08
9.39965e-09
5.56451e-09
2.41461e-09
2.68587e-10
7.32224e-10
6.58032e-09
1.51378e-08
2.54843e-08
3.71525e-08
4.98416e-08
6.33329e-08
7.7456e-08
9.2073e-08
1.07069e-07
1.22348e-07
1.3783e-07
1.53447e-07
1.69142e-07
1.84872e-07
2.00599e-07
2.16297e-07
2.31947e-07
2.47538e-07
2.63064e-07
2.78525e-07
2.93928e-07
3.09282e-07
3.246e-07
3.39896e-07
3.55188e-07
3.70493e-07
3.85827e-07
4.01208e-07
4.16651e-07
4.32168e-07
4.47771e-07
4.63468e-07
4.79266e-07
4.95166e-07
5.11167e-07
5.27268e-07
5.4346e-07
5.59735e-07
5.7608e-07
5.92479e-07
6.08915e-07
6.25367e-07
6.41813e-07
6.58227e-07
6.74583e-07
6.90851e-07
7.07e-07
7.22998e-07
7.38809e-07
7.54397e-07
7.69724e-07
7.84751e-07
7.99436e-07
8.13737e-07
8.27608e-07
8.41005e-07
8.53881e-07
8.66186e-07
8.77873e-07
8.88889e-07
8.99184e-07
9.08706e-07
9.17402e-07
9.2522e-07
9.32107e-07
9.3801e-07
9.4288e-07
9.46665e-07
9.49316e-07
9.50693e-07
9.50952e-07
9.49982e-07
9.47709e-07
9.44108e-07
9.39154e-07
9.32832e-07
9.2513e-07
9.16046e-07
9.05584e-07
8.93755e-07
8.8058e-07
8.66088e-07
8.50317e-07
8.33316e-07
8.15138e-07
7.9585e-07
7.75522e-07
7.54237e-07
7.32081e-07
7.09147e-07
6.85535e-07
6.61346e-07
6.36687e-07
6.11666e-07
5.86392e-07
5.60972e-07
5.35513e-07
5.1012e-07
4.84891e-07
4.59921e-07
4.353e-07
4.11109e-07
3.87424e-07
3.64312e-07
3.41833e-07
3.20037e-07
2.98966e-07
2.78655e-07
2.59129e-07
2.40406e-07
2.22498e-07
2.05406e-07
1.89129e-07
1.73656e-07
1.58974e-07
1.45064e-07
1.31903e-07
1.19465e-07
1.0772e-07
9.66401e-08
8.61925e-08
7.63464e-08
6.70715e-08
5.83395e-08
5.01252e-08
4.24082e-08
3.51741e-08
2.84176e-08
2.21452e-08
1.63805e-08
1.11723e-08
6.61124e-09
2.86778e-09
3.1892e-10
8.63686e-10
7.76303e-09
1.78632e-08
3.00819e-08
4.38692e-08
5.88709e-08
7.48283e-08
9.15395e-08
1.0884e-07
1.26594e-07
1.44686e-07
1.6302e-07
1.81515e-07
2.00104e-07
2.18733e-07
2.37357e-07
2.55946e-07
2.74476e-07
2.92933e-07
3.11311e-07
3.29612e-07
3.4784e-07
3.66008e-07
3.84132e-07
4.02228e-07
4.20316e-07
4.38416e-07
4.56549e-07
4.74733e-07
4.92984e-07
5.11319e-07
5.29747e-07
5.48279e-07
5.66919e-07
5.85668e-07
6.04525e-07
6.23484e-07
6.42535e-07
6.61665e-07
6.80858e-07
7.00095e-07
7.19354e-07
7.38609e-07
7.57834e-07
7.76998e-07
7.96069e-07
8.15012e-07
8.33793e-07
8.52372e-07
8.7071e-07
8.88766e-07
9.06495e-07
9.23854e-07
9.40795e-07
9.57271e-07
9.73232e-07
9.88627e-07
1.0034e-06
1.01751e-06
1.03088e-06
1.04347e-06
1.05522e-06
1.06606e-06
1.07595e-06
1.08482e-06
1.0926e-06
1.09925e-06
1.1047e-06
1.1089e-06
1.11178e-06
1.11318e-06
1.11332e-06
1.11203e-06
1.10922e-06
1.10488e-06
1.09897e-06
1.09148e-06
1.08239e-06
1.07169e-06
1.0594e-06
1.04552e-06
1.03008e-06
1.01311e-06
9.94643e-07
9.74745e-07
9.53476e-07
9.30909e-07
9.07129e-07
8.82227e-07
8.56304e-07
8.29469e-07
8.01836e-07
7.73525e-07
7.4466e-07
7.15366e-07
6.85771e-07
6.56002e-07
6.26183e-07
5.96438e-07
5.66884e-07
5.37632e-07
5.08788e-07
4.80449e-07
4.52704e-07
4.25633e-07
3.99306e-07
3.73783e-07
3.49114e-07
3.2534e-07
3.0249e-07
2.80587e-07
2.59642e-07
2.39659e-07
2.20633e-07
2.02553e-07
1.85403e-07
1.69159e-07
1.53793e-07
1.39275e-07
1.2557e-07
1.12643e-07
1.00455e-07
8.8971e-08
7.81541e-08
6.79712e-08
5.83929e-08
4.93951e-08
4.09616e-08
3.30862e-08
2.57769e-08
1.90615e-08
1.29971e-08
7.68884e-09
3.33438e-09
3.70752e-10
1.00332e-09
9.01911e-09
2.07576e-08
3.49644e-08
5.10025e-08
6.84611e-08
8.70396e-08
1.06503e-07
1.26659e-07
1.47347e-07
1.68434e-07
1.89805e-07
2.11364e-07
2.33033e-07
2.54747e-07
2.76454e-07
2.98116e-07
3.19707e-07
3.41208e-07
3.62613e-07
3.83923e-07
4.05144e-07
4.26291e-07
4.4738e-07
4.68433e-07
4.89471e-07
5.10517e-07
5.31594e-07
5.52722e-07
5.7392e-07
5.95204e-07
6.16585e-07
6.38072e-07
6.59668e-07
6.81374e-07
7.03185e-07
7.25092e-07
7.47082e-07
7.69138e-07
7.91241e-07
8.13366e-07
8.35486e-07
8.57573e-07
8.79593e-07
9.01511e-07
9.23291e-07
9.44894e-07
9.66278e-07
9.87402e-07
1.00822e-06
1.02869e-06
1.04875e-06
1.06837e-06
1.08749e-06
1.10606e-06
1.12402e-06
1.14132e-06
1.1579e-06
1.1737e-06
1.18866e-06
1.20272e-06
1.21582e-06
1.22789e-06
1.23886e-06
1.24868e-06
1.25727e-06
1.26457e-06
1.27051e-06
1.27503e-06
1.27804e-06
1.27938e-06
1.27935e-06
1.27765e-06
1.27424e-06
1.26909e-06
1.26217e-06
1.25345e-06
1.24292e-06
1.23058e-06
1.21641e-06
1.20045e-06
1.1827e-06
1.16321e-06
1.14203e-06
1.1192e-06
1.09482e-06
1.06894e-06
1.04168e-06
1.01313e-06
9.83403e-07
9.52628e-07
9.20931e-07
8.88448e-07
8.55321e-07
8.21693e-07
7.8771e-07
7.53517e-07
7.19259e-07
6.85077e-07
6.51105e-07
6.17475e-07
5.84308e-07
5.51717e-07
5.19806e-07
4.88668e-07
4.58386e-07
4.29029e-07
4.00656e-07
3.73316e-07
3.47042e-07
3.21862e-07
2.97788e-07
2.74824e-07
2.52967e-07
2.32203e-07
2.12511e-07
1.93865e-07
1.76233e-07
1.59577e-07
1.43858e-07
1.29034e-07
1.15061e-07
1.01896e-07
8.94987e-08
7.78291e-08
6.68536e-08
5.65445e-08
4.68832e-08
3.78627e-08
2.94926e-08
2.18047e-08
1.48643e-08
8.79162e-09
3.81196e-09
4.2381e-10
1.15132e-09
1.03504e-08
2.38251e-08
4.01388e-08
5.85626e-08
7.8626e-08
9.99843e-08
1.22367e-07
1.45553e-07
1.69358e-07
1.93624e-07
2.1822e-07
2.43034e-07
2.67972e-07
2.9296e-07
3.17936e-07
3.42855e-07
3.67685e-07
3.92406e-07
4.17008e-07
4.41493e-07
4.65868e-07
4.90149e-07
5.14355e-07
5.38509e-07
5.62637e-07
5.86764e-07
6.10914e-07
6.35109e-07
6.5937e-07
6.83712e-07
7.08147e-07
7.32681e-07
7.57318e-07
7.82055e-07
8.06883e-07
8.31791e-07
8.56761e-07
8.81773e-07
9.06802e-07
9.3182e-07
9.56794e-07
9.8169e-07
1.00647e-06
1.0311e-06
1.05553e-06
1.07972e-06
1.10363e-06
1.1272e-06
1.1504e-06
1.17317e-06
1.19546e-06
1.21722e-06
1.23838e-06
1.25891e-06
1.27873e-06
1.29779e-06
1.31604e-06
1.33339e-06
1.3498e-06
1.36518e-06
1.37949e-06
1.39264e-06
1.40456e-06
1.41519e-06
1.42445e-06
1.43228e-06
1.43859e-06
1.44332e-06
1.44633e-06
1.44756e-06
1.44724e-06
1.44506e-06
1.44098e-06
1.43496e-06
1.42697e-06
1.41698e-06
1.40498e-06
1.39095e-06
1.3749e-06
1.35685e-06
1.3368e-06
1.31481e-06
1.29092e-06
1.2652e-06
1.23772e-06
1.20857e-06
1.17786e-06
1.14569e-06
1.1122e-06
1.07751e-06
1.04177e-06
1.00514e-06
9.67766e-07
9.2981e-07
8.91438e-07
8.52813e-07
8.14097e-07
7.75449e-07
7.37025e-07
6.98971e-07
6.61428e-07
6.24526e-07
5.88383e-07
5.53108e-07
5.18794e-07
4.85525e-07
4.53369e-07
4.22381e-07
3.92604e-07
3.64066e-07
3.36786e-07
3.10768e-07
2.86008e-07
2.62491e-07
2.40195e-07
2.19088e-07
1.99133e-07
1.80289e-07
1.62509e-07
1.45746e-07
1.29948e-07
1.15068e-07
1.01057e-07
8.7871e-08
7.5471e-08
6.38257e-08
5.29135e-08
4.2727e-08
3.32766e-08
2.45985e-08
1.67662e-08
9.91506e-09
4.29855e-09
4.77874e-10
1.30793e-09
1.1759e-08
2.70707e-08
4.56138e-08
6.65623e-08
8.93829e-08
1.13685e-07
1.3916e-07
1.65557e-07
1.92664e-07
2.203e-07
2.48314e-07
2.76576e-07
3.04977e-07
3.3343e-07
3.61862e-07
3.90221e-07
4.18468e-07
4.4658e-07
4.74545e-07
5.02364e-07
5.30045e-07
5.57605e-07
5.85066e-07
6.12453e-07
6.39795e-07
6.67118e-07
6.94449e-07
7.21812e-07
7.49226e-07
7.76708e-07
8.04268e-07
8.31912e-07
8.59639e-07
8.87443e-07
9.15314e-07
9.43235e-07
9.71184e-07
9.99136e-07
1.02706e-06
1.05493e-06
1.0827e-06
1.11033e-06
1.13779e-06
1.16502e-06
1.19199e-06
1.21865e-06
1.24495e-06
1.27084e-06
1.29626e-06
1.32117e-06
1.34551e-06
1.36923e-06
1.39227e-06
1.41457e-06
1.43607e-06
1.45671e-06
1.47643e-06
1.49515e-06
1.51281e-06
1.52934e-06
1.54467e-06
1.55872e-06
1.57142e-06
1.5827e-06
1.59247e-06
1.60066e-06
1.6072e-06
1.61201e-06
1.61488e-06
1.61591e-06
1.61519e-06
1.61244e-06
1.60761e-06
1.60066e-06
1.59156e-06
1.58028e-06
1.56679e-06
1.55109e-06
1.53317e-06
1.51305e-06
1.49076e-06
1.46632e-06
1.4398e-06
1.41126e-06
1.38077e-06
1.34845e-06
1.31438e-06
1.2787e-06
1.24154e-06
1.20305e-06
1.16337e-06
1.12268e-06
1.08115e-06
1.03894e-06
9.96246e-07
9.53243e-07
9.10113e-07
8.67032e-07
8.24174e-07
7.81704e-07
7.39781e-07
6.9855e-07
6.58149e-07
6.187e-07
5.80312e-07
5.4308e-07
5.07084e-07
4.72389e-07
4.39044e-07
4.07086e-07
3.76534e-07
3.47398e-07
3.19673e-07
2.93344e-07
2.68385e-07
2.44763e-07
2.22437e-07
2.01358e-07
1.81475e-07
1.62733e-07
1.45076e-07
1.28448e-07
1.12795e-07
9.80665e-08
8.42188e-08
7.1216e-08
5.9034e-08
4.76638e-08
3.71173e-08
2.74344e-08
1.86971e-08
1.10558e-08
4.79268e-09
5.32781e-10
1.47342e-09
1.32474e-08
3.05002e-08
5.13991e-08
7.50158e-08
1.00751e-07
1.28165e-07
1.56912e-07
1.86706e-07
2.17307e-07
2.48511e-07
2.80141e-07
3.12049e-07
3.4411e-07
3.7622e-07
4.08296e-07
4.40277e-07
4.72116e-07
5.03785e-07
5.35272e-07
5.66575e-07
5.97703e-07
6.28674e-07
6.59513e-07
6.90248e-07
7.20907e-07
7.51521e-07
7.82118e-07
8.12722e-07
8.43352e-07
8.74025e-07
9.04749e-07
9.35528e-07
9.66357e-07
9.97227e-07
1.02812e-06
1.05902e-06
1.0899e-06
1.12073e-06
1.15148e-06
1.1821e-06
1.21255e-06
1.2428e-06
1.27279e-06
1.30249e-06
1.33184e-06
1.36079e-06
1.38929e-06
1.41729e-06
1.44474e-06
1.47158e-06
1.49776e-06
1.52322e-06
1.54791e-06
1.57175e-06
1.5947e-06
1.61669e-06
1.63764e-06
1.6575e-06
1.67619e-06
1.69364e-06
1.70977e-06
1.72451e-06
1.73778e-06
1.7495e-06
1.75959e-06
1.76798e-06
1.77457e-06
1.77929e-06
1.78188e-06
1.78261e-06
1.78139e-06
1.77797e-06
1.77232e-06
1.7644e-06
1.75415e-06
1.74156e-06
1.7266e-06
1.70926e-06
1.68953e-06
1.66743e-06
1.64298e-06
1.61621e-06
1.58718e-06
1.55597e-06
1.52264e-06
1.48729e-06
1.45005e-06
1.41103e-06
1.37039e-06
1.32826e-06
1.28481e-06
1.24023e-06
1.19469e-06
1.14838e-06
1.1015e-06
1.05424e-06
1.0068e-06
9.59378e-07
9.12159e-07
8.6533e-07
8.19067e-07
7.73534e-07
7.28885e-07
6.8526e-07
6.42782e-07
6.01562e-07
5.61691e-07
5.23246e-07
4.86286e-07
4.50854e-07
4.16976e-07
3.84665e-07
3.53919e-07
3.24722e-07
2.97048e-07
2.7086e-07
2.46112e-07
2.22754e-07
2.00726e-07
1.79969e-07
1.60419e-07
1.42013e-07
1.24691e-07
1.08397e-07
9.308e-08
7.87009e-08
6.52322e-08
5.26633e-08
4.10068e-08
3.03066e-08
2.06529e-08
1.22114e-08
5.29335e-09
5.88419e-10
1.64807e-09
1.48183e-08
3.41197e-08
5.75049e-08
8.39381e-08
1.12751e-07
1.43453e-07
1.75655e-07
2.0904e-07
2.43334e-07
2.78307e-07
3.13757e-07
3.49514e-07
3.85433e-07
4.21395e-07
4.57303e-07
4.93084e-07
5.28686e-07
5.64074e-07
5.99231e-07
6.34157e-07
6.68859e-07
7.03359e-07
7.37681e-07
7.71856e-07
8.05915e-07
8.3989e-07
8.73809e-07
9.07698e-07
9.41576e-07
9.75457e-07
1.00935e-06
1.04325e-06
1.07715e-06
1.11104e-06
1.1449e-06
1.1787e-06
1.21242e-06
1.24601e-06
1.27944e-06
1.31267e-06
1.34566e-06
1.37834e-06
1.41069e-06
1.44264e-06
1.47415e-06
1.50517e-06
1.53564e-06
1.56551e-06
1.59473e-06
1.62325e-06
1.651e-06
1.67794e-06
1.704e-06
1.72912e-06
1.75324e-06
1.7763e-06
1.79822e-06
1.81894e-06
1.8384e-06
1.8565e-06
1.87318e-06
1.88837e-06
1.90197e-06
1.91391e-06
1.9241e-06
1.93248e-06
1.93894e-06
1.94339e-06
1.94556e-06
1.94588e-06
1.94404e-06
1.93987e-06
1.93334e-06
1.9244e-06
1.91301e-06
1.89914e-06
1.88275e-06
1.86384e-06
1.8424e-06
1.81843e-06
1.79197e-06
1.76304e-06
1.7317e-06
1.69801e-06
1.66205e-06
1.62393e-06
1.58375e-06
1.54164e-06
1.49775e-06
1.45224e-06
1.40528e-06
1.35704e-06
1.30772e-06
1.25753e-06
1.20666e-06
1.15532e-06
1.10374e-06
1.05212e-06
1.00067e-06
9.49582e-07
8.99063e-07
8.49292e-07
8.00441e-07
7.52666e-07
7.0611e-07
6.60898e-07
6.17137e-07
5.74915e-07
5.34303e-07
4.95354e-07
4.58102e-07
4.22565e-07
3.88743e-07
3.56624e-07
3.26181e-07
2.97375e-07
2.70158e-07
2.44474e-07
2.2026e-07
1.97449e-07
1.75971e-07
1.55756e-07
1.36738e-07
1.18854e-07
1.02047e-07
8.62738e-08
7.15022e-08
5.77204e-08
4.49412e-08
3.32121e-08
2.26316e-08
1.33807e-08
5.80001e-09
6.44726e-10
1.83217e-09
1.64741e-08
3.79349e-08
6.39413e-08
9.33443e-08
1.25403e-07
1.59573e-07
1.95423e-07
2.32596e-07
2.70789e-07
3.09739e-07
3.49217e-07
3.8903e-07
4.29009e-07
4.69017e-07
5.08943e-07
5.487e-07
5.88228e-07
6.27485e-07
6.66453e-07
7.05126e-07
7.43515e-07
7.81641e-07
8.1953e-07
8.57215e-07
8.94731e-07
9.32108e-07
9.69377e-07
1.00656e-06
1.04368e-06
1.08075e-06
1.11777e-06
1.15474e-06
1.19164e-06
1.22846e-06
1.26518e-06
1.30176e-06
1.33816e-06
1.37436e-06
1.41031e-06
1.44595e-06
1.48125e-06
1.51615e-06
1.5506e-06
1.58456e-06
1.61797e-06
1.65078e-06
1.68294e-06
1.7144e-06
1.74509e-06
1.77498e-06
1.804e-06
1.8321e-06
1.85922e-06
1.8853e-06
1.91028e-06
1.9341e-06
1.95669e-06
1.97797e-06
1.99788e-06
2.01635e-06
2.0333e-06
2.04865e-06
2.06232e-06
2.07423e-06
2.0843e-06
2.09244e-06
2.09859e-06
2.10254e-06
2.1042e-06
2.10398e-06
2.10141e-06
2.09642e-06
2.08897e-06
2.07901e-06
2.06649e-06
2.05138e-06
2.03365e-06
2.01329e-06
1.99028e-06
1.96463e-06
1.93635e-06
1.90549e-06
1.87208e-06
1.83619e-06
1.79789e-06
1.75729e-06
1.71448e-06
1.6696e-06
1.6228e-06
1.57422e-06
1.52405e-06
1.47246e-06
1.41967e-06
1.36586e-06
1.31127e-06
1.25611e-06
1.2006e-06
1.14498e-06
1.08946e-06
1.03427e-06
9.79624e-07
9.25714e-07
8.72736e-07
8.20867e-07
7.70267e-07
7.21078e-07
6.73424e-07
6.2741e-07
5.8312e-07
5.40617e-07
4.99946e-07
4.61132e-07
4.24181e-07
3.89084e-07
3.55816e-07
3.24338e-07
2.94599e-07
2.6654e-07
2.40094e-07
2.15186e-07
1.91742e-07
1.69685e-07
1.48941e-07
1.29441e-07
1.11123e-07
9.39352e-08
7.78441e-08
6.28347e-08
4.89199e-08
3.61505e-08
2.46328e-08
1.45634e-08
6.31255e-09
7.0169e-10
2.02601e-09
1.82174e-08
4.19518e-08
7.07182e-08
1.03249e-07
1.38727e-07
1.76551e-07
2.16246e-07
2.57414e-07
2.99716e-07
3.42855e-07
3.86575e-07
4.30651e-07
4.74893e-07
5.19142e-07
5.63267e-07
6.07171e-07
6.5078e-07
6.94048e-07
7.3695e-07
7.79481e-07
8.21649e-07
8.63477e-07
9.04995e-07
9.46235e-07
9.87233e-07
1.02802e-06
1.06864e-06
1.10909e-06
1.14942e-06
1.18961e-06
1.22968e-06
1.26962e-06
1.3094e-06
1.34902e-06
1.38844e-06
1.42762e-06
1.46653e-06
1.50512e-06
1.54335e-06
1.58116e-06
1.61852e-06
1.65536e-06
1.69164e-06
1.72731e-06
1.76231e-06
1.79659e-06
1.83011e-06
1.86282e-06
1.89465e-06
1.92556e-06
1.95551e-06
1.98442e-06
2.01225e-06
2.03894e-06
2.06443e-06
2.08866e-06
2.11157e-06
2.13308e-06
2.15312e-06
2.17164e-06
2.18854e-06
2.20376e-06
2.21722e-06
2.22883e-06
2.23853e-06
2.24623e-06
2.25184e-06
2.25511e-06
2.25621e-06
2.25527e-06
2.25189e-06
2.24603e-06
2.23764e-06
2.22667e-06
2.21307e-06
2.19682e-06
2.17787e-06
2.15621e-06
2.13183e-06
2.10472e-06
2.07489e-06
2.04237e-06
2.00721e-06
1.96944e-06
1.92916e-06
1.88644e-06
1.84138e-06
1.79412e-06
1.74478e-06
1.69353e-06
1.64053e-06
1.58597e-06
1.53005e-06
1.47298e-06
1.41498e-06
1.35629e-06
1.29713e-06
1.23776e-06
1.1784e-06
1.11929e-06
1.06067e-06
1.00276e-06
9.45758e-07
8.89872e-07
8.35281e-07
7.82147e-07
7.30613e-07
6.808e-07
6.32809e-07
5.86718e-07
5.42583e-07
5.00441e-07
4.60304e-07
4.2217e-07
3.86016e-07
3.51805e-07
3.19486e-07
2.88996e-07
2.60264e-07
2.33213e-07
2.07759e-07
1.83822e-07
1.61318e-07
1.40172e-07
1.20316e-07
1.01693e-07
8.42638e-08
6.80106e-08
5.2946e-08
3.91238e-08
2.66579e-08
1.57604e-08
6.83129e-09
7.59348e-10
2.22983e-09
2.00506e-08
4.61757e-08
7.78447e-08
1.13665e-07
1.52741e-07
1.94412e-07
2.38154e-07
2.83528e-07
3.30154e-07
3.77701e-07
4.25877e-07
4.74428e-07
5.23135e-07
5.71814e-07
6.20318e-07
6.68529e-07
7.16365e-07
7.63771e-07
8.10717e-07
8.57195e-07
9.03215e-07
9.48799e-07
9.93978e-07
1.03879e-06
1.08327e-06
1.12745e-06
1.17136e-06
1.21503e-06
1.25847e-06
1.30169e-06
1.34469e-06
1.38746e-06
1.42997e-06
1.4722e-06
1.51411e-06
1.55568e-06
1.59685e-06
1.63757e-06
1.67781e-06
1.71751e-06
1.75661e-06
1.79508e-06
1.83285e-06
1.86989e-06
1.90613e-06
1.94153e-06
1.97604e-06
2.00962e-06
2.04222e-06
2.07378e-06
2.10426e-06
2.1336e-06
2.16176e-06
2.18868e-06
2.21431e-06
2.23858e-06
2.26143e-06
2.2828e-06
2.30264e-06
2.32085e-06
2.33739e-06
2.35217e-06
2.36513e-06
2.37619e-06
2.38526e-06
2.39229e-06
2.39717e-06
2.3996e-06
2.40006e-06
2.39826e-06
2.39401e-06
2.38725e-06
2.37793e-06
2.36601e-06
2.35143e-06
2.33416e-06
2.31416e-06
2.29141e-06
2.26589e-06
2.23759e-06
2.20651e-06
2.17268e-06
2.13611e-06
2.09687e-06
2.055e-06
2.01058e-06
1.96372e-06
1.91451e-06
1.86308e-06
1.8096e-06
1.75421e-06
1.6971e-06
1.63848e-06
1.57854e-06
1.51751e-06
1.45564e-06
1.39316e-06
1.33032e-06
1.26738e-06
1.20459e-06
1.14219e-06
1.08043e-06
1.01955e-06
9.59744e-07
9.01234e-07
8.442e-07
7.88806e-07
7.35195e-07
6.83485e-07
6.33773e-07
5.8613e-07
5.40603e-07
4.97219e-07
4.55981e-07
4.16873e-07
3.7986e-07
3.44893e-07
3.11907e-07
2.8083e-07
2.51578e-07
2.24065e-07
1.98201e-07
1.73897e-07
1.51071e-07
1.29647e-07
1.09563e-07
9.07728e-08
7.32567e-08
5.70259e-08
4.21365e-08
2.87099e-08
1.69732e-08
7.35696e-09
8.17778e-10
2.44386e-09
2.19756e-08
5.06114e-08
8.5329e-08
1.24606e-07
1.67462e-07
2.13177e-07
2.61173e-07
3.10968e-07
3.62139e-07
4.14315e-07
4.67165e-07
5.20401e-07
5.73773e-07
6.2707e-07
6.80121e-07
7.32793e-07
7.84988e-07
8.36644e-07
8.87724e-07
9.3822e-07
9.88139e-07
1.03751e-06
1.08635e-06
1.13472e-06
1.18264e-06
1.23015e-06
1.27729e-06
1.32407e-06
1.37051e-06
1.41661e-06
1.46238e-06
1.50778e-06
1.55281e-06
1.59742e-06
1.64159e-06
1.68527e-06
1.72841e-06
1.77097e-06