/*--------------------------------*- C++ -*----------------------------------*\
  =========                 |
  \\      /  F ield         | OpenFOAM: The Open Source CFD Toolbox
   \\    /   O peration     | Website:  https://openfoam.org
    \\  /    A nd           | Version:  12
     \\/     M anipulation  |
\*---------------------------------------------------------------------------*/
FoamFile
{
    format      ascii;
    class       surfaceScalarField;
    location    "6.5";
    object      phi;
}
// * * * * * * * * * * * * * * * * * * * * * * * * * * * * * * * * * * * * * //

dimensions      [0 3 -1 0 0 0 0];

internalField   nonuniform List<scalar> 
36180
(
3.24326e-11
-3.27021e-11
1.64246e-10
-1.31853e-10
3.66727e-10
-2.02494e-10
6.01122e-10
-2.34397e-10
8.37059e-10
-2.3594e-10
1.05278e-09
-2.15717e-10
1.23337e-09
-1.80598e-10
1.36916e-09
-1.35786e-10
1.45427e-09
-8.51106e-11
1.48559e-09
-3.13172e-11
1.46193e-09
2.36598e-11
1.38342e-09
7.85065e-11
1.25108e-09
1.32345e-10
1.06643e-09
1.84645e-10
8.31306e-10
2.35124e-10
5.47621e-10
2.83685e-10
2.1726e-10
3.30361e-10
-1.58013e-10
3.75274e-10
-5.76627e-10
4.18614e-10
-1.03723e-09
4.606e-10
-1.53869e-09
5.0146e-10
-2.0801e-09
5.41412e-10
-2.66076e-09
5.80664e-10
-3.28016e-09
6.19403e-10
-3.93795e-09
6.57786e-10
-4.63388e-09
6.95934e-10
-5.36782e-09
7.33932e-10
-6.13964e-09
7.71825e-10
-6.94926e-09
8.09622e-10
-7.79656e-09
8.47293e-10
-8.68133e-09
8.84773e-10
-9.60329e-09
9.21963e-10
-1.0562e-08
9.58732e-10
-1.15569e-08
9.94919e-10
-1.25873e-08
1.03034e-09
-1.36521e-08
1.06477e-09
-1.475e-08
1.09799e-09
-1.58798e-08
1.12973e-09
-1.70395e-08
1.15972e-09
-1.82272e-08
1.18768e-09
-1.94405e-08
1.2133e-09
-2.06768e-08
1.23627e-09
-2.1933e-08
1.25627e-09
-2.3206e-08
1.27298e-09
-2.44921e-08
1.28605e-09
-2.57872e-08
1.29517e-09
-2.70872e-08
1.30001e-09
-2.83875e-08
1.30025e-09
-2.96831e-08
1.29558e-09
-3.09688e-08
1.28569e-09
-3.22391e-08
1.27031e-09
-3.34883e-08
1.24918e-09
-3.47103e-08
1.22206e-09
-3.5899e-08
1.18873e-09
-3.70481e-08
1.14903e-09
-3.81509e-08
1.10281e-09
-3.92009e-08
1.04997e-09
-4.01913e-08
9.90459e-10
-4.11156e-08
9.24256e-10
-4.1967e-08
8.51407e-10
-4.2739e-08
7.72005e-10
-4.34252e-08
6.86202e-10
-4.40194e-08
5.94208e-10
-4.45157e-08
4.96291e-10
-4.49085e-08
3.92771e-10
-4.51925e-08
2.84005e-10
-4.53629e-08
1.70419e-10
-4.5416e-08
5.31535e-11
-4.53477e-08
-6.8326e-11
-4.51551e-08
-1.92608e-10
-4.48359e-08
-3.19193e-10
-4.43886e-08
-4.47334e-10
-4.38123e-08
-5.76238e-10
-4.31073e-08
-7.05071e-10
-4.22743e-08
-8.32967e-10
-4.13153e-08
-9.59033e-10
-4.02329e-08
-1.08236e-09
-3.90309e-08
-1.20201e-09
-3.77138e-08
-1.31709e-09
-3.62872e-08
-1.42667e-09
-3.47573e-08
-1.52986e-09
-3.31315e-08
-1.62581e-09
-3.14178e-08
-1.7137e-09
-2.9625e-08
-1.79276e-09
-2.77627e-08
-1.8623e-09
-2.5841e-08
-1.92169e-09
-2.38707e-08
-1.97039e-09
-2.18627e-08
-2.00794e-09
-1.98287e-08
-2.03399e-09
-1.77804e-08
-2.04829e-09
-1.57297e-08
-2.0507e-09
-1.36885e-08
-2.04121e-09
-1.16686e-08
-2.01989e-09
-9.68169e-09
-1.98696e-09
-7.73897e-09
-1.94272e-09
-5.85136e-09
-1.88761e-09
-4.02919e-09
-1.82217e-09
-2.28219e-09
-1.747e-09
-6.19355e-10
-1.66284e-09
9.51119e-10
-1.57047e-09
2.42188e-09
-1.47077e-09
3.78652e-09
-1.36463e-09
5.03953e-09
-1.25302e-09
6.17644e-09
-1.1369e-09
7.19376e-09
-1.01732e-09
8.08902e-09
-8.95267e-10
8.86074e-09
-7.71715e-10
9.50837e-09
-6.47636e-10
1.00323e-08
-5.23967e-10
1.04339e-08
-4.01601e-10
1.07153e-08
-2.81381e-10
1.08794e-08
-1.641e-10
1.09299e-08
-5.04965e-11
1.08711e-08
5.87712e-11
1.07081e-08
1.63029e-10
1.04464e-08
2.61755e-10
1.0092e-08
3.54362e-10
9.6517e-09
4.40303e-10
9.13267e-09
5.19026e-10
8.54273e-09
5.89946e-10
7.89031e-09
6.52416e-10
7.18463e-09
7.05678e-10
6.43581e-09
7.48824e-10
5.65507e-09
7.80739e-10
4.85503e-09
8.00042e-10
4.05001e-09
8.05021e-10
3.25644e-09
7.93565e-10
2.49333e-09
7.63115e-10
1.78266e-09
7.1067e-10
1.14972e-09
6.32941e-10
6.22831e-10
5.26887e-10
2.31822e-10
3.91009e-10
3.24307e-12
2.28579e-10
-5.51513e-11
5.83941e-11
-5.51513e-11
1.32369e-10
-1.65098e-10
4.62999e-10
-4.62491e-10
9.20033e-10
-6.59531e-10
1.43067e-09
-7.45044e-10
1.93274e-09
-7.38007e-10
2.3779e-09
-6.60879e-10
2.73064e-09
-5.33345e-10
2.96617e-09
-3.71316e-10
3.0682e-09
-1.87131e-10
3.02696e-09
9.9268e-12
2.83754e-09
2.13077e-10
2.49859e-09
4.17456e-10
2.01121e-09
6.19729e-10
1.37813e-09
8.17731e-10
6.03045e-10
1.01021e-09
-3.09848e-10
1.19658e-09
-1.35626e-09
1.37678e-09
-2.53207e-09
1.55108e-09
-3.83342e-09
1.71997e-09
-5.2569e-09
1.88407e-09
-6.79952e-09
2.04409e-09
-8.45884e-09
2.20073e-09
-1.02328e-08
2.35467e-09
-1.21199e-08
2.5065e-09
-1.41189e-08
2.65671e-09
-1.62286e-08
2.80569e-09
-1.84483e-08
2.95366e-09
-2.07773e-08
3.10074e-09
-2.32146e-08
3.24691e-09
-2.57593e-08
3.39201e-09
-2.84103e-08
3.53575e-09
-3.1166e-08
3.67771e-09
-3.40246e-08
3.81736e-09
-3.69838e-08
3.95407e-09
-4.00405e-08
4.0871e-09
-4.31914e-08
4.21561e-09
-4.64321e-08
4.3387e-09
-4.97578e-08
4.45539e-09
-5.31627e-08
4.56463e-09
-5.66403e-08
4.66532e-09
-6.01833e-08
4.75633e-09
-6.37835e-08
4.83647e-09
-6.74318e-08
4.90455e-09
-7.11182e-08
4.95935e-09
-7.48318e-08
4.99966e-09
-7.85609e-08
5.02427e-09
-8.22929e-08
5.03199e-09
-8.60143e-08
5.02166e-09
-8.97109e-08
4.99217e-09
-9.33677e-08
4.94248e-09
-9.69689e-08
4.87159e-09
-1.00498e-07
4.7786e-09
-1.03939e-07
4.66272e-09
-1.07274e-07
4.52327e-09
-1.10484e-07
4.35968e-09
-1.13553e-07
4.17153e-09
-1.16462e-07
3.95857e-09
-1.19192e-07
3.72069e-09
-1.21726e-07
3.45798e-09
-1.24045e-07
3.17071e-09
-1.26132e-07
2.85936e-09
-1.27971e-07
2.5246e-09
-1.29544e-07
2.16732e-09
-1.30836e-07
1.78865e-09
-1.31833e-07
1.38991e-09
-1.32522e-07
9.72576e-10
-1.3289e-07
5.38322e-10
-1.32927e-07
9.01671e-11
-1.32624e-07
-3.71046e-10
-1.31974e-07
-8.42327e-10
-1.30972e-07
-1.32108e-09
-1.29615e-07
-1.80452e-09
-1.27902e-07
-2.28975e-09
-1.25833e-07
-2.77368e-09
-1.23413e-07
-3.25317e-09
-1.20647e-07
-3.72494e-09
-1.17544e-07
-4.18569e-09
-1.14114e-07
-4.63209e-09
-1.1037e-07
-5.06083e-09
-1.06328e-07
-5.46864e-09
-1.02005e-07
-5.85231e-09
-9.74224e-08
-6.2088e-09
-9.26009e-08
-6.53518e-09
-8.75649e-08
-6.82874e-09
-8.23402e-08
-7.087e-09
-7.69542e-08
-7.30772e-09
-7.14356e-08
-7.48898e-09
-6.58144e-08
-7.62918e-09
-6.01213e-08
-7.72705e-09
-5.43878e-08
-7.78173e-09
-4.86459e-08
-7.79269e-09
-4.29272e-08
-7.75986e-09
-3.72635e-08
-7.68354e-09
-3.16861e-08
-7.56444e-09
-2.62251e-08
-7.40367e-09
-2.091e-08
-7.20274e-09
-1.57686e-08
-6.96352e-09
-1.08274e-08
-6.68821e-09
-6.11089e-09
-6.37937e-09
-1.64156e-09
-6.0398e-09
2.56026e-09
-5.67259e-09
6.47661e-09
-5.28099e-09
1.0092e-08
-4.86844e-09
1.33936e-08
-4.43851e-09
1.63711e-08
-3.99481e-09
1.90168e-08
-3.54096e-09
2.13257e-08
-3.08061e-09
2.32954e-08
-2.61732e-09
2.4926e-08
-2.15454e-09
2.622e-08
-1.69562e-09
2.71824e-08
-1.24375e-09
2.78202e-08
-8.01937e-10
2.81427e-08
-3.73016e-10
2.81611e-08
4.03632e-11
2.78885e-08
4.35636e-10
2.73397e-08
8.10583e-10
2.65312e-08
1.16287e-09
2.54812e-08
1.49024e-09
2.42098e-08
1.79044e-09
2.27387e-08
2.0611e-09
2.10915e-08
2.29962e-09
1.92941e-08
2.50307e-09
1.73749e-08
2.66803e-09
1.53652e-08
2.79045e-09
1.32997e-08
2.86549e-09
1.12173e-08
2.8874e-09
9.16151e-09
2.8494e-09
7.18091e-09
2.74371e-09
5.32978e-09
2.5618e-09
3.66743e-09
2.29529e-09
2.25639e-09
1.93793e-09
1.15764e-09
1.48976e-09
4.20118e-10
9.66102e-10
5.85048e-11
4.20007e-10
3.35345e-12
2.04544e-10
-3.69638e-10
6.63454e-10
-9.21393e-10
1.26133e-09
-1.25741e-09
1.9038e-09
-1.38752e-09
2.51196e-09
-1.34617e-09
3.02266e-09
-1.17158e-09
3.38773e-09
-8.98409e-10
3.57207e-09
-5.55662e-10
3.55153e-09
-1.66589e-10
3.31069e-09
2.50773e-10
2.84096e-09
6.82805e-10
2.13889e-09
1.11953e-09
1.20469e-09
1.55393e-09
4.11308e-11
1.98129e-09
-1.34739e-09
2.39873e-09
-2.95555e-09
2.80474e-09
-4.77761e-09
3.19885e-09
-6.80788e-09
3.58135e-09
-9.04093e-09
3.95303e-09
-1.14719e-08
4.31501e-09
-1.40963e-08
4.66856e-09
-1.69106e-08
5.01498e-09
-1.99114e-08
5.35551e-09
-2.30962e-08
5.69124e-09
-2.64625e-08
6.02308e-09
-3.00085e-08
6.35168e-09
-3.37323e-08
6.67744e-09
-3.76321e-08
7.00049e-09
-4.17058e-08
7.32067e-09
-4.59513e-08
7.63754e-09
-5.0366e-08
7.95039e-09
-5.49465e-08
8.25827e-09
-5.96891e-08
8.55996e-09
-6.45891e-08
8.85402e-09
-6.96408e-08
9.13883e-09
-7.48377e-08
9.41254e-09
-8.01722e-08
9.67316e-09
-8.56354e-08
9.91854e-09
-9.12172e-08
1.01464e-08
-9.69063e-08
1.03544e-08
-1.0269e-07
1.05401e-08
-1.08554e-07
1.07009e-08
-1.14484e-07
1.08342e-08
-1.20462e-07
1.09376e-08
-1.26471e-07
1.10084e-08
-1.32491e-07
1.10441e-08
-1.38501e-07
1.10422e-08
-1.4448e-07
1.10004e-08
-1.50404e-07
1.09163e-08
-1.56249e-07
1.07878e-08
-1.61991e-07
1.06129e-08
-1.67602e-07
1.03899e-08
-1.73056e-07
1.01172e-08
-1.78327e-07
9.79349e-09
-1.83385e-07
9.41781e-09
-1.88203e-07
8.98944e-09
-1.92752e-07
8.50801e-09
-1.97005e-07
7.97353e-09
-2.00933e-07
7.38638e-09
-2.0451e-07
6.74735e-09
-2.07708e-07
6.05765e-09
-2.10503e-07
5.31895e-09
-2.12869e-07
4.53332e-09
-2.14783e-07
3.70332e-09
-2.16225e-07
2.83195e-09
-2.17175e-07
1.92264e-09
-2.17616e-07
9.79341e-10
-2.17533e-07
6.83421e-12
-2.16913e-07
-9.90739e-10
-2.15748e-07
-2.00795e-09
-2.1403e-07
-3.03925e-09
-2.11755e-07
-4.07874e-09
-2.08925e-07
-5.12022e-09
-2.05541e-07
-6.15725e-09
-2.01611e-07
-7.18318e-09
-1.97145e-07
-8.19123e-09
-1.92156e-07
-9.1745e-09
-1.86662e-07
-1.01261e-08
-1.80684e-07
-1.10391e-08
-1.74246e-07
-1.19069e-08
-1.67375e-07
-1.27227e-08
-1.60104e-07
-1.34804e-08
-1.52465e-07
-1.4174e-08
-1.44496e-07
-1.47978e-08
-1.36236e-07
-1.53467e-08
-1.27728e-07
-1.58163e-08
-1.19014e-07
-1.62026e-08
-1.10141e-07
-1.65022e-08
-1.01155e-07
-1.67126e-08
-9.2105e-08
-1.68321e-08
-8.30383e-08
-1.68594e-08
-7.40037e-08
-1.67945e-08
-6.50493e-08
-1.66379e-08
-5.62227e-08
-1.6391e-08
-4.75702e-08
-1.60562e-08
-3.91366e-08
-1.56364e-08
-3.09647e-08
-1.51354e-08
-2.30951e-08
-1.45578e-08
-1.55659e-08
-1.39087e-08
-8.41182e-09
-1.31938e-08
-1.66479e-09
-1.24196e-08
4.64694e-09
-1.15927e-08
1.04987e-08
-1.07202e-08
1.58698e-08
-9.80953e-09
2.07431e-08
-8.86811e-09
2.51057e-08
-7.90359e-09
2.89487e-08
-6.92357e-09
3.22669e-08
-5.93557e-09
3.50593e-08
-4.94693e-09
3.73285e-08
-3.96478e-09
3.90807e-08
-2.99595e-09
4.03257e-08
-2.04699e-09
4.10768e-08
-1.12408e-09
4.13502e-08
-2.33107e-10
4.11655e-08
6.20384e-10
4.05449e-08
1.43113e-09
3.95138e-08
2.194e-09
3.81001e-08
2.90392e-09
3.63348e-08
3.55576e-09
3.42517e-08
4.14418e-09
3.18879e-08
4.66346e-09
2.92837e-08
5.10723e-09
2.64835e-08
5.46824e-09
2.35358e-08
5.73814e-09
2.04941e-08
5.90726e-09
1.74171e-08
5.96439e-09
1.43696e-08
5.89684e-09
1.14227e-08
5.69062e-09
8.65325e-09
5.33127e-09
6.14282e-09
4.80572e-09
3.97475e-09
4.10601e-09
2.22818e-09
3.23633e-09
9.68053e-10
2.22622e-09
2.29295e-10
1.15876e-09
2.32648e-10
2.38001e-10
-6.07626e-10
7.51468e-10
-1.43485e-09
1.39348e-09
-1.89941e-09
2.05244e-09
-2.04648e-09
2.6387e-09
-1.93242e-09
3.0807e-09
-1.61359e-09
3.32308e-09
-1.14079e-09
3.32461e-09
-5.57187e-10
3.05605e-09
1.01967e-10
2.49807e-09
8.08752e-10
1.63919e-09
1.54168e-09
4.7402e-10
2.28471e-09
-9.9831e-10
3.02626e-09
-2.77542e-09
3.75841e-09
-4.85279e-09
4.4761e-09
-7.22458e-09
5.17653e-09
-9.88435e-09
5.85861e-09
-1.28255e-08
6.52248e-09
-1.60416e-08
7.16914e-09
-1.95267e-08
7.80014e-09
-2.32755e-08
8.41729e-09
-2.7283e-08
9.02252e-09
-3.15451e-08
9.61762e-09
-3.6058e-08
1.02042e-08
-4.08185e-08
1.07835e-08
-4.58232e-08
1.13565e-08
-5.10693e-08
1.19235e-08
-5.65536e-08
1.24847e-08
-6.22726e-08
1.30396e-08
-6.82224e-08
1.35873e-08
-7.43984e-08
1.41265e-08
-8.07955e-08
1.46553e-08
-8.74071e-08
1.51716e-08
-9.42259e-08
1.56728e-08
-1.01243e-07
1.61561e-08
-1.08449e-07
1.66182e-08
-1.15831e-07
1.70557e-08
-1.23378e-07
1.74649e-08
-1.31073e-07
1.78418e-08
-1.38901e-07
1.81823e-08
-1.46843e-07
1.84823e-08
-1.5488e-07
1.87375e-08
-1.62989e-07
1.89436e-08
-1.71148e-07
1.90962e-08
-1.7933e-07
1.9191e-08
-1.8751e-07
1.92238e-08
-1.95658e-07
1.91905e-08
-2.03745e-07
1.90872e-08
-2.11739e-07
1.89102e-08
-2.19607e-07
1.8656e-08
-2.27316e-07
1.83216e-08
-2.3483e-07
1.79041e-08
-2.42114e-07
1.74012e-08
-2.49132e-07
1.6811e-08
-2.55846e-07
1.6132e-08
-2.6222e-07
1.53635e-08
-2.68217e-07
1.4505e-08
-2.738e-07
1.3557e-08
-2.78934e-07
1.25205e-08
-2.83584e-07
1.1397e-08
-2.87715e-07
1.01889e-08
-2.91296e-07
8.89948e-09
-2.94295e-07
7.53242e-09
-2.96684e-07
6.09236e-09
-2.98437e-07
4.58463e-09
-2.99529e-07
3.01529e-09
-2.99941e-07
1.3912e-09
-2.99654e-07
-2.80021e-10
-2.98655e-07
-1.99039e-09
-2.96932e-07
-3.73107e-09
-2.94478e-07
-5.49266e-09
-2.91292e-07
-7.26524e-09
-2.87373e-07
-9.03845e-09
-2.82729e-07
-1.08015e-08
-2.77369e-07
-1.25434e-08
-2.71307e-07
-1.42529e-08
-2.64563e-07
-1.59185e-08
-2.57161e-07
-1.75289e-08
-2.49127e-07
-1.90729e-08
-2.40494e-07
-2.05393e-08
-2.313e-07
-2.19173e-08
-2.21584e-07
-2.31967e-08
-2.1139e-07
-2.43677e-08
-2.00766e-07
-2.54211e-08
-1.89764e-07
-2.63488e-08
-1.78438e-07
-2.71431e-08
-1.66843e-07
-2.77978e-08
-1.55037e-07
-2.83073e-08
-1.43083e-07
-2.86675e-08
-1.31039e-07
-2.88754e-08
-1.18969e-07
-2.89293e-08
-1.06935e-07
-2.88287e-08
-9.49983e-08
-2.85746e-08
-8.32201e-08
-2.81692e-08
-7.16602e-08
-2.76161e-08
-6.03763e-08
-2.69203e-08
-4.94239e-08
-2.60877e-08
-3.88559e-08
-2.51258e-08
-2.87217e-08
-2.40429e-08
-1.90671e-08
-2.28484e-08
-9.9342e-09
-2.15526e-08
-1.36049e-09
-2.01664e-08
6.62091e-09
-1.87016e-08
1.39817e-08
-1.71703e-08
2.06984e-08
-1.55848e-08
2.67526e-08
-1.39578e-08
3.2131e-08
-1.2302e-08
3.68254e-08
-1.063e-08
4.08325e-08
-8.95403e-09
4.4154e-08
-7.28628e-09
4.67964e-08
-5.63839e-09
4.8771e-08
-4.02151e-09
5.00932e-08
-2.44636e-09
5.07833e-08
-9.23211e-10
5.08655e-08
5.38245e-10
5.0368e-08
1.92865e-09
4.9323e-08
3.23896e-09
4.77667e-08
4.46019e-09
4.57392e-08
5.58327e-09
4.32846e-08
6.59883e-09
4.04511e-08
7.49693e-09
3.72916e-08
8.26674e-09
3.38637e-08
8.89617e-09
3.02302e-08
9.37162e-09
2.64598e-08
9.67767e-09
2.26271e-08
9.79703e-09
1.88134e-08
9.71057e-09
1.5106e-08
9.39799e-09
1.15982e-08
8.83915e-09
8.38701e-09
8.01687e-09
5.57104e-09
6.92198e-09
3.24531e-09
5.56205e-09
1.49553e-09
3.976e-09
3.92948e-10
2.26135e-09
6.25596e-10
2.39921e-10
-8.47538e-10
7.41803e-10
-1.93672e-09
1.3421e-09
-2.4997e-09
1.91797e-09
-2.62236e-09
2.37301e-09
-2.38746e-09
2.63111e-09
-1.87169e-09
2.63334e-09
-1.14302e-09
2.33542e-09
-2.59265e-10
1.70548e-09
7.31904e-10
7.2196e-10
1.79227e-09
-6.28363e-10
2.892e-09
-2.35216e-09
4.00851e-09
-4.45115e-09
5.12525e-09
-6.92343e-09
6.23068e-09
-9.76461e-09
7.31728e-09
-1.29688e-08
8.38067e-09
-1.65291e-08
9.41892e-09
-2.04384e-08
1.04319e-08
-2.46899e-08
1.14206e-08
-2.92767e-08
1.2387e-08
-3.41928e-08
1.33334e-08
-3.94324e-08
1.42621e-08
-4.49904e-08
1.51756e-08
-5.08621e-08
1.60759e-08
-5.7043e-08
1.69644e-08
-6.35287e-08
1.78422e-08
-7.03149e-08
1.87097e-08
-7.73968e-08
1.95667e-08
-8.47693e-08
2.04121e-08
-9.24265e-08
2.12445e-08
-1.00362e-07
2.20616e-08
-1.08567e-07
2.28604e-08
-1.17033e-07
2.36377e-08
-1.25749e-07
2.43892e-08
-1.34704e-07
2.51106e-08
-1.43883e-07
2.5797e-08
-1.5327e-07
2.6443e-08
-1.62848e-07
2.70429e-08
-1.72597e-07
2.75908e-08
-1.82495e-07
2.80806e-08
-1.92519e-07
2.8506e-08
-2.02642e-07
2.88605e-08
-2.12836e-07
2.91378e-08
-2.23071e-07
2.93314e-08
-2.33315e-07
2.94349e-08
-2.43534e-07
2.94424e-08
-2.53691e-07
2.93477e-08
-2.63749e-07
2.91453e-08
-2.73669e-07
2.88299e-08
-2.83409e-07
2.83966e-08
-2.92929e-07
2.78412e-08
-3.02185e-07
2.71598e-08
-3.11133e-07
2.63493e-08
-3.19729e-07
2.54072e-08
-3.27929e-07
2.4332e-08
-3.35688e-07
2.31228e-08
-3.42963e-07
2.17796e-08
-3.49709e-07
2.03034e-08
-3.55885e-07
1.86961e-08
-3.61448e-07
1.69606e-08
-3.66361e-07
1.51011e-08
-3.70584e-07
1.31225e-08
-3.74082e-07
1.1031e-08
-3.76824e-07
8.83374e-09
-3.78778e-07
6.53902e-09
-3.79919e-07
4.15618e-09
-3.80223e-07
1.6956e-09
-3.79672e-07
-8.31347e-10
-3.7825e-07
-3.41245e-09
-3.75946e-07
-6.03456e-09
-3.72755e-07
-8.68374e-09
-3.68675e-07
-1.13453e-08
-3.6371e-07
-1.4004e-08
-3.57867e-07
-1.66441e-08
-3.51161e-07
-1.92493e-08
-3.43611e-07
-2.18033e-08
-3.3524e-07
-2.42895e-08
-3.26077e-07
-2.66914e-08
-3.16158e-07
-2.89925e-08
-3.0552e-07
-3.1177e-08
-2.94208e-07
-3.32292e-08
-2.8227e-07
-3.51343e-08
-2.6976e-07
-3.68781e-08
-2.56734e-07
-3.84476e-08
-2.43252e-07
-3.98307e-08
-2.29378e-07
-4.10169e-08
-2.15179e-07
-4.19967e-08
-2.00724e-07
-4.27623e-08
-1.86084e-07
-4.33077e-08
-1.71331e-07
-4.36285e-08
-1.56538e-07
-4.37221e-08
-1.41779e-07
-4.35877e-08
-1.27127e-07
-4.32267e-08
-1.12654e-07
-4.26421e-08
-9.84311e-08
-4.1839e-08
-8.45271e-08
-4.08243e-08
-7.10081e-08
-3.96066e-08
-5.79375e-08
-3.81964e-08
-4.53747e-08
-3.66057e-08
-3.33752e-08
-3.48479e-08
-2.199e-08
-3.29378e-08
-1.12652e-08
-3.08912e-08
-1.24175e-09
-2.87251e-08
8.04486e-09
-2.64569e-08
1.65649e-08
-2.41048e-08
2.42945e-08
-2.16874e-08
3.12155e-08
-1.92231e-08
3.73162e-08
-1.67306e-08
4.25903e-08
-1.42282e-08
4.70379e-08
-1.17339e-08
5.06647e-08
-9.26515e-09
5.34821e-08
-6.83888e-09
5.55071e-08
-4.47136e-09
5.6762e-08
-2.17811e-09
5.72744e-08
2.58433e-11
5.7077e-08
2.12602e-09
5.62075e-08
4.10844e-09
5.47085e-08
5.95924e-09
5.26274e-08
7.66437e-09
5.00167e-08
9.20947e-09
4.69342e-08
1.05795e-08
4.34426e-08
1.17583e-08
3.96106e-08
1.27282e-08
3.55125e-08
1.34696e-08
3.12292e-08
1.3961e-08
2.68478e-08
1.41785e-08
2.24619e-08
1.40965e-08
1.81714e-08
1.36884e-08
1.40819e-08
1.29286e-08
1.03031e-08
1.17957e-08
6.94694e-09
1.02782e-08
4.1254e-09
8.38359e-09
1.94914e-09
6.15226e-09
5.30515e-10
3.67998e-09
1.15611e-09
2.17602e-10
-1.06513e-09
6.52477e-10
-2.37159e-09
1.13645e-09
-2.98367e-09
1.54206e-09
-3.02796e-09
1.7701e-09
-2.6155e-09
1.74302e-09
-1.84461e-09
1.40103e-09
-8.01032e-10
6.99184e-10
4.42574e-10
-3.9501e-10
1.8261e-09
-1.90375e-09
3.30101e-09
-3.84086e-09
4.82911e-09
-6.21352e-09
6.38118e-09
-9.02386e-09
7.93559e-09
-1.22702e-08
9.47706e-09
-1.59484e-08
1.09954e-08
-2.00524e-08
1.24847e-08
-2.45754e-08
1.39418e-08
-2.95099e-08
1.53664e-08
-3.48486e-08
1.67593e-08
-4.05844e-08
1.81228e-08
-4.67105e-08
1.94595e-08
-5.32205e-08
2.07722e-08
-6.01086e-08
2.20637e-08
-6.73689e-08
2.33362e-08
-7.49959e-08
2.45914e-08
-8.29839e-08
2.58302e-08
-9.1327e-08
2.70529e-08
-1.00019e-07
2.82585e-08
-1.09052e-07
2.94455e-08
-1.18419e-07
3.06113e-08
-1.2811e-07
3.17526e-08
-1.38114e-07
3.28649e-08
-1.4842e-07
3.39433e-08
-1.59013e-07
3.4982e-08
-1.69877e-07
3.59746e-08
-1.80994e-07
3.6914e-08
-1.92344e-07
3.77928e-08
-2.03904e-07
3.8603e-08
-2.15649e-07
3.93363e-08
-2.27553e-07
3.99842e-08
-2.39585e-07
4.0538e-08
-2.51713e-07
4.09888e-08
-2.63903e-07
4.13278e-08
-2.76118e-07
4.15464e-08
-2.88319e-07
4.16359e-08
-3.00465e-07
4.1588e-08
-3.12512e-07
4.1395e-08
-3.24416e-07
4.10493e-08
-3.3613e-07
4.0544e-08
-3.47606e-07
3.98728e-08
-3.58796e-07
3.90304e-08
-3.69648e-07
3.80119e-08
-3.80112e-07
3.68136e-08
-3.90138e-07
3.54328e-08
-3.99673e-07
3.38678e-08
-4.08669e-07
3.2118e-08
-4.17073e-07
3.01842e-08
-4.24838e-07
2.80682e-08
-4.31916e-07
2.57735e-08
-4.3826e-07
2.33047e-08
-4.43826e-07
2.06679e-08
-4.48574e-07
1.78705e-08
-4.52465e-07
1.49216e-08
-4.55463e-07
1.18315e-08
-4.57536e-07
8.61191e-09
-4.58656e-07
5.27605e-09
-4.58798e-07
1.83841e-09
-4.57944e-07
-1.68525e-09
-4.56079e-07
-5.278e-09
-4.53192e-07
-8.92178e-09
-4.49278e-07
-1.25975e-08
-4.44338e-07
-1.62852e-08
-4.38378e-07
-1.99642e-08
-4.31409e-07
-2.36131e-08
-4.23448e-07
-2.721e-08
-4.14519e-07
-3.0733e-08
-4.04648e-07
-3.41596e-08
-3.93872e-07
-3.7468e-08
-3.82228e-07
-4.0636e-08
-3.69763e-07
-4.36423e-08
-3.56526e-07
-4.64662e-08
-3.42572e-07
-4.90879e-08
-3.27962e-07
-5.14884e-08
-3.12759e-07
-5.36504e-08
-2.97032e-07
-5.5558e-08
-2.80852e-07
-5.71966e-08
-2.64295e-07
-5.8554e-08
-2.47437e-07
-5.96197e-08
-2.3036e-07
-6.03854e-08
-2.13143e-07
-6.08452e-08
-1.9587e-07
-6.09955e-08
-1.78622e-07
-6.08352e-08
-1.61483e-07
-6.03657e-08
-1.44534e-07
-5.9591e-08
-1.27856e-07
-5.85175e-08
-1.11526e-07
-5.71543e-08
-9.56199e-08
-5.55126e-08
-8.02101e-08
-5.36063e-08
-6.53648e-08
-5.1451e-08
-5.11481e-08
-4.90645e-08
-3.76193e-08
-4.64666e-08
-2.48323e-08
-4.36783e-08
-1.28352e-08
-4.07221e-08
-1.67054e-09
-3.76216e-08
8.62582e-09
-3.44012e-08
1.80243e-08
-3.10859e-08
2.65021e-08
-2.77009e-08
3.40429e-08
-2.42715e-08
4.06376e-08
-2.08228e-08
4.62833e-08
-1.73796e-08
5.09843e-08
-1.39661e-08
5.47511e-08
-1.06057e-08
5.7601e-08
-7.32125e-09
5.95575e-08
-4.13456e-09
6.06502e-08
-1.0669e-09
6.09149e-08
1.86131e-09
6.03933e-08
4.63009e-09
5.91327e-08
7.21981e-09
5.71866e-08
9.6105e-09
5.4614e-08
1.1782e-08
5.14801e-08
1.37134e-08
4.78559e-08
1.53825e-08
4.38187e-08
1.67654e-08
3.94522e-08
1.78361e-08
3.48467e-08
1.85665e-08
3.00991e-08
1.89261e-08
2.53128e-08
1.88827e-08
2.05978e-08
1.84034e-08
1.60698e-08
1.74566e-08
1.18495e-08
1.6016e-08
8.0623e-09
1.40654e-08
4.8379e-09
1.1608e-08
2.31292e-09
8.67724e-09
6.38466e-10
5.35443e-09
1.79458e-09
1.76696e-10
-1.24182e-09
4.99046e-10
-2.69393e-09
8.02903e-10
-3.28752e-09
9.62142e-10
-3.1872e-09
8.78727e-10
-2.53208e-09
4.76548e-10
-1.44244e-09
-3.02699e-10
-2.17876e-11
-1.50261e-09
1.64248e-09
-3.15463e-09
3.4781e-09
-5.28016e-09
5.42653e-09
-7.89252e-09
7.44147e-09
-1.09986e-08
9.48725e-09
-1.46003e-08
1.15373e-08
-1.86961e-08
1.35728e-08
-2.32814e-08
1.55808e-08
-2.83505e-08
1.75537e-08
-3.38963e-08
1.94876e-08
-3.99112e-08
2.13813e-08
-4.63878e-08
2.32359e-08
-5.33185e-08
2.50535e-08
-6.06962e-08
2.68371e-08
-6.85139e-08
2.85899e-08
-7.67648e-08
3.03146e-08
-8.54423e-08
3.20137e-08
-9.45397e-08
3.36888e-08
-1.0405e-07
3.53405e-08
-1.13966e-07
3.69684e-08
-1.24278e-07
3.85711e-08
-1.34978e-07
4.01458e-08
-1.46056e-07
4.16888e-08
-1.57498e-07
4.31951e-08
-1.69292e-07
4.46587e-08
-1.81422e-07
4.60728e-08
-1.93869e-07
4.74294e-08
-2.06614e-07
4.87198e-08
-2.19635e-07
4.99346e-08
-2.32906e-07
5.10639e-08
-2.464e-07
5.20969e-08
-2.60087e-07
5.30229e-08
-2.73933e-07
5.38306e-08
-2.87904e-07
5.45086e-08
-3.0196e-07
5.50455e-08
-3.16062e-07
5.54298e-08
-3.30166e-07
5.56504e-08
-3.44227e-07
5.56963e-08
-3.58196e-07
5.55571e-08
-3.72024e-07
5.52229e-08
-3.85659e-07
5.46843e-08
-3.99048e-07
5.39329e-08
-4.12136e-07
5.29612e-08
-4.24868e-07
5.17625e-08
-4.37188e-07
5.03315e-08
-4.49038e-07
4.86639e-08
-4.60362e-07
4.6757e-08
-4.71104e-07
4.46093e-08
-4.81207e-07
4.22209e-08
-4.90616e-07
3.95936e-08
-4.99279e-07
3.67307e-08
-5.07142e-07
3.36374e-08
-5.14158e-07
3.03204e-08
-5.20279e-07
2.67884e-08
-5.2546e-07
2.30518e-08
-5.29661e-07
1.91228e-08
-5.32845e-07
1.50155e-08
-5.34979e-07
1.07456e-08
-5.36033e-07
6.33057e-09
-5.35984e-07
1.78948e-09
-5.34813e-07
-2.85701e-09
-5.32504e-07
-7.58682e-09
-5.29049e-07
-1.23765e-08
-5.24445e-07
-1.72015e-08
-5.18694e-07
-2.2036e-08
-5.11805e-07
-2.68535e-08
-5.03792e-07
-3.16266e-08
-4.94674e-07
-3.63276e-08
-4.84479e-07
-4.09283e-08
-4.73238e-07
-4.54005e-08
-4.6099e-07
-4.97161e-08
-4.47778e-07
-5.38473e-08
-4.33654e-07
-5.7767e-08
-4.18671e-07
-6.14491e-08
-4.0289e-07
-6.48684e-08
-3.86377e-07
-6.80012e-08
-3.69202e-07
-7.08254e-08
-3.5144e-07
-7.33206e-08
-3.33167e-07
-7.54689e-08
-3.14467e-07
-7.72543e-08
-2.95423e-07
-7.86635e-08
-2.76123e-07
-7.9686e-08
-2.56654e-07
-8.0314e-08
-2.37107e-07
-8.05427e-08
-2.17571e-07
-8.03705e-08
-1.98138e-07
-7.97988e-08
-1.78897e-07
-7.88324e-08
-1.59935e-07
-7.74791e-08
-1.4134e-07
-7.57498e-08
-1.23194e-07
-7.36586e-08
-1.05577e-07
-7.12226e-08
-8.8567e-08
-6.84613e-08
-7.22345e-08
-6.53971e-08
-5.66465e-08
-6.20546e-08
-4.18643e-08
-5.84605e-08
-2.79432e-08
-5.46432e-08
-1.49321e-08
-5.06327e-08
-2.87309e-09
-4.64602e-08
8.1985e-09
-4.21575e-08
1.82547e-08
-3.7757e-08
2.72748e-08
-3.32915e-08
3.52455e-08
-2.87936e-08
4.21611e-08
-2.42953e-08
4.80234e-08
-1.98283e-08
5.28413e-08
-1.54236e-08
5.66312e-08
-1.11112e-08
5.94168e-08
-6.92015e-09
6.12286e-08
-2.8787e-09
6.21042e-08
9.85713e-10
6.20881e-08
4.64622e-09
6.12313e-08
8.07658e-09
5.95913e-08
1.12505e-08
5.72325e-08
1.41408e-08
5.42255e-08
1.67203e-08
5.0648e-08
1.89601e-08
4.65839e-08
2.08294e-08
4.21245e-08
2.22956e-08
3.73674e-08
2.33236e-08
3.24174e-08
2.38761e-08
2.7386e-08
2.39141e-08
2.23914e-08
2.3398e-08
1.75583e-08
2.22898e-08
1.30179e-08
2.05563e-08
8.90862e-09
1.81747e-08
5.37775e-09
1.51389e-08
2.58621e-09
1.14688e-08
7.18056e-10
7.22258e-09
2.51263e-09
1.21375e-10
-1.36319e-09
2.93867e-10
-2.86641e-09
3.63357e-10
-3.357e-09
2.10015e-10
-3.03385e-09
-2.59379e-10
-2.06269e-09
-1.11675e-09
-5.85065e-10
-2.41674e-09
1.2782e-09
-4.1998e-09
3.42554e-09
-6.49477e-09
5.77307e-09
-9.32102e-09
8.25277e-09
-1.26903e-08
1.08107e-08
-1.66084e-08
1.34053e-08
-2.10765e-08
1.60054e-08
-2.60923e-08
1.85886e-08
-3.16514e-08
2.11399e-08
-3.77475e-08
2.36498e-08
-4.43735e-08
2.61136e-08
-5.15217e-08
2.85296e-08
-5.91845e-08
3.08987e-08
-6.73541e-08
3.32231e-08
-7.60229e-08
3.55059e-08
-8.51835e-08
3.77504e-08
-9.48283e-08
3.99594e-08
-1.0495e-07
4.21352e-08
-1.1554e-07
4.4279e-08
-1.2659e-07
4.6391e-08
-1.38092e-07
4.847e-08
-1.50034e-07
5.05133e-08
-1.62406e-07
5.25171e-08
-1.75193e-07
5.4476e-08
-1.88381e-07
5.63832e-08
-2.01953e-07
5.82307e-08
-2.1589e-07
6.00093e-08
-2.30169e-07
6.17088e-08
-2.44767e-07
6.33177e-08
-2.59656e-07
6.48241e-08
-2.74807e-07
6.6215e-08
-2.90188e-07
6.74772e-08
-3.05761e-07
6.85966e-08
-3.2149e-07
6.95593e-08
-3.37332e-07
7.0351e-08
-3.53244e-07
7.09573e-08
-3.69179e-07
7.13643e-08
-3.85087e-07
7.15582e-08
-4.00916e-07
7.15255e-08
-4.16612e-07
7.12537e-08
-4.3212e-07
7.07308e-08
-4.47382e-07
6.99459e-08
-4.62338e-07
6.88889e-08
-4.76928e-07
6.75511e-08
-4.9109e-07
6.59251e-08
-5.04764e-07
6.40051e-08
-5.17887e-07
6.17867e-08
-5.30397e-07
5.92673e-08
-5.42234e-07
5.6446e-08
-5.53337e-07
5.33242e-08
-5.63648e-07
4.99047e-08
-5.7311e-07
4.61929e-08
-5.81669e-07
4.2196e-08
-5.89272e-07
3.79234e-08
-5.9587e-07
3.33868e-08
-6.01418e-07
2.85998e-08
-6.05874e-07
2.35786e-08
-6.092e-07
1.8341e-08
-6.11361e-07
1.29073e-08
-6.1233e-07
7.29955e-09
-6.12083e-07
1.54188e-09
-6.106e-07
-4.33985e-09
-6.07868e-07
-1.03181e-08
-6.03881e-07
-1.63637e-08
-5.98637e-07
-2.24462e-08
-5.92139e-07
-2.8534e-08
-5.84398e-07
-3.45942e-08
-5.75431e-07
-4.05933e-08
-5.65261e-07
-4.64974e-08
-5.53918e-07
-5.22721e-08
-5.41435e-07
-5.78827e-08
-5.27856e-07
-6.32952e-08
-5.13228e-07
-6.84758e-08
-4.97603e-07
-7.33914e-08
-4.81042e-07
-7.80101e-08
-4.63609e-07
-8.23014e-08
-4.45374e-07
-8.62364e-08
-4.26411e-07
-8.97881e-08
-4.068e-07
-9.29318e-08
-3.86624e-07
-9.56452e-08
-3.65969e-07
-9.7909e-08
-3.44926e-07
-9.97068e-08
-3.23587e-07
-1.01025e-07
-3.02046e-07
-1.01855e-07
-2.804e-07
-1.02189e-07
-2.58744e-07
-1.02026e-07
-2.37177e-07
-1.01366e-07
-2.15793e-07
-1.00216e-07
-1.94689e-07
-9.85833e-08
-1.73957e-07
-9.64817e-08
-1.53688e-07
-9.39276e-08
-1.3397e-07
-9.09412e-08
-1.14885e-07
-8.75462e-08
-9.65125e-08
-8.37693e-08
-7.89269e-08
-7.96402e-08
-6.2196e-08
-7.51914e-08
-4.63818e-08
-7.04573e-08
-3.15399e-08
-6.54747e-08
-1.77186e-08
-6.02815e-08
-4.9589e-09
-5.49172e-08
6.70576e-09
-4.94217e-08
1.72498e-08
-4.38356e-08
2.66557e-08
-3.81995e-08
3.4914e-08
-3.25535e-08
4.20232e-08
-2.69376e-08
4.79902e-08
-2.13906e-08
5.28298e-08
-1.59507e-08
5.65646e-08
-1.0655e-08
5.92252e-08
-5.53935e-09
6.08499e-08
-6.38989e-10
6.14845e-08
4.01163e-09
6.11827e-08
8.37839e-09
6.00053e-08
1.24279e-08
5.80199e-08
1.61262e-08
5.53016e-08
1.94387e-08
5.19328e-08
2.23289e-08
4.80031e-08
2.47591e-08
4.36092e-08
2.66895e-08
3.88551e-08
2.80778e-08
3.38516e-08
2.88796e-08
2.87171e-08
2.90486e-08
2.35771e-08
2.85381e-08
1.85643e-08
2.73025e-08
1.382e-08
2.53006e-08
9.49493e-09
2.24998e-08
5.7526e-09
1.88812e-08
2.77495e-09
1.44464e-08
7.72179e-10
9.22536e-09
3.28481e-09
5.46375e-11
-1.41782e-09
4.64195e-11
-2.85819e-09
-1.64631e-10
-3.14595e-09
-6.88128e-10
-2.51035e-09
-1.60923e-09
-1.14158e-09
-2.99316e-09
7.98865e-10
-4.88885e-09
3.17388e-09
-7.33191e-09
5.8686e-09
-1.03472e-08
8.78833e-09
-1.39508e-08
1.18564e-08
-1.81519e-08
1.50119e-08
-2.29545e-08
1.82079e-08
-2.83584e-08
2.14093e-08
-3.43604e-08
2.45906e-08
-4.09552e-08
2.77347e-08
-4.81363e-08
3.0831e-08
-5.58964e-08
3.38736e-08
-6.42275e-08
3.68608e-08
-7.31219e-08
3.97931e-08
-8.25715e-08
4.26727e-08
-9.25684e-08
4.55028e-08
-1.03105e-07
4.82865e-08
-1.14172e-07
5.10266e-08
-1.25761e-07
5.37249e-08
-1.37865e-07
5.63821e-08
-1.50471e-07
5.89974e-08
-1.6357e-07
6.15687e-08
-1.77148e-07
6.4092e-08
-1.91193e-07
6.65615e-08
-2.05687e-07
6.89702e-08
-2.20613e-07
7.1309e-08
-2.3595e-07
7.35677e-08
-2.51675e-07
7.57344e-08
-2.67762e-07
7.77961e-08
-2.84183e-07
7.97387e-08
-3.00906e-07
8.15469e-08
-3.17896e-07
8.32051e-08
-3.35115e-07
8.46966e-08
-3.52523e-07
8.60045e-08
-3.70076e-07
8.71116e-08
-3.87725e-07
8.80007e-08
-4.05423e-07
8.86546e-08
-4.23115e-07
8.90564e-08
-4.40746e-07
8.91898e-08
-4.5826e-07
8.90392e-08
-4.75596e-07
8.85895e-08
-4.92692e-07
8.78272e-08
-5.09486e-07
8.67395e-08
-5.25912e-07
8.53152e-08
-5.41906e-07
8.35446e-08
-5.574e-07
8.14199e-08
-5.7233e-07
7.89348e-08
-5.86629e-07
7.60852e-08
-6.00231e-07
7.28692e-08
-6.13071e-07
6.92868e-08
-6.25088e-07
6.53406e-08
-6.36219e-07
6.10355e-08
-6.46405e-07
5.63789e-08
-6.55589e-07
5.13806e-08
-6.63719e-07
4.60531e-08
-6.70743e-07
4.04112e-08
-6.76616e-07
3.44726e-08
-6.81295e-07
2.8257e-08
-6.84741e-07
2.17871e-08
-6.86921e-07
1.50876e-08
-6.87807e-07
8.18568e-09
-6.87376e-07
1.1106e-09
-6.8561e-07
-6.1063e-09
-6.82496e-07
-1.34317e-08
-6.78029e-07
-2.08307e-08
-6.72208e-07
-2.82667e-08
-6.65041e-07
-3.57019e-08
-6.56537e-07
-4.30972e-08
-6.46718e-07
-5.04129e-08
-6.35607e-07
-5.76085e-08
-6.23236e-07
-6.46432e-08
-6.09642e-07
-7.14763e-08
-5.9487e-07
-7.80671e-08
-5.7897e-07
-8.43758e-08
-5.61998e-07
-9.03634e-08
-5.44016e-07
-9.5992e-08
-5.25092e-07
-1.01226e-07
-5.05299e-07
-1.0603e-07
-4.84714e-07
-1.10373e-07
-4.63421e-07
-1.14225e-07
-4.41507e-07
-1.1756e-07
-4.19062e-07
-1.20354e-07
-3.9618e-07
-1.22588e-07
-3.7296e-07
-1.24246e-07
-3.49499e-07
-1.25316e-07
-3.25899e-07
-1.25789e-07
-3.02262e-07
-1.25663e-07
-2.7869e-07
-1.24938e-07
-2.55286e-07
-1.2362e-07
-2.32151e-07
-1.21719e-07
-2.09383e-07
-1.19249e-07
-1.87081e-07
-1.1623e-07
-1.65337e-07
-1.12685e-07
-1.44243e-07
-1.0864e-07
-1.23884e-07
-1.04128e-07
-1.04341e-07
-9.91836e-08
-8.5688e-08
-9.38442e-08