/*--------------------------------*- C++ -*----------------------------------*\
  =========                 |
  \\      /  F ield         | OpenFOAM: The Open Source CFD Toolbox
   \\    /   O peration     | Website:  https://openfoam.org
    \\  /    A nd           | Version:  12
     \\/     M anipulation  |
\*---------------------------------------------------------------------------*/
FoamFile
{
    format      ascii;
    class       volScalarField;
    location    "8";
    object      epsilon;
}
// * * * * * * * * * * * * * * * * * * * * * * * * * * * * * * * * * * * * * //

dimensions      [0 2 -3 0 0 0 0];

internalField   nonuniform List<scalar> 
5625
(
8.28798e-11
1.56508e-10
3.31777e-10
5.41034e-10
7.76802e-10
1.03344e-09
1.30683e-09
1.59381e-09
1.89177e-09
2.19849e-09
2.51195e-09
2.8303e-09
3.15182e-09
3.47486e-09
3.79788e-09
4.11937e-09
4.43789e-09
4.75206e-09
5.06052e-09
5.362e-09
5.65525e-09
5.93908e-09
6.21235e-09
6.47397e-09
6.7229e-09
6.95817e-09
7.17886e-09
7.3841e-09
7.57309e-09
7.7451e-09
7.89946e-09
8.03556e-09
8.15287e-09
8.25091e-09
8.32931e-09
8.38772e-09
8.42591e-09
8.44371e-09
8.44102e-09
8.41783e-09
8.37414e-09
8.3101e-09
8.22592e-09
8.12186e-09
7.9983e-09
7.85566e-09
7.69445e-09
7.51525e-09
7.31872e-09
7.10558e-09
6.87664e-09
6.63275e-09
6.37486e-09
6.10398e-09
5.82117e-09
5.52758e-09
5.2244e-09
4.91289e-09
4.59438e-09
4.27026e-09
3.94199e-09
3.61108e-09
3.27913e-09
2.94781e-09
2.61888e-09
2.2942e-09
1.9758e-09
1.66585e-09
1.3668e-09
1.08147e-09
8.13273e-10
5.6663e-10
3.47554e-10
1.6397e-10
8.683e-11
5.60318e-10
3.04813e-10
2.96679e-10
3.54392e-10
4.43181e-10
5.50612e-10
6.70716e-10
8.00056e-10
9.36369e-10
1.078e-09
1.22364e-09
1.37219e-09
1.52266e-09
1.6742e-09
1.82597e-09
1.97722e-09
2.12724e-09
2.27532e-09
2.42082e-09
2.5631e-09
2.70157e-09
2.83564e-09
2.96478e-09
3.08845e-09
3.20616e-09
3.31745e-09
3.42186e-09
3.51899e-09
3.60846e-09
3.68991e-09
3.76302e-09
3.8275e-09
3.8831e-09
3.9296e-09
3.9668e-09
3.99454e-09
4.01272e-09
4.02125e-09
4.02007e-09
4.00919e-09
3.98861e-09
3.95838e-09
3.91862e-09
3.86945e-09
3.81104e-09
3.74359e-09
3.66735e-09
3.5826e-09
3.48965e-09
3.38885e-09
3.28058e-09
3.16525e-09
3.04333e-09
2.91529e-09
2.78165e-09
2.64296e-09
2.49981e-09
2.35281e-09
2.2026e-09
2.04989e-09
1.89538e-09
1.73985e-09
1.58411e-09
1.42903e-09
1.27555e-09
1.12473e-09
9.77747e-10
8.36023e-10
7.01331e-10
5.76083e-10
4.63926e-10
3.71155e-10
3.10833e-10
3.19423e-10
5.87152e-10
1.24542e-09
6.10466e-10
4.70799e-10
4.44522e-10
4.66045e-10
5.13947e-10
5.78581e-10
6.54702e-10
7.39083e-10
8.29549e-10
9.24525e-10
1.02279e-09
1.12338e-09
1.22543e-09
1.32825e-09
1.43116e-09
1.5336e-09
1.635e-09
1.73486e-09
1.8327e-09
1.92807e-09
2.02054e-09
2.10971e-09
2.1952e-09
2.27665e-09
2.35372e-09
2.42609e-09
2.49347e-09
2.55558e-09
2.61216e-09
2.663e-09
2.70788e-09
2.74661e-09
2.77904e-09
2.80503e-09
2.82447e-09
2.83727e-09
2.84336e-09
2.84273e-09
2.83535e-09
2.82122e-09
2.8004e-09
2.77295e-09
2.73896e-09
2.69855e-09
2.65188e-09
2.5991e-09
2.54042e-09
2.47607e-09
2.4063e-09
2.33137e-09
2.25161e-09
2.16733e-09
2.07889e-09
1.98668e-09
1.8911e-09
1.79259e-09
1.69163e-09
1.58871e-09
1.48437e-09
1.37919e-09
1.27381e-09
1.16891e-09
1.06527e-09
9.63795e-10
8.65529e-10
7.71771e-10
6.84198e-10
6.05111e-10
5.37915e-10
4.88127e-10
4.65879e-10
4.93639e-10
6.40181e-10
1.30596e-09
2.05842e-09
9.87499e-10
7.16031e-10
6.17305e-10
5.87127e-10
5.93097e-10
6.21299e-10
6.64457e-10
7.18228e-10
7.79767e-10
8.47075e-10
9.18664e-10
9.93377e-10
1.07028e-09
1.14859e-09
1.22764e-09
1.30684e-09
1.38565e-09
1.4636e-09
1.54025e-09
1.61518e-09
1.68802e-09
1.75842e-09
1.82604e-09
1.89057e-09
1.95172e-09
2.00923e-09
2.06283e-09
2.11231e-09
2.15745e-09
2.19804e-09
2.23393e-09
2.26495e-09
2.29097e-09
2.31187e-09
2.32756e-09
2.33796e-09
2.34302e-09
2.34271e-09
2.33702e-09
2.32594e-09
2.30952e-09
2.28782e-09
2.26089e-09
2.22886e-09
2.19183e-09
2.14995e-09
2.1034e-09
2.05235e-09
1.99703e-09
1.93767e-09
1.87453e-09
1.8079e-09
1.7381e-09
1.66546e-09
1.59035e-09
1.51316e-09
1.43433e-09
1.35432e-09
1.27365e-09
1.19289e-09
1.11267e-09
1.03372e-09
9.56863e-10
8.83112e-10
8.13692e-10
7.50174e-10
6.94667e-10
6.50164e-10
6.21238e-10
6.15531e-10
6.47644e-10
7.51573e-10
1.03667e-09
2.1608e-09
2.96125e-09
1.41035e-09
1.00038e-09
8.31115e-10
7.54308e-10
7.24792e-10
7.23699e-10
7.41438e-10
7.72442e-10
8.13143e-10
8.61083e-10
9.14473e-10
9.7195e-10
1.03243e-09
1.09503e-09
1.15901e-09
1.22373e-09
1.28863e-09
1.35323e-09
1.41706e-09
1.47974e-09
1.54089e-09
1.60017e-09
1.65727e-09
1.71188e-09
1.76375e-09
1.81261e-09
1.85823e-09
1.90041e-09
1.93895e-09
1.97366e-09
2.0044e-09
2.031e-09
2.05337e-09
2.07138e-09
2.08494e-09
2.094e-09
2.0985e-09
2.0984e-09
2.09372e-09
2.08442e-09
2.07056e-09
2.05218e-09
2.02934e-09
2.00215e-09
1.97071e-09
1.93515e-09
1.89564e-09
1.85234e-09
1.80545e-09
1.75521e-09
1.70185e-09
1.64566e-09
1.58693e-09
1.52599e-09
1.4632e-09
1.39896e-09
1.33369e-09
1.26789e-09
1.20208e-09
1.13687e-09
1.07293e-09
1.01107e-09
9.52231e-10
8.97555e-10
8.48493e-10
8.06936e-10
7.75469e-10
7.57838e-10
7.59891e-10
7.91694e-10
8.73064e-10
1.05145e-09
1.48264e-09
3.11294e-09
3.9292e-09
1.86539e-09
1.31028e-09
1.06988e-09
9.48268e-10
8.86231e-10
8.59384e-10
8.55555e-10
8.678e-10
8.91773e-10
9.2452e-10
9.63928e-10
1.00841e-09
1.05672e-09
1.10787e-09
1.16103e-09
1.21549e-09
1.27067e-09
1.32603e-09
1.3811e-09
1.43546e-09
1.48873e-09
1.54057e-09
1.59065e-09
1.6387e-09
1.68443e-09
1.72761e-09
1.76801e-09
1.80542e-09
1.83965e-09
1.87054e-09
1.89793e-09
1.92167e-09
1.94167e-09
1.9578e-09
1.96999e-09
1.97818e-09
1.9823e-09
1.98234e-09
1.97829e-09
1.97013e-09
1.95791e-09
1.94167e-09
1.92148e-09
1.89742e-09
1.8696e-09
1.83816e-09
1.80323e-09
1.76501e-09
1.72368e-09
1.67946e-09
1.63261e-09
1.5834e-09
1.53214e-09
1.47915e-09
1.42482e-09
1.36954e-09
1.31378e-09
1.25804e-09
1.20288e-09
1.14897e-09
1.09705e-09
1.04802e-09
1.00295e-09
9.63146e-10
9.3029e-10
9.06599e-10
8.95167e-10
9.00568e-10
9.30087e-10
9.96523e-10
1.12552e-09
1.37936e-09
1.96431e-09
4.13759e-09
4.94368e-09
2.34317e-09
1.63761e-09
1.32503e-09
1.15928e-09
1.06628e-09
1.01572e-09
9.92623e-10
9.88566e-10
9.98328e-10
1.01844e-09
1.04643e-09
1.08048e-09
1.11918e-09
1.1614e-09
1.20623e-09
1.25291e-09
1.30077e-09
1.34925e-09
1.39785e-09
1.44612e-09
1.49368e-09
1.54016e-09
1.58523e-09
1.6286e-09
1.67e-09
1.70917e-09
1.74589e-09
1.77996e-09
1.81118e-09
1.83939e-09
1.86443e-09
1.88617e-09
1.9045e-09
1.91931e-09
1.93051e-09
1.93805e-09
1.94189e-09
1.94198e-09
1.93833e-09
1.93092e-09
1.9198e-09
1.90501e-09
1.88661e-09
1.86469e-09
1.83937e-09
1.81076e-09
1.77904e-09
1.74437e-09
1.70695e-09
1.66701e-09
1.62481e-09
1.58063e-09
1.53478e-09
1.48761e-09
1.43951e-09
1.39092e-09
1.34233e-09
1.29427e-09
1.24737e-09
1.20234e-09
1.16001e-09
1.12135e-09
1.08756e-09
1.06012e-09
1.04098e-09
1.0327e-09
1.03893e-09
1.06517e-09
1.12026e-09
1.21996e-09
1.39619e-09
1.72705e-09
2.47213e-09
5.21606e-09
5.98951e-09
2.8362e-09
1.97652e-09
1.59091e-09
1.38137e-09
1.25836e-09
1.18541e-09
1.14458e-09
1.12589e-09
1.12318e-09
1.13241e-09
1.15076e-09
1.17613e-09
1.20695e-09
1.24197e-09
1.28016e-09
1.32069e-09
1.36284e-09
1.40601e-09
1.44965e-09
1.4933e-09
1.53654e-09
1.579e-09
1.62032e-09
1.66022e-09
1.6984e-09
1.73461e-09
1.76862e-09
1.80022e-09
1.82923e-09
1.85546e-09
1.87877e-09
1.89903e-09
1.91611e-09
1.92991e-09
1.94036e-09
1.94739e-09
1.95096e-09
1.95103e-09
1.94761e-09
1.94068e-09
1.93028e-09
1.91646e-09
1.8993e-09
1.87887e-09
1.8553e-09
1.82871e-09
1.79928e-09
1.76716e-09
1.73259e-09
1.6958e-09
1.65705e-09
1.61663e-09
1.57489e-09
1.5322e-09
1.48895e-09
1.44562e-09
1.40271e-09
1.36082e-09
1.3206e-09
1.28284e-09
1.24843e-09
1.21847e-09
1.19428e-09
1.17755e-09
1.17046e-09
1.17597e-09
1.19835e-09
1.24404e-09
1.32356e-09
1.45581e-09
1.67928e-09
2.08854e-09
2.99851e-09
6.33294e-09
7.05377e-09
3.33825e-09
2.32236e-09
1.8633e-09
1.61029e-09
1.45801e-09
1.36364e-09
1.30623e-09
1.27412e-09
1.26023e-09
1.25991e-09
1.26992e-09
1.28794e-09
1.31218e-09
1.34126e-09
1.37405e-09
1.40963e-09
1.44725e-09
1.48622e-09
1.526e-09
1.56606e-09
1.60598e-09
1.64536e-09
1.68383e-09
1.72108e-09
1.75683e-09
1.7908e-09
1.82276e-09
1.8525e-09
1.87982e-09
1.90455e-09
1.92654e-09
1.94564e-09
1.96174e-09
1.97475e-09
1.98457e-09
1.99115e-09
1.99443e-09
1.9944e-09
1.99107e-09
1.9844e-09
1.97445e-09
1.96127e-09
1.94494e-09
1.92555e-09
1.90321e-09
1.87807e-09
1.85029e-09
1.82006e-09
1.78761e-09
1.75318e-09
1.71705e-09
1.67953e-09
1.64097e-09
1.60176e-09
1.56234e-09
1.5232e-09
1.48489e-09
1.44804e-09
1.41337e-09
1.38171e-09
1.35405e-09
1.33159e-09
1.31581e-09
1.30857e-09
1.31234e-09
1.3305e-09
1.36794e-09
1.43212e-09
1.53531e-09
1.69963e-09
1.97036e-09
2.45895e-09
3.53694e-09
7.47479e-09
8.12526e-09
3.84394e-09
2.6712e-09
2.13882e-09
1.84279e-09
1.66192e-09
1.54696e-09
1.47387e-09
1.42935e-09
1.40529e-09
1.39645e-09
1.39919e-09
1.41087e-09
1.42955e-09
1.45368e-09
1.48203e-09
1.51362e-09
1.5476e-09
1.58326e-09
1.61999e-09
1.65726e-09
1.69461e-09
1.73161e-09
1.7679e-09
1.80313e-09
1.83702e-09
1.86928e-09
1.89967e-09
1.92798e-09
1.954e-09
1.97756e-09
1.99849e-09
2.01667e-09
2.03198e-09
2.04431e-09
2.05358e-09
2.05974e-09
2.06273e-09
2.06253e-09
2.05916e-09
2.05259e-09
2.04287e-09
2.03007e-09
2.01426e-09
1.99553e-09
1.97403e-09
1.94988e-09
1.92327e-09
1.8944e-09
1.8635e-09
1.83082e-09
1.79667e-09
1.76136e-09
1.72528e-09
1.68883e-09
1.65248e-09
1.61674e-09
1.58221e-09
1.54955e-09
1.51955e-09
1.4931e-09
1.47129e-09
1.45541e-09
1.4471e-09
1.44843e-09
1.46215e-09
1.49209e-09
1.54377e-09
1.62569e-09
1.75193e-09
1.94789e-09
2.26575e-09
2.83404e-09
4.08156e-09
8.6294e-09
9.19418e-09
4.34859e-09
3.01971e-09
2.41462e-09
2.07624e-09
1.86749e-09
1.73271e-09
1.64476e-09
1.58864e-09
1.55528e-09
1.53878e-09
1.53509e-09
1.5413e-09
1.55524e-09
1.57523e-09
1.59994e-09
1.62828e-09
1.65935e-09
1.69238e-09
1.72674e-09
1.76185e-09
1.79722e-09
1.83241e-09
1.86702e-09
1.90072e-09
1.93319e-09
1.96414e-09
1.99333e-09
2.02053e-09
2.04553e-09
2.06816e-09
2.08825e-09
2.10568e-09
2.12031e-09
2.13205e-09
2.14081e-09
2.14655e-09
2.1492e-09
2.14877e-09
2.14524e-09
2.13861e-09
2.12895e-09
2.1163e-09
2.10075e-09
2.0824e-09
2.0614e-09
2.03789e-09
2.01206e-09
1.98412e-09
1.95432e-09
1.92292e-09
1.89023e-09
1.85661e-09
1.82244e-09
1.78816e-09
1.75425e-09
1.72128e-09
1.68987e-09
1.66073e-09
1.6347e-09
1.61275e-09
1.59604e-09
1.58601e-09
1.58443e-09
1.59357e-09
1.61652e-09
1.65751e-09
1.72274e-09
1.82178e-09
1.97048e-09
2.1976e-09
2.56219e-09
3.20993e-09
4.62697e-09
9.78543e-09
1.0252e-08
4.84817e-09
3.36502e-09
2.68833e-09
2.30847e-09
2.07263e-09
1.91878e-09
1.81672e-09
1.74976e-09
1.70784e-09
1.68441e-09
1.67502e-09
1.67647e-09
1.68637e-09
1.7029e-09
1.72462e-09
1.75034e-09
1.7791e-09
1.81009e-09
1.84262e-09
1.87607e-09
1.90994e-09
1.94376e-09
1.97713e-09
2.00967e-09
2.04107e-09
2.07103e-09
2.09929e-09
2.12563e-09
2.14983e-09
2.17171e-09
2.19111e-09
2.20789e-09
2.22193e-09
2.23313e-09
2.24141e-09
2.2467e-09
2.24898e-09
2.24822e-09
2.24444e-09
2.23762e-09
2.22783e-09
2.21514e-09
2.19963e-09
2.18142e-09
2.16064e-09
2.13747e-09
2.1121e-09
2.08474e-09
2.05565e-09
2.02513e-09
1.99349e-09
1.96111e-09
1.92838e-09
1.89578e-09
1.86382e-09
1.83308e-09
1.80423e-09
1.77805e-09
1.7554e-09
1.73735e-09
1.72515e-09
1.72034e-09
1.72484e-09
1.74118e-09
1.77273e-09
1.82415e-09
1.90231e-09
2.01785e-09
2.1884e-09
2.44605e-09
2.85669e-09
3.58301e-09
5.16805e-09
1.09322e-08
1.12915e-08
5.33923e-09
3.7047e-09
2.95795e-09
2.53768e-09
2.27562e-09
2.1035e-09
1.98805e-09
1.91095e-09
1.86112e-09
1.83143e-09
1.81698e-09
1.81428e-09
1.82074e-09
1.83438e-09
1.85366e-09
1.87729e-09
1.90425e-09
1.93367e-09
1.96481e-09
1.99703e-09
2.0298e-09
2.06261e-09
2.09506e-09
2.12675e-09
2.15736e-09
2.18658e-09
2.21414e-09
2.2398e-09
2.26336e-09
2.28463e-09
2.30344e-09
2.31965e-09
2.33314e-09
2.34382e-09
2.3516e-09
2.35643e-09
2.35827e-09
2.35711e-09
2.35296e-09
2.34582e-09
2.33576e-09
2.32285e-09
2.30719e-09
2.28889e-09
2.2681e-09
2.245e-09
2.21979e-09
2.19271e-09
2.16403e-09
2.13404e-09
2.10309e-09
2.07156e-09
2.03988e-09
2.00854e-09
1.97809e-09
1.94913e-09
1.92239e-09
1.89867e-09
1.87892e-09
1.86425e-09
1.85603e-09
1.8559e-09
1.86594e-09
1.88892e-09
1.92848e-09
1.98975e-09
2.08025e-09
2.21165e-09
2.40338e-09
2.69076e-09
3.14646e-09
3.94985e-09
5.69991e-09
1.20592e-08
1.23067e-08
5.81892e-09
4.03675e-09
3.22184e-09
2.76242e-09
2.47511e-09
2.28551e-09
2.1574e-09
2.07081e-09
2.01372e-09
1.97834e-09
1.95939e-09
1.95308e-09
1.95662e-09
1.96787e-09
1.98517e-09
2.00716e-09
2.03274e-09
2.06098e-09
2.09111e-09
2.12245e-09
2.15443e-09
2.18654e-09
2.21834e-09
2.24942e-09
2.27945e-09
2.30812e-09
2.33514e-09
2.36027e-09
2.38331e-09
2.40405e-09
2.42233e-09
2.43801e-09
2.45098e-09
2.46113e-09
2.46839e-09
2.47271e-09
2.47404e-09
2.4724e-09
2.46777e-09
2.46018e-09
2.4497e-09
2.4364e-09
2.4204e-09
2.40181e-09
2.38079e-09
2.35753e-09
2.33224e-09
2.30518e-09
2.2766e-09
2.24685e-09
2.21627e-09
2.18527e-09
2.15429e-09
2.12385e-09
2.09453e-09
2.06697e-09
2.04192e-09
2.02024e-09
2.00294e-09
1.99121e-09
1.98649e-09
1.99055e-09
2.00565e-09
2.03475e-09
2.08179e-09
2.15233e-09
2.25454e-09
2.40113e-09
2.61325e-09
2.9294e-09
3.42881e-09
4.30714e-09
6.21783e-09
1.31567e-08
1.32929e-08
6.28502e-09
4.35963e-09
3.47873e-09
2.98157e-09
2.67004e-09
2.4638e-09
2.32373e-09
2.2283e-09
2.16451e-09
2.12399e-09
2.10105e-09
2.09161e-09
2.09269e-09
2.10196e-09
2.11769e-09
2.13842e-09
2.16297e-09
2.19037e-09
2.21979e-09
2.25053e-09
2.28198e-09
2.31361e-09
2.34497e-09
2.37563e-09
2.40525e-09
2.4335e-09
2.46009e-09
2.48479e-09
2.50737e-09
2.52763e-09
2.54542e-09
2.56058e-09
2.57301e-09
2.58261e-09
2.5893e-09
2.59303e-09
2.59378e-09
2.59155e-09
2.58632e-09
2.57815e-09
2.56711e-09
2.55327e-09
2.53674e-09
2.51767e-09
2.49623e-09
2.47259e-09
2.447e-09
2.4197e-09
2.39099e-09
2.3612e-09
2.33071e-09
2.29994e-09
2.26936e-09
2.2395e-09
2.21097e-09
2.18446e-09
2.16074e-09
2.14073e-09
2.12548e-09
2.11628e-09
2.11464e-09
2.12244e-09
2.14212e-09
2.17684e-09
2.23083e-09
2.31006e-09
2.42335e-09
2.58437e-09
2.81598e-09
3.15972e-09
3.70116e-09
4.65168e-09
6.71719e-09
1.42149e-08
1.42467e-08
6.73598e-09
4.67223e-09
3.72775e-09
3.19433e-09
2.85965e-09
2.63762e-09
2.48631e-09
2.38264e-09
2.31271e-09
2.26756e-09
2.24108e-09
2.22894e-09
2.22793e-09
2.23561e-09
2.25011e-09
2.26989e-09
2.29371e-09
2.32053e-09
2.34949e-09
2.37985e-09
2.41097e-09
2.4423e-09
2.47337e-09
2.50375e-09
2.53306e-09
2.56098e-09
2.58722e-09
2.61153e-09
2.63367e-09
2.65347e-09
2.67075e-09
2.68537e-09
2.69722e-09
2.7062e-09
2.71225e-09
2.71531e-09
2.71536e-09
2.71243e-09
2.70649e-09
2.6976e-09
2.68583e-09
2.67128e-09
2.65407e-09
2.63434e-09
2.61227e-09
2.58806e-09
2.56194e-09
2.53419e-09
2.50511e-09
2.47504e-09
2.44439e-09
2.41359e-09
2.38312e-09
2.35356e-09
2.32553e-09
2.29974e-09
2.27703e-09
2.25834e-09
2.2448e-09
2.23773e-09
2.23877e-09
2.24989e-09
2.27371e-09
2.31355e-09
2.37394e-09
2.46127e-09
2.58492e-09
2.75956e-09
3.00961e-09
3.37955e-09
3.96101e-09
4.98031e-09
7.19348e-09
1.52242e-08
1.51664e-08
7.1709e-09
4.97394e-09
3.96837e-09
3.40024e-09
3.04351e-09
2.80653e-09
2.64468e-09
2.53336e-09
2.45781e-09
2.40847e-09
2.37887e-09
2.3644e-09
2.36167e-09
2.36807e-09
2.38163e-09
2.40072e-09
2.42404e-09
2.4505e-09
2.47918e-09
2.50933e-09
2.54027e-09
2.57143e-09
2.60231e-09
2.63248e-09
2.66155e-09
2.68918e-09
2.71508e-09
2.739e-09
2.7607e-09
2.78e-09
2.79672e-09
2.81073e-09
2.82192e-09
2.8302e-09
2.8355e-09
2.83777e-09
2.83701e-09
2.83323e-09
2.82642e-09
2.81666e-09
2.80402e-09
2.78859e-09
2.77052e-09
2.74994e-09
2.72706e-09
2.70207e-09
2.67523e-09
2.64681e-09
2.61715e-09
2.58658e-09
2.55554e-09
2.52446e-09
2.49386e-09
2.46433e-09
2.43652e-09
2.41118e-09
2.38916e-09
2.37148e-09
2.3593e-09
2.35402e-09
2.35734e-09
2.37138e-09
2.39887e-09
2.44334e-09
2.50958e-09
2.60435e-09
2.73762e-09
2.92495e-09
3.19225e-09
3.5868e-09
4.20589e-09
5.28997e-09
7.64226e-09
1.61752e-08
1.60514e-08
7.5896e-09
5.26463e-09
4.20048e-09
3.59918e-09
3.2215e-09
2.9704e-09
2.79865e-09
2.68025e-09
2.59955e-09
2.54645e-09
2.5141e-09
2.49764e-09
2.49348e-09
2.49886e-09
2.51172e-09
2.53034e-09
2.55335e-09
2.57961e-09
2.60816e-09
2.63821e-09
2.66906e-09
2.70012e-09
2.73086e-09
2.76085e-09
2.78968e-09
2.81701e-09
2.84255e-09
2.86603e-09
2.88722e-09
2.90594e-09
2.92201e-09
2.93531e-09
2.94573e-09
2.95317e-09
2.95758e-09
2.95892e-09
2.9572e-09
2.9524e-09
2.94456e-09
2.93375e-09
2.92005e-09
2.90357e-09
2.88445e-09
2.86284e-09
2.83895e-09
2.81299e-09
2.78523e-09
2.75595e-09
2.72549e-09
2.69421e-09
2.66255e-09
2.63097e-09
2.60001e-09
2.57027e-09
2.54242e-09
2.51726e-09
2.49566e-09
2.47868e-09
2.46754e-09
2.4637e-09
2.46894e-09
2.48548e-09
2.51619e-09
2.56477e-09
2.63627e-09
2.7378e-09
2.87986e-09
3.07885e-09
3.36209e-09
3.7794e-09
4.4334e-09
5.57763e-09
8.05914e-09
1.70586e-08
1.69031e-08
7.99264e-09
5.54468e-09
4.42438e-09
3.7914e-09
3.39378e-09
3.12935e-09
2.94834e-09
2.82337e-09
2.73796e-09
2.68148e-09
2.64671e-09
2.62855e-09
2.6232e-09
2.6278e-09
2.64015e-09
2.65846e-09
2.6813e-09
2.70747e-09
2.73599e-09
2.76601e-09
2.79681e-09
2.82778e-09
2.85839e-09
2.88817e-09
2.91672e-09
2.94369e-09
2.96878e-09
2.99173e-09
3.0123e-09
3.03031e-09
3.0456e-09
3.05803e-09
3.0675e-09
3.07394e-09
3.07728e-09
3.07751e-09
3.07463e-09
3.06863e-09
3.05956e-09
3.04751e-09
3.03255e-09
3.01482e-09
2.99444e-09
2.97161e-09
2.94651e-09
2.91938e-09
2.89049e-09
2.86015e-09
2.82868e-09
2.79649e-09
2.76401e-09
2.73172e-09
2.70017e-09
2.66998e-09
2.64186e-09
2.61662e-09
2.59518e-09
2.57861e-09
2.5682e-09
2.56547e-09
2.57224e-09
2.59087e-09
2.62433e-09
2.67649e-09
2.75262e-09
2.86017e-09
3.01012e-09
3.21963e-09
3.51733e-09
3.95536e-09
4.64118e-09
5.84032e-09
8.43984e-09
1.78655e-08
1.77242e-08
8.38134e-09
5.81499e-09
4.64077e-09
3.97747e-09
3.56088e-09
3.28382e-09
3.09412e-09
2.96305e-09
2.87331e-09
2.81378e-09
2.77689e-09
2.75727e-09
2.75096e-09
2.75495e-09
2.76693e-09
2.78507e-09
2.80783e-09
2.83399e-09
2.86251e-09
2.89251e-09
2.92326e-09
2.95412e-09
2.98454e-09
3.01404e-09
3.04222e-09
3.06871e-09
3.09322e-09
3.11548e-09
3.13527e-09
3.15239e-09
3.1667e-09
3.17806e-09
3.18638e-09
3.19159e-09
3.19364e-09
3.19253e-09
3.18825e-09
3.18082e-09
3.1703e-09
3.15677e-09
3.14033e-09
3.12111e-09
3.09926e-09
3.07497e-09
3.04845e-09
3.01995e-09
2.98973e-09
2.95811e-09
2.92544e-09
2.89213e-09
2.85861e-09
2.8254e-09
2.79305e-09
2.7622e-09
2.73358e-09
2.70802e-09
2.68646e-09
2.67004e-09
2.66005e-09
2.65807e-09
2.66601e-09
2.68631e-09
2.72203e-09
2.7772e-09
2.8573e-09
2.97007e-09
3.12694e-09
3.34574e-09
3.65624e-09
4.11271e-09
4.82692e-09
6.07511e-09
8.78013e-09
1.85867e-08
1.8519e-08
8.75779e-09
6.077e-09
4.85078e-09
4.15835e-09
3.72361e-09
3.43454e-09
3.23664e-09
3.09987e-09
3.00615e-09
2.94386e-09
2.90508e-09
2.88421e-09
2.8771e-09
2.88063e-09
2.89237e-09
2.91041e-09
2.93315e-09
2.95933e-09
2.98785e-09
3.01782e-09
3.04846e-09
3.07913e-09
3.10925e-09
3.13835e-09
3.166e-09
3.19185e-09
3.21559e-09
3.23696e-09
3.25573e-09
3.27173e-09
3.2848e-09
3.29484e-09
3.30174e-09
3.30545e-09
3.30593e-09
3.3032e-09
3.29724e-09
3.2881e-09
3.27585e-09
3.26057e-09
3.24238e-09
3.22142e-09
3.19785e-09
3.17187e-09
3.14369e-09
3.11357e-09
3.0818e-09
3.04869e-09
3.01461e-09
2.97996e-09
2.94521e-09
2.91086e-09
2.8775e-09
2.84577e-09
2.81642e-09
2.79029e-09
2.76838e-09
2.75181e-09
2.74194e-09
2.74039e-09
2.7491e-09
2.77062e-09
2.8081e-09
2.86569e-09
2.94906e-09
3.0662e-09
3.22891e-09
3.45565e-09
3.77717e-09
4.24957e-09
4.98839e-09
6.27917e-09
9.07589e-09
1.92136e-08
1.92937e-08
9.12482e-09
6.33267e-09
5.05597e-09
4.33534e-09
3.8831e-09
3.58254e-09
3.37683e-09
3.23469e-09
3.13727e-09
3.07245e-09
3.03198e-09
3.01002e-09
3.00226e-09
3.00543e-09
3.017e-09
3.03499e-09
3.05774e-09
3.08392e-09
3.11241e-09
3.14227e-09
3.17272e-09
3.20307e-09
3.23275e-09
3.26127e-09
3.2882e-09
3.31317e-09
3.33589e-09
3.3561e-09
3.37358e-09
3.38815e-09
3.39968e-09
3.40805e-09
3.4132e-09
3.41508e-09
3.41367e-09
3.40897e-09
3.401e-09
3.38982e-09
3.37551e-09
3.35817e-09
3.33792e-09
3.31493e-09
3.28935e-09
3.26139e-09
3.23129e-09
3.19931e-09
3.16573e-09
3.1309e-09
3.09517e-09
3.05897e-09
3.02276e-09
2.98707e-09
2.95247e-09
2.91964e-09
2.88933e-09
2.86241e-09
2.83987e-09
2.82287e-09
2.81281e-09
2.81134e-09
2.82044e-09
2.84273e-09
2.88143e-09
2.94082e-09
3.0267e-09
3.14729e-09
3.31471e-09
3.54791e-09
3.8785e-09
4.36411e-09
5.12341e-09
6.44976e-09
9.32314e-09
1.97377e-08
2.00558e-08
9.48603e-09
6.58448e-09
5.25828e-09
4.51008e-09
4.0408e-09
3.7291e-09
3.51588e-09
3.36862e-09
3.2677e-09
3.20053e-09
3.15853e-09
3.1356e-09
3.12729e-09
3.13018e-09
3.14163e-09
3.15959e-09
3.18234e-09
3.20848e-09
3.23687e-09
3.26653e-09
3.29665e-09
3.32652e-09
3.35556e-09
3.38327e-09
3.40921e-09
3.43303e-09
3.45442e-09
3.47313e-09
3.48896e-09
3.50174e-09
3.51134e-09
3.51767e-09
3.52068e-09
3.52032e-09
3.51661e-09
3.50953e-09
3.49916e-09
3.48555e-09
3.4688e-09
3.44903e-09
3.42637e-09
3.40099e-09
3.37307e-09
3.34282e-09
3.3105e-09
3.27636e-09
3.24071e-09
3.20388e-09
3.16626e-09
3.12827e-09
3.09037e-09
3.0531e-09
3.01705e-09
2.98288e-09
2.95138e-09
2.92341e-09
2.89998e-09
2.88228e-09
2.8717e-09
2.86995e-09
2.87904e-09
2.90161e-09
2.94099e-09
3.00151e-09
3.08911e-09
3.21216e-09
3.38307e-09
3.62117e-09
3.95873e-09
4.45459e-09
5.22994e-09
6.58426e-09
9.51805e-09
2.0151e-08
2.08146e-08
9.84574e-09
6.8354e-09
5.46005e-09
4.68455e-09
4.19844e-09
3.87579e-09
3.65523e-09
3.50299e-09
3.39872e-09
3.32932e-09
3.28589e-09
3.2621e-09
3.25331e-09
3.25597e-09
3.26733e-09
3.28526e-09
3.30798e-09
3.33403e-09
3.36222e-09
3.39154e-09
3.42116e-09
3.45034e-09
3.4785e-09
3.50512e-09
3.52976e-09
3.55208e-09
3.57177e-09
3.5886e-09
3.60235e-09
3.6129e-09
3.62012e-09
3.62394e-09
3.62432e-09
3.62127e-09
3.61476e-09
3.60485e-09
3.5916e-09
3.57511e-09
3.55547e-09
3.53283e-09
3.50734e-09
3.47918e-09
3.44853e-09
3.41563e-09
3.38073e-09
3.34411e-09
3.30607e-09
3.26697e-09
3.22717e-09
3.18711e-09
3.14727e-09
3.10817e-09
3.07042e-09
3.03468e-09
3.00174e-09
2.97246e-09
2.94787e-09
2.92916e-09
2.91774e-09
2.91533e-09
2.92398e-09
2.94635e-09
2.98582e-09
3.04678e-09
3.13525e-09
3.25974e-09
3.43283e-09
3.67414e-09
4.01643e-09
4.51941e-09
5.30605e-09
6.68022e-09
9.65706e-09
2.04458e-08
2.15804e-08
1.02089e-08
7.08885e-09
5.66398e-09
4.86101e-09
4.35802e-09
4.0244e-09
3.79653e-09
3.63936e-09
3.53181e-09
3.46026e-09
3.41547e-09
3.39089e-09
3.38167e-09
3.38414e-09
3.39543e-09
3.41333e-09
3.43597e-09
3.46185e-09
3.48973e-09
3.51856e-09
3.54746e-09
3.57572e-09
3.60271e-09
3.62791e-09
3.65089e-09
3.6713e-09
3.68885e-09
3.70332e-09
3.71451e-09
3.72231e-09
3.72662e-09
3.72739e-09
3.72461e-09
3.71828e-09
3.70842e-09
3.69512e-09
3.67846e-09
3.65855e-09
3.63551e-09
3.60951e-09
3.5807e-09
3.54928e-09
3.51547e-09
3.4795e-09
3.44163e-09
3.40214e-09
3.36136e-09
3.31963e-09
3.27735e-09
3.23493e-09
3.19285e-09
3.15166e-09
3.11193e-09
3.07435e-09
3.03969e-09
3.00883e-09
2.98279e-09
2.96276e-09
2.95016e-09
2.94671e-09
2.95447e-09
2.97612e-09
3.01506e-09
3.07573e-09
3.16419e-09
3.28903e-09
3.46292e-09
3.70567e-09
4.05032e-09
4.55709e-09
5.34998e-09
6.73539e-09
9.73691e-09
2.06152e-08
2.23653e-08
1.05811e-08
7.34864e-09
5.87307e-09
5.04199e-09
4.52175e-09
4.17695e-09
3.94165e-09
3.77951e-09
3.66866e-09
3.59498e-09
3.54889e-09
3.52356e-09
3.51397e-09
3.51629e-09
3.52754e-09
3.54539e-09
3.56791e-09
3.59354e-09
3.62097e-09
3.64913e-09
3.6771e-09
3.70415e-09
3.72963e-09
3.75304e-09
3.77393e-09
3.79196e-09
3.80687e-09
3.81843e-09
3.82649e-09
3.83094e-09
3.83172e-09
3.82882e-09
3.82222e-09
3.81197e-09
3.79814e-09
3.78082e-09
3.76012e-09
3.73618e-09
3.70914e-09
3.67919e-09
3.64651e-09
3.61132e-09
3.57383e-09
3.5343e-09
3.49299e-09
3.45022e-09
3.40629e-09
3.36156e-09
3.31642e-09
3.27129e-09
3.22666e-09
3.18305e-09
3.14105e-09
3.10134e-09
3.06467e-09
3.03193e-09
3.00412e-09
2.98243e-09
2.96829e-09
2.96338e-09
2.9698e-09
2.99019e-09
3.02798e-09
3.08759e-09
3.17511e-09
3.29915e-09
3.47241e-09
3.71474e-09
4.05927e-09
4.56632e-09
5.36018e-09
6.74783e-09
9.75476e-09
2.06532e-08
2.31819e-08
1.09684e-08
7.61896e-09
6.09061e-09
5.23027e-09
4.69206e-09
4.33563e-09
4.09262e-09
3.92535e-09
3.81113e-09
3.73532e-09
3.68795e-09
3.66192e-09
3.65202e-09
3.65425e-09
3.66549e-09
3.68331e-09
3.70568e-09
3.73097e-09
3.75782e-09
3.78512e-09
3.81191e-09
3.83743e-09
3.86104e-09
3.88221e-09
3.90053e-09
3.91565e-09
3.92732e-09
3.93535e-09
3.93961e-09
3.94003e-09
3.93659e-09
3.92927e-09
3.91813e-09
3.90324e-09
3.8847e-09
3.86263e-09
3.83718e-09
3.80851e-09
3.77681e-09
3.74226e-09
3.70508e-09
3.66549e-09
3.62375e-09
3.58011e-09
3.53486e-09
3.4883e-09
3.44075e-09
3.39258e-09
3.34417e-09
3.29596e-09
3.2484e-09
3.20202e-09
3.15742e-09
3.11524e-09
3.07624e-09
3.04128e-09
3.01137e-09
2.98767e-09
2.97159e-09
2.96482e-09
2.96942e-09
2.98803e-09
3.02404e-09
3.08186e-09
3.16753e-09
3.28962e-09
3.46078e-09
3.70078e-09
4.0426e-09
4.54633e-09
5.33565e-09
6.71618e-09
9.70858e-09
2.05555e-08
2.40442e-08
1.13772e-08
7.90423e-09
6.32006e-09
5.42874e-09
4.8715e-09
4.50277e-09
4.25162e-09
4.07896e-09
3.96125e-09
3.88326e-09
3.83464e-09
3.808e-09
3.79787e-09
3.80009e-09
3.8114e-09
3.82922e-09
3.85143e-09
3.87632e-09
3.90247e-09
3.92869e-09
3.95403e-09
3.97767e-09
3.99898e-09
4.01743e-09
4.0326e-09
4.04418e-09
4.05194e-09
4.05572e-09
4.05544e-09
4.05105e-09
4.04255e-09
4.03001e-09
4.01349e-09
3.99313e-09
3.96906e-09
3.94143e-09
3.91044e-09
3.87627e-09
3.83913e-09
3.79925e-09
3.75686e-09
3.71221e-09
3.66557e-09
3.6172e-09
3.56741e-09
3.51651e-09
3.46483e-09
3.41272e-09
3.36058e-09
3.30883e-09
3.25792e-09
3.20839e-09
3.1608e-09
3.1158e-09
3.07416e-09
3.03669e-09
3.00437e-09
2.97835e-09
2.95999e-09
2.95095e-09
2.95325e-09
2.96946e-09
3.00295e-09
3.05809e-09
3.14086e-09
3.25972e-09
3.42719e-09
3.66283e-09
3.99924e-09
4.49584e-09
5.27494e-09
6.63862e-09
9.59574e-09
2.03164e-08
2.49664e-08
1.18144e-08
8.20906e-09
6.56504e-09
5.64044e-09
5.06274e-09
4.68078e-09
4.4209e-09
4.24252e-09
4.12115e-09
4.04095e-09
3.99114e-09
3.96399e-09
3.95378e-09
3.95614e-09
3.96763e-09
3.98553e-09
4.00761e-09
4.03204e-09
4.05735e-09
4.08229e-09
4.10585e-09
4.12722e-09
4.14574e-09
4.16088e-09
4.17226e-09
4.17959e-09
4.18267e-09
4.18138e-09
4.17568e-09
4.16557e-09
4.15111e-09
4.13241e-09
4.1096e-09
4.08284e-09
4.05231e-09
4.01822e-09
3.98079e-09
3.94025e-09
3.89684e-09
3.85082e-09
3.80245e-09
3.75199e-09
3.69973e-09
3.64596e-09
3.59099e-09
3.53514e-09
3.47873e-09
3.42214e-09
3.36575e-09
3.30998e-09
3.25531e-09
3.20224e-09
3.15131e-09
3.10314e-09
3.05842e-09
3.01798e-09
2.98277e-09
2.95391e-09
2.93273e-09
2.92086e-09
2.92028e-09
2.93349e-09
2.96379e-09
3.01547e-09
3.09437e-09
3.2088e-09
3.37105e-09
3.60032e-09
3.92863e-09
4.41431e-09
5.17738e-09
6.5143e-09
9.41497e-09
1.99331e-08
2.59631e-08
1.22867e-08
8.53813e-09
6.82918e-09
5.8684e-09
5.26844e-09
4.8721e-09
4.60278e-09
4.41827e-09
4.29305e-09
4.21064e-09
4.15974e-09
4.13226e-09
4.12219e-09
4.12491e-09
4.13677e-09
4.15488e-09
4.17688e-09
4.20083e-09
4.22516e-09
4.24856e-09
4.27e-09
4.28862e-09
4.30377e-09
4.31494e-09
4.32177e-09
4.324e-09
4.32149e-09
4.31417e-09
4.30206e-09
4.28522e-09
4.26376e-09
4.23786e-09
4.20771e-09
4.17351e-09
4.13551e-09
4.09396e-09
4.04913e-09
4.00128e-09
3.95069e-09
3.89765e-09
3.84245e-09
3.78538e-09
3.72674e-09
3.66684e-09
3.60599e-09
3.54452e-09
3.48277e-09
3.42112e-09
3.35996e-09
3.29969e-09
3.24072e-09
3.18354e-09
3.12871e-09
3.07682e-09
3.02858e-09
2.98476e-09
2.94628e-09
2.9142e-09
2.88981e-09
2.87468e-09
2.87074e-09
2.88039e-09
2.90681e-09
2.95421e-09
3.02825e-09
3.13702e-09
3.2925e-09
3.51339e-09
3.83087e-09
4.30177e-09
5.04299e-09
6.34319e-09
9.16619e-09
1.94056e-08
2.70488e-08
1.28009e-08
8.89603e-09
7.11606e-09
6.11563e-09
5.49124e-09
5.07914e-09
4.79956e-09
4.60846e-09
4.47925e-09
4.39467e-09
4.34287e-09
4.31536e-09
4.30575e-09
4.30913e-09
4.32162e-09
4.34014e-09
4.36214e-09
4.38557e-09
4.40876e-09
4.43032e-09
4.44919e-09
4.46449e-09
4.47557e-09
4.48194e-09
4.4833e-09
4.47945e-09
4.47029e-09
4.45584e-09
4.43616e-09
4.41141e-09
4.38179e-09
4.34751e-09
4.30884e-09
4.26607e-09
4.21949e-09
4.1694e-09
4.11612e-09
4.05996e-09
4.00123e-09
3.94026e-09
3.87735e-09
3.81282e-09
3.747e-09
3.6802e-09
3.61275e-09
3.54499e-09
3.47727e-09
3.40995e-09
3.34336e-09
3.27794e-09
3.21412e-09
3.15236e-09
3.09319e-09
3.03719e-09
2.98501e-09
2.93739e-09
2.89521e-09
2.85948e-09
2.83145e-09
2.81258e-09
2.80474e-09
2.81025e-09
2.83213e-09
2.87445e-09
2.94266e-09
3.04458e-09
3.19176e-09
3.40227e-09
3.70625e-09
4.15858e-09
4.87219e-09
6.12584e-09
8.85017e-09
1.87354e-08
2.82374e-08
1.33636e-08
9.28721e-09
7.4291e-09
6.38497e-09
5.73364e-09
5.30423e-09
5.01346e-09
4.81535e-09
4.68204e-09
4.59544e-09
4.54307e-09
4.51593e-09
4.50723e-09
4.51167e-09
4.52515e-09
4.5443e-09
4.5664e-09
4.58925e-09
4.61106e-09
4.63039e-09
4.6461e-09
4.65734e-09
4.66344e-09
4.66404e-09
4.65882e-09
4.64768e-09
4.63061e-09
4.6077e-09
4.57913e-09
4.54513e-09
4.50599e-09
4.46202e-09
4.41356e-09
4.36097e-09
4.3046e-09
4.24482e-09
4.182e-09
4.11648e-09
4.04862e-09
3.97877e-09
3.90727e-09
3.83445e-09
3.76065e-09
3.6862e-09
3.61144e-09
3.53671e-09
3.46234e-09
3.38869e-09
3.31613e-09
3.24505e-09
3.17587e-09
3.10905e-09
3.04508e-09
2.9845e-09
2.92794e-09
2.8761e-09
2.8298e-09
2.79001e-09
2.75788e-09
2.73483e-09
2.7226e-09
2.72341e-09
2.74012e-09
2.77659e-09
2.83806e-09
2.93199e-09
3.06942e-09
3.26765e-09
3.55554e-09
3.98563e-09
4.66604e-09
5.86359e-09
8.46884e-09
1.79265e-08
2.95421e-08
1.39809e-08
9.71572e-09
7.77142e-09
6.67899e-09
5.99792e-09
5.54951e-09
5.24663e-09
5.0411e-09
4.90371e-09
4.81538e-09
4.7629e-09
4.73672e-09
4.72949e-09
4.73553e-09
4.75038e-09
4.77042e-09
4.79269e-09
4.81481e-09
4.83488e-09
4.85138e-09
4.86316e-09
4.86932e-09
4.86937e-09
4.86289e-09
4.84971e-09
4.8298e-09
4.80328e-09
4.77036e-09
4.73132e-09
4.68652e-09
4.63634e-09
4.58121e-09
4.52155e-09
4.45779e-09
4.39037e-09
4.31971e-09
4.24621e-09
4.17029e-09
4.09232e-09
4.01268e-09
3.93173e-09
3.84982e-09
3.7673e-09
3.68451e-09
3.60179e-09
3.51946e-09
3.43787e-09
3.35737e-09
3.27832e-09
3.2011e-09
3.12611e-09
3.05377e-09
2.98457e-09
2.91901e-09
2.85767e-09
2.80122e-09
2.75043e-09
2.70619e-09
2.66958e-09
2.64192e-09
2.62485e-09
2.62045e-09
2.63142e-09
2.66137e-09
2.71526e-09
2.80014e-09