/*--------------------------------*- C++ -*----------------------------------*\
  =========                 |
  \\      /  F ield         | OpenFOAM: The Open Source CFD Toolbox
   \\    /   O peration     | Website:  https://openfoam.org
    \\  /    A nd           | Version:  12
     \\/     M anipulation  |
\*---------------------------------------------------------------------------*/
FoamFile
{
    format      ascii;
    class       volScalarField;
    location    "8";
    object      k;
}
// * * * * * * * * * * * * * * * * * * * * * * * * * * * * * * * * * * * * * //

dimensions      [0 2 -2 0 0 0 0];

internalField   nonuniform List<scalar> 
5625
(
3.65338e-14
2.75958e-13
5.84996e-13
9.53961e-13
1.36967e-12
1.82218e-12
2.30422e-12
2.81023e-12
3.33561e-12
3.87642e-12
4.42911e-12
4.99044e-12
5.55734e-12
6.12695e-12
6.6965e-12
7.26335e-12
7.82498e-12
8.37891e-12
8.92281e-12
9.45438e-12
9.97144e-12
1.04719e-11
1.09537e-11
1.1415e-11
1.18539e-11
1.22688e-11
1.26579e-11
1.30198e-11
1.3353e-11
1.36563e-11
1.39285e-11
1.41684e-11
1.43753e-11
1.45482e-11
1.46864e-11
1.47894e-11
1.48567e-11
1.48881e-11
1.48834e-11
1.48425e-11
1.47654e-11
1.46525e-11
1.45041e-11
1.43206e-11
1.41027e-11
1.38512e-11
1.3567e-11
1.3251e-11
1.29045e-11
1.25287e-11
1.2125e-11
1.1695e-11
1.12403e-11
1.07626e-11
1.0264e-11
9.74632e-12
9.21174e-12
8.66249e-12
8.10089e-12
7.5294e-12
6.95059e-12
6.36712e-12
5.78182e-12
5.19762e-12
4.61764e-12
4.04518e-12
3.48376e-12
2.93726e-12
2.40997e-12
1.90687e-12
1.43398e-12
9.99091e-13
6.12812e-13
2.89114e-13
3.8275e-14
2.46991e-13
2.19849e-12
5.01119e-12
8.37581e-12
1.2147e-11
1.62377e-11
2.05868e-11
2.51469e-11
2.98784e-11
3.47466e-11
3.97203e-11
4.47707e-11
4.98705e-11
5.49939e-11
6.01165e-11
6.52145e-11
7.02651e-11
7.52465e-11
8.01374e-11
8.49174e-11
8.95669e-11
9.4067e-11
9.83997e-11
1.02548e-10
1.06495e-10
1.10225e-10
1.13724e-10
1.16978e-10
1.19975e-10
1.22703e-10
1.2515e-10
1.27309e-10
1.29169e-10
1.30725e-10
1.31968e-10
1.32895e-10
1.33502e-10
1.33784e-10
1.33742e-10
1.33375e-10
1.32682e-10
1.31667e-10
1.30333e-10
1.28683e-10
1.26724e-10
1.24463e-10
1.21908e-10
1.19067e-10
1.15951e-10
1.12572e-10
1.08942e-10
1.05076e-10
1.00987e-10
9.66921e-11
9.22081e-11
8.75529e-11
8.27456e-11
7.7806e-11
7.27552e-11
6.76152e-11
6.2409e-11
5.71605e-11
5.18949e-11
4.66386e-11
4.14194e-11
3.62667e-11
3.12119e-11
2.62891e-11
2.15362e-11
1.6996e-11
1.272e-11
8.77387e-12
5.25055e-12
2.30377e-12
2.58819e-13
5.48988e-13
4.92339e-12
1.12957e-11
1.89716e-11
2.76101e-11
3.70015e-11
4.69982e-11
5.74865e-11
6.83726e-11
7.95751e-11
9.10213e-11
1.02644e-10
1.14381e-10
1.26172e-10
1.3796e-10
1.49693e-10
1.61316e-10
1.7278e-10
1.84036e-10
1.95036e-10
2.05737e-10
2.16094e-10
2.26066e-10
2.35613e-10
2.44697e-10
2.53284e-10
2.61339e-10
2.68831e-10
2.7573e-10
2.82011e-10
2.87648e-10
2.92619e-10
2.96905e-10
3.00489e-10
3.03356e-10
3.05495e-10
3.06896e-10
3.07552e-10
3.07461e-10
3.06622e-10
3.05035e-10
3.02705e-10
2.9964e-10
2.95849e-10
2.91347e-10
2.86147e-10
2.8027e-10
2.73736e-10
2.66568e-10
2.58794e-10
2.50442e-10
2.41544e-10
2.32134e-10
2.22249e-10
2.11928e-10
2.01212e-10
1.90144e-10
1.78772e-10
1.67143e-10
1.55308e-10
1.43319e-10
1.31233e-10
1.19107e-10
1.07002e-10
9.49817e-11
8.31149e-11
7.14744e-11
6.01397e-11
4.91995e-11
3.87559e-11
2.89321e-11
1.98866e-11
1.18432e-11
5.16267e-12
5.75672e-13
9.07362e-13
8.15075e-12
1.87395e-11
3.15385e-11
4.59829e-11
6.17184e-11
7.84926e-11
9.61093e-11
1.14407e-10
1.33245e-10
1.52499e-10
1.72054e-10
1.91804e-10
2.11648e-10
2.3149e-10
2.51239e-10
2.70805e-10
2.90105e-10
3.09055e-10
3.27576e-10
3.45594e-10
3.63034e-10
3.79826e-10
3.95905e-10
4.11206e-10
4.25669e-10
4.39239e-10
4.51861e-10
4.63487e-10
4.74072e-10
4.83574e-10
4.91956e-10
4.99185e-10
5.05232e-10
5.10073e-10
5.13688e-10
5.16061e-10
5.17181e-10
5.17042e-10
5.15644e-10
5.12986e-10
5.09076e-10
5.03928e-10
4.97558e-10
4.89988e-10
4.81243e-10
4.71356e-10
4.60361e-10
4.48299e-10
4.35213e-10
4.21153e-10
4.06172e-10
3.90327e-10
3.73681e-10
3.56298e-10
3.38249e-10
3.19607e-10
3.00451e-10
2.80861e-10
2.60923e-10
2.40726e-10
2.20366e-10
1.99938e-10
1.79548e-10
1.59303e-10
1.39321e-10
1.19725e-10
1.00653e-10
8.22573e-11
6.47142e-11
4.82362e-11
3.30951e-11
1.96689e-11
8.55604e-12
9.52487e-13
1.30533e-12
1.17328e-11
2.69999e-11
4.54874e-11
6.63878e-11
8.91904e-11
1.13528e-10
1.39112e-10
1.65704e-10
1.93098e-10
2.21109e-10
2.49568e-10
2.78318e-10
3.07212e-10
3.36108e-10
3.64872e-10
3.93375e-10
4.21491e-10
4.49102e-10
4.76092e-10
5.02349e-10
5.27768e-10
5.52246e-10
5.75685e-10
5.97994e-10
6.19085e-10
6.38875e-10
6.57286e-10
6.74248e-10
6.89694e-10
7.03564e-10
7.15803e-10
7.26364e-10
7.35203e-10
7.42285e-10
7.47581e-10
7.51067e-10
7.52727e-10
7.52553e-10
7.50545e-10
7.46697e-10
7.41025e-10
7.33546e-10
7.24286e-10
7.13274e-10
7.00548e-10
6.86155e-10
6.70145e-10
6.52575e-10
6.33512e-10
6.13026e-10
5.91194e-10
5.68101e-10
5.43836e-10
5.18495e-10
4.92182e-10
4.65002e-10
4.37071e-10
4.08507e-10
3.79435e-10
3.49988e-10
3.20303e-10
2.90524e-10
2.60803e-10
2.31301e-10
2.0219e-10
1.73654e-10
1.45896e-10
1.19143e-10
9.3653e-11
6.97403e-11
4.78004e-11
2.83792e-11
1.23337e-11
1.3722e-12
1.73201e-12
1.55723e-11
3.58528e-11
6.04369e-11
8.82598e-11
1.18647e-10
1.51108e-10
1.8526e-10
2.20782e-10
2.57394e-10
2.94848e-10
3.32917e-10
3.71387e-10
4.10059e-10
4.48744e-10
4.87259e-10
5.25432e-10
5.63093e-10
6.00083e-10
6.36247e-10
6.71434e-10
7.05502e-10
7.38314e-10
7.69739e-10
7.99653e-10
8.27939e-10
8.54485e-10
8.79188e-10
9.01951e-10
9.22686e-10
9.41311e-10
9.57754e-10
9.71949e-10
9.83839e-10
9.93375e-10
1.00052e-09
1.00524e-09
1.00751e-09
1.00732e-09
1.00468e-09
9.99565e-10
9.92005e-10
9.82022e-10
9.69648e-10
9.54923e-10
9.37898e-10
9.18634e-10
8.97198e-10
8.73668e-10
8.48131e-10
8.20683e-10
7.91426e-10
7.60474e-10
7.27948e-10
6.93976e-10
6.58697e-10
6.22254e-10
5.84802e-10
5.46502e-10
5.07522e-10
4.68041e-10
4.28244e-10
3.88327e-10
3.48496e-10
3.08968e-10
2.69978e-10
2.31774e-10
1.94632e-10
1.58856e-10
1.24798e-10
9.28769e-11
6.36195e-11
3.77493e-11
1.63981e-11
1.82387e-12
2.1792e-12
1.95959e-11
4.51291e-11
7.61003e-11
1.11177e-10
1.49513e-10
1.90495e-10
2.33638e-10
2.78536e-10
3.24835e-10
3.7222e-10
4.20399e-10
4.69103e-10
5.18077e-10
5.67078e-10
6.15877e-10
6.64252e-10
7.11988e-10
7.58882e-10
8.04736e-10
8.4936e-10
8.92572e-10
9.34199e-10
9.74074e-10
1.01204e-09
1.04794e-09
1.08165e-09
1.11302e-09
1.14194e-09
1.16829e-09
1.19197e-09
1.21289e-09
1.23095e-09
1.2461e-09
1.25826e-09
1.26739e-09
1.27344e-09
1.2764e-09
1.27623e-09
1.27294e-09
1.26652e-09
1.257e-09
1.24439e-09
1.22875e-09
1.21012e-09
1.18857e-09
1.16418e-09
1.13702e-09
1.1072e-09
1.07482e-09
1.04002e-09
1.00292e-09
9.63653e-10
9.22389e-10
8.79286e-10
8.34519e-10
7.88274e-10
7.40746e-10
6.92142e-10
6.42677e-10
5.92579e-10
5.42086e-10
4.91449e-10
4.40931e-10
3.90811e-10
3.41388e-10
2.92982e-10
2.45942e-10
2.00658e-10
1.57576e-10
1.17223e-10
8.02651e-11
4.76094e-11
2.06754e-11
2.29926e-12
2.64021e-12
2.37436e-11
5.46905e-11
9.22442e-11
1.34796e-10
1.81326e-10
2.31092e-10
2.83507e-10
3.38079e-10
3.94377e-10
4.52017e-10
5.10643e-10
5.69926e-10
6.29554e-10
6.89232e-10
7.48676e-10
8.07616e-10
8.65791e-10
9.22951e-10
9.78854e-10
1.03327e-09
1.08597e-09
1.13675e-09
1.18541e-09
1.23174e-09
1.27557e-09
1.31672e-09
1.35504e-09
1.39037e-09
1.42258e-09
1.45154e-09
1.47712e-09
1.49924e-09
1.51781e-09
1.53273e-09
1.54396e-09
1.55144e-09
1.55513e-09
1.55502e-09
1.55111e-09
1.54337e-09
1.53183e-09
1.51654e-09
1.49754e-09
1.47489e-09
1.44866e-09
1.41896e-09
1.38588e-09
1.34954e-09
1.31008e-09
1.26765e-09
1.2224e-09
1.17451e-09
1.12417e-09
1.07158e-09
1.01696e-09
9.60523e-10
9.02524e-10
8.43211e-10
7.8285e-10
7.21721e-10
6.60116e-10
5.98344e-10
5.36729e-10
4.75616e-10
4.15369e-10
3.56382e-10
2.99082e-10
2.43946e-10
1.91515e-10
1.42432e-10
9.75004e-11
5.78193e-11
2.51049e-11
2.79159e-12
3.10934e-12
2.79641e-11
6.44194e-11
1.0867e-10
1.58826e-10
2.13691e-10
2.72394e-10
3.34245e-10
3.98662e-10
4.65141e-10
5.33224e-10
6.02493e-10
6.72557e-10
7.43048e-10
8.13613e-10
8.83919e-10
9.53644e-10
1.02248e-09
1.09013e-09
1.1563e-09
1.22072e-09
1.28314e-09
1.34328e-09
1.40092e-09
1.45583e-09
1.50778e-09
1.55657e-09
1.60202e-09
1.64394e-09
1.68217e-09
1.71655e-09
1.74695e-09
1.77326e-09
1.79535e-09
1.81314e-09
1.82656e-09
1.83554e-09
1.84003e-09
1.84002e-09
1.83551e-09
1.82645e-09
1.81291e-09
1.7949e-09
1.77249e-09
1.74575e-09
1.71477e-09
1.67966e-09
1.64054e-09
1.59755e-09
1.55085e-09
1.50062e-09
1.44704e-09
1.39032e-09
1.3307e-09
1.26839e-09
1.20367e-09
1.13681e-09
1.06808e-09
9.97796e-10
9.26272e-10
8.53842e-10
7.80855e-10
7.0768e-10
6.34704e-10
5.62336e-10
4.91013e-10
4.212e-10
3.53407e-10
2.88196e-10
2.26208e-10
1.682e-10
1.15119e-10
6.82565e-11
2.96332e-11
3.29492e-12
3.58166e-12
3.22132e-11
7.42134e-11
1.25204e-10
1.83014e-10
2.46268e-10
3.13965e-10
3.85311e-10
4.59639e-10
5.36365e-10
6.14964e-10
6.94951e-10
7.75875e-10
8.57309e-10
9.38849e-10
1.02011e-09
1.10071e-09
1.18029e-09
1.25852e-09
1.33506e-09
1.4096e-09
1.48182e-09
1.55143e-09
1.61816e-09
1.68174e-09
1.74191e-09
1.79844e-09
1.85111e-09
1.89971e-09
1.94405e-09
1.98395e-09
2.01926e-09
2.04982e-09
2.07552e-09
2.09625e-09
2.11192e-09
2.12246e-09
2.12781e-09
2.12794e-09
2.12286e-09
2.11252e-09
2.09698e-09
2.07626e-09
2.05045e-09
2.01961e-09
1.98386e-09
1.94331e-09
1.8981e-09
1.84841e-09
1.79441e-09
1.7363e-09
1.6743e-09
1.60866e-09
1.53964e-09
1.46752e-09
1.39258e-09
1.31516e-09
1.23557e-09
1.15418e-09
1.07136e-09
9.87487e-10
9.02979e-10
8.18262e-10
7.33788e-10
6.50033e-10
5.67503e-10
4.86741e-10
4.08335e-10
3.32936e-10
2.61284e-10
1.94253e-10
1.32932e-10
7.88097e-11
3.4212e-11
3.80388e-12
4.05284e-12
3.64519e-11
8.39831e-11
1.41696e-10
2.07139e-10
2.78757e-10
3.55421e-10
4.36235e-10
5.20443e-10
6.07387e-10
6.9647e-10
7.87145e-10
8.78899e-10
9.7125e-10
1.06374e-09
1.15592e-09
1.24737e-09
1.33769e-09
1.42649e-09
1.51339e-09
1.59802e-09
1.68004e-09
1.75912e-09
1.83493e-09
1.90718e-09
1.97559e-09
2.03987e-09
2.09978e-09
2.15508e-09
2.20555e-09
2.25099e-09
2.29123e-09
2.32609e-09
2.35543e-09
2.37913e-09
2.39709e-09
2.40922e-09
2.41547e-09
2.41578e-09
2.41018e-09
2.3986e-09
2.38109e-09
2.35771e-09
2.32853e-09
2.29362e-09
2.25312e-09
2.20716e-09
2.1559e-09
2.09952e-09
2.03822e-09
1.97225e-09
1.90185e-09
1.82729e-09
1.74887e-09
1.66692e-09
1.58176e-09
1.49376e-09
1.4033e-09
1.31079e-09
1.21665e-09
1.12132e-09
1.02527e-09
9.28991e-10
8.33e-10
7.37839e-10
6.44086e-10
5.52359e-10
4.63326e-10
3.77728e-10
2.96401e-10
2.20336e-10
1.50767e-10
8.93756e-11
3.87964e-11
4.31346e-12
4.51915e-12
4.06466e-11
9.36508e-11
1.58015e-10
2.31008e-10
3.109e-10
3.96433e-10
4.86607e-10
5.80585e-10
6.7763e-10
7.77077e-10
8.78317e-10
9.80778e-10
1.08392e-09
1.18723e-09
1.29021e-09
1.3924e-09
1.49333e-09
1.59258e-09
1.68971e-09
1.78433e-09
1.87605e-09
1.96449e-09
2.0493e-09
2.13014e-09
2.2067e-09
2.27866e-09
2.34574e-09
2.40768e-09
2.46424e-09
2.51519e-09
2.56033e-09
2.59946e-09
2.63244e-09
2.65911e-09
2.67937e-09
2.69311e-09
2.70027e-09
2.7008e-09
2.69472e-09
2.68195e-09
2.66254e-09
2.63655e-09
2.60405e-09
2.56516e-09
2.51999e-09
2.46869e-09
2.41145e-09
2.34846e-09
2.27997e-09
2.20622e-09
2.1275e-09
2.04411e-09
1.95639e-09
1.86469e-09
1.7694e-09
1.67092e-09
1.56969e-09
1.46614e-09
1.36077e-09
1.25408e-09
1.14658e-09
1.03883e-09
9.31412e-10
8.24937e-10
7.20051e-10
6.17446e-10
5.17872e-10
4.22155e-10
3.31233e-10
2.46208e-10
1.68457e-10
9.9856e-11
4.33437e-11
4.81894e-12
4.97737e-12
4.47684e-11
1.0315e-10
1.74049e-10
2.54458e-10
3.42475e-10
4.36714e-10
5.36079e-10
6.39644e-10
7.466e-10
8.56216e-10
9.67819e-10
1.08078e-09
1.1945e-09
1.30842e-09
1.42199e-09
1.5347e-09
1.64603e-09
1.75552e-09
1.86269e-09
1.96709e-09
2.06831e-09
2.16593e-09
2.25955e-09
2.34881e-09
2.43335e-09
2.51284e-09
2.58696e-09
2.65542e-09
2.71795e-09
2.7743e-09
2.82425e-09
2.86759e-09
2.90414e-09
2.93374e-09
2.95627e-09
2.97162e-09
2.9797e-09
2.98047e-09
2.97393e-09
2.96001e-09
2.93876e-09
2.91024e-09
2.87453e-09
2.83174e-09
2.78201e-09
2.7255e-09
2.66242e-09
2.59297e-09
2.51743e-09
2.43606e-09
2.34919e-09
2.25714e-09
2.1603e-09
2.05904e-09
1.95381e-09
1.84504e-09
1.73321e-09
1.61883e-09
1.50243e-09
1.38456e-09
1.26581e-09
1.14679e-09
1.02814e-09
9.10545e-10
7.94715e-10
6.81418e-10
5.71483e-10
4.65822e-10
3.65468e-10
2.71636e-10
1.85844e-10
1.10157e-10
4.78133e-11
5.31577e-12
5.42487e-12
4.87937e-11
1.12426e-10
1.89704e-10
2.77353e-10
3.73298e-10
4.76032e-10
5.84359e-10
6.97271e-10
8.13888e-10
9.33411e-10
1.05511e-09
1.17829e-09
1.30231e-09
1.42655e-09
1.55042e-09
1.67335e-09
1.79479e-09
1.91423e-09
2.03114e-09
2.14505e-09
2.25549e-09
2.36201e-09
2.46419e-09
2.56161e-09
2.6539e-09
2.74068e-09
2.82162e-09
2.8964e-09
2.96472e-09
3.02631e-09
3.08092e-09
3.12833e-09
3.16834e-09
3.20079e-09
3.22552e-09
3.24242e-09
3.2514e-09
3.2524e-09
3.24544e-09
3.23042e-09
3.20739e-09
3.17642e-09
3.1376e-09
3.09104e-09
3.03689e-09
2.97534e-09
2.90659e-09
2.83088e-09
2.7485e-09
2.65974e-09
2.56495e-09
2.46449e-09
2.35878e-09
2.24824e-09
2.13333e-09
2.01455e-09
1.89242e-09
1.7675e-09
1.64036e-09
1.51162e-09
1.38192e-09
1.25192e-09
1.12234e-09
9.93908e-10
8.67422e-10
7.43713e-10
6.23689e-10
5.08343e-10
3.98804e-10
2.96397e-10
2.02774e-10
1.20187e-10
5.21654e-11
5.79955e-12
5.85959e-12
5.27038e-11
1.21436e-10
2.0491e-10
2.99586e-10
4.03225e-10
5.142e-10
6.31218e-10
7.53191e-10
8.79166e-10
1.00828e-09
1.13975e-09
1.27282e-09
1.40679e-09
1.541e-09
1.67481e-09
1.80761e-09
1.9388e-09
2.06781e-09
2.19411e-09
2.31716e-09
2.43647e-09
2.55154e-09
2.66192e-09
2.76718e-09
2.86689e-09
2.96066e-09
3.04812e-09
3.12894e-09
3.20279e-09
3.26938e-09
3.32844e-09
3.37974e-09
3.42305e-09
3.45819e-09
3.48502e-09
3.50339e-09
3.51321e-09
3.51442e-09
3.50703e-09
3.49092e-09
3.46617e-09
3.43284e-09
3.39103e-09
3.34084e-09
3.28245e-09
3.21604e-09
3.14184e-09
3.06011e-09
2.97115e-09
2.87528e-09
2.77287e-09
2.66433e-09
2.55008e-09
2.4306e-09
2.30638e-09
2.17796e-09
2.04591e-09
1.91083e-09
1.77335e-09
1.63413e-09
1.49386e-09
1.35329e-09
1.21316e-09
1.07429e-09
9.37529e-10
8.03781e-10
6.74027e-10
5.49343e-10
4.30947e-10
3.20271e-10
2.19098e-10
1.29858e-10
5.63615e-11
6.266e-12
6.28005e-12
5.64856e-11
1.3015e-10
2.19613e-10
3.21081e-10
4.32155e-10
5.51087e-10
6.76493e-10
8.07205e-10
9.422e-10
1.08055e-09
1.22142e-09
1.36399e-09
1.50753e-09
1.65131e-09
1.79465e-09
1.93689e-09
2.0774e-09
2.21557e-09
2.35082e-09
2.48258e-09
2.61032e-09
2.73352e-09
2.85169e-09
2.96436e-09
3.0711e-09
3.17147e-09
3.26509e-09
3.3516e-09
3.43065e-09
3.50193e-09
3.56515e-09
3.62007e-09
3.66645e-09
3.7041e-09
3.73285e-09
3.75255e-09
3.76312e-09
3.76446e-09
3.75661e-09
3.73944e-09
3.71301e-09
3.6774e-09
3.6327e-09
3.57904e-09
3.51658e-09
3.44554e-09
3.36614e-09
3.27866e-09
3.18343e-09
3.08079e-09
2.97113e-09
2.85488e-09
2.7325e-09
2.6045e-09
2.47141e-09
2.33381e-09
2.19231e-09
2.04754e-09
1.9002e-09
1.75099e-09
1.60066e-09
1.44999e-09
1.2998e-09
1.15097e-09
1.00441e-09
8.61082e-10
7.22045e-10
5.88453e-10
4.61608e-10
3.43044e-10
2.34668e-10
1.39083e-10
6.03639e-11
6.71089e-12
6.68543e-12
6.01316e-11
1.3855e-10
2.33785e-10
3.41796e-10
4.60027e-10
5.86616e-10
7.20086e-10
8.59193e-10
1.00285e-09
1.15006e-09
1.29992e-09
1.45159e-09
1.60425e-09
1.75716e-09
1.90957e-09
2.06078e-09
2.21014e-09
2.35698e-09
2.50068e-09
2.64066e-09
2.77634e-09
2.90717e-09
3.03264e-09
3.15224e-09
3.26552e-09
3.37204e-09
3.47136e-09
3.56313e-09
3.64696e-09
3.72255e-09
3.78958e-09
3.84779e-09
3.89694e-09
3.93682e-09
3.96726e-09
3.98811e-09
3.99927e-09
4.00064e-09
3.99227e-09
3.974e-09
3.94592e-09
3.90808e-09
3.86061e-09
3.80362e-09
3.73729e-09
3.66184e-09
3.57752e-09
3.48461e-09
3.38346e-09
3.27442e-09
3.15793e-09
3.03441e-09
2.90438e-09
2.76836e-09
2.62692e-09
2.48067e-09
2.33026e-09
2.17638e-09
2.01974e-09
1.86112e-09
1.7013e-09
1.54112e-09
1.38146e-09
1.22325e-09
1.06744e-09
9.15086e-10
7.67301e-10
6.25311e-10
4.90503e-10
3.64503e-10
2.4934e-10
1.47775e-10
6.41351e-11
7.13009e-12
7.07558e-12
6.36404e-11
1.46634e-10
2.47419e-10
3.61721e-10
4.86828e-10
6.20767e-10
7.61972e-10
9.09121e-10
1.06106e-09
1.21673e-09
1.37518e-09
1.5355e-09
1.69684e-09
1.8584e-09
2.01939e-09
2.17908e-09
2.33675e-09
2.49172e-09
2.64334e-09
2.79098e-09
2.93404e-09
3.07194e-09
3.20414e-09
3.33012e-09
3.44939e-09
3.5615e-09
3.666e-09
3.7625e-09
3.85063e-09
3.93005e-09
4.00044e-09
4.06154e-09
4.11308e-09
4.15486e-09
4.18669e-09
4.20843e-09
4.21996e-09
4.2212e-09
4.21219e-09
4.19276e-09
4.16301e-09
4.12299e-09
4.07283e-09
4.01265e-09
3.94265e-09
3.86304e-09
3.77408e-09
3.67608e-09
3.56939e-09
3.45439e-09
3.33152e-09
3.20124e-09
3.06409e-09
2.92061e-09
2.7714e-09
2.61712e-09
2.45844e-09
2.29609e-09
2.13083e-09
1.96346e-09
1.79483e-09
1.62582e-09
1.45735e-09
1.29041e-09
1.12602e-09
9.65271e-10
8.09354e-10
6.5956e-10
5.1735e-10
3.84442e-10
2.62972e-10
1.5585e-10
6.76386e-11
7.51953e-12
7.451e-12
6.70165e-11
1.5441e-10
2.60534e-10
3.80881e-10
5.12591e-10
6.53582e-10
8.02197e-10
9.57041e-10
1.11689e-09
1.28063e-09
1.44724e-09
1.61577e-09
1.78532e-09
1.95504e-09
2.1241e-09
2.29173e-09
2.45717e-09
2.6197e-09
2.77865e-09
2.93334e-09
3.08316e-09
3.22751e-09
3.36581e-09
3.49753e-09
3.62216e-09
3.73923e-09
3.84829e-09
3.94893e-09
4.04077e-09
4.12346e-09
4.19668e-09
4.26016e-09
4.31363e-09
4.35688e-09
4.38973e-09
4.41203e-09
4.42365e-09
4.42453e-09
4.41472e-09
4.39401e-09
4.36253e-09
4.32034e-09
4.26756e-09
4.20432e-09
4.13083e-09
4.0473e-09
3.95401e-09
3.85128e-09
3.73946e-09
3.61895e-09
3.49021e-09
3.35373e-09
3.21004e-09
3.05973e-09
2.90342e-09
2.74179e-09
2.57555e-09
2.40546e-09
2.23232e-09
2.05696e-09
1.88028e-09
1.7032e-09
1.52669e-09
1.35177e-09
1.17953e-09
1.01112e-09
8.47773e-10
6.90847e-10
5.41875e-10
4.02654e-10
2.75422e-10
1.63225e-10
7.08381e-11
7.87518e-12
7.81292e-12
7.02712e-11
1.61906e-10
2.73172e-10
3.99338e-10
5.37398e-10
6.85162e-10
8.40884e-10
1.00309e-09
1.17049e-09
1.34192e-09
1.51629e-09
1.69259e-09
1.86989e-09
2.04727e-09
2.22388e-09
2.39889e-09
2.57152e-09
2.74101e-09
2.90665e-09
3.06775e-09
3.22366e-09
3.37376e-09
3.51746e-09
3.65421e-09
3.78349e-09
3.90482e-09
4.01773e-09
4.12182e-09
4.21669e-09
4.302e-09
4.37743e-09
4.44269e-09
4.49753e-09
4.54175e-09
4.57515e-09
4.59759e-09
4.60896e-09
4.60918e-09
4.59832e-09
4.57616e-09
4.54285e-09
4.49845e-09
4.44308e-09
4.37689e-09
4.30007e-09
4.21287e-09
4.11555e-09
4.00845e-09
3.89193e-09
3.76641e-09
3.63235e-09
3.49025e-09
3.34068e-09
3.18422e-09
3.02154e-09
2.85333e-09
2.68031e-09
2.5033e-09
2.3231e-09
2.1406e-09
1.95672e-09
1.77241e-09
1.58871e-09
1.40666e-09
1.2274e-09
1.05213e-09
8.82134e-10
7.18827e-10
5.63805e-10
4.18938e-10
2.86554e-10
1.69818e-10
7.36984e-11
8.19311e-12
8.1633e-12
7.34218e-11
1.69161e-10
2.85401e-10
4.1719e-10
5.61381e-10
7.15672e-10
8.78231e-10
1.04751e-09
1.22214e-09
1.40089e-09
1.58264e-09
1.7663e-09
1.95089e-09
2.13545e-09
2.31908e-09
2.50092e-09
2.68014e-09
2.85596e-09
3.02763e-09
3.19445e-09
3.35573e-09
3.51084e-09
3.65917e-09
3.80018e-09
3.93331e-09
4.0581e-09
4.17407e-09
4.28081e-09
4.37795e-09
4.46512e-09
4.54202e-09
4.60837e-09
4.66393e-09
4.70849e-09
4.74188e-09
4.76396e-09
4.77463e-09
4.77382e-09
4.76159e-09
4.73776e-09
4.70245e-09
4.65575e-09
4.59779e-09
4.52871e-09
4.44873e-09
4.35807e-09
4.25703e-09
4.14594e-09
4.02517e-09
3.89515e-09
3.75634e-09
3.60927e-09
3.4545e-09
3.29265e-09
3.12438e-09
2.9504e-09
2.77148e-09
2.58842e-09
2.40208e-09
2.21336e-09
2.02321e-09
1.83263e-09
1.64266e-09
1.45441e-09
1.26904e-09
1.0878e-09
9.1202e-10
7.43161e-10
5.82876e-10
4.33098e-10
2.96231e-10
1.75549e-10
7.61846e-11
8.46945e-12
8.5048e-12
7.64922e-11
1.7623e-10
2.97313e-10
4.34573e-10
5.84718e-10
7.45339e-10
9.14512e-10
1.09061e-09
1.27219e-09
1.45797e-09
1.64673e-09
1.83737e-09
2.02882e-09
2.2201e-09
2.41024e-09
2.59835e-09
2.78356e-09
2.96506e-09
3.14208e-09
3.31388e-09
3.47976e-09
3.63908e-09
3.79122e-09
3.93562e-09
4.07174e-09
4.1991e-09
4.31724e-09
4.42576e-09
4.52427e-09
4.61245e-09
4.68999e-09
4.75663e-09
4.81214e-09
4.85634e-09
4.88905e-09
4.91017e-09
4.9196e-09
4.9173e-09
4.90331e-09
4.87748e-09
4.83995e-09
4.79082e-09
4.7302e-09
4.65827e-09
4.57523e-09
4.48133e-09
4.37686e-09
4.26215e-09
4.13759e-09
4.0036e-09
3.86066e-09
3.70929e-09
3.55006e-09
3.38361e-09
3.21059e-09
3.03175e-09
2.84785e-09
2.65971e-09
2.46821e-09
2.27428e-09
2.07888e-09
1.88303e-09
1.68782e-09
1.49438e-09
1.3039e-09
1.11766e-09
9.37029e-10
7.63522e-10
5.98831e-10
4.44941e-10
3.04325e-10
1.80342e-10
7.82634e-11
8.70049e-12
8.84076e-12
7.95128e-11
1.83182e-10
3.09025e-10
4.51655e-10
6.07637e-10
7.7445e-10
9.50076e-10
1.1328e-09
1.32112e-09
1.51366e-09
1.70915e-09
1.90642e-09
2.10435e-09
2.3019e-09
2.49806e-09
2.69189e-09
2.8825e-09
3.06903e-09
3.25068e-09
3.42669e-09
3.59637e-09
3.75905e-09
3.9141e-09
4.06097e-09
4.19912e-09
4.32808e-09
4.4474e-09
4.5567e-09
4.65561e-09
4.74382e-09
4.82106e-09
4.88707e-09
4.94167e-09
4.98467e-09
5.01594e-09
5.03539e-09
5.04294e-09
5.0386e-09
5.02236e-09
4.99415e-09
4.95411e-09
4.90233e-09
4.83895e-09
4.76416e-09
4.67815e-09
4.58119e-09
4.47356e-09
4.35561e-09
4.22771e-09
4.0903e-09
3.94385e-09
3.78888e-09
3.62598e-09
3.45576e-09
3.2789e-09
3.09614e-09
2.90825e-09
2.71607e-09
2.52048e-09
2.32241e-09
2.12285e-09
1.92284e-09
1.72349e-09
1.52594e-09
1.33142e-09
1.14123e-09
9.56774e-10
7.79594e-10
6.11422e-10
4.54286e-10
3.10709e-10
1.84122e-10
7.99025e-11
8.88267e-12
9.17521e-12
8.25197e-11
1.90102e-10
3.20678e-10
4.68643e-10
6.30413e-10
8.03351e-10
9.85342e-10
1.17458e-09
1.36948e-09
1.56859e-09
1.77058e-09
1.9742e-09
2.17827e-09
2.38169e-09
2.58341e-09
2.78244e-09
2.97784e-09
3.16874e-09
3.35429e-09
3.53374e-09
3.70636e-09
3.87148e-09
4.02849e-09
4.17682e-09
4.31596e-09
4.44546e-09
4.56488e-09
4.67386e-09
4.77208e-09
4.85925e-09
4.93511e-09
4.99948e-09
5.05216e-09
5.09303e-09
5.12199e-09
5.13896e-09
5.1439e-09
5.13687e-09
5.11782e-09
5.08675e-09
5.04382e-09
4.98913e-09
4.92283e-09
4.8451e-09
4.75617e-09
4.6563e-09
4.54577e-09
4.42493e-09
4.29416e-09
4.15388e-09
4.00456e-09
3.84673e-09
3.68096e-09
3.50786e-09
3.32811e-09
3.14243e-09
2.95161e-09
2.75647e-09
2.55791e-09
2.35686e-09
2.15432e-09
1.95133e-09
1.749e-09
1.54852e-09
1.3511e-09
1.15808e-09
9.7089e-10
7.91082e-10
6.20419e-10
4.6096e-10
3.15267e-10
1.86819e-10
8.10719e-11
9.01262e-12
9.51282e-12
8.55547e-11
1.97086e-10
3.32434e-10
4.85771e-10
6.53359e-10
8.32441e-10
1.02079e-09
1.21652e-09
1.41793e-09
1.62351e-09
1.83183e-09
2.04158e-09
2.25151e-09
2.46045e-09
2.66731e-09
2.87103e-09
3.07064e-09
3.26524e-09
3.45396e-09
3.63601e-09
3.81068e-09
3.97728e-09
4.13522e-09
4.28393e-09
4.42295e-09
4.55181e-09
4.67015e-09
4.77762e-09
4.87394e-09
4.95887e-09
5.03219e-09
5.09376e-09
5.14344e-09
5.18113e-09
5.20679e-09
5.22037e-09
5.22187e-09
5.2114e-09
5.18887e-09
5.15441e-09
5.10814e-09
5.0502e-09
4.98075e-09
4.89999e-09
4.80814e-09
4.70548e-09
4.59228e-09
4.4689e-09
4.3357e-09
4.19311e-09
4.04158e-09
3.88164e-09
3.71382e-09
3.53876e-09
3.3571e-09
3.16956e-09
2.97691e-09
2.77998e-09
2.57964e-09
2.37682e-09
2.17253e-09
1.9678e-09
1.76375e-09
1.56156e-09
1.36248e-09
1.16782e-09
9.79042e-10
7.97712e-10
6.25607e-10
4.64806e-10
3.17891e-10
1.88371e-10
8.17441e-11
9.08729e-12
9.85877e-12
8.86647e-11
2.0424e-10
3.44474e-10
5.03304e-10
6.76831e-10
8.62166e-10
1.05697e-09
1.25924e-09
1.4672e-09
1.67922e-09
1.8938e-09
2.10953e-09
2.32511e-09
2.53927e-09
2.75088e-09
2.95882e-09
3.16208e-09
3.3597e-09
3.55083e-09
3.73464e-09
3.91041e-09
4.07747e-09
4.23524e-09
4.38318e-09
4.52085e-09
4.64783e-09
4.76379e-09
4.86844e-09
4.96155e-09
5.04293e-09
5.11243e-09
5.16994e-09
5.2154e-09
5.24877e-09
5.27003e-09
5.27921e-09
5.27636e-09
5.26158e-09
5.23486e-09
5.19638e-09
5.14627e-09
5.08468e-09
5.01181e-09
4.92786e-09
4.83306e-09
4.72769e-09
4.61204e-09
4.48644e-09
4.35126e-09
4.20691e-09
4.05384e-09
3.89253e-09
3.72354e-09
3.54745e-09
3.3649e-09
3.17659e-09
2.98327e-09
2.78574e-09
2.58486e-09
2.38156e-09
2.17681e-09
1.97166e-09
1.7672e-09
1.5646e-09
1.36512e-09
1.17008e-09
9.8093e-10
7.99242e-10
6.26798e-10
4.65684e-10
3.18486e-10
1.88721e-10
8.1895e-11
9.10403e-12
1.02188e-11
9.19009e-11
2.11684e-10
3.56996e-10
5.2153e-10
7.01214e-10
8.93015e-10
1.09447e-09
1.30346e-09
1.51808e-09
1.73662e-09
1.95747e-09
2.17913e-09
2.40019e-09
2.61934e-09
2.83535e-09
3.04706e-09
3.2534e-09
3.45339e-09
3.64613e-09
3.83081e-09
4.00669e-09
4.17313e-09
4.32956e-09
4.47548e-09
4.61049e-09
4.73422e-09
4.84641e-09
4.94682e-09
5.03529e-09
5.11171e-09
5.17598e-09
5.22809e-09
5.26802e-09
5.2958e-09
5.31149e-09
5.31515e-09
5.30695e-09
5.28695e-09
5.25526e-09
5.21207e-09
5.15754e-09
5.09186e-09
5.01525e-09
4.92792e-09
4.83014e-09
4.72217e-09
4.60429e-09
4.47684e-09
4.34016e-09
4.19465e-09
4.04073e-09
3.87887e-09
3.70959e-09
3.53346e-09
3.35108e-09
3.16312e-09
2.9703e-09
2.77341e-09
2.57327e-09
2.37078e-09
2.16689e-09
1.96264e-09
1.75909e-09
1.55742e-09
1.35884e-09
1.1647e-09
9.76405e-10
7.95545e-10
6.23889e-10
4.63513e-10
3.16995e-10
1.87833e-10
8.15082e-11
9.06097e-12
1.05989e-11
9.53178e-11
2.19542e-10
3.70212e-10
5.40758e-10
7.26919e-10
9.25506e-10
1.13391e-09
1.34989e-09
1.57142e-09
1.79665e-09
2.02387e-09
2.25147e-09
2.47795e-09
2.7019e-09
2.922e-09
3.13705e-09
3.34592e-09
3.54759e-09
3.74114e-09
3.92575e-09
4.10069e-09
4.26534e-09
4.41917e-09
4.56173e-09
4.69266e-09
4.81168e-09
4.91858e-09
5.01322e-09
5.09552e-09
5.16544e-09
5.22299e-09
5.26822e-09
5.30119e-09
5.32203e-09
5.33088e-09
5.3279e-09
5.31327e-09
5.2871e-09
5.24961e-09
5.20101e-09
5.14151e-09
5.07132e-09
4.99068e-09
4.89981e-09
4.79896e-09
4.68841e-09
4.56845e-09
4.4394e-09
4.30161e-09
4.15544e-09
4.00129e-09
3.83962e-09
3.67091e-09
3.49568e-09
3.31451e-09
3.12804e-09
2.93693e-09
2.74194e-09
2.54385e-09
2.34354e-09
2.14191e-09
1.93997e-09
1.73875e-09
1.5394e-09
1.34313e-09
1.15123e-09
9.65115e-10
7.86343e-10
6.16668e-10
4.58143e-10
3.13318e-10
1.85651e-10
8.05605e-11
8.95558e-12
1.10054e-11
9.89723e-11
2.27945e-10
3.84342e-10
5.61307e-10
7.54373e-10
9.60178e-10
1.17596e-09
1.39932e-09
1.62809e-09
1.8603e-09
2.09408e-09
2.32772e-09
2.5596e-09
2.7882e-09
3.01213e-09
3.2301e-09
3.44093e-09
3.64357e-09
3.83707e-09
4.0206e-09
4.19347e-09
4.35508e-09
4.50494e-09
4.64267e-09
4.768e-09
4.88072e-09
4.98071e-09
5.06794e-09
5.14241e-09
5.20421e-09
5.25342e-09
5.29019e-09
5.31474e-09
5.32727e-09
5.32799e-09
5.31714e-09
5.29493e-09
5.26162e-09
5.21746e-09
5.16268e-09
5.09754e-09
5.02228e-09
4.93717e-09
4.84247e-09
4.73843e-09
4.62534e-09
4.50348e-09
4.37315e-09
4.23468e-09
4.08843e-09
3.93475e-09
3.77407e-09
3.60682e-09
3.43351e-09
3.25465e-09
3.07083e-09
2.88268e-09
2.6909e-09
2.49623e-09
2.29949e-09
2.10155e-09
1.90335e-09
1.70592e-09
1.51034e-09
1.31778e-09
1.12951e-09
9.46921e-10
7.71526e-10
6.05051e-10
4.49512e-10
3.07413e-10
1.82151e-10
7.9041e-11
8.78664e-12
1.14447e-11
1.02922e-10
2.37027e-10
3.99609e-10
5.83502e-10
7.84011e-10
9.9758e-10
1.22127e-09
1.45251e-09
1.68898e-09
1.92853e-09
2.16916e-09
2.40901e-09
2.64633e-09
2.87948e-09
3.10698e-09
3.32745e-09
3.53965e-09
3.74248e-09
3.935e-09
4.11637e-09
4.28593e-09
4.44311e-09
4.58752e-09
4.71885e-09
4.8369e-09
4.94159e-09
5.03293e-09
5.11097e-09
5.17587e-09
5.22778e-09
5.26697e-09
5.29373e-09
5.30833e-09
5.31108e-09
5.30231e-09
5.28233e-09
5.25145e-09
5.20998e-09
5.15825e-09
5.09655e-09
5.02517e-09
4.94439e-09
4.85451e-09
4.7558e-09
4.64853e-09
4.53297e-09
4.40941e-09
4.27814e-09
4.13947e-09
3.9937e-09
3.84118e-09
3.68229e-09
3.51742e-09
3.34701e-09
3.17155e-09
2.99156e-09
2.80761e-09
2.62034e-09
2.43044e-09
2.23867e-09
2.04583e-09
1.85283e-09
1.66061e-09
1.47023e-09
1.28281e-09
1.09956e-09
9.21832e-10
7.51099e-10
5.8904e-10
4.3762e-10
2.99281e-10
1.77332e-10
7.69495e-11
8.55412e-12
1.19233e-11
1.07225e-10
2.46919e-10
4.16236e-10
6.07667e-10
8.16263e-10
1.03825e-09
1.2705e-09
1.51023e-09
1.75494e-09
2.00231e-09
2.25016e-09
2.49645e-09
2.73928e-09
2.9769e-09
3.2077e-09
3.4302e-09
3.64311e-09
3.8453e-09
4.03579e-09
4.21378e-09
4.37864e-09
4.52989e-09
4.66719e-09
4.79036e-09
4.89932e-09
4.99413e-09
5.07491e-09
5.14189e-09
5.19531e-09
5.23557e-09
5.26303e-09
5.27806e-09
5.28113e-09
5.27266e-09
5.25306e-09
5.22273e-09
5.18209e-09
5.13153e-09
5.07142e-09
5.00212e-09
4.92397e-09
4.83729e-09
4.74238e-09
4.63954e-09
4.52904e-09
4.41116e-09
4.28617e-09
4.15434e-09
4.01594e-09
3.87128e-09
3.72064e-09
3.56437e-09
3.40279e-09
3.23631e-09
3.06534e-09
2.89035e-09
2.71184e-09
2.53038e-09
2.3466e-09
2.16118e-09
1.97486e-09
1.78848e-09
1.60292e-09
1.41917e-09
1.23829e-09
1.06144e-09
8.89903e-10
7.2511e-10
5.68676e-10
4.225e-10
2.88944e-10
1.71208e-10
7.42919e-11
8.25869e-12
1.24473e-11
1.11936e-10
2.57748e-10
4.34436e-10
6.34111e-10
8.51542e-10
1.08272e-09
1.32426e-09
1.5732e-09
1.82681e-09
2.08254e-09
2.33802e-09
2.59102e-09
2.83947e-09
3.08146e-09
3.31523e-09
3.53924e-09
3.75211e-09
3.95266e-09
4.13993e-09
4.31315e-09
4.47175e-09
4.61534e-09
4.7437e-09
4.85678e-09
4.95465e-09
5.03754e-09
5.10573e-09
5.15959e-09
5.19964e-09
5.22636e-09
5.2402e-09
5.24188e-09
5.23189e-09
5.21075e-09
5.17901e-09
5.1372e-09
5.08581e-09
5.0253e-09
4.95612e-09
4.87868e-09
4.79335e-09
4.70049e-09
4.60042e-09
4.49344e-09
4.37984e-09
4.25987e-09
4.13381e-09
4.00189e-09
3.86436e-09
3.72147e-09
3.57349e-09
3.42069e-09
3.26336e-09
3.10183e-09
2.93645e-09
2.76763e-09
2.59579e-09
2.42144e-09
2.2451e-09
2.06739e-09
1.88899e-09
1.71063e-09
1.53314e-09
1.35741e-09
1.18445e-09
1.01534e-09
8.5131e-10
6.93705e-10
5.44074e-10
4.04238e-10
2.76463e-10
1.63815e-10
7.10843e-11
7.90214e-12
1.30224e-11
1.17105e-10
2.69632e-10
4.54407e-10
6.63121e-10
8.9023e-10
1.13145e-09
1.38315e-09
1.64209e-09
1.9053e-09
2.17e-09
2.43358e-09
2.69358e-09
2.94772e-09
3.19392e-09
3.43028e-09
3.65513e-09
3.86703e-09
4.06478e-09
4.24743e-09
4.41427e-09
4.5648e-09
4.69876e-09
4.8161e-09
4.91692e-09
5.0015e-09
5.07025e-09
5.12362e-09
5.1623e-09
5.1869e-09
5.198e-09
5.1966e-09
5.18323e-09
5.15863e-09
5.12347e-09
5.07843e-09
5.02412e-09
4.96112e-09
4.88999e-09
4.81122e-09
4.72527e-09
4.63254e-09
4.53342e-09
4.42824e-09
4.3173e-09
4.20089e-09
4.07924e-09
3.9526e-09
3.82119e-09
3.68521e-09
3.54487e-09
3.40039e-09
3.25198e-09
3.09989e-09
2.94437e-09
2.7857e-09
2.62422e-09
2.46027e-09
2.29427e-09
2.12667e-09
1.95801e-09
1.78886e-09
1.61987e-09
1.45179e-09
1.28544e-09