/*--------------------------------*- C++ -*----------------------------------*\
  =========                 |
  \\      /  F ield         | OpenFOAM: The Open Source CFD Toolbox
   \\    /   O peration     | Website:  https://openfoam.org
    \\  /    A nd           | Version:  12
     \\/     M anipulation  |
\*---------------------------------------------------------------------------*/
FoamFile
{
    format      ascii;
    class       volScalarField;
    location    "8";
    object      nut;
}
// * * * * * * * * * * * * * * * * * * * * * * * * * * * * * * * * * * * * * //

dimensions      [0 2 -1 0 0 0 0];

internalField   nonuniform List<scalar> 
5625
(
1.44939e-18
4.37917e-17
9.28329e-17
1.51384e-16
2.17353e-16
2.89161e-16
3.65657e-16
4.45954e-16
5.29327e-16
6.15148e-16
7.02855e-16
7.91931e-16
8.81893e-16
9.72283e-16
1.06267e-15
1.15262e-15
1.24174e-15
1.32965e-15
1.41596e-15
1.50031e-15
1.58237e-15
1.66178e-15
1.73824e-15
1.81145e-15
1.8811e-15
1.94693e-15
2.00868e-15
2.0661e-15
2.11898e-15
2.16711e-15
2.2103e-15
2.24838e-15
2.28121e-15
2.30864e-15
2.33058e-15
2.34692e-15
2.35761e-15
2.36259e-15
2.36183e-15
2.35535e-15
2.34312e-15
2.3252e-15
2.30165e-15
2.27253e-15
2.23796e-15
2.19805e-15
2.15294e-15
2.1028e-15
2.04781e-15
1.98817e-15
1.92411e-15
1.85587e-15
1.78371e-15
1.70792e-15
1.62879e-15
1.54664e-15
1.46181e-15
1.37465e-15
1.28553e-15
1.19484e-15
1.10298e-15
1.0104e-15
9.17514e-16
8.24808e-16
7.32771e-16
6.41927e-16
5.52837e-16
4.66112e-16
3.82437e-16
3.02599e-16
2.27557e-16
1.58545e-16
9.72469e-17
4.58793e-17
1.51846e-18
9.79872e-18
1.42711e-15
7.61795e-15
1.78161e-14
2.99642e-14
4.3097e-14
5.68699e-14
7.11362e-14
8.58042e-14
1.00797e-13
1.16042e-13
1.31467e-13
1.47003e-13
1.62579e-13
1.78129e-13
1.93586e-13
2.08884e-13
2.23961e-13
2.38754e-13
2.53204e-13
2.67252e-13
2.80844e-13
2.93926e-13
3.06445e-13
3.18355e-13
3.29608e-13
3.40161e-13
3.49973e-13
3.59007e-13
3.67227e-13
3.74603e-13
3.81105e-13
3.86708e-13
3.9139e-13
3.95132e-13
3.97919e-13
3.99739e-13
4.00584e-13
4.00448e-13
3.99331e-13
3.97235e-13
3.94167e-13
3.90136e-13
3.85157e-13
3.79245e-13
3.72423e-13
3.64713e-13
3.56143e-13
3.46744e-13
3.36551e-13
3.256e-13
3.13934e-13
3.01595e-13
2.88631e-13
2.75092e-13
2.61032e-13
2.46505e-13
2.3157e-13
2.16289e-13
2.00725e-13
1.84944e-13
1.69014e-13
1.53005e-13
1.36991e-13
1.21047e-13
1.05247e-13
8.9672e-14
7.44007e-14
5.95191e-14
4.51284e-14
3.13884e-14
1.86668e-14
7.98225e-15
1.4954e-15
1.0268e-17
2.17797e-17
3.57363e-15
2.43912e-14
7.28712e-14
1.47214e-13
2.39752e-13
3.4359e-13
4.54288e-13
5.69264e-13
6.86998e-13
8.0651e-13
9.27088e-13
1.04815e-12
1.16916e-12
1.28965e-12
1.40914e-12
1.52717e-12
1.64328e-12
1.75704e-12
1.86803e-12
1.97581e-12
2.07998e-12
2.18016e-12
2.27596e-12
2.36703e-12
2.45303e-12
2.53363e-12
2.60853e-12
2.67746e-12
2.74015e-12
2.79636e-12
2.8459e-12
2.88856e-12
2.92419e-12
2.95264e-12
2.97381e-12
2.98761e-12
2.99398e-12
2.99287e-12
2.98431e-12
2.96828e-12
2.94484e-12
2.91407e-12
2.87606e-12
2.83094e-12
2.77887e-12
2.72002e-12
2.6546e-12
2.58283e-12
2.50496e-12
2.42128e-12
2.33207e-12
2.23767e-12
2.13841e-12
2.03466e-12
1.92679e-12
1.81521e-12
1.70034e-12
1.58261e-12
1.46247e-12
1.34038e-12
1.21682e-12
1.09228e-12
9.67304e-13
8.42437e-13
7.18321e-13
5.95737e-13
4.75754e-13
3.60021e-13
2.51307e-13
1.54337e-13
7.63999e-14
2.55725e-14
3.74704e-15
2.28383e-17
3.59972e-17
6.05482e-15
4.41396e-14
1.45019e-13
3.24118e-13
5.78025e-13
8.92482e-13
1.25114e-12
1.64014e-12
2.04917e-12
2.47088e-12
2.90011e-12
3.33306e-12
3.76681e-12
4.19897e-12
4.62749e-12
5.05051e-12
5.46636e-12
5.87341e-12
6.27014e-12
6.65507e-12
7.0268e-12
7.38398e-12
7.72529e-12
8.0495e-12
8.35544e-12
8.642e-12
8.90815e-12
9.15292e-12
9.37541e-12
9.57483e-12
9.75045e-12
9.90162e-12
1.00278e-11
1.01285e-11
1.02033e-11
1.0252e-11
1.02743e-11
1.02701e-11
1.02395e-11
1.01825e-11
1.00992e-11
9.98983e-12
9.85483e-12
9.69461e-12
9.50967e-12
9.30062e-12
9.06816e-12
8.81306e-12
8.53616e-12
8.23841e-12
7.92082e-12
7.58446e-12
7.23051e-12
6.86017e-12
6.47475e-12
6.07562e-12
5.66422e-12
5.24206e-12
4.81077e-12
4.37209e-12
3.92792e-12
3.48043e-12
3.03216e-12
2.58628e-12
2.14691e-12
1.71969e-12
1.31256e-12
9.3663e-13
6.06714e-13
3.40204e-13
1.52207e-13
4.63267e-14
6.35546e-15
3.77874e-17
5.17857e-17
8.7845e-15
6.55845e-14
2.2406e-13
5.2586e-13
9.87793e-13
1.60283e-12
2.34907e-12
3.19921e-12
4.12697e-12
5.10987e-12
6.12984e-12
7.17269e-12
8.2273e-12
9.2848e-12
1.0338e-11
1.13807e-11
1.24076e-11
1.34141e-11
1.43957e-11
1.53485e-11
1.62688e-11
1.7153e-11
1.79978e-11
1.88002e-11
1.95572e-11
2.02661e-11
2.09243e-11
2.15295e-11
2.20795e-11
2.25724e-11
2.30063e-11
2.33798e-11
2.36914e-11
2.39401e-11
2.41248e-11
2.4245e-11
2.43002e-11
2.429e-11
2.42147e-11
2.40739e-11
2.38683e-11
2.35984e-11
2.32652e-11
2.28696e-11
2.24128e-11
2.18963e-11
2.13218e-11
2.06911e-11
2.00063e-11
1.92695e-11
1.84834e-11
1.76504e-11
1.67734e-11
1.58556e-11
1.49001e-11
1.39107e-11
1.28911e-11
1.18456e-11
1.07791e-11
9.69705e-12
8.60581e-12
7.51316e-12
6.42871e-12
5.36459e-12
4.33624e-12
3.36337e-12
2.4704e-12
1.68578e-12
1.03881e-12
5.52908e-13
2.35537e-13
6.89373e-14
9.23405e-15
5.44384e-17
6.87131e-17
1.16998e-14
8.82931e-14
3.07264e-13
7.39329e-13
1.42957e-12
2.39129e-12
3.61043e-12
5.05531e-12
6.68628e-12
8.46299e-12
1.03483e-11
1.231e-11
1.43211e-11
1.63588e-11
1.84044e-11
2.04419e-11
2.2458e-11
2.44407e-11
2.63796e-11
2.82656e-11
3.009e-11
3.18451e-11
3.35239e-11
3.51194e-11
3.66257e-11
3.8037e-11
3.93479e-11
4.05537e-11
4.165e-11
4.26327e-11
4.34982e-11
4.42435e-11
4.48658e-11
4.53629e-11
4.57328e-11
4.59743e-11
4.60863e-11
4.60683e-11
4.59205e-11
4.56424e-11
4.52353e-11
4.47002e-11
4.40387e-11
4.32529e-11
4.23453e-11
4.13185e-11
4.0176e-11
3.89214e-11
3.75589e-11
3.6093e-11
3.45287e-11
3.28715e-11
3.11276e-11
2.93034e-11
2.74065e-11
2.54451e-11
2.34282e-11
2.13665e-11
1.92721e-11
1.71594e-11
1.50452e-11
1.29499e-11
1.08983e-11
8.92028e-12
7.05147e-12
5.33282e-12
3.8086e-12
2.52194e-12
1.50708e-12
7.7906e-13
3.23647e-13
9.29786e-14
1.23202e-14
7.23571e-17
8.64542e-17
1.47493e-14
1.1193e-13
3.93361e-13
9.59582e-13
1.88681e-12
3.21541e-12
4.94931e-12
7.06315e-12
9.51251e-12
1.22435e-11
1.52004e-11
1.833e-11
2.1584e-11
2.492e-11
2.83009e-11
3.16949e-11
3.50743e-11
3.84149e-11
4.16955e-11
4.48973e-11
4.80033e-11
5.09983e-11
5.38684e-11
5.66008e-11
5.91839e-11
6.16071e-11
6.38606e-11
6.59356e-11
6.78239e-11
6.95184e-11
7.10126e-11
7.23007e-11
7.3378e-11
7.42403e-11
7.48842e-11
7.53072e-11
7.55074e-11
7.54839e-11
7.52371e-11
7.47657e-11
7.40719e-11
7.31577e-11
7.20258e-11
7.06797e-11
6.91235e-11
6.73624e-11
6.54021e-11
6.32493e-11
6.09113e-11
5.83966e-11
5.57145e-11
5.28755e-11
4.98913e-11
4.6775e-11
4.35411e-11
4.02063e-11
3.67895e-11
3.33126e-11
2.98012e-11
2.6285e-11
2.27991e-11
1.93847e-11
1.60891e-11
1.29664e-11
1.00762e-11
7.48086e-12
5.23987e-12
3.40204e-12
1.99482e-12
1.01373e-12
4.1529e-13
1.1812e-13
1.55626e-14
9.12171e-17
1.04743e-16
1.78895e-14
1.36196e-13
4.81366e-13
1.18383e-12
2.35157e-12
4.05457e-12
6.32009e-12
9.13659e-12
1.24628e-11
1.62386e-11
2.03936e-11
2.48555e-11
2.95541e-11
3.44241e-11
3.94063e-11
4.4448e-11
4.95022e-11
5.45272e-11
5.94861e-11
6.43461e-11
6.90774e-11
7.36535e-11
7.80504e-11
8.22461e-11
8.62207e-11
8.99561e-11
9.34359e-11
9.66451e-11
9.95701e-11
1.02199e-10
1.04521e-10
1.06526e-10
1.08207e-10
1.09556e-10
1.10568e-10
1.11239e-10
1.11566e-10
1.11545e-10
1.1118e-10
1.10466e-10
1.09407e-10
1.08007e-10
1.06269e-10
1.04199e-10
1.01804e-10
9.90915e-11
9.60717e-11
9.27552e-11
8.91544e-11
8.52835e-11
8.11583e-11
7.67969e-11
7.22195e-11
6.74492e-11
6.25123e-11
5.74387e-11
5.22627e-11
4.70236e-11
4.17666e-11
3.65435e-11
3.14137e-11
2.64441e-11
2.17093e-11
1.72892e-11
1.32665e-11
9.72023e-12
6.71802e-12
4.30524e-12
2.49405e-12
1.25415e-12
5.09486e-13
1.44061e-13
1.89171e-14
1.10749e-16
1.23355e-16
2.10827e-14
1.60822e-13
5.70394e-13
1.40988e-12
2.81875e-12
4.8971e-12
7.69755e-12
1.12264e-11
1.54511e-11
2.03105e-11
2.57258e-11
3.16085e-11
3.78688e-11
4.44188e-11
5.1176e-11
5.80643e-11
6.50143e-11
7.19634e-11
7.8855e-11
8.56382e-11
9.22671e-11
9.87e-11
1.04899e-10
1.10831e-10
1.16463e-10
1.21769e-10
1.26721e-10
1.31297e-10
1.35476e-10
1.39239e-10
1.4257e-10
1.45453e-10
1.47876e-10
1.49829e-10
1.51302e-10
1.52288e-10
1.52783e-10
1.52783e-10
1.52289e-10
1.51297e-10
1.49812e-10
1.47837e-10
1.4538e-10
1.42447e-10
1.3905e-10
1.352e-10
1.30912e-10
1.26202e-10
1.21091e-10
1.156e-10
1.09754e-10
1.03583e-10
9.7118e-11
9.03967e-11
8.34609e-11
7.63585e-11
6.9144e-11
6.18792e-11
5.46342e-11
4.74877e-11
4.05273e-11
3.38489e-11
2.75545e-11
2.17489e-11
1.65342e-11
1.20007e-11
8.21724e-12
5.21963e-12
2.9996e-12
1.49809e-12
6.05323e-13
1.70522e-13
2.23446e-14
1.30717e-16
1.42093e-16
2.42959e-14
1.85567e-13
6.59636e-13
1.63582e-12
3.28435e-12
5.73489e-12
9.06576e-12
1.33026e-11
1.84245e-11
2.43733e-11
3.10652e-11
3.84006e-11
4.6272e-11
5.45714e-11
6.31937e-11
7.20392e-11
8.1015e-11
9.00356e-11
9.90227e-11
1.07905e-10
1.16617e-10
1.251e-10
1.33299e-10
1.41166e-10
1.48655e-10
1.55726e-10
1.62342e-10
1.68468e-10
1.74074e-10
1.79133e-10
1.83621e-10
1.87516e-10
1.908e-10
1.93456e-10
1.95472e-10
1.96838e-10
1.97544e-10
1.97587e-10
1.96968e-10
1.95679e-10
1.93726e-10
1.91116e-10
1.87856e-10
1.83958e-10
1.79436e-10
1.74308e-10
1.68594e-10
1.62318e-10
1.55509e-10
1.48199e-10
1.40424e-10
1.32228e-10
1.23658e-10
1.14768e-10
1.05621e-10
9.62846e-11
8.68391e-11
7.73723e-11
6.79825e-11
5.87782e-11
4.9877e-11
4.1404e-11
3.34877e-11
2.62553e-11
1.98239e-11
1.42904e-11
9.72062e-12
6.13657e-12
3.50715e-12
1.74346e-12
7.01924e-13
1.97241e-13
2.58091e-14
1.50909e-16
1.60786e-16
2.75001e-14
2.10213e-13
7.48359e-13
1.85989e-12
3.74488e-12
6.56152e-12
1.04131e-11
1.53449e-11
2.13484e-11
2.83708e-11
3.6326e-11
4.5106e-11
5.45894e-11
6.46498e-11
7.51613e-11
8.60018e-11
9.70554e-11
1.08214e-10
1.19375e-10
1.30448e-10
1.41345e-10
1.51988e-10
1.62305e-10
1.7223e-10
1.81702e-10
1.90667e-10
1.99072e-10
2.06873e-10
2.14028e-10
2.20499e-10
2.26253e-10
2.31261e-10
2.35496e-10
2.38937e-10
2.41564e-10
2.43364e-10
2.44324e-10
2.44438e-10
2.43706e-10
2.42117e-10
2.3968e-10
2.364e-10
2.3229e-10
2.27364e-10
2.21641e-10
2.15144e-10
2.07901e-10
1.99946e-10
1.91316e-10
1.82057e-10
1.72218e-10
1.61859e-10
1.51045e-10
1.39851e-10
1.2836e-10
1.16668e-10
1.0488e-10
9.31131e-11
8.14958e-11
7.01672e-11
5.92752e-11
4.89733e-11
3.94149e-11
3.07465e-11
2.30967e-11
1.65664e-11
1.12149e-11
7.04862e-12
4.01264e-12
1.98822e-12
7.98438e-13
2.23967e-13
2.92771e-14
1.71125e-16
1.79286e-16
3.06699e-14
2.34573e-13
8.35906e-13
2.08053e-12
4.19724e-12
7.37149e-12
1.17304e-11
1.73378e-11
2.41981e-11
3.22644e-11
4.145e-11
5.16402e-11
6.27025e-11
7.4494e-11
8.68704e-11
9.96889e-11
1.12812e-10
1.26108e-10
1.39455e-10
1.52737e-10
1.65848e-10
1.78689e-10
1.9117e-10
2.03206e-10
2.14719e-10
2.25639e-10
2.35901e-10
2.45445e-10
2.54217e-10
2.62169e-10
2.69257e-10
2.75442e-10
2.8069e-10
2.84971e-10
2.88261e-10
2.9054e-10
2.91792e-10
2.92004e-10
2.91181e-10
2.89305e-10
2.86386e-10
2.82431e-10
2.77455e-10
2.71476e-10
2.64518e-10
2.56611e-10
2.4779e-10
2.381e-10
2.27589e-10
2.16316e-10
2.04346e-10
1.91757e-10
1.78633e-10
1.65071e-10
1.5118e-10
1.3708e-10
1.22907e-10
1.08806e-10
9.49373e-11
8.14708e-11
6.85839e-11
5.64569e-11
4.52664e-11
3.51754e-11
2.63225e-11
1.88096e-11
1.26884e-11
7.94876e-12
4.51214e-12
2.23039e-12
8.94035e-13
2.50463e-13
3.27166e-14
1.91179e-16
1.97465e-16
3.37838e-14
2.58481e-13
9.2171e-13
2.29635e-12
4.63873e-12
8.1601e-12
1.30098e-11
1.92695e-11
2.69552e-11
3.60263e-11
4.63961e-11
5.79445e-11
7.05293e-11
8.39937e-11
9.81765e-11
1.12916e-10
1.28055e-10
1.4344e-10
1.58928e-10
1.74384e-10
1.8968e-10
2.04697e-10
2.19327e-10
2.33465e-10
2.47019e-10
2.59901e-10
2.7203e-10
2.83334e-10
2.93746e-10
3.03204e-10
3.11654e-10
3.19046e-10
3.25338e-10
3.30493e-10
3.34478e-10
3.37267e-10
3.38839e-10
3.3918e-10
3.38291e-10
3.3615e-10
3.32768e-10
3.28155e-10
3.22325e-10
3.15301e-10
3.07113e-10
2.97796e-10
2.87397e-10
2.75967e-10
2.63569e-10
2.50275e-10
2.36168e-10
2.21342e-10
2.05904e-10
1.89974e-10
1.73684e-10
1.57185e-10
1.40638e-10
1.24221e-10
1.08124e-10
9.25469e-11
7.76955e-11
6.37759e-11
5.0986e-11
3.95031e-11
2.94747e-11
2.10025e-11
1.41298e-11
8.83014e-12
5.00172e-12
2.46798e-12
9.87906e-13
2.76494e-13
3.6097e-14
2.10889e-16
2.15218e-16
3.68237e-14
2.81804e-13
1.0053e-12
2.50621e-12
5.06709e-12
8.92341e-12
1.42453e-11
2.11303e-11
2.96056e-11
3.96358e-11
5.11346e-11
6.39773e-11
7.80126e-11
9.30724e-11
1.08979e-10
1.25555e-10
1.42623e-10
1.60013e-10
1.77561e-10
1.95111e-10
2.12517e-10
2.29641e-10
2.46356e-10
2.62542e-10
2.78087e-10
2.92888e-10
3.06851e-10
3.19887e-10
3.31917e-10
3.42867e-10
3.5267e-10
3.61269e-10
3.68609e-10
3.74646e-10
3.79339e-10
3.82656e-10
3.84571e-10
3.85064e-10
3.84137e-10
3.81762e-10
3.77948e-10
3.72708e-10
3.66058e-10
3.58025e-10
3.48643e-10
3.37954e-10
3.26013e-10
3.12883e-10
2.98638e-10
2.83365e-10
2.67163e-10
2.50146e-10
2.32441e-10
2.14192e-10
1.95557e-10
1.76712e-10
1.57849e-10
1.39174e-10
1.20908e-10
1.03279e-10
8.65206e-11
7.08634e-11
5.65241e-11
4.36943e-11
3.25287e-11
2.31284e-11
1.55282e-11
9.68593e-12
5.47749e-12
2.69905e-12
1.07925e-12
3.01836e-13
3.93884e-14
2.30082e-16
2.32464e-16
3.97759e-14
3.04433e-13
1.08629e-12
2.70919e-12
5.48051e-12
9.65834e-12
1.54318e-11
2.29129e-11
3.21385e-11
4.30778e-11
5.56446e-11
6.97096e-11
8.51133e-11
1.01677e-10
1.1921e-10
1.37518e-10
1.56407e-10
1.75691e-10
1.95186e-10
2.1472e-10
2.34127e-10
2.53254e-10
2.71955e-10
2.90093e-10
3.07541e-10
3.24181e-10
3.39904e-10
3.54607e-10
3.68199e-10
3.80592e-10
3.91711e-10
4.01485e-10
4.09851e-10
4.16757e-10
4.22153e-10
4.26002e-10
4.28271e-10
4.28933e-10
4.27994e-10
4.25417e-10
4.21211e-10
4.15389e-10
4.0797e-10
3.98983e-10
3.88467e-10
3.76472e-10
3.63059e-10
3.48302e-10
3.32287e-10
3.15116e-10
2.96903e-10
2.77781e-10
2.57898e-10
2.3742e-10
2.16532e-10
1.95434e-10
1.74347e-10
1.53506e-10
1.3316e-10
1.13564e-10
9.49794e-11
7.76582e-11
6.18351e-11
4.77156e-11
3.54606e-11
2.51706e-11
1.68726e-11
1.05093e-11
5.93557e-12
2.92166e-12
1.16729e-12
3.26267e-13
4.25619e-14
2.48587e-16
2.49145e-16
4.26302e-14
3.26293e-13
1.16442e-12
2.90464e-12
5.87771e-12
1.03627e-11
1.65659e-11
2.46123e-11
3.45468e-11
4.63424e-11
5.99121e-11
7.51224e-11
9.18061e-11
1.09775e-10
1.28824e-10
1.48746e-10
1.69334e-10
1.90382e-10
2.11693e-10
2.33077e-10
2.54354e-10
2.75351e-10
2.95909e-10
3.15875e-10
3.35107e-10
3.53474e-10
3.70851e-10
3.87126e-10
4.02191e-10
4.15951e-10
4.28318e-10
4.3921e-10
4.48558e-10
4.56297e-10
4.62374e-10
4.66742e-10
4.69364e-10
4.70207e-10
4.69278e-10
4.6653e-10
4.61973e-10
4.55622e-10
4.47496e-10
4.37626e-10
4.26056e-10
4.12841e-10
3.9805e-10
3.81767e-10
3.64089e-10
3.45131e-10
3.25024e-10
3.03917e-10
2.81979e-10
2.59398e-10
2.36381e-10
2.13155e-10
1.89967e-10
1.67078e-10
1.44765e-10
1.23311e-10
1.02998e-10
8.41025e-11
6.6875e-11
5.15341e-11
3.82466e-11
2.71127e-11
1.8152e-11
1.12934e-11
6.37206e-12
3.13388e-12
1.25125e-12
3.49568e-13
4.55887e-14
2.66237e-16
2.65228e-16
4.53811e-14
3.47342e-13
1.23954e-12
3.0922e-12
6.25797e-12
1.10352e-11
1.76457e-11
2.62257e-11
3.68267e-11
4.94243e-11
6.39301e-11
8.02061e-11
9.80775e-11
1.17346e-10
1.37797e-10
1.59208e-10
1.8136e-10
2.04032e-10
2.27013e-10
2.50098e-10
2.73091e-10
2.95807e-10
3.18071e-10
3.39717e-10
3.60591e-10
3.80546e-10
3.99448e-10
4.1717e-10
4.33597e-10
4.4862e-10
4.62142e-10
4.74073e-10
4.84334e-10
4.92853e-10
4.99569e-10
5.04429e-10
5.0739e-10
5.08416e-10
5.0751e-10
5.0462e-10
4.99755e-10
4.9293e-10
4.84164e-10
4.73491e-10
4.60959e-10
4.46627e-10
4.30571e-10
4.12884e-10
3.93673e-10
3.73066e-10
3.51208e-10
3.28265e-10
3.04423e-10
2.7989e-10
2.54897e-10
2.29695e-10
2.04553e-10
1.79759e-10
1.55615e-10
1.32428e-10
1.10505e-10
9.01397e-11
7.16003e-11
5.5117e-11
4.08629e-11
2.89379e-11
1.93553e-11
1.20314e-11
6.7831e-12
3.33379e-12
1.33036e-12
3.71526e-13
4.84409e-14
2.82868e-16
2.80706e-16
4.80274e-14
3.67571e-13
1.31163e-12
3.27179e-12
6.62118e-12
1.16758e-11
1.86712e-11
2.7753e-11
3.89781e-11
5.23233e-11
6.76981e-11
8.49593e-11
1.03925e-10
1.24387e-10
1.4612e-10
1.68892e-10
1.92467e-10
2.16615e-10
2.4111e-10
2.65734e-10
2.9028e-10
3.14547e-10
3.3835e-10
3.6151e-10
3.83861e-10
4.05247e-10
4.2552e-10
4.44546e-10
4.62197e-10
4.78357e-10
4.9292e-10
5.05788e-10
5.16874e-10
5.26099e-10
5.33395e-10
5.38704e-10
5.41975e-10
5.43174e-10
5.42297e-10
5.39287e-10
5.34153e-10
5.26908e-10
5.17574e-10
5.06184e-10
4.92789e-10
4.77455e-10
4.60261e-10
4.41308e-10
4.20714e-10
3.98615e-10
3.75171e-10
3.50561e-10
3.2499e-10
2.98683e-10
2.71891e-10
2.44885e-10
2.1796e-10
1.91425e-10
1.65605e-10
1.40831e-10
1.1743e-10
9.57139e-11
7.59674e-11
5.84316e-11
4.32855e-11
3.06295e-11
2.04714e-11
1.27164e-11
7.16478e-12
3.5195e-12
1.40386e-12
3.91927e-13
5.10907e-14
2.98318e-16
2.956e-16
5.05727e-14
3.87006e-13
1.38076e-12
3.44366e-12
6.96787e-12
1.22854e-11
1.96439e-11
2.91968e-11
4.10047e-11
5.50443e-11
7.12222e-11
8.93895e-11
1.09356e-10
1.30906e-10
1.53803e-10
1.77802e-10
2.02659e-10
2.2813e-10
2.53977e-10
2.79972e-10
3.05895e-10
3.31536e-10
3.56697e-10
3.8119e-10
4.04839e-10
4.27478e-10
4.48952e-10
4.69115e-10
4.87835e-10
5.04985e-10
5.20454e-10
5.34136e-10
5.45938e-10
5.55775e-10
5.63574e-10
5.69272e-10
5.72812e-10
5.7416e-10
5.73309e-10
5.70191e-10
5.64821e-10
5.57209e-10
5.47376e-10
5.35358e-10
5.21206e-10
5.0499e-10
4.86796e-10
4.66728e-10
4.44913e-10
4.21496e-10
3.96649e-10
3.70563e-10
3.43457e-10
3.15573e-10
2.87178e-10
2.58565e-10
2.30047e-10
2.01954e-10
1.74632e-10
1.48432e-10
1.23702e-10
1.00769e-10
7.99327e-11
6.14448e-11
4.54902e-11
3.21705e-11
2.14891e-11
1.33413e-11
7.51326e-12
3.68911e-12
1.471e-12
4.10562e-13
5.35109e-14
3.12428e-16
3.09959e-16
5.30253e-14
4.05713e-13
1.44719e-12
3.60841e-12
7.29924e-12
1.28662e-11
2.05673e-11
3.05623e-11
4.29138e-11
5.75974e-11
7.45154e-11
9.35125e-11
1.14391e-10
1.36924e-10
1.60867e-10
1.85963e-10
2.11958e-10
2.38597e-10
2.65633e-10
2.92825e-10
3.19944e-10
3.46771e-10
3.73099e-10
3.98732e-10
4.23486e-10
4.47186e-10
4.69671e-10
4.9079e-10
5.10402e-10
5.28377e-10
5.44596e-10
5.58949e-10
5.71339e-10
5.81676e-10
5.89884e-10
5.95892e-10
5.99645e-10
6.01105e-10
6.00261e-10
5.97039e-10
5.91458e-10
5.83525e-10
5.73261e-10
5.60702e-10
5.45902e-10
5.28931e-10
5.0988e-10
4.88857e-10
4.65996e-10
4.41449e-10
4.15396e-10
3.8804e-10
3.59611e-10
3.30365e-10
3.00585e-10
2.70579e-10
2.40676e-10
2.11227e-10
1.82595e-10
1.55148e-10
1.29252e-10
1.05249e-10
8.34522e-11
6.41231e-11
4.74527e-11
3.3544e-11
2.23971e-11
1.38995e-11
7.82467e-12
3.84074e-12
1.53103e-12
4.27224e-13
5.56746e-14
3.25041e-16
3.23859e-16
5.53985e-14
4.23791e-13
1.51127e-12
3.76695e-12
7.61717e-12
1.34215e-11
2.1447e-11
3.18577e-11
4.47171e-11
5.99979e-11
7.75972e-11
9.73521e-11
1.19056e-10
1.42473e-10
1.67348e-10
1.93414e-10
2.20406e-10
2.48059e-10
2.76115e-10
3.04327e-10
3.32457e-10
3.60277e-10
3.87572e-10
4.14141e-10
4.39793e-10
4.64349e-10
4.87642e-10
5.09516e-10
5.29828e-10
5.48442e-10
5.65238e-10
5.80101e-10
5.92932e-10
6.03638e-10
6.1214e-10
6.18363e-10
6.22258e-10
6.23777e-10
6.22908e-10
6.19576e-10
6.138e-10
6.05585e-10
5.94952e-10
5.81938e-10
5.66596e-10
5.48999e-10
5.29239e-10
5.07429e-10
4.83704e-10
4.58226e-10
4.31178e-10
4.02772e-10
3.73249e-10
3.42874e-10
3.11941e-10
2.80773e-10
2.49713e-10
2.19127e-10
1.89392e-10
1.60893e-10
1.34009e-10
1.09097e-10
8.6482e-11
6.64335e-11
4.91487e-11
3.4733e-11
2.31843e-11
1.4384e-11
8.09522e-12
3.97255e-12
1.58323e-12
4.41712e-13
5.75556e-14
3.36004e-16
3.37407e-16
5.77103e-14
4.41381e-13
1.5735e-12
3.92052e-12
7.92422e-12
1.39559e-11
2.22901e-11
3.30939e-11
4.64297e-11
6.22663e-11
8.04937e-11
1.00941e-10
1.23391e-10
1.47598e-10
1.73296e-10
2.00207e-10
2.28057e-10
2.56571e-10
2.85483e-10
3.14537e-10
3.43486e-10
3.72099e-10
4.00155e-10
4.27447e-10
4.5378e-10
4.78973e-10
5.02856e-10
5.25271e-10
5.46071e-10
5.65123e-10
5.82302e-10
5.97496e-10
6.10601e-10
6.21527e-10
6.30189e-10
6.3652e-10
6.40464e-10
6.41977e-10
6.41035e-10
6.37574e-10
6.31608e-10
6.23143e-10
6.12198e-10
5.9881e-10
5.83032e-10
5.64938e-10
5.4462e-10
5.22194e-10
4.97797e-10
4.71594e-10
4.43773e-10
4.14551e-10
3.84174e-10
3.52917e-10
3.21082e-10
2.89e-10
2.57027e-10
2.25538e-10
1.94925e-10
1.65584e-10
1.37906e-10
1.12259e-10
8.89789e-11
6.8343e-11
5.05544e-11
3.57209e-11
2.38398e-11
1.47881e-11
8.32121e-12
4.08275e-12
1.62689e-12
4.5383e-13
5.91286e-14
3.4517e-16
3.50736e-16
5.99835e-14
4.58657e-13
1.63451e-12
4.07073e-12
8.22363e-12
1.44752e-11
2.3106e-11
3.42846e-11
4.80711e-11
6.4428e-11
8.32372e-11
1.04318e-10
1.27441e-10
1.52351e-10
1.78769e-10
2.06408e-10
2.34982e-10
2.64207e-10
2.93809e-10
3.23524e-10
3.53101e-10
3.82303e-10
4.10905e-10
4.38698e-10
4.65485e-10
4.91083e-10
5.15324e-10
5.38049e-10
5.59113e-10
5.78383e-10
5.95736e-10
6.11061e-10
6.24257e-10
6.35233e-10
6.43907e-10
6.50218e-10
6.54104e-10
6.55529e-10
6.54455e-10
6.50833e-10
6.44673e-10
6.35979e-10
6.2477e-10
6.11084e-10
5.94973e-10
5.7651e-10
5.55788e-10
5.32921e-10
5.08049e-10
4.81336e-10
4.52972e-10
4.23178e-10
3.92203e-10
3.60323e-10
3.2785e-10
2.95117e-10
2.6249e-10
2.3035e-10
1.99098e-10
1.69139e-10
1.40875e-10
1.14681e-10
9.09005e-11
6.98196e-11
5.16462e-11
3.64913e-11
2.43529e-11
1.51054e-11
8.49902e-12
4.16959e-12
1.66132e-12
4.63389e-13
6.03692e-14
3.52398e-16
3.64005e-16
6.22457e-14
4.75832e-13
1.69506e-12
4.21948e-12
8.5193e-12
1.49863e-11
2.39057e-11
3.54463e-11
4.96637e-11
6.6513e-11
8.58658e-11
1.07529e-10
1.31263e-10
1.56795e-10
1.83839e-10
2.12092e-10
2.41259e-10
2.71047e-10
3.01174e-10
3.31371e-10
3.6138e-10
3.90961e-10
4.19889e-10
4.47952e-10
4.74955e-10
5.00717e-10
5.2507e-10
5.47861e-10
5.68947e-10
5.88199e-10
6.05499e-10
6.2074e-10
6.33826e-10
6.44666e-10
6.53192e-10
6.59335e-10
6.63041e-10
6.64281e-10
6.63001e-10
6.59175e-10
6.52805e-10
6.43895e-10
6.32467e-10
6.18553e-10
6.02209e-10
5.83504e-10
5.62529e-10
5.394e-10
5.14253e-10
4.87251e-10
4.58583e-10
4.2847e-10
3.9716e-10
3.64932e-10
3.32096e-10
2.98991e-10
2.65982e-10
2.33457e-10
2.01821e-10
1.71483e-10
1.42852e-10
1.1631e-10
9.22064e-11
7.08326e-11
5.24018e-11
3.70288e-11
2.47133e-11
1.53296e-11
8.62525e-12
4.23143e-12
1.68589e-12
4.70214e-13
6.12545e-14
3.57553e-16
3.77399e-16
6.45285e-14
4.93148e-13
1.75603e-12
4.36897e-12
8.81572e-12
1.5497e-11
2.47019e-11
3.65977e-11
5.12338e-11
6.85555e-11
8.84222e-11
1.10627e-10
1.34914e-10
1.60999e-10
1.88579e-10
2.1734e-10
2.46974e-10
2.77181e-10
3.0767e-10
3.38165e-10
3.68408e-10
3.98154e-10
4.27179e-10
4.55273e-10
4.82244e-10
5.07915e-10
5.32124e-10
5.54722e-10
5.75574e-10
5.94559e-10
6.11564e-10
6.26491e-10
6.39247e-10
6.49756e-10
6.5795e-10
6.63767e-10
6.67157e-10
6.68102e-10
6.66534e-10
6.62449e-10
6.55844e-10
6.46724e-10
6.3511e-10
6.21035e-10
6.04552e-10
5.8573e-10
5.64657e-10
5.41444e-10
5.16225e-10
4.89159e-10
4.60433e-10
4.30262e-10
3.98892e-10
3.66598e-10
3.33688e-10
3.00499e-10
2.67394e-10
2.34763e-10
2.03008e-10
1.72544e-10
1.43778e-10
1.17099e-10
9.28587e-11
7.13533e-11
5.28004e-11
3.73189e-11
2.49117e-11
1.5455e-11
8.69673e-12
4.26676e-12
1.69999e-12
4.7414e-13
6.17638e-14
3.60516e-16
3.91124e-16
6.68673e-14
5.10879e-13
1.8184e-12
4.52169e-12
9.11794e-12
1.60164e-11
2.55089e-11
3.77595e-11
5.28098e-11
7.05929e-11
9.09531e-11
1.13667e-10
1.38462e-10
1.65036e-10
1.93069e-10
2.22236e-10
2.52216e-10
2.82698e-10
3.13384e-10
3.43994e-10
3.74266e-10
4.03958e-10
4.32844e-10
4.60722e-10
4.87403e-10
5.12718e-10
5.36512e-10
5.58647e-10
5.78998e-10
5.97451e-10
6.13907e-10
6.28274e-10
6.40475e-10
6.50441e-10
6.58109e-10
6.63428e-10
6.66361e-10
6.6688e-10
6.64936e-10
6.60529e-10
6.53656e-10
6.44324e-10
6.32555e-10
6.18381e-10
6.01852e-10
5.83034e-10
5.62014e-10
5.38897e-10
5.13811e-10
4.86911e-10
4.58376e-10
4.28414e-10
3.97264e-10
3.65196e-10
3.32509e-10
2.99535e-10
2.66631e-10
2.34182e-10
2.02587e-10
1.72257e-10
1.43601e-10
1.17005e-10
9.28238e-11
7.13561e-11
5.28232e-11
3.73486e-11
2.49395e-11
1.54764e-11
8.71065e-12
4.27423e-12
1.70312e-12
4.75026e-13
6.18786e-14
3.6118e-16
4.05406e-16
6.93011e-14
5.29324e-13
1.88325e-12
4.68035e-12
9.4315e-12
1.65542e-11
2.6342e-11
3.89544e-11
5.44226e-11
7.26649e-11
9.35076e-11
1.16707e-10
1.41971e-10
1.68978e-10
1.97389e-10
2.26864e-10
2.57069e-10
2.87682e-10
3.18399e-10
3.48935e-10
3.79029e-10
4.08438e-10
4.36944e-10
4.64347e-10
4.9047e-10
5.15153e-10
5.38254e-10
5.59645e-10
5.79214e-10
5.96863e-10
6.12503e-10
6.26061e-10
6.37469e-10
6.46668e-10
6.53608e-10
6.5825e-10
6.60573e-10
6.60536e-10
6.58121e-10
6.53324e-10
6.46145e-10
6.36595e-10
6.24696e-10
6.10483e-10
5.94005e-10
5.75323e-10
5.54517e-10
5.31686e-10
5.0695e-10
4.80454e-10
4.52368e-10
4.22891e-10
3.9225e-10
3.60704e-10
3.28542e-10
2.96085e-10
2.63682e-10
2.31706e-10
2.0055e-10
1.70618e-10
1.42313e-10
1.16021e-10
9.20942e-11
7.08337e-11
5.2464e-11
3.71127e-11
2.4793e-11
1.53914e-11
8.66554e-12
4.2531e-12
1.69496e-12
4.72783e-13
6.1587e-14
3.59472e-16
4.20485e-16
7.18711e-14
5.48804e-13
1.95174e-12
4.84786e-12
9.76228e-12
1.71207e-11
2.72175e-11
4.0206e-11
5.61042e-11
7.48125e-11
9.61355e-11
1.19806e-10
1.45508e-10
1.72896e-10
2.01613e-10
2.313e-10
2.61608e-10
2.92206e-10
3.22784e-10
3.53053e-10
3.82752e-10
4.11644e-10
4.39516e-10
4.66179e-10
4.91468e-10
5.15235e-10
5.37352e-10
5.5771e-10
5.76212e-10
5.92775e-10
6.07332e-10
6.19819e-10
6.30184e-10
6.38386e-10
6.44396e-10
6.48188e-10
6.49741e-10
6.49028e-10
6.46047e-10
6.40798e-10
6.33285e-10
6.23523e-10
6.11534e-10
5.97348e-10
5.81009e-10
5.62576e-10
5.42124e-10
5.19746e-10
4.95553e-10
4.6968e-10
4.42285e-10
4.13555e-10
3.83702e-10
3.52969e-10
3.21629e-10
2.89991e-10
2.5839e-10
2.27186e-10
1.9676e-10
1.67504e-10
1.39812e-10
1.14065e-10
9.06088e-11
6.97425e-11
5.16928e-11
3.6592e-11
2.44603e-11
1.51932e-11
8.55791e-12
4.20178e-12
1.67492e-12
4.67261e-13
6.08706e-14
3.5529e-16
4.36613e-16
7.46205e-14
5.69652e-13
2.02507e-12
5.02725e-12
1.01165e-11
1.77267e-11
2.81525e-11
4.15386e-11
5.78872e-11
7.70766e-11
9.88855e-11
1.23019e-10
1.49133e-10
1.76856e-10
2.05806e-10
2.35607e-10
2.65895e-10
2.96327e-10
3.26587e-10
3.56387e-10
3.85467e-10
4.13596e-10
4.40574e-10
4.66223e-10
4.90392e-10
5.12951e-10
5.33792e-10
5.52822e-10
5.69967e-10
5.85164e-10
5.98359e-10
6.0951e-10
6.18595e-10
6.2559e-10
6.30474e-10
6.33235e-10
6.33861e-10
6.32351e-10
6.28705e-10
6.2293e-10
6.15035e-10
6.05039e-10
5.92965e-10
5.78847e-10
5.62726e-10
5.44657e-10
5.24707e-10
5.0296e-10
4.79516e-10
4.54495e-10
4.2804e-10
4.0032e-10
3.71536e-10
3.41914e-10
3.11711e-10
2.81214e-10
2.50736e-10
2.20618e-10
1.91223e-10
1.62928e-10
1.36112e-10
1.11147e-10
8.83715e-11
6.80825e-11
5.05075e-11
3.57835e-11
2.39389e-11
1.488e-11
8.38657e-12
4.11967e-12
1.64277e-12
4.58393e-13
5.97212e-14
3.48589e-16
4.54044e-16
7.75935e-14
5.92208e-13
2.10448e-12
5.22165e-12
1.05004e-11
1.83832e-11
2.91639e-11
4.29763e-11
5.98032e-11
7.94963e-11
1.01803e-10
1.26396e-10
1.52898e-10
1.80908e-10
2.10019e-10
2.39832e-10
2.69967e-10
3.00073e-10
3.29829e-10
3.58946e-10
3.87172e-10
4.14286e-10
4.40098e-10
4.6445e-10
4.87209e-10
5.08266e-10
5.27534e-10
5.44944e-10
5.60444e-10
5.7399e-10
5.85559e-10
5.95141e-10
6.02715e-10
6.08286e-10
6.11849e-10
6.13408e-10
6.1297e-10
6.10544e-10
6.06142e-10
5.99779e-10
5.91473e-10
5.81245e-10
5.69121e-10
5.55134e-10
5.39323e-10
5.21736e-10
5.02434e-10
4.81487e-10
4.58983e-10
4.35031e-10
4.09761e-10
3.83325e-10
3.55898e-10
3.27684e-10
2.98914e-10
2.69853e-10
2.40792e-10
2.12051e-10
1.83969e-10
1.56903e-10
1.31217e-10
1.07266e-10
8.53814e-11
6.58527e-11
4.89073e-11
3.46867e-11
2.32284e-11
1.44514e-11
8.15144e-12
4.00673e-12
1.5985e-12
4.46178e-13
5.81386e-14
3.39364e-16
4.73031e-16
8.08337e-14
6.16814e-13
2.19121e-12
5.43416e-12
1.09202e-11
1.91011e-11
3.02683e-11
4.45424e-11
6.18819e-11
8.21068e-11
1.04928e-10
1.29978e-10
1.56844e-10
1.8509e-10
2.1428e-10
2.43993e-10
2.73834e-10
3.03442e-10
3.32493e-10
3.60704e-10
3.87829e-10
4.13662e-10
4.38032e-10
4.608e-10
4.81856e-10
5.01115e-10
5.18517e-10
5.34021e-10
5.47593e-10
5.59232e-10
5.68937e-10
5.76701e-10
5.82554e-10
5.86509e-10
5.88582e-10
5.88795e-10
5.87171e-10
5.83733e-10
5.78506e-10
5.71514e-10
5.6278e-10
5.52331e-10
5.40196e-10
5.26404e-10
5.10994e-10
4.94006e-10
4.7549e-10
4.5551e-10
4.34144e-10
4.11482e-10
3.8763e-10
3.62719e-10
3.36904e-10
3.10364e-10
2.83305e-10
2.55965e-10
2.28607e-10
2.01524e-10
1.7503e-10
1.49458e-10
1.25148e-10
1.02439e-10
8.16495e-11
6.30604e-11
4.68968e-11
3.33045e-11
2.23304e-11
1.39085e-11
7.85302e-12
3.86323e-12
1.54222e-12
4.30648e-13
5.61272e-14
3.27643e-16
4.93819e-16
8.43827e-14
6.43796e-13
2.28643e-12
5.6678e-12
1.13822e-11
1.98907e-11
3.14814e-11
4.62578e-11
6.41494e-11
8.49377e-11
1.0829e-10
1.33794e-10
1.60993e-10
1.89416e-10
2.18594e-10
2.48082e-10
2.77472e-10
3.06393e-10
3.34525e-10
3.61589e-10
3.87355e-10
4.11634e-10
4.3428e-10
4.55174e-10
4.74234e-10
4.91408e-10
5.06664e-10
5.19983e-10
5.31381e-10
5.40873e-10
5.48465e-10
5.54225e-10
5.58174e-10
5.60351e-10
5.60794e-10
5.59546e-10
5.56645e-10
5.5213e-10
5.46034e-10
5.38392e-10
5.29234e-10
5.18592e-10
5.06494e-10
4.92971e-10
4.78055e-10
4.61781e-10
4.44194e-10
4.25344e-10
4.0529e-10
3.84106e-10
3.6188e-10
3.3872e-10
3.14756e-10
2.90139e-10
2.6505e-10
2.39693e-10
2.14302e-10
1.8914e-10
1.64489e-10
1.40656e-10
1.17955e-10
9.67034e-11
7.72031e-11
5.97245e-11
4.44889e-11
3.16451e-11
2.12502e-11
1.32543e-11
7.49294e-12
3.68995e-12
1.47424e-12
4.11894e-13
5.3699e-14
3.13498e-16
5.16634e-16
8.82787e-14
6.73459e-13
2.39129e-12
5.92539e-12
1.18918e-11
2.07614e-11
3.2817e-11
4.81406e-11
6.66263e-11
8.80102e-11
1.11908e-10
1.37855e-10
1.65349e-10
1.93875e-10
2.22932e-10
2.52052e-10
2.80814e-10
3.08843e-10
3.35823e-10
3.61488e-10
3.85626e-10
4.08077e-10
4.28707e-10
4.47439e-10
4.64224e-10
4.79039e-10
4.91879e-10
5.02781e-10
5.11771e-10
5.18878e-10
5.24209e-10
5.27793e-10
5.29692e-10
5.29971e-10
5.28689e-10
5.25905e-10
5.21676e-10
5.16051e-10
5.09078e-10
5.00796e-10
4.91245e-10
4.80456e-10
4.68462e-10
4.55289e-10
4.40967e-10
4.25525e-10
4.08996e-10
3.91417e-10
3.72833e-10
3.533e-10
3.32886e-10
3.11675e-10
2.8977e-10
2.67296e-10
2.44399e-10
2.21256e-10
1.98065e-10
1.75054e-10
1.52476e-10
1.30602e-10
1.09721e-10
9.01214e-11
7.2088e-11
5.58781e-11
4.17063e-11