/*--------------------------------*- C++ -*----------------------------------*\
  =========                 |
  \\      /  F ield         | OpenFOAM: The Open Source CFD Toolbox
   \\    /   O peration     | Website:  https://openfoam.org
    \\  /    A nd           | Version:  12
     \\/     M anipulation  |
\*---------------------------------------------------------------------------*/
FoamFile
{
    format      ascii;
    class       volScalarField;
    location    "8";
    object      p;
}
// * * * * * * * * * * * * * * * * * * * * * * * * * * * * * * * * * * * * * //

dimensions      [0 2 -2 0 0 0 0];

internalField   nonuniform List<scalar> 
5625
(
-1.88189e-09
5.76474e-08
9.58875e-07
2.7936e-06
5.33836e-06
8.381e-06
1.17458e-05
1.5274e-05
1.88261e-05
2.22781e-05
2.55225e-05
2.84676e-05
3.10359e-05
3.31633e-05
3.47974e-05
3.58966e-05
3.64293e-05
3.63729e-05
3.5713e-05
3.44425e-05
3.25613e-05
3.00756e-05
2.6997e-05
2.33426e-05
1.91338e-05
1.43967e-05
9.16064e-06
3.45883e-06
-2.67286e-06
-9.19581e-06
-1.60693e-05
-2.32504e-05
-3.06951e-05
-3.83578e-05
-4.6192e-05
-5.41506e-05
-6.21862e-05
-7.02513e-05
-7.82982e-05
-8.628e-05
-9.41503e-05
-0.000101864
-0.000109375
-0.000116642
-0.000123623
-0.000130277
-0.000136566
-0.000142455
-0.00014791
-0.0001529
-0.000157396
-0.000161375
-0.000164814
-0.000167695
-0.000170005
-0.000171734
-0.000172879
-0.00017344
-0.000173425
-0.000172846
-0.000171727
-0.000170095
-0.00016799
-0.00016546
-0.000162567
-0.000159382
-0.000155994
-0.000152506
-0.000149037
-0.000145722
-0.00014272
-0.000140203
-0.00013838
-0.000137477
-0.000137407
-3.12772e-06
-2.69638e-06
-1.67505e-06
-3.13718e-08
2.1097e-06
4.60635e-06
7.33242e-06
1.01723e-05
1.30195e-05
1.57774e-05
1.836e-05
2.06917e-05
2.27075e-05
2.43522e-05
2.55795e-05
2.63522e-05
2.6641e-05
2.64244e-05
2.56877e-05
2.44229e-05
2.2628e-05
2.03066e-05
1.74675e-05
1.4124e-05
1.02941e-05
5.99923e-06
1.26473e-06
-3.88106e-06
-9.407e-06
-1.52795e-05
-2.14627e-05
-2.79191e-05
-3.46097e-05
-4.14942e-05
-4.85314e-05
-5.56794e-05
-6.2896e-05
-7.01389e-05
-7.73659e-05
-8.45349e-05
-9.16048e-05
-9.85348e-05
-0.000105286
-0.000111819
-0.000118097
-0.000124086
-0.000129751
-0.000135061
-0.000139987
-0.000144502
-0.000148582
-0.000152206
-0.000155356
-0.000158017
-0.000160179
-0.000161836
-0.000162984
-0.000163628
-0.000163775
-0.000163439
-0.000162642
-0.000161409
-0.000159777
-0.000157788
-0.000155494
-0.000152957
-0.000150249
-0.000147452
-0.000144659
-0.000141974
-0.000139509
-0.000137389
-0.000135754
-0.000134729
-0.000134286
-9.22141e-06
-8.07487e-06
-6.46455e-06
-4.53934e-06
-2.35785e-06
1.33873e-08
2.49611e-06
5.01124e-06
7.48344e-06
9.84233e-06
1.20233e-05
1.39679e-05
1.56246e-05
1.69485e-05
1.79015e-05
1.8452e-05
1.85751e-05
1.82518e-05
1.74692e-05
1.62197e-05
1.45011e-05
1.2316e-05
9.67164e-06
6.57938e-06
3.05454e-06
-8.84087e-07
-5.21441e-06
-9.91149e-06
-1.49478e-05
-2.02934e-05
-2.59167e-05
-3.1784e-05
-3.78605e-05
-4.41102e-05
-5.04962e-05
-5.69809e-05
-6.35265e-05
-7.0095e-05
-7.66485e-05
-8.31494e-05
-8.95607e-05
-9.58461e-05
-0.00010197
-0.000107899
-0.000113599
-0.000119039
-0.000124189
-0.000129023
-0.000133513
-0.000137636
-0.000141372
-0.000144703
-0.000147612
-0.000150088
-0.000152121
-0.000153708
-0.000154847
-0.00015554
-0.000155796
-0.000155626
-0.00015505
-0.00015409
-0.000152776
-0.000151142
-0.000149231
-0.000147092
-0.000144778
-0.000142352
-0.000139881
-0.000137436
-0.000135095
-0.000132934
-0.000131017
-0.000129401
-0.000128241
-1.71266e-05
-1.50945e-05
-1.26366e-05
-1.01267e-05
-7.5696e-06
-4.97271e-06
-2.3808e-06
1.51901e-07
2.57284e-06
4.83213e-06
6.88279e-06
8.68137e-06
1.01887e-05
1.13702e-05
1.21961e-05
1.26416e-05
1.26871e-05
1.23177e-05
1.15232e-05
1.02983e-05
8.64207e-06
6.55755e-06
4.05203e-06
1.13634e-06
-2.17514e-06
-5.86496e-06
-9.91267e-06
-1.42953e-05
-1.89875e-05
-2.39618e-05
-2.9189e-05
-3.46383e-05
-4.02778e-05
-4.60743e-05
-5.1994e-05
-5.80027e-05
-6.40654e-05
-7.01476e-05
-7.62145e-05
-8.22318e-05
-8.81657e-05
-9.39831e-05
-9.96518e-05
-0.000105141
-0.00011042
-0.000115461
-0.000120236
-0.000124722
-0.000128893
-0.00013273
-0.000136214
-0.000139327
-0.000142056
-0.00014439
-0.00014632
-0.000147842
-0.000148954
-0.000149658
-0.000149959
-0.000149868
-0.000149398
-0.000148567
-0.000147397
-0.000145916
-0.000144155
-0.000142151
-0.000139942
-0.000137572
-0.000135089
-0.00013254
-0.000129979
-0.000127446
-0.000124947
-0.000122485
-0.000120439
-2.56183e-05
-2.26574e-05
-1.92594e-05
-1.60292e-05
-1.29321e-05
-9.92823e-06
-7.038e-06
-4.29822e-06
-1.74453e-06
5.89151e-07
2.67018e-06
4.46768e-06
5.95337e-06
7.102e-06
7.89187e-06
8.30488e-06
8.32683e-06
7.94735e-06
7.16004e-06
5.96224e-06
4.35512e-06
2.34331e-06
-6.50086e-08
-2.85854e-06
-6.02286e-06
-9.54085e-06
-1.33927e-05
-1.75565e-05
-2.20079e-05
-2.67211e-05
-3.16684e-05
-3.68208e-05
-4.21484e-05
-4.762e-05
-5.32042e-05
-5.88687e-05
-6.45813e-05
-7.03097e-05
-7.60215e-05
-8.16851e-05
-8.72689e-05
-9.27425e-05
-9.8076e-05
-0.000103241
-0.000108209
-0.000112955
-0.000117453
-0.00012168
-0.000125615
-0.000129239
-0.000132533
-0.000135481
-0.000138072
-0.000140293
-0.000142137
-0.000143598
-0.000144673
-0.000145361
-0.000145667
-0.000145595
-0.000145156
-0.000144362
-0.000143229
-0.000141775
-0.000140023
-0.000137996
-0.000135723
-0.000133232
-0.000130553
-0.000127717
-0.000124759
-0.000121695
-0.000118483
-0.000115084
-0.000112111
-3.38716e-05
-2.99985e-05
-2.56464e-05
-2.16402e-05
-1.79172e-05
-1.44005e-05
-1.10942e-05
-8.0237e-06
-5.21311e-06
-2.6846e-06
-4.59904e-07
1.44007e-06
2.99597e-06
4.19061e-06
5.0093e-06
5.44015e-06
5.47428e-06
5.10594e-06
4.33254e-06
3.15469e-06
1.57616e-06
-3.96236e-07
-2.75274e-06
-5.48076e-06
-8.56512e-06
-1.19881e-05
-1.57299e-05
-1.97684e-05
-2.40799e-05
-2.8639e-05
-3.34188e-05
-3.83914e-05
-4.35278e-05
-4.87983e-05
-5.41726e-05
-5.96202e-05
-6.51103e-05
-7.06123e-05
-7.60956e-05
-8.15302e-05
-8.68865e-05
-9.21357e-05
-9.72497e-05
-0.000102202
-0.000106965
-0.000111516
-0.000115831
-0.000119887
-0.000123665
-0.000127146
-0.000130312
-0.000133149
-0.000135643
-0.000137784
-0.000139561
-0.000140969
-0.000142003
-0.00014266
-0.00014294
-0.000142846
-0.000142383
-0.000141557
-0.000140379
-0.000138859
-0.000137012
-0.000134853
-0.000132398
-0.000129664
-0.00012667
-0.000123434
-0.000119979
-0.000116303
-0.000112325
-0.000107979
-0.000104097
-4.13099e-05
-3.65613e-05
-3.12733e-05
-2.64772e-05
-2.20895e-05
-1.80041e-05
-1.42145e-05
-1.07396e-05
-7.59568e-06
-4.79673e-06
-2.35651e-06
-2.88286e-07
1.3957e-06
2.68487e-06
3.57057e-06
4.04645e-06
4.10851e-06
3.75543e-06
2.9885e-06
1.81178e-06
2.31939e-07
-1.74161e-06
-4.097e-06
-6.8198e-06
-9.89342e-06
-1.3299e-05
-1.70157e-05
-2.1021e-05
-2.52907e-05
-2.97992e-05
-3.45198e-05
-3.94247e-05
-4.44853e-05
-4.96724e-05
-5.49566e-05
-6.03079e-05
-6.56966e-05
-7.1093e-05
-7.64676e-05
-8.17915e-05
-8.70362e-05
-9.2174e-05
-9.71781e-05
-0.000102022
-0.000106682
-0.000111134
-0.000115355
-0.000119323
-0.00012302
-0.000126427
-0.000129527
-0.000132305
-0.000134747
-0.000136841
-0.000138578
-0.000139948
-0.000140945
-0.000141565
-0.000141805
-0.000141663
-0.000141139
-0.000140237
-0.00013896
-0.000137313
-0.000135303
-0.000132938
-0.000130227
-0.000127177
-0.000123797
-0.000120097
-0.000116093
-0.00011177
-0.000107018
-0.000101748
-9.69972e-05
-4.75162e-05
-4.19281e-05
-3.57304e-05
-3.01487e-05
-2.50828e-05
-2.04032e-05
-1.60962e-05
-1.21773e-05
-8.65793e-06
-5.54662e-06
-2.85129e-06
-5.79511e-07
1.26207e-06
2.66824e-06
3.63546e-06
4.16217e-06
4.24889e-06
3.89844e-06
3.11592e-06
1.90887e-06
2.8711e-07
-1.73712e-06
-4.1494e-06
-6.93309e-06
-1.00696e-05
-1.35384e-05
-1.73172e-05
-2.13822e-05
-2.57083e-05
-3.0269e-05
-3.5037e-05
-3.99842e-05
-4.50816e-05
-5.03001e-05
-5.56102e-05
-6.09821e-05
-6.63864e-05
-7.17937e-05
-7.71751e-05
-8.25021e-05
-8.77468e-05
-9.28822e-05
-9.78821e-05
-0.000102721
-0.000107374
-0.000111819
-0.000116034
-0.000119997
-0.000123688
-0.000127091
-0.000130186
-0.000132959
-0.000135396
-0.000137484
-0.00013921
-0.000140566
-0.000141542
-0.000142131
-0.000142328
-0.000142127
-0.000141526
-0.000140523
-0.000139116
-0.000137306
-0.000135094
-0.000132481
-0.000129469
-0.000126061
-0.000122258
-0.000118064
-0.000113489
-0.000108511
-0.000102995
-9.68332e-05
-9.12559e-05
-5.21694e-05
-4.57688e-05
-3.86837e-05
-3.23258e-05
-2.65808e-05
-2.12987e-05
-1.64609e-05
-1.20814e-05
-8.16896e-06
-4.72832e-06
-1.76319e-06
7.23111e-07
2.72839e-06
4.2518e-06
5.29421e-06
5.85823e-06
5.94857e-06
5.57188e-06
4.73706e-06
3.4551e-06
1.73918e-06
-3.95462e-07
-2.93151e-06
-5.84978e-06
-9.12922e-06
-1.27472e-05
-1.66794e-05
-2.09004e-05
-2.53834e-05
-3.01008e-05
-3.50239e-05
-4.01236e-05
-4.53703e-05
-5.07341e-05
-5.6185e-05
-6.16928e-05
-6.7228e-05
-7.27609e-05
-7.82625e-05
-8.37045e-05
-8.9059e-05
-9.4299e-05
-9.93984e-05
-0.000104332
-0.000109076
-0.000113606
-0.000117901
-0.00012194
-0.000125703
-0.000129171
-0.000132327
-0.000135154
-0.000137637
-0.000139762
-0.000141517
-0.000142889
-0.000143868
-0.000144443
-0.000144608
-0.000144353
-0.000143673
-0.000142561
-0.000141013
-0.000139025
-0.000136592
-0.000133711
-0.000130379
-0.000126594
-0.000122351
-0.000117652
-0.000112502
-0.000106875
-0.000100611
-9.35888e-05
-8.72203e-05
-5.49989e-05
-4.78008e-05
-3.98423e-05
-3.27168e-05
-2.62969e-05
-2.04136e-05
-1.50446e-05
-1.02038e-05
-5.89843e-06
-2.13043e-06
1.09953e-06
3.79149e-06
5.94687e-06
7.56852e-06
8.66118e-06
9.23129e-06
9.28739e-06
8.8399e-06
7.90144e-06
6.48652e-06
4.6118e-06
2.29577e-06
-4.41101e-07
-3.57673e-06
-7.08723e-06
-1.09474e-05
-1.51307e-05
-1.96092e-05
-2.43543e-05
-2.93365e-05
-3.45254e-05
-3.98905e-05
-4.54008e-05
-5.10253e-05
-5.67329e-05
-6.24928e-05
-6.82743e-05
-7.40476e-05
-7.97829e-05
-8.54514e-05
-9.10251e-05
-9.64766e-05
-0.000101779
-0.000106908
-0.000111839
-0.000116547
-0.000121012
-0.00012521
-0.000129123
-0.00013273
-0.000136014
-0.000138957
-0.000141543
-0.000143757
-0.000145585
-0.000147012
-0.000148026
-0.000148616
-0.00014877
-0.000148479
-0.000147731
-0.000146519
-0.000144834
-0.000142667
-0.000140011
-0.000136859
-0.000133204
-0.000129038
-0.000124355
-0.000119152
-0.000113433
-0.000107166
-0.000100172
-9.23156e-05
-8.51827e-05
-5.57515e-05
-4.77596e-05
-3.89323e-05
-3.10444e-05
-2.39557e-05
-1.74782e-05
-1.15869e-05
-6.29585e-06
-1.61121e-06
2.46693e-06
5.94046e-06
8.81226e-06
1.10869e-05
1.27705e-05
1.38713e-05
1.43996e-05
1.43674e-05
1.3789e-05
1.26808e-05
1.10609e-05
8.94968e-06
6.36905e-06
3.34294e-06
-1.0328e-07
-3.94261e-06
-8.14689e-06
-1.26866e-05
-1.75315e-05
-2.26502e-05
-2.8011e-05
-3.35816e-05
-3.93293e-05
-4.52214e-05
-5.12253e-05
-5.73085e-05
-6.34389e-05
-6.95847e-05
-7.57149e-05
-8.1799e-05
-8.78074e-05
-9.37111e-05
-9.94824e-05
-0.000105094
-0.00011052
-0.000115736
-0.000120717
-0.000125441
-0.000129886
-0.00013403
-0.000137853
-0.000141337
-0.000144464
-0.000147215
-0.000149575
-0.000151527
-0.000153056
-0.000154148
-0.000154789
-0.000154965
-0.000154664
-0.000153873
-0.00015258
-0.000150774
-0.000148442
-0.000145575
-0.000142162
-0.000138191
-0.000133653
-0.000128537
-0.000122839
-0.000116561
-0.000109668
-0.00010196
-9.32882e-05
-8.54086e-05
-5.41673e-05
-4.53755e-05
-3.56765e-05
-2.70284e-05
-1.92779e-05
-1.2218e-05
-5.8204e-06
-9.96936e-08
4.93861e-06
9.29634e-06
1.29776e-05
1.59879e-05
1.83348e-05
2.00277e-05
2.10782e-05
2.15002e-05
2.13097e-05
2.05247e-05
1.91653e-05
1.72538e-05
1.48142e-05
1.18725e-05
8.45613e-06
4.59422e-06
3.17191e-07
-4.34332e-06
-9.35471e-06
-1.46835e-05
-2.02956e-05
-2.61565e-05
-3.22313e-05
-3.8485e-05
-4.48829e-05
-5.13902e-05
-5.79726e-05
-6.45963e-05
-7.12281e-05
-7.78355e-05
-8.43868e-05
-9.08513e-05
-9.7199e-05
-0.000103401
-0.00010943
-0.000115258
-0.000120861
-0.000126213
-0.00013129
-0.00013607
-0.000140531
-0.000144653
-0.000148414
-0.000151796
-0.00015478
-0.000157349
-0.000159484
-0.00016117
-0.000162389
-0.000163126
-0.000163366
-0.000163092
-0.000162291
-0.000160948
-0.000159047
-0.000156575
-0.000153518
-0.000149862
-0.000145593
-0.000140699
-0.000135165
-0.000128986
-0.000122164
-0.000114657
-0.000106248
-9.6773e-05
-8.81573e-05
-4.99614e-05
-4.03569e-05
-2.97776e-05
-2.03702e-05
-1.1967e-05
-4.34102e-06
2.53937e-06
8.65942e-06
1.40144e-05
1.86082e-05
2.24471e-05
2.55395e-05
2.78959e-05
2.95291e-05
3.04543e-05
3.06892e-05
3.02536e-05
2.91698e-05
2.7462e-05
2.51567e-05
2.2282e-05
1.88682e-05
1.49468e-05
1.05509e-05
5.71485e-06
4.74118e-07
-5.13514e-06
-1.10759e-05
-1.73109e-05
-2.38022e-05
-3.05124e-05
-3.74035e-05
-4.44383e-05
-5.15796e-05
-5.8791e-05
-6.60366e-05
-7.32814e-05
-8.04913e-05
-8.7633e-05
-9.46744e-05
-0.000101584
-0.000108333
-0.000114891
-0.000121231
-0.000127325
-0.00013315
-0.000138679
-0.000143889
-0.000148758
-0.000153263
-0.000157384
-0.000161099
-0.00016439
-0.000167237
-0.000169621
-0.000171525
-0.000172928
-0.000173816
-0.000174168
-0.000173968
-0.000173199
-0.000171844
-0.000169884
-0.000167304
-0.000164087
-0.000160216
-0.000155674
-0.000150445
-0.000144513
-0.000137872
-0.000130519
-0.000122412
-0.000113312
-0.000103043
-9.36953e-05
-4.28087e-05
-3.23751e-05
-2.0905e-05
-1.07401e-05
-1.69736e-06
6.47179e-06
1.3803e-05
2.02815e-05
2.59041e-05
3.06767e-05
3.46085e-05
3.77109e-05
3.99976e-05
4.14852e-05
4.21929e-05
4.21424e-05
4.13579e-05
3.98661e-05
3.76957e-05
3.4878e-05
3.14455e-05
2.74331e-05
2.28769e-05
1.78144e-05
1.22844e-05
6.32646e-06
-1.91838e-08
-6.71161e-06
-1.37098e-05
-2.09726e-05
-2.84588e-05
-3.61277e-05
-4.3939e-05
-5.18529e-05
-5.98305e-05
-6.78335e-05
-7.5825e-05
-8.37687e-05
-9.16298e-05
-9.93744e-05
-0.00010697
-0.000114385
-0.00012159
-0.000128555
-0.000135252
-0.000141656
-0.00014774
-0.00015348
-0.000158852
-0.000163833
-0.0001684
-0.000172534
-0.000176212
-0.000179414
-0.000182119
-0.000184309
-0.000185962
-0.00018706
-0.000187583
-0.000187511
-0.000186825
-0.000185504
-0.00018353
-0.000180883
-0.000177543
-0.00017349
-0.000168706
-0.000163171
-0.000156866
-0.000149783
-0.000141919
-0.000133225
-0.000123444
-0.000112384
-0.000102306
-3.23318e-05
-2.10526e-05
-8.68314e-06
2.23291e-06
1.18952e-05
2.05756e-05
2.83146e-05
3.50984e-05
4.09254e-05
4.58045e-05
4.97482e-05
5.27713e-05
5.48916e-05
5.61297e-05
5.65093e-05
5.60568e-05
5.48011e-05
5.27738e-05
5.00089e-05
4.65424e-05
4.24122e-05
3.76582e-05
3.23214e-05
2.64444e-05
2.00706e-05
1.32443e-05
6.0103e-06
-1.58627e-06
-9.50025e-06
-1.76865e-05
-2.61004e-05
-3.46976e-05
-4.34345e-05
-5.22685e-05
-6.11578e-05
-7.00617e-05
-7.89409e-05
-8.77569e-05
-9.6473e-05
-0.000105053
-0.000113464
-0.000121672
-0.000129646
-0.000137356
-0.000144773
-0.000151868
-0.000158616
-0.000164991
-0.000170967
-0.000176522
-0.000181631
-0.000186273
-0.000190425
-0.000194065
-0.000197172
-0.000199723
-0.000201699
-0.000203077
-0.000203836
-0.000203954
-0.000203409
-0.00020218
-0.000200243
-0.000197577
-0.000194159
-0.000189966
-0.000184978
-0.00017917
-0.000172523
-0.000165023
-0.000156668
-0.000147404
-0.000136952
-0.000125106
-0.000114298
-1.80899e-05
-5.95306e-06
7.31788e-06
1.897e-05
2.92214e-05
3.83688e-05
4.64587e-05
5.34789e-05
5.94306e-05
6.43263e-05
6.81823e-05
7.1018e-05
7.28556e-05
7.37206e-05
7.36417e-05
7.26505e-05
7.07815e-05
6.80718e-05
6.45609e-05
6.02906e-05
5.53045e-05
4.96479e-05
4.33677e-05
3.65115e-05
2.91284e-05
2.12675e-05
1.29787e-05
4.31184e-06
-4.68339e-06
-1.39577e-05
-2.34623e-05
-3.31492e-05
-4.29713e-05
-5.28826e-05
-6.28384e-05
-7.27953e-05
-8.27113e-05
-9.25458e-05
-0.00010226
-0.000111816
-0.000121178
-0.000130313
-0.000139186
-0.000147766
-0.000156024
-0.00016393
-0.000171457
-0.000178577
-0.000185267
-0.0001915
-0.000197252
-0.000202499
-0.000207219
-0.000211388
-0.000214983
-0.000217981
-0.00022036
-0.000222095
-0.000223164
-0.000223543
-0.000223207
-0.000222132
-0.000220293
-0.000217665
-0.000214222
-0.000209939
-0.000204791
-0.000198752
-0.000191798
-0.000183913
-0.000175093
-0.000165278
-0.000154169
-0.000141544
-0.000130005
4.30732e-07
1.34284e-05
2.75908e-05
3.99504e-05
5.07452e-05
6.02987e-05
6.86648e-05
7.58339e-05
8.18107e-05
8.66123e-05
9.02602e-05
9.27787e-05
9.41955e-05
9.45417e-05
9.3852e-05
9.21638e-05
8.95179e-05
8.59577e-05
8.15289e-05
7.62796e-05
7.02598e-05
6.35209e-05
5.61159e-05
4.80986e-05
3.95237e-05
3.0446e-05
2.09207e-05
1.10029e-05
7.47046e-07
-9.79287e-06
-2.05637e-05
-3.15134e-05
-4.25912e-05
-5.37475e-05
-6.49345e-05
-7.61057e-05
-8.72166e-05
-9.82243e-05
-0.000109088
-0.000119767
-0.000130225
-0.000140425
-0.000150333
-0.000159917
-0.000169145
-0.000177988
-0.000186416
-0.000194401
-0.000201919
-0.000208941
-0.000215444
-0.000221403
-0.000226792
-0.000231589
-0.000235768
-0.000239305
-0.000242176
-0.000244355
-0.000245818
-0.000246537
-0.000246486
-0.000245639
-0.000243968
-0.000241443
-0.000238038
-0.000233722
-0.000228468
-0.000222246
-0.000215028
-0.000206796
-0.000197544
-0.000187204
-0.000175456
-0.000162061
-0.000149796
2.38257e-05
3.76726e-05
5.26983e-05
6.57176e-05
7.69898e-05
8.68672e-05
9.54123e-05
0.000102619
0.000108498
0.000113071
0.000116366
0.000118413
0.000119246
0.000118904
0.000117427
0.00011486
0.00011125
0.000106649
0.000101108
9.46832e-05
8.74312e-05
7.94103e-05
7.06803e-05
6.13014e-05
5.13346e-05
4.0841e-05
2.98816e-05
1.85168e-05
6.80664e-06
-5.19012e-06
-1.74157e-05
-2.98137e-05
-4.23293e-05
-5.49095e-05
-6.75028e-05
-8.00596e-05
-9.25328e-05
-0.000104878
-0.00011705
-0.000129009
-0.000140714
-0.000152129
-0.000163218
-0.000173946
-0.000184281
-0.000194193
-0.000203652
-0.000212629
-0.000221097
-0.00022903
-0.000236401
-0.000243184
-0.000249354
-0.000254886
-0.000259754
-0.000263932
-0.000267394
-0.000270113
-0.000272061
-0.000273211
-0.000273533
-0.000272997
-0.000271572
-0.000269227
-0.000265931
-0.00026165
-0.000256353
-0.000250006
-0.000242576
-0.000234043
-0.000224397
-0.000213565
-0.000201203
-0.000187055
-0.000174074
5.27807e-05
6.7444e-05
8.32793e-05
9.68845e-05
0.000108542
0.000118634
0.000127233
0.00013434
0.000139969
0.000144151
0.00014692
0.000148314
0.000148374
0.000147147
0.00014468
0.000141027
0.000136242
0.000130384
0.000123515
0.000115695
0.000106991
9.7468e-05
8.71928e-05
7.6233e-05
6.46564e-05
5.25307e-05
3.9923e-05
2.68999e-05
1.35268e-05
-1.32116e-07
-1.40143e-05
-2.80589e-05
-4.2207e-05
-5.64018e-05
-7.05885e-05
-8.4713e-05
-9.87244e-05
-0.000112579
-0.00012623
-0.000139634
-0.000152748
-0.000165535
-0.000177956
-0.000189978
-0.000201566
-0.00021269
-0.000223318
-0.000233423
-0.000242974
-0.000251946
-0.000260311
-0.000268043
-0.000275114
-0.0002815
-0.000287172
-0.000292103
-0.000296266
-0.000299632
-0.000302171
-0.000303853
-0.000304645
-0.000304515
-0.000303429
-0.000301351
-0.000298247
-0.00029408
-0.000288813
-0.000282409
-0.00027483
-0.000266052
-0.000256062
-0.000244778
-0.000231835
-0.00021696
-0.000203277
8.80787e-05
0.000103497
0.000120054
0.000134138
0.000146055
0.000156219
0.000164715
0.000171549
0.000176746
0.000180342
0.000182381
0.00018291
0.000181978
0.00017964
0.000175954
0.00017098
0.000164783
0.00015743
0.00014899
0.000139535
0.000129137
0.000117871
0.000105811
9.30319e-05
7.96097e-05
6.56188e-05
5.11328e-05
3.62247e-05
2.09658e-05
5.42575e-06
-1.03278e-05
-2.62292e-05
-4.22152e-05
-5.82247e-05
-7.42e-05
-9.00867e-05
-0.000105831
-0.000121381
-0.000136689
-0.000151712
-0.000166405
-0.000180728
-0.000194645
-0.000208119
-0.000221116
-0.000233604
-0.000245551
-0.000256928
-0.000267706
-0.000277858
-0.000287354
-0.000296169
-0.000304275
-0.000311644
-0.000318249
-0.000324059
-0.000329047
-0.000333181
-0.000336428
-0.000338757
-0.000340131
-0.000340516
-0.000339874
-0.000338165
-0.00033535
-0.000331389
-0.000326239
-0.000319859
-0.000312206
-0.000303251
-0.000292976
-0.000281294
-0.000267815
-0.000252247
-0.000237888
0.000130605
0.000146679
0.000163827
0.000178241
0.000190251
0.000200305
0.0002085
0.000214853
0.000219395
0.000222175
0.000223246
0.000222665
0.00022049
0.000216786
0.000211621
0.000205065
0.000197193
0.00018808
0.000177806
0.00016645
0.000154096
0.000140825
0.000126722
0.000111868
9.63476e-05
8.02422e-05
6.36326e-05
4.65983e-05
2.92168e-05
1.15633e-05
-6.28914e-06
-2.42701e-05
-4.2312e-05
-6.03499e-05
-7.83221e-05
-9.61699e-05
-0.000113838
-0.000131274
-0.000148431
-0.000165264
-0.00018172
-0.000197758
-0.000213343
-0.000228439
-0.000243011
-0.000257027
-0.000270453
-0.000283261
-0.000295422
-0.000306906
-0.000317686
-0.000327733
-0.00033702
-0.000345518
-0.000353198
-0.000360029
-0.00036598
-0.000371019
-0.000375109
-0.000378217
-0.000380303
-0.000381329
-0.000381252
-0.00038003
-0.000377618
-0.000373972
-0.000369042
-0.000362783
-0.000355147
-0.000346097
-0.000335613
-0.000323598
-0.000309639
-0.000293426
-0.000278425
0.00018135
0.000197933
0.000215486
0.000230028
0.000241916
0.00025163
0.000259282
0.0002649
0.000268526
0.00027022
0.000270047
0.000268075
0.000264373
0.000259016
0.000252084
0.000243657
0.00023382
0.000222659
0.000210263
0.000196723
0.00018213
0.000166575
0.000150152
0.000132951
0.000115064
9.65797e-05
7.75874e-05
5.81725e-05
3.8419e-05
1.84078e-05
-1.78267e-06
-2.20773e-05
-4.24042e-05
-6.26947e-05
-8.28837e-05
-0.00010291
-0.000122715
-0.000142243
-0.000161442
-0.000180266
-0.000198673
-0.000216618
-0.00023406
-0.000250961
-0.000267288
-0.000283007
-0.000298088
-0.000312499
-0.000326212
-0.000339197
-0.000351427
-0.000362872
-0.000373505
-0.000383295
-0.000392211
-0.000400223
-0.000407296
-0.000413395
-0.000418484
-0.000422523
-0.000425471
-0.000427284
-0.000427916
-0.00042732
-0.000425445
-0.000422242
-0.000417656
-0.000411634
-0.000404122
-0.000395079
-0.000384478
-0.000372212
-0.000357845
-0.00034105
-0.000325453
0.00024141
0.000258294
0.000275998
0.000290405
0.000301898
0.000310986
0.0003178
0.00032238
0.000324781
0.000325078
0.000323345
0.000319664
0.000314117
0.00030679
0.000297773
0.00028716
0.000275044
0.000261524
0.0002467
0.00023067
0.000213538
0.000195404
0.00017637
0.000156535
0.000136
0.000114862
9.32156e-05
7.11548e-05
4.87693e-05
2.6146e-05
3.36849e-06
-1.94834e-05
-4.23333e-05
-6.51093e-05
-8.77428e-05
-0.00011017
-0.000132331
-0.000154167
-0.000175624
-0.000196652
-0.000217209
-0.000237256
-0.000256749
-0.00027565
-0.000293924
-0.000311538
-0.000328462
-0.000344664
-0.000360117
-0.00037479
-0.000388655
-0.000401684
-0.000413847
-0.000425113
-0.00043545
-0.000444825
-0.000453202
-0.000460544
-0.00046681
-0.000471957
-0.000475941
-0.000478713
-0.000480223
-0.000480417
-0.000479239
-0.000476632
-0.000472536
-0.000466891
-0.000459635
-0.00045072
-0.000440113
-0.000427697
-0.000413013
-0.000395716
-0.000379585
0.000311976
0.000328881
0.0003464
0.000360334
0.000371088
0.000379202
0.000384824
0.000388009
0.000388829
0.000387369
0.000383722
0.000377978
0.000370234
0.000360589
0.000349144
0.000336004
0.000321276
0.000305067
0.000287489
0.000268651
0.000248666
0.000227644
0.000205696
0.000182931
0.000159456
0.000135378
0.000110799
8.5818e-05
6.05324e-05
3.50345e-05
9.41305e-06
-1.62474e-05
-4.18666e-05
-6.73689e-05
-9.26829e-05
-0.000117742
-0.000142483
-0.000166849
-0.000190785
-0.000214241
-0.000237171
-0.000259533
-0.000281287
-0.000302396
-0.000322825
-0.000342543
-0.000361517
-0.000379718
-0.000397117
-0.000413686
-0.000429396
-0.000444218
-0.000458121
-0.000471073
-0.000483042
-0.000493991
-0.000503883
-0.000512677
-0.000520329
-0.000526793
-0.000532019
-0.000535953
-0.000538539
-0.000539717
-0.000539424
-0.000537597
-0.000534167
-0.000529065
-0.000522223
-0.000513584
-0.000503106
-0.000490664
-0.000475773
-0.000458074
-0.000441485
0.000394327
0.000410883
0.000427782
0.000440815
0.000450411
0.00045713
0.000461142
0.000462517
0.000461345
0.000457726
0.000451766
0.00044357
0.000433248
0.00042091
0.000406671
0.000390646
0.000372953
0.000353712
0.000333043
0.000311067
0.000287906
0.00026368
0.000238508
0.000212509
0.000185799
0.00015849
0.000130692
0.000102513
7.40537e-05
4.54134e-05
1.66855e-05
-1.2041e-05
-4.06822e-05
-6.91591e-05
-9.73978e-05
-0.000125329
-0.00015289
-0.00018002
-0.000206665
-0.000232775
-0.000258304
-0.000283209
-0.000307452
-0.000330996
-0.000353807
-0.000375854
-0.000397108
-0.000417538
-0.000437116
-0.000455815
-0.000473605
-0.000490457
-0.00050634
-0.00052122
-0.000535064
-0.000547832
-0.000559485
-0.000569977
-0.000579262
-0.000587287
-0.000593998
-0.000599334
-0.000603233
-0.000605627
-0.000606445
-0.000605616
-0.000603062
-0.000598704
-0.000592465
-0.000584278
-0.000574094
-0.000561774
-0.000546812
-0.000528831
-0.000511878
0.000489801
0.000505533
0.00052126
0.000532865
0.000540792
0.000545616
0.000547529
0.000546619
0.000542992
0.000536765
0.000528057
0.000516988
0.000503679
0.000488254
0.000470836
0.000451554
0.000430536
0.00040791
0.000383809
0.000358361
0.000331699
0.000303951
0.000275246
0.00024571
0.000215466
0.000184636
0.000153335
0.000121677
8.97706e-05
5.77189e-05
2.56202e-05
-6.43244e-06
-3.83516e-05
-7.00555e-05
-0.000101468
-0.000132519
-0.000163142
-0.000193279
-0.000222875
-0.000251879
-0.000280247
-0.000307937
-0.00033491
-0.000361133
-0.000386573
-0.0004112
-0.000434984
-0.000457899
-0.000479916
-0.000501008
-0.000521146
-0.000540301
-0.000558439
-0.000575528
-0.000591529
-0.000606403
-0.000620105
-0.000632586
-0.000643793
-0.000653671
-0.000662155
-0.00066918
-0.000674674
-0.000678561
-0.000680762
-0.000681193
-0.000679766
-0.000676394
-0.000670986
-0.000663464
-0.00065377
-0.000641753
-0.000626882
-0.000608764
-0.000591561
0.000599764
0.000614068
0.000627937
0.000637469
0.000643118
0.000645464
0.000644714
0.000640981
0.000634385
0.00062506
0.000613137
0.000598748
0.000582026
0.000563103
0.000542116
0.0005192
0.000494494
0.000468134
0.000440261
0.000411013
0.00038053
0.00034895
0.000316407
0.000283037
0.000248969
0.000214332
0.000179249
0.000143838
0.000108214
7.2485e-05
3.67534e-05
1.11604e-06
-3.43368e-05
-6.95208e-05
-0.000104358
-0.000138778
-0.000172713
-0.000206106
-0.000238901
-0.00027105
-0.000302509
-0.000333238
-0.000363201
-0.000392365
-0.0004207
-0.000448179
-0.000474773
-0.000500456
-0.000525203
-0.000548987
-0.000571778
-0.000593546
-0.000614259
-0.000633881
-0.000652371
-0.000669686
-0.000685776
-0.000700589
-0.000714065
-0.000726139
-0.000736743
-0.000745799
-0.000753228
-0.000758942
-0.00076285
-0.000764856
-0.000764863
-0.000762766
-0.000758463
-0.000751865
-0.000742898
-0.000731398
-0.000716813
-0.000698734
-0.000681415
0.000725551
0.000737679
0.000748849
0.000755534
0.000758188
0.000757379
0.000753331
0.000746175
0.000736049
0.000723099
0.000707468
0.000689296
0.000668724
0.000645893
0.000620946
0.000594029
0.000565281
0.000534849
0.000502879
0.000469517
0.000434909
0.000399199
0.00036253
0.000325043
0.000286874
0.000248159
0.000209025
0.000169598
0.000129997
9.03332e-05
5.07144e-05
1.12401e-05
-2.79967e-05
-6.69101e-05
-0.000105421
-0.000143458
-0.000180955
-0.000217854
-0.000254103
-0.000289653
-0.000324464
-0.000358499
-0.000391724
-0.000424109
-0.000455628
-0.000486254
-0.000515963
-0.000544731
-0.000572534
-0.000599344
-0.000625135
-0.000649875
-0.00067353
-0.000696061
-0.000717426
-0.000737576
-0.000756456
-0.000774007
-0.000790162
-0.000804847
-0.000817983
-0.000829483
-0.000839254
-0.000847196
-0.000853204
-0.000857168
-0.000858974
-0.000858503
-0.000855638
-0.000850273
-0.000842319
-0.000831596
-0.000817531
-0.0007997
-0.000782426
0.000868398
0.000877437
0.000884887
0.000887808
0.000886636
0.000881904
0.000873846
0.000862614
0.000848358
0.000831231
0.000811384
0.000788961
0.000764108
0.000736969
0.000707687
0.000676413
0.000643295
0.000608476
0.000572109
0.000534343
0.000495331
0.00045522
0.00041416
0.000372296
0.000329772
0.000286726
0.000243294
0.000199604
0.000155781
0.000111941
6.81945e-05
2.46437e-05
-1.86162e-05
-6.14983e-05
-0.000103923
-0.000145819
-0.000187123
-0.000227776
-0.000267731
-0.000306941
-0.00034537
-0.000382984
-0.000419754
-0.000455654
-0.000490661
-0.000524754
-0.00055791
-0.000590109
-0.000621328
-0.000651542
-0.000680725
-0.000708844
-0.000735863
-0.000761741
-0.000786431
-0.000809878
-0.000832021
-0.000852792
-0.000872114
-0.000889903
-0.000906066
-0.000920503
-0.000933107
-0.000943762
-0.000952344
-0.000958727
-0.000962777
-0.000964358
-0.000963332
-0.000959574
-0.00095298
-0.000943347
-0.000930082
-0.000912747
-0.000895707
0.00102931
0.00103415
0.00103667
0.00103477
0.00102883
0.00101932
0.00100647
0.000990466
0.00097145
0.000949582
0.00092501
0.00089788
0.000868333
0.00083651
0.000802553
0.000766604
0.000728816
0.000689333
0.000648304
0.000605883
0.000562221
0.000517471
0.000471787
0.000425317
0.000378209
0.000330609
0.000282655
0.000234481
0.000186216
0.00013798
8.98853e-05
4.20381e-05
-5.46544e-06
-5.25377e-05
-9.90998e-05
-0.000145082
-0.000190422
-0.000235067
-0.00027897
-0.000322092
-0.0003644
-0.000405866
-0.000446467
-0.000486183
-0.000524995
-0.000562889
-0.000599846
-0.00063585
-0.000670881
-0.000704916
-0.000737929
-0.000769888
-0.000800753
-0.00083048
-0.000859016
-0.0008863
-0.000912261
-0.000936821
-0.000959889
-0.000981369
-0.00100115
-0.00101912
-0.00103514
-0.0010491
-0.00106083
-0.00107019
-0.00107702
-0.00108116
-0.00108246
-0.00108077
-0.00107595
-0.00106779
-0.00105566
-0.00103912
-0.00102254
0.00120897
0.00120833
0.00120453
0.00119658
0.00118479
0.00116955
0.00115108
0.00112956
0.00110513
0.00107796
0.00104817
0.00101591
0.000981287
0.000944445
0.000905513
0.000864625
0.00082192
0.000777541
0.000731634
0.000684348
0.000635835
0.000586249
0.000535745
0.000484477
0.000432595
0.000380248
0.000327581
0.000274733
0.000221834
0.00016901
0.000116376
6.40408e-05
1.21014e-05
-3.93545e-05
-9.02499e-05
-0.000140518
-0.0001901
-0.000238947
-0.000287019
-0.000334283
-0.000380713
-0.000426289
-0.000470996
-0.000514822
-0.000557757
-0.000599791
-0.000640915
-0.000681118
-0.000720383
-0.000758691
-0.000796017
-0.000832327
-0.000867581
-0.000901729
-0.00093471
-0.000966455
-0.000996882
-0.0010259
-0.0010534
-0.00107926
-0.00110337
-0.00112558
-0.00114575
-0.00116369
-0.00117925
-0.00119226
-0.00120253
-0.00120986
-0.00121408
-0.001215
-0.00121246
-0.00120622
-0.00119564
-0.00118025
-0.0011644
0.00140764
0.00139997
0.00138819
0.00137278
0.00135397
0.00133197
0.001307
0.00127921
0.00124874
0.00121573
0.00118027
0.00114248
0.00110247
0.00106033
0.00101618