/*--------------------------------*- C++ -*----------------------------------*\
  =========                 |
  \\      /  F ield         | OpenFOAM: The Open Source CFD Toolbox
   \\    /   O peration     | Website:  https://openfoam.org
    \\  /    A nd           | Version:  12
     \\/     M anipulation  |
\*---------------------------------------------------------------------------*/
FoamFile
{
    format      ascii;
    class       surfaceScalarField;
    location    "8";
    object      phi;
}
// * * * * * * * * * * * * * * * * * * * * * * * * * * * * * * * * * * * * * //

dimensions      [0 3 -1 0 0 0 0];

internalField   nonuniform List<scalar> 
11100
(
-3.16313e-11
3.16745e-11
-7.98724e-11
4.82413e-11
-1.15465e-10
3.55915e-11
-1.21057e-10
5.59151e-12
-8.70828e-11
-3.39756e-11
-8.61263e-12
-7.84708e-11
1.16022e-10
-1.24635e-10
2.86326e-10
-1.70304e-10
5.00346e-10
-2.1402e-10
7.55167e-10
-2.54821e-10
1.04725e-09
-2.92082e-10
1.37266e-09
-3.25409e-10
1.72722e-09
-3.54564e-10
2.10665e-09
-3.79425e-10
2.5066e-09
-3.99949e-10
2.92276e-09
-4.16152e-10
3.35085e-09
-4.28094e-10
3.78673e-09
-4.3587e-10
4.22633e-09
-4.39601e-10
4.66576e-09
-4.39428e-10
5.10128e-09
-4.35511e-10
5.52931e-09
-4.28024e-10
5.94646e-09
-4.17152e-10
6.34956e-09
-4.03091e-10
6.73561e-09
-3.86046e-10
7.10185e-09
-3.66226e-10
7.4457e-09
-3.4385e-10
7.76485e-09
-3.19136e-10
8.05716e-09
-2.9231e-10
8.32077e-09
-2.63598e-10
8.55401e-09
-2.33228e-10
8.75545e-09
-2.01427e-10
8.92388e-09
-1.68424e-10
9.05834e-09
-1.34446e-10
9.15807e-09
-9.97183e-11
9.22255e-09
-6.44653e-11
9.25147e-09
-2.89084e-11
9.24475e-09
6.73346e-12
9.20251e-09
4.22442e-11
9.12512e-09
7.7412e-11
9.0131e-09
1.12026e-10
8.86724e-09
1.45881e-10
8.68848e-09
1.78771e-10
8.478e-09
2.10499e-10
8.23714e-09
2.40866e-10
7.96748e-09
2.69679e-10
7.67075e-09
2.96747e-10
7.34888e-09
3.2188e-10
7.00401e-09
3.44893e-10
6.63842e-09
3.65603e-10
6.25461e-09
3.83828e-10
5.85523e-09
3.99391e-10
5.44313e-09
4.12115e-10
5.02132e-09
4.21827e-10
4.59298e-09
4.28359e-10
4.16145e-09
4.31545e-10
3.73024e-09
4.31227e-10
3.303e-09
4.27254e-10
2.88354e-09
4.19483e-10
2.47576e-09
4.07786e-10
2.08372e-09
3.92055e-10
1.71153e-09
3.72207e-10
1.36335e-09
3.48195e-10
1.04334e-09
3.20025e-10
7.55575e-10
2.87778e-10
5.03942e-10
2.51643e-10
2.91993e-10
2.11962e-10
1.22695e-10
1.69306e-10
-1.87543e-12
1.24582e-10
-8.10804e-11
7.92103e-11
-1.16335e-10
3.52623e-11
-1.12348e-10
-3.98539e-12
-7.82873e-11
-3.40592e-11
-3.12069e-11
-4.70806e-11
-3.12089e-11
-1.58717e-11
4.75452e-11
-1.59624e-11
4.83309e-11
3.59849e-11
-1.63573e-11
1.64209e-10
-1.22634e-10
3.84399e-10
-2.54168e-10
7.05227e-10
-3.993e-10
1.13018e-09
-5.49592e-10
1.65879e-09
-6.98913e-10
2.28761e-09
-8.42836e-10
3.01097e-09
-9.78186e-10
3.8216e-09
-1.10271e-09
4.71103e-09
-1.21484e-09
5.66997e-09
-1.31351e-09
6.6886e-09
-1.39805e-09
7.75675e-09
-1.46809e-09
8.86408e-09
-1.52348e-09
1.00002e-08
-1.56425e-09
1.1155e-08
-1.59059e-09
1.23182e-08
-1.6028e-09
1.348e-08
-1.60127e-09
1.4631e-08
-1.58648e-09
1.57619e-08
-1.55898e-09
1.68641e-08
-1.51938e-09
1.79294e-08
-1.46832e-09
1.89498e-08
-1.4065e-09
1.99182e-08
-1.33464e-09
2.08279e-08
-1.25349e-09
2.16726e-08
-1.16384e-09
2.24468e-08
-1.06647e-09
2.31454e-08
-9.62189e-10
2.37639e-08
-8.51814e-10
2.42987e-08
-7.36165e-10
2.47463e-08
-6.16067e-10
2.51042e-08
-4.92345e-10
2.53703e-08
-3.65821e-10
2.55432e-08
-2.37314e-10
2.56219e-08
-1.07635e-10
2.56062e-08
2.24122e-11
2.54965e-08
1.52032e-10
2.52934e-08
2.80439e-10
2.49986e-08
4.06859e-10
2.4614e-08
5.30529e-10
2.4142e-08
6.50698e-10
2.35859e-08
7.66626e-10
2.29492e-08
8.77588e-10
2.2236e-08
9.82867e-10
2.1451e-08
1.08176e-09
2.05993e-08
1.17359e-09
1.96866e-08
1.25766e-09
1.87188e-08
1.33333e-09
1.77027e-08
1.39994e-09
1.66452e-08
1.45687e-09
1.55539e-08
1.5035e-09
1.44365e-08
1.53925e-09
1.33013e-08
1.56354e-09
1.2157e-08
1.57584e-09
1.10126e-08
1.57566e-09
9.87731e-09
1.56253e-09
8.76073e-09
1.53607e-09
7.67256e-09
1.49596e-09
6.62267e-09
1.44195e-09
5.62093e-09
1.37396e-09
4.67712e-09
1.29202e-09
3.80075e-09
1.1964e-09
3.0009e-09
1.08764e-09
2.2859e-09
9.66644e-10
1.66305e-09
8.34828e-10
1.13808e-09
6.94273e-10
7.14685e-10
5.47987e-10
3.93671e-10
4.00229e-10
1.71967e-10
2.56972e-10
4.14691e-11
1.26517e-10
-1.29817e-11
2.03934e-11
-1.49463e-11
-4.51151e-11
-4.61559e-11
2.54079e-11
2.2136e-11
1.3184e-10
-5.81032e-11
3.43931e-10
-2.2845e-10
6.79971e-10
-4.58676e-10
1.15218e-09
-7.26378e-10
1.76738e-09
-1.0145e-09
2.52769e-09
-1.30991e-09
3.43128e-09
-1.60251e-09
4.47305e-09
-1.88461e-09
5.64524e-09
-2.15038e-09
6.93799e-09
-2.39546e-09
8.33981e-09
-2.61666e-09
9.83798e-09
-2.81169e-09
1.14189e-08
-2.97897e-09
1.30683e-08
-3.11753e-09
1.47717e-08
-3.22684e-09
1.65142e-08
-3.3068e-09
1.82812e-08
-3.35757e-09
2.0058e-08
-3.37964e-09
2.18304e-08
-3.37366e-09
2.35845e-08
-3.34051e-09
2.53067e-08
-3.28122e-09
2.69843e-08
-3.19695e-09
2.86049e-08
-3.08897e-09
3.01571e-08
-2.95865e-09
3.16299e-08
-2.80746e-09
3.30133e-08
-2.63691e-09
3.4298e-08
-2.44858e-09
3.54757e-08
-2.2441e-09
3.65386e-08
-2.02512e-09
3.74801e-08
-1.79333e-09
3.82944e-08
-1.55043e-09
3.89764e-08
-1.29813e-09
3.95222e-08
-1.03817e-09
3.99286e-08
-7.72243e-10
4.01934e-08
-5.02079e-10
4.03151e-08
-2.29378e-10
4.02934e-08
4.41682e-11
4.01285e-08
3.16885e-10
3.98218e-08
5.87119e-10
3.93754e-08
8.53234e-10
3.87923e-08
1.11362e-09
3.80763e-08
1.36669e-09
3.7232e-08
1.61089e-09
3.62649e-08
1.84468e-09
3.51812e-08
2.06657e-09
3.39879e-08
2.27507e-09
3.26927e-08
2.46876e-09
3.13041e-08
2.64621e-09
2.98314e-08
2.80607e-09
2.82843e-08
2.947e-09
2.66735e-08
3.06771e-09
2.501e-08
3.16698e-09
2.33056e-08
3.24362e-09
2.15726e-08
3.29652e-09
1.98238e-08
3.32466e-09
1.80723e-08
3.32711e-09
1.63318e-08
3.30305e-09
1.4616e-08
3.25181e-09
1.29391e-08
3.17289e-09
1.1315e-08
3.06601e-09
9.75778e-09
2.93118e-09
8.28108e-09
2.76872e-09
6.89807e-09
2.5794e-09
5.62115e-09
2.36454e-09
4.46164e-09
2.12615e-09
3.42934e-09
1.86712e-09
2.5321e-09
1.5915e-09
1.7753e-09
1.30479e-09
1.16115e-09
1.01437e-09
6.88087e-10
7.30038e-10
3.49928e-10
4.64672e-10
1.35209e-10
2.35113e-10
2.64841e-11
6.36111e-11
-1.96686e-11
7.22395e-11
-5.01049e-11
3.00593e-10
-2.86459e-10
6.95825e-10
-6.23684e-10
1.26628e-09
-1.02913e-09
2.01701e-09
-1.47711e-09
2.94956e-09
-1.94706e-09
4.06205e-09
-2.42239e-09
5.34936e-09
-2.88983e-09
6.80355e-09
-3.3388e-09
8.41418e-09
-3.76101e-09
1.01687e-08
-4.15001e-09
1.20529e-08
-4.50088e-09
1.40512e-08
-4.80998e-09
1.6147e-08
-5.07471e-09
1.83228e-08
-5.29334e-09
2.05608e-08
-5.46487e-09
2.28429e-08
-5.58893e-09
2.5151e-08
-5.66566e-09
2.7467e-08
-5.69564e-09
2.97732e-08
-5.67986e-09
3.20523e-08
-5.61959e-09
3.42874e-08
-5.51642e-09
3.64626e-08
-5.37215e-09
3.85625e-08
-5.1888e-09
4.05724e-08
-4.96856e-09
4.24786e-08
-4.71376e-09
4.42686e-08
-4.42689e-09
4.59305e-08
-4.11049e-09
4.74536e-08
-3.76723e-09
4.88283e-08
-3.39983e-09
5.0046e-08
-3.01106e-09
5.10993e-08
-2.60373e-09
5.19819e-08
-2.18068e-09
5.26884e-08
-1.74477e-09
5.3215e-08
-1.29884e-09
5.35587e-08
-8.45747e-10
5.37176e-08
-3.88341e-10
5.36912e-08
7.05604e-11
5.34799e-08
5.28158e-10
5.30853e-08
9.81685e-10
5.25101e-08
1.42841e-09
5.17581e-08
1.86563e-09
5.08341e-08
2.2907e-09
4.97439e-08
2.701e-09
4.84946e-08
3.09398e-09
4.7094e-08
3.46713e-09
4.55511e-08
3.818e-09
4.38756e-08
4.1442e-09
4.20784e-08
4.44339e-09
4.01711e-08
4.71331e-09
3.81663e-08
4.95179e-09
3.60773e-08
5.15674e-09
3.39181e-08
5.32615e-09
3.17035e-08
5.45815e-09
2.9449e-08
5.55099e-09
2.71706e-08
5.60306e-09
2.48847e-08
5.61294e-09
2.26083e-08
5.57944e-09
2.03585e-08
5.50161e-09
1.81526e-08
5.3788e-09
1.60078e-08
5.21074e-09
1.39413e-08
4.99763e-09
1.19698e-08
4.74018e-09
1.01094e-08
4.4398e-09
8.37523e-09
4.0987e-09
6.78126e-09
3.72011e-09
5.33991e-09
3.30846e-09
4.06169e-09
2.86971e-09
2.9548e-09
2.41166e-09
2.02477e-09
1.94439e-09
1.27407e-09
1.48073e-09
7.01917e-10
1.03682e-09
3.0414e-10
6.32886e-10
7.3396e-11
2.94355e-10
5.37322e-11
1.17451e-10
-1.67557e-10
4.6714e-10
-6.36149e-10
1.04746e-09
-1.20401e-09
1.85659e-09
-1.83826e-09
2.89132e-09
-2.51184e-09
4.14648e-09
-3.20222e-09
5.61469e-09
-3.89061e-09
7.28629e-09
-4.56143e-09
9.1494e-09
-5.20191e-09
1.11901e-08
-5.80174e-09
1.33928e-08
-6.35267e-09
1.57402e-08
-6.84826e-09
1.82138e-08
-7.2836e-09
2.07942e-08
-7.6551e-09
2.34612e-08
-7.96032e-09
2.61941e-08
-8.19777e-09
2.8972e-08
-8.36684e-09
3.17739e-08
-8.46761e-09
3.45791e-08
-8.50083e-09
3.7367e-08
-8.46777e-09
4.01176e-08
-8.37021e-09
4.28115e-08
-8.21033e-09
4.54301e-08
-7.99066e-09
4.79553e-08
-7.71405e-09
5.03704e-08
-7.38363e-09
5.26594e-08
-7.00274e-09
5.48074e-08
-6.57492e-09
5.68008e-08
-6.10389e-09
5.8627e-08
-5.59348e-09
6.02748e-08
-5.04763e-09
6.17341e-08
-4.47039e-09
6.29963e-08
-3.86585e-09
6.40537e-08
-3.23817e-09
6.49005e-08
-2.5915e-09
6.55317e-08
-1.93004e-09
6.59439e-08
-1.25798e-09
6.6135e-08
-5.79487e-10
6.61043e-08
1.01287e-10
6.58522e-08
7.80224e-10
6.53807e-08
1.45325e-09
6.46927e-08
2.11633e-09
6.37928e-08
2.7655e-09
6.26867e-08
3.39685e-09
6.13811e-08
4.00653e-09
5.98843e-08
4.59078e-09
5.82055e-08
5.14592e-09
5.63552e-08
5.66833e-09
5.43449e-08
6.15453e-09
5.21871e-08
6.60111e-09
4.98957e-08
7.00477e-09
4.74851e-08
7.36236e-09
4.4971e-08
7.67085e-09
4.23697e-08
7.9274e-09
3.96985e-08
8.1293e-09
3.69754e-08
8.2741e-09
3.42189e-08
8.35955e-09
3.14481e-08
8.38371e-09
2.86826e-08
8.34495e-09
2.59422e-08
8.24203e-09
2.32468e-08
8.07415e-09
2.06165e-08
7.84106e-09
1.80709e-08
7.54313e-09
1.56296e-08
7.18149e-09
1.33113e-08
6.75813e-09
1.11338e-08
6.27612e-09
9.11415e-09
5.73978e-09
7.26769e-09
5.15489e-09
5.60836e-09
4.52902e-09
4.14824e-09
3.87177e-09
2.8974e-09
3.19522e-09
1.86386e-09
2.51425e-09
1.05363e-09
1.84705e-09
4.70914e-10
1.21559e-09
1.18735e-10
6.46533e-10
1.7247e-10
1.59349e-10
-3.26908e-10
6.24235e-10
-1.10104e-09
1.38309e-09
-1.96286e-09
2.42502e-09
-2.88019e-09
3.73882e-09
-3.82564e-09
5.31235e-09
-4.77575e-09
7.13215e-09
-5.71041e-09
9.1833e-09
-6.61258e-09
1.14493e-08
-7.46792e-09
1.39122e-08
-8.26463e-09
1.65526e-08
-8.99309e-09
1.935e-08
-9.64563e-09
2.22828e-08
-1.02163e-08
2.53285e-08
-1.07008e-08
2.84642e-08
-1.1096e-08
3.16666e-08
-1.14001e-08
3.49121e-08
-1.16123e-08
3.81772e-08
-1.17328e-08
4.14388e-08
-1.17624e-08
4.46739e-08
-1.17029e-08
4.78603e-08
-1.15565e-08
5.09762e-08
-1.13263e-08
5.40009e-08
-1.10154e-08
5.69146e-08
-1.06277e-08
5.96983e-08
-1.01673e-08
6.23343e-08
-9.63875e-09
6.48061e-08
-9.04672e-09
6.70984e-08
-8.39621e-09
6.91973e-08
-7.69235e-09
7.10902e-08
-6.94048e-09
7.27658e-08
-6.14602e-09
7.42145e-08
-5.31451e-09
7.54279e-08
-4.45155e-09
7.63992e-08
-3.56278e-09
7.71231e-08
-2.65388e-09
7.75956e-08
-1.73052e-09
7.78145e-08
-7.98362e-10
7.77789e-08
1.36956e-10
7.74893e-08
1.06984e-09
7.69478e-08
1.99475e-09
7.61579e-08
2.90621e-09
7.51246e-08
3.79882e-09
7.38542e-08
4.66727e-09
7.23544e-08
5.50633e-09
7.06343e-08
6.31088e-09
6.87043e-08
7.07593e-09
6.65761e-08
7.79659e-09
6.42625e-08
8.46811e-09
6.17778e-08
9.0859e-09
5.9137e-08
9.64553e-09
5.63566e-08
1.01427e-08
5.3454e-08
1.05735e-08
5.04475e-08
1.0934e-08
4.73562e-08
1.12206e-08
4.42003e-08
1.14301e-08
4.10003e-08
1.15595e-08
3.77777e-08
1.16063e-08
3.45543e-08
1.15684e-08
3.13521e-08
1.14442e-08
2.81935e-08
1.12327e-08
2.5101e-08
1.09336e-08
2.20968e-08
1.05473e-08
1.9203e-08
1.00753e-08
1.64411e-08
9.52004e-09
1.3832e-08
8.88523e-09
1.13957e-08
8.17604e-09
9.15131e-09
7.39928e-09
7.11667e-09
6.56366e-09
5.3084e-09
5.68005e-09
3.7418e-09
4.76181e-09
2.43098e-09
3.82507e-09
1.38897e-09
2.88905e-09
6.28143e-10
1.97642e-09
1.60764e-10
1.11391e-09
3.33232e-10
1.98044e-10
-5.24952e-10
7.71232e-10
-1.67422e-09
1.70007e-09
-2.8917e-09
2.96593e-09
-4.14605e-09
4.55031e-09
-5.41002e-09
6.43436e-09
-6.6598e-09
8.59852e-09
-7.87457e-09
1.10223e-08
-9.03638e-09
1.36843e-08
-1.01299e-08
1.6562e-08
-1.11423e-08
1.9632e-08
-1.20631e-08
2.287e-08
-1.28836e-08
2.62511e-08
-1.35974e-08
2.97496e-08
-1.41994e-08
3.33398e-08
-1.46862e-08
3.69955e-08
-1.50559e-08
4.06907e-08
-1.53075e-08
4.43995e-08
-1.54416e-08
4.80964e-08
-1.54592e-08
5.17562e-08
-1.53627e-08
5.53547e-08
-1.5155e-08
5.88683e-08
-1.48398e-08
6.22743e-08
-1.44214e-08
6.55512e-08
-1.39045e-08
6.86784e-08
-1.32945e-08
7.16368e-08
-1.25971e-08
7.44083e-08
-1.18183e-08
7.69766e-08
-1.09644e-08
7.93264e-08
-1.00421e-08
8.14441e-08
-9.05818e-09
8.33177e-08
-8.01954e-09
8.49365e-08
-6.93329e-09
8.62915e-08
-5.80662e-09
8.73756e-08
-4.64676e-09
8.81827e-08
-3.461e-09
8.87088e-08
-2.25663e-09
8.89514e-08
-1.04092e-09
8.89095e-08
1.78884e-10
8.85838e-08
1.39558e-09
8.79765e-08
2.60205e-09
8.70915e-08
3.79125e-09
8.59342e-08
4.95621e-09
8.45113e-08
6.09011e-09
8.28315e-08
7.18622e-09
8.09044e-08
8.23796e-09
7.87415e-08
9.23889e-09
7.63554e-08
1.01828e-08
7.37601e-08
1.10634e-08
7.09709e-08
1.18751e-08
6.80045e-08
1.2612e-08
6.48787e-08
1.32687e-08
6.16122e-08
1.384e-08
5.8225e-08
1.43212e-08
5.4738e-08
1.47075e-08
5.11731e-08
1.4995e-08
4.75528e-08
1.51798e-08
4.39004e-08
1.52588e-08
4.02396e-08
1.52292e-08
3.65949e-08
1.5089e-08
3.29907e-08
1.48369e-08
2.9452e-08
1.44723e-08
2.60036e-08
1.39958e-08
2.26701e-08
1.34088e-08
1.9476e-08
1.27141e-08
1.64455e-08
1.19158e-08
1.36021e-08
1.10195e-08
1.09687e-08
1.00327e-08
8.56747e-09
8.96487e-09
6.41996e-09
7.82757e-09
4.54691e-09
6.63487e-09
2.96851e-09
5.40349e-09
1.70455e-09
4.15302e-09
7.74803e-10
2.90617e-09
1.99484e-10
1.68923e-09
5.32711e-10
2.3426e-10
-7.59212e-10
9.10027e-10
-2.34999e-09
2.00131e-09
-3.98298e-09
3.48284e-09
-5.62757e-09
5.32954e-09
-7.25672e-09
7.51626e-09
-8.84652e-09
1.00175e-08
-1.03758e-08
1.28072e-08
-1.18261e-08
1.58588e-08
-1.31815e-08
1.91452e-08
-1.44287e-08
2.26385e-08
-1.55564e-08
2.63106e-08
-1.65557e-08
3.01327e-08
-1.74195e-08
3.40761e-08
-1.81427e-08
3.81117e-08
-1.87218e-08
4.22107e-08
-1.91548e-08
4.63443e-08
-1.94412e-08
5.04844e-08
-1.95816e-08
5.4603e-08
-1.95778e-08
5.8673e-08
-1.94328e-08
6.26683e-08
-1.91503e-08
6.65633e-08
-1.87349e-08
7.03339e-08
-1.81919e-08
7.39568e-08
-1.75275e-08
7.74103e-08
-1.6748e-08
8.06738e-08
-1.58606e-08
8.37282e-08
-1.48727e-08
8.65559e-08
-1.37922e-08
8.91409e-08
-1.26271e-08
9.14688e-08
-1.1386e-08
9.35266e-08
-1.00773e-08
9.53032e-08
-8.70989e-09
9.67891e-08
-7.29254e-09
9.79766e-08
-5.83421e-09
9.88595e-08
-4.3439e-09
9.94335e-08
-2.83062e-09
9.96959e-08
-1.30335e-09
9.96459e-08
2.28952e-10
9.92841e-08
1.75739e-09
9.8613e-08
3.27316e-09
9.76367e-08
4.76753e-09
9.6361e-08
6.23192e-09
9.47933e-08
7.65786e-09
9.29425e-08
9.03705e-09
9.08191e-08
1.03613e-08
8.84352e-08
1.16228e-08
8.58044e-08
1.28136e-08
8.29416e-08
1.39263e-08
7.98632e-08
1.49535e-08
7.65869e-08
1.58883e-08
7.31316e-08
1.6724e-08
6.95176e-08
1.74541e-08
6.57661e-08
1.80726e-08
6.18997e-08
1.8574e-08
5.79416e-08
1.89531e-08
5.39161e-08
1.92053e-08
4.98484e-08
1.93265e-08
4.57643e-08
1.93134e-08
4.169e-08
1.91633e-08
3.76524e-08
1.88745e-08
3.36788e-08
1.8446e-08
2.97966e-08
1.78781e-08
2.60333e-08
1.71721e-08
2.24166e-08
1.63309e-08
1.89737e-08
1.53586e-08
1.57322e-08
1.42611e-08
1.27189e-08
1.30461e-08
9.96049e-09
1.17232e-08
7.48353e-09
1.03046e-08
5.31412e-09
8.80428e-09
3.47834e-09
7.23928e-09
2.00226e-09
5.62911e-09
9.12293e-10
3.99615e-09
2.35477e-10
2.36605e-09
7.68185e-10
2.68863e-10
-1.02807e-09
1.0433e-09
-3.12443e-09
2.29172e-09
-5.2314e-09
3.98287e-09
-7.31873e-09
6.08569e-09
-9.35955e-09
8.56907e-09
-1.13299e-08
1.14018e-08
-1.32085e-08
1.45523e-08
-1.49766e-08
1.79888e-08
-1.66181e-08
2.16793e-08
-1.81192e-08
2.55916e-08
-1.94687e-08
2.96933e-08
-2.06573e-08
3.39518e-08
-2.16781e-08
3.83349e-08
-2.25258e-08
4.28103e-08
-2.31972e-08
4.73461e-08
-2.36907e-08
5.19111e-08
-2.40061e-08
5.64743e-08
-2.41448e-08
6.10058e-08
-2.41093e-08
6.54763e-08
-2.39034e-08
6.98578e-08
-2.35318e-08
7.41232e-08
-2.30002e-08
7.82465e-08
-2.23153e-08
8.22035e-08
-2.14844e-08
8.59708e-08
-2.05153e-08
8.95269e-08
-1.94167e-08
9.28517e-08
-1.81975e-08
9.59267e-08
-1.68672e-08
9.87352e-08
-1.54356e-08
1.01262e-07
-1.39127e-08
1.03493e-07
-1.23089e-08
1.05418e-07
-1.06346e-08
1.07026e-07
-8.90063e-09
1.0831e-07
-7.11757e-09
1.09262e-07
-5.29624e-09
1.09879e-07
-3.44745e-09
1.10157e-07
-1.58197e-09
1.10097e-07
2.89448e-10
1.09698e-07
2.15613e-09
1.08964e-07
4.00751e-09
1.07898e-07
5.83312e-09
1.06507e-07
7.62265e-09
1.04799e-07
9.36594e-09
1.02783e-07
1.1053e-08
1.0047e-07
1.26741e-08
9.78735e-08
1.42196e-08
9.50068e-08
1.56803e-08
9.1886e-08
1.7047e-08
8.85284e-08
1.83111e-08
8.49527e-08
1.9464e-08
8.11789e-08
2.04978e-08
7.72283e-08
2.14046e-08
7.31236e-08
2.21773e-08
6.88885e-08
2.28091e-08
6.45479e-08
2.32937e-08
6.01278e-08
2.36255e-08
5.56548e-08
2.37994e-08
5.11568e-08
2.38114e-08
4.66622e-08
2.3658e-08
4.21999e-08
2.33367e-08
3.77998e-08
2.28461e-08
3.34919e-08
2.2186e-08
2.93067e-08
2.13573e-08
2.5275e-08
2.03626e-08
2.14278e-08
1.92058e-08
1.77961e-08
1.78928e-08
1.44112e-08
1.6431e-08
1.13043e-08
1.48301e-08
8.50681e-09
1.31021e-08
6.0501e-09
1.1261e-08
3.96582e-09
9.32356e-09
2.28591e-09
7.30902e-09
1.04276e-09
5.2393e-09
2.69456e-10
3.13935e-09
1.03764e-09
3.02674e-10
-1.33075e-09
1.17378e-09
-3.99554e-09
2.57648e-09
-6.63409e-09
4.47396e-09
-9.21621e-09
6.82943e-09
-1.1715e-08
9.60607e-09
-1.41065e-08
1.2767e-08
-1.63694e-08
1.62752e-08
-1.84849e-08
2.00939e-08
-2.04367e-08
2.41859e-08
-2.22113e-08
2.85146e-08
-2.37973e-08
3.30431e-08
-2.51858e-08
3.7735e-08
-2.637e-08
4.25544e-08
-2.73452e-08
4.74657e-08
-2.81085e-08
5.24339e-08
-2.86589e-08
5.74249e-08
-2.89972e-08
6.24055e-08
-2.91254e-08
6.73432e-08
-2.9047e-08
7.2207e-08
-2.87671e-08
7.69667e-08
-2.82915e-08
8.15938e-08
-2.76273e-08
8.60609e-08
-2.67825e-08
9.03422e-08
-2.57657e-08
9.44135e-08
-2.45867e-08
9.82522e-08
-2.32554e-08
1.01837e-07
-2.17826e-08
1.0515e-07
-2.01795e-08
1.08172e-07
-1.84576e-08
1.10888e-07
-1.66288e-08
1.13284e-07
-1.47053e-08
1.15349e-07
-1.26993e-08
1.17072e-07
-1.06234e-08
1.18444e-07
-8.49022e-09
1.1946e-07
-6.31234e-09
1.20115e-07
-4.10244e-09
1.20406e-07
-1.87317e-09
1.20333e-07
3.62871e-10
1.19896e-07
2.59318e-09
1.19098e-07
4.80537e-09
1.17944e-07
6.98717e-09
1.1644e-07
9.12649e-09
1.14594e-07
1.12114e-08
1.12417e-07
1.32302e-08
1.0992e-07
1.51715e-08
1.07115e-07
1.70239e-08
1.04019e-07
1.87766e-08
1.00647e-07
2.04189e-08
9.70177e-08
2.19405e-08
9.31503e-08
2.33314e-08
8.90658e-08
2.45822e-08
8.47868e-08
2.56836e-08
8.03369e-08
2.66271e-08
7.57413e-08
2.74047e-08
7.10262e-08
2.80087e-08
6.62191e-08
2.84326e-08
6.13484e-08
2.867e-08
5.64439e-08
2.87159e-08
5.15359e-08
2.85659e-08
4.66558e-08
2.82167e-08
4.18359e-08
2.7666e-08
3.71088e-08
2.69129e-08
3.25083e-08
2.59578e-08
2.80682e-08
2.48026e-08
2.38232e-08
2.34508e-08
1.98083e-08
2.19077e-08
1.60588e-08
2.01804e-08
1.26106e-08
1.82783e-08
9.49983e-09
1.62128e-08
6.76302e-09
1.39978e-08
4.43713e-09
1.16494e-08
2.55961e-09
9.18654e-09
1.1684e-09
6.6305e-09
3.02097e-10
4.00566e-09
1.33974e-09
3.36406e-10
-1.66715e-09
1.30388e-09
-4.96301e-09
2.86034e-09
-8.19056e-09
4.96347e-09
-1.13193e-08
7.57081e-09
-1.43224e-08
1.06399e-08
-1.71756e-08
1.41281e-08
-1.98577e-08
1.79932e-08
-2.23499e-08
2.21928e-08
-2.46364e-08
2.66852e-08
-2.67037e-08
3.14287e-08
-2.85408e-08
3.63822e-08
-3.01394e-08
4.15053e-08
-3.14931e-08
4.67582e-08
-3.25981e-08
5.2102e-08
-3.34522e-08
5.74985e-08
-3.40555e-08
6.29108e-08
-3.44095e-08
6.83032e-08
-3.45177e-08
7.3641e-08
-3.43848e-08
7.88909e-08
-3.40171e-08
8.40213e-08
-3.34219e-08
8.90019e-08
-3.26079e-08
9.3804e-08
-3.15846e-08
9.84007e-08
-3.03624e-08
1.02767e-07
-2.89526e-08
1.06878e-07
-2.73672e-08
1.10714e-07
-2.56185e-08
1.14255e-07
-2.37197e-08
1.17481e-07
-2.16842e-08
1.20378e-07
-1.95257e-08
1.22931e-07
-1.72582e-08
1.25128e-07
-1.48962e-08
1.26958e-07
-1.24539e-08
1.28414e-07
-9.94592e-09
1.29488e-07
-7.3868e-09
1.30177e-07
-4.79114e-09
1.30477e-07
-2.17348e-09
1.30388e-07
4.51694e-10
1.29912e-07
3.07e-09
1.2905e-07
5.66717e-09
1.27808e-07
8.22911e-09
1.26192e-07
1.07419e-08
1.24212e-07
1.31918e-08
1.21877e-07
1.55654e-08
1.19199e-07
1.78494e-08
1.16192e-07
2.00308e-08
1.12871e-07
2.20971e-08
1.09254e-07
2.40359e-08
1.05359e-07
2.58354e-08
1.01207e-07
2.74838e-08
9.68189e-08
2.89702e-08
9.22186e-08
3.02839e-08
8.74308e-08
3.14149e-08
8.24818e-08
3.23536e-08
7.73992e-08
3.30913e-08
7.2212e-08
3.36197e-08
6.69505e-08
3.39316e-08
6.16459e-08
3.40205e-08
5.6331e-08
3.38809e-08
5.10393e-08
3.35084e-08
4.58055e-08
3.28998e-08
4.06653e-08
3.20531e-08
3.56552e-08
3.0968e-08
3.08125e-08
2.96453e-08
2.61755e-08
2.80878e-08
2.1783e-08
2.63001e-08
1.76747e-08
2.42887e-08
1.38909e-08
2.20622e-08
1.04724e-08
1.96313e-08
7.46071e-09
1.70094e-08
4.89805e-09
1.42121e-08
2.8271e-09
1.12575e-08
1.29112e-09
8.16647e-09
3.33972e-10
4.96281e-09
1.67372e-09
3.70633e-10
-2.03779e-09
1.43556e-09
-6.02794e-09
3.14718e-09
-9.90218e-09
5.45745e-09
-1.36296e-08
8.31808e-09
-1.7183e-08
1.16808e-08
-2.05383e-08
1.54973e-08
-2.36742e-08
1.97197e-08
-2.65723e-08
2.43005e-08
-2.92172e-08
2.91926e-08
-3.15958e-08
3.43498e-08
-3.3698e-08
3.97265e-08
-3.55161e-08
4.52781e-08
-3.70447e-08
5.0961e-08
-3.8281e-08
5.67329e-08
-3.92241e-08
6.25525e-08
-3.98751e-08
6.83801e-08
-4.02371e-08
7.41774e-08
-4.0315e-08
7.99075e-08
-4.01149e-08
8.55353e-08
-3.96449e-08
9.10274e-08
-3.89139e-08
9.63519e-08
-3.79324e-08
1.01479e-07
-3.67117e-08
1.06381e-07
-3.52641e-08
1.11031e-07
-3.36028e-08
1.15405e-07
-3.17415e-08
1.19482e-07
-2.96948e-08
1.23239e-07
-2.74776e-08
1.26661e-07
-2.51053e-08
1.29729e-07
-2.25938e-08
1.3243e-07
-1.9959e-08
1.34751e-07
-1.72172e-08
1.36682e-07
-1.43849e-08
1.38214e-07
-1.14784e-08
1.39342e-07
-8.51436e-09
1.4006e-07
-5.5093e-09
1.40366e-07
-2.47971e-09
1.4026e-07
5.58008e-10
1.39742e-07
3.58757e-09
1.38817e-07
6.59281e-09
1.37488e-07
9.55778e-09
1.35763e-07
1.24667e-08
1.33651e-07
1.5304e-08
1.31162e-07
1.80544e-08
1.28309e-07
2.07029e-08
1.25105e-07
2.32348e-08
1.21566e-07
2.56356e-08
1.17711e-07
2.78914e-08
1.13558e-07
2.99884e-08
1.09128e-07
3.19136e-08
1.04444e-07
3.36541e-08
9.95303e-08
3.51977e-08
9.44126e-08
3.65327e-08
8.91182e-08
3.7648e-08
8.36761e-08
3.85334e-08
7.81166e-08
3.91792e-08
7.24717e-08
3.95766e-08
6.67744e-08
3.97177e-08
6.10596e-08
3.95958e-08
5.53629e-08
3.9205e-08
4.97217e-08
3.8541e-08
4.41744e-08
3.76005e-08
3.87606e-08
3.63818e-08
3.35209e-08
3.4885e-08
2.84971e-08
3.31115e-08
2.37322e-08
3.10651e-08
1.92698e-08
2.87511e-08
1.51547e-08
2.61772e-08
1.14325e-08
2.33535e-08
8.14962e-09
2.02923e-08
5.35329e-09
1.70084e-08
3.0914e-09
1.35194e-08
1.41247e-09
9.8454e-09
3.65524e-10
6.00975e-09
2.03924e-09
4.05787e-10
-2.44357e-09
1.57028e-09
-7.19243e-09
3.43983e-09
-1.17717e-08
5.96022e-09
-1.615e-08
9.077e-09
-2.02998e-08
1.27358e-08
-2.4197e-08
1.68824e-08
-2.78208e-08
2.14632e-08
-3.11531e-08
2.64252e-08
-3.41792e-08
3.17162e-08
-3.68868e-08
3.7285e-08
-3.92668e-08
4.30817e-08
-4.13127e-08
4.90573e-08
-4.30204e-08
5.51647e-08
-4.43884e-08
6.13579e-08
-4.54173e-08
6.75928e-08
-4.61099e-08
7.38267e-08
-4.6471e-08
8.00189e-08
-4.65072e-08
8.61306e-08
-4.62266e-08
9.21247e-08
-4.5639e-08
9.79662e-08
-4.47554e-08
1.03622e-07
-4.35883e-08
1.09061e-07
-4.21509e-08
1.14255e-07
-4.04577e-08
1.19176e-07
-3.85239e-08
1.238e-07
-3.63654e-08
1.28104e-07
-3.39987e-08
1.32067e-07
-3.1441e-08
1.35672e-07
-2.87096e-08
1.389e-07
-2.58225e-08
1.41739e-07
-2.27978e-08
1.44176e-07
-1.96536e-08
1.46199e-07
-1.64086e-08
1.47802e-07
-1.30811e-08
1.48978e-07
-9.68973e-09
1.49721e-07
-6.25296e-09
1.50031e-07
-2.78924e-09
1.49906e-07
6.83101e-10
1.49348e-07
4.14584e-09
1.48359e-07
7.58095e-09
1.46947e-07
1.09706e-08
1.45116e-07
1.4297e-08
1.42877e-07
1.7543e-08
1.40241e-07
2.06913e-08
1.37218e-07
2.37251e-08
1.33825e-07
2.66279e-08
1.30077e-07
2.93835e-08
1.25993e-07
3.1976e-08
1.21591e-07
3.43901e-08
1.16894e-07
3.66107e-08
1.11925e-07
3.86234e-08
1.06708e-07
4.04143e-08
1.01271e-07
4.19699e-08
9.56419e-08
4.32774e-08
8.98505e-08
4.43248e-08
8.39288e-08
4.51009e-08
7.79101e-08
4.55953e-08
7.18294e-08
4.57984e-08
6.57235e-08
4.57018e-08
5.96303e-08
4.52982e-08
5.35895e-08
4.45817e-08
4.76424e-08
4.35476e-08
4.18316e-08
4.21927e-08
3.6201e-08
4.05156e-08
3.07961e-08
3.85165e-08
2.56636e-08
3.61976e-08
2.08514e-08
3.35632e-08
1.64088e-08
3.06199e-08
1.2386e-08
2.73763e-08
8.83444e-09
2.38439e-08
5.80629e-09
2.00366e-08
3.35472e-09
1.5971e-08
1.53354e-09
1.16666e-08
3.97076e-10
7.14621e-09
2.43631e-09
4.42144e-10
-2.88571e-09
1.70893e-09
-8.45922e-09
3.73991e-09
-1.38027e-08
6.47408e-09
-1.88842e-08
9.85034e-09
-2.3676e-08
1.38078e-08
-2.81545e-08
1.82861e-08
-3.22991e-08
2.32255e-08
-3.60926e-08
2.85675e-08
-3.95211e-08
3.42546e-08
-4.25738e-08
4.02306e-08
-4.52428e-08
4.6441e-08
-4.75231e-08
5.2833e-08
-4.94124e-08
5.93554e-08
-5.09108e-08
6.5959e-08
-5.20209e-08
7.25966e-08
-5.27476e-08
7.92231e-08
-5.30976e-08
8.57955e-08
-5.30796e-08
9.22729e-08
-5.2704e-08
9.86168e-08
-5.19828e-08
1.04791e-07
-5.09292e-08
1.1076e-07
-4.9558e-08
1.16494e-07
-4.78846e-08
1.21962e-07
-4.59257e-08
1.27137e-07
-4.36989e-08
1.31994e-07
-4.12222e-08
1.36509e-07
-3.85144e-08
1.40663e-07
-3.55947e-08
1.44436e-07
-3.24829e-08
1.47813e-07
-2.91989e-08
1.50778e-07
-2.57629e-08
1.53319e-07
-2.21953e-08
1.55427e-07
-1.85165e-08
1.57093e-07
-1.47471e-08
1.58311e-07
-1.09077e-08
1.59077e-07
-7.01859e-09
1.59388e-07
-3.10029e-09
1.59244e-07
8.26994e-10
1.58647e-07
4.74313e-09
1.576e-07
8.62821e-09
1.56108e-07
1.24625e-08
1.54178e-07
1.62265e-08
1.5182e-07
1.99009e-08
1.49045e-07
2.34668e-08
1.45865e-07
2.69056e-08
1.42294e-07
3.01987e-08
1.38349e-07
3.33283e-08
1.34048e-07
3.62766e-08
1.29412e-07
3.90264e-08
1.24462e-07
4.1561e-08
1.19221e-07
4.38638e-08
1.13717e-07
4.59192e-08
1.07975e-07
4.77119e-08
1.02025e-07
4.92272e-08
9.58984e-08
5.04514e-08
8.96282e-08
5.13712e-08
8.32491e-08
5.19744e-08
7.67978e-08
5.22497e-08
7.03127e-08
5.21869e-08
6.38342e-08
5.17768e-08
5.74043e-08
5.10116e-08
5.10669e-08
4.9885e-08
4.48677e-08
4.8392e-08
3.88539e-08
4.65294e-08
3.30745e-08
4.42959e-08
2.75802e-08
4.1692e-08
2.2423e-08
3.87204e-08
1.76567e-08
3.53862e-08
1.33362e-08
3.16968e-08
9.51788e-09
2.76623e-08
6.25913e-09
2.32953e-08
3.61843e-09
1.86117e-08
1.65503e-09
1.363e-08
4.28826e-10
8.37242e-09
2.86513e-09
4.79818e-10
-3.36553e-09
1.85178e-09
-9.83118e-09
4.04771e-09
-1.59986e-08
6.99907e-09
-2.18355e-08
1.06375e-08
-2.73144e-08
1.48951e-08
-3.24121e-08
1.97048e-08
-3.71088e-08
2.50007e-08
-4.13886e-08
3.07185e-08
-4.52389e-08
3.67951e-08
-4.86505e-08
4.31695e-08
-5.16173e-08
4.97828e-08
-5.41363e-08
5.65778e-08
-5.62074e-08
6.34999e-08
-5.78329e-08
7.04966e-08
-5.90177e-08
7.75181e-08
-5.97691e-08
8.45168e-08
-6.00962e-08
9.14477e-08
-6.00104e-08
9.82682e-08
-5.95245e-08
1.04938e-07
-5.86529e-08
1.11421e-07
-5.74115e-08
1.1768e-07
-5.58175e-08
1.23684e-07
-5.38888e-08
1.29403e-07
-5.16446e-08
1.34809e-07
-4.91048e-08
1.39877e-07
-4.62899e-08
1.44583e-07
-4.32209e-08
1.48908e-07
-3.99195e-08
1.52833e-07
-3.64075e-08
1.56341e-07
-3.2707e-08
1.59418e-07
-2.88404e-08
1.62053e-07
-2.48302e-08
1.64236e-07
-2.06989e-08
1.65958e-07
-1.6469e-08
1.67213e-07
-1.21631e-08
1.67998e-07
-7.80343e-09
1.6831e-07
-3.41241e-09
1.68149e-07
9.87831e-10
1.67517e-07
5.37533e-09
1.66417e-07
9.7283e-09
1.64854e-07
1.40252e-08
1.62836e-07
1.82446e-08
1.60371e-07
2.23656e-08
1.57471e-07
2.63672e-08
1.54148e-07
3.02289e-08
1.50416e-07
3.39306e-08
1.46292e-07
3.74524e-08
1.41794e-07
4.07746e-08
1.36942e-07
4.38781e-08
1.31758e-07
4.67443e-08
1.26267e-07
4.93548e-08
1.20495e-07
5.16918e-08
1.14468e-07
5.37382e-08
1.08218e-07
5.54773e-08
1.01777e-07
5.68931e-08
9.51771e-08
5.79706e-08
8.84561e-08
5.86954e-08
8.16517e-08
5.90541e-08
7.48041e-08
5.90345e-08
6.79557e-08
5.86252e-08
6.1151e-08
5.78164e-08
5.44363e-08
5.65996e-08
4.78603e-08
5.4968e-08
4.14736e-08
5.29162e-08
3.53286e-08
5.04409e-08
2.94798e-08
4.75407e-08
2.39837e-08
4.42166e-08
1.88983e-08
4.04716e-08
1.42835e-08
3.63116e-08
1.02007e-08
3.17451e-08
6.71251e-09
2.67835e-08
3.88306e-09
2.14411e-08
1.77727e-09
1.57358e-08
4.60877e-10
9.68882e-09
3.32601e-09
5.18749e-10
-3.88428e-09
1.99842e-09
-1.13108e-08
4.36203e-09
-1.83622e-08
7.53264e-09
-2.50061e-08
1.14338e-08
-3.12156e-08
1.59902e-08
-3.69684e-08
2.11277e-08
-4.22462e-08
2.67738e-08
-4.70346e-08
3.28579e-08
-5.1323e-08
3.93118e-08
-5.51044e-08
4.60695e-08
-5.83749e-08
5.30673e-08
-6.11342e-08
6.02444e-08
-6.33845e-08
6.75427e-08
-6.51312e-08
7.49069e-08
-6.63819e-08
8.22845e-08
-6.71467e-08
8.96258e-08
-6.74376e-08
9.68843e-08
-6.72689e-08
1.04016e-07
-6.66563e-08
1.1098e-07
-6.5617e-08
1.17738e-07
-6.41698e-08
1.24255e-07
-6.23344e-08
1.30498e-07
-6.01317e-08
1.36437e-07
-5.75834e-08
1.42044e-07
-5.4712e-08
1.47295e-07
-5.15404e-08
1.52166e-07
-4.80921e-08
1.56637e-07
-4.43911e-08
1.60691e-07
-4.04614e-08
1.64312e-07
-3.63275e-08
1.67485e-07
-3.20137e-08
1.70199e-07
-2.75447e-08
1.72445e-07
-2.2945e-08
1.74215e-07
-1.8239e-08
1.75503e-07
-1.34512e-08
1.76306e-07
-8.60586e-09
1.7662e-07
-3.72709e-09
1.76447e-07
1.16113e-09
1.75787e-07
6.03502e-09
1.74645e-07
1.0871e-08
1.73024e-07
1.56458e-08
1.70933e-07
2.03361e-08
1.68379e-07
2.49192e-08
1.65373e-07
2.93725e-08
1.61929e-07
3.36735e-08
1.58059e-07
3.78002e-08
1.53781e-07
4.17308e-08
1.49112e-07
4.54438e-08
1.44071e-07
4.89182e-08
1.38682e-07
5.21332e-08
1.32969e-07
5.50684e-08
1.26956e-07
5.77041e-08
1.20674e-07
6.00209e-08
1.14151e-07
6.19999e-08
1.07421e-07
6.36231e-08
1.00519e-07
6.4873e-08
9.34808e-08
6.57331e-08
8.63473e-08
6.61876e-08
7.916e-08
6.62218e-08
7.19629e-08
6.58222e-08
6.48028e-08
6.49765e-08
5.77287e-08
6.36738e-08
5.07919e-08
6.19048e-08
4.40461e-08
5.96619e-08
3.75476e-08
5.69394e-08
3.13547e-08
5.37336e-08
2.55279e-08
5.00433e-08
2.01299e-08
4.58695e-08
1.52256e-08
4.12159e-08
1.08815e-08
3.60892e-08
7.16581e-09
3.04991e-08
4.14839e-09
2.44585e-08
1.90022e-09
1.7984e-08
4.9324e-10
1.10958e-08
3.81926e-09
5.58677e-10
-4.44295e-09
2.14765e-09
-1.28998e-08
4.67997e-09
-2.08945e-08
8.06928e-09
-2.83954e-08
1.22304e-08
-3.53768e-08
1.70797e-08
-4.18178e-08
2.25357e-08
-4.77022e-08
2.8519e-08
-5.30179e-08
3.49529e-08
-5.7757e-08
4.17635e-08
-6.1915e-08
4.88799e-08
-6.54913e-08
5.62343e-08
-6.84886e-08
6.37622e-08
-7.09124e-08
7.14024e-08
-7.27714e-08
7.90969e-08