/*--------------------------------*- C++ -*----------------------------------*\
  =========                 |
  \\      /  F ield         | OpenFOAM: The Open Source CFD Toolbox
   \\    /   O peration     | Website:  https://openfoam.org
    \\  /    A nd           | Version:  12
     \\/     M anipulation  |
\*---------------------------------------------------------------------------*/
FoamFile
{
    format      ascii;
    class       volVectorField;
    location    "8";
    object      U;
}
// * * * * * * * * * * * * * * * * * * * * * * * * * * * * * * * * * * * * * //

dimensions      [0 1 -1 0 0 0 0];

internalField   nonuniform List<vector> 
5625
(
(-5.35266e-07 1.19602e-06 0)
(-2.19956e-06 1.97591e-06 0)
(-3.83529e-06 1.94883e-06 0)
(-4.71657e-06 1.53758e-06 0)
(-4.26016e-06 9.58783e-07 0)
(-2.18612e-06 3.15513e-07 0)
(1.61485e-06 -3.35223e-07 0)
(7.15437e-06 -9.60479e-07 0)
(1.43802e-05 -1.54133e-06 0)
(2.31979e-05 -2.06801e-06 0)
(3.34841e-05 -2.53629e-06 0)
(4.50971e-05 -2.94511e-06 0)
(5.78835e-05 -3.29516e-06 0)
(7.16837e-05 -3.58811e-06 0)
(8.63353e-05 -3.82619e-06 0)
(0.000101675 -4.01186e-06 0)
(0.000117542 -4.1477e-06 0)
(0.000133779 -4.23631e-06 0)
(0.000150229 -4.28029e-06 0)
(0.000166746 -4.28222e-06 0)
(0.000183184 -4.24463e-06 0)
(0.000199406 -4.17005e-06 0)
(0.000215283 -4.06098e-06 0)
(0.000230691 -3.91987e-06 0)
(0.000245514 -3.7492e-06 0)
(0.000259643 -3.55138e-06 0)
(0.000272979 -3.32885e-06 0)
(0.000285431 -3.08397e-06 0)
(0.000296914 -2.81914e-06 0)
(0.000307354 -2.53669e-06 0)
(0.000316684 -2.23892e-06 0)
(0.000324846 -1.92812e-06 0)
(0.000331791 -1.60653e-06 0)
(0.000337478 -1.27635e-06 0)
(0.000341875 -9.39738e-07 0)
(0.000344957 -5.98805e-07 0)
(0.00034671 -2.55633e-07 0)
(0.000347126 8.778e-08 0)
(0.000346207 4.29323e-07 0)
(0.000343959 7.6727e-07 0)
(0.000340402 1.09961e-06 0)
(0.000335559 1.42446e-06 0)
(0.000329463 1.73999e-06 0)
(0.000322153 2.0444e-06 0)
(0.000313677 2.33589e-06 0)
(0.00030409 2.6127e-06 0)
(0.000293453 2.87306e-06 0)
(0.000281836 3.11518e-06 0)
(0.000269315 3.33728e-06 0)
(0.000255972 3.53756e-06 0)
(0.000241897 3.71416e-06 0)
(0.000227188 3.86519e-06 0)
(0.000211946 3.98872e-06 0)
(0.000196282 4.08272e-06 0)
(0.000180312 4.14509e-06 0)
(0.000164159 4.17363e-06 0)
(0.00014795 4.16603e-06 0)
(0.000131821 4.11986e-06 0)
(0.000115911 4.03256e-06 0)
(0.000100365 3.90141e-06 0)
(8.5332e-05 3.72362e-06 0)
(7.0966e-05 3.49628e-06 0)
(5.74225e-05 3.21649e-06 0)
(4.48581e-05 2.88152e-06 0)
(3.34279e-05 2.48905e-06 0)
(2.32826e-05 2.03769e-06 0)
(1.45633e-05 1.5277e-06 0)
(7.39425e-06 9.624e-07 0)
(1.87206e-06 3.51014e-07 0)
(-1.94311e-06 -2.88004e-07 0)
(-4.05558e-06 -9.24168e-07 0)
(-4.56847e-06 -1.50072e-06 0)
(-3.74863e-06 -1.91442e-06 0)
(-2.16454e-06 -1.95015e-06 0)
(-5.31072e-07 -1.18539e-06 0)
(-3.28158e-07 3.55841e-06 0)
(-9.93407e-07 5.27858e-06 0)
(-2.20957e-07 3.31415e-06 0)
(2.98601e-06 -9.29243e-07 0)
(9.40518e-06 -6.50787e-06 0)
(1.9492e-05 -1.27833e-05 0)
(3.34616e-05 -1.9316e-05 0)
(5.13588e-05 -2.58031e-05 0)
(7.3102e-05 -3.20366e-05 0)
(9.85144e-05 -3.78754e-05 0)
(0.000127349 -4.32246e-05 0)
(0.000159306 -4.80223e-05 0)
(0.000194051 -5.22298e-05 0)
(0.000231222 -5.58251e-05 0)
(0.000270443 -5.87986e-05 0)
(0.000311328 -6.11496e-05 0)
(0.000353489 -6.28845e-05 0)
(0.000396537 -6.40151e-05 0)
(0.000440089 -6.45573e-05 0)
(0.000483773 -6.45305e-05 0)
(0.000527224 -6.39571e-05 0)
(0.000570093 -6.28614e-05 0)
(0.000612044 -6.12701e-05 0)
(0.000652758 -5.92112e-05 0)
(0.000691934 -5.67142e-05 0)
(0.00072929 -5.38095e-05 0)
(0.000764563 -5.05288e-05 0)
(0.000797512 -4.69041e-05 0)
(0.000827915 -4.29682e-05 0)
(0.000855573 -3.87542e-05 0)
(0.000880309 -3.42954e-05 0)
(0.000901966 -2.96253e-05 0)
(0.000920413 -2.47774e-05 0)
(0.000935539 -1.97851e-05 0)
(0.000947256 -1.46817e-05 0)
(0.000955497 -9.50014e-06 0)
(0.00096022 -4.27303e-06 0)
(0.000961402 9.67293e-07 0)
(0.000959044 6.18897e-06 0)
(0.000953169 1.13606e-05 0)
(0.000943818 1.64511e-05 0)
(0.000931057 2.143e-05 0)
(0.00091497 2.62673e-05 0)
(0.000895664 3.09333e-05 0)
(0.000873262 3.53989e-05 0)
(0.000847911 3.96356e-05 0)
(0.000819774 4.36151e-05 0)
(0.000789036 4.73095e-05 0)
(0.000755898 5.06916e-05 0)
(0.00072058 5.37343e-05 0)
(0.000683321 5.64113e-05 0)
(0.000644374 5.86963e-05 0)
(0.000604012 6.05639e-05 0)
(0.000562522 6.1989e-05 0)
(0.000520208 6.29474e-05 0)
(0.000477387 6.34155e-05 0)
(0.000434389 6.33708e-05 0)
(0.000391558 6.27924e-05 0)
(0.000349247 6.16607e-05 0)
(0.000307818 5.99587e-05 0)
(0.000267639 5.76727e-05 0)
(0.00022908 5.47931e-05 0)
(0.000192512 5.13163e-05 0)
(0.000158299 4.72466e-05 0)
(0.00012679 4.26002e-05 0)
(9.83155e-05 3.7409e-05 0)
(7.31713e-05 3.17277e-05 0)
(5.16068e-05 2.56434e-05 0)
(3.38046e-05 1.92899e-05 0)
(1.98572e-05 1.28679e-05 0)
(9.73416e-06 6.67175e-06 0)
(3.23868e-06 1.13493e-06 0)
(-6.32734e-08 -3.10898e-06 0)
(-9.24358e-07 -5.11983e-06 0)
(-3.1959e-07 -3.49155e-06 0)
(-9.86031e-09 3.35448e-06 0)
(2.12181e-06 1.71147e-06 0)
(7.84543e-06 -5.96918e-06 0)
(1.79806e-05 -1.76264e-05 0)
(3.30527e-05 -3.17491e-05 0)
(5.34025e-05 -4.7225e-05 0)
(7.91928e-05 -6.32248e-05 0)
(0.000110424 -7.91302e-05 0)
(0.00014696 -9.44835e-05 0)
(0.000188554 -0.000108948 0)
(0.00023487 -0.000122281 0)
(0.000285506 -0.000134306 0)
(0.000340003 -0.000144904 0)
(0.000397866 -0.000153994 0)
(0.000458568 -0.000161531 0)
(0.00052157 -0.000167491 0)
(0.000586317 -0.000171875 0)
(0.000652257 -0.000174697 0)
(0.000718838 -0.000175986 0)
(0.000785517 -0.000175783 0)
(0.000851765 -0.000174138 0)
(0.000917067 -0.000171107 0)
(0.00098093 -0.000166754 0)
(0.00104288 -0.000161151 0)
(0.00110248 -0.00015437 0)
(0.00115929 -0.00014649 0)
(0.00121294 -0.000137592 0)
(0.00126305 -0.000127762 0)
(0.00130929 -0.000117084 0)
(0.00135137 -0.000105648 0)
(0.00138901 -9.35412e-05 0)
(0.00142198 -8.08545e-05 0)
(0.00145008 -6.76778e-05 0)
(0.00147313 -5.41016e-05 0)
(0.00149101 -4.0216e-05 0)
(0.00150361 -2.61109e-05 0)
(0.00151087 -1.18754e-05 0)
(0.00151274 2.40205e-06 0)
(0.00150924 1.6634e-05 0)
(0.00150038 3.07341e-05 0)
(0.00148624 4.46171e-05 0)
(0.0014669 5.81989e-05 0)
(0.0014425 7.13969e-05 0)
(0.0014132 8.41297e-05 0)
(0.00137918 9.63172e-05 0)
(0.00134067 0.000107881 0)
(0.00129791 0.000118744 0)
(0.00125117 0.00012883 0)
(0.00120077 0.000138066 0)
(0.00114703 0.00014638 0)
(0.00109031 0.0001537 0)
(0.001031 0.000159958 0)
(0.000969502 0.000165088 0)
(0.000906242 0.000169027 0)
(0.000841675 0.000171714 0)
(0.00077627 0.000173091 0)
(0.000710515 0.000173108 0)
(0.000644912 0.000171716 0)
(0.000579977 0.000168877 0)
(0.000516234 0.000164558 0)
(0.00045421 0.000158739 0)
(0.000394432 0.000151415 0)
(0.000337421 0.000142596 0)
(0.000283682 0.000132318 0)
(0.000233699 0.000120646 0)
(0.000187917 0.000107685 0)
(0.000146738 9.35925e-05 0)
(0.000110498 7.85951e-05 0)
(7.94485e-05 6.30112e-05 0)
(5.37394e-05 4.72813e-05 0)
(3.33877e-05 3.20072e-05 0)
(1.82531e-05 1.8004e-05 0)
(8.02193e-06 6.37179e-06 0)
(2.20142e-06 -1.38594e-06 0)
(-1.09377e-10 -3.21123e-06 0)
(3.2028e-07 -2.64151e-07 0)
(5.66313e-06 -1.0717e-05 0)
(1.70801e-05 -2.85463e-05 0)
(3.51094e-05 -5.13786e-05 0)
(5.98654e-05 -7.73658e-05 0)
(9.14342e-05 -0.000105063 0)
(0.000129812 -0.000133331 0)
(0.000174869 -0.000161275 0)
(0.000226359 -0.000188199 0)
(0.000283932 -0.000213566 0)
(0.000347155 -0.000236967 0)
(0.000415521 -0.000258096 0)
(0.000488468 -0.00027673 0)
(0.00056539 -0.000292714 0)
(0.000645645 -0.000305946 0)
(0.000728572 -0.000316371 0)
(0.000813494 -0.000323971 0)
(0.000899729 -0.000328759 0)
(0.000986597 -0.000330775 0)
(0.00107343 -0.00033008 0)
(0.00115956 -0.000326754 0)
(0.00124436 -0.000320893 0)
(0.0013272 -0.000312608 0)
(0.00140749 -0.00030202 0)
(0.00148468 -0.000289261 0)
(0.00155823 -0.00027447 0)
(0.00162765 -0.000257794 0)
(0.00169248 -0.000239386 0)
(0.00175229 -0.000219402 0)
(0.00180671 -0.000198004 0)
(0.0018554 -0.000175355 0)
(0.00189804 -0.00015162 0)
(0.00193439 -0.000126966 0)
(0.00196423 -0.000101561 0)
(0.00198738 -7.55726e-05 0)
(0.00200372 -4.91678e-05 0)
(0.00201316 -2.2513e-05 0)
(0.00201564 4.22668e-06 0)
(0.00201118 3.08875e-05 0)
(0.0019998 5.73078e-05 0)
(0.00198158 8.33278e-05 0)
(0.00195666 0.00010879 0)
(0.00192518 0.000133539 0)
(0.00188736 0.000157423 0)
(0.00184342 0.000180292 0)
(0.00179366 0.000201999 0)
(0.00173838 0.0002224 0)
(0.00167794 0.000241356 0)
(0.00161272 0.000258729 0)
(0.00154315 0.000274385 0)
(0.00146968 0.000288197 0)
(0.00139279 0.000300039 0)
(0.001313 0.000309794 0)
(0.00123085 0.000317347 0)
(0.00114691 0.000322595 0)
(0.00106177 0.000325438 0)
(0.000976029 0.00032579 0)
(0.000890328 0.000323576 0)
(0.0008053 0.000318735 0)
(0.000721594 0.000311224 0)
(0.000639858 0.000301022 0)
(0.000560739 0.000288135 0)
(0.000484874 0.000272602 0)
(0.00041288 0.000254503 0)
(0.000345345 0.00023397 0)
(0.000282819 0.000211201 0)
(0.000225799 0.000186472 0)
(0.000174719 0.000160162 0)
(0.000129934 0.000132779 0)
(9.17037e-05 0.000104989 0)
(6.01764e-05 7.76583e-05 0)
(3.53813e-05 5.19022e-05 0)
(1.72641e-05 2.91448e-05 0)
(5.74868e-06 1.12194e-05 0)
(3.30917e-07 4.91757e-07 0)
(6.15215e-07 -7.40809e-06 0)
(9.10991e-06 -3.24556e-05 0)
(2.62472e-05 -6.51893e-05 0)
(5.22942e-05 -0.000103153 0)
(8.69286e-05 -0.000144342 0)
(0.000129931 -0.000187116 0)
(0.000181074 -0.00023013 0)
(0.000240047 -0.000272283 0)
(0.000306443 -0.000312689 0)
(0.000379779 -0.000350639 0)
(0.000459497 -0.000385575 0)
(0.000544977 -0.000417066 0)
(0.000635549 -0.000444787 0)
(0.000730497 -0.000468505 0)
(0.000829076 -0.00048806 0)
(0.000930518 -0.000503359 0)
(0.00103404 -0.000514362 0)
(0.00113886 -0.00052108 0)
(0.00124419 -0.000523559 0)
(0.00134925 -0.000521884 0)
(0.00145328 -0.000516168 0)
(0.00155554 -0.000506552 0)
(0.00165532 -0.000493195 0)
(0.00175193 -0.000476279 0)
(0.00184471 -0.000456002 0)
(0.00193306 -0.000432574 0)
(0.00201638 -0.000406219 0)
(0.00209416 -0.000377168 0)
(0.00216589 -0.000345664 0)
(0.00223112 -0.000311953 0)
(0.00228947 -0.000276288 0)
(0.00234057 -0.000238925 0)
(0.00238413 -0.000200122 0)
(0.00241988 -0.00016014 0)
(0.00244763 -0.000119241 0)
(0.00246722 -7.76833e-05 0)
(0.00247855 -3.57285e-05 0)
(0.00248156 6.36561e-06 0)
(0.00247625 4.83431e-05 0)
(0.00246265 8.99505e-05 0)
(0.00244088 0.000130938 0)
(0.00241106 0.000171057 0)
(0.00237339 0.000210067 0)
(0.0023281 0.000247728 0)
(0.00227547 0.000283805 0)
(0.00221584 0.00031807 0)
(0.00214956 0.000350298 0)
(0.00207706 0.000380271 0)
(0.00199879 0.000407776 0)
(0.00191524 0.000432607 0)
(0.00182693 0.000454568 0)
(0.00173444 0.000473467 0)
(0.00163837 0.000489125 0)
(0.00153935 0.000501372 0)
(0.00143804 0.00051005 0)
(0.00133512 0.000515019 0)
(0.0012313 0.000516152 0)
(0.00112731 0.000513343 0)
(0.00102389 0.000506512 0)
(0.000921779 0.000495606 0)
(0.000821737 0.000480605 0)
(0.000724506 0.000461531 0)
(0.000630824 0.000438454 0)
(0.000541408 0.000411505 0)
(0.00045695 0.000380883 0)
(0.000378102 0.000346875 0)
(0.000305474 0.00030987 0)
(0.000239619 0.000270382 0)
(0.000181026 0.000229076 0)
(0.00013011 0.000186795 0)
(8.72041e-05 0.000144595 0)
(5.25624e-05 0.000103786 0)
(2.644e-05 6.59751e-05 0)
(9.2039e-06 3.31417e-05 0)
(6.27792e-07 7.72757e-06 0)
(8.7548e-07 -1.78352e-05 0)
(1.23209e-05 -6.31152e-05 0)
(3.49355e-05 -0.000115552 0)
(6.87626e-05 -0.000172715 0)
(0.000113073 -0.00023255 0)
(0.000167341 -0.00029332 0)
(0.000231099 -0.000353551 0)
(0.000303826 -0.000412006 0)
(0.000384934 -0.000467661 0)
(0.000473776 -0.000519673 0)
(0.000569651 -0.000567365 0)
(0.000671807 -0.000610203 0)
(0.000779453 -0.000647773 0)
(0.000891762 -0.000679773 0)
(0.00100788 -0.000705994 0)
(0.00112694 -0.000726307 0)
(0.00124806 -0.000740658 0)
(0.00137035 -0.000749052 0)
(0.00149294 -0.000751551 0)
(0.00161497 -0.000748265 0)
(0.00173557 -0.000739344 0)
(0.00185394 -0.000724977 0)
(0.00196927 -0.000705381 0)
(0.00208079 -0.000680805 0)
(0.00218779 -0.000651518 0)
(0.00228957 -0.000617812 0)
(0.00238549 -0.000579996 0)
(0.00247495 -0.000538391 0)
(0.00255741 -0.000493334 0)
(0.00263237 -0.000445169 0)
(0.00269938 -0.00039425 0)
(0.00275804 -0.000340934 0)
(0.00280803 -0.000285585 0)
(0.00284905 -0.000228568 0)
(0.00288088 -0.000170251 0)
(0.00290334 -0.000111 0)
(0.00291632 -5.11828e-05 0)
(0.00291975 8.83738e-06 0)
(0.00291364 6.86986e-05 0)
(0.00289803 0.000128043 0)
(0.00287303 0.000186516 0)
(0.0028388 0.00024377 0)
(0.00279554 0.000299461 0)
(0.00274352 0.000353251 0)
(0.00268305 0.00040481 0)
(0.00261451 0.000453815 0)
(0.0025383 0.000499948 0)
(0.00245489 0.000542904 0)
(0.00236479 0.000582384 0)
(0.00226854 0.000618102 0)
(0.00216673 0.000649779 0)
(0.00206001 0.000677155 0)
(0.00194904 0.000699978 0)
(0.00183452 0.000718018 0)
(0.00171719 0.00073106 0)
(0.00159782 0.000738911 0)
(0.0014772 0.000741405 0)
(0.00135613 0.000738403 0)
(0.00123544 0.000729799 0)
(0.00111597 0.000715528 0)
(0.000998549 0.000695571 0)
(0.000884028 0.000669962 0)
(0.000773237 0.000638799 0)
(0.000666993 0.000602253 0)
(0.000566095 0.000560583 0)
(0.000471311 0.000514151 0)
(0.000383375 0.000463434 0)
(0.000302982 0.000409053 0)
(0.000230779 0.000351785 0)
(0.000167362 0.000292596 0)
(0.000113273 0.000232664 0)
(6.90072e-05 0.000173405 0)
(3.51304e-05 0.000116509 0)
(1.24228e-05 6.39923e-05 0)
(8.90528e-07 1.82571e-05 0)
(1.10712e-06 -3.12803e-05 0)
(1.52968e-05 -0.000102151 0)
(4.30941e-05 -0.000178987 0)
(8.43664e-05 -0.000259418 0)
(0.000138022 -0.000341393 0)
(0.000203248 -0.000423132 0)
(0.000279339 -0.000503092 0)
(0.000365559 -0.000579951 0)
(0.000461123 -0.00065259 0)
(0.000565208 -0.000720076 0)
(0.000676951 -0.000781643 0)
(0.000795457 -0.000836679 0)
(0.000919801 -0.000884707 0)
(0.00104903 -0.000925371 0)
(0.00118219 -0.000958427 0)
(0.0013183 -0.000983723 0)
(0.00145637 -0.0010012 0)
(0.00159544 -0.00101086 0)
(0.00173453 -0.0010128 0)
(0.0018727 -0.00100716 0)
(0.00200902 -0.000994129 0)
(0.00214258 -0.000973951 0)
(0.00227253 -0.000946912 0)
(0.00239803 -0.000913332 0)
(0.0025183 -0.000873562 0)
(0.00263257 -0.000827983 0)
(0.00274017 -0.000776995 0)
(0.00284044 -0.000721021 0)
(0.00293279 -0.000660501 0)
(0.00301668 -0.000595885 0)
(0.00309162 -0.000527636 0)
(0.00315719 -0.000456226 0)
(0.00321303 -0.000382131 0)
(0.00325882 -0.000305834 0)
(0.00329433 -0.000227817 0)
(0.00331936 -0.000148564 0)
(0.00333379 -6.85592e-05 0)
(0.00333755 1.17172e-05 0)
(0.00333065 9.17875e-05 0)
(0.00331312 0.000171179 0)
(0.0032851 0.000249423 0)
(0.00324675 0.00032606 0)
(0.0031983 0.000400635 0)
(0.00314004 0.000472703 0)
(0.00307231 0.000541826 0)
(0.00299551 0.000607578 0)
(0.00291009 0.000669542 0)
(0.00281655 0.000727315 0)
(0.00271544 0.000780503 0)
(0.00260737 0.00082873 0)
(0.00249297 0.000871635 0)
(0.00237293 0.000908872 0)
(0.00224798 0.000940119 0)
(0.00211889 0.000965072 0)
(0.00198646 0.000983456 0)
(0.00185152 0.000995022 0)
(0.00171494 0.000999555 0)
(0.00157759 0.000996877 0)
(0.00144038 0.000986855 0)
(0.00130423 0.000969404 0)
(0.00117007 0.000944496 0)
(0.00103883 0.000912168 0)
(0.000911438 0.000872536 0)
(0.000788819 0.000825798 0)
(0.000671886 0.000772254 0)
(0.000561532 0.000712316 0)
(0.000458629 0.000646527 0)
(0.000364025 0.000575574 0)
(0.00027854 0.000500309 0)
(0.000202964 0.000421771 0)
(0.000138048 0.0003412 0)
(8.45303e-05 0.000260063 0)
(4.32639e-05 0.000180069 0)
(1.53983e-05 0.000103212 0)
(1.12435e-06 3.18123e-05 0)
(1.31851e-06 -4.75236e-05 0)
(1.80882e-05 -0.00014907 0)
(5.08156e-05 -0.000254857 0)
(9.92296e-05 -0.000362577 0)
(0.000161914 -0.000470195 0)
(0.000237794 -0.000575917 0)
(0.000325933 -0.000678168 0)
(0.000425384 -0.000775573 0)
(0.000535161 -0.000866958 0)
(0.000654256 -0.000951329 0)
(0.000781638 -0.00102787 0)
(0.000916255 -0.00109591 0)
(0.00105704 -0.00115494 0)
(0.00120291 -0.00120456 0)
(0.00135279 -0.00124453 0)
(0.00150559 -0.00127467 0)
(0.00166021 -0.00129495 0)
(0.00181561 -0.00130538 0)
(0.00197071 -0.00130608 0)
(0.0021245 -0.00129725 0)
(0.00227597 -0.00127913 0)
(0.00242414 -0.00125202 0)
(0.0025681 -0.00121629 0)
(0.00270693 -0.00117234 0)
(0.00283982 -0.00112061 0)
(0.00296594 -0.00106157 0)
(0.00308458 -0.000995736 0)
(0.00319502 -0.000923631 0)
(0.00329666 -0.000845806 0)
(0.0033889 -0.000762829 0)
(0.00347124 -0.000675281 0)
(0.00354323 -0.000583753 0)
(0.00360449 -0.000488847 0)
(0.00365468 -0.000391166 0)
(0.00369355 -0.00029132 0)
(0.0037209 -0.000189917 0)
(0.0037366 -8.75657e-05 0)
(0.00374058 1.51279e-05 0)
(0.00373284 0.000117562 0)
(0.00371345 0.000219141 0)
(0.00368251 0.000319275 0)
(0.00364023 0.000417382 0)
(0.00358684 0.000512891 0)
(0.00352265 0.00060524 0)
(0.00344803 0.000693877 0)
(0.0033634 0.000778265 0)
(0.00326924 0.000857879 0)
(0.00316609 0.000932211 0)
(0.00305453 0.00100077 0)
(0.00293521 0.00106307 0)
(0.0028088 0.00111868 0)
(0.00267606 0.00116714 0)
(0.00253775 0.00120807 0)
(0.0023947 0.00124107 0)
(0.00224777 0.00126581 0)
(0.00209785 0.00128197 0)
(0.00194586 0.00128929 0)
(0.00179277 0.00128753 0)
(0.00163955 0.00127652 0)
(0.0014872 0.00125616 0)
(0.00133673 0.00122639 0)
(0.00118918 0.00118724 0)
(0.00104557 0.00113883 0)
(0.000906933 0.00108137 0)
(0.000774309 0.00101517 0)
(0.000648723 0.000940668 0)
(0.000531191 0.000858448 0)
(0.000422723 0.000769231 0)
(0.000324316 0.000673906 0)
(0.000236953 0.000573544 0)
(0.000161596 0.000469412 0)
(9.9207e-05 0.000362982 0)
(5.09061e-05 0.000255952 0)
(1.81701e-05 0.000150267 0)
(1.3365e-06 4.81606e-05 0)
(1.51759e-06 -6.64098e-05 0)
(2.07584e-05 -0.000203504 0)
(5.82403e-05 -0.000342668 0)
(0.000113577 -0.000481637 0)
(0.000185058 -0.000618391 0)
(0.000271359 -0.000751134 0)
(0.000371329 -0.000878273 0)
(0.000483808 -0.000998409 0)
(0.000607614 -0.00111034 0)
(0.000741548 -0.00121303 0)
(0.000884404 -0.00130564 0)
(0.00103497 -0.00138749 0)
(0.00119203 -0.00145803 0)
(0.00135436 -0.00151688 0)
(0.00152076 -0.00156378 0)
(0.00169001 -0.00159858 0)
(0.00186094 -0.00162125 0)
(0.00203238 -0.00163187 0)
(0.00220318 -0.0016306 0)
(0.00237224 -0.00161768 0)
(0.00253847 -0.00159342 0)
(0.00270085 -0.00155821 0)
(0.00285838 -0.0015125 0)
(0.0030101 -0.00145678 0)
(0.00315514 -0.00139159 0)
(0.00329265 -0.00131751 0)
(0.00342185 -0.00123516 0)
(0.00354201 -0.00114519 0)
(0.00365248 -0.00104826 0)
(0.00375264 -0.00094506 0)
(0.00384198 -0.000836307 0)
(0.00392001 -0.000722718 0)
(0.00398633 -0.00060502 0)
(0.00404061 -0.000483952 0)
(0.00408258 -0.000360252 0)
(0.00411204 -0.000234662 0)
(0.00412884 -0.000107923 0)
(0.00413293 1.92291e-05 0)
(0.00412431 0.000146061 0)
(0.00410303 0.000271847 0)
(0.00406923 0.000395869 0)
(0.00402311 0.00051742 0)
(0.00396492 0.000635802 0)
(0.003895 0.000750331 0)
(0.00381372 0.000860337 0)
(0.00372154 0.000965163 0)
(0.00361896 0.00106417 0)
(0.00350654 0.00115674 0)
(0.0033849 0.00124227 0)
(0.00325472 0.00132019 0)
(0.00311672 0.00138994 0)
(0.00297168 0.00145099 0)
(0.00282043 0.00150285 0)
(0.00266383 0.00154505 0)
(0.0025028 0.00157718 0)
(0.00233829 0.00159885 0)
(0.00217129 0.00160972 0)
(0.00200282 0.00160951 0)
(0.00183394 0.00159801 0)
(0.00166572 0.00157505 0)
(0.00149927 0.00154054 0)
(0.00133571 0.00149451 0)
(0.00117618 0.00143704 0)
(0.00102182 0.00136832 0)
(0.000873802 0.00128868 0)
(0.00073328 0.00119856 0)
(0.000601426 0.00109853 0)
(0.000479412 0.000989327 0)
(0.000368413 0.000871852 0)
(0.000269601 0.000747176 0)
(0.000184142 0.000616561 0)
(0.00011321 0.000481465 0)
(5.81681e-05 0.000343553 0)
(2.07899e-05 0.000204721 0)
(1.53383e-06 6.71228e-05 0)
(1.71112e-06 -8.78496e-05 0)
(2.33684e-05 -0.000265232 0)
(6.55127e-05 -0.000442114 0)
(0.000127655 -0.000616246 0)
(0.000207801 -0.000785615 0)
(0.000304394 -0.000948423 0)
(0.000416068 -0.00110307 0)
(0.000541459 -0.00124815 0)
(0.000679184 -0.00138244 0)
(0.000827856 -0.00150491 0)
(0.000986088 -0.00161472 0)
(0.0011525 -0.00171116 0)
(0.00132573 -0.00179372 0)
(0.0015044 -0.00186203 0)
(0.00168718 -0.00191584 0)
(0.00187274 -0.00195506 0)
(0.00205979 -0.00197969 0)
(0.00224707 -0.00198987 0)
(0.00243333 -0.00198581 0)
(0.0026174 -0.00196784 0)
(0.00279811 -0.00193636 0)
(0.00297438 -0.00189183 0)
(0.00314514 -0.00183481 0)
(0.00330941 -0.00176588 0)
(0.00346624 -0.00168571 0)
(0.00361476 -0.00159499 0)
(0.00375414 -0.00149446 0)
(0.00388364 -0.00138489 0)
(0.00400256 -0.00126707 0)
(0.00411029 -0.00114183 0)
(0.00420627 -0.00101001 0)
(0.00429002 -0.000872467 0)
(0.00436112 -0.000730062 0)
(0.00441923 -0.00058367 0)
(0.00446407 -0.00043417 0)
(0.00449543 -0.000282439 0)
(0.00451319 -0.000129357 0)
(0.00451727 2.42045e-05 0)
(0.00450768 0.000177376 0)
(0.00448449 0.000329297 0)
(0.00444784 0.000479117 0)
(0.00439794 0.000625996 0)
(0.00433505 0.000769108 0)
(0.00425952 0.00090764 0)
(0.00417176 0.0010408 0)
(0.00407222 0.0011678 0)
(0.00396143 0.00128789 0)
(0.00383999 0.00140033 0)
(0.00370854 0.00150441 0)
(0.00356778 0.00159944 0)
(0.00341848 0.00168475 0)
(0.00326145 0.00175973 0)
(0.00309755 0.00182378 0)
(0.00292771 0.00187634 0)
(0.00275288 0.0019169 0)
(0.00257408 0.001945 0)
(0.00239235 0.00196023 0)
(0.00220878 0.00196224 0)
(0.0020245 0.00195073 0)
(0.00184068 0.0019255 0)
(0.0016585 0.00188641 0)
(0.00147918 0.00183343 0)
(0.00130397 0.00176661 0)
(0.00113414 0.00168613 0)
(0.00097097 0.00159225 0)
(0.000815766 0.00148542 0)
(0.00066985 0.00136618 0)
(0.000534557 0.00123526 0)
(0.000411238 0.00109353 0)
(0.000301252 0.000942048 0)
(0.000205958 0.000782049 0)
(0.000126732 0.000614963 0)
(6.51659e-05 0.000442417 0)
(2.33078e-05 0.000266256 0)
(1.72214e-06 8.85742e-05 0)
(1.90463e-06 -0.000111812 0)
(2.59716e-05 -0.000334172 0)
(7.27628e-05 -0.000553074 0)
(0.000141688 -0.00076626 0)
(0.000230472 -0.000971713 0)
(0.000337325 -0.00116763 0)
(0.000460671 -0.00135241 0)
(0.00059894 -0.00152465 0)
(0.000750548 -0.00168313 0)
(0.000913915 -0.00182684 0)
(0.00108747 -0.00195494 0)
(0.00126968 -0.00206677 0)
(0.00145899 -0.00216183 0)
(0.00165391 -0.0022398 0)
(0.00185295 -0.00230047 0)
(0.00205469 -0.00234382 0)
(0.00225769 -0.00236992 0)
(0.00246061 -0.00237896 0)
(0.00266212 -0.00237127 0)
(0.00286094 -0.00234724 0)
(0.00305586 -0.00230739 0)
(0.00324572 -0.00225228 0)
(0.00342941 -0.00218257 0)
(0.00360588 -0.00209898 0)
(0.00377416 -0.00200229 0)
(0.00393333 -0.00189332 0)
(0.00408254 -0.00177293 0)
(0.00422102 -0.00164204 0)
(0.00434805 -0.00150157 0)
(0.00446301 -0.00135248 0)
(0.00456531 -0.00119577 0)
(0.00465448 -0.00103242 0)
(0.00473008 -0.00086344 0)
(0.00479176 -0.000689849 0)
(0.00483925 -0.000512665 0)
(0.00487235 -0.000332909 0)
(0.00489091 -0.000151601 0)
(0.00489487 3.02455e-05 0)
(0.00488424 0.000211622 0)
(0.00485911 0.000391529 0)
(0.00481961 0.00056898 0)
(0.00476596 0.000743 0)
(0.00469845 0.000912627 0)
(0.00461743 0.00107692 0)
(0.00452331 0.00123495 0)
(0.00441659 0.00138581 0)
(0.00429779 0.00152863 0)
(0.00416755 0.00166253 0)
(0.00402651 0.00178669 0)
(0.00387543 0.00190031 0)
(0.00371508 0.0020026 0)
(0.00354633 0.00209284 0)
(0.00337006 0.00217032 0)
(0.00318724 0.0022344 0)
(0.00299888 0.00228445 0)
(0.00280605 0.00231992 0)
(0.00260985 0.00234032 0)
(0.00241143 0.0023452 0)
(0.00221201 0.00233421 0)
(0.00201281 0.00230705 0)
(0.00181513 0.00226354 0)
(0.00162028 0.00220356 0)
(0.00142961 0.00212712 0)
(0.00124452 0.00203433 0)
(0.00106641 0.00192543 0)
(0.000896742 0.00180079 0)
(0.000736979 0.00166094 0)
(0.000588621 0.00150655 0)
(0.000453192 0.00133847 0)
(0.000332236 0.00115769 0)
(0.000227298 0.00096544 0)
(0.00013995 0.000763091 0)
(7.20021e-05 0.000552232 0)
(2.57663e-05 0.000334664 0)
(1.90596e-06 0.000112437 0)
(2.10256e-06 -0.000138315 0)
(2.86114e-05 -0.000410358 0)
(8.00969e-05 -0.000675589 0)
(0.00015586 -0.000931721 0)
(0.000253338 -0.00117672 0)
(0.000370503 -0.00140878 0)
(0.000505562 -0.00162631 0)
(0.000656737 -0.00182791 0)
(0.000822239 -0.0020124 0)
(0.00100029 -0.00217877 0)
(0.00118915 -0.00232624 0)
(0.00138708 -0.0024542 0)
(0.0015924 -0.00256219 0)
(0.00180345 -0.00264997 0)
(0.00201862 -0.00271741 0)
(0.00223634 -0.00276454 0)
(0.00245509 -0.00279155 0)
(0.00267341 -0.00279872 0)
(0.00288988 -0.00278648 0)
(0.00310317 -0.00275534 0)
(0.00331197 -0.00270592 0)
(0.00351507 -0.00263892 0)
(0.00371131 -0.00255513 0)
(0.00389961 -0.00245539 0)
(0.00407894 -0.00234061 0)
(0.00424837 -0.00221176 0)
(0.00440701 -0.00206985 0)
(0.00455408 -0.00191592 0)
(0.00468885 -0.00175105 0)
(0.00481067 -0.00157636 0)
(0.00491897 -0.00139296 0)
(0.00501323 -0.001202 0)
(0.00509305 -0.00100463 0)
(0.00515806 -0.000802023 0)
(0.00520798 -0.000595339 0)
(0.00524262 -0.000385743 0)
(0.00526185 -0.000174401 0)
(0.00526559 3.75304e-05 0)
(0.00525388 0.000248901 0)
(0.00522678 0.00045857 0)
(0.00518445 0.000665411 0)
(0.00512713 0.000868311 0)
(0.0050551 0.00106617 0)
(0.00496872 0.00125792 0)
(0.00486842 0.00144249 0)
(0.0047547 0.00161884 0)
(0.00462813 0.00178597 0)
(0.00448932 0.00194289 0)
(0.00433897 0.00208864 0)
(0.00417784 0.0022223 0)
(0.00400674 0.00234296 0)
(0.00382655 0.00244979 0)
(0.00363821 0.00254195 0)
(0.00344272 0.00261869 0)
(0.00324114 0.00267929 0)
(0.00303456 0.00272308 0)
(0.00282418 0.00274947 0)
(0.00261119 0.00275792 0)
(0.00239688 0.00274797 0)
(0.00218258 0.00271925 0)
(0.00196964 0.00267148 0)
(0.00175949 0.00260447 0)
(0.00155359 0.00251813 0)
(0.00135345 0.00241252 0)
(0.00116061 0.00228781 0)
(0.000976667 0.00214429 0)
(0.000803239 0.00198243 0)
(0.000641988 0.00180284 0)
(0.00049461 0.00160631 0)
(0.000362827 0.00139379 0)
(0.000248372 0.00116645 0)
(0.000153009 0.000925606 0)
(7.87593e-05 0.000672813 0)
(2.8199e-05 0.00040983 0)
(2.08867e-06 0.000138672 0)
(2.3083e-06 -0.000167415 0)
(3.13199e-05 -0.00049392 0)
(8.7593e-05 -0.000809826 0)
(0.000170305 -0.00111281 0)
(0.00027659 -0.00140082 0)
(0.000404168 -0.00167204 0)
(0.000551023 -0.0019249 0)
(0.000715159 -0.00215802 0)
(0.000894579 -0.00237026 0)
(0.00108731 -0.00256067 0)
(0.0012914 -0.00272852 0)
(0.00150497 -0.00287328 0)
(0.00172615 -0.00299458 0)
(0.00195314 -0.00309224 0)
(0.0021842 -0.00316626 0)
(0.00241763 -0.00321677 0)
(0.00265181 -0.00324406 0)
(0.00288518 -0.00324856 0)
(0.00311623 -0.00323079 0)
(0.00334355 -0.00319142 0)
(0.00356579 -0.0031312 0)
(0.00378166 -0.00305096 0)
(0.00398997 -0.00295165 0)
(0.0041896 -0.00283424 0)
(0.00437949 -0.00269981 0)
(0.00455869 -0.00254947 0)
(0.00472629 -0.00238437 0)
(0.00488149 -0.00220572 0)
(0.00502355 -0.00201474 0)
(0.00515181 -0.00181271 0)
(0.0052657 -0.00160089 0)
(0.00536472 -0.00138058 0)
(0.00544844 -0.00115308 0)
(0.0055165 -0.000919719 0)
(0.00556864 -0.000681797 0)
(0.00560466 -0.000440632 0)
(0.00562442 -0.000197534 0)
(0.00562787 4.61939e-05 0)
(0.00561504 0.000289259 0)
(0.00558601 0.000530378 0)
(0.00554093 0.000768283 0)
(0.00548005 0.00100172 0)
(0.00540366 0.00122946 0)
(0.00531213 0.00145028 0)
(0.0052059 0.00166298 0)
(0.00508547 0.00186641 0)
(0.00495142 0.0020594 0)
(0.00480438 0.00224085 0)
(0.00464507 0.00240966 0)
(0.00447427 0.00256478 0)
(0.00429279 0.00270519 0)
(0.00410157 0.0028299 0)
(0.00390155 0.00293799 0)
(0.00369378 0.00302856 0)
(0.00347935 0.00310077 0)
(0.00325943 0.00315385 0)
(0.00303522 0.00318707 0)
(0.00280802 0.00319979 0)
(0.00257917 0.00319145 0)
(0.00235008 0.00316156 0)
(0.00212218 0.00310972 0)
(0.00189702 0.00303566 0)
(0.00167615 0.0029392 0)
(0.00146121 0.00282029 0)
(0.00125386 0.00267899 0)
(0.00105584 0.00251554 0)
(0.00086892 0.00233031 0)
(0.000694928 0.00212382 0)
(0.000535729 0.0018968 0)
(0.000393225 0.00165013 0)
(0.000269334 0.00138489 0)
(0.000166012 0.00110238 0)
(8.54978e-05 0.000804075 0)
(3.06301e-05 0.000491709 0)
(2.27264e-06 0.000167269 0)
(2.52424e-06 -0.000199193 0)
(3.41177e-05 -0.000585045 0)
(9.52978e-05 -0.000956033 0)
(0.000185098 -0.00130979 0)
(0.000300326 -0.00164425 0)
(0.000438431 -0.00195761 0)
(0.000597162 -0.00224831 0)
(0.000774296 -0.00251504 0)
(0.000967616 -0.0027567 0)
(0.00117494 -0.00297243 0)
(0.00139414 -0.00316157 0)
(0.00162314 -0.0033237 0)
(0.00185992 -0.00345855 0)
(0.00210254 -0.00356608 0)
(0.0023491 -0.0036464 0)
(0.00259781 -0.00369977 0)
(0.00284692 -0.00372664 0)
(0.0030948 -0.00372756 0)
(0.00333985 -0.00370323 0)
(0.0035806 -0.00365446 0)
(0.00381564 -0.00358215 0)
(0.00404364 -0.0034873 0)
(0.00426336 -0.00337101 0)
(0.00447366 -0.00323443 0)
(0.00467346 -0.00307879 0)
(0.00486178 -0.00290535 0)
(0.00503772 -0.00271545 0)
(0.00520045 -0.00251043 0)
(0.00534925 -0.0022917 0)
(0.00548345 -0.00206067 0)
(0.00560248 -0.00181877 0)
(0.00570583 -0.00156746 0)
(0.0057931 -0.00130819 0)
(0.00586393 -0.00104243 0)
(0.00591805 -0.000771645 0)
(0.00595528 -0.000497292 0)
(0.00597548 -0.000220829 0)
(0.00597861 5.62951e-05 0)
(0.00596469 0.000332643 0)
(0.00593381 0.000606792 0)
(0.00588615 0.00087733 0)
(0.00582192 0.00114287 0)
(0.00574144 0.00140203 0)
(0.00564508 0.00165345 0)
(0.00553328 0.00189582 0)
(0.00540655 0.00212781 0)
(0.00526547 0.00234815 0)
(0.00511069 0.00255559 0)
(0.00494292 0.00274889 0)
(0.00476296 0.00292687 0)
(0.00457166 0.00308837 0)
(0.00436994 0.00323228 0)
(0.0041588 0.00335753 0)
(0.00393929 0.0034631 0)
(0.00371256 0.00354801 0)
(0.00347981 0.00361135 0)
(0.0032423 0.00365228 0)
(0.00300138 0.00367002 0)
(0.00275845 0.00366388 0)
(0.002515 0.00363324 0)
(0.00227256 0.0035776 0)
(0.00203275 0.00349654 0)
(0.00179726 0.00338977 0)
(0.00156781 0.00325712 0)
(0.00134622 0.00309855 0)
(0.00113436 0.00291417 0)
(0.000934146 0.00270426 0)
(0.000747572 0.00246924 0)
(0.000576676 0.00220973 0)
(0.000423541 0.00192654 0)
(0.000290273 0.00162067 0)
(0.000179024 0.00129335 0)
(9.22551e-05 0.000945997 0)
(3.30749e-05 0.000580304 0)
(2.45933e-06 0.000198237 0)
(2.75183e-06 -0.000233748 0)
(3.7013e-05 -0.000683954 0)
(0.000103224 -0.00111449 0)
(0.000200248 -0.00152295 0)
(0.000324537 -0.00190727 0)
(0.000473252 -0.00226567 0)
(0.000643885 -0.00259665 0)
(0.000833974 -0.00289895 0)
(0.00104108 -0.00317156 0)
(0.0012628 -0.00341374 0)
(0.00149682 -0.00362494 0)
(0.00174088 -0.00380485 0)
(0.00199281 -0.00395338 0)
(0.00225051 -0.0040706 0)
(0.00251197 -0.0041568 0)
(0.00277527 -0.00421242 0)
(0.00303858 -0.00423805 0)
(0.00330017 -0.00423442 0)
(0.00355839 -0.00420241 0)
(0.0038117 -0.004143 0)