/*--------------------------------*- C++ -*----------------------------------*\
  =========                 |
  \\      /  F ield         | OpenFOAM: The Open Source CFD Toolbox
   \\    /   O peration     | Website:  https://openfoam.org
    \\  /    A nd           | Version:  12
     \\/     M anipulation  |
\*---------------------------------------------------------------------------*/
FoamFile
{
    format      ascii;
    class       volScalarField;
    location    "6.5";
    object      nut;
}
// * * * * * * * * * * * * * * * * * * * * * * * * * * * * * * * * * * * * * //

dimensions      [0 2 -1 0 0 0 0];

internalField   nonuniform List<scalar> 
18225
(
1.32511e-16
4.00505e-15
8.49934e-15
1.38819e-14
1.99732e-14
2.6642e-14
3.37979e-14
4.13759e-14
4.93265e-14
5.76104e-14
6.61945e-14
7.50507e-14
8.41542e-14
9.34827e-14
1.03016e-13
1.12735e-13
1.22623e-13
1.32663e-13
1.4284e-13
1.53138e-13
1.63543e-13
1.74041e-13
1.84619e-13
1.95263e-13
2.0596e-13
2.16697e-13
2.27463e-13
2.38243e-13
2.49027e-13
2.59803e-13
2.70557e-13
2.81278e-13
2.91955e-13
3.02576e-13
3.13128e-13
3.23602e-13
3.33985e-13
3.44265e-13
3.54433e-13
3.64476e-13
3.74383e-13
3.84145e-13
3.93749e-13
4.03185e-13
4.12443e-13
4.21511e-13
4.30381e-13
4.3904e-13
4.4748e-13
4.5569e-13
4.63661e-13
4.71382e-13
4.78843e-13
4.86037e-13
4.92952e-13
4.99581e-13
5.05913e-13
5.11941e-13
5.17655e-13
5.23047e-13
5.28109e-13
5.32833e-13
5.3721e-13
5.41234e-13
5.44896e-13
5.48189e-13
5.51107e-13
5.53643e-13
5.5579e-13
5.57543e-13
5.58896e-13
5.59842e-13
5.60378e-13
5.60498e-13
5.60198e-13
5.59474e-13
5.58322e-13
5.5674e-13
5.54725e-13
5.52274e-13
5.49388e-13
5.46063e-13
5.42301e-13
5.38101e-13
5.33464e-13
5.28392e-13
5.22886e-13
5.16951e-13
5.10589e-13
5.03804e-13
4.96602e-13
4.88989e-13
4.80971e-13
4.72555e-13
4.6375e-13
4.54565e-13
4.4501e-13
4.35095e-13
4.24833e-13
4.14234e-13
4.03313e-13
3.92084e-13
3.80562e-13
3.68762e-13
3.56702e-13
3.44398e-13
3.3187e-13
3.19135e-13
3.06215e-13
2.93131e-13
2.79903e-13
2.66555e-13
2.5311e-13
2.39593e-13
2.26028e-13
2.12443e-13
1.98864e-13
1.8532e-13
1.7184e-13
1.58455e-13
1.45197e-13
1.32101e-13
1.19202e-13
1.06539e-13
9.41524e-14
8.20873e-14
7.03936e-14
5.91272e-14
4.83536e-14
3.81521e-14
2.86237e-14
1.99056e-14
1.2192e-14
5.74635e-15
1.90129e-16
8.96584e-16
1.3068e-13
6.99661e-13
1.64109e-12
2.76779e-12
3.99265e-12
5.28615e-12
6.63746e-12
8.04103e-12
9.49285e-12
1.09894e-11
1.25275e-11
1.4104e-11
1.57159e-11
1.73603e-11
1.90346e-11
2.07362e-11
2.24624e-11
2.42109e-11
2.59793e-11
2.77652e-11
2.95664e-11
3.13806e-11
3.32057e-11
3.50395e-11
3.68798e-11
3.87246e-11
4.05718e-11
4.24192e-11
4.4265e-11
4.6107e-11
4.79432e-11
4.97717e-11
5.15904e-11
5.33974e-11
5.51908e-11
5.69685e-11
5.87287e-11
6.04694e-11
6.21888e-11
6.3885e-11
6.5556e-11
6.72002e-11
6.88155e-11
7.04003e-11
7.19527e-11
7.3471e-11
7.49534e-11
7.63981e-11
7.78035e-11
7.91679e-11
8.04896e-11
8.1767e-11
8.29984e-11
8.41823e-11
8.53171e-11
8.64012e-11
8.74333e-11
8.84117e-11
8.9335e-11
9.02018e-11
9.10108e-11
9.17605e-11
9.24498e-11
9.30772e-11
9.36416e-11
9.41417e-11
9.45764e-11
9.49445e-11
9.5245e-11
9.5477e-11
9.56396e-11
9.57318e-11
9.5753e-11
9.57023e-11
9.55791e-11
9.53827e-11
9.51127e-11
9.47685e-11
9.43499e-11
9.38566e-11
9.32884e-11
9.26452e-11
9.19271e-11
9.11342e-11
9.02667e-11
8.93251e-11
8.83097e-11
8.72213e-11
8.60605e-11
8.48281e-11
8.35252e-11
8.21528e-11
8.07123e-11
7.9205e-11
7.76324e-11
7.59963e-11
7.42984e-11
7.25406e-11
7.07252e-11
6.88543e-11
6.69304e-11
6.49559e-11
6.29335e-11
6.08661e-11
5.87567e-11
5.66083e-11
5.44242e-11
5.22077e-11
4.99625e-11
4.76921e-11
4.54003e-11
4.30912e-11
4.07688e-11
3.84372e-11
3.61009e-11
3.37644e-11
3.14323e-11
2.91094e-11
2.68008e-11
2.45114e-11
2.22468e-11
2.00122e-11
1.78136e-11
1.56566e-11
1.35475e-11
1.14925e-11
9.49831e-12
7.57221e-12
5.72369e-12
3.96985e-12
2.35447e-12
1.00391e-12
1.87526e-13
1.28679e-15
1.99683e-15
3.2806e-13
2.24964e-12
6.75976e-12
1.37327e-11
2.24799e-11
3.23719e-11
4.30064e-11
5.41588e-11
6.57073e-11
7.75834e-11
8.97455e-11
1.02165e-10
1.14819e-10
1.2769e-10
1.40759e-10
1.5401e-10
1.67428e-10
1.80997e-10
1.947e-10
2.08523e-10
2.2245e-10
2.36465e-10
2.50554e-10
2.647e-10
2.7889e-10
2.93107e-10
3.07336e-10
3.21563e-10
3.35771e-10
3.49947e-10
3.64075e-10
3.7814e-10
3.92127e-10
4.06021e-10
4.19809e-10
4.33474e-10
4.47003e-10
4.60381e-10
4.73593e-10
4.86625e-10
4.99464e-10
5.12094e-10
5.24503e-10
5.36676e-10
5.48599e-10
5.6026e-10
5.71644e-10
5.82739e-10
5.93531e-10
6.04008e-10
6.14157e-10
6.23965e-10
6.3342e-10
6.42511e-10
6.51224e-10
6.59549e-10
6.67473e-10
6.74987e-10
6.82077e-10
6.88735e-10
6.94948e-10
7.00707e-10
7.06003e-10
7.10824e-10
7.15162e-10
7.19007e-10
7.22351e-10
7.25185e-10
7.27502e-10
7.29293e-10
7.30551e-10
7.3127e-10
7.31444e-10
7.31067e-10
7.30134e-10
7.28639e-10
7.26578e-10
7.23948e-10
7.20747e-10
7.16971e-10
7.1262e-10
7.07694e-10
7.0219e-10
6.96112e-10
6.8946e-10
6.82237e-10
6.74447e-10
6.66093e-10
6.57181e-10
6.47718e-10
6.3771e-10
6.27166e-10
6.16095e-10
6.04508e-10
5.92416e-10
5.79831e-10
5.66767e-10
5.53238e-10
5.39261e-10
5.24852e-10
5.10029e-10
4.94811e-10
4.79218e-10
4.6327e-10
4.46991e-10
4.30402e-10
4.13529e-10
3.96396e-10
3.79029e-10
3.61455e-10
3.43703e-10
3.258e-10
3.07776e-10
2.89663e-10
2.7149e-10
2.5329e-10
2.35096e-10
2.16941e-10
1.9886e-10
1.80887e-10
1.63058e-10
1.45413e-10
1.2799e-10
1.10837e-10
9.40074e-11
7.75769e-11
6.1658e-11
4.64405e-11
3.22615e-11
1.97116e-11
9.70372e-12
3.22999e-12
4.7119e-13
2.86883e-15
3.30938e-15
5.5747e-13
4.08627e-12
1.35279e-11
3.04908e-11
5.48318e-11
8.53276e-11
1.20498e-10
1.5907e-10
2.00106e-10
2.42963e-10
2.87214e-10
3.32578e-10
3.78863e-10
4.25933e-10
4.73688e-10
5.22047e-10
5.70943e-10
6.20315e-10
6.7011e-10
7.20272e-10
7.70752e-10
8.21497e-10
8.72458e-10
9.23584e-10
9.74824e-10
1.02613e-09
1.07744e-09
1.12872e-09
1.17991e-09
1.23096e-09
1.28181e-09
1.33242e-09
1.38273e-09
1.4327e-09
1.48226e-09
1.53138e-09
1.57999e-09
1.62806e-09
1.67552e-09
1.72232e-09
1.76842e-09
1.81377e-09
1.85831e-09
1.90201e-09
1.9448e-09
1.98664e-09
2.02749e-09
2.0673e-09
2.10602e-09
2.1436e-09
2.18001e-09
2.21519e-09
2.2491e-09
2.2817e-09
2.31295e-09
2.3428e-09
2.37122e-09
2.39817e-09
2.42359e-09
2.44747e-09
2.46975e-09
2.49041e-09
2.5094e-09
2.5267e-09
2.54226e-09
2.55606e-09
2.56807e-09
2.57825e-09
2.58657e-09
2.59301e-09
2.59755e-09
2.60015e-09
2.6008e-09
2.59947e-09
2.59615e-09
2.59082e-09
2.58345e-09
2.57405e-09
2.56259e-09
2.54908e-09
2.53349e-09
2.51584e-09
2.49611e-09
2.47432e-09
2.45046e-09
2.42454e-09
2.39658e-09
2.36659e-09
2.33459e-09
2.30059e-09
2.26463e-09
2.22672e-09
2.18691e-09
2.14522e-09
2.1017e-09
2.05639e-09
2.00933e-09
1.96058e-09
1.91019e-09
1.85821e-09
1.80471e-09
1.74975e-09
1.6934e-09
1.63574e-09
1.57684e-09
1.51677e-09
1.45562e-09
1.39348e-09
1.33043e-09
1.26657e-09
1.20199e-09
1.13679e-09
1.07107e-09
1.00493e-09
9.3848e-10
8.71833e-10
8.05105e-10
7.38417e-10
6.71903e-10
6.05706e-10
5.39994e-10
4.74966e-10
4.10874e-10
3.48051e-10
2.86967e-10
2.28298e-10
1.73028e-10
1.22562e-10
7.87721e-11
4.38104e-11
1.94429e-11
5.8757e-12
8.02047e-13
4.76294e-15
4.77723e-15
8.11669e-13
6.09575e-12
2.10068e-11
4.98151e-11
9.46098e-11
1.55207e-10
2.29866e-10
3.16184e-10
4.11755e-10
5.14502e-10
6.22775e-10
7.35325e-10
8.51228e-10
9.69806e-10
1.09055e-09
1.21309e-09
1.33713e-09
1.46242e-09
1.58878e-09
1.71603e-09
1.84401e-09
1.9726e-09
2.10164e-09
2.23102e-09
2.36061e-09
2.49028e-09
2.61991e-09
2.74937e-09
2.87854e-09
3.00729e-09
3.13551e-09
3.26306e-09
3.38981e-09
3.51565e-09
3.64045e-09
3.76408e-09
3.88642e-09
4.00734e-09
4.12671e-09
4.24442e-09
4.36034e-09
4.47434e-09
4.5863e-09
4.69611e-09
4.80364e-09
4.90878e-09
5.0114e-09
5.11139e-09
5.20863e-09
5.30302e-09
5.39444e-09
5.48278e-09
5.56793e-09
5.64979e-09
5.72824e-09
5.80319e-09
5.87453e-09
5.94217e-09
6.006e-09
6.06594e-09
6.12188e-09
6.17374e-09
6.22143e-09
6.26486e-09
6.30394e-09
6.3386e-09
6.36876e-09
6.39433e-09
6.41526e-09
6.43146e-09
6.44288e-09
6.44945e-09
6.45112e-09
6.44783e-09
6.43954e-09
6.42618e-09
6.40772e-09
6.38413e-09
6.35539e-09
6.32146e-09
6.28232e-09
6.23798e-09
6.18841e-09
6.13363e-09
6.07364e-09
6.00846e-09
5.9381e-09
5.86262e-09
5.78203e-09
5.69639e-09
5.60577e-09
5.51021e-09
5.4098e-09
5.30461e-09
5.19475e-09
5.0803e-09
4.96139e-09
4.83812e-09
4.71064e-09
4.57906e-09
4.44355e-09
4.30425e-09
4.16134e-09
4.01497e-09
3.86535e-09
3.71265e-09
3.55707e-09
3.39883e-09
3.23814e-09
3.07524e-09
2.91035e-09
2.74372e-09
2.57562e-09
2.40634e-09
2.23615e-09
2.0654e-09
1.89444e-09
1.72367e-09
1.55357e-09
1.38472e-09
1.2178e-09
1.05372e-09
8.93615e-10
7.39e-10
5.91848e-10
4.54691e-10
3.30655e-10
2.23303e-10
1.36149e-10
7.1711e-11
3.02563e-11
8.78584e-12
1.17068e-12
6.89289e-15
6.36478e-15
1.08556e-12
8.24307e-12
2.89559e-11
7.04863e-11
1.38066e-10
2.34072e-10
3.58166e-10
5.08049e-10
6.8037e-10
8.71488e-10
1.07796e-09
1.2968e-09
1.52551e-09
1.76211e-09
2.00501e-09
2.25299e-09
2.50507e-09
2.76047e-09
3.01857e-09
3.27885e-09
3.54086e-09
3.80422e-09
4.06858e-09
4.33364e-09
4.59911e-09
4.86469e-09
5.13012e-09
5.39515e-09
5.65951e-09
5.92294e-09
6.1852e-09
6.44603e-09
6.70517e-09
6.96238e-09
7.21739e-09
7.46997e-09
7.71985e-09
7.96679e-09
8.21053e-09
8.45083e-09
8.68743e-09
8.9201e-09
9.14858e-09
9.37264e-09
9.59202e-09
9.80649e-09
1.00158e-08
1.02198e-08
1.04181e-08
1.06106e-08
1.0797e-08
1.09772e-08
1.11508e-08
1.13177e-08
1.14777e-08
1.16305e-08
1.1776e-08
1.19139e-08
1.20441e-08
1.21663e-08
1.22804e-08
1.23862e-08
1.24834e-08
1.2572e-08
1.26518e-08
1.27225e-08
1.27841e-08
1.28363e-08
1.2879e-08
1.29122e-08
1.29356e-08
1.2949e-08
1.29525e-08
1.29459e-08
1.29291e-08
1.29019e-08
1.28643e-08
1.28163e-08
1.27577e-08
1.26885e-08
1.26086e-08
1.25181e-08
1.24169e-08
1.23049e-08
1.21823e-08
1.20491e-08
1.19052e-08
1.17507e-08
1.15857e-08
1.14104e-08
1.12247e-08
1.10288e-08
1.08229e-08
1.06071e-08
1.03815e-08
1.01465e-08
9.90209e-09
9.64863e-09
9.38634e-09
9.11549e-09
8.83635e-09
8.54925e-09
8.2545e-09
7.95245e-09
7.64348e-09
7.32796e-09
7.00632e-09
6.679e-09
6.34644e-09
6.00917e-09
5.66769e-09
5.3226e-09
4.97452e-09
4.62415e-09
4.27225e-09
3.91973e-09
3.5676e-09
3.21706e-09
2.86958e-09
2.5269e-09
2.19119e-09
1.8651e-09
1.5519e-09
1.25552e-09
9.80636e-10
7.3248e-10
5.16498e-10
3.37626e-10
1.99217e-10
1.0176e-10
4.18334e-11
1.1919e-11
1.57086e-12
9.21385e-15
8.04598e-15
1.37507e-12
1.05022e-11
3.72731e-11
9.20677e-11
1.83639e-10
3.17782e-10
4.96887e-10
7.20264e-10
9.84923e-10
1.2865e-09
1.62007e-09
1.98071e-09
2.3639e-09
2.76565e-09
3.18257e-09
3.61184e-09
4.05113e-09
4.49853e-09
4.95246e-09
5.41161e-09
5.87491e-09
6.34142e-09
6.81034e-09
7.28093e-09
7.75257e-09
8.22465e-09
8.69662e-09
9.16796e-09
9.63816e-09
1.01068e-08
1.05733e-08
1.10372e-08
1.14981e-08
1.19556e-08
1.24091e-08
1.28582e-08
1.33026e-08
1.37417e-08
1.4175e-08
1.46022e-08
1.50229e-08
1.54365e-08
1.58426e-08
1.62409e-08
1.66309e-08
1.70121e-08
1.73842e-08
1.77467e-08
1.80992e-08
1.84414e-08
1.87728e-08
1.9093e-08
1.94017e-08
1.96984e-08
1.99829e-08
2.02546e-08
2.05133e-08
2.07586e-08
2.09901e-08
2.12076e-08
2.14106e-08
2.15988e-08
2.1772e-08
2.19297e-08
2.20718e-08
2.21978e-08
2.23075e-08
2.24007e-08
2.24771e-08
2.25363e-08
2.25782e-08
2.26026e-08
2.26091e-08
2.25977e-08
2.25681e-08
2.252e-08
2.24535e-08
2.23682e-08
2.22642e-08
2.21412e-08
2.19992e-08
2.18381e-08
2.16579e-08
2.14585e-08
2.12401e-08
2.10025e-08
2.07458e-08
2.04702e-08
2.01756e-08
1.98624e-08
1.95306e-08
1.91804e-08
1.8812e-08
1.84258e-08
1.8022e-08
1.76009e-08
1.71629e-08
1.67084e-08
1.62379e-08
1.57517e-08
1.52504e-08
1.47346e-08
1.42049e-08
1.36618e-08
1.31061e-08
1.25385e-08
1.19598e-08
1.13708e-08
1.07725e-08
1.0166e-08
9.5523e-09
8.9327e-09
8.3086e-09
7.6816e-09
7.05353e-09
6.4265e-09
5.803e-09
5.18595e-09
4.57876e-09
3.98552e-09
3.41104e-09
2.86093e-09
2.34166e-09
1.86038e-09
1.4247e-09
1.04208e-09
7.19057e-10
4.60012e-10
2.65957e-10
1.33428e-10
5.40629e-11
1.52469e-11
1.99791e-12
1.16952e-14
9.80001e-15
1.67681e-12
1.28501e-11
4.58824e-11
1.14331e-10
2.30615e-10
4.04345e-10
6.41422e-10
9.43895e-10
1.31043e-09
1.73716e-09
2.21858e-09
2.74839e-09
3.32014e-09
3.92767e-09
4.56536e-09
5.22821e-09
5.9119e-09
6.61275e-09
7.32762e-09
8.05384e-09
8.78915e-09
9.53161e-09
1.02796e-08
1.10315e-08
1.17863e-08
1.25426e-08
1.32994e-08
1.40558e-08
1.48109e-08
1.55637e-08
1.63135e-08
1.70593e-08
1.78006e-08
1.85363e-08
1.92659e-08
1.99886e-08
2.07035e-08
2.14101e-08
2.21076e-08
2.27952e-08
2.34723e-08
2.41382e-08
2.47921e-08
2.54334e-08
2.60614e-08
2.66753e-08
2.72747e-08
2.78586e-08
2.84266e-08
2.8978e-08
2.95121e-08
3.00282e-08
3.05259e-08
3.10043e-08
3.1463e-08
3.19014e-08
3.23188e-08
3.27147e-08
3.30884e-08
3.34396e-08
3.37675e-08
3.40717e-08
3.43517e-08
3.46068e-08
3.48368e-08
3.50409e-08
3.52189e-08
3.53702e-08
3.54943e-08
3.55909e-08
3.56596e-08
3.56999e-08
3.57115e-08
3.56941e-08
3.56474e-08
3.55709e-08
3.54644e-08
3.53276e-08
3.51605e-08
3.49626e-08
3.4734e-08
3.44745e-08
3.41839e-08
3.38622e-08
3.35094e-08
3.31255e-08
3.27106e-08
3.22647e-08
3.17881e-08
3.12809e-08
3.07433e-08
3.01757e-08
2.95784e-08
2.89519e-08
2.82965e-08
2.76127e-08
2.69013e-08
2.61627e-08
2.53978e-08
2.46072e-08
2.37919e-08
2.29528e-08
2.20908e-08
2.12072e-08
2.0303e-08
1.93797e-08
1.84387e-08
1.74816e-08
1.65101e-08
1.55264e-08
1.45325e-08
1.35311e-08
1.25249e-08
1.15172e-08
1.05117e-08
9.51273e-09
8.52518e-09
7.55478e-09
6.60813e-09
5.69274e-09
4.81706e-09
3.99037e-09
3.22264e-09
2.52405e-09
1.90435e-09
1.3719e-09
9.32471e-10
5.88028e-10
3.35559e-10
1.66483e-10
6.68713e-11
1.8746e-11
2.44815e-12
1.43139e-14
1.16093e-14
1.98786e-12
1.5266e-11
5.47162e-11
1.37105e-10
2.78564e-10
4.92681e-10
7.89255e-10
1.17376e-09
1.64748e-09
2.20811e-09
2.85062e-09
3.56821e-09
4.3531e-09
5.19724e-09
6.0928e-09
7.03242e-09
8.00943e-09
9.01787e-09
1.00525e-08
1.11088e-08
1.21828e-08
1.3271e-08
1.43705e-08
1.54786e-08
1.6593e-08
1.77116e-08
1.88326e-08
1.99542e-08
2.1075e-08
2.21933e-08
2.33079e-08
2.44174e-08
2.55206e-08
2.66163e-08
2.77032e-08
2.87802e-08
2.98462e-08
3.09e-08
3.19406e-08
3.29668e-08
3.39776e-08
3.49718e-08
3.59485e-08
3.69065e-08
3.78449e-08
3.87627e-08
3.96587e-08
4.05321e-08
4.13818e-08
4.22068e-08
4.30062e-08
4.37791e-08
4.45244e-08
4.52413e-08
4.59288e-08
4.65861e-08
4.72122e-08
4.78063e-08
4.83674e-08
4.88949e-08
4.93878e-08
4.98453e-08
5.02667e-08
5.06511e-08
5.09978e-08
5.1306e-08
5.1575e-08
5.18042e-08
5.19928e-08
5.21402e-08
5.22457e-08
5.23087e-08
5.23287e-08
5.23053e-08
5.22378e-08
5.21255e-08
5.19682e-08
5.17655e-08
5.1517e-08
5.12223e-08
5.08812e-08
5.04934e-08
5.00589e-08
4.95774e-08
4.90489e-08
4.84734e-08
4.7851e-08
4.71817e-08
4.64658e-08
4.57036e-08
4.48953e-08
4.40415e-08
4.31426e-08
4.21992e-08
4.1212e-08
4.01819e-08
3.91096e-08
3.79962e-08
3.68427e-08
3.56506e-08
3.4421e-08
3.31555e-08
3.18559e-08
3.0524e-08
2.91617e-08
2.77715e-08
2.63559e-08
2.49177e-08
2.34601e-08
2.19866e-08
2.05012e-08
1.90084e-08
1.75133e-08
1.60217e-08
1.45403e-08
1.30766e-08
1.16391e-08
1.02373e-08
8.88177e-09
7.58417e-09
6.35695e-09
5.21313e-09
4.16577e-09
3.22717e-09
2.40792e-09
1.71567e-09
1.15385e-09
7.20527e-10
4.07614e-10
2.00772e-10
8.01963e-11
2.23958e-11
2.9186e-12
1.70517e-14
1.34584e-14
2.30561e-12
1.7731e-11
6.37111e-11
1.60238e-10
3.27156e-10
5.82071e-10
9.3884e-10
1.40673e-09
1.9902e-09
2.68932e-09
3.5004e-09
4.41701e-09
5.43082e-09
6.53247e-09
7.71225e-09
8.96061e-09
1.02685e-08
1.16274e-08
1.30298e-08
1.44688e-08
1.59383e-08
1.74329e-08
1.8948e-08
2.04792e-08
2.20228e-08
2.35755e-08
2.51343e-08
2.66964e-08
2.82594e-08
2.98208e-08
3.13786e-08
3.29307e-08
3.44752e-08
3.60102e-08
3.7534e-08
3.90447e-08
4.05408e-08
4.20206e-08
4.34824e-08
4.49248e-08
4.63461e-08
4.77448e-08
4.91193e-08
5.04683e-08
5.17902e-08
5.30835e-08
5.43468e-08
5.55787e-08
5.67777e-08
5.79425e-08
5.90717e-08
6.01638e-08
6.12176e-08
6.22318e-08
6.32049e-08
6.41358e-08
6.50231e-08
6.58655e-08
6.66619e-08
6.7411e-08
6.81116e-08
6.87625e-08
6.93626e-08
6.99107e-08
7.04057e-08
7.08465e-08
7.12322e-08
7.15615e-08
7.18336e-08
7.20475e-08
7.22022e-08
7.22969e-08
7.23307e-08
7.23028e-08
7.22128e-08
7.2059e-08
7.18415e-08
7.15594e-08
7.12122e-08
7.07994e-08
7.03206e-08
6.97754e-08
6.91635e-08
6.84847e-08
6.77388e-08
6.69259e-08
6.60459e-08
6.5099e-08
6.40855e-08
6.30057e-08
6.186e-08
6.06492e-08
5.93739e-08
5.8035e-08
5.66334e-08
5.51704e-08
5.36473e-08
5.20657e-08
5.04271e-08
4.87337e-08
4.69874e-08
4.51907e-08
4.33463e-08
4.1457e-08
3.95262e-08
3.75577e-08
3.55554e-08
3.35242e-08
3.14692e-08
2.93962e-08
2.73121e-08
2.5224e-08
2.31405e-08
2.10707e-08
1.90252e-08
1.70154e-08
1.50544e-08
1.3156e-08
1.13354e-08
9.6085e-09
7.99164e-09
6.50108e-09
5.15209e-09
3.95796e-09
2.92874e-09
2.07002e-09
1.38165e-09
8.56855e-10
4.81842e-10
2.36167e-10
9.39812e-11
2.61786e-11
3.4067e-12
1.98934e-14
1.53337e-14
2.62776e-12
2.02278e-11
7.28082e-11
1.83586e-10
3.76101e-10
6.71949e-10
1.08908e-09
1.64069e-09
2.33475e-09
3.17415e-09
4.15721e-09
5.27853e-09
6.52996e-09
7.90146e-09
9.38197e-09
1.09601e-08
1.26245e-08
1.43644e-08
1.61697e-08
1.80311e-08
1.99402e-08
2.18892e-08
2.38715e-08
2.58808e-08
2.79116e-08
2.99589e-08
3.20184e-08
3.40859e-08
3.61578e-08
3.82305e-08
4.0301e-08
4.23662e-08
4.44233e-08
4.64697e-08
4.85028e-08
5.05202e-08
5.25195e-08
5.44983e-08
5.64545e-08
5.83859e-08
6.02902e-08
6.21654e-08
6.40093e-08
6.582e-08
6.75953e-08
6.93333e-08
7.1032e-08
7.26894e-08
7.43036e-08
7.58727e-08
7.73947e-08
7.88678e-08
8.02901e-08
8.16598e-08
8.29751e-08
8.42342e-08
8.54353e-08
8.65767e-08
8.76567e-08
8.86736e-08
8.96256e-08
9.05113e-08
9.13289e-08
9.20768e-08
9.27535e-08
9.33575e-08
9.38873e-08
9.43414e-08
9.47185e-08
9.5017e-08
9.52359e-08
9.53736e-08
9.54291e-08
9.54012e-08
9.52896e-08
9.50914e-08
9.48068e-08
9.44347e-08
9.39743e-08
9.34248e-08
9.27856e-08
9.20562e-08
9.12361e-08
9.03249e-08
8.93224e-08
8.82286e-08
8.70434e-08
8.5767e-08
8.43997e-08
8.2942e-08
8.13945e-08
7.97581e-08
7.80338e-08
7.62228e-08
7.43266e-08
7.23468e-08
7.02854e-08
6.81445e-08
6.59267e-08
6.36349e-08
6.12721e-08
5.88422e-08
5.63491e-08
5.37975e-08
5.11924e-08
4.85396e-08
4.58455e-08
4.31171e-08
4.03624e-08
3.75905e-08
3.48113e-08
3.20359e-08
2.92767e-08
2.65474e-08
2.38629e-08
2.12397e-08
1.86954e-08
1.6249e-08
1.39199e-08
1.17283e-08
9.69396e-09
7.83557e-09
6.16962e-09
4.70924e-09
3.46287e-09
2.43295e-09
1.61491e-09
9.96552e-10
5.5801e-10
2.7255e-10
1.08174e-10
3.00783e-11
3.91027e-12
2.28259e-14
1.72226e-14
2.95217e-12
2.27405e-11
8.19523e-11
2.07018e-10
4.25129e-10
7.6182e-10
1.23908e-09
1.87407e-09
2.67837e-09
3.65797e-09
4.81354e-09
6.14127e-09
7.63366e-09
9.28061e-09
1.10702e-08
1.29896e-08
1.50257e-08
1.71654e-08
1.93963e-08
2.17066e-08
2.40856e-08
2.6523e-08
2.90099e-08
3.1538e-08
3.40997e-08
3.66883e-08
3.92975e-08
4.19218e-08
4.4556e-08
4.71953e-08
4.98353e-08
5.24719e-08
5.51013e-08
5.77197e-08
6.03237e-08
6.291e-08
6.54754e-08
6.80167e-08
7.0531e-08
7.30152e-08
7.54666e-08
7.78823e-08
8.02595e-08
8.25955e-08
8.48877e-08
8.71333e-08
8.93297e-08
9.14743e-08
9.35646e-08
9.5598e-08
9.7572e-08
9.94841e-08
1.01332e-07
1.03113e-07
1.04825e-07
1.06465e-07
1.08031e-07
1.09521e-07
1.10932e-07
1.12263e-07
1.1351e-07
1.14672e-07
1.15746e-07
1.16731e-07
1.17624e-07
1.18424e-07
1.19127e-07
1.19733e-07
1.20238e-07
1.20643e-07
1.20943e-07
1.21139e-07
1.21227e-07
1.21208e-07
1.21079e-07
1.20837e-07
1.20483e-07
1.20014e-07
1.1943e-07
1.1873e-07
1.17912e-07
1.16977e-07
1.15922e-07
1.14748e-07
1.13454e-07
1.1204e-07
1.10507e-07
1.08854e-07
1.07081e-07
1.0519e-07
1.03181e-07
1.01055e-07
9.88145e-08
9.64601e-08
9.39941e-08
9.14191e-08
8.87377e-08
8.59532e-08
8.30691e-08
8.00895e-08
7.7019e-08
7.3863e-08
7.06273e-08
6.73185e-08
6.3944e-08
6.05122e-08
5.70322e-08
5.35144e-08
4.99704e-08
4.64127e-08
4.28556e-08
3.93147e-08
3.5807e-08
3.23512e-08
2.89673e-08
2.56771e-08
2.25032e-08
1.94693e-08
1.65994e-08
1.39173e-08
1.14455e-08
9.20435e-09
7.21066e-09
5.47651e-09
4.0078e-09
2.80311e-09
1.85293e-09
1.13923e-09
6.35904e-10
3.09808e-10
1.22726e-10
3.40804e-11
4.42734e-12
2.58376e-14
1.91139e-14
3.27693e-12
2.52545e-11
9.10921e-11
2.30407e-10
4.73989e-10
8.51229e-10
1.38808e-09
2.10557e-09
3.01893e-09
4.1373e-09
5.46393e-09
6.99684e-09
8.72963e-09
1.06525e-08
1.27532e-08
1.50177e-08
1.74315e-08
1.99798e-08
2.26478e-08
2.54215e-08
2.82877e-08
3.1234e-08
3.42489e-08
3.7322e-08
4.04437e-08
4.36051e-08
4.67982e-08
5.00156e-08
5.32506e-08
5.64969e-08
5.97488e-08
6.30008e-08
6.62478e-08
6.94852e-08
7.27082e-08
7.59126e-08
7.90943e-08
8.22491e-08
8.53732e-08
8.84629e-08
9.15144e-08
9.4524e-08
9.74883e-08
1.00404e-07
1.03267e-07
1.06074e-07
1.08823e-07
1.11508e-07
1.14129e-07
1.1668e-07
1.19159e-07
1.21562e-07
1.23887e-07
1.2613e-07
1.28289e-07
1.30359e-07
1.32339e-07
1.34224e-07
1.36012e-07
1.377e-07
1.39285e-07
1.40765e-07
1.42135e-07
1.43394e-07
1.44539e-07
1.45566e-07
1.46474e-07
1.47259e-07
1.4792e-07
1.48453e-07
1.48856e-07
1.49126e-07
1.49263e-07
1.49262e-07
1.49124e-07
1.48844e-07
1.48422e-07
1.47855e-07
1.47142e-07
1.46282e-07
1.45273e-07
1.44114e-07
1.42805e-07
1.41344e-07
1.39731e-07
1.37966e-07
1.36048e-07
1.33978e-07
1.31757e-07
1.29385e-07
1.26863e-07
1.24194e-07
1.21378e-07
1.18418e-07
1.15317e-07
1.12078e-07
1.08705e-07
1.05203e-07
1.01576e-07
9.783e-08
9.39715e-08
9.00077e-08
8.59469e-08
8.17982e-08
7.75718e-08
7.32793e-08
6.89333e-08
6.4548e-08
6.0139e-08
5.57235e-08
5.13205e-08
4.69504e-08
4.26357e-08
3.84004e-08
3.42701e-08
3.02717e-08
2.64331e-08
2.27826e-08
1.93483e-08
1.61571e-08
1.32336e-08
1.05991e-08
8.27006e-09
6.25668e-09
4.56173e-09
3.17949e-09
2.09509e-09
1.28454e-09
7.15321e-10
3.47836e-10
1.37593e-10
3.81716e-11
4.95612e-12
2.89178e-14
2.09974e-14
3.60029e-12
2.77564e-11
1.0018e-10
2.53637e-10
5.22446e-10
9.39759e-10
1.53537e-09
2.33408e-09
3.35465e-09
4.60937e-09
6.10412e-09
7.83889e-09
9.80859e-09
1.2004e-08
1.44128e-08
1.70204e-08
1.9811e-08
2.27681e-08
2.58753e-08
2.91164e-08
3.24759e-08
3.59393e-08
3.94927e-08
4.31236e-08
4.68202e-08
5.05716e-08
5.43679e-08
5.81999e-08
6.20592e-08
6.5938e-08
6.98289e-08
7.37253e-08
7.76206e-08
8.15089e-08
8.53846e-08
8.9242e-08
9.30762e-08
9.6882e-08
1.00655e-07
1.04389e-07
1.08081e-07
1.11726e-07
1.1532e-07
1.18857e-07
1.22335e-07
1.25748e-07
1.29093e-07
1.32365e-07
1.3556e-07
1.38674e-07
1.41704e-07
1.44644e-07
1.47491e-07
1.50242e-07
1.52891e-07
1.55436e-07
1.57872e-07
1.60196e-07
1.62403e-07
1.64491e-07
1.66454e-07
1.6829e-07
1.69994e-07
1.71564e-07
1.72995e-07
1.74285e-07
1.75428e-07
1.76423e-07
1.77266e-07
1.77953e-07
1.78481e-07
1.78848e-07
1.7905e-07
1.79085e-07
1.78951e-07
1.78643e-07
1.78159e-07
1.77498e-07
1.76657e-07
1.75634e-07
1.74428e-07
1.73037e-07
1.71459e-07
1.69695e-07
1.67742e-07
1.65602e-07
1.63272e-07
1.60755e-07
1.5805e-07
1.55159e-07
1.52083e-07
1.48824e-07
1.45385e-07
1.41768e-07
1.37977e-07
1.34018e-07
1.29893e-07
1.25611e-07
1.21176e-07
1.16598e-07
1.11884e-07
1.07044e-07
1.02089e-07
9.7032e-08
9.18855e-08
8.6665e-08
8.13873e-08
7.60709e-08
7.07361e-08
6.5405e-08
6.01019e-08
5.48529e-08
4.96859e-08
4.46306e-08
3.97182e-08
3.49811e-08
3.0452e-08
2.61638e-08
2.21481e-08
1.84345e-08
1.50493e-08
1.2014e-08
9.34405e-09
7.0474e-09
5.12324e-09
3.56119e-09
2.34086e-09
1.43214e-09
7.96062e-10
3.8653e-10
1.52731e-10
4.23395e-11
5.49496e-12
3.2057e-14
2.28637e-14
3.92064e-12
3.0234e-11
1.09174e-10
2.766e-10
5.70282e-10
1.02702e-09
1.68032e-09
2.55859e-09
3.684e-09
5.07189e-09
6.73069e-09
8.66241e-09
1.08633e-08
1.3325e-08
1.60353e-08
1.89792e-08
2.21399e-08
2.54998e-08
2.90406e-08
3.27445e-08
3.65939e-08
4.05721e-08
4.46634e-08
4.88529e-08
5.31268e-08
5.74724e-08
6.18778e-08
6.63321e-08
7.08251e-08
7.53473e-08
7.98901e-08
8.44451e-08
8.90048e-08
9.35617e-08
9.81091e-08
1.0264e-07
1.07149e-07
1.11629e-07
1.16075e-07
1.20481e-07
1.24841e-07
1.2915e-07
1.33403e-07
1.37594e-07
1.41718e-07
1.4577e-07
1.49745e-07
1.53638e-07
1.57444e-07
1.61157e-07
1.64774e-07
1.68288e-07
1.71696e-07
1.74992e-07
1.78171e-07
1.81229e-07
1.84161e-07
1.86961e-07
1.89626e-07
1.9215e-07
1.94529e-07
1.96758e-07
1.98833e-07
2.00749e-07
2.02501e-07
2.04085e-07
2.05497e-07
2.06731e-07
2.07785e-07
2.08654e-07
2.09334e-07
2.09821e-07
2.10111e-07
2.102e-07
2.10086e-07
2.09765e-07
2.09232e-07
2.08486e-07
2.07523e-07
2.06342e-07
2.04939e-07
2.03314e-07
2.01463e-07
1.99387e-07
1.97083e-07
1.94552e-07
1.91793e-07
1.88807e-07
1.85594e-07
1.82156e-07
1.78494e-07
1.74612e-07
1.70512e-07
1.66198e-07
1.61675e-07
1.56949e-07
1.52026e-07
1.46913e-07
1.41621e-07
1.36157e-07
1.30534e-07
1.24763e-07
1.1886e-07
1.12839e-07
1.06718e-07
1.00517e-07
9.42556e-08
8.79584e-08
8.16506e-08
7.53597e-08
6.91154e-08
6.29498e-08
5.68966e-08
5.09914e-08
4.52709e-08
3.97729e-08
3.4535e-08
2.9594e-08
2.49851e-08
2.07399e-08
1.68859e-08
1.34445e-08
1.04297e-08
7.84677e-09
5.69108e-09
3.94739e-09
2.58969e-09
1.58169e-09
8.77933e-10
4.25793e-10
1.68099e-10
4.65725e-11
6.04231e-12
3.5246e-14
2.47044e-14
4.23656e-12
3.26763e-11
1.18033e-10
2.99197e-10
6.17298e-10
1.11266e-09
1.82233e-09
2.77819e-09
4.00563e-09
5.52285e-09
7.34076e-09
9.46329e-09
1.18881e-08
1.46077e-08
1.76099e-08
2.08798e-08
2.43997e-08
2.81509e-08
3.21139e-08
3.62691e-08
4.05972e-08
4.50796e-08
4.96987e-08
5.44376e-08
5.92807e-08
6.42134e-08
6.9222e-08
7.42939e-08
7.94172e-08
8.45811e-08
8.97753e-08
9.49902e-08
1.00217e-07
1.05447e-07
1.10671e-07
1.15884e-07
1.21076e-07
1.26241e-07
1.31372e-07
1.36463e-07
1.41506e-07
1.46495e-07
1.51425e-07
1.56289e-07
1.6108e-07
1.65793e-07
1.70421e-07
1.7496e-07
1.79402e-07
1.83742e-07
1.87973e-07
1.92091e-07
1.96089e-07
1.99961e-07
2.03702e-07
2.07305e-07
2.10764e-07
2.14075e-07
2.17231e-07
2.20226e-07
2.23054e-07
2.25711e-07
2.28189e-07
2.30485e-07
2.32591e-07
2.34502e-07
2.36214e-07
2.3772e-07
2.39015e-07
2.40095e-07
2.40954e-07
2.41586e-07
2.41988e-07
2.42155e-07
2.42083e-07
2.41769e-07
2.41204e-07
2.40388e-07
2.39316e-07
2.37986e-07
2.36395e-07
2.3454e-07
2.32419e-07
2.30031e-07
2.27373e-07
2.24446e-07
2.21249e-07
2.17781e-07
2.14046e-07
2.10043e-07
2.05775e-07
2.01246e-07
1.9646e-07
1.91421e-07
1.86135e-07
1.80609e-07
1.74853e-07
1.68874e-07
1.62684e-07
1.56296e-07
1.49723e-07
1.42981e-07
1.36088e-07
1.29062e-07
1.21927e-07
1.14704e-07
1.07421e-07
1.00107e-07
9.27911e-08
8.55077e-08
7.82924e-08
7.1183e-08
6.42194e-08
5.7443e-08
5.08963e-08
4.46221e-08
3.86627e-08
3.3059e-08
2.78487e-08
2.30656e-08
1.8738e-08
1.48869e-08
1.15244e-08
8.65305e-09
6.26406e-09
4.3373e-09
2.84107e-09
1.73286e-09
9.60745e-10
4.65527e-10
1.83658e-10
5.08593e-11
6.59671e-12
3.84762e-14
2.65122e-14
4.54679e-12
3.50738e-11
1.26723e-10
3.21343e-10
6.63316e-10
1.19636e-09
1.9609e-09
2.99209e-09
4.31834e-09
5.96054e-09
7.93189e-09
1.02381e-08
1.28783e-08
1.58455e-08
1.91281e-08
2.27108e-08
2.65758e-08
3.0703e-08
3.50719e-08
3.96615e-08
4.44509e-08
4.942e-08
5.45493e-08
5.98203e-08
6.52156e-08
7.07189e-08
7.63149e-08
8.19894e-08
8.77292e-08
9.35218e-08
9.93557e-08
1.0522e-07
1.11104e-07
1.16999e-07
1.22895e-07
1.28783e-07
1.34656e-07
1.40504e-07
1.4632e-07
1.52097e-07
1.57826e-07
1.63501e-07
1.69114e-07
1.74659e-07
1.80127e-07
1.85512e-07
1.90808e-07
1.96006e-07
2.01101e-07
2.06085e-07
2.10951e-07
2.15693e-07
2.20303e-07
2.24775e-07
2.29101e-07
2.33275e-07
2.3729e-07
2.41139e-07
2.44814e-07
2.48309e-07
2.51618e-07
2.54732e-07
2.57645e-07
2.60351e-07
2.62843e-07
2.65113e-07
2.67156e-07
2.68964e-07
2.70531e-07
2.71852e-07
2.72918e-07
2.73725e-07
2.74267e-07
2.74538e-07
2.74532e-07
2.74248e-07
2.73673e-07
2.72807e-07
2.71645e-07
2.70184e-07
2.68418e-07
2.66346e-07
2.63964e-07
2.61271e-07
2.58264e-07
2.54944e-07
2.51308e-07
2.47358e-07
2.43094e-07
2.3852e-07
2.33636e-07
2.28449e-07
2.22961e-07
2.1718e-07
2.11112e-07
2.04766e-07
1.98153e-07
1.91284e-07
1.84172e-07
1.76832e-07
1.69281e-07
1.6154e-07
1.53627e-07
1.45569e-07
1.3739e-07
1.29119e-07
1.20787e-07
1.1243e-07
1.04082e-07
9.57838e-08
8.7577e-08
7.95055e-08
7.16154e-08
6.39538e-08
5.65689e-08
4.95086e-08
4.28198e-08
3.65468e-08
3.07301e-08
2.54053e-08
2.06012e-08
1.6338e-08
1.2626e-08
9.46462e-09
6.84106e-09
4.73014e-09
3.09448e-09
1.88534e-09
1.04431e-09
5.0564e-10
1.99371e-10
5.51892e-11
7.15676e-12
4.17394e-14
2.82807e-14
4.85023e-12
3.74178e-11
1.35214e-10
3.4296e-10
7.08179e-10
1.27783e-09
2.09557e-09
3.19958e-09
4.62109e-09
6.38348e-09
8.50203e-09
1.09841e-08
1.38299e-08
1.70334e-08
2.05831e-08
2.44636e-08
2.86567e-08
3.31415e-08
3.78965e-08
4.28995e-08
4.81282e-08
5.3561e-08
5.9177e-08
6.49561e-08
7.08796e-08
7.69294e-08
8.30891e-08
8.93429e-08
9.56762e-08
1.02075e-07
1.08528e-07
1.15021e-07
1.21544e-07
1.28085e-07
1.34636e-07
1.41185e-07
1.47723e-07
1.54242e-07
1.60733e-07
1.67187e-07
1.73595e-07
1.7995e-07
1.86243e-07
1.92466e-07
1.98611e-07
2.04671e-07
2.10637e-07
2.16501e-07
2.22256e-07
2.27893e-07
2.33405e-07
2.38784e-07
2.44021e-07
2.49108e-07
2.54039e-07
2.58803e-07
2.63394e-07
2.67803e-07
2.72021e-07
2.76042e-07
2.79856e-07
2.83455e-07
2.86831e-07
2.89977e-07
2.92883e-07
2.95542e-07
2.97945e-07
3.00086e-07
3.01956e-07
3.03547e-07
3.04852e-07
3.05864e-07
3.06574e-07
3.06978e-07
3.07066e-07
3.06837e-07
3.0628e-07
3.05389e-07
3.0416e-07
3.02588e-07
3.00668e-07
2.98397e-07
2.95772e-07
2.92789e-07
2.89446e-07
2.85742e-07
2.81676e-07
2.7725e-07
2.72463e-07
2.67319e-07
2.6182e-07
2.55971e-07
2.49778e-07
2.43248e-07
2.36391e-07
2.29215e-07
2.21734e-07
2.13961e-07
2.05912e-07
1.97605e-07
1.89061e-07
1.80302e-07
1.71354e-07
1.62245e-07
1.53005e-07
1.43668e-07
1.34272e-07
1.24855e-07
1.1546e-07
1.06134e-07
9.69233e-08
8.78788e-08
7.90525e-08
7.04977e-08
6.22679e-08
5.4416e-08
4.69935e-08
4.00476e-08
3.36219e-08
2.77535e-08
2.24713e-08
1.77947e-08
1.37322e-08
1.02799e-08
7.42094e-09
5.12514e-09
3.3494e-09
2.0388e-09
1.12845e-09
5.4604e-10
2.152e-10
5.95518e-11
7.72108e-12
4.50276e-14
3.00046e-14
5.14596e-12
3.97014e-11
1.43481e-10
3.63983e-10
7.51754e-10
1.35685e-09
2.22593e-09
3.40005e-09
4.91301e-09
6.79044e-09
9.04944e-09
1.16989e-08
1.474e-08
1.81672e-08
2.19694e-08
2.61311e-08
3.06336e-08
3.54554e-08
4.05739e-08
4.5966e-08
5.16083e-08
5.74778e-08
6.35525e-08
6.98109e-08
7.62329e-08
8.27994e-08
8.94925e-08
9.62954e-08
1.03192e-07
1.10168e-07
1.1721e-07
1.24304e-07
1.31437e-07
1.386e-07
1.45779e-07
1.52965e-07
1.60147e-07