/*--------------------------------*- C++ -*----------------------------------*\
  =========                 |
  \\      /  F ield         | OpenFOAM: The Open Source CFD Toolbox
   \\    /   O peration     | Website:  https://openfoam.org
    \\  /    A nd           | Version:  12
     \\/     M anipulation  |
\*---------------------------------------------------------------------------*/
FoamFile
{
    format      ascii;
    class       volScalarField;
    location    "6.5";
    object      p;
}
// * * * * * * * * * * * * * * * * * * * * * * * * * * * * * * * * * * * * * //

dimensions      [0 2 -2 0 0 0 0];

internalField   nonuniform List<scalar> 
18225
(
2.04258e-08
-1.41964e-07
-1.78731e-07
3.08054e-08
4.9732e-07
1.20925e-06
2.15095e-06
3.30311e-06
4.64296e-06
6.14624e-06
7.78815e-06
9.54452e-06
1.13918e-05
1.33075e-05
1.52702e-05
1.72599e-05
1.92576e-05
2.12456e-05
2.32072e-05
2.5127e-05
2.69907e-05
2.87849e-05
3.04973e-05
3.21165e-05
3.36321e-05
3.50346e-05
3.63153e-05
3.74664e-05
3.8481e-05
3.93528e-05
4.00764e-05
4.06472e-05
4.10614e-05
4.13155e-05
4.14072e-05
4.13347e-05
4.10967e-05
4.06926e-05
4.01226e-05
3.93872e-05
3.84878e-05
3.74259e-05
3.62041e-05
3.48249e-05
3.32917e-05
3.16082e-05
2.97786e-05
2.78072e-05
2.56991e-05
2.34595e-05
2.1094e-05
1.86085e-05
1.60091e-05
1.33022e-05
1.04944e-05
7.59263e-06
4.60375e-06
1.53496e-06
-1.60649e-06
-4.81322e-06
-8.0778e-06
-1.13927e-05
-1.47504e-05
-1.81433e-05
-2.15639e-05
-2.50046e-05
-2.8458e-05
-3.19165e-05
-3.53728e-05
-3.88195e-05
-4.22495e-05
-4.56556e-05
-4.90309e-05
-5.23685e-05
-5.56618e-05
-5.8904e-05
-6.20889e-05
-6.52102e-05
-6.82618e-05
-7.12378e-05
-7.41326e-05
-7.69406e-05
-7.96566e-05
-8.22753e-05
-8.4792e-05
-8.72019e-05
-8.95005e-05
-9.16836e-05
-9.37471e-05
-9.56873e-05
-9.75006e-05
-9.91837e-05
-0.000100733
-0.000102147
-0.000103422
-0.000104556
-0.000105548
-0.000106395
-0.000107096
-0.00010765
-0.000108057
-0.000108316
-0.000108428
-0.000108392
-0.000108211
-0.000107885
-0.000107417
-0.000106809
-0.000106065
-0.000105188
-0.000104183
-0.000103055
-0.00010181
-0.000100456
-9.90006e-05
-9.74525e-05
-9.58222e-05
-9.41212e-05
-9.23621e-05
-9.05594e-05
-8.87287e-05
-8.68876e-05
-8.50554e-05
-8.32532e-05
-8.15043e-05
-7.98339e-05
-7.82688e-05
-7.6838e-05
-7.55713e-05
-7.44988e-05
-7.36494e-05
-7.30501e-05
-7.27283e-05
-7.26939e-05
-7.28401e-05
3.56687e-09
-1.85136e-07
-2.36139e-07
-4.77064e-08
3.70208e-07
9.9798e-07
1.82002e-06
2.82032e-06
3.98064e-06
5.28164e-06
6.70345e-06
8.22628e-06
9.83062e-06
1.14976e-05
1.3209e-05
1.49474e-05
1.66962e-05
1.84397e-05
2.01631e-05
2.18523e-05
2.34944e-05
2.50771e-05
2.65891e-05
2.80197e-05
2.93594e-05
3.0599e-05
3.17306e-05
3.27466e-05
3.36404e-05
3.44061e-05
3.50385e-05
3.5533e-05
3.58859e-05
3.60938e-05
3.61542e-05
3.60653e-05
3.58257e-05
3.54347e-05
3.4892e-05
3.41982e-05
3.33542e-05
3.23613e-05
3.12215e-05
2.99372e-05
2.85113e-05
2.69471e-05
2.52481e-05
2.34186e-05
2.14628e-05
1.93855e-05
1.71918e-05
1.4887e-05
1.24768e-05
9.96687e-06
7.36336e-06
4.6725e-06
1.9007e-06
-9.45488e-07
-3.85938e-06
-6.83419e-06
-9.86304e-06
-1.2939e-05
-1.60551e-05
-1.92044e-05
-2.23798e-05
-2.55744e-05
-2.87812e-05
-3.19933e-05
-3.52038e-05
-3.84059e-05
-4.15929e-05
-4.47582e-05
-4.78954e-05
-5.09979e-05
-5.40597e-05
-5.70745e-05
-6.00364e-05
-6.29396e-05
-6.57784e-05
-6.85473e-05
-7.12411e-05
-7.38546e-05
-7.63829e-05
-7.88213e-05
-8.11651e-05
-8.34101e-05
-8.55521e-05
-8.75872e-05
-8.95117e-05
-9.13221e-05
-9.30152e-05
-9.4588e-05
-9.60376e-05
-9.73617e-05
-9.8558e-05
-9.96245e-05
-0.000100559
-0.000101362
-0.00010203
-0.000102564
-0.000102962
-0.000103226
-0.000103355
-0.00010335
-0.000103213
-0.000102944
-0.000102547
-0.000102024
-0.000101379
-0.000100614
-9.97356e-05
-9.87481e-05
-9.76577e-05
-9.64712e-05
-9.51964e-05
-9.38418e-05
-9.24169e-05
-9.09326e-05
-8.94005e-05
-8.78335e-05
-8.62459e-05
-8.46532e-05
-8.30722e-05
-8.15211e-05
-8.00196e-05
-7.85883e-05
-7.72496e-05
-7.60263e-05
-7.49424e-05
-7.4021e-05
-7.32849e-05
-7.27572e-05
-7.24657e-05
-7.2429e-05
-7.25572e-05
-9.88739e-07
-1.12928e-06
-1.13346e-06
-9.16277e-07
-4.96756e-07
1.02062e-07
8.6474e-07
1.77729e-06
2.82466e-06
3.99106e-06
5.26031e-06
6.61621e-06
8.04265e-06
9.52382e-06
1.10443e-05
1.25891e-05
1.41439e-05
1.56949e-05
1.72289e-05
1.87336e-05
2.01971e-05
2.16084e-05
2.29572e-05
2.42336e-05
2.54289e-05
2.65346e-05
2.75432e-05
2.84476e-05
2.92418e-05
2.99199e-05
3.04772e-05
3.09091e-05
3.1212e-05
3.13828e-05
3.14189e-05
3.13184e-05
3.108e-05
3.07026e-05
3.01862e-05
2.95308e-05
2.87372e-05
2.78066e-05
2.67407e-05
2.55415e-05
2.42115e-05
2.27538e-05
2.11715e-05
1.94683e-05
1.76483e-05
1.57158e-05
1.36753e-05
1.15317e-05
9.29025e-06
6.9562e-06
4.53514e-06
2.03282e-06
-5.44851e-07
-3.19182e-06
-5.90191e-06
-8.66884e-06
-1.14863e-05
-1.43477e-05
-1.72468e-05
-2.0177e-05
-2.31318e-05
-2.61047e-05
-2.90893e-05
-3.2079e-05
-3.50676e-05
-3.80487e-05
-4.1016e-05
-4.39634e-05
-4.68849e-05
-4.97745e-05
-5.26263e-05
-5.54347e-05
-5.81941e-05
-6.08991e-05
-6.35444e-05
-6.6125e-05
-6.86359e-05
-7.10723e-05
-7.34297e-05
-7.57037e-05
-7.789e-05
-7.99847e-05
-8.19838e-05
-8.3884e-05
-8.56816e-05
-8.73736e-05
-8.8957e-05
-9.04291e-05
-9.17873e-05
-9.30295e-05
-9.41537e-05
-9.51581e-05
-9.60414e-05
-9.68023e-05
-9.744e-05
-9.7954e-05
-9.83442e-05
-9.86106e-05
-9.87537e-05
-9.87746e-05
-9.86745e-05
-9.84552e-05
-9.8119e-05
-9.76686e-05
-9.71072e-05
-9.64386e-05
-9.56673e-05
-9.47983e-05
-9.38372e-05
-9.27905e-05
-9.16654e-05
-9.04697e-05
-8.92122e-05
-8.79026e-05
-8.65514e-05
-8.517e-05
-8.37709e-05
-8.23675e-05
-8.09742e-05
-7.96063e-05
-7.82799e-05
-7.70123e-05
-7.5821e-05
-7.47243e-05
-7.37409e-05
-7.2889e-05
-7.21866e-05
-7.16529e-05
-7.13127e-05
-7.11869e-05
-7.12147e-05
-3.02286e-06
-3.03397e-06
-2.91182e-06
-2.60318e-06
-2.12383e-06
-1.49275e-06
-7.23638e-07
1.7121e-07
1.17883e-06
2.28593e-06
3.47892e-06
4.74425e-06
6.06832e-06
7.43772e-06
8.83925e-06
1.02601e-05
1.16877e-05
1.311e-05
1.45154e-05
1.5893e-05
1.72321e-05
1.85228e-05
1.97557e-05
2.0922e-05
2.20135e-05
2.30226e-05
2.39421e-05
2.47657e-05
2.54876e-05
2.61024e-05
2.66054e-05
2.69927e-05
2.72605e-05
2.74061e-05
2.74268e-05
2.73208e-05
2.70867e-05
2.67237e-05
2.62313e-05
2.56098e-05
2.48596e-05
2.39819e-05
2.2978e-05
2.185e-05
2.06e-05
1.92307e-05
1.77453e-05
1.61469e-05
1.44394e-05
1.26268e-05
1.07132e-05
8.70325e-06
6.60169e-06
4.41351e-06
2.14389e-06
-2.01804e-07
-2.61806e-06
-5.09923e-06
-7.63954e-06
-1.02331e-05
-1.2874e-05
-1.55562e-05
-1.82737e-05
-2.10204e-05
-2.37901e-05
-2.65769e-05
-2.93747e-05
-3.21773e-05
-3.49789e-05
-3.77736e-05
-4.05554e-05
-4.33186e-05
-4.60575e-05
-4.87666e-05
-5.14404e-05
-5.40736e-05
-5.66609e-05
-5.91974e-05
-6.16781e-05
-6.40982e-05
-6.64532e-05
-6.87386e-05
-7.09501e-05
-7.30837e-05
-7.51354e-05
-7.71015e-05
-7.89785e-05
-8.07631e-05
-8.24521e-05
-8.40426e-05
-8.55319e-05
-8.69176e-05
-8.81972e-05
-8.93689e-05
-9.04308e-05
-9.13815e-05
-9.22196e-05
-9.29442e-05
-9.35545e-05
-9.40502e-05
-9.44312e-05
-9.46976e-05
-9.48501e-05
-9.48897e-05
-9.48176e-05
-9.46355e-05
-9.43456e-05
-9.39506e-05
-9.34534e-05
-9.28576e-05
-9.21674e-05
-9.13872e-05
-9.05224e-05
-8.95788e-05
-8.85628e-05
-8.74815e-05
-8.63426e-05
-8.51548e-05
-8.39272e-05
-8.26697e-05
-8.1393e-05
-8.01085e-05
-7.88284e-05
-7.75653e-05
-7.63327e-05
-7.51445e-05
-7.4015e-05
-7.29588e-05
-7.19907e-05
-7.11254e-05
-7.03775e-05
-6.97621e-05
-6.92953e-05
-6.89914e-05
-6.88353e-05
-5.89335e-06
-5.71514e-06
-5.40097e-06
-4.94399e-06
-4.35287e-06
-3.63871e-06
-2.81213e-06
-1.88353e-06
-8.63677e-07
2.36425e-07
1.40552e-06
2.63229e-06
3.90532e-06
5.21329e-06
6.54494e-06
7.88926e-06
9.23542e-06
1.05729e-05
1.18917e-05
1.31818e-05
1.44341e-05
1.56395e-05
1.67896e-05
1.78765e-05
1.88927e-05
1.98312e-05
2.06856e-05
2.145e-05
2.21189e-05
2.26876e-05
2.31515e-05
2.3507e-05
2.37506e-05
2.38796e-05
2.38917e-05
2.3785e-05
2.35583e-05
2.32106e-05
2.27417e-05
2.21515e-05
2.14407e-05
2.06102e-05
1.96612e-05
1.85957e-05
1.74156e-05
1.61235e-05
1.47222e-05
1.32149e-05
1.1605e-05
9.89625e-06
8.0927e-06
6.19857e-06
4.21836e-06
2.15674e-06
1.86006e-08
-2.19102e-06
-4.46693e-06
-6.80381e-06
-9.19621e-06
-1.16386e-05
-1.41254e-05
-1.6651e-05
-1.92096e-05
-2.17955e-05
-2.44031e-05
-2.70265e-05
-2.966e-05
-3.22981e-05
-3.4935e-05
-3.75652e-05
-4.01832e-05
-4.27835e-05
-4.5361e-05
-4.79102e-05
-5.04262e-05
-5.29038e-05
-5.53383e-05
-5.77249e-05
-6.0059e-05
-6.23362e-05
-6.45521e-05
-6.67027e-05
-6.87839e-05
-7.0792e-05
-7.27233e-05
-7.45743e-05
-7.63418e-05
-7.80227e-05
-7.96142e-05
-8.11134e-05
-8.2518e-05
-8.38256e-05
-8.50342e-05
-8.6142e-05
-8.71472e-05
-8.80486e-05
-8.8845e-05
-8.95355e-05
-9.01195e-05
-9.05967e-05
-9.0967e-05
-9.12307e-05
-9.13883e-05
-9.14407e-05
-9.13891e-05
-9.12352e-05
-9.09808e-05
-9.06285e-05
-9.01809e-05
-8.96412e-05
-8.90131e-05
-8.83008e-05
-8.75089e-05
-8.66424e-05
-8.57071e-05
-8.47091e-05
-8.36552e-05
-8.25527e-05
-8.14095e-05
-8.02339e-05
-7.90349e-05
-7.78221e-05
-7.66054e-05
-7.53953e-05
-7.42025e-05
-7.30382e-05
-7.19138e-05
-7.08407e-05
-6.98304e-05
-6.88944e-05
-6.80439e-05
-6.72894e-05
-6.66369e-05
-6.60905e-05
-6.56945e-05
-9.40818e-06
-9.00617e-06
-8.45943e-06
-7.81415e-06
-7.07138e-06
-6.23343e-06
-5.3076e-06
-4.30242e-06
-3.22666e-06
-2.08925e-06
-8.99394e-07
3.33518e-07
1.59995e-06
2.89036e-06
4.19519e-06
5.505e-06
6.81046e-06
8.10247e-06
9.37212e-06
1.06108e-05
1.18103e-05
1.29627e-05
1.40603e-05
1.50961e-05
1.60633e-05
1.69555e-05
1.7767e-05
1.84922e-05
1.91263e-05
1.96648e-05
2.01037e-05
2.04393e-05
2.06688e-05
2.07894e-05
2.0799e-05
2.0696e-05
2.04791e-05
2.01477e-05
1.97012e-05
1.914e-05
1.84643e-05
1.76753e-05
1.67741e-05
1.57624e-05
1.46423e-05
1.34161e-05
1.20866e-05
1.06567e-05
9.12978e-06
7.50933e-06
5.79921e-06
4.00345e-06
2.12632e-06
1.72291e-07
-1.854e-06
-3.94777e-06
-6.10406e-06
-8.31782e-06
-1.05839e-05
-1.2897e-05
-1.52519e-05
-1.76431e-05
-2.00653e-05
-2.2513e-05
-2.49809e-05
-2.74634e-05
-2.99552e-05
-3.24509e-05
-3.49452e-05
-3.74328e-05
-3.99086e-05
-4.23674e-05
-4.48042e-05
-4.72141e-05
-4.95923e-05
-5.19341e-05
-5.42348e-05
-5.64901e-05
-5.86957e-05
-6.08473e-05
-6.29411e-05
-6.4973e-05
-6.69394e-05
-6.88368e-05
-7.06617e-05
-7.2411e-05
-7.40815e-05
-7.56706e-05
-7.71754e-05
-7.85934e-05
-7.99225e-05
-8.11604e-05
-8.23053e-05
-8.33554e-05
-8.43093e-05
-8.51657e-05
-8.59235e-05
-8.6582e-05
-8.71405e-05
-8.75988e-05
-8.79568e-05
-8.82146e-05
-8.83728e-05
-8.84322e-05
-8.83937e-05
-8.82589e-05
-8.80295e-05
-8.77074e-05
-8.72952e-05
-8.67956e-05
-8.62118e-05
-8.55473e-05
-8.48062e-05
-8.39928e-05
-8.3112e-05
-8.2169e-05
-8.11695e-05
-8.01196e-05
-7.90259e-05
-7.78953e-05
-7.67352e-05
-7.55533e-05
-7.43578e-05
-7.31569e-05
-7.19592e-05
-7.07734e-05
-6.96084e-05
-6.84728e-05
-6.73754e-05
-6.63248e-05
-6.53297e-05
-6.43961e-05
-6.35191e-05
-6.2694e-05
-6.20293e-05
-1.33955e-05
-1.27526e-05
-1.19504e-05
-1.10909e-05
-1.01682e-05
-9.17594e-06
-8.1185e-06
-7.00283e-06
-5.83602e-06
-4.62522e-06
-3.3779e-06
-2.10179e-06
-8.04848e-07
5.04896e-07
1.81933e-06
3.13036e-06
4.42996e-06
5.71021e-06
6.96335e-06
8.18183e-06
9.35833e-06
1.04858e-05
1.15575e-05
1.2567e-05
1.35083e-05
1.43756e-05
1.51636e-05
1.58675e-05
1.64827e-05
1.70052e-05
1.74312e-05
1.77576e-05
1.79816e-05
1.81008e-05
1.81133e-05
1.80176e-05
1.78126e-05
1.74976e-05
1.70725e-05
1.65373e-05
1.58926e-05
1.51395e-05
1.4279e-05
1.3313e-05
1.22433e-05
1.10724e-05
9.80281e-06
8.43747e-06
6.97959e-06
5.43261e-06
3.80023e-06
2.08634e-06
2.95078e-07
-1.56927e-06
-3.50223e-06
-5.4992e-06
-7.55542e-06
-9.66603e-06
-1.18261e-05
-1.40306e-05
-1.62743e-05
-1.85523e-05
-2.08592e-05
-2.319e-05
-2.55394e-05
-2.79023e-05
-3.02735e-05
-3.26479e-05
-3.50204e-05
-3.73861e-05
-3.97401e-05
-4.20774e-05
-4.43933e-05
-4.66833e-05
-4.89426e-05
-5.1167e-05
-5.33521e-05
-5.54936e-05
-5.75877e-05
-5.96303e-05
-6.16176e-05
-6.35462e-05
-6.54124e-05
-6.7213e-05
-6.89448e-05
-7.06048e-05
-7.21903e-05
-7.36984e-05
-7.51268e-05
-7.64731e-05
-7.77352e-05
-7.8911e-05
-7.99989e-05
-8.09973e-05
-8.19046e-05
-8.27199e-05
-8.3442e-05
-8.40702e-05
-8.46038e-05
-8.50427e-05
-8.53866e-05
-8.56356e-05
-8.57902e-05
-8.58509e-05
-8.58186e-05
-8.56946e-05
-8.54801e-05
-8.5177e-05
-8.47872e-05
-8.43132e-05
-8.37575e-05
-8.31231e-05
-8.24133e-05
-8.16318e-05
-8.07825e-05
-7.98698e-05
-7.88984e-05
-7.78732e-05
-7.67995e-05
-7.56829e-05
-7.45294e-05
-7.33451e-05
-7.21363e-05
-7.09095e-05
-6.96714e-05
-6.84286e-05
-6.71877e-05
-6.59552e-05
-6.47374e-05
-6.35406e-05
-6.23716e-05
-6.12326e-05
-6.01087e-05
-5.8987e-05
-5.8042e-05
-1.77119e-05
-1.68215e-05
-1.57525e-05
-1.46632e-05
-1.35414e-05
-1.2373e-05
-1.11596e-05
-9.90732e-06
-8.62174e-06
-7.30861e-06
-5.97401e-06
-4.62431e-06
-3.26615e-06
-1.90632e-06
-5.51717e-07
7.90711e-07
2.11401e-06
3.41131e-06
4.67581e-06
5.90085e-06
7.07997e-06
8.20692e-06
9.27566e-06
1.02805e-05
1.12159e-05
1.20768e-05
1.28584e-05
1.35563e-05
1.41664e-05
1.4685e-05
1.51087e-05
1.54348e-05
1.56607e-05
1.57843e-05
1.58038e-05
1.5718e-05
1.5526e-05
1.52273e-05
1.48217e-05
1.43096e-05
1.36914e-05
1.29684e-05
1.21417e-05
1.12131e-05
1.01846e-05
9.05847e-06
7.83736e-06
6.52414e-06
5.12198e-06
3.63426e-06
2.06461e-06
4.16852e-07
-1.30498e-06
-3.0967e-06
-4.95395e-06
-6.87223e-06
-8.84694e-06
-1.08734e-05
-1.29467e-05
-1.5062e-05
-1.72145e-05
-1.93991e-05
-2.16109e-05
-2.38448e-05
-2.6096e-05
-2.83593e-05
-3.06299e-05
-3.29029e-05
-3.51735e-05
-3.74368e-05
-3.96882e-05
-4.1923e-05
-4.41368e-05
-4.63251e-05
-4.84836e-05
-5.06082e-05
-5.26946e-05
-5.47391e-05
-5.67377e-05
-5.86868e-05
-6.05828e-05
-6.24223e-05
-6.42022e-05
-6.59192e-05
-6.75704e-05
-6.9153e-05
-7.06644e-05
-7.2102e-05
-7.34636e-05
-7.47469e-05
-7.595e-05
-7.7071e-05
-7.81082e-05
-7.90602e-05
-7.99256e-05
-8.07032e-05
-8.13921e-05
-8.19916e-05
-8.2501e-05
-8.29198e-05
-8.3248e-05
-8.34855e-05
-8.36326e-05
-8.36895e-05
-8.36571e-05
-8.35362e-05
-8.33279e-05
-8.30335e-05
-8.26547e-05
-8.21933e-05
-8.16515e-05
-8.10315e-05
-8.0336e-05
-7.9568e-05
-7.87307e-05
-7.78273e-05
-7.68617e-05
-7.58377e-05
-7.47595e-05
-7.36315e-05
-7.24582e-05
-7.12444e-05
-6.99949e-05
-6.87146e-05
-6.74085e-05
-6.60814e-05
-6.47382e-05
-6.33834e-05
-6.20213e-05
-6.06567e-05
-5.92947e-05
-5.79345e-05
-5.6552e-05
-5.51275e-05
-5.39001e-05
-2.22415e-05
-2.11028e-05
-1.97626e-05
-1.84347e-05
-1.71014e-05
-1.57413e-05
-1.43542e-05
-1.29452e-05
-1.15192e-05
-1.00807e-05
-8.63479e-06
-7.18668e-06
-5.74201e-06
-4.30655e-06
-2.88625e-06
-1.48708e-06
-1.15121e-07
1.22362e-06
2.52316e-06
3.77763e-06
4.98128e-06
6.12853e-06
7.21402e-06
8.2326e-06
9.17938e-06
1.00498e-05
1.08394e-05
1.15444e-05
1.2161e-05
1.26859e-05
1.31162e-05
1.34492e-05
1.36828e-05
1.38152e-05
1.38448e-05
1.37706e-05
1.35919e-05
1.33083e-05
1.29199e-05
1.24271e-05
1.18306e-05
1.11316e-05
1.03315e-05
9.43198e-06
8.43523e-06
7.34355e-06
6.15961e-06
4.88632e-06
3.52683e-06
2.08453e-06
5.63044e-07
-1.03383e-06
-2.70211e-06
-4.43764e-06
-6.23612e-06
-8.09314e-06
-1.00042e-05
-1.19645e-05
-1.39696e-05
-1.60146e-05
-1.80947e-05
-2.0205e-05
-2.23408e-05
-2.44971e-05
-2.66691e-05
-2.88521e-05
-3.10413e-05
-3.32319e-05
-3.54192e-05
-3.75988e-05
-3.9766e-05
-4.19165e-05
-4.40459e-05
-4.61501e-05
-4.82248e-05
-5.02662e-05
-5.22703e-05
-5.42334e-05
-5.61518e-05
-5.80222e-05
-5.98411e-05
-6.16054e-05
-6.33119e-05
-6.49578e-05
-6.65403e-05
-6.80566e-05
-6.95045e-05
-7.08814e-05
-7.21852e-05
-7.34139e-05
-7.45656e-05
-7.56385e-05
-7.6631e-05
-7.75417e-05
-7.83694e-05
-7.91128e-05
-7.97711e-05
-8.03434e-05
-8.0829e-05
-8.12276e-05
-8.15387e-05
-8.17623e-05
-8.18983e-05
-8.19471e-05
-8.19089e-05
-8.17845e-05
-8.15745e-05
-8.128e-05
-8.09021e-05
-8.04422e-05
-7.99019e-05
-7.92829e-05
-7.85873e-05
-7.78172e-05
-7.6975e-05
-7.60634e-05
-7.5085e-05
-7.40429e-05
-7.29401e-05
-7.17799e-05
-7.05657e-05
-6.93009e-05
-6.79892e-05
-6.66339e-05
-6.52386e-05
-6.38069e-05
-6.23419e-05
-6.08466e-05
-5.9324e-05
-5.77772e-05
-5.62105e-05
-5.46205e-05
-5.29751e-05
-5.12479e-05
-4.97416e-05
-2.68916e-05
-2.55067e-05
-2.38948e-05
-2.23238e-05
-2.07708e-05
-1.92082e-05
-1.76341e-05
-1.60532e-05
-1.44698e-05
-1.28877e-05
-1.1311e-05
-9.74425e-06
-8.19227e-06
-6.66005e-06
-5.15276e-06
-3.67565e-06
-2.23406e-06
-8.33302e-07
5.21309e-07
1.82455e-06
3.07127e-06
4.2565e-06
5.37542e-06
6.42339e-06
7.39603e-06
8.2892e-06
9.09901e-06
9.8219e-06
1.04546e-05
1.09941e-05
1.14379e-05
1.17835e-05
1.20293e-05
1.21735e-05
1.22149e-05
1.21527e-05
1.19865e-05
1.1716e-05
1.13416e-05
1.08638e-05
1.02835e-05
9.60196e-06
8.82076e-06
7.94178e-06
6.96719e-06
5.89946e-06
4.74132e-06
3.49574e-06
2.16596e-06
7.55414e-07
-7.32257e-07
-2.29322e-06
-3.92346e-06
-5.61885e-06
-7.37508e-06
-9.18775e-06
-1.10524e-05
-1.29643e-05
-1.4919e-05
-1.69117e-05
-1.89376e-05
-2.0992e-05
-2.30702e-05
-2.51674e-05
-2.72789e-05
-2.94e-05
-3.1526e-05
-3.36524e-05
-3.57746e-05
-3.78882e-05
-3.99889e-05
-4.20723e-05
-4.41344e-05
-4.61711e-05
-4.81784e-05
-5.01526e-05
-5.20898e-05
-5.39867e-05
-5.58396e-05
-5.76454e-05
-5.94008e-05
-6.11028e-05
-6.27485e-05
-6.43352e-05
-6.58601e-05
-6.73209e-05
-6.87152e-05
-7.00408e-05
-7.12955e-05
-7.24775e-05
-7.3585e-05
-7.46163e-05
-7.55698e-05
-7.64443e-05
-7.72383e-05
-7.79508e-05
-7.85809e-05
-7.91276e-05
-7.95903e-05
-7.99684e-05
-8.02614e-05
-8.04691e-05
-8.05913e-05
-8.06281e-05
-8.05794e-05
-8.04458e-05
-8.02275e-05
-7.99252e-05
-7.95396e-05
-7.90717e-05
-7.85225e-05
-7.78932e-05
-7.71852e-05
-7.64e-05
-7.55392e-05
-7.46047e-05
-7.35984e-05
-7.25224e-05
-7.13788e-05
-7.017e-05
-6.88981e-05
-6.75656e-05
-6.61749e-05
-6.47283e-05
-6.32281e-05
-6.16767e-05
-6.0076e-05
-5.84277e-05
-5.67335e-05
-5.49957e-05
-5.32178e-05
-5.13944e-05
-4.94858e-05
-4.746e-05
-4.56806e-05
-3.1589e-05
-2.9961e-05
-2.80785e-05
-2.6262e-05
-2.44842e-05
-2.27112e-05
-2.094e-05
-1.91754e-05
-1.74212e-05
-1.56806e-05
-1.39574e-05
-1.22555e-05
-1.0579e-05
-8.9325e-06
-7.32051e-06
-5.74774e-06
-4.21895e-06
-2.73892e-06
-1.31242e-06
5.58345e-08
1.36122e-06
2.59923e-06
3.76551e-06
4.85589e-06
5.86641e-06
6.79333e-06
7.63317e-06
8.38272e-06
9.03906e-06
9.59959e-06
1.0062e-05
1.04243e-05
1.0685e-05
1.08426e-05
1.08963e-05
1.08454e-05
1.06897e-05
1.04294e-05
1.00649e-05
9.59683e-06
9.02646e-06
8.35517e-06
7.58471e-06
6.7171e-06
5.75469e-06
4.70007e-06
3.5561e-06
2.32588e-06
1.01273e-06
-3.79795e-07
-1.84798e-06
-3.38791e-06
-4.99552e-06
-6.66661e-06
-8.39685e-06
-1.01818e-05
-1.2017e-05
-1.38977e-05
-1.58194e-05
-1.77774e-05
-1.9767e-05
-2.17834e-05
-2.38219e-05
-2.58779e-05
-2.79467e-05
-3.00237e-05
-3.21043e-05
-3.41841e-05
-3.62585e-05
-3.83234e-05
-4.03745e-05
-4.24076e-05
-4.44188e-05
-4.6404e-05
-4.83596e-05
-5.02818e-05
-5.21672e-05
-5.40122e-05
-5.58136e-05
-5.75683e-05
-5.92732e-05
-6.09255e-05
-6.25223e-05
-6.40611e-05
-6.55394e-05
-6.69548e-05
-6.83052e-05
-6.95883e-05
-7.08023e-05
-7.19452e-05
-7.30155e-05
-7.40114e-05
-7.49314e-05
-7.57744e-05
-7.65389e-05
-7.72238e-05
-7.78282e-05
-7.83512e-05
-7.87919e-05
-7.91497e-05
-7.9424e-05
-7.96144e-05
-7.97205e-05
-7.97421e-05
-7.96791e-05
-7.95314e-05
-7.92993e-05
-7.89829e-05
-7.85826e-05
-7.80987e-05
-7.7532e-05
-7.6883e-05
-7.61525e-05
-7.53415e-05
-7.44509e-05
-7.34818e-05
-7.24354e-05
-7.13129e-05
-7.01157e-05
-6.88451e-05
-6.75026e-05
-6.60894e-05
-6.46072e-05
-6.30571e-05
-6.14405e-05
-5.97587e-05
-5.80125e-05
-5.62029e-05
-5.43303e-05
-5.23965e-05
-5.04044e-05
-4.83471e-05
-4.61776e-05
-4.3859e-05
-4.18136e-05
-3.62755e-05
-3.44075e-05
-3.22559e-05
-3.01926e-05
-2.81858e-05
-2.61964e-05
-2.42203e-05
-2.22624e-05
-2.03265e-05
-1.84155e-05
-1.65328e-05
-1.46819e-05
-1.28667e-05
-1.10913e-05
-9.35982e-06
-7.67656e-06
-6.04588e-06
-4.47215e-06
-2.95972e-06
-1.5129e-06
-1.35918e-07
1.16712e-06
2.39224e-06
3.53566e-06
4.59376e-06
5.56319e-06
6.4408e-06
7.22373e-06
7.90938e-06
8.49547e-06
8.98001e-06
9.36133e-06
9.63808e-06
9.80927e-06
9.87423e-06
9.83262e-06
9.68446e-06
9.43011e-06
9.07023e-06
8.60585e-06
8.0383e-06
7.36922e-06
6.60057e-06
5.73459e-06
4.77378e-06
3.72094e-06
2.57908e-06
1.35148e-06
4.16038e-08
-1.34686e-06
-2.81005e-06
-4.34394e-06
-5.94437e-06
-7.60702e-06
-9.32748e-06
-1.11013e-05
-1.29237e-05
-1.47903e-05
-1.66963e-05
-1.8637e-05
-2.06076e-05
-2.26035e-05
-2.46199e-05
-2.66522e-05
-2.86958e-05
-3.0746e-05
-3.27985e-05
-3.48487e-05
-3.68923e-05
-3.89252e-05
-4.09431e-05
-4.2942e-05
-4.49181e-05
-4.68674e-05
-4.87864e-05
-5.06715e-05
-5.25192e-05
-5.43264e-05
-5.60898e-05
-5.78064e-05
-5.94733e-05
-6.10878e-05
-6.26473e-05
-6.41492e-05
-6.55912e-05
-6.69711e-05
-6.82867e-05
-6.9536e-05
-7.07172e-05
-7.18285e-05
-7.28682e-05
-7.38348e-05
-7.47268e-05
-7.55429e-05
-7.62819e-05
-7.69427e-05
-7.75241e-05
-7.80252e-05
-7.84451e-05
-7.87831e-05
-7.90385e-05
-7.92107e-05
-7.9299e-05
-7.93031e-05
-7.92227e-05
-7.90573e-05
-7.88069e-05
-7.84713e-05
-7.80504e-05
-7.75442e-05
-7.69529e-05
-7.62767e-05
-7.55157e-05
-7.46703e-05
-7.37409e-05
-7.27278e-05
-7.16317e-05
-7.04529e-05
-6.91921e-05
-6.78499e-05
-6.64268e-05
-6.49234e-05
-6.33402e-05
-6.16778e-05
-5.99366e-05
-5.81169e-05
-5.6219e-05
-5.42427e-05
-5.21878e-05
-5.00556e-05
-4.78487e-05
-4.55587e-05
-4.31322e-05
-4.05272e-05
-3.82229e-05
-4.09054e-05
-3.87994e-05
-3.63797e-05
-3.4068e-05
-3.1829e-05
-2.9618e-05
-2.74302e-05
-2.5271e-05
-2.31441e-05
-2.10526e-05
-1.89994e-05
-1.6988e-05
-1.50221e-05
-1.31055e-05
-1.12421e-05
-9.43592e-06
-7.69107e-06
-6.01161e-06
-4.40159e-06
-2.86503e-06
-1.40583e-06
-2.78088e-08
1.26539e-06
2.47027e-06
3.58356e-06
4.60218e-06
5.52332e-06
6.3444e-06
7.06314e-06
7.67755e-06
8.18594e-06
8.58693e-06
8.87947e-06
9.06285e-06
9.13669e-06
9.10092e-06
8.95584e-06
8.70208e-06
8.34057e-06
7.8726e-06
7.29975e-06
6.62392e-06
5.8473e-06
4.97237e-06
4.00187e-06
2.9388e-06
1.78641e-06
5.48159e-07
-7.72276e-07
-2.17103e-06
-3.64407e-06
-5.18721e-06
-6.79612e-06
-8.46635e-06
-1.01934e-05
-1.19725e-05
-1.37992e-05
-1.56686e-05
-1.7576e-05
-1.95165e-05
-2.14855e-05
-2.34782e-05
-2.54898e-05
-2.75156e-05
-2.95512e-05
-3.15917e-05
-3.36329e-05
-3.56703e-05
-3.76997e-05
-3.97168e-05
-4.17175e-05
-4.3698e-05
-4.56543e-05
-4.75828e-05
-4.94799e-05
-5.13421e-05
-5.31662e-05
-5.49489e-05
-5.66873e-05
-5.83784e-05
-6.00194e-05
-6.16078e-05
-6.3141e-05
-6.46165e-05
-6.60323e-05
-6.7386e-05
-6.86758e-05
-6.98996e-05
-7.10558e-05
-7.21425e-05
-7.31582e-05
-7.41015e-05
-7.49708e-05
-7.57648e-05
-7.64824e-05
-7.71223e-05
-7.76835e-05
-7.81649e-05
-7.85656e-05
-7.88847e-05
-7.91214e-05
-7.92749e-05
-7.93444e-05
-7.93295e-05
-7.92293e-05
-7.90434e-05
-7.87712e-05
-7.84123e-05
-7.79664e-05
-7.74329e-05
-7.68115e-05
-7.61021e-05
-7.53042e-05
-7.44178e-05
-7.34426e-05
-7.23784e-05
-7.12251e-05
-6.99825e-05
-6.86506e-05
-6.72293e-05
-6.57183e-05
-6.41176e-05
-6.24268e-05
-6.06459e-05
-5.87745e-05
-5.68122e-05
-5.47584e-05
-5.26124e-05
-5.03735e-05
-4.80423e-05
-4.56214e-05
-4.31012e-05
-4.0422e-05
-3.75372e-05
-3.49807e-05
-4.54422e-05
-4.3099e-05
-4.04107e-05
-3.78487e-05
-3.53737e-05
-3.29361e-05
-3.05305e-05
-2.81628e-05
-2.58368e-05
-2.35558e-05
-2.13226e-05
-1.91408e-05
-1.70139e-05
-1.49456e-05
-1.29397e-05
-1.10002e-05
-9.13089e-06
-7.33571e-06
-5.61851e-06
-3.98308e-06
-2.43312e-06
-9.72203e-07
3.96267e-07
1.66906e-06
2.84313e-06
3.9157e-06
4.88421e-06
5.74636e-06
6.50014e-06
7.14386e-06
7.6761e-06
8.09579e-06
8.40217e-06
8.5948e-06
8.6736e-06
8.63883e-06
8.49104e-06
8.23117e-06
7.86046e-06
7.38046e-06
6.79305e-06
6.10043e-06
5.30504e-06
4.40965e-06
3.41727e-06
2.33116e-06
1.15482e-06
-1.08045e-07
-1.45351e-06
-2.8775e-06
-4.37574e-06
-5.94386e-06
-7.57731e-06
-9.27149e-06
-1.10217e-05
-1.28231e-05
-1.46709e-05
-1.65602e-05
-1.84862e-05
-2.04439e-05
-2.24285e-05
-2.44352e-05
-2.64592e-05
-2.84958e-05
-3.05402e-05
-3.2588e-05
-3.46346e-05
-3.66756e-05
-3.87069e-05
-4.07241e-05
-4.27234e-05
-4.47007e-05
-4.66524e-05
-4.85747e-05
-5.04642e-05
-5.23175e-05
-5.41314e-05
-5.59028e-05
-5.76288e-05
-5.93065e-05
-6.09334e-05
-6.25068e-05
-6.40244e-05
-6.54838e-05
-6.6883e-05
-6.82198e-05
-6.94923e-05
-7.06988e-05
-7.18374e-05
-7.29065e-05
-7.39046e-05
-7.48303e-05
-7.56821e-05
-7.64587e-05
-7.7159e-05
-7.77816e-05
-7.83255e-05
-7.87895e-05
-7.91728e-05
-7.94742e-05
-7.96928e-05
-7.98277e-05
-7.9878e-05
-7.98429e-05
-7.97215e-05
-7.9513e-05
-7.92166e-05
-7.88316e-05
-7.83571e-05
-7.77925e-05
-7.7137e-05
-7.63898e-05
-7.55503e-05
-7.46178e-05
-7.35915e-05
-7.24707e-05
-7.12548e-05
-6.99429e-05
-6.85344e-05
-6.70286e-05
-6.54246e-05
-6.37216e-05
-6.19188e-05
-6.00152e-05
-5.801e-05
-5.59021e-05
-5.36903e-05
-5.13734e-05
-4.895e-05
-4.64204e-05
-4.37874e-05
-4.10399e-05
-3.81125e-05
-3.49539e-05
-3.21514e-05
-4.98565e-05
-4.72752e-05
-4.43163e-05
-4.15008e-05
-3.87856e-05
-3.6116e-05
-3.34865e-05
-3.09032e-05
-2.83707e-05
-2.5892e-05
-2.34703e-05
-2.11092e-05
-1.88123e-05
-1.65832e-05
-1.44259e-05
-1.23442e-05
-1.03418e-05
-8.42264e-06
-6.59043e-06
-4.84884e-06
-3.2014e-06
-1.65153e-06
-2.02448e-07
1.14281e-06
2.38143e-06
3.51084e-06
4.52872e-06
5.43304e-06
6.22204e-06
6.8943e-06
7.44868e-06
7.8844e-06
8.20098e-06
8.39832e-06
8.47662e-06
8.43644e-06
8.27869e-06
8.00459e-06
7.6157e-06
7.11392e-06
6.50143e-06
5.78074e-06
4.95464e-06
4.02618e-06
2.99869e-06
1.87574e-06
6.61124e-07
-6.41166e-07
-2.02693e-06
-3.49181e-06
-5.03129e-06
-6.64073e-06
-8.31535e-06
-1.00503e-05
-1.18407e-05
-1.36815e-05
-1.55678e-05
-1.74944e-05
-1.94564e-05
-2.14487e-05
-2.34664e-05
-2.55045e-05
-2.75581e-05
-2.96224e-05
-3.16927e-05
-3.37644e-05
-3.58329e-05
-3.78939e-05
-3.9943e-05
-4.19762e-05
-4.39894e-05
-4.59787e-05
-4.79404e-05
-4.98709e-05
-5.17668e-05
-5.36247e-05
-5.54416e-05
-5.72144e-05
-5.89403e-05
-6.06165e-05
-6.22405e-05
-6.38098e-05
-6.53222e-05
-6.67754e-05
-6.81673e-05
-6.9496e-05
-7.07597e-05
-7.19565e-05
-7.30849e-05
-7.41432e-05
-7.513e-05
-7.60438e-05
-7.68833e-05
-7.76471e-05
-7.83341e-05
-7.8943e-05
-7.94726e-05
-7.99219e-05
-8.02896e-05
-8.05748e-05
-8.07764e-05
-8.08933e-05
-8.09244e-05
-8.08688e-05
-8.07253e-05
-8.0493e-05
-8.01708e-05
-7.97575e-05
-7.92522e-05
-7.86537e-05
-7.7961e-05
-7.71729e-05
-7.62883e-05
-7.5306e-05
-7.42248e-05
-7.30436e-05
-7.17611e-05
-7.03761e-05
-6.88872e-05
-6.72932e-05
-6.55927e-05
-6.37842e-05
-6.18664e-05
-5.98378e-05
-5.76968e-05
-5.54418e-05
-5.30712e-05
-5.05832e-05
-4.79759e-05
-4.52495e-05
-4.24065e-05
-3.94351e-05
-3.62638e-05
-3.28371e-05
-2.97942e-05
-5.4124e-05
-5.13017e-05
-4.80685e-05
-4.49949e-05
-4.20342e-05
-3.91268e-05
-3.62668e-05
-3.3461e-05
-3.07144e-05
-2.80303e-05
-2.54122e-05
-2.28637e-05
-2.03887e-05
-1.79909e-05
-1.56743e-05
-1.34428e-05
-1.13001e-05
-9.25023e-06
-7.29674e-06
-5.44329e-06
-3.69333e-06
-2.05015e-06
-5.16851e-07
9.03689e-07
2.20883e-06
3.39619e-06
4.46367e-06
5.40946e-06
6.23206e-06
6.93031e-06
7.50335e-06
7.95069e-06
8.27215e-06
8.46795e-06
8.53861e-06
8.48504e-06
8.30845e-06
8.01045e-06
7.59294e-06
7.05815e-06
6.40865e-06
5.64729e-06
4.77721e-06
3.80183e-06
2.72482e-06
1.5501e-06
2.818e-07
-1.07575e-06
-2.51803e-06
-4.04037e-06
-5.63793e-06
-7.3058e-06
-9.03892e-06
-1.08322e-05
-1.26804e-05
-1.45784e-05
-1.65208e-05
-1.85026e-05
-2.05183e-05
-2.2563e-05
-2.46313e-05
-2.67182e-05
-2.88188e-05
-3.0928e-05
-3.30411e-05
-3.51535e-05
-3.72604e-05
-3.93575e-05
-4.14405e-05
-4.35051e-05
-4.55474e-05
-4.75636e-05
-4.95498e-05
-5.15026e-05
-5.34186e-05
-5.52944e-05
-5.71271e-05
-5.89137e-05
-6.06514e-05
-6.23375e-05
-6.39697e-05
-6.55455e-05
-6.70627e-05
-6.85191e-05
-6.99129e-05
-7.12421e-05
-7.2505e-05
-7.36998e-05
-7.4825e-05
-7.58791e-05
-7.68606e-05
-7.77681e-05
-7.86003e-05
-7.93559e-05
-8.00337e-05
-8.06325e-05
-8.1151e-05
-8.15882e-05
-8.19427e-05
-8.22135e-05
-8.23993e-05
-8.24991e-05
-8.25116e-05
-8.24356e-05
-8.22698e-05
-8.2013e-05
-8.1664e-05
-8.12213e-05
-8.06836e-05
-8.00495e-05
-7.93176e-05
-7.84864e-05
-7.75543e-05
-7.65198e-05
-7.53813e-05
-7.41371e-05
-7.27855e-05
-7.13248e-05
-6.97531e-05
-6.80686e-05
-6.62695e-05
-6.43537e-05
-6.23194e-05
-6.01644e-05
-5.78868e-05
-5.54845e-05
-5.29553e-05
-5.02968e-05
-4.7507e-05
-4.45856e-05
-4.15353e-05
-3.83432e-05
-3.49322e-05
-3.12425e-05
-2.79639e-05
-5.82238e-05
-5.51558e-05
-5.16424e-05
-4.83045e-05
-4.50919e-05
-4.19399e-05
-3.88422e-05
-3.58065e-05
-3.28383e-05
-2.99412e-05
-2.7119e-05
-2.43756e-05
-2.17151e-05
-1.91414e-05
-1.66586e-05
-1.42708e-05
-1.19819e-05
-9.79574e-06
-7.71609e-06
-5.74655e-06
-3.89055e-06
-2.15131e-06
-5.31847e-07
9.65087e-07
2.33699e-06
3.58165e-06
4.69716e-06
5.68195e-06
6.53473e-06
7.25461e-06
7.84102e-06
8.29376e-06
8.61298e-06
8.79922e-06
8.85335e-06
8.77663e-06
8.57067e-06
8.23742e-06
7.77918e-06
7.19859e-06
6.49858e-06
5.68243e-06
4.75366e-06
3.7161e-06
2.57381e-06
1.3311e-06
-7.52338e-09
-1.43734e-06
-2.95346e-06
-4.55085e-06
-6.22434e-06
-7.96866e-06
-9.77845e-06
-1.16483e-05
-1.35727e-05
-1.55461e-05
-1.75632e-05
-1.96183e-05
-2.17061e-05
-2.38211e-05
-2.5958e-05
-2.81116e-05
-3.02767e-05
-3.24482e-05
-3.46212e-05
-3.6791e-05
-3.89528e-05
-4.11022e-05
-4.32348e-05
-4.53464e-05
-4.74329e-05
-4.94906e-05
-5.15156e-05
-5.35045e-05
-5.5454e-05
-5.73607e-05
-5.92217e-05
-6.10342e-05
-6.27953e-05
-6.45026e-05
-6.61536e-05
-6.7746e-05
-6.92777e-05
-7.07467e-05
-7.21511e-05
-7.34891e-05
-7.47589e-05
-7.59591e-05
-7.70879e-05
-7.81441e-05
-7.91262e-05
-8.00328e-05
-8.08627e-05
-8.16147e-05
-8.22874e-05
-8.28796e-05
-8.33902e-05
-8.3818e-05
-8.41616e-05
-8.442e-05
-8.45917e-05
-8.46756e-05
-8.46703e-05
-8.45745e-05
-8.43866e-05
-8.41054e-05
-8.37292e-05
-8.32565e-05
-8.26857e-05
-8.20151e-05
-8.12428e-05
-8.03672e-05
-7.93863e-05
-7.82982e-05
-7.71008e-05
-7.57921e-05
-7.437e-05
-7.28321e-05
-7.11763e-05
-6.94002e-05
-6.75015e-05
-6.54777e-05
-6.33264e-05
-6.10449e-05
-5.86309e-05
-5.60817e-05
-5.33947e-05
-5.05672e-05
-4.75965e-05
-4.44825e-05
-4.12276e-05
-3.78181e-05
-3.41712e-05
-3.02231e-05
-2.67131e-05
-6.2137e-05
-5.88166e-05
-5.5015e-05
-5.14051e-05
-4.79327e-05
-4.45282e-05
-4.11849e-05
-3.79114e-05
-3.47136e-05
-3.15958e-05
-2.85619e-05
-2.56163e-05
-2.27633e-05
-2.00071e-05
-1.73521e-05
-1.48025e-05
-1.23623e-05
-1.00356e-05
-7.82622e-06
-5.73774e-06
-3.77363e-06
-1.93711e-06
-2.31131e-07
1.34164e-06
2.77883e-06
4.07839e-06
5.23857e-06
6.25801e-06
7.13569e-06