/*--------------------------------*- C++ -*----------------------------------*\
  =========                 |
  \\      /  F ield         | OpenFOAM: The Open Source CFD Toolbox
   \\    /   O peration     | Website:  https://openfoam.org
    \\  /    A nd           | Version:  12
     \\/     M anipulation  |
\*---------------------------------------------------------------------------*/
FoamFile
{
    format      ascii;
    class       surfaceScalarField;
    location    "6.5";
    object      phi;
}
// * * * * * * * * * * * * * * * * * * * * * * * * * * * * * * * * * * * * * //

dimensions      [0 3 -1 0 0 0 0];

internalField   nonuniform List<scalar> 
36180
(
-5.47952e-12
5.14481e-12
-1.87501e-11
1.32492e-11
-3.69173e-11
1.81553e-11
-5.68802e-11
1.99643e-11
-7.61616e-11
1.92783e-11
-9.28076e-11
1.66451e-11
-1.05335e-10
1.25254e-11
-1.12633e-10
7.29735e-12
-1.13897e-10
1.26295e-12
-1.0856e-10
-5.33722e-12
-9.62482e-11
-1.2313e-11
-7.67307e-11
-1.95173e-11
-4.98986e-11
-2.68326e-11
-1.5733e-11
-3.41653e-11
2.57078e-11
-4.1441e-11
7.43071e-11
-4.85991e-11
1.29898e-10
-5.55906e-11
1.92273e-10
-6.2375e-11
2.61191e-10
-6.89188e-11
3.36385e-10
-7.5194e-11
4.17562e-10
-8.11771e-11
5.04411e-10
-8.68485e-11
5.96602e-10
-9.21915e-11
6.93794e-10
-9.71922e-11
7.95632e-10
-1.01839e-10
9.01754e-10
-1.06122e-10
1.01179e-09
-1.10033e-10
1.12535e-09
-1.13567e-10
1.24207e-09
-1.16719e-10
1.36156e-09
-1.19485e-10
1.48342e-09
-1.21864e-10
1.60727e-09
-1.23855e-10
1.73273e-09
-1.25458e-10
1.85941e-09
-1.26676e-10
1.98692e-09
-1.27511e-10
2.11489e-09
-1.27967e-10
2.24293e-09
-1.28048e-10
2.3707e-09
-1.27761e-10
2.49781e-09
-1.27112e-10
2.62391e-09
-1.26108e-10
2.74867e-09
-1.24758e-10
2.87174e-09
-1.2307e-10
2.9928e-09
-1.21054e-10
3.11152e-09
-1.18722e-10
3.2276e-09
-1.16082e-10
3.34075e-09
-1.13149e-10
3.45068e-09
-1.09932e-10
3.55712e-09
-1.06445e-10
3.65983e-09
-1.02701e-10
3.75854e-09
-9.87137e-11
3.85303e-09
-9.44957e-11
3.94309e-09
-9.00614e-11
4.02852e-09
-8.54249e-11
4.10912e-09
-8.06005e-11
4.18472e-09
-7.56027e-11
4.25517e-09
-7.04461e-11
4.32031e-09
-6.51451e-11
4.38003e-09
-5.97145e-11
4.43419e-09
-5.41687e-11
4.48272e-09
-4.85222e-11
4.52551e-09
-4.27894e-11
4.56249e-09
-3.69845e-11
4.59361e-09
-3.11216e-11
4.61883e-09
-2.52145e-11
4.6381e-09
-1.9277e-11
4.65142e-09
-1.33223e-11
4.65879e-09
-7.36362e-12
4.6602e-09
-1.41386e-12
4.65569e-09
4.51442e-12
4.64528e-09
1.04091e-11
4.62902e-09
1.62581e-11
4.60697e-09
2.20499e-11
4.57919e-09
2.7773e-11
4.54578e-09
3.34166e-11
4.50681e-09
3.89699e-11
4.46238e-09
4.44225e-11
4.41262e-09
4.97645e-11
4.35763e-09
5.49861e-11
4.29756e-09
6.00778e-11
4.23252e-09
6.50304e-11
4.16269e-09
6.98349e-11
4.08821e-09
7.44828e-11
4.00924e-09
7.89655e-11
3.92597e-09
8.32747e-11
3.83856e-09
8.74024e-11
3.74722e-09
9.13407e-11
3.65214e-09
9.50817e-11
3.55352e-09
9.8618e-11
3.45158e-09
1.01942e-10
3.34653e-09
1.05046e-10
3.23861e-09
1.07923e-10
3.12805e-09
1.10565e-10
3.01508e-09
1.12966e-10
2.89996e-09
1.15118e-10
2.78295e-09
1.17013e-10
2.6643e-09
1.18644e-10
2.5443e-09
1.20005e-10
2.42321e-09
1.21087e-10
2.30133e-09
1.21883e-10
2.17894e-09
1.22386e-10
2.05636e-09
1.22588e-10
1.93387e-09
1.22483e-10
1.81181e-09
1.22061e-10
1.69049e-09
1.21317e-10
1.57025e-09
1.20243e-10
1.45142e-09
1.18831e-10
1.33435e-09
1.17074e-10
1.21938e-09
1.14966e-10
1.10688e-09
1.125e-10
9.9721e-10
1.09671e-10
8.90738e-10
1.06473e-10
7.87838e-10
1.029e-10
6.88887e-10
9.89505e-11
5.94266e-10
9.46209e-11
5.04356e-10
8.99107e-11
4.19535e-10
8.48209e-11
3.4018e-10
7.93554e-11
2.66659e-10
7.3521e-11
1.9933e-10
6.73288e-11
1.38535e-10
6.07952e-11
8.45918e-11
5.39432e-11
3.77867e-11
4.6805e-11
-1.63739e-12
3.94242e-11
-3.34971e-11
3.18597e-11
-5.76868e-11
2.41898e-11
-7.42069e-11
1.65201e-11
-8.31979e-11
8.99099e-12
-8.49901e-11
1.79213e-12
-8.01524e-11
-4.83781e-12
-6.95937e-11
-1.05588e-11
-5.46455e-11
-1.49483e-11
-3.71931e-11
-1.74526e-11
-1.98288e-11
-1.73645e-11
-6.0357e-12
-1.37933e-11
-6.03576e-12
-1.0599e-11
1.57321e-11
-3.35581e-11
3.62044e-11
-6.21807e-11
4.67754e-11
-9.10855e-11
4.88688e-11
-1.15778e-10
4.39693e-11
-1.32566e-10
3.34337e-11
-1.38484e-10
1.84424e-11
-1.31183e-10
-3.44334e-15
-1.08852e-10
-2.10689e-11
-7.0127e-11
-4.40615e-11
-1.4029e-11
-6.84111e-11
6.01024e-11
-9.36482e-11
1.52655e-10
-1.19385e-10
2.63792e-10
-1.45302e-10
3.93482e-10
-1.71131e-10
5.41533e-10
-1.96649e-10
7.07612e-10
-2.2167e-10
8.91273e-10
-2.46035e-10
1.09197e-09
-2.69611e-10
1.30906e-09
-2.92283e-10
1.54183e-09
-3.13955e-10
1.78953e-09
-3.34542e-10
2.05131e-09
-3.53975e-10
2.32631e-09
-3.72192e-10
2.61361e-09
-3.89144e-10
2.91228e-09
-4.04786e-10
3.22133e-09
-4.19085e-10
3.53977e-09
-4.32012e-10
3.8666e-09
-4.43544e-10
4.20078e-09
-4.53665e-10
4.54128e-09
-4.62365e-10
4.88706e-09
-4.69637e-10
5.23708e-09
-4.75479e-10
5.5903e-09
-4.79896e-10
5.94568e-09
-4.82896e-10
6.3022e-09
-4.84489e-10
6.65885e-09
-4.84691e-10
7.01461e-09
-4.83522e-10
7.3685e-09
-4.81005e-10
7.71956e-09
-4.77165e-10
8.06683e-09
-4.72032e-10
8.4094e-09
-4.65638e-10
8.74636e-09
-4.58018e-10
9.07685e-09
-4.4921e-10
9.40002e-09
-4.39252e-10
9.71506e-09
-4.28188e-10
1.00212e-08
-4.16062e-10
1.03177e-08
-4.02918e-10
1.06038e-08
-3.88806e-10
1.08788e-08
-3.73773e-10
1.11422e-08
-3.57871e-10
1.13933e-08
-3.41151e-10
1.16315e-08
-3.23664e-10
1.18564e-08
-3.05464e-10
1.20674e-08
-2.86605e-10
1.22641e-08
-2.67141e-10
1.24461e-08
-2.47126e-10
1.2613e-08
-2.26614e-10
1.27645e-08
-2.0566e-10
1.29003e-08
-1.84317e-10
1.30201e-08
-1.62641e-10
1.31238e-08
-1.40684e-10
1.32112e-08
-1.18498e-10
1.32821e-08
-9.61375e-11
1.33365e-08
-7.36524e-11
1.33743e-08
-5.10937e-11
1.33954e-08
-2.85112e-11
1.33999e-08
-5.95376e-12
1.33879e-08
1.6531e-11
1.33594e-08
3.88962e-11
1.33146e-08
6.10965e-11
1.32536e-08
8.30872e-11
1.31765e-08
1.04825e-10
1.30837e-08
1.26268e-10
1.29753e-08
1.47374e-10
1.28516e-08
1.68104e-10
1.27129e-08
1.8842e-10
1.25596e-08
2.08283e-10
1.2392e-08
2.27657e-10
1.22106e-08
2.46505e-10
1.20156e-08
2.64794e-10
1.18076e-08
2.8249e-10
1.1587e-08
2.9956e-10
1.13543e-08
3.15971e-10
1.111e-08
3.31692e-10
1.08547e-08
3.46693e-10
1.05888e-08
3.60944e-10
1.0313e-08
3.74414e-10
1.00279e-08
3.87076e-10
9.73402e-09
3.989e-10
9.43208e-09
4.09858e-10
9.12272e-09
4.19923e-10
8.80662e-09
4.29066e-10
8.48448e-09
4.3726e-10
8.15701e-09
4.44479e-10
7.82496e-09
4.50694e-10
7.48909e-09
4.5588e-10
7.15017e-09
4.60008e-10
6.809e-09
4.63054e-10
6.46639e-09
4.64989e-10
6.12319e-09
4.65789e-10
5.78025e-09
4.65427e-10
5.43843e-09
4.63879e-10
5.09863e-09
4.61118e-10
4.76175e-09
4.57123e-10
4.42871e-09
4.51869e-10
4.10045e-09
4.45336e-10
3.77791e-09
4.37502e-10
3.46206e-09
4.28351e-10
3.15387e-09
4.17867e-10
2.8543e-09
4.06038e-10
2.56435e-09
3.92855e-10
2.28498e-09
3.78314e-10
2.01719e-09
3.62418e-10
1.76192e-09
3.45177e-10
1.52013e-09
3.26607e-10
1.29275e-09
3.06739e-10
1.08066e-09
2.85613e-10
8.84698e-10
2.63289e-10
7.0565e-10
2.39844e-10
5.44211e-10
2.15382e-10
4.00978e-10
1.90038e-10
2.76418e-10
1.63984e-10
1.70833e-10
1.37444e-10
8.43214e-11
1.10702e-10
1.67241e-11
8.41173e-11
-3.24342e-11
5.81492e-11
-6.40201e-11
3.33779e-11
-7.93942e-11
1.05362e-11
-8.05007e-11
-9.45243e-12
-7.00142e-11
-2.54351e-11
-5.14818e-11
-3.59851e-11
-2.94872e-11
-3.93593e-11
-9.81995e-12
-3.34607e-11
-1.58558e-11
-9.95237e-12
2.56835e-11
-2.9836e-11
5.60922e-11
-5.17933e-11
6.87351e-11
-6.95637e-11
6.66419e-11
-7.79677e-11
5.23743e-11
-7.26904e-11
2.81577e-11
-5.01707e-11
-4.07689e-12
-7.50838e-12
-4.26649e-11
5.76104e-11
-8.61874e-11
1.46985e-10
-1.33435e-10
2.61957e-10
-1.83383e-10
4.03469e-10
-2.35159e-10
5.7211e-10
-2.88026e-10
7.68165e-10
-3.41356e-10
9.91649e-10
-3.94614e-10
1.24234e-09
-4.4734e-10
1.51982e-09
-4.99145e-10
1.82347e-09
-5.49689e-10
2.15254e-09
-5.98684e-10
2.50614e-09
-6.45877e-10
2.88323e-09
-6.91053e-10
3.28272e-09
-7.34025e-10
3.70338e-09
-7.74632e-10
4.14392e-09
-8.12735e-10
4.60299e-09
-8.48217e-10
5.07918e-09
-8.80977e-10
5.57103e-09
-9.10932e-10
6.07703e-09
-9.38015e-10
6.59566e-09
-9.62171e-10
7.12535e-09
-9.83358e-10
7.66453e-09
-1.00155e-09
8.21162e-09
-1.01672e-09
8.76501e-09
-1.02887e-09
9.32312e-09
-1.038e-09
9.88435e-09
-1.04413e-09
1.04471e-08
-1.04726e-09
1.10099e-08
-1.04744e-09
1.15711e-08
-1.04471e-09
1.21291e-08
-1.03909e-09
1.26826e-08
-1.03066e-09
1.32301e-08
-1.01947e-09
1.377e-08
-1.00559e-09
1.43011e-08
-9.89082e-10
1.48219e-08
-9.70034e-10
1.53312e-08
-9.48526e-10
1.58277e-08
-9.24647e-10
1.63101e-08
-8.98489e-10
1.67773e-08
-8.70148e-10
1.72282e-08
-8.39726e-10
1.76618e-08
-8.07326e-10
1.8077e-08
-7.73053e-10
1.84728e-08
-7.37018e-10
1.88485e-08
-6.99331e-10
1.92031e-08
-6.60104e-10
1.9536e-08
-6.19452e-10
1.98463e-08
-5.77489e-10
2.01335e-08
-5.34332e-10
2.0397e-08
-4.90096e-10
2.06363e-08
-4.44898e-10
2.08508e-08
-3.98854e-10
2.10402e-08
-3.52078e-10
2.12042e-08
-3.04685e-10
2.13425e-08
-2.56789e-10
2.14549e-08
-2.08502e-10
2.15412e-08
-1.59935e-10
2.16013e-08
-1.11196e-10
2.16352e-08
-6.23939e-11
2.16428e-08
-1.3633e-11
2.16244e-08
3.49829e-11
2.15799e-08
8.3353e-11
2.15096e-08
1.31378e-10
2.14138e-08
1.78962e-10
2.12926e-08
2.2601e-10
2.11464e-08
2.7243e-10
2.09757e-08
3.18133e-10
2.07807e-08
3.63032e-10
2.05621e-08
4.07042e-10
2.03203e-08
4.50081e-10
2.00559e-08
4.92068e-10
1.97695e-08
5.32925e-10
1.94617e-08
5.72576e-10
1.91332e-08
6.10947e-10
1.87848e-08
6.47966e-10
1.84172e-08
6.83563e-10
1.80313e-08
7.17669e-10
1.76277e-08
7.50217e-10
1.72075e-08
7.8114e-10
1.67716e-08
8.10376e-10
1.63208e-08
8.3786e-10
1.58562e-08
8.6353e-10
1.53787e-08
8.87326e-10
1.48894e-08
9.09186e-10
1.43894e-08
9.29053e-10
1.38798e-08
9.46866e-10
1.33618e-08
9.62569e-10
1.28363e-08
9.76104e-10
1.23048e-08
9.87414e-10
1.17684e-08
9.96444e-10
1.12283e-08
1.00314e-09
1.06858e-08
1.00744e-09
1.01423e-08
1.00931e-09
9.59906e-09
1.00868e-09
9.05743e-09
1.00551e-09
8.5188e-09
9.99745e-10
7.98458e-09
9.91345e-10
7.45618e-09
9.80268e-10
6.93505e-09
9.66473e-10
6.42262e-09
9.49926e-10
5.92037e-09
9.30599e-10
5.42977e-09
9.08469e-10
4.95229e-09
8.83521e-10
4.48939e-09
8.5575e-10
4.04254e-09
8.25163e-10
3.61318e-09
7.91779e-10
3.20273e-09
7.55634e-10
2.81255e-09
7.16785e-10
2.44398e-09
6.7531e-10
2.09827e-09
6.31317e-10
1.77661e-09
5.84949e-10
1.48007e-09
5.3639e-10
1.20958e-09
4.85872e-10
9.65922e-10
4.33692e-10
7.49691e-10
3.80216e-10
5.61233e-10
3.25902e-10
4.00618e-10
2.71317e-10
2.67576e-10
2.17159e-10
1.61436e-10
1.64289e-10
8.10552e-11
1.13759e-10
2.47325e-11
6.68587e-11
-9.88019e-12
2.516e-11
-2.58845e-11
-9.43096e-12
-2.72521e-11
-3.46178e-11
-1.89677e-11
-4.76439e-11
-7.24512e-12
-4.51836e-11
-2.3101e-11
-5.79685e-12
3.14805e-11
-1.45304e-11
6.48289e-11
-1.88552e-11
7.30626e-11
-1.26443e-11
6.04336e-11
9.26068e-12
3.04707e-11
5.12173e-11
-1.37972e-11
1.16876e-10
-6.97351e-11
2.09263e-10
-1.35051e-10
3.3083e-10
-2.07754e-10
4.83516e-10
-2.8612e-10
6.68789e-10
-3.68655e-10
8.87697e-10
-4.54066e-10
1.1409e-09
-5.41231e-10
1.42873e-09
-6.29178e-10
1.75117e-09
-7.17063e-10
2.10798e-09
-8.04149e-10
2.49864e-09
-8.89798e-10
2.9224e-09
-9.73451e-10
3.37834e-09
-1.05462e-09
3.86534e-09
-1.13288e-09
4.38215e-09
-1.20786e-09
4.92736e-09
-1.27924e-09
5.49945e-09
-1.34672e-09
6.0968e-09
-1.41008e-09
6.71768e-09
-1.4691e-09
7.36031e-09
-1.5236e-09
8.02281e-09
-1.57343e-09
8.70326e-09
-1.61847e-09
9.3997e-09
-1.65861e-09
1.01101e-08
-1.69378e-09
1.08325e-08
-1.72392e-09
1.15648e-08
-1.74899e-09
1.23049e-08
-1.76898e-09
1.30507e-08
-1.78388e-09
1.38003e-08
-1.7937e-09
1.45515e-08
-1.79849e-09
1.53024e-08
-1.79827e-09
1.60508e-08
-1.79313e-09
1.67948e-08
-1.78312e-09
1.75325e-08
-1.76834e-09
1.82619e-08
-1.74888e-09
1.89812e-08
-1.72485e-09
1.96884e-08
-1.69637e-09
2.0382e-08
-1.66357e-09
2.10601e-08
-1.6266e-09
2.1721e-08
-1.58559e-09
2.23632e-08
-1.5407e-09
2.29852e-08
-1.4921e-09
2.35854e-08
-1.43995e-09
2.41625e-08
-1.38443e-09
2.47152e-08
-1.32571e-09
2.52421e-08
-1.26398e-09
2.57422e-08
-1.19943e-09
2.62144e-08
-1.13224e-09
2.66575e-08
-1.06262e-09
2.70708e-08
-9.90744e-10
2.74533e-08
-9.1682e-10
2.78042e-08
-8.41043e-10
2.81229e-08
-7.63609e-10
2.84088e-08
-6.84715e-10
2.86613e-08
-6.04557e-10
2.88799e-08
-5.23329e-10
2.90643e-08
-4.41226e-10
2.92143e-08
-3.58439e-10
2.93295e-08
-2.75156e-10
2.94099e-08
-1.91564e-10
2.94553e-08
-1.07847e-10
2.94659e-08
-2.41844e-11
2.94416e-08
5.92459e-11
2.93827e-08
1.42271e-10
2.92894e-08
2.2472e-10
2.91619e-08
3.06428e-10
2.90007e-08
3.87232e-10
2.88061e-08
4.66974e-10
2.85788e-08
5.455e-10
2.83191e-08
6.22659e-10
2.80279e-08
6.98305e-10
2.77056e-08
7.72295e-10
2.73532e-08
8.4449e-10
2.69714e-08
9.14756e-10
2.6561e-08
9.82961e-10
2.6123e-08
1.04898e-09
2.56583e-08
1.11268e-09
2.51679e-08
1.17394e-09
2.46529e-08
1.23265e-09
2.41144e-08
1.28869e-09
2.35536e-08
1.34194e-09
2.29717e-08
1.3923e-09
2.23699e-08
1.43966e-09
2.17495e-08
1.4839e-09
2.11119e-08
1.52493e-09
2.04585e-08
1.56264e-09
1.97906e-08
1.59693e-09
1.91098e-08
1.6277e-09
1.84175e-08
1.65486e-09
1.77153e-08
1.67831e-09
1.70047e-08
1.69795e-09
1.62875e-08
1.7137e-09
1.55652e-08
1.72545e-09
1.48395e-08
1.73314e-09
1.41121e-08
1.73666e-09
1.33849e-08
1.73594e-09
1.26595e-08
1.7309e-09
1.19377e-08
1.72147e-09
1.12215e-08
1.70758e-09
1.05126e-08
1.68916e-09
9.81294e-09
1.66616e-09
9.12434e-09
1.63853e-09
8.4487e-09
1.60624e-09
7.78791e-09
1.56926e-09
7.14385e-09
1.52758e-09
6.51838e-09
1.48122e-09
5.91335e-09
1.43019e-09
5.33057e-09
1.37455e-09
4.77182e-09
1.31439e-09
4.2388e-09
1.2498e-09
3.73316e-09
1.18096e-09
3.25643e-09
1.10804e-09
2.81006e-09
1.03132e-09
2.39533e-09
9.51115e-10
2.01339e-09
8.67817e-10
1.66516e-09
7.8192e-10
1.35135e-09
6.94023e-10
1.0724e-09
6.04853e-10
8.28423e-10
5.15294e-10
6.19176e-10
4.26407e-10
4.43994e-10
3.3947e-10
3.0174e-10
2.56013e-10
1.90732e-10
1.77866e-10
1.08684e-10
1.07208e-10
5.2629e-11
4.66237e-11
1.88317e-11
-8.20621e-13
2.71497e-12
-3.15275e-11
-1.30819e-12
-4.11607e-11
-2.44092e-11
-9.71434e-15
3.14899e-11
6.84797e-12
5.79728e-11
2.67223e-11
5.31898e-11
6.49801e-11
2.21775e-11
1.26271e-10
-3.0819e-11
2.14597e-10
-1.02122e-10
3.33364e-10
-1.88501e-10
4.85422e-10
-2.87108e-10
6.73108e-10
-3.95439e-10
8.98277e-10
-5.11288e-10
1.16234e-09
-6.32715e-10
1.46628e-09
-7.58012e-10
1.81073e-09
-8.85675e-10
2.19593e-09
-1.01438e-09
2.62181e-09
-1.14295e-09
3.08802e-09
-1.27036e-09
3.59392e-09
-1.3957e-09
4.13863e-09
-1.51816e-09
4.72105e-09
-1.63704e-09
5.33987e-09
-1.7517e-09
5.9936e-09
-1.8616e-09
6.68062e-09
-1.96625e-09
7.39911e-09
-2.06522e-09
8.14717e-09
-2.15815e-09
8.92277e-09
-2.2447e-09
9.72379e-09
-2.32462e-09
1.0548e-08
-2.39765e-09
1.13931e-08
-2.46361e-09
1.22569e-08
-2.52234e-09
1.31368e-08
-2.5737e-09
1.40305e-08
-2.61761e-09
1.49355e-08
-2.65401e-09
1.58494e-08
-2.68285e-09
1.67696e-08
-2.70413e-09
1.76938e-08
-2.71786e-09
1.86194e-08
-2.72409e-09
1.9544e-08
-2.72287e-09
2.04651e-08
-2.71429e-09
2.13805e-08
-2.69846e-09
2.22876e-08
-2.6755e-09
2.31843e-08
-2.64555e-09
2.40682e-08
-2.60877e-09
2.49372e-08
-2.56534e-09
2.57891e-08
-2.51544e-09
2.66218e-08
-2.45929e-09
2.74333e-08
-2.39709e-09
2.82216e-08
-2.32909e-09
2.8985e-08
-2.2555e-09
2.97217e-08
-2.1766e-09
3.04299e-08
-2.09263e-09
3.1108e-08
-2.00386e-09
3.17546e-08
-1.91056e-09
3.23682e-08
-1.81302e-09
3.29475e-08
-1.71151e-09
3.34912e-08
-1.60632e-09
3.39982e-08
-1.49774e-09
3.44674e-08
-1.38607e-09
3.4898e-08
-1.2716e-09
3.5289e-08
-1.15463e-09
3.56397e-08
-1.03544e-09
3.59495e-08
-9.14329e-10
3.62178e-08
-7.91596e-10
3.64441e-08
-6.67527e-10
3.6628e-08
-5.42409e-10
3.67694e-08
-4.16527e-10
3.6868e-08
-2.90161e-10
3.69237e-08
-1.63588e-10
3.69366e-08
-3.70794e-11
3.69068e-08
8.90979e-11
3.68344e-08
2.14682e-10
3.67197e-08
3.39415e-10
3.65631e-08
4.63048e-10
3.6365e-08
5.85333e-10
3.61259e-08
7.06032e-10
3.58465e-08
8.2491e-10
3.55274e-08
9.4174e-10
3.51694e-08
1.0563e-09
3.47733e-08
1.16837e-09
3.43401e-08
1.27774e-09
3.38706e-08
1.38421e-09
3.3366e-08
1.48758e-09
3.28273e-08
1.58764e-09
3.22558e-08
1.68422e-09
3.16526e-08
1.77712e-09
3.10191e-08
1.86617e-09
3.03566e-08
1.95119e-09
2.96665e-08
2.03201e-09
2.89504e-08
2.10846e-09
2.82097e-08
2.18037e-09
2.7446e-08
2.24759e-09
2.66609e-08
2.30996e-09
2.58563e-08
2.36732e-09
2.50337e-08
2.41952e-09
2.4195e-08
2.46643e-09
2.33419e-08
2.50788e-09
2.24765e-08
2.54374e-09
2.16006e-08
2.57388e-09
2.07161e-08
2.59816e-09
1.98251e-08
2.61644e-09
1.89296e-08
2.62861e-09
1.80318e-08
2.63454e-09
1.71336e-08
2.63412e-09
1.62372e-08
2.62724e-09
1.53449e-08
2.6138e-09
1.44588e-08
2.5937e-09
1.35811e-08
2.56686e-09
1.2714e-08
2.53322e-09
1.18598e-08
2.49272e-09
1.10207e-08
2.44532e-09
1.0199e-08
2.391e-09
9.39682e-09
2.32976e-09
8.6164e-09
2.26164e-09
7.85991e-09
2.18668e-09
7.12947e-09
2.105e-09
6.42713e-09
2.01672e-09
5.75489e-09
1.92204e-09
5.11466e-09
1.82119e-09
4.50821e-09
1.71449e-09
3.93721e-09
1.60232e-09
3.40316e-09
1.48516e-09
2.90739e-09
1.36359e-09
2.451e-09
1.23831e-09
2.03487e-09
1.11016e-09
1.65958e-09
9.80143e-10
1.32541e-09
8.49464e-10
1.03228e-09
7.19535e-10
7.79723e-10
5.92028e-10
5.66826e-10
4.6891e-10
3.92204e-10
3.52488e-10
2.53949e-10
2.45462e-10
1.49593e-10
1.50979e-10
7.6072e-11
7.27005e-11
2.96675e-11
1.48767e-11
6.00141e-12
-1.74948e-11
-1.84079e-11
6.50142e-12
2.49877e-11
3.11644e-11
3.33102e-11
7.87963e-11
5.55828e-12
1.53756e-10
-5.2781e-11
2.59924e-10
-1.36987e-10
4.00708e-10
-2.42905e-10
5.79043e-10
-3.66834e-10
7.97406e-10
-5.0547e-10
1.05783e-09
-6.55863e-10
1.36193e-09
-8.15382e-10
1.71089e-09
-9.81681e-10
2.10554e-09
-1.15266e-09
2.54633e-09
-1.32646e-09
3.03335e-09
-1.50139e-09
3.56638e-09
-1.67598e-09
4.14491e-09
-1.84889e-09
4.76814e-09
-2.01893e-09
5.43502e-09
-2.18503e-09
6.14424e-09
-2.34626e-09
6.89432e-09
-2.50177e-09
7.68353e-09
-2.65081e-09
8.51001e-09
-2.79273e-09
9.37172e-09
-2.92692e-09
1.02665e-08
-3.05289e-09
1.11919e-08
-3.17018e-09
1.21457e-08
-3.27841e-09
1.31253e-08
-3.37724e-09
1.41281e-08
-3.4664e-09
1.51514e-08
-3.54566e-09
1.61926e-08
-3.61483e-09
1.72487e-08
-3.67378e-09
1.83171e-08
-3.72242e-09
1.9395e-08
-3.76068e-09
2.04794e-08
-3.78854e-09
2.15675e-08
-3.80602e-09
2.26566e-08
-3.81318e-09
2.37438e-08
-3.81008e-09
2.48264e-08
-3.79684e-09
2.59015e-08
-3.7736e-09
2.69665e-08
-3.74052e-09
2.80188e-08
-3.6978e-09
2.90557e-08
-3.64565e-09
3.00746e-08
-3.58431e-09
3.10732e-08
-3.51404e-09
3.20491e-08
-3.43512e-09
3.29998e-08
-3.34784e-09
3.39232e-08
-3.25251e-09
3.48172e-08
-3.14948e-09
3.56797e-08
-3.03906e-09
3.65087e-08
-2.92163e-09
3.73024e-08
-2.79755e-09
3.8059e-08
-2.66719e-09
3.87769e-08
-2.53093e-09
3.94545e-08
-2.38916e-09
4.00905e-08
-2.24229e-09
4.06835e-08
-2.0907e-09
4.12322e-08
-1.93481e-09
4.17356e-08
-1.77502e-09
4.21927e-08
-1.61174e-09
4.26027e-08
-1.44538e-09
4.29647e-08
-1.27633e-09
4.32781e-08
-1.10501e-09
4.35424e-08
-9.31813e-10
4.37571e-08
-7.57145e-10
4.3922e-08
-5.81396e-10
4.40368e-08
-4.04956e-10
4.41014e-08
-2.28209e-10
4.41159e-08
-5.15342e-11
4.40803e-08
1.24698e-10
4.39948e-08
3.00123e-10
4.38599e-08
4.74382e-10
4.36758e-08
6.47126e-10
4.34431e-08
8.18012e-10
4.31624e-08
9.86705e-10
4.28344e-08
1.15288e-09
4.246e-08
1.31621e-09
4.20399e-08
1.4764e-09
4.15751e-08
1.63314e-09
4.10667e-08
1.78612e-09
4.05159e-08
1.93507e-09
3.99237e-08
2.07971e-09
3.92916e-08
2.21976e-09
3.86209e-08
2.35496e-09
3.79129e-08
2.48504e-09
3.71694e-08
2.60976e-09
3.63917e-08
2.72887e-09
3.55816e-08
2.84213e-09
3.47407e-08
2.94931e-09
3.38709e-08
3.05018e-09
3.2974e-08
3.14451e-09
3.20518e-08
3.23209e-09
3.11064e-08
3.3127e-09
3.01398e-08
3.38615e-09
2.9154e-08
3.45222e-09
2.81512e-08
3.51072e-09
2.71335e-08
3.56145e-09
2.61031e-08
3.60424e-09
2.50624e-08
3.63889e-09
2.40136e-08
3.66524e-09
2.29591e-08
3.68312e-09
2.19012e-08
3.69238e-09
2.08425e-08
3.69285e-09
1.97854e-08
3.6844e-09
1.87322e-08
3.66691e-09
1.76857e-08
3.64026e-09
1.66482e-08
3.60434e-09
1.56223e-08
3.55908e-09
1.46106e-08
3.50442e-09
1.36156e-08
3.44032e-09
1.26399e-08
3.36677e-09
1.16858e-08
3.28379e-09
1.0756e-08
3.19144e-09
9.85292e-09
3.08982e-09
8.97884e-09
2.97908e-09
8.13615e-09
2.85942e-09
7.32707e-09
2.73112e-09
6.55375e-09
2.59451e-09
5.81821e-09
2.45003e-09
5.12234e-09
2.29819e-09
4.46786e-09
2.13965e-09
3.8563e-09
1.97515e-09
3.289e-09
1.80561e-09
2.76705e-09
1.63211e-09
2.29127e-09
1.45592e-09
1.86221e-09
1.27852e-09
1.48009e-09
1.10166e-09
1.14477e-09
9.27351e-10
8.55743e-10
7.57934e-10
6.12116e-10
5.96114e-10
4.12571e-10
4.45007e-10
2.55359e-10
3.08191e-10
1.38301e-10
1.89758e-10
5.87867e-11
9.43904e-11
1.38041e-11
2.74875e-11
-4.60397e-12
1.32434e-11
1.17433e-11
5.66334e-11
-1.00802e-11
1.33705e-10
-7.15142e-11
2.47775e-10
-1.66851e-10
4.01863e-10
-2.91076e-10
5.98663e-10
-4.39705e-10
8.40514e-10
-6.08685e-10
1.12939e-09
-7.94348e-10
1.46691e-09
-9.93378e-10
1.8543e-09
-1.20278e-09
2.29246e-09
-1.41984e-09
2.78191e-09
-1.64211e-09
3.32285e-09
-1.8674e-09
3.91514e-09
-2.09369e-09
4.55835e-09
-2.31919e-09
5.25173e-09
-2.54227e-09
5.99427e-09
-2.76147e-09
6.78471e-09
-2.97547e-09
7.62154e-09
-3.18309e-09
8.50303e-09
-3.38326e-09
9.42724e-09
-3.57503e-09
1.03921e-08
-3.75754e-09
1.13952e-08
-3.93006e-09
1.24342e-08
-4.0919e-09
1.35065e-08
-4.24249e-09
1.46094e-08
-4.38131e-09
1.57401e-08
-4.50794e-09
1.68957e-08
-4.622e-09
1.80732e-08
-4.7232e-09
1.92697e-08
-4.81128e-09
2.0482e-08
-4.88606e-09
2.1707e-08
-4.94741e-09
2.29415e-08
-4.99524e-09
2.41825e-08
-5.02952e-09
2.54267e-08
-5.05026e-09
2.66711e-08
-5.05753e-09
2.79124e-08
-5.05142e-09
2.91477e-08
-5.03206e-09
3.03737e-08
-4.99965e-09
3.15876e-08
-4.95438e-09
3.27863e-08
-4.8965e-09
3.39669e-08
-4.82629e-09
3.51267e-08
-4.74407e-09
3.62628e-08
-4.65015e-09
3.73726e-08
-4.54491e-09
3.84535e-08
-4.42873e-09
3.9503e-08
-4.30201e-09
4.05187e-08
-4.16518e-09
4.14983e-08
-4.01869e-09
4.24397e-08
-3.863e-09
4.33407e-08
-3.69858e-09
4.41994e-08
-3.52591e-09
4.5014e-08
-3.34551e-09
4.57827e-08
-3.15788e-09
4.6504e-08
-2.96354e-09
4.71763e-08
-2.76301e-09
4.77983e-08
-2.55682e-09
4.83688e-08
-2.34549e-09
4.88866e-08
-2.12957e-09
4.93508e-08
-1.90958e-09
4.97605e-08
-1.68606e-09
5.01151e-08
-1.45954e-09
5.04138e-08
-1.23054e-09
5.06562e-08
-9.99586e-10
5.0842e-08
-7.67199e-10
5.0971e-08
-5.3389e-10
5.10429e-08
-3.00161e-10
5.10579e-08
-6.65118e-11
5.1016e-08
1.6657e-10
5.09175e-08
3.98604e-10
5.07628e-08
6.29118e-10
5.05523e-08
8.57652e-10
5.02865e-08
1.08375e-09
4.99663e-08
1.30698e-09
4.95922e-08
1.5269e-09
4.91654e-08
1.74309e-09
4.86866e-08
1.95515e-09
4.81571e-08
2.16267e-09
4.75779e-08
2.36526e-09
4.69505e-08
2.56254e-09
4.6276e-08
2.75415e-09
4.55561e-08
2.93972e-09
4.47921e-08
3.11889e-09
4.39858e-08
3.29134e-09
4.31389e-08
3.45672e-09
4.2253e-08
3.61472e-09
4.13302e-08
3.76501e-09
4.03722e-08
3.90729e-09
3.93811e-08
4.04125e-09
3.8359e-08
4.16662e-09
3.7308e-08
4.2831e-09
3.62303e-08
4.39041e-09
3.51282e-08
4.48829e-09
3.40039e-08
4.57647e-09
3.28599e-08
4.6547e-09
3.16986e-08
4.72273e-09
3.05226e-08
4.78032e-09
2.93342e-08
4.82725e-09
2.81362e-08
4.86328e-09
2.69311e-08
4.88822e-09
2.57216e-08
4.90186e-09
2.45104e-08
4.90402e-09
2.33003e-08
4.89452e-09
2.2094e-08
4.87322e-09
2.08943e-08
4.83997e-09
1.9704e-08
4.79465e-09
1.85259e-08
4.73719e-09
1.73628e-08
4.66751e-09
1.62175e-08
4.58558e-09
1.50929e-08
4.49141e-09
1.39916e-08
4.38503e-09
1.29165e-08
4.26655e-09
1.18702e-08
4.13611e-09
1.08554e-08
3.99391e-09
9.87458e-09
3.84023e-09
8.93028e-09
3.67542e-09
8.02486e-09
3.49993e-09
7.16059e-09
3.3143e-09
6.33959e-09
3.1192e-09
5.56383e-09
2.91541e-09
4.8351e-09
2.70388e-09
4.155e-09
2.48571e-09
3.52491e-09
2.2622e-09
2.94598e-09
2.03485e-09
2.4191e-09
1.80541e-09
1.94488e-09
1.57588e-09
1.52364e-09
1.34859e-09
1.15541e-09
1.12617e-09
8.39895e-10
9.11631e-10
5.76489e-10
7.08413e-10
3.64285e-10
5.20395e-10
2.02085e-10
3.51959e-10
8.84303e-11
2.08044e-10
2.16611e-11
9.42565e-11
1.70569e-11
1.99669e-11
-8.22467e-12
8.22831e-11
-7.23972e-11
1.89367e-10
-1.78599e-10
3.43554e-10
-3.21038e-10
5.47011e-10
-4.94534e-10
8.01688e-10
-6.94382e-10
1.10927e-09
-9.16273e-10
1.47118e-09
-1.15626e-09
1.88852e-09
-1.41071e-09
2.36208e-09
-1.67634e-09
2.89236e-09
-1.95012e-09
3.47953e-09
-2.22928e-09
4.12345e-09
-2.51132e-09
4.82369e-09
-2.79393e-09
5.57952e-09
-3.07502e-09
6.38994e-09
-3.35269e-09
7.25367e-09
-3.6252e-09
8.16919e-09
-3.89099e-09
9.13474e-09
-4.14864e-09
1.01483e-08
-4.39685e-09
1.12078e-08
-4.63448e-09
1.23107e-08
-4.86048e-09
1.34546e-08
-5.07393e-09
1.46367e-08
-5.274e-09
1.58542e-08
-5.45997e-09
1.71041e-08
-5.63121e-09
1.83833e-08
-5.78717e-09
1.96887e-08
-5.92739e-09
2.1017e-08
-6.05149e-09
2.23648e-08
-6.15915e-09
2.37289e-08
-6.25014e-09
2.51058e-08
-6.32428e-09
2.6492e-08
-6.38148e-09
2.78842e-08
-6.42167e-09
2.92788e-08
-6.44488e-09
3.06724e-08
-6.45116e-09
3.20617e-08
-6.44065e-09
3.34431e-08
-6.4135e-09
3.48134e-08
-6.36995e-09
3.61693e-08
-6.31024e-09
3.75075e-08
-6.23468e-09
3.88248e-08
-6.14363e-09
4.01182e-08
-6.03746e-09
4.13846e-08
-5.91658e-09
4.26212e-08
-5.78146e-09
4.3825e-08
-5.63257e-09
4.49934e-08
-5.47042e-09
4.61237e-08
-5.29554e-09
4.72135e-08
-5.10849e-09
4.82604e-08
-4.90985e-09
4.9262e-08
-4.70021e-09
5.02163e-08
-4.4802e-09
5.11212e-08
-4.25043e-09
5.19749e-08
-4.01155e-09
5.27755e-08
-3.7642e-09
5.35216e-08
-3.50904e-09
5.42115e-08
-3.24674e-09
5.4844e-08
-2.97796e-09
5.54178e-08
-2.70338e-09
5.59319e-08
-2.42367e-09
5.63853e-08
-2.13949e-09
5.67773e-08
-1.85151e-09
5.71071e-08
-1.5604e-09
5.73744e-08
-1.26682e-09
5.75786e-08
-9.71422e-10
5.77196e-08
-6.74848e-10
5.77971e-08
-3.77738e-10
5.78113e-08
-8.07194e-11
5.77623e-08
2.15589e-10
5.76503e-08
5.10581e-10
5.74758e-08
8.0366e-10
5.72392e-08
1.09424e-09
5.69412e-08
1.38176e-09
5.65825e-08
1.66564e-09
5.61641e-08
1.94535e-09
5.56868e-08
2.22036e-09
5.51518e-08
2.49013e-09
5.45603e-08
2.75417e-09
5.39136e-08
3.01198e-09
5.32131e-08
3.26308e-09
5.24602e-08
3.507e-09
5.16566e-08
3.74328e-09
5.08041e-08
3.97148e-09
4.99042e-08
4.19117e-09
4.8959e-08
4.40192e-09
4.79704e-08
4.60332e-09
4.69405e-08
4.79498e-09
4.58712e-08
4.97651e-09
4.4765e-08
5.14753e-09
4.36239e-08
5.30767e-09
4.24504e-08
5.45658e-09
4.12469e-08
5.5939e-09
4.00159e-08
5.71931e-09
3.87599e-08
5.83247e-09
3.74816e-08
5.93307e-09
3.61835e-08
6.0208e-09
3.48684e-08
6.09537e-09
3.35392e-08
6.1565e-09
3.21985e-08
6.20391e-09
3.08494e-08
6.23735e-09
2.94947e-08
6.25659e-09
2.81373e-08
6.26139e-09
2.67803e-08
6.25156e-09
2.54266e-08
6.22691e-09
2.40793e-08
6.18728e-09
2.27414e-08
6.13255e-09
2.14159e-08
6.06261e-09
2.01061e-08
5.9774e-09
1.88147e-08
5.87689e-09
1.75451e-08
5.7611e-09
1.63e-08
5.6301e-09
1.50825e-08
5.48402e-09
1.38956e-08
5.32303e-09
1.27421e-08
5.14742e-09
1.16248e-08
4.95752e-09
1.05464e-08
4.75377e-09
9.50965e-09
4.53671e-09
8.51695e-09
4.307e-09
7.57071e-09
4.06543e-09
6.6732e-09
3.81292e-09
5.8265e-09
3.55058e-09
5.03252e-09
3.27969e-09
4.29299e-09
3.00173e-09
3.60943e-09
2.7184e-09
2.98317e-09
2.43167e-09
2.41527e-09
2.14378e-09
1.9066e-09
1.85726e-09
1.45777e-09
1.57499e-09
1.06919e-09
1.30022e-09
7.41011e-10
1.03659e-09
4.73208e-10
7.88198e-10
2.6557e-10
5.59596e-10
1.17761e-10
3.55854e-10
2.93679e-11
1.82649e-10
4.64246e-11
2.65542e-11
-3.47799e-11
1.07623e-10
-1.53467e-10
2.44674e-10
-3.15651e-10
4.39169e-10
-5.15533e-10
6.92478e-10
-7.47843e-10
1.00583e-09
-1.00773e-09
1.38026e-09
-1.2907e-09
1.81658e-09
-1.59258e-09
2.31537e-09
-1.90951e-09
2.87694e-09
-2.23791e-09
3.50134e-09
-2.57451e-09
4.18831e-09
-2.91625e-09
4.93735e-09
-3.26036e-09
5.74767e-09
-3.60424e-09
6.6182e-09
-3.94555e-09
7.54761e-09
-4.2821e-09
8.53434e-09
-4.61193e-09
9.57656e-09
-4.93321e-09
1.06722e-08
-5.2443e-09
1.18191e-08
-5.54369e-09
1.30146e-08
-5.83002e-09
1.42562e-08
-6.10207e-09
1.5541e-08
-6.35874e-09
1.6866e-08
-6.59905e-09
1.82282e-08
-6.82214e-09
1.96243e-08
-7.02724e-09
2.10508e-08
-7.21371e-09
2.25044e-08
-7.38098e-09
2.39815e-08
-7.52858e-09
2.54785e-08
-7.65615e-09
2.69917e-08
-7.76339e-09
2.85175e-08
-7.8501e-09
3.00522e-08
-7.91613e-09
3.1592e-08
-7.96143e-09
3.31331e-08
-7.98601e-09
3.46719e-08
-7.98995e-09
3.62046e-08
-7.9734e-09
3.77277e-08
-7.93656e-09
3.92374e-08
-7.87969e-09
4.07303e-08
-7.80311e-09
4.22028e-08
-7.70719e-09
4.36515e-08
-7.59235e-09
4.50731e-08
-7.45906e-09
4.64644e-08
-7.30782e-09
4.78221e-08
-7.13919e-09
4.91432e-08
-6.95373e-09
5.04249e-08
-6.75209e-09
5.16643e-08
-6.5349e-09
5.28586e-08
-6.30284e-09
5.40054e-08
-6.05663e-09
5.51022e-08
-5.79698e-09
5.61466e-08
-5.52464e-09
5.71366e-08
-5.24039e-09
5.807e-08
-4.945e-09
5.89451e-08
-4.63926e-09
5.976e-08
-4.32398e-09
6.05133e-08
-3.99997e-09
6.12033e-08
-3.66804e-09
6.1829e-08
-3.32901e-09
6.2389e-08
-2.9837e-09
6.28824e-08
-2.63294e-09
6.33085e-08
-2.27753e-09
6.36664e-08
-1.91829e-09
6.39556e-08
-1.55603e-09
6.41757e-08
-1.19154e-09
6.43265e-08
-8.25627e-10
6.44078e-08
-4.59056e-10
6.44197e-08
-9.26019e-11
6.43623e-08
2.72979e-10
6.42359e-08
6.36941e-10
6.4041e-08
9.98556e-10
6.37782e-08
1.35711e-09
6.3448e-08
1.71189e-09
6.30514e-08
2.06222e-09
6.25894e-08
2.40743e-09
6.20629e-08
2.74686e-09
6.14731e-08
3.07988e-09
6.08214e-08
3.40586e-09
6.01092e-08
3.72419e-09
5.9338e-08
4.03429e-09
5.85094e-08
4.33557e-09
5.76252e-08
4.62748e-09
5.66873e-08
4.90947e-09
5.56974e-08
5.18102e-09
5.46577e-08
5.4416e-09
5.35703e-08
5.69071e-09
5.24374e-08
5.92787e-09
5.12613e-08
6.1526e-09
5.00444e-08
6.36445e-09
4.87891e-08
6.56296e-09
4.7498e-08
6.7477e-09
4.61737e-08
6.91824e-09
4.48188e-08
7.07419e-09
4.34361e-08
7.21514e-09
4.20285e-08
7.34071e-09
4.05988e-08
7.45054e-09
3.91499e-08
7.54427e-09
3.76848e-08
7.62156e-09
3.62066e-08
7.6821e-09
3.47184e-08
7.72559e-09
3.32232e-08
7.75173e-09
3.17243e-08
7.76027e-09
3.02249e-08
7.75098e-09
2.87282e-08
7.72363e-09
2.72374e-08
7.67806e-09
2.57559e-08
7.61411e-09
2.42868e-08
7.53168e-09
2.28335e-08
7.4307e-09
2.13992e-08
7.31114e-09
1.99873e-08
7.17303e-09
1.86009e-08
7.01648e-09
1.72433e-08
6.84164e-09
1.59176e-08
6.64873e-09
1.4627e-08
6.43807e-09
1.33744e-08
6.21008e-09
1.21629e-08
5.96526e-09
1.09954e-08
5.70424e-09
9.87462e-09
5.42778e-09
8.80327e-09
5.13677e-09
7.78391e-09
4.83228e-09
6.81895e-09
4.51554e-09
5.91068e-09
4.18797e-09
5.0612e-09
3.85121e-09
4.27247e-09
3.50713e-09
3.54627e-09
3.15787e-09
2.88421e-09
2.80584e-09
2.28773e-09
2.45374e-09
1.75807e-09
2.10464e-09
1.29636e-09
1.76193e-09
9.03534e-10