/*--------------------------------*- C++ -*----------------------------------*\
  =========                 |
  \\      /  F ield         | OpenFOAM: The Open Source CFD Toolbox
   \\    /   O peration     | Website:  https://openfoam.org
    \\  /    A nd           | Version:  12
     \\/     M anipulation  |
\*---------------------------------------------------------------------------*/
FoamFile
{
    format      ascii;
    class       volVectorField;
    location    "6.5";
    object      U;
}
// * * * * * * * * * * * * * * * * * * * * * * * * * * * * * * * * * * * * * //

dimensions      [0 1 -1 0 0 0 0];

internalField   nonuniform List<vector> 
18225
(
(-1.06413e-07 2.01754e-07 0)
(-7.6227e-07 5.12843e-07 0)
(-1.83357e-06 7.10414e-07 0)
(-3.15598e-06 8.02263e-07 0)
(-4.51661e-06 8.16305e-07 0)
(-5.75678e-06 7.73725e-07 0)
(-6.76183e-06 6.90955e-07 0)
(-7.44616e-06 5.80931e-07 0)
(-7.74623e-06 4.53432e-07 0)
(-7.61658e-06 3.15494e-07 0)
(-7.02604e-06 1.72121e-07 0)
(-5.95478e-06 2.68664e-08 0)
(-4.39177e-06 -1.17769e-07 0)
(-2.33302e-06 -2.60038e-07 0)
(2.19895e-07 -3.98714e-07 0)
(3.26086e-06 -5.32934e-07 0)
(6.78014e-06 -6.62086e-07 0)
(1.0765e-05 -7.8573e-07 0)
(1.52002e-05 -9.0355e-07 0)
(2.00684e-05 -1.01531e-06 0)
(2.53508e-05 -1.12085e-06 0)
(3.10268e-05 -1.22003e-06 0)
(3.70748e-05 -1.31277e-06 0)
(4.34721e-05 -1.39899e-06 0)
(5.01952e-05 -1.47865e-06 0)
(5.72198e-05 -1.55172e-06 0)
(6.45211e-05 -1.61819e-06 0)
(7.20738e-05 -1.67804e-06 0)
(7.98522e-05 -1.73131e-06 0)
(8.78304e-05 -1.778e-06 0)
(9.59822e-05 -1.81817e-06 0)
(0.000104282 -1.85186e-06 0)
(0.000112702 -1.87913e-06 0)
(0.000121218 -1.90007e-06 0)
(0.000129803 -1.91476e-06 0)
(0.000138432 -1.9233e-06 0)
(0.000147078 -1.9258e-06 0)
(0.000155718 -1.92238e-06 0)
(0.000164326 -1.91319e-06 0)
(0.000172878 -1.89837e-06 0)
(0.00018135 -1.87807e-06 0)
(0.00018972 -1.85246e-06 0)
(0.000197964 -1.82172e-06 0)
(0.000206062 -1.78604e-06 0)
(0.000213991 -1.74559e-06 0)
(0.000221732 -1.7006e-06 0)
(0.000229266 -1.65126e-06 0)
(0.000236573 -1.59778e-06 0)
(0.000243636 -1.54039e-06 0)
(0.000250438 -1.4793e-06 0)
(0.000256962 -1.41475e-06 0)
(0.000263194 -1.34697e-06 0)
(0.00026912 -1.27618e-06 0)
(0.000274726 -1.20262e-06 0)
(0.000280001 -1.12653e-06 0)
(0.000284933 -1.04813e-06 0)
(0.000289511 -9.67662e-07 0)
(0.000293727 -8.85355e-07 0)
(0.000297572 -8.0144e-07 0)
(0.00030104 -7.16143e-07 0)
(0.000304123 -6.29689e-07 0)
(0.000306816 -5.42298e-07 0)
(0.000309116 -4.54185e-07 0)
(0.000311018 -3.65562e-07 0)
(0.00031252 -2.76635e-07 0)
(0.00031362 -1.87605e-07 0)
(0.000314318 -9.86686e-08 0)
(0.000314614 -1.00114e-08 0)
(0.000314509 7.8153e-08 0)
(0.000314005 1.6569e-07 0)
(0.000313104 2.52423e-07 0)
(0.00031181 3.38168e-07 0)
(0.000310127 4.22765e-07 0)
(0.000308061 5.06063e-07 0)
(0.000305616 5.87916e-07 0)
(0.0003028 6.68181e-07 0)
(0.000299619 7.46721e-07 0)
(0.000296082 8.23403e-07 0)
(0.000292196 8.98101e-07 0)
(0.000287971 9.70692e-07 0)
(0.000283417 1.04106e-06 0)
(0.000278543 1.10908e-06 0)
(0.000273362 1.17466e-06 0)
(0.000267883 1.23767e-06 0)
(0.00026212 1.29801e-06 0)
(0.000256084 1.35558e-06 0)
(0.000249789 1.41028e-06 0)
(0.000243248 1.462e-06 0)
(0.000236476 1.51063e-06 0)
(0.000229486 1.55608e-06 0)
(0.000222294 1.59825e-06 0)
(0.000214916 1.63702e-06 0)
(0.000207368 1.67228e-06 0)
(0.000199666 1.70393e-06 0)
(0.000191827 1.73186e-06 0)
(0.00018387 1.75594e-06 0)
(0.000175811 1.77606e-06 0)
(0.000167669 1.79208e-06 0)
(0.000159464 1.80387e-06 0)
(0.000151215 1.81131e-06 0)
(0.000142942 1.81423e-06 0)
(0.000134666 1.8125e-06 0)
(0.000126407 1.80594e-06 0)
(0.000118188 1.79441e-06 0)
(0.00011003 1.77772e-06 0)
(0.000101955 1.75569e-06 0)
(9.39879e-05 1.72813e-06 0)
(8.61508e-05 1.69485e-06 0)
(7.84679e-05 1.65564e-06 0)
(7.09636e-05 1.61029e-06 0)
(6.36627e-05 1.55857e-06 0)
(5.65902e-05 1.50025e-06 0)
(4.97716e-05 1.43512e-06 0)
(4.32325e-05 1.36291e-06 0)
(3.69984e-05 1.28341e-06 0)
(3.10951e-05 1.19638e-06 0)
(2.55482e-05 1.1016e-06 0)
(2.03829e-05 9.98857e-07 0)
(1.56237e-05 8.88004e-07 0)
(1.12944e-05 7.68935e-07 0)
(7.41728e-06 6.41646e-07 0)
(4.013e-06 5.06269e-07 0)
(1.0996e-06 3.63163e-07 0)
(-1.30823e-06 2.13021e-07 0)
(-3.20035e-06 5.69991e-08 0)
(-4.57278e-06 -1.02982e-07 0)
(-5.42965e-06 -2.63931e-07 0)
(-5.78603e-06 -4.21269e-07 0)
(-5.67129e-06 -5.68135e-07 0)
(-5.13386e-06 -6.94714e-07 0)
(-4.24667e-06 -7.87009e-07 0)
(-3.11575e-06 -8.2598e-07 0)
(-1.9e-06 -7.84593e-07 0)
(-8.34131e-07 -6.19681e-07 0)
(-1.31267e-07 -2.84145e-07 0)
(-1.85141e-07 1.38594e-06 0)
(-1.40455e-06 3.3146e-06 0)
(-3.18595e-06 4.42111e-06 0)
(-5.20257e-06 4.7978e-06 0)
(-7.08234e-06 4.57091e-06 0)
(-8.53841e-06 3.86381e-06 0)
(-9.34852e-06 2.78441e-06 0)
(-9.33603e-06 1.42315e-06 0)
(-8.3622e-06 -1.4625e-07 0)
(-6.321e-06 -1.86434e-06 0)
(-3.13441e-06 -3.68357e-06 0)
(1.25204e-06 -5.56587e-06 0)
(6.87297e-06 -7.48078e-06 0)
(1.37463e-05 -9.40371e-06 0)
(2.1876e-05 -1.13148e-05 0)
(3.1254e-05 -1.31978e-05 0)
(4.18623e-05 -1.50394e-05 0)
(5.36742e-05 -1.68285e-05 0)
(6.66559e-05 -1.85559e-05 0)
(8.07672e-05 -2.0214e-05 0)
(9.59625e-05 -2.17961e-05 0)
(0.000112192 -2.32969e-05 0)
(0.000129401 -2.47115e-05 0)
(0.000147532 -2.60363e-05 0)
(0.000166525 -2.72678e-05 0)
(0.000186317 -2.84034e-05 0)
(0.000206844 -2.94408e-05 0)
(0.000228039 -3.03783e-05 0)
(0.000249834 -3.12147e-05 0)
(0.00027216 -3.19488e-05 0)
(0.000294948 -3.25802e-05 0)
(0.000318127 -3.31086e-05 0)
(0.000341628 -3.35341e-05 0)
(0.000365379 -3.38572e-05 0)
(0.000389312 -3.40783e-05 0)
(0.000413356 -3.41987e-05 0)
(0.000437442 -3.42194e-05 0)
(0.000461502 -3.41419e-05 0)
(0.000485469 -3.3968e-05 0)
(0.000509278 -3.36997e-05 0)
(0.000532862 -3.33391e-05 0)
(0.000556159 -3.28885e-05 0)
(0.000579108 -3.23505e-05 0)
(0.000601649 -3.1728e-05 0)
(0.000623724 -3.10237e-05 0)
(0.000645277 -3.02407e-05 0)
(0.000666254 -2.93823e-05 0)
(0.000686604 -2.84517e-05 0)
(0.000706278 -2.74524e-05 0)
(0.000725228 -2.6388e-05 0)
(0.00074341 -2.5262e-05 0)
(0.000760783 -2.40782e-05 0)
(0.000777307 -2.28402e-05 0)
(0.000792946 -2.1552e-05 0)
(0.000807664 -2.02174e-05 0)
(0.000821431 -1.88401e-05 0)
(0.000834218 -1.74242e-05 0)
(0.000845998 -1.59735e-05 0)
(0.000856749 -1.44919e-05 0)
(0.000866449 -1.29832e-05 0)
(0.000875081 -1.14512e-05 0)
(0.000882629 -9.89987e-06 0)
(0.00088908 -8.33281e-06 0)
(0.000894425 -6.75377e-06 0)
(0.000898655 -5.1664e-06 0)
(0.000901766 -3.57428e-06 0)
(0.000903754 -1.98092e-06 0)
(0.000904621 -3.89761e-07 0)
(0.000904367 1.19583e-06 0)
(0.000902998 2.77257e-06 0)
(0.000900521 4.33728e-06 0)
(0.000896945 5.8868e-06 0)
(0.000892281 7.41811e-06 0)
(0.000886543 8.92826e-06 0)
(0.000879747 1.04144e-05 0)
(0.000871909 1.18737e-05 0)
(0.00086305 1.33035e-05 0)
(0.00085319 1.47012e-05 0)
(0.000842355 1.60641e-05 0)
(0.000830567 1.73899e-05 0)
(0.000817855 1.86762e-05 0)
(0.000804248 1.99205e-05 0)
(0.000789775 2.11206e-05 0)
(0.000774468 2.22744e-05 0)
(0.000758361 2.33795e-05 0)
(0.000741489 2.44339e-05 0)
(0.000723888 2.54355e-05 0)
(0.000705597 2.63822e-05 0)
(0.000686656 2.7272e-05 0)
(0.000667105 2.81029e-05 0)
(0.000646986 2.88729e-05 0)
(0.000626343 2.95801e-05 0)
(0.000605223 3.02225e-05 0)
(0.00058367 3.07982e-05 0)
(0.000561734 3.13051e-05 0)
(0.000539462 3.17414e-05 0)
(0.000516907 3.21051e-05 0)
(0.000494119 3.23943e-05 0)
(0.000471153 3.2607e-05 0)
(0.000448062 3.27412e-05 0)
(0.000424902 3.2795e-05 0)
(0.00040173 3.27665e-05 0)
(0.000378604 3.26537e-05 0)
(0.000355585 3.24546e-05 0)
(0.000332731 3.21675e-05 0)
(0.000310106 3.17904e-05 0)
(0.000287772 3.13216e-05 0)
(0.000265791 3.07593e-05 0)
(0.000244229 3.0102e-05 0)
(0.000223152 2.93482e-05 0)
(0.000202623 2.84966e-05 0)
(0.000182711 2.75462e-05 0)
(0.00016348 2.64962e-05 0)
(0.000144997 2.53461e-05 0)
(0.000127328 2.40962e-05 0)
(0.000110537 2.27468e-05 0)
(9.46874e-05 2.12995e-05 0)
(7.98408e-05 1.97563e-05 0)
(6.60557e-05 1.81208e-05 0)
(5.3387e-05 1.63976e-05 0)
(4.18849e-05 1.45934e-05 0)
(3.15936e-05 1.27174e-05 0)
(2.25493e-05 1.07815e-05 0)
(1.47788e-05 8.80171e-06 0)
(8.29614e-06 6.79922e-06 0)
(3.10033e-06 4.80177e-06 0)
(-8.28913e-07 2.84583e-06 0)
(-3.5356e-06 9.79133e-07 0)
(-5.09332e-06 -7.36007e-07 0)
(-5.61148e-06 -2.21887e-06 0)
(-5.24246e-06 -3.36559e-06 0)
(-4.19291e-06 -4.04465e-06 0)
(-2.7461e-06 -4.09331e-06 0)
(-1.28789e-06 -3.31819e-06 0)
(-1.86319e-07 -1.51079e-06 0)
(-1.78481e-07 2.87588e-06 0)
(-1.30281e-06 6.47825e-06 0)
(-2.7753e-06 8.22041e-06 0)
(-4.20553e-06 8.40512e-06 0)
(-5.17192e-06 7.30674e-06 0)
(-5.34459e-06 5.16749e-06 0)
(-4.46033e-06 2.19759e-06 0)
(-2.30381e-06 -1.42333e-06 0)
(1.29952e-06 -5.5435e-06 0)
(6.48747e-06 -1.00357e-05 0)
(1.33651e-05 -1.47934e-05 0)
(2.20086e-05 -1.9728e-05 0)
(3.2469e-05 -2.47653e-05 0)
(4.4775e-05 -2.98431e-05 0)
(5.89361e-05 -3.49092e-05 0)
(7.49449e-05 -3.99197e-05 0)
(9.27792e-05 -4.48373e-05 0)
(0.000112404 -4.96304e-05 0)
(0.000133772 -5.42719e-05 0)
(0.000156828 -5.87387e-05 0)
(0.000181507 -6.30111e-05 0)
(0.000207736 -6.70721e-05 0)
(0.000235437 -7.09073e-05 0)
(0.000264524 -7.45041e-05 0)
(0.00029491 -7.78522e-05 0)
(0.000326499 -8.09427e-05 0)
(0.000359195 -8.37682e-05 0)
(0.000392898 -8.6323e-05 0)
(0.000427505 -8.86022e-05 0)
(0.000462912 -9.06025e-05 0)
(0.000499013 -9.23214e-05 0)
(0.000535701 -9.37576e-05 0)
(0.000572869 -9.49106e-05 0)
(0.000610409 -9.57811e-05 0)
(0.000648213 -9.63703e-05 0)
(0.000686175 -9.66804e-05 0)
(0.000724187 -9.67146e-05 0)
(0.000762146 -9.64764e-05 0)
(0.000799947 -9.59703e-05 0)
(0.000837488 -9.52015e-05 0)
(0.000874669 -9.41756e-05 0)
(0.000911392 -9.2899e-05 0)
(0.000947561 -9.13785e-05 0)
(0.000983085 -8.96216e-05 0)
(0.00101787 -8.7636e-05 0)
(0.00105184 -8.54301e-05 0)
(0.00108489 -8.30126e-05 0)
(0.00111696 -8.03927e-05 0)
(0.00114797 -7.75796e-05 0)
(0.00117784 -7.45831e-05 0)
(0.0012065 -7.14132e-05 0)
(0.00123389 -6.80801e-05 0)
(0.00125994 -6.45941e-05 0)
(0.0012846 -6.09658e-05 0)
(0.00130782 -5.72058e-05 0)
(0.00132954 -5.33248e-05 0)
(0.00134971 -4.93337e-05 0)
(0.00136831 -4.52433e-05 0)
(0.00138528 -4.10642e-05 0)
(0.00140061 -3.68074e-05 0)
(0.00141425 -3.24836e-05 0)
(0.00142618 -2.81033e-05 0)
(0.00143639 -2.36771e-05 0)
(0.00144485 -1.92154e-05 0)
(0.00145156 -1.47286e-05 0)
(0.0014565 -1.02266e-05 0)
(0.00145967 -5.71936e-06 0)
(0.00146107 -1.21671e-06 0)
(0.00146071 3.27185e-06 0)
(0.00145858 7.73699e-06 0)
(0.0014547 1.21696e-05 0)
(0.00144909 1.65608e-05 0)
(0.00144176 2.09018e-05 0)
(0.00143273 2.51843e-05 0)
(0.00142203 2.94e-05 0)
(0.00140968 3.35409e-05 0)
(0.00139571 3.75992e-05 0)
(0.00138017 4.15674e-05 0)
(0.00136307 4.54382e-05 0)
(0.00134447 4.92042e-05 0)
(0.00132441 5.28587e-05 0)
(0.00130292 5.63948e-05 0)
(0.00128006 5.98058e-05 0)
(0.00125589 6.30855e-05 0)
(0.00123044 6.62274e-05 0)
(0.00120378 6.92254e-05 0)
(0.00117596 7.20735e-05 0)
(0.00114705 7.47657e-05 0)
(0.00111711 7.72963e-05 0)
(0.0010862 7.96596e-05 0)
(0.00105438 8.18498e-05 0)
(0.00102174 8.38614e-05 0)
(0.000988333 8.56889e-05 0)
(0.000954241 8.73268e-05 0)
(0.000919537 8.87698e-05 0)
(0.000884299 9.00124e-05 0)
(0.000848607 9.10494e-05 0)
(0.000812542 9.18754e-05 0)
(0.000776188 9.24852e-05 0)
(0.000739631 9.28736e-05 0)
(0.000702957 9.30357e-05 0)
(0.000666256 9.29662e-05 0)
(0.000629618 9.26605e-05 0)
(0.000593136 9.21136e-05 0)
(0.000556904 9.13212e-05 0)
(0.000521016 9.02787e-05 0)
(0.00048557 8.89822e-05 0)
(0.000450663 8.7428e-05 0)
(0.000416393 8.56129e-05 0)
(0.00038286 8.35341e-05 0)
(0.000350162 8.11897e-05 0)
(0.0003184 7.85784e-05 0)
(0.000287672 7.57e-05 0)
(0.000258076 7.25556e-05 0)
(0.000229709 6.91475e-05 0)
(0.000202665 6.54801e-05 0)
(0.000177035 6.15599e-05 0)
(0.000152908 5.73959e-05 0)
(0.000130366 5.30005e-05 0)
(0.000109484 4.83901e-05 0)
(9.03326e-05 4.35862e-05 0)
(7.29688e-05 3.86159e-05 0)
(5.74398e-05 3.35142e-05 0)
(4.37781e-05 2.83251e-05 0)
(3.19985e-05 2.31043e-05 0)
(2.20954e-05 1.79214e-05 0)
(1.40381e-05 1.28639e-05 0)
(7.76673e-06 8.0408e-06 0)
(3.1866e-06 3.58785e-06 0)
(1.62899e-07 -3.26583e-07 0)
(-1.4854e-06 -3.49503e-06 0)
(-1.99424e-06 -5.66397e-06 0)
(-1.67246e-06 -6.52602e-06 0)
(-9.24093e-07 -5.70913e-06 0)
(-1.53547e-07 -2.76547e-06 0)
(-1.25174e-07 4.01524e-06 0)
(-7.38206e-07 8.61215e-06 0)
(-1.25485e-06 1.02877e-05 0)
(-1.28127e-06 9.53948e-06 0)
(-4.14476e-07 6.78746e-06 0)
(1.67277e-06 2.39135e-06 0)
(5.24886e-06 -3.33753e-06 0)
(1.05371e-05 -1.01301e-05 0)
(1.77213e-05 -1.77547e-05 0)
(2.69488e-05 -2.60127e-05 0)
(3.83339e-05 -3.47336e-05 0)
(5.19607e-05 -4.37714e-05 0)
(6.78863e-05 -5.30012e-05 0)
(8.61433e-05 -6.23154e-05 0)
(0.000106742 -7.16219e-05 0)
(0.000129674 -8.08411e-05 0)
(0.000154911 -8.99045e-05 0)
(0.000182412 -9.87525e-05 0)
(0.000212119 -0.000107334 0)
(0.000243963 -0.000115604 0)
(0.000277864 -0.000123524 0)
(0.000313732 -0.000131061 0)
(0.000351467 -0.000138186 0)
(0.000390964 -0.000144873 0)
(0.000432109 -0.000151101 0)
(0.000474783 -0.000156852 0)
(0.000518863 -0.000162112 0)
(0.00056422 -0.000166867 0)
(0.000610723 -0.000171107 0)
(0.000658239 -0.000174825 0)
(0.00070663 -0.000178016 0)
(0.000755759 -0.000180675 0)
(0.000805486 -0.000182802 0)
(0.000855673 -0.000184396 0)
(0.000906178 -0.000185459 0)
(0.000956865 -0.000185996 0)
(0.00100759 -0.00018601 0)
(0.00105823 -0.000185509 0)
(0.00110863 -0.0001845 0)
(0.00115867 -0.000182993 0)
(0.00120822 -0.000180999 0)
(0.00125714 -0.000178528 0)
(0.00130532 -0.000175593 0)
(0.00135262 -0.000172208 0)
(0.00139894 -0.000168389 0)
(0.00144416 -0.000164149 0)
(0.00148817 -0.000159506 0)
(0.00153086 -0.000154476 0)
(0.00157213 -0.000149078 0)
(0.00161189 -0.000143329 0)
(0.00165004 -0.000137248 0)
(0.0016865 -0.000130855 0)
(0.00172118 -0.000124168 0)
(0.00175401 -0.000117208 0)
(0.00178492 -0.000109995 0)
(0.00181384 -0.00010255 0)
(0.00184071 -9.48921e-05 0)
(0.00186548 -8.70425e-05 0)
(0.00188809 -7.90216e-05 0)
(0.0019085 -7.085e-05 0)
(0.00192668 -6.25481e-05 0)
(0.00194259 -5.41361e-05 0)
(0.0019562 -4.56341e-05 0)
(0.00196749 -3.7062e-05 0)
(0.00197644 -2.84395e-05 0)
(0.00198304 -1.97859e-05 0)
(0.00198729 -1.11203e-05 0)
(0.00198918 -2.46127e-06 0)
(0.00198871 6.17273e-06 0)
(0.0019859 1.47638e-05 0)
(0.00198076 2.32943e-05 0)
(0.0019733 3.1747e-05 0)
(0.00196355 4.01053e-05 0)
(0.00195154 4.83528e-05 0)
(0.00193729 5.64735e-05 0)
(0.00192084 6.44519e-05 0)
(0.00190224 7.22729e-05 0)
(0.00188152 7.99219e-05 0)
(0.00185874 8.73844e-05 0)
(0.00183394 9.46467e-05 0)
(0.00180719 0.000101695 0)
(0.00177854 0.000108516 0)
(0.00174806 0.000115098 0)
(0.00171581 0.000121426 0)
(0.00168186 0.00012749 0)
(0.00164628 0.000133278 0)
(0.00160916 0.000138777 0)
(0.00157058 0.000143976 0)
(0.0015306 0.000148864 0)
(0.00148933 0.00015343 0)
(0.00144685 0.000157662 0)
(0.00140326 0.000161551 0)
(0.00135864 0.000165086 0)
(0.00131309 0.000168257 0)
(0.00126672 0.000171052 0)
(0.00121963 0.000173463 0)
(0.00117193 0.000175479 0)
(0.00112371 0.00017709 0)
(0.0010751 0.000178287 0)
(0.0010262 0.000179061 0)
(0.00097713 0.000179402 0)
(0.000928007 0.000179301 0)
(0.00087895 0.000178751 0)
(0.000830079 0.000177742 0)
(0.000781517 0.000176267 0)
(0.000733388 0.00017432 0)
(0.000685818 0.000171892 0)
(0.000638931 0.00016898 0)
(0.000592857 0.000165579 0)
(0.000547721 0.000161684 0)
(0.00050365 0.000157295 0)
(0.000460772 0.000152411 0)
(0.000419212 0.000147033 0)
(0.000379094 0.000141167 0)
(0.000340538 0.00013482 0)
(0.000303663 0.000128002 0)
(0.000268581 0.000120728 0)
(0.000235401 0.000113019 0)
(0.000204223 0.000104901 0)
(0.000175141 9.64058e-05 0)
(0.000148236 8.75765e-05 0)
(0.000123579 7.84648e-05 0)
(0.000101225 6.91353e-05 0)
(8.12151e-05 5.96675e-05 0)
(6.35672e-05 5.01586e-05 0)
(4.82784e-05 4.07274e-05 0)
(3.5319e-05 3.15184e-05 0)
(2.4629e-05 2.27069e-05 0)
(1.61145e-05 1.45051e-05 0)
(9.64288e-06 7.16834e-06 0)
(5.03835e-06 1.00365e-06 0)
(2.07625e-06 -3.62226e-06 0)
(4.74363e-07 -6.27173e-06 0)
(-1.16721e-07 -6.41704e-06 0)
(-7.77443e-08 -3.41354e-06 0)
(-5.66392e-08 4.44391e-06 0)
(5.38223e-08 8.84233e-06 0)
(8.66587e-07 9.39736e-06 0)
(2.74605e-06 6.74073e-06 0)
(6.03285e-06 1.40633e-06 0)
(1.102e-05 -6.14687e-06 0)
(1.79568e-05 -1.55185e-05 0)
(2.70536e-05 -2.63586e-05 0)
(3.84849e-05 -3.83613e-05 0)
(5.23913e-05 -5.12599e-05 0)
(6.88827e-05 -6.48213e-05 0)
(8.80396e-05 -7.88421e-05 0)
(0.000109916 -9.3145e-05 0)
(0.000134539 -0.000107575 0)
(0.000161917 -0.000121995 0)
(0.000192034 -0.000136288 0)
(0.000224855 -0.000150348 0)
(0.00026033 -0.000164085 0)
(0.000298391 -0.000177418 0)
(0.000338956 -0.000190277 0)
(0.000381931 -0.0002026 0)
(0.00042721 -0.000214334 0)
(0.000474677 -0.00022543 0)
(0.000524207 -0.00023585 0)
(0.000575666 -0.000245556 0)
(0.000628913 -0.000254519 0)
(0.000683802 -0.000262713 0)
(0.000740182 -0.000270117 0)
(0.000797896 -0.000276715 0)
(0.000856784 -0.000282492 0)
(0.000916685 -0.000287439 0)
(0.000977433 -0.000291549 0)
(0.00103886 -0.000294818 0)
(0.00110081 -0.000297246 0)
(0.0011631 -0.000298836 0)
(0.00122557 -0.000299591 0)
(0.00128805 -0.00029952 0)
(0.00135039 -0.000298631 0)
(0.00141241 -0.000296938 0)
(0.00147396 -0.000294453 0)
(0.00153487 -0.000291193 0)
(0.00159501 -0.000287176 0)
(0.0016542 -0.000282422 0)
(0.00171232 -0.000276952 0)
(0.00176921 -0.000270788 0)
(0.00182473 -0.000263956 0)
(0.00187876 -0.000256479 0)
(0.00193116 -0.000248387 0)
(0.00198182 -0.000239705 0)
(0.00203061 -0.000230462 0)
(0.00207742 -0.00022069 0)
(0.00212216 -0.000210417 0)
(0.00216471 -0.000199674 0)
(0.00220499 -0.000188494 0)
(0.00224291 -0.000176907 0)
(0.00227839 -0.000164947 0)
(0.00231136 -0.000152646 0)
(0.00234174 -0.000140035 0)
(0.00236948 -0.000127149 0)
(0.00239453 -0.000114019 0)
(0.00241683 -0.000100679 0)
(0.00243635 -8.71596e-05 0)
(0.00245305 -7.34939e-05 0)
(0.0024669 -5.97134e-05 0)
(0.00247788 -4.58496e-05 0)
(0.00248598 -3.19334e-05 0)
(0.00249119 -1.79954e-05 0)
(0.00249351 -4.06566e-06 0)
(0.00249293 9.82647e-06 0)
(0.00248948 2.36521e-05 0)
(0.00248316 3.73828e-05 0)
(0.00247399 5.09911e-05 0)
(0.00246201 6.44499e-05 0)
(0.00244725 7.77328e-05 0)
(0.00242974 9.0814e-05 0)
(0.00240953 0.000103669 0)
(0.00238667 0.000116272 0)
(0.0023612 0.0001286 0)
(0.0023332 0.000140631 0)
(0.00230271 0.00015234 0)
(0.00226982 0.000163707 0)
(0.00223459 0.00017471 0)
(0.0021971 0.000185327 0)
(0.00215743 0.00019554 0)
(0.00211567 0.000205327 0)
(0.00207191 0.00021467 0)
(0.00202623 0.00022355 0)
(0.00197875 0.000231948 0)
(0.00192955 0.000239845 0)
(0.00187875 0.000247225 0)
(0.00182645 0.00025407 0)
(0.00177277 0.000260363 0)
(0.00171782 0.000266087 0)
(0.00166172 0.000271225 0)
(0.0016046 0.000275763 0)
(0.00154657 0.000279683 0)
(0.00148776 0.00028297 0)
(0.00142832 0.00028561 0)
(0.00136836 0.000287587 0)
(0.00130803 0.000288888 0)
(0.00124747 0.000289498 0)
(0.00118682 0.000289404 0)
(0.00112622 0.000288594 0)
(0.00106581 0.000287056 0)
(0.00100575 0.000284779 0)
(0.000946186 0.000281754 0)
(0.000887262 0.000277971 0)
(0.000829132 0.000273424 0)
(0.000771946 0.000268107 0)
(0.000715856 0.000262018 0)
(0.000661012 0.000255155 0)
(0.000607562 0.000247521 0)
(0.000555655 0.000239121 0)
(0.000505436 0.000229966 0)
(0.000457045 0.000220069 0)
(0.000410621 0.00020945 0)
(0.000366294 0.000198135 0)
(0.000324189 0.000186159 0)
(0.000284424 0.000173565 0)
(0.000247105 0.000160405 0)
(0.000212328 0.000146746 0)
(0.000180176 0.000132667 0)
(0.000150716 0.000118266 0)
(0.000123998 0.000103661 0)
(0.000100052 8.89915e-05 0)
(7.88851e-05 7.44262e-05 0)
(6.04797e-05 6.01654e-05 0)
(4.47897e-05 4.64471e-05 0)
(3.17385e-05 3.3553e-05 0)
(2.12157e-05 2.18159e-05 0)
(1.30735e-05 1.16274e-05 0)
(7.12523e-06 3.44679e-06 0)
(3.14693e-06 -2.18689e-06 0)
(8.84301e-07 -4.63424e-06 0)
(8.76831e-09 -3.12686e-06 0)
(1.75735e-08 4.02202e-06 0)
(9.48749e-07 6.76463e-06 0)
(3.2858e-06 4.92341e-06 0)
(7.3523e-06 -7.89107e-07 0)
(1.34061e-05 -9.76035e-06 0)
(2.1688e-05 -2.1456e-05 0)
(3.24127e-05 -3.54037e-05 0)
(4.57633e-05 -5.1185e-05 0)
(6.18918e-05 -6.8429e-05 0)
(8.09208e-05 -8.68073e-05 0)
(0.000102945 -0.000106029 0)
(0.000128031 -0.000125836 0)
(0.000156223 -0.000146 0)
(0.000187537 -0.000166318 0)
(0.00022197 -0.00018661 0)
(0.000259497 -0.000206716 0)
(0.000300072 -0.000226495 0)
(0.000343633 -0.000245822 0)
(0.0003901 -0.000264584 0)
(0.000439378 -0.000282682 0)
(0.000491359 -0.00030003 0)
(0.000545922 -0.000316551 0)
(0.000602934 -0.000332176 0)
(0.000662252 -0.000346846 0)
(0.000723724 -0.000360509 0)
(0.000787191 -0.000373122 0)
(0.000852486 -0.000384646 0)
(0.000919436 -0.00039505 0)
(0.000987862 -0.000404308 0)
(0.00105758 -0.000412399 0)
(0.00112841 -0.000419308 0)
(0.00120017 -0.000425024 0)
(0.00127265 -0.000429542 0)
(0.00134567 -0.000432858 0)
(0.00141904 -0.000434976 0)
(0.00149257 -0.000435902 0)
(0.00156607 -0.000435644 0)
(0.00163935 -0.000434217 0)
(0.00171221 -0.000431635 0)
(0.00178449 -0.00042792 0)
(0.00185599 -0.000423094 0)
(0.00192654 -0.00041718 0)
(0.00199597 -0.000410208 0)
(0.0020641 -0.000402207 0)
(0.00213078 -0.000393209 0)
(0.00219584 -0.000383249 0)
(0.00225913 -0.000372363 0)
(0.0023205 -0.000360589 0)
(0.00237982 -0.000347967 0)
(0.00243694 -0.000334538 0)
(0.00249173 -0.000320343 0)
(0.00254408 -0.000305426 0)
(0.00259388 -0.000289832 0)
(0.002641 -0.000273605 0)
(0.00268536 -0.000256791 0)
(0.00272686 -0.000239436 0)
(0.00276541 -0.000221587 0)
(0.00280094 -0.00020329 0)
(0.00283337 -0.000184593 0)
(0.00286265 -0.000165542 0)
(0.00288871 -0.000146184 0)
(0.00291152 -0.000126565 0)
(0.00293102 -0.000106733 0)
(0.0029472 -8.6732e-05 0)
(0.00296001 -6.66081e-05 0)
(0.00296945 -4.64059e-05 0)
(0.00297551 -2.61694e-05 0)
(0.00297818 -5.9422e-06 0)
(0.00297746 1.42332e-05 0)
(0.00297337 3.43148e-05 0)
(0.00296593 5.42618e-05 0)
(0.00295515 7.40338e-05 0)
(0.00294108 9.35918e-05 0)
(0.00292374 0.000112897 0)
(0.00290318 0.000131913 0)
(0.00287946 0.000150602 0)
(0.00285263 0.000168929 0)
(0.00282275 0.00018686 0)
(0.00278989 0.00020436 0)
(0.00275412 0.000221396 0)
(0.00271552 0.000237938 0)
(0.00267418 0.000253953 0)
(0.00263018 0.00026941 0)
(0.00258363 0.000284282 0)
(0.00253462 0.000298537 0)
(0.00248325 0.000312149 0)
(0.00242963 0.00032509 0)
(0.00237388 0.000337333 0)
(0.00231611 0.000348852 0)
(0.00225645 0.000359621 0)
(0.00219503 0.000369615 0)
(0.00213197 0.00037881 0)
(0.0020674 0.000387181 0)
(0.00200147 0.000394706 0)
(0.00193432 0.000401361 0)
(0.00186609 0.000407124 0)
(0.00179693 0.000411974 0)
(0.00172699 0.000415889 0)
(0.00165643 0.000418848 0)
(0.0015854 0.000420833 0)
(0.00151407 0.000421825 0)
(0.0014426 0.000421805 0)
(0.00137114 0.000420756 0)
(0.00129988 0.000418665 0)
(0.00122897 0.000415515 0)
(0.00115859 0.000411296 0)
(0.00108891 0.000405996 0)
(0.0010201 0.000399608 0)
(0.000952335 0.000392127 0)
(0.000885779 0.00038355 0)
(0.000820606 0.000373879 0)
(0.000756986 0.00036312 0)
(0.000695084 0.000351283 0)
(0.000635063 0.000338385 0)
(0.000577084 0.000324448 0)
(0.000521299 0.000309504 0)
(0.000467859 0.00029359 0)
(0.000416902 0.000276758 0)
(0.000368561 0.000259069 0)
(0.000322959 0.000240597 0)
(0.000280206 0.000221434 0)
(0.000240399 0.000201689 0)
(0.000203621 0.000181491 0)
(0.000169936 0.000160995 0)
(0.000139391 0.000140384 0)
(0.000112013 0.000119872 0)
(8.78043e-05 9.97086e-05 0)
(6.67443e-05 8.01883e-05 0)
(4.87861e-05 6.16519e-05 0)
(3.38548e-05 4.44955e-05 0)
(2.18457e-05 2.91776e-05 0)
(1.26248e-05 1.62269e-05 0)
(6.04301e-06 6.25289e-06 0)
(1.95739e-06 -3.45857e-08 0)
(9.76882e-08 -1.80052e-06 0)
(9.17934e-08 2.69435e-06 0)
(1.87893e-06 2.18978e-06 0)
(5.82698e-06 -3.45849e-06 0)
(1.22197e-05 -1.34947e-05 0)
(2.12263e-05 -2.72564e-05 0)
(3.30278e-05 -4.41561e-05 0)
(4.77959e-05 -6.36668e-05 0)
(6.56777e-05 -8.53148e-05 0)
(8.67946e-05 -0.000108675 0)
(0.000111243 -0.000133365 0)
(0.000139093 -0.000159041 0)
(0.000170394 -0.000185398 0)
(0.000205169 -0.000212156 0)
(0.000243421 -0.00023907 0)
(0.000285129 -0.000265915 0)
(0.000330253 -0.000292492 0)
(0.000378735 -0.000318621 0)
(0.000430497 -0.000344141 0)
(0.000485444 -0.00036891 0)
(0.000543468 -0.000392798 0)
(0.000604445 -0.00041569 0)
(0.000668237 -0.000437485 0)
(0.000734695 -0.000458092 0)
(0.000803659 -0.000477433 0)
(0.00087496 -0.000495437 0)
(0.00094842 -0.000512044 0)
(0.00102385 -0.000527204 0)
(0.00110106 -0.000540872 0)
(0.00117986 -0.000553013 0)
(0.00126003 -0.000563598 0)
(0.00134138 -0.000572606 0)
(0.00142369 -0.00058002 0)
(0.00150675 -0.000585832 0)
(0.00159035 -0.000590039 0)
(0.00167428 -0.000592641 0)
(0.00175833 -0.000593646 0)
(0.00184227 -0.000593067 0)
(0.00192591 -0.00059092 0)
(0.00200903 -0.000587225 0)
(0.00209142 -0.00058201 0)
(0.0021729 -0.000575302 0)
(0.00225325 -0.000567135 0)
(0.00233228 -0.000557546 0)
(0.00240982 -0.000546574 0)
(0.00248566 -0.000534263 0)
(0.00255964 -0.000520657 0)
(0.00263158 -0.000505806 0)
(0.00270132 -0.000489759 0)
(0.0027687 -0.000472571 0)
(0.00283357 -0.000454294 0)
(0.00289578 -0.000434986 0)
(0.00295521 -0.000414705 0)
(0.00301171 -0.00039351 0)
(0.00306518 -0.000371461 0)
(0.00311549 -0.000348619 0)
(0.00316255 -0.000325046 0)
(0.00320625 -0.000300805 0)
(0.00324652 -0.000275959 0)
(0.00328326 -0.000250571 0)
(0.00331642 -0.000224703 0)
(0.00334593 -0.000198419 0)
(0.00337174 -0.00017178 0)
(0.00339379 -0.000144851 0)
(0.00341206 -0.000117692 0)
(0.00342652 -9.03636e-05 0)
(0.00343715 -6.29274e-05 0)
(0.00344393 -3.54427e-05 0)
(0.00344686 -7.9679e-06 0)
(0.00344595 1.94391e-05 0)
(0.00344121 4.67218e-05 0)
(0.00343266 7.38246e-05 0)
(0.00342032 0.000100693 0)
(0.00340423 0.000127274 0)
(0.00338444 0.000153515 0)
(0.003361 0.000179366 0)
(0.00333395 0.000204778 0)
(0.00330337 0.0002297 0)
(0.00326932 0.000254088 0)
(0.00323188 0.000277894 0)
(0.00319114 0.000301074 0)
(0.00314717 0.000323584 0)
(0.00310009 0.000345383 0)
(0.00304998 0.000366428 0)
(0.00299696 0.000386679 0)
(0.00294113 0.000406098 0)
(0.00288262 0.000424646 0)
(0.00282154 0.000442285 0)
(0.00275803 0.00045898 0)
(0.00269221 0.000474695 0)
(0.00262423 0.000489395 0)
(0.00255423 0.000503048 0)
(0.00248235 0.000515619 0)
(0.00240874 0.000527077 0)
(0.00233356 0.000537391 0)
(0.00225697 0.00054653 0)
(0.00217912 0.000554465 0)
(0.00210019 0.000561167 0)
(0.00202035 0.00056661 0)
(0.00193977 0.000570765 0)
(0.00185862 0.000573608 0)
(0.00177708 0.000575115 0)
(0.00169534 0.000575263 0)
(0.00161357 0.00057403 0)
(0.00153197 0.000571399 0)
(0.00145072 0.000567352 0)
(0.00137001 0.000561875 0)
(0.00129003 0.000554955 0)
(0.00121097 0.000546585 0)
(0.00113301 0.000536759 0)
(0.00105636 0.000525477 0)
(0.000981185 0.000512744 0)
(0.000907687 0.000498569 0)
(0.000836045 0.000482969 0)
(0.000766438 0.000465968 0)
(0.000699042 0.000447599 0)
(0.000634029 0.000427903 0)
(0.000571562 0.000406933 0)
(0.000511798 0.000384756 0)
(0.000454885 0.000361452 0)
(0.000400963 0.000337117 0)
(0.000350158 0.000311868 0)
(0.000302585 0.00028584 0)
(0.000258344 0.000259194 0)
(0.000217523 0.000232121 0)
(0.000180189 0.000204837 0)
(0.000146394 0.0001776 0)
(0.000116169 0.000150702 0)
(8.95266e-05 0.000124482 0)
(6.64578e-05 9.93301e-05 0)
(4.6932e-05 7.56905e-05 0)
(3.08954e-05 5.4071e-05 0)
(1.82743e-05 3.5048e-05 0)
(8.99959e-06 1.92759e-05 0)
(3.0416e-06 7.50291e-06 0)
(1.84365e-07 5.92807e-07 0)
(1.63619e-07 4.51811e-07 0)
(2.80915e-06 -4.944e-06 0)
(8.39281e-06 -1.58809e-05 0)
(1.71645e-05 -3.15836e-05 0)
(2.9207e-05 -5.13607e-05 0)
(4.46406e-05 -7.45889e-05 0)
(6.35907e-05 -0.000100701 0)
(8.61648e-05 -0.00012918 0)
(0.000112448 -0.000159557 0)
(0.000142505 -0.000191403 0)
(0.000176379 -0.000224331 0)
(0.000214093 -0.000257987 0)
(0.000255647 -0.000292053 0)
(0.000301022 -0.000326236 0)
(0.00035018 -0.000360275 0)
(0.00040306 -0.000393929 0)
(0.000459586 -0.000426983 0)
(0.000519664 -0.000459242 0)
(0.000583181 -0.000490528 0)
(0.000650013 -0.000520685 0)
(0.000720017 -0.000549569 0)
(0.000793039 -0.000577052 0)
(0.000868913 -0.000603022 0)
(0.000947462 -0.000627378 0)
(0.0010285 -0.000650032 0)
(0.00111182 -0.000670907 0)
(0.00119723 -0.000689936 0)
(0.00128452 -0.000707065 0)
(0.00137346 -0.000722246 0)
(0.00146384 -0.000735442 0)
(0.00155542 -0.000746625 0)
(0.00164799 -0.000755773 0)
(0.0017413 -0.000762875 0)
(0.00183513 -0.000767924 0)
(0.00192924 -0.000770923 0)
(0.0020234 -0.000771879 0)
(0.00211738 -0.000770808 0)
(0.00221095 -0.000767729 0)
(0.00230387 -0.00076267 0)
(0.00239594 -0.000755663 0)
(0.00248691 -0.000746744 0)
(0.00257659 -0.000735955 0)
(0.00266475 -0.000723343 0)
(0.0027512 -0.000708958 0)
(0.00283572 -0.000692855 0)
(0.00291813 -0.000675091 0)
(0.00299824 -0.000655728 0)
(0.00307587 -0.000634831 0)
(0.00315084 -0.000612468 0)
(0.00322299 -0.000588707 0)
(0.00329216 -0.000563621 0)
(0.00335821 -0.000537283 0)
(0.00342099 -0.000509771 0)
(0.00348037 -0.00048116 0)
(0.00353623 -0.00045153 0)
(0.00358846 -0.000420959 0)
(0.00363695 -0.000389527 0)
(0.0036816 -0.000357316 0)
(0.00372233 -0.000324406 0)
(0.00375907 -0.000290877 0)
(0.00379173 -0.000256811 0)
(0.00382028 -0.000222288 0)
(0.00384465 -0.000187388 0)
(0.00386481 -0.000152191 0)
(0.00388073 -0.000116775 0)
(0.00389238 -8.12175e-05 0)
(0.00389976 -4.5596e-05 0)
(0.00390285 -9.98561e-06 0)
(0.00390167 2.55392e-05 0)
(0.00389624 6.09053e-05 0)
(0.00388656 9.60411e-05 0)
(0.00387267 0.000130876 0)
(0.00385462 0.000165342 0)
(0.00383244 0.000199372 0)
(0.0038062 0.000232899 0)
(0.00377595 0.00026586 0)
(0.00374177 0.000298193 0)
(0.00370373 0.000329835 0)
(0.00366192 0.000360728 0)
(0.00361642 0.000390814 0)
(0.00356734 0.000420037 0)
(0.00351479 0.000448341 0)
(0.00345886 0.000475674 0)
(0.00339969 0.000501983 0)
(0.00333738 0.000527217 0)
(0.00327208 0.000551328 0)
(0.00320392 0.000574267 0)
(0.00313304 0.000595987 0)
(0.00305958 0.000616444 0)
(0.00298369 0.000635592 0)
(0.00290554 0.000653389 0)
(0.00282527 0.000669792 0)
(0.00274306 0.000684761 0)
(0.00265908 0.000698255 0)
(0.0025735 0.000710238 0)
(0.0024865 0.000720671 0)
(0.00239826 0.000729518 0)
(0.00230897 0.000736746 0)
(0.00221882 0.00074232 0)
(0.00212799 0.00074621 0)
(0.00203668 0.000748387 0)
(0.0019451 0.000748822 0)
(0.00185344 0.00074749 0)
(0.0017619 0.000744369 0)
(0.00167069 0.000739438 0)