/*--------------------------------*- C++ -*----------------------------------*\
  =========                 |
  \\      /  F ield         | OpenFOAM: The Open Source CFD Toolbox
   \\    /   O peration     | Website:  https://openfoam.org
    \\  /    A nd           | Version:  12
     \\/     M anipulation  |
\*---------------------------------------------------------------------------*/
FoamFile
{
    format      ascii;
    class       volScalarField;
    location    "8";
    object      epsilon;
}
// * * * * * * * * * * * * * * * * * * * * * * * * * * * * * * * * * * * * * //

dimensions      [0 2 -3 0 0 0 0];

internalField   nonuniform List<scalar> 
5625
(
9.99201e-13
9.99201e-13
9.99201e-13
9.99201e-13
9.99201e-13
9.99201e-13
9.99201e-13
9.99201e-13
9.99201e-13
9.99201e-13
9.99201e-13
9.99201e-13
9.99201e-13
9.99201e-13
9.99201e-13
9.99201e-13
9.99201e-13
9.99201e-13
9.99201e-13
9.99201e-13
9.99201e-13
9.99201e-13
9.99201e-13
9.99201e-13
9.99201e-13
9.99201e-13
9.99201e-13
9.99201e-13
9.99201e-13
9.99201e-13
9.99201e-13
9.99201e-13
9.99201e-13
9.99201e-13
9.99201e-13
9.99201e-13
9.99201e-13
9.99201e-13
9.99201e-13
9.99201e-13
9.99201e-13
9.99201e-13
9.99201e-13
9.99201e-13
9.99201e-13
9.99201e-13
9.99201e-13
9.99201e-13
9.99201e-13
9.99201e-13
9.99201e-13
9.99201e-13
9.99201e-13
9.99201e-13
9.99201e-13
9.99201e-13
9.99201e-13
9.99201e-13
9.99201e-13
9.99201e-13
9.99201e-13
9.99201e-13
9.99201e-13
9.99201e-13
9.99201e-13
9.99201e-13
9.99201e-13
9.99201e-13
9.99201e-13
9.99201e-13
9.99201e-13
9.99201e-13
9.99201e-13
9.99201e-13
9.99201e-13
9.99201e-13
2.886e-13
2.18161e-13
2.09234e-13
2.0784e-13
2.07564e-13
2.07497e-13
2.07479e-13
2.07474e-13
2.07475e-13
2.07477e-13
2.07479e-13
2.07481e-13
2.07483e-13
2.07484e-13
2.07485e-13
2.07486e-13
2.07487e-13
2.07487e-13
2.07487e-13
2.07487e-13
2.07486e-13
2.07486e-13
2.07485e-13
2.07483e-13
2.07482e-13
2.0748e-13
2.07478e-13
2.07476e-13
2.07473e-13
2.0747e-13
2.07467e-13
2.07464e-13
2.0746e-13
2.07456e-13
2.07452e-13
2.07448e-13
2.07444e-13
2.07441e-13
2.07439e-13
2.07437e-13
2.07434e-13
2.07432e-13
2.0743e-13
2.07428e-13
2.07426e-13
2.07424e-13
2.07422e-13
2.07421e-13
2.07419e-13
2.07418e-13
2.07417e-13
2.07417e-13
2.07417e-13
2.07417e-13
2.07417e-13
2.07418e-13
2.07418e-13
2.0742e-13
2.07421e-13
2.07423e-13
2.07425e-13
2.07427e-13
2.0743e-13
2.07433e-13
2.07437e-13
2.07443e-13
2.07454e-13
2.0748e-13
2.07555e-13
2.0784e-13
2.0924e-13
2.18167e-13
2.886e-13
9.99201e-13
9.99201e-13
2.18163e-13
1.0724e-13
8.47136e-14
7.93666e-14
7.79256e-14
7.74856e-14
7.73352e-14
7.72791e-14
7.72572e-14
7.72489e-14
7.72462e-14
7.72459e-14
7.72465e-14
7.72475e-14
7.72484e-14
7.72492e-14
7.72497e-14
7.72499e-14
7.72498e-14
7.72495e-14
7.72488e-14
7.72478e-14
7.72465e-14
7.72449e-14
7.72429e-14
7.72407e-14
7.72381e-14
7.72352e-14
7.7232e-14
7.72285e-14
7.72247e-14
7.72206e-14
7.72162e-14
7.72115e-14
7.72067e-14
7.72016e-14
7.71966e-14
7.7192e-14
7.71877e-14
7.71833e-14
7.7179e-14
7.71748e-14
7.71707e-14
7.71667e-14
7.71629e-14
7.71594e-14
7.71562e-14
7.71533e-14
7.71509e-14
7.71489e-14
7.71473e-14
7.71463e-14
7.71458e-14
7.71458e-14
7.71465e-14
7.71477e-14
7.71495e-14
7.71519e-14
7.7155e-14
7.71588e-14
7.71635e-14
7.71693e-14
7.71769e-14
7.71876e-14
7.72047e-14
7.72359e-14
7.73018e-14
7.74622e-14
7.79121e-14
7.9362e-14
8.47147e-14
1.07241e-13
2.18159e-13
9.99201e-13
9.99201e-13
2.09233e-13
8.47097e-14
5.33251e-14
4.37998e-14
4.06004e-14
3.94342e-14
3.89758e-14
3.87828e-14
3.86969e-14
3.86571e-14
3.86383e-14
3.86295e-14
3.86256e-14
3.8624e-14
3.86235e-14
3.86234e-14
3.86234e-14
3.86233e-14
3.86229e-14
3.86222e-14
3.86212e-14
3.86198e-14
3.86181e-14
3.86159e-14
3.86134e-14
3.86104e-14
3.86071e-14
3.86034e-14
3.85992e-14
3.85947e-14
3.85898e-14
3.85845e-14
3.85789e-14
3.85729e-14
3.85667e-14
3.85603e-14
3.85538e-14
3.85476e-14
3.85413e-14
3.85351e-14
3.8529e-14
3.85229e-14
3.8517e-14
3.85114e-14
3.8506e-14
3.8501e-14
3.84965e-14
3.84925e-14
3.8489e-14
3.84862e-14
3.84841e-14
3.84827e-14
3.84821e-14
3.84823e-14
3.84834e-14
3.84855e-14
3.84885e-14
3.84927e-14
3.84982e-14
3.85053e-14
3.85148e-14
3.85277e-14
3.85467e-14
3.85767e-14
3.86287e-14
3.87275e-14
3.89338e-14
3.94056e-14
4.05844e-14
4.37941e-14
5.33253e-14
8.471e-14
2.0923e-13
9.99201e-13
9.99201e-13
2.07831e-13
7.93539e-14
4.37891e-14
3.13874e-14
2.65609e-14
2.45493e-14
2.36633e-14
2.32532e-14
2.30548e-14
2.29551e-14
2.29036e-14
2.28764e-14
2.28618e-14
2.2854e-14
2.28497e-14
2.28474e-14
2.28459e-14
2.28448e-14
2.28437e-14
2.28424e-14
2.28409e-14
2.2839e-14
2.28367e-14
2.2834e-14
2.28308e-14
2.28271e-14
2.2823e-14
2.28184e-14
2.28133e-14
2.28077e-14
2.28018e-14
2.27953e-14
2.27885e-14
2.27814e-14
2.27739e-14
2.27662e-14
2.27583e-14
2.27504e-14
2.27424e-14
2.27345e-14
2.27266e-14
2.27189e-14
2.27114e-14
2.27043e-14
2.26975e-14
2.26912e-14
2.26855e-14
2.26805e-14
2.26762e-14
2.26728e-14
2.26703e-14
2.26687e-14
2.26683e-14
2.2669e-14
2.2671e-14
2.26744e-14
2.26795e-14
2.26865e-14
2.2696e-14
2.2709e-14
2.27272e-14
2.27537e-14
2.27943e-14
2.28607e-14
2.29764e-14
2.31918e-14
2.36193e-14
2.45222e-14
2.65488e-14
3.13867e-14
4.37939e-14
7.93582e-14
2.07832e-13
9.99201e-13
9.99201e-13
2.07548e-13
7.7902e-14
4.0575e-14
2.65436e-14
2.05409e-14
1.7784e-14
1.64555e-14
1.57901e-14
1.54453e-14
1.52611e-14
1.51601e-14
1.51035e-14
1.50712e-14
1.50525e-14
1.50415e-14
1.50348e-14
1.50305e-14
1.50275e-14
1.50251e-14
1.50229e-14
1.50206e-14
1.5018e-14
1.5015e-14
1.50116e-14
1.50077e-14
1.50033e-14
1.49984e-14
1.4993e-14
1.4987e-14
1.49805e-14
1.49735e-14
1.49661e-14
1.49582e-14
1.49499e-14
1.49412e-14
1.49323e-14
1.49232e-14
1.4914e-14
1.49047e-14
1.48955e-14
1.48863e-14
1.48774e-14
1.48687e-14
1.48605e-14
1.48527e-14
1.48455e-14
1.48391e-14
1.48334e-14
1.48287e-14
1.4825e-14
1.48225e-14
1.48212e-14
1.48213e-14
1.4823e-14
1.48264e-14
1.4832e-14
1.48401e-14
1.48514e-14
1.48672e-14
1.48893e-14
1.49211e-14
1.49685e-14
1.5042e-14
1.51617e-14
1.5366e-14
1.57319e-14
1.64184e-14
1.77667e-14
2.05402e-14
2.65539e-14
4.0589e-14
7.7913e-14
2.07553e-13
9.99201e-13
9.99201e-13
2.07473e-13
7.74506e-14
3.93927e-14
2.45115e-14
1.77608e-14
1.44428e-14
1.27307e-14
1.18161e-14
1.13137e-14
1.1031e-14
1.08685e-14
1.07733e-14
1.07166e-14
1.06824e-14
1.06613e-14
1.06481e-14
1.06395e-14
1.06336e-14
1.06291e-14
1.06255e-14
1.0622e-14
1.06185e-14
1.06147e-14
1.06106e-14
1.0606e-14
1.06009e-14
1.05952e-14
1.05889e-14
1.05821e-14
1.05747e-14
1.05668e-14
1.05584e-14
1.05495e-14
1.05402e-14
1.05305e-14
1.05206e-14
1.05104e-14
1.05001e-14
1.04898e-14
1.04796e-14
1.04694e-14
1.04596e-14
1.04501e-14
1.0441e-14
1.04326e-14
1.04249e-14
1.0418e-14
1.04121e-14
1.04072e-14
1.04037e-14
1.04015e-14
1.04009e-14
1.04021e-14
1.04054e-14
1.04111e-14
1.04199e-14
1.04324e-14
1.045e-14
1.04746e-14
1.05095e-14
1.056e-14
1.06353e-14
1.07513e-14
1.09365e-14
1.12433e-14
1.17705e-14
1.27091e-14
1.44427e-14
1.77772e-14
2.45369e-14
3.94186e-14
7.74699e-14
2.07482e-13
9.99201e-13
9.99201e-13
2.07447e-13
7.72889e-14
3.89182e-14
2.36041e-14
1.64067e-14
1.27026e-14
1.06917e-14
9.56154e-15
8.91005e-15
8.52676e-15
8.29729e-15
8.1578e-15
8.07182e-15
8.01814e-15
7.98415e-15
7.96227e-15
7.94782e-15
7.93791e-15
7.93069e-15
7.925e-15
7.92007e-15
7.91542e-15
7.91071e-15
7.90572e-15
7.90033e-15
7.89444e-15
7.888e-15
7.88097e-15
7.87336e-15
7.86517e-15
7.85642e-15
7.84715e-15
7.83739e-15
7.82722e-15
7.81668e-15
7.80586e-15
7.79484e-15
7.78371e-15
7.77258e-15
7.76154e-15
7.7507e-15
7.74018e-15
7.7301e-15
7.72059e-15
7.71178e-15
7.70381e-15
7.69683e-15
7.69099e-15
7.68645e-15
7.68342e-15
7.6821e-15
7.68272e-15
7.68562e-15
7.69125e-15
7.70019e-15
7.71328e-15
7.73178e-15
7.75759e-15
7.79366e-15
7.84464e-15
7.9181e-15
8.02649e-15
8.19076e-15
8.44687e-15
8.85787e-15
9.53689e-15
1.06927e-14
1.27249e-14
1.64437e-14
2.36468e-14
3.89574e-14
7.73176e-14
2.07462e-13
9.99201e-13
9.99201e-13
2.07436e-13
7.72221e-14
3.87098e-14
2.31732e-14
1.57153e-14
1.17581e-14
9.52951e-15
8.22681e-15
7.44587e-15
6.96888e-15
6.67317e-15
6.4875e-15
6.36962e-15
6.29397e-15
6.2449e-15
6.21264e-15
6.19103e-15
6.17613e-15
6.16542e-15
6.15723e-15
6.15047e-15
6.14442e-15
6.1386e-15
6.13268e-15
6.12646e-15
6.11981e-15
6.11262e-15
6.10487e-15
6.09653e-15
6.08761e-15
6.07812e-15
6.06811e-15
6.05762e-15
6.04671e-15
6.03546e-15
6.02394e-15
6.01226e-15
6.0005e-15
5.98878e-15
5.97722e-15
5.96592e-15
5.95502e-15
5.94466e-15
5.93497e-15
5.9261e-15
5.91821e-15
5.91148e-15
5.90608e-15
5.90222e-15
5.90018e-15
5.90016e-15
5.90256e-15
5.90784e-15
5.9166e-15
5.92969e-15
5.9483e-15
5.97419e-15
6.00996e-15
6.05956e-15
6.12913e-15
6.22828e-15
6.37242e-15
6.58661e-15
6.91232e-15
7.4196e-15
8.22951e-15
9.55774e-15
1.1806e-14
1.57747e-14
2.32343e-14
3.87629e-14
7.72607e-14
2.07458e-13
9.99201e-13
9.99201e-13
2.07429e-13
7.71902e-14
3.86095e-14
2.29551e-14
1.53454e-14
1.12259e-14
8.84462e-15
7.41066e-15
6.52379e-15
5.96504e-15
5.60815e-15
5.37771e-15
5.22755e-15
5.12888e-15
5.06348e-15
5.01969e-15
4.98994e-15
4.9693e-15
4.95451e-15
4.94339e-15
4.93449e-15
4.92684e-15
4.91977e-15
4.91284e-15
4.90577e-15
4.89835e-15
4.89046e-15
4.88203e-15
4.87304e-15
4.86348e-15
4.85336e-15
4.84273e-15
4.83164e-15
4.82016e-15
4.80836e-15
4.79634e-15
4.78419e-15
4.77203e-15
4.75996e-15
4.74812e-15
4.73663e-15
4.72563e-15
4.71527e-15
4.7057e-15
4.69709e-15
4.68963e-15
4.68349e-15
4.67892e-15
4.67618e-15
4.67553e-15
4.67734e-15
4.68208e-15
4.69037e-15
4.70301e-15
4.7211e-15
4.74624e-15
4.78066e-15
4.82768e-15
4.89221e-15
4.9817e-15
5.10755e-15
5.28749e-15
5.54956e-15
5.93885e-15
6.52925e-15
7.44507e-15
8.90299e-15
1.13009e-14
1.5428e-14
2.30348e-14
3.86766e-14
7.72387e-14
2.07458e-13
9.99201e-13
9.99201e-13
2.07425e-13
7.71725e-14
3.85564e-14
2.28372e-14
1.51379e-14
1.09147e-14
8.42844e-15
6.89765e-15
5.92744e-15
5.30053e-15
4.88996e-15
4.6184e-15
4.43738e-15
4.31592e-15
4.23387e-15
4.17802e-15
4.13958e-15
4.1127e-15
4.09341e-15
4.07905e-15
4.06778e-15
4.05836e-15
4.04995e-15
4.04197e-15
4.03402e-15
4.02586e-15
4.01731e-15
4.00828e-15
3.99872e-15
3.98861e-15
3.97799e-15
3.96688e-15
3.95535e-15
3.94345e-15
3.93129e-15
3.91896e-15
3.90656e-15
3.89421e-15
3.88204e-15
3.87017e-15
3.85875e-15
3.84793e-15
3.83786e-15
3.82872e-15
3.8207e-15
3.81398e-15
3.80881e-15
3.80546e-15
3.80421e-15
3.80539e-15
3.8095e-15
3.81711e-15
3.82898e-15
3.84611e-15
3.86991e-15
3.90229e-15
3.94601e-15
4.00501e-15
4.08505e-15
4.19465e-15
4.34659e-15
4.5603e-15
4.86574e-15
5.30999e-15
5.96857e-15
6.96634e-15
8.51832e-15
1.10174e-14
1.52435e-14
2.29354e-14
3.86373e-14
7.72308e-14
2.0746e-13
9.99201e-13
9.99201e-13
2.07422e-13
7.71612e-14
3.85253e-14
2.2769e-14
1.50154e-14
1.07257e-14
8.16774e-15
6.56675e-15
5.53264e-15
4.85072e-15
4.39474e-15
4.08691e-15
3.87767e-15
3.73466e-15
3.63642e-15
3.56855e-15
3.52128e-15
3.48794e-15
3.46395e-15
3.44616e-15
3.43239e-15
3.42112e-15
3.41132e-15
3.40226e-15
3.39345e-15
3.38458e-15
3.37543e-15
3.36587e-15
3.35584e-15
3.34532e-15
3.33431e-15
3.32287e-15
3.31104e-15
3.29891e-15
3.28657e-15
3.27413e-15
3.26169e-15
3.24938e-15
3.23733e-15
3.2257e-15
3.21461e-15
3.20424e-15
3.19476e-15
3.18635e-15
3.17922e-15
3.17359e-15
3.16973e-15
3.16795e-15
3.16853e-15
3.17196e-15
3.17879e-15
3.18969e-15
3.20559e-15
3.2277e-15
3.25765e-15
3.29771e-15
3.35105e-15
3.42217e-15
3.5175e-15
3.6464e-15
3.82262e-15
4.06667e-15
4.40961e-15
4.89938e-15
5.6118e-15
6.67098e-15
8.28953e-15
1.08559e-14
1.51439e-14
2.28854e-14
3.862e-14
7.72293e-14
2.07463e-13
9.99201e-13
9.99201e-13
2.07419e-13
7.71529e-14
3.85052e-14
2.27265e-14
1.49394e-14
1.06064e-14
7.99932e-15
6.34783e-15
5.26551e-15
4.54013e-15
4.04678e-15
3.70795e-15
3.47374e-15
3.31109e-15
3.19771e-15
3.11834e-15
3.06244e-15
3.0227e-15
2.994e-15
2.97275e-15
2.95644e-15
2.9433e-15
2.9321e-15
2.92198e-15
2.91236e-15
2.90285e-15
2.89317e-15
2.88318e-15
2.87278e-15
2.86196e-15
2.85071e-15
2.83907e-15
2.82711e-15
2.81492e-15
2.80259e-15
2.79023e-15
2.77796e-15
2.76591e-15
2.75423e-15
2.74307e-15
2.73258e-15
2.72293e-15
2.71431e-15
2.70691e-15
2.70097e-15
2.69672e-15
2.69451e-15
2.69455e-15
2.69733e-15
2.70334e-15
2.71321e-15
2.72774e-15
2.74798e-15
2.77532e-15
2.81163e-15
2.85947e-15
2.92235e-15
3.0052e-15
3.11498e-15
3.26161e-15
3.4595e-15
3.72975e-15
4.10392e-15
4.63013e-15
5.38383e-15
6.48793e-15
8.15282e-15
1.07636e-14
1.50901e-14
2.28608e-14
3.86135e-14
7.72307e-14
2.07466e-13
9.99201e-13
9.99201e-13
2.07416e-13
7.71464e-14
3.8491e-14
2.26982e-14
1.48895e-14
1.05279e-14
7.88702e-15
6.19928e-15
5.08088e-15
4.3217e-15
3.79818e-15
3.43347e-15
3.17777e-15
2.99775e-15
2.87064e-15
2.78063e-15
2.71662e-15
2.67076e-15
2.6375e-15
2.61288e-15
2.59409e-15
2.57912e-15
2.56658e-15
2.55547e-15
2.54511e-15
2.53502e-15
2.52491e-15
2.51458e-15
2.50394e-15
2.49293e-15
2.48157e-15
2.46989e-15
2.45797e-15
2.44588e-15
2.43373e-15
2.42165e-15
2.40976e-15
2.39819e-15
2.3871e-15
2.37664e-15
2.36698e-15
2.3583e-15
2.35079e-15
2.34467e-15
2.34017e-15
2.33762e-15
2.33722e-15
2.33941e-15
2.34464e-15
2.35347e-15
2.36662e-15
2.38497e-15
2.4097e-15
2.44236e-15
2.485e-15
2.54041e-15
2.61239e-15
2.70618e-15
2.82909e-15
2.99143e-15
3.20797e-15
3.5001e-15
3.89948e-15
4.45405e-15
5.23866e-15
6.37502e-15
8.07171e-15
1.07116e-14
1.50622e-14
2.28501e-14
3.86126e-14
7.72338e-14
2.0747e-13
9.99201e-13
9.99201e-13
2.07413e-13
7.71408e-14
3.84801e-14
2.2678e-14
1.4855e-14
1.04741e-14
7.80972e-15
6.09588e-15
4.9506e-15
4.16537e-15
3.61785e-15
3.23193e-15
2.95814e-15
2.76313e-15
2.62392e-15
2.52435e-15
2.45292e-15
2.40141e-15
2.36389e-15
2.33611e-15
2.31498e-15
2.29831e-15
2.28452e-15
2.27251e-15
2.26149e-15
2.25093e-15
2.24048e-15
2.22993e-15
2.21915e-15
2.20809e-15
2.19675e-15
2.18518e-15
2.17343e-15
2.16161e-15
2.14982e-15
2.1382e-15
2.12687e-15
2.11597e-15
2.10567e-15
2.09613e-15
2.08752e-15
2.08002e-15
2.07385e-15
2.06922e-15
2.06643e-15
2.0657e-15
2.06738e-15
2.07191e-15
2.07979e-15
2.09161e-15
2.10816e-15
2.1304e-15
2.15963e-15
2.1975e-15
2.24622e-15
2.30877e-15
2.38913e-15
2.49277e-15
2.62723e-15
2.80305e-15
3.03515e-15
3.34501e-15
3.76419e-15
4.34032e-15
5.14759e-15
6.30672e-15
8.02497e-15
1.06837e-14
1.50492e-14
2.28472e-14
3.8615e-14
7.72377e-14
2.07474e-13
9.99201e-13
9.99201e-13
2.07411e-13
7.71359e-14
3.84712e-14
2.26626e-14
1.48299e-14
1.04357e-14
7.75478e-15
6.02207e-15
4.85679e-15
4.05163e-15
3.48522e-15
3.08219e-15
2.79343e-15
2.58577e-15
2.43615e-15
2.32821e-15
2.2502e-15
2.19362e-15
2.15225e-15
2.12159e-15
2.09835e-15
2.08013e-15
2.06524e-15
2.05243e-15
2.04087e-15
2.02994e-15
2.01927e-15
2.00861e-15
1.99781e-15
1.98681e-15
1.97562e-15
1.96428e-15
1.95285e-15
1.94145e-15
1.93018e-15
1.91917e-15
1.90857e-15
1.89852e-15
1.8892e-15
1.88075e-15
1.87337e-15
1.86725e-15
1.86259e-15
1.85966e-15
1.85869e-15
1.85996e-15
1.86389e-15
1.87091e-15
1.88153e-15
1.89642e-15
1.91639e-15
1.94249e-15
1.97608e-15
2.01892e-15
2.07332e-15
2.14238e-15
2.23024e-15
2.34249e-15
2.48682e-15
2.67385e-15
2.91857e-15
3.24241e-15
3.67676e-15
4.26889e-15
5.09243e-15
6.26734e-15
8e-15
1.06709e-14
1.50453e-14
2.2849e-14
3.86193e-14
7.72422e-14
2.07478e-13
9.99201e-13
9.99201e-13
2.07409e-13
7.71314e-14
3.84636e-14
2.26502e-14
1.48108e-14
1.04072e-14
7.71452e-15
5.96809e-15
4.78793e-15
3.96758e-15
3.38646e-15
2.96979e-15
2.66888e-15
2.45074e-15
2.29234e-15
2.17726e-15
2.09358e-15
2.03257e-15
1.98784e-15
1.95465e-15
1.92955e-15
1.91e-15
1.89416e-15
1.88071e-15
1.86872e-15
1.85754e-15
1.84675e-15
1.83608e-15
1.82537e-15
1.81455e-15
1.80363e-15
1.79264e-15
1.78166e-15
1.7708e-15
1.76018e-15
1.74993e-15
1.7402e-15
1.73115e-15
1.72294e-15
1.71575e-15
1.70975e-15
1.70514e-15
1.70215e-15
1.701e-15
1.70196e-15
1.70538e-15
1.71166e-15
1.72123e-15
1.73464e-15
1.75258e-15
1.77592e-15
1.80574e-15
1.84346e-15
1.8909e-15
1.95047e-15
2.02534e-15
2.11972e-15
2.23929e-15
2.3918e-15
2.58792e-15
2.84261e-15
3.17719e-15
3.62286e-15
4.22659e-15
5.06158e-15
6.24721e-15
7.98924e-15
1.06675e-14
1.50472e-14
2.28537e-14
3.86249e-14
7.72472e-14
2.07482e-13
9.99201e-13
9.99201e-13
2.07407e-13
7.71273e-14
3.8457e-14
2.264e-14
1.47956e-14
1.03853e-14
7.68416e-15
5.92771e-15
4.73648e-15
3.90462e-15
3.31213e-15
2.88473e-15
2.57409e-15
2.34744e-15
2.18183e-15
2.0608e-15
1.97235e-15
1.90761e-15
1.86002e-15
1.8247e-15
1.79804e-15
1.77738e-15
1.76078e-15
1.74683e-15
1.73454e-15
1.72323e-15
1.71243e-15
1.70185e-15
1.69132e-15
1.68078e-15
1.67022e-15
1.65969e-15
1.64926e-15
1.63905e-15
1.62919e-15
1.61982e-15
1.61108e-15
1.60314e-15
1.59617e-15
1.59034e-15
1.58582e-15
1.58283e-15
1.58156e-15
1.58226e-15
1.58526e-15
1.5909e-15
1.59955e-15
1.61168e-15
1.62785e-15
1.64878e-15
1.67534e-15
1.70868e-15
1.75022e-15
1.80185e-15
1.86601e-15
1.94592e-15
2.04585e-15
2.1715e-15
2.33063e-15
2.53392e-15
2.79627e-15
3.13891e-15
3.59286e-15
4.2048e-15
5.04756e-15
6.24013e-15
7.98793e-15
1.06706e-14
1.5053e-14
2.28606e-14
3.86315e-14
7.72526e-14
2.07486e-13
9.99201e-13
9.99201e-13
2.07405e-13
7.71234e-14
3.8451e-14
2.26312e-14
1.47832e-14
1.0368e-14
7.66068e-15
5.89687e-15
4.69743e-15
3.85689e-15
3.25571e-15
2.81999e-15
2.5017e-15
2.26827e-15
2.09686e-15
1.97102e-15
1.87868e-15
1.81089e-15
1.76097e-15
1.72391e-15
1.696e-15
1.67448e-15
1.6573e-15
1.64301e-15
1.63056e-15
1.61922e-15
1.6085e-15
1.59811e-15
1.58786e-15
1.57768e-15
1.56756e-15
1.55757e-15
1.54778e-15
1.53831e-15
1.52929e-15
1.52088e-15
1.51322e-15
1.50647e-15
1.50081e-15
1.49641e-15
1.49345e-15
1.49209e-15
1.49256e-15
1.49519e-15
1.50026e-15
1.50811e-15
1.51912e-15
1.53377e-15
1.55262e-15
1.5764e-15
1.60601e-15
1.6426e-15
1.68764e-15
1.74299e-15
1.81115e-15
1.89537e-15
1.99992e-15
2.13053e-15
2.29497e-15
2.50384e-15
2.77198e-15
3.12048e-15
3.5802e-15
4.19755e-15
5.04524e-15
6.24207e-15
7.99321e-15
1.06781e-14
1.50615e-14
2.2869e-14
3.86389e-14
7.72584e-14
2.07491e-13
9.99201e-13
9.99201e-13
2.07403e-13
7.71199e-14
3.84456e-14
2.26235e-14
1.47727e-14
1.0354e-14
7.64213e-15
5.87293e-15
4.6674e-15
3.82039e-15
3.21265e-15
2.77058e-15
2.4464e-15
2.20771e-15
2.03176e-15
1.90214e-15
1.80674e-15
1.73656e-15
1.68482e-15
1.64643e-15
1.61758e-15
1.59543e-15
1.57787e-15
1.56339e-15
1.55089e-15
1.53963e-15
1.52908e-15
1.51895e-15
1.50904e-15
1.49929e-15
1.48968e-15
1.48029e-15
1.47119e-15
1.46252e-15
1.45441e-15
1.447e-15
1.44047e-15
1.43498e-15
1.43067e-15
1.42775e-15
1.42629e-15
1.42654e-15
1.42881e-15
1.43337e-15
1.4405e-15
1.45052e-15
1.46384e-15
1.48091e-15
1.50232e-15
1.52879e-15
1.56123e-15
1.6008e-15
1.64898e-15
1.70769e-15
1.77937e-15
1.86729e-15
1.97571e-15
2.11032e-15
2.27883e-15
2.49178e-15
2.76393e-15
3.11637e-15
3.57984e-15
4.20069e-15
5.05141e-15
6.25061e-15
8.00332e-15
1.06889e-14
1.50721e-14
2.28787e-14
3.8647e-14
7.72647e-14
2.07495e-13
9.99201e-13
9.99201e-13
2.07401e-13
7.71166e-14
3.84408e-14
2.26168e-14
1.47638e-14
1.03424e-14
7.62723e-15
5.85408e-15
4.64411e-15
3.79233e-15
3.17972e-15
2.73291e-15
2.40431e-15
2.16166e-15
1.98229e-15
1.84982e-15
1.75212e-15
1.68016e-15
1.62709e-15
1.58775e-15
1.55826e-15
1.53572e-15
1.51796e-15
1.50343e-15
1.491e-15
1.47989e-15
1.4696e-15
1.45979e-15
1.45028e-15
1.441e-15
1.43194e-15
1.42319e-15
1.41482e-15
1.40698e-15
1.3998e-15
1.39344e-15
1.38807e-15
1.38383e-15
1.38089e-15
1.37939e-15
1.37936e-15
1.38126e-15
1.38531e-15
1.39175e-15
1.40087e-15
1.41299e-15
1.42851e-15
1.4479e-15
1.47176e-15
1.50079e-15
1.53591e-15
1.57827e-15
1.62933e-15
1.69098e-15
1.76565e-15
1.85651e-15
1.96786e-15
2.10543e-15
2.27689e-15
2.49279e-15
2.76783e-15
3.12296e-15
3.58885e-15
4.21173e-15
5.06398e-15
6.26413e-15
8.01714e-15
1.07023e-14
1.50846e-14
2.28896e-14
3.86559e-14
7.72714e-14
2.07501e-13
9.99201e-13
9.99201e-13
2.07399e-13
7.71136e-14
3.84363e-14
2.26108e-14
1.47562e-14
1.03328e-14
7.61514e-15
5.83914e-15
4.62595e-15
3.77073e-15
3.15461e-15
2.70439e-15
2.37259e-15
2.12709e-15
1.94526e-15
1.81076e-15
1.71146e-15
1.63827e-15
1.58432e-15
1.54439e-15
1.51453e-15
1.49181e-15
1.47402e-15
1.45957e-15
1.4473e-15
1.43644e-15
1.42645e-15
1.41701e-15
1.40793e-15
1.39915e-15
1.39067e-15
1.38257e-15
1.37495e-15
1.36794e-15
1.3617e-15
1.35639e-15
1.35217e-15
1.34918e-15
1.34753e-15
1.34724e-15
1.34874e-15
1.35226e-15
1.35802e-15
1.36629e-15
1.37733e-15
1.39148e-15
1.40915e-15
1.43077e-15
1.45693e-15
1.48833e-15
1.5258e-15
1.57051e-15
1.62395e-15
1.68799e-15
1.76509e-15
1.85844e-15
1.97228e-15
2.11226e-15
2.28603e-15
2.50407e-15
2.78104e-15
3.13784e-15
3.60504e-15
4.22883e-15
5.08152e-15
6.28158e-15
8.03397e-15
1.0718e-14
1.50986e-14
2.29016e-14
3.86656e-14
7.72787e-14
2.07506e-13
9.99201e-13
9.99201e-13
2.07398e-13
7.71108e-14
3.84323e-14
2.26055e-14
1.47496e-14
1.03246e-14
7.60527e-15
5.82725e-15
4.61181e-15
3.7542e-15
3.13566e-15
2.68308e-15
2.34912e-15
2.10169e-15
1.91824e-15
1.78242e-15
1.68212e-15
1.60821e-15
1.55378e-15
1.51358e-15
1.48362e-15
1.46091e-15
1.44323e-15
1.42897e-15
1.41696e-15
1.4064e-15
1.39676e-15
1.38772e-15
1.37909e-15
1.37082e-15
1.36292e-15
1.35546e-15
1.34857e-15
1.34239e-15
1.33708e-15
1.3328e-15
1.32971e-15
1.3279e-15
1.32728e-15
1.32832e-15
1.33128e-15
1.33635e-15
1.34377e-15
1.35377e-15
1.36662e-15
1.38261e-15
1.40216e-15
1.42574e-15
1.45389e-15
1.48733e-15
1.52694e-15
1.57386e-15
1.62952e-15
1.69577e-15
1.77505e-15
1.87052e-15
1.98638e-15
2.12825e-15
2.30373e-15
2.52327e-15
2.80146e-15
3.15914e-15
3.62686e-15
4.25074e-15
5.10308e-15
6.30231e-15
8.0534e-15
1.07357e-14
1.51142e-14
2.29147e-14
3.86762e-14
7.72866e-14
2.07512e-13
9.99201e-13
9.99201e-13
2.07397e-13
7.71083e-14
3.84288e-14
2.26008e-14
1.47439e-14
1.03178e-14
7.59724e-15
5.81783e-15
4.60089e-15
3.74172e-15
3.12163e-15
2.66758e-15
2.33228e-15
2.08371e-15
1.89935e-15
1.76284e-15
1.66206e-15
1.58787e-15
1.53332e-15
1.49312e-15
1.46328e-15
1.44076e-15
1.42332e-15
1.40935e-15
1.39765e-15
1.38744e-15
1.37818e-15
1.36955e-15
1.36139e-15
1.35362e-15
1.34628e-15
1.33945e-15
1.33327e-15
1.32789e-15
1.32347e-15
1.32019e-15
1.31819e-15
1.31721e-15
1.31772e-15
1.32002e-15
1.3243e-15
1.33077e-15
1.33964e-15
1.35117e-15
1.36561e-15
1.3833e-15
1.40462e-15
1.43004e-15
1.46009e-15
1.49548e-15
1.53708e-15
1.58599e-15
1.64365e-15
1.71187e-15
1.79306e-15
1.89034e-15
2.00789e-15
2.15127e-15
2.32804e-15
2.5486e-15
2.8275e-15
3.18554e-15
3.65321e-15
4.27661e-15
5.12802e-15
6.32588e-15
8.07517e-15
1.07553e-14
1.51313e-14
2.29291e-14
3.86876e-14
7.72952e-14
2.07519e-13
9.99201e-13
9.99201e-13
2.07395e-13
7.71062e-14
3.84257e-14
2.25968e-14
1.4739e-14
1.03122e-14
7.59077e-15
5.81048e-15
4.59263e-15
3.73256e-15
3.1116e-15
2.65679e-15
2.32086e-15
2.07181e-15
1.88712e-15
1.75045e-15
1.64966e-15
1.57557e-15
1.5212e-15
1.48126e-15
1.45171e-15
1.42952e-15
1.41243e-15
1.39881e-15
1.38748e-15
1.37764e-15
1.36877e-15
1.36056e-15
1.35284e-15
1.34555e-15
1.33879e-15
1.33256e-15
1.32704e-15
1.32241e-15
1.31884e-15
1.31652e-15
1.31532e-15
1.31517e-15
1.3167e-15
1.32012e-15
1.32559e-15
1.33331e-15
1.34352e-15
1.35645e-15
1.37237e-15
1.39162e-15
1.41455e-15
1.44164e-15
1.47342e-15
1.51059e-15
1.55399e-15
1.60473e-15
1.6642e-15
1.7342e-15
1.8171e-15
1.91599e-15
2.035e-15
2.17965e-15
2.35744e-15
2.57873e-15
2.85801e-15
3.21605e-15
3.6833e-15
4.30584e-15
5.15593e-15
6.35203e-15
8.09915e-15
1.07767e-14
1.51499e-14
2.29446e-14
3.87e-14
7.73044e-14
2.07526e-13
9.99201e-13
9.99201e-13
2.07394e-13
7.71043e-14
3.8423e-14
2.25934e-14
1.4735e-14
1.03076e-14
7.58566e-15
5.80488e-15
4.5866e-15
3.72614e-15
3.1049e-15
2.6499e-15
2.31391e-15
2.06492e-15
1.88039e-15
1.744e-15
1.64356e-15
1.56996e-15
1.51605e-15
1.47657e-15
1.44747e-15
1.42572e-15
1.40906e-15
1.39584e-15
1.3849e-15
1.37545e-15
1.36696e-15
1.35914e-15
1.35183e-15
1.34499e-15
1.33868e-15
1.33298e-15
1.32808e-15
1.32416e-15
1.32141e-15
1.31991e-15
1.31927e-15
1.32004e-15
1.32253e-15
1.32694e-15
1.33347e-15
1.34232e-15
1.35371e-15
1.36788e-15
1.38512e-15
1.40574e-15
1.43012e-15
1.4587e-15
1.49205e-15
1.53082e-15
1.57588e-15
1.62829e-15
1.68943e-15
1.76108e-15
1.84557e-15
1.94594e-15
2.06628e-15
2.21206e-15
2.39074e-15
2.6126e-15
2.8921e-15
3.24994e-15
3.71656e-15
4.338e-15
5.18652e-15
6.38059e-15
8.12526e-15
1.08e-14
1.517e-14
2.29615e-14
3.87134e-14
7.73145e-14
2.07534e-13
9.99201e-13
9.99201e-13
2.07394e-13
7.71027e-14
3.84208e-14
2.25906e-14
1.47317e-14
1.0304e-14
7.58178e-15
5.80083e-15
4.58248e-15
3.72207e-15
3.10099e-15
2.64627e-15
2.31071e-15
2.06222e-15
1.87826e-15
1.74249e-15
1.64268e-15
1.56965e-15
1.51632e-15
1.47739e-15
1.44882e-15
1.42756e-15
1.41136e-15
1.39857e-15
1.38803e-15
1.37897e-15
1.37087e-15
1.36344e-15
1.35655e-15
1.35018e-15
1.34437e-15
1.33926e-15
1.33501e-15
1.33183e-15
1.32989e-15
1.32907e-15
1.32897e-15
1.3305e-15
1.3338e-15
1.33908e-15
1.34652e-15
1.35633e-15
1.36874e-15
1.38399e-15
1.40236e-15
1.42418e-15
1.44982e-15
1.47974e-15
1.51447e-15
1.5547e-15
1.60127e-15
1.65523e-15
1.71794e-15
1.79114e-15
1.87714e-15
1.97894e-15
2.10057e-15
2.24746e-15
2.42698e-15
2.64938e-15
2.92905e-15
3.28664e-15
3.75254e-15
4.37277e-15
5.21957e-15
6.41145e-15
8.15347e-15
1.08252e-14
1.51919e-14
2.29797e-14
3.87279e-14
7.73254e-14
2.07542e-13
9.99201e-13
9.99201e-13
2.07393e-13
7.71014e-14
3.8419e-14
2.25883e-14
1.47292e-14
1.03013e-14
7.57903e-15
5.79816e-15
4.58004e-15
3.72e-15
3.09946e-15
2.64538e-15
2.31051e-15
2.06276e-15
1.8796e-15
1.74464e-15
1.64566e-15
1.57345e-15
1.52096e-15
1.48283e-15
1.45498e-15
1.43438e-15
1.41876e-15
1.40649e-15
1.39643e-15
1.3878e-15
1.38012e-15
1.3731e-15
1.36662e-15
1.36066e-15
1.35529e-15
1.35067e-15
1.34699e-15
1.34451e-15
1.3433e-15
1.34265e-15
1.34321e-15
1.34538e-15
1.34937e-15
1.35537e-15
1.36357e-15
1.37418e-15
1.38743e-15
1.40358e-15
1.4229e-15
1.44573e-15
1.47245e-15
1.50352e-15
1.53949e-15
1.58102e-15
1.62896e-15
1.68436e-15
1.74854e-15
1.82325e-15
1.91073e-15
2.01396e-15
2.13691e-15
2.28494e-15
2.46538e-15
2.68838e-15
2.96828e-15
3.32566e-15
3.79087e-15
4.40988e-15
5.25494e-15
6.44453e-15
8.18377e-15
1.08523e-14
1.52154e-14
2.29994e-14
3.87437e-14
7.73373e-14
2.07551e-13
9.99201e-13
9.99201e-13
2.07392e-13
7.71005e-14
3.84177e-14
2.25867e-14
1.47274e-14
1.02995e-14
7.57732e-15
5.79674e-15
4.57909e-15
3.71968e-15
3.09984e-15
2.64661e-15
2.31271e-15
2.06608e-15
1.8841e-15
1.75032e-15
1.65249e-15
1.58135e-15
1.52983e-15
1.49258e-15
1.46551e-15
1.44558e-15
1.43056e-15
1.4188e-15
1.4092e-15
1.40098e-15
1.39367e-15
1.38701e-15
1.38089e-15
1.37529e-15
1.37033e-15
1.36615e-15
1.36302e-15
1.36105e-15
1.36032e-15
1.36e-15
1.36106e-15
1.36376e-15
1.36831e-15
1.37489e-15
1.38369e-15
1.39494e-15
1.40886e-15
1.42572e-15
1.44581e-15
1.46945e-15
1.49706e-15
1.5291e-15
1.56612e-15
1.6088e-15
1.65798e-15
1.71471e-15
1.7803e-15
1.85647e-15
1.94544e-15
2.05014e-15
2.17448e-15
2.32376e-15
2.50524e-15
2.729e-15
3.00928e-15
3.3666e-15
3.83124e-15
4.44913e-15
5.29247e-15
6.47977e-15
8.21616e-15
1.08813e-14
1.52407e-14
2.30206e-14
3.87607e-14
7.73501e-14
2.07561e-13
9.99201e-13
9.99201e-13
2.07392e-13
7.70999e-14
3.84168e-14
2.25857e-14
1.47263e-14
1.02985e-14
7.57661e-15
5.79647e-15
4.5794e-15
3.72077e-15
3.10194e-15
2.64991e-15
2.31732e-15
2.07204e-15
1.89143e-15
1.75899e-15
1.66243e-15
1.59246e-15
1.54202e-15
1.50572e-15
1.47948e-15
1.46028e-15
1.44586e-15
1.43463e-15
1.42548e-15
1.41765e-15
1.41071e-15
1.40438e-15
1.39858e-15
1.39331e-15
1.38869e-15
1.38492e-15
1.38231e-15
1.38071e-15
1.38036e-15
1.38033e-15
1.38179e-15
1.38491e-15
1.38989e-15
1.39691e-15
1.40617e-15
1.41789e-15
1.4323e-15
1.44968e-15
1.47033e-15
1.4946e-15
1.5229e-15
1.5557e-15
1.59359e-15
1.63726e-15
1.68754e-15
1.74548e-15
1.81241e-15
1.89002e-15
1.98048e-15
2.08671e-15
2.21255e-15
2.36324e-15
2.54595e-15
2.77067e-15
3.05156e-15
3.40906e-15
3.87333e-15
4.49027e-15
5.33203e-15
6.51709e-15
8.25063e-15
1.09124e-14
1.52678e-14
2.30435e-14
3.8779e-14
7.7364e-14
2.07572e-13
9.99201e-13
9.99201e-13
2.07392e-13
7.70996e-14
3.84164e-14
2.25852e-14
1.4726e-14
1.02983e-14
7.57679e-15
5.79719e-15
4.58091e-15
3.7233e-15
3.10569e-15
2.65501e-15
2.32388e-15
2.08013e-15
1.90104e-15
1.77008e-15
1.67491e-15
1.60623e-15
1.55693e-15
1.52164e-15
1.49627e-15
1.47781e-15
1.46402e-15
1.45331e-15
1.44461e-15
1.43717e-15
1.43056e-15
1.42455e-15
1.41905e-15
1.41408e-15
1.40978e-15
1.40638e-15
1.40422e-15
1.403e-15
1.40287e-15
1.40305e-15
1.40481e-15
1.40826e-15
1.41355e-15
1.42088e-15
1.43044e-15
1.44247e-15
1.4572e-15
1.47492e-15
1.49593e-15
1.52061e-15
1.54939e-15
1.58276e-15
1.62133e-15
1.66579e-15
1.71701e-15
1.77605e-15
1.84423e-15
1.92322e-15
2.0152e-15
2.12302e-15
2.25048e-15
2.40275e-15
2.58692e-15
2.81288e-15
3.09467e-15
3.45263e-15
3.91684e-15
4.53308e-15
5.37345e-15
6.55642e-15
8.28715e-15
1.09454e-14
1.52968e-14
2.3068e-14
3.87988e-14
7.73789e-14
2.07584e-13
9.99201e-13
9.99201e-13
2.07392e-13
7.70996e-14
3.84165e-14
2.25854e-14
1.47262e-14
1.02989e-14
7.57783e-15
5.79893e-15
4.58357e-15
3.72711e-15
3.11083e-15
2.66165e-15
2.33212e-15
2.09001e-15
1.91256e-15
1.78318e-15
1.68949e-15
1.62215e-15
1.57405e-15
1.5398e-15
1.51534e-15
1.49763e-15
1.48447e-15
1.4743e-15
1.46604e-15
1.45898e-15
1.4527e-15
1.44699e-15
1.44177e-15
1.43707e-15
1.43306e-15
1.43e-15
1.42828e-15
1.42744e-15
1.42711e-15
1.42767e-15
1.4297e-15
1.43337e-15
1.43888e-15
1.4464e-15
1.45613e-15
1.46831e-15
1.48318e-15
1.50104e-15
1.52222e-15
1.5471e-15
1.57614e-15
1.60986e-15
1.64888e-15
1.69394e-15
1.74592e-15
1.8059e-15
1.87521e-15
1.95553e-15
2.04901e-15
2.15848e-15
2.28769e-15
2.44173e-15
2.6276e-15
2.85509e-15
3.13813e-15
3.49692e-15
3.96142e-15
4.57729e-15
5.41657e-15
6.59765e-15
8.32568e-15
1.09805e-14
1.53278e-14
2.30943e-14
3.88201e-14
7.73951e-14
2.07597e-13
9.99201e-13
9.99201e-13
2.07392e-13
7.71e-14
3.8417e-14
2.25861e-14
1.47272e-14
1.03002e-14
7.57974e-15
5.80162e-15
4.58726e-15
3.73203e-15
3.1172e-15
2.66961e-15
2.34178e-15
2.10141e-15
1.92567e-15
1.79793e-15
1.70578e-15
1.63983e-15
1.59296e-15
1.55978e-15
1.53622e-15
1.51928e-15
1.50676e-15
1.49712e-15
1.4893e-15
1.48263e-15
1.47668e-15
1.47126e-15
1.46631e-15
1.46189e-15
1.45816e-15
1.45541e-15
1.45405e-15
1.45321e-15
1.45314e-15
1.45393e-15
1.45614e-15
1.45997e-15
1.46559e-15
1.47319e-15
1.48296e-15
1.49514e-15
1.50999e-15
1.52781e-15
1.54894e-15
1.57381e-15
1.60288e-15
1.63671e-15
1.67595e-15
1.72138e-15
1.77391e-15
1.83465e-15
1.90495e-15
1.98649e-15
2.08143e-15
2.19258e-15
2.32363e-15
2.47962e-15
2.66745e-15
2.8968e-15
3.18146e-15
3.54148e-15
4.00669e-15
4.62261e-15
5.46114e-15
6.64061e-15