/*--------------------------------*- C++ -*----------------------------------*\
  =========                 |
  \\      /  F ield         | OpenFOAM: The Open Source CFD Toolbox
   \\    /   O peration     | Website:  https://openfoam.org
    \\  /    A nd           | Version:  12
     \\/     M anipulation  |
\*---------------------------------------------------------------------------*/
FoamFile
{
    format      ascii;
    class       volScalarField;
    location    "8";
    object      p;
}
// * * * * * * * * * * * * * * * * * * * * * * * * * * * * * * * * * * * * * //

dimensions      [0 2 -2 0 0 0 0];

internalField   nonuniform List<scalar> 
5625
(
8.11317e-11
-1.83348e-05
-9.33206e-05
-0.000227716
-0.000405918
-0.00061295
-0.000836307
-0.00106553
-0.0012921
-0.00150929
-0.00171182
-0.00189568
-0.00205784
-0.00219607
-0.00230874
-0.00239469
-0.00245311
-0.00248345
-0.00248534
-0.00245853
-0.00240286
-0.00231827
-0.00220474
-0.00206232
-0.00189112
-0.00169138
-0.00146342
-0.00120772
-0.000924948
-0.000615942
-0.000281788
7.6173e-05
0.00045632
0.000856734
0.00127518
0.00170909
0.00215557
0.00261144
0.00307329
0.00353725
0.00399934
0.00445537
0.004901
0.00533178
0.00574329
0.00613113
0.00649105
0.00681901
0.00711127
0.00736449
0.00757578
0.00774278
0.00786376
0.00793763
0.00796404
0.00794337
0.0078768
0.00776628
0.00761455
0.00742513
0.00720231
0.00695106
0.00667707
0.00638665
0.00608671
0.00578469
0.00548855
0.00520666
0.00494778
0.00472083
0.00453459
0.00439718
0.00431548
0.00429189
0.00430705
1.817e-05
-2.44392e-07
-6.71083e-05
-0.000185121
-0.000341107
-0.000522672
-0.000719372
-0.000922264
-0.00112384
-0.00131798
-0.00149979
-0.00166542
-0.00181191
-0.00193699
-0.00203897
-0.0021166
-0.00216896
-0.00219538
-0.0021954
-0.00216869
-0.00211503
-0.00203428
-0.00192638
-0.00179136
-0.00162931
-0.00144045
-0.00122508
-0.00098369
-0.000716896
-0.000425528
-0.000110631
0.00022651
0.000584346
0.000961051
0.0013545
0.00176227
0.00218164
0.00260964
0.003043
0.00347814
0.00391133
0.00433867
0.00475609
0.00515948
0.0055447
0.00590769
0.00624451
0.00655142
0.006825
0.00706217
0.00726028
0.00741721
0.00753139
0.0076019
0.00762846
0.0076115
0.00755219
0.00745242
0.00731482
0.00714271
0.00694014
0.00671178
0.00646294
0.00619949
0.0059278
0.00565472
0.00538746
0.00513357
0.00490076
0.00469678
0.00452905
0.00440433
0.00432883
0.00430669
0.00432208
9.34192e-05
6.63501e-05
-1.06882e-06
-0.000109739
-0.000249295
-0.000410104
-0.000583832
-0.000763113
-0.000941585
-0.00111391
-0.00127571
-0.00142347
-0.00155438
-0.00166627
-0.00175744
-0.00182662
-0.00187283
-0.00189533
-0.0018936
-0.00186723
-0.00181594
-0.00173954
-0.00163792
-0.00151107
-0.00135906
-0.00118206
-0.000980355
-0.000754388
-0.000504747
-0.000232212
6.22361e-05
0.000377385
0.000711778
0.0010637
0.00143116
0.00181189
0.00220335
0.00260278
0.00300707
0.00341294
0.0038169
0.00421532
0.00460443
0.0049804
0.0053394
0.00567765
0.00599153
0.00627759
0.00653266
0.00675392
0.00693897
0.00708585
0.00719319
0.00726016
0.00728659
0.00727293
0.00722033
0.00713061
0.00700627
0.00685046
0.00666696
0.00646015
0.00623494
0.00599676
0.00575144
0.00550519
0.0052645
0.00503605
0.00482659
0.00464276
0.00449082
0.00437646
0.00430555
0.00428408
0.00429899
0.000229458
0.000184821
0.000106216
-3.66393e-06
-0.00013743
-0.000287748
-0.000447932
-0.000611961
-0.000774547
-0.00093117
-0.00107805
-0.0012121
-0.00133081
-0.00143218
-0.00151466
-0.00157702
-0.00161831
-0.0016378
-0.00163493
-0.00160928
-0.00156051
-0.00148841
-0.00139284
-0.00127371
-0.00113108
-0.000965059
-0.000775896
-0.000563969
-0.000329813
-7.4135e-05
0.000202159
0.000497948
0.000811877
0.00114235
0.0014875
0.00184521
0.0022131
0.00258856
0.00296869
0.0033504
0.00373041
0.00410529
0.00447149
0.00482541
0.00516343
0.005482
0.00577769
0.00604726
0.00628774
0.00649645
0.00667116
0.00681005
0.00691182
0.00697575
0.00700168
0.0069901
0.00694211
0.00685948
0.00674458
0.00660042
0.00643058
0.00623916
0.00603079
0.00581049
0.00558366
0.005356
0.0051334
0.00492187
0.0047274
0.00455588
0.00441281
0.00430328
0.00423301
0.00420861
0.00421901
0.000411836
0.000342846
0.000245063
0.000126342
-9.11952e-06
-0.000156148
-0.000309455
-0.000464211
-0.000616145
-0.000761557
-0.000897311
-0.0010208
-0.0011299
-0.00122288
-0.00129836
-0.00135526
-0.0013927
-0.00141001
-0.00140664
-0.00138216
-0.00133624
-0.00126862
-0.00117912
-0.00106763
-0.000934141
-0.000778711
-0.000601524
-0.000402891
-0.000183268
5.67224e-05
0.000316267
0.000594348
0.000889723
0.00120091
0.00152619
0.00186357
0.00221083
0.00256549
0.00292483
0.00328594
0.00364568
0.0040008
0.00434793
0.00468361
0.0050044
0.0053069
0.00558783
0.00584408
0.00607279
0.00627142
0.0064378
0.0065702
0.00666739
0.00672867
0.00675389
0.00674354
0.00669868
0.006621
0.00651279
0.00637691
0.00621676
0.00603626
0.00583973
0.0056319
0.00541779
0.00520267
0.00499193
0.00479103
0.00460539
0.00444026
0.0043006
0.00419105
0.00411689
0.00408424
0.00408451
0.000626507
0.000528645
0.000406215
0.000273209
0.000130641
-1.83629e-05
-0.000169752
-0.000319776
-0.00046512
-0.000602885
-0.000730591
-0.000846154
-0.000947854
-0.00103429
-0.00110432
-0.00115702
-0.00119167
-0.00120765
-0.00120446
-0.00118171
-0.00113906
-0.00107623
-0.000993
-0.000889226
-0.000764828
-0.00061981
-0.000454281
-0.000268465
-6.27289e-05
0.000162402
0.000406223
0.000667827
0.000946093
0.00123967
0.00154696
0.00186611
0.00219505
0.00253143
0.00287267
0.003216
0.00355844
0.00389686
0.004228
0.00454855
0.00485518
0.00514458
0.00541357
0.00565913
0.00587845
0.00606907
0.00622886
0.00635612
0.00644963
0.00650869
0.00653316
0.00652346
0.00648064
0.00640631
0.00630266
0.00617243
0.00601888
0.00584572
0.00565707
0.00545739
0.00525138
0.00504395
0.00484007
0.00464476
0.00446293
0.00429934
0.00415847
0.00404455
0.00396215
0.00391625
0.00390148
0.000861432
0.000731965
0.000581292
0.000430062
0.000276269
0.000121153
-3.2325e-05
-0.000181382
-0.000323593
-0.000456828
-0.000579246
-0.000689298
-0.000785697
-0.000867386
-0.000933497
-0.000983321
-0.00101627
-0.00103184
-0.00102962
-0.00100923
-0.000970338
-0.000912668
-0.000835969
-0.000740043
-0.000624749
-0.000490019
-0.000335877
-0.000162454
2.99864e-05
0.000241028
0.000470082
0.000716366
0.000978883
0.00125641
0.00154749
0.0018504
0.00216319
0.00248364
0.00280932
0.00313756
0.00346548
0.00379007
0.00410816
0.00441653
0.0047119
0.00499104
0.0052508
0.0054882
0.00570047
0.00588513
0.00604007
0.00616357
0.00625441
0.00631183
0.00633567
0.00632631
0.00628472
0.00621244
0.00611156
0.00598474
0.00583509
0.00566616
0.0054819
0.00528654
0.00508452
0.00488045
0.00467899
0.00448475
0.00430226
0.00413586
0.00398962
0.00386736
0.00377288
0.00370967
0.00367621
0.00110601
0.000943522
0.000762401
0.000590209
0.000422141
0.000257724
9.89707e-05
-5.22029e-05
-0.00019419
-0.000325581
-0.000445159
-0.000551898
-0.00064495
-0.000723617
-0.00078732
-0.000835573
-0.00086796
-0.000884107
-0.000883674
-0.000866336
-0.000831785
-0.000779725
-0.00070988
-0.000622003
-0.000515885
-0.00039138
-0.000248417
-8.70252e-05
9.26441e-05
0.000290295
0.000505464
0.000737498
0.000985533
0.00124848
0.00152501
0.00181353
0.00211222
0.00241898
0.00273147
0.00304714
0.00336319
0.00367669
0.00398453
0.00428352
0.00457044
0.00484205
0.00509523
0.00532697
0.00553449
0.00571527
0.00586716
0.0059884
0.00607768
0.00613423
0.00615779
0.00614868
0.00610778
0.00603657
0.00593705
0.00581176
0.00566371
0.00549633
0.0053134
0.00511898
0.00491732
0.00471278
0.00450975
0.00431256
0.0041254
0.00395228
0.00379694
0.00366286
0.00355304
0.00346942
0.00341469
0.00135096
0.00115491
0.00094214
0.0007472
0.000562697
0.00038661
0.000220123
6.43774e-05
-7.97704e-05
-0.000211586
-0.000330443
-0.000435824
-0.000527314
-0.000604573
-0.000667318
-0.000715296
-0.000748271
-0.000766002
-0.000768239
-0.000754712
-0.000725135
-0.000679205
-0.000616615
-0.000537064
-0.000440275
-0.000326012
-0.000194105
-4.44723e-05
0.000122857
0.000307716
0.000509773
0.000728512
0.000963207
0.0012129
0.0014764
0.00175225
0.00203873
0.00233385
0.00263539
0.00294084
0.00324752
0.0035525
0.00385274
0.00414505
0.0044262
0.00469295
0.00494213
0.00517068
0.00537576
0.00555478
0.0057055
0.00582607
0.00591511
0.00597173
0.00599559
0.00598691
0.00594649
0.00587571
0.00577648
0.00565124
0.00550291
0.00533482
0.00515061
0.00495422
0.00474974
0.00454135
0.00433324
0.00412953
0.00393416
0.00375087
0.00358316
0.00343423
0.00330635
0.00319997
0.00312225
0.00158812
0.00135852
0.00111362
0.000894873
0.000692483
0.000503028
0.000326961
0.000164725
1.64912e-05
-0.000117636
-0.000237587
-0.000343331
-0.000434871
-0.000512221
-0.000575387
-0.000624352
-0.00065906
-0.000679407
-0.000685235
-0.000676331
-0.000652429
-0.000613219
-0.00055836
-0.000487496
-0.000400272
-0.00029636
-0.000175481
-3.74331e-05
0.000117883
0.000290437
0.000480037
0.000686312
0.000908675
0.00114631
0.00139816
0.00166289
0.00193889
0.00222429
0.00251693
0.00281439
0.00311403
0.00341295
0.00370811
0.00399633
0.00427433
0.00453882
0.00478656
0.0050144
0.0052194
0.00539885
0.0055504
0.00567207
0.00576235
0.00582022
0.00584522
0.00583745
0.00579761
0.00572695
0.00562731
0.00550104
0.00535095
0.00518029
0.00499262
0.00479176
0.0045817
0.00436651
0.00415024
0.00393685
0.00373013
0.00353362
0.00335066
0.00318427
0.00303607
0.00290514
0.00280326
0.00181021
0.00154747
0.00127045
0.00102737
0.000806191
0.000602204
0.000415208
0.000245016
9.11635e-05
-4.68288e-05
-0.000169415
-0.000277028
-0.00037007
-0.000448893
-0.000513786
-0.00056496
-0.000602538
-0.000626547
-0.000636921
-0.000633498
-0.000616033
-0.000584204
-0.000537633
-0.000475901
-0.000398571
-0.000305214
-0.000195438
-6.89107e-05
7.46031e-05
0.000235217
0.000412888
0.000607393
0.000818295
0.00104492
0.00128635
0.00154136
0.00180847
0.0020859
0.00237157
0.00266312
0.00295792
0.00325312
0.00354566
0.00383229
0.00410971
0.00437453
0.00462339
0.00485305
0.0050604
0.0052426
0.00539712
0.00552184
0.00561506
0.00567561
0.00570287
0.0056968
0.00565796
0.0055875
0.00548712
0.00535909
0.00520616
0.00503147
0.00483854
0.00463111
0.00441312
0.00418856
0.00396141
0.00373555
0.00351467
0.00330223
0.00310148
0.00291535
0.00274493
0.00258805
0.00246119
0.00201068
0.00171545
0.00140666
0.00113912
0.000898674
0.000679412
0.000480543
0.0003013
0.00014063
-2.49387e-06
-0.000129019
-0.000239812
-0.000335656
-0.000417226
-0.00048508
-0.000539646
-0.000581216
-0.000609943
-0.000625846
-0.000628811
-0.000618605
-0.000594891
-0.000557245
-0.000505181
-0.000438172
-0.000355683
-0.000257196
-0.000142246
-1.04511e-05
0.000138454
0.000304583
0.000487868
0.000688027
0.000904536
0.00113661
0.00138316
0.00164281
0.00191388
0.00219435
0.00248193
0.00277401
0.00306772
0.00335999
0.00364751
0.00392688
0.00419462
0.00444723
0.00468129
0.00489354
0.00508095
0.00524078
0.0053707
0.00546882
0.00553376
0.00556472
0.00556147
0.00552441
0.00545456
0.00535349
0.00522339
0.00506689
0.0048871
0.00468749
0.00447176
0.00424383
0.00400768
0.00376726
0.00352646
0.00328894
0.00305814
0.00283732
0.00262943
0.00243512
0.00225111
0.0020986
0.00218351
0.00185661
0.00151666
0.00122482
0.000964954
0.000730008
0.000518646
0.000329561
0.000161149
1.18686e-05
-0.00011969
-0.000234807
-0.000334621
-0.000420113
-0.000492093
-0.000551193
-0.000597866
-0.000632379
-0.000654824
-0.000665129
-0.000663067
-0.000648275
-0.000620279
-0.000578516
-0.000522364
-0.00045117
-0.000364286
-0.000261103
-0.000141084
-3.80358e-06
0.000151016
0.000323471
0.000513441
0.000720557
0.000944174
0.00118335
0.00143681
0.00170296
0.00197988
0.0022653
0.00255664
0.00285102
0.00314531
0.00343615
0.00372002
0.00399329
0.00425232
0.00449349
0.00471334
0.00490858
0.00507627
0.0052138
0.00531906
0.00539041
0.00542683
0.00542788
0.00539376
0.00532532
0.005224
0.00509187
0.00493149
0.00474591
0.00453856
0.00431316
0.00407363
0.00382398
0.00356821
0.00331026
0.00305386
0.00280251
0.00255955
0.00232805
0.00210832
0.00189609
0.00171731
0.00232315
0.0019655
0.00159515
0.00127942
0.00100022
0.000749441
0.000525222
0.00032575
0.000148897
-7.36304e-06
-0.000144878
-0.000265317
-0.000370153
-0.000460655
-0.000537868
-0.000602615
-0.00065549
-0.000696866
-0.0007269
-0.000745548
-0.000752578
-0.000747597
-0.000730069
-0.000699347
-0.000654703
-0.00059536
-0.00052053
-0.000429451
-0.000321422
-0.000195848
-5.22775e-05
0.00010956
0.000289714
0.00048798
0.000703865
0.000936562
0.00118493
0.00144746
0.00172231
0.00200725
0.00229973
0.00259684
0.00289539
0.00319194
0.00348285
0.00376433
0.00403253
0.00428364
0.00451393
0.00471985
0.00489818
0.00504603
0.00516097
0.0052411
0.00528511
0.00529232
0.00526269
0.00519687
0.00509615
0.00496244
0.00479825
0.00460656
0.00439079
0.00415469
0.00390221
0.00363745
0.00336453
0.00308748
0.00281017
0.00253624
0.00226923
0.00201237
0.00176576
0.0015242
0.00131846
0.00242437
0.00203699
0.00163715
0.00129808
0.000999835
0.00073327
0.000496033
0.000285821
0.000100011
-6.38882e-05
-0.00020814
-0.000334778
-0.000445594
-0.000542122
-0.000625628
-0.000697107
-0.000757283
-0.000806618
-0.000845323
-0.00087337
-0.000890514
-0.000896318
-0.000890178
-0.000871351
-0.000838996
-0.000792201
-0.000730029
-0.000651554
-0.000555902
-0.000442298
-0.000310106
-0.00015887
1.16417e-05
0.000201398
0.000410071
0.000637001
0.000881174
0.0011412
0.0014153
0.00170131
0.00199667
0.00229847
0.00260346
0.0029081
0.00320861
0.00350101
0.00378126
0.00404526
0.00428903
0.00450872
0.00470075
0.00486191
0.00498943
0.00508108
0.00513522
0.00515086
0.0051277
0.00506614
0.00496729
0.0048329
0.00466538
0.00446766
0.00424316
0.00399566
0.00372921
0.00344803
0.00315638
0.00285849
0.00255842
0.00226004
0.00196714
0.00168323
0.00140826
0.00113616
0.000902649
0.00248222
0.00206621
0.0016379
0.00127617
0.000959316
0.000677173
0.000426914
0.000205765
1.06233e-05
-0.000161444
-0.000313098
-0.000446718
-0.000564396
-0.000667912
-0.000758735
-0.000838016
-0.000906595
-0.000965011
-0.00101351
-0.00105207
-0.00108043
-0.00109809
-0.00110437
-0.00109842
-0.00107927
-0.00104588
-0.000997136
-0.000931945
-0.00084925
-0.000748082
-0.000627607
-0.000487174
-0.000326354
-0.00014499
5.67668e-05
0.000278419
0.000519096
0.000777525
0.00105202
0.00134047
0.00164034
0.0019487
0.00226224
0.00257731
0.00288998
0.00319609
0.00349134
0.00377137
0.00403186
0.00426863
0.00447773
0.00465555
0.00479893
0.00490525
0.00497248
0.00499929
0.00498504
0.00492986
0.00483462
0.00470089
0.00453096
0.00432771
0.00409455
0.00383531
0.00355418
0.00325553
0.00294383
0.00262355
0.00229903
0.00197442
0.00165386
0.0013412
0.00103631
0.000732333
0.000470036
0.00249204
0.00204853
0.00159285
0.00120927
0.000874353
0.000576959
0.000313796
8.16299e-05
-0.000123105
-0.000303769
-0.000463402
-0.000604715
-0.000730077
-0.000841503
-0.000940645
-0.0010288
-0.0011069
-0.00117554
-0.00123502
-0.00128528
-0.00132604
-0.00135673
-0.00137658
-0.00138462
-0.00137976
-0.00136079
-0.00132643
-0.0012754
-0.00120646
-0.00111841
-0.00101023
-0.000881037
-0.000730203
-0.000557364
-0.000362476
-0.000145855
9.17848e-05
0.000349307
0.00062513
0.000917213
0.00122306
0.00153973
0.00186384
0.00219165
0.00251906
0.00284171
0.00315504
0.00345438
0.00373506
0.0039925
0.00422235
0.00442054
0.00458347
0.00470805
0.00479183
0.00483303
0.00483065
0.00478448
0.00469509
0.00456387
0.00439292
0.00418507
0.00394372
0.00367279
0.00337659
0.0030597
0.00272686
0.00238282
0.00203228
0.00167974
0.00132977
0.00098663
0.000650176
0.000312768
2.04315e-05
0.00244933
0.00197957
0.0014977
0.00109315
0.000740804
0.000428581
0.000152725
-9.04468e-05
-0.000304953
-0.000494567
-0.000662693
-0.000812354
-0.000946186
-0.00106642
-0.00117487
-0.00127297
-0.00136173
-0.00144181
-0.00151349
-0.00157672
-0.00163116
-0.00167617
-0.00171086
-0.00173417
-0.00174484
-0.00174149
-0.00172267
-0.00168691
-0.00163273
-0.00155875
-0.00146368
-0.00134644
-0.00120616
-0.00104226
-0.000854466
-0.000642906
-0.000408108
-0.000151054
0.000126801
0.000423506
0.000736613
0.00106318
0.00139979
0.00174258
0.0020873
0.00242937
0.00276395
0.00308605
0.0033906
0.0036726
0.00392721
0.00414988
0.00433649
0.00448342
0.00458769
0.00464707
0.00466007
0.00462609
0.00454538
0.00441902
0.00424898
0.00403795
0.00378934
0.00350714
0.00319583
0.00286023
0.00250538
0.00213641
0.00175839
0.00137628
0.000995131
0.000619715
0.000249904
-0.000122713
-0.000446601
0.00234986
0.00185511
0.00134833
0.000923763
0.000554702
0.000228148
-6.01172e-05
-0.000314218
-0.000538613
-0.000737476
-0.000914561
-0.00107319
-0.00121626
-0.00134618
-0.00146494
-0.00157408
-0.00167468
-0.00176743
-0.00185262
-0.00193018
-0.00199968
-0.00206041
-0.00211139
-0.00215138
-0.002179
-0.00219268
-0.00219078
-0.00217161
-0.00213348
-0.00207475
-0.00199391
-0.00188963
-0.00176077
-0.00160651
-0.00142636
-0.00122019
-0.000988342
-0.000731604
-0.000451284
-0.000149218
0.000172219
0.000510103
0.000860986
0.00122091
0.00158548
0.00194987
0.00230898
0.00265743
0.00298976
0.00330047
0.00358423
0.0038359
0.00405078
0.00422466
0.00435396
0.00443587
0.00446839
0.00445041
0.00438178
0.00426328
0.00409661
0.00388435
0.00362989
0.0033373
0.00301122
0.00265675
0.00227928
0.00188435
0.00147752
0.00106425
0.000650145
0.000240561
-0.000164565
-0.000574425
-0.000931659
0.00218956
0.0016712
0.00114082
0.000697271
0.000312273
-2.80597e-05
-0.000328397
-0.0005933
-0.000827657
-0.00103603
-0.00122252
-0.00139072
-0.00154376
-0.00168427
-0.00181435
-0.00193564
-0.0020493
-0.00215603
-0.00225612
-0.00234944
-0.0024355
-0.0025135
-0.00258233
-0.00264062
-0.0026868
-0.00271913
-0.00273575
-0.00273476
-0.00271421
-0.00267223
-0.00260704
-0.00251702
-0.00240079
-0.00225723
-0.00208559
-0.0018855
-0.00165703
-0.00140079
-0.00111788
-0.00081
-0.000479422
-0.000129021
0.000237742
0.000616837
0.00100371
0.00139333
0.00178028
0.00215882
0.00252304
0.00286693
0.00318455
0.00347018
0.00371843
0.00392441
0.00408387
0.00419332
0.00425013
0.00425264
0.0042002
0.00409318
0.00393301
0.00372208
0.00346372
0.00316208
0.00282198
0.00244882
0.00204838
0.00162669
0.00118983
0.000743846
0.00029498
-0.000150763
-0.00059334
-0.00104275
-0.00143542
0.00196461
0.00142406
0.000871503
0.000410049
9.94106e-06
-0.000343569
-0.000655602
-0.000931146
-0.00117551
-0.00139364
-0.00158994
-0.00176832
-0.0019321
-0.00208408
-0.00222652
-0.00236113
-0.00248911
-0.00261119
-0.00272763
-0.00283825
-0.0029425
-0.00303945
-0.00312787
-0.00320623
-0.00327279
-0.0033256
-0.00336261
-0.00338163
-0.00338051
-0.00335707
-0.00330927
-0.00323518
-0.00313313
-0.0030017
-0.00283982
-0.00264685
-0.0024226
-0.00216739
-0.00188213
-0.00156831
-0.00122808
-0.000864239
-0.000480215
-8.00948e-05
0.000331435
0.000749134
0.00116728
0.00157975
0.00198016
0.00236193
0.00271852
0.00304349
0.00333071
0.00357454
0.00376992
0.0039126
0.00399923
0.00402747
0.00399606
0.0039049
0.00375504
0.00354864
0.00328895
0.00298014
0.00262725
0.00223597
0.00181253
0.00136348
0.000895505
0.000415307
-7.0159e-05
-0.000554159
-0.00103651
-0.00152807
-0.00195858
0.00167138
0.00111016
0.000536911
5.86951e-05
-0.000355648
-0.000721699
-0.00104502
-0.00133102
-0.00158542
-0.00181353
-0.00202008
-0.00220922
-0.0023845
-0.00254888
-0.00270474
-0.00285386
-0.0029975
-0.00313637
-0.00327071
-0.00340028
-0.00352445
-0.00364217
-0.00375208
-0.00385248
-0.00394144
-0.00401681
-0.0040763
-0.00411749
-0.00413792
-0.00413515
-0.00410682
-0.0040507
-0.00396476
-0.00384727
-0.00369683
-0.00351246
-0.00329365
-0.00304044
-0.00275345
-0.00243397
-0.00208394
-0.00170605
-0.00130367
-0.000880895
-0.000442526
6.00454e-06
0.000458678
0.000908983
0.00135003
0.00177466
0.00217563
0.00254576
0.00287809
0.00316609
0.00340384
0.0035862
0.00370894
0.00376893
0.00376422
0.0036941
0.00355917
0.00336127
0.00310348
0.00279002
0.00242608
0.0020177
0.00157157
0.00109482
0.000594796
7.89459e-05
-0.000444981
-0.000969444
-0.00149409
-0.00203067
-0.00250174
0.00130653
0.000726215
0.000133834
-0.000359947
-0.000787612
-0.00116554
-0.00149972
-0.00179598
-0.00206043
-0.00229875
-0.00251596
-0.00271647
-0.00290403
-0.00308176
-0.00325213
-0.00341702
-0.00357768
-0.00373486
-0.00388873
-0.00403901
-0.00418496
-0.00432542
-0.00445887
-0.00458346
-0.00469706
-0.00479731
-0.00488165
-0.00494741
-0.00499185
-0.00501222
-0.00500581
-0.00497007
-0.0049026
-0.0048013
-0.00466441
-0.00449055
-0.00427888
-0.00402908
-0.00374146
-0.00341701
-0.00305747
-0.00266531
-0.00224381
-0.00179706
-0.0013299
-0.000847955
-0.000357507
0.000134536
0.000620771
0.00109343
0.00154452
0.00196604
0.00235012
0.00268926
0.00297652
0.00320575
0.00337173
0.0034704
0.00349896
0.00345597
0.00334144
0.00315682
0.00290497
0.00259005
0.00221743
0.00179346
0.00132535
0.000820852
0.000288054
-0.000264796
-0.000829055
-0.00139628
-0.00196593
-0.00255071
-0.00306535
0.00086696
0.000269215
-0.00034067
-0.00084877
-0.00128881
-0.00167791
-0.00202251
-0.00232882
-0.00260335
-0.0028521
-0.00308041
-0.0032929
-0.00349354
-0.00368558
-0.0038716
-0.00405353
-0.00423267
-0.00440972
-0.00458484
-0.00475768
-0.00492739
-0.00509269
-0.00525192
-0.00540304
-0.00554373
-0.00567139
-0.00578322
-0.00587627
-0.00594749
-0.00599379
-0.00601214
-0.00599959
-0.00595337
-0.00587096
-0.00575018
-0.00558926
-0.00538692
-0.00514246
-0.00485579
-0.00452759
-0.00415927
-0.00375308
-0.00331214
-0.00284045
-0.00234287
-0.00182516
-0.00129385
-0.000756229
-0.000220214
0.000305778
0.00081299
0.00129251
0.00173548
0.00213332
0.00247796
0.00276208
0.00297932
0.00312452
0.00319388
0.00318508
0.00309741
0.0029318
0.00269077
0.00237839
0.00200013
0.0015627
0.00107379
0.000541852
-2.42259e-05
-0.000615304
-0.00122175
-0.00183414
-0.00245167
-0.00308811
-0.00364968
0.000349861
-0.000263569
-0.000889259
-0.00141039
-0.00186182
-0.00226139
-0.00261594
-0.00293209
-0.0032167
-0.00347612
-0.00371595
-0.00394107
-0.0041556
-0.00436295
-0.00456578
-0.00476608
-0.00496517
-0.00516374
-0.00536191
-0.00555924
-0.0057548
-0.00594719
-0.00613456
-0.00631473
-0.00648516
-0.006643
-0.00678521
-0.00690854
-0.00700963
-0.00708503
-0.00713134
-0.00714521
-0.00712345
-0.00706309
-0.0069615
-0.00681644
-0.00662616
-0.0063895
-0.00610594
-0.00577574
-0.00539994
-0.00498049
-0.00452026
-0.00402312
-0.00349389
-0.00293839
-0.00236338
-0.0017765
-0.00118617
-0.000601461
-3.19434e-05
0.000512518
0.00102198
0.00148667
0.00189726
0.0022451
0.00252254
0.00272312
0.00284187
0.0028754
0.00282212
0.00268227
0.00245793
0.00215297
0.00177294
0.00132482
0.000816852
0.000258201
-0.000341369
-0.000971738
-0.00162219
-0.00228218
-0.00295067
-0.0036425
-0.00425466
-0.000247251
-0.000874551
-0.00151428
-0.0020471
-0.00250892
-0.00291823
-0.00328226
-0.00360802
-0.00390274
-0.00417306
-0.00442486
-0.00466323
-0.00489248
-0.00511613
-0.00533696
-0.00555698
-0.00577754
-0.00599933
-0.0062224
-0.00644626
-0.00666985
-0.00689166
-0.00710971
-0.0073216
-0.00752459
-0.00771562
-0.00789134
-0.00804823
-0.00818257
-0.00829058
-0.00836843
-0.00841235
-0.0084187
-0.00838404
-0.00830521
-0.00817947
-0.00800454
-0.00777873
-0.00750103
-0.00717118
-0.0067898
-0.00635844
-0.00587967
-0.00535711
-0.00479549
-0.00420062
-0.00357943
-0.00293986
-0.00229082
-0.00164204
-0.00100392
-0.000387338
0.000196612
0.000736856
0.00122265
0.00164388
0.00199138
0.00225724
0.00243506
0.00252021
0.00251001
0.00240382
0.00220314
0.00191151
0.00153445
0.00107922
0.000554577
-2.95558e-05
-0.000662474
-0.00133298
-0.00202916
-0.00273926
-0.00346191
-0.00421316
-0.00487986
-0.000926519
-0.00156581
-0.00221775
-0.00276089
-0.00323206
-0.00365036
-0.00402341
-0.00435855
-0.00466338
-0.00494483
-0.00520903
-0.00546129
-0.00570608
-0.00594706
-0.00618707
-0.00642818
-0.00667177
-0.00691848
-0.00716836
-0.00742081
-0.00767471
-0.00792839
-0.00817973
-0.00842617
-0.00866473
-0.00889211
-0.00910471
-0.00929867
-0.00946995
-0.00961438
-0.00972772
-0.00980573
-0.00984429
-0.00983942
-0.00978745
-0.00968504
-0.00952932
-0.00931803
-0.00904955
-0.00872307
-0.00833868
-0.00789744
-0.00740151
-0.0068542
-0.00626002
-0.00562474
-0.00495534
-0.00426004
-0.00354817
-0.00283012
-0.00211711
-0.00142107
-0.000754326
-0.000129359
0.000441542
0.00094662
0.00137501
0.0017171
0.00196485
0.00211214
0.00215495
0.00209158
0.00192272
0.00165146
0.00128317
0.000825293
0.000287106
-0.000320684
-0.000986371
-0.00169759
-0.0024411
-0.0032038
-0.00398395
-0.00479889
-0.0055244
-0.00168972
-0.00233906
-0.00300135
-0.0035534
-0.00403287
-0.00445939
-0.00484096
-0.00518526
-0.00550018
-0.00579298
-0.00607001
-0.00633679
-0.00659794
-0.00685723
-0.0071176
-0.00738118
-0.00764932
-0.0079227
-0.0082013
-0.00848446
-0.00877097
-0.00905903
-0.00934639
-0.00963028
-0.00990754
-0.0101746
-0.0104276
-0.0106624
-0.0108746
-0.0110596
-0.0112127
-0.0113292
-0.0114044
-0.0114339
-0.0114134
-0.0113389
-0.0112068
-0.0110143
-0.0107591
-0.0104397
-0.0100556
-0.0096072
-0.00909623
-0.00852554
-0.00789936
-0.00722325
-0.00650422
-0.00575064
-0.00497225
-0.00417999
-0.00338595
-0.0026031
-0.00184507
-0.00112583
-0.00045936
0.000140766
0.000661772
0.00109211
0.00142185
0.00164308
0.00175019
0.00174015
0.00161263
0.00137004
0.00101745
0.00056243
1.47044e-05
-0.000614219
-0.00131157
-0.00206373
-0.00285598
-0.00367373
-0.00451481
-0.00539796
-0.00618683
-0.00253823
-0.00319563
-0.00386636
-0.00442589
-0.00491259
-0.00534657
-0.00573615
-0.00608934
-0.00641436
-0.0067187
-0.00700896
-0.00729084
-0.00756913
-0.0078477
-0.00812958
-0.00841694
-0.00871118
-0.00901293
-0.00932215
-0.00963813
-0.00995956
-0.0102846
-0.0106107
-0.010935
-0.0112542
-0.0115644
-0.0118616
-0.0121411
-0.0123983
-0.0126282
-0.0128256
-0.0129854
-0.0131022
-0.0131711
-0.0131871
-0.0131455
-0.0130422
-0.0128734
-0.0126361
-0.0123282
-0.0119484
-0.0114964
-0.0109733
-0.0103814
-0.0097245
-0.00900794
-0.00823856
-0.00742482
-0.00657673
-0.0057058
-0.00482488
-0.00394801
-0.00309015
-0.00226685
-0.0014939
-0.000786865
-0.000160653
0.000370993
0.00079597
0.00110427
0.0012884
0.00134366
0.00126842
0.00106419
0.000735555
0.000290045
-0.000262214
-0.000908928
-0.00163622
-0.00242908
-0.00327123
-0.0041464
-0.00505193
-0.006008
-0.00686507
-0.00347303
-0.00413648
-0.0048137
-0.00537927
-0.00587211
-0.00631276
-0.00670983
-0.00707165
-0.00740671
-0.00772275
-0.00802659
-0.00832413
-0.00862027
-0.00891904
-0.00922351
-0.00953592
-0.00985769
-0.0101895
-0.0105312
-0.010882
-0.0112407
-0.0116051
-0.0119728
-0.0123406
-0.0127049
-0.0130619
-0.0134069
-0.0137353
-0.0140419
-0.0143212
-0.0145677
-0.0147758
-0.0149395
-0.0150531
-0.0151111
-0.015108
-0.015039
-0.0148994
-0.0146855
-0.0143942
-0.0140234
-0.0135721
-0.0130406
-0.0124306
-0.0117452
-0.0109894
-0.0101698
-0.00929481
-0.00837461
-0.00742113
-0.00644797
-0.00547019
-0.00450409
-0.00356686
-0.00267622
-0.00184989
-0.00110512
-0.000458123
7.65152e-05
0.000486364
0.00076166
0.000895726
0.000885284
0.000730627
0.000435631
7.60112e-06
-0.000543044
-0.00120326
-0.001958
-0.00279083
-0.00368368
-0.00461849
-0.005592
-0.00662592
-0.00755629
-0.00449466
-0.00516213
-0.00584389
-0.00641405
-0.00691194
-0.00735845
-0.00776248
-0.00813262
-0.00847762
-0.00880547
-0.0091232
-0.00943684
-0.00975149
-0.0100713
-0.0103993
-0.0107379
-0.0110886
-0.0114519
-0.0118279
-0.0122156
-0.0126137
-0.01302
-0.0134319
-0.0138461
-0.014259
-0.0146661
-0.0150629
-0.0154442
-0.0158045
-0.0161381
-0.0164387
-0.0167003
-0.0169163
-0.0170804
-0.0171862
-0.0172277
-0.017199
-0.0170947
-0.0169101
-0.0166413
-0.0162851
-0.0158397
-0.0153044
-0.0146802
-0.0139695
-0.0131767
-0.0123079
-0.0113715
-0.0103776
-0.00933857
-0.00826848
-0.00718342
-0.00610101
-0.00504011
-0.00402045
-0.00306208
-0.00218479
-0.00140752
-0.000747688
-0.000220505
0.000161607
0.000389574
0.000458086
0.000365869
0.000115771
-0.000285352
-0.000826945
-0.00149527
-0.00227413
-0.00314551
-0.00408948
-0.00508591
-0.0061309
-0.00724774
-0.00825676
-0.00560321
-0.00627269
-0.00695704
-0.00753035
-0.0080322
-0.00848375
-0.00889417
-0.00927229
-0.00962709
-0.00996678
-0.0102986
-0.0106287
-0.0109624
-0.0113038
-0.0116563
-0.0120222
-0.0124029
-0.0127992
-0.013211
-0.0136375
-0.014077
-0.0145275
-0.0149863
-0.0154498
-0.0159142
-0.0163751
-0.0168274
-0.0172657
-0.0176843
-0.0180767
-0.0184366
-0.018757
-0.019031
-0.0192516
-0.0194115
-0.0195039
-0.019522
-0.0194596
-0.0193109
-0.019071
-0.0187357
-0.0183021
-0.0177686
-0.0171351
-0.0164032
-0.0155766
-0.0146609
-0.0136639
-0.0125959
-0.0114692
-0.0102984
-0.0091004
-0.00789416
-0.00670021
-0.00554034
-0.00443701
-0.0034128
-0.00248964
-0.00168807
-0.00102652
-0.000520486
-0.000181898
-1.85521e-05
-3.37152e-05
-0.000225942
-0.000589124
-0.00111278
-0.00178259
-0.00258121
-0.00348898
-0.00448392
-0.00554369
-0.00666356
-0.00786853
-0.00896176
-0.00679835
-0.00746783
-0.00815287
-0.00872789
-0.00923262
-0.00968839
-0.0101046
-0.0104903
-0.0108547
-0.0112061
-0.0115521
-0.0118989
-0.012252
-0.0126156
-0.0129932
-0.0133871
-0.013799
-0.0142295
-0.0146785
-0.0151452
-0.0156281
-0.016125
-0.0166329
-0.0171485
-0.0176675
-0.0181854
-0.0186969
-0.0191963
-0.0196774
-0.0201335
-0.0205576
-0.0209424
-0.0212802
-0.0215632
-0.0217836
-0.0219335
-0.0220053
-0.0219918
-0.0218861
-0.0216821
-0.0213747
-0.0209597
-0.0204343
-0.0197974
-0.0190496
-0.0181934
-0.017234
-0.0161787
-0.0150372
-0.0138219
-0.0125477
-0.0112322
-0.00989541
-0.00855964
-0.00724872
-0.00598765
-0.00480192
-0.00371671
-0.00275606
-0.00194197
-0.00129351
-0.000825966
-0.000550145
-0.000471805
-0.000591354
-0.000903807
-0.00139903
-0.00206229
-0.00287514
-0.00381625
-0.0048614
-0.00598581
-0.00718384
-0.00848222
-0.00966543
-0.00807926
-0.00874681
-0.00943069
-0.010006
-0.0105125
-0.0109717
-0.0113931
-0.0117859
-0.0121595
-0.0125225
-0.0128826
-0.0132462
-0.0136188
-0.0140049
-0.014408
-0.0148306
-0.0152742
-0.0157398
-0.0162272
-0.0167356
-0.0172635
-0.0178085
-0.0183678
-0.0189378
-0.0195142
-0.0200922
-0.0206663
-0.0212306
-0.0217785
-0.0223028
-0.0227962
-0.0232507
-0.023658
-0.0240096
-0.0242969
-0.0245111
-0.0246437
-0.0246864
-0.0246311
-0.0244707
-0.0241987
-0.0238097
-0.0232997
-0.0226661
-0.0219085
-0.0210282
-0.0200295
-0.0189193
-0.0177064
-0.0164029
-0.0150239
-0.0135874
-0.0121146
-0.0106291
-0.00915699
-0.00772579
-0.00636403
-0.00510038
-0.00396267