/*--------------------------------*- C++ -*----------------------------------*\
  =========                 |
  \\      /  F ield         | OpenFOAM: The Open Source CFD Toolbox
   \\    /   O peration     | Website:  https://openfoam.org
    \\  /    A nd           | Version:  12
     \\/     M anipulation  |
\*---------------------------------------------------------------------------*/
FoamFile
{
    format      ascii;
    class       volScalarField;
    location    "7.5";
    object      epsilon;
}
// * * * * * * * * * * * * * * * * * * * * * * * * * * * * * * * * * * * * * //

dimensions      [0 2 -3 0 0 0 0];

internalField   nonuniform List<scalar> 
5625
(
1.88646e-10
3.56233e-10
7.5517e-10
1.23147e-09
1.7681e-09
2.35224e-09
2.97452e-09
3.62772e-09
4.30593e-09
5.00407e-09
5.71755e-09
6.44216e-09
7.17399e-09
7.90931e-09
8.64455e-09
9.37633e-09
1.01014e-08
1.08165e-08
1.15186e-08
1.22048e-08
1.28724e-08
1.35184e-08
1.41405e-08
1.4736e-08
1.53027e-08
1.58383e-08
1.63406e-08
1.68079e-08
1.72381e-08
1.76297e-08
1.79811e-08
1.8291e-08
1.85581e-08
1.87814e-08
1.89599e-08
1.90929e-08
1.91799e-08
1.92205e-08
1.92145e-08
1.91618e-08
1.90624e-08
1.89167e-08
1.87251e-08
1.84884e-08
1.82072e-08
1.78825e-08
1.75156e-08
1.71078e-08
1.66604e-08
1.61753e-08
1.56542e-08
1.50991e-08
1.4512e-08
1.38954e-08
1.32517e-08
1.25834e-08
1.18932e-08
1.11841e-08
1.04591e-08
9.72125e-09
8.97396e-09
8.22066e-09
7.46499e-09
6.71074e-09
5.96193e-09
5.22282e-09
4.49797e-09
3.79237e-09
3.11158e-09
2.46201e-09
1.85145e-09
1.28996e-09
7.91222e-10
3.73285e-10
1.97673e-10
1.27536e-09
6.93794e-10
6.75281e-10
8.06645e-10
1.00874e-09
1.25327e-09
1.52665e-09
1.82104e-09
2.13131e-09
2.45369e-09
2.78519e-09
3.1233e-09
3.46582e-09
3.81073e-09
4.1562e-09
4.50049e-09
4.84195e-09
5.17903e-09
5.51022e-09
5.83409e-09
6.14929e-09
6.45449e-09
6.74844e-09
7.02996e-09
7.29792e-09
7.55125e-09
7.78894e-09
8.01006e-09
8.21373e-09
8.39916e-09
8.56562e-09
8.71243e-09
8.83903e-09
8.9449e-09
9.02961e-09
9.09281e-09
9.13422e-09
9.15366e-09
9.15103e-09
9.1263e-09
9.07948e-09
9.01072e-09
8.92023e-09
8.80833e-09
8.6754e-09
8.52191e-09
8.34839e-09
8.1555e-09
7.94393e-09
7.71449e-09
7.46805e-09
7.20554e-09
6.92801e-09
6.63655e-09
6.33235e-09
6.01665e-09
5.69078e-09
5.35615e-09
5.01423e-09
4.66659e-09
4.31487e-09
3.96081e-09
3.60627e-09
3.25322e-09
2.90383e-09
2.56048e-09
2.22588e-09
1.90324e-09
1.59661e-09
1.31148e-09
1.05615e-09
8.44952e-10
7.07626e-10
7.2718e-10
1.33668e-09
2.83473e-09
1.38949e-09
1.0716e-09
1.01179e-09
1.06078e-09
1.16982e-09
1.31694e-09
1.4902e-09
1.68227e-09
1.88819e-09
2.10437e-09
2.32805e-09
2.557e-09
2.78931e-09
3.02333e-09
3.2576e-09
3.49076e-09
3.72158e-09
3.94888e-09
4.1716e-09
4.38869e-09
4.59919e-09
4.80219e-09
4.9968e-09
5.18221e-09
5.35766e-09
5.52241e-09
5.6758e-09
5.81719e-09
5.94602e-09
6.06176e-09
6.16393e-09
6.25213e-09
6.32597e-09
6.38516e-09
6.42943e-09
6.45859e-09
6.4725e-09
6.47107e-09
6.4543e-09
6.42217e-09
6.3748e-09
6.31233e-09
6.23499e-09
6.14303e-09
6.0368e-09
5.91668e-09
5.78313e-09
5.63666e-09
5.47784e-09
5.3073e-09
5.12574e-09
4.93389e-09
4.73258e-09
4.52267e-09
4.3051e-09
4.08086e-09
3.85103e-09
3.61674e-09
3.37922e-09
3.13978e-09
2.89988e-09
2.66107e-09
2.42515e-09
2.19413e-09
1.97043e-09
1.75698e-09
1.55762e-09
1.37757e-09
1.22459e-09
1.11125e-09
1.0606e-09
1.12379e-09
1.4574e-09
2.97306e-09
4.68519e-09
2.24765e-09
1.62976e-09
1.40505e-09
1.33637e-09
1.34996e-09
1.41416e-09
1.5124e-09
1.6348e-09
1.77488e-09
1.92809e-09
2.09104e-09
2.26111e-09
2.43616e-09
2.61442e-09
2.79436e-09
2.97464e-09
3.15405e-09
3.33149e-09
3.50597e-09
3.67654e-09
3.84236e-09
4.00261e-09
4.15654e-09
4.30345e-09
4.44266e-09
4.57358e-09
4.69562e-09
4.80826e-09
4.91102e-09
5.00346e-09
5.08517e-09
5.1558e-09
5.21505e-09
5.26265e-09
5.29838e-09
5.32208e-09
5.33362e-09
5.33293e-09
5.32001e-09
5.29481e-09
5.25746e-09
5.20806e-09
5.1468e-09
5.07389e-09
4.98962e-09
4.8943e-09
4.78834e-09
4.67215e-09
4.54622e-09
4.41111e-09
4.26739e-09
4.11573e-09
3.95684e-09
3.79148e-09
3.62049e-09
3.44478e-09
3.26532e-09
3.08319e-09
2.89955e-09
2.7157e-09
2.53308e-09
2.35333e-09
2.17837e-09
2.01047e-09
1.85243e-09
1.70783e-09
1.58146e-09
1.48014e-09
1.41428e-09
1.40129e-09
1.47439e-09
1.71098e-09
2.36001e-09
4.91911e-09
6.74005e-09
3.21006e-09
2.27695e-09
1.89169e-09
1.71688e-09
1.6497e-09
1.64722e-09
1.68761e-09
1.75819e-09
1.85084e-09
1.95996e-09
2.0815e-09
2.21234e-09
2.35002e-09
2.49252e-09
2.63816e-09
2.78549e-09
2.93323e-09
3.08027e-09
3.22559e-09
3.36828e-09
3.50748e-09
3.64243e-09
3.77241e-09
3.89674e-09
4.01482e-09
4.12606e-09
4.22994e-09
4.32597e-09
4.41371e-09
4.49275e-09
4.56272e-09
4.62332e-09
4.67424e-09
4.71526e-09
4.74616e-09
4.7668e-09
4.77706e-09
4.77686e-09
4.76622e-09
4.74508e-09
4.71354e-09
4.67171e-09
4.61976e-09
4.55787e-09
4.48632e-09
4.40539e-09
4.31545e-09
4.21688e-09
4.11017e-09
3.9958e-09
3.87434e-09
3.74643e-09
3.61273e-09
3.47401e-09
3.33108e-09
3.18483e-09
3.03626e-09
2.88646e-09
2.73665e-09
2.58818e-09
2.44263e-09
2.3018e-09
2.16784e-09
2.04336e-09
1.93166e-09
1.83705e-09
1.76541e-09
1.72526e-09
1.72993e-09
1.80232e-09
1.98755e-09
2.39364e-09
3.37524e-09
7.08665e-09
8.94309e-09
4.24574e-09
2.98226e-09
2.43511e-09
2.15832e-09
2.01713e-09
1.95603e-09
1.94733e-09
1.97521e-09
2.02979e-09
2.10433e-09
2.19404e-09
2.2953e-09
2.40528e-09
2.52172e-09
2.64273e-09
2.76672e-09
2.89233e-09
3.01835e-09
3.14372e-09
3.26747e-09
3.38875e-09
3.50677e-09
3.62079e-09
3.73016e-09
3.83428e-09
3.93259e-09
4.02457e-09
4.10975e-09
4.1877e-09
4.25803e-09
4.32039e-09
4.37447e-09
4.42001e-09
4.45676e-09
4.48453e-09
4.50318e-09
4.51259e-09
4.51269e-09
4.5035e-09
4.48496e-09
4.45716e-09
4.4202e-09
4.37425e-09
4.3195e-09
4.25619e-09
4.18462e-09
4.10513e-09
4.01813e-09
3.92405e-09
3.8234e-09
3.71676e-09
3.60474e-09
3.48804e-09
3.36742e-09
3.24373e-09
3.11789e-09
2.99095e-09
2.86405e-09
2.73849e-09
2.61575e-09
2.49755e-09
2.38592e-09
2.2833e-09
2.19269e-09
2.11788e-09
2.06393e-09
2.0379e-09
2.05018e-09
2.11737e-09
2.2686e-09
2.56224e-09
3.1401e-09
4.47173e-09
9.41919e-09
1.12519e-08
5.33309e-09
3.72723e-09
3.01579e-09
2.63856e-09
2.4269e-09
2.31183e-09
2.25927e-09
2.25005e-09
2.27228e-09
2.31806e-09
2.38179e-09
2.45931e-09
2.5474e-09
2.64352e-09
2.74559e-09
2.85184e-09
2.9608e-09
3.07117e-09
3.18181e-09
3.29172e-09
3.39999e-09
3.5058e-09
3.60842e-09
3.70716e-09
3.80141e-09
3.89061e-09
3.97422e-09
4.05179e-09
4.12289e-09
4.18712e-09
4.24415e-09
4.29366e-09
4.3354e-09
4.36913e-09
4.39466e-09
4.41186e-09
4.4206e-09
4.42083e-09
4.41255e-09
4.39572e-09
4.37042e-09
4.33676e-09
4.29489e-09
4.24502e-09
4.18738e-09
4.12229e-09
4.05008e-09
3.97116e-09
3.88598e-09
3.79508e-09
3.69901e-09
3.59844e-09
3.49407e-09
3.38669e-09
3.2772e-09
3.16659e-09
3.05595e-09
2.94654e-09
2.83977e-09
2.73726e-09
2.64087e-09
2.55286e-09
2.47591e-09
2.41345e-09
2.36985e-09
2.35098e-09
2.36517e-09
2.42488e-09
2.55028e-09
2.77723e-09
3.1784e-09
3.93157e-09
5.62772e-09
1.18742e-08
1.3632e-08
6.45512e-09
4.49852e-09
3.62087e-09
3.14397e-09
2.86402e-09
2.69798e-09
2.60508e-09
2.56254e-09
2.5564e-09
2.57742e-09
2.61919e-09
2.67697e-09
2.74714e-09
2.82685e-09
2.9138e-09
3.00607e-09
3.10203e-09
3.20031e-09
3.29967e-09
3.39905e-09
3.4975e-09
3.59416e-09
3.68825e-09
3.77908e-09
3.86601e-09
3.94847e-09
4.02591e-09
4.09788e-09
4.16393e-09
4.22367e-09
4.27676e-09
4.32289e-09
4.3618e-09
4.39325e-09
4.41707e-09
4.43309e-09
4.44123e-09
4.44142e-09
4.43366e-09
4.41791e-09
4.39426e-09
4.36283e-09
4.32377e-09
4.2773e-09
4.22365e-09
4.16315e-09
4.09614e-09
4.02306e-09
3.94437e-09
3.86061e-09
3.7724e-09
3.68041e-09
3.58539e-09
3.48819e-09
3.38975e-09
3.2911e-09
3.19342e-09
3.09803e-09
3.00647e-09
2.92049e-09
2.84216e-09
2.77394e-09
2.71886e-09
2.68075e-09
2.66459e-09
2.67713e-09
2.72805e-09
2.83204e-09
3.01305e-09
3.31409e-09
3.82279e-09
4.75443e-09
6.82592e-09
1.44165e-08
1.60539e-08
7.59761e-09
5.28552e-09
4.24075e-09
3.6649e-09
3.31833e-09
3.10357e-09
2.97291e-09
2.89985e-09
2.86826e-09
2.86755e-09
2.89035e-09
2.93138e-09
2.98657e-09
3.05276e-09
3.12741e-09
3.20844e-09
3.29407e-09
3.38281e-09
3.47337e-09
3.56459e-09
3.65548e-09
3.74512e-09
3.83272e-09
3.91755e-09
3.99894e-09
4.07629e-09
4.14908e-09
4.2168e-09
4.27903e-09
4.33535e-09
4.38542e-09
4.42893e-09
4.46562e-09
4.49525e-09
4.51764e-09
4.53264e-09
4.54016e-09
4.54012e-09
4.53255e-09
4.5174e-09
4.49478e-09
4.4648e-09
4.42764e-09
4.38351e-09
4.33268e-09
4.27547e-09
4.21224e-09
4.14345e-09
4.06959e-09
3.99122e-09
3.90897e-09
3.82356e-09
3.73579e-09
3.64654e-09
3.5568e-09
3.4677e-09
3.38048e-09
3.29658e-09
3.21764e-09
3.14555e-09
3.08258e-09
3.03144e-09
2.99549e-09
2.97899e-09
2.98755e-09
3.02887e-09
3.11408e-09
3.26016e-09
3.49503e-09
3.86908e-09
4.48536e-09
5.59757e-09
8.0515e-09
1.70156e-08
1.84921e-08
8.74831e-09
6.07931e-09
4.86768e-09
4.19396e-09
3.78231e-09
3.52069e-09
3.35437e-09
3.25304e-09
3.19832e-09
3.17821e-09
3.18446e-09
3.21107e-09
3.2536e-09
3.30854e-09
3.3731e-09
3.44501e-09
3.52236e-09
3.60356e-09
3.68719e-09
3.77206e-09
3.85709e-09
3.94134e-09
4.02396e-09
4.10419e-09
4.18135e-09
4.25482e-09
4.32403e-09
4.3885e-09
4.44776e-09
4.50142e-09
4.54911e-09
4.59053e-09
4.62541e-09
4.65351e-09
4.67465e-09
4.6887e-09
4.69554e-09
4.69512e-09
4.68747e-09
4.67254e-09
4.65046e-09
4.62134e-09
4.58537e-09
4.54278e-09
4.49384e-09
4.4389e-09
4.37834e-09
4.31263e-09
4.2423e-09
4.16792e-09
4.09018e-09
4.00982e-09
3.92769e-09
3.84471e-09
3.76195e-09
3.68059e-09
3.60197e-09
3.52762e-09
3.45931e-09
3.39909e-09
3.34942e-09
3.31326e-09
3.29432e-09
3.29733e-09
3.32854e-09
3.39667e-09
3.51429e-09
3.70076e-09
3.98809e-09
4.43416e-09
5.15771e-09
6.45132e-09
9.29112e-09
1.96437e-08
2.09242e-08
9.89657e-09
6.87228e-09
5.49522e-09
4.72513e-09
4.25004e-09
3.94332e-09
3.74317e-09
3.61547e-09
3.53956e-09
3.50202e-09
3.49364e-09
3.50778e-09
3.53953e-09
3.58505e-09
3.64131e-09
3.70584e-09
3.77658e-09
3.8518e-09
3.93003e-09
4.00997e-09
4.0905e-09
4.17062e-09
4.24944e-09
4.32618e-09
4.40011e-09
4.4706e-09
4.53707e-09
4.59902e-09
4.65597e-09
4.70752e-09
4.7533e-09
4.793e-09
4.82634e-09
4.8531e-09
4.87309e-09
4.88618e-09
4.89227e-09
4.89131e-09
4.88332e-09
4.86827e-09
4.8463e-09
4.81753e-09
4.78217e-09
4.74044e-09
4.69266e-09
4.63917e-09
4.58039e-09
4.51681e-09
4.44897e-09
4.37751e-09
4.30312e-09
4.22659e-09
4.14881e-09
4.07077e-09
3.99359e-09
3.91852e-09
3.847e-09
3.78066e-09
3.72139e-09
3.67141e-09
3.63337e-09
3.61051e-09
3.60688e-09
3.62767e-09
3.67988e-09
3.77318e-09
3.92164e-09
4.14706e-09
4.48552e-09
5.00249e-09
5.83241e-09
7.30685e-09
1.05325e-08
2.22748e-08
2.3331e-08
1.10332e-08
7.6579e-09
6.11793e-09
5.25347e-09
4.71675e-09
4.36664e-09
4.13439e-09
3.98202e-09
3.88661e-09
3.83331e-09
3.81197e-09
3.81528e-09
3.83782e-09
3.87547e-09
3.92492e-09
3.98349e-09
4.04898e-09
4.11954e-09
4.19359e-09
4.26977e-09
4.34689e-09
4.4239e-09
4.49987e-09
4.57398e-09
4.64548e-09
4.71371e-09
4.77809e-09
4.83808e-09
4.89321e-09
4.94306e-09
4.98726e-09
5.0255e-09
5.0575e-09
5.08303e-09
5.10191e-09
5.11401e-09
5.11924e-09
5.11756e-09
5.10898e-09
5.09351e-09
5.07126e-09
5.04241e-09
5.00714e-09
4.96572e-09
4.91846e-09
4.86574e-09
4.808e-09
4.74575e-09
4.67956e-09
4.61009e-09
4.53809e-09
4.46437e-09
4.38989e-09
4.31568e-09
4.24292e-09
4.17295e-09
4.10728e-09
4.04765e-09
3.9961e-09
3.95499e-09
3.9272e-09
3.91622e-09
3.92646e-09
3.96362e-09
4.0354e-09
4.15243e-09
4.33032e-09
4.59328e-09
4.98149e-09
5.56794e-09
6.50266e-09
8.15594e-09
1.17639e-08
2.48846e-08
2.56957e-08
1.21503e-08
8.43062e-09
6.73127e-09
5.77489e-09
5.17853e-09
4.78683e-09
4.52412e-09
4.34867e-09
4.23529e-09
4.16773e-09
4.13486e-09
4.12874e-09
4.14344e-09
4.17453e-09
4.21841e-09
4.27222e-09
4.33361e-09
4.40059e-09
4.47149e-09
4.54487e-09
4.61947e-09
4.6942e-09
4.76808e-09
4.84026e-09
4.90996e-09
4.9765e-09
5.03928e-09
5.09774e-09
5.15142e-09
5.19987e-09
5.24273e-09
5.27968e-09
5.31044e-09
5.33479e-09
5.35255e-09
5.3636e-09
5.36783e-09
5.36525e-09
5.35585e-09
5.33965e-09
5.31679e-09
5.28744e-09
5.25182e-09
5.2102e-09
5.16292e-09
5.11038e-09
5.05303e-09
4.99142e-09
4.92614e-09
4.8579e-09
4.78746e-09
4.7157e-09
4.6436e-09
4.57227e-09
4.50294e-09
4.43704e-09
4.37616e-09
4.32215e-09
4.27717e-09
4.24378e-09
4.22503e-09
4.22471e-09
4.24756e-09
4.29984e-09
4.38987e-09
4.5293e-09
4.73526e-09
5.03432e-09
5.47072e-09
6.12485e-09
7.1621e-09
8.99078e-09
1.29743e-08
2.74496e-08
2.80049e-08
1.32414e-08
9.18592e-09
7.33151e-09
6.28608e-09
5.63228e-09
5.20083e-09
4.9093e-09
4.71227e-09
4.58235e-09
4.50186e-09
4.45874e-09
4.44441e-09
4.45248e-09
4.4781e-09
4.5175e-09
4.56757e-09
4.62581e-09
4.69011e-09
4.75871e-09
4.83008e-09
4.90289e-09
4.97601e-09
5.04841e-09
5.11921e-09
5.1876e-09
5.25289e-09
5.31444e-09
5.3717e-09
5.42417e-09
5.47143e-09
5.5131e-09
5.54885e-09
5.57842e-09
5.60159e-09
5.61817e-09
5.62804e-09
5.63114e-09
5.62745e-09
5.61697e-09
5.59975e-09
5.57595e-09
5.54573e-09
5.50934e-09
5.46707e-09
5.41927e-09
5.36637e-09
5.30885e-09
5.24726e-09
5.18226e-09
5.11455e-09
5.04496e-09
4.9744e-09
4.90391e-09
4.83463e-09
4.76789e-09
4.70515e-09
4.64813e-09
4.59878e-09
4.55938e-09
4.53267e-09
4.5219e-09
4.53112e-09
4.56547e-09
4.63167e-09
4.73872e-09
4.89926e-09
5.13188e-09
5.46551e-09
5.9483e-09
6.6679e-09
7.80462e-09
9.80383e-09
1.41529e-08
2.99471e-08
3.02478e-08
1.43015e-08
9.92026e-09
7.91579e-09
6.78449e-09
6.07559e-09
5.60629e-09
5.28758e-09
5.07042e-09
4.92527e-09
4.83309e-09
4.78089e-09
4.75943e-09
4.76189e-09
4.78302e-09
4.81884e-09
4.86603e-09
4.92193e-09
4.98431e-09
5.0513e-09
5.12129e-09
5.1929e-09
5.26494e-09
5.33634e-09
5.40618e-09
5.47363e-09
5.53797e-09
5.59856e-09
5.65482e-09
5.70626e-09
5.75244e-09
5.79298e-09
5.82756e-09
5.85592e-09
5.87782e-09
5.89311e-09
5.90167e-09
5.90343e-09
5.89841e-09
5.88659e-09
5.86805e-09
5.84297e-09
5.81152e-09
5.77396e-09
5.73061e-09
5.68184e-09
5.62809e-09
5.56987e-09
5.50777e-09
5.44245e-09
5.37468e-09
5.3053e-09
5.23528e-09
5.16569e-09
5.09774e-09
5.03281e-09
4.97246e-09
4.91847e-09
4.87291e-09
4.83821e-09
4.81723e-09
4.81348e-09
4.83122e-09
4.876e-09
4.95499e-09
5.07785e-09
5.25817e-09
5.51598e-09
5.88247e-09
6.4096e-09
7.19197e-09
8.42434e-09
1.05878e-08
1.52891e-08
3.23548e-08
3.24169e-08
1.5327e-08
1.06311e-08
8.48205e-09
7.26829e-09
6.50677e-09
6.00155e-09
5.65726e-09
5.42138e-09
5.26226e-09
5.15951e-09
5.09927e-09
5.07166e-09
5.0694e-09
5.08689e-09
5.11991e-09
5.16494e-09
5.21916e-09
5.28023e-09
5.34616e-09
5.41529e-09
5.48616e-09
5.55751e-09
5.62826e-09
5.69744e-09
5.7642e-09
5.8278e-09
5.88758e-09
5.94295e-09
5.99342e-09
6.03854e-09
6.07794e-09
6.11129e-09
6.13832e-09
6.15883e-09
6.17266e-09
6.1797e-09
6.1799e-09
6.17329e-09
6.15983e-09
6.13966e-09
6.11295e-09
6.0799e-09
6.04079e-09
5.99594e-09
5.94575e-09
5.89069e-09
5.8313e-09
5.76817e-09
5.70202e-09
5.63363e-09
5.56389e-09
5.4938e-09
5.42449e-09
5.35721e-09
5.29342e-09
5.23473e-09
5.18303e-09
5.14049e-09
5.10965e-09
5.09356e-09
5.09589e-09
5.12119e-09
5.17538e-09
5.26603e-09
5.40347e-09
5.60219e-09
5.88361e-09
6.28106e-09
6.85015e-09
7.69214e-09
9.01555e-09
1.13355e-08
1.63728e-08
3.46512e-08
3.45079e-08
1.63158e-08
1.13171e-08
9.02914e-09
7.73646e-09
6.9248e-09
6.3856e-09
6.01731e-09
5.76404e-09
5.59213e-09
5.47987e-09
5.41253e-09
5.37962e-09
5.37342e-09
5.388e-09
5.41887e-09
5.46234e-09
5.51543e-09
5.57567e-09
5.64099e-09
5.70963e-09
5.78008e-09
5.85103e-09
5.92136e-09
5.99006e-09
6.05627e-09
6.11921e-09
6.17823e-09
6.23272e-09
6.28218e-09
6.32616e-09
6.3643e-09
6.39627e-09
6.42181e-09
6.44072e-09
6.45286e-09
6.45812e-09
6.45647e-09
6.44794e-09
6.43253e-09
6.41038e-09
6.38167e-09
6.34664e-09
6.30557e-09
6.25881e-09
6.20678e-09
6.14997e-09
6.08893e-09
6.02431e-09
5.95683e-09
5.88731e-09
5.81668e-09
5.74597e-09
5.67636e-09
5.60916e-09
5.54587e-09
5.4882e-09
5.4381e-09
5.39785e-09
5.37011e-09
5.35809e-09
5.36563e-09
5.39756e-09
5.46012e-09
5.5613e-09
5.71204e-09
5.9277e-09
6.231e-09
6.65732e-09
7.26568e-09
8.16363e-09
9.57265e-09
1.204e-08
1.73938e-08
3.68147e-08
3.65199e-08
1.72677e-08
1.19779e-08
9.5568e-09
8.18872e-09
7.3294e-09
6.75809e-09
6.36733e-09
6.09795e-09
5.91432e-09
5.79351e-09
5.71992e-09
5.68248e-09
5.67301e-09
5.68529e-09
5.71456e-09
5.75696e-09
5.80934e-09
5.86912e-09
5.93413e-09
6.00255e-09
6.07279e-09
6.14351e-09
6.21353e-09
6.28182e-09
6.34749e-09
6.40976e-09
6.46794e-09
6.52144e-09
6.56975e-09
6.61242e-09
6.64909e-09
6.67944e-09
6.70322e-09
6.72024e-09
6.73036e-09
6.7335e-09
6.72967e-09
6.71885e-09
6.7011e-09
6.67658e-09
6.64548e-09
6.60805e-09
6.5646e-09
6.5155e-09
6.46119e-09
6.40218e-09
6.33905e-09
6.27247e-09
6.20319e-09
6.13206e-09
6.06004e-09
5.9882e-09
5.91776e-09
5.85009e-09
5.78674e-09
5.72947e-09
5.68033e-09
5.64168e-09
5.61632e-09
5.60758e-09
5.61947e-09
5.6571e-09
5.72698e-09
5.83752e-09
6.00022e-09
6.23126e-09
6.55456e-09
7.0074e-09
7.652e-09
8.60175e-09
1.00902e-08
1.26943e-08
1.83421e-08
3.88243e-08
3.84557e-08
1.81838e-08
1.26145e-08
1.00657e-08
8.6256e-09
7.72099e-09
7.11936e-09
6.70754e-09
6.42322e-09
6.22889e-09
6.10039e-09
6.0213e-09
5.97998e-09
5.96783e-09
5.97832e-09
6.00642e-09
6.04812e-09
6.10011e-09
6.1597e-09
6.22462e-09
6.29296e-09
6.3631e-09
6.43362e-09
6.50333e-09
6.57115e-09
6.63619e-09
6.69764e-09
6.75481e-09
6.8071e-09
6.854e-09
6.89507e-09
6.92995e-09
6.95833e-09
6.97998e-09
6.99472e-09
7.00243e-09
7.00303e-09
6.99658e-09
6.98302e-09
6.96249e-09
6.93514e-09
6.9012e-09
6.86092e-09
6.81464e-09
6.76275e-09
6.7057e-09
6.64404e-09
6.57836e-09
6.50936e-09
6.43782e-09
6.36461e-09
6.29073e-09
6.21727e-09
6.1455e-09
6.07683e-09
6.01286e-09
5.95543e-09
5.90664e-09
5.86894e-09
5.84524e-09
5.83901e-09
5.85441e-09
5.89679e-09
5.97292e-09
6.0916e-09
6.26484e-09
6.50957e-09
6.85082e-09
7.32761e-09
8.00508e-09
9.00195e-09
1.05628e-08
1.32918e-08
1.9208e-08
4.06594e-08
4.03215e-08
1.90671e-08
1.32287e-08
1.05574e-08
9.04846e-09
8.10071e-09
7.47039e-09
7.03881e-09
6.74061e-09
6.53647e-09
6.40104e-09
6.31711e-09
6.27247e-09
6.25812e-09
6.26723e-09
6.29451e-09
6.33579e-09
6.38762e-09
6.44717e-09
6.5121e-09
6.58041e-09
6.65043e-09
6.7207e-09
6.78997e-09
6.85716e-09
6.92135e-09
6.98172e-09
7.03757e-09
7.08831e-09
7.13342e-09
7.17248e-09
7.20513e-09
7.23108e-09
7.25011e-09
7.26207e-09
7.26685e-09
7.26442e-09
7.2548e-09
7.23798e-09
7.21414e-09
7.18345e-09
7.14613e-09
7.10249e-09
7.05287e-09
6.99769e-09
6.93742e-09
6.87263e-09
6.80393e-09
6.73204e-09
6.65777e-09
6.58202e-09
6.5058e-09
6.43025e-09
6.35667e-09
6.2865e-09
6.22139e-09
6.16323e-09
6.11419e-09
6.07681e-09
6.05408e-09
6.04959e-09
6.06764e-09
6.11381e-09
6.19509e-09
6.32062e-09
6.5029e-09
6.75951e-09
7.11647e-09
7.61438e-09
8.32099e-09
9.35979e-09
1.09852e-08
1.38257e-08
1.99818e-08
4.22995e-08
4.21275e-08
1.99224e-08
1.38241e-08
1.10346e-08
9.45944e-09
8.47043e-09
7.81285e-09
7.36263e-09
7.05148e-09
6.83828e-09
6.69657e-09
6.60835e-09
6.56086e-09
6.54472e-09
6.55276e-09
6.57949e-09
6.62055e-09
6.67233e-09
6.73191e-09
6.79685e-09
6.86508e-09
6.93486e-09
7.00469e-09
7.0733e-09
7.13958e-09
7.20258e-09
7.26148e-09
7.31558e-09
7.36429e-09
7.4071e-09
7.44361e-09
7.47346e-09
7.49639e-09
7.5122e-09
7.52076e-09
7.52197e-09
7.51588e-09
7.50243e-09
7.48174e-09
7.45397e-09
7.41931e-09
7.37803e-09
7.33044e-09
7.27691e-09
7.21788e-09
7.15385e-09
7.0854e-09
7.01317e-09
6.9379e-09
6.86042e-09
6.78164e-09
6.70261e-09
6.6245e-09
6.54862e-09
6.47645e-09
6.40969e-09
6.35026e-09
6.3004e-09
6.2627e-09
6.24024e-09
6.23671e-09
6.25655e-09
6.3055e-09
6.39077e-09
6.52181e-09
6.71151e-09
6.97805e-09
7.34832e-09
7.86427e-09
8.59593e-09
9.67095e-09
1.13523e-08
1.42897e-08
2.06543e-08
4.37249e-08
4.38874e-08
2.07562e-08
1.44049e-08
1.15007e-08
9.8615e-09
8.83276e-09
8.14905e-09
7.6811e-09
7.35775e-09
7.13614e-09
6.98868e-09
6.89662e-09
6.84666e-09
6.82902e-09
6.83625e-09
6.86259e-09
6.90354e-09
6.95533e-09
7.01493e-09
7.07979e-09
7.14779e-09
7.21712e-09
7.28624e-09
7.35385e-09
7.4188e-09
7.48015e-09
7.53707e-09
7.58886e-09
7.63493e-09
7.6748e-09
7.70806e-09
7.7344e-09
7.75358e-09
7.76542e-09
7.7698e-09
7.76672e-09
7.75615e-09
7.73813e-09
7.71282e-09
7.68037e-09
7.64104e-09
7.59509e-09
7.54287e-09
7.48478e-09
7.42127e-09
7.35288e-09
7.28019e-09
7.20387e-09
7.12469e-09
7.04347e-09
6.96116e-09
6.87883e-09
6.79766e-09
6.71899e-09
6.64432e-09
6.57538e-09
6.51414e-09
6.46287e-09
6.42421e-09
6.40132e-09
6.39797e-09
6.41869e-09
6.46939e-09
6.55745e-09
6.69257e-09
6.88799e-09
7.16237e-09
7.54334e-09
8.07399e-09
8.82627e-09
9.9313e-09
1.16592e-08
1.46775e-08
2.12162e-08
4.49163e-08
4.56185e-08
2.15767e-08
1.49768e-08
1.19603e-08
1.02584e-08
9.19096e-09
8.48194e-09
7.99694e-09
7.66195e-09
7.4324e-09
7.2796e-09
7.18405e-09
7.13191e-09
7.11301e-09
7.11959e-09
7.14567e-09
7.18656e-09
7.23834e-09
7.29787e-09
7.3625e-09
7.43003e-09
7.4986e-09
7.56664e-09
7.63278e-09
7.6959e-09
7.75501e-09
7.8093e-09
7.85807e-09
7.90076e-09
7.93688e-09
7.96607e-09
7.98804e-09
8.00257e-09
8.00953e-09
8.00884e-09
8.00054e-09
7.98456e-09
7.96108e-09
7.93025e-09
7.89227e-09
7.84741e-09
7.79598e-09
7.73834e-09
7.67493e-09
7.60623e-09
7.53278e-09
7.4552e-09
7.37417e-09
7.29047e-09
7.20495e-09
7.11857e-09
7.03241e-09
6.94766e-09
6.86567e-09
6.78799e-09
6.71634e-09
6.65272e-09
6.59943e-09
6.55917e-09
6.53512e-09
6.53113e-09
6.55181e-09
6.60317e-09
6.69276e-09
6.83046e-09
7.02978e-09
7.30977e-09
7.69866e-09
8.24043e-09
9.00855e-09
1.01369e-08
1.19012e-08
1.49831e-08
2.16591e-08
4.58552e-08
4.73416e-08
2.23936e-08
1.55467e-08
1.24185e-08
1.06546e-08
9.54898e-09
8.81508e-09
8.31341e-09
7.96712e-09
7.72995e-09
7.5721e-09
7.47331e-09
7.41921e-09
7.39921e-09
7.40528e-09
7.43116e-09
7.47198e-09
7.52369e-09
7.583e-09
7.64718e-09
7.71395e-09
7.78138e-09
7.84786e-09
7.912e-09
7.97264e-09
8.02881e-09
8.07969e-09
8.1246e-09
8.16298e-09
8.19441e-09
8.21853e-09
8.23509e-09
8.24392e-09
8.24492e-09
8.23811e-09
8.22344e-09
8.20102e-09
8.17102e-09
8.13363e-09
8.0891e-09
8.03772e-09
7.97985e-09
7.91589e-09
7.84629e-09
7.77156e-09
7.69227e-09
7.60904e-09
7.5226e-09
7.43371e-09
7.34325e-09
7.25219e-09
7.16161e-09
7.07271e-09
6.98687e-09
6.90561e-09
6.83068e-09
6.76409e-09
6.70816e-09
6.66561e-09
6.63966e-09
6.63418e-09
6.65386e-09
6.70476e-09
6.79455e-09
6.93324e-09
7.13454e-09
7.4178e-09
7.81163e-09
8.3607e-09
9.13956e-09
1.02841e-08
1.2074e-08
1.52009e-08
2.19747e-08
4.65245e-08
4.90808e-08
2.32183e-08
1.61222e-08
1.28816e-08
1.10554e-08
9.91136e-09
9.15256e-09
8.63428e-09
8.27682e-09
8.03218e-09
7.86945e-09
7.76759e-09
7.71168e-09
7.69072e-09
7.69636e-09
7.72208e-09
7.76283e-09
7.81437e-09
7.87329e-09
7.93676e-09
8.0024e-09
8.06824e-09
8.1326e-09
8.19408e-09
8.2515e-09
8.30389e-09
8.35044e-09
8.39049e-09
8.42351e-09
8.44911e-09
8.46699e-09
8.47693e-09
8.47882e-09
8.47265e-09
8.45838e-09
8.43611e-09
8.406e-09
8.36824e-09
8.32308e-09
8.27082e-09
8.21179e-09
8.14639e-09
8.07504e-09
7.99824e-09
7.91653e-09
7.83048e-09
7.74076e-09
7.64808e-09
7.55325e-09
7.45713e-09
7.3607e-09
7.26504e-09
7.17137e-09
7.08105e-09
6.99561e-09
6.91679e-09
6.84661e-09
6.78738e-09
6.74183e-09
6.71318e-09
6.70534e-09
6.723e-09
6.77227e-09
6.86087e-09
6.99889e-09
7.20016e-09
7.48419e-09
7.87984e-09
8.43218e-09
9.21638e-09
1.03695e-08
1.21736e-08
1.5326e-08
2.21557e-08
4.69085e-08
5.08629e-08
2.40634e-08
1.67122e-08
1.33564e-08
1.14663e-08
1.02832e-08
9.49898e-09
8.96382e-09
8.59506e-09
8.34294e-09
8.17538e-09
8.07056e-09
8.01296e-09
7.99116e-09
7.99646e-09
8.02208e-09
8.06273e-09
8.11401e-09
8.17235e-09
8.23481e-09
8.29893e-09
8.36265e-09
8.42426e-09
8.48233e-09
8.53567e-09
8.58331e-09
8.62446e-09
8.65849e-09
8.68492e-09
8.7034e-09
8.71367e-09
8.71559e-09
8.70914e-09
8.69428e-09
8.67112e-09
8.63981e-09
8.60056e-09
8.55362e-09
8.4993e-09
8.43795e-09
8.36996e-09
8.29576e-09
8.21582e-09
8.13067e-09
8.04086e-09
7.94702e-09
7.84982e-09
7.74998e-09
7.64832e-09
7.54572e-09
7.44314e-09
7.34168e-09
7.24253e-09
7.14705e-09
7.05675e-09
6.97338e-09
6.89891e-09
6.83567e-09
6.78636e-09
6.75419e-09
6.74305e-09
6.75766e-09
6.80406e-09
6.89002e-09
7.02564e-09
7.22478e-09
7.50698e-09
7.90118e-09
8.45254e-09
9.23642e-09
1.03901e-08
1.21964e-08
1.53538e-08
2.21956e-08
4.69933e-08
5.27173e-08
2.49428e-08
1.7326e-08
1.38504e-08
1.18938e-08
1.06699e-08
9.8593e-09
9.30665e-09
8.92624e-09
8.66648e-09
8.49406e-09
8.38634e-09
8.32717e-09
8.30467e-09
8.30976e-09
8.33536e-09
8.37594e-09
8.42688e-09
8.48447e-09
8.54562e-09
8.60778e-09
8.66881e-09
8.72697e-09
8.78077e-09
8.82905e-09
8.87082e-09
8.90534e-09
8.93202e-09
8.95043e-09
8.96028e-09
8.96139e-09
8.95371e-09
8.93722e-09
8.91204e-09
8.87832e-09
8.83631e-09
8.78627e-09
8.72854e-09
8.66349e-09
8.59151e-09
8.51307e-09
8.42863e-09
8.33873e-09
8.2439e-09
8.14476e-09
8.04194e-09
7.93613e-09
7.82808e-09
7.7186e-09
7.60857e-09
7.49896e-09
7.39085e-09
7.28542e-09
7.18401e-09
7.08811e-09
6.99944e-09
6.91995e-09
6.85192e-09
6.79803e-09
6.76147e-09
6.74607e-09
6.75657e-09
6.79891e-09
6.88083e-09
7.01237e-09
7.20728e-09
7.48504e-09
7.87446e-09
8.4205e-09
9.19821e-09
1.03443e-08
1.21402e-08
1.52812e-08
2.20898e-08
4.67695e-08
5.46752e-08
2.58712e-08
1.79738e-08
1.43714e-08
1.23445e-08
1.10774e-08
1.02388e-08
9.66771e-09
9.27507e-09
9.00738e-09
8.83003e-09
8.71948e-09
8.65891e-09
8.6359e-09
8.64098e-09
8.66674e-09
8.70732e-09
8.75791e-09
8.81459e-09
8.87413e-09
8.93387e-09
8.99159e-09
9.04548e-09
9.09406e-09
9.13614e-09
9.17078e-09
9.19726e-09
9.21506e-09
9.22382e-09
9.22332e-09
9.2135e-09
9.19434e-09
9.16596e-09
9.12857e-09
9.08243e-09
9.02783e-09
8.96516e-09
8.89482e-09
8.81725e-09
8.73293e-09
8.64236e-09
8.54608e-09
8.44466e-09
8.3387e-09
8.22882e-09
8.11568e-09
8.00001e-09
7.88255e-09
7.76412e-09
7.6456e-09
7.52796e-09
7.41224e-09
7.29963e-09
7.19143e-09
7.08913e-09
6.99444e-09
6.90925e-09
6.83577e-09
6.7766e-09
6.73484e-09
6.71429e-09
6.71954e-09
6.75641e-09
6.83261e-09
6.95806e-09
7.14636e-09
7.41676e-09
7.79777e-09
8.33386e-09
9.09924e-09
1.02291e-08
1.20017e-08
1.51043e-08
2.18323e-08
4.6224e-08
5.67694e-08
2.6864e-08
1.8666e-08
1.49277e-08
1.28253e-08
1.15116e-08
1.06431e-08
1.00521e-08
9.64651e-09
9.3705e-09
9.18815e-09
9.07489e-09
9.01317e-09
8.98999e-09
8.99539e-09
9.02158e-09
9.06234e-09
9.11262e-09
9.16829e-09
9.22593e-09
9.28274e-09
9.33645e-09
9.38517e-09
9.42741e-09
9.46199e-09
9.48802e-09
9.50483e-09
9.51198e-09
9.50921e-09
9.49641e-09
9.47359e-09
9.44088e-09
9.39852e-09
9.34681e-09
9.28611e-09
9.21684e-09
9.13947e-09
9.0545e-09
8.96245e-09
8.86387e-09
8.75935e-09
8.64946e-09
8.53483e-09
8.4161e-09
8.29393e-09
8.16901e-09
8.04207e-09
7.91388e-09
7.78526e-09
7.65707e-09
7.53031e-09
7.40603e-09
7.28538e-09
7.1696e-09
7.06007e-09
6.95839e-09
6.86643e-09
6.78637e-09
6.72074e-09
6.67259e-09
6.64559e-09
6.6443e-09
6.67435e-09
6.74329e-09
6.86085e-09
7.04034e-09
7.30067e-09
7.66979e-09
8.19139e-09
8.93831e-09
1.00432e-08
1.17793e-08
1.48209e-08
2.14203e-08
4.53505e-08
5.90329e-08
2.79366e-08
1.94133e-08
1.55276e-08
1.3343e-08
1.19788e-08
1.10776e-08
1.04652e-08
1.00456e-08
9.76092e-09
9.57354e-09
9.45782e-09
9.39537e-09
9.37251e-09
9.37873e-09
9.40577e-09
9.44703e-09
9.49714e-09
9.5517e-09
9.60712e-09
9.66046e-09
9.70933e-09
9.75181e-09
9.7864e-09
9.81196e-09
9.82763e-09
9.83287e-09
9.82733e-09
9.81086e-09
9.78348e-09
9.74535e-09
9.69674e-09
9.63801e-09
9.56959e-09
9.49199e-09
9.40574e-09
9.31141e-09
9.2096e-09
9.10093e-09
8.98604e-09
8.86555e-09
8.74015e-09
8.61048e-09
8.47723e-09
8.34111e-09
8.20283e-09
8.06313e-09
7.92279e-09
7.78266e-09
7.64364e-09
7.50662e-09
7.37256e-09
7.24257e-09
7.11791e-09
6.99994e-09
6.89025e-09
6.79061e-09
6.70311e-09
6.63017e-09
6.57472e-09
6.54032e-09
6.53135e-09
6.55331e-09
6.61344e-09
6.72125e-09
6.88969e-09
7.13714e-09
7.49084e-09
7.99334e-09
8.71561e-09
9.78689e-09
1.14732e-08
1.44312e-08
2.08537e-08
4.4149e-08
6.14987e-08
2.91045e-08
2.02262e-08
1.61791e-08
1.39045e-08
1.24848e-08
1.15478e-08
1.09121e-08
1.04776e-08
1.01838e-08
9.99153e-09
9.87379e-09
9.81126e-09
9.78947e-09
9.7972e-09
9.82569e-09
9.86787e-09
9.918e-09
9.97139e-09
1.00242e-08
1.00734e-08
1.01164e-08
1.01514e-08
1.01767e-08
1.01914e-08
1.01946e-08
1.0186e-08
1.01654e-08
1.01327e-08
1.00881e-08
1.0032e-08
9.96483e-09
9.88706e-09
9.7993e-09
9.7022e-09
9.59643e-09
9.48269e-09
9.36167e-09
9.2341e-09
9.1007e-09
8.96217e-09
8.81923e-09
8.67262e-09
8.52304e-09
8.37124e-09
8.21794e-09
8.06393e-09
7.91001e-09
7.75697e-09
7.60562e-09
7.45689e-09
7.31179e-09
7.1714e-09
7.03687e-09
6.90954e-09
6.79089e-09
6.68261e-09
6.5867e-09
6.50547e-09
6.44171e-09
6.39882e-09
6.381e-09
6.39353e-09
6.44332e-09
6.53958e-09
6.69476e-09
6.9266e-09
7.26142e-09
7.74031e-09
8.43182e-09
9.46083e-09
1.10842e-08
1.39363e-08
2.01341e-08
4.26229e-08
6.41986e-08
3.03826e-08
2.11147e-08
1.68901e-08
1.45162e-08
1.30354e-08
1.20591e-08
1.1398e-08
1.09475e-08
1.06445e-08
1.04476e-08
1.03285e-08
1.02669e-08
1.02472e-08
1.02574e-08
1.02881e-08
1.03317e-08
1.03821e-08
1.04342e-08
1.04839e-08
1.0528e-08
1.05638e-08
1.05896e-08
1.06036e-08
1.06051e-08
1.05935e-08
1.05683e-08
1.05297e-08
1.04777e-08
1.0413e-08
1.03358e-08
1.0247e-08
1.01472e-08
1.00372e-08
9.91775e-09
9.78973e-09
9.65396e-09
9.51124e-09
9.36239e-09
9.20822e-09
9.0495e-09
8.88702e-09
8.72154e-09
8.55383e-09
8.38462e-09
8.2147e-09
8.04485e-09
7.8758e-09
7.70836e-09
7.54341e-09
7.38183e-09
7.22456e-09
7.07264e-09
6.92718e-09
6.78945e-09
6.66084e-09
6.54297e-09
6.43769e-09
6.34721e-09
6.27416e-09
6.22173e-09
6.19393e-09
6.19577e-09
6.23379e-09
6.31676e-09
6.45659e-09
6.67024e-09
6.98287e-09
7.4338e-09
8.0887e-09
9.0671e-09
1.06149e-08
1.33392e-08
1.9266e-08
4.07815e-08
6.71621e-08
3.17847e-08
2.2088e-08
1.76677e-08
1.51841e-08
1.36357e-08
1.26162e-08
1.19276e-08
1.14604e-08
1.1148e-08
1.09472e-08
1.0828e-08
1.07685e-08
1.07521e-08
1.07659e-08
1.07998e-08
1.08455e-08
1.08962e-08
1.09467e-08
1.09925e-08
1.10301e-08
1.10571e-08
1.10713e-08
1.10716e-08
1.1057e-08
1.10272e-08
1.09822e-08
1.0922e-08
1.08474e-08
1.07588e-08
1.06571e-08
1.05432e-08
1.0418e-08
1.02825e-08
1.01377e-08
9.98455e-09
9.82402e-09
9.65704e-09
9.48453e-09
9.30736e-09
9.12639e-09
8.94242e-09
8.75628e-09
8.56873e-09
8.38055e-09
8.19252e-09
8.00538e-09
7.81991e-09
7.63691e-09
7.4572e-09
7.28164e-09
7.11114e-09
6.94668e-09
6.78932e-09
6.64025e-09
6.50079e-09
6.37243e-09
6.25693e-09
6.15633e-09
6.07308e-09
6.01019e-09
5.97137e-09
5.96137e-09
5.98632e-09
6.05445e-09
6.17703e-09