/*--------------------------------*- C++ -*----------------------------------*\
  =========                 |
  \\      /  F ield         | OpenFOAM: The Open Source CFD Toolbox
   \\    /   O peration     | Website:  https://openfoam.org
    \\  /    A nd           | Version:  12
     \\/     M anipulation  |
\*---------------------------------------------------------------------------*/
FoamFile
{
    format      ascii;
    class       surfaceScalarField;
    location    "7.5";
    object      phi;
}
// * * * * * * * * * * * * * * * * * * * * * * * * * * * * * * * * * * * * * //

dimensions      [0 3 -1 0 0 0 0];

internalField   nonuniform List<scalar> 
11100
(
-3.16448e-11
3.16643e-11
-7.98719e-11
4.82271e-11
-1.15449e-10
3.55778e-11
-1.21029e-10
5.57984e-12
-8.70449e-11
-3.39834e-11
-8.57125e-12
-7.84741e-11
1.16062e-10
-1.24633e-10
2.86358e-10
-1.70297e-10
5.00365e-10
-2.14007e-10
7.55167e-10
-2.54802e-10
1.04722e-09
-2.92059e-10
1.3726e-09
-3.2538e-10
1.72713e-09
-3.54531e-10
2.10652e-09
-3.79387e-10
2.50643e-09
-3.99908e-10
2.92253e-09
-4.16107e-10
3.35058e-09
-4.28047e-10
3.7864e-09
-4.35822e-10
4.22595e-09
-4.39551e-10
4.66532e-09
-4.39377e-10
5.10078e-09
-4.3546e-10
5.52875e-09
-4.27973e-10
5.94585e-09
-4.17102e-10
6.34889e-09
-4.03043e-10
6.73489e-09
-3.86e-10
7.10107e-09
-3.66183e-10
7.44488e-09
-3.4381e-10
7.76398e-09
-3.191e-10
8.05625e-09
-2.92279e-10
8.31982e-09
-2.63571e-10
8.55302e-09
-2.33205e-10
8.75443e-09
-2.0141e-10
8.92284e-09
-1.68412e-10
9.05728e-09
-1.34439e-10
9.15699e-09
-9.97173e-11
9.22146e-09
-6.44701e-11
9.25037e-09
-2.8919e-11
9.24365e-09
6.71702e-12
9.20143e-09
4.2222e-11
9.12404e-09
7.73841e-11
9.01204e-09
1.11993e-10
8.8662e-09
1.45842e-10
8.68746e-09
1.78727e-10
8.47701e-09
2.1045e-10
8.23619e-09
2.40813e-10
7.96656e-09
2.69621e-10
7.66987e-09
2.96685e-10
7.34805e-09
3.21815e-10
7.00322e-09
3.44825e-10
6.63768e-09
3.65532e-10
6.25392e-09
3.83755e-10
5.8546e-09
3.99316e-10
5.44256e-09
4.12038e-10
5.0208e-09
4.2175e-10
4.59251e-09
4.28281e-10
4.16104e-09
4.31468e-10
3.72988e-09
4.31152e-10
3.30269e-09
4.27179e-10
2.88327e-09
4.1941e-10
2.47555e-09
4.07717e-10
2.08355e-09
3.91989e-10
1.7114e-09
3.72144e-10
1.36326e-09
3.48137e-10
1.04328e-09
3.19972e-10
7.55538e-10
2.87731e-10
5.0393e-10
2.51602e-10
2.91995e-10
2.11928e-10
1.22712e-10
1.69278e-10
-1.85613e-12
1.24562e-10
-8.10573e-11
7.91974e-11
-1.16318e-10
3.52561e-11
-1.12334e-10
-3.98525e-12
-7.82808e-11
-3.40557e-11
-3.12061e-11
-4.7076e-11
-3.12065e-11
-1.58695e-11
4.75335e-11
-1.59516e-11
4.83089e-11
3.60054e-11
-1.63792e-11
1.64234e-10
-1.22649e-10
3.84422e-10
-2.54171e-10
7.05236e-10
-3.99288e-10
1.13017e-09
-5.49563e-10
1.65874e-09
-6.98866e-10
2.2875e-09
-8.4277e-10
3.0108e-09
-9.78101e-10
3.82135e-09
-1.10261e-09
4.71068e-09
-1.21472e-09
5.66953e-09
-1.31337e-09
6.68804e-09
-1.3979e-09
7.75606e-09
-1.46793e-09
8.86326e-09
-1.5233e-09
9.99928e-09
-1.56407e-09
1.11539e-08
-1.5904e-09
1.23169e-08
-1.6026e-09
1.34786e-08
-1.60106e-09
1.46294e-08
-1.58627e-09
1.57602e-08
-1.55878e-09
1.68623e-08
-1.51918e-09
1.79274e-08
-1.46812e-09
1.89477e-08
-1.40631e-09
1.99159e-08
-1.33446e-09
2.08255e-08
-1.25332e-09
2.167e-08
-1.16368e-09
2.24441e-08
-1.06632e-09
2.31426e-08
-9.62058e-10
2.37611e-08
-8.51698e-10
2.42957e-08
-7.36066e-10
2.47433e-08
-6.15987e-10
2.51012e-08
-4.92283e-10
2.53672e-08
-3.65779e-10
2.55401e-08
-2.37291e-10
2.56188e-08
-1.07632e-10
2.56031e-08
2.23947e-11
2.54933e-08
1.51994e-10
2.52903e-08
2.80382e-10
2.49956e-08
4.06783e-10
2.4611e-08
5.30434e-10
2.41391e-08
6.50585e-10
2.35831e-08
7.66496e-10
2.29464e-08
8.77441e-10
2.22334e-08
9.82706e-10
2.14485e-08
1.08159e-09
2.05969e-08
1.1734e-09
1.96842e-08
1.25747e-09
1.87166e-08
1.33312e-09
1.77007e-08
1.39973e-09
1.66433e-08
1.45665e-09
1.55521e-08
1.50327e-09
1.44348e-08
1.53902e-09
1.32998e-08
1.56331e-09
1.21557e-08
1.57561e-09
1.10114e-08
1.57543e-09
9.87628e-09
1.56231e-09
8.75984e-09
1.53586e-09
7.6718e-09
1.49575e-09
6.62204e-09
1.44176e-09
5.62041e-09
1.37377e-09
4.6767e-09
1.29185e-09
3.80043e-09
1.19624e-09
3.00066e-09
1.0875e-09
2.28574e-09
9.66523e-10
1.66294e-09
8.34726e-10
1.13803e-09
6.94192e-10
7.14663e-10
5.47926e-10
3.93672e-10
4.00187e-10
1.71978e-10
2.56949e-10
4.14817e-11
1.26509e-10
-1.29724e-11
2.03971e-11
-1.49431e-11
-4.51064e-11
-4.61502e-11
2.54103e-11
2.2123e-11
1.31843e-10
-5.81243e-11
3.43928e-10
-2.28465e-10
6.79953e-10
-4.58674e-10
1.15213e-09
-7.26351e-10
1.76729e-09
-1.01444e-09
2.52754e-09
-1.30982e-09
3.43105e-09
-1.60238e-09
4.47272e-09
-1.88444e-09
5.6448e-09
-2.15017e-09
6.93741e-09
-2.39522e-09
8.33908e-09
-2.61639e-09
9.83709e-09
-2.81138e-09
1.14178e-08
-2.97863e-09
1.3067e-08
-3.11716e-09
1.47702e-08
-3.22645e-09
1.65125e-08
-3.30639e-09
1.82793e-08
-3.35715e-09
2.00559e-08
-3.3792e-09
2.1828e-08
-3.37321e-09
2.35818e-08
-3.34006e-09
2.53038e-08
-3.28077e-09
2.69812e-08
-3.1965e-09
2.86016e-08
-3.08853e-09
3.01535e-08
-2.95823e-09
3.16261e-08
-2.80706e-09
3.30093e-08
-2.63653e-09
3.42939e-08
-2.44822e-09
3.54713e-08
-2.24377e-09
3.65341e-08
-2.02482e-09
3.74755e-08
-1.79306e-09
3.82896e-08
-1.55019e-09
3.89715e-08
-1.29793e-09
3.95173e-08
-1.038e-09
3.99236e-08
-7.7212e-10
4.01883e-08
-5.01996e-10
4.03101e-08
-2.29336e-10
4.02883e-08
4.4169e-11
4.01234e-08
3.16846e-10
3.98168e-08
5.87038e-10
3.93705e-08
8.53114e-10
3.87875e-08
1.11346e-09
3.80715e-08
1.3665e-09
3.72274e-08
1.61066e-09
3.62604e-08
1.84442e-09
3.51769e-08
2.06628e-09
3.39837e-08
2.27475e-09
3.26887e-08
2.46841e-09
3.13003e-08
2.64584e-09
2.98278e-08
2.80568e-09
2.82809e-08
2.94659e-09
2.66703e-08
3.06729e-09
2.50071e-08
3.16655e-09
2.33029e-08
3.24318e-09
2.15701e-08
3.29608e-09
1.98215e-08
3.32423e-09
1.80703e-08
3.32668e-09
1.633e-08
3.30263e-09
1.46144e-08
3.2514e-09
1.29377e-08
3.17249e-09
1.13138e-08
3.06564e-09
9.75679e-09
2.93082e-09
8.28026e-09
2.76839e-09
6.8974e-09
2.5791e-09
5.62063e-09
2.36428e-09
4.46125e-09
2.12592e-09
3.42905e-09
1.86693e-09
2.5319e-09
1.59134e-09
1.77517e-09
1.30466e-09
1.16109e-09
1.01428e-09
6.88056e-10
7.29982e-10
3.49923e-10
4.64646e-10
1.35214e-10
2.35108e-10
2.649e-11
6.36181e-11
-1.96615e-11
7.22379e-11
-5.01146e-11
3.0058e-10
-2.86466e-10
6.95786e-10
-6.23672e-10
1.2662e-09
-1.02909e-09
2.01687e-09
-1.47702e-09
2.94934e-09
-1.94692e-09
4.06172e-09
-2.4222e-09
5.34892e-09
-2.88957e-09
6.80296e-09
-3.33849e-09
8.41342e-09
-3.76063e-09
1.01678e-08
-4.14957e-09
1.20518e-08
-4.50039e-09
1.40498e-08
-4.80943e-09
1.61453e-08
-5.07411e-09
1.83208e-08
-5.2927e-09
2.05586e-08
-5.46419e-09
2.28404e-08
-5.58822e-09
2.51482e-08
-5.66492e-09
2.74639e-08
-5.69489e-09
2.97698e-08
-5.6791e-09
3.20485e-08
-5.61883e-09
3.42834e-08
-5.51565e-09
3.64583e-08
-5.37139e-09
3.85578e-08
-5.18806e-09
4.05674e-08
-4.96784e-09
4.24735e-08
-4.71307e-09
4.42632e-08
-4.42623e-09
4.59248e-08
-4.10987e-09
4.74477e-08
-3.76666e-09
4.88222e-08
-3.39931e-09
5.00397e-08
-3.01059e-09
5.10929e-08
-2.60332e-09
5.19753e-08
-2.18033e-09
5.26817e-08
-1.74447e-09
5.32082e-08
-1.29861e-09
5.35518e-08
-8.45587e-10
5.37108e-08
-3.88248e-10
5.36843e-08
7.0585e-11
5.34731e-08
5.28116e-10
5.30785e-08
9.81576e-10
5.25034e-08
1.42823e-09
5.17515e-08
1.86539e-09
5.08276e-08
2.2904e-09
4.97376e-08
2.70064e-09
4.84885e-08
3.09357e-09
4.70881e-08
3.46667e-09
4.55454e-08
3.81749e-09
4.38702e-08
4.14364e-09
4.20732e-08
4.4428e-09
4.01662e-08
4.71269e-09
3.81617e-08
4.95114e-09
3.60729e-08
5.15607e-09
3.3914e-08
5.32546e-09
3.16997e-08
5.45745e-09
2.94455e-08
5.55028e-09
2.71674e-08
5.60235e-09
2.48818e-08
5.61225e-09
2.26057e-08
5.57876e-09
2.03562e-08
5.50095e-09
1.81505e-08
5.37816e-09
1.6006e-08
5.21014e-09
1.39398e-08
4.99706e-09
1.19686e-08
4.73965e-09
1.01084e-08
4.43932e-09
8.37438e-09
4.09827e-09
6.78059e-09
3.71972e-09
5.3394e-09
3.30813e-09
4.06132e-09
2.86943e-09
2.95455e-09
2.41144e-09
2.0246e-09
1.94423e-09
1.27398e-09
1.48061e-09
7.01875e-10
1.03675e-09
3.04129e-10
6.32856e-10
7.33992e-11
2.9435e-10
5.37367e-11
1.17445e-10
-1.67559e-10
4.67108e-10
-6.3613e-10
1.04738e-09
-1.20395e-09
1.85644e-09
-1.83815e-09
2.89107e-09
-2.51166e-09
4.14612e-09
-3.20196e-09
5.61419e-09
-3.89027e-09
7.28561e-09
-4.561e-09
9.14852e-09
-5.2014e-09
1.1189e-08
-5.80114e-09
1.33914e-08
-6.35198e-09
1.57385e-08
-6.84749e-09
1.82119e-08
-7.28276e-09
2.07919e-08
-7.6542e-09
2.34586e-08
-7.95935e-09
2.61912e-08
-8.19675e-09
2.89687e-08
-8.36577e-09
3.17703e-08
-8.46651e-09
3.45751e-08
-8.4997e-09
3.73626e-08
-8.46664e-09
4.01129e-08
-8.36907e-09
4.28064e-08
-8.20919e-09
4.54246e-08
-7.98954e-09
4.79495e-08
-7.71296e-09
5.03642e-08
-7.38257e-09
5.26528e-08
-7.00172e-09
5.48006e-08
-6.57396e-09
5.67937e-08
-6.10298e-09
5.86196e-08
-5.59263e-09
6.02672e-08
-5.04686e-09
6.17263e-08
-4.4697e-09
6.29882e-08
-3.86525e-09
6.40455e-08
-3.23766e-09
6.48921e-08
-2.59108e-09
6.55233e-08
-1.92972e-09
6.59354e-08
-1.25776e-09
6.61265e-08
-5.79365e-10
6.60958e-08
1.01309e-10
6.58438e-08
7.80146e-10
6.53723e-08
1.45307e-09
6.46844e-08
2.11606e-09
6.37847e-08
2.76513e-09
6.26787e-08
3.39639e-09
6.13733e-08
4.00599e-09
5.98767e-08
4.59016e-09
5.81982e-08
5.14522e-09
5.63481e-08
5.66756e-09
5.43381e-08
6.1537e-09
5.21806e-08
6.60022e-09
4.98895e-08
7.00383e-09
4.74792e-08
7.36138e-09
4.49654e-08
7.66984e-09
4.23645e-08
7.92636e-09
3.96937e-08
8.12825e-09
3.6971e-08
8.27304e-09
3.42148e-08
8.3585e-09
3.14444e-08
8.38267e-09
2.86792e-08
8.34393e-09
2.59392e-08
8.24103e-09
2.32441e-08
8.07319e-09
2.06141e-08
7.84015e-09
1.80689e-08
7.54227e-09
1.56279e-08
7.18068e-09
1.33098e-08
6.75739e-09
1.11326e-08
6.27545e-09
9.11318e-09
5.73918e-09
7.26693e-09
5.15437e-09
5.60779e-09
4.52858e-09
4.14782e-09
3.87141e-09
2.89712e-09
3.19493e-09
1.86369e-09
2.51404e-09
1.05353e-09
1.84691e-09
4.70877e-10
1.21551e-09
1.18729e-10
6.46499e-10
1.72467e-10
1.59338e-10
-3.26896e-10
6.24184e-10
-1.10098e-09
1.38297e-09
-1.96273e-09
2.4248e-09
-2.87998e-09
3.73847e-09
-3.82533e-09
5.31184e-09
-4.77533e-09
7.13146e-09
-5.70989e-09
9.18239e-09
-6.61193e-09
1.14482e-08
-7.46717e-09
1.39108e-08
-8.26376e-09
1.65509e-08
-8.99211e-09
1.93479e-08
-9.64455e-09
2.22803e-08
-1.02152e-08
2.53257e-08
-1.06995e-08
2.8461e-08
-1.10947e-08
3.1663e-08
-1.13987e-08
3.49081e-08
-1.16109e-08
3.81728e-08
-1.17313e-08
4.14339e-08
-1.17609e-08
4.46686e-08
-1.17013e-08
4.78545e-08
-1.1555e-08
5.09701e-08
-1.13247e-08
5.39944e-08
-1.10139e-08
5.69076e-08
-1.06262e-08
5.96909e-08
-1.01659e-08
6.23266e-08
-9.63738e-09
6.4798e-08
-9.04543e-09
6.709e-08
-8.39499e-09
6.91886e-08
-7.69124e-09
7.10812e-08
-6.93947e-09
7.27566e-08
-6.14512e-09
7.42051e-08
-5.31373e-09
7.54183e-08
-4.45089e-09
7.63894e-08
-3.56225e-09
7.71132e-08
-2.65349e-09
7.75857e-08
-1.73026e-09
7.78045e-08
-7.98243e-10
7.77689e-08
1.36936e-10
7.74793e-08
1.06968e-09
7.69379e-08
1.99446e-09
7.61482e-08
2.90579e-09
7.5115e-08
3.79827e-09
7.38448e-08
4.66659e-09
7.23452e-08
5.50553e-09
7.06254e-08
6.30997e-09
6.86957e-08
7.07491e-09
6.65677e-08
7.79548e-09
6.42545e-08
8.46691e-09
6.17701e-08
9.08463e-09
5.91297e-08
9.64419e-09
5.63497e-08
1.01413e-08
5.34475e-08
1.05721e-08
5.04413e-08
1.09325e-08
4.73505e-08
1.12191e-08
4.4195e-08
1.14286e-08
4.09954e-08
1.1558e-08
3.77733e-08
1.16048e-08
3.45502e-08
1.1567e-08
3.13484e-08
1.14428e-08
2.81902e-08
1.12314e-08
2.50981e-08
1.09323e-08
2.20943e-08
1.05461e-08
1.92008e-08
1.00741e-08
1.64392e-08
9.51895e-09
1.38304e-08
8.88424e-09
1.13944e-08
8.17515e-09
9.15031e-09
7.39849e-09
7.1159e-09
6.56298e-09
5.30783e-09
5.67948e-09
3.7414e-09
4.76135e-09
2.43072e-09
3.82472e-09
1.38882e-09
2.8888e-09
6.28074e-10
1.97626e-09
1.60744e-10
1.11383e-09
3.33213e-10
1.98027e-10
-5.24923e-10
7.71162e-10
-1.67411e-09
1.69991e-09
-2.89148e-09
2.96564e-09
-4.14571e-09
4.54986e-09
-5.40956e-09
6.43372e-09
-6.65919e-09
8.59765e-09
-7.87382e-09
1.10212e-08
-9.03548e-09
1.36829e-08
-1.01289e-08
1.65603e-08
-1.11411e-08
1.96299e-08
-1.20617e-08
2.28675e-08
-1.28822e-08
2.62482e-08
-1.35958e-08
2.97463e-08
-1.41977e-08
3.3336e-08
-1.46844e-08
3.69913e-08
-1.5054e-08
4.0686e-08
-1.53056e-08
4.43944e-08
-1.54396e-08
4.80907e-08
-1.54572e-08
5.17501e-08
-1.53607e-08
5.53481e-08
-1.5153e-08
5.88612e-08
-1.48378e-08
6.22668e-08
-1.44194e-08
6.55432e-08
-1.39026e-08
6.867e-08
-1.32927e-08
7.16279e-08
-1.25953e-08
7.43991e-08
-1.18166e-08
7.6967e-08
-1.09629e-08
7.93165e-08
-1.00407e-08
8.14339e-08
-9.05689e-09
8.33072e-08
-8.0184e-09
8.49257e-08
-6.93231e-09
8.62806e-08
-5.8058e-09
8.73645e-08
-4.64611e-09
8.81715e-08
-3.46053e-09
8.86976e-08
-2.25633e-09
8.89401e-08
-1.0408e-09
8.88982e-08
1.78818e-10
8.85726e-08
1.39534e-09
8.79654e-08
2.60163e-09
8.70805e-08
3.79065e-09
8.59233e-08
4.95545e-09
8.45007e-08
6.08918e-09
8.28211e-08
7.18514e-09
8.08943e-08
8.23673e-09
7.87317e-08
9.23753e-09
7.63459e-08
1.01813e-08
7.3751e-08
1.10618e-08
7.09622e-08
1.18734e-08
6.79962e-08
1.26102e-08
6.48708e-08
1.32668e-08
6.16047e-08
1.38381e-08
5.8218e-08
1.43192e-08
5.47315e-08
1.47055e-08
5.1167e-08
1.4993e-08
4.75472e-08
1.51778e-08
4.38952e-08
1.52568e-08
4.02349e-08
1.52272e-08
3.65906e-08
1.50871e-08
3.29869e-08
1.4835e-08
2.94487e-08
1.44706e-08
2.60006e-08
1.39941e-08
2.26675e-08
1.34072e-08
1.94738e-08
1.27126e-08
1.64437e-08
1.19144e-08
1.36006e-08
1.10182e-08
1.09675e-08
1.00316e-08
8.56653e-09
8.9639e-09
6.41925e-09
7.82674e-09
4.54641e-09
6.63418e-09
2.96818e-09
5.40295e-09
1.70436e-09
4.15262e-09
7.74708e-10
2.90591e-09
1.99454e-10
1.68908e-09
5.32669e-10
2.34237e-10
-7.59159e-10
9.09938e-10
-2.34981e-09
2.00112e-09
-3.98266e-09
3.48249e-09
-5.62708e-09
5.329e-09
-7.25606e-09
7.51548e-09
-8.84567e-09
1.00164e-08
-1.03748e-08
1.28059e-08
-1.18249e-08
1.58572e-08
-1.31802e-08
1.91431e-08
-1.44271e-08
2.26361e-08
-1.55547e-08
2.63077e-08
-1.65538e-08
3.01293e-08
-1.74175e-08
3.40722e-08
-1.81406e-08
3.81074e-08
-1.87196e-08
4.22059e-08
-1.91525e-08
4.6339e-08
-1.94387e-08
5.04785e-08
-1.95791e-08
5.45966e-08
-1.95753e-08
5.86661e-08
-1.94302e-08
6.26608e-08
-1.91477e-08
6.65553e-08
-1.87324e-08
7.03254e-08
-1.81895e-08
7.39479e-08
-1.75251e-08
7.74009e-08
-1.67457e-08
8.06639e-08
-1.58584e-08
8.37179e-08
-1.48706e-08
8.65453e-08
-1.37902e-08
8.913e-08
-1.26254e-08
9.14575e-08
-1.13844e-08
9.3515e-08
-1.00759e-08
9.52914e-08
-8.70866e-09
9.67771e-08
-7.29151e-09
9.79644e-08
-5.8334e-09
9.88472e-08
-4.34331e-09
9.94211e-08
-2.83025e-09
9.96835e-08
-1.3032e-09
9.96335e-08
2.28873e-10
9.92717e-08
1.75709e-09
9.86008e-08
3.27263e-09
9.76246e-08
4.76679e-09
9.63491e-08
6.23097e-09
9.47816e-08
7.65671e-09
9.29311e-08
9.0357e-09
9.0808e-08
1.03598e-08
8.84245e-08
1.16211e-08
8.5794e-08
1.28117e-08
8.29316e-08
1.39243e-08
7.98536e-08
1.49514e-08
7.65777e-08
1.58861e-08
7.31229e-08
1.67216e-08
6.95094e-08
1.74517e-08
6.57584e-08
1.80702e-08
6.18924e-08
1.85715e-08
5.79348e-08
1.89506e-08
5.39099e-08
1.92028e-08
4.98427e-08
1.9324e-08
4.5759e-08
1.93109e-08
4.16853e-08
1.91609e-08
3.76482e-08
1.88721e-08
3.36751e-08
1.84437e-08
2.97933e-08
1.78759e-08
2.60305e-08
1.71701e-08
2.24141e-08
1.6329e-08
1.89717e-08
1.53568e-08
1.57305e-08
1.42594e-08
1.27175e-08
1.30446e-08
9.95942e-09
1.1722e-08
7.48272e-09
1.03034e-08
5.31355e-09
8.80335e-09
3.47796e-09
7.23853e-09
2.00204e-09
5.62853e-09
9.12187e-10
3.99576e-09
2.35446e-10
2.36582e-09
7.68114e-10
2.68834e-10
-1.02799e-09
1.0432e-09
-3.12417e-09
2.29148e-09
-5.23094e-09
3.98246e-09
-7.31806e-09
6.08507e-09
-9.35866e-09
8.56819e-09
-1.13288e-08
1.14006e-08
-1.32072e-08
1.45507e-08
-1.4975e-08
1.79869e-08
-1.66163e-08
2.1677e-08
-1.81172e-08
2.55889e-08
-1.94665e-08
2.969e-08
-2.0655e-08
3.39481e-08
-2.16755e-08
3.83307e-08
-2.25231e-08
4.28055e-08
-2.31944e-08
4.73408e-08
-2.36878e-08
5.19052e-08
-2.40031e-08
5.64678e-08
-2.41417e-08
6.09987e-08
-2.41062e-08
6.54687e-08
-2.39002e-08
6.98497e-08
-2.35286e-08
7.41145e-08
-2.29972e-08
7.82373e-08
-2.23123e-08
8.21938e-08
-2.14815e-08
8.59606e-08
-2.05125e-08
8.95163e-08
-1.9414e-08
9.28406e-08
-1.8195e-08
9.59152e-08
-1.68648e-08
9.87233e-08
-1.54334e-08
1.0125e-07
-1.39107e-08
1.03481e-07
-1.23071e-08
1.05405e-07
-1.06331e-08
1.07013e-07
-8.89937e-09
1.08296e-07
-7.11657e-09
1.09249e-07
-5.2955e-09
1.09865e-07
-3.44697e-09
1.10144e-07
-1.58176e-09
1.10083e-07
2.89383e-10
1.09685e-07
2.1558e-09
1.08951e-07
4.00691e-09
1.07885e-07
5.83226e-09
1.06495e-07
7.62154e-09
1.04787e-07
9.36459e-09
1.02771e-07
1.10514e-08
1.00458e-07
1.26723e-08
9.7862e-08
1.42176e-08
9.49956e-08
1.56781e-08
9.18753e-08
1.70446e-08
8.85181e-08
1.83086e-08
8.49429e-08
1.94614e-08
8.11695e-08
2.0495e-08
7.72195e-08
2.14018e-08
7.31153e-08
2.21744e-08
6.88807e-08
2.28061e-08
6.45407e-08
2.32907e-08
6.01211e-08
2.36224e-08
5.56487e-08
2.37964e-08
5.11512e-08
2.38084e-08
4.6657e-08
2.3655e-08
4.21953e-08
2.33338e-08
3.77957e-08
2.28433e-08
3.34883e-08
2.21833e-08
2.93036e-08
2.13548e-08
2.52723e-08
2.03602e-08
2.14255e-08
1.92036e-08
1.77942e-08
1.78907e-08
1.44097e-08
1.64291e-08
1.13031e-08
1.48285e-08
8.50592e-09
1.31007e-08
6.04947e-09
1.12598e-08
3.96541e-09
9.3226e-09
2.28568e-09
7.30827e-09
1.04266e-09
5.23878e-09
2.69432e-10
3.13905e-09
1.03754e-09
3.02643e-10
-1.33064e-09
1.17367e-09
-3.99519e-09
2.57622e-09
-6.63349e-09
4.47351e-09
-9.21535e-09
6.82875e-09
-1.17139e-08
9.60509e-09
-1.41051e-08
1.27657e-08
-1.63677e-08
1.62736e-08
-1.84829e-08
2.00918e-08
-2.04345e-08
2.41834e-08
-2.22089e-08
2.85115e-08
-2.37947e-08
3.30395e-08
-2.5183e-08
3.7731e-08
-2.6367e-08
4.25498e-08
-2.73419e-08
4.74605e-08
-2.81051e-08
5.24282e-08
-2.86554e-08
5.74186e-08
-2.89936e-08
6.23986e-08
-2.91217e-08
6.73357e-08
-2.90433e-08
7.21989e-08
-2.87634e-08
7.6958e-08
-2.82878e-08
8.15845e-08
-2.76236e-08
8.60511e-08
-2.67789e-08
9.03319e-08
-2.57623e-08
9.44027e-08
-2.45833e-08
9.82409e-08
-2.32522e-08
1.01826e-07
-2.17796e-08
1.05137e-07
-2.01767e-08
1.08159e-07
-1.84551e-08
1.10875e-07
-1.66265e-08
1.13271e-07
-1.47032e-08
1.15335e-07
-1.26975e-08
1.17058e-07
-1.06219e-08
1.1843e-07
-8.48902e-09
1.19446e-07
-6.31144e-09
1.20101e-07
-4.10186e-09
1.20392e-07
-1.8729e-09
1.20319e-07
3.62822e-10
1.19882e-07
2.59282e-09
1.19084e-07
4.80469e-09
1.1793e-07
6.98619e-09
1.16427e-07
9.12522e-09
1.14581e-07
1.12099e-08
1.12404e-07
1.32284e-08
1.09907e-07
1.51694e-08
1.07103e-07
1.70216e-08
1.04007e-07
1.87741e-08
1.00636e-07
2.04162e-08
9.70069e-08
2.19376e-08
9.314e-08
2.33283e-08
8.9056e-08
2.45789e-08
8.47775e-08
2.56803e-08
8.03282e-08
2.66237e-08
7.57332e-08
2.74012e-08
7.10186e-08
2.80052e-08
6.6212e-08
2.8429e-08
6.1342e-08
2.86665e-08
5.64379e-08
2.87125e-08
5.15305e-08
2.85625e-08
4.6651e-08
2.82134e-08
4.18315e-08
2.76628e-08
3.7105e-08
2.69098e-08
3.25049e-08
2.59549e-08
2.80654e-08
2.47998e-08
2.38208e-08
2.34482e-08
1.98063e-08
2.19053e-08
1.60572e-08
2.01782e-08
1.26094e-08
1.82764e-08
9.4989e-09
1.62111e-08
6.76236e-09
1.39964e-08
4.43671e-09
1.16483e-08
2.55937e-09
9.18562e-09
1.1683e-09
6.62985e-09
3.02077e-10
4.00527e-09
1.33962e-09
3.36374e-10
-1.66701e-09
1.30375e-09
-4.96257e-09
2.86006e-09
-8.18981e-09
4.96299e-09
-1.13183e-08
7.57008e-09
-1.4321e-08
1.06388e-08
-1.71739e-08
1.41267e-08
-1.98556e-08
1.79914e-08
-2.23476e-08
2.21906e-08
-2.46338e-08
2.66825e-08
-2.67007e-08
3.14255e-08
-2.85376e-08
3.63785e-08
-3.0136e-08
4.1501e-08
-3.14895e-08
4.67534e-08
-3.25943e-08
5.20965e-08
-3.34482e-08
5.74924e-08
-3.40514e-08
6.29042e-08
-3.44053e-08
6.82959e-08
-3.45134e-08
7.3633e-08
-3.43805e-08
7.88824e-08
-3.40127e-08
8.40122e-08
-3.34176e-08
8.89922e-08
-3.26036e-08
9.37938e-08
-3.15804e-08
9.83899e-08
-3.03584e-08
1.02755e-07
-2.89488e-08
1.06867e-07
-2.73635e-08
1.10702e-07
-2.56151e-08
1.14242e-07
-2.37165e-08
1.17468e-07
-2.16812e-08
1.20365e-07
-1.9523e-08
1.22917e-07
-1.72559e-08
1.25114e-07
-1.48941e-08
1.26944e-07
-1.24522e-08
1.284e-07
-9.94456e-09
1.29474e-07
-7.3858e-09
1.30163e-07
-4.7905e-09
1.30463e-07
-2.1732e-09
1.30374e-07
4.51609e-10
1.29897e-07
3.06955e-09
1.29036e-07
5.66637e-09
1.27794e-07
8.22796e-09
1.26179e-07
1.07404e-08
1.24198e-07
1.319e-08
1.21864e-07
1.55633e-08
1.19186e-07
1.7847e-08
1.1618e-07
2.00281e-08
1.12859e-07
2.20942e-08
1.09243e-07
2.40328e-08
1.05348e-07
2.5832e-08
1.01196e-07
2.74802e-08
9.68089e-08
2.89665e-08
9.22091e-08
3.02801e-08
8.74218e-08
3.1411e-08
8.24734e-08
3.23496e-08
7.73914e-08
3.30872e-08
7.22048e-08
3.36156e-08
6.69438e-08
3.39275e-08
6.16398e-08
3.40164e-08
5.63254e-08
3.38769e-08
5.10343e-08
3.35045e-08
4.58011e-08
3.2896e-08
4.06614e-08
3.20495e-08
3.56517e-08
3.09645e-08
3.08095e-08
2.9642e-08
2.6173e-08
2.80848e-08
2.1781e-08
2.62973e-08
1.76731e-08
2.42861e-08
1.38896e-08
2.20599e-08
1.04714e-08
1.96293e-08
7.46001e-09
1.70077e-08
4.8976e-09
1.42107e-08
2.82684e-09
1.12564e-08
1.29101e-09
8.16568e-09
3.33946e-10
4.96234e-09
1.67357e-09
3.70601e-10
-2.03761e-09
1.43543e-09
-6.0274e-09
3.14689e-09
-9.90127e-09
5.45694e-09
-1.36283e-08
8.31731e-09
-1.71813e-08
1.16797e-08
-2.05362e-08
1.54958e-08
-2.36718e-08
1.97178e-08
-2.65696e-08
2.42981e-08
-2.92141e-08
2.91898e-08
-3.15924e-08
3.43464e-08
-3.36943e-08
3.97226e-08
-3.55121e-08
4.52736e-08
-3.70405e-08
5.0956e-08
-3.82766e-08
5.67272e-08
-3.92195e-08
6.25462e-08
-3.98704e-08
6.83732e-08
-4.02323e-08
7.41699e-08
-4.031e-08
7.98994e-08
-4.011e-08
8.55266e-08
-3.96399e-08
9.1018e-08
-3.89091e-08
9.6342e-08
-3.79276e-08
1.01469e-07
-3.6707e-08
1.0637e-07
-3.52596e-08
1.11019e-07
-3.35984e-08
1.15393e-07
-3.17374e-08
1.19469e-07
-2.96909e-08
1.23227e-07
-2.7474e-08
1.26647e-07
-2.51021e-08
1.29715e-07
-2.25908e-08
1.32416e-07
-1.99564e-08
1.34737e-07
-1.7215e-08
1.36667e-07
-1.4383e-08
1.382e-07
-1.14769e-08
1.39327e-07
-8.51331e-09
1.40045e-07
-5.50867e-09
1.40352e-07
-2.47949e-09
1.40245e-07
5.57816e-10
1.39728e-07
3.58696e-09
1.38802e-07
6.59181e-09
1.37474e-07
9.55638e-09
1.35749e-07
1.24649e-08
1.33638e-07
1.53019e-08
1.31149e-07
1.80519e-08
1.28296e-07
2.07001e-08
1.25092e-07
2.32316e-08
1.21554e-07
2.56322e-08
1.17699e-07
2.78877e-08
1.13547e-07
2.99845e-08
1.09117e-07
3.19095e-08
1.04434e-07
3.36498e-08
9.95208e-08
3.51932e-08
9.44036e-08
3.65281e-08
8.91098e-08
3.76434e-08
8.36683e-08
3.85287e-08
7.81094e-08
3.91745e-08
7.2465e-08
3.95719e-08
6.67683e-08
3.97131e-08
6.1054e-08
3.95912e-08
5.53579e-08
3.92006e-08
4.97173e-08
3.85366e-08
4.41705e-08
3.75963e-08
3.87571e-08
3.63779e-08
3.35179e-08
3.48812e-08
2.84946e-08
3.3108e-08
2.37301e-08
3.10618e-08
1.92681e-08
2.87481e-08
1.51534e-08
2.61746e-08
1.14315e-08
2.33512e-08
8.1489e-09
2.02903e-08
5.35282e-09
1.70068e-08
3.09112e-09
1.35181e-08
1.41234e-09
9.84447e-09
3.65489e-10
6.00919e-09
2.03906e-09
4.05754e-10
-2.44336e-09
1.57015e-09
-7.1918e-09
3.43953e-09
-1.17707e-08
5.95969e-09
-1.61485e-08
9.0762e-09
-2.02978e-08
1.27346e-08
-2.41947e-08
1.68809e-08
-2.7818e-08
2.14613e-08
-3.115e-08
2.64228e-08
-3.41756e-08
3.17133e-08
-3.68829e-08
3.72816e-08
-3.92626e-08
4.30777e-08
-4.13082e-08
4.90528e-08
-4.30156e-08
5.51595e-08
-4.43834e-08
6.13521e-08
-4.54121e-08
6.75864e-08
-4.61046e-08
7.38196e-08
-4.64656e-08
8.00113e-08
-4.65017e-08
8.61223e-08
-4.6221e-08
9.21158e-08
-4.56334e-08
9.79567e-08
-4.475e-08
1.03612e-07
-4.35829e-08
1.09051e-07
-4.21457e-08
1.14244e-07
-4.04527e-08
1.19164e-07
-3.85191e-08
1.23788e-07
-3.63609e-08
1.28091e-07
-3.39945e-08
1.32054e-07
-3.1437e-08
1.35658e-07
-2.8706e-08
1.38887e-07
-2.58193e-08
1.41725e-07
-2.27949e-08
1.44162e-07
-1.96512e-08
1.46185e-07
-1.64066e-08
1.47788e-07
-1.30796e-08
1.48963e-07
-9.68866e-09
1.49707e-07
-6.25235e-09
1.50016e-07
-2.78909e-09
1.49891e-07
6.82779e-10
1.49333e-07
4.14506e-09
1.48345e-07
7.57972e-09
1.46933e-07
1.09689e-08
1.45103e-07
1.4295e-08
1.42864e-07
1.75405e-08
1.40228e-07
2.06884e-08
1.37206e-07
2.37219e-08
1.33813e-07
2.66243e-08
1.30066e-07
2.93795e-08
1.25982e-07
3.19718e-08
1.2158e-07
3.43856e-08
1.16884e-07
3.6606e-08
1.11915e-07
3.86186e-08
1.06699e-07
4.04092e-08
1.01262e-07
4.19647e-08
9.56337e-08
4.32721e-08
8.98428e-08
4.43195e-08
8.39217e-08
4.50956e-08
7.79035e-08
4.559e-08
7.18235e-08
4.57931e-08
6.5718e-08
4.56966e-08
5.96254e-08
4.52932e-08
5.35851e-08
4.45768e-08
4.76385e-08
4.35429e-08
4.18282e-08
4.21882e-08
3.61981e-08
4.05113e-08
3.07936e-08
3.85125e-08
2.56615e-08
3.61939e-08
2.08498e-08
3.35599e-08
1.64075e-08
3.06168e-08
1.2385e-08
2.73736e-08
8.83373e-09
2.38416e-08
5.80582e-09
2.00346e-08
3.35444e-09
1.59694e-08
1.5334e-09
1.16655e-08
3.97031e-10
7.14555e-09
2.43609e-09
4.42108e-10
-2.88547e-09
1.7088e-09
-8.45848e-09
3.73961e-09
-1.38015e-08
6.47355e-09
-1.88824e-08
9.84953e-09
-2.36738e-08
1.38067e-08
-2.81518e-08
1.82845e-08
-3.22959e-08
2.32236e-08
-3.6089e-08
2.85651e-08
-3.95171e-08
3.42516e-08
-4.25694e-08
4.02271e-08
-4.52381e-08
4.6437e-08
-4.75181e-08
5.28283e-08
-4.9407e-08
5.93501e-08
-5.09052e-08
6.59531e-08
-5.20151e-08
7.25901e-08
-5.27416e-08
7.9216e-08
-5.30915e-08
8.57878e-08
-5.30734e-08
9.22646e-08
-5.26978e-08
9.86078e-08
-5.19766e-08
1.04781e-07
-5.09232e-08
1.1075e-07
-4.9552e-08
1.16483e-07
-4.78788e-08
1.21951e-07
-4.59202e-08
1.27125e-07
-4.36936e-08
1.31982e-07
-4.12172e-08
1.36497e-07
-3.85097e-08
1.4065e-07
-3.55904e-08
1.44423e-07
-3.2479e-08
1.47799e-07
-2.91954e-08
1.50764e-07
-2.57598e-08
1.53306e-07
-2.21927e-08
1.55413e-07
-1.85144e-08
1.57079e-07
-1.47455e-08
1.58297e-07
-1.09066e-08
1.59063e-07
-7.018e-09
1.59374e-07
-3.1002e-09
1.5923e-07
8.26566e-10
1.58633e-07
4.7422e-09
1.57586e-07
8.62678e-09
1.56094e-07
1.24606e-08
1.54165e-07
1.62241e-08
1.51808e-07
1.98981e-08
1.49032e-07
2.34636e-08
1.45852e-07
2.69019e-08
1.42282e-07
3.01947e-08
1.38338e-07
3.33239e-08
1.34037e-07
3.62719e-08
1.29402e-07
3.90215e-08
1.24452e-07
4.15557e-08
1.19212e-07
4.38584e-08
1.13708e-07
4.59136e-08
1.07966e-07
4.77061e-08
1.02017e-07
4.92214e-08
9.58911e-08
5.04455e-08
8.96214e-08
5.13653e-08
8.32429e-08
5.19685e-08
7.67921e-08
5.22439e-08
7.03076e-08
5.21812e-08
6.38296e-08
5.17712e-08
5.74002e-08
5.10062e-08
5.10633e-08
4.98798e-08
4.48645e-08
4.8387e-08
3.88512e-08
4.65247e-08
3.30722e-08
4.42914e-08
2.75783e-08
4.16878e-08
2.24215e-08
3.87166e-08
1.76555e-08
3.53828e-08
1.33353e-08
3.16938e-08
9.51722e-09
2.76597e-08
6.25869e-09
2.32932e-08
3.61816e-09
1.861e-08
1.65491e-09
1.36288e-08
4.28786e-10
8.37167e-09
2.86488e-09
4.79781e-10
-3.36525e-09
1.85164e-09
-9.83034e-09
4.0474e-09
-1.59972e-08
6.99854e-09
-2.18336e-08
1.06367e-08
-2.73119e-08
1.48939e-08
-3.2409e-08
1.97032e-08
-3.71052e-08
2.49988e-08
-4.13845e-08
3.0716e-08
-4.52344e-08
3.67922e-08
-4.86456e-08
4.31661e-08
-5.1612e-08
4.97787e-08
-5.41307e-08
5.65732e-08
-5.62014e-08
6.34947e-08
-5.78267e-08
7.04908e-08
-5.90113e-08
7.75117e-08
-5.97625e-08
8.45098e-08
-6.00896e-08
9.14401e-08
-6.00037e-08
9.826e-08
-5.95177e-08
1.0493e-07
-5.86462e-08
1.11411e-07
-5.74049e-08
1.1767e-07
-5.5811e-08
1.23674e-07
-5.38825e-08
1.29392e-07
-5.16386e-08
1.34798e-07
-4.9099e-08
1.39865e-07
-4.62844e-08
1.44571e-07
-4.32159e-08
1.48896e-07
-3.99148e-08
1.5282e-07
-3.64032e-08
1.56328e-07
-3.27032e-08
1.59405e-07
-2.88371e-08
1.6204e-07
-2.48274e-08
1.64222e-07
-2.06966e-08
1.65944e-07
-1.64673e-08
1.67199e-07
-1.21619e-08
1.67984e-07
-7.80282e-09
1.68296e-07
-3.41237e-09
1.68136e-07
9.87325e-10
1.67504e-07
5.37428e-09
1.66404e-07
9.72671e-09
1.64841e-07
1.40231e-08
1.62823e-07
1.8242e-08
1.60359e-07
2.23625e-08
1.57459e-07
2.63636e-08
1.54136e-07
3.0225e-08
1.50405e-07
3.39262e-08
1.46281e-07
3.74476e-08
1.41783e-07
4.07695e-08
1.36932e-07
4.38727e-08
1.31749e-07
4.67387e-08
1.26259e-07
4.93489e-08
1.20487e-07
5.16858e-08
1.14461e-07
5.3732e-08
1.08211e-07
5.5471e-08
1.0177e-07
5.68868e-08
9.51709e-08
5.79642e-08
8.84504e-08
5.86891e-08
8.16464e-08
5.90478e-08
7.47994e-08
5.90283e-08
6.79515e-08
5.86191e-08
6.11472e-08
5.78105e-08
5.4433e-08
5.6594e-08
4.78574e-08
5.49626e-08
4.14711e-08
5.29111e-08
3.53264e-08
5.04361e-08
2.94781e-08
4.75362e-08
2.39823e-08
4.42124e-08
1.88972e-08
4.04679e-08
1.42827e-08
3.63083e-08
1.02001e-08
3.17423e-08
6.71213e-09
2.67811e-08
3.88284e-09
2.14393e-08
1.77717e-09
1.57344e-08
4.60853e-10
9.68799e-09
3.32573e-09
5.18712e-10
-3.88396e-09
1.99828e-09
-1.13099e-08
4.36173e-09
-1.83607e-08
7.53211e-09
-2.5004e-08
1.1433e-08
-3.12129e-08
1.59891e-08
-3.69651e-08
2.11262e-08
-4.22423e-08
2.67718e-08
-4.70302e-08
3.28555e-08
-5.13181e-08
3.9309e-08
-5.5099e-08
4.60661e-08
-5.83691e-08
5.30633e-08
-6.1128e-08
6.02399e-08
-6.3378e-08
6.75376e-08
-6.51244e-08
7.49012e-08
-6.63749e-08
8.22782e-08
-6.71395e-08
8.9619e-08
-6.74303e-08
9.68769e-08
-6.72616e-08
1.04008e-07
-6.66489e-08
1.10972e-07
-6.56097e-08
1.17729e-07
-6.41626e-08
1.24246e-07
-6.23274e-08
1.30488e-07
-6.01249e-08
1.36427e-07
-5.75769e-08
1.42033e-07
-5.47058e-08
1.47283e-07
-5.15345e-08
1.52154e-07
-4.80867e-08
1.56625e-07
-4.43861e-08
1.60679e-07
-4.04569e-08
1.64299e-07
-3.63234e-08
1.67472e-07
-3.20102e-08
1.70187e-07
-2.75418e-08
1.72433e-07
-2.29426e-08
1.74203e-07
-1.82372e-08
1.75491e-07
-1.345e-08
1.76293e-07
-8.60525e-09
1.76608e-07
-3.72708e-09
1.76435e-07
1.16054e-09
1.75775e-07
6.03385e-09
1.74633e-07
1.08693e-08
1.73012e-07
1.56435e-08
1.70921e-07
2.03333e-08
1.68368e-07
2.49159e-08
1.65363e-07
2.93687e-08
1.61918e-07
3.36692e-08
1.58049e-07
3.77955e-08
1.53771e-07
4.17257e-08
1.49102e-07
4.54384e-08
1.44063e-07
4.89124e-08
1.38674e-07
5.21272e-08
1.32961e-07
5.50622e-08
1.26949e-07
5.76977e-08
1.20667e-07
6.00143e-08
1.14144e-07
6.19932e-08
1.07415e-07
6.36164e-08
1.00513e-07
6.48663e-08
9.34757e-08
6.57263e-08
8.63427e-08
6.61809e-08
7.91558e-08
6.62152e-08
7.19592e-08
6.58157e-08
6.47995e-08
6.49702e-08
5.77257e-08
6.36678e-08
5.07893e-08
6.1899e-08
4.4044e-08
5.96564e-08
3.75458e-08
5.69343e-08
3.13532e-08
5.37289e-08
2.55267e-08
5.0039e-08
2.0129e-08
4.58656e-08
1.52249e-08
4.12125e-08
1.0881e-08
3.60862e-08
7.1655e-09
3.04966e-08
4.14822e-09
2.44565e-08
1.90015e-09
1.79825e-08
4.93229e-10
1.10949e-08
3.81895e-09
5.58643e-10
-4.44261e-09
2.14752e-09
-1.28988e-08
4.67968e-09
-2.08928e-08
8.06877e-09
-2.8393e-08
1.22296e-08
-3.53737e-08
1.70786e-08
-4.18141e-08
2.25342e-08
-4.76979e-08
2.85171e-08
-5.30131e-08
3.49506e-08
-5.77516e-08
4.17607e-08
-6.19091e-08
4.88766e-08
-6.5485e-08
5.62305e-08
-6.84819e-08
6.37579e-08
-7.09054e-08
7.13975e-08
-7.2764e-08
7.90915e-08
-7.40689e-08