/*--------------------------------*- C++ -*----------------------------------*\
  =========                 |
  \\      /  F ield         | OpenFOAM: The Open Source CFD Toolbox
   \\    /   O peration     | Website:  https://openfoam.org
    \\  /    A nd           | Version:  12
     \\/     M anipulation  |
\*---------------------------------------------------------------------------*/
FoamFile
{
    format      ascii;
    class       volScalarField;
    location    "2";
    object      epsilon;
}
// * * * * * * * * * * * * * * * * * * * * * * * * * * * * * * * * * * * * * //

dimensions      [0 2 -3 0 0 0 0];

internalField   nonuniform List<scalar> 
5625
(
1.79466e-06
3.38887e-06
7.18315e-06
1.17116e-05
1.68114e-05
2.23589e-05
2.82638e-05
3.44563e-05
4.08788e-05
4.74814e-05
5.42195e-05
6.10519e-05
6.79404e-05
7.48486e-05
8.1742e-05
8.85878e-05
9.53545e-05
0.000102012
0.000108531
0.000114885
0.000121046
0.00012699
0.000132694
0.000138134
0.00014329
0.000148141
0.00015267
0.00015686
0.000160694
0.00016416
0.000167245
0.000169937
0.000172227
0.000174107
0.000175571
0.000176613
0.000177231
0.000177422
0.000177186
0.000176524
0.000175438
0.000173933
0.000172014
0.000169689
0.000166965
0.000163853
0.000160364
0.000156511
0.000152309
0.000147772
0.000142918
0.000137764
0.000132331
0.000126639
0.00012071
0.000114567
0.000108236
0.000101741
9.51094e-05
8.83697e-05
8.15512e-05
7.46847e-05
6.78025e-05
6.09384e-05
5.41283e-05
4.741e-05
4.08246e-05
3.44165e-05
2.82356e-05
2.23396e-05
1.67987e-05
1.17037e-05
7.1786e-06
3.38672e-06
1.79344e-06
1.21328e-05
6.60007e-06
6.42398e-06
7.67293e-06
9.59343e-06
1.19157e-05
1.45099e-05
1.73009e-05
2.02392e-05
2.32884e-05
2.64195e-05
2.9608e-05
3.28326e-05
3.60738e-05
3.93136e-05
4.25353e-05
4.57232e-05
4.88624e-05
5.19386e-05
5.49384e-05
5.7849e-05
6.06583e-05
6.33549e-05
6.59279e-05
6.83672e-05
7.06633e-05
7.28074e-05
7.47914e-05
7.66079e-05
7.82502e-05
7.97123e-05
8.09888e-05
8.20751e-05
8.29675e-05
8.36628e-05
8.41585e-05
8.4453e-05
8.45455e-05
8.44358e-05
8.41242e-05
8.36118e-05
8.29006e-05
8.19933e-05
8.08932e-05
7.96043e-05
7.81315e-05
7.64802e-05
7.46564e-05
7.2667e-05
7.05195e-05
6.82219e-05
6.57829e-05
6.32121e-05
6.05194e-05
5.77154e-05
5.48114e-05
5.18195e-05
4.8752e-05
4.56223e-05
4.24443e-05
3.92326e-05
3.60028e-05
3.27714e-05
2.95561e-05
2.63762e-05
2.32531e-05
2.0211e-05
1.72789e-05
1.44931e-05
1.19034e-05
9.5848e-06
7.66721e-06
6.42029e-06
6.59708e-06
1.21267e-05
2.69681e-05
1.32194e-05
1.01968e-05
9.62931e-06
1.0096e-05
1.11327e-05
1.253e-05
1.41741e-05
1.59945e-05
1.79438e-05
1.99876e-05
2.2099e-05
2.42564e-05
2.64417e-05
2.86388e-05
3.08335e-05
3.30129e-05
3.51651e-05
3.72792e-05
3.93447e-05
4.13522e-05
4.32926e-05
4.51574e-05
4.69387e-05
4.8629e-05
5.02216e-05
5.171e-05
5.30884e-05
5.43514e-05
5.5494e-05
5.65121e-05
5.74017e-05
5.81595e-05
5.87828e-05
5.92691e-05
5.96168e-05
5.98246e-05
5.98918e-05
5.98183e-05
5.96041e-05
5.92501e-05
5.87577e-05
5.81287e-05
5.73654e-05
5.64707e-05
5.54481e-05
5.43013e-05
5.30348e-05
5.16535e-05
5.01627e-05
4.85683e-05
4.68768e-05
4.50949e-05
4.323e-05
4.12902e-05
3.92837e-05
3.72196e-05
3.51075e-05
3.29576e-05
3.07809e-05
2.85892e-05
2.63954e-05
2.42137e-05
2.206e-05
1.99526e-05
1.7913e-05
1.59679e-05
1.41518e-05
1.25122e-05
1.11192e-05
1.00868e-05
9.62392e-06
1.01946e-05
1.32191e-05
2.69669e-05
4.45771e-05
2.13867e-05
1.5512e-05
1.33784e-05
1.27289e-05
1.28614e-05
1.34743e-05
1.44096e-05
1.55729e-05
1.69023e-05
1.83541e-05
1.98959e-05
2.15023e-05
2.31528e-05
2.48303e-05
2.65201e-05
2.82092e-05
2.98862e-05
3.15406e-05
3.31628e-05
3.47442e-05
3.62766e-05
3.77525e-05
3.9165e-05
4.05077e-05
4.17746e-05
4.29603e-05
4.40596e-05
4.50681e-05
4.59816e-05
4.67963e-05
4.7509e-05
4.81169e-05
4.86175e-05
4.90089e-05
4.92895e-05
4.94583e-05
4.95144e-05
4.94579e-05
4.92888e-05
4.90075e-05
4.86154e-05
4.81138e-05
4.75047e-05
4.67905e-05
4.5974e-05
4.50585e-05
4.40478e-05
4.29458e-05
4.17573e-05
4.04873e-05
3.91414e-05
3.77255e-05
3.62461e-05
3.47103e-05
3.31257e-05
3.15003e-05
2.98432e-05
2.81639e-05
2.64729e-05
2.4782e-05
2.31041e-05
2.14541e-05
1.98492e-05
1.831e-05
1.68618e-05
1.5537e-05
1.43791e-05
1.345e-05
1.2844e-05
1.27188e-05
1.33759e-05
1.5517e-05
2.13996e-05
4.46045e-05
6.41417e-05
3.05513e-05
2.16786e-05
1.80202e-05
1.63646e-05
1.5733e-05
1.57164e-05
1.61067e-05
1.6783e-05
1.76677e-05
1.87071e-05
1.98624e-05
2.11037e-05
2.24073e-05
2.37538e-05
2.51271e-05
2.6513e-05
2.78995e-05
2.92759e-05
3.06324e-05
3.19603e-05
3.32517e-05
3.44993e-05
3.56965e-05
3.68371e-05
3.79154e-05
3.89264e-05
3.98652e-05
4.07276e-05
4.15098e-05
4.22082e-05
4.28199e-05
4.33421e-05
4.37727e-05
4.41098e-05
4.4352e-05
4.4498e-05
4.45474e-05
4.44999e-05
4.43556e-05
4.41148e-05
4.37787e-05
4.33485e-05
4.28261e-05
4.22135e-05
4.15135e-05
4.07289e-05
3.98633e-05
3.89204e-05
3.79047e-05
3.68209e-05
3.56742e-05
3.44705e-05
3.3216e-05
3.19176e-05
3.05827e-05
2.92196e-05
2.78372e-05
2.64454e-05
2.50553e-05
2.36792e-05
2.23313e-05
2.10279e-05
1.97887e-05
1.86372e-05
1.76035e-05
1.67265e-05
1.60597e-05
1.56805e-05
1.57097e-05
1.6355e-05
1.80253e-05
2.16998e-05
3.05931e-05
6.42327e-05
8.51355e-05
4.04223e-05
2.8405e-05
2.32084e-05
2.05861e-05
1.92548e-05
1.86858e-05
1.86148e-05
1.88912e-05
1.94205e-05
2.01383e-05
2.09985e-05
2.19664e-05
2.30149e-05
2.41222e-05
2.52702e-05
2.64435e-05
2.7629e-05
2.88151e-05
2.99916e-05
3.11495e-05
3.22805e-05
3.33771e-05
3.44326e-05
3.54409e-05
3.63962e-05
3.72935e-05
3.81282e-05
3.88961e-05
3.95934e-05
4.02167e-05
4.0763e-05
4.12297e-05
4.16147e-05
4.19162e-05
4.21326e-05
4.2263e-05
4.23066e-05
4.22634e-05
4.21332e-05
4.19165e-05
4.16143e-05
4.12278e-05
4.07587e-05
4.02091e-05
3.95816e-05
3.8879e-05
3.81047e-05
3.72627e-05
3.63571e-05
3.53927e-05
3.43748e-05
3.33092e-05
3.22024e-05
3.10613e-05
2.98938e-05
2.87082e-05
2.75142e-05
2.63222e-05
2.5144e-05
2.39931e-05
2.28852e-05
2.18388e-05
2.0876e-05
2.0024e-05
1.93175e-05
1.88024e-05
1.85428e-05
1.86331e-05
1.92238e-05
2.05789e-05
2.32272e-05
2.84536e-05
4.05121e-05
8.53328e-05
0.000107166
5.07993e-05
3.55189e-05
2.87596e-05
2.51846e-05
2.31871e-05
2.21098e-05
2.16275e-05
2.15575e-05
2.17861e-05
2.22378e-05
2.28586e-05
2.36089e-05
2.44576e-05
2.53804e-05
2.6357e-05
2.73706e-05
2.84068e-05
2.94532e-05
3.04989e-05
3.15342e-05
3.25504e-05
3.35398e-05
3.44954e-05
3.54108e-05
3.62803e-05
3.70987e-05
3.78611e-05
3.85635e-05
3.92019e-05
3.97729e-05
4.02736e-05
4.07014e-05
4.1054e-05
4.13297e-05
4.1527e-05
4.16449e-05
4.16827e-05
4.16402e-05
4.15175e-05
4.13148e-05
4.10331e-05
4.06738e-05
4.02384e-05
3.97293e-05
3.91487e-05
3.84998e-05
3.7786e-05
3.70112e-05
3.61797e-05
3.52964e-05
3.43669e-05
3.3397e-05
3.23935e-05
3.13637e-05
3.03159e-05
2.92592e-05
2.82037e-05
2.71609e-05
2.61435e-05
2.51664e-05
2.42468e-05
2.34051e-05
2.2666e-05
2.20605e-05
2.16285e-05
2.14236e-05
2.15211e-05
2.20345e-05
2.31464e-05
2.51817e-05
2.87985e-05
3.56065e-05
5.09571e-05
0.000107514
0.000129916
6.15261e-05
4.28975e-05
3.45547e-05
3.00328e-05
2.73892e-05
2.58318e-05
2.49716e-05
2.45911e-05
2.45568e-05
2.47804e-05
2.52004e-05
2.57711e-05
2.64578e-05
2.72331e-05
2.80746e-05
2.8964e-05
2.98855e-05
3.08256e-05
3.17727e-05
3.27164e-05
3.36476e-05
3.4558e-05
3.54404e-05
3.62881e-05
3.70951e-05
3.7856e-05
3.8566e-05
3.92207e-05
3.98162e-05
4.03489e-05
4.0816e-05
4.12147e-05
4.15428e-05
4.17984e-05
4.19802e-05
4.2087e-05
4.21182e-05
4.20737e-05
4.19533e-05
4.17574e-05
4.14872e-05
4.11439e-05
4.07292e-05
4.02454e-05
3.96951e-05
3.90812e-05
3.84075e-05
3.76779e-05
3.68971e-05
3.60701e-05
3.52027e-05
3.43013e-05
3.33729e-05
3.24254e-05
3.14673e-05
3.05084e-05
2.95595e-05
2.86328e-05
2.77424e-05
2.69045e-05
2.61379e-05
2.54652e-05
2.49142e-05
2.45197e-05
2.43271e-05
2.43979e-05
2.482e-05
2.57268e-05
2.73353e-05
3.00348e-05
3.46184e-05
4.30342e-05
6.17701e-05
0.000130456
0.000153119
7.24737e-05
5.04437e-05
4.05052e-05
3.50417e-05
3.17666e-05
2.97498e-05
2.85357e-05
2.78711e-05
2.76016e-05
2.76258e-05
2.78731e-05
2.82926e-05
2.88452e-05
2.95004e-05
3.02336e-05
3.10246e-05
3.18563e-05
3.27143e-05
3.35859e-05
3.44602e-05
3.53273e-05
3.61786e-05
3.70064e-05
3.78037e-05
3.85644e-05
3.92827e-05
3.99537e-05
4.05728e-05
4.1136e-05
4.16398e-05
4.2081e-05
4.24569e-05
4.27653e-05
4.30042e-05
4.31723e-05
4.32685e-05
4.3292e-05
4.32429e-05
4.31209e-05
4.29266e-05
4.26612e-05
4.23258e-05
4.19225e-05
4.14535e-05
4.09216e-05
4.03298e-05
3.96821e-05
3.89826e-05
3.82361e-05
3.7448e-05
3.66244e-05
3.5772e-05
3.48982e-05
3.40114e-05
3.31209e-05
3.22368e-05
3.1371e-05
3.05367e-05
2.97489e-05
2.90252e-05
2.83863e-05
2.78571e-05
2.74685e-05
2.72592e-05
2.72805e-05
2.76024e-05
2.83261e-05
2.96056e-05
3.16937e-05
3.50463e-05
4.05955e-05
5.06359e-05
7.28164e-05
0.000153881
0.000176546
8.35323e-05
5.80775e-05
4.65412e-05
4.01436e-05
3.62502e-05
3.37907e-05
3.22419e-05
3.1314e-05
3.08309e-05
3.06777e-05
3.0775e-05
3.10653e-05
3.15056e-05
3.2062e-05
3.27075e-05
3.34201e-05
3.41814e-05
3.49757e-05
3.57894e-05
3.66108e-05
3.74296e-05
3.82366e-05
3.90237e-05
3.97835e-05
4.05096e-05
4.11961e-05
4.18378e-05
4.24299e-05
4.29684e-05
4.34495e-05
4.38701e-05
4.42275e-05
4.45193e-05
4.47435e-05
4.48989e-05
4.49842e-05
4.49988e-05
4.49429e-05
4.4816e-05
4.4619e-05
4.43529e-05
4.40192e-05
4.36199e-05
4.31574e-05
4.26346e-05
4.20549e-05
4.14222e-05
4.07409e-05
4.00162e-05
3.92538e-05
3.846e-05
3.76419e-05
3.68074e-05
3.59654e-05
3.51258e-05
3.42995e-05
3.34991e-05
3.27387e-05
3.20348e-05
3.14062e-05
3.08756e-05
3.04703e-05
3.02241e-05
3.01804e-05
3.03961e-05
3.09505e-05
3.1958e-05
3.3594e-05
3.61481e-05
4.01438e-05
4.66544e-05
5.83243e-05
8.39764e-05
0.000177538
0.0002
9.46073e-05
6.5731e-05
5.26051e-05
4.52845e-05
4.07863e-05
3.78993e-05
3.60323e-05
3.48584e-05
3.41796e-05
3.38672e-05
3.38326e-05
3.40117e-05
3.43572e-05
3.48319e-05
3.54065e-05
3.60568e-05
3.6763e-05
3.75081e-05
3.82779e-05
3.90596e-05
3.98425e-05
4.06166e-05
4.13736e-05
4.21058e-05
4.28063e-05
4.3469e-05
4.40885e-05
4.466e-05
4.51792e-05
4.56423e-05
4.60461e-05
4.63877e-05
4.66648e-05
4.68755e-05
4.70184e-05
4.70923e-05
4.70966e-05
4.70316e-05
4.68968e-05
4.66932e-05
4.64219e-05
4.60846e-05
4.56834e-05
4.52207e-05
4.46996e-05
4.41238e-05
4.34974e-05
4.28251e-05
4.21122e-05
4.13648e-05
4.05896e-05
3.97941e-05
3.89868e-05
3.81769e-05
3.73749e-05
3.65927e-05
3.58435e-05
3.51426e-05
3.45075e-05
3.39587e-05
3.35208e-05
3.32235e-05
3.31039e-05
3.32096e-05
3.36042e-05
3.43758e-05
3.56523e-05
3.7631e-05
4.06384e-05
4.52662e-05
5.27288e-05
6.60215e-05
9.51407e-05
0.000201199
0.00022331
0.000105618
7.33466e-05
5.86486e-05
5.04203e-05
4.53321e-05
4.20324e-05
3.98622e-05
3.84576e-05
3.75985e-05
3.71421e-05
3.69907e-05
3.70738e-05
3.7339e-05
3.77464e-05
3.82636e-05
3.88648e-05
3.95284e-05
4.02365e-05
4.09735e-05
4.17261e-05
4.24828e-05
4.32333e-05
4.39687e-05
4.46808e-05
4.53626e-05
4.60078e-05
4.66106e-05
4.71662e-05
4.76701e-05
4.81184e-05
4.85079e-05
4.88356e-05
4.90992e-05
4.92967e-05
4.94268e-05
4.94884e-05
4.94809e-05
4.94046e-05
4.92591e-05
4.90455e-05
4.8765e-05
4.84195e-05
4.80111e-05
4.75425e-05
4.70169e-05
4.64383e-05
4.58109e-05
4.51397e-05
4.44304e-05
4.36894e-05
4.29236e-05
4.21411e-05
4.13508e-05
4.05624e-05
3.97873e-05
3.90378e-05
3.83281e-05
3.76746e-05
3.70959e-05
3.66143e-05
3.62561e-05
3.60537e-05
3.60474e-05
3.62891e-05
3.68493e-05
3.78246e-05
3.9357e-05
4.16654e-05
4.51131e-05
5.03594e-05
5.87591e-05
7.36551e-05
0.000106208
0.00022465
0.000246333
0.000116495
8.08761e-05
6.46319e-05
5.5515e-05
4.98529e-05
4.61556e-05
4.36966e-05
4.20752e-05
4.10494e-05
4.04625e-05
4.02074e-05
4.02073e-05
4.04047e-05
4.07565e-05
4.1228e-05
4.17909e-05
4.24224e-05
4.31031e-05
4.38166e-05
4.45488e-05
4.52873e-05
4.60215e-05
4.67418e-05
4.74399e-05
4.81084e-05
4.87407e-05
4.9331e-05
4.98741e-05
5.03655e-05
5.08013e-05
5.1178e-05
5.14928e-05
5.17433e-05
5.19276e-05
5.20443e-05
5.20923e-05
5.20713e-05
5.19814e-05
5.18224e-05
5.15955e-05
5.13022e-05
5.09443e-05
5.05241e-05
5.00446e-05
4.95091e-05
4.89218e-05
4.82871e-05
4.76105e-05
4.68977e-05
4.61555e-05
4.53914e-05
4.46138e-05
4.38319e-05
4.30563e-05
4.22986e-05
4.15723e-05
4.08922e-05
4.02758e-05
3.97431e-05
3.93178e-05
3.90283e-05
3.89094e-05
3.90047e-05
3.93711e-05
4.00848e-05
4.12517e-05
4.30273e-05
4.56521e-05
4.95258e-05
5.53742e-05
6.46898e-05
8.11576e-05
0.000117081
0.000247689
0.000268949
0.000127184
8.82798e-05
7.05224e-05
6.05394e-05
5.43214e-05
5.02417e-05
4.75079e-05
4.56829e-05
4.45029e-05
4.37975e-05
4.34503e-05
4.33779e-05
4.35183e-05
4.38248e-05
4.42601e-05
4.4794e-05
4.5402e-05
4.60635e-05
4.6761e-05
4.74797e-05
4.82064e-05
4.89301e-05
4.96406e-05
5.03294e-05
5.09887e-05
5.16116e-05
5.21923e-05
5.27253e-05
5.32061e-05
5.36306e-05
5.39954e-05
5.42976e-05
5.45348e-05
5.47051e-05
5.48072e-05
5.48401e-05
5.48037e-05
5.46977e-05
5.45224e-05
5.42792e-05
5.39694e-05
5.35952e-05
5.3159e-05
5.26639e-05
5.21137e-05
5.15124e-05
5.08649e-05
5.01769e-05
4.94545e-05
4.87048e-05
4.79356e-05
4.71556e-05
4.63749e-05
4.56042e-05
4.48562e-05
4.41447e-05
4.34857e-05
4.28976e-05
4.24017e-05
4.20233e-05
4.17928e-05
4.17474e-05
4.1934e-05
4.24142e-05
4.32702e-05
4.4617e-05
4.66232e-05
4.95505e-05
5.3834e-05
6.02644e-05
7.04686e-05
8.84643e-05
0.000127668
0.00027012
0.000291067
0.000137639
9.55269e-05
7.6295e-05
6.54711e-05
5.87162e-05
5.42701e-05
5.12753e-05
4.92592e-05
4.79367e-05
4.71237e-05
4.66946e-05
4.65597e-05
4.66524e-05
4.69222e-05
4.73296e-05
4.78423e-05
4.8434e-05
4.90829e-05
4.97707e-05
5.04814e-05
5.12014e-05
5.1919e-05
5.26238e-05
5.33067e-05
5.39597e-05
5.45757e-05
5.51486e-05
5.56729e-05
5.6144e-05
5.65577e-05
5.69106e-05
5.71997e-05
5.74228e-05
5.7578e-05
5.76639e-05
5.76797e-05
5.76255e-05
5.75008e-05
5.73063e-05
5.70434e-05
5.67137e-05
5.63194e-05
5.58631e-05
5.53482e-05
5.47785e-05
5.41585e-05
5.34932e-05
5.27886e-05
5.2051e-05
5.12879e-05
5.05076e-05
4.97192e-05
4.8933e-05
4.81607e-05
4.74152e-05
4.67113e-05
4.60659e-05
4.54983e-05
4.50311e-05
4.46912e-05
4.45108e-05
4.45297e-05
4.4798e-05
4.5382e-05
4.63696e-05
4.78844e-05
5.01081e-05
5.33228e-05
5.79976e-05
6.49863e-05
7.60452e-05
9.5513e-05
0.000137879
0.000291756
0.000312617
0.000147829
0.000102595
8.19314e-05
7.02939e-05
6.30222e-05
5.82257e-05
5.49836e-05
5.27885e-05
5.13344e-05
5.04238e-05
4.99221e-05
4.97334e-05
4.97865e-05
5.00272e-05
5.04137e-05
5.09116e-05
5.1493e-05
5.21348e-05
5.28176e-05
5.35248e-05
5.4242e-05
5.4957e-05
5.56588e-05
5.63382e-05
5.69867e-05
5.75972e-05
5.81632e-05
5.86793e-05
5.91407e-05
5.95432e-05
5.98834e-05
6.01584e-05
6.03658e-05
6.05039e-05
6.05715e-05
6.05678e-05
6.04931e-05
6.03467e-05
6.01298e-05
5.98438e-05
5.94905e-05
5.90722e-05
5.85919e-05
5.8053e-05
5.74595e-05
5.68162e-05
5.61284e-05
5.54022e-05
5.46445e-05
5.38628e-05
5.3066e-05
5.22635e-05
5.14661e-05
5.06861e-05
4.99369e-05
4.92342e-05
4.85955e-05
4.80413e-05
4.75955e-05
4.72863e-05
4.7148e-05
4.72226e-05
4.75636e-05
4.82414e-05
4.93497e-05
5.10205e-05
5.34477e-05
5.69332e-05
6.19787e-05
6.94979e-05
8.13709e-05
0.000102243
0.000147629
0.000312412
0.000333561
0.000157734
0.000109471
8.74207e-05
7.49981e-05
6.723e-05
6.20992e-05
5.86232e-05
5.62606e-05
5.46852e-05
5.36863e-05
5.31206e-05
5.28857e-05
5.29063e-05
5.31244e-05
5.34959e-05
5.39844e-05
5.45603e-05
5.51994e-05
5.58811e-05
5.6588e-05
5.73052e-05
5.80198e-05
5.87205e-05
5.93976e-05
6.00425e-05
6.06477e-05
6.12069e-05
6.17143e-05
6.2165e-05
6.25551e-05
6.2881e-05
6.31398e-05
6.33293e-05
6.34479e-05
6.34944e-05
6.34683e-05
6.33696e-05
6.31982e-05
6.29553e-05
6.26425e-05
6.22618e-05
6.18156e-05
6.13071e-05
6.07399e-05
6.01183e-05
5.94473e-05
5.87325e-05
5.79801e-05
5.71975e-05
5.63925e-05
5.55741e-05
5.47524e-05
5.39386e-05
5.31453e-05
5.23869e-05
5.16794e-05
5.10413e-05
5.04942e-05
5.00629e-05
4.97773e-05
4.96734e-05
4.97954e-05
5.02002e-05
5.09619e-05
5.21797e-05
5.39937e-05
5.66096e-05
6.03475e-05
6.57403e-05
7.37581e-05
8.63981e-05
0.000108595
0.00015683
0.000331907
0.000353886
0.000167349
0.00011615
9.27593e-05
7.95801e-05
7.1336e-05
6.58868e-05
6.21898e-05
5.96708e-05
5.79837e-05
5.6905e-05
5.62828e-05
5.60087e-05
5.6003e-05
5.62041e-05
5.65656e-05
5.70491e-05
5.76235e-05
5.82631e-05
5.89465e-05
5.96555e-05
6.03744e-05
6.10898e-05
6.17901e-05
6.24652e-05
6.31063e-05
6.37057e-05
6.42568e-05
6.4754e-05
6.51924e-05
6.55678e-05
6.58768e-05
6.61167e-05
6.62852e-05
6.63809e-05
6.64028e-05
6.63507e-05
6.62241e-05
6.60237e-05
6.57508e-05
6.5407e-05
6.49946e-05
6.45162e-05
6.39752e-05
6.33754e-05
6.27214e-05
6.20183e-05
6.12719e-05
6.0489e-05
5.96769e-05
5.88439e-05
5.79994e-05
5.71537e-05
5.63186e-05
5.55071e-05
5.47341e-05
5.40164e-05
5.33734e-05
5.28272e-05
5.24041e-05
5.21352e-05
5.20582e-05
5.22196e-05
5.26791e-05
5.35146e-05
5.48305e-05
5.67742e-05
5.95624e-05
6.35326e-05
6.92464e-05
7.77268e-05
9.10796e-05
0.000114509
0.000165397
0.00035006
0.000373605
0.000176681
0.000122637
9.79509e-05
8.40428e-05
7.53425e-05
6.95899e-05
6.56843e-05
6.30192e-05
6.12292e-05
6.00786e-05
5.94068e-05
5.90996e-05
5.90729e-05
5.92618e-05
5.96176e-05
6.00996e-05
6.06753e-05
6.1318e-05
6.20049e-05
6.27173e-05
6.34387e-05
6.41552e-05
6.48549e-05
6.55272e-05
6.61632e-05
6.67551e-05
6.72961e-05
6.77806e-05
6.82037e-05
6.85612e-05
6.88499e-05
6.9067e-05
6.92106e-05
6.92793e-05
6.92722e-05
6.91895e-05
6.90305e-05
6.87965e-05
6.84888e-05
6.81094e-05
6.76605e-05
6.71453e-05
6.65671e-05
6.59301e-05
6.5239e-05
6.44993e-05
6.3717e-05
6.2899e-05
6.2053e-05
6.11876e-05
6.03124e-05
5.94383e-05
5.85772e-05
5.77428e-05
5.69504e-05
5.62174e-05
5.55639e-05
5.5013e-05
5.45919e-05
5.43331e-05
5.42758e-05
5.44683e-05
5.49734e-05
5.58723e-05
5.72741e-05
5.9333e-05
6.22759e-05
6.64561e-05
7.24618e-05
8.13642e-05
9.5369e-05
0.000119927
0.000173246
0.000366692
0.000392765
0.000185751
0.000128948
0.000103007
8.83957e-05
7.92574e-05
7.32155e-05
6.91126e-05
6.63109e-05
6.44262e-05
6.32106e-05
6.24954e-05
6.21605e-05
6.21174e-05
6.22982e-05
6.26515e-05
6.31349e-05
6.37142e-05
6.43614e-05
6.5053e-05
6.57691e-05
6.64928e-05
6.72098e-05
6.79075e-05
6.85753e-05
6.9204e-05
6.97856e-05
7.03134e-05
7.07816e-05
7.11853e-05
7.15207e-05
7.17844e-05
7.1974e-05
7.20876e-05
7.2124e-05
7.20828e-05
7.19638e-05
7.1767e-05
7.14939e-05
7.11461e-05
7.07255e-05
7.0235e-05
6.96776e-05
6.90571e-05
6.83779e-05
6.76449e-05
6.68637e-05
6.60408e-05
6.51832e-05
6.42988e-05
6.33966e-05
6.24864e-05
6.15794e-05
6.06879e-05
5.98261e-05
5.90096e-05
5.82565e-05
5.75874e-05
5.70262e-05
5.66012e-05
5.63458e-05
5.63009e-05
5.65164e-05
5.70576e-05
5.80088e-05
5.94836e-05
6.16422e-05
6.47207e-05
6.90865e-05
7.53518e-05
8.46311e-05
9.92199e-05
0.00012479
0.000180291
0.000381624
0.000411438
0.000194593
0.000135104
0.000107946
9.26547e-05
8.30946e-05
7.67759e-05
7.24858e-05
6.9556e-05
6.75838e-05
6.63094e-05
6.55562e-05
6.51982e-05
6.51428e-05
6.53188e-05
6.56724e-05
6.61592e-05
6.67436e-05
6.73961e-05
6.80925e-05
6.88119e-05
6.9537e-05
7.02527e-05
7.09463e-05
7.16068e-05
7.22248e-05
7.27923e-05
7.33025e-05
7.37496e-05
7.4129e-05
7.44367e-05
7.46697e-05
7.48257e-05
7.4903e-05
7.49008e-05
7.48191e-05
7.46571e-05
7.44162e-05
7.40976e-05
7.37032e-05
7.32353e-05
7.2697e-05
7.20915e-05
7.1423e-05
7.0696e-05
6.99157e-05
6.9088e-05
6.82194e-05
6.73174e-05
6.639e-05
6.54464e-05
6.44968e-05
6.35526e-05
6.26264e-05
6.17327e-05
6.08876e-05
6.01096e-05
5.94199e-05
5.88431e-05
5.84081e-05
5.81497e-05
5.81097e-05
5.83397e-05
5.89072e-05
5.98993e-05
6.14333e-05
6.36748e-05
6.6868e-05
7.13928e-05
7.78821e-05
8.74888e-05
0.000102586
0.000129041
0.00018645
0.000394676
0.000429729
0.000203257
0.000141142
0.000112795
9.68423e-05
8.68738e-05
8.02888e-05
7.582e-05
7.27693e-05
7.07158e-05
6.93882e-05
6.86015e-05
6.82245e-05
6.81601e-05
6.83341e-05
6.86901e-05
6.91818e-05
6.9772e-05
7.04301e-05
7.11307e-05
7.18524e-05
7.25769e-05
7.32888e-05
7.39751e-05
7.46244e-05
7.52273e-05
7.57757e-05
7.62627e-05
7.66828e-05
7.70313e-05
7.73046e-05
7.74997e-05
7.76148e-05
7.76484e-05
7.76002e-05
7.74698e-05
7.72575e-05
7.69647e-05
7.6593e-05
7.61446e-05
7.56222e-05
7.5029e-05
7.43687e-05
7.36456e-05
7.28646e-05
7.20311e-05
7.11512e-05
7.02316e-05
6.928e-05
6.83047e-05
6.73151e-05
6.63215e-05
6.53356e-05
6.43703e-05
6.34403e-05
6.25621e-05
6.17545e-05
6.10391e-05
6.04413e-05
5.99905e-05
5.97223e-05
5.96796e-05
5.99154e-05
6.0499e-05
6.15197e-05
6.30981e-05
6.54046e-05
6.86899e-05
7.33447e-05
8.00195e-05
8.98991e-05
0.000105424
0.000132622
0.000191637
0.000405673
0.00044777
0.000211805
0.000147103
0.000117588
0.000100987
9.06204e-05
8.3777e-05
7.91363e-05
7.59705e-05
7.38408e-05
7.24644e-05
7.16484e-05
7.12557e-05
7.11852e-05
7.13594e-05
7.17194e-05
7.2217e-05
7.28134e-05
7.34767e-05
7.41805e-05
7.49024e-05
7.56237e-05
7.63285e-05
7.70032e-05
7.76366e-05
7.82188e-05
7.87418e-05
7.91989e-05
7.95846e-05
7.98945e-05
8.01251e-05
8.02739e-05
8.03393e-05
8.03203e-05
8.02169e-05
8.00287e-05
7.9757e-05
7.94033e-05
7.89697e-05
7.84587e-05
7.78734e-05
7.72173e-05
7.64944e-05
7.57093e-05
7.48672e-05
7.39738e-05
7.30353e-05
7.20588e-05
7.1052e-05
7.00235e-05
6.89828e-05
6.79404e-05
6.69082e-05
6.58992e-05
6.49284e-05
6.40125e-05
6.31705e-05
6.24245e-05
6.18001e-05
6.13275e-05
6.10426e-05
6.09895e-05
6.12219e-05
6.18108e-05
6.28472e-05
6.44545e-05
6.68066e-05
7.01598e-05
7.49132e-05
8.17315e-05
9.18252e-05
0.000107687
0.000135477
0.000195773
0.000414441
0.000465724
0.000220315
0.000153041
0.000122367
0.000105125
9.43653e-05
8.72685e-05
8.24605e-05
7.91838e-05
7.6982e-05
7.55604e-05
7.47183e-05
7.43128e-05
7.42387e-05
7.44151e-05
7.47805e-05
7.52847e-05
7.58873e-05
7.6555e-05
7.72602e-05
7.79799e-05
7.86946e-05
7.9388e-05
8.00462e-05
8.06576e-05
8.12124e-05
8.17026e-05
8.21217e-05
8.24642e-05
8.27262e-05
8.29044e-05
8.29968e-05
8.30021e-05
8.29202e-05
8.27504e-05
8.2494e-05
8.21522e-05
8.17273e-05
8.12215e-05
8.06379e-05
7.998e-05
7.92516e-05
7.84572e-05
7.76017e-05
7.66905e-05
7.57295e-05
7.47254e-05
7.36853e-05
7.2617e-05
7.15295e-05
7.04322e-05
6.93358e-05
6.82523e-05
6.71949e-05
6.61786e-05
6.52201e-05
6.43389e-05
6.35572e-05
6.29006e-05
6.23999e-05
6.20913e-05
6.20196e-05
6.22392e-05
6.28219e-05
6.38606e-05
6.54801e-05
6.78572e-05
7.12523e-05
7.60706e-05
8.29873e-05
9.32317e-05
0.000109335
0.000137552
0.000198777
0.000420813
0.000483782
0.000228875
0.000159018
0.000127181
0.000109296
9.81447e-05
9.07962e-05
8.5823e-05
8.2438e-05
8.01668e-05
7.87028e-05
7.78374e-05
7.74218e-05
7.73463e-05
7.75267e-05
7.78988e-05
7.84102e-05
7.90187e-05
7.96897e-05
8.03944e-05
8.11089e-05
8.18131e-05
8.249e-05
8.31256e-05
8.3708e-05
8.42275e-05
8.46762e-05
8.50475e-05
8.53367e-05
8.55398e-05
8.56542e-05
8.56784e-05
8.56119e-05
8.54541e-05
8.52059e-05
8.48688e-05
8.44448e-05
8.39364e-05
8.33466e-05
8.26789e-05
8.19372e-05
8.11259e-05
8.02498e-05
7.93142e-05
7.83247e-05
7.72877e-05
7.62098e-05
7.50985e-05
7.39619e-05
7.28087e-05
7.16488e-05
7.04928e-05
6.93526e-05
6.82416e-05
6.71746e-05
6.61687e-05
6.52432e-05
6.44202e-05
6.37257e-05
6.31903e-05
6.28508e-05
6.27519e-05
6.29488e-05
6.35136e-05
6.454e-05
6.61542e-05
6.85345e-05
7.19438e-05
7.67912e-05
8.37583e-05
9.40857e-05
0.000110328
0.000138797
0.000200577
0.000424632
0.000502161
0.000237588
0.000165104
0.000132085
0.000113548
0.000102
9.43972e-05
8.92584e-05
8.5766e-05
8.34269e-05
8.19228e-05
8.10364e-05
8.06132e-05
8.05386e-05
8.07249e-05
8.11052e-05
8.16244e-05
8.22387e-05
8.29118e-05
8.36138e-05
8.43197e-05
8.50087e-05
8.56634e-05
8.62694e-05
8.68147e-05
8.72897e-05
8.76865e-05
8.79991e-05
8.82229e-05
8.83545e-05
8.8392e-05
8.83345e-05
8.81816e-05
8.7934e-05
8.75931e-05
8.71612e-05
8.66408e-05
8.60351e-05
8.53477e-05
8.45828e-05
8.37447e-05
8.28383e-05
8.18689e-05
8.08421e-05
7.9764e-05
7.86412e-05
7.74805e-05
7.62896e-05
7.50767e-05
7.38507e-05
7.26213e-05
7.13992e-05
7.01964e-05
6.90261e-05
6.79032e-05
6.68444e-05
6.5869e-05
6.49991e-05
6.42605e-05
6.36838e-05
6.33056e-05
6.31709e-05
6.33347e-05
6.3869e-05
6.48682e-05
6.64585e-05
6.8819e-05
7.22134e-05
7.7052e-05
8.40186e-05
9.43575e-05
0.000110631
0.000139167
0.000201108
0.00042576
0.000521101
0.000246568
0.000171376
0.00013714
0.000117932
0.000105976
9.8113e-05
9.28055e-05
8.92045e-05
8.67981e-05
8.52554e-05
8.43505e-05
8.39222e-05
8.38512e-05
8.40461e-05
8.44362e-05
8.49644e-05
8.55845e-05
8.62587e-05
8.69556e-05
8.76492e-05
8.83179e-05
8.89438e-05
8.95122e-05
9.00112e-05
9.0431e-05
9.07642e-05
9.10051e-05
9.11497e-05
9.11953e-05
9.11407e-05
9.09855e-05
9.07303e-05
9.03767e-05
8.99269e-05
8.93839e-05
8.87511e-05
8.80323e-05
8.72321e-05
8.6355e-05
8.54062e-05
8.4391e-05
8.33153e-05
8.2185e-05
8.10067e-05
7.97871e-05
7.85334e-05
7.72534e-05
7.59554e-05
7.46483e-05
7.33418e-05
7.20467e-05
7.07747e-05
6.95389e-05
6.83539e-05
6.72363e-05
6.62052e-05
6.52823e-05
6.4493e-05
6.38679e-05
6.34431e-05
6.32631e-05
6.33832e-05
6.38744e-05
6.48313e-05
6.63795e-05
6.8697e-05
7.20466e-05
7.68374e-05
8.37507e-05
9.40265e-05
0.000110217
0.000138628
0.000200318
0.00042409
0.000540863
0.000255938
0.000177919
0.000142412
0.000122504
0.000110122
0.000101988
9.65058e-05
9.27937e-05
9.03198e-05
8.87401e-05
8.78192e-05
8.73891e-05
8.73252e-05
8.75317e-05
8.79344e-05
8.84733e-05
8.90998e-05
8.97742e-05
9.04637e-05
9.1141e-05
9.17837e-05
9.23734e-05
9.28951e-05
9.33369e-05
9.36893e-05
9.39452e-05
9.40996e-05
9.41491e-05
9.4092e-05
9.39278e-05
9.36569e-05
9.32813e-05
9.28033e-05
9.22262e-05
9.15538e-05
9.07906e-05
8.99412e-05
8.90109e-05
8.80052e-05
8.69297e-05
8.57905e-05
8.4594e-05
8.33465e-05
8.2055e-05
8.07265e-05
7.93685e-05
7.79888e-05
7.65958e-05
7.51986e-05
7.38066e-05
7.24306e-05
7.1082e-05
6.97736e-05
6.85199e-05
6.73371e-05
6.6244e-05
6.52621e-05
6.44165e-05
6.37368e-05
6.32584e-05
6.30252e-05
6.30915e-05
6.35268e-05
6.44246e-05
6.59095e-05
6.81578e-05
7.14299e-05
7.61306e-05
8.29344e-05
9.30685e-05
0.000109059
0.000137142
0.000198153
0.000419502
0.000561726
0.000265827
0.000184823
0.000147972
0.000127322
0.000114489
0.00010607
0.000100404
9.65769e-05
9.40348e-05
9.24196e-05
9.14861e-05
9.10586e-05
9.10064e-05
9.12291e-05
9.16481e-05
9.22004e-05
9.28346e-05
9.35088e-05
9.41885e-05
9.48451e-05
9.54553e-05
9.60002e-05
9.64647e-05
9.68368e-05
9.71076e-05
9.72705e-05
9.73212e-05
9.72574e-05
9.70783e-05
9.67845e-05
9.63778e-05
9.58611e-05
9.5238e-05
9.4513e-05
9.36909e-05
9.27773e-05
9.17778e-05
9.06986e-05
8.9546e-05
8.83265e-05
8.70467e-05
8.57135e-05
8.43338e-05
8.2915e-05
8.14644e-05
7.99896e-05
7.84987e-05
7.70001e-05
7.55026e-05
7.40159e-05
7.25502e-05
7.11171e-05
6.97294e-05
6.84011e-05
6.71475e-05
6.59866e-05
6.49388e-05
6.40282e-05
6.3284e-05
6.2741e-05
6.24422e-05
6.24411e-05
6.28053e-05
6.3627e-05
6.50286e-05
6.7183e-05
7.03458e-05
7.49151e-05
8.15534e-05
9.14665e-05
0.000107135
0.000134686
0.000194577
0.00041192
0.000583977
0.000276371
0.000192179
0.000153891
0.000132447
0.000119132
0.000110407
0.000104547
0.000100599
9.79884e-05
9.63404e-05
9.5399e-05
9.49802e-05
9.4946e-05
9.51909e-05
9.56316e-05
9.62011e-05
9.6845e-05
9.75189e-05
9.81863e-05
9.88171e-05
9.93874e-05
9.98775e-05
0.000100272
0.00010056
0.000100732
0.000100784
0.000100711
0.000100513
0.00010019
9.97438e-05
9.91782e-05
9.84973e-05
9.7706e-05
9.68102e-05
9.58161e-05
9.47302e-05
9.35595e-05
9.23111e-05
9.0992e-05
8.96097e-05
8.81715e-05
8.66848e-05
8.51572e-05
8.35961e-05
8.20093e-05
8.04047e-05
7.87902e-05
7.71744e-05
7.55661e-05
7.39751e-05
7.24115e-05
7.0886e-05
6.94103e-05
6.79976e-05
6.66633e-05
6.54247e-05
6.4302e-05
6.33187e-05
6.25024e-05
6.18869e-05
6.15135e-05
6.14341e-05
6.17147e-05
6.24443e-05
6.37424e-05
6.57775e-05
6.87989e-05
7.31945e-05
7.96105e-05
8.92223e-05
0.000104448
0.000131259
0.000189588
0.000401339
0.000607906
0.000287706
0.000200081
0.000160241
0.00013794
0.000124103
0.000115049
0.000108982
0.000104909
0.000102229
0.000100552
9.96093e-05
9.92075e-05
9.92e-05
9.94752e-05
9.99444e-05
0.000100536
0.000101193
0.000101866
0.000102518
0.000103117
0.000103638
0.000104061
0.000104371
0.000104557
0.000104611
0.000104529
0.00010431
0.000103953
0.00010346
0.000102836
0.000102086
0.000101215
0.00010023
9.91385e-05
9.7948e-05
9.66665e-05
9.53021e-05
9.38628e-05
9.23569e-05
9.07924e-05
8.91775e-05
8.752e-05
8.5828e-05
8.41093e-05
8.2372e-05
8.06239e-05
7.88733e-05
7.71288e-05
7.53992e-05
7.36931e-05
7.20202e-05
7.03912e-05
6.88177e-05
6.73127e-05
6.58905e-05
6.45676e-05
6.33629e-05
6.2299e-05
6.14023e-05
6.0705e-05
6.02467e-05
6.00773e-05
6.02606e-05
6.08816e-05
6.20562e-05
6.39471e-05
6.67952e-05
7.09756e-05
7.7113e-05
8.63443e-05
0.000101007
0.000126872
0.000183204
0.000387795
0.000633804
0.000299969
0.000208619
0.000167094
0.000143859
0.000129456
0.000120046
0.000113757
0.000109552
0.000106805
0.000105106
0.000104172
0.000103798
0.000103828
0.000104144
0.000104651
0.000105271
0.000105943
0.000106616
0.000107248
0.000107807
0.000108266
0.000108607
0.000108813
0.000108875
0.000108787
0.000108546
0.000108152
0.000107608
0.000106917
0.000106086
0.000105122
0.000104032
0.000102826
0.000101512
0.000100099
9.85973e-05
9.70158e-05
9.53638e-05
9.36503e-05
9.18843e-05
9.00743e-05
8.82291e-05
8.63567e-05
8.44656e-05
8.25637e-05
8.06591e-05
7.87603e-05
7.68751e-05
7.5012e-05
7.31798e-05
7.13883e-05
6.96472e-05
6.79677e-05
6.6362e-05
6.48436e-05
6.3428e-05
6.21333e-05
6.09804e-05
5.99946e-05
5.92062e-05
5.86529e-05
5.83821e-05
5.84547e-05
5.89514e-05
5.99832e-05
6.17058e-05
6.43499e-05
6.82751e-05
7.40801e-05
8.28543e-05
9.68378e-05
0.000121559
0.000175471
0.000371386
0.000661944
0.000313286
0.000217881
0.000174516
0.000150261
0.000135239
0.000125444
0.000118918
0.000114579
0.000111769
0.000110056
0.000109144
0.000108812
0.000108895
0.000109265
0.000109818
0.000110474
0.000111163
0.000111833
0.000112439
0.000112946
0.000113328
0.000113565
0.000113643
0.000113555
0.000113296
0.000112864
0.000112263
0.000111498
0.000110576
0.000109504
0.000108294
0.000106954
0.000105496
0.000103931
0.000102269
0.000100522
9.87006e-05
9.68143e-05
9.48733e-05
9.28874e-05
9.08656e-05
8.88169e-05
8.67499e-05
8.46729e-05
8.2594e-05
8.05212e-05
7.84626e-05
7.64261e-05
7.442e-05
7.24529e-05
7.05336e-05
6.86718e-05
6.68778e-05
6.5163e-05
6.35402e-05
6.2024e-05
6.0631e-05
5.93811e-05
5.82976e-05
5.74092e-05
5.6751e-05
5.63677e-05
5.63169e-05
5.66745e-05
5.75454e-05