/*--------------------------------*- C++ -*----------------------------------*\
  =========                 |
  \\      /  F ield         | OpenFOAM: The Open Source CFD Toolbox
   \\    /   O peration     | Website:  https://openfoam.org
    \\  /    A nd           | Version:  12
     \\/     M anipulation  |
\*---------------------------------------------------------------------------*/
FoamFile
{
    format      ascii;
    class       surfaceScalarField;
    location    "2";
    object      phi;
}
// * * * * * * * * * * * * * * * * * * * * * * * * * * * * * * * * * * * * * //

dimensions      [0 3 -1 0 0 0 0];

internalField   nonuniform List<scalar> 
11100
(
-2.86276e-11
2.87634e-11
-6.79899e-11
3.9374e-11
-9.12791e-11
2.32793e-11
-8.33131e-11
-7.9633e-12
-3.64289e-11
-4.68916e-11
5.30117e-11
-8.94399e-11
1.85655e-10
-1.32646e-10
3.60296e-10
-1.7464e-10
5.74487e-10
-2.14193e-10
8.25039e-10
-2.50551e-10
1.10829e-09
-2.83246e-10
1.42031e-09
-3.12027e-10
1.75708e-09
-3.36763e-10
2.11451e-09
-3.57432e-10
2.48858e-09
-3.74063e-10
2.87532e-09
-3.8674e-10
3.27089e-09
-3.95568e-10
3.67157e-09
-4.00684e-10
4.07381e-09
-4.02234e-10
4.47419e-09
-4.00383e-10
4.8695e-09
-3.95298e-10
5.25666e-09
-3.87158e-10
5.6328e-09
-3.76143e-10
5.99524e-09
-3.62441e-10
6.34149e-09
-3.46237e-10
6.66921e-09
-3.27724e-10
6.9763e-09
-3.07088e-10
7.26082e-09
-2.84524e-10
7.52105e-09
-2.60219e-10
7.75541e-09
-2.34366e-10
7.96257e-09
-2.07151e-10
8.14133e-09
-1.78763e-10
8.29072e-09
-1.49387e-10
8.40992e-09
-1.19208e-10
8.49834e-09
-8.84065e-11
8.5555e-09
-5.71651e-11
8.58116e-09
-2.56605e-11
8.57523e-09
5.92951e-12
8.53781e-09
3.74313e-11
8.46913e-09
6.86715e-11
8.36966e-09
9.94793e-11
8.23998e-09
1.29683e-10
8.08087e-09
1.59116e-10
7.89326e-09
1.87608e-10
7.67827e-09
2.14994e-10
7.43716e-09
2.41106e-10
7.17139e-09
2.65779e-10
6.88255e-09
2.88846e-10
6.57241e-09
3.10142e-10
6.24291e-09
3.29499e-10
5.89617e-09
3.46753e-10
5.53443e-09
3.61734e-10
5.16016e-09
3.74278e-10
4.77595e-09
3.84216e-10
4.38457e-09
3.91383e-10
3.98897e-09
3.95611e-10
3.59223e-09
3.96738e-10
3.19763e-09
3.94604e-10
2.80859e-09
3.89053e-10
2.42865e-09
3.79938e-10
2.06154e-09
3.67127e-10
1.71104e-09
3.50504e-10
1.38106e-09
3.29983e-10
1.07555e-09
3.05518e-10
7.98438e-10
2.77125e-10
5.53534e-10
2.44912e-10
3.44426e-10
2.0912e-10
1.74243e-10
1.70194e-10
4.53791e-11
1.28876e-10
-4.09694e-11
8.63627e-11
-8.54772e-11
4.45207e-11
-9.17607e-11
6.29975e-12
-6.75611e-11
-2.41829e-11
-2.80411e-11
-3.95037e-11
-2.80384e-11
-8.83125e-12
3.76001e-11
6.47124e-12
2.40842e-11
7.77888e-11
-4.80389e-11
2.25621e-10
-1.5579e-10
4.62568e-10
-2.83841e-10
7.94746e-10
-4.21615e-10
1.22365e-09
-5.6155e-10
1.74733e-09
-6.98317e-10
2.3613e-09
-8.28163e-10
3.05927e-09
-9.48522e-10
3.83367e-09
-1.05765e-09
4.67606e-09
-1.15442e-09
5.57745e-09
-1.23815e-09
6.52851e-09
-1.30849e-09
7.51978e-09
-1.36534e-09
8.54182e-09
-1.40877e-09
9.58526e-09
-1.43901e-09
1.0641e-08
-1.45637e-09
1.17e-08
-1.46128e-09
1.27538e-08
-1.4542e-09
1.37942e-08
-1.43566e-09
1.48133e-08
-1.40623e-09
1.58036e-08
-1.3665e-09
1.67583e-08
-1.31709e-09
1.76707e-08
-1.25865e-09
1.85348e-08
-1.19182e-09
1.9345e-08
-1.11728e-09
2.00962e-08
-1.0357e-09
2.07837e-08
-9.47737e-10
2.14034e-08
-8.54087e-10
2.19517e-08
-7.55422e-10
2.24253e-08
-6.52419e-10
2.28217e-08
-5.45752e-10
2.31386e-08
-4.36091e-10
2.33743e-08
-3.24102e-10
2.35276e-08
-2.10445e-10
2.35977e-08
-9.57764e-11
2.35844e-08
1.9254e-11
2.34878e-08
1.34002e-10
2.33086e-08
2.47829e-10
2.3048e-08
3.601e-10
2.27075e-08
4.70186e-10
2.22892e-08
5.77462e-10
2.17955e-08
6.81309e-10
2.12294e-08
7.8111e-10
2.05942e-08
8.76252e-10
1.98939e-08
9.66126e-10
1.91326e-08
1.05012e-09
1.83151e-08
1.12764e-09
1.74465e-08
1.19809e-09
1.65324e-08
1.26086e-09
1.55788e-08
1.31536e-09
1.4592e-08
1.36103e-09
1.3579e-08
1.39727e-09
1.25469e-08
1.42353e-09
1.15032e-08
1.43927e-09
1.0456e-08
1.44395e-09
9.4135e-09
1.4371e-09
8.38432e-09
1.41824e-09
7.37727e-09
1.387e-09
6.40137e-09
1.34303e-09
5.46578e-09
1.2861e-09
4.57965e-09
1.21612e-09
3.75201e-09
1.13316e-09
2.99162e-09
1.03753e-09
2.30668e-09
9.2986e-10
1.70458e-09
8.11229e-10
1.19147e-09
6.83322e-10
7.71693e-10
5.48661e-10
4.47135e-10
4.10932e-10
2.1624e-10
2.75428e-10
7.29049e-11
1.49646e-10
4.56163e-12
4.41784e-11
-9.23997e-12
-2.56861e-11
-3.72757e-11
3.24365e-11
5.16775e-12
1.52498e-10
-9.59687e-11
3.79866e-10
-2.75406e-10
7.28476e-10
-5.04394e-10
1.207e-09
-7.62367e-10
1.81936e-09
-1.03397e-09
2.5654e-09
-1.30758e-09
3.44154e-09
-1.57446e-09
4.44149e-09
-1.82811e-09
5.55677e-09
-2.0638e-09
6.77723e-09
-2.27811e-09
8.0915e-09
-2.46868e-09
9.48731e-09
-2.63396e-09
1.09518e-08
-2.77301e-09
1.24719e-08
-2.88539e-09
1.40342e-08
-2.97104e-09
1.56254e-08
-3.03022e-09
1.72324e-08
-3.0634e-09
1.88424e-08
-3.07128e-09
2.04429e-08
-3.05471e-09
2.20219e-08
-3.01465e-09
2.35679e-08
-2.95218e-09
2.50698e-08
-2.86846e-09
2.65174e-08
-2.7647e-09
2.7901e-08
-2.64217e-09
2.92113e-08
-2.50219e-09
3.04402e-08
-2.3461e-09
3.15797e-08
-2.17528e-09
3.26231e-08
-1.9911e-09
3.3564e-08
-1.79496e-09
3.43968e-08
-1.58827e-09
3.51168e-08
-1.37242e-09
3.57199e-08
-1.14881e-09
3.62026e-08
-9.18859e-10
3.65625e-08
-6.83946e-10
3.67975e-08
-4.4546e-10
3.69065e-08
-2.04779e-10
3.6889e-08
3.67285e-11
3.67453e-08
2.77704e-10
3.64764e-08
5.168e-10
3.60838e-08
7.52676e-10
3.557e-08
9.84006e-10
3.4938e-08
1.20947e-09
3.41915e-08
1.42776e-09
3.33351e-08
1.63757e-09
3.23737e-08
1.83762e-09
3.13132e-08
2.02663e-09
3.016e-08
2.20333e-09
2.89212e-08
2.36647e-09
2.76045e-08
2.51479e-09
2.62182e-08
2.64709e-09
2.47715e-08
2.76214e-09
2.32737e-08
2.85878e-09
2.17351e-08
2.93585e-09
2.01664e-08
2.99225e-09
1.85788e-08
3.02691e-09
1.69839e-08
3.03886e-09
1.53938e-08
3.02718e-09
1.3821e-08
2.99106e-09
1.22781e-08
2.92985e-09
1.07781e-08
2.84305e-09
9.33384e-09
2.7304e-09
7.95808e-09
2.5919e-09
6.66331e-09
2.42794e-09
5.46145e-09
2.2394e-09
4.36359e-09
2.02773e-09
3.37963e-09
1.7952e-09
2.51784e-09
1.54513e-09
1.78437e-09
1.28214e-09
1.18268e-09
1.01263e-09
7.12881e-10
7.45238e-10
3.71036e-10
4.91509e-10
1.48459e-10
2.6677e-10
3.1244e-11
9.15444e-11
-6.02894e-12
7.64887e-11
-7.13195e-11
3.11431e-10
-3.30906e-10
7.1047e-10
-6.74445e-10
1.27778e-09
-1.0717e-09
2.01493e-09
-1.49951e-09
2.92062e-09
-1.93966e-09
3.99072e-09
-2.37769e-09
5.21849e-09
-2.80223e-09
6.59486e-09
-3.20449e-09
8.10881e-09
-3.57774e-09
9.74768e-09
-3.91698e-09
1.14976e-08
-4.21856e-09
1.33435e-08
-4.47995e-09
1.52701e-08
-4.69956e-09
1.72612e-08
-4.87649e-09
1.93006e-08
-5.0105e-09
2.13722e-08
-5.10179e-09
2.34598e-08
-5.151e-09
2.55477e-08
-5.15911e-09
2.76203e-08
-5.12733e-09
2.96628e-08
-5.05715e-09
3.16608e-08
-4.95022e-09
3.36007e-08
-4.80833e-09
3.54694e-08
-4.63342e-09
3.72548e-08
-4.42752e-09
3.89453e-08
-4.19274e-09
4.05305e-08
-3.93125e-09
4.20005e-08
-3.64528e-09
4.33465e-08
-3.33709e-09
4.45605e-08
-3.00896e-09
4.56354e-08
-2.6632e-09
4.65651e-08
-2.30213e-09
4.73444e-08
-1.92807e-09
4.79689e-08
-1.54334e-09
4.84352e-08
-1.15025e-09
4.87408e-08
-7.51118e-10
4.88843e-08
-3.48231e-10
4.88649e-08
5.61227e-11
4.86829e-08
4.59673e-10
4.83396e-08
8.60163e-10
4.78369e-08
1.25535e-09
4.71779e-08
1.64302e-09
4.63664e-08
2.02096e-09
4.54072e-08
2.38698e-09
4.43058e-08
2.73891e-09
4.30689e-08
3.0746e-09
4.17036e-08
3.39192e-09
4.02181e-08
3.68877e-09
3.86216e-08
3.96306e-09
3.69236e-08
4.21275e-09
3.51349e-08
4.43583e-09
3.32667e-08
4.63033e-09
3.13311e-08
4.79435e-09
2.93409e-08
4.92605e-09
2.73095e-08
5.02366e-09
2.52509e-08
5.08554e-09
2.31796e-08
5.11015e-09
2.11107e-08
5.09613e-09
1.90594e-08
5.04231e-09
1.70415e-08
4.94776e-09
1.50727e-08
4.81186e-09
1.31688e-08
4.63435e-09
1.13452e-08
4.41545e-09
9.61724e-09
4.15594e-09
7.99932e-09
3.85733e-09
6.50505e-09
3.52201e-09
5.14679e-09
3.15347e-09
3.93534e-09
2.75658e-09
2.8796e-09
2.3379e-09
1.98619e-09
1.90605e-09
1.25917e-09
1.47228e-09
6.99789e-10
1.05089e-09
3.06501e-10
6.60078e-10
7.51434e-11
3.22918e-10
6.91175e-11
1.17905e-10
-1.89224e-10
4.63853e-10
-6.76852e-10
1.03186e-09
-1.24245e-09
1.81641e-09
-1.85625e-09
2.8112e-09
-2.4943e-09
4.00856e-09
-3.13702e-09
5.39919e-09
-3.76831e-09
6.97204e-09
-4.37509e-09
8.71444e-09
-4.94688e-09
1.06122e-08
-5.47547e-09
1.26497e-08
-5.95453e-09
1.48105e-08
-6.37935e-09
1.70771e-08
-6.74655e-09
1.94315e-08
-7.05391e-09
2.18551e-08
-7.30016e-09
2.43295e-08
-7.48485e-09
2.68359e-08
-7.6082e-09
2.93559e-08
-7.67099e-09
3.18713e-08
-7.67449e-09
3.43643e-08
-7.62038e-09
3.68178e-08
-7.51066e-09
3.92152e-08
-7.34762e-09
4.15407e-08
-7.13381e-09
4.37792e-08
-6.87193e-09
4.59166e-08
-6.56487e-09
4.79395e-08
-6.21565e-09
4.98356e-08
-5.82737e-09
5.15936e-08
-5.40326e-09
5.3203e-08
-4.94656e-09
5.46547e-08
-4.4606e-09
5.59402e-08
-3.94872e-09
5.70523e-08
-3.4143e-09
5.7985e-08
-2.86072e-09
5.8733e-08
-2.29137e-09
5.92924e-08
-1.70965e-09
5.96602e-08
-1.11894e-09
5.98346e-08
-5.2261e-10
5.98148e-08
7.59827e-11
5.96009e-08
6.73498e-10
5.91945e-08
1.26661e-09
5.85978e-08
1.85203e-09
5.78144e-08
2.42648e-09
5.68486e-08
2.9867e-09
5.57061e-08
3.52948e-09
5.43934e-08
4.05163e-09
5.2918e-08
4.54997e-09
5.12886e-08
5.02138e-09
4.95145e-08
5.4628e-09
4.76065e-08
5.87116e-09
4.55757e-08
6.2435e-09
4.34346e-08
6.5769e-09
4.11964e-08
6.86853e-09
3.88751e-08
7.11564e-09
3.64856e-08
7.3156e-09
3.40433e-08
7.46592e-09
3.15646e-08
7.56429e-09
2.90662e-08
7.60858e-09
2.65654e-08
7.59693e-09
2.40799e-08
7.52775e-09
2.16279e-08
7.39984e-09
1.92273e-08
7.21242e-09
1.68964e-08
6.96524e-09
1.46532e-08
6.6587e-09
1.25152e-08
6.29395e-09
1.04994e-08
5.87307e-09
8.6222e-09
5.39926e-09
6.89865e-09
4.87704e-09
5.34273e-09
4.31251e-09
3.96696e-09
3.71368e-09
2.78223e-09
3.0908e-09
1.79779e-09
2.45673e-09
1.0213e-09
1.82741e-09
4.59059e-10
1.22233e-09
1.16648e-10
6.65347e-10
1.85768e-10
1.55425e-10
-3.44649e-10
6.04533e-10
-1.12596e-09
1.33221e-09
-1.97013e-09
2.32456e-09
-2.8486e-09
3.56785e-09
-3.73759e-09
5.04795e-09
-4.61712e-09
6.74995e-09
-5.47031e-09
8.658e-09
-6.28313e-09
1.07552e-08
-7.04409e-09
1.30237e-08
-7.74397e-09
1.54447e-08
-8.37554e-09
1.79987e-08
-8.93332e-09
2.06655e-08
-9.41335e-09
2.34246e-08
-9.81298e-09
2.62551e-08
-1.01307e-08
2.91362e-08
-1.03659e-08
3.2047e-08
-1.0519e-08
3.4967e-08
-1.0591e-08
3.7876e-08
-1.05835e-08
4.07543e-08
-1.04987e-08
4.35829e-08
-1.03392e-08
4.63433e-08
-1.0108e-08
4.9018e-08
-9.80853e-09
5.15903e-08
-9.44428e-09
5.40446e-08
-9.01909e-09
5.63659e-08
-8.53699e-09
5.85407e-08
-8.00212e-09
6.05562e-08
-7.41877e-09
6.24009e-08
-6.7913e-09
6.40645e-08
-6.12417e-09
6.55376e-08
-5.42187e-09
6.68123e-08
-4.68896e-09
6.78816e-08
-3.92998e-09
6.87397e-08
-3.14954e-09
6.93823e-08
-2.35219e-09
6.98059e-08
-1.54254e-09
7.00084e-08
-7.25143e-10
6.99889e-08
9.54454e-11
6.97478e-08
9.14691e-10
6.92863e-08
1.72809e-09
6.86072e-08
2.53115e-09
6.77142e-08
3.31943e-09
6.66124e-08
4.08851e-09
6.53079e-08
4.83402e-09
6.38079e-08
5.55161e-09
6.21209e-08
6.237e-09
6.02563e-08
6.88595e-09
5.82248e-08
7.49428e-09
5.60381e-08
8.0579e-09
5.37088e-08
8.57278e-09
5.12507e-08
9.035e-09
4.86785e-08
9.44076e-09
4.60078e-08
9.78638e-09
4.3255e-08
1.00684e-08
4.04375e-08
1.02834e-08
3.75733e-08
1.04285e-08
3.46811e-08
1.05008e-08
3.17802e-08
1.04979e-08
2.88903e-08
1.04177e-08
2.60315e-08
1.02586e-08
2.32241e-08
1.00198e-08
2.04886e-08
9.70079e-09
1.78452e-08
9.3021e-09
1.5314e-08
8.82509e-09
1.29149e-08
8.27225e-09
1.06668e-08
7.64733e-09
8.5883e-09
6.95555e-09
6.69695e-09
6.20387e-09
5.00945e-09
5.40119e-09
3.54152e-09
4.55873e-09
2.30802e-09
3.69024e-09
1.32309e-09
2.81234e-09
6.00562e-10
1.94488e-09
1.54455e-10
1.11147e-09
3.40226e-10
1.89502e-10
-5.34151e-10
7.33995e-10
-1.67045e-09
1.61126e-09
-2.8474e-09
2.80038e-09
-4.03771e-09
4.28099e-09
-5.2182e-09
6.03285e-09
-6.36898e-09
8.03554e-09
-7.47299e-09
1.02682e-08
-8.51579e-09
1.27095e-08
-9.48537e-09
1.53375e-08
-1.0372e-08
1.813e-08
-1.1168e-08
2.10641e-08
-1.18674e-08
2.41167e-08
-1.2466e-08
2.72648e-08
-1.2961e-08
3.04849e-08
-1.33508e-08
3.3754e-08
-1.3635e-08
3.70491e-08
-1.38141e-08
4.03477e-08
-1.38896e-08
4.36278e-08
-1.38635e-08
4.68678e-08
-1.37387e-08
5.00472e-08
-1.35186e-08
5.3146e-08
-1.32068e-08
5.61451e-08
-1.28077e-08
5.90266e-08
-1.23258e-08
6.17734e-08
-1.17659e-08
6.43696e-08
-1.11332e-08
6.68003e-08
-1.04328e-08
6.90519e-08
-9.67036e-09
7.11119e-08
-8.85131e-09
7.29691e-08
-7.98136e-09
7.46134e-08
-7.06624e-09
7.60362e-08
-6.11176e-09
7.723e-08
-5.12374e-09
7.81885e-08
-4.10806e-09
7.89069e-08
-3.07058e-09
7.93815e-08
-2.01716e-09
7.961e-08
-9.53664e-10
7.95914e-08
1.14061e-10
7.93259e-08
1.1802e-09
7.88151e-08
2.23895e-09
7.80616e-08
3.28457e-09
7.70697e-08
4.31132e-09
7.58447e-08
5.31353e-09
7.43932e-08
6.28557e-09
7.27229e-08
7.22186e-09
7.0843e-08
8.11689e-09
6.87638e-08
8.96522e-09
6.64966e-08
9.76148e-09
6.40541e-08
1.05004e-08
6.145e-08
1.11769e-08
5.86992e-08
1.17858e-08
5.58176e-08
1.23224e-08
5.2822e-08
1.27819e-08
4.97305e-08
1.31599e-08
4.65617e-08
1.34522e-08
4.33352e-08
1.3655e-08
4.00715e-08
1.37645e-08
3.67915e-08
1.37778e-08
3.35169e-08
1.36923e-08
3.02697e-08
1.35058e-08
2.70724e-08
1.32171e-08
2.39475e-08
1.28256e-08
2.09179e-08
1.23317e-08
1.80064e-08
1.17367e-08
1.52354e-08
1.10432e-08
1.26274e-08
1.02553e-08
1.02044e-08
9.37861e-09
7.98785e-09
8.4204e-09
5.99898e-09
7.39007e-09
4.25848e-09
6.29924e-09
2.78676e-09
5.16197e-09
1.60414e-09
3.99499e-09
7.3111e-10
2.81792e-09
1.88884e-10
1.65371e-09
5.29112e-10
2.21019e-10
-7.55169e-10
8.54755e-10
-2.30419e-09
1.87325e-09
-3.86589e-09
3.24961e-09
-5.41407e-09
4.95762e-09
-6.9262e-09
6.97138e-09
-8.38274e-09
9.26513e-09
-9.76674e-09
1.18131e-08
-1.10637e-08
1.45894e-08
-1.22617e-08
1.75679e-08
-1.33506e-08
2.07227e-08
-1.43228e-08
2.40275e-08
-1.51722e-08
2.74561e-08
-1.58946e-08
3.09824e-08
-1.64874e-08
3.45808e-08
-1.69492e-08
3.82256e-08
-1.72798e-08
4.18918e-08
-1.74804e-08
4.55549e-08
-1.75527e-08
4.91912e-08
-1.74998e-08
5.27775e-08
-1.7325e-08
5.62916e-08
-1.70327e-08
5.97122e-08
-1.66274e-08
6.3019e-08
-1.61145e-08
6.61929e-08
-1.54996e-08
6.92156e-08
-1.47886e-08
7.20703e-08
-1.39879e-08
7.47412e-08
-1.31038e-08
7.72139e-08
-1.2143e-08
7.94752e-08
-1.11125e-08
8.1513e-08
-1.00192e-08
8.3317e-08
-8.87016e-09
8.48777e-08
-7.67246e-09
8.61872e-08
-6.43331e-09
8.72391e-08
-5.15991e-09
8.8028e-08
-3.8595e-09
8.85501e-08
-2.5393e-09
8.8803e-08
-1.20653e-09
8.87855e-08
1.31617e-10
8.84977e-08
1.46795e-09
8.79413e-08
2.79532e-09
8.71193e-08
4.10662e-09
8.60358e-08
5.39478e-09
8.46966e-08
6.65279e-09
8.31085e-08
7.87368e-09
8.12798e-08
9.05056e-09
7.922e-08
1.01766e-08
7.69401e-08
1.12451e-08
7.44522e-08
1.22494e-08
7.17695e-08
1.31831e-08
6.89068e-08
1.40396e-08
6.58797e-08
1.48129e-08
6.27052e-08
1.54969e-08
5.94014e-08
1.60858e-08
5.59872e-08
1.65741e-08
5.24829e-08
1.69566e-08
4.89094e-08
1.72285e-08
4.52886e-08
1.73853e-08
4.16433e-08
1.74232e-08
3.79968e-08
1.73387e-08
3.43733e-08
1.71294e-08
3.07972e-08
1.67933e-08
2.72935e-08
1.63293e-08
2.38876e-08
1.57376e-08
2.0605e-08
1.50193e-08
1.74714e-08
1.41768e-08
1.45125e-08
1.32142e-08
1.17541e-08
1.2137e-08
9.22186e-09
1.09527e-08
6.94139e-09
9.67055e-09
4.93836e-09
8.30228e-09
3.23852e-09
6.86183e-09
1.86784e-09
5.36567e-09
8.52824e-10
3.83296e-09
2.20712e-10
2.28584e-09
7.49827e-10
2.50908e-10
-1.00608e-09
9.69813e-10
-3.02309e-09
2.12379e-09
-5.01987e-09
3.68067e-09
-6.97096e-09
5.60888e-09
-8.85441e-09
7.87725e-09
-1.06511e-08
1.04549e-08
-1.23444e-08
1.33113e-08
-1.39201e-08
1.64159e-08
-1.53663e-08
1.97386e-08
-1.66732e-08
2.32492e-08
-1.78334e-08
2.69182e-08
-1.88411e-08
3.0716e-08
-1.96924e-08
3.46136e-08
-2.03851e-08
3.85827e-08
-2.09182e-08
4.25952e-08
-2.12923e-08
4.66239e-08
-2.15091e-08
5.06424e-08
-2.15713e-08
5.46251e-08
-2.14825e-08
5.85473e-08
-2.12472e-08
6.23854e-08
-2.08707e-08
6.61167e-08
-2.03588e-08
6.97198e-08
-1.97177e-08
7.31745e-08
-1.89543e-08
7.64617e-08
-1.80758e-08
7.95636e-08
-1.70898e-08
8.24638e-08
-1.60039e-08
8.5147e-08
-1.48263e-08
8.75995e-08
-1.35651e-08
8.98089e-08
-1.22286e-08
9.17641e-08
-1.08253e-08
9.34554e-08
-9.36375e-09
9.48745e-08
-7.85245e-09
9.60146e-08
-6.30005e-09
9.68703e-08
-4.71517e-09
9.74375e-08
-3.10646e-09
9.77135e-08
-1.48255e-09
9.76972e-08
1.47951e-10
9.73887e-08
1.77645e-09
9.67896e-08
3.39438e-09
9.5903e-08
4.99324e-09
9.47332e-08
6.56455e-09
9.32861e-08
8.0999e-09
9.15688e-08
9.59094e-09
8.959e-08
1.10294e-08
8.73596e-08
1.24071e-08
8.48888e-08
1.37159e-08
8.21904e-08
1.49478e-08
7.92784e-08
1.60951e-08
7.61679e-08
1.71501e-08
7.28756e-08
1.81052e-08
6.94193e-08
1.89532e-08
6.5818e-08
1.96871e-08
6.20918e-08
2.03002e-08
5.82622e-08
2.07863e-08
5.43514e-08
2.11393e-08
5.03828e-08
2.13538e-08
4.63809e-08
2.14251e-08
4.23708e-08
2.13488e-08
3.83786e-08
2.11216e-08
3.4431e-08
2.07409e-08
3.05554e-08
2.02049e-08
2.67798e-08
1.95131e-08
2.31328e-08
1.86663e-08
1.96431e-08
1.76665e-08
1.63402e-08
1.65172e-08
1.32534e-08
1.52238e-08
1.04128e-08
1.37933e-08
7.84841e-09
1.22349e-08
5.59073e-09
1.056e-08
3.67054e-09
8.78203e-09
2.11913e-09
6.91711e-09
9.68331e-10
4.98377e-09
2.50761e-10
3.00343e-09
1.00059e-09
2.80021e-10
-1.2861e-09
1.08203e-09
-3.82509e-09
2.36844e-09
-6.30628e-09
4.10215e-09
-8.70467e-09
6.24652e-09
-1.09988e-08
8.7653e-09
-1.31699e-08
1.16227e-08
-1.52018e-08
1.47833e-08
-1.70807e-08
1.82122e-08
-1.87952e-08
2.18749e-08
-2.0336e-08
2.57375e-08
-2.1696e-08
2.97665e-08
-2.28701e-08
3.39292e-08
-2.38551e-08
3.81935e-08
-2.46494e-08
4.25283e-08
-2.5253e-08
4.69031e-08
-2.56671e-08
5.12884e-08
-2.58945e-08
5.5656e-08
-2.59388e-08
5.99783e-08
-2.58048e-08
6.42291e-08
-2.54981e-08
6.83835e-08
-2.50251e-08
7.24175e-08
-2.43928e-08
7.63088e-08
-2.36089e-08
8.00359e-08
-2.26814e-08
8.35791e-08
-2.1619e-08
8.69199e-08
-2.04306e-08
9.00412e-08
-1.91252e-08
9.29272e-08
-1.77123e-08
9.55637e-08
-1.62016e-08
9.79378e-08
-1.46027e-08
1.00038e-07
-1.29256e-08
1.01855e-07
-1.11802e-08
1.03379e-07
-9.37663e-09
1.04604e-07
-7.52482e-09
1.05523e-07
-5.6349e-09
1.06134e-07
-3.71694e-09
1.06432e-07
-1.78104e-09
1.06417e-07
1.62744e-10
1.0609e-07
2.10438e-09
1.0545e-07
4.03385e-09
1.04502e-07
5.94121e-09
1.0325e-07
7.81653e-09
1.017e-07
9.64996e-09
9.98593e-08
1.14317e-08
9.77366e-08
1.31521e-08
9.53423e-08
1.48014e-08
9.26879e-08
1.63702e-08
8.97866e-08
1.78491e-08
8.66528e-08
1.92289e-08
8.33025e-08
2.05004e-08
7.97528e-08
2.16549e-08
7.60223e-08
2.26837e-08
7.21309e-08
2.35785e-08
6.80999e-08
2.43312e-08
6.39517e-08
2.49345e-08
5.971e-08
2.5381e-08
5.53997e-08
2.56642e-08
5.10466e-08
2.57781e-08
4.6678e-08
2.57175e-08
4.23218e-08
2.54778e-08
3.80072e-08
2.50556e-08
3.37639e-08
2.44482e-08
2.96228e-08
2.36542e-08
2.56154e-08
2.26737e-08
2.17739e-08
2.1508e-08
1.81312e-08
2.016e-08
1.47207e-08
1.86343e-08
1.15766e-08
1.69375e-08
8.7333e-09
1.50782e-08
6.22605e-09
1.30672e-08
4.09052e-09
1.09176e-08
2.36293e-09
8.64469e-09
1.08019e-09
6.26654e-09
2.79796e-10
3.80383e-09
1.28039e-09
3.0907e-10
-1.59517e-09
1.19386e-09
-4.70988e-09
2.61209e-09
-7.72452e-09
4.52175e-09
-1.06143e-08
6.88114e-09
-1.33582e-08
9.64902e-09
-1.59378e-08
1.27847e-08
-1.83375e-08
1.62479e-08
-2.0544e-08
1.99993e-08
-2.25466e-08
2.40001e-08
-2.43367e-08
2.82123e-08
-2.59081e-08
3.25988e-08
-2.72566e-08
3.71235e-08
-2.83798e-08
4.17512e-08
-2.92771e-08
4.64479e-08
-2.99497e-08
5.11808e-08
-3.04e-08
5.59181e-08
-3.06318e-08
6.06294e-08
-3.06501e-08
6.52857e-08
-3.0461e-08
6.98591e-08
-3.00715e-08
7.43233e-08
-2.94893e-08
7.86534e-08
-2.87228e-08
8.28257e-08
-2.77812e-08
8.68183e-08
-2.6674e-08
9.06105e-08
-2.54113e-08
9.41833e-08
-2.40033e-08
9.75189e-08
-2.24608e-08
1.00601e-07
-2.07946e-08
1.03416e-07
-1.9016e-08
1.05949e-07
-1.7136e-08
1.08189e-07
-1.51661e-08
1.10127e-07
-1.31177e-08
1.11753e-07
-1.10024e-08
1.13059e-07
-8.83153e-09
1.14041e-07
-6.6168e-09
1.14694e-07
-4.36973e-09
1.15015e-07
-2.10186e-09
1.15002e-07
1.75269e-10
1.14657e-07
2.45016e-09
1.13979e-07
4.71133e-09
1.12973e-07
6.94735e-09
1.11643e-07
9.14683e-09
1.09994e-07
1.12984e-08
1.08035e-07
1.33909e-08
1.05774e-07
1.54131e-08
1.03222e-07
1.73538e-08
1.0039e-07
1.9202e-08
9.7292e-08
2.0947e-08
9.3943e-08
2.25779e-08
9.03592e-08
2.40843e-08
8.65584e-08
2.54557e-08
8.25598e-08
2.66822e-08
7.83843e-08
2.7754e-08
7.40539e-08
2.86616e-08
6.95923e-08
2.93961e-08
6.50243e-08
2.99489e-08
6.03764e-08
3.03121e-08
5.5676e-08
3.04785e-08
5.09522e-08
3.04413e-08
4.62351e-08
3.01949e-08
4.15561e-08
2.97346e-08
3.69475e-08
2.90567e-08
3.24431e-08
2.81587e-08
2.80775e-08
2.70394e-08
2.38862e-08
2.56993e-08
1.99059e-08
2.41403e-08
1.61739e-08
2.23663e-08
1.27284e-08
2.03829e-08
9.6086e-09
1.81981e-08
6.85413e-09
1.58217e-08
4.50546e-09
1.32662e-08
2.60373e-09
1.05464e-08
1.19063e-09
7.67965e-09
3.08459e-10
4.68601e-09
1.58885e-09
3.38621e-10
-1.93379e-09
1.30726e-09
-5.67852e-09
2.85865e-09
-9.2759e-09
4.9456e-09
-1.27013e-08
7.52123e-09
-1.59338e-08
1.05392e-08
-1.89557e-08
1.39537e-08
-2.1752e-08
1.77198e-08
-2.43101e-08
2.17934e-08
-2.66202e-08
2.61315e-08
-2.86748e-08
3.06919e-08
-3.04686e-08
3.54339e-08
-3.19986e-08
4.0318e-08
-3.32638e-08
4.53058e-08
-3.4265e-08
5.03607e-08
-3.50045e-08
5.54471e-08
-3.54864e-08
6.05312e-08
-3.57159e-08
6.55807e-08
-3.56996e-08
7.05647e-08
-3.54451e-08
7.54542e-08
-3.49609e-08
8.02213e-08
-3.42564e-08
8.48402e-08
-3.33417e-08
8.92864e-08
-3.22274e-08
9.35371e-08
-3.09248e-08
9.75712e-08
-2.94453e-08
1.01369e-07
-2.7801e-08
1.04912e-07
-2.60041e-08
1.08185e-07
-2.4067e-08
1.11171e-07
-2.20025e-08
1.13858e-07
-1.98233e-08
1.16235e-07
-1.75423e-08
1.18289e-07
-1.51724e-08
1.20014e-07
-1.27267e-08
1.214e-07
-1.02181e-08
1.22443e-07
-7.65967e-09
1.23138e-07
-5.06449e-09
1.23482e-07
-2.44557e-09
1.23473e-07
1.84097e-10
1.23111e-07
2.81152e-09
1.22399e-07
5.42374e-09
1.21338e-07
8.00786e-09
1.19934e-07
1.0551e-08
1.18192e-07
1.30403e-08
1.1612e-07
1.54629e-08
1.13727e-07
1.78063e-08
1.11023e-07
2.00577e-08
1.08021e-07
2.22046e-08
1.04733e-07
2.42346e-08
1.01175e-07
2.61354e-08
9.73647e-08
2.78949e-08
9.33192e-08
2.95012e-08
8.90588e-08
3.09427e-08
8.46049e-08
3.22079e-08
7.99806e-08
3.3286e-08
7.52104e-08
3.41662e-08
7.03207e-08
3.48387e-08
6.53391e-08
3.52938e-08
6.02948e-08
3.55227e-08
5.52187e-08
3.55174e-08
5.0143e-08
3.52706e-08
4.51015e-08
3.47762e-08
4.01291e-08
3.4029e-08
3.52625e-08
3.30253e-08
3.05394e-08
3.17625e-08
2.59989e-08
3.02398e-08
2.16813e-08
2.8458e-08
1.76279e-08
2.64197e-08
1.38813e-08
2.41295e-08
1.0485e-08
2.15945e-08
7.48319e-09
1.88235e-08
4.92127e-09
1.58282e-08
2.84516e-09
1.26226e-08
1.30147e-09
9.22335e-09
3.37276e-10
5.65022e-09
1.92613e-09
3.69089e-10
-2.30287e-09
1.42366e-09
-6.7331e-09
3.1109e-09
-1.09631e-08
5.37802e-09
-1.49684e-08
8.17264e-09
-1.87284e-08
1.1443e-08
-2.22261e-08
1.51381e-08
-2.54471e-08
1.92081e-08
-2.83801e-08
2.36041e-08
-3.10162e-08
2.82786e-08
-3.33493e-08
3.31856e-08
-3.53756e-08
3.82804e-08
-3.70935e-08
4.35201e-08
-3.85036e-08
4.88635e-08
-3.96083e-08
5.42708e-08
-4.04119e-08
5.97044e-08
-4.092e-08
6.51283e-08
-4.11397e-08
7.05081e-08
-4.10795e-08
7.58117e-08
-4.07487e-08
8.10084e-08
-4.01576e-08
8.60695e-08
-3.93176e-08
9.09681e-08
-3.82403e-08
9.56791e-08
-3.69384e-08
1.00179e-07
-3.54246e-08
1.04446e-07
-3.37123e-08
1.0846e-07
-3.18152e-08
1.12203e-07
-2.97471e-08
1.15658e-07
-2.75222e-08
1.18811e-07
-2.51547e-08
1.21646e-07
-2.2659e-08
1.24153e-07
-2.00494e-08
1.26321e-07
-1.73405e-08
1.28142e-07
-1.45468e-08
1.29606e-07
-1.16827e-08
1.30709e-07
-8.76282e-09
1.31447e-07
-5.80163e-09
1.31815e-07
-2.81362e-09
1.31812e-07
1.8673e-10
1.31438e-07
3.18497e-09
1.30696e-07
6.16668e-09
1.29586e-07
9.11745e-09
1.28114e-07
1.20229e-08
1.26286e-07
1.48687e-08
1.24108e-07
1.76405e-08
1.2159e-07
2.03241e-08
1.18743e-07
2.29052e-08
1.15578e-07
2.53697e-08
1.12109e-07
2.77037e-08
1.08351e-07
2.9893e-08
1.04322e-07
3.19241e-08
1.0004e-07
3.37833e-08
9.55254e-08
3.54572e-08
9.08005e-08
3.69328e-08
8.58891e-08
3.81973e-08
8.08168e-08
3.92385e-08
7.5611e-08
4.00445e-08
7.03007e-08
4.06041e-08
6.49168e-08
4.09066e-08
5.9492e-08
4.09422e-08
5.40606e-08
4.0702e-08
4.86587e-08
4.01781e-08
4.33241e-08
3.93637e-08
3.80961e-08
3.82532e-08
3.30159e-08
3.68427e-08
2.81259e-08
3.51298e-08
2.34703e-08
3.31136e-08
1.90944e-08
3.07955e-08
1.50452e-08
2.81788e-08
1.13705e-08
2.52691e-08
8.11958e-09
2.20744e-08
5.34244e-09
1.86053e-08
3.09008e-09
1.48749e-08
1.4141e-09
1.08993e-08
3.66628e-10
6.69771e-09
2.29276e-09
4.00731e-10
-2.7036e-09
1.54389e-09
-7.87626e-09
3.37038e-09
-1.27896e-08
5.82126e-09
-1.74193e-08
8.83815e-09
-2.17453e-08
1.23635e-08
-2.57514e-08
1.63409e-08
-2.94245e-08
2.07152e-08
-3.27544e-08
2.54327e-08
-3.57337e-08
3.04415e-08
-3.83581e-08
3.56913e-08
-4.06254e-08
4.11339e-08
-4.2536e-08
4.67229e-08
-4.40926e-08
5.2414e-08
-4.52994e-08
5.8165e-08
-4.61629e-08
6.39358e-08
-4.66908e-08
6.96885e-08
-4.68924e-08
7.53871e-08
-4.67781e-08
8.0998e-08
-4.63596e-08
8.64895e-08
-4.56491e-08
9.18318e-08
-4.46599e-08
9.69973e-08
-4.34059e-08
1.0196e-07
-4.19014e-08
1.06697e-07
-4.01613e-08
1.11185e-07
-3.82006e-08
1.15405e-07
-3.60349e-08
1.19338e-07
-3.36798e-08
1.22967e-07
-3.1151e-08
1.26276e-07
-2.84644e-08
1.29253e-07
-2.5636e-08
1.31886e-07
-2.26818e-08
1.34163e-07
-1.96177e-08
1.36076e-07
-1.64597e-08
1.37617e-07
-1.32239e-08
1.3878e-07
-9.92615e-09
1.39561e-07
-6.58244e-09
1.39956e-07
-3.20871e-09
1.39964e-07
1.79155e-10
1.39584e-07
3.56524e-09
1.38817e-07
6.93368e-09
1.37665e-07
1.02686e-08
1.36134e-07
1.35541e-08
1.34229e-07
1.67743e-08
1.31956e-07
1.99134e-08
1.29324e-07
2.29556e-08
1.26344e-07
2.5885e-08
1.23028e-07
2.86858e-08
1.1939e-07
3.13423e-08
1.15444e-07
3.3839e-08
1.11208e-07
3.61601e-08
1.06701e-07
3.82905e-08
1.01943e-07
4.02148e-08
9.69576e-08
4.19181e-08
9.17691e-08
4.33859e-08
8.64038e-08
4.46038e-08
8.08902e-08
4.55581e-08
7.52588e-08
4.62355e-08
6.95419e-08
4.66235e-08
6.3774e-08
4.67101e-08
5.79916e-08
4.64845e-08
5.2233e-08
4.59367e-08
4.65387e-08
4.50579e-08
4.09511e-08
4.38408e-08
3.55145e-08
4.22794e-08
3.02749e-08
4.03693e-08
2.52804e-08
3.81081e-08
2.05804e-08
3.54954e-08
1.62263e-08
3.25329e-08
1.22707e-08
2.92248e-08
8.76757e-09
2.55776e-08
5.77209e-09
2.16008e-08
3.34041e-09
1.73066e-08
1.5295e-09
1.27103e-08
3.96798e-10
7.83042e-09
2.68956e-09
4.33644e-10
-3.13725e-09
1.66818e-09
-9.1108e-09
3.63734e-09
-1.47588e-08
6.2753e-09
-2.00572e-08
9.51711e-09
-2.49871e-08
1.3299e-08
-2.95333e-08
1.75587e-08
-3.36842e-08
2.22357e-08
-3.74313e-08
2.72712e-08
-4.07693e-08
3.26088e-08
-4.36957e-08
3.81941e-08
-4.62107e-08
4.39751e-08
-4.8317e-08
4.99022e-08
-5.00197e-08
5.59282e-08
-5.13255e-08
6.20086e-08
-5.22433e-08
6.81011e-08
-5.27833e-08
7.4166e-08
-5.29573e-08
8.01661e-08
-5.27782e-08
8.60664e-08
-5.22598e-08
9.18343e-08
-5.1417e-08
9.74396e-08
-5.02651e-08
1.02854e-07
-4.88203e-08
1.08051e-07
-4.70989e-08
1.13008e-07
-4.51178e-08
1.17702e-07
-4.28942e-08
1.22112e-07
-4.04452e-08
1.26221e-07
-3.77884e-08
1.30011e-07
-3.49412e-08
1.33467e-07
-3.1921e-08
1.36577e-07
-2.87456e-08
1.39327e-07
-2.54323e-08
1.41708e-07
-2.19987e-08
1.43711e-07
-1.84622e-08
1.45327e-07
-1.48403e-08
1.46551e-07
-1.11502e-08
1.47378e-07
-7.40939e-09
1.47805e-07
-3.63512e-09
1.47829e-07
1.55297e-10
1.47449e-07
3.94457e-09
1.46668e-07
7.71539e-09
1.45486e-07
1.14504e-08
1.43907e-07
1.51324e-08
1.41938e-07
1.87439e-08
1.39584e-07
2.22675e-08
1.36854e-07
2.56858e-08
1.33757e-07
2.89813e-08
1.30306e-07
3.21366e-08
1.26515e-07
3.51341e-08
1.22397e-07
3.79566e-08
1.17971e-07
4.05865e-08
1.13255e-07
4.30065e-08
1.0827e-07
4.51996e-08
1.03039e-07
4.71487e-08
9.75881e-08
4.88371e-08
9.19435e-08
5.02484e-08
8.61349e-08
5.13667e-08
8.01939e-08
5.21765e-08
7.41544e-08
5.2663e-08
6.80525e-08
5.28119e-08
6.19268e-08
5.26102e-08
5.5818e-08
5.20455e-08
4.97692e-08
5.11068e-08
4.38257e-08
4.97844e-08
3.8035e-08
4.807e-08
3.2447e-08
4.59573e-08
2.71135e-08
4.34417e-08
2.20884e-08
4.05206e-08
1.74274e-08
3.7194e-08
1.3188e-08
3.34642e-08
9.42931e-09
2.93363e-08
6.21183e-09
2.48183e-08
3.59728e-09
1.99212e-08
1.64822e-09
1.46593e-08
4.27947e-10
9.0507e-09
3.11751e-09
4.67754e-10
-3.605e-09
1.79607e-09
-1.04391e-08
3.91051e-09
-1.68732e-08
6.73755e-09
-2.28843e-08
1.0205e-08
-2.84546e-08
1.42424e-08
-3.35707e-08
1.87811e-08
-3.8223e-08
2.37551e-08
-4.24053e-08
2.91005e-08
-4.61146e-08
3.47561e-08
-4.93512e-08
4.06634e-08
-5.21181e-08
4.6767e-08
-5.44206e-08
5.30142e-08
-5.62668e-08
5.93551e-08
-5.76664e-08
6.57429e-08
-5.86311e-08
7.21337e-08
-5.91741e-08
7.84863e-08
-5.93099e-08
8.47624e-08
-5.90543e-08
9.09262e-08
-5.84237e-08
9.69447e-08
-5.74354e-08
1.02787e-07
-5.61075e-08
1.08425e-07
-5.44583e-08
1.13833e-07
-5.25065e-08
1.18986e-07
-5.02711e-08
1.23863e-07
-4.77712e-08
1.28444e-07
-4.5026e-08
1.3271e-07
-4.20547e-08
1.36646e-07
-3.88766e-08
1.40235e-07
-3.55107e-08
1.43466e-07
-3.19762e-08
1.46325e-07
-2.8292e-08
1.48804e-07
-2.44772e-08
1.50892e-07
-2.05505e-08
1.52583e-07
-1.65306e-08
1.53869e-07
-1.24364e-08
1.54746e-07
-8.28641e-09
1.5521e-07
-4.09928e-09
1.55259e-07
1.06364e-10
1.54892e-07
4.3119e-09
1.54108e-07
8.49867e-09
1.52911e-07
1.2648e-08
1.51302e-07
1.6741e-08
1.49287e-07
2.07589e-08
1.46872e-07
2.46828e-08
1.44064e-07
2.84937e-08
1.40873e-07
3.21723e-08
1.3731e-07
3.56995e-08
1.33388e-07
3.90561e-08
1.29122e-07
4.22227e-08
1.24528e-07
4.518e-08
1.19626e-07
4.79085e-08
1.14437e-07
5.03891e-08
1.08983e-07
5.26026e-08
1.0329e-07
5.453e-08
9.73859e-08
5.61525e-08
9.1301e-08
5.74517e-08
8.50677e-08
5.84098e-08
7.87214e-08
5.90093e-08
7.22998e-08
5.92335e-08
6.58434e-08
5.90666e-08
5.93951e-08
5.84938e-08
5.30006e-08
5.75012e-08
4.67083e-08
5.60767e-08
4.0569e-08
5.42093e-08
3.46362e-08
5.18902e-08
2.89657e-08
4.91121e-08
2.36158e-08
4.58705e-08
1.8647e-08
4.21628e-08
1.41218e-08
3.79893e-08
1.01047e-08
3.33534e-08
6.66192e-09
2.82611e-08
3.86089e-09
2.27222e-08
1.77045e-09
1.67498e-08
4.60151e-10
1.0361e-08
3.57766e-09
5.0279e-10
-4.10779e-09
1.92635e-09
-1.18627e-08
4.18699e-09
-1.91339e-08
7.20254e-09
-2.58998e-08
1.08929e-08
-3.21449e-08
1.51803e-08
-3.78581e-08
1.99896e-08
-4.30324e-08
2.52488e-08
-4.76644e-08
3.08888e-08
-5.17546e-08
3.68438e-08
-5.53062e-08
4.30514e-08
-5.83257e-08
4.94527e-08
-6.08219e-08
5.59922e-08
-6.28063e-08
6.26178e-08
-6.4292e-08
6.92809e-08
-6.52942e-08
7.59362e-08
-6.58294e-08