/*--------------------------------*- C++ -*----------------------------------*\
  =========                 |
  \\      /  F ield         | OpenFOAM: The Open Source CFD Toolbox
   \\    /   O peration     | Website:  https://openfoam.org
    \\  /    A nd           | Version:  12
     \\/     M anipulation  |
\*---------------------------------------------------------------------------*/
FoamFile
{
    format      ascii;
    class       volScalarField;
    location    "5.5";
    object      epsilon;
}
// * * * * * * * * * * * * * * * * * * * * * * * * * * * * * * * * * * * * * //

dimensions      [0 2 -3 0 0 0 0];

internalField   nonuniform List<scalar> 
18225
(
1.02748e-07
5.13471e-07
1.12372e-06
1.85652e-06
2.67756e-06
3.56658e-06
4.50927e-06
5.49451e-06
6.51324e-06
7.55791e-06
8.62215e-06
9.70057e-06
1.07886e-05
1.18825e-05
1.29791e-05
1.40759e-05
1.51712e-05
1.62635e-05
1.73519e-05
1.84361e-05
1.95158e-05
2.05914e-05
2.16634e-05
2.27326e-05
2.37999e-05
2.48664e-05
2.59331e-05
2.70014e-05
2.80723e-05
2.9147e-05
3.02265e-05
3.13118e-05
3.24036e-05
3.35026e-05
3.46092e-05
3.57237e-05
3.68462e-05
3.79765e-05
3.91145e-05
4.02594e-05
4.14107e-05
4.25674e-05
4.37284e-05
4.48925e-05
4.6058e-05
4.72234e-05
4.83868e-05
4.95462e-05
5.06993e-05
5.18437e-05
5.29769e-05
5.40961e-05
5.51984e-05
5.62807e-05
5.73397e-05
5.83721e-05
5.93742e-05
6.03424e-05
6.12728e-05
6.21614e-05
6.30042e-05
6.37971e-05
6.45359e-05
6.52162e-05
6.58339e-05
6.63848e-05
6.68645e-05
6.72689e-05
6.75946e-05
6.78376e-05
6.79931e-05
6.80585e-05
6.80339e-05
6.79147e-05
6.76983e-05
6.73829e-05
6.69672e-05
6.64504e-05
6.58323e-05
6.51134e-05
6.42947e-05
6.33778e-05
6.2365e-05
6.12593e-05
6.00641e-05
5.87837e-05
5.74227e-05
5.59864e-05
5.44807e-05
5.29118e-05
5.12862e-05
4.96112e-05
4.78938e-05
4.61415e-05
4.4362e-05
4.25628e-05
4.07515e-05
3.89355e-05
3.71222e-05
3.53184e-05
3.35308e-05
3.17659e-05
3.00293e-05
2.83264e-05
2.66621e-05
2.50408e-05
2.34661e-05
2.19413e-05
2.04689e-05
1.90511e-05
1.76893e-05
1.63846e-05
1.51375e-05
1.3948e-05
1.28158e-05
1.17399e-05
1.07195e-05
9.75286e-06
8.83851e-06
7.97452e-06
7.15889e-06
6.3895e-06
5.6642e-06
4.9809e-06
4.33759e-06
3.73246e-06
3.16398e-06
2.63103e-06
2.13305e-06
1.67028e-06
1.24408e-06
8.57583e-07
5.17064e-07
2.3576e-07
4.71522e-08
5.1378e-07
4.19362e-07
6.3049e-07
9.44322e-07
1.31503e-06
1.72442e-06
2.16256e-06
2.62283e-06
3.10027e-06
3.59095e-06
4.09164e-06
4.59966e-06
5.11277e-06
5.6291e-06
6.14715e-06
6.66571e-06
7.18386e-06
7.70092e-06
8.21645e-06
8.73021e-06
9.24215e-06
9.75235e-06
1.02611e-05
1.07686e-05
1.12755e-05
1.17821e-05
1.2289e-05
1.27967e-05
1.33058e-05
1.38168e-05
1.43302e-05
1.48464e-05
1.53657e-05
1.58885e-05
1.6415e-05
1.69452e-05
1.74793e-05
1.80171e-05
1.85585e-05
1.91033e-05
1.9651e-05
2.02012e-05
2.07535e-05
2.13071e-05
2.18613e-05
2.24153e-05
2.29683e-05
2.35192e-05
2.40669e-05
2.46104e-05
2.51483e-05
2.56793e-05
2.6202e-05
2.6715e-05
2.72166e-05
2.77052e-05
2.81792e-05
2.86367e-05
2.90759e-05
2.94949e-05
2.98919e-05
3.02648e-05
3.06116e-05
3.09304e-05
3.12192e-05
3.14759e-05
3.16986e-05
3.18855e-05
3.20349e-05
3.21449e-05
3.22134e-05
3.22392e-05
3.22223e-05
3.21605e-05
3.20529e-05
3.18985e-05
3.16969e-05
3.14476e-05
3.11507e-05
3.08065e-05
3.04154e-05
2.99783e-05
2.94963e-05
2.89708e-05
2.84035e-05
2.77964e-05
2.71517e-05
2.64719e-05
2.57597e-05
2.50181e-05
2.42502e-05
2.34592e-05
2.26486e-05
2.18217e-05
2.09822e-05
2.01335e-05
1.92792e-05
1.84228e-05
1.75676e-05
1.67169e-05
1.58738e-05
1.50412e-05
1.42219e-05
1.34183e-05
1.26328e-05
1.18673e-05
1.11237e-05
1.04033e-05
9.70754e-06
9.03732e-06
8.39337e-06
7.77619e-06
7.18604e-06
6.62299e-06
6.08687e-06
5.5773e-06
5.09379e-06
4.63569e-06
4.20225e-06
3.79261e-06
3.40585e-06
3.04101e-06
2.69711e-06
2.3732e-06
2.06838e-06
1.78187e-06
1.51304e-06
1.26149e-06
1.02715e-06
8.10481e-07
6.12815e-07
4.3713e-07
2.90388e-07
1.92486e-07
2.35661e-07
1.12717e-06
6.3279e-07
6.47549e-07
8.0176e-07
1.02234e-06
1.28285e-06
1.57056e-06
1.87807e-06
2.2005e-06
2.53427e-06
2.87667e-06
3.22552e-06
3.57905e-06
3.93582e-06
4.29468e-06
4.6547e-06
5.01517e-06
5.37555e-06
5.73549e-06
6.09478e-06
6.45334e-06
6.81119e-06
7.16847e-06
7.52538e-06
7.88218e-06
8.2392e-06
8.59678e-06
8.95526e-06
9.315e-06
9.67634e-06
1.00396e-05
1.04051e-05
1.07729e-05
1.11434e-05
1.15166e-05
1.18926e-05
1.22714e-05
1.26529e-05
1.3037e-05
1.34235e-05
1.3812e-05
1.42023e-05
1.45939e-05
1.49863e-05
1.53791e-05
1.57715e-05
1.61629e-05
1.65526e-05
1.69397e-05
1.73235e-05
1.77029e-05
1.80771e-05
1.84449e-05
1.88053e-05
1.91572e-05
1.94993e-05
1.98305e-05
2.01494e-05
2.04549e-05
2.07454e-05
2.10198e-05
2.12765e-05
2.15143e-05
2.17318e-05
2.19275e-05
2.21002e-05
2.22485e-05
2.23712e-05
2.24671e-05
2.2535e-05
2.25733e-05
2.25822e-05
2.25607e-05
2.25078e-05
2.24229e-05
2.23055e-05
2.21553e-05
2.19722e-05
2.17563e-05
2.15078e-05
2.12273e-05
2.09153e-05
2.05727e-05
2.02006e-05
1.98001e-05
1.93726e-05
1.89198e-05
1.84434e-05
1.79452e-05
1.74272e-05
1.68917e-05
1.63407e-05
1.57767e-05
1.52019e-05
1.46188e-05
1.40297e-05
1.34369e-05
1.28429e-05
1.22499e-05
1.16601e-05
1.10756e-05
1.04983e-05
9.93007e-06
9.37266e-06
8.82759e-06
8.29622e-06
7.77976e-06
7.27925e-06
6.79554e-06
6.32933e-06
5.88112e-06
5.45129e-06
5.04003e-06
4.64741e-06
4.27335e-06
3.91763e-06
3.57994e-06
3.25987e-06
2.95695e-06
2.67062e-06
2.4003e-06
2.14539e-06
1.90527e-06
1.67937e-06
1.46717e-06
1.26828e-06
1.08244e-06
9.09649e-07
7.50319e-07
6.05504e-07
4.77483e-07
3.71082e-07
2.97531e-07
2.89593e-07
5.15956e-07
1.87035e-06
9.52857e-07
8.07406e-07
8.51569e-07
9.7987e-07
1.15613e-06
1.36356e-06
1.59291e-06
1.8384e-06
2.09608e-06
2.3631e-06
2.63727e-06
2.91686e-06
3.20052e-06
3.48715e-06
3.77588e-06
4.06604e-06
4.35712e-06
4.64876e-06
4.94072e-06
5.23288e-06
5.52522e-06
5.81779e-06
6.11071e-06
6.40416e-06
6.69835e-06
6.99352e-06
7.28994e-06
7.58784e-06
7.88747e-06
8.18907e-06
8.49281e-06
8.79886e-06
9.10733e-06
9.41829e-06
9.73175e-06
1.00477e-05
1.0366e-05
1.06865e-05
1.10089e-05
1.13332e-05
1.16587e-05
1.19853e-05
1.23124e-05
1.26396e-05
1.29662e-05
1.32918e-05
1.36155e-05
1.39367e-05
1.42546e-05
1.45684e-05
1.48773e-05
1.51803e-05
1.54766e-05
1.57651e-05
1.60448e-05
1.63148e-05
1.65739e-05
1.6821e-05
1.70551e-05
1.72751e-05
1.74799e-05
1.76682e-05
1.78392e-05
1.79916e-05
1.81245e-05
1.82368e-05
1.83276e-05
1.83959e-05
1.84408e-05
1.84611e-05
1.84576e-05
1.84289e-05
1.83746e-05
1.82942e-05
1.81875e-05
1.80543e-05
1.78947e-05
1.77089e-05
1.74971e-05
1.72598e-05
1.69976e-05
1.67113e-05
1.64017e-05
1.60699e-05
1.57171e-05
1.53446e-05
1.49537e-05
1.4546e-05
1.41231e-05
1.36867e-05
1.32386e-05
1.27806e-05
1.23145e-05
1.18422e-05
1.13655e-05
1.08863e-05
1.04065e-05
9.92779e-06
9.45184e-06
8.98031e-06
8.51473e-06
8.05653e-06
7.60702e-06
7.16742e-06
6.73878e-06
6.32206e-06
5.91806e-06
5.52747e-06
5.15084e-06
4.78859e-06
4.441e-06
4.10827e-06
3.79045e-06
3.4875e-06
3.1993e-06
2.92562e-06
2.66617e-06
2.42063e-06
2.1886e-06
1.96967e-06
1.76343e-06
1.5695e-06
1.3875e-06
1.21719e-06
1.05841e-06
9.11238e-07
7.76062e-07
6.53779e-07
5.46177e-07
4.56701e-07
3.92297e-07
3.68891e-07
4.34088e-07
8.53015e-07
2.71474e-06
1.33627e-06
1.03864e-06
9.89953e-07
1.04666e-06
1.16173e-06
1.31399e-06
1.49201e-06
1.68888e-06
1.89999e-06
2.12212e-06
2.35286e-06
2.59037e-06
2.83322e-06
3.08026e-06
3.33059e-06
3.5835e-06
3.83845e-06
4.09503e-06
4.35296e-06
4.61206e-06
4.87225e-06
5.13351e-06
5.39591e-06
5.65954e-06
5.92455e-06
6.19111e-06
6.45939e-06
6.72958e-06
7.00184e-06
7.27635e-06
7.55321e-06
7.83254e-06
8.11439e-06
8.39877e-06
8.68565e-06
8.97494e-06
9.26651e-06
9.56016e-06
9.85565e-06
1.01527e-05
1.04509e-05
1.07498e-05
1.10491e-05
1.13481e-05
1.16463e-05
1.19432e-05
1.2238e-05
1.253e-05
1.28186e-05
1.31028e-05
1.3382e-05
1.36552e-05
1.39216e-05
1.41803e-05
1.44303e-05
1.46707e-05
1.49005e-05
1.51188e-05
1.53247e-05
1.5517e-05
1.56949e-05
1.58574e-05
1.60036e-05
1.61326e-05
1.62435e-05
1.63354e-05
1.64077e-05
1.64595e-05
1.64895e-05
1.64981e-05
1.6485e-05
1.64495e-05
1.63909e-05
1.63092e-05
1.62043e-05
1.60759e-05
1.59244e-05
1.57498e-05
1.55525e-05
1.53331e-05
1.5092e-05
1.48301e-05
1.45481e-05
1.4247e-05
1.39278e-05
1.35918e-05
1.32402e-05
1.28743e-05
1.24956e-05
1.21056e-05
1.17059e-05
1.12979e-05
1.08834e-05
1.04639e-05
1.00411e-05
9.61658e-06
9.19188e-06
8.76853e-06
8.34799e-06
7.93165e-06
7.52082e-06
7.11672e-06
6.72047e-06
6.33308e-06
5.95547e-06
5.58843e-06
5.23266e-06
4.88873e-06
4.5571e-06
4.23812e-06
3.93205e-06
3.63905e-06
3.35917e-06
3.09239e-06
2.8386e-06
2.59765e-06
2.36932e-06
2.15336e-06
1.94946e-06
1.75735e-06
1.57674e-06
1.40738e-06
1.24909e-06
1.10179e-06
9.65598e-07
8.40853e-07
7.28316e-07
6.29393e-07
5.46599e-07
4.84535e-07
4.52363e-07
4.70977e-07
6.05068e-07
1.23142e-06
3.64674e-06
1.76785e-06
1.31669e-06
1.18211e-06
1.177e-06
1.24203e-06
1.35127e-06
1.491e-06
1.65302e-06
1.83201e-06
2.02425e-06
2.22705e-06
2.43835e-06
2.65659e-06
2.8805e-06
3.10909e-06
3.34158e-06
3.57735e-06
3.81594e-06
4.05699e-06
4.30027e-06
4.54562e-06
4.79298e-06
5.04233e-06
5.2937e-06
5.54719e-06
5.80288e-06
6.0609e-06
6.32137e-06
6.5844e-06
6.85008e-06
7.11849e-06
7.38966e-06
7.66359e-06
7.94025e-06
8.21955e-06
8.50134e-06
8.78543e-06
9.07159e-06
9.3595e-06
9.64883e-06
9.93916e-06
1.023e-05
1.0521e-05
1.08114e-05
1.11007e-05
1.13883e-05
1.16734e-05
1.19554e-05
1.22334e-05
1.25068e-05
1.27747e-05
1.30362e-05
1.32905e-05
1.35368e-05
1.37741e-05
1.40015e-05
1.42182e-05
1.44232e-05
1.46156e-05
1.47946e-05
1.49593e-05
1.51088e-05
1.52423e-05
1.5359e-05
1.54582e-05
1.5539e-05
1.5601e-05
1.56433e-05
1.56642e-05
1.56658e-05
1.56464e-05
1.56055e-05
1.5543e-05
1.54586e-05
1.53522e-05
1.52238e-05
1.50736e-05
1.49017e-05
1.47086e-05
1.44948e-05
1.42607e-05
1.40071e-05
1.37347e-05
1.34446e-05
1.31378e-05
1.28152e-05
1.24783e-05
1.21282e-05
1.17664e-05
1.13942e-05
1.10132e-05
1.06248e-05
1.02307e-05
9.83227e-06
9.43114e-06
9.02881e-06
8.62676e-06
8.22641e-06
7.82913e-06
7.43623e-06
7.04891e-06
6.66831e-06
6.29546e-06
5.93129e-06
5.57662e-06
5.23217e-06
4.89857e-06
4.57631e-06
4.2658e-06
3.96736e-06
3.68119e-06
3.40742e-06
3.14609e-06
2.89717e-06
2.66057e-06
2.43614e-06
2.22371e-06
2.02304e-06
1.83392e-06
1.65613e-06
1.48948e-06
1.33383e-06
1.18914e-06
1.0555e-06
9.33224e-07
8.22932e-07
7.25724e-07
6.43466e-07
5.79422e-07
5.39397e-07
5.347e-07
5.9171e-07
7.94323e-07
1.64219e-06
4.65928e-06
2.24096e-06
1.63093e-06
1.41274e-06
1.35086e-06
1.37215e-06
1.44541e-06
1.55443e-06
1.68969e-06
1.84506e-06
2.01631e-06
2.20038e-06
2.39499e-06
2.59836e-06
2.8091e-06
3.0261e-06
3.24847e-06
3.4755e-06
3.70663e-06
3.94145e-06
4.17964e-06
4.42097e-06
4.6653e-06
4.91257e-06
5.16273e-06
5.41582e-06
5.67186e-06
5.93091e-06
6.19303e-06
6.45828e-06
6.72669e-06
6.99827e-06
7.27299e-06
7.55081e-06
7.83161e-06
8.11524e-06
8.40151e-06
8.69015e-06
8.98086e-06
9.27328e-06
9.56699e-06
9.86153e-06
1.01564e-05
1.0451e-05
1.07448e-05
1.1037e-05
1.13271e-05
1.16143e-05
1.18978e-05
1.21769e-05
1.24508e-05
1.27185e-05
1.29794e-05
1.32326e-05
1.34772e-05
1.37123e-05
1.3937e-05
1.41506e-05
1.43522e-05
1.45409e-05
1.47158e-05
1.48763e-05
1.50214e-05
1.51504e-05
1.52626e-05
1.53572e-05
1.54337e-05
1.54914e-05
1.55294e-05
1.55462e-05
1.55443e-05
1.55215e-05
1.54776e-05
1.54121e-05
1.53251e-05
1.52163e-05
1.50858e-05
1.49337e-05
1.47601e-05
1.45655e-05
1.43503e-05
1.41149e-05
1.38602e-05
1.35868e-05
1.32958e-05
1.2988e-05
1.26647e-05
1.2327e-05
1.19763e-05
1.16139e-05
1.12414e-05
1.08601e-05
1.04717e-05
1.00778e-05
9.67982e-06
9.27944e-06
8.87818e-06
8.47754e-06
8.07899e-06
7.68391e-06
7.29359e-06
6.90928e-06
6.53209e-06
6.16303e-06
5.80304e-06
5.4529e-06
5.11332e-06
4.78486e-06
4.46802e-06
4.16315e-06
3.87052e-06
3.59032e-06
3.32263e-06
3.06747e-06
2.82479e-06
2.59449e-06
2.37641e-06
2.17037e-06
1.97616e-06
1.79358e-06
1.62246e-06
1.46267e-06
1.31416e-06
1.177e-06
1.05142e-06
9.37903e-07
8.37312e-07
7.51099e-07
6.81629e-07
6.32803e-07
6.11575e-07
6.31622e-07
7.25333e-07
9.97425e-07
2.07905e-06
5.74889e-06
2.75247e-06
1.97618e-06
1.67416e-06
1.55799e-06
1.53933e-06
1.5811e-06
1.6644e-06
1.77825e-06
1.91566e-06
2.07187e-06
2.24347e-06
2.42787e-06
2.62309e-06
2.82755e-06
3.04e-06
3.25942e-06
3.485e-06
3.71609e-06
3.95215e-06
4.19281e-06
4.43775e-06
4.68676e-06
4.93969e-06
5.19644e-06
5.45698e-06
5.72126e-06
5.98929e-06
6.26106e-06
6.53656e-06
6.81576e-06
7.0986e-06
7.38501e-06
7.67485e-06
7.96794e-06
8.26407e-06
8.56297e-06
8.86431e-06
9.1677e-06
9.47273e-06
9.7789e-06
1.00857e-05
1.03925e-05
1.06988e-05
1.10038e-05
1.13068e-05
1.16072e-05
1.19042e-05
1.21969e-05
1.24847e-05
1.27666e-05
1.30418e-05
1.33096e-05
1.35691e-05
1.38194e-05
1.40597e-05
1.42892e-05
1.4507e-05
1.47124e-05
1.49044e-05
1.50824e-05
1.52456e-05
1.53931e-05
1.55243e-05
1.56384e-05
1.57347e-05
1.58126e-05
1.58714e-05
1.59101e-05
1.59271e-05
1.59253e-05
1.59024e-05
1.58579e-05
1.57915e-05
1.57031e-05
1.55923e-05
1.54593e-05
1.53039e-05
1.51264e-05
1.49271e-05
1.47063e-05
1.44646e-05
1.42025e-05
1.3921e-05
1.36209e-05
1.33032e-05
1.2969e-05
1.26198e-05
1.22567e-05
1.18814e-05
1.14952e-05
1.10999e-05
1.06972e-05
1.02886e-05
9.87587e-06
9.46077e-06
9.04492e-06
8.62996e-06
8.21746e-06
7.8089e-06
7.40569e-06
7.00913e-06
6.62041e-06
6.24061e-06
5.87069e-06
5.51147e-06
5.16365e-06
4.82782e-06
4.50444e-06
4.19385e-06
3.8963e-06
3.61192e-06
3.34078e-06
3.08286e-06
2.83805e-06
2.60623e-06
2.38722e-06
2.18081e-06
1.98678e-06
1.80494e-06
1.63514e-06
1.47727e-06
1.33136e-06
1.19754e-06
1.0762e-06
9.67977e-07
8.73962e-07
7.95871e-07
7.36488e-07
7.00429e-07
6.95864e-07
7.38951e-07
8.68544e-07
1.21146e-06
2.53715e-06
6.91425e-06
3.301e-06
2.34986e-06
1.96224e-06
1.79269e-06
1.73633e-06
1.74963e-06
1.81071e-06
1.90704e-06
2.0307e-06
2.17634e-06
2.34011e-06
2.51914e-06
2.7112e-06
2.91454e-06
3.12773e-06
3.34964e-06
3.57931e-06
3.81598e-06
4.05903e-06
4.30797e-06
4.56241e-06
4.82206e-06
5.08669e-06
5.35614e-06
5.63028e-06
5.90902e-06
6.19229e-06
6.48001e-06
6.7721e-06
7.06846e-06
7.36897e-06
7.67346e-06
7.98173e-06
8.29353e-06
8.60855e-06
8.92645e-06
9.24681e-06
9.56918e-06
9.89304e-06
1.02178e-05
1.05429e-05
1.08677e-05
1.11915e-05
1.15135e-05
1.18331e-05
1.21494e-05
1.24617e-05
1.27692e-05
1.3071e-05
1.33663e-05
1.36544e-05
1.39344e-05
1.42055e-05
1.44668e-05
1.47176e-05
1.4957e-05
1.51843e-05
1.53987e-05
1.55994e-05
1.57856e-05
1.59566e-05
1.61117e-05
1.625e-05
1.63709e-05
1.64736e-05
1.65575e-05
1.66219e-05
1.66659e-05
1.66872e-05
1.66889e-05
1.66691e-05
1.6627e-05
1.6562e-05
1.64739e-05
1.63623e-05
1.62271e-05
1.60684e-05
1.5886e-05
1.56803e-05
1.54515e-05
1.52001e-05
1.49267e-05
1.46321e-05
1.43172e-05
1.39831e-05
1.36309e-05
1.32621e-05
1.2878e-05
1.24803e-05
1.20706e-05
1.16507e-05
1.12225e-05
1.07878e-05
1.03486e-05
9.90665e-06
9.4639e-06
9.02216e-06
8.58318e-06
8.14865e-06
7.72012e-06
7.29905e-06
6.88677e-06
6.48447e-06
6.09319e-06
5.71383e-06
5.34715e-06
4.99376e-06
4.65414e-06
4.32863e-06
4.01744e-06
3.72071e-06
3.43844e-06
3.17056e-06
2.91695e-06
2.6774e-06
2.45169e-06
2.23959e-06
2.04084e-06
1.85525e-06
1.68265e-06
1.52296e-06
1.37622e-06
1.24264e-06
1.12267e-06
1.0171e-06
9.27202e-07
8.55e-07
8.03702e-07
7.78616e-07
7.89146e-07
8.5414e-07
1.0192e-06
1.4343e-06
3.0126e-06
8.15555e-06
3.8862e-06
2.75078e-06
2.27474e-06
2.05167e-06
1.95884e-06
1.9457e-06
1.98714e-06
2.06891e-06
2.1821e-06
2.32071e-06
2.48045e-06
2.6581e-06
2.8512e-06
3.05777e-06
3.2762e-06
3.50519e-06
3.74365e-06
3.99069e-06
4.24557e-06
4.5077e-06
4.7766e-06
5.05187e-06
5.33321e-06
5.62037e-06
5.91315e-06
6.21139e-06
6.51492e-06
6.8236e-06
7.13727e-06
7.45576e-06
7.77885e-06
8.10631e-06
8.43783e-06
8.77309e-06
9.11169e-06
9.4532e-06
9.79711e-06
1.01429e-05
1.04899e-05
1.08376e-05
1.11852e-05
1.15321e-05
1.18775e-05
1.22205e-05
1.25606e-05
1.28968e-05
1.32283e-05
1.35544e-05
1.38741e-05
1.41868e-05
1.44917e-05
1.47878e-05
1.50745e-05
1.53509e-05
1.56163e-05
1.58699e-05
1.6111e-05
1.63388e-05
1.65525e-05
1.67515e-05
1.69349e-05
1.71019e-05
1.72519e-05
1.73841e-05
1.74976e-05
1.75918e-05
1.76658e-05
1.77189e-05
1.77487e-05
1.7757e-05
1.77435e-05
1.77064e-05
1.76452e-05
1.75593e-05
1.74483e-05
1.7312e-05
1.71501e-05
1.69627e-05
1.67497e-05
1.65115e-05
1.62483e-05
1.59609e-05
1.56499e-05
1.53162e-05
1.49609e-05
1.45853e-05
1.41909e-05
1.37792e-05
1.3352e-05
1.29111e-05
1.24585e-05
1.19962e-05
1.15264e-05
1.10512e-05
1.05727e-05
1.00931e-05
9.6145e-06
9.13885e-06
8.66807e-06
8.20398e-06
7.74824e-06
7.30237e-06
6.86771e-06
6.44547e-06
6.03666e-06
5.64212e-06
5.26254e-06
4.89843e-06
4.55014e-06
4.21792e-06
3.90184e-06
3.60189e-06
3.31796e-06
3.04985e-06
2.79732e-06
2.56008e-06
2.33784e-06
2.13029e-06
1.9372e-06
1.75836e-06
1.5937e-06
1.44326e-06
1.30729e-06
1.18631e-06
1.08123e-06
9.93504e-07
9.25408e-07
8.80578e-07
8.6503e-07
8.89438e-07
9.75494e-07
1.17578e-06
1.66426e-06
3.50222e-06
9.47399e-06
4.50834e-06
3.17849e-06
2.61049e-06
2.333e-06
2.20418e-06
2.16599e-06
2.18973e-06
2.25931e-06
2.36472e-06
2.49927e-06
2.65817e-06
2.83786e-06
3.03556e-06
3.24907e-06
3.47657e-06
3.71658e-06
3.96785e-06
4.22935e-06
4.50022e-06
4.77973e-06
5.0673e-06
5.36245e-06
5.66475e-06
5.97389e-06
6.28956e-06
6.61152e-06
6.93952e-06
7.27334e-06
7.61273e-06
7.95742e-06
8.30712e-06
8.66147e-06
9.02012e-06
9.38261e-06
9.74847e-06
1.01172e-05
1.04881e-05
1.08607e-05
1.12342e-05
1.16079e-05
1.19811e-05
1.2353e-05
1.27229e-05
1.30899e-05
1.34532e-05
1.3812e-05
1.41655e-05
1.4513e-05
1.48535e-05
1.51864e-05
1.55108e-05
1.5826e-05
1.61314e-05
1.6426e-05
1.67093e-05
1.69804e-05
1.72387e-05
1.74834e-05
1.77138e-05
1.79292e-05
1.81287e-05
1.83116e-05
1.8477e-05
1.86242e-05
1.87523e-05
1.88604e-05
1.89477e-05
1.90133e-05
1.90553e-05
1.90727e-05
1.90683e-05
1.90388e-05
1.89836e-05
1.89018e-05
1.8793e-05
1.86566e-05
1.84924e-05
1.83001e-05
1.80797e-05
1.78313e-05
1.75552e-05
1.7252e-05
1.69223e-05
1.65671e-05
1.61874e-05
1.57847e-05
1.53604e-05
1.49162e-05
1.44542e-05
1.39762e-05
1.34846e-05
1.29816e-05
1.24696e-05
1.1951e-05
1.14282e-05
1.09038e-05
1.038e-05
9.85924e-06
9.34371e-06
8.83547e-06
8.33647e-06
7.84846e-06
7.37303e-06
6.91154e-06
6.46519e-06
6.03495e-06
5.62161e-06
5.22575e-06
4.84777e-06
4.48793e-06
4.14631e-06
3.82286e-06
3.51742e-06
3.22976e-06
2.95956e-06
2.70646e-06
2.47009e-06
2.2501e-06
2.04617e-06
1.85807e-06
1.68568e-06
1.52904e-06
1.38841e-06
1.26436e-06
1.1579e-06
1.07064e-06
1.00511e-06
9.65359e-07
9.58131e-07
9.95412e-07
1.10183e-06
1.33719e-06
1.90005e-06
4.0034e-06
1.08714e-05
5.1681e-06
3.63305e-06
2.96896e-06
2.63559e-06
2.47074e-06
2.40838e-06
2.4159e-06
2.47523e-06
2.57517e-06
2.70826e-06
2.86917e-06
3.05393e-06
3.25945e-06
3.48325e-06
3.72329e-06
3.97787e-06
4.24559e-06
4.52524e-06
4.81581e-06
5.11646e-06
5.42646e-06
5.74523e-06
6.07225e-06
6.40707e-06
6.74932e-06
7.09865e-06
7.45472e-06
7.8172e-06
8.18575e-06
8.56e-06
8.93956e-06
9.32399e-06
9.7128e-06
1.01055e-05
1.05014e-05
1.09e-05
1.13005e-05
1.17023e-05
1.21045e-05
1.25065e-05
1.29074e-05
1.33065e-05
1.37028e-05
1.40955e-05
1.4484e-05
1.48672e-05
1.52446e-05
1.56152e-05
1.59784e-05
1.63334e-05
1.66795e-05
1.7016e-05
1.73421e-05
1.76574e-05
1.79609e-05
1.82522e-05
1.85303e-05
1.87948e-05
1.90447e-05
1.92794e-05
1.94981e-05
1.96999e-05
1.98839e-05
2.00492e-05
2.01949e-05
2.032e-05
2.04235e-05
2.05042e-05
2.05612e-05
2.05912e-05
2.05972e-05
2.05777e-05
2.05304e-05
2.04545e-05
2.03493e-05
2.02141e-05
2.00484e-05
1.98519e-05
1.96244e-05
1.93658e-05
1.90765e-05
1.87567e-05
1.84072e-05
1.80289e-05
1.76229e-05
1.71906e-05
1.67336e-05
1.62538e-05
1.57533e-05
1.52342e-05
1.46991e-05
1.41504e-05
1.35908e-05
1.30231e-05
1.24501e-05
1.18744e-05
1.12989e-05
1.07262e-05
1.01588e-05
9.59927e-06
9.04974e-06
8.51228e-06
7.98876e-06
7.4808e-06
6.98978e-06
6.51687e-06
6.06299e-06
5.62884e-06
5.2149e-06
4.82146e-06
4.44861e-06
4.0963e-06
3.76435e-06
3.45245e-06
3.16023e-06
2.88725e-06
2.63308e-06
2.39726e-06
2.17942e-06
1.97925e-06
1.79659e-06
1.63143e-06
1.48405e-06
1.35505e-06
1.2455e-06
1.15715e-06
1.09279e-06
1.05688e-06
1.05688e-06
1.10615e-06
1.23233e-06
1.50259e-06
2.14065e-06
4.51409e-06
1.235e-05
5.86642e-06
4.11482e-06
3.35003e-06
2.95888e-06
2.75756e-06
2.67152e-06
2.66398e-06
2.71471e-06
2.81122e-06
2.94519e-06
3.11071e-06
3.30335e-06
3.51967e-06
3.75687e-06
4.01267e-06
4.28514e-06
4.57267e-06
4.87386e-06
5.18756e-06
5.51275e-06
5.8486e-06
6.19437e-06
6.54944e-06
6.91325e-06
7.2853e-06
7.66515e-06
8.05235e-06
8.44646e-06
8.84703e-06
9.25359e-06
9.66563e-06
1.00826e-05
1.05039e-05
1.09289e-05
1.1357e-05
1.17873e-05
1.22192e-05
1.26518e-05
1.30844e-05
1.3516e-05
1.39458e-05
1.43731e-05
1.4797e-05
1.52166e-05
1.56312e-05
1.60399e-05
1.64421e-05
1.68371e-05
1.7224e-05
1.76023e-05
1.79714e-05
1.83305e-05
1.8679e-05
1.90164e-05
1.9342e-05
1.96552e-05
1.99552e-05
2.02414e-05
2.0513e-05
2.07692e-05
2.10092e-05
2.12321e-05
2.1437e-05
2.16228e-05
2.17884e-05
2.19327e-05
2.20546e-05
2.21528e-05
2.22261e-05
2.22719e-05
2.22896e-05
2.22817e-05
2.22441e-05
2.21757e-05
2.20756e-05
2.19429e-05
2.1777e-05
2.15772e-05
2.13434e-05
2.10753e-05
2.0773e-05
2.04369e-05
2.00675e-05
1.96658e-05
1.92328e-05
1.877e-05
1.82791e-05
1.7762e-05
1.72209e-05
1.66583e-05
1.60768e-05
1.54793e-05
1.48685e-05
1.42477e-05
1.36199e-05
1.29883e-05
1.23559e-05
1.17258e-05
1.1101e-05
1.04842e-05
9.87799e-06
9.28486e-06
8.70693e-06
8.14613e-06
7.60412e-06
7.08228e-06
6.58171e-06
6.10328e-06
5.64757e-06
5.21495e-06
4.80556e-06
4.41936e-06
4.05613e-06
3.71555e-06
3.39717e-06
3.10048e-06
2.82496e-06
2.57008e-06
2.33536e-06
2.12043e-06
1.92505e-06
1.74918e-06
1.59305e-06
1.45728e-06
1.34301e-06
1.25211e-06
1.18761e-06
1.15437e-06
1.16058e-06
1.22105e-06
1.3664e-06
1.67139e-06
2.38529e-06
5.03273e-06
1.39124e-05
6.60438e-06
4.62434e-06
3.75384e-06
3.30265e-06
3.06411e-06
2.95457e-06
2.93293e-06
2.97648e-06
3.07139e-06
3.20842e-06
3.38099e-06
3.58418e-06
3.81412e-06
4.06769e-06
4.34231e-06
4.63579e-06
4.94628e-06
5.2722e-06
5.61219e-06
5.9651e-06
6.3299e-06
6.70574e-06
7.09185e-06
7.48755e-06
7.89222e-06
8.3053e-06
8.72621e-06
9.15441e-06
9.58932e-06
1.00304e-05
1.04769e-05
1.09283e-05
1.13838e-05
1.18427e-05
1.23042e-05
1.27675e-05
1.32317e-05
1.3696e-05
1.41595e-05
1.46214e-05
1.50807e-05
1.55367e-05
1.59884e-05
1.64352e-05
1.68762e-05
1.73108e-05
1.77382e-05
1.81577e-05
1.85689e-05
1.8971e-05
1.93636e-05
1.9746e-05
2.01177e-05
2.04781e-05
2.08267e-05
2.11628e-05
2.14857e-05
2.17948e-05
2.20894e-05
2.23684e-05
2.26312e-05
2.28767e-05
2.31038e-05
2.33114e-05
2.34983e-05
2.36633e-05
2.3805e-05
2.3922e-05
2.4013e-05
2.40763e-05
2.41076e-05
2.41119e-05
2.40855e-05
2.40261e-05
2.39325e-05
2.38038e-05
2.36389e-05
2.34374e-05
2.31986e-05
2.29222e-05
2.26083e-05
2.2257e-05
2.18688e-05
2.14446e-05
2.09853e-05
2.04926e-05
1.9968e-05
1.94135e-05
1.88316e-05
1.82248e-05
1.75959e-05
1.69479e-05
1.62841e-05
1.56078e-05
1.49225e-05
1.42317e-05
1.35388e-05
1.28473e-05
1.21606e-05
1.14818e-05
1.08139e-05
1.01599e-05
9.52211e-06
8.90291e-06
8.30425e-06
7.7278e-06
7.17491e-06
6.64663e-06
6.14371e-06
5.66664e-06
5.21563e-06
4.79068e-06
4.3916e-06
4.018e-06
3.66941e-06
3.34525e-06
3.04491e-06
2.76777e-06
2.51326e-06
2.2809e-06
2.07038e-06
1.8816e-06
1.71476e-06
1.57045e-06
1.44986e-06
1.35498e-06
1.28905e-06
1.25735e-06
1.26881e-06
1.3397e-06
1.50368e-06
1.84319e-06
2.63347e-06
5.55827e-06
1.55613e-05
7.38318e-06
5.16225e-06
4.18068e-06
3.66691e-06
3.39013e-06
3.25709e-06
3.22207e-06
3.25972e-06
3.35476e-06
3.49691e-06
3.67887e-06
3.89516e-06
4.14145e-06
4.41424e-06
4.7106e-06
5.02807e-06
5.36454e-06
5.71819e-06
6.08745e-06
6.47098e-06
6.86759e-06
7.27626e-06
7.69608e-06
8.12622e-06
8.56595e-06
9.01453e-06
9.4713e-06
9.93555e-06
1.04066e-05
1.08837e-05
1.13662e-05
1.18532e-05
1.2344e-05
1.28376e-05
1.33332e-05
1.38299e-05
1.43268e-05
1.4823e-05
1.53175e-05
1.58095e-05
1.62981e-05
1.67824e-05
1.72617e-05
1.77352e-05
1.82023e-05
1.86622e-05
1.91144e-05
1.95583e-05
1.99934e-05
2.04191e-05
2.0835e-05
2.12406e-05
2.16354e-05
2.2019e-05
2.23906e-05
2.27499e-05
2.3096e-05
2.34284e-05
2.37462e-05
2.40485e-05
2.43344e-05
2.46028e-05
2.48526e-05
2.50826e-05
2.52913e-05
2.54775e-05
2.56396e-05
2.57762e-05
2.58856e-05
2.59663e-05
2.6014e-05
2.60302e-05
2.60163e-05
2.59672e-05
2.58815e-05
2.57582e-05
2.55963e-05
2.53948e-05
2.5153e-05
2.48705e-05
2.45471e-05
2.41829e-05
2.37781e-05
2.33336e-05
2.28503e-05
2.23296e-05
2.17732e-05
2.11831e-05
2.05617e-05
1.99117e-05
1.92361e-05
1.8538e-05
1.78209e-05
1.70885e-05
1.63446e-05
1.55929e-05
1.48373e-05
1.40818e-05
1.333e-05
1.25857e-05
1.18523e-05
1.1133e-05
1.04308e-05
9.74834e-06
9.08802e-06
8.45182e-06
7.84139e-06
7.25805e-06
6.70276e-06
6.17617e-06
5.67862e-06
5.21018e-06
4.7707e-06
4.3598e-06
3.97696e-06
3.62156e-06
3.2929e-06
2.99027e-06
2.713e-06
2.46052e-06
2.23242e-06
2.02852e-06
1.84895e-06
1.6943e-06
1.56578e-06
1.46548e-06
1.39685e-06
1.36558e-06
1.38133e-06
1.46187e-06
1.64394e-06
2.01778e-06
2.88489e-06
6.09012e-06
1.72993e-05
8.20402e-06
5.72924e-06
4.63092e-06
4.05179e-06
3.73556e-06
3.57886e-06
3.53108e-06
3.56398e-06
3.66076e-06
3.81002e-06
4.00364e-06
4.23552e-06
4.50081e-06
4.79558e-06
5.11654e-06
5.46087e-06
5.82617e-06
6.21038e-06
6.61169e-06
7.02853e-06
7.45955e-06
7.90354e-06
8.35941e-06
8.8262e-06
9.303e-06
9.78896e-06
1.02833e-05
1.0785e-05
1.12935e-05
1.18078e-05
1.2327e-05
1.28503e-05
1.33767e-05
1.39053e-05
1.4435e-05
1.4965e-05
1.54942e-05
1.60217e-05
1.65465e-05
1.70678e-05
1.75847e-05
1.80964e-05
1.86022e-05
1.91015e-05
1.95934e-05
2.00776e-05
2.05535e-05
2.10207e-05
2.14787e-05
2.1927e-05
2.23654e-05
2.27933e-05
2.32104e-05
2.36163e-05
2.40103e-05
2.4392e-05
2.47606e-05
2.51155e-05
2.54559e-05
2.57808e-05
2.60892e-05
2.638e-05
2.6652e-05
2.69038e-05
2.71339e-05
2.7341e-05
2.75232e-05
2.76791e-05
2.7807e-05
2.79051e-05
2.79703e-05
2.7999e-05
2.79981e-05
2.79605e-05
2.78843e-05
2.77683e-05
2.76113e-05
2.74122e-05
2.71702e-05
2.68845e-05
2.65548e-05
2.6181e-05
2.57632e-05
2.5302e-05
2.47983e-05
2.42534e-05
2.36687e-05
2.30463e-05
2.23887e-05
2.16984e-05
2.09785e-05
2.02324e-05
1.94637e-05
1.86763e-05
1.78742e-05
1.70616e-05
1.62427e-05
1.54219e-05
1.46034e-05
1.37912e-05
1.29893e-05
1.22014e-05
1.14309e-05
1.06811e-05
9.95471e-06
9.25408e-06
8.58129e-06
7.93797e-06
7.32535e-06
6.74432e-06
6.19539e-06
5.67876e-06
5.19434e-06
4.7418e-06
4.32062e-06
3.93013e-06
3.56956e-06
3.23812e-06
2.93504e-06
2.65965e-06
2.41143e-06
2.1901e-06
1.99575e-06
1.82891e-06
1.6908e-06
1.5836e-06
1.51096e-06
1.47899e-06
1.49809e-06
1.58751e-06
1.78712e-06
2.19509e-06
3.13949e-06
6.62818e-06
1.91291e-05
9.06806e-06
6.32603e-06
5.105e-06
4.45751e-06
4.10047e-06
3.91982e-06
3.85977e-06
3.88904e-06
3.98911e-06
4.14741e-06
4.35493e-06
4.60484e-06
4.89173e-06
5.21119e-06
5.55947e-06
5.93342e-06
6.33029e-06
6.74773e-06
7.18367e-06
7.6363e-06
8.10406e-06
8.58554e-06
9.07948e-06
9.58474e-06
1.01003e-05
1.0625e-05
1.1158e-05
1.16983e-05
1.2245e-05
1.27969e-05
1.33532e-05
1.39128e-05
1.44746e-05
1.50376e-05
1.56008e-05
1.61632e-05
1.67236e-05
1.72812e-05
1.7835e-05
1.83841e-05
1.89278e-05
1.94653e-05
1.99958e-05
2.0519e-05
2.10341e-05
2.15408e-05
2.20386e-05
2.25272e-05
2.30063e-05
2.34756e-05
2.39346e-05
2.43832e-05
2.48209e-05
2.52473e-05
2.5662e-05
2.60644e-05
2.64539e-05
2.68296e-05
2.71909e-05
2.75367e-05
2.78659e-05
2.81775e-05
2.847e-05
2.87421e-05
2.89922e-05
2.92189e-05
2.94203e-05
2.95947e-05
2.97404e-05
2.98554e-05
2.99378e-05
2.99817e-05
2.99925e-05
2.99678e-05
2.99028e-05
2.97962e-05
2.96466e-05
2.94529e-05
2.92139e-05
2.89288e-05
2.8597e-05
2.82181e-05
2.77921e-05
2.73193e-05
2.68004e-05
2.62364e-05
2.56287e-05
2.49793e-05
2.42903e-05
2.35644e-05
2.28047e-05
2.20145e-05
2.11977e-05
2.03581e-05
1.95002e-05
1.86284e-05
1.77472e-05
1.68614e-05
1.59756e-05
1.50943e-05
1.42222e-05
1.33633e-05
1.25218e-05
1.17011e-05
1.09048e-05
1.01355e-05
9.39589e-06
8.68792e-06
8.01319e-06
7.37289e-06
6.76776e-06
6.1982e-06
5.66424e-06
5.16563e-06
4.70188e-06
4.27231e-06
3.87609e-06
3.51238e-06
3.18029e-06
2.87906e-06
2.60804e-06
2.36688e-06
2.15556e-06
1.97457e-06
1.82513e-06
1.7095e-06
1.63152e-06
1.59768e-06
1.61915e-06
1.71668e-06
1.93331e-06
2.37523e-06
3.39743e-06
7.17276e-06
2.10532e-05
9.97639e-06
6.95326e-06
5.60332e-06
4.88433e-06
4.485e-06
4.28002e-06
4.20815e-06
4.23481e-06
4.33972e-06
4.50897e-06
4.73257e-06
5.00292e-06
5.31397e-06
5.66073e-06
6.03902e-06
6.44523e-06
6.87626e-06
7.32942e-06
7.80236e-06
8.29302e-06
8.79957e-06
9.32042e-06
9.85409e-06
1.03993e-05
1.09547e-05
1.15192e-05
1.20917e-05
1.2671e-05
1.32559e-05
1.38455e-05
1.44384e-05
1.50337e-05
1.56301e-05
1.62266e-05
1.68219e-05
1.74151e-05
1.80051e-05
1.85909e-05
1.91716e-05
1.97465e-05
2.03146e-05
2.08755e-05
2.14284e-05
2.1973e-05
2.25088e-05
2.30355e-05
2.35527e-05
2.40603e-05
2.45579e-05
2.50455e-05
2.55227e-05
2.59892e-05
2.64449e-05
2.68893e-05
2.73219e-05
2.77423e-05
2.81498e-05
2.85436e-05
2.8923e-05
2.92869e-05
2.96343e-05
2.99639e-05
3.02744e-05
3.05644e-05
3.08323e-05
3.10765e-05
3.12952e-05
3.14867e-05
3.16491e-05
3.17805e-05
3.18789e-05
3.19394e-05
3.19621e-05
3.19513e-05
3.18992e-05
3.18043e-05
3.16652e-05
3.14804e-05
3.12486e-05
3.09687e-05
3.06399e-05
3.02616e-05
2.98334e-05
2.93553e-05
2.88278e-05
2.82515e-05
2.76278e-05
2.69581e-05
2.62447e-05
2.54898e-05
2.46965e-05
2.38682e-05
2.30085e-05
2.21216e-05
2.1212e-05
2.02842e-05
1.93433e-05
1.83943e-05
1.74422e-05
1.64922e-05
1.55492e-05
1.4618e-05
1.37032e-05
1.28091e-05
1.19395e-05
1.1098e-05
1.02874e-05
9.51035e-06
8.76888e-06
8.06453e-06
7.39839e-06
6.77109e-06
6.18287e-06
5.63361e-06
5.12289e-06
4.65005e-06
4.21426e-06
3.81459e-06
3.4501e-06
3.11989e-06
2.82324e-06
2.55967e-06
2.32906e-06
2.13185e-06
1.96924e-06
1.84354e-06
1.75879e-06
1.72187e-06
1.74471e-06
1.84957e-06
2.08271e-06
2.55843e-06
3.65905e-06
7.72464e-06
2.30735e-05
1.093e-05
7.61154e-06
6.12629e-06
5.33249e-06
4.88931e-06
4.65956e-06
4.57627e-06
4.60133e-06
4.71259e-06
4.89468e-06
5.13654e-06
5.42971e-06
5.76741e-06
6.14406e-06
6.55491e-06
6.99591e-06
7.46353e-06
7.95473e-06
8.46682e-06
8.99746e-06
9.54458e-06
1.01063e-05
1.0681e-05
1.12671e-05
1.18633e-05
1.2468e-05
1.30801e-05
1.36983e-05
1.43212e-05
1.49477e-05
1.55764e-05
1.62062e-05
1.68357e-05
1.74638e-05
1.80893e-05
1.87112e-05