/*--------------------------------*- C++ -*----------------------------------*\
  =========                 |
  \\      /  F ield         | OpenFOAM: The Open Source CFD Toolbox
   \\    /   O peration     | Website:  https://openfoam.org
    \\  /    A nd           | Version:  12
     \\/     M anipulation  |
\*---------------------------------------------------------------------------*/
FoamFile
{
    format      ascii;
    class       volScalarField;
    location    "5.5";
    object      k;
}
// * * * * * * * * * * * * * * * * * * * * * * * * * * * * * * * * * * * * * //

dimensions      [0 2 -2 0 0 0 0];

internalField   nonuniform List<scalar> 
18225
(
2.80554e-11
1.40204e-10
3.06832e-10
5.06923e-10
7.31109e-10
9.73858e-10
1.23126e-09
1.50028e-09
1.77845e-09
2.06369e-09
2.35428e-09
2.64875e-09
2.94583e-09
3.24451e-09
3.54394e-09
3.84345e-09
4.14251e-09
4.44076e-09
4.73797e-09
5.03399e-09
5.32881e-09
5.62251e-09
5.91523e-09
6.20717e-09
6.49859e-09
6.78979e-09
7.08107e-09
7.37276e-09
7.66518e-09
7.95863e-09
8.25339e-09
8.54973e-09
8.84785e-09
9.14793e-09
9.45009e-09
9.75441e-09
1.00609e-08
1.03696e-08
1.06803e-08
1.09929e-08
1.13073e-08
1.16231e-08
1.19401e-08
1.2258e-08
1.25762e-08
1.28944e-08
1.32121e-08
1.35287e-08
1.38435e-08
1.4156e-08
1.44654e-08
1.4771e-08
1.5072e-08
1.53676e-08
1.56567e-08
1.59386e-08
1.62122e-08
1.64766e-08
1.67307e-08
1.69733e-08
1.72034e-08
1.74199e-08
1.76217e-08
1.78074e-08
1.79761e-08
1.81265e-08
1.82575e-08
1.83679e-08
1.84568e-08
1.85232e-08
1.85657e-08
1.85835e-08
1.85768e-08
1.85442e-08
1.84852e-08
1.8399e-08
1.82855e-08
1.81444e-08
1.79756e-08
1.77793e-08
1.75558e-08
1.73054e-08
1.70289e-08
1.6727e-08
1.64006e-08
1.6051e-08
1.56794e-08
1.52872e-08
1.4876e-08
1.44476e-08
1.40038e-08
1.35464e-08
1.30775e-08
1.2599e-08
1.21131e-08
1.16218e-08
1.11273e-08
1.06314e-08
1.01363e-08
9.64373e-09
9.15564e-09
8.67371e-09
8.19953e-09
7.73456e-09
7.28013e-09
6.83742e-09
6.40745e-09
5.99109e-09
5.58906e-09
5.20192e-09
4.83009e-09
4.47384e-09
4.1333e-09
3.80851e-09
3.49935e-09
3.2056e-09
2.92695e-09
2.66303e-09
2.41336e-09
2.17745e-09
1.95474e-09
1.74466e-09
1.54661e-09
1.36004e-09
1.18438e-09
1.01915e-09
8.63927e-10
7.18404e-10
5.8243e-10
4.5607e-10
3.39696e-10
2.34163e-10
1.41185e-10
6.43744e-11
1.28749e-11
1.40288e-10
1.20702e-09
2.72727e-09
4.53696e-09
6.55962e-09
8.74771e-09
1.10668e-08
1.34899e-08
1.5995e-08
1.85635e-08
2.11798e-08
2.38305e-08
2.65047e-08
2.9193e-08
3.18879e-08
3.45832e-08
3.72745e-08
3.99583e-08
4.26326e-08
4.52961e-08
4.79488e-08
5.05912e-08
5.32248e-08
5.58513e-08
5.84731e-08
6.10929e-08
6.37134e-08
6.63375e-08
6.89683e-08
7.16083e-08
7.42602e-08
7.69262e-08
7.96084e-08
8.23082e-08
8.50268e-08
8.77649e-08
9.05226e-08
9.32997e-08
9.60954e-08
9.89085e-08
1.01737e-07
1.04579e-07
1.07432e-07
1.10292e-07
1.13156e-07
1.1602e-07
1.18878e-07
1.21727e-07
1.24561e-07
1.27373e-07
1.30158e-07
1.32908e-07
1.35617e-07
1.38277e-07
1.4088e-07
1.43417e-07
1.4588e-07
1.4826e-07
1.50547e-07
1.52732e-07
1.54804e-07
1.56753e-07
1.58569e-07
1.60242e-07
1.61761e-07
1.63116e-07
1.64296e-07
1.65291e-07
1.66091e-07
1.66686e-07
1.67065e-07
1.67223e-07
1.6716e-07
1.66864e-07
1.6633e-07
1.65552e-07
1.64528e-07
1.63256e-07
1.61734e-07
1.59965e-07
1.57951e-07
1.55696e-07
1.53206e-07
1.50487e-07
1.47549e-07
1.44401e-07
1.41055e-07
1.37525e-07
1.33825e-07
1.29969e-07
1.25975e-07
1.21859e-07
1.17639e-07
1.13334e-07
1.08961e-07
1.04541e-07
1.00091e-07
9.563e-08
9.11753e-08
8.67442e-08
8.23531e-08
7.80175e-08
7.37517e-08
6.95688e-08
6.54808e-08
6.14983e-08
5.76303e-08
5.38849e-08
5.02684e-08
4.67859e-08
4.34412e-08
4.02366e-08
3.71733e-08
3.42514e-08
3.147e-08
2.88272e-08
2.63205e-08
2.39463e-08
2.17004e-08
1.95784e-08
1.75751e-08
1.56855e-08
1.39042e-08
1.22261e-08
1.06461e-08
9.15989e-09
7.76358e-09
6.45439e-09
5.23091e-09
4.0936e-09
3.04566e-09
2.0944e-09
1.25419e-09
5.53923e-10
6.43474e-11
3.07774e-10
2.73383e-09
6.22965e-09
1.0407e-08
1.50812e-08
2.0139e-08
2.54994e-08
3.10996e-08
3.68886e-08
4.28235e-08
4.88682e-08
5.49922e-08
6.11698e-08
6.73796e-08
7.3604e-08
7.98293e-08
8.60447e-08
9.22426e-08
9.84182e-08
1.04569e-07
1.10694e-07
1.16796e-07
1.22877e-07
1.28942e-07
1.34997e-07
1.41047e-07
1.47099e-07
1.5316e-07
1.59236e-07
1.65335e-07
1.71461e-07
1.77621e-07
1.83818e-07
1.90057e-07
1.9634e-07
2.02668e-07
2.09041e-07
2.1546e-07
2.21923e-07
2.28425e-07
2.34964e-07
2.41533e-07
2.48127e-07
2.54738e-07
2.61358e-07
2.67977e-07
2.74583e-07
2.81167e-07
2.87714e-07
2.94212e-07
3.00645e-07
3.06998e-07
3.13254e-07
3.19396e-07
3.25405e-07
3.31261e-07
3.36944e-07
3.42434e-07
3.47708e-07
3.52744e-07
3.57518e-07
3.62008e-07
3.6619e-07
3.70039e-07
3.73531e-07
3.76643e-07
3.7935e-07
3.8163e-07
3.8346e-07
3.84818e-07
3.85677e-07
3.86022e-07
3.85862e-07
3.85164e-07
3.83914e-07
3.82102e-07
3.79721e-07
3.76767e-07
3.73238e-07
3.69139e-07
3.64474e-07
3.59253e-07
3.5349e-07
3.472e-07
3.40405e-07
3.33127e-07
3.25394e-07
3.17235e-07
3.08684e-07
2.99777e-07
2.90549e-07
2.81043e-07
2.71298e-07
2.61357e-07
2.51263e-07
2.41058e-07
2.30787e-07
2.2049e-07
2.10209e-07
1.99984e-07
1.89852e-07
1.79849e-07
1.70008e-07
1.60359e-07
1.50929e-07
1.41744e-07
1.32823e-07
1.24186e-07
1.15846e-07
1.07816e-07
1.00104e-07
9.27153e-08
8.56533e-08
7.89178e-08
7.25067e-08
6.64155e-08
6.06379e-08
5.51658e-08
4.99898e-08
4.5099e-08
4.04822e-08
3.61271e-08
3.20217e-08
2.81538e-08
2.45121e-08
2.10862e-08
1.78673e-08
1.48489e-08
1.20278e-08
9.40497e-09
6.98807e-09
4.79455e-09
2.8591e-09
1.2521e-09
1.40882e-10
5.107e-10
4.5675e-09
1.04518e-08
1.75096e-08
2.5421e-08
3.39884e-08
4.30714e-08
5.25618e-08
6.2372e-08
7.24291e-08
8.26717e-08
9.30477e-08
1.03514e-07
1.14033e-07
1.24577e-07
1.35121e-07
1.45648e-07
1.56145e-07
1.66603e-07
1.77019e-07
1.87392e-07
1.97725e-07
2.08024e-07
2.18295e-07
2.28549e-07
2.38797e-07
2.49049e-07
2.59316e-07
2.69612e-07
2.79946e-07
2.90328e-07
3.00768e-07
3.11273e-07
3.21849e-07
3.325e-07
3.43229e-07
3.54037e-07
3.64922e-07
3.7588e-07
3.86907e-07
3.97994e-07
4.09134e-07
4.20315e-07
4.31523e-07
4.42745e-07
4.53964e-07
4.65161e-07
4.76317e-07
4.87409e-07
4.98415e-07
5.09309e-07
5.20065e-07
5.30653e-07
5.41045e-07
5.51209e-07
5.6111e-07
5.70717e-07
5.79991e-07
5.88898e-07
5.97398e-07
6.05453e-07
6.13022e-07
6.20067e-07
6.26547e-07
6.3242e-07
6.37647e-07
6.42188e-07
6.46005e-07
6.49059e-07
6.51316e-07
6.52721e-07
6.5326e-07
6.52948e-07
6.51724e-07
6.49565e-07
6.46455e-07
6.42383e-07
6.37342e-07
6.3133e-07
6.24353e-07
6.1642e-07
6.07548e-07
5.97759e-07
5.87082e-07
5.7555e-07
5.63203e-07
5.50089e-07
5.36256e-07
5.21762e-07
5.06666e-07
4.91032e-07
4.74928e-07
4.58423e-07
4.41589e-07
4.24499e-07
4.07225e-07
3.8984e-07
3.72416e-07
3.55021e-07
3.37724e-07
3.20587e-07
3.0367e-07
2.8703e-07
2.70717e-07
2.54778e-07
2.39254e-07
2.24179e-07
2.09585e-07
1.95497e-07
1.81933e-07
1.68908e-07
1.5643e-07
1.44506e-07
1.33134e-07
1.22311e-07
1.1203e-07
1.02278e-07
9.30422e-08
8.43068e-08
7.60533e-08
6.82622e-08
6.0913e-08
5.3985e-08
4.74579e-08
4.13122e-08
3.55304e-08
3.00977e-08
2.50031e-08
2.02413e-08
1.58145e-08
1.17362e-08
8.03748e-09
4.7795e-09
2.08434e-09
2.32916e-10
7.41262e-10
6.64575e-09
1.5242e-08
2.55817e-08
3.71922e-08
4.97778e-08
6.3128e-08
7.70808e-08
9.15056e-08
1.06294e-07
1.21355e-07
1.36611e-07
1.51999e-07
1.67465e-07
1.82965e-07
1.98464e-07
2.13938e-07
2.29366e-07
2.44738e-07
2.60046e-07
2.75292e-07
2.90479e-07
3.05616e-07
3.20714e-07
3.35788e-07
3.50854e-07
3.65928e-07
3.81027e-07
3.96169e-07
4.11369e-07
4.26643e-07
4.42004e-07
4.57462e-07
4.73026e-07
4.88702e-07
5.04494e-07
5.20401e-07
5.36421e-07
5.5255e-07
5.68778e-07
5.85094e-07
6.01484e-07
6.17932e-07
6.34418e-07
6.50919e-07
6.67412e-07
6.83868e-07
7.00258e-07
7.1655e-07
7.32708e-07
7.48695e-07
7.64473e-07
7.79999e-07
7.95229e-07
8.10117e-07
8.24614e-07
8.3867e-07
8.52233e-07
8.6525e-07
8.77664e-07
8.89419e-07
9.00457e-07
9.10721e-07
9.2015e-07
9.28688e-07
9.36275e-07
9.42853e-07
9.48367e-07
9.52763e-07
9.55989e-07
9.57955e-07
9.58662e-07
9.58124e-07
9.56247e-07
9.53001e-07
9.4836e-07
9.42308e-07
9.34837e-07
9.25944e-07
9.15636e-07
9.0393e-07
8.90847e-07
8.76421e-07
8.60694e-07
8.43716e-07
8.25545e-07
8.06248e-07
7.85902e-07
7.64586e-07
7.42391e-07
7.19411e-07
6.95743e-07
6.71492e-07
6.46761e-07
6.21659e-07
5.96293e-07
5.70769e-07
5.45192e-07
5.19664e-07
4.94284e-07
4.69145e-07
4.44336e-07
4.19937e-07
3.96023e-07
3.72663e-07
3.49916e-07
3.27833e-07
3.06458e-07
2.85828e-07
2.6597e-07
2.46905e-07
2.28646e-07
2.11199e-07
1.94563e-07
1.78732e-07
1.63695e-07
1.49435e-07
1.35931e-07
1.2316e-07
1.11094e-07
9.97042e-08
8.89611e-08
7.88339e-08
6.92926e-08
6.03087e-08
5.18564e-08
4.39143e-08
3.64666e-08
2.95057e-08
2.30359e-08
1.70781e-08
1.16797e-08
6.93253e-09
3.01638e-09
3.36241e-10
9.95744e-10
8.93743e-09
2.05251e-08
3.44907e-08
5.0196e-08
6.72368e-08
8.53241e-08
1.04235e-07
1.23789e-07
1.43839e-07
1.64259e-07
1.84944e-07
2.05807e-07
2.26775e-07
2.47788e-07
2.688e-07
2.89775e-07
3.10689e-07
3.31524e-07
3.52274e-07
3.72939e-07
3.93525e-07
4.14045e-07
4.34513e-07
4.54951e-07
4.75379e-07
4.95821e-07
5.163e-07
5.3684e-07
5.57462e-07
5.78186e-07
5.99029e-07
6.20007e-07
6.41129e-07
6.62404e-07
6.83834e-07
7.05421e-07
7.27159e-07
7.4904e-07
7.71051e-07
7.93177e-07
8.15398e-07
8.3769e-07
8.60025e-07
8.82372e-07
9.04697e-07
9.26963e-07
9.49128e-07
9.71147e-07
9.92975e-07
1.01456e-06
1.03585e-06
1.05678e-06
1.0773e-06
1.09735e-06
1.11685e-06
1.13575e-06
1.15398e-06
1.17145e-06
1.1881e-06
1.20385e-06
1.21863e-06
1.23235e-06
1.24495e-06
1.25634e-06
1.26644e-06
1.27517e-06
1.28247e-06
1.28827e-06
1.29248e-06
1.29498e-06
1.29581e-06
1.29495e-06
1.29229e-06
1.28778e-06
1.2814e-06
1.27311e-06
1.26291e-06
1.25079e-06
1.23676e-06
1.22085e-06
1.20308e-06
1.18351e-06
1.16217e-06
1.13915e-06
1.11451e-06
1.08836e-06
1.06079e-06
1.03191e-06
1.00185e-06
9.70728e-07
9.38681e-07
9.05849e-07
8.72375e-07
8.38404e-07
8.04081e-07
7.69552e-07
7.34959e-07
7.0044e-07
6.66129e-07
6.32153e-07
5.9863e-07
5.65672e-07
5.33378e-07
5.0184e-07
4.71138e-07
4.41341e-07
4.12509e-07
3.84689e-07
3.57917e-07
3.32221e-07
3.07618e-07
2.84114e-07
2.61708e-07
2.40392e-07
2.20147e-07
2.00952e-07
1.82778e-07
1.65592e-07
1.49356e-07
1.34032e-07
1.19578e-07
1.05953e-07
9.31165e-08
8.10298e-08
6.96584e-08
5.89733e-08
4.89538e-08
3.95905e-08
3.08902e-08
2.28827e-08
1.56335e-08
9.26799e-09
4.02717e-09
4.48402e-10
1.27222e-09
1.1426e-08
2.62617e-08
4.41673e-08
6.43268e-08
8.62198e-08
1.09472e-07
1.33792e-07
1.58947e-07
1.84744e-07
2.11019e-07
2.37637e-07
2.64484e-07
2.91466e-07
3.18505e-07
3.45542e-07
3.7253e-07
3.99438e-07
4.26245e-07
4.52943e-07
4.7953e-07
5.06017e-07
5.32419e-07
5.58758e-07
5.85059e-07
6.1135e-07
6.37661e-07
6.64024e-07
6.90467e-07
7.17017e-07
7.43701e-07
7.7054e-07
7.9755e-07
8.24747e-07
8.52137e-07
8.79723e-07
9.07505e-07
9.35475e-07
9.63621e-07
9.91924e-07
1.02036e-06
1.04891e-06
1.07753e-06
1.1062e-06
1.13486e-06
1.16348e-06
1.192e-06
1.22037e-06
1.24853e-06
1.27642e-06
1.30399e-06
1.33115e-06
1.35784e-06
1.38397e-06
1.40949e-06
1.43429e-06
1.4583e-06
1.48143e-06
1.50358e-06
1.52467e-06
1.5446e-06
1.56328e-06
1.58061e-06
1.59649e-06
1.61082e-06
1.6235e-06
1.63445e-06
1.64356e-06
1.65075e-06
1.65593e-06
1.6589e-06
1.65977e-06
1.65849e-06
1.65492e-06
1.64898e-06
1.64065e-06
1.6299e-06
1.6167e-06
1.60107e-06
1.58299e-06
1.56251e-06
1.53966e-06
1.51449e-06
1.48707e-06
1.4575e-06
1.42587e-06
1.39229e-06
1.3569e-06
1.31984e-06
1.28126e-06
1.24132e-06
1.2002e-06
1.15808e-06
1.11514e-06
1.07156e-06
1.02754e-06
9.83269e-07
9.38919e-07
8.94674e-07
8.50705e-07
8.07175e-07
7.64237e-07
7.22033e-07
6.80692e-07
6.40331e-07
6.01052e-07
5.62944e-07
5.26082e-07
4.90524e-07
4.56318e-07
4.23497e-07
3.92081e-07
3.62078e-07
3.33484e-07
3.06288e-07
2.80465e-07
2.55987e-07
2.32814e-07
2.10904e-07
1.90209e-07
1.70678e-07
1.52257e-07
1.34894e-07
1.18536e-07
1.03133e-07
8.8642e-08
7.50261e-08
6.22594e-08
5.03309e-08
3.92504e-08
2.90576e-08
1.98375e-08
1.17504e-08
5.10163e-09
5.67685e-10
1.56974e-09
1.41034e-08
3.24326e-08
5.45771e-08
7.95321e-08
1.06653e-07
1.35474e-07
1.65633e-07
1.96835e-07
2.2884e-07
2.61443e-07
2.94475e-07
3.27791e-07
3.61275e-07
3.94831e-07
4.28382e-07
4.61872e-07
4.95261e-07
5.28523e-07
5.61648e-07
5.94637e-07
6.27501e-07
6.6026e-07
6.92941e-07
7.25577e-07
7.58202e-07
7.90855e-07
8.23571e-07
8.56389e-07
8.8934e-07
9.22455e-07
9.5576e-07
9.89275e-07
1.02301e-06
1.05698e-06
1.09119e-06
1.12562e-06
1.16028e-06
1.19513e-06
1.23016e-06
1.26534e-06
1.30062e-06
1.33598e-06
1.37135e-06
1.4067e-06
1.44196e-06
1.47706e-06
1.51196e-06
1.54656e-06
1.5808e-06
1.6146e-06
1.64787e-06
1.68053e-06
1.71249e-06
1.74364e-06
1.7739e-06
1.80316e-06
1.83131e-06
1.85826e-06
1.88387e-06
1.90806e-06
1.93069e-06
1.95165e-06
1.97083e-06
1.98811e-06
2.00338e-06
2.01651e-06
2.02739e-06
2.03593e-06
2.042e-06
2.04533e-06
2.04616e-06
2.04435e-06
2.03972e-06
2.0322e-06
2.02174e-06
2.00832e-06
1.99191e-06
1.9725e-06
1.9501e-06
1.92474e-06
1.89648e-06
1.86537e-06
1.83149e-06
1.79496e-06
1.7559e-06
1.71444e-06
1.67074e-06
1.62498e-06
1.57735e-06
1.52805e-06
1.47728e-06
1.42529e-06
1.37228e-06
1.31849e-06
1.26416e-06
1.20952e-06
1.15479e-06
1.1002e-06
1.04595e-06
9.92262e-07
9.39311e-07
8.87277e-07
8.36321e-07
7.86586e-07
7.38199e-07
6.91269e-07
6.45887e-07
6.02127e-07
5.60044e-07
5.19679e-07
4.81054e-07
4.44178e-07
4.09046e-07
3.75641e-07
3.43932e-07
3.1388e-07
2.85439e-07
2.58552e-07
2.33161e-07
2.092e-07
1.86604e-07
1.65306e-07
1.45242e-07
1.26351e-07
1.08579e-07
9.18802e-08
7.62249e-08
6.16001e-08
4.80191e-08
3.55322e-08
2.42445e-08
1.43526e-08
6.22804e-09
6.9277e-10
1.88794e-09
1.69664e-08
3.90307e-08
6.57078e-08
9.57923e-08
1.28509e-07
1.63294e-07
1.99708e-07
2.37395e-07
2.76059e-07
3.15452e-07
3.55367e-07
3.9563e-07
4.36095e-07
4.76646e-07
5.1719e-07
5.57659e-07
5.98002e-07
6.3819e-07
6.7821e-07
7.18063e-07
7.57763e-07
7.97335e-07
8.36812e-07
8.76232e-07
9.15639e-07
9.55078e-07
9.94592e-07
1.03422e-06
1.07401e-06
1.11399e-06
1.15419e-06
1.19464e-06
1.23534e-06
1.2763e-06
1.31753e-06
1.359e-06
1.40072e-06
1.44265e-06
1.48476e-06
1.527e-06
1.56935e-06
1.61173e-06
1.6541e-06
1.69639e-06
1.73853e-06
1.78044e-06
1.82204e-06
1.86326e-06
1.904e-06
1.94416e-06
1.98365e-06
2.02237e-06
2.0602e-06
2.09705e-06
2.13279e-06
2.16731e-06
2.20049e-06
2.2322e-06
2.26232e-06
2.29071e-06
2.31724e-06
2.34178e-06
2.3642e-06
2.38435e-06
2.4021e-06
2.41732e-06
2.42988e-06
2.43964e-06
2.44649e-06
2.45005e-06
2.45073e-06
2.44824e-06
2.4424e-06
2.43314e-06
2.42039e-06
2.40412e-06
2.38429e-06
2.3609e-06
2.33396e-06
2.30349e-06
2.26956e-06
2.23223e-06
2.19161e-06
2.14782e-06
2.101e-06
2.05131e-06
1.99894e-06
1.94411e-06
1.88703e-06
1.82794e-06
1.7671e-06
1.70478e-06
1.64124e-06
1.57677e-06
1.51165e-06
1.44614e-06
1.38054e-06
1.3151e-06
1.25008e-06
1.18573e-06
1.12227e-06
1.05993e-06
9.98883e-07
9.39314e-07
8.81372e-07
8.2519e-07
7.70875e-07
7.18518e-07
6.68183e-07
6.19918e-07
5.73749e-07
5.29685e-07
4.87719e-07
4.47827e-07
4.09973e-07
3.74107e-07
3.40171e-07
3.08098e-07
2.77814e-07
2.49241e-07
2.22299e-07
1.96908e-07
1.72988e-07
1.50469e-07
1.29284e-07
1.09381e-07
9.07229e-08
7.32966e-08
5.71186e-08
4.225e-08
2.88168e-08
1.70524e-08
7.39688e-09
8.22592e-10
2.22688e-09
2.00157e-08
4.60575e-08
7.75612e-08
1.1311e-07
1.51788e-07
1.92932e-07
2.36018e-07
2.80624e-07
3.26398e-07
3.73043e-07
4.20312e-07
4.67994e-07
5.15918e-07
5.63942e-07
6.11955e-07
6.59875e-07
7.07641e-07
7.55218e-07
8.0259e-07
8.49758e-07
8.9674e-07
9.43565e-07
9.90271e-07
1.03691e-06
1.08352e-06
1.13016e-06
1.17688e-06
1.22373e-06
1.27076e-06
1.318e-06
1.36548e-06
1.41322e-06
1.46124e-06
1.50955e-06
1.55813e-06
1.60697e-06
1.65604e-06
1.70533e-06
1.75477e-06
1.80433e-06
1.85394e-06
1.90355e-06
1.95308e-06
2.00245e-06
2.05158e-06
2.10038e-06
2.14877e-06
2.19663e-06
2.24388e-06
2.2904e-06
2.33608e-06
2.3808e-06
2.42445e-06
2.46691e-06
2.50803e-06
2.5477e-06
2.58577e-06
2.62212e-06
2.65658e-06
2.68903e-06
2.7193e-06
2.74726e-06
2.77274e-06
2.79559e-06
2.81567e-06
2.83281e-06
2.84687e-06
2.8577e-06
2.86513e-06
2.86875e-06
2.86914e-06
2.86582e-06
2.85861e-06
2.84744e-06
2.83223e-06
2.81294e-06
2.78954e-06
2.76201e-06
2.73035e-06
2.69461e-06
2.65484e-06
2.61112e-06
2.56357e-06
2.51232e-06
2.45753e-06
2.3994e-06
2.33814e-06
2.27399e-06
2.2072e-06
2.13807e-06
2.06687e-06
1.99393e-06
1.91955e-06
1.84407e-06
1.76782e-06
1.69111e-06
1.61427e-06
1.53762e-06
1.46145e-06
1.38607e-06
1.31173e-06
1.23869e-06
1.16718e-06
1.09741e-06
1.02955e-06
9.63764e-07
9.00176e-07
8.38892e-07
7.7999e-07
7.23526e-07
6.69529e-07
6.1801e-07
5.68959e-07
5.22346e-07
4.78127e-07
4.36243e-07
3.96624e-07
3.59189e-07
3.23849e-07
2.90513e-07
2.59084e-07
2.29468e-07
2.01572e-07
1.7531e-07
1.50607e-07
1.27401e-07
1.0565e-07
8.5338e-08
6.64857e-08
4.91651e-08
3.35234e-08
1.98318e-08
8.60038e-09
9.56282e-10
2.58688e-09
2.32541e-08
5.35196e-08
9.0149e-08
1.315e-07
1.76513e-07
2.24414e-07
2.74595e-07
3.26562e-07
3.79901e-07
4.34266e-07
4.89363e-07
5.44946e-07
6.00809e-07
6.56787e-07
7.12746e-07
7.68588e-07
8.24242e-07
8.79665e-07
9.34838e-07
9.89762e-07
1.04446e-06
1.09896e-06
1.1533e-06
1.20756e-06
1.26177e-06
1.316e-06
1.37031e-06
1.42474e-06
1.47936e-06
1.5342e-06
1.58928e-06
1.64464e-06
1.70027e-06
1.75619e-06
1.81238e-06
1.86881e-06
1.92546e-06
1.98228e-06
2.03922e-06
2.09621e-06
2.1532e-06
2.2101e-06
2.26682e-06
2.32329e-06
2.3794e-06
2.43505e-06
2.49014e-06
2.54456e-06
2.5982e-06
2.65093e-06
2.70263e-06
2.75318e-06
2.80244e-06
2.85028e-06
2.89656e-06
2.94114e-06
2.98386e-06
3.02458e-06
3.06313e-06
3.09937e-06
3.13313e-06
3.16423e-06
3.19252e-06
3.21782e-06
3.23996e-06
3.25878e-06
3.27411e-06
3.28578e-06
3.29354e-06
3.29701e-06
3.29695e-06
3.29259e-06
3.28384e-06
3.27059e-06
3.25278e-06
3.23034e-06
3.20324e-06
3.17144e-06
3.13497e-06
3.09385e-06
3.04815e-06
2.99796e-06
2.9434e-06
2.88461e-06
2.82179e-06
2.75514e-06
2.68491e-06
2.61136e-06
2.53478e-06
2.4555e-06
2.37383e-06
2.29014e-06
2.20479e-06
2.11814e-06
2.03058e-06
1.94247e-06
1.8542e-06
1.76611e-06
1.67857e-06
1.5919e-06
1.50642e-06
1.42242e-06
1.34018e-06
1.25993e-06
1.18187e-06
1.1062e-06
1.03307e-06
9.62592e-07
8.94865e-07
8.29952e-07
7.6789e-07
7.08689e-07
6.52339e-07
5.98804e-07
5.48033e-07
4.99957e-07
4.54492e-07
4.11545e-07
3.71012e-07
3.32785e-07
2.96752e-07
2.62803e-07
2.30831e-07
2.00735e-07
1.72429e-07
1.45841e-07
1.20923e-07
9.76577e-08
7.60693e-08
5.62403e-08
3.83394e-08
2.26762e-08
9.83216e-09
1.09313e-09
2.96844e-09
2.66862e-08
6.14278e-08
1.03489e-07
1.50991e-07
2.02719e-07
2.57787e-07
3.15495e-07
3.75273e-07
4.36645e-07
4.99208e-07
5.62619e-07
6.2659e-07
6.90882e-07
7.55298e-07
8.19683e-07
8.83919e-07
9.47923e-07
1.01164e-06
1.07506e-06
1.13816e-06
1.20098e-06
1.26356e-06
1.32594e-06
1.38818e-06
1.45035e-06
1.51252e-06
1.57474e-06
1.63708e-06
1.69958e-06
1.7623e-06
1.82525e-06
1.88845e-06
1.95192e-06
2.01564e-06
2.0796e-06
2.14376e-06
2.20809e-06
2.27252e-06
2.337e-06
2.40144e-06
2.46577e-06
2.52991e-06
2.59375e-06
2.65719e-06
2.72013e-06
2.78245e-06
2.84404e-06
2.90478e-06
2.96454e-06
3.0232e-06
3.08063e-06
3.13668e-06
3.19122e-06
3.24411e-06
3.29519e-06
3.34431e-06
3.39131e-06
3.43603e-06
3.47831e-06
3.51797e-06
3.55483e-06
3.58873e-06
3.61946e-06
3.64686e-06
3.67074e-06
3.69092e-06
3.7072e-06
3.71942e-06
3.72719e-06
3.73037e-06
3.72957e-06
3.72397e-06
3.71348e-06
3.698e-06
3.67744e-06
3.65174e-06
3.62084e-06
3.58473e-06
3.5434e-06
3.4969e-06
3.44528e-06
3.38864e-06
3.32711e-06
3.26086e-06
3.19008e-06
3.11499e-06
3.03587e-06
2.95301e-06
2.86672e-06
2.77736e-06
2.6853e-06
2.59091e-06
2.49462e-06
2.39682e-06
2.29795e-06
2.19842e-06
2.09866e-06
1.99907e-06
1.90005e-06
1.80198e-06
1.70523e-06
1.61012e-06
1.51697e-06
1.42606e-06
1.33762e-06
1.25186e-06
1.16898e-06
1.0891e-06
1.01234e-06
9.38775e-07
8.68447e-07
8.01373e-07
7.37539e-07
6.76909e-07
6.19423e-07
5.65001e-07
5.1355e-07
4.6496e-07
4.19113e-07
3.75885e-07
3.35147e-07
2.96774e-07
2.60641e-07
2.26634e-07
1.94654e-07
1.6462e-07
1.36476e-07
1.10204e-07
8.5829e-08
6.34461e-08
4.32448e-08
2.55737e-08
1.10872e-08
1.23257e-09
3.37217e-09
3.03176e-08
6.97951e-08
1.17604e-07
1.71614e-07
2.30451e-07
2.93106e-07
3.58787e-07
4.26842e-07
4.96727e-07
5.67978e-07
6.402e-07
7.13059e-07
7.86277e-07
8.59624e-07
9.32917e-07
1.00602e-06
1.07883e-06
1.15129e-06
1.22337e-06
1.29506e-06
1.3664e-06
1.43743e-06
1.50819e-06
1.57876e-06
1.64921e-06
1.71961e-06
1.79003e-06
1.86053e-06
1.93115e-06
2.00195e-06
2.07295e-06
2.14416e-06
2.21559e-06
2.28721e-06
2.35901e-06
2.43093e-06
2.50293e-06
2.57493e-06
2.64686e-06
2.71864e-06
2.79018e-06
2.86136e-06
2.93209e-06
3.00225e-06
3.07173e-06
3.14041e-06
3.20815e-06
3.27485e-06
3.34035e-06
3.40453e-06
3.46724e-06
3.52835e-06
3.58772e-06
3.64517e-06
3.70058e-06
3.75376e-06
3.80456e-06
3.8528e-06
3.89832e-06
3.94092e-06
3.98043e-06
4.01665e-06
4.04939e-06
4.07846e-06
4.10366e-06
4.12478e-06
4.14165e-06
4.15406e-06
4.16149e-06
4.16416e-06
4.16234e-06
4.15528e-06
4.14286e-06
4.12499e-06
4.10157e-06
4.07253e-06
4.03781e-06
3.99738e-06
3.95125e-06
3.89944e-06
3.84202e-06
3.77909e-06
3.71078e-06
3.63727e-06
3.55875e-06
3.47548e-06
3.38773e-06
3.29582e-06
3.20009e-06
3.10092e-06
2.9987e-06
2.89387e-06
2.78685e-06
2.6781e-06
2.5681e-06
2.45729e-06
2.34615e-06
2.23514e-06
2.1247e-06
2.01525e-06
1.90721e-06
1.80096e-06
1.69683e-06
1.59516e-06
1.49622e-06
1.40025e-06
1.30747e-06
1.21804e-06
1.13208e-06
1.0497e-06
9.70937e-07
8.95824e-07
8.24347e-07
7.56467e-07
6.92117e-07
6.31212e-07
5.73644e-07
5.19292e-07
4.68022e-07
4.19693e-07
3.74161e-07
3.3128e-07
2.90913e-07
2.52929e-07
2.17216e-07
1.83681e-07
1.52262e-07
1.22936e-07
9.57348e-08
7.07604e-08
4.82248e-08
2.85158e-08
1.23617e-08
1.37419e-09
3.79879e-09
3.41548e-08
7.86362e-08
1.32518e-07
1.93407e-07
2.59757e-07
3.30436e-07
4.0455e-07
4.81363e-07
5.60256e-07
6.40701e-07
7.22245e-07
8.04503e-07
8.87153e-07
9.69926e-07
1.05261e-06
1.13505e-06
1.21711e-06
1.29874e-06
1.37989e-06
1.46057e-06
1.54079e-06
1.6206e-06
1.70007e-06
1.77926e-06
1.85826e-06
1.93713e-06
2.01596e-06
2.09481e-06
2.17372e-06
2.25273e-06
2.33188e-06
2.41116e-06
2.49058e-06
2.5701e-06
2.64968e-06
2.72928e-06
2.80882e-06
2.88823e-06
2.96742e-06
3.0463e-06
3.12475e-06
3.20266e-06
3.27993e-06
3.35643e-06
3.43203e-06
3.50661e-06
3.58003e-06
3.65217e-06
3.72289e-06
3.79205e-06
3.8595e-06
3.9251e-06
3.9887e-06
4.05014e-06
4.10927e-06
4.16593e-06
4.21993e-06
4.2711e-06
4.31927e-06
4.36424e-06
4.40582e-06
4.44382e-06
4.47803e-06
4.50825e-06
4.53428e-06
4.5559e-06
4.57291e-06
4.5851e-06
4.59182e-06
4.59372e-06
4.59059e-06
4.58182e-06
4.5673e-06
4.54691e-06
4.52055e-06
4.48815e-06
4.44964e-06
4.40499e-06
4.35419e-06
4.29727e-06
4.2343e-06
4.16537e-06
4.09061e-06
4.0102e-06
3.92435e-06
3.83331e-06
3.73737e-06
3.63687e-06
3.53215e-06
3.42362e-06
3.3117e-06
3.19683e-06
3.0795e-06
2.96018e-06
2.83939e-06
2.71762e-06
2.59538e-06
2.47318e-06
2.3515e-06
2.23082e-06
2.1116e-06
1.99425e-06
1.87918e-06
1.76675e-06
1.65727e-06
1.55102e-06
1.44825e-06
1.34916e-06
1.25388e-06
1.16255e-06
1.07521e-06
9.91918e-07
9.12652e-07
8.37378e-07
7.66027e-07
6.98506e-07
6.34698e-07
5.74469e-07
5.1767e-07
4.64144e-07
4.13729e-07
3.66265e-07
3.21594e-07
2.79571e-07
2.40069e-07
2.02985e-07
1.68248e-07
1.35831e-07
1.05767e-07
7.81684e-08
5.32692e-08
3.14964e-08
1.3653e-08
1.51769e-09
4.24902e-09
3.82042e-08
8.79665e-08
1.48258e-07
2.16407e-07
2.90691e-07
3.69844e-07
4.52867e-07
5.38935e-07
6.27348e-07
7.17508e-07
8.08898e-07
9.01077e-07
9.93672e-07
1.08637e-06
1.17893e-06
1.27116e-06
1.36293e-06
1.45413e-06
1.54474e-06
1.63475e-06
1.72418e-06
1.81308e-06
1.90152e-06
1.98958e-06
2.07733e-06
2.16486e-06
2.25225e-06
2.33955e-06
2.42683e-06
2.5141e-06
2.6014e-06
2.68872e-06
2.77605e-06
2.86334e-06
2.95056e-06
3.03763e-06
3.12448e-06
3.21101e-06
3.29712e-06
3.38272e-06
3.46767e-06
3.55187e-06
3.63519e-06
3.7175e-06
3.79868e-06
3.87858e-06
3.95708e-06
4.03404e-06
4.10933e-06
4.1828e-06
4.2543e-06
4.32371e-06
4.39085e-06
4.45558e-06
4.51773e-06
4.57715e-06
4.63365e-06
4.68706e-06
4.7372e-06
4.78386e-06
4.82687e-06
4.86601e-06
4.90108e-06
4.93186e-06
4.95816e-06
4.97976e-06
4.99645e-06
5.00794e-06
5.01357e-06
5.01443e-06
5.00971e-06
4.99902e-06
4.98223e-06
4.95923e-06
4.92992e-06
4.8942e-06
4.85202e-06
4.80333e-06
4.74812e-06
4.68642e-06
4.61826e-06
4.54376e-06
4.46303e-06
4.37626e-06
4.28364e-06
4.18544e-06
4.08194e-06
3.97347e-06
3.86041e-06
3.74316e-06
3.62217e-06
3.49789e-06
3.37083e-06
3.24149e-06
3.11043e-06
2.97816e-06
2.84525e-06
2.71223e-06
2.57964e-06
2.448e-06
2.31781e-06
2.18954e-06
2.06364e-06
1.94051e-06
1.82052e-06
1.70399e-06
1.5912e-06
1.48237e-06
1.37768e-06
1.27728e-06
1.18125e-06
1.08964e-06
1.00244e-06
9.19638e-07
8.41149e-07
7.6688e-07
6.96705e-07
6.30481e-07
5.68044e-07
5.09222e-07
4.53836e-07
4.01708e-07
3.52663e-07
3.0654e-07
2.63196e-07
2.22516e-07
1.84419e-07
1.48873e-07
1.15914e-07
8.56621e-08
5.83725e-08
3.45122e-08
1.49597e-08
1.66291e-09
4.72359e-09
4.24725e-08
9.78014e-08
1.64849e-07
2.40654e-07
3.23304e-07
4.11398e-07
5.03822e-07
5.99657e-07
6.98119e-07
7.98529e-07
9.00303e-07
1.00293e-06
1.10599e-06
1.20912e-06
1.31204e-06
1.41451e-06
1.51639e-06
1.61757e-06
1.718e-06
1.81766e-06
1.91659e-06
2.01483e-06
2.11245e-06
2.20955e-06
2.30621e-06
2.4025e-06
2.49851e-06
2.5943e-06
2.68993e-06
2.78541e-06
2.88077e-06
2.97598e-06
3.07104e-06
3.16588e-06
3.26045e-06
3.35467e-06
3.44845e-06
3.54168e-06
3.63427e-06
3.72608e-06
3.817e-06
3.9069e-06
3.99566e-06
4.08314e-06
4.1692e-06
4.25373e-06
4.33658e-06
4.41762e-06
4.4967e-06
4.57371e-06
4.64848e-06
4.72089e-06
4.79077e-06
4.85798e-06
4.92235e-06
4.98373e-06
5.04194e-06
5.0968e-06
5.14813e-06
5.19574e-06
5.23943e-06
5.279e-06
5.31425e-06
5.34497e-06
5.37094e-06
5.39197e-06
5.40784e-06
5.41806e-06
5.42236e-06
5.42184e-06
5.41524e-06
5.40244e-06
5.38328e-06
5.35764e-06
5.32543e-06
5.28654e-06
5.2409e-06
5.18847e-06
5.12922e-06
5.06317e-06
4.99035e-06
4.91086e-06
4.82482e-06
4.73237e-06
4.63373e-06
4.52913e-06
4.41886e-06
4.30326e-06
4.18268e-06
4.05754e-06
3.92828e-06
3.79537e-06
3.65934e-06
3.52072e-06
3.38005e-06
3.23792e-06
3.0949e-06
2.95157e-06
2.80852e-06
2.6663e-06
2.52546e-06
2.38653e-06
2.25e-06
2.11632e-06
1.98591e-06
1.85913e-06
1.73631e-06
1.6177e-06
1.50354e-06
1.39398e-06
1.28913e-06
1.18908e-06
1.09382e-06
1.00333e-06
9.17564e-07
8.36406e-07
7.5973e-07
6.87382e-07
6.19188e-07
5.54962e-07
4.94508e-07
4.37629e-07
3.84134e-07
3.33844e-07
2.86601e-07
2.42275e-07
2.00775e-07
1.62064e-07
1.26175e-07
9.32403e-08
6.35338e-08
3.75625e-08
1.62816e-08
1.80983e-09
5.22323e-09
4.69662e-08
1.08156e-07
1.82318e-07
2.66184e-07
3.57649e-07
4.55162e-07
5.57496e-07
6.63628e-07
7.7268e-07
8.8389e-07
9.96593e-07
1.11021e-06
1.22426e-06
1.33831e-06
1.45205e-06
1.56521e-06
1.67761e-06
1.78912e-06
1.89968e-06
2.00928e-06
2.11794e-06
2.22572e-06
2.33269e-06
2.43895e-06
2.54457e-06
2.64965e-06
2.75427e-06
2.85849e-06
2.96236e-06
3.06589e-06
3.1691e-06
3.27196e-06
3.37444e-06
3.47648e-06
3.57801e-06
3.67893e-06
3.77915e-06
3.87855e-06
3.97701e-06
4.07442e-06
4.17064e-06
4.26554e-06
4.359e-06
4.45088e-06
4.54105e-06
4.62937e-06
4.71573e-06
4.79999e-06
4.88201e-06
4.96166e-06
5.03881e-06
5.11332e-06
5.18504e-06
5.25382e-06
5.31952e-06
5.38197e-06
5.441e-06
5.49645e-06
5.54812e-06
5.59585e-06
5.63944e-06
5.67868e-06
5.71339e-06
5.74336e-06
5.76838e-06
5.78825e-06
5.80276e-06
5.81121e-06
5.8141e-06
5.8117e-06
5.80303e-06
5.78798e-06
5.76641e-06
5.73818e-06
5.7032e-06
5.66136e-06
5.61259e-06
5.55682e-06
5.49403e-06
5.42421e-06
5.34739e-06
5.26365e-06
5.17307e-06
5.0758e-06
4.97203e-06
4.86198e-06
4.74592e-06
4.62416e-06
4.49706e-06
4.36502e-06
4.22848e-06
4.08791e-06
3.94383e-06
3.79679e-06
3.64736e-06
3.49613e-06
3.3437e-06
3.19071e-06
3.03775e-06
2.88544e-06
2.73437e-06
2.58512e-06
2.43823e-06
2.2942e-06
2.1535e-06
2.01656e-06
1.88373e-06
1.75534e-06
1.63164e-06
1.51283e-06
1.39906e-06
1.29042e-06
1.18695e-06
1.08864e-06
9.95433e-07
9.0723e-07
8.23901e-07
7.45286e-07
6.71202e-07
6.01447e-07
5.35813e-07
4.74084e-07
4.16051e-07
3.61519e-07
3.10311e-07
2.62282e-07
2.17331e-07
1.75412e-07
1.36558e-07
1.00908e-07
6.87566e-08
4.06495e-08
1.76194e-08
1.95853e-09
5.74859e-09
5.16912e-08
1.19043e-07
2.00687e-07
2.93034e-07
3.93771e-07
5.012e-07
6.13965e-07
7.30936e-07
8.51134e-07
9.73704e-07
1.09789e-06
1.22304e-06
1.34859e-06
1.47407e-06
1.59909e-06
1.72335e-06
1.84663e-06
1.9688e-06
2.08978e-06
2.20955e-06
2.32813e-06
2.44559e-06
2.56199e-06
2.67743e-06
2.79202e-06
2.90583e-06
3.01895e-06
3.13144e-06
3.24334e-06
3.35467e-06
3.46542e-06
3.57556e-06
3.68505e-06
3.79382e-06
3.90178e-06
4.00883e-06
4.11487e-06
4.21977e-06
4.32341e-06
4.42567e-06
4.5264e-06
4.62548e-06
4.72279e-06
4.81819e-06
4.91156e-06
5.00276e-06
5.09169e-06
5.1782e-06
5.26219e-06
5.34351e-06
5.42205e-06
5.49768e-06
5.57025e-06
5.63963e-06
5.70567e-06
5.76823e-06
5.82715e-06
5.88225e-06
5.93338e-06
5.98036e-06
6.02301e-06
6.06114e-06
6.09456e-06
6.12309e-06
6.14652e-06
6.16467e-06
6.17729e-06
6.18359e-06
6.18482e-06
6.18024e-06
6.16932e-06
6.15195e-06
6.128e-06
6.09731e-06
6.05979e-06
6.01533e-06
5.96384e-06
5.90526e-06
5.83954e-06
5.76666e-06
5.68663e-06
5.59949e-06
5.50531e-06
5.40422e-06
5.29637e-06
5.18195e-06
5.06121e-06
4.93444e-06
4.80197e-06
4.66417e-06
4.52147e-06
4.37434e-06
4.22329e-06
4.06885e-06
3.91162e-06
3.75219e-06
3.5912e-06
3.42928e-06
3.2671e-06
3.10529e-06
2.94449e-06
2.78534e-06
2.62842e-06
2.47431e-06
2.32351e-06
2.17652e-06
2.03374e-06
1.89556e-06
1.76228e-06
1.63414e-06
1.51133e-06
1.39397e-06
1.28213e-06
1.17582e-06
1.07499e-06
9.79566e-07
8.89411e-07
8.04363e-07
7.24232e-07
6.48806e-07
5.77859e-07
5.11163e-07
4.4849e-07
3.89625e-07
3.34374e-07
2.82576e-07
2.34117e-07
1.88941e-07
1.4708e-07
1.08678e-07
7.40484e-08
4.37774e-08
1.89751e-08
2.10922e-09
6.30025e-09
5.66528e-08
1.30476e-07
2.19977e-07
3.21232e-07
4.31715e-07
5.49564e-07
6.73296e-07
8.0166e-07
9.33572e-07
1.06807e-06
1.2043e-06
1.34153e-06
1.4791e-06
1.61647e-06
1.75321e-06
1.88896e-06
2.02348e-06
2.1566e-06
2.28823e-06
2.41834e-06
2.54697e-06
2.67416e-06
2.80001e-06
2.9246e-06
3.04805e-06
3.17045e-06
3.29187e-06
3.41237e-06
3.53198e-06
3.65073e-06
3.7686e-06
3.88554e-06
4.00151e-06
4.11642e-06
4.23018e-06
4.34268e-06
4.4538e-06
4.56342e-06