/*--------------------------------*- C++ -*----------------------------------*\
  =========                 |
  \\      /  F ield         | OpenFOAM: The Open Source CFD Toolbox
   \\    /   O peration     | Website:  https://openfoam.org
    \\  /    A nd           | Version:  12
     \\/     M anipulation  |
\*---------------------------------------------------------------------------*/
FoamFile
{
    format      ascii;
    class       volScalarField;
    location    "5.5";
    object      p;
}
// * * * * * * * * * * * * * * * * * * * * * * * * * * * * * * * * * * * * * //

dimensions      [0 2 -2 0 0 0 0];

internalField   nonuniform List<scalar> 
18225
(
-3.63505e-08
7.28035e-06
1.0619e-05
4.51246e-06
-1.23252e-05
-3.98226e-05
-7.73596e-05
-0.000124031
-0.000178827
-0.000240746
-0.000308857
-0.000382326
-0.000460423
-0.000542526
-0.000628114
-0.000716754
-0.000808093
-0.000901845
-0.000997776
-0.0010957
-0.00119544
-0.00129687
-0.00139986
-0.00150427
-0.00160999
-0.00171685
-0.00182471
-0.00193338
-0.00204266
-0.00215232
-0.00226211
-0.00237174
-0.00248088
-0.00258921
-0.00269633
-0.00280185
-0.00290532
-0.00300631
-0.00310431
-0.00319883
-0.00328935
-0.00337532
-0.00345619
-0.00353141
-0.00360041
-0.00366263
-0.00371751
-0.00376449
-0.00380306
-0.00383271
-0.00385295
-0.00386334
-0.0038635
-0.00385306
-0.00383174
-0.00379931
-0.00375561
-0.00370057
-0.0036342
-0.00355658
-0.00346791
-0.00336849
-0.0032587
-0.00313904
-0.00301012
-0.00287267
-0.00272753
-0.00257561
-0.00241786
-0.00225551
-0.00208975
-0.00192187
-0.00175323
-0.00158528
-0.00141947
-0.00125733
-0.00110039
-0.00095017
-0.000808196
-0.000675956
-0.000554887
-0.000446365
-0.000351678
-0.000272016
-0.000208453
-0.000161931
-0.000133248
-0.000123045
-0.0001318
-0.000159814
-0.000207211
-0.000273933
-0.000359743
-0.00046422
-0.000586772
-0.000726638
-0.0008829
-0.0010545
-0.00124023
-0.0014388
-0.00164878
-0.00186869
-0.00209697
-0.00233202
-0.00257223
-0.00281595
-0.00306158
-0.0033075
-0.00355218
-0.0037941
-0.00403184
-0.00426403
-0.00448938
-0.00470672
-0.00491492
-0.00511295
-0.0052999
-0.0054749
-0.00563719
-0.00578607
-0.0059209
-0.00604114
-0.0061463
-0.00623598
-0.00630985
-0.00636772
-0.00640955
-0.00643555
-0.00644625
-0.00644268
-0.00642664
-0.00640098
-0.00637022
-0.00634122
-0.00632289
-7.47917e-06
-1.35146e-07
2.30607e-06
-4.58552e-06
-2.12671e-05
-4.75561e-05
-8.29892e-05
-0.000126865
-0.000178366
-0.000236655
-0.000300932
-0.000370461
-0.00044459
-0.000522749
-0.000604451
-0.000689287
-0.000776913
-0.000867042
-0.00095944
-0.00105391
-0.00115028
-0.00124841
-0.00134815
-0.00144937
-0.00155192
-0.00165567
-0.00176044
-0.00186606
-0.00197233
-0.00207902
-0.00218589
-0.00229265
-0.002399
-0.00250461
-0.00260912
-0.00271213
-0.00281324
-0.00291201
-0.00300798
-0.00310065
-0.00318955
-0.00327414
-0.0033539
-0.00342829
-0.00349678
-0.00355881
-0.00361387
-0.00366142
-0.00370094
-0.00373196
-0.00375401
-0.00376667
-0.00376955
-0.0037623
-0.00374466
-0.00371639
-0.00367734
-0.00362744
-0.00356668
-0.00349514
-0.00341302
-0.00332058
-0.00321819
-0.00310633
-0.00298558
-0.00285662
-0.00272028
-0.00257737
-0.00242888
-0.00227595
-0.00211972
-0.00196142
-0.00180237
-0.00164393
-0.00148754
-0.00133462
-0.00118667
-0.00104513
-0.000911481
-0.000787141
-0.000673494
-0.000571857
-0.000483468
-0.000409469
-0.000350887
-0.000308627
-0.000283451
-0.000275973
-0.000286647
-0.000315759
-0.000363425
-0.000429585
-0.000514005
-0.000616279
-0.000735833
-0.000871933
-0.00102369
-0.00119009
-0.00136998
-0.0015621
-0.00176508
-0.00197751
-0.00219789
-0.00242468
-0.00265633
-0.00289127
-0.00312795
-0.00336485
-0.00360047
-0.00383339
-0.00406222
-0.00428567
-0.00450252
-0.00471163
-0.00491193
-0.00510246
-0.00528234
-0.00545077
-0.00560702
-0.00575045
-0.0058805
-0.00599667
-0.00609856
-0.00618582
-0.00625823
-0.00631569
-0.00635827
-0.00638626
-0.00640026
-0.00640131
-0.00639108
-0.00637203
-0.0063477
-0.0063229
-0.00630456
-1.08763e-05
-2.64772e-06
-2.62031e-07
-7.55699e-06
-2.40399e-05
-4.92707e-05
-8.28382e-05
-0.000124173
-0.000172604
-0.000227435
-0.000287985
-0.000353622
-0.000423768
-0.000497912
-0.000575608
-0.000656475
-0.00074019
-0.00082648
-0.000915111
-0.00100589
-0.00109863
-0.0011932
-0.00128944
-0.00138722
-0.00148639
-0.0015868
-0.00168829
-0.00179068
-0.00189379
-0.00199738
-0.00210122
-0.00220504
-0.00230855
-0.00241143
-0.00251333
-0.0026139
-0.00271273
-0.00280941
-0.00290349
-0.00299452
-0.00308202
-0.0031655
-0.00324445
-0.00331836
-0.00338671
-0.00344899
-0.00350467
-0.00355325
-0.00359424
-0.00362716
-0.00365157
-0.00366706
-0.00367325
-0.0036698
-0.00365644
-0.00363294
-0.00359914
-0.00355497
-0.00350041
-0.00343553
-0.0033605
-0.00327556
-0.00318107
-0.00307747
-0.0029653
-0.00284523
-0.00271799
-0.0025844
-0.00244543
-0.00230212
-0.00215556
-0.00200695
-0.00185755
-0.00170866
-0.00156166
-0.00141792
-0.00127888
-0.00114593
-0.00102048
-0.000903902
-0.000797533
-0.000702636
-0.000620404
-0.000551935
-0.000498217
-0.000460119
-0.000438375
-0.000433574
-0.000446149
-0.000476374
-0.000524357
-0.000590034
-0.000673179
-0.000773393
-0.000890121
-0.00102265
-0.00117013
-0.00133156
-0.00150584
-0.00169175
-0.00188799
-0.00209317
-0.00230586
-0.00252459
-0.00274785
-0.00297416
-0.00320202
-0.00342997
-0.00365658
-0.0038805
-0.0041004
-0.00431504
-0.00452328
-0.00472402
-0.00491627
-0.00509913
-0.00527175
-0.00543341
-0.00558343
-0.00572124
-0.00584633
-0.00595828
-0.00605674
-0.00614147
-0.0062123
-0.00626921
-0.00631233
-0.006342
-0.00635879
-0.00636366
-0.00635797
-0.00634365
-0.00632293
-0.00629811
-0.00627555
-4.62364e-06
4.28343e-06
6.82645e-06
-6.68141e-07
-1.70884e-05
-4.17299e-05
-7.41326e-05
-0.000113763
-0.000160023
-0.000212301
-0.000270001
-0.000332566
-0.000399486
-0.000470304
-0.000544619
-0.000622081
-0.000702392
-0.000785297
-0.000870578
-0.000958045
-0.00104753
-0.00113889
-0.00123198
-0.00132666
-0.0014228
-0.00152024
-0.00161884
-0.00171841
-0.00181877
-0.00191971
-0.002021
-0.00212237
-0.00222357
-0.00232427
-0.00242415
-0.00252286
-0.00262003
-0.00271524
-0.00280809
-0.00289813
-0.0029849
-0.00306792
-0.00314672
-0.00322079
-0.00328964
-0.00335275
-0.00340964
-0.00345979
-0.00350274
-0.00353802
-0.00356518
-0.00358383
-0.00359357
-0.00359408
-0.00358508
-0.00356634
-0.00353768
-0.00349902
-0.00345032
-0.00339164
-0.00332312
-0.00324499
-0.00315757
-0.00306128
-0.00295663
-0.00284424
-0.00272482
-0.00259917
-0.00246819
-0.00233289
-0.00219433
-0.00205365
-0.00191208
-0.0017709
-0.00163141
-0.00149497
-0.00136295
-0.00123673
-0.00111768
-0.00100712
-0.000906373
-0.000816657
-0.00073914
-0.000674892
-0.000624881
-0.000589954
-0.000570825
-0.00056807
-0.000582111
-0.000613213
-0.00066148
-0.000726848
-0.000809091
-0.00090782
-0.00102249
-0.0011524
-0.00129671
-0.00145445
-0.00162454
-0.0018058
-0.00199693
-0.00219661
-0.00240343
-0.00261595
-0.00283273
-0.00305231
-0.00327324
-0.00349411
-0.00371356
-0.00393025
-0.00414293
-0.00435041
-0.00455159
-0.00474543
-0.004931
-0.00510744
-0.00527398
-0.00542992
-0.00557467
-0.00570769
-0.00582854
-0.00593686
-0.00603235
-0.00611482
-0.00618416
-0.00624037
-0.00628359
-0.00631412
-0.00633245
-0.00633931
-0.00633573
-0.00632303
-0.00630229
-0.00627382
-0.00624477
1.2796e-05
2.13011e-05
2.32389e-05
1.5132e-05
-1.62586e-06
-2.61708e-05
-5.79852e-05
-9.65411e-05
-0.00014128
-0.000191648
-0.000247116
-0.00030719
-0.000371415
-0.000439389
-0.000510752
-0.000585195
-0.000662448
-0.000742281
-0.000824494
-0.000908916
-0.000995393
-0.00108379
-0.00117396
-0.0012658
-0.00135915
-0.00145389
-0.00154987
-0.00164692
-0.00174486
-0.00184349
-0.0019426
-0.00204193
-0.00214124
-0.00224021
-0.00233855
-0.00243591
-0.00253194
-0.00262624
-0.00271842
-0.00280805
-0.00289469
-0.00297787
-0.00305713
-0.00313198
-0.00320193
-0.00326649
-0.00332516
-0.00337746
-0.00342291
-0.00346105
-0.00349144
-0.00351366
-0.00352733
-0.00353212
-0.00352773
-0.00351391
-0.00349049
-0.00345735
-0.00341444
-0.0033618
-0.00329954
-0.00322786
-0.00314706
-0.00305753
-0.00295975
-0.0028543
-0.00274187
-0.00262321
-0.00249921
-0.00237083
-0.0022391
-0.00210514
-0.00197013
-0.00183532
-0.001702
-0.00157149
-0.00144514
-0.0013243
-0.00121031
-0.00110449
-0.00100812
-0.000922411
-0.000848516
-0.000787491
-0.00074029
-0.00070775
-0.000690579
-0.000689344
-0.000704464
-0.000736201
-0.000784656
-0.000849766
-0.000931308
-0.0010289
-0.00114199
-0.0012699
-0.00141179
-0.00156671
-0.00173358
-0.00191124
-0.00209842
-0.00229381
-0.00249602
-0.00270365
-0.00291527
-0.00312946
-0.0033448
-0.00355992
-0.00377348
-0.00398421
-0.00419088
-0.00439235
-0.00458757
-0.00477554
-0.00495538
-0.00512628
-0.00528753
-0.00543848
-0.00557859
-0.00570738
-0.00582447
-0.00592952
-0.00602231
-0.00610267
-0.00617052
-0.00622587
-0.00626883
-0.00629963
-0.00631862
-0.0063263
-0.00632336
-0.00631061
-0.00628816
-0.0062549
-0.00621916
4.15657e-05
4.84203e-05
4.86921e-05
3.92845e-05
2.16327e-05
-3.34934e-06
-3.51113e-05
-7.31305e-05
-0.000116881
-0.000165858
-0.000219587
-0.000277628
-0.000339585
-0.000405102
-0.000473867
-0.000545608
-0.000620091
-0.000697115
-0.000776506
-0.000858113
-0.0009418
-0.00102744
-0.00111493
-0.00120414
-0.00129495
-0.00138723
-0.00148086
-0.00157567
-0.00167151
-0.00176817
-0.00186546
-0.00196314
-0.00206097
-0.00215867
-0.00225593
-0.00235244
-0.00244785
-0.00254179
-0.00263387
-0.00272368
-0.00281079
-0.00289475
-0.00297509
-0.00305135
-0.00312304
-0.00318968
-0.00325076
-0.00330581
-0.00335435
-0.0033959
-0.00343004
-0.00345632
-0.00347437
-0.00348382
-0.00348437
-0.00347576
-0.00345778
-0.00343029
-0.00339323
-0.00334661
-0.0032905
-0.00322508
-0.00315063
-0.00306749
-0.00297612
-0.00287708
-0.002771
-0.00265865
-0.00254085
-0.00241853
-0.00229272
-0.0021645
-0.00203503
-0.00190555
-0.00177731
-0.00165162
-0.00152981
-0.00141323
-0.0013032
-0.00120102
-0.00110798
-0.00102527
-0.000954054
-0.000895371
-0.000850177
-0.000819309
-0.000803474
-0.00080324
-0.000819027
-0.000851097
-0.000899555
-0.000964341
-0.00104523
-0.00114185
-0.00125364
-0.00137994
-0.00151991
-0.0016726
-0.00183694
-0.00201177
-0.00219584
-0.00238784
-0.00258639
-0.00279011
-0.00299759
-0.00320741
-0.0034182
-0.0036286
-0.00383729
-0.00404304
-0.00424465
-0.00444103
-0.00463115
-0.00481407
-0.00498895
-0.00515501
-0.00531161
-0.00545816
-0.00559414
-0.00571914
-0.00583282
-0.0059349
-0.00602518
-0.00610354
-0.00616989
-0.00622425
-0.00626668
-0.00629734
-0.00631643
-0.00632424
-0.00632115
-0.00630756
-0.00628288
-0.00624495
-0.0062033
8.13045e-05
8.53544e-05
8.29036e-05
7.14377e-05
5.22727e-05
2.62927e-05
-5.94894e-06
-4.39443e-05
-8.72027e-05
-0.000135264
-0.000187706
-0.000244142
-0.000304227
-0.000367657
-0.000434165
-0.000503522
-0.00057553
-0.000650022
-0.000726854
-0.0008059
-0.000887047
-0.000970194
-0.00105524
-0.00114209
-0.00123063
-0.00132076
-0.00141235
-0.00150526
-0.00159934
-0.00169442
-0.0017903
-0.00188677
-0.00198359
-0.0020805
-0.00217721
-0.00227342
-0.00236879
-0.00246296
-0.00255557
-0.0026462
-0.00273443
-0.00281984
-0.00290195
-0.0029803
-0.00305442
-0.0031238
-0.00318797
-0.00324642
-0.00329868
-0.00334426
-0.00338271
-0.0034136
-0.00343651
-0.00345106
-0.00345694
-0.00345384
-0.00344156
-0.00341991
-0.00338881
-0.00334822
-0.00329821
-0.00323892
-0.00317059
-0.00309353
-0.00300819
-0.00291507
-0.00281481
-0.00270811
-0.0025958
-0.00247879
-0.00235805
-0.00223468
-0.00210982
-0.00198466
-0.00186048
-0.00173857
-0.00162025
-0.00150686
-0.00139972
-0.00130015
-0.00120941
-0.00112873
-0.00105924
-0.00100202
-0.000958006
-0.000928059
-0.000912888
-0.00091307
-0.00092903
-0.000961039
-0.00100921
-0.00107348
-0.00115363
-0.00124929
-0.00135992
-0.00148483
-0.0016232
-0.00177408
-0.0019364
-0.00210899
-0.0022906
-0.00247993
-0.0026756
-0.00287624
-0.00308043
-0.00328677
-0.0034939
-0.00370048
-0.00390521
-0.00410686
-0.00430428
-0.0044964
-0.00468222
-0.00486085
-0.00503147
-0.00519337
-0.00534593
-0.00548861
-0.00562097
-0.0057426
-0.00585323
-0.00595262
-0.0060406
-0.00611707
-0.00618196
-0.00623526
-0.00627701
-0.00630726
-0.0063261
-0.00633364
-0.00633002
-0.00631531
-0.00628843
-0.00624653
-0.00620014
0.000131289
0.000131528
0.000125384
0.000111115
8.98146e-05
6.22797e-05
2.90436e-05
-9.41425e-06
-5.26423e-05
-0.000100229
-0.000151801
-0.000207028
-0.000265617
-0.000327313
-0.000391898
-0.000459187
-0.000529023
-0.000601275
-0.000675831
-0.000752597
-0.000831487
-0.000912422
-0.000995327
-0.00108012
-0.00116672
-0.00125503
-0.00134494
-0.00143634
-0.00152908
-0.001623
-0.00171794
-0.00181369
-0.00191002
-0.00200669
-0.00210343
-0.00219995
-0.00229591
-0.00239099
-0.0024848
-0.00257695
-0.00266704
-0.00275462
-0.00283924
-0.00292043
-0.00299772
-0.0030706
-0.00313857
-0.00320114
-0.00325781
-0.00330809
-0.00335149
-0.00338756
-0.00341587
-0.00343603
-0.00344766
-0.00345046
-0.00344418
-0.00342861
-0.00340362
-0.00336916
-0.00332525
-0.00327201
-0.00320964
-0.00313843
-0.00305878
-0.00297119
-0.00287625
-0.00277466
-0.0026672
-0.00255478
-0.00243836
-0.00231901
-0.00219787
-0.00207613
-0.00195505
-0.00183592
-0.00172008
-0.00160886
-0.00150359
-0.0014056
-0.00131617
-0.00123652
-0.00116781
-0.00111113
-0.00106744
-0.00103761
-0.00102236
-0.00102229
-0.00103783
-0.00106927
-0.00111672
-0.00118015
-0.00125933
-0.0013539
-0.00146331
-0.00158689
-0.00172381
-0.00187311
-0.00203372
-0.00220446
-0.00238409
-0.00257129
-0.00276469
-0.00296289
-0.00316449
-0.00336809
-0.00357232
-0.00377585
-0.00397739
-0.00417573
-0.00436973
-0.00455835
-0.0047406
-0.00491564
-0.00508268
-0.00524104
-0.00539013
-0.00552948
-0.00565868
-0.00577738
-0.00588532
-0.00598231
-0.00606822
-0.00614296
-0.00620646
-0.00625871
-0.0062997
-0.00632943
-0.00634787
-0.00635499
-0.00635073
-0.00633496
-0.00630626
-0.00626135
-0.0062115
0.000190606
0.000186171
0.000175473
0.000157705
0.000133679
0.00010406
6.93441e-05
2.99743e-05
-1.36472e-05
-6.11604e-05
-0.000112248
-0.000166632
-0.000224074
-0.000284372
-0.000347358
-0.000412893
-0.000480864
-0.000551179
-0.000623763
-0.000698554
-0.000775497
-0.000854542
-0.000935636
-0.00101872
-0.00110374
-0.00119062
-0.00127927
-0.00136958
-0.00146145
-0.00155472
-0.00164923
-0.00174481
-0.00184124
-0.0019383
-0.00203571
-0.00213321
-0.00223047
-0.00232717
-0.00242294
-0.00251739
-0.00261011
-0.00270067
-0.00278861
-0.00287346
-0.00295473
-0.00303191
-0.00310449
-0.00317196
-0.0032338
-0.00328949
-0.00333854
-0.00338045
-0.00341478
-0.00344109
-0.00345898
-0.00346812
-0.00346821
-0.00345902
-0.00344038
-0.0034122
-0.00337447
-0.00332728
-0.00327078
-0.00320526
-0.00313106
-0.00304867
-0.00295865
-0.00286167
-0.00275852
-0.00265007
-0.00253728
-0.00242121
-0.00230298
-0.0021838
-0.00206492
-0.00194766
-0.00183333
-0.00172329
-0.0016189
-0.00152148
-0.00143234
-0.00135273
-0.00128383
-0.00122675
-0.00118246
-0.00115187
-0.00113572
-0.00113463
-0.00114904
-0.00117928
-0.00122546
-0.00128755
-0.00136536
-0.00145852
-0.00156649
-0.0016886
-0.001824
-0.00197176
-0.00213077
-0.00229988
-0.0024778
-0.00266322
-0.00285475
-0.00305099
-0.00325052
-0.00345194
-0.00365388
-0.00385498
-0.00405399
-0.00424968
-0.00444093
-0.00462671
-0.00480606
-0.00497814
-0.00514221
-0.00529762
-0.00544382
-0.00558033
-0.0057068
-0.00582297
-0.0059286
-0.00602351
-0.0061076
-0.0061808
-0.00624306
-0.00629434
-0.00633461
-0.00636382
-0.00638186
-0.00638858
-0.00638382
-0.00636727
-0.00633732
-0.00629045
-0.00623841
0.000258243
0.000248399
0.000232392
0.000210502
0.000183207
0.000151016
0.000114378
7.36853e-05
2.92852e-05
-1.85206e-05
-6.94725e-05
-0.000123351
-0.000179975
-0.000239197
-0.000300901
-0.000364996
-0.000431415
-0.00050011
-0.000571044
-0.000644191
-0.00071953
-0.00079704
-0.000876697
-0.000958473
-0.00104233
-0.00112821
-0.00121606
-0.00130579
-0.0013973
-0.00149047
-0.00158515
-0.00168118
-0.00177836
-0.00187648
-0.00197529
-0.00207451
-0.00217385
-0.00227297
-0.00237152
-0.00246911
-0.00256533
-0.00265975
-0.00275189
-0.00284129
-0.00292743
-0.0030098
-0.00308786
-0.00316108
-0.00322892
-0.00329083
-0.00334629
-0.00339477
-0.00343579
-0.00346888
-0.00349361
-0.0035096
-0.00351651
-0.00351408
-0.00350209
-0.00348043
-0.00344904
-0.00340797
-0.00335735
-0.00329742
-0.00322852
-0.00315108
-0.00306566
-0.00297291
-0.0028736
-0.00276857
-0.0026588
-0.00254532
-0.00242928
-0.00231187
-0.00219435
-0.00207805
-0.00196431
-0.0018545
-0.00175
-0.00165215
-0.00156229
-0.0014817
-0.00141159
-0.00135309
-0.00130722
-0.00127491
-0.00125693
-0.00125392
-0.00126638
-0.00129462
-0.00133881
-0.00139892
-0.00147478
-0.00156602
-0.00167213
-0.00179242
-0.00192606
-0.00207209
-0.00222943
-0.00239688
-0.00257317
-0.00275695
-0.00294683
-0.00314139
-0.00333921
-0.00353885
-0.00373894
-0.00393812
-0.00413511
-0.0043287
-0.00451776
-0.00470127
-0.00487829
-0.00504798
-0.00520964
-0.00536263
-0.00550643
-0.00564062
-0.00576487
-0.00587892
-0.00598259
-0.00607574
-0.0061583
-0.00623019
-0.00629139
-0.00634186
-0.00638154
-0.00641034
-0.0064281
-0.00643461
-0.00642961
-0.0064127
-0.00638217
-0.00633439
-0.00628135
0.000333135
0.000317253
0.000295286
0.000268719
0.000237671
0.00020247
0.00016351
0.000121126
7.56007e-05
2.71716e-05
-2.39649e-05
-7.76515e-05
-0.000133767
-0.000192221
-0.000252952
-0.000315923
-0.000381114
-0.000448521
-0.00051815
-0.000590012
-0.000664122
-0.000740492
-0.00081913
-0.000900033
-0.000983191
-0.00106858
-0.00115615
-0.00124585
-0.00133759
-0.00143128
-0.00152679
-0.00162396
-0.00172262
-0.00182256
-0.00192355
-0.00202532
-0.00212758
-0.00223001
-0.00233224
-0.0024339
-0.00253457
-0.0026338
-0.00273112
-0.00282603
-0.00291801
-0.00300653
-0.00309102
-0.00317093
-0.00324567
-0.00331469
-0.0033774
-0.00343326
-0.00348174
-0.00352232
-0.00355454
-0.00357797
-0.00359224
-0.00359702
-0.00359209
-0.00357725
-0.00355245
-0.00351766
-0.00347301
-0.00341868
-0.00335499
-0.00328236
-0.0032013
-0.00311246
-0.00301659
-0.00291453
-0.00280723
-0.00269574
-0.0025812
-0.00246482
-0.00234787
-0.00223168
-0.00211763
-0.0020071
-0.00190149
-0.00180219
-0.00171057
-0.00162793
-0.00155553
-0.00149453
-0.00144601
-0.00141091
-0.00139005
-0.00138412
-0.00139363
-0.00141894
-0.00146024
-0.00151754
-0.00159067
-0.00167929
-0.0017829
-0.00190082
-0.00203222
-0.00217615
-0.0023315
-0.00249708
-0.00267159
-0.00285369
-0.00304195
-0.00323493
-0.00343119
-0.0036293
-0.00382782
-0.00402542
-0.00422079
-0.00441271
-0.00460004
-0.00478177
-0.00495695
-0.00512477
-0.00528451
-0.00543558
-0.00557749
-0.00570982
-0.00583228
-0.00594463
-0.00604674
-0.00613848
-0.00621981
-0.00629068
-0.00635107
-0.00640095
-0.00644024
-0.00646884
-0.00648656
-0.00649313
-0.00648825
-0.00647147
-0.00644106
-0.00639337
-0.00634043
0.000414179
0.000391719
0.000363228
0.000331503
0.000296273
0.000257678
0.000216044
0.000171642
0.000124682
7.53325e-05
2.37197e-05
-3.00651e-05
-8.59646e-05
-0.00014395
-0.000204018
-0.000266184
-0.00033048
-0.000396949
-0.000465641
-0.000536607
-0.0006099
-0.000685566
-0.000763646
-0.000844168
-0.000927149
-0.00101259
-0.00110047
-0.00119076
-0.0012834
-0.0013783
-0.00147535
-0.00157443
-0.00167537
-0.00177797
-0.00188201
-0.00198724
-0.00209336
-0.00220006
-0.00230698
-0.00241371
-0.00251986
-0.00262494
-0.00272848
-0.00282997
-0.00292885
-0.00302456
-0.00311653
-0.00320414
-0.00328679
-0.00336387
-0.00343478
-0.00349891
-0.00355568
-0.00360456
-0.00364501
-0.00367656
-0.0036988
-0.00371136
-0.00371395
-0.00370636
-0.00368847
-0.00366023
-0.00362171
-0.00357309
-0.00351463
-0.00344673
-0.0033699
-0.00328474
-0.003192
-0.00309251
-0.00298722
-0.00287718
-0.00276353
-0.00264748
-0.00253033
-0.00241343
-0.00229817
-0.00218596
-0.00207825
-0.00197646
-0.00188198
-0.00179618
-0.00172034
-0.00165568
-0.00160331
-0.00156423
-0.00153932
-0.00152929
-0.00153471
-0.00155597
-0.00159331
-0.00164675
-0.00171618
-0.00180127
-0.00190154
-0.00201631
-0.00214478
-0.00228598
-0.00243882
-0.00260209
-0.00277448
-0.00295463
-0.00314109
-0.0033324
-0.0035271
-0.00372372
-0.00392083
-0.00411705
-0.00431105
-0.00450161
-0.00468757
-0.0048679
-0.00504166
-0.00520804
-0.00536634
-0.00551596
-0.00565642
-0.00578734
-0.00590845
-0.00601953
-0.00612047
-0.00621119
-0.00629164
-0.00636181
-0.00642169
-0.00647126
-0.00651044
-0.00653912
-0.00655709
-0.00656408
-0.00655974
-0.00654362
-0.006514
-0.00646733
-0.00641544
0.000500245
0.000470738
0.000435235
0.000397934
0.000358156
0.000315832
0.000271218
0.000224512
0.000175846
0.000125309
7.29544e-05
1.88007e-05
-3.71628e-05
-9.4972e-05
-0.000154684
-0.000216372
-0.00028012
-0.00034602
-0.000414168
-0.000484658
-0.000557581
-0.000633022
-0.000711053
-0.000791737
-0.000875118
-0.000961226
-0.00105007
-0.00114163
-0.00123589
-0.00133276
-0.00143218
-0.001534
-0.0016381
-0.00174429
-0.00185234
-0.00196202
-0.00207303
-0.00218505
-0.00229772
-0.00241064
-0.00252338
-0.00263546
-0.00274637
-0.00285557
-0.0029625
-0.00306655
-0.00316711
-0.00326354
-0.00335518
-0.00344139
-0.00352151
-0.0035949
-0.00366091
-0.00371897
-0.00376848
-0.00380894
-0.00383987
-0.00386086
-0.00387156
-0.00387173
-0.00386118
-0.00383985
-0.00380775
-0.00376502
-0.00371191
-0.00364879
-0.00357612
-0.0034945
-0.00340467
-0.00330744
-0.00320376
-0.00309468
-0.00298135
-0.00286498
-0.0027469
-0.00262848
-0.00251112
-0.0023963
-0.00228546
-0.00218008
-0.00208161
-0.00199144
-0.00191092
-0.00184132
-0.00178381
-0.00173945
-0.00170914
-0.00169368
-0.00169369
-0.0017096
-0.00174169
-0.00179005
-0.00185458
-0.001935
-0.00203084
-0.00214147
-0.00226608
-0.00240371
-0.00255328
-0.00271357
-0.00288327
-0.00306098
-0.00324526
-0.00343462
-0.00362756
-0.00382259
-0.00401825
-0.00421314
-0.0044059
-0.00459528
-0.00478012
-0.00495935
-0.00513204
-0.00529736
-0.0054546
-0.00560319
-0.00574264
-0.00587259
-0.00599278
-0.00610303
-0.00620322
-0.0062933
-0.00637326
-0.0064431
-0.00650282
-0.0065524
-0.0065918
-0.00662089
-0.00663948
-0.00664727
-0.00664393
-0.00662901
-0.00660084
-0.00655601
-0.00650601
0.000590169
0.000553209
0.000510272
0.000467038
0.000422395
0.000376059
0.000328203
0.000278947
0.000228337
0.000176376
0.000123036
6.82601e-05
1.1964e-05
-4.59565e-05
-0.000105622
-0.000167166
-0.000230727
-0.000296449
-0.000364474
-0.000434941
-0.000507983
-0.000583719
-0.000662261
-0.000743702
-0.000828118
-0.000915567
-0.00100609
-0.00109969
-0.00119635
-0.00129605
-0.0013987
-0.00150421
-0.00161243
-0.00172321
-0.00183632
-0.00195153
-0.00206854
-0.00218703
-0.00230663
-0.00242693
-0.00254747
-0.00266777
-0.00278729
-0.00290546
-0.00302168
-0.00313531
-0.00324569
-0.00335214
-0.00345396
-0.00355045
-0.00364091
-0.00372463
-0.00380093
-0.00386916
-0.00392869
-0.00397894
-0.00401938
-0.00404955
-0.00406906
-0.00407759
-0.00407494
-0.00406098
-0.00403569
-0.00399917
-0.00395163
-0.0038934
-0.00382494
-0.00374683
-0.00365976
-0.00356456
-0.00346217
-0.00335363
-0.00324009
-0.00312281
-0.0030031
-0.00288235
-0.00276202
-0.0026436
-0.00252858
-0.00241849
-0.00231481
-0.00221901
-0.00213249
-0.00205657
-0.00199248
-0.00194136
-0.00190417
-0.00188178
-0.00187485
-0.0018839
-0.00190926
-0.00195107
-0.00200928
-0.00208365
-0.00217376
-0.00227899
-0.00239857
-0.00253155
-0.00267685
-0.00283326
-0.00299946
-0.00317404
-0.00335554
-0.00354245
-0.00373323
-0.00392638
-0.0041204
-0.00431385
-0.00450536
-0.00469363
-0.00487748
-0.00505582
-0.00522769
-0.00539225
-0.0055488
-0.00569673
-0.00583557
-0.00596498
-0.00608468
-0.00619451
-0.00629438
-0.00638426
-0.00646413
-0.00653403
-0.00659397
-0.00664396
-0.00668395
-0.00671384
-0.00673344
-0.00674246
-0.00674059
-0.00672739
-0.00670127
-0.00665902
-0.00661163
0.000682754
0.000637985
0.000587251
0.000537781
0.00048801
0.000437422
0.000386104
0.000334089
0.000281328
0.000227731
0.000173184
0.000117546
6.06567e-05
2.33911e-06
-5.75946e-05
-0.000119339
-0.000183092
-0.000249048
-0.000317401
-0.000388333
-0.000462019
-0.000538619
-0.000618279
-0.000701127
-0.000787273
-0.000876802
-0.00096978
-0.00106624
-0.0011662
-0.00126963
-0.00137649
-0.00148668
-0.00160009
-0.00171655
-0.00183585
-0.00195776
-0.00208198
-0.00220818
-0.00233598
-0.00246495
-0.00259461
-0.00272446
-0.00285393
-0.0029824
-0.00310925
-0.00323379
-0.00335532
-0.0034731
-0.00358639
-0.00369443
-0.00379645
-0.00389171
-0.00397944
-0.00405895
-0.00412954
-0.00419057
-0.00424147
-0.0042817
-0.00431082
-0.00432847
-0.00433437
-0.00432837
-0.00431039
-0.00428049
-0.00423885
-0.00418577
-0.00412167
-0.0040471
-0.00396276
-0.00386944
-0.00376808
-0.00365973
-0.00354554
-0.00342676
-0.00330474
-0.0031809
-0.00305671
-0.00293371
-0.00281343
-0.00269744
-0.00258729
-0.0024845
-0.00239053
-0.00230678
-0.00223456
-0.00217506
-0.00212933
-0.00209831
-0.00208274
-0.00208322
-0.00210013
-0.00213369
-0.00218392
-0.00225062
-0.00233342
-0.00243175
-0.00254487
-0.00267185
-0.00281164
-0.00296302
-0.00312467
-0.00329519
-0.00347309
-0.00365683
-0.00384487
-0.00403566
-0.00422767
-0.00441942
-0.00460951
-0.0047966
-0.00497948
-0.00515703
-0.00532825
-0.0054923
-0.00564843
-0.00579604
-0.00593465
-0.0060639
-0.00618354
-0.00629339
-0.00639338
-0.00648348
-0.00656371
-0.0066341
-0.00669469
-0.0067455
-0.0067865
-0.0068176
-0.00683864
-0.00684934
-0.0068494
-0.00683842
-0.00681492
-0.00677589
-0.00673173
0.000776764
0.000723878
0.000665036
0.000609075
0.000553955
0.000498919
0.000443958
0.000389008
0.000333916
0.000278495
0.000222535
0.000165808
0.00010807
4.90683e-05
-1.14544e-05
-7.37579e-05
-0.000138099
-0.000204728
-0.000273887
-0.000345808
-0.000420706
-0.000498782
-0.00058022
-0.000665183
-0.000753812
-0.000846224
-0.000942511
-0.00104274
-0.00114693
-0.0012551
-0.00136721
-0.00148318
-0.00160291
-0.00172623
-0.00185295
-0.00198283
-0.00211556
-0.0022508
-0.00238816
-0.00252719
-0.00266739
-0.00280822
-0.00294906
-0.00308929
-0.00322821
-0.00336511
-0.00349922
-0.00362975
-0.0037559
-0.00387686
-0.00399179
-0.00409988
-0.00420032
-0.00429233
-0.00437515
-0.0044481
-0.0045105
-0.00456179
-0.00460146
-0.00462909
-0.00464434
-0.00464701
-0.00463697
-0.00461424
-0.00457895
-0.00453137
-0.00447189
-0.00440103
-0.00431946
-0.00422797
-0.00412748
-0.00401902
-0.00390377
-0.00378298
-0.00365802
-0.00353032
-0.00340139
-0.0032728
-0.00314614
-0.00302303
-0.00290507
-0.00279385
-0.0026909
-0.0025977
-0.00251563
-0.00244597
-0.00238987
-0.00234833
-0.00232221
-0.00231217
-0.00231869
-0.00234207
-0.00238239
-0.00243954
-0.0025132
-0.00260286
-0.00270782
-0.00282719
-0.00295994
-0.00310488
-0.00326069
-0.00342596
-0.0035992
-0.00377885
-0.00396334
-0.00415109
-0.00434053
-0.00453016
-0.0047185
-0.00490421
-0.00508602
-0.00526276
-0.00543342
-0.00559711
-0.00575305
-0.00590063
-0.00603934
-0.00616882
-0.00628879
-0.00639909
-0.00649965
-0.00659043
-0.00667147
-0.00674281
-0.0068045
-0.00685658
-0.00689903
-0.00693179
-0.00695471
-0.00696755
-0.00697001
-0.00696173
-0.00694135
-0.0069061
-0.00686567
0.000870918
0.000809649
0.000742436
0.000679773
0.000619128
0.000559487
0.000500734
0.000442703
0.000385127
0.000327712
0.000270147
0.000212109
0.00015327
9.32946e-05
3.18525e-05
-3.1383e-05
-9.673e-05
-0.000164496
-0.000234974
-0.000308442
-0.000385161
-0.000465374
-0.000549301
-0.00063714
-0.000729066
-0.000825227
-0.000925743
-0.0010307
-0.00114016
-0.00125415
-0.00137263
-0.00149556
-0.00162283
-0.0017543
-0.00188975
-0.00202895
-0.00217159
-0.00231731
-0.0024657
-0.00261628
-0.00276852
-0.00292185
-0.00307562
-0.00322915
-0.0033817
-0.00353249
-0.00368072
-0.00382553
-0.00396606
-0.00410142
-0.00423073
-0.00435308
-0.00446761
-0.00457347
-0.00466983
-0.00475593
-0.00483104
-0.00489453
-0.00494582
-0.00498442
-0.00500994
-0.00502212
-0.00502079
-0.00500591
-0.00497755
-0.00493596
-0.00488147
-0.00481459
-0.00473595
-0.00464632
-0.00454661
-0.00443785
-0.0043212
-0.00419793
-0.00406942
-0.00393712
-0.00380258
-0.00366739
-0.00353321
-0.0034017
-0.00327452
-0.00315334
-0.00303977
-0.00293537
-0.00284161
-0.00275986
-0.00269137
-0.00263725
-0.00259844
-0.00257572
-0.00256967
-0.00258067
-0.00260891
-0.00265435
-0.00271677
-0.0027957
-0.00289052
-0.00300039
-0.00312431
-0.00326111
-0.00340952
-0.0035681
-0.00373537
-0.00390976
-0.00408967
-0.00427348
-0.00445961
-0.00464648
-0.00483261
-0.00501658
-0.00519707
-0.0053729
-0.00554297
-0.00570637
-0.00586228
-0.00601006
-0.00614917
-0.00627921
-0.00639991
-0.00651109
-0.00661265
-0.00670458
-0.0067869
-0.00685966
-0.00692294
-0.00697676
-0.00702114
-0.00705601
-0.00708127
-0.00709671
-0.00710201
-0.00709689
-0.00708009
-0.00704909
-0.00701283
0.000963891
0.000894012
0.000818209
0.000748675
0.000682367
0.000617997
0.000555336
0.000494103
0.00043391
0.000374347
0.000314995
0.000255433
0.000195237
0.000133992
7.12884e-05
6.7309e-06
-6.00621e-05
-0.000129456
-0.000201796
-0.000277409
-0.000356602
-0.000439658
-0.000526835
-0.000618368
-0.000714466
-0.000815307
-0.00092104
-0.00103178
-0.0011476
-0.00126855
-0.00139463
-0.00152577
-0.0016619
-0.00180287
-0.00194847
-0.00209845
-0.00225248
-0.00241021
-0.00257118
-0.00273489
-0.00290079
-0.00306826
-0.0032366
-0.00340508
-0.00357292
-0.00373928
-0.00390328
-0.00406402
-0.00422055
-0.00437192
-0.00451717
-0.00465535
-0.00478549
-0.00490667
-0.00501801
-0.00511865
-0.00520781
-0.00528476
-0.00534888
-0.00539959
-0.00543646
-0.00545915
-0.00546742
-0.00546119
-0.00544049
-0.00540549
-0.0053565
-0.00529399
-0.00521855
-0.00513093
-0.00503201
-0.00492282
-0.00480451
-0.00467835
-0.00454573
-0.00440812
-0.00426711
-0.00412432
-0.00398145
-0.00384023
-0.00370238
-0.00356964
-0.00344371
-0.00332624
-0.0032188
-0.00312287
-0.00303981
-0.00297083
-0.002917
-0.00287921
-0.00285816
-0.00285434
-0.00286805
-0.00289936
-0.00294813
-0.00301399
-0.0030964
-0.00319457
-0.00330757
-0.00343427
-0.00357341
-0.00372359
-0.00388331
-0.00405101
-0.00422507
-0.00440383
-0.00458568
-0.004769
-0.00495225
-0.00513396
-0.00531277
-0.00548741
-0.00565678
-0.00581986
-0.00597583
-0.00612397
-0.00626372
-0.00639464
-0.00651643
-0.00662889
-0.0067319
-0.00682544
-0.00690953
-0.00698422
-0.00704957
-0.00710563
-0.00715242
-0.00718989
-0.00721797
-0.00723644
-0.00724503
-0.00724349
-0.00723068
-0.00720435
-0.0071726
0.00105431
0.000975632
0.000891061
0.000814526
0.000742451
0.000673261