/*--------------------------------*- C++ -*----------------------------------*\
  =========                 |
  \\      /  F ield         | OpenFOAM: The Open Source CFD Toolbox
   \\    /   O peration     | Website:  https://openfoam.org
    \\  /    A nd           | Version:  12
     \\/     M anipulation  |
\*---------------------------------------------------------------------------*/
FoamFile
{
    format      ascii;
    class       volVectorField;
    location    "5.5";
    object      U;
}
// * * * * * * * * * * * * * * * * * * * * * * * * * * * * * * * * * * * * * //

dimensions      [0 1 -1 0 0 0 0];

internalField   nonuniform List<vector> 
18225
(
(2.67009e-07 -2.52e-07 0)
(1.14912e-05 -3.58395e-06 0)
(3.45409e-05 -6.01514e-06 0)
(6.48978e-05 -7.07371e-06 0)
(9.7378e-05 -7.21706e-06 0)
(0.000128373 -6.76785e-06 0)
(0.000155453 -5.95129e-06 0)
(0.000177004 -4.92555e-06 0)
(0.000192006 -3.79631e-06 0)
(0.000199882 -2.63188e-06 0)
(0.000200361 -1.47578e-06 0)
(0.000193391 -3.54511e-07 0)
(0.00017906 7.17027e-07 0)
(0.000157551 1.73142e-06 0)
(0.000129099 2.68718e-06 0)
(9.39606e-05 3.5868e-06 0)
(5.2398e-05 4.43376e-06 0)
(4.65989e-06 5.23398e-06 0)
(-4.90255e-05 5.99403e-06 0)
(-0.00010846 6.72203e-06 0)
(-0.000173475 7.42529e-06 0)
(-0.000243935 8.11051e-06 0)
(-0.00031973 8.78338e-06 0)
(-0.000400778 9.44934e-06 0)
(-0.000487023 1.0113e-05 0)
(-0.000578425 1.07782e-05 0)
(-0.00067496 1.14475e-05 0)
(-0.000776612 1.21231e-05 0)
(-0.000883367 1.28058e-05 0)
(-0.000995213 1.34959e-05 0)
(-0.00111213 1.41928e-05 0)
(-0.00123408 1.48951e-05 0)
(-0.00136103 1.56009e-05 0)
(-0.0014929 1.63075e-05 0)
(-0.0016296 1.70115e-05 0)
(-0.00177103 1.77093e-05 0)
(-0.00191702 1.83966e-05 0)
(-0.0020674 1.90685e-05 0)
(-0.00222195 1.97201e-05 0)
(-0.00238041 2.03456e-05 0)
(-0.0025425 2.09394e-05 0)
(-0.00270788 2.14951e-05 0)
(-0.00287616 2.20065e-05 0)
(-0.00304692 2.24667e-05 0)
(-0.0032197 2.2869e-05 0)
(-0.00339398 2.32063e-05 0)
(-0.00356922 2.34717e-05 0)
(-0.0037448 2.3658e-05 0)
(-0.00392009 2.37581e-05 0)
(-0.00409441 2.37651e-05 0)
(-0.00426702 2.36722e-05 0)
(-0.00443718 2.34729e-05 0)
(-0.00460409 2.3161e-05 0)
(-0.00476693 2.27307e-05 0)
(-0.00492484 2.21768e-05 0)
(-0.00507696 2.14948e-05 0)
(-0.0052224 2.06806e-05 0)
(-0.00536025 1.97314e-05 0)
(-0.00548963 1.86448e-05 0)
(-0.00560962 1.74198e-05 0)
(-0.00571934 1.60564e-05 0)
(-0.00581791 1.45556e-05 0)
(-0.00590447 1.292e-05 0)
(-0.00597822 1.11535e-05 0)
(-0.00603836 9.26069e-06 0)
(-0.00608417 7.24483e-06 0)
(-0.00611499 5.11459e-06 0)
(-0.00613015 2.90305e-06 0)
(-0.00612926 5.77279e-07 0)
(-0.00611174 -1.81498e-06 0)
(-0.00607728 -4.27436e-06 0)
(-0.00602561 -6.78339e-06 0)
(-0.00595658 -9.32525e-06 0)
(-0.00587014 -1.18825e-05 0)
(-0.00576635 -1.44366e-05 0)
(-0.0056454 -1.69682e-05 0)
(-0.00550759 -1.94573e-05 0)
(-0.00535337 -2.18836e-05 0)
(-0.00518328 -2.42265e-05 0)
(-0.00499801 -2.64655e-05 0)
(-0.00479835 -2.85804e-05 0)
(-0.00458524 -3.05517e-05 0)
(-0.00435969 -3.23605e-05 0)
(-0.00412286 -3.39893e-05 0)
(-0.00387598 -3.54219e-05 0)
(-0.00362037 -3.66437e-05 0)
(-0.00335746 -3.76421e-05 0)
(-0.00308871 -3.84065e-05 0)
(-0.00281566 -3.89287e-05 0)
(-0.00253987 -3.92028e-05 0)
(-0.00226295 -3.92258e-05 0)
(-0.0019865 -3.89971e-05 0)
(-0.00171213 -3.85189e-05 0)
(-0.00144141 -3.77961e-05 0)
(-0.00117591 -3.68362e-05 0)
(-0.000917124 -3.56493e-05 0)
(-0.000666478 -3.42479e-05 0)
(-0.000425333 -3.26466e-05 0)
(-0.000194955 -3.08621e-05 0)
(2.34948e-05 -2.89128e-05 0)
(0.000228964 -2.68187e-05 0)
(0.000420521 -2.46006e-05 0)
(0.000597364 -2.22809e-05 0)
(0.000758814 -1.98773e-05 0)
(0.000904333 -1.74151e-05 0)
(0.00103352 -1.4918e-05 0)
(0.00114611 -1.24057e-05 0)
(0.00124197 -9.89818e-06 0)
(0.00132108 -7.41498e-06 0)
(0.00138357 -4.97407e-06 0)
(0.00142966 -2.59193e-06 0)
(0.0014597 -2.83593e-07 0)
(0.00147414 1.93755e-06 0)
(0.00147352 4.05891e-06 0)
(0.00145847 6.07134e-06 0)
(0.0014297 7.96752e-06 0)
(0.00138801 9.73695e-06 0)
(0.00133424 1.13724e-05 0)
(0.00126934 1.28664e-05 0)
(0.00119432 1.42104e-05 0)
(0.00111027 1.53943e-05 0)
(0.00101838 1.64051e-05 0)
(0.000919955 1.72253e-05 0)
(0.000816418 1.78312e-05 0)
(0.000709374 1.81904e-05 0)
(0.000600632 1.82588e-05 0)
(0.000492256 1.79769e-05 0)
(0.000386627 1.7265e-05 0)
(0.000286506 1.60182e-05 0)
(0.000195091 1.41042e-05 0)
(0.00011604 1.13695e-05 0)
(5.3401e-05 7.65872e-06 0)
(1.12111e-05 2.88693e-06 0)
(-7.88999e-06 -2.46602e-06 0)
(-5.58108e-06 -5.58223e-06 0)
(3.62069e-06 -1.14811e-05 0)
(3.61148e-05 -3.59676e-05 0)
(9.05579e-05 -5.31907e-05 0)
(0.00015797 -6.11048e-05 0)
(0.000228064 -6.13274e-05 0)
(0.000293241 -5.58832e-05 0)
(0.000347939 -4.64885e-05 0)
(0.000388167 -3.44783e-05 0)
(0.00041122 -2.08541e-05 0)
(0.000415395 -6.34601e-06 0)
(0.000399757 8.52398e-06 0)
(0.000363921 2.33998e-05 0)
(0.000307903 3.80379e-05 0)
(0.00023199 5.22879e-05 0)
(0.000136636 6.60669e-05 0)
(2.23904e-05 7.93427e-05 0)
(-0.000110162 9.21229e-05 0)
(-0.000260443 0.000104438 0)
(-0.000427914 0.000116336 0)
(-0.000612075 0.000127869 0)
(-0.000812493 0.000139096 0)
(-0.0010288 0.000150076 0)
(-0.0012607 0.000160863 0)
(-0.00150794 0.000171508 0)
(-0.00177035 0.00018205 0)
(-0.00204776 0.000192521 0)
(-0.00234005 0.000202943 0)
(-0.00264712 0.000213328 0)
(-0.00296886 0.000223677 0)
(-0.00330516 0.000233981 0)
(-0.00365588 0.000244222 0)
(-0.00402083 0.000254373 0)
(-0.0043998 0.000264397 0)
(-0.0047925 0.00027425 0)
(-0.00519858 0.000283881 0)
(-0.0056176 0.00029323 0)
(-0.00604905 0.000302235 0)
(-0.00649231 0.000310824 0)
(-0.00694666 0.000318924 0)
(-0.00741128 0.000326455 0)
(-0.00788524 0.000333335 0)
(-0.00836749 0.00033948 0)
(-0.00885686 0.000344803 0)
(-0.00935206 0.000349214 0)
(-0.00985169 0.000352625 0)
(-0.0103542 0.000354946 0)
(-0.010858 0.00035609 0)
(-0.0113613 0.00035597 0)
(-0.0118622 0.000354503 0)
(-0.0123588 0.000351609 0)
(-0.012849 0.000347211 0)
(-0.0133306 0.000341242 0)
(-0.0138014 0.000333637 0)
(-0.014259 0.000324341 0)
(-0.0147011 0.000313309 0)
(-0.0151253 0.000300503 0)
(-0.0155291 0.000285898 0)
(-0.0159101 0.000269481 0)
(-0.0162658 0.00025125 0)
(-0.0165938 0.000231218 0)
(-0.0168916 0.000209414 0)
(-0.017157 0.00018588 0)
(-0.0173876 0.000160676 0)
(-0.0175814 0.000133875 0)
(-0.0177363 0.000105567 0)
(-0.0178505 7.58492e-05 0)
(-0.0179222 4.48294e-05 0)
(-0.0179497 1.28436e-05 0)
(-0.0179321 -2.02589e-05 0)
(-0.0178681 -5.41267e-05 0)
(-0.0177568 -8.85956e-05 0)
(-0.0175978 -0.000123467 0)
(-0.0173907 -0.000158527 0)
(-0.0171355 -0.000193551 0)
(-0.0168325 -0.000228305 0)
(-0.0164825 -0.000262547 0)
(-0.0160863 -0.000296031 0)
(-0.0156451 -0.00032851 0)
(-0.0151608 -0.000359736 0)
(-0.014635 -0.000389463 0)
(-0.0140702 -0.000417453 0)
(-0.0134687 -0.000443475 0)
(-0.0128336 -0.000467309 0)
(-0.0121678 -0.000488751 0)
(-0.0114747 -0.000507612 0)
(-0.010758 -0.000523726 0)
(-0.0100213 -0.000536945 0)
(-0.00926881 -0.00054715 0)
(-0.00850447 -0.000554244 0)
(-0.00773253 -0.000558161 0)
(-0.00695726 -0.000558864 0)
(-0.00618299 -0.000556346 0)
(-0.00541399 -0.000550631 0)
(-0.00465452 -0.000541772 0)
(-0.00390873 -0.000529855 0)
(-0.00318067 -0.000514994 0)
(-0.00247421 -0.000497331 0)
(-0.001793 -0.000477033 0)
(-0.00114051 -0.000454293 0)
(-0.000519903 -0.000429323 0)
(6.59173e-05 -0.000402355 0)
(0.000614366 -0.000373633 0)
(0.00112318 -0.000343412 0)
(0.00159045 -0.000311964 0)
(0.0020146 -0.000279556 0)
(0.00239442 -0.000246457 0)
(0.00272905 -0.000212934 0)
(0.003018 -0.000179249 0)
(0.0032611 -0.000145657 0)
(0.00345854 -0.000112398 0)
(0.00361081 -7.97046e-05 0)
(0.00371875 -4.77913e-05 0)
(0.00378344 -1.68596e-05 0)
(0.00380627 1.29058e-05 0)
(0.00378889 4.1318e-05 0)
(0.00373317 6.82368e-05 0)
(0.00364122 9.34988e-05 0)
(0.0035154 0.000116946 0)
(0.00335828 0.000138428 0)
(0.00317267 0.00015778 0)
(0.00296162 0.000174822 0)
(0.00272848 0.000189346 0)
(0.00247688 0.000201103 0)
(0.00221084 0.00020979 0)
(0.0019348 0.000215037 0)
(0.00165371 0.00021639 0)
(0.00137309 0.000213295 0)
(0.00109917 0.000205095 0)
(0.000838884 0.000191035 0)
(0.000599936 0.000170318 0)
(0.000390649 0.000142261 0)
(0.000219574 0.000106659 0)
(9.46356e-05 6.46646e-05 0)
(2.13222e-05 2.12885e-05 0)
(-2.46395e-06 -7.89309e-06 0)
(6.12272e-06 -3.47308e-05 0)
(5.36775e-05 -9.05487e-05 0)
(0.000126818 -0.000126239 0)
(0.000213359 -0.000141275 0)
(0.000300084 -0.000139013 0)
(0.000377274 -0.000123445 0)
(0.000437548 -9.8175e-05 0)
(0.000475377 -6.61731e-05 0)
(0.000486836 -2.97806e-05 0)
(0.000469323 9.21829e-06 0)
(0.000421282 4.94972e-05 0)
(0.000341958 9.00983e-05 0)
(0.000231178 0.000130358 0)
(8.91825e-05 0.000169843 0)
(-8.35159e-05 0.000208294 0)
(-0.000286238 0.000245588 0)
(-0.000518218 0.000281697 0)
(-0.00077867 0.000316663 0)
(-0.00106683 0.000350574 0)
(-0.001382 0.000383547 0)
(-0.00172355 0.000415716 0)
(-0.00209093 0.000447215 0)
(-0.00248368 0.000478171 0)
(-0.00290139 0.000508697 0)
(-0.00334374 0.000538887 0)
(-0.00381044 0.000568809 0)
(-0.00430123 0.00059851 0)
(-0.00481588 0.000628008 0)
(-0.00535414 0.000657296 0)
(-0.00591571 0.000686338 0)
(-0.00650029 0.000715074 0)
(-0.00710747 0.000743421 0)
(-0.00773679 0.000771271 0)
(-0.00838767 0.000798495 0)
(-0.00905942 0.000824943 0)
(-0.00975123 0.000850451 0)
(-0.0104621 0.000874835 0)
(-0.011191 0.000897899 0)
(-0.0119366 0.000919434 0)
(-0.0126975 0.000939221 0)
(-0.013472 0.000957033 0)
(-0.0142584 0.000972636 0)
(-0.0150547 0.000985791 0)
(-0.0158586 0.000996258 0)
(-0.016668 0.0010038 0)
(-0.0174802 0.00100817 0)
(-0.0182925 0.00100913 0)
(-0.019102 0.00100647 0)
(-0.0199058 0.000999965 0)
(-0.0207006 0.000989403 0)
(-0.0214831 0.000974596 0)
(-0.0222498 0.00095537 0)
(-0.0229972 0.000931571 0)
(-0.0237216 0.000903068 0)
(-0.0244193 0.000869756 0)
(-0.0250865 0.000831558 0)
(-0.0257193 0.000788427 0)
(-0.026314 0.00074035 0)
(-0.0268668 0.000687351 0)
(-0.027374 0.00062949 0)
(-0.0278319 0.000566868 0)
(-0.028237 0.000499625 0)
(-0.0285858 0.000427945 0)
(-0.0288754 0.000352055 0)
(-0.0291025 0.000272223 0)
(-0.0292645 0.000188758 0)
(-0.0293589 0.000102016 0)
(-0.0293834 1.2455e-05 0)
(-0.0293364 -7.95451e-05 0)
(-0.0292163 -0.000173502 0)
(-0.0290219 -0.000268888 0)
(-0.0287527 -0.00036515 0)
(-0.0284083 -0.00046171 0)
(-0.027989 -0.000557961 0)
(-0.0274954 -0.000653278 0)
(-0.0269287 -0.000747019 0)
(-0.0262904 -0.000838533 0)
(-0.0255826 -0.000927165 0)
(-0.024808 -0.00101226 0)
(-0.0239695 -0.00109318 0)
(-0.0230708 -0.0011693 0)
(-0.0221157 -0.00124002 0)
(-0.0211087 -0.00130476 0)
(-0.0200545 -0.00136299 0)
(-0.0189584 -0.00141423 0)
(-0.0178257 -0.00145804 0)
(-0.0166624 -0.00149404 0)
(-0.0154744 -0.00152192 0)
(-0.014268 -0.00154143 0)
(-0.0130496 -0.0015524 0)
(-0.0118256 -0.00155473 0)
(-0.0106028 -0.0015484 0)
(-0.00938745 -0.00153347 0)
(-0.00818618 -0.00151007 0)
(-0.00700529 -0.00147843 0)
(-0.00585095 -0.00143884 0)
(-0.00472908 -0.00139165 0)
(-0.00364532 -0.00133731 0)
(-0.00260498 -0.00127631 0)
(-0.00161299 -0.00120921 0)
(-0.000673867 -0.00113659 0)
(0.000208332 -0.00105911 0)
(0.00103003 -0.000977441 0)
(0.00178815 -0.000892278 0)
(0.00248013 -0.000804333 0)
(0.00310397 -0.000714324 0)
(0.00365817 -0.000622968 0)
(0.00414178 -0.000530969 0)
(0.00455439 -0.000439015 0)
(0.00489611 -0.000347768 0)
(0.00516752 -0.000257862 0)
(0.00536972 -0.000169902 0)
(0.00550426 -8.44538e-05 0)
(0.00557314 -2.05509e-06 0)
(0.00557878 7.67918e-05 0)
(0.00552399 0.000151615 0)
(0.00541198 0.00022195 0)
(0.00524636 0.00028734 0)
(0.00503109 0.000347327 0)
(0.00477054 0.000401426 0)
(0.00446948 0.000449115 0)
(0.00413313 0.000489805 0)
(0.00376718 0.000522817 0)
(0.00337788 0.000547353 0)
(0.0029721 0.000562472 0)
(0.0025574 0.000567068 0)
(0.00214209 0.000559854 0)
(0.00173534 0.000539381 0)
(0.00134715 0.000504106 0)
(0.000988286 0.000452565 0)
(0.000669995 0.000383774 0)
(0.0004034 0.000298013 0)
(0.000198741 0.000198416 0)
(6.48538e-05 9.46481e-05 0)
(2.90515e-06 1.12489e-05 0)
(7.27471e-06 -6.55055e-05 0)
(6.19198e-05 -0.000158371 0)
(0.000142189 -0.00021291 0)
(0.000233271 -0.000232624 0)
(0.000319942 -0.000223472 0)
(0.000391238 -0.000191754 0)
(0.000438761 -0.000143192 0)
(0.000456088 -8.26306e-05 0)
(0.000438539 -1.39888e-05 0)
(0.000382909 5.96581e-05 0)
(0.00028719 0.000135967 0)
(0.000150301 0.000213208 0)
(-2.81255e-05 0.00029015 0)
(-0.000247943 0.000365959 0)
(-0.000508648 0.000440112 0)
(-0.000809512 0.00051233 0)
(-0.00114968 0.000582519 0)
(-0.00152826 0.000650712 0)
(-0.00194436 0.000717036 0)
(-0.00239713 0.000781674 0)
(-0.00288581 0.000844837 0)
(-0.0034097 0.000906742 0)
(-0.00396818 0.000967598 0)
(-0.00456074 0.00102759 0)
(-0.00518688 0.00108686 0)
(-0.00584618 0.00114552 0)
(-0.00653823 0.00120364 0)
(-0.00726261 0.00126123 0)
(-0.00801889 0.00131825 0)
(-0.00880657 0.00137463 0)
(-0.00962509 0.00143023 0)
(-0.0104738 0.00148487 0)
(-0.0113519 0.00153834 0)
(-0.0122585 0.00159038 0)
(-0.0131924 0.0016407 0)
(-0.0141525 0.00168896 0)
(-0.0151373 0.00173482 0)
(-0.0161451 0.00177789 0)
(-0.017174 0.00181777 0)
(-0.0182219 0.00185403 0)
(-0.0192865 0.00188624 0)
(-0.0203653 0.00191396 0)
(-0.0214554 0.00193673 0)
(-0.0225537 0.0019541 0)
(-0.023657 0.00196562 0)
(-0.0247618 0.00197083 0)
(-0.0258643 0.00196932 0)
(-0.0269606 0.00196066 0)
(-0.0280465 0.00194445 0)
(-0.0291177 0.00192033 0)
(-0.0301696 0.00188795 0)
(-0.0311978 0.00184701 0)
(-0.0321972 0.00179725 0)
(-0.0331632 0.00173844 0)
(-0.0340907 0.00167043 0)
(-0.0349749 0.0015931 0)
(-0.0358106 0.0015064 0)
(-0.036593 0.00141034 0)
(-0.0373172 0.00130501 0)
(-0.0379783 0.00119055 0)
(-0.0385717 0.00106719 0)
(-0.039093 0.000935246 0)
(-0.0395379 0.000795087 0)
(-0.0399022 0.000647178 0)
(-0.0401825 0.000492058 0)
(-0.0403752 0.000330346 0)
(-0.0404773 0.000162746 0)
(-0.0404863 -9.94085e-06 0)
(-0.0404 -0.000186898 0)
(-0.0402166 -0.000367214 0)
(-0.0399351 -0.000549901 0)
(-0.0395547 -0.000733919 0)
(-0.0390754 -0.000918179 0)
(-0.0384975 -0.00110155 0)
(-0.0378223 -0.00128287 0)
(-0.0370513 -0.00146094 0)
(-0.0361868 -0.00163457 0)
(-0.0352316 -0.00180255 0)
(-0.0341893 -0.00196366 0)
(-0.0330639 -0.00211675 0)
(-0.0318601 -0.00226067 0)
(-0.030583 -0.0023943 0)
(-0.0292383 -0.00251662 0)
(-0.0278323 -0.00262666 0)
(-0.0263717 -0.00272352 0)
(-0.0248635 -0.00280642 0)
(-0.0233152 -0.00287466 0)
(-0.0217346 -0.00292767 0)
(-0.0201296 -0.00296501 0)
(-0.0185085 -0.00298635 0)
(-0.0168795 -0.00299151 0)
(-0.0152512 -0.00298046 0)
(-0.0136318 -0.00295329 0)
(-0.0120297 -0.00291026 0)
(-0.0104531 -0.00285174 0)
(-0.00890979 -0.00277826 0)
(-0.00740757 -0.00269048 0)
(-0.00595371 -0.00258918 0)
(-0.00455513 -0.00247526 0)
(-0.00321827 -0.00234973 0)
(-0.00194908 -0.00221368 0)
(-0.000752926 -0.00206828 0)
(0.000365406 -0.00191476 0)
(0.00140177 -0.00175442 0)
(0.00235265 -0.00158856 0)
(0.00321524 -0.00141853 0)
(0.00398738 -0.00124565 0)
(0.00466762 -0.00107124 0)
(0.00525518 -0.000896603 0)
(0.00574996 -0.000722995 0)
(0.00615251 -0.000551627 0)
(0.00646403 -0.000383658 0)
(0.00668632 -0.000220186 0)
(0.00682181 -6.22661e-05 0)
(0.00687348 8.91047e-05 0)
(0.00684487 0.00023298 0)
(0.00674008 0.000368437 0)
(0.0065637 0.000494564 0)
(0.00632088 0.000610436 0)
(0.0060173 0.000715096 0)
(0.00565917 0.00080752 0)
(0.0052533 0.000886577 0)
(0.00480714 0.000950995 0)
(0.00432879 0.00099932 0)
(0.00382712 0.00102988 0)
(0.00331177 0.00104077 0)
(0.00279327 0.00102986 0)
(0.00228298 0.000994837 0)
(0.00179315 0.000933359 0)
(0.00133668 0.000843387 0)
(0.000926863 0.000723787 0)
(0.000576783 0.000575445 0)
(0.000299054 0.000403231 0)
(0.000107159 0.000219889 0)
(7.71287e-06 5.36029e-05 0)
(7.50142e-06 -9.85663e-05 0)
(6.21391e-05 -0.000228833 0)
(0.000139201 -0.000299383 0)
(0.000222115 -0.000319025 0)
(0.000294468 -0.000297077 0)
(0.000344581 -0.000242472 0)
(0.000363535 -0.000163198 0)
(0.000344474 -6.60612e-05 0)
(0.000282333 4.33489e-05 0)
(0.000173583 0.000160576 0)
(1.59435e-05 0.000282167 0)
(-0.000191863 0.000405522 0)
(-0.000450347 0.000528755 0)
(-0.000759448 0.00065056 0)
(-0.0011187 0.0007701 0)
(-0.00152738 0.000886898 0)
(-0.00198459 0.00100076 0)
(-0.00248938 0.00111168 0)
(-0.00304079 0.00121982 0)
(-0.00363788 0.0013254 0)
(-0.00427977 0.00142872 0)
(-0.00496567 0.00153006 0)
(-0.00569484 0.00162971 0)
(-0.00646662 0.00172793 0)
(-0.00728039 0.00182489 0)
(-0.00813557 0.00192075 0)
(-0.00903156 0.00201556 0)
(-0.00996775 0.00210932 0)
(-0.0109435 0.00220194 0)
(-0.011958 0.00229326 0)
(-0.0130106 0.00238305 0)
(-0.0141001 0.00247101 0)
(-0.0152254 0.00255676 0)
(-0.0163852 0.00263988 0)
(-0.0175781 0.00271988 0)
(-0.0188021 0.00279622 0)
(-0.0200554 0.00286832 0)
(-0.0213356 0.00293556 0)
(-0.0226404 0.00299729 0)
(-0.0239667 0.00305284 0)
(-0.0253116 0.0031015 0)
(-0.0266718 0.00314256 0)
(-0.0280435 0.00317531 0)
(-0.0294228 0.00319904 0)
(-0.0308055 0.00321303 0)
(-0.0321871 0.0032166 0)
(-0.0335629 0.00320907 0)
(-0.0349279 0.00318981 0)
(-0.036277 0.00315821 0)
(-0.0376046 0.00311372 0)
(-0.0389053 0.00305583 0)
(-0.0401733 0.0029841 0)
(-0.0414028 0.00289815 0)
(-0.0425878 0.0027977 0)
(-0.0437223 0.00268252 0)
(-0.0448003 0.00255249 0)
(-0.0458159 0.00240758 0)
(-0.0467631 0.00224788 0)
(-0.0476362 0.00207356 0)
(-0.0484294 0.00188493 0)
(-0.0491374 0.00168239 0)
(-0.0497548 0.00146648 0)
(-0.0502769 0.00123785 0)
(-0.0506988 0.000997279 0)
(-0.0510166 0.000745666 0)
(-0.0512262 0.000484027 0)
(-0.0513244 0.000213502 0)
(-0.0513084 -6.46481e-05 0)
(-0.0511757 -0.000349083 0)
(-0.0509247 -0.000638345 0)
(-0.0505542 -0.00093088 0)
(-0.0500638 -0.00122505 0)
(-0.0494534 -0.00151916 0)
(-0.048724 -0.00181142 0)
(-0.047877 -0.00210003 0)
(-0.0469146 -0.00238315 0)
(-0.0458398 -0.0026589 0)
(-0.044656 -0.00292542 0)
(-0.0433675 -0.00318087 0)
(-0.0419794 -0.00342344 0)
(-0.0404972 -0.00365137 0)
(-0.0389271 -0.00386297 0)
(-0.037276 -0.00405665 0)
(-0.0355513 -0.00423093 0)
(-0.0337609 -0.00438445 0)
(-0.0319133 -0.00451599 0)
(-0.0300171 -0.00462451 0)
(-0.0280817 -0.00470912 0)
(-0.0261164 -0.00476914 0)
(-0.0241309 -0.00480407 0)
(-0.0221351 -0.00481362 0)
(-0.0201388 -0.00479772 0)
(-0.018152 -0.00475653 0)
(-0.0161845 -0.00469039 0)
(-0.014246 -0.0045999 0)
(-0.0123459 -0.00448583 0)
(-0.0104934 -0.00434919 0)
(-0.00869716 -0.00419115 0)
(-0.00696551 -0.00401308 0)
(-0.00530624 -0.00381651 0)
(-0.00372653 -0.00360312 0)
(-0.00223297 -0.00337469 0)
(-0.000831431 -0.00313313 0)
(0.000472921 -0.00288043 0)
(0.00167567 -0.00261862 0)
(0.0027732 -0.00234977 0)
(0.00376267 -0.00207596 0)
(0.00464205 -0.00179928 0)
(0.00541013 -0.00152176 0)
(0.00606649 -0.00124541 0)
(0.00661152 -0.000972141 0)
(0.00704636 -0.000703831 0)
(0.00737295 -0.000442269 0)
(0.00759395 -0.000189164 0)
(0.0077127 5.38658e-05 0)
(0.00773329 0.000285229 0)
(0.00766046 0.000503409 0)
(0.00749963 0.000706896 0)
(0.00725687 0.000894161 0)
(0.00693891 0.00106363 0)
(0.00655319 0.00121365 0)
(0.00610783 0.00134242 0)
(0.00561168 0.00144796 0)
(0.00507438 0.00152805 0)
(0.00450639 0.00158021 0)
(0.00391904 0.00160166 0)
(0.00332452 0.0015894 0)
(0.0027359 0.00154027 0)
(0.00216709 0.00145117 0)
(0.00163267 0.00131954 0)
(0.00114761 0.00114403 0)
(0.000726888 0.000925824 0)
(0.000385845 0.00067054 0)
(0.000143193 0.000391701 0)
(1.1471e-05 0.000116606 0)
(7.09054e-06 -0.000130059 0)
(5.60143e-05 -0.000293587 0)
(0.000120987 -0.00037469 0)
(0.000184633 -0.000387774 0)
(0.000230185 -0.000345922 0)
(0.000245713 -0.000260942 0)
(0.000222155 -0.0001432 0)
(0.000152559 -1.50525e-06 0)
(3.17799e-05 0.000156862 0)
(-0.0001438 0.000326043 0)
(-0.000376542 0.000501442 0)
(-0.000667801 0.000679562 0)
(-0.00101815 0.000857828 0)
(-0.00142757 0.00103443 0)
(-0.00189562 0.00120818 0)
(-0.00242159 0.00137838 0)
(-0.00300457 0.00154471 0)
(-0.00364358 0.00170712 0)
(-0.00433762 0.00186576 0)
(-0.00508569 0.0020209 0)
(-0.00588686 0.00217289 0)
(-0.00674022 0.0023221 0)
(-0.00764495 0.00246885 0)
(-0.00860026 0.00261346 0)
(-0.0096054 0.00275615 0)
(-0.0106596 0.00289705 0)
(-0.0117621 0.00303621 0)
(-0.0129121 0.00317357 0)
(-0.0141086 0.00330897 0)
(-0.0153507 0.00344214 0)
(-0.0166371 0.0035727 0)
(-0.0179666 0.00370018 0)
(-0.0193375 0.00382403 0)
(-0.0207482 0.00394358 0)
(-0.0221966 0.00405813 0)
(-0.0236804 0.00416687 0)
(-0.025197 0.00426895 0)
(-0.0267435 0.00436347 0)
(-0.0283168 0.00444947 0)
(-0.0299133 0.00452597 0)
(-0.0315292 0.00459198 0)
(-0.0331603 0.00464647 0)
(-0.0348021 0.00468843 0)
(-0.0364498 0.00471683 0)
(-0.0380983 0.00473069 0)
(-0.0397422 0.00472903 0)
(-0.0413757 0.00471093 0)
(-0.042993 0.00467549 0)
(-0.0445878 0.00462192 0)
(-0.0461538 0.00454944 0)
(-0.0476844 0.0044574 0)
(-0.0491729 0.00434522 0)
(-0.0506126 0.00421243 0)
(-0.0519965 0.00405867 0)
(-0.0533177 0.00388372 0)
(-0.0545694 0.00368745 0)
(-0.0557448 0.00346992 0)
(-0.0568371 0.00323131 0)
(-0.0578399 0.00297195 0)
(-0.0587467 0.00269236 0)
(-0.0595516 0.00239318 0)
(-0.0602488 0.00207526 0)
(-0.0608327 0.00173958 0)
(-0.0612985 0.00138732 0)
(-0.0616416 0.00101982 0)
(-0.0618579 0.000638557 0)
(-0.0619438 0.000245207 0)
(-0.0618964 -0.000158423 0)
(-0.0617134 -0.000570384 0)
(-0.0613931 -0.000988591 0)
(-0.0609345 -0.00141083 0)
(-0.0603372 -0.00183479 0)
(-0.0596016 -0.00225806 0)
(-0.058729 -0.00267814 0)
(-0.0577213 -0.00309249 0)
(-0.0565811 -0.00349852 0)
(-0.0553119 -0.00389364 0)
(-0.0539179 -0.00427525 0)
(-0.0524041 -0.00464078 0)
(-0.0507762 -0.00498772 0)
(-0.0490406 -0.00531364 0)
(-0.0472044 -0.0056162 0)
(-0.0452754 -0.00589319 0)
(-0.043262 -0.00614256 0)
(-0.0411731 -0.00636244 0)
(-0.0390181 -0.00655114 0)
(-0.036807 -0.00670721 0)
(-0.0345501 -0.00682942 0)
(-0.032258 -0.00691681 0)
(-0.0299415 -0.00696869 0)
(-0.0276118 -0.00698464 0)
(-0.02528 -0.00696455 0)
(-0.0229572 -0.0069086 0)
(-0.0206546 -0.00681727 0)
(-0.0183831 -0.00669133 0)
(-0.0161533 -0.00653186 0)
(-0.0139757 -0.0063402 0)
(-0.0118603 -0.00611797 0)
(-0.0098165 -0.00586704 0)
(-0.00785334 -0.00558951 0)
(-0.00597913 -0.00528769 0)
(-0.00420151 -0.00496407 0)
(-0.0025274 -0.00462128 0)
(-0.000962925 -0.00426209 0)
(0.000486628 -0.00388935 0)
(0.00181682 -0.00350596 0)
(0.00302412 -0.00311487 0)
(0.00410588 -0.002719 0)
(0.00506037 -0.00232128 0)
(0.00588679 -0.00192456 0)
(0.00658523 -0.00153162 0)
(0.00715668 -0.00114515 0)
(0.00760303 -0.000767758 0)
(0.00792701 -0.00040194 0)
(0.00813224 -5.01241e-05 0)
(0.0082231 0.000285378 0)
(0.00820483 0.000602302 0)
(0.00808344 0.000898413 0)
(0.00786573 0.00117145 0)
(0.00755927 0.0014191 0)
(0.00717245 0.00163897 0)
(0.00671445 0.00182849 0)
(0.00619525 0.00198488 0)
(0.00562573 0.00210506 0)
(0.00501761 0.0021857 0)
(0.00438351 0.00222315 0)
(0.00373697 0.0022135 0)
(0.0030924 0.00215275 0)
(0.00246502 0.00203707 0)
(0.00187085 0.00186326 0)
(0.00132643 0.00162956 0)
(0.000848689 0.00133684 0)
(0.000455868 0.000990318 0)
(0.000171741 0.000602293 0)
(1.42536e-05 0.000196268 0)
(6.23534e-06 -0.000157135 0)
(4.49408e-05 -0.000345906 0)
(9.03466e-05 -0.000429602 0)
(0.000125116 -0.000427985 0)
(0.000132909 -0.000357999 0)
(0.000101997 -0.00023442 0)
(2.35088e-05 -7.00381e-05 0)
(-0.000109312 0.000124329 0)
(-0.000301447 0.000339729 0)
(-0.000556387 0.000568923 0)
(-0.000876406 0.000806195 0)
(-0.00126281 0.00104716 0)
(-0.00171613 0.00128855 0)
(-0.00223634 0.00152806 0)
(-0.00282301 0.00176415 0)
(-0.00347539 0.00199588 0)
(-0.00419258 0.00222278 0)
(-0.0049736 0.00244476 0)
(-0.0058174 0.00266195 0)
(-0.00672295 0.00287466 0)
(-0.00768927 0.00308326 0)
(-0.0087154 0.00328817 0)
(-0.0098004 0.00348978 0)
(-0.0109434 0.00368839 0)
(-0.0121434 0.00388425 0)
(-0.0133996 0.00407748 0)
(-0.014711 0.00426806 0)
(-0.0160765 0.00445585 0)
(-0.017495 0.00464057 0)
(-0.018965 0.0048218 0)
(-0.0204852 0.004999 0)
(-0.0220536 0.00517148 0)
(-0.0236685 0.00533844 0)
(-0.0253275 0.00549897 0)
(-0.027028 0.00565208 0)
(-0.0287673 0.00579665 0)
(-0.0305421 0.00593152 0)
(-0.0323489 0.00605544 0)
(-0.0341837 0.00616714 0)
(-0.0360424 0.00626529 0)
(-0.0379203 0.00634854 0)
(-0.0398125 0.00641553 0)
(-0.0417135 0.0064649 0)
(-0.0436178 0.00649532 0)
(-0.0455194 0.00650547 0)
(-0.0474119 0.00649409 0)
(-0.0492887 0.00645998 0)
(-0.0511431 0.00640201 0)
(-0.0529679 0.00631915 0)
(-0.0547558 0.00621045 0)
(-0.0564994 0.00607509 0)
(-0.0581912 0.00591239 0)
(-0.0598235 0.00572181 0)
(-0.0613886 0.00550295 0)
(-0.0628789 0.0052556 0)
(-0.0642868 0.00497971 0)
(-0.0656049 0.00467544 0)
(-0.0668256 0.00434314 0)
(-0.0679421 0.00398334 0)
(-0.0689474 0.00359683 0)
(-0.069835 0.00318457 0)
(-0.0705988 0.00274775 0)
(-0.071233 0.00228779 0)
(-0.0717324 0.00180632 0)
(-0.0720921 0.00130517 0)
(-0.0723081 0.000786401 0)
(-0.0723767 0.000252256 0)
(-0.0722949 -0.000294823 0)
(-0.0720606 -0.000852218 0)
(-0.071672 -0.00141715 0)
(-0.0711284 -0.00198667 0)
(-0.0704298 -0.00255772 0)
(-0.0695768 -0.00312712 0)
(-0.068571 -0.0036916 0)
(-0.0674146 -0.00424782 0)
(-0.0661109 -0.0047924 0)
(-0.0646637 -0.00532195 0)
(-0.0630779 -0.00583309 0)
(-0.0613589 -0.00632248 0)
(-0.0595131 -0.00678686 0)
(-0.0575476 -0.00722307 0)
(-0.0554703 -0.00762807 0)
(-0.0532895 -0.00799902 0)
(-0.0510145 -0.00833325 0)
(-0.048655 -0.00862831 0)
(-0.0462213 -0.00888204 0)
(-0.0437243 -0.00909252 0)
(-0.0411751 -0.00925817 0)
(-0.0385852 -0.00937771 0)
(-0.0359667 -0.00945023 0)
(-0.0333314 -0.00947517 0)
(-0.0306915 -0.00945235 0)
(-0.0280594 -0.00938197 0)
(-0.025447 -0.00926461 0)
(-0.0228665 -0.00910125 0)
(-0.0203296 -0.00889322 0)
(-0.0178478 -0.00864225 0)
(-0.0154321 -0.00835039 0)
(-0.0130931 -0.00802005 0)
(-0.0108409 -0.00765391 0)
(-0.0086847 -0.00725497 0)
(-0.00663329 -0.00682643 0)
(-0.00469451 -0.00637173 0)
(-0.00287541 -0.00589447 0)
(-0.00118213 -0.00539837 0)
(0.000380081 -0.00488726 0)
(0.00180695 -0.00436502 0)
(0.00309517 -0.00383553 0)
(0.00424247 -0.00330267 0)
(0.00524754 -0.00277025 0)
(0.00611012 -0.00224202 0)
(0.00683091 -0.00172162 0)
(0.00741166 -0.0012126 0)
(0.00785504 -0.000718352 0)
(0.00816472 -0.0002422 0)
(0.00834528 0.000212652 0)
(0.00840227 0.000643082 0)
(0.00834215 0.00104603 0)
(0.00817223 0.00141834 0)
(0.00790071 0.00175692 0)
(0.00753672 0.00205849 0)
(0.00709024 0.00231965 0)
(0.00657219 0.00253671 0)
(0.00599437 0.00270573 0)
(0.00536953 0.00282246 0)
(0.00471133 0.00288234 0)
(0.00403435 0.00288056 0)
(0.00335411 0.00281226 0)
(0.00268699 0.00267276 0)
(0.00205027 0.00245812 0)
(0.00146203 0.00216578 0)
(0.000941179 0.00179568 0)
(0.000508742 0.00135161 0)
(0.000192951 0.000843189 0)
(1.62057e-05 0.000288551 0)
(5.06752e-06 -0.000177607 0)
(2.99786e-05 -0.000380263 0)
(4.95627e-05 -0.000456219 0)
(4.71788e-05 -0.000430126 0)
(7.60351e-06 -0.000322644 0)
(-8.02631e-05 -0.000151498 0)
(-0.000224783 6.81377e-05 0)
(-0.000432257 0.000323482 0)
(-0.000707275 0.000603968 0)
(-0.00105301 0.000901033 0)
(-0.00147151 0.00120789 0)
(-0.00196388 0.00151932 0)
(-0.00253055 0.0018314 0)
(-0.00317139 0.00214134 0)
(-0.00388592 0.00244725 0)
(-0.00467338 0.00274799 0)
(-0.00553283 0.00304294 0)
(-0.00646327 0.00333195 0)
(-0.00746365 0.00361513 0)
(-0.0085329 0.00389279 0)
(-0.00967 0.00416534 0)
(-0.0108739 0.00443323 0)
(-0.0121436 0.00469684 0)
(-0.0134782 0.0049565 0)
(-0.0148764 0.00521242 0)
(-0.0163374 0.00546465 0)
(-0.0178598 0.00571311 0)
(-0.0194423 0.00595753 0)
(-0.0210835 0.00619747 0)
(-0.0227818 0.00643233 0)
(-0.0245352 0.00666133 0)
(-0.0263415 0.00688354 0)
(-0.0281983 0.00709788 0)
(-0.0301029 0.00730313 0)
(-0.0320522 0.00749797 0)
(-0.0340427 0.00768095 0)
(-0.0360705 0.00785053 0)
(-0.0381315 0.00800511 0)
(-0.0402211 0.00814303 0)
(-0.0423342 0.00826259 0)
(-0.0444655 0.00836206 0)
(-0.0466093 0.0084397 0)
(-0.0487593 0.00849382 0)
(-0.050909 0.00852272 0)
(-0.0530518 0.00852478 0)
(-0.0551803 0.00849842 0)
(-0.0572872 0.00844218 0)
(-0.0593647 0.00835468 0)
(-0.0614051 0.00823467 0)
(-0.0634001 0.00808105 0)
(-0.0653417 0.00789287 0)
(-0.0672215 0.00766936 0)
(-0.069031 0.00740993 0)
(-0.0707621 0.00711421 0)
(-0.0724065 0.00678203 0)
(-0.0739558 0.00641347 0)
(-0.0754022 0.00600883 0)
(-0.0767379 0.00556869 0)
(-0.0779552 0.00509385 0)
(-0.079047 0.00458541 0)
(-0.0800065 0.00404471 0)
(-0.0808273 0.00347337 0)
(-0.0815035 0.00287328 0)
(-0.0820295 0.00224659 0)
(-0.0824007 0.0015957 0)
(-0.0826128 0.000923267 0)
(-0.0826622 0.000232199 0)
(-0.082546 -0.00047438 0)
(-0.0822621 -0.00119313 0)
(-0.0818091 -0.00192053 0)
(-0.0811863 -0.00265285 0)
(-0.080394 -0.00338624 0)
(-0.0794331 -0.00411671 0)
(-0.0783055 -0.00484016 0)
(-0.0770137 -0.00555242 0)
(-0.0755615 -0.00624928 0)
(-0.073953 -0.00692653 0)
(-0.0721935 -0.00757995 0)
(-0.070289 -0.00820541 0)
(-0.0682463 -0.00879887 0)
(-0.0660731 -0.00935639 0)
(-0.0637776 -0.00987424 0)
(-0.0613691 -0.0103489 0)
(-0.0588571 -0.010777 0)
(-0.0562522 -0.0111555 0)
(-0.0535652 -0.0114818 0)
(-0.0508077 -0.0117534 0)
(-0.0479916 -0.0119684 0)
(-0.0451291 -0.0121252 0)
(-0.0422331 -0.0122225 0)
(-0.0393162 -0.0122597 0)
(-0.0363915 -0.0122365 0)
(-0.0334721 -0.0121531 0)
(-0.0305711 -0.0120101 0)
(-0.0277013 -0.0118088 0)
(-0.0248754 -0.0115506 0)
(-0.022106 -0.0112377 0)
(-0.019405 -0.0108726 0)
(-0.016784 -0.0104583 0)
(-0.014254 -0.0099979 0)
(-0.0118252 -0.00949524 0)
(-0.0095073 -0.00895424 0)
(-0.00730911 -0.00837915 0)
(-0.00523855 -0.00777446 0)
(-0.00330265 -0.00714481 0)
(-0.00150744 -0.00649501 0)
(0.000142023 -0.00582994 0)
(0.00164176 -0.00515451 0)
(0.00298886 -0.00447363 0)
(0.00418148 -0.00379219 0)
(0.00521889 -0.00311497 0)
(0.00610144 -0.00244667 0)
(0.0068306 -0.00179187 0)
(0.00740888 -0.001155 0)
(0.00783989 -0.000540371 0)
(0.00812828 4.78201e-05 0)
(0.0082797 0.000605444 0)
(0.00830083 0.00112846 0)
(0.00819949 0.0016129 0)
(0.0079843 0.0020546 0)
(0.00766485 0.00244943 0)
(0.00725179 0.00279301 0)
(0.00675673 0.00308073 0)
(0.00619224 0.00330771 0)
(0.00557184 0.00346874 0)
(0.00491004 0.00355831 0)
(0.00422229 0.0035707 0)
(0.00352505 0.00350009 0)
(0.00283572 0.00334088 0)
(0.00217277 0.00308813 0)
(0.00155576 0.00273813 0)
(0.00100545 0.00228934 0)
(0.000545405 0.00174332 0)
(0.00020747 0.0011061 0)
(1.74738e-05 0.000389781 0)
(3.67231e-06 -0.000189756 0)