/*--------------------------------*- C++ -*----------------------------------*\
  =========                 |
  \\      /  F ield         | OpenFOAM: The Open Source CFD Toolbox
   \\    /   O peration     | Website:  https://openfoam.org
    \\  /    A nd           | Version:  12
     \\/     M anipulation  |
\*---------------------------------------------------------------------------*/
FoamFile
{
    format      ascii;
    class       volScalarField;
    location    "1";
    object      nut;
}
// * * * * * * * * * * * * * * * * * * * * * * * * * * * * * * * * * * * * * //

dimensions      [0 2 -1 0 0 0 0];

internalField   nonuniform List<scalar> 
5625
(
2.49103e-15
1.24347e-14
2.71025e-14
4.45475e-14
6.385e-14
8.44202e-14
1.05805e-13
1.27626e-13
1.49552e-13
1.71288e-13
1.92573e-13
2.13176e-13
2.32894e-13
2.51554e-13
2.69014e-13
2.8516e-13
2.99908e-13
3.13204e-13
3.25019e-13
3.35352e-13
3.44222e-13
3.5167e-13
3.57754e-13
3.62543e-13
3.66118e-13
3.68564e-13
3.69967e-13
3.70423e-13
3.70022e-13
3.68841e-13
3.66954e-13
3.64427e-13
3.61319e-13
3.57678e-13
3.53547e-13
3.48958e-13
3.43935e-13
3.38498e-13
3.32661e-13
3.26431e-13
3.19814e-13
3.12812e-13
3.05427e-13
2.97663e-13
2.89522e-13
2.8101e-13
2.72134e-13
2.62907e-13
2.53341e-13
2.43457e-13
2.33275e-13
2.22823e-13
2.12129e-13
2.01228e-13
1.90156e-13
1.78951e-13
1.67653e-13
1.56306e-13
1.44952e-13
1.33635e-13
1.22398e-13
1.11284e-13
1.00335e-13
8.95926e-14
7.9099e-14
6.88954e-14
5.90246e-14
4.95321e-14
4.04684e-14
3.18931e-14
2.38805e-14
1.65319e-14
1.00019e-14
4.57303e-15
9.15291e-16
1.24447e-14
1.13944e-12
3.84727e-12
7.06234e-12
1.05277e-11
1.41661e-11
1.79177e-11
2.17271e-11
2.55426e-11
2.93165e-11
3.30057e-11
3.65715e-11
3.998e-11
4.32021e-11
4.62135e-11
4.89953e-11
5.15334e-11
5.38187e-11
5.58469e-11
5.7618e-11
5.91359e-11
6.0408e-11
6.14446e-11
6.22582e-11
6.2863e-11
6.3274e-11
6.35058e-11
6.35762e-11
6.35005e-11
6.32919e-11
6.29632e-11
6.25259e-11
6.19901e-11
6.13641e-11
6.06551e-11
5.98684e-11
5.90083e-11
5.80776e-11
5.70776e-11
5.60103e-11
5.48766e-11
5.36769e-11
5.24115e-11
5.10808e-11
4.9685e-11
4.82251e-11
4.67023e-11
4.51184e-11
4.34759e-11
4.17779e-11
4.00282e-11
3.82314e-11
3.63926e-11
3.45176e-11
3.26127e-11
3.06846e-11
2.87404e-11
2.67873e-11
2.48329e-11
2.28847e-11
2.09501e-11
1.90364e-11
1.71509e-11
1.53005e-11
1.34923e-11
1.17329e-11
1.00293e-11
8.38826e-12
6.81725e-12
5.32419e-12
3.91801e-12
2.60904e-12
1.41436e-12
4.1783e-13
4.57093e-15
2.72136e-14
3.85422e-12
1.94563e-11
4.35358e-11
7.11472e-11
1.00268e-10
1.30095e-10
1.60162e-10
1.90094e-10
2.19559e-10
2.48252e-10
2.75897e-10
3.02249e-10
3.27099e-10
3.50273e-10
3.71633e-10
3.9108e-10
4.08553e-10
4.24025e-10
4.37504e-10
4.49027e-10
4.58657e-10
4.66478e-10
4.72593e-10
4.77115e-10
4.80163e-10
4.81849e-10
4.82321e-10
4.81693e-10
4.80069e-10
4.77546e-10
4.74212e-10
4.70145e-10
4.65406e-10
4.60049e-10
4.54114e-10
4.47629e-10
4.40616e-10
4.33085e-10
4.25046e-10
4.16502e-10
4.07454e-10
3.97901e-10
3.87844e-10
3.77283e-10
3.66223e-10
3.54673e-10
3.42645e-10
3.30158e-10
3.17236e-10
3.03907e-10
2.90206e-10
2.76174e-10
2.61855e-10
2.47299e-10
2.32558e-10
2.17687e-10
2.02743e-10
1.87784e-10
1.72866e-10
1.58048e-10
1.43384e-10
1.28928e-10
1.1473e-10
1.00838e-10
8.72971e-11
7.41509e-11
6.14396e-11
4.92041e-11
3.74906e-11
2.63737e-11
1.60458e-11
7.14778e-12
1.41304e-12
9.9786e-15
4.49837e-14
7.1072e-12
4.3654e-11
1.15175e-10
2.09094e-10
3.13897e-10
4.23263e-10
5.33906e-10
6.43858e-10
7.51715e-10
8.56342e-10
9.56771e-10
1.05217e-09
1.14184e-09
1.22519e-09
1.3018e-09
1.37135e-09
1.43365e-09
1.48866e-09
1.53645e-09
1.57716e-09
1.61108e-09
1.63852e-09
1.65988e-09
1.67559e-09
1.68609e-09
1.69179e-09
1.69325e-09
1.69088e-09
1.68505e-09
1.67611e-09
1.66437e-09
1.65011e-09
1.63355e-09
1.61486e-09
1.59417e-09
1.57159e-09
1.54717e-09
1.52095e-09
1.49295e-09
1.46317e-09
1.43159e-09
1.3982e-09
1.36301e-09
1.32599e-09
1.28717e-09
1.24656e-09
1.20421e-09
1.16018e-09
1.11455e-09
1.06742e-09
1.01893e-09
9.6921e-10
9.18431e-10
8.6677e-10
8.14415e-10
7.61567e-10
7.08431e-10
6.55212e-10
6.02115e-10
5.4934e-10
4.97075e-10
4.45501e-10
3.94784e-10
3.45075e-10
2.96515e-10
2.49235e-10
2.03375e-10
1.59124e-10
1.16831e-10
7.72893e-11
4.23945e-11
1.60227e-11
2.59992e-12
1.64393e-14
6.5e-14
1.06737e-11
7.17427e-11
2.09979e-10
4.15453e-10
6.63562e-10
9.33705e-10
1.21259e-09
1.49206e-09
1.76684e-09
2.03322e-09
2.28838e-09
2.53012e-09
2.75666e-09
2.96661e-09
3.15895e-09
3.33303e-09
3.48848e-09
3.6253e-09
3.74374e-09
3.84433e-09
3.9278e-09
3.99507e-09
4.04719e-09
4.08528e-09
4.11054e-09
4.12398e-09
4.1271e-09
4.12092e-09
4.10634e-09
4.08428e-09
4.0555e-09
4.02066e-09
3.98031e-09
3.93487e-09
3.88466e-09
3.82988e-09
3.77066e-09
3.70708e-09
3.63914e-09
3.56681e-09
3.49005e-09
3.40881e-09
3.32303e-09
3.23269e-09
3.13781e-09
3.03842e-09
2.93462e-09
2.82655e-09
2.71443e-09
2.59851e-09
2.47909e-09
2.35655e-09
2.23129e-09
2.10377e-09
1.97445e-09
1.84384e-09
1.71244e-09
1.58077e-09
1.44933e-09
1.3186e-09
1.18902e-09
1.06104e-09
9.35033e-10
8.11373e-10
6.90416e-10
5.72564e-10
4.58385e-10
3.48854e-10
2.45854e-10
1.53093e-10
7.71024e-11
2.62501e-11
3.88742e-12
2.36345e-14
8.68565e-14
1.45105e-11
1.02013e-10
3.17521e-10
6.67772e-10
1.12252e-09
1.64289e-09
2.19679e-09
2.76169e-09
3.32221e-09
3.86782e-09
4.39105e-09
4.88644e-09
5.34992e-09
5.77851e-09
6.17014e-09
6.52356e-09
6.83825e-09
7.11432e-09
7.35253e-09
7.55411e-09
7.72075e-09
7.85449e-09
7.95758e-09
8.03246e-09
8.08163e-09
8.10718e-09
8.11238e-09
8.09919e-09
8.06951e-09
8.02516e-09
7.96773e-09
7.89852e-09
7.8186e-09
7.7288e-09
7.62972e-09
7.52174e-09
7.40511e-09
7.27989e-09
7.14608e-09
7.00357e-09
6.85224e-09
6.69195e-09
6.52257e-09
6.34403e-09
6.15633e-09
5.95953e-09
5.75383e-09
5.53951e-09
5.31696e-09
5.08671e-09
4.84939e-09
4.60573e-09
4.35654e-09
4.10274e-09
3.84528e-09
3.58514e-09
3.32335e-09
3.06092e-09
2.79884e-09
2.53805e-09
2.27945e-09
2.02387e-09
1.77214e-09
1.52507e-09
1.28359e-09
1.04895e-09
8.23087e-10
6.09326e-10
4.1347e-10
2.44882e-10
1.16034e-10
3.71177e-11
5.25097e-12
3.13699e-14
1.10293e-13
1.85923e-11
1.33971e-10
4.32775e-10
9.48616e-10
1.65762e-09
2.50699e-09
3.44153e-09
4.41568e-09
5.39569e-09
6.35753e-09
7.28398e-09
8.16272e-09
8.98499e-09
9.74463e-09
1.04376e-08
1.10616e-08
1.16158e-08
1.21007e-08
1.25177e-08
1.28693e-08
1.31589e-08
1.33902e-08
1.35676e-08
1.36955e-08
1.37784e-08
1.38201e-08
1.38269e-08
1.38019e-08
1.37485e-08
1.36701e-08
1.35694e-08
1.34487e-08
1.33098e-08
1.31541e-08
1.29827e-08
1.27963e-08
1.25951e-08
1.23793e-08
1.21487e-08
1.19033e-08
1.16427e-08
1.13668e-08
1.10751e-08
1.07677e-08
1.04444e-08
1.01055e-08
9.7512e-09
9.38203e-09
8.9987e-09
8.60211e-09
8.19335e-09
7.77369e-09
7.34456e-09
6.9075e-09
6.46416e-09
6.01624e-09
5.56548e-09
5.11359e-09
4.66228e-09
4.21316e-09
3.76781e-09
3.32779e-09
2.89461e-09
2.47e-09
2.05618e-09
1.6563e-09
1.27531e-09
9.21077e-10
6.05641e-10
3.45315e-10
1.56984e-10
4.83628e-11
6.67275e-12
3.95029e-14
1.35125e-13
2.28979e-11
1.67437e-10
5.53683e-10
1.24819e-09
2.24399e-09
3.48289e-09
4.88802e-09
6.38638e-09
7.918e-09
9.43691e-09
1.09093e-08
1.23111e-08
1.36252e-08
1.48399e-08
1.59472e-08
1.69429e-08
1.78255e-08
1.85957e-08
1.92562e-08
1.98113e-08
2.02665e-08
2.06284e-08
2.09041e-08
2.1101e-08
2.12265e-08
2.12869e-08
2.12927e-08
2.12485e-08
2.116e-08
2.10324e-08
2.08703e-08
2.06772e-08
2.04561e-08
2.02092e-08
1.99381e-08
1.96438e-08
1.93268e-08
1.89872e-08
1.8625e-08
1.82398e-08
1.78313e-08
1.73991e-08
1.69428e-08
1.64623e-08
1.59576e-08
1.54289e-08
1.48767e-08
1.43019e-08
1.37056e-08
1.30891e-08
1.24543e-08
1.1803e-08
1.11374e-08
1.046e-08
9.77322e-09
9.07966e-09
8.38197e-09
7.68279e-09
6.98469e-09
6.29021e-09
5.60188e-09
4.92224e-09
4.25413e-09
3.60091e-09
2.96708e-09
2.35914e-09
1.78679e-09
1.26428e-09
8.11056e-10
4.49806e-10
1.98867e-10
5.98465e-11
8.13661e-12
4.79197e-14
1.61212e-13
2.74092e-11
2.02313e-10
6.79394e-10
1.5616e-09
2.86628e-09
4.53856e-09
6.48481e-09
8.60363e-09
1.08038e-08
1.30107e-08
1.51673e-08
1.7231e-08
1.91709e-08
2.0966e-08
2.26025e-08
2.40729e-08
2.53741e-08
2.65072e-08
2.74763e-08
2.82879e-08
2.89507e-08
2.94748e-08
2.98709e-08
3.01505e-08
3.03243e-08
3.0403e-08
3.04016e-08
3.03269e-08
3.01878e-08
2.99921e-08
2.97463e-08
2.94559e-08
2.91252e-08
2.87576e-08
2.83552e-08
2.79198e-08
2.7452e-08
2.69521e-08
2.64202e-08
2.58558e-08
2.52584e-08
2.46277e-08
2.39633e-08
2.32649e-08
2.25328e-08
2.17672e-08
2.09691e-08
2.01396e-08
1.92805e-08
1.83938e-08
1.74819e-08
1.65477e-08
1.55942e-08
1.46247e-08
1.36428e-08
1.26521e-08
1.16563e-08
1.06591e-08
9.66419e-09
8.67516e-09
7.69582e-09
6.73019e-09
5.78289e-09
4.85976e-09
3.96862e-09
3.12061e-09
2.33155e-09
1.62307e-09
1.02201e-09
5.55668e-10
2.41081e-10
7.1465e-11
9.62797e-12
5.65239e-14
1.8844e-13
3.21101e-11
2.38517e-10
8.09498e-10
1.88642e-09
3.51588e-09
5.65297e-09
8.19343e-09
1.10092e-08
1.39754e-08
1.69835e-08
1.99466e-08
2.27976e-08
2.54874e-08
2.79816e-08
3.02576e-08
3.23021e-08
3.41094e-08
3.56801e-08
3.70197e-08
3.81375e-08
3.90458e-08
3.97589e-08
4.02927e-08
4.06636e-08
4.08863e-08
4.09777e-08
4.09578e-08
4.08365e-08
4.06264e-08
4.03383e-08
3.99817e-08
3.95641e-08
3.90918e-08
3.85694e-08
3.80001e-08
3.73864e-08
3.67295e-08
3.603e-08
3.5288e-08
3.45032e-08
3.36751e-08
3.28034e-08
3.18876e-08
3.09279e-08
2.99244e-08
2.88781e-08
2.77901e-08
2.66621e-08
2.54966e-08
2.42963e-08
2.30644e-08
2.18047e-08
2.05213e-08
1.92185e-08
1.79009e-08
1.65731e-08
1.524e-08
1.39065e-08
1.25773e-08
1.12574e-08
9.95217e-09
8.66738e-09
7.41001e-09
6.18901e-09
5.01641e-09
3.90887e-09
2.88907e-09
1.98609e-09
1.23348e-09
6.61262e-10
2.83227e-10
8.31287e-11
1.11337e-11
6.52325e-14
2.16713e-13
3.69865e-11
2.75975e-10
9.43735e-10
2.22139e-09
4.18788e-09
6.81317e-09
9.98758e-09
1.35594e-08
1.73694e-08
2.12723e-08
2.51458e-08
2.88933e-08
3.24421e-08
3.57401e-08
3.87524e-08
4.14581e-08
4.38476e-08
4.59204e-08
4.76833e-08
4.91485e-08
5.03326e-08
5.12552e-08
5.19378e-08
5.24029e-08
5.26692e-08
5.27631e-08
5.27083e-08
5.25191e-08
5.22127e-08
5.18036e-08
5.13046e-08
5.07261e-08
5.00764e-08
4.93618e-08
4.85872e-08
4.77557e-08
4.68695e-08
4.59296e-08
4.49364e-08
4.38899e-08
4.27899e-08
4.16361e-08
4.04286e-08
3.91676e-08
3.78537e-08
3.64883e-08
3.50731e-08
3.36105e-08
3.21036e-08
3.05559e-08
2.89717e-08
2.73554e-08
2.57123e-08
2.40476e-08
2.23669e-08
2.06759e-08
1.89806e-08
1.72869e-08
1.56008e-08
1.39288e-08
1.22777e-08
1.06554e-08
9.07168e-09
7.53889e-09
6.07382e-09
4.69907e-09
3.44428e-09
2.34558e-09
1.4422e-09
7.65499e-10
3.24994e-10
9.47567e-11
1.26421e-11
7.39738e-14
2.45947e-13
4.20253e-11
3.14612e-10
1.08189e-09
2.56573e-09
4.87937e-09
8.01134e-09
1.18498e-08
1.62229e-08
2.09379e-08
2.58102e-08
3.06789e-08
3.54134e-08
3.99126e-08
4.4103e-08
4.79343e-08
5.13754e-08
5.44114e-08
5.70398e-08
5.92683e-08
6.11125e-08
6.25938e-08
6.37376e-08
6.45719e-08
6.51259e-08
6.54228e-08
6.55022e-08
6.53894e-08
6.51052e-08
6.46716e-08
6.41079e-08
6.34306e-08
6.26533e-08
6.1787e-08
6.08403e-08
5.98195e-08
5.87292e-08
5.75725e-08
5.63512e-08
5.50664e-08
5.37186e-08
5.2308e-08
5.08348e-08
4.92993e-08
4.77024e-08
4.60453e-08
4.43298e-08
4.25583e-08
4.0734e-08
3.88607e-08
3.69428e-08
3.49852e-08
3.29935e-08
3.09736e-08
2.89318e-08
2.68744e-08
2.48083e-08
2.27402e-08
2.06771e-08
1.86262e-08
1.65952e-08
1.45928e-08
1.26288e-08
1.07158e-08
8.87002e-09
7.11291e-09
5.47298e-09
3.98657e-09
2.69625e-09
1.64595e-09
8.67593e-10
3.66128e-10
1.06277e-10
1.41429e-11
8.26853e-14
2.76066e-13
4.72142e-11
3.54353e-10
1.22376e-09
2.91885e-09
5.58854e-09
9.24225e-09
1.37684e-08
1.89782e-08
2.46456e-08
3.05459e-08
3.64773e-08
4.22711e-08
4.77945e-08
5.29489e-08
5.76656e-08
6.19013e-08
6.5634e-08
6.88586e-08
7.15835e-08
7.38274e-08
7.56171e-08
7.69845e-08
7.79649e-08
7.85941e-08
7.89019e-08
7.89434e-08
7.8744e-08
7.83322e-08
7.7736e-08
7.69799e-08
7.60848e-08
7.5068e-08
7.39438e-08
7.27232e-08
7.14146e-08
7.00243e-08
6.85567e-08
6.70148e-08
6.54003e-08
6.37147e-08
6.19588e-08
6.01334e-08
5.82397e-08
5.62789e-08
5.4253e-08
5.21645e-08
5.00165e-08
4.7813e-08
4.55584e-08
4.32579e-08
4.09173e-08
3.85428e-08
3.61411e-08
3.37192e-08
3.12842e-08
2.88437e-08
2.64051e-08
2.39763e-08
2.15655e-08
1.91816e-08
1.68346e-08
1.45367e-08
1.2303e-08
1.01532e-08
8.11343e-09
6.21777e-09
4.50861e-09
3.03446e-09
1.84316e-09
9.66942e-10
4.06411e-10
1.17625e-10
1.56272e-11
9.13134e-14
3.06997e-13
5.25416e-11
3.95122e-10
1.36911e-09
3.28026e-09
6.31397e-09
1.05022e-08
1.57358e-08
2.18096e-08
2.84663e-08
3.54404e-08
4.24868e-08
4.93964e-08
5.60014e-08
6.21751e-08
6.7828e-08
7.29027e-08
7.73685e-08
8.12169e-08
8.44566e-08
8.71099e-08
8.9209e-08
9.07931e-08
9.19058e-08
9.25874e-08
9.28824e-08
9.28563e-08
9.25359e-08
9.19596e-08
9.11616e-08
9.01724e-08
8.90177e-08
8.77194e-08
8.6295e-08
8.47588e-08
8.31215e-08
8.13916e-08
7.95749e-08
7.76759e-08
7.56975e-08
7.36421e-08
7.15115e-08
6.93073e-08
6.70314e-08
6.46859e-08
6.22734e-08
5.97972e-08
5.72612e-08
5.46699e-08
5.20285e-08
4.93429e-08
4.66195e-08
4.38651e-08
4.10868e-08
3.82923e-08
3.54892e-08
3.26854e-08
2.98891e-08
2.71087e-08
2.43532e-08
2.16323e-08
1.89575e-08
1.63425e-08
1.3805e-08
1.13679e-08
9.06144e-09
6.9247e-09
5.00548e-09
3.35773e-09
2.03271e-09
1.06308e-09
4.45661e-10
1.28748e-10
1.70873e-11
9.98133e-14
3.38671e-13
5.7996e-11
4.36839e-10
1.51772e-09
3.64939e-09
7.05443e-09
1.17882e-08
1.77458e-08
2.47054e-08
3.23806e-08
4.04636e-08
4.86651e-08
5.67332e-08
6.44628e-08
7.16967e-08
7.83223e-08
8.42663e-08
8.94885e-08
9.39761e-08
9.7738e-08
1.008e-07
1.032e-07
1.04985e-07
1.06208e-07
1.06913e-07
1.07167e-07
1.07037e-07
1.06558e-07
1.05777e-07
1.04735e-07
1.03471e-07
1.02014e-07
1.00392e-07
9.86256e-08
9.67335e-08
9.47289e-08
9.26225e-08
9.04222e-08
8.81339e-08
8.57622e-08
8.33106e-08
8.07818e-08
7.81785e-08
7.55034e-08
7.27595e-08
6.99501e-08
6.70793e-08
6.41516e-08
6.11721e-08
5.81466e-08
5.50816e-08
5.19838e-08
4.88604e-08
4.5719e-08
4.25675e-08
3.94137e-08
3.6266e-08
3.31325e-08
3.00223e-08
2.69445e-08
2.39098e-08
2.09305e-08
1.80218e-08
1.52034e-08
1.25008e-08
9.94789e-09
7.5881e-09
5.47399e-09
3.66437e-09
2.21381e-09
1.15563e-09
4.8373e-10
1.396e-10
1.85172e-11
1.08148e-13
3.71017e-13
6.35656e-11
4.79424e-10
1.66931e-09
4.02566e-09
7.80874e-09
1.30979e-08
1.97931e-08
2.76566e-08
3.63728e-08
4.55917e-08
5.49782e-08
6.42362e-08
7.31211e-08
8.14433e-08
8.90654e-08
9.5897e-08
1.01887e-07
1.07018e-07
1.11299e-07
1.1476e-07
1.17444e-07
1.19408e-07
1.20713e-07
1.21406e-07
1.21586e-07
1.21312e-07
1.20634e-07
1.19606e-07
1.18278e-07
1.16695e-07
1.14894e-07
1.12907e-07
1.1076e-07
1.08475e-07
1.06067e-07
1.03552e-07
1.00938e-07
9.82334e-08
9.54445e-08
9.2576e-08
8.96318e-08
8.66157e-08
8.35312e-08
8.03821e-08
7.71724e-08
7.39069e-08
7.05907e-08
6.72294e-08
6.38292e-08
6.03968e-08
5.69393e-08
5.34642e-08
4.99791e-08
4.64918e-08
4.30104e-08
3.95431e-08
3.60983e-08
3.26848e-08
2.93122e-08
2.59914e-08
2.27353e-08
1.95602e-08
1.64871e-08
1.3544e-08
1.07675e-08
8.20465e-09
5.9122e-09
3.95334e-09
2.38589e-09
1.24434e-09
5.20503e-10
1.50147e-10
1.9912e-11
1.1629e-13
4.03967e-13
6.92388e-11
5.22792e-10
1.82362e-09
4.40842e-09
8.57559e-09
1.44287e-08
2.18732e-08
3.06552e-08
4.04299e-08
5.08048e-08
6.1398e-08
7.18677e-08
8.19283e-08
9.13562e-08
9.9988e-08
1.07715e-07
1.14474e-07
1.20244e-07
1.25033e-07
1.28874e-07
1.31819e-07
1.33933e-07
1.35284e-07
1.35929e-07
1.35998e-07
1.35539e-07
1.34618e-07
1.33301e-07
1.31645e-07
1.29702e-07
1.27516e-07
1.25126e-07
1.22562e-07
1.19849e-07
1.17008e-07
1.14056e-07
1.11003e-07
1.07861e-07
1.04637e-07
1.01338e-07
9.79671e-08
9.45306e-08
9.10327e-08
8.74777e-08
8.38704e-08
8.02161e-08
7.65202e-08
7.27887e-08
6.90281e-08
6.52453e-08
6.14474e-08
5.76418e-08
5.38362e-08
5.00381e-08
4.62555e-08
4.24962e-08
3.87686e-08
3.50812e-08
3.14435e-08
2.78665e-08
2.43634e-08
2.0951e-08
1.76513e-08
1.4494e-08
1.15178e-08
8.7728e-09
6.31918e-09
4.22408e-09
2.54865e-09
1.32902e-09
5.55903e-10
1.60365e-10
2.12683e-11
1.24219e-13
4.37449e-13
7.50035e-11
5.66854e-10
1.98035e-09
4.79698e-09
9.35356e-09
1.5778e-08
2.39813e-08
3.36943e-08
4.454e-08
5.60855e-08
6.79003e-08
7.95957e-08
9.08438e-08
1.01386e-07
1.11031e-07
1.19652e-07
1.27174e-07
1.33569e-07
1.38847e-07
1.43045e-07
1.46222e-07
1.48453e-07
1.49808e-07
1.50368e-07
1.50287e-07
1.49601e-07
1.48395e-07
1.46746e-07
1.4472e-07
1.42378e-07
1.39771e-07
1.36942e-07
1.33929e-07
1.3076e-07
1.2746e-07
1.24048e-07
1.20538e-07
1.16943e-07
1.13272e-07
1.09533e-07
1.05731e-07
1.01872e-07
9.79625e-08
9.40063e-08
9.00091e-08
8.59764e-08
8.1914e-08
7.7828e-08
7.37251e-08
6.96119e-08
6.54955e-08
6.13832e-08
5.72823e-08
5.32e-08
4.9144e-08
4.51216e-08
4.11407e-08
3.72094e-08
3.33371e-08
2.95343e-08
2.58142e-08
2.21938e-08
1.86958e-08
1.53506e-08
1.21987e-08
9.29245e-09
6.69484e-09
4.47646e-09
2.70198e-09
1.40961e-09
5.89886e-10
1.70239e-10
2.25842e-11
1.31922e-13
4.71391e-13
8.08474e-11
6.11518e-10
2.13917e-09
5.19054e-09
1.01411e-08
1.71431e-08
2.61129e-08
3.67661e-08
4.86922e-08
6.1418e-08
7.44634e-08
8.73918e-08
9.9832e-08
1.11489e-07
1.22145e-07
1.31651e-07
1.39921e-07
1.46923e-07
1.52665e-07
1.5719e-07
1.60566e-07
1.62877e-07
1.64193e-07
1.64639e-07
1.64359e-07
1.63404e-07
1.61873e-07
1.59852e-07
1.57419e-07
1.54641e-07
1.51579e-07
1.48282e-07
1.44792e-07
1.41143e-07
1.37364e-07
1.33475e-07
1.29495e-07
1.25437e-07
1.21313e-07
1.17131e-07
1.12898e-07
1.08621e-07
1.04306e-07
9.99577e-08
9.55822e-08
9.11853e-08
8.67726e-08
8.23505e-08
7.79253e-08
7.35035e-08
6.90921e-08
6.46977e-08
6.03273e-08
5.59877e-08
5.16859e-08
4.74287e-08
4.32235e-08
3.90777e-08
3.50002e-08
3.1001e-08
2.7093e-08
2.32931e-08
1.96239e-08
1.61164e-08
1.2812e-08
9.76467e-09
7.03974e-09
4.71075e-09
2.84595e-09
1.48611e-09
6.22448e-10
1.79766e-10
2.38589e-11
1.39395e-13
5.05718e-13
8.67575e-11
6.56685e-10
2.29974e-09
5.58829e-09
1.09366e-08
1.85211e-08
2.82633e-08
3.9863e-08
5.28757e-08
6.67872e-08
8.10672e-08
9.52302e-08
1.08861e-07
1.21628e-07
1.33284e-07
1.43661e-07
1.52661e-07
1.60245e-07
1.66423e-07
1.71244e-07
1.74782e-07
1.77134e-07
1.78368e-07
1.78666e-07
1.78144e-07
1.7688e-07
1.74984e-07
1.72555e-07
1.69679e-07
1.66435e-07
1.62889e-07
1.59098e-07
1.55109e-07
1.50963e-07
1.46689e-07
1.42313e-07
1.37855e-07
1.33331e-07
1.28752e-07
1.2413e-07
1.19471e-07
1.14783e-07
1.10073e-07
1.05345e-07
1.00606e-07
9.58618e-08
9.11173e-08
8.63788e-08
8.16525e-08
7.69446e-08
7.22614e-08
6.76093e-08
6.29946e-08
5.84236e-08
5.39024e-08
4.94373e-08
4.5035e-08
4.07022e-08
3.64469e-08
3.22788e-08
2.821e-08
2.42569e-08
2.04419e-08
1.67959e-08
1.33608e-08
1.01915e-08
7.35507e-09
4.92754e-09
2.98082e-09
1.55861e-09
6.53615e-10
1.88952e-10
2.50932e-11
1.46643e-13
5.40351e-13
9.27203e-11
7.02253e-10
2.46171e-09
5.98932e-09
1.17382e-08
1.99088e-08
3.04271e-08
4.29772e-08
5.70793e-08
7.21782e-08
8.76922e-08
1.03087e-07
1.17902e-07
1.31768e-07
1.4441e-07
1.55638e-07
1.65344e-07
1.73484e-07
1.80067e-07
1.85148e-07
1.88812e-07
1.91166e-07
1.92277e-07
1.92391e-07
1.91588e-07
1.89977e-07
1.87681e-07
1.84809e-07
1.81461e-07
1.77723e-07
1.7367e-07
1.69365e-07
1.64862e-07
1.60205e-07
1.55428e-07
1.5056e-07
1.45622e-07
1.40632e-07
1.35604e-07
1.30548e-07
1.25473e-07
1.20386e-07
1.15294e-07
1.10202e-07
1.05116e-07
1.00042e-07
9.49851e-08
8.99506e-08
8.49444e-08
7.99723e-08
7.504e-08
7.01533e-08
6.53178e-08
6.05391e-08
5.58228e-08
5.11744e-08
4.65995e-08
4.21044e-08
3.76962e-08
3.33838e-08
2.91785e-08
2.5096e-08
2.11582e-08
1.73955e-08
1.38495e-08
1.05757e-08
7.64253e-09
5.12774e-09
3.10704e-09
1.6273e-09
6.83452e-10
1.97812e-10
2.62891e-11
1.53677e-13
5.75209e-13
9.8722e-11
7.48115e-10
2.62469e-09
6.39268e-09
1.2544e-08
2.13028e-08
3.2599e-08
4.61006e-08
6.12919e-08
7.7576e-08
9.43195e-08
1.10938e-07
1.26926e-07
1.41877e-07
1.55486e-07
1.67545e-07
1.7793e-07
1.86595e-07
1.93551e-07
1.98859e-07
2.02614e-07
2.04924e-07
2.05877e-07
2.05773e-07
2.04651e-07
2.0266e-07
1.99932e-07
1.96591e-07
1.92745e-07
1.88491e-07
1.83912e-07
1.7908e-07
1.74053e-07
1.68878e-07
1.63595e-07
1.58234e-07
1.52819e-07
1.4737e-07
1.419e-07
1.36421e-07
1.30942e-07
1.25471e-07
1.20013e-07
1.14574e-07
1.0916e-07
1.03775e-07
9.84252e-08
9.31147e-08
8.7849e-08
8.26334e-08
7.74728e-08
7.23725e-08
6.73374e-08
6.23725e-08
5.74824e-08
5.26719e-08
4.7946e-08
4.33101e-08
3.87705e-08
3.4335e-08
3.00144e-08
2.58234e-08
2.17828e-08
1.79225e-08
1.42834e-08
1.09209e-08
7.90424e-09
5.31253e-09
3.22518e-09
1.69244e-09
7.1205e-10
2.06372e-10
2.74495e-11
1.60514e-13
6.1021e-13
1.04748e-10
7.9416e-10
2.78827e-09
6.79734e-09
1.33519e-08
2.26994e-08
3.47733e-08
4.92249e-08
6.5502e-08
8.29656e-08
1.0093e-07
1.18761e-07
1.35908e-07
1.51926e-07
1.66481e-07
1.79344e-07
1.90382e-07
1.99541e-07
2.06837e-07
2.12337e-07
2.16147e-07
2.1837e-07
2.19143e-07
2.18781e-07
2.1731e-07
2.14909e-07
2.11723e-07
2.07888e-07
2.03524e-07
1.98739e-07
1.93624e-07
1.88255e-07
1.82698e-07
1.77005e-07
1.71218e-07
1.6537e-07
1.59486e-07
1.53587e-07
1.47688e-07
1.41801e-07
1.35934e-07
1.30094e-07
1.24288e-07
1.1852e-07
1.12796e-07
1.07119e-07
1.01495e-07
9.59274e-08
9.04212e-08
8.49808e-08
7.96106e-08
7.43152e-08
6.90988e-08
6.39657e-08
5.89198e-08
5.39653e-08
4.91063e-08
4.43475e-08
3.96943e-08
3.51537e-08
3.07354e-08
2.64532e-08
2.2327e-08
1.83853e-08
1.46685e-08
1.1231e-08
8.14267e-09
5.48331e-09
3.33597e-09
1.75434e-09
7.39533e-10
2.14663e-10
2.85787e-11
1.67178e-13
6.45265e-13
1.10783e-10
8.4027e-10
2.95203e-09
7.20224e-09
1.41597e-08
2.40948e-08
3.69439e-08
5.2341e-08
6.96981e-08
8.83316e-08
1.07506e-07
1.26534e-07
1.44822e-07
1.61886e-07
1.77364e-07
1.91005e-07
2.02666e-07
2.12289e-07
2.19892e-07
2.2555e-07
2.29381e-07
2.3148e-07
2.32057e-07
2.31396e-07
2.29551e-07
2.26715e-07
2.2305e-07
2.18704e-07
2.13809e-07
2.08483e-07
2.02824e-07
1.96917e-07
1.90831e-07
1.84624e-07
1.78339e-07
1.72013e-07
1.65673e-07
1.59339e-07
1.53026e-07
1.46746e-07
1.40508e-07
1.34318e-07
1.28182e-07
1.22104e-07
1.16088e-07
1.10138e-07
1.04257e-07
9.84502e-08
9.27203e-08
8.70715e-08
8.15076e-08
7.60325e-08
7.06499e-08
6.53633e-08
6.01761e-08
5.50918e-08
5.01139e-08
4.52462e-08
4.04934e-08
3.58618e-08
3.136e-08
2.70007e-08
2.28026e-08
1.87931e-08
1.50112e-08
1.15105e-08
8.36057e-09
5.64167e-09
3.44024e-09
1.81339e-09
7.66043e-10
2.22726e-10
2.96817e-11
1.73698e-13
6.80287e-13
1.16813e-10
8.86326e-10
3.11553e-09
7.60626e-09
1.49652e-08
2.5485e-08
3.91044e-08
5.54399e-08
7.38679e-08
9.36585e-08
1.14027e-07
1.34236e-07
1.53644e-07
1.71731e-07
1.88106e-07
2.02498e-07
2.14753e-07
2.24811e-07
2.3269e-07
2.38475e-07
2.42296e-07
2.4424e-07
2.44599e-07
2.43613e-07
2.4137e-07
2.38081e-07
2.33921e-07
2.29053e-07
2.23619e-07
2.17747e-07
2.11544e-07
2.05101e-07
1.98493e-07
1.91781e-07
1.85011e-07
1.78221e-07
1.71439e-07
1.64686e-07
1.57978e-07
1.51324e-07
1.44734e-07
1.38213e-07
1.31766e-07
1.25396e-07
1.19106e-07
1.12899e-07
1.06779e-07
1.00747e-07
9.48081e-08
8.89644e-08
8.32197e-08
7.7577e-08
7.20396e-08
6.66106e-08
6.12928e-08
5.60891e-08
5.10025e-08
4.60362e-08
4.11942e-08
3.64819e-08
3.1907e-08
2.74812e-08
2.3222e-08
1.91552e-08
1.53185e-08
1.17641e-08
8.56092e-09
5.78939e-09
3.53891e-09
1.87001e-09
7.91747e-10
2.30606e-10
3.07644e-11
1.80109e-13
7.15184e-13
1.2282e-10
9.32204e-10
3.27832e-09
8.00825e-09
1.5766e-08
2.68658e-08
4.12484e-08
5.85123e-08
7.79986e-08
9.89305e-08
1.20475e-07
1.41843e-07
1.62349e-07
1.81435e-07
1.98681e-07
2.13797e-07
2.26618e-07
2.37081e-07
2.45209e-07
2.51093e-07
2.54876e-07
2.56639e-07
2.56762e-07
2.55429e-07
2.52774e-07
2.49018e-07
2.44355e-07
2.38957e-07
2.32983e-07
2.26567e-07
2.19825e-07
2.12855e-07
2.05736e-07
1.98532e-07
1.91293e-07
1.84056e-07
1.76852e-07
1.697e-07
1.62615e-07
1.55608e-07
1.48686e-07
1.41853e-07
1.35113e-07
1.28469e-07
1.21921e-07
1.15473e-07
1.09127e-07
1.02884e-07
9.67468e-08
9.07189e-08
8.48027e-08
7.90011e-08
7.33168e-08
6.77526e-08
6.23111e-08
5.69946e-08
5.18058e-08
4.67473e-08
4.18226e-08
3.70362e-08
3.23953e-08
2.79103e-08
2.35974e-08
1.9481e-08
1.55971e-08
1.19964e-08
8.74675e-09
5.92838e-09
3.63296e-09
1.92467e-09
8.16823e-10
2.38352e-10
3.18331e-11
1.86446e-13
7.49862e-13
1.28789e-10
9.77776e-10
3.43994e-09
8.40702e-09
1.65596e-08
2.82329e-08
4.33691e-08
6.15488e-08
8.20774e-08
1.04132e-07
1.26831e-07
1.49335e-07
1.70915e-07
1.90974e-07
2.09064e-07
2.24877e-07
2.38238e-07
2.4908e-07
2.57432e-07
2.63393e-07
2.67108e-07
2.68673e-07
2.68546e-07
2.66853e-07
2.63773e-07
2.59545e-07
2.54374e-07
2.48449e-07
2.41938e-07
2.34985e-07
2.27716e-07
2.20232e-07
2.12617e-07
2.04939e-07
1.9725e-07
1.89587e-07
1.81981e-07
1.74451e-07
1.67012e-07
1.59672e-07
1.52438e-07
1.45313e-07
1.38298e-07
1.31395e-07
1.24606e-07
1.1793e-07
1.11369e-07
1.04924e-07
9.85984e-08
9.23934e-08
8.63118e-08
8.03562e-08
7.45292e-08
6.88333e-08
6.3271e-08
5.78445e-08
5.25561e-08
4.74081e-08
4.24035e-08
3.75465e-08
3.28431e-08
2.83029e-08
2.39409e-08
1.97799e-08
1.5854e-08
1.22123e-08
8.92115e-09
6.06052e-09
3.72339e-09
1.97784e-09
8.41456e-10
2.46015e-10
3.28944e-11
1.92749e-13
7.84228e-13
1.34704e-10
1.02292e-09
3.59991e-09
8.80136e-09
1.73436e-08
2.95821e-08
4.54599e-08
6.45396e-08
8.60915e-08
1.09246e-07
1.33076e-07
1.56692e-07
1.79318e-07
2.00323e-07
2.19231e-07
2.35716e-07
2.49591e-07
2.60789e-07
2.69343e-07
2.75363e-07
2.78987e-07
2.80345e-07
2.79958e-07
2.77896e-07
2.74388e-07
2.69686e-07
2.64011e-07
2.57565e-07
2.50527e-07
2.43051e-07
2.35268e-07
2.27288e-07
2.19199e-07
2.11068e-07
2.02951e-07
1.94885e-07
1.869e-07
1.79016e-07
1.71244e-07
1.63593e-07
1.56067e-07
1.48668e-07
1.41395e-07
1.34249e-07
1.2723e-07
1.20337e-07
1.13571e-07
1.06932e-07
1.00423e-07
9.40447e-08
8.78001e-08
8.16918e-08
7.57224e-08
6.98945e-08
6.42107e-08
5.86731e-08
5.32841e-08
4.80458e-08
4.29609e-08
3.80331e-08
3.32677e-08
2.86734e-08
2.4264e-08
2.00607e-08
1.60958e-08
1.24165e-08
9.08725e-09
6.18761e-09
3.81121e-09
2.03e-09
8.65836e-10
2.53649e-10
3.39554e-11
1.99057e-13
8.18187e-13
1.40548e-10
1.06749e-09
3.75776e-09
9.19007e-09
1.81155e-08
3.09089e-08
4.75139e-08
6.7475e-08
9.00282e-08
1.14259e-07
1.39192e-07
1.63891e-07
1.87537e-07
2.09461e-07
2.29161e-07
2.46293e-07
2.6066e-07
2.72193e-07
2.80931e-07
2.86993e-07
2.90509e-07
2.91671e-07
2.91007e-07
2.88576e-07
2.84641e-07
2.79471e-07
2.73302e-07
2.66347e-07
2.58797e-07
2.50816e-07
2.42541e-07
2.34087e-07
2.25545e-07
2.16987e-07
2.08466e-07
2.00023e-07
1.91684e-07
1.83469e-07
1.75388e-07
1.67447e-07
1.59648e-07
1.51992e-07
1.44477e-07
1.37102e-07
1.29864e-07
1.22763e-07
1.15797e-07
1.08969e-07
1.02278e-07
9.5727e-08
8.93184e-08
8.3055e-08
7.69399e-08
7.0976e-08
6.51661e-08
5.9513e-08
5.40188e-08
4.8686e-08
4.3517e-08
3.85151e-08
3.36852e-08
2.90352e-08
2.45775e-08
2.0332e-08
1.63289e-08
1.26134e-08
9.24802e-09
6.31144e-09
3.8974e-09
2.08162e-09
8.90148e-10
2.61305e-10
3.50227e-11
2.05411e-13
8.51646e-13
1.46305e-10
1.11138e-09
3.91301e-09
9.57192e-09
1.88728e-08
3.2209e-08
4.95242e-08
7.03454e-08
9.38748e-08
1.19153e-07
1.45162e-07
1.70914e-07
1.9555e-07
2.18366e-07
2.38833e-07
2.56588e-07
2.71427e-07
2.83279e-07
2.92186e-07
2.9828e-07
3.0168e-07
3.02658e-07
3.01708e-07
2.98912e-07
2.9456e-07
2.88934e-07
2.82285e-07
2.7484e-07
2.66799e-07
2.58335e-07
2.49593e-07
2.40691e-07
2.31724e-07
2.22765e-07
2.13868e-07
2.05073e-07
1.96407e-07
1.87885e-07
1.79517e-07
1.71307e-07
1.63256e-07
1.5536e-07
1.47616e-07
1.40022e-07
1.32574e-07
1.2527e-07
1.1811e-07
1.11092e-07
1.04219e-07
9.74921e-08
9.09148e-08
8.44903e-08
7.82224e-08
7.21148e-08
6.6171e-08
6.03941e-08
5.47869e-08
4.93521e-08
4.40921e-08
3.90102e-08
3.41107e-08
2.94006e-08
2.48915e-08
2.06015e-08
1.65591e-08
1.28072e-08
9.40623e-09
6.43368e-09
3.98288e-09
2.13314e-09
9.14568e-10
2.69033e-10
3.61029e-11
2.11847e-13
8.84511e-13
1.51958e-10
1.15445e-09
4.0652e-09
9.94573e-09
1.9613e-08
3.34781e-08
5.14844e-08
7.31414e-08
9.76191e-08
1.23914e-07
1.50966e-07
1.77742e-07
2.03338e-07
2.27018e-07
2.48227e-07
2.66585e-07
2.81879e-07
2.94037e-07
3.03105e-07
3.09225e-07
3.1251e-07
3.13309e-07
3.12079e-07
3.08929e-07
3.04176e-07
2.98112e-07
2.91005e-07
2.83092e-07
2.74586e-07
2.65667e-07
2.56485e-07
2.47165e-07
2.37802e-07
2.28471e-07
2.19228e-07
2.10109e-07
2.01141e-07
1.92337e-07
1.83706e-07
1.75247e-07
1.6696e-07
1.58839e-07
1.50879e-07
1.43076e-07
1.35424e-07
1.27922e-07
1.20566e-07
1.13358e-07
1.06298e-07
9.93886e-08
9.26344e-08
8.60394e-08
7.96082e-08
7.33456e-08
6.72563e-08
6.13442e-08
5.56129e-08
5.00656e-08
4.4705e-08
3.95342e-08
3.45574e-08
2.97808e-08
2.52149e-08
2.08763e-08
1.67918e-08
1.30017e-08
9.56442e-09
6.5559e-09
4.06849e-09
2.18498e-09
9.39259e-10
2.7688e-10
3.7202e-11
2.18403e-13
9.16693e-13
1.57492e-10
1.19658e-09
4.21388e-09
1.03103e-08
2.03339e-08
3.47122e-08
5.33879e-08
7.5854e-08
1.01249e-07
1.28528e-07
1.5659e-07
1.84355e-07
2.10881e-07
2.35399e-07
2.57326e-07
2.76269e-07
2.92004e-07
3.04457e-07
3.13683e-07
3.1983e-07
3.23008e-07
3.23638e-07
3.22141e-07
3.18655e-07
3.1352e-07
3.07043e-07
2.99504e-07
2.91153e-07
2.82212e-07
2.72868e-07
2.6328e-07
2.53572e-07
2.43845e-07
2.34174e-07
2.24613e-07
2.152e-07
2.05956e-07
1.96896e-07
1.88023e-07
1.79335e-07
1.70829e-07
1.62497e-07
1.54331e-07
1.46326e-07
1.38475e-07
1.30774e-07
1.23222e-07
1.15818e-07
1.08563e-07
1.01462e-07
9.45198e-08
8.77412e-08
8.11327e-08
7.47006e-08
6.84509e-08
6.2389e-08
5.65194e-08
5.08461e-08
4.53724e-08
4.01015e-08
3.50374e-08
3.01857e-08
2.55557e-08
2.11628e-08
1.70317e-08
1.32004e-08
9.72486e-09
6.67948e-09
4.155e-09
2.23748e-09
9.64363e-10
2.84885e-10
3.83254e-11
2.25108e-13
9.48105e-13
1.62892e-10
1.23764e-09
4.35861e-09
1.06646e-08
2.10332e-08
3.59072e-08
5.52288e-08
7.84745e-08
1.04754e-07
1.32982e-07
1.62017e-07
1.90737e-07
2.18163e-07
2.4349e-07
2.66115e-07
2.85625e-07
3.0179e-07
3.14535e-07
3.23918e-07
3.301e-07
3.33182e-07
3.3366e-07
3.31914e-07
3.28115e-07
3.22627e-07
3.15767e-07
3.07827e-07
2.99072e-07
2.8973e-07
2.79997e-07
2.70036e-07
2.59976e-07
2.49919e-07
2.3994e-07
2.30093e-07
2.20413e-07
2.10921e-07
2.01628e-07
1.92535e-07
1.83637e-07
1.74927e-07
1.66395e-07
1.58033e-07
1.49831e-07
1.41782e-07
1.33882e-07
1.26128e-07
1.18521e-07
1.11062e-07
1.03756e-07
9.66107e-08
8.96323e-08
8.28292e-08
7.62096e-08
6.97814e-08
6.35518e-08
5.75268e-08
5.17113e-08
4.61095e-08
4.07249e-08
3.55614e-08
3.0624e-08
2.59211e-08