/*--------------------------------*- C++ -*----------------------------------*\
  =========                 |
  \\      /  F ield         | OpenFOAM: The Open Source CFD Toolbox
   \\    /   O peration     | Website:  https://openfoam.org
    \\  /    A nd           | Version:  12
     \\/     M anipulation  |
\*---------------------------------------------------------------------------*/
FoamFile
{
    format      ascii;
    class       surfaceScalarField;
    location    "1";
    object      phi;
}
// * * * * * * * * * * * * * * * * * * * * * * * * * * * * * * * * * * * * * //

dimensions      [0 3 -1 0 0 0 0];

internalField   nonuniform List<scalar> 
11100
(
2.90347e-10
-2.88849e-10
7.28349e-10
-4.38118e-10
1.03883e-09
-3.10634e-10
1.07183e-09
-3.31391e-11
7.62413e-10
3.09306e-10
9.17878e-11
6.70544e-10
-9.32289e-10
1.02402e-09
-2.28731e-09
1.35498e-09
-3.94314e-09
1.65579e-09
-5.86635e-09
1.92317e-09
-8.02274e-09
2.15637e-09
-1.03789e-08
2.35618e-09
-1.29032e-08
2.52421e-09
-1.55657e-08
2.66247e-09
-1.83388e-08
2.77314e-09
-2.11972e-08
2.85833e-09
-2.41172e-08
2.91999e-09
-2.70771e-08
2.95984e-09
-3.00564e-08
2.97934e-09
-3.30361e-08
2.97966e-09
-3.59978e-08
2.96167e-09
-3.89238e-08
2.92601e-09
-4.17968e-08
2.87305e-09
-4.45998e-08
2.80298e-09
-4.73157e-08
2.71584e-09
-4.99272e-08
2.61155e-09
-5.24172e-08
2.48996e-09
-5.47682e-08
2.35093e-09
-5.69625e-08
2.19432e-09
-5.89826e-08
2.02012e-09
-6.0811e-08
1.8284e-09
-6.24304e-08
1.61943e-09
-6.38241e-08
1.39369e-09
-6.4976e-08
1.15188e-09
-6.5871e-08
8.9497e-10
-6.64952e-08
6.24202e-10
-6.68364e-08
3.41168e-10
-6.68846e-08
4.82332e-11
-6.66313e-08
-2.53303e-10
-6.60711e-08
-5.60271e-10
-6.52011e-08
-8.70011e-10
-6.40216e-08
-1.17944e-09
-6.25364e-08
-1.48525e-09
-6.07525e-08
-1.78391e-09
-5.86807e-08
-2.0718e-09
-5.63355e-08
-2.34516e-09
-5.37353e-08
-2.60027e-09
-5.09018e-08
-2.83342e-09
-4.78608e-08
-3.04105e-09
-4.4641e-08
-3.21979e-09
-4.12744e-08
-3.36658e-09
-3.77958e-08
-3.47866e-09
-3.4242e-08
-3.55375e-09
-3.0652e-08
-3.59002e-09
-2.70658e-08
-3.58618e-09
-2.35243e-08
-3.54155e-09
-2.00683e-08
-3.45604e-09
-1.67381e-08
-3.33021e-09
-1.35728e-08
-3.16529e-09
-1.06096e-08
-2.96314e-09
-7.88336e-09
-2.7263e-09
-5.42542e-09
-2.45794e-09
-3.26351e-09
-2.16191e-09
-1.42077e-09
-1.84274e-09
8.49334e-11
-1.50571e-09
1.24196e-09
-1.15703e-09
2.04592e-09
-8.03964e-10
2.50137e-09
-4.55453e-10
2.6241e-09
-1.22733e-10
2.44464e-09
1.79453e-10
2.01366e-09
4.3098e-10
1.40991e-09
6.03751e-10
7.52256e-10
6.57647e-10
2.15159e-10
5.37094e-10
2.15158e-10
4.47841e-10
-7.36697e-10
9.91197e-10
-9.81567e-10
1.12188e-09
-4.4145e-10
5.55101e-10
5.33498e-10
-8.56503e-10
1.72079e-09
-3.16767e-09
2.98162e-09
-6.37312e-09
4.2294e-09
-1.04301e-08
5.41186e-09
-1.52734e-08
6.49911e-09
-2.08261e-08
7.47579e-09
-2.70056e-08
8.33582e-09
-3.37284e-08
9.07897e-09
-4.09128e-08
9.70856e-09
-4.84803e-08
1.02299e-08
-5.63565e-08
1.06493e-08
-6.44714e-08
1.09733e-08
-7.27595e-08
1.1208e-08
-8.11589e-08
1.13592e-08
-8.96112e-08
1.14317e-08
-9.8061e-08
1.14295e-08
-1.06455e-07
1.13557e-08
-1.14742e-07
1.12127e-08
-1.22871e-07
1.10019e-08
-1.30792e-07
1.07243e-08
-1.38456e-07
1.03801e-08
-1.45814e-07
9.96948e-09
-1.52816e-07
9.49219e-09
-1.59414e-07
8.94808e-09
-1.65556e-07
8.33712e-09
-1.71196e-07
7.65961e-09
-1.76284e-07
6.91633e-09
-1.80773e-07
6.10871e-09
-1.84618e-07
5.23891e-09
-1.87776e-07
4.31e-09
-1.90207e-07
3.32599e-09
-1.91875e-07
2.29189e-09
-1.92748e-07
1.21388e-09
-1.928e-07
1.00022e-10
-1.92011e-07
-1.04238e-09
-1.90368e-07
-2.20331e-09
-1.87865e-07
-3.37221e-09
-1.84507e-07
-4.53763e-09
-1.80305e-07
-5.68729e-09
-1.75281e-07
-6.80829e-09
-1.69465e-07
-7.88723e-09
-1.629e-07
-8.91049e-09
-1.55636e-07
-9.86443e-09
-1.47734e-07
-1.07356e-08
-1.39263e-07
-1.15112e-08
-1.30304e-07
-1.2179e-08
-1.20943e-07
-1.2728e-08
-1.11273e-07
-1.31482e-08
-1.01396e-07
-1.34315e-08
-9.14141e-08
-1.35714e-08
-8.14369e-08
-1.35634e-08
-7.15733e-08
-1.34051e-08
-6.1933e-08
-1.30963e-08
-5.26239e-08
-1.26394e-08
-4.37503e-08
-1.20389e-08
-3.54114e-08
-1.1302e-08
-2.76994e-08
-1.04383e-08
-2.06975e-08
-9.45982e-09
-1.44782e-08
-8.38116e-09
-9.10138e-09
-7.21959e-09
-4.61181e-09
-5.99529e-09
-1.03706e-09
-4.73178e-09
1.61569e-09
-3.45672e-09
3.36342e-09
-2.20319e-09
4.25234e-09
-1.01166e-09
4.36475e-09
6.70379e-11
3.82822e-09
9.675e-10
2.82749e-09
1.60448e-09
1.61813e-09
1.867e-09
5.35576e-10
1.61965e-09
7.50732e-10
3.26472e-10
-1.0631e-09
4.6602e-10
-1.12114e-09
-1.32118e-10
1.56597e-10
-1.79459e-09
2.19586e-09
-4.70136e-09
4.62747e-09
-8.92572e-09
7.2059e-09
-1.44655e-08
9.76916e-09
-2.12676e-08
1.22138e-08
-2.92455e-08
1.4477e-08
-3.82931e-08
1.65234e-08
-4.82937e-08
1.83363e-08
-5.91262e-08
1.99115e-08
-7.06699e-08
2.12522e-08
-8.28068e-08
2.23668e-08
-9.54235e-08
2.3266e-08
-1.08412e-07
2.39616e-08
-1.21669e-07
2.44651e-08
-1.35097e-07
2.47873e-08
-1.48603e-07
2.49378e-08
-1.62098e-07
2.49244e-08
-1.75496e-07
2.47535e-08
-1.88713e-07
2.44299e-08
-2.01668e-07
2.39569e-08
-2.14281e-07
2.33365e-08
-2.2647e-07
2.257e-08
-2.38159e-07
2.16577e-08
-2.49266e-07
2.05999e-08
-2.59715e-07
1.93968e-08
-2.69427e-07
1.8049e-08
-2.78325e-07
1.65578e-08
-2.86335e-07
1.49257e-08
-2.93382e-07
1.31561e-08
-2.99398e-07
1.12546e-08
-3.04316e-07
9.22825e-09
-3.08076e-07
7.08618e-09
-3.10624e-07
4.83974e-09
-3.11913e-07
2.50265e-09
-3.11904e-07
9.11361e-11
-3.10569e-07
-2.377e-09
-3.07891e-07
-4.88117e-09
-3.03865e-07
-7.39879e-09
-2.98497e-07
-9.90543e-09
-2.91809e-07
-1.23751e-08
-2.83837e-07
-1.47805e-08
-2.74631e-07
-1.70934e-08
-2.64256e-07
-1.92854e-08
-2.52793e-07
-2.13276e-08
-2.40336e-07
-2.31923e-08
-2.26995e-07
-2.48523e-08
-2.12892e-07
-2.62825e-08
-1.9816e-07
-2.74598e-08
-1.82944e-07
-2.83637e-08
-1.67398e-07
-2.89773e-08
-1.51683e-07
-2.92872e-08
-1.35962e-07
-2.92841e-08
-1.20404e-07
-2.89632e-08
-1.05176e-07
-2.83245e-08
-9.04422e-08
-2.7373e-08
-7.63623e-08
-2.61188e-08
-6.30871e-08
-2.45772e-08
-5.07567e-08
-2.27687e-08
-3.94972e-08
-2.07194e-08
-2.94178e-08
-1.84605e-08
-2.06082e-08
-1.60293e-08
-1.31344e-08
-1.3469e-08
-7.03611e-09
-1.08301e-08
-2.32152e-09
-8.17131e-09
1.03705e-09
-5.56176e-09
3.10961e-09
-3.08421e-09
4.01592e-09
-8.39284e-10
3.93474e-09
1.04868e-09
3.11419e-09
2.42503e-09
1.8825e-09
3.09868e-09
6.60063e-10
2.84208e-09
1.41079e-09
4.77679e-11
-1.11082e-09
-5.21484e-10
-5.51902e-10
-2.20414e-09
1.83919e-09
-5.30923e-09
5.30086e-09
-1.00101e-08
9.32824e-09
-1.63766e-08
1.35724e-08
-2.44008e-08
1.77933e-08
-3.40182e-08
2.18312e-08
-4.51261e-08
2.55848e-08
-5.75963e-08
2.89935e-08
-7.12862e-08
3.20262e-08
-8.60459e-08
3.46712e-08
-1.01724e-07
3.69301e-08
-1.1817e-07
3.8813e-08
-1.35239e-07
4.03344e-08
-1.52788e-07
4.15114e-08
-1.70685e-07
4.23613e-08
-1.88798e-07
4.29003e-08
-2.07003e-07
4.31433e-08
-2.25182e-07
4.31027e-08
-2.43217e-07
4.27887e-08
-2.60996e-07
4.2209e-08
-2.78408e-07
4.13693e-08
-2.95345e-07
4.02733e-08
-3.11698e-07
3.89234e-08
-3.27362e-07
3.73211e-08
-3.42229e-07
3.54675e-08
-3.56196e-07
3.33636e-08
-3.69159e-07
3.10116e-08
-3.81016e-07
2.84145e-08
-3.91667e-07
2.55774e-08
-4.01019e-07
2.25076e-08
-4.08979e-07
1.92148e-08
-4.15463e-07
1.57122e-08
-4.20393e-07
1.20162e-08
-4.237e-07
8.14671e-09
-4.25325e-07
4.12755e-09
-4.2522e-07
-1.36352e-11
-4.23351e-07
-4.2458e-09
-4.19699e-07
-8.53396e-09
-4.14257e-07
-1.28399e-08
-4.07041e-07
-1.71223e-08
-3.98078e-07
-2.13374e-08
-3.87419e-07
-2.54394e-08
-3.75132e-07
-2.93811e-08
-3.61302e-07
-3.31147e-08
-3.46038e-07
-3.65924e-08
-3.29462e-07
-3.97677e-08
-3.11719e-07
-4.25957e-08
-2.92967e-07
-4.50345e-08
-2.73381e-07
-4.70458e-08
-2.53149e-07
-4.85958e-08
-2.3247e-07
-4.96564e-08
-2.11552e-07
-5.02054e-08
-1.90608e-07
-5.02276e-08
-1.69856e-07
-4.97154e-08
-1.49511e-07
-4.86689e-08
-1.29787e-07
-4.70969e-08
-1.1089e-07
-4.50164e-08
-9.30135e-08
-4.24535e-08
-7.63391e-08
-3.94432e-08
-6.10291e-08
-3.60294e-08
-4.72242e-08
-3.22654e-08
-3.50391e-08
-2.82144e-08
-2.45586e-08
-2.39495e-08
-1.58329e-08
-1.95558e-08
-8.87318e-09
-1.51311e-08
-3.64547e-09
-1.07895e-08
-6.5016e-11
-6.66467e-09
2.01102e-09
-2.91532e-09
2.79118e-09
2.68505e-10
2.55848e-09
2.65773e-09
1.67991e-09
3.97725e-09
6.22675e-10
3.89932e-09
2.03347e-09
-3.07831e-10
-8.02934e-10
-1.76374e-09
9.04015e-10
-4.75864e-09
4.83404e-09
-9.54347e-09
1.00856e-08
-1.62564e-08
1.60411e-08
-2.49442e-08
2.22601e-08
-3.55812e-08
2.84302e-08
-4.80868e-08
3.43368e-08
-6.23407e-08
3.98386e-08
-7.81956e-08
4.48484e-08
-9.54874e-08
4.9318e-08
-1.14043e-07
5.32264e-08
-1.33684e-07
5.65718e-08
-1.54236e-07
5.93648e-08
-1.75525e-07
6.16231e-08
-1.97382e-07
6.33684e-08
-2.19644e-07
6.46235e-08
-2.42154e-07
6.54105e-08
-2.6476e-07
6.57493e-08
-2.87315e-07
6.56574e-08
-3.09675e-07
6.51489e-08
-3.31701e-07
6.4235e-08
-3.53256e-07
6.2924e-08
-3.74204e-07
6.12218e-08
-3.94414e-07
5.91325e-08
-4.13751e-07
5.6659e-08
-4.32088e-07
5.38037e-08
-4.49294e-07
5.05696e-08
-4.65243e-07
4.69608e-08
-4.79811e-07
4.29831e-08
-4.92879e-07
3.86454e-08
-5.04332e-07
3.39598e-08
-5.14059e-07
2.89423e-08
-5.2196e-07
2.36135e-08
-5.27943e-07
1.79991e-08
-5.31926e-07
1.21297e-08
-5.33841e-07
6.04178e-09
-5.33631e-07
-2.2302e-10
-5.31259e-07
-6.61759e-09
-5.26704e-07
-1.30896e-08
-5.19962e-07
-1.95818e-08
-5.11051e-07
-2.60329e-08
-5.00011e-07
-3.23778e-08
-4.86902e-07
-3.85486e-08
-4.71807e-07
-4.44756e-08
-4.54834e-07
-5.00882e-08
-4.3611e-07
-5.53161e-08
-4.15787e-07
-6.00908e-08
-3.94036e-07
-6.43464e-08
-3.7105e-07
-6.80212e-08
-3.47036e-07
-7.1059e-08
-3.22222e-07
-7.34104e-08
-2.96844e-07
-7.50341e-08
-2.71152e-07
-7.58976e-08
-2.45401e-07
-7.59787e-08
-2.1985e-07
-7.52664e-08
-1.94758e-07
-7.37612e-08
-1.70379e-07
-7.1476e-08
-1.46959e-07
-6.84364e-08
-1.24731e-07
-6.46813e-08
-1.03911e-07
-6.02626e-08
-8.46948e-08
-5.5246e-08
-6.72493e-08
-4.97109e-08
-5.17127e-08
-4.3751e-08
-3.81873e-08
-3.7475e-08
-2.6735e-08
-3.1008e-08
-1.73724e-08
-2.44937e-08
-1.0065e-08
-1.80968e-08
-4.72205e-09
-1.20077e-08
-1.18979e-09
-6.44759e-09
7.54459e-10
-1.67574e-09
1.40939e-09
2.0028e-09
1.15813e-09
4.2285e-09
4.83147e-10
4.5743e-09
2.51661e-09
-6.97288e-10
-1.05607e-10
-3.13639e-09
3.34312e-09
-7.58113e-09
9.27874e-09
-1.42001e-08
1.67045e-08
-2.30757e-08
2.49166e-08
-3.42156e-08
3.33999e-08
-4.75652e-08
4.17798e-08
-6.30208e-08
4.97923e-08
-8.04415e-08
5.72593e-08
-9.96604e-08
6.40673e-08
-1.20493e-07
7.01508e-08
-1.42746e-07
7.5479e-08
-1.6622e-07
8.00457e-08
-1.90716e-07
8.3861e-08
-2.16038e-07
8.69451e-08
-2.41994e-07
8.9324e-08
-2.68396e-07
9.10256e-08
-2.95063e-07
9.20773e-08
-3.21818e-07
9.25043e-08
-3.48489e-07
9.2329e-08
-3.7491e-07
9.15696e-08
-4.00916e-07
9.0241e-08
-4.26347e-07
8.83544e-08
-4.51043e-07
8.59181e-08
-4.74849e-07
8.29383e-08
-4.9761e-07
7.94197e-08
-5.19173e-07
7.5367e-08
-5.39389e-07
7.07853e-08
-5.58109e-07
6.56816e-08
-5.75192e-07
6.00657e-08
-5.90498e-07
5.39512e-08
-6.03894e-07
4.73562e-08
-6.15256e-07
4.03045e-08
-6.24469e-07
3.28258e-08
-6.31426e-07
2.49567e-08
-6.36037e-07
1.67408e-08
-6.38224e-07
8.22892e-09
-6.37927e-07
-5.20537e-10
-6.35102e-07
-9.44214e-09
-6.29728e-07
-1.84635e-08
-6.21804e-07
-2.75058e-08
-6.11353e-07
-3.64845e-08
-5.9842e-07
-4.53105e-08
-5.83078e-07
-5.38909e-08
-5.65423e-07
-6.21303e-08
-5.45579e-07
-6.99325e-08
-5.23693e-07
-7.72017e-08
-4.9994e-07
-8.38445e-08
-4.74515e-07
-8.97711e-08
-4.47638e-07
-9.48977e-08
-4.19549e-07
-9.91479e-08
-3.90505e-07
-1.02454e-07
-3.60779e-07
-1.04761e-07
-3.30653e-07
-1.06023e-07
-3.0042e-07
-1.06212e-07
-2.70376e-07
-1.0531e-07
-2.40817e-07
-1.0332e-07
-2.12034e-07
-1.00259e-07
-1.84308e-07
-9.61624e-08
-1.57907e-07
-9.10826e-08
-1.33078e-07
-8.50914e-08
-1.10045e-07
-7.82786e-08
-8.90032e-08
-7.07529e-08
-7.01116e-08
-6.26426e-08
-5.34906e-08
-5.40959e-08
-3.92158e-08
-4.52828e-08
-2.7313e-08
-3.63966e-08
-1.77526e-08
-2.76572e-08
-1.04453e-08
-1.9315e-08
-5.23643e-09
-1.16565e-08
-1.90118e-09
-5.011e-09
-1.39369e-10
2.40987e-10
4.30823e-10
3.6583e-09
2.82772e-10
4.72234e-09
2.79938e-09
-1.09787e-09
9.92308e-10
-4.56571e-09
6.81097e-09
-1.05355e-08
1.52485e-08
-1.90809e-08
2.52498e-08
-3.02151e-08
3.60508e-08
-4.38947e-08
4.70795e-08
-6.00267e-08
5.79117e-08
-7.84773e-08
6.82428e-08
-9.90809e-08
7.78629e-08
-1.21649e-07
8.66351e-08
-1.45976e-07
9.44784e-08
-1.7185e-07
1.01353e-07
-1.99052e-07
1.07247e-07
-2.27362e-07
1.12172e-07
-2.56565e-07
1.16148e-07
-2.86448e-07
1.19207e-07
-3.16802e-07
1.2138e-07
-3.47425e-07
1.227e-07
-3.78118e-07
1.23198e-07
-4.08689e-07
1.229e-07
-4.38948e-07
1.21829e-07
-4.6871e-07
1.20003e-07
-4.97792e-07
1.17437e-07
-5.26016e-07
1.14142e-07
-5.53204e-07
1.10126e-07
-5.79181e-07
1.05397e-07
-6.03775e-07
9.99605e-08
-6.26816e-07
9.38261e-08
-6.48138e-07
8.70041e-08
-6.67581e-07
7.95089e-08
-6.8499e-07
7.13599e-08
-7.00216e-07
6.25825e-08
-7.13121e-07
5.32095e-08
-7.23577e-07
4.32812e-08
-7.31467e-07
3.28467e-08
-7.3669e-07
2.19641e-08
-7.39162e-07
1.0701e-08
-7.38817e-07
-8.65884e-10
-7.35608e-07
-1.26505e-08
-7.29514e-07
-2.45582e-08
-7.20533e-07
-3.64862e-08
-7.08693e-07
-4.83245e-08
-6.94047e-07
-5.99572e-08
-6.76674e-07
-7.12639e-08
-6.56683e-07
-8.21212e-08
-6.34211e-07
-9.24044e-08
-6.09423e-07
-1.0199e-07
-5.82511e-07
-1.10756e-07
-5.53694e-07
-1.18588e-07
-5.23214e-07
-1.25377e-07
-4.91337e-07
-1.31025e-07
-4.58348e-07
-1.35443e-07
-4.2455e-07
-1.3856e-07
-3.90256e-07
-1.40317e-07
-3.55792e-07
-1.40676e-07
-3.21485e-07
-1.39617e-07
-2.87665e-07
-1.3714e-07
-2.54657e-07
-1.33268e-07
-2.22774e-07
-1.28045e-07
-1.92315e-07
-1.21541e-07
-1.63558e-07
-1.13848e-07
-1.36755e-07
-1.05082e-07
-1.12125e-07
-9.53827e-08
-8.98514e-08
-8.49166e-08
-7.00727e-08
-7.38746e-08
-5.28812e-08
-6.24743e-08
-3.83156e-08
-5.09623e-08
-2.63567e-08
-3.96161e-08
-1.69232e-08
-2.87484e-08
-9.86755e-09
-1.87121e-08
-4.9721e-09
-9.90645e-09
-1.94605e-09
-2.78506e-09
-4.22006e-10
2.13425e-09
4.84176e-11
4.25192e-09
2.8478e-09
-1.49772e-09
2.49005e-09
-6.00853e-09
1.13218e-08
-1.35363e-08
2.27762e-08
-2.40551e-08
3.57685e-08
-3.7501e-08
4.94966e-08
-5.37712e-08
6.33497e-08
-7.2727e-08
7.68675e-08
-9.41985e-08
8.97143e-08
-1.17991e-07
1.01655e-07
-1.43891e-07
1.12535e-07
-1.71674e-07
1.22261e-07
-2.01105e-07
1.30784e-07
-2.31947e-07
1.3809e-07
-2.63965e-07
1.44189e-07
-2.96923e-07
1.49106e-07
-3.30589e-07
1.52873e-07
-3.64739e-07
1.55529e-07
-3.99149e-07
1.5711e-07
-4.33604e-07
1.57652e-07
-4.67891e-07
1.57187e-07
-5.01802e-07
1.5574e-07
-5.35134e-07
1.53335e-07
-5.67684e-07
1.49987e-07
-5.99254e-07
1.45713e-07
-6.29649e-07
1.40521e-07
-6.58676e-07
1.34423e-07
-6.86143e-07
1.27428e-07
-7.11866e-07
1.19549e-07
-7.35661e-07
1.10799e-07
-7.57352e-07
1.012e-07
-7.76769e-07
9.07766e-08
-7.93749e-07
7.95634e-08
-8.08143e-07
6.76028e-08
-8.19809e-07
5.49473e-08
-8.28622e-07
4.16597e-08
-8.34472e-07
2.78143e-08
-8.37268e-07
1.34967e-08
-8.36938e-07
-1.196e-09
-8.33433e-07
-1.61556e-08
-8.26728e-07
-3.12632e-08
-8.16824e-07
-4.63899e-08
-8.0375e-07
-6.13983e-08
-7.87564e-07
-7.61438e-08
-7.68352e-07
-9.0476e-08
-7.46231e-07
-1.04241e-07
-7.21352e-07
-1.17284e-07
-6.9389e-07
-1.29451e-07
-6.64056e-07
-1.40591e-07
-6.32085e-07
-1.50559e-07
-5.9824e-07
-1.59222e-07
-5.62811e-07
-1.66455e-07
-5.26105e-07
-1.72149e-07
-4.88451e-07
-1.76213e-07
-4.50192e-07
-1.78576e-07
-4.11682e-07
-1.79187e-07
-3.73278e-07
-1.78021e-07
-3.3534e-07
-1.75077e-07
-2.98225e-07
-1.70383e-07
-2.62276e-07
-1.63994e-07
-2.27824e-07
-1.55994e-07
-1.95174e-07
-1.46498e-07
-1.64606e-07
-1.35649e-07
-1.36366e-07
-1.23622e-07
-1.10661e-07
-1.10622e-07
-8.76509e-08
-9.68845e-08
-6.74474e-08
-8.26778e-08
-5.01061e-08
-6.83036e-08
-3.56231e-08
-5.40991e-08
-2.39308e-08
-4.04407e-08
-1.48953e-08
-2.77477e-08
-8.3135e-09
-1.64883e-08
-3.91202e-09
-7.18654e-09
-1.34666e-09
-4.31111e-10
-2.02939e-10
3.10819e-09
2.64486e-09
-1.89062e-09
4.38069e-09
-7.43993e-09
1.68711e-08
-1.65307e-08
3.1867e-08
-2.90372e-08
4.8275e-08
-4.4815e-08
6.52743e-08
-6.36968e-08
8.22315e-08
-8.54926e-08
9.86632e-08
-1.09992e-07
1.14213e-07
-1.36967e-07
1.2863e-07
-1.66177e-07
1.41746e-07
-1.97375e-07
1.53458e-07
-2.30305e-07
1.63714e-07
-2.64714e-07
1.72498e-07
-3.00346e-07
1.79821e-07
-3.36951e-07
1.85711e-07
-3.74281e-07
1.90203e-07
-4.12093e-07
1.93341e-07
-4.5015e-07
1.95167e-07
-4.88218e-07
1.95721e-07
-5.26069e-07
1.95038e-07
-5.63479e-07
1.9315e-07
-6.00226e-07
1.90081e-07
-6.36092e-07
1.85853e-07
-6.70862e-07
1.80483e-07
-7.04324e-07
1.73983e-07
-7.3627e-07
1.66368e-07
-7.66492e-07
1.5765e-07
-7.94789e-07
1.47846e-07
-8.20964e-07
1.36974e-07
-8.44826e-07
1.25062e-07
-8.66192e-07
1.12142e-07
-8.84887e-07
9.82586e-08
-9.00748e-07
8.34641e-08
-9.13625e-07
6.78242e-08
-9.23383e-07
5.14171e-08
-9.29902e-07
3.4334e-08
-9.33086e-07
1.66801e-08
-9.32856e-07
-1.42603e-09
-9.29159e-07
-1.98522e-08
-9.21968e-07
-3.84538e-08
-9.11284e-07
-5.70744e-08
-8.97135e-07
-7.55473e-08
-8.79582e-07
-9.36972e-08
-8.58716e-07
-1.11342e-07
-8.34661e-07
-1.28296e-07
-8.07575e-07
-1.44371e-07
-7.77646e-07
-1.5938e-07
-7.45095e-07
-1.73141e-07
-7.10175e-07
-1.8548e-07
-6.73166e-07
-1.96231e-07
-6.34374e-07
-2.05246e-07
-5.94132e-07
-2.12391e-07
-5.5279e-07
-2.17555e-07
-5.10716e-07
-2.20649e-07
-4.68291e-07
-2.21612e-07
-4.25901e-07
-2.20411e-07
-3.83936e-07
-2.17043e-07
-3.42779e-07
-2.11539e-07
-3.02807e-07
-2.03966e-07
-2.64378e-07
-1.94423e-07
-2.2783e-07
-1.83047e-07
-1.93469e-07
-1.7001e-07
-1.6157e-07
-1.55522e-07
-1.32364e-07
-1.39828e-07
-1.06037e-07
-1.23211e-07
-8.27225e-08
-1.05992e-07
-6.24974e-08
-8.85287e-08
-4.53773e-08
-7.12193e-08
-3.13136e-08
-5.45044e-08
-2.01914e-08
-3.88699e-08
-1.18277e-08
-2.4852e-08
-5.97213e-09
-1.30421e-08
-2.30894e-09
-4.09431e-09
-4.61119e-10
1.26037e-09
2.18374e-09
-2.27358e-09
6.65428e-09
-8.84573e-09
2.34432e-08
-1.94861e-08
4.25074e-08
-3.39717e-08
6.27605e-08
-5.20766e-08
8.33792e-08
-7.35667e-08
1.03721e-07
-9.81971e-08
1.23294e-07
-1.25713e-07
1.41729e-07
-1.55851e-07
1.58768e-07
-1.88342e-07
1.74236e-07
-2.22911e-07
1.88027e-07
-2.59285e-07
2.00088e-07
-2.9719e-07
2.10403e-07
-3.36355e-07
2.18986e-07
-3.76512e-07
2.25868e-07
-4.17401e-07
2.31092e-07
-4.58763e-07
2.34703e-07
-5.00347e-07
2.3675e-07
-5.41904e-07
2.37278e-07
-5.83192e-07
2.36326e-07
-6.23972e-07
2.33929e-07
-6.64008e-07
2.30117e-07
-7.03067e-07
2.24913e-07
-7.40921e-07
2.18337e-07
-7.77342e-07
2.10405e-07
-8.12108e-07
2.01133e-07
-8.44997e-07
1.9054e-07
-8.75794e-07
1.78643e-07
-9.0429e-07
1.6547e-07
-9.3028e-07
1.51052e-07
-9.53569e-07
1.35431e-07
-9.7397e-07
1.1866e-07
-9.9131e-07
1.00804e-07
-1.00543e-06
8.19419e-08
-1.01618e-06
6.21681e-08
-1.02344e-06
4.15918e-08
-1.02709e-06
2.03385e-08
-1.02707e-06
-1.45023e-09
-1.02331e-06
-2.36175e-08
-1.01577e-06
-4.59916e-08
-1.00445e-06
-6.83871e-08
-9.89396e-07
-9.06066e-08
-9.7065e-07
-1.12443e-07
-9.48313e-07
-1.3368e-07
-9.22511e-07
-1.54098e-07
-8.93407e-07
-1.73474e-07
-8.61199e-07
-1.91588e-07
-8.26117e-07
-2.08223e-07
-7.88426e-07
-2.23171e-07
-7.4842e-07
-2.36237e-07
-7.06424e-07
-2.47242e-07
-6.62787e-07
-2.56028e-07
-6.17883e-07
-2.6246e-07
-5.72102e-07
-2.66431e-07
-5.25849e-07
-2.67865e-07
-4.7954e-07
-2.6672e-07
-4.3359e-07
-2.62992e-07
-3.88415e-07
-2.56715e-07
-3.4442e-07
-2.47961e-07
-3.01994e-07
-2.36849e-07
-2.61506e-07
-2.23535e-07
-2.23293e-07
-2.08223e-07
-1.87659e-07
-1.91156e-07
-1.54864e-07
-1.72623e-07
-1.25121e-07
-1.52954e-07
-9.85901e-08
-1.32523e-07
-7.53731e-08
-1.11746e-07
-5.55094e-08
-9.1083e-08
-3.89738e-08
-7.10399e-08
-2.56747e-08
-5.2169e-08
-1.54535e-08
-3.50732e-08
-8.08658e-09
-2.04091e-08
-3.28873e-09
-8.89216e-09
-7.20483e-10
-1.30788e-09
1.46325e-09
-2.6452e-09
9.29952e-09
-1.02179e-08
3.1016e-08
-2.23824e-08
5.46718e-08
-3.88222e-08
7.92003e-08
-5.92311e-08
1.03788e-07
-8.33068e-08
1.27797e-07
-1.10748e-07
1.50735e-07
-1.41254e-07
1.72235e-07
-1.74523e-07
1.92037e-07
-2.10254e-07
2.09967e-07
-2.48147e-07
2.25921e-07
-2.87907e-07
2.39848e-07
-3.29241e-07
2.51737e-07
-3.71862e-07
2.61607e-07
-4.15488e-07
2.69494e-07
-4.59842e-07
2.75447e-07
-5.04656e-07
2.79517e-07
-5.49662e-07
2.81757e-07
-5.94603e-07
2.82218e-07
-6.39221e-07
2.80944e-07
-6.83266e-07
2.77974e-07
-7.26488e-07
2.7334e-07
-7.68644e-07
2.67069e-07
-8.09491e-07
2.59183e-07
-8.4879e-07
2.49703e-07
-8.86304e-07
2.38647e-07
-9.21801e-07
2.26037e-07
-9.55054e-07
2.11896e-07
-9.8584e-07
1.96256e-07
-1.01394e-06
1.79156e-07
-1.03916e-06
1.60645e-07
-1.06129e-06
1.40788e-07
-1.08014e-06
1.19661e-07
-1.09556e-06
9.73574e-08
-1.10738e-06
7.39878e-08
-1.11547e-06
4.96805e-08
-1.11971e-06
2.4582e-08
-1.12002e-06
-1.14279e-09
-1.11632e-06
-2.73111e-08
-1.10859e-06
-5.37233e-08
-1.09682e-06
-8.01638e-08
-1.08102e-06
-1.06403e-07
-1.06126e-06
-1.32201e-07
-1.03763e-06
-1.57306e-07
-1.01027e-06
-1.81463e-07
-9.7933e-07
-2.04413e-07
-9.45019e-07
-2.25898e-07
-9.07576e-07
-2.45666e-07
-8.67272e-07
-2.63474e-07
-8.24416e-07
-2.79093e-07
-7.79345e-07
-2.92313e-07
-7.32427e-07
-3.02946e-07
-6.84053e-07
-3.10834e-07
-6.34637e-07
-3.15846e-07
-5.84608e-07
-3.17893e-07
-5.34408e-07
-3.16921e-07
-4.84481e-07
-3.12919e-07
-4.35272e-07
-3.05923e-07
-3.87218e-07
-2.96015e-07
-3.40741e-07
-2.83326e-07
-2.96242e-07
-2.68035e-07
-2.5409e-07
-2.50375e-07
-2.14621e-07
-2.30624e-07
-1.78129e-07
-2.09115e-07
-1.44858e-07
-1.86226e-07
-1.14996e-07
-1.62385e-07
-8.86748e-08
-1.38067e-07
-6.59617e-08
-1.13796e-07
-4.68588e-08
-9.01428e-08
-3.13013e-08
-6.77265e-08
-1.91581e-08
-4.72163e-08
-1.02343e-08
-2.93329e-08
-4.27589e-09
-1.48506e-08
-9.78453e-10
-4.60532e-09
4.84799e-10
-3.00494e-09
1.23045e-08
-1.15521e-08
3.95631e-08
-2.52072e-08
6.83269e-08
-4.35648e-08
9.75579e-08
-6.62402e-08
1.26463e-07
-9.28638e-08
1.54421e-07
-1.23078e-07
1.80949e-07
-1.56533e-07
2.0569e-07
-1.92888e-07
2.28392e-07
-2.3181e-07
2.48889e-07
-2.72973e-07
2.67084e-07
-3.16057e-07
2.82932e-07
-3.60753e-07
2.96433e-07
-4.06756e-07
3.0761e-07
-4.5377e-07
3.16508e-07
-5.01506e-07
3.23183e-07
-5.49682e-07
3.27693e-07
-5.98022e-07
3.30097e-07
-6.46254e-07
3.3045e-07
-6.94112e-07
3.28803e-07
-7.41334e-07
3.25196e-07
-7.87661e-07
3.19667e-07
-8.32837e-07
3.12245e-07
-8.76608e-07
3.02955e-07
-9.18725e-07
2.9182e-07
-9.58941e-07
2.78863e-07
-9.97012e-07
2.64108e-07
-1.0327e-06
2.47584e-07
-1.06577e-06
2.29327e-07
-1.096e-06
2.09384e-07
-1.12317e-06
1.87814e-07
-1.14707e-06
1.64689e-07
-1.16751e-06
1.40099e-07
-1.1843e-06
1.14152e-07
-1.19729e-06
8.6975e-08
-1.20632e-06
5.87154e-08
-1.21128e-06
2.95412e-08
-1.21207e-06
-3.58702e-10
-1.2086e-06
-3.07754e-08
-1.20085e-06
-6.14805e-08
-1.18878e-06
-9.22277e-08
-1.17243e-06
-1.22755e-07
-1.15185e-06
-1.52786e-07
-1.12712e-06
-1.82035e-07
-1.09837e-06
-2.10208e-07
-1.06578e-06
-2.37009e-07
-1.02953e-06
-2.6214e-07
-9.89889e-07
-2.85312e-07
-9.47119e-07
-3.06244e-07
-9.01542e-07
-3.24671e-07
-8.53507e-07
-3.40348e-07
-8.03398e-07
-3.53056e-07
-7.51624e-07
-3.62608e-07
-6.98619e-07
-3.68851e-07
-6.44837e-07
-3.71675e-07
-5.90745e-07
-3.71013e-07
-5.36817e-07
-3.66847e-07
-4.83529e-07
-3.59211e-07
-4.31351e-07
-3.48193e-07
-3.80739e-07
-3.33938e-07
-3.32128e-07
-3.16646e-07
-2.85925e-07
-2.96578e-07
-2.42501e-07
-2.74048e-07
-2.02185e-07
-2.49431e-07
-1.65255e-07
-2.23155e-07
-1.31936e-07
-1.95704e-07
-1.02391e-07
-1.67613e-07
-7.6718e-08
-1.39469e-07
-5.49513e-08
-1.1191e-07
-3.70557e-08
-8.56221e-08
-2.29298e-08
-6.13423e-08
-1.24082e-08
-3.98545e-08
-5.26739e-09
-2.19914e-08
-1.23447e-09
-8.63823e-09
-7.49676e-10
-3.35261e-09
1.56571e-08
-1.28456e-08
4.90561e-08
-2.79524e-08
8.34337e-08
-4.81829e-08
1.17788e-07
-7.30768e-08
1.51357e-07
-1.02198e-07
1.83542e-07
-1.35133e-07
2.13883e-07
-1.71484e-07
2.42041e-07
-2.1087e-07
2.67779e-07
-2.52925e-07
2.90944e-07
-2.97295e-07
3.11453e-07
-3.43638e-07
3.29276e-07
-3.91625e-07
3.4442e-07
-4.40936e-07
3.56921e-07
-4.91262e-07
3.66834e-07
-5.423e-07
3.74221e-07
-5.93758e-07
3.79151e-07
-6.45349e-07
3.81688e-07
-6.96793e-07
3.81894e-07
-7.47814e-07
3.79823e-07
-7.98141e-07
3.75522e-07
-8.47504e-07
3.6903e-07
-8.9564e-07
3.6038e-07
-9.42286e-07
3.49601e-07
-9.87182e-07
3.36717e-07
-1.03007e-06
3.21754e-07
-1.0707e-06
3.0474e-07
-1.10883e-06
2.85708e-07
-1.1442e-06
2.64701e-07
-1.17659e-06
2.41772e-07
-1.20576e-06
2.16987e-07
-1.23151e-06
1.90431e-07
-1.25361e-06
1.62204e-07
-1.27189e-06
1.32429e-07
-1.28616e-06
1.01249e-07
-1.29628e-06
6.88322e-08
-1.3021e-06
3.53665e-08
-1.30353e-06
1.06526e-09
-1.30047e-06
-3.3836e-08
-1.29287e-06
-6.90798e-08
-1.28071e-06
-1.04389e-07
-1.264e-06
-1.39467e-07
-1.24278e-06
-1.74002e-07
-1.21714e-06
-2.07672e-07
-1.18721e-06
-2.40144e-07
-1.15313e-06
-2.7108e-07
-1.11513e-06
-3.00144e-07
-1.07344e-06
-3.27005e-07
-1.02834e-06
-3.51341e-07
-9.80164e-07
-3.72849e-07
-9.29264e-07
-3.91247e-07
-8.7604e-07
-4.0628e-07
-8.20917e-07
-4.17731e-07
-7.6435e-07
-4.25418e-07
-7.06816e-07
-4.2921e-07
-6.48808e-07
-4.29021e-07
-5.90831e-07
-4.24824e-07
-5.33393e-07
-4.16649e-07
-4.76999e-07
-4.04587e-07
-4.22142e-07
-3.88795e-07
-3.69296e-07
-3.69493e-07
-3.18906e-07
-3.46967e-07
-2.71384e-07
-3.2157e-07
-2.27098e-07
-2.93718e-07
-1.86365e-07
-2.63888e-07
-1.49448e-07
-2.32621e-07
-1.16546e-07
-2.00514e-07
-8.77951e-08
-1.6822e-07
-6.3262e-08
-1.36443e-07
-4.29446e-08
-1.0594e-07
-2.67727e-08
-7.75142e-08
-1.46111e-08
-5.20161e-08
-6.26513e-09
-3.03373e-08
-1.48941e-09
-1.3414e-08
-2.23909e-09
-3.68815e-09
1.93453e-08
-1.40967e-08
5.94646e-08
-3.06124e-08
9.99494e-08
-5.26646e-08
1.39841e-07
-7.97203e-08
1.78413e-07
-1.1128e-07
2.15102e-07
-1.46873e-07
2.49477e-07
-1.86056e-07
2.81224e-07
-2.28407e-07
3.1013e-07
-2.73527e-07
3.36064e-07
-3.21034e-07
3.58961e-07
-3.70565e-07
3.78806e-07
-4.21769e-07
3.95624e-07
-4.74313e-07
4.09465e-07
-5.27872e-07
4.20393e-07
-5.82135e-07
4.28484e-07
-6.36799e-07
4.33814e-07
-6.91566e-07
4.36456e-07
-7.4615e-07
4.36478e-07
-8.00266e-07
4.33939e-07
-8.53634e-07
4.28891e-07
-9.0598e-07
4.21376e-07
-9.5703e-07
4.11431e-07
-1.00651e-06
3.99085e-07
-1.05417e-06
3.84368e-07
-1.09972e-06
3.67308e-07
-1.14292e-06
3.47935e-07
-1.1835e-06
3.26288e-07
-1.22121e-06
3.02413e-07
-1.25581e-06
2.76371e-07
-1.28706e-06
2.48236e-07
-1.31473e-06
2.18101e-07
-1.3386e-06
1.86081e-07
-1.35848e-06
1.5231e-07
-1.37418e-06
1.1695e-07
-1.38554e-06
8.01848e-08
-1.3924e-06
4.22258e-08
-1.39464e-06
3.30951e-09
-1.39217e-06
-3.6302e-08
-1.38493e-06
-7.63224e-08
-1.37288e-06
-1.16442e-07
-1.35601e-06
-1.56332e-07
-1.33437e-06
-1.95644e-07
-1.30803e-06
-2.34015e-07
-1.2771e-06
-2.71073e-07
-1.24174e-06
-3.0644e-07
-1.20215e-06
-3.39736e-07
-1.15857e-06
-3.70586e-07
-1.11128e-06
-3.98627e-07
-1.06062e-06
-4.23511e-07
-1.00695e-06
-4.44917e-07
-9.50675e-07
-4.62552e-07
-8.92244e-07
-4.76161e-07
-8.32128e-07
-4.85534e-07
-7.70827e-07
-4.9051e-07
-7.08863e-07
-4.90985e-07
-6.4677e-07
-4.86916e-07
-5.85092e-07
-4.78327e-07
-5.24371e-07
-4.65309e-07
-4.65139e-07
-4.48027e-07
-4.07911e-07
-4.2672e-07
-3.53179e-07
-4.017e-07
-3.01395e-07
-3.73354e-07
-2.52972e-07
-3.4214e-07
-2.08272e-07
-3.08588e-07
-1.676e-07
-2.73294e-07
-1.31196e-07
-2.36918e-07
-9.92358e-08
-2.0018e-07
-7.18233e-08
-1.63855e-07
-4.89916e-08
-1.28771e-07
-3.07034e-08
-9.58024e-08
-1.68535e-08
-6.5866e-08
-7.27458e-09
-3.99162e-08
-1.74505e-09
-1.89435e-08
-3.98414e-09
-4.01146e-09
2.33567e-08
-1.53041e-08
7.07573e-08
-3.31826e-08
1.17828e-07
-5.70001e-08
1.63658e-07
-8.61541e-08
2.07567e-07
-1.20083e-07
2.49031e-07
-1.58264e-07
2.87657e-07
-2.00204e-07
3.23164e-07
-2.45445e-07
3.55371e-07
-2.93553e-07
3.84172e-07
-3.4412e-07
4.09527e-07
-3.96759e-07
4.31445e-07
-4.51103e-07
4.49968e-07
-5.068e-07
4.65162e-07
-5.63515e-07
4.77108e-07
-6.20926e-07
4.85895e-07
-6.78719e-07
4.91607e-07
-7.36591e-07
4.94329e-07
-7.94247e-07
4.94134e-07
-8.51396e-07
4.91088e-07
-9.07752e-07
4.85247e-07
-9.63033e-07
4.76658e-07
-1.01696e-06
4.65359e-07
-1.06926e-06
4.51384e-07
-1.11965e-06
4.34763e-07
-1.16787e-06
4.15528e-07
-1.21365e-06
3.93711e-07
-1.25672e-06
3.69356e-07
-1.29682e-06
3.42513e-07
-1.3337e-06
3.13249e-07
-1.36711e-06
2.81645e-07
-1.39681e-06
2.47804e-07
-1.42258e-06
2.1185e-07
-1.4442e-06
1.73934e-07
-1.46148e-06
1.34231e-07
-1.47424e-06
9.29435e-08
-1.48232e-06
5.03033e-08
-1.48558e-06
6.57032e-09
-1.48391e-06
-3.79674e-08
-1.47724e-06
-8.29945e-08
-1.46551e-06
-1.2817e-07
-1.44872e-06
-1.7313e-07
-1.42687e-06
-2.1749e-07
-1.40004e-06
-2.60848e-07
-1.36832e-06
-3.0279e-07
-1.33187e-06
-3.42894e-07
-1.29087e-06
-3.80735e-07
-1.24556e-06
-4.15893e-07
-1.19623e-06
-4.47958e-07
-1.1432e-06
-4.76538e-07
-1.08686e-06
-5.01266e-07
-1.0276e-06
-5.21805e-07
-9.65901e-07
-5.37863e-07
-9.02243e-07
-5.49192e-07
-8.37154e-07
-5.556e-07
-7.71181e-07
-5.56958e-07
-7.04893e-07
-5.53204e-07
-6.3887e-07
-5.44351e-07
-5.73692e-07
-5.30487e-07
-5.09936e-07
-5.11783e-07
-4.48164e-07
-4.88492e-07
-3.88912e-07
-4.60952e-07
-3.32683e-07
-4.29582e-07
-2.7994e-07
-3.94884e-07
-2.3109e-07
-3.57437e-07
-1.86488e-07
-3.17897e-07
-1.46419e-07
-2.76986e-07
-1.11103e-07
-2.35496e-07
-8.0684e-08
-1.94274e-07
-5.52331e-08
-1.54222e-07
-3.47471e-08
-1.16288e-07
-1.91511e-08
-8.1462e-08
-8.30375e-09
-5.07636e-08
-2.0038e-09
-2.52434e-08
-5.98794e-09
-4.32236e-09
2.76791e-08
-1.64664e-08
8.29013e-08
-3.56589e-08
1.3702e-07
-6.11807e-08
1.8918e-07
-9.23634e-08
2.3875e-07
-1.28586e-07
2.85254e-07
-1.69274e-07
3.28344e-07
-2.1389e-07
3.6778e-07
-2.61936e-07
4.03417e-07
-3.12947e-07
4.35183e-07
-3.66488e-07
4.63068e-07
-4.2215e-07
4.87107e-07
-4.79547e-07
5.07365e-07
-5.38314e-07
5.23929e-07
-5.98103e-07
5.36898e-07
-6.58582e-07
5.46373e-07
-7.1943e-07
5.52455e-07
-7.80336e-07
5.55235e-07
-8.40998e-07
5.54796e-07
-9.01121e-07
5.51211e-07
-9.60414e-07
5.4454e-07
-1.01859e-06
5.34834e-07
-1.07537e-06
5.22135e-07
-1.13046e-06
5.06479e-07
-1.1836e-06
4.87897e-07
-1.23449e-06
4.66424e-07
-1.28288e-06
4.42095e-07
-1.32848e-06
4.14956e-07
-1.37102e-06
3.85062e-07
-1.41026e-06
3.52483e-07
-1.44593e-06
3.1731e-07
-1.47777e-06
2.79653e-07
-1.50557e-06
2.39647e-07
-1.52909e-06
1.97453e-07
-1.54812e-06
1.53261e-07
-1.56247e-06
1.07292e-07
-1.57196e-06
5.97972e-08
-1.57645e-06
1.10583e-08
-1.57581e-06
-3.86112e-08
-1.56993e-06
-8.88675e-08
-1.55877e-06
-1.39339e-07
-1.54227e-06
-1.89626e-07
-1.52045e-06
-2.39308e-07
-1.49336e-06
-2.87942e-07
-1.46108e-06
-3.35072e-07
-1.42374e-06
-3.8023e-07
-1.38153e-06