/*--------------------------------*- C++ -*----------------------------------*\
  =========                 |
  \\      /  F ield         | OpenFOAM: The Open Source CFD Toolbox
   \\    /   O peration     | Website:  https://openfoam.org
    \\  /    A nd           | Version:  12
     \\/     M anipulation  |
\*---------------------------------------------------------------------------*/
FoamFile
{
    format      ascii;
    class       volVectorField;
    location    "1";
    object      U;
}
// * * * * * * * * * * * * * * * * * * * * * * * * * * * * * * * * * * * * * //

dimensions      [0 1 -1 0 0 0 0];

internalField   nonuniform List<vector> 
5625
(
(8.94872e-06 -8.54215e-06 0)
(4.00061e-05 -1.21761e-05 0)
(6.96471e-05 -1.04513e-05 0)
(8.41679e-05 -6.28315e-06 0)
(7.4647e-05 -1.4496e-06 0)
(3.80705e-05 3.4516e-06 0)
(-2.56781e-05 8.08666e-06 0)
(-0.000115291 1.22836e-05 0)
(-0.000228701 1.59778e-05 0)
(-0.000363467 1.91641e-05 0)
(-0.000517017 2.18666e-05 0)
(-0.000686795 2.41234e-05 0)
(-0.000870344 2.59774e-05 0)
(-0.00106535 2.74718e-05 0)
(-0.00126966 2.86473e-05 0)
(-0.00148128 2.95403e-05 0)
(-0.00169837 3.01826e-05 0)
(-0.00191925 3.06007e-05 0)
(-0.00214234 3.08158e-05 0)
(-0.00236614 3.0844e-05 0)
(-0.00258928 3.06968e-05 0)
(-0.00281039 3.03815e-05 0)
(-0.00302817 2.99014e-05 0)
(-0.00324134 2.9257e-05 0)
(-0.00344861 2.84461e-05 0)
(-0.0036487 2.7465e-05 0)
(-0.00384032 2.63085e-05 0)
(-0.00402217 2.49711e-05 0)
(-0.00419294 2.34477e-05 0)
(-0.00435129 2.17336e-05 0)
(-0.00449592 1.98258e-05 0)
(-0.00462552 1.77233e-05 0)
(-0.0047388 1.54275e-05 0)
(-0.00483453 1.29426e-05 0)
(-0.00491154 1.02756e-05 0)
(-0.00496873 7.43702e-06 0)
(-0.00500513 4.44303e-06 0)
(-0.00501988 1.32207e-06 0)
(-0.00501231 -1.92233e-06 0)
(-0.00498187 -5.24626e-06 0)
(-0.00492824 -8.62458e-06 0)
(-0.00485135 -1.20215e-05 0)
(-0.00475132 -1.53984e-05 0)
(-0.00462856 -1.87142e-05 0)
(-0.00448374 -2.19255e-05 0)
(-0.00431781 -2.49875e-05 0)
(-0.00413199 -2.78549e-05 0)
(-0.00392781 -3.04825e-05 0)
(-0.00370703 -3.28263e-05 0)
(-0.00347171 -3.48446e-05 0)
(-0.00322413 -3.64989e-05 0)
(-0.0029668 -3.77548e-05 0)
(-0.00270242 -3.85828e-05 0)
(-0.00243384 -3.89596e-05 0)
(-0.00216402 -3.88681e-05 0)
(-0.00189601 -3.82982e-05 0)
(-0.00163289 -3.72474e-05 0)
(-0.00137771 -3.57206e-05 0)
(-0.00113346 -3.37304e-05 0)
(-0.000903016 -3.12967e-05 0)
(-0.000689086 -2.84466e-05 0)
(-0.000494163 -2.5214e-05 0)
(-0.00032048 -2.16396e-05 0)
(-0.000169955 -1.77704e-05 0)
(-4.41405e-05 -1.36613e-05 0)
(5.5837e-05 -9.3771e-06 0)
(0.000129352 -4.99265e-06 0)
(0.000176382 -6.06459e-07 0)
(0.000197643 3.64829e-06 0)
(0.000194808 7.57642e-06 0)
(0.000170809 1.08813e-05 0)
(0.000130321 1.31171e-05 0)
(8.08314e-05 1.35756e-05 0)
(3.45372e-05 1.08688e-05 0)
(4.38063e-06 4.3793e-06 0)
(1.30972e-05 -4.01533e-05 0)
(5.9729e-05 -5.87785e-05 0)
(8.93741e-05 -3.88763e-05 0)
(7.67713e-05 1.86185e-06 0)
(4.4719e-06 5.22258e-05 0)
(-0.000134669 0.000105596 0)
(-0.000341961 0.000158062 0)
(-0.00061525 0.000207398 0)
(-0.000950273 0.000252414 0)
(-0.00134155 0.000292561 0)
(-0.001783 0.000327683 0)
(-0.00226833 0.000357853 0)
(-0.0027913 0.000383283 0)
(-0.00334589 0.000404251 0)
(-0.00392635 0.000421063 0)
(-0.00452727 0.000434022 0)
(-0.00514356 0.000443412 0)
(-0.00577044 0.000449485 0)
(-0.00640344 0.000452455 0)
(-0.00703828 0.000452495 0)
(-0.0076709 0.000449737 0)
(-0.00829737 0.000444276 0)
(-0.00891388 0.000436169 0)
(-0.00951669 0.00042545 0)
(-0.0101021 0.000412124 0)
(-0.0106663 0.000396184 0)
(-0.0112057 0.000377612 0)
(-0.0117166 0.00035639 0)
(-0.0121953 0.000332504 0)
(-0.012638 0.000305954 0)
(-0.0130412 0.000276758 0)
(-0.0134011 0.000244961 0)
(-0.0137145 0.000210638 0)
(-0.0139779 0.0001739 0)
(-0.0141882 0.000134898 0)
(-0.0143425 9.38215e-05 0)
(-0.0144383 5.09105e-05 0)
(-0.0144733 6.53538e-06 0)
(-0.014446 -3.91103e-05 0)
(-0.014355 -8.556e-05 0)
(-0.0141995 -0.0001324 0)
(-0.0139796 -0.000179169 0)
(-0.0136958 -0.000225366 0)
(-0.0133493 -0.000270464 0)
(-0.0129421 -0.000313916 0)
(-0.012477 -0.000355162 0)
(-0.0119574 -0.000393641 0)
(-0.0113874 -0.000428799 0)
(-0.0107721 -0.000460103 0)
(-0.010117 -0.000487051 0)
(-0.0094283 -0.000509181 0)
(-0.00871286 -0.000526086 0)
(-0.00797797 -0.000537423 0)
(-0.00723131 -0.00054292 0)
(-0.00648087 -0.000542386 0)
(-0.00573484 -0.00053572 0)
(-0.00500146 -0.000522911 0)
(-0.00428892 -0.000504045 0)
(-0.00360521 -0.000479308 0)
(-0.00295799 -0.000448984 0)
(-0.00235448 -0.000413456 0)
(-0.00180129 -0.000373206 0)
(-0.00130429 -0.000328819 0)
(-0.00086849 -0.000280983 0)
(-0.000497843 -0.000230502 0)
(-0.000195119 -0.000178321 0)
(3.83184e-05 -0.000125551 0)
(0.000202759 -7.35451e-05 0)
(0.000300473 -2.39941e-05 0)
(0.000336147 2.09111e-05 0)
(0.000317443 5.82421e-05 0)
(0.000255754 8.39989e-05 0)
(0.000167676 9.27288e-05 0)
(7.76312e-05 7.7678e-05 0)
(1.07814e-05 3.44437e-05 0)
(1.15723e-05 -7.08042e-05 0)
(4.06111e-05 -8.90336e-05 0)
(2.93877e-05 -2.7625e-05 0)
(-5.08637e-05 7.84706e-05 0)
(-0.000219889 0.00020702 0)
(-0.000486692 0.000343704 0)
(-0.000853388 0.000479361 0)
(-0.0013175 0.000608327 0)
(-0.00187352 0.000727276 0)
(-0.00251403 0.000834432 0)
(-0.00323052 0.000929032 0)
(-0.00401399 0.00101096 0)
(-0.0048553 0.0010805 0)
(-0.00574546 0.00113819 0)
(-0.00667577 0.00118466 0)
(-0.00763791 0.00122058 0)
(-0.00862398 0.00124662 0)
(-0.00962644 0.00126337 0)
(-0.0106382 0.00127135 0)
(-0.0116523 0.001271 0)
(-0.0126624 0.00126266 0)
(-0.013662 0.00124657 0)
(-0.014645 0.00122292 0)
(-0.0156052 0.00119179 0)
(-0.0165368 0.00115324 0)
(-0.0174337 0.00110728 0)
(-0.01829 0.0010539 0)
(-0.0190998 0.000993089 0)
(-0.0198573 0.000924863 0)
(-0.0205566 0.000849265 0)
(-0.021192 0.000766396 0)
(-0.0217579 0.000676424 0)
(-0.0222491 0.000579602 0)
(-0.0226603 0.000476279 0)
(-0.0229868 0.00036691 0)
(-0.0232242 0.000252063 0)
(-0.0233689 0.000132432 0)
(-0.0234175 8.85531e-06 0)
(-0.0233675 -0.000117764 0)
(-0.0232173 -0.000246367 0)
(-0.0229658 -0.000375783 0)
(-0.0226133 -0.000504748 0)
(-0.0221607 -0.000631909 0)
(-0.0216101 -0.000755847 0)
(-0.0209648 -0.00087509 0)
(-0.0202292 -0.000988144 0)
(-0.0194086 -0.00109351 0)
(-0.0185098 -0.00118973 0)
(-0.0175402 -0.00127538 0)
(-0.0165087 -0.00134913 0)
(-0.0154248 -0.00140978 0)
(-0.014299 -0.00145624 0)
(-0.0131425 -0.00148763 0)
(-0.0119672 -0.00150323 0)
(-0.0107853 -0.00150255 0)
(-0.00960922 -0.00148533 0)
(-0.00845167 -0.00145158 0)
(-0.00732511 -0.00140154 0)
(-0.00624174 -0.00133572 0)
(-0.00521323 -0.00125492 0)
(-0.00425056 -0.00116019 0)
(-0.00336376 -0.00105288 0)
(-0.00256171 -0.0009346 0)
(-0.00185193 -0.000807267 0)
(-0.00124032 -0.000673119 0)
(-0.000730918 -0.000534764 0)
(-0.0003256 -0.000395261 0)
(-2.37423e-05 -0.000258249 0)
(0.000178202 -0.000128142 0)
(0.000287203 -1.04114e-05 0)
(0.000314243 8.80253e-05 0)
(0.000274991 0.000158345 0)
(0.000191146 0.000189381 0)
(9.33613e-05 0.000167791 0)
(1.34659e-05 8.06171e-05 0)
(7.40403e-06 -8.67259e-05 0)
(-4.24785e-07 -7.71067e-05 0)
(-7.8288e-05 5.26961e-05 0)
(-0.000253515 0.000252011 0)
(-0.000544052 0.000487679 0)
(-0.000958564 0.000737257 0)
(-0.00149893 0.000985636 0)
(-0.00216207 0.00122298 0)
(-0.00294142 0.00144318 0)
(-0.00382811 0.00164272 0)
(-0.00481184 0.00181985 0)
(-0.0058815 0.00197402 0)
(-0.00702572 0.00210546 0)
(-0.00823313 0.00221487 0)
(-0.00949259 0.00230322 0)
(-0.0107933 0.00237158 0)
(-0.012125 0.00242104 0)
(-0.0134777 0.00245262 0)
(-0.014842 0.00246721 0)
(-0.0162086 0.00246557 0)
(-0.0175687 0.00244831 0)
(-0.0189138 0.00241589 0)
(-0.0202356 0.00236864 0)
(-0.0215257 0.00230677 0)
(-0.0227761 0.0022304 0)
(-0.0239787 0.0021396 0)
(-0.0251255 0.00203441 0)
(-0.0262088 0.00191486 0)
(-0.0272205 0.00178103 0)
(-0.0281531 0.00163309 0)
(-0.028999 0.00147127 0)
(-0.0297509 0.00129598 0)
(-0.0304017 0.00110775 0)
(-0.0309449 0.000907307 0)
(-0.0313742 0.000695569 0)
(-0.0316843 0.00047367 0)
(-0.0318702 0.000242967 0)
(-0.031928 5.05014e-06 0)
(-0.0318545 -0.000238298 0)
(-0.0316477 -0.000485063 0)
(-0.0313066 -0.000733028 0)
(-0.0308315 -0.000979797 0)
(-0.030224 -0.00122282 0)
(-0.0294871 -0.00145944 0)
(-0.0286252 -0.00168689 0)
(-0.027644 -0.00190239 0)
(-0.0265508 -0.00210315 0)
(-0.0253543 -0.00228643 0)
(-0.0240646 -0.00244961 0)
(-0.0226929 -0.00259024 0)
(-0.0212518 -0.00270606 0)
(-0.0197551 -0.0027951 0)
(-0.0182171 -0.0028557 0)
(-0.0166533 -0.00288657 0)
(-0.0150795 -0.00288679 0)
(-0.0135119 -0.00285593 0)
(-0.0119668 -0.00279398 0)
(-0.0104603 -0.00270144 0)
(-0.00900829 -0.0025793 0)
(-0.00762578 -0.00242907 0)
(-0.00632693 -0.00225277 0)
(-0.00512469 -0.00205295 0)
(-0.0040305 -0.00183269 0)
(-0.00305401 -0.00159567 0)
(-0.00220279 -0.00134612 0)
(-0.00148197 -0.001089 0)
(-0.000893961 -0.000830054 0)
(-0.000438008 -0.000576006 0)
(-0.000109781 -0.000334838 0)
(9.91214e-05 -0.000116153 0)
(0.000201688 6.83586e-05 0)
(0.000216044 0.000204379 0)
(0.000166636 0.000274478 0)
(8.71594e-05 0.000257857 0)
(1.31815e-05 0.000130671 0)
(2.35864e-06 -7.804e-05 0)
(-5.28118e-05 -3.7356e-06 0)
(-0.000213078 0.000224714 0)
(-0.000501379 0.000544286 0)
(-0.00093097 0.00091238 0)
(-0.00150836 0.0012991 0)
(-0.00223407 0.00168357 0)
(-0.00310382 0.00205169 0)
(-0.00410981 0.00239432 0)
(-0.00524181 0.00270595 0)
(-0.00648797 0.0029836 0)
(-0.0078355 0.00322609 0)
(-0.00927118 0.00343343 0)
(-0.0107817 0.00360641 0)
(-0.0123539 0.00374625 0)
(-0.013975 0.00385442 0)
(-0.0156324 0.00393243 0)
(-0.0173143 0.00398172 0)
(-0.0190089 0.00400359 0)
(-0.0207052 0.00399915 0)
(-0.0223921 0.00396933 0)
(-0.0240592 0.00391481 0)
(-0.025696 0.00383612 0)
(-0.0272924 0.00373362 0)
(-0.0288383 0.00360754 0)
(-0.0303237 0.00345803 0)
(-0.0317389 0.00328522 0)
(-0.0330741 0.00308924 0)
(-0.0343198 0.00287031 0)
(-0.0354665 0.00262876 0)
(-0.0365051 0.00236507 0)
(-0.0374266 0.00207994 0)
(-0.0382228 0.00177434 0)
(-0.0388857 0.00144948 0)
(-0.039408 0.0011069 0)
(-0.0397831 0.000748472 0)
(-0.0400054 0.000376403 0)
(-0.0400702 -6.75334e-06 0)
(-0.039974 -0.000398111 0)
(-0.0397144 -0.000794454 0)
(-0.0392906 -0.00119226 0)
(-0.0387031 -0.00158773 0)
(-0.037954 -0.00197686 0)
(-0.0370471 -0.00235542 0)
(-0.0359876 -0.00271911 0)
(-0.0347829 -0.00306354 0)
(-0.0334417 -0.00338435 0)
(-0.0319744 -0.00367727 0)
(-0.0303932 -0.00393821 0)
(-0.0287119 -0.00416334 0)
(-0.0269453 -0.00434916 0)
(-0.02511 -0.0044926 0)
(-0.0232232 -0.00459107 0)
(-0.0213034 -0.00464256 0)
(-0.0193695 -0.00464569 0)
(-0.0174408 -0.00459977 0)
(-0.0155369 -0.00450482 0)
(-0.0136771 -0.00436163 0)
(-0.0118802 -0.00417181 0)
(-0.0101642 -0.00393773 0)
(-0.00854608 -0.00366261 0)
(-0.00704134 -0.00335052 0)
(-0.00566365 -0.00300634 0)
(-0.00442457 -0.00263589 0)
(-0.0033332 -0.0022459 0)
(-0.00239578 -0.00184415 0)
(-0.00161537 -0.0014396 0)
(-0.000991384 -0.00104261 0)
(-0.000519243 -0.000665253 0)
(-0.000189884 -0.000321709 0)
(1.06478e-05 -2.8787e-05 0)
(0.000101652 0.00019349 0)
(0.000108751 0.000321286 0)
(6.63614e-05 0.000326157 0)
(1.1389e-05 0.00017355 0)
(-2.89644e-06 -4.08133e-05 0)
(-0.000110512 0.000141022 0)
(-0.000362273 0.00050177 0)
(-0.000775034 0.000969684 0)
(-0.00135547 0.0014947 0)
(-0.00210655 0.00204065 0)
(-0.00302641 0.00258153 0)
(-0.00410892 0.00309927 0)
(-0.00534468 0.00358181 0)
(-0.00672196 0.00402159 0)
(-0.00822745 0.00441431 0)
(-0.00984683 0.00475805 0)
(-0.0115653 0.00505251 0)
(-0.0133679 0.00529847 0)
(-0.0152397 0.00549737 0)
(-0.0171661 0.005651 0)
(-0.019133 0.00576127 0)
(-0.0211264 0.00583004 0)
(-0.023133 0.00585901 0)
(-0.0251397 0.00584966 0)
(-0.0271337 0.00580322 0)
(-0.0291028 0.00572067 0)
(-0.0310347 0.00560271 0)
(-0.0329174 0.0054499 0)
(-0.0347391 0.00526259 0)
(-0.0364882 0.00504108 0)
(-0.0381532 0.00478561 0)
(-0.0397227 0.00449649 0)
(-0.0411855 0.00417409 0)
(-0.0425308 0.00381902 0)
(-0.0437479 0.00343206 0)
(-0.0448266 0.00301435 0)
(-0.0457573 0.00256735 0)
(-0.0465309 0.00209291 0)
(-0.0471391 0.00159334 0)
(-0.0475745 0.00107138 0)
(-0.0478307 0.000530281 0)
(-0.0479025 -2.62596e-05 0)
(-0.047786 -0.00059406 0)
(-0.0474788 -0.00116849 0)
(-0.0469799 -0.00174449 0)
(-0.0462902 -0.00231666 0)
(-0.0454122 -0.00287924 0)
(-0.0443503 -0.00342627 0)
(-0.0431109 -0.0039516 0)
(-0.0417021 -0.00444904 0)
(-0.0401342 -0.0049124 0)
(-0.0384193 -0.00533567 0)
(-0.0365712 -0.00571305 0)
(-0.0346057 -0.00603913 0)
(-0.0325398 -0.00630899 0)
(-0.0303924 -0.00651828 0)
(-0.0281833 -0.00666337 0)
(-0.0259335 -0.00674142 0)
(-0.0236645 -0.0067505 0)
(-0.0213986 -0.00668961 0)
(-0.0191581 -0.00655882 0)
(-0.0169649 -0.00635927 0)
(-0.0148407 -0.00609322 0)
(-0.0128061 -0.00576409 0)
(-0.0108805 -0.00537647 0)
(-0.00908181 -0.00493616 0)
(-0.0074257 -0.00445014 0)
(-0.00592556 -0.00392668 0)
(-0.00459199 -0.00337536 0)
(-0.00343243 -0.00280716 0)
(-0.00245077 -0.00223465 0)
(-0.00164698 -0.00167219 0)
(-0.00101669 -0.00113627 0)
(-0.000550843 -0.00064588 0)
(-0.00023532 -0.0002231 0)
(-5.06125e-05 0.000106337 0)
(2.88983e-05 0.000312313 0)
(3.65805e-05 0.000359152 0)
(8.82057e-06 0.000203108 0)
(-8.07139e-06 2.63539e-05 0)
(-0.000170167 0.000361971 0)
(-0.000518101 0.000891338 0)
(-0.00106186 0.00153709 0)
(-0.00180045 0.00224372 0)
(-0.0027323 0.00297011 0)
(-0.00385237 0.00368607 0)
(-0.00515204 0.00437009 0)
(-0.00661991 0.00500751 0)
(-0.00824253 0.00558887 0)
(-0.010005 0.00610862 0)
(-0.0118916 0.00656407 0)
(-0.0138861 0.00695459 0)
(-0.0159718 0.00728091 0)
(-0.0181326 0.00754463 0)
(-0.0203523 0.00774784 0)
(-0.022615 0.00789281 0)
(-0.0249054 0.0079818 0)
(-0.0272084 0.0080169 0)
(-0.0295094 0.00799995 0)
(-0.031794 0.0079325 0)
(-0.0340482 0.00781578 0)
(-0.0362583 0.00765075 0)
(-0.0384106 0.00743814 0)
(-0.0404919 0.00717847 0)
(-0.0424888 0.00687221 0)
(-0.0443884 0.00651978 0)
(-0.0461778 0.00612166 0)
(-0.0478445 0.0056785 0)
(-0.0493761 0.00519121 0)
(-0.0507609 0.004661 0)
(-0.0519874 0.00408948 0)
(-0.0530448 0.00347874 0)
(-0.0539231 0.00283139 0)
(-0.0546131 0.00215062 0)
(-0.0551066 0.0014402 0)
(-0.0553966 0.000704548 0)
(-0.0554774 -5.13074e-05 0)
(-0.0553447 -0.000821723 0)
(-0.0549961 -0.00160047 0)
(-0.0544305 -0.00238078 0)
(-0.053649 -0.00315541 0)
(-0.0526545 -0.00391671 0)
(-0.051452 -0.00465671 0)
(-0.0500485 -0.00536728 0)
(-0.0484534 -0.00604015 0)
(-0.0466778 -0.00666716 0)
(-0.0447352 -0.0072403 0)
(-0.042641 -0.00775191 0)
(-0.0404127 -0.00819482 0)
(-0.0380691 -0.0085625 0)
(-0.0356312 -0.00884921 0)
(-0.0331209 -0.00905011 0)
(-0.0305615 -0.00916145 0)
(-0.027977 -0.00918064 0)
(-0.0253919 -0.00910637 0)
(-0.0228311 -0.0089387 0)
(-0.0203191 -0.00867916 0)
(-0.0178799 -0.00833073 0)
(-0.0155367 -0.00789796 0)
(-0.0133112 -0.00738696 0)
(-0.0112232 -0.00680543 0)
(-0.00929074 -0.00616267 0)
(-0.00752881 -0.00546965 0)
(-0.00594965 -0.00473905 0)
(-0.00456203 -0.00398536 0)
(-0.00337092 -0.00322502 0)
(-0.00237716 -0.00247664 0)
(-0.00157706 -0.00176131 0)
(-0.000962099 -0.001103 0)
(-0.000518665 -0.000529032 0)
(-0.000227773 -7.07486e-05 0)
(-6.47026e-05 0.000235776 0)
(1.62661e-06 0.000348388 0)
(5.90962e-06 0.000216004 0)
(-1.30502e-05 0.000123705 0)
(-0.000229952 0.000661052 0)
(-0.000675872 0.00139715 0)
(-0.00135376 0.00225144 0)
(-0.0022544 0.00316482 0)
(-0.00337107 0.00409259 0)
(-0.00469494 0.00500135 0)
(-0.00621439 0.00586689 0)
(-0.00791563 0.00667239 0)
(-0.00978323 0.0074068 0)
(-0.0118006 0.0080635 0)
(-0.0139506 0.00863914 0)
(-0.0162153 0.00913277 0)
(-0.0185769 0.00954509 0)
(-0.0210179 0.00987785 0)
(-0.0235206 0.0101334 0)
(-0.0260679 0.0103144 0)
(-0.028643 0.0104234 0)
(-0.0312294 0.010463 0)
(-0.0338112 0.0104353 0)
(-0.0363725 0.0103421 0)
(-0.0388979 0.010185 0)
(-0.0413722 0.00996514 0)
(-0.0437804 0.0096835 0)
(-0.0461078 0.00934078 0)
(-0.0483396 0.00893762 0)
(-0.0504617 0.00847466 0)
(-0.0524598 0.00795264 0)
(-0.05432 0.0073725 0)
(-0.056029 0.00673552 0)
(-0.0575736 0.0060434 0)
(-0.0589415 0.00529834 0)
(-0.0601207 0.00450314 0)
(-0.0611004 0.00366126 0)
(-0.0618706 0.00277689 0)
(-0.0624224 0.00185495 0)
(-0.0627481 0.000901155 0)
(-0.0628417 -7.79952e-05 0)
(-0.0626986 -0.00107525 0)
(-0.0623159 -0.00208263 0)
(-0.0616928 -0.00309149 0)
(-0.0608303 -0.00409258 0)
(-0.0597317 -0.00507617 0)
(-0.0584023 -0.00603215 0)
(-0.0568499 -0.00695016 0)
(-0.0550843 -0.00781975 0)
(-0.0531179 -0.00863053 0)
(-0.0509652 -0.00937238 0)
(-0.0486428 -0.0100356 0)
(-0.0461696 -0.010611 0)
(-0.0435662 -0.0110904 0)
(-0.0408552 -0.0114665 0)
(-0.0380604 -0.0117331 0)
(-0.0352072 -0.0118854 0)
(-0.0323217 -0.0119201 0)
(-0.0294307 -0.0118356 0)
(-0.0265612 -0.0116317 0)
(-0.0237402 -0.0113105 0)
(-0.020994 -0.0108756 0)
(-0.018348 -0.0103329 0)
(-0.0158261 -0.00968997 0)
(-0.0134505 -0.0089566 0)
(-0.011241 -0.00814459 0)
(-0.00921462 -0.00726777 0)
(-0.00738522 -0.00634213 0)
(-0.00576314 -0.00538586 0)
(-0.00435469 -0.00441947 0)
(-0.00316192 -0.00346599 0)
(-0.0021822 -0.00255125 0)
(-0.00140804 -0.0017042 0)
(-0.000826829 -0.000957381 0)
(-0.000420687 -0.000347533 0)
(-0.00016643 8.37474e-05 0)
(-3.60386e-05 0.00028866 0)
(2.91682e-06 0.000210465 0)
(-1.77969e-05 0.000250871 0)
(-0.000288882 0.00103846 0)
(-0.000832794 0.00202042 0)
(-0.00164557 0.00311484 0)
(-0.00270966 0.00426057 0)
(-0.00401278 0.00541065 0)
(-0.00554193 0.00652946 0)
(-0.00728211 0.00759085 0)
(-0.00921679 0.00857643 0)
(-0.0113283 0.00947397 0)
(-0.0135984 0.010276 0)
(-0.0160079 0.0109788 0)
(-0.0185379 0.0115811 0)
(-0.0211692 0.0120836 0)
(-0.0238828 0.0124883 0)
(-0.0266599 0.0127979 0)
(-0.0294822 0.0130153 0)
(-0.0323317 0.0131434 0)
(-0.0351908 0.0131852 0)
(-0.038042 0.0131431 0)
(-0.0408685 0.0130193 0)
(-0.0436534 0.0128155 0)
(-0.0463805 0.0125333 0)
(-0.0490333 0.0121738 0)
(-0.051596 0.0117378 0)
(-0.0540527 0.0112262 0)
(-0.0563878 0.01064 0)
(-0.058586 0.00998008 0)
(-0.0606323 0.00924782 0)
(-0.0625122 0.0084449 0)
(-0.0642116 0.00757356 0)
(-0.0657171 0.00663667 0)
(-0.0670159 0.0056378 0)
(-0.0680962 0.00458137 0)
(-0.0689474 0.00347264 0)
(-0.0695598 0.0023178 0)
(-0.0699253 0.00112398 0)
(-0.0700372 -0.000100758 0)
(-0.0698907 -0.00134742 0)
(-0.0694827 -0.00260615 0)
(-0.0688121 -0.00386628 0)
(-0.06788 -0.00511643 0)
(-0.0666897 -0.00634464 0)
(-0.065247 -0.00753848 0)
(-0.0635598 -0.00868525 0)
(-0.0616388 -0.0097721 0)
(-0.0594969 -0.0107863 0)
(-0.0571495 -0.0117154 0)
(-0.0546144 -0.0125475 0)
(-0.0519115 -0.0132715 0)
(-0.049063 -0.013877 0)
(-0.0460929 -0.0143551 0)
(-0.0430268 -0.0146982 0)
(-0.0398917 -0.0149003 0)
(-0.0367158 -0.0149573 0)
(-0.033528 -0.014867 0)
(-0.0303574 -0.0146293 0)
(-0.0272332 -0.0142465 0)
(-0.024184 -0.013723 0)
(-0.0212375 -0.0130659 0)
(-0.0184198 -0.0122845 0)
(-0.0157553 -0.0113906 0)
(-0.0132658 -0.0103986 0)
(-0.0109704 -0.00932546 0)
(-0.00888488 -0.00819053 0)
(-0.00702134 -0.00701587 0)
(-0.00538771 -0.00582619 0)
(-0.00398755 -0.00464907 0)
(-0.00281966 -0.00351512 0)
(-0.00187796 -0.00245828 0)
(-0.00115127 -0.00151625 0)
(-0.000623245 -0.00073091 0)
(-0.000272643 -0.000148951 0)
(-7.49058e-05 0.000176939 0)
(-2.21738e-08 0.000185685 0)
(-2.23158e-05 0.000407182 0)
(-0.000346454 0.00149333 0)
(-0.000987224 0.00276068 0)
(-0.00193406 0.00412736 0)
(-0.00316112 0.00553145 0)
(-0.00465045 0.00692485 0)
(-0.00638462 0.00827073 0)
(-0.00834497 0.00954179 0)
(-0.010512 0.0107187 0)
(-0.0128657 0.0117884 0)
(-0.0153856 0.0127431 0)
(-0.0180511 0.0135788 0)
(-0.0208417 0.0142941 0)
(-0.0237368 0.01489 0)
(-0.0267164 0.0153686 0)
(-0.0297605 0.0157329 0)
(-0.0328497 0.0159863 0)
(-0.0359648 0.016132 0)
(-0.0390872 0.0161733 0)
(-0.0421984 0.016113 0)
(-0.0452804 0.0159536 0)
(-0.0483154 0.015697 0)
(-0.0512858 0.0153451 0)
(-0.0541743 0.0148991 0)
(-0.0569639 0.0143602 0)
(-0.0596375 0.0137295 0)
(-0.0621786 0.013008 0)
(-0.0645709 0.0121973 0)
(-0.0667983 0.0112988 0)
(-0.0688452 0.0103149 0)
(-0.0706967 0.00924834 0)
(-0.0723385 0.00810269 0)
(-0.0737569 0.0068824 0)
(-0.0749394 0.00559288 0)
(-0.0758745 0.00424056 0)
(-0.076552 0.00283296 0)
(-0.0769631 0.00137872 0)
(-0.0771007 -0.000112433 0)
(-0.0769595 -0.00162968 0)
(-0.0765359 -0.00316117 0)
(-0.0758288 -0.00469411 0)
(-0.074839 -0.00621487 0)
(-0.0735698 -0.00770912 0)
(-0.0720271 -0.009162 0)
(-0.0702192 -0.0105583 0)
(-0.0681569 -0.0118827 0)
(-0.0658537 -0.0131198 0)
(-0.0633257 -0.0142549 0)
(-0.0605915 -0.0152736 0)
(-0.0576721 -0.0161624 0)
(-0.0545907 -0.0169092 0)
(-0.0513727 -0.0175029 0)
(-0.0480453 -0.0179344 0)
(-0.0446371 -0.0181965 0)
(-0.0411782 -0.0182839 0)
(-0.0376993 -0.0181941 0)
(-0.0342318 -0.0179266 0)
(-0.030807 -0.017484 0)
(-0.0274556 -0.0168715 0)
(-0.0242078 -0.0160972 0)
(-0.0210919 -0.0151723 0)
(-0.0181346 -0.0141107 0)
(-0.01536 -0.0129295 0)
(-0.0127894 -0.0116487 0)
(-0.0104408 -0.0102912 0)
(-0.00832803 -0.008883 0)
(-0.00646114 -0.00745322 0)
(-0.00484545 -0.00603399 0)
(-0.00348155 -0.00466076 0)
(-0.00236508 -0.00337249 0)
(-0.00148663 -0.00221188 0)
(-0.000831666 -0.00122579 0)
(-0.000381161 -0.000465643 0)
(-0.000114118 1.16044e-05 0)
(-2.84296e-06 0.000141422 0)
(-2.6623e-05 0.000591817 0)
(-0.000402416 0.00202419 0)
(-0.0011382 0.0036164 0)
(-0.00221716 0.00528763 0)
(-0.00360538 0.00697628 0)
(-0.00527924 0.00863414 0)
(-0.00721674 0.010224 0)
(-0.00939542 0.0117183 0)
(-0.0117926 0.0130972 0)
(-0.0143858 0.0143476 0)
(-0.0171523 0.0154615 0)
(-0.0200698 0.0164349 0)
(-0.0231162 0.0172668 0)
(-0.0262699 0.0179584 0)
(-0.0295094 0.0185121 0)
(-0.0328138 0.0189312 0)
(-0.0361626 0.0192196 0)
(-0.0395358 0.019381 0)
(-0.0429136 0.0194188 0)
(-0.0462768 0.0193363 0)
(-0.0496064 0.0191363 0)
(-0.0528835 0.018821 0)
(-0.0560898 0.0183923 0)
(-0.0592069 0.0178519 0)
(-0.0622168 0.017201 0)
(-0.0651017 0.016441 0)
(-0.0678439 0.0155734 0)
(-0.0704263 0.0145998 0)
(-0.0728318 0.0135222 0)
(-0.0750441 0.0123435 0)
(-0.0770473 0.0110669 0)
(-0.0788262 0.00969694 0)
(-0.0803665 0.00823884 0)
(-0.0816548 0.0066991 0)
(-0.0826788 0.00508536 0)
(-0.0834277 0.00340653 0)
(-0.083892 0.00167282 0)
(-0.0840641 -0.000104319 0)
(-0.0839381 -0.00191215 0)
(-0.0835101 -0.00373675 0)
(-0.0827783 -0.00556312 0)
(-0.0817435 -0.00737526 0)
(-0.0804088 -0.00915639 0)
(-0.0787798 -0.0108891 0)
(-0.0768648 -0.0125555 0)
(-0.0746749 -0.0141376 0)
(-0.072224 -0.0156175 0)
(-0.0695284 -0.0169776 0)
(-0.0666075 -0.0182012 0)
(-0.0634829 -0.0192723 0)
(-0.0601791 -0.0201764 0)
(-0.0567224 -0.0209006 0)
(-0.0531414 -0.0214338 0)
(-0.0494664 -0.0217674 0)
(-0.0457291 -0.0218951 0)
(-0.0419622 -0.0218134 0)
(-0.0381991 -0.0215218 0)
(-0.0344733 -0.0210228 0)
(-0.0308179 -0.0203223 0)
(-0.0272653 -0.0194297 0)
(-0.0238464 -0.0183577 0)
(-0.0205904 -0.0171225 0)
(-0.0175237 -0.0157438 0)
(-0.0146702 -0.0142447 0)
(-0.0120499 -0.0126519 0)
(-0.00967939 -0.0109955 0)
(-0.00757065 -0.00930873 0)
(-0.00573118 -0.0076286 0)
(-0.00416364 -0.00599541 0)
(-0.00286571 -0.0044531 0)
(-0.00182997 -0.00304937 0)
(-0.00104393 -0.00183588 0)
(-0.000490857 -0.00086854 0)
(-0.000153271 -0.000208181 0)
(-5.52759e-06 7.77281e-05 0)
(-3.07366e-05 0.000803893 0)
(-0.000456652 0.00262916 0)
(-0.00128517 0.00458529 0)
(-0.00249357 0.00659329 0)
(-0.00404016 0.00859274 0)
(-0.00589574 0.0105362 0)
(-0.00803372 0.0123869 0)
(-0.0104278 0.0141177 0)
(-0.013052 0.015709 0)
(-0.0158811 0.0171481 0)
(-0.0188903 0.0184272 0)
(-0.0220555 0.0195428 0)
(-0.025353 0.0204942 0)
(-0.0287598 0.0212832 0)
(-0.0322535 0.0219125 0)
(-0.035812 0.0223862 0)
(-0.0394139 0.0227083 0)
(-0.0430384 0.0228831 0)
(-0.0466649 0.0229144 0)
(-0.0502733 0.0228058 0)
(-0.0538437 0.0225603 0)
(-0.0573566 0.0221805 0)
(-0.0607927 0.0216685 0)
(-0.0641329 0.0210262 0)
(-0.0673584 0.020255 0)
(-0.0704505 0.0193566 0)
(-0.0733908 0.0183327 0)
(-0.0761611 0.0171852 0)
(-0.0787439 0.0159168 0)
(-0.0811218 0.0145305 0)
(-0.0832782 0.0130305 0)
(-0.0851971 0.011422 0)
(-0.0868633 0.00971102 0)
(-0.0882627 0.00790526 0)
(-0.0893824 0.00601359 0)
(-0.0902108 0.00404634 0)
(-0.0907376 0.00201531 0)
(-0.0909546 -6.62441e-05 0)
(-0.0908552 -0.00218364 0)
(-0.0904349 -0.00432084 0)
(-0.0896916 -0.00646053 0)
(-0.0886253 -0.00858431 0)
(-0.0872388 -0.0106728 0)
(-0.0855375 -0.0127059 0)
(-0.0835295 -0.0146631 0)
(-0.0812258 -0.0165235 0)
(-0.0786402 -0.0182663 0)
(-0.0757895 -0.0198714 0)
(-0.0726933 -0.0213191 0)
(-0.0693741 -0.0225908 0)
(-0.0658568 -0.0236698 0)
(-0.062169 -0.0245406 0)
(-0.0583405 -0.0251905 0)
(-0.054403 -0.0256088 0)
(-0.0503899 -0.0257882 0)
(-0.0463358 -0.0257241 0)
(-0.0422761 -0.0254156 0)
(-0.0382467 -0.0248653 0)
(-0.0342831 -0.0240795 0)
(-0.0304201 -0.0230688 0)
(-0.0266913 -0.0218473 0)
(-0.0231284 -0.0204335 0)
(-0.0197609 -0.0188497 0)
(-0.0166149 -0.0171225 0)
(-0.0137135 -0.0152819 0)
(-0.0110755 -0.0133622 0)
(-0.00871557 -0.0114014 0)
(-0.00664362 -0.00944092 0)
(-0.00486465 -0.00752616 0)
(-0.00337859 -0.00570606 0)
(-0.00218026 -0.0040333 0)
(-0.00125931 -0.0025643 0)
(-0.000601366 -0.00135932 0)
(-0.000192265 -0.000482905 0)
(-8.08077e-06 -5.2435e-06 0)
(-3.46742e-05 0.0010425 0)
(-0.000509109 0.00330619 0)
(-0.00142778 0.00566461 0)
(-0.00276242 0.00804123 0)
(-0.00446385 0.0103776 0)
(-0.00649745 0.0126277 0)
(-0.0088321 0.0147561 0)
(-0.0114376 0.0167365 0)
(-0.0142847 0.0185505 0)
(-0.0173455 0.0201859 0)
(-0.020593 0.0216359 0)
(-0.024001 0.0228976 0)
(-0.0275445 0.0239712 0)
(-0.0311991 0.0248588 0)
(-0.0349412 0.0255642 0)
(-0.0387479 0.0260917 0)
(-0.042597 0.0264461 0)
(-0.0464667 0.026632 0)
(-0.0503357 0.0266537 0)
(-0.0541833 0.0265151 0)
(-0.0579889 0.0262196 0)
(-0.0617323 0.02577 0)
(-0.0653935 0.0251687 0)
(-0.0689527 0.0244176 0)
(-0.0723903 0.0235186 0)
(-0.0756871 0.0224735 0)
(-0.0788239 0.0212841 0)
(-0.0817818 0.019953 0)
(-0.0845425 0.018483 0)
(-0.0870879 0.0168778 0)
(-0.0894006 0.0151423 0)
(-0.0914639 0.0132821 0)
(-0.0932619 0.0113046 0)
(-0.0947796 0.00921835 0)
(-0.0960034 0.0070335 0)
(-0.0969207 0.00476184 0)
(-0.0975208 0.00241678 0)
(-0.0977945 1.33688e-05 0)
(-0.0977344 -0.00243171 0)
(-0.0973353 -0.00490025 0)
(-0.0965944 -0.00737262 0)
(-0.0955112 -0.00982789 0)
(-0.0940876 -0.0122441 0)
(-0.0923287 -0.0145983 0)
(-0.090242 -0.0168671 0)
(-0.0878383 -0.0190268 0)
(-0.0851313 -0.0210537 0)
(-0.0821378 -0.0229245 0)
(-0.0788775 -0.0246166 0)
(-0.0753733 -0.0261088 0)
(-0.0716508 -0.0273815 0)
(-0.0677385 -0.0284169 0)
(-0.0636672 -0.0291999 0)
(-0.0594702 -0.0297181 0)
(-0.0551823 -0.0299624 0)
(-0.0508401 -0.0299272 0)
(-0.0464812 -0.0296109 0)
(-0.0421437 -0.0290159 0)
(-0.0378657 -0.0281491 0)
(-0.0336847 -0.0270216 0)
(-0.0296372 -0.0256494 0)
(-0.0257578 -0.0240529 0)
(-0.0220788 -0.0222573 0)
(-0.0186295 -0.0202921 0)
(-0.0154358 -0.0181913 0)
(-0.0125196 -0.0159933 0)
(-0.0098982 -0.0137406 0)
(-0.00758431 -0.0114795 0)
(-0.00558553 -0.00926039 0)
(-0.00390432 -0.0071374 0)
(-0.00253787 -0.00516821 0)
(-0.00147809 -0.00341406 0)
(-0.000712865 -0.00193958 0)
(-0.00023121 -0.000813025 0)
(-1.05259e-05 -0.000107356 0)
(-3.84502e-05 0.00130674 0)
(-0.000559763 0.00405306 0)
(-0.0015658 0.00685127 0)
(-0.00302308 0.00962782 0)
(-0.00487527 0.0123268 0)
(-0.00708248 0.0149044 0)
(-0.00960922 0.0173271 0)
(-0.0124214 0.0195703 0)
(-0.0154866 0.021617 0)
(-0.0187741 0.0234563 0)
(-0.0222546 0.0250827 0)
(-0.0259002 0.0264943 0)
(-0.0296842 0.0276923 0)
(-0.033581 0.0286798 0)
(-0.0375658 0.0294613 0)
(-0.0416149 0.030042 0)
(-0.0457053 0.0304271 0)
(-0.0498145 0.0306218 0)
(-0.0539205 0.030631 0)
(-0.058002 0.030459 0)
(-0.0620379 0.0301093 0)
(-0.0660073 0.0295851 0)
(-0.0698898 0.0288889 0)
(-0.0736649 0.0280231 0)
(-0.0773125 0.0269895 0)
(-0.0808126 0.0257902 0)
(-0.0841456 0.0244275 0)
(-0.0872919 0.0229039 0)
(-0.0902325 0.0212229 0)
(-0.0929487 0.0193887 0)
(-0.0954223 0.0174066 0)
(-0.097636 0.0152833 0)
(-0.0995729 0.0130268 0)
(-0.101217 0.0106469 0)
(-0.102555 0.00815483 0)
(-0.103572 0.00556393 0)
(-0.104258 0.00288918 0)
(-0.104601 0.000147429 0)
(-0.104594 -0.00264265 0)
(-0.104231 -0.00546066 0)
(-0.103508 -0.00828459 0)
(-0.102423 -0.011091 0)
(-0.100978 -0.0138552 0)
(-0.099177 -0.0165514 0)
(-0.0970267 -0.0191533 0)
(-0.0945375 -0.0216341 0)
(-0.0917227 -0.0239668 0)
(-0.0885987 -0.0261252 0)
(-0.0851855 -0.0280835 0)
(-0.0815059 -0.0298175 0)
(-0.0775862 -0.0313046 0)
(-0.0734554 -0.0325242 0)
(-0.0691455 -0.0334588 0)
(-0.0646909 -0.0340939 0)
(-0.0601282 -0.0344183 0)
(-0.0554959 -0.0344253 0)
(-0.0508337 -0.0341121 0)
(-0.0461821 -0.0334809 0)
(-0.0415821 -0.0325386 0)
(-0.037074 -0.0312973 0)
(-0.0326973 -0.0297742 0)
(-0.02849 -0.0279919 0)
(-0.0244874 -0.025978 0)
(-0.0207224 -0.0237654 0)
(-0.0172241 -0.0213918 0)
(-0.0140175 -0.0188999 0)
(-0.0111232 -0.0163366 0)
(-0.00855688 -0.0137535 0)
(-0.00632909 -0.0112061 0)
(-0.00444499 -0.00875364 0)
(-0.00290429 -0.00645904 0)
(-0.00170123 -0.00438849 0)
(-0.000825931 -0.00261115 0)
(-0.000270357 -0.00119919 0)
(-1.2894e-05 -0.000228583 0)
(-4.20725e-05 0.00159569 0)
(-0.000608585 0.00486743 0)
(-0.00169906 0.00814192 0)
(-0.00327506 0.011349 0)
(-0.00527344 0.0144359 0)
(-0.00764929 0.0173616 0)
(-0.0103628 0.020095 0)
(-0.0133763 0.0226139 0)
(-0.016654 0.0249032 0)
(-0.0201625 0.0269539 0)
(-0.0238702 0.028762 0)
(-0.0277475 0.0303272 0)
(-0.0317661 0.0316519 0)
(-0.0358991 0.0327404 0)
(-0.0401207 0.0335982 0)
(-0.0444064 0.0342312 0)
(-0.0487323 0.0346456 0)
(-0.0530754 0.0348472 0)
(-0.0574133 0.0348412 0)
(-0.0617238 0.0346325 0)
(-0.0659856 0.0342249 0)
(-0.0701773 0.0336219 0)
(-0.0742778 0.0328263 0)
(-0.0782665 0.0318403 0)
(-0.0821226 0.0306664 0)
(-0.0858257 0.0293066 0)
(-0.0893556 0.0277635 0)
(-0.0926922 0.02604 0)
(-0.0958158 0.0241398 0)
(-0.0987071 0.0220677 0)
(-0.101347 0.0198296 0)
(-0.103718 0.0174327 0)
(-0.105803 0.0148862 0)
(-0.107584 0.0122006 0)
(-0.109046 0.00938863 0)
(-0.110176 0.00646481 0)
(-0.11096 0.00344575 0)
(-0.111388 0.000350087 0)
(-0.111449 -0.00280154 0)
(-0.111138 -0.00598656 0)
(-0.110448 -0.0091806 0)
(-0.109378 -0.0123576 0)
(-0.107928 -0.0154902 0)
(-0.106101 -0.0185496 0)
(-0.103903 -0.0215065 0)
(-0.101344 -0.0243308 0)
(-0.0984355 -0.0269924 0)
(-0.0951942 -0.0294616 0)
(-0.0916395 -0.0317094 0)
(-0.0877945 -0.0337081 0)
(-0.0836855 -0.035432 0)
(-0.0793423 -0.0368576 0)