/*--------------------------------*- C++ -*----------------------------------*\
  =========                 |
  \\      /  F ield         | OpenFOAM: The Open Source CFD Toolbox
   \\    /   O peration     | Website:  https://openfoam.org
    \\  /    A nd           | Version:  12
     \\/     M anipulation  |
\*---------------------------------------------------------------------------*/
FoamFile
{
    format      ascii;
    class       volScalarField;
    location    "10";
    object      epsilon;
}
// * * * * * * * * * * * * * * * * * * * * * * * * * * * * * * * * * * * * * //

dimensions      [0 2 -3 0 0 0 0];

internalField   nonuniform List<scalar> 
18225
(
1.62528e-06
1.09996e-05
2.45208e-05
4.06779e-05
5.87741e-05
7.83671e-05
9.91242e-05
0.00012077
0.000143064
0.000165791
0.000188762
0.000211809
0.000234792
0.0002576
0.000280157
0.000302424
0.000324404
0.000346143
0.000367735
0.000389321
0.000411097
0.000433309
0.00045626
0.000480308
0.000505871
0.00053343
0.000563526
0.00059677
0.00063384
0.000675487
0.000722536
0.00077589
0.00083653
0.000905515
0.000983985
0.00107316
0.00117432
0.00128885
0.00141816
0.00156376
0.00172718
0.00191003
0.00211393
0.00234054
0.00259156
0.00286868
0.00317362
0.0035081
0.00387383
0.00427252
0.00470585
0.00517547
0.00568303
0.00623011
0.00681822
0.00744884
0.00812335
0.00884305
0.00960913
0.0104227
0.0112848
0.0121962
0.0131578
0.0141702
0.015234
0.0163496
0.0175174
0.0187377
0.0200105
0.021336
0.0227142
0.0241449
0.0256279
0.0271629
0.0287495
0.030387
0.0320746
0.0338115
0.0355965
0.0374281
0.0393044
0.0412233
0.0431821
0.0451777
0.047206
0.0492626
0.0513418
0.0534372
0.055541
0.0576441
0.0597357
0.0618035
0.0638331
0.065808
0.0677098
0.0695175
0.0712077
0.0727541
0.0741269
0.0752951
0.0762236
0.076858
0.0771581
0.0772035
0.0768807
0.0761397
0.0749643
0.0733439
0.071274
0.0687595
0.0658174
0.0624778
0.058785
0.0547965
0.0505816
0.046218
0.0417892
0.0373793
0.0330689
0.0289311
0.0250276
0.0214063
0.0181
0.0151264
0.012489
0.010179
0.00817794
0.00646019
0.00499543
0.00375194
0.00269915
0.00181081
0.00106939
0.000474642
7.00082e-05
3.07109e-06
5.99038e-06
1.20216e-05
1.95105e-05
2.79794e-05
3.71811e-05
4.69452e-05
5.71361e-05
6.76376e-05
7.83475e-05
8.91752e-05
0.000100042
0.000110881
0.000121642
0.000132287
0.0001428
0.000153181
0.000163452
0.000173658
0.000183867
0.000194169
0.000204682
0.000215549
0.000226938
0.000239048
0.000252106
0.000266367
0.000282121
0.000299688
0.000319423
0.000341717
0.000366997
0.000395726
0.000428407
0.000465578
0.000507816
0.000555733
0.000609974
0.00067122
0.000740176
0.000817578
0.000904181
0.00100076
0.00110811
0.00122703
0.00135834
0.00150286
0.0016614
0.0018348
0.00202388
0.00222944
0.00245229
0.00269323
0.00295303
0.00323244
0.00353219
0.00385295
0.00419539
0.00456012
0.00494769
0.00535864
0.00579342
0.00625247
0.00673615
0.00724478
0.00777866
0.00833799
0.00892296
0.0095337
0.0101703
0.0108328
0.0115212
0.0122354
0.0129754
0.0137408
0.0145314
0.0153469
0.0161868
0.0170503
0.0179369
0.0188455
0.0197748
0.0207236
0.02169
0.022672
0.0236671
0.0246724
0.0256844
0.026699
0.0277116
0.0287164
0.0297073
0.0306768
0.0316168
0.032518
0.0333699
0.0341613
0.0348792
0.0355096
0.0360374
0.036447
0.036712
0.0368196
0.0367997
0.0366026
0.0362077
0.035608
0.0347998
0.0337826
0.0325599
0.0311408
0.0295404
0.0277799
0.0258863
0.0238917
0.0218318
0.0197449
0.0176691
0.0156412
0.0136945
0.0118572
0.0101514
0.0085922
0.0071881
0.00594098
0.00484711
0.00389817
0.00308261
0.00238651
0.00179534
0.00129521
0.000874548
0.000527013
0.000259153
0.000132228
6.52371e-06
5.82883e-06
9.24509e-06
1.40883e-05
1.97484e-05
2.59733e-05
3.26153e-05
3.9568e-05
4.67453e-05
5.40737e-05
6.14895e-05
6.89379e-05
7.63734e-05
8.37605e-05
9.10747e-05
9.83041e-05
0.00010545
0.000112527
0.000119567
0.000126616
0.000133737
0.000141011
0.000148537
0.000156431
0.00016483
0.00017389
0.00018379
0.000194727
0.000206925
0.00022063
0.000236111
0.000253666
0.000273616
0.000296309
0.000322122
0.000351454
0.000384734
0.000422412
0.000464964
0.000512885
0.000566693
0.000626921
0.000694119
0.00076885
0.00085169
0.000943224
0.00104405
0.00115475
0.00127595
0.00140825
0.00155226
0.00170859
0.00187785
0.00206063
0.00225753
0.00246913
0.002696
0.00293868
0.0031977
0.00347355
0.00376673
0.00407767
0.0044068
0.00475451
0.00512115
0.00550706
0.00591251
0.00633777
0.00678305
0.00724851
0.00773428
0.00824041
0.00876691
0.00931371
0.00988067
0.0104675
0.0110739
0.0116994
0.0123433
0.0130049
0.0136831
0.0143768
0.0150845
0.0158046
0.0165349
0.0172731
0.0180165
0.0187619
0.0195057
0.0202437
0.0209712
0.021683
0.0223731
0.023035
0.0236616
0.0242451
0.024777
0.0252482
0.0256488
0.0259683
0.0261965
0.0263128
0.0263247
0.0262341
0.0260166
0.025661
0.0251643
0.0245258
0.0237472
0.022833
0.021791
0.0206329
0.0193738
0.0180324
0.0166302
0.0151909
0.0137394
0.0123003
0.0108973
0.00955187
0.00828209
0.00710223
0.00602227
0.00504782
0.00418031
0.00341752
0.00275422
0.00218296
0.00169479
0.00128039
0.000931139
0.000640771
0.000408845
0.000252413
0.00028038
1.06704e-05
6.97208e-06
8.70829e-06
1.20837e-05
1.62952e-05
2.10393e-05
2.61573e-05
3.15461e-05
3.71284e-05
4.28415e-05
4.86327e-05
5.44579e-05
6.02806e-05
6.6073e-05
7.18162e-05
7.75009e-05
8.31283e-05
8.8711e-05
9.42735e-05
9.98527e-05
0.000105499
0.000111276
0.000117261
0.000123548
0.000130245
0.000137476
0.000145382
0.000154121
0.000163873
0.000174831
0.000187214
0.000201257
0.000217221
0.000235384
0.00025605
0.000279543
0.000306208
0.000336415
0.000370549
0.00040902
0.000452254
0.000500694
0.000554801
0.000615049
0.000681929
0.000755944
0.000837609
0.000927454
0.00102602
0.00113385
0.00125151
0.00137958
0.00151862
0.00166923
0.00183199
0.00200749
0.00219633
0.00239908
0.00261634
0.00284866
0.00309661
0.00336074
0.00364155
0.00393956
0.00425524
0.00458904
0.00494134
0.00531252
0.00570288
0.00611266
0.00654202
0.00699102
0.00745966
0.0079478
0.00845521
0.00898147
0.00952602
0.0100881
0.0106669
0.0112612
0.0118696
0.0124905
0.013122
0.013762
0.014408
0.0150572
0.0157066
0.0163526
0.0169915
0.0176189
0.0182303
0.0188208
0.019385
0.0199171
0.020411
0.0208602
0.0212581
0.0215973
0.0218703
0.0220689
0.0221808
0.0222072
0.0221433
0.0219886
0.0217297
0.02136
0.0208784
0.0202857
0.0195848
0.0187804
0.0178799
0.0168932
0.0158328
0.0147139
0.0135535
0.01237
0.0111826
0.0100101
0.00887068
0.00778025
0.00675243
0.00579782
0.00492378
0.00413438
0.00343061
0.00281073
0.00227076
0.0018051
0.00140715
0.00107024
0.000788673
0.000559692
0.000387909
0.000301059
0.00045708
1.53816e-05
8.74782e-06
9.13026e-06
1.14507e-05
1.46948e-05
1.84931e-05
2.26634e-05
2.70954e-05
3.1712e-05
3.64542e-05
4.1274e-05
4.61326e-05
5.09986e-05
5.58482e-05
6.06656e-05
6.54433e-05
7.01827e-05
7.48948e-05
7.96005e-05
8.43314e-05
8.91302e-05
9.40513e-05
9.91611e-05
0.000104539
0.000110276
0.000116481
0.000123272
0.000130788
0.000139179
0.000148616
0.000159285
0.000171392
0.000185163
0.000200841
0.000218691
0.000239
0.000262073
0.000288237
0.000317839
0.000351247
0.000388848
0.000431049
0.000478276
0.000530974
0.000589607
0.00065466
0.000726633
0.000806051
0.000893455
0.000989409
0.0010945
0.00120932
0.00133451
0.0014707
0.00161856
0.00177877
0.00195201
0.00213898
0.00234039
0.00255694
0.00278933
0.00303826
0.0033044
0.0035884
0.00389087
0.00421237
0.00455342
0.00491446
0.00529585
0.00569781
0.00612044
0.00656368
0.00702736
0.00751112
0.00801439
0.00853639
0.0090761
0.00963229
0.0102035
0.0107878
0.0113834
0.0119879
0.0125988
0.0132133
0.0138283
0.0144407
0.0150468
0.0156429
0.0162251
0.0167891
0.0173308
0.0178455
0.0183287
0.0187755
0.019181
0.01954
0.0198474
0.0200978
0.0202854
0.0203979
0.0204386
0.0204066
0.0202913
0.0200952
0.0198091
0.019428
0.0189512
0.0183795
0.0177152
0.0169625
0.0161276
0.0152189
0.0142473
0.0132262
0.0121707
0.0110973
0.0100231
0.0089653
0.00793969
0.00696054
0.00603964
0.005186
0.00440569
0.00370181
0.00307478
0.00252276
0.00204213
0.00162801
0.00127492
0.000977693
0.000732598
0.000539618
0.000407869
0.000375665
0.00065563
2.05669e-05
1.09224e-05
1.00977e-05
1.15576e-05
1.40607e-05
1.71656e-05
2.06619e-05
2.44273e-05
2.83804e-05
3.24617e-05
3.66253e-05
4.08346e-05
4.50609e-05
4.92832e-05
5.34874e-05
5.76671e-05
6.18239e-05
6.5968e-05
7.01181e-05
7.43026e-05
7.85596e-05
8.29377e-05
8.74961e-05
9.23056e-05
9.7449e-05
0.000103022
0.000109132
0.000115904
0.000123474
0.000131997
0.000141643
0.0001526
0.000165074
0.000179293
0.000195501
0.000213964
0.000234972
0.000258832
0.000285876
0.000316459
0.000350956
0.000389767
0.000433315
0.00048205
0.000536444
0.000596998
0.00066424
0.000738726
0.000821045
0.000911815
0.00101169
0.00112135
0.00124153
0.00137296
0.00151644
0.00167278
0.00184282
0.00202741
0.00222744
0.00244378
0.00267731
0.00292888
0.00319934
0.00348948
0.00380004
0.00413167
0.00448492
0.00486025
0.00525795
0.00567811
0.00612056
0.00658472
0.00707021
0.00757621
0.00810158
0.00864493
0.00920453
0.0097784
0.0103642
0.0109595
0.0115615
0.0121671
0.0127732
0.0133764
0.0139734
0.0145604
0.015134
0.0156904
0.0162259
0.016736
0.0172181
0.0176687
0.0180844
0.0184617
0.018797
0.0190869
0.0193281
0.0195172
0.0196472
0.0197065
0.0197136
0.0196522
0.0195179
0.0193117
0.0190262
0.0186561
0.0181996
0.017656
0.0170255
0.01631
0.015514
0.0146451
0.0137131
0.0127303
0.0117114
0.010673
0.00963227
0.00860668
0.00761263
0.00666468
0.00577482
0.00495201
0.004202
0.00352751
0.00292862
0.00240307
0.00194695
0.0015554
0.00122332
0.000946242
0.000721764
0.000552058
0.00045045
0.000465562
0.000870818
2.61688e-05
1.339e-05
1.14295e-05
1.21378e-05
1.40263e-05
1.658e-05
1.95561e-05
2.28183e-05
2.62788e-05
2.98754e-05
3.35619e-05
3.73027e-05
4.10705e-05
4.48454e-05
4.86147e-05
5.23729e-05
5.61217e-05
5.98707e-05
6.36376e-05
6.74487e-05
7.13392e-05
7.53541e-05
7.95483e-05
8.39873e-05
8.8748e-05
9.39191e-05
9.96021e-05
0.000105912
0.000112979
0.000120948
0.00012998
0.000140255
0.00015197
0.000165344
0.000180615
0.000198042
0.00021791
0.000240524
0.000266218
0.000295347
0.000328297
0.000365482
0.000407343
0.000454356
0.000507027
0.000565901
0.000631559
0.000704622
0.000785754
0.000875665
0.00097511
0.00108489
0.00120587
0.00133893
0.00148502
0.00164514
0.0018203
0.00201155
0.00221997
0.00244662
0.00269249
0.00295865
0.00324607
0.00355566
0.00388819
0.00424432
0.00462452
0.0050291
0.00545817
0.00591143
0.00638833
0.00688816
0.00740956
0.0079509
0.00851025
0.00908527
0.00967333
0.0102715
0.0108765
0.011485
0.0120934
0.0126981
0.0132955
0.0138819
0.0144538
0.015008
0.0155412
0.0160506
0.0165335
0.0169878
0.017411
0.0178008
0.0181554
0.0184732
0.0187516
0.0189895
0.0191852
0.0193369
0.0194374
0.019479
0.0194802
0.0194215
0.0192997
0.0191138
0.0188566
0.0185211
0.0181032
0.0175999
0.0170092
0.0163311
0.0155681
0.0147254
0.0138116
0.0128386
0.0118211
0.0107765
0.00972374
0.00868194
0.00766962
0.00670334
0.00579674
0.00496001
0.0041996
0.00351839
0.00291612
0.0023901
0.00193591
0.00154829
0.001222
0.000952785
0.00073908
0.000584961
0.000507433
0.000565608
0.00109874
3.21507e-05
1.60956e-05
1.30314e-05
1.30555e-05
1.44096e-05
1.65013e-05
1.90548e-05
2.19173e-05
2.49933e-05
2.82171e-05
3.15407e-05
3.4928e-05
3.83525e-05
4.17949e-05
4.52432e-05
4.86925e-05
5.21446e-05
5.56091e-05
5.91029e-05
6.26512e-05
6.62877e-05
7.00552e-05
7.4006e-05
7.82026e-05
8.27185e-05
8.76388e-05
9.3061e-05
9.90964e-05
0.000105871
0.000113525
0.000122218
0.000132126
0.000143445
0.000156392
0.000171207
0.000188153
0.000207517
0.000229617
0.000254797
0.000283431
0.000315927
0.000352727
0.000394311
0.000441197
0.000493949
0.000553173
0.000619529
0.000693726
0.000776532
0.000868773
0.000971339
0.00108518
0.0012113
0.00135077
0.00150473
0.00167436
0.00186089
0.00206556
0.00228967
0.00253448
0.00280126
0.00309113
0.00340517
0.00374431
0.00410931
0.00450069
0.00491871
0.00536329
0.00583392
0.00632986
0.00684988
0.00739234
0.00795502
0.00853531
0.00913018
0.00973624
0.0103498
0.010967
0.0115836
0.0121957
0.0127992
0.0133902
0.013965
0.0145204
0.0150533
0.0155615
0.0160426
0.0164953
0.0169184
0.0173112
0.017673
0.0180035
0.0183027
0.0185702
0.0188064
0.0190107
0.0191822
0.0193193
0.0194189
0.0194738
0.0194918
0.0194642
0.0193822
0.0192432
0.0190389
0.0187603
0.0184007
0.017954
0.0174154
0.0167821
0.016054
0.0152345
0.0143308
0.0133541
0.0123198
0.0112462
0.0101543
0.00906615
0.0080032
0.00698515
0.00602853
0.00514585
0.00434516
0.00363023
0.00300096
0.00245432
0.00198526
0.00158782
0.00125617
0.000986006
0.000776209
0.000632174
0.000574424
0.000672875
0.00133637
3.849e-05
1.90083e-05
1.48499e-05
1.42327e-05
1.5108e-05
1.67992e-05
1.8997e-05
2.15317e-05
2.4298e-05
2.72259e-05
3.02651e-05
3.33787e-05
3.65397e-05
3.97289e-05
4.29349e-05
4.61531e-05
4.93856e-05
5.26419e-05
5.5939e-05
5.93014e-05
6.27623e-05
6.63632e-05
7.01554e-05
7.42e-05
7.8569e-05
8.3346e-05
8.86273e-05
9.45229e-05
0.000101158
0.000108674
0.000117229
0.000127003
0.000138195
0.000151027
0.000165746
0.000182626
0.000201969
0.00022411
0.000249415
0.000278288
0.000311172
0.000348551
0.000390956
0.000438968
0.000493221
0.000554405
0.000623273
0.000700648
0.000787423
0.000884563
0.000993114
0.00111421
0.00124905
0.00139892
0.00156515
0.00174916
0.00195238
0.00217629
0.00242233
0.00269194
0.00298651
0.00330726
0.00365526
0.00403135
0.00443612
0.00486977
0.00533211
0.00582249
0.00633974
0.00688219
0.00744765
0.00803333
0.00863589
0.00925152
0.009876
0.0105048
0.0111334
0.0117568
0.0123706
0.0129702
0.0135516
0.0141112
0.014646
0.0151537
0.0156324
0.0160813
0.0164997
0.0168881
0.0172471
0.0175778
0.0178815
0.0181598
0.0184141
0.0186458
0.0188561
0.0190453
0.0192131
0.0193583
0.0194784
0.0195701
0.0196302
0.0196525
0.0196308
0.019558
0.0194238
0.019218
0.0189304
0.0185522
0.0180756
0.0174948
0.0168071
0.0160138
0.0151203
0.0141372
0.0130797
0.0119674
0.0108233
0.00967241
0.00853971
0.00744876
0.00641982
0.00546868
0.00460593
0.00383695
0.00316243
0.00257931
0.002082
0.00166373
0.00131795
0.00103984
0.000828394
0.00069012
0.000648812
0.000785477
0.00158134
4.51733e-05
2.21102e-05
1.68526e-05
1.56223e-05
1.60589e-05
1.73944e-05
1.92859e-05
2.15451e-05
2.40574e-05
2.67468e-05
2.95596e-05
3.24577e-05
3.54137e-05
3.84082e-05
4.14299e-05
4.44741e-05
4.75437e-05
5.06483e-05
5.38049e-05
5.70383e-05
6.03816e-05
6.38762e-05
6.75734e-05
7.15341e-05
7.58306e-05
8.05466e-05
8.57792e-05
9.16396e-05
9.8255e-05
0.00010577
0.000114347
0.000124172
0.00013545
0.000148416
0.000163329
0.00018048
0.000200193
0.000222828
0.000248784
0.000278502
0.000312471
0.000351231
0.000395377
0.000445566
0.000502518
0.00056703
0.000639972
0.000722296
0.000815046
0.000919352
0.00103644
0.00116763
0.00131435
0.00147807
0.00166039
0.00186293
0.00208734
0.0023353
0.00260843
0.00290828
0.00323627
0.00359362
0.00398128
0.00439984
0.00484949
0.00532992
0.00584026
0.006379
0.00694399
0.00753243
0.00814086
0.00876519
0.00940078
0.0100425
0.0106851
0.0113231
0.0119509
0.0125635
0.0131561
0.0137244
0.0142651
0.0147754
0.0152538
0.0156992
0.0161117
0.0164922
0.0168423
0.0171642
0.0174604
0.0177339
0.0179878
0.0182247
0.0184477
0.0186588
0.0188599
0.0190516
0.0192338
0.0194052
0.019563
0.0197037
0.0198226
0.0199139
0.0199597
0.0199646
0.0199098
0.0197855
0.0195784
0.0192767
0.0188698
0.0183489
0.0177089
0.0169483
0.016071
0.0150858
0.0140077
0.0128568
0.0116577
0.0104381
0.00922664
0.00805102
0.00693585
0.00590096
0.00496034
0.00412185
0.00338762
0.00275507
0.00221837
0.00177001
0.00140257
0.00111056
0.000892796
0.000756624
0.000728945
0.000902126
0.00183177
5.21939e-05
2.53911e-05
1.90194e-05
1.71937e-05
1.72212e-05
1.82362e-05
1.98597e-05
2.18841e-05
2.41848e-05
2.66797e-05
2.93119e-05
3.20408e-05
3.48373e-05
3.76821e-05
4.05639e-05
4.34785e-05
4.64288e-05
4.94251e-05
5.2485e-05
5.56336e-05
5.89047e-05
6.23405e-05
6.59931e-05
6.99244e-05
7.42081e-05
7.89297e-05
8.41889e-05
9.01e-05
9.67946e-05
0.000104422
0.000113154
0.000123184
0.00013473
0.000148041
0.000163396
0.000181107
0.000201526
0.000225046
0.000252107
0.000283198
0.000318866
0.000359716
0.000406422
0.000459731
0.000520467
0.000589543
0.000667965
0.000756837
0.000857368
0.000970877
0.00109879
0.00124264
0.00140408
0.00158482
0.00178668
0.00201149
0.00226114
0.00253743
0.00284212
0.0031768
0.00354284
0.0039413
0.00437283
0.00483759
0.00533516
0.00586444
0.00642361
0.00701005
0.00762034
0.00825031
0.00889509
0.00954917
0.0102066
0.0108611
0.0115064
0.0121364
0.0127453
0.0133282
0.0138806
0.0143995
0.0148824
0.0153285
0.0157376
0.0161111
0.016451
0.0167601
0.0170422
0.0173012
0.0175413
0.017767
0.0179826
0.0181923
0.0183982
0.0186033
0.0188094
0.0190173
0.0192266
0.0194359
0.0196417
0.0198395
0.0200233
0.0201851
0.0203137
0.0203959
0.020422
0.0203822
0.0202593
0.0200387
0.0197073
0.0192535
0.0186694
0.017951
0.0170996
0.0161223
0.0150327
0.0138506
0.0126017
0.0113156
0.0100243
0.00875968
0.00755102
0.00642281
0.00539324
0.00447352
0.003668
0.00297525
0.00238959
0.001903
0.00150722
0.00119595
0.00096767
0.00083031
0.000813744
0.00102192
0.00208624
5.95503e-05
2.88457e-05
2.1338e-05
1.89274e-05
1.85676e-05
1.92906e-05
2.06765e-05
2.24993e-05
2.46229e-05
2.69589e-05
2.94463e-05
3.20422e-05
3.47165e-05
3.74488e-05
4.02276e-05
4.30487e-05
4.59155e-05
4.88388e-05
5.18372e-05
5.49371e-05
5.81731e-05
6.15891e-05
6.52386e-05
6.91859e-05
7.35066e-05
7.829e-05
8.36395e-05
8.96747e-05
9.65335e-05
0.000104374
0.000113376
0.000123747
0.000135722
0.000149566
0.000165582
0.000184111
0.000205539
0.0002303
0.000258882
0.00029183
0.000329758
0.00037335
0.000423371
0.000480669
0.00054619
0.000620981
0.0007062
0.000803119
0.000913136
0.00103777
0.00117867
0.00133759
0.00151642
0.00171711
0.00194169
0.00219223
0.00247073
0.00277915
0.00311926
0.00349259
0.00390033
0.0043432
0.00482138
0.00533434
0.0058808
0.00645861
0.00706473
0.00769515
0.00834501
0.00900861
0.00967959
0.0103511
0.0110159
0.011667
0.0122975
0.0129011
0.0134726
0.0140075
0.0145028
0.0149567
0.015369
0.0157404
0.0160734
0.0163711
0.0166379
0.0168785
0.0170982
0.0173027
0.017499
0.0176898
0.0178796
0.0180726
0.0182732
0.0184837
0.0187057
0.0189393
0.0191834
0.0194359
0.0196929
0.0199496
0.0201982
0.0204303
0.0206346
0.0208001
0.0209077
0.0209458
0.0209072
0.02077
0.0205186
0.0201385
0.0196193
0.0189543
0.0181417
0.0171861
0.016099
0.014899
0.0136115
0.0122675
0.0109017
0.00954978
0.00824581
0.00701939
0.00589364
0.00488397
0.00399785
0.00323574
0.00259267
0.00206048
0.0016302
0.0012947
0.00105194
0.00091031
0.000902511
0.00114425
0.00234374
6.72451e-05
3.24724e-05
2.38011e-05
2.08101e-05
2.00797e-05
2.05338e-05
2.17073e-05
2.33563e-05
2.53319e-05
2.75388e-05
2.99119e-05
3.24054e-05
3.49876e-05
3.76373e-05
4.03427e-05
4.30998e-05
4.59125e-05
4.87926e-05
5.17596e-05
5.48411e-05
5.80737e-05
6.15032e-05
6.51856e-05
6.9188e-05
7.35901e-05
7.84853e-05
8.39825e-05
9.02081e-05
9.73082e-05
0.000105451
0.00011483
0.000125667
0.000138216
0.000152767
0.000169649
0.000189237
0.000211957
0.000238291
0.000268781
0.000304042
0.000344763
0.000391717
0.000445771
0.000507893
0.000579162
0.000660775
0.000754059
0.000860473
0.000981616
0.00111923
0.00127518
0.00145148
0.00165024
0.00187365
0.00212394
0.00240333
0.00271397
0.00305781
0.00343657
0.00385158
0.00430368
0.00479305
0.00531915
0.00588053
0.00647478
0.00709844
0.00774699
0.00841489
0.00909566
0.00978206
0.0104663
0.0111404
0.0117963
0.0124265
0.0130242
0.0135837
0.0141006
0.014572
0.0149967
0.0153749
0.0157085
0.0160008
0.0162563
0.0164802
0.0166786
0.0168593
0.0170289
0.0171911
0.017351
0.017516
0.0176911
0.01788
0.0180857
0.0183101
0.0185541
0.0188173
0.0190981
0.0193936
0.0196996
0.0200101
0.020319
0.0206164
0.0208901
0.0211288
0.0213187
0.021436
0.0214722
0.0214188
0.0212507
0.0209506
0.0205057
0.0199062
0.0191472
0.0182299
0.0171628
0.0159622
0.0146522
0.0132641
0.0118342
0.0104016
0.00900503
0.00767942
0.00645346
0.0053476
0.00437338
0.00353399
0.00282591
0.00224126
0.0017706
0.00140606
0.001145
0.000996106
0.000994819
0.00126874
0.00260365
7.52846e-05
3.6272e-05
2.6405e-05
2.28338e-05
2.17453e-05
2.19492e-05
2.29319e-05
2.44306e-05
2.62831e-05
2.83867e-05
3.06715e-05
3.30889e-05
3.56053e-05
3.81986e-05
4.08564e-05
4.3575e-05
4.63591e-05
4.92213e-05
5.21824e-05
5.52722e-05
5.85291e-05
6.20016e-05
6.57491e-05
6.98423e-05
7.43657e-05
7.94182e-05
8.51156e-05
9.15927e-05
9.90057e-05
0.000107536
0.000117391
0.000128811
0.000142074
0.000157495
0.000175437
0.000196314
0.000220598
0.000248824
0.0002816
0.000319615
0.000363645
0.000414565
0.000473356
0.000541119
0.00061908
0.000708602
0.000811197
0.000928526
0.0010624
0.0012148
0.00138783
0.00158373
0.00180486
0.00205359
0.00233235
0.00264346
0.0029891
0.00337116
0.00379114
0.00425002
0.00474806
0.00528472
0.00585846
0.00646665
0.00710552
0.00777005
0.0084541
0.00915045
0.00985102
0.0105471
0.0112299
0.0118904
0.0125204
0.0131125
0.0136606
0.0141602
0.0146086
0.0150048
0.01535
0.0156469
0.0158994
0.0161134
0.0162952
0.0164538
0.0165961
0.016726
0.0168508
0.0169789
0.0171165
0.0172685
0.0174391
0.0176316
0.0178483
0.0180904
0.0183581
0.0186504
0.0189651
0.0192992
0.0196478
0.0200053
0.0203639
0.0207151
0.02105
0.021355
0.0216156
0.021816
0.0219251
0.0219476
0.0218656
0.0216511
0.0212893
0.0207679
0.020078
0.0192171
0.0181897
0.0170087
0.0156959
0.0142812
0.0128019
0.0112994
0.00981668
0.00839422
0.00706674
0.00586056
0.00479222
0.00386863
0.0030885
0.00244484
0.00192809
0.00152974
0.00124656
0.00108745
0.00109045
0.0013952
0.00286571
8.36778e-05
4.02474e-05
2.91486e-05
2.49935e-05
2.3556e-05
2.35249e-05
2.43357e-05
2.57048e-05
2.7456e-05
2.94788e-05
3.16983e-05
3.40627e-05
3.65363e-05
3.90959e-05
4.17288e-05
4.44316e-05
4.72094e-05
5.00762e-05
5.30546e-05
5.61763e-05
5.94826e-05
6.30252e-05
6.68672e-05
7.10842e-05
7.57662e-05
8.10189e-05
8.69663e-05
9.3753e-05
0.000101547
0.000110545
0.000120972
0.00013309
0.000147201
0.000163652
0.000182845
0.000205235
0.000231348
0.000261781
0.000297215
0.000338421
0.000386273
0.000441759
0.000505987
0.000580203
0.000665796
0.000764311
0.000877456
0.00100711
0.00115531
0.00132427
0.00151635
0.00173401
0.00197981
0.00225633
0.00256608
0.00291146
0.00329454
0.00371704
0.00418008
0.00468407
0.00522852
0.00581186
0.00643135
0.00708294
0.00776123
0.00845954
0.00916997
0.00988366
0.0105911
0.0112824
0.0119479
0.0125784
0.0131661
0.0137044
0.0141884
0.0146157
0.0149856
0.0152997
0.0155615
0.0157765
0.0159506
0.0160935
0.0162138
0.0163144
0.0164038
0.0164926
0.0165875
0.0166947
0.0168198
0.0169669
0.0171396
0.0173402
0.0175702
0.0178301
0.0181194
0.0184367
0.0187796
0.0191446
0.0195273
0.0199218
0.0203212
0.020717
0.021099
0.021456
0.0217768
0.0220475
0.0222446
0.0223362
0.022338
0.0222135
0.021943
0.0215115
0.020906
0.0201197
0.0191528
0.0180134
0.0167197
0.0152991
0.0137882
0.01223
0.010671
0.00915697
0.00772908
0.00642027
0.00525309
0.00423916
0.00338037
0.00267131
0.00210277
0.00166579
0.00135661
0.00118428
0.00118935
0.00152363
0.00312997
9.24365e-05
4.44031e-05
3.20328e-05
2.7287e-05
2.55068e-05
2.52529e-05
2.59089e-05
2.7166e-05
2.88353e-05
3.07975e-05
3.29723e-05
3.53043e-05
3.77557e-05
4.03022e-05
4.29305e-05
4.56375e-05
4.84292e-05
5.13211e-05
5.43378e-05
5.75134e-05
6.08923e-05
6.45302e-05
6.84947e-05
7.28668e-05
7.77432e-05
8.32373e-05
8.94828e-05
9.66357e-05
0.000104878
0.000114423
0.000125515
0.000138442
0.000153535
0.000171176
0.000191807
0.000215935
0.000244144
0.000277099
0.000315561
0.000360397
0.000412587
0.000473243
0.000543613
0.000625101
0.000719272
0.000827866
0.000952803
0.00109618
0.00126029
0.00144757
0.00166061
0.00190209
0.00217477
0.00248133
0.00282436
0.00320617
0.00362866
0.00409318
0.0046003
0.00514965
0.00573973
0.00636774
0.00702947
0.00771923
0.00842989
0.00915297
0.00987889
0.0105973
0.0112974
0.0119688
0.0126014
0.0131865
0.0137172
0.0141883
0.0145973
0.0149438
0.0152297
0.0154594
0.0156385
0.015776
0.0158838
0.0159636
0.0160235
0.0160756
0.0161278
0.0161884
0.0162637
0.016359
0.0164789
0.0166268
0.016805
0.0170151
0.0172578
0.0175328
0.0178392
0.0181753
0.0185385
0.0189255
0.0193322
0.0197532
0.0201822
0.0206117
0.0210324
0.0214341
0.0218042
0.0221292
0.0223933
0.0225762
0.0226541
0.0226227
0.0224499
0.0221186
0.0216114
0.0209173
0.0200313
0.0189562
0.0177048
0.016301
0.014779
0.0131822
0.0115596
0.00996203
0.00843712
0.00702509
0.00575548
0.00464576
0.00370199
0.0029212
0.00229508
0.00181453
0.00147532
0.00128673
0.00129162
0.00165414
0.00339679
0.000101575
4.87451e-05
3.50599e-05
2.97138e-05
2.75948e-05
2.71284e-05
2.76443e-05
2.88051e-05
3.04102e-05
3.233e-05
3.44786e-05
3.6797e-05
3.92449e-05
4.17967e-05
4.4439e-05
4.71687e-05
4.9993e-05
5.2929e-05
5.60034e-05
5.92535e-05
6.27272e-05
6.64845e-05
7.05983e-05
7.51561e-05
8.02618e-05
8.60381e-05
9.26293e-05
0.000100205
0.000108962
0.000119132
0.000130985
0.000144833
0.000161042
0.000180032
0.000202291
0.000228384
0.000258956
0.000294752
0.000336621
0.000385532
0.000442583
0.000509022
0.000586249
0.000675838
0.000779546
0.000899316
0.00103729
0.00119581
0.00137738
0.00158469
0.00182056
0.00208785
0.00238944
0.00272809
0.00310635
0.00352634
0.00398964
0.00449704
0.00504837
0.00564224
0.00627591
0.00694513
0.007644
0.00836506
0.00909936
0.00983668
0.0105659
0.0112754
0.0119538
0.0125903
0.0131754
0.0137014
0.0141629
0.0145571
0.0148837
0.0151452
0.0153461
0.0154935
0.0155987
0.0156708
0.0157105
0.0157331
0.0157493
0.0157668
0.0157922
0.0158345
0.0158986
0.0159888
0.0161085
0.01626
0.0164448
0.0166635
0.016916
0.0172017
0.0175192
0.0178668
0.0182419
0.0186416
0.0190622
0.0194992
0.0199471
0.0203994
0.0208484
0.0212846
0.0216969
0.022073
0.0223977
0.0226522
0.0228108
0.0228663
0.022802
0.022579
0.0221819
0.0215956
0.0208098
0.0198208
0.0186354
0.0172721
0.0157616
0.0141457
0.012475
0.0108044
0.00918803
0.00767389
0.00629942
0.00508908
0.00405428
0.00319543
0.00250578
0.00197649
0.00160302
0.00139508
0.00139747
0.001787
0.00366677
0.000111109
5.32805e-05
3.82337e-05
3.22752e-05
2.9819e-05
2.91487e-05
2.95371e-05
3.0616e-05
3.21728e-05
3.40669e-05
3.62064e-05
3.85282e-05
4.09898e-05
4.35643e-05
4.62375e-05
4.90071e-05
5.18814e-05
5.48793e-05
5.80301e-05
6.13743e-05
6.49642e-05
6.88645e-05
7.31541e-05
7.79277e-05
8.32975e-05
8.93966e-05
9.63814e-05
0.000104436
0.000113775
0.000124651
0.000137359
0.000152243
0.000169703
0.000190204
0.000214286
0.000242573
0.000275785
0.000314748
0.000360409
0.000413849
0.000476298
0.000549145
0.000633959
0.000732495
0.00084671
0.000978765
0.00113103
0.00130608
0.00150666
0.00173569
0.00199616
0.0022911
0.00262346
0.00299599
0.00341107
0.00387051
0.00437539
0.00492575
0.00552045
0.00615688
0.00683082
0.00753635
0.00826579
0.00900981
0.00975767
0.0104976
0.0112171
0.011904
0.0125465
0.0131343
0.013659
0.0141147
0.0144982
0.0148092
0.0150502
0.0152267
0.0153455
0.0154234
0.0154564
0.0154624
0.0154508
0.0154309
0.0154147
0.0154092
0.0154166
0.0154484
0.0155078
0.0155974
0.0157196
0.0158757
0.0160661
0.0162909
0.0165493
0.0168404
0.0171627
0.0175143
0.0178933
0.018297
0.0187223
0.0191656
0.0196227
0.020088
0.0205552
0.0210164
0.0214619
0.0218807
0.0222592
0.0225801
0.0228254
0.0229581
0.0229875
0.0228885
0.0226116
0.0221457
0.0214768
0.0205943
0.0194978
0.0181993
0.016724
0.0151106
0.0134095
0.011679
0.00997907
0.00836573
0.00688519
0.00557011
0.00443847
0.00349517
0.00273585
0.00215243
0.00174025
0.0015097
0.00150719
0.00192258
0.00394069
0.000121058
5.80176e-05
4.15589e-05
3.49736e-05
3.218e-05
3.13126e-05
3.15845e-05
3.25945e-05
3.41176e-05
3.60015e-05
3.81476e-05
4.04888e-05
4.29801e-05
4.55931e-05
4.83134e-05
5.11391e-05
5.40799e-05
5.71566e-05
6.04018e-05
6.38594e-05
6.75864e-05
7.16531e-05
7.6145e-05
8.11646e-05
8.68338e-05
9.32969e-05
0.000100724
0.000109315
0.000119304
0.000130968
0.000144629
0.000160665
0.000179516
0.000201695
0.000227799
0.000258518
0.000294651
0.000337116
0.000386966
0.000445403
0.000513798
0.000593696
0.000686842
0.000795186
0.000920893
0.00106635
0.00123416
0.00142713
0.00164824
0.00190059
0.00218735
0.00251163
0.0028764
0.00328426
0.00373732
0.00423693
0.00478346
0.00537602
0.00601225
0.00668812
0.00739775
0.0081334
0.00888551
0.00964293
0.0103933
0.0111235
0.0118202
0.012471
0.0130646
0.0135917
0.0140457
0.0144229
0.0147228
0.0149482
0.0151042
0.0152026
0.0152484
0.0152534
0.0152259
0.0151814
0.0151289
0.0150779
0.0150385
0.01502
0.0150174
0.0150445
0.0151035
0.0151953
0.0153209
0.0154809
0.015675
0.0159026
0.0161625
0.0164538
0.0167748
0.017124
0.0174996
0.0178997
0.0183219
0.0187635
0.0192212
0.0196909
0.0201677
0.0206449
0.0211149
0.0215677
0.0219918
0.0223717
0.0226902
0.0229231
0.0230335
0.0230382
0.0228976
0.0225631
0.0220248
0.0212666
0.0202803
0.0190702
0.0176544
0.0160666
0.0143554
0.0125804
0.0108072
0.00909949
0.00751308
0.00608993
0.00485597
0.00382182
0.00298648
0.00234325
0.00188766
0.001631
0.00162118
0.00206131
0.00421951
0.000131442
6.29657e-05
4.50411e-05
3.78125e-05
3.46795e-05
3.36204e-05
3.37855e-05
3.47385e-05
3.62415e-05
3.81292e-05
4.02966e-05
4.26723e-05
4.52083e-05
4.78748e-05
5.06574e-05
5.35546e-05
5.65776e-05
5.97498e-05
6.31068e-05
6.66969e-05
7.0582e-05
7.48385e-05
7.95593e-05
8.48558e-05
9.08603e-05
9.77295e-05
0.000105648
0.000114835
0.000125545
0.000138081
0.000152796
0.000170104
0.00019049
0.000214519
0.00024285
0.000276247
0.000315593
0.000361905
0.000416353
0.00048027
0.000555174
0.000642782
0.000745022
0.000864049
0.00100225
0.00116223
0.00134683
0.00155908
0.00180218
0.00207939
0.00239398
0.00274911
0.00314764
0.00359193
0.00408367
0.00462355
0.00521105
0.00584413
0.00651905
0.00723011
0.00796966
0.00872804
0.00949386
0.0102543
0.0109955
0.0117035
0.0123648
0.0129672
0.0135005
0.0139571
0.0143328
0.0146266
0.0148411
0.0149818
0.0150597
0.0150834
0.0150594
0.0150051
0.0149294
0.0148459
0.0147636
0.0146916
0.0146386
0.0146131
0.0146072
0.014634
0.0146953
0.0147903
0.0149193
0.0150818
0.015277
0.015504
0.0157615
0.0160482
0.0163629
0.0167042
0.0170707
0.0174612
0.0178741
0.0183074
0.018759
0.0192261
0.0197048
0.0201903
0.0206763
0.0211548
0.0216157
0.0220457
0.0224285
0.0227448
0.0229647
0.02306
0.0230335
0.0228477
0.0224497
0.0218302
0.0209728
0.0198734
0.0185412
0.0170032
0.0153038
0.0135024
0.0116685
0.00987356
0.0081831
0.00664957
0.00530825
0.0041769
0.00325899