/*--------------------------------*- C++ -*----------------------------------*\
  =========                 |
  \\      /  F ield         | OpenFOAM: The Open Source CFD Toolbox
   \\    /   O peration     | Website:  https://openfoam.org
    \\  /    A nd           | Version:  12
     \\/     M anipulation  |
\*---------------------------------------------------------------------------*/
FoamFile
{
    format      ascii;
    class       volScalarField;
    location    "10";
    object      k;
}
// * * * * * * * * * * * * * * * * * * * * * * * * * * * * * * * * * * * * * //

dimensions      [0 2 -2 0 0 0 0];

internalField   nonuniform List<scalar> 
18225
(
4.46047e-10
3.01876e-09
6.72958e-09
1.11638e-08
1.61302e-08
2.15074e-08
2.7204e-08
3.31445e-08
3.92629e-08
4.55004e-08
5.18046e-08
5.81297e-08
6.44371e-08
7.06967e-08
7.68873e-08
8.29985e-08
8.90307e-08
9.49969e-08
1.00922e-07
1.06847e-07
1.12823e-07
1.18919e-07
1.25217e-07
1.31817e-07
1.38833e-07
1.46395e-07
1.54655e-07
1.63778e-07
1.73951e-07
1.8538e-07
1.98291e-07
2.12932e-07
2.29573e-07
2.48504e-07
2.70037e-07
2.94507e-07
3.22268e-07
3.53695e-07
3.89181e-07
4.29134e-07
4.73979e-07
5.24153e-07
5.80104e-07
6.42288e-07
7.11168e-07
7.87212e-07
8.70889e-07
9.6267e-07
1.06303e-06
1.17242e-06
1.29133e-06
1.42019e-06
1.55946e-06
1.70957e-06
1.87094e-06
2.04397e-06
2.22904e-06
2.42651e-06
2.63671e-06
2.85993e-06
3.09646e-06
3.34653e-06
3.61035e-06
3.88812e-06
4.17999e-06
4.48607e-06
4.80648e-06
5.14127e-06
5.49049e-06
5.85416e-06
6.23227e-06
6.62481e-06
7.0317e-06
7.45285e-06
7.88814e-06
8.33742e-06
8.80046e-06
9.27701e-06
9.76675e-06
1.02693e-05
1.07841e-05
1.13106e-05
1.1848e-05
1.23955e-05
1.29521e-05
1.35163e-05
1.40868e-05
1.46617e-05
1.5239e-05
1.5816e-05
1.63899e-05
1.69572e-05
1.75141e-05
1.8056e-05
1.85778e-05
1.90738e-05
1.95375e-05
1.99618e-05
2.03385e-05
2.06591e-05
2.09138e-05
2.10879e-05
2.11703e-05
2.11827e-05
2.10942e-05
2.08909e-05
2.05684e-05
2.01238e-05
1.95559e-05
1.8866e-05
1.80588e-05
1.71425e-05
1.61293e-05
1.5035e-05
1.38785e-05
1.26813e-05
1.14661e-05
1.02561e-05
9.07346e-06
7.93814e-06
6.86709e-06
5.87347e-06
4.9663e-06
4.1504e-06
3.42675e-06
2.79295e-06
2.24389e-06
1.77257e-06
1.37066e-06
1.02947e-06
7.40604e-07
4.96856e-07
2.93423e-07
1.30234e-07
1.92091e-08
3.37137e-09
2.68852e-08
6.03869e-08
1.00343e-07
1.45071e-07
1.93488e-07
2.44777e-07
2.98257e-07
3.53337e-07
4.09486e-07
4.66235e-07
5.23169e-07
5.79943e-07
6.36284e-07
6.92003e-07
7.47004e-07
8.01292e-07
8.54982e-07
9.08305e-07
9.61612e-07
1.01538e-06
1.07023e-06
1.12689e-06
1.18627e-06
1.24938e-06
1.31741e-06
1.39171e-06
1.47377e-06
1.56528e-06
1.66809e-06
1.78424e-06
1.91595e-06
2.06565e-06
2.23596e-06
2.42968e-06
2.64983e-06
2.8996e-06
3.18235e-06
3.50163e-06
3.86112e-06
4.26463e-06
4.7161e-06
5.21956e-06
5.77913e-06
6.39896e-06
7.08325e-06
7.83624e-06
8.66217e-06
9.56527e-06
1.05497e-05
1.16198e-05
1.27794e-05
1.40327e-05
1.53836e-05
1.68358e-05
1.8393e-05
2.00585e-05
2.18355e-05
2.37271e-05
2.5736e-05
2.78645e-05
3.01149e-05
3.24891e-05
3.49887e-05
3.76152e-05
4.03696e-05
4.32528e-05
4.62654e-05
4.94079e-05
5.26803e-05
5.60827e-05
5.96148e-05
6.3276e-05
6.70655e-05
7.09821e-05
7.50245e-05
7.91908e-05
8.34785e-05
8.78848e-05
9.24061e-05
9.70379e-05
0.000101775
0.00010661
0.000111536
0.000116543
0.00012162
0.000126753
0.000131925
0.000137119
0.000142311
0.000147475
0.00015258
0.000157592
0.000162469
0.000167165
0.00017163
0.000175806
0.000179627
0.00018302
0.000185909
0.000188195
0.000189746
0.000190464
0.000190563
0.000189751
0.000187906
0.000184989
0.000180976
0.000175856
0.000169641
0.000162373
0.000154127
0.000145012
0.00013517
0.000124771
0.000114007
0.000103082
9.22053e-05
8.15741e-05
7.13683e-05
6.17401e-05
5.28076e-05
4.46518e-05
3.73163e-05
3.08098e-05
2.51109e-05
2.01738e-05
1.59346e-05
1.23199e-05
9.25157e-06
6.65379e-06
4.46143e-06
2.63067e-06
1.15905e-06
1.45125e-07
7.16157e-09
6.14116e-08
1.38834e-07
2.3118e-07
3.34537e-07
4.46404e-07
5.64894e-07
6.88439e-07
8.15672e-07
9.45369e-07
1.07644e-06
1.20794e-06
1.33905e-06
1.46915e-06
1.59781e-06
1.72479e-06
1.85011e-06
1.97403e-06
2.09709e-06
2.22009e-06
2.34415e-06
2.47067e-06
2.60137e-06
2.7383e-06
2.88384e-06
3.04073e-06
3.21205e-06
3.40129e-06
3.61232e-06
3.8494e-06
4.11727e-06
4.42105e-06
4.76634e-06
5.15919e-06
5.6061e-06
6.11402e-06
6.69032e-06
7.34279e-06
8.07961e-06
8.90929e-06
9.84066e-06
1.08828e-05
1.20451e-05
1.3337e-05
1.47682e-05
1.63483e-05
1.80873e-05
1.99949e-05
2.20809e-05
2.43551e-05
2.68272e-05
2.95067e-05
3.24029e-05
3.5525e-05
3.88817e-05
4.24815e-05
4.63323e-05
5.04417e-05
5.48166e-05
5.94635e-05
6.43882e-05
6.95958e-05
7.5091e-05
8.08776e-05
8.6959e-05
9.33381e-05
0.000100017
0.000106997
0.000114279
0.000121863
0.00012975
0.000137939
0.000146428
0.000155215
0.000164298
0.000173672
0.000183332
0.000193273
0.000203488
0.000213966
0.000224697
0.000235667
0.00024686
0.000258256
0.000269833
0.000281563
0.000293414
0.000305347
0.000317318
0.000329273
0.000341151
0.000352881
0.000364382
0.00037556
0.000386311
0.000396515
0.000406041
0.000414741
0.000422451
0.000428996
0.000434172
0.000437648
0.000439194
0.000439366
0.000437431
0.000433117
0.000426345
0.000417056
0.000405227
0.000390883
0.000374121
0.00035511
0.000334101
0.000311419
0.000287454
0.000262649
0.000237476
0.000212411
0.000187913
0.000164396
0.000142211
0.00012163
0.00010284
8.59399e-05
7.09511e-05
5.78233e-05
4.64509e-05
3.66875e-05
2.83621e-05
2.12942e-05
1.53092e-05
1.02568e-05
6.03604e-06
2.64257e-06
3.07727e-07
1.17136e-08
1.02953e-07
2.33869e-07
3.90224e-07
5.65269e-07
7.54731e-07
9.55402e-07
1.16463e-06
1.38008e-06
1.5997e-06
1.82162e-06
2.04425e-06
2.2662e-06
2.48641e-06
2.70414e-06
2.919e-06
3.13101e-06
3.34061e-06
3.54871e-06
3.75668e-06
3.96638e-06
4.18019e-06
4.40104e-06
4.63238e-06
4.87825e-06
5.14326e-06
5.43267e-06
5.75234e-06
6.10883e-06
6.50938e-06
6.96198e-06
7.47532e-06
8.05888e-06
8.72292e-06
9.47844e-06
1.03372e-05
1.13118e-05
1.24153e-05
1.36617e-05
1.50653e-05
1.66412e-05
1.84049e-05
2.03722e-05
2.25591e-05
2.49822e-05
2.7658e-05
3.06032e-05
3.38345e-05
3.73686e-05
4.12223e-05
4.5412e-05
4.99541e-05
5.48645e-05
6.0159e-05
6.58526e-05
7.19599e-05
7.84948e-05
8.54701e-05
9.28982e-05
0.00010079
0.000109156
0.000118005
0.000127345
0.000137183
0.000147525
0.000158376
0.000169738
0.000181616
0.000194009
0.000206917
0.000220341
0.000234277
0.000248722
0.000263671
0.000279116
0.000295048
0.000311458
0.000328331
0.000345652
0.000363402
0.00038156
0.000400097
0.000418985
0.000438187
0.000457661
0.000477359
0.000497224
0.00051719
0.000537183
0.000557114
0.000576882
0.000596369
0.000615443
0.000633951
0.000651725
0.00066857
0.000684275
0.000698599
0.000711281
0.000722036
0.000730541
0.000736213
0.000738668
0.000738904
0.000735655
0.000728438
0.000717126
0.000701618
0.000681859
0.000657881
0.000629831
0.000597982
0.000562744
0.000524658
0.000484377
0.000442646
0.000400262
0.000358036
0.000316746
0.000277099
0.000239692
0.000204987
0.000173304
0.000144811
0.000119544
9.74163e-05
7.82498e-05
6.17965e-05
4.77668e-05
3.58551e-05
2.57666e-05
1.72483e-05
1.01317e-05
4.41509e-06
5.01662e-07
1.68855e-08
1.49901e-07
3.41701e-07
5.71177e-07
8.28236e-07
1.10652e-06
1.40128e-06
1.70859e-06
2.02505e-06
2.3476e-06
2.67352e-06
3.00042e-06
3.32629e-06
3.64955e-06
3.9691e-06
4.28437e-06
4.59538e-06
4.90278e-06
5.20788e-06
5.5127e-06
5.81999e-06
6.13323e-06
6.45671e-06
6.79551e-06
7.15553e-06
7.54359e-06
7.96735e-06
8.43546e-06
8.95754e-06
9.54423e-06
1.02072e-05
1.09594e-05
1.18146e-05
1.27879e-05
1.38955e-05
1.51548e-05
1.65841e-05
1.8203e-05
2.00317e-05
2.20918e-05
2.44051e-05
2.69947e-05
2.98837e-05
3.30962e-05
3.66563e-05
4.05885e-05
4.49177e-05
4.96686e-05
5.4866e-05
6.05348e-05
6.66996e-05
7.33847e-05
8.06141e-05
8.84112e-05
9.67988e-05
0.000105799
0.000115432
0.000125718
0.000136675
0.000148321
0.00016067
0.000173736
0.000187531
0.000202066
0.000217348
0.000233383
0.000250177
0.000267731
0.000286044
0.000305114
0.000324936
0.000345503
0.000366803
0.000388824
0.000411549
0.000434957
0.000459027
0.00048373
0.000509036
0.000534909
0.000561309
0.000588191
0.000615504
0.00064319
0.000671186
0.000699419
0.000727808
0.000756259
0.000784668
0.000812915
0.000840864
0.000868356
0.000895216
0.000921242
0.000946206
0.000969851
0.000991888
0.00101199
0.00102982
0.00104498
0.001057
0.00106511
0.00106865
0.00106908
0.00106471
0.00105468
0.00103882
0.00101695
0.000988969
0.000954873
0.000914836
0.000869217
0.00081858
0.000763686
0.000705471
0.000645017
0.000583493
0.000522095
0.000461979
0.000404198
0.000349644
0.000299012
0.00025278
0.000211203
0.000174335
0.000142054
0.000114096
9.00977e-05
6.96346e-05
5.22592e-05
3.75405e-05
2.51101e-05
1.47263e-05
6.39616e-06
7.19577e-07
2.25778e-08
2.0139e-07
4.60216e-07
7.70455e-07
1.11825e-06
1.49489e-06
1.89387e-06
2.30987e-06
2.73824e-06
3.17483e-06
3.61592e-06
4.05829e-06
4.49919e-06
4.93646e-06
5.3686e-06
5.79484e-06
6.21519e-06
6.63053e-06
7.04262e-06
7.4542e-06
7.86898e-06
8.29167e-06
8.72808e-06
9.18508e-06
9.67068e-06
1.01941e-05
1.07656e-05
1.13971e-05
1.21015e-05
1.28931e-05
1.3788e-05
1.48034e-05
1.59582e-05
1.72729e-05
1.87694e-05
2.04712e-05
2.24034e-05
2.45924e-05
2.7066e-05
2.98531e-05
3.29839e-05
3.64895e-05
4.04016e-05
4.4753e-05
4.95767e-05
5.49062e-05
6.07755e-05
6.72186e-05
7.42696e-05
8.19627e-05
9.03318e-05
9.94106e-05
0.000109232
0.000119829
0.000131233
0.000143474
0.000156582
0.000170584
0.000185505
0.000201368
0.000218195
0.000236003
0.000254809
0.000274625
0.00029546
0.000317319
0.000340204
0.000364114
0.000389041
0.000414974
0.000441898
0.000469793
0.000498632
0.000528384
0.000559015
0.000590482
0.000622741
0.00065574
0.000689423
0.000723731
0.000758598
0.000793955
0.000829727
0.000865835
0.000902193
0.000938708
0.00097528
0.0010118
0.00104814
0.00108417
0.00111973
0.00115465
0.00118871
0.0012217
0.00125334
0.00128333
0.00131133
0.00133695
0.00135977
0.00137929
0.00139491
0.00140581
0.00141082
0.00141176
0.0014069
0.00139472
0.00137498
0.00134742
0.00131181
0.00126811
0.00121645
0.00115724
0.00109117
0.0010192
0.000942534
0.000862608
0.000780985
0.000699288
0.0006191
0.000541875
0.000468854
0.000401013
0.000339024
0.000283259
0.000233803
0.0001905
0.000153
0.000120813
9.33664e-05
7.00585e-05
5.03104e-05
3.36294e-05
1.96973e-05
8.53544e-06
9.55754e-07
2.87274e-08
2.56899e-07
5.88132e-07
9.85833e-07
1.43206e-06
1.91549e-06
2.42772e-06
2.96182e-06
3.51181e-06
4.07231e-06
4.63855e-06
5.20632e-06
5.7721e-06
6.33308e-06
6.88731e-06
7.43379e-06
7.97252e-06
8.50461e-06
9.03235e-06
9.55923e-06
1.009e-05
1.06308e-05
1.11889e-05
1.17734e-05
1.23943e-05
1.30636e-05
1.37945e-05
1.46022e-05
1.55033e-05
1.65164e-05
1.76618e-05
1.8962e-05
2.04411e-05
2.21255e-05
2.40436e-05
2.62255e-05
2.87037e-05
3.15122e-05
3.46869e-05
3.82653e-05
4.22864e-05
4.67903e-05
5.18185e-05
5.74131e-05
6.36173e-05
7.04747e-05
7.80295e-05
8.63261e-05
9.54092e-05
0.000105323
0.000116113
0.000127823
0.000140497
0.000154177
0.000168905
0.000184722
0.000201665
0.00021977
0.000239069
0.000259594
0.000281368
0.000304415
0.000328752
0.000354389
0.000381334
0.000409586
0.000439139
0.000469979
0.000502085
0.000535426
0.000569966
0.000605659
0.000642451
0.000680282
0.000719084
0.000758782
0.000799297
0.000840543
0.000882433
0.000924877
0.00096778
0.00101105
0.00105459
0.00109831
0.0011421
0.00118588
0.00122954
0.00127296
0.00131603
0.00135862
0.00140058
0.00144173
0.00148187
0.00152077
0.00155815
0.00159369
0.00162701
0.00165767
0.00168517
0.00170894
0.00172825
0.00174238
0.00174944
0.00175133
0.00174693
0.00173363
0.00171116
0.00167913
0.00163718
0.00158513
0.00152307
0.00145138
0.00137083
0.00128253
0.00118794
0.00108881
0.000987093
0.00088486
0.000784152
0.000686866
0.000594649
0.000508808
0.000430264
0.000359539
0.000296783
0.00024182
0.000194217
0.000153357
0.000118513
8.89189e-05
6.38386e-05
4.26496e-05
2.49558e-05
1.07965e-05
1.20591e-06
3.52942e-08
3.16103e-07
7.24638e-07
1.21588e-06
1.76755e-06
2.36549e-06
2.9992e-06
3.66006e-06
4.34057e-06
5.03406e-06
5.73457e-06
6.43684e-06
7.13647e-06
7.82997e-06
8.5149e-06
9.18997e-06
9.85519e-06
1.05119e-05
1.1163e-05
1.18128e-05
1.24671e-05
1.31335e-05
1.38212e-05
1.45411e-05
1.5306e-05
1.61305e-05
1.70312e-05
1.80266e-05
1.91374e-05
2.03868e-05
2.17998e-05
2.34043e-05
2.52303e-05
2.73107e-05
2.96805e-05
3.23776e-05
3.5442e-05
3.89163e-05
4.28452e-05
4.72756e-05
5.2256e-05
5.78369e-05
6.407e-05
7.10083e-05
7.87059e-05
8.72176e-05
9.65992e-05
0.000106907
0.000118196
0.000130525
0.000143949
0.000158524
0.000174306
0.00019135
0.000209707
0.000229428
0.000250561
0.00027315
0.000297234
0.000322848
0.000350021
0.000378774
0.000409123
0.000441072
0.000474618
0.000509747
0.000546434
0.000584642
0.000624323
0.000665414
0.000707841
0.00075152
0.000796354
0.000842238
0.000889057
0.000936694
0.000985026
0.00103393
0.00108328
0.00113295
0.00118284
0.00123283
0.00128282
0.00133272
0.00138244
0.00143189
0.001481
0.00152969
0.00157786
0.00162541
0.00167223
0.00171818
0.00176307
0.00180669
0.00184877
0.00188898
0.00192692
0.0019621
0.00199398
0.00202189
0.00204505
0.00206265
0.00207252
0.00207583
0.00207281
0.00205957
0.00203569
0.00200065
0.00195395
0.00189526
0.00182454
0.00174212
0.00164879
0.00154573
0.00143461
0.00131743
0.00119653
0.00107437
0.000953472
0.000836201
0.000724647
0.000620505
0.000524999
0.000438859
0.000362336
0.000295269
0.00023716
0.000187273
0.000144724
0.000108579
7.79393e-05
5.20491e-05
3.0433e-05
1.3151e-05
1.46672e-06
4.22533e-08
3.78797e-07
8.69228e-07
1.4597e-06
2.12335e-06
2.84302e-06
3.60594e-06
4.40166e-06
5.22107e-06
6.05607e-06
6.89939e-06
7.74467e-06
8.58653e-06
9.42074e-06
1.02443e-05
1.10557e-05
1.18548e-05
1.26434e-05
1.34248e-05
1.42042e-05
1.49888e-05
1.57877e-05
1.66119e-05
1.74747e-05
1.83913e-05
1.93796e-05
2.04593e-05
2.1653e-05
2.29857e-05
2.44851e-05
2.61817e-05
2.8109e-05
3.03035e-05
3.28048e-05
3.56554e-05
3.89012e-05
4.25908e-05
4.67758e-05
5.15108e-05
5.68526e-05
6.28605e-05
6.95959e-05
7.7122e-05
8.55038e-05
9.48073e-05
0.0001051
0.00011645
0.000128926
0.000142599
0.000157537
0.00017381
0.000191488
0.000210638
0.000231327
0.000253619
0.000277575
0.000303251
0.000330699
0.000359962
0.000391078
0.000424073
0.000458964
0.000495755
0.000534437
0.000574987
0.000617363
0.00066151
0.000707351
0.000754795
0.000803731
0.000854033
0.000905559
0.000958155
0.00101166
0.0010659
0.00112072
0.00117593
0.00123139
0.00128694
0.00134243
0.00139776
0.00145281
0.00150751
0.00156178
0.00161557
0.00166884
0.00172157
0.00177372
0.00182526
0.00187614
0.00192631
0.00197566
0.00202404
0.00207128
0.00211711
0.00216119
0.00220312
0.00224236
0.00227831
0.00231024
0.00233728
0.00235855
0.00237185
0.00237705
0.00237606
0.00236396
0.0023399
0.00230331
0.00225352
0.00219002
0.00211264
0.00202162
0.00191766
0.001802
0.00167639
0.00154304
0.00140458
0.00126384
0.00112378
0.000987225
0.000856744
0.00073446
0.000621959
0.000520236
0.000429704
0.000350259
0.000281371
0.000222202
0.000171723
0.000128832
9.24657e-05
6.17316e-05
3.60743e-05
1.55762e-05
1.73558e-06
4.959e-08
4.4486e-07
1.0216e-06
1.71674e-06
2.49862e-06
3.3469e-06
4.24644e-06
5.18478e-06
6.15109e-06
7.13572e-06
8.13001e-06
9.12638e-06
1.01184e-05
1.11011e-05
1.20707e-05
1.30256e-05
1.39655e-05
1.48926e-05
1.58107e-05
1.67261e-05
1.76472e-05
1.85847e-05
1.95519e-05
2.05642e-05
2.16399e-05
2.27998e-05
2.40674e-05
2.54695e-05
2.70355e-05
2.87982e-05
3.07938e-05
3.30619e-05
3.56459e-05
3.85927e-05
4.19528e-05
4.57807e-05
5.01343e-05
5.50752e-05
6.06682e-05
6.69813e-05
7.40854e-05
8.2054e-05
9.09628e-05
0.00010089
0.000111914
0.000124117
0.000137581
0.000152389
0.000168625
0.000186373
0.000205716
0.000226738
0.000249521
0.000274142
0.000300678
0.000329199
0.000359768
0.00039244
0.000427262
0.000464265
0.00050347
0.000544877
0.000588471
0.000634217
0.000682055
0.000731905
0.00078366
0.000837191
0.000892342
0.000948939
0.00100679
0.00106567
0.00112537
0.00118567
0.00124632
0.00130713
0.00136788
0.00142838
0.00148848
0.00154804
0.00160696
0.00166517
0.00172264
0.00177934
0.0018353
0.00189054
0.00194512
0.00199906
0.00205242
0.00210521
0.00215742
0.002209
0.00225985
0.0023098
0.00235859
0.00240589
0.00245124
0.0024941
0.00253379
0.0025695
0.0026003
0.00262517
0.00264225
0.00264992
0.00265099
0.00264097
0.00261778
0.00258092
0.0025296
0.00246313
0.00238118
0.00228382
0.00217167
0.00204591
0.0019083
0.00176117
0.00160733
0.00144993
0.00129228
0.00113768
0.000989157
0.000849295
0.000720094
0.000602878
0.000498288
0.000406333
0.000326498
0.000257873
0.000199301
0.00014952
0.000107305
7.16222e-05
4.18371e-05
1.8054e-05
2.01043e-06
5.7297e-08
5.14232e-07
1.18161e-06
1.98671e-06
2.8929e-06
3.87651e-06
4.91985e-06
6.00835e-06
7.12933e-06
8.27147e-06
9.42462e-06
1.05799e-05
1.17297e-05
1.28682e-05
1.39911e-05
1.50962e-05
1.61835e-05
1.72552e-05
1.83161e-05
1.93732e-05
2.04366e-05
2.15186e-05
2.26346e-05
2.38028e-05
2.50443e-05
2.63834e-05
2.78476e-05
2.94677e-05
3.12782e-05
3.33174e-05
3.56274e-05
3.82544e-05
4.1249e-05
4.4666e-05
4.85647e-05
5.30087e-05
5.8066e-05
6.38088e-05
7.03132e-05
7.76594e-05
8.59307e-05
9.52139e-05
0.000105598
0.000117176
0.000130041
0.000144289
0.000160018
0.000177326
0.000196313
0.000217078
0.000239719
0.000264335
0.00029102
0.000319864
0.000350954
0.000384366
0.000420168
0.000458415
0.000499148
0.000542386
0.000588132
0.000636363
0.000687028
0.00074005
0.000795319
0.000852694
0.000912003
0.000973041
0.00103558
0.00109935
0.00116409
0.00122951
0.0012953
0.0013612
0.00142691
0.00149218
0.0015568
0.00162057
0.00168336
0.00174507
0.00180565
0.0018651
0.00192344
0.00198077
0.00203716
0.00209276
0.00214768
0.00220206
0.002256
0.00230958
0.00236285
0.00241579
0.00246831
0.00252026
0.00257137
0.00262128
0.00266953
0.0027155
0.00275848
0.00279758
0.0028318
0.00286
0.00288079
0.00289133
0.00289426
0.00288693
0.00286542
0.0028294
0.00277796
0.00271026
0.00262578
0.00252442
0.00240663
0.00227346
0.00212661
0.00196841
0.00180175
0.00163001
0.00145679
0.00128578
0.00112047
0.000963922
0.000818588
0.000686185
0.000567647
0.000463166
0.000372295
0.000294096
0.000227311
0.000170531
0.000122373
8.16649e-05
4.7689e-05
2.05708e-05
2.28972e-06
6.53726e-08
5.86903e-07
1.34922e-06
2.26955e-06
3.30606e-06
4.43161e-06
5.62584e-06
6.87193e-06
8.15522e-06
9.46261e-06
1.07823e-05
1.21041e-05
1.34192e-05
1.47206e-05
1.60035e-05
1.72654e-05
1.85062e-05
1.97285e-05
2.09377e-05
2.21422e-05
2.33532e-05
2.45851e-05
2.58557e-05
2.71859e-05
2.85999e-05
3.01256e-05
3.17946e-05
3.36426e-05
3.5709e-05
3.80379e-05
4.06779e-05
4.36822e-05
4.71091e-05
5.1022e-05
5.54893e-05
6.05847e-05
6.63869e-05
7.29796e-05
8.04514e-05
8.88951e-05
9.84079e-05
0.000109091
0.000121048
0.000134387
0.000149218
0.000165652
0.000183804
0.000203789
0.000225722
0.000249719
0.000275893
0.000304357
0.000335218
0.000368577
0.000404526
0.000443147
0.000484506
0.000528651
0.000575607
0.000625374
0.000677924
0.000733192
0.00079108
0.000851449
0.000914122
0.000978878
0.00104546
0.00111357
0.0011829
0.00125308
0.00132375
0.00139456
0.00146514
0.00153515
0.00160429
0.0016723
0.00173897
0.00180414
0.00186772
0.0019297
0.0019901
0.00204902
0.00210659
0.00216299
0.00221843
0.00227312
0.00232727
0.00238108
0.00243472
0.00248832
0.00254195
0.0025956
0.00264919
0.00270255
0.00275539
0.00280734
0.00285787
0.00290634
0.002952
0.00299392
0.00303105
0.00306221
0.00308612
0.00309963
0.0031043
0.0030999
0.00308069
0.00304642
0.00299612
0.0029288
0.00284375
0.00274068
0.00261982
0.00248201
0.00232879
0.00216239
0.00198571
0.0018022
0.0016157
0.00143021
0.00124965
0.00107755
0.000916859
0.000769739
0.000637487
0.000520548
0.000418609
0.000330756
0.000255661
0.000191792
0.000137615
9.18216e-05
5.36074e-05
2.31168e-05
2.57234e-06
7.38197e-08
6.62902e-07
1.52449e-06
2.56534e-06
3.7382e-06
5.01232e-06
6.36451e-06
7.77559e-06
9.22879e-06
1.07091e-05
1.2203e-05
1.36988e-05
1.51863e-05
1.66577e-05
1.81073e-05
1.95323e-05
2.09325e-05
2.2311e-05
2.3674e-05
2.50309e-05
2.63948e-05
2.7782e-05
2.92127e-05
3.07107e-05
3.23038e-05
3.40235e-05
3.5906e-05
3.79916e-05
4.03256e-05
4.29579e-05
4.59441e-05
4.93449e-05
5.32269e-05
5.76625e-05
6.273e-05
6.85139e-05
7.51044e-05
8.25977e-05
9.10956e-05
0.000100705
0.000111538
0.000123711
0.000137344
0.000152561
0.000169489
0.000188258
0.000208999
0.000231844
0.000256925
0.000284376
0.000314323
0.000346894
0.000382205
0.000420366
0.000461472
0.000505602
0.000552814
0.00060314
0.00065658
0.0007131
0.000772624
0.000835033
0.00090016
0.000967788
0.00103765
0.00110943
0.00118277
0.00125728
0.00133252
0.00140807
0.00148346
0.00155827
0.00163209
0.00170456
0.00177538
0.00184431
0.00191118
0.00197591
0.00203851
0.00209906
0.0021577
0.00221464
0.00227013
0.00232446
0.00237794
0.00243085
0.00248348
0.00253609
0.00258888
0.00264198
0.00269548
0.00274935
0.0028035
0.00285773
0.00291171
0.00296504
0.00301716
0.00306741
0.003115
0.003159
0.00319834
0.00323185
0.00325825
0.00327456
0.00328089
0.00327929
0.00326288
0.00323112
0.00318306
0.0031176
0.00303383
0.00293123
0.00280977
0.00267005
0.00251334
0.00234169
0.00215787
0.00196531
0.00176797
0.00157011
0.00137601
0.00118967
0.00101455
0.000853301
0.000707654
0.000578383
0.000465378
0.000367804
0.000284312
0.000213268
0.000153003
0.000102071
5.95789e-05
2.5686e-05
2.8576e-06
8.2645e-08
7.42291e-07
1.70758e-06
2.87432e-06
4.18964e-06
5.61901e-06
7.13631e-06
8.71983e-06
1.03506e-05
1.20115e-05
1.36872e-05
1.53644e-05
1.70316e-05
1.86797e-05
2.03025e-05
2.18967e-05
2.34622e-05
2.50024e-05
2.65243e-05
2.80388e-05
2.95606e-05
3.11082e-05
3.27045e-05
3.43763e-05
3.6155e-05
3.80763e-05
4.0181e-05
4.25146e-05
4.51282e-05
4.80785e-05
5.1428e-05
5.52455e-05
5.96066e-05
6.45933e-05
7.02946e-05
7.68063e-05
8.42314e-05
9.26792e-05
0.000102266
0.000113113
0.000125349
0.000139107
0.000154525
0.000171743
0.000190908
0.000212167
0.000235669
0.000261565
0.000290005
0.000321135
0.0003551
0.000392035
0.000432067
0.000475307
0.000521849
0.000571762
0.000625086
0.000681825
0.000741941
0.00080535
0.000871913
0.000941437
0.00101367
0.00108829
0.00116493
0.00124317
0.00132253
0.00140251
0.00148258
0.00156221
0.00164089
0.00171814
0.00179354
0.00186673
0.00193745
0.00200553
0.00207088
0.00213354
0.00219362
0.00225135
0.00230699
0.00236087
0.00241338
0.00246488
0.00251577
0.00256641
0.00261712
0.00266817
0.00271977
0.00277205
0.00282506
0.00287875
0.00293298
0.00298751
0.00304201
0.003096
0.00314895
0.00320016
0.00324883
0.00329407
0.00333482
0.00336993
0.00339815
0.00341698
0.00342508
0.00342574
0.00341252
0.00338391
0.00333905
0.00327675
0.00319592
0.00309581
0.0029761
0.00283706
0.00267965
0.00250563
0.00231754
0.00211868
0.00191303
0.001705
0.00149919
0.00130003
0.0011115
0.00093679
0.000778121
0.000636673
0.000512615
0.000405257
0.000313272
0.000234961
0.000168531
0.000112406
6.55983e-05
2.82758e-05
3.14521e-06
9.18587e-08
8.25163e-07
1.89868e-06
3.19682e-06
4.66086e-06
6.25232e-06
7.94199e-06
9.7055e-06
1.15215e-05
1.33707e-05
1.52359e-05
1.7102e-05
1.89559e-05
2.07876e-05
2.259e-05
2.43594e-05
2.60957e-05
2.78029e-05
2.94889e-05
3.1166e-05
3.28506e-05
3.45638e-05
3.63312e-05
3.81829e-05
4.0154e-05
4.22848e-05
4.46209e-05
4.72134e-05
5.01195e-05
5.34029e-05
5.71339e-05
6.13899e-05
6.62557e-05
7.18239e-05
7.81947e-05
8.54764e-05
9.37851e-05
0.000103245
0.000113987
0.000126149
0.000139877
0.000155321
0.000172638
0.000191987
0.000213534
0.000237445
0.000263888
0.000293032
0.000325043
0.000360084
0.000398308
0.000439862
0.000484875
0.000533456
0.000585688
0.000641621
0.000701266
0.000764586
0.000831489
0.000901822
0.000975369
0.00105184
0.00113087
0.00121205
0.00129486
0.00137878
0.0014632
0.00154752
0.00163112
0.00171341
0.00179382
0.00187187
0.00194715
0.00201935
0.00208829
0.00215391
0.00221624
0.00227546
0.00233184
0.00238572
0.00243751
0.00248767
0.00253666
0.00258496
0.002633
0.00268115
0.00272977
0.0027791
0.00282933
0.00288055
0.00293277
0.00298588
0.00303972
0.00309399
0.00314832
0.00320225
0.0032552
0.00330651
0.00335541
0.00340102
0.00344236
0.00347832
0.00350767
0.00352862
0.00353867
0.00354099
0.00353122
0.00350623
0.00346537
0.00340735
0.00333092
0.00323509
0.00311923
0.00298327
0.00282778
0.00265414
0.00246456
0.00226211
0.00205067
0.00183471
0.00161907
0.00140858
0.00120772
0.00102025
0.000848963
0.000695505
0.000560402
0.00044318
0.000342591
0.000256902
0.000184217
0.000122834
7.16685e-05
3.08872e-05
3.43525e-06
1.01474e-07
9.11635e-07
2.09807e-06
3.53331e-06
5.15251e-06
6.91308e-06
8.78256e-06
1.07338e-05
1.27429e-05
1.47883e-05
1.68507e-05
1.8913e-05
2.09609e-05
2.2983e-05
2.49713e-05
2.69218e-05
2.88346e-05
3.0714e-05
3.25692e-05
3.44137e-05
3.62662e-05
3.81502e-05
4.00942e-05
4.2132e-05
4.43028e-05
4.66513e-05
4.92285e-05
5.20914e-05
5.53038e-05
5.89368e-05
6.30688e-05
6.77863e-05
7.31844e-05
7.93665e-05
8.64452e-05
9.45418e-05
0.000103787
0.00011432
0.000126288
0.000139847
0.00015516
0.000172397
0.000191734
0.000213351
0.000237432
0.000264163
0.000293732
0.000326325
0.000362123
0.000401302
0.000444026
0.000490444
0.000540682
0.00059484
0.000652981
0.000715126
0.00078124
0.000851231
0.000924937
0.00100212
0.00108246
0.00116556
0.00125093
0.00133802
0.00142622
0.00151484
0.0016032
0.00169057
0.00177628
0.00185968
0.00194022
0.00201742
0.00209094
0.00216058
0.00222626
0.00228806
0.00234618
0.00240095
0.00245278
0.00250217
0.00254964
0.00259577
0.00264108
0.00268609
0.00273125
0.00277693
0.00282344
0.00287101
0.00291977
0.00296975
0.0030209
0.00307307
0.00312602
0.00317945
0.00323297
0.00328609
0.00333827
0.00338886
0.00343716
0.00348234
0.00352351
0.00355964
0.00358958
0.00361202
0.00362397
0.0036277
0.00362145
0.0036004
0.00356414
0.00351129
0.00344046
0.00335042
0.00324025
0.00310948
0.00295827
0.00278755
0.0025991
0.00239567
0.00218091
0.00195926
0.00173568
0.00151538
0.00130331
0.00110383
0.000920337
0.000755031
0.000608877
0.000481688
0.000372352
0.000279147
0.000200096
0.000133376
7.77989e-05
3.35236e-05
3.7281e-06
1.11505e-07
1.00185e-06
2.30608e-06
3.88431e-06
5.66535e-06
7.6023e-06
9.65928e-06
1.18062e-05
1.40164e-05
1.6266e-05
1.85334e-05
2.07996e-05
2.30487e-05
2.52678e-05
2.74485e-05
2.9586e-05
3.16808e-05
3.37377e-05
3.57669e-05
3.77839e-05
3.98094e-05
4.18694e-05
4.3996e-05
4.62264e-05
4.86043e-05
5.11795e-05
5.40082e-05
5.71538e-05
6.06873e-05
6.46873e-05
6.92413e-05
7.44454e-05
8.04052e-05
8.72361e-05
9.50637e-05
0.000104023
0.000114261
0.000125932
0.000139201
0.000154244
0.000171241
0.000190384
0.000211867
0.000235893
0.000262665
0.000292391
0.000325274
0.000361519
0.00040132
0.000444863
0.000492316
0.000543827
0.000599512
0.000659452
0.000723679
0.000792168
0.000864829
0.000941495
0.00102191
0.00110574
0.00119255
0.0012818
0.00137288
0.0014651
0.00155771
0.00164992
0.00174093
0.00182996
0.00191627
0.00199923
0.00207831
0.00215311
0.0022234
0.0022891
0.00235029
0.00240723
0.00246029
0.00250995
0.00255678
0.0026014
0.00264445
0.00268654
0.00272826
0.00277011
0.00281254
0.00285588
0.00290039
0.00294622
0.00299345
0.00304203
0.00309185
0.00314271
0.00319433
0.00324638
0.00329847
0.00335012
0.00340082
0.00344998
0.00349695
0.00354101
0.00358136
0.00361706
0.00364711
0.00367042
0.00368417
0.0036892
0.00368627
0.00366939
0.0036381
0.00359106
0.00352672
0.00344366
0.00334067
0.00321688
0.00307201
0.00290647
0.00272157
0.00251961
0.00230392
0.00207876
0.00184916
0.00162058
0.00139845
0.00118772
0.000992447
0.000815451
0.000658217
0.000520924
0.000402667
0.000301776
0.00021622
0.00014406
8.40048e-05
3.61911e-05
4.02441e-06
1.21972e-07
1.09597e-06
2.52308e-06
4.25047e-06
6.20031e-06
8.32117e-06
1.05736e-05
1.29244e-05
1.5344e-05
1.7806e-05
2.02864e-05
2.27642e-05
2.52216e-05
2.76448e-05
3.0024e-05
3.23546e-05
3.46368e-05
3.68764e-05
3.90849e-05
4.12794e-05
4.34829e-05
4.57246e-05
4.80398e-05
5.04698e-05
5.30629e-05
5.5874e-05
5.89654e-05
6.24071e-05
6.62775e-05
7.06636e-05
7.5662e-05
8.13794e-05
8.79326e-05
9.54498e-05
0.00010407
0.000113944
0.000125234
0.000138112
0.000152763
0.00016938
0.000188166
0.000209331
0.000233094
0.000259675
0.000289301
0.000322197
0.000358585
0.000398684
0.000442699
0.000490822
0.000543221
0.000600033
0.000661358
0.000727244
0.00079768
0.000872582
0.000951786
0.00103503
0.00112196
0.00121211
0.00130491
0.00139969
0.0014957
0.0015921
0.00168802
0.00178257
0.00187486
0.00196408
0.0020495
0.00213051
0.00220666
0.00227767
0.00234346
0.00240412
0.00245992
0.00251129
0.00255878
0.00260302
0.00264474
0.00268463
0.00272341
0.0027617
0.00280009
0.00283908
0.00287905
0.00292027
0.00296292
0.00300708
0.00305274
0.00309978
0.00314804
0.00319727
0.00324717
0.00329738
0.00334752
0.00339715
0.00344581
0.00349296
0.00353804
0.00358042
0.00361941
0.0036542
0.00368389
0.00370756
0.00372298
0.00372931
0.00372923
0.00371658
0.00369042
0.00364951
0.00359225
0.003517
0.00342229
0.0033069
0.00317005
0.00301166
0.00283247
0.00263425
0.00241988
0.00219335
0.00195963
0.00172434
0.00149333
0.00127215
0.00106552
0.000876987
0.000708622
0.00056106
0.000433668
0.000324883
0.00023265
0.000154926
9.03061e-05
3.88976e-05
4.32505e-06
1.32893e-07
1.19417e-06
2.74949e-06
4.63248e-06
6.75838e-06
9.07102e-06
1.15272e-05
1.40903e-05
1.67279e-05
1.94108e-05
2.21124e-05
2.48096e-05
2.74828e-05
3.01168e-05
3.27011e-05
3.52306e-05
3.77059e-05
4.01336e-05
4.25264e-05
4.49035e-05
4.72905e-05
4.97196e-05
5.22298e-05
5.48667e-05
5.76836e-05
6.07407e-05
6.41069e-05
6.7859e-05
7.20834e-05
7.68759e-05
8.23431e-05
8.86024e-05
9.5783e-05
0.000104026
0.000113486
0.000124329
0.000136734
0.000150893
0.000167009
0.000185297
0.00020598
0.000229291
0.000255468
0.000284756
0.0003174
0.000353645
0.000393728
0.000437879
0.000486313
0.00053922
0.000596761
0.000659057
0.000726176
0.000798124
0.000874832
0.000956142
0.00104179
0.00113142
0.00122454
0.00132056
0.00141875
0.0015183
0.0016183
0.00171781
0.00181583
0.00191139
0.00200357
0.00209153
0.0021746
0.00225226
0.00232417
0.00239023
0.00245052
0.00250535
0.00255517
0.00260059
0.00264235
0.0026812
0.00271798
0.00275343
0.00278828
0.00282318
0.00285866
0.00289516
0.00293301
0.00297237
0.00301333
0.0030559
0.00309997
0.00314539
0.00319191
0.00323926
0.00328713
0.00333516
0.00338298
0.00343021
0.00347641
0.00352114
0.00356392
0.00360421