/*--------------------------------*- C++ -*----------------------------------*\
  =========                 |
  \\      /  F ield         | OpenFOAM: The Open Source CFD Toolbox
   \\    /   O peration     | Website:  https://openfoam.org
    \\  /    A nd           | Version:  12
     \\/     M anipulation  |
\*---------------------------------------------------------------------------*/
FoamFile
{
    format      ascii;
    class       volScalarField;
    location    "10";
    object      nut;
}
// * * * * * * * * * * * * * * * * * * * * * * * * * * * * * * * * * * * * * //

dimensions      [0 2 -1 0 0 0 0];

internalField   nonuniform List<scalar> 
18225
(
1.10173e-14
7.45633e-14
1.6622e-13
2.75745e-13
3.98415e-13
5.3123e-13
6.71937e-13
8.18668e-13
9.69792e-13
1.12386e-12
1.27957e-12
1.4358e-12
1.59159e-12
1.7462e-12
1.89911e-12
2.05006e-12
2.19905e-12
2.34642e-12
2.49278e-12
2.63911e-12
2.78672e-12
2.93728e-12
3.09285e-12
3.25586e-12
3.42914e-12
3.61593e-12
3.81993e-12
4.04525e-12
4.29651e-12
4.57878e-12
4.89767e-12
5.25928e-12
5.67026e-12
6.1378e-12
6.66962e-12
7.27396e-12
7.95959e-12
8.73574e-12
9.61212e-12
1.05988e-11
1.17064e-11
1.29455e-11
1.43273e-11
1.5863e-11
1.75641e-11
1.94421e-11
2.15086e-11
2.37753e-11
2.62536e-11
2.89553e-11
3.18917e-11
3.5074e-11
3.85133e-11
4.22202e-11
4.62052e-11
5.04782e-11
5.50484e-11
5.99246e-11
6.51151e-11
7.06273e-11
7.64679e-11
8.26429e-11
8.91576e-11
9.60165e-11
1.03224e-10
1.10782e-10
1.18693e-10
1.2696e-10
1.35583e-10
1.44563e-10
1.539e-10
1.63593e-10
1.7364e-10
1.84039e-10
1.94788e-10
2.05882e-10
2.17316e-10
2.29084e-10
2.41177e-10
2.53586e-10
2.66298e-10
2.79299e-10
2.9257e-10
3.0609e-10
3.19833e-10
3.33767e-10
3.47854e-10
3.62051e-10
3.76305e-10
3.90554e-10
4.04726e-10
4.18736e-10
4.32487e-10
4.45868e-10
4.58754e-10
4.71001e-10
4.82453e-10
4.92931e-10
5.02233e-10
5.10148e-10
5.1644e-10
5.20739e-10
5.22773e-10
5.23081e-10
5.20895e-10
5.15875e-10
5.07912e-10
4.96934e-10
4.82911e-10
4.65876e-10
4.45942e-10
4.23316e-10
3.98297e-10
3.71274e-10
3.42716e-10
3.13152e-10
2.83145e-10
2.53266e-10
2.24062e-10
1.96026e-10
1.69578e-10
1.45041e-10
1.22639e-10
1.02492e-10
8.46216e-11
6.89703e-11
5.54116e-11
4.37726e-11
3.38478e-11
2.54223e-11
1.82889e-11
1.22696e-11
7.24596e-12
3.21608e-12
4.74361e-13
3.3309e-13
1.08596e-11
2.73003e-11
4.64463e-11
6.76966e-11
9.06211e-11
1.14866e-10
1.40124e-10
1.66124e-10
1.92618e-10
2.19385e-10
2.46233e-10
2.72996e-10
2.99546e-10
3.25793e-10
3.51691e-10
3.77242e-10
4.025e-10
4.27573e-10
4.52626e-10
4.77884e-10
5.03635e-10
5.30229e-10
5.58084e-10
5.87684e-10
6.19586e-10
6.54421e-10
6.92895e-10
7.35798e-10
7.84e-10
8.38458e-10
9.0022e-10
9.70423e-10
1.0503e-09
1.14116e-09
1.24444e-09
1.36161e-09
1.49426e-09
1.64406e-09
1.81273e-09
2.00205e-09
2.21388e-09
2.45008e-09
2.71259e-09
3.00334e-09
3.32428e-09
3.67739e-09
4.06462e-09
4.48794e-09
4.94929e-09
5.45057e-09
5.99367e-09
6.58041e-09
7.21258e-09
7.89187e-09
8.61991e-09
9.3982e-09
1.02282e-08
1.11111e-08
1.20482e-08
1.30404e-08
1.40887e-08
1.51938e-08
1.63564e-08
1.75769e-08
1.88559e-08
2.01934e-08
2.15897e-08
2.30449e-08
2.45587e-08
2.61312e-08
2.77621e-08
2.94511e-08
3.11976e-08
3.30012e-08
3.48611e-08
3.67765e-08
3.87465e-08
4.07696e-08
4.28446e-08
4.49695e-08
4.71422e-08
4.93599e-08
5.16195e-08
5.3917e-08
5.62479e-08
5.86064e-08
6.0986e-08
6.33786e-08
6.57747e-08
6.81631e-08
7.05306e-08
7.28617e-08
7.51388e-08
7.73415e-08
7.94466e-08
8.14281e-08
8.32567e-08
8.48975e-08
8.63155e-08
8.74575e-08
8.82627e-08
8.86722e-08
8.8813e-08
8.85319e-08
8.77653e-08
8.64945e-08
8.47049e-08
8.23881e-08
7.95467e-08
7.61977e-08
7.23744e-08
6.81273e-08
6.35233e-08
5.86437e-08
5.35812e-08
4.84348e-08
4.33053e-08
3.82893e-08
3.3474e-08
2.89331e-08
2.47236e-08
2.08841e-08
1.74351e-08
1.43801e-08
1.17081e-08
9.39635e-09
7.41321e-09
5.72395e-09
4.29068e-09
3.07639e-09
2.04836e-09
1.18182e-09
4.66541e-10
1.43352e-11
7.07561e-13
5.82319e-11
1.87639e-10
3.41416e-10
5.10034e-10
6.90513e-10
8.80551e-10
1.07803e-09
1.28096e-09
1.48751e-09
1.69599e-09
1.9049e-09
2.11297e-09
2.31919e-09
2.52286e-09
2.72359e-09
2.9214e-09
3.11668e-09
3.31028e-09
3.50345e-09
3.69795e-09
3.89599e-09
4.10027e-09
4.31401e-09
4.54097e-09
4.78544e-09
5.05227e-09
5.34692e-09
5.67545e-09
6.04458e-09
6.46166e-09
6.93475e-09
7.4726e-09
8.08464e-09
8.78101e-09
9.57254e-09
1.04707e-08
1.14876e-08
1.26358e-08
1.39286e-08
1.53795e-08
1.70025e-08
1.88118e-08
2.08218e-08
2.3047e-08
2.5502e-08
2.82014e-08
3.11596e-08
3.43908e-08
3.79091e-08
4.17282e-08
4.58613e-08
5.03212e-08
5.51203e-08
6.02698e-08
6.57806e-08
7.16623e-08
7.79238e-08
8.45727e-08
9.16156e-08
9.90581e-08
1.06905e-07
1.15158e-07
1.23821e-07
1.32894e-07
1.42377e-07
1.52271e-07
1.62572e-07
1.7328e-07
1.84391e-07
1.95902e-07
2.07811e-07
2.20113e-07
2.32803e-07
2.45878e-07
2.59332e-07
2.73161e-07
2.87358e-07
3.01916e-07
3.16828e-07
3.32086e-07
3.47677e-07
3.63589e-07
3.79806e-07
3.96308e-07
4.13071e-07
4.30065e-07
4.47253e-07
4.64589e-07
4.82019e-07
4.99474e-07
5.1687e-07
5.34111e-07
5.51079e-07
5.67639e-07
5.8363e-07
5.9887e-07
6.13151e-07
6.26223e-07
6.37832e-07
6.47624e-07
6.55128e-07
6.59464e-07
6.62261e-07
6.61929e-07
6.57929e-07
6.50099e-07
6.38276e-07
6.22338e-07
6.02246e-07
5.7808e-07
5.50058e-07
5.18542e-07
4.84038e-07
4.4718e-07
4.08706e-07
3.69416e-07
3.30128e-07
2.91633e-07
2.54647e-07
2.19771e-07
1.8747e-07
1.58053e-07
1.31683e-07
1.08381e-07
8.80515e-08
7.0507e-08
5.54922e-08
4.27174e-08
3.18731e-08
2.26533e-08
1.47761e-08
8.02025e-09
2.48992e-09
3.03968e-11
1.15731e-12
1.36823e-10
5.6527e-10
1.13415e-09
1.76479e-09
2.43666e-09
3.14066e-09
3.86963e-09
4.61685e-09
5.37593e-09
6.14089e-09
6.90634e-09
7.66762e-09
8.421e-09
9.16384e-09
9.89472e-09
1.06136e-08
1.13219e-08
1.20225e-08
1.27201e-08
1.34209e-08
1.4133e-08
1.48662e-08
1.5632e-08
1.64441e-08
1.73179e-08
1.82709e-08
1.93227e-08
2.04952e-08
2.18124e-08
2.33008e-08
2.49891e-08
2.69086e-08
2.9093e-08
3.15785e-08
3.44035e-08
3.76086e-08
4.12365e-08
4.53318e-08
4.99406e-08
5.51101e-08
6.08888e-08
6.73255e-08
7.44693e-08
8.23693e-08
9.10741e-08
1.00632e-07
1.11088e-07
1.2249e-07
1.34881e-07
1.48302e-07
1.62794e-07
1.78392e-07
1.95132e-07
2.13042e-07
2.32151e-07
2.5248e-07
2.74048e-07
2.96868e-07
3.2095e-07
3.46298e-07
3.72914e-07
4.00793e-07
4.29928e-07
4.6031e-07
4.91925e-07
5.24757e-07
5.5879e-07
5.94005e-07
6.30386e-07
6.67917e-07
7.06583e-07
7.46369e-07
7.87263e-07
8.29253e-07
8.72331e-07
9.16493e-07
9.61733e-07
1.00805e-06
1.05544e-06
1.10391e-06
1.15344e-06
1.20404e-06
1.25568e-06
1.30836e-06
1.36203e-06
1.41665e-06
1.47216e-06
1.52847e-06
1.58545e-06
1.64294e-06
1.70073e-06
1.75854e-06
1.81605e-06
1.87287e-06
1.92849e-06
1.98235e-06
2.03376e-06
2.08195e-06
2.12608e-06
2.16549e-06
2.19662e-06
2.21768e-06
2.23471e-06
2.24149e-06
2.23576e-06
2.21686e-06
2.184e-06
2.13655e-06
2.07411e-06
1.99675e-06
1.90505e-06
1.80014e-06
1.6837e-06
1.55797e-06
1.42556e-06
1.28941e-06
1.15254e-06
1.01791e-06
8.88218e-07
7.65752e-07
6.52277e-07
5.48985e-07
4.56496e-07
3.74908e-07
3.03869e-07
2.42683e-07
1.90401e-07
1.45933e-07
1.08109e-07
7.57637e-08
4.78395e-08
2.38164e-08
5.82734e-09
4.95533e-11
1.66828e-12
2.31182e-10
1.15094e-09
2.56421e-09
4.20132e-09
5.95867e-09
7.79769e-09
9.69674e-09
1.16384e-08
1.36065e-08
1.55859e-08
1.7563e-08
1.95256e-08
2.1464e-08
2.33713e-08
2.52435e-08
2.70803e-08
2.88852e-08
3.06654e-08
3.24327e-08
3.42028e-08
3.59962e-08
3.78376e-08
3.97566e-08
4.17873e-08
4.39688e-08
4.63452e-08
4.89659e-08
5.18856e-08
5.51645e-08
5.88688e-08
6.30701e-08
6.78461e-08
7.32804e-08
7.94621e-08
8.64857e-08
9.44507e-08
1.03461e-07
1.13625e-07
1.25052e-07
1.37856e-07
1.5215e-07
1.68048e-07
1.85663e-07
2.05105e-07
2.26482e-07
2.49898e-07
2.7545e-07
3.03233e-07
3.33332e-07
3.65826e-07
4.00785e-07
4.38271e-07
4.78335e-07
5.21018e-07
5.66349e-07
6.14346e-07
6.65014e-07
7.18347e-07
7.74329e-07
8.32931e-07
8.94119e-07
9.57846e-07
1.02406e-06
1.09271e-06
1.16374e-06
1.23709e-06
1.31269e-06
1.3905e-06
1.47048e-06
1.55259e-06
1.63681e-06
1.72312e-06
1.81152e-06
1.90202e-06
1.99463e-06
2.08939e-06
2.18635e-06
2.28556e-06
2.38709e-06
2.49101e-06
2.59738e-06
2.7063e-06
2.81781e-06
2.93197e-06
3.04881e-06
3.16834e-06
3.29052e-06
3.41528e-06
3.54246e-06
3.67177e-06
3.80285e-06
3.9352e-06
4.06816e-06
4.20091e-06
4.3324e-06
4.46134e-06
4.58618e-06
4.70524e-06
4.81803e-06
4.91971e-06
5.00332e-06
5.06526e-06
5.1188e-06
5.15038e-06
5.15296e-06
5.12491e-06
5.0642e-06
4.96891e-06
4.83775e-06
4.67045e-06
4.46804e-06
4.23284e-06
3.96859e-06
3.68033e-06
3.37419e-06
3.0571e-06
2.73639e-06
2.41927e-06
2.11246e-06
1.82173e-06
1.55163e-06
1.30531e-06
1.0845e-06
8.8961e-07
7.199e-07
5.73718e-07
4.48759e-07
3.42302e-07
2.514e-07
1.73132e-07
1.05161e-07
4.7853e-08
9.80122e-09
7.10786e-11
2.23068e-12
3.34193e-10
1.88774e-09
4.6224e-09
8.00418e-09
1.17165e-08
1.56233e-08
1.96582e-08
2.37776e-08
2.79454e-08
3.21292e-08
3.62995e-08
4.04306e-08
4.45015e-08
4.84969e-08
5.2408e-08
5.62335e-08
5.99799e-08
6.36622e-08
6.7304e-08
7.09381e-08
7.46062e-08
7.83595e-08
8.22584e-08
8.63732e-08
9.07838e-08
9.55804e-08
1.00863e-07
1.06744e-07
1.13343e-07
1.20795e-07
1.29244e-07
1.38845e-07
1.49764e-07
1.62178e-07
1.76274e-07
1.92245e-07
2.10294e-07
2.30628e-07
2.53458e-07
2.78994e-07
3.07449e-07
3.39029e-07
3.73934e-07
4.12356e-07
4.54478e-07
5.00466e-07
5.50475e-07
6.04642e-07
6.63084e-07
7.259e-07
7.93168e-07
8.64943e-07
9.41259e-07
1.02212e-06
1.10752e-06
1.19741e-06
1.29174e-06
1.39042e-06
1.49335e-06
1.60042e-06
1.7115e-06
1.82647e-06
1.94519e-06
2.06753e-06
2.19336e-06
2.32256e-06
2.45504e-06
2.59069e-06
2.72949e-06
2.87141e-06
3.0166e-06
3.16497e-06
3.31658e-06
3.47152e-06
3.6299e-06
3.79189e-06
3.95766e-06
4.1274e-06
4.30135e-06
4.47974e-06
4.6628e-06
4.8508e-06
5.04397e-06
5.24252e-06
5.44666e-06
5.65651e-06
5.87216e-06
6.09362e-06
6.32102e-06
6.55369e-06
6.79103e-06
7.03221e-06
7.27609e-06
7.52123e-06
7.76572e-06
8.00714e-06
8.24244e-06
8.46974e-06
8.68846e-06
8.88318e-06
9.05073e-06
9.17811e-06
9.28841e-06
9.36309e-06
9.38412e-06
9.34915e-06
9.25455e-06
9.09677e-06
8.87364e-06
8.58433e-06
8.22999e-06
7.81439e-06
7.34381e-06
6.82694e-06
6.27456e-06
5.69901e-06
5.11351e-06
4.53137e-06
3.96516e-06
3.42594e-06
2.92265e-06
2.46177e-06
2.04711e-06
1.67989e-06
1.35915e-06
1.0821e-06
8.44551e-07
6.41334e-07
4.66834e-07
3.15618e-07
1.84372e-07
7.75193e-08
1.40837e-08
9.44078e-11
2.83825e-12
4.43594e-10
2.72374e-09
7.20621e-09
1.31591e-08
1.99168e-08
2.71242e-08
3.46001e-08
4.22376e-08
4.99587e-08
5.76979e-08
6.53981e-08
7.30097e-08
8.04923e-08
8.78161e-08
9.49633e-08
1.0193e-07
1.08727e-07
1.1538e-07
1.21931e-07
1.28439e-07
1.34979e-07
1.41641e-07
1.48535e-07
1.55786e-07
1.63535e-07
1.71944e-07
1.81189e-07
1.91467e-07
2.02991e-07
2.15993e-07
2.30724e-07
2.47453e-07
2.66466e-07
2.88063e-07
3.1256e-07
3.40284e-07
3.7157e-07
4.06759e-07
4.46191e-07
4.90203e-07
5.39124e-07
5.93268e-07
6.52933e-07
7.18393e-07
7.89894e-07
8.67654e-07
9.51855e-07
1.04264e-06
1.14013e-06
1.24438e-06
1.35542e-06
1.47325e-06
1.59781e-06
1.729e-06
1.86671e-06
2.01076e-06
2.16096e-06
2.31709e-06
2.47893e-06
2.6463e-06
2.81892e-06
2.99654e-06
3.17895e-06
3.36594e-06
3.55734e-06
3.75301e-06
3.95284e-06
4.1567e-06
4.36465e-06
4.5767e-06
4.79286e-06
5.01338e-06
5.23847e-06
5.46839e-06
5.70347e-06
5.94406e-06
6.19056e-06
6.44343e-06
6.70315e-06
6.97022e-06
7.24515e-06
7.52846e-06
7.82064e-06
8.12216e-06
8.43341e-06
8.75469e-06
9.08618e-06
9.42783e-06
9.77914e-06
1.01399e-05
1.05092e-05
1.08857e-05
1.12675e-05
1.16526e-05
1.20375e-05
1.24181e-05
1.27894e-05
1.3149e-05
1.34937e-05
1.37995e-05
1.40684e-05
1.42722e-05
1.44421e-05
1.45656e-05
1.46045e-05
1.45569e-05
1.44178e-05
1.41824e-05
1.3847e-05
1.34104e-05
1.28747e-05
1.22452e-05
1.15308e-05
1.07442e-05
9.90065e-06
9.01831e-06
8.11662e-06
7.21554e-06
6.33426e-06
5.4901e-06
4.69751e-06
3.96738e-06
3.30667e-06
2.71841e-06
2.20197e-06
1.7536e-06
1.36709e-06
1.03444e-06
7.46855e-07
4.9627e-07
2.79863e-07
1.1046e-07
1.85479e-08
1.19117e-10
3.48705e-12
5.58717e-10
3.62655e-09
1.01914e-08
1.95136e-08
3.05188e-08
4.24862e-08
5.50087e-08
6.78441e-08
8.0829e-08
9.38368e-08
1.06761e-07
1.19513e-07
1.3202e-07
1.44227e-07
1.56102e-07
1.67635e-07
1.78839e-07
1.89757e-07
2.00454e-07
2.11027e-07
2.21595e-07
2.32308e-07
2.43341e-07
2.54897e-07
2.67204e-07
2.8052e-07
2.95128e-07
3.1134e-07
3.29493e-07
3.49955e-07
3.73116e-07
3.99395e-07
4.29232e-07
4.63088e-07
5.01442e-07
5.44783e-07
5.93608e-07
6.48414e-07
7.0969e-07
7.77908e-07
8.5352e-07
9.36943e-07
1.02856e-06
1.12869e-06
1.23763e-06
1.35559e-06
1.48274e-06
1.61917e-06
1.76491e-06
1.91994e-06
2.08416e-06
2.25745e-06
2.43959e-06
2.63032e-06
2.82935e-06
3.03634e-06
3.25092e-06
3.4727e-06
3.70126e-06
3.93621e-06
4.17721e-06
4.42396e-06
4.67616e-06
4.93357e-06
5.19603e-06
5.46344e-06
5.73576e-06
6.01312e-06
6.29552e-06
6.58312e-06
6.87609e-06
7.17486e-06
7.47984e-06
7.79153e-06
8.11049e-06
8.43733e-06
8.77275e-06
9.11748e-06
9.47232e-06
9.83807e-06
1.02155e-05
1.06056e-05
1.10089e-05
1.14262e-05
1.18581e-05
1.23049e-05
1.2767e-05
1.3244e-05
1.37354e-05
1.42405e-05
1.47578e-05
1.52851e-05
1.58196e-05
1.6357e-05
1.68927e-05
1.74208e-05
1.79347e-05
1.84272e-05
1.88933e-05
1.93106e-05
1.96725e-05
1.99452e-05
2.01534e-05
2.03106e-05
2.03496e-05
2.02689e-05
2.00643e-05
1.97305e-05
1.92635e-05
1.86622e-05
1.79296e-05
1.70726e-05
1.61026e-05
1.50351e-05
1.38897e-05
1.26892e-05
1.14585e-05
1.02234e-05
9.00924e-06
7.83942e-06
6.73405e-06
5.70892e-06
4.77484e-06
3.93737e-06
3.19704e-06
2.54982e-06
1.98788e-06
1.50063e-06
1.0761e-06
7.04331e-07
3.85684e-07
1.4511e-07
2.31327e-08
1.4488e-10
4.1746e-12
6.79379e-10
4.57915e-09
1.34736e-08
2.68583e-08
4.33026e-08
6.16021e-08
8.09836e-08
1.0097e-07
1.21239e-07
1.41554e-07
1.61725e-07
1.81599e-07
2.01051e-07
2.19987e-07
2.38348e-07
2.56113e-07
2.73299e-07
2.89963e-07
3.06204e-07
3.22165e-07
3.38027e-07
3.54013e-07
3.70387e-07
3.87452e-07
4.05552e-07
4.25067e-07
4.46419e-07
4.70065e-07
4.96502e-07
5.26261e-07
5.5991e-07
5.98048e-07
6.41302e-07
6.9032e-07
7.45771e-07
8.08329e-07
8.78668e-07
9.57451e-07
1.04532e-06
1.14287e-06
1.25067e-06
1.36921e-06
1.49892e-06
1.64015e-06
1.79316e-06
1.95814e-06
2.13514e-06
2.32416e-06
2.5251e-06
2.73775e-06
2.96181e-06
3.19694e-06
3.44272e-06
3.6987e-06
3.96436e-06
4.23918e-06
4.52262e-06
4.81418e-06
5.11332e-06
5.4195e-06
5.73233e-06
6.05144e-06
6.37654e-06
6.70741e-06
7.04394e-06
7.38611e-06
7.73399e-06
8.08778e-06
8.44768e-06
8.814e-06
9.18713e-06
9.56769e-06
9.95631e-06
1.03537e-05
1.07608e-05
1.11785e-05
1.16076e-05
1.20494e-05
1.25049e-05
1.29753e-05
1.34617e-05
1.3965e-05
1.44865e-05
1.50268e-05
1.55867e-05
1.61664e-05
1.67661e-05
1.73851e-05
1.80223e-05
1.86763e-05
1.93443e-05
2.00231e-05
2.07081e-05
2.13933e-05
2.2072e-05
2.27363e-05
2.33768e-05
2.39837e-05
2.4545e-05
2.50461e-05
2.5475e-05
2.57917e-05
2.60012e-05
2.6159e-05
2.61707e-05
2.60302e-05
2.57366e-05
2.52855e-05
2.46735e-05
2.39002e-05
2.29693e-05
2.1889e-05
2.06723e-05
1.93372e-05
1.7906e-05
1.64049e-05
1.48625e-05
1.33094e-05
1.17758e-05
1.02901e-05
8.87762e-06
7.55873e-06
6.34828e-06
5.25484e-06
4.28073e-06
3.42232e-06
2.67087e-06
2.01372e-06
1.43655e-06
9.28897e-07
4.96974e-07
1.80518e-07
2.7799e-08
1.71437e-10
4.89946e-12
8.05558e-10
5.57362e-09
1.69788e-08
3.49886e-08
5.79587e-08
8.41496e-08
1.12294e-07
1.41546e-07
1.71335e-07
2.01245e-07
2.30952e-07
2.60194e-07
2.88767e-07
3.16517e-07
3.43343e-07
3.69203e-07
3.9411e-07
4.18141e-07
4.41433e-07
4.64183e-07
4.86649e-07
5.09146e-07
5.32049e-07
5.55786e-07
5.80839e-07
6.07744e-07
6.37088e-07
6.69507e-07
7.05685e-07
7.46351e-07
7.92278e-07
8.44272e-07
9.03173e-07
9.6984e-07
1.04514e-06
1.12996e-06
1.22514e-06
1.3315e-06
1.44984e-06
1.58088e-06
1.72524e-06
1.88347e-06
2.05601e-06
2.24316e-06
2.44513e-06
2.66195e-06
2.89358e-06
3.13982e-06
3.40036e-06
3.6748e-06
3.96265e-06
4.2633e-06
4.57612e-06
4.90044e-06
5.23555e-06
5.58075e-06
5.93535e-06
6.29871e-06
6.67021e-06
7.04927e-06
7.43544e-06
7.82836e-06
8.22776e-06
8.63348e-06
9.04547e-06
9.46381e-06
9.88869e-06
1.03204e-05
1.07593e-05
1.12059e-05
1.16608e-05
1.21247e-05
1.25986e-05
1.30835e-05
1.35805e-05
1.40908e-05
1.46157e-05
1.51566e-05
1.57149e-05
1.62922e-05
1.68897e-05
1.75087e-05
1.81504e-05
1.88155e-05
1.95046e-05
2.02177e-05
2.09543e-05
2.17131e-05
2.2492e-05
2.32882e-05
2.40976e-05
2.49151e-05
2.5734e-05
2.65466e-05
2.7344e-05
2.81158e-05
2.88506e-05
2.95358e-05
3.01574e-05
3.06994e-05
3.1146e-05
3.14802e-05
3.16554e-05
3.17681e-05
3.17265e-05
3.15014e-05
3.10999e-05
3.05196e-05
2.97582e-05
2.88161e-05
2.76974e-05
2.64112e-05
2.49716e-05
2.33974e-05
2.17126e-05
1.99452e-05
1.81264e-05
1.62897e-05
1.44688e-05
1.26962e-05
1.10011e-05
9.40827e-06
7.93615e-06
6.59644e-06
5.39355e-06
4.32483e-06
3.38125e-06
2.54881e-06
1.81176e-06
1.16072e-06
6.1018e-07
2.16108e-07
3.2518e-08
1.98587e-10
5.66091e-12
9.37303e-10
6.60681e-09
2.06606e-08
4.37366e-08
7.41635e-08
1.09692e-07
1.48465e-07
1.89146e-07
2.30795e-07
2.72726e-07
3.14413e-07
3.55447e-07
3.95496e-07
4.34315e-07
4.7174e-07
5.07691e-07
5.4217e-07
5.7527e-07
6.07168e-07
6.38128e-07
6.68496e-07
6.98698e-07
7.29238e-07
7.60694e-07
7.93714e-07
8.29016e-07
8.67381e-07
9.09653e-07
9.56733e-07
1.00958e-06
1.06918e-06
1.13659e-06
1.21287e-06
1.2991e-06
1.39638e-06
1.50576e-06
1.62829e-06
1.76495e-06
1.91664e-06
2.08416e-06
2.26821e-06
2.46932e-06
2.68791e-06
2.92421e-06
3.17829e-06
3.45005e-06
3.73926e-06
4.04551e-06
4.36826e-06
4.70688e-06
5.06064e-06
5.42871e-06
5.81024e-06
6.20436e-06
6.61019e-06
7.02687e-06
7.45361e-06
7.88966e-06
8.33432e-06
8.78702e-06
9.24726e-06
9.7147e-06
1.01891e-05
1.06703e-05
1.11584e-05
1.16535e-05
1.21558e-05
1.26658e-05
1.3184e-05
1.37109e-05
1.42475e-05
1.47947e-05
1.53536e-05
1.59255e-05
1.65119e-05
1.71142e-05
1.77341e-05
1.83734e-05
1.90337e-05
1.97169e-05
2.04243e-05
2.11574e-05
2.19171e-05
2.27041e-05
2.35182e-05
2.43589e-05
2.52246e-05
2.6113e-05
2.70205e-05
2.79423e-05
2.88718e-05
2.98034e-05
3.07285e-05
3.16371e-05
3.25179e-05
3.33586e-05
3.4146e-05
3.48659e-05
3.55039e-05
3.6044e-05
3.64707e-05
3.67685e-05
3.68889e-05
3.69164e-05
3.68014e-05
3.64751e-05
3.59552e-05
3.52425e-05
3.43364e-05
3.32375e-05
3.19504e-05
3.04843e-05
2.8853e-05
2.70759e-05
2.51769e-05
2.31849e-05
2.11322e-05
1.90538e-05
1.69859e-05
1.49636e-05
1.30197e-05
1.11821e-05
9.47274e-06
7.90623e-06
6.48921e-06
5.22028e-06
4.09057e-06
3.08538e-06
2.18844e-06
1.39278e-06
7.22892e-07
2.51531e-07
3.72673e-08
2.26174e-10
6.45876e-12
1.07472e-09
7.67808e-09
2.44925e-08
5.29796e-08
9.16266e-08
1.37765e-07
1.889e-07
2.43094e-07
2.98925e-07
3.55335e-07
4.11514e-07
4.66828e-07
5.2078e-07
5.72994e-07
6.23214e-07
6.71304e-07
7.17244e-07
7.61132e-07
8.03188e-07
8.43746e-07
8.83251e-07
9.22257e-07
9.61417e-07
1.00148e-06
1.0433e-06
1.08778e-06
1.13593e-06
1.18883e-06
1.24763e-06
1.31352e-06
1.38776e-06
1.47165e-06
1.56648e-06
1.67359e-06
1.79427e-06
1.9298e-06
2.08138e-06
2.25013e-06
2.43707e-06
2.64306e-06
2.86881e-06
3.11486e-06
3.38152e-06
3.66893e-06
3.97703e-06
4.30552e-06
4.65397e-06
5.02174e-06
5.40808e-06
5.8121e-06
6.23285e-06
6.66928e-06
7.12034e-06
7.58499e-06
8.0622e-06
8.55098e-06
9.05041e-06
9.55968e-06
1.0078e-05
1.06048e-05
1.11396e-05
1.16819e-05
1.22315e-05
1.27883e-05
1.33524e-05
1.39239e-05
1.45032e-05
1.50907e-05
1.5687e-05
1.62929e-05
1.69095e-05
1.7538e-05
1.81797e-05
1.88363e-05
1.95094e-05
2.02011e-05
2.09132e-05
2.16479e-05
2.2407e-05
2.31925e-05
2.40058e-05
2.48482e-05
2.57202e-05
2.66218e-05
2.7552e-05
2.85093e-05
2.94901e-05
3.0488e-05
3.15016e-05
3.25251e-05
3.35503e-05
3.45664e-05
3.55631e-05
3.65288e-05
3.74514e-05
3.83177e-05
3.9114e-05
3.9826e-05
4.04378e-05
4.09369e-05
4.13085e-05
4.15404e-05
4.15715e-05
4.14822e-05
4.12896e-05
4.08548e-05
4.02148e-05
3.93743e-05
3.8335e-05
3.70974e-05
3.56658e-05
3.40491e-05
3.22605e-05
3.03182e-05
2.82459e-05
2.60718e-05
2.38283e-05
2.15511e-05
1.92774e-05
1.70444e-05
1.48873e-05
1.2837e-05
1.09183e-05
9.14867e-06
7.53687e-06
6.08293e-06
4.77847e-06
3.60854e-06
2.55702e-06
1.62024e-06
8.33572e-07
2.86576e-07
4.20315e-08
2.54091e-10
7.29333e-12
1.21794e-09
8.78812e-09
2.84615e-08
6.2634e-08
1.10116e-07
1.67945e-07
2.32973e-07
3.02597e-07
3.74803e-07
4.48059e-07
5.21183e-07
5.93244e-07
6.63517e-07
7.3145e-07
7.9666e-07
8.58924e-07
9.18181e-07
9.74531e-07
1.02823e-06
1.07969e-06
1.12946e-06
1.17824e-06
1.22685e-06
1.27623e-06
1.32743e-06
1.38162e-06
1.44003e-06
1.50402e-06
1.57499e-06
1.65442e-06
1.74383e-06
1.84478e-06
1.95884e-06
2.08758e-06
2.23251e-06
2.39511e-06
2.57675e-06
2.77868e-06
3.002e-06
3.24764e-06
3.51629e-06
3.80845e-06
4.12436e-06
4.46402e-06
4.8272e-06
5.21344e-06
5.62206e-06
6.05222e-06
6.50293e-06
6.97307e-06
7.46146e-06
7.96688e-06
8.48807e-06
9.02383e-06
9.57296e-06
1.01344e-05
1.0707e-05
1.129e-05
1.18824e-05
1.24836e-05
1.30929e-05
1.37101e-05
1.43346e-05
1.49665e-05
1.56056e-05
1.62522e-05
1.69067e-05
1.75695e-05
1.82414e-05
1.89234e-05
1.96167e-05
2.03229e-05
2.10436e-05
2.17808e-05
2.25367e-05
2.33135e-05
2.41134e-05
2.49388e-05
2.57917e-05
2.6674e-05
2.7587e-05
2.85314e-05
2.95071e-05
3.05128e-05
3.1544e-05
3.2597e-05
3.36718e-05
3.47649e-05
3.58647e-05
3.69624e-05
3.80484e-05
3.9112e-05
4.01414e-05
4.11243e-05
4.2048e-05
4.28992e-05
4.36645e-05
4.43305e-05
4.48839e-05
4.53095e-05
4.55966e-05
4.57375e-05
4.56747e-05
4.54428e-05
4.51502e-05
4.4624e-05
4.38688e-05
4.291e-05
4.17529e-05
4.03971e-05
3.88465e-05
3.71089e-05
3.51962e-05
3.31251e-05
3.09179e-05
2.86016e-05
2.62076e-05
2.37713e-05
2.13304e-05
1.89233e-05
1.6587e-05
1.43548e-05
1.22543e-05
1.03055e-05
8.51938e-06
6.89756e-06
5.43231e-06
4.10877e-06
2.91133e-06
1.84007e-06
9.41322e-07
3.21132e-07
4.68016e-08
2.82268e-10
8.16526e-12
1.36716e-09
9.93839e-09
3.25637e-08
7.26492e-08
1.29463e-07
1.99871e-07
2.80107e-07
3.66854e-07
4.57425e-07
5.49716e-07
6.42082e-07
7.33224e-07
8.2212e-07
9.07993e-07
9.90288e-07
1.06867e-06
1.14301e-06
1.21341e-06
1.28013e-06
1.34368e-06
1.40472e-06
1.46409e-06
1.5228e-06
1.582e-06
1.64298e-06
1.70716e-06
1.77606e-06
1.85131e-06
1.9346e-06
2.02772e-06
2.13247e-06
2.25069e-06
2.38424e-06
2.53492e-06
2.70448e-06
2.8946e-06
3.10681e-06
3.34249e-06
3.60281e-06
3.88874e-06
4.20097e-06
4.53994e-06
4.90579e-06
5.29839e-06
5.71734e-06
6.16199e-06
6.63144e-06
7.12463e-06
7.64034e-06
8.17724e-06
8.73393e-06
9.30898e-06
9.90095e-06
1.05084e-05
1.11301e-05
1.17647e-05
1.24111e-05
1.30681e-05
1.37348e-05
1.44103e-05
1.5094e-05
1.57852e-05
1.64836e-05
1.71889e-05
1.79011e-05
1.86203e-05
1.93469e-05
2.00815e-05
2.0825e-05
2.15787e-05
2.23442e-05
2.31232e-05
2.39179e-05
2.47306e-05
2.55641e-05
2.64207e-05
2.73031e-05
2.82137e-05
2.91541e-05
3.01266e-05
3.11315e-05
3.21686e-05
3.3233e-05
3.43226e-05
3.54408e-05
3.65823e-05
3.77364e-05
3.8895e-05
4.00491e-05
4.11883e-05
4.23016e-05
4.33773e-05
4.4403e-05
4.53664e-05
4.62549e-05
4.70562e-05
4.7758e-05
4.83485e-05
4.88161e-05
4.91501e-05
4.93397e-05
4.93716e-05
4.9207e-05
4.88445e-05
4.84146e-05
4.78026e-05
4.69561e-05
4.58909e-05
4.46324e-05
4.3179e-05
4.15334e-05
3.97023e-05
3.76957e-05
3.55284e-05
3.32205e-05
3.07972e-05
2.82884e-05
2.57284e-05
2.31546e-05
2.06058e-05
1.81205e-05
1.57342e-05
1.34768e-05
1.1371e-05
9.43013e-06
7.65732e-06
6.04579e-06
4.58098e-06
3.248e-06
2.05063e-06
1.04571e-06
3.55159e-07
5.15746e-08
3.10679e-10
9.07556e-12
1.5226e-09
1.11308e-08
3.68003e-08
8.2999e-08
1.49554e-07
2.33269e-07
3.29811e-07
4.35134e-07
5.45812e-07
6.59091e-07
7.72779e-07
8.8513e-07
9.94765e-07
1.10063e-06
1.20194e-06
1.29824e-06
1.38929e-06
1.47516e-06
1.55615e-06
1.63283e-06
1.70597e-06
1.77659e-06
1.84589e-06
1.91525e-06
1.98621e-06
2.06048e-06
2.13987e-06
2.22632e-06
2.32185e-06
2.42855e-06
2.54855e-06
2.68398e-06
2.83699e-06
3.00964e-06
3.20393e-06
3.42172e-06
3.66472e-06
3.93442e-06
4.23208e-06
4.55869e-06
4.91494e-06
5.3012e-06
5.71752e-06
6.16362e-06
6.63894e-06
7.14262e-06
7.67357e-06
8.23049e-06
8.81194e-06
9.41636e-06
1.00421e-05
1.06876e-05
1.13511e-05
1.20311e-05
1.27259e-05
1.34342e-05
1.41546e-05
1.48857e-05
1.56265e-05
1.63758e-05
1.71327e-05
1.78965e-05
1.86667e-05
1.94428e-05
2.02248e-05
2.10127e-05
2.18071e-05
2.26087e-05
2.34188e-05
2.42388e-05
2.50707e-05
2.59168e-05
2.67798e-05
2.76625e-05
2.85678e-05
2.94987e-05
3.04579e-05
3.14477e-05
3.24689e-05
3.3524e-05
3.4608e-05
3.57176e-05
3.6862e-05
3.80363e-05
3.92281e-05
4.04309e-05
4.16362e-05
4.28341e-05
4.40141e-05
4.51645e-05
4.62737e-05
4.73294e-05
4.83198e-05
4.9233e-05
5.00574e-05
5.07822e-05
5.13968e-05
5.18911e-05
5.22556e-05
5.24815e-05
5.25599e-05
5.2483e-05
5.22278e-05
5.17522e-05
5.11838e-05
5.04506e-05
4.95353e-05
4.83835e-05
4.70391e-05
4.55066e-05
4.37868e-05
4.18859e-05
3.98113e-05
3.75754e-05
3.5196e-05
3.26958e-05
3.01026e-05
2.74489e-05
2.47714e-05
2.21089e-05
1.95008e-05
1.69842e-05
1.45917e-05
1.23483e-05
1.02698e-05
8.36139e-06
6.61729e-06
5.02346e-06
3.56578e-06
2.25137e-06
1.14664e-06
3.88677e-07
5.63535e-08
3.39328e-10
1.00255e-11
1.6845e-09
1.23677e-08
4.11765e-08
9.36749e-08
1.70323e-07
2.67939e-07
3.81701e-07
5.06819e-07
6.39092e-07
7.75049e-07
9.1188e-07
1.04732e-06
1.17958e-06
1.30725e-06
1.42932e-06
1.54512e-06
1.65432e-06
1.75693e-06
1.85326e-06
1.94395e-06
2.02989e-06
2.11227e-06
2.19249e-06
2.27218e-06
2.35317e-06
2.43745e-06
2.52718e-06
2.62463e-06
2.73214e-06
2.85216e-06
2.98716e-06
3.13958e-06
3.31187e-06
3.50638e-06
3.72534e-06
3.97083e-06
4.24472e-06
4.54862e-06
4.88389e-06
5.25153e-06
5.65221e-06
6.08626e-06
6.55361e-06
7.05385e-06
7.58624e-06
8.14972e-06
8.74298e-06
9.36451e-06
1.00126e-05
1.06855e-05
1.13812e-05
1.2098e-05
1.28339e-05
1.3587e-05
1.43556e-05
1.51379e-05
1.59323e-05
1.67371e-05
1.7551e-05
1.83727e-05
1.9201e-05
2.00348e-05
2.08736e-05
2.17167e-05
2.2564e-05
2.34158e-05
2.42725e-05
2.51354e-05
2.60059e-05
2.6886e-05
2.77782e-05
2.86854e-05
2.96108e-05
3.05577e-05
3.15295e-05
3.25293e-05
3.35596e-05
3.46231e-05
3.57173e-05
3.68338e-05
3.79879e-05
3.91786e-05
4.03939e-05
4.16285e-05
4.28713e-05
4.41144e-05
4.53476e-05
4.65598e-05
4.77392e-05
4.88738e-05
4.99517e-05
5.09614e-05
5.18915e-05
5.27314e-05
5.34712e-05
5.41015e-05
5.46137e-05
5.49998e-05
5.52522e-05
5.53637e-05
5.53275e-05
5.51364e-05
5.4782e-05
5.4209e-05
5.35231e-05
5.27097e-05
5.16765e-05
5.04667e-05
4.90492e-05
4.74527e-05
4.56755e-05
4.37237e-05
4.16019e-05
3.93196e-05
3.68923e-05
3.43398e-05
3.16872e-05
2.89649e-05
2.62082e-05
2.34553e-05
2.07461e-05
1.81194e-05
1.56098e-05
1.32451e-05
1.10437e-05
9.01295e-06
7.14845e-06
5.43691e-06
3.86495e-06
2.4425e-06
1.24425e-06
4.21748e-07
6.11465e-08
3.68255e-10
1.10166e-11
1.85317e-09
1.36515e-08
4.56996e-08
1.04681e-07
1.91738e-07
3.03757e-07
4.35503e-07
5.81429e-07
7.36544e-07
8.96611e-07
1.05814e-06
1.21829e-06
1.37479e-06
1.52586e-06
1.67018e-06
1.80686e-06
1.93544e-06
2.05585e-06
2.16842e-06
2.27382e-06
2.3731e-06
2.46759e-06
2.55893e-06
2.64901e-06
2.73995e-06
2.83409e-06
2.9339e-06
3.04203e-06
3.1612e-06
3.29421e-06
3.44389e-06
3.61304e-06
3.80441e-06
4.02063e-06
4.26421e-06
4.53744e-06
4.84234e-06
5.18069e-06
5.55389e-06
5.96298e-06
6.40864e-06
6.8911e-06
7.4102e-06
7.96539e-06
8.55573e-06
9.17997e-06
9.83657e-06
1.05238e-05
1.12396e-05
1.19819e-05
1.27487e-05
1.35376e-05
1.43466e-05
1.51734e-05
1.6016e-05
1.68721e-05
1.77399e-05
1.86174e-05
1.95029e-05
2.03947e-05
2.12913e-05
2.21916e-05
2.30946e-05
2.39998e-05
2.4907e-05
2.58166e-05
2.67295e-05
2.76471e-05
2.85715e-05
2.95053e-05
3.04517e-05
3.14141e-05
3.23963e-05
3.34022e-05
3.44353e-05
3.54991e-05
3.65951e-05
3.77173e-05
3.88655e-05
4.00612e-05
4.12873e-05
4.25356e-05
4.38018e-05
4.50815e-05
4.63574e-05
4.76207e-05
4.88604e-05
5.00646e-05
5.12211e-05
5.2318e-05
5.33439e-05
5.4288e-05
5.51405e-05
5.58923e-05
5.65348e-05
5.70608e-05
5.74633e-05
5.77363e-05
5.78738e-05
5.78706e-05
5.77212e-05
5.74206e-05
5.69651e-05
5.63019e-05
5.54938e-05
5.46027e-05
5.34958e-05
5.22218e-05
5.07564e-05
4.9092e-05
4.7269e-05
4.52803e-05
4.31268e-05
4.08149e-05
3.83577e-05
3.5772e-05
3.30799e-05
3.03093e-05
2.74932e-05
2.46691e-05
2.18769e-05
1.91565e-05
1.65447e-05
1.4072e-05
1.17598e-05
9.61759e-06
7.64298e-06
5.82361e-06
4.14682e-06
2.62478e-06
1.33885e-06
4.54473e-07
6.5966e-08
3.97524e-10
1.20507e-11
2.02894e-09
1.49851e-08
5.03788e-08
1.16031e-07
2.13792e-07
3.40659e-07
4.91035e-07
6.58616e-07
8.37613e-07
1.02298e-06
1.21051e-06
1.39673e-06
1.57884e-06
1.75463e-06
1.92245e-06
2.08116e-06
2.23014e-06
2.36923e-06
2.49875e-06
2.61943e-06
2.73242e-06
2.83926e-06
2.9418e-06
3.04223e-06
3.14297e-06
3.24671e-06
3.35631e-06
3.47479e-06
3.60527e-06
3.75095e-06
3.91502e-06
4.10066e-06
4.31095e-06
4.54883e-06
4.81707e-06
5.11817e-06
5.45435e-06
5.82751e-06
6.23913e-06
6.69029e-06
7.18163e-06
7.71333e-06
8.28512e-06
8.89626e-06
9.54566e-06
1.02318e-05
1.09529e-05
1.17069e-05
1.24916e-05
1.33045e-05
1.41432e-05
1.50052e-05
1.58877e-05
1.67884e-05
1.77046e-05
1.86339e-05
1.95739e-05
2.05222e-05
2.14766e-05
2.24353e-05
2.33963e-05
2.43583e-05
2.53203e-05
2.62817e-05
2.72425e-05
2.82033e-05
2.91655e-05
3.01312e-05
3.11029e-05
3.20842e-05
3.30789e-05
3.40912e-05
3.51255e-05
3.6186e-05
3.72762e-05
3.83997e-05
3.95384e-05
4.07288e-05
4.19504e-05
4.32034e-05
4.44843e-05
4.57775e-05
4.7078e-05
4.83899e-05
4.96827e-05
5.09486e-05
5.2177e-05
5.33554e-05
5.44719e-05
5.55153e-05
5.64751e-05
5.73419e-05
5.8107e-05
5.87631e-05
5.93033e-05
5.97219e-05
6.00136e-05
6.0174e-05
6.01986e-05
6.00841e-05
5.98259e-05
5.94203e-05
5.88656e-05
5.8124e-05
5.72057e-05
5.62304e-05
5.50559e-05
5.37003e-05
5.22127e-05
5.05223e-05
4.86372e-05
4.66172e-05
4.44422e-05
4.21119e-05
3.96376e-05
3.70329e-05
3.43164e-05
3.15131e-05
2.86535e-05
2.57737e-05
2.29131e-05
2.01125e-05
1.74105e-05
1.48406e-05
1.2427e-05
1.01821e-05
8.10573e-06
6.18677e-06
4.41334e-06
2.79923e-06
1.43087e-06
4.86977e-07
7.08278e-08
4.27221e-10
1.31297e-11
2.21215e-09
1.63713e-08
5.52242e-08
1.27744e-07
2.36503e-07
3.78628e-07
5.48199e-07
7.38155e-07
9.41905e-07
1.15358e-06
1.36819e-06
1.5816e-06
1.79044e-06
1.99205e-06
2.18439e-06
2.36606e-06
2.53625e-06
2.6947e-06
2.8417e-06
2.97804e-06
3.10501e-06
3.22432e-06
3.33806e-06
3.44872e-06
3.55906e-06
3.67214e-06
3.79123e-06
3.91974e-06
4.06123e-06
4.21931e-06
4.39757e-06
4.59957e-06
4.82874e-06
5.08835e-06