/*--------------------------------*- C++ -*----------------------------------*\
  =========                 |
  \\      /  F ield         | OpenFOAM: The Open Source CFD Toolbox
   \\    /   O peration     | Website:  https://openfoam.org
    \\  /    A nd           | Version:  12
     \\/     M anipulation  |
\*---------------------------------------------------------------------------*/
FoamFile
{
    format      ascii;
    class       volVectorField;
    location    "10";
    object      U;
}
// * * * * * * * * * * * * * * * * * * * * * * * * * * * * * * * * * * * * * //

dimensions      [0 1 -1 0 0 0 0];

internalField   nonuniform List<vector> 
18225
(
(-3.25775e-06 1.50302e-06 0)
(-1.01547e-05 9.783e-07 0)
(-1.03264e-05 9.88156e-08 0)
(-1.0193e-06 -8.47162e-07 0)
(1.82512e-05 -1.70373e-06 0)
(4.66979e-05 -2.44773e-06 0)
(8.3209e-05 -3.07352e-06 0)
(0.000126569 -3.58551e-06 0)
(0.00017555 -3.99097e-06 0)
(0.000228961 -4.2972e-06 0)
(0.000285663 -4.51163e-06 0)
(0.000344584 -4.64156e-06 0)
(0.000404729 -4.69451e-06 0)
(0.00046519 -4.67822e-06 0)
(0.000525144 -4.60063e-06 0)
(0.000583867 -4.47002e-06 0)
(0.000640732 -4.29471e-06 0)
(0.000695214 -4.08316e-06 0)
(0.000746888 -3.84366e-06 0)
(0.000795428 -3.58434e-06 0)
(0.000840604 -3.31289e-06 0)
(0.000882277 -3.03654e-06 0)
(0.000920394 -2.76192e-06 0)
(0.000954977 -2.49498e-06 0)
(0.000986121 -2.24104e-06 0)
(0.00101398 -2.00479e-06 0)
(0.00103876 -1.79009e-06 0)
(0.0010607 -1.59982e-06 0)
(0.00108009 -1.43597e-06 0)
(0.00109721 -1.29978e-06 0)
(0.00111238 -1.19173e-06 0)
(0.00112589 -1.1115e-06 0)
(0.00113805 -1.05799e-06 0)
(0.00114911 -1.02927e-06 0)
(0.00115933 -1.02263e-06 0)
(0.00116888 -1.03462e-06 0)
(0.00117792 -1.06112e-06 0)
(0.00118652 -1.09712e-06 0)
(0.00119468 -1.13696e-06 0)
(0.00120236 -1.17644e-06 0)
(0.00120938 -1.2062e-06 0)
(0.00121552 -1.22212e-06 0)
(0.00122043 -1.21569e-06 0)
(0.00122368 -1.18111e-06 0)
(0.00122475 -1.11105e-06 0)
(0.00122302 -9.978e-07 0)
(0.00121774 -8.34738e-07 0)
(0.00120812 -6.15101e-07 0)
(0.00119323 -3.32351e-07 0)
(0.00117205 2.01768e-08 0)
(0.0011435 4.4915e-07 0)
(0.00110636 9.61424e-07 0)
(0.00105936 1.56393e-06 0)
(0.00100109 2.26434e-06 0)
(0.000930068 3.07045e-06 0)
(0.000844714 3.989e-06 0)
(0.000743329 5.03041e-06 0)
(0.000624121 6.20614e-06 0)
(0.00048519 7.52606e-06 0)
(0.000324542 9.00223e-06 0)
(0.000140077 1.06388e-05 0)
(-7.03875e-05 1.2446e-05 0)
(-0.000309097 1.4433e-05 0)
(-0.000578359 1.6613e-05 0)
(-0.000880505 1.89919e-05 0)
(-0.00121784 2.15723e-05 0)
(-0.00159263 2.43575e-05 0)
(-0.00200707 2.73473e-05 0)
(-0.00246323 3.05384e-05 0)
(-0.002963 3.39236e-05 0)
(-0.00350801 3.74916e-05 0)
(-0.00409965 4.12265e-05 0)
(-0.00473895 4.5108e-05 0)
(-0.00542651 4.91105e-05 0)
(-0.00616253 5.32034e-05 0)
(-0.00694665 5.7351e-05 0)
(-0.00777799 6.15122e-05 0)
(-0.00865505 6.56413e-05 0)
(-0.00957568 6.96874e-05 0)
(-0.0105371 7.35957e-05 0)
(-0.0115357 7.73071e-05 0)
(-0.0125673 8.07591e-05 0)
(-0.013627 8.38859e-05 0)
(-0.014709 8.66192e-05 0)
(-0.0158068 8.88884e-05 0)
(-0.0169134 9.06215e-05 0)
(-0.0180207 9.1745e-05 0)
(-0.0191202 9.2185e-05 0)
(-0.0202026 9.18672e-05 0)
(-0.0212581 9.0718e-05 0)
(-0.022276 8.86652e-05 0)
(-0.0232452 8.56389e-05 0)
(-0.0241542 8.15732e-05 0)
(-0.0249909 7.6407e-05 0)
(-0.0257429 7.00912e-05 0)
(-0.0263977 6.2608e-05 0)
(-0.0269413 5.36067e-05 0)
(-0.0273623 4.36181e-05 0)
(-0.0276472 3.25636e-05 0)
(-0.0277873 1.96497e-05 0)
(-0.0277706 6.28244e-06 0)
(-0.0275848 -8.16537e-06 0)
(-0.0272245 -2.36996e-05 0)
(-0.0266831 -3.99079e-05 0)
(-0.0259575 -5.64831e-05 0)
(-0.0250481 -7.31046e-05 0)
(-0.0239587 -8.9428e-05 0)
(-0.0226974 -0.000105034 0)
(-0.0212762 -0.000119461 0)
(-0.0197123 -0.000132232 0)
(-0.0180271 -0.000142869 0)
(-0.0162466 -0.000150929 0)
(-0.0144009 -0.000156032 0)
(-0.0125229 -0.000157894 0)
(-0.010648 -0.000156355 0)
(-0.00881219 -0.000151403 0)
(-0.00705078 -0.000143189 0)
(-0.00539696 -0.000132029 0)
(-0.00388013 -0.000118385 0)
(-0.00252466 -0.00010284 0)
(-0.00134877 -8.60547e-05 0)
(-0.000363863 -6.87181e-05 0)
(0.000425604 -5.15416e-05 0)
(0.00102196 -3.50637e-05 0)
(0.00143358 -1.9795e-05 0)
(0.00167397 -6.12161e-06 0)
(0.00176059 5.7062e-06 0)
(0.00171349 1.5637e-05 0)
(0.00155552 2.34988e-05 0)
(0.00131037 2.92876e-05 0)
(0.00100512 3.27073e-05 0)
(0.000671361 3.30479e-05 0)
(0.000349183 2.91577e-05 0)
(9.7027e-05 1.78323e-05 0)
(-1.01937e-05 -3.70706e-06 0)
(-5.49553e-06 6.23196e-06 0)
(-1.58562e-05 3.37055e-06 0)
(-8.0501e-06 -5.10836e-06 0)
(2.42415e-05 -1.5027e-05 0)
(8.25317e-05 -2.46935e-05 0)
(0.00016531 -3.34481e-05 0)
(0.000269968 -4.10451e-05 0)
(0.000393435 -4.74122e-05 0)
(0.000532492 -5.25532e-05 0)
(0.000683929 -5.65074e-05 0)
(0.000844635 -5.9334e-05 0)
(0.00101166 -6.11047e-05 0)
(0.00118223 -6.19007e-05 0)
(0.00135381 -6.18104e-05 0)
(0.0015241 -6.09283e-05 0)
(0.00169105 -5.93532e-05 0)
(0.00185289 -5.71869e-05 0)
(0.00200811 -5.4532e-05 0)
(0.00215551 -5.14905e-05 0)
(0.00229412 -4.81621e-05 0)
(0.00242327 -4.46423e-05 0)
(0.00254253 -4.10211e-05 0)
(0.00265168 -3.73817e-05 0)
(0.00275076 -3.37993e-05 0)
(0.00283998 -3.03406e-05 0)
(0.00291971 -2.70627e-05 0)
(0.00299048 -2.40127e-05 0)
(0.00305292 -2.12273e-05 0)
(0.00310775 -1.87319e-05 0)
(0.00315574 -1.65415e-05 0)
(0.00319769 -1.466e-05 0)
(0.00323438 -1.30804e-05 0)
(0.00326657 -1.17849e-05 0)
(0.00329494 -1.07448e-05 0)
(0.00332008 -9.92082e-06 0)
(0.00334245 -9.26378e-06 0)
(0.00336236 -8.71469e-06 0)
(0.00337993 -8.2047e-06 0)
(0.00339508 -7.65821e-06 0)
(0.00340752 -6.99664e-06 0)
(0.00341669 -6.12153e-06 0)
(0.0034218 -4.94584e-06 0)
(0.00342175 -3.36676e-06 0)
(0.0034152 -1.29485e-06 0)
(0.00340049 1.38264e-06 0)
(0.00337569 4.76135e-06 0)
(0.0033386 8.942e-06 0)
(0.00328669 1.4024e-05 0)
(0.00321719 2.0105e-05 0)
(0.00312704 2.72823e-05 0)
(0.00301288 3.56526e-05 0)
(0.00287112 4.53132e-05 0)
(0.00269784 5.63622e-05 0)
(0.0024889 6.8901e-05 0)
(0.00223982 8.30303e-05 0)
(0.00194589 9.88531e-05 0)
(0.00160208 0.000116479 0)
(0.00120315 0.000136036 0)
(0.000743495 0.000157588 0)
(0.000217364 0.00018122 0)
(-0.000381252 0.000207049 0)
(-0.00105863 0.000235174 0)
(-0.00182116 0.000265644 0)
(-0.00267517 0.000298471 0)
(-0.00362698 0.00033366 0)
(-0.00468286 0.000371185 0)
(-0.0058488 0.000410978 0)
(-0.00713047 0.000452923 0)
(-0.00853299 0.000496857 0)
(-0.0100609 0.000542564 0)
(-0.0117179 0.00058977 0)
(-0.0135066 0.000638145 0)
(-0.0154289 0.000687303 0)
(-0.017485 0.000736799 0)
(-0.0196739 0.000786131 0)
(-0.0219931 0.000834748 0)
(-0.0244382 0.00088205 0)
(-0.0270034 0.000927394 0)
(-0.0296807 0.000970102 0)
(-0.0324604 0.00100947 0)
(-0.0353308 0.00104477 0)
(-0.0382782 0.00107525 0)
(-0.041287 0.00110018 0)
(-0.0443397 0.00111879 0)
(-0.0474169 0.00113035 0)
(-0.0504971 0.00113413 0)
(-0.0535576 0.00112941 0)
(-0.0565734 0.00111551 0)
(-0.0595185 0.00109176 0)
(-0.0623652 0.00105754 0)
(-0.0650844 0.00101227 0)
(-0.0676461 0.000955438 0)
(-0.0700192 0.000886583 0)
(-0.0721718 0.000805346 0)
(-0.0740719 0.000711468 0)
(-0.075687 0.000604714 0)
(-0.0769829 0.000484517 0)
(-0.0779349 0.000350883 0)
(-0.0784949 0.000207144 0)
(-0.07866 5.44078e-05 0)
(-0.0783941 -0.000111981 0)
(-0.0776717 -0.00028619 0)
(-0.0764799 -0.000467128 0)
(-0.0748065 -0.00065244 0)
(-0.0726477 -0.00083887 0)
(-0.070008 -0.00102292 0)
(-0.0669013 -0.00120086 0)
(-0.0633512 -0.00136847 0)
(-0.0593921 -0.00152122 0)
(-0.0550699 -0.00165447 0)
(-0.0504413 -0.00176368 0)
(-0.0455738 -0.00184467 0)
(-0.0405446 -0.00189388 0)
(-0.035438 -0.00190868 0)
(-0.0303436 -0.00188758 0)
(-0.025353 -0.00183048 0)
(-0.0205564 -0.00173879 0)
(-0.016039 -0.00161545 0)
(-0.011877 -0.00146484 0)
(-0.00813458 -0.00129254 0)
(-0.00486119 -0.00110504 0)
(-0.00208954 -0.000909247 0)
(0.000165121 -0.000712167 0)
(0.00190474 -0.000520161 0)
(0.00314739 -0.000339029 0)
(0.00392485 -0.00017336 0)
(0.0042804 -2.67058e-05 0)
(0.00426557 9.84321e-05 0)
(0.00394135 0.000199618 0)
(0.00337121 0.000275125 0)
(0.00263032 0.000320794 0)
(0.0018044 0.000330141 0)
(0.000997562 0.00029256 0)
(0.000347984 0.000192532 0)
(1.16221e-05 4.09803e-05 0)
(-5.57979e-06 1.12023e-05 0)
(-1.15401e-05 2.34729e-06 0)
(1.08284e-05 -1.95769e-05 0)
(6.98121e-05 -4.52783e-05 0)
(0.000167757 -7.07058e-05 0)
(0.000302884 -9.40394e-05 0)
(0.0004716 -0.000114497 0)
(0.000669442 -0.000131779 0)
(0.000891592 -0.000145823 0)
(0.00113316 -0.000156689 0)
(0.00138934 -0.000164505 0)
(0.00165555 -0.000169448 0)
(0.00192746 -0.000171724 0)
(0.00220107 -0.000171568 0)
(0.00247276 -0.00016923 0)
(0.00273927 -0.000164976 0)
(0.0029978 -0.00015908 0)
(0.00324595 -0.000151819 0)
(0.00348174 -0.000143471 0)
(0.00370365 -0.000134305 0)
(0.00391053 -0.000124582 0)
(0.00410167 -0.000114546 0)
(0.00427667 -0.000104423 0)
(0.00443552 -9.44203e-05 0)
(0.00457849 -8.47178e-05 0)
(0.0047061 -7.54716e-05 0)
(0.00481911 -6.68098e-05 0)
(0.00491844 -5.88315e-05 0)
(0.00500517 -5.1606e-05 0)
(0.00508041 -4.51722e-05 0)
(0.00514536 -3.95388e-05 0)
(0.00520117 -3.4684e-05 0)
(0.00524893 -3.05553e-05 0)
(0.00528963 -2.70702e-05 0)
(0.00532409 -2.41169e-05 0)
(0.00535292 -2.15551e-05 0)
(0.00537648 -1.92176e-05 0)
(0.00539485 -1.69102e-05 0)
(0.00540775 -1.44194e-05 0)
(0.00541457 -1.15158e-05 0)
(0.00541425 -7.93216e-06 0)
(0.00540539 -3.41957e-06 0)
(0.00538603 2.31774e-06 0)
(0.00535386 9.54539e-06 0)
(0.00530604 1.85611e-05 0)
(0.00523929 2.9648e-05 0)
(0.00514983 4.3093e-05 0)
(0.00503346 5.91803e-05 0)
(0.00488545 7.81902e-05 0)
(0.00470067 0.000100401 0)
(0.00447351 0.000126087 0)
(0.00419791 0.000155527 0)
(0.00386737 0.000188995 0)
(0.00347493 0.000226775 0)
(0.0030132 0.000269144 0)
(0.00247435 0.000316393 0)
(0.0018501 0.000368846 0)
(0.00113188 0.000426602 0)
(0.000310643 0.000490062 0)
(-0.000623161 0.000559493 0)
(-0.0016793 0.000635101 0)
(-0.00286755 0.000717007 0)
(-0.00419787 0.000805288 0)
(-0.00568025 0.000899968 0)
(-0.00732447 0.00100099 0)
(-0.00913999 0.00110819 0)
(-0.0111357 0.00122127 0)
(-0.0133199 0.00133981 0)
(-0.0156996 0.00146326 0)
(-0.0182808 0.0015909 0)
(-0.0210681 0.00172186 0)
(-0.0240641 0.00185511 0)
(-0.0272698 0.00198948 0)
(-0.0306837 0.00212362 0)
(-0.0343022 0.00225608 0)
(-0.0381188 0.00238524 0)
(-0.0421244 0.00250939 0)
(-0.0463071 0.00262672 0)
(-0.0506519 0.00273534 0)
(-0.055141 0.00283332 0)
(-0.0597533 0.0029187 0)
(-0.064465 0.00298949 0)
(-0.0692492 0.00304374 0)
(-0.0740764 0.00307952 0)
(-0.0789141 0.00309495 0)
(-0.0837276 0.00308822 0)
(-0.0884795 0.00305759 0)
(-0.0931305 0.00300142 0)
(-0.0976393 0.00291818 0)
(-0.101963 0.00280648 0)
(-0.106056 0.00266506 0)
(-0.109874 0.00249284 0)
(-0.113369 0.00228896 0)
(-0.116496 0.0020528 0)
(-0.119205 0.00178402 0)
(-0.121452 0.00148257 0)
(-0.123187 0.00114819 0)
(-0.124379 0.000777327 0)
(-0.124952 0.00039107 0)
(-0.124921 -3.15352e-05 0)
(-0.124215 -0.000476073 0)
(-0.122818 -0.000941059 0)
(-0.120711 -0.00142024 0)
(-0.11788 -0.00190756 0)
(-0.114327 -0.00239482 0)
(-0.110061 -0.00287308 0)
(-0.105108 -0.00333285 0)
(-0.0995056 -0.00376363 0)
(-0.0933081 -0.00415422 0)
(-0.0865843 -0.00449321 0)
(-0.0794187 -0.00476952 0)
(-0.0719106 -0.00497295 0)
(-0.0641719 -0.00509486 0)
(-0.0563253 -0.00512878 0)
(-0.0485005 -0.00507107 0)
(-0.0408303 -0.0049214 0)
(-0.0334459 -0.00468307 0)
(-0.026472 -0.00436313 0)
(-0.0200215 -0.00397217 0)
(-0.0141909 -0.00352388 0)
(-0.00905631 -0.00303423 0)
(-0.0046703 -0.00252055 0)
(-0.0010606 -0.00200048 0)
(0.00177023 -0.00149073 0)
(0.00384355 -0.00100641 0)
(0.00520206 -0.000560186 0)
(0.00590693 -0.000162224 0)
(0.00603347 0.000179614 0)
(0.0056722 0.00045805 0)
(0.00492074 0.000667243 0)
(0.00389417 0.000796024 0)
(0.00272291 0.000829013 0)
(0.00156006 0.00074335 0)
(0.00059824 0.000511775 0)
(4.40406e-05 0.000155841 0)
(-4.61281e-06 1.43896e-05 0)
(-9.56603e-07 -4.83873e-06 0)
(4.0729e-05 -4.55784e-05 0)
(0.000129311 -9.30532e-05 0)
(0.000267523 -0.000140365 0)
(0.000453458 -0.000184132 0)
(0.00068284 -0.000222765 0)
(0.000950154 -0.000255582 0)
(0.0012493 -0.00028237 0)
(0.001574 -0.000303178 0)
(0.00191802 -0.000318209 0)
(0.00227535 -0.000327767 0)
(0.00264029 -0.00033223 0)
(0.00300757 -0.000332028 0)
(0.00337235 -0.000327631 0)
(0.00373034 -0.00031954 0)
(0.00407776 -0.000308272 0)
(0.00441139 -0.000294355 0)
(0.00472858 -0.000278313 0)
(0.00502722 -0.00026066 0)
(0.00530576 -0.000241891 0)
(0.00556314 -0.000222471 0)
(0.00579881 -0.000202833 0)
(0.00601265 -0.000183369 0)
(0.00620493 -0.000164424 0)
(0.00637627 -0.000146294 0)
(0.00652758 -0.000129224 0)
(0.00666001 -0.000113401 0)
(0.00677485 -9.89553e-05 0)
(0.00687353 -8.59593e-05 0)
(0.00695748 -7.44258e-05 0)
(0.00702814 -6.43084e-05 0)
(0.00708683 -5.55013e-05 0)
(0.00713472 -4.78403e-05 0)
(0.00717277 -4.1104e-05 0)
(0.00720164 -3.50155e-05 0)
(0.00722165 -2.92452e-05 0)
(0.00723269 -2.34122e-05 0)
(0.00723424 -1.70952e-05 0)
(0.00722526 -9.84921e-06 0)
(0.00720412 -1.14084e-06 0)
(0.00716868 9.52804e-06 0)
(0.00711612 2.27109e-05 0)
(0.00704305 3.89603e-05 0)
(0.00694541 5.8846e-05 0)
(0.0068185 8.29332e-05 0)
(0.00665696 0.000111789 0)
(0.00645478 0.000145975 0)
(0.00620533 0.000186047 0)
(0.00590134 0.000232554 0)
(0.0055349 0.000286041 0)
(0.00509749 0.000347051 0)
(0.00458 0.000416124 0)
(0.0039727 0.000493809 0)
(0.00326528 0.000580678 0)
(0.00244689 0.000677159 0)
(0.00150623 0.000783725 0)
(0.000431143 0.000901104 0)
(-0.000790818 0.0010297 0)
(-0.00217235 0.00116987 0)
(-0.00372647 0.00132194 0)
(-0.00546641 0.00148613 0)
(-0.00740534 0.00166253 0)
(-0.0095563 0.00185107 0)
(-0.0119319 0.0020515 0)
(-0.014544 0.00226337 0)
(-0.0174036 0.00248595 0)
(-0.0205203 0.00271827 0)
(-0.0239025 0.00295908 0)
(-0.0275561 0.00320681 0)
(-0.0314854 0.00345961 0)
(-0.0356916 0.00371533 0)
(-0.0401733 0.00397153 0)
(-0.044926 0.00422547 0)
(-0.0499415 0.00447418 0)
(-0.0552083 0.00471447 0)
(-0.0607109 0.00494294 0)
(-0.0664301 0.00515608 0)
(-0.0723425 0.00535024 0)
(-0.0784211 0.00552174 0)
(-0.0846349 0.00566689 0)
(-0.090949 0.00578203 0)
(-0.0973252 0.00586358 0)
(-0.103722 0.00590807 0)
(-0.110094 0.00591217 0)
(-0.116395 0.00587274 0)
(-0.122573 0.00578681 0)
(-0.128577 0.00565169 0)
(-0.134353 0.00546488 0)
(-0.139844 0.0052242 0)
(-0.144993 0.00492778 0)
(-0.149744 0.0045741 0)
(-0.154038 0.00416206 0)
(-0.157817 0.00369104 0)
(-0.161024 0.00316096 0)
(-0.163604 0.00257237 0)
(-0.1655 0.00192619 0)
(-0.166671 0.00122132 0)
(-0.167055 0.000473278 0)
(-0.166627 -0.000320396 0)
(-0.165341 -0.00115743 0)
(-0.163174 -0.00202617 0)
(-0.160107 -0.00291655 0)
(-0.156131 -0.00381732 0)
(-0.151253 -0.00471382 0)
(-0.14549 -0.00558995 0)
(-0.138878 -0.00642876 0)
(-0.131469 -0.00721169 0)
(-0.123331 -0.00791906 0)
(-0.114551 -0.00853092 0)
(-0.105233 -0.00902792 0)
(-0.0955002 -0.00939225 0)
(-0.0854882 -0.0096088 0)
(-0.0753464 -0.00966619 0)
(-0.0652328 -0.00955787 0)
(-0.0553093 -0.00928296 0)
(-0.0457371 -0.00884693 0)
(-0.0366702 -0.00826174 0)
(-0.0282498 -0.00754566 0)
(-0.0205987 -0.0067225 0)
(-0.0138159 -0.00582038 0)
(-0.00797301 -0.00487015 0)
(-0.00311135 -0.00390355 0)
(0.000758522 -0.00295127 0)
(0.00365618 -0.00204143 0)
(0.00562895 -0.00119829 0)
(0.00674883 -0.000441884 0)
(0.00710861 0.00021133 0)
(0.00681972 0.000747448 0)
(0.00600915 0.00115241 0)
(0.00482301 0.00140671 0)
(0.00342764 0.00148368 0)
(0.0020131 0.00134698 0)
(0.000812236 0.000957856 0)
(7.31992e-05 0.000338458 0)
(-3.18261e-06 1.42175e-05 0)
(1.33669e-05 -2.03644e-05 0)
(7.76276e-05 -8.46324e-05 0)
(0.000197912 -0.000158735 0)
(0.000376799 -0.000232819 0)
(0.000612217 -0.000301722 0)
(0.000899358 -0.000362853 0)
(0.00123188 -0.000415005 0)
(0.00160266 -0.00045773 0)
(0.00200425 -0.000491021 0)
(0.00242922 -0.000515142 0)
(0.00287033 -0.00053054 0)
(0.0033207 -0.000537786 0)
(0.00377392 -0.000537549 0)
(0.0042241 -0.000530566 0)
(0.00466598 -0.000517627 0)
(0.00509493 -0.000499551 0)
(0.00550698 -0.000477174 0)
(0.00589883 -0.000451332 0)
(0.00626787 -0.000422842 0)
(0.00661211 -0.000392491 0)
(0.0069302 -0.000361025 0)
(0.00722137 -0.000329131 0)
(0.00748538 -0.000297435 0)
(0.00772246 -0.000266487 0)
(0.00793327 -0.00023676 0)
(0.00811881 -0.000208642 0)
(0.00828035 -0.00018243 0)
(0.00841937 -0.00015833 0)
(0.00853745 -0.000136452 0)
(0.00863624 -0.000116811 0)
(0.00871731 -9.93252e-05 0)
(0.00878215 -8.38166e-05 0)
(0.00883201 -7.00121e-05 0)
(0.00886787 -5.75451e-05 0)
(0.00889034 -4.59589e-05 0)
(0.00889959 -3.47105e-05 0)
(0.0088953 -2.31749e-05 0)
(0.00887656 -1.06708e-05 0)
(0.00884179 3.57899e-06 0)
(0.00878877 2.03918e-05 0)
(0.00871453 4.06182e-05 0)
(0.00861532 6.51608e-05 0)
(0.00848661 9.49341e-05 0)
(0.00832304 0.000130873 0)
(0.00811844 0.000173912 0)
(0.00786583 0.000224987 0)
(0.00755738 0.000285025 0)
(0.00718448 0.000354944 0)
(0.0067377 0.000435648 0)
(0.00620683 0.000528035 0)
(0.00558088 0.000632995 0)
(0.00484812 0.000751418 0)
(0.00399607 0.000884166 0)
(0.00301169 0.00103198 0)
(0.00188095 0.00119591 0)
(0.000589338 0.0013767 0)
(-0.000878165 0.00157509 0)
(-0.00253707 0.00179176 0)
(-0.00440328 0.00202729 0)
(-0.00649288 0.00228209 0)
(-0.00882198 0.00255639 0)
(-0.0114065 0.00285017 0)
(-0.0142619 0.00316316 0)
(-0.0174029 0.00349475 0)
(-0.020843 0.00384395 0)
(-0.0245943 0.00420938 0)
(-0.0286671 0.0045892 0)
(-0.0330693 0.0049811 0)
(-0.037806 0.00538231 0)
(-0.0428796 0.00578955 0)
(-0.0482886 0.00619907 0)
(-0.0540278 0.00660668 0)
(-0.060088 0.00700775 0)
(-0.0664554 0.00739731 0)
(-0.0731115 0.00777004 0)
(-0.0800335 0.0081204 0)
(-0.0871934 0.00844267 0)
(-0.0945587 0.00873104 0)
(-0.102092 0.00897968 0)
(-0.109752 0.00918284 0)
(-0.117493 0.0093349 0)
(-0.125266 0.00943043 0)
(-0.133016 0.00946428 0)
(-0.140689 0.00943159 0)
(-0.148224 0.00932787 0)
(-0.155561 0.00914902 0)
(-0.162637 0.00889133 0)
(-0.169387 0.00855157 0)
(-0.175746 0.00812701 0)
(-0.181648 0.00761545 0)
(-0.187028 0.00701526 0)
(-0.19182 0.00632552 0)
(-0.195961 0.00554604 0)
(-0.199388 0.00467752 0)
(-0.202041 0.00372157 0)
(-0.203864 0.00268071 0)
(-0.204808 0.00155715 0)
(-0.204822 0.000367073 0)
(-0.203867 -0.000888123 0)
(-0.201907 -0.00220205 0)
(-0.198922 -0.00355825 0)
(-0.194896 -0.00494167 0)
(-0.189827 -0.00633488 0)
(-0.183727 -0.00771604 0)
(-0.176623 -0.00906094 0)
(-0.168558 -0.0103443 0)
(-0.159593 -0.0115385 0)
(-0.14981 -0.0126147 0)
(-0.139305 -0.0135436 0)
(-0.128198 -0.0142965 0)
(-0.116624 -0.0148473 0)
(-0.104735 -0.0151735 0)
(-0.0926979 -0.0152581 0)
(-0.0806889 -0.015091 0)
(-0.0688895 -0.0146704 0)
(-0.0574816 -0.0140034 0)
(-0.0466408 -0.0131071 0)
(-0.0365303 -0.0120078 0)
(-0.0272941 -0.0107403 0)
(-0.0190516 -0.00934628 0)
(-0.0118922 -0.00787183 0)
(-0.00587211 -0.00636509 0)
(-0.00101265 -0.00487334 0)
(0.00269984 -0.00344057 0)
(0.00531218 -0.00210562 0)
(0.00690142 -0.000901398 0)
(0.00757121 0.000144493 0)
(0.00744871 0.00100816 0)
(0.00668274 0.0016657 0)
(0.00544396 0.00208716 0)
(0.00392674 0.00223343 0)
(0.00234944 0.00205438 0)
(0.000976979 0.00149862 0)
(9.56186e-05 0.000575141 0)
(-1.57106e-06 9.87499e-06 0)
(2.97314e-05 -4.55586e-05 0)
(0.000118627 -0.000137799 0)
(0.000271962 -0.000242719 0)
(0.000491641 -0.000347644 0)
(0.000775287 -0.000445567 0)
(0.0011176 -0.000532776 0)
(0.00151155 -0.000607429 0)
(0.00194918 -0.000668766 0)
(0.00242207 -0.000716679 0)
(0.00292176 -0.000751472 0)
(0.00343996 -0.000773732 0)
(0.00396877 -0.000784246 0)
(0.00450077 -0.000783947 0)
(0.00502917 -0.000773879 0)
(0.00554783 -0.000755162 0)
(0.00605136 -0.000728968 0)
(0.0065351 -0.000696493 0)
(0.00699517 -0.000658932 0)
(0.00742847 -0.000617458 0)
(0.00783262 -0.000573202 0)
(0.00820596 -0.000527232 0)
(0.00854749 -0.000480539 0)
(0.00885684 -0.000434018 0)
(0.00913415 -0.000388462 0)
(0.00938008 -0.000344549 0)
(0.00959565 -0.000302833 0)
(0.0097822 -0.000263738 0)
(0.0099413 -0.000227555 0)
(0.0100746 -0.000194436 0)
(0.0101839 -0.000164392 0)
(0.0102709 -0.000137295 0)
(0.010337 -0.000112875 0)
(0.0103835 -9.07224e-05 0)
(0.0104113 -7.02907e-05 0)
(0.010421 -5.09013e-05 0)
(0.0104124 -3.1749e-05 0)
(0.0103848 -1.19124e-05 0)
(0.010337 9.63484e-06 0)
(0.0102668 3.40255e-05 0)
(0.0101711 6.24713e-05 0)
(0.0100462 9.62394e-05 0)
(0.00988736 0.000136661 0)
(0.00968877 0.000185096 0)
(0.00944377 0.000242928 0)
(0.00914466 0.000311547 0)
(0.00878277 0.000392341 0)
(0.00834843 0.000486688 0)
(0.00783102 0.000595949 0)
(0.00721893 0.000721465 0)
(0.00649964 0.000864562 0)
(0.0056597 0.00102655 0)
(0.0046848 0.00120869 0)
(0.00355978 0.00141224 0)
(0.00226856 0.00163851 0)
(0.000794484 0.00188862 0)
(-0.000879916 0.00216371 0)
(-0.00277261 0.00246482 0)
(-0.00490201 0.00279282 0)
(-0.00728681 0.00314842 0)
(-0.00994575 0.00353203 0)
(-0.0128974 0.0039438 0)
(-0.0161599 0.00438348 0)
(-0.0197504 0.00485038 0)
(-0.0236849 0.00534332 0)
(-0.0279778 0.00586053 0)
(-0.0326413 0.00639962 0)
(-0.037685 0.00695755 0)
(-0.0431155 0.00753056 0)
(-0.0489358 0.0081142 0)
(-0.0551447 0.00870334 0)
(-0.0617369 0.00929213 0)
(-0.0687018 0.00987415 0)
(-0.0760242 0.0104424 0)
(-0.0836832 0.0109893 0)
(-0.0916524 0.0115072 0)
(-0.0999 0.0119877 0)
(-0.108389 0.0124227 0)
(-0.117076 0.0128039 0)
(-0.125915 0.013123 0)
(-0.134852 0.0133721 0)
(-0.143832 0.0135434 0)
(-0.152794 0.0136298 0)
(-0.161674 0.0136243 0)
(-0.170407 0.0135209 0)
(-0.178923 0.0133138 0)
(-0.187153 0.012998 0)
(-0.195026 0.0125692 0)
(-0.202471 0.0120239 0)
(-0.209415 0.0113591 0)
(-0.215789 0.0105729 0)
(-0.221522 0.00966389 0)
(-0.226546 0.00863199 0)
(-0.230796 0.00747797 0)
(-0.234209 0.00620383 0)
(-0.236725 0.00481292 0)
(-0.238288 0.00331006 0)
(-0.238854 0.00170128 0)
(-0.238373 2.8095e-06 0)
(-0.23681 -0.00177878 0)
(-0.234135 -0.00363145 0)
(-0.230332 -0.00553468 0)
(-0.225392 -0.00746771 0)
(-0.219319 -0.00940664 0)
(-0.212131 -0.0113223 0)
(-0.20386 -0.0131821 0)
(-0.194558 -0.014952 0)
(-0.184291 -0.0165955 0)
(-0.173146 -0.0180739 0)
(-0.161229 -0.0193484 0)
(-0.148664 -0.0203808 0)
(-0.135595 -0.0211362 0)
(-0.122183 -0.0215843 0)
(-0.108602 -0.0217017 0)
(-0.0950408 -0.0214741 0)
(-0.0816924 -0.0208979 0)
(-0.0687526 -0.0199816 0)
(-0.0564127 -0.0187465 0)
(-0.0448528 -0.0172267 0)
(-0.0342346 -0.0154681 0)
(-0.0246954 -0.0135262 0)
(-0.016342 -0.0114634 0)
(-0.00924623 -0.00934562 0)
(-0.0034422 -0.00723852 0)
(0.00107451 -0.00520427 0)
(0.00434598 -0.00329884 0)
(0.00644953 -0.00157069 0)
(0.00749432 -6.12282e-05 0)
(0.00761803 0.00119306 0)
(0.00698524 0.00215625 0)
(0.0057852 0.0027865 0)
(0.00423388 0.00303135 0)
(0.00257178 0.00282635 0)
(0.00109056 0.00210499 0)
(0.000111058 0.000850625 0)
(7.36498e-08 1.01683e-06 0)
(4.70051e-05 -8.11347e-05 0)
(0.000161641 -0.000205716 0)
(0.000348703 -0.000345252 0)
(0.000608965 -0.000484535 0)
(0.000939557 -0.000614762 0)
(0.00133466 -0.000731055 0)
(0.00178664 -0.000830866 0)
(0.0022868 -0.00091306 0)
(0.00282592 -0.000977383 0)
(0.00339466 -0.00102416 0)
(0.00398384 -0.00105412 0)
(0.00458466 -0.00106826 0)
(0.00518883 -0.00106781 0)
(0.00578874 -0.00105416 0)
(0.0063775 -0.00102878 0)
(0.00694902 -0.000993235 0)
(0.00749804 -0.00094913 0)
(0.00802015 -0.000898063 0)
(0.00851178 -0.000841604 0)
(0.00897018 -0.000781269 0)
(0.0093934 -0.00071849 0)
(0.0097802 -0.000654595 0)
(0.0101301 -0.000590786 0)
(0.010443 -0.000528126 0)
(0.0107196 -0.000467521 0)
(0.0109609 -0.000409711 0)
(0.0111683 -0.00035526 0)
(0.0113433 -0.00030455 0)
(0.0114876 -0.000257774 0)
(0.011603 -0.000214936 0)
(0.0116912 -0.000175846 0)
(0.0117536 -0.000140121 0)
(0.0117914 -0.000107189 0)
(0.0118055 -7.6287e-05 0)
(0.0117959 -4.6474e-05 0)
(0.0117624 -1.6634e-05 0)
(0.0117038 1.45087e-05 0)
(0.0116183 4.83776e-05 0)
(0.0115031 8.65359e-05 0)
(0.0113544 0.000130656 0)
(0.0111675 0.000182497 0)
(0.0109364 0.000243896 0)
(0.0106542 0.000316738 0)
(0.0103129 0.000402938 0)
(0.00990315 0.000504422 0)
(0.00941457 0.000623113 0)
(0.00883562 0.000760917 0)
(0.00815363 0.000919719 0)
(0.00735483 0.00110137 0)
(0.00642437 0.00130769 0)
(0.00534637 0.00154047 0)
(0.00410394 0.00180146 0)
(0.00267927 0.00209234 0)
(0.00105363 0.00241477 0)
(-0.000792446 0.00277032 0)
(-0.00287912 0.0031604 0)
(-0.00522708 0.00358631 0)
(-0.00785734 0.00404907 0)
(-0.010791 0.00454941 0)
(-0.0140491 0.00508769 0)
(-0.0176521 0.00566378 0)
(-0.0216195 0.00627702 0)
(-0.0259698 0.0069261 0)
(-0.0307192 0.00760895 0)
(-0.0358822 0.00832271 0)
(-0.0414698 0.00906363 0)
(-0.0474901 0.00982702 0)
(-0.053947 0.0106073 0)
(-0.0608398 0.0113978 0)
(-0.068163 0.012191 0)
(-0.0759054 0.0129787 0)
(-0.0840503 0.0137515 0)
(-0.0925749 0.0144996 0)
(-0.10145 0.0152126 0)
(-0.11064 0.0158797 0)
(-0.120105 0.01649 0)
(-0.129795 0.0170322 0)
(-0.13966 0.0174954 0)
(-0.149641 0.017869 0)
(-0.159675 0.0181427 0)
(-0.169696 0.018307 0)
(-0.179635 0.0183527 0)
(-0.189418 0.0182719 0)
(-0.198972 0.0180573 0)
(-0.208222 0.0177023 0)
(-0.217091 0.0172017 0)
(-0.225503 0.016551 0)
(-0.233383 0.0157468 0)
(-0.240657 0.0147866 0)
(-0.247253 0.0136691 0)
(-0.2531 0.0123942 0)
(-0.258132 0.0109628 0)
(-0.262286 0.00937724 0)
(-0.2655 0.00764148 0)
(-0.267719 0.0057611 0)
(-0.268894 0.00374365 0)
(-0.268981 0.00159886 0)
(-0.26794 -0.000656174 0)
(-0.265738 -0.00300928 0)
(-0.262356 -0.005443 0)
(-0.25778 -0.0079326 0)
(-0.252007 -0.0104515 0)
(-0.245048 -0.0129693 0)
(-0.236925 -0.0154499 0)
(-0.227675 -0.0178525 0)
(-0.217352 -0.0201344 0)
(-0.206026 -0.0222503 0)
(-0.193786 -0.0241522 0)
(-0.18074 -0.0257914 0)
(-0.167014 -0.0271205 0)
(-0.152754 -0.0280952 0)
(-0.138123 -0.0286772 0)
(-0.123299 -0.0288362 0)
(-0.108476 -0.0285528 0)
(-0.0938542 -0.0278208 0)
(-0.0796377 -0.0266489 0)
(-0.0660291 -0.0250619 0)
(-0.0532216 -0.0231008 0)
(-0.0413922 -0.020822 0)
(-0.0306942 -0.0182947 0)
(-0.0212511 -0.0155977 0)
(-0.0131507 -0.0128156 0)
(-0.0064416 -0.0100337 0)
(-0.00113105 -0.0073343 0)
(0.002815 -0.00479251 0)
(0.00547021 -0.00247484 0)
(0.00694491 -0.000439036 0)
(0.00738292 0.00126342 0)
(0.00695862 0.00258281 0)
(0.00587563 0.00346357 0)
(0.00436613 0.00383914 0)
(0.00268827 0.00362973 0)
(0.0011561 0.0027507 0)
(0.000120258 0.00115075 0)
(1.66196e-06 -1.24419e-05 0)
(6.44267e-05 -0.000127381 0)
(0.000205176 -0.000288653 0)
(0.000426068 -0.000466344 0)
(0.000726384 -0.000643093 0)
(0.00110257 -0.000808436 0)
(0.0015482 -0.000956341 0)
(0.00205508 -0.00108352 0)
(0.00261385 -0.00118843 0)
(0.00321459 -0.00127063 0)
(0.00384721 -0.00133045 0)
(0.00450175 -0.00136874 0)
(0.00516862 -0.00138675 0)
(0.00583881 -0.00138599 0)
(0.00650396 -0.00136822 0)
(0.00715653 -0.0013353 0)
(0.00778982 -0.00128924 0)
(0.008398 -0.00123205 0)
(0.0089762 -0.0011658 0)
(0.00952042 -0.00109247 0)
(0.0100276 -0.001014 0)
(0.0104954 -0.000932236 0)
(0.0109224 -0.000848859 0)
(0.011308 -0.000765408 0)
(0.011652 -0.000683239 0)
(0.0119548 -0.000603507 0)
(0.0122175 -0.000527152 0)
(0.0124414 -0.000454886 0)
(0.012628 -0.000387188 0)
(0.0127789 -0.000324288 0)
(0.012896 -0.000266174 0)
(0.0129807 -0.000212579 0)
(0.0130344 -0.000162986 0)
(0.0130582 -0.00011663 0)
(0.0130526 -7.25012e-05 0)
(0.0130175 -2.93511e-05 0)
(0.0129522 1.42938e-05 0)
(0.012855 6.01179e-05 0)
(0.0127235 0.00011 0)
(0.0125542 0.000165998 0)
(0.0123424 0.000230314 0)
(0.0120823 0.000305271 0)
(0.011767 0.000393288 0)
(0.0113881 0.000496851 0)
(0.0109362 0.000618485 0)
(0.0104004 0.000760731 0)
(0.00976855 0.000926124 0)
(0.00902718 0.00111718 0)
(0.00816159 0.00133636 0)
(0.00715584 0.00158612 0)
(0.00599276 0.00186882 0)
(0.00465409 0.00218679 0)
(0.00312043 0.00254228 0)
(0.00137142 0.00293747 0)
(-0.000614243 0.00337441 0)
(-0.00285861 0.00385504 0)
(-0.00538436 0.00438108 0)
(-0.00821461 0.00495399 0)
(-0.0113726 0.00557488 0)
(-0.0148816 0.0062444 0)
(-0.0187641 0.00696267 0)
(-0.0230421 0.00772914 0)
(-0.0277359 0.00854246 0)
(-0.0328641 0.00940039 0)
(-0.0384428 0.0102997 0)
(-0.044485 0.011236 0)
(-0.0509999 0.0122038 0)
(-0.0579926 0.0131963 0)
(-0.0654631 0.0142056 0)
(-0.0734059 0.0152224 0)
(-0.0818095 0.0162364 0)
(-0.0906562 0.017236 0)
(-0.0999215 0.0182091 0)
(-0.109574 0.0191423 0)
(-0.119575 0.0200222 0)
(-0.129881 0.0208346 0)
(-0.140439 0.0215653 0)
(-0.151192 0.0222005 0)
(-0.162078 0.0227265 0)
(-0.173029 0.0231302 0)
(-0.183973 0.0233994 0)
(-0.194835 0.0235229 0)
(-0.205538 0.0234903 0)
(-0.216002 0.0232926 0)
(-0.226148 0.0229221 0)
(-0.235896 0.0223721 0)
(-0.245167 0.0216375 0)
(-0.253884 0.0207143 0)
(-0.26197 0.0195999 0)
(-0.269352 0.0182929 0)
(-0.27596 0.0167933 0)
(-0.281728 0.0151026 0)
(-0.286592 0.0132234 0)
(-0.290493 0.0111602 0)
(-0.293378 0.00891921 0)
(-0.295196 0.00650852 0)
(-0.295905 0.00393867 0)
(-0.295467 0.00122284 0)
(-0.29385 -0.00162008 0)
(-0.291028 -0.00457273 0)
(-0.286986 -0.0076127 0)
(-0.281716 -0.010711 0)
(-0.275222 -0.0138356 0)
(-0.267514 -0.0169498 0)
(-0.258622 -0.0200111 0)
(-0.248581 -0.0229712 0)
(-0.237446 -0.0257792 0)
(-0.225288 -0.0283811 0)
(-0.212193 -0.03072 0)
(-0.198268 -0.0327377 0)
(-0.183637 -0.0343773 0)
(-0.168444 -0.0355854 0)
(-0.152849 -0.036315 0)
(-0.137033 -0.0365283 0)
(-0.121187 -0.0362 0)
(-0.105517 -0.0353203 0)
(-0.0902319 -0.0338968 0)
(-0.0755423 -0.0319568 0)
(-0.061652 -0.0295469 0)
(-0.0487509 -0.026733 0)
(-0.0370072 -0.0235974 0)
(-0.0265604 -0.0202353 0)
(-0.0175144 -0.0167501 0)
(-0.00993344 -0.0132478 0)
(-0.00383806 -0.00983182 0)
(0.00079523 -0.00659866 0)
(0.00403339 -0.00363489 0)
(0.00598438 -0.00101693 0)
(0.0067941 0.00118669 0)
(0.00664294 0.00291017 0)
(0.00574428 0.00408299 0)
(0.00434248 0.00462333 0)
(0.00270989 0.00443481 0)
(0.00117895 0.00341179 0)
(0.000124269 0.00146295 0)
(3.14944e-06 -3.04436e-05 0)
(8.15081e-05 -0.000184297 0)
(0.00024819 -0.000386587 0)
(0.000502543 -0.000605788 0)
(0.000842093 -0.0008228 0)
(0.00126241 -0.00102569 0)
(0.0017564 -0.00120733 0)
(0.00231525 -0.00136371 0)
(0.00292902 -0.00149284 0)
(0.00358714 -0.00159408 0)
(0.00427887 -0.00166775 0)
(0.00499358 -0.00171483 0)
(0.005721 -0.0017368 0)
(0.00645146 -0.00173549 0)
(0.00717599 -0.00171302 0)
(0.00788645 -0.00167171 0)
(0.00857559 -0.00161397 0)
(0.00923711 -0.00154232 0)
(0.00986569 -0.00145927 0)
(0.010457 -0.00136728 0)
(0.0110075 -0.00126875 0)
(0.0115147 -0.00116592 0)