/*--------------------------------*- C++ -*----------------------------------*\
  =========                 |
  \\      /  F ield         | OpenFOAM: The Open Source CFD Toolbox
   \\    /   O peration     | Website:  https://openfoam.org
    \\  /    A nd           | Version:  12
     \\/     M anipulation  |
\*---------------------------------------------------------------------------*/
FoamFile
{
    format      ascii;
    class       volScalarField;
    location    "4";
    object      k;
}
// * * * * * * * * * * * * * * * * * * * * * * * * * * * * * * * * * * * * * //

dimensions      [0 2 -2 0 0 0 0];

internalField   nonuniform List<scalar> 
5625
(
2.22045e-16
2.22045e-16
2.22045e-16
2.22045e-16
2.22045e-16
2.22045e-16
2.22045e-16
2.22045e-16
2.24978e-16
2.61736e-16
2.96908e-16
3.30654e-16
3.62971e-16
3.93746e-16
4.22831e-16
4.5008e-16
4.75371e-16
4.98607e-16
5.19725e-16
5.38692e-16
5.55508e-16
5.70197e-16
5.82807e-16
5.93408e-16
6.02085e-16
6.08932e-16
6.14053e-16
6.17553e-16
6.19531e-16
6.20102e-16
6.19366e-16
6.17405e-16
6.14297e-16
6.10111e-16
6.04907e-16
5.98733e-16
5.91632e-16
5.83635e-16
5.74773e-16
5.65065e-16
5.54527e-16
5.43174e-16
5.31022e-16
5.18086e-16
5.04383e-16
4.89934e-16
4.74762e-16
4.58898e-16
4.42375e-16
4.25233e-16
4.07518e-16
3.89278e-16
3.70568e-16
3.51443e-16
3.31956e-16
3.12157e-16
2.92079e-16
2.71719e-16
2.50999e-16
2.29711e-16
2.22045e-16
2.22045e-16
2.22045e-16
2.22045e-16
2.22045e-16
2.22045e-16
2.22045e-16
2.22045e-16
2.22045e-16
2.22045e-16
2.22045e-16
2.22045e-16
2.22045e-16
2.22045e-16
2.22045e-16
2.22045e-16
2.22045e-16
2.22045e-16
3.87419e-16
6.56564e-16
9.71005e-16
1.31508e-15
1.67226e-15
2.02323e-15
2.35429e-15
2.67036e-15
2.97374e-15
3.26438e-15
3.54119e-15
3.80279e-15
4.04788e-15
4.27532e-15
4.48426e-15
4.67413e-15
4.84465e-15
4.99579e-15
5.12779e-15
5.24109e-15
5.33631e-15
5.41422e-15
5.47568e-15
5.52161e-15
5.55298e-15
5.57065e-15
5.5757e-15
5.569e-15
5.55131e-15
5.52331e-15
5.48563e-15
5.4388e-15
5.38327e-15
5.3194e-15
5.24749e-15
5.16776e-15
5.0804e-15
4.98559e-15
4.88347e-15
4.77416e-15
4.6578e-15
4.53455e-15
4.40459e-15
4.26814e-15
4.12547e-15
3.97688e-15
3.82272e-15
3.66342e-15
3.4994e-15
3.33116e-15
3.15919e-15
2.98398e-15
2.80598e-15
2.62551e-15
2.44256e-15
2.25649e-15
2.06523e-15
1.86452e-15
1.65302e-15
1.43903e-15
1.22892e-15
1.02717e-15
8.37086e-16
6.61323e-16
5.02168e-16
3.61959e-16
2.44611e-16
2.22045e-16
2.22045e-16
2.22045e-16
2.22045e-16
2.22045e-16
2.22045e-16
2.22045e-16
5.84148e-16
1.11593e-15
1.74005e-15
2.43162e-15
3.16869e-15
3.92847e-15
4.688e-15
5.43056e-15
6.15133e-15
6.84756e-15
7.51604e-15
8.15319e-15
8.75545e-15
9.31963e-15
9.84308e-15
1.03238e-14
1.07605e-14
1.11525e-14
1.14997e-14
1.18027e-14
1.20627e-14
1.22809e-14
1.24592e-14
1.25997e-14
1.27044e-14
1.27756e-14
1.28152e-14
1.28259e-14
1.28096e-14
1.2768e-14
1.27028e-14
1.26154e-14
1.2507e-14
1.23787e-14
1.22312e-14
1.20653e-14
1.18815e-14
1.16802e-14
1.14618e-14
1.12266e-14
1.0975e-14
1.07072e-14
1.04235e-14
1.01245e-14
9.81049e-15
9.48222e-15
9.14036e-15
8.78574e-15
8.41928e-15
8.04202e-15
7.65508e-15
7.25962e-15
6.85679e-15
6.44771e-15
6.03325e-15
5.61389e-15
5.18941e-15
4.75855e-15
4.31951e-15
3.87342e-15
3.42732e-15
2.98869e-15
2.56381e-15
2.15779e-15
1.77476e-15
1.41816e-15
1.09101e-15
7.9648e-16
5.39178e-16
3.22722e-16
2.22045e-16
2.22045e-16
2.22045e-16
2.22045e-16
3.93588e-16
1.12446e-15
2.05096e-15
3.10558e-15
4.25097e-15
5.45746e-15
6.69719e-15
7.94426e-15
9.178e-15
1.03852e-14
1.15561e-14
1.26824e-14
1.37568e-14
1.47725e-14
1.57239e-14
1.66063e-14
1.74163e-14
1.81516e-14
1.88111e-14
1.93949e-14
1.99038e-14
2.03398e-14
2.07053e-14
2.10033e-14
2.12375e-14
2.14113e-14
2.15287e-14
2.15927e-14
2.16082e-14
2.15784e-14
2.15062e-14
2.13942e-14
2.1245e-14
2.10606e-14
2.08427e-14
2.05928e-14
2.0312e-14
2.00012e-14
1.96611e-14
1.92923e-14
1.88954e-14
1.84708e-14
1.8019e-14
1.75407e-14
1.70365e-14
1.65072e-14
1.5954e-14
1.53779e-14
1.47803e-14
1.4163e-14
1.35275e-14
1.28758e-14
1.22099e-14
1.15318e-14
1.08436e-14
1.0147e-14
9.44348e-15
8.73407e-15
8.01936e-15
7.3002e-15
6.57963e-15
5.86392e-15
5.16039e-15
4.47598e-15
3.81677e-15
3.18796e-15
2.59398e-15
2.03881e-15
1.52645e-15
1.06216e-15
6.54322e-16
3.20673e-16
2.22045e-16
2.22045e-16
2.22045e-16
6.73782e-16
1.76942e-15
3.13324e-15
4.67135e-15
6.33017e-15
8.06969e-15
9.85518e-15
1.16557e-14
1.3445e-14
1.52024e-14
1.6911e-14
1.85568e-14
2.01275e-14
2.16124e-14
2.30029e-14
2.4292e-14
2.54745e-14
2.6547e-14
2.75081e-14
2.83578e-14
2.90975e-14
2.973e-14
3.02591e-14
3.06893e-14
3.1026e-14
3.12745e-14
3.14405e-14
3.15284e-14
3.1546e-14
3.14976e-14
3.13875e-14
3.12196e-14
3.09977e-14
3.07247e-14
3.04031e-14
3.00352e-14
2.96225e-14
2.91663e-14
2.86676e-14
2.81274e-14
2.75463e-14
2.6925e-14
2.62643e-14
2.5565e-14
2.48281e-14
2.40549e-14
2.32467e-14
2.24053e-14
2.15329e-14
2.06316e-14
1.97042e-14
1.87533e-14
1.77819e-14
1.67933e-14
1.57903e-14
1.47762e-14
1.37537e-14
1.27253e-14
1.16938e-14
1.06621e-14
9.6347e-15
8.61799e-15
7.61919e-15
6.64552e-15
5.70369e-15
4.79977e-15
3.93926e-15
3.12743e-15
2.37004e-15
1.67481e-15
1.05412e-15
5.31435e-16
2.22045e-16
2.22045e-16
2.22045e-16
1.00765e-15
2.49921e-15
4.33418e-15
6.39703e-15
8.61744e-15
1.09431e-14
1.333e-14
1.57401e-14
1.81399e-14
2.05014e-14
2.28004e-14
2.50163e-14
2.71316e-14
2.91313e-14
3.10029e-14
3.27369e-14
3.43262e-14
3.57662e-14
3.70549e-14
3.81923e-14
3.91807e-14
4.0024e-14
4.07273e-14
4.12971e-14
4.17406e-14
4.20653e-14
4.2279e-14
4.23875e-14
4.24023e-14
4.23285e-14
4.21721e-14
4.19386e-14
4.1633e-14
4.12593e-14
4.0821e-14
4.03208e-14
3.9761e-14
3.91434e-14
3.84692e-14
3.77397e-14
3.69556e-14
3.6118e-14
3.52278e-14
3.42861e-14
3.32942e-14
3.22538e-14
3.11668e-14
3.00355e-14
2.88627e-14
2.76515e-14
2.64055e-14
2.51283e-14
2.38243e-14
2.24975e-14
2.11525e-14
1.97936e-14
1.84253e-14
1.70517e-14
1.56775e-14
1.43076e-14
1.29477e-14
1.16046e-14
1.0286e-14
8.99934e-15
7.75194e-15
6.55071e-15
5.40228e-15
4.3135e-15
3.29229e-15
2.34934e-15
1.50128e-15
7.77174e-16
2.35627e-16
2.22045e-16
2.22045e-16
1.3811e-15
3.2965e-15
5.63293e-15
8.25642e-15
1.10799e-14
1.40374e-14
1.70742e-14
2.01426e-14
2.32013e-14
2.62138e-14
2.91487e-14
3.19785e-14
3.46797e-14
3.72324e-14
3.96203e-14
4.18308e-14
4.38547e-14
4.5686e-14
4.73223e-14
4.87637e-14
5.00134e-14
5.10764e-14
5.19599e-14
5.26722e-14
5.32229e-14
5.36218e-14
5.38789e-14
5.40018e-14
5.40066e-14
5.38987e-14
5.36862e-14
5.33762e-14
5.29752e-14
5.24883e-14
5.19201e-14
5.12741e-14
5.0553e-14
4.97591e-14
4.88941e-14
4.79593e-14
4.69559e-14
4.5885e-14
4.47478e-14
4.35456e-14
4.22801e-14
4.09533e-14
3.95678e-14
3.81264e-14
3.66326e-14
3.50906e-14
3.35047e-14
3.18799e-14
3.02214e-14
2.8535e-14
2.68264e-14
2.51016e-14
2.33666e-14
2.16275e-14
1.98904e-14
1.81621e-14
1.64495e-14
1.47605e-14
1.31029e-14
1.1485e-14
9.91468e-15
8.39979e-15
6.94819e-15
5.56841e-15
4.27069e-15
3.06893e-15
1.98425e-15
1.05241e-15
3.43666e-16
2.22045e-16
2.22045e-16
1.77759e-15
4.14233e-15
7.01042e-15
1.02289e-14
1.36936e-14
1.73242e-14
2.10536e-14
2.48242e-14
2.85848e-14
3.22905e-14
3.59017e-14
3.93837e-14
4.27068e-14
4.58456e-14
4.87797e-14
5.14931e-14
5.39741e-14
5.62157e-14
5.82146e-14
5.99715e-14
6.14903e-14
6.27778e-14
6.38431e-14
6.46969e-14
6.53513e-14
6.58191e-14
6.61118e-14
6.62409e-14
6.62257e-14
6.60728e-14
6.57925e-14
6.53939e-14
6.48846e-14
6.42715e-14
6.35599e-14
6.27542e-14
6.18578e-14
6.08734e-14
5.98031e-14
5.86485e-14
5.74109e-14
5.60916e-14
5.46921e-14
5.32138e-14
5.16589e-14
5.00297e-14
4.83293e-14
4.65612e-14
4.47298e-14
4.284e-14
4.08973e-14
3.89078e-14
3.68781e-14
3.48153e-14
3.27266e-14
3.06196e-14
2.8502e-14
2.63816e-14
2.42664e-14
2.21644e-14
2.00842e-14
1.80344e-14
1.60238e-14
1.40614e-14
1.21558e-14
1.03159e-14
8.55084e-15
6.871e-15
5.28891e-15
3.82164e-15
2.49474e-15
1.35051e-15
4.69809e-16
2.22045e-16
2.42234e-16
2.17648e-15
5.01808e-15
8.4501e-15
1.22979e-14
1.64401e-14
2.07817e-14
2.52431e-14
2.97552e-14
3.42569e-14
3.86938e-14
4.30178e-14
4.71864e-14
5.11632e-14
5.49171e-14
5.84229e-14
6.16611e-14
6.46177e-14
6.7284e-14
6.96564e-14
7.1736e-14
7.35278e-14
7.50405e-14
7.62854e-14
7.7276e-14
7.80273e-14
7.8555e-14
7.88727e-14
7.8997e-14
7.89495e-14
7.87386e-14
7.8377e-14
7.78757e-14
7.72442e-14
7.64906e-14
7.56214e-14
7.46419e-14
7.35562e-14
7.23673e-14
7.10779e-14
6.96896e-14
6.8204e-14
6.66227e-14
6.49472e-14
6.31793e-14
6.13213e-14
5.93761e-14
5.73473e-14
5.5239e-14
5.30565e-14
5.08056e-14
4.84928e-14
4.61256e-14
4.37118e-14
4.12599e-14
3.87788e-14
3.62777e-14
3.37659e-14
3.1253e-14
2.87486e-14
2.62623e-14
2.3804e-14
2.13833e-14
1.90102e-14
1.66943e-14
1.44455e-14
1.22736e-14
1.01892e-14
8.20435e-15
6.33387e-15
4.59788e-15
3.02604e-15
1.66652e-15
6.09119e-16
2.22045e-16
2.86528e-16
2.57466e-15
5.91652e-15
9.94234e-15
1.44518e-14
1.93055e-14
2.43933e-14
2.96226e-14
3.49125e-14
4.01911e-14
4.53939e-14
5.04638e-14
5.535e-14
6.00088e-14
6.44031e-14
6.85026e-14
7.2284e-14
7.57306e-14
7.88324e-14
8.15854e-14
8.3991e-14
8.60559e-14
8.77907e-14
8.92095e-14
9.03288e-14
9.11668e-14
9.17428e-14
9.20715e-14
9.21779e-14
9.20831e-14
9.17991e-14
9.13407e-14
9.07213e-14
8.99521e-14
8.90427e-14
8.80009e-14
8.68329e-14
8.55434e-14
8.41361e-14
8.26138e-14
8.09785e-14
7.92321e-14
7.73761e-14
7.54122e-14
7.33427e-14
7.11699e-14
6.88974e-14
6.6529e-14
6.40698e-14
6.15256e-14
5.89033e-14
5.62106e-14
5.34561e-14
5.0649e-14
4.77993e-14
4.49174e-14
4.20142e-14
3.91006e-14
3.6188e-14
3.32874e-14
3.04101e-14
2.75673e-14
2.47699e-14
2.20288e-14
1.93548e-14
1.67587e-14
1.42516e-14
1.18455e-14
9.55403e-15
7.39428e-15
5.38914e-15
3.57198e-15
1.99605e-15
7.58522e-16
2.22045e-16
3.31514e-16
2.97871e-15
6.83866e-15
1.14833e-14
1.66833e-14
2.22794e-14
2.81458e-14
3.41762e-14
4.02772e-14
4.63656e-14
5.23662e-14
5.82121e-14
6.38439e-14
6.921e-14
7.42667e-14
7.89786e-14
8.33181e-14
8.7266e-14
9.08106e-14
9.39475e-14
9.66792e-14
9.90138e-14
1.00964e-13
1.02548e-13
1.03785e-13
1.04696e-13
1.05306e-13
1.05629e-13
1.05702e-13
1.05543e-13
1.05168e-13
1.04596e-13
1.03841e-13
1.02917e-13
1.01836e-13
1.00606e-13
9.92338e-14
9.77258e-14
9.60858e-14
9.43171e-14
9.24219e-14
9.04022e-14
8.82597e-14
8.59963e-14
8.36145e-14
8.11169e-14
7.85074e-14
7.57906e-14
7.2972e-14
7.00583e-14
6.70574e-14
6.3978e-14
6.08299e-14
5.76237e-14
5.4371e-14
5.10836e-14
4.77739e-14
4.44548e-14
4.11388e-14
3.78389e-14
3.45678e-14
3.13379e-14
2.81616e-14
2.50508e-14
2.20175e-14
1.90735e-14
1.62313e-14
1.35041e-14
1.09073e-14
8.45996e-15
6.18753e-15
4.12661e-15
2.3348e-15
9.15329e-16
2.22045e-16
3.77526e-16
3.39213e-15
7.78606e-15
1.30713e-14
1.89874e-14
2.53539e-14
3.20285e-14
3.88905e-14
4.58334e-14
5.27617e-14
5.95893e-14
6.62387e-14
7.26413e-14
7.87371e-14
8.44756e-14
8.98155e-14
9.47251e-14
9.91822e-14
1.03174e-13
1.06695e-13
1.09749e-13
1.12347e-13
1.14504e-13
1.1624e-13
1.1758e-13
1.18549e-13
1.19174e-13
1.19473e-13
1.19495e-13
1.19253e-13
1.18769e-13
1.18063e-13
1.17155e-13
1.16059e-13
1.14787e-13
1.13352e-13
1.1176e-13
1.10018e-13
1.08131e-13
1.06103e-13
1.03935e-13
1.0163e-13
9.91899e-14
9.66168e-14
9.39133e-14
9.10824e-14
8.81283e-14
8.5056e-14
8.18719e-14
7.85834e-14
7.51992e-14
7.17292e-14
6.81844e-14
6.45768e-14
6.0919e-14
5.72248e-14
5.35079e-14
4.97827e-14
4.60634e-14
4.23645e-14
3.87001e-14
3.50841e-14
3.153e-14
2.8051e-14
2.46603e-14
2.13708e-14
1.81962e-14
1.51512e-14
1.22526e-14
9.52151e-15
6.98552e-15
4.6841e-15
2.67852e-15
1.07697e-15
2.22045e-16
4.24705e-16
3.81614e-15
8.75916e-15
1.47047e-14
2.13598e-14
2.85223e-14
3.60322e-14
4.37537e-14
5.15666e-14
5.93626e-14
6.70438e-14
7.45218e-14
8.17178e-14
8.85633e-14
9.5e-14
1.00981e-13
1.06469e-13
1.11441e-13
1.1588e-13
1.19783e-13
1.23154e-13
1.26005e-13
1.28356e-13
1.3023e-13
1.31656e-13
1.32665e-13
1.33283e-13
1.33541e-13
1.3349e-13
1.33143e-13
1.32529e-13
1.3167e-13
1.30588e-13
1.293e-13
1.27821e-13
1.26163e-13
1.24335e-13
1.22344e-13
1.20195e-13
1.17893e-13
1.1544e-13
1.12839e-13
1.10091e-13
1.07199e-13
1.04165e-13
1.00994e-13
9.76893e-14
9.42567e-14
9.07032e-14
8.70369e-14
8.32675e-14
7.94058e-14
7.54641e-14
7.14554e-14
6.7394e-14
6.32947e-14
5.91729e-14
5.50444e-14
5.0925e-14
4.68306e-14
4.27766e-14
3.87783e-14
3.48505e-14
3.10077e-14
2.72642e-14
2.3634e-14
2.01322e-14
1.67746e-14
1.35797e-14
1.05703e-14
7.77599e-15
5.23876e-15
3.02299e-15
1.2409e-15
2.22045e-16
4.73072e-16
4.25087e-15
9.7574e-15
1.63813e-14
2.37966e-14
3.17783e-14
4.01483e-14
4.87548e-14
5.74635e-14
6.61528e-14
7.47119e-14
8.3041e-14
9.10506e-14
9.86629e-14
1.05812e-13
1.12444e-13
1.18518e-13
1.24006e-13
1.28891e-13
1.3317e-13
1.36849e-13
1.39941e-13
1.42471e-13
1.44466e-13
1.45959e-13
1.46987e-13
1.47575e-13
1.47773e-13
1.47624e-13
1.47152e-13
1.46385e-13
1.45351e-13
1.44075e-13
1.42575e-13
1.40869e-13
1.3897e-13
1.36889e-13
1.34633e-13
1.32208e-13
1.29619e-13
1.26869e-13
1.2396e-13
1.20894e-13
1.17675e-13
1.14305e-13
1.10788e-13
1.07128e-13
1.03332e-13
9.94069e-14
9.53622e-14
9.12081e-14
8.69563e-14
8.26201e-14
7.82138e-14
7.37528e-14
6.92532e-14
6.47318e-14
6.02057e-14
5.56923e-14
5.12085e-14
4.67713e-14
4.23973e-14
3.81025e-14
3.39026e-14
2.9813e-14
2.58491e-14
2.20269e-14
1.83638e-14
1.48795e-14
1.15985e-14
8.55226e-15
5.78508e-15
3.36402e-15
1.4046e-15
2.22045e-16
5.22586e-16
4.69593e-15
1.07796e-14
1.80986e-14
2.62935e-14
3.51156e-14
4.43683e-14
5.38833e-14
6.35114e-14
7.31169e-14
8.25759e-14
9.17762e-14
1.00617e-13
1.09011e-13
1.16884e-13
1.24175e-13
1.30838e-13
1.36842e-13
1.4217e-13
1.46817e-13
1.50791e-13
1.5411e-13
1.56802e-13
1.58898e-13
1.60437e-13
1.6146e-13
1.61994e-13
1.6211e-13
1.61841e-13
1.61218e-13
1.60276e-13
1.59045e-13
1.57552e-13
1.5582e-13
1.53868e-13
1.5171e-13
1.49358e-13
1.46821e-13
1.44106e-13
1.41217e-13
1.38158e-13
1.34931e-13
1.3154e-13
1.27986e-13
1.24274e-13
1.20406e-13
1.16389e-13
1.12228e-13
1.07932e-13
1.03511e-13
9.89749e-14
9.4337e-14
8.96114e-14
8.48134e-14
7.99594e-14
7.50669e-14
7.01538e-14
6.52384e-14
6.03393e-14
5.54749e-14
5.06633e-14
4.59223e-14
4.12692e-14
3.67209e-14
3.22938e-14
2.80046e-14
2.38704e-14
1.99099e-14
1.61441e-14
1.25991e-14
9.30824e-15
6.31778e-15
3.69738e-15
1.56541e-15
2.22045e-16
5.73177e-16
5.15067e-15
1.18241e-14
1.98539e-14
2.88459e-14
3.85278e-14
4.86837e-14
5.91285e-14
6.96973e-14
8.02398e-14
9.06184e-14
1.00708e-13
1.10396e-13
1.19584e-13
1.28189e-13
1.36144e-13
1.43397e-13
1.49915e-13
1.55678e-13
1.60683e-13
1.64939e-13
1.68469e-13
1.71303e-13
1.73479e-13
1.75042e-13
1.76034e-13
1.7649e-13
1.765e-13
1.76085e-13
1.75288e-13
1.74146e-13
1.72695e-13
1.70965e-13
1.6898e-13
1.66761e-13
1.64326e-13
1.61686e-13
1.58853e-13
1.55833e-13
1.52632e-13
1.49254e-13
1.457e-13
1.41976e-13
1.38082e-13
1.34023e-13
1.29802e-13
1.25427e-13
1.20902e-13
1.16237e-13
1.11443e-13
1.0653e-13
1.01512e-13
9.64045e-14
9.1223e-14
8.59853e-14
8.07095e-14
7.54147e-14
7.01204e-14
6.48462e-14
5.96117e-14
5.44363e-14
4.93388e-14
4.43377e-14
3.9451e-14
3.46964e-14
3.00916e-14
2.56548e-14
2.1406e-14
1.73674e-14
1.35666e-14
1.00387e-14
6.83198e-15
4.01881e-15
1.72041e-15
2.22045e-16
6.24757e-16
5.61432e-15
1.28892e-14
2.16437e-14
3.14489e-14
4.20082e-14
5.30858e-14
6.44794e-14
7.6008e-14
8.75061e-14
9.88215e-14
1.09815e-13
1.20363e-13
1.30355e-13
1.397e-13
1.48321e-13
1.56164e-13
1.6319e-13
1.6938e-13
1.7473e-13
1.79253e-13
1.82975e-13
1.8593e-13
1.88164e-13
1.89726e-13
1.90658e-13
1.91019e-13
1.90893e-13
1.90308e-13
1.89311e-13
1.87946e-13
1.86252e-13
1.84261e-13
1.82002e-13
1.79498e-13
1.76767e-13
1.73824e-13
1.7068e-13
1.67343e-13
1.63818e-13
1.6011e-13
1.56222e-13
1.52158e-13
1.47919e-13
1.43511e-13
1.38937e-13
1.34204e-13
1.29318e-13
1.24289e-13
1.19127e-13
1.13844e-13
1.08455e-13
1.02974e-13
9.74198e-14
9.18091e-14
8.61615e-14
8.0497e-14
7.48359e-14
6.91988e-14
6.36064e-14
5.80791e-14
5.26369e-14
4.72993e-14
4.20854e-14
3.70141e-14
3.21041e-14
2.73749e-14
2.28472e-14
1.8545e-14
1.44968e-14
1.07394e-14
7.32347e-15
4.32402e-15
1.86599e-15
2.22045e-16
6.77227e-16
6.08596e-15
1.39726e-14
2.34646e-14
3.40974e-14
4.55496e-14
5.75654e-14
6.99248e-14
8.243e-14
9.48997e-14
1.07167e-13
1.19078e-13
1.30496e-13
1.413e-13
1.51388e-13
1.60676e-13
1.69105e-13
1.76632e-13
1.83238e-13
1.8892e-13
1.93692e-13
1.97586e-13
2.00641e-13
2.02908e-13
2.04444e-13
2.05288e-13
2.05532e-13
2.05243e-13
2.04462e-13
2.03241e-13
2.01629e-13
1.99668e-13
1.97396e-13
1.94843e-13
1.92035e-13
1.88992e-13
1.8573e-13
1.82261e-13
1.78594e-13
1.74735e-13
1.70689e-13
1.6646e-13
1.62052e-13
1.57466e-13
1.52708e-13
1.47782e-13
1.42693e-13
1.37451e-13
1.32063e-13
1.26541e-13
1.20898e-13
1.15147e-13
1.09305e-13
1.03389e-13
9.74177e-14
9.14113e-14
8.53903e-14
7.93757e-14
7.3389e-14
6.74518e-14
6.15855e-14
5.58111e-14
5.01492e-14
4.462e-14
3.92433e-14
3.4039e-14
2.90276e-14
2.42311e-14
1.96743e-14
1.53872e-14
1.14081e-14
7.78959e-15
4.6096e-15
1.99786e-15
2.22141e-16
7.30479e-16
6.56463e-15
1.50722e-14
2.53127e-14
3.67856e-14
4.91444e-14
6.21128e-14
7.54525e-14
8.89488e-14
1.02404e-13
1.15635e-13
1.28475e-13
1.40771e-13
1.52392e-13
1.63224e-13
1.73179e-13
1.82188e-13
1.90208e-13
1.97216e-13
2.03214e-13
2.08217e-13
2.12261e-13
2.15393e-13
2.17669e-13
2.19151e-13
2.19882e-13
2.19985e-13
2.19508e-13
2.18505e-13
2.17035e-13
2.15152e-13
2.12903e-13
2.10329e-13
2.07463e-13
2.04333e-13
2.00962e-13
1.97367e-13
1.93561e-13
1.89554e-13
1.85353e-13
1.80963e-13
1.76389e-13
1.71633e-13
1.66699e-13
1.61592e-13
1.56316e-13
1.50878e-13
1.45285e-13
1.39547e-13
1.33674e-13
1.2768e-13
1.21579e-13
1.15388e-13
1.09124e-13
1.02806e-13
9.64546e-14
9.00911e-14
8.37371e-14
7.74148e-14
7.11465e-14
6.49545e-14
5.88608e-14
5.2887e-14
4.70542e-14
4.13836e-14
3.58959e-14
3.06128e-14
2.55572e-14
2.07552e-14
1.62377e-14
1.20446e-14
8.23029e-15
4.87584e-15
2.11665e-15
2.35362e-16
7.84396e-16
7.04928e-15
1.61856e-14
2.71841e-14
3.95078e-14
5.27847e-14
6.67178e-14
8.10502e-14
9.55495e-14
1.10001e-13
1.24206e-13
1.37982e-13
1.51162e-13
1.63602e-13
1.75179e-13
1.85795e-13
1.95378e-13
2.03879e-13
2.11277e-13
2.17573e-13
2.22788e-13
2.26961e-13
2.30146e-13
2.32407e-13
2.33804e-13
2.34402e-13
2.34338e-13
2.33646e-13
2.32397e-13
2.30656e-13
2.2848e-13
2.25922e-13
2.23026e-13
2.19829e-13
2.16362e-13
2.12649e-13
2.08709e-13
2.04556e-13
2.00201e-13
1.95651e-13
1.90913e-13
1.8599e-13
1.80887e-13
1.75607e-13
1.70154e-13
1.64533e-13
1.58751e-13
1.52815e-13
1.46736e-13
1.40523e-13
1.3419e-13
1.27752e-13
1.21225e-13
1.14626e-13
1.07976e-13
1.01294e-13
9.46029e-14
8.79239e-14
8.128e-14
7.46943e-14
6.81899e-14
6.17895e-14
5.55159e-14
4.93913e-14
4.34378e-14
3.76773e-14
3.21325e-14
2.68274e-14
2.17891e-14
1.70497e-14
1.26504e-14
8.64768e-15
5.12576e-15
2.22642e-15
2.47595e-16
8.38856e-16
7.5388e-15
1.73102e-14
2.90744e-14
4.22576e-14
5.6462e-14
7.13696e-14
8.67044e-14
1.02216e-13
1.17673e-13
1.32859e-13
1.47576e-13
1.61643e-13
1.74903e-13
1.87222e-13
1.98494e-13
2.0864e-13
2.1761e-13
2.25382e-13
2.31959e-13
2.37364e-13
2.41644e-13
2.44859e-13
2.4708e-13
2.48363e-13
2.48813e-13
2.48551e-13
2.47622e-13
2.46104e-13
2.44068e-13
2.41579e-13
2.38694e-13
2.35459e-13
2.31916e-13
2.28099e-13
2.24032e-13
2.19737e-13
2.15229e-13
2.1052e-13
2.05617e-13
2.00528e-13
1.95257e-13
1.89808e-13
1.84185e-13
1.78391e-13
1.72433e-13
1.66315e-13
1.60047e-13
1.53636e-13
1.47095e-13
1.40436e-13
1.33674e-13
1.26825e-13
1.19907e-13
1.12938e-13
1.05941e-13
9.89359e-14
9.19459e-14
8.49942e-14
7.81043e-14
7.13e-14
6.46052e-14
5.80433e-14
5.16377e-14
4.54116e-14
3.93881e-14
3.3591e-14
2.80454e-14
2.27793e-14
1.78261e-14
1.32284e-14
9.04456e-15
5.36226e-15
2.32965e-15
2.59093e-16
8.93726e-16
8.03203e-15
1.84434e-14
3.09791e-14
4.50284e-14
6.01675e-14
7.60569e-14
9.24014e-14
1.08932e-13
1.254e-13
1.41571e-13
1.57232e-13
1.72186e-13
1.86263e-13
1.99319e-13
2.11239e-13
2.21938e-13
2.31364e-13
2.39493e-13
2.46331e-13
2.51908e-13
2.56272e-13
2.59493e-13
2.61649e-13
2.62792e-13
2.63076e-13
2.6259e-13
2.61401e-13
2.59593e-13
2.57244e-13
2.54424e-13
2.51194e-13
2.47606e-13
2.43704e-13
2.39525e-13
2.35095e-13
2.30438e-13
2.25571e-13
2.20505e-13
2.15249e-13
2.0981e-13
2.04194e-13
1.98403e-13
1.92442e-13
1.86315e-13
1.80027e-13
1.73584e-13
1.66994e-13
1.60265e-13
1.53408e-13
1.46436e-13
1.39364e-13
1.32207e-13
1.24982e-13
1.1771e-13
1.10411e-13
1.03106e-13
9.58186e-14
8.85719e-14
8.13901e-14
7.42978e-14
6.73195e-14
6.04797e-14
5.3803e-14
4.73136e-14
4.10358e-14
3.49947e-14
2.92165e-14
2.37303e-14
1.85708e-14
1.37818e-14
9.42378e-15
5.58769e-15
2.42781e-15
2.70023e-16
9.48871e-16
8.52772e-15
1.95822e-14
3.28935e-14
4.78134e-14
6.38919e-14
8.07678e-14
9.81264e-14
1.1568e-13
1.33161e-13
1.5032e-13
1.66924e-13
1.82763e-13
1.97653e-13
2.11438e-13
2.23995e-13
2.35235e-13
2.45101e-13
2.53571e-13
2.60652e-13
2.66378e-13
2.70806e-13
2.74011e-13
2.76075e-13
2.77058e-13
2.77155e-13
2.76424e-13
2.74954e-13
2.72837e-13
2.70158e-13
2.66991e-13
2.63403e-13
2.5945e-13
2.5518e-13
2.50631e-13
2.45834e-13
2.40812e-13
2.35583e-13
2.3016e-13
2.24553e-13
2.18768e-13
2.12812e-13
2.06686e-13
2.00396e-13
1.93945e-13
1.87339e-13
1.80581e-13
1.73681e-13
1.66646e-13
1.59487e-13
1.52215e-13
1.44846e-13
1.37395e-13
1.29878e-13
1.22316e-13
1.14728e-13
1.07136e-13
9.95627e-14
9.20326e-14
8.45699e-14
7.71997e-14
6.99475e-14
6.28388e-14
5.58993e-14
4.91543e-14
4.26297e-14
3.63516e-14
3.03475e-14
2.46478e-14
1.92883e-14
1.43143e-14
9.78819e-15
5.80403e-15
2.5219e-15
2.805e-16
1.00415e-15
9.0246e-15
2.07238e-14
3.48125e-14
5.06052e-14
6.76253e-14
8.549e-14
1.03864e-13
1.22442e-13
1.40937e-13
1.5908e-13
1.76624e-13
1.93343e-13
2.09038e-13
2.23544e-13
2.36727e-13
2.48493e-13
2.58784e-13
2.67577e-13
2.74881e-13
2.80736e-13
2.85206e-13
2.88375e-13
2.90318e-13
2.91132e-13
2.91017e-13
2.90023e-13
2.88255e-13
2.85814e-13
2.82789e-13
2.79263e-13
2.75307e-13
2.70982e-13
2.66338e-13
2.61416e-13
2.56249e-13
2.50862e-13
2.45274e-13
2.39498e-13
2.33545e-13
2.27422e-13
2.21134e-13
2.14683e-13
2.08075e-13
2.01311e-13
1.94398e-13
1.87339e-13
1.80141e-13
1.72813e-13
1.65365e-13
1.57807e-13
1.50155e-13
1.42421e-13
1.34625e-13
1.26784e-13
1.18919e-13
1.11051e-13
1.03203e-13
9.53994e-14
8.7665e-14
8.00255e-14
7.25073e-14
6.51368e-14
5.7941e-14
5.09467e-14
4.41808e-14
3.76711e-14
3.14463e-14
2.55382e-14
1.99838e-14
1.48299e-14
1.01407e-14
6.01308e-15
2.61277e-15
2.90618e-16
1.05941e-15
9.52134e-15
2.18651e-14
3.67312e-14
5.33964e-14
7.13578e-14
9.02104e-14
1.09599e-13
1.29198e-13
1.48703e-13
1.67828e-13
1.86306e-13
2.03896e-13
2.20387e-13
2.356e-13
2.49396e-13
2.61674e-13
2.72372e-13
2.81469e-13
2.88978e-13
2.94943e-13
2.99435e-13
3.02547e-13
3.04347e-13
3.04984e-13
3.04633e-13
3.03361e-13
3.01281e-13
2.98503e-13
2.95123e-13
2.9123e-13
2.86901e-13
2.82199e-13
2.77179e-13
2.71884e-13
2.6635e-13
2.60602e-13
2.54661e-13
2.48541e-13
2.42251e-13
2.358e-13
2.29191e-13
2.22428e-13
2.15514e-13
2.08452e-13
2.01245e-13
1.93898e-13
1.86416e-13
1.78809e-13
1.71084e-13
1.63252e-13
1.55328e-13
1.47325e-13
1.39259e-13
1.3115e-13
1.23018e-13
1.14883e-13
1.06768e-13
9.86989e-14
9.06999e-14
8.27975e-14
7.5019e-14
6.7392e-14
5.99445e-14
5.27048e-14
4.57015e-14
3.89637e-14
3.25217e-14
2.64087e-14
2.0663e-14
1.53328e-14
1.04841e-14
6.21664e-15
2.70121e-15
3.00466e-16
1.1145e-15
1.00166e-14
2.3003e-14
3.8644e-14
5.61792e-14
7.50789e-14
9.49158e-14
1.15315e-13
1.3593e-13
1.56439e-13
1.76536e-13
1.95938e-13
2.14389e-13
2.31663e-13
2.47571e-13
2.61964e-13
2.74737e-13
2.85826e-13
2.95209e-13
3.02904e-13
3.0896e-13
3.13456e-13
3.16492e-13
3.18131e-13
3.1858e-13
3.17978e-13
3.16415e-13
3.14013e-13
3.1089e-13
3.07149e-13
3.02886e-13
2.9818e-13
2.93103e-13
2.8771e-13
2.82047e-13
2.76153e-13
2.70053e-13
2.6377e-13
2.57316e-13
2.50704e-13
2.43938e-13
2.37024e-13
2.29963e-13
2.22759e-13
2.15412e-13
2.07927e-13
2.00306e-13
1.92555e-13
1.8468e-13
1.76691e-13
1.68597e-13
1.60411e-13
1.52147e-13
1.43821e-13
1.35452e-13
1.2706e-13
1.18664e-13
1.1029e-13
1.0196e-13
9.37008e-14
8.55397e-14
7.75045e-14
6.96238e-14
6.1927e-14
5.4444e-14
4.7205e-14
4.02406e-14
3.3583e-14
2.72667e-14
2.13317e-14
1.58273e-14
1.08215e-14
6.41645e-15
2.78799e-15
3.10128e-16
1.16927e-15
1.05089e-14
2.41342e-14
4.05458e-14
5.89457e-14
7.87779e-14
9.95926e-14
1.20994e-13
1.42617e-13
1.64119e-13
1.85178e-13
2.05493e-13
2.24791e-13
2.42833e-13
2.59419e-13
2.74393e-13
2.87643e-13
2.99105e-13
3.08757e-13
3.1662e-13
3.2275e-13
3.27234e-13
3.30176e-13
3.31642e-13
3.31893e-13
3.31029e-13
3.29166e-13
3.26437e-13
3.22964e-13
3.18862e-13
3.14228e-13
3.09151e-13
3.03703e-13
2.97945e-13
2.91925e-13
2.85682e-13
2.79244e-13
2.72633e-13
2.65863e-13
2.58944e-13
2.51881e-13
2.44679e-13
2.37338e-13
2.29861e-13
2.22247e-13
2.14498e-13
2.06618e-13
1.9861e-13
1.90481e-13
1.82238e-13
1.73891e-13
1.65452e-13
1.56935e-13
1.48356e-13
1.39732e-13
1.31083e-13
1.22432e-13
1.138e-13
1.05212e-13
9.66955e-14
8.82772e-14
7.99862e-14
7.18525e-14
6.39066e-14
5.61801e-14
4.87049e-14
4.15135e-14
3.46399e-14
2.81202e-14
2.19959e-14
1.63179e-14
1.11558e-14
6.61429e-15
2.87386e-15
3.1969e-16
1.22355e-15
1.09968e-14
2.52555e-14
4.24308e-14
6.16879e-14
8.2444e-14
1.04227e-13
1.2662e-13
1.49239e-13
1.71722e-13
1.93727e-13
2.14939e-13
2.35067e-13
2.5386e-13
2.71107e-13
2.86643e-13
3.00352e-13
3.12169e-13
3.22072e-13
3.30087e-13
3.36277e-13
3.40736e-13
3.43565e-13
3.44852e-13
3.44897e-13
3.43765e-13
3.41599e-13
3.3854e-13
3.3472e-13
3.30259e-13
3.25262e-13
3.19821e-13
3.14014e-13
3.07904e-13
3.01541e-13
2.94967e-13
2.88209e-13
2.81289e-13
2.74223e-13
2.67018e-13
2.59679e-13
2.5221e-13
2.44609e-13
2.36878e-13
2.29014e-13
2.21019e-13
2.12895e-13
2.04644e-13
1.96271e-13
1.87783e-13
1.79191e-13
1.70505e-13
1.61739e-13
1.52908e-13
1.44032e-13
1.35129e-13
1.26222e-13
1.17333e-13
1.08487e-13
9.97119e-14
9.10353e-14
8.24871e-14
7.40984e-14
6.59013e-14
5.79289e-14
5.02149e-14
4.2794e-14
3.57019e-14
2.89767e-14
2.26616e-14
1.6809e-14
1.149e-14
6.81191e-15
2.95958e-15
3.29236e-16
1.27719e-15
1.1479e-14
2.63635e-14
4.42936e-14
6.43976e-14
8.60662e-14
1.08805e-13
1.32176e-13
1.55775e-13
1.79222e-13
2.02157e-13
2.24246e-13
2.45185e-13
2.64709e-13
2.82596e-13
2.98675e-13
3.12825e-13
3.24977e-13
3.35115e-13
3.43268e-13
3.49503e-13
3.53925e-13
3.56627e-13
3.57743e-13
3.57568e-13
3.56168e-13
3.537e-13
3.50316e-13
3.46155e-13
3.41344e-13
3.35995e-13
3.30206e-13
3.24055e-13
3.17612e-13
3.10927e-13
3.04042e-13
2.96988e-13
2.89784e-13
2.82445e-13
2.74979e-13
2.67389e-13
2.59676e-13
2.51838e-13
2.43873e-13
2.35779e-13
2.27555e-13
2.192e-13
2.10718e-13
2.02111e-13
1.93387e-13
1.84554e-13
1.75623e-13
1.6661e-13
1.57528e-13
1.48398e-13
1.39239e-13
1.30072e-13
1.20922e-13
1.11815e-13
1.02778e-13
9.38387e-14
8.50292e-14
7.63813e-14
6.79285e-14
5.97057e-14
5.17484e-14
4.40934e-14
3.67786e-14
2.9844e-14
2.33347e-14
1.73049e-14
1.18271e-14
7.01099e-15
3.04589e-15
3.38845e-16
1.33003e-15
1.1954e-14
2.7455e-14
4.61285e-14
6.70667e-14
8.96335e-14
1.13312e-13
1.37643e-13
1.62205e-13
1.86595e-13
2.10438e-13
2.33383e-13
2.55111e-13
2.75344e-13
2.9385e-13
3.10451e-13
3.25021e-13
3.37492e-13
3.47849e-13
3.56124e-13
3.62394e-13
3.66769e-13
3.69339e-13
3.70289e-13
3.69889e-13
3.68223e-13
3.6546e-13
3.6176e-13
3.5727e-13
3.52125e-13
3.46442e-13
3.40322e-13
3.33851e-13
3.27098e-13
3.20117e-13
3.12949e-13
3.05625e-13
2.98166e-13
2.90584e-13
2.82884e-13
2.7507e-13
2.67139e-13
2.59088e-13
2.50913e-13
2.42608e-13
2.34172e-13
2.25602e-13
2.16899e-13
2.08067e-13
1.99111e-13
1.9004e-13
1.80865e-13
1.71601e-13
1.62265e-13
1.52875e-13
1.43453e-13
1.3402e-13
1.24603e-13
1.15227e-13
1.0592e-13
9.67114e-14
8.76338e-14
7.872e-14
7.00049e-14
6.1525e-14
5.33179e-14
4.54224e-14
3.78788e-14
3.07292e-14
2.40208e-14
1.78096e-14
1.21697e-14
7.21312e-15
3.13345e-15
3.48594e-16
1.3819e-15
1.24204e-14
2.85266e-14
4.79302e-14
6.96871e-14
9.31351e-14
1.17734e-13
1.43006e-13
1.68507e-13
1.93818e-13
2.18545e-13
2.42321e-13
2.64812e-13
2.85729e-13
3.04831e-13
3.21931e-13
3.36902e-13
3.49674e-13
3.60234e-13
3.68621e-13
3.74916e-13
3.7924e-13
3.81677e-13
3.82465e-13
3.81844e-13
3.79921e-13
3.76874e-13
3.72872e-13
3.68072e-13
3.62612e-13
3.56618e-13
3.50194e-13
3.4343e-13
3.36396e-13
3.29149e-13
3.2173e-13
3.1417e-13
3.06488e-13
2.98694e-13
2.90794e-13
2.82786e-13
2.74666e-13
2.66429e-13
2.58067e-13
2.49573e-13
2.40942e-13
2.3217e-13
2.23258e-13
2.14206e-13
2.05021e-13
1.95711e-13
1.86288e-13
1.76768e-13
1.67169e-13
1.57509e-13
1.47813e-13
1.38104e-13
1.28407e-13
1.18751e-13
1.09163e-13
9.96759e-14
9.03206e-14
8.11317e-14
7.21455e-14
6.33999e-14
5.49346e-14
4.67906e-14
3.90105e-14
3.16389e-14
2.4725e-14
1.83268e-14
1.25204e-14
7.41977e-15
3.22289e-15
3.58552e-16
1.43267e-15
1.28767e-14
2.95754e-14
4.96933e-14
7.2251e-14
9.65603e-14
1.22059e-13
1.48248e-13
1.74663e-13
2.00868e-13
2.26451e-13
2.51029e-13
2.74257e-13
2.95831e-13
3.15502e-13
3.33079e-13
3.4843e-13
3.61487e-13
3.72237e-13
3.80725e-13
3.87041e-13
3.91311e-13
3.93618e-13
3.94251e-13
3.93418e-13
3.91252e-13
3.87939e-13
3.83656e-13
3.78567e-13
3.7282e-13
3.66544e-13
3.59847e-13
3.52822e-13
3.45543e-13
3.38065e-13
3.30432e-13
3.22672e-13
3.14803e-13
3.06835e-13
2.98769e-13
2.906e-13
2.82323e-13
2.73928e-13
2.65405e-13
2.56743e-13
2.47935e-13
2.38976e-13
2.29862e-13
2.20596e-13
2.11182e-13
2.0163e-13
1.91953e-13
1.82166e-13
1.72291e-13
1.62348e-13
1.52362e-13
1.42359e-13
1.32367e-13
1.22416e-13
1.12534e-13
1.02753e-13
9.31074e-14
8.36318e-14
7.43636e-14
6.5342e-14
5.66086e-14
4.82066e-14
4.01808e-14
3.25787e-14
2.54516e-14
1.88598e-14
1.28813e-14
7.63221e-15
3.31477e-15
3.68779e-16
1.48217e-15
1.33218e-14
3.05981e-14
5.14125e-14
7.47508e-14
9.9899e-14
1.26272e-13
1.53351e-13
1.80653e-13
2.07722e-13
2.3413e-13
2.5948e-13
2.83413e-13
3.05615e-13
3.2583e-13
3.4386e-13
3.59571e-13
3.72895e-13
3.83824e-13
3.92406e-13
3.98738e-13
4.02957e-13
4.05142e-13
4.0563e-13
4.04601e-13
4.0221e-13
3.98654e-13
3.94116e-13
3.88769e-13
3.82767e-13
3.76242e-13
3.69309e-13
3.62062e-13
3.54576e-13
3.46909e-13
3.39102e-13
3.31183e-13
3.23169e-13
3.15065e-13
3.06871e-13
2.98579e-13
2.90178e-13
2.81655e-13
2.72997e-13
2.6419e-13
2.55224e-13
2.4609e-13
2.36784e-13
2.27307e-13
2.17663e-13
2.07863e-13
1.97919e-13
1.87852e-13
1.77683e-13
1.67437e-13
1.57141e-13
1.46824e-13
1.36516e-13
1.26248e-13
1.16053e-13
1.05962e-13
9.60106e-14
8.6234e-14
7.66707e-14
6.73611e-14
5.83482e-14
4.96773e-14
4.13958e-14