/*--------------------------------*- C++ -*----------------------------------*\
  =========                 |
  \\      /  F ield         | OpenFOAM: The Open Source CFD Toolbox
   \\    /   O peration     | Website:  https://openfoam.org
    \\  /    A nd           | Version:  12
     \\/     M anipulation  |
\*---------------------------------------------------------------------------*/
FoamFile
{
    format      ascii;
    class       volScalarField;
    location    "4";
    object      p;
}
// * * * * * * * * * * * * * * * * * * * * * * * * * * * * * * * * * * * * * //

dimensions      [0 2 -2 0 0 0 0];

internalField   nonuniform List<scalar> 
5625
(
2.57422e-08
-1.82898e-05
-9.32518e-05
-0.000227604
-0.000405742
-0.000612696
-0.000835962
-0.00106508
-0.00129156
-0.00150863
-0.00171106
-0.00189481
-0.00205687
-0.002195
-0.00230757
-0.00239343
-0.00245176
-0.00248201
-0.00248382
-0.00245693
-0.00240119
-0.00231654
-0.00220295
-0.00206047
-0.00188922
-0.00168944
-0.00146145
-0.00120573
-0.00092294
-0.000613925
-0.00027977
7.8184e-05
0.000458317
0.000858709
0.00127713
0.00171101
0.00215745
0.00261328
0.00307508
0.00353899
0.00400104
0.00445703
0.00490261
0.00533336
0.00574484
0.00613265
0.00649255
0.0068205
0.00711277
0.00736601
0.00757732
0.00774436
0.00786539
0.00793933
0.00796581
0.00794523
0.00787876
0.00776834
0.00761672
0.00742743
0.00720472
0.0069536
0.00667974
0.00638944
0.00608962
0.00578771
0.00549167
0.00520988
0.00495107
0.00472418
0.00453798
0.0044006
0.00431891
0.00429531
0.00431045
1.82179e-05
-1.93114e-07
-6.7039e-05
-0.000185013
-0.000340943
-0.000522437
-0.000719055
-0.000921857
-0.00112334
-0.00131738
-0.00149909
-0.00166462
-0.00181101
-0.001936
-0.00203789
-0.00211542
-0.00216769
-0.00219403
-0.00219397
-0.00216718
-0.00211345
-0.00203263
-0.00192467
-0.00178959
-0.0016275
-0.00143859
-0.00122319
-0.000981763
-0.000714947
-0.000423565
-0.00010866
0.000228482
0.000586312
0.000963004
0.00135644
0.00176418
0.00218352
0.00261149
0.00304482
0.00347992
0.00391308
0.00434037
0.00475776
0.00516112
0.00554632
0.00590929
0.0062461
0.00655302
0.0068266
0.00706378
0.00726193
0.00741889
0.00753313
0.0076037
0.00763033
0.00761345
0.00755424
0.00745457
0.00731707
0.00714507
0.00694261
0.00671437
0.00646565
0.00620231
0.00593073
0.00565775
0.00539059
0.00513678
0.00490404
0.00470011
0.00453242
0.00440773
0.00433225
0.0043101
0.00432547
9.34574e-05
6.63891e-05
-1.01424e-06
-0.00010965
-0.000249155
-0.0004099
-0.000583552
-0.00076275
-0.000941135
-0.00111337
-0.00127508
-0.00142274
-0.00155356
-0.00166536
-0.00175644
-0.00182553
-0.00187165
-0.00189407
-0.00189226
-0.00186581
-0.00181445
-0.00173798
-0.0016363
-0.00150939
-0.00135733
-0.00118027
-0.000978531
-0.000752528
-0.000502859
-0.000230301
6.41618e-05
0.000379319
0.000713715
0.00106563
0.00143308
0.0018138
0.00220524
0.00260465
0.00300891
0.00341475
0.00381869
0.00421709
0.00460617
0.00498212
0.0053411
0.00567934
0.00599322
0.00627928
0.00653436
0.00675565
0.00694072
0.00708764
0.00719503
0.00726207
0.00728856
0.00727498
0.00722247
0.00713284
0.0070086
0.00685289
0.0066695
0.0064628
0.0062377
0.00599962
0.0057544
0.00550824
0.00526764
0.00503927
0.00482987
0.00464609
0.0044942
0.00437985
0.00430896
0.00428748
0.00430238
0.000229458
0.000184826
0.000106237
-3.60888e-06
-0.000137326
-0.000287583
-0.000447696
-0.000611647
-0.00077415
-0.000930688
-0.00107748
-0.00121144
-0.00133006
-0.00143135
-0.00151374
-0.00157602
-0.00161722
-0.00163663
-0.00163368
-0.00160794
-0.00155911
-0.00148694
-0.00139129
-0.00127211
-0.00112942
-0.000963342
-0.000774132
-0.000562165
-0.000327973
-7.22667e-05
0.00020405
0.000499855
0.000813794
0.00114427
0.00148942
0.00184712
0.00221501
0.00259045
0.00297056
0.00335225
0.00373225
0.00410711
0.00447329
0.00482719
0.0051652
0.00548377
0.00577946
0.00604904
0.00628952
0.00649826
0.006673
0.00681193
0.00691376
0.00697774
0.00700374
0.00699224
0.00694433
0.00686179
0.00674699
0.00660292
0.00643318
0.00624187
0.00603359
0.00581339
0.00558666
0.00535909
0.00513657
0.0049251
0.0047307
0.00455923
0.00441619
0.00430669
0.00423642
0.00421202
0.0042224
0.000411776
0.000342796
0.000245036
0.00012635
-9.06299e-06
-0.000156031
-0.000309269
-0.000463949
-0.000615804
-0.000761134
-0.000896805
-0.00102021
-0.00112922
-0.00122212
-0.00129752
-0.00135433
-0.00139169
-0.00140891
-0.00140546
-0.0013809
-0.00133491
-0.00126721
-0.00117765
-0.00106609
-0.000932539
-0.000777051
-0.000599812
-0.000401132
-0.000181468
5.8558e-05
0.000318132
0.000596237
0.000891629
0.00120283
0.00152811
0.0018655
0.00221275
0.00256741
0.00292674
0.00328783
0.00364756
0.00400267
0.00434978
0.00468546
0.00500624
0.00530874
0.00558967
0.00584593
0.00607466
0.00627331
0.00643973
0.00657217
0.00666941
0.00673074
0.00675603
0.00674575
0.00670097
0.00662338
0.00651526
0.00637947
0.00621942
0.00603901
0.00584258
0.00563485
0.00542083
0.00520579
0.00499513
0.0047943
0.00460871
0.00444363
0.00430401
0.00419448
0.00412033
0.00408767
0.00408793
0.00062637
0.000528526
0.000406125
0.000273159
0.000130641
-1.83015e-05
-0.000169622
-0.000319571
-0.000464837
-0.000602524
-0.000730149
-0.00084563
-0.000947248
-0.0010336
-0.00110354
-0.00115617
-0.00119073
-0.00120662
-0.00120336
-0.00118053
-0.0011378
-0.00107489
-0.000991588
-0.000887744
-0.000763279
-0.000618199
-0.000452611
-0.000266742
-6.09585e-05
0.000164215
0.000408072
0.000669707
0.000947998
0.00124159
0.00154889
0.00186806
0.002197
0.00253338
0.00287462
0.00321795
0.00356038
0.00389879
0.00422992
0.00455047
0.00485709
0.0051465
0.00541549
0.00566106
0.00588041
0.00607105
0.00623087
0.00635817
0.00645173
0.00651084
0.00653537
0.00652576
0.00648301
0.00640876
0.0063052
0.00617506
0.0060216
0.00584854
0.00565998
0.00546039
0.00525447
0.00504711
0.00484331
0.00464806
0.00446629
0.00430275
0.00416192
0.00404802
0.00396563
0.00391972
0.00390494
0.000861203
0.000731766
0.00058113
0.000429945
0.000276207
0.000121153
-3.22544e-05
-0.000181237
-0.000323371
-0.000456528
-0.000578867
-0.00068884
-0.000785159
-0.000866766
-0.000932794
-0.000982535
-0.0010154
-0.00103089
-0.00102858
-0.00100811
-0.000969137
-0.000911388
-0.000834611
-0.00073861
-0.000623244
-0.000488446
-0.000334239
-0.000160757
3.17379e-05
0.000242829
0.000471927
0.000718248
0.000980797
0.00125835
0.00154945
0.00185238
0.00216517
0.00248564
0.00281132
0.00313955
0.00346747
0.00379206
0.00411015
0.00441852
0.00471389
0.00499303
0.0052528
0.00549021
0.0057025
0.00588719
0.00604216
0.0061657
0.00625658
0.00631406
0.00633797
0.00632868
0.00628716
0.00621496
0.00611417
0.00598743
0.00583787
0.00566904
0.00548487
0.00528959
0.00508766
0.00488367
0.00468228
0.0044881
0.00430567
0.00413932
0.00399311
0.00387088
0.00377641
0.00371321
0.00367973
0.00110568
0.000943233
0.00076216
0.00059002
0.000422011
0.00025766
9.89789e-05
-5.21191e-05
-0.000194029
-0.000325342
-0.000444842
-0.000551503
-0.000644476
-0.000723062
-0.000786682
-0.000834852
-0.000867153
-0.000883215
-0.000882696
-0.000865273
-0.000830637
-0.000778493
-0.000708566
-0.000620608
-0.000514413
-0.000389833
-0.000246799
-8.53416e-05
9.43891e-05
0.000292096
0.000507316
0.000739395
0.000987469
0.00125045
0.001527
0.00181555
0.00211425
0.00242102
0.00273353
0.00304919
0.00336525
0.00367875
0.00398659
0.00428558
0.0045725
0.00484412
0.00509731
0.00532907
0.0055366
0.00571741
0.00586933
0.00599061
0.00607994
0.00613654
0.00616016
0.00615112
0.0061103
0.00603916
0.00593972
0.00581452
0.00566656
0.00549927
0.00531643
0.0051221
0.00492052
0.00471605
0.00451309
0.00431597
0.00412887
0.0039558
0.0038005
0.00366645
0.00355663
0.00347302
0.00341829
0.00135053
0.00115452
0.000941815
0.000746935
0.000562496
0.000386479
0.000220068
6.43998e-05
-7.96697e-05
-0.000211408
-0.000330186
-0.000435489
-0.0005269
-0.000604078
-0.000666739
-0.000714632
-0.00074752
-0.000765164
-0.000767312
-0.000753696
-0.00072403
-0.000678011
-0.000615333
-0.000535696
-0.000438823
-0.000324479
-0.000192495
-4.27884e-05
0.00012461
0.000309532
0.000511648
0.000730439
0.00096518
0.00121492
0.00147845
0.00175432
0.00204082
0.00233597
0.00263751
0.00294298
0.00324966
0.00355464
0.00385488
0.0041472
0.00442835
0.00469511
0.0049443
0.00517286
0.00537796
0.005557
0.00570776
0.00582837
0.00591745
0.00597413
0.00599805
0.00598943
0.00594908
0.00587837
0.00577922
0.00565407
0.00550583
0.00533783
0.00515371
0.0049574
0.004753
0.00454469
0.00433665
0.004133
0.00393769
0.00375446
0.00358679
0.00343789
0.00331002
0.00320365
0.00312593
0.00158757
0.00135804
0.00111321
0.000894531
0.000692211
0.000502831
0.000326843
0.000164688
1.6534e-05
-0.000117514
-0.000237386
-0.000343052
-0.000434512
-0.000511779
-0.000574861
-0.000623738
-0.000658357
-0.000678613
-0.000684349
-0.000675351
-0.000651355
-0.000612051
-0.000557098
-0.000486141
-0.000398826
-0.000294826
-0.000173862
-3.57331e-05
0.00011966
0.000292284
0.000481951
0.000688285
0.000910702
0.00114839
0.00140027
0.00166504
0.00194107
0.00222649
0.00251914
0.00281662
0.00311626
0.00341519
0.00371036
0.00399858
0.00427658
0.00454108
0.00478883
0.00501668
0.00522169
0.00540117
0.00555275
0.00567446
0.00576478
0.0058227
0.00584775
0.00584005
0.00580028
0.00572969
0.00563013
0.00550394
0.00535394
0.00518337
0.00499578
0.00479501
0.00458503
0.00436992
0.00415372
0.0039404
0.00373373
0.00353728
0.00335436
0.00318801
0.00303983
0.00290892
0.00280705
0.00180956
0.0015469
0.00126996
0.00102695
0.00080585
0.000601943
0.00041503
0.000244922
9.11521e-05
-4.67591e-05
-0.000169265
-0.000276798
-0.000369758
-0.000448497
-0.000513304
-0.000564388
-0.000601873
-0.000625787
-0.000636064
-0.000632542
-0.000614977
-0.000583048
-0.000536376
-0.000474544
-0.000397115
-0.000303663
-0.000193793
-6.71769e-05
7.64215e-05
0.000237114
0.000414859
0.000609431
0.000820394
0.00104707
0.00128854
0.0015436
0.00181074
0.0020882
0.00237389
0.00266545
0.00296027
0.00325548
0.00354801
0.00383466
0.00411208
0.0043769
0.00462577
0.00485544
0.0050628
0.00524502
0.00539957
0.00552432
0.00561758
0.00567818
0.00570549
0.00569949
0.00566071
0.00559032
0.00549002
0.00536208
0.00520923
0.00503463
0.00484178
0.00463444
0.00441653
0.00419204
0.00396497
0.00373918
0.00351836
0.00330598
0.00310527
0.00291919
0.0027488
0.00259194
0.00246509
0.00200992
0.00171478
0.00140609
0.00113863
0.000898268
0.000679092
0.000480311
0.000301155
0.00014057
-2.47028e-06
-0.000128913
-0.000239624
-0.000335385
-0.000416868
-0.000484632
-0.000539104
-0.000580577
-0.000609205
-0.000625005
-0.000627865
-0.000617553
-0.000593731
-0.000555977
-0.000503804
-0.000436689
-0.000354095
-0.000255507
-0.000140459
-8.57076e-06
0.000140422
0.000306633
0.000489993
0.00069022
0.00090679
0.00113891
0.00138551
0.0016452
0.0019163
0.00219679
0.00248439
0.00277648
0.00307021
0.00336247
0.00365
0.00392938
0.00419712
0.00444973
0.0046838
0.00489607
0.00508349
0.00524334
0.00537329
0.00547144
0.00553643
0.00556744
0.00556425
0.00552726
0.00545747
0.00535648
0.00522645
0.00507004
0.00489034
0.00469081
0.00447517
0.00424732
0.00401125
0.00377091
0.00353018
0.00329272
0.00306198
0.00284122
0.00263337
0.0024391
0.00225512
0.00210262
0.00218266
0.00185586
0.00151601
0.00122427
0.000964489
0.000729635
0.000518365
0.000329371
0.000161048
1.18541e-05
-0.00011962
-0.000234652
-0.00033438
-0.000419781
-0.000491668
-0.000550671
-0.000597241
-0.000631648
-0.000653985
-0.000664178
-0.000662001
-0.000647094
-0.000618981
-0.000577102
-0.000520834
-0.000449526
-0.000362531
-0.00025924
-0.000139119
-1.74215e-06
0.000153168
0.000325706
0.000515751
0.000722935
0.000946611
0.00118583
0.00143934
0.00170553
0.00198248
0.00226792
0.00255927
0.00285366
0.00314796
0.0034388
0.00372267
0.00399594
0.00425497
0.00449615
0.004716
0.00491126
0.00507896
0.00521652
0.0053218
0.00539319
0.00542966
0.00543076
0.0053967
0.00532833
0.00522708
0.00509503
0.00493473
0.00474923
0.00454196
0.00431665
0.0040772
0.00382763
0.00357195
0.00331407
0.00305774
0.00280645
0.00256355
0.0023321
0.00211241
0.00190022
0.00172146
0.00232221
0.00196468
0.00159444
0.00127881
0.000999707
0.000749024
0.000524902
0.000325525
0.000148764
-7.40596e-06
-0.000144833
-0.000265184
-0.00036993
-0.000460338
-0.000537453
-0.000602096
-0.000654864
-0.000696128
-0.000726046
-0.000744574
-0.000751482
-0.000746376
-0.000728722
-0.000697874
-0.000653104
-0.000593637
-0.000518687
-0.000427489
-0.000319348
-0.000193668
-4.99984e-05
0.000111931
0.000292168
0.000490509
0.00070646
0.000939214
0.00118763
0.0014502
0.00172508
0.00201005
0.00230254
0.00259965
0.00289821
0.00319476
0.00348567
0.00376714
0.00403535
0.00428646
0.00451674
0.00472268
0.00490102
0.00504888
0.00516384
0.00524401
0.00528806
0.00529531
0.00526574
0.00519998
0.00509933
0.0049657
0.00480158
0.00460998
0.00439429
0.00415827
0.00390588
0.00364121
0.00336836
0.00309139
0.00281415
0.00254029
0.00227334
0.00201654
0.00176998
0.00152845
0.00132275
0.00242335
0.0020361
0.00163639
0.00129742
0.000999283
0.00073282
0.000495684
0.000285572
9.9858e-05
-6.39479e-05
-0.000208108
-0.000334654
-0.000445376
-0.000541806
-0.000625208
-0.000696578
-0.000756639
-0.000805855
-0.000844435
-0.000872353
-0.000889366
-0.000895036
-0.000888759
-0.000869796
-0.000837304
-0.000790375
-0.000728071
-0.000649468
-0.000553693
-0.000439973
-0.000307672
-0.000156335
1.4269e-05
0.000204108
0.000412853
0.000639846
0.000884072
0.00114414
0.00141827
0.0017043
0.00199968
0.0023015
0.00260649
0.00291113
0.00321162
0.00350402
0.00378426
0.00404826
0.00429202
0.00451171
0.00470374
0.00486492
0.00499246
0.00508413
0.0051383
0.00515398
0.00513087
0.00506937
0.00497058
0.00483626
0.00466882
0.00447118
0.00424676
0.00399934
0.00373298
0.00345188
0.00316032
0.00286251
0.00256252
0.00226421
0.00197138
0.00168753
0.00141261
0.00114056
0.00090709
0.00248115
0.00206527
0.0016371
0.00127549
0.000958739
0.000676703
0.00042655
0.000205504
1.04634e-05
-0.000161507
-0.000313065
-0.00044659
-0.000564168
-0.00066758
-0.000758293
-0.000837458
-0.000905916
-0.000964203
-0.00101257
-0.001051
-0.00107921
-0.00109673
-0.00110286
-0.00109676
-0.00107746
-0.00104392
-0.000995036
-0.000929707
-0.000846878
-0.000745582
-0.000624988
-0.000484444
-0.000323523
-0.000142068
5.97684e-05
0.00028149
0.000522224
0.0007807
0.00105523
0.0013437
0.00164359
0.00195196
0.0022655
0.00258057
0.00289323
0.00319932
0.00349456
0.00377458
0.00403506
0.00427182
0.00448091
0.00465873
0.00480212
0.00490846
0.00497572
0.00500255
0.00498835
0.00493322
0.00483803
0.00470437
0.00453451
0.00433134
0.00409825
0.0038391
0.00355805
0.00325949
0.00294787
0.00262768
0.00230324
0.00197871
0.00165822
0.00134563
0.0010408
0.000736882
0.000474632
0.00249093
0.00204757
0.00159203
0.00120857
0.000873767
0.000576485
0.000313432
8.13737e-05
-0.000123257
-0.00030382
-0.000463353
-0.000604565
-0.000729823
-0.000841139
-0.000940164
-0.00102819
-0.00110616
-0.00117467
-0.001234
-0.00128412
-0.00132472
-0.00135526
-0.00137494
-0.00138283
-0.00137781
-0.00135867
-0.00132416
-0.00127298
-0.00120389
-0.00111571
-0.00100739
-0.00087808
-0.000727136
-0.000554197
-0.000359221
-0.000142526
9.51775e-05
0.000352751
0.000628612
0.000920723
0.00122659
0.00154326
0.00186737
0.00219517
0.00252257
0.0028452
0.00315851
0.00345783
0.00373849
0.00399591
0.00422574
0.00442392
0.00458685
0.00471144
0.00479523
0.00483645
0.00483411
0.00478798
0.00469864
0.00456747
0.00439659
0.00418881
0.00394754
0.0036767
0.00338058
0.00306378
0.00273102
0.00238707
0.00203661
0.00168416
0.00133426
0.000991198
0.000654813
0.00031747
2.51898e-05
0.00244821
0.00197859
0.00149688
0.00109246
0.000740226
0.000428119
0.000152378
-9.06823e-05
-0.00030508
-0.000494589
-0.00066261
-0.000812166
-0.000945887
-0.001066
-0.00117433
-0.0012723
-0.00136092
-0.00144085
-0.00151237
-0.00157545
-0.00162972
-0.00167456
-0.00170908
-0.00173222
-0.00174271
-0.00173919
-0.0017202
-0.00168427
-0.00162994
-0.0015558
-0.00146059
-0.00134322
-0.00120282
-0.00103881
-0.000850923
-0.000639281
-0.000404414
-0.000147305
0.000130592
0.000427326
0.000740449
0.00106702
0.00140362
0.0017464
0.0020911
0.00243315
0.0027677
0.00308977
0.00339429
0.00367626
0.00393084
0.00415349
0.00434008
0.00448701
0.00459129
0.00465067
0.0046637
0.00462975
0.00454907
0.00442277
0.00425278
0.00404182
0.00379328
0.00351117
0.00319994
0.00286443
0.00250967
0.00214078
0.00176285
0.00138083
0.000999763
0.000624428
0.000254693
-0.00011785
-0.000441674
0.00234874
0.00185415
0.00134752
0.000923091
0.000554152
0.000227717
-6.04294e-05
-0.000314415
-0.000538697
-0.00073745
-0.000914426
-0.00107295
-0.00121589
-0.00134569
-0.00146432
-0.00157331
-0.00167377
-0.00176636
-0.00185138
-0.00192877
-0.00199809
-0.00205864
-0.00210943
-0.00214924
-0.00217667
-0.00219016
-0.00218808
-0.00216873
-0.00213042
-0.00207153
-0.00199054
-0.00188611
-0.00175712
-0.00160275
-0.00142249
-0.00121623
-0.000984307
-0.00072751
-0.000447146
-0.000145048
0.000176405
0.000514293
0.000865168
0.00122508
0.00158962
0.00195398
0.00231304
0.00266145
0.00299374
0.00330441
0.00358813
0.00383977
0.00405462
0.00422848
0.00435777
0.00443967
0.0044722
0.00445424
0.00438564
0.00426718
0.00410056
0.00388837
0.00363398
0.00334146
0.00301546
0.00266108
0.00228369
0.00188885
0.00148211
0.00106894
0.000654923
0.000245425
-0.000159618
-0.000569396
-0.000926559
0.00218847
0.00167027
0.00114006
0.000696645
0.000311771
-2.84384e-05
-0.000328654
-0.000593437
-0.000827678
-0.00103594
-0.00122231
-0.00139039
-0.00154331
-0.00168369
-0.00181363
-0.00193477
-0.00204827
-0.00215483
-0.00225473
-0.00234786
-0.00243374
-0.00251154
-0.00258017
-0.00263826
-0.00268423
-0.00271636
-0.00273279
-0.0027316
-0.00271086
-0.0026687
-0.00260334
-0.00251317
-0.0023968
-0.00225311
-0.00208136
-0.00188116
-0.00165262
-0.00139631
-0.00111335
-0.00080544
-0.000474845
-0.000124442
0.000242309
0.000621382
0.00100822
0.0013978
0.0017847
0.00216319
0.00252735
0.00287118
0.00318875
0.00347433
0.00372253
0.00392848
0.00408791
0.00419734
0.00425415
0.00425667
0.00420424
0.00409726
0.00393712
0.00372625
0.00346795
0.00316637
0.00282636
0.00245328
0.00205293
0.00163133
0.00119457
0.00074868
0.000299908
-0.000145742
-0.000588229
-0.00103755
-0.00143015
0.00196357
0.00142319
0.000870807
0.00040949
9.51021e-06
-0.000343875
-0.000655782
-0.000931203
-0.00117545
-0.00139346
-0.00158964
-0.00176789
-0.00193154
-0.00208338
-0.00222567
-0.00236012
-0.00248793
-0.00260983
-0.00272607
-0.00283649
-0.00294054
-0.00303727
-0.00312547
-0.00320362
-0.00326995
-0.00332255
-0.00335934
-0.00337816
-0.00337683
-0.0033532
-0.00330521
-0.00323096
-0.00312875
-0.00299718
-0.00283518
-0.00264211
-0.00241776
-0.00216248
-0.00187717
-0.00156332
-0.00122307
-0.000859228
-0.000475219
-7.51277e-05
0.000336361
0.000754009
0.00117209
0.0015845
0.00198484
0.00236654
0.00272306
0.00304796
0.00333512
0.00357889
0.00377423
0.00391688
0.00400348
0.00403171
0.0040003
0.00390916
0.00375933
0.00355298
0.00329333
0.00298459
0.00263177
0.00224058
0.00181723
0.00136827
0.000900391
0.000420292
-6.5075e-05
-0.000548977
-0.00103123
-0.00152269
-0.00195312
0.00167043
0.00110938
0.000536305
5.82292e-05
-0.000355985
-0.000721908
-0.0010451
-0.00133098
-0.00158525
-0.00181324
-0.00201966
-0.00220867
-0.00238381
-0.00254804
-0.00270374
-0.00285269
-0.00299614
-0.00313481
-0.00326895
-0.00339831
-0.00352225
-0.00363975
-0.00374941
-0.00384958
-0.0039383
-0.00401344
-0.0040727
-0.00411366
-0.00413387
-0.00413089
-0.00410237
-0.00404606
-0.00395996
-0.00384232
-0.00369174
-0.00350725
-0.00328835
-0.00303506
-0.00274801
-0.00242849
-0.00207846
-0.00170056
-0.0012982
-0.000875461
-0.00043714
1.13284e-05
0.00046393
0.000914156
0.00135511
0.00177966
0.00218055
0.00255059
0.00288283
0.00317076
0.00340845
0.00359075
0.00371344
0.00377341
0.00376868
0.00369857
0.00356365
0.00336578
0.00310804
0.00279463
0.00243076
0.00202246
0.00157641
0.00109976
0.000599835
8.40866e-05
-0.000439737
-0.000964096
-0.00148864
-0.00202511
-0.00249609
0.0013057
0.000725553
0.000133345
-0.000360295
-0.00078783
-0.00116563
-0.00149967
-0.00179581
-0.00206013
-0.00229832
-0.0025154
-0.00271577
-0.00290319
-0.00308076
-0.00325096
-0.00341565
-0.00357612
-0.00373308
-0.00388674
-0.00403679
-0.00418249
-0.00432271
-0.00445591
-0.00458025
-0.00469359
-0.00479358
-0.00487768
-0.00494319
-0.0049874
-0.00500754
-0.00500092
-0.00496498
-0.00489733
-0.00479587
-0.00465882
-0.00448485
-0.00427307
-0.00402319
-0.0037355
-0.00341102
-0.00305146
-0.0026593
-0.00223783
-0.00179111
-0.00132402
-0.000842138
-0.000351774
0.000140176
0.00062631
0.00109886
0.00154985
0.00197126
0.00235524
0.00269428
0.00298146
0.00321061
0.00337653
0.00347515
0.00350367
0.00346066
0.00334613
0.00316153
0.00290971
0.00259484
0.00222227
0.00179839
0.00133036
0.000825949
0.000293251
-0.000259495
-0.000823646
-0.00139077
-0.0019603
-0.00254496
-0.00305951
0.000866265
0.000268697
-0.000341016
-0.000848975
-0.00128888
-0.00167786
-0.00202232
-0.0023285
-0.0026029
-0.00285151
-0.00307968
-0.00329203
-0.00349252
-0.00368439
-0.00387023
-0.00405196
-0.00423088
-0.00440771
-0.00458259
-0.00475518
-0.00492464
-0.00508968
-0.00524863
-0.00539948
-0.0055399
-0.00566728
-0.00577884
-0.00587163
-0.00594259
-0.00598866
-0.00600678
-0.00599401
-0.00594759
-0.005865
-0.00574407
-0.00558301
-0.00538056
-0.005136
-0.00484928
-0.00452103
-0.00415269
-0.00374651
-0.00330559
-0.00283395
-0.00233644
-0.0018188
-0.00128759
-0.000750079
-0.000214182
0.000311685
0.000818769
0.00129816
0.00174101
0.00213873
0.00248325
0.00276727
0.00298442
0.00312955
0.00319885
0.00319002
0.00310233
0.00293672
0.00269571
0.00238336
0.00200516
0.00156779
0.00107896
0.000547113
-1.88658e-05
-0.000609837
-0.00121617
-0.00182845
-0.00244586
-0.00308218
-0.00364365
0.000349339
-0.000263915
-0.000889434
-0.00141042
-0.00186172
-0.00226117
-0.00261558
-0.00293159
-0.00321607
-0.00347535
-0.00371504
-0.00394
-0.00415437
-0.00436154
-0.00456417
-0.00476426
-0.00496312
-0.00516146
-0.00535937
-0.00555644
-0.00575173
-0.00594383
-0.00613092
-0.0063108
-0.00648092
-0.00663848
-0.0067804
-0.00690345
-0.00700426
-0.00707941
-0.00712547
-0.00713911
-0.00711713
-0.00705658
-0.00695482
-0.00680961
-0.00661921
-0.00638245
-0.00609882
-0.00576857
-0.00539275
-0.0049733
-0.00451311
-0.00401602
-0.00348686
-0.00293145
-0.00235656
-0.0017698
-0.0011796
-0.000595037
-2.56694e-05
0.00051864
0.00102795
0.0014925
0.00190295
0.00225066
0.00252798
0.00272847
0.00284713
0.0028806
0.00282728
0.00268741
0.00246308
0.00215814
0.00177815
0.00133009
0.000822195
0.000263631
-0.000335841
-0.000966103
-0.00161644
-0.00227632
-0.00294468
-0.00363639
-0.00424843
-0.000247569
-0.000874696
-0.00151426
-0.00204694
-0.00250863
-0.00291781
-0.00328171
-0.00360733
-0.00390191
-0.00417208
-0.00442373
-0.00466194
-0.00489102
-0.00511448
-0.0053351
-0.0055549
-0.00577522
-0.00599675
-0.00621955
-0.00644312
-0.00666643
-0.00688794
-0.00710568
-0.00731726
-0.00751993
-0.00771065
-0.00788606
-0.00804265
-0.0081767
-0.00828442
-0.00836201
-0.00840569
-0.00841181
-0.00837693
-0.00829792
-0.00817202
-0.00799696
-0.00777104
-0.00749326
-0.00716336
-0.00678196
-0.00635061
-0.00587187
-0.00534937
-0.00478782
-0.00419306
-0.00357199
-0.00293256
-0.00228367
-0.00163506
-0.000997115
-0.000380705
0.000203069
0.000743139
0.00122877
0.00164984
0.0019972
0.00226294
0.00244065
0.00252571
0.00251544
0.00240921
0.00220851
0.00191689
0.00153986
0.00108468
0.0005601
-2.39507e-05
-0.000656773
-0.00132718
-0.00202324
-0.00273322
-0.00345574
-0.00420686
-0.00487343
-0.000926603
-0.00156572
-0.00221751
-0.00276051
-0.00323155
-0.00364972
-0.00402263
-0.00435764
-0.00466232
-0.00494362
-0.00520767
-0.00545976
-0.00570437
-0.00594515
-0.00618493
-0.00642581
-0.00666914
-0.00691558
-0.00716517
-0.00741732
-0.00767091
-0.00792427
-0.00817529
-0.00842138
-0.00865961
-0.00888666
-0.00909893
-0.00929257
-0.00946354
-0.00960767
-0.00972072
-0.00979847
-0.00983678
-0.00983169
-0.00977952
-0.00967693
-0.00952108
-0.00930966
-0.0090411
-0.00871456
-0.00833014
-0.00788891
-0.00739301
-0.00684577
-0.00625168
-0.0056165
-0.00494724
-0.0042521
-0.00354041
-0.00282254
-0.00210973
-0.00141389
-0.000747346
-0.000122581
0.000448124
0.000953015
0.00138123
0.00172316
0.00197078
0.00211795
0.00216067
0.00209724
0.00192834
0.00165707
0.00128879
0.000830947
0.000292817
-0.000314898
-0.000980494
-0.00169161
-0.00243501
-0.00319758
-0.00397759
-0.00479239
-0.00551777
-0.00168954
-0.00233871
-0.00300085
-0.00355277
-0.00403211
-0.00445851
-0.00483994
-0.0051841
-0.00549888
-0.00579152
-0.00606839
-0.00633499
-0.00659595
-0.00685503
-0.00711517
-0.00737849
-0.00764637
-0.00791946
-0.00819775
-0.00848059
-0.00876677
-0.00905449
-0.0093415
-0.00962504
-0.00990194
-0.0101687
-0.0104213
-0.0106558
-0.0108676
-0.0110523
-0.0112051
-0.0113213
-0.0113963
-0.0114256
-0.0114048
-0.0113301
-0.0111979
-0.0110053
-0.01075
-0.0104305
-0.0100463
-0.00959795
-0.00908701
-0.00851639
-0.0078903
-0.00721432
-0.00649543
-0.00574203
-0.00496382
-0.00417177
-0.00337795
-0.00259533
-0.00183753
-0.00111852
-0.00045228
0.000147628
0.000668429
0.00109858
0.00142815
0.00164923
0.00175623
0.0017461
0.00161851
0.00137589
0.00102329
0.000568289
2.06088e-05
-0.000608248
-0.00130552
-0.00205757
-0.0028497
-0.00366733
-0.00450828
-0.00539127
-0.00618001
-0.00253776
-0.00319501
-0.00386558
-0.00442499
-0.00491157
-0.00534542
-0.00573487
-0.00608792
-0.00641279
-0.00671696
-0.00700706
-0.00728876
-0.00756684
-0.00784519
-0.00812683
-0.00841392
-0.00870787
-0.00900932
-0.00931821
-0.00963386
-0.00995494
-0.0102796
-0.0106053
-0.0109293
-0.0112481
-0.011558
-0.0118547
-0.0121339
-0.0123908
-0.0126203
-0.0128174
-0.0129768
-0.0130934
-0.0131621
-0.0131778
-0.013136
-0.0130325
-0.0128636
-0.0126262
-0.0123182
-0.0119383
-0.0114864
-0.0109633
-0.0103715
-0.0097147
-0.00899827
-0.00822905
-0.00741549
-0.00656761
-0.00569691
-0.00481623
-0.00393962
-0.00308202
-0.00225898
-0.00148629
-0.000779504
-0.000153532
0.000377891
0.000802666
0.00111079
0.00129476
0.00134991
0.00127458
0.00107029
0.000741627
0.000296119
-0.000256109
-0.000902767
-0.00162998
-0.00242274
-0.00326477
-0.00413982
-0.00504521
-0.00600113
-0.00685806
-0.00347224
-0.00413555
-0.00481262
-0.00537808
-0.0058708
-0.00631132
-0.00670826
-0.00706994
-0.00740484
-0.00772072
-0.00802439
-0.00832173
-0.00861767
-0.0089162
-0.00922041
-0.00953255
-0.00985402
-0.0101855
-0.0105268
-0.0108773
-0.0112356
-0.0115997
-0.0119669
-0.0123343
-0.0126983
-0.0130549
-0.0133995
-0.0137275
-0.0140337
-0.0143127
-0.0145589
-0.0147666
-0.01493
-0.0150433
-0.0151011
-0.0150978
-0.0150286
-0.0148888
-0.0146748
-0.0143834
-0.0140126
-0.0135613
-0.0130298
-0.0124199
-0.0117346
-0.010979
-0.0101596
-0.00928475
-0.00836477
-0.00741154
-0.00643865
-0.00546115
-0.00449533
-0.0035584
-0.00266804
-0.001842
-0.00109751
-0.000450768
8.36331e-05
0.00049327
0.000768381
0.000902294
0.000891733
0.000736992
0.000441945
1.38975e-05
-0.000536733
-0.0011969
-0.00195158
-0.00278431
-0.00367706
-0.00461173
-0.0055851
-0.00661887
-0.00754909
-0.00449352
-0.00516086
-0.00584249
-0.00641254
-0.00691032
-0.00735671
-0.0077606
-0.0081306
-0.00847545
-0.00880313
-0.00912068
-0.00943412
-0.00974855
-0.0100681
-0.0103958
-0.0107342
-0.0110845
-0.0114475
-0.0118231
-0.0122105
-0.0126082
-0.0130141
-0.0134256
-0.0138394
-0.0142518
-0.0146585
-0.0150549
-0.0154358
-0.0157957
-0.0161289
-0.0164292
-0.0166904
-0.0169061
-0.0170699
-0.0171755
-0.0172167
-0.0171878
-0.0170834
-0.0168987
-0.0166297
-0.0162735
-0.0158281
-0.0152929
-0.0146687
-0.0139582
-0.0131655
-0.0122969
-0.0113607
-0.0103671
-0.00932825
-0.00825846
-0.0071737
-0.0060916
-0.00503103
-0.00401169
-0.00305363
-0.00217666
-0.00139969
-0.000740126
-0.000213192
0.000168701
0.000396481
0.000464842
0.000372511
0.000122336
-0.000278826
-0.000820423
-0.00148872
-0.00226752
-0.00313882
-0.00408267
-0.00507899
-0.00612383
-0.00724052
-0.00824938
-0.00560171
-0.00627106
-0.0069553
-0.0075285
-0.00803025
-0.00848169
-0.00889197
-0.00926995
-0.00962459
-0.00996411
-0.0102957
-0.0106256
-0.0109591
-0.0113003
-0.0116525
-0.012018
-0.0123985
-0.0127944
-0.0132058
-0.0136319
-0.014071
-0.0145211
-0.0149794
-0.0154425
-0.0159065
-0.0163669
-0.0168188
-0.0172567
-0.0176748
-0.0180669
-0.0184264
-0.0187465
-0.0190201
-0.0192404
-0.0194
-0.0194921
-0.0195101
-0.0194475
-0.0192987
-0.0190587
-0.0187233
-0.0182897
-0.0177563
-0.0171228
-0.0163911
-0.0155646
-0.0146491
-0.0136524
-0.0125846
-0.0114581
-0.0102876
-0.00908998
-0.00788409
-0.00669049
-0.00553097
-0.004428
-0.00340413
-0.0024813
-0.00168005
-0.00101878
-0.000513002
-0.000174637
-1.1476e-05
-2.67844e-05
-0.000219116
-0.000582363
-0.00110604
-0.00177584
-0.00257441
-0.00348211
-0.00447695
-0.00553659
-0.00665633
-0.00786114
-0.00895421
-0.00679645
-0.00746583
-0.00815076
-0.00872569
-0.00923032
-0.00968598
-0.0101021
-0.0104876
-0.0108518
-0.0112031
-0.0115489
-0.0118955
-0.0122483
-0.0126117
-0.012989
-0.0133826
-0.0137941
-0.0142242
-0.0146728
-0.0151392
-0.0156217
-0.0161181
-0.0166256
-0.0171407
-0.0176592
-0.0181767
-0.0186877
-0.0191867
-0.0196673
-0.020123
-0.0205468
-0.0209311
-0.0212686
-0.0215513
-0.0217713
-0.021921
-0.0219926
-0.0219789
-0.0218731
-0.021669
-0.0213616
-0.0209465
-0.0204212
-0.0197844
-0.0190366
-0.0181806
-0.0172214
-0.0161663
-0.0150251
-0.0138101
-0.0125362
-0.011221
-0.00988465
-0.00854926
-0.00723873
-0.00597805
-0.0047927
-0.00370785
-0.00274755
-0.00193378
-0.00128562
-0.000818338
-0.000542738
-0.000464576
-0.00058426
-0.000896804
-0.00139207
-0.00205535
-0.00286817
-0.00380921
-0.00485426
-0.00597856
-0.00717645
-0.00847466
-0.00965771
-0.00807696
-0.00874441
-0.0094282
-0.0100034
-0.0105099
-0.0109689
-0.0113902
-0.0117828
-0.0121563
-0.0125192
-0.012879
-0.0132424
-0.0136147
-0.0140006
-0.0144034
-0.0148256
-0.015269
-0.0157341
-0.0162211
-0.0167291
-0.0172565
-0.0178011
-0.01836
-0.0189295
-0.0195054
-0.0200829
-0.0206566
-0.0212204
-0.0217678
-0.0222917
-0.0227847
-0.0232387
-0.0236457
-0.0239969
-0.0242839
-0.0244979
-0.0246303
-0.0246727
-0.0246173
-0.0244568
-0.0241848
-0.0237957
-0.0232857
-0.0226523
-0.0218947
-0.0210146
-0.0200161
-0.0189061
-0.0176935
-0.0163903
-0.0150117
-0.0135756
-0.0121031
-0.0106181
-0.00914638
-0.00771559
-0.00635425
-0.00509099