/*--------------------------------*- C++ -*----------------------------------*\
  =========                 |
  \\      /  F ield         | OpenFOAM: The Open Source CFD Toolbox
   \\    /   O peration     | Website:  https://openfoam.org
    \\  /    A nd           | Version:  12
     \\/     M anipulation  |
\*---------------------------------------------------------------------------*/
FoamFile
{
    format      ascii;
    class       volVectorField;
    location    "4";
    object      U;
}
// * * * * * * * * * * * * * * * * * * * * * * * * * * * * * * * * * * * * * //

dimensions      [0 1 -1 0 0 0 0];

internalField   nonuniform List<vector> 
5625
(
(8.86871e-06 -8.8699e-06 0)
(4.06825e-05 -1.27517e-05 0)
(7.12105e-05 -1.10252e-05 0)
(8.65884e-05 -6.74027e-06 0)
(7.75421e-05 -1.73355e-06 0)
(4.10326e-05 3.3135e-06 0)
(-2.30321e-05 8.0568e-06 0)
(-0.000113311 1.23327e-05 0)
(-0.000227699 1.60851e-05 0)
(-0.00036372 1.93155e-05 0)
(-0.000518764 2.20522e-05 0)
(-0.000690244 2.4336e-05 0)
(-0.000875672 2.62119e-05 0)
(-0.0010727 2.77243e-05 0)
(-0.00127916 2.89148e-05 0)
(-0.00149303 2.98205e-05 0)
(-0.00171246 3.04735e-05 0)
(-0.00193572 3.09005e-05 0)
(-0.00216123 3.11228e-05 0)
(-0.0023875 3.11567e-05 0)
(-0.00261309 3.10135e-05 0)
(-0.00283665 3.07004e-05 0)
(-0.00305687 3.02206e-05 0)
(-0.00327242 2.95743e-05 0)
(-0.00348202 2.87593e-05 0)
(-0.00368437 2.77715e-05 0)
(-0.00387816 2.66057e-05 0)
(-0.00406205 2.52562e-05 0)
(-0.00423473 2.37175e-05 0)
(-0.00439485 2.19852e-05 0)
(-0.00454107 2.00561e-05 0)
(-0.00467206 1.79291e-05 0)
(-0.00478652 1.56057e-05 0)
(-0.00488321 1.30904e-05 0)
(-0.00496092 1.03902e-05 0)
(-0.00501856 7.51592e-06 0)
(-0.00505512 4.48418e-06 0)
(-0.00506975 1.32354e-06 0)
(-0.00506177 -1.96145e-06 0)
(-0.00503062 -5.32688e-06 0)
(-0.004976 -8.74684e-06 0)
(-0.00489781 -1.21849e-05 0)
(-0.0047962 -1.56019e-05 0)
(-0.00467159 -1.8956e-05 0)
(-0.00452467 -2.22031e-05 0)
(-0.00435641 -2.5298e-05 0)
(-0.00416805 -2.81944e-05 0)
(-0.00396114 -3.08466e-05 0)
(-0.00373749 -3.32103e-05 0)
(-0.00349918 -3.52431e-05 0)
(-0.00324854 -3.69062e-05 0)
(-0.0029881 -3.81649e-05 0)
(-0.00272062 -3.89897e-05 0)
(-0.00244897 -3.9357e-05 0)
(-0.00217618 -3.92498e-05 0)
(-0.00190532 -3.86583e-05 0)
(-0.0016395 -3.75803e-05 0)
(-0.00138183 -3.60211e-05 0)
(-0.00113531 -3.39938e-05 0)
(-0.000902848 -3.15189e-05 0)
(-0.000687184 -2.86242e-05 0)
(-0.000490827 -2.53445e-05 0)
(-0.000316022 -2.17213e-05 0)
(-0.000164696 -1.78026e-05 0)
(-3.84001e-05 -1.36443e-05 0)
(6.17453e-05 -9.31176e-06 0)
(0.00013513 -4.88219e-06 0)
(0.000181756 -4.55281e-07 0)
(0.000202374 3.83382e-06 0)
(0.000198707 7.78698e-06 0)
(0.000173753 1.11039e-05 0)
(0.000132272 1.33335e-05 0)
(8.18663e-05 1.3761e-05 0)
(3.48793e-05 1.09851e-05 0)
(4.39538e-06 4.39231e-06 0)
(1.28582e-05 -4.0773e-05 0)
(6.05162e-05 -6.01919e-05 0)
(9.13248e-05 -4.03668e-05 0)
(7.96681e-05 7.99829e-07 0)
(7.69349e-06 5.18375e-05 0)
(-0.000131958 0.000105933 0)
(-0.000340638 0.000159102 0)
(-0.00061618 0.00020909 0)
(-0.000954267 0.000254694 0)
(-0.00134935 0.000295364 0)
(-0.00179527 0.000330941 0)
(-0.00228565 0.000361504 0)
(-0.00281418 0.000387266 0)
(-0.00337475 0.000408511 0)
(-0.00396154 0.000425549 0)
(-0.00456906 0.000438689 0)
(-0.00519217 0.000448218 0)
(-0.00582605 0.000454391 0)
(-0.00646613 0.000457426 0)
(-0.00710811 0.000457497 0)
(-0.00774787 0.000454737 0)
(-0.00838145 0.000449239 0)
(-0.00900496 0.000441064 0)
(-0.00961462 0.000430241 0)
(-0.0102067 0.000416776 0)
(-0.0107773 0.00040066 0)
(-0.0113228 0.000381873 0)
(-0.0118395 0.000360397 0)
(-0.0123235 0.000336217 0)
(-0.0127711 0.000309333 0)
(-0.0131786 0.000279762 0)
(-0.0135424 0.000247551 0)
(-0.0138589 0.000212776 0)
(-0.0141248 0.000175553 0)
(-0.0143369 0.000136033 0)
(-0.0144922 9.44104e-05 0)
(-0.0145883 5.09338e-05 0)
(-0.0146228 5.97392e-06 0)
(-0.0145941 -4.02653e-05 0)
(-0.0145008 -8.73116e-05 0)
(-0.0143424 -0.000134744 0)
(-0.0141186 -0.000182091 0)
(-0.0138302 -0.000228846 0)
(-0.0134784 -0.000274473 0)
(-0.0130652 -0.000318416 0)
(-0.0125934 -0.000360108 0)
(-0.0120665 -0.000398978 0)
(-0.0114888 -0.000434468 0)
(-0.0108653 -0.000466037 0)
(-0.0102017 -0.000493177 0)
(-0.00950441 -0.000515423 0)
(-0.00878021 -0.000532366 0)
(-0.00803655 -0.000543658 0)
(-0.00728124 -0.000549029 0)
(-0.00652237 -0.00054829 0)
(-0.00576824 -0.00054134 0)
(-0.00502719 -0.000528174 0)
(-0.00430749 -0.000508884 0)
(-0.00361723 -0.000483662 0)
(-0.00296415 -0.0004528 0)
(-0.00235552 -0.000416692 0)
(-0.001798 -0.000375829 0)
(-0.00129751 -0.000330809 0)
(-0.000859066 -0.000282332 0)
(-0.000486627 -0.000231217 0)
(-0.000182941 -0.000178424 0)
(5.06712e-05 -0.000125082 0)
(0.000214565 -7.25654e-05 0)
(0.000311103 -2.25878e-05 0)
(0.000345099 2.26303e-05 0)
(0.000324376 6.01256e-05 0)
(0.000260528 8.58566e-05 0)
(0.000170399 9.43269e-05 0)
(7.87136e-05 7.87543e-05 0)
(1.0905e-05 3.47874e-05 0)
(1.12969e-05 -7.17605e-05 0)
(4.12175e-05 -9.12828e-05 0)
(3.06644e-05 -3.00132e-05 0)
(-4.93061e-05 7.70661e-05 0)
(-0.000218924 0.000207157 0)
(-0.000487475 0.000345581 0)
(-0.000857159 0.000482998 0)
(-0.00132551 0.000613648 0)
(-0.00188697 0.000734157 0)
(-0.00253403 0.000842723 0)
(-0.00325809 0.000938569 0)
(-0.00405002 0.00102158 0)
(-0.00490056 0.00109205 0)
(-0.00580061 0.00115051 0)
(-0.00674135 0.00119761 0)
(-0.00771436 0.00123403 0)
(-0.00871162 0.00126044 0)
(-0.00972552 0.00127746 0)
(-0.0107488 0.0012856 0)
(-0.0117746 0.00128531 0)
(-0.0127963 0.00127692 0)
(-0.0138074 0.0012607 0)
(-0.0148017 0.00123681 0)
(-0.015773 0.00120534 0)
(-0.0167153 0.00116635 0)
(-0.0176224 0.00111984 0)
(-0.0184885 0.00106581 0)
(-0.0193074 0.00100424 0)
(-0.0200733 0.000935139 0)
(-0.0207803 0.000858558 0)
(-0.0214225 0.000774598 0)
(-0.0219943 0.00068343 0)
(-0.0224902 0.000585314 0)
(-0.0229052 0.000480606 0)
(-0.0232343 0.000369771 0)
(-0.0234731 0.000253388 0)
(-0.023618 0.000132167 0)
(-0.0236654 6.96113e-06 0)
(-0.023613 -0.000121308 0)
(-0.0234591 -0.000251563 0)
(-0.0232026 -0.000382613 0)
(-0.0228438 -0.00051317 0)
(-0.0223837 -0.000641862 0)
(-0.0218245 -0.000767246 0)
(-0.0211695 -0.00088783 0)
(-0.0204231 -0.0010021 0)
(-0.019591 -0.00110853 0)
(-0.0186798 -0.00120565 0)
(-0.0176973 -0.00129201 0)
(-0.0166523 -0.00136629 0)
(-0.0155546 -0.00142725 0)
(-0.0144149 -0.00147382 0)
(-0.0132446 -0.00150509 0)
(-0.0120555 -0.00152035 0)
(-0.0108601 -0.00151912 0)
(-0.00967114 -0.00150115 0)
(-0.0085013 -0.00146644 0)
(-0.00736323 -0.00141526 0)
(-0.00626927 -0.00134815 0)
(-0.0052312 -0.00126591 0)
(-0.0042601 -0.00116963 0)
(-0.00336608 -0.00106068 0)
(-0.00255806 -0.000940704 0)
(-0.0018436 -0.000811659 0)
(-0.00122859 -0.000675818 0)
(-0.000717051 -0.000535832 0)
(-0.000310786 -0.000394806 0)
(-9.07672e-06 -0.000256432 0)
(0.000191761 -0.000125184 0)
(0.000298878 -6.60231e-06 0)
(0.000323481 9.23179e-05 0)
(0.000281513 0.000162667 0)
(0.000194995 0.000193198 0)
(9.498e-05 0.000170513 0)
(1.36648e-05 8.16628e-05 0)
(7.15535e-06 -8.78578e-05 0)
(-1.39872e-07 -7.98129e-05 0)
(-7.80427e-05 5.01325e-05 0)
(-0.000254056 0.000251274 0)
(-0.000546578 0.000489667 0)
(-0.000964552 0.00074234 0)
(-0.00150995 0.000993895 0)
(-0.00217969 0.00123432 0)
(-0.00296716 0.00145741 0)
(-0.00386338 0.00165958 0)
(-0.00485792 0.00183906 0)
(-0.00593954 0.00199528 0)
(-0.00709671 0.00212847 0)
(-0.00831791 0.00223935 0)
(-0.00959186 0.00232889 0)
(-0.0109076 0.0023982 0)
(-0.0122548 0.00244836 0)
(-0.0136232 0.00248042 0)
(-0.0150034 0.00249527 0)
(-0.0163859 0.0024937 0)
(-0.0177619 0.0024763 0)
(-0.0191227 0.00244355 0)
(-0.0204598 0.00239578 0)
(-0.0217649 0.00233318 0)
(-0.0230297 0.00225589 0)
(-0.0242461 0.00216396 0)
(-0.0254061 0.00205743 0)
(-0.0265015 0.00193633 0)
(-0.0275245 0.00180074 0)
(-0.0284672 0.00165083 0)
(-0.029322 0.00148685 0)
(-0.0300815 0.00130919 0)
(-0.0307386 0.00111842 0)
(-0.0312865 0.000915265 0)
(-0.0317191 0.000700669 0)
(-0.0320307 0.00047579 0)
(-0.0322166 0.000242011 0)
(-0.0322725 9.52626e-07 0)
(-0.0321955 -0.000245568 0)
(-0.0319834 -0.0004955 0)
(-0.0316354 -0.000746588 0)
(-0.0311517 -0.000996396 0)
(-0.030534 -0.00124234 0)
(-0.0297854 -0.0014817 0)
(-0.0289104 -0.0017117 0)
(-0.0279148 -0.00192949 0)
(-0.0268061 -0.00213226 0)
(-0.025593 -0.00231725 0)
(-0.0242859 -0.00248179 0)
(-0.0228962 -0.0026234 0)
(-0.0214368 -0.00273982 0)
(-0.0199214 -0.00282907 0)
(-0.0183648 -0.00288946 0)
(-0.0167826 -0.0029197 0)
(-0.0151908 -0.00291891 0)
(-0.0136058 -0.00288663 0)
(-0.0120441 -0.00282291 0)
(-0.010522 -0.00272825 0)
(-0.00905559 -0.00260369 0)
(-0.00765997 -0.00245078 0)
(-0.00634946 -0.00227158 0)
(-0.00513709 -0.0020687 0)
(-0.00403438 -0.00184529 0)
(-0.003051 -0.00160506 0)
(-0.00219454 -0.00135236 0)
(-0.00147009 -0.0010922 0)
(-0.000879988 -0.000830402 0)
(-0.000423355 -0.000573802 0)
(-9.56958e-05 -0.000330482 0)
(0.000111606 -0.000110161 0)
(0.000211806 7.53417e-05 0)
(0.000223342 0.000211574 0)
(0.000171037 0.000280976 0)
(8.90552e-05 0.000262652 0)
(1.34151e-05 0.000132651 0)
(2.16681e-06 -7.92193e-05 0)
(-5.30081e-05 -6.243e-06 0)
(-0.000214284 0.000223063 0)
(-0.000504775 0.000545664 0)
(-0.000938112 0.000917994 0)
(-0.00152105 0.00130948 0)
(-0.00225418 0.00169885 0)
(-0.0031332 0.00207174 0)
(-0.00415024 0.00241886 0)
(-0.00529494 0.0027346 0)
(-0.0065553 0.00301593 0)
(-0.00791838 0.00326164 0)
(-0.00937077 0.00347173 0)
(-0.010899 0.00364701 0)
(-0.0124897 0.00378874 0)
(-0.0141298 0.00389837 0)
(-0.0158069 0.00397746 0)
(-0.0175086 0.00402746 0)
(-0.0192233 0.00404969 0)
(-0.0209396 0.00404528 0)
(-0.0226465 0.00401516 0)
(-0.0243332 0.00396001 0)
(-0.0259892 0.00388038 0)
(-0.0276042 0.00377661 0)
(-0.029168 0.00364892 0)
(-0.0306706 0.00349748 0)
(-0.0321019 0.0033224 0)
(-0.0334521 0.00312382 0)
(-0.0347114 0.00290195 0)
(-0.0358704 0.00265712 0)
(-0.0369198 0.00238985 0)
(-0.0378506 0.00210084 0)
(-0.0386542 0.00179106 0)
(-0.0393227 0.00146177 0)
(-0.0398486 0.00111455 0)
(-0.0402253 0.000751292 0)
(-0.0404472 0.000374253 0)
(-0.0405095 -1.39634e-05 0)
(-0.0404086 -0.000410418 0)
(-0.0401423 -0.000811837 0)
(-0.0397097 -0.00121464 0)
(-0.0391114 -0.00161496 0)
(-0.0383495 -0.00200873 0)
(-0.037428 -0.00239166 0)
(-0.0363523 -0.00275939 0)
(-0.0351297 -0.00310747 0)
(-0.0337693 -0.00343147 0)
(-0.0322816 -0.0037271 0)
(-0.0306791 -0.0039902 0)
(-0.0289756 -0.0042169 0)
(-0.0271864 -0.00440368 0)
(-0.0253281 -0.00454744 0)
(-0.0234184 -0.0046456 0)
(-0.0214759 -0.00469614 0)
(-0.0195197 -0.00469769 0)
(-0.0175695 -0.00464957 0)
(-0.015645 -0.00455185 0)
(-0.0137658 -0.00440537 0)
(-0.0119508 -0.00421177 0)
(-0.0102183 -0.0039735 0)
(-0.00858532 -0.00369386 0)
(-0.00706753 -0.00337698 0)
(-0.00567868 -0.00302786 0)
(-0.00443037 -0.00265241 0)
(-0.00333171 -0.00225747 0)
(-0.00238892 -0.00185094 0)
(-0.00160495 -0.00144192 0)
(-0.000979107 -0.0010409 0)
(-0.000506616 -0.00066012 0)
(-0.000178182 -0.000313924 0)
(2.04411e-05 -1.93037e-05 0)
(0.000108894 0.000203529 0)
(0.000113206 0.000330555 0)
(6.83137e-05 0.000333164 0)
(1.16316e-05 0.000176551 0)
(-3.06915e-06 -4.17693e-05 0)
(-0.000111368 0.000139556 0)
(-0.00036533 0.000502363 0)
(-0.000781955 0.000974909 0)
(-0.0013682 0.00150602 0)
(-0.00212719 0.00205871 0)
(-0.00305714 0.00260649 0)
(-0.00415183 0.00313095 0)
(-0.00540178 0.00361981 0)
(-0.0067951 0.00406538 0)
(-0.00831831 0.00446329 0)
(-0.00995689 0.00481158 0)
(-0.0116958 0.00510993 0)
(-0.01352 0.00535914 0)
(-0.0154142 0.00556067 0)
(-0.0173638 0.00571633 0)
(-0.0193543 0.00582808 0)
(-0.0213716 0.00589778 0)
(-0.0234022 0.00592718 0)
(-0.0254329 0.00591776 0)
(-0.0274507 0.00587076 0)
(-0.0294431 0.00578717 0)
(-0.0313977 0.0056677 0)
(-0.0333025 0.00551289 0)
(-0.0351454 0.00532311 0)
(-0.0369146 0.00509864 0)
(-0.0385985 0.00483972 0)
(-0.0401855 0.00454666 0)
(-0.0416643 0.00421986 0)
(-0.0430238 0.00385991 0)
(-0.0442534 0.00346763 0)
(-0.0453426 0.00304417 0)
(-0.0462817 0.00259101 0)
(-0.0470615 0.00211008 0)
(-0.0476736 0.00160371 0)
(-0.0481106 0.0010747 0)
(-0.048366 0.000526367 0)
(-0.0484345 -3.75187e-05 0)
(-0.0483123 -0.000612699 0)
(-0.0479968 -0.00119446 0)
(-0.0474874 -0.00177767 0)
(-0.0467848 -0.00235682 0)
(-0.0458916 -0.00292607 0)
(-0.0448125 -0.00347938 0)
(-0.0435539 -0.00401051 0)
(-0.0421242 -0.00451317 0)
(-0.0405338 -0.00498112 0)
(-0.0387949 -0.00540825 0)
(-0.0369218 -0.00578873 0)
(-0.0349303 -0.00611708 0)
(-0.0328379 -0.00638833 0)
(-0.0306636 -0.00659813 0)
(-0.0284276 -0.00674281 0)
(-0.0261511 -0.00681955 0)
(-0.0238559 -0.00682641 0)
(-0.0215646 -0.00676246 0)
(-0.0192997 -0.00662778 0)
(-0.0170834 -0.00642359 0)
(-0.0149376 -0.00615222 0)
(-0.0128831 -0.00581719 0)
(-0.0109396 -0.00542319 0)
(-0.00912487 -0.00497612 0)
(-0.00745488 -0.00448312 0)
(-0.00594304 -0.00395259 0)
(-0.00459997 -0.00339426 0)
(-0.00343306 -0.00281928 0)
(-0.00244614 -0.00224041 0)
(-0.00163901 -0.00167219 0)
(-0.00100715 -0.00113133 0)
(-0.000541223 -0.000637049 0)
(-0.000226832 -0.000211655 0)
(-4.41027e-05 0.000118866 0)
(3.30112e-05 0.000324154 0)
(3.84198e-05 0.000368285 0)
(9.05448e-06 0.000207113 0)
(-8.26437e-06 2.59813e-05 0)
(-0.000171819 0.000362556 0)
(-0.000523307 0.000895732 0)
(-0.00107281 0.00154815 0)
(-0.00181949 0.00226309 0)
(-0.00276186 0.00299851 0)
(-0.00389488 0.00372362 0)
(-0.00520985 0.00441652 0)
(-0.0066952 0.00506229 0)
(-0.00833733 0.00565128 0)
(-0.0101212 0.00617787 0)
(-0.0120307 0.00663931 0)
(-0.0140494 0.00703495 0)
(-0.0161606 0.00736553 0)
(-0.0183477 0.00763268 0)
(-0.0205944 0.00783852 0)
(-0.0228846 0.00798535 0)
(-0.0252028 0.00807548 0)
(-0.0275336 0.00811101 0)
(-0.0298623 0.0080938 0)
(-0.0321743 0.00802542 0)
(-0.0344554 0.00790712 0)
(-0.0366916 0.00773985 0)
(-0.0388692 0.00752434 0)
(-0.0409746 0.00726112 0)
(-0.0429944 0.00695065 0)
(-0.0449154 0.00659335 0)
(-0.0467247 0.00618971 0)
(-0.0484093 0.00574039 0)
(-0.049957 0.00524632 0)
(-0.0513557 0.00470873 0)
(-0.0525938 0.00412927 0)
(-0.0536605 0.00351008 0)
(-0.0545455 0.00285383 0)
(-0.0552396 0.00216377 0)
(-0.0557345 0.00144375 0)
(-0.0560232 0.000698265 0)
(-0.0561 -6.75481e-05 0)
(-0.0559605 -0.00084795 0)
(-0.0556023 -0.0016366 0)
(-0.0550245 -0.00242662 0)
(-0.0542282 -0.00321065 0)
(-0.0532163 -0.00398092 0)
(-0.0519942 -0.00472936 0)
(-0.0505689 -0.0054477 0)
(-0.0489499 -0.00612759 0)
(-0.0471487 -0.00676075 0)
(-0.0451789 -0.00733908 0)
(-0.0430564 -0.00785486 0)
(-0.0407986 -0.00830083 0)
(-0.038425 -0.00867043 0)
(-0.0359565 -0.00895786 0)
(-0.0334156 -0.00915828 0)
(-0.0308258 -0.00926793 0)
(-0.0282114 -0.00928425 0)
(-0.0255972 -0.00920597 0)
(-0.0230084 -0.00903322 0)
(-0.0204698 -0.00876758 0)
(-0.0180056 -0.00841216 0)
(-0.0156392 -0.00797162 0)
(-0.0133926 -0.00745219 0)
(-0.0112857 -0.00686174 0)
(-0.00933654 -0.00620975 0)
(-0.00756034 -0.00550736 0)
(-0.0059693 -0.00476747 0)
(-0.00457217 -0.00400477 0)
(-0.00337386 -0.00323593 0)
(-0.00237506 -0.00247984 0)
(-0.00157189 -0.00175783 0)
(-0.000955603 -0.00109415 0)
(-0.000512262 -0.000516442 0)
(-0.000222525 -5.63417e-05 0)
(-6.12368e-05 0.000249764 0)
(3.23008e-06 0.000359393 0)
(6.12414e-06 0.00022092 0)
(-1.32874e-05 0.000124335 0)
(-0.000232482 0.000664815 0)
(-0.000683425 0.00140705 0)
(-0.00136908 0.00227051 0)
(-0.00228025 0.00319478 0)
(-0.00341021 0.00413416 0)
(-0.00475006 0.00505457 0)
(-0.00628805 0.00593135 0)
(-0.00801019 0.00674738 0)
(-0.00990086 0.00749142 0)
(-0.0119432 0.00815671 0)
(-0.0141198 0.00873986 0)
(-0.0164126 0.0092399 0)
(-0.0188035 0.00965752 0)
(-0.0212746 0.00999452 0)
(-0.0238082 0.0102533 0)
(-0.0263868 0.0104365 0)
(-0.0289934 0.0105468 0)
(-0.0316113 0.0105867 0)
(-0.0342244 0.0105584 0)
(-0.0368165 0.0104639 0)
(-0.0393721 0.0103045 0)
(-0.0418756 0.0100815 0)
(-0.0443121 0.00979589 0)
(-0.0466664 0.00944834 0)
(-0.0489237 0.0090395 0)
(-0.0510695 0.00857 0)
(-0.0530895 0.00804061 0)
(-0.0549696 0.00745229 0)
(-0.0566961 0.00680635 0)
(-0.0582559 0.00610451 0)
(-0.0596364 0.00534903 0)
(-0.0608256 0.00454278 0)
(-0.0618125 0.00368929 0)
(-0.0625869 0.00279282 0)
(-0.0631399 0.00185841 0)
(-0.0634639 0.000891897 0)
(-0.0635527 -0.00010012 0)
(-0.0634017 -0.00111025 0)
(-0.0630082 -0.00213038 0)
(-0.0623714 -0.00315172 0)
(-0.0614923 -0.00416488 0)
(-0.0603743 -0.00515999 0)
(-0.0590231 -0.00612677 0)
(-0.0574463 -0.00705475 0)
(-0.0556543 -0.00793333 0)
(-0.0536595 -0.008752 0)
(-0.0514767 -0.00950052 0)
(-0.0491228 -0.0101691 0)
(-0.046617 -0.0107485 0)
(-0.0439802 -0.0112304 0)
(-0.0412353 -0.0116075 0)
(-0.0384065 -0.0118736 0)
(-0.0355194 -0.0120239 0)
(-0.0326005 -0.012055 0)
(-0.0296769 -0.0119655 0)
(-0.0267761 -0.0117553 0)
(-0.023925 -0.0114264 0)
(-0.0211505 -0.0109828 0)
(-0.0184781 -0.0104303 0)
(-0.015932 -0.00977676 0)
(-0.0135345 -0.00903217 0)
(-0.0113055 -0.00820849 0)
(-0.0092621 -0.00731983 0)
(-0.00741832 -0.00638241 0)
(-0.00578442 -0.00541469 0)
(-0.00436665 -0.00443747 0)
(-0.00316693 -0.0034741 0)
(-0.00218245 -0.00255071 0)
(-0.00140548 -0.0016966 0)
(-0.000823111 -0.000944691 0)
(-0.000417101 -0.000332072 0)
(-0.000163835 9.92774e-05 0)
(-3.47578e-05 0.000301152 0)
(3.10448e-06 0.000216149 0)
(-1.80923e-05 0.00025296 0)
(-0.000292337 0.0010466 0)
(-0.000842807 0.00203763 0)
(-0.00166546 0.00314421 0)
(-0.00274262 0.00430379 0)
(-0.00406191 0.00546835 0)
(-0.00561018 0.00660154 0)
(-0.00737223 0.00767673 0)
(-0.0093313 0.00867517 0)
(-0.0114695 0.00958442 0)
(-0.0137682 0.0103969 0)
(-0.0162081 0.0111087 0)
(-0.0187699 0.0117187 0)
(-0.0214342 0.0122276 0)
(-0.0241817 0.0126374 0)
(-0.0269934 0.0129507 0)
(-0.0298507 0.0131706 0)
(-0.0327353 0.0133001 0)
(-0.0356293 0.013342 0)
(-0.0385152 0.013299 0)
(-0.0413757 0.0131732 0)
(-0.044194 0.0129663 0)
(-0.0469532 0.0126799 0)
(-0.0496371 0.0123151 0)
(-0.0522292 0.0118728 0)
(-0.0547137 0.0113539 0)
(-0.0570747 0.0107592 0)
(-0.0592967 0.0100898 0)
(-0.0613645 0.00934713 0)
(-0.0632634 0.00853279 0)
(-0.0649792 0.00764912 0)
(-0.0664981 0.00669905 0)
(-0.0678075 0.00568625 0)
(-0.0688953 0.00461521 0)
(-0.0697508 0.00349131 0)
(-0.0703643 0.00232088 0)
(-0.0707277 0.00111116 0)
(-0.0708342 -0.000129611 0)
(-0.0706789 -0.0013923 0)
(-0.0702589 -0.00266687 0)
(-0.0695731 -0.00394249 0)
(-0.0686228 -0.00520761 0)
(-0.0674114 -0.00645008 0)
(-0.0659447 -0.00765731 0)
(-0.0642311 -0.00881641 0)
(-0.0622813 -0.0099144 0)
(-0.0601084 -0.0109384 0)
(-0.0577283 -0.0118758 0)
(-0.0551589 -0.0127146 0)
(-0.0524205 -0.0134435 0)
(-0.0495355 -0.0140522 0)
(-0.0465284 -0.0145317 0)
(-0.043425 -0.0148742 0)
(-0.0402528 -0.015074 0)
(-0.0370402 -0.0151268 0)
(-0.0338166 -0.0150306 0)
(-0.0306113 -0.0147853 0)
(-0.0274538 -0.0143932 0)
(-0.024373 -0.0138592 0)
(-0.0213969 -0.0131902 0)
(-0.0185518 -0.0123959 0)
(-0.0158623 -0.0114883 0)
(-0.0133504 -0.0104822 0)
(-0.0110353 -0.00939452 0)
(-0.00893285 -0.00824515 0)
(-0.00705504 -0.00705642 0)
(-0.00540982 -0.00585338 0)
(-0.00400063 -0.00466398 0)
(-0.00282612 -0.0035192 0)
(-0.00187996 -0.0024534 0)
(-0.0011507 -0.00150469 0)
(-0.000621618 -0.000715385 0)
(-0.000271079 -0.00013262 0)
(-7.40072e-05 0.000190441 0)
(1.35258e-07 0.000191956 0)
(-2.26754e-05 0.0004112 0)
(-0.000350852 0.00150709 0)
(-0.000999749 0.00278708 0)
(-0.00195862 0.00416938 0)
(-0.00320134 0.00559067 0)
(-0.00470977 0.00700173 0)
(-0.00646625 0.00836495 0)
(-0.00845185 0.00965252 0)
(-0.0106468 0.0108447 0)
(-0.0130307 0.0119284 0)
(-0.0155829 0.0128954 0)
(-0.0182825 0.0137417 0)
(-0.0211086 0.0144661 0)
(-0.0240404 0.0150694 0)
(-0.0270576 0.0155538 0)
(-0.0301398 0.0159224 0)
(-0.0332675 0.0161784 0)
(-0.0364211 0.0163255 0)
(-0.0395818 0.0163667 0)
(-0.0427309 0.0163049 0)
(-0.04585 0.0161427 0)
(-0.0489212 0.0158821 0)
(-0.0519266 0.0155247 0)
(-0.0548486 0.015072 0)
(-0.05767 0.0145251 0)
(-0.0603736 0.013885 0)
(-0.0629426 0.0131531 0)
(-0.0653604 0.0123305 0)
(-0.0676107 0.0114191 0)
(-0.0696779 0.0104211 0)
(-0.0715468 0.00933931 0)
(-0.0732029 0.00817748 0)
(-0.0746324 0.00694011 0)
(-0.0758228 0.00563274 0)
(-0.0767623 0.00426193 0)
(-0.0774407 0.00283536 0)
(-0.0778493 0.00136182 0)
(-0.0779808 -0.000148773 0)
(-0.07783 -0.00168542 0)
(-0.0773934 -0.00323606 0)
(-0.0766699 -0.00478771 0)
(-0.0756605 -0.00632653 0)
(-0.0743686 -0.00783799 0)
(-0.0728002 -0.00930701 0)
(-0.0709638 -0.0107182 0)
(-0.0688706 -0.012056 0)
(-0.0665342 -0.013305 0)
(-0.063971 -0.0144501 0)
(-0.0612 -0.0154769 0)
(-0.0582423 -0.0163719 0)
(-0.0551217 -0.0171226 0)
(-0.0518638 -0.0177181 0)
(-0.0484962 -0.0181493 0)
(-0.0450478 -0.0184087 0)
(-0.0415491 -0.0184914 0)
(-0.0380313 -0.0183946 0)
(-0.0345258 -0.0181182 0)
(-0.0310645 -0.0176648 0)
(-0.0276784 -0.0170398 0)
(-0.0243978 -0.0162516 0)
(-0.0212514 -0.0153114 0)
(-0.0182662 -0.0142336 0)
(-0.0154662 -0.0130355 0)
(-0.0128731 -0.0117374 0)
(-0.0105047 -0.0103627 0)
(-0.00837517 -0.0089377 0)
(-0.00649429 -0.00749184 0)
(-0.00486736 -0.00605774 0)
(-0.00349482 -0.0046713 0)
(-0.00237211 -0.00337193 0)
(-0.00148953 -0.00220282 0)
(-0.000832212 -0.00121132 0)
(-0.000380739 -0.000449356 0)
(-0.000113641 2.55712e-05 0)
(-2.71853e-06 0.000148078 0)
(-2.70492e-05 0.000598238 0)
(-0.000407757 0.00204482 0)
(-0.00115324 0.00365386 0)
(-0.0022464 0.00534469 0)
(-0.00365288 0.00705428 0)
(-0.00534878 0.00873326 0)
(-0.00731177 0.0103437 0)
(-0.00951906 0.0118573 0)
(-0.0119477 0.0132541 0)
(-0.0145746 0.0145206 0)
(-0.017377 0.0156488 0)
(-0.0203322 0.0166345 0)
(-0.0234178 0.0174767 0)
(-0.0266117 0.0181767 0)
(-0.0298923 0.0187368 0)
(-0.0332383 0.0191607 0)
(-0.0366289 0.019452 0)
(-0.0400439 0.0196145 0)
(-0.0434632 0.0196518 0)
(-0.0468672 0.0195673 0)
(-0.0502368 0.0193635 0)
(-0.0535528 0.0190429 0)
(-0.0567966 0.0186074 0)
(-0.0599496 0.0180586 0)
(-0.0629935 0.0173979 0)
(-0.0659103 0.0166265 0)
(-0.0686822 0.015746 0)
(-0.0712917 0.014758 0)
(-0.0737216 0.0136648 0)
(-0.0759553 0.012469 0)
(-0.0779768 0.0111742 0)
(-0.0797708 0.00978476 0)
(-0.0813227 0.00830623 0)
(-0.0826191 0.00674517 0)
(-0.0836476 0.00510941 0)
(-0.0843973 0.00340801 0)
(-0.0848588 0.00165138 0)
(-0.0850244 -0.000148801 0)
(-0.0848881 -0.0019796 0)
(-0.0844462 -0.00382686 0)
(-0.083697 -0.00567534 0)
(-0.0826414 -0.00750882 0)
(-0.0812825 -0.00931027 0)
(-0.0796262 -0.011062 0)
(-0.0776811 -0.012746 0)
(-0.0754585 -0.014344 0)
(-0.0729723 -0.0158379 0)
(-0.0702394 -0.01721 0)
(-0.0672793 -0.0184433 0)
(-0.0641142 -0.0195218 0)
(-0.0607685 -0.0204307 0)
(-0.0572693 -0.0211573 0)
(-0.0536453 -0.0216903 0)
(-0.0499273 -0.0220211 0)
(-0.0461473 -0.0221435 0)
(-0.0423383 -0.022054 0)
(-0.0385342 -0.0217521 0)
(-0.0347688 -0.0212408 0)
(-0.0310755 -0.020526 0)
(-0.0274871 -0.0196172 0)
(-0.0240346 -0.0185276 0)
(-0.0207475 -0.0172736 0)
(-0.0176525 -0.0158752 0)
(-0.0147735 -0.014356 0)
(-0.0121308 -0.0127431 0)
(-0.00974076 -0.0110668 0)
(-0.00761552 -0.00936114 0)
(-0.0057625 -0.00766338 0)
(-0.0041842 -0.00601437 0)
(-0.00287812 -0.0044586 0)
(-0.00183659 -0.00304429 0)
(-0.0010468 -0.00182368 0)
(-0.000491654 -0.000853215 0)
(-0.00015324 -0.00019434 0)
(-5.43633e-06 8.45509e-05 0)
(-3.12299e-05 0.000813186 0)
(-0.000462921 0.00265791 0)
(-0.00130269 0.00463569 0)
(-0.00252742 0.00666776 0)
(-0.00409485 0.00869227 0)
(-0.00597535 0.0106606 0)
(-0.00814196 0.0125353 0)
(-0.0105679 0.0142884 0)
(-0.0132269 0.0159003 0)
(-0.0160934 0.0173578 0)
(-0.019142 0.0186531 0)
(-0.0223484 0.0197825 0)
(-0.0256885 0.0207456 0)
(-0.029139 0.0215438 0)
(-0.0326771 0.0221803 0)
(-0.0362805 0.022659 0)
(-0.0399274 0.0229841 0)
(-0.0435968 0.0231597 0)
(-0.0472676 0.0231901 0)
(-0.0509196 0.0230785 0)
(-0.0545327 0.0228283 0)
(-0.058087 0.0224419 0)
(-0.061563 0.0219215 0)
(-0.0649413 0.021269 0)
(-0.0682028 0.0204859 0)
(-0.0713287 0.0195738 0)
(-0.0743002 0.0185345 0)
(-0.0770991 0.0173699 0)
(-0.0797075 0.0160828 0)
(-0.0821079 0.0146764 0)
(-0.0842835 0.0131549 0)
(-0.086218 0.0115234 0)
(-0.0878964 0.00978849 0)
(-0.0893043 0.00795776 0)
(-0.0904286 0.00604033 0)
(-0.0912578 0.00404674 0)
(-0.0917815 0.001989 0)
(-0.0919916 -0.000119395 0)
(-0.0918814 -0.00226351 0)
(-0.0914465 -0.00442703 0)
(-0.0906849 -0.00659241 0)
(-0.0895968 -0.00874095 0)
(-0.088185 -0.010853 0)
(-0.0864552 -0.0129083 0)
(-0.0844156 -0.0148859 0)
(-0.0820775 -0.0167648 0)
(-0.079455 -0.018524 0)
(-0.0765651 -0.0201431 0)
(-0.0734277 -0.0216022 0)
(-0.0700657 -0.0228827 0)
(-0.0665043 -0.0239675 0)
(-0.0627715 -0.0248414 0)
(-0.0588974 -0.0254913 0)
(-0.0549142 -0.0259068 0)
(-0.0508556 -0.0260804 0)
(-0.0467566 -0.0260077 0)
(-0.042653 -0.0256878 0)
(-0.0385809 -0.0251236 0)
(-0.0345763 -0.0243216 0)
(-0.0306744 -0.0232925 0)
(-0.0269089 -0.022051 0)
(-0.023312 -0.0206158 0)
(-0.0199131 -0.0190096 0)
(-0.0167387 -0.0172592 0)
(-0.0138119 -0.0153954 0)
(-0.0111517 -0.0134529 0)
(-0.0087727 -0.01147 0)
(-0.00668478 -0.00948899 0)
(-0.00489283 -0.00755561 0)
(-0.00339663 -0.00571945 0)
(-0.00219077 -0.00403378 0)
(-0.00126461 -0.00255565 0)
(-0.000603432 -0.00134593 0)
(-0.000192694 -0.000469811 0)
(-8.02369e-06 1.5198e-06 0)
(-3.52327e-05 0.00105513 0)
(-0.000516281 0.00334427 0)
(-0.00144771 0.00572979 0)
(-0.00280076 0.00813545 0)
(-0.00452553 0.0105013 0)
(-0.00658687 0.0127804 0)
(-0.00895321 0.0149363 0)
(-0.0115938 0.0169423 0)
(-0.0144791 0.0187795 0)
(-0.0175806 0.0204357 0)
(-0.0208709 0.0219038 0)
(-0.0243235 0.023181 0)
(-0.0279129 0.0242674 0)
(-0.0316144 0.0251652 0)
(-0.0354042 0.0258783 0)
(-0.0392588 0.026411 0)
(-0.0431559 0.0267683 0)
(-0.0470732 0.0269547 0)
(-0.0509894 0.0269747 0)
(-0.0548832 0.0268324 0)
(-0.0587339 0.0265309 0)
(-0.062521 0.0260732 0)
(-0.0662242 0.0254618 0)
(-0.0698235 0.0246985 0)
(-0.073299 0.0237853 0)
(-0.0766312 0.022724 0)
(-0.0798008 0.0215165 0)
(-0.0827886 0.0201654 0)
(-0.085576 0.0186736 0)
(-0.0881448 0.017045 0)
(-0.0904775 0.0152844 0)
(-0.0925572 0.0133978 0)
(-0.0943678 0.0113926 0)
(-0.0958943 0.00927751 0)
(-0.0971228 0.00706301 0)
(-0.0980411 0.00476107 0)
(-0.098638 0.00238534 0)
(-0.0989044 -4.88375e-05 0)
(-0.0988332 -0.00252452 0)
(-0.0984191 -0.00502321 0)
(-0.0976592 -0.00752497 0)
(-0.0965533 -0.0100086 0)
(-0.0951036 -0.0124518 0)
(-0.0933151 -0.0148314 0)
(-0.0911956 -0.0171237 0)
(-0.0887562 -0.0193046 0)
(-0.0860108 -0.0213503 0)
(-0.0829765 -0.0232372 0)
(-0.0796733 -0.0249427 0)
(-0.0761243 -0.0264452 0)
(-0.0723557 -0.0277249 0)
(-0.0683962 -0.0287642 0)
(-0.064277 -0.0295477 0)
(-0.0600317 -0.030063 0)
(-0.0556957 -0.0303012 0)
(-0.0513059 -0.0302566 0)
(-0.0469002 -0.0299279 0)
(-0.0425171 -0.0293175 0)
(-0.0381951 -0.0284326 0)
(-0.0339722 -0.0272847 0)
(-0.0298849 -0.0258901 0)
(-0.0259683 -0.0242695 0)
(-0.0222549 -0.0224485 0)
(-0.0187743 -0.0204572 0)
(-0.0155523 -0.0183301 0)
(-0.0126111 -0.016106 0)
(-0.00996797 -0.013828 0)
(-0.00763562 -0.0115432 0)
(-0.00562159 -0.00930246 0)
(-0.00392818 -0.00716057 0)
(-0.0025524 -0.00517588 0)
(-0.00148588 -0.0034103 0)
(-0.000716233 -0.00192913 0)
(-0.000232109 -0.00080132 0)
(-1.05018e-05 -0.000100884 0)
(-3.90698e-05 0.00132314 0)
(-0.000567799 0.00410165 0)
(-0.00158805 0.006933 0)
(-0.00306573 0.00974403 0)
(-0.00494366 0.0124774 0)
(-0.00718133 0.0150883 0)
(-0.00974268 0.0175423 0)
(-0.0125931 0.0198143 0)
(-0.0156996 0.021887 0)
(-0.019031 0.0237495 0)
(-0.0225575 0.0253959 0)
(-0.0262509 0.0268246 0)
(-0.030084 0.0280365 0)
(-0.0340307 0.0290351 0)
(-0.0380661 0.0298247 0)
(-0.0421661 0.0304107 0)
(-0.0463072 0.0307985 0)
(-0.0504667 0.0309933 0)
(-0.0546224 0.0310001 0)
(-0.0587525 0.0308231 0)
(-0.0628358 0.0304661 0)
(-0.066851 0.0299322 0)
(-0.0707774 0.029224 0)
(-0.0745943 0.0283438 0)
(-0.0782815 0.0272937 0)
(-0.0818185 0.0260756 0)
(-0.0851856 0.0246918 0)
(-0.088363 0.0231452 0)
(-0.0913313 0.0214392 0)
(-0.0940719 0.0195781 0)
(-0.0965662 0.0175673 0)
(-0.0987968 0.0154138 0)
(-0.100747 0.0131257 0)
(-0.102401 0.010713 0)
(-0.103743 0.00818725 0)
(-0.104762 0.005562 0)
(-0.105444 0.00285251 0)
(-0.10578 7.59369e-05 0)
(-0.105762 -0.00274875 0)
(-0.105383 -0.00560084 0)
(-0.104641 -0.00845801 0)
(-0.103533 -0.0112965 0)
(-0.102061 -0.0140912 0)
(-0.100229 -0.0168162 0)
(-0.0980453 -0.0194446 0)
(-0.0955193 -0.0219495 0)
(-0.0926649 -0.0243037 0)
(-0.0894988 -0.0264806 0)
(-0.0860411 -0.0284543 0)
(-0.0823152 -0.0302002 0)
(-0.0783475 -0.0316957 0)
(-0.0741675 -0.0329201 0)
(-0.0698076 -0.0338558 0)
(-0.0653025 -0.0344882 0)
(-0.0606892 -0.0348063 0)
(-0.0560066 -0.0348033 0)
(-0.0512949 -0.0344766 0)
(-0.046595 -0.0338287 0)
(-0.0419481 -0.0328666 0)
(-0.037395 -0.0316028 0)
(-0.0329756 -0.0300549 0)
(-0.028728 -0.0282458 0)
(-0.024688 -0.0262036 0)
(-0.0208886 -0.0239618 0)
(-0.017359 -0.0215586 0)
(-0.0141246 -0.0190373 0)
(-0.0112059 -0.0164455 0)
(-0.00861858 -0.0138353 0)
(-0.0063732 -0.011263 0)
(-0.00447478 -0.00878855 0)
(-0.00292291 -0.00647558 0)
(-0.00171157 -0.00439099 0)
(-0.000830618 -0.00260468 0)
(-0.00027173 -0.00118952 0)
(-1.29033e-05 -0.000222635 0)
(-4.27494e-05 0.00161628 0)
(-0.00061744 0.00492766 0)
(-0.0017235 0.00824191 0)
(-0.0033218 0.0114894 0)
(-0.0053482 0.0146159 0)
(-0.00775707 0.0175794 0)
(-0.010508 0.0203481 0)
(-0.0135625 0.0228992 0)
(-0.0168845 0.0252174 0)
(-0.0204399 0.0272936 0)
(-0.0241967 0.0291237 0)
(-0.0281248 0.0307074 0)
(-0.0321953 0.0320472 0)
(-0.0363811 0.0331474 0)
(-0.0406561 0.0340137 0)
(-0.0449953 0.0346521 0)
(-0.0493745 0.0350688 0)
(-0.0537704 0.0352699 0)
(-0.0581601 0.0352606 0)
(-0.0625215 0.0350457 0)
(-0.0668326 0.0346293 0)
(-0.0710719 0.0340149 0)
(-0.0752182 0.0332051 0)
(-0.0792503 0.0322026 0)
(-0.0831474 0.0310095 0)
(-0.0868888 0.0296281 0)
(-0.0904539 0.028061 0)
(-0.0938226 0.0263112 0)
(-0.0969749 0.0243826 0)
(-0.0998915 0.02228 0)
(-0.102553 0.0200095 0)
(-0.104942 0.0175785 0)
(-0.10704 0.0149964 0)
(-0.10883 0.012274 0)
(-0.110298 0.00942419 0)
(-0.111429 0.00646186 0)
(-0.11221 0.00340389 0)
(-0.11263 0.000269242 0)
(-0.112681 -0.00292111 0)
(-0.112354 -0.00614425 0)
(-0.111645 -0.00937545 0)
(-0.110551 -0.0125883 0)
(-0.109074 -0.0157551 0)
(-0.107216 -0.0188467 0)
(-0.104984 -0.0218335 0)
(-0.102387 -0.0246849 0)
(-0.099438 -0.0273708 0)
(-0.0961535 -0.029861 0)
(-0.0925532 -0.0321262 0)
(-0.0886604 -0.0341388 0)
(-0.084502 -0.0358726 0)
(-0.0801078 -0.0373041 0)