/*--------------------------------*- C++ -*----------------------------------*\
  =========                 |
  \\      /  F ield         | OpenFOAM: The Open Source CFD Toolbox
   \\    /   O peration     | Website:  https://openfoam.org
    \\  /    A nd           | Version:  12
     \\/     M anipulation  |
\*---------------------------------------------------------------------------*/
FoamFile
{
    format      ascii;
    class       volScalarField;
    location    "1.4";
    object      p;
}
// * * * * * * * * * * * * * * * * * * * * * * * * * * * * * * * * * * * * * //

dimensions      [0 2 -2 0 0 0 0];

internalField   nonuniform List<scalar> 
900
(
1.27195e-09
6.46414e-05
0.000135855
0.000180058
0.000181586
0.000133611
3.37775e-05
-0.000117051
-0.000315615
-0.000557026
-0.000835406
-0.00114431
-0.00147705
-0.0018268
-0.00218678
-0.00255019
-0.00291025
-0.00326015
-0.00359307
-0.00390216
-0.00418068
-0.00442217
-0.0046207
-0.00477138
-0.00487095
-0.00491857
-0.00491665
-0.00487209
-0.00480065
-0.00473593
-0.000187091
-9.14529e-05
-6.92014e-06
3.311e-05
2.54601e-05
-2.94738e-05
-0.000131282
-0.000278281
-0.00046727
-0.000693913
-0.000953141
-0.00123941
-0.00154688
-0.00186959
-0.00220146
-0.00253639
-0.00286829
-0.00319104
-0.00349856
-0.00378485
-0.00404406
-0.00427061
-0.00445943
-0.00460616
-0.00470761
-0.00476213
-0.00476934
-0.00472889
-0.00464401
-0.00454816
-0.000231118
-0.000102879
3.97747e-06
4.81446e-05
3.47618e-05
-2.9231e-05
-0.000140166
-0.000294716
-0.000488833
-0.000717878
-0.000976849
-0.00126051
-0.00156348
-0.00188029
-0.00220541
-0.00253331
-0.00285844
-0.00317524
-0.00347819
-0.00376179
-0.00402064
-0.00424947
-0.00444328
-0.00459742
-0.00470783
-0.00477123
-0.00478395
-0.0047391
-0.00463159
-0.00450283
-8.9376e-06
0.000134283
0.00024857
0.000286835
0.000258182
0.000173543
3.91553e-05
-0.000139927
-0.000358443
-0.000610979
-0.000892126
-0.00119655
-0.00151896
-0.00185417
-0.00219704
-0.00254246
-0.00288534
-0.00322057
-0.00354298
-0.00384734
-0.00412835
-0.00438062
-0.00459872
-0.00477723
-0.00491086
-0.00499458
-0.00502219
-0.00498276
-0.00486726
-0.00472301
0.000535083
0.000667766
0.000761668
0.000769576
0.000703137
0.000575935
0.000396344
0.000171078
-9.33666e-05
-0.000390746
-0.000715191
-0.00106122
-0.00142366
-0.00179765
-0.0021785
-0.00256165
-0.00294256
-0.00331666
-0.00367923
-0.00402533
-0.00434974
-0.00464692
-0.00491092
-0.00513547
-0.00531402
-0.00543986
-0.00550465
-0.00549482
-0.00539879
-0.00526425
0.00145302
0.00154399
0.00158194
0.00152628
0.00139093
0.00119156
0.000938626
0.000640588
0.000305185
-6.05546e-05
-0.000450409
-0.000858908
-0.00128123
-0.00171308
-0.00215054
-0.00258991
-0.00302756
-0.00345977
-0.00388255
-0.00429149
-0.00468168
-0.0050475
-0.00538262
-0.0056799
-0.00593152
-0.00612899
-0.00626184
-0.00631441
-0.00627287
-0.00617864
0.00280122
0.00280949
0.00274449
0.00258132
0.00233633
0.00202692
0.00166585
0.0012635
0.000828874
0.000369619
-0.000107958
-0.00059878
-0.00109883
-0.00160494
-0.00211454
-0.00262541
-0.00313547
-0.00364244
-0.00414364
-0.00463571
-0.00511445
-0.00557455
-0.00600947
-0.00641133
-0.00677098
-0.0070779
-0.00731927
-0.00747765
-0.00753672
-0.00752291
0.00464289
0.00451198
0.0042802
0.00395115
0.00354381
0.00307683
0.00256547
0.00202226
0.00145741
0.000878862
0.000292484
-0.000297704
-0.000889283
-0.0014811
-0.00207288
-0.00266492
-0.00325766
-0.00385127
-0.00444529
-0.0050383
-0.00562752
-0.00620853
-0.00677505
-0.00731873
-0.00782899
-0.00829306
-0.00869545
-0.00901728
-0.00923956
-0.00936129
0.00704358
0.00669473
0.00620893
0.00563653
0.00499909
0.00431548
0.00360363
0.00287831
0.00215059
0.00142817
0.000715635
1.48521e-05
-0.000674584
-0.00135489
-0.00202959
-0.00270295
-0.00337945
-0.0040632
-0.0047574
-0.00546381
-0.00618228
-0.00691028
-0.00764249
-0.00837053
-0.00908264
-0.00976348
-0.0103946
-0.0109566
-0.0114277
-0.0117618
0.0100602
0.00938484
0.00852675
0.00760905
0.00665532
0.00568279
0.00471182
0.00375936
0.00283678
0.00195038
0.00110209
0.000290008
-0.000490923
-0.0012483
-0.0019915
-0.00273095
-0.00347735
-0.00424087
-0.00503043
-0.00585293
-0.00671254
-0.0076101
-0.00854251
-0.00950225
-0.0104767
-0.011448
-0.0123946
-0.013298
-0.0141341
-0.0147866
0.0137235
0.0125741
0.0111858
0.00979068
0.00841284
0.00706474
0.00576846
0.00454253
0.00339746
0.00233646
0.00135669
0.000450115
-0.000395612
-0.00119627
-0.00197006
-0.00273655
-0.00351571
-0.00432677
-0.00518724
-0.0061119
-0.00711179
-0.00819332
-0.00935751
-0.0105991
-0.0119056
-0.0132566
-0.014628
-0.0160049
-0.0173617
-0.0184769
0.0180097
0.0161901
0.0140651
0.0120245
0.0100906
0.00826608
0.00657303
0.00503042
0.00364587
0.0024169
0.00133284
0.000376125
-0.000476544
-0.00125299
-0.0019842
-0.00270303
-0.00344279
-0.00423588
-0.00511239
-0.00609877
-0.0072165
-0.00848081
-0.00989964
-0.0114724
-0.013188
-0.0150244
-0.0169558
-0.0189753
-0.0210575
-0.022828
0.0228006
0.0200551
0.0169286
0.0140339
0.011387
0.00897314
0.00681166
0.00491969
0.00329886
0.00193709
0.000811582
-0.000109449
-0.000865197
-0.00150066
-0.00206497
-0.00260961
-0.00318673
-0.00384731
-0.00463941
-0.00560635
-0.00678498
-0.00820398
-0.0098823
-0.0118274
-0.0140326
-0.0164754
-0.0191302
-0.0220044
-0.0250763
-0.0277547
0.0278253
0.0238284
0.0193688
0.0153674
0.0118272
0.00870448
0.00601142
0.00375955
0.00193973
0.000524824
-0.000526129
-0.00126537
-0.00175448
-0.00206234
-0.00226303
-0.00243365
-0.00265221
-0.00299537
-0.0035362
-0.0043419
-0.00547145
-0.00697337
-0.0088836
-0.011223
-0.0139931
-0.0171739
-0.0207435
-0.0247327
-0.0291288
-0.0330397
0.0325807
0.0269271
0.0207297
0.0153253
0.0106935
0.00674641
0.00348122
0.000898186
-0.00102946
-0.00235166
-0.00313548
-0.00346182
-0.00342296
-0.00312006
-0.00266068
-0.00215622
-0.00171939
-0.00146149
-0.00148974
-0.00190435
-0.00279554
-0.00424059
-0.00630088
-0.00901828
-0.0124092
-0.0164607
-0.0211603
-0.0265757
-0.0327105
-0.0382634
0.0362234
0.0284215
0.0200057
0.0128638
0.00693674
0.00207051
-0.00176335
-0.00458484
-0.0064482
-0.0074366
-0.00765374
-0.00721955
-0.00626725
-0.00494049
-0.00339057
-0.00177357
-0.000247546
0.00103049
0.00190777
0.00223925
0.00189137
0.000745971
-0.00129577
-0.00430814
-0.00833215
-0.0133702
-0.0194278
-0.0266287
-0.035004
-0.0427051
0.0374279
0.0268972
0.0157114
0.00647236
-0.000938001
-0.00676969
-0.0110931
-0.0139617
-0.015471
-0.0157514
-0.0149567
-0.0132586
-0.0108436
-0.00790958
-0.00466313
-0.00131685
0.00191361
0.0048126
0.00716795
0.00877495
0.00944097
0.00899041
0.00727014
0.00415682
-0.000430473
-0.00652227
-0.0141568
-0.0235403
-0.0347475
-0.0452095
0.0342035
0.0202794
0.00571426
-0.00598064
-0.0150117
-0.0217651
-0.0263771
-0.0289541
-0.0296524
-0.0286684
-0.0262229
-0.0225549
-0.0179176
-0.0125757
-0.00680347
-0.000882196
0.00490198
0.0102606
0.0149063
0.0185567
0.0209399
0.0218009
0.0209085
0.0180657
0.0131282
0.00601603
-0.00336495
-0.0153411
-0.0300549
-0.0440023
0.0236605
0.00560729
-0.0129766
-0.0274421
-0.0381244
-0.0456013
-0.0501107
-0.051841
-0.0510373
-0.0479868
-0.0429988
-0.0363966
-0.0285146
-0.0196966
-0.0102952
-0.000670697
0.00880851
0.0177677
0.0258275
0.0326077
0.0377327
0.0408386
0.0415831
0.0396596
0.0348235
0.0269104
0.0157324
0.000787488
-0.0181695
-0.0364374
0.00171058
-0.0212568
-0.0444832
-0.0619185
-0.0740852
-0.0818313
-0.0855516
-0.0855625
-0.0822379
-0.0759898
-0.0672419
-0.056421
-0.0439552
-0.0302759
-0.0158196
-0.00103115
0.0136328
0.0277017
0.0406906
0.0521013
0.0614258
0.0681547
0.071789
0.0718592
0.0679632
0.0597936
0.0470051
0.0288355
0.00488122
-0.0186406
-0.0373344
-0.0660198
-0.0944241
-0.114792
-0.127925
-0.135062
-0.136844
-0.13379
-0.126462
-0.115443
-0.101303
-0.0845903
-0.0658344
-0.0455529
-0.0242609
-0.00248123
0.019246
0.040356
0.060255
0.0783128
0.0938607
0.106202
0.114619
0.118403
0.116905
0.109575
0.0958025
0.0744258
0.0447886
0.0150097
-0.101351
-0.136537
-0.170442
-0.193251
-0.206204
-0.211134
-0.209084
-0.200895
-0.18741
-0.169447
-0.147758
-0.123024
-0.0958694
-0.066878
-0.0366187
-0.00567133
0.0253643
0.0558814
0.0852005
0.112536
0.13704
0.157797
0.173796
0.183982
0.187321
0.182858
0.169519
0.145507
0.109733
0.0726818
-0.201399
-0.243776
-0.283048
-0.306913
-0.317378
-0.317242
-0.308231
-0.291706
-0.268932
-0.241043
-0.209007
-0.173634
-0.135591
-0.0954893
-0.0539108
-0.0113941
0.0315162
0.074181
0.115868
0.155754
0.192838
0.225902
0.253561
0.274288
0.286467
0.28847
0.278419
0.253438
0.211638
0.166418
-0.353658
-0.403617
-0.447075
-0.468771
-0.472196
-0.461858
-0.440661
-0.410805
-0.374168
-0.332259
-0.286253
-0.237017
-0.185202
-0.131377
-0.0760406
-0.0195727
0.0376971
0.0953377
0.15273
0.209022
0.263086
0.313499
0.358509
0.395984
0.423467
0.438205
0.43692
0.414814
0.3684
0.314562
-0.583784
-0.640598
-0.684333
-0.696541
-0.683886
-0.654043
-0.611903
-0.560895
-0.503713
-0.442169
-0.377559
-0.3109
-0.24276
-0.173265
-0.102335
-0.0299157
0.0439623
0.119158
0.195354
0.27197
0.348069
0.422223
0.492366
0.555716
0.608772
0.647288
0.665332
0.65457
0.608166
0.54674
-0.938128
-0.996574
-1.02899
-1.0148
-0.967752
-0.901337
-0.823562
-0.739252
-0.651981
-0.564121
-0.476725
-0.389908
-0.303412
-0.216733
-0.129233
-0.0402369
0.0509087
0.144788
0.241828
0.342149
0.44541
0.550613
0.65584
0.757976
0.852482
0.933199
0.99106
1.01113
0.978299
0.915675
-1.50656
-1.54615
-1.53538
-1.45602
-1.33741
-1.20314
-1.06629
-0.932897
-0.805333
-0.68435
-0.569634
-0.460216
-0.35482
-0.2519
-0.149709
-0.04641
0.0598253
0.17077
0.288075
0.413178
0.54714
0.690396
0.84237
1.00094
1.16175
1.31708
1.45355
1.54582
1.56197
1.52145
-2.47199
-2.42335
-2.27717
-2.04661
-1.79144
-1.54529
-1.3193
-1.1164
-0.935916
-0.7754
-0.631872
-0.501874
-0.381731
-0.267866
-0.156849
-0.0453539
0.0699081
0.192265
0.325099
0.471896
0.636205
0.821457
1.03057
1.26524
1.52472
1.80366
2.08681
2.33814
2.49752
2.5525
-4.60255
-3.97447
-3.26134
-2.65572
-2.16288
-1.7589
-1.42857
-1.1592
-0.938807
-0.756739
-0.603672
-0.471832
-0.354726
-0.246838
-0.143339
-0.0398042
0.0681029
0.184971
0.315565
0.465437
0.641151
0.850529
1.10293
1.40927
1.78122
2.22974
2.76674
3.41073
4.15412
4.80485
-11.2873
-7.78817
-5.25641
-3.7217
-2.71403
-2.00235
-1.49235
-1.12591
-0.859267
-0.660868
-0.508923
-0.388244
-0.287913
-0.199777
-0.117492
-0.0358509
0.0510121
0.148636
0.262799
0.401989
0.577546
0.805102
1.10705
1.5158
2.07661
2.84928
3.92713
5.5334
8.12542
11.6641
)
;

boundaryField
{
    movingWall
    {
        type            zeroGradient;
    }
    fixedWalls
    {
        type            zeroGradient;
    }
    frontAndBack
    {
        type            empty;
    }
}


// ************************************************************************* //
