/*--------------------------------*- C++ -*----------------------------------*\
  =========                 |
  \\      /  F ield         | OpenFOAM: The Open Source CFD Toolbox
   \\    /   O peration     | Website:  https://openfoam.org
    \\  /    A nd           | Version:  12
     \\/     M anipulation  |
\*---------------------------------------------------------------------------*/
FoamFile
{
    format      ascii;
    class       volScalarField;
    location    "2.5";
    object      epsilon;
}
// * * * * * * * * * * * * * * * * * * * * * * * * * * * * * * * * * * * * * //

dimensions      [0 2 -3 0 0 0 0];

internalField   nonuniform List<scalar> 
5625
(
1.36138e-07
9.20179e-07
2.04082e-06
3.35962e-06
4.80552e-06
6.32954e-06
7.89365e-06
9.4672e-06
1.10254e-05
1.25487e-05
1.40224e-05
1.54368e-05
1.67864e-05
1.807e-05
1.929e-05
2.04521e-05
2.15646e-05
2.26374e-05
2.36819e-05
2.47103e-05
2.57348e-05
2.67675e-05
2.782e-05
2.8903e-05
3.00266e-05
3.12e-05
3.24312e-05
3.37275e-05
3.50952e-05
3.654e-05
3.80666e-05
3.96788e-05
4.13799e-05
4.31721e-05
4.50568e-05
4.70345e-05
4.91045e-05
5.12646e-05
5.35113e-05
5.5839e-05
5.82399e-05
6.07032e-05
6.32151e-05
6.57575e-05
6.83082e-05
7.08391e-05
7.33165e-05
7.56999e-05
7.79416e-05
7.99862e-05
8.17708e-05
8.3224e-05
8.4261e-05
8.47711e-05
8.48027e-05
8.42073e-05
8.29086e-05
8.08611e-05
7.80429e-05
7.44594e-05
7.0147e-05
6.51767e-05
5.96526e-05
5.37084e-05
4.7499e-05
4.11899e-05
3.49446e-05
2.89124e-05
2.32182e-05
1.79575e-05
1.31958e-05
8.97732e-06
5.34421e-06
2.38095e-06
3.51352e-07
2.57185e-07
4.99883e-07
9.98415e-07
1.6083e-06
2.28371e-06
2.99843e-06
3.73347e-06
4.47391e-06
5.20783e-06
5.92589e-06
6.62111e-06
7.28876e-06
7.92625e-06
8.53296e-06
9.11001e-06
9.66001e-06
1.01868e-05
1.06951e-05
1.11903e-05
1.1678e-05
1.21641e-05
1.26543e-05
1.31539e-05
1.36682e-05
1.42019e-05
1.47593e-05
1.53444e-05
1.59605e-05
1.66107e-05
1.72976e-05
1.80236e-05
1.87905e-05
1.95998e-05
2.04526e-05
2.13496e-05
2.2291e-05
2.32763e-05
2.43046e-05
2.5374e-05
2.64817e-05
2.76239e-05
2.87954e-05
2.99891e-05
3.11965e-05
3.24064e-05
3.36053e-05
3.47767e-05
3.59012e-05
3.69556e-05
3.79135e-05
3.87449e-05
3.94159e-05
3.98863e-05
4.01077e-05
4.00987e-05
3.97926e-05
3.91552e-05
3.81662e-05
3.68167e-05
3.51107e-05
3.30666e-05
3.07183e-05
2.8115e-05
2.53188e-05
2.24016e-05
1.94396e-05
1.65081e-05
1.3676e-05
1.10013e-05
8.52902e-06
6.29139e-06
4.31286e-06
2.623e-06
1.29576e-06
6.63367e-07
5.45988e-07
4.86731e-07
7.68863e-07
1.16342e-06
1.61544e-06
2.10016e-06
2.60204e-06
3.10972e-06
3.61442e-06
4.10937e-06
4.58956e-06
5.05158e-06
5.49354e-06
5.91492e-06
6.3164e-06
6.69976e-06
7.06758e-06
7.4231e-06
7.77001e-06
8.11222e-06
8.45376e-06
8.79857e-06
9.1505e-06
9.51314e-06
9.88982e-06
1.02836e-05
1.06973e-05
1.11332e-05
1.15937e-05
1.20806e-05
1.25955e-05
1.31398e-05
1.37146e-05
1.43206e-05
1.49582e-05
1.56276e-05
1.63284e-05
1.70597e-05
1.78199e-05
1.8607e-05
1.94178e-05
2.02482e-05
2.1093e-05
2.19453e-05
2.27968e-05
2.36374e-05
2.44548e-05
2.52347e-05
2.59605e-05
2.66132e-05
2.71716e-05
2.76125e-05
2.79055e-05
2.80257e-05
2.79798e-05
2.77251e-05
2.72412e-05
2.65164e-05
2.55469e-05
2.43373e-05
2.29022e-05
2.12658e-05
1.94621e-05
1.75331e-05
1.55267e-05
1.34933e-05
1.14827e-05
9.54065e-06
7.70632e-06
6.01132e-06
4.48095e-06
3.13977e-06
2.02799e-06
1.26049e-06
1.40481e-06
8.92508e-07
5.82978e-07
7.26593e-07
1.00228e-06
1.33998e-06
1.71155e-06
2.1013e-06
2.49867e-06
2.89589e-06
3.28713e-06
3.6681e-06
4.03589e-06
4.38882e-06
4.72637e-06
5.04899e-06
5.35801e-06
5.65543e-06
5.94379e-06
6.22602e-06
6.50522e-06
6.78462e-06
7.06742e-06
7.3567e-06
7.65542e-06
7.9663e-06
8.29186e-06
8.6344e-06
8.99597e-06
9.3784e-06
9.78327e-06
1.0212e-05
1.06656e-05
1.1145e-05
1.16509e-05
1.21834e-05
1.27426e-05
1.33279e-05
1.39384e-05
1.45726e-05
1.52283e-05
1.59024e-05
1.65911e-05
1.72894e-05
1.7991e-05
1.86885e-05
1.93728e-05
2.00332e-05
2.06575e-05
2.12317e-05
2.17403e-05
2.21662e-05
2.24912e-05
2.26869e-05
2.27472e-05
2.26672e-05
2.2418e-05
2.19863e-05
2.1365e-05
2.0553e-05
1.9556e-05
1.83867e-05
1.70652e-05
1.56182e-05
1.40785e-05
1.24827e-05
1.08696e-05
9.27707e-06
7.74045e-06
6.29073e-06
4.95458e-06
3.75654e-06
2.72639e-06
1.92093e-06
1.50354e-06
2.28661e-06
1.28588e-06
7.32119e-07
7.64514e-07
9.55191e-07
1.21716e-06
1.51739e-06
1.83872e-06
2.17031e-06
2.50455e-06
2.83589e-06
3.16027e-06
3.47495e-06
3.77831e-06
4.06973e-06
4.3495e-06
4.61866e-06
4.87887e-06
5.13227e-06
5.38135e-06
5.62877e-06
5.87734e-06
6.12983e-06
6.38897e-06
6.65734e-06
6.9374e-06
7.23139e-06
7.54137e-06
7.8692e-06
8.21653e-06
8.58481e-06
8.97524e-06
9.38883e-06
9.8263e-06
1.02881e-05
1.07744e-05
1.12848e-05
1.18188e-05
1.23751e-05
1.2952e-05
1.35471e-05
1.4157e-05
1.47777e-05
1.54042e-05
1.60302e-05
1.66483e-05
1.72501e-05
1.78255e-05
1.83635e-05
1.88518e-05
1.92768e-05
1.96243e-05
1.98785e-05
2.00117e-05
2.00336e-05
1.99277e-05
1.96753e-05
1.92669e-05
1.86976e-05
1.79678e-05
1.70831e-05
1.6055e-05
1.49007e-05
1.3643e-05
1.23095e-05
1.09311e-05
9.54041e-06
8.16983e-06
6.84979e-06
5.60794e-06
4.46972e-06
3.46166e-06
2.62049e-06
2.0215e-06
1.87708e-06
3.27475e-06
1.71852e-06
9.14471e-07
8.47956e-07
9.69596e-07
1.17398e-06
1.42262e-06
1.69632e-06
1.98346e-06
2.27617e-06
2.56883e-06
2.85738e-06
3.13906e-06
3.41219e-06
3.67606e-06
3.93079e-06
4.17721e-06
4.41675e-06
4.6513e-06
4.88307e-06
5.11448e-06
5.34806e-06
5.58637e-06
5.83192e-06
6.08711e-06
6.35422e-06
6.63538e-06
6.93253e-06
7.24741e-06
7.58157e-06
7.93636e-06
8.3129e-06
8.71205e-06
9.1344e-06
9.58022e-06
1.00494e-05
1.05415e-05
1.10555e-05
1.15899e-05
1.21426e-05
1.27107e-05
1.32906e-05
1.38779e-05
1.44673e-05
1.50524e-05
1.56259e-05
1.61796e-05
1.67041e-05
1.71893e-05
1.7624e-05
1.79967e-05
1.82954e-05
1.85046e-05
1.85998e-05
1.86002e-05
1.84812e-05
1.82306e-05
1.78407e-05
1.73074e-05
1.66308e-05
1.58154e-05
1.48711e-05
1.38126e-05
1.26601e-05
1.14384e-05
1.01758e-05
8.90258e-06
7.64909e-06
6.44459e-06
5.31635e-06
4.29072e-06
3.39765e-06
2.68265e-06
2.23873e-06
2.32811e-06
4.34346e-06
2.18554e-06
1.12107e-06
9.61613e-07
1.02312e-06
1.18007e-06
1.38817e-06
1.62592e-06
1.88066e-06
2.14403e-06
2.41013e-06
2.67478e-06
2.93506e-06
3.18919e-06
3.43631e-06
3.6764e-06
3.91013e-06
4.13876e-06
4.36401e-06
4.5879e-06
4.8127e-06
5.04079e-06
5.27459e-06
5.51649e-06
5.76882e-06
6.03376e-06
6.31335e-06
6.60948e-06
6.92382e-06
7.25785e-06
7.61283e-06
7.98976e-06
8.38937e-06
8.81206e-06
9.25789e-06
9.7265e-06
1.02171e-05
1.07282e-05
1.12581e-05
1.18041e-05
1.23629e-05
1.29305e-05
1.35021e-05
1.40722e-05
1.46343e-05
1.51812e-05
1.57051e-05
1.61974e-05
1.66489e-05
1.70498e-05
1.73903e-05
1.76604e-05
1.78451e-05
1.79239e-05
1.79182e-05
1.78019e-05
1.75648e-05
1.71993e-05
1.67006e-05
1.60671e-05
1.53013e-05
1.44098e-05
1.34059e-05
1.23082e-05
1.11402e-05
9.92967e-06
8.70708e-06
7.50359e-06
6.34965e-06
5.2744e-06
4.30709e-06
3.48236e-06
2.85407e-06
2.53186e-06
2.83122e-06
5.47416e-06
2.68382e-06
1.34719e-06
1.09746e-06
1.10426e-06
1.22014e-06
1.39465e-06
1.60379e-06
1.83375e-06
2.07551e-06
2.32281e-06
2.5712e-06
2.81756e-06
3.05995e-06
3.29735e-06
3.5296e-06
3.75723e-06
3.98137e-06
4.2036e-06
4.42585e-06
4.65028e-06
4.87919e-06
5.11493e-06
5.35982e-06
5.61614e-06
5.88603e-06
6.17149e-06
6.47436e-06
6.79625e-06
7.13856e-06
7.50245e-06
7.88878e-06
8.2981e-06
8.73059e-06
9.18601e-06
9.66369e-06
1.01624e-05
1.06804e-05
1.12152e-05
1.17639e-05
1.23227e-05
1.28871e-05
1.34521e-05
1.40121e-05
1.45607e-05
1.50911e-05
1.5596e-05
1.60677e-05
1.64984e-05
1.68798e-05
1.72035e-05
1.74612e-05
1.76406e-05
1.77218e-05
1.7725e-05
1.7627e-05
1.7416e-05
1.7083e-05
1.66214e-05
1.6027e-05
1.52994e-05
1.44434e-05
1.34698e-05
1.23954e-05
1.12437e-05
1.00433e-05
8.82652e-06
7.62708e-06
6.4786e-06
5.41375e-06
4.46579e-06
3.67461e-06
3.10426e-06
2.87907e-06
3.37176e-06
6.65248e-06
3.2113e-06
1.59014e-06
1.25083e-06
1.20635e-06
1.28545e-06
1.43107e-06
1.61664e-06
1.82706e-06
2.05256e-06
2.28643e-06
2.52387e-06
2.76155e-06
2.99728e-06
3.2299e-06
3.4591e-06
3.68528e-06
3.90947e-06
4.13316e-06
4.35821e-06
4.58671e-06
4.82093e-06
5.06317e-06
5.31574e-06
5.58087e-06
5.8607e-06
6.15719e-06
6.47213e-06
6.80697e-06
7.16305e-06
7.54141e-06
7.94275e-06
8.36739e-06
8.81521e-06
9.28566e-06
9.77765e-06
1.02895e-05
1.08191e-05
1.13635e-05
1.19193e-05
1.24822e-05
1.30477e-05
1.36105e-05
1.41651e-05
1.47055e-05
1.52255e-05
1.57187e-05
1.61787e-05
1.65989e-05
1.69727e-05
1.72932e-05
1.75532e-05
1.77441e-05
1.78471e-05
1.78721e-05
1.78074e-05
1.76354e-05
1.73453e-05
1.69273e-05
1.63738e-05
1.5681e-05
1.48507e-05
1.38913e-05
1.28188e-05
1.16569e-05
1.0436e-05
9.19135e-06
7.96096e-06
6.78302e-06
5.69509e-06
4.73562e-06
3.95045e-06
3.41494e-06
3.26707e-06
3.9403e-06
7.86736e-06
3.76665e-06
1.84825e-06
1.41881e-06
1.3252e-06
1.37054e-06
1.4907e-06
1.65634e-06
1.85101e-06
2.0642e-06
2.28861e-06
2.51906e-06
2.75191e-06
2.98478e-06
3.21629e-06
3.446e-06
3.6742e-06
3.90182e-06
4.1303e-06
4.36142e-06
4.59725e-06
4.84003e-06
5.09207e-06
5.35565e-06
5.63299e-06
5.92618e-06
6.23719e-06
6.56773e-06
6.9193e-06
7.29305e-06
7.68981e-06
8.11003e-06
8.55375e-06
9.02054e-06
9.50941e-06
1.00188e-05
1.05467e-05
1.10903e-05
1.16462e-05
1.22107e-05
1.27794e-05
1.33474e-05
1.39097e-05
1.44609e-05
1.49958e-05
1.55091e-05
1.59955e-05
1.64502e-05
1.68683e-05
1.72446e-05
1.7574e-05
1.78502e-05
1.80659e-05
1.82079e-05
1.82686e-05
1.82495e-05
1.81283e-05
1.78906e-05
1.75226e-05
1.70128e-05
1.63536e-05
1.55433e-05
1.45882e-05
1.35033e-05
1.23128e-05
1.10495e-05
9.75252e-06
8.46477e-06
7.23025e-06
6.09259e-06
5.09644e-06
4.29443e-06
3.7742e-06
3.68705e-06
4.53026e-06
9.11001e-06
4.34892e-06
2.12046e-06
1.59952e-06
1.45803e-06
1.47178e-06
1.56905e-06
1.71758e-06
1.89946e-06
2.1033e-06
2.32125e-06
2.54773e-06
2.77877e-06
3.01169e-06
3.24493e-06
3.47789e-06
3.71074e-06
3.94435e-06
4.18011e-06
4.41981e-06
4.66552e-06
4.91946e-06
5.18392e-06
5.46119e-06
5.75347e-06
6.06283e-06
6.39112e-06
6.73997e-06
7.11078e-06
7.50452e-06
7.92183e-06
8.36287e-06
8.82736e-06
9.31446e-06
9.82278e-06
1.03503e-05
1.08945e-05
1.1452e-05
1.20194e-05
1.25923e-05
1.31663e-05
1.37367e-05
1.42988e-05
1.48478e-05
1.53793e-05
1.58893e-05
1.6374e-05
1.68301e-05
1.72542e-05
1.76428e-05
1.79919e-05
1.82962e-05
1.85486e-05
1.87399e-05
1.88545e-05
1.88872e-05
1.88264e-05
1.86485e-05
1.83361e-05
1.78728e-05
1.72472e-05
1.64543e-05
1.54978e-05
1.43918e-05
1.31609e-05
1.18404e-05
1.04735e-05
9.10875e-06
7.79662e-06
6.58779e-06
5.53406e-06
4.6957e-06
4.17366e-06
4.13285e-06
5.13677e-06
1.03734e-05
4.95754e-06
2.40608e-06
1.79171e-06
1.60292e-06
1.58665e-06
1.66301e-06
1.79664e-06
1.96811e-06
2.16508e-06
2.37909e-06
2.60408e-06
2.8357e-06
3.07101e-06
3.30827e-06
3.54668e-06
3.78635e-06
4.02806e-06
4.27315e-06
4.52342e-06
4.78091e-06
5.04787e-06
5.32659e-06
5.61934e-06
5.92832e-06
6.25553e-06
6.60276e-06
6.97153e-06
7.36305e-06
7.7781e-06
8.21704e-06
8.67974e-06
9.16551e-06
9.6731e-06
1.02007e-05
1.07457e-05
1.13053e-05
1.18757e-05
1.24531e-05
1.3033e-05
1.36112e-05
1.41832e-05
1.47449e-05
1.52923e-05
1.58224e-05
1.63323e-05
1.682e-05
1.72836e-05
1.77213e-05
1.8131e-05
1.85095e-05
1.8852e-05
1.91517e-05
1.93988e-05
1.95812e-05
1.9673e-05
1.96765e-05
1.95637e-05
1.93106e-05
1.88963e-05
1.83052e-05
1.7529e-05
1.65689e-05
1.54375e-05
1.41599e-05
1.27734e-05
1.13251e-05
9.86933e-06
8.46369e-06
7.16653e-06
6.03775e-06
5.14623e-06
4.6072e-06
4.59995e-06
5.75621e-06
1.1652e-05
5.59213e-06
2.70468e-06
1.99449e-06
1.75851e-06
1.71334e-06
1.77033e-06
1.89087e-06
2.05386e-06
2.24599e-06
2.45811e-06
2.68363e-06
2.91784e-06
3.1575e-06
3.40061e-06
3.64625e-06
3.8944e-06
4.14581e-06
4.40178e-06
4.6641e-06
4.93484e-06
5.21622e-06
5.51055e-06
5.8201e-06
6.147e-06
6.49321e-06
6.86042e-06
7.24999e-06
7.66292e-06
8.09976e-06
8.56055e-06
9.0448e-06
9.55142e-06
1.00787e-05
1.06244e-05
1.11855e-05
1.17587e-05
1.23401e-05
1.29255e-05
1.35108e-05
1.40917e-05
1.46644e-05
1.52255e-05
1.57724e-05
1.63031e-05
1.68164e-05
1.73117e-05
1.77887e-05
1.8247e-05
1.86854e-05
1.91014e-05
1.94902e-05
1.98447e-05
2.0154e-05
2.0405e-05
2.05718e-05
2.06355e-05
2.05902e-05
2.03989e-05
2.00351e-05
1.94797e-05
1.87212e-05
1.77579e-05
1.66008e-05
1.52748e-05
1.38184e-05
1.22825e-05
1.07268e-05
9.21623e-06
7.81736e-06
6.59905e-06
5.63986e-06
5.07013e-06
5.08504e-06
6.3858e-06
1.29412e-05
6.25253e-06
3.01594e-06
2.20726e-06
1.92382e-06
1.85052e-06
1.88936e-06
1.9983e-06
2.15445e-06
2.34346e-06
2.55542e-06
2.7832e-06
3.02167e-06
3.26725e-06
3.51773e-06
3.77202e-06
4.03001e-06
4.29238e-06
4.56043e-06
4.83593e-06
5.12097e-06
5.41778e-06
5.72866e-06
6.05585e-06
6.40143e-06
6.76728e-06
7.15493e-06
7.56558e-06
8e-06
8.45843e-06
8.94059e-06
9.4456e-06
9.97194e-06
1.05175e-05
1.10795e-05
1.16547e-05
1.22394e-05
1.28295e-05
1.34209e-05
1.40096e-05
1.45919e-05
1.51648e-05
1.57258e-05
1.62735e-05
1.68074e-05
1.73278e-05
1.78355e-05
1.83316e-05
1.88165e-05
1.92899e-05
1.97495e-05
2.01903e-05
2.06041e-05
2.0979e-05
2.12993e-05
2.15442e-05
2.16722e-05
2.16892e-05
2.15607e-05
2.12484e-05
2.07301e-05
1.99912e-05
1.90274e-05
1.78474e-05
1.64749e-05
1.49494e-05
1.33242e-05
1.16643e-05
1.00413e-05
8.53069e-06
7.21102e-06
6.17155e-06
5.55904e-06
5.58561e-06
7.02348e-06
1.42379e-05
6.93866e-06
3.3397e-06
2.42959e-06
2.09814e-06
1.99719e-06
2.01885e-06
2.11743e-06
2.26815e-06
2.45552e-06
2.66882e-06
2.90033e-06
3.14447e-06
3.39731e-06
3.6564e-06
3.9205e-06
4.18938e-06
4.46368e-06
4.74469e-06
5.0342e-06
5.33427e-06
5.64716e-06
5.97516e-06
6.32045e-06
6.68505e-06
7.07071e-06
7.47882e-06
7.91036e-06
8.36583e-06
8.84516e-06
9.3477e-06
9.87217e-06
1.04166e-05
1.09786e-05
1.15548e-05
1.21419e-05
1.27357e-05
1.33324e-05
1.39279e-05
1.45186e-05
1.51015e-05
1.56745e-05
1.62364e-05
1.6787e-05
1.73271e-05
1.78585e-05
1.83832e-05
1.89034e-05
1.94202e-05
1.99335e-05
2.04407e-05
2.09365e-05
2.14116e-05
2.18527e-05
2.22421e-05
2.25588e-05
2.27594e-05
2.28295e-05
2.27628e-05
2.2502e-05
2.2022e-05
2.13055e-05
2.03453e-05
1.91475e-05
1.77339e-05
1.61435e-05
1.44315e-05
1.26667e-05
1.09276e-05
9.29832e-06
7.86787e-06
6.73726e-06
6.07135e-06
6.0998e-06
7.66776e-06
1.55397e-05
7.65053e-06
3.67585e-06
2.66116e-06
2.28094e-06
2.15257e-06
2.15783e-06
2.24711e-06
2.39363e-06
2.58064e-06
2.79659e-06
3.0331e-06
3.2841e-06
3.54532e-06
3.81403e-06
4.08883e-06
4.36941e-06
4.65636e-06
4.95097e-06
5.255e-06
5.57057e-06
5.8999e-06
6.24526e-06
6.60878e-06
6.99239e-06
7.3977e-06
7.8259e-06
8.27774e-06
8.75343e-06
9.25258e-06
9.77415e-06
1.03165e-05
1.08772e-05
1.14535e-05
1.20418e-05
1.26384e-05
1.32394e-05
1.38407e-05
1.44388e-05
1.50307e-05
1.56142e-05
1.61881e-05
1.67524e-05
1.73084e-05
1.78582e-05
1.84046e-05
1.89508e-05
1.94994e-05
2.00521e-05
2.06085e-05
2.11657e-05
2.17174e-05
2.22532e-05
2.27584e-05
2.32138e-05
2.35968e-05
2.38689e-05
2.3989e-05
2.39783e-05
2.37684e-05
2.33274e-05
2.26362e-05
2.16847e-05
2.04758e-05
1.90287e-05
1.73807e-05
1.55875e-05
1.37209e-05
1.18651e-05
1.01131e-05
8.56474e-06
7.3338e-06
6.60503e-06
6.62634e-06
8.31769e-06
1.68449e-05
8.38823e-06
4.02433e-06
2.90177e-06
2.47182e-06
2.31605e-06
2.30556e-06
2.38643e-06
2.52981e-06
2.71761e-06
2.93734e-06
3.17995e-06
3.43883e-06
3.70933e-06
3.98847e-06
4.27467e-06
4.56754e-06
4.86763e-06
5.17621e-06
5.49507e-06
5.82632e-06
6.17219e-06
6.53489e-06
6.91649e-06
7.31881e-06
7.74328e-06
8.19092e-06
8.66219e-06
9.15701e-06
9.67463e-06
1.02137e-05
1.0772e-05
1.13471e-05
1.19356e-05
1.2534e-05
1.31382e-05
1.37445e-05
1.43492e-05
1.49491e-05
1.5542e-05
1.61267e-05
1.6703e-05
1.72722e-05
1.78367e-05
1.83998e-05
1.89653e-05
1.95368e-05
2.01175e-05
2.07089e-05
2.13103e-05
2.19179e-05
2.25245e-05
2.31185e-05
2.36839e-05
2.42003e-05
2.46432e-05
2.49796e-05
2.51527e-05
2.51863e-05
2.50266e-05
2.46249e-05
2.39617e-05
2.3024e-05
2.18115e-05
2.03398e-05
1.86437e-05
1.67775e-05
1.48149e-05
1.28449e-05
1.09687e-05
9.2975e-06
7.95863e-06
7.15849e-06
7.16436e-06
8.97271e-06
1.8153e-05
9.15184e-06
4.38512e-06
3.15124e-06
2.67047e-06
2.48717e-06
2.46144e-06
2.53466e-06
2.67583e-06
2.86543e-06
3.08995e-06
3.3396e-06
3.6072e-06
3.88772e-06
4.1779e-06
4.47601e-06
4.78155e-06
5.09505e-06
5.41778e-06
5.75155e-06
6.09846e-06
6.46072e-06
6.84051e-06
7.23981e-06
7.6603e-06
8.10325e-06
8.56943e-06
9.05906e-06
9.57172e-06
1.01063e-05
1.06612e-05
1.12339e-05
1.18214e-05
1.24203e-05
1.30269e-05
1.36372e-05
1.42477e-05
1.4855e-05
1.54567e-05
1.60513e-05
1.66385e-05
1.72195e-05
1.77965e-05
1.83731e-05
1.89533e-05
1.95416e-05
2.01421e-05
2.07577e-05
2.13896e-05
2.20364e-05
2.26936e-05
2.33526e-05
2.40009e-05
2.46213e-05
2.51926e-05
2.56895e-05
2.60799e-05
2.63054e-05
2.63752e-05
2.62628e-05
2.58996e-05
2.52661e-05
2.4347e-05
2.31382e-05
2.16514e-05
1.99175e-05
1.79886e-05
1.59382e-05
1.3859e-05
1.18596e-05
1.00626e-05
8.60981e-06
7.73044e-06
7.71343e-06
9.63269e-06
1.94637e-05
9.9415e-06
4.75821e-06
3.40946e-06
2.87664e-06
2.66558e-06
2.62498e-06
2.69121e-06
2.831e-06
3.02328e-06
3.25347e-06
3.51095e-06
3.78797e-06
4.07908e-06
4.38075e-06
4.69107e-06
5.00948e-06
5.33648e-06
5.67336e-06
6.02192e-06
6.38427e-06
6.7626e-06
7.15904e-06
7.57547e-06
8.01342e-06
8.47397e-06
8.95767e-06
9.46446e-06
9.99363e-06
1.05438e-05
1.11128e-05
1.16982e-05
1.22965e-05
1.29043e-05
1.35178e-05
1.41332e-05
1.47473e-05
1.53573e-05
1.59614e-05
1.65592e-05
1.71513e-05
1.77398e-05
1.83281e-05
1.89204e-05
1.95216e-05
2.01363e-05
2.07687e-05
2.14214e-05
2.20948e-05
2.27867e-05
2.34914e-05
2.41995e-05
2.48973e-05
2.55668e-05
2.61865e-05
2.67303e-05
2.71665e-05
2.74391e-05
2.75394e-05
2.74698e-05
2.71431e-05
2.65399e-05
2.56427e-05
2.4444e-05
2.2951e-05
2.119e-05
1.92095e-05
1.70812e-05
1.48999e-05
1.27806e-05
1.08567e-05
9.28565e-06
8.32008e-06
8.27336e-06
1.02978e-05
2.07777e-05
1.07573e-05
5.1436e-06
3.67632e-06
3.09012e-06
2.85098e-06
2.79579e-06
2.85559e-06
2.99473e-06
3.19048e-06
3.42708e-06
3.69306e-06
3.98005e-06
4.28217e-06
4.5956e-06
4.91828e-06
5.24959e-06
5.59001e-06
5.94084e-06
6.30391e-06
6.68132e-06
7.07525e-06
7.48775e-06
7.9206e-06
8.37518e-06
8.85238e-06
9.35252e-06
9.87526e-06
1.04196e-05
1.09839e-05
1.15657e-05
1.21623e-05
1.27702e-05
1.33857e-05
1.40053e-05
1.46256e-05
1.52434e-05
1.5857e-05
1.64651e-05
1.70682e-05
1.7668e-05
1.82675e-05
1.88708e-05
1.94828e-05
2.01087e-05
2.07532e-05
2.14201e-05
2.21114e-05
2.28266e-05
2.35626e-05
2.43125e-05
2.50658e-05
2.58082e-05
2.65209e-05
2.71822e-05
2.77657e-05
2.82401e-05
2.85532e-05
2.86794e-05
2.86465e-05
2.83529e-05
2.77789e-05
2.69054e-05
2.57213e-05
2.42297e-05
2.24517e-05
2.04308e-05
1.82356e-05
1.5961e-05
1.37269e-05
1.16772e-05
9.98466e-06
8.92695e-06
8.8442e-06
1.09683e-05
2.20959e-05
1.15994e-05
5.54131e-06
3.95177e-06
3.31076e-06
3.04314e-06
2.97355e-06
3.0274e-06
3.16652e-06
3.36641e-06
3.61006e-06
3.88508e-06
4.18245e-06
4.49584e-06
4.82116e-06
5.1562e-06
5.50029e-06
5.85389e-06
6.21835e-06
6.59551e-06
6.98747e-06
7.3964e-06
7.82427e-06
8.27275e-06
8.74307e-06
9.23594e-06
9.75143e-06
1.0289e-05
1.08473e-05
1.14245e-05
1.20179e-05
1.26247e-05
1.32412e-05
1.3864e-05
1.44896e-05
1.5115e-05
1.57376e-05
1.63563e-05
1.69707e-05
1.75821e-05
1.8193e-05
1.88073e-05
1.94297e-05
2.00654e-05
2.07197e-05
2.13971e-05
2.21006e-05
2.28317e-05
2.35887e-05
2.43674e-05
2.51599e-05
2.59548e-05
2.6737e-05
2.74875e-05
2.81842e-05
2.88007e-05
2.93064e-05
2.96532e-05
2.98016e-05
2.97975e-05
2.95327e-05
2.89851e-05
2.81344e-05
2.69673e-05
2.54824e-05
2.36957e-05
2.1645e-05
1.93941e-05
1.70362e-05
1.46941e-05
1.25211e-05
1.07056e-05
9.55074e-06
9.4262e-06
1.1645e-05
2.34196e-05
1.24677e-05
5.95133e-06
4.23571e-06
3.53843e-06
3.24185e-06
3.15798e-06
3.20627e-06
3.34593e-06
3.55055e-06
3.80177e-06
4.08625e-06
4.39428e-06
4.71907e-06
5.05625e-06
5.4035e-06
5.7601e-06
6.12653e-06
6.50416e-06
6.89487e-06
7.3008e-06
7.72404e-06
8.16653e-06
8.62983e-06
9.11501e-06
9.62259e-06
1.01524e-05
1.07037e-05
1.1275e-05
1.18642e-05
1.24685e-05
1.30848e-05
1.37097e-05
1.43398e-05
1.49719e-05
1.56034e-05
1.62325e-05
1.68585e-05
1.74822e-05
1.81053e-05
1.87313e-05
1.93646e-05
2.00103e-05
2.06737e-05
2.13599e-05
2.2073e-05
2.28153e-05
2.3587e-05
2.43857e-05
2.52059e-05
2.60387e-05
2.68721e-05
2.76901e-05
2.84736e-05
2.92005e-05
2.98443e-05
3.03748e-05
3.07484e-05
3.09174e-05
3.09324e-05
3.0691e-05
3.01649e-05
2.93341e-05
2.81831e-05
2.67074e-05
2.49179e-05
2.28463e-05
2.05505e-05
1.81197e-05
1.56779e-05
1.33858e-05
1.14471e-05
1.01912e-05
1.00197e-05
1.23284e-05
2.47503e-05
1.33625e-05
6.37365e-06
4.5281e-06
3.77299e-06
3.44694e-06
3.34884e-06
3.3919e-06
3.53258e-06
3.74242e-06
4.00164e-06
4.29587e-06
4.6147e-06
4.95087e-06
5.29977e-06
5.65895e-06
6.02766e-06
6.40645e-06
6.79671e-06
7.20038e-06
7.61959e-06
8.05645e-06
8.51281e-06
8.99012e-06
9.48933e-06
1.00108e-05
1.05541e-05
1.11184e-05
1.17019e-05
1.23024e-05
1.29171e-05
1.35429e-05
1.41764e-05
1.48144e-05
1.54543e-05
1.60937e-05
1.67316e-05
1.73681e-05
1.80044e-05
1.86433e-05
1.92886e-05
1.99453e-05
2.06185e-05
2.13137e-05
2.20353e-05
2.27867e-05
2.35696e-05
2.43829e-05
2.52232e-05
2.6084e-05
2.69555e-05
2.78249e-05
2.86758e-05
2.94888e-05
3.0242e-05
3.09087e-05
3.1459e-05
3.18533e-05
3.20385e-05
3.20658e-05
3.18408e-05
3.13298e-05
3.0513e-05
2.93744e-05
2.79069e-05
2.61172e-05
2.40311e-05
2.16997e-05
1.92066e-05
1.66742e-05
1.42687e-05
1.2208e-05
1.0848e-05
1.0625e-05
1.30193e-05
2.60896e-05
1.42836e-05
6.80825e-06
4.82887e-06
4.01435e-06
3.65825e-06
3.54592e-06
3.58403e-06
3.72612e-06
3.94158e-06
4.20911e-06
4.51327e-06
4.84292e-06
5.19034e-06
5.55068e-06
5.92139e-06
6.30174e-06
6.69232e-06
7.0946e-06
7.51058e-06
7.94241e-06
8.39218e-06
8.86169e-06
9.35229e-06
9.86481e-06
1.03994e-05
1.09557e-05
1.15324e-05
1.21278e-05
1.27394e-05
1.33646e-05
1.40002e-05
1.46431e-05
1.52905e-05
1.59398e-05
1.65896e-05
1.72394e-05
1.78898e-05
1.85428e-05
1.92017e-05
1.98709e-05
2.05555e-05
2.12606e-05
2.19914e-05
2.27517e-05
2.35442e-05
2.43695e-05
2.52255e-05
2.61078e-05
2.70088e-05
2.7918e-05
2.88219e-05
2.97038e-05
3.05442e-05
3.13212e-05
3.20079e-05
3.25748e-05
3.29845e-05
3.31806e-05
3.32149e-05
3.29987e-05
3.24945e-05
3.16838e-05
3.05505e-05
2.90864e-05
2.72954e-05
2.51979e-05
2.2838e-05
2.02921e-05
1.76788e-05
1.51669e-05
1.29869e-05
1.15209e-05
1.12425e-05
1.37184e-05
2.74389e-05
1.52311e-05
7.25508e-06
5.13795e-06
4.26239e-06
3.87563e-06
3.74903e-06
3.7824e-06
3.92623e-06
4.14761e-06
4.42366e-06
4.73782e-06
5.07819e-06
5.43661e-06
5.808e-06
6.18976e-06
6.58117e-06
6.98293e-06
7.39659e-06
7.82422e-06
8.26802e-06
8.73005e-06
9.21208e-06
9.71539e-06
1.02407e-05
1.0788e-05
1.13568e-05
1.19457e-05
1.25529e-05
1.3176e-05
1.38123e-05
1.44587e-05
1.51125e-05
1.5771e-05
1.64324e-05
1.70956e-05
1.77607e-05
1.8429e-05
1.91031e-05
1.97867e-05
2.04845e-05
2.12015e-05
2.19428e-05
2.2713e-05
2.35154e-05
2.43516e-05
2.52212e-05
2.61213e-05
2.70462e-05
2.79877e-05
2.89345e-05
2.98725e-05
3.07849e-05
3.16519e-05
3.24516e-05
3.3157e-05
3.37386e-05
3.41596e-05
3.4362e-05
3.43991e-05
3.41835e-05
3.3677e-05
3.28622e-05
3.17241e-05
3.02549e-05
2.84571e-05
2.63475e-05
2.39633e-05
2.13727e-05
1.86878e-05
1.60774e-05
1.37821e-05
1.22094e-05
1.18724e-05
1.44263e-05
2.87996e-05
1.62049e-05
7.71408e-06
5.45526e-06
4.51702e-06
4.09896e-06
3.958e-06
3.98678e-06
4.13259e-06
4.36012e-06
4.6448e-06
4.96891e-06
5.31979e-06
5.68885e-06
6.07081e-06
6.46305e-06
6.86492e-06
7.27722e-06
7.70162e-06
8.14028e-06
8.59545e-06
9.0692e-06
9.56327e-06
1.00789e-05
1.06166e-05
1.11765e-05
1.17577e-05
1.23591e-05
1.29785e-05
1.36138e-05
1.42622e-05
1.4921e-05
1.55876e-05
1.62599e-05
1.69363e-05
1.76164e-05
1.83009e-05
1.89915e-05
1.96913e-05
2.04044e-05
2.11355e-05
2.18895e-05
2.26713e-05
2.34847e-05
2.43323e-05
2.52149e-05
2.6131e-05
2.70767e-05
2.80455e-05
2.90283e-05
3.00134e-05
3.09862e-05
3.19297e-05
3.28239e-05
3.36469e-05
3.43711e-05
3.49671e-05
3.53966e-05
3.56019e-05
3.5638e-05
3.54155e-05
3.48971e-05
3.40666e-05
3.2911e-05
3.14245e-05
2.96104e-05
2.74833e-05
2.50751e-05
2.24454e-05
1.96976e-05
1.69972e-05
1.45918e-05
1.29128e-05
1.25148e-05
1.51435e-05
3.01726e-05
1.72047e-05
8.18518e-06
5.78071e-06
4.77812e-06
4.32809e-06
4.17265e-06
4.19694e-06
4.34491e-06
4.57872e-06
4.87204e-06
5.20595e-06
5.56702e-06
5.94627e-06
6.33825e-06
6.74035e-06
7.15205e-06
7.57425e-06
8.0088e-06
8.45795e-06
8.924e-06
9.40907e-06
9.91487e-06
1.04426e-05
1.09927e-05
1.15652e-05
1.21593e-05
1.27736e-05
1.34063e-05
1.40549e-05
1.47172e-05
1.53904e-05
1.60724e-05
1.67614e-05
1.74564e-05
1.81575e-05
1.88657e-05
1.95833e-05
2.03137e-05
2.10611e-05
2.18302e-05
2.26258e-05
2.34522e-05
2.43125e-05
2.52085e-05
2.61401e-05
2.71049e-05
2.80981e-05
2.91125e-05
3.01382e-05
3.1163e-05
3.21722e-05
3.31484e-05
3.40716e-05
3.49195e-05
3.56642e-05
3.62757e-05
3.67129e-05
3.69189e-05
3.69516e-05
3.67155e-05
3.61757e-05
3.53172e-05
3.41296e-05
3.26103e-05
3.07657e-05
2.86111e-05
2.61748e-05
2.35084e-05
2.07049e-05
1.79229e-05
1.54139e-05
1.36301e-05
1.31694e-05
1.58703e-05
3.15587e-05
1.82305e-05
8.66826e-06
6.11421e-06
5.0456e-06
4.5629e-06
4.39282e-06
4.41266e-06
4.56291e-06
4.80304e-06
5.10491e-06
5.44836e-06
5.81923e-06
6.20813e-06
6.60954e-06
7.02087e-06
7.44175e-06
7.87328e-06
8.31745e-06
8.77665e-06
9.25326e-06
9.74944e-06
1.02669e-05
1.08068e-05
1.13696e-05
1.19552e-05
1.25629e-05
1.31912e-05
1.38383e-05
1.45022e-05
1.51804e-05
1.58707e-05
1.65711e-05
1.72804e-05
1.7998e-05
1.87243e-05
1.94609e-05
2.02104e-05
2.09763e-05
2.1763e-05
2.25749e-05
2.34164e-05
2.42913e-05
2.52021e-05
2.61497e-05
2.71331e-05
2.81489e-05
2.91917e-05
3.02536e-05
3.13241e-05
3.23909e-05
3.34388e-05
3.44502e-05
3.5405e-05
3.62807e-05
3.70488e-05
3.76782e-05
3.81243e-05
3.83307e-05
3.83581e-05
3.81033e-05
3.75337e-05
3.6635e-05
3.53996e-05
3.38296e-05
3.19366e-05
2.97395e-05
2.72661e-05
2.45611e-05
2.17068e-05
1.88514e-05
1.62458e-05
1.436e-05
1.3836e-05
1.66065e-05
3.29579e-05
1.92821e-05
9.1632e-06
6.45564e-06
5.31933e-06
4.80325e-06
4.61835e-06
4.63373e-06
4.78629e-06
5.03271e-06
5.34295e-06
5.6956e-06
6.07577e-06
6.47376e-06
6.88395e-06
7.30387e-06
7.73336e-06
8.17371e-06
8.62711e-06
9.09608e-06
9.58312e-06
1.00904e-05
1.06198e-05
1.11722e-05
1.17483e-05
1.2348e-05
1.29703e-05
1.36141e-05
1.42776e-05
1.49589e-05
1.56557e-05
1.63661e-05
1.70886e-05
1.78222e-05
1.85667e-05
1.93229e-05
2.00927e-05
2.08791e-05
2.16855e-05
2.25162e-05
2.33755e-05
2.42673e-05
2.51946e-05
2.61593e-05
2.71614e-05
2.81992e-05
2.92685e-05
3.03631e-05
3.14746e-05
3.25924e-05
3.37035e-05
3.47928e-05
3.58426e-05
3.68325e-05
3.77397e-05
3.85348e-05
3.91859e-05
3.96442e-05
3.98523e-05
3.98743e-05
3.95977e-05
3.89914e-05
3.80411e-05
3.67419e-05
3.51014e-05
3.31387e-05
3.08796e-05
2.83547e-05
2.56048e-05
2.27012e-05
1.97794e-05
1.70848e-05
1.51008e-05
1.45138e-05
1.73519e-05
3.43698e-05
2.0359e-05
9.66984e-06
6.80487e-06
5.59919e-06
5.049e-06
4.84905e-06
4.85993e-06
5.01476e-06
5.26736e-06
5.58569e-06
5.94712e-06
6.33606e-06
6.74251e-06
7.16085e-06
7.58879e-06
8.02637e-06
8.47516e-06
8.93754e-06
9.41622e-06
9.9138e-06
1.04326e-05
1.09743e-05
1.15401e-05
1.21305e-05
1.27454e-05
1.33841e-05
1.40453e-05
1.47275e-05
1.54288e-05
1.61474e-05
1.68816e-05
1.763e-05
1.83922e-05
1.91682e-05
1.99592e-05
2.07674e-05
2.15956e-05
2.24474e-05
2.33269e-05
2.4238e-05
2.5184e-05
2.61674e-05
2.71892e-05
2.82488e-05
2.93435e-05
3.04686e-05
3.16173e-05
3.27807e-05
3.39481e-05
3.51062e-05
3.624e-05
3.73315e-05
3.83604e-05
3.93032e-05
4.013e-05
4.08075e-05
4.1283e-05
4.14961e-05
4.15138e-05
4.12147e-05
4.05671e-05
3.95556e-05
3.81773e-05
3.64461e-05
3.43899e-05
3.20448e-05
2.94487e-05
2.66422e-05
2.36869e-05
2.07037e-05
1.79278e-05
1.58507e-05
1.52018e-05
1.81059e-05
3.57934e-05
2.1461e-05
1.0188e-05
7.16177e-06
5.88504e-06
5.30001e-06
5.08476e-06
5.09103e-06
5.24805e-06
5.50661e-06
5.8327e-06
6.20243e-06
6.59955e-06
7.01383e-06
7.43973e-06
7.87516e-06
8.32045e-06
8.77746e-06
9.2488e-06
9.73736e-06
1.02459e-05
1.07767e-05
1.13317e-05
1.1912e-05
1.25181e-05
1.315e-05
1.38071e-05
1.44882e-05
1.51919e-05
1.59165e-05
1.66605e-05
1.74223e-05
1.8201e-05
1.89964e-05
1.98088e-05
2.06396e-05
2.14911e-05
2.23662e-05
2.32683e-05
2.42011e-05
2.51682e-05
2.61722e-05
2.72151e-05
2.8297e-05
2.94166e-05
3.05706e-05
3.17536e-05
3.29585e-05
3.41761e-05
3.53954e-05
3.66032e-05
3.77844e-05
3.89212e-05
3.99928e-05
4.09757e-05
4.18392e-05
4.25483e-05
4.30479e-05
4.32712e-05
4.32871e-05
4.29674e-05
4.22766e-05
4.11968e-05
3.97261e-05
3.78841e-05
3.57091e-05
3.32508e-05
3.05586e-05
2.7678e-05
2.46641e-05
2.16218e-05
1.87718e-05
1.66073e-05
1.58985e-05
1.88676e-05
3.7227e-05
2.25876e-05
1.07175e-05
7.52618e-06
6.17675e-06
5.55614e-06
5.32527e-06
5.32681e-06
5.48585e-06
5.75011e-06
6.08354e-06
6.46103e-06
6.86572e-06
7.28724e-06
7.72016e-06
8.16268e-06
8.61547e-06
9.08068e-06
9.56121e-06
1.00601e-05
1.05803e-05
1.11242e-05
1.16937e-05
1.229e-05
1.29137e-05
1.35649e-05
1.42429e-05
1.49468e-05
1.56752e-05
1.64268e-05
1.72001e-05
1.7994e-05
1.88076e-05
1.96411e-05
2.04949e-05
2.13706e-05
2.22704e-05
2.31973e-05
2.41543e-05
2.51448e-05
2.61718e-05
2.72374e-05
2.83428e-05
2.94875e-05
3.06695e-05
3.18848e-05
3.31277e-05
3.43906e-05
3.56642e-05
3.69374e-05
3.81972e-05
3.94285e-05
4.06137e-05
4.17319e-05
4.27593e-05
4.36643e-05
4.44108e-05
4.49424e-05
4.51828e-05
4.5201e-05
4.48653e-05
4.41326e-05
4.29805e-05
4.14068e-05
3.94356e-05
3.71164e-05
3.45147e-05
3.1697e-05
2.87191e-05
2.56339e-05
2.25314e-05
1.96132e-05
1.73679e-05
1.66022e-05
1.96354e-05
3.86684e-05
2.37384e-05
1.12581e-05
7.89791e-06
6.47416e-06
5.81724e-06
5.57037e-06
5.56706e-06
5.72788e-06
5.9975e-06
6.3378e-06
6.72248e-06
7.13416e-06
7.56236e-06
8.00187e-06
8.45124e-06
8.91151e-06
9.38517e-06
9.8754e-06
1.03855e-05
1.09184e-05
1.14768e-05
1.20625e-05
1.26769e-05
1.33205e-05
1.39936e-05
1.46955e-05
1.54256e-05
1.61825e-05
1.69651e-05
1.77722e-05
1.86027e-05
1.94562e-05
2.03328e-05
2.12332e-05
2.21589e-05
2.31121e-05
2.40955e-05
2.51119e-05
2.61642e-05
2.72547e-05
2.8385e-05
2.95556e-05
3.07654e-05
3.20116e-05
3.32899e-05
3.45942e-05
3.59165e-05
3.72476e-05
3.85763e-05
3.98899e-05
4.11735e-05
4.24097e-05
4.35778e-05
4.46536e-05
4.56051e-05
4.63945e-05
4.69666e-05
4.72325e-05
4.72586e-05
4.69141e-05
4.61438e-05
4.49193e-05
4.32356e-05
4.11196e-05
3.86315e-05
3.58551e-05