/*--------------------------------*- C++ -*----------------------------------*\
  =========                 |
  \\      /  F ield         | OpenFOAM: The Open Source CFD Toolbox
   \\    /   O peration     | Website:  https://openfoam.org
    \\  /    A nd           | Version:  12
     \\/     M anipulation  |
\*---------------------------------------------------------------------------*/
FoamFile
{
    format      ascii;
    class       volScalarField;
    location    "10";
    object      epsilon;
}
// * * * * * * * * * * * * * * * * * * * * * * * * * * * * * * * * * * * * * //

dimensions      [0 2 -3 0 0 0 0];

internalField   nonuniform List<scalar> 
18225
(
6.73197e-10
1.27168e-09
2.69872e-09
4.40782e-09
6.34192e-09
8.4594e-09
1.07315e-08
1.31376e-08
1.5662e-08
1.8292e-08
2.10174e-08
2.3829e-08
2.6719e-08
2.96803e-08
3.27064e-08
3.57914e-08
3.89297e-08
4.21161e-08
4.53456e-08
4.86134e-08
5.19148e-08
5.52455e-08
5.86011e-08
6.19774e-08
6.53701e-08
6.87753e-08
7.21889e-08
7.5607e-08
7.90257e-08
8.2441e-08
8.58492e-08
8.92465e-08
9.26291e-08
9.59933e-08
9.93354e-08
1.02652e-07
1.05939e-07
1.09193e-07
1.1241e-07
1.15588e-07
1.18722e-07
1.21808e-07
1.24845e-07
1.27827e-07
1.30752e-07
1.33617e-07
1.36418e-07
1.39151e-07
1.41815e-07
1.44405e-07
1.46918e-07
1.49351e-07
1.51702e-07
1.53968e-07
1.56144e-07
1.58229e-07
1.6022e-07
1.62114e-07
1.63908e-07
1.656e-07
1.67186e-07
1.68665e-07
1.70034e-07
1.71291e-07
1.72433e-07
1.73458e-07
1.74364e-07
1.75149e-07
1.75811e-07
1.76348e-07
1.76758e-07
1.77039e-07
1.77191e-07
1.77211e-07
1.77098e-07
1.76852e-07
1.7647e-07
1.75953e-07
1.75299e-07
1.74507e-07
1.73578e-07
1.72511e-07
1.71306e-07
1.69963e-07
1.68482e-07
1.66865e-07
1.65111e-07
1.63222e-07
1.61199e-07
1.59042e-07
1.56755e-07
1.54339e-07
1.51795e-07
1.49126e-07
1.46336e-07
1.43426e-07
1.404e-07
1.37261e-07
1.34013e-07
1.3066e-07
1.27206e-07
1.23656e-07
1.20014e-07
1.16285e-07
1.12475e-07
1.08588e-07
1.04631e-07
1.00611e-07
9.6532e-08
9.24021e-08
8.82277e-08
8.40161e-08
7.97745e-08
7.55106e-08
7.12324e-08
6.69482e-08
6.26665e-08
5.83961e-08
5.41465e-08
4.99273e-08
4.57485e-08
4.1621e-08
3.75559e-08
3.35654e-08
2.96622e-08
2.58606e-08
2.21762e-08
1.86266e-08
1.52324e-08
1.20186e-08
9.01685e-09
6.27045e-09
3.84058e-09
1.81013e-09
9.58262e-10
4.555e-09
2.47764e-09
2.40954e-09
2.87885e-09
3.60506e-09
4.48926e-09
5.48521e-09
6.56742e-09
7.72006e-09
8.93237e-09
1.01965e-08
1.15062e-08
1.28567e-08
1.42437e-08
1.56634e-08
1.71127e-08
1.85886e-08
2.00883e-08
2.16094e-08
2.31492e-08
2.47057e-08
2.62765e-08
2.78595e-08
2.94527e-08
3.1054e-08
3.26615e-08
3.42732e-08
3.58873e-08
3.75018e-08
3.91149e-08
4.07248e-08
4.23297e-08
4.39277e-08
4.55172e-08
4.70964e-08
4.86634e-08
5.02167e-08
5.17545e-08
5.3275e-08
5.47767e-08
5.62579e-08
5.77169e-08
5.91521e-08
6.05618e-08
6.19446e-08
6.32987e-08
6.46228e-08
6.59151e-08
6.71742e-08
6.83987e-08
6.9587e-08
7.07376e-08
7.18492e-08
7.29203e-08
7.39495e-08
7.49355e-08
7.58769e-08
7.67725e-08
7.76209e-08
7.84208e-08
7.91711e-08
7.98706e-08
8.05181e-08
8.11124e-08
8.16524e-08
8.21372e-08
8.25657e-08
8.29368e-08
8.32498e-08
8.35037e-08
8.36976e-08
8.38308e-08
8.39025e-08
8.3912e-08
8.38588e-08
8.37421e-08
8.35616e-08
8.33168e-08
8.30074e-08
8.26331e-08
8.21936e-08
8.1689e-08
8.11191e-08
8.0484e-08
7.97839e-08
7.9019e-08
7.81898e-08
7.72965e-08
7.63398e-08
7.53205e-08
7.42391e-08
7.30968e-08
7.18944e-08
7.0633e-08
6.93141e-08
6.79388e-08
6.65088e-08
6.50256e-08
6.3491e-08
6.19069e-08
6.02752e-08
5.85982e-08
5.68779e-08
5.51169e-08
5.33177e-08
5.14828e-08
4.9615e-08
4.77173e-08
4.57927e-08
4.38443e-08
4.18753e-08
3.98893e-08
3.78898e-08
3.58804e-08
3.38651e-08
3.18478e-08
2.98327e-08
2.78243e-08
2.58271e-08
2.3846e-08
2.18861e-08
1.99529e-08
1.80524e-08
1.61912e-08
1.43764e-08
1.26166e-08
1.09218e-08
9.30435e-09
7.78092e-09
6.37514e-09
5.12438e-09
4.09545e-09
3.42996e-09
3.52798e-09
6.48555e-09
1.01453e-08
4.96993e-09
3.8231e-09
3.60014e-09
3.76888e-09
4.15658e-09
4.6864e-09
5.31742e-09
6.02523e-09
6.79403e-09
7.61293e-09
8.47405e-09
9.37138e-09
1.03002e-08
1.12566e-08
1.22375e-08
1.32399e-08
1.42614e-08
1.52998e-08
1.6353e-08
1.74192e-08
1.84967e-08
1.95837e-08
2.06786e-08
2.178e-08
2.28864e-08
2.39963e-08
2.51084e-08
2.62213e-08
2.73337e-08
2.84442e-08
2.95516e-08
3.06545e-08
3.17519e-08
3.28423e-08
3.39246e-08
3.49977e-08
3.60602e-08
3.71109e-08
3.81489e-08
3.91728e-08
4.01815e-08
4.11739e-08
4.21489e-08
4.31053e-08
4.40421e-08
4.49581e-08
4.58524e-08
4.67238e-08
4.75713e-08
4.83939e-08
4.91905e-08
4.99602e-08
5.0702e-08
5.14149e-08
5.20979e-08
5.27502e-08
5.33708e-08
5.39588e-08
5.45133e-08
5.50335e-08
5.55186e-08
5.59677e-08
5.638e-08
5.67548e-08
5.70913e-08
5.73889e-08
5.76468e-08
5.78645e-08
5.80412e-08
5.81764e-08
5.82695e-08
5.832e-08
5.83275e-08
5.82916e-08
5.82117e-08
5.80876e-08
5.7919e-08
5.77056e-08
5.74473e-08
5.7144e-08
5.67954e-08
5.64018e-08
5.5963e-08
5.54792e-08
5.49506e-08
5.43775e-08
5.37601e-08
5.3099e-08
5.23945e-08
5.16472e-08
5.08577e-08
5.00269e-08
4.91554e-08
4.82442e-08
4.72943e-08
4.63067e-08
4.52825e-08
4.42231e-08
4.31296e-08
4.20037e-08
4.08467e-08
3.96604e-08
3.84463e-08
3.72063e-08
3.59422e-08
3.46562e-08
3.33501e-08
3.20263e-08
3.0687e-08
2.93345e-08
2.79715e-08
2.66005e-08
2.52242e-08
2.38456e-08
2.24677e-08
2.10937e-08
1.97271e-08
1.83715e-08
1.70309e-08
1.57097e-08
1.44127e-08
1.31454e-08
1.19142e-08
1.07266e-08
9.59207e-09
8.52266e-09
7.53464e-09
6.65128e-09
5.90807e-09
5.36391e-09
5.12886e-09
5.4495e-09
7.08468e-09
1.44597e-08
1.68154e-08
8.06061e-09
5.82521e-09
4.99937e-09
4.73446e-09
4.76756e-09
4.98663e-09
5.33377e-09
5.77509e-09
6.28897e-09
6.86069e-09
7.47976e-09
8.13837e-09
8.83055e-09
9.55154e-09
1.02975e-08
1.10651e-08
1.18518e-08
1.2655e-08
1.34728e-08
1.43031e-08
1.51442e-08
1.59947e-08
1.68529e-08
1.77174e-08
1.85871e-08
1.94605e-08
2.03365e-08
2.12139e-08
2.20915e-08
2.29683e-08
2.38431e-08
2.47149e-08
2.55827e-08
2.64455e-08
2.73021e-08
2.81518e-08
2.89934e-08
2.9826e-08
3.06487e-08
3.14605e-08
3.22605e-08
3.30478e-08
3.38215e-08
3.45807e-08
3.53245e-08
3.6052e-08
3.67624e-08
3.74548e-08
3.81284e-08
3.87823e-08
3.94158e-08
4.00281e-08
4.06183e-08
4.11857e-08
4.17295e-08
4.22489e-08
4.27433e-08
4.32119e-08
4.3654e-08
4.40688e-08
4.44559e-08
4.48144e-08
4.51437e-08
4.54433e-08
4.57125e-08
4.59507e-08
4.61575e-08
4.63323e-08
4.64745e-08
4.65838e-08
4.66596e-08
4.67016e-08
4.67094e-08
4.66826e-08
4.66209e-08
4.65241e-08
4.63919e-08
4.62241e-08
4.60205e-08
4.57812e-08
4.5506e-08
4.51949e-08
4.48479e-08
4.44653e-08
4.40471e-08
4.35935e-08
4.31049e-08
4.25816e-08
4.20239e-08
4.14323e-08
4.08074e-08
4.01498e-08
3.94601e-08
3.87391e-08
3.79876e-08
3.72065e-08
3.63967e-08
3.55593e-08
3.46953e-08
3.38061e-08
3.28927e-08
3.19567e-08
3.09993e-08
3.00222e-08
2.90269e-08
2.8015e-08
2.69885e-08
2.59491e-08
2.48987e-08
2.38396e-08
2.27738e-08
2.17037e-08
2.06318e-08
1.95606e-08
1.8493e-08
1.74319e-08
1.63808e-08
1.53431e-08
1.43229e-08
1.33248e-08
1.2354e-08
1.14166e-08
1.05201e-08
9.67347e-09
8.88856e-09
8.18084e-09
7.57181e-09
7.09282e-09
6.79267e-09
6.75438e-09
7.13821e-09
8.31978e-09
1.1511e-08
2.40077e-08
2.42767e-08
1.15519e-08
8.1632e-09
6.74424e-09
6.08296e-09
5.81103e-09
5.77543e-09
5.89907e-09
6.13777e-09
6.46376e-09
6.85836e-09
7.30836e-09
7.80401e-09
8.33791e-09
8.90422e-09
9.49829e-09
1.01163e-08
1.0755e-08
1.14117e-08
1.20841e-08
1.277e-08
1.34675e-08
1.41751e-08
1.48912e-08
1.56142e-08
1.6343e-08
1.70763e-08
1.78128e-08
1.85515e-08
1.92913e-08
2.00312e-08
2.07702e-08
2.15072e-08
2.22414e-08
2.29718e-08
2.36975e-08
2.44177e-08
2.51315e-08
2.58381e-08
2.65365e-08
2.7226e-08
2.79058e-08
2.85751e-08
2.92331e-08
2.9879e-08
3.0512e-08
3.11314e-08
3.17365e-08
3.23265e-08
3.29006e-08
3.34583e-08
3.39987e-08
3.45211e-08
3.5025e-08
3.55096e-08
3.59742e-08
3.64183e-08
3.68411e-08
3.7242e-08
3.76205e-08
3.79759e-08
3.83077e-08
3.86153e-08
3.88981e-08
3.91556e-08
3.93873e-08
3.95926e-08
3.97712e-08
3.99225e-08
4.00462e-08
4.01417e-08
4.02088e-08
4.02471e-08
4.02562e-08
4.02359e-08
4.01859e-08
4.01059e-08
3.99957e-08
3.98552e-08
3.96843e-08
3.94829e-08
3.92509e-08
3.89884e-08
3.86954e-08
3.8372e-08
3.80184e-08
3.76347e-08
3.72213e-08
3.67783e-08
3.63063e-08
3.58056e-08
3.52767e-08
3.47201e-08
3.41365e-08
3.35265e-08
3.28909e-08
3.22305e-08
3.15461e-08
3.08386e-08
3.01092e-08
2.93588e-08
2.85887e-08
2.78001e-08
2.69942e-08
2.61725e-08
2.53364e-08
2.44875e-08
2.36276e-08
2.27582e-08
2.18814e-08
2.0999e-08
2.01132e-08
1.92262e-08
1.83405e-08
1.74587e-08
1.65836e-08
1.57184e-08
1.48664e-08
1.40317e-08
1.32185e-08
1.24319e-08
1.16779e-08
1.09637e-08
1.02979e-08
9.6917e-09
9.15926e-09
8.7199e-09
8.40066e-09
8.24157e-09
8.30611e-09
8.70478e-09
9.65681e-09
1.16895e-08
1.6538e-08
3.47461e-08
3.23495e-08
1.53431e-08
1.07338e-08
8.71002e-09
7.6625e-09
7.10614e-09
6.84196e-09
6.77134e-09
6.83865e-09
7.00946e-09
7.2609e-09
7.57693e-09
7.94584e-09
8.35876e-09
8.80878e-09
9.29038e-09
9.79907e-09
1.03311e-08
1.08834e-08
1.14531e-08
1.20381e-08
1.26361e-08
1.32454e-08
1.38644e-08
1.44914e-08
1.51252e-08
1.57644e-08
1.64078e-08
1.70543e-08
1.77028e-08
1.83523e-08
1.90018e-08
1.96504e-08
2.02971e-08
2.09411e-08
2.15816e-08
2.22176e-08
2.28485e-08
2.34733e-08
2.40914e-08
2.4702e-08
2.53043e-08
2.58976e-08
2.64812e-08
2.70543e-08
2.76163e-08
2.81665e-08
2.87042e-08
2.92287e-08
2.97394e-08
3.02356e-08
3.07168e-08
3.11822e-08
3.16312e-08
3.20633e-08
3.24778e-08
3.28742e-08
3.32519e-08
3.36102e-08
3.39487e-08
3.42669e-08
3.45641e-08
3.48399e-08
3.50938e-08
3.53253e-08
3.55338e-08
3.57191e-08
3.58806e-08
3.60179e-08
3.61307e-08
3.62186e-08
3.62811e-08
3.63181e-08
3.63291e-08
3.63141e-08
3.62726e-08
3.62045e-08
3.61096e-08
3.59878e-08
3.58389e-08
3.5663e-08
3.54599e-08
3.52298e-08
3.49726e-08
3.46884e-08
3.43775e-08
3.404e-08
3.36761e-08
3.32862e-08
3.28705e-08
3.24296e-08
3.19639e-08
3.14739e-08
3.09602e-08
3.04234e-08
2.98643e-08
2.92835e-08
2.8682e-08
2.80607e-08
2.74205e-08
2.67625e-08
2.60877e-08
2.53975e-08
2.4693e-08
2.39756e-08
2.32468e-08
2.25081e-08
2.17611e-08
2.10077e-08
2.02496e-08
1.94888e-08
1.87276e-08
1.79682e-08
1.72132e-08
1.64652e-08
1.57273e-08
1.50029e-08
1.42957e-08
1.36099e-08
1.29504e-08
1.23231e-08
1.17345e-08
1.11931e-08
1.07089e-08
1.02952e-08
9.9688e-09
9.75301e-09
9.68079e-09
9.80173e-09
1.01958e-08
1.10048e-08
1.25144e-08
1.54214e-08
2.20369e-08
4.64498e-08
4.09025e-08
1.93668e-08
1.3478e-08
1.08327e-08
9.39909e-09
8.56704e-09
8.08777e-09
7.83916e-09
7.75307e-09
7.78779e-09
7.91594e-09
8.11852e-09
8.38173e-09
8.69521e-09
9.05092e-09
9.44251e-09
9.8648e-09
1.03135e-08
1.07852e-08
1.12766e-08
1.17852e-08
1.23087e-08
1.2845e-08
1.33924e-08
1.39491e-08
1.45137e-08
1.50848e-08
1.56612e-08
1.62417e-08
1.68252e-08
1.74106e-08
1.7997e-08
1.85833e-08
1.91688e-08
1.97524e-08
2.03335e-08
2.09111e-08
2.14844e-08
2.20528e-08
2.26155e-08
2.31717e-08
2.37208e-08
2.4262e-08
2.47946e-08
2.5318e-08
2.58315e-08
2.63345e-08
2.68264e-08
2.73064e-08
2.77741e-08
2.82288e-08
2.86698e-08
2.90967e-08
2.95088e-08
2.99055e-08
3.02864e-08
3.06508e-08
3.09983e-08
3.13282e-08
3.16401e-08
3.19335e-08
3.22079e-08
3.24628e-08
3.26977e-08
3.29122e-08
3.31059e-08
3.32783e-08
3.3429e-08
3.35577e-08
3.3664e-08
3.37475e-08
3.38079e-08
3.38449e-08
3.38582e-08
3.38478e-08
3.38132e-08
3.37542e-08
3.36707e-08
3.35627e-08
3.343e-08
3.32725e-08
3.30903e-08
3.28834e-08
3.26518e-08
3.23957e-08
3.21151e-08
3.18104e-08
3.14817e-08
3.11294e-08
3.07538e-08
3.03554e-08
2.99345e-08
2.94917e-08
2.90276e-08
2.85428e-08
2.8038e-08
2.75141e-08
2.69718e-08
2.6412e-08
2.58357e-08
2.52439e-08
2.46378e-08
2.40187e-08
2.33876e-08
2.27461e-08
2.20956e-08
2.14376e-08
2.07739e-08
2.01063e-08
1.94366e-08
1.87669e-08
1.80995e-08
1.74369e-08
1.67816e-08
1.61367e-08
1.55053e-08
1.48912e-08
1.42983e-08
1.37314e-08
1.31959e-08
1.26983e-08
1.22463e-08
1.18493e-08
1.1519e-08
1.12705e-08
1.11238e-08
1.11063e-08
1.12575e-08
1.16376e-08
1.23449e-08
1.35554e-08
1.56277e-08
1.94419e-08
2.79269e-08
5.8965e-08
4.98313e-08
2.35712e-08
1.63546e-08
1.30715e-08
1.12487e-08
1.01445e-08
9.45768e-09
9.04097e-09
8.81289e-09
8.72394e-09
8.7419e-09
8.84454e-09
9.01594e-09
9.24416e-09
9.52001e-09
9.83625e-09
1.0187e-08
1.05676e-08
1.09738e-08
1.14024e-08
1.18503e-08
1.23151e-08
1.27945e-08
1.32865e-08
1.37893e-08
1.43014e-08
1.48211e-08
1.53472e-08
1.58784e-08
1.64136e-08
1.69516e-08
1.74914e-08
1.80322e-08
1.85728e-08
1.91126e-08
1.96505e-08
2.01859e-08
2.07179e-08
2.12458e-08
2.17688e-08
2.22862e-08
2.27973e-08
2.33014e-08
2.37979e-08
2.42862e-08
2.47655e-08
2.52352e-08
2.56948e-08
2.61437e-08
2.65812e-08
2.70067e-08
2.74198e-08
2.78198e-08
2.82062e-08
2.85784e-08
2.8936e-08
2.92784e-08
2.9605e-08
2.99154e-08
3.02091e-08
3.04857e-08
3.07445e-08
3.09853e-08
3.12075e-08
3.14107e-08
3.15946e-08
3.17586e-08
3.19025e-08
3.20258e-08
3.21283e-08
3.22095e-08
3.22692e-08
3.23071e-08
3.2323e-08
3.23166e-08
3.22878e-08
3.22362e-08
3.21618e-08
3.20645e-08
3.19442e-08
3.18008e-08
3.16344e-08
3.1445e-08
3.12326e-08
3.09975e-08
3.07396e-08
3.04594e-08
3.01569e-08
2.98326e-08
2.94868e-08
2.91199e-08
2.87323e-08
2.83247e-08
2.78976e-08
2.74516e-08
2.69875e-08
2.6506e-08
2.60081e-08
2.54946e-08
2.49665e-08
2.44249e-08
2.38709e-08
2.33058e-08
2.27309e-08
2.21476e-08
2.15574e-08
2.0962e-08
2.0363e-08
1.97625e-08
1.91624e-08
1.85648e-08
1.79722e-08
1.73872e-08
1.68125e-08
1.62513e-08
1.57072e-08
1.51842e-08
1.46866e-08
1.42198e-08
1.37898e-08
1.34036e-08
1.30698e-08
1.27992e-08
1.2605e-08
1.25045e-08
1.2521e-08
1.26863e-08
1.30473e-08
1.36755e-08
1.46889e-08
1.63007e-08
1.89472e-08
2.37029e-08
3.41505e-08
7.21769e-08
5.90479e-08
2.79136e-08
1.93313e-08
1.5397e-08
1.31813e-08
1.18064e-08
1.09164e-08
1.03382e-08
9.97593e-09
9.77204e-09
9.6891e-09
9.70158e-09
9.79116e-09
9.94434e-09
1.01507e-08
1.04022e-08
1.06921e-08
1.10152e-08
1.13669e-08
1.17436e-08
1.21419e-08
1.25592e-08
1.29928e-08
1.34407e-08
1.39009e-08
1.43717e-08
1.48514e-08
1.53387e-08
1.58321e-08
1.63306e-08
1.68328e-08
1.73378e-08
1.78445e-08
1.83519e-08
1.88592e-08
1.93655e-08
1.98698e-08
2.03716e-08
2.08698e-08
2.1364e-08
2.18532e-08
2.23369e-08
2.28143e-08
2.32848e-08
2.37477e-08
2.42025e-08
2.46485e-08
2.50851e-08
2.55117e-08
2.59278e-08
2.63327e-08
2.6726e-08
2.7107e-08
2.74753e-08
2.78304e-08
2.81716e-08
2.84986e-08
2.88107e-08
2.91076e-08
2.93888e-08
2.96537e-08
2.9902e-08
3.01332e-08
3.03468e-08
3.05426e-08
3.072e-08
3.08787e-08
3.10183e-08
3.11384e-08
3.12388e-08
3.13192e-08
3.13791e-08
3.14184e-08
3.14369e-08
3.14342e-08
3.14104e-08
3.13649e-08
3.12979e-08
3.12092e-08
3.10987e-08
3.09665e-08
3.08124e-08
3.06366e-08
3.04391e-08
3.02202e-08
2.99798e-08
2.97184e-08
2.94361e-08
2.91333e-08
2.88103e-08
2.84676e-08
2.81057e-08
2.77251e-08
2.73264e-08
2.69104e-08
2.64777e-08
2.60291e-08
2.55656e-08
2.50881e-08
2.45976e-08
2.40953e-08
2.35823e-08
2.30599e-08
2.25294e-08
2.19925e-08
2.14506e-08
2.09054e-08
2.03589e-08
1.98128e-08
1.92694e-08
1.87311e-08
1.82003e-08
1.76799e-08
1.71729e-08
1.66827e-08
1.62131e-08
1.57683e-08
1.53533e-08
1.49736e-08
1.4636e-08
1.43483e-08
1.41202e-08
1.39636e-08
1.38935e-08
1.39296e-08
1.40984e-08
1.4437e-08
1.49996e-08
1.58702e-08
1.71877e-08
1.92047e-08
2.24392e-08
2.81697e-08
4.06628e-08
8.59945e-08
6.84754e-08
3.2357e-08
2.23811e-08
1.77854e-08
1.51738e-08
1.3529e-08
1.24392e-08
1.17041e-08
1.12136e-08
1.09013e-08
1.07245e-08
1.06543e-08
1.06698e-08
1.07558e-08
1.09007e-08
1.10954e-08
1.13327e-08
1.16066e-08
1.19121e-08
1.22453e-08
1.26024e-08
1.29804e-08
1.33768e-08
1.37891e-08
1.42151e-08
1.46532e-08
1.51014e-08
1.55584e-08
1.60226e-08
1.64927e-08
1.69676e-08
1.74461e-08
1.79271e-08
1.84096e-08
1.88927e-08
1.93754e-08
1.9857e-08
2.03366e-08
2.08134e-08
2.12866e-08
2.17555e-08
2.22195e-08
2.26777e-08
2.31297e-08
2.35747e-08
2.4012e-08
2.44412e-08
2.48615e-08
2.52725e-08
2.56735e-08
2.6064e-08
2.64434e-08
2.68112e-08
2.71669e-08
2.751e-08
2.78399e-08
2.81562e-08
2.84584e-08
2.8746e-08
2.90186e-08
2.92756e-08
2.95168e-08
2.97416e-08
2.99496e-08
3.01405e-08
3.03138e-08
3.04692e-08
3.06063e-08
3.07248e-08
3.08244e-08
3.09047e-08
3.09655e-08
3.10065e-08
3.10275e-08
3.10283e-08
3.10088e-08
3.09686e-08
3.09077e-08
3.0826e-08
3.07235e-08
3.06001e-08
3.04559e-08
3.02908e-08
3.01051e-08
2.98989e-08
2.96723e-08
2.94256e-08
2.91591e-08
2.88731e-08
2.8568e-08
2.82442e-08
2.79024e-08
2.7543e-08
2.71667e-08
2.67742e-08
2.63663e-08
2.59438e-08
2.55076e-08
2.50588e-08
2.45983e-08
2.41274e-08
2.36473e-08
2.31593e-08
2.26649e-08
2.21657e-08
2.16633e-08
2.11596e-08
2.06565e-08
2.01561e-08
1.96606e-08
1.91725e-08
1.86945e-08
1.82296e-08
1.77809e-08
1.73521e-08
1.69474e-08
1.65714e-08
1.62293e-08
1.59274e-08
1.56729e-08
1.54746e-08
1.53431e-08
1.52916e-08
1.53371e-08
1.55018e-08
1.58157e-08
1.63213e-08
1.70809e-08
1.81913e-08
1.98138e-08
2.22417e-08
2.60784e-08
3.28144e-08
4.74271e-08
1.00342e-07
7.80453e-08
3.68689e-08
2.54806e-08
2.0217e-08
1.72077e-08
1.52941e-08
1.40071e-08
1.31191e-08
1.25048e-08
1.20894e-08
1.18246e-08
1.16776e-08
1.16252e-08
1.16505e-08
1.17404e-08
1.18851e-08
1.20763e-08
1.23077e-08
1.25737e-08
1.287e-08
1.31927e-08
1.35383e-08
1.39041e-08
1.42875e-08
1.46862e-08
1.50982e-08
1.55217e-08
1.59551e-08
1.63967e-08
1.68452e-08
1.72994e-08
1.77579e-08
1.82198e-08
1.86839e-08
1.91492e-08
1.96148e-08
2.00798e-08
2.05434e-08
2.10048e-08
2.14631e-08
2.19176e-08
2.23676e-08
2.28125e-08
2.32514e-08
2.36839e-08
2.41092e-08
2.45267e-08
2.49358e-08
2.5336e-08
2.57267e-08
2.61074e-08
2.64774e-08
2.68363e-08
2.71835e-08
2.75185e-08
2.78409e-08
2.81502e-08
2.84458e-08
2.87273e-08
2.89944e-08
2.92464e-08
2.9483e-08
2.97039e-08
2.99085e-08
3.00965e-08
3.02674e-08
3.04211e-08
3.0557e-08
3.0675e-08
3.07746e-08
3.08555e-08
3.09176e-08
3.09604e-08
3.09839e-08
3.09879e-08
3.09721e-08
3.09364e-08
3.08806e-08
3.08047e-08
3.07086e-08
3.05924e-08
3.04561e-08
3.02997e-08
3.01233e-08
2.99271e-08
2.97113e-08
2.94762e-08
2.92221e-08
2.89493e-08
2.86583e-08
2.83495e-08
2.80234e-08
2.76808e-08
2.73222e-08
2.69484e-08
2.65601e-08
2.61584e-08
2.57442e-08
2.53184e-08
2.48823e-08
2.44371e-08
2.39841e-08
2.35246e-08
2.30602e-08
2.25926e-08
2.21235e-08
2.16548e-08
2.11884e-08
2.07268e-08
2.02722e-08
1.98272e-08
1.93948e-08
1.89781e-08
1.85806e-08
1.82061e-08
1.78591e-08
1.75446e-08
1.72683e-08
1.7037e-08
1.68586e-08
1.67426e-08
1.67009e-08
1.67481e-08
1.6903e-08
1.71907e-08
1.76448e-08
1.83135e-08
1.92674e-08
2.0617e-08
2.25466e-08
2.53918e-08
2.98445e-08
3.76142e-08
5.4412e-08
1.15154e-07
8.7696e-08
4.14198e-08
2.86089e-08
2.26743e-08
1.92674e-08
1.70865e-08
1.5605e-08
1.45675e-08
1.38337e-08
1.33196e-08
1.29715e-08
1.27529e-08
1.2638e-08
1.26079e-08
1.26484e-08
1.27484e-08
1.28993e-08
1.30937e-08
1.3326e-08
1.35911e-08
1.38848e-08
1.42037e-08
1.45446e-08
1.49047e-08
1.52817e-08
1.56733e-08
1.60776e-08
1.64928e-08
1.69173e-08
1.73497e-08
1.77885e-08
1.82325e-08
1.86805e-08
1.91314e-08
1.95842e-08
2.00378e-08
2.04914e-08
2.0944e-08
2.13948e-08
2.18431e-08
2.22879e-08
2.27287e-08
2.31646e-08
2.35951e-08
2.40193e-08
2.44368e-08
2.48468e-08
2.52487e-08
2.56421e-08
2.60262e-08
2.64006e-08
2.67647e-08
2.7118e-08
2.74599e-08
2.779e-08
2.81078e-08
2.84127e-08
2.87044e-08
2.89823e-08
2.92461e-08
2.94952e-08
2.97293e-08
2.99479e-08
3.01507e-08
3.03373e-08
3.05073e-08
3.06603e-08
3.0796e-08
3.09141e-08
3.10142e-08
3.10962e-08
3.11597e-08
3.12045e-08
3.12303e-08
3.1237e-08
3.12245e-08
3.11925e-08
3.11409e-08
3.10697e-08
3.09789e-08
3.08684e-08
3.07383e-08
3.05887e-08
3.04198e-08
3.02316e-08
3.00244e-08
2.97985e-08
2.95542e-08
2.92919e-08
2.9012e-08
2.87151e-08
2.84017e-08
2.80724e-08
2.7728e-08
2.73693e-08
2.6997e-08
2.66122e-08
2.62157e-08
2.58088e-08
2.53926e-08
2.49685e-08
2.45377e-08
2.41018e-08
2.36624e-08
2.32211e-08
2.278e-08
2.23409e-08
2.1906e-08
2.14777e-08
2.10585e-08
2.06512e-08
2.02588e-08
1.98847e-08
1.95326e-08
1.92068e-08
1.89118e-08
1.86532e-08
1.8437e-08
1.82707e-08
1.81628e-08
1.81239e-08
1.81667e-08
1.83076e-08
1.85675e-08
1.8974e-08
1.9565e-08
2.03941e-08
2.15411e-08
2.31303e-08
2.53698e-08
2.8639e-08
3.37205e-08
4.25491e-08
6.15899e-08
1.30373e-07
9.73711e-08
4.5983e-08
3.17474e-08
2.51422e-08
2.13391e-08
1.88932e-08
1.72202e-08
1.60366e-08
1.51871e-08
1.45785e-08
1.41515e-08
1.38657e-08
1.36928e-08
1.36121e-08
1.3608e-08
1.36683e-08
1.37836e-08
1.39461e-08
1.41494e-08
1.43882e-08
1.46581e-08
1.49551e-08
1.52759e-08
1.56176e-08
1.59776e-08
1.63535e-08
1.67434e-08
1.71452e-08
1.75573e-08
1.79781e-08
1.84062e-08
1.88402e-08
1.92788e-08
1.9721e-08
2.01655e-08
2.06115e-08
2.10578e-08
2.15036e-08
2.1948e-08
2.23901e-08
2.28293e-08
2.32646e-08
2.36954e-08
2.41209e-08
2.45406e-08
2.49536e-08
2.53595e-08
2.57575e-08
2.61471e-08
2.65277e-08
2.68988e-08
2.72598e-08
2.76102e-08
2.79494e-08
2.8277e-08
2.85924e-08
2.88952e-08
2.9185e-08
2.94613e-08
2.97236e-08
2.99714e-08
3.02045e-08
3.04224e-08
3.06246e-08
3.08109e-08
3.09808e-08
3.11341e-08
3.12703e-08
3.13891e-08
3.14903e-08
3.15736e-08
3.16387e-08
3.16854e-08
3.17134e-08
3.17227e-08
3.1713e-08
3.16842e-08
3.16362e-08
3.15689e-08
3.14823e-08
3.13764e-08
3.12513e-08
3.11071e-08
3.0944e-08
3.0762e-08
3.05615e-08
3.03427e-08
3.01061e-08
2.98519e-08
2.95807e-08
2.92931e-08
2.89895e-08
2.86708e-08
2.83376e-08
2.79907e-08
2.76311e-08
2.72597e-08
2.68776e-08
2.64859e-08
2.6086e-08
2.56791e-08
2.52667e-08
2.48504e-08
2.44319e-08
2.40129e-08
2.35955e-08
2.31818e-08
2.2774e-08
2.23746e-08
2.19864e-08
2.16122e-08
2.12553e-08
2.09192e-08
2.0608e-08
2.03261e-08
2.00786e-08
1.98712e-08
1.97106e-08
1.96048e-08
1.95631e-08
1.95968e-08
1.97202e-08
1.99511e-08
2.03124e-08
2.08348e-08
2.15602e-08
2.25483e-08
2.38878e-08
2.57176e-08
2.82701e-08
3.19695e-08
3.76915e-08
4.76013e-08
6.8936e-08
1.45946e-07
1.0702e-07
5.05344e-08
3.48792e-08
2.76068e-08
2.34108e-08
2.07032e-08
1.88421e-08
1.75159e-08
1.65543e-08
1.58551e-08
1.53531e-08
1.50043e-08
1.47777e-08
1.46507e-08
1.46063e-08
1.46313e-08
1.47154e-08
1.48503e-08
1.50291e-08
1.5246e-08
1.54963e-08
1.57758e-08
1.60808e-08
1.64084e-08
1.67557e-08
1.71202e-08
1.74997e-08
1.78923e-08
1.8296e-08
1.87093e-08
1.91306e-08
1.95585e-08
1.99917e-08
2.04289e-08
2.0869e-08
2.13109e-08
2.17536e-08
2.21961e-08
2.26376e-08
2.30771e-08
2.35138e-08
2.39469e-08
2.43757e-08
2.47995e-08
2.52175e-08
2.56291e-08
2.60336e-08
2.64304e-08
2.68189e-08
2.71985e-08
2.75687e-08
2.79289e-08
2.82786e-08
2.86172e-08
2.89443e-08
2.92593e-08
2.95618e-08
2.98514e-08
3.01275e-08
3.03898e-08
3.06378e-08
3.08711e-08
3.10893e-08
3.1292e-08
3.14788e-08
3.16495e-08
3.18036e-08
3.19408e-08
3.20608e-08
3.21633e-08
3.22481e-08
3.23149e-08
3.23634e-08
3.23935e-08
3.24049e-08
3.23977e-08
3.23716e-08
3.23264e-08
3.22622e-08
3.21789e-08
3.20766e-08
3.19554e-08
3.18153e-08
3.16566e-08
3.14793e-08
3.12839e-08
3.10705e-08
3.08397e-08
3.05917e-08
3.03271e-08
3.00466e-08
2.97506e-08
2.94399e-08
2.91154e-08
2.87778e-08
2.84281e-08
2.80674e-08
2.76967e-08
2.73173e-08
2.69305e-08
2.65378e-08
2.61406e-08
2.57405e-08
2.53395e-08
2.49394e-08
2.45422e-08
2.41503e-08
2.37659e-08
2.33918e-08
2.30307e-08
2.26858e-08
2.23605e-08
2.20587e-08
2.17845e-08
2.15427e-08
2.13387e-08
2.11787e-08
2.107e-08
2.10209e-08
2.10417e-08
2.11448e-08
2.13455e-08
2.16633e-08
2.21234e-08
2.27595e-08
2.36176e-08
2.47637e-08
2.62957e-08
2.83673e-08
3.12358e-08
3.53713e-08
4.17441e-08
5.27549e-08
7.64273e-08
1.61827e-07
1.16596e-07
5.50521e-08
3.79891e-08
3.00559e-08
2.54717e-08
2.25066e-08
2.04611e-08
1.89963e-08
1.79263e-08
1.71403e-08
1.65672e-08
1.61593e-08
1.58829e-08
1.57135e-08
1.56328e-08
1.56265e-08
1.56835e-08
1.57948e-08
1.59531e-08
1.61521e-08
1.63868e-08
1.66526e-08
1.69459e-08
1.72632e-08
1.76015e-08
1.79584e-08
1.83314e-08
1.87184e-08
1.91174e-08
1.95268e-08
1.99449e-08
2.03702e-08
2.08013e-08
2.12369e-08
2.16759e-08
2.2117e-08
2.25593e-08
2.30016e-08
2.34432e-08
2.3883e-08
2.43202e-08
2.47539e-08
2.51835e-08
2.56081e-08
2.6027e-08
2.64396e-08
2.68452e-08
2.72431e-08
2.76327e-08
2.80135e-08
2.83849e-08
2.87462e-08
2.9097e-08
2.94368e-08
2.97651e-08
3.00813e-08
3.0385e-08
3.06757e-08
3.0953e-08
3.12165e-08
3.14657e-08
3.17002e-08
3.19196e-08
3.21236e-08
3.23117e-08
3.24837e-08
3.26391e-08
3.27777e-08
3.28992e-08
3.30033e-08
3.30896e-08
3.31581e-08
3.32083e-08
3.32402e-08
3.32536e-08
3.32483e-08
3.32244e-08
3.31814e-08
3.31196e-08
3.30388e-08
3.29392e-08
3.28208e-08
3.26837e-08
3.25281e-08
3.23543e-08
3.21625e-08
3.1953e-08
3.17263e-08
3.14829e-08
3.12231e-08
3.09477e-08
3.06573e-08
3.03527e-08
3.00347e-08
2.97041e-08
2.9362e-08
2.90095e-08
2.86478e-08
2.82781e-08
2.79018e-08
2.75204e-08
2.71356e-08
2.6749e-08
2.63625e-08
2.59782e-08
2.55982e-08
2.52249e-08
2.48609e-08
2.45087e-08
2.41716e-08
2.38528e-08
2.35559e-08
2.3285e-08
2.30445e-08
2.28395e-08
2.26758e-08
2.256e-08
2.24999e-08
2.25045e-08
2.25849e-08
2.27544e-08
2.30298e-08
2.34322e-08
2.3989e-08
2.47369e-08
2.57265e-08
2.70299e-08
2.87547e-08
3.10694e-08
3.42567e-08
3.88334e-08
4.58661e-08
5.79947e-08
8.40425e-08
1.77969e-07
1.26058e-07
5.95166e-08
4.10634e-08
3.24787e-08
2.75126e-08
2.42948e-08
2.20694e-08
2.04699e-08
1.92955e-08
1.84265e-08
1.77861e-08
1.73228e-08
1.70003e-08
1.67924e-08
1.66791e-08
1.66453e-08
1.66789e-08
1.67703e-08
1.69118e-08
1.70966e-08
1.73193e-08
1.75752e-08
1.78602e-08
1.81708e-08
1.85038e-08
1.88565e-08
1.92264e-08
1.96111e-08
2.00088e-08
2.04176e-08
2.08356e-08
2.12615e-08
2.16936e-08
2.21307e-08
2.25715e-08
2.30147e-08
2.34594e-08
2.39044e-08
2.43487e-08
2.47914e-08
2.52316e-08
2.56684e-08
2.61012e-08
2.65289e-08
2.69511e-08
2.73668e-08
2.77755e-08
2.81766e-08
2.85693e-08
2.8953e-08
2.93273e-08
2.96915e-08
3.00451e-08
3.03876e-08
3.07184e-08
3.10371e-08
3.13433e-08
3.16363e-08
3.19159e-08
3.21815e-08
3.24328e-08
3.26693e-08
3.28907e-08
3.30966e-08
3.32866e-08
3.34603e-08
3.36175e-08
3.37578e-08
3.3881e-08
3.39866e-08
3.40746e-08
3.41446e-08
3.41965e-08
3.423e-08
3.42449e-08
3.42412e-08
3.42189e-08
3.41776e-08
3.41174e-08
3.40384e-08
3.39406e-08
3.38241e-08
3.3689e-08
3.35355e-08
3.33639e-08
3.31745e-08
3.29676e-08
3.27436e-08
3.25031e-08
3.22465e-08
3.19746e-08
3.16881e-08
3.13876e-08
3.10742e-08
3.07486e-08
3.04121e-08
3.00657e-08
2.97107e-08
2.93484e-08
2.89802e-08
2.86078e-08
2.82329e-08
2.78572e-08
2.74827e-08
2.71116e-08
2.67461e-08
2.63888e-08
2.60422e-08
2.57093e-08
2.53933e-08
2.50977e-08
2.48263e-08
2.45834e-08
2.43737e-08
2.42027e-08
2.40765e-08
2.40021e-08
2.39879e-08
2.40435e-08
2.4181e-08
2.44147e-08
2.47625e-08
2.52474e-08
2.58992e-08
2.67577e-08
2.78778e-08
2.93381e-08
3.12559e-08
3.38149e-08
3.73235e-08
4.23457e-08
5.00461e-08
6.33066e-08
9.17616e-08
1.9433e-07
1.35369e-07
6.39106e-08
4.40901e-08
3.48655e-08
2.95251e-08
2.60605e-08
2.366e-08
2.19301e-08
2.06554e-08
1.97072e-08
1.90033e-08
1.84883e-08
1.81234e-08
1.78805e-08
1.77383e-08
1.76805e-08
1.76943e-08
1.77693e-08
1.78975e-08
1.80715e-08
1.82858e-08
1.85351e-08
1.88152e-08
1.91224e-08
1.94533e-08
1.9805e-08
2.01749e-08
2.05606e-08
2.096e-08
2.13711e-08
2.17921e-08
2.22214e-08
2.26574e-08
2.30987e-08
2.35439e-08
2.3992e-08
2.44415e-08
2.48916e-08
2.53411e-08
2.57891e-08
2.62346e-08
2.66768e-08
2.71148e-08
2.75478e-08
2.79751e-08
2.83959e-08
2.88096e-08
2.92155e-08
2.96129e-08
3.00013e-08
3.038e-08
3.07485e-08
3.11063e-08
3.14527e-08
3.17874e-08
3.21097e-08
3.24193e-08
3.27157e-08
3.29985e-08
3.32671e-08
3.35212e-08
3.37605e-08
3.39844e-08
3.41927e-08
3.43849e-08
3.45608e-08
3.472e-08
3.48623e-08
3.49872e-08
3.50946e-08
3.51841e-08
3.52556e-08
3.53089e-08
3.53437e-08
3.53599e-08
3.53574e-08
3.53362e-08
3.5296e-08
3.52368e-08
3.51588e-08
3.5062e-08
3.49465e-08
3.48125e-08
3.46601e-08
3.44896e-08
3.43014e-08
3.40957e-08
3.38732e-08
3.36342e-08
3.33795e-08
3.31095e-08
3.28252e-08
3.25273e-08
3.22167e-08
3.18944e-08
3.15615e-08
3.12193e-08
3.0869e-08
3.0512e-08
3.015e-08
2.97844e-08
2.94171e-08
2.905e-08
2.86852e-08
2.8325e-08
2.79716e-08
2.76277e-08
2.72962e-08
2.69801e-08
2.66827e-08
2.64078e-08
2.61594e-08
2.59419e-08
2.57606e-08
2.5621e-08
2.55297e-08
2.54944e-08
2.55236e-08
2.56281e-08
2.58205e-08
2.61162e-08
2.65346e-08
2.71004e-08
2.78456e-08
2.88135e-08
3.00633e-08
3.16803e-08
3.37912e-08
3.65954e-08
4.04274e-08
4.58988e-08
5.42731e-08
6.86772e-08
9.9565e-08
2.1087e-07
1.44499e-07
6.8219e-08
4.70591e-08
3.72082e-08
3.15022e-08
2.77973e-08
2.52271e-08
2.33715e-08
2.20006e-08
2.09772e-08
2.02135e-08
1.96505e-08
1.92468e-08
1.89724e-08
1.88047e-08
1.87263e-08
1.87237e-08
1.87858e-08
1.89039e-08
1.90706e-08
1.92795e-08
1.95255e-08
1.98039e-08
2.01108e-08
2.04426e-08
2.07964e-08
2.11693e-08
2.15589e-08
2.19628e-08
2.2379e-08
2.28057e-08
2.3241e-08
2.36835e-08
2.41315e-08
2.45838e-08
2.50389e-08
2.54958e-08
2.59532e-08
2.64101e-08
2.68655e-08
2.73183e-08
2.77678e-08
2.8213e-08
2.86531e-08
2.90873e-08
2.95149e-08
2.99352e-08
3.03475e-08
3.07511e-08
3.11455e-08
3.153e-08
3.1904e-08
3.22671e-08
3.26187e-08
3.29582e-08
3.32852e-08
3.35991e-08
3.38997e-08
3.41863e-08
3.44587e-08
3.47163e-08
3.49587e-08
3.51857e-08
3.53968e-08
3.55917e-08
3.577e-08
3.59314e-08
3.60757e-08
3.62025e-08
3.63115e-08
3.64026e-08
3.64754e-08
3.65298e-08
3.65657e-08
3.65828e-08
3.6581e-08
3.65605e-08
3.65208e-08
3.64621e-08
3.63845e-08
3.62879e-08
3.61726e-08
3.60387e-08
3.58864e-08
3.5716e-08
3.55279e-08
3.53225e-08
3.51001e-08
3.48615e-08
3.46071e-08
3.43378e-08
3.40542e-08
3.37572e-08
3.34479e-08
3.31272e-08
3.27963e-08
3.24565e-08
3.21092e-08
3.17557e-08
3.13977e-08
3.1037e-08
3.06754e-08
3.03149e-08
2.99577e-08
2.96061e-08
2.92627e-08
2.89301e-08
2.86114e-08
2.83098e-08
2.80288e-08
2.77723e-08
2.75445e-08
2.73503e-08
2.7195e-08
2.70846e-08
2.70262e-08
2.70276e-08
2.70983e-08
2.72496e-08
2.74949e-08
2.78509e-08
2.83382e-08
2.89833e-08
2.98208e-08
3.0897e-08
3.22758e-08
3.4049e-08
3.63531e-08
3.94034e-08
4.35602e-08
4.94836e-08
5.85366e-08
7.40934e-08
1.07434e-07
2.27549e-07
1.53419e-07
7.24294e-08
4.99615e-08
3.94998e-08
3.3438e-08
2.95e-08
2.67657e-08
2.47893e-08
2.33267e-08
2.22321e-08
2.14124e-08
2.08051e-08
2.03662e-08
2.00638e-08
1.9874e-08
1.97784e-08
1.97626e-08
1.9815e-08
1.99263e-08
2.00886e-08
2.02954e-08
2.0541e-08
2.08207e-08
2.11303e-08
2.1466e-08
2.18247e-08
2.22034e-08
2.25995e-08
2.30106e-08
2.34345e-08
2.38694e-08
2.43133e-08
2.47646e-08
2.52218e-08