/*--------------------------------*- C++ -*----------------------------------*\
  =========                 |
  \\      /  F ield         | OpenFOAM: The Open Source CFD Toolbox
   \\    /   O peration     | Website:  https://openfoam.org
    \\  /    A nd           | Version:  12
     \\/     M anipulation  |
\*---------------------------------------------------------------------------*/
FoamFile
{
    format      ascii;
    class       volScalarField;
    location    "10";
    object      k;
}
// * * * * * * * * * * * * * * * * * * * * * * * * * * * * * * * * * * * * * //

dimensions      [0 2 -2 0 0 0 0];

internalField   nonuniform List<scalar> 
18225
(
1.83804e-13
1.38884e-12
2.94734e-12
4.81389e-12
6.92616e-12
9.23872e-12
1.17202e-11
1.43479e-11
1.71048e-11
1.99772e-11
2.29536e-11
2.60242e-11
2.91804e-11
3.24145e-11
3.57194e-11
3.90887e-11
4.25161e-11
4.5996e-11
4.9523e-11
5.30918e-11
5.66975e-11
6.0335e-11
6.39997e-11
6.7687e-11
7.13923e-11
7.51112e-11
7.88393e-11
8.25722e-11
8.63058e-11
9.00358e-11
9.3758e-11
9.74682e-11
1.01162e-10
1.04837e-10
1.08487e-10
1.12108e-10
1.15698e-10
1.19252e-10
1.22766e-10
1.26236e-10
1.29659e-10
1.3303e-10
1.36346e-10
1.39603e-10
1.42798e-10
1.45926e-10
1.48985e-10
1.5197e-10
1.54879e-10
1.57708e-10
1.60452e-10
1.6311e-10
1.65678e-10
1.68152e-10
1.70529e-10
1.72806e-10
1.7498e-10
1.77049e-10
1.79008e-10
1.80855e-10
1.82588e-10
1.84203e-10
1.85699e-10
1.87071e-10
1.88318e-10
1.89438e-10
1.90427e-10
1.91284e-10
1.92007e-10
1.92593e-10
1.93041e-10
1.93349e-10
1.93514e-10
1.93536e-10
1.93413e-10
1.93144e-10
1.92727e-10
1.92162e-10
1.91447e-10
1.90583e-10
1.89568e-10
1.88403e-10
1.87087e-10
1.8562e-10
1.84003e-10
1.82237e-10
1.80322e-10
1.78258e-10
1.76049e-10
1.73694e-10
1.71196e-10
1.68557e-10
1.65779e-10
1.62864e-10
1.59817e-10
1.56639e-10
1.53334e-10
1.49906e-10
1.46359e-10
1.42697e-10
1.38925e-10
1.35047e-10
1.3107e-10
1.26997e-10
1.22836e-10
1.18591e-10
1.1427e-10
1.09879e-10
1.05425e-10
1.00914e-10
9.63554e-11
9.17557e-11
8.71234e-11
8.24667e-11
7.77945e-11
7.31155e-11
6.84394e-11
6.37757e-11
5.91346e-11
5.45266e-11
4.9963e-11
4.54552e-11
4.10156e-11
3.66574e-11
3.23947e-11
2.8243e-11
2.42191e-11
2.03425e-11
1.66357e-11
1.31257e-11
9.84749e-12
6.84809e-12
4.19438e-12
1.97688e-12
2.61635e-13
1.24366e-12
1.10734e-11
2.5268e-11
4.23e-11
6.1474e-11
8.23925e-11
1.04794e-10
1.2849e-10
1.53333e-10
1.79205e-10
2.06006e-10
2.33649e-10
2.62058e-10
2.91164e-10
3.20905e-10
3.51222e-10
3.82061e-10
4.13371e-10
4.45103e-10
4.7721e-10
5.09647e-10
5.42371e-10
5.75339e-10
6.08509e-10
6.41841e-10
6.75294e-10
7.0883e-10
7.4241e-10
7.75995e-10
8.09548e-10
8.4303e-10
8.76405e-10
9.09636e-10
9.42686e-10
9.75519e-10
1.0081e-09
1.04039e-09
1.07236e-09
1.10397e-09
1.13519e-09
1.16597e-09
1.1963e-09
1.22613e-09
1.25543e-09
1.28417e-09
1.31231e-09
1.33983e-09
1.36669e-09
1.39286e-09
1.4183e-09
1.443e-09
1.46691e-09
1.49001e-09
1.51227e-09
1.53366e-09
1.55415e-09
1.57371e-09
1.59232e-09
1.60995e-09
1.62658e-09
1.64217e-09
1.65671e-09
1.67017e-09
1.68252e-09
1.69375e-09
1.70383e-09
1.71273e-09
1.72045e-09
1.72696e-09
1.73224e-09
1.73627e-09
1.73904e-09
1.74054e-09
1.74074e-09
1.73964e-09
1.73722e-09
1.73348e-09
1.7284e-09
1.72198e-09
1.71421e-09
1.70508e-09
1.69461e-09
1.68277e-09
1.66958e-09
1.65504e-09
1.63916e-09
1.62193e-09
1.60337e-09
1.5835e-09
1.56232e-09
1.53985e-09
1.51611e-09
1.49112e-09
1.46491e-09
1.43749e-09
1.4089e-09
1.37917e-09
1.34834e-09
1.31643e-09
1.28348e-09
1.24955e-09
1.21466e-09
1.17888e-09
1.14224e-09
1.10479e-09
1.06661e-09
1.02773e-09
9.88216e-10
9.48137e-10
9.07553e-10
8.66531e-10
8.25142e-10
7.83458e-10
7.41553e-10
6.99507e-10
6.574e-10
6.15316e-10
5.73343e-10
5.31571e-10
4.90095e-10
4.49014e-10
4.08434e-10
3.68464e-10
3.29221e-10
2.90832e-10
2.53434e-10
2.17176e-10
1.8223e-10
1.48791e-10
1.17092e-10
8.74279e-11
6.01915e-11
3.59687e-11
1.5766e-11
1.77075e-12
2.76997e-12
2.48497e-11
5.70738e-11
9.60074e-11
1.40014e-10
1.8813e-10
2.39719e-10
2.9432e-10
3.51581e-10
4.11222e-10
4.73005e-10
5.36731e-10
6.0222e-10
6.69315e-10
7.3787e-10
8.07751e-10
8.78833e-10
9.50998e-10
1.02413e-09
1.09813e-09
1.17289e-09
1.24831e-09
1.32429e-09
1.40074e-09
1.47756e-09
1.55465e-09
1.63194e-09
1.70933e-09
1.78673e-09
1.86406e-09
1.94123e-09
2.01815e-09
2.09473e-09
2.17091e-09
2.24658e-09
2.32167e-09
2.3961e-09
2.46979e-09
2.54264e-09
2.6146e-09
2.68557e-09
2.75547e-09
2.82424e-09
2.89178e-09
2.95804e-09
3.02292e-09
3.08636e-09
3.14829e-09
3.20862e-09
3.2673e-09
3.32424e-09
3.37938e-09
3.43265e-09
3.48399e-09
3.53332e-09
3.58058e-09
3.62571e-09
3.66865e-09
3.70933e-09
3.74769e-09
3.78368e-09
3.81724e-09
3.8483e-09
3.87682e-09
3.90275e-09
3.92604e-09
3.94662e-09
3.96447e-09
3.97953e-09
3.99176e-09
4.00111e-09
4.00756e-09
4.01107e-09
4.0116e-09
4.00913e-09
4.00362e-09
3.99505e-09
3.9834e-09
3.96866e-09
3.9508e-09
3.92983e-09
3.90573e-09
3.8785e-09
3.84815e-09
3.81467e-09
3.7781e-09
3.73843e-09
3.69569e-09
3.64991e-09
3.60112e-09
3.54935e-09
3.49465e-09
3.43706e-09
3.37665e-09
3.31346e-09
3.24756e-09
3.17903e-09
3.10794e-09
3.03437e-09
2.95842e-09
2.88017e-09
2.79973e-09
2.71721e-09
2.63272e-09
2.54637e-09
2.4583e-09
2.36862e-09
2.27749e-09
2.18505e-09
2.09143e-09
1.99681e-09
1.90133e-09
1.80517e-09
1.70849e-09
1.61149e-09
1.51434e-09
1.41724e-09
1.3204e-09
1.22401e-09
1.12831e-09
1.03351e-09
9.39862e-10
8.4762e-10
7.57054e-10
6.68457e-10
5.82146e-10
4.98474e-10
4.17838e-10
3.40703e-10
2.67629e-10
1.99325e-10
1.36751e-10
8.13244e-11
3.54156e-11
3.94793e-12
4.59112e-12
4.12556e-11
9.49533e-11
1.60055e-10
2.33843e-10
3.14687e-10
4.01488e-10
4.93445e-10
5.89946e-10
6.90499e-10
7.94694e-10
9.02184e-10
1.01266e-09
1.12586e-09
1.24153e-09
1.35943e-09
1.47937e-09
1.60114e-09
1.72454e-09
1.84941e-09
1.97555e-09
2.10281e-09
2.23102e-09
2.36001e-09
2.48964e-09
2.61974e-09
2.75016e-09
2.88076e-09
3.01138e-09
3.14187e-09
3.2721e-09
3.40191e-09
3.53117e-09
3.65973e-09
3.78745e-09
3.9142e-09
4.03983e-09
4.1642e-09
4.28719e-09
4.40865e-09
4.52846e-09
4.64648e-09
4.76258e-09
4.87663e-09
4.9885e-09
5.09806e-09
5.2052e-09
5.30978e-09
5.41168e-09
5.51079e-09
5.60698e-09
5.70014e-09
5.79014e-09
5.87689e-09
5.96026e-09
6.04014e-09
6.11643e-09
6.18902e-09
6.2578e-09
6.32268e-09
6.38356e-09
6.44033e-09
6.49291e-09
6.5412e-09
6.58511e-09
6.62457e-09
6.65947e-09
6.68975e-09
6.71533e-09
6.73613e-09
6.75209e-09
6.76314e-09
6.76923e-09
6.77028e-09
6.76628e-09
6.75714e-09
6.74283e-09
6.72333e-09
6.69859e-09
6.6686e-09
6.63334e-09
6.59279e-09
6.54696e-09
6.49585e-09
6.43947e-09
6.37783e-09
6.31097e-09
6.23892e-09
6.16172e-09
6.07943e-09
5.9921e-09
5.89982e-09
5.80265e-09
5.70069e-09
5.59404e-09
5.48281e-09
5.36711e-09
5.24709e-09
5.12287e-09
4.9946e-09
4.86246e-09
4.7266e-09
4.58722e-09
4.44449e-09
4.29862e-09
4.14983e-09
3.99833e-09
3.84435e-09
3.68815e-09
3.52996e-09
3.37006e-09
3.20871e-09
3.04619e-09
2.88281e-09
2.71887e-09
2.55467e-09
2.39056e-09
2.22686e-09
2.06395e-09
1.90218e-09
1.74195e-09
1.58367e-09
1.42777e-09
1.27471e-09
1.125e-09
9.79184e-10
8.37863e-10
7.01732e-10
5.71596e-10
4.48431e-10
3.3347e-10
2.2837e-10
1.35531e-10
5.88983e-11
6.55483e-12
6.6283e-12
5.95979e-11
1.37297e-10
2.31669e-10
3.38818e-10
4.56386e-10
5.82767e-10
7.16782e-10
8.57518e-10
1.00424e-09
1.15634e-09
1.3133e-09
1.47465e-09
1.64001e-09
1.80899e-09
1.98126e-09
2.15652e-09
2.33446e-09
2.5148e-09
2.69728e-09
2.88165e-09
3.06764e-09
3.25504e-09
3.44358e-09
3.63306e-09
3.82324e-09
4.01389e-09
4.2048e-09
4.39576e-09
4.58654e-09
4.77693e-09
4.96673e-09
5.15573e-09
5.34371e-09
5.53048e-09
5.71583e-09
5.89955e-09
6.08146e-09
6.26135e-09
6.43901e-09
6.61427e-09
6.78692e-09
6.95678e-09
7.12365e-09
7.28734e-09
7.44768e-09
7.60448e-09
7.75755e-09
7.90672e-09
8.05182e-09
8.19266e-09
8.32907e-09
8.46089e-09
8.58795e-09
8.71009e-09
8.82714e-09
8.93895e-09
9.04536e-09
9.14621e-09
9.24137e-09
9.33068e-09
9.414e-09
9.49119e-09
9.56212e-09
9.62666e-09
9.68467e-09
9.73605e-09
9.78066e-09
9.8184e-09
9.84917e-09
9.87285e-09
9.88935e-09
9.89859e-09
9.90047e-09
9.89495e-09
9.88192e-09
9.86132e-09
9.83311e-09
9.79725e-09
9.75369e-09
9.70241e-09
9.64339e-09
9.57663e-09
9.50213e-09
9.41991e-09
9.32998e-09
9.2324e-09
9.1272e-09
9.01446e-09
8.89424e-09
8.76665e-09
8.63177e-09
8.48973e-09
8.34066e-09
8.1847e-09
8.02202e-09
7.85279e-09
7.67719e-09
7.49544e-09
7.30775e-09
7.11435e-09
6.91551e-09
6.71147e-09
6.50253e-09
6.28897e-09
6.07111e-09
5.84928e-09
5.6238e-09
5.39504e-09
5.16337e-09
4.92917e-09
4.69284e-09
4.45481e-09
4.21549e-09
3.97533e-09
3.73481e-09
3.49441e-09
3.25463e-09
3.01598e-09
2.77903e-09
2.54435e-09
2.31253e-09
2.08423e-09
1.86014e-09
1.64098e-09
1.42759e-09
1.22087e-09
1.02184e-09
8.3172e-10
6.51949e-10
4.84356e-10
3.31363e-10
1.96453e-10
8.52947e-11
9.48675e-12
8.83242e-12
7.94389e-11
1.83093e-10
3.09123e-10
4.52373e-10
6.09715e-10
7.79006e-10
9.58661e-10
1.14745e-09
1.34437e-09
1.5486e-09
1.75942e-09
1.97621e-09
2.19842e-09
2.42555e-09
2.65714e-09
2.89276e-09
3.13202e-09
3.37453e-09
3.61994e-09
3.86789e-09
4.11806e-09
4.37012e-09
4.62375e-09
4.87865e-09
5.1345e-09
5.391e-09
5.64787e-09
5.90481e-09
6.16154e-09
6.41776e-09
6.67319e-09
6.92756e-09
7.18058e-09
7.43199e-09
7.6815e-09
7.92885e-09
8.17376e-09
8.41598e-09
8.65523e-09
8.89125e-09
9.12379e-09
9.35259e-09
9.57739e-09
9.79794e-09
1.0014e-08
1.02253e-08
1.04316e-08
1.06327e-08
1.08283e-08
1.10182e-08
1.12022e-08
1.138e-08
1.15514e-08
1.17162e-08
1.18742e-08
1.20252e-08
1.21689e-08
1.23051e-08
1.24337e-08
1.25545e-08
1.26672e-08
1.27716e-08
1.28676e-08
1.29551e-08
1.30338e-08
1.31035e-08
1.31642e-08
1.32156e-08
1.32576e-08
1.32901e-08
1.33129e-08
1.33259e-08
1.33291e-08
1.33222e-08
1.33053e-08
1.32781e-08
1.32407e-08
1.3193e-08
1.31348e-08
1.30663e-08
1.29873e-08
1.28979e-08
1.27981e-08
1.26878e-08
1.25671e-08
1.24361e-08
1.22947e-08
1.21432e-08
1.19816e-08
1.181e-08
1.16286e-08
1.14375e-08
1.12369e-08
1.1027e-08
1.08079e-08
1.058e-08
1.03435e-08
1.00987e-08
9.84581e-09
9.58522e-09
9.31724e-09
9.04224e-09
8.76059e-09
8.47269e-09
8.17897e-09
7.87985e-09
7.57581e-09
7.26732e-09
6.95488e-09
6.63901e-09
6.32026e-09
5.99919e-09
5.67638e-09
5.35245e-09
5.02802e-09
4.70375e-09
4.38033e-09
4.05846e-09
3.73889e-09
3.42241e-09
3.10984e-09
2.80206e-09
2.5e-09
2.20469e-09
1.91725e-09
1.6389e-09
1.37106e-09
1.11536e-09
8.73781e-10
6.48769e-10
4.43572e-10
2.62826e-10
1.14057e-10
1.26822e-11
1.11677e-11
1.00458e-10
2.31604e-10
3.91164e-10
5.72657e-10
7.72148e-10
9.86936e-10
1.21502e-09
1.45482e-09
1.70508e-09
1.96472e-09
2.23284e-09
2.50863e-09
2.79138e-09
3.08045e-09
3.37525e-09
3.67524e-09
3.97989e-09
4.28872e-09
4.60127e-09
4.91711e-09
5.23579e-09
5.5569e-09
5.88005e-09
6.20483e-09
6.53085e-09
6.85774e-09
7.18511e-09
7.5126e-09
7.83984e-09
8.16647e-09
8.49212e-09
8.81644e-09
9.13907e-09
9.45967e-09
9.77789e-09
1.00934e-08
1.04058e-08
1.07148e-08
1.10201e-08
1.13212e-08
1.1618e-08
1.191e-08
1.2197e-08
1.24786e-08
1.27544e-08
1.30243e-08
1.32878e-08
1.35447e-08
1.37947e-08
1.40374e-08
1.42726e-08
1.44999e-08
1.47192e-08
1.493e-08
1.51322e-08
1.53254e-08
1.55094e-08
1.5684e-08
1.58488e-08
1.60036e-08
1.61481e-08
1.62822e-08
1.64056e-08
1.6518e-08
1.66193e-08
1.67092e-08
1.67875e-08
1.6854e-08
1.69085e-08
1.69509e-08
1.6981e-08
1.69986e-08
1.70035e-08
1.69957e-08
1.6975e-08
1.69413e-08
1.68945e-08
1.68345e-08
1.67612e-08
1.66746e-08
1.65746e-08
1.64613e-08
1.63346e-08
1.61946e-08
1.60412e-08
1.58746e-08
1.56949e-08
1.55021e-08
1.52963e-08
1.50778e-08
1.48466e-08
1.4603e-08
1.43472e-08
1.40795e-08
1.38001e-08
1.35094e-08
1.32076e-08
1.28951e-08
1.25722e-08
1.22395e-08
1.18973e-08
1.1546e-08
1.11862e-08
1.08184e-08
1.04431e-08
1.00609e-08
9.67238e-09
9.27811e-09
8.87878e-09
8.47504e-09
8.06759e-09
7.65717e-09
7.24453e-09
6.83043e-09
6.41571e-09
6.00121e-09
5.5878e-09
5.17641e-09
4.76799e-09
4.36357e-09
3.9642e-09
3.57102e-09
3.18525e-09
2.80819e-09
2.4413e-09
2.08616e-09
1.74459e-09
1.41869e-09
1.11096e-09
8.24542e-10
5.6353e-10
3.33786e-10
1.44811e-10
1.60992e-11
1.36055e-11
1.22399e-10
2.82239e-10
4.76794e-10
6.98201e-10
9.41691e-10
1.20399e-09
1.48265e-09
1.77576e-09
2.08178e-09
2.39939e-09
2.72747e-09
3.06503e-09
3.4112e-09
3.76519e-09
4.12626e-09
4.49374e-09
4.86699e-09
5.24542e-09
5.62847e-09
6.01557e-09
6.40621e-09
6.79988e-09
7.19608e-09
7.59432e-09
7.99412e-09
8.39503e-09
8.79657e-09
9.1983e-09
9.59976e-09
1.00005e-08
1.04001e-08
1.07981e-08
1.11941e-08
1.15876e-08
1.19783e-08
1.23656e-08
1.27492e-08
1.31287e-08
1.35037e-08
1.38736e-08
1.42382e-08
1.45971e-08
1.49498e-08
1.52959e-08
1.56351e-08
1.59669e-08
1.6291e-08
1.66071e-08
1.69146e-08
1.72134e-08
1.75029e-08
1.77829e-08
1.80529e-08
1.83127e-08
1.85619e-08
1.88002e-08
1.90272e-08
1.92426e-08
1.94461e-08
1.96374e-08
1.98161e-08
1.9982e-08
2.01348e-08
2.02741e-08
2.03998e-08
2.05115e-08
2.06091e-08
2.06921e-08
2.07605e-08
2.0814e-08
2.08523e-08
2.08753e-08
2.08828e-08
2.08746e-08
2.08506e-08
2.08105e-08
2.07543e-08
2.06819e-08
2.05931e-08
2.04879e-08
2.03664e-08
2.02283e-08
2.00738e-08
1.99028e-08
1.97154e-08
1.95116e-08
1.92916e-08
1.90555e-08
1.88035e-08
1.85356e-08
1.82521e-08
1.79533e-08
1.76395e-08
1.73109e-08
1.69678e-08
1.66107e-08
1.62399e-08
1.58559e-08
1.54591e-08
1.50501e-08
1.46293e-08
1.41974e-08
1.37548e-08
1.33024e-08
1.28407e-08
1.23704e-08
1.18923e-08
1.14071e-08
1.09156e-08
1.04187e-08
9.91723e-09
9.41206e-09
8.90413e-09
8.39443e-09
7.88396e-09
7.37377e-09
6.86496e-09
6.35867e-09
5.85609e-09
5.35848e-09
4.86717e-09
4.38357e-09
3.90918e-09
3.44564e-09
2.99472e-09
2.55841e-09
2.13893e-09
1.73887e-09
1.36131e-09
1.01006e-09
6.90142e-10
4.08687e-10
1.77275e-10
1.97065e-11
1.61219e-11
1.45046e-10
3.34501e-10
5.6517e-10
8.27768e-10
1.11667e-09
1.428e-09
1.75888e-09
2.10706e-09
2.47068e-09
2.84819e-09
3.23826e-09
3.63971e-09
4.05149e-09
4.47266e-09
4.90234e-09
5.33973e-09
5.78406e-09
6.23463e-09
6.69075e-09
7.15177e-09
7.61706e-09
8.08602e-09
8.55805e-09
9.03257e-09
9.50901e-09
9.98681e-09
1.04654e-08
1.09443e-08
1.1423e-08
1.19008e-08
1.23774e-08
1.28521e-08
1.33244e-08
1.37939e-08
1.426e-08
1.47223e-08
1.51801e-08
1.56331e-08
1.60808e-08
1.65226e-08
1.69581e-08
1.73867e-08
1.78081e-08
1.82217e-08
1.86272e-08
1.90239e-08
1.94115e-08
1.97895e-08
2.01575e-08
2.0515e-08
2.08617e-08
2.11969e-08
2.15205e-08
2.18318e-08
2.21306e-08
2.24164e-08
2.26888e-08
2.29474e-08
2.31919e-08
2.34219e-08
2.36369e-08
2.38366e-08
2.40208e-08
2.4189e-08
2.43408e-08
2.44761e-08
2.45944e-08
2.46955e-08
2.47791e-08
2.48449e-08
2.48926e-08
2.4922e-08
2.49329e-08
2.49251e-08
2.48983e-08
2.48523e-08
2.47871e-08
2.47024e-08
2.45982e-08
2.44743e-08
2.43308e-08
2.41675e-08
2.39845e-08
2.37818e-08
2.35593e-08
2.33173e-08
2.30558e-08
2.27749e-08
2.24748e-08
2.21557e-08
2.1818e-08
2.14618e-08
2.10874e-08
2.06954e-08
2.02859e-08
1.98596e-08
1.94168e-08
1.89581e-08
1.8484e-08
1.79951e-08
1.74922e-08
1.69758e-08
1.64466e-08
1.59055e-08
1.53532e-08
1.47907e-08
1.42186e-08
1.36381e-08
1.305e-08
1.24553e-08
1.18551e-08
1.12506e-08
1.06427e-08
1.00326e-08
9.42171e-09
8.81114e-09
8.20225e-09
7.59643e-09
6.99511e-09
6.39981e-09
5.81214e-09
5.23378e-09
4.66657e-09
4.11245e-09
3.57358e-09
3.05231e-09
2.55132e-09
2.07369e-09
1.62309e-09
1.20405e-09
8.2254e-10
4.87013e-10
2.11225e-10
2.34791e-11
1.86959e-11
1.68211e-10
3.87955e-10
6.55559e-10
9.60283e-10
1.29562e-09
1.65711e-09
2.04141e-09
2.44591e-09
2.86847e-09
3.3073e-09
3.76083e-09
4.22771e-09
4.70671e-09
5.19673e-09
5.69675e-09
6.20582e-09
6.72307e-09
7.24766e-09
7.77879e-09
8.31571e-09
8.85768e-09
9.40399e-09
9.95396e-09
1.05069e-08
1.10622e-08
1.16191e-08
1.2177e-08
1.27354e-08
1.32935e-08
1.38508e-08
1.44066e-08
1.49604e-08
1.55115e-08
1.60594e-08
1.66034e-08
1.7143e-08
1.76775e-08
1.82065e-08
1.87294e-08
1.92455e-08
1.97543e-08
2.02553e-08
2.07479e-08
2.12315e-08
2.17056e-08
2.21697e-08
2.26233e-08
2.30658e-08
2.34966e-08
2.39154e-08
2.43215e-08
2.47145e-08
2.50938e-08
2.5459e-08
2.58097e-08
2.61453e-08
2.64653e-08
2.67693e-08
2.70569e-08
2.73276e-08
2.75809e-08
2.78165e-08
2.80339e-08
2.82327e-08
2.84126e-08
2.85731e-08
2.87138e-08
2.88345e-08
2.89347e-08
2.90141e-08
2.90725e-08
2.91094e-08
2.91247e-08
2.91181e-08
2.90895e-08
2.90383e-08
2.89646e-08
2.88681e-08
2.87487e-08
2.86063e-08
2.84409e-08
2.82522e-08
2.80405e-08
2.78055e-08
2.75475e-08
2.72664e-08
2.69624e-08
2.66356e-08
2.62863e-08
2.59147e-08
2.55211e-08
2.51058e-08
2.46691e-08
2.42115e-08
2.37335e-08
2.32356e-08
2.27183e-08
2.21822e-08
2.1628e-08
2.10564e-08
2.04682e-08
1.98641e-08
1.9245e-08
1.86118e-08
1.79654e-08
1.73069e-08
1.66372e-08
1.59575e-08
1.52689e-08
1.45725e-08
1.38697e-08
1.31617e-08
1.24497e-08
1.17353e-08
1.10199e-08
1.03048e-08
9.59183e-09
8.88246e-09
8.17843e-09
7.48154e-09
6.79366e-09
6.1168e-09
5.45311e-09
4.80487e-09
4.17461e-09
3.5651e-09
2.97946e-09
2.42129e-09
1.89486e-09
1.40546e-09
9.6e-10
5.68337e-10
2.46476e-10
2.73963e-11
2.13088e-11
1.91725e-10
4.42214e-10
7.47306e-10
1.09478e-09
1.47726e-09
1.88964e-09
2.32816e-09
2.78984e-09
3.27225e-09
3.77334e-09
4.29133e-09
4.82468e-09
5.37198e-09
5.93198e-09
6.50351e-09
7.08549e-09
7.67692e-09
8.27683e-09
8.88432e-09
9.49853e-09
1.01186e-08
1.07437e-08
1.13731e-08
1.2006e-08
1.26417e-08
1.32794e-08
1.39183e-08
1.45578e-08
1.51971e-08
1.58355e-08
1.64724e-08
1.71071e-08
1.77388e-08
1.83669e-08
1.89907e-08
1.96095e-08
2.02227e-08
2.08297e-08
2.14297e-08
2.20221e-08
2.26063e-08
2.31816e-08
2.37474e-08
2.43031e-08
2.48481e-08
2.53816e-08
2.59032e-08
2.64122e-08
2.69081e-08
2.73901e-08
2.78579e-08
2.83106e-08
2.87479e-08
2.91691e-08
2.95737e-08
2.99611e-08
3.03308e-08
3.06822e-08
3.10149e-08
3.13283e-08
3.16219e-08
3.18952e-08
3.21477e-08
3.2379e-08
3.25886e-08
3.2776e-08
3.29408e-08
3.30826e-08
3.32009e-08
3.32955e-08
3.33658e-08
3.34116e-08
3.34326e-08
3.34283e-08
3.33988e-08
3.33433e-08
3.32619e-08
3.31542e-08
3.30203e-08
3.28598e-08
3.26727e-08
3.2459e-08
3.22185e-08
3.19512e-08
3.16573e-08
3.13368e-08
3.09899e-08
3.06166e-08
3.02173e-08
2.97921e-08
2.93415e-08
2.88658e-08
2.83653e-08
2.78407e-08
2.72924e-08
2.6721e-08
2.61271e-08
2.55116e-08
2.4875e-08
2.42182e-08
2.35421e-08
2.28477e-08
2.21358e-08
2.14076e-08
2.06641e-08
1.99065e-08
1.9136e-08
1.83538e-08
1.75614e-08
1.67599e-08
1.5951e-08
1.5136e-08
1.43165e-08
1.34942e-08
1.26706e-08
1.18476e-08
1.1027e-08
1.02106e-08
9.40041e-09
8.59852e-09
7.80711e-09
7.02849e-09
6.26514e-09
5.5197e-09
4.79507e-09
4.09445e-09
3.42142e-09
2.78011e-09
2.17541e-09
1.61336e-09
1.1019e-09
6.52291e-10
2.82868e-10
3.14404e-11
2.39437e-11
2.15438e-10
4.96928e-10
8.3982e-10
1.2304e-09
1.6604e-09
2.1241e-09
2.61729e-09
3.13662e-09
3.67938e-09
4.24326e-09
4.82628e-09
5.42668e-09
6.04291e-09
6.67354e-09
7.31726e-09
7.97287e-09
8.63922e-09
9.31524e-09
9.99991e-09
1.06923e-08
1.13913e-08
1.20962e-08
1.2806e-08
1.35199e-08
1.42369e-08
1.49564e-08
1.56774e-08
1.63991e-08
1.71208e-08
1.78416e-08
1.85609e-08
1.92777e-08
1.99913e-08
2.07009e-08
2.14059e-08
2.21054e-08
2.27988e-08
2.34851e-08
2.41638e-08
2.48341e-08
2.54952e-08
2.61465e-08
2.67872e-08
2.74167e-08
2.80341e-08
2.86389e-08
2.92303e-08
2.98076e-08
3.03702e-08
3.09174e-08
3.14486e-08
3.1963e-08
3.246e-08
3.29391e-08
3.33995e-08
3.38406e-08
3.42619e-08
3.46626e-08
3.50423e-08
3.54003e-08
3.5736e-08
3.60489e-08
3.63383e-08
3.66039e-08
3.6845e-08
3.7061e-08
3.72516e-08
3.74162e-08
3.75543e-08
3.76655e-08
3.77493e-08
3.78054e-08
3.78333e-08
3.78327e-08
3.78034e-08
3.77448e-08
3.76567e-08
3.75388e-08
3.73911e-08
3.72132e-08
3.70051e-08
3.67667e-08
3.64978e-08
3.61986e-08
3.58689e-08
3.5509e-08
3.51189e-08
3.46988e-08
3.42489e-08
3.37697e-08
3.32613e-08
3.27243e-08
3.21591e-08
3.15662e-08
3.09463e-08
3.03e-08
2.96281e-08
2.89312e-08
2.82104e-08
2.74665e-08
2.67005e-08
2.59134e-08
2.51065e-08
2.42808e-08
2.34376e-08
2.25783e-08
2.17043e-08
2.08169e-08
1.99177e-08
1.90082e-08
1.80902e-08
1.71652e-08
1.62352e-08
1.53019e-08
1.43672e-08
1.34332e-08
1.25019e-08
1.15754e-08
1.06561e-08
9.74628e-09
8.84844e-09
7.96523e-09
7.09944e-09
6.25411e-09
5.43252e-09
4.63829e-09
3.87547e-09
3.14874e-09
2.46363e-09
1.82696e-09
1.24769e-09
7.38548e-10
3.2026e-10
3.55956e-11
2.65854e-11
2.3921e-10
5.5178e-10
9.32562e-10
1.36636e-09
1.84398e-09
2.35913e-09
2.90711e-09
3.48423e-09
4.08748e-09
4.71431e-09
5.36251e-09
6.03016e-09
6.71551e-09
7.417e-09
8.13315e-09
8.86265e-09
9.60421e-09
1.03567e-08
1.11188e-08
1.18897e-08
1.26681e-08
1.34532e-08
1.42438e-08
1.50392e-08
1.58382e-08
1.664e-08
1.74436e-08
1.82483e-08
1.9053e-08
1.98569e-08
2.06592e-08
2.14589e-08
2.22553e-08
2.30474e-08
2.38345e-08
2.46157e-08
2.53901e-08
2.61569e-08
2.69154e-08
2.76647e-08
2.8404e-08
2.91324e-08
2.98493e-08
3.05538e-08
3.12451e-08
3.19224e-08
3.25851e-08
3.32322e-08
3.38631e-08
3.4477e-08
3.50732e-08
3.56509e-08
3.62094e-08
3.6748e-08
3.72659e-08
3.77625e-08
3.82371e-08
3.86889e-08
3.91174e-08
3.95218e-08
3.99014e-08
4.02556e-08
4.05839e-08
4.08855e-08
4.11598e-08
4.14063e-08
4.16244e-08
4.18135e-08
4.19731e-08
4.21026e-08
4.22015e-08
4.22694e-08
4.23058e-08
4.23103e-08
4.22827e-08
4.22222e-08
4.21286e-08
4.20017e-08
4.18412e-08
4.16469e-08
4.14187e-08
4.11563e-08
4.08597e-08
4.0529e-08
4.0164e-08
3.97649e-08
3.93318e-08
3.88649e-08
3.83645e-08
3.78309e-08
3.72645e-08
3.66657e-08
3.6035e-08
3.53731e-08
3.46807e-08
3.39584e-08
3.32072e-08
3.24278e-08
3.16213e-08
3.07886e-08
2.9931e-08
2.90495e-08
2.81456e-08
2.72204e-08
2.62755e-08
2.53123e-08
2.43324e-08
2.33374e-08
2.23291e-08
2.13092e-08
2.02795e-08
1.92421e-08
1.81989e-08
1.7152e-08
1.61036e-08
1.50559e-08
1.40113e-08
1.29722e-08
1.19411e-08
1.09208e-08
9.91402e-09
8.92374e-09
7.95314e-09
7.00558e-09
6.08477e-09
5.19475e-09
4.34006e-09
3.52594e-09
2.75855e-09
2.04553e-09
1.39687e-09
8.26814e-10
3.58522e-10
3.98477e-11
2.92198e-11
2.62917e-10
6.06479e-10
1.02504e-09
1.50193e-09
2.02704e-09
2.59347e-09
3.19608e-09
3.83082e-09
4.49438e-09
5.18398e-09
5.89719e-09
6.6319e-09
7.38619e-09
8.15835e-09
8.94678e-09
9.75001e-09
1.05666e-08
1.13954e-08
1.2235e-08
1.30843e-08
1.3942e-08
1.48072e-08
1.56787e-08
1.65555e-08
1.74365e-08
1.83208e-08
1.92073e-08
2.0095e-08
2.09829e-08
2.18702e-08
2.27558e-08
2.36389e-08
2.45184e-08
2.53934e-08
2.6263e-08
2.71264e-08
2.79825e-08
2.88305e-08
2.96694e-08
3.04985e-08
3.13167e-08
3.21232e-08
3.29171e-08
3.36977e-08
3.44639e-08
3.52149e-08
3.59499e-08
3.66681e-08
3.73685e-08
3.80505e-08
3.8713e-08
3.93554e-08
3.99768e-08
4.05764e-08
4.11535e-08
4.17071e-08
4.22367e-08
4.27413e-08
4.32202e-08
4.36726e-08
4.4098e-08
4.44954e-08
4.48641e-08
4.52036e-08
4.5513e-08
4.57918e-08
4.60392e-08
4.62546e-08
4.64373e-08
4.65869e-08
4.67027e-08
4.67841e-08
4.68306e-08
4.68417e-08
4.68173e-08
4.67565e-08
4.66589e-08
4.65243e-08
4.63523e-08
4.61428e-08
4.58955e-08
4.56102e-08
4.52869e-08
4.49254e-08
4.45258e-08
4.40881e-08
4.36125e-08
4.30992e-08
4.25484e-08
4.19606e-08
4.1336e-08
4.06753e-08
3.99789e-08
3.92476e-08
3.84821e-08
3.76832e-08
3.68518e-08
3.59889e-08
3.50957e-08
3.41731e-08
3.32225e-08
3.22453e-08
3.12428e-08
3.02166e-08
2.91682e-08
2.80993e-08
2.70117e-08
2.59072e-08
2.47877e-08
2.36552e-08
2.25118e-08
2.13597e-08
2.02012e-08
1.90385e-08
1.78741e-08
1.67105e-08
1.55503e-08
1.43963e-08
1.32514e-08
1.21184e-08
1.10005e-08
9.90106e-09
8.82357e-09
7.77178e-09
6.7498e-09
5.76211e-09
4.81376e-09
3.91053e-09
3.05925e-09
2.26839e-09
1.54899e-09
9.16816e-10
3.97538e-10
4.41835e-11
3.18343e-11
2.86445e-10
6.60764e-10
1.11683e-09
1.63646e-09
2.2087e-09
2.82602e-09
3.48283e-09
4.17473e-09
4.89813e-09
5.65e-09
6.42771e-09
7.22896e-09
8.05168e-09
8.89399e-09
9.75417e-09
1.06306e-08
1.15218e-08
1.24263e-08
1.33428e-08
1.427e-08
1.52067e-08
1.61516e-08
1.71035e-08
1.80614e-08
1.9024e-08
1.99904e-08
2.09594e-08
2.19299e-08
2.29009e-08
2.38714e-08
2.48402e-08
2.58064e-08
2.6769e-08
2.7727e-08
2.86793e-08
2.96249e-08
3.05629e-08
3.14923e-08
3.24121e-08
3.33212e-08
3.42189e-08
3.5104e-08
3.59756e-08
3.68328e-08
3.76746e-08
3.85001e-08
3.93084e-08
4.00985e-08
4.08695e-08
4.16206e-08
4.23507e-08
4.3059e-08
4.37445e-08
4.44065e-08
4.50441e-08
4.56562e-08
4.62422e-08
4.68011e-08
4.73321e-08
4.78344e-08
4.8307e-08
4.87493e-08
4.91604e-08
4.95395e-08
4.98858e-08
5.01986e-08
5.04772e-08
5.07207e-08
5.09286e-08
5.11e-08
5.12344e-08
5.13311e-08
5.13896e-08
5.14092e-08
5.13896e-08
5.13301e-08
5.12301e-08
5.10893e-08
5.09074e-08
5.06841e-08
5.04191e-08
5.01121e-08
4.97631e-08
4.9372e-08
4.89387e-08
4.84633e-08
4.7946e-08
4.73869e-08
4.67863e-08
4.61446e-08
4.54622e-08
4.47397e-08
4.39777e-08
4.31768e-08
4.2338e-08
4.14622e-08
4.05502e-08
3.96032e-08
3.86225e-08
3.76092e-08
3.65648e-08
3.54907e-08
3.43886e-08
3.326e-08
3.21068e-08
3.09308e-08
2.9734e-08
2.85183e-08
2.7286e-08
2.60393e-08
2.47805e-08
2.35119e-08
2.22362e-08
2.09558e-08
1.96735e-08
1.83922e-08
1.71146e-08
1.58438e-08
1.45831e-08
1.33356e-08
1.21048e-08
1.08944e-08
9.70827e-09
8.55054e-09
7.42573e-09
6.33878e-09
5.29523e-09
4.30143e-09
3.3649e-09
2.49491e-09
1.70361e-09
1.0083e-09
4.37197e-10
4.85909e-11
3.44178e-11
3.09692e-10
7.14401e-10
1.20751e-09
1.76938e-09
2.38817e-09
3.05576e-09
3.7661e-09
4.51447e-09
5.29697e-09
6.11035e-09
6.95177e-09
7.81875e-09
8.70906e-09
9.62067e-09
1.05517e-08
1.15005e-08
1.24654e-08
1.34448e-08
1.44374e-08
1.54417e-08
1.64564e-08
1.74801e-08
1.85117e-08
1.95499e-08
2.05934e-08
2.16412e-08
2.2692e-08
2.37447e-08
2.47981e-08
2.58511e-08
2.69027e-08
2.79517e-08
2.8997e-08
3.00375e-08
3.10721e-08
3.20999e-08
3.31196e-08
3.41302e-08
3.51308e-08
3.61201e-08
3.70973e-08
3.80611e-08
3.90107e-08
3.99449e-08
4.08628e-08
4.17634e-08
4.26455e-08
4.35082e-08
4.43506e-08
4.51715e-08
4.59701e-08
4.67453e-08
4.74961e-08
4.82217e-08
4.89209e-08
4.95929e-08
5.02367e-08
5.08514e-08
5.1436e-08
5.19896e-08
5.25113e-08
5.30001e-08
5.34552e-08
5.38758e-08
5.42608e-08
5.46095e-08
5.49211e-08
5.51946e-08
5.54294e-08
5.56247e-08
5.57796e-08
5.58936e-08
5.59658e-08
5.59957e-08
5.59828e-08
5.59265e-08
5.58258e-08
5.56806e-08
5.54905e-08
5.52549e-08
5.49737e-08
5.46466e-08
5.42734e-08
5.38539e-08
5.33882e-08
5.28762e-08
5.23181e-08
5.17141e-08
5.10645e-08
5.03696e-08
4.963e-08
4.88462e-08
4.80188e-08
4.71487e-08
4.62367e-08
4.52839e-08
4.42912e-08
4.32599e-08
4.21913e-08
4.10869e-08
3.9948e-08
3.87764e-08
3.75738e-08
3.6342e-08
3.5083e-08
3.37988e-08
3.24916e-08
3.11636e-08
2.98172e-08
2.84549e-08
2.70792e-08
2.56927e-08
2.42983e-08
2.28988e-08
2.14971e-08
2.00964e-08
1.86999e-08
1.73108e-08
1.59327e-08
1.45692e-08
1.3224e-08
1.19011e-08
1.06049e-08
9.33981e-09
8.11079e-09
6.92324e-09
5.78321e-09
4.69763e-09
3.67468e-09
2.7245e-09
1.86032e-09
1.10103e-09
4.77395e-10
5.3058e-11
3.69601e-11
3.32569e-10
7.67183e-10
1.29674e-09
1.90017e-09
2.56476e-09
3.28179e-09
4.0448e-09
4.8487e-09
5.68934e-09
6.56321e-09
7.46729e-09
8.39892e-09
9.35571e-09
1.03355e-08
1.13363e-08
1.23563e-08
1.33937e-08
1.44469e-08
1.55143e-08
1.65945e-08
1.7686e-08
1.87875e-08
1.98976e-08
2.10149e-08
2.21382e-08
2.32663e-08
2.43979e-08
2.55317e-08
2.66666e-08
2.78013e-08
2.89347e-08
3.00656e-08
3.11928e-08
3.23152e-08
3.34315e-08
3.45407e-08
3.56417e-08
3.67332e-08
3.78141e-08
3.88834e-08
3.99398e-08
4.09823e-08
4.20098e-08
4.30212e-08
4.40153e-08
4.4991e-08
4.59473e-08
4.68831e-08
4.77973e-08
4.86888e-08
4.95566e-08
5.03995e-08
5.12165e-08
5.20066e-08
5.27686e-08
5.35016e-08
5.42045e-08
5.48763e-08
5.55159e-08
5.61223e-08
5.66945e-08
5.72316e-08
5.77324e-08
5.81961e-08
5.86216e-08
5.90081e-08
5.93545e-08
5.96601e-08
5.99238e-08
6.01448e-08
6.03223e-08
6.04554e-08
6.05434e-08
6.05856e-08
6.05813e-08
6.05302e-08
6.04308e-08
6.0283e-08
6.00864e-08
5.98405e-08
5.95448e-08
5.91992e-08
5.88033e-08
5.8357e-08
5.78603e-08
5.73131e-08
5.67155e-08
5.60678e-08
5.53703e-08
5.46232e-08
5.38272e-08
5.29828e-08
5.20907e-08
5.11518e-08
5.01671e-08
4.91375e-08
4.80643e-08
4.69487e-08
4.57923e-08
4.45964e-08
4.33628e-08
4.20933e-08
4.07898e-08
3.94542e-08
3.80887e-08
3.66956e-08
3.52772e-08
3.3836e-08
3.23746e-08
3.08956e-08
2.9402e-08
2.78965e-08
2.63823e-08
2.48624e-08
2.33402e-08
2.1819e-08
2.03022e-08
1.87936e-08
1.72969e-08
1.58161e-08
1.43552e-08
1.29187e-08
1.15112e-08
1.01376e-08
8.80326e-09
7.51403e-09
6.27648e-09
5.09812e-09
3.98784e-09
2.95659e-09
2.01874e-09
1.19476e-09
5.1803e-10
5.75739e-11
3.94526e-11
3.54998e-10
8.18928e-10
1.38422e-09
2.02838e-09
2.73786e-09
3.50335e-09
4.31797e-09
5.17629e-09
6.07389e-09
7.00703e-09
7.97251e-09
8.96748e-09
9.98941e-09
1.1036e-08
1.21051e-08
1.31948e-08
1.43033e-08
1.54288e-08
1.65697e-08
1.77243e-08
1.88912e-08
2.00689e-08
2.1256e-08
2.24511e-08
2.36528e-08
2.48598e-08
2.60707e-08
2.72844e-08
2.84994e-08
2.97145e-08
3.09286e-08
3.21402e-08
3.33482e-08
3.45514e-08
3.57485e-08
3.69383e-08
3.81196e-08
3.92911e-08
4.04518e-08
4.16004e-08
4.27356e-08
4.38564e-08
4.49614e-08
4.60497e-08
4.71198e-08
4.81708e-08
4.92014e-08
5.02104e-08
5.11968e-08
5.21592e-08
5.30966e-08
5.40078e-08
5.48917e-08
5.57471e-08
5.65729e-08
5.73679e-08
5.8131e-08
5.88611e-08
5.9557e-08
6.02176e-08
6.08419e-08
6.14287e-08
6.19769e-08
6.24854e-08
6.29532e-08
6.33792e-08
6.37624e-08
6.41018e-08
6.43964e-08
6.46452e-08
6.48472e-08
6.50016e-08
6.51075e-08
6.5164e-08
6.51704e-08
6.51264e-08
6.50304e-08
6.48821e-08
6.4681e-08
6.44266e-08
6.41184e-08
6.37561e-08
6.33394e-08
6.2868e-08
6.23419e-08
6.1761e-08
6.11255e-08
6.04355e-08
5.96913e-08
5.88932e-08
5.80419e-08
5.71379e-08
5.61821e-08
5.51752e-08
5.41183e-08
5.30126e-08
5.18593e-08
5.06599e-08
4.94158e-08
4.81287e-08
4.68005e-08
4.5433e-08
4.40283e-08
4.25887e-08
4.11164e-08
3.9614e-08
3.80839e-08
3.65289e-08
3.49518e-08
3.33555e-08
3.17432e-08
3.01179e-08
2.8483e-08
2.6842e-08
2.51983e-08
2.35556e-08
2.19177e-08
2.02886e-08
1.86724e-08
1.70733e-08
1.54959e-08
1.39448e-08
1.24251e-08
1.09421e-08
9.50151e-09
8.10975e-09
6.77387e-09
5.50196e-09
4.30361e-09
3.19062e-09
2.17849e-09
1.28929e-09
5.59007e-10
6.21277e-11
4.18881e-11
3.76914e-10
8.69488e-10
1.46969e-09
2.15365e-09
2.90697e-09
3.7198e-09
4.58481e-09
5.49627e-09
6.44949e-09
7.4405e-09
8.46591e-09
9.52272e-09
1.06082e-08
1.172e-08
1.28559e-08
1.40137e-08
1.51916e-08
1.63877e-08
1.76002e-08
1.88276e-08
2.00681e-08
2.13204e-08
2.25828e-08
2.38539e-08
2.51322e-08
2.64164e-08
2.77051e-08
2.8997e-08
3.02905e-08
3.15845e-08
3.28777e-08
3.41686e-08
3.5456e-08
3.67386e-08
3.80151e-08