/*--------------------------------*- C++ -*----------------------------------*\
  =========                 |
  \\      /  F ield         | OpenFOAM: The Open Source CFD Toolbox
   \\    /   O peration     | Website:  https://openfoam.org
    \\  /    A nd           | Version:  12
     \\/     M anipulation  |
\*---------------------------------------------------------------------------*/
FoamFile
{
    format      ascii;
    class       volScalarField;
    location    "10";
    object      p;
}
// * * * * * * * * * * * * * * * * * * * * * * * * * * * * * * * * * * * * * //

dimensions      [0 2 -2 0 0 0 0];

internalField   nonuniform List<scalar> 
18225
(
-1.64397e-09
-1.61806e-07
-1.88914e-07
3.30856e-08
5.04469e-07
1.2185e-06
2.15883e-06
3.30873e-06
4.64486e-06
6.1446e-06
7.78261e-06
9.53583e-06
1.13803e-05
1.32944e-05
1.52563e-05
1.72467e-05
1.92461e-05
2.12373e-05
2.32035e-05
2.51295e-05
2.70007e-05
2.8804e-05
3.05268e-05
3.2158e-05
3.3687e-05
3.51043e-05
3.64011e-05
3.75697e-05
3.86029e-05
3.94946e-05
4.02394e-05
4.08323e-05
4.12696e-05
4.15479e-05
4.16648e-05
4.16181e-05
4.14068e-05
4.10301e-05
4.04882e-05
3.97815e-05
3.89113e-05
3.78792e-05
3.66874e-05
3.53386e-05
3.38361e-05
3.21834e-05
3.03846e-05
2.84442e-05
2.6367e-05
2.41582e-05
2.18233e-05
1.93681e-05
1.67988e-05
1.41216e-05
1.13432e-05
8.4703e-06
5.50987e-06
2.46902e-06
-6.45049e-07
-3.82498e-06
-7.06337e-06
-1.03527e-05
-1.36855e-05
-1.70542e-05
-2.04513e-05
-2.38692e-05
-2.73005e-05
-3.07377e-05
-3.41734e-05
-3.76003e-05
-4.10112e-05
-4.43991e-05
-4.77569e-05
-5.10779e-05
-5.43552e-05
-5.75823e-05
-6.07527e-05
-6.38604e-05
-6.6899e-05
-6.98628e-05
-7.2746e-05
-7.55431e-05
-7.82487e-05
-8.08578e-05
-8.33653e-05
-8.57666e-05
-8.80571e-05
-9.02325e-05
-9.22889e-05
-9.42223e-05
-9.60292e-05
-9.77063e-05
-9.92503e-05
-0.000100659
-0.000101929
-0.000103058
-0.000104044
-0.000104887
-0.000105583
-0.000106133
-0.000106536
-0.00010679
-0.000106898
-0.000106858
-0.000106672
-0.000106342
-0.000105869
-0.000105256
-0.000104507
-0.000103624
-0.000102614
-0.00010148
-0.00010023
-9.88699e-05
-9.74081e-05
-9.58536e-05
-9.42168e-05
-9.25091e-05
-9.07433e-05
-8.89336e-05
-8.70961e-05
-8.52482e-05
-8.34093e-05
-8.16007e-05
-7.98456e-05
-7.81692e-05
-7.65988e-05
-7.51632e-05
-7.38922e-05
-7.28164e-05
-7.19643e-05
-7.13633e-05
-7.10407e-05
-7.10064e-05
-7.11534e-05
1.06567e-08
-1.72183e-07
-2.18314e-07
-2.50642e-08
3.94833e-07
1.02332e-06
1.84406e-06
2.84256e-06
4.00017e-06
5.29864e-06
6.71777e-06
8.23861e-06
9.84133e-06
1.15077e-05
1.32193e-05
1.49591e-05
1.67102e-05
1.84575e-05
2.01857e-05
2.18812e-05
2.35308e-05
2.51223e-05
2.66444e-05
2.80865e-05
2.94388e-05
3.06924e-05
3.18391e-05
3.28715e-05
3.37829e-05
3.45672e-05
3.52193e-05
3.57345e-05
3.61089e-05
3.63394e-05
3.64233e-05
3.63586e-05
3.6144e-05
3.57787e-05
3.52624e-05
3.45956e-05
3.3779e-05
3.28141e-05
3.17027e-05
3.04471e-05
2.90502e-05
2.75152e-05
2.58456e-05
2.40455e-05
2.21191e-05
2.00712e-05
1.79068e-05
1.56311e-05
1.32498e-05
1.07685e-05
8.19328e-06
5.53039e-06
2.78615e-06
-3.28829e-08
-2.92009e-06
-5.8687e-06
-8.8719e-06
-1.19227e-05
-1.50143e-05
-1.81396e-05
-2.12917e-05
-2.44636e-05
-2.76483e-05
-3.0839e-05
-3.40288e-05
-3.72109e-05
-4.03786e-05
-4.35254e-05
-4.66446e-05
-4.97301e-05
-5.27754e-05
-5.57745e-05
-5.87213e-05
-6.16102e-05
-6.44353e-05
-6.71913e-05
-6.98726e-05
-7.24744e-05
-7.49914e-05
-7.74191e-05
-7.97528e-05
-8.19882e-05
-8.4121e-05
-8.61475e-05
-8.80637e-05
-8.98662e-05
-9.15519e-05
-9.31175e-05
-9.45603e-05
-9.58779e-05
-9.70679e-05
-9.81283e-05
-9.90575e-05
-9.9854e-05
-0.000100517
-0.000101045
-0.000101438
-0.000101697
-0.000101821
-0.000101811
-0.000101668
-0.000101395
-0.000100992
-0.000100464
-9.98129e-05
-9.90429e-05
-9.81587e-05
-9.71654e-05
-9.60691e-05
-9.48766e-05
-9.35957e-05
-9.22348e-05
-9.08038e-05
-8.93131e-05
-8.77746e-05
-8.62013e-05
-8.46074e-05
-8.30084e-05
-8.14214e-05
-7.98645e-05
-7.83573e-05
-7.69209e-05
-7.55774e-05
-7.43498e-05
-7.32622e-05
-7.23378e-05
-7.15994e-05
-7.10701e-05
-7.07779e-05
-7.07414e-05
-7.08703e-05
-9.3648e-07
-1.0782e-06
-1.08418e-06
-8.68336e-07
-4.51054e-07
1.45663e-07
9.05568e-07
1.81556e-06
2.86009e-06
4.02418e-06
5.29122e-06
6.64571e-06
8.07119e-06
9.55242e-06
1.10736e-05
1.26204e-05
1.4178e-05
1.5733e-05
1.72721e-05
1.87831e-05
2.02541e-05
2.16741e-05
2.30326e-05
2.43201e-05
2.55274e-05
2.66464e-05
2.76693e-05
2.85893e-05
2.93999e-05
3.00956e-05
3.06713e-05
3.11227e-05
3.1446e-05
3.16379e-05
3.16961e-05
3.16184e-05
3.14035e-05
3.10504e-05
3.05588e-05
2.99289e-05
2.91614e-05
2.82573e-05
2.72183e-05
2.60464e-05
2.4744e-05
2.33141e-05
2.17598e-05
2.00848e-05
1.8293e-05
1.63886e-05
1.43763e-05
1.22608e-05
1.00472e-05
7.74078e-06
5.34715e-06
2.87199e-06
3.21149e-07
-2.29932e-06
-4.98332e-06
-7.72456e-06
-1.05167e-05
-1.33534e-05
-1.62283e-05
-1.91347e-05
-2.20663e-05
-2.50165e-05
-2.7979e-05
-3.09473e-05
-3.3915e-05
-3.68758e-05
-3.98236e-05
-4.27521e-05
-4.56553e-05
-4.85273e-05
-5.13621e-05
-5.41543e-05
-5.6898e-05
-5.9588e-05
-6.22189e-05
-6.47858e-05
-6.72834e-05
-6.97072e-05
-7.20525e-05
-7.4315e-05
-7.64902e-05
-7.85743e-05
-8.05634e-05
-8.24539e-05
-8.42423e-05
-8.59254e-05
-8.75004e-05
-8.89643e-05
-9.03147e-05
-9.15494e-05
-9.26663e-05
-9.36637e-05
-9.45402e-05
-9.52946e-05
-9.59259e-05
-9.64337e-05
-9.68177e-05
-9.70781e-05
-9.72154e-05
-9.72304e-05
-9.71245e-05
-9.68995e-05
-9.65575e-05
-9.61013e-05
-9.55341e-05
-9.48597e-05
-9.40825e-05
-9.32075e-05
-9.22405e-05
-9.11878e-05
-9.00566e-05
-8.88548e-05
-8.75912e-05
-8.62755e-05
-8.49182e-05
-8.35308e-05
-8.21258e-05
-8.07166e-05
-7.93177e-05
-7.79444e-05
-7.66129e-05
-7.53405e-05
-7.41448e-05
-7.30442e-05
-7.20574e-05
-7.12026e-05
-7.0498e-05
-6.99626e-05
-6.96216e-05
-6.94959e-05
-6.95242e-05
-2.93832e-06
-2.9547e-06
-2.8384e-06
-2.53471e-06
-2.06032e-06
-1.43352e-06
-6.68723e-07
2.22537e-07
1.22671e-06
2.33115e-06
3.52187e-06
4.78584e-06
6.10912e-06
7.4788e-06
8.88135e-06
1.03043e-05
1.17349e-05
1.31615e-05
1.45721e-05
1.5956e-05
1.73024e-05
1.86017e-05
1.98441e-05
2.10211e-05
2.21243e-05
2.31461e-05
2.40794e-05
2.49178e-05
2.56554e-05
2.62868e-05
2.68075e-05
2.72133e-05
2.75005e-05
2.76661e-05
2.77078e-05
2.76235e-05
2.74119e-05
2.7072e-05
2.66034e-05
2.60062e-05
2.52809e-05
2.44286e-05
2.34506e-05
2.23487e-05
2.11252e-05
1.97828e-05
1.83243e-05
1.67531e-05
1.50728e-05
1.32874e-05
1.1401e-05
9.41829e-06
7.34382e-06
5.18259e-06
2.93973e-06
6.20583e-07
-1.7694e-06
-4.22456e-06
-6.7392e-06
-9.30744e-06
-1.19234e-05
-1.45811e-05
-1.72745e-05
-1.99975e-05
-2.27441e-05
-2.55082e-05
-2.82838e-05
-3.10649e-05
-3.38454e-05
-3.66196e-05
-3.93815e-05
-4.21255e-05
-4.48457e-05
-4.75368e-05
-5.01932e-05
-5.28095e-05
-5.53806e-05
-5.79015e-05
-6.03671e-05
-6.27727e-05
-6.51137e-05
-6.73857e-05
-6.95843e-05
-7.17056e-05
-7.37454e-05
-7.57001e-05
-7.75661e-05
-7.93402e-05
-8.10191e-05
-8.25999e-05
-8.40798e-05
-8.54564e-05
-8.67274e-05
-8.78907e-05
-8.89446e-05
-8.98874e-05
-9.0718e-05
-9.14352e-05
-9.20384e-05
-9.25272e-05
-9.29013e-05
-9.31611e-05
-9.33072e-05
-9.33403e-05
-9.32619e-05
-9.30735e-05
-9.27775e-05
-9.23763e-05
-9.1873e-05
-9.12712e-05
-9.05748e-05
-8.97886e-05
-8.89178e-05
-8.79681e-05
-8.6946e-05
-8.58587e-05
-8.47138e-05
-8.352e-05
-8.22865e-05
-8.10232e-05
-7.97408e-05
-7.84508e-05
-7.71653e-05
-7.58971e-05
-7.46596e-05
-7.34668e-05
-7.2333e-05
-7.1273e-05
-7.03015e-05
-6.94332e-05
-6.8683e-05
-6.80656e-05
-6.75977e-05
-6.72934e-05
-6.71373e-05
-5.78556e-06
-5.61503e-06
-5.30946e-06
-4.85986e-06
-4.27556e-06
-3.56733e-06
-2.74628e-06
-1.8223e-06
-8.06595e-07
2.9033e-07
1.45684e-06
2.68206e-06
3.95425e-06
5.26248e-06
6.59519e-06
7.94171e-06
9.29095e-06
1.06327e-05
1.19566e-05
1.32531e-05
1.45125e-05
1.57263e-05
1.68858e-05
1.79831e-05
1.90106e-05
1.99615e-05
2.08292e-05
2.16078e-05
2.22919e-05
2.28766e-05
2.33574e-05
2.37306e-05
2.39929e-05
2.41412e-05
2.41734e-05
2.40876e-05
2.38824e-05
2.3557e-05
2.3111e-05
2.25443e-05
2.18575e-05
2.10514e-05
2.01274e-05
1.90871e-05
1.79327e-05
1.66665e-05
1.52914e-05
1.38104e-05
1.2227e-05
1.05448e-05
8.76776e-06
6.90016e-06
4.94642e-06
2.91119e-06
7.99282e-07
-1.38426e-06
-3.63432e-06
-5.94557e-06
-8.31264e-06
-1.073e-05
-1.31921e-05
-1.56933e-05
-1.82279e-05
-2.07903e-05
-2.33747e-05
-2.59754e-05
-2.85867e-05
-3.1203e-05
-3.38186e-05
-3.64281e-05
-3.90259e-05
-4.16067e-05
-4.4165e-05
-4.66957e-05
-4.91937e-05
-5.16539e-05
-5.40715e-05
-5.64419e-05
-5.87602e-05
-6.10221e-05
-6.32233e-05
-6.53597e-05
-6.74272e-05
-6.94221e-05
-7.13406e-05
-7.31794e-05
-7.49351e-05
-7.66047e-05
-7.81852e-05
-7.96739e-05
-8.10683e-05
-8.23661e-05
-8.35653e-05
-8.46639e-05
-8.56603e-05
-8.65531e-05
-8.73413e-05
-8.80237e-05
-8.86e-05
-8.90696e-05
-8.94325e-05
-8.9689e-05
-8.98396e-05
-8.98851e-05
-8.98268e-05
-8.96662e-05
-8.94054e-05
-8.90465e-05
-8.85926e-05
-8.80466e-05
-8.74123e-05
-8.66938e-05
-8.58957e-05
-8.50232e-05
-8.40818e-05
-8.30779e-05
-8.20181e-05
-8.09097e-05
-7.97607e-05
-7.85794e-05
-7.73749e-05
-7.61567e-05
-7.49348e-05
-7.37196e-05
-7.2522e-05
-7.13531e-05
-7.02244e-05
-6.91474e-05
-6.81336e-05
-6.71943e-05
-6.63412e-05
-6.55844e-05
-6.49301e-05
-6.43825e-05
-6.39858e-05
-9.28295e-06
-8.89074e-06
-8.35474e-06
-7.71875e-06
-6.98432e-06
-6.15368e-06
-5.23447e-06
-4.23488e-06
-3.16397e-06
-2.03033e-06
-8.43483e-07
3.87543e-07
1.65292e-06
2.94341e-06
4.2492e-06
5.56113e-06
6.86961e-06
8.16577e-06
9.44052e-06
1.06855e-05
1.18921e-05
1.30527e-05
1.41594e-05
1.52054e-05
1.61836e-05
1.70879e-05
1.79123e-05
1.86514e-05
1.93002e-05
1.98543e-05
2.03095e-05
2.06624e-05
2.09099e-05
2.10493e-05
2.10785e-05
2.09957e-05
2.07999e-05
2.049e-05
2.00658e-05
1.95273e-05
1.8875e-05
1.81097e-05
1.72328e-05
1.62458e-05
1.51507e-05
1.39499e-05
1.26459e-05
1.12417e-05
9.74066e-06
8.1462e-06
6.46211e-06
4.6924e-06
2.84129e-06
9.13229e-07
-1.08721e-06
-3.15525e-06
-5.28599e-06
-7.47439e-06
-9.71536e-06
-1.20036e-05
-1.43339e-05
-1.67009e-05
-1.90992e-05
-2.15233e-05
-2.3968e-05
-2.64278e-05
-2.88972e-05
-3.1371e-05
-3.38438e-05
-3.63104e-05
-3.87657e-05
-4.12044e-05
-4.36217e-05
-4.60126e-05
-4.83722e-05
-5.06959e-05
-5.29791e-05
-5.52175e-05
-5.74065e-05
-5.95422e-05
-6.16204e-05
-6.36374e-05
-6.55893e-05
-6.74727e-05
-6.9284e-05
-7.10203e-05
-7.26782e-05
-7.42551e-05
-7.57482e-05
-7.71549e-05
-7.8473e-05
-7.97004e-05
-8.08351e-05
-8.18754e-05
-8.28198e-05
-8.3667e-05
-8.44159e-05
-8.50658e-05
-8.5616e-05
-8.60662e-05
-8.64163e-05
-8.66665e-05
-8.68172e-05
-8.68693e-05
-8.68238e-05
-8.6682e-05
-8.64458e-05
-8.61171e-05
-8.56983e-05
-8.51922e-05
-8.46021e-05
-8.39313e-05
-8.3184e-05
-8.23646e-05
-8.14777e-05
-8.05288e-05
-7.95234e-05
-7.84677e-05
-7.73683e-05
-7.62321e-05
-7.50665e-05
-7.38793e-05
-7.26786e-05
-7.14726e-05
-7.02701e-05
-6.90797e-05
-6.79103e-05
-6.67706e-05
-6.56693e-05
-6.46151e-05
-6.36168e-05
-6.26804e-05
-6.18009e-05
-6.09737e-05
-6.03074e-05
-1.32586e-05
-1.26272e-05
-1.18375e-05
-1.09889e-05
-1.00757e-05
-9.09196e-06
-8.04207e-06
-6.93283e-06
-5.77154e-06
-4.56509e-06
-3.32122e-06
-2.04739e-06
-7.51792e-07
5.57776e-07
1.87297e-06
3.18594e-06
4.48842e-06
5.7727e-06
7.03081e-06
8.25536e-06
9.43887e-06
1.05744e-05
1.16551e-05
1.26746e-05
1.36267e-05
1.45059e-05
1.53066e-05
1.60241e-05
1.66538e-05
1.71915e-05
1.76337e-05
1.7977e-05
1.82187e-05
1.83564e-05
1.8388e-05
1.83122e-05
1.81278e-05
1.7834e-05
1.74307e-05
1.69179e-05
1.62961e-05
1.55663e-05
1.47297e-05
1.37879e-05
1.27428e-05
1.15968e-05
1.03523e-05
9.01231e-06
7.57993e-06
6.05856e-06
4.45187e-06
2.76371e-06
9.98168e-07
-8.40489e-07
-2.74785e-06
-4.7193e-06
-6.75017e-06
-8.83558e-06
-1.09707e-05
-1.31504e-05
-1.53697e-05
-1.76234e-05
-1.99064e-05
-2.22136e-05
-2.45398e-05
-2.68798e-05
-2.92284e-05
-3.15807e-05
-3.39315e-05
-3.62759e-05
-3.8609e-05
-4.09258e-05
-4.32217e-05
-4.54921e-05
-4.77324e-05
-4.99381e-05
-5.2105e-05
-5.42289e-05
-5.63058e-05
-5.83317e-05
-6.03028e-05
-6.22157e-05
-6.40666e-05
-6.58525e-05
-6.757e-05
-6.92163e-05
-7.07884e-05
-7.22836e-05
-7.36995e-05
-7.50338e-05
-7.62842e-05
-7.74489e-05
-7.8526e-05
-7.95138e-05
-8.04111e-05
-8.12166e-05
-8.19293e-05
-8.25483e-05
-8.30731e-05
-8.35034e-05
-8.3839e-05
-8.408e-05
-8.42268e-05
-8.428e-05
-8.42403e-05
-8.41091e-05
-8.38876e-05
-8.35776e-05
-8.31811e-05
-8.27005e-05
-8.21383e-05
-8.14976e-05
-8.07816e-05
-7.9994e-05
-7.91387e-05
-7.82201e-05
-7.72428e-05
-7.62118e-05
-7.51325e-05
-7.40104e-05
-7.28514e-05
-7.16618e-05
-7.04477e-05
-6.92159e-05
-6.79728e-05
-6.67252e-05
-6.54797e-05
-6.42428e-05
-6.30207e-05
-6.18199e-05
-6.06471e-05
-5.95046e-05
-5.83774e-05
-5.72526e-05
-5.63051e-05
-1.75691e-05
-1.66916e-05
-1.56365e-05
-1.45594e-05
-1.34481e-05
-1.22891e-05
-1.10841e-05
-9.83888e-06
-8.55939e-06
-7.25115e-06
-5.92042e-06
-4.57339e-06
-3.21688e-06
-1.85752e-06
-5.0238e-07
8.41754e-07
2.16776e-06
3.4689e-06
4.73822e-06
5.96919e-06
7.1552e-06
8.29008e-06
9.3677e-06
1.03824e-05
1.13286e-05
1.22012e-05
1.29954e-05
1.37068e-05
1.43312e-05
1.4865e-05
1.53048e-05
1.56477e-05
1.58912e-05
1.6033e-05
1.60716e-05
1.60056e-05
1.5834e-05
1.55562e-05
1.51723e-05
1.46823e-05
1.40869e-05
1.33869e-05
1.25839e-05
1.16792e-05
1.06751e-05
9.57357e-06
8.37735e-06
7.08925e-06
5.71236e-06
4.25005e-06
2.70589e-06
1.08369e-06
-6.12581e-07
-2.37875e-06
-4.21051e-06
-6.10339e-06
-8.05283e-06
-1.00541e-05
-1.21025e-05
-1.41931e-05
-1.63211e-05
-1.84814e-05
-2.06693e-05
-2.28795e-05
-2.51073e-05
-2.73475e-05
-2.95955e-05
-3.18461e-05
-3.40946e-05
-3.63363e-05
-3.85664e-05
-4.07804e-05
-4.29737e-05
-4.51419e-05
-4.72809e-05
-4.93862e-05
-5.1454e-05
-5.34801e-05
-5.54609e-05
-5.73927e-05
-5.92719e-05
-6.1095e-05
-6.2859e-05
-6.45605e-05
-6.61968e-05
-6.77649e-05
-6.92623e-05
-7.06864e-05
-7.20349e-05
-7.33055e-05
-7.44964e-05
-7.56055e-05
-7.66314e-05
-7.75723e-05
-7.84271e-05
-7.91945e-05
-7.98735e-05
-8.04634e-05
-8.09635e-05
-8.13734e-05
-8.16929e-05
-8.19221e-05
-8.2061e-05
-8.21102e-05
-8.20701e-05
-8.19418e-05
-8.17263e-05
-8.14249e-05
-8.10392e-05
-8.05712e-05
-8.00228e-05
-7.93964e-05
-7.86947e-05
-7.79206e-05
-7.70771e-05
-7.61679e-05
-7.51964e-05
-7.41667e-05
-7.30828e-05
-7.19493e-05
-7.07705e-05
-6.95514e-05
-6.82965e-05
-6.7011e-05
-6.56997e-05
-6.43676e-05
-6.30195e-05
-6.16599e-05
-6.02931e-05
-5.89239e-05
-5.75575e-05
-5.61931e-05
-5.48064e-05
-5.33778e-05
-5.21469e-05
-2.20983e-05
-2.09736e-05
-1.96485e-05
-1.83338e-05
-1.70119e-05
-1.56619e-05
-1.42837e-05
-1.28825e-05
-1.1463e-05
-1.00299e-05
-8.58819e-06
-7.14311e-06
-5.70039e-06
-4.26569e-06
-2.84508e-06
-1.44444e-06
-6.99537e-08
1.27246e-06
2.57668e-06
3.83695e-06
5.04738e-06
6.20249e-06
7.29679e-06
8.3252e-06
9.28274e-06
1.01648e-05
1.09671e-05
1.16856e-05
1.23166e-05
1.28567e-05
1.33031e-05
1.3653e-05
1.39042e-05
1.4055e-05
1.41036e-05
1.40492e-05
1.38909e-05
1.36283e-05
1.32615e-05
1.27908e-05
1.2217e-05
1.15411e-05
1.07645e-05
9.88893e-06
8.91643e-06
7.84932e-06
6.69019e-06
5.44194e-06
4.10765e-06
2.69071e-06
1.19467e-06
-3.76692e-07
-2.01944e-06
-3.72943e-06
-5.50244e-06
-7.33404e-06
-9.21977e-06
-1.1155e-05
-1.31351e-05
-1.51552e-05
-1.72107e-05
-1.92967e-05
-2.14083e-05
-2.35408e-05
-2.56893e-05
-2.7849e-05
-3.00153e-05
-3.21832e-05
-3.43483e-05
-3.65058e-05
-3.86515e-05
-4.07807e-05
-4.28893e-05
-4.49729e-05
-4.70277e-05
-4.90494e-05
-5.10343e-05
-5.29786e-05
-5.48788e-05
-5.67313e-05
-5.85328e-05
-6.02801e-05
-6.19702e-05
-6.36001e-05
-6.5167e-05
-6.66683e-05
-6.81016e-05
-6.94644e-05
-7.07546e-05
-7.19701e-05
-7.3109e-05
-7.41695e-05
-7.51501e-05
-7.60494e-05
-7.68659e-05
-7.75987e-05
-7.82466e-05
-7.88089e-05
-7.92849e-05
-7.96742e-05
-7.99763e-05
-8.01912e-05
-8.03189e-05
-8.03596e-05
-8.03136e-05
-8.01816e-05
-7.99642e-05
-7.96626e-05
-7.92777e-05
-7.8811e-05
-7.8264e-05
-7.76386e-05
-7.69366e-05
-7.61604e-05
-7.53121e-05
-7.43945e-05
-7.34103e-05
-7.23624e-05
-7.12539e-05
-7.00881e-05
-6.88683e-05
-6.7598e-05
-6.62807e-05
-6.49201e-05
-6.35194e-05
-6.20823e-05
-6.0612e-05
-5.91115e-05
-5.75836e-05
-5.60317e-05
-5.44599e-05
-5.28649e-05
-5.12144e-05
-4.94821e-05
-4.79714e-05
-2.67535e-05
-2.53835e-05
-2.37876e-05
-2.22305e-05
-2.06897e-05
-1.91378e-05
-1.75732e-05
-1.60005e-05
-1.4424e-05
-1.28476e-05
-1.12754e-05
-9.71202e-06
-8.16223e-06
-6.63101e-06
-5.12361e-06
-3.64522e-06
-2.20126e-06
-7.96974e-07
5.62223e-07
1.87118e-06
3.12464e-06
4.31771e-06
5.44545e-06
6.50331e-06
7.48677e-06
8.39178e-06
9.21432e-06
9.9509e-06
1.05981e-05
1.11531e-05
1.1613e-05
1.19758e-05
1.22393e-05
1.2402e-05
1.24627e-05
1.24205e-05
1.22748e-05
1.20255e-05
1.16728e-05
1.12173e-05
1.06597e-05
1.00014e-05
9.24379e-06
8.38882e-06
7.43855e-06
6.39546e-06
5.26219e-06
4.04173e-06
2.7372e-06
1.35208e-06
-1.10087e-07
-1.64545e-06
-3.2501e-06
-4.91986e-06
-6.65053e-06
-8.43767e-06
-1.02769e-05
-1.21635e-05
-1.40931e-05
-1.60608e-05
-1.8062e-05
-2.00918e-05
-2.21458e-05
-2.42189e-05
-2.63066e-05
-2.84042e-05
-3.0507e-05
-3.26104e-05
-3.47101e-05
-3.68014e-05
-3.88802e-05
-4.09421e-05
-4.2983e-05
-4.49988e-05
-4.69858e-05
-4.89398e-05
-5.08575e-05
-5.27351e-05
-5.45694e-05
-5.63568e-05
-5.80944e-05
-5.9779e-05
-6.14078e-05
-6.2978e-05
-6.4487e-05
-6.59323e-05
-6.73115e-05
-6.86224e-05
-6.98631e-05
-7.10314e-05
-7.21256e-05
-7.31441e-05
-7.40853e-05
-7.49478e-05
-7.57303e-05
-7.64318e-05
-7.70511e-05
-7.75876e-05
-7.80403e-05
-7.84088e-05
-7.86925e-05
-7.88913e-05
-7.90048e-05
-7.90333e-05
-7.89765e-05
-7.88351e-05
-7.86093e-05
-7.82997e-05
-7.7907e-05
-7.74322e-05
-7.68762e-05
-7.62404e-05
-7.55259e-05
-7.47345e-05
-7.38675e-05
-7.29271e-05
-7.19148e-05
-7.08329e-05
-6.96835e-05
-6.84689e-05
-6.71912e-05
-6.5853e-05
-6.44565e-05
-6.30043e-05
-6.14984e-05
-5.99412e-05
-5.83347e-05
-5.66807e-05
-5.49807e-05
-5.32372e-05
-5.14535e-05
-4.96244e-05
-4.77098e-05
-4.56779e-05
-4.38931e-05
-3.14615e-05
-2.98491e-05
-2.79834e-05
-2.61815e-05
-2.44163e-05
-2.26545e-05
-2.08932e-05
-1.91371e-05
-1.73901e-05
-1.56556e-05
-1.39371e-05
-1.22387e-05
-1.05646e-05
-8.91928e-06
-7.30731e-06
-5.73337e-06
-4.2023e-06
-2.71881e-06
-1.28776e-06
8.62108e-08
1.39836e-06
2.64427e-06
3.81947e-06
4.91986e-06
5.94135e-06
6.88029e-06
7.73306e-06
8.49654e-06
9.16765e-06
9.74388e-06
1.02228e-05
1.06025e-05
1.08811e-05
1.10576e-05
1.11308e-05
1.11001e-05
1.09653e-05
1.07264e-05
1.03838e-05
9.93827e-06
9.39085e-06
8.743e-06
7.99633e-06
7.15295e-06
6.21503e-06
5.18523e-06
4.06629e-06
2.86136e-06
1.57363e-06
2.06696e-07
-1.23583e-06
-2.75e-06
-4.33185e-06
-5.97715e-06
-7.68166e-06
-9.44091e-06
-1.12505e-05
-1.31057e-05
-1.50021e-05
-1.69349e-05
-1.88995e-05
-2.08911e-05
-2.29052e-05
-2.49368e-05
-2.69816e-05
-2.90348e-05
-3.1092e-05
-3.31485e-05
-3.52002e-05
-3.72425e-05
-3.92714e-05
-4.12826e-05
-4.32723e-05
-4.52364e-05
-4.71712e-05
-4.90731e-05
-5.09385e-05
-5.2764e-05
-5.45463e-05
-5.62823e-05
-5.7969e-05
-5.96035e-05
-6.1183e-05
-6.2705e-05
-6.41669e-05
-6.55664e-05
-6.69012e-05
-6.81694e-05
-6.93688e-05
-7.04976e-05
-7.15542e-05
-7.25369e-05
-7.34443e-05
-7.42749e-05
-7.50275e-05
-7.5701e-05
-7.62943e-05
-7.68066e-05
-7.7237e-05
-7.75849e-05
-7.78497e-05
-7.80309e-05
-7.8128e-05
-7.81411e-05
-7.80698e-05
-7.79142e-05
-7.76743e-05
-7.73505e-05
-7.69428e-05
-7.6452e-05
-7.58783e-05
-7.52226e-05
-7.44856e-05
-7.36682e-05
-7.27713e-05
-7.17961e-05
-7.07435e-05
-6.9615e-05
-6.84118e-05
-6.71352e-05
-6.57866e-05
-6.43675e-05
-6.28792e-05
-6.13231e-05
-5.97004e-05
-5.80124e-05
-5.626e-05
-5.44441e-05
-5.25652e-05
-5.0625e-05
-4.86264e-05
-4.65625e-05
-4.43863e-05
-4.20606e-05
-4.00089e-05
-3.61644e-05
-3.43124e-05
-3.21782e-05
-3.01298e-05
-2.81362e-05
-2.61583e-05
-2.41924e-05
-2.22433e-05
-2.03148e-05
-1.841e-05
-1.65322e-05
-1.46849e-05
-1.28722e-05
-1.1098e-05
-9.3666e-06
-7.6822e-06
-6.04923e-06
-4.47201e-06
-2.95498e-06
-1.50236e-06
-1.18507e-07
1.19257e-06
2.42677e-06
3.58041e-06
4.6497e-06
5.63142e-06
6.52222e-06
7.31938e-06
8.02011e-06
8.62223e-06
9.12357e-06
9.52259e-06
9.81774e-06
1.00081e-05
1.00929e-05
1.00719e-05
9.94486e-06
9.71229e-06
9.37468e-06
8.93315e-06
8.38885e-06
7.74353e-06
6.99896e-06
6.15748e-06
5.22143e-06
4.19369e-06
3.07712e-06
1.87506e-06
5.90848e-07
-7.71774e-07
-2.20907e-06
-3.71696e-06
-5.29139e-06
-6.92801e-06
-8.6225e-06
-1.03703e-05
-1.2167e-05
-1.40078e-05
-1.58882e-05
-1.78035e-05
-1.97489e-05
-2.17197e-05
-2.37113e-05
-2.5719e-05
-2.77383e-05
-2.97645e-05
-3.17932e-05
-3.38199e-05
-3.58404e-05
-3.78504e-05
-3.98458e-05
-4.18226e-05
-4.37769e-05
-4.57047e-05
-4.76027e-05
-4.94671e-05
-5.12946e-05
-5.30819e-05
-5.48259e-05
-5.65235e-05
-5.81719e-05
-5.97682e-05
-6.131e-05
-6.27947e-05
-6.422e-05
-6.55835e-05
-6.68833e-05
-6.81172e-05
-6.92835e-05
-7.03803e-05
-7.14059e-05
-7.2359e-05
-7.32379e-05
-7.40414e-05
-7.47681e-05
-7.54171e-05
-7.5987e-05
-7.64772e-05
-7.68865e-05
-7.72144e-05
-7.74599e-05
-7.76225e-05
-7.77017e-05
-7.76971e-05
-7.7608e-05
-7.74345e-05
-7.71761e-05
-7.68328e-05
-7.64044e-05
-7.58911e-05
-7.52927e-05
-7.46097e-05
-7.38419e-05
-7.29901e-05
-7.20541e-05
-7.10348e-05
-6.99323e-05
-6.87473e-05
-6.74802e-05
-6.61317e-05
-6.47023e-05
-6.31926e-05
-6.1603e-05
-5.99341e-05
-5.81864e-05
-5.63601e-05
-5.44554e-05
-5.24723e-05
-5.04106e-05
-4.82713e-05
-4.60572e-05
-4.376e-05
-4.13259e-05
-3.87129e-05
-3.64015e-05
-4.08166e-05
-3.87269e-05
-3.63249e-05
-3.40286e-05
-3.18029e-05
-2.96036e-05
-2.74262e-05
-2.5276e-05
-2.31567e-05
-2.10713e-05
-1.90231e-05
-1.70154e-05
-1.50519e-05
-1.31365e-05
-1.12731e-05
-9.46571e-06
-7.71845e-06
-6.03538e-06
-4.4206e-06
-2.87807e-06
-1.41181e-06
-2.55155e-08
1.277e-06
2.49237e-06
3.61714e-06
4.64836e-06
5.58302e-06
6.41868e-06
7.15285e-06
7.78367e-06
8.30923e-06
8.72832e-06
9.03965e-06
9.24264e-06
9.33671e-06
9.32192e-06
9.19837e-06
8.96679e-06
8.62794e-06
8.1832e-06
7.63399e-06
6.98228e-06
6.23011e-06
5.38004e-06
4.43465e-06
3.39702e-06
2.27025e-06
1.05787e-06
-2.36579e-07
-1.60918e-06
-3.05601e-06
-4.57285e-06
-6.15545e-06
-7.79936e-06
-9.5001e-06
-1.1253e-05
-1.30536e-05
-1.48969e-05
-1.67784e-05
-1.86932e-05
-2.06367e-05
-2.2604e-05
-2.45905e-05
-2.65914e-05
-2.86023e-05
-3.06185e-05
-3.26357e-05
-3.46493e-05
-3.66551e-05
-3.8649e-05
-4.0627e-05
-4.25849e-05
-4.45191e-05
-4.64259e-05
-4.83016e-05
-5.01428e-05
-5.19463e-05
-5.37089e-05
-5.54275e-05
-5.70992e-05
-5.87213e-05
-6.02912e-05
-6.18063e-05
-6.32643e-05
-6.46629e-05
-6.6e-05
-6.72735e-05
-6.84816e-05
-6.96224e-05
-7.06943e-05
-7.16956e-05
-7.26249e-05
-7.34807e-05
-7.42618e-05
-7.49667e-05
-7.55945e-05
-7.61439e-05
-7.66141e-05
-7.70038e-05
-7.73125e-05
-7.7539e-05
-7.76828e-05
-7.77429e-05
-7.77189e-05
-7.76099e-05
-7.74156e-05
-7.71353e-05
-7.67686e-05
-7.63149e-05
-7.5774e-05
-7.51455e-05
-7.4429e-05
-7.36243e-05
-7.27311e-05
-7.17492e-05
-7.06785e-05
-6.95186e-05
-6.82696e-05
-6.69311e-05
-6.55032e-05
-6.39856e-05
-6.23782e-05
-6.06807e-05
-5.8893e-05
-5.70146e-05
-5.50451e-05
-5.29842e-05
-5.08309e-05
-4.85845e-05
-4.62456e-05
-4.3817e-05
-4.12888e-05
-3.86012e-05
-3.57075e-05
-3.31432e-05
-4.53817e-05
-4.30551e-05
-4.03847e-05
-3.78382e-05
-3.53767e-05
-3.29509e-05
-3.05558e-05
-2.8197e-05
-2.58787e-05
-2.36038e-05
-2.13755e-05
-1.91973e-05
-1.70727e-05
-1.50054e-05
-1.29994e-05
-1.10585e-05
-9.18655e-06
-7.38752e-06
-5.6653e-06
-4.02364e-06
-2.46632e-06
-9.96832e-07
3.81286e-07
1.66489e-06
2.85081e-06
3.93634e-06
4.91875e-06
5.79587e-06
6.5655e-06
7.22604e-06
7.77591e-06
8.21412e-06
8.53973e-06
8.75242e-06
8.85192e-06
8.83857e-06
8.71278e-06
8.47555e-06
8.12795e-06
7.67163e-06
7.10831e-06
6.44024e-06
5.66975e-06
4.79964e-06
3.8328e-06
2.77253e-06
1.62223e-06
3.85626e-07
-9.33455e-07
-2.33091e-06
-3.80256e-06
-5.344e-06
-6.95077e-06
-8.61826e-06
-1.03418e-05
-1.21166e-05
-1.39379e-05
-1.58008e-05
-1.77006e-05
-1.96322e-05
-2.15909e-05
-2.35719e-05
-2.55704e-05
-2.75817e-05
-2.96011e-05
-3.16242e-05
-3.36463e-05
-3.56632e-05
-3.76706e-05
-3.96643e-05
-4.16403e-05
-4.35948e-05
-4.5524e-05
-4.74241e-05
-4.92919e-05
-5.11238e-05
-5.29167e-05
-5.46675e-05
-5.63734e-05
-5.80314e-05
-5.96389e-05
-6.11934e-05
-6.26925e-05
-6.4134e-05
-6.55155e-05
-6.68353e-05
-6.80912e-05
-6.92815e-05
-7.04043e-05
-7.14583e-05
-7.24416e-05
-7.33529e-05
-7.41909e-05
-7.49541e-05
-7.56414e-05
-7.62515e-05
-7.67833e-05
-7.72358e-05
-7.76078e-05
-7.78984e-05
-7.81066e-05
-7.82315e-05
-7.82722e-05
-7.82278e-05
-7.80974e-05
-7.78803e-05
-7.75756e-05
-7.71825e-05
-7.67002e-05
-7.61281e-05
-7.54651e-05
-7.47108e-05
-7.38643e-05
-7.29249e-05
-7.18917e-05
-7.07642e-05
-6.95415e-05
-6.82229e-05
-6.68076e-05
-6.52949e-05
-6.3684e-05
-6.1974e-05
-6.0164e-05
-5.82533e-05
-5.62407e-05
-5.41253e-05
-5.19059e-05
-4.95811e-05
-4.71497e-05
-4.4612e-05
-4.19706e-05
-3.92145e-05
-3.62781e-05
-3.31099e-05
-3.0299e-05
-4.98307e-05
-4.7266e-05
-4.43251e-05
-4.15251e-05
-3.88234e-05
-3.61658e-05
-3.35466e-05
-3.09723e-05
-2.84472e-05
-2.59746e-05
-2.35576e-05
-2.11999e-05
-1.8905e-05
-1.66768e-05
-1.4519e-05
-1.24355e-05
-1.04302e-05
-8.50685e-06
-6.66927e-06
-4.92108e-06
-3.2659e-06
-1.70707e-06
-2.47928e-07
1.10856e-06
2.35945e-06
3.50225e-06
4.5345e-06
5.45424e-06
6.25956e-06
6.94911e-06
7.52161e-06
7.97634e-06
8.31268e-06
8.53058e-06
8.6301e-06
8.61187e-06
8.47663e-06
8.22568e-06
7.86044e-06
7.38285e-06
6.79497e-06
6.09935e-06
5.29866e-06
4.39597e-06
3.39453e-06
2.29791e-06
1.10982e-06
-1.65733e-07
-1.52463e-06
-2.96252e-06
-4.47493e-06
-6.05725e-06
-7.70473e-06
-9.41258e-06
-1.11759e-05
-1.29897e-05
-1.4849e-05
-1.67488e-05
-1.86841e-05
-2.06499e-05
-2.26412e-05
-2.46531e-05
-2.66808e-05
-2.87194e-05
-3.07642e-05
-3.28107e-05
-3.48543e-05
-3.68907e-05
-3.89155e-05
-4.09247e-05
-4.29142e-05
-4.48802e-05
-4.68189e-05
-4.87268e-05
-5.06004e-05
-5.24366e-05
-5.42319e-05
-5.59837e-05
-5.76889e-05
-5.93449e-05
-6.09491e-05
-6.24991e-05
-6.39925e-05
-6.54272e-05
-6.68011e-05
-6.81123e-05
-6.93589e-05
-7.05391e-05
-7.16513e-05
-7.2694e-05
-7.36656e-05
-7.45647e-05
-7.53899e-05
-7.614e-05
-7.68136e-05
-7.74097e-05
-7.79269e-05
-7.83642e-05
-7.87205e-05
-7.89947e-05
-7.91856e-05
-7.92922e-05
-7.93135e-05
-7.92484e-05
-7.90958e-05
-7.88547e-05
-7.85239e-05
-7.81025e-05
-7.75893e-05
-7.69831e-05
-7.62829e-05
-7.54876e-05
-7.45958e-05
-7.36065e-05
-7.25184e-05
-7.13303e-05
-7.00409e-05
-6.86489e-05
-6.7153e-05
-6.55519e-05
-6.38443e-05
-6.20285e-05
-6.01033e-05
-5.80672e-05
-5.59185e-05
-5.36557e-05
-5.12771e-05
-4.87808e-05
-4.61651e-05
-4.343e-05
-4.05782e-05
-3.75977e-05
-3.44168e-05
-3.09799e-05
-2.79279e-05
-5.41394e-05
-5.13337e-05
-4.81184e-05
-4.50602e-05
-4.21129e-05
-3.92173e-05
-3.63675e-05
-3.35704e-05
-3.0831e-05
-2.81528e-05
-2.55391e-05
-2.29937e-05
-2.05204e-05
-1.8123e-05
-1.58056e-05
-1.35719e-05
-1.14259e-05
-9.37137e-06
-7.41206e-06
-5.55154e-06
-3.79335e-06
-2.14074e-06
-5.96888e-07
8.35369e-07
2.1533e-06
3.35455e-06
4.43693e-06
5.39867e-06
6.23815e-06
6.95423e-06
7.54596e-06
8.01286e-06
8.35467e-06
8.5716e-06
8.66408e-06
8.63302e-06
8.47956e-06
8.20529e-06
7.81203e-06
7.30202e-06
6.67774e-06
5.94202e-06
5.09795e-06
4.14891e-06
3.09854e-06
1.95072e-06
7.09524e-07
-6.20741e-07
-2.03558e-06
-3.53038e-06
-5.10032e-06
-6.74053e-06
-8.44597e-06
-1.02116e-05
-1.20322e-05
-1.39026e-05
-1.58176e-05
-1.7772e-05
-1.97605e-05
-2.17781e-05
-2.38195e-05
-2.58797e-05
-2.79538e-05
-3.00368e-05
-3.21239e-05
-3.42105e-05
-3.6292e-05
-3.83639e-05
-4.0422e-05
-4.24621e-05
-4.44801e-05
-4.64724e-05
-4.84351e-05
-5.03647e-05
-5.22578e-05
-5.41113e-05
-5.59219e-05
-5.76869e-05
-5.94033e-05
-6.10687e-05
-6.26805e-05
-6.42364e-05
-6.57341e-05
-6.71715e-05
-6.85467e-05
-6.98579e-05
-7.11031e-05
-7.22809e-05
-7.33895e-05
-7.44274e-05
-7.53932e-05
-7.62856e-05
-7.71032e-05
-7.78447e-05
-7.85088e-05
-7.90944e-05
-7.96003e-05
-8.00251e-05
-8.03679e-05
-8.06274e-05
-8.08024e-05
-8.08917e-05
-8.08942e-05
-8.08086e-05
-8.06336e-05
-8.03679e-05
-8.00103e-05
-7.95593e-05
-7.90137e-05
-7.83719e-05
-7.76325e-05
-7.67939e-05
-7.58547e-05
-7.48131e-05
-7.36677e-05
-7.24164e-05
-7.10579e-05
-6.95901e-05
-6.80114e-05
-6.63197e-05
-6.45133e-05
-6.25901e-05
-6.05482e-05
-5.83855e-05
-5.61e-05
-5.36895e-05
-5.1152e-05
-4.8485e-05
-4.56864e-05
-4.2756e-05
-3.96965e-05
-3.64949e-05
-3.30738e-05
-2.93734e-05
-2.60853e-05
-5.8287e-05
-5.52354e-05
-5.17397e-05
-4.84171e-05
-4.52176e-05
-4.20771e-05
-3.89893e-05
-3.59621e-05
-3.30007e-05
-3.01091e-05
-2.72909e-05
-2.45501e-05
-2.18908e-05
-1.93171e-05
-1.6833e-05
-1.44426e-05
-1.21497e-05
-9.95842e-06
-7.87238e-06
-5.89523e-06
-4.03041e-06
-2.28117e-06
-6.50554e-07
8.58682e-07
2.24398e-06
3.50314e-06
4.63417e-06
5.6355e-06
6.50579e-06
7.24413e-06
7.84988e-06
8.32283e-06
8.66305e-06
8.87107e-06
8.94769e-06
8.89415e-06
8.71199e-06
8.40313e-06
7.96983e-06
7.41468e-06
6.74058e-06
5.95073e-06
5.04865e-06
4.0381e-06
2.92312e-06
1.70795e-06
3.97111e-07
-1.00477e-06
-2.49279e-06
-4.062e-06
-5.70721e-06
-7.42324e-06
-9.20469e-06
-1.10462e-05
-1.29423e-05
-1.48876e-05
-1.68765e-05
-1.89037e-05
-2.09636e-05
-2.30509e-05
-2.51603e-05
-2.72865e-05
-2.94244e-05
-3.15691e-05
-3.37154e-05
-3.58588e-05
-3.79945e-05
-4.0118e-05
-4.2225e-05
-4.43114e-05
-4.6373e-05
-4.84061e-05
-5.04069e-05
-5.2372e-05
-5.42978e-05
-5.61815e-05
-5.80198e-05
-5.98099e-05
-6.15492e-05
-6.3235e-05
-6.48649e-05
-6.64368e-05
-6.79484e-05
-6.93978e-05
-7.07831e-05
-7.21024e-05
-7.3354e-05
-7.45365e-05
-7.56482e-05
-7.66878e-05
-7.76538e-05
-7.85448e-05
-7.93597e-05
-8.00971e-05
-8.07558e-05
-8.13346e-05
-8.18322e-05
-8.22475e-05
-8.25791e-05
-8.2826e-05
-8.29867e-05
-8.306e-05
-8.30446e-05
-8.29391e-05
-8.2742e-05
-8.24518e-05
-8.20671e-05
-8.15862e-05
-8.10075e-05
-8.03291e-05
-7.95495e-05
-7.86666e-05
-7.76787e-05
-7.65835e-05
-7.53793e-05
-7.40636e-05
-7.26346e-05
-7.10897e-05
-6.94269e-05
-6.76436e-05
-6.57376e-05
-6.37063e-05
-6.15473e-05
-5.9258e-05
-5.6836e-05
-5.42785e-05
-5.1583e-05
-4.87467e-05
-4.57671e-05
-4.26438e-05
-3.93795e-05
-3.59601e-05
-3.23028e-05
-2.83435e-05
-2.48236e-05
-6.22547e-05
-5.89504e-05
-5.51662e-05
-5.15712e-05
-4.81115e-05
-4.47181e-05
-4.13843e-05
-3.81187e-05
-3.49274e-05
-3.18145e-05
-2.87842e-05
-2.58407e-05
-2.29884e-05
-2.02316e-05
-1.75746e-05
-1.50217e-05
-1.2577e-05
-1.02445e-05
-8.02805e-06
-5.93129e-06
-3.95771e-06
-2.11051e-06
-3.92691e-07
1.19306e-06
2.64435e-06
3.95907e-06
5.13548e-06
6.17217e-06
7.06807e-06