/*--------------------------------*- C++ -*----------------------------------*\
  =========                 |
  \\      /  F ield         | OpenFOAM: The Open Source CFD Toolbox
   \\    /   O peration     | Website:  https://openfoam.org
    \\  /    A nd           | Version:  12
     \\/     M anipulation  |
\*---------------------------------------------------------------------------*/
FoamFile
{
    format      ascii;
    class       surfaceScalarField;
    location    "10";
    object      phi;
}
// * * * * * * * * * * * * * * * * * * * * * * * * * * * * * * * * * * * * * //

dimensions      [0 3 -1 0 0 0 0];

internalField   nonuniform List<scalar> 
36180
(
-5.14797e-12
5.1339e-12
-1.837e-11
1.3262e-11
-3.65816e-11
1.81741e-11
-5.65959e-11
2.00214e-11
-7.60138e-11
1.93898e-11
-9.28368e-11
1.68246e-11
-1.0563e-10
1.27764e-11
-1.13246e-10
7.61918e-12
-1.14909e-10
1.65238e-12
-1.10019e-10
-4.88648e-12
-9.82183e-11
-1.18062e-11
-7.92531e-11
-1.89608e-11
-5.30246e-11
-2.6233e-11
-1.94916e-11
-3.3529e-11
2.12795e-11
-4.07743e-11
6.91909e-11
-4.79082e-11
1.24069e-10
-5.48814e-11
1.85724e-10
-6.16531e-11
2.53911e-10
-6.81897e-11
3.28375e-10
-7.44627e-11
4.08821e-10
-8.04486e-11
4.94948e-10
-8.61271e-11
5.86427e-10
-9.14817e-11
6.82924e-10
-9.64978e-11
7.84085e-10
-1.01164e-10
8.89553e-10
-1.05469e-10
9.98957e-10
-1.09406e-10
1.11192e-09
-1.12969e-10
1.22808e-09
-1.16152e-10
1.34702e-09
-1.18952e-10
1.46839e-09
-1.21367e-10
1.59178e-09
-1.23395e-10
1.71682e-09
-1.25038e-10
1.84312e-09
-1.26297e-10
1.97029e-09
-1.27174e-10
2.09796e-09
-1.27672e-10
2.22576e-09
-1.27797e-10
2.35331e-09
-1.27553e-10
2.48026e-09
-1.26948e-10
2.60625e-09
-1.25988e-10
2.73093e-09
-1.24682e-10
2.85397e-09
-1.23038e-10
2.97503e-09
-1.21066e-10
3.09381e-09
-1.18775e-10
3.20998e-09
-1.16178e-10
3.32327e-09
-1.13284e-10
3.43337e-09
-1.10107e-10
3.54003e-09
-1.06659e-10
3.64299e-09
-1.02952e-10
3.74198e-09
-9.89989e-11
3.8368e-09
-9.48145e-11
3.92721e-09
-9.04121e-11
4.01302e-09
-8.58057e-11
4.09403e-09
-8.10095e-11
4.17007e-09
-7.60381e-11
4.24097e-09
-7.09059e-11
4.3066e-09
-6.56273e-11
4.36682e-09
-6.0217e-11
4.42151e-09
-5.46896e-11
4.47057e-09
-4.90593e-11
4.51391e-09
-4.33407e-11
4.55146e-09
-3.7548e-11
4.58315e-09
-3.16951e-11
4.60895e-09
-2.57961e-11
4.62881e-09
-1.98645e-11
4.64272e-09
-1.39137e-11
4.65068e-09
-7.95704e-12
4.65269e-09
-2.0073e-12
4.64877e-09
3.92288e-12
4.63894e-09
9.82129e-12
4.62327e-09
1.5676e-11
4.60179e-09
2.14751e-11
4.57459e-09
2.72073e-11
4.54172e-09
3.28615e-11
4.5033e-09
3.84271e-11
4.4594e-09
4.38936e-11
4.41015e-09
4.92509e-11
4.35566e-09
5.4489e-11
4.29607e-09
5.95986e-11
4.23149e-09
6.45703e-11
4.1621e-09
6.93951e-11
4.08804e-09
7.40642e-11
4.00947e-09
7.85692e-11
3.92657e-09
8.29014e-11
3.83951e-09
8.70531e-11
3.7485e-09
9.10159e-11
3.65372e-09
9.47822e-11
3.55537e-09
9.83441e-11
3.45368e-09
1.01694e-10
3.34886e-09
1.04825e-10
3.24113e-09
1.07728e-10
3.13073e-09
1.10397e-10
3.01791e-09
1.12825e-10
2.90291e-09
1.15003e-10
2.78598e-09
1.16924e-10
2.6674e-09
1.18581e-10
2.54744e-09
1.19967e-10
2.42637e-09
1.21074e-10
2.30447e-09
1.21894e-10
2.18205e-09
1.2242e-10
2.05941e-09
1.22644e-10
1.93685e-09
1.22559e-10
1.81469e-09
1.22158e-10
1.69326e-09
1.21432e-10
1.57289e-09
1.20374e-10
1.45391e-09
1.18977e-10
1.33668e-09
1.17234e-10
1.22154e-09
1.15137e-10
1.10886e-09
1.12681e-10
9.99004e-10
1.09859e-10
8.92337e-10
1.06666e-10
7.89241e-10
1.03097e-10
6.90092e-10
9.91482e-11
5.95276e-10
9.48172e-11
5.05172e-10
9.0103e-11
4.20166e-10
8.50071e-11
3.40632e-10
7.9533e-11
2.66945e-10
7.36877e-11
1.99462e-10
6.74823e-11
1.38529e-10
6.09334e-11
8.44637e-11
5.40642e-11
3.75571e-11
4.69071e-11
-1.94942e-12
3.95057e-11
-3.38685e-11
3.19195e-11
-5.80964e-11
2.42271e-11
-7.46309e-11
1.65348e-11
-8.3615e-11
8.98356e-12
-8.53788e-11
1.76395e-12
-8.04947e-11
-4.88454e-12
-6.98742e-11
-1.06203e-11
-5.4855e-11
-1.50195e-11
-3.73286e-11
-1.75263e-11
-1.98971e-11
-1.74316e-11
-6.05487e-12
-1.38422e-11
-6.05488e-12
-1.05192e-11
1.56826e-11
-3.3463e-11
3.62549e-11
-6.22374e-11
4.69562e-11
-9.14144e-11
4.92208e-11
-1.16559e-10
4.4531e-11
-1.33951e-10
3.4228e-11
-1.40655e-10
1.94752e-11
-1.34292e-10
1.26283e-12
-1.13063e-10
-1.95804e-11
-7.55763e-11
-4.23668e-11
-2.08564e-11
-6.65286e-11
5.17859e-11
-9.15979e-11
1.42739e-10
-1.17188e-10
2.52193e-10
-1.42979e-10
3.8012e-10
-1.68703e-10
5.26353e-10
-1.94138e-10
6.90565e-10
-2.19095e-10
8.7233e-10
-2.43416e-10
1.07111e-09
-2.66967e-10
1.28628e-09
-2.89633e-10
1.51714e-09
-3.11315e-10
1.76294e-09
-3.31929e-10
2.02286e-09
-3.51404e-10
2.29604e-09
-3.69678e-10
2.58158e-09
-3.867e-10
2.87854e-09
-4.02427e-10
3.18595e-09
-4.1682e-10
3.50283e-09
-4.29853e-10
3.82818e-09
-4.415e-10
4.16097e-09
-4.51746e-10
4.50018e-09
-4.60577e-10
4.84477e-09
-4.67988e-10
5.19371e-09
-4.73976e-10
5.54595e-09
-4.78543e-10
5.90048e-09
-4.81697e-10
6.25625e-09
-4.83448e-10
6.61226e-09
-4.83811e-10
6.96751e-09
-4.82804e-10
7.32102e-09
-4.8045e-10
7.6718e-09
-4.76774e-10
8.01892e-09
-4.71804e-10
8.36146e-09
-4.65572e-10
8.6985e-09
-4.58111e-10
9.02919e-09
-4.4946e-10
9.35267e-09
-4.39657e-10
9.66812e-09
-4.28743e-10
9.97478e-09
-4.16762e-10
1.02719e-08
-4.0376e-10
1.05587e-08
-3.89784e-10
1.08346e-08
-3.74882e-10
1.10989e-08
-3.59104e-10
1.1351e-08
-3.42502e-10
1.15903e-08
-3.25126e-10
1.18163e-08
-3.07031e-10
1.20286e-08
-2.8827e-10
1.22265e-08
-2.68896e-10
1.24099e-08
-2.48963e-10
1.25782e-08
-2.28526e-10
1.27311e-08
-2.0764e-10
1.28684e-08
-1.86357e-10
1.29898e-08
-1.64733e-10
1.30951e-08
-1.4282e-10
1.31841e-08
-1.20671e-10
1.32566e-08
-9.83384e-11
1.33126e-08
-7.58743e-11
1.3352e-08
-5.3329e-11
1.33748e-08
-3.07525e-11
1.3381e-08
-8.19367e-12
1.33707e-08
1.42996e-11
1.33438e-08
3.66804e-11
1.33006e-08
5.89029e-11
1.32411e-08
8.09226e-11
1.31656e-08
1.02696e-10
1.30743e-08
1.2418e-10
1.29674e-08
1.45334e-10
1.28452e-08
1.66117e-10
1.27079e-08
1.86491e-10
1.2556e-08
2.06418e-10
1.23898e-08
2.2586e-10
1.22095e-08
2.44781e-10
1.20158e-08
2.63147e-10
1.18089e-08
2.80924e-10
1.15894e-08
2.98078e-10
1.13577e-08
3.14577e-10
1.11144e-08
3.30389e-10
1.08599e-08
3.45484e-10
1.05949e-08
3.5983e-10
1.03198e-08
3.73398e-10
1.00354e-08
3.86158e-10
9.74212e-09
3.98082e-10
9.4407e-09
4.09141e-10
9.13179e-09
4.19306e-10
8.81607e-09
4.2855e-10
8.49423e-09
4.36844e-10
8.16699e-09
4.44161e-10
7.8351e-09
4.50474e-10
7.49931e-09
4.55754e-10
7.16041e-09
4.59976e-10
6.81919e-09
4.63111e-10
6.47648e-09
4.65133e-10
6.13311e-09
4.66015e-10
5.78993e-09
4.65732e-10
5.44783e-09
4.64257e-10
5.1077e-09
4.61565e-10
4.77044e-09
4.57632e-10
4.43699e-09
4.52435e-10
4.10827e-09
4.45952e-10
3.78524e-09
4.38161e-10
3.46888e-09
4.29046e-10
3.16015e-09
4.18591e-10
2.86003e-09
4.06782e-10
2.56952e-09
3.93611e-10
2.28959e-09
3.79075e-10
2.02123e-09
3.63175e-10
1.76541e-09
3.45921e-10
1.52309e-09
3.2733e-10
1.29519e-09
3.07432e-10
1.08261e-09
2.86269e-10
8.86191e-10
2.63899e-10
7.06723e-10
2.40402e-10
5.44906e-10
2.1588e-10
4.01343e-10
1.90471e-10
2.765e-10
1.64347e-10
1.70687e-10
1.37733e-10
8.39993e-11
1.10914e-10
1.62815e-11
8.42529e-11
-3.29447e-11
5.82095e-11
-6.45478e-11
3.33672e-11
-7.98942e-11
1.04617e-11
-8.09349e-11
-9.57962e-12
-7.03547e-11
-2.55998e-11
-5.17138e-11
-3.61673e-11
-2.96121e-11
-3.95333e-11
-9.85921e-12
-3.35952e-11
-1.59141e-11
-1.00061e-11
2.57134e-11
-3.0078e-11
5.6363e-11
-5.24436e-11
6.93354e-11
-7.08333e-11
6.76329e-11
-8.0102e-11
5.3804e-11
-7.59118e-11
3.00515e-11
-5.47198e-11
-1.7165e-12
-1.36001e-11
-3.98475e-11
4.97556e-11
-8.29367e-11
1.37177e-10
-1.29781e-10
2.50006e-10
-1.79359e-10
3.89219e-10
-2.30805e-10
5.55412e-10
-2.83382e-10
7.489e-10
-3.36462e-10
9.69709e-10
-3.89512e-10
1.21765e-09
-4.42073e-10
1.4923e-09
-4.93752e-10
1.7931e-09
-5.44211e-10
2.11929e-09
-5.93159e-10
2.47e-09
-6.40343e-10
2.84423e-09
-6.85545e-10
3.24088e-09
-7.28577e-10
3.65875e-09
-7.69276e-10
4.09658e-09
-8.07501e-10
4.55301e-09
-8.43133e-10
5.02665e-09
-8.7607e-10
5.51606e-09
-9.06228e-10
6.01974e-09
-9.33534e-10
6.53617e-09
-9.57935e-10
7.06381e-09
-9.79386e-10
7.60109e-09
-9.97855e-10
8.14642e-09
-1.01332e-09
8.69823e-09
-1.02578e-09
9.25492e-09
-1.03523e-09
9.8149e-09
-1.04168e-09
1.03766e-08
-1.04515e-09
1.09385e-08
-1.04567e-09
1.14989e-08
-1.04328e-09
1.20565e-08
-1.03801e-09
1.26097e-08
-1.02993e-09
1.31569e-08
-1.01908e-09
1.36969e-08
-1.00554e-09
1.42282e-08
-9.89376e-10
1.47494e-08
-9.70661e-10
1.52592e-08
-9.4948e-10
1.57564e-08
-9.25919e-10
1.62397e-08
-9.0007e-10
1.6708e-08
-8.72029e-10
1.71601e-08
-8.41896e-10
1.7595e-08
-8.09772e-10
1.80116e-08
-7.75763e-10
1.84091e-08
-7.39978e-10
1.87865e-08
-7.02526e-10
1.9143e-08
-6.63521e-10
1.94778e-08
-6.23075e-10
1.97902e-08
-5.81303e-10
2.00796e-08
-5.3832e-10
2.03453e-08
-4.94243e-10
2.05868e-08
-4.49186e-10
2.08037e-08
-4.03267e-10
2.09956e-08
-3.56599e-10
2.11621e-08
-3.09299e-10
2.13029e-08
-2.61478e-10
2.14178e-08
-2.13249e-10
2.15066e-08
-1.64724e-10
2.15693e-08
-1.16012e-10
2.16058e-08
-6.72191e-11
2.1616e-08
-1.84526e-11
2.16002e-08
3.01845e-11
2.15583e-08
7.85905e-11
2.14905e-08
1.26666e-10
2.13971e-08
1.74315e-10
2.12784e-08
2.21441e-10
2.11346e-08
2.67953e-10
2.09662e-08
3.1376e-10
2.07735e-08
3.58776e-10
2.05571e-08
4.02914e-10
2.03174e-08
4.46091e-10
2.0055e-08
4.88227e-10
1.97706e-08
5.29243e-10
1.94647e-08
5.69061e-10
1.9138e-08
6.07609e-10
1.87912e-08
6.44812e-10
1.84252e-08
6.80599e-10
1.80407e-08
7.14902e-10
1.76385e-08
7.47651e-10
1.72196e-08
7.78782e-10
1.67847e-08
8.08227e-10
1.6335e-08
8.35925e-10
1.58712e-08
8.6181e-10
1.53946e-08
8.85823e-10
1.4906e-08
9.079e-10
1.44065e-08
9.27983e-10
1.38974e-08
9.46011e-10
1.33796e-08
9.61926e-10
1.28544e-08
9.7567e-10
1.2323e-08
9.87185e-10
1.17865e-08
9.96414e-10
1.12463e-08
1.0033e-09
1.07037e-08
1.00779e-09
1.01599e-08
1.00983e-09
9.61622e-09
1.00937e-09
9.07411e-09
1.00636e-09
8.53494e-09
1.00074e-09
8.00009e-09
9.92476e-10
7.471e-09
9.8152e-10
6.94912e-09
9.67832e-10
6.4359e-09
9.51378e-10
5.93282e-09
9.32129e-10
5.44135e-09
9.1006e-10
4.96297e-09
8.85158e-10
4.49917e-09
8.57416e-10
4.0514e-09
8.26839e-10
3.62113e-09
7.93449e-10
3.20976e-09
7.5728e-10
2.81871e-09
7.18389e-10
2.44928e-09
6.76856e-10
2.10276e-09
6.32788e-10
1.78033e-09
5.86329e-10
1.48307e-09
5.37664e-10
1.21192e-09
4.87027e-10
9.67676e-10
4.34715e-10
7.50925e-10
3.81098e-10
5.62024e-10
3.26635e-10
4.01041e-10
2.71896e-10
2.6771e-10
2.17584e-10
1.61358e-10
1.64561e-10
8.08383e-11
1.13887e-10
2.44441e-11
6.68557e-11
-1.01805e-11
2.50451e-11
-2.61492e-11
-9.63121e-12
-2.74478e-11
-3.48685e-11
-1.90801e-11
-4.7901e-11
-7.28252e-12
-4.53928e-11
-2.31966e-11
-5.93222e-12
3.16561e-11
-1.50701e-11
6.55202e-11
-2.00981e-11
7.43699e-11
-1.48777e-11
6.24272e-11
5.73199e-12
3.31968e-11
4.61136e-11
-1.03194e-11
1.09909e-10
-6.55113e-11
2.00174e-10
-1.30105e-10
3.19361e-10
-2.02123e-10
4.69439e-10
-2.79853e-10
6.51887e-10
-3.61806e-10
8.67783e-10
-4.46696e-10
1.1178e-09
-5.33404e-10
1.4023e-09
-6.20958e-10
1.72131e-09
-7.08517e-10
2.07458e-09
-7.95344e-10
2.46163e-09
-8.80799e-10
2.88174e-09
-9.64323e-10
3.33401e-09
-1.04543e-09
3.81735e-09
-1.12368e-09
4.33051e-09
-1.19871e-09
4.87213e-09
-1.27019e-09
5.4407e-09
-1.33784e-09
6.03461e-09
-1.40141e-09
6.65217e-09
-1.46069e-09
7.29159e-09
-1.51549e-09
7.95103e-09
-1.56566e-09
8.62857e-09
-1.61108e-09
9.32228e-09
-1.65164e-09
1.00301e-08
-1.68725e-09
1.07502e-08
-1.71786e-09
1.14803e-08
-1.74343e-09
1.22184e-08
-1.76394e-09
1.29626e-08
-1.77937e-09
1.37106e-08
-1.78975e-09
1.44606e-08
-1.7951e-09
1.52104e-08
-1.79546e-09
1.5958e-08
-1.7909e-09
1.67014e-08
-1.78147e-09
1.74388e-08
-1.76727e-09
1.81681e-08
-1.74839e-09
1.88875e-08
-1.72494e-09
1.95951e-08
-1.69703e-09
2.02893e-08
-1.6648e-09
2.09682e-08
-1.62837e-09
2.16301e-08
-1.5879e-09
2.22736e-08
-1.54353e-09
2.2897e-08
-1.49544e-09
2.34989e-08
-1.44377e-09
2.40778e-08
-1.38871e-09
2.46325e-08
-1.33044e-09
2.51616e-08
-1.26913e-09
2.56641e-08
-1.20497e-09
2.61387e-08
-1.13816e-09
2.65845e-08
-1.06888e-09
2.70005e-08
-9.97321e-10
2.73859e-08
-9.23689e-10
2.77398e-08
-8.48175e-10
2.80616e-08
-7.70977e-10
2.83507e-08
-6.92291e-10
2.86064e-08
-6.12312e-10
2.88283e-08
-5.31236e-10
2.90161e-08
-4.49255e-10
2.91694e-08
-3.66562e-10
2.9288e-08
-2.83345e-10
2.93718e-08
-1.99792e-10
2.94207e-08
-1.16087e-10
2.94346e-08
-3.24095e-11
2.94137e-08
5.10619e-11
2.93582e-08
1.34153e-10
2.92682e-08
2.16694e-10
2.9144e-08
2.98517e-10
2.89859e-08
3.79459e-10
2.87945e-08
4.59362e-10
2.85702e-08
5.3807e-10
2.83136e-08
6.15432e-10
2.80252e-08
6.913e-10
2.77057e-08
7.65531e-10
2.7356e-08
8.37985e-10
2.69767e-08
9.08525e-10
2.65687e-08
9.77019e-10
2.6133e-08
1.04334e-09
2.56705e-08
1.10736e-09
2.51821e-08
1.16895e-09
2.4669e-08
1.228e-09
2.41323e-08
1.28438e-09
2.35731e-08
1.33799e-09
2.29926e-08
1.38871e-09
2.23921e-08
1.43643e-09
2.17728e-08
1.48104e-09
2.11362e-08
1.52244e-09
2.04836e-08
1.56052e-09
1.98164e-08
1.59518e-09
1.91361e-08
1.62633e-09
1.84441e-08
1.65385e-09
1.77422e-08
1.67765e-09
1.70317e-08
1.69764e-09
1.63144e-08
1.71372e-09
1.55919e-08
1.72581e-09
1.48659e-08
1.73381e-09
1.41381e-08
1.73763e-09
1.34102e-08
1.7372e-09
1.26842e-08
1.73243e-09
1.19616e-08
1.72325e-09
1.12445e-08
1.70958e-09
1.05347e-08
1.69137e-09
9.83397e-09
1.66855e-09
9.14427e-09
1.64108e-09
8.46747e-09
1.60892e-09
7.80548e-09
1.57205e-09
7.16018e-09
1.53045e-09
6.53346e-09
1.48414e-09
5.92716e-09
1.43314e-09
5.34311e-09
1.37749e-09
4.7831e-09
1.31729e-09
4.24885e-09
1.25264e-09
3.74201e-09
1.1837e-09
3.26413e-09
1.11067e-09
2.81666e-09
1.0338e-09
2.4009e-09
9.53422e-10
2.01799e-09
8.69932e-10
1.66888e-09
7.83822e-10
1.35428e-09
6.95696e-10
1.07463e-09
6.06286e-10
8.30052e-10
5.16477e-10
6.20298e-10
4.27338e-10
4.44707e-10
3.40152e-10
3.02136e-10
2.56458e-10
1.90901e-10
1.7809e-10
1.08707e-10
1.07239e-10
5.25759e-11
4.65e-11
1.87589e-11
-1.05167e-12
2.65963e-12
-3.18018e-11
-1.33018e-12
-4.14031e-11
-2.45268e-11
-2.16262e-13
3.18746e-11
6.04738e-12
5.92648e-11
2.49415e-11
5.54765e-11
6.18573e-11
2.5519e-11
1.21445e-10
-2.63909e-11
2.07736e-10
-9.66045e-11
3.24141e-10
-1.81917e-10
4.73543e-10
-2.79501e-10
6.58285e-10
-3.86867e-10
8.80259e-10
-5.01822e-10
1.14089e-09
-6.22435e-10
1.4412e-09
-7.47003e-10
1.78182e-09
-8.74028e-10
2.16305e-09
-1.00218e-09
2.58484e-09
-1.13031e-09
3.04686e-09
-1.25736e-09
3.5485e-09
-1.38244e-09
4.08891e-09
-1.50473e-09
4.66701e-09
-1.62353e-09
5.28153e-09
-1.7382e-09
5.93101e-09
-1.84819e-09
6.61383e-09
-1.95301e-09
7.32822e-09
-2.05224e-09
8.07229e-09
-2.14548e-09
8.84404e-09
-2.23243e-09
9.64135e-09
-2.3128e-09
1.0462e-08
-2.38635e-09
1.13038e-08
-2.45288e-09
1.21644e-08
-2.51222e-09
1.30414e-08
-2.56426e-09
1.39324e-08
-2.60887e-09
1.4835e-08
-2.64601e-09
1.57467e-08
-2.67562e-09
1.6665e-08
-2.6977e-09
1.75875e-08
-2.71226e-09
1.85118e-08
-2.71932e-09
1.94352e-08
-2.71896e-09
2.03556e-08
-2.71124e-09
2.12704e-08
-2.69628e-09
2.21773e-08
-2.67418e-09
2.3074e-08
-2.64509e-09
2.39582e-08
-2.60917e-09
2.48278e-08
-2.56659e-09
2.56805e-08
-2.51752e-09
2.65143e-08
-2.46219e-09
2.73272e-08
-2.40078e-09
2.81172e-08
-2.33355e-09
2.88825e-08
-2.26071e-09
2.96213e-08
-2.18253e-09
3.03318e-08
-2.09924e-09
3.10125e-08
-2.01113e-09
3.16618e-08
-1.91845e-09
3.22783e-08
-1.82149e-09
3.28607e-08
-1.72053e-09
3.34077e-08
-1.61585e-09
3.39181e-08
-1.50774e-09
3.43909e-08
-1.3965e-09
3.48251e-08
-1.28241e-09
3.52199e-08
-1.16578e-09
3.55745e-08
-1.0469e-09
3.58883e-08
-9.26047e-10
3.61606e-08
-8.03531e-10
3.63909e-08
-6.79637e-10
3.6579e-08
-5.54652e-10
3.67245e-08
-4.2886e-10
3.68273e-08
-3.02544e-10
3.68872e-08
-1.75979e-10
3.69042e-08
-4.94392e-11
3.68785e-08
7.68085e-11
3.68101e-08
2.02501e-10
3.66994e-08
3.2738e-10
3.65468e-08
4.51193e-10
3.63525e-08
5.73695e-10
3.61172e-08
6.94643e-10
3.58415e-08
8.13803e-10
3.5526e-08
9.30944e-10
3.51714e-08
1.04584e-09
3.47787e-08
1.15828e-09
3.43486e-08
1.26805e-09
3.38822e-08
1.37494e-09
3.33805e-08
1.47874e-09
3.28445e-08
1.57927e-09
3.22756e-08
1.67633e-09
3.16748e-08
1.76973e-09
3.10435e-08
1.85929e-09
3.0383e-08
1.94484e-09
2.96948e-08
2.02619e-09
2.89803e-08
2.10319e-09
2.82411e-08
2.17565e-09
2.74787e-08
2.24343e-09
2.66948e-08
2.30636e-09
2.5891e-08
2.36428e-09
2.50692e-08
2.41704e-09
2.4231e-08
2.46449e-09
2.33783e-08
2.50649e-09
2.25131e-08
2.54289e-09
2.16372e-08
2.57355e-09
2.07526e-08
2.59834e-09
1.98613e-08
2.61712e-09
1.89653e-08
2.62976e-09
1.80668e-08
2.63614e-09
1.71678e-08
2.63615e-09
1.62706e-08
2.62967e-09
1.53772e-08
2.6166e-09
1.449e-08
2.59684e-09
1.3611e-08
2.57032e-09
1.27426e-08
2.53695e-09
1.1887e-08
2.49669e-09
1.10464e-08
2.44949e-09
1.02231e-08
2.39533e-09
9.41938e-09
2.33422e-09
8.63735e-09
2.26617e-09
7.87923e-09
2.19126e-09
7.14715e-09
2.10957e-09
6.44319e-09
2.02124e-09
5.76936e-09
1.92647e-09
5.12757e-09
1.82549e-09
4.51961e-09
1.71862e-09
3.94717e-09
1.60624e-09
3.41175e-09
1.48884e-09
2.91469e-09
1.36699e-09
2.45711e-09
1.2414e-09
2.03988e-09
1.11292e-09
1.66361e-09
9.82563e-10
1.32856e-09
8.51523e-10
1.03467e-09
7.21228e-10
7.81464e-10
5.93357e-10
5.68034e-10
4.69887e-10
3.92989e-10
3.53135e-10
2.54416e-10
2.45812e-10
1.49836e-10
1.5108e-10
7.61721e-11
7.26121e-11
2.96932e-11
1.46768e-11
6.00129e-12
-1.77114e-11
-1.85256e-11
6.2348e-12
2.56384e-11
3.01425e-11
3.53588e-11
7.65526e-11
9.06424e-12
1.49858e-10
-4.77843e-11
2.53959e-10
-1.30494e-10
3.92297e-10
-2.3494e-10
5.67823e-10
-3.57445e-10
7.83051e-10
-4.94726e-10
1.04003e-09
-6.43851e-10
1.34042e-09
-8.02201e-10
1.68542e-09
-9.67439e-10
2.07589e-09
-1.13748e-09
2.51231e-09
-1.31045e-09
2.99481e-09
-1.48468e-09
3.5232e-09
-1.6587e-09
4.097e-09
-1.83116e-09
4.71543e-09
-2.00087e-09
5.37747e-09
-2.16678e-09
6.08187e-09
-2.32793e-09
6.82714e-09
-2.48347e-09
7.61162e-09
-2.63266e-09
8.43344e-09
-2.77484e-09
9.2906e-09
-2.90939e-09
1.01809e-08
-3.03582e-09
1.11022e-08
-3.15366e-09
1.20519e-08
-3.26252e-09
1.30276e-08
-3.36207e-09
1.40268e-08
-3.45202e-09
1.50467e-08
-3.53214e-09
1.60846e-08
-3.60223e-09
1.71379e-08
-3.66216e-09
1.82037e-08
-3.71182e-09
1.92792e-08
-3.75114e-09
2.03616e-08
-3.78011e-09
2.14481e-08
-3.79872e-09
2.25358e-08
-3.80703e-09
2.3622e-08
-3.8051e-09
2.47038e-08
-3.79304e-09
2.57785e-08
-3.77099e-09
2.68434e-08
-3.7391e-09
2.78959e-08
-3.69757e-09
2.89333e-08
-3.64659e-09
2.99531e-08
-3.58641e-09
3.09529e-08
-3.51728e-09
3.19302e-08
-3.43948e-09
3.28827e-08
-3.35328e-09
3.38081e-08
-3.25902e-09
3.47044e-08
-3.157e-09
3.55694e-08
-3.04757e-09
3.64013e-08
-2.93107e-09
3.7198e-08
-2.80788e-09
3.79579e-08
-2.67836e-09
3.86793e-08
-2.5429e-09
3.93607e-08
-2.40188e-09
4.00005e-08
-2.25569e-09
4.05975e-08
-2.10474e-09
4.11504e-08
-1.94943e-09
4.16582e-08
-1.79016e-09
4.21197e-08
-1.62734e-09
4.25342e-08
-1.46138e-09
4.29008e-08
-1.29268e-09
4.32189e-08
-1.12164e-09
4.3488e-08
-9.48674e-10
4.37075e-08
-7.74174e-10
4.38772e-08
-5.98536e-10
4.39968e-08
-4.22151e-10
4.40662e-08
-2.45402e-10
4.40854e-08
-6.86698e-11
4.40546e-08
1.07674e-10
4.39738e-08
2.83262e-10
4.38434e-08
4.57736e-10
4.36639e-08
6.30745e-10
4.34356e-08
8.01943e-10
4.31593e-08
9.70994e-10
4.28355e-08
1.13757e-09
4.24651e-08
1.30135e-09
4.20489e-08
1.46202e-09
4.15879e-08
1.61928e-09
4.10832e-08
1.77282e-09
4.05357e-08
1.92236e-09
3.99469e-08
2.06762e-09
3.93178e-08
2.20832e-09
3.86499e-08
2.34419e-09
3.79447e-08
2.47497e-09
3.72036e-08
2.60041e-09
3.64281e-08
2.72026e-09
3.56201e-08
2.83427e-09
3.4781e-08
2.94221e-09
3.39128e-08
3.04385e-09
3.30173e-08
3.13895e-09
3.20964e-08
3.22731e-09
3.11519e-08
3.30871e-09
3.0186e-08
3.38292e-09
2.92008e-08
3.44976e-09
2.81982e-08
3.50901e-09
2.71806e-08
3.56049e-09
2.61502e-08
3.604e-09
2.51092e-08
3.63937e-09
2.40599e-08
3.6664e-09
2.30047e-08
3.68494e-09
2.1946e-08
3.69481e-09
2.08863e-08
3.69588e-09
1.9828e-08
3.68799e-09
1.87735e-08
3.67101e-09
1.77255e-08
3.64483e-09
1.66865e-08
3.60935e-09
1.5659e-08
3.56447e-09
1.46455e-08
3.51014e-09
1.36487e-08
3.44632e-09
1.2671e-08
3.373e-09
1.17151e-08
3.29019e-09
1.07833e-08
3.19795e-09
9.87816e-09
3.09639e-09
9.00208e-09
2.98565e-09
8.15739e-09
2.86593e-09
7.34635e-09
2.73751e-09
6.5711e-09
2.60074e-09
5.83369e-09
2.45603e-09
5.13601e-09
2.30392e-09
4.4798e-09
2.14505e-09
3.8666e-09
1.98018e-09
3.29777e-09
1.81024e-09
2.7744e-09
1.6363e-09
2.29732e-09
1.45964e-09
1.86709e-09
1.28176e-09
1.48392e-09
1.1044e-09
1.14768e-09
9.2959e-10
8.57884e-10
7.59688e-10
6.13613e-10
5.97406e-10
4.1355e-10
4.45874e-10
2.55943e-10
3.08686e-10
1.38602e-10
1.89953e-10
5.89068e-11
9.4372e-11
1.38292e-11
2.73658e-11
-4.69642e-12
1.29284e-11
1.2706e-11
5.54296e-11
-7.14494e-12
1.31076e-10
-6.65872e-11
2.43227e-10
-1.59936e-10
3.94935e-10
-2.82206e-10
5.88933e-10
-4.28938e-10
8.27589e-10
-5.96105e-10
1.11292e-09
-7.80058e-10
1.44656e-09
-9.77496e-10
1.8298e-09
-1.18544e-09
2.26354e-09
-1.40118e-09
2.74835e-09
-1.62229e-09
3.28447e-09
-1.84656e-09
3.87178e-09
-2.072e-09
4.50989e-09
-2.2968e-09
5.19809e-09
-2.51935e-09
5.9354e-09
-2.73818e-09
6.72059e-09
-2.95197e-09
7.55218e-09
-3.15952e-09
8.42848e-09
-3.35977e-09
9.34758e-09
-3.55176e-09
1.03074e-08
-3.73464e-09
1.13056e-08
-3.90765e-09
1.23399e-08
-4.07011e-09
1.34077e-08
-4.22144e-09
1.45063e-08
-4.36111e-09
1.56329e-08
-4.48869e-09
1.67847e-08
-4.60379e-09
1.79587e-08
-4.70612e-09
1.91518e-08
-4.79541e-09
2.03612e-08
-4.87146e-09
2.15835e-08
-4.93415e-09
2.28157e-08
-4.98337e-09
2.40547e-08
-5.01909e-09
2.52973e-08
-5.04131e-09
2.65403e-08
-5.05008e-09
2.77807e-08
-5.04549e-09
2.90154e-08
-5.02768e-09
3.02412e-08
-4.99681e-09
3.14552e-08
-4.95308e-09
3.26544e-08
-4.89675e-09
3.38358e-08
-4.82807e-09
3.49967e-08
-4.74734e-09
3.61344e-08
-4.65491e-09
3.7246e-08
-4.55111e-09
3.8329e-08
-4.43634e-09
3.9381e-08
-4.31098e-09
4.03995e-08
-4.17547e-09
4.13822e-08
-4.03024e-09
4.23268e-08
-3.87576e-09
4.32314e-08
-3.71249e-09
4.4094e-08
-3.54091e-09
4.49126e-08
-3.36153e-09
4.56856e-08
-3.17486e-09
4.64113e-08
-2.9814e-09
4.70882e-08
-2.78168e-09
4.7715e-08
-2.57622e-09
4.82904e-08
-2.36555e-09
4.88133e-08
-2.15022e-09
4.92826e-08
-1.93074e-09
4.96976e-08
-1.70764e-09
5.00574e-08
-1.48148e-09
5.03615e-08
-1.25275e-09
5.06093e-08
-1.022e-09
5.08005e-08
-7.8974e-10
5.09349e-08
-5.5648e-10
5.10122e-08
-3.22728e-10
5.10325e-08
-8.89829e-11
5.09959e-08
1.44265e-10
5.09026e-08
3.76533e-10
5.0753e-08
6.07349e-10
5.05475e-08
8.36248e-10
5.02867e-08
1.06278e-09
4.99712e-08
1.28649e-09
4.96018e-08
1.50696e-09
4.91794e-08
1.72375e-09
4.87049e-08
1.93646e-09
4.81795e-08
2.14468e-09
4.76043e-08
2.34802e-09
4.69806e-08
2.54609e-09
4.63097e-08
2.73852e-09
4.55931e-08
2.92495e-09
4.48322e-08
3.10503e-09
4.40288e-08
3.2784e-09
4.31845e-08
3.44474e-09
4.2301e-08
3.6037e-09
4.13803e-08
3.75499e-09
4.04242e-08
3.89827e-09
3.94348e-08
4.03326e-09
3.84141e-08
4.15965e-09
3.73643e-08
4.27715e-09
3.62875e-08
4.38549e-09
3.5186e-08
4.48439e-09
3.40622e-08
4.57358e-09
3.29184e-08
4.6528e-09
3.17571e-08
4.7218e-09
3.05808e-08
4.78035e-09
2.93919e-08
4.8282e-09
2.81932e-08
4.86513e-09
2.69872e-08
4.89093e-09
2.57766e-08
4.90539e-09
2.45642e-08
4.90832e-09
2.33526e-08
4.89955e-09
2.21447e-08
4.87892e-09
2.09433e-08
4.84629e-09
1.97511e-08
4.80154e-09
1.8571e-08
4.74458e-09
1.74058e-08
4.67533e-09
1.62583e-08
4.59377e-09
1.51314e-08
4.4999e-09
1.40279e-08
4.39376e-09
1.29504e-08
4.27543e-09
1.19017e-08
4.14507e-09
1.08845e-08
4.00287e-09
9.90128e-09
3.84912e-09
8.95462e-09
3.68417e-09
8.04689e-09
3.50847e-09
7.18036e-09
3.32256e-09
6.35717e-09
3.12711e-09
5.57931e-09
2.92291e-09
4.84858e-09
2.71091e-09
4.1666e-09
2.49222e-09
3.53475e-09
2.26815e-09
2.95419e-09
2.0402e-09
2.42582e-09
1.81013e-09
1.95025e-09
1.57996e-09
1.52782e-09
1.35202e-09
1.15855e-09
1.12896e-09
8.42152e-10
9.13805e-10
5.78017e-10
7.10008e-10
3.65235e-10
5.21468e-10
2.026e-10
3.52587e-10
8.865e-11
2.08322e-10
2.17126e-11
9.43028e-11
1.70161e-11
1.96138e-11
-6.91294e-12
8.09333e-11
-6.84693e-11
1.86426e-10
-1.72085e-10
3.38474e-10
-3.11989e-10
5.3929e-10
-4.83026e-10
7.90868e-10
-6.80518e-10
1.09494e-09
-9.00178e-10
1.45295e-09
-1.13807e-09
1.86605e-09
-1.3906e-09
2.33508e-09
-1.65447e-09
2.86056e-09
-1.92667e-09
3.44271e-09
-2.20444e-09
4.08143e-09
-2.48528e-09
4.77632e-09
-2.76689e-09
5.52669e-09
-3.04718e-09
6.33158e-09
-3.32424e-09
7.18974e-09
-3.59634e-09
8.09968e-09
-3.86192e-09
9.05969e-09
-4.11953e-09
1.00678e-08
-4.36789e-09
1.11219e-08
-4.60584e-09
1.22196e-08
-4.83233e-09
1.33584e-08
-5.04643e-09
1.45356e-08
-5.24731e-09
1.57483e-08
-5.43423e-09
1.69938e-08
-5.60655e-09
1.82688e-08
-5.76372e-09
1.95703e-08
-5.90526e-09
2.0895e-08
-6.03079e-09
2.22395e-08
-6.13998e-09
2.36006e-08
-6.23258e-09
2.49749e-08
-6.30841e-09
2.63589e-08
-6.36736e-09
2.77492e-08
-6.40935e-09
2.91423e-08
-6.43441e-09
3.05348e-08
-6.44258e-09
3.19232e-08
-6.43398e-09
3.33043e-08
-6.40876e-09
3.46746e-08
-6.36713e-09
3.60309e-08
-6.30936e-09
3.73699e-08
-6.23572e-09
3.86884e-08
-6.14657e-09
3.99833e-08
-6.04227e-09
4.12516e-08
-5.92324e-09
4.24904e-08
-5.78991e-09
4.36969e-08
-5.64277e-09
4.48682e-08
-5.48231e-09
4.60018e-08
-5.30906e-09
4.70951e-08
-5.12358e-09
4.81458e-08
-4.92644e-09
4.91515e-08
-4.71823e-09
5.01102e-08
-4.49955e-09
5.10197e-08
-4.27104e-09
5.18782e-08
-4.03333e-09
5.26838e-08
-3.78706e-09
5.3435e-08
-3.5329e-09
5.41303e-08
-3.27149e-09
5.47683e-08
-3.00352e-09
5.53477e-08
-2.72965e-09
5.58675e-08
-2.45054e-09
5.63267e-08
-2.16687e-09
5.67246e-08
-1.87931e-09
5.70603e-08
-1.58852e-09
5.73335e-08
-1.29516e-09
5.75436e-08
-9.99888e-10
5.76905e-08
-7.03347e-10
5.77739e-08
-4.06178e-10
5.7794e-08
-1.0901e-10
5.77507e-08
1.87537e-10
5.76444e-08
4.82852e-10
5.74754e-08
7.76339e-10
5.72442e-08
1.06741e-09
5.69515e-08
1.35549e-09
5.6598e-08
1.64001e-09
5.61845e-08
1.92044e-09
5.5712e-08
2.19622e-09
5.51816e-08
2.46684e-09
5.45945e-08
2.73179e-09
5.3952e-08
2.99056e-09
5.32554e-08
3.24267e-09
5.25063e-08
3.48765e-09
5.17062e-08
3.72504e-09
5.08568e-08
3.95439e-09
4.996e-08
4.17525e-09
4.90175e-08
4.38722e-09
4.80313e-08
4.58986e-09
4.70035e-08
4.78278e-09
4.59362e-08
4.96559e-09
4.48316e-08
5.1379e-09
4.36919e-08
5.29934e-09
4.25195e-08
5.44954e-09
4.13168e-08
5.58817e-09
4.00864e-08
5.71486e-09
3.88306e-08
5.8293e-09
3.75523e-08
5.93115e-09
3.6254e-08
6.02011e-09
3.49385e-08
6.09588e-09
3.36085e-08
6.15817e-09
3.22669e-08
6.20671e-09
3.09166e-08
6.24123e-09
2.95605e-08
6.2615e-09
2.82015e-08
6.26727e-09
2.68428e-08
6.25835e-09
2.54871e-08
6.23455e-09
2.41377e-08
6.19571e-09
2.27976e-08
6.14168e-09
2.14698e-08
6.07237e-09
2.01574e-08
5.98771e-09
1.88635e-08
5.88766e-09
1.75912e-08
5.77225e-09
1.63434e-08
5.64154e-09
1.51232e-08
5.49565e-09
1.39335e-08
5.33478e-09
1.27772e-08
5.15918e-09
1.16571e-08
4.9692e-09
1.0576e-08
4.76529e-09
9.53648e-09
4.54797e-09
8.54112e-09
4.31791e-09
7.59232e-09
4.07591e-09
6.69233e-09
3.8229e-09
5.84325e-09
3.55999e-09
5.04702e-09
3.28845e-09
4.30538e-09
3.00979e-09
3.61985e-09
2.72572e-09
2.99177e-09
2.43821e-09
2.42222e-09
2.14951e-09
1.91207e-09
1.86217e-09
1.46194e-09
1.57909e-09
1.07222e-09
1.30352e-09
7.43099e-10
1.03913e-09
4.74529e-10
7.90039e-10
2.66304e-10
5.60811e-10
1.18081e-10
3.56544e-10
2.9446e-11
1.82938e-10
4.64621e-11
2.61714e-11
-3.309e-11
1.06158e-10
-1.48462e-10
2.41484e-10
-3.07417e-10
4.33665e-10
-5.04174e-10
6.84122e-10
-7.33488e-10
9.94133e-10
-9.90532e-10
1.36478e-09
-1.27083e-09
1.79693e-09
-1.57022e-09
2.29119e-09
-1.88487e-09
2.84793e-09
-2.21121e-09
3.46722e-09
-2.54596e-09
4.14887e-09
-2.88609e-09
4.89241e-09
-3.22882e-09
5.69708e-09
-3.57156e-09
6.56187e-09
-3.91197e-09
7.48549e-09
-4.24786e-09
8.46639e-09
-4.57725e-09
9.5028e-09
-4.89832e-09
1.05927e-08
-5.20943e-09
1.17339e-08
-5.50905e-09
1.29238e-08
-5.79583e-09
1.416e-08
-6.06852e-09
1.54396e-08
-6.32603e-09
1.67597e-08
-6.56736e-09
1.81171e-08
-6.79164e-09
1.95086e-08
-6.99809e-09
2.0931e-08
-7.18605e-09
2.23807e-08
-7.35496e-09
2.38542e-08
-7.50432e-09
2.5348e-08
-7.63376e-09
2.68584e-08
-7.74298e-09
2.83817e-08
-7.83174e-09
2.99143e-08
-7.89991e-09
3.14523e-08
-7.94741e-09
3.29921e-08
-7.97425e-09
3.453e-08
-7.98048e-09
3.60623e-08
-7.96625e-09
3.75853e-08
-7.93175e-09
3.90954e-08
-7.87722e-09
4.0589e-08
-7.80299e-09
4.20627e-08
-7.70939e-09
4.3513e-08
-7.59686e-09
4.49365e-08
-7.46583e-09
4.63301e-08
-7.31681e-09
4.76905e-08
-7.15034e-09
4.90148e-08
-6.967e-09
5.02999e-08
-6.76739e-09
5.1543e-08
-6.55216e-09
5.27414e-08
-6.32199e-09
5.38925e-08
-6.07757e-09
5.49939e-08
-5.81962e-09
5.60432e-08
-5.54889e-09
5.70383e-08
-5.26614e-09
5.79771e-08
-4.97214e-09
5.88577e-08
-4.66769e-09
5.96784e-08
-4.35358e-09
6.04375e-08
-4.03062e-09
6.11336e-08
-3.69963e-09
6.17654e-08
-3.36142e-09
6.23317e-08
-3.01682e-09
6.28315e-08
-2.66663e-09
6.32638e-08
-2.31169e-09
6.36281e-08
-1.9528e-09
6.39237e-08
-1.59077e-09
6.41502e-08
-1.2264e-09
6.43074e-08
-8.60484e-10
6.4395e-08
-4.93801e-10
6.44131e-08
-1.27125e-10
6.43619e-08
2.38785e-10
6.42415e-08
6.03181e-10
6.40525e-08
9.65331e-10
6.37954e-08
1.32451e-09
6.34709e-08
1.68002e-09
6.30797e-08
2.03117e-09
6.26229e-08
2.37729e-09
6.21014e-08
2.7177e-09
6.15165e-08
3.05178e-09
6.08694e-08
3.3789e-09
6.01615e-08
3.69843e-09
5.93944e-08
4.00979e-09
5.85696e-08
4.3124e-09
5.7689e-08
4.60568e-09
5.67543e-08
4.8891e-09
5.57674e-08
5.16211e-09
5.47304e-08
5.42419e-09
5.36455e-08
5.67484e-09
5.25147e-08
5.91355e-09
5.13404e-08
6.13986e-09
5.0125e-08
6.35329e-09
4.8871e-08
6.5534e-09
4.75808e-08
6.73973e-09
4.62571e-08
6.91187e-09
4.49026e-08
7.06939e-09
4.352e-08
7.2119e-09
4.21121e-08
7.339e-09
4.06819e-08
7.45033e-09
3.92323e-08
7.54553e-09
3.77662e-08
7.62425e-09
3.62867e-08
7.68616e-09
3.4797e-08
7.73096e-09
3.33002e-08
7.75835e-09
3.17994e-08
7.76808e-09
3.02978e-08
7.7599e-09
2.87988e-08
7.73358e-09
2.73055e-08
7.68896e-09
2.58214e-08
7.62587e-09
2.43495e-08
7.5442e-09
2.28933e-08
7.44388e-09
2.14561e-08
7.32489e-09
2.00411e-08
7.18725e-09
1.86516e-08
7.03105e-09
1.72908e-08
6.85645e-09
1.59619e-08
6.66367e-09
1.46681e-08
6.45304e-09
1.34123e-08
6.22495e-09
1.21977e-08
5.97994e-09
1.10271e-08
5.71861e-09
9.90322e-09
5.44174e-09
8.82892e-09
5.15022e-09
7.80669e-09
4.84513e-09
6.83899e-09
4.52769e-09
5.92809e-09
4.19935e-09
5.07614e-09
3.86174e-09
4.2851e-09
3.51676e-09
3.55676e-09
3.16655e-09
2.89274e-09
2.81353e-09
2.29448e-09
2.46043e-09
1.76326e-09
2.11031e-09
1.30017e-09
1.76661e-09
9.06177e-10