/*--------------------------------*- C++ -*----------------------------------*\
  =========                 |
  \\      /  F ield         | OpenFOAM: The Open Source CFD Toolbox
   \\    /   O peration     | Website:  https://openfoam.org
    \\  /    A nd           | Version:  12
     \\/     M anipulation  |
\*---------------------------------------------------------------------------*/
FoamFile
{
    format      ascii;
    class       volVectorField;
    location    "10";
    object      U;
}
// * * * * * * * * * * * * * * * * * * * * * * * * * * * * * * * * * * * * * //

dimensions      [0 1 -1 0 0 0 0];

internalField   nonuniform List<vector> 
18225
(
(-9.01297e-08 2.03821e-07 0)
(-7.37128e-07 5.17884e-07 0)
(-1.80515e-06 7.11707e-07 0)
(-3.13492e-06 8.02013e-07 0)
(-4.50126e-06 8.1633e-07 0)
(-5.75184e-06 7.75019e-07 0)
(-6.77177e-06 6.93761e-07 0)
(-7.47578e-06 5.85314e-07 0)
(-7.80012e-06 4.59284e-07 0)
(-7.69902e-06 3.22711e-07 0)
(-7.14094e-06 1.80539e-07 0)
(-6.10568e-06 3.63329e-08 0)
(-4.58179e-06 -1.07422e-07 0)
(-2.56484e-06 -2.48949e-07 0)
(-5.59835e-08 -3.87031e-07 0)
(2.93908e-06 -5.2078e-07 0)
(6.411e-06 -6.49589e-07 0)
(1.03474e-05 -7.72993e-07 0)
(1.47335e-05 -8.90682e-07 0)
(1.95524e-05 -1.0024e-06 0)
(2.47853e-05 -1.10799e-06 0)
(3.04122e-05 -1.2073e-06 0)
(3.64118e-05 -1.30024e-06 0)
(4.27615e-05 -1.38673e-06 0)
(4.94383e-05 -1.46672e-06 0)
(5.64179e-05 -1.54018e-06 0)
(6.36759e-05 -1.60708e-06 0)
(7.11871e-05 -1.66742e-06 0)
(7.89261e-05 -1.72121e-06 0)
(8.6867e-05 -1.76847e-06 0)
(9.4984e-05 -1.80924e-06 0)
(0.000103251 -1.84355e-06 0)
(0.000111642 -1.87148e-06 0)
(0.000120131 -1.89308e-06 0)
(0.000128691 -1.90846e-06 0)
(0.000137298 -1.91769e-06 0)
(0.000145927 -1.9209e-06 0)
(0.000154551 -1.9182e-06 0)
(0.000163146 -1.90973e-06 0)
(0.000171688 -1.89562e-06 0)
(0.000180154 -1.87604e-06 0)
(0.00018852 -1.85113e-06 0)
(0.000196764 -1.82109e-06 0)
(0.000204864 -1.78609e-06 0)
(0.000212798 -1.74632e-06 0)
(0.000220547 -1.70198e-06 0)
(0.000228091 -1.65328e-06 0)
(0.000235412 -1.60041e-06 0)
(0.00024249 -1.54362e-06 0)
(0.00024931 -1.4831e-06 0)
(0.000255855 -1.41909e-06 0)
(0.00026211 -1.35182e-06 0)
(0.00026806 -1.28152e-06 0)
(0.000273693 -1.20842e-06 0)
(0.000278997 -1.13275e-06 0)
(0.000283959 -1.05475e-06 0)
(0.000288569 -9.7465e-07 0)
(0.000292818 -8.92676e-07 0)
(0.000296698 -8.09065e-07 0)
(0.000300201 -7.24038e-07 0)
(0.000303321 -6.37824e-07 0)
(0.000306052 -5.50638e-07 0)
(0.00030839 -4.627e-07 0)
(0.000310331 -3.74219e-07 0)
(0.000311873 -2.85404e-07 0)
(0.000313013 -1.96452e-07 0)
(0.000313751 -1.07562e-07 0)
(0.000314087 -1.89234e-08 0)
(0.000314022 6.92534e-08 0)
(0.000313557 1.56826e-07 0)
(0.000312696 2.43629e-07 0)
(0.000311441 3.29466e-07 0)
(0.000309797 4.14186e-07 0)
(0.000307768 4.97625e-07 0)
(0.000305361 5.79648e-07 0)
(0.000302581 6.60099e-07 0)
(0.000299435 7.38855e-07 0)
(0.000295932 8.15765e-07 0)
(0.000292079 8.9072e-07 0)
(0.000287886 9.63578e-07 0)
(0.000283362 1.03424e-06 0)
(0.000278518 1.10256e-06 0)
(0.000273364 1.16846e-06 0)
(0.000267911 1.23181e-06 0)
(0.000262172 1.2925e-06 0)
(0.00025616 1.35043e-06 0)
(0.000249886 1.4055e-06 0)
(0.000243364 1.4576e-06 0)
(0.000236609 1.50662e-06 0)
(0.000229636 1.55247e-06 0)
(0.000222458 1.59503e-06 0)
(0.000215093 1.6342e-06 0)
(0.000207555 1.66987e-06 0)
(0.000199862 1.70192e-06 0)
(0.00019203 1.73025e-06 0)
(0.000184077 1.75472e-06 0)
(0.000176022 1.77522e-06 0)
(0.000167882 1.79163e-06 0)
(0.000159677 1.80379e-06 0)
(0.000151427 1.81158e-06 0)
(0.000143151 1.81485e-06 0)
(0.00013487 1.81344e-06 0)
(0.000126605 1.80719e-06 0)
(0.000118379 1.79594e-06 0)
(0.000110213 1.77951e-06 0)
(0.000102129 1.75772e-06 0)
(9.4151e-05 1.73038e-06 0)
(8.63026e-05 1.69728e-06 0)
(7.86078e-05 1.65821e-06 0)
(7.10911e-05 1.61297e-06 0)
(6.37773e-05 1.56133e-06 0)
(5.66916e-05 1.50305e-06 0)
(4.98597e-05 1.43791e-06 0)
(4.33072e-05 1.36567e-06 0)
(3.70599e-05 1.28608e-06 0)
(3.11439e-05 1.19892e-06 0)
(2.55847e-05 1.10395e-06 0)
(2.04076e-05 1.001e-06 0)
(1.56376e-05 8.89872e-07 0)
(1.12983e-05 7.70495e-07 0)
(7.41246e-06 6.42848e-07 0)
(4.00062e-06 5.07079e-07 0)
(1.08098e-06 3.63538e-07 0)
(-1.33165e-06 2.12932e-07 0)
(-3.22707e-06 5.64193e-08 0)
(-4.60127e-06 -1.04059e-07 0)
(-5.45838e-06 -2.65507e-07 0)
(-5.81354e-06 -4.23314e-07 0)
(-5.69623e-06 -5.70598e-07 0)
(-5.15507e-06 -6.97494e-07 0)
(-4.2633e-06 -7.89964e-07 0)
(-3.12736e-06 -8.28896e-07 0)
(-1.90671e-06 -7.87185e-07 0)
(-8.36874e-07 -6.21559e-07 0)
(-1.31621e-07 -2.84892e-07 0)
(-1.80561e-07 1.38152e-06 0)
(-1.39601e-06 3.31721e-06 0)
(-3.18219e-06 4.42919e-06 0)
(-5.21289e-06 4.81639e-06 0)
(-7.11717e-06 4.60403e-06 0)
(-8.60878e-06 3.91432e-06 0)
(-9.46584e-06 2.8533e-06 0)
(-9.5116e-06 1.51018e-06 0)
(-8.6068e-06 -4.19934e-08 0)
(-6.64477e-06 -1.74412e-06 0)
(-3.5467e-06 -3.54887e-06 0)
(7.42765e-07 -5.4183e-06 0)
(6.2592e-06 -7.32197e-06 0)
(1.30215e-05 -9.23532e-06 0)
(2.10346e-05 -1.11385e-05 0)
(3.02916e-05 -1.30151e-05 0)
(4.07752e-05 -1.48519e-05 0)
(5.24599e-05 -1.66376e-05 0)
(6.53128e-05 -1.83632e-05 0)
(7.92944e-05 -2.00206e-05 0)
(9.43602e-05 -2.16035e-05 0)
(0.000110461 -2.31061e-05 0)
(0.000127543 -2.45238e-05 0)
(0.00014555 -2.58526e-05 0)
(0.000164422 -2.70892e-05 0)
(0.000184097 -2.82308e-05 0)
(0.00020451 -2.92751e-05 0)
(0.000225597 -3.02202e-05 0)
(0.000247289 -3.10648e-05 0)
(0.000269518 -3.18079e-05 0)
(0.000292215 -3.24489e-05 0)
(0.000315311 -3.29873e-05 0)
(0.000338735 -3.34232e-05 0)
(0.000362417 -3.37571e-05 0)
(0.000386288 -3.39893e-05 0)
(0.000410277 -3.4121e-05 0)
(0.000434317 -3.41533e-05 0)
(0.000458339 -3.40875e-05 0)
(0.000482276 -3.39253e-05 0)
(0.000506061 -3.36687e-05 0)
(0.000529631 -3.33198e-05 0)
(0.000552922 -3.28808e-05 0)
(0.000575873 -3.23544e-05 0)
(0.000598423 -3.17431e-05 0)
(0.000620515 -3.10498e-05 0)
(0.000642093 -3.02777e-05 0)
(0.000663102 -2.94297e-05 0)
(0.000683491 -2.85093e-05 0)
(0.00070321 -2.75198e-05 0)
(0.000722213 -2.64647e-05 0)
(0.000740454 -2.53476e-05 0)
(0.000757892 -2.41723e-05 0)
(0.000774486 -2.29424e-05 0)
(0.0007902 -2.16617e-05 0)
(0.000804999 -2.0334e-05 0)
(0.000818851 -1.89633e-05 0)
(0.000831728 -1.75534e-05 0)
(0.000843602 -1.61081e-05 0)
(0.00085445 -1.46313e-05 0)
(0.00086425 -1.31269e-05 0)
(0.000872985 -1.15987e-05 0)
(0.000880638 -1.00506e-05 0)
(0.000887196 -8.48617e-06 0)
(0.00089265 -6.90925e-06 0)
(0.00089699 -5.32344e-06 0)
(0.000900211 -3.73235e-06 0)
(0.000902311 -2.13949e-06 0)
(0.000903288 -5.48314e-07 0)
(0.000903146 1.0378e-06 0)
(0.000901888 2.61557e-06 0)
(0.00089952 4.18179e-06 0)
(0.000896052 5.73329e-06 0)
(0.000891495 7.26704e-06 0)
(0.000885861 8.78006e-06 0)
(0.000879167 1.02695e-05 0)
(0.000871429 1.17325e-05 0)
(0.000862667 1.31664e-05 0)
(0.000852902 1.45685e-05 0)
(0.000842157 1.59362e-05 0)
(0.000830457 1.72671e-05 0)
(0.000817828 1.85588e-05 0)
(0.0008043 1.98088e-05 0)
(0.000789902 2.10149e-05 0)
(0.000774667 2.21748e-05 0)
(0.000758626 2.32863e-05 0)
(0.000741816 2.43472e-05 0)
(0.000724273 2.53555e-05 0)
(0.000706035 2.63091e-05 0)
(0.000687141 2.72059e-05 0)
(0.000667632 2.80439e-05 0)
(0.000647551 2.8821e-05 0)
(0.000626942 2.95353e-05 0)
(0.000605849 3.01848e-05 0)
(0.000584319 3.07675e-05 0)
(0.0005624 3.12815e-05 0)
(0.000540142 3.17247e-05 0)
(0.000517595 3.20951e-05 0)
(0.000494811 3.23909e-05 0)
(0.000471844 3.261e-05 0)
(0.000448747 3.27503e-05 0)
(0.000425577 3.281e-05 0)
(0.000402392 3.27871e-05 0)
(0.000379249 3.26795e-05 0)
(0.000356209 3.24853e-05 0)
(0.000333332 3.22026e-05 0)
(0.000310679 3.18296e-05 0)
(0.000288315 3.13643e-05 0)
(0.000266303 3.08051e-05 0)
(0.000244707 3.01504e-05 0)
(0.000223594 2.93986e-05 0)
(0.000203029 2.85484e-05 0)
(0.000183079 2.75988e-05 0)
(0.00016381 2.65491e-05 0)
(0.000145289 2.53987e-05 0)
(0.000127582 2.41477e-05 0)
(0.000110754 2.27967e-05 0)
(9.48692e-05 2.13471e-05 0)
(7.99885e-05 1.98011e-05 0)
(6.61713e-05 1.81622e-05 0)
(5.34729e-05 1.6435e-05 0)
(4.19439e-05 1.46264e-05 0)
(3.16285e-05 1.27454e-05 0)
(2.25635e-05 1.08041e-05 0)
(1.47757e-05 8.81873e-06 0)
(8.27942e-06 6.81043e-06 0)
(3.07363e-06 4.80713e-06 0)
(-8.61937e-07 2.84546e-06 0)
(-3.57143e-06 9.73387e-07 0)
(-5.1287e-06 -7.46532e-07 0)
(-5.64356e-06 -2.23324e-06 0)
(-5.26896e-06 -3.38253e-06 0)
(-4.21233e-06 -4.06241e-06 0)
(-2.75797e-06 -4.10968e-06 0)
(-1.29311e-06 -3.33045e-06 0)
(-1.86999e-07 -1.51592e-06 0)
(-1.78958e-07 2.87242e-06 0)
(-1.30986e-06 6.49297e-06 0)
(-2.80157e-06 8.26363e-06 0)
(-4.26647e-06 8.48376e-06 0)
(-5.28287e-06 7.42685e-06 0)
(-5.52144e-06 5.33251e-06 0)
(-4.71879e-06 2.40836e-06 0)
(-2.65929e-06 -1.16781e-06 0)
(8.32249e-07 -5.2454e-06 0)
(5.89451e-06 -9.69789e-06 0)
(1.26336e-05 -1.44195e-05 0)
(2.11269e-05 -1.93216e-05 0)
(3.14267e-05 -2.43304e-05 0)
(4.35631e-05 -2.93838e-05 0)
(5.7547e-05 -3.44297e-05 0)
(7.33723e-05 -3.94239e-05 0)
(9.10182e-05 -4.43291e-05 0)
(0.000110451 -4.91137e-05 0)
(0.000131625 -5.37504e-05 0)
(0.000154486 -5.8216e-05 0)
(0.000178971 -6.24905e-05 0)
(0.000205007 -6.65569e-05 0)
(0.000232518 -7.04005e-05 0)
(0.000261419 -7.40086e-05 0)
(0.000291623 -7.73707e-05 0)
(0.000323037 -8.04777e-05 0)
(0.000355565 -8.33221e-05 0)
(0.000389107 -8.58977e-05 0)
(0.000423561 -8.81999e-05 0)
(0.000458825 -9.02247e-05 0)
(0.000494792 -9.19698e-05 0)
(0.000531357 -9.34336e-05 0)
(0.000568412 -9.46154e-05 0)
(0.00060585 -9.55156e-05 0)
(0.000643565 -9.61354e-05 0)
(0.000681448 -9.64769e-05 0)
(0.000719395 -9.65429e-05 0)
(0.000757299 -9.63369e-05 0)
(0.000795058 -9.58632e-05 0)
(0.00083257 -9.51268e-05 0)
(0.000869734 -9.41332e-05 0)
(0.000906453 -9.28886e-05 0)
(0.00094263 -9.13998e-05 0)
(0.000978173 -8.9674e-05 0)
(0.00101299 -8.7719e-05 0)
(0.001047 -8.55429e-05 0)
(0.00108011 -8.31544e-05 0)
(0.00111225 -8.05625e-05 0)
(0.00114333 -7.77764e-05 0)
(0.00117328 -7.48058e-05 0)
(0.00120204 -7.16606e-05 0)
(0.00122953 -6.83509e-05 0)
(0.0012557 -6.48871e-05 0)
(0.00128048 -6.12795e-05 0)
(0.00130382 -5.75388e-05 0)
(0.00132568 -5.36757e-05 0)
(0.001346 -4.9701e-05 0)
(0.00136474 -4.56254e-05 0)
(0.00138187 -4.14597e-05 0)
(0.00139735 -3.72148e-05 0)
(0.00141115 -3.29012e-05 0)
(0.00142325 -2.85296e-05 0)
(0.00143363 -2.41106e-05 0)
(0.00144226 -1.96545e-05 0)
(0.00144914 -1.51717e-05 0)
(0.00145425 -1.06723e-05 0)
(0.0014576 -6.16623e-06 0)
(0.00145918 -1.66324e-06 0)
(0.00145899 2.82709e-06 0)
(0.00145703 7.2954e-06 0)
(0.00145333 1.17325e-05 0)
(0.00144788 1.61295e-05 0)
(0.00144072 2.04777e-05 0)
(0.00143185 2.47685e-05 0)
(0.00142131 2.89937e-05 0)
(0.00140912 3.31452e-05 0)
(0.0013953 3.72153e-05 0)
(0.0013799 4.11962e-05 0)
(0.00136295 4.50806e-05 0)
(0.00134448 4.88612e-05 0)
(0.00132454 5.25311e-05 0)
(0.00130318 5.60834e-05 0)
(0.00128044 5.95113e-05 0)
(0.00125637 6.28085e-05 0)
(0.00123103 6.59686e-05 0)
(0.00120446 6.89852e-05 0)
(0.00117674 7.18524e-05 0)
(0.00114791 7.45641e-05 0)
(0.00111803 7.71144e-05 0)
(0.00108719 7.94975e-05 0)
(0.00105543 8.17078e-05 0)
(0.00102283 8.37394e-05 0)
(0.00098947 8.5587e-05 0)
(0.000955411 8.72448e-05 0)
(0.000920732 8.87075e-05 0)
(0.000885513 8.99694e-05 0)
(0.000849831 9.10253e-05 0)
(0.000813769 9.18698e-05 0)
(0.000777412 9.24975e-05 0)
(0.000740844 9.29032e-05 0)
(0.000704153 9.30816e-05 0)
(0.000667428 9.30278e-05 0)
(0.000630761 9.27367e-05 0)
(0.000594245 9.22034e-05 0)
(0.000557973 9.14234e-05 0)
(0.000522041 9.03922e-05 0)
(0.000486546 8.91057e-05 0)
(0.000451587 8.75601e-05 0)
(0.000417262 8.57521e-05 0)
(0.000383671 8.36791e-05 0)
(0.000350914 8.13388e-05 0)
(0.000319091 7.873e-05 0)
(0.000288301 7.58525e-05 0)
(0.000258643 7.27073e-05 0)
(0.000230214 6.92969e-05 0)
(0.000203109 6.56254e-05 0)
(0.000177421 6.16994e-05 0)
(0.000153238 5.75281e-05 0)
(0.000130642 5.3124e-05 0)
(0.00010971 4.85034e-05 0)
(9.05119e-05 4.36879e-05 0)
(7.31059e-05 3.87049e-05 0)
(5.75395e-05 3.35895e-05 0)
(4.38451e-05 2.83861e-05 0)
(3.20382e-05 2.31504e-05 0)
(2.21129e-05 1.79527e-05 0)
(1.40388e-05 1.28805e-05 0)
(7.75559e-06 8.04363e-06 0)
(3.16848e-06 3.57825e-06 0)
(1.42129e-07 -3.46568e-07 0)
(-1.50514e-06 -3.5226e-06 0)
(-2.01017e-06 -5.69542e-06 0)
(-1.68293e-06 -6.55668e-06 0)
(-9.28994e-07 -5.73324e-06 0)
(-1.54216e-07 -2.77616e-06 0)
(-1.26816e-07 4.02649e-06 0)
(-7.56758e-07 8.67048e-06 0)
(-1.30996e-06 1.04066e-05 0)
(-1.39356e-06 9.72871e-06 0)
(-6.04e-07 7.05372e-06 0)
(1.3862e-06 2.73794e-06 0)
(4.84606e-06 -2.91051e-06 0)
(9.99958e-06 -9.62484e-06 0)
(1.70315e-05 -1.71752e-05 0)
(2.60904e-05 -2.53638e-05 0)
(3.72917e-05 -3.40214e-05 0)
(5.07212e-05 -4.30025e-05 0)
(6.64373e-05 -5.21823e-05 0)
(8.44743e-05 -6.14538e-05 0)
(0.000104844 -7.07246e-05 0)
(0.00012754 -7.99153e-05 0)
(0.000152536 -8.89572e-05 0)
(0.000179791 -9.77907e-05 0)
(0.000209251 -0.000106364 0)
(0.000240847 -0.000114633 0)
(0.000274501 -0.000122558 0)
(0.000310124 -0.000130106 0)
(0.000347619 -0.000137247 0)
(0.00038688 -0.000143955 0)
(0.000427797 -0.00015021 0)
(0.00047025 -0.000155993 0)
(0.000514118 -0.000161288 0)
(0.000559274 -0.000166083 0)
(0.000605587 -0.000170366 0)
(0.000652923 -0.000174131 0)
(0.000701148 -0.000177371 0)
(0.000750124 -0.000180082 0)
(0.000799713 -0.000182263 0)
(0.000849775 -0.000183913 0)
(0.000900171 -0.000185035 0)
(0.000950764 -0.00018563 0)
(0.00100141 -0.000185704 0)
(0.00105198 -0.000185264 0)
(0.00110234 -0.000184316 0)
(0.00115235 -0.00018287 0)
(0.00120188 -0.000180937 0)
(0.00125081 -0.000178526 0)
(0.001299 -0.000175651 0)
(0.00134634 -0.000172325 0)
(0.00139271 -0.000168563 0)
(0.00143799 -0.00016438 0)
(0.00148208 -0.000159791 0)
(0.00152486 -0.000154814 0)
(0.00156624 -0.000149467 0)
(0.00160611 -0.000143767 0)
(0.00164439 -0.000137732 0)
(0.00168099 -0.000131383 0)
(0.00171583 -0.000124738 0)
(0.00174882 -0.000117817 0)
(0.0017799 -0.00011064 0)
(0.001809 -0.000103228 0)
(0.00183607 -9.56013e-05 0)
(0.00186103 -8.77795e-05 0)
(0.00188385 -7.97836e-05 0)
(0.00190447 -7.16339e-05 0)
(0.00192286 -6.3351e-05 0)
(0.00193899 -5.49551e-05 0)
(0.00195283 -4.64662e-05 0)
(0.00196434 -3.79044e-05 0)
(0.00197352 -2.92891e-05 0)
(0.00198036 -2.06399e-05 0)
(0.00198483 -1.19759e-05 0)
(0.00198695 -3.31567e-06 0)
(0.00198672 5.32225e-06 0)
(0.00198413 1.39198e-05 0)
(0.00197922 2.24595e-05 0)
(0.00197198 3.09239e-05 0)
(0.00196245 3.92963e-05 0)
(0.00195065 4.75601e-05 0)
(0.00193661 5.56994e-05 0)
(0.00192037 6.36986e-05 0)
(0.00190196 7.15425e-05 0)
(0.00188143 7.92161e-05 0)
(0.00185884 8.67052e-05 0)
(0.00183422 9.39957e-05 0)
(0.00180763 0.000101074 0)
(0.00177914 0.000107927 0)
(0.00174881 0.00011454 0)
(0.0017167 0.000120903 0)
(0.00168288 0.000127002 0)
(0.00164743 0.000132826 0)
(0.00161042 0.000138361 0)
(0.00157194 0.000143598 0)
(0.00153206 0.000148523 0)
(0.00149087 0.000153127 0)
(0.00144846 0.000157399 0)
(0.00140493 0.000161326 0)
(0.00136036 0.000164899 0)
(0.00131485 0.000168108 0)
(0.00126851 0.000170941 0)
(0.00122144 0.000173388 0)
(0.00117375 0.000175441 0)
(0.00112553 0.000177087 0)
(0.00107691 0.000178318 0)
(0.00102799 0.000179125 0)
(0.000978898 0.000179497 0)
(0.00092974 0.000179427 0)
(0.000880641 0.000178904 0)
(0.000831721 0.000177921 0)
(0.000783103 0.00017647 0)
(0.000734912 0.000174544 0)
(0.000687273 0.000172136 0)
(0.000640315 0.00016924 0)
(0.000594164 0.000165852 0)
(0.000548948 0.000161969 0)
(0.000504795 0.000157588 0)
(0.000461833 0.000152709 0)
(0.000420187 0.000147333 0)
(0.000379983 0.000141466 0)
(0.000341342 0.000135115 0)
(0.000304382 0.00012829 0)
(0.000269218 0.000121006 0)
(0.000235958 0.000113284 0)
(0.000204705 0.00010515 0)
(0.00017555 9.66365e-05 0)
(0.000148578 8.77865e-05 0)
(0.000123858 7.86521e-05 0)
(0.000101449 6.92981e-05 0)
(8.13878e-05 5.98044e-05 0)
(6.36959e-05 5.02689e-05 0)
(4.83697e-05 4.08108e-05 0)
(3.53793e-05 3.15755e-05 0)
(2.46649e-05 2.27389e-05 0)
(1.61322e-05 1.4514e-05 0)
(9.64811e-06 7.15744e-06 0)
(5.03629e-06 9.77325e-07 0)
(2.07122e-06 -3.65831e-06 0)
(4.69577e-07 -6.3103e-06 0)
(-1.19518e-07 -6.44923e-06 0)
(-7.82171e-08 -3.42852e-06 0)
(-5.89339e-08 4.47964e-06 0)
(2.53174e-08 8.9705e-06 0)
(7.85814e-07 9.63126e-06 0)
(2.58674e-06 7.08977e-06 0)
(5.77044e-06 1.87622e-06 0)
(1.06311e-05 -5.55432e-06 0)
(1.74192e-05 -1.4805e-05 0)
(2.63463e-05 -2.55283e-05 0)
(3.75882e-05 -3.74206e-05 0)
(5.12871e-05 -5.02165e-05 0)
(6.75544e-05 -6.36842e-05 0)
(8.64722e-05 -7.76212e-05 0)
(0.000108096 -9.18504e-05 0)
(0.000132457 -0.000106217 0)
(0.000159562 -0.000120585 0)
(0.000189398 -0.000134836 0)
(0.000221934 -0.000148866 0)
(0.000257119 -0.000162582 0)
(0.000294889 -0.000175905 0)
(0.000335163 -0.000188764 0)
(0.000377849 -0.000201096 0)
(0.000422843 -0.000212848 0)
(0.000470029 -0.000223972 0)
(0.000519285 -0.000234426 0)
(0.000570479 -0.000244175 0)
(0.00062347 -0.000253188 0)
(0.000678115 -0.000261439 0)
(0.000734262 -0.000268907 0)
(0.000791757 -0.000275573 0)
(0.000850441 -0.000281424 0)
(0.000910153 -0.000286449 0)
(0.000970727 -0.000290641 0)
(0.001032 -0.000293996 0)
(0.0010938 -0.000296513 0)
(0.00115597 -0.000298194 0)
(0.00121834 -0.000299043 0)
(0.00128074 -0.000299066 0)
(0.00134301 -0.000298273 0)
(0.00140499 -0.000296676 0)
(0.00146651 -0.000294288 0)
(0.00152742 -0.000291124 0)
(0.00158757 -0.000287203 0)
(0.00164679 -0.000282543 0)
(0.00170496 -0.000277165 0)
(0.00176191 -0.000271093 0)
(0.00181752 -0.000264349 0)
(0.00187165 -0.000256958 0)
(0.00192417 -0.000248949 0)
(0.00197496 -0.000240347 0)
(0.0020239 -0.000231182 0)
(0.00207088 -0.000221482 0)
(0.0021158 -0.000211278 0)
(0.00215854 -0.000200601 0)
(0.00219903 -0.000189482 0)
(0.00223716 -0.000177952 0)
(0.00227287 -0.000166045 0)
(0.00230607 -0.000153791 0)
(0.0023367 -0.000141224 0)
(0.00236469 -0.000128377 0)
(0.00239 -0.000115281 0)
(0.00241256 -0.00010197 0)
(0.00243235 -8.84753e-05 0)
(0.00244932 -7.48295e-05 0)
(0.00246345 -6.10643e-05 0)
(0.00247471 -4.72112e-05 0)
(0.0024831 -3.33011e-05 0)
(0.00248859 -1.93647e-05 0)
(0.00249118 -5.43212e-06 0)
(0.00249088 8.46719e-06 0)
(0.0024877 2.23042e-05 0)
(0.00248166 3.60504e-05 0)
(0.00247276 4.96782e-05 0)
(0.00246105 6.31603e-05 0)
(0.00244654 7.64702e-05 0)
(0.00242928 8.9582e-05 0)
(0.00240932 0.000102471 0)
(0.00238669 0.000115111 0)
(0.00236145 0.00012748 0)
(0.00233367 0.000139553 0)
(0.00230339 0.000151309 0)
(0.0022707 0.000162724 0)
(0.00223566 0.000173777 0)
(0.00219835 0.000184448 0)
(0.00215885 0.000194715 0)
(0.00211724 0.000204559 0)
(0.00207362 0.00021396 0)
(0.00202808 0.000222898 0)
(0.00198072 0.000231356 0)
(0.00193163 0.000239315 0)
(0.00188092 0.000246756 0)
(0.0018287 0.000253663 0)
(0.00177509 0.000260017 0)
(0.0017202 0.000265802 0)
(0.00166414 0.000271002 0)
(0.00160704 0.000275599 0)
(0.00154903 0.000279579 0)
(0.00149024 0.000282924 0)
(0.00143078 0.00028562 0)
(0.00137081 0.000287652 0)
(0.00131046 0.000289005 0)
(0.00124986 0.000289665 0)
(0.00118916 0.000289619 0)
(0.0011285 0.000288853 0)
(0.00106803 0.000287357 0)
(0.0010079 0.000285118 0)
(0.00094825 0.000282126 0)
(0.000889239 0.000278374 0)
(0.000831015 0.000273853 0)
(0.000773731 0.000268558 0)
(0.000717539 0.000262487 0)
(0.000662588 0.000255637 0)
(0.000609031 0.000248012 0)
(0.000557014 0.000239616 0)
(0.000506685 0.00023046 0)
(0.000458184 0.000220557 0)
(0.000411651 0.000209928 0)
(0.000367217 0.000198598 0)
(0.000325009 0.000186603 0)
(0.000285144 0.000173985 0)
(0.00024773 0.000160797 0)
(0.000212863 0.000147106 0)
(0.000180627 0.000132993 0)
(0.00015109 0.000118555 0)
(0.000124301 0.000103911 0)
(0.000100292 8.92007e-05 0)
(7.90701e-05 7.45942e-05 0)
(6.06171e-05 6.02927e-05 0)
(4.48873e-05 4.65352e-05 0)
(3.1804e-05 3.36047e-05 0)
(2.12563e-05 2.18354e-05 0)
(1.3096e-05 1.16204e-05 0)
(7.13554e-06 3.42088e-06 0)
(3.15019e-06 -2.22225e-06 0)
(8.84498e-07 -4.66735e-06 0)
(8.55006e-09 -3.14348e-06 0)
(1.46912e-08 4.09021e-06 0)
(9.1201e-07 6.98532e-06 0)
(3.18318e-06 5.30699e-06 0)
(7.15229e-06 -2.35866e-07 0)
(1.30799e-05 -9.03455e-06 0)
(2.1209e-05 -2.05587e-05 0)
(3.17559e-05 -3.43395e-05 0)
(4.49055e-05 -4.99613e-05 0)
(6.08116e-05 -6.70553e-05 0)
(7.95986e-05 -8.52949e-05 0)
(0.000101363 -0.00010439 0)
(0.000126174 -0.000124085 0)
(0.000154077 -0.00014415 0)
(0.000185091 -0.000164384 0)
(0.000219214 -0.000184607 0)
(0.000256424 -0.000204659 0)
(0.000296676 -0.000224398 0)
(0.000339912 -0.000243699 0)
(0.000386052 -0.00026245 0)
(0.000435005 -0.000280551 0)
(0.000486664 -0.000297915 0)
(0.000540909 -0.000314464 0)
(0.00059761 -0.000330129 0)
(0.000656625 -0.000344851 0)
(0.000717805 -0.000358577 0)
(0.000780991 -0.000371262 0)
(0.000846017 -0.000382869 0)
(0.000912713 -0.000393363 0)
(0.000980901 -0.00040272 0)
(0.0010504 -0.000410917 0)
(0.00112103 -0.000417938 0)
(0.00119259 -0.000423772 0)
(0.00126491 -0.000428413 0)
(0.00133779 -0.000431856 0)
(0.00141103 -0.000434105 0)
(0.00148446 -0.000435164 0)
(0.00155787 -0.000435041 0)
(0.00163109 -0.000433751 0)
(0.00170392 -0.000431307 0)
(0.00177618 -0.00042773 0)
(0.00184768 -0.00042304 0)
(0.00191826 -0.000417262 0)
(0.00198773 -0.000410424 0)
(0.00205594 -0.000402555 0)
(0.0021227 -0.000393687 0)
(0.00218787 -0.000383853 0)
(0.00225129 -0.000373089 0)
(0.00231281 -0.000361434 0)
(0.00237229 -0.000348925 0)
(0.00242959 -0.000335605 0)
(0.00248458 -0.000321513 0)
(0.00253715 -0.000306695 0)
(0.00258717 -0.000291193 0)
(0.00263454 -0.000275052 0)
(0.00267915 -0.000258319 0)
(0.00272092 -0.000241038 0)
(0.00275974 -0.000223256 0)
(0.00279556 -0.00020502 0)
(0.00282829 -0.000186377 0)
(0.00285787 -0.000167374 0)
(0.00288424 -0.000148057 0)
(0.00290736 -0.000128472 0)
(0.00292719 -0.000108667 0)
(0.00294368 -8.86866e-05 0)
(0.00295682 -6.85765e-05 0)
(0.00296659 -4.83815e-05 0)
(0.00297297 -2.81458e-05 0)
(0.00297596 -7.91295e-06 0)
(0.00297557 1.22742e-05 0)
(0.0029718 3.23738e-05 0)
(0.00296466 5.23445e-05 0)
(0.0029542 7.2146e-05 0)
(0.00294042 9.1739e-05 0)
(0.00292338 0.000111085 0)
(0.00290312 0.000130146 0)
(0.00287967 0.000148885 0)
(0.00285311 0.000167267 0)
(0.00282349 0.000185257 0)
(0.00279088 0.000202821 0)
(0.00275535 0.000219924 0)
(0.00271697 0.000236537 0)
(0.00267585 0.000252625 0)
(0.00263205 0.00026816 0)
(0.00258569 0.000283111 0)
(0.00253685 0.000297449 0)
(0.00248563 0.000311145 0)
(0.00243216 0.000324172 0)
(0.00237654 0.000336502 0)
(0.0023189 0.000348109 0)
(0.00225934 0.000358967 0)
(0.002198 0.00036905 0)
(0.00213501 0.000378334 0)
(0.0020705 0.000386795 0)
(0.00200461 0.000394408 0)
(0.00193749 0.00040115 0)
(0.00186927 0.000406998 0)
(0.00180011 0.000411931 0)
(0.00173016 0.000415927 0)
(0.00165957 0.000418966 0)
(0.00158851 0.000421026 0)
(0.00151713 0.00042209 0)
(0.00144559 0.000422138 0)
(0.00137406 0.000421153 0)
(0.00130271 0.000419121 0)
(0.00123172 0.000416026 0)
(0.00116124 0.000411856 0)
(0.00109145 0.0004066 0)
(0.00102252 0.000400251 0)
(0.00095463 0.000392802 0)
(0.000887948 0.000384251 0)
(0.000822646 0.000374599 0)
(0.000758892 0.000363853 0)
(0.000696855 0.000352023 0)
(0.0006367 0.000339124 0)
(0.000578585 0.00032518 0)
(0.000522667 0.000310222 0)
(0.000469094 0.000294288 0)
(0.000418008 0.00027743 0)
(0.000369543 0.000259708 0)
(0.000323822 0.000241198 0)
(0.000280955 0.000221992 0)
(0.000241041 0.000202198 0)
(0.000204163 0.000181949 0)
(0.000170386 0.000161399 0)
(0.000139758 0.000140731 0)
(0.000112304 0.000120161 0)
(8.80297e-05 9.99403e-05 0)
(6.69128e-05 8.03641e-05 0)
(4.89067e-05 6.17749e-05 0)
(3.39363e-05 4.45707e-05 0)
(2.18965e-05 2.92118e-05 0)
(1.26529e-05 1.62291e-05 0)
(6.05565e-06 6.23443e-06 0)
(1.96107e-06 -5.9764e-08 0)
(9.77578e-08 -1.81552e-06 0)
(8.83902e-08 2.80187e-06 0)
(1.83549e-06 2.52225e-06 0)
(5.70633e-06 -2.89545e-06 0)
(1.19857e-05 -1.26987e-05 0)
(2.08464e-05 -2.6229e-05 0)
(3.24724e-05 -4.29025e-05 0)
(4.70375e-05 -6.21958e-05 0)
(6.46913e-05 -8.36377e-05 0)
(8.55571e-05 -0.000106805 0)
(0.000109733 -0.000131318 0)
(0.000137294 -0.000156835 0)
(0.000168289 -0.000183048 0)
(0.000202744 -0.000209683 0)
(0.000240664 -0.000236492 0)
(0.000282031 -0.000263251 0)
(0.000326808 -0.000289761 0)
(0.000374938 -0.000315843 0)
(0.000426345 -0.000341335 0)
(0.000480939 -0.000366093 0)
(0.00053861 -0.000389988 0)
(0.000599239 -0.000412905 0)
(0.000662689 -0.000434742 0)
(0.000728813 -0.000455406 0)
(0.000797453 -0.000474818 0)
(0.000868442 -0.000492908 0)
(0.000941603 -0.000509615 0)
(0.00101675 -0.000524886 0)
(0.0010937 -0.000538677 0)
(0.00117224 -0.000550951 0)
(0.00125218 -0.000561679 0)
(0.00133332 -0.000570837 0)
(0.00141544 -0.00057841 0)
(0.00149833 -0.000584387 0)
(0.00158179 -0.000588763 0)
(0.0016656 -0.00059154 0)
(0.00174954 -0.000592724 0)
(0.00183341 -0.000592326 0)
(0.00191699 -0.000590361 0)
(0.00200008 -0.00058685 0)
(0.00208248 -0.000581818 0)
(0.00216397 -0.000575293 0)
(0.00224437 -0.000567308 0)
(0.00232347 -0.000557898 0)
(0.00240109 -0.000547101 0)
(0.00247705 -0.000534962 0)
(0.00255116 -0.000521524 0)
(0.00262326 -0.000506835 0)
(0.00269318 -0.000490946 0)
(0.00276075 -0.000473908 0)
(0.00282584 -0.000455776 0)
(0.00288828 -0.000436605 0)
(0.00294796 -0.000416454 0)
(0.00300473 -0.000395381 0)
(0.00305847 -0.000373446 0)
(0.00310908 -0.00035071 0)
(0.00315644 -0.000327234 0)
(0.00320047 -0.000303082 0)
(0.00324106 -0.000278316 0)
(0.00327814 -0.000252998 0)
(0.00331165 -0.000227191 0)
(0.00334151 -0.000200959 0)
(0.00336767 -0.000174365 0)
(0.00339008 -0.000147469 0)
(0.00340872 -0.000120335 0)
(0.00342354 -9.30232e-05 0)
(0.00343453 -6.55945e-05 0)
(0.00344167 -3.81084e-05 0)
(0.00344497 -1.06238e-05 0)
(0.00344442 1.68015e-05 0)
(0.00344003 4.41105e-05 0)
(0.00343182 7.12475e-05 0)
(0.00341983 9.81578e-05 0)
(0.00340408 0.000124788 0)
(0.00338462 0.000151086 0)
(0.00336149 0.000177 0)
(0.00333475 0.000202481 0)
(0.00330446 0.00022748 0)
(0.0032707 0.000251949 0)
(0.00323353 0.000275842 0)
(0.00319305 0.000299114 0)
(0.00314933 0.000321722 0)
(0.00310248 0.000343621 0)
(0.00305259 0.000364771 0)
(0.00299976 0.000385132 0)
(0.00294412 0.000404662 0)
(0.00288578 0.000423324 0)
(0.00282486 0.00044108 0)
(0.00276148 0.000457894 0)
(0.00269579 0.000473728 0)
(0.00262791 0.000488549 0)
(0.00255799 0.000502322 0)
(0.00248618 0.000515014 0)
(0.00241263 0.000526593 0)
(0.00233749 0.000537026 0)
(0.00226091 0.000546282 0)
(0.00218307 0.000554332 0)
(0.00210414 0.000561147 0)
(0.00202427 0.000566699 0)
(0.00194364 0.00057096 0)
(0.00186244 0.000573905 0)
(0.00178084 0.000575508 0)
(0.00169901 0.000575748 0)
(0.00161716 0.000574602 0)
(0.00153545 0.000572051 0)
(0.00145409 0.000568077 0)
(0.00137326 0.000562666 0)
(0.00129314 0.000555806 0)
(0.00121394 0.000547487 0)
(0.00113584 0.000537704 0)
(0.00105903 0.000526458 0)
(0.000983709 0.000513751 0)
(0.000910053 0.000499594 0)
(0.00083825 0.000484004 0)
(0.000768481 0.000467003 0)
(0.000700924 0.000448625 0)
(0.000635751 0.000428912 0)
(0.000573126 0.000407917 0)
(0.000513207 0.000385706 0)
(0.000456145 0.00036236 0)
(0.000402077 0.000337976 0)
(0.000351134 0.00031267 0)
(0.000303429 0.00028658 0)
(0.000259066 0.000259867 0)
(0.000218129 0.000232722 0)
(0.00018069 0.000205364 0)
(0.000146799 0.00017805 0)
(0.000116489 0.000151075 0)
(8.9771e-05 0.00012478 0)
(6.66373e-05 9.95558e-05 0)
(4.70572e-05 7.58495e-05 0)
(3.09765e-05 5.41706e-05 0)
(1.83213e-05 3.50984e-05 0)
(9.02217e-06 1.92895e-05 0)
(3.04893e-06 7.4954e-06 0)
(1.84728e-07 5.8297e-07 0)
(1.59833e-07 6.04232e-07 0)
(2.76039e-06 -4.4839e-06 0)
(8.25761e-06 -1.51136e-05 0)
(1.69028e-05 -3.05126e-05 0)
(2.87831e-05 -4.99931e-05 0)
(4.40222e-05 -7.29353e-05 0)
(6.27484e-05 -9.87752e-05 0)
(8.50716e-05 -0.000126999 0)
(0.00011108 -0.000157138 0)
(0.00014084 -0.000188767 0)
(0.000174399 -0.0002215 0)
(0.000211781 -0.000254984 0)
(0.000252989 -0.0002889 0)
(0.000298008 -0.000322959 0)
(0.0003468 -0.000356896 0)
(0.000399308 -0.000390473 0)
(0.000455459 -0.000423473 0)
(0.00051516 -0.000455701 0)
(0.000578302 -0.000486981 0)
(0.000644761 -0.000517153 0)
(0.000714398 -0.000546073 0)
(0.000787061 -0.000573613 0)
(0.000862585 -0.00059966 0)
(0.000940796 -0.000624111 0)
(0.00102151 -0.000646878 0)
(0.00110452 -0.000667882 0)
(0.00118964 -0.000687056 0)
(0.00127665 -0.000704344 0)
(0.00136534 -0.000719696 0)
(0.00145548 -0.000733076 0)
(0.00154686 -0.000744452 0)
(0.00163923 -0.000753804 0)
(0.00173238 -0.000761117 0)
(0.00182607 -0.000766384 0)
(0.00192007 -0.000769606 0)
(0.00201414 -0.00077079 0)
(0.00210805 -0.000769949 0)
(0.00220158 -0.000767104 0)
(0.0022945 -0.000762279 0)
(0.00238658 -0.000755506 0)
(0.0024776 -0.000746819 0)
(0.00256734 -0.000736261 0)
(0.00265559 -0.000723876 0)
(0.00274215 -0.000709714 0)
(0.00282682 -0.000693829 0)
(0.00290939 -0.000676277 0)
(0.00298969 -0.000657121 0)
(0.00306752 -0.000636422 0)
(0.00314272 -0.000614249 0)
(0.00321512 -0.00059067 0)
(0.00328456 -0.000565758 0)
(0.00335089 -0.000539584 0)
(0.00341398 -0.000512225 0)
(0.00347368 -0.000483758 0)
(0.00352987 -0.00045426 0)
(0.00358244 -0.00042381 0)
(0.00363129 -0.000392489 0)
(0.0036763 -0.000360377 0)
(0.00371741 -0.000327553 0)
(0.00375453 -0.0002941 0)
(0.00378758 -0.000260098 0)
(0.00381652 -0.000225627 0)
(0.00384129 -0.000190768 0)
(0.00386185 -0.0001556 0)
(0.00387817 -0.000120201 0)
(0.00389022 -8.46498e-05 0)
(0.00389799 -4.90232e-05 0)
(0.00390148 -1.33968e-05 0)
(0.0039007 2.21546e-05 0)
(0.00389564 5.75577e-05 0)
(0.00388634 9.27407e-05 0)
(0.00387283 0.000127633 0)
(0.00385514 0.000162165 0)
(0.00383331 0.00019627 0)
(0.00380741 0.000229882 0)
(0.00377749 0.000262935 0)
(0.00374363 0.000295367 0)
(0.00370589 0.000327117 0)
(0.00366437 0.000358125 0)
(0.00361915 0.000388332 0)
(0.00357033 0.000417681 0)
(0.00351802 0.000446118 0)
(0.00346232 0.000473587 0)
(0.00340335 0.000500038 0)
(0.00334124 0.000525418 0)
(0.00327612 0.000549677 0)
(0.00320811 0.000572767 0)
(0.00313736 0.000594641 0)
(0.00306402 0.000615252 0)
(0.00298824 0.000634556 0)
(0.00291017 0.000652509 0)
(0.00282997 0.000669068 0)
(0.00274781 0.000684191 0)
(0.00266385 0.00069784 0)
(0.00257828 0.000709973 0)
(0.00249128 0.000720554 0)
(0.00240301 0.000729546 0)
(0.00231368 0.000736914 0)
(0.00222347 0.000742625 0)
(0.00213257 0.000746645 0)
(0.00204118 0.000748946 0)
(0.00194949 0.000749498 0)
(0.00185772 0.000748277 0)
(0.00176605 0.000745258 0)