/*--------------------------------*- C++ -*----------------------------------*\
  =========                 |
  \\      /  F ield         | OpenFOAM: The Open Source CFD Toolbox
   \\    /   O peration     | Website:  https://openfoam.org
    \\  /    A nd           | Version:  12
     \\/     M anipulation  |
\*---------------------------------------------------------------------------*/
FoamFile
{
    format      ascii;
    class       volScalarField;
    location    "3";
    object      epsilon;
}
// * * * * * * * * * * * * * * * * * * * * * * * * * * * * * * * * * * * * * //

dimensions      [0 2 -3 0 0 0 0];

internalField   nonuniform List<scalar> 
5625
(
3.30587e-07
6.24264e-07
1.32331e-06
2.15784e-06
3.09796e-06
4.12113e-06
5.21088e-06
6.3545e-06
7.54161e-06
8.76319e-06
1.00112e-05
1.12782e-05
1.25572e-05
1.38418e-05
1.51257e-05
1.64028e-05
1.76674e-05
1.8914e-05
2.01372e-05
2.13319e-05
2.24932e-05
2.36163e-05
2.46968e-05
2.57303e-05
2.67128e-05
2.76405e-05
2.85097e-05
2.93171e-05
3.00595e-05
3.07342e-05
3.13385e-05
3.18701e-05
3.23269e-05
3.27073e-05
3.30097e-05
3.32328e-05
3.33759e-05
3.34383e-05
3.34198e-05
3.33202e-05
3.31398e-05
3.28792e-05
3.25391e-05
3.21209e-05
3.16259e-05
3.1056e-05
3.04131e-05
2.96995e-05
2.8918e-05
2.80713e-05
2.71627e-05
2.61956e-05
2.51736e-05
2.41009e-05
2.29815e-05
2.182e-05
2.06211e-05
1.93897e-05
1.8131e-05
1.68506e-05
1.55541e-05
1.42475e-05
1.2937e-05
1.16293e-05
1.03312e-05
9.05002e-06
7.79375e-06
6.57096e-06
5.39125e-06
4.26571e-06
3.20781e-06
2.23496e-06
1.37085e-06
6.46744e-07
3.42484e-07
2.23489e-06
1.21575e-06
1.18335e-06
1.41356e-06
1.76767e-06
2.19605e-06
2.67486e-06
3.19037e-06
3.73353e-06
4.29772e-06
4.87766e-06
5.46895e-06
6.0677e-06
6.67037e-06
7.27372e-06
7.87469e-06
8.4704e-06
9.0581e-06
9.63519e-06
1.01992e-05
1.07476e-05
1.12783e-05
1.1789e-05
1.22776e-05
1.27423e-05
1.31812e-05
1.35925e-05
1.39747e-05
1.43262e-05
1.46458e-05
1.4932e-05
1.5184e-05
1.54005e-05
1.55809e-05
1.57244e-05
1.58304e-05
1.58985e-05
1.59284e-05
1.592e-05
1.58732e-05
1.57881e-05
1.5665e-05
1.55043e-05
1.53066e-05
1.50725e-05
1.48029e-05
1.44987e-05
1.41611e-05
1.37914e-05
1.33908e-05
1.29609e-05
1.25035e-05
1.20202e-05
1.1513e-05
1.09839e-05
1.0435e-05
9.86877e-06
9.28751e-06
8.69381e-06
8.09036e-06
7.47999e-06
6.86572e-06
6.25074e-06
5.63848e-06
5.03265e-06
4.43738e-06
3.85734e-06
3.2981e-06
2.76665e-06
2.27249e-06
1.83e-06
1.464e-06
1.22602e-06
1.25986e-06
2.31585e-06
4.96697e-06
2.43464e-06
1.87779e-06
1.77319e-06
1.85921e-06
2.0504e-06
2.30826e-06
2.61184e-06
2.94827e-06
3.30885e-06
3.68726e-06
4.07865e-06
4.47908e-06
4.88522e-06
5.29416e-06
5.70331e-06
6.11031e-06
6.51297e-06
6.90927e-06
7.2973e-06
7.67526e-06
8.04147e-06
8.39433e-06
8.73232e-06
9.05404e-06
9.35814e-06
9.64338e-06
9.90861e-06
1.01528e-05
1.03748e-05
1.0574e-05
1.07493e-05
1.09002e-05
1.10261e-05
1.11263e-05
1.12006e-05
1.12485e-05
1.12699e-05
1.12646e-05
1.12327e-05
1.11741e-05
1.10891e-05
1.0978e-05
1.08411e-05
1.06789e-05
1.04921e-05
1.02813e-05
1.00473e-05
9.79105e-06
9.5135e-06
9.21577e-06
8.89906e-06
8.56469e-06
8.21404e-06
7.84864e-06
7.4701e-06
7.08015e-06
6.68063e-06
6.27351e-06
5.86091e-06
5.44511e-06
5.0286e-06
4.6141e-06
4.20468e-06
3.80385e-06
3.41576e-06
3.04551e-06
2.69972e-06
2.38746e-06
2.12215e-06
1.92554e-06
1.83759e-06
1.94692e-06
2.52477e-06
5.15053e-06
8.20811e-06
3.93773e-06
2.85555e-06
2.46226e-06
2.34235e-06
2.36657e-06
2.47942e-06
2.65186e-06
2.86656e-06
3.11214e-06
3.38063e-06
3.66606e-06
3.96382e-06
4.27017e-06
4.58197e-06
4.89654e-06
5.21153e-06
5.52481e-06
5.83446e-06
6.13872e-06
6.43597e-06
6.7247e-06
7.0035e-06
7.27107e-06
7.52617e-06
7.76767e-06
7.9945e-06
8.20568e-06
8.4003e-06
8.57754e-06
8.73664e-06
8.87693e-06
8.99782e-06
9.09878e-06
9.17938e-06
9.23927e-06
9.27816e-06
9.29587e-06
9.29229e-06
9.26744e-06
9.22127e-06
9.154e-06
9.06584e-06
8.95712e-06
8.82825e-06
8.67972e-06
8.5121e-06
8.32609e-06
8.12244e-06
7.902e-06
7.66572e-06
7.41464e-06
7.14989e-06
6.87272e-06
6.58446e-06
6.28655e-06
5.98056e-06
5.66819e-06
5.35129e-06
5.03188e-06
4.7122e-06
4.39475e-06
4.08237e-06
3.77836e-06
3.48667e-06
3.21214e-06
2.96096e-06
2.74145e-06
2.5654e-06
2.45085e-06
2.42794e-06
2.55424e-06
2.96382e-06
4.08791e-06
8.52073e-06
1.18058e-05
5.62274e-06
3.9888e-06
3.31458e-06
3.00904e-06
2.89207e-06
2.88842e-06
2.95984e-06
3.0841e-06
3.24696e-06
3.43861e-06
3.65189e-06
3.88136e-06
4.12269e-06
4.37233e-06
4.62732e-06
4.8851e-06
5.14344e-06
5.40038e-06
5.65414e-06
5.90311e-06
6.14581e-06
6.38088e-06
6.60707e-06
6.82323e-06
7.02827e-06
7.2212e-06
7.40112e-06
7.56718e-06
7.71862e-06
7.85475e-06
7.97495e-06
8.07867e-06
8.16544e-06
8.23485e-06
8.28658e-06
8.32036e-06
8.33603e-06
8.33347e-06
8.3127e-06
8.27368e-06
8.21658e-06
8.14161e-06
8.04906e-06
7.9393e-06
7.81279e-06
7.67007e-06
7.51175e-06
7.33855e-06
7.15127e-06
6.95079e-06
6.73812e-06
6.51433e-06
6.28061e-06
6.03826e-06
5.78871e-06
5.53352e-06
5.2744e-06
5.01324e-06
4.75214e-06
4.49349e-06
4.23997e-06
3.99472e-06
3.76146e-06
3.54472e-06
3.35021e-06
3.18538e-06
3.06043e-06
2.99012e-06
2.99753e-06
3.12233e-06
3.44266e-06
4.14562e-06
5.84541e-06
1.22731e-05
1.56608e-05
7.43501e-06
5.22313e-06
4.26583e-06
3.78205e-06
3.5358e-06
3.42984e-06
3.41563e-06
3.46548e-06
3.56204e-06
3.69352e-06
3.85148e-06
4.02956e-06
4.22282e-06
4.42725e-06
4.63956e-06
4.85695e-06
5.077e-06
5.29761e-06
5.51691e-06
5.73321e-06
5.945e-06
6.1509e-06
6.34963e-06
6.54005e-06
6.72111e-06
6.89183e-06
7.05132e-06
7.19877e-06
7.33344e-06
7.45466e-06
7.56183e-06
7.65442e-06
7.73199e-06
7.79413e-06
7.84053e-06
7.87095e-06
7.8852e-06
7.8832e-06
7.86496e-06
7.83041e-06
7.77974e-06
7.71315e-06
7.63091e-06
7.53338e-06
7.42101e-06
7.29432e-06
7.15392e-06
7.00051e-06
6.83488e-06
6.65792e-06
6.47062e-06
6.27407e-06
6.06947e-06
5.85816e-06
5.6416e-06
5.42141e-06
5.19939e-06
4.97754e-06
4.7581e-06
4.54364e-06
4.33716e-06
4.14215e-06
3.96283e-06
3.80441e-06
3.67348e-06
3.57879e-06
3.53255e-06
3.55278e-06
3.66821e-06
3.9293e-06
4.43711e-06
5.4372e-06
7.74258e-06
1.6309e-05
1.96981e-05
9.3364e-06
6.52596e-06
5.28158e-06
4.62241e-06
4.25318e-06
4.05311e-06
3.96251e-06
3.94779e-06
3.98813e-06
4.06966e-06
4.18255e-06
4.31949e-06
4.47487e-06
4.64418e-06
4.82377e-06
5.01056e-06
5.20192e-06
5.39559e-06
5.58956e-06
5.78207e-06
5.97152e-06
6.15649e-06
6.33567e-06
6.50789e-06
6.67205e-06
6.82718e-06
6.97238e-06
7.10682e-06
7.22978e-06
7.34059e-06
7.43865e-06
7.52345e-06
7.59453e-06
7.65151e-06
7.69407e-06
7.72199e-06
7.73508e-06
7.73325e-06
7.71653e-06
7.68484e-06
7.63838e-06
7.57733e-06
7.50199e-06
7.41271e-06
7.30993e-06
7.19419e-06
7.06611e-06
6.92641e-06
6.77588e-06
6.61543e-06
6.4461e-06
6.26898e-06
6.08534e-06
5.89656e-06
5.70419e-06
5.50994e-06
5.31575e-06
5.12378e-06
4.93646e-06
4.75662e-06
4.58749e-06
4.43297e-06
4.29773e-06
4.18769e-06
4.11043e-06
4.07615e-06
4.09922e-06
4.20124e-06
4.41716e-06
4.80903e-06
5.50266e-06
6.8058e-06
9.74144e-06
2.0554e-05
2.38564e-05
1.12967e-05
7.87366e-06
6.3391e-06
5.50602e-06
5.01776e-06
4.72894e-06
4.56816e-06
4.49556e-06
4.48666e-06
4.52529e-06
4.6002e-06
4.70304e-06
4.82749e-06
4.96854e-06
5.12213e-06
5.28489e-06
5.45397e-06
5.62691e-06
5.80159e-06
5.97611e-06
6.1488e-06
6.31815e-06
6.48282e-06
6.64156e-06
6.79328e-06
6.93695e-06
7.07166e-06
7.19658e-06
7.31096e-06
7.41413e-06
7.50549e-06
7.58452e-06
7.65076e-06
7.70383e-06
7.74343e-06
7.7693e-06
7.78129e-06
7.7793e-06
7.76336e-06
7.7334e-06
7.68963e-06
7.63224e-06
7.56152e-06
7.47785e-06
7.38169e-06
7.27359e-06
7.15418e-06
7.02421e-06
6.88452e-06
6.73606e-06
6.5799e-06
6.41721e-06
6.24933e-06
6.07772e-06
5.904e-06
5.73e-06
5.55777e-06
5.3896e-06
5.22814e-06
5.07645e-06
4.93812e-06
4.81742e-06
4.71962e-06
4.65132e-06
4.62115e-06
4.64083e-06
4.72711e-06
4.90541e-06
5.21722e-06
5.73693e-06
6.61622e-06
8.22761e-06
1.18117e-05
2.49468e-05
2.80831e-05
1.32906e-05
9.24732e-06
7.42131e-06
6.41582e-06
5.81156e-06
5.438e-06
5.21164e-06
5.08612e-06
5.03316e-06
5.03422e-06
5.0764e-06
5.15041e-06
5.24912e-06
5.36698e-06
5.49952e-06
5.64307e-06
5.79453e-06
5.95126e-06
6.11096e-06
6.27164e-06
6.43152e-06
6.58902e-06
6.74271e-06
6.89131e-06
7.03367e-06
7.16875e-06
7.2956e-06
7.41337e-06
7.52129e-06
7.61867e-06
7.70492e-06
7.77949e-06
7.84194e-06
7.89188e-06
7.929e-06
7.95306e-06
7.9639e-06
7.96142e-06
7.94566e-06
7.91658e-06
7.87437e-06
7.81926e-06
7.75156e-06
7.67166e-06
7.58004e-06
7.47727e-06
7.36403e-06
7.24109e-06
7.10933e-06
6.96973e-06
6.82342e-06
6.67165e-06
6.51581e-06
6.35745e-06
6.1983e-06
6.04031e-06
5.88567e-06
5.73686e-06
5.59672e-06
5.46858e-06
5.35634e-06
5.26471e-06
5.19951e-06
5.16815e-06
5.18032e-06
5.24937e-06
5.39455e-06
5.64525e-06
6.04979e-06
6.69534e-06
7.76019e-06
9.68317e-06
1.39274e-05
2.94335e-05
3.23327e-05
1.52962e-05
1.0631e-05
8.5144e-06
7.33858e-06
6.62118e-06
6.16626e-06
5.87808e-06
5.70363e-06
5.61071e-06
5.57836e-06
5.59205e-06
5.64134e-06
5.71839e-06
5.81705e-06
5.93242e-06
6.06051e-06
6.19796e-06
6.34194e-06
6.49e-06
6.64e-06
6.79006e-06
6.93853e-06
7.08389e-06
7.22483e-06
7.36013e-06
7.48872e-06
7.60962e-06
7.72194e-06
7.82492e-06
7.91784e-06
8.00009e-06
8.07112e-06
8.13049e-06
8.17781e-06
8.21275e-06
8.2351e-06
8.24468e-06
8.24144e-06
8.22538e-06
8.19649e-06
8.15499e-06
8.10111e-06
8.03517e-06
7.95761e-06
7.86891e-06
7.76969e-06
7.66065e-06
7.54261e-06
7.4165e-06
7.28335e-06
7.14434e-06
7.00079e-06
6.85418e-06
6.70614e-06
6.55851e-06
6.41338e-06
6.27306e-06
6.14022e-06
6.01793e-06
5.90977e-06
5.82e-06
5.75376e-06
5.71748e-06
5.71935e-06
5.7702e-06
5.88512e-06
6.08587e-06
6.40595e-06
6.9007e-06
7.67024e-06
8.91987e-06
1.11555e-05
1.60651e-05
3.39655e-05
3.6565e-05
1.72943e-05
1.20111e-05
9.6068e-06
8.26355e-06
7.43605e-06
6.90294e-06
6.55624e-06
6.33625e-06
6.20683e-06
6.14452e-06
6.13318e-06
6.16116e-06
6.21988e-06
6.30258e-06
6.40393e-06
6.51959e-06
6.64595e-06
6.77997e-06
6.91903e-06
7.06086e-06
7.20349e-06
7.34514e-06
7.48426e-06
7.61945e-06
7.74947e-06
7.87318e-06
7.98957e-06
8.09776e-06
8.19692e-06
8.28635e-06
8.36541e-06
8.43357e-06
8.49035e-06
8.53536e-06
8.56831e-06
8.58896e-06
8.59715e-06
8.59284e-06
8.57604e-06
8.54675e-06
8.50521e-06
8.45166e-06
8.38647e-06
8.31008e-06
8.22301e-06
8.12591e-06
8.01953e-06
7.90472e-06
7.78245e-06
7.65384e-06
7.5201e-06
7.38265e-06
7.24302e-06
7.10296e-06
6.96441e-06
6.82959e-06
6.70096e-06
6.58139e-06
6.47415e-06
6.38312e-06
6.31289e-06
6.26908e-06
6.25872e-06
6.29079e-06
6.37741e-06
6.5353e-06
6.78883e-06
7.17567e-06
7.75822e-06
8.64964e-06
1.00823e-05
1.26293e-05
1.82032e-05
3.84975e-05
4.07449e-05
1.92682e-05
1.33756e-05
1.06887e-05
9.1818e-06
8.24754e-06
7.63943e-06
7.23729e-06
6.97482e-06
6.81192e-06
6.72263e-06
6.68917e-06
6.69877e-06
6.74191e-06
6.81137e-06
6.90132e-06
7.00707e-06
7.12475e-06
7.2511e-06
7.38334e-06
7.51906e-06
7.65616e-06
7.7928e-06
7.92734e-06
8.05832e-06
8.18444e-06
8.30454e-06
8.41758e-06
8.52262e-06
8.61884e-06
8.70551e-06
8.78198e-06
8.84772e-06
8.90225e-06
8.94518e-06
8.97621e-06
8.99511e-06
9.00174e-06
8.99608e-06
8.97811e-06
8.94789e-06
8.90565e-06
8.85169e-06
8.78637e-06
8.71016e-06
8.62364e-06
8.52748e-06
8.42246e-06
8.30948e-06
8.18958e-06
8.06391e-06
7.93378e-06
7.80065e-06
7.66615e-06
7.53213e-06
7.40064e-06
7.27402e-06
7.15491e-06
7.04634e-06
6.95183e-06
6.87553e-06
6.82241e-06
6.79855e-06
6.81156e-06
6.87133e-06
6.99117e-06
7.18948e-06
7.49327e-06
7.94435e-06
8.61217e-06
9.62284e-06
1.12355e-05
1.409e-05
2.03215e-05
4.29867e-05
4.48422e-05
2.12037e-05
1.47146e-05
1.17518e-05
1.00859e-05
9.04859e-06
8.36873e-06
7.91417e-06
7.61206e-06
7.41842e-06
7.30481e-06
7.25179e-06
7.24547e-06
7.27546e-06
7.33399e-06
7.41475e-06
7.51271e-06
7.62372e-06
7.74431e-06
7.87152e-06
8.00281e-06
8.13597e-06
8.26907e-06
8.40037e-06
8.52838e-06
8.65173e-06
8.76921e-06
8.87977e-06
8.98244e-06
9.07637e-06
9.16082e-06
9.23515e-06
9.29879e-06
9.35128e-06
9.39223e-06
9.42134e-06
9.4384e-06
9.44326e-06
9.43594e-06
9.4164e-06
9.38475e-06
9.34124e-06
9.28618e-06
9.21996e-06
9.14309e-06
9.05617e-06
8.95991e-06
8.85515e-06
8.74282e-06
8.62402e-06
8.49995e-06
8.37199e-06
8.24168e-06
8.11074e-06
7.98111e-06
7.85496e-06
7.73475e-06
7.62329e-06
7.5238e-06
7.44003e-06
7.37642e-06
7.3383e-06
7.33222e-06
7.36638e-06
7.45162e-06
7.60236e-06
7.83874e-06
8.19033e-06
8.70307e-06
9.45333e-06
1.058e-05
1.23685e-05
1.5524e-05
2.24005e-05
4.73923e-05
4.88317e-05
2.30888e-05
1.60197e-05
1.27892e-05
1.09697e-05
9.83345e-06
9.08524e-06
8.58124e-06
8.24222e-06
8.02037e-06
7.88484e-06
7.81454e-06
7.79447e-06
7.81344e-06
7.86299e-06
7.93645e-06
8.02841e-06
8.13445e-06
8.25087e-06
8.37456e-06
8.50282e-06
8.63333e-06
8.76406e-06
8.89322e-06
9.01923e-06
9.14068e-06
9.25634e-06
9.36509e-06
9.46596e-06
9.55809e-06
9.64071e-06
9.71317e-06
9.77491e-06
9.82546e-06
9.86444e-06
9.89156e-06
9.9066e-06
9.90946e-06
9.90016e-06
9.87864e-06
9.84508e-06
9.79974e-06
9.74294e-06
9.67513e-06
9.59682e-06
9.50866e-06
9.41141e-06
9.30592e-06
9.19321e-06
9.0744e-06
8.95076e-06
8.82375e-06
8.69496e-06
8.56622e-06
8.43954e-06
8.31724e-06
8.20189e-06
8.09646e-06
8.00437e-06
7.9296e-06
7.87687e-06
7.85188e-06
7.86162e-06
7.91496e-06
8.02359e-06
8.20304e-06
8.47515e-06
8.87205e-06
9.44368e-06
1.02732e-05
1.15117e-05
1.34706e-05
1.69183e-05
2.44213e-05
5.16746e-05
5.26931e-05
2.49138e-05
1.7284e-05
1.37954e-05
1.18284e-05
1.05976e-05
9.78455e-06
9.2341e-06
8.8608e-06
8.61314e-06
8.45789e-06
8.37239e-06
8.3405e-06
8.35026e-06
8.39254e-06
8.46033e-06
8.54781e-06
8.6503e-06
8.76389e-06
8.88528e-06
9.01165e-06
9.14055e-06
9.26987e-06
9.39773e-06
9.5225e-06
9.64273e-06
9.75713e-06
9.86456e-06
9.96403e-06
1.00547e-05
1.01357e-05
1.02064e-05
1.02663e-05
1.03149e-05
1.03518e-05
1.03768e-05
1.03896e-05
1.03902e-05
1.03785e-05
1.03546e-05
1.03187e-05
1.02709e-05
1.02118e-05
1.01417e-05
1.00613e-05
9.97112e-06
9.87205e-06
9.76497e-06
9.65094e-06
9.53114e-06
9.4069e-06
9.27974e-06
9.15133e-06
9.02358e-06
8.89862e-06
8.77884e-06
8.66698e-06
8.56615e-06
8.47997e-06
8.41263e-06
8.36916e-06
8.35559e-06
8.37935e-06
8.45001e-06
8.58001e-06
8.78602e-06
9.09153e-06
9.53111e-06
1.01586e-05
1.10636e-05
1.24093e-05
1.45315e-05
1.82601e-05
2.63658e-05
5.5795e-05
5.64117e-05
2.66718e-05
1.85028e-05
1.47665e-05
1.26584e-05
1.13377e-05
1.04634e-05
9.86949e-06
9.46447e-06
9.19327e-06
9.02034e-06
8.9215e-06
8.87952e-06
8.88168e-06
8.9182e-06
8.98169e-06
9.06598e-06
9.1661e-06
9.27795e-06
9.39804e-06
9.52342e-06
9.65153e-06
9.78015e-06
9.90736e-06
1.00314e-05
1.01509e-05
1.02644e-05
1.03709e-05
1.04692e-05
1.05584e-05
1.06379e-05
1.07069e-05
1.07649e-05
1.08115e-05
1.08461e-05
1.08687e-05
1.0879e-05
1.08769e-05
1.08624e-05
1.08357e-05
1.07968e-05
1.07462e-05
1.06841e-05
1.06111e-05
1.05278e-05
1.04349e-05
1.03333e-05
1.02238e-05
1.01076e-05
9.98594e-06
9.86017e-06
9.73189e-06
9.60284e-06
9.47502e-06
9.35064e-06
9.23222e-06
9.12262e-06
9.02511e-06
8.94348e-06
8.88215e-06
8.84642e-06
8.84269e-06
8.87878e-06
8.96494e-06
9.11433e-06
9.34473e-06
9.68118e-06
1.01606e-05
1.08406e-05
1.18168e-05
1.3264e-05
1.55414e-05
1.9537e-05
2.82162e-05
5.97159e-05
5.9978e-05
2.83583e-05
1.9673e-05
1.57e-05
1.34576e-05
1.20517e-05
1.11197e-05
1.04853e-05
1.0051e-05
9.75838e-06
9.56968e-06
9.4592e-06
9.40868e-06
9.40463e-06
9.43668e-06
9.49705e-06
9.57921e-06
9.67795e-06
9.78892e-06
9.9085e-06
1.00336e-05
1.01615e-05
1.029e-05
1.04169e-05
1.05407e-05
1.06597e-05
1.07725e-05
1.0878e-05
1.09752e-05
1.10631e-05
1.1141e-05
1.12081e-05
1.1264e-05
1.13082e-05
1.13403e-05
1.13601e-05
1.13674e-05
1.13622e-05
1.13445e-05
1.13144e-05
1.12721e-05
1.12179e-05
1.11523e-05
1.10758e-05
1.0989e-05
1.08926e-05
1.07877e-05
1.0675e-05
1.05559e-05
1.04315e-05
1.03034e-05
1.01731e-05
1.00425e-05
9.91361e-06
9.7888e-06
9.67068e-06
9.56223e-06
9.46685e-06
9.38852e-06
9.33188e-06
9.30248e-06
9.30704e-06
9.35383e-06
9.45369e-06
9.62047e-06
9.87301e-06
1.02378e-05
1.07541e-05
1.14827e-05
1.25255e-05
1.40676e-05
1.64906e-05
2.07369e-05
2.99549e-05
6.34003e-05
6.33886e-05
2.99718e-05
2.07933e-05
1.65948e-05
1.42249e-05
1.27385e-05
1.17525e-05
1.10803e-05
1.06192e-05
1.03072e-05
1.01044e-05
9.98388e-06
9.92618e-06
9.91714e-06
9.94585e-06
1.00041e-05
1.0085e-05
1.01831e-05
1.02939e-05
1.04135e-05
1.05388e-05
1.06669e-05
1.07956e-05
1.09225e-05
1.10461e-05
1.11647e-05
1.12768e-05
1.13814e-05
1.14773e-05
1.15636e-05
1.16396e-05
1.17046e-05
1.1758e-05
1.17994e-05
1.18285e-05
1.18451e-05
1.18489e-05
1.18401e-05
1.18185e-05
1.17844e-05
1.1738e-05
1.16796e-05
1.16098e-05
1.15291e-05
1.14381e-05
1.13376e-05
1.12286e-05
1.11121e-05
1.09892e-05
1.08614e-05
1.07301e-05
1.05969e-05
1.04639e-05
1.03331e-05
1.0207e-05
1.00882e-05
9.97983e-06
9.8855e-06
9.8093e-06
9.75609e-06
9.73166e-06
9.74302e-06
9.79891e-06
9.91064e-06
1.00928e-05
1.03651e-05
1.07555e-05
1.13052e-05
1.20785e-05
1.31824e-05
1.48121e-05
1.73696e-05
2.18479e-05
3.15648e-05
6.68118e-05
6.66461e-05
3.15133e-05
2.18646e-05
1.74516e-05
1.49608e-05
1.33986e-05
1.23619e-05
1.16547e-05
1.11689e-05
1.08394e-05
1.06242e-05
1.04949e-05
1.04313e-05
1.04183e-05
1.04446e-05
1.05015e-05
1.05819e-05
1.068e-05
1.07911e-05
1.09112e-05
1.10369e-05
1.11655e-05
1.12944e-05
1.14214e-05
1.15448e-05
1.16628e-05
1.17741e-05
1.18774e-05
1.19717e-05
1.20561e-05
1.21297e-05
1.2192e-05
1.22424e-05
1.22805e-05
1.2306e-05
1.23186e-05
1.23183e-05
1.23051e-05
1.2279e-05
1.22402e-05
1.2189e-05
1.21257e-05
1.2051e-05
1.19653e-05
1.18694e-05
1.17641e-05
1.16503e-05
1.15291e-05
1.14018e-05
1.12698e-05
1.11345e-05
1.09978e-05
1.08615e-05
1.0728e-05
1.05996e-05
1.04792e-05
1.037e-05
1.02757e-05
1.02005e-05
1.01495e-05
1.01287e-05
1.01454e-05
1.02088e-05
1.03305e-05
1.05259e-05
1.08155e-05
1.12286e-05
1.18082e-05
1.26215e-05
1.37806e-05
1.54896e-05
1.81692e-05
2.28584e-05
3.3029e-05
6.99149e-05
6.97593e-05
3.29871e-05
2.28897e-05
1.82726e-05
1.56672e-05
1.40333e-05
1.29493e-05
1.22096e-05
1.17011e-05
1.13557e-05
1.11296e-05
1.09928e-05
1.09243e-05
1.09083e-05
1.09329e-05
1.09891e-05
1.10695e-05
1.1168e-05
1.12797e-05
1.14005e-05
1.15269e-05
1.16559e-05
1.1785e-05
1.1912e-05
1.20348e-05
1.2152e-05
1.2262e-05
1.23637e-05
1.24558e-05
1.25376e-05
1.26083e-05
1.26672e-05
1.27139e-05
1.27479e-05
1.27689e-05
1.27768e-05
1.27716e-05
1.27532e-05
1.27216e-05
1.26773e-05
1.26204e-05
1.25515e-05
1.24709e-05
1.23795e-05
1.22779e-05
1.21669e-05
1.20476e-05
1.1921e-05
1.17885e-05
1.16515e-05
1.15115e-05
1.13704e-05
1.12302e-05
1.10931e-05
1.09617e-05
1.08388e-05
1.07278e-05
1.06325e-05
1.05573e-05
1.05073e-05
1.04889e-05
1.05095e-05
1.05786e-05
1.07084e-05
1.09147e-05
1.1219e-05
1.16515e-05
1.22571e-05
1.31056e-05
1.43133e-05
1.60925e-05
1.88804e-05
2.37571e-05
3.43311e-05
7.26746e-05
7.27432e-05
3.44003e-05
2.38736e-05
1.90616e-05
1.63472e-05
1.46456e-05
1.3517e-05
1.2747e-05
1.22177e-05
1.1858e-05
1.16221e-05
1.14789e-05
1.14064e-05
1.13881e-05
1.14118e-05
1.14678e-05
1.15485e-05
1.16477e-05
1.17603e-05
1.18818e-05
1.20088e-05
1.21381e-05
1.22672e-05
1.23937e-05
1.25157e-05
1.26315e-05
1.27396e-05
1.28389e-05
1.29282e-05
1.30066e-05
1.30734e-05
1.3128e-05
1.317e-05
1.31989e-05
1.32145e-05
1.32166e-05
1.32054e-05
1.31807e-05
1.31428e-05
1.30919e-05
1.30284e-05
1.29528e-05
1.28656e-05
1.27674e-05
1.26592e-05
1.25417e-05
1.2416e-05
1.22832e-05
1.21447e-05
1.2002e-05
1.18565e-05
1.17103e-05
1.15653e-05
1.14238e-05
1.12886e-05
1.11624e-05
1.10487e-05
1.09515e-05
1.08751e-05
1.0825e-05
1.08076e-05
1.08305e-05
1.09037e-05
1.10396e-05
1.12546e-05
1.15707e-05
1.20194e-05
1.26467e-05
1.35248e-05
1.4774e-05
1.66134e-05
1.94945e-05
2.45328e-05
3.54552e-05
7.50571e-05
7.56192e-05
3.57629e-05
2.48231e-05
1.98241e-05
1.70054e-05
1.52394e-05
1.40686e-05
1.32703e-05
1.27217e-05
1.23489e-05
1.21044e-05
1.19557e-05
1.18799e-05
1.186e-05
1.18832e-05
1.19394e-05
1.20208e-05
1.21208e-05
1.22342e-05
1.23564e-05
1.24838e-05
1.26132e-05
1.27418e-05
1.28673e-05
1.29878e-05
1.31015e-05
1.32069e-05
1.33029e-05
1.33883e-05
1.34623e-05
1.35242e-05
1.35734e-05
1.36094e-05
1.3632e-05
1.36409e-05
1.36362e-05
1.36177e-05
1.35855e-05
1.35399e-05
1.34813e-05
1.341e-05
1.33265e-05
1.32315e-05
1.31256e-05
1.30097e-05
1.28847e-05
1.27517e-05
1.26119e-05
1.24665e-05
1.23172e-05
1.21655e-05
1.20133e-05
1.18627e-05
1.17161e-05
1.15762e-05
1.14459e-05
1.13286e-05
1.12284e-05
1.11499e-05
1.10985e-05
1.10807e-05
1.11045e-05
1.118e-05
1.13199e-05
1.15411e-05
1.18661e-05
1.23272e-05
1.29717e-05
1.38737e-05
1.51566e-05
1.70453e-05
2.00032e-05
2.51751e-05
3.63858e-05
7.70298e-05
7.84148e-05
3.70879e-05
2.57472e-05
2.0567e-05
1.76478e-05
1.58199e-05
1.46089e-05
1.37837e-05
1.32171e-05
1.28323e-05
1.258e-05
1.24265e-05
1.23481e-05
1.23271e-05
1.23501e-05
1.24069e-05
1.24891e-05
1.259e-05
1.27042e-05
1.28269e-05
1.29544e-05
1.30833e-05
1.32109e-05
1.33347e-05
1.34529e-05
1.35635e-05
1.36653e-05
1.37568e-05
1.38372e-05
1.39055e-05
1.39611e-05
1.40034e-05
1.40321e-05
1.40468e-05
1.40476e-05
1.40344e-05
1.40071e-05
1.3966e-05
1.39113e-05
1.38435e-05
1.3763e-05
1.36704e-05
1.35662e-05
1.34514e-05
1.33267e-05
1.31931e-05
1.30517e-05
1.29038e-05
1.27506e-05
1.25937e-05
1.24349e-05
1.22759e-05
1.2119e-05
1.19664e-05
1.18209e-05
1.16856e-05
1.15638e-05
1.14597e-05
1.13779e-05
1.13239e-05
1.13045e-05
1.13276e-05
1.14035e-05
1.15453e-05
1.177e-05
1.21008e-05
1.25705e-05
1.32274e-05
1.4147e-05
1.54553e-05
1.73817e-05
2.03986e-05
2.56739e-05
3.71084e-05
7.85617e-05
8.11634e-05
3.83911e-05
2.66567e-05
2.12991e-05
1.82815e-05
1.63934e-05
1.51434e-05
1.42925e-05
1.37087e-05
1.33127e-05
1.30533e-05
1.28957e-05
1.28152e-05
1.27935e-05
1.28167e-05
1.28742e-05
1.29574e-05
1.30592e-05
1.31739e-05
1.32969e-05
1.3424e-05
1.35519e-05
1.36778e-05
1.37991e-05
1.39139e-05
1.40204e-05
1.41172e-05
1.4203e-05
1.42768e-05
1.43378e-05
1.43854e-05
1.44192e-05
1.44388e-05
1.4444e-05
1.44349e-05
1.44113e-05
1.43735e-05
1.43217e-05
1.42562e-05
1.41776e-05
1.40862e-05
1.39829e-05
1.38682e-05
1.37429e-05
1.36081e-05
1.34646e-05
1.33136e-05
1.31564e-05
1.29943e-05
1.28289e-05
1.26619e-05
1.24952e-05
1.2331e-05
1.21716e-05
1.20197e-05
1.18784e-05
1.17512e-05
1.16421e-05
1.15559e-05
1.14982e-05
1.14756e-05
1.14964e-05
1.15708e-05
1.17122e-05
1.19377e-05
1.2271e-05
1.27452e-05
1.34093e-05
1.434e-05
1.56647e-05
1.76163e-05
2.06735e-05
2.602e-05
3.76094e-05
7.96242e-05
8.39039e-05
3.96908e-05
2.75643e-05
2.20301e-05
1.8915e-05
1.69672e-05
1.56789e-05
1.48028e-05
1.42024e-05
1.37957e-05
1.35298e-05
1.33685e-05
1.32863e-05
1.32643e-05
1.32881e-05
1.33465e-05
1.34306e-05
1.35333e-05
1.36485e-05
1.37713e-05
1.38975e-05
1.40238e-05
1.4147e-05
1.42649e-05
1.43751e-05
1.44761e-05
1.45664e-05
1.46448e-05
1.47103e-05
1.47623e-05
1.48e-05
1.48233e-05
1.48317e-05
1.48254e-05
1.48042e-05
1.47682e-05
1.47178e-05
1.46532e-05
1.4575e-05
1.44835e-05
1.43795e-05
1.42636e-05
1.41366e-05
1.39993e-05
1.38527e-05
1.36978e-05
1.35358e-05
1.3368e-05
1.31958e-05
1.30207e-05
1.28445e-05
1.2669e-05
1.24964e-05
1.23292e-05
1.21699e-05
1.20216e-05
1.18879e-05
1.17728e-05
1.16811e-05
1.16182e-05
1.15911e-05
1.16078e-05
1.16787e-05
1.18173e-05
1.20409e-05
1.23732e-05
1.28476e-05
1.35136e-05
1.44482e-05
1.57801e-05
1.77437e-05
2.08213e-05
2.62051e-05
3.78769e-05
8.01915e-05
8.668e-05
4.10076e-05
2.84841e-05
2.27713e-05
1.95575e-05
1.75496e-05
1.62229e-05
1.53215e-05
1.47048e-05
1.42877e-05
1.40155e-05
1.3851e-05
1.37675e-05
1.37456e-05
1.37702e-05
1.38298e-05
1.39151e-05
1.40185e-05
1.4134e-05
1.42562e-05
1.4381e-05
1.45048e-05
1.46245e-05
1.47376e-05
1.4842e-05
1.4936e-05
1.50181e-05
1.50872e-05
1.51424e-05
1.51831e-05
1.52088e-05
1.52192e-05
1.52142e-05
1.51938e-05
1.51581e-05
1.51074e-05
1.5042e-05
1.49623e-05
1.48689e-05
1.47625e-05
1.46436e-05
1.4513e-05
1.43716e-05
1.42204e-05
1.40602e-05
1.38922e-05
1.37176e-05
1.35377e-05
1.33539e-05
1.31677e-05
1.2981e-05
1.27956e-05
1.26135e-05
1.24373e-05
1.22695e-05
1.21132e-05
1.19719e-05
1.18496e-05
1.1751e-05
1.16817e-05
1.16484e-05
1.16594e-05
1.17247e-05
1.18581e-05
1.20767e-05
1.24044e-05
1.28746e-05
1.35367e-05
1.44681e-05
1.57974e-05
1.77593e-05
2.08365e-05
2.62221e-05
3.79004e-05
8.02417e-05
8.95396e-05
4.2364e-05
2.94316e-05
2.35347e-05
2.02194e-05
1.81497e-05
1.67834e-05
1.58564e-05
1.52231e-05
1.47957e-05
1.45175e-05
1.43501e-05
1.42658e-05
1.42444e-05
1.42702e-05
1.43312e-05
1.44179e-05
1.45221e-05
1.46377e-05
1.4759e-05
1.48818e-05
1.50023e-05
1.51173e-05
1.52244e-05
1.53214e-05
1.54065e-05
1.54784e-05
1.55361e-05
1.55787e-05
1.56057e-05
1.56167e-05
1.56117e-05
1.55905e-05
1.55533e-05
1.55004e-05
1.54321e-05
1.5349e-05
1.52515e-05
1.51404e-05
1.50163e-05
1.48801e-05
1.47325e-05
1.45745e-05
1.44071e-05
1.42312e-05
1.40482e-05
1.38591e-05
1.36653e-05
1.34683e-05
1.32696e-05
1.30709e-05
1.28741e-05
1.26813e-05
1.24948e-05
1.23173e-05
1.21518e-05
1.20017e-05
1.18709e-05
1.17641e-05
1.16869e-05
1.1646e-05
1.16494e-05
1.17072e-05
1.1833e-05
1.20438e-05
1.23633e-05
1.28248e-05
1.34774e-05
1.4398e-05
1.57147e-05
1.76606e-05
2.07159e-05
2.60666e-05
3.76735e-05
7.97613e-05
9.2534e-05
4.37842e-05
3.04233e-05
2.43335e-05
2.09116e-05
1.87771e-05
1.73694e-05
1.64156e-05
1.57652e-05
1.53273e-05
1.50434e-05
1.48735e-05
1.47889e-05
1.47685e-05
1.47961e-05
1.48591e-05
1.49474e-05
1.50526e-05
1.51681e-05
1.52882e-05
1.54083e-05
1.55246e-05
1.56338e-05
1.57333e-05
1.5821e-05
1.58953e-05
1.59548e-05
1.59986e-05
1.60259e-05
1.60364e-05
1.60298e-05
1.60063e-05
1.59658e-05
1.59087e-05
1.58354e-05
1.57465e-05
1.56426e-05
1.55243e-05
1.53925e-05
1.5248e-05
1.50916e-05
1.49243e-05
1.47471e-05
1.4561e-05
1.43673e-05
1.41669e-05
1.39613e-05
1.37516e-05
1.35395e-05
1.33264e-05
1.31141e-05
1.29043e-05
1.26993e-05
1.25012e-05
1.23128e-05
1.21369e-05
1.19768e-05
1.18365e-05
1.17204e-05
1.16339e-05
1.15836e-05
1.15774e-05
1.16253e-05
1.17405e-05
1.19401e-05
1.22473e-05
1.26951e-05
1.3332e-05
1.42339e-05
1.55273e-05
1.74425e-05
2.04537e-05
2.57315e-05
3.71857e-05
7.87272e-05
9.57166e-05
4.52933e-05
3.14764e-05
2.51809e-05
2.16454e-05
1.94416e-05
1.79898e-05
1.70076e-05
1.63393e-05
1.58908e-05
1.56014e-05
1.54295e-05
1.53453e-05
1.53268e-05
1.53569e-05
1.54226e-05
1.55129e-05
1.56194e-05
1.57349e-05
1.58534e-05
1.59702e-05
1.60812e-05
1.61831e-05
1.62734e-05
1.63498e-05
1.64109e-05
1.64553e-05
1.64823e-05
1.64913e-05
1.64821e-05
1.64547e-05
1.64092e-05
1.63459e-05
1.62654e-05
1.61683e-05
1.60553e-05
1.59272e-05
1.57848e-05
1.5629e-05
1.54608e-05
1.52812e-05
1.50912e-05
1.4892e-05
1.46846e-05
1.44703e-05
1.42502e-05
1.40256e-05
1.3798e-05
1.35687e-05
1.33393e-05
1.31115e-05
1.28873e-05
1.26686e-05
1.24575e-05
1.22566e-05
1.20686e-05
1.18968e-05
1.1745e-05
1.16176e-05
1.15198e-05
1.14581e-05
1.14403e-05
1.14761e-05
1.15782e-05
1.17636e-05
1.20548e-05
1.24843e-05
1.30995e-05
1.3975e-05
1.52347e-05
1.71045e-05
2.00489e-05
2.52155e-05
3.6435e-05
7.71353e-05
9.91417e-05
4.69167e-05
3.26083e-05
2.60908e-05
2.24323e-05
2.01534e-05
1.8654e-05
1.76414e-05
1.69541e-05
1.64948e-05
1.62002e-05
1.6027e-05
1.59443e-05
1.59287e-05
1.59625e-05
1.60317e-05
1.61249e-05
1.6233e-05
1.63485e-05
1.64651e-05
1.65778e-05
1.66824e-05
1.67755e-05
1.68544e-05
1.69172e-05
1.69623e-05
1.69886e-05
1.69956e-05
1.69828e-05
1.69502e-05
1.6898e-05
1.68267e-05
1.67368e-05
1.6629e-05
1.65042e-05
1.63633e-05
1.62072e-05
1.6037e-05
1.58537e-05
1.56584e-05
1.54523e-05
1.52365e-05
1.50122e-05
1.47805e-05
1.45429e-05
1.43004e-05
1.40544e-05
1.38063e-05
1.35577e-05
1.331e-05
1.30649e-05
1.2824e-05
1.25894e-05
1.23632e-05
1.21479e-05
1.19462e-05
1.17611e-05
1.15965e-05
1.14563e-05
1.13458e-05
1.12711e-05
1.12397e-05
1.1261e-05
1.13475e-05
1.15154e-05
1.17869e-05
1.21933e-05
1.27809e-05
1.36221e-05
1.48376e-05
1.66471e-05
1.95025e-05
2.45194e-05
3.54226e-05
7.49881e-05
0.000102863
4.86797e-05
3.38363e-05
2.70764e-05
2.32834e-05
2.09225e-05
1.93711e-05
1.83256e-05
1.76183e-05
1.7148e-05
1.68488e-05
1.66755e-05
1.65956e-05
1.65845e-05
1.66234e-05
1.66974e-05
1.67944e-05
1.69048e-05
1.70204e-05
1.71347e-05
1.72423e-05
1.7339e-05
1.74212e-05
1.74864e-05
1.75327e-05
1.75585e-05
1.75631e-05
1.75461e-05
1.75074e-05
1.74472e-05
1.73661e-05
1.72646e-05
1.71437e-05
1.70044e-05
1.68476e-05
1.66746e-05
1.64865e-05
1.62845e-05
1.60699e-05
1.58439e-05
1.56078e-05
1.53629e-05
1.51103e-05
1.48514e-05
1.45875e-05
1.43198e-05
1.40499e-05
1.3779e-05
1.35085e-05
1.324e-05
1.29752e-05
1.27156e-05
1.24633e-05
1.22204e-05
1.1989e-05
1.17719e-05
1.1572e-05
1.13928e-05
1.12382e-05
1.11132e-05
1.10236e-05
1.09765e-05
1.09813e-05
1.10495e-05
1.11969e-05
1.14449e-05
1.18235e-05
1.23777e-05
1.31771e-05
1.43381e-05
1.60729e-05
1.88171e-05
2.36468e-05
3.41534e-05
7.22959e-05
0.000106933
5.06069e-05
3.51769e-05
2.81506e-05
2.42095e-05
2.17584e-05
2.015e-05
1.90688e-05
1.83405e-05
1.78593e-05
1.75565e-05
1.73847e-05
1.73096e-05
1.73049e-05
1.73507e-05
1.74311e-05
1.75332e-05
1.76464e-05
1.77621e-05
1.78735e-05
1.79748e-05
1.80616e-05
1.81305e-05
1.81789e-05
1.82048e-05
1.82075e-05
1.81861e-05
1.81406e-05
1.80713e-05
1.79786e-05
1.78635e-05
1.7727e-05
1.75703e-05
1.73946e-05
1.72013e-05
1.69917e-05
1.67674e-05
1.65296e-05
1.62798e-05
1.60194e-05
1.57498e-05
1.54723e-05
1.51883e-05
1.48991e-05
1.46061e-05
1.43106e-05
1.4014e-05
1.37177e-05
1.3423e-05
1.31316e-05
1.28449e-05
1.25647e-05
1.22928e-05
1.20312e-05
1.1782e-05
1.15478e-05
1.13313e-05
1.11358e-05
1.09652e-05
1.08239e-05
1.07176e-05
1.0653e-05
1.06389e-05
1.06864e-05
1.08104e-05
1.10313e-05
1.13779e-05
1.1893e-05
1.26433e-05
1.37402e-05
1.53862e-05
1.79982e-05
2.26045e-05
3.26373e-05
6.90795e-05
0.000111401
5.27207e-05
3.66453e-05
2.93252e-05
2.52204e-05
2.26697e-05
2.0999e-05
1.98794e-05
1.91291e-05
1.86377e-05
1.83329e-05
1.81648e-05
1.80969e-05
1.81011e-05
1.81562e-05
1.82448e-05
1.83531e-05
1.84696e-05
1.85853e-05
1.86926e-05
1.87858e-05
1.88601e-05
1.89123e-05
1.89396e-05
1.8941e-05
1.89155e-05
1.88629e-05
1.87834e-05
1.86777e-05
1.8547e-05
1.83923e-05
1.82153e-05
1.80173e-05
1.78002e-05
1.75654e-05
1.73146e-05
1.70496e-05
1.67719e-05
1.64831e-05
1.61846e-05
1.58781e-05
1.55649e-05
1.52465e-05
1.49242e-05
1.45995e-05
1.42736e-05
1.3948e-05
1.3624e-05
1.3303e-05
1.29866e-05
1.26762e-05
1.23735e-05
1.20801e-05
1.17981e-05
1.15294e-05
1.12764e-05
1.10417e-05
1.08284e-05
1.06401e-05
1.04809e-05
1.03562e-05
1.02723e-05
1.02373e-05
1.02617e-05
1.03597e-05
1.05503e-05
1.08609e-05