/*--------------------------------*- C++ -*----------------------------------*\
  =========                 |
  \\      /  F ield         | OpenFOAM: The Open Source CFD Toolbox
   \\    /   O peration     | Website:  https://openfoam.org
    \\  /    A nd           | Version:  12
     \\/     M anipulation  |
\*---------------------------------------------------------------------------*/
FoamFile
{
    format      ascii;
    class       volScalarField;
    location    "3";
    object      p;
}
// * * * * * * * * * * * * * * * * * * * * * * * * * * * * * * * * * * * * * //

dimensions      [0 2 -2 0 0 0 0];

internalField   nonuniform List<scalar> 
5625
(
3.30387e-08
1.28199e-07
1.0431e-06
2.8689e-06
5.3802e-06
8.37032e-06
1.1665e-05
1.51051e-05
1.85543e-05
2.18909e-05
2.50098e-05
2.78218e-05
3.02517e-05
3.22375e-05
3.37288e-05
3.46861e-05
3.50793e-05
3.48873e-05
3.4097e-05
3.27023e-05
3.07041e-05
2.81091e-05
2.49296e-05
2.11828e-05
1.68905e-05
1.20785e-05
6.77621e-06
1.01642e-06
-5.16536e-06
-1.1731e-05
-1.86405e-05
-2.58516e-05
-3.3321e-05
-4.10038e-05
-4.88546e-05
-5.6827e-05
-6.48745e-05
-7.29505e-05
-8.10084e-05
-8.90018e-05
-9.68854e-05
-0.000104614
-0.000112145
-0.000119435
-0.000126442
-0.000133129
-0.000139456
-0.000145389
-0.000150894
-0.000155941
-0.000160501
-0.00016455
-0.000168067
-0.000171032
-0.000173433
-0.000175259
-0.000176506
-0.000177175
-0.000177271
-0.000176808
-0.000175807
-0.000174294
-0.000172308
-0.000169895
-0.000167116
-0.00016404
-0.000160753
-0.000157357
-0.00015397
-0.000150724
-0.000147775
-0.000145296
-0.000143488
-0.000142583
-0.000142502
-3.07078e-06
-2.61995e-06
-1.59055e-06
4.08814e-08
2.15385e-06
4.60433e-06
7.26808e-06
1.00312e-05
1.27889e-05
1.54463e-05
1.79194e-05
2.01345e-05
2.20283e-05
2.35473e-05
2.46471e-05
2.52918e-05
2.54537e-05
2.51123e-05
2.42541e-05
2.28721e-05
2.09649e-05
1.8537e-05
1.55973e-05
1.21598e-05
8.24234e-06
3.86672e-06
-9.4199e-07
-6.15557e-06
-1.17432e-05
-1.76715e-05
-2.39053e-05
-3.04075e-05
-3.71397e-05
-4.40621e-05
-5.11343e-05
-5.8315e-05
-6.55628e-05
-7.2836e-05
-8.0093e-05
-8.72926e-05
-9.43942e-05
-0.000101358
-0.000108144
-0.000114716
-0.000121037
-0.000127071
-0.000132786
-0.000138151
-0.000143136
-0.000147716
-0.000151865
-0.000155563
-0.000158793
-0.000161538
-0.000163789
-0.000165539
-0.000166785
-0.000167529
-0.000167779
-0.000167549
-0.000166857
-0.000165731
-0.000164204
-0.000162318
-0.000160124
-0.000157682
-0.000155062
-0.000152344
-0.000149622
-0.000146995
-0.000144576
-0.000142486
-0.00014087
-0.000139844
-0.000139389
-9.09045e-06
-7.92834e-06
-6.31311e-06
-4.40177e-06
-2.25083e-06
7.49294e-08
2.49857e-06
4.94236e-06
7.33228e-06
9.59941e-06
1.16805e-05
1.35189e-05
1.50641e-05
1.62728e-05
1.71082e-05
1.754e-05
1.75444e-05
1.71034e-05
1.6205e-05
1.48425e-05
1.30143e-05
1.07236e-05
7.97801e-06
4.78925e-06
1.17278e-06
-2.85243e-06
-7.26437e-06
-1.20382e-05
-1.71464e-05
-2.25597e-05
-2.82463e-05
-3.41733e-05
-4.03062e-05
-4.66094e-05
-5.30465e-05
-5.95805e-05
-6.61742e-05
-7.27899e-05
-7.93903e-05
-8.59384e-05
-9.23977e-05
-9.87322e-05
-0.000104907
-0.000110888
-0.000116644
-0.000122142
-0.000127354
-0.000132251
-0.000136809
-0.000141004
-0.000144815
-0.000148223
-0.000151215
-0.000153776
-0.000155898
-0.000157576
-0.000158808
-0.000159597
-0.00015995
-0.000159879
-0.000159401
-0.000158538
-0.00015732
-0.00015578
-0.00015396
-0.000151906
-0.000149672
-0.000147319
-0.000144913
-0.000142524
-0.000140228
-0.0001381
-0.000136202
-0.000134591
-0.000133425
-1.68355e-05
-1.4798e-05
-1.23457e-05
-9.8577e-06
-7.33739e-06
-4.79023e-06
-2.25981e-06
2.00791e-07
2.54014e-06
4.70959e-06
6.66334e-06
8.35919e-06
9.75908e-06
1.08296e-05
1.15421e-05
1.18729e-05
1.18031e-05
1.13188e-05
1.04106e-05
9.07382e-06
7.30805e-06
5.11697e-06
2.50812e-06
-5.07313e-07
-3.91483e-06
-7.69682e-06
-1.18329e-05
-1.63e-05
-2.10731e-05
-2.61247e-05
-3.14261e-05
-3.69466e-05
-4.26546e-05
-4.85174e-05
-5.45015e-05
-6.0573e-05
-6.66976e-05
-7.28409e-05
-7.89687e-05
-8.50469e-05
-9.10423e-05
-9.69219e-05
-0.000102654
-0.000108208
-0.000113553
-0.000118663
-0.000123509
-0.000128067
-0.000132314
-0.000136229
-0.000139793
-0.000142988
-0.000145803
-0.000148224
-0.000150243
-0.000151856
-0.000153061
-0.000153858
-0.000154254
-0.000154257
-0.000153881
-0.000153143
-0.000152065
-0.000150674
-0.000148999
-0.000147077
-0.000144946
-0.000142648
-0.00014023
-0.000137739
-0.000135226
-0.000132733
-0.000130262
-0.000127817
-0.000125778
-2.50928e-05
-2.21427e-05
-1.87673e-05
-1.55726e-05
-1.25233e-05
-9.57801e-06
-6.75638e-06
-4.09416e-06
-1.62605e-06
6.15056e-07
2.59746e-06
4.29132e-06
5.66927e-06
6.70705e-06
7.38379e-06
7.68229e-06
7.58909e-06
7.09458e-06
6.19294e-06
4.88214e-06
3.16375e-06
1.0429e-06
-1.472e-06
-4.36933e-06
-7.63459e-06
-1.12505e-05
-1.51973e-05
-1.9453e-05
-2.39935e-05
-2.8793e-05
-3.3824e-05
-3.90579e-05
-4.44648e-05
-5.0014e-05
-5.56743e-05
-6.14137e-05
-6.72003e-05
-7.30021e-05
-7.87871e-05
-8.45237e-05
-9.0181e-05
-9.57285e-05
-0.000101137
-0.000106377
-0.000111422
-0.000116246
-0.000120824
-0.000125132
-0.00012915
-0.000132858
-0.000136237
-0.000139273
-0.000141953
-0.000144264
-0.000146199
-0.000147752
-0.00014892
-0.000149702
-0.000150101
-0.000150123
-0.000149777
-0.000149075
-0.000148032
-0.000146666
-0.000145
-0.000143056
-0.000140861
-0.000138444
-0.000135834
-0.000133062
-0.00013016
-0.000127146
-0.000123975
-0.00012061
-0.000117661
-3.30522e-05
-2.92099e-05
-2.49015e-05
-2.09485e-05
-1.7288e-05
-1.38427e-05
-1.06158e-05
-7.63224e-06
-4.91504e-06
-2.48566e-06
-3.65042e-07
1.42672e-06
2.87104e-06
3.95152e-06
4.65418e-06
4.96784e-06
4.88425e-06
4.39825e-06
3.50776e-06
2.2139e-06
5.20779e-07
-1.56442e-06
-4.03171e-06
-6.86829e-06
-1.00589e-05
-1.35856e-05
-1.74288e-05
-2.15663e-05
-2.59744e-05
-3.0628e-05
-3.55003e-05
-4.05635e-05
-4.57888e-05
-5.11468e-05
-5.66076e-05
-6.21406e-05
-6.77155e-05
-7.33017e-05
-7.88691e-05
-8.43876e-05
-8.98281e-05
-9.51617e-05
-0.000100361
-0.000105398
-0.000110248
-0.000114886
-0.000119289
-0.000123434
-0.000127302
-0.000130873
-0.000134131
-0.00013706
-0.000139648
-0.000141882
-0.000143754
-0.000145257
-0.000146386
-0.000147138
-0.000147513
-0.000147514
-0.000147144
-0.000146411
-0.000145324
-0.000143894
-0.000142135
-0.000140061
-0.000137689
-0.000135034
-0.000132116
-0.000128952
-0.000125563
-0.00012195
-0.00011803
-0.000113737
-0.000109898
-4.01508e-05
-3.5455e-05
-3.02344e-05
-2.55118e-05
-2.1204e-05
-1.72056e-05
-1.35093e-05
-1.01334e-05
-7.0936e-06
-4.40323e-06
-2.0754e-06
-1.22744e-07
1.44314e-06
2.6123e-06
3.37666e-06
3.73043e-06
3.67014e-06
3.19495e-06
2.30658e-06
1.00943e-06
-6.8948e-07
-2.78051e-06
-5.25157e-06
-8.08812e-06
-1.12734e-05
-1.47887e-05
-1.8613e-05
-2.27239e-05
-2.70973e-05
-3.17078e-05
-3.65287e-05
-4.15324e-05
-4.66905e-05
-5.19741e-05
-5.73538e-05
-6.28e-05
-6.8283e-05
-7.37733e-05
-7.92417e-05
-8.46593e-05
-8.99978e-05
-9.52297e-05
-0.000100328
-0.000105267
-0.000110022
-0.000114569
-0.000118886
-0.000122952
-0.000126746
-0.00013025
-0.000133448
-0.000136324
-0.000138864
-0.000141057
-0.000142892
-0.000144361
-0.000145457
-0.000146176
-0.000146513
-0.000146468
-0.000146041
-0.000145234
-0.000144051
-0.000142498
-0.00014058
-0.000138306
-0.000135682
-0.000132719
-0.000129423
-0.000125806
-0.00012188
-0.000117634
-0.000112957
-0.000107762
-0.000103074
-4.59835e-05
-4.04712e-05
-3.43657e-05
-2.88792e-05
-2.39126e-05
-1.93373e-05
-1.51395e-05
-1.13338e-05
-7.93146e-06
-4.94028e-06
-2.36773e-06
-2.20874e-07
1.49415e-06
2.77262e-06
3.61148e-06
4.0096e-06
3.96793e-06
3.48965e-06
2.5802e-06
1.24739e-06
-4.9869e-07
-2.64564e-06
-5.1789e-06
-8.08176e-06
-1.13356e-05
-1.49198e-05
-1.88122e-05
-2.29891e-05
-2.74255e-05
-3.2095e-05
-3.69705e-05
-4.2024e-05
-4.72267e-05
-5.25497e-05
-5.79635e-05
-6.34388e-05
-6.8946e-05
-7.44561e-05
-7.99402e-05
-8.53699e-05
-9.07175e-05
-9.5956e-05
-0.000101059
-0.000106001
-0.000110759
-0.000115308
-0.000119626
-0.000123693
-0.000127489
-0.000130996
-0.000134196
-0.000137074
-0.000139615
-0.000141806
-0.000143637
-0.000145096
-0.000146175
-0.000146867
-0.000147165
-0.000147066
-0.000146565
-0.000145662
-0.000144354
-0.000142642
-0.000140527
-0.000138011
-0.000135095
-0.000131782
-0.000128072
-0.000123972
-0.000119489
-0.000114603
-0.00010918
-0.000103114
-9.76189e-05
-5.02392e-05
-4.39374e-05
-3.69699e-05
-3.07297e-05
-2.51042e-05
-1.99449e-05
-1.52333e-05
-1.09828e-05
-7.20164e-06
-3.89412e-06
-1.06361e-06
1.28706e-06
3.15601e-06
4.54285e-06
5.44873e-06
5.8767e-06
5.83167e-06
5.32067e-06
4.35278e-06
2.93922e-06
1.0933e-06
-1.16959e-06
-3.83212e-06
-6.87502e-06
-1.02773e-05
-1.40164e-05
-1.8068e-05
-2.24069e-05
-2.70064e-05
-3.1839e-05
-3.68763e-05
-4.20892e-05
-4.74484e-05
-5.29242e-05
-5.84865e-05
-6.41057e-05
-6.97519e-05
-7.53959e-05
-8.10087e-05
-8.6562e-05
-9.20279e-05
-9.73796e-05
-0.000102591
-0.000107637
-0.000112492
-0.000117135
-0.000121543
-0.000125694
-0.000129569
-0.000133149
-0.000136416
-0.000139354
-0.000141948
-0.000144183
-0.000146047
-0.000147528
-0.000148615
-0.000149298
-0.000149569
-0.000149421
-0.000148846
-0.000147839
-0.000146395
-0.00014451
-0.000142181
-0.000139404
-0.000136175
-0.000132493
-0.000128355
-0.00012376
-0.000118716
-0.000113195
-0.000107041
-0.000100135
-9.38675e-05
-5.26554e-05
-4.55788e-05
-3.77629e-05
-3.07777e-05
-2.44979e-05
-1.87565e-05
-1.35316e-05
-8.83627e-06
-4.67729e-06
-1.05629e-06
2.02638e-06
4.57116e-06
6.57969e-06
8.0552e-06
9.00258e-06
9.42863e-06
9.34199e-06
8.75338e-06
7.67545e-06
6.12292e-06
4.11245e-06
1.66262e-06
-1.20617e-06
-4.4718e-06
-8.11057e-06
-1.20973e-05
-1.64056e-05
-2.10077e-05
-2.58752e-05
-3.09787e-05
-3.62882e-05
-4.17732e-05
-4.7403e-05
-5.31467e-05
-5.89733e-05
-6.48522e-05
-7.07529e-05
-7.66454e-05
-8.25003e-05
-8.82888e-05
-9.39826e-05
-9.95545e-05
-0.000104978
-0.000110228
-0.000115279
-0.000120109
-0.000124694
-0.000129013
-0.000133045
-0.000136772
-0.000140175
-0.000143237
-0.000145941
-0.000148271
-0.000150214
-0.000151756
-0.000152884
-0.000153587
-0.000153853
-0.000153673
-0.000153036
-0.000151934
-0.000150358
-0.000148301
-0.000145755
-0.000142713
-0.000139169
-0.000135115
-0.000130545
-0.000125457
-0.000119855
-0.000113708
-0.00010684
-9.91174e-05
-9.21023e-05
-5.2985e-05
-4.51365e-05
-3.64765e-05
-2.87514e-05
-2.18233e-05
-1.55071e-05
-9.77789e-06
-4.64899e-06
-1.26271e-07
3.79065e-06
7.10386e-06
9.81661e-06
1.19336e-05
1.34613e-05
1.4408e-05
1.47841e-05
1.46019e-05
1.38756e-05
1.26217e-05
1.08584e-05
8.60585e-06
5.88614e-06
2.72297e-06
-8.58335e-07
-4.83102e-06
-9.16698e-06
-1.3837e-05
-1.8811e-05
-2.40579e-05
-2.9546e-05
-3.52434e-05
-4.11176e-05
-4.71361e-05
-5.32665e-05
-5.94763e-05
-6.57336e-05
-7.20068e-05
-7.82649e-05
-8.44773e-05
-9.06145e-05
-9.66476e-05
-0.000102549
-0.00010829
-0.000113847
-0.000119193
-0.000124304
-0.000129158
-0.000133732
-0.000138005
-0.000141956
-0.000145568
-0.00014882
-0.000151696
-0.000154179
-0.000156254
-0.000157904
-0.000159116
-0.000159875
-0.000160168
-0.000159983
-0.000159308
-0.00015813
-0.000156438
-0.000154222
-0.000151471
-0.000148174
-0.000144321
-0.000139902
-0.000134908
-0.000129335
-0.000123184
-0.000116422
-0.000108852
-0.000100329
-9.25812e-05
-5.09732e-05
-4.2346e-05
-3.2838e-05
-2.43746e-05
-1.6805e-05
-9.92534e-06
-3.70768e-06
1.8342e-06
6.69523e-06
1.08776e-05
1.43857e-05
1.72253e-05
1.9404e-05
2.09315e-05
2.18194e-05
2.20817e-05
2.17342e-05
2.07951e-05
1.92844e-05
1.72242e-05
1.46385e-05
1.1553e-05
7.99509e-06
3.9936e-06
-4.21287e-07
-5.21817e-06
-1.03647e-05
-1.58277e-05
-2.15734e-05
-2.75674e-05
-3.37752e-05
-4.0162e-05
-4.66932e-05
-5.33344e-05
-6.00513e-05
-6.68102e-05
-7.3578e-05
-8.03223e-05
-8.70113e-05
-9.36143e-05
-0.000100101
-0.000106443
-0.000112612
-0.000118581
-0.000124324
-0.000129816
-0.000135033
-0.000139953
-0.000144552
-0.000148811
-0.000152708
-0.000156224
-0.000159341
-0.000162041
-0.000164306
-0.000166119
-0.000167464
-0.000168325
-0.000168687
-0.000168535
-0.000167854
-0.000166631
-0.000164849
-0.000162497
-0.000159561
-0.000156027
-0.000151882
-0.000147113
-0.000141708
-0.000135661
-0.000128974
-0.000121607
-0.000113346
-0.000104031
-9.55574e-05
-4.63387e-05
-3.69193e-05
-2.6554e-05
-1.73522e-05
-9.14952e-06
-1.72225e-06
4.96095e-06
1.08861e-05
1.6049e-05
2.04539e-05
2.41074e-05
2.70181e-05
2.91966e-05
3.06557e-05
3.14106e-05
3.14791e-05
3.08807e-05
2.96376e-05
2.77739e-05
2.53158e-05
2.22912e-05
1.873e-05
1.46634e-05
1.01244e-05
5.14687e-06
-2.34116e-07
-5.98267e-06
-1.20622e-05
-1.84356e-05
-2.50656e-05
-3.19146e-05
-3.89453e-05
-4.61205e-05
-5.34032e-05
-6.07573e-05
-6.81468e-05
-7.55368e-05
-8.28932e-05
-9.01828e-05
-9.73731e-05
-0.000104433
-0.000111332
-0.000118041
-0.000124533
-0.000130779
-0.000136755
-0.000142435
-0.000147795
-0.000152813
-0.000157465
-0.000161731
-0.000165591
-0.000169023
-0.000172009
-0.00017453
-0.000176568
-0.000178104
-0.000179121
-0.000179602
-0.000179529
-0.000178885
-0.000177653
-0.000175818
-0.000173362
-0.00017027
-0.000166525
-0.000162111
-0.000157013
-0.000151215
-0.000144711
-0.0001375
-0.000129538
-0.000120593
-0.000110491
-0.000101293
-3.87602e-05
-2.85312e-05
-1.7297e-05
-7.35794e-06
1.46565e-06
9.41846e-06
1.6536e-05
2.28044e-05
2.8221e-05
3.27922e-05
3.65274e-05
3.94381e-05
4.15382e-05
4.28443e-05
4.33754e-05
4.31531e-05
4.22014e-05
4.05465e-05
3.82171e-05
3.52437e-05
3.16589e-05
2.74968e-05
2.27932e-05
1.75853e-05
1.19112e-05
5.81007e-06
-6.78175e-07
-7.51317e-06
-1.46542e-05
-2.20606e-05
-2.96914e-05
-3.75063e-05
-4.54651e-05
-5.35282e-05
-6.16569e-05
-6.98131e-05
-7.79596e-05
-8.60603e-05
-9.40802e-05
-0.000101985
-0.000109742
-0.00011732
-0.000124689
-0.000131818
-0.000138679
-0.000145247
-0.000151494
-0.000157395
-0.000162927
-0.000168067
-0.000172791
-0.000177078
-0.000180907
-0.000184257
-0.000187107
-0.000189439
-0.000191231
-0.000192466
-0.000193122
-0.000193182
-0.000192625
-0.000191433
-0.000189587
-0.000187068
-0.000183856
-0.000179933
-0.00017528
-0.000169879
-0.000163712
-0.000156769
-0.000149049
-0.000140504
-0.000130882
-0.000119994
-0.000110068
-2.78633e-05
-1.68075e-05
-4.69486e-06
5.97601e-06
1.54014e-05
2.38489e-05
3.13588e-05
3.79183e-05
4.35265e-05
4.81929e-05
5.193e-05
5.4753e-05
5.66795e-05
5.77303e-05
5.79286e-05
5.73005e-05
5.58747e-05
5.36824e-05
5.07569e-05
4.71337e-05
4.28503e-05
3.79458e-05
3.24609e-05
2.64374e-05
1.99182e-05
1.2947e-05
5.56802e-06
-2.17413e-06
-1.02348e-05
-1.85692e-05
-2.71331e-05
-3.58826e-05
-4.47743e-05
-5.37658e-05
-6.28153e-05
-7.18822e-05
-8.09271e-05
-8.99115e-05
-9.87984e-05
-0.000107552
-0.000116138
-0.000124522
-0.000132673
-0.000140561
-0.000148156
-0.000155429
-0.000162353
-0.000168903
-0.000175052
-0.000180778
-0.000186055
-0.000190862
-0.000195175
-0.000198972
-0.000202233
-0.000204934
-0.000207056
-0.000208577
-0.000209475
-0.000209729
-0.000209319
-0.000208221
-0.000206416
-0.00020388
-0.000200593
-0.000196532
-0.000191677
-0.000186005
-0.000179496
-0.000172138
-0.000163928
-0.000154814
-0.000144521
-0.000132846
-0.000122189
-1.32107e-05
-1.31505e-06
1.16788e-05
2.30675e-05
3.30652e-05
4.1964e-05
4.98106e-05
5.65937e-05
6.23153e-05
6.69883e-05
7.06295e-05
7.32582e-05
7.48967e-05
7.55702e-05
7.53071e-05
7.41386e-05
7.20987e-05
6.92237e-05
6.55527e-05
6.11266e-05
5.59882e-05
5.01823e-05
4.37546e-05
3.67525e-05
2.92239e-05
2.12175e-05
1.27823e-05
3.96764e-06
-5.17751e-06
-1.46042e-05
-2.42643e-05
-3.41099e-05
-4.40944e-05
-5.41718e-05
-6.42977e-05
-7.44284e-05
-8.4522e-05
-9.45376e-05
-0.000104436
-0.000114179
-0.000123731
-0.000133057
-0.000142123
-0.000150897
-0.000159348
-0.000167447
-0.000175166
-0.000182477
-0.000189354
-0.000195771
-0.000201704
-0.000207129
-0.000212021
-0.000216358
-0.000220116
-0.000223273
-0.000225805
-0.000227689
-0.000228903
-0.000229423
-0.000229225
-0.000228285
-0.00022658
-0.000224084
-0.000220773
-0.000216623
-0.000211608
-0.000205704
-0.000198887
-0.000191142
-0.000182466
-0.000172798
-0.000161844
-0.000149385
-0.000137993
5.70804e-06
1.84471e-05
3.23132e-05
4.4392e-05
5.49173e-05
6.4208e-05
7.23178e-05
7.92383e-05
8.49752e-05
8.95461e-05
9.29727e-05
9.52793e-05
9.64936e-05
9.66464e-05
9.57718e-05
9.39068e-05
9.10913e-05
8.73679e-05
8.27815e-05
7.73793e-05
7.12102e-05
6.43248e-05
5.67751e-05
4.86139e-05
3.98949e-05
3.06723e-05
2.10002e-05
1.0933e-05
5.24583e-07
-1.01717e-05
-2.11033e-05
-3.22185e-05
-4.34667e-05
-5.47987e-05
-6.61664e-05
-7.75236e-05
-8.88253e-05
-0.000100028
-0.000111091
-0.000121974
-0.000132638
-0.000143047
-0.000153166
-0.000162961
-0.000172401
-0.000181454
-0.000190091
-0.000198284
-0.000206005
-0.000213228
-0.000219926
-0.000226075
-0.00023165
-0.000236626
-0.000240978
-0.000244683
-0.000247715
-0.00025005
-0.000251663
-0.000252527
-0.000252618
-0.000251909
-0.000250372
-0.00024798
-0.000244707
-0.000240522
-0.0002354
-0.00022931
-0.000222226
-0.00021413
-0.000205015
-0.000194816
-0.000183215
-0.000169977
-0.000157851
2.94846e-05
4.30562e-05
5.77671e-05
7.04891e-05
8.14773e-05
9.10788e-05
9.93562e-05
0.000106305
0.000111936
0.000116272
0.000119341
0.000121174
0.000121804
0.000121268
0.000119608
0.000116867
0.000113092
0.000108332
0.000102639
9.60664e-05
8.86704e-05
8.05081e-05
7.16379e-05
6.2119e-05
5.20113e-05
4.13747e-05
3.02692e-05
1.87545e-05
6.88965e-06
-5.26716e-06
-1.76588e-05
-3.02292e-05
-4.29238e-05
-5.56898e-05
-6.84757e-05
-8.12318e-05
-9.39107e-05
-0.000106467
-0.000118856
-0.000131036
-0.000142967
-0.00015461
-0.000165929
-0.000176889
-0.000187456
-0.000197599
-0.000207287
-0.00021649
-0.000225181
-0.000233331
-0.000240914
-0.000247903
-0.000254272
-0.000259996
-0.000265049
-0.000269404
-0.000273036
-0.000275918
-0.000278022
-0.000279322
-0.000279788
-0.000279391
-0.000278102
-0.00027589
-0.000272723
-0.000268571
-0.000263402
-0.000257182
-0.000249881
-0.000241476
-0.00023196
-0.000221258
-0.000209031
-0.000195027
-0.000182171
5.88002e-05
7.3172e-05
8.8675e-05
0.000101967
0.000113328
0.000123132
0.000131454
0.000138295
0.00014367
0.000147612
0.000150153
0.000151333
0.000151191
0.000149774
0.000147129
0.000143308
0.000138364
0.000132356
0.000125341
0.000117382
0.000108542
9.88851e-05
8.84767e-05
7.7383e-05
6.56703e-05
5.34052e-05
4.06537e-05
2.74811e-05
1.39521e-05
1.29955e-07
-1.39233e-05
-2.81473e-05
-4.24833e-05
-5.68747e-05
-7.12666e-05
-8.56051e-05
-9.98389e-05
-0.000113922
-0.00012781
-0.000141455
-0.000154816
-0.000167853
-0.000180528
-0.000192804
-0.000204647
-0.000216024
-0.000226904
-0.000237256
-0.000247051
-0.00025626
-0.000264856
-0.000272811
-0.000280098
-0.00028669
-0.00029256
-0.00029768
-0.000302022
-0.000305559
-0.00030826
-0.000310095
-0.000311035
-0.000311046
-0.000310095
-0.000308149
-0.000305172
-0.00030113
-0.000295985
-0.000289702
-0.000282244
-0.000273585
-0.000263713
-0.000252547
-0.000239724
-0.000224974
-0.0002114
9.44322e-05
0.000109543
0.000125752
0.000139509
0.000151116
0.000160983
0.000169194
0.000175757
0.000180696
0.000184051
0.000185863
0.00018618
0.000185052
0.000182531
0.000178674
0.000173541
0.000167196
0.000159702
0.000151129
0.000141545
0.000131022
0.000119632
0.000107448
9.45434e-05
8.09922e-05
6.68673e-05
5.22411e-05
3.71853e-05
2.17701e-05
6.06422e-06
-9.86526e-06
-2.59532e-05
-4.21367e-05
-5.83549e-05
-7.45495e-05
-9.06657e-05
-0.000106649
-0.000122447
-0.000138013
-0.000153301
-0.000168264
-0.000182863
-0.000197058
-0.000210812
-0.000224089
-0.000236856
-0.00024908
-0.000260729
-0.000271774
-0.000282186
-0.000291934
-0.000300992
-0.000309331
-0.000316923
-0.000323739
-0.000329751
-0.000334929
-0.000339241
-0.000342658
-0.000345146
-0.000346671
-0.000347198
-0.000346691
-0.000345111
-0.000342421
-0.000338579
-0.000333546
-0.000327279
-0.000319737
-0.000310889
-0.00030072
-0.00028914
-0.000275763
-0.000260298
-0.000246027
0.000137259
0.000153011
0.000169794
0.000183868
0.000195558
0.000205307
0.000213212
0.00021929
0.000223574
0.000226114
0.000226963
0.000226176
0.000223812
0.000219935
0.000214611
0.000207908
0.0001999
0.000190661
0.000180267
0.000168798
0.000156332
0.000142951
0.000128735
0.000113767
9.81267e-05
8.18947e-05
6.51502e-05
4.79712e-05
3.04339e-05
1.26127e-05
-5.4202e-06
-2.35949e-05
-4.18442e-05
-6.0103e-05
-7.83096e-05
-9.64046e-05
-0.000114332
-0.000132038
-0.000149476
-0.000166597
-0.000183351
-0.000199692
-0.000215583
-0.000230988
-0.000245869
-0.000260192
-0.000273923
-0.000287031
-0.000299485
-0.000311254
-0.000322309
-0.000332621
-0.000342162
-0.0003509
-0.000358808
-0.000365854
-0.000372007
-0.000377234
-0.000381501
-0.000384774
-0.000387014
-0.000388183
-0.000388241
-0.000387147
-0.000384856
-0.000381323
-0.000376503
-0.000370348
-0.000362811
-0.000353856
-0.000343462
-0.000331532
-0.000317654
-0.00030152
-0.000286583
0.000188264
0.00020451
0.000221682
0.000235873
0.000247433
0.000256835
0.000264193
0.000269535
0.000272905
0.000274364
0.000273976
0.000271807
0.000267928
0.000262411
0.000255335
0.000246777
0.000236821
0.000225551
0.000213054
0.000199417
0.000184729
0.00016908
0.00015256
0.000135257
0.000117262
9.86606e-05
7.95402e-05
5.99849e-05
4.00772e-05
1.9897e-05
-4.78331e-07
-2.0974e-05
-4.15185e-05
-6.20432e-05
-8.24825e-05
-0.000102774
-0.00012286
-0.000142682
-0.000162188
-0.000181329
-0.000200064
-0.000218343
-0.000236121
-0.000253363
-0.000270031
-0.000286089
-0.000301506
-0.000316247
-0.000330282
-0.00034358
-0.000356112
-0.000367846
-0.000378755
-0.000388806
-0.000397968
-0.00040621
-0.000413498
-0.000419797
-0.000425071
-0.00042928
-0.000432385
-0.000434344
-0.00043511
-0.000434639
-0.00043288
-0.000429785
-0.0004253
-0.000419372
-0.000411947
-0.000402984
-0.000392456
-0.000380256
-0.000365947
-0.000349204
-0.000333646
0.000248531
0.000265064
0.000282374
0.000296418
0.000307575
0.000316348
0.000322867
0.000327173
0.000329324
0.000329393
0.000327455
0.000323591
0.000317881
0.000310411
0.000301269
0.000290544
0.00027833
0.000264723
0.000249817
0.000233712
0.000216506
0.000198296
0.000179182
0.000159262
0.000138632
0.000117388
9.56225e-05
7.34268e-05
5.08895e-05
2.80962e-05
5.12967e-06
-1.79309e-05
-4.10097e-05
-6.40343e-05
-8.6936e-05
-0.00010965
-0.000132115
-0.000154273
-0.000176066
-0.000197441
-0.000218354
-0.000238767
-0.000258633
-0.00027791
-0.000296561
-0.00031455
-0.000331845
-0.000348411
-0.000364218
-0.000379235
-0.000393432
-0.000406778
-0.000419241
-0.00043079
-0.000441393
-0.000451016
-0.000459622
-0.000467175
-0.000473635
-0.00047896
-0.000483105
-0.000486024
-0.000487667
-0.000487982
-0.000486915
-0.000484409
-0.000480405
-0.000474842
-0.00046766
-0.00045881
-0.000448258
-0.000435887
-0.000421236
-0.000403962
-0.000387843
0.000319242
0.000335783
0.000352894
0.000366456
0.000376869
0.000384666
0.000389994
0.000392911
0.000393488
0.000391812
0.000387973
0.000382062
0.000374175
0.000364407
0.000352859
0.000339632
0.00032483
0.000308558
0.000290924
0.000272034
0.000251998
0.000230923
0.000208916
0.000186084
0.000162531
0.00013836
0.000113671
8.85627e-05
6.31287e-05
3.74606e-05
1.16461e-05
-1.4231e-05
-4.00907e-05
-6.5857e-05
-9.14582e-05
-0.000116826
-0.000141898
-0.000166613
-0.000190916
-0.000214753
-0.000238077
-0.000260842
-0.000283007
-0.000304531
-0.000325376
-0.000345506
-0.000364889
-0.000383492
-0.000401283
-0.00041823
-0.000434303
-0.000449471
-0.000463702
-0.000476963
-0.000489219
-0.000500435
-0.000510572
-0.00051959
-0.000527447
-0.000534095
-0.000539486
-0.000543569
-0.000546287
-0.000547584
-0.000547396
-0.000545662
-0.000542314
-0.000537283
-0.0005305
-0.000521908
-0.000511467
-0.000499048
-0.000484165
-0.000466458
-0.000449853
0.000401662
0.000417841
0.000434319
0.000446974
0.000456225
0.000462627
0.00046635
0.000467465
0.000466062
0.000462241
0.000456107
0.000447765
0.000437322
0.000424886
0.000410569
0.000394485
0.000376746
0.00035747
0.000336774
0.000314775
0.00029159
0.000267336
0.00024213
0.000216085
0.000189315
0.000161928
0.000134034
0.000105735
7.71325e-05
4.83226e-05
1.93981e-05
-9.55285e-06
-3.84466e-05
-6.72037e-05
-9.57498e-05
-0.000124015
-0.000151933
-0.000179443
-0.000206489
-0.000233017
-0.000258978
-0.000284327
-0.000309022
-0.000333023
-0.000356293
-0.000378796
-0.0004005
-0.000421373
-0.000441382
-0.000460496
-0.000478685
-0.000495917
-0.000512158
-0.000527374
-0.000541529
-0.000554585
-0.000566501
-0.000577232
-0.000586731
-0.000594949
-0.00060183
-0.000607317
-0.000611348
-0.000613857
-0.000614775
-0.000614031
-0.000611548
-0.000607249
-0.000601055
-0.000592899
-0.000582732
-0.000570413
-0.000555434
-0.000537416
-0.000520419
0.000497113
0.000512455
0.000527751
0.000538972
0.000546553
0.000551065
0.000552695
0.000551536
0.000547693
0.000541283
0.000532423
0.000521232
0.000507829
0.000492334
0.00047487
0.000455559
0.000434527
0.0004119
0.000387804
0.000362365
0.000335709
0.000307963
0.00027925
0.000249692
0.00021941
0.000188521
0.000157138
0.000125371
9.33273e-05
6.11077e-05
2.88095e-05
-3.47512e-06
-3.5659e-05
-6.76599e-05
-9.9401e-05
-0.00013081
-0.000161821
-0.000192371
-0.000222404
-0.000251865
-0.000280707
-0.000308884
-0.000336354
-0.00036308
-0.000389024
-0.000414153
-0.000438434
-0.000461835
-0.000484325
-0.000505874
-0.000526449
-0.000546019
-0.000564549
-0.000582003
-0.000598342
-0.000613527
-0.00062751
-0.000640246
-0.000651681
-0.000661759
-0.00067042
-0.000677598
-0.000683224
-0.000687223
-0.000689518
-0.000690026
-0.000688661
-0.000685335
-0.000679958
-0.000672452
-0.000662757
-0.00065072
-0.000635808
-0.000617625
-0.000600352
0.000606943
0.000620847
0.000634276
0.00064342
0.000648726
0.000650764
0.000649744
0.000645776
0.000638983
0.000629496
0.000617447
0.000602964
0.000586178
0.000567219
0.000546219
0.00052331
0.000498626
0.000472301
0.000444469
0.000415266
0.000384824
0.000353278
0.000320758
0.000287394
0.000253313
0.000218638
0.000183489
0.000147983
0.000112229
7.63356e-05
4.04026e-05
4.5264e-06
-3.1203e-05
-6.6701e-05
-0.000101889
-0.000136693
-0.000171047
-0.000204887
-0.000238157
-0.000270805
-0.000302782
-0.000334044
-0.000364552
-0.000394267
-0.000423157
-0.000451186
-0.000478325
-0.000504543
-0.000529809
-0.000554092
-0.000577362
-0.000599584
-0.000620724
-0.000640742
-0.000659599
-0.000677249
-0.000693642
-0.000708727
-0.000722443
-0.000734729
-0.000745515
-0.000754728
-0.000762288
-0.000768112
-0.000772109
-0.000774185
-0.000774244
-0.000772182
-0.000767897
-0.000761299
-0.000752315
-0.000740777
-0.000726129
-0.00070796
-0.000690548
0.000732468
0.000744187
0.000754909
0.000761206
0.000763521
0.000762414
0.000758109
0.000750737
0.000740437
0.000727351
0.000711622
0.000693388
0.000672786
0.000649955
0.000625033
0.000598162
0.000569477
0.000539119
0.000507231
0.000473952
0.000439424
0.000403785
0.000367173
0.000329724
0.00029157
0.000252841
0.000213662
0.000174154
0.000134434
9.46104e-05
5.47898e-05
1.50708e-05
-2.44541e-05
-6.36983e-05
-0.000102582
-0.000141031
-0.000178978
-0.000216361
-0.000253124
-0.000289217
-0.000324592
-0.000359209
-0.000393029
-0.000426017
-0.000458142
-0.000489371
-0.000519677
-0.000549029
-0.000577399
-0.000604756
-0.000631069
-0.000656304
-0.000680423
-0.000703385
-0.000725147
-0.000745658
-0.000764863
-0.000782704
-0.000799114
-0.000814021
-0.000827346
-0.000839006
-0.000848909
-0.000856958
-0.00086305
-0.000867077
-0.000868927
-0.000868481
-0.000865622
-0.000860243
-0.000852258
-0.000841481
-0.000827335
-0.000809392
-0.000792005
0.000874899
0.00088352
0.000890518
0.000893052
0.00089155
0.000886534
0.000878237
0.000866811
0.000852406
0.000835173
0.000815261
0.000792811
0.000767966
0.000740867
0.000711651
0.000680466
0.000647454
0.000612754
0.000576513
0.000538874
0.000499984
0.000459985
0.00041902
0.000377229
0.000334751
0.000291719
0.000248265
0.000204513
0.000160583
0.000116591
7.26441e-05
2.88441e-05
-1.47143e-05
-5.79433e-05
-0.000100762
-0.000143098
-0.000184884
-0.000226058
-0.000266569
-0.000306366
-0.000345408
-0.000383655
-0.000421072
-0.000457629
-0.000493297
-0.000528047
-0.000561853
-0.000594689
-0.000626527
-0.000657337
-0.000687088
-0.000715744
-0.000743267
-0.000769612
-0.00079473
-0.000818566
-0.000841058
-0.000862137
-0.000881729
-0.000899751
-0.000916111
-0.000930712
-0.000943449
-0.000954209
-0.00096287
-0.000969309
-0.000973394
-0.00097499
-0.000973959
-0.000970177
-0.000963538
-0.000953839
-0.000940479
-0.000923016
-0.000905849
0.00103522
0.00103964
0.00104171
0.00103942
0.00103316
0.00102338
0.00101032
0.000994145
0.000975009
0.000953067
0.000928466
0.000901347
0.000871849
0.000840108
0.000806262
0.000770449
0.000732814
0.000693498
0.000652643
0.000610396
0.000566903
0.00052231
0.000476763
0.000430406
0.000383381
0.000335827
0.000287878
0.000239664
0.000191309
0.000142931
9.46403e-05
4.65419e-05
-1.26852e-06
-4.87024e-05
-9.56797e-05
-0.000142128
-0.000187982
-0.000233185
-0.000277686
-0.000321441
-0.000364411
-0.000406562
-0.000447865
-0.000488293
-0.000527822
-0.00056643
-0.000604094
-0.000640789
-0.000676492
-0.000711174
-0.000744803
-0.000777344
-0.000808754
-0.000838985
-0.000867982
-0.000895683
-0.000922018
-0.000946906
-0.00097026
-0.000991984
-0.00101197
-0.0010301
-0.00104627
-0.00106033
-0.00107213
-0.00108154
-0.0010884
-0.00109255
-0.00109383
-0.00109211
-0.00108723
-0.00107899
-0.00106676
-0.00105008
-0.00103336
0.00121409
0.00121302
0.00120877
0.00120044
0.00118835
0.00117286
0.0011542
0.00113254
0.00110803
0.00108082
0.00105104
0.00101883
0.000984297
0.000947583
0.00090881
0.000868106
0.000825606
0.000781445
0.000735763
0.000688704
0.000640411
0.000591032
0.000540714
0.000489604
0.000437846
0.000385583
0.000332954
0.000280092
0.000227125
0.000174174
0.000121353
6.8768e-05
1.65163e-05
-3.53133e-05
-8.66424e-05
-0.000137401
-0.000187528
-0.000236969
-0.00028568
-0.000333622
-0.000380764
-0.000427077
-0.000472541
-0.000517136
-0.000560846
-0.000603653
-0.000645541
-0.000686491
-0.000726483
-0.00076549
-0.000803482
-0.00084042
-0.000876261
-0.000910951
-0.000944428
-0.00097662
-0.00100744
-0.00103681
-0.00106461
-0.00109073
-0.00111505
-0.00113743
-0.00115774
-0.00117579
-0.00119142
-0.00120447
-0.00121476
-0.00122209
-0.00122629
-0.00122717
-0.00122457
-0.00121825
-0.00120756
-0.00119202
-0.00117604
0.00141174
0.00140364
0.00139141
0.00137564
0.00135654
0.00133433
0.00130919
0.00128129
0.00125077
0.00121776
0.00118235
0.00114466