/*--------------------------------*- C++ -*----------------------------------*\
  =========                 |
  \\      /  F ield         | OpenFOAM: The Open Source CFD Toolbox
   \\    /   O peration     | Website:  https://openfoam.org
    \\  /    A nd           | Version:  12
     \\/     M anipulation  |
\*---------------------------------------------------------------------------*/
FoamFile
{
    format      ascii;
    class       surfaceScalarField;
    location    "3";
    object      phi;
}
// * * * * * * * * * * * * * * * * * * * * * * * * * * * * * * * * * * * * * //

dimensions      [0 3 -1 0 0 0 0];

internalField   nonuniform List<scalar> 
11100
(
-3.15796e-11
3.08289e-11
-7.78933e-11
4.63069e-11
-1.10886e-10
3.29909e-11
-1.13476e-10
2.59379e-12
-7.66667e-11
-3.68089e-11
4.32312e-12
-8.09879e-11
1.30933e-10
-1.26609e-10
3.02514e-10
-1.71579e-10
5.16999e-10
-2.14485e-10
7.71405e-10
-2.54405e-10
1.06216e-09
-2.9075e-10
1.38531e-09
-3.23154e-10
1.73671e-09
-3.51405e-10
2.11212e-09
-3.75402e-10
2.50723e-09
-3.95117e-10
2.91781e-09
-4.10582e-10
3.33968e-09
-4.21867e-10
3.76875e-09
-4.29076e-10
4.20109e-09
-4.32335e-10
4.63288e-09
-4.31791e-10
5.06048e-09
-4.27607e-10
5.48044e-09
-4.19956e-10
5.88946e-09
-4.09023e-10
6.28446e-09
-3.95004e-10
6.66256e-09
-3.78098e-10
7.02107e-09
-3.58513e-10
7.35752e-09
-3.36459e-10
7.66968e-09
-3.12152e-10
7.95548e-09
-2.8581e-10
8.21313e-09
-2.5765e-10
8.44102e-09
-2.27893e-10
8.63778e-09
-1.9676e-10
8.80225e-09
-1.64469e-10
8.93349e-09
-1.31239e-10
9.03077e-09
-9.72867e-11
9.0936e-09
-6.28279e-11
9.12167e-09
-2.80752e-11
9.11491e-09
6.76109e-12
9.07344e-09
4.14732e-11
8.99758e-09
7.58572e-11
8.88787e-09
1.0971e-10
8.74504e-09
1.42833e-10
8.57001e-09
1.7503e-10
8.3639e-09
2.06106e-10
8.12803e-09
2.35872e-10
7.86389e-09
2.64138e-10
7.57317e-09
2.90719e-10
7.25774e-09
3.1543e-10
6.91965e-09
3.3809e-10
6.56114e-09
3.58519e-10
6.1846e-09
3.76538e-10
5.79263e-09
3.91973e-10
5.38798e-09
4.04648e-10
4.97359e-09
4.14394e-10
4.55255e-09
4.2104e-10
4.12812e-09
4.24424e-10
3.70374e-09
4.24386e-10
3.28297e-09
4.20772e-10
2.86953e-09
4.13439e-10
2.46727e-09
4.02255e-10
2.08017e-09
3.87106e-10
1.71226e-09
3.67904e-10
1.36767e-09
3.44594e-10
1.0505e-09
3.17171e-10
7.64794e-10
2.85702e-10
5.14434e-10
2.50359e-10
3.02969e-10
2.11464e-10
1.33408e-10
1.6956e-10
7.88634e-12
1.2552e-10
-7.28154e-11
8.07004e-11
-1.09969e-10
3.71527e-11
-1.0822e-10
-1.75014e-12
-7.61468e-11
-3.20743e-11
-3.05848e-11
-4.55625e-11
-3.05846e-11
-1.45169e-11
4.53389e-11
-1.134e-11
4.31289e-11
4.48692e-11
-2.32187e-11
1.77477e-10
-1.30015e-10
4.01726e-10
-2.61058e-10
7.2564e-10
-4.04902e-10
1.1523e-09
-5.5327e-10
1.6809e-09
-7.00183e-10
2.30777e-09
-8.41351e-10
3.02709e-09
-9.73723e-10
3.83149e-09
-1.09515e-09
4.7125e-09
-1.20416e-09
5.66087e-09
-1.29978e-09
6.66687e-09
-1.3814e-09
7.72044e-09
-1.44869e-09
8.81144e-09
-1.50158e-09
9.9297e-09
-1.54013e-09
1.10652e-08
-1.56455e-09
1.2208e-08
-1.57517e-09
1.33486e-08
-1.57241e-09
1.44778e-08
-1.55675e-09
1.55866e-08
-1.52875e-09
1.66665e-08
-1.489e-09
1.77097e-08
-1.43817e-09
1.87085e-08
-1.37692e-09
1.9656e-08
-1.30597e-09
2.05456e-08
-1.22606e-09
2.13714e-08
-1.13794e-09
2.21279e-08
-1.04237e-09
2.28104e-08
-9.4015e-10
2.34146e-08
-8.32055e-10
2.39367e-08
-7.18882e-10
2.43737e-08
-6.01423e-10
2.47229e-08
-4.80474e-10
2.49824e-08
-3.56824e-10
2.51509e-08
-2.31261e-10
2.52274e-08
-1.04564e-10
2.52116e-08
2.24942e-11
2.5104e-08
1.49148e-10
2.49052e-08
2.74641e-10
2.46167e-08
3.98229e-10
2.42403e-08
5.19175e-10
2.37786e-08
6.36753e-10
2.32344e-08
7.50248e-10
2.26114e-08
8.58955e-10
2.19133e-08
9.62181e-10
2.11448e-08
1.05924e-09
2.03108e-08
1.14947e-09
1.94166e-08
1.2322e-09
1.84684e-08
1.30678e-09
1.74723e-08
1.37258e-09
1.64353e-08
1.42898e-09
1.53646e-08
1.47538e-09
1.42678e-08
1.51118e-09
1.3153e-08
1.53582e-09
1.20287e-08
1.54877e-09
1.09036e-08
1.54953e-09
9.7867e-09
1.53763e-09
8.68747e-09
1.51266e-09
7.61542e-09
1.47431e-09
6.58022e-09
1.4223e-09
5.59161e-09
1.35652e-09
4.65922e-09
1.27698e-09
3.79248e-09
1.18391e-09
3.00039e-09
1.07779e-09
2.29127e-09
9.59486e-10
1.6724e-09
8.30329e-10
1.14964e-09
6.92322e-10
7.2679e-10
5.4837e-10
4.04877e-10
4.02614e-10
1.81135e-10
2.60894e-10
4.80295e-11
1.31355e-10
-9.34823e-12
2.53034e-11
-1.37722e-11
-4.11384e-11
-4.43549e-11
2.68846e-11
1.84511e-11
1.36409e-10
-6.63941e-11
3.52143e-10
-2.38953e-10
6.91472e-10
-4.69343e-10
1.1659e-09
-7.35485e-10
1.78163e-09
-1.02063e-09
2.54029e-09
-1.31193e-09
3.43967e-09
-1.59956e-09
4.47438e-09
-1.87607e-09
5.6365e-09
-2.13584e-09
6.91608e-09
-2.37473e-09
8.30163e-09
-2.58971e-09
9.78051e-09
-2.77865e-09
1.13392e-08
-2.94011e-09
1.29638e-08
-3.07323e-09
1.46398e-08
-3.17759e-09
1.63528e-08
-3.25315e-09
1.80884e-08
-3.30017e-09
1.98324e-08
-3.31915e-09
2.15708e-08
-3.3108e-09
2.32901e-08
-3.27603e-09
2.49772e-08
-3.21587e-09
2.66197e-08
-3.13148e-09
2.82056e-08
-3.02413e-09
2.97239e-08
-2.89517e-09
3.11639e-08
-2.74603e-09
3.25161e-08
-2.57819e-09
3.37713e-08
-2.3932e-09
3.49216e-08
-2.19264e-09
3.59595e-08
-1.97809e-09
3.68787e-08
-1.75121e-09
3.76734e-08
-1.51362e-09
3.8339e-08
-1.26698e-09
3.88714e-08
-1.01294e-09
3.92678e-08
-7.53164e-10
3.95258e-08
-4.89295e-10
3.96442e-08
-2.2297e-10
3.96225e-08
4.41832e-11
3.94611e-08
3.10555e-10
3.91612e-08
5.74552e-10
3.87248e-08
8.34601e-10
3.81549e-08
1.08915e-09
3.7455e-08
1.33666e-09
3.66296e-08
1.57563e-09
3.5684e-08
1.80457e-09
3.46241e-08
2.02202e-09
3.34568e-08
2.22656e-09
3.21895e-08
2.41676e-09
3.08304e-08
2.59127e-09
2.93885e-08
2.74873e-09
2.78732e-08
2.88784e-09
2.62949e-08
3.00733e-09
2.46643e-08
3.10598e-09
2.29928e-08
3.18261e-09
2.12925e-08
3.23613e-09
1.95758e-08
3.2655e-09
1.78555e-08
3.26977e-09
1.61451e-08
3.24812e-09
1.44579e-08
3.19985e-09
1.28077e-08
3.12444e-09
1.12085e-08
3.02156e-09
9.67385e-09
2.89115e-09
8.21734e-09
2.73349e-09
6.85197e-09
2.54927e-09
5.59005e-09
2.33971e-09
4.44284e-09
2.1067e-09
3.42015e-09
1.85302e-09
2.52992e-09
1.58255e-09
1.77768e-09
1.30061e-09
1.16592e-09
1.01438e-09
6.93384e-10
7.3343e-10
3.54379e-10
4.7036e-10
1.37977e-10
2.41706e-10
2.74676e-11
6.93708e-11
-1.68851e-11
7.32245e-11
-5.47758e-11
3.0331e-10
-2.96479e-10
6.99954e-10
-6.35598e-10
1.27063e-09
-1.04001e-09
2.01965e-09
-1.48451e-09
2.94796e-09
-1.94894e-09
4.0532e-09
-2.41716e-09
5.32988e-09
-2.87625e-09
6.76981e-09
-3.31599e-09
8.36239e-09
-3.72842e-09
1.0095e-08
-4.10738e-09
1.19536e-08
-4.44824e-09
1.39225e-08
-4.74757e-09
1.59854e-08
-5.00299e-09
1.81251e-08
-5.21295e-09
2.03241e-08
-5.37663e-09
2.25647e-08
-5.49376e-09
2.48292e-08
-5.5646e-09
2.70998e-08
-5.58982e-09
2.93595e-08
-5.57045e-09
3.15913e-08
-5.50782e-09
3.37789e-08
-5.40352e-09
3.59068e-08
-5.25937e-09
3.796e-08
-5.07737e-09
3.99246e-08
-4.85968e-09
4.17871e-08
-4.6086e-09
4.35355e-08
-4.32653e-09
4.51582e-08
-4.01598e-09
4.66451e-08
-3.67951e-09
4.79868e-08
-3.31978e-09
4.9175e-08
-2.93945e-09
5.02027e-08
-2.54123e-09
5.10635e-08
-2.12787e-09
5.17527e-08
-1.70211e-09
5.22662e-08
-1.26668e-09
5.26013e-08
-8.24349e-10
5.27561e-08
-3.77833e-10
5.27302e-08
7.0152e-11
5.25238e-08
5.16914e-10
5.21386e-08
9.59789e-10
5.1577e-08
1.39614e-09
5.08428e-08
1.82338e-09
4.99405e-08
2.23892e-09
4.88759e-08
2.64027e-09
4.76555e-08
3.02492e-09
4.62871e-08
3.39045e-09
4.47792e-08
3.73447e-09
4.31413e-08
4.05465e-09
4.13839e-08
4.3487e-09
3.95182e-08
4.61442e-09
3.75564e-08
4.84966e-09
3.55113e-08
5.05236e-09
3.33968e-08
5.22053e-09
3.12271e-08
5.35231e-09
2.90173e-08
5.44595e-09
2.67829e-08
5.49984e-09
2.45402e-08
5.51254e-09
2.23054e-08
5.48283e-09
2.00956e-08
5.40971e-09
1.79275e-08
5.29248e-09
1.58183e-08
5.13081e-09
1.37846e-08
4.9248e-09
1.18431e-08
4.67507e-09
1.00094e-08
4.38289e-09
8.29882e-09
4.05034e-09
6.72506e-09
3.68046e-09
5.30058e-09
3.2775e-09
4.03593e-09
2.8472e-09
2.93945e-09
2.39709e-09
2.01687e-09
1.93695e-09
1.27101e-09
1.47929e-09
7.01471e-10
1.0399e-09
3.04619e-10
6.38558e-10
7.37547e-11
3.00235e-10
5.68712e-11
1.17663e-10
-1.72441e-10
4.66963e-10
-6.45778e-10
1.04538e-09
-1.21402e-09
1.85032e-09
-1.84495e-09
2.87791e-09
-2.5121e-09
4.12246e-09
-3.1935e-09
5.57617e-09
-3.87087e-09
7.22906e-09
-4.52914e-09
9.06907e-09
-5.156e-09
1.10822e-08
-5.74156e-09
1.32528e-08
-6.27798e-09
1.55637e-08
-6.75917e-09
1.79967e-08
-7.18055e-09
2.05326e-08
-7.53883e-09
2.31514e-08
-7.8318e-09
2.5833e-08
-8.05821e-09
2.85569e-08
-8.21761e-09
3.13025e-08
-8.31025e-09
3.40497e-08
-8.33699e-09
3.67784e-08
-8.29918e-09
3.94693e-08
-8.19867e-09
4.21034e-08
-8.03764e-09
4.46627e-08
-7.81866e-09
4.71298e-08
-7.54454e-09
4.94885e-08
-7.21836e-09
5.17233e-08
-6.84341e-09
5.38199e-08
-6.42315e-09
5.57651e-08
-5.96118e-09
5.75469e-08
-5.46124e-09
5.91542e-08
-4.92714e-09
6.05776e-08
-4.36278e-09
6.18084e-08
-3.77211e-09
6.28397e-08
-3.15914e-09
6.36655e-08
-2.52786e-09
6.42811e-08
-1.88232e-09
6.46833e-08
-1.22652e-09
6.48699e-08
-5.64492e-10
6.48403e-08
9.97847e-11
6.45949e-08
7.62348e-10
6.41354e-08
1.41927e-09
6.34648e-08
2.06668e-09
6.25874e-08
2.70075e-09
6.15087e-08
3.31769e-09
6.02351e-08
3.9138e-09
5.87746e-08
4.48542e-09
5.71361e-08
5.02897e-09
5.53296e-08
5.54096e-09
5.33663e-08
6.01795e-09
5.12584e-08
6.45663e-09
4.9019e-08
6.85378e-09
4.66624e-08
7.20628e-09
4.42036e-08
7.51114e-09
4.16586e-08
7.76555e-09
3.90441e-08
7.96682e-09
3.63776e-08
8.11249e-09
3.36771e-08
8.20032e-09
3.09613e-08
8.22831e-09
2.82494e-08
8.1948e-09
2.55606e-08
8.09848e-09
2.29146e-08
7.93848e-09
2.0331e-08
7.71445e-09
1.78291e-08
7.42663e-09
1.54282e-08
7.07599e-09
1.31467e-08
6.66439e-09
1.10024e-08
6.19467e-09
9.01191e-09
5.67091e-09
7.19075e-09
5.09867e-09
5.55277e-09
4.48518e-09
4.11012e-09
3.83974e-09
2.87304e-09
3.17403e-09
1.84978e-09
2.50255e-09
1.04667e-09
1.84301e-09
4.68321e-10
1.2169e-09
1.18261e-10
6.50294e-10
1.75133e-10
1.5864e-10
-3.31081e-10
6.20597e-10
-1.10773e-09
1.37358e-09
-1.967e-09
2.40606e-09
-2.87743e-09
3.70632e-09
-3.81235e-09
5.26177e-09
-4.74896e-09
7.05867e-09
-5.66777e-09
9.08187e-09
-6.55233e-09
1.13148e-08
-7.3889e-09
1.37394e-08
-8.16618e-09
1.63365e-08
-8.87506e-09
1.90856e-08
-9.50832e-09
2.19655e-08
-1.00605e-08
2.49542e-08
-1.05275e-08
2.8029e-08
-1.09066e-08
3.1167e-08
-1.11963e-08
3.43454e-08
-1.1396e-08
3.75412e-08
-1.15061e-08
4.07318e-08
-1.15276e-08
4.3895e-08
-1.14623e-08
4.7009e-08
-1.13127e-08
5.0053e-08
-1.10816e-08
5.30067e-08
-1.07724e-08
5.58509e-08
-1.03888e-08
5.85675e-08
-9.93493e-09
6.11393e-08
-9.41518e-09
6.35503e-08
-8.83417e-09
6.57858e-08
-8.19671e-09
6.78324e-08
-7.50782e-09
6.96779e-08
-6.77264e-09
7.13115e-08
-5.99642e-09
7.27239e-08
-5.18449e-09
7.3907e-08
-4.34224e-09
7.48543e-08
-3.47511e-09
7.55605e-08
-2.58854e-09
7.6022e-08
-1.68799e-09
7.62364e-08
-7.78892e-10
7.62028e-08
1.33329e-10
7.59219e-08
1.0433e-09
7.53955e-08
1.94568e-09
7.46269e-08
2.83521e-09
7.3621e-08
3.70668e-09
7.23837e-08
4.55496e-09
7.09225e-08
5.37499e-09
6.92461e-08
6.16182e-09
6.73645e-08
6.91059e-09
6.52889e-08
7.61655e-09
6.30318e-08
8.27507e-09
6.06068e-08
8.88166e-09
5.80286e-08
9.43197e-09
5.53131e-08
9.92181e-09
5.2477e-08
1.03472e-08
4.95382e-08
1.07043e-08
4.65153e-08
1.09897e-08
4.34279e-08
1.12e-08
4.02959e-08
1.13322e-08
3.71404e-08
1.13839e-08
3.39824e-08
1.13527e-08
3.08438e-08
1.12371e-08
2.77463e-08
1.10359e-08
2.4712e-08
1.07487e-08
2.17628e-08
1.03758e-08
1.89203e-08
9.91846e-09
1.62059e-08
9.37886e-09
1.364e-08
8.76051e-09
1.12427e-08
8.06827e-09
9.03268e-09
7.30865e-09
7.02788e-09
6.48998e-09
5.24487e-09
5.62275e-09
3.69902e-09
4.71988e-09
2.40455e-09
3.79701e-09
1.37471e-09
2.87286e-09
6.22112e-10
1.9695e-09
1.59362e-10
1.11304e-09
3.34494e-10
1.96351e-10
-5.2743e-10
7.63866e-10
-1.67525e-09
1.68251e-09
-2.88564e-09
2.9332e-09
-4.12812e-09
4.49705e-09
-5.3762e-09
6.35492e-09
-6.60682e-09
8.48705e-09
-7.7999e-09
1.08729e-08
-8.93817e-09
1.3491e-08
-1.0007e-08
1.63189e-08
-1.09942e-08
1.93336e-08
-1.18897e-08
2.25109e-08
-1.26856e-08
2.58262e-08
-1.33758e-08
2.92545e-08
-1.39558e-08
3.27704e-08
-1.44225e-08
3.63485e-08
-1.47743e-08
3.99631e-08
-1.50107e-08
4.35892e-08
-1.51322e-08
4.72019e-08
-1.51403e-08
5.07768e-08
-1.50373e-08
5.42904e-08
-1.48263e-08
5.77199e-08
-1.4511e-08
6.10432e-08
-1.40957e-08
6.42396e-08
-1.35852e-08
6.72892e-08
-1.29846e-08
7.01735e-08
-1.22995e-08
7.28753e-08
-1.15359e-08
7.53785e-08
-1.06999e-08
7.76686e-08
-9.79795e-09
7.97325e-08
-8.83654e-09
8.15585e-08
-7.82242e-09
8.31365e-08
-6.76242e-09
8.44577e-08
-5.66345e-09
8.5515e-08
-4.53247e-09
8.6303e-08
-3.37647e-09
8.68174e-08
-2.20245e-09
8.70559e-08
-1.0174e-09
8.70176e-08
1.71714e-10
8.67029e-08
1.35799e-09
8.6114e-08
2.53456e-09
8.52546e-08
3.69464e-09
8.41297e-08
4.83155e-09
8.2746e-08
5.93866e-09
8.11115e-08
7.0095e-09
7.92356e-08
8.03767e-09
7.71293e-08
9.01693e-09
7.48046e-08
9.94119e-09
7.22752e-08
1.08045e-08
6.95558e-08
1.16011e-08
6.66624e-08
1.23254e-08
6.36121e-08
1.29721e-08
6.04233e-08
1.3536e-08
5.71154e-08
1.40123e-08
5.37085e-08
1.43966e-08
5.02238e-08
1.46846e-08
4.66834e-08
1.48726e-08
4.311e-08
1.49573e-08
3.95267e-08
1.4936e-08
3.59574e-08
1.48064e-08
3.24262e-08
1.45672e-08
2.89573e-08
1.42176e-08
2.55752e-08
1.3758e-08
2.23041e-08
1.31895e-08
1.91683e-08
1.25147e-08
1.61914e-08
1.17374e-08
1.33967e-08
1.08629e-08
1.08071e-08
9.89831e-09
8.44444e-09
8.85261e-09
6.33022e-09
7.73697e-09
4.48513e-09
6.56497e-09
2.92937e-09
5.35278e-09
1.68279e-09
4.11943e-09
7.6526e-10
2.88703e-09
1.9714e-10
1.68116e-09
5.31633e-10
2.3157e-10
-7.58998e-10
8.98854e-10
-2.34253e-09
1.9755e-09
-3.96229e-09
3.43592e-09
-5.58854e-09
5.25482e-09
-7.19511e-09
7.4069e-09
-8.75891e-09
9.8666e-09
-1.02596e-08
1.26079e-08
-1.16795e-08
1.56045e-08
-1.30035e-08
1.88292e-08
-1.42189e-08
2.22547e-08
-1.53152e-08
2.58531e-08
-1.6284e-08
2.95963e-08
-1.7119e-08
3.34559e-08
-1.78154e-08
3.74036e-08
-1.83702e-08
4.14112e-08
-1.87819e-08
4.54507e-08
-1.90502e-08
4.94946e-08
-1.9176e-08
5.35158e-08
-1.91614e-08
5.7488e-08
-1.90095e-08
6.13858e-08
-1.87241e-08
6.51846e-08
-1.83098e-08
6.8861e-08
-1.77721e-08
7.23926e-08
-1.71167e-08
7.57583e-08
-1.63503e-08
7.89383e-08
-1.54795e-08
8.19143e-08
-1.45119e-08
8.46692e-08
-1.34549e-08
8.71877e-08
-1.23164e-08
8.94557e-08
-1.11046e-08
9.1461e-08
-9.82768e-09
9.31927e-08
-8.49412e-09
9.46417e-08
-7.11244e-09
9.58004e-08
-5.69122e-09
9.6663e-08
-4.2391e-09
9.72253e-08
-2.76471e-09
9.74846e-08
-1.27668e-09
9.74399e-08
2.16383e-10
9.70919e-08
1.70594e-09
9.6443e-08
3.18352e-09
9.54969e-08
4.64074e-09
9.42591e-08
6.06931e-09
9.27367e-08
7.46106e-09
9.09383e-08
8.80797e-09
8.88738e-08
1.01021e-08
8.65548e-08
1.13359e-08
8.39944e-08
1.25016e-08
8.1207e-08
1.3592e-08
7.82082e-08
1.45998e-08
7.50152e-08
1.55184e-08
7.16463e-08
1.6341e-08
6.81211e-08
1.70612e-08
6.44601e-08
1.76733e-08
6.06852e-08
1.81715e-08
5.6819e-08
1.85508e-08
5.28852e-08
1.88064e-08
4.89082e-08
1.89343e-08
4.49133e-08
1.89309e-08
4.09261e-08
1.87936e-08
3.69729e-08
1.85203e-08
3.30805e-08
1.811e-08
2.92758e-08
1.75627e-08
2.55858e-08
1.68795e-08
2.20377e-08
1.60628e-08
1.86587e-08
1.51164e-08
1.54756e-08
1.4046e-08
1.25152e-08
1.28587e-08
9.80402e-09
1.15638e-08
7.36822e-09
1.01728e-08
5.23385e-09
8.69933e-09
3.42686e-09
7.15977e-09
1.97325e-09
5.57304e-09
8.99371e-10
3.96091e-09
2.32236e-10
2.3483e-09
7.63866e-10
2.65193e-10
-1.02419e-09
1.02836e-09
-3.1057e-09
2.25768e-09
-5.19161e-09
3.92177e-09
-7.25262e-09
5.98946e-09
-9.26281e-09
8.42967e-09
-1.11991e-08
1.12112e-08
-1.30411e-08
1.43027e-08
-1.47711e-08
1.76728e-08
-1.63736e-08
2.12897e-08
-1.78357e-08
2.51215e-08
-1.9147e-08
2.91365e-08
-2.0299e-08
3.33027e-08
-2.12852e-08
3.75884e-08
-2.21011e-08
4.19622e-08
-2.2744e-08
4.63929e-08
-2.32127e-08
5.08501e-08
-2.35073e-08
5.53037e-08
-2.36296e-08
5.97246e-08
-2.35824e-08
6.40846e-08
-2.33695e-08
6.83564e-08
-2.29958e-08
7.25137e-08
-2.24672e-08
7.65318e-08
-2.17901e-08
8.03868e-08
-2.09718e-08
8.40566e-08
-2.00201e-08
8.75203e-08
-1.89432e-08
9.07585e-08
-1.77501e-08
9.37535e-08
-1.64498e-08
9.6489e-08
-1.50519e-08
9.89505e-08
-1.35661e-08
1.01125e-07
-1.20022e-08
1.03001e-07
-1.03705e-08
1.0457e-07
-8.68114e-09
1.05823e-07
-6.94441e-09
1.06755e-07
-5.17067e-09
1.07361e-07
-3.37028e-09
1.07637e-07
-1.55358e-09
1.07585e-07
2.69109e-10
1.07203e-07
2.08756e-09
1.06495e-07
3.89159e-09
1.05465e-07
5.67116e-09
1.04118e-07
7.41633e-09
1.02461e-07
9.11728e-09
1.00505e-07
1.07644e-08
9.82589e-08
1.23482e-08
9.57354e-08
1.38594e-08
9.29481e-08
1.52889e-08
8.99121e-08
1.66279e-08
8.66441e-08
1.78679e-08
8.31619e-08
1.90005e-08
7.94851e-08
2.00178e-08
7.56341e-08
2.09122e-08
7.16309e-08
2.16765e-08
6.74985e-08
2.23039e-08
6.32611e-08
2.27882e-08
5.89438e-08
2.31236e-08
5.45729e-08
2.33052e-08
5.01753e-08
2.33285e-08
4.57789e-08
2.31901e-08
4.14121e-08
2.28872e-08
3.7104e-08
2.24182e-08
3.28841e-08
2.17826e-08
2.87825e-08
2.09811e-08
2.48295e-08
2.00158e-08
2.10557e-08
1.88903e-08
1.74916e-08
1.761e-08
1.41683e-08
1.6182e-08
1.11167e-08
1.46155e-08
8.3677e-09
1.29217e-08
5.95265e-09
1.11144e-08
3.9029e-09
9.20951e-09
2.2502e-09
7.22575e-09
1.02674e-09
5.18437e-09
2.65398e-10
3.10963e-09
1.02926e-09
2.98057e-10
-1.32224e-09
1.15517e-09
-3.96281e-09
2.53441e-09
-6.57084e-09
4.39895e-09
-9.11717e-09
6.71206e-09
-1.15759e-08
9.43705e-09
-1.39241e-08
1.25373e-08
-1.61413e-08
1.59761e-08
-1.82098e-08
1.97169e-08
-2.01144e-08
2.37232e-08
-2.18421e-08
2.79589e-08
-2.33827e-08
3.23877e-08
-2.47278e-08
3.69741e-08
-2.58715e-08
4.16826e-08
-2.68097e-08
4.64788e-08
-2.75401e-08
5.13284e-08
-2.80623e-08
5.61982e-08
-2.83772e-08
6.1056e-08
-2.84874e-08
6.58704e-08
-2.83968e-08
7.06112e-08
-2.81102e-08
7.52493e-08
-2.7634e-08
7.9757e-08
-2.6975e-08
8.41081e-08
-2.61412e-08
8.82776e-08
-2.51413e-08
9.22422e-08
-2.39847e-08
9.59801e-08
-2.26811e-08
9.94712e-08
-2.12412e-08
1.02697e-07
-1.96755e-08
1.0564e-07
-1.79954e-08
1.08287e-07
-1.62124e-08
1.10622e-07
-1.4338e-08
1.12636e-07
-1.23841e-08
1.14318e-07
-1.03628e-08
1.15659e-07
-8.28613e-09
1.16655e-07
-6.16621e-09
1.173e-07
-4.01517e-09
1.17591e-07
-1.84515e-09
1.17529e-07
3.31795e-10
1.17113e-07
2.50366e-09
1.16346e-07
4.65853e-09
1.15232e-07
6.78463e-09
1.13778e-07
8.87031e-09
1.11991e-07
1.09041e-08
1.09881e-07
1.28746e-08
1.07459e-07
1.47708e-08
1.04736e-07
1.65818e-08
1.01728e-07
1.82968e-08
9.84505e-08
1.99056e-08
9.49203e-08
2.1398e-08
9.11565e-08
2.27643e-08
8.71793e-08
2.3995e-08
8.30103e-08
2.50812e-08
7.86725e-08
2.60143e-08
7.41902e-08
2.67862e-08
6.9589e-08
2.73895e-08
6.48954e-08
2.78172e-08
6.01374e-08
2.80632e-08
5.53438e-08
2.81221e-08
5.05444e-08
2.79895e-08
4.57699e-08
2.76616e-08
4.10519e-08
2.71362e-08
3.64227e-08
2.64118e-08
3.19151e-08
2.54886e-08
2.75629e-08
2.4368e-08
2.33999e-08
2.30532e-08
1.94609e-08
2.1549e-08
1.57809e-08
1.98621e-08
1.23951e-08
1.80012e-08
9.33956e-09
1.59773e-08
6.65033e-09
1.38036e-08
4.3641e-09
1.14957e-08
2.51799e-09
9.07186e-09
1.14964e-09
6.55272e-09
2.97323e-10
3.96195e-09
1.32658e-09
3.30881e-10
-1.65312e-09
1.28173e-09
-4.91366e-09
2.8105e-09
-8.09962e-09
4.87498e-09
-1.11816e-08
7.4329e-09
-1.41338e-08
1.0442e-08
-1.69332e-08
1.38602e-08
-1.95595e-08
1.76455e-08
-2.19952e-08
2.17563e-08
-2.42251e-08
2.61512e-08
-2.6237e-08
3.07894e-08
-2.80209e-08
3.56305e-08
-2.9569e-08
4.0635e-08
-3.0876e-08
4.5764e-08
-3.19387e-08
5.09794e-08
-3.27555e-08
5.62442e-08
-3.33271e-08
6.15224e-08
-3.36554e-08
6.67794e-08
-3.37444e-08
7.19815e-08
-3.35989e-08
7.70966e-08
-3.32254e-08
8.20941e-08
-3.26315e-08
8.69448e-08
-3.18256e-08
9.16209e-08
-3.08174e-08
9.60966e-08
-2.9617e-08
1.00347e-07
-2.82355e-08
1.04351e-07
-2.66846e-08
1.08086e-07
-2.49763e-08
1.11534e-07
-2.31234e-08
1.14677e-07
-2.11387e-08
1.175e-07
-1.90355e-08
1.1999e-07
-1.68274e-08
1.22134e-07
-1.45281e-08
1.23922e-07
-1.21513e-08
1.25347e-07
-9.71099e-09
1.26402e-07
-7.22115e-09
1.27083e-07
-4.69571e-09
1.27386e-07
-2.14863e-09
1.27312e-07
4.06226e-10
1.2686e-07
2.95506e-09
1.26034e-07
5.4842e-09
1.24839e-07
7.98007e-09
1.2328e-07
1.04293e-08
1.21365e-07
1.28186e-08
1.19105e-07
1.51351e-08
1.1651e-07
1.73658e-08
1.13594e-07
1.94982e-08
1.1037e-07
2.152e-08
1.06857e-07
2.34192e-08
1.03071e-07
2.51841e-08
9.90317e-08
2.68034e-08
9.47607e-08
2.82661e-08
9.02803e-08
2.95616e-08
8.56145e-08
3.06801e-08
8.07888e-08
3.16119e-08
7.583e-08
3.23483e-08
7.07662e-08
3.28809e-08
6.56269e-08
3.32025e-08
6.04429e-08
3.33062e-08
5.52458e-08
3.31865e-08
5.00688e-08
3.28387e-08
4.49458e-08
3.22591e-08
3.99119e-08
3.14457e-08
3.50031e-08
3.03974e-08
3.02561e-08
2.9115e-08
2.57087e-08
2.76006e-08
2.13994e-08
2.58584e-08
1.73671e-08
2.38943e-08
1.36519e-08
2.17164e-08
1.02943e-08
1.9335e-08
7.33521e-09
1.67627e-08
4.81653e-09
1.40144e-08
2.78053e-09
1.11079e-08
1.27008e-09
8.06317e-09
3.28598e-10
4.90343e-09
1.65517e-09
3.64242e-10
-2.01735e-09
1.41002e-09
-5.95944e-09
3.08988e-09
-9.77948e-09
5.35598e-09
-1.34477e-08
8.16036e-09
-1.69382e-08
1.14551e-08
-2.02279e-08
1.51925e-08
-2.32969e-08
1.93252e-08
-2.61278e-08
2.38063e-08
-2.87062e-08
2.85896e-08
-3.10203e-08
3.36296e-08
-3.30608e-08
3.88816e-08
-3.48211e-08
4.43021e-08
-3.62965e-08
4.98484e-08
-3.7485e-08
5.54793e-08
-3.83864e-08
6.11547e-08
-3.90025e-08
6.6836e-08
-3.93367e-08
7.24859e-08
-3.93942e-08
7.80688e-08
-3.91818e-08
8.35508e-08
-3.87074e-08
8.88995e-08
-3.79802e-08
9.40843e-08
-3.70104e-08
9.90765e-08
-3.58095e-08
1.03849e-07
-3.43895e-08
1.08377e-07
-3.27632e-08
1.12636e-07
-3.09441e-08
1.16606e-07
-2.89463e-08
1.20267e-07
-2.67843e-08
1.23601e-07
-2.44729e-08
1.26593e-07
-2.20273e-08
1.29228e-07
-1.94629e-08
1.31496e-07
-1.67954e-08
1.33385e-07
-1.40404e-08
1.34888e-07
-1.12137e-08
1.35997e-07
-8.33111e-09
1.3671e-07
-5.40852e-09
1.37023e-07
-2.46165e-09
1.36936e-07
4.93761e-10
1.36449e-07
3.44212e-09
1.35565e-07
6.36794e-09
1.34289e-07
9.25586e-09
1.32628e-07
1.20907e-08
1.30589e-07
1.48575e-08
1.28182e-07
1.75415e-08
1.2542e-07
2.01281e-08
1.22315e-07
2.26031e-08
1.18883e-07
2.49523e-08
1.1514e-07
2.71622e-08
1.11105e-07
2.92193e-08
1.06797e-07
3.11106e-08
1.0224e-07
3.28236e-08
9.74553e-08
3.43462e-08
9.24687e-08
3.56666e-08
8.73067e-08
3.6774e-08
8.19972e-08
3.76578e-08
7.65699e-08
3.83083e-08
7.10557e-08
3.87166e-08
6.54872e-08
3.88747e-08
5.98982e-08
3.87755e-08
5.4324e-08
3.84129e-08
4.88011e-08
3.77821e-08
4.33673e-08
3.68795e-08
3.80615e-08
3.57032e-08
3.2924e-08
3.42525e-08
2.7996e-08
3.25286e-08
2.33199e-08
3.05345e-08
1.89389e-08
2.82753e-08
1.48974e-08
2.57579e-08
1.12405e-08
2.29919e-08
8.01418e-09
1.9989e-08
5.2652e-09
1.67634e-08
3.041e-09
1.33321e-08
1.38965e-09
9.71452e-09
3.59686e-10
5.93339e-09
2.01485e-09
3.98567e-10
-2.41591e-09
1.5415e-09
-7.10237e-09
3.37538e-09
-1.16134e-08
5.84631e-09
-1.59187e-08
8.90027e-09
-1.99922e-08
1.24834e-08
-2.38111e-08
1.65422e-08
-2.73557e-08
2.10236e-08
-3.06093e-08
2.58756e-08
-3.35582e-08
3.10469e-08
-3.61916e-08
3.64871e-08
-3.85011e-08
4.21474e-08
-4.04814e-08
4.79801e-08
-4.21292e-08
5.3939e-08
-4.34439e-08
5.99793e-08
-4.44268e-08
6.60582e-08
-4.50813e-08
7.21343e-08
-4.54128e-08
7.81681e-08
-4.54281e-08
8.4122e-08
-4.51357e-08
8.99603e-08
-4.45456e-08
9.56491e-08
-4.36689e-08
1.01157e-07
-4.25179e-08
1.06453e-07
-4.11058e-08
1.1151e-07
-3.94468e-08
1.16303e-07
-3.75557e-08
1.20807e-07
-3.54479e-08
1.25e-07
-3.31396e-08
1.28863e-07
-3.06473e-08
1.32378e-07
-2.79877e-08
1.35529e-07
-2.51782e-08
1.38302e-07
-2.22359e-08
1.40685e-07
-1.91784e-08
1.42668e-07
-1.60235e-08
1.44243e-07
-1.27887e-08
1.45404e-07
-9.49184e-09
1.46146e-07
-6.15053e-09
1.46466e-07
-2.78242e-09
1.46365e-07
5.94947e-10
1.45843e-07
3.96414e-09
1.44903e-07
7.30785e-09
1.4355e-07
1.06089e-08
1.4179e-07
1.38505e-08
1.39632e-07
1.70156e-08
1.37086e-07
2.00879e-08
1.34163e-07
2.3051e-08
1.30877e-07
2.58888e-08
1.27244e-07
2.85855e-08
1.23281e-07
3.11257e-08
1.19006e-07
3.34944e-08
1.1444e-07
3.56767e-08
1.09605e-07
3.76582e-08
1.04526e-07
3.94253e-08
9.92279e-08
4.09645e-08
9.37388e-08
4.22631e-08
8.80878e-08
4.33088e-08
8.23056e-08
4.40905e-08
7.64248e-08
4.45974e-08
7.04797e-08
4.48198e-08
6.45062e-08
4.4749e-08
5.85416e-08
4.43775e-08
5.26249e-08
4.36987e-08
4.67968e-08
4.27077e-08
4.10992e-08
4.14008e-08
3.55757e-08
3.9776e-08
3.0271e-08
3.78332e-08
2.52315e-08
3.5574e-08
2.05046e-08
3.30022e-08
1.6139e-08
3.01235e-08
1.21846e-08
2.69463e-08
8.69226e-09
2.34813e-08
5.71376e-09
1.97419e-08
3.30175e-09
1.57441e-08
1.50954e-09
1.15067e-08
3.90923e-10
7.052e-09
2.40577e-09
4.34131e-10
-2.85003e-09
1.67705e-09
-8.34529e-09
3.66861e-09
-1.36049e-08
6.34825e-09
-1.85983e-08
9.65541e-09
-2.32993e-08
1.35299e-08
-2.76855e-08
1.7912e-08
-3.17378e-08
2.27429e-08
-3.54403e-08
2.79651e-08
-3.87804e-08
3.35221e-08
-4.17485e-08
3.93588e-08
-4.43378e-08
4.54219e-08
-4.65445e-08
5.16597e-08
-4.8367e-08
5.80224e-08
-4.98066e-08
6.44622e-08
-5.08665e-08
7.09331e-08
-5.15522e-08
7.73914e-08
-5.18711e-08
8.37954e-08
-5.18321e-08
9.01057e-08
-5.1446e-08
9.62849e-08
-5.07248e-08
1.02298e-07
-4.9682e-08
1.08112e-07
-4.83319e-08
1.13696e-07
-4.66901e-08
1.19022e-07
-4.47729e-08
1.24064e-07
-4.25972e-08
1.28797e-07
-4.01808e-08
1.33199e-07
-3.75417e-08
1.3725e-07
-3.46987e-08
1.40933e-07
-3.16706e-08
1.44231e-07
-2.84765e-08
1.47132e-07
-2.5136e-08
1.49621e-07
-2.16684e-08
1.51691e-07
-1.80933e-08
1.53333e-07
-1.44304e-08
1.5454e-07
-1.06992e-08
1.55309e-07
-6.91923e-09
1.55637e-07
-3.11004e-09
1.55522e-07
7.09033e-10
1.54968e-07
4.51876e-09
1.53976e-07
8.30005e-09
1.52551e-07
1.2034e-08
1.50699e-07
1.57017e-08
1.4843e-07
1.92849e-08
1.45753e-07
2.2765e-08
1.4268e-07
2.6124e-08
1.39225e-07
2.93441e-08
1.35403e-07
3.24076e-08
1.31231e-07
3.52974e-08
1.26729e-07
3.79964e-08
1.21918e-07
4.04881e-08
1.16819e-07
4.27564e-08
1.11459e-07
4.47855e-08
1.05863e-07
4.65602e-08
1.00061e-07
4.8066e-08
9.40806e-08
4.92888e-08
8.79559e-08
5.02152e-08
8.17203e-08
5.0833e-08
7.54096e-08
5.11304e-08
6.90618e-08
5.10969e-08
6.27162e-08
5.0723e-08
5.64145e-08
5.00005e-08
5.01997e-08
4.89224e-08
4.41171e-08
4.74834e-08
3.82133e-08
4.56798e-08
3.25369e-08
4.35097e-08
2.71379e-08
4.0973e-08
2.20681e-08
3.80719e-08
1.73807e-08
3.48109e-08
1.31302e-08
3.11968e-08
9.37247e-09
2.72391e-08
6.1645e-09
2.29499e-08
3.56425e-09
1.83443e-08
1.63049e-09
1.34405e-08
4.22533e-10
8.25996e-09
2.82829e-09
4.71043e-10
-3.32106e-09
1.81692e-09
-9.69117e-09
3.96985e-09
-1.57578e-08
6.86183e-09
-2.14903e-08
1.04251e-08
-2.68626e-08
1.45927e-08
-3.1853e-08
1.92983e-08
-3.64434e-08
2.44772e-08
-4.06192e-08
3.00658e-08
-4.43691e-08
3.60026e-08
-4.76853e-08
4.22277e-08
-5.05629e-08
4.86834e-08
-5.30001e-08
5.5314e-08
-5.49976e-08
6.20663e-08
-5.65589e-08
6.88893e-08
-5.76895e-08
7.57345e-08
-5.83974e-08
8.25557e-08
-5.86923e-08
8.93096e-08
-5.85859e-08
9.59549e-08
-5.80913e-08
1.02453e-07
-5.7223e-08
1.08768e-07
-5.5997e-08
1.14866e-07
-5.443e-08
1.20716e-07
-5.25401e-08
1.26289e-07
-5.03459e-08
1.31559e-07
-4.78667e-08
1.365e-07
-4.51225e-08
1.41092e-07
-4.21336e-08
1.45314e-07
-3.89209e-08
1.49149e-07
-3.55053e-08
1.52581e-07
-3.19082e-08
1.55596e-07
-2.81509e-08
1.58182e-07
-2.42548e-08
1.6033e-07
-2.02415e-08
1.62032e-07
-1.61325e-08
1.63282e-07
-1.19491e-08
1.64076e-07
-7.7129e-09
1.64411e-07
-3.44502e-09
1.64287e-07
8.3336e-10
1.63704e-07
5.10123e-09
1.62666e-07
9.33773e-09
1.61178e-07
1.35222e-08
1.59246e-07
1.76341e-08
1.56878e-07
2.16531e-08
1.54084e-07
2.55591e-08
1.50875e-07
2.93322e-08
1.47267e-07
3.29528e-08
1.43273e-07
3.64015e-08
1.38911e-07
3.9659e-08
1.34201e-07
4.27067e-08
1.29163e-07
4.5526e-08
1.2382e-07
4.80989e-08
1.18198e-07
5.04075e-08
1.12324e-07
5.24348e-08
1.06226e-07
5.41641e-08
9.99351e-08
5.55793e-08
9.34852e-08
5.66651e-08
8.69114e-08
5.74068e-08
8.0251e-08
5.77909e-08
7.35434e-08
5.78044e-08
6.68305e-08
5.7436e-08
6.01559e-08
5.66751e-08
5.35655e-08
5.55127e-08
4.71075e-08
5.39415e-08
4.08317e-08
5.19556e-08
3.47904e-08
4.9551e-08
2.90375e-08
4.67259e-08
2.36291e-08
4.34804e-08
1.86228e-08
3.98172e-08
1.4078e-08
3.57416e-08
1.00557e-08
3.12613e-08
6.61825e-09
2.63873e-08
3.82913e-09
2.11334e-08
1.75286e-09
1.55168e-08
4.54625e-10
9.55819e-09
3.28291e-09
5.09239e-10
-3.83029e-09
1.96069e-09
-1.11426e-08
4.27787e-09
-1.8075e-08
7.38445e-09
-2.45969e-08
1.12048e-08
-3.0683e-08
1.56645e-08
-3.63127e-08
2.06904e-08
-4.14693e-08
2.62112e-08
-4.614e-08
3.21577e-08
-5.03156e-08
3.84628e-08
-5.39904e-08
4.50618e-08
-5.7162e-08
5.18928e-08
-5.98311e-08
5.88962e-08
-6.20011e-08
6.60157e-08
-6.36783e-08
7.31973e-08
-6.48711e-08
8.03902e-08
-6.55903e-08
8.75464e-08
-6.58485e-08
9.46207e-08
-6.56602e-08
1.01571e-07
-6.50414e-08
1.08357e-07
-6.40095e-08
1.14943e-07
-6.2583e-08
1.21295e-07
-6.07816e-08
1.2738e-07
-5.86257e-08
1.33171e-07
-5.61367e-08
1.38641e-07
-5.33362e-08
1.43765e-07
-5.02467e-08
1.48522e-07
-4.68907e-08
1.52893e-07
-4.32914e-08
1.56859e-07
-3.94719e-08
1.60406e-07
-3.54555e-08
1.63521e-07
-3.12655e-08
1.66192e-07
-2.69255e-08
1.68409e-07
-2.24587e-08
1.70165e-07
-1.78886e-08
1.71454e-07
-1.32383e-08
1.72273e-07
-8.53107e-09
1.72617e-07
-3.7898e-09
1.72488e-07
9.62616e-10
1.71886e-07
5.70346e-09
1.70813e-07
1.04102e-08
1.69275e-07
1.50604e-08
1.67277e-07
1.96318e-08
1.64828e-07
2.41025e-08
1.61936e-07
2.84505e-08
1.58614e-07
3.26542e-08
1.54875e-07
3.66921e-08
1.50734e-07
4.05429e-08
1.46207e-07
4.41857e-08
1.41314e-07
4.75995e-08
1.36076e-07
5.0764e-08
1.30516e-07
5.3659e-08
1.24659e-07
5.62647e-08
1.18532e-07
5.85618e-08
1.12165e-07
6.05314e-08
1.05589e-07
6.21552e-08
9.88382e-08
6.34156e-08
9.19495e-08
6.42955e-08
8.49613e-08
6.4779e-08
7.79148e-08
6.4851e-08
7.08535e-08
6.44972e-08
6.38235e-08
6.37051e-08
5.68731e-08
6.2463e-08
5.00534e-08
6.07612e-08
4.34177e-08
5.85913e-08
3.70215e-08
5.59472e-08
3.0923e-08
5.28244e-08
2.51823e-08
4.92211e-08
1.98618e-08
4.51377e-08
1.50259e-08
4.05775e-08
1.07408e-08
3.55464e-08
7.07446e-09
3.00537e-08
4.0962e-09
2.41117e-08
1.87662e-09
1.77364e-08
4.87211e-10
1.09476e-08
3.77011e-09
5.48456e-10
-4.37874e-09
2.10716e-09
-1.27013e-08
4.58973e-09
-2.05576e-08
7.91058e-09
-2.79177e-08
1.19854e-08
-3.47579e-08
1.67318e-08
-4.1059e-08
2.20692e-08
-4.68067e-08
2.79196e-08
-5.19904e-08
3.42078e-08
-5.66038e-08
4.08613e-08
-6.06439e-08
4.78107e-08
-6.41114e-08
5.49899e-08
-6.70103e-08
6.2336e-08
-6.93472e-08
6.97895e-08
-7.11317e-08
7.7294e-08
-7.23757e-08
8.47968e-08