/*--------------------------------*- C++ -*----------------------------------*\
  =========                 |
  \\      /  F ield         | OpenFOAM: The Open Source CFD Toolbox
   \\    /   O peration     | Website:  https://openfoam.org
    \\  /    A nd           | Version:  12
     \\/     M anipulation  |
\*---------------------------------------------------------------------------*/
FoamFile
{
    format      ascii;
    class       volScalarField;
    location    "4.5";
    object      epsilon;
}
// * * * * * * * * * * * * * * * * * * * * * * * * * * * * * * * * * * * * * //

dimensions      [0 2 -3 0 0 0 0];

internalField   nonuniform List<scalar> 
5625
(
5.11851e-07
3.46205e-06
7.70499e-06
1.2747e-05
1.83526e-05
2.43745e-05
3.07131e-05
3.73045e-05
4.4116e-05
5.11439e-05
5.84129e-05
6.59739e-05
7.39032e-05
8.23002e-05
9.1286e-05
0.000101001
0.000111602
0.000123264
0.000136172
0.000150526
0.000166533
0.000184409
0.000204376
0.000226658
0.000251481
0.000279069
0.000309644
0.000343418
0.000380596
0.000421369
0.000465914
0.000514393
0.000566949
0.000623705
0.000684762
0.000750199
0.000820073
0.00089441
0.000973209
0.00105643
0.00114398
0.00123573
0.00133143
0.00143076
0.00153326
0.00163829
0.00174499
0.00185222
0.00195854
0.00206214
0.00216075
0.00225167
0.00233167
0.00239677
0.0024409
0.00246074
0.00246159
0.00243011
0.00236454
0.00226458
0.00213125
0.00196755
0.00177871
0.00157202
0.00135619
0.00114043
0.000933391
0.000742171
0.000571644
0.000424223
0.00030007
0.000197702
0.00011497
5.05365e-05
7.44371e-06
9.6716e-07
1.88567e-06
3.77794e-06
6.11497e-06
8.7393e-06
1.15698e-05
1.45559e-05
1.76658e-05
2.08836e-05
2.42072e-05
2.7648e-05
3.12303e-05
3.499e-05
3.89741e-05
4.32401e-05
4.78545e-05
5.28925e-05
5.84364e-05
6.45755e-05
7.14045e-05
7.90233e-05
8.75354e-05
9.70477e-05
0.000107669
0.000119509
0.000132678
0.000147284
0.000163434
0.000181228
0.000200765
0.000222136
0.000245424
0.000270706
0.000298048
0.000327507
0.000359128
0.000392946
0.000428977
0.000467225
0.000507669
0.000550264
0.000594928
0.000641538
0.00068991
0.000739788
0.000790824
0.000842554
0.000894379
0.000945539
0.00099509
0.00104189
0.00108458
0.00112157
0.00115093
0.0011698
0.00117719
0.00117485
0.00115722
0.00112358
0.00107395
0.00100904
0.00093038
0.000840504
0.000742791
0.000641203
0.000539888
0.000442722
0.000352893
0.000272618
0.000203031
0.000144279
9.58072e-05
5.68811e-05
2.76664e-05
1.40518e-05
2.05477e-06
1.83779e-06
2.91199e-06
4.42692e-06
6.18638e-06
8.10964e-06
1.0153e-05
1.22912e-05
1.45116e-05
1.68123e-05
1.92009e-05
2.1694e-05
2.43169e-05
2.71024e-05
3.0091e-05
3.33296e-05
3.68715e-05
4.07757e-05
4.51061e-05
4.99313e-05
5.53239e-05
6.13604e-05
6.81201e-05
7.5685e-05
8.41389e-05
9.35672e-05
0.000104055
0.000115689
0.000128554
0.000142731
0.0001583
0.000175338
0.000193914
0.000214092
0.00023593
0.000259472
0.000284754
0.000311793
0.000340591
0.000371125
0.000403341
0.00043715
0.000472416
0.000508948
0.000546488
0.000584696
0.000623141
0.000661285
0.000698475
0.000733932
0.000766755
0.000795917
0.000820255
0.00083837
0.000848112
0.000850174
0.00084431
0.000827686
0.000800037
0.000761621
0.000713125
0.00065578
0.000591397
0.000522276
0.000451037
0.000380371
0.00031277
0.000250282
0.000194346
0.000145739
0.000104647
7.09068e-05
4.45052e-05
2.70116e-05
2.97351e-05
3.36222e-06
2.20305e-06
2.75508e-06
3.81848e-06
5.1381e-06
6.61828e-06
8.21229e-06
9.89496e-06
1.1654e-05
1.3487e-05
1.53998e-05
1.74056e-05
1.9525e-05
2.17851e-05
2.42192e-05
2.68665e-05
2.97718e-05
3.29851e-05
3.65611e-05
4.05594e-05
4.5044e-05
5.0083e-05
5.57485e-05
6.21166e-05
6.92663e-05
7.72801e-05
8.62429e-05
9.62415e-05
0.000107364
0.000119699
0.000133334
0.000148352
0.000164835
0.000182855
0.000202477
0.00022375
0.000246708
0.000271363
0.000297698
0.000325663
0.000355168
0.000386077
0.000418194
0.000451263
0.000484961
0.000518889
0.000552575
0.000585463
0.000616917
0.000646224
0.00067261
0.000695246
0.000713271
0.00072514
0.000729911
0.000728751
0.000720276
0.000703102
0.00067712
0.000642617
0.000600195
0.000550882
0.000496149
0.000437859
0.000378125
0.000319117
0.000262839
0.000210928
0.000164535
0.000124299
9.04493e-05
6.30733e-05
4.27196e-05
3.22334e-05
4.83073e-05
4.85026e-06
2.77037e-06
2.9048e-06
3.64833e-06
4.68085e-06
5.88668e-06
7.21236e-06
8.6304e-06
1.01276e-05
1.17006e-05
1.33542e-05
1.51001e-05
1.69567e-05
1.89484e-05
2.11057e-05
2.34647e-05
2.60671e-05
2.89599e-05
3.21956e-05
3.58319e-05
3.99318e-05
4.45639e-05
4.98019e-05
5.5725e-05
6.24175e-05
6.99689e-05
7.84735e-05
8.80293e-05
9.87379e-05
0.000110702
0.000124026
0.000138808
0.000155142
0.000173111
0.000192783
0.000214206
0.000237399
0.000262347
0.000288994
0.000317233
0.000346907
0.000377795
0.00040961
0.000442005
0.000474572
0.000506848
0.000538324
0.000568452
0.000596642
0.000622288
0.000644771
0.000663472
0.000677795
0.000686048
0.00068858
0.000685998
0.000676779
0.000660025
0.000635516
0.000603311
0.000563821
0.000517847
0.000466656
0.000411953
0.000355755
0.000300184
0.000247225
0.000198506
0.000155166
0.000117846
8.6832e-05
6.23906e-05
4.55157e-05
4.01986e-05
6.89771e-05
6.49249e-06
3.46702e-06
3.23143e-06
3.71857e-06
4.53748e-06
5.55079e-06
6.69661e-06
7.94405e-06
9.27833e-06
1.06953e-05
1.2199e-05
1.38005e-05
1.55174e-05
1.73734e-05
1.93981e-05
2.16275e-05
2.4103e-05
2.68724e-05
2.99897e-05
3.3515e-05
3.75151e-05
4.20639e-05
4.72423e-05
5.31384e-05
5.98478e-05
6.74732e-05
7.61242e-05
8.59162e-05
9.69692e-05
0.000109406
0.000123348
0.000138908
0.000156182
0.000175261
0.000196207
0.000219046
0.000243763
0.00027029
0.0002985
0.000328205
0.000359147
0.000391011
0.000423402
0.000455887
0.000487995
0.000519235
0.000549122
0.000577184
0.000602947
0.000625974
0.000645848
0.00066216
0.000674553
0.000681634
0.000683862
0.000681758
0.000673663
0.000658699
0.000636384
0.000606452
0.000568954
0.000524415
0.000473934
0.000419187
0.000362308
0.000305652
0.000251486
0.000201704
0.000157639
0.000120052
8.93133e-05
6.58271e-05
5.09642e-05
4.97693e-05
9.11346e-05
8.27336e-06
4.26073e-06
3.67836e-06
3.94567e-06
4.59309e-06
5.46147e-06
6.47931e-06
7.61151e-06
8.84165e-06
1.01648e-05
1.15846e-05
1.3112e-05
1.47649e-05
1.65673e-05
1.855e-05
2.07499e-05
2.32109e-05
2.59839e-05
2.91267e-05
3.27052e-05
3.67934e-05
4.1474e-05
4.6839e-05
5.29898e-05
6.00363e-05
6.80978e-05
7.73035e-05
8.77886e-05
9.96931e-05
0.000113158
0.000128323
0.000145314
0.000164243
0.000185184
0.000208173
0.000233197
0.000260175
0.000288959
0.000319317
0.000350941
0.000383448
0.000416393
0.000449304
0.000481686
0.000513056
0.000542969
0.000571032
0.000596922
0.000620408
0.000641309
0.000659473
0.000674742
0.000686862
0.00069509
0.000698817
0.000698951
0.00069381
0.0006822
0.000663216
0.000636119
0.000600552
0.000556729
0.000505579
0.000448798
0.000388743
0.000328159
0.000269795
0.000216022
0.000168556
0.000128406
9.60819e-05
7.21149e-05
5.82154e-05
6.04042e-05
0.000114341
1.01845e-05
5.13542e-06
4.21666e-06
4.28705e-06
4.79059e-06
5.54507e-06
6.46897e-06
7.52301e-06
8.68866e-06
9.9602e-06
1.13413e-05
1.28433e-05
1.44849e-05
1.62919e-05
1.82967e-05
2.05394e-05
2.30675e-05
2.59368e-05
2.92113e-05
3.29647e-05
3.72806e-05
4.22535e-05
4.79891e-05
5.46053e-05
6.22321e-05
7.10103e-05
8.10901e-05
9.26295e-05
0.00010579
0.00012073
0.000137595
0.000156516
0.000177592
0.000200872
0.000226342
0.000253918
0.000283425
0.000314597
0.000347075
0.000380417
0.000414118
0.000447638
0.000480447
0.000512052
0.000542037
0.000570092
0.000596022
0.000619751
0.000641309
0.000660772
0.000678216
0.000693643
0.000706889
0.000717533
0.000724981
0.000728309
0.000727428
0.000720308
0.00070557
0.000681932
0.000648609
0.000605474
0.00055325
0.000493621
0.00042916
0.000363046
0.000298616
0.000238863
0.000186056
0.000141594
0.00010622
8.06164e-05
6.68227e-05
7.18045e-05
0.000138286
1.22221e-05
6.08281e-06
4.83018e-06
4.71838e-06
5.09786e-06
5.76068e-06
6.61536e-06
7.61806e-06
8.74826e-06
9.9996e-06
1.13759e-05
1.28895e-05
1.45606e-05
1.64169e-05
1.84942e-05
2.08363e-05
2.34958e-05
2.65351e-05
3.00267e-05
3.40544e-05
3.87139e-05
4.41139e-05
5.0377e-05
5.7639e-05
6.60506e-05
7.5775e-05
8.69853e-05
9.98607e-05
0.000114581
0.000131316
0.000150217
0.0001714
0.000194935
0.000220817
0.000248958
0.000279168
0.00031115
0.000344498
0.000378707
0.000413204
0.000447384
0.000480656
0.000512501
0.000542509
0.000570423
0.000596149
0.000619757
0.000641449
0.000661517
0.000680262
0.000697924
0.000714597
0.000730147
0.000744167
0.000756028
0.000764351
0.000767729
0.000765708
0.000755838
0.000736229
0.000705676
0.000663697
0.000610737
0.000548366
0.000479275
0.000407019
0.000335534
0.000268536
0.000208988
0.000158846
0.000119205
9.09692e-05
7.65333e-05
8.37959e-05
0.00016277
1.43857e-05
7.09885e-06
5.50955e-06
5.22507e-06
5.49523e-06
6.08325e-06
6.88795e-06
7.86047e-06
8.97831e-06
1.02346e-05
1.16336e-05
1.31889e-05
1.49226e-05
1.68656e-05
1.90573e-05
2.15469e-05
2.43933e-05
2.76667e-05
3.14494e-05
3.58369e-05
4.09389e-05
4.68805e-05
5.38024e-05
6.18617e-05
7.12308e-05
8.20955e-05
9.46509e-05
0.000109095
0.00012562
0.000144401
0.000165575
0.000189232
0.000215385
0.000243952
0.000274737
0.00030742
0.000341554
0.000376579
0.000411853
0.000446695
0.000480447
0.000512536
0.000542539
0.000570217
0.000595546
0.000618706
0.000640051
0.000660045
0.00067919
0.000697938
0.000716606
0.000735292
0.000753819
0.000771692
0.000788082
0.00080175
0.000810193
0.000812649
0.000808004
0.000792925
0.000765816
0.000725832
0.000673054
0.00060879
0.000535675
0.000457494
0.000378714
0.000303806
0.000236563
0.000179663
0.000134715
0.000102957
8.71994e-05
9.62826e-05
0.000187703
1.66772e-05
8.18207e-06
6.24938e-06
5.79809e-06
5.96997e-06
6.49668e-06
7.26715e-06
8.227e-06
9.35181e-06
1.06343e-05
1.20793e-05
1.37022e-05
1.55275e-05
1.75897e-05
1.9933e-05
2.26122e-05
2.56942e-05
2.92581e-05
3.33975e-05
3.82211e-05
4.38542e-05
5.04397e-05
5.81386e-05
6.71293e-05
7.76069e-05
8.9779e-05
0.00010386
0.000120062
0.000138581
0.000159583
0.000183179
0.000209406
0.000238197
0.000269363
0.000302575
0.000337357
0.000373102
0.000409103
0.000444602
0.000478863
0.000511244
0.000541275
0.000568708
0.000593552
0.000616062
0.000636702
0.000656081
0.000674862
0.000693677
0.000713027
0.000733216
0.000754277
0.000775939
0.000797593
0.00081827
0.000836617
0.000850629
0.000857102
0.000857344
0.000847238
0.000824323
0.000787417
0.000736152
0.000671403
0.00059553
0.000512333
0.00042666
0.000343711
0.0002682
0.000203709
0.000152554
0.000116452
9.87374e-05
0.000109202
0.000212993
1.91003e-05
9.33266e-06
7.04681e-06
6.43176e-06
6.51368e-06
6.99032e-06
7.73985e-06
8.70218e-06
9.85087e-06
1.11783e-05
1.26902e-05
1.44038e-05
1.63468e-05
1.85576e-05
2.10859e-05
2.39935e-05
2.73555e-05
3.12617e-05
3.58179e-05
4.11475e-05
4.73926e-05
5.47153e-05
6.32972e-05
7.3339e-05
8.50572e-05
9.86791e-05
0.000114434
0.00013254
0.000153187
0.000176516
0.000202591
0.000231372
0.000262687
0.000296214
0.000331465
0.000367801
0.000404459
0.000440609
0.000475429
0.000508193
0.000538358
0.000565636
0.000590029
0.000611829
0.000631577
0.000649989
0.000667857
0.000685956
0.000704942
0.00072528
0.000747184
0.000770584
0.000795101
0.000820035
0.000844345
0.000866631
0.000885262
0.000896651
0.000900443
0.00089566
0.00087768
0.000845022
0.000796815
0.000733344
0.000656459
0.000569705
0.000478093
0.000387444
0.000303444
0.000230751
0.000172605
0.000131381
0.000111109
0.000122529
0.000238623
2.16603e-05
1.0552e-05
7.90064e-06
7.12263e-06
7.12079e-06
7.55695e-06
8.29714e-06
9.27545e-06
1.04633e-05
1.18528e-05
1.34507e-05
1.52765e-05
1.73612e-05
1.9748e-05
2.24926e-05
2.56644e-05
2.93481e-05
3.36447e-05
3.86737e-05
4.4574e-05
5.15057e-05
5.96505e-05
6.92112e-05
8.04095e-05
9.3482e-05
0.000108671
0.000126215
0.000146328
0.000169181
0.00019487
0.00022339
0.000254601
0.000288201
0.000323711
0.000360478
0.000397701
0.000434484
0.000469921
0.00050319
0.000533655
0.000560953
0.000585043
0.000606217
0.000625055
0.000642345
0.000658983
0.000675855
0.000693744
0.000713246
0.000734715
0.000758241
0.000783632
0.000810426
0.00083788
0.000864959
0.000890337
0.000912521
0.000928691
0.000935866
0.000935955
0.000923542
0.00089622
0.00085262
0.000792321
0.000716448
0.000628002
0.000531865
0.000434289
0.000341914
0.000260619
0.000194805
0.000147722
0.00012431
0.000136267
0.000264619
2.43636e-05
1.18424e-05
8.81088e-06
7.86882e-06
7.7877e-06
8.19176e-06
8.93292e-06
9.93957e-06
1.11808e-05
1.26483e-05
1.43502e-05
1.63084e-05
1.85576e-05
2.11462e-05
2.41367e-05
2.76068e-05
3.16513e-05
3.63837e-05
4.19377e-05
4.84688e-05
5.61556e-05
6.51994e-05
7.58238e-05
8.827e-05
0.000102791
0.000119639
0.000139053
0.00016123
0.000186306
0.000214314
0.000245157
0.000278571
0.000314104
0.000351111
0.000388772
0.000426145
0.000462245
0.000496151
0.000527115
0.000554673
0.000578703
0.000599455
0.000617512
0.000633706
0.000649007
0.000664398
0.000680763
0.000698805
0.000718993
0.000741534
0.000766378
0.000793235
0.00082159
0.000850717
0.000879653
0.000907202
0.00093198
0.000951957
0.000963531
0.000967091
0.000960679
0.000939545
0.000901903
0.00084658
0.000773812
0.000685779
0.000586893
0.000483559
0.000383255
0.000293176
0.000219124
0.000165483
0.000138362
0.000150442
0.00029104
2.72176e-05
1.32067e-05
9.77837e-06
8.66953e-06
8.51244e-06
8.89149e-06
9.64308e-06
1.06896e-05
1.19976e-05
1.35585e-05
1.53815e-05
1.74914e-05
1.99269e-05
2.27421e-05
2.60065e-05
2.98072e-05
3.42497e-05
3.94605e-05
4.55883e-05
5.28056e-05
6.13095e-05
7.1321e-05
8.30825e-05
9.68521e-05
0.000112894
0.000131465
0.000152791
0.000177043
0.000204299
0.000234512
0.000267471
0.000302769
0.000339792
0.000377728
0.000415608
0.000452385
0.000487041
0.000518711
0.000546801
0.000571078
0.000591708
0.000609235
0.000624504
0.000638538
0.000652398
0.000667067
0.000683339
0.000701773
0.000722676
0.000746097
0.000771863
0.000799615
0.000828829
0.000858837
0.000888798
0.000917692
0.000944332
0.000967003
0.000982962
0.000989781
0.000988866
0.000974421
0.000943722
0.000894884
0.000827179
0.000741729
0.000642122
0.000534547
0.000427093
0.000328288
0.000245549
0.000184697
0.000153304
0.000165092
0.000317964
3.02309e-05
1.46485e-05
1.08046e-05
9.52483e-06
9.294e-06
9.6542e-06
1.0425e-05
1.15224e-05
1.29101e-05
1.4579e-05
1.65398e-05
1.882e-05
2.14628e-05
2.45282e-05
2.80936e-05
3.22554e-05
3.71309e-05
4.28599e-05
4.96066e-05
5.75605e-05
6.69369e-05
7.79752e-05
9.09345e-05
0.000106086
0.0001237
0.000144026
0.000167268
0.000193553
0.000222888
0.000255123
0.000289915
0.000326702
0.000364707
0.00040296
0.000440377
0.000475856
0.000508412
0.00053731
0.000562171
0.000583041
0.000600384
0.000615018
0.000627988
0.00064043
0.00065341
0.000667833
0.000684339
0.000703298
0.000724863
0.00074893
0.000775235
0.00080338
0.000832865
0.000863092
0.000893372
0.000922876
0.000950632
0.000975163
0.000994739
0.00100569
0.0010087
0.00100106
0.000977816
0.000936514
0.000875498
0.000794689
0.000696506
0.000586494
0.000473008
0.000365799
0.000274072
0.000205404
0.000169189
0.000180265
0.000345475
3.34125e-05
1.61717e-05
1.18916e-05
1.04354e-05
1.01322e-05
1.04789e-05
1.12772e-05
1.24361e-05
1.3916e-05
1.57073e-05
1.7822e-05
2.02905e-05
2.31608e-05
2.64991e-05
3.03911e-05
3.49431e-05
4.02843e-05
4.65682e-05
5.39746e-05
6.27098e-05
7.30063e-05
8.512e-05
9.93236e-05
0.000115896
0.000135106
0.000157188
0.000182311
0.00021054
0.000241793
0.000275803
0.000312082
0.00034991
0.000388349
0.000426304
0.000462614
0.000496186
0.000526135
0.000551918
0.000573422
0.000590989
0.000605366
0.000617592
0.00062884
0.000640299
0.000652973
0.00066753
0.000684481
0.00070404
0.00072619
0.000750703
0.000777254
0.000805433
0.000834788
0.000864819
0.000894962
0.000924577
0.00095288
0.000978645
0.00100054
0.00101576
0.00102204
0.00102032
0.00100454
0.000971269
0.00091808
0.00084367
0.000749025
0.000638583
0.000520498
0.000405503
0.000304672
0.000227647
0.000186073
0.000196012
0.000373663
3.67725e-05
1.77807e-05
1.30417e-05
1.14026e-05
1.10274e-05
1.13654e-05
1.21992e-05
1.34298e-05
1.50141e-05
1.69418e-05
1.92261e-05
2.19005e-05
2.50177e-05
2.86507e-05
3.28934e-05
3.78626e-05
4.36995e-05
5.05716e-05
5.86739e-05
6.82286e-05
7.94841e-05
9.27101e-05
0.000108189
0.000126202
0.000147007
0.000170812
0.000197738
0.000227774
0.000260734
0.00029622
0.000333594
0.000371978
0.000410301
0.000447374
0.000482014
0.000513198
0.000540204
0.000562733
0.000580963
0.000595523
0.000607404
0.000617802
0.000628069
0.000639106
0.000651813
0.000666833
0.000684447
0.00070465
0.000727337
0.000752178
0.000778807
0.000806831
0.000835861
0.000865494
0.000895283
0.000924743
0.000953223
0.000979678
0.00100296
0.00102139
0.00103124
0.00103358
0.00102481
0.00099946
0.00095463
0.00088792
0.000798723
0.000689945
0.000568978
0.000447127
0.000337292
0.000251465
0.000204017
0.000212386
0.000402609
4.03213e-05
1.94803e-05
1.42577e-05
1.24279e-05
1.19806e-05
1.23142e-05
1.31911e-05
1.45034e-05
1.62042e-05
1.8282e-05
2.07513e-05
2.36483e-05
2.70311e-05
3.09792e-05
3.55952e-05
4.10064e-05
4.73662e-05
5.48556e-05
6.36843e-05
7.40895e-05
8.63331e-05
0.000100695
0.000117464
0.000136914
0.000159285
0.000184748
0.000213361
0.000245023
0.000279435
0.000316058
0.000354105
0.000392559
0.000430239
0.00046591
0.000498426
0.000526891
0.0005508
0.000570129
0.000585346
0.000597339
0.000607304
0.000616653
0.000626286
0.000637376
0.000650612
0.0006664
0.000684803
0.000705754
0.000728986
0.000754126
0.000780799
0.000808647
0.000837335
0.000866537
0.000895903
0.000925056
0.000953452
0.000980195
0.00100434
0.00102458
0.00103787
0.00104296
0.00103996
0.00102188
0.000985289
0.000926989
0.000844781
0.000739699
0.000617776
0.000490317
0.000371836
0.000276883
0.000223072
0.000229433
0.000432384
4.40703e-05
2.12754e-05
1.55427e-05
1.35134e-05
1.29932e-05
1.33263e-05
1.42536e-05
1.56575e-05
1.74867e-05
1.97281e-05
2.2397e-05
2.55329e-05
2.91987e-05
3.34809e-05
3.84909e-05
4.43663e-05
5.12726e-05
5.94039e-05
6.89836e-05
8.02619e-05
9.35119e-05
0.000109021
0.000127074
0.000147936
0.000171818
0.000198841
0.000228988
0.000262061
0.000297635
0.000335031
0.000373323
0.000411376
0.00044794
0.000481782
0.000511848
0.000537422
0.000558253
0.000574599
0.000587205
0.000597187
0.00060598
0.000614562
0.000624251
0.000635892
0.000650001
0.00066675
0.000686104
0.000707928
0.000731774
0.000757281
0.000784084
0.000811858
0.000840317
0.000869196
0.000898215
0.00092707
0.000955284
0.000982066
0.0010066
0.00102772
0.00104346
0.00105081
0.00105164
0.00103973
0.00101064
0.000960793
0.000886589
0.000787011
0.000666159
0.000534635
0.000408149
0.00030391
0.000243278
0.000247197
0.000463048
4.80312e-05
2.31714e-05
1.69e-05
1.46613e-05
1.40669e-05
1.4403e-05
1.53879e-05
1.68933e-05
1.88624e-05
2.12804e-05
2.41633e-05
2.75534e-05
3.15186e-05
3.61522e-05
4.15745e-05
4.79333e-05
5.54057e-05
6.41982e-05
7.45463e-05
8.67115e-05
0.000100975
0.000117625
0.000136941
0.000159168
0.000184478
0.000212933
0.000244433
0.000278671
0.000315094
0.000352891
0.000391013
0.000428236
0.000463285
0.000494979
0.000522405
0.000545071
0.000562992
0.000576705
0.000587186
0.000595886
0.000603801
0.000612367
0.000622604
0.000635191
0.000650407
0.000668314
0.000688878
0.000711661
0.000736243
0.000762257
0.00078935
0.00081723
0.000845656
0.000874411
0.000903263
0.000931953
0.000960037
0.000986779
0.00101142
0.00103287
0.00104975
0.001059
0.00106178
0.00105456
0.00103166
0.000989643
0.000923822
0.000831159
0.000713369
0.000579562
0.000446019
0.000332532
0.000264652
0.000265712
0.000494642
5.22167e-05
2.51742e-05
1.83332e-05
1.58742e-05
1.52038e-05
1.55462e-05
1.65957e-05
1.82122e-05
2.03327e-05
2.294e-05
2.60503e-05
2.97088e-05
3.39882e-05
3.89886e-05
4.48389e-05
5.16968e-05
5.97504e-05
6.92175e-05
8.03441e-05
9.34002e-05
0.000108671
0.000126443
0.000146981
0.000170503
0.000197134
0.000226869
0.000259514
0.000294651
0.000331603
0.000369437
0.000407004
0.000443029
0.000476253
0.000505597
0.000530332
0.000550208
0.000565514
0.000577036
0.000586111
0.000593779
0.000601561
0.000610624
0.000621835
0.00063563
0.000652184
0.000671604
0.000693456
0.000717325
0.000742794
0.00076948
0.000797053
0.000825252
0.000853875
0.000882747
0.000911674
0.000940422
0.000968555
0.000995348
0.00102003
0.00104154
0.00105868
0.00106881
0.00107248
0.00106809
0.0010497
0.00101425
0.000956495
0.000871615
0.000758674
0.000624517
0.000485165
0.000362722
0.000287165
0.000285009
0.000527194
5.66412e-05
2.729e-05
1.98461e-05
1.71549e-05
1.6406e-05
1.67578e-05
1.7879e-05
1.9616e-05
2.18991e-05
2.47078e-05
2.80582e-05
3.19981e-05
3.66047e-05
4.1985e-05
4.82759e-05
5.56448e-05
6.42897e-05
7.44383e-05
8.63454e-05
0.000100286
0.000116546
0.000135404
0.000157106
0.000181833
0.000209658
0.000240497
0.000274064
0.000309826
0.000346991
0.00038452
0.000421195
0.000455726
0.000486915
0.000513825
0.000535938
0.000553261
0.000566338
0.000576288
0.000584213
0.000591599
0.00059977
0.000609775
0.000622248
0.000637502
0.000655817
0.000676796
0.000700057
0.000725153
0.00075165
0.000779169
0.0008074
0.000836116
0.000865157
0.000894389
0.000923651
0.000952731
0.00098119
0.00100827
0.00103314
0.00105466
0.00107162
0.0010817
0.0010855
0.00108211
0.00106631
0.00103569
0.000984992
0.000908102
0.000801432
0.000668884
0.000525235
0.000394376
0.000310817
0.000305106
0.000560714
6.1318e-05
2.9525e-05
2.14427e-05
1.85062e-05
1.7676e-05
1.80403e-05
1.92401e-05
2.1107e-05
2.35634e-05
2.65849e-05
3.01871e-05
3.44197e-05
3.93646e-05
4.51351e-05
5.18759e-05
5.97632e-05
6.9004e-05
7.98344e-05
9.25151e-05
0.000107324
0.000124543
0.000144437
0.000167227
0.000193052
0.000221924
0.00025368
0.000287934
0.000324048
0.000361125
0.000398046
0.00043355
0.000466374
0.000495419
0.000519919
0.000539586
0.000554681
0.000566007
0.000574743
0.000582195
0.000589817
0.000598835
0.000610102
0.000624078
0.000641265
0.000661352
0.00068401
0.000708793
0.000735224
0.000762861
0.000791331
0.000820353
0.000849738
0.000879372
0.00090917
0.000939014
0.000968715
0.000997836
0.00102557
0.00105097
0.00107273
0.00108945
0.00109886
0.00110226
0.00109832
0.00108318
0.00105532
0.00101005
0.000940649
0.000841147
0.000712045
0.000565821
0.000427333
0.00033561
0.00032601
0.000595202
6.62609e-05
3.18856e-05
2.31271e-05
1.99314e-05
1.90167e-05
1.93963e-05
2.06814e-05
2.26875e-05
2.53274e-05
2.85723e-05
3.24365e-05
3.69716e-05
4.22634e-05
4.84315e-05
5.56277e-05
6.40362e-05
7.38717e-05
8.53767e-05
9.88157e-05
0.000114466
0.0001326
0.000153467
0.000177255
0.000204055
0.000233816
0.00026629
0.000300998
0.000337203
0.00037392
0.000409974
0.000444097
0.000475086
0.000501972
0.000524184
0.000541667
0.000554903
0.000564978
0.000572996
0.000580492
0.000588812
0.000599033
0.000611767
0.000627765
0.000646877
0.000668849
0.000693271
0.000719646
0.000747472
0.000776303
0.000805782
0.00083566
0.000865795
0.00089613
0.000926643
0.000957272
0.000987868
0.00101801
0.00104684
0.00107326
0.00109575
0.00111249
0.00112109
0.00112377
0.00111818
0.00110196
0.00107465
0.00103273
0.000969603
0.000877527
0.000753429
0.000606472
0.000461399
0.000361509
0.000347722
0.000630639
7.14848e-05
3.43784e-05
2.49036e-05
2.14336e-05
2.04309e-05
2.08284e-05
2.22057e-05
2.43598e-05
2.7193e-05
3.06709e-05
3.48059e-05
3.9651e-05
4.52959e-05
5.18656e-05
5.95186e-05
6.8446e-05
7.88688e-05
9.10339e-05
0.000105207
0.000121661
0.000140657
0.000162419
0.000187102
0.000214745
0.000245227
0.00027822
0.000313156
0.000349211
0.000385333
0.000420317
0.00045292
0.000482028
0.000506828
0.000526955
0.000542583
0.000554455
0.000563606
0.000571461
0.00057946
0.000588869
0.000600447
0.000615204
0.000633224
0.000654364
0.000678284
0.000704503
0.000732482
0.000761701
0.000791714
0.000822184
0.000852904
0.00088379
0.000914857
0.00094616
0.000977717
0.00100944
0.00104093
0.00107132
0.00109937
0.00112334
0.0011406
0.00114873
0.00115067
0.00114285
0.00112416
0.00109527
0.00105431
0.000995626
0.000910523
0.000792557
0.000646716
0.000496347
0.000388453
0.000370233
0.000667001
7.70054e-05
3.70106e-05
2.67766e-05
2.30164e-05
2.19217e-05
2.23399e-05
2.38158e-05
2.61265e-05
2.9162e-05
3.28812e-05
3.72942e-05
4.24546e-05
4.84557e-05
5.54273e-05
6.35341e-05
7.29728e-05
8.39693e-05
9.67728e-05
0.000111647
0.000128858
0.000148651
0.000171223
0.000196688
0.000225032
0.000256066
0.000289384
0.000324337
0.00036003
0.000395365
0.000429134
0.000460147
0.000487406
0.000510268
0.000528571
0.000542687
0.000553562
0.000562336
0.000570476
0.000579378
0.000589995
0.000603513
0.000620332
0.000640457
0.000663671
0.000689546
0.000717539
0.000747073
0.000777614
0.000808723
0.000840092
0.000871564
0.000903125
0.000934876
0.000966972
0.000999527
0.00103253
0.00106567
0.00109806
0.00112836
0.0011546
0.00117335
0.0011817
0.00118315
0.0011731
0.00115101
0.0011187
0.00107621
0.00101965
0.00094035
0.000829078
0.000686082
0.000531909
0.000416357
0.000393524
0.00070425
8.28391e-05
3.97894e-05
2.87511e-05
2.46834e-05
2.34925e-05
2.39338e-05
2.5515e-05
2.79903e-05
3.12362e-05
3.52037e-05
3.98996e-05
4.53781e-05
5.17352e-05
5.91054e-05
6.76583e-05
7.75954e-05
8.91456e-05
0.000102559
0.000118094
0.000136006
0.000156521
0.000179808
0.000205937
0.000234839
0.000266258
0.000299718
0.000334499
0.000369652
0.000404057
0.000436526
0.000465947
0.000491456
0.000512586
0.000529379
0.000542414
0.000552664
0.000561488
0.000570304
0.000580251
0.000592632
0.000608191
0.00062713
0.0006494
0.000674679
0.000702459
0.000732141
0.000763118
0.000794846
0.0008269
0.000859009
0.000891076
0.000923169
0.000955491
0.000988311
0.00102187
0.00105625
0.00109124
0.001126
0.0011591
0.00118839
0.00120996
0.00121954
0.00122099
0.00120928
0.00118344
0.00114628
0.0010999
0.00104282
0.000967486
0.000862815
0.000724132
0.000567787
0.000445113
0.000417566
0.00074234
8.90032e-05
4.27227e-05
3.08318e-05
2.64385e-05
2.51467e-05
2.56135e-05
2.73062e-05
2.99538e-05
3.34171e-05
3.76381e-05
4.26199e-05
4.84164e-05
5.5126e-05
6.28872e-05
7.18739e-05
8.22911e-05
9.43691e-05
0.000108356
0.000124504
0.000143054
0.000164212
0.000188113
0.000214783
0.000244101
0.000275748
0.000309183
0.00034363
0.000378104
0.000411485
0.000442626
0.000470515
0.000494428
0.000514077
0.000529685
0.000541979
0.00055206
0.00056132
0.00057099
0.000582469
0.000596803
0.000614438
0.000635537
0.000659936
0.000687215
0.000716793
0.000748025
0.000780276
0.000813001
0.000845795
0.000878434
0.00091089
0.000943326
0.000976056
0.00100948
0.00104396
0.00107973
0.00111669
0.0011541
0.00119049
0.00122352
0.00124927
0.00126143
0.00126364
0.00125131
0.00122197
0.0011791
0.00112677
0.0010664
0.000992649
0.00089378
0.000760481
0.000603661
0.000474591
0.00044232
0.000781212
9.55157e-05
4.58184e-05
3.30239e-05
2.82857e-05
2.68881e-05
2.73827e-05
2.91929e-05
3.20196e-05
3.57061e-05
4.01842e-05
4.54522e-05
5.15635e-05
5.86185e-05
6.67592e-05
7.61627e-05
8.70363e-05
9.96103e-05
0.000114129
0.000130835
0.000149956
0.00017167
0.000196081
0.000223173
0.00025277
0.000284499
0.000317764
0.000351746
0.000385445
0.000417754
0.000447595
0.000474061
0.000496578
0.000515025
0.000529787
0.000541724
0.000552003
0.000561895
0.000572853
0.000586133
0.000602445
0.000622204
0.000645449
0.000671906
0.000701067
0.000732289
0.000764881
0.000798193
0.000831684
0.000864978
0.000897906
0.000930519
0.000963081
0.000996025
0.00102988
0.00106518
0.00110228
0.00114123
0.00118145
0.00122149
0.00125888
0.00128989
0.00130632
0.00131028
0.00129873
0.00126675
0.00121793
0.00115806
0.00109171
0.00101675
0.000922191
0.000794834
0.000639195
0.00050464
0.000467733
0.0008208
0.000102395
4.9085e-05
3.53327e-05
3.02292e-05
2.87206e-05
2.92451e-05
3.11784e-05
3.41903e-05
3.81044e-05
4.2841e-05
4.8393e-05
5.48127e-05
6.22024e-05
7.07066e-05
8.05054e-05
9.18069e-05
0.00010484
0.000119843
0.000137049
0.000156666
0.000178849
0.000203668
0.000231063
0.000260813
0.000292495
0.00032547
0.000358891
0.000391756
0.000422997
0.00045161
0.000476806
0.000498158
0.000515696
0.000529948
0.000541846
0.000552555
0.000563507
0.000576062
0.000591174
0.000609526
0.000631404
0.000656728
0.000685123
0.000716005
0.000748672
0.000782401
0.00081653
0.000850531
0.000884069
0.000917036
0.000949569
0.000982036
0.00101499
0.00104911
0.00108505
0.00112335
0.00116424
0.0012073
0.0012512
0.0012935
0.00133038
0.00135299
0.00135993
0.00135074
0.00131752
0.00126321
0.00119479
0.00112002
0.00104084
0.000948465
0.000827003
0.000674058
0.000535091
0.000493745
0.000861023
0.000109662
5.25313e-05
3.77638e-05
3.22734e-05
3.06483e-05
3.12047e-05
3.32663e-05
3.64685e-05
4.0613e-05
4.56072e-05
5.14381e-05
5.81566e-05
6.58664e-05
7.47144e-05
8.48824e-05
9.65787e-05
0.000110029
0.000125465
0.000143108
0.000163146
0.000185711
0.000210836
0.000238426
0.000268216
0.000299742
0.000332333
0.000365131
0.000397147
0.000427363
0.000454862
0.000478974
0.00049941
0.000516333
0.000530366
0.000542504
0.000554038
0.000566352
0.000580559
0.000597585
0.000617985
0.000641924
0.000669213
0.000699388
0.000731792
0.000765677
0.000800294
0.00083498
0.000869231
0.00090276
0.000935527
0.000967758
0.000999924
0.0010327
0.00106688
0.0011033
0.00114265
0.00118533
0.00123114
0.00127894
0.00132639
0.00136962
0.00140014
0.00141157
0.00140628
0.00137369
0.00131498
0.00123768
0.00115251
0.00106605
0.000973195
0.000856928
0.000707929
0.000565759
0.000520279
0.000901787
0.000117337
5.61664e-05
4.0323e-05
3.4423e-05
3.26755e-05
3.32654e-05
3.54602e-05
3.88568e-05
4.32326e-05
4.84812e-05
5.45829e-05
6.15872e-05
6.95989e-05
7.8767e-05
8.92744e-05
0.000101329
0.000115151
0.000130966
0.00014898
0.000169365
0.000192224
0.000217562
0.000245248
0.000274979
0.000306263
0.000338406
0.000370553
0.000401741
0.000431013
0.000457545
0.000480784
0.000500565
0.000517167
0.000531286
0.000543997
0.000556632
0.0005704
0.00058636
0.000605326
0.000627734
0.000653634
0.000682738
0.000714498
0.000748199
0.000783055
0.000818301
0.000853287
0.000887539
0.000920825
0.00095318
0.000984918
0.00101661
0.00104904
0.00108313
0.00111984
0.00116004
0.00120431
0.0012527
0.00130427
0.00135688
0.00140665
0.00144636
0.00146426
0.0014641
0.00143435
0.00137296
0.00128717
0.00119016
0.00109351
0.000997128
0.000884689
0.000740521
0.000596448
0.000547249
0.000942985
0.000125441
6e-05
4.30164e-05
3.66827e-05
3.48067e-05
3.54318e-05
3.77638e-05
4.13575e-05
4.59637e-05
5.14609e-05
5.78224e-05