/*--------------------------------*- C++ -*----------------------------------*\
  =========                 |
  \\      /  F ield         | OpenFOAM: The Open Source CFD Toolbox
   \\    /   O peration     | Website:  https://openfoam.org
    \\  /    A nd           | Version:  12
     \\/     M anipulation  |
\*---------------------------------------------------------------------------*/
FoamFile
{
    format      ascii;
    class       volScalarField;
    location    "4.5";
    object      k;
}
// * * * * * * * * * * * * * * * * * * * * * * * * * * * * * * * * * * * * * //

dimensions      [0 2 -2 0 0 0 0];

internalField   nonuniform List<scalar> 
5625
(
2.27293e-10
1.53736e-09
3.42149e-09
5.66047e-09
8.14971e-09
1.08238e-08
1.36385e-08
1.65655e-08
1.95902e-08
2.27111e-08
2.5939e-08
2.92965e-08
3.28176e-08
3.65465e-08
4.05367e-08
4.48507e-08
4.95585e-08
5.4737e-08
6.04693e-08
6.68434e-08
7.39517e-08
8.18901e-08
9.07568e-08
1.00652e-07
1.11675e-07
1.23927e-07
1.37505e-07
1.52504e-07
1.69014e-07
1.87121e-07
2.06903e-07
2.28433e-07
2.51772e-07
2.76977e-07
3.04091e-07
3.33151e-07
3.64181e-07
3.97193e-07
4.32187e-07
4.69143e-07
5.08025e-07
5.48765e-07
5.91265e-07
6.35378e-07
6.80897e-07
7.27537e-07
7.74918e-07
8.22538e-07
8.69755e-07
9.15758e-07
9.59549e-07
9.99927e-07
1.03545e-06
1.06436e-06
1.08396e-06
1.09277e-06
1.09314e-06
1.07917e-06
1.05005e-06
1.00566e-06
9.46448e-07
8.73749e-07
7.89889e-07
6.98101e-07
6.02255e-07
5.06441e-07
4.145e-07
3.29583e-07
2.53855e-07
1.88389e-07
1.33255e-07
8.77956e-08
5.1056e-08
2.24423e-08
3.30561e-09
1.71792e-09
1.36912e-08
3.07009e-08
5.08748e-08
7.32911e-08
9.73657e-08
1.22702e-07
1.49046e-07
1.76266e-07
2.04349e-07
2.33393e-07
2.63601e-07
2.95278e-07
3.28823e-07
3.64719e-07
4.03526e-07
4.45875e-07
4.92458e-07
5.44022e-07
6.01361e-07
6.65306e-07
7.36721e-07
8.1649e-07
9.05512e-07
1.00469e-06
1.11492e-06
1.23708e-06
1.37203e-06
1.52058e-06
1.6835e-06
1.86149e-06
2.05521e-06
2.26521e-06
2.49199e-06
2.73595e-06
2.99741e-06
3.2766e-06
3.57361e-06
3.88845e-06
4.22095e-06
4.57076e-06
4.9373e-06
5.31967e-06
5.71655e-06
6.1261e-06
6.54578e-06
6.97214e-06
7.40072e-06
7.82574e-06
8.23992e-06
8.63432e-06
8.99814e-06
9.31846e-06
9.57959e-06
9.75663e-06
9.83368e-06
9.83575e-06
9.70768e-06
9.44344e-06
9.04213e-06
8.50793e-06
7.8529e-06
7.09801e-06
6.27233e-06
5.41057e-06
4.54941e-06
3.72324e-06
2.96028e-06
2.27993e-06
1.69176e-06
1.19639e-06
7.87852e-07
4.57396e-07
1.99578e-07
2.49606e-08
3.64979e-09
3.12754e-08
7.05875e-08
1.17214e-07
1.6901e-07
2.24624e-07
2.8314e-07
3.43968e-07
4.06807e-07
4.71626e-07
5.38649e-07
6.08352e-07
6.81439e-07
7.58831e-07
8.41646e-07
9.31185e-07
1.02891e-06
1.13641e-06
1.25543e-06
1.38781e-06
1.53547e-06
1.70042e-06
1.88471e-06
2.09044e-06
2.31969e-06
2.57458e-06
2.85716e-06
3.16942e-06
3.51328e-06
3.89055e-06
4.30291e-06
4.75187e-06
5.23881e-06
5.76489e-06
6.33109e-06
6.93815e-06
7.58661e-06
8.2767e-06
9.00837e-06
9.78116e-06
1.05942e-05
1.14458e-05
1.23339e-05
1.32551e-05
1.42049e-05
1.5177e-05
1.61631e-05
1.71527e-05
1.81321e-05
1.90843e-05
1.99885e-05
2.08199e-05
2.15491e-05
2.21415e-05
2.25365e-05
2.27018e-05
2.2702e-05
2.23987e-05
2.17823e-05
2.0851e-05
1.96143e-05
1.80997e-05
1.63553e-05
1.44483e-05
1.24588e-05
1.04716e-05
8.5661e-06
6.80752e-06
5.24037e-06
3.88642e-06
2.74671e-06
1.80709e-06
1.04716e-06
4.54081e-07
5.28191e-08
5.97214e-09
5.2448e-08
1.18943e-07
1.97906e-07
2.85638e-07
3.79822e-07
4.78897e-07
5.81861e-07
6.88199e-07
7.97859e-07
9.11227e-07
1.02911e-06
1.1527e-06
1.28357e-06
1.42362e-06
1.57506e-06
1.74038e-06
1.9223e-06
2.12376e-06
2.34791e-06
2.59803e-06
2.87755e-06
3.18998e-06
3.5389e-06
3.92793e-06
4.36067e-06
4.84067e-06
5.37138e-06
5.95614e-06
6.59809e-06
7.30013e-06
8.06495e-06
8.8949e-06
9.79199e-06
1.07579e-05
1.17938e-05
1.29004e-05
1.4078e-05
1.53261e-05
1.66434e-05
1.80279e-05
1.94763e-05
2.0984e-05
2.25445e-05
2.41493e-05
2.57873e-05
2.7444e-05
2.91011e-05
3.07357e-05
3.23198e-05
3.38194e-05
3.5194e-05
3.63961e-05
3.7372e-05
3.8014e-05
3.82758e-05
3.82727e-05
3.77589e-05
3.67214e-05
3.51563e-05
3.30766e-05
3.05264e-05
2.75852e-05
2.43656e-05
2.1004e-05
1.76449e-05
1.44246e-05
1.14543e-05
8.80998e-06
6.52802e-06
4.60931e-06
3.02895e-06
1.75172e-06
7.56094e-07
8.58092e-08
8.61526e-09
7.64149e-08
1.73893e-07
2.89844e-07
4.18725e-07
5.57081e-07
7.02591e-07
8.5377e-07
1.00986e-06
1.17077e-06
1.33709e-06
1.51e-06
1.69128e-06
1.88324e-06
2.0887e-06
2.31092e-06
2.55358e-06
2.82072e-06
3.11671e-06
3.44619e-06
3.81405e-06
4.22539e-06
4.68545e-06
5.19957e-06
5.77318e-06
6.41167e-06
7.12039e-06
7.90457e-06
8.76921e-06
9.71905e-06
1.07585e-05
1.18915e-05
1.31215e-05
1.44514e-05
1.58833e-05
1.74185e-05
1.90577e-05
2.08e-05
2.26439e-05
2.45861e-05
2.66219e-05
2.87449e-05
3.09466e-05
3.3216e-05
3.55392e-05
3.78992e-05
4.02748e-05
4.26401e-05
4.49635e-05
4.72069e-05
4.93246e-05
5.12621e-05
5.29552e-05
5.43324e-05
5.52389e-05
5.56089e-05
5.5614e-05
5.48906e-05
5.34143e-05
5.11762e-05
4.81875e-05
4.45053e-05
4.02408e-05
3.55563e-05
3.06515e-05
2.57418e-05
2.10307e-05
1.66856e-05
1.28202e-05
9.48887e-06
6.69205e-06
4.39176e-06
2.53511e-06
1.09052e-06
1.22525e-07
1.15323e-08
1.02768e-07
2.34439e-07
3.91328e-07
5.65815e-07
7.53142e-07
9.5012e-07
1.15471e-06
1.36588e-06
1.58352e-06
1.80841e-06
2.04218e-06
2.28725e-06
2.5468e-06
2.82467e-06
3.12531e-06
3.45377e-06
3.81557e-06
4.21668e-06
4.6635e-06
5.16273e-06
5.72139e-06
6.34671e-06
7.04608e-06
7.827e-06
8.69697e-06
9.66342e-06
1.07336e-05
1.19144e-05
1.32124e-05
1.46336e-05
1.61831e-05
1.78653e-05
1.96836e-05
2.164e-05
2.37351e-05
2.59678e-05
2.83355e-05
3.08332e-05
3.34538e-05
3.61883e-05
3.90248e-05
4.19493e-05
4.4945e-05
4.79922e-05
5.10683e-05
5.41463e-05
5.71949e-05
6.01771e-05
6.30481e-05
6.57543e-05
6.82311e-05
7.04009e-05
7.21752e-05
7.33651e-05
7.38677e-05
7.39038e-05
7.30092e-05
7.1124e-05
6.82324e-05
6.4337e-05
5.95019e-05
5.38661e-05
4.76414e-05
4.10947e-05
3.45188e-05
2.81944e-05
2.23546e-05
1.71594e-05
1.26856e-05
8.93503e-06
5.8555e-06
3.37416e-06
1.4478e-06
1.61884e-07
1.46955e-08
1.31286e-07
3.00022e-07
5.01384e-07
7.25474e-07
9.66081e-07
1.21905e-06
1.48172e-06
1.75274e-06
2.03197e-06
2.32045e-06
2.62029e-06
2.93464e-06
3.26762e-06
3.62422e-06
4.01025e-06
4.43226e-06
4.89743e-06
5.41357e-06
5.98899e-06
6.63249e-06
7.35322e-06
8.16069e-06
9.0646e-06
1.00748e-05
1.12012e-05
1.24535e-05
1.38411e-05
1.53731e-05
1.70578e-05
1.89025e-05
2.09134e-05
2.30952e-05
2.54506e-05
2.79805e-05
3.06829e-05
3.35536e-05
3.65852e-05
3.97673e-05
4.30867e-05
4.65273e-05
5.00706e-05
5.36959e-05
5.73804e-05
6.10998e-05
6.48278e-05
6.85354e-05
7.21901e-05
7.57538e-05
7.91802e-05
8.24126e-05
8.53798e-05
8.79939e-05
9.01494e-05
9.16423e-05
9.23058e-05
9.23993e-05
9.13914e-05
8.91556e-05
8.56715e-05
8.09266e-05
7.49851e-05
6.80071e-05
6.0248e-05
5.20395e-05
4.37529e-05
3.57516e-05
2.83431e-05
2.17426e-05
1.60578e-05
1.1296e-05
7.39227e-06
4.25284e-06
1.82129e-06
2.03105e-07
1.80901e-08
1.61851e-07
3.7034e-07
6.19466e-07
8.96878e-07
1.19478e-06
1.50793e-06
1.83301e-06
2.16831e-06
2.51367e-06
2.87038e-06
3.24111e-06
3.62983e-06
4.0417e-06
4.48299e-06
4.96101e-06
5.48397e-06
6.06091e-06
6.70166e-06
7.41669e-06
8.21709e-06
9.11445e-06
1.01208e-05
1.12483e-05
1.25096e-05
1.3917e-05
1.54827e-05
1.72186e-05
1.91355e-05
2.12432e-05
2.35502e-05
2.60626e-05
2.87844e-05
3.17162e-05
3.48556e-05
3.81961e-05
4.17272e-05
4.54345e-05
4.92994e-05
5.33001e-05
5.74122e-05
6.16095e-05
6.58651e-05
7.01523e-05
7.44451e-05
7.87179e-05
8.29446e-05
8.70967e-05
9.114e-05
9.50315e-05
9.87143e-05
0.000102113
0.000105131
0.000107644
0.000109447
0.000110289
0.000110459
0.000109395
0.000106876
0.000102884
9.7387e-05
9.04424e-05
8.22217e-05
7.30129e-05
6.32022e-05
5.32339e-05
4.35539e-05
3.45499e-05
2.65026e-05
1.95604e-05
1.37449e-05
8.98259e-06
5.15993e-06
2.20623e-06
2.4564e-07
2.17094e-08
1.94414e-07
4.45261e-07
7.45317e-07
1.07962e-06
1.43865e-06
1.81601e-06
2.20762e-06
2.61142e-06
3.02721e-06
3.45658e-06
3.90282e-06
4.37078e-06
4.8668e-06
5.39856e-06
5.975e-06
6.60617e-06
7.30318e-06
8.07805e-06
8.94366e-06
9.91362e-06
1.10022e-05
1.2224e-05
1.35943e-05
1.51283e-05
1.6841e-05
1.87472e-05
2.08607e-05
2.31942e-05
2.57584e-05
2.85617e-05
3.1609e-05
3.49018e-05
3.84366e-05
4.22051e-05
4.61933e-05
5.0382e-05
5.47465e-05
5.92581e-05
6.38848e-05
6.85937e-05
7.33519e-05
7.81292e-05
8.28987e-05
8.76376e-05
9.23267e-05
9.69478e-05
0.000101481
0.0001059
0.000110166
0.000114224
0.000117992
0.000121364
0.0001242
0.000126296
0.000127311
0.000127563
0.000126482
0.000123746
0.000119343
0.00011322
0.000105421
9.61165e-05
8.56113e-05
7.43299e-05
6.27764e-05
5.14736e-05
4.08922e-05
3.13874e-05
2.31613e-05
1.62613e-05
1.06135e-05
6.08793e-06
2.59934e-06
2.89131e-07
2.55526e-08
2.28973e-07
5.24766e-07
8.78881e-07
1.27358e-06
1.69751e-06
2.143e-06
2.60518e-06
3.08158e-06
3.57199e-06
4.07833e-06
4.60457e-06
5.15655e-06
5.74189e-06
6.36982e-06
7.05106e-06
7.79771e-06
8.6231e-06
9.54167e-06
1.05689e-05
1.17211e-05
1.30155e-05
1.44697e-05
1.61017e-05
1.79296e-05
1.99713e-05
2.22437e-05
2.47624e-05
2.75411e-05
3.05905e-05
3.39175e-05
3.75241e-05
4.14069e-05
4.55557e-05
4.99535e-05
5.45757e-05
5.93915e-05
6.43642e-05
6.94535e-05
7.46177e-05
7.98167e-05
8.50146e-05
9.01823e-05
9.52982e-05
0.000100349
0.000105326
0.000110223
0.000115033
0.000119735
0.000124295
0.000128656
0.00013273
0.000136396
0.000139501
0.000141842
0.000143001
0.000143321
0.000142246
0.000139353
0.000134641
0.000128038
0.000119565
0.00010938
9.77839e-05
8.52193e-05
7.22319e-05
5.94104e-05
4.73071e-05
3.63602e-05
2.68396e-05
1.88331e-05
1.22776e-05
7.03237e-06
2.99847e-06
3.3342e-07
2.96228e-08
2.65563e-07
6.08924e-07
1.02025e-06
1.47886e-06
1.97145e-06
2.489e-06
3.02575e-06
3.57883e-06
4.148e-06
4.73558e-06
5.34627e-06
5.98701e-06
6.66681e-06
7.3966e-06
8.18907e-06
9.05849e-06
1.00206e-05
1.10925e-05
1.22925e-05
1.36398e-05
1.51546e-05
1.68577e-05
1.877e-05
2.09125e-05
2.33055e-05
2.59678e-05
2.89163e-05
3.21644e-05
3.57215e-05
3.95912e-05
4.37703e-05
4.82478e-05
5.3004e-05
5.80099e-05
6.32282e-05
6.86142e-05
7.41183e-05
7.96891e-05
8.52776e-05
9.08403e-05
9.63436e-05
0.000101765
0.000107095
0.000112334
0.000117488
0.000122566
0.000127567
0.000132478
0.000137264
0.00014186
0.00014617
0.000150059
0.000153362
0.000155876
0.000157132
0.000157496
0.000156429
0.000153436
0.00014852
0.000141588
0.000132638
0.000121798
0.000109349
9.57253e-05
8.14938e-05
6.7293e-05
5.37521e-05
4.13987e-05
3.05847e-05
2.14551e-05
1.3972e-05
7.99135e-06
3.40272e-06
3.78343e-07
3.3927e-08
3.04245e-07
6.97872e-07
1.16964e-06
1.69575e-06
2.26082e-06
2.85437e-06
3.46974e-06
4.10358e-06
4.75568e-06
5.42877e-06
6.12836e-06
6.8626e-06
7.64203e-06
8.47941e-06
9.38954e-06
1.03891e-05
1.14964e-05
1.27313e-05
1.41151e-05
1.56702e-05
1.74199e-05
1.93879e-05
2.15984e-05
2.40748e-05
2.68395e-05
2.99127e-05
3.33112e-05
3.70472e-05
4.11267e-05
4.55479e-05
5.02998e-05
5.5361e-05
6.06991e-05
6.6271e-05
7.20245e-05
7.79004e-05
8.38372e-05
8.97751e-05
9.56615e-05
0.000101456
0.000107133
0.000112684
0.000118115
0.000123444
0.000128694
0.000133882
0.000139015
0.000144079
0.000149031
0.000153798
0.000158271
0.000162305
0.000165725
0.000168325
0.000169624
0.000170006
0.000168932
0.000165892
0.000160869
0.000153756
0.000144522
0.000133256
0.000120199
0.000105758
9.04936e-05
7.50765e-05
6.02029e-05
4.64931e-05
3.43946e-05
2.41284e-05
1.56974e-05
8.96504e-06
3.81201e-06
4.23869e-07
3.84741e-08
3.45105e-07
7.91801e-07
1.32736e-06
1.92467e-06
2.56613e-06
3.23973e-06
3.93782e-06
4.65658e-06
5.39581e-06
6.1587e-06
6.95169e-06
7.78419e-06
8.66842e-06
9.61913e-06
1.06534e-05
1.17904e-05
1.30513e-05
1.44589e-05
1.60375e-05
1.78127e-05
1.98111e-05
2.20595e-05
2.45847e-05
2.74125e-05
3.05667e-05
3.40678e-05
3.79315e-05
4.21668e-05
4.67744e-05
5.17445e-05
5.70555e-05
6.26729e-05
6.85492e-05
7.46255e-05
8.08339e-05
8.7102e-05
9.3359e-05
9.95412e-05
0.000105599
0.000111501
0.000117237
0.000122817
0.000128267
0.000133621
0.000138915
0.000144173
0.000149401
0.000154577
0.000159647
0.000164525
0.00016909
0.000173189
0.000176646
0.000179249
0.000180542
0.000180916
0.000179817
0.000176765
0.000171722
0.000164555
0.000155207
0.000143724
0.000130293
0.000115272
9.91936e-05
8.27355e-05
6.66478e-05
5.16422e-05
3.82738e-05
2.68581e-05
1.74578e-05
9.9552e-06
4.22689e-06
4.70046e-07
4.32758e-08
3.88247e-07
8.90947e-07
1.49378e-06
2.16614e-06
2.88805e-06
3.64588e-06
4.43091e-06
5.23882e-06
6.06945e-06
6.9265e-06
7.81738e-06
8.75293e-06
9.74715e-06
1.08169e-05
1.19817e-05
1.32635e-05
1.46862e-05
1.62759e-05
1.806e-05
2.00673e-05
2.23275e-05
2.48704e-05
2.77251e-05
3.09193e-05
3.44772e-05
3.84185e-05
4.27562e-05
4.74942e-05
5.26255e-05
5.81298e-05
6.39721e-05
7.01024e-05
7.64568e-05
8.29596e-05
8.95285e-05
9.6081e-05
0.000102541
0.000108848
0.000114962
0.000120868
0.000126575
0.000132116
0.000137536
0.000142884
0.000148203
0.000153516
0.000158821
0.000164083
0.000169234
0.000174172
0.000178768
0.000182867
0.000186294
0.00018883
0.000190074
0.000190421
0.000189277
0.000186231
0.00018123
0.000174104
0.000164775
0.000153245
0.000139642
0.000124259
0.000107576
9.02563e-05
7.3082e-05
5.68497e-05
4.22304e-05
2.96527e-05
1.9259e-05
1.09648e-05
4.64836e-06
5.16978e-07
4.83453e-08
4.33792e-07
9.95582e-07
1.66936e-06
2.42078e-06
3.22738e-06
4.07376e-06
4.95008e-06
5.85149e-06
6.77786e-06
7.73346e-06
8.72678e-06
9.77015e-06
1.08795e-05
1.2074e-05
1.33757e-05
1.48093e-05
1.6402e-05
1.81827e-05
2.01823e-05
2.24328e-05
2.49668e-05
2.78167e-05
3.10135e-05
3.45858e-05
3.85575e-05
4.29459e-05
4.77594e-05
5.29949e-05
5.86349e-05
6.46462e-05
7.09785e-05
7.75646e-05
8.43232e-05
9.11632e-05
9.79909e-05
0.000104718
0.000111269
0.000117595
0.000123671
0.000129504
0.000135129
0.000140599
0.000145975
0.000151318
0.000156669
0.000162044
0.000167426
0.000172763
0.000177971
0.000182936
0.000187522
0.000191574
0.000194924
0.000197346
0.000198513
0.000198816
0.000197606
0.000194564
0.000189628
0.0001826
0.000173372
0.000161913
0.000148294
0.000132731
0.000115637
9.76297e-05
7.95018e-05
6.21198e-05
4.62735e-05
3.25217e-05
2.11079e-05
1.19974e-05
5.07771e-06
5.64802e-07
5.36976e-08
4.81875e-07
1.10601e-06
1.85459e-06
2.68931e-06
3.58503e-06
4.52445e-06
5.49656e-06
6.49594e-06
7.52247e-06
8.58105e-06
9.68132e-06
1.08372e-05
1.20668e-05
1.33915e-05
1.48362e-05
1.64286e-05
1.81988e-05
2.01791e-05
2.24036e-05
2.49072e-05
2.77254e-05
3.08926e-05
3.44413e-05
3.83999e-05
4.27905e-05
4.76268e-05
5.29104e-05
5.86287e-05
6.47521e-05
7.1232e-05
7.80009e-05
8.49741e-05
9.20539e-05
9.91362e-05
0.00010612
0.000112917
0.000119463
0.000125722
0.000131694
0.000137411
0.000142933
0.000148333
0.000153685
0.00015905
0.000164463
0.000169925
0.000175401
0.00018082
0.00018608
0.000191059
0.000195617
0.000199602
0.000202855
0.000205138
0.000206211
0.00020646
0.00020516
0.000202106
0.000197218
0.000190295
0.000181198
0.000169868
0.000156329
0.000140723
0.000123378
0.000104847
8.59001e-05
6.74533e-05
5.04106e-05
3.54744e-05
2.3012e-05
1.30572e-05
5.51638e-06
6.13671e-07
5.9349e-08
5.32644e-07
1.22258e-06
2.05003e-06
2.97251e-06
3.96197e-06
4.99915e-06
6.0717e-06
7.17361e-06
8.30479e-06
9.47079e-06
1.06825e-05
1.19556e-05
1.33102e-05
1.47705e-05
1.6364e-05
1.81215e-05
2.00764e-05
2.22641e-05
2.47217e-05
2.74871e-05
3.05979e-05
3.40905e-05
3.79974e-05
4.23462e-05
4.71557e-05
5.24339e-05
5.81741e-05
6.4352e-05
7.09233e-05
7.7823e-05
8.49658e-05
9.22497e-05
9.95631e-05
0.000106793
0.000113837
0.000120614
0.000127075
0.000133209
0.000139042
0.000144635
0.000150068
0.00015543
0.000160802
0.000166239
0.000171762
0.000177353
0.000182956
0.00018848
0.000193811
0.000198817
0.000203355
0.000207279
0.000210439
0.000212579
0.000213552
0.00021374
0.000212323
0.000209222
0.000204335
0.000197477
0.000188484
0.000177279
0.000163853
0.000148284
0.000130811
0.000111898
9.22645e-05
7.28456e-05
5.46455e-05
3.85187e-05
2.49782e-05
1.4148e-05
5.9658e-06
6.63741e-07
6.53172e-08
5.86258e-07
1.34563e-06
2.25628e-06
3.27119e-06
4.35929e-06
5.49911e-06
6.67694e-06
7.88605e-06
9.12639e-06
1.04042e-05
1.17317e-05
1.31264e-05
1.46108e-05
1.62116e-05
1.79594e-05
1.98879e-05
2.20338e-05
2.44356e-05
2.71333e-05
3.01673e-05
3.35772e-05
3.74001e-05
4.16682e-05
4.64064e-05
5.16292e-05
5.73368e-05
6.35123e-05
7.01178e-05
7.70933e-05
8.43559e-05
9.18031e-05
9.93178e-05
0.000106778
0.000114066
0.000121087
0.000127773
0.000134097
0.000140077
0.000145767
0.000151256
0.000156642
0.000162025
0.000167482
0.000173057
0.000178753
0.00018453
0.000190308
0.000195981
0.00020142
0.000206487
0.000211038
0.000214932
0.000218027
0.000220038
0.000220914
0.000221035
0.000219474
0.00021628
0.000211326
0.000204448
0.000195484
0.00018434
0.000170997
0.000155483
0.000137953
0.000118772
9.85772e-05
7.82849e-05
5.89767e-05
4.16596e-05
2.70124e-05
1.52735e-05
6.42732e-06
7.15157e-07
7.16209e-08
6.42887e-07
1.47556e-06
2.47395e-06
3.58627e-06
4.77811e-06
6.0257e-06
7.31376e-06
8.63484e-06
9.98889e-06
1.13829e-05
1.28304e-05
1.4351e-05
1.59694e-05
1.77153e-05
1.96222e-05
2.17269e-05
2.40692e-05
2.66907e-05
2.96339e-05
3.29415e-05
3.66543e-05
4.08093e-05
4.54373e-05
5.05596e-05
5.61841e-05
6.23022e-05
6.88846e-05
7.58786e-05
8.32072e-05
9.07705e-05
9.84496e-05
0.000106116
0.00011364
0.000120911
0.000127841
0.000134387
0.000140549
0.000146374
0.000151948
0.000157381
0.000162786
0.000168266
0.000173888
0.000179681
0.000185624
0.000191654
0.000197672
0.000203552
0.000209155
0.000214338
0.000218955
0.000222868
0.000225939
0.000227851
0.000228642
0.000228691
0.000226964
0.000223623
0.000218523
0.000211516
0.000202464
0.000191268
0.000177914
0.00016241
0.00014484
0.000125466
0.000104817
8.37533e-05
6.33972e-05
4.48986e-05
2.91191e-05
1.6437e-05
6.90207e-06
7.68047e-07
7.828e-08
7.0271e-07
1.61278e-06
2.70373e-06
3.91867e-06
5.21964e-06
6.58031e-06
7.98374e-06
9.42161e-06
1.08939e-05
1.24082e-05
1.39798e-05
1.56301e-05
1.73865e-05
1.92815e-05
2.13516e-05
2.36369e-05
2.61799e-05
2.90253e-05
3.22178e-05
3.58016e-05
3.98183e-05
4.4304e-05
4.92866e-05
5.47825e-05
6.07918e-05
6.72952e-05
7.42498e-05
8.15871e-05
8.92133e-05
9.70119e-05
0.000104851
0.000112594
0.000120112
0.000127301
0.000134096
0.000140477
0.000146478
0.000152175
0.000157684
0.000163131
0.000168639
0.000174305
0.000180184
0.000186281
0.000192554
0.000198915
0.000205245
0.000211403
0.000217241
0.000222606
0.000227354
0.000231345
0.000234441
0.000236299
0.000237031
0.000236996
0.000235093
0.000231555
0.000226227
0.000218974
0.000209689
0.00019829
0.000184781
0.000169179
0.000151524
0.000131984
0.000110965
8.9228e-05
6.7894e-05
4.82335e-05
3.13008e-05
1.76408e-05
7.39099e-06
8.22514e-07
8.53156e-08
7.65915e-07
1.7577e-06
2.94632e-06
4.26937e-06
5.6851e-06
7.16439e-06
8.68844e-06
1.0248e-05
1.18428e-05
1.34816e-05
1.51809e-05
1.69644e-05
1.88622e-05
2.09096e-05
2.31463e-05
2.56153e-05
2.83623e-05
3.14341e-05
3.48776e-05
3.87381e-05
4.30567e-05
4.78679e-05
5.31958e-05
5.90501e-05
6.54221e-05
7.22802e-05
7.95672e-05
8.71985e-05
9.50641e-05
0.000103033
0.000110964
0.000118717
0.000126171
0.000133235
0.00013987
0.000146087
0.000151951
0.000157572
0.000163085
0.000168634
0.000174339
0.000180289
0.00018652
0.000193014
0.000199703
0.000206478
0.0002132
0.000219715
0.000225862
0.000231484
0.000236431
0.00024056
0.000243733
0.000245586
0.000246298
0.000246168
0.000244093
0.000240322
0.000234694
0.000227086
0.000217416
0.000205639
0.000191792
0.000175929
0.000158082
0.000138349
0.000117007
9.46843e-05
7.24497e-05
5.16583e-05
3.35581e-05
1.88869e-05
7.89476e-06
8.78635e-07
9.27501e-08
8.32695e-07
1.91078e-06
3.20244e-06
4.63941e-06
6.17579e-06
7.77944e-06
9.42946e-06
1.11155e-05
1.28373e-05
1.46042e-05
1.64345e-05
1.83542e-05
2.03961e-05
2.25985e-05
2.50042e-05
2.76592e-05
3.06117e-05
3.39109e-05
3.76051e-05
4.17399e-05
4.63555e-05
5.14835e-05
5.71431e-05
6.33364e-05
7.00442e-05
7.72222e-05
8.47982e-05
9.2672e-05
0.000100719
0.000108797
0.000116759
0.000124467
0.000131813
0.000138728
0.000145201
0.000151276
0.000157051
0.000162664
0.000168268
0.000174014
0.000180018
0.000186352
0.000193032
0.000200015
0.000207208
0.000214481
0.000221675
0.000228623
0.000235154
0.000241103
0.000246314
0.000250641
0.000253945
0.000255843
0.000256559
0.000256356
0.000254122
0.0002501
0.000244124
0.000236072
0.000225879
0.000213542
0.000199149
0.00018282
0.000164616
0.000144602
0.00012294
0.000100099
7.70433e-05
5.51635e-05
3.58897e-05
2.01763e-05
8.41379e-06
9.36456e-07
1.00609e-07
9.03253e-07
2.07249e-06
3.47286e-06
5.02984e-06
6.69304e-06
8.42697e-06
1.02084e-05
1.20257e-05
1.38785e-05
1.57769e-05
1.77411e-05
1.97993e-05
2.19873e-05
2.43464e-05
2.69225e-05
2.97643e-05
3.29225e-05
3.64482e-05
4.03904e-05
4.47947e-05
4.96993e-05
5.51321e-05
6.11061e-05
6.76149e-05
7.4628e-05
8.20878e-05
8.99072e-05
9.79718e-05
0.000106144
0.000114275
0.000122217
0.00012984
0.000137052
0.000143813
0.000150141
0.000156117
0.000161867
0.000167554
0.000173344
0.000179387
0.000185791
0.000192609
0.000199833
0.000207393
0.000215174
0.000223022
0.000230764
0.000238215
0.000245195
0.00025153
0.00025706
0.000261638
0.000265121
0.000267112
0.000267857
0.000267618
0.000265257
0.000260992
0.00025465
0.000246095
0.000235271
0.000222208
0.000207058
0.000190027
0.000171252
0.00015081
0.000128776
0.000105456
8.16529e-05
5.87366e-05
3.82924e-05
2.15093e-05
8.94823e-06
9.95999e-07
1.08916e-07
9.77806e-07
2.24331e-06
3.75839e-06
5.44177e-06
7.23821e-06
9.10852e-06
1.10268e-05
1.29801e-05
1.49677e-05
1.70007e-05
1.91009e-05
2.12994e-05
2.36346e-05
2.61511e-05
2.88976e-05
3.19257e-05
3.52882e-05
3.90374e-05
4.3223e-05
4.78892e-05
5.30719e-05
5.87941e-05
6.5062e-05
7.18595e-05
7.91446e-05
8.68461e-05
9.48633e-05
0.000103069
0.000111316
0.000119452
0.000127334
0.000134844
0.000141915
0.000148534
0.000154755
0.000160688
0.00016649
0.000172342
0.000178416
0.000184858
0.000191761
0.000199156
0.000207009
0.000215228
0.000223671
0.000232164
0.000240515
0.000248525
0.000256003
0.000262769
0.00026866
0.000273527
0.00027723
0.000279358
0.000280157
0.00027993
0.000277489
0.000273021
0.00026633
0.00025726
0.000245738
0.000231815
0.000215712
0.000197734
0.000178136
0.000157062
0.000134549
0.000110745
8.62572e-05
6.23629e-05
4.07614e-05
2.28853e-05
9.49802e-06
1.05726e-06
1.17696e-07
1.05658e-06
2.42376e-06
4.05984e-06
5.87633e-06
7.81271e-06
9.82564e-06
1.18863e-05
1.39801e-05
1.61059e-05
1.82759e-05
2.05138e-05
2.28534e-05
2.53361e-05
2.80095e-05
3.09255e-05
3.41379e-05
3.77014e-05
4.16694e-05
4.60911e-05
5.10093e-05
5.64564e-05
6.24499e-05
6.89881e-05
7.60452e-05
8.35673e-05
9.14702e-05
9.96408e-05
0.000107941
0.000116219
0.000124322
0.000132116
0.000139503
0.00014644
0.000152947
0.00015911
0.000165071
0.000171011
0.00017712
0.000183576
0.000190513
0.000198006
0.000206063
0.000214623
0.000223569
0.000232735
0.000241926
0.00025093
0.000259537
0.000267544
0.000274767
0.000281042
0.000286222
0.000290173
0.000292482
0.000293359
0.000293193
0.000290739
0.000286132
0.00027915
0.000269595
0.000257362
0.000242498
0.000225279
0.000206119
0.000185425
0.000163468
0.00014031
0.000115971
9.08381e-05
6.60266e-05
4.32904e-05
2.43034e-05
1.00629e-05
1.12021e-06
1.26975e-07
1.13982e-06
2.61436e-06
4.37808e-06
6.33472e-06
8.41796e-06
1.05799e-05
1.27884e-05
1.50269e-05
1.72941e-05
1.96029e-05
2.19794e-05
2.44599e-05
2.70893e-05
2.99181e-05
3.3001e-05
3.63943e-05
4.0154e-05
4.43338e-05
4.89825e-05
5.41404e-05
5.98357e-05
6.60799e-05
7.28631e-05
8.01491e-05
8.78725e-05
9.59375e-05
0.00010422
0.000112575
0.000120847
0.00012889
0.000136582
0.000143849
0.000150674
0.000157112
0.000163279
0.000169346
0.00017551
0.000181971
0.000188901
0.000196421
0.000204585
0.000213375
0.000222707
0.000232433
0.000242365
0.000252287
0.00026197
0.00027119
0.000279736
0.00028742
0.000294082
0.000299582
0.000303796
0.000306327
0.000307312
0.000307246
0.00030486
0.000300202
0.00029302
0.000283061
0.000270162
0.000254336
0.000235891
0.000215344
0.000193281
0.000170157
0.000146131
0.000121152
9.53832e-05
6.97115e-05
4.58715e-05
2.57617e-05
1.06424e-05
1.1848e-06
1.36781e-07
1.22777e-06
2.81567e-06
4.71401e-06
6.81815e-06
9.05542e-06
1.13728e-05
1.37345e-05
1.61218e-05
1.85327e-05
2.09816e-05
2.34966e-05
2.61171e-05
2.88912e-05
3.18727e-05
3.51188e-05
3.86879e-05
4.26371e-05
4.70202e-05
5.18846e-05
5.72677e-05
6.31931e-05
6.96656e-05
7.66667e-05
8.41505e-05
9.20405e-05
0.00010023
0.000108588
0.000116963
0.000125202
0.000133169
0.000140759
0.000147921
0.00015467
0.000161092
0.000167333
0.000173586
0.000180062
0.000186962
0.00019445
0.000202631
0.000211534
0.000221116
0.000231264
0.000241805
0.000252528
0.000263194
0.000273558
0.000283385
0.000292457
0.000300588
0.000307623
0.000313433
0.000317908
0.000320696
0.000321833
0.000321883
0.000319656
0.000315052
0.000307791
0.00029755
0.000284086
0.000267347
0.000247632
0.000225544
0.000201858
0.000177265
0.000152102
0.000126322
9.98876e-05
7.3402e-05
4.84961e-05
2.72581e-05
1.12359e-05
1.25096e-06
1.47144e-07
1.32069e-06
3.02828e-06
5.06856e-06
7.32787e-06
9.72659e-06
1.2206e-05
1.47261e-05
1.72656e-05
1.98223e-05
2.24117e-05
2.50642e-05
2.78226e-05
3.07384e-05
3.38685e-05
3.72727e-05
4.1011e-05
4.51416e-05
4.97176e-05
5.47847e-05
6.03768e-05
6.65124e-05
7.31896e-05
8.03814e-05
8.80321e-05
9.60556e-05
0.000104337
0.000112737
0.000121106
0.000129296
0.000137182
0.000144679
0.000151765
0.000158484
0.00016495
0.000171338
0.000177859
0.000184729
0.000192149
0.000200269
0.000209173
0.000218868
0.000229282
0.000240274
0.000251646
0.000263161
0.000274562
0.000285589
0.000295996
0.000305563
0.000314109
0.000321487
0.000327583
0.000332305
0.000335375
0.000336708
0.000336883
0.0003349
0.000330461
0.00032326
0.000312892
0.000299018
0.000281483
0.00026053
0.000236816
0.000211294
0.000184932
0.000158328
0.000131532
0.000104355
7.70848e-05
5.11546e-05
2.87895e-05
1.18427e-05
1.31862e-06
1.58093e-07
1.41886e-06
3.25278e-06
5.44269e-06
7.86519e-06
1.0433e-05
1.3081e-05
1.57644e-05
1.84594e-05
2.11631e-05
2.38923e-05
2.66805e-05
2.95738e-05
3.2627e-05
3.59004e-05
3.94561e-05
4.33558e-05
4.76579e-05
5.24149e-05
5.76701e-05
6.34537e-05
6.97789e-05
7.66366e-05
8.39918e-05
9.17801e-05
9.9907e-05
0.000108251
0.000116669
0.000125015
0.000133147
0.000140957
0.000148384
0.000155431
0.000162171
0.000168748
0.000175357
0.000182222
0.000189563
0.000197572
0.000206383
0.00021606
0.000226581
0.000237849
0.000249694
0.000261891
0.00027418
0.000286287
0.000297938
0.00030888
0.000318897
0.000327811
0.000335491
0.00034184
0.000346786
0.000350147
0.000351705
0.000352023
0.000350356
0.000346191
0.000339194
0.000328877
0.000314786
0.000296634
0.000274554
0.000249207
0.000221696
0.000193289
0.000164921
0.000136845
0.000108801
8.07496e-05
5.38368e-05
3.03527e-05
1.24619e-05
1.38767e-06
1.69661e-07
1.52254e-06
3.48981e-06
5.83742e-06
8.43144e-06
1.11761e-05
1.39993e-05
1.68508e-05
1.97038e-05
2.25549e-05
2.54227e-05
2.83436e-05
3.13673e-05
3.45526e-05
3.79626e-05
4.16621e-05
4.5714e-05
5.01767e-05
5.51014e-05
6.0529e-05
6.64857e-05
7.2979e-05
7.99934e-05
8.74861e-05
9.53849e-05
0.000103589
0.000111971
0.00012039
0.000128702
0.000136779
0.000144529
0.000151916
0.000158968
0.000165788
0.000172541
0.000179443
0.000186724
0.000194601
0.000203256
0.000212804
0.000223286
0.000234652
0.000246776
0.000259461
0.000272458
0.000285485
0.00029825
0.00031047
0.000321891
0.000332297
0.000341526
0.00034946
0.000356024
0.000361166
0.000364806
0.000366611
0.000367092
0.000365791
0.000361998
0.000355346
0.000345264
0.000331175
0.000312634
0.000289614
0.000262713
0.000233139
0.000202452
0.000171995
0.000142336
0.00011325
8.439e-05
5.65326e-05
3.19437e-05
1.30923e-05
1.45799e-06
1.81881e-07
1.63205e-06
3.74003e-06
6.25378e-06
9.02801e-06
1.19576e-05
1.49624e-05
1.79864e-05
2.09993e-05
2.39975e-05
2.70014e-05
3.00508e-05
3.31997e-05
3.65104e-05
4.00495e-05
4.38838e-05
4.80774e-05
5.26884e-05
5.77668e-05
6.33503e-05
6.94612e-05
7.61016e-05
8.32496e-05
9.08556e-05
9.88411e-05
0.0001071
0.000115503
0.000123912
0.000132189
0.000140221
0.000147936
0.000155319
0.000162427
0.000169385
0.000176381
0.000183642
0.000191402
0.00019987
0.000209214
0.00021953
0.000230831
0.000243042
0.000256006
0.000269501
0.000283254
0.000296964
0.000310325
0.000323049
0.00033488
0.000345613
0.000355097
0.000363235
0.000369976
0.000375294
0.000379161
0.000381243
0.000381906
0.000380999
0.000377657
0.000371473
0.000361803
0.000347941
0.000329274
0.000305563
0.000277274
0.000245649
0.000212515
0.000179662
0.000148091
0.000117737
8.80048e-05
5.92322e-05
3.35578e-05
1.37328e-05
1.52944e-06
1.94789e-07
1.74768e-06
4.00413e-06
6.69288e-06
9.65632e-06
1.2779e-05
1.59719e-05
1.91721e-05
2.23462e-05
2.54902e-05
2.86268e-05
3.17996e-05
3.5067e-05
3.84955e-05
4.21549e-05
4.61141e-05
5.0438e-05
5.51845e-05
6.04016e-05
6.61243e-05
7.23706e-05
7.91377e-05
8.63978e-05
9.40957e-05
0.000102148
0.000110444
0.000118858
0.000127252
0.000135502
0.000143507
0.000151217
0.00015864
0.000165856
0.000173013
0.000180312
0.000187993
0.000196285
0.000205385
0.000215447
0.000226544
0.000238663
0.0002517
0.000265472
0.00027973
0.000294179
0.000308505
0.00032239
0.000335543
0.000347714
0.000358707
0.000368388
0.000376682
0.00038356
0.000389024
0.000393078
0.000395452
0.000396314
0.000395804
0.000392969
0.000387354
0.000378252
0.000364835
0.000346314
0.00032221
0.000292778
0.000259209
0.000223536
0.00018802
0.000154197
0.000122308
9.1598e-05
6.19262e-05
3.51898e-05
1.43818e-05
1.60185e-06
2.08421e-07
1.86978e-06
4.28282e-06
7.15585e-06
1.03178e-05
1.36419e-05
1.7029e-05
2.04091e-05
2.37448e-05
2.70323e-05
3.02969e-05
3.35869e-05
3.69652e-05
4.05028e-05
4.42728e-05
4.83461e-05
5.27883e-05
5.76567e-05
6.29975e-05
6.88427e-05
7.52065e-05
8.20812e-05
8.94342e-05
9.72056e-05
0.000105308
0.000113632
0.00012205
0.000130434
0.000138669
0.000146673
0.000154414
0.000161924
0.000169302
0.000176713
0.000184373
0.000192525
0.00020139
0.000211153
0.000221946
0.000233822
0.00024674
0.000260568
0.000275098
0.000290057
0.000305133
0.000319997
0.000334327
0.000347833
0.000360272
0.000371462
0.000381286
0.00038969
0.000396669
0.000402248
0.000406457
0.000409123
0.000410208
0.00041007
0.000407773
0.000402799
0.00039439
0.000381612
0.000363505
0.000339331
0.000309064