/*--------------------------------*- C++ -*----------------------------------*\
  =========                 |
  \\      /  F ield         | OpenFOAM: The Open Source CFD Toolbox
   \\    /   O peration     | Website:  https://openfoam.org
    \\  /    A nd           | Version:  12
     \\/     M anipulation  |
\*---------------------------------------------------------------------------*/
FoamFile
{
    format      ascii;
    class       surfaceScalarField;
    location    "4.5";
    object      phi;
}
// * * * * * * * * * * * * * * * * * * * * * * * * * * * * * * * * * * * * * //

dimensions      [0 3 -1 0 0 0 0];

internalField   nonuniform List<scalar> 
11100
(
-2.59118e-11
2.45156e-11
4.53384e-10
-4.79396e-10
1.36317e-09
-9.09802e-10
2.53489e-09
-1.17172e-09
3.83312e-09
-1.29823e-09
5.15756e-09
-1.32444e-09
6.43813e-09
-1.28057e-09
7.62791e-09
-1.18979e-09
8.69721e-09
-1.0693e-09
9.6287e-09
-9.31494e-10
1.04137e-08
-7.84965e-10
1.10488e-08
-6.35191e-10
1.15341e-08
-4.85236e-10
1.18702e-08
-3.36184e-10
1.20575e-08
-1.87284e-10
1.20948e-08
-3.72342e-11
1.19773e-08
1.17476e-10
1.16965e-08
2.80813e-10
1.12391e-08
4.5731e-10
1.05865e-08
6.52618e-10
9.71356e-09
8.72938e-10
8.58815e-09
1.1254e-09
7.17081e-09
1.41733e-09
5.41373e-09
1.75707e-09
3.26055e-09
2.15317e-09
6.45685e-10
2.61485e-09
-2.50584e-09
3.15151e-09
-6.27867e-09
3.77282e-09
-1.0767e-08
4.48831e-09
-1.60739e-08
5.30686e-09
-2.23105e-08
6.23657e-09
-2.95947e-08
7.2842e-09
-3.8049e-08
8.45429e-09
-4.77974e-08
9.74836e-09
-5.89614e-08
1.1164e-08
-7.16553e-08
1.26939e-08
-8.59798e-08
1.43245e-08
-1.02015e-07
1.60352e-08
-1.19812e-07
1.77971e-08
-1.39385e-07
1.95725e-08
-1.60699e-07
2.13142e-08
-1.83664e-07
2.29652e-08
-2.08123e-07
2.44593e-08
-2.33845e-07
2.57214e-08
-2.60514e-07
2.66694e-08
-2.87729e-07
2.72154e-08
-3.14998e-07
2.72685e-08
-3.41736e-07
2.67383e-08
-3.67274e-07
2.5538e-08
-3.90864e-07
2.35898e-08
-4.11689e-07
2.08252e-08
-4.28848e-07
1.71591e-08
-4.41473e-07
1.26252e-08
-4.48861e-07
7.38786e-09
-4.50169e-07
1.30738e-09
-4.44679e-07
-5.48919e-09
-4.32028e-07
-1.26511e-08
-4.12041e-07
-1.99872e-08
-3.84896e-07
-2.71454e-08
-3.51164e-07
-3.37315e-08
-3.11843e-07
-3.93207e-08
-2.68348e-07
-4.3496e-08
-2.2245e-07
-4.58971e-08
-1.76177e-07
-4.62738e-08
-1.31643e-07
-4.45337e-08
-9.08692e-08
-4.07738e-08
-5.5585e-08
-3.52841e-08
-2.70666e-08
-2.85185e-08
-6.02949e-09
-2.10371e-08
7.41305e-09
-1.34425e-08
1.37129e-08
-6.2998e-09
1.38957e-08
-1.8279e-10
9.60684e-09
4.28881e-09
3.5783e-09
6.02855e-09
3.5783e-09
2.87613e-10
-2.63246e-10
1.72177e-09
-1.91358e-09
4.15938e-09
-3.3474e-09
7.24717e-09
-4.25949e-09
1.06634e-08
-4.71449e-09
1.41538e-08
-4.81485e-09
1.75313e-08
-4.65801e-09
2.06648e-08
-4.32336e-09
2.34674e-08
-3.87192e-09
2.58846e-08
-3.34864e-09
2.78847e-08
-2.78511e-09
2.94513e-08
-2.20175e-09
3.0576e-08
-1.60999e-09
3.12537e-08
-1.01385e-09
3.14771e-08
-4.10717e-10
3.12348e-08
2.05091e-10
3.05052e-08
8.47059e-10
2.9256e-08
1.53008e-09
2.74412e-08
2.27207e-09
2.49987e-08
3.09507e-09
2.18485e-08
4.02315e-09
1.78904e-08
5.08354e-09
1.30027e-08
6.30505e-09
7.04068e-09
7.71907e-09
-1.64338e-10
9.35819e-09
-8.80711e-09
1.12576e-08
-1.91084e-08
1.34528e-08
-3.13138e-08
1.59782e-08
-4.56925e-08
1.8867e-08
-6.25361e-08
2.21505e-08
-8.21548e-08
2.58553e-08
-1.04872e-07
3.00009e-08
-1.31014e-07
3.45971e-08
-1.60907e-07
3.96405e-08
-1.94854e-07
4.51111e-08
-2.33128e-07
5.09685e-08
-2.75951e-07
5.71476e-08
-3.23472e-07
6.35557e-08
-3.75743e-07
7.00687e-08
-4.32701e-07
7.65297e-08
-4.94134e-07
8.27478e-08
-5.59668e-07
8.84989e-08
-6.28737e-07
9.35282e-08
-7.0057e-07
9.75548e-08
-7.74179e-07
1.00278e-07
-8.48348e-07
1.01385e-07
-9.21643e-07
1.00563e-07
-9.92414e-07
9.75096e-08
-1.05882e-06
9.1948e-08
-1.11888e-06
8.36436e-08
-1.17047e-06
7.24149e-08
-1.21143e-06
5.81213e-08
-1.23947e-06
4.06681e-08
-1.2529e-06
2.0818e-08
-1.24996e-06
-1.63281e-09
-1.22926e-06
-2.61967e-08
-1.1899e-06
-5.20068e-08
-1.13183e-06
-7.80602e-08
-1.05576e-06
-1.03211e-07
-9.63361e-07
-1.26132e-07
-8.57268e-07
-1.45414e-07
-7.41075e-07
-1.59689e-07
-6.19193e-07
-1.67779e-07
-4.96597e-07
-1.68869e-07
-3.78478e-07
-1.62653e-07
-2.6981e-07
-1.49441e-07
-1.74918e-07
-1.30177e-07
-9.70738e-08
-1.06362e-07
-3.82237e-08
-7.98872e-08
1.15199e-09
-5.28182e-08
2.21073e-08
-2.72551e-08
2.71297e-08
-5.2052e-09
2.04082e-08
1.10103e-08
8.29332e-09
1.81434e-08
1.18716e-08
7.31562e-10
-9.94854e-10
3.10205e-09
-4.28407e-09
6.84821e-09
-7.09356e-09
1.15074e-08
-8.91873e-09
1.66349e-08
-9.84199e-09
2.18637e-08
-1.00436e-08
2.69138e-08
-9.70814e-09
3.15829e-08
-8.99246e-09
3.57314e-08
-8.02045e-09
3.92678e-08
-6.88497e-09
4.21346e-08
-5.65193e-09
4.4297e-08
-4.36421e-09
4.57329e-08
-3.04587e-09
4.64241e-08
-1.70507e-09
4.63499e-08
-3.36512e-10
4.54808e-08
1.07422e-09
4.37724e-08
2.55547e-09
4.11627e-08
4.13983e-09
3.75672e-08
5.86754e-09
3.28755e-08
7.78679e-09
2.69478e-08
9.95082e-09
1.96132e-08
1.24182e-08
1.06657e-08
1.52525e-08
-1.37644e-10
1.85224e-08
-1.30794e-08
2.23e-08
-2.84803e-08
2.66585e-08
-4.66991e-08
3.16717e-08
-6.81334e-08
3.74125e-08
-9.3216e-08
4.39496e-08
-1.2241e-07
5.13443e-08
-1.562e-07
5.96457e-08
-1.95085e-07
6.88852e-08
-2.39558e-07
7.90703e-08
-2.90094e-07
9.01771e-08
-3.47127e-07
1.02143e-07
-4.11017e-07
1.14859e-07
-4.82028e-07
1.28159e-07
-5.60291e-07
1.41818e-07
-6.45765e-07
1.55543e-07
-7.38207e-07
1.68972e-07
-8.37133e-07
1.81673e-07
-9.41786e-07
1.93152e-07
-1.05111e-06
2.02855e-07
-1.16374e-06
2.10187e-07
-1.27799e-06
2.14523e-07
-1.39184e-06
2.15231e-07
-1.50297e-06
2.11695e-07
-1.6088e-06
2.03338e-07
-1.70651e-06
1.89659e-07
-1.79312e-06
1.70256e-07
-1.86557e-06
1.44867e-07
-1.92083e-06
1.13385e-07
-1.95575e-06
7.55806e-08
-1.96802e-06
3.309e-08
-1.95547e-06
-1.41857e-08
-1.9163e-06
-6.53586e-08
-1.84977e-06
-1.18544e-07
-1.75606e-06
-1.71768e-07
-1.63652e-06
-2.22748e-07
-1.49376e-06
-2.68893e-07
-1.3317e-06
-3.07479e-07
-1.15551e-06
-3.35876e-07
-9.71462e-07
-3.51826e-07
-7.86578e-07
-3.53753e-07
-6.08182e-07
-3.41049e-07
-4.4335e-07
-3.14274e-07
-2.9831e-07
-2.75216e-07
-1.77899e-07
-2.26773e-07
-8.51253e-08
-1.72661e-07
-2.0909e-08
-1.17035e-07
1.60142e-08
-6.41784e-08
2.916e-08
-1.8351e-08
2.44578e-08
1.57126e-08
1.0609e-08
3.19922e-08
2.24806e-08
1.17718e-09
-2.17199e-09
4.42122e-09
-7.52809e-09
9.29164e-09
-1.1964e-08
1.52374e-08
-1.48645e-08
2.17291e-08
-1.63336e-08
2.83191e-08
-1.66337e-08
3.46569e-08
-1.60459e-08
4.04818e-08
-1.48174e-08
4.56088e-08
-1.31475e-08
4.99114e-08
-1.11875e-08
5.33054e-08
-9.04599e-09
5.57349e-08
-6.79362e-09
5.7159e-08
-4.46999e-09
5.75418e-08
-2.08795e-09
5.68434e-08
3.61973e-10
5.50102e-08
2.9074e-09
5.19701e-08
5.59552e-09
4.7626e-08
8.48399e-09
4.18496e-08
1.16439e-08
3.44784e-08
1.5158e-08
2.531e-08
1.91192e-08
1.40987e-08
2.36295e-08
5.50831e-10
2.88004e-08
-1.5675e-08
3.47482e-08
-3.49701e-08
4.15951e-08
-5.77773e-08
4.94656e-08
-8.45899e-08
5.84843e-08
-1.15948e-07
6.8771e-08
-1.52435e-07
8.04363e-08
-1.94665e-07
9.35745e-08
-2.43275e-07
1.08256e-07
-2.98905e-07
1.24515e-07
-3.62177e-07
1.42342e-07
-4.33669e-07
1.61669e-07
-5.13881e-07
1.82355e-07
-6.03198e-07
2.04176e-07
-7.01849e-07
2.2681e-07
-8.0986e-07
2.49829e-07
-9.27009e-07
2.72692e-07
-1.05278e-06
2.94743e-07
-1.18633e-06
3.1522e-07
-1.32644e-06
3.3326e-07
-1.4715e-06
3.47924e-07
-1.61953e-06
3.58216e-07
-1.76813e-06
3.63121e-07
-1.91454e-06
3.61635e-07
-2.05565e-06
3.5281e-07
-2.18811e-06
3.35796e-07
-2.30833e-06
3.09884e-07
-2.41264e-06
2.74561e-07
-2.49733e-06
2.29553e-07
-2.5588e-06
1.74862e-07
-2.59389e-06
1.10664e-07
-2.59955e-06
3.8755e-08
-2.57356e-06
-4.01818e-08
-2.51437e-06
-1.24542e-07
-2.42144e-06
-2.11474e-07
-2.29535e-06
-2.97855e-07
-2.13802e-06
-3.80078e-07
-1.9528e-06
-4.5412e-07
-1.7445e-06
-5.15778e-07
-1.51937e-06
-5.61001e-07
-1.2849e-06
-5.86303e-07
-1.04943e-06
-5.89219e-07
-8.21737e-07
-5.68742e-07
-6.10361e-07
-5.25651e-07
-4.22945e-07
-4.62632e-07
-2.65571e-07
-3.84148e-07
-1.42199e-07
-2.96033e-07
-5.42859e-08
-2.04947e-07
-5.88769e-10
-1.17875e-07
2.29921e-08
-4.19319e-08
2.34414e-08
1.52633e-08
1.09818e-08
4.44518e-08
3.34624e-08
1.57778e-09
-3.74975e-09
5.59389e-09
-1.15442e-08
1.14106e-08
-1.77807e-08
1.83902e-08
-2.18441e-08
2.59388e-08
-2.38822e-08
3.35509e-08
-2.42458e-08
4.08233e-08
-2.33183e-08
4.74498e-08
-2.1444e-08
5.32072e-08
-1.89049e-08
5.79375e-08
-1.59178e-08
6.15304e-08
-1.26388e-08
6.39067e-08
-9.1699e-09
6.50043e-08
-5.56761e-09
6.47655e-08
-1.84916e-09
6.31259e-08
2.00156e-09
6.00043e-08
6.02898e-09
5.52957e-08
1.03042e-08
4.88631e-08
1.49166e-08
4.05313e-08
1.99756e-08
3.00811e-08
2.56083e-08
1.7243e-08
3.19573e-08
1.69468e-09
3.91778e-08
-1.69427e-08
4.74377e-08
-3.91081e-08
5.69137e-08
-6.5302e-08
6.77889e-08
-9.60854e-08
8.02491e-08
-1.32078e-07
9.44768e-08
-1.73952e-07
1.10645e-07
-2.22424e-07
1.28909e-07
-2.78242e-07
1.49393e-07
-3.42167e-07
1.7218e-07
-4.14948e-07
1.97296e-07
-4.97294e-07
2.24688e-07
-5.89836e-07
2.5421e-07
-6.93082e-07
2.85601e-07
-8.07373e-07
3.18467e-07
-9.32826e-07
3.52263e-07
-1.06928e-06
3.86285e-07
-1.21625e-06
4.19663e-07
-1.37287e-06
4.51364e-07
-1.53786e-06
4.80206e-07
-1.70948e-06
5.04885e-07
-1.88557e-06
5.24005e-07
-2.06347e-06
5.36124e-07
-2.24016e-06
5.39805e-07
-2.41219e-06
5.3367e-07
-2.57584e-06
5.16461e-07
-2.72715e-06
4.87103e-07
-2.86203e-06
4.44758e-07
-2.97636e-06
3.88895e-07
-3.06615e-06
3.19344e-07
-3.12764e-06
2.36357e-07
-3.1576e-06
1.40616e-07
-3.15299e-06
3.41525e-08
-3.11172e-06
-8.14586e-08
-3.03255e-06
-2.03706e-07
-2.91527e-06
-3.28757e-07
-2.76084e-06
-4.52282e-07
-2.57162e-06
-5.69298e-07
-2.35144e-06
-6.743e-07
-2.10567e-06
-7.61552e-07
-1.84116e-06
-8.25514e-07
-1.56609e-06
-8.61376e-07
-1.28963e-06
-8.65672e-07
-1.02149e-06
-8.36881e-07
-7.71244e-07
-7.759e-07
-5.47609e-07
-6.86267e-07
-3.57712e-07
-5.74045e-07
-2.06401e-07
-4.47343e-07
-9.57485e-08
-3.156e-07
-2.47339e-08
-1.8889e-07
1.08994e-08
-7.75652e-08
1.87702e-08
7.39246e-09
9.99579e-09
5.32262e-08
4.34582e-08
1.91515e-09
-5.66487e-09
6.57981e-09
-1.62088e-08
1.31642e-08
-2.43651e-08
2.09427e-08
-2.96226e-08
2.9268e-08
-3.22075e-08
3.75916e-08
-3.25694e-08
4.54719e-08
-3.11986e-08
5.25681e-08
-2.85402e-08
5.8626e-08
-2.49628e-08
6.34602e-08
-2.07521e-08
6.69354e-08
-1.61141e-08
6.89489e-08
-1.11834e-08
6.94154e-08
-6.03405e-09
6.82523e-08
-6.86056e-10
6.53672e-08
4.88657e-09
6.06476e-08
1.07486e-08
5.39516e-08
1.70002e-08
4.50985e-08
2.37697e-08
3.38614e-08
3.12128e-08
1.99617e-08
3.9508e-08
3.06313e-09
4.88558e-08
-1.7234e-08
5.94749e-08
-4.13959e-08
7.15997e-08
-6.99582e-08
8.5476e-08
-1.03526e-07
1.01357e-07
-1.42774e-07
1.19496e-07
-1.88437e-07
1.4014e-07
-2.41309e-07
1.63517e-07
-3.02223e-07
1.89823e-07
-3.72037e-07
2.19207e-07
-4.51609e-07
2.51752e-07
-5.4176e-07
2.87447e-07
-6.43242e-07
3.2617e-07
-7.56686e-07
3.67654e-07
-8.8255e-07
4.11466e-07
-1.02106e-06
4.56978e-07
-1.17215e-06
5.03356e-07
-1.33541e-06
5.49539e-07
-1.50999e-06
5.9425e-07
-1.69463e-06
6.36001e-07
-1.88755e-06
6.73124e-07
-2.08648e-06
7.03814e-07
-2.28866e-06
7.26183e-07
-2.49086e-06
7.3833e-07
-2.68947e-06
7.3841e-07
-2.88051e-06
7.24714e-07
-3.05979e-06
6.95744e-07
-3.22298e-06
6.50292e-07
-3.36572e-06
5.87501e-07
-3.48377e-06
5.06941e-07
-3.5731e-06
4.08674e-07
-3.63006e-06
2.93315e-07
-3.65154e-06
1.62099e-07
-3.63483e-06
1.74373e-08
-3.57807e-06
-1.38216e-07
-3.48039e-06
-3.01387e-07
-3.34186e-06
-4.67285e-07
-3.16374e-06
-6.304e-07
-2.94863e-06
-7.84414e-07
-2.70056e-06
-9.22368e-07
-2.42511e-06
-1.037e-06
-2.12937e-06
-1.12125e-06
-1.82183e-06
-1.16892e-06
-1.5121e-06
-1.1754e-06
-1.21048e-06
-1.13851e-06
-9.27276e-07
-1.0591e-06
-6.72104e-07
-9.41438e-07
-4.53016e-07
-7.93134e-07
-2.75736e-07
-6.24623e-07
-1.43033e-07
-4.48302e-07
-5.43107e-08
-2.77613e-07
-5.39379e-09
-1.26482e-07
1.1557e-08
-9.55834e-09
8.10329e-09
5.66799e-08
5.15615e-08
2.18365e-09
-7.84852e-09
7.36317e-09
-2.13884e-08
1.45355e-08
-3.15374e-08
2.28892e-08
-3.79764e-08
3.17298e-08
-4.10481e-08
4.04762e-08
-4.13158e-08
4.86593e-08
-3.93816e-08
5.59127e-08
-3.57936e-08
6.19581e-08
-3.10082e-08
6.65868e-08
-2.53807e-08
6.96404e-08
-1.91677e-08
7.09938e-08
-1.25368e-08
7.05368e-08
-5.57703e-09
6.81592e-08
1.69146e-09
6.37388e-08
9.30697e-09
5.71279e-08
1.73595e-08
4.81438e-08
2.59843e-08
3.65595e-08
3.5354e-08
2.20955e-08
4.56768e-08
4.41177e-09
5.71917e-08
-1.68976e-08
7.01652e-08
-4.23101e-08
8.48874e-08
-7.23781e-08
1.01668e-07
-1.07731e-07
1.20829e-07
-1.49075e-07
1.42701e-07
-1.97188e-07
1.67609e-07
-2.52914e-07
1.95866e-07
-3.1715e-07
2.27753e-07
-3.9083e-07
2.63502e-07
-4.74895e-07
3.03272e-07
-5.70267e-07
3.47124e-07
-6.77804e-07
3.94984e-07
-7.98253e-07
4.46619e-07
-9.32193e-07
5.01594e-07
-1.07997e-06
5.59242e-07
-1.24163e-06
6.18639e-07
-1.41686e-06
6.78583e-07
-1.60491e-06
7.37587e-07
-1.80455e-06
7.93891e-07
-2.01403e-06
8.45487e-07
-2.23108e-06
8.90174e-07
-2.45289e-06
9.25619e-07
-2.67615e-06
9.49441e-07
-2.89712e-06
9.59302e-07
-3.11172e-06
9.53011e-07
-3.31561e-06
9.28608e-07
-3.50433e-06
8.84465e-07
-3.6734e-06
8.19358e-07
-3.81844e-06
7.32542e-07
-3.93531e-06
6.23809e-07
-4.0202e-06
4.9356e-07
-4.06974e-06
3.42858e-07
-4.08114e-06
1.73505e-07
-4.05208e-06
-1.16221e-08
-3.98106e-06
-2.09245e-07
-3.86745e-06
-4.14991e-07
-3.71156e-06
-6.23179e-07
-3.51475e-06
-8.27211e-07
-3.27963e-06
-1.01953e-06
-3.01021e-06
-1.19179e-06
-2.71195e-06
-1.33526e-06
-2.39188e-06
-1.44132e-06
-2.05852e-06
-1.50228e-06
-1.72163e-06
-1.51229e-06
-1.39187e-06
-1.46827e-06
-1.08014e-06
-1.37082e-06
-7.96839e-07
-1.22474e-06
-5.509e-07
-1.03907e-06
-3.48959e-07
-8.26564e-07
-1.94582e-07
-6.02679e-07
-8.77507e-08
-3.84444e-07
-2.45988e-08
-1.89634e-07
2.64426e-09
-3.68014e-08
5.64148e-09
5.36827e-08
5.7203e-08
2.38396e-09
-1.02325e-08
7.94198e-09
-2.69464e-08
1.55229e-08
-3.91183e-08
2.42358e-08
-4.66892e-08
3.3344e-08
-5.01563e-08
4.22415e-08
-5.02134e-08
5.044e-08
-4.75801e-08
5.75553e-08
-4.29089e-08
6.32912e-08
-3.67441e-08
6.74197e-08
-2.95092e-08
6.97622e-08
-2.15102e-08
7.01709e-08
-1.29455e-08
6.85102e-08
-3.91628e-09
6.46418e-08
5.5598e-09
5.84107e-08
1.55382e-08
4.96319e-08
2.61383e-08
3.80808e-08
3.75355e-08
2.34815e-08
4.99533e-08
5.49887e-09
6.36594e-08
-1.62694e-08
7.89599e-08
-4.22993e-08
9.61951e-08
-7.31455e-08
1.15734e-07
-1.09445e-07
1.37967e-07
-1.51916e-07
1.633e-07
-2.0136e-07
1.92144e-07
-2.5865e-07
2.249e-07
-3.24726e-07
2.61942e-07
-4.00573e-07
3.036e-07
-4.872e-07
3.50129e-07
-5.85607e-07
4.0168e-07
-6.96747e-07
4.58264e-07
-8.21472e-07
5.19709e-07
-9.60478e-07
5.85624e-07
-1.11423e-06
6.5535e-07
-1.28292e-06
7.27925e-07
-1.46634e-06
8.02057e-07
-1.66386e-06
8.76105e-07
-1.87436e-06
9.48086e-07
-2.09616e-06
1.0157e-06
-2.32704e-06
1.07637e-06
-2.56421e-06
1.12734e-06
-2.80435e-06
1.16576e-06
-3.04369e-06
1.18878e-06
-3.27809e-06
1.1937e-06
-3.50315e-06
1.17808e-06
-3.71436e-06
1.13981e-06
-3.90717e-06
1.07727e-06
-4.07717e-06
9.89364e-07
-4.2202e-06
8.75569e-07
-4.33241e-06
7.36015e-07
-4.41036e-06
5.71515e-07
-4.45112e-06
3.83617e-07
-4.45229e-06
1.74675e-07
-4.41195e-06
-5.19573e-08
-4.32892e-06
-2.92281e-07
-4.20275e-06
-5.41155e-07
-4.03381e-06
-7.92119e-07
-3.8234e-06
-1.03762e-06
-3.57393e-06
-1.269e-06
-3.28909e-06
-1.47663e-06
-2.97404e-06
-1.65031e-06
-2.63547e-06
-1.77988e-06
-2.28169e-06
-1.85606e-06
-1.92246e-06
-1.87152e-06
-1.56863e-06
-1.82209e-06
-1.23162e-06
-1.70783e-06
-9.22537e-07
-1.53382e-06
-6.51253e-07
-1.31036e-06
-4.25377e-07
-1.05244e-06
-2.49383e-07
-7.78673e-07
-1.23981e-07
-5.09846e-07
-4.58004e-08
-2.67815e-07
-7.35894e-09
-7.52429e-08
2.84937e-09
4.34744e-08
6.00523e-08
2.5198e-09
-1.27523e-08
8.32185e-09
-3.27484e-08
1.61345e-08
-4.6931e-08
2.49964e-08
-5.55511e-08
3.41349e-08
-5.92949e-08
4.29253e-08
-5.90038e-08
5.08666e-08
-5.55215e-08
5.75638e-08
-4.96061e-08
6.27077e-08
-4.1888e-08
6.60554e-08
-3.2857e-08
6.74105e-08
-2.28653e-08
6.66032e-08
-1.21382e-08
6.3473e-08
-7.86054e-10
5.78524e-08
1.11804e-08
4.95525e-08
2.3838e-08
3.83499e-08
3.73408e-08
2.39754e-08
5.191e-08
6.10302e-09
6.78257e-08
-1.5659e-08
8.54214e-08
-4.17759e-08
1.05077e-07
-7.27933e-08
1.27212e-07
-1.09341e-07
1.52282e-07
-1.52137e-07
1.80763e-07
-2.01986e-07
2.13149e-07
-2.59773e-07
2.49931e-07
-3.26459e-07
2.91586e-07
-4.03062e-07
3.38545e-07
-4.90638e-07
3.91176e-07
-5.90247e-07
4.49739e-07
-7.0292e-07
5.14352e-07
-8.296e-07
5.84944e-07
-9.71094e-07
6.61203e-07
-1.12799e-06
7.42526e-07
-1.30062e-06
8.2797e-07
-1.4889e-06
9.16214e-07
-1.69237e-06
1.00553e-06
-1.91003e-06
1.09376e-06
-2.14033e-06
1.17839e-06
-2.38114e-06
1.25651e-06
-2.62975e-06
1.32498e-06
-2.8829e-06
1.38049e-06
-3.13683e-06
1.41969e-06
-3.38741e-06
1.43936e-06
-3.63024e-06
1.43653e-06
-3.86076e-06
1.4086e-06
-4.07446e-06
1.35351e-06
-4.26694e-06
1.26975e-06
-4.43404e-06
1.15647e-06
-4.57197e-06
1.0135e-06
-4.67733e-06
8.41371e-07
-4.74717e-06
6.41351e-07
-4.77901e-06
4.15465e-07
-4.7709e-06
1.66561e-07
-4.72128e-06
-1.01581e-07
-4.62917e-06
-3.84385e-07
-4.49422e-06
-6.76108e-07
-4.31668e-06
-9.69656e-07
-4.09761e-06
-1.25669e-06
-3.83904e-06
-1.52758e-06
-3.54415e-06
-1.77152e-06
-3.21755e-06
-1.97691e-06
-2.86545e-06
-2.13199e-06
-2.49574e-06
-2.22577e-06
-2.11801e-06
-2.24925e-06
-1.74325e-06
-2.19686e-06
-1.3833e-06
-2.06779e-06
-1.05001e-06
-1.86711e-06
-7.54242e-07
-1.60613e-06
-5.04678e-07
-1.302e-06
-3.06837e-07
-9.76513e-07
-1.62311e-07
-6.54373e-07
-6.83839e-08
-3.61742e-07
-1.80378e-08
-1.25589e-07
-1.30625e-10
2.55672e-08
5.99217e-08
2.59605e-09
-1.53483e-08
8.51216e-09
-3.86645e-08
1.63832e-08
-5.4802e-08
2.51896e-08
-6.43575e-08
3.41296e-08
-6.82348e-08
4.25654e-08
-6.74395e-08
4.99897e-08
-6.29458e-08
5.60019e-08
-5.56182e-08
6.02851e-08
-4.61712e-08
6.25852e-08
-3.51572e-08
6.26902e-08
-2.29702e-08
6.041e-08
-9.85803e-09
5.55597e-08
4.06429e-09
4.79422e-08
1.87979e-08
3.7334e-08
3.44462e-08
2.3472e-08
5.12028e-08
6.0416e-09
6.93404e-08
-1.53342e-08
8.92016e-08
-4.1104e-08
1.11191e-07
-7.17957e-08
1.35769e-07
-1.08023e-07
1.6344e-07
-1.50488e-07
1.94747e-07
-1.99986e-07
2.30261e-07
-2.57398e-07
2.70561e-07
-3.23689e-07
3.16222e-07
-3.9989e-07
3.67787e-07
-4.87085e-07
4.2574e-07
-5.86376e-07
4.90467e-07
-6.98851e-07
5.62214e-07
-8.25534e-07
6.41035e-07
-9.67328e-07
7.26738e-07
-1.12495e-06
8.18821e-07
-1.29884e-06
9.16416e-07
-1.4891e-06
1.01823e-06
-1.69541e-06
1.12252e-06
-1.91693e-06
1.22705e-06
-2.15229e-06
1.32912e-06
-2.3995e-06
1.42559e-06
-2.65596e-06
1.51297e-06
-2.91852e-06
1.58754e-06
-3.1835e-06
1.64547e-06
-3.44681e-06
1.683e-06
-3.70407e-06
1.69662e-06
-3.95076e-06
1.68322e-06
-4.18239e-06
1.64023e-06
-4.39457e-06
1.5657e-06
-4.58324e-06
1.45841e-06
-4.74465e-06
1.31788e-06
-4.87549e-06
1.14434e-06
-4.97291e-06
9.38785e-07
-5.03447e-06
7.02916e-07
-5.05819e-06
4.39187e-07
-5.04249e-06
1.50855e-07
-4.98609e-06
-1.57971e-07
-4.88817e-06
-4.82311e-07
-4.74828e-06
-8.15999e-07
-4.56646e-06
-1.15147e-06
-4.34337e-06
-1.47978e-06
-4.08049e-06
-1.79046e-06
-3.78035e-06
-2.07166e-06
-3.44685e-06
-2.31041e-06
-3.08552e-06
-2.49333e-06
-2.70372e-06
-2.60757e-06
-2.31073e-06
-2.64224e-06
-1.91756e-06
-2.59003e-06
-1.53644e-06
-2.44891e-06
-1.18e-06
-2.22354e-06
-8.60156e-07
-1.92598e-06
-5.86798e-07
-1.57536e-06
-3.66646e-07
-1.19666e-06
-2.02338e-07
-8.1868e-07
-9.19739e-08
-4.72106e-07
-2.91316e-08
-1.88431e-07
-3.15804e-09
-4.06303e-10
5.67636e-08
2.6177e-09
-1.7966e-08
8.52358e-09
-4.45704e-08
1.62845e-08
-6.2563e-08
2.48363e-08
-7.29092e-08
3.3356e-08
-7.67545e-08
4.1199e-08
-7.52825e-08
4.78573e-08
-6.96041e-08
5.29298e-08
-6.06907e-08
5.60965e-08
-4.93379e-08
5.70955e-08
-3.61562e-08
5.57017e-08
-2.15764e-08
5.17067e-08
-5.86306e-09
4.49015e-08
1.08695e-08
3.50596e-08
2.86397e-08
2.19228e-08
4.7583e-08
5.18782e-09
6.79378e-08
-1.55058e-08
9.0034e-08
-4.05861e-08
1.14282e-07
-7.0558e-08
1.41163e-07
-1.06011e-07
1.71221e-07
-1.47623e-07
2.05052e-07
-1.96167e-07
2.43291e-07
-2.52508e-07
2.86601e-07
-3.17597e-07
3.3565e-07
-3.92464e-07
3.91089e-07
-4.782e-07
4.53523e-07
-5.75932e-07
5.23472e-07
-6.86788e-07
6.01323e-07
-8.11855e-07
6.8728e-07
-9.52118e-07
7.81299e-07
-1.1084e-06
8.8302e-07
-1.28128e-06
9.91701e-07
-1.47101e-06
1.10615e-06
-1.67744e-06
1.22466e-06
-1.89993e-06
1.34501e-06
-2.13727e-06
1.46439e-06
-2.38767e-06
1.57952e-06
-2.6487e-06
1.68662e-06
-2.91735e-06
1.78162e-06
-3.19005e-06
1.86025e-06
-3.46281e-06
1.91823e-06
-3.73132e-06
1.9515e-06
-3.99109e-06
1.95639e-06
-4.23765e-06
1.92979e-06
-4.46669e-06
1.86926e-06
-4.67416e-06
1.77318e-06
-4.85643e-06
1.64068e-06
-5.01028e-06
1.47173e-06
-5.13297e-06
1.26703e-06
-5.2222e-06
1.02801e-06
-5.27607e-06
7.56784e-07
-5.29302e-06
4.56139e-07
-5.2718e-06
1.29634e-07
-5.21134e-06
-2.18425e-07
-5.11083e-06
-5.82822e-07
-4.96967e-06
-9.5716e-07
-4.78757e-06
-1.33358e-06
-4.56467e-06
-1.70267e-06
-4.3018e-06
-2.05333e-06
-4.00071e-06
-2.37274e-06
-3.66447e-06
-2.64665e-06
-3.29779e-06
-2.86001e-06
-2.90735e-06
-2.998e-06
-2.502e-06
-3.04759e-06
-2.09264e-06
-2.99939e-06
-1.69186e-06
-2.84969e-06
-1.31306e-06
-2.60234e-06
-9.69286e-07
-2.26975e-06
-6.71806e-07
-1.87284e-06
-4.28715e-07
-1.43976e-06
-2.43879e-07
-1.00352e-06
-1.16377e-07
-5.99609e-07
-4.05074e-08
-2.64301e-07
-6.21995e-09
-3.46937e-08
5.05437e-08
2.58935e-09
-2.05554e-08
8.36674e-09
-5.03478e-08
1.58543e-08
-7.00505e-08
2.39576e-08
-8.10125e-08
3.18415e-08
-8.46385e-08
3.88617e-08
-8.23027e-08
4.45146e-08
-7.52571e-08
4.84038e-08
-6.45799e-08
5.02104e-08
-5.11444e-08
4.96679e-08
-3.56138e-08
4.65409e-08
-1.84494e-08
4.06042e-08
7.36252e-11
3.16258e-08
1.98479e-08
1.93504e-08
4.09151e-08
3.48519e-09
6.34482e-08
-1.63133e-08
8.77363e-08
-4.0451e-08
1.14172e-07
-6.94062e-08
1.43237e-07
-1.03739e-07
1.75496e-07
-1.44097e-07
2.1158e-07
-1.91223e-07
2.52177e-07
-2.4595e-07
2.98019e-07
-3.09209e-07
3.49859e-07
-3.82009e-07
4.08451e-07
-4.65436e-07
4.74516e-07
-5.60622e-07
5.48709e-07
-6.68717e-07
6.31567e-07
-7.90852e-07
7.23458e-07
-9.2808e-07
8.24508e-07
-1.08132e-06
9.34536e-07
-1.25126e-06
1.05297e-06
-1.43833e-06
1.17876e-06
-1.64253e-06
1.31035e-06
-1.86342e-06
1.44556e-06
-2.10002e-06
1.5816e-06
-2.35073e-06
1.71511e-06
-2.61334e-06
1.84213e-06
-2.88501e-06
1.9583e-06
-3.16236e-06
2.05897e-06
-3.44149e-06
2.13938e-06
-3.71819e-06
2.19492e-06
-3.98804e-06
2.22135e-06
-4.24661e-06
2.21496e-06
-4.48962e-06
2.1728e-06
-4.71309e-06
2.09273e-06
-4.91341e-06
1.9735e-06
-5.08748e-06
1.81475e-06
-5.23268e-06
1.61692e-06
-5.34684e-06
1.38119e-06
-5.42822e-06
1.10939e-06
-5.4754e-06
8.03964e-07
-5.4872e-06
4.67938e-07
-5.46261e-06
1.05051e-07
-5.40071e-06
-2.80331e-07
-5.3006e-06
-6.8293e-07
-5.16147e-06
-1.09629e-06
-4.98263e-06
-1.51242e-06
-4.76365e-06
-1.92164e-06
-4.50464e-06
-2.31235e-06
-4.20648e-06
-2.6709e-06
-3.87131e-06
-2.98182e-06
-3.5029e-06
-3.22842e-06
-3.10712e-06
-3.39379e-06
-2.69219e-06
-3.46252e-06
-2.26883e-06
-3.42275e-06
-1.84986e-06
-3.26867e-06
-1.44944e-06
-3.00276e-06
-1.08184e-06
-2.63735e-06
-7.59822e-07
-2.19486e-06
-4.93072e-07
-1.70651e-06
-2.86897e-07
-1.20969e-06
-1.41531e-07
-7.44975e-07
-5.2119e-08
-3.53713e-07
-9.28508e-09
-7.75276e-08
4.12586e-08
2.515e-09
-2.30704e-08
8.05139e-09
-5.58842e-08
1.51075e-08
-7.71066e-08
2.25735e-08
-8.84786e-08
2.96124e-08
-9.16773e-08
3.55868e-08
-8.82771e-08
4.00039e-08
-7.96742e-08
4.24766e-08
-6.70526e-08
4.2691e-08
-5.13588e-08
4.03798e-08
-3.33026e-08
3.52993e-08
-1.33689e-08
2.72096e-08
8.16333e-09
1.58569e-08
3.12007e-08
9.57843e-10
5.58142e-08
-1.78144e-08
8.22204e-08
-4.08426e-08
1.10765e-07
-6.85773e-08
1.41906e-07
-1.01546e-07
1.76206e-07
-1.40361e-07
2.14311e-07
-1.85727e-07
2.56946e-07
-2.38443e-07
3.04893e-07
-2.994e-07
3.58977e-07
-3.69583e-07
4.20042e-07
-4.50052e-07
4.8892e-07
-5.4193e-07
5.66394e-07
-6.46374e-07
6.53152e-07
-7.64538e-07
7.49731e-07
-8.97525e-07
8.56445e-07
-1.04633e-06
9.73312e-07
-1.21176e-06
1.09997e-06
-1.39436e-06
1.23557e-06
-1.59433e-06
1.37874e-06
-1.81143e-06
1.52744e-06
-2.04488e-06
1.67901e-06
-2.29334e-06
1.83006e-06
-2.55483e-06
1.97659e-06
-2.82673e-06
2.11403e-06
-3.10584e-06
2.23741e-06
-3.38844e-06
2.34157e-06
-3.67045e-06
2.42138e-06
-3.94752e-06
2.47199e-06
-4.21527e-06
2.4891e-06
-4.46945e-06
2.46915e-06
-4.7061e-06
2.40945e-06
-4.92165e-06
2.30828e-06
-5.11306e-06
2.16491e-06
-5.27778e-06
1.97947e-06
-5.41379e-06
1.75293e-06
-5.51951e-06
1.48691e-06
-5.59371e-06
1.18359e-06
-5.63538e-06
8.45636e-07
-5.64365e-06
4.76204e-07
-5.6177e-06
7.91032e-08
-5.55665e-06
-3.41381e-07
-5.45953e-06
-7.80053e-07
-5.32525e-06
-1.23057e-06
-5.1527e-06
-1.68497e-06
-4.94088e-06
-2.13347e-06
-4.68911e-06
-2.56411e-06
-4.39741e-06
-2.9626e-06
-4.06687e-06
-3.31236e-06
-3.70023e-06
-3.59505e-06
-3.30238e-06
-3.79164e-06
-2.88079e-06
-3.8841e-06
-2.44577e-06
-3.85777e-06
-2.01025e-06
-3.70419e-06
-1.58912e-06
-3.42389e-06
-1.19788e-06
-3.02859e-06
-8.50948e-07
-2.54179e-06
-5.5981e-07
-1.99764e-06
-3.31449e-07
-1.43805e-06
-1.67466e-07
-9.08958e-07
-6.39838e-08
-4.57195e-07
-1.23583e-08
-1.29153e-07
2.89003e-08
2.39795e-09
-2.54683e-08
7.58603e-09
-6.10723e-08
1.40578e-08
-8.35784e-08
2.07028e-08
-9.51236e-08
2.66926e-08
-9.76671e-08
3.14052e-08
-9.29896e-08
3.43641e-08
-8.26331e-08
3.51968e-08
-6.78853e-08
3.35986e-08
-4.97606e-08
2.93042e-08
-2.90082e-08
2.20644e-08
-6.12917e-09
1.16263e-08
1.86014e-08
-2.28417e-09
4.51112e-08
-1.99773e-08
7.35073e-08
-4.18128e-08
1.04056e-07
-6.82118e-08
1.37164e-07
-9.96678e-08
1.73362e-07
-1.36755e-07
2.13293e-07
-1.80136e-07
2.57692e-07
-2.30567e-07
3.07376e-07
-2.88898e-07
3.63224e-07
-3.56072e-07
4.26151e-07
-4.33117e-07
4.97087e-07
-5.2113e-07
5.76933e-07
-6.21258e-07
6.66522e-07
-7.34663e-07
7.66557e-07
-8.62478e-07
8.77546e-07
-1.00576e-06
9.99723e-07
-1.1654e-06
1.13295e-06
-1.34208e-06
1.27665e-06
-1.53615e-06
1.42965e-06
-1.74758e-06
1.59016e-06
-1.97582e-06
1.75568e-06
-2.21977e-06
1.92296e-06
-2.47771e-06
2.088e-06
-2.74728e-06
2.24616e-06
-3.02552e-06
2.39226e-06
-3.3089e-06
2.5208e-06
-3.59349e-06
2.62616e-06
-3.87505e-06
2.70294e-06
-4.14927e-06
2.74621e-06
-4.41191e-06
2.75175e-06
-4.65903e-06
2.71626e-06
-4.88705e-06
2.63747e-06
-5.09294e-06
2.51418e-06
-5.27422e-06
2.34618e-06
-5.42893e-06
2.13419e-06
-5.55563e-06
1.87963e-06
-5.65325e-06
1.58454e-06
-5.72104e-06
1.25137e-06
-5.75834e-06
8.8294e-07
-5.76451e-06
4.82374e-07
-5.73888e-06
5.34739e-08
-5.68058e-06
-3.99686e-07
-5.58852e-06
-8.72107e-07
-5.46138e-06
-1.35771e-06
-5.29763e-06
-1.84872e-06
-5.0957e-06
-2.3354e-06
-4.85416e-06
-2.80565e-06
-4.57211e-06
-3.24466e-06
-4.24958e-06
-3.63489e-06
-3.88817e-06
-3.95646e-06
-3.49163e-06
-4.18818e-06
-3.06649e-06
-4.30925e-06
-2.62244e-06
-4.30182e-06
-2.17237e-06
-4.15426e-06
-1.73173e-06
-3.86453e-06
-1.31729e-06
-3.44304e-06
-9.45221e-07
-2.91385e-06
-6.29033e-07
-2.31383e-06
-3.77648e-07
-1.68944e-06
-1.94268e-07
-1.09234e-06
-7.61614e-08
-5.75302e-07
-1.54591e-08
-1.89855e-07
1.34412e-08
2.24083e-09
-2.77092e-08
6.97773e-09
-6.58092e-08
1.27168e-08
-8.93174e-08
1.83617e-08
-1.00769e-07
2.31036e-08
-1.02409e-07
2.63445e-08
-9.62305e-08
2.76308e-08
-8.39194e-08
2.66096e-08
-6.68641e-08
2.29893e-08
-4.61403e-08
1.65101e-08
-2.25289e-08
6.91972e-09
3.46118e-09
-6.04587e-09
3.1567e-08
-2.26794e-08
6.17447e-08
-4.33166e-08
9.41445e-08
-6.83486e-08
1.29088e-07
-9.82333e-08
1.67048e-07
-1.33505e-07
2.08634e-07
-1.74781e-07
2.5457e-07
-2.22772e-07
3.05683e-07
-2.78279e-07
3.62884e-07
-3.42198e-07
4.27143e-07
-4.15514e-07
4.99466e-07
-4.99287e-07
5.8086e-07
-5.94639e-07
6.72285e-07
-7.02722e-07
7.74605e-07
-8.24684e-07
8.88519e-07
-9.61615e-07
1.01448e-06
-1.11449e-06
1.1526e-06
-1.28409e-06
1.30255e-06
-1.47092e-06
1.46348e-06
-1.67513e-06
1.63386e-06
-1.89641e-06
1.81144e-06
-2.1339e-06
1.99317e-06
-2.38616e-06
2.17522e-06
-2.65112e-06
2.35296e-06
-2.92606e-06
2.52111e-06
-3.20772e-06
2.67392e-06
-3.49232e-06
2.8054e-06
-3.7758e-06
2.90963e-06
-4.0539e-06
2.98104e-06
-4.32243e-06
3.01474e-06
-4.57741e-06
3.00673e-06
-4.81527e-06
2.95411e-06
-5.03293e-06
2.85513e-06
-5.22789e-06
2.70914e-06
-5.39825e-06
2.51654e-06
-5.54263e-06
2.27856e-06
-5.6601e-06
1.9971e-06
-5.75007e-06
1.67451e-06
-5.81216e-06
1.31346e-06
-5.84605e-06
9.16835e-07
-5.85127e-06
4.87587e-07
-5.82724e-06
2.94516e-08
-5.77311e-06
-4.53822e-07
-5.68768e-06
-9.57534e-07
-5.56943e-06
-1.47597e-06
-5.41646e-06
-2.00169e-06
-5.22667e-06
-2.52519e-06
-4.99794e-06
-3.03438e-06
-4.72845e-06
-3.51415e-06
-4.41714e-06
-3.94619e-06
-4.06438e-06
-4.30922e-06
-3.67266e-06
-4.5799e-06
-3.24736e-06
-4.73455e-06
-2.79731e-06
-4.75186e-06
-2.33511e-06
-4.61646e-06
-1.8766e-06
-4.32304e-06
-1.43975e-06
-3.87989e-06
-1.04258e-06
-3.31102e-06
-7.00822e-07
-2.65559e-06
-4.2562e-07
-1.96464e-06
-2.22051e-07
-1.29591e-06
-8.87319e-08
-7.08621e-07
-1.86183e-08
-2.59969e-07
-5.17712e-09
2.04564e-09
-2.97548e-08
6.23211e-09
-6.99957e-08
1.10941e-08
-9.41795e-08
1.55641e-08
-1.05239e-07
1.88642e-08
-1.05709e-07
2.04294e-08
-9.77956e-08
1.9836e-08
-8.3326e-08
1.67562e-08
-6.37843e-08
1.09155e-08
-4.02997e-08
2.06266e-09
-1.36761e-08
-1.0055e-08
1.55788e-08
-2.57106e-08
4.72226e-08
-4.52137e-08
8.12479e-08
-6.89238e-08
1.17855e-07
-9.72618e-08
1.57426e-07
-1.3072e-07
2.00506e-07
-1.6987e-07
2.47784e-07
-2.15372e-07
3.00071e-07
-2.67975e-07
3.58286e-07
-3.28523e-07
4.23431e-07
-3.97949e-07
4.96568e-07
-4.77268e-07
5.78785e-07
-5.67564e-07
6.71156e-07
-6.69967e-07
7.74688e-07
-7.85618e-07
8.90257e-07
-9.1563e-07
1.01853e-06
-1.06103e-06
1.15987e-06
-1.22268e-06
1.31425e-06
-1.40123e-06
1.4811e-06
-1.59698e-06
1.65923e-06
-1.80985e-06
1.84672e-06
-2.03923e-06
2.04082e-06
-2.28397e-06
2.23792e-06
-2.54229e-06
2.43353e-06
-2.81176e-06
2.62243e-06
-3.08939e-06
2.79873e-06
-3.37164e-06
2.95617e-06
-3.6546e-06
3.08836e-06
-3.93413e-06
3.18917e-06
-4.20609e-06
3.253e-06
-4.46648e-06
3.27513e-06
-4.71167e-06
3.25193e-06
-4.93854e-06
3.18098e-06
-5.14452e-06
3.06111e-06
-5.32768e-06
2.8923e-06
-5.48665e-06
2.67551e-06
-5.62058e-06
2.41249e-06
-5.729e-06
2.10553e-06
-5.81172e-06
1.75723e-06
-5.86867e-06
1.37041e-06
-5.89983e-06
9.47996e-07
-5.90489e-06
4.92641e-07
-5.88336e-06
7.91937e-09
-5.83436e-06
-5.02822e-07
-5.7566e-06
-1.03529e-06
-5.64848e-06
-1.58409e-06
-5.50779e-06
-2.14238e-06
-5.33197e-06
-2.70101e-06
-5.11823e-06